# Probe 0 (3e-05 0 0.0001)
# Probe 1 (3e-05 0 0.0529)
# Time        0             1            
0.0005        4.70764       1.01508      
0.001         4.21274       1.00071      
0.0015        4.15971       1.00244      
0.002         3.86211       1.00021      
0.0025        3.84483       1.00045      
0.003         3.94818       1.00027      
0.0035        4.13274       1.00057      
0.004         4.38507       1.00065      
0.0045        4.65396       1.00036      
0.005         4.89126       1.00041      
0.0055        5.11704       1.00045      
0.006         5.305         1.00028      
0.0065        5.4908        1.0005       
0.007         5.65516       1.00052      
0.0075        5.82088       1.00057      
0.008         5.95565       1.00054      
0.0085        6.06829       1.00065      
0.009         6.1869        1.00082      
0.0095        6.2883        1.00066      
0.01          6.34087       1.00063      
0.0105        6.29773       1.00081      
0.011         6.40744       1.00077      
0.0115        6.43779       1.0007       
0.012         6.37014       1.00071      
0.0125        6.48058       1.0004       
0.013         6.85882       1.00039      
0.0135        6.93644       1.00052      
0.014         6.95721       1.00075      
0.0145        7.19534       1.0007       
0.015         7.48556       1.00042      
0.0155        7.58135       1.00065      
0.016         7.66342       1.0008       
0.0165        7.78332       1.00092      
0.017         7.92984       1.00051      
0.0175        8.01764       1.00073      
0.018         7.97574       1.00085      
0.0185        8.16691       1.00064      
0.019         8.44208       1.00067      
0.0195        8.5702        1.00054      
0.02          8.58868       1.00068      
0.0205        8.61335       1.00049      
0.021         8.69837       1.0007       
0.0215        8.91975       1.00059      
0.022         8.97672       1.00058      
0.0225        9.16333       1.00086      
0.023         9.23023       1.00068      
0.0235        9.19978       1.00046      
0.024         9.40636       1.00049      
0.0245        9.72131       1.00056      
0.025         9.74475       1.00072      
0.0255        9.57582       1.0006       
0.026         9.89859       1.00063      
0.0265        10.2418       1.00061      
0.027         10.3077       1.00057      
0.0275        10.2292       1.0007       
0.028         10.4794       1.00078      
0.0285        10.6404       1.00066      
0.029         10.5869       1.00049      
0.0295        10.816        1.00058      
0.03          10.9301       1.00075      
0.0305        11.1346       1.00059      
0.031         11.0773       1.00041      
0.0315        11.1704       1.00064      
0.032         11.4021       1.00074      
0.0325        11.6653       1.00076      
0.033         11.5991       1.00062      
0.0335        11.6551       1.00066      
0.034         11.8653       1.0007       
0.0345        12.0825       1.00061      
0.035         11.8737       1.00051      
0.0355        12.1259       1.00079      
0.036         12.4607       1.00062      
0.0365        12.6436       1.00047      
0.037         12.4433       1.00052      
0.0375        12.7216       1.00088      
0.038         12.9773       1.00069      
0.0385        13.1004       1.00047      
0.039         12.8082       1.00045      
0.0395        12.9097       1.00085      
0.04          13.207        1.00068      
0.0405        13.7201       1.00051      
0.041         13.4269       1.00045      
0.0415        13.3703       1.00099      
0.042         13.8691       1.00078      
0.0425        14.1564       1.00043      
0.043         13.9202       1.00045      
0.0435        13.8311       1.00076      
0.044         14.2916       1.00076      
0.0445        14.5729       1.00042      
0.045         14.4596       1.00052      
0.0455        14.2781       1.00073      
0.046         14.5257       1.00069      
0.0465        14.9728       1.0006       
0.047         14.7527       1.00047      
0.0475        14.7973       1.00059      
0.048         15.2943       1.00068      
0.0485        15.4757       1.00057      
0.049         15.2469       1.00064      
0.0495        14.6063       1.00088      
0.05          15.2597       1.00068      
0.0505        15.969        1.00036      
0.051         15.7136       1.00038      
0.0515        15.7473       1.00105      
0.052         15.7738       1.00081      
0.0525        16.2277       1.00052      
0.053         16.2079       1.00025      
0.0535        16.2019       1.00072      
0.054         16.0224       1.00079      
0.0545        16.2974       1.00058      
0.055         16.4724       1.00035      
0.0555        16.6074       1.00057      
0.056         16.3715       1.00069      
0.0565        16.2396       1.00064      
0.057         16.9794       1.00044      
0.0575        17.4763       1.00053      
0.058         17.0018       1.00062      
0.0585        16.3824       1.00063      
0.059         16.8901       1.00076      
0.0595        17.7929       1.00063      
0.06          17.6256       1.00055      
0.0605        17.1876       1.00055      
0.061         16.9894       1.00029      
0.0615        17.5037       1.00039      
0.062         17.6651       1.00053      
0.0625        17.1312       1.00036      
0.063         16.6576       1.00035      
0.0635        17.4364       1.00039      
0.064         18.0381       1.00037      
0.0645        17.3323       1.00055      
0.065         17.3601       1.0007       
0.0655        17.5101       1.0003       
0.066         17.7818       1.00098      
0.0665        17.503        1.00069      
0.067         17.2372       1.00058      
0.0675        17.1742       1.00057      
0.068         17.7825       1.00088      
0.0685        17.4206       1.00052      
0.069         17.8128       1.00053      
0.0695        17.9775       1.00073      
0.07          17.2273       1.00064      
0.0705        17.7989       1.00045      
0.071         18.2834       1.00045      
0.0715        17.8949       1.00073      
0.072         17.0106       1.00081      
0.0725        17.1397       1.00064      
0.073         18.2404       1.00092      
0.0735        18.2572       1.00107      
0.074         18.0165       1.00053      
0.0745        17.2852       1.00055      
0.075         17.6202       1.00056      
0.0755        18.1766       1.00031      
0.076         16.7391       1.00075      
0.0765        16.8911       1.00106      
0.077         19.0899       1.00061      
0.0775        19.5823       1.00014      
0.078         18.613        1.00074      
0.0785        16.3982       1.00113      
0.079         17.086        1.00059      
0.0795        18.994        0.999983     
0.08          18.9979       1.00079      
0.0805        17.3892       1.00127      
0.081         16.8046       1.00088      
0.0815        18.2017       1.00015      
0.082         18.6284       1.00037      
0.0825        18.521        1.00079      
0.083         17.5147       1.00077      
0.0835        18.0917       1.00039      
0.084         17.9592       1.0001       
0.0845        17.4786       1.00098      
0.085         17.3771       1.00129      
0.0855        17.5051       1.00097      
0.086         18.3939       1.00032      
0.0865        18.3893       1.00061      
0.087         16.1458       1.00101      
0.0875        14.7464       1.00083      
0.088         18.7479       1.00034      
0.0885        19.869        0.999977     
0.089         19.6369       1.00224      
0.0895        17.3806       1.00125      
0.09          15.4672       1.00036      
0.0905        17.6589       0.999982     
0.091         19.6907       0.999905     
0.0915        19.432        1.00109      
0.092         16.4339       1.00102      
0.0925        14.0809       1.00051      
0.093         18.1755       1.0001       
0.0935        20.249        0.999947     
0.094         18.669        1.00163      
0.0945        18.0743       1.00142      
0.095         17.0115       1.00014      
0.0955        17.6358       1.00012      
0.096         18.8615       1.00061      
0.0965        17.9751       1.00092      
0.097         16.478        1.00091      
0.0975        14.3346       1.00033      
0.098         17.5944       1.00061      
0.0985        20.2598       1.00056      
0.099         20.2293       1.0012       
0.0995        19.1463       1.00143      
0.1           17.1692       0.99993      
