# Probe 0 (3e-05 0 0.0001)
# Probe 1 (3e-05 0 0.0529)
# Time        0             1            
0.0005        (0.000454842 0.000417559 0.00163765) (-3.28418e-07 3.13597e-07 0.00218147)
0.001         (0.000396827 0.000434797 0.00215656) (-3.24553e-09 4.27653e-07 0.00228468)
0.0015        (0.000424052 0.000401618 0.00254773) (-2.53566e-07 8.2008e-07 0.00263809)
0.002         (0.000375954 0.000398441 0.00251535) (1.43618e-09 7.5842e-07 0.00266843)
0.0025        (0.000388688 0.000446656 0.00249104) (3.06491e-07 1.11731e-06 0.00273325)
0.003         (0.000277801 0.000475362 0.0023725) (4.35129e-07 1.3175e-06 0.00277238)
0.0035        (0.000212989 0.000442167 0.00230087) (3.8739e-07 1.17383e-06 0.00285418)
0.004         (0.000283897 0.000441754 0.00222727) (5.23916e-07 1.40161e-06 0.00294754)
0.0045        (0.000370174 0.000530921 0.00211642) (6.34832e-07 1.46686e-06 0.00299988)
0.005         (0.000355297 0.000653869 0.00195426) (8.63606e-07 1.38604e-06 0.00305918)
0.0055        (0.000399722 0.000558886 0.00182879) (1.00774e-06 1.29569e-06 0.00312463)
0.006         (0.000452374 0.000379287 0.00163143) (8.58446e-07 1.02635e-06 0.00316446)
0.0065        (0.000512293 0.000208444 0.00155983) (9.04149e-07 1.24942e-06 0.00323711)
0.007         (0.000455555 0.000176647 0.00157853) (8.87278e-07 1.1297e-06 0.00331182)
0.0075        (0.000407555 0.000181813 0.00166282) (8.97829e-07 1.11718e-06 0.00339357)
0.008         (0.000402389 0.000266489 0.00179801) (7.73141e-07 1.54828e-06 0.00347188)
0.0085        (0.000228361 0.00029236 0.00198654) (7.65297e-07 1.59249e-06 0.00356607)
0.009         (0.000127397 0.000255289 0.00220074) (1.10544e-06 1.58639e-06 0.00368454)
0.0095        (0.000145445 0.000298391 0.0024065) (1.08124e-06 1.67949e-06 0.00377991)
0.01          (0.000208029 0.000365041 0.00254714) (1.00364e-06 1.41259e-06 0.00387111)
0.0105        (0.000125912 0.000466881 0.00281668) (1.19783e-06 1.36253e-06 0.00398875)
0.011         (0.000226231 0.000481485 0.00303858) (1.03539e-06 1.48258e-06 0.00409983)
0.0115        (0.000266644 0.000556411 0.00324292) (1.03906e-06 1.34287e-06 0.00420136)
0.012         (0.000215854 0.000756209 0.00358098) (1.07821e-06 1.27335e-06 0.00430481)
0.0125        (0.000352877 0.00111641 0.00323085) (1.20747e-06 1.17028e-06 0.00436335)
0.013         (0.000547482 0.000585012 0.0033901) (9.25736e-07 7.95132e-07 0.00442017)
0.0135        (0.000227671 0.000512956 0.00369567) (1.03014e-06 5.95843e-07 0.00449495)
0.014         (0.000400918 0.00030746 0.00346785) (1.05021e-06 6.41511e-07 0.00460316)
0.0145        (0.000538839 0.000422982 0.00329032) (7.88587e-07 3.80478e-07 0.00470467)
0.015         (0.000403856 0.000532544 0.00340495) (7.3429e-07 8.53453e-09 0.00476575)
0.0155        (0.000518878 0.000491916 0.00341378) (7.97117e-07 -8.33821e-08 0.00485991)
0.016         (0.000475229 0.000618468 0.00344736) (6.10799e-07 -4.4107e-08 0.00497583)
0.0165        (0.000571017 0.000689117 0.00353302) (7.51943e-07 8.76474e-08 0.00510854)
0.017         (0.000632223 0.000694472 0.00354217) (7.3542e-07 -1.71159e-07 0.00518159)
0.0175        (0.000765999 0.000694684 0.00349516) (9.1757e-07 -3.75553e-07 0.00528663)
0.018         (0.000921452 0.000747651 0.00360169) (1.24575e-06 -8.31876e-07 0.00541012)
0.0185        (0.000884097 0.000798507 0.00351938) (1.34325e-06 -4.42834e-07 0.00550253)
0.019         (0.000988216 0.000671762 0.00332932) (1.40472e-06 -3.75572e-07 0.00560008)
0.0195        (0.00100853 0.000693873 0.00336703) (1.18108e-06 -2.52633e-07 0.0056781)
0.02          (0.00108389 0.000733522 0.00338841) (9.49206e-07 -2.51654e-07 0.00577628)
0.0205        (0.0012527 0.000850923 0.00313361) (1.04178e-06 -1.50738e-07 0.00584751)
0.021         (0.00185212 0.000804459 0.00286761) (1.09794e-06 -1.39109e-07 0.00594922)
0.0215        (0.00139048 0.000791281 0.00304248) (9.38063e-07 -6.89873e-08 0.00603458)
0.022         (0.00138344 0.000800447 0.00291189) (8.79707e-07 -1.26012e-08 0.00611849)
0.0225        (0.00150209 0.000867361 0.00261459) (1.06844e-06 1.12476e-07 0.00624227)
0.023         (0.00151297 0.000884354 0.00254666) (9.66785e-07 1.0979e-07 0.00634117)
0.0235        (0.00163313 0.000781655 0.00259691) (3.29248e-07 3.06989e-07 0.00640794)
0.024         (0.00168416 0.00079453 0.00231729) (5.05483e-07 3.08628e-07 0.00647866)
0.0245        (0.00161832 0.000855181 0.00199033) (9.52386e-07 1.26709e-07 0.00655928)
0.025         (0.00169342 0.00085932 0.00194708) (9.80056e-07 2.45719e-07 0.00666319)
0.0255        (0.00195716 0.000897617 0.00184507) (-4.46976e-08 3.06805e-07 0.00675013)
0.026         (0.00196969 0.000968433 0.0015627) (3.49039e-07 3.74044e-07 0.00684189)
0.0265        (0.00177939 0.000802702 0.00163369) (9.91783e-07 2.79336e-07 0.00693034)
0.027         (0.00101903 0.000777312 0.00239746) (6.82078e-07 2.96835e-07 0.00701276)
0.0275        (0.00113556 0.00114154 0.00270817) (4.38526e-07 2.75539e-07 0.00711369)
0.028         (0.0011514 0.00120776 0.00287088) (7.48374e-07 7.54943e-08 0.00722619)
0.0285        (0.00126123 0.00100039 0.00324565) (7.33721e-07 1.48906e-08 0.00732225)
0.029         (0.00105879 0.00104459 0.00369185) (2.92631e-07 -5.06182e-07 0.00739259)
0.0295        (0.00111862 0.00114199 0.00362192) (4.6211e-07 -2.26939e-07 0.00747669)
0.03          (0.00144449 0.00112692 0.00338232) (5.31584e-07 -5.19057e-08 0.00758491)
0.0305        (0.00087895 0.00080115 0.00362507) (5.35896e-07 -2.95063e-07 0.00767039)
0.031         (0.00076965 0.00059522 0.00351199) (4.57587e-07 -4.56025e-07 0.00773043)
0.0315        (0.000806263 0.000645533 0.00306724) (3.9002e-07 -3.04785e-07 0.00782321)
0.032         (0.00115894 0.000509461 0.00303239) (4.07462e-07 -2.27304e-07 0.00793049)
0.0325        (0.000796387 0.000321252 0.00363254) (3.72968e-07 -2.58337e-08 0.00804079)
0.033         (0.000785841 0.000685271 0.00409451) (2.00966e-07 3.63762e-08 0.00813048)
0.0335        (0.000678889 0.000812729 0.00443349) (1.59768e-07 2.01015e-07 0.00822662)
0.034         (0.000749493 0.000952766 0.00468376) (5.48985e-07 1.30672e-07 0.00832779)
0.0345        (0.000736071 0.00061891 0.00521955) (5.29019e-07 2.0606e-07 0.00841535)
0.035         (0.000729864 0.000522437 0.00558569) (-3.02799e-07 6.83708e-07 0.00848941)
0.0355        (0.00059857 0.000584107 0.00557166) (2.14296e-08 1.96372e-07 0.00860394)
0.036         (0.000644665 0.00070983 0.00537081) (8.1873e-07 -7.37906e-08 0.00869368)
0.0365        (0.00039109 0.000479105 0.00597407) (8.9463e-07 -6.79797e-08 0.00876174)
0.037         (0.000629209 0.000543488 0.00619665) (3.21275e-07 -1.50281e-07 0.00883681)
0.0375        (0.000693156 0.000489859 0.00593383) (4.73468e-07 -2.2361e-07 0.0089633)
0.038         (0.000599219 0.000671905 0.00574933) (1.00517e-06 -2.23724e-07 0.00906295)
0.0385        (0.000613686 0.00053979 0.0062783) (1.18071e-06 -2.80429e-07 0.00913072)
0.039         (0.000761118 0.000525799 0.00662407) (9.72934e-07 -3.5898e-07 0.00919515)
0.0395        (0.000751992 0.000911746 0.00610994) (6.68777e-07 -1.09959e-06 0.00931851)
0.04          (0.00172822 0.000954641 0.0055581) (1.16546e-06 -4.24732e-07 0.0094169)
0.0405        (0.000628634 0.000707379 0.00686457) (1.47417e-06 -4.18664e-07 0.00949098)
0.041         (0.00087515 0.000711968 0.00725256) (1.1605e-06 -4.53315e-07 0.00955578)
0.0415        (0.00116454 0.000793064 0.00657197) (9.24212e-08 -7.09973e-08 0.00969848)
0.042         (0.000706052 0.000949794 0.00642054) (1.12992e-06 -3.856e-08 0.00981116)
0.0425        (0.000624896 0.000751821 0.00695733) (1.51852e-06 -1.33823e-07 0.00987389)
0.043         (0.000716347 0.000858697 0.00714645) (1.24897e-06 -8.85273e-08 0.00993918)
0.0435        (0.000889427 0.00115225 0.00668237) (2.22693e-07 1.21432e-08 0.0100497)
0.044         (0.000678232 0.00111672 0.00664065) (1.30725e-06 -2.58902e-07 0.01016)
0.0445        (0.000516687 0.000946384 0.00698847) (1.48096e-06 -2.49153e-07 0.0102204)
0.045         (0.000553266 0.000956385 0.00712115) (1.12613e-06 -2.85463e-07 0.0102962)
0.0455        (0.000784928 0.00105553 0.00691362) (3.23692e-07 -7.13192e-07 0.0104018)
0.046         (0.000441583 0.00121926 0.00660535) (1.53831e-06 -1.71434e-06 0.0105022)
0.0465        (0.000580306 0.000774791 0.00696522) (1.58774e-06 -5.27129e-07 0.0105886)
0.047         (0.00080626 0.000668803 0.00732749) (8.91526e-07 -7.65681e-07 0.0106566)
0.0475        (0.000477033 0.00117172 0.00692124) (8.54971e-07 -3.21814e-07 0.010742)
0.048         (0.000689989 0.00104514 0.0067169) (1.16253e-06 -5.34608e-07 0.01084)
0.0485        (0.000356756 0.00103952 0.00721844) (1.29293e-06 -7.17476e-07 0.0109225)
0.049         (0.000318407 0.000865923 0.00767267) (1.30128e-06 -3.71484e-07 0.0110153)
0.0495        (0.000827558 0.00218608 0.0072566) (-1.39377e-06 3.69361e-07 0.0111431)
0.05          (0.00156676 0.00175131 0.00684545) (3.07809e-07 -1.79071e-07 0.0112418)
0.0505        (0.000177774 0.000943404 0.00778857) (1.18446e-06 -1.93712e-07 0.0112942)
0.051         (0.000416904 0.000920384 0.00777266) (1.06137e-06 1.68585e-08 0.0113497)
0.0515        (0.00110905 0.00102294 0.0072518) (-3.09022e-07 3.79482e-07 0.0115022)
0.052         (0.000593614 0.0016558 0.00705584) (-1.94001e-07 9.48933e-08 0.0116191)
0.0525        (0.000480136 0.00102636 0.00752547) (8.17652e-07 8.15653e-08 0.0116946)
0.053         (0.000325383 0.00108187 0.00766486) (9.13384e-07 3.52262e-08 0.0117299)
0.0535        (0.000664253 0.00118861 0.00737586) (4.65796e-07 -4.42276e-07 0.0118344)
0.054         (0.000318974 0.00199774 0.00715119) (4.89898e-07 -7.44831e-07 0.0119492)
0.0545        (0.000720121 0.00130429 0.0076614) (6.37292e-07 -2.29633e-07 0.0120332)
0.055         (0.000670809 0.00123268 0.00765597) (8.13767e-07 -6.26697e-08 0.0120832)
0.0555        (0.00084698 0.00143373 0.00726675) (8.61629e-07 -2.48478e-07 0.0121651)
0.056         (0.00148098 0.00138476 0.00690561) (8.09029e-08 1.10827e-07 0.0122642)
0.0565        (0.00172045 0.000859172 0.00718922) (-1.63652e-06 7.97856e-07 0.0123568)
0.057         (0.000961935 0.000885055 0.00730531) (7.22211e-07 3.99841e-07 0.0124207)
0.0575        (0.000944206 0.000986163 0.00697032) (1.2364e-06 1.12593e-07 0.0124966)
0.058         (0.00128107 0.00158882 0.00684312) (3.03515e-07 3.90125e-07 0.0125855)
0.0585        (0.00191236 0.0010916 0.00740792) (-1.16237e-06 8.89347e-07 0.0126765)
0.059         (0.00108826 0.00101665 0.00835629) (9.77899e-07 1.22757e-06 0.0127859)
0.0595        (0.000796745 0.00160938 0.00819903) (1.46616e-06 3.34673e-07 0.0128766)
0.06          (0.00176291 0.00219976 0.00812118) (1.12082e-06 2.75692e-07 0.0129555)
0.0605        (0.00188927 0.00164855 0.00907403) (1.13259e-06 1.0221e-07 0.0130345)
0.061         (0.000859566 0.0017331 0.0100498) (1.96759e-06 1.65241e-07 0.0130769)
0.0615        (0.00117928 0.00200791 0.0100951) (1.36092e-06 6.7006e-07 0.0131334)
0.062         (0.00157954 0.00225119 0.0101337) (1.23492e-06 6.78417e-07 0.0132102)
0.0625        (0.0014083 0.00232222 0.0109315) (1.1013e-06 7.66335e-07 0.0132617)
0.063         (0.00105271 0.00125786 0.0118235) (3.85706e-07 1.52203e-06 0.0133127)
0.0635        (0.000791167 0.00158874 0.0114214) (1.17794e-06 8.67532e-07 0.0133688)
0.064         (0.000945301 0.002349 0.0110674) (1.33938e-06 4.71852e-08 0.0134218)
0.0645        (0.00473905 0.00242984 0.0101581) (7.21395e-07 3.69156e-07 0.0135009)
0.065         (0.000844384 0.00255457 0.013093) (6.65883e-07 7.94135e-07 0.0136021)
0.0655        (0.000505637 0.00216629 0.0128998) (1.84983e-06 1.93937e-07 0.0136446)
0.066         (0.00064698 0.00282765 0.0124081) (1.8544e-06 3.98631e-07 0.0137867)
0.0665        (0.000635522 0.00286328 0.01317) (1.60727e-06 6.94257e-07 0.0138861)
0.067         (0.000495408 0.00214966 0.0142322) (8.85716e-07 2.23303e-07 0.0139696)
0.0675        (0.000743347 0.00123252 0.0130238) (8.62705e-07 2.82475e-07 0.0140525)
0.068         (0.000782237 0.0016824 0.0124189) (1.36885e-06 3.25415e-07 0.014179)
0.0685        (0.000840526 0.00250238 0.0146852) (2.23003e-06 8.53221e-07 0.0142538)
0.069         (0.00117654 0.00250745 0.012747) (1.01337e-06 -1.27927e-07 0.0143301)
0.0695        (0.000774804 0.00275668 0.0116535) (-3.88094e-07 -1.12267e-06 0.0144361)
0.07          (0.000492834 0.00296448 0.0131932) (5.14491e-07 3.2008e-08 0.0145287)
0.0705        (3.26291e-05 0.00224433 0.0118319) (1.83616e-06 -2.07295e-07 0.014594)
0.071         (0.000759778 0.00189971 0.0103295) (5.75896e-07 -2.08053e-07 0.0146582)
0.0715        (0.00225548 0.00205912 0.0095411) (9.26637e-07 -2.18981e-06 0.0147639)
0.072         (0.000985167 0.00228718 0.0113073) (-2.09476e-07 -1.75041e-06 0.0148816)
0.0725        (3.77152e-05 0.00292457 0.0121703) (1.66326e-06 -1.3815e-06 0.0149738)
0.073         (0.000881598 0.00292701 0.0108999) (1.04402e-06 -1.38086e-06 0.0151061)
0.0735        (0.000621316 0.0024233 0.0112602) (3.16248e-07 -1.4367e-06 0.0152601)
0.074         (0.000757765 0.00189182 0.0111597) (-3.30668e-07 -1.48015e-06 0.0153371)
0.0745        (0.00150221 0.00188934 0.0105737) (-1.63672e-06 -1.47998e-06 0.0154157)
0.075         (0.000778107 0.00333358 0.0107949) (-8.50042e-07 -2.2134e-06 0.0154965)
0.0755        (-0.000352098 0.00323601 0.0117938) (9.93549e-07 -3.97774e-06 0.0155404)
0.076         (0.00038578 0.00362014 0.0117235) (-1.13951e-07 -1.17751e-05 0.015649)
0.0765        (0.000534709 0.001715 0.0129368) (9.97609e-07 -2.56339e-06 0.0158026)
0.077         (0.000472695 0.00167978 0.0113029) (1.20759e-06 -1.57523e-06 0.0158911)
0.0775        (0.000367416 0.00203463 0.0112819) (1.22598e-06 -1.97332e-06 0.0159104)
0.078         (0.000630934 0.0018821 0.0116366) (1.45704e-06 -2.1469e-06 0.0160165)
0.0785        (0.00513995 0.00110277 0.0110855) (7.59692e-07 -1.10123e-06 0.0161792)
0.079         (0.00411721 0.00329375 0.0127547) (-2.36923e-06 -1.72071e-06 0.0162643)
0.0795        (0.000356054 0.00326631 0.014143) (-9.05956e-08 -2.22452e-06 0.0162613)
0.08          (-0.000441769 0.00203926 0.0147757) (2.26863e-07 -1.96568e-06 0.0163747)
0.0805        (0.00147957 0.00167368 0.0150466) (-6.80911e-07 -5.34343e-07 0.0165578)
0.081         (-0.00138618 0.00313783 0.0168243) (-9.61359e-07 -6.49116e-07 0.0166843)
0.0815        (-0.000521129 0.00338214 0.0150547) (5.86177e-07 -1.74017e-06 0.0167064)
0.082         (-0.000567637 0.0027942 0.0155921) (7.43391e-07 -3.64492e-06 0.0167589)
0.0825        (-0.000449109 0.0020665 0.0163535) (1.12623e-06 -3.60261e-06 0.0168729)
0.083         (-0.000696232 0.00452839 0.0164638) (1.11303e-06 -1.65609e-06 0.0169844)
0.0835        (-0.000189909 0.0022615 0.0165957) (6.27518e-07 -2.13895e-06 0.0170399)
0.084         (-0.00127416 0.00158892 0.018121) (8.12855e-07 -2.02014e-06 0.0170539)
0.0845        (-0.00139415 0.00215356 0.0196114) (-1.12116e-07 -3.83423e-06 0.0171953)
0.085         (0.00347716 0.00330921 0.0163752) (5.25427e-07 -1.29379e-06 0.0173816)
0.0855        (-0.000574514 0.00368541 0.0173679) (4.72022e-07 -1.23178e-06 0.0175221)
0.086         (-0.00144403 0.0019066 0.0169315) (6.40481e-07 -2.14168e-06 0.0175678)
0.0865        (-0.00254837 0.00260289 0.0161113) (2.34295e-06 -3.58226e-06 0.0176555)
0.087         (-0.00449745 0.00159629 0.0164499) (2.76238e-06 -3.70419e-07 0.017801)
0.0875        (0.00546454 0.00185586 0.0124999) (1.59621e-06 -1.48949e-06 0.0179201)
0.088         (3.90164e-05 0.00276566 0.0166192) (-2.28553e-06 -1.83294e-06 0.0179687)
0.0885        (-0.00223981 0.00193832 0.015636) (1.98094e-06 -3.14081e-06 0.0179649)
0.089         (-0.00309701 0.0022909 0.0167766) (4.12574e-06 -2.7821e-06 0.0182878)
0.0895        (-0.000424858 0.00324516 0.0153555) (4.26976e-06 -1.63448e-06 0.0184677)
0.09          (-0.00298171 0.00456033 0.0163758) (4.08199e-06 -4.9926e-07 0.0185191)
0.0905        (-0.00224265 0.0015663 0.0170482) (2.84217e-06 -2.55002e-06 0.0185161)
0.091         (-0.00191906 0.00202572 0.0161317) (2.70088e-06 -3.17678e-06 0.0185019)
0.0915        (-0.00108799 0.00283666 0.0153708) (2.13081e-06 -2.76486e-06 0.0186592)
0.092         (0.00161032 0.00411576 0.0146733) (6.15126e-07 -1.21818e-06 0.0188066)
0.0925        (0.000303952 0.00937639 0.0189006) (-1.99744e-06 -7.67294e-07 0.01888)
0.093         (-0.00391425 0.00219019 0.0178671) (1.48645e-06 -2.09103e-06 0.0188943)
0.0935        (-0.00382679 0.000673702 0.0141615) (2.83158e-06 -2.12887e-06 0.0188861)
0.094         (-0.00069956 0.000435429 0.0102683) (-1.9731e-07 -1.1695e-06 0.0191212)
0.0945        (-0.00195908 0.00142471 0.0129879) (2.00488e-06 -1.24359e-06 0.0193263)
0.095         (-0.00484284 0.00253976 0.0145236) (4.08083e-06 -9.42986e-07 0.0193461)
0.0955        (-0.00341788 0.00185526 0.0135128) (4.47657e-06 -1.39708e-06 0.0193628)
0.096         (-0.000964849 0.00105855 0.0115807) (1.31911e-06 -2.05284e-06 0.0194507)
0.0965        (0.00122543 0.00175429 0.0120865) (1.35516e-08 -1.91984e-06 0.0195832)
0.097         (0.000340343 0.00164416 0.0146567) (7.5572e-07 -2.09518e-06 0.0197144)
0.0975        (-0.00566873 1.22734e-05 0.0145165) (2.53174e-06 -6.38774e-06 0.0197613)
0.098         (-0.00260282 0.00119939 0.0110827) (3.43461e-06 -1.02621e-05 0.0198494)
0.0985        (-0.00081582 0.00184748 0.0092942) (2.09504e-06 -8.50543e-06 0.0199303)
0.099         (-0.00111537 0.000823371 0.0104037) (1.1625e-06 -4.61716e-06 0.0201041)
0.0995        (-6.38468e-05 0.000543846 0.0121626) (1.04554e-06 -4.20345e-06 0.0203098)
0.1           (-3.62807e-05 0.000547392 0.0134048) (2.9382e-07 -2.36498e-06 0.0202993)
