FoamFile
{version 2.0; format ascii;class vectorField; location 0;object  v;}
2499
(
( -9.60933e-05 1.17236e-05 0.000388048 )  
( -3.68758e-05 6.4153e-06 0.000331355 )  
( -9.12869e-05 1.52529e-05 0.000125426 )  
( 5.78403e-05 -8.52125e-06 1.60889e-05 )  
( -5.64021e-05 2.69529e-05 0.000382505 )  
( -0.000146473 -0.000108641 0.00024806 )  
( 9.08693e-06 -3.53734e-05 2.29208e-05 )  
( 3.1783e-05 -8.62154e-06 0.000104907 )  
( 5.20254e-05 -6.16629e-06 0.000308391 )  
( -6.61975e-05 6.11995e-05 0.000154033 )  
( 0.000151312 -6.59473e-06 6.2819e-05 )  
( 5.38387e-05 -0.000196303 0.00037814 )  
( 2.30469e-05 0.000104717 0.000163112 )  
( 9.06639e-05 -7.82016e-05 3.09939e-05 )  
( -1.42839e-05 -2.20507e-06 0.000233633 )  
( -0.000144184 2.3884e-05 0.000295926 )  
( -3.00359e-05 -5.28028e-05 -6.22504e-06 )  
( 1.36916e-05 -2.88353e-05 0.000244034 )  
( -1.90831e-05 -3.57483e-05 0.000400833 )  
( 4.95647e-05 2.51075e-06 7.54564e-05 )  
( -0.000105107 5.61708e-05 -0.00010099 )  
( -1.34218e-06 -1.5379e-05 -4.63952e-06 )  
( 6.23364e-05 9.66506e-05 0.000156684 )  
( 9.58645e-05 -5.48405e-05 0.000285376 )  
( -7.96859e-07 0.000193328 0.000355484 )  
( 2.17965e-05 1.24665e-05 7.20408e-05 )  
( 1.07196e-05 -1.00567e-05 0.000126823 )  
( -4.87341e-05 -2.06376e-06 0.000528461 )  
( 9.65705e-05 0.000187028 0.000479907 )  
( -7.17342e-06 -5.93432e-05 2.16136e-05 )  
( 7.3452e-05 0.000125599 0.000180902 )  
( -3.37267e-05 6.02983e-06 0.000135623 )  
( -1.23666e-05 9.00963e-07 0.000178776 )  
( -8.76416e-05 1.43175e-06 0.00025567 )  
( -0.000152994 5.43019e-05 0.000163115 )  
( -2.58227e-05 -0.000122957 0.000210941 )  
( -4.05308e-06 9.51659e-05 2.05297e-05 )  
( -9.20524e-05 2.61525e-05 0.000170686 )  
( 1.07252e-05 1.97631e-05 8.71107e-06 )  
( -3.54416e-05 -2.03578e-05 0.000286964 )  
( 2.37532e-05 1.17321e-06 0.000409775 )  
( 1.14233e-05 -2.88617e-05 0.00028824 )  
( -9.13144e-05 6.59696e-05 0.000372988 )  
( -0.000118967 0.000301827 0.000135568 )  
( -8.10521e-05 -3.44338e-05 0.000110907 )  
( -8.7169e-06 4.40063e-05 -1.2919e-05 )  
( -4.80272e-05 -2.76712e-05 2.00346e-05 )  
( -7.4789e-05 -7.36555e-05 0.000248755 )  
( 9.47213e-05 4.96398e-06 0.000223511 )  
( -5.3663e-05 -3.40254e-05 0.000328971 )  
( -4.54815e-05 0.000108384 0.00015709 )  
( 1.059e-06 0.000196144 0.000301076 )  
( 0.0001051 -4.21369e-05 0.000177177 )  
( -4.28725e-05 7.12626e-05 0.000269803 )  
( 0.0012918 0.000684644 -2.30308e-07 )  
( 5.79354e-05 3.00608e-05 2.33062e-06 )  
( -2.46987e-05 -2.47853e-05 4.82077e-06 )  
( -7.32278e-06 1.40311e-05 0.000164493 )  
( -0.00010294 0.000116358 0.000172608 )  
( -7.41847e-05 -0.000226356 0.000148406 )  
( -0.000118482 6.27831e-05 0.000345131 )  
( -0.000202034 -6.94666e-05 0.000162692 )  
( 3.88195e-05 3.31714e-05 0.000169833 )  
( 0.000153939 0.000105725 0.000200841 )  
( -0.000170081 -0.000245019 -2.5138e-05 )  
( 5.71731e-05 7.4155e-05 9.19126e-05 )  
( -6.9702e-05 8.7892e-05 0.000183402 )  
( -6.38457e-05 2.58275e-05 0.000221877 )  
( 3.80149e-05 0.000120234 0.000199399 )  
( 0.000189295 -3.0896e-05 -8.35237e-05 )  
( 7.5237e-05 -5.63156e-05 -2.97938e-05 )  
( -1.12889e-05 1.79758e-05 1.46841e-05 )  
( -0.000148082 0.000110993 0.000111047 )  
( 2.03879e-05 -6.99257e-05 0.000176886 )  
( -2.56431e-05 6.88773e-05 3.29822e-05 )  
( 0.000267906 1.7709e-05 -2.33425e-05 )  
( -5.16662e-06 -4.91529e-05 0.000136654 )  
( -3.88889e-05 8.38734e-08 6.87277e-05 )  
( 0.00019453 3.49186e-06 0.000353565 )  
( 5.05672e-05 7.71246e-05 0.000107747 )  
( -4.33387e-05 1.42038e-05 0.000374387 )  
( -3.66089e-05 1.33478e-05 3.4008e-05 )  
( -1.73019e-05 -2.20826e-05 2.73829e-05 )  
( 0.000138631 4.35506e-05 5.17452e-05 )  
( -0.000211412 -1.94917e-05 0.00027026 )  
( 0.000181133 0.000553518 -2.03724e-07 )  
( 3.59823e-05 9.6384e-05 0.000283238 )  
( -0.00011489 4.93345e-05 0.000128857 )  
( -8.32263e-06 -8.94225e-05 0.000261583 )  
( -0.000143073 0.00154452 -2.19613e-07 )  
( 0.000111003 -0.000184805 0.000288143 )  
( -1.96105e-05 0.000105303 0.000260115 )  
( 4.68919e-05 4.10621e-05 0.000123501 )  
( -1.89325e-05 -5.89446e-05 0.000187509 )  
( 7.17766e-05 6.5498e-05 2.01245e-05 )  
( 0.000137968 0.000105813 0.000427941 )  
( 0.000266493 0.000211145 3.29861e-05 )  
( -5.00611e-05 -6.54918e-05 9.20872e-05 )  
( 8.23282e-05 -8.91624e-05 -2.24703e-05 )  
( 3.52426e-05 0.000138619 0.000389457 )  
( -0.000101337 -9.82488e-05 7.32349e-07 )  
( -0.000105649 -0.000141032 0.000384758 )  
( 2.33482e-05 0.000140262 8.34176e-05 )  
( 0.000153627 -3.84293e-05 9.18821e-05 )  
( 6.64574e-05 0.00014317 0.000517385 )  
( 7.09105e-05 0.00012889 5.6381e-05 )  
( -5.41667e-05 1.61876e-05 0.000195997 )  
( -9.13903e-05 -1.64338e-05 8.79168e-05 )  
( -0.00016958 8.623e-05 7.84725e-05 )  
( 2.33525e-06 -1.3676e-05 -5.05204e-07 )  
( 4.93598e-05 -1.47114e-05 3.82395e-05 )  
( 0.000192228 -0.000160592 0.00014924 )  
( 6.22744e-05 0.00016972 0.000192306 )  
( 7.04553e-06 4.00382e-05 2.89017e-05 )  
( 3.13933e-05 -5.34738e-05 0.000133276 )  
( -0.000120292 4.22011e-05 8.42883e-05 )  
( -0.000118523 6.99139e-05 0.000208261 )  
( -3.10701e-05 -4.12871e-08 8.22821e-05 )  
( -2.37609e-05 -5.65522e-05 9.12687e-06 )  
( -3.47432e-05 0.000169996 0.00029615 )  
( -5.80415e-05 0.000286612 0.000315263 )  
( -8.53016e-06 -3.33478e-05 0.000172172 )  
( 3.1957e-05 -4.9909e-05 2.19259e-05 )  
( -2.29816e-05 -3.11392e-05 0.000132912 )  
( 1.59452e-05 0.000109201 0.000130737 )  
( 0.000219051 0.000171694 0.000304234 )  
( -6.43477e-05 -4.30754e-05 0.000153219 )  
( -0.000227903 0.00014926 -7.87616e-05 )  
( 7.21485e-05 0.000226072 3.57487e-05 )  
( -0.000106017 9.1839e-06 4.66726e-05 )  
( -3.67871e-05 9.55536e-05 0.00025245 )  
( 2.65141e-05 0.000116915 0.000291101 )  
( -2.5304e-05 0.000202437 -3.18558e-05 )  
( -8.55316e-06 0.000173644 0.000160443 )  
( -0.000568793 5.6103e-05 0.000767711 )  
( -1.42458e-05 3.8816e-05 0.000278854 )  
( 4.75151e-06 0.000109467 0.000183215 )  
( -0.000113731 0.000108595 0.000244189 )  
( -1.09938e-05 -7.38855e-05 0.000218344 )  
( 1.52418e-05 6.14662e-05 8.77415e-05 )  
( 3.18989e-06 0.000104875 6.25282e-05 )  
( 0.000155114 -0.000108083 1.15825e-05 )  
( -1.97736e-05 -5.29206e-05 9.24314e-05 )  
( -6.24135e-05 -7.19464e-05 0.000260579 )  
( -0.000133807 -2.63809e-07 5.93372e-05 )  
( 2.35744e-05 2.16339e-05 8.62004e-05 )  
( -5.50719e-05 0.000159872 -2.39678e-05 )  
( 5.75307e-05 7.96534e-05 0.000266237 )  
( -7.50219e-05 0.000160996 0.000194119 )  
( -5.73108e-05 -1.05398e-05 9.60012e-05 )  
( -0.00010859 9.4881e-05 0.000175542 )  
( 0.000145968 -2.62516e-05 0.000136305 )  
( -1.57654e-05 0.000293817 -7.09875e-05 )  
( -8.07696e-05 -4.78908e-05 -3.88808e-05 )  
( 0.000133932 6.20648e-05 0.000362378 )  
( -6.63811e-05 -2.88039e-05 0.000106245 )  
( -1.18042e-05 -9.53094e-05 1.85638e-05 )  
( -4.44057e-05 -8.41564e-05 0.000486648 )  
( -2.26092e-05 3.97513e-05 0.000121161 )  
( -2.60143e-05 6.77656e-05 0.000140751 )  
( 0.000103667 1.49739e-06 0.000350542 )  
( 1.50708e-05 0.000122523 0.000205176 )  
( 1.55319e-05 2.05564e-06 4.60561e-05 )  
( -4.65445e-05 -6.71629e-05 6.75867e-05 )  
( -0.000161693 2.42059e-05 0.000344079 )  
( -6.97093e-05 -9.60617e-05 -9.98774e-06 )  
( 0.000103713 1.67206e-05 0.00014808 )  
( 2.08598e-05 -6.67365e-05 -2.638e-05 )  
( 8.53913e-06 -4.97183e-05 0.000475293 )  
( 0.000118243 5.7361e-05 0.0001956 )  
( -2.30064e-05 1.5016e-05 1.65652e-05 )  
( -5.2304e-05 -3.57782e-05 0.000487355 )  
( -6.30466e-06 -0.000121924 0.000157869 )  
( -3.58409e-06 -1.1907e-05 2.71942e-05 )  
( -1.12738e-06 -1.87271e-05 0.000169302 )  
( -1.11389e-06 3.60862e-05 8.72747e-05 )  
( -1.68608e-05 -2.28887e-05 0.000239875 )  
( 5.66473e-07 4.1932e-06 0.000119499 )  
( -3.37737e-05 -0.000131124 -2.24865e-05 )  
( -1.07349e-05 0.000106757 4.50196e-05 )  
( -5.49267e-05 -8.36317e-05 0.000504489 )  
( -3.81154e-05 -1.21055e-05 1.63777e-05 )  
( -5.87788e-05 7.49313e-05 0.000346788 )  
( -2.497e-05 4.95984e-05 0.000145906 )  
( 7.55155e-05 3.20721e-05 0.000199835 )  
( 6.25669e-05 -5.26596e-05 0.000450441 )  
( -0.000145385 -2.94045e-06 8.39987e-05 )  
( 3.18365e-05 -7.61217e-05 0.000176512 )  
( 7.2795e-05 -1.48421e-05 0.000421867 )  
( 0.000128136 0.000124076 0.000353033 )  
( 3.34692e-05 -0.000195236 0.000353083 )  
( 3.91586e-05 2.07298e-05 2.68287e-05 )  
( -3.88408e-05 -4.73677e-05 -1.79202e-05 )  
( -8.77926e-06 -6.7072e-05 -9.75816e-05 )  
( 3.67356e-05 -9.42173e-05 -4.85834e-06 )  
( 0.00152966 -7.98776e-06 -1.29596e-07 )  
( -3.46848e-05 1.96992e-05 6.31476e-05 )  
( -2.95982e-06 8.51852e-05 8.84825e-05 )  
( -1.28983e-05 1.50237e-05 0.00043278 )  
( -0.000112335 2.09579e-05 0.000302224 )  
( 6.67884e-05 5.18674e-05 0.000311345 )  
( -0.000160593 0.000182401 9.09778e-05 )  
( 2.71315e-05 6.12353e-05 0.000198142 )  
( -0.000107175 0.000104203 0.000102344 )  
( -1.19531e-05 0.000197736 0.000216134 )  
( -2.12847e-05 -1.61921e-05 6.19593e-05 )  
( 9.94705e-06 0.000398002 0.000170195 )  
( -9.16959e-05 -0.00030747 -3.35394e-05 )  
( -0.000128791 3.4858e-05 6.62154e-05 )  
( -6.82852e-05 -3.10364e-05 0.000155773 )  
( 5.54136e-05 4.5902e-05 2.33853e-06 )  
( -3.05589e-05 4.44238e-05 0.000241478 )  
( -0.000111599 -9.78926e-05 0.000232783 )  
( 2.55074e-05 3.57127e-05 0.000195627 )  
( -0.000141438 1.97238e-05 -6.39921e-05 )  
( 8.409e-05 -3.68619e-05 0.000407071 )  
( -7.21077e-05 1.33878e-05 6.45954e-05 )  
( -4.5798e-05 4.02353e-05 5.19182e-05 )  
( -3.80195e-05 0.000103777 0.000161804 )  
( 6.33977e-05 6.59839e-05 9.83661e-05 )  
( 7.12486e-06 9.28924e-06 0.000166509 )  
( 0.000182552 5.36773e-05 0.000141006 )  
( 3.20694e-05 1.81028e-05 0.000107245 )  
( 3.23339e-05 -5.70496e-05 0.000345557 )  
( 0.000152593 -0.000207067 0.000435829 )  
( 0.000154513 -0.000133166 -1.28219e-05 )  
( -0.000122673 -7.5677e-06 3.91312e-05 )  
( 0.000103097 -7.33267e-05 0.000242936 )  
( -2.84336e-05 -0.000137412 0.000263542 )  
( 0.00011486 2.27163e-05 6.8599e-05 )  
( -3.33931e-05 -3.68589e-05 2.44221e-05 )  
( 3.10419e-05 -6.74303e-05 0.000146056 )  
( -9.81776e-06 1.88277e-05 9.69132e-06 )  
( 0.000202903 -5.46801e-05 -6.19569e-05 )  
( 0.000163902 3.27184e-05 -0.000124262 )  
( 0.000132393 7.39769e-06 0.000161366 )  
( 0.000380735 -0.000118278 0.000201002 )  
( -0.000127496 -8.36842e-05 0.000152497 )  
( 9.49122e-05 7.44922e-05 -1.01076e-05 )  
( -3.21203e-05 0.000126109 0.000129207 )  
( -0.000326543 -7.33854e-05 3.13051e-05 )  
( -0.000215005 8.8414e-05 0.000112084 )  
( -3.65452e-05 -5.73139e-05 0.000264487 )  
( -6.42303e-05 -8.09325e-05 1.08395e-05 )  
( -0.000150489 -6.61404e-05 0.000311184 )  
( -0.000123168 -3.40296e-05 0.000200556 )  
( -0.000138162 6.4213e-05 5.35674e-05 )  
( -1.37712e-06 -6.04597e-05 0.000202303 )  
( 6.79801e-05 -9.5833e-05 0.000338631 )  
( 0.000291077 -0.000165452 -0.000119218 )  
( 7.11832e-05 1.31547e-05 0.000168924 )  
( -9.57628e-05 5.24691e-05 -2.02216e-05 )  
( -5.39853e-05 -4.34577e-05 0.000161472 )  
( -5.89024e-05 6.77748e-05 0.000265375 )  
( -8.46743e-06 5.16403e-05 2.09182e-05 )  
( -0.000116569 -4.64972e-05 -7.50818e-06 )  
( 0.000169803 0.000252151 0.000161316 )  
( -0.00010559 -0.000170344 0.000663758 )  
( 8.27865e-05 1.08405e-05 0.000199422 )  
( -6.72662e-05 6.99441e-06 3.13401e-05 )  
( 7.62989e-05 -0.000158311 -1.73009e-06 )  
( -5.77455e-05 5.33861e-05 0.000143087 )  
( -7.24582e-05 8.76361e-05 -1.1814e-05 )  
( 9.25901e-05 0.000130985 4.32809e-05 )  
( -9.52334e-05 7.23807e-05 6.16449e-05 )  
( 2.10949e-05 5.41874e-05 0.00014033 )  
( 0.000123601 -3.67821e-05 0.000155175 )  
( 0.000126127 7.21648e-05 3.83697e-05 )  
( -0.000125045 7.70442e-06 0.000209418 )  
( 3.60321e-05 -9.24951e-05 0.00018203 )  
( -3.80522e-05 4.0683e-05 0.000266005 )  
( 0.000183249 2.4726e-05 0.000358881 )  
( -1.31806e-05 5.63383e-05 -5.41584e-06 )  
( 8.31205e-05 -2.77481e-05 0.000284443 )  
( -7.61092e-05 -3.39647e-05 5.82101e-06 )  
( 0.000113565 -2.3853e-05 0.000319325 )  
( 0.000159136 0.000210838 0.000386615 )  
( 0.000106769 1.60632e-05 0.000247116 )  
( -1.12718e-05 -1.47431e-05 2.41676e-05 )  
( -9.47849e-05 -2.48451e-05 0.000226538 )  
( -7.19152e-05 0.000134335 0.000344243 )  
( -0.000135036 -0.000171376 0.000535496 )  
( 4.99445e-05 4.17969e-05 0.000352368 )  
( -2.67059e-05 2.95696e-05 0.000440794 )  
( 3.50226e-05 6.00619e-05 0.000177635 )  
( 1.49125e-06 3.68087e-05 1.87724e-05 )  
( 5.69365e-05 0.000100111 0.000147919 )  
( 1.59192e-05 2.5668e-05 0.000146416 )  
( -0.000173928 9.75213e-05 8.9364e-05 )  
( -1.7534e-05 0.000174803 0.000179105 )  
( 1.02724e-05 1.58668e-05 5.7178e-06 )  
( 7.68858e-05 8.07637e-05 0.00023045 )  
( -2.94919e-05 5.96359e-05 0.000406806 )  
( 0.000139045 0.000107221 0.000168835 )  
( -8.21636e-05 2.41629e-05 -3.03599e-07 )  
( -0.00013124 0.000122648 0.000225189 )  
( 0.000131601 7.35518e-05 0.000228387 )  
( 0.00012547 0.00013618 1.61789e-05 )  
( -6.9364e-05 9.24059e-05 -1.19668e-05 )  
( -1.90702e-05 -7.91554e-05 0.000450704 )  
( -2.89835e-05 5.76402e-05 0.000221331 )  
( -0.000115672 3.44145e-05 3.68427e-05 )  
( 0.000117066 -2.82699e-05 0.000159789 )  
( 7.88138e-05 6.52834e-05 9.87205e-05 )  
( -2.97341e-05 -3.07387e-05 0.000161833 )  
( -2.54484e-05 6.277e-06 0.000255489 )  
( 4.98025e-05 -5.41689e-05 0.000166034 )  
( 4.20415e-05 2.24962e-05 0.00014957 )  
( -0.000100314 -5.5439e-05 0.000197571 )  
( -9.48563e-06 -0.000116249 0.000411579 )  
( 4.75298e-06 0.000551145 0.000394889 )  
( -7.46898e-05 3.11746e-05 0.000295548 )  
( -6.29614e-05 -8.35604e-05 -1.35026e-05 )  
( 6.4785e-05 1.59816e-05 0.000119145 )  
( -1.36143e-05 -4.20007e-05 0.000433008 )  
( 3.09453e-05 6.14203e-05 0.0001594 )  
( -3.85235e-05 3.48703e-05 0.000210375 )  
( -3.2161e-05 7.92391e-05 0.000184908 )  
( -2.67022e-05 9.53876e-06 0.000164593 )  
( 4.86492e-05 -0.00011417 0.000171714 )  
( 5.77142e-05 -5.06823e-05 8.4388e-05 )  
( -4.76738e-05 2.2444e-06 0.000102556 )  
( -6.83384e-05 -9.39893e-05 3.84494e-05 )  
( -1.17341e-05 6.614e-05 0.000181208 )  
( -5.53706e-05 -2.9253e-05 0.000235858 )  
( 6.06341e-05 0.000252457 0.000301306 )  
( 0.000142366 0.000143411 0.000176993 )  
( -7.3701e-05 0.000201117 0.000178145 )  
( 4.07406e-05 1.54218e-05 0.000374239 )  
( -3.62632e-05 -0.00010774 2.42579e-05 )  
( -3.51656e-05 -6.69432e-05 6.38475e-05 )  
( 0.000109075 2.83395e-05 -8.90342e-07 )  
( -2.29194e-05 1.82537e-05 6.35803e-05 )  
( -1.81814e-05 9.32103e-05 0.000278511 )  
( 2.78597e-05 1.13782e-05 0.000222654 )  
( 0.000268035 0.000143704 0.000159295 )  
( 3.7285e-05 2.69021e-05 5.84198e-06 )  
( -6.46224e-06 1.00674e-05 0.000131047 )  
( 3.26691e-05 6.98314e-05 0.000269693 )  
( 1.14235e-05 -3.12426e-05 8.76871e-05 )  
( -0.000101141 -5.39129e-05 0.000218137 )  
( -5.3116e-05 0.000248384 0.000499903 )  
( -0.000107748 -3.7244e-05 0.000132349 )  
( -0.000191531 3.22162e-05 0.000246321 )  
( 4.32054e-06 -4.30111e-05 2.60877e-05 )  
( 0.00178521 0.00170579 -4.92131e-07 )  
( 0.000120014 0.000311992 0.000100703 )  
( -0.000132825 7.1358e-05 7.21791e-05 )  
( -0.000144682 0.000331979 -1.52451e-05 )  
( -0.000159014 4.59554e-05 0.00030637 )  
( -3.2497e-05 -6.49756e-05 0.000311012 )  
( -3.06273e-05 0.000133052 0.00028488 )  
( 0.000135221 1.15442e-05 0.000268527 )  
( -7.70863e-05 3.82543e-05 8.60644e-05 )  
( 0.000178319 0.000139364 0.000184046 )  
( 0.000105973 2.1123e-05 7.84468e-06 )  
( -0.000216364 1.22471e-05 0.000280071 )  
( 1.52538e-05 6.57864e-05 0.000183813 )  
( -8.87304e-05 -9.6328e-05 0.000247355 )  
( 0.000132402 7.56705e-05 9.33822e-05 )  
( -8.75742e-05 -9.74998e-06 0.00023437 )  
( 6.57641e-06 -0.00018985 3.45e-05 )  
( 9.17059e-06 2.6037e-05 7.88225e-05 )  
( 1.55592e-05 9.96986e-05 0.000227022 )  
( 6.91024e-05 -0.000104426 1.00065e-05 )  
( -0.000112916 0.000279055 0.00031144 )  
( 1.68751e-05 -5.52759e-05 0.000100901 )  
( 7.2495e-06 -6.38942e-05 0.000252069 )  
( -3.88968e-05 -6.27631e-05 2.25626e-05 )  
( -0.000125053 9.78809e-05 0.000318714 )  
( -5.40073e-05 5.49426e-05 0.000132316 )  
( 5.07651e-05 0.000164444 0.000442211 )  
( 6.95301e-05 0.000157727 -0.00011722 )  
( -5.26747e-05 -1.28879e-07 1.94088e-05 )  
( 7.98985e-05 5.99167e-05 0.000355175 )  
( 5.00734e-05 -0.000105201 1.15137e-05 )  
( 0.000327384 0.00057117 -3.34971e-05 )  
( -5.90852e-05 1.31059e-05 6.29746e-05 )  
( -0.000126765 7.99568e-05 0.000102094 )  
( -2.81005e-05 0.000101517 0.00024965 )  
( 0.000544646 -0.000115699 -5.144e-05 )  
( -0.000171627 -4.99539e-06 0.000328044 )  
( -3.66971e-05 -1.19879e-05 2.73935e-05 )  
( -2.78492e-05 0.000171869 0.000266153 )  
( -5.00782e-05 -8.44614e-06 0.000118653 )  
( 3.01051e-05 -8.28683e-05 0.000321181 )  
( -8.67838e-05 -2.65368e-05 6.0352e-06 )  
( 4.54183e-05 0.000106787 -2.38552e-05 )  
( 7.74863e-05 -4.08404e-05 0.000308265 )  
( -9.00233e-05 0.000185434 0.000231484 )  
( -6.2316e-05 7.63242e-06 0.000376516 )  
( 1.02156e-05 2.04445e-05 0.000244371 )  
( 0.000174167 -1.05635e-05 6.52833e-05 )  
( -9.04938e-05 -2.23895e-05 0.000200812 )  
( -9.17692e-05 5.8816e-06 0.000183514 )  
( -7.27136e-05 -0.000126496 0.000351188 )  
( 9.41248e-05 0.000131952 0.000350268 )  
( -6.23547e-05 0.000214603 0.000264624 )  
( 4.99571e-05 7.41041e-05 5.9746e-05 )  
( 0.00148286 0.000242538 -1.95342e-07 )  
( 1.86893e-05 -4.43819e-05 4.90775e-05 )  
( -3.69331e-05 0.000201678 0.000151677 )  
( -0.000132544 -0.000109867 0.000279137 )  
( 1.78654e-05 4.80603e-05 0.000257683 )  
( 2.85703e-05 6.9598e-05 6.85527e-05 )  
( -0.000112971 0.000254497 7.00739e-05 )  
( -6.14202e-05 6.06586e-05 4.81906e-05 )  
( 5.71616e-06 -4.65448e-05 7.39707e-05 )  
( -3.43961e-05 -3.63846e-05 0.000304701 )  
( -7.90747e-05 1.87946e-06 0.000178098 )  
( -5.87966e-06 3.06439e-05 0.000133503 )  
( -2.22849e-05 1.08827e-05 0.000454092 )  
( -5.99753e-05 5.22216e-05 7.44671e-05 )  
( -5.25051e-05 0.000117074 0.000198939 )  
( 0.00034177 0.000732948 2.25463e-07 )  
( -4.15092e-06 -0.000140887 -0.000179944 )  
( 9.89908e-05 0.000167034 0.000332263 )  
( -9.47365e-05 0.000112631 0.000239791 )  
( -3.84483e-05 3.72872e-05 0.000250301 )  
( -9.29406e-05 4.00305e-05 3.03296e-05 )  
( -8.5017e-05 -0.000126615 0.000233771 )  
( -9.03443e-05 -5.70981e-06 6.79558e-05 )  
( 3.03983e-06 -3.33986e-05 0.000114925 )  
( -0.000171813 6.7899e-05 3.56276e-05 )  
( 0.000149677 -5.70823e-05 -9.51327e-06 )  
( -7.49876e-05 9.65252e-06 3.60933e-05 )  
( 0.00010244 0.000121872 0.000248834 )  
( 2.85155e-05 4.52802e-05 4.76692e-05 )  
( -0.000280299 0.000103984 0.00013706 )  
( -1.35214e-06 -9.012e-05 -1.2954e-05 )  
( 0.000234606 -0.000138182 -3.84872e-05 )  
( -6.79219e-05 -6.77201e-05 6.24801e-05 )  
( -4.80616e-05 0.000102003 0.000365326 )  
( -8.18851e-05 -3.12175e-05 8.84803e-06 )  
( -0.000210222 0.000395264 0.000340102 )  
( -5.87906e-05 7.83947e-06 0.000427461 )  
( -6.47011e-06 6.12909e-05 0.000218582 )  
( -0.000127451 -1.63057e-05 4.03197e-05 )  
( -0.000136187 -2.31569e-05 0.000255753 )  
( 0.000137338 -0.00011892 0.000334584 )  
( -2.8165e-05 -0.000116201 0.000385357 )  
( 1.42914e-05 -7.77837e-05 0.000358536 )  
( 2.92523e-05 2.62424e-05 0.000129225 )  
( -1.78079e-05 1.84855e-05 5.02335e-05 )  
( 7.91231e-05 -4.13671e-05 0.000206715 )  
( -8.17616e-06 0.000162847 0.000342615 )  
( -3.0133e-05 -3.76399e-05 0.00011835 )  
( -1.94038e-05 4.9116e-05 0.000231582 )  
( -0.000119607 5.48834e-05 -7.66814e-05 )  
( -0.00022644 -2.62877e-05 0.000200605 )  
( 4.06248e-05 1.78798e-05 0.000117343 )  
( -2.6279e-05 0.000110097 2.79898e-05 )  
( 2.38043e-05 6.31684e-06 0.00026149 )  
( 2.60512e-05 0.000124028 0.000127856 )  
( 0.000165045 0.000319224 -1.84874e-07 )  
( 2.72895e-05 5.07443e-06 6.04817e-05 )  
( -1.13956e-05 3.97587e-05 0.000232618 )  
( -0.00016991 -0.000131906 2.34017e-06 )  
( -0.000143836 1.59666e-05 0.000180844 )  
( 3.15297e-05 0.000172346 0.000206278 )  
( 0.000163342 -0.00012963 0.000240317 )  
( -0.000181466 0.00014566 0.000290776 )  
( 3.73286e-05 4.32923e-05 4.25318e-05 )  
( -0.000354625 0.000232039 -1.79571e-05 )  
( 4.76323e-06 0.000194902 0.000238937 )  
( 9.72861e-06 -5.05663e-05 0.000120055 )  
( -5.40462e-05 -6.98207e-06 0.000257336 )  
( -7.02926e-05 -4.83072e-05 8.74048e-06 )  
( 3.0557e-05 4.77229e-05 0.00031134 )  
( -8.4743e-05 6.05372e-05 0.000150014 )  
( -6.78302e-05 6.30952e-06 3.01039e-05 )  
( 4.51893e-06 -4.21705e-05 0.000186369 )  
( 3.61116e-05 7.27475e-05 8.76129e-05 )  
( -3.11401e-05 -9.24352e-05 0.000270177 )  
( -7.83823e-06 -5.12295e-05 6.71683e-05 )  
( -7.52187e-05 0.000109882 0.000485975 )  
( 3.82919e-05 1.91609e-05 -5.51019e-06 )  
( -0.000130782 7.66069e-05 0.000137167 )  
( -7.37929e-05 -3.6116e-06 0.000156545 )  
( -5.38157e-05 0.000204581 0.00021093 )  
( -7.46943e-05 -7.24275e-05 8.50436e-05 )  
( 4.15994e-05 3.37858e-05 2.63982e-05 )  
( -8.06481e-05 -6.34357e-05 0.000192535 )  
( 6.54136e-05 4.66094e-05 0.000380158 )  
( 3.31368e-06 -7.87051e-06 1.57434e-05 )  
( -5.50606e-05 -4.01978e-05 0.000189541 )  
( -7.40098e-05 4.22971e-05 5.0425e-05 )  
( -0.000134158 0.000163842 0.000137243 )  
( -1.49645e-05 7.33494e-05 3.30547e-05 )  
( -3.92584e-05 0.000101458 0.000230135 )  
( -0.000111512 1.62485e-06 -9.14614e-06 )  
( 6.28015e-06 -5.4919e-05 -2.25556e-06 )  
( -4.4759e-05 -4.0815e-05 0.000405608 )  
( 0.000149813 -5.5568e-05 3.24858e-05 )  
( -0.000103687 -8.04627e-05 0.000363639 )  
( 3.92368e-05 0.000135594 0.000165914 )  
( 0.000186751 6.5185e-05 0.000269607 )  
( 0.000599211 -0.000741743 -1.79099e-07 )  
( -1.9331e-05 -3.36074e-05 0.000337199 )  
( 8.4999e-05 1.17543e-05 3.33065e-05 )  
( 0.000127037 -0.000128322 -6.52866e-05 )  
( -6.05169e-05 2.77838e-06 0.00018385 )  
( 1.8472e-05 9.73238e-05 0.000335728 )  
( -7.33184e-05 0.000298777 0.000373698 )  
( 5.29835e-05 1.22551e-05 7.199e-05 )  
( -6.92103e-05 2.92628e-05 0.000178749 )  
( 4.30026e-05 5.71019e-06 7.38202e-05 )  
( 1.85958e-05 -4.85851e-05 0.000401555 )  
( -1.44066e-05 -1.40897e-05 0.000200082 )  
( -0.000146968 -2.65564e-05 1.13123e-05 )  
( -0.000291541 0.000105403 6.84869e-06 )  
( 1.91358e-05 -1.12681e-06 0.000543981 )  
( -2.34533e-05 8.18483e-05 0.000133613 )  
( -3.11381e-05 0.000126753 0.000279979 )  
( -7.00895e-05 -1.09584e-05 0.000174813 )  
( 9.50479e-05 3.84255e-05 7.30069e-05 )  
( -0.000412603 0.000187258 -1.52634e-07 )  
( 2.49424e-05 0.000119798 9.65875e-05 )  
( 5.58216e-05 5.62655e-05 0.000303656 )  
( 2.49427e-05 8.3235e-05 0.000258102 )  
( -1.56473e-05 5.3461e-05 3.8324e-05 )  
( 3.62206e-05 4.13033e-05 0.000273095 )  
( -0.000120048 -0.000156137 0.000380972 )  
( -8.29251e-05 8.4057e-05 0.000238653 )  
( -1.59359e-05 -8.65811e-05 -0.000131263 )  
( 1.15833e-05 -5.82418e-05 0.000139881 )  
( -1.30337e-05 -6.6501e-05 4.09709e-05 )  
( -4.00618e-05 9.67056e-06 5.36105e-05 )  
( 2.79598e-05 5.92067e-05 0.000113242 )  
( 5.75944e-05 0.000135832 0.000163324 )  
( 3.64202e-05 0.000178958 0.000162836 )  
( 6.49889e-05 0.000112427 0.000403988 )  
( 8.70658e-07 0.000112344 0.000258606 )  
( 0.000111295 2.35785e-05 0.00039443 )  
( -7.425e-05 -5.15588e-05 0.000355338 )  
( 2.5177e-05 1.74031e-05 6.21057e-05 )  
( -2.79127e-05 0.000163231 0.000123997 )  
( 0.000104384 -7.69042e-06 0.000199051 )  
( 0.000195344 2.52408e-05 0.000443083 )  
( 0.000117932 5.95418e-05 0.000365729 )  
( -5.93103e-05 0.000253046 0.000319793 )  
( 8.87784e-05 -6.64169e-05 0.000263338 )  
( -3.42583e-05 -1.62911e-06 1.18246e-05 )  
( 6.3015e-05 -0.000155282 0.000199627 )  
( -0.000215154 0.000115317 4.18099e-05 )  
( -6.12751e-05 0.000106691 4.38549e-05 )  
( -0.000143058 -4.13702e-05 0.00018275 )  
( 3.09457e-05 3.59374e-05 3.04748e-05 )  
( 5.09745e-05 -1.86104e-05 0.00021853 )  
( -1.36353e-05 -3.4416e-05 7.49856e-05 )  
( 3.57985e-05 -5.58592e-05 0.000162727 )  
( -7.73706e-05 -7.05025e-05 -3.11562e-05 )  
( 8.29943e-05 4.84602e-05 0.000336705 )  
( 0.000131701 4.07514e-05 -7.34192e-06 )  
( -0.000138292 0.00039356 -0.000262364 )  
( 6.46709e-05 4.2942e-05 0.000113653 )  
( -2.74809e-05 0.000286836 0.000213168 )  
( 1.99873e-05 1.40821e-05 0.000245614 )  
( 5.41434e-06 8.34194e-05 1.83612e-06 )  
( 1.5265e-05 6.87832e-05 0.000136659 )  
( 0.000119511 9.73351e-06 0.000313304 )  
( -2.39814e-05 6.49799e-05 0.000212289 )  
( -4.64157e-05 -7.70747e-05 3.5543e-05 )  
( 5.94261e-07 6.38431e-05 0.000243128 )  
( -0.000142782 -0.00015969 0.000247069 )  
( 4.97568e-05 -0.000185947 2.60628e-05 )  
( 4.28531e-06 3.22645e-05 0.000146648 )  
( -0.000285153 0.000245276 0.000137238 )  
( 0.000125995 0.000104102 0.000311795 )  
( 1.24238e-05 4.73726e-05 0.00013688 )  
( 0.000109982 3.67464e-05 0.000308589 )  
( 5.93352e-05 5.71053e-05 0.000322627 )  
( -1.59659e-06 -1.12237e-06 0.000428281 )  
( -2.41771e-05 6.42924e-06 -3.10561e-05 )  
( -0.000114236 -5.17304e-05 0.000122677 )  
( 2.76812e-05 5.85074e-05 0.000175611 )  
( -2.07541e-06 -7.66932e-06 2.94295e-05 )  
( 2.24002e-06 -0.000240667 0.000764723 )  
( -7.29422e-06 4.13544e-05 4.33551e-05 )  
( 0.000217711 6.27805e-05 4.96534e-05 )  
( -0.000104073 -5.10368e-05 -1.28165e-05 )  
( 5.91981e-05 -0.000138373 0.0002719 )  
( 4.20149e-05 -8.77741e-06 2.18861e-05 )  
( 1.53792e-05 4.81617e-05 0.000355103 )  
( -2.98236e-06 -0.000252131 0.000139709 )  
( -9.60483e-05 5.43249e-05 0.000262943 )  
( 0.000208724 0.000322446 0.000367888 )  
( 7.91967e-06 -6.23987e-05 0.000123872 )  
( -3.59767e-05 3.25685e-05 0.000271416 )  
( -4.7508e-05 9.60572e-05 4.82276e-06 )  
( -1.75219e-05 3.28876e-05 0.000140631 )  
( -6.49327e-05 -5.83155e-05 5.46606e-05 )  
( -7.92392e-06 -6.6783e-05 4.75942e-05 )  
( -2.29723e-05 0.00023819 0.000322423 )  
( -0.00515011 0.000851315 -0.000595403 )  
( 3.2483e-05 -1.52245e-05 4.9242e-05 )  
( -0.000182969 0.000116592 0.000145951 )  
( -5.38033e-05 -8.73258e-06 8.4686e-06 )  
( 0.000126681 -4.25486e-05 8.46604e-05 )  
( 3.61223e-05 2.85115e-05 -7.53003e-05 )  
( -7.24639e-05 -0.00013017 -4.37177e-05 )  
( -5.89509e-05 -0.000110889 0.000340024 )  
( 0.000149497 -6.58681e-05 0.000127426 )  
( 0.000134935 0.000104922 0.000230079 )  
( -1.08193e-05 -7.50306e-05 2.1676e-05 )  
( -9.86752e-05 -7.98439e-05 0.000202321 )  
( 8.93984e-05 -4.80642e-05 1.30577e-05 )  
( 1.66876e-06 -3.36558e-06 7.64964e-05 )  
( 1.41356e-05 -8.54654e-05 0.000130946 )  
( -0.000223867 -2.03596e-06 0.000216663 )  
( -5.07904e-05 0.000135745 2.38748e-05 )  
( -0.000198633 0.000178097 -0.000185305 )  
( -5.92093e-05 -6.30083e-05 6.03368e-05 )  
( 0.000152855 5.18045e-05 8.75506e-05 )  
( 5.64174e-06 5.78875e-05 6.39285e-05 )  
( -8.04418e-06 8.0617e-05 0.00031208 )  
( -0.00016424 3.88805e-05 0.000229834 )  
( 4.69859e-05 8.02454e-05 0.000174936 )  
( -1.77677e-05 -3.27034e-05 2.61167e-05 )  
( -9.06059e-06 9.62032e-05 0.000188174 )  
( -1.06773e-05 -0.000123622 0.000190609 )  
( -2.467e-05 2.78837e-05 0.000190163 )  
( -7.21172e-05 1.36289e-05 0.000150057 )  
( -1.68344e-05 1.54218e-05 0.000265523 )  
( -6.73245e-05 3.47851e-05 0.000193917 )  
( 0.000144467 7.82672e-05 0.00019365 )  
( -7.82352e-05 0.000216065 0.00035665 )  
( -5.01436e-06 3.14161e-05 0.000200178 )  
( -1.01001e-05 9.43737e-05 0.000325725 )  
( -0.00011376 -0.000110761 0.000176407 )  
( -0.000118074 -8.16511e-05 0.000286371 )  
( 3.43382e-05 4.76271e-05 0.00012928 )  
( -4.34905e-06 -0.000105323 0.000179401 )  
( 0.000147349 0.000137115 0.000438001 )  
( 0.000205112 4.04671e-05 0.00040522 )  
( 1.14516e-05 9.70596e-08 0.000218485 )  
( 0.000480705 0.000117039 -0.000249982 )  
( -0.000169214 -2.20205e-05 0.000198909 )  
( -0.000148675 5.37021e-05 0.000152963 )  
( 2.89295e-05 -4.31528e-05 2.75966e-06 )  
( 0.00055436 0.00120396 2.61867e-08 )  
( -2.00822e-05 -4.33946e-05 0.000208633 )  
( -3.96234e-05 2.858e-05 0.000306409 )  
( 0.000512171 9.65165e-05 -0.000234981 )  
( 1.08983e-05 0.000113762 9.22104e-05 )  
( -9.03332e-05 9.69393e-05 4.19458e-05 )  
( -4.69835e-05 0.000170499 0.000331453 )  
( -7.61876e-05 -0.000103004 0.000332797 )  
( -1.5042e-05 -1.50368e-05 0.000490307 )  
( -1.40751e-06 -3.3727e-05 9.38457e-05 )  
( 0.000122971 0.000243315 0.000281295 )  
( -1.6713e-05 -1.09638e-05 0.000321535 )  
( -0.00022265 0.000224668 8.28615e-05 )  
( -3.95908e-05 7.47238e-05 0.000553098 )  
( -2.15293e-05 -3.50845e-05 0.000297367 )  
( -9.47355e-05 -1.91172e-05 -1.32212e-05 )  
( -0.000135157 7.00284e-05 0.000151712 )  
( -4.70623e-05 1.06205e-05 5.94281e-05 )  
( -5.5242e-06 1.51722e-05 0.000109947 )  
( 2.21711e-05 -7.01028e-05 1.84299e-05 )  
( -8.1196e-07 3.33458e-06 6.53897e-05 )  
( -3.60839e-05 2.93414e-05 6.56663e-05 )  
( -1.64295e-05 2.75382e-05 0.000244133 )  
( 3.57574e-05 -6.60602e-05 0.000129401 )  
( 2.48485e-05 -1.3461e-05 4.61567e-06 )  
( -1.7483e-05 -5.67416e-05 4.1935e-05 )  
( -1.78676e-05 8.09082e-05 0.000254132 )  
( -2.76964e-05 0.000130486 0.000197684 )  
( -9.62298e-06 -5.48431e-05 -2.16293e-06 )  
( -0.000110043 -0.000155338 0.000296774 )  
( -0.000121479 2.76956e-05 -3.03524e-05 )  
( 1.75586e-05 -4.37088e-05 1.9667e-05 )  
( 8.30741e-05 3.34316e-05 0.000229221 )  
( -0.000140411 -0.000170814 0.000247948 )  
( -6.53777e-06 0.000195828 0.000186509 )  
( -6.95509e-07 1.06028e-05 5.84919e-06 )  
( -0.000128236 -6.27866e-05 3.12451e-05 )  
( 1.45313e-05 -7.88183e-05 0.000378272 )  
( -9.13593e-05 7.90295e-05 0.000260032 )  
( 0.00120298 -0.000584862 -1.97698e-07 )  
( 8.6703e-05 3.76284e-05 0.000305104 )  
( -0.000127823 5.63167e-05 0.000161488 )  
( 3.59573e-05 5.46279e-05 0.00035879 )  
( -1.89206e-05 8.98389e-05 9.30231e-05 )  
( -4.4141e-05 0.000105142 0.000350489 )  
( -6.05097e-05 -1.66005e-05 7.98033e-05 )  
( 0.000153987 3.05817e-05 0.000313173 )  
( 0.000150924 4.28966e-05 0.000350153 )  
( 1.86295e-05 -0.000177625 0.000242819 )  
( -3.66391e-05 5.925e-05 0.000132272 )  
( -0.000130719 0.000189691 -5.93286e-05 )  
( -6.44297e-05 4.51516e-05 -1.92709e-05 )  
( -2.40306e-05 -1.01258e-05 2.18661e-05 )  
( 1.94799e-06 3.40791e-05 0.000275964 )  
( -2.57762e-05 3.01397e-05 0.000143628 )  
( -1.01643e-05 -6.24484e-06 5.16321e-05 )  
( -0.000331882 -0.000925552 -2.36451e-07 )  
( 9.75583e-05 7.11418e-05 0.000184397 )  
( -2.67913e-05 -4.21955e-05 0.000172398 )  
( -0.000110899 0.000205196 9.88682e-05 )  