FoamFile
{version 2.0; format ascii;class Cloud<passiveParticle>; location 0;object  positions;}
2494
(
( -0.0108908 -0.00401485 0.000499794 ) 0 
( -0.00506478 -0.00114424 0.00100062 ) 0 
( -0.00678141 -0.00689747 0.00294402 ) 0 
( -0.00096804 -0.00188987 0.00280668 ) 0 
( -0.0130647 -0.00247524 0.000499742 ) 0 
( -0.00938938 -0.00444755 0.000499438 ) 0 
( -0.00305055 -0.00787043 0.00118756 ) 0 
( -0.000106951 -0.00572287 0.00456984 ) 0 
( -0.00875832 -0.0018468 0.00535137 ) 0 
( -0.00936533 -0.00378639 0.00150046 ) 0 
( -0.00913582 -0.00626542 0.00271166 ) 0 
( -0.00625431 -0.00313292 0.00270808 ) 0 
( -0.010635 -0.00700998 0.00324914 ) 0 
( -0.00904205 -0.00167232 0.00642239 ) 0 
( -0.00391531 -0.00460617 0.00459136 ) 0 
( -0.00229309 -0.00784203 0.00669949 ) 0 
( -0.00221342 -0.00582673 0.00716232 ) 0 
( -0.00536073 -0.00778262 0.00716901 ) 0 
( -0.00256331 -0.00855726 0.00173892 ) 0 
( -0.00915597 -0.0023967 0.00390585 ) 0 
( -0.00211554 -0.00249713 0.000499769 ) 0 
( -0.00428175 -0.00832111 0.00467667 ) 0 
( -0.00418162 -0.000691654 0.000887524 ) 0 
( -0.00131887 -0.00784041 0.000499679 ) 0 
( -0.000527152 -0.00210725 0.00126365 ) 0 
( -0.00973626 -0.00788106 0.00513375 ) 0 
( -0.00867819 -0.00528072 0.000497799 ) 0 
( -0.00944938 -0.00707017 0.00671535 ) 0 
( -0.0098448 -0.00465289 0.00136502 ) 0 
( -0.0131266 -0.00242159 0.00247823 ) 0 
( -0.00602505 -0.00187847 0.00049979 ) 0 
( -0.00408121 -0.0119011 0.0053235 ) 0 
( -0.00204454 -0.0115079 0.00279467 ) 0 
( -0.00228224 -0.00678599 0.00442011 ) 0 
( -0.000695948 -0.0130247 0.00466271 ) 0 
( -0.00131244 -0.00632706 0.00683579 ) 0 
( -0.0050813 -0.00989088 0.0026858 ) 0 
( -0.00665225 -0.000350886 0.00647083 ) 0 
( -0.00335866 -0.00472566 0.00692249 ) 0 
( -0.00405027 -0.00639613 0.000499556 ) 0 
( -0.010138 -0.00181455 0.00303529 ) 0 
( -0.0116476 -0.00115212 0.000789712 ) 0 
( -0.000784367 -0.0096347 0.00229348 ) 0 
( -0.00780223 -0.00346891 0.00208749 ) 0 
( -0.00106633 -0.00324955 0.00528399 ) 0 
( -0.00138638 -0.00829649 0.00359677 ) 0 
( -0.00836852 -0.0020207 0.00439304 ) 0 
( -0.00125483 -0.00233156 0.00376534 ) 0 
( -0.00684081 -0.00962744 0.00480671 ) 0 
( -0.000786126 -0.00385412 0.00279109 ) 0 
( -0.00728896 -0.00463384 0.000499302 ) 0 
( -0.00463555 -0.00639237 0.00575473 ) 0 
( -0.00132572 -0.0101242 0.00160933 ) 0 
( -0.00667944 -0.00106265 0.000498905 ) 0 
( -0.0112246 -0.00377496 0.0062669 ) 0 
( -0.00401412 -0.00569136 0.00124221 ) 0 
( -0.0120963 -0.00564378 0.00595229 ) 0 
( -0.002085 -0.0107228 0.00186181 ) 0 
( -0.00622688 -0.00934112 0.00126089 ) 0 
( -0.00326222 -0.000748538 0.000498694 ) 0 
( -2.92386e-05 -0.0118527 0.00489059 ) 0 
( -0.00455622 -0.0100579 0.0010908 ) 0 
( -0.00217164 -0.00975948 0.00446811 ) 0 
( -0.00912513 -0.00564349 0.00349595 ) 0 
( -0.0061354 -0.0118568 0.00501599 ) 0 
( -0.00292025 -0.00389928 0.00294144 ) 0 
( -0.00445887 -0.0125851 0.00594476 ) 0 
( -0.00869815 -0.00665425 0.00352086 ) 0 
( -0.000677281 -0.0119475 0.00167426 ) 0 
( -0.00761598 -0.00498956 0.0043102 ) 0 
( -0.00558825 -0.00220141 0.00734473 ) 0 
( -0.00726514 -0.0111999 0.00363335 ) 0 
( -0.0121941 -0.00267706 0.00221591 ) 0 
( -0.00683678 -0.0109762 0.00226899 ) 0 
( -0.00334147 -0.00655393 0.00280656 ) 0 
( -0.00532921 -0.0015551 0.00330215 ) 0 
( -0.00556013 -0.00289764 0.00196235 ) 0 
( -0.011737 -0.00636375 0.00220522 ) 0 
( -0.00257362 -0.00496701 0.00049987 ) 0 
( -0.00288727 -0.00337157 0.00209208 ) 0 
( -0.00217293 -0.0122945 0.00532314 ) 0 
( -0.00821437 -0.00156111 0.00351876 ) 0 
( -0.0125412 -0.00455365 0.00214414 ) 0 
( -0.00302113 -0.00623474 0.00403545 ) 0 
( -0.00490077 -0.00122811 0.00501436 ) 0 
( -0.00485211 -0.00864278 0.00649796 ) 0 
( -0.00853118 -0.00300738 0.00259035 ) 0 
( -0.0103386 -0.00479926 0.00323419 ) 0 
( -0.000108693 -0.00323101 0.00318104 ) 0 
( -0.0095309 -0.00267271 0.000499794 ) 0 
( -0.00425538 -0.00516495 0.00696975 ) 0 
( -0.0045226 -0.00953388 0.00193916 ) 0 
( -0.0018942 -0.000384678 0.00734979 ) 0 
( -0.00141353 -0.00938705 0.00677052 ) 0 
( -0.012429 -0.00170355 0.00049892 ) 0 
( -0.00465768 -0.0105096 0.00460163 ) 0 
( -0.00290737 -0.0130301 0.00291025 ) 0 
( -0.000250037 -0.00199902 0.00812434 ) 0 
( -0.0047773 -0.00164589 0.00752085 ) 0 
( -0.00494836 -0.00579283 0.00766009 ) 0 
( -0.00384288 -0.00265784 0.00716766 ) 0 
( -0.0105584 -0.00475148 0.00666387 ) 0 
( -0.0112084 -0.00556607 0.00182819 ) 0 
( -0.00262542 -0.00424481 0.00437022 ) 0 
( -0.00282971 -0.0130471 0.00684123 ) 0 
( -0.00970219 -0.00665807 0.00347767 ) 0 
( -0.00751411 -0.00512055 0.00603062 ) 0 
( -0.00204212 -0.0035418 0.0039635 ) 0 
( -0.00670442 -0.00582389 0.00587403 ) 0 
( -0.00666518 -0.00656055 0.00661253 ) 0 
( -0.00150547 -0.00174952 0.00524418 ) 0 
( -0.00940293 -0.00551972 0.00113956 ) 0 
( -0.0070476 -0.0104772 0.00128072 ) 0 
( -0.0099051 -0.000844352 0.00297208 ) 0 
( -0.00948337 -0.00497092 0.00528699 ) 0 
( -0.00247373 -0.0113901 0.00695381 ) 0 
( -0.0101387 -0.00251063 0.00376292 ) 0 
( -0.00404066 -0.00359585 0.000499138 ) 0 
( -0.00217415 -0.00894952 0.00629306 ) 0 
( -0.00131072 -0.0114489 0.00347027 ) 0 
( -0.00901102 -0.00741948 0.00114149 ) 0 
( -0.00438117 -0.00605405 0.00288615 ) 0 
( -0.0104292 -0.00516428 0.00230771 ) 0 
( -0.00695446 -0.00838899 0.00122038 ) 0 
( -0.00544193 -0.00663113 0.00730221 ) 0 
( -0.0107794 -0.00787627 0.0066244 ) 0 
( -0.0119533 -0.00268966 0.00656495 ) 0 
( -0.00341991 -0.00931729 0.0054053 ) 0 
( -0.00195916 -0.0132061 0.0031847 ) 0 
( -0.00939963 -0.00156704 0.00240948 ) 0 
( -0.00610937 -0.00724356 0.00465826 ) 0 
( -0.0054119 -0.00672428 0.00398027 ) 0 
( -0.0026716 -0.0121781 0.00240144 ) 0 
( -0.000967004 -0.00511281 0.000499561 ) 0 
( -0.00959915 -0.000662883 0.00203831 ) 0 
( -0.00225367 -0.00609091 0.000498408 ) 0 
( -0.00750729 -0.00448602 0.0052401 ) 0 
( -0.00395821 -0.00661951 0.00359794 ) 0 
( -0.0109634 -0.00587832 0.00355018 ) 0 
( -0.0104034 -0.00319659 0.00548813 ) 0 
( -0.00816481 -0.00262852 0.00515934 ) 0 
( -0.0132708 -0.00146052 0.00192511 ) 0 
( -0.00473926 -0.00619586 0.00674012 ) 0 
( -0.00965034 -0.000931686 0.00614098 ) 0 
( -0.00178251 -0.000342979 0.000499306 ) 0 
( -0.00958643 -0.00327815 0.00409467 ) 0 
( -0.000667479 -0.00476954 0.00756671 ) 0 
( -0.00896767 -0.0028802 0.00136188 ) 0 
( -0.00125748 -0.00882546 0.00591483 ) 0 
( -0.00139936 -0.00259551 0.00127122 ) 0 
( -0.00770168 -0.000982665 0.000499793 ) 0 
( -0.00188284 -0.00406624 0.00312796 ) 0 
( -0.00466862 -0.0125069 0.00369613 ) 0 
( -0.00273782 -0.00503323 0.00206071 ) 0 
( -0.00984254 -0.00340498 0.00231679 ) 0 
( -0.00541866 -0.000671671 0.00284598 ) 0 
( -0.00315386 -0.000707826 0.00552325 ) 0 
( -0.00490761 -0.000121008 0.00351937 ) 0 
( -0.00629027 -0.00348034 0.00677262 ) 0 
( -0.00111689 -0.0115662 0.000499752 ) 0 
( -0.00440097 -0.0108728 0.00578878 ) 0 
( -0.00514139 -0.00728459 0.00493698 ) 0 
( -0.00107523 -0.00210693 0.00733612 ) 0 
( -0.00969113 -0.00149137 0.00531055 ) 0 
( -0.0113843 -0.00200933 0.00610274 ) 0 
( -0.0037991 -0.0127982 0.00329738 ) 0 
( -0.00473462 -0.00600681 0.00382025 ) 0 
( -0.00321246 -0.0103857 0.00127099 ) 0 
( -0.00362033 -0.0128493 0.00427934 ) 0 
( -0.0046706 -0.00599714 0.00193095 ) 0 
( -0.0103644 -0.00527888 0.00749001 ) 0 
( -0.00571077 -0.00753731 0.00283098 ) 0 
( -0.00492107 -0.0117015 0.00600382 ) 0 
( -0.00578381 -0.0108889 0.000499573 ) 0 
( -0.0112665 -0.00267559 0.00398543 ) 0 
( -0.0103141 -0.00675396 0.00510578 ) 0 
( -0.00933838 -0.00811138 0.000498503 ) 0 
( -0.0019817 -0.00636022 0.00797569 ) 0 
( -0.00298007 -0.0020596 0.0070707 ) 0 
( -0.0103612 -0.00382414 0.00157341 ) 0 
( -0.00623048 -0.00553449 0.0050424 ) 0 
( -0.0100623 -0.00114042 0.00122257 ) 0 
( -0.00320486 -0.00108047 0.00344272 ) 0 
( -0.005559 -0.0111483 0.00313646 ) 0 
( -0.00695052 -0.00221642 0.00341819 ) 0 
( -0.0115174 -0.00459521 0.00496747 ) 0 
( -0.0133169 -0.00095157 0.00446256 ) 0 
( -0.00173563 -0.0103533 0.0035741 ) 0 
( -0.00621264 -0.00393041 0.00330826 ) 0 
( -0.0109745 -0.00434495 0.00416686 ) 0 
( -0.00801245 -0.00785896 0.00701502 ) 0 
( -0.00321294 -0.00875332 0.000499684 ) 0 
( -0.00786119 -0.00454097 0.00131315 ) 0 
( -0.00669612 -0.011462 0.00574324 ) 0 
( -0.00605798 -0.0028828 0.000499469 ) 0 
( -4.30241e-05 -0.00637465 0.00294143 ) 0 
( -0.00102762 -0.00581156 0.005898 ) 0 
( -0.00468924 -0.0116377 0.00308645 ) 0 
( -0.00389908 -0.00166805 0.00704159 ) 0 
( -0.00897587 -0.00914302 0.00462135 ) 0 
( -0.0127442 -0.00397729 0.00135465 ) 0 
( -0.00994256 -0.00890948 0.0045322 ) 0 
( -0.000909656 -0.00130845 0.00841793 ) 0 
( -0.00182439 -0.00477294 0.00409093 ) 0 
( -0.000380092 -0.0025516 0.00548801 ) 0 
( -0.00760671 -0.0109726 0.00469198 ) 0 
( -0.004774 -0.0110299 0.00117735 ) 0 
( -0.00293447 -0.00301092 0.00740685 ) 0 
( -0.00538256 -0.00772166 0.00402718 ) 0 
( -0.00711748 -0.00144941 0.00512952 ) 0 
( -0.0110283 -0.00564705 0.0061188 ) 0 
( -0.00667768 -0.00616869 0.00183637 ) 0 
( -0.00713129 -0.00794905 0.00407947 ) 0 
( -0.000261678 -0.0133478 0.00689069 ) 0 
( -0.00924476 -0.00963123 0.00647346 ) 0 
( -0.00526684 -0.0103459 0.00641663 ) 0 
( -0.00370553 -0.012826 0.00527493 ) 0 
( -0.00295909 -0.0027447 0.00541371 ) 0 
( -0.0107712 -0.000964488 0.00581477 ) 0 
( -0.00878673 -0.0034049 0.00481778 ) 0 
( -0.00268904 -0.00247964 0.00249535 ) 0 
( -0.0113616 -0.00486303 0.00340481 ) 0 
( -0.0114507 -0.00208734 0.000499863 ) 0 
( -0.00587837 -0.0119868 0.00597974 ) 0 
( -0.00542447 -0.0112584 0.00193559 ) 0 
( -8.64281e-05 -0.00886619 0.000498754 ) 0 
( -0.0125212 -0.00116359 0.00133473 ) 0 
( -0.011567 -0.00666785 0.00314087 ) 0 
( -0.00666114 -0.00777906 0.00249134 ) 0 
( -0.0043493 -0.00410109 0.00216344 ) 0 
( -0.0121388 -0.00555666 0.00381178 ) 0 
( -0.00250543 -0.0041981 0.00124382 ) 0 
( -0.00340307 -0.00492374 0.00279749 ) 0 
( -0.00778653 -0.00635028 0.000499151 ) 0 
( -0.00669415 -0.0106275 0.00631256 ) 0 
( -0.00888505 -0.00257481 0.0060235 ) 0 
( -0.00873717 -0.00646854 0.00617508 ) 0 
( -0.00212328 -0.00638591 0.00532162 ) 0 
( -0.00077226 -0.0125203 0.000498528 ) 0 
( -0.00646033 -0.00819266 0.00337923 ) 0 
( -0.00388931 -0.00310348 0.00299838 ) 0 
( -0.00260293 -0.00904749 0.00389321 ) 0 
( -1.49068e-05 -0.0111175 0.000496936 ) 0 
( -0.00310651 -0.00650824 0.000806903 ) 0 
( -0.00585892 -0.011997 0.00705456 ) 0 
( -0.00534161 -0.012235 0.00216049 ) 0 
( -0.00218734 -0.00116959 0.00184922 ) 0 
( -0.00100496 -0.00660373 0.00308438 ) 0 
( -0.0043497 -0.012622 0.00169646 ) 0 
( -0.0102067 -0.00860583 0.000499824 ) 0 
( -0.00436134 -0.0091132 0.00567159 ) 0 
( -0.0107958 -0.00314526 0.000984334 ) 0 
( -0.0039961 -0.0050185 0.00198103 ) 0 
( -0.00183725 -0.00168252 0.0042665 ) 0 
( -0.00856454 -0.00906096 0.00339954 ) 0 
( -0.00733115 -0.00992362 0.000499153 ) 0 
( -0.000664486 -0.00670118 0.00617247 ) 0 
( -0.00693492 -0.00272975 0.00642128 ) 0 
( -0.00500628 -0.00814113 0.0032015 ) 0 
( -0.00617733 -0.00697352 0.0021512 ) 0 
( -0.00252115 -0.000550269 0.00113942 ) 0 
( -0.00527637 -0.00545012 0.00128269 ) 0 
( -0.00959778 -0.00692936 0.000498348 ) 0 
( -0.00294964 -0.00648119 0.00747984 ) 0 
( -0.00740629 -0.00769441 0.00315246 ) 0 
( -0.00105975 -0.000835091 0.00668917 ) 0 
( -0.000162432 -0.0103711 0.00255812 ) 0 
( -0.00328978 -0.00481755 0.00124724 ) 0 
( -0.00988627 -0.00585234 0.00504334 ) 0 
( -0.00299326 -0.00129812 0.00449404 ) 0 
( -0.0038936 -0.00210947 0.0022153 ) 0 
( -0.00565564 -0.000685444 0.0038649 ) 0 
( -0.00757127 -0.0089333 0.00612287 ) 0 
( -0.00769468 -0.00604173 0.00637336 ) 0 
( -0.0015187 -0.00787297 0.00606823 ) 0 
( -0.00747319 -0.010042 0.00700166 ) 0 
( -0.00640908 -0.00632194 0.00441259 ) 0 
( -0.000652937 -0.0125816 0.00244426 ) 0 
( -0.000183544 -0.00400276 0.00180339 ) 0 
( -0.000260411 -0.00237613 0.003676 ) 0 
( -0.00906052 -0.00383429 0.00277502 ) 0 
( -0.00992514 -9.00703e-05 0.00567862 ) 0 
( -0.0106288 -0.00407334 0.00506469 ) 0 
( -0.0102694 -0.000933745 0.00389835 ) 0 
( -0.010982 -0.00581925 0.000500216 ) 0 
( -0.00355734 -0.00229257 0.00628202 ) 0 
( -0.00121383 -0.013295 0.00384509 ) 0 
( -0.00818439 -0.00525906 0.00192691 ) 0 
( -0.00544772 -0.00115261 0.00668311 ) 0 
( -0.0045629 -0.0125487 0.00270275 ) 0 
( -0.0129712 -0.00281364 0.00639395 ) 0 
( -0.00323204 -0.00300768 0.000499751 ) 0 
( -0.00517899 -0.00681646 0.00219545 ) 0 
( -0.000284011 -0.00887625 0.00613248 ) 0 
( -0.00474507 -0.0108163 0.00252241 ) 0 
( -0.0101339 -0.00379224 0.00319015 ) 0 
( -0.00464727 -0.00852651 0.00146628 ) 0 
( -0.00210941 -0.0123794 0.0070277 ) 0 
( -0.00261429 -0.00934996 0.00244904 ) 0 
( -0.0117809 -0.00110781 0.00284017 ) 0 
( -0.00304763 -0.0122417 0.000498478 ) 0 
( -0.00420668 -0.00914911 0.00716305 ) 0 
( -0.00431963 -0.00171368 0.0014025 ) 0 
( -0.0080837 -0.00142619 0.00656284 ) 0 
( -0.0059051 -0.00532735 0.00356968 ) 0 
( -0.00199089 -0.0132022 0.00161223 ) 0 
( -0.00274202 -0.0104572 0.00403706 ) 0 
( -0.00478258 -0.00189019 0.00655249 ) 0 
( -0.00884808 -0.00999802 0.000499382 ) 0 
( -0.0123906 -0.00497161 0.00527349 ) 0 
( -0.00155226 -0.00924043 0.00505538 ) 0 
( -0.00555613 -0.00748086 0.0015505 ) 0 
( -0.0113485 -0.00703252 0.00479227 ) 0 
( -0.0118288 -0.00377491 0.00544603 ) 0 
( -0.0032183 -0.0112591 0.000498705 ) 0 
( -0.00756857 -0.00993375 0.00215746 ) 0 
( -0.00298187 -0.00974746 0.00328906 ) 0 
( -0.00773753 -0.0066971 0.00324575 ) 0 
( -0.0100504 -0.00734994 0.00434739 ) 0 
( -0.00248672 -0.00600114 0.00216011 ) 0 
( -0.0101549 -0.00866763 0.00293521 ) 0 
( -0.00860567 -0.00938377 0.00574548 ) 0 
( -0.0106141 -0.000968898 0.00203848 ) 0 
( -0.00579703 -0.00833576 0.00633537 ) 0 
( -0.0115178 -0.00482075 0.00241826 ) 0 
( -0.00652114 -0.00749075 0.00129021 ) 0 
( -0.00768338 -0.00349869 0.00679065 ) 0 
( -0.0079976 -0.0025852 0.00332293 ) 0 
( -0.00260258 -0.00597657 0.00315293 ) 0 
( -0.00164276 -0.00585074 0.00339982 ) 0 
( -0.00975118 -0.0044 0.00232698 ) 0 
( -0.00824033 -0.0073716 0.00270566 ) 0 
( -0.00301561 -0.0094895 0.0063033 ) 0 
( -0.00320141 -0.00964831 0.00442021 ) 0 
( -0.0012537 -0.0019783 0.000499018 ) 0 
( -0.00687315 -0.00370702 0.000761228 ) 0 
( -0.00597531 -0.0023168 0.00322155 ) 0 
( -0.00167113 -0.00499825 0.00600491 ) 0 
( -0.00691232 -0.00417957 0.00397908 ) 0 
( -0.00148019 -0.0035479 0.000917347 ) 0 
( -0.00281109 -0.0130508 0.0048894 ) 0 
( -0.0013636 -0.0132812 0.00238586 ) 0 
( -0.00108408 -0.00881209 0.00049884 ) 0 
( -0.0106074 -0.00641401 0.00153869 ) 0 
( -0.00619197 -0.00181774 0.00664811 ) 0 
( -0.0121638 -0.00303526 0.00486267 ) 0 
( -0.0113653 -0.00293907 0.0057385 ) 0 
( -0.0106763 -0.000166528 0.00450237 ) 0 
( -0.000836291 -0.00221428 0.00466511 ) 0 
( -0.000540369 -0.0108203 0.00336804 ) 0 
( -0.00941455 -0.00330226 0.00558877 ) 0 
( -0.00488402 -0.0113646 0.00506439 ) 0 
( -0.00681222 -0.0090665 0.000499166 ) 0 
( -0.000792217 -0.00295498 0.000499662 ) 0 
( -0.00619389 -0.00726755 0.00366248 ) 0 
( -0.0115456 -0.00631859 0.00546211 ) 0 
( -8.81104e-05 -0.00558928 0.000499448 ) 0 
( -0.00020207 -0.00752165 0.00182243 ) 0 
( -0.00186663 -0.00779556 0.00287695 ) 0 
( -0.00328379 -0.00508339 0.00523355 ) 0 
( -0.0027771 -0.00525004 0.00608023 ) 0 
( -0.000702771 -0.00587553 0.00378307 ) 0 
( -0.00638464 -0.00328308 0.00579732 ) 0 
( -0.00603338 -0.0100724 0.00580752 ) 0 
( -0.00220768 -0.0114629 0.000499301 ) 0 
( -0.00181735 -0.00741781 0.00380074 ) 0 
( -0.00572909 -0.0093774 0.00212551 ) 0 
( -0.00897653 -0.00621701 0.00523745 ) 0 
( -0.00858952 -0.0019018 0.0072832 ) 0 
( -0.000688901 -0.0100945 0.00628911 ) 0 
( -0.00773683 -0.00281948 0.00425916 ) 0 
( -0.00474701 -0.0112505 0.00687751 ) 0 
( -0.00753827 -0.00732793 0.00477487 ) 0 
( -0.00418811 -0.0116543 0.00436157 ) 0 
( -0.00934435 -0.00148564 0.00354367 ) 0 
( -0.00214037 -0.00130892 0.000499694 ) 0 
( -0.00921044 -0.00745976 0.00381715 ) 0 
( -0.0114305 -0.00206851 0.00242588 ) 0 
( -0.00604356 -0.00983407 0.00678282 ) 0 
( -0.0123025 -0.00167243 0.00630637 ) 0 
( -0.00403217 -0.008231 0.000735578 ) 0 
( -0.00463272 -0.00544569 0.00608791 ) 0 
( -0.00554947 -0.00581307 0.00436626 ) 0 
( -0.00827417 -0.00675714 0.00127577 ) 0 
( -0.00292379 -0.0130114 0.00191209 ) 0 
( -0.00766295 -0.00067926 0.00222033 ) 0 
( -0.00734047 -0.00338987 0.0035398 ) 0 
( -0.0114716 -0.00108078 0.00471458 ) 0 
( -0.00526633 -0.00114658 0.00197968 ) 0 
( -0.00389091 -0.00308466 0.00199953 ) 0 
( -0.00168065 -0.00822192 0.00739141 ) 0 
( -0.004678 -0.00561523 0.000499254 ) 0 
( -0.0108993 -3.58409e-05 0.00546679 ) 0 
( -0.000252458 -0.00430541 0.00563403 ) 0 
( -0.0023699 -0.00487074 0.00691064 ) 0 
( -0.00308084 -0.00606359 0.00506913 ) 0 
( -0.00236074 -0.00927671 0.000499792 ) 0 
( -0.00477263 -0.00381063 0.00562194 ) 0 
( -0.0086268 -0.000445157 0.00210478 ) 0 
( -0.00488234 -0.00642314 0.00105178 ) 0 
( -0.0059704 -0.0101182 0.00477648 ) 0 
( -0.00229954 -0.0103179 0.00275002 ) 0 
( -0.0104832 -0.00107744 0.00486392 ) 0 
( -0.0076686 -0.00904281 0.00259697 ) 0 
( -0.0100228 -0.00764256 0.00105409 ) 0 
( -0.00135093 -0.00321989 0.00331747 ) 0 
( -0.00681364 -0.0104778 0.00533124 ) 0 
( -0.00294104 -0.00833382 0.00611876 ) 0 
( -0.00291694 -0.000593931 0.00227493 ) 0 
( -0.00142104 -0.0124642 0.00125524 ) 0 
( -0.00328367 -0.00144658 0.00781319 ) 0 
( -0.0065665 -0.00606866 0.00345837 ) 0 
( -0.00152955 -0.0039498 0.00471764 ) 0 
( -0.0103813 -0.00254414 0.00473178 ) 0 
( -0.00377442 -0.00742906 0.00304194 ) 0 
( -0.00823318 -0.0105116 0.00378129 ) 0 
( -0.00230511 -0.000877943 0.00390305 ) 0 
( -0.00214533 -0.00329357 0.00796583 ) 0 
( -9.5706e-05 -0.00341222 0.00416503 ) 0 
( -0.0104734 -0.00233333 0.000499277 ) 0 
( -0.00405789 -0.00347778 0.00438188 ) 0 
( -0.0018161 -0.00148006 0.00658326 ) 0 
( -0.00100447 -0.00731839 0.00458297 ) 0 
( -0.00569544 -0.00374761 0.00524389 ) 0 
( -0.000394747 -0.00339584 0.00602363 ) 0 
( -0.00371207 -0.00676886 0.00569006 ) 0 
( -0.0118376 -1.87523e-06 0.00580503 ) 0 
( -0.00679152 -0.00888784 0.00413629 ) 0 
( -0.0124966 -0.00469705 0.00417451 ) 0 
( -0.00238627 -0.0122706 0.00143053 ) 0 
( -0.00223758 -0.00336751 0.00511435 ) 0 
( -0.00130605 -0.00661933 0.00143113 ) 0 
( -0.0125487 -0.00455768 0.000499289 ) 0 
( -0.00127696 -0.0082118 0.00510837 ) 0 
( -0.00996218 -0.00279107 0.0014071 ) 0 
( -0.00317506 -0.0102514 0.00227317 ) 0 
( -0.00384419 -0.00194505 0.00320028 ) 0 
( -0.00656004 -0.0116273 0.00306766 ) 0 
( -0.0113644 -0.00489556 0.000499619 ) 0 
( -0.000455165 -0.00834656 0.00233322 ) 0 
( -0.00419934 -0.0056698 0.00521418 ) 0 
( -0.00855913 -0.00747645 0.00627094 ) 0 
( -0.000686103 -0.00890049 0.00469174 ) 0 
( -0.00700473 -0.00415607 0.00640859 ) 0 
( -0.00434256 -0.00987465 0.00631867 ) 0 
( -0.00758273 -1.87252e-05 0.00631797 ) 0 
( -0.00823389 -0.00939548 0.00671211 ) 0 
( -0.0115409 -0.00401611 0.00182581 ) 0 
( -0.0018006 -0.00713427 0.00213084 ) 0 
( -0.00982021 -0.00239358 0.00572021 ) 0 
( -0.00802879 -0.00831112 0.00433122 ) 0 
( -0.00162666 -0.00927844 0.00377791 ) 0 
( -0.0104483 -0.00380624 0.00696761 ) 0 
( -0.00399662 -0.0110865 0.00355036 ) 0 
( -0.000687114 -0.000848065 0.00309997 ) 0 
( -0.00585956 -0.0065634 0.00129383 ) 0 
( -0.00613387 -0.0046181 0.00444936 ) 0 
( -0.00952911 -0.00444763 0.00650255 ) 0 
( -0.00756282 -0.00812008 0.00223188 ) 0 
( -0.00514961 -0.0116614 0.000499517 ) 0 
( -0.00382504 -0.00485644 0.00604364 ) 0 
( -0.00703425 -0.000773659 0.0013876 ) 0 
( -0.00837887 -0.010395 0.00576129 ) 0 
( -0.00642805 -0.00173284 0.00761536 ) 0 
( -0.00270726 -0.0113271 0.00135418 ) 0 
( -0.00517786 -0.00801587 0.000789834 ) 0 
( -0.0035702 -0.0114503 0.0071908 ) 0 
( -0.000328667 -0.00838872 0.00134257 ) 0 
( -0.0117465 -0.00113434 0.00567378 ) 0 
( -0.00328873 -0.000572569 0.00732733 ) 0 
( -0.0107185 -0.00422846 0.00250609 ) 0 
( -0.0108639 -0.00566634 0.0051334 ) 0 
( -0.00736258 -0.00702565 0.00212453 ) 0 
( -0.0133494 -0.000207619 0.00055867 ) 0 
( -0.00725552 -0.000344152 0.00394639 ) 0 
( -0.00886258 -0.00539692 0.00463105 ) 0 
( -0.0049925 -0.00492538 0.00208497 ) 0 
( -0.00497878 -0.00878328 0.00241286 ) 0 
( -0.00718565 -0.0018207 0.0067537 ) 0 
( -0.0128877 -0.00348393 0.000498643 ) 0 
( -0.00682184 -0.0008399 0.00782455 ) 0 
( -0.00137098 -0.0123977 0.00311557 ) 0 
( -0.00812639 -0.00737 0.000499744 ) 0 
( -0.00331286 -0.00169455 0.0055194 ) 0 
( -0.000569083 -0.00663603 0.00210665 ) 0 
( -0.0115003 -0.00499577 0.00688875 ) 0 
( -0.00921764 -0.000566652 0.003911 ) 0 
( -0.00278193 -0.00033726 0.00466298 ) 0 
( -0.0123987 -0.000679034 0.00627919 ) 0 
( -0.00340569 -0.00865144 0.00345035 ) 0 
( -0.00217544 -0.000182931 0.00556812 ) 0 
( -0.00704902 -0.00412763 0.00172059 ) 0 
( -0.00789538 -0.00864363 0.00144258 ) 0 
( -0.00223555 -0.000467133 0.00299471 ) 0 
( -0.000246493 -0.00912535 0.00382337 ) 0 
( -0.007599 -0.000901951 0.00585301 ) 0 
( -0.00449319 -0.0125705 0.00467853 ) 0 
( -0.00640406 -0.0107155 0.00344655 ) 0 
( -0.000434289 -0.00601523 0.00133449 ) 0 
( -0.00604428 -0.00417439 0.00609678 ) 0 
( -0.00415816 -0.0080526 0.00372208 ) 0 
( -0.00208727 -0.00761211 0.00130207 ) 0 
( -0.00770658 -0.00259912 0.00722556 ) 0 
( -0.00717646 -0.006472 0.00527638 ) 0 
( -0.000559054 -0.00122429 0.00218284 ) 0 
( -0.00926675 -0.00836077 0.0032753 ) 0 
( -0.00271694 -0.0130737 0.000938133 ) 0 
( -0.0121761 -0.00547875 0.00205497 ) 0 
( -0.00228241 -0.00415756 0.00221663 ) 0 
( -0.00336561 -0.00424741 0.00206434 ) 0 
( -0.00459947 -0.00152863 0.00261913 ) 0 
( -0.00765598 -0.0046172 0.00338304 ) 0 
( -0.00553574 -0.00319869 0.00736394 ) 0 
( -0.00643544 -0.000287881 0.0054967 ) 0 
( -0.00717385 -0.00674059 0.00118483 ) 0 
( -0.00391696 -0.00157363 0.000498994 ) 0 
( -0.00270669 -0.00199688 0.00383957 ) 0 
( -0.00652969 -0.00268565 0.00733334 ) 0 
( -0.00343207 -0.00361812 0.00129131 ) 0 
( -0.00315657 -0.00882601 0.00707024 ) 0 
( -0.00238796 -0.00354367 0.000498743 ) 0 
( -0.00525186 -0.00524566 0.00688179 ) 0 
( -0.00695759 -0.00138462 0.00217512 ) 0 
( -0.00455835 -0.00474661 0.00534476 ) 0 
( -0.0132127 -0.0019128 0.00471346 ) 0 
( -0.00457931 -0.000175736 0.00257766 ) 0 
( -0.0108761 -0.00181313 0.00137699 ) 0 
( -0.00394121 -0.00775423 0.00211222 ) 0 
( -0.00303397 -0.00706095 0.0050186 ) 0 
( -0.000943788 -0.00451604 0.00140556 ) 0 
( -0.0121732 -0.00548356 0.000498184 ) 0 
( -0.00702531 -0.00742222 0.00622971 ) 0 
( -0.0041533 -0.00397907 0.00638804 ) 0 
( -0.00560457 -0.0060123 0.000498293 ) 0 
( -0.00675054 -0.00836413 0.00603521 ) 0 
( -0.00135022 -0.000183387 0.00344272 ) 0 
( -0.00579834 -0.00769542 0.00556786 ) 0 
( -0.0059853 -0.000434526 0.00721101 ) 0 
( -0.00578031 -0.00645874 0.00291087 ) 0 
( -0.0123974 -0.00495684 0.00304656 ) 0 
( -0.0102028 -0.00860976 0.00150385 ) 0 
( -0.00376966 -0.00561124 0.00431464 ) 0 
( -0.00380464 -0.00654088 0.00665787 ) 0 
( -0.0040434 -0.00856528 0.00268628 ) 0 
( -0.0120367 -0.00359329 0.00258424 ) 0 
( -0.00197291 -0.0059308 0.00619819 ) 0 
( -0.00788453 -0.000499228 0.00317794 ) 0 
( -0.000885266 -0.00984841 0.00342867 ) 0 
( -0.00462421 -0.00258302 0.00349369 ) 0 
( -0.0101384 -0.00571115 0.00408769 ) 0 
( -0.00800966 -0.0106596 0.000499802 ) 0 
( -0.0100251 -0.00668158 0.00253169 ) 0 
( -0.00242116 -0.00948353 0.00548478 ) 0 
( -0.000446939 -0.00527155 0.00671492 ) 0 
( -0.00784987 -0.00906825 0.00517207 ) 0 
( -0.00199039 -0.00675742 0.00303674 ) 0 
( -0.00371678 -0.00769007 0.00607529 ) 0 
( -0.00113408 -0.00658496 0.00524994 ) 0 
( -0.00842921 -0.00503458 0.00563672 ) 0 
( -0.00256284 -0.00140123 0.00274657 ) 0 
( -0.000802333 -0.00284693 0.00256971 ) 0 
( -0.00929664 -0.00254803 0.0048834 ) 0 
( -0.00294837 -0.000144903 0.00368517 ) 0 
( -0.00458154 -0.0072657 0.00149566 ) 0 
( -0.00506342 -0.00300706 0.00049979 ) 0 
( -0.00374239 -0.0128163 0.000926851 ) 0 
( -0.0131076 -0.00151951 0.00290887 ) 0 
( -0.0070583 -0.00382832 0.0026745 ) 0 
( -0.00883287 -0.00214513 0.00299415 ) 0 
( -0.0109107 -0.00462876 0.00134955 ) 0 
( -0.00363561 -0.0110223 0.00516127 ) 0 
( -0.00676771 -0.00908136 0.00303624 ) 0 
( -0.00285116 -0.00521818 0.0043422 ) 0 
( -0.00988636 -0.0075369 0.00203636 ) 0 
( -3.85066e-05 -0.000151132 0.00481458 ) 0 
( -0.00782047 -0.00691314 0.00590057 ) 0 
( -0.00705755 -0.0110997 0.000499316 ) 0 
( -0.0083952 -0.0103808 0.00675903 ) 0 
( -0.0122163 -0.00241221 0.00564113 ) 0 
( -0.00782624 -0.00278746 0.00119218 ) 0 
( -0.000695667 -0.0124402 0.0038519 ) 0 
( -0.00985269 -0.006316 0.00592688 ) 0 
( -0.00362302 -0.0085636 0.00162137 ) 0 
( -0.00477703 -0.000397544 0.00447139 ) 0 
( -0.000547913 -0.00111631 0.00480879 ) 0 
( -0.00119549 -0.00341201 0.00825212 ) 0 
( -0.00785148 -0.00549646 0.00101449 ) 0 
( -0.00518416 -0.00339942 0.00335291 ) 0 
( -0.00782365 -0.00186264 0.00570212 ) 0 
( -0.00475858 -0.00887547 0.000499046 ) 0 
( -0.00164294 -0.00687343 0.0060619 ) 0 
( -0.00448289 -0.00421949 0.00386454 ) 0 
( -0.00405373 -0.00135755 0.00609916 ) 0 
( -0.00894947 -0.00990488 0.00744028 ) 0 
( -0.00699546 -0.00570148 0.00700061 ) 0 
( -0.00686677 -0.00315239 0.00462204 ) 0 
( -0.00739613 -0.00183933 0.00425255 ) 0 
( -0.00459883 -0.00458794 0.00123109 ) 0 
( -0.000729131 -0.0133312 0.00600708 ) 0 
( -0.00853082 -0.00262942 0.000499133 ) 0 
( -0.000525332 -0.00765546 0.00649417 ) 0 
( -0.00138011 -0.00655649 0.00405707 ) 0 
( -0.00689804 -0.00314489 0.00181403 ) 0 
( -0.00990686 -0.00174371 0.00436074 ) 0 
( -0.00277291 -0.00879927 0.00484635 ) 0 
( -0.0070201 -0.00570784 0.000499792 ) 0 
( -5.46128e-06 -0.00157219 0.00299692 ) 0 
( -0.00566096 -0.00595026 0.00205825 ) 0 
( -0.00797223 -0.00396255 0.00406583 ) 0 
( -0.00967881 -0.000488021 0.00479538 ) 0 
( -0.00879655 -0.00633109 0.000499789 ) 0 
( -0.00966245 -0.00673469 0.00147529 ) 0 
( -0.00128795 -0.00486272 0.00325264 ) 0 
( -0.00155989 -0.00128385 0.00762954 ) 0 
( -0.00574029 -0.00269507 0.00648921 ) 0 
( -0.0131776 -0.00214185 0.0056847 ) 0 
( -0.0043356 -0.00514321 0.00351352 ) 0 
( -0.00717836 -0.00253672 0.00534484 ) 0 
( -0.00673369 -0.00889392 0.0020547 ) 0 
( -0.00134364 -0.00165744 0.00162532 ) 0 
( -0.00587621 -0.00918995 0.00440135 ) 0 
( -0.0113988 -0.00287411 0.00301508 ) 0 
( -0.00775187 -0.00200337 0.000499589 ) 0 
( -0.000584831 -0.00305953 0.00161747 ) 0 
( -0.00546518 -0.00444412 0.0037273 ) 0 
( -0.00206105 -0.000974434 0.00493612 ) 0 
( -0.000920387 -0.00919088 0.0014088 ) 0 
( -0.00542048 -0.0019915 0.00139188 ) 0 
( -0.00568353 -0.00646313 0.0051127 ) 0 
( -0.00187067 -0.0132177 0.00459459 ) 0 
( -0.00999943 -0.00600354 0.000499641 ) 0 
( -0.0117082 -0.00641237 0.00409624 ) 0 
( -0.00179712 -0.00928565 0.00187857 ) 0 
( -0.00180197 -0.0132282 0.00659856 ) 0 
( -0.011999 -0.00487507 0.00127208 ) 0 
( -0.00888101 -0.00697236 0.00205053 ) 0 
( -0.00169642 -0.0122249 0.00218603 ) 0 
( -0.00272559 -0.0130697 0.00389159 ) 0 
( -0.00170446 -0.00247111 0.00665065 ) 0 
( -0.000237826 -0.00292565 0.00775121 ) 0 
( -0.0128813 -0.00346876 0.00310496 ) 0 
( -0.000563126 -0.0133392 0.00308782 ) 0 
( -0.00266616 -0.00286892 0.00435842 ) 0 
( -0.00795212 -0.00422486 0.00609617 ) 0 
( -0.00452313 -0.00722796 0.00415347 ) 0 
( -0.00349426 -0.00826632 0.0052894 ) 0 
( -0.0111803 -0.00324144 0.00480452 ) 0 
( -0.0103179 -0.00483698 0.000498346 ) 0 
( -0.00574368 -0.000978515 0.00570355 ) 0 
( -0.00817815 -0.0068227 0.00692465 ) 0 
( -0.011996 -0.00586167 0.00692241 ) 0 
( -0.00308683 -0.011902 0.00522314 ) 0 
( -0.00673674 -0.00936303 0.005765 ) 0 
( -0.00345233 -0.00265947 0.00377858 ) 0 
( -0.00897908 -0.000926169 0.00129852 ) 0 
( -0.00393457 -0.00217374 0.00804113 ) 0 
( -0.00209714 -0.0033378 0.00696881 ) 0 
( -0.00511453 -0.0102115 0.00543857 ) 0 
( -0.00222098 -0.00821083 0.00543649 ) 0 
( -0.00858925 -0.00321495 0.0038261 ) 0 
( -0.00644266 -0.00222489 0.00233758 ) 0 
( -0.0103036 -0.00495174 0.00471621 ) 0 
( -0.0031665 -0.00570603 0.00688729 ) 0 
( -0.000700574 -0.000422408 0.00551207 ) 0 
( -0.0078055 -0.00353721 0.00495288 ) 0 
( -0.00579017 -0.00542415 0.00605837 ) 0 
( -0.0100996 -0.00872819 0.00620152 ) 0 
( -0.0088393 -0.000805209 0.00301298 ) 0 
( -0.0129233 -0.00335193 0.00211295 ) 0 
( -0.0122276 -0.00312261 0.00132178 ) 0 
( -0.00631142 -0.0117643 0.000499343 ) 0 
( -0.00116858 -0.00104795 0.000852774 ) 0 
( -0.00148716 -0.0132642 0.000499692 ) 0 
( -0.00228282 -0.00305316 0.00136291 ) 0 
( -0.00807822 -0.00117756 0.00502012 ) 0 
( -0.00543449 -0.00929858 0.00601836 ) 0 
( -0.00591014 -0.008426 0.00237284 ) 0 
( -0.00618806 -0.00399649 0.00220974 ) 0 
( -0.0047601 -0.00262703 0.00770773 ) 0 
( -0.00811281 -0.00947933 0.000932786 ) 0 
( -0.00281904 -0.0110997 0.00600461 ) 0 
( -0.00300875 -0.00428127 0.00599335 ) 0 
( -0.0054121 -0.0120457 0.00418051 ) 0 
( -0.00794671 -0.00117475 0.00752022 ) 0 
( -0.00345469 -0.000291652 0.00638209 ) 0 
( -0.000575566 -0.00804589 0.00762293 ) 0 
( -0.0124865 -0.000647464 0.00519233 ) 0 
( -0.00378852 -0.00657381 0.00458161 ) 0 
( -0.0035903 -0.00582478 0.00599039 ) 0 
( -0.00554293 -0.0121457 0.00319424 ) 0 
( -0.00839856 -0.00340257 0.00574604 ) 0 
( -0.00564666 -0.00495076 0.000499754 ) 0 
( -0.00948356 -0.00842913 0.00223527 ) 0 
( -0.00230454 -0.0066399 0.00138878 ) 0 
( -0.00545991 -0.00419707 0.00155322 ) 0 
( -0.00937947 -0.00168275 0.000499525 ) 0 
( -0.00740154 -0.00498284 0.00248939 ) 0 
( -0.0112762 -0.00529911 0.00430106 ) 0 
( -0.00839663 -0.0043221 0.00049883 ) 0 
( -0.000542945 -0.00126665 0.00742795 ) 0 
( -0.00391508 -0.00408934 0.00745602 ) 0 
( -0.000106678 -0.00620619 0.00683647 ) 0 
( -0.00096434 -0.0126389 0.00684895 ) 0 
( -2.20862e-05 -0.010286 0.0055697 ) 0 
( -0.00547808 -0.00269655 0.00400148 ) 0 
( -0.00998412 -0.0042811 0.00404819 ) 0 
( -0.0105929 -0.00682982 0.000499792 ) 0 
( -0.000185128 -0.00787201 0.000499122 ) 0 
( -0.0105759 -0.00814865 0.00466205 ) 0 
( -0.00666661 -0.00123014 0.00599493 ) 0 
( -0.00322189 -0.0036293 0.00385529 ) 0 
( -0.00770234 -0.00800366 0.00577873 ) 0 
( -0.00807276 -0.00931738 0.0042305 ) 0 
( -0.00575768 -0.00889767 0.000499089 ) 0 
( -0.0126826 -0.00405315 0.00500612 ) 0 
( -0.0073731 -0.00341858 0.00584465 ) 0 
( -0.00561089 -0.00711868 0.000499789 ) 0 