FoamFile
{version 2.0; format ascii;class Cloud<passiveParticle>; location 0;object  positions;}
2499
(
( 0.00164853 -0.0039104 0.0060491 ) 0 
( 0.000399798 -0.00501827 0.00505314 ) 0 
( 0.0124368 -0.000908425 0.00351361 ) 0 
( 0.000115386 -0.013351 0.0051355 ) 0 
( 0.0109636 -0.00402872 0.00454701 ) 0 
( 0.00321065 -0.00406063 0.00546175 ) 0 
( 0.00491486 -0.0036287 0.000498252 ) 0 
( 0.00527073 -0.0122659 0.002351 ) 0 
( 0.00437381 -0.0042065 0.00696772 ) 0 
( 0.00831688 -0.00579702 0.00409235 ) 0 
( 0.00456704 -0.00147783 0.00586441 ) 0 
( 0.0102102 -0.00706885 0.00637747 ) 0 
( 0.00511664 -0.00873843 0.00495155 ) 0 
( 0.00482163 -0.0105107 0.000499166 ) 0 
( 0.00505677 -0.0052981 0.00394222 ) 0 
( 0.00911403 -0.00848774 0.00408765 ) 0 
( 0.0092272 -0.00205278 0.000499066 ) 0 
( 0.0122167 -0.00250844 0.00595966 ) 0 
( 0.00463975 -0.0060417 0.00720216 ) 0 
( 0.00224921 -0.0131611 0.00232147 ) 0 
( 0.00516779 -0.00144171 0.00148228 ) 0 
( 0.00751744 -0.00480781 0.000498306 ) 0 
( 0.00896876 -0.00419113 0.00628109 ) 0 
( 0.00401601 -0.00129378 0.00312279 ) 0 
( 0.00104112 -0.0070234 0.00546023 ) 0 
( 0.0102237 -0.00752743 0.00221518 ) 0 
( 0.000974409 -0.0033201 0.00285984 ) 0 
( 0.00376413 -0.00648512 0.00701927 ) 0 
( 0.00415668 -0.00695982 0.00609546 ) 0 
( 0.00894383 -0.00277262 0.00129853 ) 0 
( 0.000649249 -0.00979091 0.00146897 ) 0 
( 7.4202e-05 -0.0073616 0.00276321 ) 0 
( 0.00493617 -0.00381441 0.00583642 ) 0 
( 0.00923803 -0.00211888 0.00375456 ) 0 
( 0.00903156 -0.00294783 0.00323616 ) 0 
( 0.0133387 -0.000569356 0.00476985 ) 0 
( 0.00627086 -0.0009563 0.000498941 ) 0 
( 0.0112686 -0.0042512 0.00200413 ) 0 
( 0.00763949 -0.0109481 0.00128161 ) 0 
( 0.00738712 -0.00748221 0.00539543 ) 0 
( 0.00018587 -0.00471315 0.00807197 ) 0 
( 0.0041192 -0.00435998 0.00601423 ) 0 
( 0.00560401 -0.0111581 0.00670678 ) 0 
( 0.00136194 -0.00869495 0.00221613 ) 0 
( 0.00761388 -0.00844613 0.00526665 ) 0 
( 0.00773036 -0.000997744 0.000499369 ) 0 
( 0.00339939 -0.000339933 0.000499778 ) 0 
( 9.12395e-05 -0.00103058 0.00557432 ) 0 
( 0.00833609 -0.00981909 0.00347193 ) 0 
( 0.00416871 -0.00518302 0.00700494 ) 0 
( 0.00456052 -0.00739927 0.00364111 ) 0 
( 0.0133232 -0.000862282 0.0066253 ) 0 
( 0.00228794 -0.0112801 0.00644657 ) 0 
( 0.00183638 -0.00554304 0.00528916 ) 0 
( 0.00745421 -0.00374411 0.000499783 ) 0 
( 0.000570732 -0.000750331 0.000499367 ) 0 
( 0.00940213 -0.00947976 0.000499198 ) 0 
( 0.00860821 -0.00904164 0.00245537 ) 0 
( 0.00315712 -0.00617999 0.00404838 ) 0 
( 0.0120515 -0.00349652 0.00578215 ) 0 
( 0.00155195 -0.0072067 0.00223644 ) 0 
( 0.00718224 -0.00115075 0.005173 ) 0 
( 0.0079368 -0.0107354 0.003474 ) 0 
( 0.00824372 -0.00149665 0.00566398 ) 0 
( 0.00937772 -0.00501339 0.00494142 ) 0 
( 0.00398876 -0.00119363 0.00509992 ) 0 
( 0.00889156 -0.00404502 0.0046084 ) 0 
( 0.000961814 -0.010425 0.00693961 ) 0 
( 0.00559447 -0.00909191 0.00575312 ) 0 
( 0.00368055 -0.00357266 0.00208811 ) 0 
( 0.00244194 -0.00685687 0.000499781 ) 0 
( 0.00826959 -0.00744667 0.000499413 ) 0 
( 0.0107191 -0.00344621 0.00374709 ) 0 
( 0.00603222 -0.00264035 0.00581158 ) 0 
( 0.0069892 -0.00109511 0.00318862 ) 0 
( 0.00380041 -0.00123805 0.00645999 ) 0 
( 0.0116473 -0.00466879 0.0028259 ) 0 
( 0.00046104 -0.00246289 0.00289337 ) 0 
( 0.00925892 -0.00727009 0.00613566 ) 0 
( 0.00179588 -0.0035016 0.00382181 ) 0 
( 0.0098588 -0.00426777 0.00672469 ) 0 
( 0.00726397 -0.00699571 0.00049828 ) 0 
( 0.00472445 -0.003972 0.0020621 ) 0 
( 0.00212511 -0.01236 0.00643677 ) 0 
( 0.0086939 -0.00888331 0.00612588 ) 0 
( 0.000463421 -0.0123527 0.000499782 ) 0 
( 0.00921881 -0.00161277 0.00541038 ) 0 
( 0.0109585 -0.00502039 0.0010905 ) 0 
( 0.00520023 -0.00521853 0.00711942 ) 0 
( 0.00334537 -0.00755033 0.000499783 ) 0 
( 0.00946024 -0.00825488 0.00499392 ) 0 
( 0.00153614 -0.0109492 0.00509895 ) 0 
( 0.00201848 -0.00507728 0.0038257 ) 0 
( 0.00111567 -0.00394244 0.0020909 ) 0 
( 0.00182714 -0.0105539 0.000499268 ) 0 
( 0.00542896 -0.00709648 0.00479197 ) 0 
( 0.00233105 -0.00516862 0.00106202 ) 0 
( 0.00726791 -0.00916974 0.00467152 ) 0 
( 0.00445776 -0.0123532 0.00138758 ) 0 
( 0.00161143 -0.00641572 0.00485513 ) 0 
( 0.00456726 -0.0114784 0.000499869 ) 0 
( 0.000555081 -0.00371883 0.00737028 ) 0 
( 0.0106355 -0.00626252 0.00136252 ) 0 
( 0.00380167 -0.00292677 0.00355746 ) 0 
( 0.00138932 -0.001726 0.00757525 ) 0 
( 0.00291012 -0.00775149 0.00581476 ) 0 
( 0.011756 -0.00442387 0.00114913 ) 0 
( 0.00580084 -0.00781441 0.00116605 ) 0 
( 0.00761514 -0.00436713 0.00507148 ) 0 
( 0.00109044 -0.0133053 0.000499684 ) 0 
( 0.0019406 -0.00599187 0.000499453 ) 0 
( 0.00655664 -0.00270533 0.00698085 ) 0 
( 0.00017379 -0.00108305 0.00411313 ) 0 
( 0.0118556 -0.00613776 0.00145644 ) 0 
( 0.00434331 -0.00215659 0.00516508 ) 0 
( 0.00187891 -0.0114354 0.000966172 ) 0 
( 0.00447712 -0.00565964 0.00503252 ) 0 
( 0.0118124 -0.00622329 0.00437625 ) 0 
( 0.0065742 -0.00448188 0.000498545 ) 0 
( 0.0109598 -0.00262281 0.00679269 ) 0 
( 0.00277791 -0.00489382 0.00511234 ) 0 
( 0.00805619 -0.00995096 0.00632706 ) 0 
( 0.00507487 -0.00464222 0.00136192 ) 0 
( 0.000974683 -0.0033543 0.00460231 ) 0 
( 0.00778176 -0.00497824 0.00429791 ) 0 
( 0.00292308 -0.00702582 0.00666675 ) 0 
( 0.00831667 -0.00437181 0.000907685 ) 0 
( 0.00309154 -0.00978134 0.00200761 ) 0 
( 0.00687044 -0.00968972 0.00688562 ) 0 
( 0.00784255 -0.00993029 0.00119356 ) 0 
( 0.0103994 -0.00529516 0.00627726 ) 0 
( 0.00114033 -0.00880112 0.00553622 ) 0 
( 0.00429694 -0.0014838 0.00197154 ) 0 
( 0.00266982 -0.0107554 0.00461248 ) 0 
( 0.0116743 -0.00117486 0.00640071 ) 0 
( 0.0076258 -0.00938355 0.0056135 ) 0 
( 0.00698907 -0.00327959 0.00489016 ) 0 
( 0.0100023 -0.00568076 0.00544723 ) 0 
( 0.0131681 -0.00219651 0.00580732 ) 0 
( 0.00923353 -0.0074088 0.00226696 ) 0 
( 0.00588108 -0.0100602 0.000990713 ) 0 
( 0.00897004 -0.00670203 0.000497824 ) 0 
( 0.00380335 -0.0111051 0.00198317 ) 0 
( 0.0032813 -0.00504646 0.00646221 ) 0 
( 0.00472502 -0.00989614 0.00286236 ) 0 
( 0.00960818 -0.00689253 0.00316934 ) 0 
( 0.00365293 -0.00985966 0.00294652 ) 0 
( 0.00654901 -0.00635224 0.0061047 ) 0 
( 0.0102611 -0.0025987 0.00607762 ) 0 
( 0.00430989 -0.00487638 0.00196411 ) 0 
( 0.0104796 -0.00486276 0.00195076 ) 0 
( 0.00447821 -0.00440588 0.00358649 ) 0 
( 0.00564121 -0.000500745 0.00297302 ) 0 
( 0.00214051 -0.00121345 0.00132477 ) 0 
( 0.00925145 -0.00694804 0.00708179 ) 0 
( 0.008973 -0.00123797 0.00336428 ) 0 
( 0.00618609 -0.000428959 0.00134565 ) 0 
( 0.000207962 -0.00651877 0.00772039 ) 0 
( 0.0062689 -0.00843691 0.00299482 ) 0 
( 3.74249e-05 -0.00541793 0.00320541 ) 0 
( 0.00608516 -1.42467e-05 0.00543848 ) 0 
( 0.0022993 -0.00869891 0.00323671 ) 0 
( 0.00287587 -0.0130376 0.00621656 ) 0 
( 0.000362752 -0.000504648 0.00207006 ) 0 
( 0.00091012 -0.00327773 0.00582002 ) 0 
( 0.00290168 -0.00975492 0.000499356 ) 0 
( 0.00384317 -0.0108096 0.00634184 ) 0 
( 0.0132172 -0.00187922 0.00306577 ) 0 
( 0.00130156 -0.00519 0.00738682 ) 0 
( 0.00599389 -0.00155852 0.00350598 ) 0 
( 0.00538386 -0.00911831 0.000498448 ) 0 
( 0.00288749 -0.00639896 0.00749109 ) 0 
( 0.0126584 -0.00424365 0.00614583 ) 0 
( 0.000777882 -0.00386737 0.000497162 ) 0 
( 0.00114245 -0.00557967 0.00457119 ) 0 
( 0.00723031 -0.00819415 0.00311518 ) 0 
( 0.00410977 -0.00205436 0.0039328 ) 0 
( 0.00653042 -0.00751745 0.00270708 ) 0 
( 0.00199626 -0.00272432 0.00158146 ) 0 
( 0.00507996 -0.00725727 0.00157557 ) 0 
( 0.000170483 -0.00553951 0.00751329 ) 0 
( 0.0105667 -0.00816025 0.00049918 ) 0 
( 0.000481357 -0.00960915 0.00729557 ) 0 
( 0.0123118 -0.00189563 0.00228797 ) 0 
( 0.00166997 -0.00169665 0.00569355 ) 0 
( 0.0022134 -0.00693509 0.00153839 ) 0 
( 0.000284446 -0.00402737 0.00270992 ) 0 
( 0.0004328 -0.00418666 0.00450236 ) 0 
( 0.00371711 -0.00354146 0.0073203 ) 0 
( 0.00652852 -7.81301e-05 0.00633136 ) 0 
( 0.010482 -0.00367597 0.00561487 ) 0 
( 0.00293924 -0.00583676 0.00148859 ) 0 
( 0.00457647 -0.00473364 0.00049963 ) 0 
( 0.00468121 -0.0114018 0.0015971 ) 0 
( 0.00324976 -0.0106568 0.00128389 ) 0 
( 0.0107683 -0.00210047 0.000499783 ) 0 
( 0.00886261 -0.00998387 0.00117149 ) 0 
( 0.00291967 -0.0122785 0.00463847 ) 0 
( 0.000988508 -0.00800129 0.00685376 ) 0 
( 0.0106773 -0.00260606 0.00428754 ) 0 
( 0.00858997 -0.00500162 0.00673666 ) 0 
( 0.00232001 -0.00897591 0.00219729 ) 0 
( 0.000902189 -0.00391952 0.00366113 ) 0 
( 0.00801011 -0.00109524 0.00378126 ) 0 
( 0.00196434 -0.0104088 0.00582164 ) 0 
( 0.011516 -0.00343945 0.00140158 ) 0 
( 0.00286821 -0.0104613 0.00624575 ) 0 
( 0.00239426 -0.0101423 0.00126817 ) 0 
( 0.00688464 -0.00967723 0.00130981 ) 0 
( 0.00971519 -0.00450117 0.00415183 ) 0 
( 0.00712149 -0.0112927 0.000499001 ) 0 
( 0.000795198 -0.00799838 0.00505079 ) 0 
( 0.0100412 -0.0057891 0.00445593 ) 0 
( 0.0027373 -0.00131104 0.00450911 ) 0 
( 0.00545336 -0.000629604 0.00199076 ) 0 
( 0.00739268 -0.00639086 0.00664452 ) 0 
( 0.00764387 -0.00166556 0.00268802 ) 0 
( 0.00696644 -0.00879187 0.00176632 ) 0 
( 0.00881182 -0.00753677 0.00411803 ) 0 
( 0.00241522 -0.00421849 0.00350308 ) 0 
( 0.0100411 -0.00879869 0.00365429 ) 0 
( 0.00735945 -0.0101518 0.00503216 ) 0 
( 0.00929065 -0.00474599 0.00323143 ) 0 
( 0.00654578 -0.00606394 0.00706184 ) 0 
( 0.0102085 -0.00684254 0.00735062 ) 0 
( 0.00555292 -0.0091092 0.00280709 ) 0 
( 0.00595346 -0.002905 0.00104795 ) 0 
( 0.00518396 -0.00470338 0.00626559 ) 0 
( 0.00969096 -0.00473125 0.0058492 ) 0 
( 0.00159081 -0.00769725 0.00136424 ) 0 
( 0.00696982 -0.00161547 0.0019516 ) 0 
( 0.00467104 -0.00272747 0.00441249 ) 0 
( 0.0074101 -0.00933161 0.000498433 ) 0 
( 0.00255168 -0.00796041 0.00147663 ) 0 
( 0.00166679 -0.0132466 0.00640505 ) 0 
( 0.00584999 -0.0105992 0.0058568 ) 0 
( 0.00640108 -0.011299 0.00538248 ) 0 
( 0.000362151 -0.0111024 0.00298901 ) 0 
( 0.00128687 -0.00332803 0.00120376 ) 0 
( 0.000828899 -0.0102155 0.00313737 ) 0 
( 0.00228832 -0.00428081 0.00449243 ) 0 
( 0.00770534 -0.0038723 0.00420742 ) 0 
( 0.0120411 -0.000368193 0.00425599 ) 0 
( 0.00185233 -0.0121184 0.00375106 ) 0 
( 0.00944518 -0.00824053 0.00599145 ) 0 
( 0.00956201 -0.000788552 0.00491565 ) 0 
( 0.00470183 -0.0104708 0.00452086 ) 0 
( 0.000680669 -0.00142915 0.00228012 ) 0 
( 0.00327789 -0.00202891 0.0081716 ) 0 
( 0.00408563 -0.00370803 0.00298961 ) 0 
( 0.013049 -0.00278827 0.00344612 ) 0 
( 0.00270209 -0.00955637 0.00291469 ) 0 
( 0.00314188 -0.00677363 0.00120894 ) 0 
( 0.00570751 -0.0112111 0.00394876 ) 0 
( 0.00765065 -0.000289098 0.0014907 ) 0 
( 0.0051632 -0.00263319 0.000499365 ) 0 
( 0.00203576 -0.00712143 0.00310711 ) 0 
( 0.0117871 -0.000547424 0.00563124 ) 0 
( 0.00985635 -0.00785201 0.00329945 ) 0 
( 0.00803863 -0.00224384 0.00197516 ) 0 
( 0.00900249 -0.00503806 0.00127267 ) 0 
( 0.0054295 -0.00317669 0.00522248 ) 0 
( 0.00173294 -0.00126054 0.00319576 ) 0 
( 0.00637428 -0.00965381 0.0060202 ) 0 
( 0.00880328 -0.00557052 0.00294947 ) 0 
( 0.000680129 -0.00294812 0.00373838 ) 0 
( 0.00783916 -0.00471075 0.00614718 ) 0 
( 0.000642214 -0.00806773 0.00102913 ) 0 
( 0.00297202 -0.00253206 0.00408437 ) 0 
( 0.00571982 -0.00343692 0.0063278 ) 0 
( 0.00481882 -0.00253625 0.00601971 ) 0 
( 0.00595696 -0.000365372 0.00781901 ) 0 
( 0.0132527 -0.00162007 0.00210101 ) 0 
( 0.00491002 -0.0026327 0.00738334 ) 0 
( 0.0130508 -0.00278757 0.000499562 ) 0 
( 0.00706262 -0.000214275 0.0054988 ) 0 
( 0.00985208 -0.0017181 0.00631675 ) 0 
( 0.00642855 -0.00733062 0.00593901 ) 0 
( 0.0101937 -0.00862091 0.0013154 ) 0 
( 0.0112507 -0.000224552 0.00245868 ) 0 
( 0.0073359 -0.0105482 0.00667557 ) 0 
( 0.000701373 -0.0027184 0.00732805 ) 0 
( 0.00458678 -0.00328864 0.00663521 ) 0 
( 0.00214995 -0.00486335 0.00780205 ) 0 
( 0.0103663 -0.00841573 0.00265017 ) 0 
( 0.00306387 -0.0129928 0.000498877 ) 0 
( 0.0044255 -0.00581049 0.00255531 ) 0 
( 0.0124794 -0.000934742 0.00250399 ) 0 
( 0.00749496 -0.00924947 0.00343718 ) 0 
( 0.00133246 -0.00845072 0.00318484 ) 0 
( 0.0113644 -0.00700679 0.00141233 ) 0 
( 0.00597666 -0.00455524 0.00322892 ) 0 
( 0.00776782 -0.00230609 0.00532231 ) 0 
( 0.006843 -0.010509 0.00580805 ) 0 
( 0.00691934 -0.00175239 0.000499781 ) 0 
( 0.00798709 -0.00150564 0.0046995 ) 0 
( 0.00416506 -0.012684 0.00498237 ) 0 
( 0.00233857 -0.00535469 0.00212342 ) 0 
( 0.0101706 -0.00481417 0.000499575 ) 0 
( 0.00314324 -0.00603269 0.0063815 ) 0 
( 0.00307529 -0.000484467 0.00212608 ) 0 
( 0.00536707 -0.00765153 0.00244735 ) 0 
( 0.00233272 -0.00581837 0.00315112 ) 0 
( 0.00937741 -0.00671267 0.00412503 ) 0 
( 0.00433713 -0.00807314 0.00162779 ) 0 
( 0.00820531 -0.00727001 0.00486448 ) 0 
( 0.00044317 -0.00484576 0.00610245 ) 0 
( 0.00119146 -0.00557746 0.00357323 ) 0 
( 0.0102157 -0.0019153 0.00370545 ) 0 
( 0.00148838 -0.00319465 0.00771776 ) 0 
( 0.01329 -0.00126611 0.00398165 ) 0 
( 0.00249457 -0.00344469 0.00579 ) 0 
( 0.0071227 -0.00256554 0.00221751 ) 0 
( 0.00333014 -0.00574939 0.00315587 ) 0 
( 0.00190122 -0.00828194 0.00714872 ) 0 
( 0.00608297 -0.00354107 0.0045589 ) 0 
( 0.00367436 -0.00512197 0.00554695 ) 0 
( 0.00611965 -0.00257786 0.00481909 ) 0 
( 0.0076424 -0.0107739 0.00252019 ) 0 
( 0.000117561 -0.0124877 0.00563855 ) 0 
( 0.00605452 -0.00444343 0.00134954 ) 0 
( 0.00383518 -0.000207926 0.00375627 ) 0 
( 0.0130178 -0.00296583 0.00496605 ) 0 
( 0.00162593 -0.0100288 0.00370484 ) 0 
( 0.0124784 -0.00213231 0.0050715 ) 0 
( 0.00063715 -0.00655131 0.00467714 ) 0 
( 0.00449598 -0.0108224 0.00543257 ) 0 
( 0.00117323 -0.00655136 0.00332985 ) 0 
( 0.0100767 -0.00407084 0.00767849 ) 0 
( 0.0128218 -0.00372475 0.000760552 ) 0 
( 0.00958091 -0.00544206 0.00213855 ) 0 
( 0.00347273 -0.00432081 0.00348564 ) 0 
( 0.00090133 -0.0133197 0.00371175 ) 0 
( 0.00190313 -0.00944468 0.00556319 ) 0 
( 0.00701339 -0.0113599 0.00302896 ) 0 
( 0.0026437 -0.012217 0.00559591 ) 0 
( 0.00662401 -0.00195346 0.00283053 ) 0 
( 0.00459593 -0.0125358 0.0040949 ) 0 
( 0.00774461 -0.00549907 0.00692718 ) 0 
( 0.00137146 -0.00207834 0.00275064 ) 0 
( 0.00833877 -0.00439056 0.00336667 ) 0 
( 0.0126259 -0.00154437 0.00683937 ) 0 
( 0.00982188 -0.000719971 0.00305019 ) 0 
( 0.00875815 -0.00806289 0.0066956 ) 0 
( 0.0039198 -0.00355149 0.000499046 ) 0 
( 0.00399681 -0.00252848 0.000499784 ) 0 
( 0.00214641 -0.00761499 0.00644457 ) 0 
( 0.00630068 -0.00986746 0.00209616 ) 0 
( 0.00440541 -0.000441445 0.000498285 ) 0 
( 0.00546644 -0.00976908 0.00648305 ) 0 
( 0.000755484 -0.00219848 0.00818658 ) 0 
( 0.00280515 -0.00887078 0.00639173 ) 0 
( 0.00755769 -0.00204208 0.00690273 ) 0 
( 0.000512122 -0.00882008 0.00167489 ) 0 
( 0.0109973 -0.00487377 0.00544499 ) 0 
( 0.00557852 -0.00469703 0.000499782 ) 0 
( 0.000697712 -0.0116848 0.00577531 ) 0 
( 0.00919594 -0.00723811 0.00499021 ) 0 
( 0.000465065 -0.00507177 0.0040396 ) 0 
( 0.000276648 -0.000637913 0.00322286 ) 0 
( 0.0103523 -0.008421 0.00452563 ) 0 
( 0.000340276 -0.00700158 0.000499062 ) 0 
( 0.000440424 -0.00280867 0.0013206 ) 0 
( 0.00471241 -0.00659813 0.00527944 ) 0 
( 0.0115267 -0.00120651 0.00236842 ) 0 
( 0.00330642 -0.00979471 0.00684871 ) 0 
( 0.00932967 -0.00796144 0.00127634 ) 0 
( 0.0101351 -0.00524103 0.00362679 ) 0 
( 0.00870891 -0.00119884 0.00049726 ) 0 
( 0.0105442 -0.00137914 0.0044899 ) 0 
( 0.00327462 -0.010807 0.00381947 ) 0 
( 0.00084582 -0.0016786 0.00673785 ) 0 
( 0.00359766 -0.00206581 0.00143703 ) 0 
( 0.000101065 -0.00460317 0.00049969 ) 0 
( 0.00380944 -0.00747278 0.00687916 ) 0 
( 0.00318112 -0.00416481 0.00133749 ) 0 
( 0.0117712 -0.00421201 0.00510742 ) 0 
( 0.00834204 -0.0104254 0.00190043 ) 0 
( 0.000824366 -0.0105594 0.00220314 ) 0 
( 2.94699e-05 -0.00738517 0.00486076 ) 0 
( 0.000815142 -0.00188618 0.0036277 ) 0 
( 0.00154518 -0.00267294 0.0053405 ) 0 
( 0.0096297 -0.00850807 0.000497901 ) 0 
( 0.000991315 -0.0075133 0.00313044 ) 0 
( 0.0041657 -0.00719956 0.0011763 ) 0 
( 0.00773028 -0.00295455 0.00653637 ) 0 
( 0.0010385 -0.00163364 0.000499528 ) 0 
( 0.00671467 -0.00391461 0.00301804 ) 0 
( 0.00934939 -0.0035425 0.00221582 ) 0 
( 0.00110966 -0.00946619 0.00436715 ) 0 
( 0.00311267 -0.00241436 0.00653131 ) 0 
( 0.00178401 -0.00160639 0.00449155 ) 0 
( 6.51219e-06 -0.00983999 0.000708021 ) 0 
( 0.0110305 -0.00385678 0.00289089 ) 0 
( 0.00247881 -0.000467764 0.00403879 ) 0 
( 0.00210523 -0.00277115 0.0045192 ) 0 
( 0.00307106 -0.0120705 0.00657647 ) 0 
( 0.00167425 -0.00754982 0.00489313 ) 0 
( 0.00517896 -0.00399655 0.003007 ) 0 
( 0.00846423 -0.00346068 0.000499783 ) 0 
( 0.0107516 -0.00779689 0.0014111 ) 0 
( 0.00359217 -0.00657119 0.00485895 ) 0 
( 0.0113421 -0.00704228 0.00631941 ) 0 
( 0.00671842 -0.00610762 0.00438663 ) 0 
( 0.00984865 -0.0065923 0.00224669 ) 0 
( 0.00211856 -0.00806542 0.00398832 ) 0 
( 0.0121078 -0.00275781 0.00182837 ) 0 
( 0.00919198 -0.00452884 0.0022558 ) 0 
( 0.000890225 -0.00574256 0.00553299 ) 0 
( 0.00344988 -0.00370758 0.00636546 ) 0 
( 0.00553077 -0.00763174 0.00389271 ) 0 
( 0.00126177 -0.0024597 0.00627459 ) 0 
( 0.00821961 -0.000854136 0.00283469 ) 0 
( 0.00679763 -0.00514216 0.00463382 ) 0 
( 0.00154223 -0.000491572 0.000499782 ) 0 
( 0.00354557 -0.0120983 0.00170665 ) 0 
( 0.0089621 -0.00160901 0.00675589 ) 0 
( 0.00309005 -0.00978928 0.00381682 ) 0 
( 0.00623613 -0.00483218 0.00545206 ) 0 
( 0.00281898 -0.0024037 0.000806487 ) 0 
( 0.00677957 -0.0034945 0.00640082 ) 0 
( 0.000199828 -0.0031579 0.00222557 ) 0 
( 0.00998717 -0.00257485 0.00235197 ) 0 
( 0.00410947 -0.00639444 0.00330123 ) 0 
( 0.000770392 -0.0058837 0.00166521 ) 0 
( 0.00549826 -0.00588615 0.000498176 ) 0 
( 0.00313095 -0.00678152 0.00571985 ) 0 
( 0.0110126 -0.00421927 0.000496922 ) 0 
( 0.000231783 -0.0110569 0.00397914 ) 0 
( 0.0010042 -0.00267706 0.000499566 ) 0 
( 0.00236985 -0.00785411 0.000499463 ) 0 
( 0.0106092 -0.000398469 0.00122582 ) 0 
( 0.000831901 -0.0089608 0.0066207 ) 0 
( 0.00695254 -0.00678416 0.00217813 ) 0 
( 0.00621856 -0.00162358 0.00447761 ) 0 
( 0.00898398 -0.00987486 0.00447439 ) 0 
( 0.00508915 -0.00726998 0.0059154 ) 0 
( 0.00363978 -0.00974507 0.00117281 ) 0 
( 0.00638191 -0.0107356 0.00455686 ) 0 
( 0.00741187 -0.00285001 0.00747682 ) 0 
( 0.00202623 -0.00481053 0.00681184 ) 0 
( 0.00702794 -0.00267663 0.00588197 ) 0 
( 0.00340114 -0.00268575 0.00267628 ) 0 
( 0.000360899 -0.0133453 0.00610338 ) 0 
( 0.00698272 -0.00429909 0.00584297 ) 0 
( 0.00259441 -0.00658923 0.00480223 ) 0 
( 0.0112961 -0.00308807 0.00231076 ) 0 
( 0.00641525 -0.0106217 0.00356428 ) 0 
( 0.00586281 -0.00139823 0.00248138 ) 0 
( 0.00816685 -0.00372294 0.00171907 ) 0 
( 0.0117684 -0.00237516 0.00439036 ) 0 
( 0.00222448 -0.0113546 0.00307858 ) 0 
( 0.00268214 -0.00160094 0.00614224 ) 0 
( 0.0035705 -0.00547335 0.00461864 ) 0 
( 0.00262584 -0.012057 0.000499782 ) 0 
( 0.00639373 -0.0117199 0.00701197 ) 0 
( 0.0039516 -0.0117733 0.00407876 ) 0 
( 0.00395416 -0.00606905 0.00135768 ) 0 
( 0.000706163 -0.00668684 0.00234974 ) 0 
( 0.00380439 -0.00882937 0.0063672 ) 0 
( 0.00729028 -0.0038371 0.00737618 ) 0 
( 0.00548613 -0.0108987 0.00496966 ) 0 
( 0.00413571 -0.0126945 0.00226975 ) 0 
( 0.00174124 -0.00854101 0.0047817 ) 0 
( 0.00359933 -0.00897146 0.00733338 ) 0 
( 0.0036105 -0.00649919 0.00227241 ) 0 
( 9.67567e-05 -0.0105382 0.00742342 ) 0 
( 0.00247096 -0.00200163 0.00518063 ) 0 
( 0.00523179 -0.0113812 0.00580769 ) 0 
( 0.00298855 -0.000188031 0.00322568 ) 0 
( 0.00911088 -0.000892348 0.00216659 ) 0 
( 0.00158527 -0.00411102 0.00295674 ) 0 
( 0.00152383 -0.0097397 0.000991124 ) 0 
( 0.00854849 -0.00931014 0.00523616 ) 0 
( 0.00491226 -0.00935628 0.00367982 ) 0 
( 7.57858e-05 -0.00060544 0.00803525 ) 0 
( 0.0027051 -0.0110308 0.000498013 ) 0 
( 0.00238338 -0.00180907 0.00371882 ) 0 
( 0.0119885 -0.00378602 0.00316321 ) 0 
( 0.00171096 -0.00943515 0.00290601 ) 0 
( 0.0106913 -0.00152788 0.00291491 ) 0 
( 0.00141905 -0.013275 0.00456446 ) 0 
( 0.0119161 -0.00602382 0.00535299 ) 0 
( 0.00392405 -0.00172478 0.00747181 ) 0 
( 0.00590738 -0.00373848 0.000499273 ) 0 
( 0.00702416 -0.011354 0.00199318 ) 0 
( 0.00272082 -0.0116442 0.00389432 ) 0 
( 0.00858571 -0.000730319 0.00512165 ) 0 
( 0.0060863 -0.00635698 0.00245932 ) 0 
( 0.00259377 -0.0090325 0.00497196 ) 0 
( 0.00757752 -0.00615973 0.00171402 ) 0 
( 0.00360414 -0.00449951 0.000497558 ) 0 
( 0.00130252 -0.00417765 0.0078503 ) 0 
( 0.00026362 -0.00671809 0.00145399 ) 0 
( 0.00246465 -0.00448151 0.00597572 ) 0 
( 0.000806456 -0.00926219 0.00343678 ) 0 
( 0.00628798 -0.000632124 0.00373083 ) 0 
( 0.0116678 -0.00543638 0.000499785 ) 0 
( 0.012228 -0.005358 0.00643938 ) 0 
( 0.00585455 -0.0119435 0.000496999 ) 0 
( 0.00172231 -0.00436107 0.00137508 ) 0 
( 0.00979763 -0.00761053 0.00426763 ) 0 
( 0.000478512 -0.0082389 0.0060289 ) 0 
( 0.00243265 -0.009412 0.00714586 ) 0 
( 0.00605536 -0.00718084 0.00189498 ) 0 
( 0.000997198 -0.0114409 0.00176853 ) 0 
( 0.0132993 -0.00112748 0.00123083 ) 0 
( 0.00590207 -0.00702545 0.00753396 ) 0 
( 0.0114216 -0.00215874 0.00265507 ) 0 
( 0.00412669 -0.00984019 0.00206637 ) 0 
( 0.00486256 -0.00162526 0.000498815 ) 0 
( 0.00144168 -0.00083262 0.00698989 ) 0 
( 0.00399131 -0.00495934 0.0029144 ) 0 
( 0.0066578 -0.00536185 0.00618776 ) 0 
( 0.0112136 -0.00702329 0.00436785 ) 0 
( 0.000279967 -6.64677e-05 0.00117526 ) 0 
( 0.0120208 -0.00253648 0.000499782 ) 0 
( 0.00589405 -0.0033368 0.00278642 ) 0 
( 0.000987285 -0.0107327 0.00590623 ) 0 
( 0.00528099 -0.00822476 0.00613533 ) 0 
( 0.00993418 -0.00702247 0.00134901 ) 0 
( 0.00624039 -0.00819084 0.00641222 ) 0 
( 0.0108152 -0.00782831 0.00599875 ) 0 
( 0.00194926 -0.0103398 0.00681751 ) 0 
( 0.00265074 -0.00198753 0.00174782 ) 0 
( 0.00185279 -0.00333563 0.0023844 ) 0 
( 0.00941637 -0.00189782 0.00189006 ) 0 
( 0.000418358 -0.0133443 0.00280141 ) 0 
( 0.00582721 -0.00699418 0.00318389 ) 0 
( 0.00502804 -0.00177268 0.00336983 ) 0 
( 0.00487899 -0.000759421 0.00522649 ) 0 
( 0.0071481 -0.00823573 0.00684652 ) 0 
( 0.00332262 -0.00955422 0.00588029 ) 0 
( 0.00777349 -0.000689681 0.00601483 ) 0 
( 0.00264597 -0.00326718 0.00676163 ) 0 
( 0.00339498 -0.00451663 0.00224673 ) 0 
( 0.00723498 -0.00302973 0.00394605 ) 0 
( 0.00484983 -0.00175008 0.00784881 ) 0 
( 0.00561425 -0.000583568 0.0061108 ) 0 
( 0.00691801 -0.000521309 0.00759097 ) 0 
( 0.00933392 -0.0025246 0.00659847 ) 0 
( 0.00536193 -0.00406788 0.00701512 ) 0 
( 0.00675611 -0.00579681 0.000498025 ) 0 
( 0.00343739 -0.0118284 0.00322358 ) 0 
( 0.00326122 -0.00156219 0.000498498 ) 0 
( 0.00166094 -0.000307508 0.00348529 ) 0 
( 0.0111996 -0.00207201 0.00362498 ) 0 
( 0.00814057 -0.010581 0.000498246 ) 0 
( 0.00279575 -0.0034403 0.00479707 ) 0 
( 0.00830657 -0.00197992 0.0034187 ) 0 
( 0.00629796 -0.00360868 0.00553198 ) 0 
( 0.00949272 -0.00301635 0.000500139 ) 0 
( 0.00492768 -0.00096083 0.00673091 ) 0 
( 0.0108677 -0.00133099 0.00713012 ) 0 
( 0.00339129 -0.00168179 0.00234575 ) 0 
( 0.00278221 -0.00493696 0.00291411 ) 0 
( 0.00354452 -0.00755087 0.00505351 ) 0 
( 0.00615783 -0.00689503 0.00413811 ) 0 
( 0.00662446 -0.0106685 0.00126741 ) 0 
( 0.00489035 -0.0068665 0.00286381 ) 0 
( 0.0102092 -0.00459256 0.00287169 ) 0 
( 0.00659282 -0.00101563 0.00596926 ) 0 
( 0.0118609 -0.00367609 0.000496872 ) 0 
( 0.00477686 -0.00476344 0.00535768 ) 0 
( 0.0101873 -0.00862967 0.00653467 ) 0 
( 0.000848983 -0.0103478 0.000497671 ) 0 
( 0.00166105 -0.00621495 0.00252565 ) 0 
( 0.00764529 -0.00362052 0.00324056 ) 0 
( 0.00692995 -0.00882448 0.006064 ) 0 
( 0.00471522 -0.000306075 0.00329335 ) 0 
( 0.00217279 -0.00703628 0.00559106 ) 0 
( 0.000249083 -0.00921209 0.0053462 ) 0 
( 0.00270072 -0.00545818 0.00716408 ) 0 
( 0.0105008 -0.0058007 0.00229643 ) 0 
( 0.00353239 -0.00932979 0.00480432 ) 0 
( 0.0122815 -0.00523567 0.00139864 ) 0 
( 0.00462217 -0.00224445 0.00124424 ) 0 
( 0.0117882 -0.00153313 0.00547395 ) 0 
( 0.00731568 -0.00451325 0.00354716 ) 0 
( 0.00146373 -0.00827608 0.000498865 ) 0 
( 0.00430177 -0.00905925 0.00146887 ) 0 
( 0.0057393 -0.00685239 0.00654945 ) 0 
( 0.00700035 -0.000981653 0.00118068 ) 0 
( 0.00810648 -0.00114847 0.00698716 ) 0 
( 0.0109807 -0.00583127 0.00503214 ) 0 
( 0.0126604 -0.000337567 0.00609315 ) 0 
( 0.00732272 -0.00170965 0.00598965 ) 0 
( 0.00760962 -0.00623239 0.00353852 ) 0 
( 0.0074664 -0.00703688 0.004113 ) 0 
( 0.00639925 -0.0093624 0.00049751 ) 0 
( 0.00387776 -0.00917683 0.00387686 ) 0 
( 0.00863479 -0.00182279 0.00127336 ) 0 
( 0.00858347 -0.000522035 0.00121848 ) 0 
( 0.00296345 -0.00584797 0.00536279 ) 0 
( 0.0130394 -0.00227729 0.00135932 ) 0 
( 0.00148109 -0.0117157 0.00684488 ) 0 
( 0.00291886 -0.00665845 0.00320587 ) 0 
( 0.00771576 -0.00607627 0.000498765 ) 0 
( 0.0018255 -0.00593399 0.00149053 ) 0 
( 0.00402472 -0.012729 0.000569383 ) 0 
( 0.00142677 -0.00193072 0.0013711 ) 0 
( 0.000198763 -0.00460705 0.00707804 ) 0 
( 0.00125504 -0.00674025 0.00133619 ) 0 
( 0.00559198 -0.000390641 0.00463217 ) 0 
( 0.00861479 -0.00563631 0.00197132 ) 0 
( 0.00129571 -0.0113297 0.00271389 ) 0 
( 0.00695423 -0.00601604 0.00281753 ) 0 
( 0.00551482 -0.0121592 0.00419748 ) 0 
( 0.00400655 -0.00371621 0.00413188 ) 0 
( 0.011437 -0.00523395 0.00194081 ) 0 
( 0.00212979 -0.00911973 0.000498168 ) 0 
( 0.00365813 -0.00728539 0.00296674 ) 0 
( 0.000434937 -0.0107557 0.00130781 ) 0 
( 0.00363993 -0.0128447 0.00685105 ) 0 
( 0.00263443 -0.00628989 0.00232286 ) 0 
( 0.000163935 -0.0073095 0.00584844 ) 0 
( 0.002051 -0.013192 0.00361998 ) 0 
( 0.00433477 -0.00484954 0.00446769 ) 0 
( 0.00526706 -0.00279125 0.00177678 ) 0 
( 0.00411145 -0.00990399 0.00538105 ) 0 
( 0.0110145 -0.00536314 0.00316731 ) 0 
( 0.00606414 -0.00522979 0.00396086 ) 0 
( 0.00505229 -0.0123602 0.00585977 ) 0 
( 0.00118501 -0.00239902 0.00440259 ) 0 
( 0.00329624 -0.00194937 0.00334095 ) 0 
( 0.00712309 -0.00114837 0.00680617 ) 0 
( 0.01238 -0.00160171 0.00423054 ) 0 
( 0.00183897 -0.00358251 0.00504863 ) 0 
( 0.00128799 -0.0071057 0.00647156 ) 0 
( 0.003691 -0.00292724 0.00465545 ) 0 
( 0.0102785 -0.0085203 0.00551727 ) 0 
( 0.0050609 -0.00636226 0.00201856 ) 0 
( 0.0132643 -0.00151547 0.00508164 ) 0 
( 0.00220273 -0.00114612 0.00755653 ) 0 
( 0.00488666 -0.00629104 0.00623281 ) 0 
( 0.0055317 -0.00509875 0.00479679 ) 0 
( 0.00160955 -0.0124565 0.00510601 ) 0 
( 0.000564746 -0.00262078 0.00515309 ) 0 
( 0.00791203 -0.00826672 0.00620335 ) 0 
( 0.00828115 -0.00470036 0.00188137 ) 0 
( 0.0109853 -0.00318737 0.000499785 ) 0 
( 0.00676074 -0.00752948 0.0046202 ) 0 
( 0.00938234 -0.00645175 0.00557754 ) 0 
( 0.00170634 -0.00509799 0.00285461 ) 0 
( 0.00477782 -0.0114674 0.00455164 ) 0 
( 0.0107522 -0.000763116 0.00631617 ) 0 
( 0.00123886 -0.00978422 0.00622644 ) 0 
( 0.0019727 -0.00387985 0.00717236 ) 0 
( 0.00136648 -0.00732005 0.00747832 ) 0 
( 0.011736 -0.00636399 0.00244069 ) 0 
( 0.00829818 -0.00728986 0.00585927 ) 0 
( 0.0107356 -0.0062372 0.00656692 ) 0 
( 0.00568252 -0.0120053 0.00516962 ) 0 
( 0.000276827 -0.0027728 0.00640607 ) 0 
( 0.00307556 -0.00272626 0.0074843 ) 0 
( 0.00477311 -0.00650699 0.000790993 ) 0 
( 0.00661988 -0.00892362 0.00379425 ) 0 
( 0.0117233 -0.000561881 0.000722018 ) 0 
( 0.00706925 -0.0112935 0.0076119 ) 0 
( 0.00923892 -0.00445083 0.000499392 ) 0 
( 0.00824768 -0.00726342 0.00219126 ) 0 
( 0.00762095 -0.00890534 0.00250965 ) 0 
( 0.00956983 -0.00931137 0.00248283 ) 0 
( 0.00356836 -0.00188992 0.00573816 ) 0 
( 0.00249976 -0.000780948 0.000499052 ) 0 
( 0.00867367 -0.00171131 0.00253143 ) 0 
( 0.00110849 -0.0114533 0.00368683 ) 0 
( 0.0093663 -0.00332965 0.00718974 ) 0 
( 0.00858972 -0.00551541 0.000498602 ) 0 
( 0.0123434 -0.00508847 0.00548418 ) 0 
( 0.0067399 -0.00235084 0.00131686 ) 0 
( 0.00177535 -0.00384102 0.000498306 ) 0 
( 0.00778169 -0.0108489 0.00583169 ) 0 
( 0.00956731 -0.00931078 0.00692346 ) 0 
( 0.000849445 -0.00953033 0.00241104 ) 0 
( 0.000598029 -0.0133394 0.00136911 ) 0 
( 0.00791812 -0.00529647 0.00332403 ) 0 
( 0.0028097 -0.00366071 0.00772079 ) 0 
( 0.00923036 -0.00860625 0.00310383 ) 0 
( 0.000959103 -0.00621176 0.000499785 ) 0 
( 0.0032133 -0.000870642 0.00768785 ) 0 
( 0.00171704 -0.0025382 0.00356796 ) 0 
( 0.00295291 -0.00172278 0.00723449 ) 0 
( 0.00753628 -0.0100299 0.00405737 ) 0 
( 0.00387263 -0.00608868 0.00570135 ) 0 
( 0.0100587 -0.00120461 0.00221267 ) 0 
( 0.00839608 -0.00205829 0.00744532 ) 0 
( 0.00858498 -0.00918766 0.00706987 ) 0 
( 0.0107842 -0.00502302 0.00447972 ) 0 
( 0.00298258 -0.00824144 0.00233391 ) 0 
( 0.0029136 -0.0116043 0.00239928 ) 0 
( 0.00165069 -0.012288 0.000498255 ) 0 
( 0.0121765 -0.0054759 0.00256733 ) 0 
( 0.00460922 -0.00190653 0.00676665 ) 0 
( 0.00175273 -0.00976418 0.00196267 ) 0 
( 0.00141355 -0.013276 0.0028559 ) 0 
( 0.0116948 -0.00643812 0.000499789 ) 0 
( 0.000612662 -0.00018684 0.00404882 ) 0 
( 0.0108884 -0.00772441 0.00500216 ) 0 
( 0.00206042 -0.00924989 0.00415373 ) 0 
( 0.00620118 -0.000791763 0.00694894 ) 0 
( 0.00650661 -0.0116582 0.00119593 ) 0 
( 0.00387364 -0.00285694 0.00605937 ) 0 
( 0.00615892 -0.0118454 0.00320944 ) 0 
( 0.0109353 -0.00590024 0.00402534 ) 0 
( 0.00208332 -0.000428975 0.00246164 ) 0 
( 0.00759834 -0.00352285 0.00572724 ) 0 
( 0.0122097 -0.0027502 0.00282305 ) 0 
( 0.0108152 -0.00735762 0.00300193 ) 0 
( 0.00573759 -0.00318464 0.00729322 ) 0 
( 0.00548265 -0.00221119 0.00414329 ) 0 
( 0.0100594 -0.00545193 0.00126136 ) 0 
( 0.00665441 -0.00630339 0.00135395 ) 0 
( 0.00198617 -0.00286371 0.000499833 ) 0 
( 0.000907378 -0.00168832 0.00504789 ) 0 
( 0.00704077 -0.00224212 0.00463883 ) 0 
( 0.00744696 -0.00988289 0.00211057 ) 0 
( 0.00292185 -0.00574393 0.000496907 ) 0 
( 0.00539282 -0.00369544 0.00137193 ) 0 
( 0.00151661 -0.00725479 0.00395125 ) 0 
( 0.00223522 -0.00624707 0.00673948 ) 0 
( 0.00252372 -0.0071523 0.00397923 ) 0 
( 0.00996033 -0.00227803 0.00113947 ) 0 
( 0.00112868 -0.0006252 0.00270129 ) 0 
( 0.00957845 -0.00588375 0.000499288 ) 0 
( 0.000995283 -0.0114773 0.000499783 ) 0 
( 0.00648093 -0.0043046 0.00405373 ) 0 
( 0.000382142 -0.00389459 0.00640143 ) 0 
( 0.00788475 -0.00270335 0.00284976 ) 0 
( 0.00874089 -0.00738798 0.00313414 ) 0 
( 0.00409721 -0.00550032 0.00374753 ) 0 
( 0.0079555 -0.00778523 0.00366734 ) 0 
( 0.00572786 -0.00309254 0.00374046 ) 0 
( 0.0101362 -0.00681367 0.00476714 ) 0 