/*--------------------------------*- C++ -*----------------------------------*\
| =========                 |                                                 |
| \\      /  F ield         | OpenFOAM: The Open Source CFD Toolbox           |
|  \\    /   O peration     | Version:  2506                                  |
|   \\  /    A nd           | Website:  www.openfoam.com                      |
|    \\/     M anipulation  |                                                 |
\*---------------------------------------------------------------------------*/
FoamFile
{
    version     2.0;
    format      ascii;
    arch        "LSB;label=32;scalar=64";
    class       volScalarField;
    location    "0.04";
    object      Ksl;
}
// * * * * * * * * * * * * * * * * * * * * * * * * * * * * * * * * * * * * * //

dimensions      [1 -3 -1 0 0 0 0];

internalField   nonuniform List<scalar> 
1152
(
169462
216436
138711
116045
80269.7
101762
144943
760320
138301
106832
131334
65381.1
105901
93121.9
121609
94101.6
167321
376422
180054
5.30232e+07
329977
235501
172513
187320
221847
258916
664530
150578
307905
168553
239301
426967
349732
278182
222894
124749
133287
158710
1.42051e+06
177503
288631
207703
157826
252950
114828
526971
195589
363991
170036
2.50028e+06
271007
327770
222023
230679
201171
220153
1.27561e+06
288216
283801
184340
407651
226704
231846
3.02059e+06
3.08785e+06
194328
180576
118697
191593
201420
268735
471207
322153
205499
301134
121399
173058
243557
173923
538197
115269
313317
325598
2.72294e+06
222513
212981
469042
190758
277549
251629
138802
376248
100387
175598
186393
3.23552e+06
88785.3
74660.2
70086.2
63954.6
49240.8
69858.9
100321
96493.4
54743.1
64079.9
104833
65684.8
44342
83616.5
163793
121971
0
0
0
0
0
0
0
0
0
0
0
0
0
0
0
0
0
0
0
0
0
0
0
0
0
0
0
0
0
0
0
0
0
0
0
0
0
0
0
0
0
0
0
0
0
0
0
0
0
0
0
0
0
0
0
0
0
0
0
0
0
0
0
0
0
0
0
0
0
0
0
0
0
0
0
0
0
0
0
0
0
0
0
0
0
0
0
0
0
0
0
0
0
0
0
0
0
0
0
0
0
0
0
0
0
0
0
0
0
0
0
0
0
0
0
0
0
0
0
0
0
0
0
0
0
0
0
0
0
0
0
0
0
0
0
0
0
0
0
0
0
0
0
0
0
0
0
0
0
0
0
0
0
0
0
0
0
0
0
0
0
0
0
0
0
0
0
0
0
0
0
0
0
0
0
0
0
0
0
0
0
0
0
0
0
0
0
0
0
0
0
0
0
0
0
0
0
0
0
0
0
0
0
0
0
0
0
0
0
0
0
0
0
0
0
0
0
0
0
0
0
0
0
0
0
0
0
0
0
0
0
0
0
0
0
0
0
0
0
0
0
0
0
0
0
0
0
0
0
0
0
0
0
0
0
0
0
0
0
0
0
0
0
0
0
0
0
0
0
0
0
0
76663
229889
65567.7
131653
147186
120682
132592
107749
99984.5
103018
103470
113546
94014.3
148191
90593.6
112545
122328
160285
265048
682813
160959
736919
285561
488605
436879
123515
205282
224523
174937
251099
186074
277369
664298
187767
210109
115687
237818
201972
429221
125822
201369
364939
156750
346841
192300
169844
219332
263871
236723
334311
442810
162419
163152
145408
289084
260974
192016
168803
168668
300936
178072
400796
207247
164707
117325
194469
155267
205924
982575
336623
318949
382059
443884
232297
140849
178784
196065
118190
631280
232460
4.04668e+06
419363
339937
712098
138345
165203
272909
104834
217936
177443
139471
2.86447e+06
160395
399728
261435
94495
36866.1
52592.9
47637.3
48157.6
63568.7
77092.4
44184.4
60200
73558.5
68680
38268.3
890.226
52639.1
29179.8
83832.1
17540.1
0
0
0
0
0
0
0
0
0
0
0
0
0
0
0
0
0
0
0
0
0
0
0
0
0
0
0
0
0
0
0
0
0
0
0
0
0
0
0
0
0
0
0
0
0
0
0
0
0
0
0
0
0
0
0
0
0
0
0
0
0
0
0
0
0
0
0
0
0
0
0
0
0
0
0
0
0
0
0
0
0
0
0
0
0
0
0
0
0
0
0
0
0
0
0
0
0
0
0
0
0
0
0
0
0
0
0
0
0
0
0
0
0
0
0
0
0
0
0
0
0
0
0
0
0
0
0
0
0
0
0
0
0
0
0
0
0
0
0
0
0
0
0
0
0
0
0
0
0
0
0
0
0
0
0
0
0
0
0
0
0
0
0
0
0
0
0
0
0
0
0
0
0
0
0
0
0
0
0
0
0
0
0
0
0
0
0
0
0
0
0
0
0
0
0
0
0
0
0
0
0
0
0
0
0
0
0
0
0
0
0
0
0
0
0
0
0
0
0
0
0
0
0
0
0
0
0
0
0
0
0
0
0
0
0
0
0
0
0
0
0
0
0
0
0
0
0
0
0
0
0
0
0
0
0
0
0
0
0
0
0
0
0
0
0
0
0
0
0
0
0
0
113447
74012.5
155358
97423.9
288137
96254.8
127032
104048
97510.3
94938.2
137312
99351.6
124140
208421
68798.9
151842
465062
246651
666331
577221
143106
300702
207971
211382
126950
291572
257841
128028
210668
169328
276103
221965
164657
99074.3
263242
135272
890041
164176
209293
706938
125195
521488
193930
854251
268116
140422
226168
281440
294250
149271
277198
200671
303829
200864
191353
479865
178688
137348
2.81447e+06
111032
176569
307150
189742
306447
148607
245859
340941
170555
208096
264743
166321
268952
247204
179120
266184
203109
174157
234480
189508
303134
223979
90103.4
326540
163190
208407
154231
206286
369467
218628
133220
258019
134595
249244
271943
325502
465947
35453.6
14908.9
47000.9
22878.9
33468
93318.1
43167.9
98316.4
48237.8
51572.1
46130.6
57417
69978.4
74207.4
48397.3
41991.7
0
0
0
0
0
0
0
0
0
0
0
0
0
0
0
0
0
0
0
0
0
0
0
0
0
0
0
0
0
0
0
0
0
0
0
0
0
0
0
0
0
0
0
0
0
0
0
0
0
0
0
0
0
0
0
0
0
0
0
0
0
0
0
0
0
0
0
0
0
0
0
0
0
0
0
0
0
0
0
0
0
0
0
0
0
0
0
0
0
0
0
0
0
0
0
0
0
0
0
0
0
0
0
0
0
0
0
0
0
0
0
0
0
0
0
0
0
0
0
0
0
0
0
0
0
0
0
0
0
0
0
0
0
0
0
0
0
0
0
0
0
0
0
0
0
0
0
0
0
0
0
0
0
0
0
0
0
0
0
0
0
0
0
0
0
0
0
0
0
0
0
0
0
0
0
0
0
0
0
0
0
0
0
0
0
0
0
0
0
0
0
0
0
0
0
0
0
0
0
0
0
0
0
0
0
0
0
0
0
0
0
0
0
0
0
0
0
0
0
0
0
0
0
0
0
0
0
0
0
0
0
0
0
0
0
0
0
0
0
0
0
0
0
0
0
0
0
0
0
0
0
0
0
0
0
0
0
0
0
0
0
0
0
0
0
0
0
0
0
0
0
0
)
;

boundaryField
{
    inlet
    {
        type            zeroGradient;
    }
    outlet
    {
        type            zeroGradient;
    }
    wall
    {
        type            zeroGradient;
    }
    procBoundary2to0
    {
        type            processor;
        value           nonuniform List<scalar> 
192
(
127730
57027.4
103856
112508
180615
406545
202516
225530
352971
138037
426858
1.66565e+06
572801
123244
231656
102585
121008
511906
406517
6.14052e+06
274494
162815
180370
136399
28568
98589.7
245018
64440.3
0
0
0
0
0
0
0
0
0
0
0
0
0
0
0
0
0
0
0
0
0
0
0
0
0
0
0
0
0
0
0
0
0
0
0
0
0
0
0
0
0
0
0
0
0
0
0
0
0
0
0
0
0
0
0
0
0
0
0
0
0
0
0
0
0
0
0
0
179011
191610
87484.4
97697.3
218220
191010
201836
199128
304197
521784
433303
168865
153551
810129
306571
215096
288614
222137
183841
243320
150407
291287
173854
190447
76314.4
47048.3
16439
36693.7
0
0
0
0
0
0
0
0
0
0
0
0
0
0
0
0
0
0
0
0
0
0
0
0
0
0
0
0
0
0
0
0
0
0
0
0
0
0
0
0
0
0
0
0
0
0
0
0
0
0
0
0
0
0
0
0
0
0
0
0
0
0
0
0
0
0
0
0
)
;
    }
    procBoundary2to3
    {
        type            processor;
        value           nonuniform List<scalar> 
192
(
55562
51172.8
389581
154011
102449
230290
1.52153e+07
148167
325997
672515
213234
225855
385350
184323
243128
163294
8.57096e+06
233977
311708
218371
108461
118091
394943
108553
352996
84298.5
85936.4
2.3901e+06
0
0
0
0
0
0
0
0
0
0
0
0
0
0
0
0
0
0
0
0
0
0
0
0
0
0
0
0
0
0
0
0
0
0
0
0
0
0
0
0
0
0
0
0
0
0
0
0
0
0
0
0
0
0
0
0
0
0
0
0
0
0
0
0
0
0
0
0
76161.1
185849
85602.1
770046
181553
170516
223498
119819
439062
836467
219989
365875
379580
233534
153747
218839
225470
138720
1.61096e+07
317651
97046.9
6.77484e+06
160240
247305
334401
201605
16991.9
42254
0
0
0
0
0
0
0
0
0
0
0
0
0
0
0
0
0
0
0
0
0
0
0
0
0
0
0
0
0
0
0
0
0
0
0
0
0
0
0
0
0
0
0
0
0
0
0
0
0
0
0
0
0
0
0
0
0
0
0
0
0
0
0
0
0
0
0
0
)
;
    }
}


// ************************************************************************* //
