/*--------------------------------*- C++ -*----------------------------------*\
| =========                 |                                                 |
| \\      /  F ield         | OpenFOAM: The Open Source CFD Toolbox           |
|  \\    /   O peration     | Version:  2506                                  |
|   \\  /    A nd           | Website:  www.openfoam.com                      |
|    \\/     M anipulation  |                                                 |
\*---------------------------------------------------------------------------*/
FoamFile
{
    version     2.0;
    format      ascii;
    arch        "LSB;label=32;scalar=64";
    class       surfaceScalarField;
    location    "0.04";
    object      phi;
}
// * * * * * * * * * * * * * * * * * * * * * * * * * * * * * * * * * * * * * //

dimensions      [0 3 -1 0 0 0 0];

oriented        oriented;

internalField   nonuniform List<scalar> 
3120
(
-8.86931e-10
3.36684e-09
2.40879e-08
5.24222e-10
3.1246e-09
2.19091e-09
1.21301e-08
9.43397e-09
-2.41034e-09
2.35518e-08
-5.83185e-09
6.11347e-08
-2.46191e-09
1.99449e-10
3.2706e-08
5.6553e-10
-8.06258e-10
3.44373e-10
2.78157e-08
8.46969e-10
-3.70455e-10
2.40384e-08
2.11998e-09
1.20019e-08
-1.66739e-09
2.66583e-09
2.13937e-08
5.42424e-09
-1.50419e-09
3.08102e-09
2.47617e-08
6.93894e-09
1.89151e-09
1.69472e-08
-4.26321e-09
4.51752e-08
-2.63634e-09
2.62289e-08
5.31492e-09
1.44537e-09
-2.99562e-09
3.18064e-08
-7.71738e-10
-2.09406e-10
2.25769e-08
4.21285e-09
2.2732e-08
-7.47305e-10
4.04778e-10
-4.62647e-10
2.60257e-08
8.09033e-10
5.05999e-10
-4.40426e-10
1.48523e-08
9.06362e-09
-2.69501e-09
2.25109e-08
-4.58545e-09
8.7299e-08
4.29809e-10
-5.91912e-10
3.41959e-08
-1.79042e-09
-1.78199e-09
-1.66302e-09
3.12501e-08
1.47561e-09
3.36659e-10
1.77492e-08
-7.56117e-09
2.70833e-08
-3.02028e-10
1.88541e-09
2.02592e-08
-1.0408e-09
1.62668e-10
-1.04957e-09
2.36836e-08
-4.67491e-09
-7.92792e-10
2.29142e-08
8.40457e-10
3.25914e-08
-4.10068e-09
3.71902e-08
-3.3383e-09
-1.63687e-09
-6.06942e-11
2.2761e-08
3.9558e-09
-1.74236e-09
2.5904e-08
-2.43823e-09
1.19743e-08
3.24731e-09
-1.6262e-09
-1.02533e-09
2.58683e-08
4.43846e-09
-4.58101e-09
4.13509e-10
1.33856e-08
-1.16408e-08
1.39668e-09
2.46797e-08
1.21843e-08
4.59057e-08
-2.30123e-09
-3.48254e-09
3.8781e-08
1.73344e-10
-2.17429e-09
-8.4384e-10
3.23805e-08
-2.1799e-09
1.6554e-09
1.74961e-08
3.14493e-09
3.31671e-08
6.73988e-10
1.82709e-09
1.17903e-08
2.48534e-09
1.11912e-09
-8.40106e-10
2.32347e-08
-3.17049e-09
3.23749e-10
2.85354e-08
1.52132e-09
2.99916e-08
-1.1112e-09
3.79505e-08
-4.6161e-10
2.63959e-09
1.60783e-09
1.75878e-08
1.61403e-09
-2.15261e-10
2.77162e-08
3.34659e-10
7.87268e-09
5.27561e-09
1.07157e-10
-4.09508e-09
2.41547e-08
4.07884e-10
-3.94379e-10
-1.65457e-09
1.75796e-08
-2.57535e-09
5.31238e-11
2.68233e-08
1.12667e-10
3.80031e-08
-5.90613e-10
1.41797e-09
3.00418e-08
3.81671e-09
1.21493e-09
1.42599e-09
2.74944e-08
-3.38768e-09
-1.06721e-09
2.3219e-08
5.66356e-09
2.04227e-08
-2.05308e-10
-2.5639e-10
1.02842e-08
3.38572e-09
-1.14203e-09
2.48976e-09
2.31077e-08
3.03323e-09
3.13175e-09
2.01612e-08
-2.99187e-09
4.35761e-08
2.66066e-09
2.85124e-08
5.00215e-09
1.51888e-09
-6.44162e-10
2.39326e-08
-5.50231e-10
-5.35471e-10
3.03896e-08
3.49583e-10
5.62215e-09
-3.30447e-09
-2.39942e-09
-2.54745e-09
3.27712e-08
-2.04787e-09
-4.2223e-09
-8.98218e-10
2.13115e-08
-1.79413e-09
-1.35068e-09
2.4775e-08
1.5732e-09
3.08835e-08
-2.03246e-09
2.37639e-09
2.58792e-08
1.27128e-09
-3.43863e-09
2.09706e-09
2.59053e-08
7.35269e-10
3.3646e-09
1.43299e-08
-4.5222e-10
1.94623e-08
-1.98068e-09
2.11619e-09
1.61199e-08
-3.59482e-09
-6.92014e-10
1.27426e-09
2.26418e-08
-5.53514e-09
-2.34312e-10
2.86033e-08
2.65595e-09
3.38315e-08
-3.53368e-09
5.01717e-08
-9.73978e-09
-6.26963e-09
-2.58071e-09
2.67605e-08
-2.50659e-09
-9.90595e-10
2.84751e-08
9.01054e-11
5.45114e-09
-5.34286e-10
-1.93932e-09
1.7792e-09
2.23768e-08
7.30771e-09
-1.22668e-09
-2.79192e-10
2.13847e-08
-3.06466e-10
1.30092e-10
2.50096e-08
6.56039e-10
3.56088e-08
-2.76346e-09
7.0284e-10
2.93984e-08
3.20627e-10
-1.08002e-09
2.80032e-10
2.36626e-08
-8.4819e-10
-2.16356e-09
1.63917e-08
-9.80987e-10
2.24684e-08
-2.54322e-09
-3.50374e-09
2.48864e-08
-2.01665e-09
-5.17184e-09
-1.07076e-09
2.66212e-08
-5.68201e-10
-1.54458e-09
2.33806e-08
7.20986e-10
3.07048e-08
-4.47312e-09
4.22764e-08
3.76875e-09
5.09592e-09
-4.85892e-09
2.33526e-08
2.7229e-09
2.61359e-09
1.46238e-08
4.83425e-09
1.29437e-08
5.32014e-10
1.33997e-10
2.81111e-10
2.37472e-08
-4.01808e-10
-1.60945e-10
-5.41609e-11
2.17433e-08
-4.51549e-11
2.5415e-10
2.32701e-08
4.26021e-10
3.40243e-08
-5.01967e-10
1.14926e-09
2.74074e-08
1.62487e-09
6.15803e-11
-5.51397e-12
2.30505e-08
-4.49023e-10
-4.75773e-10
1.76323e-08
-5.34422e-10
2.38766e-08
-1.01721e-09
-1.00397e-09
2.78966e-08
1.6021e-10
-5.60555e-10
1.57057e-10
2.6002e-08
-5.98598e-10
3.55003e-10
2.25879e-08
1.88543e-09
2.75288e-08
4.09365e-10
3.71877e-08
2.34006e-11
3.652e-09
-1.71524e-10
2.36071e-08
4.83465e-10
5.93702e-10
1.47241e-08
-5.1049e-10
1.62992e-08
5.85311e-10
4.44659e-09
1.69629e-09
2.46281e-08
-5.65296e-09
3.80285e-09
4.99248e-10
2.21567e-08
3.25763e-09
-7.30583e-10
2.37846e-08
-1.83069e-09
3.63671e-08
3.04224e-09
1.84331e-09
2.58551e-08
-1.63683e-09
2.71171e-09
2.90796e-10
2.35897e-08
1.09148e-09
-1.00532e-09
1.95281e-08
-2.10172e-09
2.62896e-08
1.33974e-09
5.00372e-10
2.89517e-08
-1.05176e-09
1.14634e-09
3.01039e-10
2.61853e-08
-2.83359e-10
-4.31688e-10
2.34445e-08
-7.8387e-10
2.69766e-08
1.08905e-09
3.55381e-08
8.57707e-10
2.03467e-10
1.09121e-10
2.51025e-08
-2.14483e-10
-1.58017e-09
1.70516e-08
-1.06955e-09
1.95487e-08
5.3671e-10
1.2821e-09
-6.45804e-10
2.65403e-08
-1.88343e-09
-9.17565e-10
-3.44572e-10
2.5422e-08
-3.68878e-09
3.19112e-10
2.57937e-08
3.51129e-09
3.04103e-08
1.29276e-09
-2.7244e-09
2.66235e-08
1.75863e-11
5.20283e-10
-1.55471e-09
2.55724e-08
-3.38336e-09
-5.8505e-10
2.43363e-08
1.66253e-09
2.7267e-08
2.02708e-09
-3.05399e-09
2.8118e-08
-8.63607e-10
1.2663e-09
-1.2264e-09
2.66179e-08
-9.71142e-10
-3.72644e-10
2.54698e-08
1.02923e-09
2.67723e-08
3.78466e-09
2.9843e-08
-1.50794e-09
3.64627e-10
3.37273e-09
2.64333e-08
-2.14523e-09
1.52525e-10
2.38572e-08
-3.95778e-09
2.44388e-08
-3.32997e-09
9.36058e-10
5.69441e-11
2.73231e-08
-1.37272e-09
-1.31951e-10
1.00033e-10
2.69315e-08
-1.46502e-09
3.37459e-10
2.70094e-08
1.37276e-09
2.8691e-08
7.80971e-10
-8.67209e-10
2.71933e-08
-4.26414e-10
2.04859e-10
-5.45913e-10
2.67946e-08
-1.36651e-09
-2.31886e-10
2.64771e-08
7.02496e-10
2.76741e-08
1.02066e-09
-8.89272e-10
2.78162e-08
-6.96535e-10
5.7077e-10
-6.60405e-10
2.71826e-08
-4.41954e-10
-5.23271e-10
2.67741e-08
3.57607e-11
2.7288e-08
1.13323e-09
2.82259e-08
-4.99292e-10
9.40502e-11
1.00859e-09
2.71562e-08
-1.25846e-09
-7.2083e-11
2.63642e-08
-1.94914e-09
2.65883e-08
-2.0337e-09
4.32389e-10
-7.01661e-11
2.77259e-08
-6.02905e-10
-1.98507e-12
1.8574e-11
2.75776e-08
-5.38793e-10
1.0589e-10
2.75929e-08
4.39384e-10
2.81612e-08
3.80224e-10
-5.99972e-10
2.76225e-08
-2.7954e-10
1.15461e-10
-3.97453e-10
2.74757e-08
-4.9344e-10
-1.99304e-10
2.73912e-08
1.70901e-10
2.7835e-08
5.93899e-10
-7.27966e-10
2.78592e-08
-5.08736e-10
3.41737e-10
-5.82056e-10
2.76197e-08
-1.26343e-10
-4.31016e-10
2.74741e-08
-2.44128e-10
2.76847e-08
6.97959e-10
2.79492e-08
-7.90008e-10
-3.59056e-10
5.32279e-10
2.76484e-08
-9.08451e-10
7.80596e-11
2.74089e-08
-1.02126e-09
2.75181e-08
-1.09327e-09
2.48489e-10
4.80439e-12
2.78884e-08
-3.35908e-10
7.87002e-11
1.09266e-11
2.78396e-08
-1.39677e-10
3.15313e-11
2.78398e-08
1.04089e-10
2.80297e-08
1.95334e-10
-2.20577e-10
2.78214e-08
-1.68605e-10
8.60778e-11
-1.87081e-10
2.77832e-08
-1.27461e-10
-1.31638e-10
2.7768e-08
-2.54962e-11
2.79211e-08
2.59411e-10
-2.77433e-10
2.78934e-08
-2.36676e-10
1.62938e-10
-3.00079e-10
2.78295e-08
-4.51976e-12
-2.77652e-10
2.77876e-08
-2.29053e-10
2.78737e-08
2.12919e-10
2.78851e-08
-3.3138e-10
-9.47683e-11
1.77022e-10
2.78393e-08
-4.54876e-10
4.99487e-11
2.77868e-08
-5.28282e-10
2.78488e-08
-5.94456e-10
1.56304e-10
-1.29622e-11
2.79598e-08
-1.91294e-10
9.07506e-11
-1.88606e-11
2.79493e-08
1.09296e-11
-1.65508e-11
2.79481e-08
2.05563e-12
2.80083e-08
1.25003e-10
-1.2324e-10
2.79225e-08
-1.15717e-10
8.20984e-11
-1.15903e-10
2.79234e-08
9.8899e-12
-9.85831e-11
2.79223e-08
-6.75223e-11
2.79756e-08
1.4956e-10
-1.68663e-10
2.79338e-08
-1.44355e-10
1.12779e-10
-1.83949e-10
2.79347e-08
5.12335e-11
-1.77684e-10
2.79284e-08
-1.66832e-10
2.79624e-08
1.22594e-10
2.78939e-08
-2.17225e-10
-8.26086e-11
1.09809e-10
2.79257e-08
-2.57234e-10
6.85612e-11
2.79286e-08
-2.78022e-10
2.796e-08
-3.1441e-10
1.031e-10
-1.82568e-11
2.79889e-08
-1.13615e-10
8.07199e-11
-2.54387e-11
2.79946e-08
5.36309e-11
-2.91095e-11
2.79944e-08
-2.68227e-11
2.80113e-08
8.41139e-11
-6.84513e-11
2.79657e-08
-7.70478e-11
7.25021e-11
-7.21005e-11
2.79819e-08
4.93862e-11
-6.89957e-11
2.79856e-08
-6.18684e-11
2.80019e-08
8.92831e-11
-9.21134e-11
2.79523e-08
-8.40971e-11
7.99998e-11
-1.06472e-10
2.79785e-08
6.24775e-11
-1.08028e-10
2.79852e-08
-1.09076e-10
2.79983e-08
7.25447e-11
2.78965e-08
-1.16022e-10
-5.10616e-11
7.37543e-11
2.7955e-08
-1.36696e-10
6.6921e-11
2.79752e-08
-1.47583e-10
2.79929e-08
-1.67409e-10
7.08346e-11
-1.77301e-11
2.7999e-08
-7.23706e-11
6.45277e-11
-2.46399e-11
2.80126e-08
5.61709e-11
-2.85579e-11
2.8014e-08
-2.98186e-11
2.80165e-08
6.00227e-11
-4.16709e-11
2.79826e-08
-5.28649e-11
5.91152e-11
-4.68493e-11
2.80052e-08
5.39161e-11
-4.81039e-11
2.80107e-08
-4.71948e-11
2.80144e-08
5.9054e-11
-5.35306e-11
2.79584e-08
-5.31402e-11
5.94477e-11
-6.31832e-11
2.79946e-08
5.63924e-11
-6.62818e-11
2.80066e-08
-6.8792e-11
2.80115e-08
4.92133e-11
2.78942e-08
-6.47085e-11
-3.5583e-11
5.44763e-11
2.79615e-08
-7.47228e-11
5.61906e-11
2.79884e-08
-8.09996e-11
2.79995e-08
-9.18271e-11
4.97204e-11
-1.60463e-11
2.80007e-08
-4.75722e-11
4.96823e-11
-2.08756e-11
2.80188e-08
4.84565e-11
-2.37741e-11
2.80217e-08
-2.52564e-11
2.80203e-08
4.3824e-11
-2.67236e-11
2.79872e-08
-3.75918e-11
4.63334e-11
-3.10546e-11
2.8013e-08
4.68009e-11
-3.30375e-11
2.80199e-08
-3.38509e-11
2.802e-08
4.14611e-11
-3.20323e-11
2.79579e-08
-3.55731e-11
4.49354e-11
-3.83496e-11
2.79985e-08
4.68392e-11
-4.11397e-11
2.8013e-08
-4.33919e-11
2.80158e-08
3.5689e-11
2.78889e-08
-3.64404e-11
-2.59013e-11
4.1288e-11
2.79596e-08
-4.18972e-11
4.55633e-11
2.79892e-08
-4.61049e-11
2.79986e-08
-5.21112e-11
3.55426e-11
-1.33404e-11
2.79993e-08
-3.22339e-11
3.74735e-11
-1.64331e-11
2.80199e-08
3.84353e-11
-1.83688e-11
2.80243e-08
-1.94437e-11
2.80225e-08
3.22916e-11
-1.78206e-11
2.79867e-08
-2.72384e-11
3.5417e-11
-2.09155e-11
2.80144e-08
3.73437e-11
-2.26974e-11
2.80224e-08
-2.36576e-11
2.80221e-08
3.00568e-11
-1.97785e-11
2.79548e-08
-2.49116e-11
3.38852e-11
-2.37743e-11
2.79976e-08
3.66949e-11
-2.60151e-11
2.80136e-08
-2.76922e-11
2.80165e-08
2.62839e-11
2.78832e-08
-2.08905e-11
-1.92511e-11
3.12903e-11
2.79553e-08
-2.43016e-11
3.53581e-11
2.79864e-08
-2.72026e-11
2.79959e-08
-3.05755e-11
2.56013e-11
-1.05224e-11
2.79969e-08
-2.24397e-11
2.78138e-11
-1.24415e-11
2.80192e-08
2.91488e-11
-1.36631e-11
2.80248e-08
-1.43378e-11
2.80236e-08
2.37755e-11
-1.21506e-11
2.79844e-08
-1.98438e-11
2.65848e-11
-1.42678e-11
2.80134e-08
2.84826e-11
-1.56089e-11
2.80225e-08
-1.63984e-11
2.80228e-08
2.20419e-11
-1.25482e-11
2.79512e-08
-1.79111e-11
2.53238e-11
-1.51011e-11
2.79952e-08
2.78146e-11
-1.67648e-11
2.80123e-08
-1.79742e-11
2.80159e-08
1.95817e-11
2.7878e-08
-1.22611e-11
-1.45723e-11
2.3514e-11
2.7951e-08
-1.44922e-11
2.67167e-11
2.79831e-08
-1.65467e-11
2.79932e-08
-1.85609e-11
1.84628e-11
-8.00881e-12
2.79945e-08
-1.58526e-11
2.03727e-11
-9.21358e-12
2.80178e-08
2.15308e-11
-9.98329e-12
2.80244e-08
-1.03951e-11
2.80241e-08
1.737e-11
-8.38969e-12
2.79818e-08
-1.44059e-11
1.96236e-11
-9.8212e-12
2.80117e-08
2.11297e-11
-1.07841e-11
2.80216e-08
-1.13626e-11
2.80227e-08
1.61366e-11
-8.1421e-12
2.79478e-08
-1.29807e-11
1.86912e-11
-9.78931e-12
2.79927e-08
2.05903e-11
-1.09908e-11
2.80106e-08
-1.18617e-11
2.8015e-08
1.45426e-11
2.78737e-08
-7.38584e-12
-1.09514e-11
1.74408e-11
2.79473e-08
-8.84954e-12
1.97568e-11
2.79802e-08
-1.03266e-11
2.79909e-08
-1.16281e-11
1.32084e-11
-5.92089e-12
2.79924e-08
-1.12031e-11
1.47028e-11
-6.70878e-12
2.80165e-08
1.56112e-11
-7.22461e-12
2.80237e-08
-7.51238e-12
2.80242e-08
1.25142e-11
-5.81073e-12
2.79796e-08
-1.03323e-11
1.42141e-11
-6.77237e-12
2.801e-08
1.53345e-11
-7.45071e-12
2.80206e-08
-7.88151e-12
2.80224e-08
1.16619e-11
-5.34605e-12
2.79451e-08
-9.34436e-12
1.35477e-11
-6.43435e-12
2.79905e-08
1.4916e-11
-7.28046e-12
2.8009e-08
-7.91083e-12
2.8014e-08
1.06178e-11
2.78704e-08
-4.52045e-12
-8.07158e-12
1.26837e-11
2.79445e-08
-5.52479e-12
1.42939e-11
2.79779e-08
-6.5704e-12
2.79893e-08
-7.44982e-12
9.23568e-12
-4.20739e-12
2.79907e-08
-7.77288e-12
1.03487e-11
-4.73733e-12
2.80153e-08
1.10608e-11
-5.10993e-12
2.80231e-08
-5.345e-12
2.8024e-08
8.77462e-12
-3.95264e-12
2.79777e-08
-7.22354e-12
9.99637e-12
-4.58857e-12
2.80087e-08
1.08286e-11
-5.06033e-12
2.80197e-08
-5.39977e-12
2.8022e-08
8.2038e-12
-3.48937e-12
2.7943e-08
-6.56047e-12
9.52912e-12
-4.19864e-12
2.79888e-08
1.04961e-11
-4.78303e-12
2.80078e-08
-5.24106e-12
2.80133e-08
7.52368e-12
2.7868e-08
-2.77105e-12
-5.77413e-12
8.93763e-12
2.79424e-08
-3.45376e-12
1.00281e-11
2.79762e-08
-4.18248e-12
2.79881e-08
-4.78745e-12
6.14606e-12
-2.74429e-12
2.79895e-08
-5.14657e-12
6.9276e-12
-3.08755e-12
2.80144e-08
7.47823e-12
-3.35595e-12
2.80225e-08
-3.55415e-12
2.80238e-08
5.84855e-12
-2.50681e-12
2.79764e-08
-4.80594e-12
6.67132e-12
-2.90614e-12
2.80076e-08
7.28328e-12
-3.22146e-12
2.8019e-08
-3.48107e-12
2.80216e-08
5.48674e-12
-2.14894e-12
2.79415e-08
-4.38264e-12
6.3587e-12
-2.58616e-12
2.79876e-08
7.01845e-12
-2.96733e-12
2.80069e-08
-3.29275e-12
2.80127e-08
5.06598e-12
2.78664e-08
-1.59584e-12
-3.95724e-12
5.97053e-12
2.7941e-08
-2.0561e-12
6.67913e-12
2.79751e-08
-2.53884e-12
2.79872e-08
-2.94421e-12
3.73107e-12
-1.39884e-12
2.79888e-08
-3.11666e-12
4.22348e-12
-1.59015e-12
2.80138e-08
4.6091e-12
-1.75713e-12
2.80221e-08
-1.89382e-12
2.80235e-08
3.56672e-12
-1.24931e-12
2.79756e-08
-2.93407e-12
4.06308e-12
-1.4688e-12
2.8007e-08
4.46509e-12
-1.65426e-12
2.80186e-08
-1.82865e-12
2.80213e-08
3.36481e-12
-1.03978e-12
2.79407e-08
-2.70227e-12
3.87804e-12
-1.2738e-12
2.79869e-08
4.28542e-12
-1.49643e-12
2.80063e-08
-1.70739e-12
2.80124e-08
3.12919e-12
2.78655e-08
-7.01758e-13
-2.49092e-12
3.64695e-12
2.79401e-08
-9.67804e-13
4.06824e-12
2.79744e-08
-1.26107e-12
2.79868e-08
-1.51191e-12
1.94933e-12
-2.11163e-13
-1.6326e-12
2.20356e-12
-2.85026e-13
2.40638e-12
-3.51208e-13
-4.16802e-13
1.88925e-12
-1.56203e-13
-1.56695e-12
2.14187e-12
-2.49181e-13
2.34555e-12
-3.28518e-13
-4.13921e-13
1.8004e-12
-8.24784e-14
-1.4747e-12
2.05985e-12
-1.97394e-13
2.26016e-12
-2.95658e-13
-4.00358e-13
1.69644e-12
3.59584e-14
-1.39139e-12
1.94866e-12
-1.03228e-13
2.14836e-12
-2.3682e-13
-3.67579e-13
-4.33872e-09
-1.14857e-09
2.86335e-08
-1.09144e-09
1.47308e-10
-2.38448e-10
1.76464e-08
-4.88867e-09
-3.49213e-09
3.94329e-08
4.05715e-11
2.03726e-08
-2.20877e-09
1.18043e-09
1.93028e-08
7.57303e-10
-5.58772e-10
7.6313e-09
1.67827e-08
-6.29785e-10
5.70154e-09
2.16272e-08
2.53185e-09
2.93781e-08
2.25062e-10
5.93512e-09
1.8645e-08
-5.60978e-11
-1.48611e-09
-3.10878e-09
4.21835e-08
-2.53884e-09
4.03161e-09
3.73707e-08
-5.56765e-10
3.43787e-08
-2.4871e-09
3.5288e-08
-1.01689e-10
1.21179e-09
2.66945e-08
-4.37219e-09
4.75993e-08
3.55521e-08
1.46326e-09
4.45969e-09
1.91608e-08
2.11518e-10
-5.24673e-09
6.57938e-10
2.76543e-08
5.12602e-09
2.38149e-09
2.42405e-08
-8.63862e-10
3.51782e-08
4.1394e-10
1.36434e-09
2.277e-08
-7.85825e-10
-7.60914e-10
1.03707e-09
1.75784e-08
2.93839e-09
4.06238e-09
1.6247e-08
-5.36633e-09
3.9673e-08
-2.13046e-10
3.3363e-10
1.84157e-08
1.47309e-09
-1.20082e-10
4.64126e-09
3.84864e-08
-1.86329e-09
-2.68771e-09
4.5864e-08
8.60524e-11
2.67909e-08
8.74321e-10
3.35589e-08
1.13178e-09
-1.93108e-09
3.42868e-08
-1.3124e-10
4.31275e-08
3.19865e-08
1.88584e-09
5.50287e-09
1.06602e-08
6.50236e-10
1.48753e-09
9.51167e-09
2.01549e-08
4.83353e-09
2.12176e-09
1.91074e-08
-2.88475e-11
5.08935e-08
2.37287e-09
3.15165e-09
2.30533e-08
-3.04909e-10
-1.14487e-09
-4.43397e-09
3.50418e-08
2.16498e-10
5.71354e-10
1.6436e-08
-4.62591e-10
4.30469e-08
-1.01439e-09
-1.26088e-09
2.52449e-08
-1.40229e-09
1.85013e-09
5.77379e-10
3.06105e-08
-1.32852e-10
-2.85984e-09
5.12782e-08
3.54011e-09
2.27177e-08
-7.97233e-10
3.28408e-08
-1.04246e-10
6.86841e-10
3.32372e-08
3.13182e-09
3.78951e-08
4.35967e-08
-1.17874e-09
-6.66237e-09
2.50097e-08
-1.50626e-09
4.30337e-10
-6.91495e-10
1.86871e-08
-4.30841e-09
-9.97265e-10
2.5193e-08
-5.35263e-10
3.67524e-08
9.61297e-10
-1.9501e-09
1.75886e-08
-2.08936e-10
1.27116e-09
4.56483e-09
2.94756e-08
-2.45051e-09
4.87889e-10
1.86726e-08
8.09168e-09
2.41287e-08
2.89725e-09
2.92717e-09
1.79188e-08
-4.48406e-10
4.7311e-12
4.65943e-09
3.34084e-08
2.33053e-09
-5.57158e-09
5.50119e-08
4.27497e-10
3.25164e-08
2.54755e-09
3.34087e-08
-1.58149e-10
-2.34211e-09
4.29037e-08
5.29424e-09
2.49923e-08
5.14579e-08
-3.12899e-09
-3.01908e-09
2.27359e-08
-1.31785e-09
-7.044e-10
-2.93043e-09
1.66864e-08
-2.93355e-09
1.30229e-09
2.621e-08
7.18332e-09
1.86277e-08
-6.05333e-10
-1.29796e-09
1.73492e-08
-8.76355e-10
1.18253e-09
1.44349e-09
2.33138e-08
1.9665e-09
4.79108e-11
1.9143e-08
-3.51601e-09
3.96918e-08
5.52323e-10
1.3144e-09
1.48476e-08
-9.34863e-11
1.85251e-09
2.08613e-09
3.14656e-08
1.87759e-09
-2.18245e-09
5.72172e-08
9.93532e-09
2.44744e-08
1.94144e-09
3.44185e-08
-1.70271e-09
1.57645e-10
4.67809e-08
3.53174e-09
1.9334e-08
6.74749e-08
-7.7984e-11
-3.4229e-09
3.01741e-08
-1.68601e-10
-1.7028e-10
-1.34233e-09
2.08439e-08
4.92497e-10
2.1825e-09
2.81989e-08
-9.23829e-10
3.08411e-08
-1.47578e-09
-1.48647e-09
1.64829e-08
4.05665e-10
1.9585e-09
-9.24475e-10
1.94617e-08
-3.36491e-09
-3.52897e-09
3.01779e-08
1.16101e-08
3.43766e-08
-5.90794e-10
-3.27637e-09
1.75511e-08
-3.22852e-10
6.22239e-10
2.71289e-09
2.66153e-08
1.42363e-09
5.8467e-09
4.70401e-08
1.19018e-10
3.99878e-08
1.48115e-09
3.04505e-08
-7.24964e-10
7.29833e-10
5.04965e-08
1.91709e-09
2.34621e-08
6.92701e-08
1.63832e-09
3.78011e-09
2.30514e-08
1.7279e-09
-1.26595e-11
1.27318e-09
2.17052e-08
4.20939e-10
1.22463e-09
2.60303e-08
3.16592e-09
2.78985e-08
-6.29722e-10
4.25849e-10
1.95923e-08
8.74523e-10
-8.22769e-10
-5.38738e-10
2.14666e-08
-8.56706e-11
-4.46323e-10
3.11118e-08
-9.84627e-11
3.40713e-08
-1.11251e-09
-1.92673e-09
2.01705e-08
8.457e-10
-5.21148e-10
-2.09767e-09
2.75829e-08
-7.73274e-10
3.295e-09
4.35509e-08
-8.09087e-10
3.42283e-08
1.0403e-09
2.75722e-08
2.3259e-10
8.21805e-09
4.21282e-08
5.14302e-09
3.01827e-08
7.16061e-08
5.77118e-10
2.22983e-09
2.1393e-08
-2.90107e-10
-4.01659e-10
1.64252e-10
2.23054e-08
9.19844e-11
-1.07191e-10
2.45751e-08
4.01291e-09
2.46046e-08
3.02126e-10
8.9797e-10
2.12445e-08
-6.22065e-10
-5.61191e-10
-1.25717e-09
2.37512e-08
3.8008e-10
7.26463e-10
2.9337e-08
3.0162e-09
3.42134e-08
-7.15885e-11
-3.32172e-10
2.1764e-08
-2.91507e-10
1.13058e-09
-4.08407e-09
2.92077e-08
2.26377e-09
1.21703e-09
4.19276e-08
-1.30793e-08
5.78137e-08
-3.68393e-11
2.72815e-08
-4.30983e-12
1.61372e-09
3.63939e-08
7.54504e-10
3.22591e-08
5.84351e-08
1.2101e-09
2.70318e-10
1.7654e-08
7.51249e-10
6.96631e-10
-1.83916e-09
2.25133e-08
-2.93934e-10
-4.33336e-09
2.59416e-08
-7.33301e-09
2.79591e-08
3.57497e-10
2.36177e-10
2.04588e-08
4.62707e-10
-9.53938e-10
-2.85938e-09
2.60831e-08
-2.71702e-09
-4.0602e-09
3.08272e-08
-1.00702e-08
3.52197e-08
-4.98544e-10
-1.07414e-09
2.31192e-08
4.53984e-10
-2.33331e-09
-2.4329e-09
3.06167e-08
-3.49244e-09
1.82501e-09
3.72026e-08
-2.99946e-09
4.49527e-08
-7.85632e-11
2.58945e-08
3.91671e-10
-5.92151e-10
3.44747e-08
-2.85952e-09
3.63519e-08
4.96566e-08
-8.86421e-11
-1.99638e-10
1.71787e-08
2.64493e-10
-2.30457e-10
-1.41546e-09
2.28125e-08
-5.82281e-10
-2.2887e-09
2.66332e-08
-3.67539e-09
2.89745e-08
-4.57063e-10
9.04098e-11
2.04303e-08
1.9582e-10
-8.44202e-10
-1.44908e-09
2.65042e-08
-1.47555e-09
-1.76503e-09
3.09355e-08
-4.13782e-09
3.44291e-08
-7.82261e-10
3.3506e-10
2.34717e-08
1.85416e-10
-1.29549e-09
-5.83463e-10
3.02649e-08
-1.73182e-09
5.72892e-10
3.53015e-08
-1.78854e-09
4.02949e-08
-7.4814e-10
2.68128e-08
1.65085e-10
-9.46105e-10
3.40895e-08
-1.84585e-09
3.7825e-08
4.48637e-08
5.11033e-11
-6.00653e-10
1.67658e-08
1.72566e-10
5.98726e-11
-9.50929e-10
2.28464e-08
-1.51111e-10
-1.19263e-09
2.70159e-08
-1.77598e-09
2.93841e-08
-6.56827e-11
-4.47453e-10
2.0174e-08
1.68904e-10
-1.41089e-10
-9.29754e-10
2.65587e-08
-4.56995e-10
-9.9564e-10
3.10548e-08
-1.93107e-09
3.39805e-08
-1.78346e-10
-4.08154e-10
2.34449e-08
1.65977e-10
-2.91936e-10
-7.33272e-10
3.01824e-08
-5.99604e-10
-2.98079e-10
3.49122e-08
-1.21766e-09
3.85539e-08
-1.91713e-10
2.64477e-08
1.48751e-10
-2.65048e-10
3.34298e-08
-6.48161e-10
3.79104e-08
4.23968e-08
-8.85557e-11
-3.22147e-10
1.6747e-08
9.84688e-11
-6.31265e-11
-5.24882e-10
2.28912e-08
-8.75743e-11
-6.33705e-10
2.7146e-08
-8.97134e-10
2.94388e-08
-1.57481e-10
-2.21921e-10
2.01307e-08
1.00813e-10
-1.50253e-10
-4.63874e-10
2.64906e-08
-2.07205e-10
-5.01595e-10
3.09799e-08
-9.07747e-10
3.35751e-08
-2.04434e-10
-6.1216e-11
2.3389e-08
9.97239e-11
-2.10892e-10
-2.3071e-10
2.9956e-08
-2.82824e-10
-1.4015e-10
3.46231e-08
-5.21715e-10
3.75776e-08
-2.18875e-10
2.65111e-08
9.43547e-11
-2.27768e-10
3.32081e-08
-3.19133e-10
3.78618e-08
4.11947e-08
-3.28392e-11
-2.08449e-10
1.67211e-08
5.04194e-11
-9.08096e-12
-2.87385e-10
2.28978e-08
3.75106e-12
-3.28442e-10
2.71838e-08
-4.405e-10
2.94291e-08
-6.15952e-11
-1.62745e-10
2.00928e-08
5.40606e-11
-4.31141e-11
-2.57432e-10
2.64424e-08
-4.47096e-11
-2.7357e-10
3.09269e-08
-4.40384e-10
3.33628e-08
-8.12451e-11
-9.78564e-11
2.33506e-08
5.49974e-11
-6.81017e-11
-1.6244e-10
2.98481e-08
-8.16645e-11
-1.27676e-10
3.44911e-08
-2.81373e-10
3.71349e-08
-8.81048e-11
2.64488e-08
5.27261e-11
-8.02229e-11
3.3038e-08
-1.00983e-10
3.77551e-08
4.05969e-08
-1.43953e-11
-1.14183e-10
1.67091e-08
2.49042e-11
1.02056e-11
-1.53303e-10
2.28901e-08
3.15402e-11
-1.70282e-10
2.71854e-08
-2.20737e-10
2.94057e-08
-2.95086e-11
-8.91787e-11
2.00708e-08
2.67513e-11
-8.96665e-12
-1.35431e-10
2.64041e-08
1.08161e-11
-1.45431e-10
3.08826e-08
-2.16923e-10
3.32489e-08
-3.92226e-11
-4.75989e-11
2.33209e-08
2.75714e-11
-2.05991e-11
-8.24646e-11
2.97768e-08
-6.71346e-12
-7.70687e-11
3.44092e-08
-1.41711e-10
3.69208e-08
-4.46475e-11
2.64186e-08
2.7312e-11
-2.98558e-11
3.29409e-08
-1.95379e-11
3.76679e-08
4.0302e-08
-1.65665e-12
-6.47102e-11
1.67003e-08
1.07625e-11
1.74533e-11
-8.36601e-11
2.28801e-08
3.62193e-11
-9.19088e-11
2.71777e-08
-1.14791e-10
2.93853e-08
-8.92526e-12
-5.18578e-11
2.00555e-08
1.1581e-11
8.79253e-12
-7.44924e-11
2.63774e-08
2.59478e-11
-7.87148e-11
3.08525e-08
-1.1093e-10
3.31867e-08
-1.37938e-11
-2.94938e-11
2.33002e-08
1.22287e-11
1.5658e-12
-4.58726e-11
2.97331e-08
1.80835e-11
-4.43376e-11
3.43586e-08
-7.22069e-11
3.68126e-08
-1.69069e-11
2.63938e-08
1.23961e-11
-4.68165e-12
3.2883e-08
1.1126e-11
3.76079e-08
4.01553e-08
4.73149e-12
-3.71204e-11
1.66932e-08
3.25018e-12
1.88605e-11
-4.67228e-11
2.2871e-08
3.36853e-11
-5.16293e-11
2.71686e-08
-6.19109e-11
2.93712e-08
2.71996e-13
-2.99735e-11
2.00445e-08
3.78604e-12
1.37683e-11
-4.1809e-11
2.63591e-08
2.77249e-11
-4.45733e-11
3.08316e-08
-5.83976e-11
3.31522e-08
-2.1888e-12
-1.71462e-11
2.32855e-08
4.21438e-12
9.32961e-12
-2.55335e-11
2.97055e-08
2.23631e-11
-2.59094e-11
3.43271e-08
-3.77567e-11
3.67555e-08
-4.26033e-12
2.63765e-08
4.54942e-12
5.68521e-12
3.28477e-08
1.78571e-11
3.757e-08
4.0079e-08
6.77546e-12
-2.18073e-11
1.66876e-08
-1.20482e-13
1.6914e-11
-2.68822e-11
2.28636e-08
2.74997e-11
-2.98798e-11
2.71608e-08
-3.49384e-11
2.93616e-08
4.28597e-12
-1.78792e-11
2.00364e-08
1.40158e-13
1.39345e-11
-2.38934e-11
2.63466e-08
2.46097e-11
-2.6049e-11
3.08173e-08
-3.20981e-11
3.31327e-08
2.78864e-12
-1.03629e-11
2.3275e-08
3.89195e-13
1.16384e-11
-1.46716e-11
2.96876e-08
2.15258e-11
-1.5352e-11
3.43067e-08
-2.03792e-11
3.67249e-08
1.39124e-12
2.63641e-08
7.17204e-13
9.12397e-12
3.28254e-08
1.84855e-11
3.75454e-08
4.0039e-08
6.72911e-12
-1.31475e-11
1.66833e-08
-1.50414e-12
1.40054e-11
-1.60119e-11
2.2858e-08
2.15596e-11
-1.80327e-11
2.71549e-08
-2.03505e-11
2.93553e-08
5.19683e-12
-1.0903e-11
2.00304e-08
-1.31977e-12
1.20625e-11
-1.4178e-11
2.6338e-08
1.93893e-11
-1.56583e-11
3.08077e-08
-1.82797e-11
3.31211e-08
4.32394e-12
-6.37175e-12
2.32674e-08
-1.16225e-12
1.0569e-11
-8.65846e-12
2.96759e-08
1.74214e-11
-9.28336e-12
3.42936e-08
-1.1425e-11
3.67075e-08
3.3794e-12
2.63553e-08
-9.1525e-13
8.89691e-12
3.28113e-08
1.5306e-11
3.75298e-08
4.00167e-08
5.80901e-12
-8.14216e-12
1.66801e-08
-1.84387e-12
1.10464e-11
-9.82009e-12
2.28538e-08
1.63334e-11
-1.1162e-11
2.71505e-08
-1.23132e-11
2.93511e-08
4.88013e-12
-6.82204e-12
2.00261e-08
-1.7334e-12
9.76964e-12
-8.67536e-12
2.63321e-08
1.49152e-11
-9.67496e-12
3.08012e-08
-1.07841e-11
3.3114e-08
4.35437e-12
-4.01026e-12
2.32621e-08
-1.64974e-12
8.78386e-12
-5.2562e-12
2.96682e-08
1.35621e-11
-5.72811e-12
3.4285e-08
-6.62379e-12
3.66974e-08
3.68889e-12
2.63491e-08
-1.44501e-12
7.64175e-12
3.28021e-08
1.21177e-11
3.75197e-08
4.00041e-08
4.65925e-12
-5.14707e-12
1.66778e-08
-1.71286e-12
8.35478e-12
-6.16018e-12
2.28508e-08
1.199e-11
-7.03809e-12
2.71474e-08
-7.6719e-12
2.93483e-08
4.05414e-12
-4.3404e-12
2.0023e-08
-1.64436e-12
7.50182e-12
-5.43408e-12
2.6328e-08
1.10507e-11
-6.07478e-12
3.07968e-08
-6.57115e-12
3.31096e-08
3.74176e-12
-2.56361e-12
2.32583e-08
-1.59556e-12
6.84839e-12
-3.26697e-12
2.96631e-08
1.01518e-11
-3.58494e-12
3.42793e-08
-3.95841e-12
3.66914e-08
3.28563e-12
2.63448e-08
-1.45156e-12
6.05951e-12
3.27961e-08
9.14715e-12
3.75131e-08
3.99968e-08
3.50105e-12
-3.25866e-12
1.66761e-08
-1.39279e-12
6.0412e-12
-3.8719e-12
2.28488e-08
8.48474e-12
-4.44605e-12
2.71453e-08
-4.82449e-12
2.93464e-08
3.11613e-12
-2.76754e-12
2.00209e-08
-1.35448e-12
5.48024e-12
-3.41287e-12
2.63252e-08
7.85938e-12
-3.81681e-12
3.07938e-08
-4.05715e-12
3.31069e-08
2.92092e-12
-1.64335e-12
2.32557e-08
-1.32416e-12
5.04868e-12
-2.0341e-12
2.96596e-08
7.26359e-12
-2.24091e-12
3.42756e-08
-2.40153e-12
3.66878e-08
2.59687e-12
2.63418e-08
-1.22442e-12
4.50977e-12
3.27922e-08
6.57339e-12
3.75088e-08
3.99924e-08
2.46406e-12
-1.97175e-12
1.66751e-08
-1.02877e-12
4.11876e-12
-2.32726e-12
2.28474e-08
5.68444e-12
-2.69283e-12
2.71439e-08
-2.92576e-12
2.93453e-08
2.22057e-12
-1.69226e-12
2.00195e-08
-1.01256e-12
3.76443e-12
-2.05816e-12
2.63235e-08
5.27906e-12
-2.30478e-12
3.0792e-08
-2.4286e-12
3.31052e-08
2.0936e-12
-1.00382e-12
2.3254e-08
-9.96655e-13
3.48754e-12
-1.22622e-12
2.96575e-08
4.89476e-12
-1.35041e-12
3.42733e-08
-1.42071e-12
3.66856e-08
1.88777e-12
2.63399e-08
-9.28779e-13
3.13544e-12
3.27897e-08
4.44151e-12
3.75061e-08
3.99899e-08
1.62406e-12
-9.7556e-13
1.66744e-08
-7.50691e-13
2.60132e-12
-1.16599e-12
2.28466e-08
3.4991e-12
-1.37022e-12
2.71431e-08
-1.50588e-12
2.93446e-08
1.48522e-12
-8.69334e-13
2.00187e-08
-7.39241e-13
2.38981e-12
-1.05654e-12
2.63225e-08
3.2529e-12
-1.18641e-12
3.0791e-08
-1.24764e-12
3.31043e-08
1.40864e-12
-5.25312e-13
2.3253e-08
-7.27255e-13
2.22446e-12
-6.39149e-13
2.96563e-08
3.02271e-12
-7.01008e-13
3.42721e-08
-7.29395e-13
3.66845e-08
1.28873e-12
2.63388e-08
-6.87274e-13
2.01769e-12
3.27884e-08
2.75565e-12
3.75047e-08
3.99886e-08
1.03089e-12
-1.75925e-13
-5.73339e-13
1.50196e-12
-2.59844e-13
1.90853e-12
-3.46091e-13
-4.05756e-13
9.58424e-13
-2.14498e-13
-5.7506e-13
1.39491e-12
-2.8851e-13
1.78087e-12
-3.38209e-13
-3.58752e-13
9.16843e-13
-1.42481e-13
-5.65042e-13
1.31102e-12
-1.86093e-13
1.6673e-12
-2.10886e-13
-2.2031e-13
8.68647e-13
-5.52312e-13
1.22477e-12
1.55315e-12
5.84606e-09
2.13468e-09
3.76623e-08
-9.97159e-09
6.41467e-10
5.82964e-08
2.5098e-09
2.42787e-09
1.64741e-08
3.43954e-09
2.80618e-08
2.07729e-10
5.8341e-09
3.43277e-08
-3.78182e-09
4.16748e-09
3.52824e-08
8.51798e-10
2.36697e-09
2.61285e-08
4.15918e-09
2.75974e-08
-1.24316e-08
-3.28829e-09
5.46261e-08
-7.15665e-09
-1.3362e-09
2.8499e-08
-1.12432e-10
1.5232e-09
1.96634e-08
-5.87856e-10
3.26588e-08
-2.47576e-09
2.61285e-08
1.64726e-09
1.8218e-08
-4.46686e-09
2.82639e-08
1.19497e-08
1.90917e-09
-6.32986e-10
3.71067e-08
-3.3754e-09
-1.71122e-09
7.06878e-08
-3.62992e-10
-1.36198e-10
1.73297e-08
-2.12907e-09
3.23782e-08
-9.90385e-10
1.46337e-09
3.29719e-08
-2.47752e-09
-1.16074e-09
3.6219e-08
-6.12122e-09
-1.01851e-09
3.06545e-08
1.23539e-09
1.63213e-08
-9.87376e-09
-9.66526e-10
6.70344e-08
-5.81927e-10
2.21536e-09
1.58311e-08
-4.55857e-09
-3.84312e-10
2.30059e-08
2.00785e-09
2.62869e-08
2.1962e-09
2.41042e-08
-9.95246e-09
3.40551e-08
4.28855e-10
1.67125e-08
1.29611e-08
-1.72747e-09
-5.64621e-09
4.22496e-08
-9.40963e-10
-2.27665e-09
7.82289e-08
-2.99141e-09
-1.52894e-09
2.33659e-08
-4.31252e-09
4.18434e-08
8.43357e-09
1.59885e-09
1.76005e-08
-1.53468e-09
6.49984e-10
4.32606e-08
-3.57675e-09
-2.27387e-09
3.34415e-08
4.70052e-10
8.13531e-09
9.94472e-09
1.65465e-09
5.76614e-08
-3.70172e-09
-1.73689e-09
3.18644e-08
6.89088e-10
9.0545e-11
1.62507e-08
-1.36052e-09
3.12919e-08
-3.31926e-09
2.86906e-08
-1.83801e-10
2.77805e-08
-3.85399e-09
2.01683e-08
1.10364e-08
-1.00045e-08
6.49656e-10
4.91358e-08
3.58922e-09
2.42576e-09
5.60335e-08
-2.94422e-10
1.14966e-09
2.21723e-08
1.30448e-09
3.86397e-08
-7.01168e-09
-5.49506e-09
3.08212e-08
2.54355e-09
6.80723e-10
3.54505e-08
6.93025e-11
-1.52416e-09
3.85896e-08
-1.17334e-09
1.44992e-08
1.22442e-08
1.51747e-09
3.69878e-08
1.86358e-09
-2.66366e-09
4.55894e-08
4.40642e-09
-1.38491e-10
1.23222e-08
-1.49421e-09
3.94049e-08
-4.14396e-09
3.4312e-08
2.97176e-09
1.75527e-08
1.275e-09
2.15176e-08
1.08298e-08
3.65481e-09
-5.69492e-10
4.84169e-08
-3.29644e-09
-2.57616e-09
6.59019e-08
3.34445e-10
-1.60556e-09
1.77307e-08
-1.59022e-09
3.7679e-08
-2.37553e-09
-4.42413e-09
3.7078e-08
-2.62575e-09
-2.87334e-09
3.59979e-08
-1.23016e-11
-4.10949e-10
3.47815e-08
-1.41274e-09
1.55806e-08
3.92477e-09
-8.12933e-10
2.94298e-08
3.15738e-09
-1.44076e-09
4.49242e-08
-2.05782e-09
-1.98265e-09
1.91091e-08