/*--------------------------------*- C++ -*----------------------------------*\
| =========                 |                                                 |
| \\      /  F ield         | OpenFOAM: The Open Source CFD Toolbox           |
|  \\    /   O peration     | Version:  2506                                  |
|   \\  /    A nd           | Website:  www.openfoam.com                      |
|    \\/     M anipulation  |                                                 |
\*---------------------------------------------------------------------------*/
FoamFile
{
    version     2.0;
    format      ascii;
    arch        "LSB;label=32;scalar=64";
    class       volVectorField;
    location    "0.04";
    object      stored_U;
}
// * * * * * * * * * * * * * * * * * * * * * * * * * * * * * * * * * * * * * //

dimensions      [0 1 -1 0 0 0 0];

internalField   nonuniform List<vector> 
1152
(
(-0.000393679 0.00043385 0.00930943)
(0.000414745 -0.000291002 0.00698587)
(0.00375568 -0.000666966 0.010979)
(0.00192489 -0.00034816 0.0153118)
(-0.0007748 0.0015631 0.0202034)
(-0.000747346 0.00125382 0.015689)
(0.000227152 -0.000360025 0.0105711)
(0.000224115 -0.000475983 0.00192925)
(-0.00130371 0.000853108 0.0105914)
(-0.000843099 0.00120969 0.0141897)
(0.000794618 0.000744768 0.0118911)
(0.000286242 0.000652006 0.0229997)
(-0.00102161 0.00217619 0.0150621)
(-0.00144781 0.00101184 0.0155635)
(-0.000665785 0.00157946 0.0121941)
(0.000495538 -0.000695593 0.0149044)
(-7.05763e-05 0.000653363 0.0238517)
(5.27107e-05 0.000769539 0.00900024)
(0.00875679 0.000690588 0.018093)
(-0.000149046 -2.96552e-07 0.00059303)
(0.000577934 -0.00013638 0.0109894)
(-0.000239877 -0.000648006 0.0156004)
(0.000206651 -0.000388269 0.0216478)
(-0.00264676 -0.00970776 0.0176047)
(0.000110249 0.000537324 0.0160805)
(0.000153722 -0.00055818 0.0138901)
(-0.00052559 5.49285e-05 0.00511583)
(0.000559889 -0.00222939 0.0256658)
(-0.000428922 9.85726e-05 0.0118531)
(-0.00124889 0.00111066 0.0224371)
(-0.000780268 -0.001011 0.0150216)
(0.000411368 0.00170556 0.00801973)
(-0.000927032 0.000428765 0.01306)
(-0.00136796 -0.000513044 0.0164103)
(-0.00266412 -0.000620903 0.0193035)
(-0.00426336 -0.00808696 0.0321524)
(-0.000145831 -0.00160698 0.0371292)
(-0.000984167 -0.000120318 0.0300774)
(-0.000273965 0.000188498 0.00298953)
(0.000115408 0.00299369 0.0254827)
(-0.000996342 -0.00030365 0.0152512)
(0.000849194 -0.000344172 0.0223854)
(-0.000133163 0.00127952 0.0298538)
(0.0003782 0.00135353 0.0187226)
(-0.00106524 0.000347067 0.0424862)
(0.000340033 5.27659e-05 0.00832425)
(0.0010552 0.000242149 0.024209)
(0.000242808 0.000898807 0.0116654)
(0.00022815 -0.00395931 0.0290969)
(-7.56699e-05 6.91078e-05 0.0023586)
(-0.000811031 -0.00016638 0.0165815)
(-0.000353519 -0.00104221 0.0144575)
(-0.00163232 -0.000229077 0.0215303)
(0.000601887 -0.000394715 0.019678)
(3.41311e-05 -0.000645218 0.0228873)
(0.000790262 0.00122768 0.0217496)
(-9.94166e-05 0.000152526 0.00379558)
(-0.000348197 0.00119705 0.0153779)
(0.00065807 0.000643689 0.016114)
(0.00115211 0.00127508 0.0262891)
(0.000358564 0.000972526 0.0112643)
(0.0012207 0.000901132 0.0205753)
(-0.000357929 0.00164181 0.0196063)
(-1.02417e-05 -0.000193199 0.00191951)
(-6.49653e-05 1.85099e-05 0.00202117)
(-0.00262907 0.000399327 0.0221223)
(-0.00163139 -0.000671373 0.0251222)
(0.00514904 0.00457081 0.0407697)
(-0.000805009 -0.000559194 0.0238962)
(-0.0015165 0.000373545 0.0224928)
(-0.000361052 0.00091337 0.015659)
(0.000965764 0.00017594 0.00928573)
(0.000361742 0.00107376 0.0131067)
(-0.000715302 0.00120949 0.0212753)
(-0.000714052 0.0010979 0.0141903)
(-0.00105921 0.00185868 0.0376717)
(0.00180529 -0.000960471 0.0277637)
(-0.00105918 -9.85773e-05 0.0178291)
(-0.000572165 0.000299197 0.0250624)
(0.00046717 0.000410628 0.00753497)
(-0.00308433 -0.000635239 0.0231067)
(-0.000585699 4.72669e-05 0.00862818)
(-0.000613928 0.000508959 0.00849655)
(-0.000140434 0.000124671 0.00150534)
(-0.000823282 0.00054872 0.0120658)
(-0.00120078 3.37008e-05 0.0127622)
(-0.000290658 -0.000152343 0.00568159)
(-0.000811749 3.0429e-05 0.0146746)
(-0.000312354 -0.000189039 0.00924543)
(-0.00162761 -0.000138917 0.0106268)
(-0.00180773 -0.00119538 0.0203297)
(0.00032198 0.000935515 0.00734101)
(-0.00429531 0.00135686 0.0281174)
(-0.00197974 0.000978909 0.0154384)
(0.00145088 0.00166982 0.0141815)
(-1.88014e-07 8.20301e-05 0.00135789)
(0.000100299 6.32024e-05 0.00886419)
(-4.62847e-05 0.000103826 0.0108535)
(-0.000239965 -0.000189904 0.0130296)
(0.000792287 8.84717e-05 0.0165332)
(-0.000641839 0.000408455 0.0143045)
(-1.98718e-05 -1.03509e-05 0.0116345)
(-0.000159373 -2.18149e-05 0.0087116)
(-0.000243766 0.000156558 0.0103299)
(-0.000207223 0.000113997 0.0117664)
(-0.00022522 -9.40852e-05 0.0127441)
(-0.000234286 2.72246e-05 0.00935646)
(-8.89849e-05 -5.99118e-05 0.0153848)
(-0.000115706 -0.00031741 0.0176935)
(3.30411e-05 -0.000167255 0.0102574)
(-0.000270352 -0.000154486 0.00602523)
(0.000960036 0.000718144 0.00469154)
(0.00130704 0.000467802 0.0162895)
(0.00091733 0.000138811 0.0151679)
(0.00055551 -3.15093e-05 0.0169007)
(0.000533688 -2.55123e-05 0.0267144)
(0.000511484 0.00051584 0.0175029)
(0.000711674 0.00010342 0.0161758)
(0.000371616 -0.000126163 0.0129323)
(-1.65342e-05 -0.000309265 0.0177659)
(0.000290378 0.000177933 0.0191652)
(0.000322262 1.89682e-05 0.0178556)
(1.44425e-05 -0.000285728 0.0163)
(-0.000143618 -0.000579579 0.0188433)
(8.7327e-05 -8.91135e-05 0.0242527)
(0.000131902 -0.000213961 0.0168929)
(-0.000420538 -0.000489603 0.0108971)
(-0.000653591 -0.000593731 0.0137396)
(0.000367355 9.84209e-05 0.00435558)
(0.000129322 1.41011e-05 0.00377327)
(-0.000976447 -1.48999e-05 0.00385309)
(-0.000528095 0.000823765 0.00543268)
(-3.12825e-06 -0.000518599 0.0043708)
(0.000430302 -0.000341181 0.00389732)
(-0.000456484 -7.32256e-05 0.00338957)
(-0.000965279 0.000603943 0.00431403)
(0.000332512 -0.000905835 0.00484764)
(0.000498978 -0.000419704 0.0042416)
(-0.000137365 -0.000144866 0.00376476)
(-0.000232061 0.000343288 0.00419973)
(0.000374238 -0.000803675 0.00558782)
(0.00105943 -0.000586583 0.00419521)
(0.000168005 -0.000573842 0.00325427)
(-0.000183764 -0.000351256 0.00343266)
(0.000249034 7.2648e-05 0.0103224)
(0.000118014 6.17005e-05 0.0101856)
(-0.00038483 5.28402e-05 0.0102845)
(-0.000327087 0.000306164 0.0112358)
(7.97486e-05 -0.000157754 0.0103419)
(0.000166839 -0.000117083 0.0101707)
(-0.000233027 -2.67612e-05 0.00999395)
(-0.00043811 0.000229301 0.010651)
(0.000163851 -0.000327566 0.01072)
(0.000204262 -0.000220983 0.0104172)
(-8.84945e-05 -0.00013495 0.0102243)
(-0.000169242 6.82449e-05 0.0104963)
(4.62178e-05 -0.00025986 0.011015)
(0.000296221 -0.000324046 0.0104163)
(-1.06876e-05 -0.000369458 0.00996304)
(-0.000119228 -0.000328827 0.0101113)
(9.8531e-05 4.02728e-07 0.00884688)
(4.15199e-05 8.07559e-06 0.00877187)
(-0.000148064 7.80094e-06 0.00878791)
(-0.000150587 7.4248e-05 0.00911023)
(4.59073e-05 -0.000117437 0.00879639)
(5.24675e-05 -8.85099e-05 0.00872367)
(-0.000106467 -4.78614e-05 0.00867933)
(-0.000177422 3.90538e-05 0.00891944)
(0.000107556 -0.000233308 0.00890217)
(9.66167e-05 -0.000176935 0.00879719)
(-3.74656e-05 -0.00012642 0.00874142)
(-8.20625e-05 -4.4405e-05 0.00885735)
(9.61511e-05 -0.000253148 0.00893715)
(0.000136281 -0.000251738 0.00879886)
(9.42858e-07 -0.000242877 0.00869597)
(-4.37614e-05 -0.000228065 0.00877763)
(4.92453e-05 -7.48696e-06 0.0092546)
(2.13523e-05 -8.31814e-06 0.00923591)
(-4.89818e-05 -1.22392e-05 0.00924511)
(-5.64876e-05 1.85841e-06 0.00935613)
(2.15051e-05 -5.47825e-05 0.0092353)
(1.54176e-05 -5.27031e-05 0.00921763)
(-4.29083e-05 -4.30939e-05 0.00921245)
(-6.4496e-05 -1.97436e-05 0.00930207)
(3.75708e-05 -0.000104252 0.00929056)
(2.91998e-05 -9.95665e-05 0.00925515)
(-2.07197e-05 -8.77196e-05 0.00923858)
(-3.36946e-05 -6.45515e-05 0.00928791)
(6.99008e-06 -0.000111948 0.00931899)
(2.43183e-05 -0.000135583 0.00927662)
(-1.56129e-05 -0.000143626 0.0092455)
(-1.66084e-05 -0.000147412 0.00928181)
(2.6438e-05 -1.43352e-05 0.009274)
(1.39902e-05 -1.72456e-05 0.00927187)
(-1.17814e-05 -2.0722e-05 0.00927688)
(-1.62576e-05 -1.91844e-05 0.00931497)
(1.29709e-05 -3.75673e-05 0.00926151)
(8.09515e-06 -3.95711e-05 0.00926396)
(-1.28138e-05 -3.80607e-05 0.00926811)
(-1.88231e-05 -3.24142e-05 0.00930169)
(1.92292e-05 -6.4586e-05 0.00927639)
(1.28023e-05 -6.47885e-05 0.00927746)
(-5.76381e-06 -6.1674e-05 0.00927897)
(-8.76986e-06 -5.5335e-05 0.00930211)
(6.02577e-06 -7.35493e-05 0.00926981)
(8.25714e-06 -8.32744e-05 0.00928302)
(-5.7047e-06 -8.64537e-05 0.00928724)
(-1.63749e-06 -9.0552e-05 0.00930918)
(1.49386e-05 -1.56072e-05 0.00929307)
(9.67174e-06 -1.84769e-05 0.00929651)
(7.03281e-07 -2.10111e-05 0.00929963)
(-9.16387e-07 -2.17945e-05 0.00931278)
(7.66085e-06 -2.65022e-05 0.00928696)
(5.36894e-06 -2.93898e-05 0.00929449)
(-1.09147e-06 -3.0264e-05 0.00929899)
(-2.05965e-06 -2.9375e-05 0.0093119)
(8.88027e-06 -3.93607e-05 0.00928989)
(5.874e-06 -4.15963e-05 0.00929999)
(4.46309e-07 -4.16955e-05 0.00930498)
(1.24483e-06 -4.05935e-05 0.00931549)
(1.06272e-06 -4.38003e-05 0.009278)
(2.10334e-06 -4.96637e-05 0.00929932)
(-8.53059e-07 -5.19013e-05 0.00930889)
(3.96676e-06 -5.50574e-05 0.00932076)
(9.13869e-06 -1.42971e-05 0.00930231)
(7.07347e-06 -1.63627e-05 0.0093082)
(4.21658e-06 -1.80106e-05 0.00931081)
(3.92034e-06 -1.89468e-05 0.00931529)
(5.09642e-06 -1.94852e-05 0.00929863)
(4.41077e-06 -2.17678e-05 0.00930805)
(2.87786e-06 -2.28981e-05 0.00931231)
(3.34207e-06 -2.30797e-05 0.00931728)
(4.81824e-06 -2.54099e-05 0.00929512)
(3.72168e-06 -2.73936e-05 0.00930889)
(2.82177e-06 -2.82115e-05 0.00931516)
(4.3904e-06 -2.83137e-05 0.00932025)
(5.61713e-07 -2.73183e-05 0.0092781)
(1.26618e-06 -3.05289e-05 0.00930272)
(1.66611e-06 -3.21384e-05 0.00931412)
(5.37079e-06 -3.39286e-05 0.00932137)
(5.83838e-06 -1.18229e-05 0.00930639)
(5.2485e-06 -1.32534e-05 0.00931342)
(4.60817e-06 -1.43341e-05 0.00931587)
(4.83144e-06 -1.5019e-05 0.00931743)
(3.70353e-06 -1.43813e-05 0.00930358)
(3.67802e-06 -1.59393e-05 0.00931355)
(3.7312e-06 -1.6843e-05 0.00931749)
(4.48551e-06 -1.72006e-05 0.00931962)
(3.06177e-06 -1.69322e-05 0.00929685)
(2.84188e-06 -1.83881e-05 0.00931174)
(3.32086e-06 -1.91892e-05 0.00931821)
(4.76622e-06 -1.95081e-05 0.00932118)
(6.59245e-07 -1.74286e-05 0.00927693)
(1.28765e-06 -1.93088e-05 0.00930213)
(2.48069e-06 -2.04451e-05 0.00931377)
(5.05656e-06 -2.14343e-05 0.00931897)
(3.91022e-06 -9.31643e-06 0.00930785)
(3.94245e-06 -1.02821e-05 0.00931548)
(4.03145e-06 -1.09909e-05 0.00931795)
(4.36104e-06 -1.14289e-05 0.0093186)
(2.8004e-06 -1.05546e-05 0.00930512)
(3.00059e-06 -1.15864e-05 0.00931531)
(3.4651e-06 -1.2238e-05 0.0093191)
(4.14884e-06 -1.25482e-05 0.00932029)
(2.17777e-06 -1.15563e-05 0.00929662)
(2.29856e-06 -1.25532e-05 0.00931186)
(3.05678e-06 -1.31738e-05 0.00931832)
(4.17023e-06 -1.3469e-05 0.00932055)
(8.20523e-07 -1.14093e-05 0.00927487)
(1.33197e-06 -1.2553e-05 0.0093001)
(2.48468e-06 -1.3328e-05 0.00931169)
(4.20088e-06 -1.39057e-05 0.00931611)
(2.72919e-06 -7.13429e-06 0.00930824)
(2.95555e-06 -7.77792e-06 0.00931619)
(3.23351e-06 -8.23492e-06 0.00931874)
(3.52864e-06 -8.50704e-06 0.00931917)
(2.12877e-06 -7.69571e-06 0.00930528)
(2.36955e-06 -8.37917e-06 0.00931557)
(2.86468e-06 -8.8316e-06 0.00931934)
(3.39542e-06 -9.06591e-06 0.00932028)
(1.63873e-06 -8.00251e-06 0.00929572)
(1.84742e-06 -8.67093e-06 0.00931108)
(2.54016e-06 -9.11756e-06 0.00931754)
(3.34008e-06 -9.35137e-06 0.00931956)
(8.29452e-07 -7.61271e-06 0.00927286)
(1.23671e-06 -8.33183e-06 0.009298)
(2.15062e-06 -8.8653e-06 0.00930952)
(3.28149e-06 -9.22871e-06 0.0093137)
(1.94623e-06 -5.34254e-06 0.00930816)
(2.19213e-06 -5.77077e-06 0.0093163)
(2.47276e-06 -6.06769e-06 0.00931895)
(2.70385e-06 -6.23625e-06 0.00931939)
(1.60105e-06 -5.56638e-06 0.00930491)
(1.81608e-06 -6.02164e-06 0.00931528)
(2.2297e-06 -6.33156e-06 0.00931909)
(2.6161e-06 -6.501e-06 0.00932)
(1.24807e-06 -5.57866e-06 0.00929469)
(1.4471e-06 -6.02569e-06 0.0093101)
(1.99064e-06 -6.33887e-06 0.00931658)
(2.54724e-06 -6.51525e-06 0.00931859)
(7.42e-07 -5.14606e-06 0.00927112)
(1.05217e-06 -5.60717e-06 0.00929619)
(1.72273e-06 -5.97778e-06 0.00930769)
(2.46823e-06 -6.22102e-06 0.00931183)
(1.38824e-06 -3.90547e-06 0.00930793)
(1.59457e-06 -4.19057e-06 0.00931619)
(1.8233e-06 -4.38423e-06 0.00931893)
(1.99144e-06 -4.48987e-06 0.00931944)
(1.17838e-06 -3.97041e-06 0.00930441)
(1.34856e-06 -4.27429e-06 0.00931484)
(1.66195e-06 -4.48488e-06 0.00931871)
(1.9336e-06 -4.60461e-06 0.00931968)
(9.36043e-07 -3.87461e-06 0.00929378)
(1.09484e-06 -4.17339e-06 0.00930921)
(1.49216e-06 -4.3891e-06 0.00931574)
(1.87347e-06 -4.51757e-06 0.00931779)
(6.09057e-07 -3.4922e-06 0.00926975)
(8.35538e-07 -3.78977e-06 0.00929479)
(1.30878e-06 -4.04227e-06 0.0093063)
(1.80109e-06 -4.20883e-06 0.00931047)
(9.66941e-07 -2.75227e-06 0.00930768)
(1.12017e-06 -2.93902e-06 0.00931602)
(1.28825e-06 -3.06206e-06 0.00931884)
(1.40484e-06 -3.12535e-06 0.00931943)
(8.36997e-07 -2.74895e-06 0.00930396)
(9.61069e-07 -2.94782e-06 0.00931443)
(1.18405e-06 -3.08639e-06 0.00931836)
(1.37082e-06 -3.16668e-06 0.0093194)
(6.76806e-07 -2.63193e-06 0.00929305)
(7.93173e-07 -2.82711e-06 0.00930851)
(1.0694e-06 -2.97044e-06 0.00931508)
(1.32588e-06 -3.05895e-06 0.0093172)
(4.67294e-07 -2.33225e-06 0.00926873)
(6.25311e-07 -2.52231e-06 0.00929376)
(9.47549e-07 -2.68909e-06 0.00930529)
(1.26957e-06 -2.80074e-06 0.00930952)
(6.42631e-07 -1.8025e-06 0.00930749)
(7.46981e-07 -1.91798e-06 0.00931588)
(8.61332e-07 -1.99129e-06 0.00931876)
(9.40459e-07 -2.02448e-06 0.00931942)
(5.66137e-07 -1.77606e-06 0.00930361)
(6.50872e-07 -1.89798e-06 0.00931413)
(7.99385e-07 -1.98244e-06 0.0093181)
(9.23666e-07 -2.03079e-06 0.0093192)
(4.67523e-07 -1.67779e-06 0.00929253)
(5.47471e-07 -1.79791e-06 0.00930801)
(7.28749e-07 -1.88701e-06 0.00931461)
(8.93984e-07 -1.94285e-06 0.00931679)
(3.3962e-07 -1.46877e-06 0.00926803)
(4.43912e-07 -1.58537e-06 0.00929306)
(6.51967e-07 -1.68989e-06 0.00930461)
(8.54741e-07 -1.76144e-06 0.00930888)
(4.13246e-07 -9.79407e-07 0.00930736)
(4.81754e-07 -1.04129e-06 0.00931579)
(5.54852e-07 -1.08027e-06 0.00931872)
(6.05484e-07 -1.0935e-06 0.00931943)
(3.74961e-07 -9.54238e-07 0.00930339)
(4.31684e-07 -1.01882e-06 0.00931394)
(5.23291e-07 -1.06405e-06 0.00931795)
(5.97895e-07 -1.08959e-06 0.00931909)
(3.22647e-07 -8.92018e-07 0.00929221)
(3.75813e-07 -9.57235e-07 0.0093077)
(4.84189e-07 -1.00701e-06 0.00931433)
(5.79704e-07 -1.04034e-06 0.00931655)
(2.51589e-07 -7.74418e-07 0.0092676)
(3.17607e-07 -8.38924e-07 0.00929262)
(4.38696e-07 -8.97538e-07 0.00930419)
(5.5349e-07 -9.40897e-07 0.0093085)
(3.00509e-07 -2.53684e-07 0.00930727)
(3.49448e-07 -2.74868e-07 0.00931573)
(3.94281e-07 -2.89183e-07 0.0093187)
(4.24942e-07 -2.94179e-07 0.00931945)
(2.87792e-07 -2.40147e-07 0.00930326)
(3.32097e-07 -2.64376e-07 0.00931382)
(3.81942e-07 -2.82338e-07 0.00931787)
(4.18607e-07 -2.94623e-07 0.00931905)
(2.66601e-07 -2.18909e-07 0.00929202)
(3.08759e-07 -2.45694e-07 0.00930753)
(3.63856e-07 -2.68321e-07 0.00931419)
(4.06535e-07 -2.86559e-07 0.00931644)
(2.36171e-07 -1.83573e-07 0.00926736)
(2.82151e-07 -2.11951e-07 0.0092924)
(3.40102e-07 -2.39513e-07 0.00930399)
(3.88708e-07 -2.63286e-07 0.00930833)
(-0.00164961 0.0011549 0.0204483)
(-0.000487988 -0.000239562 0.00669257)
(-0.00113691 0.000784428 0.0230975)
(0.000210178 9.1161e-05 0.0139261)
(-0.000848736 -0.00015587 0.0097287)
(-0.00122727 0.00135905 0.0125517)
(-0.000234848 0.0007745 0.0112568)
(0.000336929 0.000964632 0.0169102)
(-0.000337552 0.00161758 0.0144881)
(-0.000231049 0.001223 0.0151152)
(-0.00125103 0.0021001 0.015267)
(0.000293735 0.000540949 0.0138877)
(-0.00130706 0.000810028 0.0173571)
(0.000388761 -0.000504351 0.0110229)
(-0.000698274 0.000933543 0.017312)
(-0.000445899 -0.000191817 0.0139709)
(0.00013471 0.00079085 0.0322383)
(-0.00197791 0.00130311 0.0242149)
(0.00146634 0.000209888 0.0135698)
(0.000309498 0.00078867 0.00525533)
(0.000278533 0.00179294 0.0257257)
(-0.000227142 0.000147332 0.00489172)
(0.000915127 0.00156201 0.0124702)
(0.000582373 -0.000948842 0.00752579)
(-0.000355382 -7.4004e-05 0.00833133)
(-0.000292186 0.00174927 0.0332323)
(-0.000371318 0.000656938 0.0195419)
(-0.000227859 -0.00176084 0.0169954)
(0.000153183 -8.7569e-05 0.0218482)
(-0.000296804 0.000454184 0.015013)
(-0.000207178 -0.000665011 0.0209275)
(0.000773994 6.53296e-05 0.0143342)
(-0.000132943 0.000907655 0.00670206)
(0.000990501 0.00406596 0.0246707)
(0.00132194 0.00145211 0.0231372)
(-0.000238118 0.00321501 0.0416958)
(0.00015148 0.00317895 0.0187616)
(0.000635319 0.00121511 0.022769)
(-6.91881e-05 0.00040474 0.0104609)
(-0.000219239 0.000587409 0.0393479)
(-0.0001268 0.000716624 0.0229152)
(0.000482461 -0.000538663 0.0120494)
(0.00173845 5.39855e-05 0.0318584)
(0.000394389 0.000705065 0.0135418)
(7.17265e-05 -0.00014253 0.0242639)
(0.000257279 0.000250674 0.0287271)
(0.00208177 -7.91224e-05 0.0215742)
(-0.000713434 0.0011042 0.0179605)
(0.000541977 0.000744821 0.0202846)
(0.000139727 -0.000242275 0.0134443)
(-0.000127342 5.35444e-05 0.00968872)
(0.00222351 -6.86586e-05 0.0298268)
(0.0016301 -0.00215329 0.0303526)
(0.00146633 0.00160926 0.0332596)
(0.00019057 -4.27936e-05 0.0150038)
(0.00303416 0.00269204 0.0183729)
(0.00135299 0.000954032 0.0239702)
(0.000843403 0.00286813 0.0289707)
(0.00276038 -0.000387192 0.0291508)
(0.00225049 0.00199379 0.0155211)
(0.00140166 0.00140779 0.026508)
(-0.000109659 0.000574581 0.0108669)
(0.00146204 -0.00083035 0.0221765)
(0.00307779 0.000118935 0.0311768)
(0.000817302 -0.00391974 0.041782)
(0.000227555 -0.00161469 0.0230889)
(5.0329e-05 0.000976795 0.0294386)
(0.0032377 0.00363952 0.0216542)
(0.000103017 -0.000325906 0.00433747)
(0.000378553 -0.000179488 0.0123431)
(0.00201521 0.000446162 0.0127489)
(0.00224321 0.00089401 0.0112095)
(0.000241534 -0.000254471 0.00884947)
(0.000937002 0.00109442 0.018894)
(0.00313463 -0.000296146 0.0327469)
(0.00494913 0.000376008 0.0244691)
(0.000937185 0.00115833 0.0237698)
(0.00125326 0.00111593 0.0411043)
(0.000763285 -0.000141609 0.0061664)
(0.00215588 0.00170667 0.0175114)
(-1.47115e-05 -4.05893e-05 0.00134519)
(-0.000181475 0.000150469 0.00606936)
(0.000264586 0.00133087 0.00722828)
(6.99535e-05 -5.56386e-05 0.00385642)
(-0.000218894 -0.00204048 0.0191558)
(0.000702883 -0.00057097 0.0164089)
(2.82577e-05 -9.81304e-05 0.00914582)
(0.00395669 0.00135909 0.0227708)
(0.000363546 -0.000648908 0.0124012)
(-0.000381674 0.000624712 0.0154262)
(0.0018299 6.85245e-05 0.0200791)
(-0.000324704 9.35969e-05 0.000844746)
(0.00153718 2.33782e-05 0.0176303)
(0.000247517 0.000477182 0.00634425)
(0.000351712 0.000580287 0.0095884)
(0.00146819 -0.000524454 0.0257008)
(-0.000156865 0.000597922 0.0154031)
(2.47294e-05 0.00021903 0.0123989)
(0.000164903 -0.000215207 0.0143149)
(0.000316433 -0.000205386 0.0108306)
(-0.000556956 0.000152584 0.0101693)
(-0.00035335 1.83329e-05 0.00935237)
(-0.000722594 -0.000470401 0.0127217)
(-0.00168367 -0.000231795 0.00850384)
(-0.000587072 -0.000832214 0.00933448)
(-0.000311869 -0.000469358 0.0112132)
(-0.0010567 0.000219528 0.0188715)
(-0.00228329 -0.00120971 -0.0207789)
(9.53524e-05 -0.000205481 0.0147637)
(0.000732564 -0.000133452 0.0215392)
(0.00348479 0.000806493 0.00702895)
(-0.00152075 0.00170747 0.0213026)
(-0.00013568 0.000224575 0.0241692)
(-0.000155444 -0.000249726 0.0180169)
(-0.000542895 -0.000616078 0.0175739)
(-0.000500602 -0.000552101 0.0166886)
(-0.000165893 0.000300083 0.01934)
(-0.000257558 -0.000315491 0.0165121)
(-0.000626789 -0.000303856 0.018225)
(-0.00160489 0.000703715 0.021157)
(-0.000182957 -0.000140137 0.0169764)
(-3.61474e-05 -0.000775281 0.0182304)
(0.000274922 0.000180605 0.0242952)
(-0.00153378 -0.00111292 0.0353105)
(-0.000349341 -0.000319723 0.0188105)
(0.000286469 -0.000375097 0.0196233)
(-8.22425e-05 0.00031672 0.0152945)
(-0.00103853 -0.00181796 0.0280149)
(5.4235e-05 -0.00018827 0.00555827)
(0.000611649 -0.00055939 0.00462236)
(-2.3414e-05 -0.00127187 0.00429667)
(-0.000104087 -0.00161669 0.00426417)
(-0.000241208 5.72247e-05 0.0048328)
(0.000209218 -0.000517227 0.00446924)
(-0.000563517 -0.00123952 0.00455688)
(-0.000789469 -0.00216377 0.00510146)
(-0.000308835 -0.000320536 0.00425857)
(-0.000145369 -0.000710753 0.00479329)
(-0.00120974 -0.000496235 0.00523862)
(-0.000469438 -0.00140562 0.00573463)
(-0.000306945 -0.00041311 0.00425472)
(0.000142577 -0.00020341 0.00520872)
(-0.00106447 0.000149588 0.00411968)
(-0.000433995 -0.000291497 0.00701528)
(-0.000117811 -0.000194648 0.0111143)
(7.50106e-05 -0.000434273 0.0107452)
(-0.000148029 -0.000687631 0.0105657)
(-0.000112691 -0.000886542 0.0106771)
(-0.000257589 -0.000126762 0.0109498)
(-9.85587e-05 -0.000414406 0.0108212)
(-0.000392793 -0.000639829 0.0108759)
(-0.000329477 -0.00103305 0.0114346)
(-0.000351706 -0.000155862 0.0107501)
(-0.000257195 -0.000354469 0.0109753)
(-0.000663956 -0.000258866 0.0112593)
(-0.000268828 -0.0006801 0.0123159)
(-0.000343247 -0.000210829 0.0106601)
(-0.000196162 -0.000158023 0.0110168)
(-0.000700106 -2.74483e-05 0.0107162)
(-0.000285612 -0.000204591 0.0123119)
(1.35182e-05 -0.000228853 0.00893451)
(8.85536e-05 -0.000283035 0.00891585)
(-3.71931e-05 -0.00035498 0.00891402)
(-3.67772e-05 -0.000445896 0.00903223)
(-5.58299e-05 -0.000170561 0.00886051)
(2.95706e-05 -0.000248463 0.00895458)
(-0.000130544 -0.000319039 0.00904335)
(-9.35729e-05 -0.000488041 0.00934829)
(-0.000100033 -0.000169308 0.00874271)
(-2.27122e-05 -0.000215747 0.00896814)
(-0.000229191 -0.00020029 0.00911361)
(-8.61513e-05 -0.000370935 0.00962652)
(-0.000127212 -0.000142691 0.00859431)
(-3.66914e-05 -9.74854e-05 0.00887922)
(-0.000266911 -8.14692e-05 0.00884232)
(-9.60141e-05 -0.000142312 0.00959205)
(-3.29081e-05 -0.000128182 0.00933677)
(-4.05292e-06 -0.000163946 0.00933394)
(-3.89147e-05 -0.000192357 0.0093288)
(-1.51142e-05 -0.000234965 0.00938611)
(-6.52612e-05 -0.000107099 0.00930293)
(-3.22664e-05 -0.000148289 0.0093447)
(-8.04496e-05 -0.000170977 0.00936765)
(-3.12281e-05 -0.000241277 0.00949995)
(-9.34785e-05 -9.08971e-05 0.00922952)
(-5.97581e-05 -0.000112867 0.00931752)
(-0.000125269 -0.000105699 0.00935072)
(-3.4869e-05 -0.000172733 0.00957002)
(-0.000102472 -8.01955e-05 0.00912875)
(-7.14972e-05 -6.03925e-05 0.00923753)
(-0.000147557 -4.84225e-05 0.00921881)
(-4.08969e-05 -6.46459e-05 0.00952117)
(-1.506e-05 -8.24818e-05 0.00925072)
(-1.67031e-06 -9.41362e-05 0.00929097)
(-1.52936e-05 -0.000103617 0.00931194)
(-5.74059e-07 -0.000122644 0.00934851)
(-2.97556e-05 -6.93933e-05 0.00920281)
(-1.38009e-05 -8.3827e-05 0.00926934)
(-3.30606e-05 -9.18788e-05 0.00930812)
(-5.41536e-06 -0.000121363 0.00937958)
(-4.19855e-05 -6.05172e-05 0.00912215)
(-2.54572e-05 -6.53671e-05 0.00920996)
(-5.21547e-05 -6.23907e-05 0.00925548)
(-8.48351e-06 -8.88759e-05 0.00936552)
(-4.88283e-05 -4.717e-05 0.00900502)
(-3.33264e-05 -3.42458e-05 0.00909801)
(-6.33334e-05 -2.91751e-05 0.00912687)
(-1.16277e-05 -3.39018e-05 0.00927009)
(-1.04978e-05 -4.88119e-05 0.00925155)
(-2.84643e-06 -5.39242e-05 0.00928958)
(-5.774e-06 -5.73985e-05 0.00930935)
(4.27198e-06 -6.62424e-05 0.00933012)
(-1.7988e-05 -4.0691e-05 0.00920172)
(-9.02052e-06 -4.72848e-05 0.00925376)
(-1.39146e-05 -4.99038e-05 0.0092844)
(2.28212e-06 -6.27687e-05 0.00932191)
(-2.4563e-05 -3.46347e-05 0.00912251)
(-1.53058e-05 -3.6405e-05 0.00918313)
(-2.28181e-05 -3.47978e-05 0.0092183)
(2.58162e-07 -4.56872e-05 0.00927323)
(-2.80442e-05 -2.64568e-05 0.00901085)
(-2.01792e-05 -1.94153e-05 0.00906832)
(-2.87059e-05 -1.59812e-05 0.00909588)
(-1.48392e-06 -1.71186e-05 0.00916249)
(-6.07418e-06 -2.98262e-05 0.00924477)
(-1.42217e-06 -3.17653e-05 0.00928292)
(-9.4477e-07 -3.33083e-05 0.00930285)
(5.36379e-06 -3.72833e-05 0.0093164)
(-9.88295e-06 -2.44694e-05 0.00919166)
(-4.79637e-06 -2.73723e-05 0.00923909)
(-5.01578e-06 -2.81726e-05 0.00926739)
(4.34343e-06 -3.39888e-05 0.00929054)
(-1.32452e-05 -2.05832e-05 0.00911044)
(-8.12267e-06 -2.08808e-05 0.00916189)
(-9.41566e-06 -1.95341e-05 0.00919416)
(3.01363e-06 -2.42942e-05 0.00922622)
(-1.50534e-05 -1.48936e-05 0.00899772)
(-1.08377e-05 -1.08252e-05 0.00904325)
(-1.24031e-05 -8.48665e-06 0.00907096)
(1.99303e-06 -8.80273e-06 0.00910703)
(-3.39233e-06 -1.86159e-05 0.00924015)
(-3.64372e-07 -1.9311e-05 0.00927724)
(1.00745e-06 -2.0142e-05 0.00929679)
(4.92141e-06 -2.19067e-05 0.00930681)
(-5.4608e-06 -1.49277e-05 0.00918546)
(-2.39627e-06 -1.6262e-05 0.00922931)
(-1.16389e-06 -1.664e-05 0.00925619)
(4.30979e-06 -1.91667e-05 0.0092726)
(-7.31515e-06 -1.22768e-05 0.00910335)
(-4.37443e-06 -1.22204e-05 0.00914893)
(-3.44521e-06 -1.13773e-05 0.00917921)
(3.50452e-06 -1.33434e-05 0.00920092)
(-8.24974e-06 -8.42957e-06 0.00899055)
(-5.95229e-06 -6.11867e-06 0.00902867)
(-5.05293e-06 -4.59232e-06 0.009055)
(2.90443e-06 -4.63535e-06 0.0090776)
(-1.78185e-06 -1.18971e-05 0.00923613)
(2.66684e-07 -1.21099e-05 0.0092725)
(1.60136e-06 -1.2607e-05 0.00929169)
(4.02033e-06 -1.34175e-05 0.00930021)
(-2.96063e-06 -9.32409e-06 0.00918052)
(-1.03825e-06 -9.92373e-06 0.00922239)
(3.76943e-07 -1.01962e-05 0.00924843)
(3.61846e-06 -1.12977e-05 0.00926184)
(-4.00333e-06 -7.48599e-06 0.00909782)
(-2.27273e-06 -7.30605e-06 0.00914028)
(-8.96234e-07 -6.84008e-06 0.00916953)
(3.13479e-06 -7.64627e-06 0.00918651)
(-4.51558e-06 -4.83857e-06 0.0089849)
(-3.20004e-06 -3.49002e-06 0.00901919)
(-1.79535e-06 -2.53192e-06 0.00904469)
(2.7727e-06 -2.5311e-06 0.0090612)
(-8.91166e-07 -7.77773e-06 0.00923299)
(5.29128e-07 -7.7966e-06 0.00926891)
(1.5869e-06 -8.11257e-06 0.00928783)
(3.1069e-06 -8.51797e-06 0.00929578)
(-1.59453e-06 -5.95427e-06 0.00917686)
(-3.22633e-07 -6.23355e-06 0.00921762)
(8.54192e-07 -6.42051e-06 0.00924312)
(2.82392e-06 -6.93496e-06 0.00925527)
(-2.21504e-06 -4.66119e-06 0.00909383)
(-1.11273e-06 -4.48275e-06 0.00913457)
(1.09933e-07 -4.21177e-06 0.00916317)
(2.51122e-06 -4.56178e-06 0.0091781)
(-2.50548e-06 -2.82974e-06 0.0089809)
(-1.67831e-06 -2.0132e-06 0.00901308)
(-4.10434e-07 -1.42161e-06 0.00903797)
(2.29211e-06 -1.43578e-06 0.00905186)
(-4.15972e-07 -5.17044e-06 0.0092306)
(5.77788e-07 -5.11642e-06 0.00926624)
(1.34715e-06 -5.32684e-06 0.00928503)
(2.32082e-06 -5.55142e-06 0.0092928)
(-8.52139e-07 -3.87071e-06 0.00917416)
(1.45853e-08 -4.00389e-06 0.0092143)
(8.89431e-07 -4.13313e-06 0.00923948)
(2.11874e-06 -4.39557e-06 0.00925115)
(-1.23744e-06 -2.95991e-06 0.00909094)
(-5.00194e-07 -2.81044e-06 0.00913074)
(4.36036e-07 -2.65127e-06 0.00915892)
(1.91017e-06 -2.81824e-06 0.00917301)
(-1.40837e-06 -1.68798e-06 0.00897802)
(-8.53703e-07 -1.17525e-06 0.00900908)
(1.23964e-07 -8.15213e-07 0.00903353)
(1.7721e-06 -8.45946e-07 0.00904633)
(-1.75045e-07 -3.4583e-06 0.00922884)
(5.21444e-07 -3.38358e-06 0.00926433)
(1.0575e-06 -3.52421e-06 0.00928305)
(1.68526e-06 -3.66161e-06 0.00929078)
(-4.51591e-07 -2.53311e-06 0.00917222)
(1.4739e-07 -2.59803e-06 0.009212)
(7.62431e-07 -2.68824e-06 0.00923701)
(1.54149e-06 -2.83696e-06 0.0092485)
(-6.97158e-07 -1.8978e-06 0.00908888)
(-1.90388e-07 -1.7853e-06 0.00912817)
(4.78631e-07 -1.68992e-06 0.00915609)
(1.40063e-06 -1.78057e-06 0.00916986)
(-8.00502e-07 -1.02126e-06 0.00897598)
(-4.15043e-07 -6.92685e-07 0.00900642)
(2.8735e-07 -4.74544e-07 0.0090306)
(1.31106e-06 -5.12459e-07 0.00904297)
(-5.6774e-08 -2.28278e-06 0.00922759)
(4.21487e-07 -2.21355e-06 0.009263)
(7.82692e-07 -2.30569e-06 0.00928169)
(1.18473e-06 -2.39365e-06 0.00928944)
(-2.32466e-07 -1.63946e-06 0.00917086)
(1.75402e-07 -1.67169e-06 0.00921044)
(5.91594e-07 -1.73431e-06 0.00923535)
(1.08451e-06 -1.82574e-06 0.0092468)
(-3.89433e-07 -1.20777e-06 0.00908744)
(-4.45188e-08 -1.12659e-06 0.00912644)
(4.1174e-07 -1.0714e-06 0.00915422)
(9.89977e-07 -1.12752e-06 0.00916787)
(-4.52871e-07 -6.1697e-07 0.00897457)
(-1.86665e-07 -4.0546e-07 0.00900467)
(2.92723e-07 -2.76567e-07 0.00902868)
(9.31307e-07 -3.13518e-07 0.00904088)
(5.92898e-09 -1.42679e-06 0.00922676)
(3.171e-07 -1.37507e-06 0.00926211)
(5.4831e-07 -1.43323e-06 0.00928079)
(7.96722e-07 -1.48943e-06 0.00928857)
(-1.03189e-07 -1.00663e-06 0.00916995)
(1.61653e-07 -1.02386e-06 0.00920942)
(4.28115e-07 -1.0664e-06 0.00923428)
(7.2984e-07 -1.12466e-06 0.00924572)
(-2.00844e-07 -7.2902e-07 0.00908649)
(2.38589e-08 -6.77472e-07 0.00912533)
(3.16471e-07 -6.48216e-07 0.00915301)
(6.68264e-07 -6.86424e-07 0.00916663)
(-2.39055e-07 -3.5196e-07 0.00897363)
(-6.3495e-08 -2.24146e-07 0.00900354)
(2.44051e-07 -1.52512e-07 0.00902745)
(6.30458e-07 -1.84909e-07 0.0090396)
(6.45744e-08 -7.51787e-07 0.00922624)
(2.46377e-07 -7.22206e-07 0.00926157)
(3.79543e-07 -7.56671e-07 0.00928025)
(5.16983e-07 -7.9197e-07 0.00928805)
(2.71026e-09 -5.13451e-07 0.00916939)
(1.5776e-07 -5.25985e-07 0.00920881)
(3.09847e-07 -5.55685e-07 0.00923363)
(4.74989e-07 -5.94099e-07 0.00924509)
(-5.31196e-08 -3.58564e-07 0.00908591)
(7.94161e-08 -3.35984e-07 0.00912466)
(2.46147e-07 -3.28502e-07 0.0091523)
(4.37183e-07 -3.58307e-07 0.00916591)
(-7.52952e-08 -1.49128e-07 0.00897305)
(3.06332e-08 -8.76312e-08 0.00900287)
(2.05357e-07 -6.00947e-08 0.00902672)
(4.14148e-07 -9.04625e-08 0.00903886)
(1.65289e-07 -1.76675e-07 0.00922597)
(2.484e-07 -1.77414e-07 0.0092613)
(3.10443e-07 -2.00001e-07 0.00928)
(3.66288e-07 -2.23682e-07 0.00928782)
(1.34018e-07 -9.29418e-08 0.0091691)
(2.08022e-07 -1.10818e-07 0.0092085)
(2.76345e-07 -1.36496e-07 0.00923333)
(3.41386e-07 -1.66395e-07 0.0092448)
(1.05701e-07 -3.47584e-08 0.0090856)
(1.72179e-07 -4.40173e-08 0.00912433)
(2.46014e-07 -6.1953e-08 0.00915196)
(3.19687e-07 -9.50649e-08 0.00916559)
(9.16411e-08 4.11822e-08 0.00897275)
(1.49652e-07 4.22148e-08 0.00900253)
(2.2637e-07 2.70195e-08 0.00902638)
(3.05639e-07 -1.15604e-08 0.00903852)
(0.00114109 0.00242303 0.0165308)
(-0.00150765 0.00300211 0.0259843)
(-0.000700987 0.0005467 0.0102077)
(0.00107449 0.00083282 0.017778)
(0.000390136 0.00128085 0.00566985)
(-0.00045647 0.00152653 0.0172524)
(-0.000154103 0.00197236 0.0119828)
(0.000687932 0.00226776 0.0145616)
(-0.00171438 0.00239228 0.0171749)
(-0.00369354 0.00281576 0.0151985)
(-0.000686619 0.00185021 0.0107358)