/*--------------------------------*- C++ -*----------------------------------*\
| =========                 |                                                 |
| \\      /  F ield         | OpenFOAM: The Open Source CFD Toolbox           |
|  \\    /   O peration     | Version:  2506                                  |
|   \\  /    A nd           | Website:  www.openfoam.com                      |
|    \\/     M anipulation  |                                                 |
\*---------------------------------------------------------------------------*/
FoamFile
{
    version     2.0;
    format      ascii;
    arch        "LSB;label=32;scalar=64";
    class       volScalarField;
    location    "0.05";
    object      Ksl;
}
// * * * * * * * * * * * * * * * * * * * * * * * * * * * * * * * * * * * * * //

dimensions      [1 -3 -1 0 0 0 0];

internalField   nonuniform List<scalar> 
1152
(
155586
261550
332999
168057
222801
189520
167364
293005
142845
185335
173750
315657
256563
253003
234783
181263
312592
318415
164289
174543
319790
278523
203964
228396
259038
208893
204396
215759
292853
242784
163470
433029
469054
145091
256813
281043
251177
274447
280826
477315
214491
217250
322249
262867
216367
189813
235391
237541
183330
239534
167975
174241
204927
256383
219607
339375
273399
277878
245217
179845
191959
205488
289696
556953
285072
206303
155102
311184
228561
337896
211355
240430
115893
337447
181520
250617
234463
428488
259278
239331
159658
368387
328104
227870
235032
250274
325982
355085
112534
248922
209573
223409
241794
191960
281508
579621
40209
65409.6
40038.4
75265.2
49211
44893.9
60559.2
66545.8
12239.5
25682.1
80522.2
44543.2
40075.9
38885.2
87800
22125.7
0
0
0
0
0
0
0
0
0
0
0
0
0
0
0
0
0
0
0
0
0
0
0
0
0
0
0
0
0
0
0
0
0
0
0
0
0
0
0
0
0
0
0
0
0
0
0
0
0
0
0
0
0
0
0
0
0
0
0
0
0
0
0
0
0
0
0
0
0
0
0
0
0
0
0
0
0
0
0
0
0
0
0
0
0
0
0
0
0
0
0
0
0
0
0
0
0
0
0
0
0
0
0
0
0
0
0
0
0
0
0
0
0
0
0
0
0
0
0
0
0
0
0
0
0
0
0
0
0
0
0
0
0
0
0
0
0
0
0
0
0
0
0
0
0
0
0
0
0
0
0
0
0
0
0
0
0
0
0
0
0
0
0
0
0
0
0
0
0
0
0
0
0
0
0
0
0
0
0
0
0
0
0
0
0
0
0
0
0
0
0
0
0
0
0
0
0
0
0
0
0
0
0
0
0
0
0
0
0
0
0
0
0
0
0
0
0
0
0
0
0
0
0
0
0
0
0
0
0
0
0
0
0
0
0
0
0
0
0
0
0
0
0
0
0
0
0
0
0
0
0
0
0
0
0
0
0
0
0
0
0
0
0
0
0
0
0
0
0
0
0
0
172671
349181
178701
118225
250414
157229
158495
217684
139483
173778
151918
168387
228757
168810
191422
138733
292957
92687.4
317389
348439
318596
314579
201078
333565
275325
188451
188568
202183
179883
300305
181985
208137
269684
319584
267270
127945
239694
265118
191283
237413
176940
177168
223812
278378
215663
252682
177275
334266
121177
256589
141332
295905
504043
205109
335716
296110
246582
326268
207721
96422.1
257632
208114
276824
155983
239718
179694
252986
339884
274888
173900
212401
307641
287084
242738
212625
287125
208044
315178
248361
210047
75224.2
311955
119195
319658
220291
288207
210874
200571
280322
172100
300146
295527
261000
248673
124154
156491
67840.7
27769
65287.9
59609.7
83274.6
57485.7
80249.9
60574.4
61991.9
24913.4
35883.4
53120.9
50396
50561.4
81645.6
125277
0
0
0
0
0
0
0
0
0
0
0
0
0
0
0
0
0
0
0
0
0
0
0
0
0
0
0
0
0
0
0
0
0
0
0
0
0
0
0
0
0
0
0
0
0
0
0
0
0
0
0
0
0
0
0
0
0
0
0
0
0
0
0
0
0
0
0
0
0
0
0
0
0
0
0
0
0
0
0
0
0
0
0
0
0
0
0
0
0
0
0
0
0
0
0
0
0
0
0
0
0
0
0
0
0
0
0
0
0
0
0
0
0
0
0
0
0
0
0
0
0
0
0
0
0
0
0
0
0
0
0
0
0
0
0
0
0
0
0
0
0
0
0
0
0
0
0
0
0
0
0
0
0
0
0
0
0
0
0
0
0
0
0
0
0
0
0
0
0
0
0
0
0
0
0
0
0
0
0
0
0
0
0
0
0
0
0
0
0
0
0
0
0
0
0
0
0
0
0
0
0
0
0
0
0
0
0
0
0
0
0
0
0
0
0
0
0
0
0
0
0
0
0
0
0
0
0
0
0
0
0
0
0
0
0
0
0
0
0
0
0
0
0
0
0
0
0
0
0
0
0
0
0
0
0
0
0
0
0
0
0
0
0
0
0
0
0
0
0
0
0
0
226556
137710
144366
224302
152492
202257
181207
250433
235617
134669
152007
167176
157578
205020
130162
236472
214920
205745
135550
361524
280072
229774
121159
251646
127476
141571
323078
218417
117503
286531
144226
233520
188379
220226
212904
239749
189237
174104
290180
277718
188262
197781
235534
222535
310294
269331
219047
148183
162534
103116
179214
285326
173725
291739
201115
331785
268051
227901
227099
196107
182156
220480
248048
364431
196534
220586
231718
259027
244415
200776
222344
273748
243574
206557
260716
248671
139962
467155
148493
388659
248964
199108
193867
241123
224045
300450
215354
248678
232620
195278
397519
349734
256078
195634
263646
380450
68289.5
72119.4
49659.5
75502.4
82459.1
47887
30961.8
44657.6
100016
28964.6
44992.7
39170.1
73752.1
109703
32788.2
50513.2
0
0
0
0
0
0
0
0
0
0
0
0
0
0
0
0
0
0
0
0
0
0
0
0
0
0
0
0
0
0
0
0
0
0
0
0
0
0
0
0
0
0
0
0
0
0
0
0
0
0
0
0
0
0
0
0
0
0
0
0
0
0
0
0
0
0
0
0
0
0
0
0
0
0
0
0
0
0
0
0
0
0
0
0
0
0
0
0
0
0
0
0
0
0
0
0
0
0
0
0
0
0
0
0
0
0
0
0
0
0
0
0
0
0
0
0
0
0
0
0
0
0
0
0
0
0
0
0
0
0
0
0
0
0
0
0
0
0
0
0
0
0
0
0
0
0
0
0
0
0
0
0
0
0
0
0
0
0
0
0
0
0
0
0
0
0
0
0
0
0
0
0
0
0
0
0
0
0
0
0
0
0
0
0
0
0
0
0
0
0
0
0
0
0
0
0
0
0
0
0
0
0
0
0
0
0
0
0
0
0
0
0
0
0
0
0
0
0
0
0
0
0
0
0
0
0
0
0
0
0
0
0
0
0
0
0
0
0
0
0
0
0
0
0
0
0
0
0
0
0
0
0
0
0
0
0
0
0
0
0
0
0
0
0
0
0
0
0
0
0
0
0
)
;

boundaryField
{
    inlet
    {
        type            zeroGradient;
    }
    outlet
    {
        type            zeroGradient;
    }
    wall
    {
        type            zeroGradient;
    }
    procBoundary2to0
    {
        type            processor;
        value           nonuniform List<scalar> 
192
(
234690
86523.1
194317
104642
204126
237133
258501
208578
202265
347364
295814
145044
240574
247485
357168
489447
268298
292094
417905
217327
409166
176981
203129
143326
24770.8
18600.9
60221.3
75217.6
0
0
0
0
0
0
0
0
0
0
0
0
0
0
0
0
0
0
0
0
0
0
0
0
0
0
0
0
0
0
0
0
0
0
0
0
0
0
0
0
0
0
0
0
0
0
0
0
0
0
0
0
0
0
0
0
0
0
0
0
0
0
0
0
0
0
0
0
165097
220430
286619
162158
143215
240586
353292
218632
314976
169838
188144
181342
299807
427751
250705
214316
149260
252617
249212
344177
183969
191650
266111
125063
81449.5
83619
72575.7
74749.6
0
0
0
0
0
0
0
0
0
0
0
0
0
0
0
0
0
0
0
0
0
0
0
0
0
0
0
0
0
0
0
0
0
0
0
0
0
0
0
0
0
0
0
0
0
0
0
0
0
0
0
0
0
0
0
0
0
0
0
0
0
0
0
0
0
0
0
0
)
;
    }
    procBoundary2to3
    {
        type            processor;
        value           nonuniform List<scalar> 
192
(
188953
147097
126416
241765
191435
340614
280489
205393
284616
146361
412933
220573
220433
177243
333016
192780
153231
235119
218523
295383
255933
169155
268340
94949.7
40258.6
75581.7
39198
61549.5
0
0
0
0
0
0
0
0
0
0
0
0
0
0
0
0
0
0
0
0
0
0
0
0
0
0
0
0
0
0
0
0
0
0
0
0
0
0
0
0
0
0
0
0
0
0
0
0
0
0
0
0
0
0
0
0
0
0
0
0
0
0
0
0
0
0
0
0
186663
206177
280421
231961
208033
203274
208982
234907
278176
199157
276574
156216
193955
330617
287130
269757
222777
187969
210398
234433
180823
350610
121128
393483
28206.9
48154.2
27906.5
44220.2
0
0
0
0
0
0
0
0
0
0
0
0
0
0
0
0
0
0
0
0
0
0
0
0
0
0
0
0
0
0
0
0
0
0
0
0
0
0
0
0
0
0
0
0
0
0
0
0
0
0
0
0
0
0
0
0
0
0
0
0
0
0
0
0
0
0
0
0
)
;
    }
}


// ************************************************************************* //
