/*--------------------------------*- C++ -*----------------------------------*\
| =========                 |                                                 |
| \\      /  F ield         | OpenFOAM: The Open Source CFD Toolbox           |
|  \\    /   O peration     | Version:  2506                                  |
|   \\  /    A nd           | Website:  www.openfoam.com                      |
|    \\/     M anipulation  |                                                 |
\*---------------------------------------------------------------------------*/
FoamFile
{
    version     2.0;
    format      ascii;
    arch        "LSB;label=32;scalar=64";
    class       volVectorField;
    location    "0.05";
    object      U;
}
// * * * * * * * * * * * * * * * * * * * * * * * * * * * * * * * * * * * * * //

dimensions      [0 1 -1 0 0 0 0];

internalField   nonuniform List<vector> 
1152
(
(-0.00132246 -0.00134811 0.0164186)
(8.65516e-05 -0.000940513 0.0100349)
(0.000733244 -0.000255488 0.00660816)
(0.000644257 -0.00205504 0.0147225)
(-0.001073 0.00104408 0.0115088)
(0.000639064 0.00112834 0.0137058)
(-0.000394073 0.000785491 0.0153545)
(-4.34451e-06 -0.000772853 0.00784082)
(-0.0029839 0.00149566 0.0190432)
(-0.000977545 0.00100366 0.0145084)
(-0.000983092 0.00095398 0.0148059)
(0.000272625 0.000769331 0.00711832)
(-0.00227304 0.00059854 0.00997612)
(9.8583e-07 0.00212117 0.009846)
(0.000150588 0.00103057 0.0107305)
(0.000420563 0.00284991 0.0143686)
(0.000271143 -7.1968e-05 0.0157803)
(0.000881159 0.0015219 0.0154295)
(-0.00268259 0.000542373 0.036075)
(-0.00101176 -7.12828e-05 0.0322607)
(-0.000840739 0.000917256 0.0157488)
(-0.000333936 -0.00102873 0.0184922)
(0.000163547 -0.00100391 0.0271993)
(0.00108626 0.000687139 0.0235857)
(-0.000658986 0.00134571 0.0199268)
(-0.000493846 0.00169436 0.025861)
(0.00013388 0.0011283 0.0265397)
(-0.000838534 0.00063817 0.025136)
(-0.000171168 0.000737342 0.0171065)
(-0.000582613 0.00050547 0.0210765)
(-0.000917084 0.00164037 0.0343648)
(0.000578479 0.000471617 0.00961904)
(0.000188719 0.000373595 0.0102475)
(-0.00231143 0.000935083 0.0428969)
(-0.000888211 0.000485888 0.0225082)
(-0.000294801 0.000537164 0.0198869)
(0.000796921 -0.00079987 0.0228976)
(-0.000905492 -0.000616043 0.0201189)
(-0.000384602 -0.000465985 0.0199429)
(0.000622755 0.000484135 0.00980005)
(-0.000610824 -0.000343681 0.0291784)
(-0.000916118 -0.000523055 0.0268419)
(0.00105087 -0.000254938 0.0169891)
(0.000891289 0.000540609 0.0214585)
(0.000225418 0.000963817 0.0264899)
(-0.00201323 -0.0028809 0.0303858)
(0.000649536 0.0015578 0.0241009)
(0.00144703 0.000237922 0.0238393)
(0.000183641 0.00218622 0.0325289)
(0.000523987 0.000369334 0.0232219)
(0.00118222 0.00222491 0.0372043)
(0.000276578 0.00434982 0.0365134)
(0.000143864 0.00205187 0.0285578)
(5.71007e-05 0.000362867 0.0219061)
(0.000989073 0.000783215 0.0266006)
(-0.000456973 0.000516316 0.0157792)
(0.000314648 -0.000748511 0.0215111)
(-0.000496851 -0.00111772 0.0212447)
(0.00131297 -0.00127782 0.0238857)
(0.000150704 -0.00125989 0.0338146)
(0.000844957 -0.00270897 0.032863)
(-0.000588682 0.000684156 0.0295871)
(0.000885436 -0.00121077 0.0198069)
(0.000668405 -0.00103894 0.00807784)
(-0.000548197 0.000829558 0.019119)
(-0.00128368 -0.00090603 0.0288315)
(0.0001455 -0.00295397 0.0406512)
(0.000673873 -0.00109071 0.0166369)
(-0.000142529 0.00163192 0.0247769)
(-0.000562208 0.00100227 0.0157573)
(-0.000214658 0.00144646 0.0273445)
(0.00091746 0.000902028 0.0233297)
(0.00312842 -0.000222179 0.0571717)
(-0.000681005 0.000235084 0.0159918)
(-0.00113655 0.00107536 0.0319341)
(0.000846998 0.000960808 0.0222584)
(0.00103325 1.21153e-05 0.0245239)
(0.000314759 -0.000369958 0.0114022)
(0.000739102 -0.000257735 0.0209959)
(0.00331443 -0.000295475 0.0253326)
(0.00117718 -0.00159672 0.0221906)
(-0.000150084 -0.000423194 0.00806658)
(-0.000463501 -0.000288599 0.00982021)
(-0.000547638 0.0010328 0.0153535)
(0.000472715 0.00038879 0.0143157)
(-0.00044291 0.000818951 0.0129636)
(-0.000613863 -0.000581721 0.00992919)
(-0.000244048 0.00055874 0.00880218)
(0.000787792 -0.000660981 0.0324748)
(-0.00125754 -0.000217199 0.0127859)
(-0.000919096 -0.000455063 0.0167256)
(0.00135623 0.0017183 0.0153677)
(0.000484325 -0.00177776 0.0135524)
(-0.000731812 -0.00144806 0.0177138)
(0.00081343 -0.000343154 0.0112635)
(0.000197992 -0.000162851 0.00496238)
(-2.8544e-05 -5.66245e-05 0.0169832)
(-0.000143925 -0.000160604 0.0106901)
(-0.000229532 -0.000175386 0.0195823)
(-0.000172465 8.40911e-05 0.0124975)
(2.89254e-05 -0.00148248 0.0134845)
(0.000255799 -0.000372995 0.0121515)
(-6.28675e-05 -6.21439e-05 0.0131913)
(-7.34769e-05 -0.00019347 0.0120266)
(-0.000431879 -0.000660306 0.0429993)
(0.000838471 -0.000413 0.0164153)
(-8.58377e-05 -0.000119038 0.0118127)
(-0.000178344 -0.000262263 0.0154044)
(2.0017e-05 -5.65083e-05 0.0171398)
(0.000751012 -0.000491884 0.0144025)
(2.21651e-05 -0.000300535 0.00942328)
(-0.000668916 0.000248249 0.0148672)
(-0.000759117 -6.53421e-05 0.0225208)
(-0.000368409 0.000311975 0.0183056)
(-0.000307475 1.48034e-06 0.0230517)
(-0.000301376 -3.18598e-05 0.0196802)
(-0.000550557 -0.00136075 0.0220045)
(-5.49826e-05 -0.000605614 0.0187438)
(-0.000246818 -0.000108222 0.0183077)
(-0.000321824 -0.00029635 0.017087)
(-0.000852023 -3.58598e-05 0.032327)
(0.000930288 -4.28141e-05 0.0225417)
(-7.08847e-05 1.10246e-05 0.0179919)
(-0.000391597 -0.000363143 0.0202245)
(-0.000679939 0.00127878 0.0248273)
(-1.30246e-05 0.000166618 0.0211626)
(-0.000544904 0.000156303 0.0167124)
(-0.000739488 0.000244679 0.0200739)
(0.000129995 -0.000172201 0.00669082)
(0.00028335 0.000110363 0.00610801)
(0.000103838 1.48981e-05 0.00658374)
(-0.000135771 -7.77566e-05 0.00610221)
(0.000253402 -0.000920716 0.00701795)
(0.000680327 -0.000539396 0.00621457)
(0.000308637 3.72529e-06 0.00580809)
(-0.000197458 -0.00020763 0.00560787)
(0.000130811 -0.000370746 0.00919825)
(0.00121722 -0.00043757 0.00719058)
(0.000411073 -0.00029886 0.00588494)
(-0.000342027 -0.000539022 0.00613425)
(0.000229975 0.000358093 0.0076394)
(0.00075431 -0.000448528 0.00676879)
(0.000194245 -0.000545008 0.00569999)
(-0.000611349 -0.000296991 0.00626226)
(0.000198004 -0.000103328 0.0119027)
(0.000260216 -2.22202e-05 0.011504)
(0.000149501 -6.0239e-05 0.0114985)
(-3.68205e-05 -0.000127976 0.0112855)
(0.000201713 -0.000334176 0.012086)
(0.000377844 -0.000254765 0.0115632)
(0.000197203 -0.00010648 0.0112365)
(-9.73142e-05 -0.000190782 0.0110876)
(7.84546e-05 -9.56706e-05 0.012809)
(0.00048919 -0.000214468 0.011993)
(0.000205168 -0.00022676 0.0113829)
(-0.000183191 -0.00034557 0.0113577)
(-4.83526e-05 0.000241508 0.0124169)
(0.000245001 -0.000162217 0.0119477)
(5.78784e-05 -0.000294078 0.0114323)
(-0.000335252 -0.000293964 0.0114974)
(0.000153627 -5.41105e-05 0.0109085)
(0.000179655 -3.73951e-05 0.0107378)
(0.000113312 -5.3917e-05 0.0106631)
(-2.04871e-06 -8.97606e-05 0.010583)
(0.000145142 -0.000142159 0.0109883)
(0.000201832 -0.000131961 0.0107763)
(0.000111955 -0.000107839 0.010618)
(-4.21547e-05 -0.000143447 0.010554)
(0.000107283 -9.14372e-05 0.0111954)
(0.000214769 -0.00013887 0.0109351)
(9.93801e-05 -0.000160213 0.0107091)
(-8.82818e-05 -0.000210717 0.0106799)
(6.12154e-05 -1.20981e-05 0.0110488)
(0.000130909 -0.000123768 0.0109233)
(3.61604e-05 -0.000175153 0.0107558)
(-0.000158448 -0.000197218 0.0107731)
(9.2604e-05 -1.94095e-05 0.011004)
(9.81584e-05 -2.12271e-05 0.0109248)
(5.97077e-05 -3.30681e-05 0.0108665)
(-6.20355e-06 -5.41059e-05 0.0108308)
(7.81035e-05 -5.30233e-05 0.0110415)
(9.26981e-05 -6.43799e-05 0.0109505)
(4.73103e-05 -7.19561e-05 0.0108745)
(-3.13399e-05 -9.41502e-05 0.0108438)
(5.31393e-05 -4.16299e-05 0.0111134)
(7.93401e-05 -7.43053e-05 0.0110158)
(2.93642e-05 -9.76841e-05 0.0109264)
(-5.86874e-05 -0.000126392 0.0109066)
(1.63978e-05 -1.70488e-05 0.0110943)
(3.60427e-05 -6.90502e-05 0.0110337)
(-5.88798e-06 -0.000102377 0.0109653)
(-9.44148e-05 -0.000124669 0.0109637)
(4.57312e-05 -3.27061e-06 0.0110342)
(4.48788e-05 -8.23286e-06 0.0109973)
(2.37217e-05 -1.7072e-05 0.0109664)
(-1.19174e-05 -3.00453e-05 0.0109509)
(3.51421e-05 -2.11192e-05 0.011048)
(3.64034e-05 -3.17436e-05 0.0110105)
(1.2707e-05 -4.18658e-05 0.0109782)
(-2.71405e-05 -5.61886e-05 0.0109664)
(2.13658e-05 -2.34191e-05 0.0110711)
(2.40696e-05 -4.09941e-05 0.0110369)
(-8.24148e-07 -5.64819e-05 0.0110053)
(-4.31876e-05 -7.30062e-05 0.0109993)
(2.58091e-06 -1.85967e-05 0.0110688)
(2.97821e-06 -4.13366e-05 0.0110503)
(-1.95886e-05 -5.92965e-05 0.0110295)
(-6.156e-05 -7.35583e-05 0.0110326)
(1.94637e-05 2.64492e-06 0.0110521)
(1.70401e-05 -1.7695e-06 0.0110348)
(5.25024e-06 -8.0701e-06 0.0110203)
(-1.36655e-05 -1.63485e-05 0.0110139)
(1.2859e-05 -8.33919e-06 0.0110572)
(1.04059e-05 -1.55612e-05 0.0110414)
(-2.57002e-06 -2.31993e-05 0.0110281)
(-2.29846e-05 -3.22243e-05 0.0110246)
(5.05899e-06 -1.30802e-05 0.0110662)
(2.10143e-06 -2.26637e-05 0.0110535)
(-1.14209e-05 -3.20527e-05 0.0110427)
(-3.24493e-05 -4.16228e-05 0.0110428)
(-4.69817e-06 -1.38583e-05 0.0110687)
(-8.73588e-06 -2.47573e-05 0.0110627)
(-2.15953e-05 -3.4314e-05 0.0110572)
(-4.21821e-05 -4.25734e-05 0.011062)
(6.62241e-06 3.83745e-06 0.0110659)
(4.1272e-06 6.12001e-07 0.0110581)
(-2.67004e-06 -3.69649e-06 0.011052)
(-1.26312e-05 -9.0286e-06 0.0110501)
(2.6194e-06 -3.1595e-06 0.0110675)
(-3.20614e-07 -7.6858e-06 0.0110611)
(-7.76196e-06 -1.26899e-05 0.0110564)
(-1.84278e-05 -1.82369e-05 0.0110565)
(-1.91408e-06 -7.37682e-06 0.0110713)
(-5.46392e-06 -1.27076e-05 0.011067)
(-1.32135e-05 -1.82127e-05 0.0110642)
(-2.40461e-05 -2.37563e-05 0.0110665)
(-7.06468e-06 -9.35639e-06 0.0110738)
(-1.12405e-05 -1.49e-05 0.0110726)
(-1.88211e-05 -2.00494e-05 0.0110726)
(-2.93456e-05 -2.47068e-05 0.0110775)
(8.15458e-07 3.30898e-06 0.0110759)
(-1.24524e-06 1.13785e-06 0.0110727)
(-5.28022e-06 -1.69792e-06 0.0110705)
(-1.05431e-05 -5.13872e-06 0.0110706)
(-1.60143e-06 -1.13263e-06 0.0110762)
(-4.05507e-06 -3.88589e-06 0.011074)
(-8.46835e-06 -6.99003e-06 0.0110729)
(-1.41632e-05 -1.03559e-05 0.0110742)
(-4.26298e-06 -4.24673e-06 0.011078)
(-7.14598e-06 -7.25633e-06 0.011077)
(-1.17421e-05 -1.0452e-05 0.0110771)
(-1.75126e-05 -1.36621e-05 0.0110798)
(-7.04383e-06 -6.08944e-06 0.0110798)
(-1.03081e-05 -9.02903e-06 0.0110803)
(-1.48719e-05 -1.18429e-05 0.0110819)
(-2.0455e-05 -1.44444e-05 0.011086)
(-1.51017e-06 2.40067e-06 0.0110828)
(-3.04335e-06 9.99602e-07 0.0110817)
(-5.47246e-06 -8.14237e-07 0.0110813)
(-8.36125e-06 -3.00578e-06 0.0110821)
(-2.97716e-06 -3.94562e-07 0.0110827)
(-4.79397e-06 -2.05234e-06 0.0110822)
(-7.46416e-06 -3.95392e-06 0.0110824)
(-1.0593e-05 -6.00799e-06 0.011084)
(-4.54441e-06 -2.52925e-06 0.0110835)
(-6.63416e-06 -4.24344e-06 0.0110837)
(-9.4223e-06 -6.09763e-06 0.0110848)
(-1.25894e-05 -7.96856e-06 0.0110872)
(-6.07153e-06 -3.93496e-06 0.0110846)
(-8.3952e-06 -5.53038e-06 0.0110857)
(-1.11866e-05 -7.07849e-06 0.0110875)
(-1.42416e-05 -8.52569e-06 0.0110907)
(-2.19357e-06 1.59117e-06 0.0110874)
(-3.27846e-06 7.03815e-07 0.0110872)
(-4.75261e-06 -4.31246e-07 0.0110874)
(-6.45148e-06 -1.78098e-06 0.0110884)
(-3.09541e-06 -1.56384e-07 0.0110872)
(-4.37438e-06 -1.15662e-06 0.0110874)
(-6.00795e-06 -2.32317e-06 0.0110881)
(-7.79195e-06 -3.5918e-06 0.0110895)
(-4.02134e-06 -1.56376e-06 0.0110875)
(-5.46896e-06 -2.54556e-06 0.0110882)
(-7.1845e-06 -3.6229e-06 0.0110894)
(-8.97159e-06 -4.72296e-06 0.0110913)
(-4.87047e-06 -2.5483e-06 0.0110882)
(-6.45994e-06 -3.42438e-06 0.0110894)
(-8.18493e-06 -4.27547e-06 0.011091)
(-9.89942e-06 -5.07702e-06 0.0110934)
(-2.16404e-06 9.90989e-07 0.0110904)
(-2.91807e-06 4.39186e-07 0.0110906)
(-3.81542e-06 -2.53717e-07 0.011091)
(-4.87243e-06 -1.04275e-06 0.0110919)
(-2.71813e-06 -9.45997e-08 0.0110902)
(-3.59948e-06 -6.93278e-07 0.0110906)
(-4.60384e-06 -1.40262e-06 0.0110914)
(-5.6545e-06 -2.18528e-06 0.0110926)
(-3.2625e-06 -9.99688e-07 0.0110904)
(-4.24442e-06 -1.55736e-06 0.0110911)
(-5.30615e-06 -2.1768e-06 0.0110922)
(-6.3385e-06 -2.82113e-06 0.0110937)
(-3.73407e-06 -1.65732e-06 0.0110908)
(-4.79935e-06 -2.13468e-06 0.0110918)
(-5.86948e-06 -2.59456e-06 0.0110931)
(-6.85234e-06 -3.03238e-06 0.0110949)
(-1.85682e-06 5.89432e-07 0.0110924)
(-2.37862e-06 2.5559e-07 0.0110927)
(-2.93139e-06 -1.55351e-07 0.0110932)
(-3.58449e-06 -5.95518e-07 0.0110939)
(-2.18726e-06 -7.89309e-08 0.0110922)
(-2.78663e-06 -4.25549e-07 0.0110927)
(-3.4058e-06 -8.4132e-07 0.0110934)
(-4.02987e-06 -1.30515e-06 0.0110944)
(-2.50014e-06 -6.51732e-07 0.0110923)
(-3.15533e-06 -9.58983e-07 0.011093)
(-3.81109e-06 -1.30353e-06 0.0110939)
(-4.4162e-06 -1.66942e-06 0.011095)
(-2.75607e-06 -1.07768e-06 0.0110925)
(-3.45794e-06 -1.32923e-06 0.0110934)
(-4.11956e-06 -1.56774e-06 0.0110944)
(-4.69311e-06 -1.79868e-06 0.0110958)
(-1.45704e-06 3.35703e-07 0.0110937)
(-1.81184e-06 1.41228e-07 0.011094)
(-2.15685e-06 -9.42532e-08 0.0110945)
(-2.5349e-06 -3.33776e-07 0.0110951)
(-1.64337e-06 -6.87194e-08 0.0110936)
(-2.04093e-06 -2.58693e-07 0.011094)
(-2.42184e-06 -4.87563e-07 0.0110946)
(-2.78629e-06 -7.43609e-07 0.0110954)
(-1.8151e-06 -4.26286e-07 0.0110936)
(-2.24165e-06 -5.86835e-07 0.0110942)
(-2.64268e-06 -7.68078e-07 0.0110949)
(-2.99824e-06 -9.63791e-07 0.0110958)
(-1.94649e-06 -6.94644e-07 0.0110937)
(-2.39866e-06 -8.18777e-07 0.0110944)
(-2.80272e-06 -9.34062e-07 0.0110953)
(-3.14125e-06 -1.04717e-06 0.0110962)
(-1.04223e-06 1.76266e-07 0.0110945)
(-1.27091e-06 6.85699e-08 0.0110948)
(-1.48351e-06 -6.24243e-08 0.0110953)
(-1.68288e-06 -2.0033e-07 0.0110958)
(-1.14061e-06 -5.9935e-08 0.0110944)
(-1.3907e-06 -1.57786e-07 0.0110948)
(-1.62082e-06 -2.74758e-07 0.0110954)
(-1.82519e-06 -4.05157e-07 0.011096)
(-1.22938e-06 -2.76234e-07 0.0110944)
(-1.49374e-06 -3.54893e-07 0.0110949)
(-1.73209e-06 -4.43046e-07 0.0110955)
(-1.9371e-06 -5.38608e-07 0.0110962)
(-1.29096e-06 -4.37631e-07 0.0110945)
(-1.5694e-06 -4.92551e-07 0.0110951)
(-1.80818e-06 -5.42349e-07 0.0110958)
(-2.00609e-06 -5.90228e-07 0.0110965)
(-6.63319e-07 6.8661e-08 0.011095)
(-7.9681e-07 1.17789e-08 0.0110953)
(-9.17785e-07 -5.68513e-08 0.0110958)
(-1.01558e-06 -1.33793e-07 0.0110962)
(-7.13992e-07 -5.88065e-08 0.0110949)
(-8.56564e-07 -1.07318e-07 0.0110953)
(-9.8572e-07 -1.63136e-07 0.0110958)
(-1.09227e-06 -2.26079e-07 0.0110963)
(-7.5822e-07 -1.77565e-07 0.0110949)
(-9.06413e-07 -2.14255e-07 0.0110954)
(-1.03765e-06 -2.53596e-07 0.0110959)
(-1.14792e-06 -2.96051e-07 0.0110965)
(-7.86401e-07 -2.63976e-07 0.0110949)
(-9.40409e-07 -2.86507e-07 0.0110955)
(-1.07034e-06 -3.05623e-07 0.011096)
(-1.17807e-06 -3.21794e-07 0.0110967)
(-4.03745e-07 -1.87054e-08 0.0110953)
(-4.74339e-07 -4.97304e-08 0.0110956)
(-5.37392e-07 -8.6738e-08 0.011096)
(-5.85103e-07 -1.28822e-07 0.0110964)
(-4.3093e-07 -8.31412e-08 0.0110953)
(-5.06618e-07 -1.07993e-07 0.0110956)
(-5.73125e-07 -1.36946e-07 0.011096)
(-6.24141e-07 -1.68865e-07 0.0110965)
(-4.53096e-07 -1.41231e-07 0.0110952)
(-5.31272e-07 -1.57614e-07 0.0110956)
(-5.99162e-07 -1.7614e-07 0.0110961)
(-6.51553e-07 -1.96274e-07 0.0110966)
(-4.655e-07 -1.81344e-07 0.0110952)
(-5.46044e-07 -1.90208e-07 0.0110957)
(-6.13755e-07 -1.97027e-07 0.0110962)
(-6.64521e-07 -2.02365e-07 0.0110967)
(0.00101384 0.0023767 0.0151779)
(-0.000105772 0.0015419 0.00671083)
(-0.00152627 0.00129094 0.0141075)
(0.000429658 0.00189521 0.0247294)
(-0.000903904 0.000482625 0.00956014)
(0.00095893 -0.000631879 0.0158193)
(-0.00146334 0.00186151 0.0161598)
(-0.000896694 0.000911279 0.0117792)
(-0.00191844 0.000955742 0.0185684)
(0.00138483 0.000121625 0.0141537)
(-5.1618e-05 0.000674112 0.0165441)
(-0.00207675 0.00215209 0.0155833)
(-0.00113634 -0.000788651 0.0104919)
(0.000679689 -0.000576616 0.0147267)
(0.000915169 0.000224886 0.0126734)
(-0.0019457 0.000846965 0.0178852)
(-0.000352766 -0.000524391 0.0171091)
(-0.000543383 -0.00295748 0.0623225)
(0.000422514 0.000157633 0.0153741)
(0.000699291 0.00086755 0.0125482)
(-8.067e-05 -0.000133015 0.0142591)
(-3.6507e-05 0.000235778 0.0145517)
(0.000761524 0.000648433 0.0255439)
(0.000649186 -0.000281102 0.014308)
(0.000170417 0.000121564 0.0165974)
(0.000239865 4.69198e-05 0.026942)
(9.35122e-05 0.0011743 0.0280208)
(0.00196953 -0.00128659 0.0296737)
(-0.000660583 0.000275876 0.0287442)
(0.000825102 -0.000329937 0.0150782)
(-0.000111321 0.000986958 0.0286391)
(0.00150207 -0.000607603 0.0266141)
(-0.0017143 -0.00222397 0.021073)
(8.17002e-05 0.000318871 0.0161328)
(0.00238919 0.00106184 0.0205497)
(-0.000996313 0.00186304 0.0485368)
(0.00125891 -0.00155528 0.0230593)
(-0.000218839 0.00185097 0.0210184)
(0.00155015 -0.00125077 0.0310243)
(0.000332465 0.00376085 0.0234962)
(0.00146327 -0.00148594 0.0328479)
(0.000409269 0.000380528 0.0332507)
(0.00384945 0.000200701 0.0254814)
(0.000737779 0.00115031 0.0195892)
(0.00244348 0.000409835 0.0264649)
(0.000167899 0.000991088 0.0215752)
(0.00305353 -0.000512382 0.0338776)
(0.00136811 -0.000642791 0.016008)
(0.00352629 0.000553654 0.0574934)
(3.1541e-06 0.000818642 0.0242668)
(-0.00387164 -0.00100603 0.0462804)
(0.000625937 -0.000740916 0.0183114)
(0.00050095 -0.000479196 0.0101126)
(0.0013864 -0.00202683 0.0296799)
(-0.000164456 -0.0003394 0.0158301)
(0.000729824 0.00127576 0.0175967)
(-6.32693e-06 -0.000909498 0.0235366)
(0.00123827 -0.00115031 0.0172592)
(0.00126238 -0.000890408 0.0286191)
(0.00276684 0.0026573 0.0588975)
(-0.000736567 -2.05663e-05 0.0220953)
(0.000277088 -9.32545e-05 0.0281731)
(0.00110177 -0.000410806 0.0213081)
(0.000836794 0.000484001 0.0375027)
(0.0005097 0.000653574 0.0238802)
(-0.000667406 -0.00114324 0.033378)
(0.000209866 -0.00020457 0.0219986)
(0.000703736 -0.000755627 0.0159627)
(0.00123935 -0.00174531 0.0197401)
(-0.000154321 0.000442603 0.0349424)
(0.00049493 -0.00123924 0.0275155)
(0.000682864 -0.00306229 0.0168144)
(0.0018518 -0.000784466 0.019088)
(0.00050728 -0.000264225 0.0241828)
(-0.00383912 0.000447695 0.0275737)
(0.00139689 -0.00159004 0.0184662)
(0.00108527 0.000192726 0.0286756)
(0.0018145 -0.000221602 0.0168746)
(-0.00122976 0.00178986 0.0221999)
(-0.00197067 0.00210531 0.025766)
(0.0016201 -0.00432079 0.0523389)
(0.00010432 -0.000889107 0.0106493)
(0.00046176 -0.00169734 0.0317009)
(0.00103517 -0.00112274 0.00959459)
(3.4488e-05 0.000596718 0.0151441)
(-0.000218468 0.000201982 0.0110174)
(0.000100187 0.000971395 0.0163628)
(0.00154138 -0.00105697 0.0169075)
(0.00106297 0.00108615 0.0116052)
(4.08877e-05 0.00102706 0.0195951)
(-0.000211841 -0.000818668 0.0103793)
(0.00053738 -0.00192141 0.0122318)
(0.00120833 0.000847906 0.0123624)
(-0.000628081 -0.000693477 0.013022)
(-0.00358852 -0.00502204 0.028863)
(0.00293408 -0.00378656 0.0256207)
(-6.56629e-05 -2.96449e-05 0.0136327)
(0.000393244 -3.66384e-05 0.0232185)
(0.000487269 -0.000361362 0.0151283)
(0.000170857 -5.3062e-05 0.0107081)
(8.9659e-05 4.55799e-05 0.0100767)
(-6.50559e-05 -7.82191e-05 0.0139129)
(-0.000159819 -0.000179579 0.0117005)
(9.35864e-05 -0.000352121 0.0129446)
(-4.45361e-05 -0.000427665 0.0122428)
(-0.000358218 -0.000348557 0.0225313)
(0.000460435 -0.000461901 0.0201437)
(0.00173468 -0.00284381 0.0150278)
(2.33632e-05 -0.000204475 0.015565)
(-6.49207e-05 -0.000280444 0.0127148)
(-0.00242362 -0.00144766 0.0122063)
(0.00031831 -7.98991e-05 0.00992431)
(-0.000824355 0.000422986 0.0237631)
(-0.000365221 0.000199157 0.0259956)
(-9.99354e-05 0.000338715 0.0233207)
(-0.000624144 0.000461623 0.0184016)
(-0.000511052 0.000228098 0.0185867)
(-0.000284703 -5.11627e-05 0.0223783)
(-0.000214089 0.000118936 0.019997)
(-0.000604554 0.000268832 0.0205649)
(-0.000657462 -0.000357405 0.0187834)
(-0.000452298 -0.000159705 0.0255071)
(0.000191905 0.000258144 0.0254308)
(-0.000583913 0.000311982 0.0224481)
(-0.000406198 -0.000295755 0.020609)
(-0.000200543 0.000293936 0.0221654)
(-0.000106651 0.000337468 0.0247376)
(-0.000586162 0.000281367 0.0151496)
(-0.00020711 0.00037866 0.00702558)
(0.000282832 -0.000134876 0.00751446)
(0.000501195 -0.000254205 0.00665269)
(-0.000406729 -9.4147e-05 0.0060908)
(-0.000228435 0.000499186 0.00615327)
(5.99565e-05 3.72614e-05 0.00693693)
(0.000388471 -0.000244285 0.00625419)
(-0.000497746 -0.000156078 0.00614893)
(-0.000299446 0.000106088 0.00589795)
(-0.000317343 -2.89541e-05 0.00740662)
(0.000441551 -0.000116136 0.00711854)
(-0.00056319 0.000462122 0.00628814)
(-9.02061e-05 7.38364e-06 0.00593034)
(-0.000249525 0.000130245 0.00668381)
(0.000572802 0.000269454 0.00660275)
(-0.00025474 0.000552352 0.0047717)
(-0.000215491 0.000169318 0.0122786)
(-1.66594e-05 -0.000135187 0.0123002)
(7.56003e-05 -0.000243011 0.0118778)
(-0.000333743 -0.000208645 0.0116061)
(-0.000248628 0.000125269 0.0120108)
(-0.000156353 -0.000122315 0.0121859)
(4.91449e-05 -0.000243599 0.0118577)
(-0.000380852 -0.000172252 0.0116235)
(-0.000265208 -2.24526e-05 0.0118523)
(-0.000307555 -0.000134198 0.0122965)
(7.15588e-05 -0.000136782 0.0122033)
(-0.000393377 0.000121799 0.0116853)
(-0.0001911 -9.18981e-05 0.0117836)
(-0.000298098 -8.42781e-05 0.0120649)
(0.000158269 5.29196e-05 0.0120405)
(-0.000257981 0.000188632 0.0110293)
(-2.15654e-05 2.13964e-05 0.0109553)
(5.24769e-05 -7.49117e-05 0.0110154)
(3.00841e-05 -0.00013098 0.0109049)
(-0.000181926 -0.000132687 0.0108611)
(-6.53193e-05 5.31325e-05 0.0108561)
(-1.42741e-05 -3.03887e-05 0.0110027)
(2.31681e-05 -9.32041e-05 0.0109478)
(-0.000206934 -7.09463e-05 0.0108894)
(-8.48446e-05 2.52609e-05 0.0107889)
(-7.96578e-05 -1.52142e-05 0.0110395)
(2.54462e-05 -3.05341e-05 0.0110729)
(-0.000210963 5.27665e-05 0.0109144)
(-5.93228e-05 -1.34804e-05 0.0107489)
(-8.12914e-05 -1.48388e-05 0.0109811)
(6.26501e-05 2.68475e-05 0.0110351)
(-0.000166137 6.80484e-05 0.0106933)
(-1.86142e-05 -6.66142e-06 0.0110895)
(-1.77903e-06 -5.27537e-05 0.0110781)
(-2.1798e-05 -8.29976e-05 0.011025)
(-0.000115358 -9.31362e-05 0.0110123)
(-3.84822e-05 2.93516e-06 0.0110639)
(-2.97413e-05 -3.36617e-05 0.0110828)
(-2.68809e-05 -5.82391e-05 0.0110474)
(-0.000129567 -5.21856e-05 0.0110222)
(-4.66636e-05 -4.00147e-06 0.0110349)
(-5.25341e-05 -2.29749e-05 0.011085)
(-2.56816e-05 -2.62505e-05 0.0110771)
(-0.000132181 2.91303e-06 0.0110171)
(-3.91941e-05 -1.81143e-05 0.0110126)
(-5.47372e-05 -2.17687e-05 0.0110611)
(-1.17317e-05 -2.90978e-06 0.0110569)
(-0.000118534 1.40165e-05 0.0109334)
(-1.34918e-05 -1.30831e-05 0.011068)
(-1.3895e-05 -3.34917e-05 0.0110685)
(-3.04679e-05 -4.93858e-05 0.0110568)
(-7.42936e-05 -5.80861e-05 0.0110615)
(-2.22541e-05 -7.69124e-06 0.0110604)
(-2.52896e-05 -2.38236e-05 0.0110743)
(-3.43548e-05 -3.52162e-05 0.0110709)
(-8.20907e-05 -3.54982e-05 0.0110728)
(-2.6003e-05 -8.68959e-06 0.0110509)
(-3.37717e-05 -1.78276e-05 0.0110758)
(-3.44826e-05 -1.99177e-05 0.0110811)
(-8.4184e-05 -9.94407e-06 0.011072)
(-2.37906e-05 -1.39587e-05 0.011043)
(-3.51723e-05 -1.66912e-05 0.0110699)
(-3.0019e-05 -9.72468e-06 0.0110761)
(-8.07264e-05 -1.34078e-06 0.0110467)
(-1.20808e-05 -1.16117e-05 0.0110708)
(-1.6565e-05 -2.1273e-05 0.0110721)
(-2.78385e-05 -2.94174e-05 0.0110714)
(-4.91756e-05 -3.49251e-05 0.0110789)
(-1.54593e-05 -8.96253e-06 0.0110691)
(-2.10153e-05 -1.64669e-05 0.011076)
(-3.0184e-05 -2.18781e-05 0.0110793)
(-5.32658e-05 -2.30664e-05 0.0110875)
(-1.68257e-05 -8.91396e-06 0.0110659)
(-2.39341e-05 -1.33697e-05 0.0110771)
(-3.04776e-05 -1.44253e-05 0.0110837)
(-5.45262e-05 -1.0553e-05 0.0110891)
(-1.60409e-05 -1.08852e-05 0.0110632)
(-2.45453e-05 -1.24604e-05 0.0110759)
(-2.91054e-05 -9.40778e-06 0.0110831)
(-5.37316e-05 -4.37127e-06 0.0110822)
(-1.0515e-05 -8.69971e-06 0.0110759)
(-1.50108e-05 -1.35564e-05 0.0110779)
(-2.22582e-05 -1.78105e-05 0.0110803)
(-3.30827e-05 -2.09825e-05 0.0110872)
(-1.16248e-05 -7.5313e-06 0.0110756)
(-1.66913e-05 -1.13128e-05 0.0110801)
(-2.35293e-05 -1.39707e-05 0.0110847)
(-3.51494e-05 -1.48303e-05 0.0110928)
(-1.1922e-05 -7.4627e-06 0.0110747)
(-1.75966e-05 -9.77895e-06 0.011081)
(-2.36954e-05 -1.02004e-05 0.0110871)
(-3.57536e-05 -8.32069e-06 0.0110949)
(-1.14852e-05 -8.3262e-06 0.0110739)
(-1.77709e-05 -9.20175e-06 0.0110811)
(-2.33072e-05 -7.49595e-06 0.0110875)
(-3.55722e-05 -4.05378e-06 0.0110936)
(-8.65986e-06 -6.08702e-06 0.0110813)
(-1.21768e-05 -8.63954e-06 0.0110833)
(-1.67378e-05 -1.08989e-05 0.0110863)
(-2.24382e-05 -1.26429e-05 0.0110917)
(-8.87154e-06 -5.65819e-06 0.0110813)
(-1.27521e-05 -7.66717e-06 0.0110846)
(-1.73744e-05 -8.99113e-06 0.0110888)
(-2.34448e-05 -9.42627e-06 0.0110953)
(-8.73925e-06 -5.71707e-06 0.011081)
(-1.29257e-05 -6.96199e-06 0.0110852)
(-1.7415e-05 -7.04955e-06 0.0110902)
(-2.36639e-05 -5.87994e-06 0.0110971)
(-8.38684e-06 -6.22599e-06 0.0110808)
(-1.2899e-05 -6.68189e-06 0.0110855)
(-1.72904e-05 -5.52347e-06 0.0110908)
(-2.35892e-05 -3.05572e-06 0.0110973)
(-6.81375e-06 -4.13952e-06 0.0110856)
(-9.33248e-06 -5.51148e-06 0.0110874)
(-1.21866e-05 -6.71407e-06 0.01109)
(-1.52875e-05 -7.63631e-06 0.011094)
(-6.70077e-06 -4.04672e-06 0.0110856)
(-9.46427e-06 -5.13356e-06 0.0110881)
(-1.24698e-05 -5.77489e-06 0.0110915)
(-1.57491e-05 -5.91676e-06 0.0110963)
(-6.42979e-06 -4.18557e-06 0.0110855)
(-9.377e-06 -4.84933e-06 0.0110885)
(-1.2423e-05 -4.76611e-06 0.0110924)
(-1.57716e-05 -3.92533e-06 0.0110976)
(-6.1166e-06 -4.56166e-06 0.0110854)
(-9.26566e-06 -4.76639e-06 0.0110888)
(-1.23501e-05 -3.90574e-06 0.0110929)
(-1.56972e-05 -2.1272e-06 0.0110982)
(-5.19007e-06 -2.7812e-06 0.0110888)
(-6.92692e-06 -3.52451e-06 0.0110903)
(-8.71066e-06 -4.15524e-06 0.0110924)
(-1.0442e-05 -4.6205e-06 0.0110953)
(-4.98326e-06 -2.82819e-06 0.0110888)
(-6.88563e-06 -3.41393e-06 0.0110907)
(-8.80688e-06 -3.69868e-06 0.0110933)
(-1.06287e-05 -3.67981e-06 0.0110967)
(-4.696e-06 -2.99127e-06 0.0110887)
(-6.71779e-06 -3.33311e-06 0.011091)
(-8.71429e-06 -3.17633e-06 0.0110939)
(-1.05643e-05 -2.54177e-06 0.0110977)
(-4.42455e-06 -3.29031e-06 0.0110887)
(-6.58082e-06 -3.3548e-06 0.0110911)
(-8.64347e-06 -2.70078e-06 0.0110943)
(-1.04825e-05 -1.42834e-06 0.0110981)
(-3.8499e-06 -1.85577e-06 0.0110911)
(-5.02213e-06 -2.25441e-06 0.0110924)
(-6.13548e-06 -2.57253e-06 0.011094)
(-7.12424e-06 -2.79186e-06 0.0110961)
(-3.6396e-06 -1.94905e-06 0.011091)
(-4.92231e-06 -2.25675e-06 0.0110925)
(-6.14023e-06 -2.35859e-06 0.0110945)
(-7.17829e-06 -2.27134e-06 0.0110969)
(-3.38458e-06 -2.10207e-06 0.011091)
(-4.74666e-06 -2.26664e-06 0.0110927)
(-6.03441e-06 -2.09483e-06 0.0110949)
(-7.0865e-06 -1.61748e-06 0.0110975)
(-3.1608e-06 -2.3384e-06 0.011091)
(-4.61458e-06 -2.33186e-06 0.0110928)
(-5.96362e-06 -1.84056e-06 0.0110951)
(-7.00723e-06 -9.41861e-07 0.0110979)
(-2.77796e-06 -1.22622e-06 0.0110927)
(-3.55313e-06 -1.43341e-06 0.0110937)
(-4.24463e-06 -1.58285e-06 0.011095)
(-4.82138e-06 -1.67488e-06 0.0110965)
(-2.59783e-06 -1.32253e-06 0.0110926)
(-3.4455e-06 -1.47654e-06 0.0110938)
(-4.21154e-06 -1.49132e-06 0.0110953)
(-4.81721e-06 -1.38903e-06 0.011097)
(-2.39184e-06 -1.45045e-06 0.0110926)
(-3.29214e-06 -1.51999e-06 0.0110939)
(-4.11328e-06 -1.36529e-06 0.0110955)
(-4.72799e-06 -1.01594e-06 0.0110974)
(-2.21715e-06 -1.6319e-06 0.0110926)
(-3.18007e-06 -1.59493e-06 0.011094)
(-4.04997e-06 -1.23595e-06 0.0110957)
(-4.65989e-06 -6.13203e-07 0.0110977)
(-1.93121e-06 -7.94806e-07 0.0110938)
(-2.42933e-06 -8.96109e-07 0.0110946)
(-2.85328e-06 -9.58247e-07 0.0110956)
(-3.19517e-06 -9.8711e-07 0.0110967)
(-1.7927e-06 -8.74567e-07 0.0110937)
(-2.33658e-06 -9.45559e-07 0.0110946)
(-2.81061e-06 -9.25627e-07 0.0110957)
(-3.17035e-06 -8.3396e-07 0.011097)
(-1.6387e-06 -9.72833e-07 0.0110936)
(-2.21698e-06 -9.93574e-07 0.0110947)
(-2.73084e-06 -8.70399e-07 0.0110959)
(-3.09663e-06 -6.25756e-07 0.0110973)
(-1.51019e-06 -1.10655e-06 0.0110936)
(-2.13097e-06 -1.06161e-06 0.0110947)
(-2.68121e-06 -8.10009e-07 0.011096)
(-3.0443e-06 -3.91471e-07 0.0110975)
(-1.26698e-06 -4.97229e-07 0.0110945)
(-1.57073e-06 -5.41114e-07 0.0110951)
(-1.82191e-06 -5.61434e-07 0.0110959)
(-2.02338e-06 -5.61456e-07 0.0110968)
(-1.17115e-06 -5.52858e-07 0.0110944)
(-1.50182e-06 -5.80418e-07 0.0110951)
(-1.78376e-06 -5.52917e-07 0.0110961)
(-1.99598e-06 -4.82163e-07 0.011097)
(-1.06546e-06 -6.2085e-07 0.0110943)
(-1.41828e-06 -6.18225e-07 0.0110952)
(-1.72646e-06 -5.30872e-07 0.0110962)
(-1.94208e-06 -3.70674e-07 0.0110972)
(-9.77324e-07 -7.12765e-07 0.0110943)
(-1.35868e-06 -6.7169e-07 0.0110952)
(-1.69289e-06 -5.06517e-07 0.0110963)
(-1.90664e-06 -2.39979e-07 0.0110973)
(-7.64781e-07 -2.96761e-07 0.0110949)
(-9.33667e-07 -3.12223e-07 0.0110955)
(-1.07013e-06 -3.15196e-07 0.0110962)
(-1.17992e-06 -3.05809e-07 0.0110968)
(-7.055e-07 -3.30218e-07 0.0110948)
(-8.89487e-07 -3.3679e-07 0.0110955)
(-1.0427e-06 -3.1348e-07 0.0110962)
(-1.15812e-06 -2.65577e-07 0.011097)
(-6.39726e-07 -3.69794e-07 0.0110948)
(-8.37899e-07 -3.59178e-07 0.0110955)
(-1.00677e-06 -3.04118e-07 0.0110963)
(-1.12359e-06 -2.08387e-07 0.0110972)
(-5.84094e-07 -4.24466e-07 0.0110948)
(-8.0128e-07 -3.93653e-07 0.0110955)
(-9.87424e-07 -2.94134e-07 0.0110964)
(-1.10288e-06 -1.37994e-07 0.0110973)
(-4.51854e-07 -1.95874e-07 0.0110952)
(-5.40163e-07 -1.97893e-07 0.0110957)
(-6.11128e-07 -1.95473e-07 0.0110963)
(-6.62247e-07 -1.87189e-07 0.0110969)
(-4.17015e-07 -2.1019e-07 0.0110951)
(-5.14412e-07 -2.07612e-07 0.0110957)
(-5.94513e-07 -1.90515e-07 0.0110963)
(-6.48478e-07 -1.60451e-07 0.011097)
(-3.78151e-07 -2.26521e-07 0.0110951)
(-4.84703e-07 -2.15503e-07 0.0110957)
(-5.73966e-07 -1.81068e-07 0.0110964)
(-6.2892e-07 -1.24772e-07 0.0110971)
(-3.43166e-07 -2.5122e-07 0.0110951)
(-4.62497e-07 -2.29245e-07 0.0110957)
(-5.62849e-07 -1.70138e-07 0.0110965)
(-6.18156e-07 -8.05165e-08 0.0110972)
(0.000413747 -0.000454125 0.0110876)
(0.000466435 0.00104628 0.0188817)
(-0.00500373 0.00396542 0.0176698)
(-0.00344323 0.000238215 0.0113416)
(0.000399735 0.00125421 0.0166095)
(-8.63733e-05 0.000507787 0.0118228)
(-0.00359655 0.000119651 0.012643)
(-0.00320344 0.00126061 0.00944081)
(-0.000136076 0.000816951 0.00879179)
(-0.00399 0.00141874 0.0175864)
(-0.00520857 0.00066716 0.0157187)
(-0.00366001 0.0021033 0.0146746)
(-0.0035279 -0.000299521 0.0136201)
(-0.0027378 -0.000304827 0.0105401)
(-0.00552094 -0.00104802 0.019066)
(-0.00423958 0.000171051 0.0104312)
(-0.00131492 -9.15023e-05 0.0243377)
(-0.00175348 -0.000652802 0.0264613)