/*--------------------------------*- C++ -*----------------------------------*\
| =========                 |                                                 |
| \\      /  F ield         | OpenFOAM: The Open Source CFD Toolbox           |
|  \\    /   O peration     | Version:  2506                                  |
|   \\  /    A nd           | Website:  www.openfoam.com                      |
|    \\/     M anipulation  |                                                 |
\*---------------------------------------------------------------------------*/
FoamFile
{
    version     2.0;
    format      ascii;
    arch        "LSB;label=32;scalar=64";
    class       volScalarField;
    location    "0.05";
    object      voidfraction;
}
// * * * * * * * * * * * * * * * * * * * * * * * * * * * * * * * * * * * * * //

dimensions      [0 0 0 0 0 0 0];

internalField   nonuniform List<scalar> 
1152
(
0.475963
0.39433
0.354829
0.454897
0.423296
0.444363
0.460163
0.383796
0.491764
0.46543
0.460163
0.391696
0.391696
0.389063
0.423296
0.444363
0.354829
0.362729
0.444363
0.44963
0.354829
0.370629
0.423296
0.41013
0.391696
0.41803
0.43383
0.41013
0.367996
0.39433
0.44963
0.317962
0.310062
0.47333
0.391696
0.381163
0.391696
0.381163
0.375896
0.296896
0.41803
0.415396
0.362729
0.38643
0.420663
0.436463
0.404863
0.399596
0.44173
0.407496
0.462797
0.44963
0.423296
0.39433
0.415396
0.354829
0.39433
0.378529
0.399596
0.436463
0.44173
0.41803
0.378529
0.291629
0.381163
0.415396
0.462797
0.360096
0.40223
0.354829
0.423296
0.399596
0.494397
0.352196
0.44173
0.396963
0.39433
0.312696
0.38643
0.391696
0.44963
0.331129
0.354829
0.404863
0.41803
0.391696
0.365363
0.341663
0.50493
0.396963
0.43383
0.41013
0.40223
0.428563
0.383796
0.302162
0.694531
0.633964
0.707698
0.641864
0.676098
0.723498
0.631331
0.626064
0.826199
0.784065
0.636598
0.702431
0.699798
0.697165
0.589197
0.799865
1
1
1
1
1
1
1
1
1
1
1
1
1
1
1
1
1
1
1
1
1
1
1
1
1
1
1
1
1
1
1
1
1
1
1
1
1
1
1
1
1
1
1
1
1
1
1
1
1
1
1
1
1
1
1
1
1
1
1
1
1
1
1
1
1
1
1
1
1
1
1
1
1
1
1
1
1
1
1
1
1
1
1
1
1
1
1
1
1
1
1
1
1
1
1
1
1
1
1
1
1
1
1
1
1
1
1
1
1
1
1
1
1
1
1
1
1
1
1
1
1
1
1
1
1
1
1
1
1
1
1
1
1
1
1
1
1
1
1
1
1
1
1
1
1
1
1
1
1
1
1
1
1
1
1
1
1
1
1
1
1
1
1
1
1
1
1
1
1
1
1
1
1
1
1
1
1
1
1
1
1
1
1
1
1
1
1
1
1
1
1
1
1
1
1
1
1
1
1
1
1
1
1
1
1
1
1
1
1
1
1
1
1
1
1
1
1
1
1
1
1
1
1
1
1
1
1
1
1
1
1
1
1
1
1
1
1
1
1
1
1
1
1
1
1
1
1
1
1
1
1
1
1
1
1
1
1
1
1
1
1
1
1
1
1
1
1
1
1
1
1
1
0.456753
0.412649
0.453207
0.513863
0.408839
0.473721
0.480053
0.427367
0.483292
0.459173
0.484108
0.481732
0.436159
0.467322
0.443532
0.495313
0.369133
0.528193
0.369293
0.340958
0.354438
0.357386
0.420699
0.347774
0.381189
0.422631
0.441822
0.418432
0.441554
0.367308
0.435909
0.420147
0.395419
0.361296
0.388241
0.488804
0.397959
0.385085
0.427821
0.400836
0.436882
0.437248
0.41645
0.380848
0.419972
0.393399
0.447343
0.348561
0.500563
0.396601
0.472155
0.381052
0.325424
0.423863
0.356596
0.367672
0.393565
0.361727
0.427022
0.531185
0.395692
0.419489
0.388266
0.470258
0.408562
0.428697
0.399069
0.34597
0.383452
0.443252
0.420699
0.356617
0.371906
0.395833
0.410107
0.374913
0.419972
0.360786
0.392077
0.425516
0.553136
0.396601
0.488396
0.361005
0.423346
0.382315
0.43257
0.425157
0.390471
0.446992
0.37205
0.367001
0.390296
0.399921
0.504514
0.466679
0.667042
0.743234
0.667052
0.656697
0.601057
0.659304
0.613008
0.66836
0.659654
0.783182
0.718797
0.647894
0.673566
0.704309
0.605517
0.545424
1
1
1
1
1
1
1
1
1
1
1
1
1
1
1
1
1
1
1
1
1
1
1
1
1
1
1
1
1
1
1
1
1
1
1
1
1
1
1
1
1
1
1
1
1
1
1
1
1
1
1
1
1
1
1
1
1
1
1
1
1
1
1
1
1
1
1
1
1
1
1
1
1
1
1
1
1
1
1
1
1
1
1
1
1
1
1
1
1
1
1
1
1
1
1
1
1
1
1
1
1
1
1
1
1
1
1
1
1
1
1
1
1
1
1
1
1
1
1
1
1
1
1
1
1
1
1
1
1
1
1
1
1
1
1
1
1
1
1
1
1
1
1
1
1
1
1
1
1
1
1
1
1
1
1
1
1
1
1
1
1
1
1
1
1
1
1
1
1
1
1
1
1
1
1
1
1
1
1
1
1
1
1
1
1
1
1
1
1
1
1
1
1
1
1
1
1
1
1
1
1
1
1
1
1
1
1
1
1
1
1
1
1
1
1
1
1
1
1
1
1
1
1
1
1
1
1
1
1
1
1
1
1
1
1
1
1
1
1
1
1
1
1
1
1
1
1
1
1
1
1
1
1
1
1
1
1
1
1
1
1
1
1
1
1
1
1
1
1
1
1
1
0.434465
0.501513
0.491485
0.41864
0.477834
0.439708
0.451563
0.401776
0.434709
0.503024
0.487571
0.464002
0.473928
0.433788
0.495881
0.421705
0.420147
0.428323
0.484852
0.343464
0.382549
0.412222
0.470557
0.382827
0.506457
0.476226
0.360156
0.40302
0.490115
0.381189
0.463241
0.408562
0.443413
0.42041
0.422946
0.398593
0.435909
0.450279
0.377963
0.377414
0.441231
0.434812
0.401704
0.412649
0.368714
0.384283
0.416093
0.469896
0.468468
0.519316
0.449477
0.373534
0.449249
0.380507
0.425447
0.358465
0.38905
0.408014
0.418323
0.425487
0.441554
0.412129
0.383452
0.35599
0.429096
0.418432
0.405258
0.386064
0.393983
0.424908
0.413576
0.377414
0.399921
0.415322
0.390625
0.390182
0.479324
0.337872
0.459614
0.342847
0.393302
0.432279
0.438422
0.411122
0.409229
0.382621
0.41595
0.390948
0.406444
0.434812
0.343537
0.370924
0.411879
0.421411
0.390705
0.351609
0.613432
0.624157
0.681625
0.614097
0.592177
0.670168
0.734091
0.677879
0.552115
0.724714
0.723011
0.727187
0.598027
0.582302
0.706233
0.680185
1
1
1
1
1
1
1
1
1
1
1
1
1
1
1
1
1
1
1
1
1
1
1
1
1
1
1
1
1
1
1
1
1
1
1
1
1
1
1
1
1
1
1
1
1
1
1
1
1
1
1
1
1
1
1
1
1
1
1
1
1
1
1
1
1
1
1
1
1
1
1
1
1
1
1
1
1
1
1
1
1
1
1
1
1
1
1
1
1
1
1
1
1
1
1
1
1
1
1
1
1
1
1
1
1
1
1
1
1
1
1
1
1
1
1
1
1
1
1
1
1
1
1
1
1
1
1
1
1
1
1
1
1
1
1
1
1
1
1
1
1
1
1
1
1
1
1
1
1
1
1
1
1
1
1
1
1
1
1
1
1
1
1
1
1
1
1
1
1
1
1
1
1
1
1
1
1
1
1
1
1
1
1
1
1
1
1
1
1
1
1
1
1
1
1
1
1
1
1
1
1
1
1
1
1
1
1
1
1
1
1
1
1
1
1
1
1
1
1
1
1
1
1
1
1
1
1
1
1
1
1
1
1
1
1
1
1
1
1
1
1
1
1
1
1
1
1
1
1
1
1
1
1
1
1
1
1
1
1
1
1
1
1
1
1
1
1
1
1
1
1
1
)
;

boundaryField
{
    inlet
    {
        type            fixedValue;
        value           uniform 1;
    }
    outlet
    {
        type            fixedValue;
        value           uniform 1;
    }
    wall
    {
        type            zeroGradient;
    }
    procBoundary2to0
    {
        type            processor;
        value           nonuniform List<scalar> 
192
(
0.436463
0.570764
0.452263
0.53653
0.423296
0.404863
0.38643
0.420663
0.428563
0.344296
0.365363
0.47333
0.404863
0.39433
0.336396
0.302162
0.378529
0.367996
0.320596
0.404863
0.323229
0.44173
0.428563
0.491764
0.781432
0.818299
0.668198
0.628698
1
1
1
1
1
1
1
1
1
1
1
1
1
1
1
1
1
1
1
1
1
1
1
1
1
1
1
1
1
1
1
1
1
1
1
1
1
1
1
1
1
1
1
1
1
1
1
1
1
1
1
1
1
1
1
1
1
1
1
1
1
1
1
1
1
1
1
1
0.484575
0.424366
0.380938
0.471263
0.479206
0.398651
0.341141
0.416134
0.361088
0.457994
0.442844
0.44871
0.362878
0.321504
0.391992
0.416134
0.475627
0.382826
0.394203
0.34597
0.448782
0.436235
0.391992
0.49131
0.584797
0.588551
0.602031
0.629132
1
1
1
1
1
1
1
1
1
1
1
1
1
1
1
1
1
1
1
1
1
1
1
1
1
1
1
1
1
1
1
1
1
1
1
1
1
1
1
1
1
1
1
1
1
1
1
1
1
1
1
1
1
1
1
1
1
1
1
1
1
1
1
1
1
1
1
1
)
;
    }
    procBoundary2to3
    {
        type            processor;
        value           nonuniform List<scalar> 
192
(
0.452263
0.486497
0.51283
0.407496
0.431196
0.352196
0.373263
0.423296
0.373263
0.46543
0.323229
0.41803
0.41803
0.44963
0.354829
0.436463
0.468063
0.407496
0.412763
0.378529
0.396963
0.462797
0.391696
0.541797
0.694531
0.623431
0.694531
0.702431
1
1
1
1
1
1
1
1
1
1
1
1
1
1
1
1
1
1
1
1
1
1
1
1
1
1
1
1
1
1
1
1
1
1
1
1
1
1
1
1
1
1
1
1
1
1
1
1
1
1
1
1
1
1
1
1
1
1
1
1
1
1
1
1
1
1
1
1
0.463745
0.434
0.390738
0.420147
0.423652
0.425157
0.416454
0.40404
0.383558
0.427367
0.382826
0.470258
0.431169
0.354407
0.370957
0.386144
0.413628
0.429578
0.42041
0.402251
0.451216
0.349985
0.509426
0.359299
0.744402
0.677203
0.776472
0.699336
1
1
1
1
1
1
1
1
1
1
1
1
1
1
1
1
1
1
1
1
1
1
1
1
1
1
1
1
1
1
1
1
1
1
1
1
1
1
1
1
1
1
1
1
1
1
1
1
1
1
1
1
1
1
1
1
1
1
1
1
1
1
1
1
1
1
1
1
)
;
    }
}


// ************************************************************************* //
