/*--------------------------------*- C++ -*----------------------------------*\
| =========                 |                                                 |
| \\      /  F ield         | OpenFOAM: The Open Source CFD Toolbox           |
|  \\    /   O peration     | Version:  2506                                  |
|   \\  /    A nd           | Website:  www.openfoam.com                      |
|    \\/     M anipulation  |                                                 |
\*---------------------------------------------------------------------------*/
FoamFile
{
    version     2.0;
    format      ascii;
    arch        "LSB;label=32;scalar=64";
    class       surfaceScalarField;
    location    "0.009";
    object      phi;
}
// * * * * * * * * * * * * * * * * * * * * * * * * * * * * * * * * * * * * * //

dimensions      [0 3 -1 0 0 0 0];

oriented        oriented;

internalField   nonuniform List<scalar> 
1200
(
0.0015368
-9.09053e-07
3.76733e-07
0.00153336
2.16215e-06
2.5142e-06
0.00153471
1.4163e-06
-5.18856e-07
0.00153174
1.31825e-06
1.50671e-06
0.00152601
1.53018e-06
3.26237e-06
0.00152582
2.63727e-06
3.36789e-06
0.00153152
1.34151e-06
-1.42065e-06
0.00153866
-1.72294e-06
-5.88187e-06
0.0015437
-2.47945e-06
-3.90881e-06
0.00153821
-9.01854e-07
2.96378e-06
0.00152819
1.69394e-06
1.39517e-06
0.00152447
9.08403e-08
-7.3952e-07
0.00152799
-1.20545e-06
2.95002e-06
0.00153074
-7.6481e-07
4.78729e-06
0.00153248
2.3912e-06
-1.89848e-06
0.00153102
4.762e-06
-6.8619e-06
0.0015278
2.59233e-06
-3.32734e-06
0.00152954
-2.5035e-06
1.13921e-06
0.00153281
-1.90237e-06
-2.89613e-07
0.00153667
-8.24856e-07
-2.80944e-06
0.0015366
-2.82067e-07
-1.00333e-06
0.00153084
1.5406e-07
9.2288e-07
0.00152636
3.8502e-07
-4.12349e-07
0.00152892
-1.40174e-06
-3.2814e-06
0.00152893
-1.86706e-07
-8.23756e-07
0.00152364
1.44457e-06
2.38284e-06
0.00152306
7.36021e-07
1.15457e-06
0.00152462
-1.73359e-07
5.25456e-07
0.00152503
-2.71013e-07
-9.48226e-07
0.00152853
-2.31269e-07
-8.19441e-07
0.00153447
-2.38078e-06
4.61158e-07
-3.38881e-06
-6.63234e-07
0.00155675
-3.68063e-06
-3.27852e-06
0.00156171
-8.67865e-07
4.121e-07
0.00156138
4.24855e-06
1.29999e-06
0.00155263
6.78225e-06
3.94685e-06
0.00154562
6.33506e-06
3.36488e-06
0.00155348
-1.73615e-07
9.72106e-08
0.00156305
-2.80243e-06
-2.16967e-06
0.00157019
-5.55569e-06
-6.26402e-06
0.00157552
-6.23395e-06
-5.55459e-06
0.00156615
-7.02478e-07
6.56762e-06
0.00155391
3.64021e-06
5.81207e-06
0.00155078
2.71977e-06
-2.37759e-06
0.00155421
-2.91452e-08
-1.10046e-08
0.00155086
5.8893e-07
5.8306e-06
0.00154781
4.58368e-06
2.91781e-06
0.00155714
1.61482e-06
-8.05959e-06
0.00156071
1.02048e-06
-4.62476e-06
0.0015583
-1.11305e-06
2.04281e-06
0.00155717
-3.32995e-07
1.12898e-06
0.00155929
-7.68063e-07
-1.38892e-06
0.0015604
-7.86655e-07
-1.60534e-06
0.00155913
-8.81082e-07
-6.24716e-07
0.00155918
-2.06382e-06
-1.91032e-06
0.00155976
-4.14806e-06
-1.77741e-06
0.0015579
-1.72451e-06
2.49376e-06
0.00155469
2.60744e-06
3.08777e-06
0.0015552
1.86698e-06
-2.75158e-08
0.00155239
2.18243e-06
-9.3294e-08
0.00154437
4.1886e-06
3.27443e-06
0.00154325
2.64864e-06
3.20514e-06
0.00155208
-6.36223e-06
-4.29986e-07
-7.3836e-06
-2.63887e-06
0.0015533
-6.74944e-06
-2.06066e-06
0.00155614
-5.24637e-06
9.52247e-07
0.00155747
1.04931e-06
2.555e-06
0.00155605
7.53727e-06
4.0479e-06
0.00155307
1.04364e-05
4.03419e-06
0.00155801
1.91877e-06
4.80719e-07
0.0015689
-4.47771e-06
-4.50144e-06
0.00157224
-5.0873e-06
-7.00375e-06
0.00156998
-3.594e-06
-5.40316e-06
0.00156364
-2.00499e-06
6.64446e-06
0.00155602
5.32103e-06
5.15925e-06
0.00154003
1.16928e-05
2.12628e-06
0.00153385
5.20856e-06
-7.48565e-08
0.00154775
-6.48692e-06
3.3842e-07
0.001562
-3.52031e-06
-2.40222e-06
0.00156709
5.93431e-07
-4.23901e-06
0.00156678
2.99569e-06
-3.99679e-06
0.00156472
7.75641e-07
-2.52943e-07
0.00156337
-1.04586e-06
1.77017e-06
0.00156385
-2.96705e-06
6.86845e-07
0.00156578
-3.67345e-06
-1.78822e-06
0.00156373
-2.16771e-07
-4.02162e-06
0.00156361
-6.28856e-07
-4.82009e-06
0.00156332
-2.36238e-06
-3.60385e-06
0.00156001
-8.93807e-07
-1.94018e-06
0.00155699
2.69125e-06
1.14079e-06
0.00155963
8.81391e-07
1.71043e-06
0.00156267
1.58637e-06
1.31996e-06
0.00156401
5.14196e-06
6.04085e-07
0.00156058
4.7086e-06
6.12248e-06
0.00155492
-1.50769e-06
5.08172e-06
-7.68136e-06
-1.58588e-06
0.00155795
-9.65822e-06
-1.16828e-06
0.00156199
-6.20292e-06
4.64748e-07
0.00156006
2.78657e-06
2.06982e-06
0.00155804
9.05504e-06
2.5792e-06
0.00156208
7.02882e-06
2.81443e-06
0.00156403
3.00858e-06
1.59208e-06
0.00156173
-1.91462e-06
5.81438e-07
0.00156405
-3.26011e-06
-5.21648e-06
0.00156871
-5.19717e-06
-3.66749e-06
0.00156275
-2.5232e-06
5.01063e-06
0.00155631
5.02011e-06
6.06305e-06
0.00155754
7.73599e-06
3.71156e-06
0.00155601
5.76878e-06
2.13029e-06
0.0015542
-3.65069e-06
-1.45458e-06
0.00155635
-3.15598e-06
-1.59019e-06
0.00156459
-2.03926e-06
-3.17402e-06
0.0015731
-4.56984e-08
-3.96272e-06
0.00157384
5.96352e-07
-5.52288e-07
0.00157049
-5.23233e-07
1.43498e-06
0.00156388
-3.0908e-08
1.24559e-06
0.00155879
-1.23796e-07
-6.93991e-07
0.0015614
-1.30622e-06
-3.73738e-06
0.00156407
-1.55447e-06
-2.86637e-06
0.00156258
-1.67744e-07
-6.95002e-07
0.00155778
2.91474e-06
-1.01294e-06
0.00155784
3.73232e-06
-1.39181e-06
0.00156116
7.97608e-07
9.08269e-08
0.00156394
1.54266e-06
-4.58083e-07
0.00156619
3.40425e-06
-1.82897e-06
0.00156509
4.39255e-06
2.46749e-06
0.00155853
1.00978e-06
5.66252e-06
-7.32341e-06
-3.08311e-07
0.00156571
-1.19847e-05
1.82715e-06
0.00156057
-3.28304e-06
1.7126e-07
0.00155555
6.24581e-06
-2.27765e-07
0.0015608
8.21522e-06
-3.05977e-07
0.00156687
4.85751e-06
9.35442e-07
0.00156971
2.02962e-06
2.0932e-06
0.00156977
-9.97743e-07
2.02703e-06
0.00156942
-2.99741e-06
1.23465e-06
0.00156399
-3.15106e-06
3.54003e-07
0.00155259
3.5062e-06
1.79735e-06
0.00154986
6.1256e-06
1.4992e-06
0.00155885
1.14016e-06
-8.4328e-07
0.00156528
5.03664e-07
-9.14143e-07
0.00155701
3.63264e-06
-5.54891e-07
0.00155269
8.40429e-07
-1.10961e-07
0.00155991
-3.62982e-06
-2.48431e-06
0.00156681
-2.69357e-06
-2.31494e-06
0.00156764
-1.22532e-06
1.41532e-06
0.00156446
-9.76045e-07
-2.80438e-07
0.0015624
-5.48347e-08
-6.50672e-07
0.00156536
-2.87377e-06
-1.66988e-06
0.00156872
-4.06146e-06
-1.83552e-06
0.00156605
-7.70055e-07
1.77991e-06
0.00155922
4.95172e-06
1.54762e-06
0.00155768
5.31234e-06
-1.53262e-06
0.00155888
2.47568e-06
-2.31657e-07
0.00155843
1.41651e-06
1.1098e-06
0.00155887
4.94468e-07
-1.56646e-06
0.00156278
8.51268e-07
-5.02597e-06
0.00156591
1.64101e-06
2.12638e-06
0.00156411
1.63991e-06
7.30315e-06
-7.21595e-06
6.11958e-06
0.00155764
-1.43129e-05
-2.29285e-06
0.00155505
-4.29044e-06
-5.10546e-07
0.0015521
7.29072e-06
4.79804e-06
0.00155257
9.66498e-06
6.37535e-06
0.00156188
1.67379e-06
-3.86129e-06
0.00156859
1.00002e-06
-6.88826e-06
0.00156682
2.24428e-06
-3.02352e-06
0.0015591
-1.68732e-06
8.46058e-06
0.00155121
-2.75682e-06
6.2612e-06
0.00154573
5.52421e-06
1.06705e-06
0.00155109
4.09418e-06
-3.59183e-06
0.0015563
-9.87953e-07
-2.41829e-06
0.00155461
1.33891e-06
2.20744e-06
0.00155787
1.71634e-06
1.08578e-06
0.00156076
1.69173e-07
-7.73312e-07
0.00155966
-6.70813e-07
-3.99071e-06
0.001561
-1.83015e-06
-4.28613e-06
0.00156302
-3.36591e-06
-1.27282e-06
0.00156299
-1.86139e-06
-7.7037e-07
0.00156409
-1.04305e-06
-9.56547e-07
0.00156459
-3.71843e-06
1.16391e-06
0.00155811
-7.65573e-07
1.47149e-06
0.00154942
2.92449e-06
3.85257e-06
0.00155204
3.46458e-06
1.03149e-06
0.00155938
1.94311e-06
-2.17724e-06
0.00156518
7.57643e-07
-4.29295e-06
0.00156613
1.55182e-06
-9.0401e-07
0.00156523
8.71514e-07
4.76523e-07
0.00156019
3.40564e-06
4.68721e-07
0.00155628
2.55916e-06
-7.9315e-08
0.00155323
3.70799e-06
-1.23772e-06
-7.57727e-06
-1.94415e-06
0.00154924
-4.57364e-06
-1.45214e-06
0.00154628
-3.74524e-06
-9.80555e-07
0.00155304
1.45029e-06
3.04618e-07
0.00156405
1.95464e-06
1.10199e-06
0.00156882
-6.53707e-07
-1.50661e-06
0.00156939
3.92761e-06
-2.82446e-06
0.00156277
4.59743e-06
7.79156e-06
0.00155428
6.83828e-07
7.96798e-06
0.0015452
-2.60157e-07
3.61508e-06
0.00155001
2.6048e-06
-5.33481e-06
0.00155208
3.62571e-06
-4.27439e-06
0.00155233
2.96409e-08
-1.73372e-06
0.00155624
-1.40392e-06
2.74996e-06
0.00155981
-2.00433e-06
3.62657e-06
0.00156048
-9.08229e-07
8.67822e-07
0.00156035
1.76501e-07
-3.0165e-06
0.00155989
-5.96399e-07
-2.95792e-06
0.00155478
-5.51626e-07
1.91062e-08
0.00155622
-2.464e-06
-1.86866e-06
0.00156261
-4.88849e-06
-6.58759e-07
0.00156097
-2.669e-06
2.27144e-06
0.00155359
1.92231e-06
4.83751e-06
0.00155226
2.49611e-07
2.90319e-06
0.00155226
3.73646e-06
-1.57403e-06
0.00155019
5.13456e-06
-1.68318e-06
0.0015514
6.38758e-07
-4.6881e-07
0.00155295
7.90183e-07
1.01253e-06
0.00155093
1.00506e-06
4.13134e-06
0.00155565
-1.91861e-06
-5.75488e-07
0.00155973
-9.63255e-07
-2.99298e-06
0.00156477
1.95032e-06
-6.4694e-06
-2.52651e-06
-4.33693e-06
0.00152667
-1.84424e-06
0.00151913
-2.35312e-07
0.00151939
-8.6643e-07
0.00152084
3.04447e-06
0.00151982
2.66639e-06
0.00152871
1.13097e-06
0.00153511
2.98518e-06
0.00153142
7.06835e-06
0.00152438
3.37585e-06
0.00152997
-6.61848e-06
0.00153653
-5.09435e-06
0.00153803
-3.73306e-07
0.00153601
3.28102e-06
0.00153204
2.6094e-06
0.0015329
-1.40704e-06
0.00153897
-5.92055e-06
0.00154009
-3.88813e-06
0.00153461
2.46481e-06
0.00152923
7.24571e-07
0.00152556
-1.44869e-06
0.00152556
1.57455e-06
0.00152832
4.35447e-06
0.0015273
2.22531e-06
0.00153007
-4.95243e-06
0.00153481
-2.65855e-06
0.00153535
3.33354e-07
0.00153875
-1.35109e-06
0.00154214
4.09008e-07
0.00153676
6.0769e-06
0.00153281
3.11232e-06
0.0015341
-4.1731e-06
-2.89459e-06
0.00153285
-5.43387e-07
0.00153628
1.81765e-06
0.0015369
1.69851e-06
0.0015258
5.02318e-06
0.0015167
5.50399e-06
0.00151565
5.1247e-06
0.00152899
1.53572e-06
0.00154007
-2.327e-06
0.00154595
-3.68024e-06
0.00153893
4.17684e-06
0.00152884
4.85216e-06
0.00152281
-1.64482e-07
0.00153064
-3.2951e-06
0.0015415
-3.32489e-06
0.0015393
-1.90139e-06
0.00152522
3.3697e-06
0.00151952
2.60725e-06
0.00152738
-1.26713e-06
0.00153423
-1.14195e-06
0.00153715
-1.53056e-06
0.00153592
-1.16401e-06
0.00153252
1.55661e-06
0.00153244
2.44804e-06
0.00153481
-4.81483e-07
0.00153749
3.11499e-08
0.00153554
1.41163e-06
0.0015333
1.21698e-06
0.00153313
1.39192e-07
0.00153227
4.20383e-07
0.0015351
-1.68795e-06
0.00153573
-4.15778e-06
-5.32791e-06
0.00155714
-2.36237e-06
0.00155893
2.41513e-06
0.00155776
5.36373e-06
0.00155135
7.34738e-06
0.00154197
8.46043e-06
0.0015392
6.2492e-06
0.00155186
-1.63122e-06
0.00155968
-6.33452e-06
0.00156132
-6.2231e-06
0.00156572
3.30639e-07
0.00156337
4.28953e-06
0.00155219
3.64979e-06
0.00155134
-1.63828e-06
0.00156396
-8.84152e-06
0.00156761
-3.77771e-06
0.00155777
4.27193e-06
0.00155372
3.29535e-06
0.00156286
-4.04474e-06
0.0015677
-1.66465e-06
0.00156393
2.42653e-06
0.00156034
3.06813e-06
0.00155699
4.89783e-06
0.00155317
3.35399e-06
0.00155806
-4.92121e-06
0.00156333
-2.9258e-06
0.00156167
1.97513e-06
0.0015597
2.66572e-06
0.0015577
3.23171e-06
0.00155576
3.20671e-06
0.0015589
-2.79241e-06
0.00155937
-6.18971e-06
-7.38159e-06
0.00155406
-3.49413e-06
0.00155737
-1.06528e-06
0.00155802
3.78886e-06
0.00155342
9.46506e-06
0.00154667
1.06793e-05
0.00154821
4.38982e-06
0.0015564
-3.85096e-06
0.00155682
-4.23668e-06
0.00155488
-3.92268e-06
0.00156186
-1.0737e-06
0.00156667
2.61075e-06
0.00156508
5.10926e-06
0.00156283
-1.57501e-06
0.00156258
-7.29681e-06
0.00156154
-1.82086e-06
0.00156156
3.58685e-06
0.00156033
3.41303e-06
0.00155497
-5.87856e-07
0.00155376
-2.08973e-07
0.00155913
-2.2325e-07
0.00156335
-7.87212e-07
0.00156062
2.80164e-06
0.0015526
5.94163e-06
0.00154384
1.32741e-06
0.00154329
-1.69847e-06
0.00154551
-8.61595e-07
0.00154836
3.62583e-08
0.00155243
1.70608e-06
0.00155426
2.79323e-06
0.00155832
-2.33395e-06
0.00156096
-6.89873e-06
-6.48533e-06
0.00155618
-9.64149e-06
0.00156164
-6.81499e-06
0.00156059
6.31179e-06
0.00156065
1.09067e-05
0.0015582
1.02472e-05
0.00155854
7.46882e-07
0.00155984
-5.45384e-06
0.0015521
1.96499e-06
0.0015471
3.39026e-06
0.001551
1.59064e-07
0.00155517
-1.17733e-06
0.00155945
1.58697e-08
0.00155704
1.61557e-06
0.00155193
-2.94091e-06
0.00155338
-3.01025e-06
0.00155677
-9.56873e-08
0.00155732
-1.27072e-07
0.00155731
-1.39096e-06
0.00156338
-2.42541e-06
0.00156904
-1.19111e-06
0.0015696
-8.81926e-07
0.00156738
7.47106e-07
0.00156577
4.6171e-06
0.00156391
4.01634e-06
0.00155988
1.72764e-06
0.00155814
-4.34237e-07
0.0015615
-1.85763e-06
0.00156549
-8.33956e-07
0.00156284
2.76756e-06
0.00155576
3.83494e-06
0.00155123
-1.84237e-06
-7.87911e-06
0.00155709
-9.48009e-06
0.00155334
-2.74497e-06
0.00155086
5.17315e-06
0.00155103
8.34351e-06
0.00155701
5.12051e-06
0.0015638
-5.68091e-06
0.00156516
-5.51116e-06
0.00156034
7.97361e-06
0.00156013
7.27779e-06
0.00156421
-7.78959e-07
0.00156332
-2.15906e-06
0.0015634
-1.72422e-06
0.00156398
3.58032e-06
0.00155833
3.03656e-06
0.00155596
-1.30618e-06
0.00156218
-5.23993e-06
0.00156659
-4.21663e-06
0.00156545
-1.60888e-06
0.00156011
7.0233e-08
0.00155592
5.93967e-07
0.00155554
-8.83682e-07
0.00155925
-1.4038e-06
0.00156388
2.99276e-06
0.00156457
5.87868e-06
0.00156458
1.89106e-06
0.00156494
2.3048e-07
0.00156407
-1.56004e-07
0.00156302
-6.22818e-07
0.00156298
1.84381e-06
0.00156036
4.01336e-06
0.00155445
3.06556e-06
-4.20684e-06
0.00155412
-9.73248e-06
0.00155255
-2.91639e-06
0.00155863
2.38372e-06
0.00156819
5.4425e-06
0.00156588
5.03402e-06
0.00155074
1.36888e-06
0.00153733
3.55726e-06
0.00154662
4.15178e-06
0.00155649
2.24463e-06
0.00156109
-1.30464e-06
0.00155797
-1.57068e-06
0.0015548
-4.03144e-07
0.00155986
1.3477e-06
0.00156315
1.52795e-06
0.00155995
2.38544e-06
0.00155511
-1.3216e-06
0.00155059
-2.44552e-06
0.00154474
-1.23791e-06
0.00154493
-1.3271e-06
0.00155115
-3.09912e-06
0.00155601
-2.54711e-06
0.00155687
2.33432e-06
0.00156063
3.77429e-06
0.00156551
2.29746e-06
0.00156593
-1.55004e-07
0.00156364
-6.52766e-07
0.00156041
1.71064e-06
0.00155852
2.23363e-06
0.00155957
3.45182e-06
0.00156226
2.11722e-06
0.00155819
1.85935e-06
-7.11873e-06
0.00155548
-5.78177e-06
0.00155152
-2.38675e-06
0.00155701
-1.16596e-06
0.00156015
2.60998e-06
0.00155246
6.25563e-06
0.00154589
4.49167e-06
0.00155435
2.53901e-06
0.00156195
2.1223e-06
0.00156389
9.60594e-07
0.00156104
-7.31503e-07
0.00155491
-5.55273e-07
0.00155039
3.58743e-07
0.00155596
-5.35261e-07
0.00156119
-4.8447e-07
0.00156339
1.49604e-06
0.00156453
-1.73942e-07
0.00156337
-9.59276e-07
0.00156105
3.50322e-07
0.00155686
6.86093e-07
0.0015534
-1.88396e-06
0.00154942
-1.45516e-06
0.00154623
4.62618e-06
0.00154673
2.35946e-06
0.0015545
-3.11227e-06
0.00155674
-1.91957e-06
0.00155683
-7.0462e-07
0.00155667
4.37142e-06
0.00155659
5.29578e-06
0.00156207
-3.22532e-06
0.00156881
-4.68784e-06
0.00157027
-5.60082e-07
-2.41642e-06
0.00152069
0.00151674
0.0015144
0.00151771
0.00152248
0.00152651
0.00153182
0.00153828
0.00154155
0.0015382
0.00153276
0.00152875
0.00153098
0.00153479
0.00153742
0.0015333
0.00152746
0.00152865
0.00153082
0.00152737
0.00152659
0.00153561
0.00153938
0.00153379
0.00153245
0.00153451
0.00154009
0.00154469
0.00154221
0.00153542
0.00153346
)
;

boundaryField
{
    wall
    {
        type            calculated;
        value           uniform 0;
    }
    outlet
    {
        type            cyclic;
        value           nonuniform List<scalar> 
16
(
0.0015392
0.00155636
0.00155271
0.00155465
0.00156276
0.00155479
0.00156113
0.00153123
0.00153398
0.00155731
0.0015558
0.00154979
0.00155251
0.0015564
0.00156326
0.00152913
)
;
    }
    inlet
    {
        type            cyclic;
        value           nonuniform List<scalar> 
16
(
-0.0015392
-0.00155636
-0.00155271
-0.00155465
-0.00156276
-0.00155479
-0.00156113
-0.00153123
-0.00153398
-0.00155731
-0.0015558
-0.00154979
-0.00155251
-0.0015564
-0.00156326
-0.00152913
)
;
    }
    procBoundary1to0
    {
        type            processor;
        value           nonuniform List<scalar> 
256
(
2.9348e-06
-1.24084e-06
-2.24248e-06
1.41836e-07
9.37169e-07
-5.81368e-06
-5.61735e-06
4.66023e-07
1.34837e-06
3.42531e-06
6.9318e-06
4.36996e-06
-5.2652e-06
-6.77456e-06
-2.23435e-06
3.5632e-06
3.9564e-06
-3.76107e-07
-1.08498e-06
-2.27219e-07
1.35914e-06
4.68426e-06
4.50899e-06
2.12453e-06
9.94531e-07
1.46048e-06
-1.30926e-06
-1.9099e-06
8.07118e-07
-2.44409e-06
-4.01773e-06
-6.83849e-07
5.66268e-06
-2.34515e-06
-3.80466e-06
-6.57327e-07
-1.16158e-06
-5.14359e-06
-3.26209e-06
2.96191e-06
3.98048e-06
2.60313e-06
4.48303e-06
2.87003e-06
-4.59038e-06
-3.83765e-06
-2.05632e-06
1.87884e-06
2.62556e-06
-1.02069e-06
-1.57619e-06
-7.85584e-07
9.99549e-07
2.92901e-06
4.30769e-06
3.95004e-06
9.02033e-07
-1.03977e-06
-1.61912e-06
5.47068e-07
2.88986e-07
-4.9683e-06
-4.41136e-06
2.35149e-06
4.53057e-06
5.89433e-07
-6.87032e-07
-3.38183e-06
-5.15577e-06
-7.51559e-06
-4.70406e-06
3.19407e-06
5.02074e-06
9.93566e-07
7.86812e-07
4.88319e-06
1.01678e-06
-7.15528e-06
-3.74948e-06
1.76522e-07
2.326e-06
4.28517e-07
2.9378e-07
1.02676e-06
2.7505e-06
5.40135e-06
3.51163e-06
2.10481e-06
4.4209e-06
1.79533e-06
-3.371e-06
-3.7618e-06
-2.8922e-06
-4.75918e-06
-4.277e-06
4.10249e-06
7.81774e-07
-3.55464e-06
-1.87277e-06
-2.075e-06
-3.44725e-06
-4.63604e-06
-8.40926e-07
1.06462e-06
6.09805e-07
1.47614e-06
6.69289e-07
-9.823e-07
-1.16186e-06
4.28273e-07
-9.24461e-07
-2.43015e-06
-1.51006e-06
-1.14489e-09
1.39087e-06
2.42656e-06
2.23992e-06
2.21633e-06
1.12056e-06
-7.9649e-09
1.9951e-06
2.97074e-07
-3.32577e-06
-2.27661e-06
1.31154e-06
-1.05202e-06
-1.62164e-06
3.83066e-06
-2.44736e-06
2.04171e-06
1.7922e-06
-4.1084e-06
-4.83295e-06
-3.9554e-06
-2.99835e-06
-1.15158e-06
3.0311e-06
3.57245e-06
1.31881e-07
-1.55518e-06
-2.54027e-07
1.54689e-06
4.32423e-07
-3.14057e-06
-1.94056e-06
-4.24538e-07
3.91562e-06
2.73541e-06
1.45416e-06
1.23005e-06
1.11043e-07
1.61732e-07
6.73034e-07
2.86071e-07
-1.2765e-06
2.17065e-06
3.67735e-06
-2.51116e-06
-6.13265e-06
-4.87468e-06
1.77213e-06
4.1033e-06
-2.88463e-06
-8.30075e-06
-2.26657e-06
1.20567e-06
1.55112e-06
-2.0455e-06
1.23896e-06
2.39044e-06
2.60267e-07
-6.6136e-07
-1.35062e-06
-2.42917e-06
-1.44652e-06
2.13544e-06
2.07919e-06
1.39326e-06
1.68165e-06
8.45873e-07
-8.13854e-07
1.70491e-06
1.14708e-06
-2.16056e-06
-1.79972e-06
2.13731e-07
-1.8602e-07
4.75358e-08
2.02185e-06
3.07433e-06
2.21396e-06
7.4668e-07
3.59644e-06
3.39718e-06
-1.22667e-06
-4.40289e-06
-9.31827e-07
-6.7588e-07
-3.52662e-06
-1.84831e-06
2.96761e-06
3.45236e-06
2.6682e-06
4.62675e-07
-3.91425e-06
-3.47864e-06
-4.51436e-07
2.29769e-06
2.18565e-06
2.27118e-06
1.03165e-06
-1.88114e-06
-1.6893e-06
-1.40386e-07
1.10251e-06
1.2992e-06
5.66136e-07
-6.24553e-07
-1.80207e-06
-2.24181e-06
1.18173e-06
2.43196e-06
3.18974e-06
2.92643e-06
1.83395e-06
4.02907e-06
2.05959e-06
-2.54249e-06
-2.29723e-06
-6.10076e-06
-4.7841e-06
-2.69438e-06
3.40393e-06
3.63075e-06
2.16081e-06
-1.09217e-06
-2.66589e-06
-6.43448e-07
-3.62169e-07
2.98825e-08
2.16756e-06
2.45865e-06
2.19777e-06
2.3128e-07
-4.24195e-06
-5.19155e-06
-9.58753e-07
5.91785e-06
3.05382e-06
-2.33048e-07
-1.2596e-06
-2.79742e-06
-2.61693e-06
-1.25321e-07
4.83961e-06
3.23262e-06
)
;
    }
    procBoundary1to2
    {
        type            processor;
        value           nonuniform List<scalar> 
256
(
2.04849e-06
-2.72529e-06
-2.84372e-06
7.58313e-06
6.85724e-06
-7.00065e-07
-1.63025e-05
-1.4628e-05
-6.10763e-06
5.8021e-06
6.62815e-06
5.46163e-06
-1.58671e-06
-2.75044e-06
2.20131e-06
3.85418e-06
-2.32455e-07
-5.45573e-06
-5.99941e-06
-4.19721e-06
1.39236e-06
2.76647e-06
-2.78654e-06
-5.17078e-06
-3.52994e-06
2.91953e-06
2.18094e-06
5.48399e-07
-5.04145e-07
-1.96495e-06
3.99126e-06
6.41413e-06
-1.28983e-06
-1.97386e-06
-1.19707e-06
8.03882e-06
9.78188e-06
1.74555e-06
-1.16587e-05
-1.00761e-05
-4.65294e-06
6.01651e-06
8.72103e-06
4.98765e-06
-8.15869e-07
-1.27861e-06
1.1458e-06
8.79527e-07
-1.26458e-06
-4.31995e-06
-3.18178e-06
-1.57891e-06
-2.24383e-06
-6.16253e-07
9.99621e-07
-2.22879e-06
1.82525e-07
4.18105e-06
4.98856e-07
-1.19243e-06
2.43414e-06
1.16986e-06
1.13238e-06
1.4686e-06
8.1159e-07
1.11747e-06
3.48254e-06
6.52715e-06
8.56789e-06
8.05197e-07
-1.04805e-05
-9.51427e-06
-5.76883e-06
1.07182e-06
2.02858e-06
2.2549e-06
2.11123e-06
-9.50673e-07
-3.32327e-06
-3.57416e-06
-2.88127e-06
1.65067e-06
1.52543e-06
-2.04092e-06
-2.14652e-06
7.98895e-07
6.12817e-07
-1.09508e-06
-2.61266e-06
1.75809e-06
1.48706e-06
-1.21962e-06
-8.17491e-07
1.61031e-06
3.14657e-06
2.67964e-06
-1.40589e-06
7.46058e-07
6.05683e-07
1.06888e-06
5.69985e-06
4.89348e-06
8.90873e-07
-3.67909e-06
-5.98029e-06
-1.25568e-07
5.67773e-06
4.52788e-06
1.34907e-06
-6.95911e-07
-1.85209e-06
-2.88093e-06
-9.78083e-07
2.64284e-07
-2.41745e-06
-3.44634e-06
-1.15745e-06
5.35232e-07
7.04256e-08
-1.53032e-06
-4.06195e-07
-7.88344e-08
-1.37992e-06
-1.90355e-06
8.43211e-07
3.37903e-06
5.13463e-06
2.52834e-06
-2.91563e-06
-1.49094e-07
3.39326e-06
2.07781e-06
8.43423e-08
1.73442e-06
7.21456e-07
4.70061e-08
-3.32275e-06
-1.34675e-06
3.37035e-06
8.23098e-07
-3.4673e-06
-8.77076e-07
5.54296e-07
-3.56089e-06
-2.63857e-06
2.77304e-06
2.57139e-06
1.75363e-06
-1.28624e-06
-3.40104e-06
-1.21957e-06
-1.01038e-06
-1.70105e-06
-1.25811e-06
2.75496e-07
-7.3151e-07
-4.06226e-06
4.57005e-06
8.30485e-06
4.3947e-06
2.36623e-07
1.23377e-06
1.50518e-06
-2.86378e-07
-1.4576e-06
1.19465e-06
1.3265e-06
2.9903e-06
1.42399e-06
-3.00398e-06
-1.06369e-06
-5.72266e-07
-6.14342e-07
-7.01469e-07
-1.26324e-06
-3.06895e-06
-1.53321e-06
4.20151e-06
4.40439e-07
-3.4873e-06
-2.03143e-06
-3.12315e-06
-6.94127e-07
-2.69527e-07
-5.42705e-07
-1.12188e-06
4.58115e-07
-4.86939e-07
-2.18986e-06
-8.79795e-07
4.03646e-06
2.76335e-06
2.38044e-06
2.449e-06
-1.64182e-06
7.95083e-07
4.96605e-06
6.21028e-07
3.5383e-07
2.38963e-06
2.96035e-06
-3.05339e-06
8.41734e-07
2.02198e-06
-9.37072e-07
4.03563e-07
-4.38137e-07
-5.30782e-06
-3.27746e-06
7.47449e-07
3.10632e-07
1.57936e-06
5.15958e-06
5.74273e-06
3.81647e-06
-3.93758e-06
-2.15293e-06
-5.06458e-07
-1.48885e-06
1.1422e-06
6.2543e-07
-2.92608e-06
-5.5171e-06
-2.02387e-06
8.13941e-07
1.3216e-06
3.12198e-07
2.34541e-06
4.14776e-06
1.59914e-06
2.14151e-07
2.72578e-06
1.07239e-06
-4.00219e-06
-2.08111e-07
3.99271e-06
5.16014e-07
-1.68242e-06
-2.54406e-06
-1.97078e-06
9.8819e-07
1.62168e-06
-7.59541e-07
1.2428e-07
8.94422e-07
-4.15169e-08
8.14904e-07
-2.46736e-06
-3.24159e-06
-2.42891e-06
-2.56615e-06
1.11342e-06
5.32429e-06
5.2183e-06
-2.77464e-06
-9.78946e-07
)
;
    }
}


// ************************************************************************* //
