/*--------------------------------*- C++ -*----------------------------------*\
| =========                 |                                                 |
| \\      /  F ield         | OpenFOAM: The Open Source CFD Toolbox           |
|  \\    /   O peration     | Version:  2506                                  |
|   \\  /    A nd           | Website:  www.openfoam.com                      |
|    \\/     M anipulation  |                                                 |
\*---------------------------------------------------------------------------*/
FoamFile
{
    version     2.0;
    format      ascii;
    arch        "LSB;label=32;scalar=64";
    class       volVectorField;
    location    "0.009";
    object      U_0;
}
// * * * * * * * * * * * * * * * * * * * * * * * * * * * * * * * * * * * * * //

dimensions      [0 1 -1 0 0 0 0];

internalField   nonuniform List<vector> 
512
(
(9.972 0.0121939 0.0162948)
(9.98657 0.0191982 0.0378466)
(9.93927 -0.00235672 -0.0136474)
(9.91359 -0.0146848 -0.0346524)
(9.93744 -0.0073944 -0.0181886)
(9.99794 0.0266791 0.0125104)
(9.94595 0.0168443 -0.00246703)
(9.93468 0.0027794 -0.0151249)
(9.99049 -0.00859359 0.0138323)
(9.97134 -0.0050222 0.00187688)
(9.88153 -0.00159287 -0.0590398)
(9.95827 -0.00044491 -0.011603)
(10.0173 0.0039781 0.0613915)
(9.99376 -0.00243079 0.0709451)
(9.94965 0.00388674 -0.0401294)
(9.96809 0.0154332 -0.0647393)
(9.98861 0.0175458 -0.0315799)
(10.0038 -0.00717866 0.00786378)
(9.99848 -0.0163366 -0.0109253)
(10.007 -0.00309123 -0.0305719)
(9.94297 0.00734255 -0.0209684)
(9.91013 0.00768403 -0.0356981)
(9.93703 0.00244632 -0.0429361)
(9.9431 -0.00129176 -0.0303089)
(9.89207 0.00233522 0.0231461)
(9.91195 0.00725234 0.0287268)
(9.95268 0.00877938 0.0120231)
(9.92254 0.00215479 -0.0143031)
(9.8957 -0.0144128 -0.035966)
(9.946 -0.0161174 0.019609)
(9.92413 -0.0167949 0.0272559)
(9.94399 -0.00410695 -8.46808e-05)
(10.1269 0.0143824 -0.016262)
(10.1126 0.03837 0.0466753)
(10.0879 0.0300538 0.0267413)
(10.0886 0.0115908 0.00865677)
(10.1217 0.0084716 0.0167106)
(10.1573 0.00824928 0.00902572)
(10.1112 -0.0121695 -0.0176424)
(10.1074 -0.0290441 -0.0377627)
(10.158 -0.0220266 -0.00307686)
(10.1375 -0.00308992 0.0100513)
(10.0229 0.0232876 -0.0265396)
(10.0979 -0.0108078 -0.0208393)
(10.1467 -0.0230632 0.0427186)
(10.1304 0.00351924 0.0524892)
(10.1401 0.0426085 -0.01379)
(10.1593 0.0228222 -0.0665152)
(10.1733 -0.000690078 -0.0448915)
(10.1334 -0.0176508 0.015082)
(10.1089 -0.0113475 0.00972853)
(10.1235 -0.00831077 -0.0149752)
(10.1013 -0.00841547 -0.00985588)
(10.0939 -0.0130737 -0.00964415)
(10.1341 -0.0100951 -0.0480722)
(10.132 -0.0150109 -0.0502777)
(10.0698 0.0122754 0.028581)
(10.0764 0.018718 0.0379553)
(10.0974 0.00920592 -0.00428611)
(10.0615 0.0160733 -0.0184106)
(10.0033 0.0337902 -0.0113611)
(10.0718 -0.0113144 0.0282966)
(10.083 -0.0608067 0.0118965)
(10.099 -0.0393337 -0.0356636)
(10.1235 -0.0328917 -0.0148571)
(10.1262 -0.0261938 -0.0110576)
(10.0822 0.0495761 0.0118491)
(10.0979 0.0949152 0.0480294)
(10.1287 0.0730686 0.0542299)
(10.1903 -0.0405477 0.0376672)
(10.1307 -0.0669003 -0.00474419)
(10.1245 -0.0598521 -0.029204)
(10.1585 -0.0421446 -0.0133606)
(10.1748 0.0232575 0.0302645)
(10.1001 0.0653697 0.00687113)
(10.0201 0.0435419 -0.00801217)
(10.0809 -0.0109362 0.010173)
(10.1543 -0.0158675 0.0319961)
(10.1624 0.02178 -0.0159368)
(10.1837 0.0274869 -0.0312315)
(10.1698 0.00605578 -0.0252912)
(10.1662 -0.0019104 -0.0244921)
(10.1512 0.0123585 -0.0438048)
(10.1403 -0.017526 -0.0275836)
(10.1089 -0.0317009 -0.0197958)
(10.1102 -0.0129123 -0.0403879)
(10.1276 -0.0340913 -0.033425)
(10.1214 -0.0538018 -0.0341982)
(10.0962 -0.00904781 -0.0117653)
(10.0983 0.0169569 0.0280562)
(10.1083 0.0118545 0.0223116)
(10.0935 0.0391849 0.000977047)
(10.0778 0.0585875 0.0147063)
(10.0996 0.0327009 0.0630984)
(10.0678 -0.0613502 0.0280102)
(10.0829 -0.0829447 -0.03315)
(10.1489 -0.0470311 0.000948682)
(10.15 -0.0420564 0.0139021)
(10.0602 0.0394092 0.027159)
(10.0448 0.0833779 0.0348276)
(10.1723 0.0689534 0.0227504)
(10.2151 0.0169867 0.0230523)
(10.0825 -0.0460866 -0.00631398)
(10.0694 -0.0390104 -0.0123619)
(10.1405 -0.0321525 0.0247196)
(10.1284 -0.0264296 0.0227534)
(10.1067 0.0597263 0.0098846)
(10.1222 0.0754514 0.0138938)
(10.1258 0.0254668 -0.0039973)
(10.1247 -0.048038 -0.0322143)
(10.1598 -0.0295248 -0.00835429)
(10.1725 -0.00559771 -0.0060482)
(10.1784 0.0238992 -0.00482035)
(10.1825 0.0191791 0.00163599)
(10.1832 -0.00676708 0.00297338)
(10.1313 -0.00563619 -0.00427331)
(10.0922 -0.00302388 -0.0100685)
(10.0919 -0.00453553 -0.028074)
(10.103 -0.015137 -0.0227451)
(10.1073 -0.0110485 -0.0217823)
(10.1011 0.0142154 -0.010853)
(10.1075 0.0196364 0.0110973)
(10.1434 -0.0128719 0.0289002)
(10.138 0.00768928 -0.000759254)
(10.0922 0.0432106 -0.00969754)
(10.0819 0.0348737 0.0193368)
(10.0669 0.00470494 0.0157064)
(10.1174 -0.0327735 -0.0262606)
(10.1652 -0.0228847 0.0068772)
(10.1664 0.0159481 0.00104805)
(10.1301 0.0273839 -0.0105858)
(10.118 0.0215105 0.00452578)
(10.13 0.0378636 0.0217263)
(10.1331 0.0204021 0.0193412)
(10.1011 -0.0362579 0.0204018)
(10.0974 -0.0486508 0.0184387)
(10.1076 -0.0351006 0.00932119)
(10.0735 -0.00189727 0.00214989)
(10.1248 0.0256271 0.00521108)
(10.1766 0.0184257 0.0088901)
(10.1802 0.0116894 0.00272405)
(10.094 0.00588067 -0.0231854)
(10.1105 -0.00540131 -0.0294948)
(10.1958 -0.0222179 -0.0120524)
(10.1881 -0.00533213 0.00963951)
(10.1751 0.000280083 0.00619717)
(10.1126 -0.00817068 -0.045473)
(10.1087 -0.0063441 -0.0396026)
(10.1354 -0.0101379 -0.0211183)
(10.1435 -0.0126893 -0.0119152)
(10.1283 -0.0109251 0.0099146)
(10.1238 0.0212351 -0.000602645)
(10.0959 0.0467583 -0.0168465)
(10.0962 0.0291852 0.000348208)
(10.1293 0.0192573 0.0209402)
(10.1454 0.004462 -0.00702378)
(10.1374 0.000958831 -0.01878)
(10.1 0.0198163 0.0376419)
(10.0886 -0.0231989 0.0402549)
(10.0891 -0.0763438 0.0210281)
(10.1147 -0.1121 -0.0444983)
(10.1287 0.0711994 0.0102436)
(10.0869 0.15474 0.0769908)
(10.0639 0.127978 0.0909459)
(10.0595 -0.0186467 -0.0396323)
(10.0963 -0.0547337 -0.0640368)
(10.1132 -0.0459123 -0.0205659)
(10.0934 -0.0412255 0.0585925)
(10.0821 -0.0229815 0.0455913)
(10.146 0.0742926 -0.00106025)
(10.1696 0.0320209 -0.0199693)
(10.1642 -0.0135531 -0.0112298)
(10.1639 0.00203219 0.0040637)
(10.1626 0.0306863 -0.00164632)
(10.1474 0.00854091 -0.0292272)
(10.1435 -0.00561231 -0.0437197)
(10.1506 -0.026259 -0.00697333)
(10.1503 -0.0273213 -0.00685747)
(10.136 0.00516845 -0.0134914)
(10.1394 0.0119654 0.00578852)
(10.1022 -0.0339796 0.0329288)
(10.0802 -0.0238389 0.0304658)
(10.0844 0.0148904 0.0356536)
(10.135 0.0387758 0.00779047)
(10.1229 0.00452406 -0.0191757)
(10.1349 -0.00154093 -0.0273433)
(10.0966 0.00409423 -0.00578858)
(10.0979 0.0028544 -0.00509285)
(10.1039 0.0250732 -0.00388947)
(10.0911 0.0176531 -0.0186814)
(10.1087 -0.0174693 -0.0300697)
(10.1135 -0.102697 -0.0338734)
(10.1171 -0.0840947 -0.0427348)
(10.1065 0.00404961 -0.0150489)
(10.0041 0.0536552 0.043862)
(10.0062 0.01664 0.0162866)
(10.0959 -0.0126059 -0.0267774)
(10.1333 0.0170122 -0.00198469)
(10.1106 0.020884 0.0766388)
(10.055 -0.0110618 0.0740395)
(10.0861 0.00339566 0.0420073)
(10.1715 0.0377633 -0.0351497)
(10.1628 0.0114058 -0.0355186)
(10.1659 -0.00817795 -0.00881271)
(10.1559 0.00179414 0.0243324)
(10.1446 -0.00577481 0.0250968)
(10.1462 -0.0135948 -0.0199389)
(10.1548 -0.0104342 -0.0363453)
(10.164 -0.00721223 -0.0257449)
(10.1543 -0.00264253 -0.0247453)
(10.1294 -0.0185402 -0.0198687)
(10.0979 -0.0353282 0.000567226)
(10.1048 -0.0266593 0.0135281)
(10.1123 0.00076313 0.0312472)
(10.1425 0.0201897 -0.00474019)
(10.1485 0.0252543 -0.00901806)
(10.1349 0.00993496 0.00899208)
(10.1002 0.014457 0.0214333)
(10.0692 0.0200918 0.0200979)
(10.1126 -0.00594146 0.00991123)
(10.1614 0.0117573 -0.0224008)
(10.1293 0.023209 -0.0257525)
(10.1115 0.0342384 -0.0190354)
(10.1197 -0.0647833 -0.0335387)
(9.99105 0.000495971 -0.00889404)
(9.95267 0.0157642 -0.0177436)
(9.82063 -0.00412508 -0.0271151)
(9.81678 -0.00901549 -0.0183831)
(9.89988 -0.00106295 0.00269993)
(9.97305 0.0427256 0.0642817)
(9.96957 0.039268 0.082667)
(9.92709 0.0106565 0.0452023)
(9.97991 0.0164202 0.0131738)
(10.0159 0.017489 -0.0343842)
(9.99473 0.00932582 -0.0287599)
(9.99334 -0.00163833 0.00367401)
(9.99331 -0.00418051 0.00784906)
(9.99403 -0.00691401 0.00249531)
(9.99159 -0.00839939 -0.010022)
(9.9984 -0.00593672 -0.027101)
(10.0042 -0.00683283 -0.0248776)
(9.99297 -0.00496556 -0.0129483)
(9.96401 -0.018782 -0.0340432)
(9.95474 -0.0326699 -0.0295322)
(9.98813 -0.000602256 0.0276215)
(9.99062 0.0158102 0.0685526)
(9.99046 -0.00794559 0.0271579)
(10.0094 0.0212574 -0.0355703)
(10.0074 0.0406951 -0.0162515)
(9.88807 0.0178407 0.0152246)
(9.90388 0.0204867 0.0164355)
(10.0651 0.00892241 0.0191036)
(10.0373 -0.0480139 0.00255168)
(9.90689 -0.0180251 -0.0370345)
(9.8961 -0.0074869 -0.0405797)
(9.95342 -0.0368695 -0.0186555)
(9.97287 0.0013726 0.00701872)
(9.99253 0.010323 -0.000898806)
(9.96865 0.0184748 -0.00499341)
(9.93525 0.0220609 0.0779599)
(9.92936 0.0196561 0.0869859)
(9.97091 0.0172956 0.019342)
(9.93271 0.0007403 -0.0653967)
(9.9477 -0.0123517 -0.0846258)
(10.0201 -0.0033204 -0.025467)
(10.003 0.0182527 0.0233954)
(9.88398 0.0357895 0.0454156)
(9.96614 -0.00185336 0.0156077)
(10.0223 -0.0118532 -0.00263578)
(10.0483 -0.00339858 -0.0105339)
(9.93664 0.0088375 -0.00350049)
(9.84852 0.0126197 -0.00163099)
(9.92176 -0.00297181 0.00690338)
(9.94981 -0.0104685 0.0113687)
(9.94989 -0.00788716 0.00799131)
(9.9748 -0.00489954 -0.00487454)
(9.94871 0.00320472 0.0200112)
(9.92775 0.00482418 0.0311461)
(9.98802 0.000221239 -0.0395565)
(10.0146 0.00522254 -0.0803873)
(9.97249 0.0180196 -0.00981833)
(9.95818 0.0118136 0.0291652)
(9.95666 0.00617962 0.0126995)
(9.94481 -0.00360723 0.00869766)
(9.96431 -0.00974505 0.0180472)
(9.98147 -0.0190896 0.000893224)
(9.93706 -0.0250191 -0.00559271)
(9.91713 -0.0216069 -0.015051)
(10.1309 0.0134197 -0.0253836)
(10.1243 0.0209374 -0.0266742)
(10.1023 0.0278325 -0.00518817)
(10.0768 0.0639689 0.0807187)
(10.0796 0.0535737 0.0675933)
(10.1086 0.0425753 -0.00540517)
(10.0611 -0.0133598 -0.0750937)
(10.0832 -0.0423142 -0.0809104)
(10.1605 -0.0381123 -0.0407321)
(10.1991 0.0325824 0.0648616)
(10.1311 0.0289313 0.0690305)
(10.04 -0.00905974 0.00716064)
(10.085 -0.0336108 -0.0113679)
(10.1599 -0.0461498 0.0200121)
(10.1218 -0.0109593 0.0159782)
(10.0629 0.0417077 -0.0178144)
(10.1104 0.0102727 -0.0201688)
(10.1341 -0.0333443 0.0045443)
(10.1327 -0.0247989 0.00948625)
(10.1472 -0.0134069 -0.00534143)
(10.1213 0.00170271 -0.00944892)
(10.0987 0.0307911 0.000872694)
(10.1376 0.0238736 -0.0230021)
(10.1622 -0.0269807 -0.0285172)
(10.1174 0.000969416 0.0197711)
(10.1029 0.0207276 0.0271607)
(10.0945 0.0147638 -0.00508069)
(10.0882 0.0157576 0.0127565)
(10.1062 0.0112703 0.0440551)
(10.1286 -0.0322531 0.0189645)
(10.0804 -0.0438711 0.00703777)
(10.0689 -0.0414856 -0.00870665)
(10.1481 0.00422082 0.00111394)
(10.1652 0.0135985 0.0219181)
(10.0908 0.0734721 0.0558989)
(10.079 0.0849163 0.0555924)
(10.083 0.0822123 0.0457816)
(10.1139 0.0183556 -0.0306118)
(10.0471 -0.0321951 -0.0836876)
(10.004 -0.0649494 -0.0978528)
(10.1085 -0.0491545 -0.0342592)
(10.1778 -0.0144078 0.028317)
(10.124 0.025763 0.0212681)
(10.1383 0.0361244 0.0183644)
(10.1663 -0.0433407 0.0106051)
(10.1476 -0.0669303 -0.000344936)
(10.0689 0.0319337 -0.0174521)
(10.0958 0.0544761 -0.0290544)
(10.1366 0.024755 -0.0222039)
(10.1288 -0.0144264 0.0340042)
(10.1258 -0.00441036 0.0473245)
(10.1763 0.0294082 9.24567e-05)
(10.169 0.0302167 -0.00137734)
(10.1037 0.0352171 -0.000830534)
(10.1015 0.0101497 -0.0330844)
(10.1149 -0.0309387 -0.0364919)
(10.0992 -0.038853 -0.0130673)
(10.0781 0.0118624 0.017428)
(10.0776 0.0228169 0.0106076)
(10.0801 0.0416461 -0.0114369)
(10.0981 0.041652 -0.0128352)
(10.1198 -0.0421082 0.0340696)
(10.0814 -0.062653 0.0368927)
(10.0743 -0.0571996 0.00276488)
(10.1898 -0.0279025 -0.0156278)
(10.2095 -0.0132412 0.0037775)
(10.1296 0.0522667 0.0172566)
(10.1208 0.0606253 0.0197943)
(10.1011 0.0449252 0.0596452)
(10.0929 -0.0119327 0.0527861)
(10.0504 -0.0336965 0.0028707)
(10.0092 -0.00831531 -0.0647299)
(10.1016 -0.00896986 -0.0708574)
(10.2258 0.00574218 0.010031)
(10.2003 0.0174663 0.0411969)
(10.1806 0.033255 0.0393424)
(10.1229 -0.0198229 0.014525)
(10.0586 -0.0535596 0.00952247)
(10.0882 -0.00831954 -0.0109564)
(10.1033 0.0157631 -0.0302001)
(10.1106 0.00856402 -0.028025)
(10.1252 0.00278106 -0.0108816)
(10.172 0.0135547 -0.0130557)
(10.1332 -0.0177175 0.000222508)
(10.1155 -0.0288107 0.00970975)
(10.1293 0.0119283 -0.00629516)
(10.1372 0.0270346 -0.0121102)
(10.1572 0.0193263 -0.00566117)
(10.0945 0.00215859 -0.00632937)
(10.067 -0.00861356 0.00434216)
(10.1145 -0.0160834 -0.00313237)
(10.1259 0.0127233 -0.0222799)
(10.0975 0.037915 0.00257646)
(10.0855 -0.00573773 0.0515696)
(10.0495 -0.0420404 0.0467084)
(10.0898 -0.0437762 -0.0297453)
(10.1425 -0.0543517 -0.0224243)
(10.1632 0.00935377 0.00667706)
(10.0952 0.0758871 0.0304009)
(10.0791 0.0768243 0.0141209)
(10.0577 0.0329813 -0.00369458)
(10.0771 -0.0937807 0.00218693)
(10.0987 -0.0889624 0.00735996)
(10.0599 0.0505306 -0.00548174)
(10.1181 0.0554511 -0.0122264)
(10.1812 0.0130605 0.00469681)
(10.1245 -0.0203309 0.00908368)
(10.1181 -0.0196388 -0.00689264)
(10.1503 0.0215305 -0.0118697)
(10.1268 0.00748875 0.0194229)
(10.1199 -0.0204152 0.0219372)
(10.1688 -0.0221805 -0.0209261)
(10.1721 -0.00475041 -0.0174704)
(10.1559 0.00476664 0.0148815)
(10.0906 -0.0134679 0.0244602)
(10.07 -0.0140226 0.0184752)
(10.0902 -0.00926067 -0.0185686)
(10.1053 -0.00943074 -0.0144913)
(10.1408 0.0389364 0.0162859)
(10.1394 0.0395067 -0.000848218)
(10.1361 -0.00819106 -0.0107853)
(10.1244 -0.0160167 0.0257125)
(10.1187 0.00945601 0.0273796)
(10.1261 -0.0060889 -0.0286479)
(10.116 -0.00558004 -0.0460332)
(10.0906 0.0281699 0.0502419)
(10.106 -0.00792151 0.0562374)
(10.1207 -0.0620731 0.0053526)
(10.1081 -0.067133 -0.00468915)
(10.1063 0.0484536 0.0182153)
(10.0603 0.0942241 0.0283584)
(10.0917 0.0949759 0.00762525)
(10.0835 -0.018694 -0.0268146)
(10.0722 -0.0786234 -0.0210701)
(10.0675 -0.0114329 0.0134872)
(10.1105 0.0598442 0.0543885)
(10.1309 0.0197183 0.0372131)
(10.1647 -0.0263174 0.00863913)
(10.1039 -0.0245874 -0.0262622)
(10.1142 -0.0155514 -0.0306286)
(10.1701 0.0165294 0.018207)
(10.1629 0.0177348 0.0171532)
(10.1569 0.00106689 -0.00762737)
(10.1576 -0.0296454 -0.0180872)
(10.1232 -0.0262817 -0.00782431)
(10.0947 -0.0111473 0.00730174)
(10.0746 0.0240273 -0.0260157)
(10.0681 0.016931 -0.0357151)
(10.0594 -0.00558914 -0.0200654)
(10.0566 0.00870189 -0.0143331)
(10.1283 0.0252798 0.011146)
(10.1368 0.0208311 -0.00181333)
(10.1103 0.0143968 -0.0258348)
(10.1054 0.019959 -0.0118718)
(10.0616 -0.0140236 0.0244354)
(10.0785 -0.0172658 0.0108402)
(10.1272 0.0349154 -0.00555249)
(10.1211 0.0332767 -0.00932956)
(10.1415 -0.000907291 -0.00312482)
(10.1212 -0.0626891 0.00625476)
(10.127 -0.0519377 0.0210396)
(10.0932 0.000944221 0.00172768)
(10.0361 -0.00857057 -0.0481894)
(10.0016 -0.00148459 -0.0125794)
(10.0222 0.0220708 0.0139444)
(10.1014 0.0531434 -0.0103964)
(10.129 0.0554147 0.0264135)
(10.103 0.0118436 0.0451248)
(10.1141 -0.0104654 0.0284636)
(10.156 -0.0181489 -0.0315401)
(10.0987 0.00192942 -0.0374941)
(10.1247 0.0167771 -0.011732)
(10.1863 0.00688253 0.00938112)
(10.162 0.00500359 0.024028)
(10.1191 0.0202026 0.00213673)
(10.1333 -0.0145675 -0.0130538)
(10.1473 -0.0185482 0.0043993)
(10.1382 -0.00305626 0.027123)
(10.1234 -0.0241891 0.000465238)
(10.0851 -0.0396343 0.0030756)
(10.0669 -0.0211431 0.0199561)
(10.0746 0.0286676 0.0409474)
(10.1151 0.0143175 0.01596)
(10.1453 -0.0180323 -0.0483707)
(10.1542 -0.0281749 -0.0292772)
(10.0909 0.0137406 0.00839338)
(10.0709 0.054076 0.0304545)
(10.1274 0.0356526 0.0417903)
(10.1705 -0.00589955 -0.0433187)
(10.1348 0.00387341 -0.0588482)
(10.1377 0.0059607 -0.0544569)
(10.1303 -0.0580177 0.00513769)
(9.90981 -0.0157016 0.00522216)
(9.94401 -0.0120922 -0.0226296)
(9.87495 -0.0133325 -0.0104063)
(9.83797 0.0235028 0.0407862)
(9.88694 0.0606377 0.0543739)
(9.94685 0.0367937 -0.00948961)
(9.95211 0.0150744 -0.00300505)
(9.95126 0.00292635 0.0482339)
(9.97054 0.00623394 0.0270529)
(9.96531 0.0102749 -0.0460396)
(9.92487 0.00957033 -0.0234026)
(9.96714 0.00849797 0.0194084)
(10.0175 -0.008808 0.0169303)
(10.021 0.00172424 0.0131749)
(10.0058 0.0171229 -0.0137048)
(9.96425 0.000829406 -0.0270975)
(9.97631 0.00023888 0.00471934)
(10.0023 0.00855222 0.0406732)
(9.97067 -0.00933792 -0.00295972)
(9.96848 -0.0281251 -0.023397)
(10.0054 0.00553684 0.000648579)
(10.0143 0.0313885 -1.07998e-05)
(10.0062 0.0160122 -0.00435193)
(9.98721 -0.00521132 -0.0194049)
(9.97514 0.00315085 -0.0134114)
(9.91212 0.0118242 -0.0122909)
(9.92146 0.0258871 -0.0235122)
(10.0584 0.0155898 0.0455118)
(10.0697 -0.0504852 0.0714201)
(9.97599 -0.0575435 -0.0119607)
(9.9269 -0.0289947 -0.0695826)
(9.8865 -0.0215879 -0.00246088)
)
;

boundaryField
{
    wall
    {
        type            fixedValue;
        value           uniform (0 0 0);
    }
    outlet
    {
        type            cyclic;
    }
    inlet
    {
        type            cyclic;
    }
    procBoundary1to0
    {
        type            processor;
        value           nonuniform List<vector> 
256
(
(10.0055 0.0222901 0.001543)
(10.0151 -0.00616186 0.000444765)
(9.97026 -0.0230891 -0.00435972)
(9.86764 -0.00268884 -0.0104884)
(9.85673 0.00837949 0.00106236)
(9.94668 0.0140846 0.0749831)
(9.93074 0.0101744 0.0657924)
(9.87512 -0.00175994 -0.00738507)
(9.91874 -0.00194087 -0.0163591)
(9.98558 -0.0028098 -0.0202604)
(9.96896 0.000962306 -0.0368302)
(9.95 0.00586039 -0.022173)
(9.93817 0.00459401 0.0130132)
(9.94002 -0.00262909 0.00796811)
(9.92874 0.00410293 -0.0134012)
(9.94002 0.0203723 -0.0218362)
(9.95748 0.0214473 -0.00947001)
(9.96236 -0.0215469 0.00573093)
(9.94604 -0.0320958 0.0236594)
(9.94674 -0.01303 0.0196705)
(9.90535 0.00138114 -0.0224353)
(9.90822 -0.00615334 -0.0324957)
(9.96639 0.000935761 0.0090873)
(9.97631 -0.00677546 0.0170531)
(9.9259 0.0170784 -0.0293429)
(9.92176 0.0305189 -0.0247203)
(9.94461 0.0113769 0.0315659)
(9.94204 -0.00484056 0.00345508)
(9.9085 -0.0153244 -0.00898298)
(9.91947 -0.00888151 0.0126314)
(9.88523 -0.00908957 0.0379596)
(9.93889 0.000552212 0.0156374)
(10.1443 0.00795949 0.00995315)
(10.1884 0.00926764 0.0400777)
(10.1566 -0.00134046 -0.000106967)
(10.0808 0.000118304 -0.0407624)
(10.0649 0.00257173 -0.017534)
(10.0974 0.0141618 0.0439096)
(10.0653 0.00159555 0.0385385)
(10.0268 -0.0249 -0.00446587)
(10.0768 -0.0185544 -0.0210757)
(10.126 -0.0136684 -0.0112553)
(10.1222 -0.0168391 -0.0186729)
(10.1141 -0.0123866 -0.0101247)
(10.1099 -0.00589213 0.0122055)
(10.1122 -0.0119717 0.00624022)
(10.1103 0.00053315 -0.0132377)
(10.1061 0.0154478 -0.00558242)
(10.119 0.0208723 -0.00405969)
(10.0558 0.00133419 -0.00364168)
(10.0449 -0.00747498 0.00764933)
(10.075 -0.0120197 0.0315963)
(10.0675 0.0135687 0.00182718)
(10.0814 0.0350877 -0.0291155)
(10.128 -0.0140368 0.00476027)
(10.1443 -0.0488717 0.0171297)
(10.1017 0.0313549 -0.0221106)
(10.0884 0.0644476 -0.0235079)
(10.0993 0.0134357 0.0151874)
(10.1035 -0.0143388 0.00115722)
(10.0537 -0.0186306 0.0125987)
(10.0472 -0.00497576 0.043576)
(10.0439 -0.0354856 0.0356308)
(10.1101 -0.0183226 -0.0107216)
(10.1608 -0.0403029 -0.025424)
(10.181 0.000544469 0.0295353)
(10.1282 0.0331026 0.0137043)
(10.0855 0.0661311 -0.00939994)
(10.0798 0.0725167 0.00727996)
(10.1117 0.019336 0.0462817)
(10.0754 -0.0268645 0.027471)
(10.0746 -0.0617671 -0.0149405)
(10.1301 -0.0447771 -0.0169255)
(10.1352 -0.0142726 -0.00547291)
(10.1105 0.0112013 -0.00265994)
(10.138 0.012295 -0.0448463)
(10.1402 0.0137249 -0.0195257)
(10.1264 0.0215375 0.0276744)
(10.1201 0.0108834 0.0115546)
(10.0975 0.00398175 0.00766426)
(10.0437 -0.0170679 -0.00991219)
(10.0491 -0.0176627 -0.00626928)
(10.0675 0.00641466 0.0058822)
(10.0597 0.0129202 -0.00796082)
(10.0558 0.0141085 -0.0213232)
(10.0984 0.0123871 -0.0368437)
(10.1083 -0.017088 -0.000819948)
(10.1236 -0.0182263 0.00558881)
(10.1154 0.0211053 -0.0466723)
(10.1073 0.0232168 -0.0562697)
(10.0999 -0.0218192 0.0284153)
(10.0972 -0.00812807 0.0404572)
(10.0335 0.0476566 0.0453224)
(10.0314 0.0564556 0.0490127)
(10.044 -0.0264823 0.0284835)
(10.1501 -0.0506219 -0.0263385)
(10.1284 -0.0495477 -0.000842572)
(10.1212 -0.00546282 0.0124065)
(10.0752 0.0448163 0.0039544)
(10.0734 0.0689253 0.0188784)
(10.1454 0.0285969 0.02555)
(10.1744 -0.0291802 0.00697353)
(10.0325 -0.0831174 -0.0199405)
(10.0191 -0.0710977 -0.0159522)
(10.1071 0.00393293 0.00100415)
(10.2033 0.0517103 0.0158917)
(10.169 0.0394783 -0.00857102)
(10.1322 0.0168049 -0.0188732)
(10.1172 0.00754671 -0.00309212)
(10.0745 -0.0016457 0.00356597)
(10.0585 -0.00949812 0.0152498)
(10.0258 -0.0214341 0.0255385)
(10.0076 -0.0241278 -0.00161437)
(10.0354 -0.0213971 -0.0148406)
(10.1155 -0.00997613 0.0116213)
(10.1087 0.00151752 -0.000156478)
(10.1003 -0.0109003 -0.0141947)
(10.1058 -0.0485263 -0.022116)
(10.0702 -0.0251629 0.0112701)
(10.0781 -0.0053488 -0.000604914)
(10.0768 -0.00524464 -0.030262)
(10.0699 -0.0142898 -0.0111984)
(10.0965 -0.0278304 0.0118047)
(10.1246 0.0392328 0.0131912)
(10.1012 0.0794808 0.0112245)
(10.0911 0.0963956 0.0405424)
(10.084 0.00136605 0.0133893)
(10.1229 -0.0814025 -0.0199739)
(10.1291 -0.0256087 -0.000230958)
(10.1176 -0.00390442 -0.0248588)
(10.0532 0.0264557 -0.0113338)
(10.0539 0.0732001 0.0435694)
(10.1255 0.0275178 0.047862)
(10.1237 -0.0377345 0.0383767)
(10.0606 -0.0795165 0.0213506)
(10.0439 -0.058095 0.00898311)
(10.1481 0.0572443 -0.035124)
(10.1542 0.0614002 -0.0387956)
(10.1182 0.0110085 -0.00733246)
(10.1279 -0.0204511 0.00153976)
(10.1454 -0.0171919 -0.00355946)
(10.124 -0.0171048 -0.00950706)
(10.1142 -0.014965 0.00531829)
(10.0955 -0.01834 0.0356081)
(10.061 -0.0136457 0.0146994)
(10.089 0.0200698 -0.00941393)
(10.0965 0.0186321 -0.00764388)
(10.108 -0.0119435 0.0179044)
(10.0991 -0.0546773 0.00826333)
(10.0825 -0.0422732 -0.0162554)
(10.0569 0.0215726 -0.0105624)
(10.0758 0.0288128 -0.000147353)
(10.0594 0.0121168 -0.00441254)
(10.0594 0.00793968 -0.00600891)
(10.1057 0.0298686 0.00480542)
(10.1591 0.00610315 -0.00972789)
(10.1371 0.0155431 -0.0196484)
(10.0692 0.0563544 0.0193881)
(10.0531 0.0190408 0.0379406)
(10.0812 -0.0463403 0.0398565)
(10.1882 0.0150595 -0.0131676)
(10.2262 0.0750203 -0.0333579)
(10.1404 0.038552 -0.00220945)
(10.0701 -0.00317346 0.0261034)
(10.0628 -0.0264058 0.0178803)
(10.028 -0.0646167 0.0236658)
(10.034 -0.0592631 0.0286768)
(10.0208 -0.0264119 0.00263909)
(10.1368 0.0293357 -0.0523793)
(10.1519 0.0346401 -0.0421442)
(10.1236 0.00410245 0.0105575)
(10.1253 -0.0175801 0.00816287)
(10.1587 -0.0172708 0.0127113)
(10.1578 -0.0116606 0.0134948)
(10.1261 -0.0146412 0.0142878)
(10.0979 -0.0128702 0.004851)
(10.059 0.00309143 -0.0148025)
(10.0826 0.00949025 -0.0103012)
(10.1168 0.0197978 -0.000476849)
(10.0858 -0.0104005 -0.00383362)
(10.0689 -0.0473425 -0.0047968)
(10.0639 -0.0444455 -0.0445094)
(10.1156 0.0125363 -0.0208839)
(10.1541 0.0441394 0.0299694)
(10.1718 0.00270387 0.0239197)
(10.1069 0.00848679 -0.00491514)
(10.0468 0.0173356 0.0051079)
(10.0599 0.00475016 0.00784163)
(10.0933 0.0112277 -0.0136133)
(10.0822 0.0131727 -0.0175218)
(10.0659 -0.0239988 -0.0121153)
(10.0685 -0.06638 -0.00404799)
(10.0948 -0.0995061 -0.0353827)
(10.1221 0.019436 -0.0234936)
(10.0269 0.0751528 0.0302669)
(9.93549 0.0885605 0.0429657)
(9.97182 -0.0279833 0.00329662)
(10.0229 -0.0718832 0.00569505)
(10.0696 -0.0474958 0.0324263)
(10.0937 -0.0082909 0.0150541)
(10.1757 0.0176962 -0.0485813)
(10.1664 0.0249104 -0.0395472)
(10.1261 -0.00226789 0.00952593)
(10.1329 -0.0129317 0.0182716)
(10.1626 0.00114061 0.0172295)
(10.1635 0.00610284 0.00617942)
(10.1035 -0.0140643 -0.00198841)
(10.0772 -0.0260394 -0.00172697)
(10.109 0.00233683 0.00149031)
(10.1316 0.0188493 0.0172514)
(10.1301 -0.00228041 0.0130858)
(10.0449 -0.0180818 0.0103054)
(10.023 -0.025706 0.00285285)
(10.0376 -0.0247147 -0.0408622)
(10.1411 0.00674276 -0.0012721)
(10.1577 0.0375391 0.0200037)
(10.1542 0.00787086 0.00856084)
(10.0943 0.0125429 -0.0120623)
(10.0445 0.0335776 -0.00471511)
(10.0735 0.0220647 0.00124378)
(10.138 0.00179731 -0.0107458)
(10.1209 0.00208976 -0.0129957)
(10.0932 0.0248341 -0.0240606)
(10.1026 -0.0700794 -0.0344286)
(9.98612 -0.0299323 -0.0190201)
(9.9775 0.0113006 -0.0207509)
(9.86782 0.045652 0.0340056)
(9.80573 0.0388222 0.0373702)
(9.87223 -0.00377549 0.0023497)
(9.90588 -0.00321386 0.0123342)
(9.88492 0.00958639 0.0302221)
(9.97137 0.0234403 0.0272651)
(10.0554 0.0111117 -0.0311077)
(10.0402 0.0126969 -0.0439656)
(9.95453 -0.00166861 0.00872053)
(9.95268 -0.00676032 0.0276654)
(9.98842 0.000711956 0.0179652)
(9.99832 0.00223957 0.00299152)
(9.94158 -0.000359586 -0.00450824)
(9.91484 0.00115553 -0.00693036)
(9.94875 0.00209951 -0.00622805)
(9.9661 0.00467851 0.00277376)
(9.95633 -0.00512146 0.00433418)
(9.8901 -0.00804943 0.0214078)
(9.88042 -0.00852241 0.0175658)
(9.88637 -0.00344372 -0.00991083)
(10.0216 -0.00956816 -0.0220082)
(10.0447 0.0315501 0.00362079)
(10.0378 0.0424565 0.0118835)
(9.87879 0.0172016 -0.00236972)
(9.88852 0.0224739 -0.00457964)
(10.0181 0.0148439 0.00619764)
(9.99402 -0.0347471 0.00136833)
(9.9097 -0.0342282 0.00573151)
(9.88566 -0.0193652 -0.0225576)
(9.91729 -0.0382504 -0.0403218)
)
;
    }
    procBoundary1to2
    {
        type            processor;
        value           nonuniform List<vector> 
256
(
(9.9302 -0.0266 -0.0286345)
(9.9121 -0.015746 -0.0484012)
(9.92765 0.0179329 -0.0298277)
(9.98755 -0.0113482 0.0458953)
(9.97267 -0.0137441 0.0509792)
(9.97638 -0.00755932 -0.0624425)
(9.90619 -0.00805234 -0.132814)
(9.8771 -0.014759 -0.104841)
(9.98843 -0.005493 0.00513315)
(10.0072 -0.00371155 0.0580859)
(9.9329 0.0174342 0.059432)
(9.95617 0.0222389 0.0193214)
(9.99785 0.00738238 -0.0430941)
(9.97813 0.0117491 -0.0326176)
(9.96875 0.0263485 -0.000140083)
(9.99014 -0.00156828 0.0239201)
(9.9995 0.000278154 0.0133972)
(9.96538 -0.0169137 -0.0484496)
(9.93664 -0.0211676 -0.049019)
(9.88955 0.00295323 -0.021313)
(9.86173 0.00901493 0.0215989)
(9.85883 -0.00484618 0.0175953)
(9.89198 -0.00842754 -0.0239122)
(9.98475 0.00345196 -0.0494236)
(9.95327 0.000906796 -0.0161991)
(9.92448 -0.00119614 0.0161799)
(9.97929 -6.56348e-05 0.00364106)
(9.99658 0.00781141 -0.000871699)
(9.91554 -0.0100344 0.0135221)
(9.93047 -0.0117277 0.0126596)
(9.99742 0.0294008 0.0528404)
(10.0031 0.00221524 0.0597589)
(10.0306 0.000780072 0.00417822)
(10.0336 0.0581719 -0.00882753)
(10.0485 0.0819045 -0.00175139)
(10.1184 -0.00258563 0.0485542)
(10.1568 -0.0337263 0.0603649)
(10.1868 -0.0278246 -0.00976884)
(10.052 -0.028205 -0.0831158)
(10.0054 -0.0357787 -0.0556001)
(10.1355 -0.0116181 0.0188297)
(10.1604 -0.00278375 0.0288486)
(10.1199 0.0136483 0.0303624)
(10.1338 0.00207708 0.0154705)
(10.1278 -0.00802244 -0.0165037)
(10.0918 0.0339209 -0.0340611)
(10.0934 0.0466716 -0.0118675)
(10.1183 -0.0246503 0.0315675)
(10.1277 -0.0260843 0.0170905)
(10.149 -0.0143532 -0.0323047)
(10.1371 -0.00864315 -0.0294017)
(10.0954 -0.0056544 -0.0303896)
(10.1067 -0.00891249 -0.0240439)
(10.035 -0.0145897 0.0267657)
(10.0124 -0.0078009 0.0407741)
(10.1164 -0.0133056 -0.0214142)
(10.0964 -0.0302312 -0.00654547)
(10.0723 -0.0258931 0.0095736)
(10.1067 -0.00108467 -0.0230528)
(10.1115 0.00583808 -0.0195197)
(10.1103 0.00337701 0.0226381)
(10.1129 -0.000962166 0.0150521)
(10.0461 0.00950098 0.00558354)
(10.0282 -0.00238144 0.0220371)
(10.081 0.00435609 -0.0179173)
(10.0453 0.0494937 0.0128337)
(10.0376 0.052448 0.0271634)
(10.1548 -0.00621052 0.016963)
(10.2018 -0.00901946 0.0322615)
(10.2118 0.000936323 -0.0123405)
(10.059 0.0179549 -0.069666)
(9.98085 -0.00413163 -0.0529167)
(10.1079 -0.0376024 0.00221442)
(10.1389 -0.0275342 0.0246586)
(10.065 0.0356092 0.0142955)
(10.0747 0.0488192 0.00684673)
(10.1902 0.0368995 -0.0101593)
(10.1902 0.00723928 -0.0234354)
(10.1253 -0.00102489 -0.00994766)
(10.0118 -0.00363668 -0.00461469)
(10.0395 -0.0129024 -0.0170802)
(10.1216 -0.0230492 -0.00851195)
(10.1039 -0.0170967 0.000995109)
(10.1022 -0.0195667 -0.0100457)
(10.0567 -0.0290603 -0.0104343)
(10.0181 0.0148624 0.0136722)
(10.0465 0.032688 0.0147434)
(10.1001 -0.0325955 -0.0169281)
(10.1009 -0.0409355 -0.022514)
(10.1312 -0.00870561 0.00306672)
(10.1189 0.0321075 -0.011479)
(10.0957 0.0394325 -0.00763935)
(10.0907 -0.00149633 0.0421996)
(10.0949 -0.0213591 0.040886)
(10.0359 -0.0631095 0.026686)
(10.0337 -0.0672281 0.00703267)
(10.1303 0.0297136 -0.00888133)
(10.1371 -0.0440889 0.00746891)
(10.0956 -1.36673e-05 0.00653927)
(10.0905 0.0227681 0.0149387)
(10.1285 -0.0239844 -0.00423039)
(10.1459 -0.0357136 -0.031264)
(10.0865 0.00453781 -0.0111603)
(10.0737 -0.00143387 0.0111845)
(10.0602 -0.0607681 0.0028523)
(10.1261 -0.062243 0.0353995)
(10.1567 0.0446111 0.0460581)
(10.1503 0.0492122 0.0231087)
(10.1466 -0.0149938 -0.00276659)
(10.0939 -0.0158165 -0.00881304)
(10.0532 0.0221133 -0.013496)
(10.0573 0.031858 -0.00434378)
(10.0822 0.0173777 0.00544012)
(10.1447 -0.00717904 -0.00414866)
(10.1358 -0.0183128 -0.0110042)
(10.1294 0.0137065 -0.0420395)
(10.0914 -0.0261056 -0.0138732)
(10.0725 -0.0452047 0.00834692)
(10.1095 0.0115871 -0.00587022)
(10.1121 0.0216749 -0.0251005)
(10.106 0.0184318 -0.0124171)
(10.0836 0.0182047 -0.00791791)
(10.0919 -0.0133275 -0.00950445)
(10.1197 -0.0253669 0.00329476)
(10.0531 -0.0432161 0.0233394)
(10.0618 -0.0631728 0.0246502)
(10.0875 -0.0219352 0.036625)
(10.1199 0.0599104 0.0107004)
(10.0924 0.0600726 -0.0215766)
(10.0837 0.0783894 -0.0050225)
(10.0434 0.0552681 0.0231478)
(10.0487 0.0391899 0.0117777)
(10.0646 0.00570389 -0.0109361)
(10.0877 -0.0583171 -0.00596352)
(10.1206 -0.0300884 0.00642018)
(10.1092 0.0399711 0.014153)
(10.0375 0.0534623 -0.0251385)
(10.1187 0.0164462 -0.0152111)
(10.1759 -0.0312662 0.0114441)
(10.1568 -0.0346117 0.00618524)
(10.1242 0.029702 -0.0187351)
(10.0868 0.0391215 -0.00156884)
(10.0296 -0.00274505 0.000273476)
(10.0216 -0.00109295 -0.01223)