/*--------------------------------*- C++ -*----------------------------------*\
| =========                 |                                                 |
| \\      /  F ield         | OpenFOAM: The Open Source CFD Toolbox           |
|  \\    /   O peration     | Version:  2506                                  |
|   \\  /    A nd           | Website:  www.openfoam.com                      |
|    \\/     M anipulation  |                                                 |
\*---------------------------------------------------------------------------*/
FoamFile
{
    version     2.0;
    format      ascii;
    arch        "LSB;label=32;scalar=64";
    class       volVectorField;
    location    "0.1";
    object      U;
}
// * * * * * * * * * * * * * * * * * * * * * * * * * * * * * * * * * * * * * //

dimensions      [0 1 -1 0 0 0 0];

internalField   nonuniform List<vector> 
1152
(
(0.00119472 0.000452792 0.0102522)
(-0.00128883 0.000954461 0.00884492)
(-0.00856181 0.000831822 0.020614)
(-0.000950292 -0.00072531 0.0107494)
(0.00205525 0.000375301 0.0218225)
(-0.00127807 -0.00246962 0.0134925)
(-0.000693633 0.000749806 0.00929632)
(0.00138407 0.00260452 0.0220275)
(0.00316846 -0.00175324 0.031941)
(0.000168351 0.00119155 0.0108375)
(-0.000258934 0.000947685 0.0102424)
(-0.00178029 -0.000403138 0.0182221)
(0.00205315 -0.000770412 0.00674692)
(0.000406725 -0.000480657 0.00855112)
(-0.00323674 -0.00282056 0.0163857)
(-0.0052855 -0.00632609 0.0289608)
(0.00023699 -0.00154256 0.052662)
(0.00188005 -0.000489761 0.0779717)
(0.00536766 -0.00105234 0.0319817)
(0.00298415 -0.00164582 0.0333208)
(0.000674772 -0.00282597 0.0417768)
(0.0060274 0.000580046 0.0467271)
(0.00152923 0.000292274 0.0521842)
(0.000938106 -0.0039952 0.042769)
(0.000560703 0.00349519 0.0372723)
(0.00482142 0.00116321 0.0463696)
(0.00145375 3.66371e-05 0.0637608)
(0.00321445 0.000722766 0.0412726)
(0.00230294 0.00331087 0.0574008)
(9.1563e-05 0.000316399 0.0785493)
(-0.0022494 0.00124319 0.0602329)
(0.00362069 0.00479802 0.0365289)
(-0.00592315 -0.00167121 0.0449505)
(0.00342353 -0.00191578 0.0282827)
(0.0102974 -0.00168516 0.0463689)
(-0.000979243 0.00393732 0.0699517)
(-0.00138479 0.000829601 0.033442)
(0.00143393 0.00386158 0.0384763)
(0.00305319 -0.00330977 0.0482443)
(-0.000410386 0.000270356 0.0359561)
(-0.00017096 -0.000126271 0.0328083)
(0.000774297 -0.000543561 0.0377031)
(0.00372942 0.00118884 0.0341085)
(0.00430883 0.00278249 0.0382028)
(-0.00324071 0.00323887 0.0567561)
(0.00224651 0.000559931 0.0506988)
(0.00535936 0.00408012 0.0384584)
(0.00447403 0.00234996 0.0416323)
(-8.59514e-05 0.00104862 0.0375204)
(-0.00179393 -0.00126371 0.048932)
(-0.00218201 -0.000260672 0.0463058)
(0.000825905 -0.000716082 0.0608878)
(-2.40565e-05 -0.000194261 0.0452725)
(-0.00260601 1.17587e-06 0.0497436)
(0.000294667 0.000469588 0.0410201)
(0.00103396 0.00322555 0.0411474)
(0.000632714 -0.00304038 0.0352201)
(-0.00078117 -0.00136257 0.0542912)
(0.00221589 0.00276828 0.0494327)
(0.00091546 0.00118268 0.0428066)
(0.000617476 -0.00125674 0.0293147)
(0.00527676 0.001865 0.0531883)
(0.00493668 0.00374913 0.0600799)
(0.00238459 -0.00123094 0.0514597)
(0.00350594 0.00214153 0.0649606)
(-0.000240447 0.000426622 0.0298217)
(-0.00111969 0.00466483 0.0647411)
(0.000828985 0.00110437 0.0338629)
(0.00215813 0.00152799 0.0555987)
(0.000613442 -0.000442583 0.0355857)
(0.00182802 0.000500817 0.0463355)
(0.000431516 0.00174665 0.0502987)
(0.00103638 0.00137784 0.0480342)
(-0.000857035 9.26487e-05 0.0539613)
(0.000919093 -0.000386896 0.0361718)
(0.00112357 -0.0017274 0.0579138)
(0.000941466 -0.000739042 0.0487106)
(-0.000927943 -0.000379655 0.0376896)
(-6.81482e-05 0.000516157 0.0591534)
(-0.000108629 -0.000719776 0.0493305)
(-0.000381585 0.00391629 0.0430774)
(0.00103279 0.00488081 0.0442073)
(0.00351065 0.00372463 0.0372201)
(0.00325094 0.005701 0.0392385)
(-0.000349974 0.0025812 0.0398132)
(0.0023568 0.00264185 0.0376841)
(0.00534411 0.00530794 0.0415048)
(0.00129901 0.000275128 0.0379419)
(0.000338571 0.00229603 0.0389554)
(0.00261879 0.00292257 0.0362427)
(0.000637163 0.000529858 0.0324418)
(-0.000857944 -0.00219251 0.0407372)
(-0.000419028 0.00264866 0.0433081)
(-0.00077172 0.000989796 0.0363244)
(-0.00237127 -0.00198563 0.0400404)
(-0.000508243 -5.99839e-05 0.0335686)
(0.000125289 -0.00392524 0.0391321)
(0.000205803 -0.000773764 0.0319574)
(-0.00140606 -0.00154459 0.0312127)
(-0.000372935 -0.000234361 0.0335865)
(-5.19465e-05 0.000819759 0.0347032)
(-7.69652e-06 -0.000854012 0.0250853)
(-0.0022847 -1.29668e-05 0.0325295)
(0.00178779 -0.000362194 0.0319125)
(-0.000625063 -0.000394564 0.0297078)
(-0.00103689 -0.00143239 0.0316463)
(-0.000261238 0.000624444 0.0262037)
(-0.000484251 -0.000762261 0.0296092)
(-0.000992269 -0.00149008 0.0308848)
(-0.00134558 -0.00151202 0.0287499)
(-0.000629481 -0.00080988 0.0331934)
(-6.49824e-05 -0.00081773 0.0280235)
(-0.00277141 0.0176579 0.00325094)
(0.00385124 0.00916121 -0.0258321)
(0.00866325 0.0115809 -0.00291033)
(0.008827 0.0065366 0.0258232)
(-0.00118818 0.0110637 0.00883835)
(0.00278376 0.0107229 -0.0222345)
(0.00606426 0.0084698 0.0153808)
(0.00594162 0.00531412 0.033354)
(0.000455042 0.00756847 0.00461578)
(0.00181152 0.00825781 0.0140399)
(0.00345336 0.00614362 0.0095049)
(0.00424931 0.00417511 0.018346)
(0.0011629 0.0049199 0.0200606)
(0.00105784 0.00490611 0.0270625)
(0.00196246 0.00432642 0.0265532)
(0.0027104 0.00338036 0.0176104)
(0.00190345 -0.0122676 0.0271348)
(-0.00193255 -0.0054923 0.0244516)
(-0.00579141 -0.00799497 0.0237711)
(-0.00560571 -0.00375571 0.0253417)
(0.00096711 -0.00579136 0.0244012)
(-0.00141097 -0.00587639 0.0221407)
(-0.00462796 -0.00475824 0.0237355)
(-0.00314585 -0.00190727 0.0251711)
(-0.000210884 -0.00347483 0.0229192)
(-0.000913584 -0.00486429 0.023126)
(-0.00210632 -0.00311231 0.0220805)
(-0.00196444 -0.00107778 0.0225011)
(-0.0012224 -0.00158713 0.0231853)
(-0.00104936 -0.00208264 0.0241662)
(-0.000871659 -0.00193644 0.0238494)
(-0.000684731 -0.000978845 0.0218583)
(0.00035504 -0.00313517 0.0142956)
(-0.000969371 -0.00218375 0.014114)
(-0.00261872 -0.00288904 0.0156138)
(-0.00306031 -0.00206058 0.0196002)
(-8.25763e-05 -0.00257821 0.0173967)
(-0.00108679 -0.00266578 0.0165207)
(-0.00242282 -0.00253075 0.0186516)
(-0.00227595 -0.00157845 0.0210251)
(-0.000511439 -0.00226325 0.0194838)
(-0.000967183 -0.00264484 0.0196562)
(-0.00159145 -0.00215611 0.020326)
(-0.0016552 -0.00120258 0.0215356)
(-0.00100311 -0.0014559 0.0209137)
(-0.00100622 -0.00164275 0.0215968)
(-0.000974121 -0.00152734 0.0220669)
(-0.000889617 -0.000976624 0.0221755)
(6.90006e-05 -0.00152547 0.0176128)
(-0.000665305 -0.00143549 0.0176882)
(-0.00145182 -0.00163267 0.0182204)
(-0.00175485 -0.00130329 0.0196637)
(-0.000199217 -0.00153872 0.0185491)
(-0.000759846 -0.00162156 0.0185653)
(-0.00133763 -0.00158861 0.0192964)
(-0.00144159 -0.00121862 0.0203421)
(-0.000415438 -0.00141381 0.0194782)
(-0.000746426 -0.00153263 0.0197063)
(-0.00106864 -0.00140307 0.0201438)
(-0.00114101 -0.00103894 0.0207869)
(-0.000628012 -0.00102979 0.0202067)
(-0.000757159 -0.00109304 0.0205971)
(-0.000837919 -0.00102935 0.0209498)
(-0.000824515 -0.000818796 0.0212206)
(-3.03422e-05 -0.000753697 0.0187558)
(-0.00043066 -0.000805309 0.0188491)
(-0.000811938 -0.000875027 0.019138)
(-0.000987229 -0.000775208 0.0197748)
(-0.000173011 -0.000873273 0.0192221)
(-0.000490816 -0.000938077 0.0193369)
(-0.000774982 -0.000937846 0.0196671)
(-0.00086826 -0.000800651 0.0201698)
(-0.000287823 -0.000847391 0.0197042)
(-0.000505012 -0.000902889 0.0198693)
(-0.000681615 -0.000861416 0.0201403)
(-0.000730439 -0.000719243 0.0205016)
(-0.000385804 -0.000674582 0.0200921)
(-0.000509569 -0.000701795 0.0203057)
(-0.000589083 -0.000663203 0.0205484)
(-0.000589378 -0.000568895 0.0207924)
(-5.68571e-05 -0.000377364 0.0193644)
(-0.000267199 -0.000427464 0.0194295)
(-0.000453609 -0.000464622 0.0195985)
(-0.000543501 -0.00044445 0.0199065)
(-0.000131425 -0.000480248 0.0196068)
(-0.000305409 -0.000523035 0.0196918)
(-0.000448965 -0.000531155 0.0198725)
(-0.000503927 -0.00048523 0.0201345)
(-0.000191783 -0.000489455 0.0198655)
(-0.00032162 -0.000520212 0.0199706)
(-0.000418209 -0.000507769 0.0201365)
(-0.000446152 -0.000452234 0.0203471)
(-0.000239275 -0.000415602 0.0200836)
(-0.000326017 -0.000430062 0.0202063)
(-0.000380396 -0.000410268 0.0203602)
(-0.000382723 -0.000365767 0.0205291)
(-5.45253e-05 -0.000195593 0.0197175)
(-0.000163351 -0.000229125 0.0197588)
(-0.000255249 -0.000252231 0.0198554)
(-0.000299583 -0.000254513 0.0200097)
(-9.43414e-05 -0.000264082 0.0198409)
(-0.000187421 -0.000290488 0.019895)
(-0.000260245 -0.000299358 0.0199973)
(-0.000288798 -0.000285995 0.0201375)
(-0.00012638 -0.000279835 0.0199786)
(-0.00019983 -0.00029757 0.0200431)
(-0.000251497 -0.00029505 0.0201419)
(-0.000265531 -0.000273228 0.0202637)
(-0.000150465 -0.000249017 0.0201014)
(-0.0002037 -0.000257186 0.0201736)
(-0.000235879 -0.000247671 0.0202674)
(-0.000236439 -0.000225773 0.0203731)
(-4.37792e-05 -0.000105516 0.0199135)
(-9.99253e-05 -0.000126082 0.0199392)
(-0.000145493 -0.000140988 0.0199941)
(-0.000166987 -0.000147416 0.020074)
(-6.57542e-05 -0.000147375 0.0199772)
(-0.000114887 -0.000163188 0.0200108)
(-0.000151702 -0.000170359 0.0200692)
(-0.000165477 -0.000167633 0.0201456)
(-8.32697e-05 -0.000160668 0.0200513)
(-0.000123305 -0.000170991 0.0200906)
(-0.000150132 -0.000171447 0.0201489)
(-0.000156149 -0.000162661 0.0202188)
(-9.59546e-05 -0.000148009 0.0201206)
(-0.000126187 -0.000152598 0.0201638)
(-0.000143492 -0.000147976 0.0202201)
(-0.000142324 -0.000136687 0.0202836)
(-3.2729e-05 -5.91509e-05 0.02002)
(-6.15728e-05 -7.15196e-05 0.0200363)
(-8.41961e-05 -8.10363e-05 0.0200676)
(-9.43544e-05 -8.66718e-05 0.0201103)
(-4.51918e-05 -8.38451e-05 0.0200539)
(-7.08099e-05 -9.32609e-05 0.0200747)
(-8.92066e-05 -9.8371e-05 0.0201084)
(-9.53111e-05 -9.87026e-05 0.0201509)
(-5.50262e-05 -9.31972e-05 0.0200945)
(-7.62356e-05 -9.92391e-05 0.0201186)
(-8.9669e-05 -0.0001003 0.020153)
(-9.15446e-05 -9.66512e-05 0.0201932)
(-6.19293e-05 -8.80499e-05 0.0201341)
(-7.81938e-05 -9.05929e-05 0.0201602)
(-8.67481e-05 -8.82704e-05 0.0201939)
(-8.47283e-05 -8.22392e-05 0.0202313)
(-2.36699e-05 -3.45201e-05 0.020078)
(-3.84359e-05 -4.19047e-05 0.0200883)
(-4.95973e-05 -4.78412e-05 0.0201063)
(-5.41644e-05 -5.18302e-05 0.0201298)
(-3.0894e-05 -4.88011e-05 0.0200964)
(-4.40877e-05 -5.4402e-05 0.0201094)
(-5.30904e-05 -5.77929e-05 0.0201291)
(-5.54145e-05 -5.87157e-05 0.020153)
(-3.65259e-05 -5.48324e-05 0.0201191)
(-4.74824e-05 -5.83734e-05 0.020134)
(-5.38988e-05 -5.93153e-05 0.0201544)
(-5.38649e-05 -5.77411e-05 0.0201776)
(-4.0364e-05 -5.27135e-05 0.0201419)
(-4.87351e-05 -5.4096e-05 0.020158)
(-5.25587e-05 -5.28704e-05 0.0201781)
(-5.03788e-05 -4.95564e-05 0.0202001)
(-1.68428e-05 -2.09158e-05 0.0201094)
(-2.43916e-05 -2.53265e-05 0.020116)
(-2.97997e-05 -2.89562e-05 0.0201266)
(-3.1656e-05 -3.15363e-05 0.0201398)
(-2.10928e-05 -2.91259e-05 0.0201198)
(-2.77983e-05 -3.24334e-05 0.020128)
(-3.20537e-05 -3.45748e-05 0.0201397)
(-3.26256e-05 -3.53778e-05 0.0201534)
(-2.4355e-05 -3.27996e-05 0.0201327)
(-2.98663e-05 -3.48599e-05 0.0201421)
(-3.27225e-05 -3.55261e-05 0.0201542)
(-3.19552e-05 -3.48036e-05 0.0201678)
(-2.65134e-05 -3.18577e-05 0.020146)
(-3.06256e-05 -3.25841e-05 0.020156)
(-3.20661e-05 -3.18932e-05 0.0201682)
(-3.01016e-05 -3.00227e-05 0.0201812)
(-1.18766e-05 -1.30841e-05 0.0201265)
(-1.57205e-05 -1.57146e-05 0.0201308)
(-1.82533e-05 -1.78979e-05 0.0201372)
(-1.88419e-05 -1.94863e-05 0.0201448)
(-1.43931e-05 -1.77972e-05 0.0201325)
(-1.77401e-05 -1.97282e-05 0.0201378)
(-1.96366e-05 -2.10306e-05 0.0201448)
(-1.94756e-05 -2.15837e-05 0.0201528)
(-1.62896e-05 -1.99407e-05 0.0201401)
(-1.89673e-05 -2.11222e-05 0.020146)
(-2.00868e-05 -2.15413e-05 0.0201534)
(-1.91559e-05 -2.11778e-05 0.0201614)
(-1.75067e-05 -1.94458e-05 0.0201479)
(-1.94038e-05 -1.98076e-05 0.0201543)
(-1.97357e-05 -1.939e-05 0.0201617)
(-1.81306e-05 -1.83064e-05 0.0201694)
(-8.30949e-06 -8.3753e-06 0.0201358)
(-1.02231e-05 -9.931e-06 0.0201387)
(-1.13455e-05 -1.12245e-05 0.0201426)
(-1.13873e-05 -1.217e-05 0.0201471)
(-9.79129e-06 -1.10534e-05 0.0201394)
(-1.14094e-05 -1.2174e-05 0.0201429)
(-1.21673e-05 -1.29458e-05 0.0201473)
(-1.17656e-05 -1.32877e-05 0.020152)
(-1.08896e-05 -1.22677e-05 0.020144)
(-1.21224e-05 -1.29352e-05 0.0201478)
(-1.24394e-05 -1.31787e-05 0.0201524)
(-1.15904e-05 -1.29746e-05 0.0201572)
(-1.15716e-05 -1.19569e-05 0.0201487)
(-1.23604e-05 -1.21224e-05 0.0201528)
(-1.22329e-05 -1.18544e-05 0.0201574)
(-1.10003e-05 -1.12103e-05 0.0201621)
(-5.72846e-06 -5.40627e-06 0.0201408)
(-6.63554e-06 -6.31079e-06 0.0201429)
(-7.08704e-06 -7.0628e-06 0.0201454)
(-6.93249e-06 -7.60782e-06 0.0201482)
(-6.586e-06 -6.89539e-06 0.0201431)
(-7.3265e-06 -7.54212e-06 0.0201455)
(-7.56161e-06 -7.98816e-06 0.0201483)
(-7.14234e-06 -8.18358e-06 0.0201512)
(-7.21368e-06 -7.56617e-06 0.020146)
(-7.73162e-06 -7.93592e-06 0.0201486)
(-7.71198e-06 -8.06625e-06 0.0201515)
(-7.0312e-06 -7.93839e-06 0.0201545)
(-7.58808e-06 -7.35141e-06 0.0201489)
(-7.8523e-06 -7.41378e-06 0.0201517)
(-7.57963e-06 -7.23339e-06 0.0201546)
(-6.67843e-06 -6.84175e-06 0.0201575)
(-3.82848e-06 -3.44578e-06 0.0201435)
(-4.23158e-06 -3.95269e-06 0.020145)
(-4.37533e-06 -4.37349e-06 0.0201467)
(-4.18294e-06 -4.67234e-06 0.0201485)
(-4.30776e-06 -4.24718e-06 0.0201451)
(-4.61847e-06 -4.60664e-06 0.0201468)
(-4.63434e-06 -4.85068e-06 0.0201486)
(-4.28637e-06 -4.9507e-06 0.0201506)
(-4.65419e-06 -4.5972e-06 0.0201469)
(-4.83648e-06 -4.79078e-06 0.0201488)
(-4.70616e-06 -4.85018e-06 0.0201507)
(-4.2075e-06 -4.76301e-06 0.0201527)
(-4.85023e-06 -4.44298e-06 0.0201489)
(-4.88856e-06 -4.45225e-06 0.0201508)
(-4.61565e-06 -4.32746e-06 0.0201528)
(-3.99113e-06 -4.0868e-06 0.0201547)
(-2.4367e-06 -2.12525e-06 0.0201449)
(-2.59784e-06 -2.3896e-06 0.020146)
(-2.60753e-06 -2.60772e-06 0.0201473)
(-2.43819e-06 -2.75809e-06 0.0201486)
(-2.68702e-06 -2.5248e-06 0.020146)
(-2.79573e-06 -2.70754e-06 0.0201473)
(-2.73379e-06 -2.82756e-06 0.0201487)
(-2.47803e-06 -2.87093e-06 0.0201501)
(-2.86507e-06 -2.67899e-06 0.0201474)
(-2.90112e-06 -2.76872e-06 0.0201487)
(-2.76042e-06 -2.78828e-06 0.0201502)
(-2.4229e-06 -2.73123e-06 0.0201516)
(-2.95964e-06 -2.56354e-06 0.0201487)
(-2.91744e-06 -2.54975e-06 0.0201502)
(-2.70156e-06 -2.46776e-06 0.0201516)
(-2.29657e-06 -2.32803e-06 0.020153)
(-1.57008e-06 -1.36055e-06 0.0201455)
(-1.61488e-06 -1.49097e-06 0.0201464)
(-1.57055e-06 -1.59298e-06 0.0201474)
(-1.43247e-06 -1.65841e-06 0.0201485)
(-1.6943e-06 -1.51982e-06 0.0201464)
(-1.70768e-06 -1.60581e-06 0.0201474)
(-1.62094e-06 -1.65566e-06 0.0201485)
(-1.43297e-06 -1.6642e-06 0.0201496)
(-1.77818e-06 -1.55363e-06 0.0201474)
(-1.75112e-06 -1.58697e-06 0.0201485)
(-1.61935e-06 -1.5815e-06 0.0201497)
(-1.38305e-06 -1.53357e-06 0.0201507)
(-1.81849e-06 -1.45652e-06 0.0201485)
(-1.74697e-06 -1.43259e-06 0.0201496)
(-1.57066e-06 -1.36964e-06 0.0201508)
(-1.29292e-06 -1.27191e-06 0.0201518)
(0.0014591 -0.0016935 0.01965)
(-0.000397623 -0.00307829 0.0152383)
(-0.0028342 -0.00308801 0.0176894)
(-0.000756444 -0.00226069 0.0109916)
(0.000464298 -0.00154124 0.0113276)
(-0.00113878 -0.00120711 0.0087704)
(-0.0017495 -0.000308667 0.013946)
(0.000896701 -0.000240149 0.0174087)
(-0.00206868 -0.0029179 0.0146101)
(-0.000636542 -0.0015837 0.0105031)
(-0.000688116 -1.60365e-06 0.0219084)
(0.000500261 0.00129625 0.0125509)
(-0.00330127 -0.00230032 0.0169619)
(-0.000435316 -0.000978042 0.0164031)
(0.000747497 -0.00102045 0.0186044)
(0.00107742 0.000724139 0.0163973)
(-0.00049676 -0.000512903 0.0421069)
(0.00290112 0.000855737 0.0482997)
(0.00395255 0.00095376 0.0447239)
(0.00238911 0.00222587 0.0214861)
(0.000107203 -3.00197e-05 0.0564645)
(0.00222404 0.00174216 0.0640181)
(0.00152036 0.000382204 0.04443)
(0.00180857 -0.000531362 0.0363102)
(0.000928069 -0.000527927 0.0537385)
(0.00184818 -0.00185852 0.0543467)
(0.00212953 -0.000124043 0.049574)
(0.00333828 0.000102683 0.0509622)
(0.00139469 -0.000809465 0.033719)
(0.0029091 -0.00231754 0.0455138)
(0.00231409 -0.000328307 0.0446886)
(0.0031748 -0.000976128 0.0584126)
(-0.00119639 -0.0020979 0.036515)
(0.00297012 0.00150754 0.0354123)
(0.00503946 0.00135051 0.0398958)
(0.00290759 0.000528753 0.0588282)
(0.000309641 -0.00143157 0.0282565)
(0.00472363 0.00134861 0.035373)
(0.00420244 0.00196952 0.0415649)
(0.000452739 1.87505e-05 0.0376363)
(0.000560478 0.00300416 0.0319224)
(0.0080193 0.00140992 0.0490695)
(0.00491369 0.00419135 0.045122)
(-0.000523366 0.000795951 0.029101)
(0.00195208 0.0035468 0.0394332)
(0.00505124 -0.00123338 0.0363097)
(0.00255808 0.00230803 0.04259)
(-0.000461587 0.0023228 0.0518193)
(0.00375321 0.00450976 0.05146)
(0.00260072 0.000737273 0.0405696)
(0.000227138 0.000920471 0.0480345)
(-0.00197145 -0.000542334 0.0488711)
(0.00114029 0.000616611 0.037491)
(0.00100876 -0.00263587 0.0616834)
(0.000692827 -0.00126849 0.0380157)
(-0.000250647 0.00169186 0.036767)
(0.00170229 -0.000981258 0.0313029)
(0.000162063 -0.000841162 0.0426508)
(0.00378629 -8.19427e-05 0.0577696)
(0.000839988 0.00302283 0.0445558)
(0.000855625 -0.0018762 0.0350029)
(0.00315107 -0.000334962 0.0484602)
(0.0043432 -0.000626187 0.0704452)
(-0.0008833 0.00207116 0.0490826)
(0.00197499 -0.00146871 0.0444678)
(0.000900646 -0.0029122 0.064215)
(0.000913875 0.00154075 0.0692023)
(-0.00158599 0.000163537 0.0317716)
(-0.000101764 0.000345347 0.0458431)
(0.000948064 -0.00264184 0.042458)
(0.00182047 -0.00243066 0.0464281)
(-0.00156322 -0.000507716 0.0427839)
(0.00408428 -0.00238688 0.0544484)
(-0.00178743 -0.00148365 0.0499003)
(-0.000907918 -0.00359443 0.041421)
(-0.00358125 -0.00300481 0.052927)
(0.00106353 -0.00298025 0.0433506)
(-0.000518541 -0.00175589 0.0428555)
(-0.000432655 -0.00387367 0.0524012)
(-0.000577011 0.00039699 0.0731686)
(0.00127687 -0.00156327 0.0363372)
(-0.00127658 -0.000596254 0.0342854)
(-0.00271408 -0.00262739 0.0397724)
(0.00125463 -0.00124945 0.0381902)
(0.00183556 -0.00190625 0.0278806)
(-0.000724881 -0.00422932 0.0288453)
(-0.00336081 -0.00438358 0.0394532)
(-0.00139165 -0.00736692 0.0397849)
(0.00226321 0.00184972 0.0480563)
(-0.00120615 -0.00487291 0.0317193)
(-0.00414059 -0.00985308 0.0462834)
(-0.00232571 -0.0065928 0.0290572)
(0.00111609 -1.157e-05 0.0225775)
(-0.00396828 0.00053678 0.0281299)
(-0.00478976 -0.00481069 0.0464562)
(-0.000438388 -0.00631308 0.0386235)
(-0.00105188 -9.85111e-05 0.0291537)
(-0.00312649 -0.000550321 0.0331934)
(0.000986925 -0.00349151 0.0332851)
(-0.000498112 -0.00144054 0.0283002)
(-0.000663944 3.2205e-05 0.0256147)
(-0.00133263 -0.00143101 0.0247031)
(-0.000775161 -0.00524375 0.0331085)
(0.00170166 -0.000880735 0.0389706)
(0.00237256 -0.00171288 0.0397347)
(0.000388601 -0.0010904 0.0247753)
(-0.000716212 -0.00172936 0.0386208)
(-0.0010713 0.000186692 0.0271008)
(0.00185631 0.000468879 0.0238777)
(0.00474171 1.72411e-05 0.0254998)
(0.000892551 0.00044842 0.0219716)
(-0.00324853 0.00134643 0.0357848)
(0.00123946 0.00302565 0.0165014)
(0.000997876 0.00283526 0.032368)
(0.00162173 0.00213511 0.0330691)
(0.00193081 0.0024522 0.0272205)
(0.00171833 0.00192895 0.0124998)
(0.00105693 0.00191804 0.0159571)
(0.00119349 0.000312388 0.0343694)
(0.00188155 0.00196524 0.0326173)
(0.00251488 0.000793068 0.0395944)
(0.000940238 0.00139225 0.00762246)
(0.000802773 -0.000886991 0.0277532)
(0.00175386 0.00116017 0.0199512)
(0.0045343 0.000213198 0.029379)
(0.000634099 0.000646932 0.023227)
(0.000694808 -0.000955444 0.00224056)
(0.00139443 -0.000140695 0.0370304)
(-0.00144817 6.11865e-05 0.0219276)
(-0.00116318 0.000312126 0.0238131)
(-0.000784983 -0.000137286 0.0242506)
(-0.000371548 -0.000388177 0.0225354)
(-0.00165142 -0.000285706 0.0205008)
(-0.000980272 0.00128943 0.0208602)
(-0.000890821 0.00136315 0.0237395)
(-0.000453255 0.000131901 0.0226047)
(-0.00151109 0.0001292 0.0227278)
(0.000201748 0.000864788 0.0190856)
(-0.000849286 0.00244285 0.0215091)
(-0.0010323 0.000451326 0.0218314)
(-0.00248682 0.0007507 0.0205163)
(0.000309665 0.000192437 0.0194209)
(-0.00137647 0.00183984 0.0183332)
(-0.00163376 0.000969971 0.0231517)
(-0.00117839 -0.000519093 0.0212948)
(-0.00100629 -0.0003541 0.0221284)
(-0.000840587 -0.000454048 0.0227842)
(-0.000667812 -0.0005222 0.0228068)
(-0.00126579 -0.000437531 0.0210584)
(-0.00086258 0.000327974 0.02154)
(-0.000859924 0.00046449 0.0227461)
(-0.000646384 -0.00017625 0.0230835)
(-0.00124456 -8.31348e-05 0.0216718)
(-0.000301978 0.000320369 0.0209375)
(-0.000839791 0.00111991 0.021869)
(-0.000824831 0.000113618 0.0232909)
(-0.00161203 0.000315319 0.0207325)
(-0.000198479 0.00014633 0.020604)
(-0.00107689 0.000983689 0.0206606)
(-0.00096904 0.000507077 0.0236745)
(-0.000735097 -0.000548321 0.0205624)
(-0.000747689 -0.000484967 0.0209774)
(-0.000763514 -0.000453622 0.0213509)
(-0.000681467 -0.000474671 0.0215582)
(-0.000796099 -0.000310378 0.0206174)
(-0.000682263 -6.35058e-05 0.0209064)
(-0.000739629 2.58514e-05 0.0214317)
(-0.000611086 -0.000231586 0.0217622)
(-0.000803302 -4.97795e-05 0.0208693)
(-0.000489738 0.000118211 0.0207383)
(-0.000716208 0.000391561 0.0212019)
(-0.000586191 4.073e-06 0.0219368)
(-0.000903522 0.000122103 0.0205674)
(-0.000442412 0.000149595 0.02059)
(-0.000775164 0.00047772 0.0208173)
(-0.000537866 0.00025639 0.0221097)
(-0.000443928 -0.000430584 0.0203289)
(-0.000502535 -0.000410079 0.0205509)
(-0.000542515 -0.000367357 0.0207877)
(-0.000496407 -0.000358871 0.0210015)
(-0.000479409 -0.000237545 0.0204228)
(-0.000473317 -0.000166268 0.0206179)
(-0.000510792 -0.000115133 0.0208964)
(-0.000429264 -0.000207783 0.0211502)
(-0.000494495 -6.30227e-05 0.0205078)
(-0.00040968 5.66071e-06 0.0206011)
(-0.000480254 0.000100477 0.0208799)
(-0.000366296 -4.85611e-05 0.0212666)
(-0.000526531 4.03313e-05 0.0204147)
(-0.00038252 9.40173e-05 0.0205443)
(-0.000471687 0.000221037 0.0207875)
(-0.000288656 0.000114096 0.0213482)
(-0.000270386 -0.000292333 0.0202363)
(-0.000323684 -0.000285493 0.0203642)
(-0.000353813 -0.000257413 0.0205089)
(-0.000324246 -0.000244194 0.020657)
(-0.000289931 -0.000173066 0.0203178)
(-0.000310702 -0.000148255 0.0204453)
(-0.000328335 -0.000120477 0.0205993)
(-0.000274085 -0.000151817 0.0207551)
(-0.000299137 -6.3936e-05 0.0203594)
(-0.000283926 -3.11582e-05 0.02047)
(-0.000299172 7.39656e-06 0.0206313)
(-0.000220165 -5.11452e-05 0.0208299)
(-0.000309656 9.6619e-06 0.0203384)
(-0.000264545 4.96073e-05 0.0204585)
(-0.000273976 0.000103313 0.0206214)
(-0.000158292 5.10877e-05 0.0208764)
(-0.000166932 -0.000186392 0.0201949)
(-0.000203249 -0.000183733 0.0202708)
(-0.0002209 -0.000167491 0.0203585)
(-0.000200947 -0.00015679 0.0204508)
(-0.00017709 -0.000117695 0.0202527)
(-0.000196742 -0.00010689 0.0203325)
(-0.00020305 -9.16256e-05 0.0204218)
(-0.000167419 -0.000101496 0.020512)
(-0.000181229 -5.14928e-05 0.0202819)
(-0.000182818 -3.37086e-05 0.0203616)
(-0.000180614 -1.5956e-05 0.0204552)
(-0.000129768 -3.99965e-05 0.0205579)
(-0.000183769 -3.35757e-07 0.0202834)
(-0.000169227 2.5547e-05 0.020367)
(-0.000157529 4.9708e-05 0.0204645)
(-8.78174e-05 2.29875e-05 0.0205854)
(-0.000104612 -0.000115839 0.0201769)
(-0.00012608 -0.000114418 0.0202224)
(-0.000134845 -0.000105155 0.0202752)
(-0.000121218 -9.77468e-05 0.0203303)
(-0.000109616 -7.69115e-05 0.0202149)
(-0.000122187 -7.11488e-05 0.0202637)
(-0.000122935 -6.24276e-05 0.0203163)
(-9.99104e-05 -6.50246e-05 0.0203674)
(-0.000111015 -3.70674e-05 0.0202359)
(-0.000113876 -2.67023e-05 0.0202869)
(-0.000107334 -1.77041e-05 0.0203414)
(-7.55859e-05 -2.81288e-05 0.0203951)
(-0.00011099 -2.81133e-06 0.0202425)
(-0.000104587 1.31495e-05 0.0202955)
(-9.03867e-05 2.45496e-05 0.0203522)
(-4.89041e-05 1.01603e-05 0.0204116)
(-6.64747e-05 -7.12255e-05 0.0201677)
(-7.80527e-05 -7.02557e-05 0.0201954)
(-8.16453e-05 -6.49261e-05 0.020227)
(-7.22984e-05 -6.01417e-05 0.0202593)
(-6.88165e-05 -4.91007e-05 0.020192)
(-7.54361e-05 -4.55823e-05 0.0202218)
(-7.38693e-05 -4.04347e-05 0.0202528)
(-5.90285e-05 -4.07755e-05 0.0202816)
(-6.9e-05 -2.51323e-05 0.0202067)
(-7.01241e-05 -1.88214e-05 0.0202381)
(-6.3545e-05 -1.39394e-05 0.0202697)
(-4.38143e-05 -1.87995e-05 0.0202982)
(-6.83132e-05 -2.79863e-06 0.020213)
(-6.3916e-05 6.90387e-06 0.0202455)
(-5.21424e-05 1.24834e-05 0.0202781)
(-2.73258e-05 4.31187e-06 0.0203081)
(-4.2754e-05 -4.36787e-05 0.0201621)
(-4.85374e-05 -4.29606e-05 0.020179)
(-4.94922e-05 -3.98518e-05 0.020198)
(-4.3075e-05 -3.68671e-05 0.0202168)
(-4.37847e-05 -3.09272e-05 0.0201774)
(-4.67015e-05 -2.86417e-05 0.0201956)
(-4.44651e-05 -2.55454e-05 0.0202139)
(-3.48507e-05 -2.53189e-05 0.0202302)
(-4.35246e-05 -1.64423e-05 0.0201872)
(-4.3226e-05 -1.25036e-05 0.0202064)
(-3.77998e-05 -9.75205e-06 0.0202247)
(-2.54435e-05 -1.22249e-05 0.0202401)
(-4.27971e-05 -2.13305e-06 0.020192)
(-3.91562e-05 3.77853e-06 0.0202118)
(-3.04358e-05 6.57986e-06 0.0202305)
(-1.53736e-05 1.70857e-06 0.0202461)
(-2.77674e-05 -2.68385e-05 0.0201581)
(-3.04095e-05 -2.63038e-05 0.0201687)
(-3.01923e-05 -2.44615e-05 0.0201801)
(-2.57974e-05 -2.2626e-05 0.0201912)
(-2.81768e-05 -1.93474e-05 0.0201677)
(-2.91148e-05 -1.78318e-05 0.0201789)
(-2.69526e-05 -1.59457e-05 0.0201899)
(-2.06842e-05 -1.56611e-05 0.0201992)
(-2.78142e-05 -1.05285e-05 0.0201741)
(-2.68313e-05 -8.03579e-06 0.0201859)
(-2.26989e-05 -6.45051e-06 0.0201967)
(-1.48745e-05 -7.8223e-06 0.0202051)
(-2.72207e-05 -1.45343e-06 0.0201775)
(-2.42e-05 2.18183e-06 0.0201896)
(-1.80359e-05 3.61522e-06 0.0202004)
(-8.74206e-06 6.00626e-07 0.0202087)
(-1.81586e-05 -1.65522e-05 0.0201553)
(-1.92025e-05 -1.616e-05 0.020162)
(-1.85746e-05 -1.50503e-05 0.0201689)
(-1.55775e-05 -1.39242e-05 0.0201755)
(-1.82858e-05 -1.2065e-05 0.0201613)
(-1.82977e-05 -1.1054e-05 0.0201683)
(-1.64861e-05 -9.89225e-06 0.0201749)
(-1.23776e-05 -9.6697e-06 0.0201803)
(-1.79503e-05 -6.65377e-06 0.0201654)
(-1.67992e-05 -5.0598e-06 0.0201727)
(-1.3783e-05 -4.13021e-06 0.0201791)
(-8.77827e-06 -4.94525e-06 0.0201838)
(-1.75106e-05 -9.30964e-07 0.0201677)
(-1.51121e-05 1.33066e-06 0.0201751)
(-1.08578e-05 2.07781e-06 0.0201815)
(-5.03998e-06 1.66729e-07 0.020186)
(-1.19024e-05 -1.02364e-05 0.0201533)
(-1.21897e-05 -9.95126e-06 0.0201575)
(-1.1505e-05 -9.27143e-06 0.0201619)
(-9.47494e-06 -8.57752e-06 0.0201658)
(-1.1908e-05 -7.50739e-06 0.020157)
(-1.15633e-05 -6.82994e-06 0.0201615)
(-1.01577e-05 -6.10626e-06 0.0201655)
(-7.4622e-06 -5.95163e-06 0.0201687)
(-1.16361e-05 -4.16751e-06 0.0201597)
(-1.05823e-05 -3.1389e-06 0.0201643)
(-8.4438e-06 -2.58451e-06 0.0201682)
(-5.22585e-06 -3.08895e-06 0.0201709)
(-1.13241e-05 -5.7363e-07 0.0201612)
(-9.50721e-06 8.47463e-07 0.0201658)
(-6.61974e-06 1.24461e-06 0.0201697)
(-2.94562e-06 2.01633e-08 0.0201722)
(-7.74708e-06 -6.31095e-06 0.0201518)
(-7.71482e-06 -6.10333e-06 0.0201546)
(-7.12018e-06 -5.68051e-06 0.0201574)
(-5.76588e-06 -5.2514e-06 0.0201598)
(-7.70581e-06 -4.64188e-06 0.0201542)
(-7.28617e-06 -4.18678e-06 0.0201571)
(-6.25586e-06 -3.73253e-06 0.0201597)
(-4.50408e-06 -3.62831e-06 0.0201616)
(-7.50049e-06 -2.58164e-06 0.0201559)
(-6.64919e-06 -1.91614e-06 0.0201589)
(-5.1774e-06 -1.58154e-06 0.0201613)
(-3.11992e-06 -1.89641e-06 0.020163)
(-7.28527e-06 -3.43154e-07 0.0201569)
(-5.97145e-06 5.51352e-07 0.0201599)
(-4.05146e-06 7.66447e-07 0.0201623)
(-1.73601e-06 -1.42018e-08 0.0201638)
(-4.91827e-06 -3.81501e-06 0.0201508)
(-4.7829e-06 -3.66527e-06 0.0201527)
(-4.32847e-06 -3.40229e-06 0.0201546)
(-3.45512e-06 -3.13919e-06 0.0201562)
(-4.86697e-06 -2.80692e-06 0.0201524)
(-4.49847e-06 -2.50614e-06 0.0201544)
(-3.78785e-06 -2.22397e-06 0.0201561)
(-2.6821e-06 -2.15523e-06 0.0201574)
(-4.72337e-06 -1.5586e-06 0.0201535)
(-4.09698e-06 -1.13541e-06 0.0201556)
(-3.12664e-06 -9.35033e-07 0.0201572)
(-1.84373e-06 -1.12674e-06 0.0201582)
(-4.58203e-06 -1.96921e-07 0.0201542)
(-3.68236e-06 3.57077e-07 0.0201563)
(-2.44909e-06 4.7419e-07 0.0201578)
(-1.02009e-06 -1.00488e-08 0.0201587)
(-2.98334e-06 -2.19203e-06 0.0201501)
(-2.84476e-06 -2.08885e-06 0.0201516)
(-2.53292e-06 -1.93142e-06 0.0201529)
(-1.99837e-06 -1.77921e-06 0.0201541)
(-2.94031e-06 -1.60734e-06 0.0201512)
(-2.66882e-06 -1.41711e-06 0.0201527)
(-2.21455e-06 -1.24868e-06 0.020154)
(-1.54955e-06 -1.21056e-06 0.0201549)
(-2.85023e-06 -8.87324e-07 0.0201521)
(-2.43187e-06 -6.28669e-07 0.0201536)
(-1.83111e-06 -5.11008e-07 0.0201547)
(-1.06594e-06 -6.24623e-07 0.0201555)
(-2.76546e-06 -1.02562e-07 0.0201525)
(-2.19268e-06 2.28397e-07 0.020154)
(-1.44283e-06 2.93674e-07 0.0201551)
(-5.95607e-07 8.34686e-09 0.0201558)
(-1.82225e-06 -1.23563e-06 0.0201496)
(-1.69383e-06 -1.1654e-06 0.0201507)
(-1.46345e-06 -1.06796e-06 0.0201517)
(-1.13741e-06 -9.62262e-07 0.0201526)
(-1.79408e-06 -9.05352e-07 0.0201504)
(-1.58912e-06 -7.89349e-07 0.0201516)
(-1.27971e-06 -6.94195e-07 0.0201525)
(-8.87597e-07 -6.63878e-07 0.0201532)
(-1.74619e-06 -4.9965e-07 0.0201511)
(-1.45686e-06 -3.44694e-07 0.0201522)
(-1.06439e-06 -2.81747e-07 0.0201531)
(-6.16696e-07 -3.41922e-07 0.0201536)
(-1.70059e-06 -5.15858e-08 0.0201514)
(-1.32047e-06 1.43266e-07 0.0201526)
(-8.41231e-07 1.7115e-07 0.0201533)
(-3.45984e-07 8.91602e-09 0.0201538)
(0.00136992 -0.00140965 0.0110938)
(0.00246142 -0.000963906 0.0144777)
(-0.000589674 0.000293544 0.0100379)
(-0.00169465 0.000956645 0.00977859)
(0.000470069 -0.000300239 0.0158162)
(0.000930171 -2.30433e-05 0.0114086)
(0.00216586 -0.000179219 0.0100639)
(0.00316574 -0.000657969 0.0179926)
(0.00246726 -0.00252169 0.0206086)
(0.00191567 -0.00030559 0.0117769)
(-0.000928615 -0.00376171 0.0176151)
(-0.000883807 -0.00313759 0.0119362)
(0.00029746 -0.0016305 0.0109529)
(0.00139905 -0.00298384 0.0126825)
(-0.000221472 -0.00246385 0.0120345)
(0.000119414 -0.000379613 0.0149183)
(0.000601347 -0.000574211 0.0435646)
(0.00127032 0.00177715 0.0470363)
(0.00333888 0.00599058 0.0668675)
(0.000741528 0.00561446 0.0460182)
(0.00252997 0.000883641 0.061297)
(0.00159333 0.00230542 0.0491541)
(-0.00102865 0.0024343 0.0553269)
(-0.00370115 0.0037027 0.0641221)
(0.0022535 0.00101319 0.025604)
(0.00304612 0.00240211 0.0620474)