/*--------------------------------*- C++ -*----------------------------------*\
| =========                 |                                                 |
| \\      /  F ield         | OpenFOAM: The Open Source CFD Toolbox           |
|  \\    /   O peration     | Version:  2506                                  |
|   \\  /    A nd           | Website:  www.openfoam.com                      |
|    \\/     M anipulation  |                                                 |
\*---------------------------------------------------------------------------*/
FoamFile
{
    version     2.0;
    format      ascii;
    arch        "LSB;label=32;scalar=64";
    class       volVectorField;
    location    "0.1";
    object      Us;
}
// * * * * * * * * * * * * * * * * * * * * * * * * * * * * * * * * * * * * * //

dimensions      [0 1 -1 0 0 0 0];

internalField   nonuniform List<vector> 
1152
(
(-6.49718e-05 0.000114381 7.33772e-05)
(-0.000399502 0.000176634 5.77415e-05)
(-0.0015001 -9.21274e-05 -0.000184917)
(-0.000817965 -2.95471e-05 0.000103423)
(1.96767e-06 0.000245867 0.000161208)
(-0.000324558 -4.87314e-05 -0.000115875)
(-0.000204705 -9.02398e-05 -5.90346e-05)
(-5.54365e-05 -0.000119827 -6.11543e-05)
(0.00039674 -0.000148047 6.46727e-05)
(0.000145124 -0.000218989 -6.85806e-05)
(0.000285832 2.133e-05 0.000233848)
(9.21884e-05 -0.000461598 5.5288e-05)
(0.000288335 -6.42282e-05 9.34785e-06)
(-0.000201196 -0.000112516 0.000112799)
(-0.000188897 -0.000410417 3.6018e-05)
(-0.000475084 -0.000271424 -6.00442e-05)
(0.000373808 -0.000918741 0.01238)
(0.00196497 7.12493e-05 0.0128193)
(0.00373189 -0.000854435 0.00878529)
(0.00250219 -0.000966476 0.0116996)
(0.000801067 -0.00105742 0.00996397)
(0.00457046 0.000375576 0.0108732)
(0.00191061 -8.94301e-05 0.0127139)
(0.000810772 -0.0017197 0.0138897)
(0.000586108 0.00223764 0.00741788)
(0.00261499 0.000546397 0.0116073)
(0.00217033 0.000390785 0.0140882)
(0.00220298 0.00120975 0.0131591)
(0.00138884 0.00163143 0.011969)
(0.000612596 0.000312017 0.014407)
(-0.00018379 0.00126848 0.0150148)
(0.00225708 0.00241193 0.0115422)
(-0.00175364 -0.00115818 0.0188767)
(0.00254524 -0.00133404 0.0172544)
(0.0033408 -0.000292659 0.0177956)
(-9.83854e-05 -4.90335e-05 0.0180308)
(-0.000283039 0.000431997 0.0187146)
(0.00133981 1.12982e-05 0.0178917)
(0.00166951 -0.000998605 0.0176544)
(-0.000748957 -0.000132336 0.0175644)
(0.000685989 -2.37867e-05 0.0165561)
(0.00117951 -0.000155202 0.0174956)
(0.00230605 0.000690926 0.0166796)
(0.000282008 0.000395788 0.0166297)
(0.000366265 0.00138284 0.0171368)
(0.000866185 0.00040506 0.0180449)
(0.00170604 0.00102227 0.0173309)
(0.00204973 0.00019682 0.017494)
(-0.000121587 0.00014173 0.0189834)
(-0.000319463 0.00029083 0.0195459)
(-0.000460955 0.000498566 0.0192764)
(-0.000796512 0.000427677 0.0191248)
(0.0004438 0.000123716 0.019014)
(0.000374439 -0.000214158 0.019628)
(-0.000357719 0.000305705 0.0196481)
(-0.000676261 0.000684398 0.0194465)
(0.000876531 -0.000465478 0.0183575)
(0.000506448 -0.000646385 0.0181377)
(0.000645969 0.000162993 0.0188608)
(-3.31237e-05 8.10416e-05 0.0191993)
(0.00118298 -0.000921156 0.0178711)
(0.000301222 -0.000283471 0.0179924)
(0.000860862 -0.000452929 0.0185205)
(-0.000210619 -0.000769279 0.0181191)
(4.4257e-05 0.000183625 0.0194926)
(-0.000201194 3.34147e-05 0.0198408)
(-0.000300961 0.000294653 0.019723)
(-0.000698288 0.000425255 0.0194167)
(-0.00021629 0.000204616 0.019469)
(-8.93772e-05 -0.000187022 0.0199733)
(-9.47405e-05 0.000211267 0.0200404)
(-0.000702702 -0.00011494 0.0201883)
(-0.00015955 -0.000471193 0.0194091)
(4.51113e-06 -0.000264188 0.0200103)
(-6.35837e-05 1.76583e-05 0.0201007)
(-0.000304586 0.000335834 0.0202235)
(1.17527e-06 -0.000612508 0.0181367)
(-0.000157124 -0.00104499 0.0186651)
(-0.000563412 -0.00131737 0.0196561)
(-0.000497098 -0.00042641 0.0193946)
(-0.000591918 0.000193384 0.019638)
(-0.000505546 0.000237096 0.0199002)
(-0.000202832 4.30566e-05 0.0195359)
(0.000227541 0.000233403 0.0201345)
(-0.000396672 -4.64347e-05 0.0195534)
(-0.000254257 -0.00042479 0.0200397)
(-0.000133967 -6.74189e-05 0.0199695)
(0.000752002 4.80305e-05 0.0203099)
(-0.000584651 -0.000442378 0.0195571)
(-0.000144781 -0.000353981 0.0197724)
(2.89485e-05 2.10342e-05 0.0200783)
(-2.46526e-05 -0.000565318 0.0202167)
(-0.000941928 -0.000468044 0.0178788)
(-0.00170544 -0.000839062 0.0194371)
(-0.00170271 -6.5377e-06 0.0204313)
(-0.000317776 3.36433e-05 0.0198258)
(-0.000343345 8.60716e-05 0.0192942)
(-0.000295423 -0.00043306 0.0192783)
(-0.000750836 -0.000432852 0.0194335)
(0.000254102 0.000416919 0.0194742)
(-0.000439853 -4.60776e-05 0.0192128)
(-8.04289e-06 -0.000566668 0.0195431)
(-0.000740206 -1.81341e-05 0.0196316)
(-0.000664729 -0.00153175 0.019056)
(-0.000606007 -0.000546681 0.0196896)
(-0.00076891 -0.000302919 0.019303)
(-0.000469747 0.0006711 0.019901)
(-4.16337e-05 -0.0014469 0.0190396)
(-0.00116997 -0.00119447 0.0185908)
(-0.00100725 -0.00114249 0.0190583)
(-0.00107135 -0.000242466 0.0200134)
(0.000255514 -0.000505943 0.0192969)
(0 0 0)
(-0.000213592 -0.000566688 0.0194139)
(0 0 0)
(0 0 0)
(0 0 0)
(0 0 0)
(0 0 0)
(0 0 0)
(0 0 0)
(0 0 0)
(0 0 0)
(0 0 0)
(0 0 0)
(0 0 0)
(0 0 0)
(0 0 0)
(0 0 0)
(0 0 0)
(0 0 0)
(0 0 0)
(0 0 0)
(0 0 0)
(0 0 0)
(0 0 0)
(0 0 0)
(0 0 0)
(0 0 0)
(0 0 0)
(0 0 0)
(0 0 0)
(0 0 0)
(0 0 0)
(0 0 0)
(0 0 0)
(0 0 0)
(0 0 0)
(0 0 0)
(0 0 0)
(0 0 0)
(0 0 0)
(0 0 0)
(0 0 0)
(0 0 0)
(0 0 0)
(0 0 0)
(0 0 0)
(0 0 0)
(0 0 0)
(0 0 0)
(0 0 0)
(0 0 0)
(0 0 0)
(0 0 0)
(0 0 0)
(0 0 0)
(0 0 0)
(0 0 0)
(0 0 0)
(0 0 0)
(0 0 0)
(0 0 0)
(0 0 0)
(0 0 0)
(0 0 0)
(0 0 0)
(0 0 0)
(0 0 0)
(0 0 0)
(0 0 0)
(0 0 0)
(0 0 0)
(0 0 0)
(0 0 0)
(0 0 0)
(0 0 0)
(0 0 0)
(0 0 0)
(0 0 0)
(0 0 0)
(0 0 0)
(0 0 0)
(0 0 0)
(0 0 0)
(0 0 0)
(0 0 0)
(0 0 0)
(0 0 0)
(0 0 0)
(0 0 0)
(0 0 0)
(0 0 0)
(0 0 0)
(0 0 0)
(0 0 0)
(0 0 0)
(0 0 0)
(0 0 0)
(0 0 0)
(0 0 0)
(0 0 0)
(0 0 0)
(0 0 0)
(0 0 0)
(0 0 0)
(0 0 0)
(0 0 0)
(0 0 0)
(0 0 0)
(0 0 0)
(0 0 0)
(0 0 0)
(0 0 0)
(0 0 0)
(0 0 0)
(0 0 0)
(0 0 0)
(0 0 0)
(0 0 0)
(0 0 0)
(0 0 0)
(0 0 0)
(0 0 0)
(0 0 0)
(0 0 0)
(0 0 0)
(0 0 0)
(0 0 0)
(0 0 0)
(0 0 0)
(0 0 0)
(0 0 0)
(0 0 0)
(0 0 0)
(0 0 0)
(0 0 0)
(0 0 0)
(0 0 0)
(0 0 0)
(0 0 0)
(0 0 0)
(0 0 0)
(0 0 0)
(0 0 0)
(0 0 0)
(0 0 0)
(0 0 0)
(0 0 0)
(0 0 0)
(0 0 0)
(0 0 0)
(0 0 0)
(0 0 0)
(0 0 0)
(0 0 0)
(0 0 0)
(0 0 0)
(0 0 0)
(0 0 0)
(0 0 0)
(0 0 0)
(0 0 0)
(0 0 0)
(0 0 0)
(0 0 0)
(0 0 0)
(0 0 0)
(0 0 0)
(0 0 0)
(0 0 0)
(0 0 0)
(0 0 0)
(0 0 0)
(0 0 0)
(0 0 0)
(0 0 0)
(0 0 0)
(0 0 0)
(0 0 0)
(0 0 0)
(0 0 0)
(0 0 0)
(0 0 0)
(0 0 0)
(0 0 0)
(0 0 0)
(0 0 0)
(0 0 0)
(0 0 0)
(0 0 0)
(0 0 0)
(0 0 0)
(0 0 0)
(0 0 0)
(0 0 0)
(0 0 0)
(0 0 0)
(0 0 0)
(0 0 0)
(0 0 0)
(0 0 0)
(0 0 0)
(0 0 0)
(0 0 0)
(0 0 0)
(0 0 0)
(0 0 0)
(0 0 0)
(0 0 0)
(0 0 0)
(0 0 0)
(0 0 0)
(0 0 0)
(0 0 0)
(0 0 0)
(0 0 0)
(0 0 0)
(0 0 0)
(0 0 0)
(0 0 0)
(0 0 0)
(0 0 0)
(0 0 0)
(0 0 0)
(0 0 0)
(0 0 0)
(0 0 0)
(0 0 0)
(0 0 0)
(0 0 0)
(0 0 0)
(0 0 0)
(0 0 0)
(0 0 0)
(0 0 0)
(0 0 0)
(0 0 0)
(0 0 0)
(0 0 0)
(0 0 0)
(0 0 0)
(0 0 0)
(0 0 0)
(0 0 0)
(0 0 0)
(0 0 0)
(0 0 0)
(0 0 0)
(0 0 0)
(0 0 0)
(0 0 0)
(0 0 0)
(0 0 0)
(0 0 0)
(0 0 0)
(0 0 0)
(0 0 0)
(0 0 0)
(0 0 0)
(0 0 0)
(0 0 0)
(0 0 0)
(0 0 0)
(0 0 0)
(0 0 0)
(0 0 0)
(0 0 0)
(0 0 0)
(0 0 0)
(0 0 0)
(0 0 0)
(0 0 0)
(0 0 0)
(-0.000445663 -0.000901547 -8.51807e-05)
(-0.000160865 -7.34184e-05 9.46043e-05)
(7.64925e-05 -0.000288967 1.37564e-05)
(-0.000289436 -0.000280536 -0.000558156)
(-0.00102619 -0.00108959 -0.000382401)
(-0.000269592 -0.00014561 -3.31691e-05)
(-0.000245914 -0.000125272 -0.000125732)
(8.15723e-05 0.000112882 -5.72881e-05)
(-0.000903293 -0.000661631 -0.00024712)
(-0.000105992 -0.000104967 -0.000359799)
(-0.000508483 -9.72443e-06 -0.000292322)
(4.28115e-05 6.1197e-05 -0.000136322)
(-0.000684509 -0.000596077 -0.000201722)
(-0.000774936 -0.000156071 -0.000551054)
(7.78223e-05 -9.76074e-05 -0.0001507)
(0.000232077 -0.000197694 -0.000259919)
(-0.000579248 0.00021643 0.0117064)
(0.0019678 0.00074287 0.0134479)
(0.00223101 0.000954251 0.0140667)
(0.00201163 0.00176473 0.00926136)
(0.000467616 -0.000266664 0.0119573)
(0.000322064 0.000423928 0.0128747)
(0.000924931 -0.000383739 0.0128792)
(0.0012586 0.000448652 0.0113102)
(0.000903495 -0.000584565 0.0133797)
(0.000641239 -0.00157869 0.0131885)
(0.00138501 -0.000830789 0.0126315)
(0.00163649 -0.000895773 0.0122714)
(0.00161369 -0.000869663 0.0106418)
(0.00192032 -0.00157459 0.0117011)
(0.00116569 -0.000512686 0.0113816)
(0.00195741 -0.00149681 0.0133213)
(0.000520377 -0.000836175 0.0154779)
(0.00163818 0.000288869 0.016423)
(0.00155278 0.000137775 0.0165501)
(0.00114868 0.000636431 0.0156651)
(0.0010446 -0.000915527 0.0153903)
(0.00119276 6.11506e-05 0.0151981)
(0.00131013 -4.04263e-05 0.0164261)
(0.000472744 0.000218805 0.0165055)
(0.00156174 0.000480373 0.0157371)
(0.00226756 -0.00121049 0.0159188)
(0.00168385 -0.000390923 0.0156806)
(-0.000617595 -3.72572e-05 0.0151417)
(0.00143789 0.000883335 0.0145325)
(0.00216607 -0.00195093 0.0126372)
(0.000503606 -0.000188374 0.0131882)
(-0.000105235 0.000158552 0.0128156)
(0.00104167 -0.000785801 0.0188646)
(0.000719683 -0.000804969 0.0177569)
(0.000671353 -0.000184354 0.0185202)
(-0.00220937 -0.00234817 0.0164609)
(6.05087e-05 -0.00121431 0.0166996)
(0.00107103 -0.00188529 0.0159814)
(5.71058e-05 -0.000663275 0.0189131)
(-0.00115836 -0.00126482 0.017478)
(0.00123696 -0.000464055 0.0148008)
(0.000436305 -0.00132102 0.0142681)
(0.000699876 -0.000229872 0.018624)
(-0.000451098 0.000624862 0.0169997)
(0.000147844 -0.000508413 0.014376)
(0.00144579 -0.000530444 0.0142439)
(0.00055587 -0.000429979 0.0146894)
(-0.00126721 0.00151509 0.0164359)
(0.00039734 -0.000774141 0.0176405)
(0.000229642 -0.0012031 0.0176851)
(2.18059e-05 -0.00147698 0.0184843)
(-0.00153357 -0.000912298 0.0180342)
(0.000795424 -0.00132894 0.0165658)
(0.00036705 -0.00175802 0.016965)
(-1.5441e-05 -0.00133465 0.018702)
(-0.000485337 -0.000982375 0.0180295)
(-0.00069626 -0.00155691 0.0148013)
(-0.000612842 -0.00151551 0.0147265)
(-0.00051546 -0.00100288 0.0174462)
(-0.00208094 -0.00193773 0.0171998)
(-5.8995e-05 -0.00138876 0.0145021)
(0.000156166 -0.00101472 0.0142072)
(-0.000726268 -0.00108392 0.0159587)
(-0.000989593 0.000307945 0.0151547)
(-0.000359949 -0.00150966 0.0177257)
(-0.000819855 -0.00148596 0.0180039)
(-0.00129184 -0.00251067 0.0180459)
(0.000383307 -0.000642232 0.0181446)
(-0.000297534 -0.00142687 0.0165258)
(-0.000628432 -0.00243259 0.0181095)
(-0.00113241 -0.00283658 0.0177161)
(0.000627949 -0.00215006 0.0171461)
(0.000830844 -0.00130772 0.0146609)
(0.000159217 -0.00241944 0.0156866)
(-0.00021662 -0.00216483 0.0156515)
(-0.000672245 -0.00241808 0.0162324)
(-0.000232987 -0.000856374 0.0120345)
(-0.00101325 -0.000461746 0.0108952)
(8.20838e-05 -0.00105462 0.0132897)
(-0.00102897 -0.00203538 0.0107231)
(-0.0006779 -0.000546035 0.0182976)
(-0.00271976 -0.00122281 0.0197774)
(0.000753127 -0.00334378 0.0176811)
(-0.000379895 -0.000572967 0.0174442)
(-0.00034507 0.00036663 0.0164972)
(-0.000955434 -0.00295989 0.0179424)
(-1.68858e-05 -0.00542671 0.0167035)
(0.000339953 -0.00212573 0.0167397)
(0.00173844 -0.000473027 0.0142271)
(0.000418784 -0.000966197 0.0154266)
(-0.000923007 -0.00279831 0.0163761)
(-0.00133262 0.000434421 0.0158225)
(0.00322915 0.000162524 0.0108627)
(0.00468852 0.000983038 0.00928384)
(0.000815868 9.56788e-05 0.0130669)
(-0.00197068 0.00236439 0.00970855)
(0 0 0)
(0 0 0)
(0 0 0)
(0 0 0)
(0 0 0)
(0 0 0)
(0 0 0)
(0 0 0)
(0 0 0)
(0 0 0)
(0 0 0)
(0 0 0)
(0 0 0)
(0 0 0)
(0 0 0)
(0 0 0)
(0 0 0)
(0 0 0)
(0 0 0)
(0 0 0)
(0 0 0)
(0 0 0)
(0 0 0)
(0 0 0)
(0 0 0)
(0 0 0)
(0 0 0)
(0 0 0)
(0 0 0)
(0 0 0)
(0 0 0)
(0 0 0)
(0 0 0)
(0 0 0)
(0 0 0)
(0 0 0)
(0 0 0)
(0 0 0)
(0 0 0)
(0 0 0)
(0 0 0)
(0 0 0)
(0 0 0)
(0 0 0)
(0 0 0)
(0 0 0)
(0 0 0)
(0 0 0)
(0 0 0)
(0 0 0)
(0 0 0)
(0 0 0)
(0 0 0)
(0 0 0)
(0 0 0)
(0 0 0)
(0 0 0)
(0 0 0)
(0 0 0)
(0 0 0)
(0 0 0)
(0 0 0)
(0 0 0)
(0 0 0)
(0 0 0)
(0 0 0)
(0 0 0)
(0 0 0)
(0 0 0)
(0 0 0)
(0 0 0)
(0 0 0)
(0 0 0)
(0 0 0)
(0 0 0)
(0 0 0)
(0 0 0)
(0 0 0)
(0 0 0)
(0 0 0)
(0 0 0)
(0 0 0)
(0 0 0)
(0 0 0)
(0 0 0)
(0 0 0)
(0 0 0)
(0 0 0)
(0 0 0)
(0 0 0)
(0 0 0)
(0 0 0)
(0 0 0)
(0 0 0)
(0 0 0)
(0 0 0)
(0 0 0)
(0 0 0)
(0 0 0)
(0 0 0)
(0 0 0)
(0 0 0)
(0 0 0)
(0 0 0)
(0 0 0)
(0 0 0)
(0 0 0)
(0 0 0)
(0 0 0)
(0 0 0)
(0 0 0)
(0 0 0)
(0 0 0)
(0 0 0)
(0 0 0)
(0 0 0)
(0 0 0)
(0 0 0)
(0 0 0)
(0 0 0)
(0 0 0)
(0 0 0)
(0 0 0)
(0 0 0)
(0 0 0)
(0 0 0)
(0 0 0)
(0 0 0)
(0 0 0)
(0 0 0)
(0 0 0)
(0 0 0)
(0 0 0)
(0 0 0)
(0 0 0)
(0 0 0)
(0 0 0)
(0 0 0)
(0 0 0)
(0 0 0)
(0 0 0)
(0 0 0)
(0 0 0)
(0 0 0)
(0 0 0)
(0 0 0)
(0 0 0)
(0 0 0)
(0 0 0)
(0 0 0)
(0 0 0)
(0 0 0)
(0 0 0)
(0 0 0)
(0 0 0)
(0 0 0)
(0 0 0)
(0 0 0)
(0 0 0)
(0 0 0)
(0 0 0)
(0 0 0)
(0 0 0)
(0 0 0)
(0 0 0)
(0 0 0)
(0 0 0)
(0 0 0)
(0 0 0)
(0 0 0)
(0 0 0)
(0 0 0)
(0 0 0)
(0 0 0)
(0 0 0)
(0 0 0)
(0 0 0)
(0 0 0)
(0 0 0)
(0 0 0)
(0 0 0)
(0 0 0)
(0 0 0)
(0 0 0)
(0 0 0)
(0 0 0)
(0 0 0)
(0 0 0)
(0 0 0)
(0 0 0)
(0 0 0)
(0 0 0)
(0 0 0)
(0 0 0)
(0 0 0)
(0 0 0)
(0 0 0)
(0 0 0)
(0 0 0)
(0 0 0)
(0 0 0)
(0 0 0)
(0 0 0)
(0 0 0)
(0 0 0)
(0 0 0)
(0 0 0)
(0 0 0)
(0 0 0)
(0 0 0)
(0 0 0)
(0 0 0)
(0 0 0)
(0 0 0)
(0 0 0)
(0 0 0)
(0 0 0)
(0 0 0)
(0 0 0)
(0 0 0)
(0 0 0)
(0 0 0)
(0 0 0)
(0 0 0)
(0 0 0)
(0 0 0)
(0 0 0)
(0 0 0)
(0 0 0)
(0 0 0)
(0 0 0)
(0 0 0)
(0 0 0)
(0 0 0)
(0 0 0)
(0 0 0)
(0 0 0)
(0 0 0)
(0 0 0)
(0 0 0)
(0 0 0)
(0 0 0)
(0 0 0)
(0 0 0)
(0 0 0)
(0 0 0)
(0 0 0)
(0 0 0)
(0 0 0)
(0 0 0)
(0 0 0)
(0 0 0)
(0 0 0)
(0 0 0)
(0 0 0)
(0 0 0)
(0 0 0)
(0 0 0)
(0 0 0)
(0 0 0)
(0 0 0)
(0 0 0)
(0 0 0)
(0 0 0)
(0 0 0)
(0 0 0)
(0 0 0)
(0 0 0)
(0 0 0)
(0 0 0)
(0 0 0)
(0 0 0)
(-0.000355483 -0.000629609 -0.000617439)
(-0.000114315 -0.000713557 -0.000481465)
(-0.000162193 -7.07718e-06 4.65929e-05)
(-0.000294371 0.000230521 -0.000115977)
(-0.000132296 -0.000457032 -0.000431116)
(0.000103104 -0.000270825 -7.30489e-05)
(-0.000110322 -0.00029988 -0.000127637)
(0.000109039 -0.00053976 -0.00027256)
(0.000264877 -0.000755928 -2.60467e-05)
(6.82696e-05 -0.000137419 -7.02108e-05)
(4.72982e-05 -6.36009e-05 3.65289e-05)
(6.03484e-05 -0.000117385 -9.09111e-05)
(-0.000271478 -0.000652695 -0.000260427)
(0.00111217 -0.000736006 -0.000549061)
(-8.18786e-05 -0.000306071 -9.7026e-05)
(4.9645e-05 -0.000227313 -0.000153159)
(0.00183683 -0.000602121 0.0130453)
(0.000407428 0.00153147 0.0128646)
(0.00113425 0.00337811 0.0137272)
(8.16328e-05 0.00384476 0.0130602)
(0.000255048 5.0299e-06 0.0142942)
(-2.18043e-05 0.000848955 0.0125134)
(-0.001178 0.000957878 0.013362)
(-0.00239485 0.00199421 0.0123089)
(0.00126117 0.000534169 0.0107116)
(0.000364927 0.00044797 0.0127228)
(-0.00147653 3.31472e-05 0.0135689)
(-0.000218064 -0.000421747 0.0113496)
(0.00176676 4.02361e-05 0.0133443)
(-0.000426719 0.000317013 0.0122012)
(0.000429528 0.000694877 0.0132715)
(0.000937013 -0.000816374 0.0117242)
(-0.000761517 0.000790098 0.0177148)
(-0.00113759 0.00117402 0.0176901)
(-0.00155712 0.00172746 0.0169219)
(-0.000746023 0.00107397 0.0165799)
(-0.000629587 0.000532293 0.0173073)
(-0.000428232 0.000785626 0.0173584)
(-0.00107295 0.00204536 0.0175724)
(-0.00155209 0.00218092 0.0154359)
(1.97154e-05 -0.000471311 0.0161396)
(-0.000628428 0.00068307 0.0164935)
(-0.000609996 0.000816684 0.0159947)
(-0.000937027 0.00169381 0.0152122)
(0.0001916 -0.000146625 0.0164294)
(-0.00038054 0.000134177 0.0166276)
(-0.000845649 0.000792278 0.0147964)
(-0.000551302 0.000985349 0.012413)
(-0.00121221 0.00151576 0.0194725)
(-0.00100946 0.00114445 0.0185114)
(-0.00169964 0.000246006 0.0188059)
(-0.000967774 0.000923496 0.0168645)
(-0.000592124 0.000609559 0.0188184)
(-0.00189476 0.000998345 0.0191508)
(-0.000233218 -0.000342507 0.0184155)
(-0.000427777 -0.000437938 0.0179419)
(-0.000429157 0.000791499 0.0189628)
(-0.000841987 0.000823906 0.0190124)
(0.00112363 0.000873296 0.0159251)
(3.84338e-05 0.0013255 0.0187049)
(-0.00066948 -0.000135058 0.0168362)
(-0.00216618 0.000413922 0.0163588)
(-0.00260081 0.00193745 0.0145458)
(-0.0013135 0.00216315 0.0177875)
(-0.000849757 0.000143063 0.0188129)
(-0.00137399 0.000162229 0.0200492)
(-0.00124317 -0.000583588 0.0183716)
(0.000104453 -0.00169357 0.0158227)
(-0.000862733 0.000356503 0.01998)
(-0.00170247 0.000112005 0.0187011)
(-0.000478658 -0.000971392 0.0187005)
(0.000724618 -0.00195241 0.0166596)
(-0.000921834 0.000599922 0.0199849)
(-0.00133365 0.000698955 0.0181548)
(-0.000900838 0.000439411 0.0160037)
(-0.000339449 0.0017983 0.0156503)
(-0.00148523 -0.000662432 0.0188156)
(0.000175031 -0.000442195 0.0169728)
(0.000346212 0.000184099 0.0147375)
(-0.000223432 0.000143675 0.0120494)
(0.000297611 -7.83682e-05 0.0197748)
(-0.000659209 0.00064564 0.0189559)
(-0.000234277 3.56072e-06 0.0171892)
(-0.000460689 -0.00143639 0.0154479)
(0.000829181 -0.000350005 0.0198484)
(0.000834861 0.0005538 0.0189143)
(-0.00017296 -0.00037525 0.0176567)
(-0.000199441 0.000623732 0.0123366)
(0.000127572 -0.000193276 0.0198714)
(-0.000600379 -0.00100444 0.0185693)
(-0.0006134 -0.000833696 0.0157016)
(-4.73807e-05 -0.000493818 0.0119619)
(-0.000587848 -0.000398459 0.0182421)
(-0.000433175 7.10185e-05 0.0174722)
(-0.00125283 -0.000223535 0.0167234)
(4.81915e-06 -0.00141519 0.01255)
(0.00198279 -0.000511915 0.018726)
(0.000846145 0.000100163 0.0183899)
(0.0017454 -0.00242411 0.0163627)
(0.00117732 -0.00178897 0.0150026)
(0.00117859 -0.00040825 0.0178145)
(0.00311872 0.00190696 0.0182536)
(0.00462982 -0.000655254 0.0165614)
(0.00533963 0.00266271 0.00928535)
(0.000739715 -0.000317185 0.0181773)
(0.00216732 -3.27667e-05 0.0181654)
(0.00287111 -0.000430356 0.0161365)
(-0.000697309 0.000452688 0.0139294)
(0.000222219 -0.00130843 0.0191248)
(0.0016517 0.000538766 0.0181815)
(0.00188302 -0.000884668 0.017135)
(8.14449e-05 0.000202286 0.00953828)
(0 0 0)
(0 0 0)
(0 0 0)
(0 0 0)
(0 0 0)
(0 0 0)
(0 0 0)
(0 0 0)
(0 0 0)
(0 0 0)
(0 0 0)
(0 0 0)
(0 0 0)
(0 0 0)
(0 0 0)
(0 0 0)
(0 0 0)
(0 0 0)
(0 0 0)
(0 0 0)
(0 0 0)
(0 0 0)
(0 0 0)
(0 0 0)
(0 0 0)
(0 0 0)
(0 0 0)
(0 0 0)
(0 0 0)
(0 0 0)
(0 0 0)
(0 0 0)
(0 0 0)
(0 0 0)
(0 0 0)
(0 0 0)
(0 0 0)
(0 0 0)
(0 0 0)
(0 0 0)
(0 0 0)
(0 0 0)
(0 0 0)
(0 0 0)
(0 0 0)
(0 0 0)
(0 0 0)
(0 0 0)
(0 0 0)
(0 0 0)
(0 0 0)
(0 0 0)
(0 0 0)
(0 0 0)
(0 0 0)
(0 0 0)
(0 0 0)
(0 0 0)
(0 0 0)
(0 0 0)
(0 0 0)
(0 0 0)
(0 0 0)
(0 0 0)
(0 0 0)
(0 0 0)
(0 0 0)
(0 0 0)
(0 0 0)
(0 0 0)
(0 0 0)
(0 0 0)
(0 0 0)
(0 0 0)
(0 0 0)
(0 0 0)
(0 0 0)
(0 0 0)
(0 0 0)
(0 0 0)
(0 0 0)
(0 0 0)
(0 0 0)
(0 0 0)
(0 0 0)
(0 0 0)
(0 0 0)
(0 0 0)
(0 0 0)
(0 0 0)
(0 0 0)
(0 0 0)
(0 0 0)
(0 0 0)
(0 0 0)
(0 0 0)
(0 0 0)
(0 0 0)
(0 0 0)
(0 0 0)
(0 0 0)
(0 0 0)
(0 0 0)
(0 0 0)
(0 0 0)
(0 0 0)
(0 0 0)
(0 0 0)
(0 0 0)
(0 0 0)
(0 0 0)
(0 0 0)
(0 0 0)
(0 0 0)
(0 0 0)
(0 0 0)
(0 0 0)
(0 0 0)
(0 0 0)
(0 0 0)
(0 0 0)
(0 0 0)
(0 0 0)
(0 0 0)
(0 0 0)
(0 0 0)
(0 0 0)
(0 0 0)
(0 0 0)
(0 0 0)
(0 0 0)
(0 0 0)
(0 0 0)
(0 0 0)
(0 0 0)
(0 0 0)
(0 0 0)
(0 0 0)
(0 0 0)
(0 0 0)
(0 0 0)
(0 0 0)
(0 0 0)
(0 0 0)
(0 0 0)
(0 0 0)
(0 0 0)
(0 0 0)
(0 0 0)
(0 0 0)
(0 0 0)
(0 0 0)
(0 0 0)
(0 0 0)
(0 0 0)
(0 0 0)
(0 0 0)
(0 0 0)
(0 0 0)
(0 0 0)
(0 0 0)
(0 0 0)
(0 0 0)
(0 0 0)
(0 0 0)
(0 0 0)
(0 0 0)
(0 0 0)
(0 0 0)
(0 0 0)
(0 0 0)
(0 0 0)
(0 0 0)
(0 0 0)
(0 0 0)
(0 0 0)
(0 0 0)
(0 0 0)
(0 0 0)
(0 0 0)
(0 0 0)
(0 0 0)
(0 0 0)
(0 0 0)
(0 0 0)
(0 0 0)
(0 0 0)
(0 0 0)
(0 0 0)
(0 0 0)
(0 0 0)
(0 0 0)
(0 0 0)
(0 0 0)
(0 0 0)
(0 0 0)
(0 0 0)
(0 0 0)
(0 0 0)
(0 0 0)
(0 0 0)
(0 0 0)
(0 0 0)
(0 0 0)
(0 0 0)
(0 0 0)
(0 0 0)
(0 0 0)
(0 0 0)
(0 0 0)
(0 0 0)
(0 0 0)
(0 0 0)
(0 0 0)
(0 0 0)
(0 0 0)
(0 0 0)
(0 0 0)
(0 0 0)
(0 0 0)
(0 0 0)
(0 0 0)
(0 0 0)
(0 0 0)
(0 0 0)
(0 0 0)
(0 0 0)
(0 0 0)
(0 0 0)
(0 0 0)
(0 0 0)
(0 0 0)
(0 0 0)
(0 0 0)
(0 0 0)
(0 0 0)
(0 0 0)
(0 0 0)
(0 0 0)
(0 0 0)
(0 0 0)
(0 0 0)
(0 0 0)
(0 0 0)
(0 0 0)
(0 0 0)
(0 0 0)
(0 0 0)
(0 0 0)
(0 0 0)
(0 0 0)
(0 0 0)
(0 0 0)
(0 0 0)
(0 0 0)
(0 0 0)
(0 0 0)
(0 0 0)
(0 0 0)
(0 0 0)
(0 0 0)
(0 0 0)
(0 0 0)
(0 0 0)
(0 0 0)
(0 0 0)
(0 0 0)
(0 0 0)
(0 0 0)
(0 0 0)
(0 0 0)
(0 0 0)
)
;

boundaryField
{
    inlet
    {
        type            zeroGradient;
    }
    outlet
    {
        type            zeroGradient;
    }
    wall
    {
        type            zeroGradient;
    }
    procBoundary3to1
    {
        type            processor;
        value           nonuniform List<vector> 
192
(
(-2.61655e-05 3.86532e-05 3.20254e-05)
(-2.97496e-05 0.000162357 -0.000283431)
(-0.000105192 -0.00038917 -6.64487e-05)
(0.000457434 -0.000149111 -0.000264078)
(0.00224973 0.000756567 0.0127364)
(0.00314884 0.000287322 0.0138151)
(0.00227664 -4.89203e-05 0.0138689)
(0.00175459 0.000690523 0.0154069)
(0.00102413 -0.00011249 0.0180934)
(0.00126957 -0.0014714 0.01714)
(-0.00019006 0.00104345 0.018733)
(-1.95913e-06 0.00181409 0.0190158)
(0.000919828 0.000231634 0.0196814)
(0.000205287 0.000591495 0.0193519)
(-0.000241557 0.000319037 0.0192682)
(0.000413765 0.000367412 0.0201587)
(-0.000763476 0.000433444 0.0199469)
(-0.000319676 0.000204355 0.0198247)
(-8.73074e-05 0.000372976 0.0194231)
(-2.0567e-05 0.000489565 0.0192623)
(-0.000290298 -0.000451793 0.0195945)
(-0.000332732 -0.000169689 0.0195893)
(-0.000170218 -1.08036e-05 0.0194284)
(-0.000247734 0.000438249 0.0194125)
(-0.000165015 -0.000340129 0.0194358)
(-0.000329031 -0.000708494 0.0192192)
(-0.000133259 -0.000249928 0.0190283)
(-0.000190846 0.000866029 0.0193285)
(-3.24651e-05 -0.00067647 0.0192067)
(0.000197823 -0.000710287 0.0193578)
(7.86951e-05 -0.00055088 0.018779)
(0 0 0)
(0 0 0)
(0 0 0)
(0 0 0)
(0 0 0)
(0 0 0)
(0 0 0)
(0 0 0)
(0 0 0)
(0 0 0)
(0 0 0)
(0 0 0)
(0 0 0)
(0 0 0)
(0 0 0)
(0 0 0)
(0 0 0)
(0 0 0)
(0 0 0)
(0 0 0)
(0 0 0)
(0 0 0)
(0 0 0)
(0 0 0)
(0 0 0)
(0 0 0)
(0 0 0)
(0 0 0)
(0 0 0)
(0 0 0)
(0 0 0)
(0 0 0)
(0 0 0)
(0 0 0)
(0 0 0)
(0 0 0)
(0 0 0)
(0 0 0)
(0 0 0)
(0 0 0)
(0 0 0)
(0 0 0)
(0 0 0)
(0 0 0)
(0 0 0)
(0 0 0)
(0 0 0)
(0 0 0)
(0 0 0)
(0 0 0)
(0 0 0)
(0 0 0)
(0 0 0)
(0 0 0)
(0 0 0)
(0 0 0)
(0 0 0)
(0 0 0)
(0 0 0)
(0 0 0)
(0 0 0)
(0 0 0)
(0 0 0)
(0 0 0)
(0 0 0)
(-0.000103722 0.000273806 -0.000523842)
(-0.000612208 -6.82561e-05 -0.000237582)
(-0.000124667 9.11686e-05 -0.000129427)
(-2.82984e-05 -2.67686e-05 7.88884e-05)
(0.000828538 0.000910061 0.0140687)
(-0.00124332 0.00195453 0.0142941)
(-0.0020099 0.00361052 0.0111685)
(-0.00313466 0.00603988 0.0114255)
(-5.6138e-05 0.00103702 0.019227)
(0.000102111 0.00101975 0.0178537)
(-0.000126256 -0.000137203 0.0169522)
(-0.000628506 0.000386971 0.0139056)
(-0.00101029 0.00164869 0.0196519)
(-0.00114162 0.00138686 0.0179264)
(-0.000588532 5.57758e-05 0.0171816)
(-0.00169622 -0.000534953 0.0143518)
(-0.000288771 0.00127485 0.0190711)
(-0.00100803 0.0014373 0.0186219)
(-0.00104247 0.000864689 0.0171587)
(-0.000999172 -0.000382877 0.0119879)
(-0.000632198 0.000460529 0.0192799)
(-0.000353254 0.000446946 0.0178749)
(0.000134406 -0.000419918 0.0160656)
(-0.000439006 0.000169614 0.0128313)
(0.000670019 -0.000662494 0.0186253)
(0.00342204 -0.00277939 0.0145834)
(0.0016116 -0.00213702 0.0143188)
(0.000436693 -0.000686702 0.0132449)
(0 0 0)
(0 0 0)
(0 0 0)
(0 0 0)
(0 0 0)
(0 0 0)
(0 0 0)
(0 0 0)
(0 0 0)
(0 0 0)
(0 0 0)
(0 0 0)
(0 0 0)
(0 0 0)
(0 0 0)
(0 0 0)
(0 0 0)
(0 0 0)
(0 0 0)
(0 0 0)
(0 0 0)
(0 0 0)
(0 0 0)
(0 0 0)
(0 0 0)
(0 0 0)
(0 0 0)
(0 0 0)
(0 0 0)
(0 0 0)
(0 0 0)
(0 0 0)
(0 0 0)
(0 0 0)
(0 0 0)
(0 0 0)
(0 0 0)
(0 0 0)
(0 0 0)
(0 0 0)
(0 0 0)
(0 0 0)
(0 0 0)
(0 0 0)
(0 0 0)
(0 0 0)
(0 0 0)
(0 0 0)
(0 0 0)
(0 0 0)
(0 0 0)
(0 0 0)
(0 0 0)
(0 0 0)
(0 0 0)
(0 0 0)
(0 0 0)
(0 0 0)
(0 0 0)
(0 0 0)
(0 0 0)
(0 0 0)
(0 0 0)
(0 0 0)
(0 0 0)
(0 0 0)
(0 0 0)
(0 0 0)
)
;
    }
    procBoundary3to2
    {
        type            processor;
        value           nonuniform List<vector> 
192
(
(3.84778e-05 3.14841e-05 -0.000110017)
(-0.000216783 -0.000370553 -0.000105568)
(-0.000110044 -0.000399876 -0.0003623)
(0.000416925 -0.000686431 -1.16502e-05)
(0.000515197 0.00082322 0.0144741)
(-0.000104819 -6.26596e-05 0.0131384)
(-0.000550884 0.000849149 0.0145313)
(9.27042e-06 0.0019895 0.0121193)
(-0.00103966 0.000560741 0.0174772)
(0.00125465 0.000348762 0.0176021)
(0.000768672 0.000482305 0.0159038)
(0.000431315 -1.3982e-05 0.0155372)
(0.000408404 0.000440821 0.0189298)
(0.000600954 0.000431821 0.0191142)
(0.00113491 -0.000472 0.0182969)
(0.00132781 -0.00122137 0.0177836)
(2.71543e-06 -9.82538e-05 0.0192863)
(0.000642115 0.000257606 0.0199924)
(0.000462397 0.00025258 0.018893)
(0.000201914 -0.000834814 0.018373)
(-0.000265322 -0.000209171 0.0194006)
(-0.000232882 -4.37412e-05 0.0193758)
(-9.90137e-05 -0.000359369 0.0194888)
(-0.00033068 -0.000358496 0.0183562)
(-0.000349798 -0.000157854 0.0193791)
(-0.000518572 -0.000170917 0.0194955)
(-0.000917035 -0.000720739 0.0193011)
(-0.000208279 -5.88418e-05 0.018572)
(0 0 0)
(0 0 0)
(0 0 0)
(0 0 0)
(0 0 0)
(0 0 0)
(0 0 0)
(0 0 0)
(0 0 0)
(0 0 0)
(0 0 0)
(0 0 0)
(0 0 0)
(0 0 0)
(0 0 0)
(0 0 0)
(0 0 0)
(0 0 0)
(0 0 0)
(0 0 0)
(0 0 0)
(0 0 0)
(0 0 0)
(0 0 0)
(0 0 0)
(0 0 0)
(0 0 0)
(0 0 0)
(0 0 0)
(0 0 0)
(0 0 0)
(0 0 0)
(0 0 0)
(0 0 0)
(0 0 0)
(0 0 0)
(0 0 0)
(0 0 0)
(0 0 0)
(0 0 0)
(0 0 0)
(0 0 0)
(0 0 0)
(0 0 0)
(0 0 0)
(0 0 0)
(0 0 0)
(0 0 0)
(0 0 0)
(0 0 0)
(0 0 0)
(0 0 0)
(0 0 0)
(0 0 0)
(0 0 0)
(0 0 0)
(0 0 0)
(0 0 0)
(0 0 0)
(0 0 0)
(0 0 0)
(0 0 0)
(0 0 0)
(0 0 0)
(0 0 0)
(0 0 0)
(0 0 0)
(0 0 0)
(0.00111502 1.69193e-05 -0.000329017)
(-0.000396292 -0.000324581 -0.000580689)
(-0.000644599 -0.000384673 -0.000171661)
(5.76748e-05 -5.57104e-05 -0.000254069)
(-4.33558e-05 0.00173972 0.0142069)
(0.000610293 -0.000409636 0.0114574)
(0.000765199 -0.00103298 0.0141094)
(0.000265434 -4.46237e-05 0.0125577)
(0.000898364 0.000298912 0.017204)
(0.000689901 -4.42097e-05 0.0167756)
(0.00258848 -0.000707193 0.0148144)
(0.00337114 -3.82906e-05 0.013756)
(0.00166061 -0.00155576 0.0182561)
(0.000512116 -0.000616691 0.0180584)
(0.00143875 0.000710387 0.0145813)
(0.00146067 0.000254867 0.0128142)
(0.000445846 -0.0012542 0.0179707)
(0.000799916 -0.00135181 0.016476)
(0.00131128 -0.0015115 0.0149917)
(0.00159361 -0.000454303 0.011734)
(-0.000327241 -0.000105965 0.0178153)
(-0.000249852 -0.000429187 0.0170781)
(0.000794373 -0.00027876 0.0155431)
(0.000615216 0.000780015 0.0114493)
(-0.000619162 0.000274104 0.0178592)
(-0.000215013 0.000337385 0.0174846)
(-0.00107585 0.00140552 0.0147688)
(8.02438e-05 0.000554997 0.0110907)
(0 0 0)
(0 0 0)
(0 0 0)
(0.00187622 -0.000601386 0.0129035)
(0 0 0)
(0 0 0)
(0 0 0)
(0 0 0)
(0 0 0)
(0 0 0)
(0 0 0)
(0 0 0)
(0 0 0)
(0 0 0)
(0 0 0)
(0 0 0)
(0 0 0)
(0 0 0)
(0 0 0)
(0 0 0)
(0 0 0)
(0 0 0)
(0 0 0)
(0 0 0)
(0 0 0)
(0 0 0)
(0 0 0)
(0 0 0)
(0 0 0)
(0 0 0)
(0 0 0)
(0 0 0)
(0 0 0)
(0 0 0)
(0 0 0)
(0 0 0)
(0 0 0)
(0 0 0)
(0 0 0)
(0 0 0)
(0 0 0)
(0 0 0)
(0 0 0)
(0 0 0)
(0 0 0)
(0 0 0)
(0 0 0)
(0 0 0)
(0 0 0)
(0 0 0)
(0 0 0)
(0 0 0)
(0 0 0)
(0 0 0)
(0 0 0)
(0 0 0)
(0 0 0)
(0 0 0)
(0 0 0)
(0 0 0)
(0 0 0)
(0 0 0)
(0 0 0)
(0 0 0)
(0 0 0)
(0 0 0)
(0 0 0)
(0 0 0)
)
;
    }
}


// ************************************************************************* //
