/*--------------------------------*- C++ -*----------------------------------*\
| =========                 |                                                 |
| \\      /  F ield         | OpenFOAM: The Open Source CFD Toolbox           |
|  \\    /   O peration     | Version:  2506                                  |
|   \\  /    A nd           | Website:  www.openfoam.com                      |
|    \\/     M anipulation  |                                                 |
\*---------------------------------------------------------------------------*/
FoamFile
{
    version     2.0;
    format      ascii;
    arch        "LSB;label=32;scalar=64";
    class       volVectorField;
    location    "0.008";
    object      U_0;
}
// * * * * * * * * * * * * * * * * * * * * * * * * * * * * * * * * * * * * * //

dimensions      [0 1 -1 0 0 0 0];

internalField   nonuniform List<vector> 
512
(
(10.013 0.0222528 0.0624411)
(9.99284 0.0183368 0.046494)
(9.89554 -0.0140887 -0.0571942)
(9.88185 -0.0246244 -0.0652234)
(9.96218 0.00269229 -0.00655353)
(10.0297 0.0386758 0.0139949)
(9.93754 0.0114301 -0.0150364)
(9.94536 -0.00419527 -0.00942791)
(9.99427 -0.00908833 0.0373376)
(9.89463 -0.00466794 -0.0163338)
(9.84441 -0.00343918 -0.0798888)
(10.0446 0.000738518 0.0191753)
(10.0719 0.00317292 0.0755353)
(9.98944 -0.00640727 0.0544565)
(9.9467 0.00622731 -0.0710938)
(9.99023 0.0199862 -0.0815976)
(10.0037 0.0133559 -0.0206015)
(10.0111 -0.00449305 0.00942033)
(10.0217 -0.017513 -0.0172358)
(10.0242 -0.00426839 -0.0307536)
(9.91931 0.00919756 -0.0139454)
(9.9174 0.00162246 -0.0548907)
(9.97488 -0.008428 -0.0615352)
(9.91664 -0.0062957 -0.0282859)
(9.8561 0.00390039 0.0256633)
(9.92409 0.0151892 0.0376135)
(9.96193 0.0172342 0.0183232)
(9.89241 0.00049995 -0.0378117)
(9.88402 -0.013484 -0.0450638)
(9.9825 -0.0143983 0.0518172)
(9.94488 -0.0218486 0.0425979)
(9.99687 0.0026773 0.0151715)
(10.1504 0.0357444 0.0249185)
(10.0925 0.0444562 0.0798103)
(10.0343 0.0140766 0.00727107)
(10.0402 -0.00129358 -0.00871443)
(10.127 0.0103566 0.0128756)
(10.1801 0.0155644 -0.00233612)
(10.0896 -0.0240143 -0.041106)
(10.0965 -0.0357257 -0.0393773)
(10.1353 -0.0161024 0.0229065)
(10.0236 0.0103788 0.00643484)
(9.96201 0.0311274 -0.0343306)
(10.1638 -0.0231892 0.000696419)
(10.1797 -0.0292989 0.0605959)
(10.1311 0.000408364 0.0465592)
(10.145 0.0435285 -0.0555386)
(10.1579 0.023093 -0.0908249)
(10.1571 -0.00748039 -0.0456278)
(10.0927 -0.00909505 0.0122355)
(10.086 -0.00577641 0.00331902)
(10.1364 -0.0131283 -0.0117874)
(10.0905 -0.0176253 0.00987978)
(10.1026 -0.0322911 -0.0243977)
(10.1461 -0.024848 -0.0711203)
(10.0844 -0.0144878 -0.0478629)
(10.0182 0.0218044 0.0429109)
(10.0626 0.0212215 0.0339645)
(10.0895 0.0172913 -0.0129924)
(9.99119 0.0416307 -0.0268033)
(9.9561 0.0514696 -0.0116381)
(10.1007 -0.0394086 0.0486162)
(10.0965 -0.0711931 0.0283195)
(10.1354 -0.021387 -0.02205)
(10.1606 -0.0259161 0.00115197)
(10.1003 -0.00515665 -0.00144171)
(10.0387 0.0766227 0.0333496)
(10.0758 0.112384 0.0666926)
(10.1473 0.0365741 0.0574081)
(10.2033 -0.0553312 0.0351749)
(10.0904 -0.0779842 -0.0274235)
(10.1035 -0.0687705 -0.0402876)
(10.1346 -0.0254813 0.00965718)
(10.1187 0.0408717 0.0289803)
(10.0197 0.0720058 -0.0122415)
(9.98821 0.0350618 -0.00815668)
(10.13 -0.035395 0.0226471)
(10.1884 -0.0229785 0.0328387)
(10.1986 0.0357782 -0.0440222)
(10.1982 0.0324171 -0.0410802)
(10.1392 -0.000468961 -0.032409)
(10.1308 0.0091856 -0.0495141)
(10.1313 0.0312576 -0.0635813)
(10.1214 -0.0260929 -0.0221522)
(10.0877 -0.0310709 -0.0174714)
(10.1072 -0.0240356 -0.0489859)
(10.1431 -0.0662224 -0.033217)
(10.1079 -0.0836455 -0.0439182)
(10.0507 0.0192152 -0.00224689)
(10.0737 0.0248049 0.0292326)
(10.1044 0.0121062 0.0133621)
(10.0757 0.0696025 -0.0104552)
(10.0429 0.0814216 0.0308866)
(10.0743 0.0213521 0.0881144)
(10.0335 -0.0920894 0.0356105)
(10.1206 -0.0782215 -0.0286486)
(10.1657 -0.0389513 0.0128998)
(10.1144 -0.0240239 0.0219916)
(10.0093 0.0659684 0.0404301)
(10.071 0.110362 0.0426581)
(10.2082 0.0805196 0.0229723)
(10.162 -0.020832 0.0181847)
(10.0124 -0.0690422 -0.0143818)
(10.0497 -0.057882 -0.0141204)
(10.118 -0.0526285 0.0251024)
(10.0887 -0.0156668 0.0218573)
(10.0976 0.0697695 0.0160796)
(10.1257 0.0680755 0.0137485)
(10.1193 -0.0063928 -0.0302478)
(10.1361 -0.0359254 -0.0462368)
(10.1995 -0.00994459 -0.00341545)
(10.1841 -0.00323548 -0.00907488)
(10.168 0.0281047 -0.0106233)
(10.1742 0.0183607 -0.00763718)
(10.1705 0.00017475 -0.00422313)
(10.0695 0.00289044 -0.0133849)
(10.051 -0.00504275 -0.0193974)
(10.0682 -0.00660832 -0.0379164)
(10.1001 -0.0358128 -0.0159767)
(10.1103 -0.0329175 -0.0275058)
(10.0902 0.0221383 -0.0113057)
(10.1089 0.0154842 0.0291841)
(10.1412 -0.0164134 0.0347148)
(10.1267 0.0311205 -0.0125805)
(10.0509 0.0685218 0.00218618)
(10.0473 0.0354847 0.0470355)
(10.0386 -0.00269281 0.019046)
(10.146 -0.0359996 -0.0229588)
(10.1888 0.0231148 0.0142321)
(10.1262 0.0471677 -0.00556099)
(10.102 0.0355139 -0.014139)
(10.1125 0.0370153 0.0298307)
(10.1358 0.0554673 0.0318995)
(10.0806 -0.028824 0.00743208)
(10.0388 -0.0762244 0.017176)
(10.0523 -0.078397 0.0197292)
(10.055 -0.0330766 0.00946659)
(10.0426 -0.0107781 -0.00397231)
(10.1891 0.0183839 -0.00355167)
(10.2186 0.0140833 0.0119124)
(10.1448 0.012943 -0.0106095)
(10.0592 0.0154778 -0.0403232)
(10.148 -0.00790964 -0.0411958)
(10.2158 -0.0229073 -0.0151273)
(10.1909 0.000694993 0.0252311)
(10.1303 -0.00334099 -0.0137986)
(10.0714 -0.00793989 -0.0648048)
(10.1063 -0.00840449 -0.0359733)
(10.1298 -0.0166691 -0.0240477)
(10.1135 -0.0130149 -0.00154379)
(10.1018 -0.0137251 0.0170265)
(10.1178 0.0387369 -0.0061125)
(10.0901 0.0529708 -0.0192344)
(10.0921 0.0230981 0.0135101)
(10.1272 0.0230206 0.0306642)
(10.1554 -0.00854771 -0.00632258)
(10.101 0.0127528 0.00454678)
(10.0655 0.0320132 0.0537675)
(10.0661 -0.0533708 0.0317361)
(10.1127 -0.0580515 0.01927)
(10.118 -0.0570505 -0.0402272)
(10.1194 0.195324 0.049686)
(10.0571 0.196469 0.102923)
(10.0324 0.0790594 0.0616881)
(10.0371 -0.0819507 -0.0797626)
(10.0682 -0.0967656 -0.0846228)
(10.0605 -0.0623369 0.02154)
(10.0439 -0.0537607 0.0879456)
(10.0617 -0.000187474 0.0592994)
(10.1554 0.0845842 -0.00311626)
(10.1974 -0.00240442 -0.0353432)
(10.1809 -0.0239556 -0.0213317)
(10.1663 0.00776248 -0.00808883)
(10.1639 0.0314978 -0.0234104)
(10.1417 0.00445921 -0.0561132)
(10.133 0.00053727 -0.0392145)
(10.1394 -0.0317377 0.0230857)
(10.1447 -0.0302809 -0.00211029)
(10.129 0.0210179 -0.0169629)
(10.1024 0.00405453 0.0233177)
(10.0569 -0.0461216 0.0394691)
(10.0385 -0.0261161 0.0394903)
(10.0914 0.0366035 0.0316911)
(10.1552 0.0380102 0.00111003)
(10.135 -0.00835141 -0.0444408)
(10.1107 0.00591083 -0.0284574)
(10.0607 0.00641509 -0.00551563)
(10.1022 -0.00938898 -0.00394811)
(10.1011 0.0328101 0.000629312)
(10.0728 0.0307504 -0.0249906)
(10.096 -0.0555247 -0.0435662)
(10.0926 -0.119371 -0.0354599)
(10.1103 -0.075366 -0.049436)
(10.0877 0.0668105 0.00975205)
(9.99079 0.0902484 0.0620682)
(9.99824 -0.0125592 -0.0150221)
(10.0554 -0.0325168 -0.0392376)
(10.0966 0.0133067 0.0188526)
(10.037 0.00418078 0.109008)
(10.0028 -0.0195051 0.103908)
(10.1111 0.0194473 0.0504242)
(10.1962 0.0418564 -0.0431326)
(10.174 -0.00208471 -0.0440892)
(10.1636 -0.0105836 -0.0109552)
(10.1583 -0.000426571 0.0168177)
(10.1554 -0.00337371 0.0100852)
(10.1537 -0.0106145 -0.0493647)
(10.1514 -0.00783658 -0.040599)
(10.1451 -0.00520246 -0.021549)
(10.1293 -0.0102985 -0.0219345)
(10.1179 -0.0313475 -0.01084)
(10.064 -0.0388044 0.0109697)
(10.0714 -0.0146512 0.0234308)
(10.0833 -0.00232188 0.0353731)
(10.1607 0.0253091 -0.0126475)
(10.1776 0.029081 -0.00422344)
(10.1106 0.0106177 0.0149309)
(10.0558 0.0314707 0.0256216)
(10.0348 0.0169971 0.0278674)
(10.1521 -0.0352404 -0.00599567)
(10.2029 0.00634427 -0.0389269)
(10.1041 0.0517861 -0.0311268)
(10.0649 0.0270167 -0.0192129)
(10.0774 -0.116026 -0.047649)
(10.0141 0.00580132 -0.0093498)
(9.95526 0.0230747 -0.0357669)
(9.78874 -0.0069333 -0.0451137)
(9.79131 -0.015734 -0.02573)
(9.92321 0.0122518 0.0234244)
(9.97837 0.0478388 0.0905447)
(9.93889 0.0333869 0.10992)
(9.88439 0.00551842 0.0713737)
(10.0149 0.0221036 0.0150721)
(10.0422 0.0176793 -0.0464445)
(10.0142 0.00038751 -0.0338208)
(10.0179 -0.00640888 0.00522077)
(10.0286 -0.00118112 0.00206548)
(10.0279 -0.000810204 0.00134804)
(10.0034 -0.00650861 -0.0233985)
(10.006 -0.00953266 -0.0360968)
(10.0066 -0.00974099 -0.0283587)
(9.99693 -0.00750391 -0.0173994)
(9.97239 -0.0264698 -0.0489401)
(9.95101 -0.0295416 -0.0204321)
(9.9762 0.0139837 0.0464553)
(9.98136 0.0149554 0.0773354)
(10.0152 -0.0101519 0.0093881)
(10.0578 0.0300781 -0.0287866)
(9.99375 0.0403943 -0.0018703)
(9.85267 0.0213671 0.014521)
(9.96256 0.0213057 0.0262645)
(10.1059 -0.00669094 0.0242712)
(10.0278 -0.0809087 -0.0237594)
(9.88415 0.00413232 -0.0588188)
(9.88276 -0.00215981 -0.0411399)
(9.96 -0.0453128 -0.0102379)
(10.0361 0.00461475 0.029431)
(9.98508 0.0139463 -0.0150946)
(9.91691 0.0245525 0.00503902)
(9.89855 0.0282718 0.0996208)
(9.94197 0.0194382 0.0839407)
(9.99398 0.0176333 0.0308311)
(9.93351 -0.00944318 -0.0941068)
(9.97246 -0.0180566 -0.103475)
(10.0349 -0.00121129 -0.0201177)
(9.91287 0.0253246 0.0434912)
(9.83629 0.0397538 0.0443833)
(10.0619 -0.0145523 -0.000917724)
(10.0914 -0.0102837 -0.00430523)
(10.087 -0.00536137 -0.0201153)
(9.83963 0.00946306 -0.00459253)
(9.80595 0.00962034 -0.00235223)
(9.9812 -0.0125611 0.022092)
(9.98857 -0.015924 0.0341319)
(9.98377 -0.0130188 0.0239687)
(9.99498 -0.00255635 -0.000285457)
(9.9394 0.012821 0.03357)
(9.92698 0.00472392 0.0125629)
(10.0276 -0.00405438 -0.109602)
(10.0251 0.00238678 -0.127844)
(9.94815 0.0272922 0.0265433)
(9.96015 0.0158984 0.0379149)
(9.94172 0.00535359 0.0117068)
(9.92662 -0.0020334 0.0199367)
(9.9823 -0.0132602 0.0411885)
(10.0038 -0.0236648 0.0152898)
(9.94163 -0.0260351 -0.0075996)
(9.95051 -0.0164799 -0.0188552)
(10.1554 0.0164831 -0.0266651)
(10.1024 0.0102998 -0.0391602)
(10.0396 0.0478098 0.0240675)
(10.029 0.0916855 0.104819)
(10.0716 0.0548509 0.0552652)
(10.1017 0.0459443 0.00125071)
(10.0374 -0.0320751 -0.099689)
(10.0911 -0.0628956 -0.10125)
(10.161 -0.0270257 -0.019341)
(10.1614 0.0330752 0.0701519)
(10.0443 0.0107708 0.0438505)
(10.0119 -0.0107162 -0.0022759)
(10.1572 -0.0495769 0.00369903)
(10.2107 -0.0558345 0.0342954)
(10.0538 0.0189829 0.00474599)
(10.0097 0.0573896 -0.0214718)
(10.1312 -0.00454979 -0.0135809)
(10.1432 -0.0417453 0.014693)
(10.1466 -0.0321537 0.0213926)
(10.1579 -0.0160154 -0.00389413)
(10.0882 0.0173311 -0.00525548)
(10.0702 0.0318217 -0.00399795)
(10.1377 -0.000229805 -0.0573079)
(10.1652 -0.0372555 -0.0620622)
(10.0915 0.0188464 0.0363063)
(10.0795 0.0230217 0.0208796)
(10.06 0.0189294 -0.00340877)
(10.0523 0.0288056 0.0315743)
(10.0987 0.00483847 0.0577774)
(10.13 -0.0370139 0.0295621)
(10.0623 -0.0428737 0.0249888)
(10.0938 -0.0242449 -0.0157185)
(10.1748 0.0133875 0.000608481)
(10.1418 0.0214116 0.0306048)
(10.0383 0.0931935 0.0691102)
(10.055 0.101431 0.0578386)
(10.0691 0.0792225 0.0364784)
(10.1109 0.0150314 -0.0351774)
(9.96407 -0.0561917 -0.103207)
(9.94726 -0.0898128 -0.120025)
(10.1614 -0.0530717 -0.00910862)
(10.1585 -0.0151945 0.0306121)
(10.0885 0.0371791 0.0140588)
(10.1598 0.0227597 0.0146751)
(10.1847 -0.0664854 0.00887497)
(10.1206 -0.0645971 0.0136102)
(10.0372 0.0608073 -0.00132044)
(10.1192 0.0658625 -0.0284895)
(10.1281 0.0124364 -0.00469963)
(10.098 -0.00947923 0.035944)
(10.1423 0.00853495 0.0376792)
(10.196 0.0309642 -0.00341256)
(10.1309 0.0222199 0.0056132)
(10.0653 0.0248828 -0.00216079)
(10.0895 -0.015811 -0.0697608)
(10.1014 -0.0400373 -0.0610326)
(10.07 -0.0343171 -0.0105413)
(10.0641 0.0194061 0.0246849)
(10.0745 0.0320881 0.0043344)
(10.0589 0.061834 -0.0148108)
(10.0891 0.0446094 0.00290744)
(10.1153 -0.0524106 0.0664674)
(10.0541 -0.0648657 0.0611491)
(10.0968 -0.0407693 -0.00573403)
(10.2284 -0.0124338 0.00486997)
(10.1867 0.0144049 0.0127174)
(10.0927 0.0632522 0.0231715)
(10.0965 0.0620929 0.0403743)
(10.0803 0.0435445 0.0794547)
(10.0691 -0.0483875 0.0408187)
(9.95862 -0.0480808 -0.0307825)
(9.93548 -0.0227475 -0.0878819)
(10.1615 -0.0158285 -0.0573324)
(10.2467 0.00605256 0.0120255)
(10.194 0.026414 0.0399736)
(10.1572 0.0300971 0.042534)
(10.0556 -0.0468784 0.0149893)
(10.0461 -0.0591657 0.0172991)
(10.1328 0.0107099 -0.0174617)
(10.1137 0.00997812 -0.0397658)
(10.0911 0.00632347 -0.0349463)
(10.127 0.018247 -0.0204989)
(10.1717 0.0260196 -0.0237886)
(10.1101 -0.0377975 5.48765e-05)
(10.1077 -0.0262142 0.00440619)
(10.1169 0.0234072 -0.0138557)
(10.1243 0.0205774 -0.0157083)
(10.1356 0.0108997 -0.0167904)
(10.0491 -0.00159952 -0.0245124)
(10.0658 -0.0105111 0.0145872)
(10.1385 -0.013393 0.0104904)
(10.1219 0.0449565 -0.0215494)
(10.0524 0.0538849 0.0292719)
(10.0453 -0.0224977 0.0736077)
(10.0224 -0.0489083 0.0424684)
(10.1329 -0.033076 -0.054687)
(10.145 -0.0184351 -0.0222583)
(10.1292 0.0672088 0.02767)
(10.0653 0.101258 0.0382873)
(10.0635 0.0850485 0.00453053)
(10.0339 -0.0336701 -0.0231694)
(10.0535 -0.155103 -0.0188433)
(10.0348 -0.0687709 0.0105097)
(9.99579 0.0648709 -0.00066694)
(10.1618 0.0496033 -0.0123494)
(10.1781 0.0141576 0.00334723)
(10.0977 -0.0385353 0.00861732)
(10.138 -0.0211041 -0.0138135)
(10.1465 0.0194315 -0.0105154)
(10.1081 -0.000273211 0.0334107)
(10.1363 -0.031698 0.0152668)
(10.1846 -0.022659 -0.0147713)
(10.1657 0.0166688 -0.00815329)
(10.1042 0.0125143 0.016109)
(10.052 0.000618159 0.0207411)
(10.0573 -0.00283337 0.00223327)
(10.0837 -0.0111138 -0.0348129)
(10.1086 -0.0117821 0.00180336)
(10.1437 0.0348108 0.0289131)
(10.1416 0.0219729 -0.00894378)
(10.1248 -0.0191322 -0.01051)
(10.1055 -0.00680545 0.0400695)
(10.1103 0.024336 0.0239185)
(10.1224 -0.0297149 -0.0510857)
(10.0802 0.00842346 -0.0278297)
(10.0656 0.0437563 0.0812972)
(10.1054 -0.0485618 0.0376841)
(10.1217 -0.0581456 -0.0113259)
(10.0959 -0.0358015 -0.00783943)
(10.0975 0.118921 0.0288012)
(10.0647 0.130191 0.0383857)
(10.099 0.0833632 -0.000314756)
(10.0066 -0.101831 -0.039528)
(9.99244 -0.115458 -0.0296953)
(10.0377 0.0216444 0.0413295)
(10.1153 0.0689591 0.0665261)
(10.1505 -0.00347865 0.0307189)
(10.1283 -0.0283341 0.00791431)
(10.0617 -0.0327798 -0.024717)
(10.1411 -0.0257103 -0.0140596)
(10.1937 0.00736497 0.0321831)
(10.1741 0.023173 0.0184478)
(10.1604 -0.00855913 -0.0291953)
(10.1557 -0.0272415 -0.0256368)
(10.0837 -0.0172957 0.00370455)
(10.0626 0.00383559 -0.000766864)
(10.056 0.0498801 -0.0482297)
(10.0428 0.015736 -0.0431723)
(10.0238 -0.00766176 -0.023062)
(10.047 0.0105892 -0.0100131)
(10.1551 0.0195585 0.0187863)
(10.1545 0.000840377 0.00121705)
(10.0942 0.0140022 -0.0423473)
(10.0683 0.0223169 -0.00383806)
(10.033 -0.0247383 0.0388273)
(10.105 -0.0122678 0.00801744)
(10.1374 0.0414716 -0.00366378)
(10.1052 0.0429412 -0.0145243)
(10.1205 -0.0318032 -0.00759223)
(10.0872 -0.0748106 -0.00316796)
(10.1112 -0.0316134 0.017141)
(10.0925 0.0124213 -0.0193347)
(10.0273 -0.0174987 -0.0779437)
(9.94665 -0.0012232 -0.00202738)
(9.97437 0.0265936 0.0201288)
(10.0767 0.0629343 -0.0105528)
(10.1138 0.0677572 0.0410724)
(10.0914 -0.00136914 0.067099)
(10.1182 -0.0218677 0.0306397)
(10.1068 -0.019967 -0.0243103)
(10.0559 0.00247338 -0.0449297)
(10.1723 0.0220333 -0.0101447)
(10.2293 0.0118758 0.0213504)
(10.1505 0.0294714 0.0424031)
(10.1062 0.0335931 0.003965)
(10.133 -0.036263 -0.0148872)
(10.1403 -0.0321953 0.0236611)
(10.1306 -0.0140668 0.037414)
(10.1127 -0.0418819 -0.0107311)
(10.0288 -0.0440376 0.0040677)
(10.0206 -0.0165909 0.0150427)
(10.0549 0.0402121 0.0396337)
(10.1459 0.000690387 -0.0219709)
(10.1689 -0.0239969 -0.0705489)
(10.1517 -0.0207901 -0.0309159)
(10.0475 0.0596463 0.0235353)
(10.0526 0.0695402 0.0552908)
(10.1525 -0.00747213 0.0310793)
(10.1918 -0.0248153 -0.0644471)
(10.1253 0.0282596 -0.0877373)
(10.0993 -0.013675 -0.0388235)
(10.0766 -0.0748061 0.0195341)
(9.9484 -0.0113681 0.00411574)
(9.98089 -0.0182546 -0.0465338)
(9.84305 -0.0157646 0.00105926)
(9.83396 0.0301008 0.055497)
(9.89707 0.0658156 0.0516405)
(9.94815 0.0364745 -0.0170997)
(9.94246 0.0247552 0.0315009)
(9.9408 0.00562046 0.0692884)
(9.96916 0.00342911 0.0173377)
(9.94807 0.00502793 -0.0431311)
(9.9128 0.0107675 -0.019686)
(10.0462 0.0129872 0.0230866)
(10.0753 -0.00366434 0.0197741)
(10.0617 0.0212486 0.0158236)
(9.98709 0.02552 -0.0279446)
(9.94259 -0.00326038 -0.0310935)
(9.99734 -0.00493658 0.030035)
(10.0271 0.000251177 0.0553994)
(9.96334 -0.0341612 -0.0316681)
(9.96115 -0.0396622 -0.0414038)
(10.013 0.0178123 -0.00589691)
(10.0286 0.0322922 -0.00960409)
(10.0153 0.00818903 -0.0150921)
(10.0012 -0.00136427 -0.0230455)
(9.9792 0.0110021 -0.0116397)
(9.90295 0.0213843 -0.0225753)
(9.97623 0.0302387 0.0150028)
(10.0909 -0.000892096 0.0954328)
(10.0897 -0.0885169 0.0705109)
(9.92839 -0.0461986 -0.108028)
(9.87976 -0.0179636 -0.0697502)
(9.85496 -0.0201571 0.0238916)
)
;

boundaryField
{
    wall
    {
        type            fixedValue;
        value           uniform (0 0 0);
    }
    outlet
    {
        type            cyclic;
    }
    inlet
    {
        type            cyclic;
    }
    procBoundary1to0
    {
        type            processor;
        value           nonuniform List<vector> 
256
(
(10.0779 0.0324515 0.0258882)
(10.0694 -0.0278406 0.00988483)
(9.93316 -0.0320251 -0.0274814)
(9.83427 -0.0043637 -0.0290953)
(9.89102 0.0131249 0.0392754)
(9.99813 0.0188417 0.0911443)
(9.92506 0.00528955 0.0371036)
(9.87435 -0.00245228 -0.0114731)
(9.96631 -0.00220413 -0.0108125)
(10.0137 -0.00448953 -0.0103909)
(9.99582 -0.00254131 -0.0491521)
(9.96542 0.00191376 -0.0320665)
(9.96429 0.00224294 0.0102449)
(9.98879 -0.00754469 0.00802917)
(9.98355 0.0110514 -0.0292726)
(9.98085 0.0298464 -0.0281149)
(9.9789 0.0163463 -0.00551127)
(9.97276 -0.0271043 0.00698287)
(9.97992 -0.0286238 0.0319145)
(9.98171 -0.0106373 0.0205154)
(9.92024 -0.00244314 -0.0340798)
(9.97884 -0.0174614 -0.0202164)
(10.0322 -0.00417075 0.0146598)
(9.97352 -0.00682683 -0.00960172)
(9.90068 0.0252924 -0.0592175)
(9.9249 0.0428799 -0.0255545)
(9.97694 0.0166137 0.0391599)
(9.96377 -0.00720157 -0.00269752)
(9.90622 -0.0176049 0.00166805)
(9.93614 -0.0103581 0.0310661)
(9.89172 -0.0195552 0.0613395)
(10.0528 0.00633919 0.0242508)
(10.2063 0.030624 0.0467979)
(10.2317 0.00542373 0.0497383)
(10.1061 -0.020178 -0.0484577)
(10.0413 -0.013053 -0.0733309)
(10.0636 0.00434114 0.00436174)
(10.1188 0.0207574 0.0585748)
(10.0391 -0.013287 0.0365672)
(10.0091 -0.0328359 0.00629081)
(10.0984 -0.0186677 -0.00901409)
(10.1243 -0.0110534 -0.00287621)
(10.1378 -0.0201481 -0.0385545)
(10.1236 -0.0206632 -0.0283325)
(10.1208 -0.00134565 0.00711051)
(10.1403 -0.0138375 0.00342909)
(10.1485 0.010342 -0.0255652)
(10.1373 0.0252333 -0.0128102)
(10.0944 0.0178292 -0.00960774)
(10.0163 0.00955613 -0.00237821)
(10.0548 -0.00300947 0.0198987)
(10.1011 -0.00764559 0.0356882)
(10.0832 0.0290014 -0.0085273)
(10.1262 0.0150003 -0.031225)
(10.1767 -0.0494356 0.0126534)
(10.1482 -0.0681535 0.00536454)
(10.0571 0.0795625 -0.0594039)
(10.0763 0.0878489 -0.0345699)
(10.1113 0.00468318 0.0275163)
(10.086 -0.0146528 0.00701348)
(10.0099 -0.0117883 0.0325606)
(10.0312 -0.00120954 0.0647096)
(10.0579 -0.065095 0.0464116)
(10.2022 -0.00914706 0.00798378)
(10.225 -0.0116537 -0.0013667)
(10.1961 0.0182176 0.0507238)
(10.0779 0.0505564 -0.00761181)
(10.0601 0.0697037 -0.0309832)
(10.0866 0.0612943 0.0275265)
(10.1363 0.0183081 0.0548513)
(10.058 -0.0578536 0.0168601)
(10.0568 -0.0706281 -0.00886752)
(10.137 -0.0423667 0.00236264)
(10.1272 -0.0191077 0.0167731)
(10.1212 0.0139909 -0.0148834)
(10.1639 0.0144804 -0.0773473)
(10.1589 0.0246759 -0.0169744)
(10.1495 0.0260443 0.0128003)
(10.1425 0.00594249 -0.0093155)
(10.0846 -0.0155203 0.00192498)
(10.0341 -0.0282601 -0.0100905)
(10.0674 -0.00349122 -0.00351541)
(10.0791 0.0180726 -0.000635629)
(10.0606 0.0268003 -0.0208473)
(10.077 0.0219273 -0.0413656)
(10.1264 0.0081028 -0.0545871)
(10.1278 -0.0489341 0.0130743)
(10.1527 -0.0328023 -0.00243121)
(10.1138 0.0338477 -0.0788037)
(10.0964 0.00528449 -0.0421494)
(10.0974 -0.0351929 0.0399443)
(10.0654 0.031625 0.0539845)
(9.99861 0.075444 0.0608807)
(10.0193 0.0557502 0.0574595)
(10.0839 -0.0583217 0.0290845)
(10.2313 -0.0467337 -0.0160519)
(10.1701 -0.0160932 0.0129976)
(10.1132 0.0211764 0.00161842)
(10.0624 0.0554611 -0.00364148)
(10.1009 0.0730986 0.0306371)
(10.1948 0.0181782 0.0273788)
(10.1333 -0.0672859 0.00101522)
(9.9836 -0.0945914 -0.00826775)
(9.99571 -0.073278 -0.00396247)
(10.1319 0.0292779 0.0281174)
(10.2138 0.049938 0.0359703)
(10.1886 0.0323133 -0.0266087)
(10.1559 0.011217 -0.0384858)
(10.1143 0.000451852 -0.00917847)
(10.0806 0.00332858 -0.00953264)
(10.0747 -0.00985583 0.0103671)
(10.0277 -0.0336474 0.0280327)
(10.0109 -0.0366721 -0.0125856)
(10.0814 -0.0262296 -0.00139845)
(10.139 -0.00234876 0.0243964)
(10.1255 0.00968551 -0.0110053)
(10.117 -0.0294352 -0.0363769)
(10.0904 -0.0581092 -0.0283585)
(10.048 -0.0229364 0.0205937)
(10.1102 -0.0184644 -0.0229306)
(10.0795 -0.0183131 -0.048325)
(10.0642 -0.0180109 0.000549087)
(10.1216 -0.0296689 0.0140692)
(10.1569 0.0772207 0.0168829)
(10.0854 0.11235 0.0340546)
(10.0735 0.101996 0.0567217)
(10.0781 -0.0443164 0.00382409)
(10.1657 -0.0691922 -0.0128584)
(10.1605 0.00434869 -0.0132535)
(10.1058 0.0269608 -0.0333266)
(10.0495 0.0609974 0.00551645)
(10.0796 0.0927537 0.065025)
(10.1807 0.00740528 0.0542775)
(10.0745 -0.10047 0.0333255)
(9.99806 -0.106068 0.0205442)
(10.01 -0.0672955 0.0109431)
(10.1968 0.070881 -0.0324807)
(10.1812 0.0594499 -0.0482355)
(10.132 -0.00970035 -0.021581)
(10.1479 -0.0292299 -0.0118003)
(10.1728 -0.0161976 -0.000948551)
(10.1394 -0.0071437 -0.0126249)
(10.1285 -0.00963571 0.00763612)
(10.0734 -0.0211576 0.0321998)
(10.0529 -0.0212493 0.0189943)
(10.1245 0.0324519 -0.00246224)
(10.1225 0.0244372 -0.00951886)
(10.1276 -0.0296053 0.0130516)
(10.0815 -0.0805676 -0.0103831)
(10.0527 -0.0372921 -0.0325508)
(10.0577 0.0203771 -0.00754832)
(10.1064 0.0159763 4.8704e-05)
(10.0722 0.00846398 -0.0107019)
(10.071 0.0223589 -0.00508112)
(10.1494 0.0460488 0.00531214)
(10.1884 0.000348996 -0.00779842)
(10.1088 0.0404576 -0.000570825)
(10.0536 0.0727264 0.0332195)
(10.0383 0.00942059 0.0521275)
(10.1162 -0.0386295 0.0362476)
(10.2639 0.0801383 -0.0162445)
(10.223 0.110918 -0.0413966)
(10.0746 0.0249384 0.0212174)
(10.0548 0.00870026 0.0345016)
(10.0597 -0.04787 0.00698763)
(9.97856 -0.110245 0.0248418)
(9.97249 -0.0727978 0.0258954)
(9.99077 -0.041902 0.00811144)
(10.2062 0.0247073 -0.0539126)
(10.1989 0.0216088 -0.0468052)
(10.1404 -0.0185573 0.00122337)
(10.1538 -0.0279182 -0.00370329)
(10.1996 -0.0138483 0.0173648)
(10.1719 -0.0091409 0.0100524)
(10.134 -0.0150002 0.0087468)
(10.0761 -0.00532455 -0.000615964)
(10.0486 0.0144445 -0.0197552)
(10.1349 0.0225805 -0.00512613)
(10.1579 0.0250895 0.000350672)
(10.0452 -0.0399142 -0.00054454)
(10.0355 -0.0605387 -0.0112891)
(10.048 -0.0554472 -0.064676)
(10.1919 0.0361632 0.0102028)
(10.2164 0.0416984 0.0384341)
(10.1917 -0.0126283 0.0157481)
(10.0584 0.0181704 -0.0146053)
(10.0231 0.019085 0.00305504)
(10.0844 -0.0035473 0.00418742)
(10.1193 0.00954181 -0.0084716)
(10.0861 0.0359036 -0.0145722)
(10.0546 -0.0375895 -0.01088)
(10.1266 -0.0389568 0.000957297)
(10.1163 -0.0783832 -0.0403268)
(10.1384 0.0780848 -0.01005)
(9.96565 0.122044 0.07564)
(9.91144 0.0893926 0.0574008)
(9.97984 -0.101827 -0.00515616)
(10.008 -0.104294 0.0179163)
(10.0454 -0.0521079 0.0377611)
(10.093 -0.00464323 0.0117976)
(10.2322 0.0293601 -0.0506853)
(10.2059 0.0269795 -0.037902)
(10.144 -0.0114891 0.00613377)
(10.1637 -0.0150696 0.0116535)
(10.1956 0.0020006 0.0123697)
(10.1765 0.00316742 -0.000566053)
(10.0902 -0.0212486 -0.00598775)
(10.0822 -0.0201174 -0.00162206)
(10.1433 0.027724 0.0105134)
(10.151 0.0193237 0.0219139)
(10.1354 -0.0194006 0.00742049)
(9.99013 -0.0264897 0.0160926)
(9.98994 -0.0230885 -0.00125831)
(10.0477 -0.0158518 -0.0572843)
(10.2165 0.0163576 0.0159312)
(10.2231 0.0299 0.023352)
(10.1497 -0.0053343 -0.00379897)
(10.0601 0.0348156 -0.0170691)
(10.0202 0.0318393 -0.00510635)
(10.1363 -0.0116755 -0.000292416)
(10.2065 -0.0035618 -0.015051)
(10.1172 0.0331983 -0.0201296)
(10.0724 0.0244803 -0.0302736)
(10.0901 -0.121552 -0.0501362)
(10.0286 -0.026794 -0.0221426)
(10.0129 0.0298616 -0.00951116)
(9.86178 0.0630685 0.072126)
(9.81109 0.0385851 0.0371958)
(9.86438 -0.0213511 -0.00871346)
(9.87231 -0.005203 0.0254675)
(9.86231 0.00678386 0.0393294)
(10.0647 0.0280452 0.0143809)
(10.1262 0.0189807 -0.0404272)
(10.0598 0.0148056 -0.0408773)
(9.97447 -0.0056716 0.00772257)
(9.99908 -0.00870055 0.0217853)
(10.0478 0.00369596 0.0120284)
(10.044 0.0043651 0.00298867)
(9.94355 0.00284364 -0.0102428)
(9.93776 0.005109 -0.0122834)
(9.99467 0.00322925 -0.000999844)
(9.99901 0.00249476 0.00133525)
(9.98114 -0.0142685 -0.00159217)
(9.87035 -0.0104487 0.0376696)
(9.86906 -0.00661647 0.022431)
(9.91511 -0.00241232 -0.015563)
(10.1204 -0.00519827 -0.0187375)
(10.1376 0.0342622 0.00490867)
(10.0327 0.0379941 0.00593089)
(9.8495 0.0267101 -0.0109721)
(9.95149 0.0263025 -0.00146104)
(10.0724 -0.00110296 0.00776881)
(10.0209 -0.0664177 -0.00360116)
(9.91097 -0.0253882 0.00879802)
(9.89755 -0.0121398 -0.0352355)
(9.95303 -0.0473231 -0.0604057)
)
;
    }
    procBoundary1to2
    {
        type            processor;
        value           nonuniform List<vector> 
256
(
(9.94517 -0.0432169 -0.0775208)
(9.92203 -0.0131847 -0.0651313)
(9.96331 0.0241867 0.00110902)
(10.0342 -0.0130809 0.0761595)
(10.0159 -0.0147539 0.0622258)
(9.99386 -0.00667781 -0.107342)
(9.84844 -0.0122202 -0.133742)
(9.84596 -0.02089 -0.101964)
(10.0627 -0.00627313 0.0200111)
(10.0149 -0.00298998 0.0640013)
(9.94038 0.0189146 0.0652918)
(10.0247 0.0227353 -0.00253603)
(10.0557 0.0116411 -0.0496525)
(10.0029 0.0251498 -0.0253667)
(10.0047 0.0363543 -0.0014944)
(10.0368 -0.00956164 0.0290466)
(10.0331 -0.00537082 0.00461747)
(9.98242 -0.036923 -0.0672531)
(9.93057 -0.0224856 -0.0333424)
(9.8917 0.010425 0.00237145)
(9.8882 0.00951329 0.0347455)
(9.8882 -0.0225562 -0.0198908)
(9.94241 -0.00686131 -0.0613291)
(10.0196 0.00999156 -0.0650257)
(9.97133 0.0072277 -0.00280039)
(9.96568 0.00603633 0.0114517)
(10.0391 0.00617102 -0.0077731)
(9.99933 0.00663152 0.0322778)
(9.91112 -0.0251554 0.0655365)
(9.98735 0.0094449 0.0532696)
(10.0414 0.0545408 0.0613441)
(10.0357 -0.0174955 0.02032)
(10.0384 -0.00296827 -0.0160216)
(10.0422 0.0726359 -0.0293938)
(10.0834 0.0809034 0.00226439)
(10.1795 -0.0369816 0.0877966)
(10.1943 -0.0395654 0.096891)
(10.1668 -0.0250392 -0.0482983)
(9.94831 -0.0297651 -0.0978211)
(9.94994 -0.0391227 -0.0590824)
(10.1957 -0.00364472 0.0179645)
(10.1723 0.00560184 0.0214418)
(10.1277 0.0196573 0.0312379)
(10.1624 -0.00343035 0.015765)
(10.14 -0.00675351 -0.0294129)
(10.1047 0.0547181 -0.0425062)
(10.1237 0.0461282 0.0145703)
(10.131 -0.0304971 0.0514041)
(10.1481 -0.0267929 0.00520641)
(10.1659 -0.0345879 -0.033354)
(10.1285 -0.0207657 -0.0251501)
(10.0998 -0.00562461 -0.0312659)
(10.1056 -0.0130133 -0.0172134)
(9.97981 -0.0281988 0.0462043)
(10.0386 -0.0139325 0.0122596)
(10.1588 -0.0150026 -0.0488906)
(10.1017 -0.0323425 -0.00526843)
(10.0891 -0.0161829 -0.00373429)
(10.1285 0.019534 -0.0456195)
(10.1115 0.0125385 0.0148669)
(10.1089 -0.000627413 0.0538238)
(10.1032 0.0123483 0.0230049)
(10.0322 0.0398628 0.00578982)
(10.0307 -0.0072034 0.0312932)
(10.0953 0.0288307 -0.0169396)
(10.0554 0.066153 0.0232454)
(10.1109 0.0318038 0.035993)
(10.2096 -0.0129519 0.0292049)
(10.2276 -0.00665911 0.0504342)
(10.1677 0.00574038 -0.043323)
(9.93419 0.0212327 -0.08341)
(9.92458 -0.00818898 -0.0613972)
(10.1786 -0.0495317 0.0138529)
(10.1475 -0.0170751 0.0293438)
(10.0489 0.0449155 0.0125961)
(10.1427 0.0619723 0.00283747)
(10.2456 0.0369016 -0.0122614)
(10.2219 -0.0233182 -0.0379619)
(10.0704 -0.01028 -0.00827217)
(9.97662 -0.000734343 -0.0111733)
(10.0794 -0.0269713 -0.0249889)
(10.1512 -0.036426 -9.6454e-05)
(10.1179 -0.0169468 0.0189417)
(10.1086 -0.0273366 -0.00433994)
(10.0227 -0.0262742 -0.000716448)
(10.0019 0.0224213 0.00605059)
(10.0805 0.00738047 -0.0190366)
(10.1288 -0.0508995 -0.0415252)
(10.1365 -0.0376234 -0.0249249)
(10.1554 0.0122557 0.00750794)
(10.1266 0.059199 -0.0124634)
(10.0851 0.0343928 0.0218413)
(10.0947 -0.00960123 0.0688668)
(10.0917 -0.0300937 0.0521289)
(10.0121 -0.073431 0.028831)
(10.0512 -0.039484 -0.0129607)
(10.1487 -0.0104387 -7.31229e-06)
(10.1498 -0.0633545 0.0128992)
(10.0773 0.0292212 0.000481388)
(10.1159 0.0130823 0.00407352)
(10.1595 -0.0520773 -0.020163)
(10.1634 -0.0637082 -0.0337675)
(10.0164 0.00970648 0.0147074)
(10.0066 -0.00694069 0.0195339)
(10.0147 -0.0766751 0.00416548)
(10.1924 -0.0389503 0.0606398)
(10.2137 0.0543385 0.0261103)
(10.1886 0.0247643 -0.0137649)
(10.1356 -0.0160789 -0.00676104)
(10.0788 0.00162147 0.0022504)
(10.0697 0.0265347 -0.00252612)
(10.078 0.020508 -0.00213937)
(10.1119 0.00392481 0.00452604)
(10.1715 -0.00310094 -0.00231565)
(10.1513 -0.00600396 -0.0122847)
(10.1318 0.0139177 -0.0424806)
(10.0643 -0.0617495 -0.000358724)
(10.0703 -0.0427301 -0.00362581)
(10.122 0.046064 -0.030023)
(10.1138 0.0400849 -0.0293207)
(10.125 0.020726 0.000578373)
(10.1009 0.016665 -0.00691473)
(10.1245 -0.0328035 -0.00873089)
(10.1098 -0.029335 0.00570493)
(10.0177 -0.0533188 0.0230454)
(10.0895 -0.0714236 0.0294653)
(10.1199 0.0383916 0.0415729)
(10.1267 0.0919092 0.00742846)
(10.0811 0.0921213 -0.0262781)
(10.0713 0.0829094 0.0179046)
(10.0483 0.0600497 0.0327797)
(10.0565 0.053373 -0.00271479)
(10.0734 -0.0432978 -0.0241078)
(10.0976 -0.106722 -0.00552787)
(10.1439 -0.0432174 0.0153789)
(10.0352 0.0680064 0.0153563)
(9.97797 0.0623178 -0.0263267)
(10.1973 -0.000268832 0.00830438)
(10.2298 -0.0357808 0.00435334)
(10.1687 -0.0288704 -0.0198784)
(10.1204 0.051543 -0.00781441)
(10.0795 0.0346299 0.0288601)
(10.0288 -0.017495 0.0115171)
(10.029 -0.00686089 -0.00806886)
(10.1308 0.0181576 -0.00602233)
(10.158 -0.00837772 0.00853703)
(10.11 -0.0314077 0.0103914)
(10.0875 -0.0238886 0.00571817)
(10.0906 -0.0199544 -0.0194839)