FoamFile
{version 2.0; format ascii;class Cloud<passiveParticle>; location 0;object  positions;}
2498
(
( -0.0023507 0.000120248 0.001866 ) 0 
( -0.0118342 1.29855e-07 0.0058403 ) 0 
( -0.0123873 0.000648328 0.00322006 ) 0 
( -0.0123492 0.000402803 0.00223942 ) 0 
( -0.00876063 0.000163181 0.00566115 ) 0 
( -0.00848611 8.35986e-05 0.00373322 ) 0 
( -0.00222736 0.000640197 0.00766023 ) 0 
( -0.00319129 0.000162576 0.00132646 ) 0 
( -0.0119573 0.000123024 0.00136309 ) 0 
( -0.00428322 0.000146301 0.00611432 ) 0 
( -0.000291578 8.45442e-05 0.00285662 ) 0 
( -0.0110671 9.65596e-05 0.00647467 ) 0 
( -0.0133434 0.000420047 0.00213426 ) 0 
( -0.00587264 0.000178952 0.00340851 ) 0 
( -0.0037508 0.000115263 0.00049943 ) 0 
( -0.00830915 0.00029258 0.00271602 ) 0 
( -0.00524995 0.000409257 0.00816458 ) 0 
( -0.00939727 1.19749e-05 0.0130179 ) 0 
( -0.00485924 1.24413e-05 0.0129253 ) 0 
( -0.0110909 0.00152188 0.0141942 ) 0 
( -0.0112855 0.00329672 0.014984 ) 0 
( -0.00776129 0.00064425 0.0142537 ) 0 
( -0.00668004 0.000222625 0.0145524 ) 0 
( -0.000896368 0.000115074 0.0107063 ) 0 
( -0.00691335 5.00026e-05 0.0131427 ) 0 
( -0.0127415 0.000244563 0.0120806 ) 0 
( -0.0108662 0.000566658 0.0140018 ) 0 
( -0.00827462 0.000493971 0.0129415 ) 0 
( -0.00594012 0.000275611 0.0131829 ) 0 
( -0.00234792 6.75522e-05 0.0116022 ) 0 
( -0.002845 7.9777e-06 0.00904457 ) 0 
( -0.00910943 0.000995858 0.00162493 ) 0 
( -0.00112671 0.00974792 0.00123347 ) 0 
( -0.0061814 0.00410508 0.00405249 ) 0 
( -0.00542584 0.00375771 0.00703794 ) 0 
( -0.00202366 0.00568727 0.00326336 ) 0 
( -0.000616065 0.0116198 0.00751171 ) 0 
( -0.00112778 0.0120207 0.00152422 ) 0 
( -0.0125061 0.00187586 0.00145116 ) 0 
( -0.00655568 0.00617792 0.00481852 ) 0 
( -0.0026339 0.0109287 0.00734348 ) 0 
( -0.01203 0.00253977 0.00049973 ) 0 
( -0.00345621 0.00877724 0.00456177 ) 0 
( -0.00997429 0.00260526 0.000499514 ) 0 
( -0.00983758 0.00764229 0.000499577 ) 0 
( -0.0105148 0.00657643 0.00293843 ) 0 
( -0.00727944 0.00431842 0.00211719 ) 0 
( -0.00433911 0.00554259 0.00341178 ) 0 
( -0.00329106 0.00544415 0.00325612 ) 0 
( -0.0109175 0.00565881 0.00119133 ) 0 
( -0.0120906 0.000961897 0.00595438 ) 0 
( -0.00757701 0.00630586 0.00624002 ) 0 
( -0.0025916 0.00166302 0.00550263 ) 0 
( -0.00391888 0.0088638 0.00544409 ) 0 
( -0.00525885 0.00437856 0.00491881 ) 0 
( -0.00548768 0.00604951 0.00218709 ) 0 
( -0.00672546 0.0093256 0.000499657 ) 0 
( -0.000355731 0.00524337 0.00444123 ) 0 
( -0.0110904 0.00310637 0.000499748 ) 0 
( -0.00111645 0.0105114 0.00324215 ) 0 
( -0.00859575 0.00921593 0.00581391 ) 0 
( -0.000664094 0.00732378 0.00541084 ) 0 
( -0.00634325 0.000459778 0.00203971 ) 0 
( -0.00534191 0.00934152 0.00199926 ) 0 
( -0.0123129 0.00515912 0.00478899 ) 0 
( -0.0016687 0.00499875 0.0012404 ) 0 
( -0.000915803 0.00353607 0.00340736 ) 0 
( -0.0126529 0.004258 0.000499666 ) 0 
( -0.000849336 0.00779874 0.00381689 ) 0 
( -0.00694605 0.00974424 0.00238758 ) 0 
( -0.00550663 0.0022045 0.00739211 ) 0 
( -0.0033572 0.00944015 0.00603849 ) 0 
( -0.00172773 0.00781963 0.00672797 ) 0 
( -0.0104569 0.00319923 0.00228444 ) 0 
( -0.00364522 0.00614992 0.00502119 ) 0 
( -0.00113423 0.00435719 0.00678674 ) 0 
( -0.00132682 0.00943592 0.00333035 ) 0 
( -0.0110915 0.00466126 0.00343447 ) 0 
( -0.00315391 0.00872826 0.000499714 ) 0 
( -0.000549791 0.0126805 0.00389546 ) 0 
( -0.0106245 0.00159523 0.00135629 ) 0 
( -0.00846164 0.00374828 0.00382852 ) 0 
( -0.00897494 0.00800554 0.00579012 ) 0 
( -0.00504683 0.00307716 0.000949571 ) 0 
( -0.00201112 0.00442137 0.000499534 ) 0 
( -0.00167003 0.0104313 0.00407893 ) 0 
( -0.00299089 0.00233675 0.00488104 ) 0 
( -0.00946395 0.000342964 0.00429182 ) 0 
( -0.00376686 0.0103417 0.00590049 ) 0 
( -0.00316923 0.012057 0.00694232 ) 0 
( -0.00697384 0.00324256 0.00501551 ) 0 
( -0.00801077 0.00458045 0.00350606 ) 0 
( -0.00327571 0.00554117 0.00578083 ) 0 
( -0.0100467 0.00724284 0.00139183 ) 0 
( -0.00164375 0.00132256 0.0029397 ) 0 
( -0.0057414 0.00712232 0.00340485 ) 0 
( -0.00103404 0.00801798 0.00216779 ) 0 
( -0.00580665 0.00136916 0.00691985 ) 0 
( -0.00263507 0.00111247 0.00687909 ) 0 
( -0.000618844 0.00500018 0.00333968 ) 0 
( -0.0038709 0.00979079 0.00507257 ) 0 
( -0.00724371 0.0100245 0.00136569 ) 0 
( -0.00432244 0.0106968 0.00217215 ) 0 
( -0.00534369 0.00837675 0.0049914 ) 0 
( -0.00595703 0.0104503 0.0064425 ) 0 
( -0.011951 0.00483123 0.00391653 ) 0 
( -0.00497293 0.00286121 0.00192296 ) 0 
( -0.00187106 0.0108171 0.00642102 ) 0 
( -0.00216515 0.00447269 0.00457242 ) 0 
( -0.00556861 0.00059955 0.00141941 ) 0 
( -0.00223503 0.000799625 0.00585928 ) 0 
( -0.00967118 0.00396368 0.00503273 ) 0 
( -0.0104377 0.00309602 0.00129007 ) 0 
( -0.00146168 0.0067572 0.00688068 ) 0 
( -0.00266276 0.00565685 0.00249194 ) 0 
( -0.0079747 0.000506061 0.00719425 ) 0 
( -0.0121454 0.00245552 0.00323269 ) 0 
( -0.00286347 0.0112412 0.0041819 ) 0 
( -0.000600423 0.0105082 0.00656093 ) 0 
( -0.00271632 0.00283191 0.00243551 ) 0 
( -0.00193922 0.00979383 0.00189697 ) 0 
( -0.00440925 0.00578819 0.0067433 ) 0 
( -0.00597751 0.00529798 0.00143973 ) 0 
( -0.00688613 0.00288769 0.00377052 ) 0 
( -0.00682698 0.00126885 0.00729026 ) 0 
( -0.00449309 0.00350843 0.00251508 ) 0 
( -0.0109207 0.00414426 0.00642555 ) 0 
( -0.00892089 0.00586997 0.00394715 ) 0 
( -0.00413366 0.00235675 0.00281034 ) 0 
( -0.00302395 0.00258721 0.00592632 ) 0 
( -0.00012539 0.0030831 0.00196434 ) 0 
( -0.00326445 0.00902492 0.00268675 ) 0 
( -0.0066808 0.0115581 0.00538031 ) 0 
( -0.00238183 0.00713947 0.00466734 ) 0 
( -0.00775351 0.00259965 0.00335607 ) 0 
( -0.00338221 0.00324124 0.00471157 ) 0 
( -0.0113757 0.000808299 0.00527253 ) 0 
( -0.00991261 0.00742086 0.00236667 ) 0 
( -0.0111993 0.00432389 0.0043736 ) 0 
( -0.00099662 0.00341722 0.00778575 ) 0 
( -0.00770615 0.00663139 0.00717652 ) 0 
( -0.0016772 0.000816698 0.000499578 ) 0 
( -0.0130407 0.0028445 0.00595335 ) 0 
( -0.00382959 0.00650256 0.0071349 ) 0 
( -0.000959986 0.00165305 0.00467736 ) 0 
( -9.18276e-05 0.00954979 0.00450273 ) 0 
( -0.00240984 0.00896245 0.00412891 ) 0 
( -0.000142505 0.00389039 0.00255424 ) 0 
( -0.0119991 0.00582221 0.00553652 ) 0 
( -0.00792176 0.00753568 0.00680825 ) 0 
( -0.00476661 0.00407492 0.00771937 ) 0 
( -0.0121509 0.00290818 0.00142133 ) 0 
( -0.00449205 0.00347303 0.00600408 ) 0 
( -0.00381078 0.00512994 0.00719951 ) 0 
( -0.010041 0.00202458 0.00362924 ) 0 
( -0.0106377 0.00532444 0.00573163 ) 0 
( -0.00952076 0.000698146 0.00522482 ) 0 
( -0.00610136 0.00144295 0.00131674 ) 0 
( -0.00328574 0.000804291 0.0036981 ) 0 
( -0.00765234 0.000213386 0.00812273 ) 0 
( -0.0113369 0.00704918 0.00473113 ) 0 
( -0.00339066 0.0108189 0.00343962 ) 0 
( -0.00453916 0.000518729 0.00484068 ) 0 
( -0.00505997 0.00263259 0.00308279 ) 0 
( -0.0088242 0.00626363 0.00301726 ) 0 
( -0.00445225 0.00787559 0.00696388 ) 0 
( -0.00582962 0.000668875 0.00601043 ) 0 
( -0.0055624 0.00794995 0.00206958 ) 0 
( -0.00310859 0.00690759 0.00539257 ) 0 
( -0.00283533 0.00760566 0.00605428 ) 0 
( -0.00127497 0.00037868 0.00750475 ) 0 
( -0.0127976 0.000714517 0.00134946 ) 0 
( -0.00972193 0.00628479 0.00347395 ) 0 
( -0.0119089 0.00109025 0.00161214 ) 0 
( -0.00282965 0.0108044 0.000499705 ) 0 
( -0.00438816 0.00837165 0.00469418 ) 0 
( -0.00832352 0.00452604 0.00250465 ) 0 
( -0.00169225 0.00290013 0.00351144 ) 0 
( -0.00343622 0.0129002 0.00190176 ) 0 
( -0.00368688 0.00840695 0.00732516 ) 0 
( -0.00335545 0.00952484 0.00127195 ) 0 
( -0.00511961 0.0114079 0.00127678 ) 0 
( -0.0113527 0.00126649 0.000499817 ) 0 
( -0.00324365 0.0020299 0.00215522 ) 0 
( -0.00534154 0.0102765 0.00567404 ) 0 
( -0.00232575 0.00649386 0.00127081 ) 0 
( -0.00306774 0.000266967 0.00570887 ) 0 
( -0.00965467 0.00819169 0.00294898 ) 0 
( -0.0130671 0.00273367 0.00694659 ) 0 
( -0.00521935 0.006983 0.00246923 ) 0 
( -0.00792885 0.00544993 0.00131739 ) 0 
( -0.00655364 0.0078151 0.00595569 ) 0 
( -0.00459603 0.00769279 0.00213392 ) 0 
( -0.00596335 0.0119441 0.0032047 ) 0 
( -0.00305829 0.0115582 0.00510986 ) 0 
( -0.00874207 0.00868957 0.00135045 ) 0 
( -0.0104536 0.000822907 0.0048853 ) 0 
( -0.00318699 0.00579344 0.00678718 ) 0 
( -0.00294276 0.00942139 0.00512868 ) 0 
( -0.0109029 0.00114503 0.00348434 ) 0 
( -0.00369316 0.00579344 0.000863938 ) 0 
( -0.00967086 0.00566791 0.000499715 ) 0 
( -0.00216169 0.0122879 0.0024996 ) 0 
( -0.00497478 0.0100639 0.00258904 ) 0 
( -0.00697047 0.00507823 0.00513305 ) 0 
( -0.00602776 0.000908598 0.00777919 ) 0 
( -0.00702853 0.00700649 0.00446569 ) 0 
( -0.00555833 0.00163582 0.000499657 ) 0 
( -0.00382773 0.0107436 0.000499798 ) 0 
( -0.00331138 0.00117517 0.00498275 ) 0 
( -0.00190725 0.00820781 0.00368046 ) 0 
( -7.17769e-05 0.00572168 0.00288749 ) 0 
( -0.0115412 0.00196495 0.00120704 ) 0 
( -0.00485048 0.00165161 0.00549666 ) 0 
( -0.00442053 0.00347178 0.00700123 ) 0 
( -0.00249273 0.00430355 0.00550938 ) 0 
( -0.00978663 0.00248399 0.00448022 ) 0 
( -0.00968992 0.00375944 0.0013103 ) 0 
( -0.00151569 0.0106211 0.00152645 ) 0 
( -0.00138437 0.00900853 0.00619353 ) 0 
( -0.00229149 0.0107101 0.0048109 ) 0 
( -0.00213756 0.00466147 0.00653935 ) 0 
( -0.00383411 0.00416327 0.00202815 ) 0 
( -0.00409369 0.000999517 0.00559572 ) 0 
( -0.000325419 0.00679255 0.00331323 ) 0 
( -0.00746766 0.00457516 0.00116931 ) 0 
( -0.00781368 0.0108245 0.00208867 ) 0 
( -0.00845012 0.00248527 0.00685317 ) 0 
( -0.00718562 0.00208828 0.00634346 ) 0 
( -0.0062371 0.00219952 0.00417807 ) 0 
( -0.0042797 0.00863475 0.00202039 ) 0 
( -0.00813185 0.00365891 0.00204497 ) 0 
( -0.0109 0.00770819 0.00620492 ) 0 
( -0.00913743 0.00133557 0.000499804 ) 0 
( -0.0056215 0.00376149 0.000499533 ) 0 
( -0.00773185 0.00598993 0.00049955 ) 0 
( -0.0040309 0.012311 0.00135496 ) 0 
( -0.00308728 0.00466657 0.00622753 ) 0 
( -0.00503536 0.000165097 0.000499635 ) 0 
( -0.0120743 0.0023035 0.00224515 ) 0 
( -0.00489965 0.011173 0.00395406 ) 0 
( -0.00329141 0.000404666 0.00713888 ) 0 
( -0.0112319 0.00195519 0.00721749 ) 0 
( -0.00204625 0.00386218 0.00789814 ) 0 
( -0.00428908 0.00336732 0.00349666 ) 0 
( -0.00272778 0.0114269 0.00272167 ) 0 
( -0.00138964 0.0132776 0.0018263 ) 0 
( -0.0121458 0.00403727 0.00179292 ) 0 
( -4.15447e-06 0.00297567 0.000499766 ) 0 
( -0.00862536 0.00492076 0.00422185 ) 0 
( -0.000861445 0.00831759 0.0066923 ) 0 
( -0.00292483 0.00677686 0.00680988 ) 0 
( -0.00682391 0.00902729 0.00307422 ) 0 
( -0.00596925 0.00770901 0.00118853 ) 0 
( -5.57658e-05 0.0105166 0.00572267 ) 0 
( -0.00972053 0.00842628 0.00133835 ) 0 
( -0.00979323 0.00163653 0.00501186 ) 0 
( -0.0114722 0.00464101 0.00136695 ) 0 
( -0.00229926 0.00197539 0.00725552 ) 0 
( -5.19083e-07 0.00819976 0.00416114 ) 0 
( -0.00167711 0.00641282 0.000499608 ) 0 
( -0.00753696 0.00697257 0.000499677 ) 0 
( -0.00309032 0.00957481 0.00705564 ) 0 
( -0.00210049 0.0122491 0.00149005 ) 0 
( -0.00203633 0.0131939 0.00470263 ) 0 
( -0.00560103 0.0121176 0.00542251 ) 0 
( -0.00734995 0.00498142 0.00419206 ) 0 
( -0.00281233 0.00737028 0.00129085 ) 0 
( -0.00430171 0.0058519 0.00571403 ) 0 
( -0.0123385 0.00226066 0.00420559 ) 0 
( -0.00441118 0.00299727 0.004465 ) 0 
( -0.0010621 0.00425138 0.00270929 ) 0 
( -0.00399068 0.00976861 0.00200458 ) 0 
( -0.00622988 0.00156314 0.0085082 ) 0 
( -0.00369183 0.0128298 0.00575688 ) 0 
( -0.00670187 0.00807808 0.00338145 ) 0 
( -0.0013281 0.0027761 0.00132494 ) 0 
( -0.00445537 0.00379981 0.00505986 ) 0 
( -0.0089284 0.00352863 0.0055419 ) 0 
( -0.00481115 0.00547699 0.00765425 ) 0 
( -0.000155029 0.0120103 0.00129315 ) 0 
( -0.00173047 0.00301433 0.00833188 ) 0 
( -0.00371701 0.00294525 0.00211456 ) 0 
( -0.000176019 0.00718674 0.000499692 ) 0 
( -0.000109386 0.00995523 0.00222391 ) 0 
( -0.00853123 0.00606115 0.00642655 ) 0 
( -0.00127158 0.00929556 0.00524256 ) 0 
( -0.00585078 0.00249606 0.00514198 ) 0 
( -0.0021996 0.00344163 0.00592266 ) 0 
( -0.0102003 0.00743987 0.00335201 ) 0 
( -0.000110713 0.0108337 0.00280819 ) 0 
( -0.00100807 0.00845475 0.00307908 ) 0 
( -0.00509153 0.00507574 0.00184643 ) 0 
( -0.00167825 0.00529084 0.00425803 ) 0 
( -0.00541374 0.0103109 0.00404416 ) 0 
( -0.00141317 0.00594057 0.00497576 ) 0 
( -0.00371941 0.00392451 0.00645011 ) 0 
( -0.00986949 0.0089902 0.00718627 ) 0 
( -0.00137401 0.00752379 0.00300217 ) 0 
( -0.00611553 0.011086 0.000499721 ) 0 
( -0.00252245 0.00444757 0.0013582 ) 0 
( -0.00712155 0.00611677 0.00399587 ) 0 
( -0.0119852 0.0035281 0.000644965 ) 0 
( -0.0116709 0.00159849 0.00303237 ) 0 
( -0.00636215 0.0102502 0.00435521 ) 0 
( -0.00924566 0.000307828 0.0023411 ) 0 
( -0.00448908 0.00217459 0.00792509 ) 0 
( -0.00277987 0.0130574 0.00404757 ) 0 
( -0.00980698 0.0078605 0.00464414 ) 0 
( -0.000324921 0.00773357 0.00296412 ) 0 
( -0.00733132 0.000124599 0.00171157 ) 0 
( -0.00991978 0.00340119 0.00396168 ) 0 
( -9.52656e-05 0.000500496 0.00191105 ) 0 
( -0.00552608 0.00932392 0.0054324 ) 0 
( -0.0067837 0.00506145 0.0032649 ) 0 
( -0.00362096 0.0045155 0.00107312 ) 0 
( -0.0113086 0.0018421 0.00622733 ) 0 
( -0.00462301 0.00198922 0.000499791 ) 0 
( -0.000128321 0.000543535 0.000499788 ) 0 
( -0.00386065 0.0016302 0.00736988 ) 0 
( -0.000638906 0.00593555 0.00372215 ) 0 
( -0.00721428 0.00773813 0.00513603 ) 0 
( -0.00390492 0.00237348 0.00131585 ) 0 
( -0.00685044 0.00893057 0.00670367 ) 0 
( -0.00707621 0.00825553 0.00429154 ) 0 
( -0.00836177 0.00271177 0.00143535 ) 0 
( -0.00397627 0.00285134 0.005415 ) 0 
( -0.000757307 0.0101997 0.00508454 ) 0 
( -0.00160485 0.0113735 0.00302883 ) 0 
( -0.0133116 0.00101373 0.00583479 ) 0 
( -0.00840782 0.00278445 0.00408917 ) 0 
( -0.00922108 0.00965384 0.00516817 ) 0 
( -0.000267416 0.00729522 0.00449339 ) 0 
( -0.00986921 0.00697703 0.00418036 ) 0 
( -0.00928563 0.00780056 0.00379306 ) 0 
( -0.0118292 0.00618801 0.00147449 ) 0 
( -0.00291562 0.00979478 0.0021284 ) 0 
( -0.0108825 0.00773224 0.000499752 ) 0 
( -0.00338462 0.00639899 0.00281461 ) 0 
( -1.93284e-05 0.00126091 0.00119452 ) 0 
( -0.00472711 0.00449945 0.00575686 ) 0 
( -0.000679714 0.00164048 0.00713981 ) 0 
( -0.0115504 0.00486794 0.00614474 ) 0 
( -0.000571375 0.0050486 0.00234022 ) 0 
( -0.00405551 0.0111316 0.00644119 ) 0 
( -0.00893673 0.00686407 0.00383802 ) 0 
( -0.0126782 0.00363416 0.00545839 ) 0 
( -0.0125274 0.00461363 0.00559907 ) 0 
( -0.0110544 0.00212484 0.00361785 ) 0 
( -0.00739434 0.00172084 0.00388661 ) 0 
( -0.000711247 0.00971532 0.00596241 ) 0 
( -0.00286155 0.0130399 0.000499632 ) 0 
( -0.00673765 0.00604243 0.00709504 ) 0 
( -0.00819296 0.000627299 0.00178002 ) 0 
( -0.012833 0.00367944 0.00650641 ) 0 
( -0.00805088 0.00763806 0.00228046 ) 0 
( -0.0093138 0.00417982 0.00412411 ) 0 
( -0.00178668 0.0114794 0.0020462 ) 0 
( -0.0100074 0.00883614 0.00473182 ) 0 
( -0.0032408 0.00117621 0.00608646 ) 0 
( -0.0123233 0.00197046 0.006174 ) 0 
( -0.0114456 0.00032376 0.00330854 ) 0 
( -0.000937014 0.00744581 0.00109408 ) 0 
( -0.00691476 0.0104109 0.00615835 ) 0 
( -0.00329962 0.00773907 0.00049968 ) 0 
( -0.0108664 0.00598216 0.00646868 ) 0 
( -0.00674325 0.00440862 0.000499698 ) 0 
( -0.00147695 0.00192083 0.00386455 ) 0 
( -0.00838209 0.00847177 0.00644664 ) 0 
( -0.0100191 0.00371414 0.00594121 ) 0 
( -0.00595251 0.00686512 0.00720644 ) 0 
( -0.011796 0.00171303 0.00536415 ) 0 
( -0.00130223 0.00657831 0.00331956 ) 0 
( -0.00129779 0.00181794 0.00564679 ) 0 
( -0.00210348 0.0023581 0.00179822 ) 0 
( -0.000453159 0.00966174 0.000499681 ) 0 
( -0.0048874 0.000942719 0.00620089 ) 0 
( -0.00114671 0.00685925 0.00430189 ) 0 
( -0.000847242 0.00686703 0.00246263 ) 0 
( -0.00147403 0.0123935 0.00446123 ) 0 
( -0.00498792 0.0113602 0.00671896 ) 0 
( -0.000795963 0.00128867 0.000499916 ) 0 
( -0.0109074 0.00364087 0.00367737 ) 0 
( -0.00193931 0.01164 0.00723934 ) 0 
( -0.00317757 0.0036961 0.00143579 ) 0 
( -0.00121734 0.00976668 0.00682327 ) 0 
( -0.00949317 0.0043106 0.000499538 ) 0 
( -0.0101775 0.00704278 0.00513337 ) 0 
( -0.000586361 0.00431447 0.00762211 ) 0 
( -0.0119206 0.00327868 0.00240424 ) 0 
( -0.00873145 0.00601038 0.000499658 ) 0 
( -0.00872796 0.00118148 0.00253037 ) 0 
( -0.00170128 0.0115018 0.00405398 ) 0 
( -0.00651179 0.00703521 0.00533134 ) 0 
( -0.011022 0.000674528 0.00141175 ) 0 
( -0.0108559 0.00213436 0.000499698 ) 0 
( -0.00265378 0.00531347 0.00748531 ) 0 
( -0.00411399 0.0113165 0.00141565 ) 0 
( -0.00940048 0.00628131 0.00472494 ) 0 
( -0.00192745 0.00625301 0.00414843 ) 0 
( -0.00485564 0.00772976 0.0060609 ) 0 
( -0.00417548 0.00288337 0.000499538 ) 0 
( -0.00959573 0.00667196 0.000499805 ) 0 
( -0.00544575 0.00222869 0.00129687 ) 0 
( -0.00631645 0.00533373 0.000499747 ) 0 
( -0.00274352 0.00525145 0.00485763 ) 0 
( -0.00633002 0.00411249 0.00727547 ) 0 
( -0.00241133 0.00620459 0.00502216 ) 0 
( -0.0106253 0.00178402 0.00447189 ) 0 
( -0.00183302 0.00417413 0.00202887 ) 0 
( -0.00351097 0.00665657 0.00133674 ) 0 
( -0.00701703 0.00293924 0.00274803 ) 0 
( -0.00381597 0.00415087 0.00741909 ) 0 
( -0.00810282 0.0106099 0.00494319 ) 0 
( -0.000661617 0.0111497 0.00137139 ) 0 
( -0.00752423 0.00813128 0.000499619 ) 0 
( -0.00314718 0.00225417 0.00312936 ) 0 
( -0.000388488 0.00570466 0.00631657 ) 0 
( -0.00105572 0.00354583 0.00199926 ) 0 
( -0.0035533 0.0104892 0.00144597 ) 0 
( -0.00429753 0.00678532 0.00454681 ) 0 
( -0.00561598 0.00459932 0.00777799 ) 0 
( -0.010865 0.0054092 0.00280685 ) 0 
( -0.0124983 0.00469008 0.00659559 ) 0 
( -0.0112664 0.0016648 0.00212031 ) 0 
( -0.0106123 0.00264113 0.00523204 ) 0 
( -0.00467988 0.00446331 0.0068021 ) 0 
( -0.00463957 0.00868258 0.00355038 ) 0 
( -0.00106497 0.0121437 0.00251455 ) 0 
( -0.0130964 0.00259114 0.00182432 ) 0 
( -0.00919705 0.00184146 0.00311804 ) 0 
( -0.00451593 0.00219772 0.00381073 ) 0 
( -0.00458265 0.00935293 0.00131425 ) 0 
( -0.00996695 0.00213536 0.00694188 ) 0 
( -0.0103773 1.10059e-05 0.00266151 ) 0 
( -0.0074374 0.00579378 0.00776406 ) 0 
( -0.000341248 0.0124778 0.00707864 ) 0 
( -0.00156408 0.00198338 0.00793309 ) 0 
( -0.00761517 0.00375983 0.00290978 ) 0 
( -0.00227801 0.0017733 0.000499535 ) 0 
( -0.00802529 0.00486111 0.00501973 ) 0 
( -0.00318424 0.00274903 0.000499701 ) 0 
( -0.00859643 0.00176058 0.00123529 ) 0 
( -0.0106863 0.00167148 0.00546361 ) 0 
( -0.00563975 0.00107259 0.00302483 ) 0 
( -0.00828716 0.00402462 0.00612701 ) 0 
( -0.0074386 0.00893826 0.00108347 ) 0 
( -0.0027257 0.0038331 0.00232417 ) 0 
( -0.00218897 0.00271626 0.000819756 ) 0 
( -0.00484611 0.00750761 0.00498256 ) 0 
( -0.00927746 0.00661169 0.00148904 ) 0 
( -0.00667737 0.00144515 0.000499531 ) 0 
( -0.00162625 0.0103591 0.00555326 ) 0 
( -0.00972411 0.00497049 0.00121416 ) 0 
( -0.00748938 0.000420158 0.00328052 ) 0 
( -0.0128995 0.00342848 0.00764587 ) 0 
( -0.000368533 0.00295238 0.00618183 ) 0 
( -0.00554984 0.0044139 0.00125339 ) 0 
( -0.00640904 0.00359396 0.00320981 ) 0 
( -0.00361904 0.00728612 0.00228136 ) 0 
( -0.000913055 0.00445786 0.00160931 ) 0 
( -0.0104431 0.0028612 0.00325724 ) 0 
( -0.00571352 0.00783395 0.00675819 ) 0 
( -0.00234665 0.00276193 0.00664064 ) 0 
( -0.0113822 0.000704877 0.00237533 ) 0 
( -0.00927511 0.00551574 0.00562219 ) 0 
( -0.00683149 0.0114703 0.00747772 ) 0 
( -0.0040273 0.008649 0.00641636 ) 0 
( -0.000362587 0.00260048 0.00730698 ) 0 
( -0.000738954 0.00635418 0.00564227 ) 0 
( -0.000444428 0.00366625 0.00121737 ) 0 
( -0.005124 0.00679225 0.0058398 ) 0 
( -0.000293677 0.00639206 0.00703635 ) 0 
( -0.00463438 0.0069282 0.00670139 ) 0 
( -0.00590522 0.0086925 0.00148808 ) 0 
( -0.00621112 0.00990252 0.00314599 ) 0 
( -0.000559766 0.00872005 0.00480643 ) 0 
( -0.00959517 0.00179471 0.00126779 ) 0 
( -0.000553145 0.00600523 0.00204948 ) 0 
( -0.00126901 0.00908373 0.000499777 ) 0 
( -7.20125e-05 0.00197801 0.000499695 ) 0 
( -0.00110639 0.00265409 0.00244876 ) 0 
( -0.00539246 0.00470028 0.00388312 ) 0 
( -0.000925726 0.0110364 0.00577698 ) 0 
( -0.00242673 0.00296423 0.00761643 ) 0 
( -0.00701859 0.0113562 0.00446038 ) 0 
( -0.0058337 0.00152229 0.00536858 ) 0 
( -0.000340122 0.0111129 0.00497031 ) 0 
( -0.00681207 0.0114813 0.00144504 ) 0 
( -0.000658774 0.0123411 0.00614081 ) 0 
( -0.00877828 0.00126544 0.00558032 ) 0 
( -0.0102976 0.00847093 0.00370402 ) 0 
( -0.00436463 0.00659932 0.00284796 ) 0 
( -0.00862204 0.0056736 0.00488154 ) 0 
( -0.0123922 0.000378434 0.000499662 ) 0 
( -0.00698536 0.00417793 0.00466242 ) 0 
( -0.0088288 0.00503336 0.000688134 ) 0 
( -0.00589429 0.00898994 0.00698795 ) 0 
( -0.00422744 0.00103324 0.000499636 ) 0 
( -0.00931866 0.00828407 0.00674214 ) 0 
( -0.000705469 0.0106874 0.00414243 ) 0 
( -0.000286671 0.00289427 0.00296885 ) 0 
( -0.00454788 0.00381737 0.000499616 ) 0 
( -0.00596238 0.0111518 0.00390684 ) 0 
( -0.00796149 0.0101077 0.00330291 ) 0 
( -0.00745052 0.00263635 0.00713645 ) 0 
( -0.00995981 0.00888894 0.00219186 ) 0 
( -5.55003e-05 0.00356555 0.00808855 ) 0 
( -0.00117346 0.00170519 0.00214098 ) 0 
( -0.00477791 0.0124658 0.00049982 ) 0 
( -0.0100683 0.00609901 0.0054466 ) 0 
( -0.00774553 0.0108447 0.0010913 ) 0 
( -0.00771711 0.00167474 0.00708239 ) 0 
( -0.00317709 0.00464105 0.00801189 ) 0 
( -0.00207479 0.00369138 0.00691342 ) 0 
( -0.0125363 0.0025916 0.00512808 ) 0 
( -0.00985099 0.00580724 0.00174636 ) 0 
( -0.00221198 0.00721337 0.00735833 ) 0 
( -0.00712468 0.00436675 0.00672425 ) 0 
( -0.00694484 0.000481194 0.00499629 ) 0 
( -0.00197533 0.0100925 0.00285633 ) 0 
( -0.00836557 0.00187488 0.00367253 ) 0 
( -0.00433101 0.00930193 0.00433148 ) 0 
( -0.00321239 0.0121765 0.0042394 ) 0 
( -0.00843476 0.00460808 0.0015039 ) 0 
( -0.00961842 0.00159114 0.00224649 ) 0 
( -0.00718237 0.000974235 0.00221741 ) 0 
( -0.00462089 0.0120926 0.00572607 ) 0 
( -0.011449 0.00686644 0.000499617 ) 0 
( -0.00685445 0.00698813 0.00679288 ) 0 
( -0.000181432 0.00785376 0.00610796 ) 0 
( -0.001824 0.000954545 0.00202766 ) 0 
( -0.0101313 0.00144556 0.000499584 ) 0 
( -0.00799904 0.00945433 0.00173071 ) 0 
( -0.00818327 0.00311193 0.00501614 ) 0 
( -0.00822092 0.00708689 0.00310717 ) 0 
( -0.00900733 0.00866876 0.00497859 ) 0 
( -0.00426439 0.0126506 0.00257989 ) 0 
( -0.00861938 0.000558856 0.000870888 ) 0 
( -0.00712219 0.0029313 0.000499647 ) 0 
( -0.00568445 0.00757523 0.00552348 ) 0 
( -0.00739565 0.00726993 0.0060007 ) 0 
( -0.00402718 0.0118297 0.00496565 ) 0 
( -0.00535013 0.00507657 0.000499803 ) 0 
( -0.00548792 0.0051857 0.00697853 ) 0 
( -0.00428755 0.00925164 0.00280731 ) 0 
( -0.00952948 0.00294693 0.00732887 ) 0 
( -0.000379104 0.0071801 0.00791496 ) 0 
( -0.00089984 0.0043613 0.000499805 ) 0 
( -0.000932276 0.000982062 0.00149169 ) 0 
( -0.00946555 0.00509431 0.00473559 ) 0 
( -0.00165 0.00606836 0.00593881 ) 0 
( -0.0069671 0.00533853 0.00157676 ) 0 
( -0.00910427 0.00754405 0.00117214 ) 0 
( -8.29731e-06 0.00686926 0.00609584 ) 0 
( -0.0076763 0.00919295 0.00620539 ) 0 
( -0.0057775 0.00492371 0.0055776 ) 0 
( -0.00804328 0.00096073 0.0039188 ) 0 
( -0.00289724 0.0130318 0.00518466 ) 0 
( -0.000566413 0.00256423 0.0047982 ) 0 
( -0.00462423 0.00577797 0.00049962 ) 0 
( -0.0100269 0.000797357 0.0012808 ) 0 
( -0.00363222 0.00185507 0.0004997 ) 0 
( -0.00590711 0.0012764 0.00437478 ) 0 
( -0.00632659 0.000515528 0.00686421 ) 0 
( -0.000379529 0.00146372 0.00546896 ) 0 
( -0.00490473 0.00130826 0.00118167 ) 0 
( -0.00820395 0.00926279 0.00705165 ) 0 
( -0.00861954 0.00347009 0.00688952 ) 0 
( -0.0083222 0.00548921 0.00223582 ) 0 
( -0.0116814 0.00151185 0.00412143 ) 0 
( -0.00664669 0.00495465 0.00607101 ) 0 
( -0.00868183 0.00648174 0.0073364 ) 0 
( -0.00538611 0.0122153 0.00243335 ) 0 
( -0.00459352 0.00193658 0.00189441 ) 0 
( -0.00494849 0.00980481 0.000500751 ) 0 
( -0.0107728 0.00437006 0.00546287 ) 0 
( -0.00151838 0.00273983 0.00454362 ) 0 
( -0.00311093 0.000990677 0.00188111 ) 0 
( -0.00729613 0.00625705 0.00135864 ) 0 
( -0.00680873 0.00890658 0.00185923 ) 0 
( -0.00894146 0.00991271 0.00334664 ) 0 
( -0.00960723 0.00111097 0.0071798 ) 0 
( -0.0124575 0.00132265 0.00472416 ) 0 
( -0.00438702 0.00480654 0.000499807 ) 0 
( -0.00636802 3.36654e-05 0.00426501 ) 0 
( -0.00500201 0.0115248 0.00488444 ) 0 
( -0.00389442 0.00394622 0.00422081 ) 0 
( -0.00763065 0.00574573 0.00477238 ) 0 
( -0.0111881 0.000971078 0.00738766 ) 0 
( -0.000773551 0.00345467 0.0043937 ) 0 
( -0.00124427 0.00578175 0.00689826 ) 0 
( -0.0124281 0.00138396 0.00241562 ) 0 
( -0.00913595 0.00323221 0.00460975 ) 0 
( -0.00527257 0.00198954 0.00634569 ) 0 
( -0.00597527 0.0109297 0.00147726 ) 0 
( -0.00862678 0.00210382 0.00478804 ) 0 
( -0.0106245 0.000575892 0.000499688 ) 0 
( -0.00479637 0.011109 0.00577026 ) 0 
( -0.00733723 0.00836685 0.00252627 ) 0 
( -0.0102844 0.0043656 0.00397219 ) 0 
( -0.0033563 0.0105872 0.00475555 ) 0 
( -0.0024345 0.00253749 0.00407484 ) 0 
( -0.00808459 0.00131762 0.000499561 ) 0 
( -0.00289933 0.00742531 0.00367782 ) 0 
( -0.00287561 0.0107193 0.00562222 ) 0 
( -0.00105994 0.00229886 0.00649064 ) 0 
( -0.00670787 0.00689441 0.00352258 ) 0 
( -0.0105632 0.00816368 0.00252316 ) 0 
( -0.00795748 0.00157218 0.00201327 ) 0 
( -0.00975976 0.00358543 0.00288841 ) 0 
( -0.00621221 0.00339131 0.00630463 ) 0 
( -0.0132856 0.000914493 0.00383015 ) 0 
( -0.00192734 0.00721207 0.00377645 ) 0 
( -0.00340157 0.0105051 0.00686363 ) 0 
( -0.00466882 0.000733828 0.00211618 ) 0 
( -0.00739585 0.00657006 0.0052869 ) 0 
( -0.00924643 0.00167771 0.00412903 ) 0 
( -0.0133486 0.000193649 0.00312587 ) 0 
( -0.00358406 0.000222006 0.00485256 ) 0 
( -0.00249816 0.00494647 0.00373879 ) 0 
( -0.00652428 0.00444692 0.00147448 ) 0 
( -0.00640259 0.0093341 0.00394601 ) 0 
( -3.39932e-05 0.00104078 0.00299642 ) 0 
( -0.0123308 0.00511665 0.000897798 ) 0 
( -0.0013535 0.00855321 0.00138598 ) 0 
( -0.00160429 0.00126183 0.00717235 ) 0 
( -0.00985188 0.00554987 0.00280273 ) 0 
( -0.00262648 0.000206408 0.000499719 ) 0 
( -0.00224299 0.0048808 0.00828764 ) 0 
( -0.0128629 0.00357364 0.00119766 ) 0 
( -0.010466 0.000260682 0.00364863 ) 0 
( -0.0074368 0.00249797 0.00451451 ) 0 
( -0.0129235 0.00334746 0.00421224 ) 0 
( -0.00777019 0.0108545 0.00403254 ) 0 
( -0.00238456 0.00087793 0.00120331 ) 0 
( -0.00049312 0.00620334 0.0046849 ) 0 
( -0.00641815 0.00496379 0.00232383 ) 0 
( -0.0027701 0.00559977 0.00132212 ) 0 
( -0.00164419 0.00379769 0.00404147 ) 0 
( -0.00818199 0.00177189 0.00620281 ) 0 
( -0.00853664 0.00699087 0.000514419 ) 0 
( -0.00294366 0.00174527 0.00124491 ) 0 
( -0.00403916 0.00119244 0.00429667 ) 0 
( -0.00604437 0.00872524 0.00247778 ) 0 
( -0.00249529 0.000607545 0.00487586 ) 0 
( -0.00196144 0.00225769 0.00278323 ) 0 
( -0.00141209 0.00809428 0.000499621 ) 0 
( -0.00314202 0.00433864 0.00474974 ) 0 
( -0.000478563 0.00520278 0.00717661 ) 0 
( -0.00501525 0.0123724 0.00151814 ) 0 
( -0.00386503 0.0082242 0.00283264 ) 0 
( -0.00495276 0.001544 0.00450774 ) 0 
( -0.0076297 0.00046692 0.000762146 ) 0 
( -0.0069778 0.0103862 0.00357622 ) 0 
( -0.00319254 0.00492356 0.00192742 ) 0 
( -0.011414 0.00513467 0.000499615 ) 0 
( -0.000431091 0.0133432 0.0021164 ) 0 
( -0.000667301 0.0128701 0.00126779 ) 0 
( -0.0104267 0.00679567 0.0060883 ) 0 
( -0.00275847 0.00471052 0.00280258 ) 0 
( -0.00563902 0.00684652 0.00157174 ) 0 
( -0.0116533 0.00462166 0.00258243 ) 0 
( -0.00943185 0.00277968 0.00132117 ) 0 
( -0.00616847 0.00669051 0.00258581 ) 0 
( -0.00394988 0.0097506 0.000499799 ) 0 
( -0.00355785 0.0036771 0.000499792 ) 0 
( -0.0105173 0.00507247 0.00189554 ) 0 
( -0.00738219 0.00913403 0.00390314 ) 0 
( -0.0102513 0.00855233 0.000500557 ) 0 
( -0.00435777 0.00676086 0.00185937 ) 0 
( -0.00284972 0.00428197 0.00713809 ) 0 
( -0.00761138 0.00473416 0.00592869 ) 0 
( -0.00528306 0.00794052 0.000499666 ) 0 
( -0.000152126 0.0109701 0.000499684 ) 0 
( -0.00387737 0.0117749 0.00339055 ) 0 
( -0.0126178 0.00436059 0.0026201 ) 0 
( -0.00297019 0.00777591 0.00703007 ) 0 
( -0.0019153 0.00779543 0.00175099 ) 0 
( -0.00630207 0.00955805 0.00615159 ) 0 
( -0.00492762 0.0052942 0.00515037 ) 0 
( -0.00339919 0.00250532 0.00751431 ) 0 
( -0.00708939 0.0113125 0.000499493 ) 0 
( -0.00115027 0.00286827 0.00555065 ) 0 
( -0.00210503 0.0123862 0.000499717 ) 0 
( -0.0127568 0.000240338 0.00614058 ) 0 
( -0.00570989 0.0034822 0.0015787 ) 0 
( -0.0047886 0.0010585 0.00361205 ) 0 
( -0.00258559 0.00650012 0.00341657 ) 0 
( -0.0068559 0.0103405 0.000499977 ) 0 
( -0.0101856 0.00232712 0.00187728 ) 0 
( -0.00604368 0.00691644 0.0062121 ) 0 
( -0.00546724 0.000249045 0.0024733 ) 0 
( -0.0122751 0.00524834 0.00305951 ) 0 
( -0.00680849 0.00230658 0.00535792 ) 0 
( -0.00109012 0.000102771 0.00642529 ) 0 
( -0.00764057 0.00351098 0.00669096 ) 0 
( -0.00388388 0.00638889 0.00372329 ) 0 
( -0.00474407 0.0104087 0.00649714 ) 0 
( -0.000206078 0.00748192 0.0020035 ) 0 
( -0.00825474 0.00862121 0.00222083 ) 0 
( -0.00608148 0.00838892 0.00410194 ) 0 
( -0.00295108 0.00661354 0.00049978 ) 0 
( -0.00682735 0.0106701 0.00202921 ) 0 
( -0.00795344 0.00394085 0.00757039 ) 0 
( -0.00137718 0.00221365 0.000499718 ) 0 
( -0.00305958 0.00511124 0.000499466 ) 0 
( -0.00687758 0.00397425 0.00583844 ) 0 
( -0.00887015 0.00508665 0.00642956 ) 0 
( -0.00519105 0.00506314 0.00284394 ) 0 
( -0.00379648 0.00024493 0.00211814 ) 0 
( -0.00205837 0.0123149 0.00651163 ) 0 
( -0.00221765 0.00334971 0.00161151 ) 0 
( -0.00429914 0.0077633 0.000499562 ) 0 
( -0.00663967 0.0115819 0.00637899 ) 0 
( -0.00710647 0.00416398 0.00367002 ) 0 
( -0.00928464 0.00572138 0.00709462 ) 0 
( -0.00479959 0.00595392 0.00146793 ) 0 
( -0.00195029 0.00643475 0.00257118 ) 0 
( -0.00375607 0.00433492 0.00553913 ) 0 
( -0.000974753 0.00321597 0.000499526 ) 0 
( -0.00498335 0.0098855 0.00731496 ) 0 
( -0.0041076 0.000592151 0.00301695 ) 0 
( -0.00614476 0.00241425 0.00610288 ) 0 
( -0.0045613 0.00966099 0.00578392 ) 0 
( -0.0053347 0.000467248 0.00423712 ) 0 
( -0.00254235 0.00832687 0.00118132 ) 0 
( -0.00594376 0.000520613 0.00502832 ) 0 
( -0.00379985 0.012793 0.00476354 ) 0 
( -0.000748253 0.00196425 0.00123591 ) 0 
( -0.0106925 0.00282681 0.00423154 ) 0 
( -0.00306303 0.00834732 0.00542367 ) 0 
( -0.00157005 0.000116506 0.00251219 ) 0 