FoamFile
{version 2.0; format ascii;class vectorField; location 0;object  v;}
2498
(
( 0.000235057 -0.000115827 -0.000257507 )  
( 0.000761635 0.000583411 0.00384417 )  
( -0.00179995 0.000727779 0.000604603 )  
( 2.39529e-05 0.000122943 0.000188626 )  
( -0.000744982 -0.000454342 0.00307439 )  
( -0.000176269 -0.000489365 0.00194339 )  
( -8.49995e-05 -0.000307463 0.00371241 )  
( 0.000228251 0.000117095 -0.000363765 )  
( 0.000277497 0.000247099 0.000203008 )  
( -0.000429942 -0.000198433 0.00328062 )  
( 0.00037445 -0.00146522 -0.000225792 )  
( 0.000711418 0.00098535 0.00314448 )  
( 2.71495e-05 0.000383708 1.94779e-05 )  
( -6.03497e-05 0.00150406 0.00297972 )  
( -0.000390058 -0.000597692 7.31094e-05 )  
( 0.000816493 0.00220564 -0.0013519 )  
( -0.000247105 0.000538648 0.0036774 )  
( -0.000234255 -0.000311854 0.00326317 )  
( 7.18999e-05 0.000214958 0.00344009 )  
( -0.000221299 0.000818749 0.00243783 )  
( -0.000236949 0.00104835 0.00227399 )  
( -0.000729451 0.000685385 0.00263017 )  
( 0.000651847 0.000521627 0.00392038 )  
( -0.000150057 -0.000451268 0.00355709 )  
( 0.000208818 0.00035496 0.00363578 )  
( -0.000407709 -4.53235e-05 0.00309218 )  
( -0.000269573 0.000650404 0.00387083 )  
( -0.000149219 0.000211669 0.00364778 )  
( 0.000159224 0.000293799 0.00382323 )  
( -0.000620147 4.46088e-06 0.00289982 )  
( -0.000345684 0.000538368 0.00375579 )  
( -0.000250088 0.000354043 -0.000492558 )  
( 0.00155505 0.000330237 -0.000329942 )  
( -0.000399401 4.62479e-06 0.00425277 )  
( -0.00139668 -0.000606711 0.0034552 )  
( 1.30775e-05 -0.00176014 0.000806495 )  
( 0.000270751 -0.000912673 0.0011113 )  
( -0.000216063 -0.00104852 -0.00230609 )  
( -3.62228e-05 0.000110603 -0.000269816 )  
( -0.00366448 -0.00190472 0.00571584 )  
( 0.000851522 -0.000888581 0.00183892 )  
( -0.000580989 -0.00265393 3.70706e-06 )  
( 0.000101774 0.0012814 0.00256175 )  
( 0.000413058 -0.00073963 -5.42594e-05 )  
( -0.000101709 -0.000201348 -6.17112e-06 )  
( -0.0011583 -0.00128316 0.00237713 )  
( -0.000620398 0.00110264 0.000633553 )  
( -0.00366544 0.00132725 0.0042861 )  
( -0.00122787 -0.00125382 -0.000182974 )  
( -0.0022453 0.00197642 0.000180633 )  
( -0.000439093 0.00060604 0.00420818 )  
( -0.0011072 -0.00104323 0.00206524 )  
( -0.000880776 0.000478698 0.0030084 )  
( 0.00109721 0.000917424 0.00262103 )  
( -0.00131695 -0.000999374 0.00295849 )  
( -0.000444009 0.00212565 -0.000333561 )  
( -0.000106444 -0.000131934 9.07487e-05 )  
( 0.000534524 0.000207874 0.00430691 )  
( -3.21026e-05 0.00027609 2.17899e-05 )  
( -0.00110974 -0.0021142 0.00179595 )  
( 3.96314e-05 -5.42108e-05 0.00314198 )  
( 0.000751088 -0.000329232 0.00071728 )  
( 0.000950055 0.000428735 4.97643e-05 )  
( -0.000177702 -0.000694228 -0.000497931 )  
( -0.000667155 -0.00136959 0.00294389 )  
( 0.000154481 0.000568188 -0.000113448 )  
( -0.000643001 -0.00282592 0.00355272 )  
( 5.0071e-06 1.09765e-05 -5.77759e-06 )  
( 0.00140299 -0.000187214 0.0002132 )  
( -0.00109405 0.000462103 -0.000272294 )  
( 0.000164848 -0.000796318 0.00312822 )  
( 0.002294 0.000217491 0.00242757 )  
( 0.000932597 -0.0014383 0.00221797 )  
( -0.00144598 -0.000644482 -0.000304155 )  
( 0.000152996 -0.000998431 0.00342454 )  
( -0.00252459 -0.00253196 0.00368112 )  
( 0.00178694 -0.00262953 0.00222852 )  
( -0.00152613 -3.31178e-05 0.00104861 )  
( -0.00176421 0.000778822 2.90003e-05 )  
( 0.000305156 -0.000304791 0.000924538 )  
( -0.000488468 -0.000837028 -0.000427396 )  
( -0.00256952 -0.000386342 0.00246863 )  
( 0.000516617 -0.000326157 0.00340655 )  
( -0.000279361 -0.000275359 0.000144996 )  
( 0.000242294 0.00024819 -3.86248e-05 )  
( -0.000240342 -0.000453417 0.00372396 )  
( -0.00161345 0.000413606 0.00323178 )  
( -0.00141765 0.000479819 0.00325812 )  
( 0.000548433 -0.000330652 0.00296444 )  
( -0.00174409 -0.000111539 0.0042032 )  
( 0.000548321 -0.00128229 0.00262831 )  
( -0.000960349 0.000913537 0.00761861 )  
( -0.0040038 0.000857371 0.00915841 )  
( -0.000657468 0.000506449 0.000222397 )  
( 0.000542678 0.000580952 -0.000844247 )  
( -0.000922992 0.00180723 0.00585417 )  
( 0.00152873 0.000804664 -0.000689129 )  
( -0.00014993 -0.00127266 0.00281705 )  
( -0.000566417 -0.00072278 0.00376508 )  
( -0.000291555 -0.0010656 0.000801792 )  
( 0.000794144 0.000743368 0.00245099 )  
( -9.87208e-05 0.000144639 5.92138e-05 )  
( -0.00140556 -0.000233058 -0.000585533 )  
( -0.000565053 0.000874616 0.00220518 )  
( 0.000819731 0.000970154 0.00265097 )  
( -0.000593097 -0.000591245 0.00276308 )  
( 0.000398426 -0.000377665 6.6675e-05 )  
( -0.00280862 0.00399158 0.00305278 )  
( -0.00119647 0.000135281 0.00239328 )  
( -0.00014651 -0.000251349 -0.000526249 )  
( -0.00147305 0.000399647 0.00380239 )  
( -5.08901e-05 -0.000803848 0.00382051 )  
( -0.000957326 -0.000230673 -0.000308976 )  
( 0.000398064 0.000193624 0.00196377 )  
( 0.000400172 -0.000426338 -0.00129667 )  
( -0.000903461 -0.00151485 0.00338897 )  
( -0.00083772 -0.000207736 0.000595043 )  
( 0.00312059 -0.000288461 0.00368199 )  
( -0.000692553 -0.00108201 0.00207429 )  
( -8.04275e-05 -0.000248705 -6.70266e-05 )  
( 0.00177293 0.00166679 -0.00226724 )  
( 0.000345475 -0.00113266 0.00375918 )  
( -0.000762551 0.000107853 -0.000844944 )  
( -0.000472485 -0.000872076 0.00246718 )  
( -0.000550712 -0.00151519 0.00378921 )  
( 0.000169238 -0.000218203 -0.000120021 )  
( 0.0023835 -0.000592841 0.00309709 )  
( -0.00178483 -0.000408602 0.0031307 )  
( 0.000764017 -0.000743143 -0.00056136 )  
( -0.000694376 0.00035275 0.0034455 )  
( -0.000268403 -0.000526604 -0.000710626 )  
( 0.000163507 0.00361811 -0.00246999 )  
( 4.01641e-05 -0.00020059 0.00416005 )  
( 0.0013489 -0.0012989 0.0019552 )  
( -0.000491874 -0.000198738 0.00136867 )  
( 0.00039457 0.00120277 0.00189285 )  
( 0.00188791 0.00202279 0.00607819 )  
( 0.000797401 0.000813545 -8.40194e-05 )  
( -0.00148827 0.000880174 0.00301021 )  
( -7.51365e-05 -0.000119436 0.00359345 )  
( -0.000387084 0.000138739 0.00171371 )  
( -0.000263184 4.091e-06 7.72122e-05 )  
( -0.000366048 -0.00157956 0.00244545 )  
( 0.000867677 -0.00146209 0.004944 )  
( -0.000548039 -0.000511228 0.00338701 )  
( -0.00292674 -0.000229352 0.00100841 )  
( -0.000289286 0.00148542 0.00605706 )  
( 0.00219292 -0.000624878 -0.000551919 )  
( 0.00374509 0.0004008 0.00573384 )  
( -0.00024201 2.4792e-05 0.00225509 )  
( -0.000282471 -0.000693921 0.00251952 )  
( -0.000455257 -0.000770397 -0.000729946 )  
( -0.000742172 -0.00155726 0.00221099 )  
( 0.00097362 -0.00139046 0.00294465 )  
( -0.00123527 0.000521756 0.00114414 )  
( -0.00116204 -0.000580062 0.00486149 )  
( -0.00153033 0.00079738 0.00312399 )  
( -7.13617e-05 0.000179465 -0.000104818 )  
( 0.000809459 3.64946e-05 0.00432444 )  
( -0.000755927 -0.000278607 0.00337291 )  
( -0.00134251 -0.00203281 0.00931819 )  
( 0.00140282 0.000754698 0.00499045 )  
( 0.000628061 -0.0006145 0.00204633 )  
( 0.00173283 0.00029947 -0.000269136 )  
( -0.000922288 -0.000176836 -0.000890142 )  
( 0.000257561 -0.000543709 0.00218293 )  
( -0.000103869 -2.05223e-05 0.00357741 )  
( -0.000696903 -0.000587845 -0.000199099 )  
( -0.000248371 -0.000705983 0.00312437 )  
( 0.000307397 -0.00055474 0.00249569 )  
( -5.07778e-05 -0.000187531 0.00333791 )  
( 0.000533004 0.000159536 -0.000176421 )  
( -0.00203889 -0.00101092 0.00310149 )  
( 0.000471496 0.000452206 -0.000333786 )  
( -0.000821369 0.000906202 -4.4004e-06 )  
( 0.00145116 0.00169812 0.0080279 )  
( -0.00130974 0.00148587 -0.00112142 )  
( 0.0013667 -0.00265315 0.00382781 )  
( -0.000355109 -2.99697e-05 -0.000802931 )  
( 0.000227401 -0.000634986 0.00224887 )  
( -0.000635723 -0.000532477 0.000270644 )  
( -9.42227e-06 1.53153e-06 0.000150373 )  
( 3.06472e-05 0.000432417 2.2421e-05 )  
( 6.66857e-05 -0.000365696 0.000220195 )  
( 0.000319366 -0.000268475 0.00256797 )  
( -0.00173356 0.000723301 -0.000461672 )  
( -0.000796711 -0.000397039 0.00442363 )  
( 0.000213773 -7.16067e-05 0.00132441 )  
( -0.000319256 -0.00121742 0.00246456 )  
( -0.00135695 0.00150209 -0.00273619 )  
( 0.000293932 0.000669368 0.00055949 )  
( 0.000132657 0.000159865 0.00264145 )  
( -0.000362638 0.00100377 0.000217011 )  
( -0.000593219 -0.000301802 0.000173802 )  
( 0.000755124 0.000833057 0.00285898 )  
( -0.000100456 0.000316824 9.77093e-05 )  
( 5.4218e-05 0.0027641 0.00350379 )  
( -0.000182629 -0.000193856 0.00302692 )  
( 0.00145474 0.0010313 0.00187602 )  
( -0.000832225 0.000187096 0.00175217 )  
( -7.80202e-05 0.000457789 -0.00301697 )  
( -0.000144992 0.000438259 5.77064e-05 )  
( 0.000292347 -0.000206042 -0.00148046 )  
( -0.00116355 0.000240223 0.00068233 )  
( -0.00382549 0.000197377 0.0048179 )  
( -0.000247784 8.56291e-06 0.00350232 )  
( 0.000877686 0.00263407 0.00539753 )  
( -0.000237131 0.000258135 -0.000127523 )  
( -0.000753268 -0.000215446 4.43309e-06 )  
( -1.00893e-05 -7.55227e-05 0.00276604 )  
( 0.000945129 0.000737205 0.000907454 )  
( 0.0014441 -0.000183598 0.00189304 )  
( -8.13968e-05 9.64566e-05 -0.000219488 )  
( 0.00240746 -0.000224 0.00307232 )  
( 0.000104537 -0.00076945 0.00244659 )  
( -0.0011264 -0.000447821 0.00311798 )  
( -0.00111957 -0.00132797 0.00214102 )  
( -0.000727312 -0.000442939 -3.48222e-05 )  
( 0.00273799 0.00161002 -0.00229614 )  
( -0.000110716 -0.00141228 0.00307666 )  
( 0.00190592 0.00243092 0.00455019 )  
( -0.000544319 -0.000136351 0.00242443 )  
( -0.000152121 -0.00188402 -0.00221878 )  
( -5.4677e-05 -3.2212e-05 0.00264877 )  
( 0.00144096 7.93972e-05 -0.00194661 )  
( -0.000535359 0.00028418 0.000376858 )  
( -0.000144518 -0.000150875 1.9588e-05 )  
( 0.00090353 -0.000932042 0.00317569 )  
( -0.00054105 -0.000281689 0.00299957 )  
( -0.000361793 -0.000596458 0.00243642 )  
( 0.000101636 0.000826646 -0.000933911 )  
( -3.31108e-05 0.0018036 -0.00115533 )  
( 0.000326991 0.000581752 0.00261353 )  
( 0.000234199 0.000511516 -6.20019e-06 )  
( -0.000310308 -0.000432674 -8.43111e-05 )  
( 2.53427e-05 -3.44615e-05 -1.9977e-06 )  
( -0.000176322 -0.000449396 -0.000250431 )  
( -0.000913249 -0.00123767 0.00369373 )  
( -0.000189096 -0.000816908 -6.74157e-05 )  
( -2.3102e-05 0.000457293 -0.000484124 )  
( 0.000473225 -0.000876459 0.00246038 )  
( -0.000793638 -0.000660251 0.00365868 )  
( 0.00134067 -0.000440939 0.00312465 )  
( -0.000567883 -0.000140858 0.00367522 )  
( 0.000486624 -0.00142175 0.00269129 )  
( -0.000534295 0.000121788 0.000721649 )  
( -0.000165817 -0.000143345 -1.47259e-05 )  
( -0.00146968 -0.000390485 -0.00256341 )  
( -0.000110972 -0.000513645 1.75184e-05 )  
( -0.00203937 -0.00227073 0.00468077 )  
( 0.000787107 -0.00135409 0.00242793 )  
( 0.000512044 -0.00191602 0.00459626 )  
( -0.00116576 0.000591809 7.48128e-05 )  
( -0.000607033 0.000135916 -0.000499319 )  
( -0.00130966 0.000605077 0.00144911 )  
( 0.000220235 -0.00158491 -0.000248021 )  
( -0.00203449 0.000864662 0.00681779 )  
( -0.000137211 -6.39602e-05 -1.68007e-06 )  
( -0.000700309 -0.000483912 0.00341116 )  
( 0.000796612 1.9764e-05 0.00149785 )  
( 0.000428332 -0.000318228 -4.99571e-05 )  
( 0.00022119 0.000121348 -2.87258e-05 )  
( 0.000672489 4.25828e-05 0.00256791 )  
( -0.000113506 7.75681e-05 0.000179633 )  
( -0.000132102 6.58923e-05 0.00101978 )  
( 0.00160537 2.82564e-05 0.00102894 )  
( 0.000486092 -0.000261631 0.00345196 )  
( -5.25613e-05 -0.00122088 -0.000818046 )  
( -0.000915563 -7.72925e-05 0.00262001 )  
( -0.000822791 0.00114242 0.00205021 )  
( -0.000969569 -0.000147394 0.00350727 )  
( 0.00182249 -0.00274162 0.00251192 )  
( -0.000203745 3.38822e-05 0.000396214 )  
( -0.000576876 -0.00076411 0.0037563 )  
( 0.000620525 0.000348753 0.00271432 )  
( 0.000514432 0.000126833 0.0036423 )  
( 0.000178547 0.000428151 -4.04624e-05 )  
( 0.000323077 0.000632295 0.00274411 )  
( 0.00056262 -0.000971468 0.00315114 )  
( -0.000733093 -0.000577473 0.00303235 )  
( -4.10987e-05 -0.0010752 -0.00097049 )  
( -0.000116081 -0.000431106 0.00325286 )  
( -0.000140206 0.00107995 -0.000348868 )  
( -0.00026609 -0.000419057 0.000170934 )  
( 0.000117934 -0.000435153 -0.00111206 )  
( -0.000373727 0.000265001 0.00325317 )  
( -0.00110087 -0.000810396 0.00296761 )  
( 0.0012497 -0.00239736 0.00550169 )  
( -0.000950907 -0.000244965 0.00312346 )  
( -0.00193803 0.000156612 0.00358217 )  
( 0.000556779 -0.000729565 -0.000856018 )  
( 0.000886144 -0.000300972 0.000212249 )  
( -0.00028095 0.000542511 -0.00173111 )  
( 0.000633786 -0.000790568 0.00228127 )  
( -0.000677866 0.000635291 0.00570689 )  
( 0.000395236 0.000431158 0.00345532 )  
( -0.00037855 -0.00198291 0.002788 )  
( -0.000446036 -0.000412933 0.00107763 )  
( -0.000247743 -0.000904231 -0.000157664 )  
( 0.000106232 0.00024997 -1.36966e-05 )  
( -0.00170964 0.000716163 -0.00140397 )  
( 0.000224075 0.000709284 0.00387226 )  
( -0.00167271 -0.00213258 -0.00309747 )  
( 5.14446e-05 0.000351233 -4.38309e-05 )  
( -0.00123062 0.00144792 0.00321114 )  
( -0.000806854 -8.36264e-05 -5.4569e-05 )  
( -0.000218249 -0.0012384 0.00340384 )  
( -0.000846315 -0.000408841 0.00421384 )  
( 0.000461288 0.000550894 0.00192125 )  
( -0.000660075 -0.000242179 -0.000122681 )  
( -0.000108577 0.000153875 -0.000260655 )  
( -0.000781127 -0.000453592 0.00237019 )  
( 0.000987044 0.00153508 -0.00107903 )  
( 1.00269e-05 -0.000541734 0.00292794 )  
( -0.00130823 0.00135911 0.000653229 )  
( -0.000606675 -0.000421906 -0.00131608 )  
( 0.000167763 0.000334633 0.00305158 )  
( -0.000114549 0.000127036 -2.02293e-05 )  
( 0.000430629 9.70113e-05 4.75024e-06 )  
( 0.000175586 -0.000612311 0.00368967 )  
( 0.00197888 0.00104829 0.000557136 )  
( -0.000691495 0.000930385 0.00351832 )  
( -0.000477039 5.51627e-05 -0.000165076 )  
( 0.000419948 0.000195496 0.0023752 )  
( 0.00147014 0.00138802 0.0038349 )  
( -0.000923164 0.00042062 -4.14664e-05 )  
( 0.000820014 -5.52338e-05 0.00177887 )  
( -0.00429857 0.000141099 0.00442836 )  
( 0.000511696 -0.0016252 -0.000837569 )  
( 0.000196234 -3.8575e-05 0.00293575 )  
( -0.000762745 -0.000779792 0.00123215 )  
( -0.000759336 -0.000756428 0.00350444 )  
( 0.000984805 -0.000510394 0.000988781 )  
( 0.000451534 3.63626e-05 0.00249882 )  
( 0.0010033 -2.79684e-05 0.00226465 )  
( 0.000512622 0.000998375 -0.000228168 )  
( 0.000545511 0.00119027 -0.000739592 )  
( -0.000698916 -0.00111335 -1.67421e-05 )  
( -0.00157028 0.000561303 0.000132379 )  
( 0.000434523 -0.000162978 0.000260448 )  
( -0.00106133 -0.00229586 0.00313935 )  
( -0.000675473 -0.000502172 0.00454662 )  
( 0.00159958 0.000184178 0.00551994 )  
( 0.000731582 -0.000614732 0.00015728 )  
( 0.000402278 -0.000136123 0.00265039 )  
( 0.000357914 0.000119655 0.00179396 )  
( 0.00134075 -0.00191551 0.00270315 )  
( -0.00162312 -0.00189496 0.00255652 )  
( -0.0010036 0.000764264 0.000885429 )  
( -0.000545717 0.000149559 0.00233652 )  
( -0.000572947 -0.001076 0.00219189 )  
( -5.35082e-05 -7.21304e-05 3.65606e-05 )  
( -0.000670853 0.000267789 0.00223636 )  
( 0.000249533 0.0010268 -0.00215878 )  
( -0.000261382 -0.000253382 0.00446417 )  
( 0.000521942 -0.000989276 -0.000433671 )  
( -0.001979 0.000291489 0.00302866 )  
( 0.000709609 -0.000521735 -0.000390939 )  
( 0.000470423 0.000447003 0.00299347 )  
( -0.000203226 -1.9296e-05 0.0034611 )  
( 0.000333076 -0.000686992 0.0036722 )  
( -0.00204845 0.000625359 0.00290813 )  
( -0.000323143 0.000563496 0.000144514 )  
( -0.000493769 0.00203911 0.00735217 )  
( -0.000114463 0.000451153 2.14456e-05 )  
( -0.000224563 -0.000610873 0.00771449 )  
( -0.000352595 1.60749e-05 7.04669e-05 )  
( 0.000994843 -0.00251098 0.0018286 )  
( 0.00199074 -0.000299454 0.00231523 )  
( 0.00222901 0.00208246 0.00416277 )  
( 0.000136976 -3.59452e-05 0.00200663 )  
( 0.000211132 -0.00054766 0.00313314 )  
( 0.00114974 0.00134466 -0.000735858 )  
( -0.000851889 -0.000688313 0.0051505 )  
( 0.000112073 0.000309545 -0.000176816 )  
( 0.00180825 -0.00233262 1.15659e-05 )  
( 9.31709e-05 -0.000470919 0.00286071 )  
( 0.000327712 9.16946e-05 0.00170906 )  
( -0.000549434 -0.000197422 -0.00111227 )  
( 3.47933e-05 7.46299e-05 0.00134113 )  
( 0.000560116 0.000810421 0.00245799 )  
( -0.000297396 6.98675e-05 -1.08629e-05 )  
( -0.00168074 0.000124356 0.00071158 )  
( 5.82301e-05 -0.000142252 0.0019355 )  
( -0.000108016 -0.000841807 -0.00323895 )  
( 0.000945009 -0.00193296 0.00323402 )  
( -0.000938611 -0.000195221 -3.8722e-05 )  
( -0.0022895 -0.00182891 0.00412495 )  
( -0.000580077 -0.000336812 0.0024587 )  
( -0.000566216 0.000624253 -0.0017483 )  
( 3.96511e-06 0.000122024 1.05729e-05 )  
( -0.000364492 0.00172883 -0.000714576 )  
( -0.0037279 0.000554156 0.00270702 )  
( -0.00186678 -0.000373745 0.00305381 )  
( 0.000435696 0.000413642 -0.000223929 )  
( 6.052e-05 0.000193249 -1.06771e-05 )  
( -8.77739e-05 -0.00132512 0.00246854 )  
( -9.3123e-05 -0.000487506 -0.000403124 )  
( -0.000641559 0.00015671 0.00355529 )  
( 0.00131811 -0.000179175 0.00368549 )  
( 0.000511139 0.000176518 0.00149981 )  
( -0.000323844 0.000302454 -6.07705e-05 )  
( 0.000183709 -0.000227074 -6.67698e-06 )  
( -0.000282366 -0.000346275 7.84063e-05 )  
( -0.00215459 -0.000140894 -0.000118244 )  
( -0.00321215 -0.00118038 0.0044177 )  
( -0.00116018 -2.57414e-05 0.00248778 )  
( 0.000530695 -0.001416 0.00314351 )  
( 0.000722538 0.00227509 0.00317736 )  
( -0.000801836 0.000524456 -0.00246937 )  
( -0.000527697 -0.00086455 -0.00172866 )  
( -0.000108828 0.000272122 -0.000503015 )  
( -0.00016026 -0.000916803 0.00280782 )  
( -0.000105063 -5.10018e-05 0.00204017 )  
( -0.00204694 -0.00182968 -0.0044299 )  
( -0.000141245 -8.62356e-05 -1.53473e-05 )  
( 0.00122699 -0.000168913 0.00116194 )  
( -0.000209755 -0.000415938 0.00254961 )  
( -0.000887367 0.000407934 -0.00088348 )  
( -0.00014323 -0.000471868 0.000653179 )  
( -0.00227682 0.00218815 0.00597173 )  
( -0.000500314 -0.000572921 0.00225896 )  
( -0.00340896 0.000959163 0.000779827 )  
( 5.89118e-05 -0.000454888 0.00250826 )  
( -0.000105808 0.000493613 -0.000125437 )  
( 0.000937518 -0.00109965 0.00184817 )  
( 0.00163266 0.00386877 0.00467903 )  
( -0.00235876 0.000406763 -0.000335994 )  
( 0.000724184 -0.000585542 -0.00237748 )  
( 0.000214438 0.000949328 -0.00155283 )  
( -0.000917437 0.00111618 -0.000286627 )  
( -0.0010631 -0.000466537 0.00355291 )  
( 0.000139075 9.24882e-05 4.85958e-05 )  
( -0.000809887 -0.000907252 0.00373246 )  
( -0.000695274 0.00248063 -0.00158185 )  
( -2.73599e-05 -0.000725682 0.00244365 )  
( -0.000422024 -0.00025732 0.00203701 )  
( -0.00259422 -0.00107706 0.00584224 )  
( -0.00249355 0.00123882 0.00382068 )  
( -0.000811072 0.000616345 7.12178e-05 )  
( -0.00120271 -0.000399548 0.00277567 )  
( -0.000671448 -0.000756617 2.47167e-05 )  
( -0.00032985 0.000394448 -0.000326445 )  
( -0.0003378 -0.000694385 0.00275842 )  
( -0.000241178 0.000714893 0.000708918 )  
( 7.14603e-05 -0.000137463 0.00277348 )  
( -0.000341857 -4.79604e-05 2.87003e-05 )  
( -0.000733256 -0.000342773 -0.00186982 )  
( 0.000726253 0.000652279 -0.00076948 )  
( 0.00646843 0.00378965 0.0110812 )  
( -2.95662e-05 0.00116887 0.000190861 )  
( -0.000205403 2.7534e-05 -1.32265e-05 )  
( -0.00452194 0.00344778 0.00272589 )  
( 0.000136991 0.000190825 -6.61951e-05 )  
( 6.49026e-05 0.000226425 -0.000892903 )  
( 0.000224444 -0.00129039 0.00200533 )  
( -1.62757e-05 -0.00138058 0.00366044 )  
( -0.000765246 -3.40552e-06 -0.000550839 )  
( 0.000959202 0.000348683 0.000485506 )  
( 0.000259425 0.000349746 0.000363214 )  
( 0.00016777 0.00036089 -4.79158e-05 )  
( -0.000815182 0.000605234 0.000744195 )  
( -0.00461239 0.00594965 0.007448 )  
( -0.000289283 -0.000632158 0.00303139 )  
( 0.000527095 0.000656187 0.000739887 )  
( -0.00127689 0.000359816 0.00364518 )  
( 4.23647e-05 -4.07726e-05 0.00194458 )  
( 0.000266585 0.00268876 0.00183925 )  
( -0.00344765 -0.00190412 0.0216991 )  
( 0.000406519 -0.000135676 0.00246675 )  
( -2.57748e-07 0.00028917 -0.000137398 )  
( 0.000217713 -0.000394429 0.00396419 )  
( 0.00068896 -0.000567309 0.00254467 )  
( 0.000869012 -0.00123622 0.00282633 )  
( -0.000677759 -0.000737482 -0.000116797 )  
( -0.000519928 0.000416156 0.00162278 )  
( -0.000288461 -0.00166994 0.00252822 )  
( -0.0003051 0.000825422 -1.96523e-05 )  
( 0.000156574 -0.00055988 0.00039617 )  
( -0.000581517 0.000520069 -6.6025e-05 )  
( 0.000365773 -0.000613442 1.63339e-05 )  
( 0.000330985 0.000344437 -0.000565243 )  
( -0.000656121 -0.000369292 0.00435369 )  
( -0.000203663 -0.000884397 0.00225036 )  
( 0.000250249 -0.000213893 0.0029492 )  
( 0.00122256 0.000660819 0.00339463 )  
( 0.00232303 -0.00223897 0.00561332 )  
( -0.000158575 0.000441629 0.00219913 )  
( 0.000173011 0.000115115 -0.000102243 )  
( -0.000222337 0.00134389 0.00175715 )  
( 0.000203143 -0.000780932 0.00173934 )  
( 0.00048418 -0.00119699 0.00554065 )  
( -0.00129012 0.00168849 0.00116202 )  
( -0.001816 -0.000744982 0.00268757 )  
( 0.00124314 0.000529592 -4.58286e-06 )  
( -0.000766932 -0.00108095 0.00284576 )  
( -0.000644547 -0.000116078 -0.00136604 )  
( 0.000373728 -0.000804527 0.00233825 )  
( -0.00018073 -0.000134159 -4.57187e-05 )  
( 0.00138309 0.000778684 0.00156435 )  
( 0.00012869 -0.00184191 0.0032228 )  
( -0.00114114 -0.00182749 0.00202515 )  
( -0.000122844 -0.00035339 -8.6616e-06 )  
( -0.00136033 -0.00143861 0.00478713 )  
( -0.000214524 3.432e-06 0.00408605 )  
( -0.00100826 -0.000300798 0.00272203 )  
( -0.000213627 -0.000622978 -0.000885492 )  
( 3.99462e-05 -0.000782497 0.00337656 )  
( 1.13952e-05 0.000222378 -0.000294273 )  
( 4.14583e-05 2.21803e-05 -1.34422e-05 )  
( -0.00151545 -0.000327843 0.00398227 )  
( 1.6718e-05 6.69124e-05 -4.39767e-06 )  
( -0.000622954 -0.00041896 0.00294285 )  
( 0.000158646 -0.00161916 0.00299038 )  
( -0.000897505 -0.00402079 0.00425632 )  
( 0.00221171 -0.00161173 0.00387854 )  
( -0.00137155 0.00107115 -0.00170517 )  
( 0.000690732 -0.000236879 0.00307631 )  
( -0.000782973 0.000910026 0.00179893 )  
( -0.00173311 0.00148444 0.00396269 )  
( 1.92727e-05 0.000420117 -0.000576819 )  
( -0.0016758 8.08662e-05 0.000971168 )  
( 0.00131465 -0.000343342 0.00291522 )  
( 0.000556735 -0.00112853 0.0052203 )  
( -0.000587941 0.000985605 -0.000218251 )  
( -0.000322866 6.46477e-05 -0.000246329 )  
( 0.00134154 0.00270581 -0.00487841 )  
( 0.000744924 -0.00113837 0.00128312 )  
( -6.1116e-05 5.5237e-06 4.91533e-05 )  
( -3.09135e-05 0.000520264 0.00287837 )  
( 0.000712599 -0.00110287 0.0014504 )  
( 0.000382706 -8.06339e-05 -0.000538826 )  
( 0.000243731 0.000179816 -3.80767e-05 )  
( -0.00131809 -0.000848589 -3.21613e-05 )  
( -0.00239284 -0.000306117 0.0044404 )  
( -0.000556686 -0.000512043 0.00147122 )  
( 0.000320359 0.000957066 0.00321966 )  
( -0.000653031 -0.000209445 -0.000580792 )  
( -3.9349e-05 -0.000351032 -8.66908e-05 )  
( -0.000618241 -2.47946e-05 1.68569e-05 )  
( 0.000100403 0.000192323 0.00213448 )  
( -0.000144083 -0.000358064 0.00263413 )  
( 0.00138941 -0.00299065 0.00115824 )  
( -0.00225206 -0.000320343 5.38488e-06 )  
( -0.00116016 0.000432856 0.00306104 )  
( -0.00239221 0.000168671 -0.000426862 )  
( -0.000437825 -0.00077752 0.00322376 )  
( 0.000456295 -0.00126269 0.00239299 )  
( -0.000683195 0.00107461 2.47823e-07 )  
( 7.04511e-05 0.000427148 -0.000426174 )  
( -0.00197768 -0.00100992 0.00439812 )  
( 7.70015e-05 0.000859582 0.00312089 )  
( -0.000515151 0.000332595 0.000293255 )  
( -0.000519282 0.00133263 0.000505749 )  
( -0.000730786 -0.00149896 0.00373878 )  
( 0.000453502 3.4166e-05 0.00221058 )  
( -0.000952544 -3.29417e-05 0.00281379 )  
( -0.000750591 0.00020063 0.000178122 )  
( -0.000485608 0.000333857 0.000929518 )  
( -0.00048615 -0.000338158 0.00284518 )  
( -0.00115136 0.000270275 -0.000118625 )  
( -0.000163959 -0.000673044 3.86192e-05 )  
( -0.000218183 -0.000814788 2.11444e-05 )  
( 0.000443076 -0.000100845 0.00364142 )  
( 0.000918369 -0.000864028 0.00413727 )  
( -0.00136647 0.000354347 0.00407741 )  
( -0.000228362 -3.868e-05 -0.000229223 )  
( 0.000908218 0.000386956 0.00252494 )  
( 0.000461484 -0.000706605 0.00256875 )  
( -0.00229689 0.0016071 -0.000565286 )  
( 0.00056731 0.00207354 0.00201754 )  
( -0.000616664 -0.000311236 0.0036936 )  
( -0.00045956 0.00066288 0.00204356 )  
( -0.00186987 -0.000815788 -0.000734188 )  
( 8.90289e-05 -0.00057271 0.000143077 )  
( -0.000144555 2.24757e-05 8.87662e-05 )  
( -0.000602136 -0.000717029 0.00254309 )  
( 0.0019459 -0.000773165 0.01084 )  
( -0.000284818 -0.000294415 0.000302038 )  
( -0.0010633 0.000297152 0.000449363 )  
( -0.000369799 0.000320544 0.000253663 )  
( -0.000283516 -0.000293056 0.00356443 )  
( 0.000893167 -0.00131973 0.00303283 )  
( -0.000517262 8.83679e-05 0.00339941 )  
( -0.0019486 -3.51773e-05 -9.91476e-05 )  
( -0.000275563 0.00047311 0.00293607 )  
( 0.00208476 -0.000537015 0.0023146 )  
( -0.00127227 0.000232614 0.00169905 )  
( -0.00183801 -0.000153764 0.00220655 )  
( 0.00109991 -0.000467756 0.00383612 )  
( -0.000388285 -0.000461376 0.00360078 )  
( -6.26375e-05 4.9684e-06 0.0023921 )  
( 0.000267313 0.000397801 -0.000504523 )  
( -0.00155334 -0.00118218 0.00385768 )  
( -0.00060042 -0.00114214 0.00252562 )  
( 0.000193886 0.000148531 -1.52458e-05 )  
( 0.000102763 -0.000642399 0.00170041 )  
( 0.000584662 -2.1724e-05 -4.34311e-05 )  
( 0.000214646 -0.000288096 0.00282076 )  
( -0.00084304 -7.17584e-05 0.000456275 )  
( -0.00189568 -8.76006e-06 0.00219951 )  
( 0.000889143 0.00146485 0.00408755 )  
( 0.000763814 -1.59347e-05 0.00473956 )  
( -0.000430864 -7.69013e-06 -8.63953e-05 )  
( 0.00140122 -0.000470347 0.00318719 )  
( 0.000742783 0.00155251 0.0042428 )  
( -0.000158056 -0.000882509 0.00403587 )  
( -0.000951796 0.00160919 0.00464892 )  
( -9.23846e-05 -9.88374e-05 0.000521886 )  
( -0.00155241 0.000239961 -0.00132929 )  
( -0.00304702 0.000618137 0.000621083 )  
( -0.00204148 0.000522694 0.00408009 )  
( 0.000562807 0.00187389 0.00234887 )  
( 0.00178036 0.000609494 0.00175185 )  
( 0.000310303 -0.000363316 0.00235708 )  
( 2.82261e-05 -0.0001696 -0.000117062 )  
( -0.00171408 -0.000442374 0.0026847 )  
( -0.000180766 0.000474411 0.00106895 )  
( 6.58298e-05 0.00098935 0.00143333 )  
( 0.000715336 -0.000411391 0.00461972 )  
( -0.000572235 -0.00208394 -0.000203011 )  
( -0.000588499 5.12783e-06 0.000227229 )  
( -0.000435439 0.00100568 0.0022474 )  
( -0.00238041 -0.00128422 0.00514985 )  
( 1.64756e-05 1.99599e-05 5.28648e-05 )  
( -4.47808e-05 0.000295982 -0.00038776 )  
( -0.000561554 -0.000245668 0.00430249 )  
( -0.00349763 0.000869135 -0.00109498 )  
( 1.73854e-05 -0.00105523 -4.01041e-05 )  
( 0.000382946 0.0015815 0.00397111 )  
( 9.21353e-05 0.000130721 2.70513e-05 )  
( -0.000403318 0.000594756 0.00368079 )  
( -0.00106567 -0.000188377 0.00282099 )  
( -0.0007122 -0.00239042 0.00570658 )  
( 0.000754635 0.000667231 0.00260147 )  
( -0.000354247 -0.00108224 0.000141609 )  
( -0.000356018 0.000674178 0.00193735 )  
( 0.000801357 0.000735733 -0.000413411 )  
( 0.000391088 -0.000182473 -0.000166782 )  
( 0.000253514 -0.000555118 0.0026576 )  
( -0.000195111 -0.00159947 0.00271359 )  
( 0.000227562 0.000150167 -8.1414e-05 )  
( -0.000828306 -0.000655478 9.79595e-05 )  
( -0.000164727 0.000155984 0.00212354 )  
( -0.000235794 -0.000134487 -4.34655e-05 )  
( 0.000224746 0.000252308 0.00429233 )  
( 0.000463439 0.000606232 1.27138e-05 )  
( -0.000218124 0.000153484 -3.78333e-05 )  
( -0.00149995 -0.000304351 0.00312656 )  
( 2.24722e-06 -0.000222997 0.00265754 )  
( -5.87645e-05 -2.14393e-05 0.000168379 )  
( -0.00010146 0.000233099 -0.000857684 )  
( 0.000585995 0.00014363 0.00309348 )  
( -2.07346e-06 0.000161385 1.5245e-05 )  
( -0.000928077 0.000228563 0.00314312 )  
( -0.00142868 -0.000629187 -0.000142559 )  
( -1.07369e-05 5.45789e-05 3.2984e-05 )  
( 0.000323964 -5.98615e-05 0.000176443 )  
( 0.000159516 -0.000235321 0.000209754 )  
( -0.00135748 -0.00028934 0.00694815 )  
( 0.00066892 -0.000606527 -0.00102404 )  
( -0.000927123 -0.000135468 -0.00093038 )  
( 0.000205786 0.000508165 0.00165547 )  
( -0.000581925 0.000855495 0.000344626 )  
( -0.0012456 0.00166876 -0.00145045 )  
( 1.76477e-05 0.000224182 -5.39797e-07 )  
( -0.000108442 -0.000336141 -1.57746e-05 )  
( -0.00178899 0.000625751 -0.00122564 )  
( 0.000246592 -3.82159e-05 0.00213158 )  
( -0.000109351 -0.000188508 0.00010392 )  
( 2.70425e-05 0.00045286 0.000452246 )  
( 0.000396426 -0.00192144 0.00316776 )  
( -0.000501221 0.000172397 0.00196848 )  
( 3.45306e-05 7.81084e-05 4.54441e-06 )  
( 0.000684745 0.00100231 -3.75018e-05 )  
( 0.000371056 -3.07934e-05 0.00432744 )  
( 0.000162406 0.000361389 0.000571607 )  
( 0.000471973 -0.000676648 0.00235284 )  
( 0.00120415 0.00102591 -0.000482315 )  
( 0.000359201 0.000639947 0.00325853 )  
( -0.000376319 -0.00177661 0.00367059 )  
( -0.000806918 0.000114889 0.00361841 )  
( 3.87532e-05 3.464e-05 -8.81409e-06 )  
( -0.000290764 -0.000199424 0.00312896 )  
( -6.83233e-05 -0.000148273 5.48397e-05 )  
( 0.000208185 -0.000369589 0.00248471 )  
( -0.000310911 9.7767e-05 -0.000222968 )  
( 0.00115379 0.000342578 0.0049028 )  
( -0.000549237 -0.00238845 0.00206979 )  
( -1.40156e-05 1.25442e-06 1.39592e-05 )  
( -0.00115704 -0.000472467 -0.000321254 )  
( -0.000444919 0.000455402 0.00229114 )  
( 0.00063779 -0.000126563 0.00038911 )  
( -0.000344323 -0.000907356 0.00478042 )  
( 0.000764268 -0.00131991 0.0045634 )  
( -0.00171855 -0.00258387 0.00373063 )  
( 0.000458524 8.49356e-05 0.00268543 )  
( -0.00210232 0.0019749 0.00438386 )  
( -0.000434133 0.000504731 0.00345947 )  
( 0.000497328 -0.000974632 -0.000537688 )  
( -0.000865639 -0.0004378 0.000537939 )  
( -0.000393571 0.00247758 0.00344245 )  
( -0.00307228 0.00132569 0.000194211 )  
( 2.05914e-06 0.000323065 9.71056e-06 )  
( 4.81838e-05 -0.000164972 0.00387856 )  
( 0.000596534 0.000199505 5.14811e-05 )  
( 0.000606462 -0.00047206 -2.89549e-05 )  
( -0.00124041 -0.000185678 0.0023431 )  
( -0.000182403 -0.000327098 0.00305237 )  
( -0.000368129 0.000574672 -0.000567911 )  
( 0.000360591 0.00012831 -8.21862e-05 )  
( 0.00110411 -0.000335298 0.00159321 )  