/*--------------------------------*- C++ -*----------------------------------*\
| =========                 |                                                 |
| \\      /  F ield         | OpenFOAM: The Open Source CFD Toolbox           |
|  \\    /   O peration     | Version:  2506                                  |
|   \\  /    A nd           | Website:  www.openfoam.com                      |
|    \\/     M anipulation  |                                                 |
\*---------------------------------------------------------------------------*/
FoamFile
{
    version     2.0;
    format      ascii;
    arch        "LSB;label=32;scalar=64";
    class       volScalarField;
    location    "0.04";
    object      p;
}
// * * * * * * * * * * * * * * * * * * * * * * * * * * * * * * * * * * * * * //

dimensions      [0 2 -2 0 0 0 0];

internalField   nonuniform List<scalar> 
1152
(
13.0574
13.1421
12.9232
13.1564
13.1797
13.2587
13.2602
13.2822
13.3652
13.2631
13.3145
13.287
13.3112
13.3527
13.2316
13.2113
12.0912
11.8674
11.7728
11.3492
12.2313
11.8359
11.7867
11.7285
11.6521
11.7267
11.7667
11.7561
11.5683
11.7135
11.6833
11.5796
10.1637
9.7826
9.87146
9.53405
9.55003
9.57889
9.42878
9.35554
9.3535
9.47598
9.28064
9.09406
9.24515
9.20933
9.35056
9.13592
7.0178
6.33814
6.77303
7.0919
6.73143
6.78255
6.4486
6.49997
6.72246
6.67085
6.54665
6.36522
6.57743
6.5772
6.5759
6.49295
3.85991
4.00465
4.04342
3.79211
3.86507
3.92082
3.92319
3.88084
4.16838
4.17636
3.99389
4.01553
3.88762
4.10129
4.02197
4.09089
2.06251
1.97361
1.6763
1.46115
1.84056
1.60539
1.46138
1.25087
1.71427
1.63034
1.52793
1.42088
1.82125
1.41293
1.66978
1.71863
1.01134
1.0187
1.01036
1.01788
1.02335
1.02224
1.02134
1.01886
1.01494
1.01136
1.01683
1.02117
0.976304
0.99643
1.01026
1.02695
1.00304
1.00455
1.00455
1.00459
1.00467
1.00512
1.00552
1.00537
1.00511
1.00446
1.00461
1.00493
1.00731
1.00349
1.00321
1.00422
1.00766
1.00805
1.00812
1.00828
1.00864
1.00856
1.00855
1.00845
1.00809
1.0078
1.00793
1.00839
1.0072
1.00681
1.00712
1.00803
1.00603
1.00605
1.0061
1.00612
1.00613
1.00609
1.0061
1.00607
1.00587
1.00576
1.00577
1.00589
1.00537
1.00527
1.00531
1.00555
1.00607
1.006
1.00597
1.00594
1.00597
1.00591
1.00588
1.00585
1.00578
1.00571
1.00569
1.00572
1.00551
1.00545
1.00545
1.00553
1.00562
1.00555
1.0055
1.00546
1.0055
1.00545
1.0054
1.00537
1.00537
1.00531
1.00527
1.00527
1.0052
1.00515
1.00512
1.00513
1.00517
1.00512
1.00508
1.00504
1.00508
1.00504
1.005
1.00497
1.00499
1.00494
1.00491
1.00489
1.00488
1.00484
1.00481
1.00481
1.00473
1.00469
1.00465
1.00462
1.00466
1.00462
1.00459
1.00457
1.00459
1.00456
1.00453
1.00451
1.00452
1.00449
1.00447
1.00445
1.00428
1.00425
1.00422
1.0042
1.00423
1.0042
1.00418
1.00416
1.00418
1.00416
1.00413
1.00412
1.00414
1.00411
1.00409
1.00408
1.00383
1.00381
1.00379
1.00377
1.0038
1.00378
1.00376
1.00374
1.00376
1.00374
1.00373
1.00371
1.00373
1.00371
1.0037
1.00369
1.00338
1.00337
1.00335
1.00334
1.00336
1.00334
1.00333
1.00332
1.00334
1.00332
1.00331
1.0033
1.00331
1.0033
1.00329
1.00328
1.00294
1.00292
1.00291
1.0029
1.00292
1.00291
1.00289
1.00289
1.0029
1.00289
1.00288
1.00287
1.00288
1.00287
1.00286
1.00286
1.00248
1.00248
1.00247
1.00246
1.00247
1.00246
1.00246
1.00245
1.00246
1.00245
1.00244
1.00244
1.00245
1.00244
1.00243
1.00243
1.00203
1.00203
1.00202
1.00202
1.00202
1.00202
1.00201
1.00201
1.00202
1.00201
1.002
1.002
1.00201
1.002
1.002
1.00199
1.00158
1.00158
1.00157
1.00157
1.00158
1.00157
1.00157
1.00156
1.00157
1.00157
1.00156
1.00156
1.00156
1.00156
1.00156
1.00155
1.00113
1.00113
1.00112
1.00112
1.00113
1.00112
1.00112
1.00112
1.00112
1.00112
1.00112
1.00112
1.00112
1.00112
1.00111
1.00111
1.00068
1.00068
1.00067
1.00067
1.00068
1.00067
1.00067
1.00067
1.00067
1.00067
1.00067
1.00067
1.00067
1.00067
1.00067
1.00067
1.00023
1.00023
1.00023
1.00022
1.00023
1.00022
1.00022
1.00022
1.00022
1.00022
1.00022
1.00022
1.00022
1.00022
1.00022
1.00022
13.2759
13.335
13.1763
13.1602
13.3324
13.3644
13.1869
13.1012
13.2201
13.2028
13.0815
12.9814
13.2783
13.209
13.0835
12.9278
11.7536
11.5993
11.7875
11.5802
11.6289
11.4418
11.6982
11.4035
11.6875
11.547
11.4953
11.4871
11.5047
11.4331
11.5932
11.4302
9.25923
9.02052
9.2673
9.13903
9.16144
9.09175
9.02731
8.99409
8.99428
9.18947
9.17658
9.23467
9.43047
9.38909
9.19634
9.28724
6.35584
6.36687
6.51671
6.6228
6.1215
6.47773
6.54584
6.68122
6.26554
6.19223
6.53744
6.72847
6.37332
6.55983
6.57946
6.79241
3.67888
3.98659
3.93709
4.14121
3.82111
3.82199
4.03648
4.13941
3.85542
3.79521
3.92789
4.11075
3.72887
3.74281
3.85074
4.17617
1.80434
1.68479
1.61269
1.35819
1.76612
1.51137
1.42147
1.55411
1.20672
1.39613
1.49298
1.42407
1.21654
1.315
1.42564
1.49974
0.999214
1.01209
1.00954
1.01567
0.93775
1.00167
1.01466
1.01319
0.985379
1.00725
1.01419
1.01211
0.992574
1.0028
1.01101
1.0163
0.999577
1.0006
1.00178
1.00347
0.99058
0.996868
1.00115
1.00315
0.992483
0.996342
1.00087
1.00304
0.993589
0.996653
1.00076
1.00297
1.00583
1.00587
1.00649
1.00747
1.00554
1.00498
1.00623
1.00726
1.00461
1.0046
1.00603
1.00716
1.00355
1.00405
1.00583
1.00725
1.00484
1.00476
1.00491
1.00521
1.00448
1.00434
1.00469
1.0051
1.00409
1.00406
1.00453
1.00504
1.00361
1.00372
1.00432
1.00495
1.00523
1.00518
1.00524
1.0054
1.00498
1.00494
1.00509
1.00533
1.00477
1.00476
1.00498
1.00529
1.00461
1.00465
1.00492
1.00529
1.00504
1.00499
1.00499
1.00503
1.00489
1.00485
1.00489
1.00498
1.00477
1.00475
1.00482
1.00495
1.00469
1.00468
1.00477
1.00493
1.00478
1.00474
1.00473
1.00475
1.00469
1.00466
1.00467
1.00472
1.00462
1.00459
1.00462
1.00469
1.00457
1.00456
1.0046
1.00468
1.00446
1.00442
1.00441
1.00441
1.0044
1.00437
1.00437
1.00439
1.00435
1.00433
1.00434
1.00438
1.00433
1.00431
1.00433
1.00437
1.00409
1.00407
1.00406
1.00405
1.00405
1.00403
1.00403
1.00404
1.00403
1.00401
1.00401
1.00403
1.00401
1.004
1.004
1.00402
1.0037
1.00368
1.00367
1.00367
1.00368
1.00366
1.00365
1.00366
1.00366
1.00364
1.00364
1.00365
1.00365
1.00363
1.00363
1.00364
1.00329
1.00328
1.00327
1.00326
1.00327
1.00326
1.00326
1.00326
1.00326
1.00325
1.00325
1.00325
1.00326
1.00324
1.00324
1.00325
1.00287
1.00286
1.00285
1.00285
1.00286
1.00285
1.00284
1.00284
1.00285
1.00284
1.00284
1.00284
1.00284
1.00284
1.00283
1.00284
1.00244
1.00243
1.00243
1.00242
1.00243
1.00242
1.00242
1.00242
1.00242
1.00242
1.00241
1.00242
1.00242
1.00241
1.00241
1.00241
1.002
1.002
1.00199
1.00199
1.002
1.00199
1.00199
1.00199
1.00199
1.00199
1.00198
1.00198
1.00199
1.00198
1.00198
1.00198
1.00156
1.00156
1.00155
1.00155
1.00156
1.00155
1.00155
1.00155
1.00155
1.00155
1.00155
1.00155
1.00155
1.00155
1.00155
1.00155
1.00112
1.00111
1.00111
1.00111
1.00111
1.00111
1.00111
1.00111
1.00111
1.00111
1.00111
1.00111
1.00111
1.00111
1.00111
1.00111
1.00067
1.00067
1.00067
1.00067
1.00067
1.00067
1.00067
1.00067
1.00067
1.00067
1.00067
1.00067
1.00067
1.00067
1.00067
1.00067
1.00022
1.00022
1.00022
1.00022
1.00022
1.00022
1.00022
1.00022
1.00022
1.00022
1.00022
1.00022
1.00022
1.00022
1.00022
1.00022
13.1668
13.1509
13.086
12.9767
13.3
13.1943
13.1495
13.1494
13.329
13.2414
13.1796
13.1059
13.1737
13.1998
13.0853
13.0243
11.763
11.8125
11.3772
11.2806
11.5362
11.4178
11.4058
11.3945
11.4842
11.4356
11.5771
11.4892
11.4808
11.575
11.6136
11.566
9.13457
8.81441
8.98316
8.83341
9.10771
8.95706
9.02432
8.78341
9.07371
8.86421
8.83256
8.7523
9.12888
9.06345
9.191
9.28912
6.48109
6.43125
6.45614
6.53589
6.67945
6.62424
6.44258
6.49779
6.5582
6.51526
6.55178
6.55969
6.61771
6.35928
6.50932
6.62969
3.81169
3.89752
3.77574
4.16848
3.76598
3.90493
3.87672
4.00326
4.09271
4.00911
4.05923
4.30775
4.1209
4.0954
4.08104
4.03457
1.47036
1.34749
1.46445
1.5426
1.3381
1.44313
1.26383
1.41731
1.35942
1.54647
1.55776
1.71756
1.94154
1.80508
1.6956
1.79342
1.01661
1.01091
1.011
1.00677
1.01586
1.01167
1.01495
1.00944
1.01681
1.02031
1.01483
1.01631
1.01123
1.00407
1.01454
1.01509
1.00392
1.0029
1.00183
1.001
1.00436
1.00349
1.00352
1.00247
1.00401
1.00377
1.00335
1.0029
1.00258
1.00311
1.00322
1.00293
1.00794
1.00745
1.00713
1.0068
1.008
1.00766
1.00765
1.00739
1.00814
1.00809
1.00796
1.00801
1.0075
1.00736
1.00757
1.00774
1.00595
1.00575
1.00561
1.00539
1.00588
1.00575
1.00571
1.00554
1.00574
1.00569
1.00561
1.00553
1.00537
1.00531
1.00531
1.00528
1.00584
1.00574
1.00566
1.00561
1.00577
1.00571
1.00567
1.00565
1.00568
1.00565
1.00563
1.00565
1.00553
1.0055
1.00549
1.00552
1.0054
1.00535
1.0053
1.00527
1.00533
1.00529
1.00526
1.00524
1.00523
1.00521
1.00519
1.00518
1.00511
1.00509
1.00507
1.00506
1.005
1.00497
1.00494
1.00493
1.00494
1.00491
1.0049
1.00489
1.00487
1.00485
1.00484
1.00483
1.0048
1.00478
1.00477
1.00476
1.0046
1.00457
1.00456
1.00455
1.00455
1.00453
1.00451
1.00451
1.00449
1.00448
1.00447
1.00446
1.00444
1.00443
1.00442
1.00441
1.00418
1.00417
1.00415
1.00415
1.00414
1.00413
1.00412
1.00412
1.0041
1.00409
1.00408
1.00408
1.00407
1.00406
1.00405
1.00405
1.00376
1.00375
1.00374
1.00374
1.00373
1.00372
1.00371
1.00371
1.0037
1.00369
1.00369
1.00368
1.00368
1.00367
1.00366
1.00366
1.00333
1.00332
1.00331
1.00331
1.00331
1.0033
1.00329
1.00329
1.00329
1.00328
1.00328
1.00327
1.00327
1.00327
1.00326
1.00326
1.00289
1.00289
1.00288
1.00288
1.00288
1.00287
1.00287
1.00287
1.00286
1.00286
1.00286
1.00285
1.00285
1.00285
1.00285
1.00284
1.00245
1.00245
1.00245
1.00245
1.00244
1.00244
1.00244
1.00243
1.00243
1.00243
1.00243
1.00243
1.00243
1.00242
1.00242
1.00242
1.00201
1.00201
1.00201
1.00201
1.002
1.002
1.002
1.002
1.002
1.00199
1.00199
1.00199
1.00199
1.00199
1.00199
1.00199
1.00157
1.00156
1.00156
1.00156
1.00156
1.00156
1.00156
1.00156
1.00156
1.00155
1.00155
1.00155
1.00155
1.00155
1.00155
1.00155
1.00112
1.00112
1.00112
1.00112
1.00112
1.00112
1.00111
1.00111
1.00111
1.00111
1.00111
1.00111
1.00111
1.00111
1.00111
1.00111
1.00067
1.00067
1.00067
1.00067
1.00067
1.00067
1.00067
1.00067
1.00067
1.00067
1.00067
1.00067
1.00067
1.00067
1.00067
1.00067
1.00022
1.00022
1.00022
1.00022
1.00022
1.00022
1.00022
1.00022
1.00022
1.00022
1.00022
1.00022
1.00022
1.00022
1.00022
1.00022
)
;

boundaryField
{
    inlet
    {
        type            zeroGradient;
    }
    outlet
    {
        type            fixedValue;
        value           uniform 1;
    }
    wall
    {
        type            zeroGradient;
    }
    procBoundary3to1
    {
        type            processor;
        value           nonuniform List<scalar> 
192
(
13.207
12.9463
12.465
12.8272
11.7828
11.8607
11.7135
11.4604
9.55387
9.8598
11.1384
9.66617
6.98551
6.8565
6.93145
6.62989
4.51273
4.33074
3.99511
3.79992
2.13102
1.69656
1.31213
1.37451
0.96242
1.00815
1.02551
1.01819
0.997658
1.003
1.00612
1.00464
1.0088
1.008
1.00903
1.00844
1.00632
1.00618
1.00641
1.00626
1.00625
1.00615
1.00612
1.00604
1.00573
1.00566
1.0056
1.00555
1.00525
1.0052
1.00515
1.00511
1.00479
1.00474
1.00471
1.00468
1.00432
1.00429
1.00426
1.00424
1.00386
1.00384
1.00382
1.0038
1.00341
1.00339
1.00338
1.00336
1.00295
1.00294
1.00293
1.00292
1.0025
1.00249
1.00248
1.00247
1.00204
1.00204
1.00203
1.00202
1.00159
1.00158
1.00158
1.00158
1.00113
1.00113
1.00113
1.00113
1.00068
1.00068
1.00068
1.00068
1.00023
1.00023
1.00023
1.00023
13.1572
13.1359
13.0706
13.0584
11.2355
11.6272
11.6132
11.1469
8.92843
8.90201
8.9788
8.74415
6.62691
6.41257
6.18912
6.40968
3.92682
3.80643
3.81231
3.94984
1.33254
1.34706
1.14231
1.29896
1.01221
1.00923
1.0038
1.0024
1.00378
1.00257
1.0016
1.0009
1.00783
1.0073
1.00688
1.00675
1.00603
1.00583
1.00567
1.00555
1.00593
1.00583
1.00575
1.00572
1.00549
1.00543
1.0054
1.00537
1.00507
1.00504
1.00502
1.00501
1.00465
1.00463
1.00461
1.00461
1.00422
1.00421
1.0042
1.00419
1.00379
1.00378
1.00377
1.00377
1.00335
1.00334
1.00334
1.00334
1.00291
1.0029
1.0029
1.0029
1.00247
1.00246
1.00246
1.00246
1.00202
1.00202
1.00202
1.00201
1.00157
1.00157
1.00157
1.00157
1.00112
1.00112
1.00112
1.00112
1.00067
1.00067
1.00067
1.00067
1.00022
1.00022
1.00022
1.00022
)
;
    }
    procBoundary3to2
    {
        type            processor;
        value           nonuniform List<scalar> 
192
(
12.9421
13.3304
13.2763
13.3442
10.8244
11.675
11.9737
11.9153
10.0374
9.60895
9.4136
9.23863
6.97461
6.93529
6.62667
6.69744
4.28856
4.20894
4.21295
4.07859
1.82905
1.76318
1.82622
1.61669
1.01561
1.01386
1.02
1.00823
1.00315
1.00423
1.00453
1.0033
1.00887
1.0085
1.00836
1.00733
1.00637
1.00622
1.00603
1.00558
1.00622
1.00607
1.0059
1.00565
1.00571
1.00559
1.00545
1.0053
1.00524
1.00515
1.00505
1.00495
1.00477
1.00471
1.00464
1.00457
1.00431
1.00427
1.00422
1.00417
1.00386
1.00382
1.00379
1.00376
1.0034
1.00338
1.00335
1.00333
1.00295
1.00293
1.00291
1.0029
1.0025
1.00248
1.00247
1.00246
1.00204
1.00203
1.00202
1.00201
1.00159
1.00158
1.00157
1.00157
1.00113
1.00113
1.00113
1.00112
1.00068
1.00068
1.00068
1.00067
1.00023
1.00023
1.00023
1.00022
13.3587
13.3498
13.2937
13.2997
11.3067
11.3884
11.7181
11.6943
9.01336
9.00665
9.00134
8.76628
6.75462
6.76441
6.2618
6.23579
4.13057
3.65086
3.81903
3.45214
1.46243
1.52483
1.23334
1.25113
1.01582
1.00445
1.00292
1.00485
1.00074
0.997802
0.995134
0.996675
1.00654
1.00619
1.00666
1.00567
1.00512
1.00475
1.0045
1.00427
1.00539
1.00517
1.00501
1.00492
1.00514
1.00501
1.00492
1.00485
1.00485
1.00477
1.00471
1.00467
1.00451
1.00445
1.00441
1.00439
1.00413
1.00409
1.00407
1.00405
1.00373
1.0037
1.00369
1.00368
1.00331
1.00329
1.00328
1.00328
1.00288
1.00287
1.00286
1.00286
1.00245
1.00244
1.00243
1.00243
1.00201
1.002
1.002
1.002
1.00156
1.00156
1.00156
1.00156
1.00112
1.00112
1.00111
1.00111
1.00067
1.00067
1.00067
1.00067
1.00022
1.00022
1.00022
1.00022
)
;
    }
}


// ************************************************************************* //
