/*--------------------------------*- C++ -*----------------------------------*\
| =========                 |                                                 |
| \\      /  F ield         | OpenFOAM: The Open Source CFD Toolbox           |
|  \\    /   O peration     | Version:  2506                                  |
|   \\  /    A nd           | Website:  www.openfoam.com                      |
|    \\/     M anipulation  |                                                 |
\*---------------------------------------------------------------------------*/
FoamFile
{
    version     2.0;
    format      ascii;
    arch        "LSB;label=32;scalar=64";
    class       surfaceScalarField;
    location    "0.04";
    object      phi;
}
// * * * * * * * * * * * * * * * * * * * * * * * * * * * * * * * * * * * * * //

dimensions      [0 3 -1 0 0 0 0];

oriented        oriented;

internalField   nonuniform List<scalar> 
3120
(
-6.50874e-09
-1.55366e-08
5.12353e-08
5.06544e-09
-3.26343e-09
1.21713e-08
-4.52944e-09
-1.13405e-08
2.24106e-08
-3.15628e-09
1.35602e-08
1.40269e-12
-5.48254e-09
-1.33302e-08
3.96012e-08
-2.58146e-10
-5.73039e-10
1.97551e-08
-1.0566e-09
-2.2235e-09
1.95064e-08
-3.54111e-10
2.44287e-08
-4.22594e-10
2.46064e-09
9.27051e-10
6.79357e-09
-1.93023e-09
-3.49532e-09
3.50019e-08
7.99766e-10
2.12147e-09
2.09498e-08
3.91034e-09
2.55118e-08
-1.62862e-09
-1.24226e-09
2.93639e-08
1.66647e-09
3.0525e-09
1.96487e-08
2.85889e-10
5.80179e-10
2.97528e-08
2.50825e-09
2.75875e-08
2.88776e-09
1.52686e-09
5.73694e-09
-6.15898e-09
3.68118e-08
2.07464e-09
4.20957e-10
1.52476e-08
1.08684e-08
-2.71586e-10
2.33952e-08
-6.36185e-09
3.95964e-08
-6.18909e-09
6.53726e-09
-7.58282e-10
1.70332e-08
5.23176e-10
2.56797e-09
2.36222e-08
6.08317e-10
2.0447e-10
1.89453e-08
-4.65261e-10
1.67725e-08
2.36793e-09
-3.8613e-09
-1.28181e-08
2.2222e-08
-1.04326e-09
-2.97886e-10
3.50498e-08
5.01305e-11
2.1406e-09
1.79203e-08
-7.69961e-10
2.06164e-08
5.25022e-09
-2.22608e-09
3.07452e-08
-5.36477e-09
8.43252e-10
1.53414e-08
9.40029e-10
-8.05128e-10
3.77631e-08
-4.22134e-09
3.01717e-08
-2.09163e-09
-2.06762e-09
3.98236e-09
4.02977e-09
1.43234e-08
-1.25295e-09
2.74028e-09
1.89132e-08
9.1689e-09
4.89611e-09
3.13144e-08
5.74255e-09
4.54083e-08
1.28032e-08
-5.89793e-10
1.80553e-09
2.06231e-08
2.32481e-09
1.73993e-09
2.17079e-08
7.50508e-10
1.90087e-09
2.35148e-08
2.7053e-09
1.73104e-08
3.24986e-09
-2.16203e-09
1.44496e-09
2.57976e-08
2.55809e-09
3.8398e-09
2.82298e-08
2.10008e-09
-1.04958e-09
2.13288e-08
-1.47945e-09
2.70352e-08
-1.33955e-10
5.29331e-10
3.25438e-08
-7.50986e-10
-1.63597e-09
1.86103e-08
2.73626e-09
4.25204e-09
2.99598e-08
8.65758e-10
4.39388e-08
-1.15311e-08
5.36566e-10
3.39425e-09
3.18869e-09
7.64397e-09
-8.60492e-09
-3.50021e-09
4.19209e-08
-6.87435e-09
5.55619e-09
2.76929e-08
6.06214e-09
2.13909e-08
7.81078e-09
-9.7949e-10
-2.86875e-10
2.88839e-08
2.45938e-09
8.61914e-10
1.39069e-08
-1.01189e-09
-1.71298e-09
3.42552e-08
1.93545e-09
2.27515e-08
-2.32629e-09
5.17083e-10
2.57416e-09
2.05236e-08
1.54449e-09
9.40316e-10
2.7124e-08
2.58748e-09
-1.13674e-09
1.97095e-08
-3.20511e-09
3.90207e-08
-4.25745e-09
-2.0606e-11
3.38837e-08
3.28255e-09
-2.42151e-10
1.59428e-08
3.82929e-09
1.67257e-09
2.60477e-08
8.60617e-10
4.77736e-08
-2.85062e-09
-2.5168e-09
-8.53637e-09
-3.23188e-09
4.12974e-08
-5.04295e-09
2.3528e-09
4.58441e-08
5.06929e-10
1.17949e-09
1.97311e-08
-1.33351e-09
2.43351e-08
-7.59785e-10
-6.45868e-10
-4.22995e-09
3.42489e-08
-5.77971e-10
-3.84997e-09
2.00418e-08
6.16439e-10
-1.84958e-09
3.60899e-08
-3.7067e-09
2.45101e-08
1.23095e-09
-2.44067e-10
3.81375e-09
1.38252e-08
2.48803e-09
1.00098e-09
1.95409e-08
-1.13029e-09
-3.26434e-10
2.18047e-08
-3.14641e-09
3.90161e-08
-1.68605e-09
-2.78181e-09
3.90651e-08
3.7848e-09
4.06272e-10
1.05789e-08
3.17681e-09
-2.23501e-09
2.73004e-08
1.06222e-09
4.48636e-08
-1.08895e-09
-1.38238e-09
3.26219e-09
1.14947e-08
2.25593e-08
6.67317e-09
7.89951e-09
2.93556e-08
4.62236e-09
3.82203e-09
1.11743e-08
3.88889e-09
2.36796e-08
-4.86809e-10
7.56467e-09
3.42677e-09
3.25349e-08
2.30059e-09
-2.43483e-10
3.34488e-08
2.73029e-09
-1.00026e-09
4.04825e-08
-2.33252e-09
3.52384e-08
-1.77657e-09
3.91106e-10
-2.42143e-09
2.01388e-08
1.01614e-09
1.1372e-09
1.75352e-08
1.54516e-09
-3.40579e-09
2.36812e-08
-5.05412e-09
4.2422e-08
8.60895e-10
9.6932e-09
1.99871e-08
2.27331e-09
-4.83729e-09
2.80431e-08
-1.79647e-09
-1.70972e-09
1.90941e-08
1.67291e-09
3.71212e-08
4.73339e-09
-3.75492e-09
5.41876e-10
-5.45684e-10
2.22608e-08
2.28914e-09
-7.20858e-10
2.41181e-08
4.75076e-10
-5.10897e-09
1.81198e-08
-2.87123e-10
2.64232e-08
-1.89068e-09
-5.28858e-11
7.00576e-10
3.04446e-08
9.5054e-10
-3.34463e-10
3.20589e-08
1.54593e-09
-9.66097e-11
3.48746e-08
-6.2926e-10
3.67036e-08
4.22891e-10
-2.46587e-09
1.38928e-09
2.20735e-08
-3.5669e-09
-1.1142e-10
1.84131e-08
-1.22449e-09
-4.45688e-09
2.5699e-08
-7.74225e-10
4.08252e-08
5.17303e-10
-1.75136e-08
3.74733e-08
-4.47609e-11
-1.2915e-09
1.31591e-08
-1.44936e-09
-1.77209e-09
1.56503e-08
-5.32453e-10
3.8362e-08
3.56017e-09
-7.34749e-09
-2.57484e-09
-3.40401e-09
2.53042e-08
-3.44755e-09
-2.78901e-09
2.59456e-08
-3.74393e-09
-5.01265e-11
2.25891e-08
-1.82889e-09
2.65925e-08
-1.7479e-09
-3.2222e-09
-2.66351e-09
3.18756e-08
-4.8528e-09
-6.77237e-10
3.15774e-08
-3.51549e-09
2.02751e-09
3.14594e-08
4.34417e-10
3.13678e-08
-4.42861e-10
-7.18391e-10
-5.45735e-09
2.45367e-08
-3.89877e-09
-6.81704e-10
2.1598e-08
-5.72492e-09
2.59789e-09
2.69544e-08
1.2618e-09
3.71885e-08
-2.91585e-09
4.32124e-09
1.73553e-08
4.18971e-09
-2.88713e-10
1.60261e-08
1.06219e-09
-3.79092e-09
2.13032e-08
4.47823e-10
3.81149e-08
-1.07663e-09
-1.20522e-09
1.43443e-09
1.77287e-09
2.83712e-08
2.7215e-10
2.16232e-10
2.78896e-08
-1.72467e-09
-1.0386e-09
2.68295e-08
-2.7048e-09
2.76951e-08
-1.30797e-09
-1.10339e-09
3.04862e-09
2.91915e-08
-1.68554e-09
3.03572e-09
2.934e-08
-1.57504e-09
7.22089e-10
2.95883e-08
-2.53058e-09
2.98534e-08
-2.34529e-10
-8.4497e-10
2.07892e-09
2.62183e-08
-4.25075e-09
2.13572e-09
2.59036e-08
-6.14723e-09
1.57393e-09
2.79986e-08
-7.4883e-10
3.15919e-08
-2.33241e-09
-1.37661e-09
2.34955e-08
-3.06212e-09
-4.93188e-09
2.39101e-08
-2.19251e-09
-7.24264e-09
2.59966e-08
-8.08806e-10
3.06779e-08
2.90132e-10
-8.44983e-10
3.58785e-10
7.70086e-10
2.84118e-08
9.65138e-11
3.20084e-10
2.8197e-08
-4.99759e-10
-2.38045e-10
2.77455e-08
-8.86225e-10
2.79362e-08
-5.00436e-10
-6.83665e-10
1.26385e-09
2.82789e-08
-7.72853e-10
1.3033e-09
2.84462e-08
-6.04108e-10
6.51467e-10
2.85301e-08
-2.66966e-10
2.86799e-08
-4.96563e-11
-6.36498e-10
6.07287e-10
2.72212e-08
-1.56878e-09
8.248e-10
2.73145e-08
-1.86523e-09
9.65598e-10
2.79809e-08
6.78264e-10
2.90154e-08
-2.34041e-10
-6.95633e-10
2.63399e-08
-1.69267e-09
-1.48824e-09
2.65859e-08
-1.0584e-09
-1.64448e-09
2.72564e-08
-1.37909e-10
2.8376e-08
5.44305e-10
7.91161e-10
1.29083e-10
2.84928e-10
2.81711e-08
1.36399e-10
1.13927e-10
2.81186e-08
-4.19889e-11
-1.73202e-10
2.79666e-08
-4.15071e-10
2.79929e-08
-6.54412e-11
-2.53765e-10
3.82623e-10
2.805e-08
-2.20356e-10
3.69187e-10
2.81578e-08
-1.70564e-10
1.21136e-10
2.81861e-08
-1.73804e-10
2.82301e-08
3.80804e-11
-2.46238e-10
3.68822e-11
2.77058e-08
-4.76271e-10
1.18504e-10
2.77954e-08
-5.21581e-10
1.53702e-10
2.79937e-08
2.77668e-11
2.82317e-08
6.04391e-11
-2.18868e-10
2.74545e-08
-8.6094e-10
-4.4294e-10
2.75559e-08
-6.27274e-10
-4.44444e-10
2.7711e-08
-2.99232e-10
2.78633e-08
-2.03669e-10
2.99558e-10
8.82911e-11
7.66067e-11
2.80531e-08
1.26433e-10
1.46463e-11
2.80416e-08
7.54035e-11
-6.49758e-11
2.79828e-08
-1.08313e-10
2.79623e-08
4.31009e-11
-2.23e-11
6.78603e-11
2.79979e-08
2.80695e-11
8.14019e-11
2.80409e-08
5.84398e-11
5.51605e-11
2.80358e-08
4.03249e-11
2.80219e-08
1.18247e-10
9.4881e-12
-1.1373e-10
2.78887e-08
1.28332e-12
-3.89916e-11
2.79242e-08
5.3094e-11
4.78076e-11
2.79494e-08
1.22819e-10
2.79556e-08
2.4689e-10
8.35415e-11
2.78177e-08
-4.75047e-10
1.07658e-10
2.78386e-08
-3.45553e-10
2.06064e-10
2.78178e-08
-1.57253e-10
2.77425e-08
-1.92796e-11
4.69022e-10
7.96407e-11
-6.71147e-12
2.80163e-08
1.00495e-10
-2.63033e-11
2.80105e-08
8.25428e-11
-4.62648e-11
2.79798e-08
-4.70865e-11
2.79481e-08
6.28391e-11
5.20999e-11
-3.13518e-11
2.7996e-08
7.87577e-11
-1.78124e-11
2.80059e-08
8.8862e-11
-9.20755e-12
2.79888e-08
1.03025e-11
2.79546e-08
9.89048e-11
7.38742e-11
-1.16786e-10
2.79629e-08
9.38697e-11
-7.91065e-11
2.79657e-08
1.17604e-10
-2.8923e-11
2.79455e-08
1.73062e-11
2.7895e-08
1.7127e-10
1.20515e-10
2.79415e-08
-2.55226e-10
1.57259e-10
2.7927e-08
-2.03981e-10
1.9691e-10
2.78715e-08
-1.22114e-10
2.77638e-08
-7.34536e-11
2.66497e-10
7.47558e-11
-2.86439e-11
2.801e-08
8.20913e-11
-3.24546e-11
2.80018e-08
7.27684e-11
-3.40359e-11
2.79799e-08
-2.611e-11
2.79462e-08
5.86787e-11
6.96214e-11
-4.74406e-11
2.80038e-08
8.10015e-11
-3.6952e-11
2.79991e-08
8.21873e-11
-2.45178e-11
2.79782e-08
-4.4206e-12
2.79376e-08
7.76348e-11
8.37665e-11
-8.69949e-11
2.7993e-08
9.78918e-11
-6.70118e-11
2.79818e-08
1.06822e-10
-3.83951e-11
2.79505e-08
-8.98941e-12
2.78898e-08
1.16682e-10
1.09369e-10
2.79787e-08
-1.40577e-10
1.33637e-10
2.79542e-08
-1.18381e-10
1.50749e-10
2.78966e-08
-8.04245e-11
2.77927e-08
-5.46657e-11
1.6758e-10
6.37415e-11
-2.98807e-11
2.80119e-08
6.49401e-11
-2.95537e-11
2.80025e-08
5.82675e-11
-2.70367e-11
2.79839e-08
-2.02777e-11
2.79507e-08
4.79218e-11
6.39275e-11
-4.12966e-11
2.80104e-08
6.7784e-11
-3.51282e-11
2.80008e-08
6.5422e-11
-2.59493e-11
2.79795e-08
-1.40931e-11
2.79386e-08
5.82336e-11
7.17724e-11
-5.96169e-11
2.80047e-08
7.83912e-11
-4.97559e-11
2.79899e-08
7.97088e-11
-3.48882e-11
2.79582e-08
-2.02212e-11
2.78986e-08
7.71642e-11
8.41873e-11
2.79886e-08
-8.04995e-11
9.62456e-11
2.79637e-08
-7.11081e-11
1.01225e-10
2.79112e-08
-5.43708e-11
2.7816e-08
-4.30963e-11
1.00864e-10
5.13444e-11
-2.49837e-11
2.8015e-08
5.03652e-11
-2.39929e-11
2.80058e-08
4.53076e-11
-2.15387e-11
2.79891e-08
-1.70182e-11
2.79569e-08
3.76398e-11
5.23606e-11
-3.14541e-11
2.80146e-08
5.3029e-11
-2.81223e-11
2.80042e-08
4.98483e-11
-2.28679e-11
2.7984e-08
-1.62725e-11
2.79444e-08
4.34119e-11
5.62753e-11
-3.98356e-11
2.80093e-08
5.88304e-11
-3.52271e-11
2.79944e-08
5.74053e-11
-2.79757e-11
2.79647e-08
-2.08492e-11
2.79081e-08
5.25292e-11
6.20258e-11
2.79902e-08
-4.78888e-11
6.74198e-11
2.79672e-08
-4.40549e-11
6.79336e-11
2.79197e-08
-3.69407e-11
2.78313e-08
-3.18866e-11
6.38117e-11
3.97828e-11
-1.94322e-11
2.80177e-08
3.8374e-11
-1.86104e-11
2.80092e-08
3.45303e-11
-1.68992e-11
2.7994e-08
-1.41281e-11
2.79628e-08
2.88675e-11
4.06251e-11
-2.28726e-11
2.80171e-08
4.01416e-11
-2.12367e-11
2.80073e-08
3.7218e-11
-1.847e-11
2.79885e-08
-1.49184e-11
2.79504e-08
3.20979e-11
4.24666e-11
-2.66029e-11
2.80109e-08
4.31046e-11
-2.4648e-11
2.79973e-08
4.09907e-11
-2.13195e-11
2.79697e-08
-1.78941e-11
2.79156e-08
3.65325e-11
4.49004e-11
2.79896e-08
-2.94808e-11
4.70017e-11
2.79687e-08
-2.81616e-11
4.58635e-11
2.79249e-08
-2.53511e-11
2.78407e-08
-2.32914e-11
4.18589e-11
2.99631e-11
-1.46759e-11
2.80195e-08
2.87182e-11
-1.40834e-11
2.8012e-08
2.58703e-11
-1.30121e-11
2.7998e-08
-1.13947e-11
2.79678e-08
2.17163e-11
3.0556e-11
-1.63629e-11
2.80185e-08
2.97926e-11
-1.56216e-11
2.80097e-08
2.73888e-11
-1.42361e-11
2.79921e-08
-1.24458e-11
2.79553e-08
2.35499e-11
3.13772e-11
-1.79011e-11
2.80114e-08
3.12384e-11
-1.72089e-11
2.79991e-08
2.92526e-11
-1.57614e-11
2.79732e-08
-1.42186e-11
2.7921e-08
2.57216e-11
3.22557e-11
2.79884e-08
-1.86664e-11
3.2912e-11
2.79694e-08
-1.84775e-11
3.15066e-11
2.79281e-08
-1.75222e-11
2.78467e-08
-1.67858e-11
2.82337e-11
2.20752e-11
-1.08707e-11
2.80206e-08
2.11014e-11
-1.04749e-11
2.80141e-08
1.90386e-11
-9.82468e-12
2.8001e-08
-8.88009e-12
2.79716e-08
1.60429e-11
2.24727e-11
-1.16328e-11
2.80192e-08
2.17456e-11
-1.13283e-11
2.80114e-08
1.98962e-11
-1.06639e-11
2.79949e-08
-9.76144e-12
2.7959e-08
1.70863e-11
2.28052e-11
-1.21563e-11
2.80115e-08
2.24229e-11
-1.20147e-11
2.80002e-08
2.08004e-11
-1.14548e-11
2.79756e-08
-1.08117e-11
2.79247e-08
1.81738e-11
2.3015e-11
2.79874e-08
-1.21137e-11
2.30669e-11
2.79697e-08
-1.23274e-11
2.18056e-11
2.79301e-08
-1.21663e-11
2.78504e-08
-1.19852e-11
1.93422e-11
1.59417e-11
-7.84173e-12
2.80212e-08
1.51853e-11
-7.62918e-12
2.80155e-08
1.36993e-11
-7.24409e-12
2.80031e-08
-6.69155e-12
2.79745e-08
1.15733e-11
1.61643e-11
-8.18875e-12
2.80196e-08
1.55617e-11
-8.0912e-12
2.80125e-08
1.41961e-11
-7.7865e-12
2.79968e-08
-7.33472e-12
2.79617e-08
1.21873e-11
1.62651e-11
-8.27743e-12
2.80113e-08
1.58637e-11
-8.35032e-12
2.80009e-08
1.46273e-11
-8.17974e-12
2.79773e-08
-7.94261e-12
2.79273e-08
1.27459e-11
1.62202e-11
2.79865e-08
-7.97248e-12
1.60602e-11
2.79698e-08
-8.29231e-12
1.50653e-11
2.79313e-08
-8.41982e-12
2.78528e-08
-8.44292e-12
1.32784e-11
1.1204e-11
-5.42555e-12
2.80216e-08
1.0605e-11
-5.34903e-12
2.80165e-08
9.55301e-12
-5.14024e-12
2.80046e-08
-4.8185e-12
2.79764e-08
8.08203e-12
1.12786e-11
-5.60531e-12
2.80197e-08
1.08098e-11
-5.61047e-12
2.80132e-08
9.83719e-12
-5.48096e-12
2.79981e-08
-5.25566e-12
2.79635e-08
8.44466e-12
1.12727e-11
-5.55299e-12
2.80111e-08
1.09324e-11
-5.68486e-12
2.80013e-08
1.00407e-11
-5.67125e-12
2.79783e-08
-5.60361e-12
2.7929e-08
8.73752e-12
1.11516e-11
2.79859e-08
-5.22104e-12
1.09488e-11
2.79699e-08
-5.51683e-12
1.02057e-11
2.79321e-08
-5.70936e-12
2.78543e-08
-5.79844e-12
8.9747e-12
7.49241e-12
-3.45168e-12
2.80219e-08
7.04164e-12
-3.46294e-12
2.8017e-08
6.32426e-12
-3.36512e-12
2.80056e-08
-3.18818e-12
2.79777e-08
5.3532e-12
7.47743e-12
-3.57351e-12
2.80197e-08
7.13418e-12
-3.62121e-12
2.80136e-08
6.47664e-12
-3.57784e-12
2.79989e-08
-3.47188e-12
2.79647e-08
5.55727e-12
7.42833e-12
-3.50993e-12
2.80109e-08
7.1711e-12
-3.63576e-12
2.80015e-08
6.56592e-12
-3.67574e-12
2.7979e-08
-3.67511e-12
2.793e-08
5.70622e-12
7.30346e-12
2.79855e-08
-3.25272e-12
7.12769e-12
2.79699e-08
-3.48096e-12
6.61383e-12
2.79326e-08
-3.65239e-12
2.78552e-08
-3.74763e-12
5.80404e-12
4.57306e-12
-1.77163e-12
2.8022e-08
4.28482e-12
-1.81205e-12
2.80174e-08
3.84198e-12
-1.78141e-12
2.80061e-08
-1.70391e-12
2.79785e-08
3.24973e-12
4.53129e-12
-1.8568e-12
2.80198e-08
4.30988e-12
-1.9152e-12
2.80139e-08
3.90649e-12
-1.91775e-12
2.79994e-08
-1.88235e-12
2.79654e-08
3.34298e-12
4.47373e-12
-1.83503e-12
2.80108e-08
4.30287e-12
-1.93579e-12
2.80017e-08
3.92828e-12
-1.98906e-12
2.79794e-08
-2.01444e-12
2.79306e-08
3.40092e-12
4.37244e-12
2.79852e-08
-1.70274e-12
4.24596e-12
2.79699e-08
-1.85959e-12
3.92308e-12
2.79329e-08
-1.98783e-12
2.78557e-08
-2.06601e-12
3.42715e-12
2.40789e-12
-3.90016e-13
2.26918e-12
-4.18783e-13
2.03893e-12
-4.25234e-13
-4.16222e-13
1.72724e-12
2.37872e-12
-4.48024e-13
2.25973e-12
-4.94603e-13
2.04101e-12
-5.23676e-13
-5.41106e-13
1.73676e-12
2.33293e-12
-4.79194e-13
2.22915e-12
-5.49199e-13
2.01795e-12
-6.05769e-13
-6.55397e-13
1.72016e-12
2.25998e-12
-4.76316e-13
2.16917e-12
-5.76852e-13
1.97333e-12
-6.70989e-13
-7.44903e-13
1.67935e-12
-1.91063e-09
-2.68355e-09
3.86545e-08
8.0225e-09
-8.88534e-10
1.77415e-08
2.04143e-11
-2.22098e-09
3.51453e-08
3.80488e-09
1.65559e-08
-7.65051e-10
-4.42887e-10
5.41355e-09
2.56659e-08
4.04529e-09
5.31069e-09
1.9511e-08
1.55882e-09
6.88366e-09
1.94501e-08
1.02912e-08
1.66464e-08
-1.61257e-09
8.1469e-10
-3.42599e-09
4.74792e-08
3.29836e-09
2.07221e-11
3.71068e-08
2.64609e-09
2.43489e-10
3.69491e-08
6.30418e-09
3.27205e-08
-2.61507e-09
4.61266e-10
3.67096e-08
2.63623e-09
3.58364e-08
4.03464e-09
3.21104e-08
3.90945e-08
-1.84699e-09
2.26009e-09
2.96677e-09
2.24946e-08
-3.00982e-09
2.6054e-09
2.1346e-08
3.38478e-09
1.82452e-09
2.27048e-08
4.16254e-09
1.23855e-08
1.30095e-09
3.19346e-09
-2.05115e-09
2.46363e-08
-2.03223e-09
-3.22509e-09
3.05672e-08
1.34521e-09
5.12449e-09
1.27727e-08
-3.6658e-09
2.65858e-08
-7.65924e-10
2.49113e-09
7.98214e-09
3.52269e-08
1.11436e-09
5.18656e-09
3.0072e-08
1.47608e-11
-3.67392e-09
4.68471e-08
4.11922e-09
2.64725e-08
-1.52223e-09
1.73663e-09
4.65847e-08
-2.38031e-09
4.52757e-08
2.21085e-09
2.38957e-08
4.72634e-08
-1.82064e-09
2.81418e-09
5.36173e-11
1.32984e-08
-3.52149e-09
-2.25819e-09
3.26761e-08
2.65619e-09
3.926e-09
1.34669e-08
-9.36132e-09
9.80751e-09
3.06444e-09
7.19045e-10
1.39936e-09
1.98479e-08
1.04526e-09
-2.34247e-09
3.03252e-08
6.70309e-10
-6.25622e-09
2.33298e-08
-1.2335e-08
3.11633e-08
-9.33571e-10
-1.55541e-09
-8.05315e-09
4.61725e-08
5.95683e-11
-4.49748e-09
3.0612e-08
-7.34626e-10
-1.51464e-09
4.28997e-08
-2.97788e-09
1.61606e-08
2.20211e-10
2.75332e-10
3.35544e-08
2.22095e-09
3.87313e-08
-1.12943e-09
2.57198e-08
4.32497e-08
1.33645e-12
-5.14526e-10
2.78772e-09
2.13713e-08
-2.45826e-09
-2.46481e-09
4.0914e-08
-7.57435e-10
-5.52418e-10
1.31791e-08
-2.07627e-09
8.26078e-09
1.49437e-11
-4.14197e-09
-4.31953e-09
3.8938e-08
-1.18129e-09
6.35556e-09
1.85442e-08
-1.93614e-09
-7.66438e-12
2.35399e-08
-2.0299e-09
2.66576e-08
2.52317e-09
1.07715e-09
-4.11839e-09
4.50902e-08
-4.83986e-09
-9.42603e-09
5.23106e-08
-1.7534e-09
-1.65386e-09
4.14595e-08
-2.79427e-09
1.41971e-08
9.74449e-10
-2.18272e-09
2.98894e-08
-3.01398e-10
2.77223e-08
-2.25491e-09
2.62295e-08
3.7549e-08
1.06585e-09
-8.31647e-09
-3.42693e-09
4.4373e-08
4.52894e-12
5.11061e-09
3.06591e-08
-1.64413e-09
-1.52893e-09
1.74189e-08
3.37954e-10
5.00172e-09
1.88044e-10
-5.58874e-10
-3.63678e-09
3.68095e-08
-2.18878e-09
8.64653e-10
2.44201e-08
-1.58766e-09
3.9279e-09
1.74819e-08
1.01547e-09
2.37706e-08
6.21723e-10
-6.14605e-09
-1.34553e-09
4.54134e-08
-3.70101e-09
1.94624e-09
4.8784e-08
-2.43666e-09
2.82408e-09
4.12989e-08
-2.3998e-09
1.50155e-08
1.60221e-10
-4.13305e-10
2.66423e-08
-1.13018e-09
3.03278e-08
-3.51575e-09
3.15781e-08
3.0778e-08
9.12793e-10
3.03485e-09
1.22019e-08
2.11446e-08
4.23916e-10
3.81502e-09
2.76586e-08
1.22252e-09
3.76353e-09
1.45297e-08
-2.64528e-09
1.56117e-08
-2.00882e-09
-8.90757e-10
1.3681e-08
2.56376e-08
4.74692e-10
3.61072e-09
2.3259e-08
-1.48491e-09
-1.48369e-09
2.46887e-08
3.79674e-09
1.69642e-08
-1.12051e-09
-3.55928e-09
-3.83784e-10
6.04387e-08
-1.59683e-09
2.22652e-09
4.82059e-08
4.38694e-10
2.49766e-09
3.52821e-08
-2.06451e-09
2.26797e-08
-1.36435e-09
-1.3001e-09
2.81461e-08
-1.50144e-09
3.2874e-08
-8.08668e-10
3.35338e-08
3.0366e-08
-2.39421e-09
-1.418e-09
3.23459e-09
2.00662e-08
-3.05573e-10
4.38827e-09
2.07083e-08
-2.32e-09
3.62719e-09
1.23847e-08
-1.48137e-09
1.73493e-08
9.83999e-10
-5.10894e-09
-3.06571e-09
4.0532e-08
-2.59336e-09
1.00739e-10
2.50313e-08
-9.45606e-10
5.06787e-10
2.61612e-08
-3.17375e-09
1.68951e-08
8.15919e-10
-4.70491e-09
5.25853e-09
6.25175e-08
-3.45768e-09
2.32384e-09
4.47359e-08
-8.27678e-10
4.70402e-10
3.26887e-08
-3.20118e-09
2.13591e-08
5.20178e-10
-1.55718e-09
3.66248e-08
-1.54719e-09
3.53397e-08
-6.73798e-10
3.33673e-08
2.86215e-08
4.15731e-10
1.23999e-09
1.62642e-09
2.13001e-08
5.97088e-10
1.13161e-09
2.12818e-08
-1.24244e-09
-3.23773e-09
1.79109e-08
-2.95364e-09
1.75137e-08
4.7225e-10
-4.06343e-10
-5.37659e-09
4.91787e-08
-1.31229e-10
-3.05869e-09
2.89463e-08
-1.27185e-10
-2.7131e-09
2.56311e-08
-3.90393e-09
1.78987e-08
-1.7947e-10
-6.56153e-10
2.05893e-09
5.05149e-08
1.53324e-09
-5.26259e-10
4.00152e-08
7.83421e-10
-4.97902e-10
3.12227e-08
-2.36694e-09
2.03916e-08
2.13665e-10
2.02733e-09
3.75052e-08
1.21857e-09
3.56226e-08
1.0156e-09
3.30728e-08
2.6677e-08
5.9315e-10
1.5559e-10
-8.67044e-09
2.71091e-08
-1.73185e-09
-4.1493e-09
2.51263e-08
-2.64004e-09
-3.30544e-09
2.13163e-08
-9.76274e-10
1.64885e-08
-3.47143e-10
3.26602e-09
-2.28002e-09
3.85383e-08
3.90891e-10
-3.76271e-09
3.14354e-08
-3.2813e-10
-2.8828e-09
2.59267e-08
-2.1568e-09
1.88951e-08
-1.43337e-10
3.49459e-09
3.97765e-09
4.30632e-08
1.51616e-09
5.0892e-10
3.77235e-08
6.95943e-10
-8.67275e-10
3.00273e-08
-2.73773e-09
2.14881e-08
1.80444e-10
2.74243e-09
4.16616e-08
6.05285e-10
3.82693e-08
5.81882e-10
3.22291e-08
2.41537e-08
3.67339e-10
3.80826e-10
-3.63464e-09
2.87154e-08
4.98327e-11
-2.18644e-09
2.65853e-08
-8.40271e-11
-1.16612e-09
2.24786e-08
9.64589e-11
1.67001e-08
1.52904e-10
1.61189e-09
-1.78661e-09
3.48577e-08
1.33836e-09
-1.79209e-09
3.13149e-08
8.91656e-10
-9.05636e-10
2.61126e-08
-5.18968e-11
1.95355e-08
3.99946e-10
1.97778e-09
7.82954e-10
3.90945e-08
2.05951e-09
2.06549e-10
3.56436e-08
1.55304e-09
1.65865e-10
2.94623e-08
1.52657e-10
2.22236e-08
6.1302e-10
2.0397e-09
4.15645e-08
1.95114e-09
3.85648e-08
1.70783e-09
3.26384e-08
2.53114e-08
7.02715e-10
2.10851e-10
-1.50156e-09
2.92679e-08
1.20478e-10
-1.01838e-09
2.70667e-08
9.60383e-11
-4.9225e-10
2.26962e-08
-1.30738e-10
1.64947e-08
2.29028e-10
6.32925e-10
-1.01499e-09
3.38857e-08
6.24225e-10
-8.94483e-10
3.11999e-08
4.32568e-10
-4.18074e-10
2.62299e-08
-1.2289e-10
1.96374e-08
3.2311e-10
8.63216e-10
-2.39551e-10
3.78849e-08
9.38049e-10
-3.72758e-10
3.50474e-08
7.01578e-10
-2.80142e-10
2.95609e-08
-2.37322e-10
2.26389e-08
4.00736e-10
9.35496e-10
4.09913e-08
9.58927e-10
3.81689e-08
8.01891e-10
3.25154e-08
2.54402e-08
4.35779e-10
2.92964e-10
-7.12383e-10
2.93734e-08
3.742e-10
-5.09217e-10
2.71492e-08
3.32837e-10
-1.97633e-10
2.27782e-08
3.78864e-11
1.65682e-08
2.02569e-10
4.67629e-10
-5.40572e-10
3.34558e-08
5.89778e-10
-4.19014e-10
3.09877e-08
4.83161e-10
-1.12696e-10
2.62516e-08
1.05493e-10
1.98117e-08
2.41589e-10
5.73546e-10
-1.62099e-10
3.72412e-08
7.23119e-10
-1.39611e-10
3.46187e-08
5.87085e-10
2.71905e-11
2.95572e-08
1.39533e-10
2.29211e-08
2.70952e-10
6.16796e-10
4.05743e-08
7.48485e-10
3.78978e-08
6.31587e-10
3.26596e-08
2.59315e-08
2.79956e-10
2.15838e-10
-3.45781e-10
2.93886e-08
2.61837e-10
-2.60234e-10
2.71596e-08
2.24346e-10
-1.12712e-10
2.28065e-08
-2.21593e-11
1.66013e-08
1.40208e-10
2.84729e-10
-2.88303e-10
3.3282e-08
3.47391e-10
-2.23351e-10
3.08884e-08
2.79397e-10
-7.1088e-11
2.6278e-08
1.75325e-11
1.98982e-08
1.53526e-10
3.26612e-10
-1.36276e-10
3.69654e-08
4.00507e-10
-1.18806e-10
3.44406e-08
3.15562e-10
-2.62783e-11
2.95974e-08
1.49677e-11
2.3077e-08
1.62389e-10
3.39373e-10
4.03147e-08
4.04964e-10
3.77137e-08
3.27664e-10
3.27107e-08
2.61114e-08
1.62755e-10
1.53023e-10
-1.75124e-10
2.93793e-08
1.77588e-10
-1.36436e-10
2.71533e-08
1.5093e-10
-6.69264e-11
2.28199e-08
-2.18706e-11
1.66282e-08
9.1379e-11
1.80339e-10
-1.51133e-10
3.31995e-08
2.12662e-10
-1.17324e-10
3.08372e-08
1.72584e-10
-4.08917e-11
2.62922e-08
4.9562e-12
1.9949e-08
9.50618e-11
1.9628e-10
-8.14903e-11
3.68326e-08
2.34265e-10
-6.74656e-11
3.4353e-08
1.85598e-10
-1.33995e-11
2.96187e-08
1.42531e-11
2.31566e-08
9.68763e-11
1.99707e-10
4.01679e-08
2.35198e-10
3.76109e-08
1.89086e-10
3.27435e-08
2.62202e-08
9.45254e-11
1.04294e-10
-9.35918e-11
2.93683e-08
1.1464e-10
-7.57466e-11
2.71477e-08
9.59167e-11
-4.37212e-11
2.28281e-08
-2.27931e-11
1.66446e-08
5.92859e-11
1.15046e-10
-8.15667e-11
3.31574e-08
1.28701e-10
-6.44205e-11
3.08123e-08
1.03728e-10
-2.7951e-11
2.63015e-08
-6.42626e-12
1.99765e-08
5.99976e-11
1.20356e-10
-4.63304e-11
3.67654e-08
1.36717e-10
-3.82741e-11
3.43107e-08
1.07629e-10
-1.16065e-11
2.96316e-08
1.18742e-12
2.31972e-08
5.95792e-11
1.19553e-10
4.00882e-08
1.34885e-10
3.75575e-08
1.06641e-10
3.27602e-08
2.62714e-08
5.67185e-11
7.1332e-11
-5.24852e-11
2.93597e-08
7.51143e-11
-4.40836e-11
2.71441e-08
6.23653e-11
-2.905e-11
2.28331e-08
-1.88696e-11
1.66544e-08
3.95282e-11
7.54342e-11
-4.55428e-11
3.31344e-08
8.04503e-11
-3.65601e-11
3.07999e-08
6.48562e-11
-1.88823e-11
2.6307e-08
-8.09125e-12
1.99915e-08
3.91371e-11
7.64645e-11
-2.64604e-11
3.67294e-08
8.30639e-11
-2.17521e-11
3.42895e-08
6.57917e-11
-8.44221e-12
2.96385e-08
-1.48198e-12
2.32183e-08
3.81876e-11
7.44632e-11
4.00442e-08
8.06999e-11
3.75296e-08
6.36082e-11
3.2769e-08
2.62979e-08
3.5705e-11
4.9186e-11
-3.08329e-11
2.93537e-08
5.00002e-11
-2.66925e-11
2.71419e-08
4.14058e-11
-1.96819e-11
2.28361e-08
-1.4668e-11
1.66602e-08
2.69751e-11
5.02189e-11
-2.62402e-11
3.31213e-08
5.17062e-11
-2.16169e-11
3.07934e-08
4.17736e-11
-1.29323e-11
2.63103e-08
-7.42106e-12
1.99999e-08
2.62269e-11
5.00761e-11
-1.54351e-11
3.67094e-08
5.2109e-11
-1.2665e-11
3.42786e-08
4.13652e-11
-6.03152e-12
2.96425e-08
-2.40315e-12
2.32295e-08
2.52414e-11
4.783e-11
4.00194e-08
4.98831e-11
3.7515e-08
3.94102e-11
3.27734e-08
2.63117e-08
2.33098e-11
3.41884e-11
-1.8759e-11
2.93497e-08
3.38584e-11
-1.67356e-11
2.71406e-08
2.80406e-11
-1.34669e-11
2.28379e-08
-1.09231e-11
1.66636e-08
1.86682e-11
3.40917e-11
-1.56841e-11
3.31136e-08
3.40959e-11
-1.31586e-11
3.079e-08
2.76821e-11
-8.87382e-12
2.63123e-08
-5.9207e-12
2.00047e-08
1.79753e-11
3.33227e-11
-9.16063e-12
3.66979e-08
3.37036e-11
-7.58842e-12
3.42728e-08
2.69441e-11
-4.22553e-12
2.96447e-08
-2.16913e-12
2.32358e-08
1.7066e-11
3.1527e-11
4.00052e-08
3.18353e-11
3.75072e-08
2.52179e-11
3.27759e-08
2.63192e-08
1.5631e-11
2.38294e-11
-1.17434e-11
2.9347e-08
2.31738e-11
-1.07912e-11
2.71398e-08
1.92032e-11
-9.25902e-12
2.2839e-08
-7.94522e-12
1.66657e-08
1.30049e-11
2.33795e-11
-9.64206e-12
3.31088e-08
2.28783e-11
-8.2557e-12
3.0788e-08
1.86566e-11
-6.08622e-12
2.63135e-08
-4.45168e-12
2.00075e-08
1.24229e-11
2.25647e-11
-5.58318e-12
3.66911e-08
2.22739e-11
-4.66655e-12
3.42696e-08
1.79295e-11
-2.93204e-12
2.9646e-08
-1.72754e-12
2.32394e-08
1.17298e-11
2.11173e-11
3.99968e-08
2.08025e-11
3.75029e-08
1.6557e-11
3.27772e-08
2.63235e-08
1.06527e-11
1.65299e-11
-7.51262e-12
2.93453e-08
1.58676e-11
-7.06415e-12
2.71393e-08
1.31488e-11
-6.34649e-12
2.28397e-08
-5.66608e-12
1.6667e-08
9.0271e-12
1.60318e-11
-6.05527e-12
3.31059e-08
1.54503e-11
-5.28724e-12
3.07869e-08
1.26481e-11
-4.15839e-12
2.63142e-08
-3.22282e-12
2.00092e-08
8.57701e-12
1.53352e-11
-3.47995e-12
3.6687e-08
1.48727e-11
-2.92897e-12
3.42678e-08
1.20344e-11
-2.01444e-12
2.96468e-08
-1.28626e-12
2.32416e-08
8.05879e-12
1.42301e-11
3.99918e-08
1.37631e-11
3.75005e-08
1.10057e-11
3.2778e-08
2.6326e-08
7.28004e-12
1.12452e-11
-4.81077e-12
2.93441e-08
1.06969e-11
-4.60265e-12
2.7139e-08
8.8664e-12
-4.27036e-12
2.28402e-08
-3.91592e-12
1.66678e-08
6.1428e-12
1.08172e-11
-3.81653e-12
3.3104e-08
1.03142e-11
-3.38921e-12
3.07862e-08
8.44685e-12
-2.78156e-12
2.63147e-08
-2.25081e-12
2.00103e-08
5.81002e-12
1.02825e-11
-2.1681e-12
3.66845e-08
9.85227e-12
-1.85081e-12
3.42667e-08
8.00654e-12
-1.35431e-12
2.96472e-08
-9.08695e-13
2.32429e-08
5.44373e-12
9.48615e-12
3.99888e-08
9.05336e-12
3.74991e-08
7.26522e-12
3.27785e-08
2.63275e-08
4.90385e-12
7.30476e-12
-2.95104e-12
2.93434e-08
6.89627e-12
-2.86079e-12
2.71388e-08
5.70738e-12
-2.71048e-12
2.28404e-08
-2.53117e-12
1.66683e-08
3.97313e-12
6.98903e-12
-2.31368e-12
3.31029e-08
6.61056e-12
-2.08277e-12
3.07858e-08
5.40539e-12
-1.75834e-12
2.63149e-08
-1.45565e-12
2.00109e-08
3.7442e-12
6.61127e-12
-1.30077e-12
3.6683e-08
6.27657e-12
-1.12613e-12
3.42662e-08
5.09972e-12
-8.59617e-13
2.96475e-08
-5.9363e-13
2.32436e-08
3.50104e-12
6.07363e-12
3.9987e-08
5.73892e-12
3.74984e-08
4.61055e-12
3.27788e-08
2.63283e-08
3.14819e-12
4.32094e-12
-1.53198e-12
2.9343e-08
4.03247e-12
-1.50252e-12
2.71387e-08
3.30863e-12
-1.44412e-12
2.28406e-08
-1.37008e-12
1.66686e-08
2.28424e-12
4.12008e-12
-1.19443e-12
3.31024e-08
3.84999e-12
-1.07988e-12
3.07856e-08
3.12416e-12
-9.2232e-13
2.63151e-08
-7.66299e-13
2.00113e-08
2.1471e-12
3.88622e-12
-6.65938e-13
3.66822e-08
3.64349e-12
-5.77403e-13
3.42659e-08
2.93972e-12
-4.42996e-13
2.96477e-08
-2.98612e-13
2.32441e-08
2.00587e-12
3.56553e-12
3.99861e-08
3.32592e-12
3.74981e-08
2.65361e-12
3.2779e-08
2.63289e-08
1.80322e-12
2.16163e-12
-4.27945e-13
1.94066e-12
-4.33333e-13
1.5272e-12
-4.32948e-13
-4.33972e-13
1.00806e-12
2.05622e-12
-3.37784e-13
1.84756e-12
-2.9472e-13
1.44098e-12
-2.44543e-13
-2.00096e-13
9.49376e-13
1.94184e-12
-1.92806e-13
1.74653e-12
-1.59861e-13
1.35428e-12
-1.12869e-13
-6.60651e-14
8.90946e-13
1.80352e-12
1.61046e-12
1.23548e-12
8.08632e-13
1.95895e-09
-5.68574e-09
3.22155e-08
4.06311e-09
-2.47709e-09
3.23985e-08
4.8629e-09
-1.51831e-09
3.79517e-08
-4.1822e-09
5.22425e-08
5.09847e-09
-7.77436e-10
1.65228e-08
2.55876e-09
-2.01282e-09
3.25e-08
-1.66775e-10
-9.99484e-10
3.65825e-08
8.99694e-10
3.31986e-08
2.09963e-09
4.6713e-09
1.34148e-08
3.36382e-09
5.2664e-10
2.2235e-08
5.61024e-09
2.36434e-09
2.41242e-08
2.15465e-09
3.77757e-08
-3.7555e-09
2.58313e-08
6.81704e-09
8.10201e-09
5.97749e-09
2.39302e-08
3.32994e-08
-7.53743e-10
2.17904e-09
1.83952e-08
1.24661e-08
2.81707e-09
1.54304e-08
5.02258e-09
-1.04589e-09
5.05958e-08
-2.29528e-09
5.72142e-08
9.54946e-10
7.44156e-11
2.00404e-08
2.49132e-10
-1.73317e-10
3.61962e-08
3.27575e-10
-2.50613e-09
3.79643e-08
-1.14649e-09
3.24324e-08
1.16277e-09
-4.48148e-10
1.80248e-08
-2.19691e-09
-3.29817e-10
2.57512e-08
1.79433e-09
-2.54958e-10
1.78818e-08
-1.08827e-09
3.95838e-08
-2.83372e-09
2.74503e-08
-1.47426e-09
5.64678e-09
2.18802e-09
1.84907e-08
3.27415e-08
2.81083e-09
-1.83616e-10
2.46975e-08
-2.70754e-09
-2.54903e-09
2.45643e-08
4.50793e-09
-6.06768e-10
4.36319e-08
-1.86035e-11
5.84985e-08
4.98885e-09
-2.16629e-10
1.83344e-08
-2.38405e-09
1.75917e-09
3.92609e-08
4.9629e-09
1.65234e-09
2.83583e-08
1.68897e-10
3.72978e-08
4.65411e-09
-2.30673e-09
1.53268e-08
7.8907e-10
-2.25048e-09
3.36258e-08
2.15223e-09
-2.57305e-09
2.07441e-08
-5.65884e-09
4.77371e-08
3.60246e-09
2.51422e-08
-2.62572e-09
8.69087e-09
-3.31239e-09
1.68246e-08
2.39287e-08
1.20985e-09
-2.39628e-09
3.64393e-08
-1.00082e-09
-2.85065e-09
2.9556e-08
-4.07601e-09
9.93696e-11
4.39313e-08
6.605e-10
5.13149e-08
5.1757e-10
1.44318e-09
1.16511e-08
3.98848e-09
1.76198e-09
3.11774e-08
-1.79115e-09
-1.26097e-09
3.54983e-08
-1.10809e-09
3.74475e-08
4.22418e-10
-7.7899e-10
1.28691e-08
-1.52297e-09
1.55138e-09
3.57817e-08
-6.12735e-10
5.43063e-10
1.80298e-08
-8.11704e-10
4.71152e-08
3.84405e-09
1.80174e-08
-2.39028e-09
1.89998e-08
-3.31419e-09
1.9266e-08
2.09483e-08
-2.07371e-09
9.84738e-10
3.91801e-08
1.57213e-09
1.35843e-10
2.49356e-08
-9.3167e-09
-1.20772e-09
5.68894e-08
1.35711e-09
3.70672e-08
-2.30894e-09
-1.6127e-09
1.77884e-08
7.92188e-10
-1.6722e-09
2.98843e-08
-3.1904e-09
-1.53341e-09
3.98066e-08
-2.75978e-09
3.85491e-08
1.92085e-09
-2.88177e-10
7.93764e-09
-1.19575e-09
-1.75279e-09
3.89788e-08
-5.8964e-09
-1.03786e-10
2.13008e-08
2.52616e-09
3.61848e-08
1.76485e-09
1.47701e-08
9.01254e-10
1.87324e-08
1.52735e-09
1.86963e-08
2.59723e-08
3.01265e-09
3.14073e-09
3.0311e-08