/*--------------------------------*- C++ -*----------------------------------*\
| =========                 |                                                 |
| \\      /  F ield         | OpenFOAM: The Open Source CFD Toolbox           |
|  \\    /   O peration     | Version:  2506                                  |
|   \\  /    A nd           | Website:  www.openfoam.com                      |
|    \\/     M anipulation  |                                                 |
\*---------------------------------------------------------------------------*/
FoamFile
{
    version     2.0;
    format      ascii;
    arch        "LSB;label=32;scalar=64";
    class       volVectorField;
    location    "0.04";
    object      stored_U;
}
// * * * * * * * * * * * * * * * * * * * * * * * * * * * * * * * * * * * * * //

dimensions      [0 1 -1 0 0 0 0];

internalField   nonuniform List<vector> 
1152
(
(-0.00518637 0.00239957 0.0254571)
(-0.000492585 -0.000709699 0.00715642)
(-0.000367355 -0.00282962 0.0101246)
(-9.75774e-05 -0.000755349 0.00488205)
(0.00201983 -0.00829761 0.0239842)
(-0.000996979 -0.000183105 0.0104096)
(-0.000182451 -0.00170403 0.0130708)
(0.000386908 -5.83986e-06 0.0132169)
(-1.5353e-05 -0.000373981 0.00349929)
(0.000935706 -0.000502038 0.0146138)
(-0.000170923 0.00124637 0.0128632)
(0.000105839 0.00182747 0.0148565)
(6.4075e-05 0.00149121 0.0105723)
(0.00102656 -0.000243448 0.011848)
(0.000924098 0.00122325 0.00714498)
(0.00104771 0.0028108 0.0175118)
(-0.0187504 -0.00715815 0.0323278)
(0.000753731 -1.86545e-05 0.0110734)
(0.00460528 0.00109158 0.0287195)
(-9.22436e-05 -0.000524627 0.0159292)
(-0.000912271 0.00168165 0.0153564)
(0.00213461 0.000595693 0.0162174)
(0.000286756 5.05889e-05 0.00958124)
(0.00130233 -0.00199421 0.0165145)
(-0.000169717 -0.000115037 0.000742427)
(-0.000952502 0.000706407 0.0293657)
(-0.000238983 0.00056503 0.0127471)
(0.00119545 0.000588432 0.0129115)
(0.00231741 -0.00118639 0.0267163)
(2.87388e-05 0.000273665 0.00978484)
(0.0016038 -0.000119613 0.0360106)
(-3.63586e-05 -0.000139932 0.000575426)
(0.00106761 -0.000856748 0.0140434)
(0.00190564 -0.000864517 0.0194253)
(-3.00782e-05 0.000670908 0.0060966)
(0.00528835 -0.000201558 0.0464885)
(-5.01494e-05 0.000882757 0.00609855)
(0.000467054 0.000266855 0.0223467)
(0.00094664 0.00106947 0.0239795)
(0.000493076 0.000713335 0.010165)
(-8.07077e-05 0.00118632 0.0209172)
(-0.000241709 0.00156645 0.0209504)
(0.000954014 -0.000445286 0.0160675)
(0.000400049 1.92433e-05 0.0193101)
(0.000409796 -0.000190113 0.020263)
(-0.000621782 0.00174279 0.015421)
(-0.000252453 0.000378025 0.0132457)
(0.00115855 -0.000846262 0.0343816)
(0.00150143 -0.000290387 0.0108349)
(0.000289329 -0.000519753 0.00951211)
(-0.00796874 0.00159037 0.035617)
(2.7704e-05 0.000244617 0.0109291)
(0.001079 0.000491845 0.0272381)
(0.000568658 -0.00170109 0.0133616)
(0.000321913 -0.000123957 0.0121426)
(-0.00175196 0.00253222 0.0180026)
(-0.0002617 0.000424508 0.0187414)
(0.000473418 0.000629855 0.0212305)
(0.000835052 -0.00116204 0.018375)
(-0.000793211 -0.000469861 0.0220675)
(0.00106597 0.00325409 0.0307474)
(-0.000389265 0.00127997 0.0154984)
(-0.000532035 0.000347955 0.0308746)
(-0.00135369 -0.00303125 0.0273229)
(-5.14274e-05 -9.42728e-05 0.00102251)
(-0.00429181 0.00398028 0.0441969)
(-0.000118238 -2.02777e-05 0.00215187)
(0.000374393 -0.000357239 0.0194104)
(0.00151432 -0.00161245 0.0183977)
(-0.000297014 -0.000639332 0.0106224)
(-0.000722402 -0.000121981 0.03708)
(0.000265302 -0.00109403 0.0198663)
(0.000124735 0.000350373 0.0135536)
(0.000534431 -0.000684297 0.0234858)
(0.000116851 -0.000286454 0.0138723)
(-0.00182598 -0.00218955 0.0365137)
(0.000140535 0.0042681 0.0190958)
(-0.000961599 0.00124395 0.0123605)
(-0.000499773 0.000504777 0.0101098)
(-0.0020636 -0.00143252 0.0396605)
(-0.00181108 0.00519745 0.020254)
(0.00246053 0.000793631 0.0132884)
(0.00349688 -0.00107878 0.0161514)
(0.0010849 0.000771499 0.0129969)
(0.00184539 0.00546489 0.0248602)
(0.00215561 0.00225897 0.0137844)
(0.00118273 0.000683251 0.00871904)
(0.00044866 0.000275346 0.0106264)
(0.00041645 0.000496754 0.00649708)
(0.000219739 0.000543371 0.00514428)
(0.000969099 -0.000936283 0.0128572)
(0.000654504 -0.0018473 0.0103873)
(0.000572502 0.00242459 0.0249654)
(-7.29581e-05 0.000287783 0.00367757)
(-0.00324763 -0.000277201 0.0199268)
(-0.00225508 0.00119098 0.0147821)
(9.61814e-05 -0.000392909 0.00377989)
(-1.78513e-05 -0.000537879 0.0143023)
(0.000753901 -0.000719471 0.00364303)
(-0.000540461 -2.08676e-05 0.0107699)
(-0.000206697 -0.000550728 0.0128057)
(-0.000142096 -2.89207e-05 0.0157703)
(0.000568868 -0.00104683 0.0193758)
(-1.06163e-05 -0.000243814 0.016748)
(1.89984e-05 0.000170255 0.00999057)
(-0.00221618 -0.00107146 0.00867666)
(-0.000410264 0.000336757 0.0106868)
(-0.00013074 -0.00028868 0.02068)
(-0.00154639 -9.9278e-05 0.00109618)
(2.46039e-05 -0.00046819 0.0110076)
(0.000228468 -0.0039756 0.00597252)
(-0.000276335 0.000358347 0.0181647)
(0.000313581 -8.99483e-06 0.0159326)
(-0.000593006 -0.000492398 0.0171164)
(-0.00109852 0.000779157 0.0137593)
(-0.00078565 -5.57417e-06 0.0175391)
(-0.000321031 -0.000585765 0.0220808)
(-0.000944085 -0.000470421 0.0210896)
(-0.00124017 -0.000206426 0.0204272)
(-0.000479813 -0.00042318 0.0199445)
(-7.7884e-05 -0.000826872 0.0164452)
(-0.000637752 -0.000376636 0.0140384)
(-0.00141614 0.000637312 0.0174929)
(-0.00101347 0.000383316 0.0243522)
(-0.000230944 -0.000858433 0.00983965)
(0.000431871 -0.000569383 0.0100004)
(-0.000649182 -4.30385e-05 0.0139869)
(-0.000309681 -0.000123537 0.0265399)
(0.000562265 0.0012151 0.00469108)
(0.000344461 0.000122986 0.00459643)
(-0.00018229 0.0001601 0.00436163)
(-0.000517815 -0.000336857 0.00468908)
(-0.000358282 0.000364483 0.00509571)
(-0.000280979 0.000240003 0.00525063)
(-0.000532464 -0.000382226 0.00546736)
(-0.000177003 -0.000874488 0.00563161)
(2.28359e-05 0.000793023 0.00400035)
(-0.000639723 0.000749793 0.00387182)
(-0.00157554 0.000394049 0.00475113)
(-0.00103488 -0.000477391 0.00629526)
(-0.000124867 -0.000309591 0.00310571)
(-0.000806688 -0.000279528 0.00325154)
(-0.00185189 -9.24978e-05 0.00388284)
(-0.000918898 -8.70918e-05 0.00587917)
(7.96738e-05 0.000312617 0.0110082)
(9.64186e-05 6.85559e-05 0.01085)
(-4.12044e-05 9.99538e-06 0.0105503)
(-0.000161135 -0.000175976 0.0106922)
(-0.000223232 0.000191751 0.0109769)
(-0.000171998 0.000134066 0.0110154)
(-0.000223711 -0.000102845 0.0110287)
(-5.56386e-05 -0.000263284 0.0110973)
(-9.38143e-05 0.000263057 0.0104126)
(-0.000292849 0.000284589 0.0104266)
(-0.000547372 0.000207479 0.0107962)
(-0.000219715 2.19957e-05 0.0114046)
(-9.73679e-05 -0.000238374 0.0099499)
(-0.000294109 -0.000154002 0.0100928)
(-0.000517246 1.81077e-05 0.0105112)
(-5.57204e-05 0.000130696 0.0112397)
(-3.42192e-06 5.5515e-05 0.00909121)
(3.388e-05 -1.09065e-05 0.00906537)
(5.15803e-06 -5.70757e-05 0.00896582)
(-3.4113e-05 -0.00011912 0.00900456)
(-9.70806e-05 4.03144e-05 0.00904062)
(-6.42905e-05 1.11617e-05 0.00908846)
(-6.6276e-05 -7.32811e-05 0.00910336)
(-1.77385e-05 -0.000130361 0.0091304)
(-5.54868e-05 3.49239e-05 0.00886288)
(-0.000106084 4.36971e-05 0.00890022)
(-0.00016467 1.57182e-05 0.00900155)
(-6.05312e-05 -3.79847e-05 0.00914297)
(-3.87991e-05 -0.000171069 0.00875189)
(-0.000101702 -0.000138174 0.00880251)
(-0.000148922 -8.37262e-05 0.00887216)
(-1.18869e-05 -7.20116e-05 0.00896156)
(-5.8182e-06 -8.7699e-06 0.00936488)
(1.56734e-05 -2.89951e-05 0.00936161)
(1.4322e-05 -4.69584e-05 0.00932808)
(1.6092e-06 -5.91688e-05 0.00933279)
(-3.24122e-05 -1.51587e-05 0.00934638)
(-1.17295e-05 -2.30998e-05 0.00937043)
(-6.67197e-07 -3.92734e-05 0.00937376)
(1.55431e-05 -4.23305e-05 0.00937941)
(-1.45694e-05 -3.23455e-05 0.00929816)
(-1.28259e-05 -2.03575e-05 0.00931962)
(-7.7683e-06 -1.04025e-05 0.00934603)
(3.39097e-05 2.51427e-06 0.00937702)
(4.68785e-06 -0.000118278 0.00927521)
(8.3324e-06 -9.29673e-05 0.00929681)
(2.80578e-05 -5.24563e-05 0.00930807)
(9.06773e-05 -1.57247e-05 0.00931352)
(9.07729e-07 -2.3812e-05 0.00932204)
(1.07141e-05 -3.03054e-05 0.00932226)
(1.29873e-05 -3.57394e-05 0.00930988)
(8.34036e-06 -3.61635e-05 0.0093034)
(-5.88176e-06 -2.97151e-05 0.00931766)
(4.30325e-06 -3.04644e-05 0.00932667)
(1.15888e-05 -3.15784e-05 0.00932282)
(1.58813e-05 -2.71431e-05 0.00931409)
(2.22009e-06 -4.29394e-05 0.00930708)
(9.18024e-06 -3.4912e-05 0.00931299)
(1.76741e-05 -2.51134e-05 0.00930901)
(3.09855e-05 -1.29132e-05 0.00929599)
(1.37e-05 -7.69206e-05 0.00930538)
(2.34121e-05 -6.44282e-05 0.00930531)
(3.80267e-05 -4.49492e-05 0.00928577)
(5.79082e-05 -2.86554e-05 0.00924689)
(5.03611e-06 -2.38221e-05 0.00931569)
(9.44189e-06 -2.54821e-05 0.00931553)
(1.09319e-05 -2.62365e-05 0.00930905)
(8.77906e-06 -2.40125e-05 0.00930006)
(3.6547e-06 -2.7966e-05 0.00931697)
(8.94234e-06 -2.68331e-05 0.00931904)
(1.28732e-05 -2.46162e-05 0.00931379)
(1.34851e-05 -1.97728e-05 0.00930227)
(7.68356e-06 -3.53595e-05 0.00931707)
(1.33936e-05 -3.04875e-05 0.00931666)
(1.90914e-05 -2.35361e-05 0.0093079)
(2.28661e-05 -1.50238e-05 0.00928929)
(1.38791e-05 -4.86816e-05 0.00931829)
(2.18274e-05 -4.22823e-05 0.00931296)
(3.07344e-05 -3.20322e-05 0.00929378)
(3.75385e-05 -2.2706e-05 0.00925855)
(6.20638e-06 -1.97497e-05 0.00931608)
(8.11995e-06 -1.99401e-05 0.00931487)
(8.73718e-06 -1.94185e-05 0.00930981)
(7.44269e-06 -1.73821e-05 0.0093001)
(6.1563e-06 -2.24044e-05 0.00931859)
(8.87166e-06 -2.12541e-05 0.00931758)
(1.06921e-05 -1.91816e-05 0.00931176)
(1.01745e-05 -1.58582e-05 0.00929922)
(8.1347e-06 -2.61087e-05 0.0093202)
(1.16702e-05 -2.34082e-05 0.00931716)
(1.46559e-05 -1.93702e-05 0.00930748)
(1.51276e-05 -1.45815e-05 0.00928811)
(1.1191e-05 -3.11302e-05 0.00931942)
(1.61268e-05 -2.79254e-05 0.00931254)
(2.05787e-05 -2.27739e-05 0.00929492)
(2.23365e-05 -1.81238e-05 0.0092623)
(5.82648e-06 -1.53187e-05 0.00931717)
(6.64329e-06 -1.51401e-05 0.00931546)
(6.82737e-06 -1.44638e-05 0.0093109)
(5.93865e-06 -1.30212e-05 0.00930114)
(6.00841e-06 -1.68998e-05 0.00931949)
(7.41658e-06 -1.60769e-05 0.00931739)
(8.23227e-06 -1.46459e-05 0.0093116)
(7.51118e-06 -1.26051e-05 0.00929917)
(6.99287e-06 -1.85867e-05 0.00932049)
(9.03754e-06 -1.71359e-05 0.00931677)
(1.04952e-05 -1.4908e-05 0.00930752)
(1.00462e-05 -1.22927e-05 0.009289)
(8.44515e-06 -2.02702e-05 0.00931743)
(1.13235e-05 -1.86675e-05 0.00931067)
(1.35216e-05 -1.6069e-05 0.00929495)
(1.37588e-05 -1.36577e-05 0.00926512)
(4.86598e-06 -1.15532e-05 0.00931796)
(5.22692e-06 -1.13297e-05 0.00931613)
(5.22363e-06 -1.07825e-05 0.00931185)
(4.57434e-06 -9.82901e-06 0.00930222)
(5.03536e-06 -1.24226e-05 0.00931968)
(5.78281e-06 -1.1911e-05 0.00931735)
(6.13411e-06 -1.10233e-05 0.00931179)
(5.4769e-06 -9.80546e-06 0.00929969)
(5.51921e-06 -1.31021e-05 0.00931971)
(6.6811e-06 -1.23453e-05 0.00931599)
(7.39093e-06 -1.11502e-05 0.00930733)
(6.7819e-06 -9.72404e-06 0.00928966)
(6.18507e-06 -1.34636e-05 0.0093149)
(7.82977e-06 -1.26679e-05 0.0093086)
(8.93608e-06 -1.13501e-05 0.00929424)
(8.70126e-06 -1.00938e-05 0.00926616)
(3.81881e-06 -8.57546e-06 0.00931848)
(3.99094e-06 -8.39287e-06 0.00931672)
(3.91746e-06 -8.00183e-06 0.00931266)
(3.4372e-06 -7.38036e-06 0.00930321)
(3.93856e-06 -9.01564e-06 0.00931959)
(4.34999e-06 -8.71794e-06 0.00931733)
(4.48999e-06 -8.18592e-06 0.00931205)
(3.96091e-06 -7.45301e-06 0.00930027)
(4.17266e-06 -9.21945e-06 0.00931878)
(4.84162e-06 -8.83437e-06 0.00931528)
(5.19486e-06 -8.19298e-06 0.00930712)
(4.65563e-06 -7.40187e-06 0.00929007)
(4.46624e-06 -9.09019e-06 0.00931276)
(5.4159e-06 -8.69724e-06 0.00930693)
(5.9912e-06 -8.01884e-06 0.00929346)
(5.675e-06 -7.35124e-06 0.00926645)
(2.88481e-06 -6.28155e-06 0.00931878)
(2.97155e-06 -6.14938e-06 0.00931714)
(2.8844e-06 -5.88273e-06 0.00931327)
(2.53104e-06 -5.47572e-06 0.00930399)
(2.96063e-06 -6.48539e-06 0.00931939)
(3.19579e-06 -6.31578e-06 0.00931728)
(3.24241e-06 -5.99833e-06 0.00931224)
(2.83929e-06 -5.55203e-06 0.00930073)
(3.07193e-06 -6.47994e-06 0.00931794)
(3.46613e-06 -6.28613e-06 0.00931467)
(3.64397e-06 -5.93852e-06 0.00930689)
(3.22093e-06 -5.49028e-06 0.00929027)
(3.19467e-06 -6.20048e-06 0.00931112)
(3.75361e-06 -6.00961e-06 0.00930565)
(4.06113e-06 -5.65377e-06 0.00929276)
(3.78238e-06 -5.29188e-06 0.0092664)
(2.11233e-06 -4.52426e-06 0.00931893)
(2.16077e-06 -4.43118e-06 0.00931743)
(2.08268e-06 -4.25197e-06 0.00931371)
(1.82711e-06 -3.98435e-06 0.00930458)
(2.15951e-06 -4.6013e-06 0.00931917)
(2.30003e-06 -4.50536e-06 0.00931721)
(2.30752e-06 -4.31407e-06 0.00931237)
(2.01068e-06 -4.03869e-06 0.00930106)
(2.21214e-06 -4.51812e-06 0.00931727)
(2.45033e-06 -4.42159e-06 0.0093142)
(2.54099e-06 -4.23036e-06 0.00930668)
(2.22748e-06 -3.97106e-06 0.00929035)
(2.25814e-06 -4.22945e-06 0.00930993)
(2.59464e-06 -4.13876e-06 0.00930472)
(2.76325e-06 -3.94947e-06 0.00929218)
(2.55018e-06 -3.74867e-06 0.00926622)
(1.49631e-06 -3.15664e-06 0.00931901)
(1.53282e-06 -3.09293e-06 0.00931761)
(1.46801e-06 -2.97549e-06 0.00931402)
(1.28518e-06 -2.80156e-06 0.009305)
(1.52532e-06 -3.16457e-06 0.00931898)
(1.61455e-06 -3.11441e-06 0.00931714)
(1.60626e-06 -3.002e-06 0.00931244)
(1.39356e-06 -2.83276e-06 0.00930128)
(1.5487e-06 -3.07004e-06 0.00931678)
(1.69578e-06 -3.02548e-06 0.00931385)
(1.74166e-06 -2.92184e-06 0.00930651)
(1.51849e-06 -2.76984e-06 0.00929036)
(1.56039e-06 -2.83045e-06 0.0093091)
(1.76552e-06 -2.79081e-06 0.00930406)
(1.86077e-06 -2.69058e-06 0.00929175)
(1.70717e-06 -2.5798e-06 0.00926604)
(1.01615e-06 -2.05268e-06 0.00931908)
(1.04951e-06 -2.01379e-06 0.00931775)
(9.97527e-07 -1.94264e-06 0.00931423)
(8.69238e-07 -1.83564e-06 0.00930528)
(1.03158e-06 -2.02852e-06 0.00931886)
(1.09031e-06 -2.00887e-06 0.0093171)
(1.07539e-06 -1.94936e-06 0.00931249)
(9.28709e-07 -1.85149e-06 0.00930142)
(1.03806e-06 -1.95521e-06 0.00931645)
(1.12846e-06 -1.94064e-06 0.00931361)
(1.14882e-06 -1.88924e-06 0.00930638)
(9.97355e-07 -1.80411e-06 0.00929036)
(1.0348e-06 -1.78774e-06 0.00930855)
(1.15734e-06 -1.7754e-06 0.00930362)
(1.20929e-06 -1.72588e-06 0.00929145)
(1.10414e-06 -1.6681e-06 0.00926589)
(6.60771e-07 -1.11457e-06 0.00931914)
(6.85886e-07 -1.09709e-06 0.00931785)
(6.4584e-07 -1.06148e-06 0.00931438)
(5.60305e-07 -1.00588e-06 0.00930547)
(6.64822e-07 -1.08957e-06 0.0093188)
(6.99607e-07 -1.08827e-06 0.00931708)
(6.81136e-07 -1.06408e-06 0.00931253)
(5.86443e-07 -1.01685e-06 0.00930152)
(6.62011e-07 -1.05108e-06 0.00931626)
(7.11086e-07 -1.05313e-06 0.00931347)
(7.13453e-07 -1.03414e-06 0.00930631)
(6.17435e-07 -9.94047e-07 0.00929036)
(6.52658e-07 -9.60761e-07 0.00930822)
(7.1696e-07 -9.63345e-07 0.00930335)
(7.37929e-07 -9.4501e-07 0.00929127)
(6.68946e-07 -9.20741e-07 0.00926579)
(4.48702e-07 -3.03535e-07 0.0093192)
(4.51398e-07 -3.01385e-07 0.00931794)
(4.2084e-07 -2.93325e-07 0.0093145)
(3.66269e-07 -2.78074e-07 0.00930562)
(4.44705e-07 -3.00456e-07 0.0093188)
(4.50231e-07 -3.06746e-07 0.00931712)
(4.26679e-07 -3.0558e-07 0.0093126)
(3.68929e-07 -2.96664e-07 0.00930163)
(4.36433e-07 -2.98214e-07 0.00931619)
(4.45996e-07 -3.08442e-07 0.00931345)
(4.28948e-07 -3.1171e-07 0.00930633)
(3.70131e-07 -3.0773e-07 0.00929042)
(4.23449e-07 -2.80236e-07 0.00930809)
(4.37136e-07 -2.92707e-07 0.00930327)
(4.25824e-07 -2.98422e-07 0.00929124)
(3.75313e-07 -3.01816e-07 0.00926581)
(0.000706951 0.000423589 0.0197871)
(0.00119942 -0.000125956 0.0109371)
(0.00420331 9.37231e-05 0.0223689)
(0.00029716 0.002275 0.0149008)
(0.000120672 0.000630156 0.00788226)
(0.000779194 0.00060626 0.00706311)
(0.00353679 0.000731782 0.0151901)
(0.00113599 0.00312735 0.0137644)
(0.0015067 0.000905732 0.0194033)
(0.00146984 0.00155507 0.012982)
(0.00243737 0.00084639 0.0149309)
(0.00210208 0.00389842 0.0175554)
(6.62371e-05 -8.76676e-05 0.00196238)
(0.000841641 -0.000157669 0.00769094)
(0.00226242 -0.000895464 0.0146866)
(0.00124947 0.000819082 0.0150468)
(-0.00161673 7.59287e-05 0.0209318)
(0.000284582 0.00120234 0.0118886)
(0.000749394 -0.000267223 0.0216371)
(0.00210281 0.00117926 0.018525)
(-6.16907e-05 0.000525832 0.0236439)
(-7.93619e-05 0.000586076 0.0175125)
(8.90436e-05 0.000465667 0.00361558)
(0.000406813 3.93163e-05 0.012702)
(0.000869922 0.000681836 0.0182941)
(0.00131924 3.3165e-05 0.0247179)
(0.000451666 0.000848402 0.0253469)
(-0.000941538 -4.76653e-05 0.0255294)
(0.00221957 0.00205665 0.0345841)
(-0.000351225 0.00131955 0.0259424)
(-0.000472115 -0.000426158 0.0127453)
(0.000868365 0.00072686 0.0299765)
(8.18044e-05 5.6594e-05 0.0101839)
(0.000258345 0.000852847 0.0233525)
(-0.00070553 0.00205591 0.0169438)
(3.93342e-05 -0.000285805 0.000879685)
(-0.00013642 0.00038272 0.0056943)
(0.000332561 -0.00122633 0.0268118)
(0.000215924 -0.000170457 0.0172438)
(-0.0017722 0.000561272 0.0374481)
(-0.000791406 -0.0012276 0.0226765)
(-0.00066727 -0.000677017 0.0100441)
(-0.00160514 -0.00188346 0.0350422)
(-0.00135236 -0.00193916 0.0160798)
(-0.00140552 -0.0014801 0.0121822)
(0.000172942 -0.00149934 0.0253324)
(0.000153338 -0.000135826 0.0171774)
(-0.00135073 -0.000161572 0.0335408)
(0.00122758 0.00227811 0.0123788)
(-0.00218945 0.00185016 0.0278915)
(-0.00142921 0.000688588 0.0113031)
(-0.000995763 -0.000363957 0.0149059)
(0.00134241 0.00298773 0.0212193)
(-0.00271621 0.0017421 0.0165254)
(-0.00219707 0.000726708 0.022113)
(-0.00040006 -0.000385644 0.0244153)
(0.00039584 -0.00235191 0.034856)
(-0.00438293 0.000319273 0.0257111)
(-0.00336485 0.000754789 0.0214178)
(-0.000838061 -0.000283664 0.0136987)
(-0.00148314 -0.001759 0.0235208)
(-0.00193851 -0.00136161 0.0163287)
(-0.00126812 0.000194542 0.0170149)
(-0.00145901 -0.000180838 0.0275985)
(0.00108141 0.00472267 0.0182531)
(-0.00516691 0.00569595 0.0336629)
(-0.00162694 0.000852457 0.0156984)
(-0.000731898 0.000292929 0.0102635)
(-0.00110512 0.00440239 0.0318029)
(-0.00247284 0.00113367 0.0103412)
(-0.00238549 0.000845226 0.0170078)
(-0.00116438 0.000954745 0.0284602)
(-7.42082e-05 -0.000121177 0.000738443)
(-0.00774516 0.000985531 0.0350565)
(-0.00299653 0.00293381 0.0328165)
(-0.000940916 0.000244599 0.0137866)
(-0.00080701 -0.00125933 0.0115013)
(-0.00160205 0.000425176 0.0158507)
(-0.00176835 0.00107357 0.0164587)
(-0.00202647 0.000154047 0.0288774)
(-0.00238328 0.0104106 0.0250927)
(-0.000383196 0.000373771 0.00740915)
(0.000868187 0.00141883 0.0121622)
(-0.000221153 0.000419155 0.00280973)
(-9.1443e-05 0.000205457 0.0009648)
(-0.00233772 0.0018176 0.0133481)
(-0.000536144 0.000783104 0.00773421)
(-0.00148354 0.000638211 0.0133847)
(-0.00108684 -0.00234053 0.01327)
(-0.000438522 0.000711385 0.0100721)
(-0.000486941 8.00545e-05 0.0135863)
(-0.000464533 0.000828286 0.00917717)
(-0.000130903 0.000656357 0.00846066)
(-0.000592991 0.000556209 0.0105551)
(-0.000774266 0.000769543 0.0140555)
(-0.00118324 0.000366066 0.0114013)
(-9.36868e-05 -0.000308187 0.00248988)
(0.00018588 0.000652274 0.0111371)
(0.000600011 0.00288033 0.00502156)
(-0.000252192 0.000902447 0.0113071)
(8.18876e-05 -0.00100685 0.000894881)
(0.00133683 -2.39316e-05 0.00689938)
(-0.000263745 -8.06916e-05 0.0117505)
(-0.00118547 -0.00177151 0.0111455)
(0.00275448 0.00778027 0.0412816)
(0.000647658 0.000413023 0.018005)
(-0.000585039 0.000290981 0.0149016)
(-3.68536e-05 -0.000103526 0.0127265)
(0.000501655 0.00122 0.00979753)
(0.00024113 0.000601061 0.0106666)
(-0.000191376 0.000242948 0.0125984)
(-0.000655644 -0.000667299 0.0153491)
(6.50304e-05 -0.00164542 0.013896)
(0.000925581 -0.000683109 0.0153581)
(-0.000140381 -0.000673651 0.0145878)
(-0.000359543 -0.000873583 0.0191044)
(-0.000135702 -0.00182041 0.0346613)
(0.00156424 -0.00134191 0.018647)
(0.000206695 -0.00132201 0.0188403)
(-0.000177157 -0.00114886 0.0163129)
(-0.000955057 0.000460536 0.0289308)
(0.0016016 -0.000662683 0.0231808)
(0.000998418 -0.000697619 0.0201181)
(0.000196002 -0.000939203 0.0161614)
(0.000649083 0.0005535 0.0183327)
(0.00111705 2.37169e-05 0.0176593)
(0.000913196 -0.00034127 0.0183816)
(0.000448389 -0.000654122 0.01875)
(-3.04411e-05 -0.00200423 0.00407621)
(-0.000312037 -0.00122234 0.00403637)
(-0.000989049 -0.000660263 0.00390271)
(-0.000560665 -0.000174146 0.00474103)
(0.000202178 -0.00167815 0.0071134)
(0.000516689 -0.0013345 0.00512482)
(-0.00024116 -0.000867245 0.00451643)
(-8.91606e-05 -0.000520611 0.00406855)
(0.000852071 0.000171283 0.00704305)
(0.000752262 -0.000485751 0.00605552)
(0.000407523 -0.000610588 0.00476742)
(9.15441e-05 -0.000740184 0.00371519)
(0.00115049 0.000349214 0.00553724)
(0.000479291 7.96827e-05 0.00517732)
(0.000371198 -0.000236029 0.00453193)
(0.000263949 -0.000547822 0.00378262)
(2.73935e-06 -0.00090173 0.0105792)
(-3.13366e-05 -0.000620687 0.0105876)
(-0.000100706 -0.000303856 0.0106408)
(0.000158765 -5.38362e-05 0.0108487)
(0.000140282 -0.000805073 0.0117784)
(0.000338817 -0.00067822 0.0111649)
(0.000296638 -0.000425748 0.010809)
(0.000390023 -0.000205261 0.0105323)
(0.000407211 -0.000111285 0.0118706)
(0.000541675 -0.000295298 0.011473)
(0.000636339 -0.000336796 0.010817)
(0.00054053 -0.000321281 0.010273)
(0.000600499 5.49059e-05 0.0112381)
(0.000532575 -7.32648e-05 0.0110726)
(0.000669238 -0.000274277 0.010647)
(0.000563128 -0.000391935 0.0101704)
(7.70724e-06 -0.00040286 0.00899787)
(-1.3229e-05 -0.000307796 0.00897986)
(-1.7627e-05 -0.00017371 0.00888099)
(0.000104938 -0.000117248 0.00877304)
(7.90909e-05 -0.000370078 0.00938538)
(0.000127158 -0.000314253 0.00918157)
(0.000141412 -0.000192877 0.008874)
(0.000199867 -0.000131976 0.00856999)
(0.000184625 -0.000168201 0.00943339)
(0.00021532 -0.000216115 0.00925021)
(0.000262532 -0.000204915 0.00879201)
(0.00024184 -0.000202012 0.00836031)
(0.000260383 -5.07204e-05 0.00916561)
(0.000234852 -0.000105995 0.0090256)
(0.000298107 -0.000176594 0.00860274)
(0.000258743 -0.00022706 0.00816993)
(3.32022e-05 -0.000203938 0.00936702)
(5.6304e-05 -0.000164063 0.00936514)
(9.51478e-05 -0.000100298 0.00931792)
(0.000146919 -5.82501e-05 0.00926346)
(6.92806e-05 -0.00018597 0.00947666)
(0.000116446 -0.00016345 0.00941919)
(0.00016463 -0.000108358 0.00928901)
(0.000183416 -6.9101e-05 0.00916909)
(0.00011282 -9.77682e-05 0.00946727)
(0.000159244 -0.000114587 0.00940438)
(0.000216556 -0.000107032 0.00921285)
(0.000200724 -9.47297e-05 0.00904909)
(0.000144223 -3.2222e-05 0.00933742)
(0.000174156 -6.67189e-05 0.00928916)
(0.000228994 -0.000108869 0.00909467)
(0.000190475 -0.000125473 0.00892745)
(2.76774e-05 -0.00010592 0.00933686)
(4.40647e-05 -9.04725e-05 0.00932154)
(6.48702e-05 -6.2352e-05 0.0092701)
(8.55793e-05 -4.75845e-05 0.00919669)
(4.44498e-05 -9.6793e-05 0.00935737)
(6.8802e-05 -8.79842e-05 0.00931829)
(9.31704e-05 -6.30435e-05 0.00922367)
(9.84206e-05 -4.9192e-05 0.00911884)
(6.19295e-05 -6.04184e-05 0.00931371)
(8.67475e-05 -6.86231e-05 0.00926584)
(0.000112054 -6.41973e-05 0.00913904)
(0.000101165 -6.17787e-05 0.00901399)
(7.40446e-05 -2.28481e-05 0.00918668)
(9.40907e-05 -4.15851e-05 0.00914225)
(0.000116831 -6.13103e-05 0.00900772)
(9.58033e-05 -7.0768e-05 0.00888372)
(2.07215e-05 -5.81028e-05 0.00932316)
(3.15682e-05 -5.16427e-05 0.00930916)
(4.30961e-05 -3.92143e-05 0.00927289)
(5.16845e-05 -3.24056e-05 0.00921883)
(2.83752e-05 -5.20709e-05 0.00930822)
(4.23713e-05 -4.88893e-05 0.00928264)
(5.54247e-05 -3.81632e-05 0.00922446)
(5.65662e-05 -3.16026e-05 0.00915548)
(3.56569e-05 -3.46532e-05 0.0092477)
(5.04634e-05 -3.91421e-05 0.00921622)
(6.35604e-05 -3.73548e-05 0.00914196)
(5.73192e-05 -3.58833e-05 0.00906573)
(4.06842e-05 -1.37568e-05 0.00912493)
(5.45515e-05 -2.42699e-05 0.00909559)
(6.58415e-05 -3.47105e-05 0.00901874)
(5.38114e-05 -3.92201e-05 0.00894793)
(1.43898e-05 -3.36432e-05 0.00931207)
(2.07504e-05 -3.09218e-05 0.00929914)
(2.62878e-05 -2.54771e-05 0.00926965)
(2.98472e-05 -2.29981e-05 0.00922276)
(1.78765e-05 -2.94746e-05 0.00928267)
(2.56397e-05 -2.84617e-05 0.00926236)
(3.17482e-05 -2.40156e-05 0.0092193)
(3.15907e-05 -2.15404e-05 0.00916308)
(2.10239e-05 -2.01017e-05 0.00921332)
(2.93649e-05 -2.28528e-05 0.00918871)
(3.52955e-05 -2.26727e-05 0.00913631)
(3.15479e-05 -2.26312e-05 0.00907684)
(2.31454e-05 -8.13157e-06 0.00908925)
(3.14006e-05 -1.41075e-05 0.00906598)
(3.62846e-05 -1.98291e-05 0.00901355)
(2.96341e-05 -2.26839e-05 0.00896091)
(9.91068e-06 -2.04139e-05 0.00930412)
(1.35749e-05 -1.92847e-05 0.00929256)
(1.62905e-05 -1.68965e-05 0.00926743)
(1.80154e-05 -1.60791e-05 0.00922543)
(1.14633e-05 -1.7452e-05 0.00926817)
(1.5891e-05 -1.72662e-05 0.00925108)
(1.88664e-05 -1.55108e-05 0.00921624)
(1.85992e-05 -1.46195e-05 0.0091676)
(1.28097e-05 -1.19719e-05 0.00919429)
(1.76839e-05 -1.37214e-05 0.00917383)
(2.05149e-05 -1.41564e-05 0.00913303)
(1.84319e-05 -1.45064e-05 0.00908314)
(1.3732e-05 -4.88973e-06 0.00906894)
(1.87163e-05 -8.3999e-06 0.00904977)
(2.09878e-05 -1.17913e-05 0.00901083)
(1.73357e-05 -1.36614e-05 0.00896881)
(6.84048e-06 -1.28844e-05 0.00929847)
(8.94868e-06 -1.2434e-05 0.00928799)
(1.03078e-05 -1.14131e-05 0.00926536)
(1.12445e-05 -1.1291e-05 0.00922602)
(7.51113e-06 -1.07504e-05 0.00925927)
(1.0076e-05 -1.08606e-05 0.00924415)
(1.15611e-05 -1.02568e-05 0.00921358)
(1.13917e-05 -1.00359e-05 0.00916881)
(8.07545e-06 -7.34273e-06 0.00918299)
(1.09481e-05 -8.50261e-06 0.00916502)
(1.23608e-05 -9.0984e-06 0.00913007)
(1.12042e-05 -9.56831e-06 0.00908497)
(8.47894e-06 -3.01477e-06 0.00905684)
(1.14732e-05 -5.13924e-06 0.00904018)
(1.25683e-05 -7.24543e-06 0.00900804)
(1.05403e-05 -8.5671e-06 0.00897127)
(4.75038e-06 -8.38029e-06 0.00929461)
(5.98305e-06 -8.22299e-06 0.00928491)
(6.69158e-06 -7.80784e-06 0.00926374)
(7.25829e-06 -7.93202e-06 0.00922593)
(5.02647e-06 -6.84955e-06 0.00925371)
(6.54661e-06 -7.02972e-06 0.00923981)
(7.32589e-06 -6.90199e-06 0.00921158)
(7.24438e-06 -6.93231e-06 0.00916896)
(5.25465e-06 -4.63523e-06 0.00917612)
(6.97958e-06 -5.41988e-06 0.00915968)
(7.72123e-06 -5.98785e-06 0.00912784)
(7.08817e-06 -6.42018e-06 0.00908534)
(5.42408e-06 -1.90089e-06 0.00904953)
(7.2368e-06 -3.23562e-06 0.00903445)
(7.81301e-06 -4.60368e-06 0.0090059)
(6.66915e-06 -5.53876e-06 0.00897201)
(3.30967e-06 -5.55819e-06 0.00929197)
(4.0446e-06 -5.52773e-06 0.0092828)
(4.42949e-06 -5.37618e-06 0.0092625)
(4.79699e-06 -5.56683e-06 0.00922557)
(3.41339e-06 -4.46501e-06 0.00925014)
(4.331e-06 -4.64332e-06 0.00923701)
(4.7611e-06 -4.69045e-06 0.00921007)
(4.73024e-06 -4.80107e-06 0.00916866)
(3.49638e-06 -2.99329e-06 0.00917183)
(4.54798e-06 -3.53103e-06 0.00915632)
(4.9611e-06 -4.00274e-06 0.00912616)
(4.60786e-06 -4.35802e-06 0.00908512)
(3.56343e-06 -1.22573e-06 0.009045)
(4.67131e-06 -2.08372e-06 0.0090309)
(4.99503e-06 -2.99464e-06 0.00900428)
(4.33486e-06 -3.6613e-06 0.00897198)
(2.29744e-06 -3.71157e-06 0.00929019)
(2.74434e-06 -3.73144e-06 0.00928137)
(2.96221e-06 -3.69089e-06 0.00926157)
(3.21031e-06 -3.87671e-06 0.00922518)
(2.32746e-06 -2.93951e-06 0.00924782)
(2.89073e-06 -3.09264e-06 0.00923517)
(3.13959e-06 -3.18741e-06 0.00920897)
(3.13449e-06 -3.30978e-06 0.00916827)
(2.34935e-06 -1.95476e-06 0.00916909)
(2.99846e-06 -2.32643e-06 0.00915416)
(3.24177e-06 -2.68937e-06 0.00912494)
(3.04242e-06 -2.96256e-06 0.00908475)
(2.37128e-06 -7.99631e-07 0.00904214)
(3.05516e-06 -1.35987e-06 0.00902865)
(3.24932e-06 -1.97262e-06 0.00900309)
(2.86045e-06 -2.44387e-06 0.00897172)
(1.56736e-06 -2.44767e-06 0.00928899)
(1.84125e-06 -2.48246e-06 0.0092804)
(1.96748e-06 -2.48454e-06 0.00926091)
(2.13433e-06 -2.63775e-06 0.00922484)
(1.5677e-06 -1.91813e-06 0.0092463)
(1.91517e-06 -2.03841e-06 0.00923396)
(2.06401e-06 -2.13064e-06 0.00920819)
(2.06757e-06 -2.23542e-06 0.00916792)
(1.56602e-06 -1.26744e-06 0.00916734)
(1.9673e-06 -1.52167e-06 0.00915276)
(2.11484e-06 -1.78445e-06 0.00912408)
(1.99975e-06 -1.98329e-06 0.0090844)
(1.56927e-06 -5.1854e-07 0.00904032)
(1.99082e-06 -8.83752e-07 0.00902721)
(2.11123e-06 -1.29218e-06 0.00900225)
(1.87864e-06 -1.61621e-06 0.00897144)
(1.02893e-06 -1.53353e-06 0.00928822)
(1.19212e-06 -1.56748e-06 0.00927977)
(1.26309e-06 -1.5833e-06 0.00926046)
(1.36788e-06 -1.6958e-06 0.00922458)
(1.01933e-06 -1.1945e-06 0.00924534)
(1.22697e-06 -1.28094e-06 0.00923318)
(1.31313e-06 -1.35333e-06 0.00920767)
(1.31595e-06 -1.43033e-06 0.00916765)
(1.01004e-06 -7.86422e-07 0.00916623)
(1.24939e-06 -9.53384e-07 0.00915188)
(1.33579e-06 -1.13066e-06 0.0091235)
(1.267e-06 -1.26427e-06 0.00908412)
(1.00598e-06 -3.22741e-07 0.00903919)
(1.25607e-06 -5.53464e-07 0.00902631)
(1.32707e-06 -8.14084e-07 0.00900169)
(1.18718e-06 -1.02424e-06 0.00897121)
(6.42096e-07 -8.23543e-07 0.00928776)
(7.27028e-07 -8.51334e-07 0.0092794)
(7.58267e-07 -8.69417e-07 0.00926019)
(8.0734e-07 -9.40743e-07 0.00922442)
(6.29243e-07 -6.42026e-07 0.00924478)
(7.37294e-07 -6.98884e-07 0.00923272)
(7.76399e-07 -7.4805e-07 0.00920735)
(7.68524e-07 -7.96109e-07 0.00916747)
(6.17487e-07 -4.24208e-07 0.00916559)
(7.40896e-07 -5.25195e-07 0.00915136)
(7.79272e-07 -6.31467e-07 0.00912315)
(7.32353e-07 -7.08163e-07 0.00908394)
(6.10294e-07 -1.77913e-07 0.00903853)
(7.37261e-07 -3.12899e-07 0.00902578)
(7.66529e-07 -4.62414e-07 0.00900134)
(6.79973e-07 -5.79524e-07 0.00897105)
(4.08672e-07 -2.47031e-07 0.00928757)
(4.27796e-07 -2.69203e-07 0.00927926)
(4.18773e-07 -2.88252e-07 0.00926013)
(4.08065e-07 -3.24311e-07 0.00922442)
(3.92752e-07 -2.00097e-07 0.00924454)
(4.17306e-07 -2.35155e-07 0.00923256)
(4.08209e-07 -2.64973e-07 0.00920726)
(3.76236e-07 -2.89849e-07 0.00916747)
(3.78248e-07 -1.41082e-07 0.00916532)
(4.04816e-07 -1.96061e-07 0.00915117)
(3.915e-07 -2.46227e-07 0.00912305)
(3.4374e-07 -2.77834e-07 0.00908393)
(3.67711e-07 -7.00999e-08 0.00903825)
(3.92167e-07 -1.40422e-07 0.00902559)
(3.72022e-07 -2.05901e-07 0.00900125)
(3.08293e-07 -2.48399e-07 0.00897106)
(0.00348494 -0.000699991 0.0186256)
(0.0038557 -0.000937496 0.0175526)
(0.00193094 -0.000594269 0.00935107)
(0.00174738 -0.0011978 0.0150903)
(0.00150599 -0.000825806 0.0104251)
(0.00340148 -0.000795348 0.0193867)
(0.000865449 -0.000897465 0.0107266)
(0.000256157 -0.00137535 0.012088)
(-6.69066e-06 0.00040012 0.00396836)
(0.00201033 0.000448261 0.0141434)
(0.00173462 0.000954308 0.0143969)
(0.000767812 0.00113748 0.0163673)
(-0.00174759 0.00346251 0.0241289)
(0.000344482 0.00132613 0.00855147)
(0.00198552 0.00360082 0.0155445)