/*--------------------------------*- C++ -*----------------------------------*\
| =========                 |                                                 |
| \\      /  F ield         | OpenFOAM: The Open Source CFD Toolbox           |
|  \\    /   O peration     | Version:  2506                                  |
|   \\  /    A nd           | Website:  www.openfoam.com                      |
|    \\/     M anipulation  |                                                 |
\*---------------------------------------------------------------------------*/
FoamFile
{
    version     2.0;
    format      ascii;
    arch        "LSB;label=32;scalar=64";
    class       volVectorField;
    location    "0.04";
    object      Us;
}
// * * * * * * * * * * * * * * * * * * * * * * * * * * * * * * * * * * * * * //

dimensions      [0 1 -1 0 0 0 0];

internalField   nonuniform List<vector> 
1152
(
(0.000149339 -1.37063e-06 8.01343e-05)
(-8.35327e-05 -0.000176303 0.000110826)
(-0.000188915 -0.00024786 7.11974e-05)
(-9.89178e-05 -0.000136757 0.000177693)
(-0.000130943 -0.000164237 0.000116725)
(-1.77691e-05 -0.00025823 0.000106262)
(-0.000190427 -0.000248802 0.000164573)
(-0.000178334 -0.000235317 0.000179075)
(-2.0241e-05 -0.000235185 8.35382e-05)
(-5.03165e-06 -0.000159416 0.000115773)
(-0.000120307 -0.000217028 0.000237372)
(-0.00020276 -6.94135e-05 -1.03704e-05)
(-3.07723e-05 0.000160202 9.25421e-05)
(-8.37462e-05 -0.000106826 0.000126402)
(-8.9036e-05 5.34488e-07 0.000102874)
(-0.000121035 1.95698e-05 5.11492e-05)
(0.000411846 -0.000610062 0.000685451)
(-0.00016763 -2.05784e-05 0.000692733)
(-0.00017746 -7.03458e-06 0.000642266)
(-0.000194759 -2.06053e-06 0.000435293)
(-0.000148631 -0.000213857 0.000420873)
(-0.000129262 -2.43025e-05 0.000598653)
(-9.50929e-05 -1.63808e-05 0.000570562)
(-0.000101162 4.3949e-05 0.000528496)
(-0.000158233 -0.000256543 0.000594407)
(3.9083e-05 -0.00033121 0.000486546)
(-0.000105004 -7.80501e-06 0.000373431)
(-3.07077e-05 -9.30979e-05 0.000278011)
(0.00036186 -0.00048733 0.000402496)
(2.36978e-05 -0.000269148 0.000417385)
(-7.99485e-05 -0.000184082 0.000320026)
(-0.000125954 -0.000216434 0.000243566)
(-0.000248403 -0.000289259 0.000986223)
(-0.000310938 -0.000210735 0.000874489)
(-0.00024835 7.64697e-05 0.000739193)
(-0.000166705 0.000220784 0.000718335)
(-1.52262e-05 -0.000178215 0.000712964)
(-0.000276437 -0.000189008 0.00068381)
(-0.000213561 -3.35353e-05 0.00078149)
(-1.80274e-05 8.43229e-05 0.000673583)
(5.36559e-05 -0.000148236 0.000515623)
(-0.000118638 5.21099e-05 0.000746197)
(-0.000252284 -0.000353753 0.000603254)
(-0.000231465 -0.000239703 0.000493177)
(0.000127184 -0.000329998 0.000474622)
(-7.11846e-05 -0.000137276 0.000442507)
(-6.50666e-05 -3.36165e-05 0.00065557)
(-0.000118235 -0.000328623 0.000613556)
(2.05424e-06 -8.89846e-05 0.000746339)
(-0.000278359 -0.000102768 0.000633251)
(-0.000438316 -0.000277797 0.00069954)
(-0.000309602 0.000142627 0.000604358)
(-0.000169928 -0.000296512 0.000738115)
(-0.00023197 -0.000355393 0.000643644)
(-0.000291925 -0.000292641 0.000802185)
(-0.000261961 -0.000147652 0.000736946)
(-0.000153883 -0.000305947 0.000677466)
(-0.000256275 -0.000319556 0.000675072)
(-0.000250825 -0.000417144 0.000715433)
(-0.000265125 -0.000150049 0.000735566)
(2.33047e-05 -0.000309235 0.000593179)
(-9.47685e-05 -0.000240075 0.000547142)
(-0.00016014 -0.00021488 0.000720481)
(-0.000214563 -0.000206446 0.000827343)
(6.54421e-06 -0.000179814 0.000538187)
(-0.000289998 -0.000175248 0.000486423)
(-0.000400778 -0.00012374 0.000591136)
(-0.00023179 8.10879e-05 0.00063835)
(5.20452e-05 -0.000327717 0.000694546)
(-0.000145804 -0.000192524 0.000639133)
(-0.000292094 -0.000124907 0.000649012)
(-0.000219346 -1.51827e-05 0.000713412)
(-2.09845e-05 -0.000210732 0.000661365)
(-0.000153269 -0.000123797 0.000637638)
(-0.000306488 -4.3293e-05 0.000708444)
(-0.000233976 -2.49638e-05 0.000741773)
(0.000139718 -0.000127024 0.000743946)
(-0.000123056 1.16906e-05 0.000731411)
(-0.000195444 -3.56245e-05 0.000757021)
(-0.000164427 -3.39931e-05 0.000722852)
(-1.32059e-06 -6.02612e-05 0.000554303)
(-9.29364e-05 5.30748e-06 0.000553831)
(-0.000167025 1.61281e-05 0.000524253)
(-0.00019498 4.69404e-05 0.000706754)
(1.55173e-05 -7.11681e-05 0.000606371)
(-0.000112168 -4.79782e-05 0.000509696)
(-0.000115297 1.46852e-05 0.000671442)
(-0.000137992 0.00010401 0.000748972)
(-0.000112695 6.3155e-05 0.000685944)
(-0.000124677 5.08595e-05 0.000632315)
(-0.000130772 2.53056e-05 0.000725556)
(-0.000138519 0.0001083 0.000779243)
(-2.64452e-05 0.000108911 0.00078497)
(-0.000121376 0.000153572 0.000770303)
(-9.55387e-05 0.000100885 0.000753838)
(-0.000142477 8.97419e-05 0.000761237)
(0.000129503 8.16966e-05 0.000461505)
(0.000451941 -0.000165676 0.000552205)
(0.000884124 -0.00077696 0.000185758)
(-0.000137606 3.59177e-05 0.000683556)
(-2.89594e-05 9.71371e-06 0.000510391)
(-9.07072e-05 9.2466e-06 0.000528525)
(0.000659478 -0.000608276 0.000297474)
(-7.57342e-05 3.36283e-05 0.000656419)
(-0.000111168 5.87995e-05 0.000703021)
(-0.00226808 -0.00132972 0.000164227)
(-0.000120169 0.000130919 0.000689931)
(1.66036e-05 0.000334955 0.000851551)
(-0.00127363 -9.01979e-05 0.00113917)
(-5.55626e-05 -0.000298679 0.00050786)
(0.000419325 -0.00428825 -0.0014704)
(-0.00034255 0.000180114 0.000416064)
(0 0 0)
(0 0 0)
(0 0 0)
(0 0 0)
(0 0 0)
(0 0 0)
(0 0 0)
(0 0 0)
(0 0 0)
(0 0 0)
(0 0 0)
(0 0 0)
(0 0 0)
(0 0 0)
(0 0 0)
(0 0 0)
(0 0 0)
(0 0 0)
(0 0 0)
(0 0 0)
(0 0 0)
(0 0 0)
(0 0 0)
(0 0 0)
(0 0 0)
(0 0 0)
(0 0 0)
(0 0 0)
(0 0 0)
(0 0 0)
(0 0 0)
(0 0 0)
(0 0 0)
(0 0 0)
(0 0 0)
(0 0 0)
(0 0 0)
(0 0 0)
(0 0 0)
(0 0 0)
(0 0 0)
(0 0 0)
(0 0 0)
(0 0 0)
(0 0 0)
(0 0 0)
(0 0 0)
(0 0 0)
(0 0 0)
(0 0 0)
(0 0 0)
(0 0 0)
(0 0 0)
(0 0 0)
(0 0 0)
(0 0 0)
(0 0 0)
(0 0 0)
(0 0 0)
(0 0 0)
(0 0 0)
(0 0 0)
(0 0 0)
(0 0 0)
(0 0 0)
(0 0 0)
(0 0 0)
(0 0 0)
(0 0 0)
(0 0 0)
(0 0 0)
(0 0 0)
(0 0 0)
(0 0 0)
(0 0 0)
(0 0 0)
(0 0 0)
(0 0 0)
(0 0 0)
(0 0 0)
(0 0 0)
(0 0 0)
(0 0 0)
(0 0 0)
(0 0 0)
(0 0 0)
(0 0 0)
(0 0 0)
(0 0 0)
(0 0 0)
(0 0 0)
(0 0 0)
(0 0 0)
(0 0 0)
(0 0 0)
(0 0 0)
(0 0 0)
(0 0 0)
(0 0 0)
(0 0 0)
(0 0 0)
(0 0 0)
(0 0 0)
(0 0 0)
(0 0 0)
(0 0 0)
(0 0 0)
(0 0 0)
(0 0 0)
(0 0 0)
(0 0 0)
(0 0 0)
(0 0 0)
(0 0 0)
(0 0 0)
(0 0 0)
(0 0 0)
(0 0 0)
(0 0 0)
(0 0 0)
(0 0 0)
(0 0 0)
(0 0 0)
(0 0 0)
(0 0 0)
(0 0 0)
(0 0 0)
(0 0 0)
(0 0 0)
(0 0 0)
(0 0 0)
(0 0 0)
(0 0 0)
(0 0 0)
(0 0 0)
(0 0 0)
(0 0 0)
(0 0 0)
(0 0 0)
(0 0 0)
(0 0 0)
(0 0 0)
(0 0 0)
(0 0 0)
(0 0 0)
(0 0 0)
(0 0 0)
(0 0 0)
(0 0 0)
(0 0 0)
(0 0 0)
(0 0 0)
(0 0 0)
(0 0 0)
(0 0 0)
(0 0 0)
(0 0 0)
(0 0 0)
(0 0 0)
(0 0 0)
(0 0 0)
(0 0 0)
(0 0 0)
(0 0 0)
(0 0 0)
(0 0 0)
(0 0 0)
(0 0 0)
(0 0 0)
(0 0 0)
(0 0 0)
(0 0 0)
(0 0 0)
(0 0 0)
(0 0 0)
(0 0 0)
(0 0 0)
(0 0 0)
(0 0 0)
(0 0 0)
(0 0 0)
(0 0 0)
(0 0 0)
(0 0 0)
(0 0 0)
(0 0 0)
(0 0 0)
(0 0 0)
(0 0 0)
(0 0 0)
(0 0 0)
(0 0 0)
(0 0 0)
(0 0 0)
(0 0 0)
(0 0 0)
(0 0 0)
(0 0 0)
(0 0 0)
(0 0 0)
(0 0 0)
(0 0 0)
(0 0 0)
(0 0 0)
(0 0 0)
(0 0 0)
(0 0 0)
(0 0 0)
(0 0 0)
(0 0 0)
(0 0 0)
(0 0 0)
(0 0 0)
(0 0 0)
(0 0 0)
(0 0 0)
(0 0 0)
(0 0 0)
(0 0 0)
(0 0 0)
(0 0 0)
(0 0 0)
(0 0 0)
(0 0 0)
(0 0 0)
(0 0 0)
(0 0 0)
(0 0 0)
(0 0 0)
(0 0 0)
(0 0 0)
(0 0 0)
(0 0 0)
(0 0 0)
(0 0 0)
(0 0 0)
(0 0 0)
(0 0 0)
(0 0 0)
(0 0 0)
(0 0 0)
(0 0 0)
(0 0 0)
(0 0 0)
(0 0 0)
(0 0 0)
(0 0 0)
(0 0 0)
(0 0 0)
(0 0 0)
(0 0 0)
(0 0 0)
(0 0 0)
(0 0 0)
(0 0 0)
(0 0 0)
(0 0 0)
(0 0 0)
(0 0 0)
(0 0 0)
(0 0 0)
(0 0 0)
(0 0 0)
(0 0 0)
(0 0 0)
(0 0 0)
(0 0 0)
(0 0 0)
(0 0 0)
(0 0 0)
(0 0 0)
(0 0 0)
(-0.000143319 -0.000141683 0.00014133)
(0.000276027 -4.36694e-05 -4.87175e-05)
(0.000156736 -9.86423e-05 -2.26296e-05)
(-0.000123748 -2.31691e-05 0.000143465)
(-4.90837e-05 -9.71725e-05 7.19058e-05)
(1.7176e-05 -4.63283e-05 -5.22352e-05)
(9.65377e-05 3.00358e-05 1.65626e-05)
(-0.000116951 -2.97686e-06 4.25127e-05)
(-2.78357e-05 -0.000255628 3.06442e-05)
(4.09455e-05 2.59228e-05 5.97663e-05)
(8.36235e-05 3.15612e-05 2.22738e-05)
(-1.92597e-05 8.73968e-05 7.73407e-05)
(-6.20624e-05 -2.43123e-05 2.07503e-05)
(6.25199e-06 7.54954e-06 4.69283e-05)
(4.34636e-05 1.02995e-05 5.80317e-05)
(-1.43681e-05 5.85533e-05 0.000110203)
(1.71456e-05 -0.000292581 0.000285568)
(4.91377e-05 -0.000118306 0.000214768)
(0.000106779 -3.10389e-05 9.73324e-05)
(-2.30522e-05 -4.04503e-05 1.96576e-05)
(5.80414e-05 -0.000274511 0.000228294)
(3.78984e-05 -4.54683e-05 0.00020184)
(-5.25215e-05 8.00728e-05 0.000192914)
(-6.95775e-05 -7.40841e-05 0.000176631)
(-4.00832e-05 -0.000177773 0.000233626)
(9.99068e-05 -5.23398e-05 0.000307753)
(-3.81399e-06 -5.10828e-05 0.000188811)
(-0.000144888 -5.33421e-05 0.000152494)
(-0.000194044 4.19657e-06 0.000135699)
(-4.27473e-05 -3.91444e-05 0.000333122)
(-0.000186937 7.69431e-05 0.000392023)
(4.97482e-05 -4.92222e-05 0.000375246)
(3.90388e-05 -0.000389819 0.000426128)
(1.88922e-05 -0.000254603 0.000380659)
(8.81873e-05 -0.000286718 0.000406141)
(-6.48734e-05 -0.000384516 0.000639572)
(-8.69581e-05 -0.000209337 0.000386619)
(1.39979e-06 -0.000182238 0.000378632)
(-2.07736e-05 -0.000365695 0.00050485)
(-0.000165042 -0.00022501 0.000489378)
(-8.96851e-05 -0.000200867 0.000372262)
(6.40711e-05 -8.41273e-05 0.000634271)
(-0.000308522 -0.000335069 0.000434577)
(-0.000132012 -8.69901e-05 0.000425133)
(-0.000139991 -6.57336e-05 0.000318764)
(7.40063e-05 1.89824e-05 0.000389672)
(0.000109315 -5.30675e-05 0.000367165)
(7.52289e-06 -5.15581e-05 0.000445207)
(0.000122657 -0.000183922 0.000702913)
(-0.000187139 -0.000242179 0.000699975)
(-0.000204111 -0.000165878 0.000670415)
(-0.000189371 -0.000144426 0.000610144)
(-2.23261e-05 -0.000200204 0.000565515)
(-0.00014544 -0.000139313 0.000423002)
(-0.000224035 -0.00019885 0.000588515)
(-0.000196301 -0.000124717 0.000540695)
(4.92945e-05 -0.000175953 0.000425722)
(-6.89073e-05 -7.136e-05 0.000540488)
(-0.000217621 -0.000231189 0.000514828)
(-0.000222083 -8.13242e-05 0.000578383)
(-0.000337067 -7.56928e-05 0.000545761)
(-0.000142835 -9.27946e-05 0.000463889)
(6.34471e-06 -0.000102844 0.000379793)
(-0.000155586 -7.82881e-05 0.000476503)
(-1.5065e-05 7.13034e-05 0.00074261)
(-0.000311346 3.98121e-05 0.000768838)
(-0.000166943 -3.17289e-05 0.000753874)
(-9.31775e-05 -8.42609e-05 0.000673582)
(-0.000133998 1.0011e-05 0.000735195)
(-0.000176927 2.87049e-05 0.000617018)
(-0.000164066 -2.39125e-05 0.000684388)
(-0.0001197 -7.46827e-05 0.000740531)
(-0.000181302 -0.000109442 0.000555339)
(-0.000119638 4.01959e-06 0.000512413)
(-4.80858e-05 -0.00010521 0.000595015)
(-0.000122492 2.0756e-06 0.000684907)
(-0.00020628 -3.06125e-05 0.000317257)
(-0.000160968 7.47021e-05 0.000158307)
(-0.000147346 1.32223e-05 0.000312417)
(-6.95065e-05 2.75912e-05 0.000449363)
(-0.000111707 0.000292909 0.000640577)
(-0.000133241 0.000210634 0.00073983)
(-0.000170492 0.000167899 0.00077461)
(-7.81726e-05 8.93541e-05 0.000768187)
(-0.000198424 0.000301528 0.000712387)
(-0.000128401 0.00025534 0.00061715)
(-0.000200931 0.000177651 0.000714835)
(-5.26115e-06 -4.11153e-05 0.000862015)
(-0.00042804 0.000113032 0.000439784)
(-0.000204682 0.000168715 0.000590669)
(-0.00014086 7.69694e-05 0.000482051)
(-0.000102652 7.51208e-06 0.000724792)
(-0.000201409 -2.03693e-05 0.000137044)
(-7.8017e-05 -2.65471e-05 0.000404461)
(-0.000107645 -1.02691e-05 0.000409807)
(3.7949e-06 -3.92866e-05 0.000475055)
(-0.000221767 0.000179122 0.000635669)
(0.000165314 0.00111481 -0.00104403)
(0.00041306 0.00267911 -0.00383717)
(-0.000345788 0.000453446 0.000705044)
(-0.000247828 0.000397836 0.000565592)
(-0.000366962 0.000785677 -0.000605034)
(-0.000469658 0.000594803 -0.00121785)
(-0.00156382 -0.00171653 0.000484285)
(-0.000754203 0.00029411 0.000412241)
(-0.00106484 9.8643e-05 0.000185033)
(-0.00143668 0.000212145 -0.000268086)
(0.000181605 -1.36463e-05 0.000625656)
(-5.13441e-05 5.54115e-05 5.61646e-05)
(-0.000270433 3.43457e-05 0.000272325)
(-0.000264552 5.87588e-05 0.00049284)
(-0.00021927 -0.000869594 0.000238157)
(0 0 0)
(0 0 0)
(0 0 0)
(0 0 0)
(0 0 0)
(0 0 0)
(0 0 0)
(0 0 0)
(0 0 0)
(0 0 0)
(0 0 0)
(0 0 0)
(0 0 0)
(0 0 0)
(0 0 0)
(0 0 0)
(0 0 0)
(0 0 0)
(0 0 0)
(0 0 0)
(0 0 0)
(0 0 0)
(0 0 0)
(0 0 0)
(0 0 0)
(0 0 0)
(0 0 0)
(0 0 0)
(0 0 0)
(0 0 0)
(0 0 0)
(0 0 0)
(0 0 0)
(0 0 0)
(0 0 0)
(0 0 0)
(0 0 0)
(0 0 0)
(0 0 0)
(0 0 0)
(0 0 0)
(0 0 0)
(0 0 0)
(0 0 0)
(0 0 0)
(0 0 0)
(0 0 0)
(0 0 0)
(0 0 0)
(0 0 0)
(0 0 0)
(0 0 0)
(0 0 0)
(0 0 0)
(0 0 0)
(0 0 0)
(0 0 0)
(0 0 0)
(0 0 0)
(0 0 0)
(0 0 0)
(0 0 0)
(0 0 0)
(0 0 0)
(0 0 0)
(0 0 0)
(0 0 0)
(0 0 0)
(0 0 0)
(0 0 0)
(0 0 0)
(0 0 0)
(0 0 0)
(0 0 0)
(0 0 0)
(0 0 0)
(0 0 0)
(0 0 0)
(0 0 0)
(0 0 0)
(0 0 0)
(0 0 0)
(0 0 0)
(0 0 0)
(0 0 0)
(0 0 0)
(0 0 0)
(0 0 0)
(0 0 0)
(0 0 0)
(0 0 0)
(0 0 0)
(0 0 0)
(0 0 0)
(0 0 0)
(0 0 0)
(0 0 0)
(0 0 0)
(0 0 0)
(0 0 0)
(0 0 0)
(0 0 0)
(0 0 0)
(0 0 0)
(0 0 0)
(0 0 0)
(0 0 0)
(0 0 0)
(0 0 0)
(0 0 0)
(0 0 0)
(0 0 0)
(0 0 0)
(0 0 0)
(0 0 0)
(0 0 0)
(0 0 0)
(0 0 0)
(0 0 0)
(0 0 0)
(0 0 0)
(0 0 0)
(0 0 0)
(0 0 0)
(0 0 0)
(0 0 0)
(0 0 0)
(0 0 0)
(0 0 0)
(0 0 0)
(0 0 0)
(0 0 0)
(0 0 0)
(0 0 0)
(0 0 0)
(0 0 0)
(0 0 0)
(0 0 0)
(0 0 0)
(0 0 0)
(0 0 0)
(0 0 0)
(0 0 0)
(0 0 0)
(0 0 0)
(0 0 0)
(0 0 0)
(0 0 0)
(0 0 0)
(0 0 0)
(0 0 0)
(0 0 0)
(0 0 0)
(0 0 0)
(0 0 0)
(0 0 0)
(0 0 0)
(0 0 0)
(0 0 0)
(0 0 0)
(0 0 0)
(0 0 0)
(0 0 0)
(0 0 0)
(0 0 0)
(0 0 0)
(0 0 0)
(0 0 0)
(0 0 0)
(0 0 0)
(0 0 0)
(0 0 0)
(0 0 0)
(0 0 0)
(0 0 0)
(0 0 0)
(0 0 0)
(0 0 0)
(0 0 0)
(0 0 0)
(0 0 0)
(0 0 0)
(0 0 0)
(0 0 0)
(0 0 0)
(0 0 0)
(0 0 0)
(0 0 0)
(0 0 0)
(0 0 0)
(0 0 0)
(0 0 0)
(0 0 0)
(0 0 0)
(0 0 0)
(0 0 0)
(0 0 0)
(0 0 0)
(0 0 0)
(0 0 0)
(0 0 0)
(0 0 0)
(0 0 0)
(0 0 0)
(0 0 0)
(0 0 0)
(0 0 0)
(0 0 0)
(0 0 0)
(0 0 0)
(0 0 0)
(0 0 0)
(0 0 0)
(0 0 0)
(0 0 0)
(0 0 0)
(0 0 0)
(0 0 0)
(0 0 0)
(0 0 0)
(0 0 0)
(0 0 0)
(0 0 0)
(0 0 0)
(0 0 0)
(0 0 0)
(0 0 0)
(0 0 0)
(0 0 0)
(0 0 0)
(0 0 0)
(0 0 0)
(0 0 0)
(0 0 0)
(0 0 0)
(0 0 0)
(0 0 0)
(0 0 0)
(0 0 0)
(0 0 0)
(0 0 0)
(0 0 0)
(0 0 0)
(0 0 0)
(0 0 0)
(0 0 0)
(0 0 0)
(0 0 0)
(0 0 0)
(0 0 0)
(0 0 0)
(0 0 0)
(0 0 0)
(0 0 0)
(0 0 0)
(0 0 0)
(0 0 0)
(0 0 0)
(0 0 0)
(0 0 0)
(0 0 0)
(0 0 0)
(0 0 0)
(0 0 0)
(0 0 0)
(0 0 0)
(0 0 0)
(0 0 0)
(0 0 0)
(0 0 0)
(0 0 0)
(0 0 0)
(-1.50765e-05 -9.98252e-05 0.000113106)
(7.40242e-05 -9.42454e-05 0.000112742)
(-3.84079e-05 -7.69844e-05 0.000280894)
(-8.62876e-05 -0.000118083 6.31066e-05)
(-2.81606e-05 -0.000226113 0.000117747)
(-5.87758e-05 -0.000207698 2.0518e-05)
(3.24504e-05 -0.000302075 8.04382e-05)
(-8.64296e-05 -0.000141564 8.14651e-05)
(-0.000126697 -0.000177417 5.49322e-05)
(-0.000132356 -4.6789e-05 4.77197e-06)
(-7.7257e-05 -9.16906e-05 4.88573e-05)
(-1.91408e-05 -6.17082e-05 4.42201e-05)
(-0.000111389 -9.29208e-05 0.00012277)
(-0.000121865 2.41949e-05 -5.73766e-05)
(-0.000123734 0.000110354 1.85781e-05)
(-7.96755e-05 1.24405e-06 4.8344e-05)
(-9.29396e-05 -3.41759e-05 0.000465235)
(-7.36054e-05 -5.46652e-05 0.000440287)
(2.64243e-06 -7.82366e-05 0.000361452)
(2.5019e-05 -0.000258124 0.000186245)
(-0.000173281 -7.34171e-05 0.000423522)
(-2.49343e-05 -2.97302e-05 0.000280204)
(1.84016e-05 -0.0002113 0.000338167)
(4.33252e-06 -9.06763e-05 0.000218248)
(-7.40461e-05 -9.27552e-05 0.000344518)
(-9.24653e-05 -4.57328e-05 0.000332121)
(-7.75645e-05 -0.000135136 0.000278522)
(7.53269e-06 -7.6205e-05 0.000200536)
(-0.000289341 -0.000170948 0.000272779)
(-0.00021343 5.28776e-06 0.000316973)
(-0.000158 5.04372e-06 0.000218082)
(-1.27817e-05 -7.8335e-05 0.000162178)
(-0.000110259 -8.73058e-05 0.000691347)
(2.62887e-05 -4.84336e-05 0.000660974)
(-0.000106142 -2.21664e-05 0.000412449)
(2.84978e-07 -0.000369916 0.000316149)
(-0.000129986 -6.40307e-05 0.000560701)
(-9.02672e-05 -8.35454e-06 0.000682206)
(-6.27341e-05 -2.93127e-05 0.000423136)
(2.32338e-05 -0.000203614 0.000439566)
(-0.000184593 -0.000144883 0.000480085)
(-0.000199925 3.40985e-05 0.000475916)
(-0.000180189 4.16341e-05 0.000510198)
(-6.17778e-05 -2.77658e-05 0.000314535)
(-0.000199763 -0.000179654 0.000487077)
(-0.00013706 -7.97823e-05 0.000444097)
(-0.000240524 -7.28613e-05 0.000369402)
(-5.26811e-05 -3.47794e-05 0.000200176)
(-0.000153512 9.42436e-05 0.000592965)
(-4.95244e-05 0.000174522 0.000564122)
(-0.000116343 -5.07685e-06 0.00046478)
(-9.11541e-05 -3.23153e-05 0.000430863)
(-0.000218861 5.1837e-06 0.000621745)
(-7.56953e-05 0.000145526 0.000569082)
(8.4411e-05 -5.54532e-05 0.000539421)
(-0.000100041 0.000105701 0.00044726)
(-0.000211806 -2.80703e-05 0.00064006)
(-0.000138153 -2.96105e-05 0.000635961)
(-5.46634e-05 -9.38908e-06 0.000523164)
(-0.000116757 1.58512e-06 0.000291864)
(-7.08206e-05 -2.04712e-05 0.00062547)
(-3.59159e-06 1.47674e-05 0.000577382)
(-0.00012467 0.000139139 0.000485159)
(-0.000145147 0.000124983 0.00034747)
(-0.000157293 0.000164357 0.000629647)
(-0.000139568 0.000148251 0.000611286)
(-0.000254324 0.000131239 0.000706786)
(-0.000138613 4.5288e-05 0.000395459)
(-0.000148273 9.06003e-05 0.00069944)
(-2.8037e-05 9.3457e-05 0.000693305)
(1.74121e-05 4.06376e-05 0.000778847)
(-9.07833e-05 3.64951e-05 0.000656697)
(-0.000124529 -1.35679e-05 0.000703155)
(-8.19516e-05 1.00262e-05 0.000733352)
(-6.88919e-05 4.03896e-05 0.000625361)
(-0.000156872 7.84298e-05 0.000383804)
(-0.000109691 1.47963e-05 0.000683464)
(-1.87225e-05 5.03385e-06 0.000725823)
(-2.24921e-05 -6.14498e-05 0.000609033)
(-6.65196e-05 4.35062e-05 0.000383999)
(-0.000177709 0.000120986 0.000768866)
(-0.000247257 3.33658e-05 0.000860482)
(-0.00010671 4.15563e-06 0.000808091)
(-0.000113977 0.000197739 0.000613841)
(-0.000119341 0.000115346 0.00081497)
(-5.41178e-05 8.50215e-05 0.000890664)
(1.72812e-05 9.49279e-05 0.000804041)
(-5.82782e-05 2.44171e-05 0.000569289)
(-0.000159946 9.71546e-05 0.000788417)
(-0.00014266 2.43388e-05 0.000792681)
(-0.000104309 0.000105195 0.000715764)
(-3.67745e-05 7.03078e-05 0.00020333)
(-0.000127545 6.65997e-05 0.000712184)
(4.06714e-06 -0.000104292 0.000691869)
(9.04652e-05 -0.000163781 0.000569585)
(5.16423e-05 0.000113458 0.000491888)
(-0.00142817 0.00157839 3.17659e-05)
(-0.000117539 -8.76568e-05 0.000967782)
(-8.16508e-05 -3.81057e-05 0.000846928)
(-6.27425e-05 8.63002e-05 0.000470313)
(-0.000247943 0.000447139 0.000697402)
(-3.20151e-05 9.38028e-05 0.000684686)
(-0.000276993 -8.59656e-05 0.000204615)
(3.60731e-05 -2.36327e-06 0.000483255)
(-0.000221404 -0.000858791 -0.00090141)
(-0.000516585 -2.02272e-05 0.000552586)
(0.000532022 -0.000764448 0.000558192)
(-0.00156113 0.00136895 -0.00145023)
(-0.00573727 -0.00774075 -0.0109811)
(-0.000255215 -0.000711747 0.000380429)
(0.000369955 -0.00074214 0.000267177)
(-0.000182906 -0.000303703 9.61099e-05)
(0 0 0)
(0 0 0)
(0 0 0)
(0 0 0)
(0 0 0)
(0 0 0)
(0 0 0)
(0 0 0)
(0 0 0)
(0 0 0)
(0 0 0)
(0 0 0)
(0 0 0)
(0 0 0)
(0 0 0)
(0 0 0)
(0 0 0)
(0 0 0)
(0 0 0)
(0 0 0)
(0 0 0)
(0 0 0)
(0 0 0)
(0 0 0)
(0 0 0)
(0 0 0)
(0 0 0)
(0 0 0)
(0 0 0)
(0 0 0)
(0 0 0)
(0 0 0)
(0 0 0)
(0 0 0)
(0 0 0)
(0 0 0)
(0 0 0)
(0 0 0)
(0 0 0)
(0 0 0)
(0 0 0)
(0 0 0)
(0 0 0)
(0 0 0)
(0 0 0)
(0 0 0)
(0 0 0)
(0 0 0)
(0 0 0)
(0 0 0)
(0 0 0)
(0 0 0)
(0 0 0)
(0 0 0)
(0 0 0)
(0 0 0)
(0 0 0)
(0 0 0)
(0 0 0)
(0 0 0)
(0 0 0)
(0 0 0)
(0 0 0)
(0 0 0)
(0 0 0)
(0 0 0)
(0 0 0)
(0 0 0)
(0 0 0)
(0 0 0)
(0 0 0)
(0 0 0)
(0 0 0)
(0 0 0)
(0 0 0)
(0 0 0)
(0 0 0)
(0 0 0)
(0 0 0)
(0 0 0)
(0 0 0)
(0 0 0)
(0 0 0)
(0 0 0)
(0 0 0)
(0 0 0)
(0 0 0)
(0 0 0)
(0 0 0)
(0 0 0)
(0 0 0)
(0 0 0)
(0 0 0)
(0 0 0)
(0 0 0)
(0 0 0)
(0 0 0)
(0 0 0)
(0 0 0)
(0 0 0)
(0 0 0)
(0 0 0)
(0 0 0)
(0 0 0)
(0 0 0)
(0 0 0)
(0 0 0)
(0 0 0)
(0 0 0)
(0 0 0)
(0 0 0)
(0 0 0)
(0 0 0)
(0 0 0)
(0 0 0)
(0 0 0)
(0 0 0)
(0 0 0)
(0 0 0)
(0 0 0)
(0 0 0)
(0 0 0)
(0 0 0)
(0 0 0)
(0 0 0)
(0 0 0)
(0 0 0)
(0 0 0)
(0 0 0)
(0 0 0)
(0 0 0)
(0 0 0)
(0 0 0)
(0 0 0)
(0 0 0)
(0 0 0)
(0 0 0)
(0 0 0)
(0 0 0)
(0 0 0)
(0 0 0)
(0 0 0)
(0 0 0)
(0 0 0)
(0 0 0)
(0 0 0)
(0 0 0)
(0 0 0)
(0 0 0)
(0 0 0)
(0 0 0)
(0 0 0)
(0 0 0)
(0 0 0)
(0 0 0)
(0 0 0)
(0 0 0)
(0 0 0)
(0 0 0)
(0 0 0)
(0 0 0)
(0 0 0)
(0 0 0)
(0 0 0)
(0 0 0)
(0 0 0)
(0 0 0)
(0 0 0)
(0 0 0)
(0 0 0)
(0 0 0)
(0 0 0)
(0 0 0)
(0 0 0)
(0 0 0)
(0 0 0)
(0 0 0)
(0 0 0)
(0 0 0)
(0 0 0)
(0 0 0)
(0 0 0)
(0 0 0)
(0 0 0)
(0 0 0)
(0 0 0)
(0 0 0)
(0 0 0)
(0 0 0)
(0 0 0)
(0 0 0)
(0 0 0)
(0 0 0)
(0 0 0)
(0 0 0)
(0 0 0)
(0 0 0)
(0 0 0)
(0 0 0)
(0 0 0)
(0 0 0)
(0 0 0)
(0 0 0)
(0 0 0)
(0 0 0)
(0 0 0)
(0 0 0)
(0 0 0)
(0 0 0)
(0 0 0)
(0 0 0)
(0 0 0)
(0 0 0)
(0 0 0)
(0 0 0)
(0 0 0)
(0 0 0)
(0 0 0)
(0 0 0)
(0 0 0)
(0 0 0)
(0 0 0)
(0 0 0)
(0 0 0)
(0 0 0)
(0 0 0)
(0 0 0)
(0 0 0)
(0 0 0)
(0 0 0)
(0 0 0)
(0 0 0)
(0 0 0)
(0 0 0)
(0 0 0)
(0 0 0)
(0 0 0)
(0 0 0)
(0 0 0)
(0 0 0)
(0 0 0)
(0 0 0)
(0 0 0)
(0 0 0)
(0 0 0)
(0 0 0)
(0 0 0)
(0 0 0)
(0 0 0)
(0 0 0)
(0 0 0)
(0 0 0)
(0 0 0)
(0 0 0)
(0 0 0)
(0 0 0)
(0 0 0)
(0 0 0)
(0 0 0)
(0 0 0)
(0 0 0)
(0 0 0)
(0 0 0)
(0 0 0)
(0 0 0)
(0 0 0)
(0 0 0)
(0 0 0)
(0 0 0)
(0 0 0)
(0 0 0)
(0 0 0)
)
;

boundaryField
{
    inlet
    {
        type            zeroGradient;
    }
    outlet
    {
        type            zeroGradient;
    }
    wall
    {
        type            zeroGradient;
    }
    procBoundary3to1
    {
        type            processor;
        value           nonuniform List<vector> 
192
(
(0.000220263 -3.64154e-05 0.000298333)
(-9.23224e-06 -0.00022947 0.000170617)
(-0.000105194 0.000172947 9.91903e-05)
(-1.49796e-05 -3.98202e-05 0.000161706)
(-2.01475e-05 -6.91392e-05 0.000650399)
(-1.83372e-05 -0.000106118 0.000554001)
(-9.98047e-05 0.000110045 0.000682287)
(-4.08296e-05 0.000330681 0.000568804)
(-0.000128476 -0.000107943 0.000962606)
(-0.000217735 1.13558e-05 0.000902761)
(-0.000575981 0.000103126 0.00126507)
(-0.000490005 0.000130835 0.000649978)
(-2.68447e-05 0.000137891 0.000629862)
(-0.000901877 0.000241322 0.000902508)
(-0.000459523 0.000118937 0.000811882)
(-0.000460094 0.000180789 0.000718099)
(-0.000222169 0.000164146 0.000547938)
(-0.000379332 0.00023201 0.00060582)
(-0.000483537 7.48917e-05 0.000573072)
(-0.000335134 0.00018103 0.000587228)
(-8.25555e-05 4.20698e-05 0.000499594)
(-0.00021623 0.000132839 0.000462598)
(-0.000273302 1.83563e-05 0.000553061)
(-0.000127402 8.21766e-05 0.000603724)
(6.12396e-05 2.93262e-05 0.000413791)
(0.00216951 -0.00289894 -0.000446873)
(0.00035637 -0.000516298 0.000292843)
(-3.53956e-05 2.93103e-05 0.000629919)
(4.46503e-05 -3.20883e-05 0.000411348)
(0 0 0)
(0 0 0)
(0 0 0)
(0 0 0)
(0 0 0)
(0 0 0)
(0 0 0)
(0 0 0)
(0 0 0)
(0 0 0)
(0 0 0)
(0 0 0)
(0 0 0)
(0 0 0)
(0 0 0)
(0 0 0)
(0 0 0)
(0 0 0)
(0 0 0)
(0 0 0)
(0 0 0)
(0 0 0)
(0 0 0)
(0 0 0)
(0 0 0)
(0 0 0)
(0 0 0)
(0 0 0)
(0 0 0)
(0 0 0)
(0 0 0)
(0 0 0)
(0 0 0)
(0 0 0)
(0 0 0)
(0 0 0)
(0 0 0)
(0 0 0)
(0 0 0)
(0 0 0)
(0 0 0)
(0 0 0)
(0 0 0)
(0 0 0)
(0 0 0)
(0 0 0)
(0 0 0)
(0 0 0)
(0 0 0)
(0 0 0)
(0 0 0)
(0 0 0)
(0 0 0)
(0 0 0)
(0 0 0)
(0 0 0)
(0 0 0)
(0 0 0)
(0 0 0)
(0 0 0)
(0 0 0)
(0 0 0)
(0 0 0)
(0 0 0)
(0 0 0)
(0 0 0)
(0 0 0)
(-5.26242e-05 -9.26263e-05 0.00012323)
(4.79397e-05 -4.19837e-05 0.000167315)
(0.000312737 0.000330572 0.000246002)
(0.000136185 0.000433455 6.54494e-05)
(-8.20908e-05 -2.15769e-05 0.000464522)
(-1.01421e-05 -1.56003e-05 0.000426162)
(0.000101069 -8.89236e-05 0.000533554)
(0.000122961 -0.000109111 0.00049517)
(-0.00015214 0.000134322 0.000655127)
(1.93097e-05 0.000129693 0.00053221)
(5.44275e-05 -0.000176583 0.00050723)
(0.00012938 -0.000380621 0.000541671)
(-0.000251152 0.000201049 0.000600675)
(-4.44492e-05 0.000119516 0.000568488)
(6.83075e-05 0.000168001 0.000342291)
(-2.95308e-05 -3.62471e-05 0.000591057)
(-0.000226056 0.000173621 0.000620855)
(-0.000241851 0.00016514 0.000616451)
(-0.000148137 0.000129664 0.000491066)
(-0.00017811 3.84331e-05 0.000414452)
(-0.000106433 9.7246e-05 0.00067083)
(-0.000101591 0.000160875 0.000659037)
(-0.000125222 0.000135638 0.000440248)
(-2.72107e-06 -3.51332e-05 0.000299875)
(0.00111565 0.000850792 0.000171588)
(-3.63869e-05 3.61704e-05 0.000688808)
(-8.63258e-05 -0.000295981 0.000586318)
(0.00269339 0.00356664 -0.00321157)
(0 0 0)
(0 0 0)
(0 0 0)
(0 0 0)
(0 0 0)
(0 0 0)
(0 0 0)
(0 0 0)
(0 0 0)
(0 0 0)
(0 0 0)
(0 0 0)
(0 0 0)
(0 0 0)
(0 0 0)
(0 0 0)
(0 0 0)
(0 0 0)
(0 0 0)
(0 0 0)
(0 0 0)
(0 0 0)
(0 0 0)
(0 0 0)
(0 0 0)
(0 0 0)
(0 0 0)
(0 0 0)
(0 0 0)
(0 0 0)
(0 0 0)
(0 0 0)
(0 0 0)
(0 0 0)
(0 0 0)
(0 0 0)
(0 0 0)
(0 0 0)
(0 0 0)
(0 0 0)
(0 0 0)
(0 0 0)
(0 0 0)
(0 0 0)
(0 0 0)
(0 0 0)
(0 0 0)
(0 0 0)
(0 0 0)
(0 0 0)
(0 0 0)
(0 0 0)
(0 0 0)
(0 0 0)
(0 0 0)
(0 0 0)
(0 0 0)
(0 0 0)
(0 0 0)
(0 0 0)
(0 0 0)
(0 0 0)
(0 0 0)
(0 0 0)
(0 0 0)
(0 0 0)
(0 0 0)
(0 0 0)
)
;
    }
    procBoundary3to2
    {
        type            processor;
        value           nonuniform List<vector> 
192
(
(0.000129473 -0.000136251 0.000236015)
(-3.55783e-05 -0.000223904 0.00013702)
(-0.000121927 0.000126718 0.000147407)
(-3.43639e-05 -5.49624e-05 0.000115741)
(-9.67493e-05 -2.66908e-05 0.000629273)
(-0.000100494 0.000112114 0.000482823)
(-0.000118192 -1.99831e-05 0.000449754)
(-2.92022e-05 -0.000100617 0.000269316)
(-0.000141781 -0.000140398 0.00070024)
(-7.45438e-06 -0.000490063 0.000858413)
(0.000100053 -0.000213193 0.000600832)
(0.000126005 -0.000337904 0.000466902)
(0.000195148 -0.00015136 0.000720249)
(4.75837e-05 -0.000423161 0.000875949)
(5.62271e-06 -0.000347803 0.000750999)
(9.70226e-05 -0.000326308 0.000691887)
(0.000265431 -4.45047e-05 0.000601742)
(6.23998e-05 -0.000239976 0.000754004)
(0.00011551 -0.000164485 0.000744895)
(0.000161118 -8.65245e-05 0.000771052)
(0.000105739 1.80683e-05 0.000631889)
(2.59264e-05 -2.58397e-05 0.000706294)
(4.66124e-06 -0.000105851 0.000733805)
(1.38206e-05 -5.5547e-05 0.000751828)
(9.29978e-05 0.000129207 0.000581868)
(-4.42586e-05 7.51279e-05 0.000698017)
(-0.000173339 -5.89409e-05 0.000792817)
(0.000787017 0.000768516 -0.000348775)
(0 0 0)
(0 0 0)
(0 0 0)
(0 0 0)
(0 0 0)
(0 0 0)
(0 0 0)
(0 0 0)
(0 0 0)
(0 0 0)
(0 0 0)
(0 0 0)
(0 0 0)
(0 0 0)
(0 0 0)
(0 0 0)
(0 0 0)
(0 0 0)
(0 0 0)
(0 0 0)
(0 0 0)
(0 0 0)
(0 0 0)
(0 0 0)
(0 0 0)
(0 0 0)
(0 0 0)
(0 0 0)
(0 0 0)
(0 0 0)
(0 0 0)
(0 0 0)
(0 0 0)
(0 0 0)
(0 0 0)
(0 0 0)
(0 0 0)
(0 0 0)
(0 0 0)
(0 0 0)
(0 0 0)
(0 0 0)
(0 0 0)
(0 0 0)
(0 0 0)
(0 0 0)
(0 0 0)
(0 0 0)
(0 0 0)
(0 0 0)
(0 0 0)
(0 0 0)
(0 0 0)
(0 0 0)
(0 0 0)
(0 0 0)
(0 0 0)
(0 0 0)
(0 0 0)
(0 0 0)
(0 0 0)
(0 0 0)
(0 0 0)
(0 0 0)
(0 0 0)
(0 0 0)
(0 0 0)
(0 0 0)
(-5.97843e-05 -0.000194427 0.000178271)
(9.28597e-05 -0.00019267 0.000112383)
(1.24874e-05 -0.000174295 7.97447e-05)
(-1.65516e-05 -6.19649e-05 5.02326e-05)
(1.733e-05 -0.000263377 0.000387614)
(0.000131816 -0.000192991 0.000401222)
(-0.000135586 -0.00028764 0.000157871)
(9.95755e-05 -1.88477e-05 0.000195036)
(6.81061e-05 -0.000294578 0.0005134)
(0.00011498 -0.000287077 0.000549658)
(-5.30764e-05 -0.000232811 0.000343842)
(6.58202e-05 -1.77311e-05 0.000368716)
(0.000226973 -0.000340268 0.000718904)
(0.000375984 -9.13889e-05 0.000792784)
(9.32517e-05 -0.00019667 0.00040203)
(0.000189742 -3.83904e-05 0.000681481)
(8.02235e-05 -3.36388e-05 0.000786987)
(7.41414e-05 -0.000133317 0.000670744)
(-2.82038e-05 -0.000102129 0.000435606)
(3.44528e-05 -4.73412e-05 0.000277693)
(-5.47415e-05 0.000172166 0.000763273)
(-0.000316327 0.000243092 0.000618928)
(-0.000354045 0.000164011 0.000133626)
(-0.000206932 -0.000110813 0.000505904)
(-0.000184125 0.000300836 0.000487141)
(-0.000429191 0.000550366 0.00057716)
(-0.000289483 4.33394e-05 -0.000367089)
(3.37562e-05 7.03337e-05 0.000352357)
(0 0 0)
(0 0 0)
(0 0 0)
(0 0 0)
(0 0 0)
(0 0 0)
(0 0 0)
(0 0 0)
(0 0 0)
(0 0 0)
(0 0 0)
(0 0 0)
(0 0 0)
(0 0 0)
(0 0 0)
(0 0 0)
(0 0 0)
(0 0 0)
(0 0 0)
(0 0 0)
(0 0 0)
(0 0 0)
(0 0 0)
(0 0 0)
(0 0 0)
(0 0 0)
(0 0 0)
(0 0 0)
(0 0 0)
(0 0 0)
(0 0 0)
(0 0 0)
(0 0 0)
(0 0 0)
(0 0 0)
(0 0 0)
(0 0 0)
(0 0 0)
(0 0 0)
(0 0 0)
(0 0 0)
(0 0 0)
(0 0 0)
(0 0 0)
(0 0 0)
(0 0 0)
(0 0 0)
(0 0 0)
(0 0 0)
(0 0 0)
(0 0 0)
(0 0 0)
(0 0 0)
(0 0 0)
(0 0 0)
(0 0 0)
(0 0 0)
(0 0 0)
(0 0 0)
(0 0 0)
(0 0 0)
(0 0 0)
(0 0 0)
(0 0 0)
(0 0 0)
(0 0 0)
(0 0 0)
(0 0 0)
)
;
    }
}


// ************************************************************************* //
