/*--------------------------------*- C++ -*----------------------------------*\
| =========                 |                                                 |
| \\      /  F ield         | OpenFOAM: The Open Source CFD Toolbox           |
|  \\    /   O peration     | Version:  2506                                  |
|   \\  /    A nd           | Website:  www.openfoam.com                      |
|    \\/     M anipulation  |                                                 |
\*---------------------------------------------------------------------------*/
FoamFile
{
    version     2.0;
    format      ascii;
    arch        "LSB;label=32;scalar=64";
    class       surfaceScalarField;
    location    "0.009";
    object      phi;
}
// * * * * * * * * * * * * * * * * * * * * * * * * * * * * * * * * * * * * * //

dimensions      [0 3 -1 0 0 0 0];

oriented        oriented;

internalField   nonuniform List<scalar> 
1200
(
0.00153711
-2.21784e-06
5.53182e-06
0.00153452
1.93349e-06
-2.07147e-06
0.00153009
7.2732e-06
-5.68508e-06
0.00153589
1.736e-06
5.24963e-08
0.00153873
-7.16782e-07
4.72937e-06
0.00154125
-9.85514e-07
-2.23772e-06
0.00154282
-1.79302e-06
-1.60715e-05
0.00153996
-2.49009e-06
-9.28342e-06
0.00153301
-1.20128e-06
2.04053e-06
0.00153294
-5.3884e-07
6.41926e-06
0.00153072
2.0007e-06
6.83867e-06
0.00152701
2.23178e-06
6.94431e-06
0.00152816
-6.96805e-07
-2.04342e-06
0.00153037
7.07413e-07
-5.66e-06
0.00153344
2.47614e-06
-3.34865e-06
0.0015389
-1.23856e-06
-3.68234e-07
0.00153838
-1.09848e-06
1.38483e-06
0.00153342
6.69541e-07
-1.15898e-06
0.00153083
-2.40996e-07
-3.1707e-06
0.00152915
2.3073e-07
-2.74949e-06
0.00152941
-1.56587e-07
1.29334e-06
0.00152931
-1.08232e-06
3.94296e-06
0.00152389
-9.02025e-07
3.53199e-06
0.00152367
-1.87133e-06
-3.07386e-06
0.00152773
-3.68043e-06
-3.91125e-06
0.00153421
-3.26528e-06
-2.89666e-07
0.00153702
-1.90019e-06
1.26609e-06
0.00153815
5.09468e-07
-1.08963e-06
0.00153804
1.15078e-06
-1.54304e-06
0.00153858
-7.15143e-07
-1.79598e-06
0.00153973
-2.13117e-07
3.05972e-06
-9.79587e-07
8.74549e-06
0.00155429
1.9616e-07
2.28897e-06
0.00155049
4.44403e-06
-6.87907e-07
0.00155084
6.1958e-06
-4.67109e-07
0.0015583
2.06956e-06
2.47471e-07
0.00156914
-1.96593e-06
1.88834e-07
0.00157551
-2.07225e-06
-3.5353e-06
0.00157001
-1.09384e-06
-6.85919e-06
0.00156214
-2.12513e-06
-2.56884e-06
0.00155594
-2.88253e-06
3.22252e-06
0.0015607
-3.57614e-06
4.29927e-06
0.00156646
8.02435e-07
4.16239e-06
0.0015662
3.47537e-06
4.00033e-06
0.00156042
3.84707e-06
4.23554e-07
0.00155881
2.87074e-06
-1.83917e-06
0.00156333
2.02195e-06
-2.92015e-06
0.00156531
-2.33853e-06
5.24229e-09
0.00156269
-1.42798e-06
1.68145e-06
0.00156159
-7.73434e-08
-2.47465e-06
0.00156139
-7.07494e-07
-2.51494e-06
0.00156337
-2.94611e-06
-3.8041e-07
0.0015645
-3.41985e-06
-1.11685e-07
0.00156005
-1.79514e-07
2.93113e-06
0.00155368
1.55501e-06
4.90965e-06
0.00155284
-1.82808e-06
-1.42501e-06
0.00155606
-4.44154e-06
-2.27737e-06
0.00155969
-3.09342e-06
3.81861e-07
0.00155831
9.94663e-07
-1.01845e-06
0.00155856
1.93621e-06
-2.86767e-06
0.00156173
-1.78757e-07
5.92034e-07
0.00156121
-1.90607e-06
2.88262e-06
0.00156116
-3.79962e-06
4.76193e-06
-4.08306e-06
5.45216e-06
0.00155092
1.45567e-06
2.2011e-06
0.00155405
1.47842e-06
9.4665e-07
0.00155711
4.31663e-06
2.3014e-06
0.00156522
1.66963e-06
-1.1808e-06
0.00157544
-2.12666e-06
-1.49e-06
0.00157805
-1.89634e-06
-1.98286e-06
0.00157109
4.00141e-07
-5.01238e-06
0.00156053
1.05512e-07
-1.18984e-06
0.00155584
-5.10317e-06
1.15138e-06
0.00155721
-6.65462e-06
2.77573e-06
0.00155228
4.77358e-06
2.99134e-06
0.00155043
5.81752e-06
1.7577e-06
0.0015591
2.78211e-07
-2.98883e-06
0.0015671
-2.41972e-06
-3.66395e-06
0.00156378
2.88438e-06
-8.66481e-07
0.00155145
4.1224e-06
2.29884e-06
0.00154619
1.81755e-06
-8.68944e-07
0.00155493
-1.52222e-06
-5.6373e-06
0.00156264
-2.28605e-06
-4.61197e-06
0.00156302
-3.51731e-07
-5.01324e-06
0.00156153
-1.919e-06
-2.15967e-06
0.00156103
-1.75448e-06
2.87763e-06
0.00155555
2.78536e-06
4.86217e-06
0.00154892
1.33406e-06
2.36859e-06
0.00154425
-1.58474e-06
-7.93332e-07
0.00154459
-1.16301e-06
-5.14569e-07
0.00155059
-2.12751e-07
-3.30424e-06
0.00155326
5.90559e-07
-2.54228e-06
0.00155447
-2.2354e-06
2.56484e-08
0.0015573
-6.44779e-06
3.31992e-06
0.00155839
-7.01178e-06
5.2681e-06
-2.28334e-06
5.70613e-06
0.00156422
1.87094e-06
1.38647e-06
0.00156498
2.36209e-06
-9.00274e-07
0.00156593
4.62924e-06
-6.55872e-07
0.00156086
6.30355e-06
1.50893e-06
0.00156299
2.66639e-06
-1.22035e-06
0.001574
-1.63333e-06
-6.38341e-06
0.001582
-1.01919e-06
-5.68497e-06
0.00157525
2.69647e-06
4.74637e-07
0.00156218
-6.36497e-07
2.6204e-06
0.0015541
-3.21003e-06
4.51081e-06
0.00155987
-9.77084e-07
5.65976e-06
0.00156437
5.36797e-07
5.30978e-06
0.00156229
1.13895e-06
2.56878e-06
0.00155547
2.99663e-06
7.0646e-07
0.00155638
2.1302e-06
-2.01125e-06
0.00155666
1.92279e-06
-9.55282e-07
0.00155589
2.14156e-06
-5.36513e-07
0.00156022
-2.60541e-06
-2.98262e-06
0.00156205
-4.41381e-06
-2.11972e-06
0.00156275
-2.03968e-06
-2.45393e-06
0.00156219
-1.89988e-06
-6.15138e-07
0.00156113
-2.68177e-06
2.51915e-06
0.00156263
-4.80649e-07
1.83718e-06
0.00156286
1.50399e-06
-1.92961e-06
0.00156279
1.01e-06
-2.93644e-06
0.0015629
1.84536e-06
-3.18833e-06
0.00156343
5.73267e-07
-2.70386e-06
0.00156557
-1.24778e-06
-2.20102e-06
0.00156432
-1.95991e-06
1.82051e-06
0.00156203
-3.52775e-06
2.75006e-06
0.00156573
-8.57971e-06
2.99322e-06
-4.73475e-06
3.28505e-06
0.0015556
-3.52697e-06
2.36913e-06
0.00155345
3.33698e-06
1.0249e-06
0.00155461
5.42335e-06
1.44371e-06
0.00155578
4.21452e-06
2.99154e-06
0.00155532
3.40383e-06
-1.90837e-07
0.00156317
-4.39992e-06
-3.3474e-06
0.00157142
-3.26394e-06
-5.28074e-06
0.00157026
5.85486e-06
-1.95603e-06
0.0015576
7.58916e-06
1.1159e-06
0.00155223
1.66571e-06
-8.59136e-07
0.0015631
-6.70087e-06
-1.77317e-06
0.00156693
-5.54896e-06
3.07749e-06
0.00155892
1.79989e-06
3.88078e-06
0.00155462
5.80378e-06
6.20533e-07
0.00155528
2.13109e-06
-1.06273e-07
0.0015558
2.40954e-07
-2.39784e-06
0.00155936
1.05251e-06
-5.11217e-06
0.00156163
2.72784e-07
-2.38001e-06
0.00156331
-1.2827e-06
-2.23669e-06
0.00156794
-2.93521e-06
-1.97914e-06
0.00156609
-1.75079e-06
4.09058e-07
0.00155784
1.42984e-06
7.41779e-07
0.00155234
3.32214e-06
4.77117e-07
0.00155277
1.02384e-06
-9.61948e-07
0.00155823
-1.9586e-06
-4.19273e-06
0.00155962
1.95701e-06
-2.75285e-06
0.00155738
2.38714e-06
7.02156e-07
0.00155343
1.02167e-06
9.47545e-07
0.00155137
-1.07952e-06
-2.88579e-06
0.00155629
-4.88416e-06
1.01034e-06
0.00155585
-4.27797e-06
4.43637e-06
-5.06763e-06
5.0926e-06
0.00155096
-9.33333e-06
4.96182e-06
0.00155314
-1.52752e-06
3.91714e-06
0.00155886
2.78497e-06
-1.57762e-06
0.00156154
4.70059e-06
-3.4573e-06
0.00155677
5.6544e-06
1.05975e-06
0.00154941
-1.07465e-07
4.26923e-06
0.00154611
-2.81646e-06
4.17856e-06
0.00155244
1.99334e-06
5.18235e-07
0.00156058
2.92221e-06
-2.04404e-06
0.00156478
-1.83199e-06
-3.71363e-06
0.00156276
-4.16282e-06
-1.58122e-06
0.0015549
-1.54011e-06
3.2806e-06
0.00155243
1.99791e-06
1.65526e-06
0.00155579
3.66994e-06
-1.92003e-06
0.00155618
2.1807e-06
-1.70723e-06
0.00155725
-3.11349e-06
-7.84756e-07
0.00156012
-2.47262e-06
-8.74226e-07
0.00156236
2.46463e-06
-2.31247e-07
0.0015602
1.02065e-06
2.94833e-07
0.00155811
-5.25043e-06
9.14388e-07
0.00155623
-3.29287e-06
1.39723e-06
0.00155354
1.28426e-06
-2.86726e-07
0.00155537
8.24612e-07
-2.78133e-08
0.00155489
-4.82274e-08
1.278e-06
0.00155164
2.87908e-07
4.65015e-07
0.00155636
-4.24426e-07
-3.46322e-06
0.00156306
-1.16726e-07
-3.73922e-06
0.00156569
1.4608e-06
-3.55622e-06
0.00156301
2.03906e-06
-2.62564e-06
0.0015518
3.68263e-06
1.75938e-06
0.00154641
2.64095e-06
2.50884e-06
-7.22659e-06
1.46018e-06
0.00155149
-6.32353e-06
6.35377e-06
0.00155115
9.7978e-07
2.77969e-07
0.00155236
3.21826e-06
-3.28607e-06
0.00155774
1.35464e-06
-1.237e-06
0.00156499
1.53889e-06
1.82572e-06
0.00155906
-1.55833e-06
8.00271e-06
0.00155093
-2.03571e-06
7.70484e-06
0.00155431
9.03587e-08
9.14187e-07
0.00155829
1.17076e-06
7.31395e-07
0.001554
-1.53287e-06
9.35314e-07
0.00155595
-4.36794e-06
-8.99513e-07
0.00155963
1.04479e-06
-4.24191e-06
0.00156008
2.23657e-06
-1.62911e-06
0.0015593
3.80232e-07
4.47831e-06
0.00156019
1.09565e-06
-2.45681e-07
0.00155415
1.10545e-06
-3.48439e-06
0.00154996
1.88203e-06
-3.45014e-06
0.00155303
2.08297e-06
-1.9364e-06
0.00155632
9.6554e-07
-2.91966e-06
0.00155408
-3.5356e-06
2.09947e-06
0.00155432
-4.70292e-06
6.33094e-06
0.00155714
-1.05209e-08
4.22037e-06
0.0015577
1.6766e-06
2.39879e-06
0.00155807
-1.37088e-06
-2.98752e-06
0.0015613
-1.56696e-07
-4.93613e-06
0.00156322
-1.08246e-06
-1.77016e-06
0.0015649
-2.10124e-06
-1.17541e-06
0.00156649
-1.30093e-07
1.13393e-06
0.0015643
-4.77159e-08
4.90191e-06
0.0015655
5.40636e-07
-9.82527e-07
0.00156562
3.11447e-06
-6.10349e-06
-3.29896e-06
1.19579e-06
0.00152456
2.7516e-07
0.0015287
-1.83796e-06
0.00153548
-3.24922e-06
0.0015392
-2.00276e-08
0.0015425
2.38989e-06
0.00153809
4.45016e-06
0.00153189
4.37619e-06
0.00153571
-1.00263e-06
0.00154012
-2.172e-06
0.00153078
3.80807e-06
0.00152406
2.13968e-06
0.00153177
-2.67336e-06
0.00153381
7.12347e-07
0.00153359
-1.08099e-06
0.00153731
-5.16072e-06
0.00153822
-1.77934e-06
0.00153786
3.23377e-06
0.00154061
9.47403e-07
0.00154194
-1.11914e-06
0.00153488
3.64299e-06
0.00152852
2.55379e-06
0.00153183
-3.36339e-06
0.0015378
-3.47253e-06
0.00153552
-1.56588e-06
0.00153388
-1.75619e-06
0.00153413
-3.76228e-06
0.00153332
-3.84906e-06
0.00153423
6.75166e-08
0.00153586
3.64731e-06
0.00153894
2.67486e-06
0.00153734
1.94574e-06
2.71627e-06
0.00154126
-2.84989e-06
0.00153711
6.6015e-07
0.00152561
6.07961e-06
0.00152555
1.24615e-06
0.00153784
-3.40476e-06
0.0015426
-7.51112e-07
0.00153711
-6.89199e-07
0.00153099
-2.4017e-06
0.00152766
-1.93362e-06
0.00153108
-2.00226e-06
0.00153212
-7.6622e-07
0.00153214
9.92694e-07
0.00153039
-8.37135e-07
0.00153086
-2.99882e-06
0.00153223
-1.53658e-06
0.00153096
1.40491e-06
0.0015336
-1.12995e-06
0.00153762
-2.77743e-06
0.0015366
9.73842e-07
0.0015349
2.41924e-06
0.00153505
4.05489e-06
0.00153581
2.03547e-06
0.00153335
1.44985e-06
0.00153269
-1.16935e-06
0.00153359
-3.77049e-07
0.00153379
2.06619e-06
0.00153688
-1.41614e-06
0.00153649
-1.39892e-06
0.00153401
-1.06848e-06
0.00153066
-1.42636e-06
0.00152905
6.24797e-07
-1.48703e-06
0.00156811
-3.04837e-06
0.00156712
1.98874e-07
0.00156896
4.689e-06
0.00156837
4.05287e-06
0.00156968
-2.759e-07
0.00157149
1.2267e-06
0.00156568
3.36555e-06
0.00156078
-2.02258e-06
0.00156196
-4.03446e-06
0.00156357
-3.40875e-06
0.00156028
1.20143e-06
0.00155797
1.00814e-06
0.00155594
2.00319e-08
0.00155502
-2.5155e-06
0.00155321
-2.34228e-06
0.0015545
1.52816e-06
0.00155472
8.93762e-07
0.00154937
2.04951e-06
0.00154984
2.96072e-07
0.00155353
-1.26942e-06
0.00155933
-3.38075e-07
0.00156419
2.18359e-07
0.00156434
3.7541e-06
0.00156078
2.04883e-06
0.00156068
1.90127e-08
0.00156194
2.0527e-06
0.00155832
1.03522e-06
0.00155822
-2.2023e-06
0.00156073
-2.54742e-06
0.00156177
-2.37636e-06
0.00156572
-2.46432e-06
-2.98318e-06
0.00155087
3.90404e-07
0.00155752
-1.39124e-06
0.00156963
2.86235e-06
0.00157138
5.53978e-06
0.00157064
4.43226e-07
0.00157252
-2.96748e-07
0.00157328
2.03556e-06
0.00156861
9.81408e-08
0.00156237
-4.78703e-06
0.00156022
-4.46415e-06
0.00156048
3.65124e-06
0.00155986
2.91366e-06
0.00155706
1.81132e-06
0.0015547
-5.03947e-08
0.00155542
-7.47789e-07
0.00155898
6.62015e-07
0.00155745
3.87402e-07
0.00155622
1.25029e-07
0.00155877
-2.11313e-06
0.00155633
-9.0641e-07
0.00155286
-1.34755e-06
0.0015559
-2.33115e-06
0.00156129
6.01864e-07
0.0015625
2.75294e-06
0.00156202
-2.32628e-07
0.00156498
-1.689e-06
0.00156437
-1.70893e-07
0.00156301
-5.3659e-07
0.00156236
-1.70603e-07
0.00156203
-8.95215e-07
0.00156078
-7.61923e-07
-7.19972e-08
0.00156433
-3.22885e-06
0.00156449
-2.13829e-06
0.00156498
2.42363e-06
0.00156694
5.5032e-06
0.00156766
-1.81246e-06
0.00156742
-4.22435e-06
0.00157213
1.89504e-07
0.00156953
5.63416e-06
0.00155745
3.61871e-06
0.00155366
-2.08304e-06
0.00156235
-3.33935e-06
0.00156487
8.59192e-08
0.00156406
1.9031e-06
0.00156197
2.36198e-06
0.00155866
1.82012e-06
0.00156152
-2.14067e-06
0.00156451
-2.88169e-06
0.00156328
-1.22471e-06
0.00156639
-4.27947e-06
0.00156916
-3.1178e-06
0.0015663
7.42208e-07
0.00156314
2.39094e-06
0.00156256
2.7686e-06
0.00156264
2.29188e-06
0.00156135
-4.38538e-07
0.00156204
-2.11314e-06
0.00156075
8.31686e-07
0.00156047
-2.48852e-07
0.00156338
-4.51618e-07
0.00156198
2.72058e-06
0.00155861
2.59666e-06
-1.00477e-06
0.00156505
-2.37402e-06
0.00155884
3.79205e-06
0.00155602
5.45122e-06
0.00155762
7.44206e-06
0.00155911
-3.25776e-06
0.00155769
-5.01133e-06
0.00156092
-4.93523e-07
0.00156707
2.36136e-06
0.00156605
2.1674e-06
0.00155914
5.42914e-07
0.00155722
-3.14205e-06
0.00155972
-1.16553e-06
0.00155501
4.72678e-06
0.00154723
8.1369e-06
0.00155131
6.20009e-07
0.00155583
-4.89513e-06
0.00155683
-5.27521e-06
0.001561
-5.87833e-06
0.0015593
-3.08352e-06
0.0015573
-2.16857e-07
0.00155957
1.74193e-06
0.00156001
3.33362e-06
0.00156033
3.42761e-06
0.00156151
1.8092e-06
0.00155961
-1.24417e-06
0.0015571
-1.94814e-06
0.00156087
-7.69698e-07
0.00156447
-2.36547e-06
0.00156343
-3.05624e-06
0.00156245
-1.07081e-06
0.00156455
-1.55199e-06
-2.98699e-06
0.00154357
2.23101e-07
0.00155134
1.88171e-06
0.00155313
6.58774e-06
0.00155602
4.4941e-06
0.00155242
-3.14146e-06
0.00155296
-3.99623e-06
0.0015652
-3.50743e-07
0.00157387
-6.0639e-07
0.00156969
-5.29994e-07
0.00156028
2.61027e-07
0.0015567
-2.54174e-06
0.00156096
-4.68708e-06
0.00156477
2.11755e-06
0.00156469
9.75523e-06
0.00156226
3.57408e-06
0.0015615
-6.42753e-06
0.00155928
-3.96615e-06
0.00155577
-2.42418e-06
0.00155681
-4.08674e-06
0.00155985
-3.62029e-06
0.00156077
2.07843e-06
0.00156059
4.05267e-06
0.00156115
1.06997e-06
0.0015628
-9.40926e-07
0.00155866
7.50257e-07
0.00155216
9.27978e-07
0.00155323
-1.57262e-06
0.00155179
-2.20327e-06
0.0015537
-4.26595e-06
0.00155934
-3.26844e-06
0.00155641
-1.7845e-06
-9.34825e-08
0.00154588
1.77123e-06
0.00155103
2.23489e-06
0.00155598
3.03043e-06
0.00155896
2.10918e-06
0.00155221
5.66036e-07
0.00155404
-1.08367e-06
0.00156356
-3.35681e-06
0.00156725
-3.23345e-06
0.00157009
-2.35789e-06
0.00157448
-1.04768e-06
0.0015708
4.89453e-07
0.00156181
2.1434e-06
0.00156385
4.57782e-07
0.00157568
2.58154e-06
0.00157453
5.08052e-06
0.00155799
3.91558e-06
0.00154698
1.40998e-06
0.00154566
-1.43698e-06
0.00154246
-1.58277e-06
0.00154639
-5.00785e-06
0.00156103
-6.37681e-06
0.00156974
1.0462e-06
0.00156967
3.22696e-06
0.00156467
6.89669e-07
0.00156154
2.82874e-07
0.00156212
-2.90632e-07
0.00156061
-1.49498e-06
0.00156126
-2.40751e-06
0.00156177
-3.79678e-06
0.00155963
-2.58111e-06
0.00155353
-1.54134e-06
3.29402e-07
0.0015307
0.00153261
0.00153679
0.00153892
0.00153977
0.00153806
0.00153581
0.00153304
0.00153082
0.00153292
0.00153449
0.00153666
0.00153989
0.00154279
0.00154309
0.00153922
0.00153647
0.00153585
0.00153633
0.00153474
0.0015308
0.00153132
0.00153309
0.00153342
0.00153339
0.0015327
0.00152941
0.00152711
0.00152596
0.00152832
0.00153083
)
;

boundaryField
{
    wall
    {
        type            calculated;
        value           uniform 0;
    }
    outlet
    {
        type            cyclic;
        value           nonuniform List<scalar> 
16
(
0.00153838
0.00156028
0.00155357
0.00156743
0.00155549
0.00154987
0.00155847
0.00153034
0.00153545
0.00156897
0.0015583
0.00156049
0.00156614
0.00154705
0.00154717
0.00153151
)
;
    }
    inlet
    {
        type            cyclic;
        value           nonuniform List<scalar> 
16
(
-0.00153838
-0.00156028
-0.00155357
-0.00156743
-0.00155549
-0.00154987
-0.00155847
-0.00153034
-0.00153545
-0.00156897
-0.0015583
-0.00156049
-0.00156614
-0.00154705
-0.00154717
-0.00153151
)
;
    }
    procBoundary2to1
    {
        type            processor;
        value           nonuniform List<scalar> 
256
(
-2.04849e-06
2.72529e-06
2.84372e-06
-7.58313e-06
-6.85724e-06
7.00065e-07
1.63025e-05
1.4628e-05
6.10763e-06
-5.8021e-06
-6.62815e-06
-5.46163e-06
1.58671e-06
2.75044e-06
-2.20131e-06
-3.85418e-06
2.32455e-07
5.45573e-06
5.99941e-06
4.19721e-06
-1.39236e-06
-2.76647e-06
2.78654e-06
5.17078e-06
3.52994e-06
-2.91953e-06
-2.18094e-06
-5.48399e-07
5.04145e-07
1.96495e-06
-3.99126e-06
-6.41413e-06
1.28983e-06
1.97386e-06
1.19707e-06
-8.03882e-06
-9.78188e-06
-1.74555e-06
1.16587e-05
1.00761e-05
4.65294e-06
-6.01651e-06
-8.72103e-06
-4.98765e-06
8.15869e-07
1.27861e-06
-1.1458e-06
-8.79527e-07
1.26458e-06
4.31995e-06
3.18178e-06
1.57891e-06
2.24383e-06
6.16253e-07
-9.99621e-07
2.22879e-06
-1.82525e-07
-4.18105e-06
-4.98856e-07
1.19243e-06
-2.43414e-06
-1.16986e-06
-1.13238e-06
-1.4686e-06
-8.1159e-07
-1.11747e-06
-3.48254e-06
-6.52715e-06
-8.56789e-06
-8.05197e-07
1.04805e-05
9.51427e-06
5.76883e-06
-1.07182e-06
-2.02858e-06
-2.2549e-06
-2.11123e-06
9.50673e-07
3.32327e-06
3.57416e-06
2.88127e-06
-1.65067e-06
-1.52543e-06
2.04092e-06
2.14652e-06
-7.98895e-07
-6.12817e-07
1.09508e-06
2.61266e-06
-1.75809e-06
-1.48706e-06
1.21962e-06
8.17491e-07
-1.61031e-06
-3.14657e-06
-2.67964e-06
1.40589e-06
-7.46058e-07
-6.05683e-07
-1.06888e-06
-5.69985e-06
-4.89348e-06
-8.90873e-07
3.67909e-06
5.98029e-06
1.25568e-07
-5.67773e-06
-4.52788e-06
-1.34907e-06
6.95911e-07
1.85209e-06
2.88093e-06
9.78083e-07
-2.64284e-07
2.41745e-06
3.44634e-06
1.15745e-06
-5.35232e-07
-7.04256e-08
1.53032e-06
4.06195e-07
7.88344e-08
1.37992e-06
1.90355e-06
-8.43211e-07
-3.37903e-06
-5.13463e-06
-2.52834e-06
2.91563e-06
1.49094e-07
-3.39326e-06
-2.07781e-06
-8.43423e-08
-1.73442e-06
-7.21456e-07
-4.70061e-08
3.32275e-06
1.34675e-06
-3.37035e-06
-8.23098e-07
3.4673e-06
8.77076e-07
-5.54296e-07
3.56089e-06
2.63857e-06
-2.77304e-06
-2.57139e-06
-1.75363e-06
1.28624e-06
3.40104e-06
1.21957e-06
1.01038e-06
1.70105e-06
1.25811e-06
-2.75496e-07
7.3151e-07
4.06226e-06
-4.57005e-06
-8.30485e-06
-4.3947e-06
-2.36623e-07
-1.23377e-06
-1.50518e-06
2.86378e-07
1.4576e-06
-1.19465e-06
-1.3265e-06
-2.9903e-06
-1.42399e-06
3.00398e-06
1.06369e-06
5.72266e-07
6.14342e-07
7.01469e-07
1.26324e-06
3.06895e-06
1.53321e-06
-4.20151e-06
-4.40439e-07
3.4873e-06
2.03143e-06
3.12315e-06
6.94127e-07
2.69527e-07
5.42705e-07
1.12188e-06
-4.58115e-07
4.86939e-07
2.18986e-06
8.79795e-07
-4.03646e-06
-2.76335e-06
-2.38044e-06
-2.449e-06
1.64182e-06
-7.95083e-07
-4.96605e-06
-6.21028e-07
-3.5383e-07
-2.38963e-06
-2.96035e-06
3.05339e-06
-8.41734e-07
-2.02198e-06
9.37072e-07
-4.03563e-07
4.38137e-07
5.30782e-06
3.27746e-06
-7.47449e-07
-3.10632e-07
-1.57936e-06
-5.15958e-06
-5.74273e-06
-3.81647e-06
3.93758e-06
2.15293e-06
5.06458e-07
1.48885e-06
-1.1422e-06
-6.2543e-07
2.92608e-06
5.5171e-06
2.02387e-06
-8.13941e-07
-1.3216e-06
-3.12198e-07
-2.34541e-06
-4.14776e-06
-1.59914e-06
-2.14151e-07
-2.72578e-06
-1.07239e-06
4.00219e-06
2.08111e-07
-3.99271e-06
-5.16014e-07
1.68242e-06
2.54406e-06
1.97078e-06
-9.8819e-07
-1.62168e-06
7.59541e-07
-1.2428e-07
-8.94422e-07
4.15169e-08
-8.14904e-07
2.46736e-06
3.24159e-06
2.42891e-06
2.56615e-06
-1.11342e-06
-5.32429e-06
-5.2183e-06
2.77464e-06
9.78946e-07
)
;
    }
    procBoundary2to3
    {
        type            processor;
        value           nonuniform List<scalar> 
256
(
2.56871e-06
1.41519e-06
-2.63305e-07
-1.12984e-06
-4.15221e-06
-6.24627e-06
-9.89453e-06
-7.6376e-07
7.30682e-06
5.00154e-06
6.55901e-06
5.93117e-06
5.46337e-07
-3.12898e-06
-3.1819e-06
-5.04882e-07
-1.27632e-07
-2.39923e-06
-3.12042e-06
-3.47338e-06
-2.90908e-06
1.14212e-06
4.54714e-06
-1.24183e-06
-4.43462e-06
-2.55855e-06
-4.10086e-07
7.03733e-07
2.00266e-06
2.98382e-06
4.04523e-06
3.83009e-06
3.35121e-06
7.55778e-07
-9.13126e-07
-1.96986e-06
-4.25433e-06
-7.32347e-06
-5.09598e-06
1.94849e-06
4.13969e-06
4.09677e-06
5.48626e-06
6.29608e-06
1.5938e-06
-1.40397e-06
-2.99329e-07
-1.40778e-06
-5.6028e-07
-1.95741e-06
-2.30819e-06
-3.82852e-07
-1.51286e-06
-1.09058e-07
2.44924e-06
-1.08457e-06
-2.57381e-06
-8.56476e-07
1.42891e-07
-1.96028e-06
-4.43161e-07
2.79454e-06
3.90648e-06
3.69562e-06
6.19992e-06
-4.11637e-06
-7.97869e-06
-4.42244e-06
-1.46469e-06
-2.34073e-06
-4.4437e-06
1.35895e-06
8.14341e-06
5.97827e-06
2.7975e-07
4.77512e-07
-1.97805e-06
-3.77332e-06
-3.1813e-06
-3.96839e-07
1.1751e-06
-2.48704e-06
-4.74785e-06
-2.93701e-06
2.32023e-06
2.38662e-06
2.61768e-06
4.59583e-07
-6.86095e-08
2.68414e-07
-1.48689e-06
-2.84648e-06
-1.70094e-06
2.17369e-06
4.81056e-06
5.27193e-06
1.16272e-06
-3.12106e-07
-6.9986e-07
-4.1997e-07
3.18688e-07
-2.22162e-06
-8.54539e-06
-2.46095e-06
6.29875e-06
5.91085e-06
3.96139e-06
5.61871e-06
3.29363e-06
3.74764e-07
-1.26665e-06
-1.00671e-06
-2.64046e-07
-3.95916e-07
-3.06635e-06
-3.0161e-06
1.56561e-07
9.60414e-07
2.4462e-07
-1.5424e-06
-1.43935e-06
-3.45889e-06
-2.41162e-06
-2.20789e-06
-8.16242e-07
5.39339e-07
3.00738e-06
2.33206e-06
2.59888e-06
1.30501e-06
1.23697e-06
-5.47598e-07
-2.38555e-07
-1.13715e-06
-7.82909e-06
-4.83528e-06
3.59141e-06
3.42022e-06
-4.2319e-08
1.82054e-06
5.76818e-06
2.62717e-06
-2.98728e-06
-4.15714e-06
-3.72498e-06
-1.8939e-06
-1.72938e-06
-2.88636e-06
-2.85517e-06
-6.46384e-07
-5.00947e-07
-1.65303e-06
-1.49107e-06
-4.04246e-07
-1.47387e-06
-5.3702e-07
7.62484e-07
5.78003e-06
6.48454e-06
5.49259e-06
5.84354e-06
-1.93958e-06
-4.50528e-06
-3.39973e-06
4.54828e-06
2.71449e-06
-8.20508e-06
-5.19021e-06
4.84128e-06
5.9786e-06
1.39e-06
2.55091e-06
4.55407e-07
-3.46587e-06
-2.23137e-06
1.50989e-06
3.97047e-08
-1.74811e-07
2.55583e-07
1.27627e-06
1.37965e-07
-8.25981e-07
1.76987e-06
2.38442e-06
2.60841e-06
1.60821e-07
-4.00198e-06
-2.27885e-06
-3.32714e-06
-1.6901e-06
5.67594e-06
7.92315e-06
6.10094e-06
-5.23019e-06
-4.67758e-06
-1.82508e-06
4.86488e-06
3.259e-06
1.18946e-06
-1.43505e-07
-2.8259e-07
-2.14695e-06
-2.54357e-07
-2.07967e-06
-2.01164e-06
-1.72015e-07
-6.05565e-07
2.71672e-06
2.17652e-06
-1.59663e-06
-2.22501e-06
-4.40875e-07
1.41928e-07
-1.47857e-06
3.096e-07
3.82895e-07
-1.34034e-06
-1.13056e-06
2.57859e-07
6.84636e-07
3.92672e-06
4.68821e-07
-2.44938e-07
7.12367e-06
2.86281e-06
-1.51528e-06
-4.40251e-06
-3.47803e-08
2.09927e-06
5.08343e-06
3.26901e-06
-1.46951e-06
-2.30814e-06
6.60766e-07
1.05302e-06
-2.69517e-06
-2.06221e-06
-1.39638e-06
-3.80184e-07
6.00301e-06
7.3925e-06
1.34775e-07
-3.18809e-06
2.33766e-07
1.14991e-07
-2.84393e-06
-2.00813e-06
-1.2102e-06
-1.44402e-06
-3.36593e-06
-2.05062e-06
-3.82654e-08
9.98081e-07
-2.26029e-06
-2.11394e-06
2.36743e-06
)
;
    }
}


// ************************************************************************* //
