/*--------------------------------*- C++ -*----------------------------------*\
| =========                 |                                                 |
| \\      /  F ield         | OpenFOAM: The Open Source CFD Toolbox           |
|  \\    /   O peration     | Version:  2506                                  |
|   \\  /    A nd           | Website:  www.openfoam.com                      |
|    \\/     M anipulation  |                                                 |
\*---------------------------------------------------------------------------*/
FoamFile
{
    version     2.0;
    format      ascii;
    arch        "LSB;label=32;scalar=64";
    class       volVectorField;
    location    "0.009";
    object      U;
}
// * * * * * * * * * * * * * * * * * * * * * * * * * * * * * * * * * * * * * //

dimensions      [0 1 -1 0 0 0 0];

internalField   nonuniform List<vector> 
512
(
(9.97819 -0.0136178 0.0277238)
(9.94819 -0.0160133 -0.0351628)
(9.95057 0.00480722 -0.0434185)
(9.98153 -0.0074659 0.0137629)
(9.97154 -0.00769884 0.0336805)
(9.9898 -0.00457861 -0.0110002)
(9.96224 -0.00578341 -0.114595)
(9.93734 -0.00889982 -0.104988)
(9.97828 -0.00401671 -0.0397958)
(10.0179 -0.00261178 0.0398626)
(9.96661 0.0107747 0.0508163)
(9.95662 0.0202449 0.0450859)
(9.99819 0.00604208 -0.0252902)
(9.99278 0.00350817 -0.0355117)
(9.97939 0.0152052 0.00068264)
(9.98584 0.00232564 0.0193019)
(9.99684 0.00385616 0.0141666)
(9.98638 0.0010277 -0.0239568)
(9.96922 -0.0131285 -0.0486719)
(9.94361 -0.00202221 -0.0388895)
(9.89124 0.00572968 0.00846026)
(9.8826 0.00246422 0.0217307)
(9.89531 -0.00519451 0.0010666)
(9.98568 -0.00289179 -0.0334892)
(9.97631 -0.00502953 -0.0264957)
(9.93887 -0.00461143 0.0109771)
(9.96301 -0.0052282 0.0130325)
(10.0098 0.00497398 -0.00822436)
(9.96046 0.00188702 -0.0133578)
(9.94607 -0.0108256 -0.0159181)
(9.99746 0.00789163 0.0297112)
(10.0132 0.00402658 0.0664935)
(10.0744 0.00349932 0.0120446)
(10.0757 0.0340359 -0.00134054)
(10.0809 0.0648493 0.000533447)
(10.1119 0.0289571 0.0206218)
(10.1619 -0.0142484 0.0394939)
(10.2012 -0.01947 0.0131323)
(10.1614 -0.0232893 -0.0524197)
(10.0956 -0.0300034 -0.0496529)
(10.1395 -0.0181401 -0.00184276)
(10.1791 -0.00753526 0.0216055)
(10.1517 0.00525426 0.0260794)
(10.1533 0.00660371 0.0259625)
(10.1614 -0.00821333 -0.00403502)
(10.1292 0.0120344 -0.0210401)
(10.117 0.0293857 -0.0174234)
(10.1394 -0.0108349 0.0109439)
(10.1513 -0.0194444 0.0172505)
(10.1713 -0.00111054 -0.0263934)
(10.1749 0.00291204 -0.0304845)
(10.1387 -0.00392183 -0.0241349)
(10.137 -0.00775454 -0.0218094)
(10.1164 -0.00839224 -0.00243738)
(10.0702 -0.00647778 0.0326489)
(10.1196 -0.0147715 0.00132702)
(10.1261 -0.0255792 -0.00515699)
(10.1067 -0.0264911 0.0116554)
(10.1246 -0.0149582 -0.00216521)
(10.1503 -0.00304757 -0.0234732)
(10.146 0.00104577 -0.00142767)
(10.1461 -0.0022522 0.00607757)
(10.1158 -0.00348182 0.009261)
(10.0784 -0.00384083 0.0225607)
(10.1128 -0.0185525 -0.00604045)
(10.0891 0.024966 -0.000262574)
(10.0582 0.0478135 0.0183813)
(10.1324 0.00972058 0.0084345)
(10.2121 -0.00858522 0.0198241)
(10.2403 -0.00181299 0.00562709)
(10.1947 0.0126365 -0.0424226)
(10.0877 0.00123246 -0.0432508)
(10.1152 -0.019529 -0.016699)
(10.1555 -0.028609 0.0118237)
(10.1149 0.0137404 0.0131234)
(10.0944 0.0370671 0.0097904)
(10.1714 0.0289614 -0.00318964)
(10.1911 0.012823 -0.0117152)
(10.1953 0.00689876 -0.00652809)
(10.0948 -0.00247671 -0.00152691)
(10.0782 -0.00457609 -0.0114759)
(10.1302 -0.00953774 -0.0128304)
(10.1203 -0.0115231 -0.00934386)
(10.1225 -0.0158181 -0.0150153)
(10.1174 -0.0288381 -0.0178964)
(10.0815 0.00476622 0.008617)
(10.0831 0.0316823 0.0228328)
(10.1187 -0.00170694 0.00784955)
(10.1223 -0.0318093 -0.0147873)
(10.1467 -0.0221192 -0.00191795)
(10.1552 0.00434332 -0.00601802)
(10.1391 0.0297726 -0.0166666)
(10.1295 0.010532 0.008851)
(10.1353 -0.0135241 0.0280546)
(10.1062 -0.0402986 0.0304363)
(10.087 -0.0630515 0.0221502)
(10.1668 0.0401673 0.00198812)
(10.1657 -0.0167962 0.00272774)
(10.142 -0.013692 0.00309671)
(10.1278 0.0147044 0.0152025)
(10.1516 -0.00609836 0.0106575)
(10.169 -0.0161188 -0.0192458)
(10.1549 0.000551569 -0.0247213)
(10.1574 0.00525044 0.000457569)
(10.1411 -0.0389421 0.000552774)
(10.1425 -0.0656527 0.0142545)
(10.1537 0.013059 0.0424097)
(10.1529 0.0433067 0.0369835)
(10.1751 -0.00330136 0.0114099)
(10.1668 -0.0248356 -0.000675449)
(10.107 0.0111004 -0.0149712)
(10.0925 0.032146 -0.00919744)
(10.1042 0.0278212 0.00083888)
(10.1589 -0.0046523 -0.00706852)
(10.1545 -0.0175207 -0.0118627)
(10.1542 0.00520167 -0.0311091)
(10.1458 -0.00045848 -0.0256051)
(10.1246 -0.0322024 0.00488579)
(10.1415 -0.0122253 0.00738449)
(10.1473 0.00975377 -0.0164941)
(10.1369 0.0146607 -0.0159328)
(10.1126 0.0162294 -0.00749234)
(10.1081 -5.40427e-05 -0.0103013)
(10.1489 -0.0225614 -0.000670629)
(10.1145 -0.0302861 0.0157874)
(10.098 -0.0443367 0.0214787)
(10.111 -0.0520935 0.0332053)
(10.1594 0.0253412 0.0220893)
(10.1478 0.014231 -0.0116909)
(10.1356 0.0604029 -0.0100368)
(10.0927 0.0545691 0.00931307)
(10.083 0.0381318 0.0160628)
(10.1048 0.0266177 -0.00406523)
(10.1224 -0.0265147 -0.00700014)
(10.1315 -0.0225463 -0.00378091)
(10.1713 0.0229761 0.00991398)
(10.1297 0.037395 -0.0149078)
(10.1266 0.0287978 -0.0263669)
(10.1695 -0.0207038 0.00766717)
(10.1698 -0.0309235 0.0150251)
(10.1679 0.00360871 -0.0105934)
(10.149 0.0398868 -0.0146599)
(10.0914 0.0114588 -0.00604635)
(10.059 0.000860994 -0.0155198)
(10.073 0.0105641 -0.0159359)
(10.1396 -0.0121587 0.00948248)
(10.1472 -0.0245176 0.00701156)
(10.1269 -0.022589 0.00219668)
(10.1316 -0.0158611 0.0026661)
(10.1283 -0.00570702 -0.0026398)
(10.131 0.0133591 -0.0057162)
(10.1449 0.0164304 -0.0107942)
(10.1496 -0.00492912 -0.0293474)
(10.1427 0.00152903 -0.0304231)
(10.1226 0.0112635 -0.0132597)
(10.118 0.00561197 -0.00250305)
(10.1182 -0.0131438 -0.014401)
(10.1209 -0.0432798 0.0168923)
(10.1265 -0.0653945 0.0388232)
(10.1422 -0.065516 0.032872)
(10.098 -0.0729957 0.00438652)
(10.1176 -0.00903699 0.0199771)
(10.1433 0.033155 -0.00311865)
(10.0887 0.0339712 -0.0163213)
(10.0852 0.039333 -0.0116061)
(10.1215 -0.0059819 0.0251145)
(10.1191 -0.0273647 0.0479157)
(10.1199 0.0269566 0.0260936)
(10.1319 0.04524 -0.0173808)
(10.1582 0.00390005 -0.0516778)
(10.1741 -0.0418169 -0.0116474)
(10.164 -0.0363419 0.0237402)
(10.1433 0.0128018 0.00516339)
(10.116 0.0445484 -0.0181636)
(10.1021 0.0210587 -0.0200702)
(10.127 -0.0027577 -0.0233902)
(10.1632 -0.0128697 -0.0156853)
(10.1777 0.0039919 0.014013)
(10.1667 -0.00571239 0.00712849)
(10.1198 -0.0304734 -0.00951779)
(10.106 -0.0116382 -0.00893071)
(10.1088 0.0262854 -0.0223551)
(10.1221 0.0136811 -0.0117734)
(10.114 -0.00350573 -0.000289679)
(10.1123 -0.00837992 -0.00250777)
(10.1353 0.0087855 -0.0153084)
(10.1159 0.0120548 -0.0079858)
(10.0959 0.0112672 -0.00591196)
(10.1168 0.0161535 -0.00759396)
(10.1313 0.0188128 -0.00171809)
(10.153 0.000708138 0.0223284)
(10.1427 -0.0365523 0.000467337)
(10.1017 -0.0560386 0.0136428)
(10.12 -0.0121072 0.0126894)
(10.1322 0.00281506 0.00139608)
(10.1016 0.00280312 0.00977997)
(10.1138 0.00991531 0.0276221)
(10.1292 -0.0100539 0.0365444)
(10.1336 -0.0144996 0.0251828)
(10.1253 0.000979566 0.000685957)
(10.1238 -0.00474422 -0.00332755)
(10.1482 -0.0265962 -0.0134348)
(10.1841 -0.0408507 0.0164158)
(10.1904 0.00786155 0.0171075)
(10.1751 0.0141253 0.00794155)
(10.1666 0.00901386 0.0190278)
(10.1374 0.013142 0.00269265)
(10.0632 -0.00756047 -0.0315255)
(10.0539 -0.0057533 -0.0315565)
(10.0822 0.0245592 -0.000834385)
(10.0917 0.0271801 0.000677139)
(10.1071 -0.0158296 0.0167858)
(10.1044 -0.0307107 0.0330714)
(10.1104 0.00271039 0.0308079)
(10.114 0.0132682 0.0208966)
(10.1373 -0.00602473 -0.021234)
(10.1317 -0.00113663 -0.014702)
(10.1117 -0.00628362 -0.0054097)
(10.1118 -0.00602553 -0.0332884)
(10.1348 -0.00148878 -0.00906315)
(10.1594 -0.00799717 0.0342355)
(10.1478 0.0113126 -0.00239779)
(10.1636 0.0377737 -0.0512216)
(10.1418 -0.016582 -0.0238967)
(9.97714 -0.0295885 -0.000238546)
(10.0145 0.0125626 0.0158461)
(9.99547 0.0285647 0.0174741)
(9.94973 0.0199322 0.0114842)
(9.96595 0.0140643 0.0139527)
(9.97415 0.000209045 0.016534)
(9.96356 -0.00531077 0.0243436)
(9.97216 0.0070194 0.00832526)
(9.99706 0.0148906 -0.0173404)
(9.96128 0.00666108 -0.00544709)
(9.9514 0.00182784 0.0101411)
(9.98758 0.0114755 0.0110558)
(9.98127 0.0133055 0.00776964)
(9.98534 -0.00522534 -0.015312)
(9.97279 -0.00992164 -0.031458)
(9.97085 0.00323682 -0.0143012)
(9.98519 0.0130878 0.00682426)
(9.98276 0.00400034 0.00648839)
(9.98088 -0.014281 -0.00267861)
(9.97328 -0.0389934 0.0236898)
(9.98017 -0.0328793 0.0209554)
(9.9869 -0.013736 -0.0211874)
(9.98005 -0.00539553 -0.0118006)
(9.97066 7.18107e-05 -0.0165544)
(9.96003 0.0103582 -0.0119392)
(9.95025 -0.00659819 -0.0134372)
(9.95119 -0.0290195 -0.023427)
(9.93066 -0.000782576 0.0135556)
(9.91958 0.0148412 0.0238303)
(9.94163 0.00272903 0.0198827)
(9.94311 -0.00388323 0.0173374)
(9.94131 -0.0188522 0.00904581)
(10.0317 0.00392148 0.0337538)
(9.98309 0.00109215 0.012517)
(9.92506 -0.0105399 -0.00529535)
(9.93565 -0.0259165 0.00249354)
(9.97313 -0.0231211 0.00311769)
(9.95316 -0.0134789 -0.0406165)
(9.93012 -0.010098 -0.121232)
(9.92602 -0.010633 -0.026646)
(9.96114 -0.00777621 0.0559372)
(9.95815 -0.0108441 0.0461142)
(9.94138 -0.00160063 0.0452309)
(9.94856 0.0157284 0.0470729)
(9.97272 0.00846064 0.0073693)
(9.9519 -0.00415727 -0.0221141)
(9.92949 0.00473512 -0.0208563)
(9.93569 0.0169837 -0.00835314)
(9.95133 0.00104145 -0.0045548)
(9.96718 -0.023245 -0.0196241)
(9.97456 -0.00290871 -0.0131039)
(9.96723 0.00938439 -0.00589934)
(9.93216 0.0238561 -0.00483848)
(9.92716 0.0173269 0.013821)
(9.94372 0.009749 0.0324785)
(9.98981 -0.00277297 0.00906133)
(9.97104 0.0113542 -0.0101345)
(9.96449 0.0229088 -0.014893)
(9.98801 -0.0133104 -9.14458e-05)
(10.0046 -0.01647 0.00274377)
(9.9184 -0.0201671 0.00361946)
(9.88478 -0.0376203 0.0036208)
(9.9541 -0.0127702 0.032328)
(10.0053 0.00204017 0.0558804)
(10.1317 -0.0199775 0.0186494)
(10.1666 0.000672574 -0.00318981)
(10.1919 0.0531627 -0.00806764)
(10.1656 0.0289208 -0.0104411)
(10.1461 -0.010335 -0.0267626)
(10.1664 0.000201597 -0.0584895)
(10.1377 0.00203497 -0.0508634)
(10.1221 -0.0266597 0.00890597)
(10.1678 -0.0223578 0.0474461)
(10.1663 -0.00961326 0.0389508)
(10.1454 -0.0043996 0.0344992)
(10.1323 -0.00708871 0.0294518)
(10.1418 -0.0118738 0.00597411)
(10.1348 -0.0261014 -0.0111403)
(10.1292 -0.0164204 -0.00845041)
(10.1256 0.0097577 -0.0047141)
(10.0991 -0.0036326 0.00203362)
(10.0909 -0.00567292 -0.0140172)
(10.1134 0.00629747 -0.0118562)
(10.1333 0.00888145 0.0117516)
(10.1341 0.0216607 0.0134259)
(10.1155 0.0170415 0.0246864)
(10.1228 0.0193912 0.0302577)
(10.1508 -0.00545934 -0.0114701)
(10.1259 -0.00918597 -0.0173036)
(10.103 0.0140552 -0.00275563)
(10.1249 0.00700275 -0.00405305)
(10.1332 -0.011297 -0.00965907)
(10.1099 -0.0105493 0.0063297)
(10.1209 -0.00301219 0.0134486)
(10.1507 0.00247791 0.0308492)
(10.1337 -0.00965229 0.0368977)
(10.1561 -0.0218581 0.0446534)
(10.1679 -0.00371211 0.00482964)
(10.1698 0.0369011 -0.00657105)
(10.1771 0.0431244 -0.0131246)
(10.1815 0.00710367 -0.0202429)
(10.1616 0.0115272 -0.0309757)
(10.1454 0.0349815 -0.0389564)
(10.1372 0.00260318 0.0181289)
(10.157 -0.0351442 0.0336223)
(10.1583 -0.0373954 0.021989)
(10.1214 0.0194184 0.0137672)
(10.1189 0.0242839 0.0126902)
(10.137 0.0120485 -0.0123313)
(10.1537 -0.013892 -0.0372185)
(10.1512 -0.0264125 -0.0203007)
(10.1109 -0.00420985 0.0154677)
(10.1032 0.0084151 0.0118833)
(10.1379 0.0163968 -0.0319035)
(10.1321 -0.00471211 -0.0533469)
(10.1244 -0.0123023 -0.0565854)
(10.0964 -0.019824 -0.0138218)
(10.0776 -0.0206034 0.0141105)
(10.1317 0.00975291 0.0223681)
(10.182 0.0271528 0.0162244)
(10.1548 0.00616112 0.00789588)
(10.1269 -0.000686661 0.00293698)
(10.1261 0.00381119 -0.0109884)
(10.1029 -0.00279514 -0.0121932)
(10.095 -2.06699e-05 -0.0032621)
(10.1112 -0.00685607 0.00743065)
(10.143 -0.0204432 0.0243688)
(10.1447 -0.0247232 0.0485758)
(10.1853 -0.00193192 0.0135811)
(10.1599 -0.0127652 -0.00582218)
(10.112 -0.00906774 -0.0105055)
(10.1353 0.00388425 -0.00573485)
(10.1592 -0.00816584 -0.0149986)
(10.1547 -0.016455 -0.0441606)
(10.1304 0.00346602 -0.0500982)
(10.1436 0.0130207 0.00776308)
(10.1434 -0.00804689 0.0436493)
(10.1426 -0.0267099 0.0435183)
(10.1652 0.00516164 0.0218231)
(10.1725 0.00790346 0.0222607)
(10.1475 0.00714165 0.00939811)
(10.1171 0.0141481 -0.00665715)
(10.1239 0.0259526 -0.0118661)
(10.1334 0.0176713 -0.00424442)
(10.1423 1.61501e-05 0.00272909)
(10.1534 -0.00191965 -0.00475976)
(10.1542 -0.0183415 -0.0122876)
(10.1567 -0.00708983 -0.00235817)
(10.1488 0.000969186 0.0173949)
(10.1193 -0.00101592 0.0201126)
(10.1327 0.00657618 0.01221)
(10.1624 0.00998715 -0.00360317)
(10.1403 -0.00370281 -0.00993029)
(10.1044 -0.0138308 -0.0260307)
(10.1115 -0.0036686 -0.0311645)
(10.1161 -0.00672909 -0.0246871)
(10.1099 -0.00758532 0.00384729)
(10.1103 0.00423465 0.00888127)
(10.1338 0.0133675 0.00478878)
(10.1573 0.0101864 0.0195527)
(10.1539 -0.00396354 0.0352945)
(10.1637 0.00253965 0.0305822)
(10.1325 0.0347589 0.0211598)
(10.1118 0.0563179 0.0100152)
(10.1235 -0.0122988 0.00332275)
(10.1241 -0.0354466 -0.00825549)
(10.1157 -0.00463618 -0.0589855)
(10.1212 0.0297399 -0.039217)
(10.1413 0.0373176 0.0269915)
(10.137 0.0129414 0.0262895)
(10.1556 -0.0301612 -0.0165052)
(10.1634 -0.00569317 0.00953467)
(10.1707 0.0311263 0.0516408)
(10.1895 0.0266576 0.0301496)
(10.1529 -0.0145694 -0.00492677)
(10.1117 -0.040613 -0.0323666)
(10.1202 -0.0439127 -0.0473651)
(10.1571 -0.0232706 -0.0243611)
(10.1611 -0.0206511 -0.0208613)
(10.1579 -0.0129387 -0.0256979)
(10.1544 0.00100089 -0.0141601)
(10.1268 0.0185791 -0.00220382)
(10.1296 0.0241936 0.00326863)
(10.1423 0.0219694 -0.0061882)
(10.1245 -0.00258137 -0.0074241)
(10.1077 -0.0218089 -0.00339905)
(10.1224 0.00284947 0.00570061)
(10.1226 0.000706429 0.00952537)
(10.1299 -0.00413778 -0.00980536)
(10.1368 0.00645191 0.0115283)
(10.1163 0.00650777 0.0298601)
(10.1135 -0.00336546 0.0365265)
(10.1576 -0.0413688 0.0514263)
(10.2206 0.0136272 0.00481)
(10.1664 0.04232 -0.0244094)
(10.1161 0.054034 -0.0243325)
(10.1274 -0.0150775 0.020077)
(10.1227 -0.0388056 0.0224965)
(10.1546 -0.00257575 -0.0119087)
(10.1816 0.00911984 -0.0194784)
(10.1857 0.00333052 0.00364977)
(10.1378 -0.00140352 0.0184499)
(10.1198 -0.0202255 -0.00594966)
(10.145 -0.0190124 0.000882973)
(10.153 0.0183271 0.0108606)
(10.1633 0.0779571 -0.00285263)
(10.1524 0.0159149 0.00213765)
(10.144 -0.0414073 0.00945293)
(10.1585 -0.0308994 0.00759913)
(10.154 -0.0288556 0.00593864)
(10.156 -0.0273192 0.00335864)
(10.1527 -0.00556944 0.0111222)
(10.1153 0.0307726 0.0166119)
(10.104 0.034485 0.0181928)
(10.1404 0.00778339 0.0119746)
(10.1326 -0.00210572 0.0115685)
(10.1184 0.000304715 0.0153654)
(10.1354 0.00720439 -0.0034261)
(10.1279 -0.010549 -0.0452536)
(10.1221 -0.021378 -0.0440435)
(10.132 -0.0256996 -0.032426)
(10.1578 -0.0079835 0.0133858)
(10.127 -0.0122793 0.0387208)
(10.0885 -0.0410323 0.0481886)
(10.146 0.034791 0.0555099)
(10.1534 0.0287079 -0.0173124)
(10.1348 0.0382132 -0.0318601)
(10.0932 0.00546542 0.0011898)
(10.1024 -0.0249948 0.0189482)
(10.1623 -0.0246882 0.0347062)
(10.1977 -0.0185048 0.0320256)
(10.1758 -0.0203224 0.0109397)
(10.1588 -0.0136397 0.00898873)
(10.1779 -0.00120434 0.0130255)
(10.1752 -0.00227738 -0.00249984)
(10.1571 -0.0194798 -0.0434806)
(10.166 -0.00931217 -0.0382172)
(10.1848 0.0459812 0.0152134)
(10.1683 0.0441851 0.0102472)
(10.0992 0.00251103 0.00300132)
(10.0558 -0.0106773 -0.00663979)
(10.0593 -0.0224709 -0.0361865)
(10.0606 -0.0304956 -0.0487346)
(10.1023 -0.0352139 -0.0134787)
(10.1632 -0.021564 0.0171031)
(10.1694 0.0132803 0.00723241)
(10.1788 0.0176817 0.0109114)
(10.1538 -0.00324789 0.00503027)
(10.1132 -0.000172252 -0.0231215)
(10.1315 -0.00185637 -0.00994712)
(10.1196 -0.0109979 0.0167041)
(10.0926 -0.018138 0.0288362)
(10.1206 -0.0275615 0.0211881)
(10.1342 -0.0286073 -0.0121549)
(10.1229 -0.0173798 -0.0209879)
(10.1066 0.0233704 0.0527836)
(10.0004 -0.0126992 0.00995845)
(10.0115 -0.00224379 -0.0273886)
(10.0018 0.00103401 -0.043008)
(9.949 0.00785097 -0.00481263)
(9.95237 0.0237308 0.0113763)
(9.96537 0.0200291 0.0265657)
(9.96301 0.00526235 0.0238406)
(9.95913 -0.0148623 -0.0183111)
(9.96293 -0.0281912 -0.020895)
(9.99683 -0.0146436 0.0226618)
(9.99865 -0.00304072 0.0218326)
(9.98596 0.0295588 -0.0277302)
(9.97953 0.0172907 -0.0105545)
(9.96595 -0.00412198 -0.0052666)
(9.96993 6.59808e-05 -0.0152987)
(9.98413 0.0204724 0.00669329)
(9.99763 0.0320386 0.0397265)
(9.98873 0.0175819 -0.00359526)
(9.97948 0.0163876 -0.0302013)
(9.96545 -0.0176211 0.00232458)
(9.96743 -0.0406806 0.00455234)
(9.99377 -0.00379312 -0.0119662)
(9.9833 0.0127637 -0.0118208)
(9.96568 0.0114122 0.0099275)
(9.96246 0.00791217 -0.00725189)
(9.95249 0.00119785 -0.0414789)
(9.92209 -0.0023408 -0.0204773)
(9.90115 -0.00461455 0.00378653)
(9.95173 -0.0159572 0.0106263)
(9.99022 -0.0146132 -0.0121217)
(9.96341 -0.00743062 -0.00759208)
(9.94064 -0.00868622 0.0219534)
)
;

boundaryField
{
    wall
    {
        type            fixedValue;
        value           uniform (0 0 0);
    }
    outlet
    {
        type            cyclic;
    }
    inlet
    {
        type            cyclic;
    }
    procBoundary2to1
    {
        type            processor;
        value           nonuniform List<vector> 
256
(
(9.94551 -0.00801436 -0.00018468)
(9.98722 0.00408386 -0.00139465)
(9.98493 0.0116194 -0.00557507)
(9.96904 0.018473 0.0457554)
(9.9391 0.0180242 0.0713876)
(9.9587 0.0163427 0.0330259)
(9.93199 0.00930017 -0.036928)
(9.93752 -0.00567366 -0.0712362)
(9.98946 -0.00432108 -0.0456035)
(10.038 0.01414 0.0128471)
(9.93385 0.0286953 0.0406708)
(9.9273 0.012313 0.0297932)
(9.97951 -0.011288 0.00399768)
(10.0064 -0.00607299 -0.00221676)
(9.98714 0.00452767 0.00211239)
(9.89856 0.0135806 0.000202321)
(9.90481 0.00610096 -0.00305243)
(9.92319 -0.00432765 -0.00535533)
(9.92129 -0.00316486 -0.00411734)
(9.94776 -0.00374624 -0.00598667)
(9.95483 -0.00267708 0.00672944)
(9.94449 0.0022705 0.0286109)
(9.96679 -0.000667461 0.00541966)
(9.99654 0.00496807 -0.041688)
(9.98257 0.012479 -0.0268642)
(9.96318 0.0092633 0.016359)
(9.96733 0.00799981 0.0114525)
(9.95767 -0.00354657 0.00826003)
(9.95695 -0.00612586 0.00880186)
(9.96531 -0.0137908 -0.0079361)
(9.94798 -0.0203813 -0.00330244)
(9.92306 -0.0210034 -0.00283083)
(10.1263 -0.00582946 -0.0185639)
(10.1401 0.0159097 -0.0228352)
(10.1402 0.0157238 -0.019084)
(10.1179 0.0430515 0.049496)
(10.1021 0.0469472 0.0602603)
(10.1227 0.0431552 0.0111665)
(10.0894 0.00754522 -0.0503161)
(10.0916 -0.0251947 -0.0687986)
(10.152 -0.040223 -0.0607795)
(10.2076 0.0219388 0.044746)
(10.1883 0.0381922 0.0771608)
(10.0902 7.22536e-05 0.0228587)
(10.0734 -0.0194861 -0.00896315)
(10.126 -0.0405612 0.0121539)
(10.1454 -0.034292 0.0231239)
(10.1103 0.0229519 -0.0144967)
(10.1178 0.0213811 -0.0252677)
(10.1343 -0.022097 -0.00383674)
(10.1268 -0.0173624 0.00124607)
(10.1382 -0.00754898 -0.00268955)
(10.1449 -0.00756055 -0.00768364)
(10.1355 0.0200492 -0.00298862)
(10.1513 0.0283332 -0.0106558)
(10.1659 -0.015312 -0.00750239)
(10.1428 -0.0107139 0.0108439)
(10.1254 0.0128447 0.0249126)
(10.124 0.0118701 0.0026016)
(10.1204 0.0107076 0.0061906)
(10.1235 0.01039 0.0344103)
(10.1312 -0.0173495 0.0179459)
(10.1124 -0.0312733 0.0033779)
(10.0901 -0.0401272 -0.0043759)
(10.1326 -0.0191341 0.00476874)
(10.1741 0.00775524 0.0162227)
(10.1424 0.0414727 0.0358326)
(10.1106 0.0671994 0.0467084)
(10.1034 0.0760919 0.045532)
(10.1229 0.0409096 -0.00243078)
(10.1057 -0.00747109 -0.0622287)
(10.0601 -0.04597 -0.0836376)
(10.0884 -0.0478814 -0.0611161)
(10.1742 -0.0171944 0.01778)
(10.1453 0.0126671 0.023735)
(10.14 0.0343611 0.0220159)
(10.1613 -0.00692592 0.0173695)
(10.1593 -0.0594648 -0.00491495)
(10.11 -0.00612292 -0.0201487)
(10.1025 0.0361335 -0.0303987)
(10.1391 0.0296143 -0.0308918)
(10.1549 -0.00817117 0.0144381)
(10.1337 -0.00643805 0.0423423)
(10.1578 0.0187041 0.012801)
(10.1769 0.0274103 -0.00116896)
(10.1454 0.0360163 -0.0033482)
(10.1335 0.0318581 -0.0135921)
(10.1369 -0.0169747 -0.0202767)
(10.1236 -0.0336565 -0.0108782)
(10.1021 -0.00614013 0.00619376)
(10.0969 0.0115844 0.0136407)
(10.101 0.0287612 -0.000639127)
(10.1097 0.0326209 -0.0132974)
(10.129 -0.0139544 0.00809428)
(10.1113 -0.0504799 0.0236669)
(10.0963 -0.0553435 0.0115837)
(10.1611 -0.0342923 -0.0132508)
(10.2117 -0.0294198 -0.00119451)
(10.1732 0.0161673 0.00731284)
(10.1491 0.0500369 0.00902454)
(10.1303 0.0500828 0.03591)
(10.1188 0.0216373 0.0463416)
(10.1117 -0.0168702 0.0274401)
(10.0738 -0.00114395 -0.0417066)
(10.0821 -0.0042898 -0.072382)
(10.2004 -0.00105677 0.00131984)
(10.2008 0.00405766 0.033984)
(10.1894 0.0282411 0.0358628)
(10.1776 0.00836773 0.0168435)
(10.0953 -0.0430751 0.00332044)
(10.0842 -0.0273791 -0.0015286)
(10.1029 0.0131717 -0.0233687)
(10.1202 0.0108238 -0.0268709)
(10.1336 -0.00484613 -0.00656922)
(10.1642 -0.000276848 -0.00397787)
(10.1501 -0.00783077 5.57382e-06)
(10.1344 -0.0221323 0.00682013)
(10.1468 -0.000401546 -0.00287138)
(10.1599 0.03019 -0.00717911)
(10.1703 0.025106 0.00121886)
(10.1417 0.0125489 0.00430411)
(10.0909 -0.00315277 -0.00116077)
(10.109 -0.0156775 -0.00770033)
(10.1311 -0.00553681 -0.0187333)
(10.1239 0.0202536 -0.0117428)
(10.1239 0.0129383 0.0226585)
(10.0913 -0.0319103 0.0455293)
(10.0924 -0.0410319 0.0080803)
(10.1531 -0.0602526 -0.00895246)
(10.1792 -0.0378732 -0.00277324)
(10.1396 0.0345632 0.0189905)
(10.1103 0.0586374 0.0111125)
(10.0894 0.057519 0.00264137)
(10.0974 -0.0328645 0.0123362)
(10.1243 -0.0614003 0.00819885)
(10.111 0.0194479 -0.00456366)
(10.1098 0.0501193 -0.01286)
(10.1744 0.0118989 0.00722186)
(10.1525 -0.00787036 0.0161719)
(10.1227 -0.0167857 -0.00501337)
(10.1464 0.0129697 -0.0149117)
(10.1486 0.0156433 0.00234671)
(10.1328 -0.0132114 0.0189559)
(10.1565 -0.0196924 -0.0130939)
(10.1708 -0.0158026 -0.0198159)
(10.1839 -0.00570846 0.00676579)
(10.1421 -0.0189788 0.0213654)
(10.0982 -0.0146622 0.0231193)
(10.1047 -0.00393199 0.000682097)
(10.1184 -0.00698205 -0.0191553)
(10.1413 0.0264257 0.00234833)
(10.1444 0.0389183 0.00506561)
(10.1457 0.00885946 -0.00270704)
(10.1399 -0.0104455 0.0127358)
(10.1361 -0.00287877 0.0195776)
(10.144 -0.000224746 -0.00446313)
(10.1426 -0.00269381 -0.0408103)
(10.1192 0.0173417 0.0189909)
(10.1221 0.0131404 0.0567445)
(10.1391 -0.03847 0.0312904)
(10.1392 -0.0678177 0.00158771)
(10.1337 -0.0142702 0.00981629)
(10.0739 0.0566565 0.0208227)
(10.0855 0.0755699 0.0104285)
(10.1159 0.0357932 -0.0162118)
(10.1365 -0.0377249 -0.0203034)
(10.1152 -0.0259831 -0.0110826)
(10.1182 0.0455673 0.0344607)
(10.1184 0.0394826 0.0366524)
(10.1705 -0.0142852 0.0112154)
(10.1405 -0.0195057 -0.0125723)
(10.1239 -0.0129333 -0.0290729)
(10.153 0.014599 -0.000716727)
(10.1566 0.0172516 0.00993839)
(10.1608 0.0107348 0.00397399)
(10.1677 -0.02565 -0.0134127)
(10.1592 -0.0288532 -0.014472)
(10.1296 -0.0184728 0.00989692)
(10.1073 0.00186148 -0.00542061)
(10.0926 0.014362 -0.0240416)
(10.0859 0.00401415 -0.016721)
(10.0788 0.00654015 -0.013972)
(10.1139 0.016772 0.00251989)
(10.1343 0.0291441 -0.00283056)
(10.1238 0.0183274 -0.0136935)
(10.1265 0.0166133 -0.0127959)
(10.0997 -0.00352062 0.00772893)
(10.0924 -0.0144676 0.0085084)
(10.124 0.0213414 -0.00260867)
(10.1295 0.0281177 -0.00140732)
(10.153 0.0216474 0.00424522)
(10.1667 -0.0370585 0.015727)
(10.1632 -0.0539047 0.0165223)
(10.1291 -0.0187469 0.0188551)
(10.0551 -0.00909447 -0.0210384)
(10.0358 -0.00411612 -0.0134402)
(10.0599 0.0172066 0.0074003)
(10.1268 0.040748 -0.0155559)
(10.146 0.0469562 0.0069163)
(10.1179 0.0272836 0.0247273)
(10.1168 -0.000366402 0.0260198)
(10.1674 -0.0139003 -0.022575)
(10.1358 -0.00605379 -0.0219013)
(10.1184 0.00534673 -0.00991429)
(10.1648 0.00529232 -0.00311503)
(10.1669 0.000450773 0.00784396)
(10.1402 0.012299 -0.00138471)
(10.1434 -0.000924932 -0.0157342)
(10.1569 -0.00956136 -0.00937945)
(10.151 -0.000221937 0.0179267)
(10.1423 -0.00877694 0.00844116)
(10.1301 -0.0322156 0.000633474)
(10.1096 -0.0239161 0.0215222)
(10.0986 0.0185026 0.0360942)
(10.1083 0.0210345 0.034137)
(10.1375 -0.0109083 -0.0256836)
(10.1472 -0.0225557 -0.0220726)
(10.1276 -0.0182412 -0.00841033)
(10.1024 0.0301713 0.0132273)
(10.1285 0.042901 0.0368985)
(10.1632 0.0122152 -0.0156352)
(10.1464 0.00156258 -0.0345535)
(10.1577 0.0114287 -0.0463295)
(10.1752 -0.02678 -0.0171853)
(9.91476 -0.0204217 -0.00135533)
(9.92321 -0.0117571 -0.00318392)
(9.8964 -0.0153247 -0.0110372)
(9.84918 0.017895 0.0307302)
(9.8801 0.0498043 0.0485255)
(9.93663 0.0432471 0.00535343)
(9.95752 0.0103734 -0.024128)
(9.95237 0.00293573 0.0223058)
(9.96425 0.00623646 0.0310107)
(9.96595 0.00864395 -0.0314098)
(9.9362 0.00582699 -0.0226442)
(9.93212 0.00624103 0.0113466)
(9.98316 -0.00811793 0.0136336)
(9.99086 -0.00630328 0.0113809)
(10.0034 0.00956529 -0.00385639)
(9.97891 0.00350584 -0.0242295)
(9.97079 0.000828853 -0.0156383)
(9.98804 0.00967882 0.0269582)
(9.97748 0.00804844 0.0159501)
(9.97964 -0.0138622 -0.010514)
(9.99806 -0.00435357 6.21075e-05)
(9.99822 0.0260131 0.00547157)
(9.99973 0.0220442 0.00334069)
(9.98774 -0.00565595 -0.0203557)
(9.97682 -0.00117965 -0.0178188)
(9.9248 0.00627693 -0.0065484)
(9.91164 0.0160245 -0.0220546)
(10.0014 0.0259492 0.00298207)
(10.0542 -0.0275672 0.0555654)
(10.0221 -0.053738 0.0485512)
(9.9631 -0.0311831 -0.0408831)
(9.92784 -0.0225081 -0.0190378)
)
;
    }
    procBoundary2to3
    {
        type            processor;
        value           nonuniform List<vector> 
256
(
(9.96507 -0.0126086 0.0153642)
(9.95888 -0.00433724 0.0102132)
(9.95991 -0.00193255 -0.0138295)
(9.96322 -0.0249301 -0.0348847)
(9.96752 -0.0168169 -0.0407732)
(9.93908 -0.00163319 -0.0355178)
(9.93376 0.00823005 -0.0172133)
(10.0134 -0.00847442 -0.00384091)
(10.0305 -0.008534 0.02892)
(10.0044 -0.0046548 0.0320669)
(9.98071 0.00347283 0.0474437)
(9.9648 0.027784 0.0199475)
(9.97857 0.0399802 -0.0240328)
(9.99473 0.00314553 -0.0414321)
(9.99176 -0.00386108 -0.0269145)
(9.99496 0.00792771 -0.00939682)
(9.97695 0.00238843 0.00160503)
(9.97357 -0.00167745 0.00375265)
(9.99057 -0.0032641 -0.0137055)
(9.98833 0.00689989 -0.0218432)
(9.98545 0.0250093 -0.0148697)
(9.94857 0.0147806 0.0167996)
(9.94712 0.00559844 0.0253161)
(9.973 -0.00298671 -0.0252054)
(9.9642 0.00159609 -0.0363077)
(9.94689 0.00714853 -0.0159418)
(9.96047 0.00449848 -0.00459947)
(9.97365 0.00748102 -0.000186541)
(9.92262 0.00161703 0.00423808)
(9.90829 -0.00593744 0.0145549)
(9.96499 -0.00220491 -0.00157155)
(9.98299 -0.00825554 -0.00254858)
(10.1573 -0.00365105 0.0181588)
(10.168 0.0238268 0.0104464)
(10.1754 0.0342874 -0.000833887)
(10.1509 -0.011314 -0.0118941)
(10.1303 -0.0202062 -0.0246431)
(10.1135 0.00896424 -0.0527809)
(10.0978 -0.000131726 -0.0296826)
(10.1368 -0.00714037 -0.00806707)
(10.1767 -0.0168256 0.0155268)
(10.1674 -0.015327 0.0277265)
(10.1608 -0.00224708 0.0520699)
(10.1554 0.0101714 0.0550497)
(10.1701 0.00766633 0.0196852)
(10.1294 0.00225373 -0.0066987)
(10.141 0.0127416 -0.0159388)
(10.146 0.00261884 -0.0265182)
(10.1179 -0.0253002 -0.0133017)
(10.1038 -0.0141688 0.00381873)
(10.1178 -0.0117986 -0.00196672)
(10.1588 -0.0241533 -0.0141033)
(10.1394 -0.0175147 -0.0173185)
(10.12 -0.00922367 -0.0181706)
(10.1415 -0.00378762 -0.00449379)
(10.1506 -0.00805796 -0.0124985)
(10.119 -0.0166431 -0.0253051)
(10.1039 -0.0188689 -0.0102399)
(10.1099 -0.0144344 0.00836484)
(10.1066 -0.00549512 -0.0059627)
(10.0994 0.0097538 0.00277826)
(10.1184 0.0211137 0.0274279)
(10.1573 0.0226001 0.0134984)
(10.1515 0.000105823 0.0119425)
(10.1191 -0.00231087 0.03888)
(10.131 0.0192358 -0.0326451)
(10.128 0.0452924 -0.0794257)
(10.1359 0.0428657 -0.0447669)
(10.1204 0.00195177 -0.0106644)
(10.083 -0.00107635 -0.0119207)
(10.1011 0.016966 -0.020106)
(10.1399 0.0103005 0.010909)
(10.186 -0.015188 0.0784725)
(10.1694 -0.00591893 0.0415348)
(10.1384 0.0120998 -0.00591965)
(10.1462 0.014894 -0.0102779)
(10.146 0.00802725 -0.0160049)
(10.1451 -0.0096354 -0.0148557)
(10.1601 -0.00356087 -0.0126217)
(10.1566 0.00613908 -0.0155452)
(10.1569 -0.00543811 -0.0026973)
(10.1325 -0.00380304 -0.00918777)
(10.1374 -0.0150482 -0.00928414)
(10.138 -0.0303922 0.0167383)
(10.118 -0.0292122 0.0328693)
(10.0798 -0.00335157 0.0254956)
(10.0881 0.0139135 0.025505)
(10.1052 0.0237218 -0.00156978)
(10.1133 0.0218423 -0.00561832)
(10.1084 -0.0126095 -0.00739724)
(10.1069 -0.0161566 -0.0185731)
(10.0826 -0.00684845 -0.029964)
(10.0793 -0.00220773 -0.0122105)
(10.13 -0.00555129 0.00197368)
(10.1569 -0.0343836 0.00587678)
(10.1395 -0.0286328 0.0168772)
(10.1876 -0.00910859 -0.00607983)
(10.1462 -0.0221532 5.78629e-05)
(10.1115 -0.0118344 -0.00236466)
(10.1114 -0.00739156 -0.000159115)
(10.1144 -0.0262875 0.0126679)
(10.1044 -0.02946 0.001073)
(10.0806 -0.0142974 -0.0643725)
(10.0938 -0.0106082 -0.0577119)
(10.1701 0.0132673 0.0172451)
(10.133 0.0100655 0.0373546)
(10.1233 0.0126592 0.0452149)
(10.1688 0.0048945 0.0442008)
(10.1851 0.0228802 0.0337634)
(10.1962 0.0284717 0.0231661)
(10.1382 -0.00719097 -0.00291611)
(10.1255 -0.0200094 -0.00928431)
(10.1535 -0.00446049 -0.0130491)
(10.1766 0.00607547 -0.0190523)
(10.1805 0.0131383 -0.0331828)
(10.1839 0.0176357 -0.029211)
(10.1589 -0.000163293 -0.0106764)
(10.1275 -0.0152951 0.0031925)
(10.1342 -0.00747629 0.00195878)
(10.1397 -0.00386588 -0.000139691)
(10.1369 -0.0099244 0.00150343)
(10.0723 0.0121306 -0.00140518)
(10.0736 0.0179295 0.00458207)
(10.114 -0.00925149 -0.00593042)
(10.1136 -0.0184437 -0.00996484)
(10.059 -0.00203376 0.00675713)
(10.0958 0.0135572 0.0167838)
(10.1717 0.00308004 -0.00716191)
(10.1267 -0.00321814 0.00359235)
(10.1257 0.0126941 -0.00578916)
(10.1211 0.0272208 -0.0131064)
(10.1189 0.0231793 -0.0167816)
(10.0917 0.0147226 0.00024726)
(10.0908 -0.00667363 -0.0151046)
(10.1025 -0.0406222 -0.0463856)
(10.1297 -0.046653 -0.029882)
(10.1401 0.0241385 0.0103396)
(10.1128 0.0676232 0.00423186)
(10.1453 0.0180476 0.00584998)
(10.1591 -0.0390779 0.0105386)