/*--------------------------------*- C++ -*----------------------------------*\
| =========                 |                                                 |
| \\      /  F ield         | OpenFOAM: The Open Source CFD Toolbox           |
|  \\    /   O peration     | Version:  2506                                  |
|   \\  /    A nd           | Website:  www.openfoam.com                      |
|    \\/     M anipulation  |                                                 |
\*---------------------------------------------------------------------------*/
FoamFile
{
    version     2.0;
    format      ascii;
    arch        "LSB;label=32;scalar=64";
    class       volVectorField;
    location    "0.009";
    object      U_0;
}
// * * * * * * * * * * * * * * * * * * * * * * * * * * * * * * * * * * * * * //

dimensions      [0 1 -1 0 0 0 0];

internalField   nonuniform List<vector> 
512
(
(9.94898 -0.0266 -0.0286345)
(9.92944 -0.015746 -0.0484012)
(9.9483 0.0179329 -0.0298277)
(10.007 -0.0113482 0.0458953)
(9.98937 -0.0137441 0.0509792)
(9.99536 -0.00755932 -0.0624425)
(9.92448 -0.00805234 -0.132814)
(9.89353 -0.014759 -0.104841)
(10.0049 -0.005493 0.00513315)
(10.0267 -0.00371155 0.0580859)
(9.95241 0.0174342 0.059432)
(9.9757 0.0222389 0.0193214)
(10.0174 0.00738238 -0.0430941)
(9.99765 0.0117491 -0.0326176)
(9.98881 0.0263485 -0.000140083)
(10.0067 -0.00156828 0.0239201)
(10.0169 0.000278154 0.0133972)
(9.98278 -0.0169137 -0.0484496)
(9.95614 -0.0211676 -0.049019)
(9.91408 0.00295323 -0.021313)
(9.88119 0.00901493 0.0215989)
(9.87724 -0.00484618 0.0175953)
(9.9148 -0.00842754 -0.0239122)
(10.0043 0.00345196 -0.0494236)
(9.97281 0.000906796 -0.0161991)
(9.94398 -0.00119614 0.0161799)
(9.99548 -6.56348e-05 0.00364106)
(10.016 0.00781141 -0.000871699)
(9.93493 -0.0100344 0.0135221)
(9.94995 -0.0117277 0.0126596)
(10.0169 0.0294008 0.0528404)
(10.0214 0.00221524 0.0597589)
(10.0477 0.000780072 0.00417822)
(10.0516 0.0581719 -0.00882753)
(10.0666 0.0819045 -0.00175139)
(10.1394 -0.00258563 0.0485542)
(10.1761 -0.0337263 0.0603649)
(10.2044 -0.0278246 -0.00976884)
(10.0697 -0.028205 -0.0831158)
(10.0217 -0.0357787 -0.0556001)
(10.1519 -0.0116181 0.0188297)
(10.1798 -0.00278375 0.0288486)
(10.1393 0.0136483 0.0303624)
(10.1499 0.00207708 0.0154705)
(10.1453 -0.00802244 -0.0165037)
(10.1093 0.0339209 -0.0340611)
(10.1121 0.0466716 -0.0118675)
(10.137 -0.0246503 0.0315675)
(10.1472 -0.0260843 0.0170905)
(10.1684 -0.0143532 -0.0323047)
(10.1565 -0.00864315 -0.0294017)
(10.1149 -0.0056544 -0.0303896)
(10.1229 -0.00891249 -0.0240439)
(10.0512 -0.0145897 0.0267657)
(10.0318 -0.0078009 0.0407741)
(10.1359 -0.0133056 -0.0214142)
(10.1159 -0.0302312 -0.00654547)
(10.0918 -0.0258931 0.0095736)
(10.1228 -0.00108467 -0.0230528)
(10.131 0.00583808 -0.0195197)
(10.1298 0.00337701 0.0226381)
(10.1304 -0.000962166 0.0150521)
(10.0635 0.00950098 0.00558354)
(10.0443 -0.00238144 0.0220371)
(10.1017 0.00435609 -0.0179173)
(10.0622 0.0494937 0.0128337)
(10.057 0.052448 0.0271634)
(10.1793 -0.00621052 0.016963)
(10.2211 -0.00901946 0.0322615)
(10.2299 0.000936323 -0.0123405)
(10.0813 0.0179549 -0.069666)
(10.0004 -0.00413163 -0.0529167)
(10.1241 -0.0376024 0.00221442)
(10.1572 -0.0275342 0.0246586)
(10.0833 0.0356092 0.0142955)
(10.0942 0.0488192 0.00684673)
(10.2097 0.0368995 -0.0101593)
(10.2068 0.00723928 -0.0234354)
(10.1454 -0.00102489 -0.00994766)
(10.0312 -0.00363668 -0.00461469)
(10.059 -0.0129024 -0.0170802)
(10.1411 -0.0230492 -0.00851195)
(10.12 -0.0170967 0.000995109)
(10.1188 -0.0195667 -0.0100457)
(10.077 -0.0290603 -0.0104343)
(10.0375 0.0148624 0.0136722)
(10.066 0.032688 0.0147434)
(10.1196 -0.0325955 -0.0169281)
(10.1192 -0.0409355 -0.022514)
(10.1523 -0.00870561 0.00306672)
(10.1372 0.0321075 -0.011479)
(10.1152 0.0394325 -0.00763935)
(10.1111 -0.00149633 0.0421996)
(10.1128 -0.0213591 0.040886)
(10.053 -0.0631095 0.026686)
(10.0532 -0.0672281 0.00703267)
(10.1497 0.0297136 -0.00888133)
(10.1565 -0.0440889 0.00746891)
(10.1117 -1.36673e-05 0.00653927)
(10.1091 0.0227681 0.0149387)
(10.1517 -0.0239844 -0.00423039)
(10.1652 -0.0357136 -0.031264)
(10.1059 0.00453781 -0.0111603)
(10.0949 -0.00143387 0.0111845)
(10.0774 -0.0607681 0.0028523)
(10.1456 -0.062243 0.0353995)
(10.1761 0.0446111 0.0460581)
(10.1697 0.0492122 0.0231087)
(10.1711 -0.0149938 -0.00276659)
(10.1184 -0.0158165 -0.00881304)
(10.0726 0.0221133 -0.013496)
(10.075 0.031858 -0.00434378)
(10.104 0.0173777 0.00544012)
(10.1642 -0.00717904 -0.00414866)
(10.1544 -0.0183128 -0.0110042)
(10.1479 0.0137065 -0.0420395)
(10.1075 -0.0261056 -0.0138732)
(10.0898 -0.0452047 0.00834692)
(10.1268 0.0115871 -0.00587022)
(10.1284 0.0216749 -0.0251005)
(10.1224 0.0184318 -0.0124171)
(10.0998 0.0182047 -0.00791791)
(10.108 -0.0133275 -0.00950445)
(10.1368 -0.0253669 0.00329476)
(10.0702 -0.0432161 0.0233394)
(10.078 -0.0631728 0.0246502)
(10.1071 -0.0219352 0.036625)
(10.1394 0.0599104 0.0107004)
(10.1118 0.0600726 -0.0215766)
(10.1031 0.0783894 -0.0050225)
(10.0628 0.0552681 0.0231478)
(10.0657 0.0391899 0.0117777)
(10.0853 0.00570389 -0.0109361)
(10.1071 -0.0583171 -0.00596352)
(10.1371 -0.0300884 0.00642018)
(10.1293 0.0399711 0.014153)
(10.0569 0.0534623 -0.0251385)
(10.1382 0.0164462 -0.0152111)
(10.1953 -0.0312662 0.0114441)
(10.1752 -0.0346117 0.00618524)
(10.1452 0.029702 -0.0187351)
(10.1084 0.0391215 -0.00156884)
(10.0484 -0.00274505 0.000273476)
(10.0378 -0.00109295 -0.01223)
(10.092 0.0119491 -0.00944965)
(10.1482 -0.0128457 0.0114598)
(10.1353 -0.028962 0.00810336)
(10.1079 -0.0259385 0.00411086)
(10.1114 -0.0195821 -0.00466461)
(10.1019 -0.00428437 -0.00841587)
(10.1191 0.0215011 -0.00909659)
(10.1345 0.0165315 -0.0221378)
(10.1392 -0.00402372 -0.0362552)
(10.1318 0.00228451 -0.0324995)
(10.0947 0.0136272 -0.00952363)
(10.0859 -0.000877327 -0.00733263)
(10.0911 -0.0252708 -0.00981078)
(10.1097 -0.0707372 0.029847)
(10.1217 -0.0740618 0.0395391)
(10.1283 -0.0308774 0.0154743)
(10.0776 -0.0750825 0.0051633)
(10.1389 0.0468866 0.00706674)
(10.1386 0.0533335 -0.0155833)
(10.0365 0.0391989 -0.0237549)
(10.0408 0.0339682 -0.00550967)
(10.0891 -0.03964 0.0509238)
(10.0951 -0.0351901 0.0637421)
(10.1073 0.0540682 0.0148279)
(10.1214 0.0441611 -0.0312166)
(10.1557 -0.0214467 -0.0445995)
(10.1657 -0.056857 0.00715884)
(10.155 -0.0356376 0.034222)
(10.1232 0.0463984 0.000812343)
(10.0993 0.0569316 -0.0195494)
(10.0866 0.0131829 -0.0201114)
(10.1403 -0.0120284 -0.0241353)
(10.1576 -0.00607405 -0.010948)
(10.1665 0.0148363 0.0187791)
(10.1258 -0.0170336 -0.00694368)
(10.0849 -0.0386341 -0.0198334)
(10.0746 -0.000579171 -0.0176197)
(10.0949 0.0269422 -0.0290257)
(10.1155 -0.0030393 -0.00206819)
(10.1001 -0.0167672 0.00405452)
(10.1041 -0.00645705 -0.00920188)
(10.1346 0.0214747 -0.0244668)
(10.0893 0.0139987 -0.00144143)
(10.0794 0.0112445 0.00139832)
(10.1082 0.0265031 -0.00244502)
(10.108 0.0199156 0.000879785)
(10.125 -0.0199716 0.0285896)
(10.1001 -0.0739994 -0.0055998)
(10.08 -0.0615076 0.0188383)
(10.1395 0.00718721 0.00408696)
(10.119 0.00609757 -0.00833095)
(10.0628 -0.00288796 0.0118184)
(10.0826 0.00574278 0.0389697)
(10.0898 -0.0139516 0.0451662)
(10.1107 -0.00441306 0.0237482)
(10.1138 0.00571583 0.000282451)
(10.1121 -0.0166902 -0.0084856)
(10.1307 -0.0344633 -0.00377411)
(10.1812 -0.0412469 0.0357148)
(10.2052 0.0269742 0.0247818)
(10.1778 0.0125333 0.0148928)
(10.1592 0.0157165 0.0267356)
(10.0751 0.00835736 -0.00747187)
(10.0104 -0.0186659 -0.032298)
(10.0453 0.00737476 -0.0221426)
(10.09 0.0454565 0.00431925)
(10.0824 0.0195707 0.000215896)
(10.0743 -0.0383727 0.0157187)
(10.0805 -0.0389644 0.0280768)
(10.1069 0.0114089 0.0258304)
(10.1065 0.00576925 0.0052572)
(10.1242 -0.0106143 -0.0247849)
(10.1289 0.0114702 -0.0113511)
(10.1018 0.00205625 -0.0235602)
(10.1006 -0.00442039 -0.039426)
(10.1293 -0.00724295 0.0330869)
(10.1462 -0.00975484 0.0446947)
(10.1247 0.032775 -0.0572041)
(10.1347 0.0414453 -0.0685997)
(10.0785 -0.0560117 0.00298513)
(10.0088 -0.0208415 -0.00223097)
(10.0471 0.0215818 0.0246591)
(9.98093 0.0314587 0.0184278)
(9.9362 0.0193535 0.0107988)
(9.95625 0.0114636 0.0134675)
(9.95083 -0.000862179 0.0208546)
(9.95233 0.00367456 0.0321312)
(9.98603 0.0193681 -0.00831296)
(9.98946 0.0104884 -0.028529)
(9.92608 0.00206085 0.00138003)
(9.97055 0.00869865 0.0158962)
(10.0266 0.0163508 0.00656187)
(10.0124 0.0111788 0.0106297)
(9.99474 -0.0189208 -0.0284889)
(9.96268 -0.0170411 -0.026949)
(9.96746 0.00182937 0.00780222)
(10.0053 0.00747946 0.012147)
(10.0075 -0.00105818 0.00417342)
(9.96507 -0.0333595 0.00231543)
(9.94392 -0.0472789 0.0326828)
(9.97858 -0.0240308 0.00105471)
(9.99545 -0.0172513 -0.031512)
(9.99437 -0.00724649 -0.00189816)
(9.97962 0.0196983 -0.0126863)
(9.96969 0.0219752 -0.00901833)
(9.94995 -0.022244 -0.0268681)
(9.94252 -0.0313651 -0.0205425)
(9.91399 0.0182326 0.0465405)
(9.9268 0.0180229 0.0243577)
(9.94732 -0.00224578 0.00056854)
(9.93463 -0.0105022 0.00775343)
(9.92811 -0.0194262 0.00639756)
(10.0385 0.00899279 0.0185083)
(9.92878 -0.0114314 0.00247047)
(9.90899 -0.023417 0.00453319)
(9.96012 -0.0287009 0.0178114)
(10.0055 -0.0143434 0.00287837)
(9.92017 -0.0133787 -0.104267)
(9.88431 -0.0128239 -0.130558)
(9.89503 -0.0125052 0.0417016)
(9.97217 -0.00725944 0.0584004)
(9.98001 -0.00764373 0.049619)
(9.9522 0.00713665 0.0502185)
(9.95663 0.0217143 0.039247)
(9.98007 0.00276119 -0.0259568)
(9.95473 -0.00450554 -0.0400552)
(9.93263 0.0177217 -0.0181752)
(9.95071 0.0263681 -0.00382913)
(9.97251 -0.0164758 -0.0133535)
(9.98096 -0.0250649 -0.0248927)
(9.98873 0.010406 -0.01306)
(9.95162 0.0156798 0.00123772)
(9.92352 0.0263686 0.00341379)
(9.91908 0.0148714 0.023703)
(9.96043 0.00541992 0.0315509)
(9.99579 0.000820379 0.00545118)
(9.97494 0.0264278 -0.0177328)
(9.9785 0.0250793 -0.0186392)
(10.0114 -0.0323798 0.00620838)
(10.0098 -0.0246615 0.0109053)
(9.87058 -0.0400511 0.0104433)
(9.87663 -0.0548749 0.0120536)
(9.99217 0.00392117 0.0542614)
(10.025 0.0101276 0.0435873)
(10.1245 -0.0213384 -0.00273098)
(10.1684 0.032664 -0.0108958)
(10.1747 0.071505 0.000381433)
(10.1332 0.00765955 -0.00656175)
(10.1428 -0.0167974 -0.0258747)
(10.1353 0.00133206 -0.0779021)
(10.064 -0.00494714 -0.0483155)
(10.0776 -0.0437727 0.0346093)
(10.1704 -0.0151739 0.0572934)
(10.163 -0.000599744 0.0412122)
(10.1267 -0.00967717 0.0384044)
(10.1156 -0.0105115 0.0280661)
(10.1307 -0.0161738 -0.00675548)
(10.1297 -0.0304219 -0.0196573)
(10.1237 0.000523791 -0.0199045)
(10.0997 0.0159422 -0.00212543)
(10.0683 -0.00766134 0.00967505)
(10.0765 -0.00704019 -0.0134651)
(10.1215 0.0116205 0.00271605)
(10.1293 0.0128369 0.0153142)
(10.1219 0.0291702 0.0170075)
(10.0829 0.0094901 0.0318371)
(10.1072 0.00791526 0.0133306)
(10.1339 -0.00911177 -0.0254817)
(10.0971 0.00437524 -0.0205983)
(10.0905 0.0256182 -0.00356403)
(10.1204 -0.00121459 -0.00642711)
(10.1077 -0.0220179 0.00221069)
(10.0856 -0.0168315 0.0263897)
(10.1182 -0.000886684 0.0196699)
(10.1349 0.00205202 0.0210655)
(10.1114 -0.0155377 0.0245384)
(10.1539 -0.0257546 0.0429768)
(10.1629 0.0187454 -0.00969486)
(10.1666 0.0581743 -0.00820532)
(10.1631 0.0295737 -0.0130877)
(10.1586 -0.00929552 -0.00938261)
(10.1127 0.0264157 -0.046985)
(10.0873 0.0421218 -0.039346)
(10.0772 -0.0102783 0.0426225)
(10.1504 -0.0488412 0.031082)
(10.1449 -0.0286323 0.0108363)
(10.1063 0.0277932 0.0126369)
(10.1128 0.0168834 0.0103837)
(10.1381 0.00129192 -0.0293606)
(10.1465 -0.0164634 -0.0492508)
(10.1332 -0.0268541 -0.0116727)
(10.0875 0.00746177 0.0214194)
(10.092 0.0197702 0.00197531)
(10.1339 0.0148313 -0.0484843)
(10.1239 -0.0160931 -0.064899)
(10.101 -0.0128194 -0.0551424)
(10.0566 -0.0238688 0.0116709)
(10.055 -0.0236453 0.0219393)
(10.1559 0.0283067 0.0284417)
(10.1739 0.0294289 0.0201335)
(10.1219 -0.00805953 0.00988266)
(10.1131 -0.000768216 -0.00592915)
(10.1049 0.00342011 -0.0212899)
(10.0738 -0.00378539 -0.0109221)
(10.0817 0.0066773 0.00915722)
(10.1084 -0.00989779 0.0132114)
(10.1227 -0.018747 0.0242465)
(10.1219 -0.0308719 0.0549758)
(10.1751 -0.00758915 0.00220796)
(10.1159 -0.0208568 -0.015778)
(10.087 -0.00642501 -0.0097158)
(10.1432 0.00398684 -0.00612847)
(10.152 -0.0224296 -0.0153349)
(10.1285 -0.0228287 -0.0589698)
(10.0826 0.0104804 -0.048016)
(10.0986 0.0180346 0.0457383)
(10.09 -0.00511934 0.0532595)
(10.1405 -0.0276884 0.0455565)
(10.1832 0.0106397 0.0228519)
(10.1737 0.00411977 0.0132616)
(10.1143 0.0230972 -0.0117321)
(10.1003 0.0361609 -0.0152143)
(10.1288 0.0368902 -0.0150119)
(10.1315 0.00410537 0.006032)
(10.1293 -0.00670401 0.014938)
(10.1415 -0.00594381 -3.35101e-05)
(10.1414 -0.0126282 -0.0129796)
(10.1462 8.75087e-05 0.00451082)
(10.1083 -0.00860125 0.0281572)
(10.0831 -0.010048 0.0188583)
(10.1339 0.013871 0.00759012)
(10.1552 0.0147999 -0.000899961)
(10.1008 -0.0115794 -0.0128172)
(10.0834 -0.0176711 -0.0362839)
(10.1023 -0.00304177 -0.0417834)
(10.1008 -0.0120863 -0.0105195)
(10.0977 -0.0127023 0.0162048)
(10.0976 0.00540377 0.00718891)
(10.1138 0.017609 -0.00460114)
(10.1467 0.013054 0.0125192)
(10.1432 -0.00382339 0.034737)
(10.1441 0.00488861 0.0284598)
(10.0992 0.0653391 0.0116357)
(10.091 0.0594635 0.00788094)
(10.1062 -0.0525594 0.0131648)
(10.0884 -0.0482667 -0.0248136)
(10.0817 -0.0120948 -0.0717883)
(10.0943 0.0551899 -0.00700806)
(10.1153 0.0471432 0.0453301)
(10.1226 -0.00398852 0.00907129)
(10.1648 -0.0330222 -0.0214999)
(10.1814 0.0218442 0.0386547)
(10.1754 0.0418667 0.0533116)
(10.1675 0.0109907 0.00310978)
(10.1082 -0.0335674 -0.0242071)
(10.0864 -0.0511013 -0.0436729)
(10.1274 -0.0444984 -0.045984)
(10.1611 -0.016491 -0.0166845)
(10.1506 -0.0126396 -0.020753)
(10.1266 -0.0129792 -0.0235745)
(10.1116 0.00204907 -0.0126936)
(10.0995 0.0177887 -0.00231278)
(10.1273 0.0196491 -0.00154941)
(10.1326 0.0203428 -0.00911332)
(10.0917 -0.0163924 0.00110358)
(10.0895 -0.0182614 -0.000705028)
(10.12 0.0200139 0.00737431)
(10.1065 0.00268063 -0.00233104)
(10.1084 -0.0023202 -0.013759)
(10.1217 0.00593909 0.0270632)
(10.0933 0.0120594 0.0400989)
(10.1033 -0.000707991 0.0387526)
(10.1909 -0.0276458 0.0351384)
(10.2276 0.0301439 -0.0141364)
(10.1295 0.0707735 -0.0448581)
(10.0787 0.0401848 -0.014275)
(10.0839 -0.0480599 0.0364713)
(10.09 -0.0520859 0.03381)
(10.164 0.00652387 -0.0197214)
(10.1724 0.00832478 -0.0197208)
(10.1333 0.00498571 0.0151872)
(10.0899 0.00364252 0.0147136)
(10.1085 -0.0266261 -0.0133406)
(10.1712 -0.00629915 0.0116326)
(10.1631 0.0546465 0.00685412)
(10.1521 0.0794233 -0.0104537)
(10.1254 -0.0256696 0.00609131)
(10.1244 -0.0462386 0.00768438)
(10.1533 -0.0261949 0.00475582)
(10.1406 -0.0298787 0.00874857)
(10.1348 -0.0230503 0.0111932)
(10.1107 0.00963874 0.0231503)
(10.0814 0.0291026 0.022053)
(10.0872 0.0267509 0.0134861)
(10.1493 -0.00146696 0.00241338)
(10.1191 -0.00446206 0.0160994)
(10.1059 0.00335738 0.0206742)
(10.1243 0.00787457 -0.0266569)
(10.1148 -0.00997399 -0.0624567)
(10.1063 -0.022795 -0.0483804)
(10.1198 -0.0145626 -0.0174258)
(10.1429 0.00158319 0.025966)
(10.0696 -0.0287982 0.0574101)
(10.0538 -0.0587913 0.052945)
(10.1543 0.0388464 0.0301643)
(10.1581 0.0354512 -0.0366959)
(10.1175 0.0349723 -0.0396787)
(10.0543 -0.024222 0.0141407)
(10.0695 -0.0393639 0.0246888)
(10.1609 -0.0202886 0.0525156)
(10.1864 -0.0151246 0.0429918)
(10.1382 -0.0249582 0.00158587)
(10.1324 -0.0226544 0.00596476)
(10.1719 0.000828987 0.014867)
(10.155 -0.0058815 -0.00896875)
(10.1506 -0.021924 -0.0412386)
(10.1823 0.015798 -0.0204269)
(10.1979 0.0675603 0.0196634)
(10.1092 0.0277985 -0.0137729)
(10.0233 -0.0114464 -0.0223034)
(10.0187 -0.0156761 -0.0254691)
(10.0581 -0.0342872 -0.0586261)
(10.0579 -0.0336803 -0.0500827)
(10.1174 -0.0295026 0.0233239)
(10.1607 -0.0148017 0.0408162)
(10.1692 0.0298578 0.00976636)
(10.1703 0.0261335 0.00854942)
(10.1063 -0.00790361 -0.000183014)
(10.0943 0.000847409 -0.0231125)
(10.1305 -0.00199449 -0.00793716)
(10.0868 -0.0155602 0.022113)
(10.0744 -0.0211473 0.0212092)
(10.1159 -0.0352698 0.00540807)
(10.1139 -0.0322241 -0.020875)
(10.0813 0.00423988 0.0116592)
(10.072 0.0326699 0.0781537)
(10.0398 -0.0103261 -0.00716218)
(10.0365 0.00827325 -0.0311695)
(9.98801 0.00402123 -0.039405)
(9.9191 0.00605349 0.00127847)
(9.93439 0.0309236 0.0168054)
(9.95779 0.0188398 0.0266456)
(9.9505 -0.00507205 0.00982551)
(9.94815 -0.0237087 -0.0237651)
(9.96794 -0.0417198 -0.00310034)
(10.018 -0.00934897 0.0464417)
(10.0035 0.0154118 0.0133264)
(9.99927 0.0325246 -0.0300049)
(10.0072 0.00517743 -0.00231617)
(9.97703 -0.0122813 -0.0123544)
(9.97689 0.00140403 -0.0238423)
(9.98649 0.0320203 0.0284845)
(9.99831 0.0313251 0.0388237)
(9.99242 0.00987026 -0.0422635)
(9.97125 0.00637628 -0.0340308)
(9.9491 -0.0338799 0.0306568)
(9.97513 -0.0358023 0.0183668)
(10.0173 0.0136357 -0.00386518)
(9.9841 0.0228664 -0.0034942)
(9.9668 0.0156872 0.00702255)
(9.95896 0.00651965 -0.0429716)
(9.94901 0.000990596 -0.0590756)
(9.90433 -0.0019262 -0.00383618)
(9.90962 -0.00634111 0.00533359)
(9.9772 -0.0220869 0.00474783)
(9.99235 -0.0192032 -0.0146148)
(9.93897 -0.0032465 0.00888248)
(9.93017 -0.00771729 0.0275459)
)
;

boundaryField
{
    wall
    {
        type            fixedValue;
        value           uniform (0 0 0);
    }
    outlet
    {
        type            cyclic;
    }
    inlet
    {
        type            cyclic;
    }
    procBoundary2to1
    {
        type            processor;
        value           nonuniform List<vector> 
256
(
(9.95647 0.0013726 0.00701872)
(9.97305 0.010323 -0.000898806)
(9.94596 0.0184748 -0.00499341)
(9.91689 0.0220609 0.0779599)
(9.90981 0.0196561 0.0869859)
(9.94986 0.0172956 0.019342)
(9.91548 0.0007403 -0.0653967)
(9.93081 -0.0123517 -0.0846258)
(10.0031 -0.0033204 -0.025467)
(9.98358 0.0182527 0.0233954)
(9.86446 0.0357895 0.0454156)
(9.94661 -0.00185336 0.0156077)
(10.0029 -0.0118532 -0.00263578)
(10.0321 -0.00339858 -0.0105339)
(9.91711 0.0088375 -0.00350049)
(9.829 0.0126197 -0.00163099)
(9.90223 -0.00297181 0.00690338)
(9.93033 -0.0104685 0.0113687)
(9.93207 -0.00788716 0.00799131)
(9.95698 -0.00489954 -0.00487454)
(9.93252 0.00320472 0.0200112)
(9.91124 0.00482418 0.0311461)
(9.96812 0.000221239 -0.0395565)
(9.99518 0.00522254 -0.0803873)
(9.95301 0.0180196 -0.00981833)
(9.93869 0.0118136 0.0291652)
(9.93792 0.00617962 0.0126995)
(9.92605 -0.00360723 0.00869766)
(9.94481 -0.00974505 0.0180472)
(9.96199 -0.0190896 0.000893224)
(9.92088 -0.0250191 -0.00559271)
(9.90071 -0.0216069 -0.015051)
(10.1115 0.0134197 -0.0253836)
(10.1067 0.0209374 -0.0266742)
(10.0806 0.0278325 -0.00518817)
(10.0573 0.0639689 0.0807187)
(10.0601 0.0535737 0.0675933)
(10.0873 0.0425753 -0.00540517)
(10.0438 -0.0133598 -0.0750937)
(10.066 -0.0423142 -0.0809104)
(10.1393 -0.0381123 -0.0407321)
(10.1797 0.0325824 0.0648616)
(10.1117 0.0289313 0.0690305)
(10.0205 -0.00905974 0.00716064)
(10.0656 -0.0336108 -0.0113679)
(10.1405 -0.0461498 0.0200121)
(10.1025 -0.0109593 0.0159782)
(10.0434 0.0417077 -0.0178144)
(10.0909 0.0102727 -0.0201688)
(10.1147 -0.0333443 0.0045443)
(10.1165 -0.0247989 0.00948625)
(10.131 -0.0134069 -0.00534143)
(10.1019 0.00170271 -0.00944892)
(10.0793 0.0307911 0.000872694)
(10.1181 0.0238736 -0.0230021)
(10.1428 -0.0269807 -0.0285172)
(10.1013 0.000969416 0.0197711)
(10.0835 0.0207276 0.0271607)
(10.0751 0.0147638 -0.00508069)
(10.0715 0.0157576 0.0127565)
(10.086 0.0112703 0.0440551)
(10.1093 -0.0322531 0.0189645)
(10.0642 -0.0438711 0.00703777)
(10.0494 -0.0414856 -0.00870665)
(10.1289 0.00422082 0.00111394)
(10.1472 0.0135985 0.0219181)
(10.0728 0.0734721 0.0558989)
(10.0613 0.0849163 0.0555924)
(10.0629 0.0822123 0.0457816)
(10.095 0.0183556 -0.0306118)
(10.0268 -0.0321951 -0.0836876)
(9.98465 -0.0649494 -0.0978528)
(10.0891 -0.0491545 -0.0342592)
(10.1567 -0.0144078 0.028317)
(10.1068 0.025763 0.0212681)
(10.12 0.0361244 0.0183644)
(10.148 -0.0433407 0.0106051)
(10.13 -0.0669303 -0.000344936)
(10.0514 0.0319337 -0.0174521)
(10.0797 0.0544761 -0.0290544)
(10.1172 0.024755 -0.0222039)
(10.1093 -0.0144264 0.0340042)
(10.1063 -0.00441036 0.0473245)
(10.1568 0.0294082 9.24567e-05)
(10.1495 0.0302167 -0.00137734)
(10.0842 0.0352171 -0.000830534)
(10.082 0.0101497 -0.0330844)
(10.0954 -0.0309387 -0.0364919)
(10.0797 -0.038853 -0.0130673)
(10.0587 0.0118624 0.017428)
(10.0588 0.0228169 0.0106076)
(10.0614 0.0416461 -0.0114369)
(10.0804 0.041652 -0.0128352)
(10.1021 -0.0421082 0.0340696)
(10.0653 -0.062653 0.0368927)
(10.0551 -0.0571996 0.00276488)
(10.1712 -0.0279025 -0.0156278)
(10.1903 -0.0132412 0.0037775)
(10.1105 0.0522667 0.0172566)
(10.1029 0.0606253 0.0197943)
(10.0829 0.0449252 0.0596452)
(10.0752 -0.0119327 0.0527861)
(10.0289 -0.0336965 0.0028707)
(9.98972 -0.00831531 -0.0647299)
(10.0822 -0.00896986 -0.0708574)
(10.2063 0.00574218 0.010031)
(10.1808 0.0174663 0.0411969)
(10.1594 0.033255 0.0393424)
(10.1017 -0.0198229 0.014525)
(10.0391 -0.0535596 0.00952247)
(10.0721 -0.00831954 -0.0109564)
(10.0838 0.0157631 -0.0302001)
(10.0912 0.00856402 -0.028025)
(10.1058 0.00278106 -0.0108816)
(10.1525 0.0135547 -0.0130557)
(10.1171 -0.0177175 0.000222508)
(10.0985 -0.0288107 0.00970975)
(10.1123 0.0119283 -0.00629516)
(10.1177 0.0270346 -0.0121102)
(10.1377 0.0193263 -0.00566117)
(10.0784 0.00215859 -0.00632937)
(10.0497 -0.00861356 0.00434216)
(10.0972 -0.0160834 -0.00313237)
(10.1098 0.0127233 -0.0222799)
(10.0798 0.037915 0.00257646)
(10.065 -0.00573773 0.0515696)
(10.0311 -0.0420404 0.0467084)
(10.0711 -0.0437762 -0.0297453)
(10.1232 -0.0543517 -0.0224243)
(10.1415 0.00935377 0.00667706)
(10.0758 0.0758871 0.0304009)
(10.0619 0.0768243 0.0141209)
(10.0366 0.0329813 -0.00369458)
(10.0577 -0.0937807 0.00218693)
(10.0793 -0.0889624 0.00735996)
(10.0405 0.0505306 -0.00548174)
(10.0987 0.0554511 -0.0122264)
(10.1612 0.0130605 0.00469681)
(10.108 -0.0203309 0.00908368)
(10.0987 -0.0196388 -0.00689264)
(10.1309 0.0215305 -0.0118697)
(10.1107 0.00748875 0.0194229)
(10.1005 -0.0204152 0.0219372)
(10.1495 -0.0221805 -0.0209261)
(10.1544 -0.00475041 -0.0174704)
(10.1341 0.00476664 0.0148815)
(10.0711 -0.0134679 0.0244602)
(10.0513 -0.0140226 0.0184752)
(10.0715 -0.00926067 -0.0185686)
(10.0862 -0.00943074 -0.0144913)
(10.1218 0.0389364 0.0162859)
(10.1213 0.0395067 -0.000848218)
(10.118 -0.00819106 -0.0107853)
(10.1083 -0.0160167 0.0257125)
(10.1026 0.00945601 0.0273796)
(10.11 -0.0060889 -0.0286479)
(10.0978 -0.00558004 -0.0460332)
(10.0725 0.0281699 0.0502419)
(10.0866 -0.00792151 0.0562374)
(10.0991 -0.0620731 0.0053526)
(10.0906 -0.067133 -0.00468915)
(10.0848 0.0484536 0.0182153)
(10.041 0.0942241 0.0283584)
(10.0748 0.0949759 0.00762525)
(10.0629 -0.018694 -0.0268146)
(10.0527 -0.0786234 -0.0210701)
(10.048 -0.0114329 0.0134872)
(10.0911 0.0598442 0.0543885)
(10.1114 0.0197183 0.0372131)
(10.1411 -0.0263174 0.00863913)
(10.085 -0.0245874 -0.0262622)
(10.0947 -0.0155514 -0.0306286)
(10.1507 0.0165294 0.018207)
(10.146 0.0177348 0.0171532)
(10.1364 0.00106689 -0.00762737)
(10.1378 -0.0296454 -0.0180872)
(10.1034 -0.0262817 -0.00782431)
(10.0724 -0.0111473 0.00730174)
(10.0566 0.0240273 -0.0260157)
(10.0486 0.016931 -0.0357151)
(10.04 -0.00558914 -0.0200654)
(10.039 0.00870189 -0.0143331)
(10.1107 0.0252798 0.011146)
(10.1202 0.0208311 -0.00181333)
(10.0936 0.0143968 -0.0258348)
(10.0866 0.019959 -0.0118718)
(10.0429 -0.0140236 0.0244354)
(10.059 -0.0172658 0.0108402)
(10.1078 0.0349154 -0.00555249)
(10.105 0.0332767 -0.00932956)
(10.1221 -0.000907291 -0.00312482)
(10.1018 -0.0626891 0.00625476)
(10.1085 -0.0519377 0.0210396)
(10.0728 0.000944221 0.00172768)
(10.0184 -0.00857057 -0.0481894)
(9.98542 -0.00148459 -0.0125794)
(10.0046 0.0220708 0.0139444)
(10.0798 0.0531434 -0.0103964)
(10.1094 0.0554147 0.0264135)
(10.0868 0.0118436 0.0451248)
(10.0947 -0.0104654 0.0284636)
(10.1315 -0.0181489 -0.0315401)
(10.0792 0.00192942 -0.0374941)
(10.1052 0.0167771 -0.011732)
(10.1669 0.00688253 0.00938112)
(10.1425 0.00500359 0.024028)
(10.0996 0.0202026 0.00213673)
(10.1172 -0.0145675 -0.0130538)
(10.1278 -0.0185482 0.0043993)
(10.1187 -0.00305626 0.027123)
(10.1066 -0.0241891 0.000465238)
(10.0646 -0.0396343 0.0030756)
(10.0446 -0.0211431 0.0199561)
(10.0565 0.0286676 0.0409474)
(10.0956 0.0143175 0.01596)
(10.1258 -0.0180323 -0.0483707)
(10.1368 -0.0281749 -0.0292772)
(10.0697 0.0137406 0.00839338)
(10.0514 0.054076 0.0304545)
(10.108 0.0356526 0.0417903)
(10.1511 -0.00589955 -0.0433187)
(10.1187 0.00387341 -0.0588482)
(10.1183 0.0059607 -0.0544569)
(10.1109 -0.0580177 0.00513769)
(9.89028 -0.0157016 0.00522216)
(9.92446 -0.0120922 -0.0226296)
(9.85538 -0.0133325 -0.0104063)
(9.81706 0.0235028 0.0407862)
(9.86771 0.0606377 0.0543739)
(9.92884 0.0367937 -0.00948961)
(9.93264 0.0150744 -0.00300505)
(9.93184 0.00292635 0.0482339)
(9.95108 0.00623394 0.0270529)
(9.94583 0.0102749 -0.0460396)
(9.90871 0.00957033 -0.0234026)
(9.94764 0.00849797 0.0194084)
(9.998 -0.008808 0.0169303)
(10.0038 0.00172424 0.0131749)
(9.98483 0.0171229 -0.0137048)
(9.94475 0.000829406 -0.0270975)
(9.9568 0.00023888 0.00471934)
(9.98276 0.00855222 0.0406732)
(9.95117 -0.00933792 -0.00295972)
(9.94894 -0.0281251 -0.023397)
(9.98588 0.00553684 0.000648579)
(9.99483 0.0313885 -1.07998e-05)
(9.9867 0.0160122 -0.00435193)
(9.96658 -0.00521132 -0.0194049)
(9.95631 0.00315085 -0.0134114)
(9.89427 0.0118242 -0.0122909)
(9.902 0.0258871 -0.0235122)
(10.0384 0.0155898 0.0455118)
(10.053 -0.0504852 0.0714201)
(9.95658 -0.0575435 -0.0119607)
(9.9027 -0.0289947 -0.0695826)
(9.86696 -0.0215879 -0.00246088)
)
;
    }
    procBoundary2to3
    {
        type            processor;
        value           nonuniform List<vector> 
256
(
(9.95748 -0.0165406 0.0181115)
(9.94418 -0.00497213 0.000549079)
(9.93982 -0.0134207 -0.0204699)
(9.95313 -0.0249506 -0.0319601)
(9.96522 -0.00931793 -0.0397844)
(9.88842 0.000982662 -0.031541)
(9.88798 -0.000232493 -0.000579782)
(10.004 -0.0197544 0.0113894)
(10.0179 -0.00416678 0.0448036)
(9.99279 0.00112294 0.0396272)
(9.95624 0.0187863 0.0339661)
(9.94052 0.0434824 0.00342786)
(9.96898 0.0463602 -0.0323547)
(9.99461 -0.00443173 -0.0431106)
(9.98953 -0.00374178 -0.0267604)
(9.98017 0.0158068 -0.0090168)
(9.96701 0.00430556 0.0105993)
(9.96962 -0.00188265 0.00756084)
(9.98751 -0.00240882 -0.0177707)
(9.9797 0.00648418 -0.0280584)
(9.9471 0.028633 0.00546526)
(9.90338 0.0117127 0.0305756)
(9.92871 -0.00492091 0.0155914)
(9.95644 -0.00706984 -0.0282177)
(9.94397 0.00426806 -0.0276068)
(9.93418 0.0104939 -0.00357664)
(9.96347 0.00764842 -0.00320255)
(9.95961 0.00890741 -0.00433056)
(9.87367 -0.00579799 0.00161129)
(9.88631 -0.0131204 0.00548323)
(9.96266 -0.00340702 -0.0254527)
(9.97541 -0.00891129 -0.0133599)
(10.1387 0.00320408 0.011142)
(10.1389 0.0366584 0.0103885)
(10.1382 0.0326552 0.00824548)
(10.1019 -0.0329965 -0.0217498)
(10.0857 -0.0120974 -0.0542792)
(10.0392 0.0085846 -0.0456211)
(10.0183 -0.0106376 -0.00998479)
(10.1251 -0.00982401 0.0102562)
(10.1574 -0.0175522 0.0154781)
(10.1518 -0.0185411 0.03127)
(10.1406 0.00651169 0.0628335)
(10.1259 0.0168496 0.0547569)
(10.1194 0.0132688 0.00707149)
(10.0955 0.00932995 -0.00834503)
(10.1234 0.0194683 -0.0210544)
(10.1243 -0.0023247 -0.0248875)
(10.0765 -0.0315212 -0.00297161)
(10.0721 -0.017259 0.00336122)
(10.1058 -0.0299919 -0.00887549)
(10.1418 -0.0394698 -0.011792)
(10.0917 -0.0175445 -0.0199463)
(10.069 -0.00683324 -0.0156124)
(10.0963 0.000708964 0.00302576)
(10.1066 -0.00477597 -0.0169492)
(10.0733 -0.0125814 -0.0300039)
(10.0801 -0.0154771 -0.000768951)
(10.0851 -0.0136789 0.00274856)
(10.0711 0.00258139 -0.0179802)
(10.0644 0.0203537 0.0193164)
(10.0865 0.0189285 0.0360555)
(10.1204 0.0140374 0.00635821)
(10.1228 0.00135053 -0.000706051)
(10.0873 -0.00191408 0.0237812)
(10.1042 0.0334334 -0.0812176)
(10.1085 0.0526881 -0.0912109)
(10.0934 0.0237418 -0.0181471)
(10.0811 -0.0133436 0.00628125)
(10.0307 0.00463704 -0.0131686)
(10.0487 0.0341127 -0.031093)
(10.1165 0.0067922 0.0420451)
(10.1544 -0.0147576 0.0876819)
(10.1361 -0.00157814 0.00282179)
(10.1175 0.00961623 -0.0175943)
(10.1151 0.00897693 -0.0113489)
(10.1048 0.000631252 -0.0154308)
(10.1224 -0.00966656 -0.0128865)
(10.1524 0.0127943 -0.0102518)
(10.1269 0.0107963 -0.00693392)
(10.1172 -0.00924817 0.0111558)
(10.0973 -0.0137282 -0.00832779)
(10.1064 -0.0311723 -0.0138789)
(10.1141 -0.0388161 0.0170368)
(10.0611 -0.0221743 0.0374982)
(10.0303 -5.9909e-05 0.0349544)
(10.0613 0.0323184 0.0243728)
(10.0756 0.0329148 0.000412671)
(10.0814 0.0162889 0.00248308)
(10.0614 -0.0245335 -0.00606748)
(10.0689 -0.0177437 -0.0340763)
(10.0478 -0.00638716 -0.0429585)
(10.0612 0.00102491 -0.00297867)
(10.1065 -0.0119183 0.00691997)
(10.1193 -0.0374646 0.0140508)
(10.0963 -0.0215712 0.0290162)
(10.1577 -0.0214402 -0.00886933)
(10.0882 -0.0340282 -0.00329791)
(10.0732 -0.0115218 0.000174203)
(10.0808 -0.00899929 0.0121092)
(10.0809 -0.0348451 0.0304701)
(10.0357 -0.0253437 -0.0346256)
(10.0137 -0.00836435 -0.0904537)
(10.0764 0.00995553 -0.0244902)
(10.1417 0.0284254 0.0424693)
(10.1064 0.000897315 0.0529864)
(10.1214 0.0013333 0.056464)
(10.1694 -0.00105205 0.0468863)
(10.1731 0.0423097 0.0240211)
(10.1493 0.0318634 0.00674245)
(10.0877 -0.0131713 -0.0114565)
(10.1059 -0.0237372 -0.00517203)
(10.1406 0.00467167 -0.00996901)
(10.1425 0.00954538 -0.0193786)
(10.1515 0.0275173 -0.0401259)
(10.1596 0.0198986 -0.0323635)
(10.0993 -0.0250424 0.00277903)
(10.0824 -0.0293762 0.017765)
(10.1062 -0.00795325 9.29622e-05)
(10.1033 -0.00723778 -0.00596798)
(10.0877 -0.00668687 -0.00952379)
(10.0271 0.0285527 -0.0100714)
(10.0577 0.016203 -0.0017646)
(10.0979 -0.0180752 -0.0161217)
(10.0665 -0.0294043 -0.00891675)
(10.017 -0.000718794 0.0164904)
(10.089 0.03243 0.0247141)
(10.1502 -2.57734e-05 -0.00949582)
(10.0822 0.0106744 -0.00676783)
(10.0862 0.0304519 -0.0138192)
(10.0921 0.0338951 -0.0197582)
(10.0936 0.0227209 -0.0147385)
(10.0553 0.00560809 0.0138166)
(10.0395 -0.0324119 -0.0307675)
(10.0525 -0.0506575 -0.0513844)
(10.0872 -0.0209607 -0.0139885)
(10.0852 0.0631652 0.0102537)
(10.0806 0.0690449 0.00990084)
(10.1556 -0.0308306 0.0242478)
(10.1517 -0.0463779 0.0147916)
(10.1767 0.0328901 0.00236626)
(10.1332 0.0131017 -0.0215134)
(10.0723 -0.0368244 -0.0231176)