/*--------------------------------*- C++ -*----------------------------------*\
| =========                 |                                                 |
| \\      /  F ield         | OpenFOAM: The Open Source CFD Toolbox           |
|  \\    /   O peration     | Version:  2506                                  |
|   \\  /    A nd           | Website:  www.openfoam.com                      |
|    \\/     M anipulation  |                                                 |
\*---------------------------------------------------------------------------*/
FoamFile
{
    version     2.0;
    format      ascii;
    arch        "LSB;label=32;scalar=64";
    class       volScalarField;
    location    "0.001";
    object      Ksl;
}
// * * * * * * * * * * * * * * * * * * * * * * * * * * * * * * * * * * * * * //

dimensions      [1 -3 -1 0 0 0 0];

internalField   nonuniform List<scalar> 
512
(
0
0
0.349886
0
0
0
0
0
0
0
0
0
0
0
0
0
0
0
0
0
0
0
0
0
0
0
0
0
0
0
0
0
0
0
0
0
0
0
0
0
0
0
0
0
0
0.0356849
0
0
0
0
0
0
0
0
0
0
0
0
0
0
0
0
0
0
0
0
0
0
0
0
0
0
0
0
0
0
0
0
0
0
0
0.213909
0
0
0
0
0
0
0
0
0
0
0
0
0
0
0
0
0
0
0
0
0
0
0
0
0
0
0
0
0
0
0
0
0
0
0
0
0
0
0
0
0
0
0
0.349021
0
0
0
0
0
0
0.0357533
0
0
0
0
0
0
0
0
0
0
0
0
0
0.352569
0
0
0
0
0
0
0
0
0
0
0
0
0
0
0
0
0
0
0
0
0
0
0
0
0
0
0
0
0
0
0
0
0
0
0
0
0
0.213133
0
0
0
0
0
0
0
0
0
0
0
0
0
0
0
0
0
0
0
0
0
0.354022
0
0
0
0
0
0
0
0
0
0
0
0
0
0
0
0
0
0
0
0
0
0
0
0
0
0
0
0
0
0
0
0
0
0
0
0
0
0
0
0
0
0
0
0
0
0.213212
0
0
0
3.19982
5.0274
4.02366
1.05323
2.19798
4.9488
4.53636
4.69814
3.89027
2.4688
4.31265
3.52425
5.09287
4.21031
2.12616
3.43169
7.61928
6.26211
2.17749
3.20505
2.00301
5.43747
26.8526
1.00699
7.56203
5.39574
3.13269
1.3304
3.84918
4.14397
0.995388
5.32853
3.09193
4.60798
2.81173
4.22486
4.06086
5.30489
5.22354
3.98559
8.79881
2.47424
6.87916
2.2332
3.47242
4.54841
2.92042
4.46083
6.21337
7.82498
4.40281
5.59881
3.34839
2.89161
5.79262
3.05826
4.18187
4.13901
3.03018
4.15581
5.62416
1.4048
5.07053
3.01795
4.27706
9.10309
2.79131
1.81288
2.0668
3.15641
6.21371
7.62647
2.1258
5.31649
4.39459
8.39464
2.26229
4.4482
3.09483
6.73434
1.02634
4.64253
2.36921
5.47966
2.24896
3.34116
4.13368
2.10851
4.28503
4.29987
6.00315
3.90102
1.13028
0.618088
8.19531
0
1.10289
1.03064
3.77537
3.20829
4.23612
5.72095
2.78145
4.87263
6.63743
2.15945
2.73482
6.08878
3.77958
1.1121
4.21914
5.43386
4.27916
2.64821
4.93436
7.91013
4.23779
4.15635
4.6969
1.06902
4.33884
7.8015
4.36854
9.49933
4.28688
4.76835
3.22766
1.02076
3.59384
7.73811
5.12014
4.27718
3.09073
4.45709
5.78936
3.74074
5.99337
4.72661
8.81937
9.00244
3.23913
2.04456
6.22414
4.26869
1.92609
5.24613
2.65929
6.29056
5.57736
6.34044
3.79137
3.08095
6.48859
4.12017
6.09945
5.44908
2.16675
2.91608
1.06504
3.4522
3.39347
9.74203
4.0872
4.16928
2.02297
5.6308
5.42183
3.39695
5.05789
2.42497
3.97255
2.16928
5.43439
4.07381
3.37584
7.2921
3.45811
4.23741
3.09246
7.42191
2.07804
0
2.09119
1.25323
2.27494
2.17297
0.0351282
2.32417
4.22321
2.09173
3.11541
5.24543
3.28295
2.09063
7.47692
5.49714
4.40228
3.64588
3.32384
5.94783
3.30054
4.31266
3.19957
2.11393
1.33988
3.08154
9.79493
7.87095
4.30141
5.58264
4.37323
2.14655
1.01068
4.53224
5.17158
5.30987
7.22491
7.58156
4.80525
2.33226
0
6.63598
4.24688
5.55142
1.0302
2.15784
5.7429
4.10224
1.96996
4.42964
1.99212
4.98252
4.39428
6.38712
3.28973
2.22684
3.88003
4.06557
2.53722
2.03224
2.94855
5.47046
1.12054
5.34443
6.23789
5.06015
6.91322
4.30085
3.20896
7.76695
5.94418
7.13863
3.01423
4.16374
10.0001
2.13042
)
;

boundaryField
{
    wall
    {
        type            zeroGradient;
    }
    outlet
    {
        type            cyclic;
    }
    inlet
    {
        type            cyclic;
    }
    procBoundary3to2
    {
        type            processor;
        value           uniform 0;
    }
}


// ************************************************************************* //
