/*--------------------------------*- C++ -*----------------------------------*\
| =========                 |                                                 |
| \\      /  F ield         | OpenFOAM: The Open Source CFD Toolbox           |
|  \\    /   O peration     | Version:  2506                                  |
|   \\  /    A nd           | Website:  www.openfoam.com                      |
|    \\/     M anipulation  |                                                 |
\*---------------------------------------------------------------------------*/
FoamFile
{
    version     2.0;
    format      ascii;
    arch        "LSB;label=32;scalar=64";
    class       volScalarField;
    location    "0.001";
    object      p;
}
// * * * * * * * * * * * * * * * * * * * * * * * * * * * * * * * * * * * * * //

dimensions      [0 2 -2 0 0 0 0];

internalField   nonuniform List<scalar> 
512
(
-0.332748
-0.332715
-0.333045
-0.334451
-0.335763
-0.337941
-0.340048
-0.342225
-0.344452
-0.345818
-0.346981
-0.347471
-0.348055
-0.34835
-0.348401
-0.348803
-0.349409
-0.350927
-0.35072
-0.349054
-0.347768
-0.34699
-0.346174
-0.345279
-0.343749
-0.341999
-0.340753
-0.339146
-0.337166
-0.335082
-0.333388
-0.33297
-0.332646
-0.333034
-0.33357
-0.334889
-0.336127
-0.338106
-0.340233
-0.342354
-0.344972
-0.345772
-0.346702
-0.347315
-0.347683
-0.347918
-0.348547
-0.348874
-0.349236
-0.350376
-0.350343
-0.349525
-0.348295
-0.347334
-0.346399
-0.345156
-0.343387
-0.341911
-0.34076
-0.339558
-0.337552
-0.335359
-0.333678
-0.33292
-0.333701
-0.333705
-0.334184
-0.335288
-0.336144
-0.338048
-0.340429
-0.342383
-0.344627
-0.345667
-0.346105
-0.346914
-0.34783
-0.347984
-0.34832
-0.349136
-0.349268
-0.349667
-0.350288
-0.350238
-0.348902
-0.347641
-0.346881
-0.345519
-0.344069
-0.34248
-0.341385
-0.340052
-0.337661
-0.335515
-0.334338
-0.333564
-0.33373
-0.333833
-0.334688
-0.335721
-0.336958
-0.339196
-0.341085
-0.342635
-0.344725
-0.345406
-0.346287
-0.347504
-0.348082
-0.348474
-0.348828
-0.349651
-0.349569
-0.34972
-0.350108
-0.349766
-0.349126
-0.348275
-0.347152
-0.345964
-0.344811
-0.342939
-0.341915
-0.340498
-0.338341
-0.336151
-0.335212
-0.334156
-0.334089
-0.334906
-0.336268
-0.337043
-0.337744
-0.339808
-0.341781
-0.342961
-0.344339
-0.345378
-0.346635
-0.348477
-0.348903
-0.348426
-0.349026
-0.349949
-0.34994
-0.350166
-0.349763
-0.349947
-0.349376
-0.348232
-0.346689
-0.345972
-0.345624
-0.343794
-0.342388
-0.340631
-0.339016
-0.337291
-0.335879
-0.334445
-0.334633
-0.335271
-0.337022
-0.33851
-0.338958
-0.340579
-0.3426
-0.343925
-0.344957
-0.345823
-0.347064
-0.348254
-0.348827
-0.348365
-0.348921
-0.34931
-0.349829
-0.350173
-0.35002
-0.350509
-0.349619
-0.348217
-0.34716
-0.346346
-0.345509
-0.344642
-0.343136
-0.341318
-0.339428
-0.337814
-0.336485
-0.334865
-0.335779
-0.336001
-0.337717
-0.338668
-0.339858
-0.341219
-0.343191
-0.344753
-0.345994
-0.346495
-0.34715
-0.347946
-0.348281
-0.348199
-0.348551
-0.349531
-0.350062
-0.350949
-0.35102
-0.350359
-0.34907
-0.347959
-0.346985
-0.346813
-0.346465
-0.345566
-0.344631
-0.342213
-0.339958
-0.338462
-0.337426
-0.336218
-0.336378
-0.336737
-0.337864
-0.339061
-0.340031
-0.341753
-0.342844
-0.344472
-0.346324
-0.347341
-0.347782
-0.34809
-0.348282
-0.348786
-0.349264
-0.34993
-0.350915
-0.3518
-0.351192
-0.349851
-0.348883
-0.34851
-0.347366
-0.346985
-0.346848
-0.345533
-0.344703
-0.342277
-0.340367
-0.338664
-0.338214
-0.337009
-0.335831
-0.3358
-0.335524
-0.336121
-0.336783
-0.3388
-0.341251
-0.343935
-0.346128
-0.347261
-0.348567
-0.348631
-0.349234
-0.349453
-0.348872
-0.349189
-0.34996
-0.352965
-0.352725
-0.349502
-0.347843
-0.347295
-0.346974
-0.346693
-0.345079
-0.343167
-0.342452
-0.340888
-0.339057
-0.336918
-0.335155
-0.33569
-0.33503
-0.335573
-0.335591
-0.33673
-0.337327
-0.339242
-0.341431
-0.343777
-0.347392
-0.347336
-0.348161
-0.348431
-0.34858
-0.349279
-0.349274
-0.349404
-0.349745
-0.352242
-0.351868
-0.350703
-0.349011
-0.347647
-0.347295
-0.346214
-0.343819
-0.342624
-0.34223
-0.341702
-0.339683
-0.337129
-0.335409
-0.335065
-0.337003
-0.336084
-0.336076
-0.336981
-0.336777
-0.338587
-0.341517
-0.343614
-0.346501
-0.347253
-0.34657
-0.34717
-0.349101
-0.348554
-0.348098
-0.349896
-0.349878
-0.351349
-0.351854
-0.352544
-0.350279
-0.348372
-0.347999
-0.346537
-0.344845
-0.343394
-0.343007
-0.342662
-0.338935
-0.336568
-0.336046
-0.335634
-0.33505
-0.33497
-0.335995
-0.336864
-0.337805
-0.340537
-0.342372
-0.343515
-0.346511
-0.346352
-0.346928
-0.348588
-0.349105
-0.349335
-0.349314
-0.35074
-0.350369
-0.350468
-0.351344
-0.35092
-0.350356
-0.349923
-0.3485
-0.347095
-0.346041
-0.343731
-0.343626
-0.342757
-0.339876
-0.337877
-0.337067
-0.335801
-0.334102
-0.335929
-0.33836
-0.338719
-0.339074
-0.341027
-0.343247
-0.343779
-0.345202
-0.345882
-0.347117
-0.350897
-0.350987
-0.349002
-0.349782
-0.351538
-0.351352
-0.351404
-0.350705
-0.351073
-0.351
-0.349632
-0.347108
-0.346783
-0.34769
-0.344961
-0.343884
-0.342032
-0.340647
-0.338824
-0.337292
-0.335076
-0.334636
-0.335969
-0.339064
-0.340966
-0.340144
-0.341758
-0.344215
-0.345431
-0.346236
-0.346653
-0.348038
-0.349769
-0.350413
-0.348802
-0.349902
-0.350038
-0.35051
-0.351034
-0.350814
-0.352384
-0.351419
-0.349348
-0.348078
-0.347363
-0.347124
-0.346215
-0.344632
-0.342701
-0.340562
-0.338929
-0.33761
-0.334542
-0.336565
-0.336779
-0.339801
-0.340299
-0.341327
-0.342514
-0.34506
-0.346794
-0.34798
-0.347868
-0.347999
-0.349056
-0.349187
-0.348639
-0.350205
-0.350389
-0.35072
-0.352545
-0.352924
-0.35213
-0.349946
-0.348688
-0.347379
-0.34806
-0.348456
-0.348008
-0.347427
-0.34404
-0.341196
-0.33978
-0.338991
-0.337176
-0.337487
-0.337737
-0.339444
-0.340786
-0.341337
-0.343465
-0.34395
-0.345908
-0.348582
-0.34942
-0.349159
-0.349343
-0.349314
-0.349795
-0.350189
-0.350951
-0.352473
-0.354161
-0.353125
-0.351084
-0.349456
-0.349988
-0.348024
-0.348292
-0.34923
-0.347105
-0.347006
-0.344151
-0.342456
-0.340073
-0.340586
-0.338705
)
;

boundaryField
{
    wall
    {
        type            zeroGradient;
    }
    outlet
    {
        type            cyclic;
    }
    inlet
    {
        type            cyclic;
    }
    procBoundary3to2
    {
        type            processor;
        value           nonuniform List<scalar> 
256
(
-0.328243
-0.32862
-0.329774
-0.331624
-0.333693
-0.336012
-0.338313
-0.34051
-0.342513
-0.344043
-0.345247
-0.346106
-0.346792
-0.347291
-0.347674
-0.348071
-0.348486
-0.348938
-0.348773
-0.347992
-0.347053
-0.346112
-0.345067
-0.343834
-0.342293
-0.340566
-0.338796
-0.336786
-0.334505
-0.332154
-0.3301
-0.328776
-0.328875
-0.329285
-0.330404
-0.332113
-0.334053
-0.336257
-0.338502
-0.340646
-0.342653
-0.344058
-0.345182
-0.346052
-0.346719
-0.347219
-0.3477
-0.3481
-0.348442
-0.348801
-0.348711
-0.348138
-0.347252
-0.346282
-0.345205
-0.343908
-0.342347
-0.340689
-0.338989
-0.337095
-0.334872
-0.33259
-0.330644
-0.329359
-0.33008
-0.330395
-0.331381
-0.332878
-0.334598
-0.336663
-0.338829
-0.340839
-0.342707
-0.344064
-0.345096
-0.346017
-0.346776
-0.347277
-0.347734
-0.3482
-0.34846
-0.348657
-0.348705
-0.348343
-0.347513
-0.346517
-0.345462
-0.344174
-0.342706
-0.341085
-0.339449
-0.337608
-0.335428
-0.333295
-0.331602
-0.330454
-0.331236
-0.33154
-0.332496
-0.333837
-0.335447
-0.337416
-0.339373
-0.341165
-0.342868
-0.344123
-0.345221
-0.34624
-0.346963
-0.347469
-0.347927
-0.348396
-0.348595
-0.34871
-0.348695
-0.348356
-0.347686
-0.346779
-0.345696
-0.344495
-0.343166
-0.341572
-0.339996
-0.338219
-0.336201
-0.334226
-0.332737
-0.331647
-0.33238
-0.332805
-0.33381
-0.335008
-0.336379
-0.338165
-0.339984
-0.341573
-0.343044
-0.344286
-0.345453
-0.346568
-0.347238
-0.34758
-0.348049
-0.348532
-0.348754
-0.348859
-0.348705
-0.348462
-0.347834
-0.346893
-0.345779
-0.344733
-0.343634
-0.342152
-0.340575
-0.338816
-0.337005
-0.335265
-0.333823
-0.33274
-0.33341
-0.333813
-0.334859
-0.336086
-0.337318
-0.338903
-0.340618
-0.342133
-0.343459
-0.3446
-0.345692
-0.346657
-0.347293
-0.347607
-0.348052
-0.348484
-0.348819
-0.348994
-0.348887
-0.34865
-0.347953
-0.346985
-0.34598
-0.345012
-0.343954
-0.34272
-0.341214
-0.339476
-0.337704
-0.336098
-0.334769
-0.33373
-0.334346
-0.334646
-0.335619
-0.336729
-0.337997
-0.339471
-0.341092
-0.342605
-0.343931
-0.344963
-0.34587
-0.346664
-0.347223
-0.347599
-0.348027
-0.348578
-0.348996
-0.349293
-0.349185
-0.348699
-0.347896
-0.346998
-0.346079
-0.34529
-0.344406
-0.343255
-0.341882
-0.340081
-0.338286
-0.336776
-0.335603
-0.33469
-0.334877
-0.335152
-0.335995
-0.337087
-0.338309
-0.339778
-0.34122
-0.342726
-0.344164
-0.345267
-0.346087
-0.346741
-0.347254
-0.347742
-0.348224
-0.34875
-0.349259
-0.349568
-0.349312
-0.348643
-0.34787
-0.347122
-0.34622
-0.345447
-0.344632
-0.343449
-0.342121
-0.340332
-0.338596
-0.337129
-0.336112
-0.335251
)
;
    }
}


// ************************************************************************* //
