/*--------------------------------*- C++ -*----------------------------------*\
| =========                 |                                                 |
| \\      /  F ield         | OpenFOAM: The Open Source CFD Toolbox           |
|  \\    /   O peration     | Version:  2506                                  |
|   \\  /    A nd           | Website:  www.openfoam.com                      |
|    \\/     M anipulation  |                                                 |
\*---------------------------------------------------------------------------*/
FoamFile
{
    version     2.0;
    format      ascii;
    arch        "LSB;label=32;scalar=64";
    class       surfaceScalarField;
    location    "0.001";
    object      phi;
}
// * * * * * * * * * * * * * * * * * * * * * * * * * * * * * * * * * * * * * //

dimensions      [0 3 -1 0 0 0 0];

oriented        oriented;

internalField   nonuniform List<scalar> 
1200
(
5.36235e-06
-1.25387e-09
5.51182e-08
5.36559e-06
3.98233e-09
4.38718e-08
5.38132e-06
6.53852e-09
1.72947e-08
5.38204e-06
5.46487e-09
2.90888e-08
5.39072e-06
4.5422e-09
1.26001e-08
5.38849e-06
2.06631e-09
2.42343e-08
5.38943e-06
2.30217e-09
1.84151e-08
5.39044e-06
1.60238e-09
1.87704e-08
5.3811e-06
6.4602e-09
2.70587e-08
5.37831e-06
-5.68347e-10
2.55013e-08
5.36931e-06
-3.47742e-09
3.41207e-08
5.37002e-06
-1.94974e-09
1.8274e-08
5.36597e-06
-4.6369e-09
2.44507e-08
5.36469e-06
-5.3702e-09
1.98686e-08
5.36957e-06
1.8211e-09
2.3606e-09
5.36885e-06
8.87135e-10
8.9783e-09
5.37848e-06
-2.16152e-09
4.03911e-09
5.36025e-06
-6.88019e-09
4.99325e-08
5.3439e-06
-4.68672e-09
4.53375e-08
5.3487e-06
5.84941e-09
2.58697e-09
5.35367e-06
6.56932e-09
-2.61474e-09
5.34018e-06
4.2958e-09
2.01709e-08
5.34179e-06
2.80572e-09
9.38245e-09
5.34368e-06
-1.51433e-09
1.76181e-08
5.33835e-06
-4.48897e-09
2.79955e-08
5.34719e-06
-1.0907e-09
1.01178e-08
5.34512e-06
8.78051e-11
2.63998e-08
5.34006e-06
5.14644e-09
2.93568e-08
5.33708e-06
4.80557e-09
3.13749e-08
5.34364e-06
3.44913e-09
2.65157e-08
5.35883e-06
3.62574e-09
2.2204e-08
-6.12114e-10
5.17989e-08
6.72384e-06
1.31342e-08
2.54165e-08
6.72566e-06
8.37553e-09
4.06556e-08
6.73565e-06
7.67337e-09
2.84398e-08
6.73414e-06
4.98212e-09
3.671e-08
6.74273e-06
2.32271e-10
2.16528e-08
6.74388e-06
-6.93327e-10
2.47139e-08
6.7446e-06
2.45252e-09
2.0773e-08
6.74865e-06
3.82172e-10
1.85109e-08
6.72671e-06
-4.29297e-09
6.17041e-08
6.72945e-06
-1.3192e-09
1.94298e-08
6.72586e-06
-7.43438e-09
2.65463e-08
6.72478e-06
-4.97599e-09
1.98796e-08
6.72168e-06
1.83128e-09
8.67679e-09
6.72689e-06
8.10464e-10
-2.81709e-09
6.72325e-06
-2.81542e-09
1.88602e-08
6.72174e-06
3.28427e-09
8.7958e-09
6.72932e-06
3.98504e-10
-2.2749e-10
6.7158e-06
-8.82302e-09
3.5147e-08
6.70743e-06
-6.95982e-10
2.47675e-08
6.70291e-06
8.85886e-09
1.88414e-08
6.70784e-06
7.57826e-09
7.08237e-09
6.70671e-06
3.82162e-09
1.47712e-08
6.70277e-06
6.02045e-09
1.56385e-08
6.69717e-06
4.52641e-09
1.51503e-08
6.70015e-06
8.49363e-09
-2.97191e-09
6.70488e-06
7.1014e-09
2.34189e-09
6.70425e-06
7.80475e-09
1.50393e-08
6.69272e-06
6.17127e-09
4.1293e-08
6.69203e-06
1.38596e-09
3.76028e-08
6.69872e-06
1.9778e-09
2.93862e-08
6.70926e-06
8.24542e-09
2.27599e-08
8.04592e-09
2.85984e-08
6.71834e-06
4.2328e-10
6.49506e-08
6.72514e-06
1.62314e-09
4.13353e-08
6.73721e-06
6.31032e-09
2.43241e-08
6.73459e-06
5.43266e-09
3.22977e-08
6.74685e-06
1.0166e-08
-2.87626e-09
6.7503e-06
1.43148e-08
-1.15296e-09
6.74238e-06
8.20103e-09
2.21635e-08
6.74838e-06
3.16225e-09
1.05089e-08
6.73474e-06
1.21306e-09
3.21342e-08
6.7259e-06
-3.25254e-09
3.0812e-08
6.72869e-06
2.27268e-09
1.02028e-10
6.73124e-06
7.34253e-09
-3.66889e-09
6.72415e-06
3.15495e-09
1.89282e-08
6.72591e-06
6.09991e-09
1.78142e-09
6.7305e-06
6.32782e-09
-6.41012e-09
6.72309e-06
6.42318e-09
1.59807e-08
6.72701e-06
3.73658e-09
2.82745e-09
6.72894e-06
6.63627e-10
1.93616e-10
6.72073e-06
-2.24931e-09
2.95428e-08
6.70492e-06
-5.85496e-09
5.42259e-08
6.70712e-06
2.80281e-09
1.99391e-08
6.71221e-06
7.87245e-09
4.89737e-09
6.70543e-06
3.37751e-09
2.71706e-08
6.70424e-06
5.56056e-09
1.69572e-08
6.70124e-06
9.25494e-09
1.92749e-08
6.70636e-06
5.74944e-09
1.36764e-08
6.7036e-06
6.62023e-09
2.81375e-08
6.69334e-06
5.5659e-09
4.14071e-08
6.69813e-06
8.49009e-09
1.6009e-08
6.70606e-06
7.94306e-09
1.38575e-08
6.71169e-06
1.09114e-08
2.58988e-08
7.3883e-09
2.59155e-08
6.72619e-06
4.51439e-09
2.05055e-08
6.73397e-06
1.33875e-08
9.11445e-09
6.73492e-06
1.97093e-08
1.30429e-08
6.73709e-06
1.65079e-08
1.02886e-08
6.74809e-06
9.84342e-09
8.20487e-09
6.74472e-06
7.65446e-09
3.22923e-08
6.74097e-06
8.68775e-09
2.46619e-08
6.74541e-06
4.07563e-09
1.30301e-08
6.7295e-06
-4.78693e-09
4.51261e-08
6.73425e-06
-3.44077e-10
8.36374e-09
6.73613e-06
4.35665e-09
9.35476e-09
6.72755e-06
1.21125e-08
1.96122e-08
6.72816e-06
1.02366e-08
6.27542e-09
6.72742e-06
-5.86765e-10
1.99997e-08
6.73068e-06
2.46557e-09
1.18783e-08
6.7194e-06
3.71223e-09
2.96866e-08
6.7238e-06
4.59413e-09
6.9193e-09
6.72613e-06
5.55042e-09
5.40869e-09
6.71401e-06
-4.27791e-09
3.18126e-08
6.71089e-06
2.26086e-09
1.26284e-08
6.71051e-06
3.10698e-09
1.80665e-08
6.70686e-06
-5.31313e-10
3.0755e-08
6.70791e-06
-5.74015e-09
2.62672e-08
6.70852e-06
1.15662e-10
2.32085e-08
6.69559e-06
1.01301e-08
3.26362e-08
6.70608e-06
1.06756e-08
1.65728e-09
6.70023e-06
5.92861e-09
3.05372e-08
6.69086e-06
1.67581e-09
4.17607e-08
6.69216e-06
8.43323e-09
2.55036e-08
6.70838e-06
1.42234e-08
3.73642e-10
6.71024e-06
8.34021e-09
3.16362e-08
3.62383e-09
2.57546e-08
6.72965e-06
6.79927e-09
6.82807e-09
6.73555e-06
4.55387e-09
2.92142e-08
6.73026e-06
9.44491e-09
4.6267e-08
6.73044e-06
1.83049e-08
2.3469e-08
6.7473e-06
1.5151e-08
-5.29381e-09
6.7447e-06
9.63512e-09
2.11577e-08
6.73526e-06
1.02381e-08
3.03401e-08
6.73752e-06
1.20329e-08
7.12184e-09
6.73287e-06
7.71701e-09
8.32362e-09
6.73399e-06
5.56102e-09
6.62614e-09
6.73858e-06
5.36882e-09
9.16854e-09
6.72425e-06
-2.76845e-09
5.30797e-08
6.7171e-06
-9.48444e-10
3.91448e-08
6.72871e-06
-7.58572e-10
-8.73701e-10
6.73142e-06
-1.30203e-09
1.32841e-08
6.72238e-06
-7.92524e-09
3.8384e-08
6.72451e-06
-1.36916e-09
1.86591e-08
6.71519e-06
1.05651e-10
3.11221e-08
6.72181e-06
3.20942e-09
-2.04754e-09
6.71173e-06
6.98855e-09
2.392e-08
6.70478e-06
3.01386e-09
2.63174e-08
6.70088e-06
-1.93006e-10
2.03e-08
6.71307e-06
5.85286e-09
-1.24332e-08
6.71594e-06
4.67503e-09
8.05244e-09
6.69689e-06
-1.38054e-09
5.54457e-08
6.7025e-06
1.05863e-08
1.50014e-08
6.69734e-06
9.35895e-09
2.43907e-08
6.70142e-06
8.57163e-09
1.16999e-08
6.70137e-06
5.15614e-09
2.84547e-08
6.70594e-06
6.53805e-09
2.84366e-08
6.70542e-06
7.58408e-09
2.6983e-08
5.26843e-09
7.70176e-09
6.7263e-06
1.43127e-08
-4.51308e-10
6.73983e-06
9.09848e-09
1.42627e-10
6.73987e-06
8.67333e-09
2.77568e-08
6.72811e-06
2.01198e-09
5.83711e-08
6.74187e-06
1.12276e-08
1.0647e-08
6.74488e-06
7.9997e-09
1.95686e-08
6.73747e-06
7.37044e-09
3.50537e-08
6.73401e-06
1.03171e-08
2.75787e-08
6.73252e-06
1.29327e-08
1.49904e-08
6.73787e-06
8.39131e-09
7.10223e-09
6.73738e-06
1.08786e-09
2.19215e-08
6.72882e-06
-3.83414e-09
2.95984e-08
6.71478e-06
-6.79561e-09
3.90618e-08
6.72844e-06
-2.06842e-09
-2.88235e-09
6.72451e-06
-4.59685e-09
1.80912e-08
6.72627e-06
2.75896e-09
-2.13032e-09
6.72589e-06
2.92825e-09
8.704e-09
6.71968e-06
9.67557e-09
1.13786e-08
6.72575e-06
1.2465e-08
-1.18436e-09
6.70941e-06
-1.85984e-09
4.84268e-08
6.70744e-06
-6.83195e-09
3.26326e-08
6.71171e-06
-3.21002e-09
1.41406e-08
6.71388e-06
-2.16859e-09
2.05989e-08
6.71283e-06
5.81956e-09
1.65845e-08
6.71189e-06
1.18983e-08
6.05808e-09
6.70592e-06
1.15175e-08
2.90515e-08
6.70205e-06
1.86344e-08
1.862e-08
6.69866e-06
1.11673e-08
2.3812e-08
6.70221e-06
6.62994e-09
1.65194e-08
6.70644e-06
8.09219e-09
1.56562e-08
6.70096e-06
1.1755e-08
2.27585e-08
1.68355e-08
-1.45105e-08
6.72315e-06
7.46773e-09
1.44532e-08
6.73929e-06
9.17052e-09
7.13115e-10
6.72778e-06
1.85351e-09
4.45617e-08
6.73258e-06
4.91442e-09
1.65211e-08
6.7358e-06
2.17463e-09
2.90965e-08
6.74404e-06
6.65376e-09
1.49501e-08
6.73761e-06
-4.30058e-09
4.43393e-08
6.73362e-06
-3.4769e-09
4.46377e-08
6.72531e-06
4.12567e-09
4.29079e-08
6.72726e-06
1.05655e-08
1.5003e-08
6.73035e-06
7.87029e-09
6.11372e-09
6.72571e-06
1.78116e-09
1.50383e-08
6.71972e-06
1.26854e-11
1.2407e-08
6.71914e-06
7.31581e-09
-1.29914e-09
6.72447e-06
8.86704e-09
-1.36199e-08
6.7231e-06
4.97319e-09
1.10614e-08
6.72877e-06
1.06346e-08
-5.55768e-11
6.71859e-06
1.0614e-08
2.99372e-08
6.71145e-06
2.15799e-09
4.03841e-08
6.70562e-06
-6.29328e-09
3.10127e-08
6.70641e-06
-2.32564e-09
9.37224e-09
6.70562e-06
6.86621e-09
2.71237e-09
6.71517e-06
4.7516e-09
-5.15496e-09
6.71166e-06
2.15223e-09
2.62168e-08
6.70344e-06
4.78471e-09
4.10684e-08
6.70454e-06
-3.97721e-10
3.96926e-08
6.68917e-06
9.26225e-10
6.74517e-08
6.69392e-06
8.2853e-10
3.22335e-08
6.70083e-06
5.10428e-09
1.55127e-08
6.70417e-06
2.53652e-09
2.32967e-08
6.70266e-06
9.85764e-09
2.61973e-08
9.83229e-09
1.58988e-08
5.37042e-06
1.38401e-08
5.3772e-06
2.21599e-08
5.37694e-06
2.54245e-08
5.37633e-06
3.01552e-08
5.3855e-06
1.44724e-08
5.37767e-06
3.91296e-08
5.38397e-06
9.64443e-09
5.38535e-06
1.69097e-08
5.3742e-06
4.22231e-08
5.36765e-06
4.30061e-08
5.36843e-06
2.82364e-08
5.36663e-06
2.0406e-08
5.36942e-06
1.00397e-08
5.36971e-06
2.00506e-08
5.37322e-06
1.83275e-08
5.37714e-06
1.57872e-08
5.37386e-06
3.45882e-08
5.35637e-06
5.59727e-08
5.34731e-06
3.4686e-08
5.3489e-06
7.17618e-09
5.35644e-06
2.76631e-09
5.34663e-06
3.39921e-08
5.35653e-06
9.14626e-09
5.36163e-06
1.62277e-08
5.34497e-06
4.91046e-08
5.34937e-06
2.11936e-08
5.3297e-06
5.28257e-08
5.33732e-06
1.74572e-08
5.34168e-06
2.1781e-08
5.35372e-06
9.64025e-09
5.3457e-06
4.41004e-08
1.93833e-08
5.32019e-06
-1.64191e-08
5.3461e-06
-3.92334e-09
5.35466e-06
2.00913e-10
5.34326e-06
7.54712e-09
5.34979e-06
6.73905e-09
5.31476e-06
5.46156e-09
5.31854e-06
3.65964e-09
5.35599e-06
-1.23793e-08
5.34637e-06
1.12458e-08
5.34099e-06
9.19689e-10
5.32282e-06
-5.01428e-09
5.32853e-06
-2.49746e-09
5.32205e-06
-8.09322e-09
5.31958e-06
-2.15942e-09
5.33114e-06
4.97038e-09
5.32077e-06
2.67052e-09
5.33961e-06
-2.93953e-09
5.31349e-06
-2.18624e-08
5.28831e-06
-1.06455e-08
5.3091e-06
-6.05003e-09
5.30632e-06
1.44705e-08
5.257e-06
4.35438e-09
5.26448e-06
3.94042e-09
5.28803e-06
-5.92609e-09
5.28567e-06
-1.55385e-08
5.3213e-06
-7.93136e-09
5.31781e-06
-7.75786e-09
5.30674e-06
1.0079e-08
5.29917e-06
7.75282e-09
5.30849e-06
2.62844e-09
5.32702e-06
3.15148e-09
-7.46155e-09
6.6789e-06
1.67998e-08
6.67505e-06
4.71186e-09
6.68492e-06
6.02917e-09
6.67554e-06
-1.06887e-09
6.68412e-06
-6.79143e-09
6.68038e-06
-8.07128e-09
6.68058e-06
1.09068e-09
6.68319e-06
5.91243e-10
6.64433e-06
-1.40951e-08
6.66634e-06
-1.03967e-09
6.66202e-06
-7.53831e-09
6.67026e-06
-1.46487e-08
6.67455e-06
6.45156e-09
6.66738e-06
-1.38181e-08
6.66663e-06
-1.4549e-08
6.65502e-06
1.44126e-08
6.67673e-06
1.37018e-09
6.64824e-06
-5.68874e-09
6.63989e-06
-2.13628e-10
6.63976e-06
-3.53629e-09
6.65309e-06
1.56859e-08
6.64585e-06
-1.67758e-08
6.63908e-06
8.69498e-09
6.63642e-06
4.01789e-09
6.63871e-06
1.26909e-08
6.65063e-06
8.47718e-09
6.65687e-06
1.42602e-08
6.63831e-06
1.18947e-08
6.63891e-06
7.94041e-10
6.6489e-06
-6.93767e-09
6.66229e-06
7.87683e-09
7.06651e-09
6.64323e-06
3.95083e-08
6.65638e-06
-1.3741e-08
6.68495e-06
-9.77721e-10
6.67642e-06
-4.882e-09
6.69688e-06
1.29836e-08
6.69518e-06
2.41409e-08
6.67353e-06
1.06176e-08
6.68968e-06
1.41801e-08
6.673e-06
1.25357e-10
6.66973e-06
-1.11559e-08
6.67307e-06
1.21128e-08
6.67493e-06
7.27335e-09
6.68773e-06
5.38723e-11
6.69031e-06
6.67852e-09
6.66906e-06
1.50616e-08
6.65365e-06
1.98351e-08
6.69053e-06
-1.35463e-08
6.6763e-06
-1.08062e-09
6.67232e-06
-6.30909e-09
6.63797e-06
-1.67013e-08
6.6617e-06
9.46892e-10
6.67874e-06
-1.18012e-08
6.65572e-06
6.18392e-09
6.65304e-06
6.92471e-09
6.64398e-06
2.89153e-09
6.65166e-06
5.37471e-09
6.65414e-06
8.36761e-09
6.67758e-06
-5.49636e-09
6.6745e-06
1.97109e-08
6.6625e-06
1.62394e-08
6.66516e-06
1.26404e-08
2.09988e-09
6.68373e-06
4.38829e-08
6.68777e-06
1.1875e-08
6.68364e-06
2.92892e-08
6.68193e-06
2.30083e-08
6.6965e-06
1.60041e-08
6.68472e-06
6.04958e-09
6.67505e-06
1.08617e-08
6.69091e-06
3.30325e-09
6.66103e-06
-1.61427e-08
6.67798e-06
-5.80076e-09
6.68385e-06
1.02023e-08
6.67255e-06
1.38932e-08
6.6816e-06
2.33025e-08
6.67529e-06
-4.11925e-09
6.67679e-06
2.42287e-09
6.65208e-06
1.01674e-08
6.6684e-06
-1.07829e-08
6.67703e-06
1.15653e-08
6.64501e-06
-7.90487e-09
6.64275e-06
5.42363e-09
6.65611e-06
-5.14795e-09
6.64655e-06
-1.22594e-08
6.65852e-06
-1.72188e-08
6.6549e-06
-2.37569e-09
6.61632e-06
5.43531e-09
6.63549e-06
2.07117e-08
6.63192e-06
5.82635e-09
6.63011e-06
-1.63758e-08
6.64045e-06
9.56675e-09
6.6598e-06
1.17436e-08
6.66737e-06
2.81739e-09
-8.9536e-09
6.67747e-06
6.63715e-09
6.67818e-06
-2.51144e-08
6.66495e-06
8.30705e-09
6.67353e-06
2.78422e-08
6.69012e-06
1.3321e-08
6.68471e-06
9.02344e-09
6.66596e-06
1.19874e-08
6.67394e-06
1.49038e-08
6.66312e-06
1.27977e-08
6.65298e-06
9.58719e-09
6.64e-06
2.00809e-08
6.63132e-06
-1.58728e-08
6.64836e-06
-7.10448e-09
6.67815e-06
-2.47493e-09
6.68018e-06
-1.60651e-09
6.66603e-06
-1.14103e-08
6.67168e-06
-1.85216e-09
6.65861e-06
-6.91819e-09
6.66139e-06
1.36867e-09
6.63527e-06
1.61751e-08
6.62506e-06
7.15892e-09
6.63029e-06
-8.7475e-09
6.65921e-06
1.2e-08
6.6646e-06
8.73204e-09
6.61402e-06
-6.97781e-09
6.64062e-06
7.59379e-09
6.6374e-06
1.04342e-08
6.64756e-06
8.29207e-09
6.6555e-06
-2.23221e-09
6.66473e-06
-6.15374e-09
6.65344e-06
3.96435e-09
-6.61344e-09
6.64676e-06
2.38358e-08
6.66322e-06
-7.3679e-09
6.68359e-06
6.80918e-09
6.66125e-06
-2.35241e-09
6.6874e-06
1.46769e-08
6.68725e-06
9.38632e-09
6.66456e-06
1.04776e-08
6.66255e-06
9.56895e-09
6.67258e-06
2.15992e-08
6.68721e-06
1.50977e-08
6.69073e-06
-4.60203e-10
6.67625e-06
-1.41497e-08
6.64647e-06
-1.51806e-08
6.67642e-06
-2.00972e-09
6.66561e-06
3.74853e-09
6.68316e-06
1.36251e-08
6.67402e-06
1.50063e-08
6.65972e-06
1.62711e-08
6.67828e-06
2.61301e-08
6.6461e-06
-3.10853e-09
6.65873e-06
-1.33467e-08
6.6723e-06
-8.17464e-09
6.67684e-06
-8.64296e-09
6.67802e-06
8.65584e-09
6.67242e-06
1.22352e-08
6.66877e-06
2.69722e-09
6.66211e-06
3.63241e-08
6.65143e-06
1.66397e-08
6.64928e-06
7.08291e-09
6.65474e-06
-2.68225e-09
6.62954e-06
1.71184e-08
-1.1784e-08
6.67282e-06
-7.55771e-09
6.6904e-06
1.18679e-08
6.66098e-06
6.39728e-09
6.67883e-06
1.18558e-08
6.6793e-06
1.54463e-10
6.69702e-06
1.17766e-08
6.68184e-06
-1.37375e-08
6.67353e-06
-1.38324e-08
6.66197e-06
3.80628e-09
6.66874e-06
3.18929e-08
6.67801e-06
1.43922e-08
6.67601e-06
-1.82246e-09
6.66685e-06
2.0643e-09
6.66716e-06
2.35218e-08
6.63536e-06
-1.71023e-10
6.65139e-06
6.97615e-09
6.67779e-06
2.17197e-08
6.66411e-06
1.99884e-08
6.65983e-06
4.3633e-09
6.65064e-06
1.64047e-09
6.65905e-06
-6.03302e-09
6.64397e-06
3.50149e-08
6.66244e-06
7.99053e-09
6.6498e-06
5.00638e-09
6.6335e-06
4.90746e-09
6.66201e-06
-2.29344e-08
6.63634e-06
-4.67507e-10
6.64644e-06
1.32358e-09
6.65339e-06
1.56405e-08
6.64308e-06
3.43414e-09
6.61895e-06
4.09217e-08
-3.83297e-08
5.34257e-06
5.3379e-06
5.32471e-06
5.33197e-06
5.35402e-06
5.33374e-06
5.34644e-06
5.35879e-06
5.35699e-06
5.33329e-06
5.3318e-06
5.33127e-06
5.35307e-06
5.34571e-06
5.3368e-06
5.34744e-06
5.34324e-06
5.31324e-06
5.3086e-06
5.30842e-06
5.32257e-06
5.28923e-06
5.30253e-06
5.32028e-06
5.29665e-06
5.30113e-06
5.25496e-06
5.29734e-06
5.29003e-06
5.33474e-06
5.30166e-06
)
;

boundaryField
{
    wall
    {
        type            calculated;
        value           nonuniform List<scalar> 
384
(
6.67092e-08
-1.75861e-08
9.5048e-08
1.58323e-08
2.62306e-08
-2.07516e-09
1.8619e-08
-2.89521e-20
2.18895e-08
3.5871e-08
4.66386e-08
-2.05367e-08
6.5497e-08
-3.40706e-08
-3.61004e-08
3.86899e-08
7.04427e-09
1.274e-08
2.76164e-09
-1.3092e-08
8.048e-08
8.88898e-09
7.43896e-08
2.27893e-08
3.29389e-08
5.47001e-08
4.46475e-08
-1.58964e-08
1.00553e-08
1.10909e-07
-1.55413e-08
3.47476e-08
-6.70476e-10
2.66059e-08
-4.31095e-08
-9.38643e-09
-1.9199e-08
-1.68637e-08
4.31541e-08
-7.4174e-09
5.38056e-08
4.1985e-08
-3.16662e-08
6.21605e-08
2.35856e-08
1.93598e-08
-5.15669e-09
7.1185e-08
1.36527e-08
2.31434e-08
3.42831e-08
3.40918e-08
4.79676e-08
5.92467e-08
8.37332e-08
-1.6791e-08
-9.90101e-09
2.93056e-09
-1.9232e-08
8.04434e-09
-1.24531e-08
3.49315e-08
7.63413e-08
-3.98144e-09
2.45306e-08
1.25904e-07
3.45934e-08
9.12786e-08
-9.7971e-09
-3.84967e-09
7.22635e-08
5.62354e-08
2.99574e-08
-6.22467e-10
4.41966e-08
-1.39425e-08
1.37344e-09
-1.30324e-08
-8.56371e-09
6.83415e-08
5.73036e-08
3.33921e-08
-2.28885e-08
5.39446e-09
1.22713e-08
3.89434e-08
-1.80027e-08
4.41201e-08
1.50643e-08
2.37983e-08
-2.74516e-08
2.42946e-08
9.1523e-08
4.23484e-08
4.70656e-09
1.91193e-08
3.90212e-08
-1.01649e-08
1.25333e-08
-2.60209e-08
5.25101e-08
7.69256e-08
4.31932e-09
-1.11759e-08
2.4502e-08
1.60141e-08
-2.12956e-08
3.71073e-08
-3.23003e-08
-3.33047e-08
-2.71407e-08
2.99834e-08
-1.41744e-08
3.91326e-08
-1.47786e-08
2.30101e-08
1.5276e-08
2.35506e-08
2.2103e-08
2.70707e-08
1.66772e-08
8.66013e-09
2.59779e-08
6.40718e-08
7.41179e-08
-4.47172e-08
1.67752e-09
1.21157e-08
-1.13681e-08
-2.62453e-08
-1.91381e-08
-1.21736e-08
4.07068e-09
9.81649e-10
-3.31628e-08
6.0516e-08
9.7923e-08
4.74589e-08
9.81175e-09
-1.58671e-08
6.26832e-08
2.4912e-09
3.98946e-08
1.05954e-07
8.11568e-08
2.26866e-08
3.96151e-08
6.54295e-08
-1.41024e-08
-4.45081e-08
6.64372e-08
4.22001e-08
-1.21507e-08
1.64641e-08
1.01745e-07
-7.23274e-09
3.92891e-08
9.9896e-08
3.54513e-08
-3.25113e-08
-1.43029e-08
-7.46487e-09
1.09496e-08
1.08e-08
2.42202e-08
4.05031e-08
-6.34945e-09
-1.74187e-08
6.51365e-08
4.31345e-08
-1.71164e-08
4.07713e-08
1.15541e-08
0
-2.53979e-08
6.24179e-08
-2.04256e-09
1.76611e-08
5.26958e-08
3.77022e-08
-7.05707e-08
3.67074e-08
-4.02598e-08
3.8319e-09
-4.87152e-20
7.86371e-09
1.67362e-08
3.61305e-08
-8.44329e-09
1.54742e-08
4.25086e-08
-3.31085e-10
4.58876e-08
-3.34909e-08
3.81293e-08
6.86761e-08
1.18436e-07
-7.54706e-09
6.46913e-08
7.76407e-08
-1.75762e-08
-2.59898e-08
9.10398e-09
-3.2855e-08
1.52497e-09
3.75968e-08
3.68156e-08
6.23697e-09
2.10469e-08
-1.32171e-08
3.15504e-08
3.66471e-08
2.30002e-08
-6.15891e-10
1.29909e-07
9.62754e-08
3.03398e-08
5.80401e-08
3.53586e-08
5.44524e-08
-2.31268e-08
2.61441e-08
3.74559e-08
-2.33783e-08
3.11933e-08
4.39583e-08
1.66199e-10
2.53072e-08
3.23138e-08
9.3589e-09
0
4.47264e-08
1.45672e-08
2.89638e-08
2.67853e-09
-1.44826e-08
3.71053e-08
6.72143e-09
2.74921e-08
-3.1632e-08
5.22076e-10
4.64811e-09
1.84815e-08
3.38904e-08
3.71223e-08
3.48018e-08
2.65258e-08
5.86024e-08
7.15753e-08
7.24299e-09
0
2.07458e-08
-8.28099e-10
-4.21278e-08
1.58034e-08
-6.91711e-09
0
0
0
0
0
1.48739e-09
0
0
0
0
0
0
0
-2.68022e-09
0
3.60282e-09
0
9.04019e-10
0
0
0
0
0
0
0
0
0
0
0
0
0
0
0
-4.9215e-10
0
0
0
0
0
0
0
0
0
0
0
0
0
0
0
0
0
0
0
1.66034e-08
0
0
0
0
0
0
0
0
0
-6.5372e-10
0
-1.81239e-08
0
0
0
2.22267e-08
0
0
0
0
0
0
0
0
0
-5.29753e-09
0
-8.40011e-09
0
3.02502e-08
0
0
0
0
0
1.48084e-09
0
2.09444e-08
0
0
0
0
0
0
0
0
0
1.49649e-09
0
4.15017e-08
0
0
0
3.99359e-08
0
0
0
3.81537e-09
0
0
0
-1.24572e-08
0
2.25468e-09
0
-2.16178e-10
0
0
0
0
0
5.94981e-08
0
-2.85299e-08
)
;
    }
    outlet
    {
        type            cyclic;
        value           nonuniform List<scalar> 
16
(
5.35999e-06
6.71651e-06
6.72531e-06
6.71961e-06
6.71738e-06
6.71808e-06
6.71285e-06
5.35808e-06
5.31536e-06
6.66911e-06
6.69604e-06
6.68343e-06
6.65963e-06
6.66233e-06
6.64559e-06
5.31816e-06
)
;
    }
    inlet
    {
        type            cyclic;
        value           nonuniform List<scalar> 
16
(
-5.35999e-06
-6.71651e-06
-6.72531e-06
-6.71961e-06
-6.71738e-06
-6.71808e-06
-6.71285e-06
-5.35808e-06
-5.31536e-06
-6.66911e-06
-6.69604e-06
-6.68343e-06
-6.65963e-06
-6.66233e-06
-6.64559e-06
-5.31816e-06
)
;
    }
    procBoundary3to2
    {
        type            processor;
        value           nonuniform List<scalar> 
256
(
-5.62216e-08
-5.10939e-08
-3.95682e-08
-3.52725e-08
-2.58216e-08
-2.40705e-08
-2.16541e-08
-2.13812e-08
-2.41871e-08
-2.21426e-08
-2.16449e-08
-1.70265e-08
-1.57658e-08
-1.32182e-08
-9.06518e-09
-9.14352e-09
-1.1512e-08
-2.48213e-08
-2.42952e-08
-1.32419e-08
-8.92168e-09
-1.09719e-08
-1.37984e-08
-1.80021e-08
-1.8172e-08
-1.78707e-08
-2.44182e-08
-2.94398e-08
-3.32025e-08
-3.65258e-08
-4.10197e-08
-5.23424e-08
-4.71339e-08
-4.68667e-08
-3.95699e-08
-3.47095e-08
-2.59324e-08
-2.3112e-08
-2.16365e-08
-2.13487e-08
-2.90077e-08
-2.14207e-08
-1.9e-08
-1.57731e-08
-1.20398e-08
-8.57029e-09
-1.05928e-08
-9.67865e-09
-9.91016e-09
-1.96814e-08
-2.03928e-08
-1.73296e-08
-1.30239e-08
-1.31618e-08
-1.49129e-08
-1.55943e-08
-1.29925e-08
-1.52617e-08
-2.21243e-08
-3.07906e-08
-3.34943e-08
-3.46058e-08
-3.79217e-08
-4.45041e-08
-4.52772e-08
-4.13816e-08
-3.50334e-08
-3.01248e-08
-1.93119e-08
-1.73093e-08
-1.99955e-08
-1.92897e-08
-2.39976e-08
-2.00369e-08
-1.25953e-08
-1.12034e-08
-1.31598e-08
-8.83031e-09
-7.3271e-09
-1.17099e-08
-1.00799e-08
-1.16134e-08
-1.97829e-08
-2.37034e-08
-1.73638e-08
-1.40386e-08
-1.77406e-08
-1.68036e-08
-1.70394e-08
-1.74385e-08
-2.41963e-08
-3.05428e-08
-2.7903e-08
-2.7747e-08
-3.42015e-08
-3.88716e-08
-3.11821e-08
-2.86568e-08
-2.73869e-08
-2.35364e-08
-1.88816e-08
-2.22629e-08
-2.14039e-08
-1.83776e-08
-2.32238e-08
-1.60207e-08
-1.33176e-08
-1.58023e-08
-1.39685e-08
-1.25741e-08
-1.12726e-08
-1.56959e-08
-1.21713e-08
-1.26257e-08
-1.76676e-08
-1.76225e-08
-1.79944e-08
-1.87007e-08
-1.81976e-08
-1.83724e-08
-2.0579e-08
-1.70821e-08
-2.39908e-08
-2.84967e-08
-2.67496e-08
-2.28735e-08
-3.09296e-08
-3.13541e-08
-2.13767e-08
-2.62809e-08
-3.07209e-08
-2.54365e-08
-1.68783e-08
-2.05363e-08
-2.24555e-08
-1.73343e-08
-1.61818e-08
-1.36504e-08
-1.47722e-08
-2.38636e-08
-2.08119e-08
-1.05697e-08
-1.22168e-08
-1.77134e-08
-1.4826e-08
-1.635e-08
-1.20667e-08
-1.85686e-08
-1.92736e-08
-1.67338e-08
-1.13527e-08
-1.54828e-08
-2.48861e-08
-2.05219e-08
-2.26613e-08
-2.26713e-08
-2.51302e-08
-2.53223e-08
-2.57079e-08
-2.13056e-08
-1.52829e-08
-1.82132e-08
-2.70266e-08
-3.03159e-08
-2.04887e-08
-2.09408e-08
-2.47797e-08
-2.23976e-08
-1.87197e-08
-1.52827e-08
-1.71516e-08
-1.99659e-08
-1.91802e-08
-9.4655e-09
-1.08636e-08
-1.03193e-08
-1.2615e-08
-1.474e-08
-1.41423e-08
-2.32409e-08
-2.08132e-08
-1.53961e-08
-1.47489e-08
-1.66811e-08
-1.83953e-08
-2.40139e-08
-2.40249e-08
-2.30176e-08
-2.15455e-08
-2.14361e-08
-2.14515e-08
-1.41759e-08
-1.79095e-08
-1.69201e-08
-2.62341e-08
-2.42263e-08
-2.32636e-08
-2.18352e-08
-2.62408e-08
-2.68515e-08
-2.57906e-08
-1.91337e-08
-1.59829e-08
-1.60174e-08
-1.32235e-08
-7.49952e-09
-5.18117e-09
-1.19071e-08
-1.33114e-08
-2.06961e-08
-2.29437e-08
-2.07422e-08
-1.46688e-08
-1.20071e-08
-1.13139e-08
-1.90386e-08
-2.57347e-08
-2.88726e-08
-3.43724e-08
-2.66449e-08
-2.09036e-08
-2.10809e-08
-2.27878e-08
-1.90889e-08
-1.87151e-08
-1.97736e-08
-2.33089e-08
-2.46272e-08
-2.14697e-08
-2.46439e-08
-2.02445e-08
-2.17708e-08
-2.69497e-08
-2.5892e-08
-2.1137e-08
-1.68271e-08
-1.28176e-08
-1.3022e-08
-1.29779e-08
-1.47288e-08
-2.06777e-08
-2.78683e-08
-2.34644e-08
-1.50585e-08
-1.26309e-08
-1.73227e-08
-1.42941e-08
-1.91778e-08
-2.76584e-08
-2.59866e-08
-3.22284e-08
-2.42544e-08
-2.10368e-08
-1.91371e-08
-2.623e-08
-2.19243e-08
)
;
    }
}


// ************************************************************************* //
