/*--------------------------------*- C++ -*----------------------------------*\
| =========                 |                                                 |
| \\      /  F ield         | OpenFOAM: The Open Source CFD Toolbox           |
|  \\    /   O peration     | Version:  2506                                  |
|   \\  /    A nd           | Website:  www.openfoam.com                      |
|    \\/     M anipulation  |                                                 |
\*---------------------------------------------------------------------------*/
FoamFile
{
    version     2.0;
    format      ascii;
    arch        "LSB;label=32;scalar=64";
    class       volVectorField;
    location    "0.001";
    object      Us;
}
// * * * * * * * * * * * * * * * * * * * * * * * * * * * * * * * * * * * * * //

dimensions      [0 1 -1 0 0 0 0];

internalField   nonuniform List<vector> 
512
(
(0 0 0)
(0 0 0)
(0 0 -0.118751)
(0 0 0)
(0 0 0)
(0 0 0)
(0 0 0)
(0 0 0)
(0 0 0)
(0 0 0)
(0 0 0)
(0 0 0)
(0 0 0)
(0 0 0)
(0 0 0)
(0 0 0)
(0 0 0)
(0 0 0)
(0 0 0)
(0 0 0)
(0 0 0)
(0 0 0)
(0 0 0)
(0 0 0)
(0 0 0)
(0 0 0)
(0 0 0)
(0 0 0)
(0 0 0)
(0 0 0)
(0 0 0)
(0 0 0)
(0 0 0)
(0 0 0)
(0 0 0)
(0 0 0)
(0 0 0)
(0 0 0)
(0 0 0)
(0 0 0)
(0 0 0)
(0 0 0)
(0 0 0)
(0 0 0)
(0 0 0)
(0 0 -0.17415)
(0 0 0)
(0 0 0)
(0 0 0)
(0 0 0)
(0 0 0)
(0 0 0)
(0 0 0)
(0 0 0)
(0 0 0)
(0 0 0)
(0 0 0)
(0 0 0)
(0 0 0)
(0 0 0)
(0 0 0)
(0 0 0)
(0 0 0)
(0 0 0)
(0 0 0)
(0 0 0)
(0 0 0)
(0 0 0)
(0 0 0)
(0 0 0)
(0 0 0)
(0 0 0)
(0 0 0)
(0 0 0)
(0 0 0)
(0 0 0)
(0 0 0)
(0 0 0)
(0 0 0)
(0 0 0)
(0 0 0)
(0 0 -0.160983)
(0 0 0)
(0 0 0)
(0 0 0)
(0 0 0)
(0 0 0)
(0 0 0)
(0 0 0)
(0 0 0)
(0 0 0)
(0 0 0)
(0 0 0)
(0 0 0)
(0 0 0)
(0 0 0)
(0 0 0)
(0 0 0)
(0 0 0)
(0 0 0)
(0 0 0)
(0 0 0)
(0 0 0)
(0 0 0)
(0 0 0)
(0 0 0)
(0 0 0)
(0 0 0)
(0 0 0)
(0 0 0)
(0 0 0)
(0 0 0)
(0 0 0)
(0 0 0)
(0 0 0)
(0 0 0)
(0 0 0)
(0 0 0)
(0 0 0)
(0 0 0)
(0 0 0)
(0 0 0)
(0 0 0)
(0 0 0)
(0 0 0)
(0 0 -0.113106)
(0 0 0)
(0 0 0)
(0 0 0)
(0 0 0)
(0 0 0)
(0 0 0)
(0 0 -0.182122)
(0 0 0)
(0 0 0)
(0 0 0)
(0 0 0)
(0 0 0)
(0 0 0)
(0 0 0)
(0 0 0)
(0 0 0)
(0 0 0)
(0 0 0)
(0 0 0)
(0 0 0)
(0 0 -0.109494)
(0 0 0)
(0 0 0)
(0 0 0)
(0 0 0)
(0 0 0)
(0 0 0)
(0 0 0)
(0 0 0)
(0 0 0)
(0 0 0)
(0 0 0)
(0 0 0)
(0 0 0)
(0 0 0)
(0 0 0)
(0 0 0)
(0 0 0)
(0 0 0)
(0 0 0)
(0 0 0)
(0 0 0)
(0 0 0)
(0 0 0)
(0 0 0)
(0 0 0)
(0 0 0)
(0 0 0)
(0 0 0)
(0 0 0)
(0 0 0)
(0 0 0)
(0 0 0)
(0 0 0)
(0 0 0)
(0 0 0)
(0 0 0)
(0 0 0)
(0 0 -0.162983)
(0 0 0)
(0 0 0)
(0 0 0)
(0 0 0)
(0 0 0)
(0 0 0)
(0 0 0)
(0 0 0)
(0 0 0)
(0 0 0)
(0 0 0)
(0 0 0)
(0 0 0)
(0 0 0)
(0 0 0)
(0 0 0)
(0 0 0)
(0 0 0)
(0 0 0)
(0 0 0)
(0 0 0)
(0 0 -0.132091)
(0 0 0)
(0 0 0)
(0 0 0)
(0 0 0)
(0 0 0)
(0 0 0)
(0 0 0)
(0 0 0)
(0 0 0)
(0 0 0)
(0 0 0)
(0 0 0)
(0 0 0)
(0 0 0)
(0 0 0)
(0 0 0)
(0 0 0)
(0 0 0)
(0 0 0)
(0 0 0)
(0 0 0)
(0 0 0)
(0 0 0)
(0 0 0)
(0 0 0)
(0 0 0)
(0 0 0)
(0 0 0)
(0 0 0)
(0 0 0)
(0 0 0)
(0 0 0)
(0 0 0)
(0 0 0)
(0 0 0)
(0 0 0)
(0 0 0)
(0 0 0)
(0 0 0)
(0 0 0)
(0 0 0)
(0 0 0)
(0 0 0)
(0 0 0)
(0 0 0)
(0 0 -0.168045)
(0 0 0)
(0 0 0)
(0 0 0)
(0 0 0.175213)
(0 0 0.0366441)
(0.105369 -0.00310874 0.0147229)
(0 0 0.26241)
(0 0 -0.00256173)
(0 0 0.0914984)
(-0.113982 0.00497063 0.0253197)
(-0.000236409 -0.00645239 -0.017732)
(0.0448083 -0.00195404 0.0530229)
(0 0 0.101925)
(0 0 0.111767)
(0 0 0.0359332)
(0 0 0.0644869)
(0 0 0.0489473)
(0 0 -0.0559833)
(0 0 0.0408505)
(0.000529386 0.000544696 -0.0125818)
(0 0 0.13173)
(0 0 0.312994)
(0 0 -0.031862)
(0 0 -0.0599585)
(0 0 0.10085)
(0 0 -0.000650831)
(0 0 -4.05898e-13)
(0 0 0.0511691)
(0 0 -0.0274226)
(0.0398254 -0.0445415 0.0564617)
(0 0 0.191389)
(0 0 0.0681419)
(0 0 0.0295651)
(0 0 0.00440065)
(-0.0350046 0.00103275 0.113075)
(-0.0110402 -0.0347457 -0.0477526)
(0.050669 -0.00391557 0.0654325)
(0 0 0.038033)
(0 0 0.108795)
(0 0 0.0550477)
(0 0 0.0665593)
(0 0 0.0372587)
(-0.00124402 -0.0339532 0.00617749)
(-0.0175398 -0.00952708 0.12066)
(0 0 -0.00211119)
(0 0 0.0408716)
(0 0 0.089411)
(0 0 -0.0245842)
(0 0 0.0295927)
(0 0 0.112485)
(0 0 0.0163162)
(-0.00142372 -0.00119814 -0.0355482)
(0.0155043 -0.0309408 0.0511047)
(0 0 0.0433044)
(-0.00837467 -0.0797912 0.0247361)
(0 0 -0.018721)
(0 0 0.12522)
(0 0 0.0256505)
(0 0 0.0215873)
(0 0 -0.0672937)
(-0.0287207 -0.00427654 -0.0527609)
(-0.0153956 0.0172187 -0.0366187)
(0 0 0.11735)
(0 0 0.0657477)
(0 0 0.172878)
(0 0 0.00770793)
(0 0 0.0201483)
(0 0 0.186745)
(0 0 0.0432123)
(0 0 0.00830457)
(-0.0317342 -0.023281 0.206567)
(0 0 -0.174982)
(0 0 -0.0842328)
(0 0 0.0464326)
(0.00151882 0.0414536 -0.0212453)
(0 0 0.136524)
(0 0 0.0699133)
(0.0631033 0.0361608 -0.0437713)
(-0.0187891 0.00290755 -0.0275665)
(0 0 0.0464833)
(0.116949 -0.0180974 -0.0402358)
(0 0 -0.0400918)
(-0.0490391 0.02498 0.0324769)
(0 0 -0.156308)
(0.00679461 0.0454112 0.017765)
(0 0 0.140306)
(0 0 0.156174)
(0 0 0.04085)
(0.0612696 -0.13881 -0.0430184)
(0 0 0.107113)
(0 0 0.0665907)
(0 0 0.0747753)
(0 0 0.0177924)
(0 0 0.044223)
(0 0 0.0761453)
(0.334817 0.0498547 0.00123267)
(0 0 0.0363147)
(0 0 0.0190073)
(0 0 0)
(0.00567194 0.39736 0.12034)
(0 0 -0.16703)
(0 0 -0.0291294)
(0 0 -0.0416026)
(0.00158488 0.00116271 -0.0186196)
(0 0 0.0914063)
(0 0 0.10288)
(0 0 0.0138795)
(0 0 0.115772)
(0 0 -0.0541682)
(0 0 0.0165561)
(0.0260293 -0.0266861 0.0335762)
(0 0 -0.0578317)
(0 0 0.279716)
(0 0 0.0458276)
(-0.00207529 0.00105713 0.0991728)
(-0.0179789 -0.124178 -0.0239063)
(0 0 -0.0502871)
(0 0 0.111484)
(0.00254289 0.00840551 -0.00770505)
(0 0 0.0214153)
(0 0 0.0824239)
(0 0 0.0674754)
(0 0 0.283318)
(-0.032532 -0.0464946 0.133016)
(0.0140814 0.00328716 -0.0354848)
(-0.0386975 0.00225872 0.0704991)
(0.0446163 -0.0168105 0.0483622)
(0 0 0.0496085)
(0 0 -0.0255325)
(0 0 0.088164)
(0 0 0.170363)
(0 0 0.0613018)
(0 0 0.0713156)
(0 0 0.132171)
(0 0 0.0197555)
(0 0 -0.0521524)
(-0.000394837 -0.000178608 0.0444739)
(0 0 0.0697059)
(0 0 -0.0279636)
(0 0 -0.0137546)
(0 0 0.00244264)
(-0.0222861 0.0228485 0.011733)
(-0.0525766 -0.00587687 0.0857407)
(0 0 0.13612)
(0 0 -0.132531)
(0.003037 -0.0108439 0.0206551)
(0 0 0.145907)
(0 0 0.017728)
(0 0 0.100481)
(0 0 -0.0445083)
(0 0 0.0525655)
(-0.0359025 -0.0448579 0.0365284)
(-1.64401e-06 -0.0276309 0.0153374)
(0 0 -0.156357)
(-0.0413951 0.0119063 -0.0230082)
(0 0 0.153645)
(-0.0269847 0.0122001 0.00310989)
(0.0159617 0.00612817 0.0317319)
(0 0 -0.035697)
(0 0 0.125121)
(0 0 0.106816)
(0 0 0.292182)
(0 0 -0.00201449)
(0 0 -0.00513529)
(-0.043292 -0.0494297 -0.0295116)
(6.33347e-05 -0.00152486 0.0182732)
(0 0 0.223523)
(0 0 -0.0699301)
(0 0 0.0289221)
(0 0 0.0919071)
(-0.0419843 -0.0262707 0.086355)
(0 0 -0.00639977)
(0 0 -0.0450979)
(0 0 0.0823597)
(0 0 0.163785)
(0 0 0.119057)
(0 0 -0.0686893)
(0 0 0.0585828)
(0.0413091 0.0206256 -0.0516502)
(0.0251258 0.0535202 0.00238394)
(-0.0171753 -0.00839986 0.00494021)
(0 0 -0.120835)
(0 0 0.113377)
(-0.0236452 0.0535699 0.163514)
(0 0 0)
(0 0 0.14726)
(0 0 0.10352)
(0 0 -0.0278352)
(0.0466302 -0.0547202 0.145161)
(0 0 -0.146856)
(0 0 0.094386)
(-0.00416462 -0.00632759 0.0186215)
(-0.0330298 -0.0501843 0.0269577)
(0 0 0.0937893)
(0 0 -0.0675399)
(0 0 0.0476225)
(0 0 -0.144864)
(-0.00604024 -0.00517079 0.0838111)
(0.0284078 0.0203452 -0.0237796)
(0 0 0.0823829)
(0 0 -0.0118798)
(0 0 0.21154)
(0 0 0.107995)
(0 0 0.183849)
(0 0 -0.016687)
(0 0 -0.0472432)
(-0.0797407 -0.0415676 0.0186787)
(0 0 0.0270287)
(0 0 -0.0739447)
(0 0 0.0190428)
(0 0 0.00179588)
(0 0 -0.0647886)
(0 0 0.0601116)
(0 0 0.127671)
(0 0 0.138559)
(0 0 -0.052661)
(0 0 -0.0471)
(0 0 -0.065463)
(0 0 0.0673265)
(-0.00892975 -0.0150189 0.0754121)
(0.00853805 -0.0124488 0.0409091)
(0.0497252 0.0115241 0.227274)
(0 0 0.134756)
(0 0 0)
(-0.00179175 -0.000746371 0.0348768)
(0 0 0.0524855)
(-0.0433003 -0.13808 0.0239453)
(0.0187698 -0.147611 -2.35801e-13)
(0 0 0.15057)
(-0.0263676 0.0325906 0.0334155)
(0 0 0.0712375)
(0 0 -0.031615)
(0 0 0.135187)
(0 0 -0.0707729)
(-0.00648172 -0.0089479 -0.00672493)
(0.0384437 -0.0160805 0.107653)
(0.0637676 0.0399011 0.0901449)
(0 0 0.112723)
(0 0 0.0721052)
(0.00615645 0.00320926 -0.0242203)
(0.0831121 0.0433251 0.062023)
(0 0 0.0896248)
(0 0 0.0500604)
(0 0 0.172459)
(0 0 0.163062)
(0.00668465 0.0112064 0.316013)
(0.0389938 0.0653705 -0.0512094)
(0 0 -0.0235229)
(0.0147142 0.0664235 0.103817)
(0 0 0.00467163)
(-0.0364686 0.00746197 -0.000647524)
(0 0 0.203345)
(0.0461453 -0.0135266 0.00677239)
(-0.0432794 0.00319454 0.136408)
(0.00345844 -0.000255274 -0.0276064)
(0 0 0.12469)
(0 0 -0.0638953)
(0.0587771 0.0502641 0.0495075)
(-0.0185584 -0.112457 -0.0272653)
)
;

boundaryField
{
    wall
    {
        type            zeroGradient;
    }
    outlet
    {
        type            cyclic;
    }
    inlet
    {
        type            cyclic;
    }
    procBoundary3to2
    {
        type            processor;
        value           uniform (0 0 0);
    }
}


// ************************************************************************* //
