FoamFile
{version 2.0; format ascii;class Cloud<passiveParticle>; location 0;object  positions;}
1000
(
( 0.0287104 0.0356584 0.0884167 ) 0 
( 0.0320807 0.0811198 0.0990006 ) 0 
( 0.0404648 0.0923164 0.0970059 ) 0 
( 0.0923906 0.00891957 0.0892858 ) 0 
( 0.0075923 0.0038425 0.0992628 ) 0 
( 0.0947962 0.0400707 0.0994063 ) 0 
( 0.0184186 0.0613562 0.0892178 ) 0 
( 0.0204019 0.094262 0.097213 ) 0 
( 0.023502 0.0972807 0.0995002 ) 0 
( 0.0649918 0.0170136 0.0920406 ) 0 
( 0.00156662 0.0301633 0.0934691 ) 0 
( 0.020439 0.0184885 0.0900807 ) 0 
( 0.050637 0.0566128 0.0995002 ) 0 
( 0.0183178 0.0673761 0.0995002 ) 0 
( 0.0753183 0.0747278 0.0940742 ) 0 
( 0.0586253 0.0159152 0.0995002 ) 0 
( 0.0185712 0.0262131 0.0979421 ) 0 
( 0.0210311 0.069631 0.0994996 ) 0 
( 0.00614947 0.0542021 0.0990259 ) 0 
( 0.0151829 0.0794021 0.08932 ) 0 
( 0.0830791 0.0102947 0.0892766 ) 0 
( 0.0621296 0.0128783 0.0929677 ) 0 
( 0.0994523 0.0953367 0.0892658 ) 0 
( 0.0801185 0.0519936 0.0958496 ) 0 
( 0.0303269 0.0034686 0.0995002 ) 0 
( 0.0834279 0.0728479 0.0953299 ) 0 
( 0.0281598 0.0760961 0.0995002 ) 0 
( 0.0898694 0.0353168 0.0993308 ) 0 
( 0.103226 0.00200018 0.0986139 ) 0 
( 0.0880664 0.0320384 0.099283 ) 0 
( 0.0646222 0.00457085 0.089217 ) 0 
( 0.064296 0.0231697 0.0890186 ) 0 
( 0.0161601 0.0715773 0.0994922 ) 0 
( 0.0720746 0.0582478 0.0991947 ) 0 
( 0.0725404 0.0865603 0.0890301 ) 0 
( 0.0115369 0.00131155 0.0924939 ) 0 
( 0.065431 0.0987042 0.0891511 ) 0 
( 0.0405652 0.0788911 0.0897999 ) 0 
( 0.0837183 0.0536989 0.0893554 ) 0 
( 0.0932868 0.0715921 0.0936324 ) 0 
( 0.0909576 0.0244531 0.0993571 ) 0 
( 0.0271829 0.0624781 0.0988049 ) 0 
( 0.0492923 0.0562255 0.0991796 ) 0 
( 0.0749323 0.0866027 0.0895136 ) 0 
( 0.0750015 0.0497546 0.0901888 ) 0 
( 0.035744 0.048901 0.0990932 ) 0 
( 0.0624324 0.000944971 0.0992717 ) 0 
( 0.0225493 0.0852625 0.0893599 ) 0 
( 0.0759994 0.0226156 0.0897823 ) 0 
( 0.0228151 0.053469 0.0932759 ) 0 
( 0.0241705 0.0341179 0.0897301 ) 0 
( 0.0227001 0.0199199 0.0995002 ) 0 
( 0.0223719 0.00472051 0.0915296 ) 0 
( 0.00765034 0.0793298 0.0995002 ) 0 
( 0.0733205 0.0970288 0.0979547 ) 0 
( 0.0322576 0.0540702 0.0961429 ) 0 
( 0.0716514 0.0449743 0.0993295 ) 0 
( 0.0514745 0.032082 0.0891477 ) 0 
( 0.0819915 0.0317811 0.0912735 ) 0 
( 0.011964 0.0786306 0.0913182 ) 0 
( 0.03153 0.0248071 0.0898985 ) 0 
( 0.0788201 0.0286294 0.0990616 ) 0 
( 0.0234632 0.0461479 0.0889248 ) 0 
( 0.0423195 0.064393 0.0929421 ) 0 
( 0.0884539 0.0451147 0.0911541 ) 0 
( 0.0894892 0.0888672 0.0995002 ) 0 
( 0.0109052 0.0834227 0.0994671 ) 0 
( 0.0546285 0.0414812 0.0990648 ) 0 
( 0.00701064 0.0278073 0.0956419 ) 0 
( 0.0527626 0.0805332 0.0892061 ) 0 
( 0.0143884 0.0255734 0.0890458 ) 0 
( 0.0904253 0.0775489 0.0982537 ) 0 
( 0.0419063 0.0189716 0.0952784 ) 0 
( 0.0347331 0.0600158 0.0994718 ) 0 
( 0.0816975 0.0895706 0.089085 ) 0 
( 0.0274541 0.0218883 0.0990655 ) 0 
( 0.0685251 0.00117523 0.0943907 ) 0 
( 0.0937992 0.0827842 0.0933172 ) 0 
( 0.0859386 0.0705507 0.0916305 ) 0 
( 0.0874445 0.0798753 0.0977159 ) 0 
( 0.0231988 0.00148629 0.0991165 ) 0 
( 0.0571997 0.0559475 0.087909 ) 0 
( 0.0906796 0.0527227 0.0892036 ) 0 
( 0.0376628 0.0992345 0.089782 ) 0 
( 0.0416267 0.0207105 0.0993167 ) 0 
( 0.0192372 0.0196156 0.0991367 ) 0 
( 0.0203222 0.056035 0.0992016 ) 0 
( 0.0472625 0.0405482 0.0995002 ) 0 
( 0.0432011 0.0816094 0.0893378 ) 0 
( 0.0487808 0.0592328 0.0893261 ) 0 
( 0.0746873 0.0694394 0.0980725 ) 0 
( 0.0723916 0.0854046 0.0995002 ) 0 
( 0.00339077 0.0174185 0.0994622 ) 0 
( 0.0572888 0.0520277 0.0904156 ) 0 
( 0.0876101 0.0623906 0.0995002 ) 0 
( 0.087883 0.0498091 0.0909929 ) 0 
( 0.0918823 0.0659859 0.0893611 ) 0 
( 0.00884549 0.0179912 0.0995002 ) 0 
( 0.0960453 0.0336567 0.0994536 ) 0 
( 0.079965 0.0722799 0.0880248 ) 0 
( 0.0641145 0.0725542 0.0891544 ) 0 
( 0.050557 0.0111316 0.0995001 ) 0 
( 0.0715052 0.0878363 0.0985967 ) 0 
( 0.066001 0.0781395 0.0995002 ) 0 
( 0.0257842 0.0553848 0.0939671 ) 0 
( 0.0895533 0.0290619 0.0978024 ) 0 
( 0.0616895 0.0158206 0.0995002 ) 0 
( 0.0337058 0.0915628 0.0995002 ) 0 
( 0.0904769 0.0446793 0.0887674 ) 0 
( 0.0889547 0.0127254 0.0959924 ) 0 
( 0.0367416 0.0153139 0.099209 ) 0 
( 0.00627855 0.0236693 0.0893264 ) 0 
( 0.0838138 0.0583762 0.0892261 ) 0 
( 0.00384148 0.063796 0.0890561 ) 0 
( 0.0220386 0.00322524 0.0887774 ) 0 
( 0.0619647 0.0399894 0.0896209 ) 0 
( 0.0245907 0.0652597 0.0995002 ) 0 
( 0.0652351 0.00683316 0.0911552 ) 0 
( 0.0703018 0.0626824 0.0890307 ) 0 
( 0.0472711 0.085948 0.0895351 ) 0 
( 0.0299979 0.0754903 0.096911 ) 0 
( 0.0163363 0.0635218 0.0892831 ) 0 
( 0.0791742 0.0809988 0.0916682 ) 0 
( 0.0936351 0.0257977 0.0990043 ) 0 
( 0.0255989 0.0971723 0.092481 ) 0 
( 0.0757318 0.0246705 0.0914345 ) 0 
( 0.0255407 0.0631954 0.0896799 ) 0 
( 0.0231694 0.00753439 0.0895904 ) 0 
( 0.0340158 0.00325132 0.0914328 ) 0 
( 0.059091 0.0431884 0.0978142 ) 0 
( 0.013181 0.0322268 0.0913663 ) 0 
( 0.0971452 0.0194986 0.0891936 ) 0 
( 0.070721 0.00717237 0.091627 ) 0 
( 0.0798419 0.00201192 0.0890194 ) 0 
( 0.0929425 0.0840022 0.0891403 ) 0 
( 0.0374813 0.0481409 0.0896996 ) 0 
( 0.0935402 0.0299455 0.0995002 ) 0 
( 0.0402615 0.0747781 0.0995002 ) 0 
( 0.0430293 0.0934076 0.0886477 ) 0 
( 0.0653862 0.0453935 0.0903798 ) 0 
( 0.0370485 0.0736081 0.0906194 ) 0 
( 0.0270526 0.0729589 0.0880735 ) 0 
( 0.0442655 0.0697484 0.0973217 ) 0 
( 0.0897711 0.082739 0.0995002 ) 0 
( 0.0765448 0.087935 0.0899733 ) 0 
( 0.0391814 0.0213972 0.0892188 ) 0 
( 0.0641181 0.0326592 0.0885127 ) 0 
( 0.0483104 0.0524148 0.0896454 ) 0 
( 0.0301499 0.0912689 0.0924044 ) 0 
( 0.0607954 0.0881711 0.0995002 ) 0 
( 0.0798552 0.0258046 0.0995002 ) 0 
( 0.00972659 0.0748281 0.0913699 ) 0 
( 0.0704762 0.092897 0.0898031 ) 0 
( 0.0955959 0.0795605 0.0990629 ) 0 
( 0.0624449 0.011526 0.0891927 ) 0 
( 0.0927114 0.00090215 0.0957664 ) 0 
( 0.0232423 0.0332863 0.090912 ) 0 
( 0.0794884 0.0613429 0.0995002 ) 0 
( 0.0527272 0.0862997 0.0901377 ) 0 
( 0.0935295 0.0511419 0.0917605 ) 0 
( 0.054389 0.0162691 0.0907791 ) 0 
( 0.0357707 0.0979922 0.0948789 ) 0 
( 0.0559095 0.071085 0.0893079 ) 0 
( 0.0947873 0.0900212 0.0994995 ) 0 
( 0.0264999 0.0834319 0.0916316 ) 0 
( 0.0691938 0.0407666 0.0974652 ) 0 
( 0.0490203 0.0846719 0.0991237 ) 0 
( 0.0190611 0.0591466 0.0990206 ) 0 
( 0.0285035 0.0586076 0.0891857 ) 0 
( 0.0842889 0.0441397 0.0952334 ) 0 
( 0.0360574 0.0011534 0.0995002 ) 0 
( 0.0968432 0.0442069 0.0995017 ) 0 
( 0.0221915 0.0718568 0.0995002 ) 0 
( 0.0910408 0.022317 0.0992932 ) 0 
( 0.0159775 0.0332158 0.0946066 ) 0 
( 0.0400828 0.0716053 0.0987007 ) 0 
( 0.0663305 0.0174003 0.0916325 ) 0 
( 0.0733928 0.0546888 0.0908509 ) 0 
( 0.0916485 0.0355825 0.0911692 ) 0 
( 0.0402429 0.0829798 0.0995002 ) 0 
( 0.0837042 0.0160309 0.0896101 ) 0 
( 0.0731045 0.0678459 0.099474 ) 0 
( 0.0259709 0.0923657 0.0995003 ) 0 
( 0.025649 0.0824913 0.0896972 ) 0 
( 0.0206719 0.0329809 0.0889868 ) 0 
( 0.0733839 0.0630116 0.0901349 ) 0 
( 0.088666 0.00988114 0.0991554 ) 0 
( 0.0391351 0.0432808 0.0891683 ) 0 
( 0.0695327 0.035783 0.0893846 ) 0 
( 0.000503586 0.0637636 0.0989897 ) 0 
( 0.0552847 0.0701025 0.0892107 ) 0 
( 0.0384851 0.0191438 0.0921631 ) 0 
( 0.0957911 0.0613028 0.0891838 ) 0 
( 0.0283003 0.0427339 0.0895192 ) 0 
( 0.0521797 0.0835107 0.0985686 ) 0 
( 0.0411227 0.0498421 0.0995002 ) 0 
( 0.025441 0.0869233 0.0891107 ) 0 
( 0.0106878 0.0297887 0.0960943 ) 0 
( 0.0861941 0.0650345 0.0910863 ) 0 
( 0.0885404 0.088404 0.0995002 ) 0 
( 0.0641289 0.0138866 0.0995002 ) 0 
( 0.0451511 0.0548696 0.0995002 ) 0 
( 0.053183 0.046213 0.0897598 ) 0 
( 0.0444856 0.0340206 0.0993423 ) 0 
( 0.0853668 0.0593592 0.0934201 ) 0 
( 0.0580701 0.0846064 0.0989613 ) 0 
( 0.0689265 0.047637 0.0900878 ) 0 
( 0.0757007 0.00182443 0.0960185 ) 0 
( 0.0830678 0.0200772 0.09097 ) 0 
( 0.00145529 0.059017 0.0995002 ) 0 
( 0.0621164 0.090053 0.0891489 ) 0 
( 0.0847636 0.0215657 0.0933934 ) 0 
( 0.0712287 0.0400209 0.089712 ) 0 
( 0.0144266 0.068559 0.0992933 ) 0 
( 0.0279571 0.0753822 0.0936009 ) 0 
( 0.018506 0.0305747 0.0994786 ) 0 
( 0.01404 0.0699826 0.0995002 ) 0 
( 0.00926499 0.0473804 0.0951227 ) 0 
( 0.0375814 0.0298821 0.0894606 ) 0 
( 0.0230209 0.0124033 0.0978053 ) 0 
( 0.0967625 0.0877727 0.0995002 ) 0 
( 0.00573044 0.0114574 0.0976461 ) 0 
( 0.0825991 0.0423176 0.0895339 ) 0 
( 0.0480331 0.0927323 0.0926302 ) 0 
( 0.0239471 0.0644953 0.0990142 ) 0 
( 0.0149373 0.0516622 0.0994979 ) 0 
( 0.0554368 0.0261564 0.0891112 ) 0 
( 0.0342479 0.00484432 0.0875482 ) 0 
( 0.0773575 0.00312829 0.0944036 ) 0 
( 0.00589412 0.062553 0.0893542 ) 0 
( 0.104785 0.0973617 0.096228 ) 0 
( 0.0507819 0.0386397 0.0995002 ) 0 
( 0.0153365 0.0597231 0.099221 ) 0 
( 0.0842644 0.0324593 0.0912651 ) 0 
( 0.0862334 0.0252568 0.0995002 ) 0 
( 0.0714118 0.0174182 0.091958 ) 0 
( 0.0764406 0.0365524 0.0902513 ) 0 
( 0.00686217 0.0324704 0.0893849 ) 0 
( 0.0430893 0.00255608 0.0950386 ) 0 
( 0.00240118 0.056569 0.0949322 ) 0 
( 0.0943479 0.00521651 0.0990562 ) 0 
( 0.0321436 0.0378166 0.0994926 ) 0 
( 0.0820543 0.0865034 0.0956304 ) 0 
( 0.0143307 0.0553893 0.0894711 ) 0 
( 0.396934 0.00230768 0.0995002 ) 0 
( 0.0948119 0.00368946 0.0890615 ) 0 
( 0.0747282 0.0572098 0.0899174 ) 0 
( 0.0215946 0.0160118 0.0917689 ) 0 
( 0.0360583 0.0319718 0.0925429 ) 0 
( 0.0744554 0.0551695 0.0951923 ) 0 
( 0.0712045 0.0336555 0.0919491 ) 0 
( 0.155937 0.0375554 0.0995002 ) 0 
( 0.185443 0.0386442 0.0995002 ) 0 
( 0.119507 0.0554654 0.089504 ) 0 
( 0.165293 0.0806276 0.0888466 ) 0 
( 0.111395 0.013617 0.0968155 ) 0 
( 0.149435 0.0521292 0.0900852 ) 0 
( 0.194548 0.0605188 0.0917283 ) 0 
( 0.132422 0.0216145 0.0990407 ) 0 
( 0.138915 0.0414598 0.0891811 ) 0 
( 0.131885 0.0579013 0.0918971 ) 0 
( 0.150501 0.0707887 0.0926004 ) 0 
( 0.13868 0.0992956 0.0956131 ) 0 
( 0.122645 0.0948039 0.0981789 ) 0 
( 0.195262 0.0658765 0.0994741 ) 0 
( 0.13703 0.0704701 0.0995002 ) 0 
( 0.119997 0.095333 0.0965858 ) 0 
( 0.139081 0.0336211 0.0993573 ) 0 
( 0.187373 0.0850846 0.0890728 ) 0 
( 0.152381 0.0633166 0.0955022 ) 0 
( 0.166105 0.0213381 0.0894883 ) 0 
( 0.121618 0.0338686 0.0895395 ) 0 
( 0.144604 0.0548614 0.0953078 ) 0 
( 0.167347 0.00330511 0.093185 ) 0 
( 0.107028 0.0178091 0.0995002 ) 0 
( 0.114297 0.0875416 0.0890021 ) 0 
( 0.136992 0.0205434 0.0991149 ) 0 
( 0.157776 0.0486288 0.0889684 ) 0 
( 0.148495 0.0598598 0.0979624 ) 0 
( 0.191792 0.0445249 0.0895932 ) 0 
( 0.189705 0.0636543 0.0912324 ) 0 
( 0.127129 0.0642214 0.0991661 ) 0 
( 0.184088 0.0587693 0.0908126 ) 0 
( 0.150344 0.0301615 0.0888893 ) 0 
( 0.120685 0.0485395 0.0884497 ) 0 
( 0.108531 0.0801351 0.0895998 ) 0 
( 0.104847 0.0676853 0.0994656 ) 0 
( 0.177853 0.0824369 0.0875835 ) 0 
( 0.116504 0.0894226 0.0900217 ) 0 
( 0.141962 0.056328 0.0896315 ) 0 
( 0.128567 0.0276661 0.0994793 ) 0 
( 0.104485 0.07621 0.0970528 ) 0 
( 0.178685 0.0553423 0.0915173 ) 0 
( 0.16278 0.0974228 0.096345 ) 0 
( 0.140367 0.0452398 0.0924583 ) 0 
( 0.190003 0.079626 0.099111 ) 0 
( 0.165119 0.060862 0.089274 ) 0 
( 0.171736 0.0637956 0.0889461 ) 0 
( 0.101691 0.0232342 0.0995002 ) 0 
( 0.123278 0.0300649 0.0897287 ) 0 
( 0.123198 0.0887974 0.089094 ) 0 
( 0.194291 0.0464886 0.0907216 ) 0 
( 0.106856 0.034251 0.0954133 ) 0 
( 0.137774 0.0366227 0.0995002 ) 0 
( 0.108405 0.0560444 0.0904631 ) 0 
( 0.160557 0.088916 0.0889698 ) 0 
( 0.149227 0.055017 0.0992837 ) 0 
( 0.103633 0.0656555 0.0991412 ) 0 
( 0.144585 0.0417346 0.0898075 ) 0 
( 0.0942821 0.0730605 0.0987957 ) 0 
( 0.133742 0.00501677 0.0889734 ) 0 
( 0.108536 0.0725293 0.0887184 ) 0 
( 0.103478 0.0618177 0.099232 ) 0 
( 0.100528 0.0676536 0.094884 ) 0 
( 0.150224 0.00640563 0.0959749 ) 0 
( 0.111943 0.0177215 0.0928028 ) 0 
( 0.1699 0.00329854 0.0904741 ) 0 
( 0.185422 0.089675 0.0991667 ) 0 
( 0.109356 0.0505981 0.0896958 ) 0 
( 0.11603 0.0129397 0.0989932 ) 0 
( 0.131885 0.0855492 0.0900833 ) 0 
( 0.195566 0.0721903 0.0890764 ) 0 
( 0.153936 0.00317859 0.0892409 ) 0 
( 0.140892 0.0784088 0.0891807 ) 0 
( 0.192056 0.0818203 0.0934119 ) 0 
( 0.199095 0.0905956 0.0915779 ) 0 
( 0.125812 0.0232561 0.09839 ) 0 
( 0.133204 0.06631 0.0990943 ) 0 
( 0.148391 0.00884039 0.099009 ) 0 
( 0.11956 0.0369642 0.0960721 ) 0 
( 0.128382 0.0164214 0.0995002 ) 0 
( 0.100573 0.038126 0.0994698 ) 0 
( 0.145091 0.0396979 0.0896294 ) 0 
( 0.102312 0.057896 0.0942383 ) 0 
( 0.193762 0.0548488 0.0924746 ) 0 
( 0.177441 0.0569211 0.0990846 ) 0 
( 0.16936 0.0350692 0.089219 ) 0 
( 0.13088 0.00595841 0.0922973 ) 0 
( 0.167595 0.0640433 0.099061 ) 0 
( 0.101982 0.0131654 0.099248 ) 0 
( 0.145603 0.0438377 0.099058 ) 0 
( 0.160734 0.0590974 0.0925784 ) 0 
( 0.14725 0.0372582 0.0995002 ) 0 
( 0.194957 0.0444327 0.0992407 ) 0 
( 0.183916 0.0753267 0.0890341 ) 0 
( 0.150546 0.0214674 0.089699 ) 0 
( 0.132127 0.0605393 0.0994934 ) 0 
( 0.143336 0.0544395 0.0980881 ) 0 
( 0.196902 0.0304993 0.0898135 ) 0 
( 0.189424 0.0411871 0.0896946 ) 0 
( 0.103845 0.0209402 0.0909371 ) 0 
( 0.174299 0.0371635 0.0890463 ) 0 
( 0.192464 0.0362547 0.0904585 ) 0 
( 0.112022 0.0468558 0.0892694 ) 0 
( 0.12043 0.0686441 0.0896892 ) 0 
( 0.155578 0.095322 0.0989989 ) 0 
( 0.10384 0.0464496 0.0990112 ) 0 
( 0.198403 0.0510728 0.0992197 ) 0 
( 0.160824 0.070302 0.0988503 ) 0 
( 0.13676 0.0333415 0.0991756 ) 0 
( 0.130788 0.05524 0.0897692 ) 0 
( 0.177934 0.0351739 0.0994011 ) 0 
( 0.185011 0.0834997 0.0992163 ) 0 
( 0.114084 0.0124507 0.0962112 ) 0 
( 0.196889 0.0192257 0.0888649 ) 0 
( 0.169241 0.0317533 0.096837 ) 0 
( 0.174802 0.090709 0.0916909 ) 0 
( 0.12944 0.092745 0.0987249 ) 0 
( 0.177393 0.0445486 0.0894571 ) 0 
( 0.190279 0.0265656 0.0995002 ) 0 
( 0.198715 0.00302211 0.0995002 ) 0 
( 0.108247 0.00226036 0.0995002 ) 0 
( 0.194211 0.00881811 0.0891612 ) 0 
( 0.154155 0.0875429 0.0909159 ) 0 
( 0.193624 0.0445985 0.0986789 ) 0 
( 0.153593 0.0417789 0.0989839 ) 0 
( 0.145066 0.0288981 0.0995002 ) 0 
( 0.183434 0.0793914 0.0907663 ) 0 
( 0.199837 0.0715864 0.0960272 ) 0 
( 0.168857 0.0724951 0.089326 ) 0 
( 0.127605 0.0506759 0.0893367 ) 0 
( 0.110906 0.0956812 0.0891332 ) 0 
( 0.159245 0.0251828 0.0933594 ) 0 
( 0.162784 0.0137896 0.0973156 ) 0 
( 0.176252 0.0665951 0.0959657 ) 0 
( 0.127384 0.0469617 0.0994777 ) 0 
( 0.143015 0.0521152 0.0995002 ) 0 
( 0.124379 0.0407712 0.0916231 ) 0 
( 0.184643 0.0565652 0.0995002 ) 0 
( 0.143353 0.036692 0.0993937 ) 0 
( 0.173923 0.026452 0.0990369 ) 0 
( 0.199207 0.0723396 0.0890859 ) 0 
( 0.149301 0.00983526 0.089697 ) 0 
( 0.191712 0.00447203 0.0972803 ) 0 
( 0.130743 0.00384598 0.0905682 ) 0 
( 0.122161 0.0533082 0.0939595 ) 0 
( 0.15145 0.0239862 0.0901179 ) 0 
( 0.124753 0.0168972 0.0995002 ) 0 
( 0.16984 0.0982761 0.0886405 ) 0 
( 0.118558 0.0882506 0.0951936 ) 0 
( 0.18734 0.0209113 0.09393 ) 0 
( 0.136004 0.0181767 0.0995002 ) 0 
( 0.130407 0.0537247 0.0942002 ) 0 
( 0.125048 0.0748332 0.0890974 ) 0 
( 0.192124 0.0207285 0.0992363 ) 0 
( 0.121231 0.0292283 0.0919702 ) 0 
( 0.182629 0.0451924 0.0934127 ) 0 
( 0.136845 0.0524438 0.0891138 ) 0 
( 0.105746 0.0648408 0.0990579 ) 0 
( 0.158268 0.0155287 0.0995002 ) 0 
( 0.183066 0.090409 0.0897044 ) 0 
( 0.1528 0.00809685 0.0992221 ) 0 
( 0.131633 0.0533218 0.0991371 ) 0 
( 0.107948 0.0877357 0.0990097 ) 0 
( 0.167645 0.0165869 0.0990209 ) 0 
( 0.152061 0.0810661 0.0990141 ) 0 
( 0.145673 0.0233333 0.0960697 ) 0 
( 0.112674 0.0125767 0.0990366 ) 0 
( 0.115376 0.020534 0.0888226 ) 0 
( 0.188478 0.0518331 0.0963308 ) 0 
( 0.164276 0.0856778 0.0995005 ) 0 
( 0.116213 0.0839248 0.0892875 ) 0 
( 0.126458 0.0814896 0.0995002 ) 0 
( 0.181209 0.0856244 0.0995002 ) 0 
( 0.130974 0.0812704 0.0893071 ) 0 
( 0.145594 0.0522005 0.0995002 ) 0 
( 0.1763 0.075833 0.0901789 ) 0 
( 0.186533 0.0660874 0.089553 ) 0 
( 0.138587 0.0244728 0.0887477 ) 0 
( 0.144152 0.0693933 0.0995002 ) 0 
( 0.105893 0.0434974 0.0950108 ) 0 
( 0.146318 0.0724796 0.0980204 ) 0 
( 0.127339 0.0932229 0.0995002 ) 0 
( 0.164448 0.0694601 0.0891569 ) 0 
( 0.109282 0.0980346 0.0991559 ) 0 
( 0.117844 0.0112261 0.0990068 ) 0 
( 0.18159 0.0823524 0.0995002 ) 0 
( 0.180085 0.0853254 0.0971648 ) 0 
( 0.126973 0.0406667 0.0994705 ) 0 
( 0.143542 0.00741092 0.0950947 ) 0 
( 0.173799 0.0386185 0.0968058 ) 0 
( 0.138635 0.0848364 0.0979983 ) 0 
( 0.104228 0.0599079 0.0992333 ) 0 
( 0.100894 0.0218455 0.0949832 ) 0 
( 0.192642 0.0263324 0.0994063 ) 0 
( 0.109895 0.00946238 0.0899669 ) 0 
( 0.113243 0.0759084 0.0995002 ) 0 
( 0.167084 0.0785162 0.0891882 ) 0 
( 0.163534 0.0184453 0.0878473 ) 0 
( 0.112394 0.00580366 0.0922947 ) 0 
( 0.103531 0.0522504 0.0991415 ) 0 
( 0.187092 0.052573 0.0995002 ) 0 
( 0.181313 0.032344 0.0895127 ) 0 
( 0.173642 0.00644855 0.0989524 ) 0 
( 0.136565 0.0560079 0.0901368 ) 0 
( 0.197411 0.0816514 0.0890716 ) 0 
( 0.158175 0.0527977 0.0992675 ) 0 
( 0.114796 0.0794521 0.0942794 ) 0 
( 0.155374 0.0696498 0.0890698 ) 0 
( 0.153868 0.0558555 0.0963648 ) 0 
( 0.191914 0.0991542 0.0994666 ) 0 
( 0.110322 0.0775127 0.0954626 ) 0 
( 0.13179 0.0312588 0.0995002 ) 0 
( 0.191974 0.0133155 0.0995002 ) 0 
( 0.112546 0.0540977 0.0896482 ) 0 
( 0.116617 0.0863451 0.0895244 ) 0 
( 0.186413 0.048973 0.0995002 ) 0 
( 0.136521 0.0041568 0.0980003 ) 0 
( 0.114287 0.014618 0.0994678 ) 0 
( 0.137398 0.0458785 0.0991719 ) 0 
( 0.154555 0.0978335 0.0995002 ) 0 
( 0.194408 0.020324 0.0994668 ) 0 
( 0.179179 0.0612719 0.0966531 ) 0 
( 0.154878 0.0378825 0.0995002 ) 0 
( 0.135705 0.095418 0.0995002 ) 0 
( 0.131482 0.0156897 0.0995002 ) 0 
( 0.155993 0.0727157 0.089562 ) 0 
( 0.156423 0.00906751 0.0995002 ) 0 
( 0.102347 0.0413855 0.0983975 ) 0 
( 0.105952 0.0392549 0.0953001 ) 0 
( 0.142627 0.0332794 0.0897492 ) 0 
( 0.145471 0.0314929 0.0895688 ) 0 
( 0.193388 0.0747728 0.0894038 ) 0 
( 0.125658 0.0330824 0.0891958 ) 0 
( 0.176568 0.0719945 0.0892045 ) 0 
( 0.181355 0.029996 0.0923785 ) 0 
( 0.138789 0.0295884 0.0995002 ) 0 
( 0.121186 0.0695508 0.0920457 ) 0 
( 0.194183 0.028027 0.0940249 ) 0 
( 0.156881 0.000908526 0.0995131 ) 0 
( 0.149098 0.0903263 0.0884302 ) 0 
( 0.180931 0.000856838 0.0898763 ) 0 
( 0.117578 0.0311744 0.0924692 ) 0 
( 0.171042 0.0985148 0.0902995 ) 0 
( 0.186976 0.0138749 0.0995002 ) 0 
( 0.166773 0.0570248 0.0887606 ) 0 
( 0.105344 0.0152054 0.0943599 ) 0 
( 0.178409 0.01386 0.0914218 ) 0 
( 0.197987 0.0642907 0.0908853 ) 0 
( 0.184097 0.0109859 0.0906737 ) 0 
( 0.169376 0.0083073 0.089183 ) 0 
( 0.101691 0.0286892 0.0990104 ) 0 
( 0.283164 0.0394524 0.0990368 ) 0 
( 0.238805 0.0961686 0.0895007 ) 0 
( 0.298549 0.0186144 0.0928037 ) 0 
( 0.238196 0.0523356 0.0896324 ) 0 
( 0.215197 0.0233915 0.0918559 ) 0 
( 0.20568 0.0657525 0.0898164 ) 0 
( 0.280451 0.0429022 0.0958173 ) 0 
( 0.268693 0.0267755 0.0890577 ) 0 
( 0.241343 0.0459483 0.0930193 ) 0 
( 0.212838 0.0659059 0.0991742 ) 0 
( 0.276692 0.0707849 0.0992108 ) 0 
( 0.280563 0.0230888 0.0947921 ) 0 
( 0.226724 0.0419784 0.0907767 ) 0 
( 0.226972 0.0222317 0.09192 ) 0 
( 0.215205 0.0570252 0.0880299 ) 0 
( 0.215436 0.025025 0.0995002 ) 0 
( 0.264766 0.0203151 0.0912976 ) 0 
( 0.218964 0.0210351 0.0901356 ) 0 
( 0.272012 0.0130401 0.0966358 ) 0 
( 0.259564 0.090767 0.0891046 ) 0 
( 0.27008 0.0297978 0.0892204 ) 0 
( 0.243784 0.0724005 0.0900824 ) 0 
( 0.207986 0.0408602 0.0995002 ) 0 
( 0.204367 0.00314162 0.0893772 ) 0 
( 0.247812 0.0721037 0.0931872 ) 0 
( 0.29152 0.0987684 0.0987717 ) 0 
( 0.284114 0.00577002 0.0990305 ) 0 
( 0.221639 0.0948513 0.0982091 ) 0 
( 0.208924 0.0876812 0.0962007 ) 0 
( 0.218961 0.0844789 0.0903111 ) 0 
( 0.215113 0.0041389 0.0956842 ) 0 
( 0.2231 0.0500692 0.0891941 ) 0 
( 0.237865 0.0900541 0.0990631 ) 0 
( 0.229833 0.0957675 0.0979897 ) 0 
( 0.251631 0.061566 0.0914559 ) 0 
( 0.269129 0.0564795 0.0924281 ) 0 
( 0.271989 0.0111748 0.0891955 ) 0 
( 0.239722 0.00725309 0.0897682 ) 0 
( 0.292967 0.0882029 0.0893058 ) 0 
( 0.259677 0.0961945 0.0906857 ) 0 
( 0.282437 0.0240818 0.0910894 ) 0 
( 0.220981 0.0296729 0.0877557 ) 0 
( 0.24499 0.0415785 0.0890417 ) 0 
( 0.217574 0.058307 0.0989228 ) 0 
( 0.207689 0.0364615 0.0892763 ) 0 
( 0.267472 0.00497561 0.0893059 ) 0 
( 0.277587 0.0988172 0.0889824 ) 0 
( 0.279212 0.0123505 0.0990493 ) 0 
( 0.223856 0.0402099 0.0893518 ) 0 
( 0.224024 0.0728743 0.0995002 ) 0 
( 0.280931 0.0136475 0.099051 ) 0 
( 0.240392 0.0714732 0.0940686 ) 0 
( 0.262576 0.0161907 0.0891809 ) 0 
( 0.245158 0.0671146 0.0995002 ) 0 
( 0.269153 0.06054 0.0995002 ) 0 
( 0.239123 0.0460508 0.0989968 ) 0 
( 0.28649 0.0314035 0.0995002 ) 0 
( 0.275737 0.00650381 0.0892053 ) 0 
( 0.21035 0.0548398 0.0995002 ) 0 
( 0.282318 0.010746 0.0892518 ) 0 
( 0.225165 0.0456406 0.0992475 ) 0 
( 0.213383 0.0304184 0.092163 ) 0 
( 0.29015 0.0518845 0.0889778 ) 0 
( 0.245818 0.0713301 0.092668 ) 0 
( 0.216874 0.00763576 0.0899839 ) 0 
( 0.287037 0.0260639 0.0937886 ) 0 
( 0.264341 0.0359131 0.0954944 ) 0 
( 0.228287 0.0236472 0.0915696 ) 0 
( 0.290153 0.00690776 0.0995002 ) 0 
( 0.229036 0.0110826 0.0984946 ) 0 
( 0.280418 0.0844688 0.0995076 ) 0 
( 0.215239 0.0643202 0.0993045 ) 0 
( 0.290312 0.0808565 0.0952013 ) 0 
( 0.212251 0.0106404 0.0895718 ) 0 
( 0.268518 0.0896213 0.0995002 ) 0 
( 0.24321 0.0311338 0.0983463 ) 0 
( 0.239582 0.0617333 0.0942064 ) 0 
( 0.233734 0.0662412 0.0891795 ) 0 
( 0.266084 0.0801201 0.0990334 ) 0 
( 0.262978 0.0760919 0.0989974 ) 0 
( 0.252519 0.0801614 0.0991155 ) 0 
( 0.262997 0.0950814 0.0897752 ) 0 
( 0.240922 0.0798333 0.0964419 ) 0 
( 0.267201 0.0536625 0.0888356 ) 0 
( 0.20762 0.073294 0.09403 ) 0 
( 0.295519 0.0885289 0.0894281 ) 0 
( 0.21298 0.052684 0.096132 ) 0 
( 0.260502 0.0586471 0.0992522 ) 0 
( 0.231573 0.0409262 0.0916617 ) 0 
( 0.270285 0.0826205 0.0895888 ) 0 
( 0.264179 0.0536224 0.0995002 ) 0 
( 0.206891 0.0121259 0.0995002 ) 0 
( 0.202031 0.0390563 0.0888229 ) 0 
( 0.27595 0.0846674 0.0896044 ) 0 
( 0.201102 0.0221993 0.0896498 ) 0 
( 0.25528 0.0940803 0.0893433 ) 0 
( 0.290627 0.0752223 0.0969977 ) 0 
( 0.213839 0.0887187 0.0995002 ) 0 
( 0.214733 0.0098199 0.0910746 ) 0 
( 0.249308 0.0185247 0.0928875 ) 0 
( 0.236185 0.0540441 0.0875219 ) 0 
( 0.248339 0.0406581 0.0920921 ) 0 
( 0.218926 0.0943699 0.0990599 ) 0 
( 0.298259 0.0383269 0.0966143 ) 0 
( 0.278555 0.0813021 0.0913943 ) 0 
( 0.279171 0.0214675 0.089522 ) 0 
( 0.281752 0.00356923 0.0994975 ) 0 
( 0.217204 0.04822 0.0906422 ) 0 
( 0.207621 0.0831575 0.0901698 ) 0 
( 0.284907 0.0252902 0.0929587 ) 0 
( 0.267242 0.0430138 0.0898071 ) 0 
( 0.277762 0.0521039 0.0887219 ) 0 
( 0.252026 0.00655188 0.0891901 ) 0 
( 0.247984 0.0637742 0.0940494 ) 0 
( 0.266204 0.0849119 0.0894897 ) 0 
( 0.264464 0.0517753 0.0995001 ) 0 
( 0.231146 0.0631884 0.0887271 ) 0 
( 0.279301 0.0187356 0.0994982 ) 0 
( 0.224788 0.013607 0.0995002 ) 0 
( 0.264223 0.0896094 0.0985172 ) 0 
( 0.223632 0.014322 0.0984355 ) 0 
( 0.222858 0.078723 0.0995002 ) 0 
( 0.258168 0.024543 0.0995002 ) 0 
( 0.232579 0.0504152 0.0892625 ) 0 
( 0.261708 0.0260016 0.0891629 ) 0 
( 0.284017 0.0760233 0.0892946 ) 0 
( 0.252493 0.0627558 0.0995002 ) 0 
( 0.207777 0.0155944 0.0995002 ) 0 
( 0.261932 0.0986833 0.0992947 ) 0 
( 0.240568 0.0254917 0.0913878 ) 0 
( 0.284488 0.0941795 0.0990596 ) 0 
( 0.24197 0.0893504 0.0892538 ) 0 
( 0.225547 0.0663634 0.0992929 ) 0 
( 0.288087 0.0794384 0.0891038 ) 0 
( 0.275906 0.0500867 0.0886926 ) 0 
( 0.212242 0.058412 0.0905082 ) 0 
( 0.211739 0.000515818 0.0993438 ) 0 
( 0.233765 0.0804172 0.0991661 ) 0 
( 0.248981 0.0306222 0.0993107 ) 0 
( 0.221706 0.00858352 0.0960427 ) 0 
( 0.22245 0.0642113 0.0993609 ) 0 
( 0.258075 0.070165 0.0975757 ) 0 
( 0.259422 0.0982733 0.0991964 ) 0 
( 0.219306 0.0762849 0.0892056 ) 0 
( 0.209836 0.0406369 0.0995 ) 0 
( 0.207754 0.0235989 0.0995002 ) 0 
( 0.242105 0.0598013 0.099205 ) 0 
( 0.26965 0.00798974 0.0994846 ) 0 
( 0.239231 0.0496227 0.0887524 ) 0 
( 0.297339 0.08287 0.0995002 ) 0 
( 0.204204 0.0489257 0.0995002 ) 0 
( 0.276412 0.0567929 0.0890769 ) 0 
( 0.298369 0.0959234 0.0994629 ) 0 
( 0.257384 0.0487643 0.0992571 ) 0 
( 0.261005 0.00817066 0.0891267 ) 0 
( 0.262974 0.0971137 0.0995002 ) 0 
( 0.212531 0.00408508 0.0960456 ) 0 
( 0.28016 0.0537458 0.0881851 ) 0 
( 0.257102 0.0134125 0.0892827 ) 0 
( 0.280766 0.0330653 0.090358 ) 0 
( 0.210223 0.00973296 0.0993062 ) 0 
( 0.215557 0.0301656 0.0993997 ) 0 
( 0.236766 0.0232117 0.0889664 ) 0 
( 0.246703 0.0347049 0.0994983 ) 0 
( 0.286271 0.0485019 0.0991397 ) 0 
( 0.245639 0.0620238 0.090923 ) 0 
( 0.272285 0.0875201 0.0922416 ) 0 
( 0.296845 0.0665457 0.0908941 ) 0 
( 0.246463 0.0969284 0.0990364 ) 0 
( 0.266246 0.00176505 0.0967003 ) 0 
( 0.231709 0.0271487 0.0995006 ) 0 
( 0.210234 0.0959927 0.0936529 ) 0 
( 0.261875 0.0406621 0.0894193 ) 0 
( 0.244572 0.0202254 0.0943974 ) 0 
( 0.221865 0.0909354 0.0937992 ) 0 
( 0.276509 0.0927741 0.0932094 ) 0 
( 0.279092 0.096925 0.0889521 ) 0 
( 0.281418 0.0965924 0.0903927 ) 0 
( 0.245551 0.0703272 0.0995002 ) 0 
( 0.204601 0.0227556 0.0932213 ) 0 
( 0.238681 0.0191488 0.089881 ) 0 
( 0.266666 0.0525936 0.0917917 ) 0 
( 0.22903 0.00395445 0.0965149 ) 0 
( 0.208337 0.0060567 0.0891188 ) 0 
( 0.24518 0.0330576 0.0995002 ) 0 
( 0.236127 0.0858135 0.0993394 ) 0 
( 0.26707 0.0441024 0.0894918 ) 0 
( 0.224045 0.021424 0.0990505 ) 0 
( 0.290637 0.0348677 0.0892179 ) 0 
( 0.253443 0.0175697 0.0995002 ) 0 
( 0.231799 0.0447193 0.0995002 ) 0 
( 0.20975 0.067835 0.0994998 ) 0 
( 0.299109 0.0175603 0.0906878 ) 0 
( 0.280156 0.0770818 0.088944 ) 0 
( 0.249608 0.0601803 0.0922098 ) 0 
( 0.24416 0.00282267 0.0906765 ) 0 
( 0.294349 0.0320015 0.0933785 ) 0 
( 0.215798 0.0220281 0.0893474 ) 0 
( 0.247974 0.0919979 0.0893883 ) 0 
( 0.23835 0.0483564 0.0892475 ) 0 
( 0.260659 0.0977207 0.0995002 ) 0 
( 0.261912 0.0496311 0.0924817 ) 0 
( 0.221001 0.058933 0.0994729 ) 0 
( 0.196061 0.0370876 0.0974461 ) 0 
( 0.261918 0.0535379 0.0892782 ) 0 
( 0.218379 0.0328417 0.0995002 ) 0 
( 0.225895 0.0156658 0.0995002 ) 0 
( 0.24065 0.00377088 0.0990255 ) 0 
( 0.247264 0.0480223 0.0993146 ) 0 
( 0.209293 0.0802826 0.0892489 ) 0 
( 0.245619 0.0216581 0.0894204 ) 0 
( 0.299064 0.0767428 0.0891846 ) 0 
( 0.249415 0.0150044 0.0990542 ) 0 
( 0.217491 0.0767611 0.0892385 ) 0 
( 0.255992 0.0512488 0.0903444 ) 0 
( 0.206585 0.0776207 0.0992188 ) 0 
( 0.219195 0.00270765 0.0894396 ) 0 
( 0.252878 0.0558771 0.0994198 ) 0 
( 0.23546 0.0784316 0.0995002 ) 0 
( 0.205552 0.0168326 0.089468 ) 0 
( 0.278033 0.00398439 0.0985668 ) 0 
( 0.203379 0.0842096 0.0892893 ) 0 
( 0.206218 0.0983304 0.0901717 ) 0 
( 0.226069 0.0376728 0.09906 ) 0 
( 0.285673 0.01099 0.0893496 ) 0 
( 0.256473 0.0391737 0.0995002 ) 0 
( 0.207518 0.0052136 0.0993213 ) 0 
( 0.277738 0.0405871 0.0918625 ) 0 
( 0.219701 0.0156952 0.0995002 ) 0 
( 0.298799 0.0202179 0.0897624 ) 0 
( 0.217748 0.084689 0.0977615 ) 0 
( 0.236088 0.0291044 0.094248 ) 0 
( 0.275606 0.00326268 0.0912835 ) 0 
( 0.202512 0.0170864 0.0992017 ) 0 
( 0.265082 0.0409079 0.0918 ) 0 
( 0.229546 0.0815705 0.0936917 ) 0 
( 0.276695 0.00743658 0.0994646 ) 0 
( 0.255847 0.0275216 0.0950409 ) 0 
( 0.234489 0.0566206 0.0892281 ) 0 
( 0.23997 0.0825326 0.0901301 ) 0 
( 0.294017 0.0508376 0.0893578 ) 0 
( 0.281619 0.0640005 0.0947153 ) 0 
( 0.216142 0.0941492 0.0980054 ) 0 
( 0.247858 0.046334 0.099367 ) 0 
( 0.313336 0.0943045 0.0959629 ) 0 
( 0.240344 0.0586594 0.099467 ) 0 
( 0.267355 0.0398197 0.0936424 ) 0 
( 0.263694 0.0108619 0.0940298 ) 0 
( 0.310391 0.0413494 0.0960828 ) 0 
( 0.392167 0.053693 0.0896352 ) 0 
( 0.377592 0.0817634 0.0995002 ) 0 
( 0.311098 0.0240436 0.0898429 ) 0 
( 0.319 0.033166 0.0890906 ) 0 
( 0.311122 0.0285933 0.0994057 ) 0 
( 0.311467 0.0336752 0.0990301 ) 0 
( 0.347613 0.0926798 0.0995002 ) 0 
( 0.350263 0.0702821 0.0896728 ) 0 
( 0.386761 0.090352 0.0927927 ) 0 
( 0.317852 0.0858776 0.0979698 ) 0 
( 0.310625 0.0753889 0.0972356 ) 0 
( 0.314767 0.0846612 0.0897871 ) 0 
( 0.343072 0.043456 0.0945716 ) 0 
( 0.335149 0.0481739 0.0943926 ) 0 
( 0.387863 0.0173661 0.0990917 ) 0 
( 0.31793 0.0467372 0.0891562 ) 0 
( 0.304944 0.0924591 0.0969067 ) 0 
( 0.331754 0.0964495 0.0902957 ) 0 
( 0.390984 0.0693603 0.0902869 ) 0 
( 0.374055 0.0382575 0.0995002 ) 0 
( 0.365949 0.0109324 0.0907699 ) 0 
( 0.373574 0.0605969 0.0927687 ) 0 
( 0.341388 0.00297813 0.094624 ) 0 
( 0.380004 0.0217316 0.0910237 ) 0 
( 0.382764 0.00712656 0.0990385 ) 0 
( 0.331236 0.0909966 0.0990677 ) 0 
( 0.385503 0.0410737 0.0887567 ) 0 
( 0.369353 0.0155026 0.0945313 ) 0 
( 0.346131 0.024433 0.0927916 ) 0 
( 0.340521 0.0446235 0.099468 ) 0 
( 0.319072 0.0359169 0.0937206 ) 0 
( 0.308113 0.0598123 0.0982718 ) 0 
( 0.305951 0.0173638 0.0898556 ) 0 
( 0.331868 0.0434106 0.0982716 ) 0 
( 0.394731 0.0429969 0.0925197 ) 0 
( 0.333411 0.0452736 0.0890641 ) 0 
( 0.366124 0.0399128 0.0891885 ) 0 
( 0.36294 0.0250836 0.0990717 ) 0 
( 0.343971 0.0200778 0.0918604 ) 0 
( 0.331336 0.0580422 0.0889802 ) 0 
( 0.31487 0.0161789 0.0891819 ) 0 
( 0.38619 0.0928214 0.092173 ) 0 
( 0.393971 0.0696321 0.0894319 ) 0 
( 0.349613 0.0379172 0.0992243 ) 0 
( 0.345144 0.036988 0.0942881 ) 0 
( 0.35026 0.012061 0.0892589 ) 0 
( 0.363209 0.0461556 0.0899571 ) 0 
( 0.354972 0.0214912 0.0894759 ) 0 
( 0.356732 0.00146672 0.094207 ) 0 
( 0.324433 0.050355 0.0890968 ) 0 
( 0.326717 0.0608391 0.0994298 ) 0 
( 0.375786 0.093286 0.0942038 ) 0 
( 0.373928 0.00869542 0.0919913 ) 0 
( 0.377735 0.0972509 0.0995002 ) 0 
( 0.381911 0.0781848 0.0942568 ) 0 
( 0.377993 0.024769 0.0995002 ) 0 
( 0.317689 0.0031856 0.091747 ) 0 
( 0.323752 0.00778989 0.0899672 ) 0 
( 0.34784 0.0473521 0.0919063 ) 0 
( 0.376115 0.067945 0.0941225 ) 0 
( 0.361745 0.043045 0.0943353 ) 0 
( 0.316588 0.0862644 0.0927513 ) 0 
( 0.348702 0.0273585 0.0890354 ) 0 
( 0.323288 0.099019 0.0886818 ) 0 
( 0.379772 0.0361153 0.0995002 ) 0 
( 0.341413 0.0362545 0.0903125 ) 0 
( 0.321806 0.09755 0.0888393 ) 0 
( 0.294843 0.0515131 0.0995002 ) 0 
( 0.32749 0.0178781 0.0990086 ) 0 
( 0.347218 0.0966964 0.0991105 ) 0 
( 0.364277 0.000875857 0.089126 ) 0 
( 0.326188 0.036616 0.0896309 ) 0 
( 0.323302 0.0374298 0.0993086 ) 0 
( 0.3069 0.0657591 0.0877561 ) 0 
( 0.385627 0.032876 0.0917158 ) 0 
( 0.388569 0.0798926 0.0952044 ) 0 
( 0.325408 0.0306852 0.0893219 ) 0 