FoamFile
{version 2.0; format ascii;class Cloud<passiveParticle>; location 0;object  positions;}
1000
(
( 0.0288393 0.0356584 0.0879741 ) 0 
( 0.0320885 0.0811198 0.0991027 ) 0 
( 0.0404957 0.0923164 0.0979385 ) 0 
( 0.0925194 0.00891957 0.0889432 ) 0 
( 0.0075969 0.0038425 0.0994962 ) 0 
( 0.0948014 0.0400707 0.0991697 ) 0 
( 0.0185477 0.0613562 0.0889253 ) 0 
( 0.0204289 0.094262 0.0981566 ) 0 
( 0.0235044 0.0972807 0.0995002 ) 0 
( 0.0651162 0.0170136 0.0925571 ) 0 
( 0.00164539 0.0301633 0.0941523 ) 0 
( 0.020568 0.0184885 0.0903072 ) 0 
( 0.0506395 0.0566129 0.0995002 ) 0 
( 0.0183203 0.0673761 0.0995002 ) 0 
( 0.0753566 0.0747278 0.0947262 ) 0 
( 0.0586277 0.0159152 0.0995002 ) 0 
( 0.0185869 0.0262131 0.0989496 ) 0 
( 0.0210336 0.069631 0.0995002 ) 0 
( 0.00615755 0.0542021 0.0989751 ) 0 
( 0.0153117 0.0794021 0.0889667 ) 0 
( 0.0832078 0.0102947 0.089204 ) 0 
( 0.0621809 0.0128783 0.0934975 ) 0 
( 0.0994946 0.0953367 0.0891945 ) 0 
( 0.0801746 0.0519936 0.0966753 ) 0 
( 0.0303293 0.0034686 0.0995002 ) 0 
( 0.083494 0.0728479 0.0961052 ) 0 
( 0.028037 0.0759889 0.0995002 ) 0 
( 0.0898752 0.0353168 0.0991211 ) 0 
( 0.103736 0.00197843 0.0988557 ) 0 
( 0.0880726 0.0320384 0.0990877 ) 0 
( 0.0646677 0.00457085 0.0891175 ) 0 
( 0.064425 0.0231697 0.0886822 ) 0 
( 0.0152117 0.0711473 0.0995011 ) 0 
( 0.0720814 0.0582478 0.0990573 ) 0 
( 0.0726691 0.0865604 0.0888634 ) 0 
( 0.0115483 0.00131155 0.0929629 ) 0 
( 0.0654421 0.0987042 0.0890457 ) 0 
( 0.0406942 0.0788911 0.0897629 ) 0 
( 0.0838473 0.0536989 0.0891774 ) 0 
( 0.0934053 0.0715921 0.0942359 ) 0 
( 0.0909608 0.0244531 0.0994777 ) 0 
( 0.0271874 0.0624781 0.0994102 ) 0 
( 0.0492977 0.0562256 0.0994012 ) 0 
( 0.0750412 0.0866027 0.089627 ) 0 
( 0.0750905 0.0497546 0.0902253 ) 0 
( 0.0357505 0.048901 0.0992433 ) 0 
( 0.0624365 0.000944971 0.0994995 ) 0 
( 0.022678 0.0852625 0.0889292 ) 0 
( 0.0761284 0.0226156 0.0892041 ) 0 
( 0.0229021 0.053469 0.0939342 ) 0 
( 0.0242993 0.0341179 0.0896273 ) 0 
( 0.0227025 0.0199199 0.0995002 ) 0 
( 0.0224439 0.0047205 0.091855 ) 0 
( 0.00765276 0.0793298 0.0995002 ) 0 
( 0.0733359 0.0970288 0.0989511 ) 0 
( 0.0323067 0.0540703 0.0970003 ) 0 
( 0.0716546 0.0449743 0.099482 ) 0 
( 0.0516033 0.032082 0.0885661 ) 0 
( 0.0821207 0.0317811 0.0917122 ) 0 
( 0.0120863 0.0786306 0.091746 ) 0 
( 0.0316588 0.0248071 0.0900553 ) 0 
( 0.078828 0.0286294 0.0989652 ) 0 
( 0.0235921 0.0461479 0.0884707 ) 0 
( 0.0424331 0.064393 0.0935666 ) 0 
( 0.0885829 0.0451147 0.0915493 ) 0 
( 0.0894594 0.0887825 0.0995002 ) 0 
( 0.010908 0.0834227 0.0994978 ) 0 
( 0.0546362 0.0414812 0.0990145 ) 0 
( 0.00707195 0.0278073 0.0964522 ) 0 
( 0.0528914 0.0805332 0.08908 ) 0 
( 0.0145173 0.0255734 0.0887194 ) 0 
( 0.0904369 0.0775489 0.0992726 ) 0 
( 0.0419773 0.0189716 0.0960506 ) 0 
( 0.0347368 0.0600158 0.0994858 ) 0 
( 0.081826 0.0895706 0.0887755 ) 0 
( 0.0274612 0.0218884 0.0991702 ) 0 
( 0.068535 0.00117523 0.0950821 ) 0 
( 0.0939277 0.0827842 0.0939816 ) 0 
( 0.0860675 0.0705507 0.092094 ) 0 
( 0.0874634 0.0798753 0.0987129 ) 0 
( 0.0232049 0.00148629 0.0992839 ) 0 
( 0.0573287 0.0559475 0.0874098 ) 0 
( 0.0908086 0.0527227 0.0888176 ) 0 
( 0.0376685 0.0992345 0.0899441 ) 0 
( 0.0416301 0.0207105 0.0994872 ) 0 
( 0.0192432 0.0196156 0.0993051 ) 0 
( 0.0203275 0.056035 0.0994257 ) 0 
( 0.0472649 0.0405482 0.0995002 ) 0 
( 0.0433301 0.0816094 0.0889614 ) 0 
( 0.0489097 0.0592329 0.089315 ) 0 
( 0.0747009 0.0694395 0.0991401 ) 0 
( 0.072394 0.0854046 0.0995002 ) 0 
( 0.00329971 0.0174258 0.0995014 ) 0 
( 0.0574176 0.0520277 0.0905226 ) 0 
( 0.0876114 0.0623906 0.0995002 ) 0 
( 0.0879604 0.0498091 0.0913635 ) 0 
( 0.0920113 0.0659859 0.0893405 ) 0 
( 0.00884337 0.0176718 0.0995002 ) 0 
( 0.0960501 0.0336567 0.099214 ) 0 
( 0.080094 0.0722799 0.0874908 ) 0 
( 0.0642434 0.0725543 0.0889779 ) 0 
( 0.0505594 0.0111316 0.0995002 ) 0 
( 0.0715121 0.0878363 0.0994792 ) 0 
( 0.0660034 0.0781395 0.0995002 ) 0 
( 0.0258898 0.0553848 0.0946283 ) 0 
( 0.0896086 0.0299289 0.0979095 ) 0 
( 0.0616919 0.0158206 0.0995002 ) 0 
( 0.0339489 0.0915095 0.0995002 ) 0 
( 0.0906059 0.0446793 0.0886895 ) 0 
( 0.0889703 0.0122403 0.0960158 ) 0 
( 0.0367467 0.0153139 0.0994201 ) 0 
( 0.00640745 0.0236693 0.088944 ) 0 
( 0.0839428 0.0583762 0.0892606 ) 0 
( 0.00397045 0.063796 0.0888803 ) 0 
( 0.0220788 0.00322524 0.0882672 ) 0 
( 0.0620936 0.0399894 0.0890692 ) 0 
( 0.0246117 0.0648124 0.0995002 ) 0 
( 0.0653331 0.00683316 0.0915756 ) 0 
( 0.0704307 0.0626825 0.0884679 ) 0 
( 0.0473999 0.085948 0.089584 ) 0 
( 0.0300302 0.0754903 0.0978947 ) 0 
( 0.0164654 0.0635218 0.0889304 ) 0 
( 0.0793031 0.0809988 0.0921498 ) 0 
( 0.0936429 0.0257977 0.0990918 ) 0 
( 0.0253459 0.0968483 0.0924542 ) 0 
( 0.0758083 0.0246705 0.0917487 ) 0 
( 0.025645 0.0631954 0.0896704 ) 0 
( 0.0232522 0.00753439 0.089676 ) 0 
( 0.0340591 0.00325132 0.0918698 ) 0 
( 0.0591082 0.0431885 0.0988644 ) 0 
( 0.0133094 0.0322268 0.0916624 ) 0 
( 0.0972743 0.0194986 0.0888905 ) 0 
( 0.0708324 0.00717237 0.0920899 ) 0 
( 0.0798627 0.00201192 0.0887269 ) 0 
( 0.0930714 0.0840022 0.089095 ) 0 
( 0.0376082 0.0481409 0.0891951 ) 0 
( 0.0935426 0.0299454 0.0995002 ) 0 
( 0.0402639 0.0747781 0.0995002 ) 0 
( 0.0431514 0.0934076 0.0879735 ) 0 
( 0.0655152 0.0453935 0.0904839 ) 0 
( 0.0371475 0.0736081 0.0907922 ) 0 
( 0.0271817 0.0729589 0.0878488 ) 0 
( 0.0442908 0.0697484 0.0982676 ) 0 
( 0.0897735 0.082739 0.0995002 ) 0 
( 0.0766578 0.087935 0.0899535 ) 0 
( 0.0393101 0.0213972 0.0891206 ) 0 
( 0.064247 0.0326592 0.0878659 ) 0 
( 0.0484393 0.0524148 0.0898151 ) 0 
( 0.0299215 0.0921513 0.0923115 ) 0 
( 0.0607978 0.0881711 0.0995002 ) 0 
( 0.0798576 0.0258046 0.0995002 ) 0 
( 0.00983462 0.0748281 0.0916685 ) 0 
( 0.0705894 0.092897 0.0896999 ) 0 
( 0.0956035 0.0795605 0.0990182 ) 0 
( 0.0625629 0.011526 0.0889725 ) 0 
( 0.0927185 0.00090215 0.0966573 ) 0 
( 0.0233711 0.0332862 0.0912751 ) 0 
( 0.0794908 0.0613429 0.0995002 ) 0 
( 0.0528556 0.0862997 0.090394 ) 0 
( 0.0936584 0.0511419 0.0921595 ) 0 
( 0.0545179 0.0162691 0.0910162 ) 0 
( 0.0357916 0.0979922 0.0956254 ) 0 
( 0.0560383 0.071085 0.089273 ) 0 
( 0.0947897 0.0900212 0.0995002 ) 0 
( 0.0266248 0.0834319 0.092005 ) 0 
( 0.0692166 0.0407666 0.0984441 ) 0 
( 0.0490265 0.0846719 0.0992951 ) 0 
( 0.0190688 0.0591466 0.0990572 ) 0 
( 0.0286326 0.0586076 0.0889765 ) 0 
( 0.0843613 0.0441397 0.0960054 ) 0 
( 0.0372125 0.00111939 0.0995002 ) 0 
( 0.0968458 0.0442069 0.0995002 ) 0 
( 0.0221939 0.0718568 0.0995002 ) 0 
( 0.0910446 0.022317 0.0994953 ) 0 
( 0.0160561 0.0332158 0.0953949 ) 0 
( 0.0400882 0.0716053 0.0994338 ) 0 
( 0.0664594 0.0174003 0.092104 ) 0 
( 0.0735147 0.0546856 0.0910621 ) 0 
( 0.0917775 0.0355825 0.0914376 ) 0 
( 0.040688 0.0832969 0.0995002 ) 0 
( 0.0838331 0.0160309 0.0897094 ) 0 
( 0.0731082 0.0678459 0.0994807 ) 0 
( 0.0259733 0.0923657 0.0995002 ) 0 
( 0.0257778 0.0824913 0.0898005 ) 0 
( 0.0208007 0.0329809 0.0886068 ) 0 
( 0.0734938 0.0630116 0.0903563 ) 0 
( 0.0886732 0.00988114 0.0990158 ) 0 
( 0.039264 0.0432808 0.089012 ) 0 
( 0.0696616 0.035783 0.0889006 ) 0 
( 0.000509571 0.0637636 0.0990092 ) 0 
( 0.0554136 0.0701026 0.0889162 ) 0 
( 0.0386136 0.0191438 0.0927019 ) 0 
( 0.0959201 0.0613028 0.0889302 ) 0 
( 0.0284292 0.0427339 0.0895702 ) 0 
( 0.052187 0.0835107 0.0994882 ) 0 
( 0.0411252 0.0498421 0.0995002 ) 0 
( 0.0255534 0.0869233 0.0889483 ) 0 
( 0.0107378 0.0297887 0.0969468 ) 0 
( 0.0863034 0.0650345 0.0913416 ) 0 
( 0.0884794 0.0883567 0.0995002 ) 0 
( 0.0641313 0.0138866 0.0995002 ) 0 
( 0.0451535 0.0548696 0.0995002 ) 0 
( 0.053312 0.046213 0.0892116 ) 0 
( 0.044332 0.033905 0.099288 ) 0 
( 0.0854472 0.0593592 0.0940283 ) 0 
( 0.0580787 0.0846064 0.0989483 ) 0 
( 0.0690555 0.047637 0.0902906 ) 0 
( 0.075719 0.00182443 0.0969295 ) 0 
( 0.0831968 0.0200772 0.0912524 ) 0 
( 0.00145772 0.059017 0.0995002 ) 0 
( 0.062228 0.090053 0.089001 ) 0 
( 0.0848483 0.0215657 0.0940645 ) 0 
( 0.0713577 0.040021 0.0898315 ) 0 
( 0.0144327 0.068559 0.0990945 ) 0 
( 0.0280326 0.0753822 0.0942109 ) 0 
( 0.0185106 0.0305747 0.0992166 ) 0 
( 0.0140424 0.0699826 0.0995002 ) 0 
( 0.00934198 0.0485665 0.0955258 ) 0 
( 0.0377101 0.029882 0.0894836 ) 0 
( 0.0230385 0.0124033 0.0987915 ) 0 
( 0.0967649 0.0877727 0.0995002 ) 0 
( 0.00575025 0.0114574 0.0986467 ) 0 
( 0.0827281 0.0423176 0.0896474 ) 0 
( 0.0481589 0.0927322 0.0932173 ) 0 
( 0.023729 0.0640318 0.0989564 ) 0 
( 0.0149397 0.0516622 0.0995002 ) 0 
( 0.0555656 0.0261564 0.088737 ) 0 
( 0.0343096 0.00484431 0.0872376 ) 0 
( 0.0760401 0.00318766 0.0943365 ) 0 
( 0.00602317 0.062553 0.0893819 ) 0 
( 0.105269 0.0971728 0.0968853 ) 0 
( 0.050808 0.0386571 0.0995002 ) 0 
( 0.0153401 0.0597231 0.0993185 ) 0 
( 0.0843936 0.0324593 0.0916768 ) 0 
( 0.0862359 0.0252568 0.0995002 ) 0 
( 0.0715406 0.0174182 0.0924641 ) 0 
( 0.0765459 0.0365524 0.0904894 ) 0 
( 0.00699095 0.0324704 0.0894444 ) 0 
( 0.0431191 0.00255608 0.0958665 ) 0 
( 0.00245804 0.056569 0.0956886 ) 0 
( 0.0943556 0.00521651 0.0990223 ) 0 
( 0.0321472 0.0378166 0.0994659 ) 0 
( 0.0821151 0.0865034 0.0965083 ) 0 
( 0.0144597 0.0553893 0.0895043 ) 0 
( 0.396412 0.00232313 0.0995002 ) 0 
( 0.0948652 0.00368946 0.0886365 ) 0 
( 0.0748571 0.0572098 0.0899307 ) 0 
( 0.0223629 0.0159611 0.0920297 ) 0 
( 0.036187 0.0319718 0.0931235 ) 0 
( 0.074531 0.0551704 0.0959531 ) 0 
( 0.0713192 0.0336555 0.092458 ) 0 
( 0.15594 0.0375554 0.0995002 ) 0 
( 0.185445 0.0386442 0.0995002 ) 0 
( 0.119636 0.0554654 0.0890644 ) 0 
( 0.165422 0.0806276 0.088379 ) 0 
( 0.111415 0.013617 0.0977313 ) 0 
( 0.149554 0.0521292 0.0902866 ) 0 
( 0.194676 0.0605188 0.092084 ) 0 
( 0.13243 0.0216145 0.0990051 ) 0 
( 0.139044 0.0414598 0.0888996 ) 0 
( 0.131484 0.0584463 0.0919097 ) 0 
( 0.150611 0.0707886 0.0930985 ) 0 
( 0.138685 0.0992956 0.0964912 ) 0 
( 0.122657 0.0948039 0.0992548 ) 0 
( 0.195265 0.0658765 0.0994999 ) 0 
( 0.137033 0.0704701 0.0995002 ) 0 
( 0.120036 0.095333 0.0975093 ) 0 
( 0.139086 0.0336211 0.0991505 ) 0 
( 0.187502 0.0850846 0.0888286 ) 0 
( 0.152425 0.0633165 0.0963697 ) 0 
( 0.166234 0.0213381 0.089533 ) 0 
( 0.121747 0.0338686 0.0896011 ) 0 
( 0.144674 0.0548614 0.0960841 ) 0 
( 0.167392 0.00330511 0.0937719 ) 0 
( 0.106603 0.017577 0.0995002 ) 0 
( 0.114425 0.0875416 0.0886501 ) 0 
( 0.136999 0.0205434 0.0989931 ) 0 
( 0.157905 0.0486288 0.0884043 ) 0 
( 0.148511 0.0598598 0.0989648 ) 0 
( 0.191921 0.0445249 0.0896658 ) 0 
( 0.189806 0.0636543 0.0915386 ) 0 
( 0.127133 0.0642214 0.0993171 ) 0 
( 0.184217 0.0587693 0.0910596 ) 0 
( 0.150473 0.0301615 0.0888061 ) 0 
( 0.120814 0.0485395 0.0878165 ) 0 
( 0.10866 0.0801351 0.089698 ) 0 
( 0.10485 0.0676853 0.0994975 ) 0 
( 0.177982 0.0824369 0.0872335 ) 0 
( 0.116633 0.0894226 0.0900441 ) 0 
( 0.142091 0.056328 0.0891449 ) 0 
( 0.128571 0.0276661 0.0994744 ) 0 
( 0.104515 0.07621 0.0979881 ) 0 
( 0.178814 0.0553423 0.0918457 ) 0 
( 0.163798 0.0979406 0.0966434 ) 0 
( 0.140489 0.0452398 0.0929438 ) 0 
( 0.19001 0.079626 0.098991 ) 0 
( 0.165248 0.060862 0.0888436 ) 0 
( 0.171865 0.0637956 0.0886159 ) 0 
( 0.101694 0.0232342 0.0995002 ) 0 
( 0.123407 0.0300649 0.089153 ) 0 
( 0.123327 0.0887974 0.0888919 ) 0 
( 0.19442 0.0464886 0.0909456 ) 0 
( 0.106924 0.034251 0.096215 ) 0 
( 0.1373 0.0366965 0.0995002 ) 0 
( 0.108534 0.0560444 0.0907449 ) 0 
( 0.160686 0.088916 0.0885833 ) 0 
( 0.149233 0.055017 0.0990858 ) 0 
( 0.103641 0.0656555 0.0990157 ) 0 
( 0.144714 0.0417346 0.0899635 ) 0 
( 0.0938884 0.0728087 0.0991712 ) 0 
( 0.133813 0.00501677 0.0887355 ) 0 
( 0.108666 0.0725293 0.0880205 ) 0 
( 0.103485 0.0618177 0.0990795 ) 0 
( 0.10061 0.0676536 0.0956242 ) 0 
( 0.150276 0.00640563 0.0968344 ) 0 
( 0.112066 0.0177215 0.0933194 ) 0 
( 0.169944 0.00329854 0.0907555 ) 0 
( 0.185426 0.089675 0.0993223 ) 0 
( 0.109485 0.0505981 0.0891334 ) 0 
( 0.116038 0.0129397 0.099046 ) 0 
( 0.132013 0.0855492 0.0900992 ) 0 
( 0.195695 0.0721903 0.0884922 ) 0 
( 0.153978 0.00317858 0.0891465 ) 0 
( 0.141021 0.0784088 0.0889625 ) 0 
( 0.192175 0.0818203 0.0940857 ) 0 
( 0.199204 0.0905955 0.0919379 ) 0 
( 0.125822 0.0232561 0.0994208 ) 0 
( 0.133212 0.06631 0.0990162 ) 0 
( 0.148399 0.00884039 0.0991213 ) 0 
( 0.11961 0.0369642 0.096914 ) 0 
( 0.128384 0.0164214 0.0995002 ) 0 
( 0.100576 0.038126 0.099498 ) 0 
( 0.14522 0.0396979 0.0891019 ) 0 
( 0.102401 0.057896 0.0949972 ) 0 
( 0.193891 0.0548488 0.0929403 ) 0 
( 0.177449 0.0569211 0.0989927 ) 0 
( 0.169489 0.0350692 0.0887827 ) 0 
( 0.130997 0.00595842 0.0927488 ) 0 
( 0.167602 0.0640433 0.0990037 ) 0 
( 0.101988 0.0131654 0.0990867 ) 0 
( 0.145859 0.0435786 0.0994034 ) 0 
( 0.160831 0.0590974 0.0931605 ) 0 
( 0.147253 0.0372582 0.0995002 ) 0 
( 0.194962 0.0444327 0.0994632 ) 0 
( 0.184045 0.0753267 0.0887679 ) 0 
( 0.150675 0.0214674 0.0891607 ) 0 
( 0.132131 0.0605393 0.0994637 ) 0 
( 0.14335 0.0544395 0.0991059 ) 0 
( 0.197031 0.0304993 0.0892651 ) 0 
( 0.189553 0.0411871 0.0897961 ) 0 
( 0.103974 0.0209402 0.0913066 ) 0 
( 0.174416 0.0371635 0.0885617 ) 0 
( 0.192592 0.0362547 0.0906422 ) 0 
( 0.112151 0.0468558 0.0887771 ) 0 
( 0.120559 0.0686441 0.0891119 ) 0 
( 0.155585 0.095322 0.0990749 ) 0 
( 0.103848 0.0464496 0.0991117 ) 0 
( 0.198408 0.0510728 0.0994523 ) 0 
( 0.160828 0.070302 0.0994045 ) 0 
( 0.136767 0.0333415 0.0990308 ) 0 
( 0.130917 0.0552401 0.0896475 ) 0 
( 0.177939 0.0351739 0.0991683 ) 0 
( 0.185016 0.0834997 0.0994282 ) 0 
( 0.114113 0.0124507 0.0970661 ) 0 
( 0.197018 0.0192257 0.0888131 ) 0 
( 0.170661 0.031539 0.097315 ) 0 
( 0.17491 0.090709 0.0921622 ) 0 
( 0.129445 0.092745 0.0994415 ) 0 
( 0.177522 0.0445486 0.0895058 ) 0 
( 0.190282 0.0265656 0.0995002 ) 0 
( 0.198717 0.00302211 0.0995002 ) 0 
( 0.108249 0.00226035 0.0995002 ) 0 
( 0.19434 0.00881813 0.0886729 ) 0 
( 0.154284 0.0875429 0.0911309 ) 0 
( 0.19363 0.0445985 0.0994518 ) 0 
( 0.153601 0.0417789 0.0990115 ) 0 
( 0.145069 0.0288981 0.0995002 ) 0 
( 0.183563 0.0793914 0.0909476 ) 0 
( 0.200931 0.0721086 0.0960218 ) 0 
( 0.168985 0.0724951 0.0893079 ) 0 
( 0.127734 0.0506759 0.0889699 ) 0 
( 0.110943 0.0956812 0.0888325 ) 0 
( 0.159328 0.0251828 0.093932 ) 0 
( 0.162802 0.0137896 0.0982745 ) 0 
( 0.176304 0.066595 0.0968715 ) 0 
( 0.127387 0.0469617 0.0995005 ) 0 
( 0.143017 0.0521152 0.0995002 ) 0 
( 0.124491 0.0407712 0.0920211 ) 0 
( 0.185215 0.0566289 0.0995002 ) 0 
( 0.143356 0.036692 0.0994721 ) 0 
( 0.17393 0.026452 0.0991623 ) 0 
( 0.199336 0.0723396 0.0887408 ) 0 
( 0.149417 0.00983526 0.0891259 ) 0 
( 0.191738 0.00447203 0.0982236 ) 0 
( 0.1308 0.00384598 0.0908668 ) 0 
( 0.122235 0.0533082 0.0946193 ) 0 
( 0.151558 0.0239862 0.0903317 ) 0 
( 0.124755 0.0168972 0.0995002 ) 0 
( 0.169856 0.0982761 0.0885896 ) 0 
( 0.119712 0.0889239 0.095377 ) 0 
( 0.187426 0.0209113 0.0946623 ) 0 
( 0.136006 0.0181767 0.0995002 ) 0 
( 0.130509 0.0537247 0.0948644 ) 0 
( 0.125153 0.0748332 0.0889813 ) 0 
( 0.192128 0.0207285 0.0994691 ) 0 
( 0.121353 0.0292283 0.0923624 ) 0 
( 0.182736 0.0451924 0.0939984 ) 0 
( 0.136974 0.0524439 0.0890366 ) 0 
( 0.105752 0.0648408 0.0991973 ) 0 
( 0.158271 0.0155287 0.0995002 ) 0 
( 0.183195 0.090409 0.0891985 ) 0 
( 0.152805 0.00809686 0.0994644 ) 0 
( 0.131639 0.0533218 0.0993066 ) 0 
( 0.107956 0.0877357 0.0989898 ) 0 
( 0.167653 0.0165869 0.0990594 ) 0 
( 0.152068 0.0810661 0.0991076 ) 0 
( 0.145723 0.0233334 0.0969871 ) 0 
( 0.112678 0.0125767 0.0990785 ) 0 
( 0.115505 0.020534 0.0885415 ) 0 
( 0.188508 0.0518331 0.0972099 ) 0 
( 0.164278 0.0856778 0.0995002 ) 0 
( 0.116341 0.0839248 0.089224 ) 0 
( 0.126461 0.0814896 0.0995002 ) 0 
( 0.181212 0.0856244 0.0995002 ) 0 
( 0.131103 0.0812704 0.088959 ) 0 
( 0.144338 0.0520598 0.0995002 ) 0 
( 0.176406 0.075833 0.0902126 ) 0 
( 0.186662 0.0660875 0.0896587 ) 0 
( 0.138715 0.0244728 0.0884524 ) 0 
( 0.144155 0.0693932 0.0995002 ) 0 
( 0.105971 0.0434974 0.0958354 ) 0 
( 0.146333 0.0724796 0.0990434 ) 0 
( 0.127342 0.0932229 0.0995002 ) 0 
( 0.164576 0.0694601 0.0889185 ) 0 
( 0.109285 0.0980346 0.0993233 ) 0 
( 0.117852 0.0112261 0.0990869 ) 0 
( 0.181592 0.0823524 0.0995002 ) 0 
( 0.180113 0.0853254 0.0981302 ) 0 
( 0.126977 0.0406667 0.099486 ) 0 
( 0.143618 0.00741092 0.0958612 ) 0 
( 0.17382 0.0386185 0.0977327 ) 0 
( 0.138177 0.0845879 0.0984166 ) 0 
( 0.104234 0.0599079 0.099073 ) 0 
( 0.100953 0.0218455 0.0957712 ) 0 
( 0.192647 0.0263324 0.0991808 ) 0 
( 0.110016 0.00946237 0.090144 ) 0 
( 0.113245 0.0759084 0.0995002 ) 0 
( 0.167213 0.0785162 0.0890747 ) 0 
( 0.163663 0.0184453 0.0873719 ) 0 
( 0.112494 0.00580366 0.0927332 ) 0 
( 0.103539 0.0522504 0.0990374 ) 0 
( 0.187094 0.052573 0.0995002 ) 0 
( 0.181442 0.032344 0.0890663 ) 0 
( 0.173651 0.00644855 0.0989785 ) 0 
( 0.136694 0.0560079 0.0901588 ) 0 
( 0.197539 0.0816514 0.0887998 ) 0 
( 0.158181 0.0527976 0.0990978 ) 0 
( 0.114883 0.0794521 0.0949636 ) 0 
( 0.155503 0.0696497 0.0885039 ) 0 
( 0.153911 0.0558555 0.0973029 ) 0 
( 0.191918 0.0991542 0.099493 ) 0 
( 0.110368 0.0775127 0.0962503 ) 0 
( 0.132594 0.0316941 0.0995002 ) 0 
( 0.191977 0.0133155 0.0995002 ) 0 
( 0.112674 0.0540977 0.0895204 ) 0 
( 0.116746 0.0863451 0.0889638 ) 0 
( 0.186416 0.048973 0.0995002 ) 0 
( 0.136536 0.00415681 0.0989992 ) 0 
( 0.11429 0.014618 0.0994983 ) 0 
( 0.137403 0.0458785 0.0993838 ) 0 
( 0.154557 0.0978335 0.0995002 ) 0 
( 0.194412 0.020324 0.0994806 ) 0 
( 0.178711 0.0610152 0.0967123 ) 0 
( 0.154881 0.0378825 0.0995002 ) 0 
( 0.135707 0.095418 0.0995002 ) 0 
( 0.131484 0.0156897 0.0995002 ) 0 
( 0.156122 0.0727157 0.0896896 ) 0 
( 0.156426 0.00906751 0.0995002 ) 0 
( 0.102357 0.0413855 0.0994382 ) 0 
( 0.106022 0.0392549 0.0961047 ) 0 
( 0.142756 0.0332794 0.0897794 ) 0 
( 0.1456 0.0314929 0.088989 ) 0 
( 0.193517 0.0747728 0.0889716 ) 0 
( 0.125787 0.0330824 0.0889457 ) 0 
( 0.176697 0.0719945 0.0888664 ) 0 
( 0.181484 0.029996 0.0928299 ) 0 
( 0.138792 0.0295884 0.0995002 ) 0 
( 0.121315 0.0695509 0.0924489 ) 0 
( 0.194293 0.0280271 0.0946723 ) 0 
( 0.156885 0.000908526 0.0992396 ) 0 
( 0.149194 0.0903263 0.0880722 ) 0 
( 0.180937 0.000856838 0.0893111 ) 0 
( 0.117707 0.0311744 0.0930121 ) 0 
( 0.171055 0.0985148 0.0905521 ) 0 
( 0.186979 0.0138749 0.0995002 ) 0 
( 0.166902 0.0570248 0.0884884 ) 0 
( 0.105441 0.0152054 0.0951253 ) 0 
( 0.178525 0.01386 0.0918569 ) 0 
( 0.198091 0.0642907 0.0910966 ) 0 
( 0.184225 0.0109859 0.0909912 ) 0 
( 0.169505 0.0083073 0.0890494 ) 0 
( 0.101699 0.0286892 0.0991117 ) 0 
( 0.283172 0.0394524 0.0990817 ) 0 
( 0.238839 0.0961686 0.0890281 ) 0 
( 0.298678 0.0186143 0.0934106 ) 0 
( 0.238325 0.0523356 0.0891486 ) 0 
( 0.215296 0.0233915 0.0922488 ) 0 
( 0.205809 0.0657525 0.0892758 ) 0 
( 0.280508 0.0429022 0.0966389 ) 0 
( 0.268822 0.0267755 0.0888055 ) 0 
( 0.241443 0.0459483 0.0936562 ) 0 
( 0.212843 0.0659059 0.0993679 ) 0 
( 0.276698 0.0707849 0.0994259 ) 0 
( 0.280648 0.0230888 0.095516 ) 0 
( 0.226852 0.0419784 0.0909603 ) 0 
( 0.22707 0.0222316 0.0924223 ) 0 
( 0.215334 0.0570252 0.0878396 ) 0 
( 0.215438 0.025025 0.0995002 ) 0 
( 0.264895 0.0203152 0.0915879 ) 0 
( 0.219093 0.0210351 0.090372 ) 0 
( 0.27205 0.0130401 0.0975952 ) 0 
( 0.259687 0.090767 0.0889822 ) 0 
( 0.270209 0.0297978 0.0888809 ) 0 
( 0.243913 0.0724005 0.0902836 ) 0 
( 0.207938 0.0400986 0.0995002 ) 0 
( 0.204409 0.00314162 0.0887691 ) 0 
( 0.247892 0.0721037 0.093744 ) 0 
( 0.291092 0.0988577 0.0993805 ) 0 
( 0.284121 0.00577001 0.0990993 ) 0 
( 0.221652 0.0948513 0.0992384 ) 0 
( 0.208972 0.0876812 0.0970543 ) 0 
( 0.21909 0.0844789 0.0905602 ) 0 
( 0.215172 0.00413889 0.0965706 ) 0 
( 0.223229 0.0500692 0.0888724 ) 0 
( 0.238469 0.0910596 0.0994615 ) 0 
( 0.229847 0.0957674 0.0989907 ) 0 
( 0.25172 0.061566 0.0918164 ) 0 
( 0.269258 0.0564794 0.0929938 ) 0 
( 0.272117 0.0111749 0.0889405 ) 0 
( 0.239802 0.00725309 0.0892433 ) 0 
( 0.293095 0.0882029 0.089284 ) 0 
( 0.259728 0.0961945 0.0910081 ) 0 
( 0.282566 0.0240818 0.0914814 ) 0 
( 0.22111 0.0296729 0.0873195 ) 0 
( 0.245119 0.0415785 0.088642 ) 0 
( 0.217578 0.058307 0.0993911 ) 0 
( 0.207818 0.0364615 0.0888542 ) 0 
( 0.267559 0.00497564 0.0892692 ) 0 
( 0.277597 0.0988172 0.0888144 ) 0 
( 0.279219 0.0123505 0.0990341 ) 0 
( 0.223984 0.0402099 0.0889493 ) 0 
( 0.224027 0.0728743 0.0995002 ) 0 
( 0.280939 0.0136475 0.0989795 ) 0 
( 0.240469 0.0714732 0.0947198 ) 0 
( 0.262705 0.0161907 0.0889666 ) 0 
( 0.24516 0.0671146 0.0995002 ) 0 
( 0.269156 0.06054 0.0995002 ) 0 
( 0.239132 0.0460508 0.0990029 ) 0 
( 0.286492 0.0314035 0.0995002 ) 0 
( 0.275797 0.00650381 0.0888114 ) 0 
( 0.210353 0.0548398 0.0995002 ) 0 
( 0.282445 0.010746 0.0888212 ) 0 
( 0.22517 0.0456406 0.0994786 ) 0 
( 0.213512 0.0304184 0.0925844 ) 0 
( 0.290279 0.0518845 0.0888607 ) 0 
( 0.245927 0.0713301 0.0931661 ) 0 
( 0.216995 0.00763574 0.0901618 ) 0 
( 0.287086 0.0260639 0.0945051 ) 0 
( 0.264932 0.0346697 0.0958333 ) 0 
( 0.2284 0.0236472 0.0919198 ) 0 
( 0.290156 0.00690776 0.0995002 ) 0 
( 0.229045 0.0110826 0.0995128 ) 0 
( 0.280422 0.0844688 0.0992513 ) 0 
( 0.215334 0.0647118 0.0992654 ) 0 
( 0.290386 0.0808565 0.0959649 ) 0 
( 0.212376 0.0106404 0.0897031 ) 0 
( 0.268725 0.0905468 0.0995002 ) 0 
( 0.243221 0.0311338 0.0993843 ) 0 
( 0.239639 0.0617333 0.0948721 ) 0 
( 0.233863 0.0662412 0.0889184 ) 0 
( 0.266092 0.0801201 0.099152 ) 0 
( 0.262986 0.0760919 0.0990587 ) 0 
( 0.252526 0.0801613 0.0990021 ) 0 
( 0.263049 0.0950814 0.0899291 ) 0 
( 0.240965 0.0798333 0.097316 ) 0 
( 0.26733 0.0536625 0.0882985 ) 0 
( 0.207717 0.073294 0.0946949 ) 0 
( 0.295648 0.0885289 0.0889606 ) 0 
( 0.21302 0.052684 0.0970006 ) 0 
( 0.260507 0.0586471 0.0995006 ) 0 
( 0.231702 0.0409261 0.092129 ) 0 
( 0.270414 0.0826205 0.0890581 ) 0 
( 0.264181 0.0531262 0.0995002 ) 0 
( 0.206893 0.0121259 0.0995002 ) 0 
( 0.20216 0.0390563 0.0886251 ) 0 
( 0.276078 0.0846674 0.0891277 ) 0 
( 0.201231 0.0221994 0.0891552 ) 0 
( 0.255387 0.0940803 0.0889253 ) 0 
( 0.290658 0.0752223 0.0979287 ) 0 
( 0.213841 0.0887187 0.0995002 ) 0 
( 0.214843 0.00981989 0.0914627 ) 0 
( 0.249436 0.0185248 0.0934079 ) 0 
( 0.236314 0.0540441 0.0872393 ) 0 
( 0.248441 0.0406581 0.0925025 ) 0 
( 0.218934 0.0943699 0.098971 ) 0 
( 0.298286 0.0383269 0.0975047 ) 0 
( 0.278684 0.0813021 0.0918267 ) 0 
( 0.2793 0.0214675 0.0890385 ) 0 
( 0.281754 0.00356923 0.0995002 ) 0 
( 0.217333 0.04822 0.0908373 ) 0 
( 0.20775 0.0831575 0.0902589 ) 0 
( 0.284986 0.0252902 0.0935832 ) 0 
( 0.267371 0.0430138 0.0899466 ) 0 
( 0.277891 0.0521038 0.088286 ) 0 
( 0.252094 0.0065519 0.0889843 ) 0 
( 0.248041 0.0637742 0.0947298 ) 0 
( 0.266332 0.0849119 0.0892321 ) 0 
( 0.264467 0.0517753 0.0995002 ) 0 
( 0.231275 0.0631884 0.0882356 ) 0 
( 0.279304 0.0187356 0.0995002 ) 0 
( 0.224821 0.0135752 0.0994919 ) 0 
( 0.264231 0.0896094 0.0995016 ) 0 
( 0.223893 0.0137021 0.0991094 ) 0 
( 0.222861 0.078723 0.0995002 ) 0 
( 0.25817 0.024543 0.0995002 ) 0 
( 0.232708 0.0504152 0.0892982 ) 0 
( 0.261829 0.0260016 0.0887293 ) 0 
( 0.284146 0.0760233 0.0892331 ) 0 
( 0.252348 0.0630883 0.0995002 ) 0 
( 0.20778 0.0155944 0.0995002 ) 0 
( 0.261938 0.0986833 0.0991103 ) 0 
( 0.24068 0.0254917 0.0917244 ) 0 
( 0.284496 0.0941795 0.0989783 ) 0 
( 0.242099 0.0893504 0.0889459 ) 0 
( 0.225553 0.0663634 0.0990957 ) 0 
( 0.288216 0.0794384 0.0889791 ) 0 
( 0.276033 0.0500867 0.0882021 ) 0 
( 0.212371 0.0584121 0.0906617 ) 0 
( 0.211743 0.000515818 0.0991427 ) 0 
( 0.233772 0.0804172 0.0990254 ) 0 
( 0.248985 0.0306222 0.0992912 ) 0 
( 0.221756 0.00858351 0.096955 ) 0 
( 0.222162 0.0637201 0.0994021 ) 0 
( 0.258096 0.070165 0.0985632 ) 0 
( 0.259427 0.0982733 0.0993978 ) 0 
( 0.219435 0.0762849 0.0890567 ) 0 
( 0.209674 0.0399124 0.0995004 ) 0 
( 0.207731 0.0235773 0.0995002 ) 0 
( 0.24211 0.0598013 0.0994122 ) 0 
( 0.269654 0.00798974 0.099466 ) 0 
( 0.23936 0.0496227 0.0883007 ) 0 
( 0.297342 0.08287 0.0995002 ) 0 
( 0.204206 0.0489257 0.0995002 ) 0 
( 0.276541 0.0567928 0.0888701 ) 0 
( 0.298373 0.0959234 0.0994993 ) 0 
( 0.257388 0.0487643 0.0994936 ) 0 
( 0.261089 0.0081707 0.0890624 ) 0 
( 0.262976 0.0971137 0.0995002 ) 0 
( 0.212582 0.00408507 0.09689 ) 0 
( 0.280289 0.0537458 0.0876056 ) 0 
( 0.257231 0.0134126 0.0892288 ) 0 
( 0.280895 0.0330653 0.0904455 ) 0 
( 0.210226 0.00973296 0.0994904 ) 0 
( 0.215727 0.0303061 0.0994714 ) 0 
( 0.236895 0.0232117 0.088789 ) 0 
( 0.246705 0.0347049 0.0995002 ) 0 
( 0.286278 0.0485019 0.0990126 ) 0 
( 0.245768 0.0620238 0.091153 ) 0 
( 0.272376 0.0875201 0.0927908 ) 0 
( 0.296973 0.0665457 0.0911273 ) 0 
( 0.24647 0.0969284 0.099072 ) 0 
( 0.266264 0.00176506 0.0976655 ) 0 
( 0.231711 0.0271487 0.0995002 ) 0 
( 0.210294 0.0959927 0.0942724 ) 0 
( 0.262004 0.0406621 0.0890148 ) 0 
( 0.244551 0.0190356 0.0946 ) 0 
( 0.221944 0.0909354 0.0944506 ) 0 
( 0.276625 0.0927741 0.093862 ) 0 
( 0.279132 0.096925 0.0887432 ) 0 
( 0.281465 0.0965924 0.0904866 ) 0 
( 0.245553 0.0703272 0.0995002 ) 0 
( 0.204706 0.0227557 0.0938743 ) 0 
( 0.23881 0.0191488 0.0900454 ) 0 
( 0.26679 0.0525935 0.0921674 ) 0 
( 0.22907 0.00395444 0.0974366 ) 0 
( 0.208437 0.00606501 0.0889933 ) 0 
( 0.245182 0.0330576 0.0995002 ) 0 
( 0.236131 0.0858135 0.0992853 ) 0 
( 0.267199 0.0441024 0.0895281 ) 0 
( 0.224053 0.021424 0.0989811 ) 0 
( 0.290766 0.0348677 0.0891085 ) 0 
( 0.253445 0.0175697 0.0995002 ) 0 
( 0.231801 0.0447193 0.0995002 ) 0 
( 0.209779 0.068246 0.0995002 ) 0 
( 0.299237 0.0175602 0.0909283 ) 0 
( 0.280285 0.0770818 0.0886525 ) 0 
( 0.249694 0.0601803 0.0927561 ) 0 
( 0.244195 0.00282268 0.0910034 ) 0 
( 0.29447 0.0320015 0.0939727 ) 0 
( 0.215927 0.0220281 0.0893356 ) 0 
( 0.248062 0.0919979 0.0889891 ) 0 
( 0.238478 0.0483564 0.0892173 ) 0 
( 0.260662 0.0977207 0.0995002 ) 0 
( 0.261971 0.0496311 0.0930542 ) 0 
( 0.221004 0.058933 0.0994996 ) 0 
( 0.195182 0.0375486 0.0982116 ) 0 
( 0.262047 0.0535379 0.0889507 ) 0 
( 0.218305 0.0333058 0.0995002 ) 0 
( 0.225897 0.0156658 0.0995002 ) 0 
( 0.240658 0.00377088 0.0990704 ) 0 
( 0.247266 0.0483031 0.0993892 ) 0 
( 0.209422 0.0802826 0.0888563 ) 0 
( 0.245748 0.0216581 0.089013 ) 0 
( 0.299193 0.0767428 0.0889378 ) 0 
( 0.249422 0.0150044 0.0991628 ) 0 
( 0.21762 0.0767611 0.0891672 ) 0 
( 0.256121 0.0512488 0.0906063 ) 0 
( 0.206592 0.0776207 0.0990548 ) 0 
( 0.219227 0.00270764 0.0890144 ) 0 
( 0.252339 0.0551646 0.0994837 ) 0 
( 0.235463 0.0784316 0.0995002 ) 0 
( 0.205681 0.0168327 0.0890019 ) 0 
( 0.27804 0.00398439 0.0994864 ) 0 
( 0.203507 0.0842096 0.0889518 ) 0 
( 0.206233 0.0983304 0.0904363 ) 0 
( 0.226072 0.0376728 0.0993482 ) 0 
( 0.285801 0.01099 0.0889731 ) 0 
( 0.256475 0.0391737 0.0995002 ) 0 
( 0.207525 0.0052171 0.0994847 ) 0 
( 0.277842 0.0405871 0.092358 ) 0 
( 0.219704 0.0156952 0.0995002 ) 0 
( 0.298928 0.0202179 0.0892397 ) 0 
( 0.217766 0.084689 0.0988065 ) 0 
( 0.236169 0.0291044 0.095003 ) 0 
( 0.275649 0.00326268 0.0915676 ) 0 
( 0.202519 0.0170864 0.0990451 ) 0 
( 0.265193 0.0409079 0.092167 ) 0 
( 0.229665 0.0815705 0.0943923 ) 0 
( 0.276698 0.00743658 0.0994988 ) 0 
( 0.255925 0.0275216 0.0958064 ) 0 
( 0.234618 0.0566207 0.0891459 ) 0 
( 0.240099 0.0825326 0.0901713 ) 0 
( 0.294146 0.0508375 0.0893569 ) 0 
( 0.281705 0.0640004 0.0954672 ) 0 
( 0.216156 0.0941492 0.0990252 ) 0 
( 0.247926 0.0462535 0.0992716 ) 0 
( 0.314334 0.0941118 0.0963684 ) 0 
( 0.240347 0.0586594 0.0994976 ) 0 
( 0.267458 0.0398197 0.0942584 ) 0 
( 0.263747 0.010862 0.0947647 ) 0 
( 0.310441 0.0413494 0.0969376 ) 0 
( 0.392296 0.053693 0.0894768 ) 0 
( 0.377594 0.0817634 0.0995002 ) 0 
( 0.311215 0.0240436 0.0892853 ) 0 
( 0.319129 0.0331659 0.0889442 ) 0 
( 0.311127 0.0285933 0.0991708 ) 0 
( 0.311475 0.0336752 0.0991508 ) 0 
( 0.347689 0.0926745 0.0995002 ) 0 
( 0.350392 0.0702821 0.089776 ) 0 
( 0.386847 0.090352 0.0933174 ) 0 
( 0.318047 0.0856172 0.0987372 ) 0 
( 0.310648 0.0753889 0.0981773 ) 0 
( 0.314896 0.0846612 0.0892348 ) 0 
( 0.34383 0.0431474 0.0947299 ) 0 
( 0.335206 0.0481738 0.0951616 ) 0 
( 0.387871 0.0173661 0.0989903 ) 0 
( 0.318059 0.0467372 0.0888205 ) 0 
( 0.304977 0.0924591 0.0978213 ) 0 
( 0.331805 0.0964495 0.0903646 ) 0 
( 0.391113 0.0693603 0.0905467 ) 0 
( 0.374057 0.0382575 0.0995002 ) 0 
( 0.366078 0.0109324 0.0911091 ) 0 
( 0.373646 0.0605969 0.093372 ) 0 
( 0.341425 0.00297813 0.0953435 ) 0 
( 0.380133 0.0217316 0.0914025 ) 0 
( 0.382771 0.00712656 0.0990957 ) 0 
( 0.331243 0.0909966 0.0992224 ) 0 
( 0.385631 0.0410737 0.0887067 ) 0 
( 0.369446 0.0155026 0.0952314 ) 0 
( 0.346232 0.024433 0.0932966 ) 0 
( 0.340524 0.0446235 0.0994979 ) 0 
( 0.319189 0.0359169 0.0944276 ) 0 
( 0.308125 0.0598123 0.0992957 ) 0 
( 0.30608 0.0173638 0.0900062 ) 0 
( 0.331419 0.0434376 0.0987817 ) 0 
( 0.39486 0.0429969 0.0930715 ) 0 
( 0.333541 0.0452736 0.0887603 ) 0 
( 0.366252 0.0399128 0.0888996 ) 0 
( 0.362944 0.0250836 0.0992243 ) 0 
( 0.3441 0.0200778 0.092354 ) 0 
( 0.331465 0.0580423 0.0887269 ) 0 
( 0.314999 0.0161789 0.0890127 ) 0 
( 0.386311 0.0928214 0.0927064 ) 0 
( 0.3941 0.0696321 0.0889737 ) 0 
( 0.349617 0.0379172 0.0990377 ) 0 
( 0.345236 0.036988 0.0950498 ) 0 
( 0.350369 0.012061 0.0888431 ) 0 
( 0.363337 0.0461556 0.0901863 ) 0 
( 0.355101 0.0214913 0.0889332 ) 0 
( 0.356746 0.00146672 0.0948758 ) 0 
( 0.324546 0.050355 0.0888557 ) 0 
( 0.326751 0.0608759 0.0994696 ) 0 
( 0.376524 0.0942392 0.0942375 ) 0 
( 0.374041 0.00869541 0.0924417 ) 0 
( 0.377738 0.0972509 0.0995002 ) 0 
( 0.382013 0.0781848 0.0949269 ) 0 
( 0.377995 0.024769 0.0995002 ) 0 
( 0.317731 0.00318559 0.092129 ) 0 
( 0.323844 0.00778987 0.0899692 ) 0 
( 0.347936 0.0473521 0.0924062 ) 0 
( 0.376219 0.067945 0.094794 ) 0 
( 0.361843 0.043045 0.0950986 ) 0 
( 0.316693 0.0862644 0.0932629 ) 0 
( 0.34883 0.0273586 0.0887604 ) 0 
( 0.323296 0.099019 0.088317 ) 0 
( 0.379775 0.0361153 0.0995002 ) 0 
( 0.341542 0.0362545 0.0904366 ) 0 
( 0.321834 0.09755 0.0887272 ) 0 
( 0.294473 0.05162 0.0995002 ) 0 
( 0.327498 0.0178781 0.0989522 ) 0 
( 0.347226 0.0966964 0.0989773 ) 0 
( 0.364283 0.000875856 0.0889821 ) 0 
( 0.326304 0.036616 0.0891464 ) 0 
( 0.323306 0.0374298 0.0994874 ) 0 
( 0.307029 0.0657591 0.087314 ) 0 
( 0.385756 0.032876 0.0921903 ) 0 
( 0.388642 0.0798927 0.0959726 ) 0 
( 0.325537 0.0306852 0.089315 ) 0 