/*--------------------------------*- C++ -*----------------------------------*\
| =========                 |                                                 |
| \\      /  F ield         | OpenFOAM: The Open Source CFD Toolbox           |
|  \\    /   O peration     | Version:  2506                                  |
|   \\  /    A nd           | Website:  www.openfoam.com                      |
|    \\/     M anipulation  |                                                 |
\*---------------------------------------------------------------------------*/
FoamFile
{
    version     2.0;
    format      ascii;
    arch        "LSB;label=32;scalar=64";
    class       volVectorField;
    location    "0.06";
    object      Us;
}
// * * * * * * * * * * * * * * * * * * * * * * * * * * * * * * * * * * * * * //

dimensions      [0 1 -1 0 0 0 0];

internalField   nonuniform List<vector> 
1152
(
(-0.000519631 -0.000374959 -0.000540164)
(5.90267e-05 -0.000336847 9.14133e-05)
(2.02523e-05 5.48179e-05 -1.96642e-05)
(1.50629e-05 0.000326008 -0.00036997)
(0.000471306 0.000134908 -0.000924112)
(0.000383228 0.00038045 -0.000707277)
(-0.000181532 0.000220288 1.95482e-05)
(-0.000441928 0.000932399 -0.000251861)
(-0.000190235 0.00128299 -9.05682e-05)
(-0.000774827 0.00101684 -0.000384986)
(-0.00048106 0.000932187 -3.70816e-05)
(-0.000374223 0.00115049 -0.000900879)
(-0.00135513 0.000779257 -0.000437627)
(-0.000416075 0.000604776 -0.000466443)
(0.000428966 0.00135293 -0.000497585)
(0.000944837 0.00113952 -0.000851153)
(5.021e-05 -0.000445964 0.00358064)
(0.000322633 0.000259383 0.00261219)
(0.000109358 0.000212497 0.00298372)
(-0.000770648 0.000281651 0.00311122)
(-0.000942768 0.00128926 0.00344811)
(-0.000400986 -0.00042818 0.00414765)
(0.000215539 8.7535e-05 0.00429438)
(0.00148293 0.000781493 0.00286667)
(1.06614e-05 0.000914313 0.00177379)
(-0.000703254 0.000931445 0.00278039)
(2.56794e-05 0.000427429 0.00253923)
(7.26008e-05 0.000751404 0.00330324)
(0.000292907 0.000674353 0.00163095)
(9.95675e-05 0.00116111 0.00353154)
(-8.74375e-05 0.00156154 0.00347509)
(0.000627057 0.00108454 0.000953551)
(0.000422087 -0.000278053 0.00201334)
(0.000225636 -0.000513889 0.00274368)
(-0.000313841 -2.47177e-05 0.00277325)
(-8.45225e-05 0.000773757 0.00271648)
(-9.76281e-05 -1.50599e-05 0.00180711)
(6.51836e-06 0.000200551 0.00200846)
(0.000607342 -9.69147e-05 0.00255033)
(0.000520602 0.000628702 0.00222362)
(0.000316221 -0.000315824 0.00142778)
(0.000208978 -0.000417422 0.00186384)
(0.000134311 0.000210009 0.00204619)
(0.000471588 0.000183929 0.00163916)
(0.000461199 -0.000260799 0.00194217)
(-2.45525e-05 -0.000158708 0.00209012)
(0.000342587 -1.83298e-05 0.0026662)
(0.000967551 0.000149925 0.00202446)
(-9.02111e-05 4.02408e-05 0.00135591)
(0.000253217 -0.000272359 0.00180603)
(-0.000206017 0.000313495 0.00197176)
(8.54041e-05 0.000687326 0.00226061)
(0.00021467 -3.69144e-05 0.00160716)
(0.000102972 -0.000239734 0.00191132)
(-7.43569e-05 0.00029608 0.00197816)
(-0.000111372 7.47171e-05 0.00264781)
(0.000517365 -0.000315841 0.00185789)
(4.26522e-05 -0.000232456 0.00178724)
(2.73935e-05 -0.000177104 0.00147329)
(0.000219626 4.74481e-05 0.00198395)
(0.000457098 -0.00111811 0.00204211)
(0.000352457 -3.11796e-05 0.00188693)
(0.000125736 -0.000108427 0.00292436)
(0.000554172 -0.000427493 0.00199789)
(8.49527e-05 5.92227e-05 0.00160202)
(5.97327e-07 7.10702e-05 0.00176948)
(2.53845e-05 -6.10232e-05 0.0018495)
(-7.57594e-05 -0.000638847 0.00220198)
(4.59582e-05 -5.59986e-05 0.00174617)
(0.000121648 3.73754e-06 0.00196471)
(-5.96276e-05 -6.12267e-05 0.00189598)
(-0.000148807 0.000109995 0.00267189)
(-0.000383537 -0.000166952 0.00212014)
(-0.000289748 -0.000102052 0.00224022)
(-0.000397554 -9.62578e-05 0.00188227)
(-0.000141605 0.000206846 0.00186004)
(0.000516037 0.000421962 0.00177752)
(0.000157585 -0.000149691 0.00171547)
(0.00013982 -0.000517939 0.00172081)
(-0.000121591 -0.00052322 0.00344909)
(-0.000103684 -0.000142531 0.00168864)
(-0.000208659 5.57756e-05 0.0018016)
(-0.000273051 -2.05935e-05 0.00192827)
(-0.000267241 9.62974e-06 0.00204741)
(2.26467e-05 -0.000180591 0.00174756)
(-0.000261712 -3.66954e-05 0.00198926)
(-0.000207509 -0.000124106 0.00195767)
(-0.000239245 2.88682e-05 0.00204622)
(0.000109372 -0.000247274 0.00156502)
(-9.98975e-05 -4.13365e-05 0.00194908)
(-0.000159025 -0.000185156 0.00185125)
(-0.000310682 7.97661e-05 0.00195506)
(2.19672e-05 -6.4689e-05 0.00139304)
(1.96641e-06 -5.71434e-05 0.00146066)
(-0.000118848 -0.000191596 0.00140277)
(-0.000513761 -7.41425e-05 0.00172605)
(-0.000342522 -7.79699e-05 0.00154532)
(-0.000352338 6.21393e-05 0.00172656)
(-0.000314536 -3.243e-05 0.00183565)
(-0.000373613 -7.09934e-05 0.0020074)
(0.000103528 -0.000531259 0.0016104)
(-0.000141255 -3.39682e-05 0.00204222)
(0.000205619 -1.25553e-05 0.00210603)
(0.00048421 -0.000328223 0.00138827)
(-1.8427e-05 -0.000116144 0.00182966)
(-0.000316625 1.39272e-05 0.00183005)
(-0.000188692 6.54584e-05 0.00195936)
(-0.000267774 0.000172265 0.00173549)
(-9.85344e-06 1.92028e-05 0.00137678)
(0.000765546 8.74705e-06 0.00143603)
(-0.000303165 -3.00284e-05 0.00154647)
(-0.000429542 4.93904e-05 0.00155507)
(0 0 0)
(0 0 0)
(0 0 0)
(0 0 0)
(0 0 0)
(0 0 0)
(0 0 0)
(0 0 0)
(0 0 0)
(0 0 0)
(0 0 0)
(0 0 0)
(0 0 0)
(0 0 0)
(0 0 0)
(0 0 0)
(0 0 0)
(0 0 0)
(0 0 0)
(0 0 0)
(0 0 0)
(0 0 0)
(0 0 0)
(0 0 0)
(0 0 0)
(0 0 0)
(0 0 0)
(0 0 0)
(0 0 0)
(0 0 0)
(0 0 0)
(0 0 0)
(0 0 0)
(0 0 0)
(0 0 0)
(0 0 0)
(0 0 0)
(0 0 0)
(0 0 0)
(0 0 0)
(0 0 0)
(0 0 0)
(0 0 0)
(0 0 0)
(0 0 0)
(0 0 0)
(0 0 0)
(0 0 0)
(0 0 0)
(0 0 0)
(0 0 0)
(0 0 0)
(0 0 0)
(0 0 0)
(0 0 0)
(0 0 0)
(0 0 0)
(0 0 0)
(0 0 0)
(0 0 0)
(0 0 0)
(0 0 0)
(0 0 0)
(0 0 0)
(0 0 0)
(0 0 0)
(0 0 0)
(0 0 0)
(0 0 0)
(0 0 0)
(0 0 0)
(0 0 0)
(0 0 0)
(0 0 0)
(0 0 0)
(0 0 0)
(0 0 0)
(0 0 0)
(0 0 0)
(0 0 0)
(0 0 0)
(0 0 0)
(0 0 0)
(0 0 0)
(0 0 0)
(0 0 0)
(0 0 0)
(0 0 0)
(0 0 0)
(0 0 0)
(0 0 0)
(0 0 0)
(0 0 0)
(0 0 0)
(0 0 0)
(0 0 0)
(0 0 0)
(0 0 0)
(0 0 0)
(0 0 0)
(0 0 0)
(0 0 0)
(0 0 0)
(0 0 0)
(0 0 0)
(0 0 0)
(0 0 0)
(0 0 0)
(0 0 0)
(0 0 0)
(0 0 0)
(0 0 0)
(0 0 0)
(0 0 0)
(0 0 0)
(0 0 0)
(0 0 0)
(0 0 0)
(0 0 0)
(0 0 0)
(0 0 0)
(0 0 0)
(0 0 0)
(0 0 0)
(0 0 0)
(0 0 0)
(0 0 0)
(0 0 0)
(0 0 0)
(0 0 0)
(0 0 0)
(0 0 0)
(0 0 0)
(0 0 0)
(0 0 0)
(0 0 0)
(0 0 0)
(0 0 0)
(0 0 0)
(0 0 0)
(0 0 0)
(0 0 0)
(0 0 0)
(0 0 0)
(0 0 0)
(0 0 0)
(0 0 0)
(0 0 0)
(0 0 0)
(0 0 0)
(0 0 0)
(0 0 0)
(0 0 0)
(0 0 0)
(0 0 0)
(0 0 0)
(0 0 0)
(0 0 0)
(0 0 0)
(0 0 0)
(0 0 0)
(0 0 0)
(0 0 0)
(0 0 0)
(0 0 0)
(0 0 0)
(0 0 0)
(0 0 0)
(0 0 0)
(0 0 0)
(0 0 0)
(0 0 0)
(0 0 0)
(0 0 0)
(0 0 0)
(0 0 0)
(0 0 0)
(0 0 0)
(0 0 0)
(0 0 0)
(0 0 0)
(0 0 0)
(0 0 0)
(0 0 0)
(0 0 0)
(0 0 0)
(0 0 0)
(0 0 0)
(0 0 0)
(0 0 0)
(0 0 0)
(0 0 0)
(0 0 0)
(0 0 0)
(0 0 0)
(0 0 0)
(0 0 0)
(0 0 0)
(0 0 0)
(0 0 0)
(0 0 0)
(0 0 0)
(0 0 0)
(0 0 0)
(0 0 0)
(0 0 0)
(0 0 0)
(0 0 0)
(0 0 0)
(0 0 0)
(0 0 0)
(0 0 0)
(0 0 0)
(0 0 0)
(0 0 0)
(0 0 0)
(0 0 0)
(0 0 0)
(0 0 0)
(0 0 0)
(0 0 0)
(0 0 0)
(0 0 0)
(0 0 0)
(0 0 0)
(0 0 0)
(0 0 0)
(0 0 0)
(0 0 0)
(0 0 0)
(0 0 0)
(0 0 0)
(0 0 0)
(0 0 0)
(0 0 0)
(0 0 0)
(0 0 0)
(0 0 0)
(0 0 0)
(0 0 0)
(0 0 0)
(0 0 0)
(0 0 0)
(0 0 0)
(0 0 0)
(0 0 0)
(0 0 0)
(0 0 0)
(0 0 0)
(0 0 0)
(0 0 0)
(0 0 0)
(0 0 0)
(0 0 0)
(0 0 0)
(0 0 0)
(0 0 0)
(0 0 0)
(0 0 0)
(0 0 0)
(0 0 0)
(0 0 0)
(0 0 0)
(0 0 0)
(0 0 0)
(0 0 0)
(0 0 0)
(0 0 0)
(0 0 0)
(0 0 0)
(0 0 0)
(0 0 0)
(-0.000360956 0.000169263 0.000259874)
(-0.000855081 0.000969576 0.000166579)
(0.000311224 0.000115348 -6.63438e-06)
(0.000623179 0.000727617 -0.000168918)
(-0.000365578 0.000154847 9.56505e-05)
(-0.000465238 0.000271679 -0.000297264)
(-0.000422857 -0.000205005 -0.000270594)
(-0.00060604 0.000615211 -0.000362481)
(-0.000426483 5.15693e-05 -0.000134102)
(-0.000517414 0.00025181 -0.000462636)
(-2.02289e-05 -0.000373751 -0.000358507)
(-1.17063e-05 7.60061e-05 0.000301869)
(0.000161755 0.000150855 -8.97426e-05)
(-0.000300163 0.000264251 -0.000442112)
(0.000432107 3.14786e-05 -0.000359078)
(0.000555625 0.000420993 -0.000385666)
(2.87512e-05 -0.000277116 0.00271151)
(0.000439655 0.00133578 0.00501986)
(0.000777749 0.000837556 0.0021357)
(0.00125381 0.000804575 0.00158354)
(0.000145498 0.000234723 0.00150602)
(-1.41614e-05 0.000201519 0.0016644)
(0.000267919 -2.74573e-05 0.00154009)
(0.00118475 -0.000132221 0.00235191)
(0.000212313 0.000176602 0.000724237)
(-0.000164732 -8.06807e-05 0.00258562)
(-9.40627e-05 -0.000215175 0.00202516)
(0.000814338 -0.000110995 0.00357861)
(0.000123037 4.98667e-05 0.00158153)
(0.000755226 -2.97503e-05 0.00284568)
(0.000455015 0.000346735 0.00281981)
(0.000382552 -3.94201e-06 0.00218113)
(0.000470984 0.000454435 0.00263332)
(0.000198853 -0.000323809 0.00273941)
(0.000838787 0.000541352 0.00205415)
(0.000890207 0.000164705 0.0021102)
(0.000955292 -0.000226401 0.0017578)
(-0.000204274 0.000114866 0.00196302)
(9.15782e-05 0.000491515 0.00194084)
(0.000349755 0.000663764 0.00300748)
(0.000873871 0.000112322 0.0020151)
(-0.000439351 -3.67521e-05 0.00249438)
(-2.32268e-05 -0.000128736 0.00132819)
(-5.45994e-05 0.000262382 0.0023233)
(0.000588311 0.000458695 0.00193565)
(0.000221173 0.000114247 0.00226858)
(-0.000124324 0.000371804 0.00413554)
(0.000696602 -2.899e-05 0.00281536)
(0.00137893 0.00160878 0.0027912)
(0.000776649 -0.000183261 0.00199464)
(-0.000139711 0.000897556 0.00266783)
(0.000206535 -6.27025e-05 0.00194171)
(0.000640611 0.000369755 0.00164406)
(0.000838569 0.0001861 0.00147938)
(0.000694946 0.000521447 0.00187068)
(0.000322461 0.000159307 0.00250407)
(0.000417228 0.000139928 0.00282396)
(0.000473849 -0.000145231 0.00227874)
(0.000467548 0.000385526 0.00245794)
(0.000226501 0.000204562 0.00171182)
(0.000189946 -0.000127818 0.00184874)
(0.000247083 0.000138514 0.00135633)
(-1.96535e-05 0.000151367 0.00348915)
(0.000571696 0.000137517 0.00235377)
(-0.000132247 0.000216587 0.00208669)
(0.000244256 -0.000136663 0.00141684)
(0.000124873 -0.000257089 0.00161938)
(-0.000183151 -0.000181269 0.00219854)
(0.000667693 -3.30197e-05 0.00142745)
(0.00100057 -2.48219e-05 0.00189298)
(0.000592844 0.000201451 0.00247733)
(5.81658e-05 4.14334e-05 0.00161392)
(0.000550677 -0.000174699 0.00128215)
(0.000645264 -0.000213582 0.0013164)
(0.000553917 -0.000637758 0.0019626)
(-0.000363907 9.00665e-05 0.0010261)
(0.000154735 2.56942e-05 0.00131094)
(0.000445524 1.59839e-05 0.00111559)
(-0.000297603 -0.000216445 0.00239304)
(-0.000525813 -0.000111404 0.00175258)
(-0.000162939 -1.40003e-05 0.00159749)
(0.000285073 -8.92242e-05 0.00148469)
(-0.000115677 -7.67849e-05 0.00148563)
(-0.000176044 6.22153e-06 0.00177084)
(0.000311529 -0.000180444 0.000983441)
(0.000183118 1.92204e-05 0.00126161)
(0.000151681 0.000141203 0.00145479)
(0.000102243 0.000343321 0.00133303)
(7.96226e-05 -6.58087e-05 0.000692508)
(0.000227506 2.41268e-05 0.000512876)
(0.000370107 5.68185e-05 0.000646826)
(0.000207706 0.000152185 0.000968454)
(-7.05217e-07 4.6465e-05 0.000432371)
(2.66068e-06 -7.10262e-05 0.000484181)
(-0.00136958 -0.0006081 0.000103871)
(0.000247959 -1.16654e-05 0.000887843)
(6.6449e-05 -1.33208e-06 0.00116825)
(0.000721207 6.37839e-05 0.00158442)
(0.000154131 -0.000395852 0.00141421)
(-0.000297657 0.000218918 0.00130438)
(0.000176584 0.00010204 0.000924647)
(-0.000182279 0.000272941 0.00102881)
(-0.000390501 -7.68003e-05 0.000787162)
(-0.000383835 0.000143741 0.00102122)
(5.74781e-05 0.000109163 0.000560099)
(-0.00012259 0.000142771 0.000466085)
(2.79538e-05 0.000327404 0.000405927)
(0.00304393 -0.00430302 -0.0026497)
(-0.000134233 -9.87854e-06 0.000396437)
(2.36394e-05 8.58668e-06 2.50906e-05)
(-0.00475866 -0.00187736 -0.00221308)
(0.000291682 0.000189413 0.000445579)
(0 0 0)
(0 0 0)
(0 0 0)
(0 0 0)
(0 0 0)
(0 0 0)
(0 0 0)
(0 0 0)
(0 0 0)
(0 0 0)
(0 0 0)
(0 0 0)
(0 0 0)
(0 0 0)
(0 0 0)
(0 0 0)
(0 0 0)
(0 0 0)
(0 0 0)
(0 0 0)
(0 0 0)
(0 0 0)
(0 0 0)
(0 0 0)
(0 0 0)
(0 0 0)
(0 0 0)
(0 0 0)
(0 0 0)
(0 0 0)
(0 0 0)
(0 0 0)
(0 0 0)
(0 0 0)
(0 0 0)
(0 0 0)
(0 0 0)
(0 0 0)
(0 0 0)
(0 0 0)
(0 0 0)
(0 0 0)
(0 0 0)
(0 0 0)
(0 0 0)
(0 0 0)
(0 0 0)
(0 0 0)
(0 0 0)
(0 0 0)
(0 0 0)
(0 0 0)
(0 0 0)
(0 0 0)
(0 0 0)
(0 0 0)
(0 0 0)
(0 0 0)
(0 0 0)
(0 0 0)
(0 0 0)
(0 0 0)
(0 0 0)
(0 0 0)
(0 0 0)
(0 0 0)
(0 0 0)
(0 0 0)
(0 0 0)
(0 0 0)
(0 0 0)
(0 0 0)
(0 0 0)
(0 0 0)
(0 0 0)
(0 0 0)
(0 0 0)
(0 0 0)
(0 0 0)
(0 0 0)
(0 0 0)
(0 0 0)
(0 0 0)
(0 0 0)
(0 0 0)
(0 0 0)
(0 0 0)
(0 0 0)
(0 0 0)
(0 0 0)
(0 0 0)
(0 0 0)
(0 0 0)
(0 0 0)
(0 0 0)
(0 0 0)
(0 0 0)
(0 0 0)
(0 0 0)
(0 0 0)
(0 0 0)
(0 0 0)
(0 0 0)
(0 0 0)
(0 0 0)
(0 0 0)
(0 0 0)
(0 0 0)
(0 0 0)
(0 0 0)
(0 0 0)
(0 0 0)
(0 0 0)
(0 0 0)
(0 0 0)
(0 0 0)
(0 0 0)
(0 0 0)
(0 0 0)
(0 0 0)
(0 0 0)
(0 0 0)
(0 0 0)
(0 0 0)
(0 0 0)
(0 0 0)
(0 0 0)
(0 0 0)
(0 0 0)
(0 0 0)
(0 0 0)
(0 0 0)
(0 0 0)
(0 0 0)
(0 0 0)
(0 0 0)
(0 0 0)
(0 0 0)
(0 0 0)
(0 0 0)
(0 0 0)
(0 0 0)
(0 0 0)
(0 0 0)
(0 0 0)
(0 0 0)
(0 0 0)
(0 0 0)
(0 0 0)
(0 0 0)
(0 0 0)
(0 0 0)
(0 0 0)
(0 0 0)
(0 0 0)
(0 0 0)
(0 0 0)
(0 0 0)
(0 0 0)
(0 0 0)
(0 0 0)
(0 0 0)
(0 0 0)
(0 0 0)
(0 0 0)
(0 0 0)
(0 0 0)
(0 0 0)
(0 0 0)
(0 0 0)
(0 0 0)
(0 0 0)
(0 0 0)
(0 0 0)
(0 0 0)
(0 0 0)
(0 0 0)
(0 0 0)
(0 0 0)
(0 0 0)
(0 0 0)
(0 0 0)
(0 0 0)
(0 0 0)
(0 0 0)
(0 0 0)
(0 0 0)
(0 0 0)
(0 0 0)
(0 0 0)
(0 0 0)
(0 0 0)
(0 0 0)
(0 0 0)
(0 0 0)
(0 0 0)
(0 0 0)
(0 0 0)
(0 0 0)
(0 0 0)
(0 0 0)
(0 0 0)
(0 0 0)
(0 0 0)
(0 0 0)
(0 0 0)
(0 0 0)
(0 0 0)
(0 0 0)
(0 0 0)
(0 0 0)
(0 0 0)
(0 0 0)
(0 0 0)
(0 0 0)
(0 0 0)
(0 0 0)
(0 0 0)
(0 0 0)
(0 0 0)
(0 0 0)
(0 0 0)
(0 0 0)
(0 0 0)
(0 0 0)
(0 0 0)
(0 0 0)
(0 0 0)
(0 0 0)
(0 0 0)
(0 0 0)
(0 0 0)
(0 0 0)
(0 0 0)
(0 0 0)
(0 0 0)
(0 0 0)
(0 0 0)
(0 0 0)
(0 0 0)
(0 0 0)
(0 0 0)
(0 0 0)
(0 0 0)
(0 0 0)
(0 0 0)
(0 0 0)
(0 0 0)
(0 0 0)
(0 0 0)
(0 0 0)
(0 0 0)
(0 0 0)
(0 0 0)
(0 0 0)
(0 0 0)
(0 0 0)
(0 0 0)
(0 0 0)
(0 0 0)
(0 0 0)
(0 0 0)
(0 0 0)
(0 0 0)
(0 0 0)
(0 0 0)
(0 0 0)
(0 0 0)
(0 0 0)
(0 0 0)
(0 0 0)
(0 0 0)
(0.000106526 0.000174271 0.000101177)
(5.89154e-05 0.00055744 0.000158306)
(-0.000740601 0.000267173 0.000243874)
(-0.000892047 0.000525776 -0.000480676)
(6.29537e-05 -9.14929e-05 -0.000408699)
(-0.000675846 0.000345535 7.19564e-05)
(-0.000893136 -5.79591e-05 2.56518e-05)
(-0.000112737 0.000871829 -0.000652901)
(0.000373225 0.000329174 -0.000257961)
(-0.000378614 0.000219683 0.000350691)
(-9.09138e-05 -0.000940543 -0.000445562)
(-0.000440709 -0.00014778 -0.000630343)
(0.000253789 0.000330342 -0.000146163)
(2.39561e-05 -1.74453e-05 3.05717e-05)
(-0.000216065 -0.000254664 0.000157693)
(-0.000514124 -0.000113058 2.12539e-05)
(-0.000237191 -0.000483451 0.00155494)
(-0.000909441 -0.000146404 0.00223045)
(-0.000332718 -0.000501182 0.00230862)
(-0.000507716 -0.000157268 0.00160829)
(-6.41693e-05 -0.000245994 0.000823923)
(-0.000914075 -0.000716952 0.00366364)
(-0.00152845 -0.00132826 0.0030449)
(-0.000420325 0.00044466 0.000972336)
(-0.000809292 -0.00100888 0.00304539)
(-0.000780154 -0.00048745 0.00365161)
(-0.00116082 9.84511e-05 0.00102724)
(-0.000965076 0.000480894 0.00150909)
(-0.000242702 -0.000358898 0.00414208)
(-0.000270217 8.0911e-05 0.00137467)
(-0.000255586 6.7928e-05 0.00321589)
(-0.000178641 0.000552674 0.00146908)
(0.000152315 0.00200319 0.00435161)
(-0.000131863 0.000126258 0.00198767)
(9.98004e-05 -0.000460821 0.00224016)
(0.00075863 -0.000283598 0.00190532)
(-0.00112371 -0.000577319 0.0052751)
(-0.00105351 6.36136e-05 0.00414995)
(0.000604463 -0.000490827 0.00257318)
(0.00071756 0.000354971 0.00135957)
(-0.000298903 -0.000288458 0.00194235)
(0.000565855 -0.000993918 0.00350702)
(0.000526533 0.000359665 0.00183685)
(6.12396e-05 0.000375098 0.00125146)
(0.000163518 -0.000487788 0.00260043)
(0.00135854 0.000735419 0.00208811)
(0.00124011 0.000625819 0.00252263)
(0.000405724 4.21375e-05 0.00263859)
(0.000120433 -0.000926917 0.002544)
(0.000850011 -0.000283139 0.00204737)
(0.000943287 6.69358e-05 0.001315)
(0.000223291 -0.000219812 0.00127002)
(0.000494932 0.000884607 0.00501592)
(0.000567284 0.000172271 0.00135873)
(-0.000208331 -4.5548e-06 0.00124552)
(0.000416484 0.000303566 0.0015612)
(0.000677088 0.000568631 0.00168748)
(0.00152148 -0.000168379 0.00227888)
(0.000600828 0.000140125 0.00190278)
(0.000509091 -9.47842e-05 0.0014675)
(0.000115967 0.000523122 0.00101896)
(0.000394316 0.000124519 0.00108354)
(0.000944093 9.64782e-05 0.00151774)
(0.00106034 0.0002651 0.00193395)
(4.06542e-05 -0.000101351 0.00133032)
(0.000304373 -0.000393397 0.00145706)
(1.57787e-05 -0.00018145 0.00148365)
(0.000282741 -9.96478e-05 0.00152554)
(0.000166082 -0.000203345 0.00176809)
(0.000789554 -0.000651142 0.00243916)
(2.59549e-05 -2.07168e-05 0.00138682)
(5.38492e-05 -5.75409e-05 0.00140142)
(0.000314454 0.000675954 0.00121771)
(0.000394719 -3.82803e-05 0.000951992)
(0.000130189 -1.01432e-05 0.00139011)
(-4.3548e-05 -0.000228034 0.00158277)
(0.000164942 -2.74816e-06 0.000878557)
(0.000100925 -0.000127788 0.000676612)
(0.00037068 -3.237e-05 0.00155229)
(0.00042453 5.98856e-05 0.00183178)
(0.000296905 -0.000143424 0.000667698)
(5.09979e-05 0.00018438 0.000957624)
(-0.000135673 0.000263089 0.00156017)
(-7.11048e-05 7.76861e-05 0.00168385)
(0.000138652 -9.13855e-05 8.86525e-05)
(0.000253655 1.5739e-05 0.00090912)
(0.000204314 -2.2116e-05 0.00136717)
(8.11608e-05 -9.14091e-05 0.00163786)
(2.88715e-05 -9.52406e-05 0.000293942)
(0.00039699 0.000152227 0.000865874)
(0.000206247 -0.000105085 0.0012468)
(0.000137484 -0.000191392 0.00138034)
(9.99722e-05 0.000175395 0.000271871)
(0.000277261 0.000250673 0.000556951)
(-6.97473e-05 -0.000147376 0.000777219)
(0.000107043 -0.000200162 0.00112036)
(0.000104695 0.000509919 4.12288e-05)
(-0.000227478 0.000197692 0.000815092)
(-0.000408512 0.000171726 0.00126935)
(-0.000246025 -0.000236554 0.0015633)
(3.91649e-05 1.0501e-05 6.55492e-05)
(0.000323472 0.000255393 0.000437678)
(-0.000140139 0.000220083 0.00144798)
(-0.000176451 0.000198983 0.00168749)
(2.59702e-05 -7.32807e-05 -7.08382e-05)
(0.00014019 0.000194287 0.000513948)
(0.000342953 0.000252637 0.00119275)
(0.000110641 3.3652e-05 0.00156826)
(8.45432e-05 8.75349e-05 0.00022825)
(5.70123e-05 0.00032981 0.000416051)
(3.56284e-05 0.00018618 0.000717902)
(-0.000180392 -0.000264931 0.00099134)
(0 0 0)
(0 0 0)
(0 0 0)
(0 0 0)
(0 0 0)
(0 0 0)
(0 0 0)
(0 0 0)
(0 0 0)
(0 0 0)
(0 0 0)
(0 0 0)
(0 0 0)
(0 0 0)
(0 0 0)
(0 0 0)
(0 0 0)
(0 0 0)
(0 0 0)
(0 0 0)
(0 0 0)
(0 0 0)
(0 0 0)
(0 0 0)
(0 0 0)
(0 0 0)
(0 0 0)
(0 0 0)
(0 0 0)
(0 0 0)
(0 0 0)
(0 0 0)
(0 0 0)
(0 0 0)
(0 0 0)
(0 0 0)
(0 0 0)
(0 0 0)
(0 0 0)
(0 0 0)
(0 0 0)
(0 0 0)
(0 0 0)
(0 0 0)
(0 0 0)
(0 0 0)
(0 0 0)
(0 0 0)
(0 0 0)
(0 0 0)
(0 0 0)
(0 0 0)
(0 0 0)
(0 0 0)
(0 0 0)
(0 0 0)
(0 0 0)
(0 0 0)
(0 0 0)
(0 0 0)
(0 0 0)
(0 0 0)
(0 0 0)
(0 0 0)
(0 0 0)
(0 0 0)
(0 0 0)
(0 0 0)
(0 0 0)
(0 0 0)
(0 0 0)
(0 0 0)
(0 0 0)
(0 0 0)
(0 0 0)
(0 0 0)
(0 0 0)
(0 0 0)
(0 0 0)
(0 0 0)
(0 0 0)
(0 0 0)
(0 0 0)
(0 0 0)
(0 0 0)
(0 0 0)
(0 0 0)
(0 0 0)
(0 0 0)
(0 0 0)
(0 0 0)
(0 0 0)
(0 0 0)
(0 0 0)
(0 0 0)
(0 0 0)
(0 0 0)
(0 0 0)
(0 0 0)
(0 0 0)
(0 0 0)
(0 0 0)
(0 0 0)
(0 0 0)
(0 0 0)
(0 0 0)
(0 0 0)
(0 0 0)
(0 0 0)
(0 0 0)
(0 0 0)
(0 0 0)
(0 0 0)
(0 0 0)
(0 0 0)
(0 0 0)
(0 0 0)
(0 0 0)
(0 0 0)
(0 0 0)
(0 0 0)
(0 0 0)
(0 0 0)
(0 0 0)
(0 0 0)
(0 0 0)
(0 0 0)
(0 0 0)
(0 0 0)
(0 0 0)
(0 0 0)
(0 0 0)
(0 0 0)
(0 0 0)
(0 0 0)
(0 0 0)
(0 0 0)
(0 0 0)
(0 0 0)
(0 0 0)
(0 0 0)
(0 0 0)
(0 0 0)
(0 0 0)
(0 0 0)
(0 0 0)
(0 0 0)
(0 0 0)
(0 0 0)
(0 0 0)
(0 0 0)
(0 0 0)
(0 0 0)
(0 0 0)
(0 0 0)
(0 0 0)
(0 0 0)
(0 0 0)
(0 0 0)
(0 0 0)
(0 0 0)
(0 0 0)
(0 0 0)
(0 0 0)
(0 0 0)
(0 0 0)
(0 0 0)
(0 0 0)
(0 0 0)
(0 0 0)
(0 0 0)
(0 0 0)
(0 0 0)
(0 0 0)
(0 0 0)
(0 0 0)
(0 0 0)
(0 0 0)
(0 0 0)
(0 0 0)
(0 0 0)
(0 0 0)
(0 0 0)
(0 0 0)
(0 0 0)
(0 0 0)
(0 0 0)
(0 0 0)
(0 0 0)
(0 0 0)
(0 0 0)
(0 0 0)
(0 0 0)
(0 0 0)
(0 0 0)
(0 0 0)
(0 0 0)
(0 0 0)
(0 0 0)
(0 0 0)
(0 0 0)
(0 0 0)
(0 0 0)
(0 0 0)
(0 0 0)
(0 0 0)
(0 0 0)
(0 0 0)
(0 0 0)
(0 0 0)
(0 0 0)
(0 0 0)
(0 0 0)
(0 0 0)
(0 0 0)
(0 0 0)
(0 0 0)
(0 0 0)
(0 0 0)
(0 0 0)
(0 0 0)
(0 0 0)
(0 0 0)
(0 0 0)
(0 0 0)
(0 0 0)
(0 0 0)
(0 0 0)
(0 0 0)
(0 0 0)
(0 0 0)
(0 0 0)
(0 0 0)
(0 0 0)
(0 0 0)
(0 0 0)
(0 0 0)
(0 0 0)
(0 0 0)
(0 0 0)
(0 0 0)
(0 0 0)
(0 0 0)
(0 0 0)
(0 0 0)
(0 0 0)
(0 0 0)
(0 0 0)
(0 0 0)
(0 0 0)
(0 0 0)
(0 0 0)
(0 0 0)
(0 0 0)
(0 0 0)
(0 0 0)
(0 0 0)
(0 0 0)
(0 0 0)
(0 0 0)
(0 0 0)
(0 0 0)
(0 0 0)
(0 0 0)
(0 0 0)
(0 0 0)
(0 0 0)
(0 0 0)
(0 0 0)
(0 0 0)
(0 0 0)
(0 0 0)
)
;

boundaryField
{
    inlet
    {
        type            zeroGradient;
    }
    outlet
    {
        type            zeroGradient;
    }
    wall
    {
        type            zeroGradient;
    }
    procBoundary2to0
    {
        type            processor;
        value           nonuniform List<vector> 
192
(
(-0.000611097 3.7066e-05 -0.000274922)
(-0.00106472 -0.000342596 -0.00059103)
(-0.000189453 9.55389e-05 5.20419e-05)
(-0.000108314 0.000243341 -0.000339664)
(-0.00179899 -0.00123608 0.00361682)
(-0.00109548 -0.000656006 0.00307949)
(0.000748873 -0.000484372 0.00224697)
(0.000379023 -0.00115091 0.00216666)
(4.96906e-05 0.000128233 0.00246912)
(0.000255213 -0.00025286 0.00185498)
(-2.51252e-05 -0.000601581 0.00187978)
(-0.000159807 -0.000110554 0.00222745)
(0.000346827 -0.000524731 0.00255451)
(9.43911e-05 -0.00013697 0.00170222)
(7.26669e-05 -0.000200567 0.0018419)
(-0.00027978 7.95001e-05 0.00201561)
(7.00698e-05 8.50603e-05 0.00151767)
(-2.68291e-05 -0.000178533 0.00176324)
(-4.48667e-05 4.99747e-05 0.00176229)
(-0.000134025 0.000144576 0.00180959)
(-7.21435e-05 6.1871e-05 0.0012031)
(-0.000135504 2.08544e-05 0.00162655)
(-0.00030775 4.065e-05 0.00194726)
(-0.000248945 0.000298781 0.00216597)
(-0.000233812 -7.55804e-05 0.00134799)
(-0.000402907 -1.09174e-05 0.00163885)
(-0.000777058 -1.92289e-06 0.00181596)
(-0.00110246 2.3775e-05 0.00183478)
(0 0 0)
(0 0 0)
(0 0 0)
(0 0 0)
(0 0 0)
(0 0 0)
(0 0 0)
(0 0 0)
(0 0 0)
(0 0 0)
(0 0 0)
(0 0 0)
(0 0 0)
(0 0 0)
(0 0 0)
(0 0 0)
(0 0 0)
(0 0 0)
(0 0 0)
(0 0 0)
(0 0 0)
(0 0 0)
(0 0 0)
(0 0 0)
(0 0 0)
(0 0 0)
(0 0 0)
(0 0 0)
(0 0 0)
(0 0 0)
(0 0 0)
(0 0 0)
(0 0 0)
(0 0 0)
(0 0 0)
(0 0 0)
(0 0 0)
(0 0 0)
(0 0 0)
(0 0 0)
(0 0 0)
(0 0 0)
(0 0 0)
(0 0 0)
(0 0 0)
(0 0 0)
(0 0 0)
(0 0 0)
(0 0 0)
(0 0 0)
(0 0 0)
(0 0 0)
(0 0 0)
(0 0 0)
(0 0 0)
(0 0 0)
(0 0 0)
(0 0 0)
(0 0 0)
(0 0 0)
(0 0 0)
(0 0 0)
(0 0 0)
(0 0 0)
(0 0 0)
(0 0 0)
(0 0 0)
(0 0 0)
(0.000116552 -0.000173072 -7.82663e-05)
(0.000138764 0.00027775 -2.32088e-05)
(-0.000167672 8.46658e-05 5.50924e-05)
(6.17612e-06 8.95467e-05 -0.000396937)
(0.000361128 0.000447184 0.00136552)
(0.000103526 -0.000148302 0.000820119)
(-0.000522059 1.4819e-05 0.00103386)
(-0.00104487 -0.000323362 0.00233618)
(0.000664297 0.00064432 0.00148267)
(0.000361502 0.000250001 0.000984352)
(9.5314e-08 -4.04827e-05 0.001616)
(-0.000133504 -0.000961418 0.00235935)
(0.000131099 -0.000331653 0.00126338)
(0.000363166 7.73792e-05 0.00100837)
(0.000534702 -0.00040582 0.00216492)
(0.000514282 -0.000100758 0.00160372)
(9.95074e-05 -4.28263e-05 0.00142605)
(0.000298428 6.10829e-05 0.000792422)
(0.000307837 0.000252565 0.00135288)
(0.000287423 0.000123165 0.00140686)
(0.000223117 0.000403388 7.09679e-05)
(9.72411e-05 -0.000150844 0.000801761)
(-6.76539e-05 0.000153883 0.0010679)
(-0.000135215 0.00024542 0.00130441)
(-0.000763191 0.000512938 -0.00030553)
(-0.000818677 0.000848641 0.00037263)
(-0.00055288 2.75854e-05 0.000662267)
(-0.00037072 -0.000168707 0.00129216)
(0 0 0)
(0 0 0)
(0 0 0)
(0 0 0)
(0 0 0)
(0 0 0)
(0 0 0)
(0 0 0)
(0 0 0)
(0 0 0)
(0 0 0)
(0 0 0)
(0 0 0)
(0 0 0)
(0 0 0)
(0 0 0)
(0 0 0)
(0 0 0)
(0 0 0)
(0 0 0)
(0 0 0)
(0 0 0)
(0 0 0)
(0 0 0)
(0 0 0)
(0 0 0)
(0 0 0)
(0 0 0)
(0 0 0)
(0 0 0)
(0 0 0)
(0 0 0)
(0 0 0)
(0 0 0)
(0 0 0)
(0 0 0)
(0 0 0)
(0 0 0)
(0 0 0)
(0 0 0)
(0 0 0)
(0 0 0)
(0 0 0)
(0 0 0)
(0 0 0)
(0 0 0)
(0 0 0)
(0 0 0)
(0 0 0)
(0 0 0)
(0 0 0)
(0 0 0)
(0 0 0)
(0 0 0)
(0 0 0)
(0 0 0)
(0 0 0)
(0 0 0)
(0 0 0)
(0 0 0)
(0 0 0)
(0 0 0)
(0 0 0)
(0 0 0)
(0 0 0)
(0 0 0)
(0 0 0)
(0 0 0)
)
;
    }
    procBoundary2to3
    {
        type            processor;
        value           nonuniform List<vector> 
192
(
(0.000451168 0.000720572 -0.000349758)
(0.0005292 0.000323318 1.48076e-05)
(0.00113473 0.000573838 -0.00082346)
(0.000685166 0.000767257 -0.000544316)
(-0.000219768 -5.20695e-05 0.0025927)
(0.00099468 -0.00070674 0.00283633)
(0.000932748 0.000936158 0.00322511)
(0.00133195 0.00105012 0.0041881)
(-0.000630126 -0.000340656 0.00315752)
(-0.000151108 0.000195744 0.00322862)
(0.000777704 -5.62461e-05 0.00227135)
(0.000763258 0.000321004 0.00257695)
(-0.000252606 0.000238364 0.00248682)
(-0.000295227 0.000420617 0.00316743)
(0.000441277 -0.000163382 0.00228384)
(0.000352677 -2.69659e-05 0.00225272)
(-1.67307e-05 0.000162294 0.00198141)
(-0.000236811 0.000132006 0.00219308)
(-5.46254e-05 0.000119271 0.00225621)
(-0.00013307 -0.000101248 0.00238312)
(-0.0002471 0.000253828 0.00199331)
(-0.000158353 0.000144552 0.00224441)
(-0.000193702 2.928e-05 0.00222807)
(-0.000429749 -0.000134188 0.00199506)
(-0.00016807 5.87459e-05 0.00194288)
(-0.000147122 3.50295e-05 0.00209154)
(-0.000310551 0.000103363 0.00215739)
(-0.000532964 7.85813e-05 0.00183522)
(0 0 0)
(0 0 0)
(0 0 0)
(0 0 0)
(0 0 0)
(0 0 0)
(0 0 0)
(0 0 0)
(0 0 0)
(0 0 0)
(0 0 0)
(0 0 0)
(0 0 0)
(0 0 0)
(0 0 0)
(0 0 0)
(0 0 0)
(0 0 0)
(0 0 0)
(0 0 0)
(0 0 0)
(0 0 0)
(0 0 0)
(0 0 0)
(0 0 0)
(0 0 0)
(0 0 0)
(0 0 0)
(0 0 0)
(0 0 0)
(0 0 0)
(0 0 0)
(0 0 0)
(0 0 0)
(0 0 0)
(0 0 0)
(0 0 0)
(0 0 0)
(0 0 0)
(0 0 0)
(0 0 0)
(0 0 0)
(0 0 0)
(0 0 0)
(0 0 0)
(0 0 0)
(0 0 0)
(0 0 0)
(0 0 0)
(0 0 0)
(0 0 0)
(0 0 0)
(0 0 0)
(0 0 0)
(0 0 0)
(0 0 0)
(0 0 0)
(0 0 0)
(0 0 0)
(0 0 0)
(0 0 0)
(0 0 0)
(0 0 0)
(0 0 0)
(0 0 0)
(0 0 0)
(0 0 0)
(0 0 0)
(0.000816574 0.000522602 0.00032612)
(0.000407864 0.000396553 -0.000291724)
(7.05822e-05 -5.54637e-05 -5.84163e-05)
(-0.000209112 -0.000105022 0.000107519)
(0.000491088 0.000823529 0.0031543)
(0.000338266 0.000544534 0.0022249)
(0.000179023 0.000561484 0.00205184)
(0.000511825 0.000722528 0.00234616)
(0.000623366 0.000306636 0.00409789)
(-0.000308602 -0.000422057 0.00369917)
(-0.000120573 0.000717592 0.00211732)
(0.000502699 0.000231312 0.00278913)
(0.000160409 0.000179401 0.00263017)
(0.000633104 2.14285e-05 0.001966)
(0.000798623 -0.000198355 0.001316)
(0.000789436 -0.000297967 0.00289823)
(7.32711e-05 3.60665e-05 0.00196562)
(7.89066e-05 -9.56929e-05 0.00181912)
(1.81606e-05 -0.000102572 0.00279955)
(0.000362092 -0.00120369 0.00162263)
(-0.000359469 -0.000252771 0.0019077)
(-0.000299514 -0.000104288 0.00158585)
(0.000208854 -0.000304549 0.0015733)
(0.000336649 -0.00019267 0.000795517)
(-0.000777068 -0.000532478 0.00154365)
(-0.00046357 -0.000129439 0.00143319)
(0.000253742 5.9815e-05 0.00142862)
(9.73114e-05 0.000177196 0.000865733)
(0 0 0)
(0 0 0)
(0 0 0)
(0 0 0)
(0 0 0)
(0 0 0)
(0 0 0)
(0 0 0)
(0 0 0)
(0 0 0)
(0 0 0)
(0 0 0)
(0 0 0)
(0 0 0)
(0 0 0)
(0 0 0)
(0 0 0)
(0 0 0)
(0 0 0)
(0 0 0)
(0 0 0)
(0 0 0)
(0 0 0)
(0 0 0)
(0 0 0)
(0 0 0)
(0 0 0)
(0 0 0)
(0 0 0)
(0 0 0)
(0 0 0)
(0 0 0)
(0 0 0)
(0 0 0)
(0 0 0)
(0 0 0)
(0 0 0)
(0 0 0)
(0 0 0)
(0 0 0)
(0 0 0)
(0 0 0)
(0 0 0)
(0 0 0)
(0 0 0)
(0 0 0)
(0 0 0)
(0 0 0)
(0 0 0)
(0 0 0)
(0 0 0)
(0 0 0)
(0 0 0)
(0 0 0)
(0 0 0)
(0 0 0)
(0 0 0)
(0 0 0)
(0 0 0)
(0 0 0)
(0 0 0)
(0 0 0)
(0 0 0)
(0 0 0)
(0 0 0)
(0 0 0)
(0 0 0)
(0 0 0)
)
;
    }
}


// ************************************************************************* //
