/*--------------------------------*- C++ -*----------------------------------*\
| =========                 |                                                 |
| \\      /  F ield         | OpenFOAM: The Open Source CFD Toolbox           |
|  \\    /   O peration     | Version:  2506                                  |
|   \\  /    A nd           | Website:  www.openfoam.com                      |
|    \\/     M anipulation  |                                                 |
\*---------------------------------------------------------------------------*/
FoamFile
{
    version     2.0;
    format      ascii;
    arch        "LSB;label=32;scalar=64";
    class       volScalarField;
    location    "0.002";
    object      p;
}
// * * * * * * * * * * * * * * * * * * * * * * * * * * * * * * * * * * * * * //

dimensions      [0 2 -2 0 0 0 0];

internalField   nonuniform List<scalar> 
512
(
-0.18846
-0.170956
-0.257654
-0.162595
0.0689822
0.0716023
-0.117748
-0.269539
-0.395491
-0.390944
-0.31439
-0.280623
-0.208084
-0.172633
-0.123308
-0.0282399
-0.103192
-0.356801
-0.410675
-0.264273
-0.111948
-0.046081
-0.364759
-0.55054
-0.508993
-0.647201
-0.653201
-0.481589
-0.401513
-0.439172
-0.370544
-0.274097
-0.182383
-0.185078
-0.225529
-0.10573
0.0589176
0.0619037
-0.1214
-0.243343
-0.364239
-0.421817
-0.341214
-0.281706
-0.1928
-0.158667
-0.138503
-0.0868
-0.146173
-0.312865
-0.367687
-0.329619
-0.253889
-0.171402
-0.319599
-0.429493
-0.45846
-0.577478
-0.568587
-0.478387
-0.473604
-0.423536
-0.367533
-0.321299
-0.110519
-0.168647
-0.276477
-0.123144
0.0523255
0.0298984
-0.147309
-0.264996
-0.300356
-0.361972
-0.326233
-0.287778
-0.26901
-0.165488
-0.109087
-0.18088
-0.227427
-0.277008
-0.321914
-0.32805
-0.310643
-0.256056
-0.347297
-0.377994
-0.333758
-0.41061
-0.515653
-0.565478
-0.508848
-0.355341
-0.407922
-0.366397
-0.176331
-0.0983508
-0.131793
-0.0779735
0.0306479
-0.0337904
-0.174025
-0.236426
-0.323691
-0.362531
-0.280579
-0.32918
-0.354543
-0.155858
-0.0818639
-0.230013
-0.289032
-0.242384
-0.227717
-0.31294
-0.357706
-0.329591
-0.385841
-0.331978
-0.261354
-0.358703
-0.458393
-0.528055
-0.480034
-0.444367
-0.504242
-0.382604
-0.188449
-0.0932029
-0.124004
-0.0973042
-0.0315128
-0.0525407
-0.18061
-0.271671
-0.314983
-0.302031
-0.300939
-0.370714
-0.301911
-0.132684
-0.135359
-0.310887
-0.335348
-0.201935
-0.216173
-0.367526
-0.388557
-0.321322
-0.325862
-0.289744
-0.300211
-0.404355
-0.47466
-0.522797
-0.471851
-0.403675
-0.357856
-0.306086
-0.239964
-0.106693
-0.115141
-0.144758
-0.0931087
-0.0809712
-0.21945
-0.326329
-0.34186
-0.381588
-0.377948
-0.245082
-0.114605
-0.069329
-0.128538
-0.325531
-0.426267
-0.346887
-0.288852
-0.382157
-0.395203
-0.271132
-0.232832
-0.218543
-0.305611
-0.452095
-0.48362
-0.443518
-0.386381
-0.327571
-0.290375
-0.316353
-0.255364
-0.03627
-0.0575073
-0.201815
-0.197823
-0.138391
-0.199252
-0.311606
-0.335694
-0.399214
-0.440312
-0.273065
-0.0608724
0.0588497
-0.136749
-0.385005
-0.402701
-0.424215
-0.37795
-0.308554
-0.216371
-0.119273
-0.196205
-0.295792
-0.303449
-0.394029
-0.511626
-0.508078
-0.376569
-0.293047
-0.365849
-0.40261
-0.301212
-0.039606
-0.0271355
-0.158196
-0.177202
-0.159935
-0.21647
-0.281283
-0.300334
-0.428961
-0.475879
-0.258543
-0.0997002
-0.0856978
-0.178407
-0.295394
-0.354724
-0.397496
-0.292798
-0.163552
-0.162978
-0.155184
-0.213817
-0.299181
-0.292806
-0.34701
-0.42999
-0.464966
-0.427885
-0.329134
-0.474741
-0.561473
-0.201153
-0.225521
-0.455686
-0.0776099
0.459672
0.343543
-0.144627
-0.371679
-0.591645
-0.399571
-0.223894
-0.334781
-0.235357
-0.263217
-0.103686
0.312367
0.168178
-0.612259
-0.676439
-0.240529
0.147208
0.644056
-0.56178
-1.03802
-0.437988
-0.933757
-0.94656
-0.42682
-0.308559
-0.596927
-0.321255
-0.214644
-0.0822233
-0.195134
-0.278623
0.0166068
0.358141
0.350103
-0.281052
-0.317271
-0.450358
-0.6474
-0.399123
-0.319535
-0.213006
-0.198993
-0.0834831
0.143331
0.089784
-0.329698
-0.400668
-0.440269
-0.354842
0.0945727
-0.270271
-0.571997
-0.510206
-0.76969
-0.620717
-0.38828
-0.675493
-0.457812
-0.272561
-0.415492
0.368454
-0.128434
-0.682786
-0.136062
0.334061
0.272841
-0.138031
-0.461442
-0.25853
-0.339837
-0.374188
-0.399894
-0.451045
-0.118284
0.0469772
-0.239278
-0.339162
-0.245419
-0.248832
-0.279261
-0.326173
-0.196717
-0.417238
-0.39862
-0.175292
-0.240705
-0.57061
-1.00246
-0.842354
0.0712618
-0.367888
-0.605084
-0.0450065
0.0803308
-0.127333
-0.0149827
0.277987
0.0552167
-0.19353
-0.20925
-0.428188
-0.513802
-0.139187
-0.39925
-0.743379
-0.100339
0.209224
-0.277183
-0.395149
-0.096075
0.10499
-0.303941
-0.531213
-0.38909
-0.683119
-0.329079
0.0961659
-0.267423
-0.448236
-0.697149
-0.776728
-0.440415
-0.61381
-0.536196
-0.0474929
0.0676567
-0.28934
-0.193256
0.114167
0.182264
-0.115995
-0.24535
-0.356522
-0.171489
-0.242789
-0.784219
-0.575786
0.0149396
0.0113412
-0.492385
-0.391043
-0.103263
-0.0069032
-0.231348
-0.472163
-0.391964
-0.517405
-0.25767
-0.20212
-0.376725
-0.476206
-0.809677
-0.634657
-0.42738
-0.227449
-0.209449
-0.200311
-0.0181474
-0.268774
-0.28134
0.0359808
0.133991
-0.243767
-0.408366
-0.3884
-0.503629
-0.545413
-0.181526
0.0623794
-0.00122179
0.0909736
-0.396797
-0.760387
-0.391006
-0.0670938
-0.534871
-0.77571
-0.224728
-0.131561
-0.178022
-0.300691
-0.587417
-0.533904
-0.313894
-0.395648
-0.284952
-0.000271409
-0.24758
-0.283492
0.290502
0.103498
-0.421286
-0.352596
-0.131955
-0.081927
-0.265676
-0.289063
-0.483942
-0.759979
-0.421032
0.116236
0.475167
0.0463131
-0.501262
-0.472617
-0.598006
-0.571595
-0.44252
-0.135905
0.209036
-0.0645406
-0.288234
-0.121103
-0.488507
-0.974272
-0.787574
-0.184996
-0.0511206
-0.384362
-0.507842
-0.330993
0.306334
0.218665
-0.338629
-0.295974
-0.102715
-0.188737
-0.217491
-0.0543712
-0.54576
-0.865794
-0.237473
0.018852
-0.0338911
-0.201414
-0.325379
-0.293012
-0.486921
-0.240831
0.0658002
-0.154516
-0.0804097
-0.128609
-0.340011
-0.198108
-0.314111
-0.453794
-0.629996
-0.560455
-0.00451397
-0.664094
-1.11197
)
;

boundaryField
{
    wall
    {
        type            zeroGradient;
    }
    outlet
    {
        type            cyclic;
    }
    inlet
    {
        type            cyclic;
    }
    procBoundary3to2
    {
        type            processor;
        value           nonuniform List<scalar> 
256
(
-0.235112
-0.214673
-0.212931
-0.160597
-0.0831784
-0.0800489
-0.147889
-0.229389
-0.308532
-0.330803
-0.300024
-0.26252
-0.213125
-0.165086
-0.134013
-0.145832
-0.224856
-0.323133
-0.336651
-0.271063
-0.222159
-0.247301
-0.352162
-0.41739
-0.436038
-0.491249
-0.512237
-0.460232
-0.410719
-0.387965
-0.343998
-0.287024
-0.234946
-0.212933
-0.203616
-0.147801
-0.0818244
-0.0812614
-0.142442
-0.20943
-0.298161
-0.349378
-0.3156
-0.263826
-0.202022
-0.162793
-0.156443
-0.165056
-0.235444
-0.323622
-0.334719
-0.30152
-0.267266
-0.264217
-0.333011
-0.374638
-0.399357
-0.472272
-0.494492
-0.453494
-0.420331
-0.389543
-0.352948
-0.301279
-0.225525
-0.202911
-0.200872
-0.144309
-0.0769327
-0.0854635
-0.167083
-0.235645
-0.286944
-0.321319
-0.300745
-0.26476
-0.22897
-0.174822
-0.145386
-0.199329
-0.274281
-0.312008
-0.319742
-0.311002
-0.286251
-0.282032
-0.344277
-0.368949
-0.357969
-0.401521
-0.456426
-0.449059
-0.413569
-0.397025
-0.384131
-0.318899
-0.232842
-0.180199
-0.164632
-0.131863
-0.0814195
-0.1006
-0.186012
-0.238914
-0.284167
-0.313187
-0.288416
-0.285108
-0.263429
-0.176215
-0.146096
-0.234861
-0.305254
-0.296286
-0.293473
-0.317408
-0.319427
-0.308668
-0.329032
-0.334053
-0.321417
-0.365691
-0.436019
-0.44314
-0.409442
-0.408839
-0.403128
-0.32874
-0.232162
-0.161832
-0.143067
-0.144182
-0.114085
-0.112364
-0.198451
-0.280537
-0.304113
-0.288365
-0.269304
-0.277718
-0.240325
-0.165413
-0.180912
-0.283257
-0.333195
-0.286915
-0.276471
-0.335792
-0.339764
-0.292156
-0.289728
-0.311712
-0.334199
-0.387299
-0.424536
-0.428532
-0.419501
-0.395201
-0.357753
-0.306389
-0.249399
-0.172372
-0.136044
-0.136353
-0.135051
-0.133974
-0.21652
-0.313925
-0.330114
-0.32198
-0.305028
-0.245107
-0.166458
-0.130588
-0.191681
-0.310912
-0.362495
-0.323629
-0.296932
-0.327448
-0.322951
-0.26956
-0.264232
-0.300904
-0.339254
-0.377977
-0.390198
-0.38829
-0.398921
-0.384144
-0.345724
-0.313619
-0.261509
-0.165536
-0.138962
-0.156922
-0.144841
-0.138939
-0.221752
-0.319117
-0.340101
-0.344128
-0.330601
-0.253484
-0.162735
-0.109834
-0.178501
-0.311487
-0.358324
-0.350323
-0.322296
-0.288877
-0.251956
-0.212443
-0.24291
-0.316964
-0.341605
-0.347402
-0.381834
-0.418908
-0.404598
-0.36859
-0.363196
-0.342452
-0.288152
-0.168153
-0.12939
-0.137858
-0.137961
-0.16134
-0.229272
-0.302951
-0.341691
-0.365491
-0.346983
-0.257645
-0.174454
-0.137695
-0.184196
-0.290356
-0.345289
-0.342685
-0.300545
-0.235016
-0.197385
-0.204858
-0.266306
-0.330641
-0.334135
-0.329212
-0.364692
-0.414307
-0.410667
-0.368098
-0.39084
-0.395529
)
;
    }
}


// ************************************************************************* //
