/*--------------------------------*- C++ -*----------------------------------*\
| =========                 |                                                 |
| \\      /  F ield         | OpenFOAM: The Open Source CFD Toolbox           |
|  \\    /   O peration     | Version:  2506                                  |
|   \\  /    A nd           | Website:  www.openfoam.com                      |
|    \\/     M anipulation  |                                                 |
\*---------------------------------------------------------------------------*/
FoamFile
{
    version     2.0;
    format      ascii;
    arch        "LSB;label=32;scalar=64";
    class       surfaceScalarField;
    location    "0.002";
    object      phi;
}
// * * * * * * * * * * * * * * * * * * * * * * * * * * * * * * * * * * * * * //

dimensions      [0 3 -1 0 0 0 0];

oriented        oriented;

internalField   nonuniform List<scalar> 
1200
(
0.00280573
-4.73973e-08
1.84587e-07
0.0028048
1.21637e-07
5.15114e-07
0.00280382
-2.57904e-07
1.66327e-06
0.002805
-4.65229e-07
-6.5774e-07
0.00280691
8.81208e-08
-3.22073e-06
0.00280778
8.26314e-08
-2.19178e-06
0.00280728
3.36775e-08
2.47961e-07
0.00280699
-2.15324e-07
8.65039e-07
0.00280633
-2.55177e-07
1.66655e-06
0.0028065
2.54682e-07
1.12916e-07
0.00280711
2.18271e-07
-6.81114e-07
0.0028068
6.59969e-09
4.77556e-07
0.00280664
-1.30159e-07
2.63019e-07
0.00280606
-1.20756e-07
7.83101e-07
0.00280603
1.26216e-07
-1.6796e-07
0.00280738
4.88403e-07
-2.80129e-06
0.00280827
3.56372e-07
-2.2441e-06
0.00280674
-3.73155e-07
2.21239e-06
0.00280547
-3.63408e-07
2.27877e-06
0.00280508
5.49773e-07
-1.95164e-07
0.00280514
1.18762e-06
-2.15511e-06
0.00280808
1.04776e-06
-5.64237e-06
0.00280693
-3.69175e-07
1.63185e-06
0.00280501
-1.00524e-06
4.05891e-06
0.0028066
-4.21871e-07
-5.31054e-07
0.00280612
-5.79424e-07
2.37136e-06
0.00280556
-7.02001e-07
2.47208e-06
0.00280621
-2.0104e-08
-4.06632e-07
0.00280628
6.04496e-07
-7.14953e-07
0.00280554
-1.25748e-07
1.34395e-06
0.00280621
-2.02806e-08
-3.76826e-07
3.95278e-07
-4.01849e-07
0.0028135
-5.83776e-07
-8.01668e-07
0.00281343
-1.27444e-07
1.46898e-07
0.0028125
4.31949e-07
4.8235e-07
0.00281252
1.5076e-07
-9.36276e-07
0.00281385
5.98092e-08
-2.44339e-06
0.00281482
2.71563e-07
-2.32651e-06
0.00281313
2.20063e-07
1.35646e-06
0.00281241
1.81604e-07
6.40678e-07
0.00281243
-5.30766e-07
8.37685e-07
0.00281193
-4.99303e-07
1.89319e-06
0.002812
-1.32718e-07
5.18917e-07
0.00281178
4.80725e-08
3.50681e-07
0.00281078
6.3451e-07
1.73685e-07
0.00281023
5.83395e-08
3.41032e-07
0.00281088
-2.43112e-07
-4.14062e-07
0.00281183
7.85624e-07
-1.89135e-06
0.00281275
6.77295e-07
-1.96877e-06
0.00281242
-3.07263e-07
1.96392e-07
0.00281243
-3.84921e-07
3.15702e-07
0.00281229
-5.06432e-09
9.48308e-07
0.00281206
4.82061e-07
8.4289e-07
0.0028138
7.1123e-07
-2.15108e-06
0.00281348
2.39709e-07
-3.82381e-07
0.00281217
-4.2312e-07
1.20518e-06
0.00281288
-1.02748e-06
4.04451e-07
0.00281299
-1.37938e-06
1.57767e-06
0.00281292
-4.33275e-07
4.51207e-07
0.00281308
7.309e-07
-6.61336e-07
0.00281214
2.98985e-07
1.73758e-06
0.00281257
-5.60242e-07
3.35915e-07
0.00281312
3.46469e-07
-7.52206e-07
3.8592e-07
8.20785e-07
0.00281247
5.5277e-07
-3.84001e-06
0.00281294
-5.75206e-07
-2.58225e-07
0.00281184
-1.19043e-06
3.39428e-06
0.00281207
-3.67045e-07
1.52104e-07
0.00281326
1.93079e-07
-2.37307e-06
0.00281409
5.45788e-07
-2.03836e-06
0.00281397
2.33434e-07
-3.61371e-08
0.00281302
-2.32649e-07
1.63077e-06
0.00281274
1.90944e-07
-2.94298e-07
0.00281272
1.42222e-10
-1.14335e-07
0.00281281
-3.78858e-07
3.87861e-07
0.0028118
3.52838e-07
9.11664e-07
0.00281053
7.15722e-07
1.53778e-06
0.002811
-7.30608e-08
-3.99004e-07
0.00281198
-2.19452e-07
-1.3039e-06
0.0028117
4.16975e-07
5.1066e-07
0.00281058
5.18069e-07
9.09592e-07
0.00281053
-2.86812e-07
-2.56283e-07
0.00281154
-7.8597e-07
-5.5864e-07
0.00281215
-1.26705e-07
-3.1975e-07
0.0028123
3.95833e-07
1.60584e-07
0.00281269
6.20655e-07
-4.9675e-07
0.00281202
3.24267e-07
6.35754e-07
0.00281187
-3.75459e-07
2.0532e-07
0.00281252
-5.90331e-07
-1.2712e-06
0.00281304
-4.2444e-07
-1.38041e-06
0.0028131
-4.67952e-07
5.04658e-07
0.00281145
-3.0346e-07
3.68614e-06
0.00281002
-2.27896e-07
2.79246e-06
0.00281192
7.47827e-07
-3.51128e-06
0.00281198
8.13396e-07
-2.88213e-07
1.44404e-07
2.01255e-06
0.00281322
1.07187e-07
-1.056e-06
0.00281352
-2.73183e-08
-1.48446e-06
0.00281216
-4.18067e-08
-2.44362e-08
0.00281171
1.81326e-07
-5.14622e-07
0.0028125
5.30204e-07
-2.03999e-06
0.00281302
1.68227e-07
-6.65842e-07
0.0028129
6.74057e-08
2.10136e-07
0.00281257
2.99363e-07
-2.01874e-07
0.00281224
-7.1977e-08
9.53012e-07
0.00281192
-5.01002e-07
1.25295e-06
0.00281248
1.74958e-07
-1.15634e-06
0.00281224
3.57738e-07
6.18343e-07
0.00281095
-4.26754e-07
3.21351e-06
0.00281134
-1.92571e-07
-4.24573e-07
0.00281254
4.46238e-07
-2.38213e-06
0.0028118
6.75063e-07
4.58428e-07
0.00281093
3.91526e-07
8.81739e-07
0.00281175
-3.27824e-07
-1.21665e-06
0.00281323
-9.94369e-08
-2.6868e-06
0.00281269
4.5539e-07
-6.15513e-08
0.00281171
2.61246e-07
1.46233e-06
0.00281203
-6.60947e-08
5.59506e-07
0.00281085
-4.99482e-07
2.50419e-06
0.00281082
-3.48254e-07
1.67587e-08
0.00281231
3.33248e-07
-2.88549e-06
0.00281222
3.92652e-07
-7.73078e-07
0.00281186
1.43304e-07
-3.3816e-08
0.00281088
-3.90605e-08
1.46475e-06
0.00280884
-5.8386e-08
2.49764e-06
0.00281027
-3.19923e-07
-4.44813e-08
0.00281221
-1.20406e-06
9.6551e-07
-6.31628e-07
1.32187e-06
0.00281286
4.38045e-07
-1.141e-06
0.00281345
1.21431e-07
-1.27776e-06
0.00281189
-6.08637e-08
1.45568e-06
0.00281048
4.16661e-07
8.30126e-07
0.00281104
5.32667e-07
-1.23276e-06
0.00281239
2.50832e-07
-1.90357e-06
0.00281247
3.36368e-07
-4.75285e-07
0.00281247
4.69424e-07
-2.15218e-07
0.00281192
2.33238e-07
3.50809e-07
0.00281195
6.67481e-07
-1.06633e-06
0.00281222
6.47565e-07
-4.62452e-07
0.00281092
-1.04066e-06
3.50801e-06
0.00281025
-1.55559e-06
2.33721e-06
0.00281158
-5.29968e-07
-1.24887e-06
0.00281292
-5.93982e-08
-1.19148e-06
0.00281215
1.17209e-07
1.57985e-06
0.00281133
7.5729e-07
4.90001e-07
0.00280986
1.20925e-06
-7.52299e-07
0.00281042
6.09037e-07
-1.75769e-06
0.00281211
1.30247e-07
-1.07646e-06
0.00281201
5.59449e-08
7.35251e-07
0.00281201
-4.20095e-07
6.1589e-07
0.0028111
-7.72275e-07
1.50585e-06
0.00281143
-5.85744e-07
-2.56837e-07
0.00281215
5.10442e-08
-6.902e-07
0.00281251
4.10381e-07
-2.07727e-07
0.00281296
8.82696e-08
4.99149e-08
0.00281201
-6.4671e-07
2.37497e-06
0.00281173
-7.03391e-07
1.3962e-06
0.00281188
-6.23062e-07
2.54669e-07
0.0028123
-5.50758e-07
-1.03299e-06
9.3188e-08
-7.86792e-07
0.00281226
1.4842e-07
-3.2382e-07
0.00281318
-5.72758e-07
-7.47352e-07
0.00281214
-4.68282e-07
1.30903e-06
0.00281095
4.81648e-07
1.23739e-06
0.00281134
8.84877e-07
-1.06493e-06
0.00281243
4.88962e-07
-1.74286e-06
0.00281275
-1.5729e-07
2.27368e-07
0.00281273
-1.09519e-07
7.30061e-07
0.00281272
-3.56188e-08
4.04951e-07
0.00281274
1.58117e-07
1.00966e-06
0.00281207
5.25068e-07
1.42137e-06
0.00281131
2.28175e-07
-4.80064e-07
0.00281117
-4.54746e-07
-1.37354e-06
0.0028118
-1.06333e-06
-5.95097e-07
0.00281294
6.64222e-08
-1.77977e-06
0.00281215
4.9486e-07
5.51855e-07
0.00281087
-1.9072e-07
2.77412e-06
0.00281126
6.54613e-07
3.84633e-07
0.00281293
7.55636e-07
-1.86525e-06
0.00281279
-6.12007e-07
1.36196e-06
0.00281177
-1.49345e-06
3.20157e-06
0.00281301
-1.26259e-06
-3.63695e-07
0.0028131
-3.04017e-07
-8.00451e-07
0.00281151
6.47617e-07
-3.06221e-07
0.00281136
-4.76358e-09
-5.45158e-08
0.00281172
-4.6766e-07
1.164e-06
0.00281192
2.53547e-07
4.44021e-07
0.00281225
5.49105e-07
-1.02974e-06
0.00281144
-7.32589e-08
1.04208e-07
0.00281098
-2.77263e-07
-3.33001e-07
0.0028117
6.41492e-07
-2.34431e-06
7.38869e-07
-6.08311e-07
0.00281105
3.92691e-07
2.60078e-07
0.00281213
3.87651e-08
-2.73624e-06
0.00281251
-2.49485e-07
-1.24461e-06
0.00281192
-3.56389e-07
1.82436e-06
0.00281211
-1.65687e-07
1.33811e-06
0.00281247
1.8784e-07
-3.52086e-08
0.00281289
1.42463e-07
-8.73567e-07
0.0028133
-2.50505e-07
-2.98126e-07
0.00281386
-2.88451e-07
-3.03331e-07
0.00281352
2.59642e-07
7.16063e-07
0.00281203
3.0461e-07
2.64269e-06
0.00281132
-1.20407e-07
1.25119e-06
0.00281117
3.19774e-07
-1.45112e-06
0.00281097
1.20531e-06
-3.46615e-06
0.00281185
3.5344e-07
-1.51738e-06
0.00281273
-7.37021e-07
9.74798e-07
0.00281276
-3.87591e-07
5.5633e-07
0.00281278
-2.08737e-07
1.49297e-06
0.00281306
-7.00904e-07
1.66349e-06
0.00281269
-1.21188e-06
1.16721e-06
0.00281202
-4.49042e-07
-6.54308e-07
0.00281243
3.01675e-07
-2.72857e-06
0.00281272
1.49322e-07
-1.12484e-06
0.0028132
3.14789e-08
-1.14441e-08
0.00281443
-8.15054e-08
-1.44269e-06
0.00281393
-3.87311e-07
8.49051e-07
0.00281201
-6.71254e-07
3.96687e-06
0.00281132
-3.53281e-07
2.37104e-06
0.00281218
4.32498e-07
-1.56463e-06
0.00281296
3.02928e-07
-1.96294e-06
0.00281255
9.16937e-07
1.88421e-07
1.33416e-06
8.97344e-07
0.002805
2.68873e-07
0.00280682
-2.83031e-06
0.00280775
-1.99864e-06
0.00280605
1.54304e-06
0.00280524
1.00085e-06
0.00280585
-4.01774e-07
0.00280614
-2.29993e-07
0.00280625
-5.07627e-07
0.00280763
-1.97527e-06
0.0028074
1.04854e-06
0.00280553
3.27491e-06
0.00280558
-1.3935e-07
0.00280627
-9.7511e-07
0.00280746
-3.98365e-07
0.00280757
2.09962e-07
0.00280662
2.73532e-07
0.00280679
-4.47634e-07
0.00280624
8.34162e-07
0.00280588
-3.79241e-07
0.00280601
-1.90771e-06
0.00280536
-7.78499e-08
0.00280584
-5.62809e-07
0.00280626
-6.91627e-07
0.0028057
3.57661e-07
0.002806
-6.87361e-07
0.00280603
-2.4209e-07
0.00280567
2.82387e-07
0.0028044
1.37212e-06
0.00280386
1.14085e-06
0.00280655
-2.6901e-06
0.00280658
1.62038e-06
4.58555e-06
0.00278655
-9.95513e-07
0.0027873
-2.5787e-07
0.00279042
-1.46161e-06
0.00279052
-7.68016e-07
0.00278645
8.41922e-07
0.00278424
-5.08637e-08
0.00278335
1.12884e-06
0.00278469
-4.72953e-07
0.00278749
-1.16758e-06
0.00278554
2.04544e-06
0.00278336
1.43797e-06
0.00278394
-1.30361e-07
0.00278439
-1.88621e-07
0.00278567
-5.32976e-07
0.00278569
-1.68987e-07
0.00278147
1.39862e-06
0.00277858
6.46731e-07
0.00278303
-2.36464e-06
0.00278756
-2.28987e-06
0.00278578
1.59721e-06
0.00277947
4.16579e-06
0.00276924
4.53846e-06
0.00277325
-2.38385e-06
0.00278116
-3.85134e-06
0.00278002
5.74554e-07
0.00278377
-1.36039e-06
0.00278892
-2.70925e-06
0.0027888
-3.07603e-07
0.00278501
3.02792e-06
0.00278748
-1.14538e-06
0.0027875
-4.01326e-07
1.65109e-06
0.00279104
-3.72734e-06
0.00279144
-5.56733e-07
0.00278712
3.33753e-06
0.00278407
1.25612e-06
0.00278224
2.02041e-07
0.00277914
6.41701e-07
0.00278274
-1.16879e-06
0.0027817
1.20258e-06
0.00278284
-1.59686e-06
0.00278931
-2.53633e-06
0.00279147
-2.04994e-07
0.00279099
6.57472e-07
0.00278902
1.96931e-06
0.00278948
-6.82179e-07
0.00278993
-1.0822e-06
0.00278625
3.17881e-06
0.0027814
3.54685e-06
0.00277989
-7.03197e-07
0.00277914
-1.26401e-06
0.00278303
-1.37893e-06
0.00278826
-2.16021e-07
0.00278823
2.34482e-06
0.00278421
1.22706e-06
0.00278296
-1.42586e-06
0.00278674
-2.75487e-06
0.00279134
-4.35842e-06
0.00278949
-3.99178e-07
0.00278335
5.06966e-06
0.00278664
1.39892e-06
0.00279017
-4.37266e-06
0.00278821
7.89763e-07
1.57308e-06
0.00277749
3.51973e-06
0.00277831
-1.72113e-06
0.0027896
-4.57121e-06
0.00279202
-1.00124e-06
0.00278946
4.7966e-07
0.00278631
1.81651e-06
0.00278458
4.72462e-07
0.00278947
-2.04787e-06
0.00278617
1.3887e-06
0.002782
1.4169e-06
0.00278412
-1.92656e-06
0.00278571
-9.42549e-09
0.00278677
2.42683e-06
0.00278586
-1.52973e-07
0.00278482
-1.32774e-06
0.00278813
3.5077e-07
0.0027922
4.19496e-07
0.00279244
-1.20708e-06
0.00279352
-2.93255e-06
0.0027916
2.02992e-07
0.00278982
1.70143e-06
0.00279018
1.51082e-06
0.00278978
2.19686e-06
0.00278908
-5.66938e-07
0.00278727
-2.25018e-06
0.00278128
2.29493e-07
0.00278232
-9.97892e-07
0.00279354
-2.52811e-06
0.00279824
-5.16475e-07
0.00278612
4.24263e-06
0.00278454
2.03702e-06
-5.66947e-07
0.00279885
8.41087e-08
0.00279557
1.12852e-07
0.00278962
1.36491e-06
0.00278662
1.49948e-06
0.00278369
1.37535e-06
0.00278577
-1.02848e-06
0.00278702
-6.2361e-07
0.00278445
3.05562e-07
0.0027873
-6.00426e-07
0.00279282
-2.82688e-06
0.00278886
8.81739e-07
0.00278627
3.15335e-06
0.00279329
-1.36438e-06
0.00279365
-9.57117e-07
0.00278828
1.62866e-06
0.00278721
1.78237e-06
0.0027886
-8.29868e-08
0.00278614
6.67034e-08
0.00277954
9.14216e-07
0.00278026
-5.83515e-07
0.00278392
-5.10634e-07
0.0027859
-2.66297e-09
0.00279194
-1.37467e-06
0.00279195
-5.84922e-07
0.0027843
2.43879e-06
0.00278285
9.34495e-07
0.00278154
2.45003e-07
0.00277954
8.98496e-07
0.00278266
-1.16498e-06
0.00278696
-9.64901e-08
0.00279307
-3.18124e-06
-2.70922e-06
0.00278493
1.27194e-06
0.00278309
6.59801e-07
0.00278598
-1.56906e-07
0.00278753
7.58583e-07
0.00278703
6.67461e-07
0.00278364
4.14188e-07
0.0027814
1.06796e-06
0.00278016
1.35018e-06
0.00277963
2.77918e-07
0.00277298
2.74921e-06
0.00277086
2.52811e-06
0.00278243
-4.98193e-06
0.00278863
-5.269e-06
0.00278637
1.21671e-07
0.00278745
-6.62808e-07
0.00279149
-7.77722e-07
0.00278881
3.07788e-06
0.00278568
2.3822e-06
0.00278434
5.0954e-07
0.00278011
2.51241e-06
0.0027778
2.49798e-06
0.00277981
-1.40645e-06
0.00278327
-3.18749e-06
0.00278309
-6.48378e-07
0.00278388
8.195e-07
0.00278285
1.75148e-06
0.00278263
4.9848e-07
0.00279
-4.0776e-06
0.00279218
-1.97586e-06
0.00279346
-1.18987e-06
0.00279108
-1.87097e-06
3.14589e-07
0.00278116
7.2257e-07
0.00278366
-2.58356e-06
0.00278786
-3.06112e-06
0.0027886
1.16975e-06
0.00278501
3.22695e-06
0.00278144
2.2101e-06
0.00278396
-1.3201e-06
0.00278716
-1.17391e-06
0.00278863
-7.93721e-07
0.00279255
-1.42499e-07
0.00279472
1.78346e-06
0.00278729
1.9613e-06
0.002781
-4.65845e-07
0.0027845
-3.92652e-06
0.00278164
3.7073e-07
0.0027806
8.78754e-07
0.00278877
-2.32282e-06
0.00278981
1.72384e-06
0.00278432
4.19558e-06
0.00278883
-7.5968e-07
0.00279983
-5.3063e-06
0.00280165
-3.59408e-06
0.00279819
-5.5735e-07
0.00279629
9.17313e-07
0.00279853
-1.47722e-06
0.00280227
-8.40829e-07
0.00279954
3.67831e-06
0.00279046
3.94182e-06
0.00279029
-1.73315e-06
0.00279071
-1.93977e-06
0.00278322
3.18755e-06
2.05952e-06
0.00278849
3.91775e-07
0.00278337
-1.16249e-07
0.00277989
-9.3057e-07
0.00278357
-6.63743e-07
0.00278854
-4.61974e-07
0.00279094
-2.25199e-07
0.00278776
8.72004e-07
0.00278662
-4.0843e-07
0.00278737
-1.93578e-06
0.00278738
5.66222e-07
0.00279095
8.89752e-07
0.00279568
-1.53034e-06
0.00279296
8.00393e-07
0.00278136
4.24068e-06
0.00277813
2.04396e-06
0.00278142
-1.44144e-06
0.00278116
-1.46009e-06
0.00278521
-8.93793e-07
0.00279379
-2.72286e-06
0.00279831
-4.16426e-06
0.00279221
1.39862e-07
0.00278347
2.44165e-06
0.00278131
5.32072e-07
0.00278172
4.35993e-07
0.00277812
6.38212e-07
0.00277953
-1.46916e-06
0.00279129
-4.2766e-06
0.00279888
-1.29624e-06
0.00279246
3.12135e-06
0.0027889
-3.75131e-07
0.00278989
2.37458e-06
4.91348e-06
0.00279149
0.00278853
0.00278557
0.0027864
0.00278694
0.00278627
0.00278694
0.00278603
0.00278211
0.00278358
0.00278774
0.00278605
0.00278588
0.00278969
0.00279196
0.00279078
0.00278883
0.00278872
0.00278561
0.00277952
0.00277959
0.00278142
0.00278125
0.00278204
0.00278188
0.00278017
0.00277615
0.00277624
0.00278044
0.00277739
0.00278132
)
;

boundaryField
{
    wall
    {
        type            calculated;
        value           nonuniform List<scalar> 
384
(
1.55312e-08
-1.22425e-08
1.151e-07
1.72931e-08
1.25302e-08
3.08863e-09
1.81518e-08
-1.79542e-16
2.1769e-08
4.0763e-08
8.6064e-08
-4.40944e-08
1.08782e-08
-8.77723e-09
-7.6888e-08
1.10703e-08
4.82018e-09
1.19944e-08
1.29667e-08
-9.34126e-09
9.15318e-08
2.03617e-08
9.69272e-08
1.71436e-08
1.79431e-08
8.65898e-08
-1.12238e-08
-1.45562e-08
1.56474e-08
7.86981e-08
-1.40876e-08
5.07001e-08
5.64728e-10
2.40812e-08
-9.25715e-08
-6.77296e-09
-1.93528e-08
-3.37009e-08
5.54789e-08
-6.53305e-09
6.78098e-08
8.37671e-08
-6.05075e-08
9.85378e-08
4.23883e-08
3.04465e-08
-3.34743e-09
4.89358e-08
1.64333e-08
5.58591e-08
4.42103e-08
6.34509e-08
7.02608e-08
1.05091e-07
1.20641e-07
-3.1568e-08
-3.61212e-09
5.74678e-09
-5.08968e-09
1.55552e-08
-1.69968e-08
5.3681e-08
7.32194e-08
-7.13545e-10
2.64964e-08
1.25473e-07
2.47489e-08
8.36811e-08
-3.54772e-09
1.72746e-09
8.80805e-08
1.26386e-08
1.55234e-08
1.97428e-09
9.74745e-08
-2.32629e-08
7.71743e-09
-2.20094e-08
-7.92686e-09
1.0329e-07
6.94146e-08
3.78905e-09
-1.07663e-08
6.45947e-10
9.69224e-09
-4.14278e-09
-2.43545e-08
3.72091e-09
2.14109e-08
3.89856e-08
-1.45338e-08
4.8752e-08
7.49087e-08
7.24501e-09
9.21656e-09
1.82269e-08
7.54433e-09
-1.00332e-08
2.28615e-08
-1.63664e-08
4.78017e-08
1.17785e-07
4.18773e-09
-9.38532e-09
2.91439e-08
2.96883e-08
-1.8955e-08
1.64168e-08
-6.88439e-08
-5.0586e-08
-3.88675e-08
2.2533e-08
-1.36295e-08
4.92013e-08
-1.7337e-08
2.70325e-08
1.90392e-08
4.72644e-08
3.72421e-08
-1.86376e-08
1.65602e-08
8.29151e-09
3.47357e-08
9.63721e-08
1.00081e-07
-5.87927e-08
7.86012e-09
1.48578e-08
-2.52946e-09
-2.4017e-08
-4.10696e-08
-5.80019e-09
6.04736e-09
4.19188e-09
-4.83215e-08
4.66146e-08
1.30908e-07
4.87379e-08
1.43516e-08
-2.67098e-08
6.5581e-08
5.28487e-10
6.06591e-08
4.54711e-08
3.73023e-08
3.78559e-08
2.77798e-08
7.1114e-08
-1.68297e-08
-6.37811e-08
5.78039e-09
1.2019e-08
-5.93708e-09
3.74421e-08
2.08647e-08
2.7707e-09
5.61462e-08
1.21594e-07
5.60936e-08
-2.30842e-08
-1.67082e-08
-5.80392e-09
2.20475e-08
1.22882e-08
3.65812e-08
9.57542e-09
-7.00092e-10
-9.90104e-09
5.4805e-08
7.42608e-08
-2.17283e-08
9.5009e-08
1.72839e-08
0
-2.48171e-08
3.09697e-08
4.20096e-09
2.63789e-08
6.41445e-08
3.75772e-08
-1.497e-07
3.25073e-08
-5.50194e-08
7.05365e-09
-4.39625e-16
2.63615e-08
4.15919e-08
1.79023e-08
-9.35443e-09
3.34385e-08
5.94353e-08
5.39948e-09
3.10847e-08
-4.51478e-08
3.67358e-08
7.47046e-08
1.40345e-07
-4.17055e-09
3.69325e-08
1.08107e-07
-1.31241e-08
-2.66401e-08
2.31507e-08
-2.45664e-08
6.4373e-09
1.46567e-08
7.11414e-08
6.56286e-09
1.74087e-08
-1.17839e-09
5.79399e-08
3.4797e-08
1.65813e-08
-1.14291e-09
1.58638e-07
2.32479e-08
2.04609e-08
9.82474e-08
7.2968e-08
3.8091e-08
-1.67096e-08
3.11801e-08
2.23276e-08
-1.7674e-08
4.143e-08
7.37889e-08
6.46411e-12
2.99493e-08
1.90879e-08
2.61736e-08
0
6.8141e-08
2.21485e-08
3.86741e-08
3.04109e-10
-8.00883e-09
7.14485e-08
2.46269e-09
2.77021e-08
-2.27129e-08
2.37806e-10
8.07836e-09
4.51868e-08
6.97087e-08
3.40917e-08
8.1409e-08
1.38344e-08
7.33903e-09
6.26716e-08
1.60805e-08
0
5.04594e-08
5.7101e-09
-6.57087e-08
1.45734e-08
-6.06027e-10
0
0
0
0
0
5.27575e-10
0
0
0
0
0
0
0
-2.325e-09
0
4.95031e-09
0
8.59997e-10
0
0
0
0
0
0
0
0
0
0
0
0
0
0
0
-3.3797e-10
0
0
0
0
0
0
0
0
0
0
0
0
0
0
0
0
0
0
0
1.29885e-08
0
0
0
0
0
0
0
0
0
-5.44388e-10
0
-4.63879e-10
0
0
0
1.41782e-08
0
0
0
0
0
0
0
0
0
-1.10893e-09
0
-2.82837e-09
0
4.12311e-08
0
0
0
0
0
0
0
1.42464e-08
0
0
0
0
0
0
0
0
0
0
0
3.90835e-08
0
0
0
1.88121e-08
0
0
0
4.39704e-09
0
0
0
-5.35292e-09
0
1.11947e-09
0
-2.35253e-10
0
0
0
0
0
5.70806e-08
0
-3.30953e-09
)
;
    }
    outlet
    {
        type            cyclic;
        value           nonuniform List<scalar> 
16
(
0.00280618
0.00281254
0.00281066
0.00281215
0.00281238
0.00281171
0.00281158
0.00280474
0.00278539
0.0027891
0.00278869
0.00279649
0.00278727
0.00278094
0.00278792
0.00279083
)
;
    }
    inlet
    {
        type            cyclic;
        value           nonuniform List<scalar> 
16
(
-0.00280618
-0.00281254
-0.00281066
-0.00281215
-0.00281238
-0.00281171
-0.00281158
-0.00280474
-0.00278539
-0.0027891
-0.00278869
-0.00279649
-0.00278727
-0.00278094
-0.00278792
-0.00279083
)
;
    }
    procBoundary3to2
    {
        type            processor;
        value           nonuniform List<scalar> 
256
(
3.12556e-07
2.94518e-07
-4.21332e-07
-6.46035e-08
1.23073e-06
1.23061e-06
2.24141e-07
-3.61972e-07
-7.54959e-07
-5.30614e-07
-1.48421e-07
-1.72917e-07
2.06779e-08
-8.03714e-08
7.67788e-08
9.65297e-07
9.97045e-07
-3.1059e-07
-6.48842e-07
3.74135e-08
9.04556e-07
1.65911e-06
-1.1882e-07
-1.1313e-06
-6.33326e-07
-1.31922e-06
-1.20612e-06
-2.18479e-07
3.16317e-08
-4.73505e-07
-2.75979e-07
3.73699e-08
3.74486e-07
1.69832e-07
-2.35786e-07
3.02869e-07
1.1374e-06
1.16331e-06
1.48174e-07
-3.11027e-07
-5.88339e-07
-6.31926e-07
-2.39907e-07
-1.70701e-07
5.98547e-08
2.6322e-08
1.35836e-07
6.38852e-07
7.3069e-07
6.49141e-08
-3.01355e-07
-2.57042e-07
9.27851e-08
7.55686e-07
9.42298e-08
-4.77413e-07
-5.09217e-07
-8.95187e-07
-6.47974e-07
-2.49242e-07
-4.88155e-07
-3.30116e-07
-1.71965e-07
-2.26322e-07
8.9499e-07
2.33406e-07
-6.74773e-07
1.33895e-07
1.04986e-06
9.38837e-07
1.41087e-07
-2.69704e-07
-1.44946e-07
-3.64882e-07
-2.28577e-07
-2.07078e-07
-3.51754e-07
6.47011e-08
2.93914e-07
1.39505e-07
3.75132e-07
2.78388e-07
-4.31189e-08
-1.72795e-07
-2.26138e-07
1.97397e-07
-4.83951e-08
-9.83875e-08
1.79381e-07
-9.74435e-08
-5.2288e-07
-1.01017e-06
-8.32338e-07
3.06251e-07
-2.40677e-07
-4.48408e-07
4.28027e-07
6.43744e-07
2.36908e-07
4.16281e-07
9.08113e-07
5.28922e-07
7.29649e-08
-3.86267e-09
-3.59153e-07
-4.32527e-07
4.64485e-08
-3.87431e-07
-7.77895e-07
1.51166e-07
5.20197e-07
2.18454e-08
1.17761e-07
4.31051e-07
5.25147e-07
1.54765e-08
-3.42349e-07
-2.00311e-07
-4.9725e-07
-8.97602e-09
4.72891e-07
3.82951e-08
-2.17466e-07
-7.45256e-07
-6.25105e-07
-3.22667e-07
-8.80952e-07
-4.9164e-07
3.36118e-07
5.37661e-07
1.1823e-07
3.54289e-07
6.66704e-07
4.72548e-07
1.20762e-07
5.11966e-08
-1.11948e-07
-1.3215e-07
-2.81849e-07
-8.04489e-07
-5.43351e-07
2.56771e-07
3.64349e-07
-2.51908e-07
-4.04709e-08
6.83801e-07
4.91341e-07
-2.85537e-07
-4.31456e-07
-2.6568e-07
-3.15943e-07
1.60853e-07
2.50173e-07
-1.67817e-07
-4.4616e-07
-8.14607e-07
-4.71885e-07
-1.05231e-07
-3.51269e-08
-2.54741e-08
5.88572e-08
5.23171e-07
1.38274e-07
-1.10865e-07
3.20692e-07
4.14434e-07
-5.43281e-08
-1.32933e-07
-1.23481e-07
-5.15905e-07
-6.30539e-07
-2.8448e-08
4.05801e-07
4.99318e-07
5.11627e-07
-1.34119e-07
-5.47828e-07
-2.15502e-07
4.81701e-08
-4.83394e-07
-6.29753e-07
-3.58903e-08
2.41639e-07
6.62382e-07
2.59808e-07
-6.47027e-07
-8.09742e-07
-4.90936e-07
7.51718e-08
4.41498e-07
4.32274e-07
-3.87948e-08
2.52863e-08
1.05284e-06
6.45057e-07
-4.03811e-07
-4.72529e-07
-2.42275e-08
1.52423e-07
2.75424e-08
2.72521e-09
-4.8359e-07
-9.35178e-07
-1.86632e-07
8.28636e-07
1.39391e-06
3.47821e-07
-6.24334e-07
-3.88185e-07
-6.42364e-07
-4.94061e-07
-1.92696e-07
2.74709e-07
7.59564e-07
3.76444e-07
1.52162e-07
2.83931e-07
-4.2485e-07
-1.12565e-06
-7.80786e-07
2.0232e-07
6.01269e-07
-5.01968e-08
-5.26322e-07
-1.36776e-07
1.04224e-06
8.21485e-07
-2.00766e-07
-3.54927e-07
-2.14189e-08
8.0182e-08
1.51284e-07
3.07998e-07
-5.60296e-07
-1.10059e-06
-3.24241e-08
6.04219e-07
4.16741e-07
3.18841e-08
-6.15768e-08
-1.05964e-07
-4.92422e-07
3.18073e-08
5.73604e-07
2.71024e-07
3.90546e-07
4.17769e-07
2.36307e-07
3.06675e-07
-1.81168e-07
-5.85255e-07
-4.54631e-07
-1.70085e-07
2.97941e-07
-7.29914e-07
-1.40936e-06
)
;
    }
}


// ************************************************************************* //
