/*--------------------------------*- C++ -*----------------------------------*\
| =========                 |                                                 |
| \\      /  F ield         | OpenFOAM: The Open Source CFD Toolbox           |
|  \\    /   O peration     | Version:  2506                                  |
|   \\  /    A nd           | Website:  www.openfoam.com                      |
|    \\/     M anipulation  |                                                 |
\*---------------------------------------------------------------------------*/
FoamFile
{
    version     2.0;
    format      ascii;
    arch        "LSB;label=32;scalar=64";
    class       volVectorField;
    location    "0.002";
    object      U;
}
// * * * * * * * * * * * * * * * * * * * * * * * * * * * * * * * * * * * * * //

dimensions      [0 1 -1 0 0 0 0];

internalField   nonuniform List<vector> 
512
(
(10.7872 -0.000167589 -0.000502809)
(10.7918 0.00038852 0.000669856)
(10.7811 -0.00082578 0.00663623)
(10.7814 -0.00148837 -0.00194575)
(10.7838 0.000286085 -0.0142666)
(10.795 0.000267263 -0.011125)
(10.7992 0.000109989 4.41127e-05)
(10.7975 -0.000689424 0.00396342)
(10.7933 -0.000806659 0.0077165)
(10.7879 0.000818932 0.00201907)
(10.787 0.000702048 -0.00184106)
(10.7871 2.15582e-05 0.0020516)
(10.787 -0.000424873 0.000722734)
(10.7876 -0.000394884 0.00272118)
(10.786 0.000409237 -0.000733796)
(10.7893 0.00156446 -0.0121184)
(10.7986 0.0011366 -0.0103778)
(10.7981 -0.00119783 0.00786714)
(10.7874 -0.00116929 0.00924993)
(10.7818 0.00176231 -0.000714104)
(10.7839 0.00380938 -0.00977411)
(10.7964 0.00336135 -0.0236105)
(10.8028 -0.0011845 0.00561547)
(10.7936 -0.00322943 0.016633)
(10.7922 -0.00136973 0.000249143)
(10.7935 -0.00186416 0.0118871)
(10.7853 -0.0022569 0.0117555)
(10.783 -6.63994e-05 -0.000651063)
(10.7885 0.00194038 -0.002463)
(10.7889 -0.000398766 0.00579144)
(10.7855 -6.57479e-05 -0.000323415)
(10.785 0.00125566 -0.00155368)
(10.823 -0.00202545 -0.00373734)
(10.8278 -1.51041e-05 -0.000145252)
(10.8247 0.000562137 0.00228239)
(10.8192 -0.00100351 -0.00411614)
(10.8223 0.000463133 -0.0115397)
(10.8316 0.0011172 -0.0113438)
(10.8349 0.000807899 0.00381709)
(10.8333 -0.000110556 0.00304494)
(10.8315 -0.0025203 0.00430938)
(10.8261 -0.000786014 0.00810184)
(10.8229 0.000268362 0.00239258)
(10.8227 0.000162512 0.00161753)
(10.8233 0.00161132 0.000396785)
(10.8187 -0.000207128 0.000961122)
(10.8247 -0.000382229 -0.00185767)
(10.8268 0.00407793 -0.00812941)
(10.8326 0.00330853 -0.00858762)
(10.8325 -0.0021825 0.000325972)
(10.827 -0.00239598 0.00192429)
(10.8234 0.00175425 0.00382552)
(10.8222 0.00534924 0.00242916)
(10.8282 0.00563511 -0.0094675)
(10.8333 -0.000409126 -0.00157998)
(10.8301 -0.00458458 0.00537391)
(10.8303 -0.00465485 0.00303526)
(10.8294 -0.006282 0.00801239)
(10.8239 -0.00364267 0.00355287)
(10.8239 0.00227837 -0.00147518)
(10.8249 0.00288741 0.00703717)
(10.8236 -0.00220441 0.0020724)
(10.8238 0.00104253 -0.00188007)
(10.8217 0.00249497 0.0033416)
(10.8214 -0.000102011 -0.0153978)
(10.831 -0.00226443 -0.00171465)
(10.8256 -0.00243949 0.0130444)
(10.8181 -0.000698188 1.97204e-05)
(10.8227 0.000795287 -0.0108166)
(10.8322 0.00260695 -0.00944383)
(10.8347 0.00144988 -0.000658172)
(10.8309 -0.000166754 0.00614836)
(10.8294 -0.00109188 -0.000531322)
(10.8274 -0.00159938 0.000668092)
(10.8247 -0.00164115 0.00202796)
(10.8251 0.00127287 0.00366045)
(10.8234 0.00432324 0.00603256)
(10.8224 -3.55733e-05 -0.00141873)
(10.8271 -0.00148906 -0.00509539)
(10.8298 0.00384834 0.00113182)
(10.8292 0.00382733 0.0017946)
(10.8208 -0.00189935 -0.00174961)
(10.828 -0.00374061 -0.00172376)
(10.8263 -0.000439587 -0.000620268)
(10.8246 0.00280518 0.00121265)
(10.8275 0.00426622 -0.00216911)
(10.8298 0.0018128 0.00207044)
(10.8262 -0.00254662 0.000924069)
(10.8273 -0.005177 -0.00474126)
(10.8313 -0.00577585 -0.00415255)
(10.8306 -0.00288645 0.00320675)
(10.8263 0.00136863 0.0149814)
(10.8209 0.000219453 0.0116064)
(10.8238 0.000596816 -0.012212)
(10.8267 0.00371484 -0.000224399)
(10.8188 0.00170571 0.00789126)
(10.8191 0.00209806 -0.00478934)
(10.8256 -0.00193983 -0.00675773)
(10.8262 -0.00394835 -0.000808827)
(10.8225 -0.000603438 -0.00294021)
(10.8256 0.00231713 -0.00943814)
(10.8323 0.00229028 -0.00400462)
(10.8322 0.000963896 0.000346306)
(10.8308 0.000208552 -0.000657084)
(10.8301 0.000373565 0.00401755)
(10.8256 -0.00160843 0.00545823)
(10.8259 -0.000647052 -0.00386012)
(10.8286 0.00228573 0.00316118)
(10.8221 0.000938065 0.0128787)
(10.8195 -0.000848799 -0.00190282)
(10.8286 0.000734441 -0.00936336)
(10.8321 0.00350241 0.00122607)
(10.827 0.0029107 0.00248202)
(10.825 -0.00195906 -0.00522028)
(10.8285 -0.00284543 -0.0104592)
(10.83 0.00102858 -0.000240255)
(10.827 0.00210054 0.00576666)
(10.8273 0.001772 0.00232177)
(10.8266 -0.000575154 0.00955318)
(10.8233 -0.00232398 2.71969e-05)
(10.8272 -0.000816585 -0.0109322)
(10.8316 -9.89428e-05 -0.00252485)
(10.831 -0.00103771 0.00051727)
(10.827 -0.00110849 0.00700274)
(10.8242 -0.000915797 0.00997025)
(10.8117 0.00137688 0.000894901)
(10.8249 -0.00124576 0.00582446)
(10.8179 -0.00156544 0.00575334)
(10.821 0.00173961 -0.00482305)
(10.825 0.000300764 -0.00595201)
(10.8269 -0.000317847 0.00411919)
(10.8243 0.00192476 0.00150982)
(10.8216 0.00340106 -0.00599141)
(10.8308 0.00133694 -0.00768916)
(10.8326 0.00129221 -0.00203505)
(10.8303 0.00246223 -0.000821187)
(10.8275 0.000500898 0.00150551)
(10.8264 0.000529821 -0.00300626)
(10.8285 0.00263282 -0.000613344)
(10.8267 -0.0021903 0.0136711)
(10.8203 -0.00634781 0.00914448)
(10.8222 -0.00232199 -0.0046943)
(10.8314 0.00123966 -0.0050303)
(10.832 0.00252646 0.00569865)
(10.8238 0.00367114 0.0017007)
(10.8234 0.00281276 -0.00474319)
(10.8156 0.00162707 -0.00721751)
(10.8311 0.00188303 -0.00264627)
(10.8253 0.00102942 0.00368661)
(10.8248 -0.0015611 0.00280732)
(10.8256 -0.00407444 0.00612009)
(10.8259 -0.00300168 -0.00131272)
(10.8295 0.00120955 -0.00329818)
(10.8311 0.00257523 -0.000137497)
(10.8296 0.000743797 0.00154546)
(10.8264 -0.00220805 0.0103023)
(10.8233 -0.00244093 0.00594276)
(10.8234 -0.00302257 0.00105361)
(10.824 -0.00562596 -0.00327214)
(10.822 -0.00173776 -0.00245481)
(10.8211 0.00188041 -0.00124515)
(10.8234 -0.00145523 -0.0040008)
(10.8278 -0.00169643 0.00374189)
(10.8262 0.00285968 0.00411916)
(10.8251 0.00454202 -0.00437973)
(10.8302 0.00237167 -0.0069743)
(10.8327 0.0005772 0.000881526)
(10.83 0.00115784 0.00268464)
(10.8282 0.000640366 0.00170432)
(10.8277 0.00264588 0.0049357)
(10.8231 0.00374797 0.00653073)
(10.8198 -0.0026221 -0.00150068)
(10.8219 -0.00645147 -0.00591106)
(10.827 -0.00511746 -0.00340331)
(10.8335 -9.76457e-07 -0.00741507)
(10.8345 0.00194557 0.00235199)
(10.8273 0.00180451 0.0106555)
(10.823 0.00595377 0.00192738)
(10.8276 0.0043816 -0.00598906)
(10.8294 -0.00152774 0.00568528)
(10.8236 -0.00460142 0.0122213)
(10.8222 -0.00540206 -0.00103567)
(10.8252 -0.00344972 -0.00341494)
(10.8285 0.000199102 -0.0031461)
(10.8244 0.000130271 -0.00099598)
(10.8313 -0.000177614 0.00574366)
(10.8263 0.00110581 0.0040214)
(10.8239 -0.000303943 -0.0017818)
(10.8233 -0.00248923 6.10665e-05)
(10.824 -0.00288588 -0.00248984)
(10.8262 0.000289616 -0.00902124)
(10.8251 0.00266355 -0.00173451)
(10.8168 0.00174069 0.000720351)
(10.8214 -0.0017068 -0.0120112)
(10.8311 -0.00230236 -0.0062432)
(10.8304 0.000382609 0.00719255)
(10.825 0.00229659 0.0057148)
(10.8268 0.00216802 -2.16048e-05)
(10.8314 -6.04006e-05 -0.00349807)
(10.8304 -0.00116896 -0.00120383)
(10.8291 -0.00103819 -0.00114547)
(10.8294 0.00133976 0.00387267)
(10.8233 0.00265031 0.0115418)
(10.8166 0.000352569 0.00460131)
(10.8178 -0.000426222 -0.00730617)
(10.8286 0.000455797 -0.0154965)
(10.8229 0.00134448 -0.00607862)
(10.8336 -0.000763724 0.00512035)
(10.8277 -0.0018488 0.00314672)
(10.8259 0.00142913 0.00675981)
(10.8235 0.000176425 0.00683271)
(10.8222 -0.00585325 0.00427952)
(10.8215 -0.00623262 -0.0029574)
(10.8259 -0.00307969 -0.0111127)
(10.8311 -0.000502533 -0.00470048)
(10.8294 0.00217551 -0.00062886)
(10.8291 -0.000265703 -0.00565153)
(10.832 -0.00275014 0.00399284)
(10.8295 -0.00134693 0.0160439)
(10.8228 0.000620774 0.0100434)
(10.8207 0.00115548 -0.0056483)
(10.8261 8.52413e-05 -0.00828938)
(10.8294 0.00499644 0.000718605)
(10.8235 0.00664851 0.00453683)
(10.776 0.00125776 0.00131021)
(10.7827 0.000128083 -0.0124711)
(10.7931 -0.000800715 -0.00909065)
(10.794 -0.00113914 0.005519)
(10.7901 -0.000539197 0.00436572)
(10.791 0.000599305 -0.00134861)
(10.7932 0.000440858 -0.000937558)
(10.7923 -0.000819671 -0.00210368)
(10.794 -0.000926583 -0.0073947)
(10.7946 0.00083494 0.00499462)
(10.7854 0.000982802 0.0139618)
(10.7799 -0.000379501 -0.000371746)
(10.7853 0.00103337 -0.00502978)
(10.792 0.00387694 -0.00266881)
(10.7955 0.00115401 0.000553784)
(10.7947 -0.00235741 0.00105015)
(10.7927 -0.00123681 -0.00121111)
(10.7882 -0.000666919 0.0040777)
(10.7836 -0.00225722 -0.0013706)
(10.7862 -0.00389 -0.00785832)
(10.7895 -0.00143794 -0.00107603)
(10.7911 0.000980817 -0.0031606)
(10.7935 0.000490531 -0.00356622)
(10.7919 0.000102642 0.000390556)
(10.7911 -0.000261436 -0.00336775)
(10.7934 -0.00125482 -0.000211948)
(10.7928 -0.00217324 0.00263661)
(10.7895 -0.00114522 0.00593861)
(10.7811 0.00138608 0.00409668)
(10.791 0.000971081 -0.00947889)
(10.7958 0.00294177 0.00747356)
(10.7852 0.00427755 0.0192225)
(10.7254 -0.00318724 0.00116105)
(10.6888 -0.000827801 0.00193703)
(10.7087 -0.00468885 0.00546472)
(10.7216 -0.00246666 -0.00177183)
(10.716 0.00270223 -0.0102968)
(10.6853 -0.000147708 -0.00626391)
(10.7047 0.00364818 0.000983694)
(10.697 -0.00149926 0.00268815)
(10.6954 -0.00368613 0.00565916)
(10.7183 0.00656367 0.000672655)
(10.68 0.00461846 -0.00136962)
(10.6959 -0.000401983 0.00175811)
(10.697 -0.000626746 0.00117097)
(10.6841 -0.00170234 0.00284342)
(10.7049 -0.000513461 -0.000704716)
(10.6975 0.00447449 -0.00873759)
(10.6727 0.00206852 -0.0072594)
(10.6621 -0.00746911 0.00847689)
(10.7222 -0.00735731 0.00808504)
(10.6901 0.0053357 -0.000727644)
(10.695 0.0133568 -0.0070839)
(10.6855 0.0145118 -0.0172754)
(10.506 -0.00763218 0.00520542)
(10.746 -0.0123604 0.0129739)
(10.6518 0.00179063 -0.00116945)
(10.6773 -0.00435352 0.00738615)
(10.6981 -0.00886812 0.00815751)
(10.7237 -0.000978733 -0.000957652)
(10.6927 0.00972856 -0.0018202)
(10.6838 -0.00365301 0.00452244)
(10.7393 -0.00128441 -0.00119308)
(10.6722 0.00527485 -0.000415071)
(10.7417 -0.0151522 -0.00274418)
(10.7215 -0.00262256 0.000957721)
(10.7478 0.00602413 0.00170855)
(10.691 0.00160335 -0.00211099)
(10.7228 0.00332837 -0.00748914)
(10.6875 0.00186259 -0.0066594)
(10.6843 -0.000153397 0.00479514)
(10.7402 0.00214739 0.00212328)
(10.6581 -0.00889168 0.004275)
(10.7485 -0.00160189 0.00606829)
(10.7196 0.00386862 0.00193511)
(10.7438 0.00166067 0.00151069)
(10.7226 0.00570962 0.00044491)
(10.715 -0.00387485 0.00146367)
(10.7321 -0.00402926 -0.000772907)
(10.7271 0.01463 -0.00593412)
(10.6953 0.0134229 -0.00659109)
(10.6806 -0.0101651 0.00124595)
(10.707 -0.0113632 0.00139072)
(10.6691 0.000153275 0.00335666)
(10.7242 0.0126549 0.00261162)
(10.7297 0.0223216 -0.00617875)
(10.706 -0.00370102 -0.000944568)
(10.7165 -0.0168898 0.00405112)
(10.7088 -0.0070066 0.000831422)
(10.7205 -0.0183547 0.00472654)
(10.7556 -0.00992419 0.00136053)
(10.7057 0.0152529 -0.00113073)
(10.6796 0.0140877 0.00627767)
(10.7579 -0.0176593 0.00150616)
(10.7083 0.00123894 -0.00231563)
(10.7267 0.0103064 0.00275652)
(10.705 -0.000970613 -0.0109106)
(10.6297 -0.00727144 -5.86267e-06)
(10.7214 -0.00399873 0.0109225)
(10.7397 0.000768497 0.000747837)
(10.7279 0.00215077 -0.00837388)
(10.7239 0.00785913 -0.00705598)
(10.7021 -0.00224249 0.000382921)
(10.7031 -0.00245415 0.00506052)
(10.7621 -0.000646554 -0.000540018)
(10.6669 -0.00357254 0.000509508)
(10.7368 -0.00671509 0.00104083)
(10.6786 0.00214037 0.00265207)
(10.7392 0.0140537 0.00513442)
(10.7006 -0.0027221 -0.00150268)
(10.7316 -0.00772744 -0.00437115)
(10.6841 0.0114538 0.00200215)
(10.7675 0.0128973 0.00256093)
(10.7182 -0.005886 -0.000563562)
(10.7626 -0.0134405 -0.00134061)
(10.7284 -0.00363005 -0.000175207)
(10.7433 0.00473882 0.000715487)
(10.7235 0.0118717 -0.00180912)
(10.7254 0.0109899 0.00276478)
(10.733 -0.00635908 0.00101635)
(10.7232 -0.0159396 -0.00358826)
(10.7095 -0.0132336 -0.00421016)
(10.6879 -0.00450725 0.00216652)
(10.7091 0.00819487 0.0124306)
(10.7573 0.00277744 0.00895963)
(10.7775 -0.000413303 -0.0112052)
(10.626 0.00903258 -0.000543946)
(10.7765 0.00326256 0.00642491)
(10.7609 0.0116074 -0.00316182)
(10.7696 -0.00517043 -0.0051283)
(10.7312 -0.0102871 -0.000219487)
(10.7295 0.00158169 -0.00183407)
(10.7127 0.00594841 -0.0066231)
(10.69 0.00253054 -0.00114478)
(10.7391 -0.000484923 0.00127254)
(10.7094 -0.00569727 -0.000489096)
(10.6986 0.00250446 0.00415908)
(10.7326 -0.0045147 0.00377928)
(10.7667 -0.00346085 -0.00364357)
(10.6796 0.00994265 0.00242886)
(10.7323 0.00342791 0.0100318)
(10.7572 -0.00350595 -0.000997723)
(10.7261 0.00101397 -0.00730252)
(10.7026 0.00679175 0.00245554)
(10.7314 0.000708102 0.00271702)
(10.7133 -0.00375358 -0.00413107)
(10.716 -0.00646883 -0.00772384)
(10.6504 -0.00120645 -0.000232094)
(10.7303 0.00389991 0.00481807)
(10.6914 0.00522409 0.00262336)
(10.7183 0.00260901 0.00849072)
(10.7617 -0.00372023 0.000423133)
(10.7184 0.000480289 -0.00831247)
(10.677 0.00370966 -0.00281809)
(10.7363 -0.00242625 0.00035648)
(10.66 -0.00537635 0.0053001)
(10.7139 -0.00540578 0.00833809)
(10.7007 0.0132523 -0.000168527)
(10.7202 -0.00360389 0.00371246)
(10.7527 -0.0105066 0.00465709)
(10.7437 0.00409138 -0.00343227)
(10.6777 0.00265442 -0.00357317)
(10.7124 0.00388963 0.00572922)
(10.7064 0.0072708 0.00282288)
(10.7226 0.00654554 -0.00407566)
(10.7082 -0.00199166 -0.00567293)
(10.6925 0.00142134 -0.000781749)
(10.7078 0.0053479 -0.000862941)
(10.6777 -0.00104652 0.00103511)
(10.7067 -0.00024651 -0.00334553)
(10.6181 0.0111706 -0.00133733)
(10.6675 -0.00576074 0.0122892)
(10.7229 -0.0212847 0.00813986)
(10.7232 -0.00269308 -0.00456896)
(10.7051 0.00302782 -0.00359177)
(10.7239 0.00313222 0.00612875)
(10.7498 0.0096907 0.00164356)
(10.6977 0.00785092 -0.00159071)
(10.7298 0.00454559 -0.00571398)
(10.6893 0.00617883 -0.00284063)
(10.695 0.00603028 0.0027336)
(10.6805 -0.00468713 0.00215089)
(10.6872 -0.0145739 0.00352066)
(10.7204 -0.00391967 -0.000923737)
(10.6816 0.0105065 -0.000584169)
(10.731 0.00870725 -0.00061453)
(10.6871 0.00240871 0.000427765)
(10.7088 -0.010121 0.00734501)
(10.7563 -0.0100945 0.00481481)
(10.7168 -0.00408573 0.00148685)
(10.7729 -0.0162333 -0.00284216)
(10.6925 -0.00772334 -0.00248369)
(10.7136 0.00638109 -0.00104384)
(10.6841 -0.00643737 -0.00265769)
(10.7158 -0.010319 0.00435076)
(10.7272 0.00609599 0.00519533)
(10.7281 0.0124738 -0.00368869)
(10.6985 0.00840003 -0.00525335)
(10.6914 -0.000778189 0.00187911)
(10.7302 0.000508454 0.00289126)
(10.7179 -0.0016334 0.00128464)
(10.7352 0.00835465 0.00301858)
(10.7415 0.0137678 0.00480234)
(10.7577 -0.00969185 -0.00117067)
(10.6794 -0.0183722 -0.00317462)
(10.6989 -0.0122148 -0.00240215)
(10.7282 -0.00091656 -0.00524807)
(10.6619 0.000374585 0.00115622)
(10.7254 0.00258723 0.00889145)
(10.7363 0.0131508 0.00126272)
(10.7321 0.0150703 -0.006582)
(10.6784 0.0056454 0.00572931)
(10.765 -0.00882264 0.010594)
(10.7791 -0.0160213 -0.00115781)
(10.7619 -0.0120242 -0.00211561)
(10.769 0.000839693 -0.000680273)
(10.7536 -0.00209044 -0.000134217)
(10.7761 0.00296794 0.00407848)
(10.7881 0.0133919 0.00142227)
(10.7509 -0.000435395 -0.00291305)
(10.6985 -0.0119268 0.000544918)
(10.7598 -0.0100854 -0.00100584)
(10.7128 0.0041979 -0.00677976)
(10.6775 0.00798901 -0.00261591)
(10.7222 0.00368217 0.00106476)
(10.7276 -0.00848887 -0.00939376)
(10.675 -0.0129132 -0.00289872)
(10.6986 0.00168862 0.00564631)
(10.7073 0.00885018 0.00489981)
(10.7248 0.0063795 -0.000162262)
(10.7324 -0.00145965 -0.0015163)
(10.7045 -0.00502238 7.00422e-06)
(10.7408 -0.00871891 4.32263e-05)
(10.7092 0.00124267 0.00219387)
(10.724 0.0085384 0.00819705)
(10.7313 0.00129057 0.00409217)
(10.7525 0.00108777 -0.00458764)
(10.7307 0.000919291 -0.0114534)
(10.6531 0.0077146 -0.00432672)
(10.6917 -0.00181265 0.00315734)
(10.6989 -0.0122268 0.00130269)
(10.6867 0.00266523 0.00540191)
(10.7322 0.00474096 0.00583109)
(10.739 -0.01597 0.00430741)
(10.7685 -0.0166169 -0.00213252)
(10.7072 -0.00383207 -0.00900622)
(10.684 -9.55547e-05 -0.00416133)
(10.695 0.00432581 0.000602075)
(10.7056 -0.00273988 -0.00393025)
(10.6533 -0.00735287 0.0033792)
(10.7148 -0.0019116 0.0144842)
(10.7432 0.00845454 0.00799453)
(10.7765 0.00448105 -0.00499295)
(10.6953 -0.00733054 -0.00591631)
(10.752 0.0177167 0.000868143)
(10.7095 0.0219158 0.00306757)
(10.7126 0.00117695 0.000866848)
(10.721 -0.000358204 -0.00871161)
(10.695 -0.0027874 -0.00612387)
(10.6933 -0.00217282 0.00545464)
(10.7189 -0.00149632 0.00312352)
(10.694 -0.000720658 -0.000500345)
(10.7091 0.00276026 -0.00101865)
(10.7027 -0.00136867 -0.00165157)
(10.7171 -0.00627138 -0.00583229)
(10.6535 0.00221151 0.00441452)
(10.7196 0.0028673 0.0108195)
(10.701 -0.00483616 -0.000194185)
(10.6854 0.00258326 -0.00323443)
(10.7082 0.0138063 -0.000936326)
(10.7213 0.00658909 0.000757654)
(10.7269 -0.00462126 0.00105044)
(10.7201 -0.00467176 -0.000727781)
(10.691 -0.00287131 0.00367981)
(10.7323 -0.00874918 -0.000830869)
(10.6695 -0.0128989 -0.00640555)
(10.6626 0.000440363 -0.000417213)
(10.694 0.00818058 -0.00118235)
(10.6705 0.00174498 -0.00214622)
(10.6817 0.00143894 0.0011671)
(10.6952 0.0020814 -0.00102212)
(10.6693 -0.00479685 -0.000682697)
(10.6899 -0.0137689 0.00172551)
(10.6344 -0.00417728 0.00414186)
(10.6841 0.00996745 0.00442061)
(10.6979 -0.00117446 -0.00889722)
(10.622 0.00832262 0.00563522)
(10.7288 0.0158416 0.0146221)
)
;

boundaryField
{
    wall
    {
        type            fixedValue;
        value           uniform (0 0 0);
    }
    outlet
    {
        type            cyclic;
    }
    inlet
    {
        type            cyclic;
    }
    procBoundary3to2
    {
        type            processor;
        value           nonuniform List<vector> 
256
(
(17.9654 2.9622e-05 -0.00111332)
(17.9668 -1.07453e-05 -0.00135205)
(17.9661 -0.000214613 0.00119594)
(17.9642 -0.000315391 -0.000539669)
(17.9655 -1.72878e-05 -0.00590086)
(17.9694 4.54983e-05 -0.00593539)
(17.9717 -0.00013392 -0.00170474)
(17.97 -0.00052307 0.00121671)
(17.9683 -0.000269862 0.00353365)
(17.9674 0.000493765 0.00296023)
(17.9658 0.000411311 0.00116737)
(17.9652 3.26519e-05 0.000815811)
(17.9649 -0.000298542 -0.000400316)
(17.9654 -6.53655e-05 -0.000737093)
(17.9605 0.000597147 -0.00181608)
(17.9577 0.000514724 -0.0046834)
(17.9625 0.000281259 -0.00368473)
(17.9659 5.34322e-06 0.00202767)
(17.9655 -5.58047e-05 0.00311636)
(17.9643 0.000817827 -0.000488395)
(17.9602 0.00121226 -0.00430831)
(17.964 0.000463573 -0.00647493)
(17.9716 -0.000501003 0.000904411)
(17.9696 -0.00113463 0.00492144)
(17.9693 -0.000974979 0.00318018)
(17.9659 -0.000501571 0.00617422)
(17.963 -0.000464121 0.00615658)
(17.9645 -0.000163507 0.00213893)
(17.9653 0.000275741 0.000777182)
(17.9655 6.53698e-05 0.00254923)
(17.9646 0.00026729 0.00171631)
(17.9645 0.000411391 0.000320577)
(18.0064 -0.000156306 -0.00140987)
(18.0079 -0.000218871 -0.000921349)
(18.0071 -0.0002358 0.000497956)
(18.0057 -0.000367673 -0.00192088)
(18.0072 -0.000118284 -0.00559904)
(18.0106 0.000179132 -0.00570155)
(18.0124 0.000538952 -0.00161001)
(18.0066 0.000184455 0.000591895)
(17.9999 -0.000563871 0.00278136)
(18.0031 -0.000252966 0.00372002)
(18.0066 1.06365e-05 0.00179852)
(18.0058 5.5182e-05 0.000809296)
(18.0062 0.000422058 -0.000826069)
(17.9994 0.000258703 -0.00118383)
(17.9998 0.000305297 -0.0015819)
(18.0018 0.00143211 -0.00334702)
(17.9987 0.00131687 -0.00271491)
(18.0053 -0.000308379 0.000786834)
(18.0082 -0.000456173 0.00191806)
(18.0069 0.00108004 0.00104319)
(18.0077 0.0017339 -0.00082114)
(18.009 0.000952014 -0.00326324)
(18.0102 -0.00018659 -0.00015173)
(18.0104 -0.00127272 0.00203529)
(18.0036 -0.00205882 0.002203)
(18.0023 -0.00236526 0.0046316)
(18.0069 -0.00145612 0.00413811)
(18.0066 -0.000254684 0.00215644)
(18.0068 0.00012609 0.00265904)
(18.0064 0.00030023 0.00204269)
(18.0059 0.00114811 0.00144452)
(18.0055 0.000940868 0.00131622)
(18.0057 7.16541e-05 -0.0033876)
(18.0082 -0.000751576 -0.00125007)
(18.0073 -0.000928561 0.00202028)
(18.0057 -0.000334246 -0.00134952)
(18.0074 6.36081e-05 -0.00541578)
(18.0074 0.000577678 -0.00495329)
(18.0082 0.00120615 -0.00113261)
(18.0092 0.000813895 0.000989376)
(18.0078 -0.000358873 0.00110613)
(18.008 -0.000959994 0.00226578)
(18.0074 -0.000723723 0.00144881)
(18.007 0.000574372 0.0008972)
(18.0027 0.0016478 0.00101097)
(18.0029 0.000373608 -0.00114033)
(18.0013 -0.000260708 -0.00249103)
(17.9959 0.00187149 -0.00119562)
(18.0001 0.00186968 -0.000891877)
(18.0045 -0.00072781 -0.000212792)
(18.0069 -0.00110153 0.000742303)
(18.0072 0.00043205 0.000893134)
(18.0073 0.00141293 0.000473944)
(18.0021 0.00121212 -0.00115356)
(18.0028 -7.5347e-05 0.000644731)
(18.0091 -0.00104982 0.0009457)
(18.0096 -0.00203304 -0.000576414)
(18.0073 -0.00279265 0.000850363)
(18.0059 -0.00150917 0.00316476)
(18.0075 -0.000217703 0.00462977)
(17.999 -0.000218007 0.00359671)
(17.9986 0.000598506 5.35627e-05)
(18.0055 0.00144791 0.00218045)
(18.0045 0.000855545 0.00221884)
(18.0048 0.000300437 -0.0017765)
(18.007 -0.000963943 -0.00297504)
(18.0076 -0.00141209 -0.00154676)
(18.0067 0.000106188 -0.00244471)
(18.0082 0.00108406 -0.00489238)
(18.005 0.000798795 -0.00340215)
(18.0059 0.000897761 -0.000643845)
(18.0082 0.00123492 5.58644e-05)
(18.0011 0.000476776 0.00167759)
(18.0026 -0.000862744 0.00233543)
(18.0041 -0.000817979 0.000314456)
(18.0026 0.000372316 0.00191168)
(18.0045 0.000326912 0.00310143)
(18.0058 -0.000234919 -0.00146503)
(18.0022 0.000961638 -0.00336919)
(17.9967 0.00225107 -0.000289524)
(18.0023 0.00159012 0.000404354)
(18.0056 -0.000653833 -0.0011302)
(18.0064 -0.00115331 -0.00166424)
(18.0095 0.000663366 0.000368759)
(18.0085 0.00144225 0.00149468)
(18.009 0.000293461 0.000714712)
(18.0085 -0.00143278 0.00189153)
(18.0076 -0.00149615 0.000135529)
(18.0095 -0.000586487 -0.00202589)
(18.0035 -0.000324253 -6.32966e-05)
(18.0025 -0.000789819 0.00198938)
(18.0079 -0.000484549 0.00379203)
(18.0009 0.000239511 0.00285751)
(17.9989 5.7943e-05 0.00228216)
(18.0037 -0.000582914 0.00452833)
(18.0042 -0.000212543 0.00243752)
(18.005 0.00055688 -0.00153663)
(18.0065 -8.61191e-05 -0.00297783)
(18.0017 -0.000634554 -0.00153147)
(18.0014 0.000237622 -0.00194057)
(18.0081 0.00152782 -0.00347426)
(18.0058 0.000970056 -0.00312576)
(18.0027 0.000880506 -0.000719444)
(18.0064 0.00204777 0.000604951)
(18.0092 0.00125712 0.00118503)
(18.008 0.000261858 0.000750889)
(18.0024 0.000468302 0.000948622)
(17.996 -0.0010401 0.00316138)
(17.9993 -0.00256401 0.00192508)
(17.9984 -0.00121021 -0.00202526)
(17.9969 0.00121393 -0.00222541)
(17.9978 0.00202895 0.00138815)
(18.0008 0.00154051 0.00128213)
(18.0065 0.000746818 -0.00226472)
(18.0017 0.000104748 -0.00194863)
(18.0029 0.000283121 0.00173909)
(18.0076 0.000108794 0.0022676)
(18.0074 -0.00102937 0.000682002)
(18.0011 -0.00171143 0.000649579)
(18.0003 -0.00086018 -0.000680222)
(18.0027 0.000514092 -0.000821286)
(18.0023 0.000389197 0.00129849)
(18.0076 -0.00115173 0.00270501)
(18.0051 -0.00139379 0.00386428)
(18.0043 -0.000204002 0.00265578)
(18.007 -0.000558403 0.00125449)
(18.0063 -0.00142157 0.000757798)
(18.0054 -0.000294262 0.00037464)
(18.0051 0.000888568 -0.000371702)
(18.0059 0.00019702 -0.00270901)
(18.008 -1.43308e-05 -0.00172358)
(18.0007 0.000432091 -0.000658724)
(18.0007 0.000907036 -0.00200997)
(18.0042 0.00077943 -0.00259932)
(17.9986 0.000680712 6.76141e-05)
(18.0038 0.00108224 0.00171586)
(18.0092 0.00100618 0.00157693)
(18.0075 0.00152137 0.00257284)
(18.0061 0.00165728 0.00280151)
(18.0052 -0.000636942 1.39302e-05)
(18.0021 -0.00206818 -0.0025851)
(17.9976 -0.00148228 -0.00340707)
(17.9973 -6.84976e-05 -0.0024824)
(18.001 0.000753408 0.00139206)
(18.005 0.000683243 0.00330261)
(18.0071 0.00171312 0.00126248)
(18.0041 0.00124792 -0.000140739)
(18.0036 -0.00123151 0.00228721)
(18.0061 -0.00233591 0.00274083)
(18.0072 -0.00212138 -0.000279949)
(18.0051 -0.0012345 -0.00144366)
(18.0062 0.000165911 -0.00236262)
(18.0108 0.000238862 -0.000590228)
(18.0101 -0.00100123 0.00285555)
(18.0089 -0.00106764 0.0034397)
(18.0007 -0.000191467 0.00218886)
(17.9959 -0.000329197 0.000471226)
(18.0028 -0.000629217 -0.000845705)
(18.0051 0.000238229 -0.00112139)
(18.0044 0.00106487 0.000451215)
(18.004 0.00111417 -0.000156237)
(18.0056 -3.95434e-05 -0.00462465)
(18.0087 -0.000118059 -0.00328796)
(18.009 9.32071e-05 0.00072606)
(18.0084 0.000131747 0.000680808)
(18.0028 0.000775419 -0.00114364)
(17.9973 0.00037265 -0.000546282)
(18.0039 -0.00025899 0.00115067)
(18.0089 0.000344428 0.00117692)
(18.008 0.00119389 0.00275966)
(18.0065 0.00114081 0.00420696)
(18.0044 0.000339381 0.00070831)
(18.005 0.000209317 -0.00388917)
(18.0093 0.000196101 -0.0064392)
(18.006 -0.000188725 -0.00202958)
(18.0054 -0.000532068 0.00272098)
(18.008 -0.000435485 0.00235914)
(18.006 0.000537708 0.00310918)
(18.0071 0.000121253 0.00220235)
(18.0068 -0.00245988 0.00071134)
(18.0067 -0.00335069 -0.001398)
(18.0085 -0.00172152 -0.00371529)
(18.0033 6.4236e-05 -0.00208796)
(18.0032 0.000814062 -0.000322789)
(18.0095 -9.81054e-05 -0.00056731)
(18.0097 -0.00125953 0.00172913)
(18.0023 -0.000632741 0.00495307)
(18.001 0.000733601 0.00439917)
(18.006 0.000361693 -0.000133812)
(18.0063 -0.000371197 -0.00231586)
(18.008 0.00127241 0.00049804)
(18.006 0.00226497 0.00241574)
(17.9614 0.000739463 0.000817591)
(17.9633 9.76781e-05 -0.00457564)
(17.9668 -0.000234424 -0.00406179)
(17.9666 -0.000488019 -0.000353726)
(17.9606 -0.000166624 0.000129577)
(17.9571 0.000610527 -0.000656126)
(17.9583 0.000207839 -0.000118932)
(17.9594 -0.000422221 0.000351276)
(17.9635 5.33445e-05 7.44364e-05)
(17.9666 0.00058461 0.00331726)
(17.9647 0.000448755 0.0049922)
(17.9629 0.000115137 0.000248589)
(17.9643 0.000313556 -0.00294486)
(17.9678 0.000750422 -0.00282966)
(17.9651 0.00016298 -0.0010372)
(17.9628 -0.000552795 0.000591133)
(17.9664 -0.000334126 0.00133603)
(17.9647 -0.000188753 0.00249495)
(17.963 -0.000571982 0.000117626)
(17.9647 -0.00143764 -0.00273974)
(17.9601 -0.00145448 -0.00234025)
(17.9562 -0.000198241 -0.00249376)
(17.9577 0.00062757 -0.00160549)
(17.9626 0.000373211 -0.000260559)
(17.9673 -0.000185893 -0.000737886)
(17.9667 -0.000474432 0.000711145)
(17.9616 -0.000444757 0.00304598)
(17.961 -0.000110173 0.00335831)
(17.9651 0.000178529 0.00114645)
(17.9643 6.5553e-06 -0.00153411)
(17.9616 0.000763581 0.00308674)
(17.9607 0.00144399 0.00623277)
)
;
    }
}


// ************************************************************************* //
