/*--------------------------------*- C++ -*----------------------------------*\
| =========                 |                                                 |
| \\      /  F ield         | OpenFOAM: The Open Source CFD Toolbox           |
|  \\    /   O peration     | Version:  2506                                  |
|   \\  /    A nd           | Website:  www.openfoam.com                      |
|    \\/     M anipulation  |                                                 |
\*---------------------------------------------------------------------------*/
FoamFile
{
    version     2.0;
    format      ascii;
    arch        "LSB;label=32;scalar=64";
    class       volVectorField;
    location    "0.002";
    object      Us;
}
// * * * * * * * * * * * * * * * * * * * * * * * * * * * * * * * * * * * * * //

dimensions      [0 1 -1 0 0 0 0];

internalField   nonuniform List<vector> 
512
(
(0 0 0)
(0 0 0)
(0 0 -0.108732)
(0 0 0)
(0 0 0)
(0 0 0)
(0 0 0)
(0 0 0)
(0 0 0)
(0 0 0)
(0 0 0)
(0 0 0)
(0 0 0)
(0 0 0)
(0 0 0)
(0 0 0)
(0 0 0)
(0 0 0)
(0 0 0)
(0 0 0)
(0 0 0)
(0 0 0)
(0 0 0)
(0 0 0)
(0 0 0)
(0 0 0)
(0 0 0)
(0 0 0)
(0 0 0)
(0 0 0)
(0 0 0)
(0 0 0)
(0 0 0)
(0 0 0)
(0 0 0)
(0 0 0)
(0 0 0)
(0 0 0)
(0 0 0)
(0 0 0)
(0 0 0)
(0 0 0)
(0 0 0)
(0 0 0)
(0 0 0)
(0 0 -0.16402)
(0 0 0)
(0 0 0)
(0 0 0)
(0 0 0)
(0 0 0)
(0 0 0)
(0 0 0)
(0 0 0)
(0 0 0)
(0 0 0)
(0 0 0)
(0 0 0)
(0 0 0)
(0 0 0)
(0 0 0)
(0 0 0)
(0 0 0)
(0 0 0)
(0 0 0)
(0 0 0)
(0 0 0)
(0 0 0)
(0 0 0)
(0 0 0)
(0 0 0)
(0 0 0)
(0 0 0)
(0 0 0)
(0 0 0)
(0 0 0)
(0 0 0)
(0 0 0)
(0 0 0)
(0 0 0)
(0 0 0)
(0 0 -0.150879)
(0 0 0)
(0 0 0)
(0 0 0)
(0 0 0)
(0 0 0)
(0 0 0)
(0 0 0)
(0 0 0)
(0 0 0)
(0 0 0)
(0 0 0)
(0 0 0)
(0 0 0)
(0 0 0)
(0 0 0)
(0 0 0)
(0 0 0)
(0 0 0)
(0 0 0)
(0 0 0)
(0 0 0)
(0 0 0)
(0 0 0)
(0 0 0)
(0 0 0)
(0 0 0)
(0 0 0)
(0 0 0)
(0 0 0)
(0 0 0)
(0 0 0)
(0 0 0)
(0 0 0)
(0 0 0)
(0 0 0)
(0 0 0)
(0 0 0)
(0 0 0)
(0 0 0)
(0 0 0)
(0 0 0)
(0 0 0)
(0 0 0)
(0 0 -0.103099)
(0 0 0)
(0 0 0)
(0 0 0)
(0 0 0)
(0 0 0)
(0 0 0)
(0 0 -0.171976)
(0 0 0)
(0 0 0)
(0 0 0)
(0 0 0)
(0 0 0)
(0 0 0)
(0 0 0)
(0 0 0)
(0 0 0)
(0 0 0)
(0 0 0)
(0 0 0)
(0 0 0)
(0 0 -0.0994907)
(0 0 0)
(0 0 0)
(0 0 0)
(0 0 0)
(0 0 0)
(0 0 0)
(0 0 0)
(0 0 0)
(0 0 0)
(0 0 0)
(0 0 0)
(0 0 0)
(0 0 0)
(0 0 0)
(0 0 0)
(0 0 0)
(0 0 0)
(0 0 0)
(0 0 0)
(0 0 -0.183637)
(0 0 0)
(0 0 0)
(0 0 0)
(0 0 0)
(0 0 0)
(0 0 0)
(0 0 0)
(0 0 0)
(0 0 0)
(0 0 0)
(0 0 0)
(0 0 0)
(0 0 0)
(0 0 0)
(0 0 0)
(0 0 0)
(0 0 0)
(0 0 -0.152876)
(0 0 0)
(0 0 0)
(0 0 0)
(0 0 0)
(0 0 0)
(0 0 0)
(0 0 0)
(0 0 0)
(0 0 0)
(0 0 0)
(0 0 0)
(0 0 0)
(0 0 0)
(0 0 0)
(0 0 0)
(0 0 0)
(0 0 0)
(0 0 0)
(0 0 0)
(0 0 0)
(0 0 0)
(0 0 -0.122044)
(0 0 0)
(0 0 0)
(0 0 0)
(0 0 0)
(0 0 0)
(0 0 0)
(0 0 0)
(0 0 0)
(0 0 0)
(0 0 0)
(0 0 0)
(0 0 0)
(0 0 0)
(0 0 0)
(0 0 0)
(0 0 0)
(0 0 0)
(0 0 0)
(0 0 0)
(0 0 0)
(0 0 0)
(0 0 0)
(0 0 0)
(0 0 0)
(0 0 0)
(0 0 0)
(0 0 0)
(0 0 0)
(0 0 0)
(0 0 0)
(0 0 0)
(0 0 0)
(0 0 0)
(0 0 0)
(0 0 0)
(0 0 0)
(0 0 0)
(0 0 0)
(0 0 0)
(0 0 0)
(0 0 0)
(0 0 0)
(0 0 0)
(0 0 0)
(0 0 0)
(0 0 -0.157928)
(0 0 0)
(0 0 0)
(0 0 0)
(0 0 0.184659)
(0 0 0.0463647)
(0.114977 -0.0033922 0.0309928)
(0 0 0.271689)
(0 0 0.00301513)
(0 0 0.101113)
(-0.113742 0.00496014 0.0350587)
(-0.000383096 -0.010456 -0.00762946)
(0.04472 -0.00195019 0.060085)
(0 0 0.111517)
(0 0 0.121336)
(0 0 0.0456538)
(0 0 0.0348163)
(0 0 0.0586457)
(0 0 -0.046078)
(0 0 0.0472928)
(0.000528371 0.000543652 -0.00406884)
(0 0 0.141256)
(0 0 0.322153)
(0 0 -0.0220042)
(0 0 -0.050052)
(0 0 0.0861381)
(0 0 0.00485073)
(0 0 -5.70547e-08)
(0 0 0.0578427)
(0 0 -0.0193044)
(0.03977 -0.0444795 0.0596168)
(0 0 0.200811)
(0 0 0.0778038)
(0 0 0.0393025)
(0 0 0.0141871)
(-0.0349556 0.0010313 0.118727)
(-0.0110197 -0.0346982 -0.0411306)
(0.0505683 -0.00390779 0.0728436)
(0 0 0.0477562)
(0 0 0.118375)
(0 0 0.0597366)
(0 0 0.0742774)
(0 0 0.0468468)
(-0.00106436 -0.0290498 0.0164519)
(-0.017515 -0.00951362 0.127804)
(0 0 0.00576902)
(0 0 0.0456267)
(0 0 0.0990191)
(0 0 -0.0177311)
(0 0 0.0569196)
(0 0 0.118553)
(0 0 0.0237503)
(-0.00142179 -0.00119653 -0.0289879)
(0.0154721 -0.0308767 0.0578617)
(0 0 0.0502044)
(-0.00835711 -0.0796239 0.0344813)
(0 0 -0.0147481)
(0 0 0.134761)
(0 0 0.0330924)
(0 0 0.0313406)
(0 0 -0.0573682)
(-0.028681 -0.00427063 -0.0452937)
(-0.0153746 0.0171953 -0.0300574)
(0 0 0.124468)
(0 0 0.0754049)
(0 0 0.182336)
(0 0 0.0136787)
(0 0 0.0299046)
(0 0 0.196167)
(0 0 0.0529148)
(0 0 0.0180822)
(-0.0317852 -0.0233184 -0.058254)
(0 0 -0.16485)
(0 0 -0.0742735)
(0 0 0.0529663)
(0.0015157 0.0413684 -0.0128092)
(0 0 0.146047)
(0 0 0.0795689)
(0.0489064 0.0353789 -0.0341513)
(-0.0136813 0.00211713 -0.0233226)
(0 0 0.0544483)
(0.1167 -0.0180589 -0.0303713)
(0 0 -0.0302204)
(-0.0474632 0.0241772 0.0393372)
(0 0 -0.146214)
(0.00699531 0.0467931 0.029473)
(0 0 0.145676)
(0 0 0.0702518)
(0 0 0.0505586)
(0.061141 -0.138519 -0.0331493)
(0 0 0.114206)
(0 0 0.0762543)
(0 0 0.0844202)
(0 0 0.027548)
(0 0 0.0539293)
(0 0 0.0857852)
(0.334329 0.0497819 0.00154041)
(0 0 0.046042)
(0 0 0.0272795)
(0 0 0)
(0.00566028 0.396544 0.129886)
(0 0 -0.156915)
(0 0 -0.0192783)
(0 0 -0.0373258)
(0.00158277 0.00116116 -0.010755)
(0 0 0.101018)
(0 0 0.112471)
(0 0 0.0218476)
(0 0 0.125327)
(0 0 -0.044265)
(0 0 0.0263187)
(0.0259754 -0.0266309 0.0431741)
(0 0 -0.052309)
(0 0 0.28895)
(0 0 0.0506346)
(-0.00411372 0.00209548 0.109734)
(-0.0179454 -0.123966 -0.0189637)
(0 0 -0.0403954)
(0 0 0.118936)
(0.00253798 0.00838904 0.00210228)
(0 0 0.028697)
(0 0 0.0920588)
(0 0 0.0771337)
(0 0 0.292548)
(-0.0324857 -0.0464284 0.140092)
(0.0140618 0.00328258 -0.0269478)
(-0.0386199 0.00225419 0.0772143)
(0.0445057 -0.0167736 0.0440198)
(0 0 0.0568552)
(0 0 -0.0117001)
(0 0 0.0977817)
(0 0 0.179833)
(0 0 0.0680452)
(0 0 0.0135578)
(0 0 0.141694)
(0 0 0.0267026)
(0 0 -0.0377559)
(-0.000394111 -0.00017828 0.054179)
(0 0 0.0771479)
(0 0 -0.0193172)
(0 0 -0.00393614)
(0 0 0.0122288)
(-0.0222406 0.0228018 0.00584181)
(-0.052497 -0.00586798 0.0929066)
(0 0 0.14564)
(0 0 -0.122484)
(0.00304884 -0.0108205 0.0271824)
(0 0 0.15533)
(0 0 0.0224174)
(0 0 0.110067)
(0 0 -0.0259169)
(0 0 0.0622571)
(-0.0357406 -0.0458172 0.0464315)
(-1.6417e-06 -0.0275921 0.0201168)
(0 0 -0.146261)
(-0.0413381 0.0118899 -0.0164357)
(0 0 0.16313)
(-0.0269322 0.0121764 0.0128961)
(0.0158912 0.00598811 0.0174716)
(0 0 -0.0275624)
(0 0 0.131656)
(0 0 0.116402)
(0 0 0.301396)
(0 0 0.00582354)
(0 0 0.00466862)
(-0.0432023 -0.049339 -0.0240037)
(6.32448e-05 -0.00152269 0.027925)
(0 0 0.230834)
(0 0 -0.0600038)
(0 0 0.0386526)
(0 0 0.103193)
(-0.0419013 -0.0262188 0.0953469)
(0 0 0.00340654)
(0 0 -0.0352141)
(0 0 -0.027406)
(0 0 0.16835)
(0 0 0.12861)
(0 0 -0.0587644)
(0 0 0.0682556)
(0.011781 0.00588222 -0.0451022)
(0.0747623 0.0719772 0.00712041)
(-0.0171413 -0.00838235 0.0122556)
(0 0 -0.110809)
(0 0 0.120149)
(-0.0240573 0.0545035 0.165305)
(0 0 0)
(0 0 0.156768)
(0 0 0.113114)
(0 0 -0.00884139)
(0.0465657 -0.0546445 0.14985)
(0 0 -0.136783)
(0 0 0.103979)
(-0.00670407 -0.0101859 0.0306267)
(-0.0292496 -0.0444409 0.0268979)
(0 0 0.103402)
(0 0 -0.0595728)
(0 0 0.0542719)
(0 0 -0.134792)
(-0.00603194 -0.00516369 0.0920237)
(0.0283676 0.0203164 -0.0162094)
(0 0 0.0920082)
(0 0 -0.00737255)
(0 0 0.220912)
(0 0 0.115635)
(0 0 0.193274)
(0 0 -0.00908145)
(0 0 -0.0404803)
(-0.0795844 -0.0414861 0.0284325)
(0 0 0.0367732)
(0 0 -0.0681804)
(0 0 0.0321446)
(0 0 0.0115824)
(0 0 -0.0548709)
(0 0 0.067822)
(0 0 0.0195678)
(0 0 0.148077)
(0 0 -0.0427674)
(0 0 -0.037214)
(0 0 -0.0485049)
(0 0 0.0749383)
(-0.00891429 -0.0149877 0.0835735)
(0.00852061 -0.0124234 0.0506208)
(0.0496235 0.0115005 0.236611)
(0 0 0.144285)
(0 0 0)
(-0.00178835 -0.000744955 0.0413718)
(0 0 0.0548302)
(-0.0431322 -0.139003 0.0300932)
(0.018744 -0.147408 -5.70538e-08)
(0 0 0.155164)
(-0.0263054 0.0325192 0.0393207)
(0 0 0.0808881)
(0 0 -0.0267304)
(0 0 0.144702)
(0 0 -0.0608447)
(-0.00647297 -0.0089358 -0.00574978)
(0.0383663 -0.0160481 0.071711)
(0.0636341 0.0398175 0.0997486)
(0 0 0.115757)
(0 0 0.0817498)
(0 0 -0.0191199)
(0.0874647 0.045594 0.0721145)
(0 0 -0.0550958)
(0 0 0.0597601)
(0 0 0.181914)
(0 0 0.170564)
(0 0 0.329346)
(0.0400241 0.0670978 -0.0396305)
(0 0 -0.0153154)
(0.0146927 0.0663264 0.109191)
(0 0 0.014454)
(-0.0363955 0.00744702 0.00914479)
(0 0 0.212734)
(0.04605 -0.0134993 0.0165506)
(-0.0433562 0.00320021 0.0664586)
(0.00345377 -0.00025493 -0.0191523)
(0 0 0.149411)
(0 0 -0.0589171)
(0.0586553 0.0501594 0.00644915)
(-0.0178599 -0.108224 -0.0198176)
)
;

boundaryField
{
    wall
    {
        type            zeroGradient;
    }
    outlet
    {
        type            cyclic;
    }
    inlet
    {
        type            cyclic;
    }
    procBoundary3to2
    {
        type            processor;
        value           uniform (0 0 0);
    }
}


// ************************************************************************* //
