FoamFile
{version 2.0; format ascii;class vectorField; location 0;object  v;}
2510
(
( 9.04329e-06 -7.78892e-05 2.16468e-05 )  
( 0.000113675 -1.80887e-05 3.8991e-05 )  
( -2.17925e-05 1.27786e-05 0.000401494 )  
( 0.000279658 0.000134998 0.000373314 )  
( 5.14468e-05 4.88103e-05 0.000297418 )  
( -6.99615e-06 -1.07687e-05 4.31105e-05 )  
( 5.52129e-05 0.000130211 -3.99206e-05 )  
( -5.10601e-05 3.2901e-05 -4.73234e-05 )  
( 0.000172341 0.00027713 0.000105369 )  
( 0.000128245 0.000124751 0.000508443 )  
( 0.000297264 -0.000385966 3.52134e-05 )  
( -0.00034993 -0.000117938 0.000573158 )  
( -0.000184686 5.17897e-05 0.000474819 )  
( -0.000409315 9.5889e-05 0.000725046 )  
( -0.00043988 -0.000273729 0.000375087 )  
( -0.00017293 4.69602e-05 0.000473753 )  
( -0.000562223 -0.000115076 0.000414788 )  
( -6.65245e-05 2.14509e-05 0.000519143 )  
( -3.89875e-07 -0.000128645 0.000161187 )  
( 0.00125813 -0.000211717 0.00101181 )  
( -0.000245059 -0.00018788 0.000329548 )  
( 7.24205e-05 0.000150399 0.000512881 )  
( 0.000245418 1.59767e-05 0.000481035 )  
( -0.0202379 -0.0371777 0.0178157 )  
( 0.0107425 0.00468211 -0.01138 )  
( -0.0151761 -0.00643251 -0.00893787 )  
( -0.000335745 -0.000227531 0.00044952 )  
( -0.000262363 0.000152604 0.000595711 )  
( 0.000440551 -0.000294264 0.000438156 )  
( 0.000187236 -0.000588551 8.4393e-05 )  
( -0.00016921 0.000247375 0.000386282 )  
( 0.000125014 0.000202884 0.000557888 )  
( -7.68244e-05 0.000102831 0.000227039 )  
( 2.19838e-05 0.00011665 0.00044358 )  
( 7.91957e-05 -4.63718e-05 0.000321342 )  
( -0.000104194 -7.55687e-05 0.000241274 )  
( 3.05809e-05 0.000195858 0.000359292 )  
( 8.97963e-05 -2.30632e-05 0.000327213 )  
( -9.7148e-05 -5.63313e-06 0.000106086 )  
( 9.97757e-05 0.000177952 0.000159063 )  
( 3.74057e-05 0.000195473 -1.68122e-05 )  
( 3.28387e-05 0.000117317 6.39205e-05 )  
( 0.00011662 3.25395e-05 0.000199574 )  
( 5.43004e-05 -7.965e-05 4.97562e-05 )  
( -0.000180152 -1.46336e-05 0.000126257 )  
( -0.000103111 0.000134726 0.000285408 )  
( 6.79853e-05 2.23756e-05 1.67105e-05 )  
( -0.000161586 -4.50177e-05 0.000117437 )  
( -0.000141806 1.6572e-05 0.000159845 )  
( 1.21608e-05 -3.56268e-05 0.000100955 )  
( 0.000116031 0.000210024 0.000267418 )  
( 7.6391e-06 5.0628e-05 0.000350751 )  
( -7.03446e-05 0.000127002 0.000193322 )  
( 0.000165798 5.66776e-05 0.000293748 )  
( -9.5019e-05 6.2521e-05 0.000171854 )  
( -0.000127102 7.20774e-05 0.000276978 )  
( -8.53901e-05 0.000568427 8.78886e-05 )  
( -0.000197726 6.62635e-05 0.000329048 )  
( -2.31571e-05 7.22875e-05 2.30086e-05 )  
( -1.16253e-05 -2.00279e-05 1.00329e-05 )  
( 2.89738e-05 5.83013e-05 0.000184943 )  
( 7.12909e-05 0.000236277 0.000185932 )  
( -4.45429e-05 4.26517e-06 2.13694e-05 )  
( -0.000188483 -2.35158e-06 0.000137054 )  
( -3.08402e-05 0.000149776 0.000413049 )  
( 0.000207124 7.6277e-05 0.000404019 )  
( -3.74573e-05 4.55038e-05 0.000225472 )  
( 1.75967e-05 2.2639e-05 0.000376149 )  
( -4.89293e-05 -7.21711e-05 5.18094e-05 )  
( 0.000104568 -0.000131423 0.000148805 )  
( -2.52887e-06 -2.68663e-05 0.000118284 )  
( 0.000196929 1.50813e-05 -0.000154406 )  
( -0.000140105 -4.03993e-05 0.000287862 )  
( -0.00012652 -6.0255e-05 0.000113242 )  
( -1.2784e-05 0.000244247 0.00025977 )  
( 7.10879e-05 0.000423577 0.000486093 )  
( 0.000392229 -0.000260891 -9.26414e-05 )  
( 4.00304e-05 0.000182598 0.000262044 )  
( 2.85975e-05 0.000110598 0.000523022 )  
( -6.87961e-06 -2.47486e-05 0.000334583 )  
( 4.07923e-05 0.000177555 3.14503e-05 )  
( 0.000232592 5.08561e-05 0.000178564 )  
( -7.1098e-05 8.48116e-05 4.17746e-05 )  
( -8.02889e-07 9.45848e-06 7.10367e-05 )  
( -3.76255e-05 -2.0042e-05 0.000249733 )  
( 4.2716e-05 5.84923e-05 0.000133578 )  
( 3.82018e-05 0.000139272 0.000389085 )  
( -0.000359443 -0.000103115 0.000233045 )  
( 0.000111239 5.82833e-05 0.000480402 )  
( 0.00014802 9.3119e-05 0.000400614 )  
( -1.094e-05 6.97787e-05 0.000388262 )  
( -8.12103e-06 -8.14407e-05 6.44785e-05 )  
( -0.000104164 -0.000194926 0.000260934 )  
( 1.68131e-05 9.62442e-05 0.000507871 )  
( 5.49247e-06 -0.000124899 0.000244679 )  
( 1.49379e-05 -1.47632e-05 -5.79496e-05 )  
( 1.40311e-05 -6.41336e-05 0.000415078 )  
( -7.76635e-05 5.196e-05 0.000146884 )  
( -0.000100713 0.000155322 0.000177256 )  
( 3.49137e-05 1.55798e-05 -3.6513e-06 )  
( 0.000177903 7.86809e-05 0.000140831 )  
( -4.09988e-05 0.000195734 0.000661383 )  
( -2.19822e-05 2.38821e-05 7.2449e-05 )  
( -2.11776e-05 -2.80739e-05 0.000371102 )  
( 5.08028e-05 0.000173885 0.00045528 )  
( -6.59863e-05 5.8438e-05 0.000120182 )  
( 0.000162388 7.82861e-05 0.000359821 )  
( 0.000115577 -6.37085e-05 0.000461395 )  
( -0.0001071 0.000265407 5.28149e-05 )  
( -8.2774e-05 5.37316e-05 0.000259425 )  
( -1.79273e-05 -4.62221e-05 6.4371e-05 )  
( -1.29961e-05 -1.38417e-05 7.94944e-05 )  
( 1.38286e-05 -1.59448e-05 4.02013e-05 )  
( -4.51755e-05 0.000121053 0.000339056 )  
( -2.73668e-05 6.18582e-05 0.000321306 )  
( 8.25615e-05 3.52083e-05 9.13204e-05 )  
( 2.42752e-05 -2.86593e-05 -0.000160207 )  
( 0.000218777 3.3969e-05 0.00037693 )  
( 0.000252214 6.15679e-05 0.000434625 )  
( -0.000168603 3.26581e-05 0.000135375 )  
( 4.5898e-06 7.34289e-06 -1.63588e-07 )  
( 0.000109557 0.00017288 0.000492782 )  
( -2.00104e-05 1.03785e-05 8.09589e-05 )  
( -2.23505e-05 5.52993e-06 -4.22787e-06 )  
( 0.000134661 3.94917e-06 0.00052461 )  
( -5.44158e-05 -2.03476e-05 3.8979e-05 )  
( 0.000116672 7.42e-05 0.000382955 )  
( -5.39767e-05 1.79655e-05 1.8792e-05 )  
( -2.53103e-05 -3.8224e-06 2.0187e-05 )  
( -6.58334e-05 8.47299e-05 2.72847e-05 )  
( 4.3296e-05 0.000120111 0.000378782 )  
( -4.79859e-05 7.78935e-05 0.000262792 )  
( -8.86775e-05 -4.33083e-05 0.000113382 )  
( -0.000274854 -0.000231982 0.000502849 )  
( -3.42975e-05 2.10161e-05 0.000110722 )  
( -1.01263e-05 5.19881e-06 0.000177338 )  
( -0.000203368 -4.65992e-05 0.000128134 )  
( -1.13445e-05 9.16926e-06 3.93288e-05 )  
( -1.24693e-05 -1.85079e-05 8.21952e-05 )  
( -0.000250966 -0.000220855 -2.60481e-06 )  
( 6.33444e-05 -9.67845e-05 0.000264483 )  
( 6.32922e-05 6.68374e-05 0.000326708 )  
( -3.73275e-05 2.93478e-05 0.000104878 )  
( 2.54709e-05 0.000560217 0.00010948 )  
( 4.84209e-05 -8.40725e-05 0.000295172 )  
( -9.24824e-05 4.86573e-05 0.00015256 )  
( -0.000264837 -0.000352201 0.000260171 )  
( -4.33297e-05 7.3765e-05 3.50435e-06 )  
( 3.17265e-05 4.30912e-05 -2.0173e-06 )  
( -0.00117011 -0.000837958 -0.000971641 )  
( -2.93813e-05 5.16629e-06 -1.1454e-05 )  
( -1.7372e-05 -0.000108053 0.000203318 )  
( -3.65989e-05 3.83127e-05 -4.49289e-06 )  
( 1.13611e-05 -8.65106e-05 9.38798e-05 )  
( -7.30924e-06 -1.11409e-06 1.42244e-05 )  
( 1.98719e-05 -7.67623e-06 -4.05468e-05 )  
( -0.000120385 0.000256017 3.61149e-05 )  
( -9.9332e-05 0.000129053 0.000205924 )  
( -6.89343e-05 0.000182037 0.000380571 )  
( -6.5623e-05 -4.01754e-05 0.000110161 )  
( -0.000190633 -0.000108538 0.000368731 )  
( -5.33158e-05 0.000155854 0.000241592 )  
( -1.4274e-05 -2.62805e-05 0.000116423 )  
( -6.59523e-05 -1.46794e-05 2.12146e-05 )  
( -1.31037e-05 2.08863e-05 3.78701e-05 )  
( -3.88519e-05 1.2177e-05 3.51029e-05 )  
( 8.76744e-05 8.54936e-05 0.000486093 )  
( -0.00011003 7.10743e-05 6.28768e-05 )  
( -9.77795e-06 2.1827e-05 5.35879e-05 )  
( 6.71246e-05 4.61234e-05 0.000157672 )  
( -6.55027e-06 -0.000381553 -0.000107653 )  
( -0.000121516 0.000167202 0.000214513 )  
( -3.72882e-05 7.81458e-05 0.000280807 )  
( -0.000190321 3.56784e-05 5.60581e-05 )  
( 5.39639e-05 0.000126823 0.000391867 )  
( -9.36944e-05 0.000148627 0.000299329 )  
( -2.08282e-05 -1.65353e-06 3.63403e-05 )  
( -2.75726e-05 4.92409e-06 2.0619e-05 )  
( 9.2331e-05 0.000138629 0.00030589 )  
( -4.36677e-05 1.60223e-05 0.000329473 )  
( -1.42478e-05 0.000141155 0.000306258 )  
( 0.000108443 0.000107102 0.000116158 )  
( -0.000166885 -3.36084e-05 0.00018766 )  
( 2.3518e-05 -8.85714e-05 2.55178e-05 )  
( 0.000189923 7.4565e-05 0.000281952 )  
( 8.70694e-05 0.000351003 0.000377423 )  
( 0.000112261 0.000135371 0.00028734 )  
( -0.000160445 -5.40371e-05 0.000180921 )  
( -6.61008e-05 0.000183114 0.000229294 )  
( 2.2042e-05 3.92782e-05 8.22807e-05 )  
( -0.000276058 -9.92978e-05 0.000250523 )  
( 0.000232987 4.94469e-07 0.000258598 )  
( -1.39101e-05 -2.30858e-05 4.62128e-05 )  
( -7.28186e-05 0.000207653 0.000158387 )  
( 7.84826e-07 -0.000109657 0.000112686 )  
( -1.66234e-05 -1.36623e-05 0.000110998 )  
( -6.44175e-05 5.71544e-05 0.000131875 )  
( 0.000181561 0.000269579 0.000105364 )  
( 0.000113636 0.000126826 0.000362488 )  
( -0.000142395 8.39052e-05 6.02421e-06 )  
( -6.06675e-05 -3.26847e-05 3.23511e-05 )  
( 0.000151899 -0.000852719 -0.000718875 )  
( 0.000153805 -2.84566e-05 0.000198847 )  
( -0.000109804 6.30755e-05 5.54745e-05 )  
( -0.00011116 0.000441757 -0.000207997 )  
( -6.59398e-05 3.90578e-05 0.000158952 )  
( -5.45826e-05 3.53788e-05 0.000101727 )  
( -7.97299e-05 -0.000156526 0.000285724 )  
( -0.00011833 0.000330541 0.000222181 )  
( 8.65817e-05 4.72079e-05 0.000265152 )  
( 9.79134e-05 9.34408e-05 0.000285782 )  
( -7.27604e-06 7.07753e-06 8.8051e-07 )  
( -8.44777e-05 0.000123661 0.00015222 )  
( 9.3112e-05 0.000118423 0.000293123 )  
( 0.000187738 0.000370423 0.000189163 )  
( 4.35521e-05 0.000123592 0.000118275 )  
( 8.78925e-05 -0.000139282 0.00020744 )  
( 3.37477e-06 2.17124e-05 1.45688e-05 )  
( -3.577e-06 4.33178e-05 -0.000254558 )  
( 3.51268e-05 6.19597e-05 -0.000226238 )  
( -3.99923e-05 5.25067e-05 0.000382704 )  
( 7.47552e-05 0.000162504 0.000415422 )  
( 1.62634e-06 9.55764e-05 0.000176275 )  
( 5.05025e-05 0.00015877 0.000601187 )  
( 3.00734e-06 -0.00025761 0.000482632 )  
( 5.01984e-05 -3.48702e-05 0.000160073 )  
( -2.73892e-05 0.000107811 0.000384429 )  
( 0.000153405 0.000190705 0.000449073 )  
( -5.41655e-05 8.4081e-06 0.000310504 )  
( -6.88932e-05 -0.000215038 0.000218752 )  
( 0.000132816 6.2599e-05 0.000182151 )  
( 5.70587e-05 -1.4202e-05 0.000146167 )  
( -8.67902e-05 0.000107679 -0.000125359 )  
( -0.000181697 9.66906e-05 4.92105e-05 )  
( 6.19193e-05 0.000105144 -0.000123292 )  
( 8.81098e-05 -5.29797e-05 9.04126e-06 )  
( -8.69082e-05 -4.20387e-05 0.000158639 )  
( -0.000107885 -3.77197e-05 -2.53588e-06 )  
( 0.000203638 0.000205623 0.000467212 )  
( -0.000153902 8.07415e-06 0.000201853 )  
( 3.83276e-05 0.00020035 0.000128716 )  
( 9.28931e-05 6.11289e-05 0.000398435 )  
( -1.55956e-05 0.000146299 0.000253092 )  
( -6.19359e-05 5.05981e-05 6.75075e-05 )  
( -4.98289e-05 -4.27227e-05 0.000325745 )  
( -0.000283484 0.000197257 0.000159768 )  
( -0.000224703 -5.45676e-05 0.000240447 )  
( -0.000107178 -4.12569e-05 3.30137e-05 )  
( 4.23684e-05 4.43913e-05 0.000179969 )  
( -9.09985e-05 -2.92083e-05 0.000114372 )  
( -6.9893e-05 5.51074e-05 0.000247893 )  
( 3.01018e-05 -0.000136041 0.000476581 )  
( -4.58834e-05 2.15412e-05 0.000199297 )  
( -1.14872e-05 9.38872e-05 0.000337115 )  
( -1.16149e-05 -0.000205176 0.000201591 )  
( -2.54555e-05 -2.78093e-05 4.35895e-05 )  
( -0.000121018 -2.87246e-05 0.000248073 )  
( -2.11579e-05 -3.45498e-05 3.11072e-05 )  
( -0.000100279 -0.00010378 0.00054608 )  
( -4.80782e-05 -4.84382e-05 -8.73024e-05 )  
( -4.78942e-05 0.000251442 0.000367354 )  
( -1.80205e-05 1.29625e-06 6.502e-05 )  
( -6.10406e-05 4.69901e-06 0.000115761 )  
( 3.19716e-05 -4.63015e-05 0.000114336 )  
( 8.23837e-05 6.12227e-05 0.00035343 )  
( -1.6703e-05 3.62058e-05 6.29068e-05 )  
( -0.000107936 -3.78731e-05 -6.59245e-06 )  
( 1.69432e-05 1.16646e-05 4.0782e-05 )  
( -0.00023085 0.000145632 -9.74873e-05 )  
( -5.21589e-05 2.23232e-05 3.0772e-05 )  
( 7.79071e-05 1.47068e-05 2.11695e-06 )  
( -0.000218053 0.000222654 0.000293415 )  
( -0.00011718 0.000134624 0.000285085 )  
( -8.60779e-05 -4.2497e-05 6.73658e-05 )  
( 7.8393e-05 0.000254432 0.000304316 )  
( 0.000289103 0.000169632 0.000489041 )  
( 1.76334e-05 -8.50606e-05 0.00015768 )  
( 9.75065e-05 0.000103151 0.000180192 )  
( -5.46446e-05 0.000102343 0.000516283 )  
( -2.34469e-05 -8.96558e-05 0.000193169 )  
( -0.00016819 0.00018931 9.17447e-05 )  
( -7.17824e-05 1.79417e-06 0.000101347 )  
( -0.00014231 5.84485e-06 0.000141793 )  
( -3.72432e-05 6.63491e-05 0.000280316 )  
( 0.000265597 0.000739496 0.000547983 )  
( 0.000104452 3.77874e-05 0.000123491 )  
( -0.000212356 6.11321e-06 5.11805e-05 )  
( -0.000139277 0.00021594 -9.4962e-06 )  
( -0.000118575 -0.000115067 0.000158236 )  
( 2.14812e-05 0.000115267 0.000466656 )  
( 1.83899e-05 -8.75491e-05 5.12152e-05 )  
( -0.00010733 4.96815e-06 1.00199e-07 )  
( -1.37175e-05 -4.11074e-05 0.000311433 )  
( -0.000120839 1.00502e-06 8.35378e-05 )  
( -3.00273e-06 9.96143e-06 1.90312e-05 )  
( -6.10618e-05 2.61994e-05 0.000155785 )  
( 1.38716e-05 0.000221865 0.000276214 )  
( -0.000164704 2.06722e-05 0.000256104 )  
( 6.17169e-05 0.000199869 0.000292851 )  
( -3.11917e-05 0.000147427 5.19949e-05 )  
( -1.51344e-05 -2.09329e-05 1.74695e-06 )  
( -9.14752e-05 0.000187151 -0.000266011 )  
( -7.48884e-05 8.78358e-05 9.90594e-05 )  
( -1.18043e-05 -0.00016983 0.000241366 )  
( -5.82436e-06 2.87129e-05 -1.69889e-05 )  
( -0.000122418 -3.43848e-05 -3.14018e-05 )  
( -5.91537e-05 0.000175559 0.000401301 )  
( -0.000263347 -2.40753e-05 0.000364955 )  
( -0.000101543 5.64627e-05 0.000148656 )  
( -8.53996e-05 -0.000102303 0.00022882 )  
( -0.000193455 0.000418297 0.000229638 )  
( -0.000101994 6.11648e-05 0.000194033 )  
( 4.92122e-06 0.000140874 0.000596315 )  
( 0.000123609 4.14133e-05 0.000180624 )  
( -0.000436968 -0.00131866 5.0226e-05 )  
( 0.000279867 0.000119996 0.000556548 )  
( 0.000122359 0.000195569 0.000328542 )  
( 1.73147e-05 -7.02581e-05 0.000118832 )  
( -7.58272e-05 -9.54469e-05 0.000353225 )  
( 7.5738e-05 4.55802e-05 0.000328982 )  
( -1.6638e-05 -0.00013393 0.000218856 )  
( 3.46586e-05 4.49175e-05 0.000157646 )  
( -4.91492e-05 -2.17576e-05 -1.54086e-05 )  
( 0.000174894 9.38508e-05 0.000140064 )  
( -0.000149529 -9.12905e-05 0.000234119 )  
( 9.07439e-05 0.000131508 0.000283974 )  
( 8.7117e-05 -0.000116232 0.000122112 )  
( -7.41955e-05 6.16388e-05 5.36546e-05 )  
( 7.54668e-06 0.000220217 0.000474689 )  
( 2.4097e-06 7.86898e-05 0.000262911 )  
( 0.000139693 -6.95647e-05 0.000136218 )  
( 0.000228418 0.000126549 7.55785e-05 )  
( -4.97236e-05 0.0014355 -3.20374e-07 )  
( -8.62007e-05 0.000182616 -4.41776e-05 )  
( -8.92122e-05 9.95183e-05 0.000106749 )  
( 6.41709e-06 -4.51721e-05 9.42543e-05 )  
( 6.50223e-05 -1.48723e-05 -2.3174e-05 )  
( -8.61613e-05 -9.98394e-06 9.82271e-05 )  
( -3.25859e-05 4.25885e-05 -3.32877e-06 )  
( -0.000106779 4.96203e-05 -3.40236e-05 )  
( -8.60146e-05 5.14926e-05 9.73769e-05 )  
( 0.000116969 2.07458e-05 0.000440022 )  
( 5.05112e-05 3.26039e-05 6.95056e-05 )  
( -0.000170279 2.97824e-05 0.000280825 )  
( -2.19917e-05 -5.00506e-05 0.000119684 )  
( -0.000186276 -7.4554e-05 0.000233175 )  
( -0.000205635 0.000127451 0.000199129 )  
( -4.27385e-06 -6.51556e-05 2.7826e-05 )  
( -4.63804e-05 -0.000365377 0.0004357 )  
( -9.59053e-05 -8.74261e-05 -6.55017e-07 )  
( -0.000127228 0.000217531 0.000355927 )  
( 0.000191178 0.000179435 0.000403683 )  
( 3.02398e-05 0.000173314 -1.837e-05 )  
( 6.2204e-05 5.50852e-05 0.000136233 )  
( -0.000106231 -2.85921e-05 0.00013458 )  
( -4.79274e-05 -1.89962e-05 0.000298169 )  
( -0.000191939 0.000273504 0.000384011 )  
( -8.86907e-05 0.000116563 9.50261e-05 )  
( 2.27887e-05 -7.11367e-05 0.00013029 )  
( -0.000323847 -0.000244204 -3.80267e-06 )  
( 0.000117066 1.6952e-05 0.000211581 )  
( 7.1288e-05 -0.000191173 0.00024754 )  
( 8.71524e-05 0.00012185 0.000182588 )  
( 1.63212e-05 1.59698e-05 -1.31001e-06 )  
( -7.28177e-05 2.16238e-05 7.65443e-05 )  
( -1.19347e-05 -3.08471e-05 2.30791e-05 )  
( 0.000165444 6.94504e-05 0.000386895 )  
( -0.000101397 8.3105e-06 7.86199e-05 )  
( 0.000131465 -4.77203e-05 0.000132012 )  
( -6.99038e-07 0.000191327 0.000430231 )  
( 0.000164815 3.69112e-05 0.00043941 )  
( 0.000116575 1.74808e-05 -0.000160756 )  
( -0.000128363 -3.77132e-05 0.00012043 )  
( -4.24798e-05 0.000123241 0.000255253 )  
( 0.000118739 1.84651e-05 0.00028386 )  
( -0.000157336 -0.000193616 0.000107156 )  
( -4.30265e-05 -9.76948e-05 0.000207077 )  
( -0.000124736 0.000106583 -1.84355e-05 )  
( 7.13792e-05 3.35144e-05 0.000152643 )  
( -5.519e-05 6.01016e-05 9.90731e-05 )  
( -0.000117131 8.52843e-05 -2.05556e-05 )  
( 1.39282e-05 -5.50451e-05 0.000104035 )  
( -5.9916e-05 -2.12392e-05 6.84124e-05 )  
( -7.49008e-05 0.000333713 0.000196336 )  
( -0.000175013 2.61655e-05 5.89485e-05 )  
( -0.000811315 -0.000159528 0.000194174 )  
( -0.000188764 2.15491e-06 0.000262858 )  
( -8.29291e-05 -4.02742e-05 -1.70561e-05 )  
( 6.84693e-05 -5.44394e-05 0.000333642 )  
( 1.14525e-05 -1.96145e-05 8.11699e-05 )  
( -8.97132e-05 0.000103094 0.00023035 )  
( -4.45972e-05 -5.3207e-05 1.8706e-05 )  
( -0.000540221 0.000583814 -1.96388e-05 )  
( 3.46751e-05 7.43561e-05 0.000210775 )  
( 5.75464e-05 -0.000130172 -1.41489e-05 )  
( -4.23316e-05 -2.8875e-05 1.35376e-05 )  
( 0.000133864 0.000134826 -6.37556e-06 )  
( 2.54227e-05 7.57251e-05 0.000127555 )  
( 0.000271187 0.000291196 -0.000176167 )  
( 1.83263e-05 -3.95443e-06 0.000219645 )  
( 2.74306e-06 0.000142007 0.000436441 )  
( 9.65175e-05 0.000133942 0.000329224 )  
( 1.0915e-05 0.000103382 0.000244091 )  
( 1.44934e-05 0.000126755 0.000223319 )  
( 0.000107155 5.75965e-05 0.000543505 )  
( 0.000121671 0.000135922 0.000614577 )  
( 1.59866e-05 -8.64147e-05 0.000111284 )  
( 2.16741e-05 -5.51344e-05 4.88004e-05 )  
( -4.2142e-05 6.58199e-05 3.08739e-05 )  
( -8.29815e-05 0.000125003 0.000208494 )  
( 0.000176784 0.00011221 4.40291e-05 )  
( 2.33899e-05 6.62202e-05 0.000429139 )  
( 2.46879e-05 0.000168833 0.000393802 )  
( -0.000130509 3.37964e-05 0.000245482 )  
( 5.22442e-05 0.000407071 0.000320966 )  
( 5.34703e-06 1.2004e-05 0.000201254 )  
( 2.9587e-05 3.64662e-05 9.43338e-05 )  
( -1.30369e-05 -0.000133866 -9.58552e-05 )  
( -0.000118069 -7.25765e-05 4.68819e-05 )  
( -0.000153553 4.0704e-05 1.51971e-05 )  
( 0.000402223 0.000768738 -1.24207e-05 )  
( -2.3759e-05 7.12465e-06 0.000165695 )  
( -6.86172e-05 5.23255e-05 0.000552587 )  
( -0.000153098 0.000123134 5.68656e-05 )  
( 5.46274e-05 0.000205227 0.000435822 )  
( -0.000139129 -8.01936e-06 3.62156e-05 )  
( 6.0676e-06 7.06073e-07 0.000110835 )  
( -4.7168e-05 3.48507e-05 0.000244709 )  
( -8.70019e-05 -2.8376e-05 -3.56355e-06 )  
( 0.000135068 0.000174499 4.6305e-05 )  
( -5.55518e-05 -2.55431e-05 0.000417208 )  
( 2.41323e-05 5.43479e-05 0.00029233 )  
( -4.94113e-05 8.49185e-05 -2.16808e-06 )  
( -0.000121431 6.58523e-05 0.000170408 )  
( -0.00015023 0.000148763 0.000173533 )  
( -0.000196939 -3.02336e-05 -1.87278e-05 )  
( -5.20551e-06 -4.4776e-05 1.89072e-05 )  
( -0.00015277 9.4066e-06 0.000133519 )  
( -0.00012687 2.3466e-05 6.83524e-05 )  
( -4.06899e-05 3.69233e-05 0.000146351 )  
( -3.3675e-05 4.63983e-05 0.000237759 )  
( 3.81773e-06 5.50204e-05 3.79591e-05 )  
( 2.49086e-05 5.11564e-05 0.000383565 )  
( -9.54892e-05 -4.62107e-05 0.000325553 )  
( -4.1804e-05 -8.47615e-06 -7.56638e-06 )  
( 0.000186054 0.000356123 0.000162956 )  
( -0.000183181 -0.000116315 0.000124762 )  
( -0.00021363 0.000255347 0.000209411 )  
( 5.91343e-05 -0.000109284 4.6149e-05 )  
( -0.000121584 1.96969e-05 5.27666e-05 )  
( 2.10862e-05 4.8632e-05 0.00021332 )  
( 0.000108886 9.22899e-05 0.000268797 )  
( -5.72289e-05 1.16735e-06 2.95005e-05 )  
( 1.54056e-05 0.000186423 0.000480661 )  
( -5.88224e-05 -2.73699e-05 0.000113377 )  
( -0.000235431 0.000310889 0.000190335 )  
( 6.78862e-05 0.000104625 0.000206201 )  
( 2.70554e-05 2.24851e-05 8.81821e-06 )  
( 0.00034961 -0.000324877 -8.77096e-05 )  
( 1.15084e-06 0.000221366 0.000401816 )  
( -3.35456e-05 5.22436e-06 3.4026e-05 )  
( 2.98881e-05 2.54261e-05 5.98337e-05 )  
( -3.78501e-05 8.39801e-05 0.000306154 )  
( -0.00020351 5.45275e-06 0.000113794 )  
( -0.000126091 -1.88961e-05 0.000104003 )  
( 0.000124667 -5.52682e-05 0.000125646 )  
( 0.000130671 -1.05543e-05 8.92608e-05 )  
( -0.000165173 9.49006e-05 0.000346515 )  
( -0.000125 -1.22459e-06 9.00167e-05 )  
( -1.00386e-06 1.61859e-06 9.12961e-06 )  
( -5.33656e-05 0.000293119 0.000374992 )  
( 2.7127e-06 -7.83564e-07 1.32565e-05 )  
( -1.07437e-05 2.70887e-05 1.19744e-05 )  
( 3.72212e-06 -4.16691e-05 3.05213e-05 )  
( -0.000213508 0.000146169 5.68337e-05 )  
( -4.65044e-05 -1.27343e-05 8.22747e-05 )  
( -1.2731e-05 0.000114009 0.000230867 )  
( -4.92814e-05 -0.000132014 5.17609e-06 )  
( -0.000319661 -7.11222e-05 0.000488062 )  
( -2.77151e-05 0.000220251 -3.06439e-06 )  
( -0.000125241 0.000104681 0.000119734 )  
( -7.32572e-05 7.45071e-05 0.000144088 )  
( -5.65924e-05 -2.00649e-05 4.41027e-05 )  
( -7.37107e-05 2.95999e-05 0.000164084 )  
( -0.000136491 0.0001393 7.32066e-05 )  
( 0.000203038 -3.25839e-06 0.000395328 )  
( -9.26726e-05 0.00012377 1.42169e-05 )  
( -0.0001805 -2.95894e-05 3.39628e-05 )  
( -0.000336466 0.000156682 -0.000203776 )  
( 7.1332e-05 0.000177941 0.00034716 )  
( -3.60448e-06 0.00019785 0.000625704 )  
( -8.68648e-05 2.25505e-05 5.26388e-05 )  
( 1.25247e-05 0.000344158 9.88215e-05 )  
( -8.07097e-05 -8.91132e-06 0.00011077 )  
( 4.20774e-05 9.76039e-07 0.000136244 )  
( -8.55855e-05 0.000171641 0.000222957 )  
( -7.47558e-05 -4.82763e-05 -4.62235e-05 )  
( -0.000120608 -7.23838e-05 0.000174883 )  
( -0.000112937 -0.000111251 0.000180943 )  
( -0.000168115 5.50485e-05 0.000527779 )  
( -0.000187842 -1.58496e-05 0.000179381 )  
( -0.000125993 0.000329909 0.000155012 )  
( -1.22489e-05 7.44978e-06 8.30086e-06 )  
( -0.000174108 -7.20449e-06 0.000284595 )  
( 2.53741e-06 5.95756e-08 5.22916e-06 )  
( -6.56873e-06 -7.81936e-05 0.000309798 )  
( -0.000221048 7.54613e-05 0.000227545 )  
( 4.89608e-06 3.33988e-05 0.000101562 )  
( -0.000170023 0.000185434 0.000158078 )  
( 3.56198e-05 1.79487e-05 1.19394e-05 )  
( -0.000244869 0.00022521 0.000214265 )  
( -6.60857e-05 -0.000150577 0.000606994 )  
( 1.9545e-05 1.11007e-05 0.000288361 )  
( -6.49568e-05 -7.03091e-07 0.000212521 )  
( 8.50029e-05 4.82327e-05 0.000265225 )  
( 3.86684e-05 0.000192964 5.14551e-05 )  
( 5.25385e-05 0.000157089 0.000156558 )  
( -5.29148e-05 0.000140108 0.000224717 )  
( -4.19013e-05 -5.18634e-05 -7.61159e-05 )  
( -0.000125691 0.000362525 0.000136108 )  
( -6.54306e-05 0.000176715 0.000160457 )  
( -7.38151e-05 2.59888e-05 6.2102e-05 )  
( -8.81045e-05 5.39436e-06 0.000149343 )  
( -8.71163e-05 0.000138362 0.000314863 )  
( -9.40794e-06 -8.43152e-05 0.000197036 )  
( -8.11238e-06 0.000131039 0.000561786 )  
( 1.71454e-05 6.58325e-05 6.8701e-05 )  
( 0.000386119 0.000296271 -0.000199458 )  
( 0.00011061 4.22082e-05 0.00021787 )  
( 6.68916e-05 0.000230603 0.000252473 )  
( 0.000114623 -1.69558e-05 0.000275164 )  
( -8.25274e-06 -5.11958e-05 9.82679e-05 )  
( -0.000298274 4.40257e-05 0.0001717 )  
( -4.18895e-05 -3.42589e-05 0.000104371 )  
( -0.000213532 0.000109467 -0.00010346 )  
( -9.59529e-05 4.23705e-05 0.000279047 )  
( -0.000134117 -9.11753e-05 -4.63546e-05 )  
( 7.20123e-05 -9.02911e-05 -0.000355817 )  
( -1.22674e-05 -5.04904e-05 5.53837e-05 )  
( 5.08917e-05 -0.000109362 0.000211369 )  
( 2.49691e-06 -1.21014e-05 4.93997e-06 )  
( -0.000280478 0.000108847 6.45203e-05 )  
( -4.91979e-05 0.000133077 3.56842e-05 )  
( -5.79905e-05 -4.62471e-05 7.79471e-05 )  
( 0.000250517 4.13958e-05 0.000391408 )  
( -3.62793e-05 1.58576e-06 -6.88025e-06 )  
( -2.52527e-05 5.22224e-05 0.000194446 )  
( -3.29948e-05 0.000129629 0.000458665 )  
( 4.30479e-05 6.35474e-05 0.000275985 )  
( 7.46589e-05 0.000276699 0.000141397 )  
( 1.01438e-05 -2.65298e-05 0.00031948 )  
( 0.0005871 0.000344242 -0.000265648 )  
( 3.16857e-05 -2.78459e-05 5.74888e-05 )  
( 5.8313e-05 0.000141349 -0.000238746 )  
( -0.000111186 0.000239034 0.000257822 )  
( -4.25942e-05 2.61291e-05 0.000138826 )  
( -5.64947e-05 -3.63795e-05 1.2306e-05 )  
( -0.000204204 -3.79191e-05 0.000221251 )  
( 9.31421e-05 -7.76074e-05 0.000291655 )  
( -0.000112056 -7.0191e-06 2.3371e-06 )  
( 4.0144e-05 5.97828e-05 0.000177304 )  
( -0.000209092 0.000244359 0.000213923 )  
( 0.000157696 -8.10883e-05 0.000101034 )  
( 2.62886e-05 0.000203079 0.000371555 )  
( -8.25347e-05 0.000132618 0.000213799 )  
( -0.000131228 -2.67497e-05 0.000122002 )  
( -0.000225474 1.06576e-05 0.000271542 )  
( -6.7258e-05 2.16644e-05 0.000321545 )  
( 0.000128279 0.00262743 0.000419897 )  
( 5.08461e-05 9.25035e-05 0.000131636 )  
( 0.000627132 0.00163641 -2.43698e-07 )  
( -5.10184e-05 -4.16302e-05 8.41506e-05 )  
( 2.14519e-05 0.000172944 0.000449265 )  
( 9.59689e-05 5.64392e-05 0.000581809 )  
( -4.99772e-05 -3.85962e-05 1.40265e-05 )  
( -0.000279527 -0.00020533 0.00057035 )  
( -3.25588e-05 -6.42153e-05 1.75536e-05 )  
( -0.000123331 -2.71051e-05 0.000260775 )  
( -9.86531e-05 3.14093e-05 3.70503e-05 )  
( -7.66269e-05 -6.53428e-07 4.06813e-05 )  
( -0.000123645 -7.30234e-05 -4.57356e-05 )  
( 6.82696e-05 6.05822e-05 0.000375344 )  
( 1.39494e-05 -5.59304e-05 0.000184185 )  
( -1.02511e-05 -0.000213638 0.000492485 )  
( -0.000168307 0.000161901 0.000134783 )  
( 4.849e-05 0.000241122 0.00013425 )  
( 3.60711e-05 0.000149598 0.000451186 )  
( -3.52789e-05 -1.26806e-05 3.33106e-05 )  
( -6.77341e-05 9.18071e-05 0.000149315 )  
( -0.000157161 3.36833e-06 0.000221788 )  
( 2.45538e-05 -1.76815e-05 0.000159056 )  
( 0.000142042 -3.89469e-05 0.000101001 )  
( -0.000269373 -5.51783e-05 0.00016433 )  
( 5.32484e-05 9.12016e-05 0.0001709 )  
( 5.2395e-05 -7.46731e-05 -6.46133e-05 )  
( 2.51733e-05 0.000121596 0.000191562 )  
( -1.00233e-05 -1.1006e-05 0.000361927 )  
( -1.98455e-06 2.03261e-05 2.12445e-05 )  
( -8.09289e-05 -6.90008e-05 5.01857e-05 )  
( 3.49163e-05 -4.55086e-05 0.000170715 )  
( 3.01891e-05 5.48409e-05 0.000154322 )  
( 3.51315e-05 0.000222571 0.000272154 )  
( -6.87446e-05 5.41364e-05 0.000342963 )  
( -3.0052e-05 -3.60778e-05 0.000407276 )  
( -2.42849e-05 -5.56611e-05 0.000232757 )  
( -1.22308e-05 -6.84049e-06 4.83581e-05 )  
( -0.000145155 -6.88185e-05 0.000120829 )  
( -5.69015e-05 -0.000123066 5.63803e-05 )  
( 4.58709e-05 7.1524e-05 0.000424321 )  
( 6.08849e-05 0.000172445 0.00022528 )  
( -8.35406e-05 1.83474e-05 0.000271204 )  
( 6.0386e-05 0.000267644 0.000138916 )  
( -8.05356e-05 0.00016839 0.000448691 )  
( 0.000151005 0.000180392 6.7239e-05 )  
( 6.12855e-05 0.0001306 0.000319634 )  
( 0.000154779 0.00020211 0.000184958 )  
( -0.000124635 -5.44513e-06 0.000129313 )  
( 4.19538e-05 -1.19082e-05 -2.56871e-05 )  
( -0.00011723 7.56336e-05 0.00017939 )  
( -6.79198e-05 -3.63403e-05 6.4431e-05 )  
( -0.000175966 -5.6672e-05 0.000245614 )  
( 6.4653e-05 3.74458e-05 0.000146226 )  
( -1.02942e-05 -9.70145e-05 0.000147758 )  
( -4.26301e-05 0.000127563 0.000576789 )  
( -0.000392643 0.000295494 -0.000435412 )  
( -8.00492e-06 -4.51052e-06 1.97088e-05 )  
( -3.40673e-05 4.08151e-05 0.00024636 )  
( -0.000125899 8.02888e-05 0.000140174 )  
( 2.94762e-05 0.000160617 0.000191447 )  
( 2.2891e-05 -2.36732e-05 0.000232457 )  
( 2.5996e-05 5.99706e-06 0.000204722 )  
( 0.000263597 0.000161744 5.27183e-06 )  
( -0.000176477 4.06331e-05 0.000130985 )  
( -0.000496833 -0.000215205 -5.31131e-06 )  
( -0.000112785 2.62819e-05 0.000254291 )  
( -0.000178604 0.000256281 3.03913e-05 )  
( 7.24257e-05 1.49355e-05 0.000136569 )  
( -0.00023085 -0.000839874 -0.000259109 )  
( -0.000125876 5.0457e-05 0.000166259 )  
( -4.5583e-05 -6.68791e-06 1.2559e-05 )  
( 1.42296e-05 0.000115205 -4.93122e-06 )  
( 0.000157567 -2.04689e-05 0.000115915 )  
( -5.44333e-05 2.66695e-06 6.84512e-05 )  
( 0.000246401 0.000151636 0.000386596 )  
( -5.00392e-05 7.57726e-05 0.000177568 )  
( -0.000104518 -5.96011e-05 1.01178e-05 )  
( -0.000181549 3.09338e-05 9.70557e-06 )  
( -9.42551e-05 2.12553e-05 9.3499e-06 )  
( -3.05493e-05 7.16623e-06 1.34768e-05 )  
( -3.91991e-05 -1.16992e-05 4.04094e-05 )  
( -0.00022943 -7.91838e-05 -0.000206531 )  
( 6.44402e-05 5.8498e-05 0.000151218 )  
( 6.52865e-05 4.64433e-05 0.000305613 )  
( -0.000129394 0.00057944 0.000312479 )  
( -0.000120764 -1.05938e-05 5.1109e-05 )  
( -9.41621e-05 9.42364e-05 0.000222046 )  
( -8.33616e-05 -3.75556e-05 7.83379e-05 )  
( -2.29943e-05 -1.57355e-05 -6.2758e-05 )  
( -0.000134762 0.000121541 0.000204804 )  
( -3.99258e-05 1.72656e-05 8.46716e-05 )  
( 7.40234e-06 0.000187805 3.08427e-05 )  
( 0.000227123 -3.71615e-05 9.49439e-05 )  
( 5.09812e-05 -6.38103e-05 5.21006e-05 )  
( -6.66304e-06 0.000141259 3.3026e-05 )  
( 0.000176814 8.81688e-05 6.12735e-05 )  
( -0.000192251 -1.00157e-05 0.000254296 )  
( -6.47192e-05 -1.55437e-05 0.000137596 )  
( 0.000163121 -0.000136011 0.000198532 )  
( -6.14414e-05 3.26279e-05 0.000102654 )  
( -0.000248723 -8.59928e-05 -0.000168991 )  
( -2.48161e-05 0.000128907 0.000280954 )  
( -1.00726e-05 -2.05402e-05 3.19555e-05 )  
( -3.86568e-05 -1.30881e-05 9.49728e-05 )  
( -0.000108089 -7.11746e-05 0.000161356 )  
( -3.96078e-06 0.000107412 0.000140895 )  
( -0.000369977 0.000111821 -0.000106384 )  
( -3.69878e-05 -1.12411e-05 6.82431e-05 )  
( -0.000233655 -0.000180347 0.000604614 )  
( 3.16429e-06 -3.67598e-05 5.71991e-06 )  
( -7.08992e-07 1.9869e-05 3.50526e-06 )  
( -3.17401e-05 -8.47091e-05 6.80531e-05 )  
( -0.000191677 0.000142577 0.000197784 )  
( -8.41944e-06 -0.000149937 0.000243096 )  
( -0.000127542 -6.33214e-05 1.67241e-05 )  
( 9.39001e-05 0.000141723 6.85118e-05 )  
( -0.000131648 5.74651e-05 0.000150599 )  
( -0.000205546 -2.37654e-05 0.000171193 )  
( -0.000214757 -7.3466e-05 0.000221399 )  
( -5.10887e-05 -2.78745e-05 4.65157e-05 )  
( -0.000635528 6.71852e-05 0.000190979 )  
( -5.99111e-05 -2.93931e-05 0.000101382 )  
( -6.72953e-05 -1.41082e-05 0.000450692 )  
( 1.18524e-05 3.22037e-05 2.87935e-05 )  
( -7.85675e-05 0.000105658 -0.000111815 )  
( 7.20305e-05 -0.000103921 5.15303e-05 )  
( -2.13058e-05 -1.81852e-05 1.65619e-05 )  
( -4.28434e-05 -5.80165e-08 1.37786e-05 )  
( -2.47485e-05 -3.45313e-05 3.77746e-05 )  
( -9.85687e-05 -6.03358e-05 3.58862e-05 )  
( -7.51415e-05 0.00022379 0.000421828 )  