FoamFile
{version 2.0; format ascii;class vectorField; location 0;object  v;}
1000
(
( 0.139247 -3.34394e-05 -0.131389 )  
( 0.00807047 -1.67961e-05 0.0485834 )  
( 0.0314766 -6.03912e-06 0.323802 )  
( 0.139167 -6.60791e-06 -0.0983942 )  
( 0.0046708 -2.88552e-06 0.0922209 )  
( 0.00569732 -5.28802e-06 -0.0638828 )  
( 0.139434 2.10125e-06 -0.0819283 )  
( 0.0273984 -1.39487e-06 0.327506 )  
( 0.00253021 -9.25917e-07 -4.38009e-08 )  
( 0.133378 1.56869e-05 0.185103 )  
( 0.135779 4.08037e-06 0.240138 )  
( 0.13933 -1.46364e-05 0.0893995 )  
( 0.0025443 5.57134e-06 -9.12725e-09 )  
( 0.00257962 -4.05811e-06 1.27871e-09 )  
( 0.0405472 6.43551e-06 0.230666 )  
( 0.00254562 2.30676e-06 -2.19438e-08 )  
( 0.0154084 -9.72064e-06 0.348963 )  
( 0.00258232 -5.36957e-06 -2.68915e-06 )  
( 0.00861414 4.88956e-06 -0.00218414 )  
( 0.139136 -2.80166e-05 -0.102008 )  
( 0.139068 1.32743e-05 -0.00931879 )  
( 0.0545486 5.79665e-06 0.190039 )  
( 0.045348 -9.05075e-06 -0.00896417 )  
( 0.0584356 3.80508e-06 0.287984 )  
( 0.00252433 -2.89448e-06 1.77085e-08 )  
( 0.0700869 -4.45259e-06 0.271164 )  
( -0.0390663 -0.0356788 -8.5757e-09 )  
( 0.00630981 -3.55686e-06 -0.0549371 )  
( 0.176925 -0.00722535 0.0949651 )  
( 0.00672199 -2.83829e-06 -0.0501553 )  
( 0.0489305 1.23267e-06 -0.0183025 )  
( 0.139262 1.9506e-05 -0.0964357 )  
( -0.314211 -0.143132 -0.00373042 )  
( 0.0073073 -9.54102e-07 -0.0309513 )  
( 0.138988 1.89626e-05 -0.0404062 )  
( 0.012141 -2.74409e-06 0.170331 )  
( 0.0118444 -5.74244e-07 -0.0202965 )  
( 0.139338 -2.29376e-06 0.00243835 )  
( 0.139317 9.71113e-06 -0.0441275 )  
( 0.127 -4.64617e-06 0.213931 )  
( 0.00339222 -4.67955e-07 -0.0157454 )  
( 0.00407709 -2.33076e-06 -0.0973529 )  
( 0.00551409 8.57836e-06 0.0882811 )  
( 0.117408 1.08704e-05 0.0520762 )  
( 0.0959964 5.75823e-06 0.0267177 )  
( 0.00677348 -4.95884e-06 0.0645263 )  
( 0.00323699 7.54021e-07 -0.0266023 )  
( 0.13901 -4.16956e-05 -0.127568 )  
( 0.139253 1.04596e-05 -0.176206 )  
( 0.0927832 8.33131e-06 0.232246 )  
( 0.139047 -4.13261e-05 -0.0192411 )  
( 0.00256428 -1.64913e-06 1.37424e-09 )  
( 0.0779604 -7.38489e-06 0.122304 )  
( 0.00254039 2.30258e-06 2.24073e-09 )  
( 0.0151996 -1.74868e-07 0.345319 )  
( 0.0508638 1.26273e-05 0.298555 )  
( 0.00326498 1.99583e-06 -0.018991 )  
( 0.139102 1.25494e-05 -0.177353 )  
( 0.139471 -1.38528e-05 0.159413 )  
( 0.131323 -8.84994e-06 0.155864 )  
( 0.139139 1.63832e-06 0.0664414 )  
( 0.00854299 -1.59756e-06 -0.0173456 )  
( 0.13931 -2.57795e-05 -0.135267 )  
( 0.121695 4.21117e-05 0.220929 )  
( 0.139242 -1.85807e-05 0.145074 )  
( -0.00817141 -0.0281825 -3.04291e-08 )  
( 0.00295372 7.23035e-07 -0.000433475 )  
( 0.00816548 7.29349e-06 -0.00200442 )  
( 0.0639929 -1.2734e-05 0.282774 )  
( 0.139162 4.41421e-05 -0.0269611 )  
( 0.139218 -3.50688e-05 -0.093115 )  
( 0.0112716 -5.51303e-06 0.352871 )  
( 0.074348 7.52227e-06 0.270059 )  
( 0.0038503 3.18152e-06 0.0193623 )  
( 0.138848 7.06735e-06 -0.0875018 )  
( 0.00732328 3.47632e-06 0.049471 )  
( 0.0104929 1.83578e-08 0.244188 )  
( 0.138231 -3.84156e-05 0.233909 )  
( 0.139052 -3.67862e-06 0.167636 )  
( 0.018776 -4.69992e-06 0.345416 )  
( 0.00640331 -1.46664e-06 0.0702902 )  
( 0.139333 4.06498e-05 -0.150143 )  
( 0.139312 2.08071e-05 -0.112782 )  
( 0.00596058 -1.19885e-06 0.0685107 )  
( 0.00322023 1.47611e-06 -0.0206368 )  
( 0.00624746 -3.37912e-06 0.0706185 )  
( 0.00533342 2.05139e-06 0.0890969 )  
( 0.00253816 1.7659e-06 -3.84155e-09 )  
( 0.139301 7.98637e-06 -0.109526 )  
( 0.139178 4.99618e-05 0.010965 )  
( 0.0132459 5.87323e-06 0.368998 )  
( 0.00254011 3.17639e-06 -2.16601e-10 )  
( -0.0288277 0.0024216 -0.00926442 )  
( 0.13913 3.9996e-05 0.0499314 )  
( 0.0014553 1.39384e-06 -1.43353e-11 )  
( 0.0830235 2.16534e-06 0.137193 )  
( 0.139353 8.83088e-06 0.0078649 )  
( 0.00105032 -0.106193 -4.4894e-09 )  
( 0.00525375 -3.02148e-06 -0.0648957 )  
( 0.139367 5.70709e-06 -0.161595 )  
( 0.139252 5.48789e-05 -0.0436315 )  
( 0.00251333 1.28326e-06 -3.62967e-07 )  
( 0.00531481 1.79256e-06 -0.101377 )  
( 0.00254895 6.07508e-06 -1.32563e-10 )  
( 0.112808 2.24766e-05 0.233051 )  
( 0.0354988 0.287443 0.0501678 )  
( 0.00255299 2.17816e-06 -1.79937e-08 )  
( 0.0825493 -0.0177238 -3.34585e-09 )  
( 0.139453 -1.55207e-05 -0.0110666 )  
( 0.0298204 -0.160726 0.0224175 )  
( 0.00526067 2.53822e-06 0.0848023 )  
( 0.139268 -4.21664e-05 -0.111608 )  
( 0.139308 1.22857e-05 0.0260348 )  
( 0.13929 2.36123e-05 -0.0433964 )  
( 0.0430628 -1.11785e-06 -0.154345 )  
( 0.139226 3.15346e-05 -0.167468 )  
( 0.00876816 -0.148733 -3.38028e-08 )  
( 0.106212 3.60154e-06 0.153524 )  
( 0.139257 2.48031e-05 -0.171153 )  
( 0.139065 7.65871e-06 0.0308126 )  
( 0.0328575 -2.80046e-05 0.34069 )  
( 0.139505 -7.68111e-06 -0.101773 )  
( 0.139154 -3.0678e-06 0.173594 )  
( 0.00811795 -2.47503e-06 0.0437647 )  
( -0.0549781 -0.107341 0.00576477 )  
( 0.0820986 6.98627e-06 0.118529 )  
( 0.112554 -1.89214e-05 0.011529 )  
( 0.089433 -3.51294e-06 0.042977 )  
( 0.0465449 -1.41321e-05 0.159415 )  
( 0.016949 9.62295e-06 0.363094 )  
( 0.138571 -2.98301e-05 0.112337 )  
( 0.13948 -2.52284e-06 -0.0853705 )  
( 0.120887 1.3161e-06 0.167489 )  
( 0.0223321 4.55159e-06 -0.0823253 )  
( 0.139266 -2.50278e-05 -0.000322317 )  
( 0.137943 -1.06557e-05 -0.151857 )  
( 0.00257867 -2.10047e-06 1.22649e-08 )  
( 0.0025717 -1.84872e-07 1.1058e-08 )  
( 0.131964 -1.42961e-05 -0.207867 )  
( 0.139287 2.37557e-05 0.0489651 )  
( 0.106599 -1.80259e-05 0.0717374 )  
( 0.139469 -5.11268e-05 -0.0595185 )  
( 0.0256399 1.32866e-05 0.328338 )  
( 0.00255743 -2.56402e-06 -1.55812e-09 )  
( 0.122233 9.52563e-06 0.00810597 )  
( 0.139047 3.88752e-06 -0.0177602 )  
( 0.139328 3.2897e-05 -0.198876 )  
( 0.139219 4.1976e-05 0.0706214 )  
( 0.0219259 0.291171 -0.01607 )  
( 0.00253361 1.61255e-06 1.29297e-08 )  
( 0.00258346 2.44053e-08 2.20652e-10 )  
( 0.115962 1.59412e-05 0.113261 )  
( 0.122117 2.95288e-08 -0.019435 )  
( 0.00818887 -6.73149e-06 -0.000151392 )  
( 0.127786 9.91871e-06 -0.0581347 )  
( 0.00746609 -8.02664e-07 0.310499 )  
( 0.1389 -4.68432e-05 0.134484 )  
( 0.00257183 1.33451e-06 -2.86423e-09 )  
( 0.138448 2.68483e-05 0.099253 )  
( 0.139075 9.24778e-06 0.146314 )  
( 0.139108 1.81588e-05 0.092844 )  
( 0.0223851 -4.65893e-06 0.262235 )  
( 0.13915 7.18949e-05 0.00312255 )  
( 0.00254562 -2.16516e-06 -2.22292e-06 )  
( 0.134203 -7.2418e-05 0.137839 )  
( 0.0229177 5.54369e-06 0.339299 )  
( 0.00633198 2.9683e-06 0.0716134 )  
( 0.00821476 2.27706e-06 0.0268397 )  
( 0.139402 7.18261e-06 -0.0543732 )  
( 0.0759236 -5.32033e-06 0.269983 )  
( 0.385718 -0.011315 2.28788e-08 )  
( 0.00258659 -2.97021e-06 3.1072e-05 )  
( 0.00257848 -6.24588e-06 -5.5569e-09 )  
( 0.00328653 6.89345e-07 -0.0249285 )  
( 0.0834514 -3.24319e-05 0.275293 )  
( 0.00462553 1.729e-06 -0.101496 )  
( 0.139033 1.51898e-05 0.170195 )  
( 0.136824 -0.00104866 0.0843119 )  
( 0.139368 -1.97966e-05 0.103264 )  
( 0.14973 0.105448 1.3389e-08 )  
( 0.139197 2.19888e-06 0.0474314 )  
( 0.00387186 5.71452e-06 0.0169018 )  
( 0.00254233 -3.18719e-06 6.36144e-08 )  
( 0.139097 -5.80866e-05 0.0486861 )  
( 0.139006 -4.37099e-05 -0.110767 )  
( 0.118125 1.84494e-05 0.0877357 )  
( 0.00772004 -9.27318e-08 -0.0316676 )  
( 0.139249 -4.72848e-06 -0.0369363 )  
( 0.139307 3.31217e-05 -0.145117 )  
( 0.00870426 6.81485e-06 0.0211378 )  
( 0.139197 7.41437e-05 -0.082555 )  
( 0.138715 2.29146e-05 0.192472 )  
( 0.139312 1.75576e-05 -0.0690419 )  
( 0.139312 -5.5272e-05 0.0314653 )  
( 0.00549737 5.72092e-06 -0.0986667 )  
( 0.00255387 1.85326e-06 -3.9134e-10 )  
( 0.121604 -3.40846e-05 -0.039015 )  
( 0.0519006 -9.91918e-06 0.296922 )  
( 0.117423 4.92158e-06 0.0989863 )  
( -0.018535 -0.0157382 -3.79654e-09 )  
( 0.002554 1.57606e-06 -1.65603e-08 )  
( 0.00254433 5.69802e-06 6.3945e-09 )  
( 0.1394 3.69651e-05 -0.166311 )  
( -0.0479949 -0.0384123 -0.0782315 )  
( 0.0858315 1.05464e-05 0.215725 )  
( 0.00909246 9.74649e-06 0.0103851 )  
( 0.13928 1.73452e-05 0.0815492 )  
( 0.0194702 3.76622e-06 0.316853 )  
( 0.13921 -3.55815e-07 0.107885 )  
( 0.00255783 2.25074e-06 -8.36062e-09 )  
( 0.120314 9.56431e-06 -0.0342083 )  
( 0.0903442 5.99161e-08 0.236522 )  
( 0.139336 1.96822e-05 0.0540619 )  
( 0.00662055 -3.94068e-06 -0.0513046 )  
( 0.0804925 -5.06833e-05 0.216383 )  
( 0.00510554 -8.98525e-06 -0.0723035 )  
( 0.00256726 -1.94651e-06 -5.55156e-09 )  
( 0.0696961 0.392522 0.148048 )  
( 0.139023 -8.2349e-06 0.0222618 )  
( 0.0174612 -2.28894e-06 0.341861 )  
( 0.002551 -3.21955e-06 -3.22323e-09 )  
( 0.0197748 -8.51926e-06 0.346596 )  
( 0.139427 -2.07446e-06 0.0521019 )  
( 0.134743 -1.23696e-05 0.208493 )  
( -0.0661655 -0.153878 -0.00449733 )  
( 0.00254449 2.20863e-06 8.5587e-06 )  
( 0.139088 1.47655e-05 -0.108912 )  
( 0.066371 -9.08163e-06 -0.0880815 )  
( -0.403669 0.0196618 -0.00755561 )  
( 0.139384 2.27229e-05 0.0237588 )  
( 0.184734 -0.0625886 0.232492 )  
( 0.0104197 0.00578993 -1.51976e-08 )  
( 0.00409227 2.72144e-06 -0.0797971 )  
( 0.139416 -1.46269e-05 0.150506 )  
( 0.00258463 -6.9412e-07 2.84621e-09 )  
( 0.138983 1.23101e-05 0.181648 )  
( 0.113474 6.44871e-06 0.0932789 )  
( 0.139071 -5.04036e-06 0.034179 )  
( 0.0318515 -5.45891e-06 0.289069 )  
( 0.0880399 8.11331e-06 0.264688 )  
( 0.00820051 -1.98528e-06 0.00342459 )  
( 0.00383045 -6.6286e-06 0.00581451 )  
( 0.0633024 1.93606e-07 0.305181 )  
( 0.139414 1.67558e-05 0.0255769 )  
( -0.171556 0.00514138 -4.79121e-09 )  
( 0.0573442 -4.51864e-06 -0.126022 )  
( 0.139149 5.76991e-06 0.0190318 )  
( 0.336943 -0.0167661 0.100791 )  
( 0.138846 -1.88658e-05 0.206331 )  
( 0.0777983 0.000319693 0.266262 )  
( 0.123012 4.34787e-05 0.182665 )  
( 0.00255255 4.92137e-06 1.86983e-08 )  
( 0.00257045 1.55702e-06 -1.75667e-08 )  
( 0.139085 7.58125e-07 -0.130471 )  
( 0.139217 -5.17188e-06 -0.139777 )  
( 0.0210236 -9.20783e-06 0.318423 )  
( 0.128751 -4.41987e-05 0.0811938 )  
( 0.138997 2.08859e-05 0.132073 )  
( 0.00840587 3.55201e-06 0.00286852 )  
( 0.139394 2.47455e-05 -0.0782458 )  
( -0.0346506 0.179888 0.0187958 )  
( 0.117669 -8.64627e-05 0.179167 )  
( 0.00536257 -2.18222e-06 0.306305 )  
( 0.0117815 3.15397e-06 0.371776 )  
( 0.00329931 1.64585e-06 0.00603513 )  
( 0.00255078 4.43746e-06 1.03308e-08 )  
( 0.0399219 6.35301e-06 0.320601 )  
( 0.00601003 1.55027e-06 -0.0539941 )  
( 0.138829 1.23195e-05 -0.0659702 )  
( 0.046191 -5.52407e-05 0.301967 )  
( 0.139149 -6.84869e-06 0.0293938 )  
( 0.139121 -2.59944e-05 0.0349683 )  
( 0.0738136 -2.66653e-05 0.271487 )  
( 0.0478775 -5.29855e-06 0.208997 )  
( -0.139394 -0.0771643 7.649e-09 )  
( 0.138943 -4.53869e-06 -0.101515 )  
( 0.00807331 2.71215e-06 -0.0257613 )  
( 0.139273 -1.6977e-05 -0.171467 )  
( 0.0151848 -1.46326e-05 0.347298 )  
( 0.139377 4.2001e-05 0.0385976 )  
( 0.10889 8.62894e-06 0.11581 )  
( 0.00394135 1.24174e-05 -0.0873972 )  
( 0.139482 1.98027e-05 0.0961526 )  
( 0.139217 4.58035e-05 -0.0127855 )  
( 0.139265 -5.70694e-06 -0.194329 )  
( 0.139373 -3.7086e-05 0.047045 )  
( 0.00305049 -1.43364e-06 2.24658e-05 )  
( 0.139031 2.94617e-05 -0.100914 )  
( 0.138865 4.78837e-06 0.0220352 )  
( 0.139332 -2.47307e-05 -0.145865 )  
( 0.00389789 -5.21386e-06 0.013048 )  
( 0.0306121 -1.45411e-05 0.324693 )  
( 0.139398 1.2717e-05 0.123004 )  
( 0.355523 0.171718 0.113607 )  
( 0.130761 4.92832e-05 0.174944 )  
( 0.00808851 -6.36574e-07 -0.0251653 )  
( 0.13906 -5.94945e-05 -0.127441 )  
( 0.139235 -4.61459e-05 -0.0943599 )  
( 0.00257147 -4.12734e-06 7.49272e-09 )  
( 0.139296 -2.13784e-05 -0.175346 )  
( 0.138943 2.07141e-05 -0.0520078 )  
( 0.139383 4.54983e-05 0.0885765 )  
( 0.0704272 -2.0516e-06 0.279882 )  
( -0.155924 0.0245414 5.01835e-09 )  
( 0.139289 -3.89673e-06 0.10766 )  
( 0.138843 2.29288e-05 -0.112989 )  
( 0.00669386 -9.48419e-06 -0.0510202 )  
( 0.00780597 -1.08061e-06 -0.0269806 )  
( 0.139232 5.75899e-05 0.0661505 )  
( -0.12465 -0.0836125 0.139327 )  
( 0.0757957 1.44179e-05 -0.0640303 )  
( 0.13945 -2.74083e-06 -0.215685 )  
( 0.00697703 2.00001e-07 -0.0359424 )  
( 0.0867477 -3.1983e-06 0.259369 )  
( 0.0545349 -1.44803e-06 0.299209 )  
( 0.132347 -4.04691e-05 0.185205 )  
( 0.0476189 -5.13189e-06 0.107876 )  
( 0.00389629 4.8761e-06 -0.0855108 )  
( 0.139179 -1.47745e-06 -0.170951 )  
( 0.0084138 -1.18144e-07 0.0322327 )  
( 0.138923 3.70621e-05 0.0199501 )  
( 0.139204 -3.84819e-08 -0.178153 )  
( 0.0450124 -1.71808e-06 -0.0166119 )  
( 0.139051 1.31727e-05 -0.057336 )  
( 0.12748 -6.07367e-06 0.2371 )  
( 0.117201 -3.03967e-05 0.133559 )  
( 0.00960806 5.79653e-07 0.356893 )  
( 0.0080414 1.5148e-05 -0.011237 )  
( 0.00780742 6.00402e-07 0.0519732 )  
( 0.0525219 -1.42931e-05 0.293414 )  
( 0.00255922 2.90725e-06 4.08486e-09 )  
( 0.00303305 -7.09436e-07 0.00030817 )  
( 0.139335 4.60298e-05 -0.159438 )  
( 0.0945748 3.45169e-06 0.265499 )  
( 0.139275 2.79083e-05 0.168361 )  
( 0.00820367 1.28249e-06 -0.0158174 )  
( 0.139153 -8.4239e-06 -0.129358 )  
( 0.126333 3.35103e-05 0.163713 )  
( 0.00824229 -1.54014e-05 -0.00432635 )  
( 0.00686723 -6.56109e-06 -0.0388848 )  
( 0.0260478 -0.0227769 -0.0712557 )  
( 0.103529 -9.13055e-05 0.206984 )  
( 0.00256407 4.70802e-06 6.49207e-09 )  
( 0.00497068 8.09577e-06 0.0886033 )  
( 0.139215 1.18058e-05 -0.0732558 )  
( 0.139197 3.04054e-05 -0.163014 )  
( 0.00379355 8.68135e-06 -0.000404504 )  
( 0.0134311 -7.30056e-06 0.352443 )  
( 0.139327 7.41845e-05 -0.166329 )  
( 0.139388 3.26248e-05 0.0481323 )  
( 0.139393 -5.16401e-05 0.136639 )  
( 0.127981 -1.53787e-05 -0.145361 )  
( 0.139088 5.66216e-05 0.0752805 )  
( 0.139261 -3.7882e-06 -0.147812 )  
( 0.139279 5.33826e-05 -0.175874 )  
( 0.00808811 3.15998e-06 0.0399103 )  
( 0.00794945 2.50495e-06 0.0480534 )  
( 0.00510908 5.48456e-06 0.0919567 )  
( 0.0039787 -1.48038e-05 -0.0945389 )  
( 0.00757216 -2.85957e-06 -0.0333996 )  
( 0.138862 6.33138e-05 -0.0255182 )  
( 0.00567225 -6.9218e-06 -0.062628 )  
( 0.0052368 6.07609e-06 0.0850576 )  
( 0.0306787 1.31716e-06 0.298074 )  
( 0.139358 7.96172e-05 -0.00249473 )  
( 0.496328 -0.0710421 0.173096 )  
( 0.116306 5.6575e-05 0.170325 )  
( 0.00457919 3.06429e-06 -0.0977147 )  
( 0.139309 -1.60784e-06 0.0306866 )  
( 0.00255585 5.98684e-06 4.02435e-09 )  
( 0.00255473 2.81884e-06 -4.40414e-08 )  
( 0.00253199 -1.31994e-06 2.11459e-08 )  
( 0.138836 3.27611e-05 -0.146592 )  
( 0.13859 1.03025e-05 0.0855614 )  
( 0.00487767 6.80512e-06 -0.0984672 )  
( 0.00864449 5.97192e-06 0.0238441 )  
( 0.00256148 2.43115e-06 6.96237e-09 )  
( 0.139167 4.24512e-05 0.0744693 )  
( 0.398435 0.172892 0.0128985 )  
( 0.139205 -5.29007e-05 0.00864198 )  
( 0.139178 1.92001e-05 -0.106427 )  
( 0.040186 -1.00195e-05 -0.0849513 )  
( 0.0885226 4.21226e-05 0.203968 )  
( 0.0182473 -2.35908e-07 0.332783 )  
( 0.0544516 -1.59462e-05 0.314528 )  
( 0.00251958 -1.2645e-06 -0.00225612 )  
( 0.00257886 -1.95811e-06 2.72174e-08 )  
( 0.119693 -2.66805e-05 0.146103 )  
( 0.191872 0.0211739 -8.44353e-09 )  
( 0.00351618 3.85121e-06 -0.0107891 )  
( 0.00745499 -5.14253e-06 0.0563276 )  
( 0.139188 -2.51959e-06 -0.0992469 )  
( 0.124156 3.79829e-06 -0.173943 )  
( 0.0261882 8.96746e-06 0.327433 )  
( 0.061032 1.66625e-05 0.113463 )  
( 0.0795698 3.00756e-06 0.232824 )  
( 0.116045 3.38204e-05 0.0852709 )  
( 0.00256471 9.48541e-07 1.13682e-08 )  
( 0.0177554 1.45136e-05 -0.00219304 )  
( 0.438833 0.222677 0.0753406 )  
( 0.0915096 2.64447e-05 0.25671 )  
( 0.00255906 1.94034e-06 4.08021e-09 )  
( 0.10864 5.96053e-05 0.234067 )  
( 0.114285 3.9604e-05 -0.0236727 )  
( 0.00494308 1.46552e-05 0.0919814 )  
( 0.130663 -2.46295e-05 0.144132 )  
( 0.114388 9.2439e-06 0.208068 )  
( 0.139159 2.41428e-05 -0.0108345 )  
( 0.00721485 -5.54095e-07 0.0609929 )  
( 0.00254631 2.76403e-06 1.36242e-09 )  
( 0.138847 2.98112e-05 -0.152325 )  
( 0.00499522 2.0328e-07 0.0951585 )  
( 0.00623052 1.0056e-05 0.0709864 )  
( 0.0086288 -7.50929e-06 0.00808729 )  
( 0.00813442 -4.35679e-06 0.0274561 )  
( 0.00784027 -1.37024e-06 0.0457443 )  
( 0.051752 7.70472e-06 0.318439 )  
( 0.00414588 -1.89306e-06 0.0286071 )  
( 0.13965 -1.58092e-05 -0.0781152 )  
( 0.0317787 8.11164e-06 0.306022 )  
( 0.00253771 2.53337e-06 6.38155e-07 )  
( 0.139216 1.97081e-06 -0.00633258 )  
( 0.00255158 5.54301e-06 1.9757e-08 )  
( 0.00255552 4.89376e-06 -8.47793e-09 )  
( 0.139164 5.31596e-05 -0.100169 )  
( -0.415634 -0.0467768 2.75474e-08 )  
( 0.114082 4.90519e-06 0.0257618 )  
( 0.139236 5.96202e-06 0.0495272 )  
( 0.138976 3.47769e-06 -0.0828008 )  
( 0.0025507 -7.67869e-06 -3.23938e-09 )  
( 0.0817351 1.25801e-05 0.287342 )  
( 0.0141752 -1.28688e-05 0.354175 )  
( 0.00254103 2.21143e-06 3.25661e-08 )  
( 0.139159 -6.98278e-05 -0.0640809 )  
( 0.00390843 -4.14602e-06 -0.0864962 )  
( 0.00806591 4.24203e-06 0.0412871 )  
( 0.00256658 5.95018e-06 -1.06826e-08 )  
( 0.0282024 1.6557e-05 0.334729 )  
( 0.00385865 -4.34479e-06 0.0198268 )  
( 0.079602 -1.61638e-06 0.268126 )  
( 0.0216054 -6.12927e-06 0.322087 )  
( -0.138734 -0.0823994 0.153419 )  
( 0.00700841 -3.07772e-07 -0.0385267 )  
( 0.0625296 -1.80138e-05 0.27545 )  
( 0.00559899 1.145e-05 -0.0601895 )  
( 0.130414 -1.86074e-05 0.073136 )  
( 0.00255852 1.02744e-07 5.43389e-09 )  
( 0.139277 -1.16996e-05 -0.0228975 )  
( 0.139137 4.75141e-06 -0.142245 )  
( 0.108135 7.99456e-06 0.159558 )  
( 0.00768561 -7.44304e-07 -0.0198914 )  
( 0.00257864 2.58941e-06 -6.72944e-09 )  
( 0.139369 -3.87315e-05 -0.132712 )  
( 0.00890269 -2.36138e-06 0.0233603 )  
( 0.138926 2.81477e-05 0.0219269 )  
( 0.13894 -1.82172e-05 -0.0750645 )  
( 0.00666063 -1.99297e-05 -0.0416849 )  
( 0.0921901 -5.36767e-06 0.240812 )  
( 0.139063 -0.000104997 -0.172154 )  
( 0.04476 -6.29186e-05 0.325411 )  
( 0.00376633 -1.88911e-06 0.0234827 )  
( 0.0486477 -1.83979e-05 0.275535 )  
( 0.268967 0.144768 2.88304e-09 )  
( 0.00254588 6.51431e-06 -1.39224e-08 )  
( 0.139023 -1.95601e-06 -0.027538 )  
( 0.139078 1.5386e-06 -0.170355 )  
( 0.00257903 2.2934e-06 -1.76385e-08 )  
( 0.014577 4.53826e-06 0.346151 )  
( 0.00290121 -1.74577e-06 -0.00279532 )  
( 0.0057282 2.8266e-06 0.0850592 )  
( 0.00251218 1.32154e-06 -1.64989e-08 )  
( 0.00388701 1.61795e-05 0.0192545 )  
( -0.120621 -0.0849746 0.0342268 )  
( 0.0025566 4.54178e-06 2.27731e-08 )  
( 0.00250857 1.08526e-06 3.49876e-08 )  
( 0.00255593 2.88895e-06 4.08768e-09 )  
( 0.139123 -8.09233e-05 0.0567465 )  
( 0.00253568 -1.03831e-07 2.17066e-09 )  
( 0.00945808 1.13131e-06 0.360182 )  
( 0.073549 6.36219e-06 0.280843 )  
( 0.139372 1.51329e-05 0.02462 )  
( 0.139334 2.19456e-05 -0.176699 )  
( 0.139061 -1.36463e-06 -0.128011 )  
( 0.139327 -2.81385e-05 -0.0678818 )  
( 0.139303 -9.33266e-06 -0.0969785 )  
( 0.139138 -5.31791e-05 0.163616 )  
( 0.00256874 7.62942e-07 7.00319e-09 )  
( 0.13903 6.87856e-05 0.147748 )  
( 0.116519 8.6698e-05 0.228493 )  
( 0.004796 -6.22263e-07 -0.0765886 )  
( 0.103776 -4.17569e-06 -0.103634 )  
( 0.00682691 -2.46472e-07 -0.173005 )  
( 0.138857 -2.80293e-05 0.193809 )  
( 0.014368 1.36788e-05 0.098485 )  
( 0.00253181 1.55575e-06 -2.4541e-09 )  
( 0.139106 -3.53168e-05 -0.0752083 )  
( 0.102533 -4.76747e-05 0.267587 )  
( 0.125344 -1.76522e-05 0.158312 )  
( 0.111979 1.58249e-05 0.0844672 )  
( 0.138615 3.08959e-06 0.119415 )  
( 0.138719 -9.84348e-06 -0.0294594 )  
( 0.0079767 -2.08086e-06 0.0483135 )  
( 0.00791472 3.74936e-06 0.029581 )  
( 0.0365132 -2.26866e-05 -0.141928 )  
( 0.138755 -0.000106578 0.214975 )  
( 0.139362 1.9003e-05 -0.145054 )  
( 0.105988 -2.5638e-05 0.144463 )  
( 0.139404 2.84875e-05 -0.16373 )  
( 0.0593351 1.09731e-05 0.286638 )  
( 0.139222 7.27216e-05 -0.0685877 )  
( 0.106775 -5.65807e-06 0.225058 )  
( 0.00572332 9.77571e-06 0.0790242 )  
( 0.00524853 -1.26816e-05 0.0861423 )  
( 0.0897417 5.32532e-06 0.253959 )  
( 0.139173 -4.23074e-05 0.0751938 )  
( 0.10483 -5.87125e-05 0.180627 )  
( 0.139209 4.34436e-05 -0.0481717 )  
( 0.00256627 -1.58857e-06 1.416e-10 )  
( 0.138967 0.000136753 0.110434 )  
( 0.139437 -5.77136e-05 0.0926462 )  
( 0.0383808 4.8416e-05 0.332531 )  
( 0.132287 -1.13374e-05 -0.0257896 )  
( 0.139237 7.27925e-05 -0.0974203 )  
( 0.139404 4.75059e-06 0.0810733 )  
( -0.013983 -0.253241 6.75951e-09 )  
( 0.0443154 5.17275e-06 -0.186765 )  
( 0.0860834 -3.14341e-06 0.198772 )  
( -0.136927 0.0296273 0.216809 )  
( 0.00776911 -1.03547e-05 0.0375337 )  
( 0.0116608 -4.01689e-06 0.356309 )  
( 0.0493846 -2.65246e-05 0.297323 )  
( 0.139042 4.87448e-06 0.0968899 )  
( 0.0618054 -2.31162e-05 0.308034 )  
( 0.139098 6.75373e-06 -0.0915854 )  
( 0.203054 0.334339 -0.055891 )  
( 0.0146866 -1.26497e-05 0.346844 )  
( 0.0953401 8.70687e-06 0.133851 )  
( 0.139136 -4.02004e-05 0.201352 )  
( 0.138863 6.31963e-05 -0.0695761 )  
( 0.0864947 8.24018e-06 -0.15888 )  
( 0.138889 1.21382e-05 0.00741431 )  
( 0.0543521 3.08959e-06 0.121396 )  
( 0.13905 8.66312e-06 0.14405 )  
( 0.139378 -3.98397e-05 -0.129306 )  
( 0.139303 -2.10595e-06 -0.117244 )  
( 0.00399076 9.42292e-06 -0.0882558 )  
( 0.13924 3.85247e-05 -0.124692 )  
( 0.093893 6.36008e-05 0.00245186 )  
( 0.0104995 1.28654e-06 -0.0410697 )  
( 0.00808905 -2.4215e-06 0.00963208 )  
( 0.139173 -3.64719e-05 -0.118242 )  
( 0.0025566 8.48565e-06 3.05979e-09 )  
( 0.00850997 -3.45913e-06 -0.00906922 )  
( 0.0815828 2.69899e-05 0.229999 )  
( 0.138924 9.95718e-05 -0.0561261 )  
( 0.00256722 4.15085e-06 1.13179e-08 )  
( 0.00253953 -5.91014e-06 4.87503e-09 )  
( 0.00864969 -1.60649e-06 0.0167281 )  
( 0.0025474 1.80196e-06 5.41632e-09 )  
( 0.0648929 7.25111e-06 -0.115719 )  
( 0.00254834 6.00923e-06 3.85166e-09 )  
( 0.138119 -3.08998e-05 -0.127446 )  
( 0.00483266 -3.68362e-06 0.091465 )  
( 0.13921 1.46249e-05 0.15371 )  
( 0.13915 -2.95598e-05 -0.0240019 )  
( 0.116101 1.00125e-05 0.179216 )  
( 0.129928 -3.64288e-05 0.0734053 )  
( 0.0517557 -1.70459e-06 0.251928 )  
( 0.228746 -0.41179 0.126912 )  
( 0.121702 -7.20097e-05 0.130288 )  
( 0.00256017 -8.52052e-06 3.97532e-08 )  
( 0.00533521 -6.28635e-06 -0.0706805 )  
( 0.0048057 7.0941e-07 -0.0699711 )  
( 0.0352729 0.130075 0.00170159 )  
( 0.0767777 1.65041e-05 0.267228 )  
( 0.133891 -6.27781e-06 0.0579758 )  
( 0.0707169 0.307754 -3.8577e-09 )  
( 0.0100606 -5.33373e-06 0.359259 )  
( 0.0596216 2.3382e-05 0.234994 )  
( 0.139367 7.6442e-05 -0.0715862 )  
( 0.00751744 -7.31806e-06 0.0540796 )  
( 0.00817937 -1.33071e-05 0.0350533 )  
( 0.00796865 -1.93119e-05 -0.0229875 )  
( 0.0557554 8.75539e-06 0.065614 )  
( 0.0437062 -4.35479e-05 0.304207 )  
( 0.139219 -1.44783e-05 -0.162595 )  
( 0.103096 -1.17994e-05 0.234368 )  
( 0.138933 1.04631e-05 -0.139651 )  
( 0.0424029 2.31565e-05 0.302376 )  
( 0.00456999 7.90986e-07 0.0938035 )  
( 0.139356 -5.46835e-05 0.168818 )  
( 0.139158 -2.23758e-05 -0.160589 )  
( 0.00256098 -0.165009 4.90758e-09 )  
( 0.00257908 2.97745e-06 -1.66163e-08 )  
( 0.1394 3.65727e-05 -0.0506349 )  
( 0.139028 -3.43308e-06 -0.142738 )  
( 0.139377 8.24173e-05 -0.148649 )  
( 0.115028 -4.58636e-06 -0.123444 )  
( 0.0316168 4.38042e-06 0.323253 )  
( 0.00254592 -3.17998e-06 6.73614e-09 )  
( 0.118848 -2.36818e-05 0.14281 )  
( 0.138526 4.73138e-05 0.186411 )  
( 0.139457 1.67415e-05 -0.078667 )  
( 0.109354 3.42462e-06 0.150241 )  
( 0.0084037 -4.06776e-06 -0.0148062 )  
( 0.0280057 -1.17946e-05 0.309862 )  
( 0.139035 -8.87438e-06 0.157322 )  
( 0.139422 6.61585e-06 -0.144947 )  
( 0.00254661 -4.76206e-06 -0.000271656 )  
( 0.138927 3.60957e-06 0.0790197 )  
( 0.139103 -6.67899e-05 0.0440688 )  
( 0.0841336 5.79183e-06 0.221168 )  
( 0.139087 3.61101e-05 0.0606963 )  
( 0.139163 -4.50848e-05 -0.129193 )  
( 0.0731604 4.00176e-05 -0.0534419 )  
( 0.0605906 1.37538e-05 0.239839 )  
( 0.139113 -2.37653e-05 -0.0704295 )  
( 0.00256432 -1.67601e-07 -2.87634e-07 )  
( 0.139347 5.92991e-05 -0.147581 )  
( 0.00257651 -4.75072e-07 1.01562e-07 )  
( 0.0626018 -0.0598114 -0.0359171 )  
( 0.00575254 2.11364e-06 -0.115146 )  
( -0.0534957 -0.139632 0.078224 )  
( 0.0025516 4.1864e-06 1.18571e-08 )  
( 0.00254177 8.74563e-06 6.20754e-09 )  
( 0.139296 3.52946e-06 0.0263904 )  
( 0.131141 6.64404e-05 -0.128505 )  
( 0.139207 -1.76353e-05 -0.00568154 )  
( -0.0461976 0.110584 2.41678e-08 )  
( 0.00258553 7.11899e-06 -1.48852e-08 )  
( 0.00649059 2.34424e-06 -0.0465412 )  
( 0.120887 -2.27609e-05 0.125824 )  
( 0.00839616 2.22236e-06 -0.0123147 )  
( 0.138876 -6.72496e-05 -0.0869955 )  
( 0.00657289 1.55041e-05 -0.050814 )  
( 0.13911 3.97472e-06 -0.0265022 )  
( 0.138291 -2.25972e-05 -0.147213 )  
( 0.139079 6.03068e-05 0.0653197 )  
( 0.00375697 -5.82238e-07 -0.0521125 )  
( 0.00758947 4.19561e-06 -0.0320132 )  
( 0.00431574 5.74744e-07 -0.0804379 )  
( 0.0524086 -2.75133e-05 0.316746 )  
( -0.0925031 -0.163129 0.0283618 )  
( 0.0209875 -1.78671e-05 0.342218 )  
( 0.00547129 1.11305e-06 0.0815743 )  
( 0.139281 3.41572e-05 -0.0344611 )  
( -0.0516521 -0.240844 0.0127442 )  
( -0.0059766 -0.00718942 -1.49242e-08 )  
( 0.00539792 7.78769e-06 0.0834919 )  
( 0.00376928 1.54402e-05 -0.000529452 )  
( 0.139369 6.65456e-06 -0.134446 )  
( 0.00255671 2.24248e-06 5.0915e-10 )  
( 0.00255452 3.0044e-06 6.72366e-09 )  
( 0.13912 -6.21114e-05 -0.053595 )  
( 0.00275215 1.0021e-06 -0.0057385 )  
( 0.00477673 4.16595e-06 0.0932522 )  
( 0.0906854 6.29143e-05 -0.00663981 )  
( 0.00255355 2.14691e-06 2.93068e-09 )  
( 0.0532393 -9.5051e-06 0.294207 )  
( 0.139145 -5.77302e-05 -0.176606 )  
( 0.13887 8.08269e-05 -0.00315574 )  
( 0.139297 6.39856e-05 0.0435452 )  
( 0.0032972 7.07658e-07 -0.0230409 )  
( 0.0589532 0.0466876 -0.0104297 )  
( 0.139224 -4.25103e-05 -0.043896 )  
( 0.00257253 -1.45268e-06 -1.55729e-05 )  
( 0.00776375 -2.17291e-06 -0.0275196 )  
( 0.138948 3.3632e-05 0.0905408 )  
( 0.0977949 9.07721e-06 0.196155 )  
( 0.139139 5.18535e-06 0.0916107 )  
( 0.00798533 -1.34411e-05 0.0264896 )  
( 0.0185746 2.16607e-05 0.334838 )  
( 0.00257306 -8.82404e-06 1.00378e-06 )  
( 0.0654681 -1.78546e-05 0.219658 )  
( 0.139222 3.53567e-05 -0.11887 )  
( 0.0701978 -0.392999 0.0815952 )  
( 0.0840035 -1.30509e-05 0.230058 )  
( 0.124027 2.83771e-05 0.230097 )  
( 0.0426766 3.8437e-06 -0.0545474 )  
( 0.0502112 5.38697e-06 0.045746 )  
( 0.00255598 1.88849e-06 1.12428e-08 )  
( 0.112881 8.73121e-05 0.230316 )  
( 0.138934 -2.50179e-05 0.0689221 )  
( 0.133382 -1.15538e-05 0.138678 )  
( 0.0414431 -2.09984e-05 0.320015 )  
( 0.10094 0.00275563 -0.0268531 )  
( 0.00257137 -2.2364e-06 -2.12985e-09 )  
( 0.00433436 -3.94347e-06 -0.0794136 )  
( 0.139117 3.30074e-05 0.0266463 )  
( 0.00847025 -1.43387e-05 -0.00837415 )  
( 0.139137 -2.16345e-05 -0.0214335 )  
( 0.00253568 8.67707e-06 6.30993e-09 )  
( 0.00256955 -4.59195e-06 -1.93932e-08 )  
( 0.0114985 0.136658 4.3224e-06 )  
( 0.138888 -8.56236e-05 0.0940443 )  
( 0.13924 -2.2341e-05 -0.0816056 )  
( 0.0924353 1.91321e-05 0.195239 )  
( 0.0371223 1.29739e-05 0.122999 )  
( 0.128474 -4.84056e-05 0.210854 )  
( 0.139466 -2.99265e-05 0.0107451 )  
( 0.0950543 -5.55745e-05 -0.117289 )  
( 0.137828 -1.79878e-06 0.00464369 )  
( 0.00254935 1.02269e-06 -3.92036e-09 )  
( 0.0631978 9.28143e-06 0.204122 )  
( 0.00326774 1.00183e-05 0.00581365 )  
( -0.273943 0.152858 0.268428 )  
( 0.139163 8.13648e-06 -0.0934419 )  
( -0.022864 0.154325 -1.54786e-09 )  
( 0.00256686 -8.1808e-06 2.72759e-09 )  
( 0.00795012 4.48091e-06 0.0295993 )  
( 0.00399225 0.0932607 0.0394694 )  
( 0.139235 -3.91304e-05 -0.114905 )  
( 0.139099 9.09365e-06 -0.119816 )  
( 0.139292 8.30828e-06 -0.0668276 )  
( 0.00734248 7.45091e-06 0.0507531 )  
( 0.13929 2.64121e-05 -0.00883971 )  
( 0.139251 3.15721e-05 0.101095 )  
( 0.00718019 -1.00944e-05 -0.039753 )  
( 0.0350168 -1.43086e-05 -0.126229 )  
( -0.176445 -0.23678 -0.00511951 )  
( 0.00255543 1.96908e-06 1.26225e-08 )  
( 0.139376 7.00514e-05 -0.139263 )  
( 0.00546484 -3.63786e-06 -0.10277 )  
( 0.139077 -5.66019e-05 -0.0967298 )  
( 0.0169625 -5.33806e-06 0.102468 )  
( 0.00398734 -9.25032e-06 -0.0890034 )  
( 0.138127 -5.40445e-05 -0.109567 )  
( 0.00256508 3.26422e-06 1.12191e-08 )  
( 0.00444805 0.00119361 -0.0199741 )  
( 0.111339 2.53525e-05 0.17836 )  
( 0.00257968 -6.93933e-06 1.94225e-09 )  
( 0.139084 -8.13336e-05 -0.157841 )  
( 0.0177225 1.74226e-06 0.361371 )  
( 0.086861 -5.17403e-05 0.264283 )  
( 0.0463449 4.15617e-06 0.108738 )  
( 0.00734243 1.63603e-05 -0.0372912 )  
( 0.119048 3.6035e-05 0.135888 )  
( 0.12659 3.47797e-05 0.245975 )  
( 0.00280787 -1.72333e-07 -0.00437182 )  
( 0.0814841 3.38472e-05 0.267801 )  
( 0.139279 2.85367e-05 -0.0125146 )  
( 0.138971 -7.22324e-05 0.0282902 )  
( 0.139179 -2.04458e-05 0.0143293 )  
( 0.0915261 -7.26401e-05 0.263208 )  
( 0.0144014 -4.66676e-06 0.353113 )  
( 0.0264861 -0.0267604 -0.0169889 )  
( 0.37087 -0.0638147 0.148909 )  
( 0.0031652 7.42382e-06 0.00185467 )  
( 0.109888 4.58789e-05 0.218165 )  
( 0.0554975 4.82885e-05 0.257912 )  
( 0.0523243 1.169e-06 0.297639 )  
( 0.139221 -4.88117e-05 -0.0376674 )  
( 0.00257919 8.65805e-06 1.63375e-09 )  
( 0.127019 -7.30158e-05 -0.169449 )  
( 0.139345 -7.29978e-05 -0.0336892 )  
( 0.00566638 -1.75192e-05 -0.0633233 )  
( 0.00762326 -1.54233e-05 0.0547626 )  
( 0.0267285 -0.00178759 1.4023e-08 )  
( 0.138986 -2.92769e-05 0.0486845 )  
( 0.0915413 6.4583e-05 0.188136 )  
( 0.0759314 -0.0864118 0.269293 )  
( 0.0236588 -5.08571e-06 0.326978 )  
( 0.139201 -3.3075e-05 -0.16762 )  
( 0.326543 -0.0935304 0.0485111 )  
( 0.0600333 -9.16002e-06 0.269172 )  
( 0.00815551 8.23538e-06 -0.0189688 )  
( 0.139441 2.31825e-05 -0.0961928 )  
( 0.0335143 5.33049e-06 0.317783 )  
( 0.0538575 -4.32663e-05 0.037481 )  
( 0.139127 5.22625e-05 0.100369 )  
( 0.00255154 5.66361e-06 -1.78243e-12 )  
( 0.138657 -3.30127e-05 0.126618 )  
( 0.0769613 -2.59269e-05 0.214219 )  
( 0.0404455 -3.19608e-06 0.253048 )  
( 0.139206 1.12583e-05 0.139658 )  
( 0.00778483 -6.85983e-07 0.0336669 )  
( 0.00703949 -1.4553e-05 0.0660673 )  
( 0.139099 -1.42247e-05 -0.0018451 )  
( 0.0982961 -8.814e-05 0.246049 )  
( 0.108138 7.02893e-05 0.181531 )  
( 0.00303617 -4.43102e-06 -6.10377e-05 )  