/*--------------------------------*- C++ -*----------------------------------*\
| =========                 |                                                 |
| \\      /  F ield         | OpenFOAM: The Open Source CFD Toolbox           |
|  \\    /   O peration     | Version:  2506                                  |
|   \\  /    A nd           | Website:  www.openfoam.com                      |
|    \\/     M anipulation  |                                                 |
\*---------------------------------------------------------------------------*/
FoamFile
{
    version     2.0;
    format      ascii;
    arch        "LSB;label=32;scalar=64";
    class       volScalarField;
    location    "0.1";
    object      p;
}
// * * * * * * * * * * * * * * * * * * * * * * * * * * * * * * * * * * * * * //

dimensions      [0 2 -2 0 0 0 0];

internalField   nonuniform List<scalar> 
1152
(
17.2327
17.5006
17.4018
16.0388
17.4443
17.7232
17.8373
17.8168
18.0296
17.9461
17.9672
17.9084
18.2885
18.3218
17.7297
18.106
15.1098
15.0955
15.1238
15.7913
15.2705
15.3904
15.4055
15.4662
15.6112
15.6125
15.6871
15.5655
15.8289
15.7347
15.7445
15.6823
13.125
13.026
13.0183
12.2692
12.8348
12.9693
12.8664
12.6935
13.3833
13.4346
12.9558
13.1441
13.4576
13.376
13.73
12.7419
11.9674
8.7812
7.95161
5.04332
11.2853
9.68409
8.47389
7.78917
9.98897
9.32006
8.92839
8.57642
9.32628
9.3723
9.19009
8.93106
5.41118
5.76779
5.54635
5.03858
5.90543
5.60351
5.37145
5.10075
5.66809
5.60784
5.44198
5.21368
4.87412
5.3873
5.34239
4.83809
3.43152
2.99097
2.65608
3.79648
2.69649
2.29715
2.03979
1.83629
2.09166
2.11458
1.85064
1.57909
1.8498
1.28087
1.80705
1.53919
1.00478
0.998007
1.02829
1.12693
1.00703
1.0168
1.02455
1.05186
0.998513
0.986018
1.00188
1.02453
0.992693
1.0018
0.985423
1.01659
0.995221
1.00016
1.0036
1.00904
0.993118
0.995033
0.998944
1.00264
0.987402
0.990418
0.994356
0.99691
0.986415
0.987319
0.991163
0.992695
1.00067
1.00164
1.00406
1.00682
0.998974
1.00103
1.00259
1.00444
0.998566
0.999866
0.999909
1.0019
0.994037
0.998615
0.997017
0.999398
1.00009
1.0007
1.00132
1.00202
0.998856
0.999825
1.00036
1.00094
0.997688
0.998818
0.998997
0.999665
0.995529
0.997698
0.997272
0.998069
0.999805
1.00022
1.00055
1.0008
0.999054
0.999553
0.999899
1.00019
0.998172
0.998795
0.99908
0.999425
0.997147
0.998007
0.998214
0.998639
0.999607
0.999838
1.00003
1.00017
0.999129
0.999381
0.999591
0.999765
0.998572
0.998869
0.999081
0.999284
0.998009
0.998359
0.998564
0.998801
0.99953
0.999667
0.999792
0.99989
0.999217
0.999358
0.999493
0.999611
0.998873
0.999021
0.999162
0.999296
0.998534
0.998689
0.998833
0.998987
0.999518
0.999605
0.999689
0.99976
0.999306
0.999394
0.999484
0.999566
0.999081
0.99917
0.999263
0.999355
0.998862
0.99895
0.999047
0.999149
0.999536
0.999595
0.999654
0.999707
0.999391
0.99945
0.999511
0.99957
0.999239
0.999297
0.999361
0.999426
0.999091
0.999149
0.999215
0.999285
0.999573
0.999614
0.999656
0.999694
0.999471
0.999512
0.999555
0.999598
0.999366
0.999407
0.999452
0.999497
0.999265
0.999305
0.999351
0.9994
0.999618
0.999648
0.999677
0.999705
0.999546
0.999575
0.999606
0.999636
0.999473
0.999502
0.999533
0.999566
0.999403
0.999431
0.999464
0.999498
0.999668
0.999689
0.99971
0.99973
0.999616
0.999637
0.999659
0.999681
0.999565
0.999585
0.999608
0.999631
0.999516
0.999536
0.999559
0.999584
0.999719
0.999734
0.999749
0.999764
0.999682
0.999697
0.999713
0.999728
0.999646
0.999661
0.999677
0.999693
0.999611
0.999626
0.999643
0.99966
0.99977
0.999781
0.999792
0.999802
0.999744
0.999755
0.999766
0.999777
0.999719
0.999729
0.999741
0.999753
0.999695
0.999705
0.999717
0.999729
0.999821
0.999829
0.999836
0.999843
0.999804
0.999811
0.999819
0.999826
0.999786
0.999793
0.999801
0.99981
0.99977
0.999777
0.999785
0.999794
0.999873
0.999877
0.999882
0.999887
0.999861
0.999866
0.999871
0.999876
0.99985
0.999854
0.99986
0.999865
0.999839
0.999844
0.999849
0.999855
0.999924
0.999926
0.999929
0.999932
0.999917
0.99992
0.999923
0.999925
0.999911
0.999913
0.999916
0.999919
0.999905
0.999907
0.99991
0.999914
0.999974
0.999975
0.999976
0.999977
0.999972
0.999973
0.999974
0.999975
0.99997
0.999971
0.999972
0.999973
0.999968
0.999969
0.99997
0.999971
18.3195
18.4717
18.1224
18.1617
18.3557
18.6674
18.3192
18.2295
17.9808
18.3103
18.1805
17.9776
17.486
18.3505
18.2224
17.9807
16.1465
15.7702
15.8564
15.7169
16.0152
15.7141
15.9112
15.5288
16.173
15.9162
15.809
15.6348
16.3277
15.9307
15.8425
15.6101
13.3513
13.2127
13.5155
13.313
13.639
13.2895
13.1508
13.1301
13.796
13.7149
13.2525
13.4586
14.2465
13.8557
13.4921
13.1299
9.05128
9.22159
9.06243
9.22682
9.41805
9.6968
9.34051
9.68379
9.44027
9.13152
9.5253
9.72507
9.20798
9.82485
9.58129
9.8462
4.50193
5.2191
5.2066
5.01433
4.84088
4.97797
5.30992
5.21605
4.71614
5.18675
5.37232
5.49289
5.56392
5.26553
5.17705
5.97082
1.48997
1.58949
1.51313
0.450965
0.695499
1.61207
1.40216
1.3683
1.31695
1.47565
1.73944
1.62716
1.33547
1.52972
1.84942
1.82093
0.909491
0.987944
1.01806
1.06626
0.992617
0.959365
1.00224
1.01623
0.989846
0.998243
0.997987
0.984318
0.9842
0.989178
0.983793
0.991585
0.979466
0.985325
0.98846
0.986329
0.985903
0.986036
0.987647
0.98868
0.984993
0.984931
0.986291
0.988507
0.9824
0.983686
0.985213
0.987674
0.994667
0.997472
0.997173
0.999676
0.992054
0.994613
0.996439
0.998934
0.993435
0.995664
0.996388
0.998232
0.993314
0.994938
0.995887
0.998064
0.994652
0.996499
0.996728
0.99765
0.99339
0.995163
0.996136
0.997227
0.994057
0.99531
0.995986
0.996919
0.993899
0.994928
0.995638
0.996702
0.996644
0.997368
0.997761
0.998336
0.996026
0.996822
0.99744
0.998171
0.995933
0.996644
0.997243
0.998008
0.995892
0.996533
0.997127
0.997959
0.997638
0.99795
0.998223
0.998533
0.997281
0.997645
0.998015
0.998428
0.997092
0.997466
0.997869
0.998345
0.996989
0.997359
0.997766
0.998284
0.998259
0.998422
0.998605
0.998805
0.998026
0.998225
0.998467
0.998739
0.997873
0.998093
0.998367
0.998688
0.99779
0.998019
0.998305
0.998658
0.998671
0.99877
0.998892
0.999023
0.998516
0.998639
0.998799
0.998978
0.998408
0.998546
0.99873
0.998944
0.998349
0.998494
0.998688
0.998923
0.998961
0.999027
0.99911
0.999198
0.998857
0.998939
0.999046
0.999168
0.998783
0.998875
0.999
0.999145
0.998743
0.998839
0.998971
0.999131
0.999176
0.999222
0.999279
0.99934
0.999106
0.999162
0.999236
0.999319
0.999055
0.999118
0.999204
0.999304
0.999028
0.999093
0.999184
0.999294
0.999341
0.999374
0.999414
0.999457
0.999293
0.999333
0.999384
0.999443
0.999259
0.999303
0.999362
0.999432
0.999241
0.999286
0.999349
0.999425
0.999473
0.999497
0.999525
0.999555
0.99944
0.999468
0.999504
0.999545
0.999417
0.999447
0.999489
0.999538
0.999404
0.999436
0.999479
0.999533
0.999582
0.999599
0.999618
0.99964
0.999559
0.999579
0.999604
0.999633
0.999543
0.999565
0.999594
0.999628
0.999534
0.999556
0.999587
0.999624
0.999675
0.999686
0.9997
0.999715
0.999659
0.999673
0.999691
0.99971
0.999648
0.999663
0.999683
0.999707
0.999642
0.999657
0.999679
0.999705
0.999756
0.999764
0.999774
0.999784
0.999745
0.999755
0.999767
0.999781
0.999738
0.999748
0.999762
0.999779
0.999734
0.999745
0.999759
0.999777
0.99983
0.999836
0.999842
0.999848
0.999823
0.99983
0.999838
0.999846
0.999819
0.999826
0.999834
0.999845
0.999816
0.999823
0.999833
0.999844
0.9999
0.999903
0.999906
0.99991
0.999896
0.9999
0.999904
0.999909
0.999893
0.999897
0.999902
0.999908
0.999892
0.999896
0.999901
0.999908
0.999967
0.999968
0.999969
0.99997
0.999966
0.999967
0.999968
0.99997
0.999965
0.999966
0.999968
0.999969
0.999964
0.999966
0.999967
0.999969
17.0943
17.4391
17.6364
17.8341
17.6675
17.7766
17.8566
18.0471
17.4923
18.0046
18.2405
17.9047
18.1504
18.3041
18.0534
18.0595
15.3939
15.5791
15.1416
15.0917
15.3932
15.3308
15.2516
15.2862
15.7774
15.5443
15.4487
15.4785
15.6772
15.6457
15.707
15.6749
12.1604
11.6455
12.2742
12.1172
12.745
12.4546
12.7192
12.3763
12.7444
12.3869
12.7878
12.8915
12.8031
12.9542
13.2201
13.068
7.71783
8.40654
8.56851
8.82651
8.36295
8.79717
8.79783
9.01524
8.88457
8.79216
8.95592
8.93326
8.97763
8.75306
9.36324
9.50353
4.9915
5.18147
4.88504
5.84078
5.06469
5.1196
5.07018
5.25638
5.12682
5.287
5.26524
5.55158
4.7318
5.05495
5.2534
5.53803
2.18189
1.75079
1.84701
1.89097
1.62083
1.68974
1.46367
1.66351
1.39732
1.78731
1.81818
2.09768
-0.0840178
1.85273
1.89667
2.06134
1.03896
1.00917
1.00461
0.985263
1.0135
0.988658
1.00792
0.994559
1.01808
1.01044
0.98739
0.996974
1.13545
1.00703
0.996664
0.975937
1.00302
0.997366
0.994172
0.992516
0.999498
0.995471
0.993073
0.990752
0.996822
0.994052
0.992046
0.989993
0.996918
0.99398
0.992064
0.99159
1.0046
1.00264
1.00104
0.999658
1.00274
1.00137
1.00125
1.00057
1.00125
1.00076
0.99957
0.999772
0.999893
0.999149
0.998493
0.998091
1.00121
1.0006
0.999949
0.999346
1.00031
0.99986
0.999666
0.999288
0.999296
0.998985
0.998599
0.998457
0.998017
0.997726
0.997554
0.997407
1.00062
1.0004
1.00016
1
1.00009
0.999925
0.999827
0.99978
0.999408
0.999282
0.999154
0.999161
0.998713
0.998582
0.9985
0.998488
1.00016
1.00011
1.00004
0.999978
0.999791
0.999748
0.99972
0.999707
0.999317
0.999267
0.99923
0.999224
0.998858
0.998791
0.998749
0.998727
0.999922
0.999928
0.999922
0.999912
0.999663
0.999663
0.999665
0.999675
0.99934
0.999325
0.999322
0.999332
0.999048
0.999015
0.998996
0.998994
0.999802
0.999816
0.999832
0.99984
0.999613
0.999634
0.999643
0.999656
0.999396
0.999393
0.999395
0.999406
0.999195
0.999176
0.999168
0.999168
0.999744
0.999765
0.999777
0.999786
0.999607
0.999625
0.999642
0.999653
0.999459
0.999461
0.999464
0.999475
0.99932
0.999307
0.999303
0.999304
0.999724
0.999744
0.999757
0.999764
0.999625
0.999639
0.999652
0.999662
0.999522
0.999526
0.99953
0.999537
0.999425
0.999417
0.999415
0.999416
0.999728
0.999743
0.999754
0.999761
0.999657
0.999667
0.999676
0.999684
0.999585
0.999588
0.999592
0.999597
0.999517
0.999512
0.99951
0.999511
0.999747
0.999758
0.999767
0.999772
0.999696
0.999704
0.99971
0.999715
0.999645
0.999647
0.99965
0.999654
0.999597
0.999594
0.999592
0.999593
0.999775
0.999784
0.99979
0.999794
0.999739
0.999745
0.999749
0.999753
0.999703
0.999705
0.999707
0.99971
0.999669
0.999667
0.999666
0.999667
0.99981
0.999816
0.999821
0.999823
0.999785
0.999789
0.999792
0.999795
0.999759
0.999761
0.999762
0.999764
0.999736
0.999734
0.999734
0.999734
0.999849
0.999853
0.999856
0.999858
0.999832
0.999834
0.999837
0.999839
0.999814
0.999815
0.999816
0.999818
0.999798
0.999797
0.999797
0.999797
0.999891
0.999893
0.999895
0.999897
0.999879
0.999881
0.999883
0.999884
0.999868
0.999869
0.999869
0.99987
0.999858
0.999857
0.999857
0.999857
0.999934
0.999935
0.999936
0.999937
0.999927
0.999928
0.999929
0.99993
0.999921
0.999921
0.999922
0.999922
0.999915
0.999915
0.999915
0.999915
0.999978
0.999978
0.999979
0.999979
0.999976
0.999976
0.999976
0.999977
0.999974
0.999974
0.999974
0.999974
0.999972
0.999972
0.999972
0.999972
)
;

boundaryField
{
    inlet
    {
        type            zeroGradient;
    }
    outlet
    {
        type            fixedValue;
        value           uniform 1;
    }
    wall
    {
        type            zeroGradient;
    }
    procBoundary3to1
    {
        type            processor;
        value           nonuniform List<scalar> 
192
(
17.1692
17.2981
16.8645
16.8832
13.9037
14.9479
14.3446
15.0764
13.5808
12.9688
13.6331
12.2373
8.73353
8.21912
8.64378
7.44894
8.3359
6.97038
5.61195
5.22995
3.83176
2.57007
1.95097
2.18855
0.958269
1.01323
1.0517
1.05586
0.999555
1.00226
1.00446
1.00671
1.00003
1.00272
1.00568
1.00693
1.0003
1.00136
1.00223
1.00253
1.00026
1.00071
1.00107
1.00126
0.999972
1.0002
1.00039
1.00052
0.999787
0.999924
1.00005
1.00013
0.9997
0.999787
0.999868
0.999934
0.999667
0.999726
0.999782
0.999831
0.999667
0.999708
0.999748
0.999784
0.999687
0.999716
0.999744
0.99977
0.999718
0.999738
0.999758
0.999777
0.999755
0.999769
0.999784
0.999797
0.999795
0.999806
0.999816
0.999826
0.999839
0.999846
0.999853
0.99986
0.999884
0.999889
0.999893
0.999898
0.99993
0.999933
0.999935
0.999938
0.999977
0.999977
0.999978
0.999979
17.5165
17.7923
17.7441
17.8173
14.8486
15.0709
15.1118
14.7462
11.9605
11.7692
11.6802
11.3402
8.27618
8.29695
7.47073
8.95859
5.11439
5.27989
5.72733
6.02351
1.90916
1.48599
1.29723
1.49518
1.00749
1.00319
0.998241
0.996791
1.00247
0.997467
0.993687
0.99138
1.00468
1.00325
1.00229
1.00184
1.00181
1.00125
1.00078
1.0004
1.00112
1.00094
1.00078
1.00068
1.00053
1.00051
1.00047
1.00045
1.00018
1.00021
1.00022
1.00022
0.999984
1.00002
1.00004
1.00005
0.999873
0.999907
0.99993
0.99994
0.999816
0.999842
0.99986
0.999869
0.999793
0.999813
0.999827
0.999833
0.999794
0.999808
0.999818
0.999823
0.999809
0.99982
0.999827
0.99983
0.999834
0.999842
0.999847
0.999849
0.999866
0.999871
0.999874
0.999876
0.999902
0.999905
0.999907
0.999908
0.99994
0.999942
0.999943
0.999944
0.99998
0.99998
0.999981
0.999981
)
;
    }
    procBoundary3to2
    {
        type            processor;
        value           nonuniform List<scalar> 
192
(
17.7085
17.6537
17.8436
18.2459
14.4661
15.1879
15.6854
15.8489
13.5864
13.3408
13.4928
13.7074
10.854
10.6839
9.94698
9.4096
7.05274
6.5637
6.1157
5.19241
2.68454
2.69969
2.45306
1.72479
0.998673
0.96782
0.987051
0.8336
0.996198
0.991791
0.985624
0.980649
1.0009
0.998527
0.999318
0.995845
1.00011
0.998593
0.997784
0.995633
0.999723
0.998902
0.998228
0.997363
0.999488
0.999012
0.998545
0.998052
0.999439
0.999133
0.998814
0.998499
0.999446
0.99924
0.999024
0.998814
0.999485
0.999342
0.999194
0.999051
0.999536
0.999436
0.999333
0.999235
0.999592
0.999521
0.999449
0.99938
0.999649
0.999598
0.999547
0.999499
0.999705
0.999669
0.999633
0.999599
0.99976
0.999735
0.999709
0.999686
0.999814
0.999797
0.99978
0.999764
0.999868
0.999856
0.999845
0.999835
0.999921
0.999914
0.999908
0.999902
0.999974
0.999972
0.999969
0.999968
18.4049
18.6725
18.3438
18.3173
15.8349
15.9866
16.0308
16.0416
13.2157
13.3766
13.8247
13.3418
9.13997
8.76105
8.84909
8.76715
5.02285
4.53456
4.61943
4.41899
0.209004
1.05403
-0.0230764
1.29587
0.834482
0.911444
1.01609
0.979765
0.969191
0.97973
0.986577
0.981723
1.00235
0.995349
0.996738
0.995723
0.996021
0.993379
0.994879
0.994664
0.997183
0.996165
0.996202
0.996154
0.99773
0.997326
0.997155
0.997058
0.998237
0.998002
0.997858
0.997783
0.99863
0.998477
0.998372
0.998319
0.998924
0.998821
0.998749
0.998712
0.999147
0.999076
0.999026
0.999001
0.999319
0.999271
0.999236
0.999219
0.999457
0.999423
0.9994
0.999388
0.99957
0.999546
0.99953
0.999522
0.999666
0.99965
0.999638
0.999633
0.99975
0.999739
0.999732
0.999728
0.999826
0.999819
0.999814
0.999812
0.999897
0.999894
0.999891
0.99989
0.999966
0.999965
0.999964
0.999964
)
;
    }
}


// ************************************************************************* //
