/*--------------------------------*- C++ -*----------------------------------*\
| =========                 |                                                 |
| \\      /  F ield         | OpenFOAM: The Open Source CFD Toolbox           |
|  \\    /   O peration     | Version:  2506                                  |
|   \\  /    A nd           | Website:  www.openfoam.com                      |
|    \\/     M anipulation  |                                                 |
\*---------------------------------------------------------------------------*/
FoamFile
{
    version     2.0;
    format      ascii;
    arch        "LSB;label=32;scalar=64";
    class       volVectorField;
    location    "0.1";
    object      stored_U;
}
// * * * * * * * * * * * * * * * * * * * * * * * * * * * * * * * * * * * * * //

dimensions      [0 1 -1 0 0 0 0];

internalField   nonuniform List<vector> 
1152
(
(0.0117223 0.00311189 0.0653585)
(-0.000687996 -0.000740745 0.00659826)
(0.00322923 -0.00491523 0.0117587)
(-0.000702869 8.72649e-05 -0.000912625)
(0.00095152 -0.0152117 0.0448834)
(-0.0025932 -0.00173437 0.0199861)
(-0.00115561 -0.00305393 0.0193779)
(6.98771e-05 -0.00419064 0.0116855)
(8.78284e-05 0.00013384 0.000514171)
(0.00173467 -0.00427634 0.0163368)
(0.000685801 0.00484541 0.0240104)
(5.0384e-05 -0.000754711 0.0157494)
(-0.000348209 0.000298412 0.0110681)
(0.00353038 -0.00231806 0.0110111)
(-0.000514003 -0.000344979 0.00205962)
(-0.00673637 -0.00128165 0.0251994)
(-0.00662624 -0.0174782 0.0549107)
(-0.00122852 -0.00413906 0.0468605)
(-0.00479543 -0.0110889 0.0582888)
(-0.00518318 -0.00208731 0.0528623)
(-0.00182275 -0.00383819 0.0334143)
(-0.000257656 -0.00494774 0.0351503)
(-0.000444814 -0.00453819 0.0351105)
(0.000732289 -5.31836e-05 0.0460044)
(-0.000792254 -0.00186544 0.0301359)
(-0.0012477 -0.00223834 0.0607897)
(-0.000645125 -0.0021297 0.0296931)
(0.00314354 -0.00265325 0.0678811)
(0.000535173 -0.00345008 0.052565)
(-0.0007978 -7.04232e-05 0.0366024)
(-8.5964e-05 -0.00179541 0.0910325)
(0.000158419 0.000559173 0.00978673)
(0.00231681 -0.00229455 0.0464293)
(-0.00212976 -0.000301029 0.0197103)
(7.23807e-06 0.00187434 0.0288543)
(0.00517066 -0.00187159 0.0585751)
(-0.000719162 0.00132877 0.0121635)
(-0.000736023 -0.00231181 0.040254)
(-0.00026783 0.00148683 0.0389009)
(0.000542566 -0.00146184 0.034351)
(-0.00114135 -0.00108026 0.0322808)
(0.000629915 -0.0004661 0.0320005)
(0.000392567 -0.00227081 0.0250703)
(0.000648804 0.000312942 0.0180577)
(0.000286984 0.00200421 0.0318487)
(-0.00390472 0.00269605 0.035316)
(0.00119871 -0.001967 0.025785)
(0.00611318 -0.0018584 0.0426996)
(0.000179457 0.000420519 0.0165355)
(0.0162304 -0.00521062 0.0493022)
(0.00480812 0.0011941 0.0458701)
(0.000184116 -0.00109006 0.0502101)
(0.00411824 0.0111263 0.0550996)
(0.00648454 -0.00179945 0.0358022)
(0.00283984 -0.000914971 0.0331177)
(-0.000309466 -0.00369905 0.0399748)
(0.000541923 0.00308078 0.0304874)
(0.00378819 2.25541e-05 0.0449202)
(0.00309204 -0.00302571 0.0458297)
(-0.000374267 -0.00381876 0.061036)
(0.00165175 0.00382267 0.0631031)
(0.000455418 -0.000498005 0.0347913)
(0.00403564 -0.00144559 0.0734698)
(0.000656189 -0.00475934 0.0582498)
(0.000284066 0.000639015 0.0148378)
(-0.0177002 0.00747691 0.0632694)
(0.00243572 0.000676827 0.0409978)
(-0.000101979 0.000304764 0.012989)
(0.00288383 -0.00727669 0.034777)
(0.00105302 -0.0011482 0.0333043)
(0.00252358 -0.00114843 0.0564409)
(0.000818534 -0.0032286 0.0421358)
(0.00129487 0.00102516 0.0317528)
(0.0024838 -0.00194068 0.0500783)
(0.00100245 -0.0005543 0.0336396)
(0.00188228 0.000929443 0.0614284)
(-0.00174917 0.00368569 0.0480456)
(-0.00112007 0.000692826 0.0282353)
(0.00142342 0.000728724 0.0278283)
(0.00259195 0.00105662 0.0467424)
(-0.00188188 0.00821304 0.0343897)
(0.0156526 0.000687532 0.0473458)
(0.00324108 -0.000102726 0.0306314)
(0.00334476 0.00229864 0.0341051)
(0.00452763 0.0163831 0.0521238)
(0.00519902 0.0054757 0.0324232)
(0.00305928 0.00273602 0.0268062)
(0.00283993 0.00574715 0.0319089)
(0.0013956 0.00171338 0.0244451)
(0.00278367 0.00302604 0.0280202)
(0.00303076 0.000572592 0.0289933)
(0.00198382 0.000801117 0.0256962)
(0.00580325 0.00387018 0.0591805)
(0.000411743 0.000286664 0.0147122)
(0.000508447 0.00193083 0.0443297)
(0.0128576 0.0370288 0.0583183)
(0.0011718 0.000695884 0.0344324)
(0.00125178 0.000897073 0.0281946)
(0.000961155 0.00125645 0.0252573)
(0.000235703 0.00104098 0.0472515)
(-5.00538e-05 0.00173852 0.030608)
(0.000985349 0.00153751 0.0348518)
(0.00047352 0.00129049 0.0316113)
(0.000639001 0.00182182 0.0351073)
(0.000573967 -0.000598379 0.026812)
(0.00110861 0.00197394 0.0275083)
(-9.56337e-05 0.00185456 0.0245518)
(0.000709921 0.00178237 0.0314987)
(-0.000936812 4.63096e-05 0.0131777)
(0.00304455 0.00119059 0.0217739)
(-0.000219877 0.00149365 0.0185665)
(-0.0011009 0.0015421 0.0203467)
(-6.72442e-05 0.00296625 0.0421878)
(0.00182998 0.00203844 0.0187066)
(0.00405389 0.00176426 0.0241766)
(0.0029359 0.000902684 0.0559946)
(0.000867643 0.000313243 0.0354489)
(0.00261183 0.00296707 0.0366728)
(0.00232551 0.00162645 0.035937)
(0.00208392 0.00124134 0.0427891)
(0.000346126 -0.00449472 0.0138483)
(0.00298912 0.000781517 0.0284229)
(0.00176907 0.00116028 0.0214927)
(0.00184895 0.00159674 0.0343995)
(-0.00292849 0.00590326 -0.041204)
(0.00698741 0.00339056 0.0292798)
(0.00277572 0.00236896 0.013196)
(0.00182062 0.00193257 0.0390343)
(0.00201437 -0.00212305 0.0202899)
(-0.000694092 -0.0013182 0.0163816)
(-0.00340803 0.000546337 0.015269)
(-0.000908079 0.000369323 0.0180925)
(-0.000675696 0.00243241 0.0181478)
(-0.00171212 -0.000177494 0.0168616)
(-0.00210995 0.000741293 0.0160619)
(-0.000383349 0.00138045 0.0165851)
(0.000865451 0.00672279 0.0129732)
(-0.0024888 0.000943937 0.0142266)
(-0.00201293 0.00149512 0.0136032)
(-0.00156052 0.00064353 0.015472)
(0.00336354 -0.00527284 0.0112837)
(-0.00700716 -0.00230442 0.0144516)
(-0.00256839 -0.00173714 0.0126958)
(-0.0028028 -0.00359136 0.0154982)
(0.000800645 -0.000752379 0.0215091)
(-0.000219339 -0.000526302 0.0204814)
(-0.00114061 0.000128646 0.021266)
(-0.000453455 0.000142255 0.0231274)
(-0.000242176 0.00073262 0.0203905)
(-0.000711357 -1.11085e-05 0.0209884)
(-0.000880019 0.000329441 0.0214983)
(-0.000356332 0.00046041 0.0225582)
(0.000356792 0.000630665 0.0179982)
(-0.000683982 -6.28897e-05 0.0200372)
(-0.000750603 0.000488131 0.0203379)
(-0.000664514 0.000405983 0.021957)
(0.00112592 -0.00226482 0.0138053)
(-0.000914292 -0.00116487 0.0196348)
(-0.000492781 -0.000639504 0.0198465)
(-0.000758146 -0.000648905 0.0219666)
(0.000155824 -0.000386534 0.0198689)
(-0.000255377 -0.000326014 0.0196501)
(-0.000527717 -0.000130173 0.0198184)
(-0.000371078 -6.79551e-05 0.0203132)
(-0.000124467 -2.09777e-05 0.0193682)
(-0.000393131 -0.000164714 0.0196345)
(-0.000504255 -4.34588e-05 0.0197884)
(-0.00039983 -1.2208e-05 0.0201418)
(8.24705e-05 -0.000340557 0.0187556)
(-0.000315437 -0.000332147 0.0192796)
(-0.00042758 -9.30958e-05 0.0193)
(-0.000448523 -4.58071e-05 0.0198214)
(0.00036419 -0.00118109 0.0183875)
(-0.000173642 -0.000787836 0.0193041)
(-0.000264127 -0.000522646 0.0191233)
(-0.000406848 -0.000422616 0.0196577)
(4.25397e-06 -0.000236592 0.0200338)
(-0.000170022 -0.000210641 0.0200357)
(-0.000268111 -0.000141449 0.0201159)
(-0.00024917 -8.29315e-05 0.0202675)
(-6.10178e-05 -0.000169971 0.0199027)
(-0.000197109 -0.000174253 0.0200214)
(-0.000258812 -0.000109277 0.0201075)
(-0.000257874 -6.57245e-05 0.0202507)
(1.8917e-05 -0.000350169 0.0197876)
(-0.000129348 -0.000279688 0.0199335)
(-0.000189121 -0.000152102 0.0199647)
(-0.000212316 -6.6353e-05 0.0201391)
(0.000136203 -0.000640071 0.0198859)
(-9.67022e-06 -0.000477021 0.0200205)
(-6.69923e-05 -0.000321922 0.0199591)
(-0.000117945 -0.000196397 0.0201045)
(-1.42646e-05 -0.000159736 0.020114)
(-9.11509e-05 -0.000145423 0.0201338)
(-0.00013761 -0.000115423 0.0201677)
(-0.00014823 -7.80914e-05 0.0202085)
(-2.61399e-05 -0.000166045 0.0200933)
(-9.00353e-05 -0.000150309 0.0201362)
(-0.000126326 -0.000113953 0.0201682)
(-0.000143709 -7.84184e-05 0.0202061)
(8.50398e-06 -0.000253068 0.0200899)
(-4.83158e-05 -0.000205971 0.0201207)
(-7.99583e-05 -0.000142216 0.0201209)
(-0.000102177 -8.43754e-05 0.0201448)
(6.16418e-05 -0.000360387 0.0201692)
(1.75851e-05 -0.000288496 0.0201662)
(-1.31915e-05 -0.000212884 0.0201155)
(-4.49897e-05 -0.000144678 0.0200996)
(-6.14878e-06 -0.000113188 0.020187)
(-4.28034e-05 -0.000104338 0.0201952)
(-6.7961e-05 -8.84425e-05 0.0202035)
(-8.01857e-05 -6.53474e-05 0.0202059)
(-6.03595e-06 -0.000129624 0.0201923)
(-3.57629e-05 -0.000116245 0.0202035)
(-5.63555e-05 -9.46265e-05 0.0202075)
(-7.12165e-05 -6.94719e-05 0.0202048)
(1.1165e-05 -0.000169576 0.0202045)
(-1.15109e-05 -0.000143777 0.020204)
(-2.73757e-05 -0.000109906 0.0201896)
(-4.19871e-05 -7.4291e-05 0.0201698)
(3.63161e-05 -0.000210092 0.0202418)
(2.34104e-05 -0.000177167 0.0202201)
(1.03485e-05 -0.000138983 0.0201786)
(-7.07869e-06 -0.000100818 0.0201321)
(1.2685e-06 -8.11479e-05 0.0202402)
(-1.75917e-05 -7.5919e-05 0.0202395)
(-3.18468e-05 -6.66643e-05 0.0202337)
(-4.07645e-05 -5.27115e-05 0.0202177)
(3.49204e-06 -9.39559e-05 0.0202488)
(-1.12904e-05 -8.53784e-05 0.0202465)
(-2.26774e-05 -7.25439e-05 0.0202361)
(-3.27543e-05 -5.66508e-05 0.0202143)
(1.24405e-05 -0.000112238 0.0202558)
(2.59892e-06 -9.8467e-05 0.0202458)
(-5.51173e-06 -8.02428e-05 0.0202237)
(-1.44147e-05 -5.98361e-05 0.0201883)
(2.47766e-05 -0.000127221 0.0202641)
(2.1045e-05 -0.000111589 0.0202421)
(1.53733e-05 -9.21004e-05 0.0202037)
(5.85115e-06 -7.14915e-05 0.0201491)
(4.60821e-06 -5.86374e-05 0.0202722)
(-5.54677e-06 -5.5391e-05 0.0202666)
(-1.382e-05 -4.98297e-05 0.0202533)
(-1.95984e-05 -4.15169e-05 0.0202279)
(6.63763e-06 -6.64577e-05 0.0202777)
(-1.05043e-06 -6.14139e-05 0.0202701)
(-7.51644e-06 -5.38578e-05 0.020253)
(-1.35306e-05 -4.42023e-05 0.0202224)
(1.13465e-05 -7.45481e-05 0.0202771)
(6.75444e-06 -6.73384e-05 0.0202644)
(2.54604e-06 -5.7422e-05 0.0202393)
(-2.67092e-06 -4.58913e-05 0.0201984)
(1.7499e-05 -7.94859e-05 0.0202682)
(1.65275e-05 -7.18915e-05 0.0202483)
(1.4045e-05 -6.18146e-05 0.0202122)
(8.87209e-06 -5.07646e-05 0.0201569)
(5.30174e-06 -4.25024e-05 0.0202904)
(-3.00708e-07 -4.04826e-05 0.0202824)
(-5.17211e-06 -3.70844e-05 0.0202653)
(-8.76499e-06 -3.20697e-05 0.0202348)
(6.72459e-06 -4.67713e-05 0.0202922)
(2.62152e-06 -4.38869e-05 0.0202825)
(-1.06206e-06 -3.94576e-05 0.0202622)
(-4.6169e-06 -3.36873e-05 0.0202275)
(9.23836e-06 -5.00723e-05 0.0202854)
(6.99367e-06 -4.62825e-05 0.0202721)
(4.73931e-06 -4.08295e-05 0.0202459)
(1.78338e-06 -3.43464e-05 0.020203)
(1.2347e-05 -5.10076e-05 0.0202664)
(1.22201e-05 -4.72819e-05 0.0202483)
(1.11185e-05 -4.19979e-05 0.0202138)
(8.33486e-06 -3.60306e-05 0.0201591)
(4.80864e-06 -3.07965e-05 0.0203006)
(1.68058e-06 -2.95312e-05 0.0202915)
(-1.18195e-06 -2.74294e-05 0.0202724)
(-3.41751e-06 -2.43693e-05 0.0202393)
(5.72254e-06 -3.29443e-05 0.0202994)
(3.51072e-06 -3.12948e-05 0.0202888)
(1.42337e-06 -2.8695e-05 0.0202671)
(-6.90422e-07 -2.52423e-05 0.0202304)
(7.07379e-06 -3.40335e-05 0.0202883)
(5.96912e-06 -3.20229e-05 0.020275)
(4.7658e-06 -2.89914e-05 0.0202484)
(3.0872e-06 -2.53322e-05 0.0202048)
(8.66292e-06 -3.34761e-05 0.0202633)
(8.793e-06 -3.1638e-05 0.0202463)
(8.33039e-06 -2.88249e-05 0.0202129)
(6.9026e-06 -2.5579e-05 0.0201589)
(3.94686e-06 -2.22069e-05 0.0203062)
(2.17e-06 -2.1423e-05 0.0202966)
(4.96217e-07 -2.01168e-05 0.0202765)
(-8.76331e-07 -1.82258e-05 0.0202421)
(4.50499e-06 -2.32149e-05 0.0203028)
(3.30273e-06 -2.22587e-05 0.020292)
(2.12209e-06 -2.07151e-05 0.0202696)
(8.92049e-07 -1.8635e-05 0.0202319)
(5.23645e-06 -2.33261e-05 0.0202887)
(4.70759e-06 -2.22434e-05 0.0202757)
(4.07357e-06 -2.05364e-05 0.020249)
(3.1202e-06 -1.8443e-05 0.0202052)
(6.05227e-06 -2.23254e-05 0.0202601)
(6.24581e-06 -2.14169e-05 0.0202439)
(6.0795e-06 -1.99092e-05 0.0202112)
(5.3674e-06 -1.81213e-05 0.0201577)
(3.05886e-06 -1.58314e-05 0.0203091)
(2.03217e-06 -1.53499e-05 0.0202994)
(1.05688e-06 -1.45354e-05 0.0202789)
(2.20544e-07 -1.33407e-05 0.0202437)
(3.39031e-06 -1.62599e-05 0.0203042)
(2.73555e-06 -1.56967e-05 0.0202934)
(2.07309e-06 -1.47727e-05 0.0202707)
(1.35245e-06 -1.35069e-05 0.0202326)
(3.78594e-06 -1.5988e-05 0.0202883)
(3.54586e-06 -1.53971e-05 0.0202754)
(3.221e-06 -1.44255e-05 0.0202488)
(2.69631e-06 -1.32129e-05 0.0202049)
(4.20451e-06 -1.49783e-05 0.0202574)
(4.39468e-06 -1.45325e-05 0.0202417)
(4.36385e-06 -1.37185e-05 0.0202094)
(4.02464e-06 -1.27242e-05 0.0201563)
(2.27042e-06 -1.10095e-05 0.0203107)
(1.67543e-06 -1.07166e-05 0.020301)
(1.1093e-06 -1.02059e-05 0.0202802)
(5.96314e-07 -9.4623e-06 0.0202447)
(2.46124e-06 -1.11536e-05 0.0203047)
(2.10941e-06 -1.08228e-05 0.0202939)
(1.73748e-06 -1.02712e-05 0.0202712)
(1.31016e-06 -9.50072e-06 0.0202329)
(2.67248e-06 -1.07896e-05 0.0202875)
(2.57482e-06 -1.04681e-05 0.0202749)
(2.41502e-06 -9.91523e-06 0.0202484)
(2.1258e-06 -9.20769e-06 0.0202045)
(2.88434e-06 -9.94686e-06 0.0202553)
(3.04486e-06 -9.7349e-06 0.0202399)
(3.06762e-06 -9.29646e-06 0.020208)
(2.91077e-06 -8.74488e-06 0.020155)
(1.61996e-06 -7.26818e-06 0.0203115)
(1.28321e-06 -7.09609e-06 0.0203018)
(9.53074e-07 -6.78752e-06 0.020281)
(6.36752e-07 -6.33365e-06 0.0202453)
(1.72277e-06 -7.28523e-06 0.0203048)
(1.53967e-06 -7.0989e-06 0.0202941)
(1.3285e-06 -6.78054e-06 0.0202714)
(1.0733e-06 -6.32261e-06 0.020233)
(1.8319e-06 -6.96789e-06 0.0202869)
(1.79871e-06 -6.7991e-06 0.0202743)
(1.71889e-06 -6.49366e-06 0.0202479)
(1.55623e-06 -6.08914e-06 0.0202041)
(1.93468e-06 -6.35191e-06 0.0202538)
(2.05286e-06 -6.25902e-06 0.0202386)
(2.08285e-06 -6.02981e-06 0.0202068)
(2.01108e-06 -5.73097e-06 0.020154)
(1.1264e-06 -4.31611e-06 0.0203119)
(9.45744e-07 -4.22319e-06 0.0203023)
(7.55638e-07 -4.0525e-06 0.0202814)
(5.62449e-07 -3.79826e-06 0.0202457)
(1.17689e-06 -4.2934e-06 0.0203048)
(1.08265e-06 -4.19926e-06 0.0202942)
(9.61208e-07 -4.03107e-06 0.0202715)
(8.06486e-07 -3.78084e-06 0.020233)
(1.22687e-06 -4.07895e-06 0.0202864)
(1.21528e-06 -4.00153e-06 0.0202739)
(1.16874e-06 -3.84518e-06 0.0202476)
(1.0699e-06 -3.62986e-06 0.0202038)
(1.26815e-06 -3.69166e-06 0.0202528)
(1.34199e-06 -3.66083e-06 0.0202378)
(1.36053e-06 -3.55086e-06 0.0202061)
(1.31355e-06 -3.39837e-06 0.0201534)
(9.0139e-07 -2.21386e-06 0.0203122)
(8.07673e-07 -2.16998e-06 0.0203026)
(6.90696e-07 -2.08794e-06 0.0202817)
(5.59424e-07 -1.96712e-06 0.020246)
(9.22089e-07 -2.18803e-06 0.0203048)
(8.68498e-07 -2.15189e-06 0.0202942)
(7.86218e-07 -2.07712e-06 0.0202716)
(6.74439e-07 -1.96331e-06 0.0202332)
(9.37328e-07 -2.07073e-06 0.0202861)
(9.24426e-07 -2.04732e-06 0.0202737)
(8.79348e-07 -1.98402e-06 0.0202474)
(7.93651e-07 -1.88798e-06 0.0202037)
(9.45458e-07 -1.86601e-06 0.0202522)
(9.7455e-07 -1.86593e-06 0.0202373)
(9.63825e-07 -1.82549e-06 0.0202057)
(9.02758e-07 -1.75534e-06 0.0201531)
(-0.000522634 0.00646792 0.0369752)
(0.0004882 -0.00071832 0.0112306)
(0.00302432 -0.00858067 0.025461)
(-0.00215518 0.0019005 0.0274473)
(0.000166783 0.0031722 0.00974571)
(-0.000430451 0.00231091 0.0121199)
(0.00376229 -1.01683e-05 0.0234294)
(0.000989797 0.00375233 0.0156816)
(0.00155096 0.00901666 0.0319554)
(-0.00144618 0.00438247 0.0173102)
(0.00253295 0.00204983 0.0250036)
(0.00276608 0.00527529 0.0221962)
(9.01146e-05 0.000471268 -1.04371e-05)
(-0.000768233 0.000182219 0.00846385)
(0.00095473 -0.00051731 0.0138846)
(0.000859563 0.000147735 0.02232)
(-0.00105393 -0.000432408 0.0324372)
(0.00189128 0.00120101 0.0406144)
(4.56169e-05 -0.00257439 0.0503967)
(0.0029939 0.00445201 0.0434015)
(0.00249204 -0.00180749 0.0542116)
(-0.000270047 -0.00097051 0.0316395)
(-0.000809928 0.000749867 0.00986404)
(0.00111954 0.00146798 0.0260984)
(0.00186689 -0.00499859 0.0447981)
(0.00307802 -0.00384478 0.0503197)
(0.00168662 0.00130718 0.0490277)
(-0.000111872 -0.000469654 0.072269)
(0.00315543 -0.00310133 0.0575725)
(0.00502294 -0.0005313 0.058213)
(0.00165336 -0.00129669 0.0499474)
(0.00136841 0.000156942 0.0490409)
(-0.000693355 -0.00162714 0.0317923)
(-0.00340245 0.000546844 0.0378881)
(-0.00122122 0.00375543 0.0380549)
(9.49847e-05 -0.00220745 0.0129521)
(2.44877e-07 -0.00595927 0.039295)
(0.00228244 -0.00821789 0.0624863)
(1.2174e-05 8.08901e-05 0.0284958)
(-0.00103998 -0.00551623 0.0729423)
(-0.000134605 -0.00444426 0.0388387)
(-0.000584101 -0.00265596 0.0178397)
(-0.000726747 -0.00626977 0.063071)
(0.000931897 -0.00198891 0.0171752)
(-0.0022566 -0.00318415 0.0361109)
(0.00225785 -0.00188987 0.0487174)
(0.000941058 -0.00178061 0.024205)
(0.00600224 0.00397047 0.0619501)
(0.000245782 -0.00143857 0.0132776)
(0.000763092 -0.00365165 0.0575868)
(-0.00130578 -0.00123877 0.0234696)
(-0.00169623 -0.00489398 0.0373927)
(-0.00335227 -0.000713856 0.0372747)
(-0.000453068 -0.000205005 0.0448019)
(-0.00132585 -0.00319963 0.0356797)
(-0.000746943 -0.00520081 0.0374298)
(-0.00135113 0.00357017 0.0544326)
(-0.00153314 -0.000248549 0.040831)
(-0.00592668 -0.0019126 0.0563988)
(-0.00257387 -0.000526543 0.0305291)
(-0.00422894 0.0023126 0.042297)
(-0.00307048 -0.00299674 0.0392708)
(-0.00128324 -0.000267362 0.0399083)
(-0.00297877 -0.000799363 0.0687256)
(-0.00175191 -0.00157818 0.0363984)
(-0.0017899 0.00474278 0.0614803)
(0.00209434 -0.00118495 0.0534558)
(0.00084389 -0.00376591 0.0492583)
(-0.00195439 -0.00142245 0.03359)
(-0.00210589 0.000797969 0.0235687)
(-0.00268427 -0.000738173 0.0471009)
(-0.00032799 -0.00549888 0.0565873)
(-0.000173588 -0.00249462 0.0145716)
(-0.00337834 0.000173893 0.0682546)
(-0.00159305 0.00349574 0.0609073)
(-0.00129096 -0.00227844 0.0218138)
(-0.000653393 -0.00067045 0.00786459)
(0.0020211 -0.000618592 0.0338824)
(-0.00206665 0.00194513 0.0278019)
(-0.00543207 -0.00156569 0.0432391)
(-0.017716 0.0153299 0.0633523)
(0.000278071 -0.000662777 0.0214316)
(0.00785336 -0.00184639 0.0260866)
(-0.000692473 0.000772458 0.0112106)
(-0.000838764 0.00114028 0.0133319)
(-0.00227478 0.0044467 0.0430594)
(-0.000333243 0.000503068 0.0154595)
(-0.0060296 -0.0140613 0.0285868)
(-0.00523615 -0.00233503 0.0377852)
(-0.000804102 0.00206119 0.0256338)
(-0.00136086 -0.00218177 0.0320837)
(-0.00261526 -0.00148011 0.0246343)
(-7.98645e-05 -0.000384115 0.0223163)
(-0.00197657 0.000401383 0.0271853)
(-0.00327464 0.000306199 0.0420498)
(-0.00230379 -0.000481501 0.0327893)
(-0.00130101 -0.000359128 0.00990332)
(-0.0034667 0.00166565 0.0265736)
(-0.00166567 0.00158249 0.0262095)
(-0.00112511 0.00699417 -0.089927)
(-0.00145884 -0.00390023 0.0181715)
(-0.00053278 7.752e-05 0.0174871)
(-0.000932637 0.00129949 0.0209428)
(0.00228525 0.0041357 0.024143)
(-0.000895482 -0.000148313 0.0233023)
(-0.00220197 0.00016445 0.0364229)
(-0.000726248 0.000386371 0.0320629)
(7.98609e-05 0.00107989 0.0192489)
(0.00211299 -5.44547e-05 0.0243794)
(-0.00115184 0.00162395 0.0233192)
(-0.00196615 0.000557006 0.0232218)
(-0.000779017 0.000765536 0.026056)
(-0.00628694 0.0130979 0.0313141)
(-0.000868179 0.00552042 0.0276307)
(6.59629e-05 0.00321517 0.033854)
(0.000742446 0.00273327 0.0784819)
(-0.00348877 0.00277511 0.0369639)
(-0.0021801 0.00168852 0.0203028)
(-0.000278513 0.00139928 0.0335084)
(0.000784666 0.00144972 0.0529112)
(-0.00313457 -0.000586396 0.0326511)
(-0.00171695 0.000603302 0.0376974)
(-0.000169615 0.000608289 0.0382007)
(0.000200429 0.00103219 0.0320238)
(-0.000676962 -9.7947e-06 0.0337865)
(-0.00112974 0.000593962 0.0319755)
(-0.000372465 0.000411272 0.0318752)
(-0.000390315 0.00076147 0.0314383)
(0.0136998 -0.00908921 0.0133112)
(0.00105275 -0.00216034 0.0134113)
(-0.00237746 -0.00115789 0.013601)
(-0.00118268 -0.000971714 0.0179259)
(0.00526959 0.000334734 0.0173105)
(0.000154209 -0.000110621 0.0138337)
(-0.00186643 0.00022531 0.0133633)
(0.000609912 0.00219917 0.0154229)
(0.00342916 9.97432e-05 0.0161236)
(2.49845e-05 -0.000366834 0.0143664)
(-0.000434331 0.000319276 0.0135576)
(0.00114264 0.00122288 0.0126533)
(0.00291785 -2.26701e-05 0.0136335)
(0.000284266 8.76158e-05 0.012483)
(-0.000202387 0.00042124 0.0122855)
(0.000667492 -0.00011157 0.0117861)
(0.00372104 -0.00291714 0.02243)
(0.000962976 -0.00114128 0.0219263)
(-0.000131715 -0.000680209 0.0213968)
(-0.000178131 -0.00022778 0.0237235)
(0.00216829 -0.000420755 0.0237883)
(0.00102929 -0.000380129 0.0221227)
(5.49188e-05 -0.000189775 0.0216613)
(0.000332699 0.000501802 0.0230593)
(0.00210768 0.000434144 0.023577)
(0.000929983 -4.83543e-05 0.0223617)
(0.000473414 7.16829e-05 0.0217031)
(0.000575936 0.000398704 0.0220271)
(0.00193993 0.000195962 0.0225094)
(0.000826894 3.54411e-06 0.021668)
(0.000470111 3.63152e-05 0.021158)
(0.00038394 -6.74224e-06 0.0214675)
(0.000975875 -0.00136454 0.020368)
(0.000356026 -0.000819562 0.0199762)
(-5.33259e-05 -0.000508102 0.019514)
(-0.000151365 -0.000303618 0.0199229)
(0.000916543 -0.000600136 0.020983)
(0.000561207 -0.000481288 0.0200644)
(8.6719e-05 -0.000282221 0.0195342)
(2.69028e-05 -6.3588e-05 0.0196985)
(0.00104672 -4.51742e-05 0.0208052)
(0.000563379 -0.000243337 0.0199953)
(0.000217161 -0.00015745 0.0194125)
(0.000106568 -4.32143e-05 0.0193181)
(0.0010402 -2.82051e-05 0.020161)
(0.000522727 -0.000154822 0.0195328)
(0.000243494 -0.000117725 0.0190287)
(0.000100074 -9.75602e-05 0.0189519)
(0.000324509 -0.000717917 0.0204691)
(0.0001991 -0.000511966 0.0202901)
(7.81602e-05 -0.000331957 0.020103)
(1.38862e-05 -0.000178757 0.0201797)
(0.000418663 -0.000446095 0.0207694)
(0.000343867 -0.000362513 0.0203749)
(0.00017896 -0.000235523 0.0201031)
(8.43875e-05 -0.000108843 0.0201059)
(0.000522301 -0.000131051 0.0206993)
(0.000395821 -0.000193869 0.0203075)
(0.000249562 -0.00014451 0.0200075)
(0.000125681 -6.75994e-05 0.0199495)
(0.000562508 -4.07483e-05 0.0204457)
(0.000393922 -0.000122846 0.0201137)
(0.000269947 -0.000125056 0.0198329)
(0.000124082 -7.93749e-05 0.019781)
(0.000134517 -0.000384402 0.0203613)
(0.000105815 -0.00029971 0.0202587)
(6.01872e-05 -0.000210841 0.0201404)
(2.49815e-05 -0.000133674 0.0200742)
(0.00019759 -0.000279379 0.0204745)
(0.000181214 -0.000233527 0.0202769)
(0.000116427 -0.000167954 0.0200968)
(5.7123e-05 -0.000104034 0.0199933)
(0.000255174 -0.000129284 0.0204211)
(0.000223965 -0.000147623 0.0202006)
(0.000154174 -0.000122821 0.0199924)
(7.442e-05 -8.1725e-05 0.0198695)
(0.000285284 -4.62178e-05 0.0202349)
(0.000237424 -9.06127e-05 0.0200323)
(0.000171768 -9.81594e-05 0.019824)
(8.20242e-05 -7.26025e-05 0.0197047)
(6.85091e-05 -0.000214125 0.0202995)
(6.44703e-05 -0.000176699 0.0202392)
(4.86985e-05 -0.000133545 0.0201631)
(3.10003e-05 -9.19497e-05 0.020089)
(0.000101264 -0.000166966 0.0203164)
(0.000102485 -0.000144059 0.0202139)
(7.91181e-05 -0.000111669 0.0201041)
(4.82265e-05 -7.77041e-05 0.0200125)
(0.000130035 -9.39207e-05 0.0202503)
(0.000128005 -9.86416e-05 0.0201299)
(0.000100918 -8.69898e-05 0.0200037)
(5.81733e-05 -6.36093e-05 0.0199057)
(0.00014774 -3.59595e-05 0.0200963)
(0.000141495 -5.99059e-05 0.0199805)
(0.000114521 -6.92054e-05 0.0198547)
(6.42459e-05 -5.63309e-05 0.019762)
(3.96853e-05 -0.000124611 0.0202656)
(4.09991e-05 -0.000107308 0.0202255)
(3.55063e-05 -8.61e-05 0.0201675)
(2.67983e-05 -6.40553e-05 0.0200958)
(5.5589e-05 -0.000100038 0.0202357)
(6.0202e-05 -8.91399e-05 0.0201753)
(5.17838e-05 -7.37868e-05 0.0200988)
(3.60608e-05 -5.63447e-05 0.0200187)
(6.93278e-05 -6.15773e-05 0.0201534)
(7.44024e-05 -6.33815e-05 0.0200823)
(6.39084e-05 -5.89929e-05 0.0199962)
(4.15176e-05 -4.72457e-05 0.0199148)
(7.88992e-05 -2.42006e-05 0.020006)
(8.38079e-05 -3.7927e-05 0.0199353)
(7.27926e-05 -4.60117e-05 0.0198499)
(4.59063e-05 -4.1285e-05 0.0197746)
(2.4575e-05 -7.52544e-05 0.0202436)
(2.65305e-05 -6.69829e-05 0.0202137)
(2.47334e-05 -5.63791e-05 0.0201652)
(2.05336e-05 -4.466e-05 0.0200983)
(3.21973e-05 -6.08909e-05 0.0201908)
(3.63889e-05 -5.59319e-05 0.0201503)
(3.35094e-05 -4.87378e-05 0.0200911)
(2.57398e-05 -4.00703e-05 0.0200209)
(3.86926e-05 -3.9082e-05 0.020097)
(4.41288e-05 -4.03801e-05 0.0200505)
(4.02997e-05 -3.9158e-05 0.0199867)
(2.89174e-05 -3.37258e-05 0.0199182)
(4.37456e-05 -1.55096e-05 0.0199484)
(5.0097e-05 -2.37951e-05 0.0199023)
(4.59525e-05 -2.99801e-05 0.0198407)
(3.20129e-05 -2.9208e-05 0.0197799)
(1.57336e-05 -4.68937e-05 0.0202286)
(1.73421e-05 -4.287e-05 0.020204)
(1.68827e-05 -3.74877e-05 0.0201606)
(1.4916e-05 -3.11983e-05 0.0200972)
(1.94278e-05 -3.78243e-05 0.020164)
(2.25029e-05 -3.57026e-05 0.0201332)
(2.16829e-05 -3.2429e-05 0.0200833)
(1.79357e-05 -2.82985e-05 0.0200194)
(2.25088e-05 -2.46849e-05 0.0200629)
(2.67166e-05 -2.58456e-05 0.020029)
(2.55196e-05 -2.5941e-05 0.0199771)
(1.98495e-05 -2.37762e-05 0.0199169)
(2.51894e-05 -9.80514e-06 0.019912)
(3.03745e-05 -1.49984e-05 0.0198792)
(2.90989e-05 -1.95042e-05 0.0198307)
(2.20306e-05 -2.04007e-05 0.0197791)
(1.03184e-05 -3.00005e-05 0.0202183)
(1.1482e-05 -2.80272e-05 0.0201965)
(1.15121e-05 -2.52543e-05 0.0201559)
(1.06683e-05 -2.18294e-05 0.0200948)
(1.21141e-05 -2.39848e-05 0.0201473)
(1.42409e-05 -2.31858e-05 0.0201215)
(1.41972e-05 -2.17859e-05 0.0200766)
(1.24593e-05 -1.99231e-05 0.0200165)
(1.35955e-05 -1.57084e-05 0.0200419)
(1.65636e-05 -1.67135e-05 0.0200145)
(1.64089e-05 -1.72765e-05 0.0199691)
(1.36337e-05 -1.66785e-05 0.019914)
(1.50594e-05 -6.22314e-06 0.0198891)
(1.881e-05 -9.56936e-06 0.0198634)
(1.8689e-05 -1.27905e-05 0.0198223)
(1.51619e-05 -1.42084e-05 0.0197764)
(6.87817e-06 -1.95772e-05 0.020211)
(7.68965e-06 -1.86036e-05 0.0201909)
(7.87601e-06 -1.71619e-05 0.0201519)
(7.56529e-06 -1.52629e-05 0.0200922)
(7.77431e-06 -1.54795e-05 0.0201365)
(9.20119e-06 -1.52682e-05 0.0201134)
(9.41714e-06 -1.47446e-05 0.0200712)
(8.65957e-06 -1.39774e-05 0.0200134)
(8.48958e-06 -1.0105e-05 0.0200285)
(1.05029e-05 -1.09305e-05 0.0200046)
(1.07222e-05 -1.15896e-05 0.019963)
(9.39669e-06 -1.16596e-05 0.0199108)
(9.31657e-06 -3.98766e-06 0.0198746)
(1.18948e-05 -6.18956e-06 0.0198527)
(1.21913e-05 -8.47907e-06 0.0198158)
(1.04622e-05 -9.88866e-06 0.0197732)
(4.62176e-06 -1.29015e-05 0.020206)
(5.18387e-06 -1.24229e-05 0.0201867)
(5.39558e-06 -1.16694e-05 0.0201487)
(5.32315e-06 -1.06064e-05 0.0200897)
(5.08026e-06 -1.0093e-05 0.0201294)
(6.03228e-06 -1.01185e-05 0.0201077)
(6.30007e-06 -9.98596e-06 0.0200672)
(6.00331e-06 -9.73156e-06 0.0200107)
(5.43231e-06 -6.5519e-06 0.0200199)
(6.77624e-06 -7.19363e-06 0.0199979)
(7.08533e-06 -7.79273e-06 0.0199583)
(6.4733e-06 -8.09743e-06 0.0199079)
(5.91374e-06 -2.57607e-06 0.0198652)
(7.64746e-06 -4.04172e-06 0.0198455)
(8.04026e-06 -5.65633e-06 0.0198109)
(7.21109e-06 -6.85347e-06 0.0197704)
(3.09459e-06 -8.44975e-06 0.0202025)
(3.47889e-06 -8.22038e-06 0.0201837)
(3.66295e-06 -7.82758e-06 0.0201463)
(3.6799e-06 -7.23303e-06 0.0200878)
(3.33267e-06 -6.55183e-06 0.0201247)
(3.96315e-06 -6.65359e-06 0.0201039)
(4.19974e-06 -6.67821e-06 0.0200642)
(4.10389e-06 -6.64327e-06 0.0200086)
(3.50822e-06 -4.2299e-06 0.0200143)
(4.39285e-06 -4.70377e-06 0.0199934)
(4.6752e-06 -5.18679e-06 0.019955)
(4.4035e-06 -5.5208e-06 0.0199057)
(3.79346e-06 -1.65939e-06 0.0198592)
(4.93768e-06 -2.63162e-06 0.0198406)
(5.29128e-06 -3.74809e-06 0.0198074)
(4.90319e-06 -4.67209e-06 0.0197682)
(2.03621e-06 -5.34168e-06 0.0202001)
(2.28688e-06 -5.24154e-06 0.0201817)
(2.41972e-06 -5.04203e-06 0.0201446)
(2.45506e-06 -4.71843e-06 0.0200864)
(2.15764e-06 -4.11435e-06 0.0201216)
(2.55983e-06 -4.22411e-06 0.0201013)
(2.73273e-06 -4.29507e-06 0.0200622)
(2.71051e-06 -4.33672e-06 0.020007)
(2.24431e-06 -2.64665e-06 0.0200107)
(2.80396e-06 -2.97762e-06 0.0199904)
(3.01429e-06 -3.33144e-06 0.0199528)
(2.89379e-06 -3.60685e-06 0.019904)
(2.41041e-06 -1.03957e-06 0.0198553)
(3.13446e-06 -1.66762e-06 0.0198374)
(3.39677e-06 -2.40763e-06 0.0198051)
(3.21272e-06 -3.0584e-06 0.0197666)
(1.31117e-06 -3.08581e-06 0.0201986)
(1.45815e-06 -3.0548e-06 0.0201804)
(1.53484e-06 -2.96852e-06 0.0201435)
(1.54929e-06 -2.80789e-06 0.0200855)
(1.36623e-06 -2.3687e-06 0.0201197)
(1.59854e-06 -2.46081e-06 0.0200997)
(1.70064e-06 -2.53479e-06 0.0200609)
(1.68557e-06 -2.58588e-06 0.020006)
(1.40466e-06 -1.52613e-06 0.0200086)
(1.72455e-06 -1.7426e-06 0.0199886)
(1.85013e-06 -1.97836e-06 0.0199514)
(1.78313e-06 -2.16762e-06 0.019903)
(1.49181e-06 -6.06049e-07 0.019853)
(1.90475e-06 -9.8885e-07 0.0198355)
(2.06078e-06 -1.44198e-06 0.0198036)
(1.95882e-06 -1.84888e-06 0.0197655)
(9.53703e-07 -1.56278e-06 0.0201978)
(1.02038e-06 -1.57629e-06 0.0201797)
(1.03685e-06 -1.56049e-06 0.020143)
(1.00484e-06 -1.50726e-06 0.0200851)
(9.67517e-07 -1.20037e-06 0.0201187)
(1.07542e-06 -1.2783e-06 0.0200988)
(1.1022e-06 -1.34376e-06 0.0200602)
(1.05191e-06 -1.38672e-06 0.0200056)
(9.73701e-07 -7.73007e-07 0.0200073)
(1.12416e-06 -9.2184e-07 0.0199876)
(1.16053e-06 -1.0761e-06 0.0199506)
(1.08362e-06 -1.19543e-06 0.0199025)
(9.93325e-07 -3.15798e-07 0.0198517)
(1.18636e-06 -5.47437e-07 0.0198344)
(1.23402e-06 -8.07456e-07 0.0198028)
(1.13502e-06 -1.03056e-06 0.019765)
(-0.00724444 -3.15221e-06 0.0274413)
(-0.00684664 0.0020415 0.0425231)
(-0.000584155 -5.36421e-05 0.00651117)
(-0.000508295 -0.00075808 0.0152264)
(0.000592884 -0.00228293 0.0123888)
(0.00144366 -0.00311628 0.0205266)
(0.00020409 -0.00135987 0.00798949)
(-0.00166577 9.44209e-05 0.0208722)
(-0.000180545 -0.000133474 0.000141533)
(-0.00262416 -0.00260387 0.0223238)
(0.00135871 3.3074e-05 0.00757964)
(0.00462916 0.00341516 0.0222748)
(-0.00325131 -0.00252809 0.0346286)
(0.000994643 0.00096599 0.00936128)
(0.00356185 0.00812075 0.0309108)
(-0.000440513 0.000526265 0.0215294)
(-0.00478137 -0.00586286 0.0550001)
(0.00199159 -0.00109972 0.0276825)
(0.0092356 0.00089826 0.0646753)
(0.00142871 -0.00408808 0.0596629)
(0.00263064 -0.000712936 0.0472271)
(0.00261139 0.00187714 0.0374408)
(0.00244392 -0.000841116 0.0702257)
(0.00175317 -0.00329134 0.0359538)
(0.00211108 -0.00107781 0.0336696)
(0.00303432 -0.00147967 0.0402537)
(0.00136312 -0.00233451 0.0331399)
(0.00212055 -0.0045822 0.0665672)
(0.000105539 5.36805e-05 0.0181618)
(-0.000558893 -0.000935764 0.0180433)
(0.00073388 -0.00185346 0.0547107)
(0.000747253 -0.000773572 0.039023)
(0.00471911 -0.00258464 0.0346087)
(0.000477371 -0.00103176 0.0132767)
(-0.000896518 -0.00164026 0.0314867)