/*--------------------------------*- C++ -*----------------------------------*\
| =========                 |                                                 |
| \\      /  F ield         | OpenFOAM: The Open Source CFD Toolbox           |
|  \\    /   O peration     | Version:  2506                                  |
|   \\  /    A nd           | Website:  www.openfoam.com                      |
|    \\/     M anipulation  |                                                 |
\*---------------------------------------------------------------------------*/
FoamFile
{
    version     2.0;
    format      ascii;
    arch        "LSB;label=32;scalar=64";
    class       volScalarField;
    location    "0.01";
    object      Ksl;
}
// * * * * * * * * * * * * * * * * * * * * * * * * * * * * * * * * * * * * * //

dimensions      [1 -3 -1 0 0 0 0];

internalField   nonuniform List<scalar> 
1152
(
57703.8
99021.9
102407
119668
115507
73387.2
190246
125280
97097.2
116137
128613
72538.5
254712
86073.1
65310.5
74781.3
269191
279199
246291
371976
234301
316621
262188
182200
216711
184641
225347
311858
325357
444683
5.24658e+06
187431
109881
360021
194069
735433
357502
207085
192189
191829
261834
237383
233268
248617
147720
192567
126798
1.70766e+06
1.1656e+06
170858
378710
259470
270144
422544
144533
206200
197892
338044
337351
393344
2.56511e+06
186823
251350
669572
146019
296720
174826
205943
205838
351788
365054
220623
327098
137044
404787
148826
129350
9.09896e+06
91361.3
184879
1.15123e+06
168740
245994
122653
117400
338813
169107
559248
297746
183280
276926
583699
3.53508e+06
199601
346674
158796
35593.6
90190.2
61089.7
39247.4
59509.4
86119.6
63484.2
208916
76593.3
25553.9
90462.1
46829.8
177094
28163.9
11797.2
36810.2
0
0
0
0
0
0
0
0
0
0
0
0
175.908
123.873
0
0
0
0
0
0
0
0
0
0
0
0
0
0
0
0
0
0
0
0
0
0
0
0
0
0
0
0
0
0
0
0
0
0
0
0
0
0
0
0
0
0
0
0
0
0
0
0
0
0
0
0
0
0
0
0
0
0
0
0
0
0
0
0
0
0
0
0
0
0
0
0
0
0
0
0
0
0
0
0
0
0
0
0
0
0
0
0
0
0
0
0
0
0
0
0
0
0
0
0
0
0
0
0
0
0
0
0
0
0
0
0
0
0
0
0
0
0
0
0
0
0
0
0
0
0
0
0
0
0
0
0
0
0
0
0
0
0
0
0
0
0
0
0
0
0
0
0
0
0
0
0
0
0
0
0
0
0
0
0
0
0
0
0
0
0
0
0
0
0
0
0
0
0
0
0
0
0
0
0
0
0
0
0
0
0
0
0
0
0
0
0
0
0
0
0
0
0
0
0
0
0
0
0
0
0
0
0
0
0
0
0
0
0
0
0
0
0
0
0
0
0
0
0
0
0
0
0
0
0
0
0
0
0
0
0
0
0
0
0
0
0
0
0
0
0
0
0
0
0
0
0
0
0
0
0
0
0
73809.9
171298
172201
118657
133210
89121.8
64156.7
103807
103650
216975
81688.7
79593.4
92932.7
95499.5
104383
309317
240632
185327
222839
147907
268983
186867
293213
272949
203903
244594
203919
237503
173335
389392
234815
208716
311443
219044
260726
202231
244686
224059
164412
180140
210874
253688
203957
394176
2.2174e+06
153597
635229
135177
829993
176755
262385
137562
519539
219709
226754
393293
160439
288777
233748
368726
284478
781007
161981
339261
285470
190377
166262
175352
204564
223997
241829
276759
175028
328449
154611
201217
337867
131295
682333
121761
5.57778e+06
149608
306347
163125
122559
205520
186223
164210
292637
185268
233384
259194
270334
367396
277074
274130
31120.2
102426
83407.5
47571.4
38372.3
41272.4
151715
141049
37296.6
45787.1
43595.2
34868.9
20078.6
28348.1
51863.6
57485.2
0
0
0
0
0
0
0
0
0
0
0
0
0
0
0
0
0
0
0
0
0
0
0
0
0
0
0
0
0
0
0
0
0
0
0
0
0
0
0
0
0
0
0
0
0
0
0
0
0
0
0
0
0
0
0
0
0
0
0
0
0
0
0
0
0
0
0
0
0
0
0
0
0
0
0
0
0
0
0
0
0
0
0
0
0
0
0
0
0
0
0
0
0
0
0
0
0
0
0
0
0
0
0
0
0
0
0
0
0
0
0
0
0
0
0
0
0
0
0
0
0
0
0
0
0
0
0
0
0
0
0
0
0
0
0
0
0
0
0
0
0
0
0
0
0
0
0
0
0
0
0
0
0
0
0
0
0
0
0
0
0
0
0
0
0
0
0
0
0
0
0
0
0
0
0
0
0
0
0
0
0
0
0
0
0
0
0
0
0
0
0
0
0
0
0
0
0
0
0
0
0
0
0
0
0
0
0
0
0
0
0
0
0
0
0
0
0
0
0
0
0
0
0
0
0
0
0
0
0
0
0
0
0
0
0
0
0
0
0
0
0
0
0
0
0
0
0
0
0
0
0
0
0
0
0
0
0
0
0
0
0
0
0
0
0
0
0
0
0
0
0
0
83407
125482
112677
69891.9
114085
141506
496145
147659
144613
103246
81040.8
116776
260877
96131
83641.1
110230
747182
130426
396124
279706
228834
424881
131310
126473
298936
151820
283417
214788
234261
1.00282e+06
277437
562589
123595
255891
371778
184457
238596
153374
512496
223835
217381
308753
137584
325599
184424
170190
318574
117669
429839
157388
492518
199985
478047
438653
128826
294880
242783
215319
2.89259e+06
121691
167587
327491
461973
2.61538e+06
420784
150998
453276
293960
174073
223496
210898
149412
224719
245955
118217
392492
259648
189066
189119
110156
4.29691e+06
256110
1.01418e+06
102010
179981
223889
111463
614999
183150
367406
245061
213352
320178
278938
450352
485288
51476.4
46975.5
58706.8
48827.3
41092
105996
51710.4
18115.1
74631
35730.7
19157.9
54904.8
46066.7
29731.8
15556.9
18644.2
0
0
0
0
0
0
0
0
0
0
0
0
0
0
0
0
0
0
0
0
0
0
0
0
0
0
0
0
0
0
0
0
0
0
0
0
0
0
0
0
0
0
0
0
0
0
0
0
0
0
0
0
0
0
0
0
0
0
0
0
0
0
0
0
0
0
0
0
0
0
0
0
0
0
0
0
0
0
0
0
0
0
0
0
0
0
0
0
0
0
0
0
0
0
0
0
0
0
0
0
0
0
0
0
0
0
0
0
0
0
0
0
0
0
0
0
0
0
0
0
0
0
0
0
0
0
0
0
0
0
0
0
0
0
0
0
0
0
0
0
0
0
0
0
0
0
0
0
0
0
0
0
0
0
0
0
0
0
0
0
0
0
0
0
0
0
0
0
0
0
0
0
0
0
0
0
0
0
0
0
0
0
0
0
0
0
0
0
0
0
0
0
0
0
0
0
0
0
0
0
0
0
0
0
0
0
0
0
0
0
0
0
0
0
0
0
0
0
0
0
0
0
0
0
0
0
0
0
0
0
0
0
0
0
0
0
0
0
0
0
0
0
0
0
0
0
0
0
0
0
0
0
0
0
0
0
0
0
0
0
0
0
0
0
0
0
0
0
0
0
0
0
)
;

boundaryField
{
    inlet
    {
        type            zeroGradient;
    }
    outlet
    {
        type            zeroGradient;
    }
    wall
    {
        type            zeroGradient;
    }
    procBoundary1to0
    {
        type            processor;
        value           nonuniform List<scalar> 
192
(
479808
142178
101486
117734
1.10093e+06
220977
1.07032e+06
244604
3.31442e+07
208103
128302
1.2084e+06
146488
213998
6.37474e+06
102164
242315
386353
99247.9
2.74877e+06
162417
145710
205863
135189
79252.2
423053
31525.3
112468
0
0
0
0
0
0
0
0
0
0
0
0
0
0
0
0
0
0
0
0
0
0
0
0
0
0
0
0
0
0
0
0
0
0
0
0
0
0
0
0
0
0
0
0
0
0
0
0
0
0
0
0
0
0
0
0
0
0
0
0
0
0
0
0
0
0
0
0
252426
148618
81518.4
412296
172540
148157
316113
140139
209719
226562
361239
130267
124893
205908
198515
340982
169900
270531
287083
193697
106471
228178
151825
140929
62833.6
107115
30496.5
56410
0
0
0
0
0
0
0
0
0
0
0
0
0
0
0
0
0
0
0
0
0
0
0
0
0
0
0
0
0
0
0
0
0
0
0
0
0
0
0
0
0
0
0
0
0
0
0
0
0
0
0
0
0
0
0
0
0
0
0
0
0
0
0
0
0
0
0
0
)
;
    }
    procBoundary1to3
    {
        type            processor;
        value           nonuniform List<scalar> 
192
(
58698.9
181862
104092
269186
101498
331565
150731
207706
465892
238852
549908
112585
487075
492225
161001
324044
9.04403e+06
98987.9
690029
267742
98146.3
215737
165189
188085
608826
70920.6
327246
49813.2
0
0
0
0
0
0
0
0
0
0
0
0
0
0
0
0
0
0
0
0
0
0
0
0
0
0
0
0
0
0
0
0
0
0
0
0
0
0
0
0
0
0
0
0
0
0
0
0
0
0
0
0
0
0
0
0
0
0
0
0
0
0
0
0
0
0
0
0
82324.6
76443.5
177720
112608
265979
390861
137617
146721
283235
496914
201947
206094
206691
177660
178511
131807
167897
539126
214170
325515
155846
157585
105213
180176
107673
48467.7
62737
82745.3
0
0
0
0
0
0
0
0
0
0
0
0
0
0
0
0
0
0
0
0
0
0
0
0
0
0
0
0
0
0
0
0
0
0
0
0
0
0
0
0
0
0
0
0
0
0
0
0
0
0
0
0
0
0
0
0
0
0
0
0
0
0
0
0
0
0
0
0
)
;
    }
}


// ************************************************************************* //
