/*--------------------------------*- C++ -*----------------------------------*\
| =========                 |                                                 |
| \\      /  F ield         | OpenFOAM: The Open Source CFD Toolbox           |
|  \\    /   O peration     | Version:  2506                                  |
|   \\  /    A nd           | Website:  www.openfoam.com                      |
|    \\/     M anipulation  |                                                 |
\*---------------------------------------------------------------------------*/
FoamFile
{
    version     2.0;
    format      ascii;
    arch        "LSB;label=32;scalar=64";
    class       volScalarField;
    location    "0.01";
    object      p;
}
// * * * * * * * * * * * * * * * * * * * * * * * * * * * * * * * * * * * * * //

dimensions      [0 2 -2 0 0 0 0];

internalField   nonuniform List<scalar> 
1152
(
6.29697
6.32246
6.32568
6.33033
6.33279
6.32592
6.3601
6.31784
6.33187
6.32402
6.32429
6.3005
6.34087
6.31819
6.29295
6.28992
5.65674
5.72757
5.66523
5.67351
5.67726
5.71151
5.5674
5.59514
5.66987
5.65822
5.64027
5.73174
5.60925
5.66417
5.6848
5.71541
4.39875
4.41953
4.46894
4.4646
4.45939
4.49146
4.4211
4.47597
4.503
4.53606
4.49952
4.50051
4.5547
4.47053
4.4484
4.55546
3.4421
3.33585
3.32246
3.25416
3.30012
3.38839
3.38923
3.33357
3.31518
3.26549
3.34983
3.20059
3.35576
3.3767
3.24616
3.15336
2.22176
2.23741
2.22432
2.16964
2.1402
2.20224
2.31137
2.26793
2.24404
2.16525
2.19711
2.20657
2.31434
2.24167
2.17232
2.14038
1.18907
1.2405
1.22308
1.22418
1.26125
1.20973
1.21029
1.26373
1.24713
1.15993
1.18033
1.19796
1.34749
1.16486
1.11946
1.18169
1.0136
1.00491
1.00378
1.01232
1.00922
0.99253
1.00206
1.00271
1.00175
0.996207
1.0017
1.00563
0.995744
0.987089
1.01027
1.0125
1.00475
1.00454
1.00459
1.00489
1.00388
1.00304
1.00408
1.00452
1.00313
1.00337
1.00419
1.00501
1.00423
1.0069
1.00749
1.00613
1.00706
1.00696
1.00686
1.00697
1.00719
1.00692
1.0068
1.00673
1.00795
1.00856
1.00779
1.00726
1.00929
1.01115
1.00871
1.00794
1.00572
1.0057
1.0057
1.00573
1.00581
1.00578
1.00578
1.00577
1.00608
1.00618
1.00608
1.00598
1.00635
1.00653
1.00634
1.00619
1.00552
1.00554
1.00553
1.00553
1.00561
1.00561
1.00559
1.00557
1.00575
1.00578
1.00573
1.00568
1.00588
1.00593
1.00585
1.00579
1.00515
1.00516
1.00516
1.00516
1.00521
1.00521
1.00521
1.0052
1.00528
1.0053
1.00528
1.00526
1.00536
1.00537
1.00535
1.00532
1.00475
1.00476
1.00476
1.00476
1.00479
1.0048
1.0048
1.0048
1.00484
1.00485
1.00484
1.00483
1.00488
1.00489
1.00488
1.00487
1.00435
1.00436
1.00436
1.00436
1.00438
1.00438
1.00438
1.00439
1.00441
1.00441
1.00441
1.00441
1.00444
1.00444
1.00444
1.00444
1.00394
1.00395
1.00395
1.00396
1.00396
1.00397
1.00397
1.00397
1.00398
1.00399
1.00399
1.00399
1.004
1.00401
1.00401
1.00401
1.00354
1.00354
1.00354
1.00355
1.00355
1.00355
1.00355
1.00356
1.00356
1.00357
1.00357
1.00357
1.00358
1.00358
1.00358
1.00358
1.00312
1.00313
1.00313
1.00313
1.00313
1.00314
1.00314
1.00314
1.00314
1.00315
1.00315
1.00315
1.00315
1.00316
1.00316
1.00316
1.00271
1.00271
1.00272
1.00272
1.00272
1.00272
1.00272
1.00272
1.00272
1.00273
1.00273
1.00273
1.00273
1.00273
1.00273
1.00274
1.0023
1.0023
1.0023
1.0023
1.0023
1.0023
1.0023
1.0023
1.00231
1.00231
1.00231
1.00231
1.00231
1.00231
1.00231
1.00231
1.00188
1.00188
1.00188
1.00188
1.00188
1.00188
1.00189
1.00189
1.00189
1.00189
1.00189
1.00189
1.00189
1.00189
1.00189
1.00189
1.00146
1.00146
1.00147
1.00147
1.00147
1.00147
1.00147
1.00147
1.00147
1.00147
1.00147
1.00147
1.00147
1.00147
1.00147
1.00147
1.00105
1.00105
1.00105
1.00105
1.00105
1.00105
1.00105
1.00105
1.00105
1.00105
1.00105
1.00105
1.00105
1.00105
1.00105
1.00105
1.00063
1.00063
1.00063
1.00063
1.00063
1.00063
1.00063
1.00063
1.00063
1.00063
1.00063
1.00063
1.00063
1.00063
1.00063
1.00063
1.00021
1.00021
1.00021
1.00021
1.00021
1.00021
1.00021
1.00021
1.00021
1.00021
1.00021
1.00021
1.00021
1.00021
1.00021
1.00021
6.28977
6.31397
6.28959
6.2293
6.31195
6.28349
6.25728
6.25182
6.29911
6.33244
6.27255
6.25802
6.29294
6.31937
6.30541
6.30208
5.78477
5.59995
5.6014
5.56369
5.6745
5.65593
5.6981
5.59678
5.67037
5.61669
5.69035
5.65779
5.68665
5.66011
5.70128
5.57387
4.65135
4.50622
4.50101
4.4721
4.58893
4.53772
4.50377
4.50587
4.4913
4.51588
4.50847
4.52198
4.57128
4.49652
4.44655
4.49461
3.3215
3.33478
3.31229
3.36146
3.30444
3.35861
3.38251
3.38125
3.32
3.35644
3.31868
3.28906
3.31897
3.29678
3.31927
3.29655
2.25588
2.27497
2.30762
2.28698
2.12353
2.23642
2.27517
2.22209
2.24984
2.20128
2.25607
2.2181
2.20613
2.21291
2.27462
2.21769
1.4884
1.37715
1.37287
1.26423
1.2303
1.2255
1.33791
1.27958
1.1483
1.17196
1.22896
1.20248
1.07744
1.16345
1.1637
1.24526
0.989804
1.01243
1.00763
1.012
1.01141
1.00863
1.00904
1.00839
1.00794
1.01152
1.01303
1.01334
1.01085
1.0169
1.00785
1.01155
1.00417
1.00452
1.00456
1.00482
1.00457
1.00475
1.00474
1.00482
1.00449
1.00474
1.00496
1.00506
1.0049
1.00512
1.00477
1.00491
1.00634
1.00722
1.00676
1.00705
1.00684
1.00706
1.00689
1.00695
1.00682
1.00714
1.00709
1.0071
1.00699
1.00723
1.007
1.00709
1.00532
1.00562
1.00557
1.00568
1.0055
1.00563
1.00562
1.00569
1.00555
1.00566
1.00566
1.0057
1.00565
1.0057
1.00568
1.0057
1.00531
1.00543
1.00544
1.0055
1.00536
1.00543
1.00545
1.0055
1.0054
1.00545
1.00547
1.0055
1.00546
1.00549
1.0055
1.00551
1.00501
1.00506
1.00508
1.00511
1.00503
1.00507
1.00509
1.00511
1.00506
1.00508
1.0051
1.00512
1.0051
1.00511
1.00512
1.00513
1.00466
1.00469
1.0047
1.00473
1.00467
1.00469
1.00471
1.00473
1.00469
1.00471
1.00472
1.00474
1.00472
1.00473
1.00474
1.00474
1.00429
1.0043
1.00432
1.00434
1.0043
1.00431
1.00432
1.00434
1.00431
1.00432
1.00433
1.00434
1.00433
1.00433
1.00434
1.00435
1.0039
1.00391
1.00392
1.00394
1.00391
1.00392
1.00393
1.00394
1.00392
1.00392
1.00393
1.00394
1.00393
1.00393
1.00394
1.00395
1.00351
1.00351
1.00352
1.00353
1.00351
1.00352
1.00352
1.00353
1.00352
1.00352
1.00353
1.00353
1.00352
1.00353
1.00353
1.00354
1.0031
1.00311
1.00312
1.00312
1.00311
1.00311
1.00312
1.00312
1.00311
1.00312
1.00312
1.00312
1.00312
1.00312
1.00312
1.00313
1.0027
1.0027
1.00271
1.00271
1.0027
1.0027
1.00271
1.00271
1.0027
1.0027
1.00271
1.00271
1.00271
1.00271
1.00271
1.00271
1.00229
1.00229
1.00229
1.0023
1.00229
1.00229
1.00229
1.0023
1.00229
1.00229
1.00229
1.0023
1.00229
1.00229
1.0023
1.0023
1.00187
1.00188
1.00188
1.00188
1.00187
1.00188
1.00188
1.00188
1.00188
1.00188
1.00188
1.00188
1.00188
1.00188
1.00188
1.00188
1.00146
1.00146
1.00146
1.00146
1.00146
1.00146
1.00146
1.00146
1.00146
1.00146
1.00146
1.00146
1.00146
1.00146
1.00146
1.00146
1.00104
1.00104
1.00104
1.00105
1.00104
1.00104
1.00105
1.00105
1.00104
1.00104
1.00105
1.00105
1.00104
1.00105
1.00105
1.00105
1.00063
1.00063
1.00063
1.00063
1.00063
1.00063
1.00063
1.00063
1.00063
1.00063
1.00063
1.00063
1.00063
1.00063
1.00063
1.00063
1.00021
1.00021
1.00021
1.00021
1.00021
1.00021
1.00021
1.00021
1.00021
1.00021
1.00021
1.00021
1.00021
1.00021
1.00021
1.00021
6.2899
6.25974
6.2374
6.20679
6.30771
6.29941
6.25091
6.18008
6.3135
6.24326
6.21313
6.21311
6.33483
6.27113
6.22941
6.21926
5.55046
5.57418
5.62406
5.64832
5.57149
5.50536
5.49613
5.50954
5.57749
5.57742
5.54765
5.53757
5.52309
5.59123
5.61193
5.37104
4.48435
4.49552
4.50031
4.48165
4.49286
4.47602
4.46639
4.58381
4.43936
4.48184
4.43684
4.29815
4.38587
4.37644
4.41213
4.35954
3.43961
3.34411
3.35349
3.37583
3.30458
3.35027
3.27067
3.26153
3.28729
3.28668
3.24279
3.28479
3.30689
3.30243
3.19643
3.25563
2.23286
2.25827
2.21774
2.09776
2.18006
2.19468
2.21367
2.23507
2.20304
2.2316
2.21159
2.34084
2.25462
2.21821
2.20459
2.23555
1.0602
1.17591
1.14723
1.1891
1.17988
1.21831
1.1983
1.09726
1.19629
1.09902
1.11011
1.14557
1.17927
1.10786
1.06577
1.11269
1.00904
1.00878
1.00906
1.01083
1.00744
1.00563
1.00892
1.00933
0.998334
1.00801
1.01051
1.00581
0.996464
1.00343
1.00791
1.00861
1.00483
1.0048
1.00472
1.00466
1.00471
1.00462
1.00469
1.00496
1.0046
1.00462
1.00479
1.00451
1.00515
1.00474
1.00446
1.0045
1.0069
1.00687
1.00684
1.0069
1.00676
1.00669
1.00669
1.00671
1.00684
1.00687
1.00679
1.00645
1.00736
1.00709
1.00703
1.00699
1.00573
1.00572
1.00571
1.0057
1.00577
1.00575
1.00576
1.00575
1.00586
1.00582
1.0058
1.00571
1.00602
1.00592
1.00591
1.00587
1.00553
1.00552
1.00551
1.00552
1.00556
1.00554
1.00553
1.00553
1.00562
1.00559
1.00556
1.00553
1.00572
1.00567
1.00565
1.00564
1.00515
1.00514
1.00513
1.00513
1.00518
1.00517
1.00516
1.00516
1.00523
1.00521
1.00519
1.00518
1.00529
1.00526
1.00525
1.00524
1.00476
1.00475
1.00475
1.00475
1.00479
1.00478
1.00477
1.00477
1.00482
1.00481
1.0048
1.0048
1.00486
1.00485
1.00484
1.00483
1.00436
1.00436
1.00435
1.00435
1.00438
1.00438
1.00437
1.00437
1.00441
1.0044
1.00439
1.00439
1.00443
1.00442
1.00442
1.00442
1.00396
1.00395
1.00395
1.00395
1.00397
1.00397
1.00397
1.00397
1.00399
1.00398
1.00398
1.00398
1.004
1.004
1.004
1.004
1.00355
1.00354
1.00354
1.00354
1.00356
1.00355
1.00355
1.00355
1.00357
1.00357
1.00357
1.00357
1.00358
1.00358
1.00358
1.00358
1.00313
1.00313
1.00313
1.00313
1.00314
1.00314
1.00314
1.00314
1.00315
1.00315
1.00315
1.00315
1.00316
1.00316
1.00316
1.00316
1.00272
1.00272
1.00272
1.00272
1.00272
1.00272
1.00272
1.00272
1.00273
1.00273
1.00273
1.00273
1.00274
1.00274
1.00274
1.00274
1.0023
1.0023
1.0023
1.0023
1.00231
1.00231
1.00231
1.00231
1.00231
1.00231
1.00231
1.00231
1.00231
1.00231
1.00231
1.00231
1.00188
1.00188
1.00188
1.00188
1.00189
1.00189
1.00189
1.00189
1.00189
1.00189
1.00189
1.00189
1.00189
1.00189
1.00189
1.00189
1.00147
1.00147
1.00147
1.00147
1.00147
1.00147
1.00147
1.00147
1.00147
1.00147
1.00147
1.00147
1.00147
1.00147
1.00147
1.00147
1.00105
1.00105
1.00105
1.00105
1.00105
1.00105
1.00105
1.00105
1.00105
1.00105
1.00105
1.00105
1.00105
1.00105
1.00105
1.00105
1.00063
1.00063
1.00063
1.00063
1.00063
1.00063
1.00063
1.00063
1.00063
1.00063
1.00063
1.00063
1.00063
1.00063
1.00063
1.00063
1.00021
1.00021
1.00021
1.00021
1.00021
1.00021
1.00021
1.00021
1.00021
1.00021
1.00021
1.00021
1.00021
1.00021
1.00021
1.00021
)
;

boundaryField
{
    inlet
    {
        type            zeroGradient;
    }
    outlet
    {
        type            fixedValue;
        value           uniform 1;
    }
    wall
    {
        type            zeroGradient;
    }
    procBoundary1to0
    {
        type            processor;
        value           nonuniform List<scalar> 
192
(
6.40873
6.38022
6.35042
6.36323
5.60421
5.56714
5.59698
5.76468
4.26308
4.39912
4.48026
4.37853
3.46958
3.4166
3.33558
3.43302
2.24622
2.20186
2.21696
2.42493
1.25641
1.31068
1.26339
1.3119
1.00787
0.998058
1.01163
1.00711
1.00428
1.00402
1.00456
1.0047
1.00707
1.00709
1.00785
1.0082
1.00569
1.00578
1.00605
1.0062
1.0055
1.00558
1.00571
1.00582
1.00513
1.00519
1.00526
1.00533
1.00474
1.00478
1.00483
1.00487
1.00434
1.00437
1.0044
1.00443
1.00394
1.00396
1.00398
1.004
1.00353
1.00354
1.00356
1.00357
1.00312
1.00313
1.00314
1.00315
1.00271
1.00272
1.00272
1.00273
1.0023
1.0023
1.0023
1.00231
1.00188
1.00188
1.00189
1.00189
1.00146
1.00147
1.00147
1.00147
1.00105
1.00105
1.00105
1.00105
1.00063
1.00063
1.00063
1.00063
1.00021
1.00021
1.00021
1.00021
6.34313
6.30242
6.29589
6.33175
5.49191
5.55244
5.66226
5.54261
4.37142
4.51222
4.51674
4.62831
3.32239
3.36757
3.36785
3.47849
2.28548
2.27138
2.20186
2.1582
1.37859
1.28489
1.14946
1.19562
1.01211
1.01173
1.00843
1.00894
1.00351
1.00417
1.00431
1.0044
1.00695
1.00698
1.00695
1.00702
1.00534
1.00544
1.00552
1.00561
1.00534
1.00535
1.00538
1.00544
1.005
1.00502
1.00504
1.00508
1.00465
1.00466
1.00468
1.0047
1.00428
1.00429
1.0043
1.00432
1.0039
1.0039
1.00391
1.00392
1.0035
1.00351
1.00351
1.00352
1.0031
1.0031
1.00311
1.00311
1.0027
1.0027
1.0027
1.0027
1.00229
1.00229
1.00229
1.00229
1.00187
1.00187
1.00187
1.00188
1.00146
1.00146
1.00146
1.00146
1.00104
1.00104
1.00104
1.00104
1.00063
1.00063
1.00063
1.00063
1.00021
1.00021
1.00021
1.00021
)
;
    }
    procBoundary1to3
    {
        type            processor;
        value           nonuniform List<scalar> 
192
(
6.25432
6.31861
6.29448
6.32556
5.67877
5.63429
5.60677
5.4892
4.75089
4.5582
4.49582
4.49699
3.51161
3.13894
3.29709
3.45829
2.25088
2.21883
2.22113
2.16647
1.37795
1.3694
1.28119
1.1979
1.03173
1.00482
1.01401
1.01312
1.00472
1.00623
1.00686
1.00621
1.009
1.00917
1.00833
1.00834
1.00644
1.00648
1.00636
1.00633
1.00595
1.00597
1.00591
1.00588
1.00541
1.00542
1.0054
1.00538
1.00492
1.00493
1.00492
1.00491
1.00446
1.00447
1.00447
1.00446
1.00402
1.00403
1.00403
1.00402
1.00359
1.00359
1.00359
1.00359
1.00316
1.00317
1.00317
1.00317
1.00274
1.00274
1.00274
1.00274
1.00232
1.00232
1.00232
1.00232
1.00189
1.0019
1.0019
1.0019
1.00147
1.00147
1.00147
1.00147
1.00105
1.00105
1.00105
1.00105
1.00063
1.00063
1.00063
1.00063
1.00021
1.00021
1.00021
1.00021
6.28687
6.25961
6.21211
6.15595
5.65486
5.68617
5.47615
5.42978
4.41432
4.31816
4.42586
4.36329
3.29642
3.31178
3.32126
3.37219
2.19019
2.20702
2.18137
2.35945
1.25726
1.19331
1.25084
1.25041
1.01269
1.00151
1.01476
1.01126
1.00564
1.00513
1.00397
1.00397
1.00803
1.00726
1.00745
1.00738
1.00618
1.00596
1.00594
1.00584
1.00581
1.00573
1.00571
1.00569
1.00535
1.00531
1.0053
1.00529
1.00489
1.00488
1.00487
1.00487
1.00445
1.00445
1.00444
1.00444
1.00402
1.00402
1.00402
1.00402
1.00359
1.00359
1.00359
1.00359
1.00317
1.00317
1.00317
1.00317
1.00274
1.00274
1.00274
1.00274
1.00232
1.00232
1.00232
1.00232
1.0019
1.0019
1.0019
1.0019
1.00148
1.00148
1.00148
1.00148
1.00105
1.00105
1.00105
1.00105
1.00063
1.00063
1.00063
1.00063
1.00021
1.00021
1.00021
1.00021
)
;
    }
}


// ************************************************************************* //
