/*--------------------------------*- C++ -*----------------------------------*\
| =========                 |                                                 |
| \\      /  F ield         | OpenFOAM: The Open Source CFD Toolbox           |
|  \\    /   O peration     | Version:  2506                                  |
|   \\  /    A nd           | Website:  www.openfoam.com                      |
|    \\/     M anipulation  |                                                 |
\*---------------------------------------------------------------------------*/
FoamFile
{
    version     2.0;
    format      ascii;
    arch        "LSB;label=32;scalar=64";
    class       volVectorField;
    location    "0.01";
    object      U;
}
// * * * * * * * * * * * * * * * * * * * * * * * * * * * * * * * * * * * * * //

dimensions      [0 1 -1 0 0 0 0];

internalField   nonuniform List<vector> 
1152
(
(0.00220595 -0.00107435 0.0123452)
(-0.000413982 -9.2611e-05 0.00617032)
(-0.000122818 -0.000763379 0.00625369)
(0.000458544 -0.00027513 0.00509692)
(0.000562157 -0.000401088 0.00551789)
(-0.000467022 -5.56712e-05 0.00824848)
(3.56302e-05 -3.56024e-05 0.00354083)
(0.000516451 0.000210567 0.00538259)
(0.00031833 -0.000141315 0.0066091)
(5.93465e-05 4.45307e-05 0.00540753)
(0.000490933 0.000690274 0.00481862)
(0.000275188 0.000492261 0.00832167)
(0.000208029 0.000365041 0.00254714)
(0.000672805 8.55866e-05 0.00729809)
(0.000640761 0.000579122 0.010184)
(-0.000737555 -0.000515863 0.00841306)
(-0.000592781 -6.47503e-05 0.00624876)
(-8.56995e-05 -0.000249562 0.00564937)
(0.000249283 0.000625484 0.00640844)
(0.00043773 -0.000152062 0.00410956)
(-0.000723006 -0.000142035 0.00694585)
(0.000378632 0.00017156 0.00488788)
(0.000488814 8.31199e-05 0.00628543)
(2.80918e-05 -0.000434897 0.00934256)
(-0.000290497 0.000303292 0.00751732)
(0.000186634 0.000239332 0.00895431)
(-0.000373157 -0.00071029 0.00717987)
(0.000288903 -0.000492408 0.00490416)
(0.00030989 -0.00011759 0.00479595)
(-0.000225064 -5.2996e-07 0.00325195)
(-1.64291e-05 -7.91001e-05 0.000254416)
(0.00106172 0.00150155 0.00842796)
(-0.00195876 0.00131057 0.0209865)
(-0.000287783 -1.28966e-05 0.00560256)
(-0.000238242 0.000107515 0.0104887)
(-1.54513e-05 2.08388e-05 0.00259957)
(-0.000379135 -0.000393905 0.00534381)
(0.00014445 -0.000755539 0.00986785)
(7.48673e-05 -0.000262219 0.0107633)
(-0.000462356 -0.000261812 0.0108911)
(-0.000362755 -0.000483641 0.00759486)
(-3.65917e-05 3.37028e-05 0.00877823)
(0.000164507 -0.000206647 0.00871433)
(0.000258924 -0.00040045 0.00800843)
(-0.000871903 -0.00202195 0.0134892)
(0.000648157 -0.000163251 0.0112277)
(-0.000847686 -4.56298e-05 0.0190654)
(7.90617e-05 -0.000110282 0.00120325)
(4.5689e-05 -6.70947e-05 0.00154597)
(0.000759585 -0.000759869 0.0117846)
(0.000167933 -0.000258116 0.00514402)
(-0.000735123 -0.000135237 0.00762188)
(-2.11307e-05 0.000453551 0.00701664)
(-0.000274486 9.89079e-05 0.00429498)
(0.000495871 -0.000334007 0.0147135)
(0.000501057 0.000284766 0.00994097)
(0.000283835 -0.00036812 0.0098991)
(-0.000221225 -5.4253e-06 0.00560809)
(0.000152785 0.000424055 0.00563972)
(0.000105668 0.000407177 0.00464527)
(-0.000115798 -5.30593e-05 0.000525019)
(0.000597073 0.000848563 0.0108911)
(0.00107832 0.00026537 0.00833657)
(-0.000155854 -0.000371601 0.00259876)
(-4.62571e-07 0.000524375 0.0145535)
(-4.98952e-05 -3.48982e-05 0.00635018)
(0.000264803 -0.000271084 0.0109288)
(-0.000302453 -0.000270381 0.00942464)
(1.04236e-05 -0.000319304 0.00904204)
(-0.000516554 8.04337e-05 0.00475396)
(-0.000269384 5.88517e-05 0.00467655)
(0.000642428 -0.000317059 0.008434)
(4.62231e-05 -0.000579717 0.00523374)
(0.000385071 -0.00037094 0.0144775)
(-0.000178219 0.000357898 0.00427175)
(-0.000118541 0.000933547 0.0131017)
(0.00176825 -3.34041e-05 0.0151543)
(-0.000109347 6.24775e-05 -3.50855e-05)
(0.00151211 -0.000412671 0.0240006)
(-0.000791379 0.000227649 0.0100295)
(7.95311e-05 -0.000342344 0.0010949)
(-0.000418416 -0.000736591 0.00646116)
(-0.000296803 -0.000336741 0.00470205)
(0.00185301 -0.000307921 0.00973523)
(0.00106019 -0.00152552 0.00974908)
(-0.000463038 -0.000689653 0.00257319)
(-0.000642436 0.00038838 0.00669695)
(-0.000134345 -0.000150744 0.0020131)
(-0.000263097 -0.00108722 0.00265366)
(7.3786e-05 -0.000374018 0.00557423)
(-0.000298277 0.000375924 0.00323503)
(-0.000235303 0.000244452 0.00152348)
(0.000248771 1.74288e-06 -9.07048e-05)
(0.00120105 -0.00139585 0.00526965)
(-0.00031464 -0.00047955 0.00297838)
(-0.000810222 6.11313e-06 0.0064002)
(-0.000100937 0.000215358 0.00782759)
(-0.00363 -0.00796925 0.00277456)
(-0.00114497 -0.00175089 0.00485731)
(-0.000809935 -0.00136022 0.00820008)
(-9.18889e-06 0.000734949 0.0060794)
(-0.000246523 -8.38768e-05 0.00309053)
(-0.000462249 -0.000612506 0.00435165)
(0.000240308 -0.000490274 0.00113781)
(-0.000316118 0.00137949 0.00323606)
(-0.000465907 -0.00112183 0.00931712)
(-0.000463656 -0.000270424 0.00259613)
(0.000160469 -0.000176377 0.00569057)
(0.00120033 -0.00179388 0.00297336)
(3.28636e-05 -0.00181275 0.00355529)
(-0.000326327 -0.00206127 0.0159123)
(0.00160478 0.00230884 0.00596269)
(0.00048431 0.000706623 0.00979098)
(0.000140248 0.000422319 0.00849511)
(-0.000691209 0.000256373 0.00798703)
(-0.000359333 0.000428437 0.00949428)
(0.000310266 0.000597449 0.0089343)
(6.12633e-05 -0.000295295 0.00224925)
(-0.000359262 -6.64149e-05 0.00422595)
(-0.000276178 0.000113628 0.00264628)
(0.000291441 0.000920033 0.0110762)
(-0.000363753 0.000841869 0.0149476)
(-0.000369961 -0.000400587 0.00713611)
(7.98222e-05 -7.09074e-07 0.00220343)
(0.00111305 0.000291894 0.013501)
(-0.00124562 3.04855e-05 0.0243692)
(-0.00177802 5.14545e-05 0.00381405)
(0.000692598 0.000340597 0.00214392)
(4.22951e-05 0.000586705 0.00195727)
(0.00040829 0.000875314 0.00136428)
(0.000494854 0.000654198 0.0017644)
(0.00040794 0.000858588 0.00192733)
(0.000237411 -3.42405e-05 0.00153627)
(0.000680014 -0.000432131 0.000732271)
(0.000588835 0.000185296 0.00114912)
(4.96091e-05 0.000527324 0.00108812)
(-0.000418466 -0.000408855 0.00170706)
(0.000638553 -0.00143975 0.00205658)
(0.00143887 -0.000214224 0.00136179)
(0.000336866 -0.000103799 0.00101909)
(-0.00112297 0.00031589 0.00125439)
(0.000836926 0.000500115 0.00146303)
(0.00186089 0.000343376 0.00102638)
(-0.000131358 -0.000578422 0.000752618)
(0.000124521 0.000296038 0.00464208)
(0.000226365 0.000331075 0.00457146)
(0.000204636 0.00022988 0.00440863)
(0.000157846 0.000233427 0.00428545)
(0.000133923 7.78777e-05 0.00444829)
(0.000260985 -6.34314e-05 0.00417357)
(0.000220449 8.06688e-05 0.00399536)
(3.5113e-05 0.000141287 0.00382603)
(-4.23999e-05 2.13617e-05 0.00474364)
(0.000232861 -0.000195935 0.00495979)
(0.000407194 7.07312e-06 0.00426613)
(8.47522e-05 -6.69091e-07 0.00387342)
(-0.000131123 0.00019198 0.00482801)
(0.000243614 0.000200515 0.00534234)
(0.000409554 0.000142444 0.00412855)
(-7.96195e-05 -9.45237e-05 0.00388214)
(9.96909e-05 0.00016382 0.00391479)
(0.000141173 0.000154916 0.00385422)
(0.00013129 0.000125829 0.00380658)
(8.30943e-05 0.000128219 0.00376168)
(8.99246e-05 9.59293e-05 0.00384611)
(0.000139941 5.20988e-05 0.00376684)
(0.000129795 7.81575e-05 0.00370733)
(4.9573e-05 8.65941e-05 0.00365942)
(3.25716e-05 6.87572e-05 0.00391353)
(0.000124916 7.55532e-06 0.00394801)
(0.000165428 4.32109e-05 0.00378476)
(5.37062e-05 2.96405e-05 0.00369232)
(3.70324e-06 0.000104752 0.00387969)
(0.000114728 8.59078e-05 0.00395131)
(0.000152233 6.22084e-05 0.00373048)
(7.90611e-07 -1.21827e-06 0.00368314)
(7.13883e-05 9.45526e-05 0.00392591)
(8.90494e-05 8.41974e-05 0.00389576)
(8.53387e-05 7.16849e-05 0.00386172)
(6.2409e-05 6.74048e-05 0.00383611)
(6.24763e-05 7.6744e-05 0.00388959)
(8.19664e-05 6.03212e-05 0.0038593)
(7.89854e-05 5.91901e-05 0.00382332)
(4.87246e-05 5.51788e-05 0.00379905)
(4.23011e-05 6.45987e-05 0.00389625)
(7.21983e-05 4.48214e-05 0.00389331)
(7.99643e-05 4.5126e-05 0.00383679)
(4.31768e-05 3.6347e-05 0.00380396)
(2.82437e-05 6.60663e-05 0.0038766)
(6.26489e-05 5.30031e-05 0.00388582)
(7.09089e-05 4.29893e-05 0.00382006)
(2.66377e-05 2.75587e-05 0.00380262)
(4.96816e-05 5.97445e-05 0.00391085)
(5.73694e-05 5.36846e-05 0.00389286)
(5.56352e-05 4.74219e-05 0.00387175)
(4.47698e-05 4.40318e-05 0.00385365)
(4.43817e-05 5.63507e-05 0.0038913)
(5.21844e-05 4.88133e-05 0.00387569)
(5.08599e-05 4.47733e-05 0.00385602)
(3.87901e-05 4.07363e-05 0.00384134)
(3.57378e-05 5.12764e-05 0.00388382)
(4.61698e-05 4.28763e-05 0.0038753)
(4.7456e-05 3.91889e-05 0.00385332)
(3.44667e-05 3.43061e-05 0.00383871)
(2.80204e-05 4.72221e-05 0.00387179)
(4.02135e-05 4.03168e-05 0.00386786)
(4.25075e-05 3.55272e-05 0.00384591)
(2.87149e-05 3.10639e-05 0.00383623)
(3.4458e-05 3.98943e-05 0.00389955)
(3.81031e-05 3.67203e-05 0.00388818)
(3.7377e-05 3.34857e-05 0.0038752)
(3.20101e-05 3.13154e-05 0.00386228)
(3.16405e-05 4.04269e-05 0.00388772)
(3.50826e-05 3.66276e-05 0.00387804)
(3.44508e-05 3.36795e-05 0.00386667)
(2.90163e-05 3.10117e-05 0.00385693)
(2.74341e-05 3.85237e-05 0.00387918)
(3.15712e-05 3.43666e-05 0.00387205)
(3.16963e-05 3.15227e-05 0.00386128)
(2.64159e-05 2.87658e-05 0.00385275)
(2.31925e-05 3.51391e-05 0.00387058)
(2.81532e-05 3.14773e-05 0.00386554)
(2.89849e-05 2.89756e-05 0.00385571)
(2.40277e-05 2.71511e-05 0.00384896)
(2.40097e-05 2.74835e-05 0.00389156)
(2.59507e-05 2.58614e-05 0.00388411)
(2.56942e-05 2.41816e-05 0.00387572)
(2.2825e-05 2.29124e-05 0.00386602)
(2.25803e-05 2.88924e-05 0.00388388)
(2.4318e-05 2.69188e-05 0.00387742)
(2.40166e-05 2.51476e-05 0.00387026)
(2.11903e-05 2.35377e-05 0.00386335)
(2.04194e-05 2.83553e-05 0.00387698)
(2.23374e-05 2.61566e-05 0.00387168)
(2.22693e-05 2.43815e-05 0.00386528)
(1.96435e-05 2.27434e-05 0.00385944)
(1.80873e-05 2.62367e-05 0.00387055)
(2.0392e-05 2.42228e-05 0.00386632)
(2.07009e-05 2.27802e-05 0.00386059)
(1.83981e-05 2.17014e-05 0.00385555)
(1.68295e-05 1.92579e-05 0.00388593)
(1.79782e-05 1.84373e-05 0.0038809)
(1.79161e-05 1.75617e-05 0.00387519)
(1.62556e-05 1.68447e-05 0.00386757)
(1.61329e-05 2.06705e-05 0.00388076)
(1.71231e-05 1.96346e-05 0.0038763)
(1.69691e-05 1.86223e-05 0.00387148)
(1.53103e-05 1.76605e-05 0.00386638)
(1.50004e-05 2.06969e-05 0.00387561)
(1.60145e-05 1.94934e-05 0.00387175)
(1.59113e-05 1.84227e-05 0.00386746)
(1.43596e-05 1.73942e-05 0.0038632)
(1.37076e-05 1.94928e-05 0.00387081)
(1.48822e-05 1.83362e-05 0.00386751)
(1.49435e-05 1.74268e-05 0.00386363)
(1.35827e-05 1.66492e-05 0.00385982)
(1.18521e-05 1.36153e-05 0.00388187)
(1.25831e-05 1.3206e-05 0.00387838)
(1.25914e-05 1.27478e-05 0.00387432)
(1.15637e-05 1.23456e-05 0.0038681)
(1.15326e-05 1.4806e-05 0.00387832)
(1.21433e-05 1.42613e-05 0.00387518)
(1.20527e-05 1.36852e-05 0.0038718)
(1.09938e-05 1.30996e-05 0.00386793)
(1.09359e-05 1.50372e-05 0.00387457)
(1.15183e-05 1.43633e-05 0.00387175)
(1.14077e-05 1.37096e-05 0.00386872)
(1.03872e-05 1.3034e-05 0.00386554)
(1.02078e-05 1.43922e-05 0.00387099)
(1.08394e-05 1.36985e-05 0.00386848)
(1.07789e-05 1.30906e-05 0.0038657)
(9.85311e-06 1.24978e-05 0.00386283)
(8.3645e-06 9.65735e-06 0.00387893)
(8.8489e-06 9.4587e-06 0.00387645)
(8.87649e-06 9.21814e-06 0.00387345)
(8.20882e-06 8.9905e-06 0.00386819)
(8.23475e-06 1.05962e-05 0.00387646)
(8.62667e-06 1.03109e-05 0.00387422)
(8.56416e-06 9.97909e-06 0.00387179)
(7.85333e-06 9.61281e-06 0.00386879)
(7.92242e-06 1.08745e-05 0.00387373)
(8.26975e-06 1.0491e-05 0.00387167)
(8.16262e-06 1.0083e-05 0.00386948)
(7.45418e-06 9.62632e-06 0.00386708)
(7.50544e-06 1.05484e-05 0.00387107)
(7.85207e-06 1.01191e-05 0.00386918)
(7.74096e-06 9.70093e-06 0.00386716)
(7.07286e-06 9.25003e-06 0.00386499)
(5.89173e-06 6.83276e-06 0.0038768)
(6.21842e-06 6.74157e-06 0.003875)
(6.24569e-06 6.61542e-06 0.0038727)
(5.79935e-06 6.48416e-06 0.00386811)
(5.85374e-06 7.54612e-06 0.00387508)
(6.10912e-06 7.39855e-06 0.00387345)
(6.06106e-06 7.20465e-06 0.00387167)
(5.57215e-06 6.9706e-06 0.00386928)
(5.69384e-06 7.80597e-06 0.00387308)
(5.90293e-06 7.58543e-06 0.00387156)
(5.80647e-06 7.32633e-06 0.00386996)
(5.30431e-06 7.01384e-06 0.00386811)
(5.45363e-06 7.65272e-06 0.0038711)
(5.64155e-06 7.3834e-06 0.00386968)
(5.52e-06 7.09433e-06 0.00386819)
(5.03048e-06 6.75833e-06 0.00386654)
(4.11206e-06 4.78314e-06 0.00387528)
(4.3326e-06 4.746e-06 0.00387394)
(4.35344e-06 4.68061e-06 0.00387212)
(4.05225e-06 4.60398e-06 0.00386799)
(4.11482e-06 5.30869e-06 0.00387407)
(4.28158e-06 5.23458e-06 0.00387287)
(4.24298e-06 5.12055e-06 0.00387154)
(3.90547e-06 4.96974e-06 0.00386958)
(4.03621e-06 5.52561e-06 0.00387259)
(4.16218e-06 5.39846e-06 0.00387146)
(4.08051e-06 5.23318e-06 0.00387027)
(3.72488e-06 5.02012e-06 0.00386882)
(3.89879e-06 5.46236e-06 0.0038711)
(3.99764e-06 5.29355e-06 0.00387003)
(3.88658e-06 5.09586e-06 0.00386891)
(3.53087e-06 4.85251e-06 0.00386764)
(2.80305e-06 3.2655e-06 0.00387422)
(2.94938e-06 3.25427e-06 0.00387319)
(2.96311e-06 3.22135e-06 0.00387168)
(2.76233e-06 3.17675e-06 0.00386787)
(2.82022e-06 3.63821e-06 0.00387336)
(2.92776e-06 3.60288e-06 0.00387246)
(2.89726e-06 3.53634e-06 0.00387142)
(2.66837e-06 3.44029e-06 0.00386976)
(2.78377e-06 3.80525e-06 0.00387225)
(2.85933e-06 3.73254e-06 0.00387139)
(2.79473e-06 3.62831e-06 0.00387047)
(2.54848e-06 3.48619e-06 0.0038693)
(2.7062e-06 3.78618e-06 0.0038711)
(2.75663e-06 3.68171e-06 0.00387028)
(2.66613e-06 3.54982e-06 0.00386943)
(2.41517e-06 3.38038e-06 0.00386841)
(1.80787e-06 2.1082e-06 0.00387351)
(1.9001e-06 2.10772e-06 0.00387268)
(1.9081e-06 2.09205e-06 0.00387139)
(1.78062e-06 2.06685e-06 0.00386777)
(1.82608e-06 2.35581e-06 0.00387289)
(1.89237e-06 2.34016e-06 0.00387218)
(1.87019e-06 2.30261e-06 0.00387134)
(1.7231e-06 2.24417e-06 0.00386987)
(1.81049e-06 2.47321e-06 0.00387202)
(1.85436e-06 2.43264e-06 0.00387133)
(1.80809e-06 2.36941e-06 0.00387061)
(1.64735e-06 2.27951e-06 0.00386962)
(1.76773e-06 2.47281e-06 0.00387111)
(1.79232e-06 2.41021e-06 0.00387045)
(1.72694e-06 2.32672e-06 0.00386977)
(1.56109e-06 2.21618e-06 0.00386893)
(1.01866e-06 1.19422e-06 0.00387307)
(1.06985e-06 1.19639e-06 0.00387237)
(1.07436e-06 1.18961e-06 0.0038712)
(1.00358e-06 1.1765e-06 0.00386771)
(1.03152e-06 1.33746e-06 0.0038726)
(1.06769e-06 1.33113e-06 0.003872)
(1.05454e-06 1.31183e-06 0.00387129)
(9.72217e-07 1.28002e-06 0.00386994)
(1.02549e-06 1.40804e-06 0.00387187)
(1.04831e-06 1.38719e-06 0.0038713)
(1.02077e-06 1.3527e-06 0.00387069)
(9.29738e-07 1.30237e-06 0.00386981)
(1.00364e-06 1.41259e-06 0.00387111)
(1.01447e-06 1.37875e-06 0.00387056)
(9.75318e-07 1.33203e-06 0.00386998)
(8.80685e-07 1.26897e-06 0.00386924)
(4.23324e-07 5.27736e-07 0.00387285)
(4.45694e-07 5.27906e-07 0.0038722)
(4.48904e-07 5.23847e-07 0.0038711)
(4.2085e-07 5.16263e-07 0.00386767)
(4.28212e-07 5.92412e-07 0.00387245)
(4.43636e-07 5.88859e-07 0.00387191)
(4.38914e-07 5.79326e-07 0.00387125)
(4.05651e-07 5.64023e-07 0.00386996)
(4.25096e-07 6.26071e-07 0.0038718)
(4.34248e-07 6.16296e-07 0.00387128)
(4.22917e-07 6.00124e-07 0.00387073)
(3.8557e-07 5.76788e-07 0.00386991)
(4.15214e-07 6.3075e-07 0.00387111)
(4.18619e-07 6.15434e-07 0.00387061)
(4.01814e-07 5.93967e-07 0.00387009)
(3.62633e-07 5.65066e-07 0.00386941)
(0.000451947 -0.000390959 0.00785115)
(-3.79321e-05 0.000301873 0.0038525)
(0.000257191 0.000424359 0.00372884)
(0.000730661 3.30858e-05 0.00563716)
(0.000271247 -7.05568e-06 0.00463206)
(0.000652916 -9.85373e-05 0.00737035)
(0.000307769 0.000665864 0.00994724)
(0.000428169 -0.00035812 0.00598729)
(-0.000413922 0.00021412 0.00633509)
(0.000118021 -0.00014095 0.00280996)
(0.00120678 -0.000759522 0.00759668)
(0.00058183 -0.00124667 0.00824598)
(0.000132558 -3.05477e-05 0.00687867)
(-0.000187949 0.00045125 0.00686175)
(0.000166928 -0.00114607 0.00594417)
(9.9646e-05 -0.000376092 0.00201237)
(-0.000413001 0.000655523 0.00618627)
(0.000947713 -0.000244596 0.00899251)
(0.000349652 -0.000492647 0.00727656)
(0.000102784 -0.00057711 0.0117638)
(-0.000387189 0.000549352 0.00580892)
(-1.89977e-05 -0.000148815 0.00878696)
(0.000301938 -0.000323317 0.00539672)
(0.000516335 -0.000434422 0.00560957)
(0.000181994 -7.73763e-05 0.0080732)
(-8.92552e-05 -1.14471e-05 0.00646996)
(-0.000270198 -3.47165e-05 0.00797807)
(0.000420278 0.000472094 0.00661616)
(-0.000929926 -2.18274e-05 0.00967872)
(-1.31328e-05 -0.000355835 0.00385211)
(0.000297009 0.000364708 0.00679208)
(0.00064977 0.000625449 0.00782727)
(-0.000352971 0.000200782 0.00621089)
(0.000565307 -0.000132669 0.00926187)
(2.43819e-05 -2.12607e-05 0.00770183)
(0.000234169 -0.000244926 0.0103187)
(-6.9248e-05 0.000674845 0.00811155)
(0.000377032 -6.9919e-06 0.00920626)
(0.000209817 -3.43301e-05 0.013408)
(0.000267051 -0.00045904 0.0111913)
(4.00002e-07 1.3779e-05 0.00956292)
(-7.95581e-05 0.000192068 0.00787058)
(-6.90105e-05 0.000368943 0.0104194)
(2.45377e-05 4.73396e-05 0.00477373)
(-3.42472e-05 -6.56531e-05 0.00092848)
(0.000869405 0.000967557 0.0141699)
(1.40904e-05 9.19861e-05 0.00305239)
(-0.000492029 0.000587715 0.0166818)
(-5.43572e-05 -7.39857e-06 0.00226727)
(5.0831e-05 -0.000189611 0.011857)
(7.38172e-05 -0.00038792 0.00759833)
(-0.000224817 -0.000513545 0.0163055)
(-2.68489e-05 -6.75984e-05 0.00367914)
(-0.000323769 -0.000224615 0.00945338)
(-7.4906e-05 -0.00012981 0.00891044)
(-9.66115e-05 0.000285599 0.00473115)
(6.33699e-05 -0.000254861 0.0136508)
(-2.39563e-05 0.000234522 0.00680862)
(0.000179855 0.000448447 0.00880114)
(-0.000299491 0.000261075 0.00506329)
(0.000571525 -0.000541357 0.00675788)
(-3.68603e-05 -5.87891e-05 0.00239296)
(-1.52333e-05 -3.27293e-05 0.0126899)
(-0.000221783 -0.000191573 0.00591149)
(-5.89605e-05 0.00052806 0.00563472)
(-0.000244871 0.000190402 0.00969172)
(-0.000156364 0.000286543 0.0114103)
(0.000304956 0.00121006 0.0113383)
(0.00011433 -9.64124e-06 0.00922109)
(-0.000600055 0.000260067 0.00840275)
(-7.89823e-05 0.000324023 0.00764576)
(-0.000113109 0.000432639 0.00656481)
(3.88238e-06 -0.000680315 0.0116061)
(-7.4091e-05 -6.40906e-05 0.00577444)
(-0.000206252 2.36939e-05 0.0131715)
(-2.98691e-05 -3.9444e-05 0.00990949)
(-0.000106442 -1.79142e-05 0.00570144)
(-0.000646597 -0.000711715 0.0158201)
(-9.57473e-05 -9.54251e-06 0.00270356)
(0.000584448 0.000757987 0.0174667)
(5.08099e-05 4.05452e-05 0.000223731)
(0.000382181 0.0013431 0.00816847)
(0.000204713 0.000314104 0.00382806)
(0.000674648 0.000182598 0.00769746)
(0.000166182 0.00384594 0.00951536)
(-0.000673877 0.00115887 0.00564347)
(-0.000758981 0.00100373 0.00653149)
(0.00042625 0.00114803 0.00703841)
(-0.000112976 0.000551918 0.00391673)
(-0.000482974 0.000197178 0.00610977)
(-0.000477761 0.00100934 0.00510515)
(-6.80846e-05 0.000223104 0.0045427)
(0.00011389 -0.000145071 0.00381773)
(-0.000536312 -0.00038406 0.00290943)
(-0.000695789 -0.000184575 0.00385864)
(0.000268847 -0.000148937 0.00418272)
(0.00445371 0.00187646 0.0198394)
(-0.00363226 -0.000651958 0.00375443)
(-0.000439974 -7.83194e-05 0.00479372)
(3.44274e-05 -0.000196175 0.00786165)
(-0.00417655 0.000117932 0.009229)
(-0.000204972 0.000815904 0.00775719)
(0.000304777 0.000350056 0.00229591)
(-0.000106014 0.000230433 0.00257363)
(-0.000992539 -0.000361792 0.00672826)
(0.000996908 0.00103696 0.00532871)
(-4.7048e-05 0.000183913 0.00750807)
(0.000329701 -0.000340995 0.00855491)
(-0.0013113 -0.000723504 0.00696267)
(-0.00330417 -0.00044498 0.00824848)
(-0.00163665 0.000761271 0.0041292)
(-0.000755824 -0.000907782 0.00596385)
(0.000604571 -0.000219395 0.00426708)
(-0.00026594 -0.000238626 0.0106581)
(-0.000143868 -0.000187428 0.00544495)
(-0.000289089 -5.06883e-05 0.00866526)
(-0.000324063 -0.000306102 0.01131)
(0.000165855 -6.34444e-05 0.00686428)
(0.000184191 -0.000242275 0.00603613)
(-0.000172963 -0.000137211 0.00699607)
(-0.000275258 -0.000156245 0.00892824)
(3.06707e-05 -7.59543e-05 0.00866845)
(2.10168e-05 -0.000100936 0.00852086)
(-2.33964e-05 -6.16129e-05 0.0097784)
(-0.000441929 5.8407e-05 0.0106606)
(-2.38569e-06 0.000683984 0.0136793)
(-6.3587e-06 0.00048678 0.00833329)
(-0.00013012 0.000279497 0.00988975)
(0.000859692 -0.000183355 0.00172213)
(0.00046165 0.000425747 0.00181951)
(0.000344676 9.53123e-05 0.00131645)
(-0.00012383 8.12346e-05 0.00201014)
(0.000854137 3.5523e-05 0.00243153)
(0.000694247 0.000449641 0.00156931)
(0.000347178 -4.66198e-05 0.00126881)
(3.72044e-06 0.000102034 0.0017828)
(0.000521993 0.000196811 0.00216985)
(0.000626853 -0.000200255 0.00169484)
(0.000388769 -0.000159803 0.0014931)
(0.000223972 0.000119827 0.00198156)
(4.03186e-05 0.000203004 0.00255435)
(0.000555355 0.000157368 0.00252949)
(0.000631609 0.000160745 0.00178605)
(0.000330337 0.000429784 0.00198626)
(0.000290282 -6.84807e-05 0.00457111)
(0.000270514 0.000131278 0.00458198)
(0.000191756 6.27114e-05 0.0040118)
(2.63365e-05 4.19917e-05 0.00426329)
(0.000322714 3.34734e-06 0.00488891)
(0.000355968 0.000160148 0.00446109)
(0.000207296 4.05764e-05 0.00412069)
(5.32544e-05 6.34403e-05 0.00427822)
(0.00024875 0.000111534 0.00477108)
(0.000350675 4.17199e-05 0.0045292)
(0.000232791 1.29757e-05 0.00426035)
(0.000100658 8.37961e-05 0.00436337)
(0.000125357 0.00017589 0.00486078)
(0.000318254 0.000165644 0.00484373)
(0.000299723 9.1258e-05 0.00442176)
(0.000153902 0.000135883 0.00437848)
(0.000165542 1.21685e-05 0.00380277)
(0.000167269 7.74658e-05 0.00376887)
(0.000108287 5.46017e-05 0.00356851)
(3.76236e-05 5.27001e-05 0.00360128)
(0.000175491 5.21824e-05 0.00398763)
(0.000187654 0.000100671 0.00384108)
(0.000114499 5.80104e-05 0.00368463)
(4.24871e-05 7.41987e-05 0.00368969)
(0.000155739 8.71392e-05 0.00398623)
(0.000190915 7.09231e-05 0.00387841)
(0.000130867 4.73691e-05 0.00375278)
(6.32818e-05 7.93745e-05 0.00374546)
(0.000115688 0.00012397 0.00400615)
(0.000174384 0.000107678 0.00395104)
(0.000151783 7.8991e-05 0.00381571)
(8.55466e-05 0.000101125 0.00377061)
(9.23417e-05 1.60653e-05 0.00383407)
(0.000103168 4.09038e-05 0.00378478)
(7.72344e-05 3.95015e-05 0.00368452)
(4.43339e-05 4.06985e-05 0.0036736)
(9.67121e-05 4.01212e-05 0.00394681)
(0.000109161 5.60887e-05 0.00387427)
(8.20718e-05 4.52156e-05 0.00378983)
(4.85249e-05 5.01207e-05 0.00376758)
(9.21566e-05 6.11456e-05 0.00396768)
(0.000110173 5.79927e-05 0.00390883)
(8.84274e-05 4.81627e-05 0.00384304)
(5.62542e-05 5.53945e-05 0.00382099)
(8.04154e-05 8.1239e-05 0.00396645)
(0.000102467 7.30926e-05 0.00392867)
(9.31228e-05 6.16639e-05 0.00387152)
(6.41293e-05 6.38433e-05 0.00384342)
(5.49744e-05 1.22081e-05 0.0037997)
(6.34214e-05 2.41683e-05 0.00376007)
(5.18862e-05 2.78368e-05 0.0037)
(3.54777e-05 3.06594e-05 0.00366589)
(5.75867e-05 2.80967e-05 0.00390384)
(6.60338e-05 3.4823e-05 0.00386135)
(5.51491e-05 3.34031e-05 0.00380733)
(3.86408e-05 3.58197e-05 0.00376768)
(5.7288e-05 4.14938e-05 0.00393255)
(6.64999e-05 4.11691e-05 0.00389841)
(5.81134e-05 3.78808e-05 0.00385793)
(4.27506e-05 3.92199e-05 0.00382586)
(5.38189e-05 5.31425e-05 0.00393036)
(6.30965e-05 4.97905e-05 0.00390647)
(5.91068e-05 4.52104e-05 0.00387619)
(4.59526e-05 4.3913e-05 0.00385122)
(3.45823e-05 8.38469e-06 0.00377352)
(4.01343e-05 1.52854e-05 0.00374491)
(3.52641e-05 1.95523e-05 0.00370381)
(2.65961e-05 2.23856e-05 0.00366725)
(3.64875e-05 1.90665e-05 0.00387686)
(4.16703e-05 2.28887e-05 0.00384927)
(3.72902e-05 2.41226e-05 0.00381121)
(2.88465e-05 2.55899e-05 0.00377062)
(3.72403e-05 2.80028e-05 0.00390896)
(4.21498e-05 2.85878e-05 0.00388795)
(3.88993e-05 2.79852e-05 0.00386111)
(3.12401e-05 2.80949e-05 0.00383033)
(3.62803e-05 3.55052e-05 0.0039099)
(4.06789e-05 3.43525e-05 0.00389504)
(3.91236e-05 3.26505e-05 0.00387694)
(3.27665e-05 3.12107e-05 0.00385653)
(2.27003e-05 5.65923e-06 0.00375573)
(2.61952e-05 1.00853e-05 0.0037346)
(2.41871e-05 1.37232e-05 0.00370286)
(1.93699e-05 1.61986e-05 0.00366786)
(2.41196e-05 1.29241e-05 0.00385956)
(2.72532e-05 1.5529e-05 0.00384005)
(2.54737e-05 1.72661e-05 0.00381038)
(2.09052e-05 1.84147e-05 0.00377186)
(2.497e-05 1.90814e-05 0.00389373)
(2.77501e-05 1.99188e-05 0.0038798)
(2.64845e-05 2.02789e-05 0.00386023)
(2.24179e-05 2.03294e-05 0.00383213)
(2.47957e-05 2.42467e-05 0.00389736)
(2.71451e-05 2.40154e-05 0.00388775)
(2.65951e-05 2.35129e-05 0.00387575)
(2.32862e-05 2.25401e-05 0.00385861)
(1.5305e-05 3.84432e-06 0.00374395)
(1.75371e-05 6.83534e-06 0.00372738)
(1.674e-05 9.6559e-06 0.0037007)
(1.39426e-05 1.16757e-05 0.00366793)
(1.63478e-05 8.84731e-06 0.00384828)
(1.83009e-05 1.07363e-05 0.00383333)
(1.75828e-05 1.23286e-05 0.00380835)
(1.49754e-05 1.32888e-05 0.00377218)
(1.70653e-05 1.31657e-05 0.00388375)
(1.8752e-05 1.39841e-05 0.00387382)
(1.82722e-05 1.46082e-05 0.00385835)
(1.59778e-05 1.47566e-05 0.00383262)
(1.7142e-05 1.68284e-05 0.00388919)
(1.85341e-05 1.6954e-05 0.00388268)
(1.83809e-05 1.69318e-05 0.00387404)
(1.65346e-05 1.63578e-05 0.00385919)
(1.04842e-05 2.64194e-06 0.00373599)
(1.1958e-05 4.71299e-06 0.00372218)
(1.16692e-05 6.81348e-06 0.00369845)
(9.98126e-06 8.39316e-06 0.00366759)
(1.12417e-05 6.12465e-06 0.00384067)
(1.25112e-05 7.50947e-06 0.00382841)
(1.22336e-05 8.79782e-06 0.00380622)
(1.06746e-05 9.58691e-06 0.00377195)
(1.17995e-05 9.17871e-06 0.00387696)
(1.28851e-05 9.87793e-06 0.00386942)
(1.27204e-05 1.04974e-05 0.0038564)
(1.13559e-05 1.07027e-05 0.00383247)
(1.19466e-05 1.18022e-05 0.00388358)
(1.28348e-05 1.2039e-05 0.00387897)
(1.28295e-05 1.21866e-05 0.00387234)
(1.17355e-05 1.18663e-05 0.00385906)
(7.2444e-06 1.83193e-06 0.00373053)
(8.24716e-06 3.28037e-06 0.00371843)
(8.16794e-06 4.8126e-06 0.00369651)
(7.11702e-06 6.01202e-06 0.00366708)
(7.79019e-06 4.2725e-06 0.00383542)
(8.64514e-06 5.28193e-06 0.00382483)
(8.55126e-06 6.26817e-06 0.00380438)
(7.58375e-06 6.89415e-06 0.00377151)
(8.20972e-06 6.43799e-06 0.00387224)
(8.93796e-06 6.99568e-06 0.00386618)
(8.89858e-06 7.52118e-06 0.00385472)
(8.05235e-06 7.73176e-06 0.00383206)
(8.36203e-06 8.31886e-06 0.00387963)
(8.95453e-06 8.56387e-06 0.00387623)
(8.99725e-06 8.75001e-06 0.00387087)
(8.31731e-06 8.57507e-06 0.00385869)
(5.01729e-06 1.2738e-06 0.00372674)
(5.71179e-06 2.2882e-06 0.00371572)
(5.71468e-06 3.38956e-06 0.00369497)
(5.04444e-06 4.27864e-06 0.00366657)
(5.40746e-06 2.98496e-06 0.00383176)
(5.99535e-06 3.71302e-06 0.00382223)
(5.97696e-06 4.44375e-06 0.00380292)
(5.35946e-06 4.92368e-06 0.00377103)
(5.71696e-06 4.51579e-06 0.00386893)
(6.2162e-06 4.9423e-06 0.00386383)
(6.22432e-06 5.35636e-06 0.00385337)
(5.6832e-06 5.54244e-06 0.00383162)
(5.85123e-06 5.85746e-06 0.00387683)
(6.25476e-06 6.07178e-06 0.00387422)
(6.30632e-06 6.24461e-06 0.0038697)
(5.86934e-06 6.14927e-06 0.00385827)
(3.45403e-06 8.80054e-07 0.00372411)
(3.9357e-06 1.58497e-06 0.00371378)
(3.96562e-06 2.36333e-06 0.00369381)
(3.53268e-06 3.00629e-06 0.00366612)
(3.72941e-06 2.06971e-06 0.00382921)
(4.13501e-06 2.58647e-06 0.00382037)
(4.14488e-06 3.11346e-06 0.0038018)
(3.74485e-06 3.46931e-06 0.00377061)
(3.95318e-06 3.14009e-06 0.00386661)
(4.29653e-06 3.45552e-06 0.00386214)
(4.31915e-06 3.76659e-06 0.00385235)
(3.96758e-06 3.91673e-06 0.00383122)
(4.06215e-06 4.08518e-06 0.00387486)
(4.33763e-06 4.25739e-06 0.00387278)
(4.38322e-06 4.39946e-06 0.0038688)
(4.09751e-06 4.34735e-06 0.0038579)
(2.32881e-06 5.9492e-07 0.0037223)
(2.65651e-06 1.0737e-06 0.00371243)
(2.68979e-06 1.60826e-06 0.00369296)
(2.41163e-06 2.05743e-06 0.00366577)
(2.51817e-06 1.40275e-06 0.00382746)
(2.79301e-06 1.75915e-06 0.00381907)
(2.81021e-06 2.12615e-06 0.00380099)
(2.55229e-06 2.37944e-06 0.00377028)
(2.6749e-06 2.13254e-06 0.00386501)
(2.90679e-06 2.35667e-06 0.00386095)
(2.92988e-06 2.57968e-06 0.00385161)
(2.7025e-06 2.69255e-06 0.00383091)
(2.75741e-06 2.78091e-06 0.00387349)
(2.94219e-06 2.91027e-06 0.00387176)
(2.9772e-06 3.01804e-06 0.00386816)
(2.79108e-06 2.9897e-06 0.00385761)
(1.48964e-06 3.81433e-07 0.00372111)
(1.70085e-06 6.89276e-07 0.00371152)
(1.72774e-06 1.03548e-06 0.00369237)
(1.55606e-06 1.33003e-06 0.00366551)
(1.61257e-06 9.00914e-07 0.0038263)
(1.78915e-06 1.13245e-06 0.0038182)
(1.80465e-06 1.37235e-06 0.00380044)
(1.64497e-06 1.54077e-06 0.00377004)
(1.71561e-06 1.3713e-06 0.00386394)
(1.86414e-06 1.52e-06 0.00386015)
(1.88226e-06 1.66887e-06 0.0038511)
(1.74107e-06 1.74686e-06 0.00383068)
(1.77277e-06 1.79131e-06 0.00387258)
(1.89043e-06 1.88044e-06 0.00387108)
(1.91451e-06 1.95514e-06 0.00386771)
(1.79809e-06 1.93999e-06 0.00385739)
(8.34832e-07 2.1525e-07 0.00372038)
(9.54015e-07 3.88309e-07 0.00371097)
(9.71164e-07 5.83836e-07 0.00369201)
(8.77254e-07 7.51575e-07 0.00366535)
(9.04652e-07 5.09165e-07 0.00382559)
(1.00412e-06 6.40056e-07 0.00381766)
(1.0146e-06 7.76262e-07 0.00380009)
(9.27144e-07 8.73054e-07 0.00376988)
(9.63395e-07 7.74722e-07 0.0038633)
(1.04691e-06 8.59825e-07 0.00385966)
(1.05861e-06 9.45556e-07 0.00385078)
(9.81199e-07 9.91711e-07 0.00383053)
(9.96913e-07 1.01288e-06 0.00387202)
(1.06275e-06 1.06498e-06 0.00387066)
(1.07729e-06 1.1089e-06 0.00386744)
(1.01316e-06 1.10132e-06 0.00385726)
(3.45818e-07 9.18151e-08 0.00371999)
(3.9773e-07 1.64014e-07 0.00371067)
(4.05826e-07 2.4591e-07 0.00369181)
(3.66298e-07 3.15586e-07 0.00366525)
(3.77278e-07 2.22151e-07 0.00382522)
(4.21631e-07 2.77153e-07 0.00381738)
(4.27786e-07 3.34729e-07 0.00379991)
(3.91597e-07 3.75107e-07 0.00376979)
(4.01639e-07 3.40792e-07 0.00386296)
(4.39033e-07 3.76147e-07 0.0038594)
(4.45837e-07 4.1176e-07 0.00385061)
(4.14636e-07 4.30431e-07 0.00383045)
(4.14956e-07 4.46318e-07 0.00387173)
(4.44359e-07 4.66938e-07 0.00387043)
(4.5214e-07 4.83767e-07 0.00386729)
(4.27014e-07 4.79259e-07 0.00385718)
(0.00150252 -0.00036416 0.00865661)
(0.000587071 -0.000609119 0.00514863)
(0.000828962 -0.000493521 0.00547566)
(0.00117815 8.72854e-05 0.00898843)
(0.000269627 -0.00016191 0.00609304)
(0.000583705 -4.17803e-05 0.00510521)
(0.000279356 -6.04048e-05 0.00123284)
(0.000670162 -0.000636584 0.00460098)
(0.000635172 -0.000246063 0.0046504)
(0.001543 8.1148e-05 0.00644155)
(0.000875335 0.000184946 0.00855585)
(-0.000179779 -0.000373834 0.00580326)
(8.98336e-05 4.90178e-05 0.00242976)
(0.00139875 -0.000310249 0.00688933)
(0.000903214 -4.05323e-05 0.0076261)
(-0.000220218 0.000498072 0.00738626)
(0.000152372 -2.11186e-05 0.00202141)
(-0.000288122 0.00141464 0.0129127)