/*--------------------------------*- C++ -*----------------------------------*\
| =========                 |                                                 |
| \\      /  F ield         | OpenFOAM: The Open Source CFD Toolbox           |
|  \\    /   O peration     | Version:  2506                                  |
|   \\  /    A nd           | Website:  www.openfoam.com                      |
|    \\/     M anipulation  |                                                 |
\*---------------------------------------------------------------------------*/
FoamFile
{
    version     2.0;
    format      ascii;
    arch        "LSB;label=32;scalar=64";
    class       volVectorField;
    location    "0.01";
    object      Us;
}
// * * * * * * * * * * * * * * * * * * * * * * * * * * * * * * * * * * * * * //

dimensions      [0 1 -1 0 0 0 0];

internalField   nonuniform List<vector> 
1152
(
(1.85025e-05 -5.38117e-05 1.73547e-05)
(-4.80006e-05 8.25978e-06 1.31418e-05)
(-3.50874e-05 -3.77168e-05 -3.81627e-05)
(-2.16822e-05 -2.6276e-05 3.34217e-05)
(-3.16771e-05 -2.55929e-05 4.44572e-05)
(5.21236e-06 -2.84825e-05 2.26424e-06)
(-1.79438e-05 -4.4636e-05 3.38731e-05)
(-9.37879e-06 -7.68956e-05 2.72261e-05)
(-3.01218e-05 -3.38556e-05 -7.21831e-07)
(-3.11148e-05 -3.67666e-05 -1.89701e-05)
(0.000274806 8.18751e-05 1.77806e-05)
(4.98199e-05 -3.30572e-05 2.17032e-05)
(4.18956e-06 1.43317e-05 3.45472e-06)
(-2.40599e-05 1.00096e-05 -2.154e-06)
(3.02651e-06 -7.2889e-05 1.00073e-06)
(1.90721e-05 -5.34788e-05 1.56932e-05)
(-5.91105e-05 -0.000105963 5.42643e-05)
(-5.38596e-05 -3.69023e-05 5.7884e-05)
(4.02232e-06 1.34979e-06 9.27435e-05)
(1.10215e-05 -1.20192e-05 0.000101428)
(-1.68432e-05 -7.85033e-05 7.14811e-05)
(-7.03917e-06 -7.17483e-05 5.80636e-05)
(-7.96489e-06 -2.19973e-05 8.79025e-05)
(3.1474e-05 -4.52848e-05 8.71855e-05)
(4.74555e-05 -6.7631e-05 -2.64734e-05)
(-1.18851e-05 -7.59318e-05 3.6019e-05)
(5.6069e-06 -9.93191e-05 3.59988e-05)
(4.26545e-05 -6.61817e-05 9.13592e-05)
(-4.19642e-05 -8.27263e-05 2.629e-05)
(-4.89356e-05 -5.6509e-05 1.36056e-06)
(-7.52774e-06 -8.5022e-05 1.21076e-05)
(1.99466e-05 -5.66069e-05 6.04391e-05)
(-9.22786e-05 -0.00010403 0.000138101)
(-7.61779e-05 -3.73634e-05 8.80901e-05)
(2.34967e-05 -2.38832e-05 0.000127158)
(1.29643e-05 -1.49652e-05 0.000164056)
(-0.000103956 -8.66551e-05 5.95566e-05)
(-7.44336e-05 -0.000103916 0.000105799)
(-3.06e-05 -6.26501e-05 0.000114089)
(1.25455e-08 -3.45811e-05 0.000161184)
(-0.000123483 -7.29482e-05 -2.98865e-07)
(-5.57917e-05 -6.64768e-05 5.34052e-05)
(-1.71588e-05 -7.10096e-05 9.45819e-05)
(-2.69461e-06 -7.30511e-05 0.000124293)
(-0.000120577 -4.2746e-05 -7.93024e-05)
(-4.93288e-05 -1.92702e-05 1.05436e-05)
(1.27986e-05 -8.8808e-05 4.1369e-05)
(4.30071e-05 -0.000112889 0.000101162)
(-6.70623e-05 -8.36379e-05 0.000151818)
(-8.92732e-05 -9.23094e-05 0.000109678)
(-7.49478e-05 -4.92379e-05 0.00015748)
(-1.20483e-05 -2.48305e-05 0.000220438)
(-0.000130953 -4.82769e-05 7.25569e-05)
(-5.69604e-05 -7.17714e-05 8.37378e-05)
(-1.34109e-05 -7.47221e-05 0.000149155)
(-2.02212e-05 -2.83195e-05 0.000189631)
(-0.000121123 -3.18822e-05 -8.85933e-05)
(-0.000113664 -3.67098e-05 -7.47821e-05)
(-6.2276e-05 -3.8869e-05 3.32821e-05)
(-5.24025e-05 -6.8663e-05 0.000118106)
(-0.000138125 2.42914e-05 -0.000137238)
(-0.000128752 2.0179e-05 -6.83114e-05)
(-3.01607e-05 6.21671e-06 -2.9644e-05)
(-7.12852e-05 -9.60656e-06 4.22599e-05)
(-7.11982e-05 -3.26954e-05 0.000114195)
(-3.79996e-05 -7.22933e-05 9.55816e-05)
(-0.000203765 -6.15254e-05 0.000148901)
(-0.000153502 -5.07976e-05 0.000264535)
(1.98586e-05 -0.000191914 -3.51726e-05)
(-2.26149e-05 -0.00012699 5.43179e-05)
(-8.89527e-05 -1.44196e-05 0.000110199)
(-0.000111379 -0.000127601 0.000257735)
(-0.000142315 5.97201e-05 -0.000466127)
(-5.27992e-05 5.50989e-05 -0.000321121)
(-7.02029e-05 -1.16093e-05 -8.69084e-05)
(-7.74726e-05 -0.000181658 4.20977e-05)
(-4.20533e-05 6.29606e-05 -0.000247065)
(-0.000123144 6.76637e-05 -0.000196009)
(-0.000154118 -4.30634e-05 -0.000119227)
(-0.00024193 -5.29038e-05 -0.000201859)
(6.60854e-05 -0.000176647 0.000262509)
(-0.000186847 -0.000406172 3.45649e-05)
(-0.000380032 -8.16394e-05 0.000282705)
(-0.000372678 -0.000165526 0.000349414)
(-0.00011241 -0.000923385 -0.000126755)
(-0.00064096 -0.00096814 -0.00034669)
(-0.000271735 0.000102741 -7.15087e-05)
(-0.000210836 -0.000201285 0.000265846)
(-0.000686149 -0.000769998 -0.00101927)
(-0.000390968 -0.000668762 -0.000427976)
(-0.00014592 1.45447e-05 -0.000388578)
(-0.000207014 0.000100312 -7.99635e-05)
(0.000206832 3.87231e-05 -0.000373825)
(-9.61806e-05 -0.000227735 7.11358e-06)
(-0.000269311 -0.000114803 -0.000203013)
(-0.000337187 1.8771e-06 -0.000283328)
(-0.000220517 0.000332585 4.0254e-05)
(-0.0039106 -0.00866327 -0.00129899)
(-0.000930255 -0.00192704 -0.00021859)
(-0.00065151 -0.00178194 -2.04144e-05)
(-0.000161543 0.000412877 -6.62771e-05)
(-0.000390913 -0.000145637 -0.000249053)
(-0.000175922 -0.000650681 -0.000227722)
(0.000309571 -0.000543425 -0.000372199)
(-0.00064791 0.00120812 -0.00142852)
(-0.000584655 0.000542047 -0.00113021)
(-0.000327668 -0.000100933 -0.000313443)
(1.72455e-05 0.000167023 -0.000224671)
(0.00100241 -0.00153553 0.000904888)
(0.00221683 -0.000573145 0.000178459)
(2.16324e-06 -0.000404603 -0.00011623)
(0.000835241 0.00281933 -0.0020147)
(0 0 0)
(0 0 0)
(0 0 0)
(0 0 0)
(0 0 0)
(0 0 0)
(0 0 0)
(0 0 0)
(0 0 0)
(0 0 0)
(0 0 0)
(0 0 0)
(0.00499201 0.00111727 -0.00216109)
(0.00959986 0.00268045 -0.00348692)
(0 0 0)
(0 0 0)
(0 0 0)
(0 0 0)
(0 0 0)
(0 0 0)
(0 0 0)
(0 0 0)
(0 0 0)
(0 0 0)
(0 0 0)
(0 0 0)
(0 0 0)
(0 0 0)
(0 0 0)
(0 0 0)
(0 0 0)
(0 0 0)
(0 0 0)
(0 0 0)
(0 0 0)
(0 0 0)
(0 0 0)
(0 0 0)
(0 0 0)
(0 0 0)
(0 0 0)
(0 0 0)
(0 0 0)
(0 0 0)
(0 0 0)
(0 0 0)
(0 0 0)
(0 0 0)
(0 0 0)
(0 0 0)
(0 0 0)
(0 0 0)
(0 0 0)
(0 0 0)
(0 0 0)
(0 0 0)
(0 0 0)
(0 0 0)
(0 0 0)
(0 0 0)
(0 0 0)
(0 0 0)
(0 0 0)
(0 0 0)
(0 0 0)
(0 0 0)
(0 0 0)
(0 0 0)
(0 0 0)
(0 0 0)
(0 0 0)
(0 0 0)
(0 0 0)
(0 0 0)
(0 0 0)
(0 0 0)
(0 0 0)
(0 0 0)
(0 0 0)
(0 0 0)
(0 0 0)
(0 0 0)
(0 0 0)
(0 0 0)
(0 0 0)
(0 0 0)
(0 0 0)
(0 0 0)
(0 0 0)
(0 0 0)
(0 0 0)
(0 0 0)
(0 0 0)
(0 0 0)
(0 0 0)
(0 0 0)
(0 0 0)
(0 0 0)
(0 0 0)
(0 0 0)
(0 0 0)
(0 0 0)
(0 0 0)
(0 0 0)
(0 0 0)
(0 0 0)
(0 0 0)
(0 0 0)
(0 0 0)
(0 0 0)
(0 0 0)
(0 0 0)
(0 0 0)
(0 0 0)
(0 0 0)
(0 0 0)
(0 0 0)
(0 0 0)
(0 0 0)
(0 0 0)
(0 0 0)
(0 0 0)
(0 0 0)
(0 0 0)
(0 0 0)
(0 0 0)
(0 0 0)
(0 0 0)
(0 0 0)
(0 0 0)
(0 0 0)
(0 0 0)
(0 0 0)
(0 0 0)
(0 0 0)
(0 0 0)
(0 0 0)
(0 0 0)
(0 0 0)
(0 0 0)
(0 0 0)
(0 0 0)
(0 0 0)
(0 0 0)
(0 0 0)
(0 0 0)
(0 0 0)
(0 0 0)
(0 0 0)
(0 0 0)
(0 0 0)
(0 0 0)
(0 0 0)
(0 0 0)
(0 0 0)
(0 0 0)
(0 0 0)
(0 0 0)
(0 0 0)
(0 0 0)
(0 0 0)
(0 0 0)
(0 0 0)
(0 0 0)
(0 0 0)
(0 0 0)
(0 0 0)
(0 0 0)
(0 0 0)
(0 0 0)
(0 0 0)
(0 0 0)
(0 0 0)
(0 0 0)
(0 0 0)
(0 0 0)
(0 0 0)
(0 0 0)
(0 0 0)
(0 0 0)
(0 0 0)
(0 0 0)
(0 0 0)
(0 0 0)
(0 0 0)
(0 0 0)
(0 0 0)
(0 0 0)
(0 0 0)
(0 0 0)
(0 0 0)
(0 0 0)
(0 0 0)
(0 0 0)
(0 0 0)
(0 0 0)
(0 0 0)
(0 0 0)
(0 0 0)
(0 0 0)
(0 0 0)
(0 0 0)
(0 0 0)
(0 0 0)
(0 0 0)
(0 0 0)
(0 0 0)
(0 0 0)
(0 0 0)
(0 0 0)
(0 0 0)
(0 0 0)
(0 0 0)
(0 0 0)
(0 0 0)
(0 0 0)
(0 0 0)
(0 0 0)
(0 0 0)
(0 0 0)
(0 0 0)
(0 0 0)
(0 0 0)
(0 0 0)
(0 0 0)
(0 0 0)
(0 0 0)
(0 0 0)
(0 0 0)
(0 0 0)
(0 0 0)
(0 0 0)
(0 0 0)
(0 0 0)
(0 0 0)
(0 0 0)
(0 0 0)
(0 0 0)
(0 0 0)
(0 0 0)
(0 0 0)
(0 0 0)
(0 0 0)
(0 0 0)
(0 0 0)
(0 0 0)
(0 0 0)
(0 0 0)
(0 0 0)
(0 0 0)
(0 0 0)
(0 0 0)
(0 0 0)
(0 0 0)
(0 0 0)
(0 0 0)
(0 0 0)
(0 0 0)
(0 0 0)
(0 0 0)
(0 0 0)
(0 0 0)
(0 0 0)
(0 0 0)
(0 0 0)
(0 0 0)
(0 0 0)
(0 0 0)
(0 0 0)
(0 0 0)
(0 0 0)
(0 0 0)
(8.8644e-06 9.59682e-05 6.38026e-06)
(1.88505e-05 7.01509e-05 8.30572e-06)
(-6.11721e-06 9.81901e-06 1.16037e-06)
(-9.26683e-06 -5.06963e-06 1.14081e-05)
(0.000135963 6.61656e-05 1.47784e-05)
(2.42633e-05 2.88527e-05 -1.59212e-06)
(-1.34429e-05 8.2768e-06 1.62088e-05)
(1.54273e-06 -4.01013e-06 1.93318e-05)
(-1.32351e-05 1.88882e-05 4.47738e-05)
(-2.20065e-05 1.51666e-05 1.48487e-05)
(-6.63284e-05 -0.000155159 3.38812e-05)
(2.80627e-06 -1.0177e-05 2.56187e-05)
(-4.50349e-05 -2.23219e-06 3.60747e-05)
(6.77593e-06 0.0003079 1.40609e-05)
(-0.000162417 -0.000396373 1.74772e-05)
(-7.07539e-06 -2.44759e-05 2.48073e-05)
(1.37824e-05 2.57108e-05 3.1552e-05)
(2.04245e-05 7.49722e-06 2.05865e-05)
(-3.74954e-06 7.96854e-06 5.2361e-05)
(-2.85243e-05 -2.25872e-05 8.76884e-06)
(3.57957e-06 1.2254e-05 7.12332e-05)
(3.01117e-05 3.86311e-05 5.88945e-05)
(-1.63398e-05 -5.77245e-06 9.31132e-05)
(-2.20205e-05 -2.16332e-05 4.78713e-05)
(-3.69196e-05 -4.41308e-05 7.07093e-05)
(-1.77492e-05 5.29393e-05 7.5824e-05)
(-3.24009e-05 2.99894e-05 8.56768e-05)
(-1.80279e-05 -1.78071e-05 7.40888e-05)
(-0.000104447 -0.000127741 0.000101437)
(3.47415e-06 -1.5845e-05 9.14314e-05)
(-3.92191e-05 2.89978e-05 9.8343e-05)
(-9.02403e-06 -8.438e-06 9.12496e-05)
(-2.24177e-05 -5.04097e-05 4.39431e-05)
(-3.3435e-05 -4.55657e-05 8.54799e-05)
(-7.10407e-05 -5.54397e-05 7.80365e-05)
(-2.39119e-05 -2.93805e-05 1.18747e-05)
(7.35416e-05 -7.73527e-05 6.93555e-05)
(2.30091e-05 -1.34131e-05 8.50865e-05)
(-3.02355e-06 -2.43769e-05 8.52999e-05)
(-2.35451e-06 -2.73032e-05 6.21711e-05)
(1.24065e-05 -9.96751e-05 9.45065e-05)
(1.83933e-05 -2.56536e-06 0.000145483)
(9.95769e-06 2.69849e-06 0.000166471)
(1.27086e-05 -1.96531e-05 0.000124821)
(-8.79903e-05 -0.000104102 0.000167642)
(-5.48587e-05 1.75106e-06 0.000116417)
(2.14697e-05 1.16591e-05 0.000173913)
(2.61685e-05 -1.41713e-05 0.000155084)
(-4.30432e-05 -2.59747e-05 0.00010275)
(-2.55567e-05 -4.22885e-05 9.43728e-05)
(-1.74717e-05 7.93193e-06 6.14836e-05)
(-1.39123e-06 -4.59205e-05 3.98226e-05)
(-4.02889e-05 -6.15073e-05 9.56091e-05)
(-4.3353e-05 -3.47798e-05 0.000140017)
(-5.41642e-05 -4.5613e-05 0.000108897)
(-3.20703e-05 -1.55925e-05 2.57905e-05)
(-2.45396e-05 -9.68428e-05 0.000129115)
(9.40219e-06 -2.56796e-05 0.000193276)
(2.8412e-05 -5.36099e-05 0.000230215)
(-0.000118629 -4.59804e-05 0.000155051)
(-6.22015e-05 -0.000123781 0.000204683)
(-2.9473e-05 -9.11423e-05 0.000210693)
(8.47347e-06 -2.2588e-05 0.000194249)
(1.59881e-05 -3.50434e-05 0.00027126)
(-4.79102e-05 1.88741e-05 0.00011873)
(4.64744e-05 -9.33624e-06 9.95114e-06)
(4.57579e-05 2.37236e-05 4.30325e-05)
(-6.69874e-06 3.05146e-05 0.000102745)
(-2.8924e-05 -2.84766e-05 0.0002023)
(7.78544e-05 -3.21611e-05 0.000108743)
(1.19832e-05 -6.90436e-06 0.000150385)
(-5.00474e-05 -3.36193e-05 0.000169723)
(-3.89925e-05 -8.72349e-05 0.000124722)
(-4.84727e-05 -0.000131095 0.000238865)
(-1.95983e-05 1.86864e-05 0.00033686)
(-7.61984e-05 -4.47518e-05 0.000302975)
(7.268e-05 -0.000118883 0.000164078)
(-5.80807e-05 -0.000177088 0.000250199)
(-8.38804e-05 -6.42564e-05 0.000274939)
(5.61238e-05 -0.000129916 0.000335083)
(5.43957e-05 -5.24913e-06 5.86192e-05)
(6.61127e-05 -5.13259e-05 0.000102845)
(2.50748e-05 4.17566e-05 0.000136938)
(-0.000240196 -0.000230882 6.44613e-05)
(-2.75928e-05 -1.18882e-05 0.000249908)
(9.06398e-05 -1.16829e-05 0.000100363)
(-8.02341e-05 -1.42044e-05 0.000313791)
(-0.000146558 -0.000113798 0.00024461)
(-1.45626e-05 -4.92609e-05 0.000277166)
(2.07195e-05 -0.000146168 0.00023388)
(-4.66808e-05 -3.16252e-05 0.000339096)
(-8.20105e-05 -0.000127883 0.000453237)
(-1.02335e-05 2.78307e-05 0.000135739)
(-0.000274912 -0.000145241 0.000135777)
(-0.00036477 -0.000122192 6.02639e-05)
(2.27331e-05 -0.00028726 0.000404889)
(0.00452017 0.00334167 -0.00188556)
(-0.00350576 -0.000720219 -0.00101373)
(-0.000485339 -5.52747e-05 -0.000549534)
(0.000257753 -0.000351558 -0.000177065)
(-0.00463928 0.00105318 -1.55072e-05)
(-0.000234453 0.000796195 -0.000197375)
(0.000294655 0.000402395 -0.000373347)
(-0.000110709 0.000249681 8.27164e-05)
(-0.000825523 -0.000430455 0.000471443)
(0.001273 0.00150617 -0.000587765)
(-1.49039e-06 0.000102075 0.000154923)
(8.04607e-05 -0.000326726 5.18995e-05)
(-0.000518357 -0.000173325 0.000376169)
(-0.00375721 -0.00113581 -0.000712323)
(-0.0019137 0.000287193 -0.000891454)
(-0.00071955 -0.00104291 1.34415e-05)
(0 0 0)
(0 0 0)
(0 0 0)
(0 0 0)
(0 0 0)
(0 0 0)
(0 0 0)
(0 0 0)
(0 0 0)
(0 0 0)
(0 0 0)
(0 0 0)
(0 0 0)
(0 0 0)
(0 0 0)
(0 0 0)
(0 0 0)
(0 0 0)
(0 0 0)
(0 0 0)
(0 0 0)
(0 0 0)
(0 0 0)
(0 0 0)
(0 0 0)
(0 0 0)
(0 0 0)
(0 0 0)
(0 0 0)
(0 0 0)
(0 0 0)
(0 0 0)
(0 0 0)
(0 0 0)
(0 0 0)
(0 0 0)
(0 0 0)
(0 0 0)
(0 0 0)
(0 0 0)
(0 0 0)
(0 0 0)
(0 0 0)
(0 0 0)
(0 0 0)
(0 0 0)
(0 0 0)
(0 0 0)
(0 0 0)
(0 0 0)
(0 0 0)
(0 0 0)
(0 0 0)
(0 0 0)
(0 0 0)
(0 0 0)
(0 0 0)
(0 0 0)
(0 0 0)
(0 0 0)
(0 0 0)
(0 0 0)
(0 0 0)
(0 0 0)
(0 0 0)
(0 0 0)
(0 0 0)
(0 0 0)
(0 0 0)
(0 0 0)
(0 0 0)
(0 0 0)
(0 0 0)
(0 0 0)
(0 0 0)
(0 0 0)
(0 0 0)
(0 0 0)
(0 0 0)
(0 0 0)
(0 0 0)
(0 0 0)
(0 0 0)
(0 0 0)
(0 0 0)
(0 0 0)
(0 0 0)
(0 0 0)
(0 0 0)
(0 0 0)
(0 0 0)
(0 0 0)
(0 0 0)
(0 0 0)
(0 0 0)
(0 0 0)
(0 0 0)
(0 0 0)
(0 0 0)
(0 0 0)
(0 0 0)
(0 0 0)
(0 0 0)
(0 0 0)
(0 0 0)
(0 0 0)
(0 0 0)
(0 0 0)
(0 0 0)
(0 0 0)
(0 0 0)
(0 0 0)
(0 0 0)
(0 0 0)
(0 0 0)
(0 0 0)
(0 0 0)
(0 0 0)
(0 0 0)
(0 0 0)
(0 0 0)
(0 0 0)
(0 0 0)
(0 0 0)
(0 0 0)
(0 0 0)
(0 0 0)
(0 0 0)
(0 0 0)
(0 0 0)
(0 0 0)
(0 0 0)
(0 0 0)
(0 0 0)
(0 0 0)
(0 0 0)
(0 0 0)
(0 0 0)
(0 0 0)
(0 0 0)
(0 0 0)
(0 0 0)
(0 0 0)
(0 0 0)
(0 0 0)
(0 0 0)
(0 0 0)
(0 0 0)
(0 0 0)
(0 0 0)
(0 0 0)
(0 0 0)
(0 0 0)
(0 0 0)
(0 0 0)
(0 0 0)
(0 0 0)
(0 0 0)
(0 0 0)
(0 0 0)
(0 0 0)
(0 0 0)
(0 0 0)
(0 0 0)
(0 0 0)
(0 0 0)
(0 0 0)
(0 0 0)
(0 0 0)
(0 0 0)
(0 0 0)
(0 0 0)
(0 0 0)
(0 0 0)
(0 0 0)
(0 0 0)
(0 0 0)
(0 0 0)
(0 0 0)
(0 0 0)
(0 0 0)
(0 0 0)
(0 0 0)
(0 0 0)
(0 0 0)
(0 0 0)
(0 0 0)
(0 0 0)
(0 0 0)
(0 0 0)
(0 0 0)
(0 0 0)
(0 0 0)
(0 0 0)
(0 0 0)
(0 0 0)
(0 0 0)
(0 0 0)
(0 0 0)
(0 0 0)
(0 0 0)
(0 0 0)
(0 0 0)
(0 0 0)
(0 0 0)
(0 0 0)
(0 0 0)
(0 0 0)
(0 0 0)
(0 0 0)
(0 0 0)
(0 0 0)
(0 0 0)
(0 0 0)
(0 0 0)
(0 0 0)
(0 0 0)
(0 0 0)
(0 0 0)
(0 0 0)
(0 0 0)
(0 0 0)
(0 0 0)
(0 0 0)
(0 0 0)
(0 0 0)
(0 0 0)
(0 0 0)
(0 0 0)
(0 0 0)
(0 0 0)
(0 0 0)
(0 0 0)
(0 0 0)
(0 0 0)
(0 0 0)
(0 0 0)
(0 0 0)
(0 0 0)
(0 0 0)
(0 0 0)
(0 0 0)
(0 0 0)
(0 0 0)
(0 0 0)
(0 0 0)
(0 0 0)
(0 0 0)
(0 0 0)
(0 0 0)
(0 0 0)
(0 0 0)
(0 0 0)
(0 0 0)
(0 0 0)
(0 0 0)
(0 0 0)
(0 0 0)
(0 0 0)
(0 0 0)
(0 0 0)
(0 0 0)
(0 0 0)
(0 0 0)
(0 0 0)
(0 0 0)
(0 0 0)
(0 0 0)
(0 0 0)
(0 0 0)
(0 0 0)
(0 0 0)
(-2.26332e-05 -6.17194e-06 2.19388e-05)
(-6.91949e-06 -1.03601e-05 3.27682e-05)
(-1.68398e-05 -7.40549e-06 3.18941e-05)
(-4.04555e-06 4.0392e-07 1.65318e-05)
(0.000130647 8.40183e-05 2.68651e-05)
(-1.25903e-05 -3.20599e-05 2.96432e-05)
(-2.1004e-05 9.17971e-06 2.45203e-05)
(-2.17113e-05 -0.000285201 6.9806e-05)
(0.000111252 3.07588e-05 3.2269e-05)
(6.21753e-05 -4.77996e-06 4.47466e-05)
(0.000235382 5.58e-05 2.73254e-05)
(-0.000108269 -8.66108e-05 3.44744e-05)
(2.27932e-07 -4.02216e-05 3.92055e-05)
(2.12304e-05 -7.48775e-05 4.18778e-05)
(8.16871e-05 -1.277e-05 3.86932e-05)
(-0.000339863 5.90508e-05 -2.15411e-06)
(-6.05854e-06 -2.77292e-05 9.17126e-05)
(-8.68736e-06 -3.14132e-05 8.83639e-05)
(-1.24648e-05 -1.90603e-05 8.16015e-05)
(-1.04169e-05 8.07046e-07 5.19986e-05)
(2.07096e-05 -3.93575e-05 7.22511e-05)
(2.04308e-06 -3.60614e-05 0.000108366)
(-1.80283e-05 -2.00429e-05 8.12235e-05)
(-1.54595e-05 5.13583e-06 6.32665e-05)
(2.09826e-05 -4.04507e-05 8.05719e-05)
(-1.10634e-06 -3.17421e-05 0.000135522)
(-2.50496e-05 -3.7656e-05 9.60884e-05)
(-2.6133e-06 3.12006e-06 5.7253e-05)
(2.16722e-05 -3.16472e-05 0.00010236)
(1.02631e-05 -1.69437e-05 0.00014246)
(-3.63019e-06 -5.44664e-05 0.000132211)
(4.71382e-07 -1.44559e-05 5.22414e-05)
(-1.91898e-05 -3.58248e-05 0.000149623)
(-1.48676e-05 -4.92491e-05 0.000141458)
(-1.74094e-05 -1.42507e-05 9.3091e-05)
(-1.92124e-06 1.29286e-06 6.36772e-05)
(-2.95576e-06 -3.71483e-05 0.000162054)
(-8.80788e-06 -2.80207e-05 0.000137904)
(5.59127e-06 -1.33095e-05 0.0001076)
(6.97508e-06 2.9309e-06 6.51557e-05)
(1.09455e-05 -2.6475e-05 0.000156505)
(-1.77696e-05 -2.66472e-05 0.000171402)
(-1.43782e-05 -3.93278e-05 0.000149308)
(2.49516e-05 -3.04589e-06 0.000112888)
(3.54508e-05 -4.26447e-05 0.000147964)
(2.57852e-05 1.17145e-06 0.00019129)
(3.38392e-05 -5.00725e-05 0.000179669)
(7.9532e-05 5.8978e-06 0.000118739)
(-1.03892e-05 -1.19428e-05 0.000196637)
(-2.76025e-05 -3.92454e-05 0.000165099)
(-1.78559e-05 -4.14147e-05 0.000150798)
(-2.78694e-05 -3.37095e-05 0.000142028)
(0.000106413 -6.55862e-05 0.000148614)
(1.39702e-06 2.6203e-05 0.000178047)
(-1.64381e-05 -8.32445e-06 0.000157173)
(8.79502e-06 -1.47706e-05 8.1619e-05)
(-1.75992e-05 -4.38593e-05 0.000153621)
(5.41831e-05 -3.44518e-05 0.000175251)
(3.2201e-05 5.42283e-06 0.000157868)
(4.46331e-05 3.07152e-05 0.000129386)
(-6.74718e-05 5.63044e-05 0.000122945)
(1.69694e-05 -4.57676e-05 0.000185207)
(4.95002e-06 -2.28281e-05 0.000252108)
(-1.54593e-05 1.80772e-05 0.000188121)
(-7.74794e-05 -0.000129262 0.000239673)
(-7.53563e-05 -8.94269e-05 0.000183808)
(-0.000107658 -4.90693e-05 0.000212189)
(-8.75497e-05 -4.50912e-05 0.00019294)
(-2.30663e-05 -0.000141325 0.000226154)
(-3.47657e-05 -0.000105107 0.000144917)
(-9.75629e-05 -2.13678e-05 0.000137821)
(-5.21217e-05 -1.844e-05 0.00012756)
(-0.000131711 -0.00012059 7.54031e-05)
(2.03812e-05 3.89097e-05 0.000139839)
(-1.01792e-05 -2.77546e-05 0.000230519)
(-6.06854e-05 -3.89469e-05 0.000155671)
(-0.000223291 -5.71949e-05 -0.000164633)
(1.36708e-07 -1.7481e-05 6.69088e-05)
(1.32455e-06 -3.57165e-05 0.000317249)
(-3.86233e-05 -3.67051e-05 0.000381779)
(-0.000220372 -0.000285772 0.000361219)
(-0.000163384 -0.000105085 0.00020654)
(-0.000146052 -7.21934e-05 0.000207844)
(-0.000106773 -4.24052e-05 6.31909e-05)
(-4.23829e-05 -0.000221936 0.000253739)
(-0.000187102 -0.000219654 0.000152728)
(-0.000149873 -0.000137334 0.000151229)
(-1.10236e-05 -3.08199e-05 8.12222e-05)
(-2.92317e-05 -0.000178726 0.000159928)
(0.000129619 -0.000543084 6.7207e-05)
(-8.93861e-05 -7.80415e-05 -3.77727e-06)
(7.03323e-05 -6.78804e-05 -2.0165e-05)
(3.48426e-05 -7.7549e-05 9.12346e-05)
(-0.000177661 -0.000250657 -1.12945e-05)
(-0.00015018 -0.000160982 0.000108424)
(-5.58604e-05 -0.000110978 0.000276921)
(-0.000757926 -0.00107938 0.00025721)
(0.000156505 -0.000939281 0.000577275)
(0.000479518 -0.000132254 0.000122272)
(1.38982e-05 2.28828e-05 4.99255e-05)
(-0.000744659 -0.000321514 0.000272948)
(0.000124575 -0.000202529 0.000227885)
(0.000365807 -0.000113016 -0.000189013)
(0.000253416 0.000152855 0.000101953)
(-0.000385276 -0.000376147 0.000719684)
(-0.000189962 -0.00128853 0.00104488)
(-0.0029774 0.0030808 0.00137181)
(-0.000360951 0.00159952 -0.000689832)
(0.00263852 0.00573145 -0.00303813)
(-0.00105535 -0.00112089 3.86702e-05)
(-0.000508082 -0.000542208 9.1496e-05)
(0.000740174 0.000402186 0.000154562)
(0 0 0)
(0 0 0)
(0 0 0)
(0 0 0)
(0 0 0)
(0 0 0)
(0 0 0)
(0 0 0)
(0 0 0)
(0 0 0)
(0 0 0)
(0 0 0)
(0 0 0)
(0 0 0)
(0 0 0)
(0 0 0)
(0 0 0)
(0 0 0)
(0 0 0)
(0 0 0)
(0 0 0)
(0 0 0)
(0 0 0)
(0 0 0)
(0 0 0)
(0 0 0)
(0 0 0)
(0 0 0)
(0 0 0)
(0 0 0)
(0 0 0)
(0 0 0)
(0 0 0)
(0 0 0)
(0 0 0)
(0 0 0)
(0 0 0)
(0 0 0)
(0 0 0)
(0 0 0)
(0 0 0)
(0 0 0)
(0 0 0)
(0 0 0)
(0 0 0)
(0 0 0)
(0 0 0)
(0 0 0)
(0 0 0)
(0 0 0)
(0 0 0)
(0 0 0)
(0 0 0)
(0 0 0)
(0 0 0)
(0 0 0)
(0 0 0)
(0 0 0)
(0 0 0)
(0 0 0)
(0 0 0)
(0 0 0)
(0 0 0)
(0 0 0)
(0 0 0)
(0 0 0)
(0 0 0)
(0 0 0)
(0 0 0)
(0 0 0)
(0 0 0)
(0 0 0)
(0 0 0)
(0 0 0)
(0 0 0)
(0 0 0)
(0 0 0)
(0 0 0)
(0 0 0)
(0 0 0)
(0 0 0)
(0 0 0)
(0 0 0)
(0 0 0)
(0 0 0)
(0 0 0)
(0 0 0)
(0 0 0)
(0 0 0)
(0 0 0)
(0 0 0)
(0 0 0)
(0 0 0)
(0 0 0)
(0 0 0)
(0 0 0)
(0 0 0)
(0 0 0)
(0 0 0)
(0 0 0)
(0 0 0)
(0 0 0)
(0 0 0)
(0 0 0)
(0 0 0)
(0 0 0)
(0 0 0)
(0 0 0)
(0 0 0)
(0 0 0)
(0 0 0)
(0 0 0)
(0 0 0)
(0 0 0)
(0 0 0)
(0 0 0)
(0 0 0)
(0 0 0)
(0 0 0)
(0 0 0)
(0 0 0)
(0 0 0)
(0 0 0)
(0 0 0)
(0 0 0)
(0 0 0)
(0 0 0)
(0 0 0)
(0 0 0)
(0 0 0)
(0 0 0)
(0 0 0)
(0 0 0)
(0 0 0)
(0 0 0)
(0 0 0)
(0 0 0)
(0 0 0)
(0 0 0)
(0 0 0)
(0 0 0)
(0 0 0)
(0 0 0)
(0 0 0)
(0 0 0)
(0 0 0)
(0 0 0)
(0 0 0)
(0 0 0)
(0 0 0)
(0 0 0)
(0 0 0)
(0 0 0)
(0 0 0)
(0 0 0)
(0 0 0)
(0 0 0)
(0 0 0)
(0 0 0)
(0 0 0)
(0 0 0)
(0 0 0)
(0 0 0)
(0 0 0)
(0 0 0)
(0 0 0)
(0 0 0)
(0 0 0)
(0 0 0)
(0 0 0)
(0 0 0)
(0 0 0)
(0 0 0)
(0 0 0)
(0 0 0)
(0 0 0)
(0 0 0)
(0 0 0)
(0 0 0)
(0 0 0)
(0 0 0)
(0 0 0)
(0 0 0)
(0 0 0)
(0 0 0)
(0 0 0)
(0 0 0)
(0 0 0)
(0 0 0)
(0 0 0)
(0 0 0)
(0 0 0)
(0 0 0)
(0 0 0)
(0 0 0)
(0 0 0)
(0 0 0)
(0 0 0)
(0 0 0)
(0 0 0)
(0 0 0)
(0 0 0)
(0 0 0)
(0 0 0)
(0 0 0)
(0 0 0)
(0 0 0)
(0 0 0)
(0 0 0)
(0 0 0)
(0 0 0)
(0 0 0)
(0 0 0)
(0 0 0)
(0 0 0)
(0 0 0)
(0 0 0)
(0 0 0)
(0 0 0)
(0 0 0)
(0 0 0)
(0 0 0)
(0 0 0)
(0 0 0)
(0 0 0)
(0 0 0)
(0 0 0)
(0 0 0)
(0 0 0)
(0 0 0)
(0 0 0)
(0 0 0)
(0 0 0)
(0 0 0)
(0 0 0)
(0 0 0)
(0 0 0)
(0 0 0)
(0 0 0)
(0 0 0)
(0 0 0)
(0 0 0)
(0 0 0)
(0 0 0)
(0 0 0)
(0 0 0)
(0 0 0)
(0 0 0)
(0 0 0)
(0 0 0)
(0 0 0)
(0 0 0)
(0 0 0)
(0 0 0)
(0 0 0)
(0 0 0)
(0 0 0)
(0 0 0)
(0 0 0)
(0 0 0)
(0 0 0)
(0 0 0)
(0 0 0)
(0 0 0)
(0 0 0)
(0 0 0)
(0 0 0)
(0 0 0)
(0 0 0)
(0 0 0)
(0 0 0)
(0 0 0)
)
;

boundaryField
{
    inlet
    {
        type            zeroGradient;
    }
    outlet
    {
        type            zeroGradient;
    }
    wall
    {
        type            zeroGradient;
    }
    procBoundary1to0
    {
        type            processor;
        value           nonuniform List<vector> 
192
(
(-6.34057e-05 -5.6131e-05 3.07115e-05)
(-4.04748e-05 -4.71132e-05 1.84199e-05)
(-5.78555e-05 -5.10145e-05 -1.53585e-05)
(-7.17638e-05 -3.87708e-05 3.54555e-06)
(-8.63149e-05 -9.61687e-05 9.46651e-05)
(-3.51542e-05 -8.75851e-05 5.86216e-05)
(-2.99922e-05 -6.57595e-05 -1.25198e-06)
(-7.16048e-05 -6.62497e-05 3.32654e-05)
(-9.95209e-05 -8.97318e-05 0.000176871)
(-9.63515e-05 -6.70992e-05 5.37257e-05)
(-0.000109573 -2.19923e-05 -6.2194e-06)
(-0.000116201 8.62351e-06 -2.1036e-05)
(-9.89904e-05 -6.50685e-05 0.000203695)
(-0.000124343 -3.11489e-05 0.000133653)
(-0.000138531 -5.42649e-06 -6.32214e-06)
(-0.000154752 3.55833e-05 -5.26905e-05)
(-6.26739e-05 -4.02959e-05 0.000207589)
(-6.67977e-05 5.3842e-05 0.000199126)
(-0.000246127 0.000212609 -0.000125433)
(-4.77067e-05 0.000157386 -0.000184138)
(4.74801e-05 0.000175558 0.000250713)
(7.60812e-05 0.000151099 5.37627e-05)
(-2.54867e-05 0.000283664 -0.000196162)
(8.92568e-05 0.000184689 -0.000130686)
(0.000139923 0.000317912 0.000270727)
(0.000872144 0.000314531 0.000197885)
(0.000263537 0.000417436 0.000354348)
(0.00176696 0.00239799 -0.00113908)
(0 0 0)
(0 0 0)
(0 0 0)
(0 0 0)
(0 0 0)
(0 0 0)
(0 0 0)
(0 0 0)
(0 0 0)
(0 0 0)
(0 0 0)
(0 0 0)
(0 0 0)
(0 0 0)
(0 0 0)
(0 0 0)
(0 0 0)
(0 0 0)
(0 0 0)
(0 0 0)
(0 0 0)
(0 0 0)
(0 0 0)
(0 0 0)
(0 0 0)
(0 0 0)
(0 0 0)
(0 0 0)
(0 0 0)
(0 0 0)
(0 0 0)
(0 0 0)
(0 0 0)
(0 0 0)
(0 0 0)
(0 0 0)
(0 0 0)
(0 0 0)
(0 0 0)
(0 0 0)
(0 0 0)
(0 0 0)
(0 0 0)
(0 0 0)
(0 0 0)
(0 0 0)
(0 0 0)
(0 0 0)
(0 0 0)
(0 0 0)
(0 0 0)
(0 0 0)
(0 0 0)
(0 0 0)
(0 0 0)
(0 0 0)
(0 0 0)
(0 0 0)
(0 0 0)
(0 0 0)
(0 0 0)
(0 0 0)
(0 0 0)
(0 0 0)
(0 0 0)
(0 0 0)
(0 0 0)
(0 0 0)
(-2.99324e-06 1.57232e-05 1.43937e-05)
(-2.19671e-05 -1.99318e-05 7.95801e-05)
(-7.8247e-05 -2.87082e-05 4.22044e-05)
(-6.82126e-05 -2.94365e-05 3.00556e-05)
(-1.36947e-05 4.25774e-06 6.73485e-05)
(-3.25482e-05 -2.41426e-05 0.000129979)
(-0.000116643 -3.67091e-05 0.000114463)
(-0.000131459 -7.56266e-05 0.000108371)
(-2.4229e-05 1.15588e-06 0.000102281)
(-4.4271e-05 -1.55863e-05 0.000108068)
(-6.21681e-05 -9.28734e-05 0.000143361)
(-7.87095e-05 -8.70214e-05 0.000170105)
(-4.41312e-05 -2.09623e-05 0.00019967)
(-1.31196e-05 -4.7781e-05 0.000153084)
(-2.74158e-05 -6.52343e-05 0.000198416)
(-8.96731e-05 -3.59664e-05 0.000233799)
(-1.77305e-05 -3.57293e-05 0.000320118)
(-2.79066e-05 -9.04502e-05 0.000266897)
(1.36426e-05 -2.0267e-05 0.000229654)
(3.70609e-05 -7.05587e-06 0.000288129)
(5.75595e-05 7.40547e-06 0.000267559)
(0.00020386 -6.79171e-05 0.000498982)
(0.000109407 4.21166e-05 0.000409712)
(0.000171878 0.000142686 0.000407744)
(-0.000621829 0.00381545 -0.00465169)
(0.000950865 -0.00109 0.000471312)
(-0.00258636 -0.000130098 -4.3945e-05)
(0.000268362 0.000153518 0.000463352)
(0 0 0)
(0 0 0)
(0 0 0)
(0 0 0)
(0 0 0)
(0 0 0)
(0 0 0)
(0 0 0)
(0 0 0)
(0 0 0)
(0 0 0)
(0 0 0)
(0 0 0)
(0 0 0)
(0 0 0)
(0 0 0)
(0 0 0)
(0 0 0)
(0 0 0)
(0 0 0)
(0 0 0)
(0 0 0)
(0 0 0)
(0 0 0)
(0 0 0)
(0 0 0)
(0 0 0)
(0 0 0)
(0 0 0)
(0 0 0)
(0 0 0)
(0 0 0)
(0 0 0)
(0 0 0)
(0 0 0)
(0 0 0)
(0 0 0)
(0 0 0)
(0 0 0)
(0 0 0)
(0 0 0)
(0 0 0)
(0 0 0)
(0 0 0)
(0 0 0)
(0 0 0)
(0 0 0)
(0 0 0)
(0 0 0)
(0 0 0)
(0 0 0)
(0 0 0)
(0 0 0)
(0 0 0)
(0 0 0)
(0 0 0)
(0 0 0)
(0 0 0)
(0 0 0)
(0 0 0)
(0 0 0)
(0 0 0)
(0 0 0)
(0 0 0)
(0 0 0)
(0 0 0)
(0 0 0)
(0 0 0)
)
;
    }
    procBoundary1to3
    {
        type            processor;
        value           nonuniform List<vector> 
192
(
(-9.46673e-05 -1.32017e-05 3.64537e-06)
(-5.09669e-05 -5.36368e-05 -6.65154e-06)
(5.18989e-05 -3.78685e-05 7.66459e-06)
(3.17173e-05 -3.25778e-05 3.18288e-05)
(-4.21401e-05 -0.000158885 -0.000121847)
(-4.70924e-05 -7.06868e-05 1.77128e-05)
(-7.11314e-06 -0.000103491 4.53974e-05)
(9.5039e-06 -7.13484e-05 6.96275e-05)
(-0.000118052 1.9926e-05 -1.74455e-05)
(-4.2355e-05 -4.11277e-05 -3.20545e-05)
(-5.11054e-05 -0.000103904 4.39916e-05)
(-3.62874e-07 -8.49171e-05 3.96763e-05)
(-0.000157379 6.48068e-05 -0.000118228)
(-6.36316e-05 1.35389e-05 -0.000103585)
(-2.1858e-05 -2.54215e-05 -7.85676e-05)
(-2.75711e-05 -4.52041e-06 -5.51209e-05)
(-9.49343e-05 9.59425e-05 -0.000246156)
(-3.9175e-05 9.5406e-05 -0.000248148)
(-0.000162129 1.92311e-05 -0.000172697)
(-0.000177747 -4.36794e-05 -0.000222036)
(-4.21985e-05 -6.82086e-05 -0.000373836)
(-0.000112953 -7.81596e-05 -0.00031342)
(-0.000295235 -0.000149589 1.57e-05)
(-0.000354064 -0.000145613 -0.00033803)
(-0.00264835 -0.00213162 -0.00173464)
(-8.89491e-05 -0.000618659 -0.000229465)
(-0.00230648 -0.000118748 -0.000614037)
(8.09905e-06 1.47205e-05 -0.000407757)
(0 0 0)
(0 0 0)
(0 0 0)
(0 0 0)
(0 0 0)
(0 0 0)
(0 0 0)
(0 0 0)
(0 0 0)
(0 0 0)
(0 0 0)
(0 0 0)
(0 0 0)
(0 0 0)
(0 0 0)
(0 0 0)
(0 0 0)
(0 0 0)
(0 0 0)
(0 0 0)
(0 0 0)
(0 0 0)
(0 0 0)
(0 0 0)
(0 0 0)
(0 0 0)
(0 0 0)
(0 0 0)
(0 0 0)
(0 0 0)
(0 0 0)
(0 0 0)
(0 0 0)
(0 0 0)
(0 0 0)
(0 0 0)
(0 0 0)
(0 0 0)
(0 0 0)
(0 0 0)
(0 0 0)
(0 0 0)
(0 0 0)
(0 0 0)
(0 0 0)
(0 0 0)
(0 0 0)
(0 0 0)
(0 0 0)
(0 0 0)
(0 0 0)
(0 0 0)
(0 0 0)
(0 0 0)
(0 0 0)
(0 0 0)
(0 0 0)
(0 0 0)
(0 0 0)
(0 0 0)
(0 0 0)
(0 0 0)
(0 0 0)
(0 0 0)
(0 0 0)
(0 0 0)
(0 0 0)
(0 0 0)
(3.65458e-05 -4.43358e-05 2.86965e-05)
(-1.55951e-05 -3.63163e-05 3.37173e-05)
(-4.40645e-05 -0.000127022 1.40051e-05)
(-2.03799e-06 -2.32854e-06 4.66179e-06)
(1.98516e-05 -3.47085e-05 8.16197e-05)
(1.58589e-05 -3.38517e-05 0.000121121)
(5.84632e-06 -3.55225e-05 0.000115632)
(5.8708e-06 -1.96379e-05 3.56539e-05)
(5.60797e-05 -4.14204e-05 0.000149501)
(7.27933e-05 -2.66208e-05 0.000209301)
(2.43531e-05 -1.754e-05 0.000191284)
(2.31938e-05 -4.36758e-05 0.000142533)
(3.45028e-06 -2.50343e-05 9.1913e-05)
(6.15475e-05 -2.50208e-05 0.000130808)
(8.06071e-05 -5.33464e-05 0.000266858)
(-1.39037e-05 -2.19227e-05 0.00025454)
(-0.000127412 -3.64595e-05 -0.000136508)
(-0.000106756 2.74839e-05 7.59252e-05)
(7.62285e-06 -1.45509e-05 0.000383133)
(-1.44583e-05 -5.39161e-06 0.000270827)
(-8.39226e-05 -0.000198403 6.32701e-05)
(-0.000237602 -0.000178017 9.77407e-05)
(-0.000109234 -0.00011389 0.000461391)
(-1.29586e-05 -4.88262e-05 0.00030633)
(-0.00321292 0.00917362 -0.00190405)
(-0.00132718 0.0023615 -0.000598057)
(0.00376236 -0.0026213 -0.00430841)
(-0.000357328 0.00163892 -0.000378073)
(0 0 0)
(0 0 0)
(0 0 0)
(0 0 0)
(0 0 0)
(0 0 0)
(0 0 0)
(0 0 0)
(0 0 0)
(0 0 0)
(0 0 0)
(0 0 0)
(0 0 0)
(0 0 0)
(0 0 0)
(0 0 0)
(0 0 0)
(0 0 0)
(0 0 0)
(0 0 0)
(0 0 0)
(0 0 0)
(0 0 0)
(0 0 0)
(0 0 0)
(0 0 0)
(0 0 0)
(0 0 0)
(0 0 0)
(0 0 0)
(0 0 0)
(0 0 0)
(0 0 0)
(0 0 0)
(0 0 0)
(0 0 0)
(0 0 0)
(0 0 0)
(0 0 0)
(0 0 0)
(0 0 0)
(0 0 0)
(0 0 0)
(0 0 0)
(0 0 0)
(0 0 0)
(0 0 0)
(0 0 0)
(0 0 0)
(0 0 0)
(0 0 0)
(0 0 0)
(0 0 0)
(0 0 0)
(0 0 0)
(0 0 0)
(0 0 0)
(0 0 0)
(0 0 0)
(0 0 0)
(0 0 0)
(0 0 0)
(0 0 0)
(0 0 0)
(0 0 0)
(0 0 0)
(0 0 0)
(0 0 0)
)
;
    }
}


// ************************************************************************* //
