/*--------------------------------*- C++ -*----------------------------------*\
| =========                 |                                                 |
| \\      /  F ield         | OpenFOAM: The Open Source CFD Toolbox           |
|  \\    /   O peration     | Version:  2506                                  |
|   \\  /    A nd           | Website:  www.openfoam.com                      |
|    \\/     M anipulation  |                                                 |
\*---------------------------------------------------------------------------*/
FoamFile
{
    version     2.0;
    format      ascii;
    arch        "LSB;label=32;scalar=64";
    class       volScalarField;
    location    "0.01";
    object      voidfraction;
}
// * * * * * * * * * * * * * * * * * * * * * * * * * * * * * * * * * * * * * //

dimensions      [0 0 0 0 0 0 0];

internalField   nonuniform List<scalar> 
1152
(
0.525997
0.47333
0.452263
0.42593
0.444363
0.460163
0.38643
0.428563
0.44963
0.436463
0.415396
0.494397
0.404863
0.446997
0.51283
0.510197
0.404863
0.378529
0.38643
0.367996
0.396963
0.383796
0.38643
0.423296
0.412763
0.42593
0.407496
0.383796
0.399596
0.360096
0.315329
0.41803
0.48123
0.381163
0.396963
0.339029
0.365363
0.40223
0.43383
0.420663
0.389063
0.399596
0.404863
0.357463
0.412763
0.436463
0.460163
0.336396
0.341663
0.423296
0.38643
0.38643
0.373263
0.357463
0.462797
0.420663
0.404863
0.373263
0.378529
0.357463
0.346929
0.42593
0.42593
0.325862
0.43383
0.407496
0.415396
0.428563
0.423296
0.349563
0.352196
0.40223
0.412763
0.446997
0.373263
0.44963
0.462797
0.302162
0.483863
0.44173
0.362729
0.407496
0.41013
0.462797
0.475963
0.375896
0.404863
0.354829
0.404863
0.43383
0.38643
0.357463
0.346929
0.389063
0.43383
0.43383
0.715598
0.705065
0.660298
0.707698
0.662931
0.631331
0.655031
0.549697
0.641864
0.744565
0.652398
0.662931
0.510197
0.557597
0.852532
0.755098
1
1
1
1
1
1
1
1
1
1
1
1
0.997367
0.997367
1
1
1
1
1
1
1
1
1
1
1
1
1
1
1
1
1
1
1
1
1
1
1
1
1
1
1
1
1
1
1
1
1
1
1
1
1
1
1
1
1
1
1
1
1
1
1
1
1
1
1
1
1
1
1
1
1
1
1
1
1
1
1
1
1
1
1
1
1
1
1
1
1
1
1
1
1
1
1
1
1
1
1
1
1
1
1
1
1
1
1
1
1
1
1
1
1
1
1
1
1
1
1
1
1
1
1
1
1
1
1
1
1
1
1
1
1
1
1
1
1
1
1
1
1
1
1
1
1
1
1
1
1
1
1
1
1
1
1
1
1
1
1
1
1
1
1
1
1
1
1
1
1
1
1
1
1
1
1
1
1
1
1
1
1
1
1
1
1
1
1
1
1
1
1
1
1
1
1
1
1
1
1
1
1
1
1
1
1
1
1
1
1
1
1
1
1
1
1
1
1
1
1
1
1
1
1
1
1
1
1
1
1
1
1
1
1
1
1
1
1
1
1
1
1
1
1
1
1
1
1
1
1
1
1
1
1
1
1
1
1
1
1
1
1
1
1
1
1
1
1
1
1
1
1
1
1
1
0.534686
0.424475
0.428186
0.463137
0.444148
0.486223
0.534694
0.436882
0.48043
0.38746
0.49311
0.510388
0.486298
0.461327
0.473631
0.382276
0.416568
0.424475
0.415141
0.457741
0.412498
0.431251
0.408014
0.399753
0.416313
0.396957
0.421093
0.412466
0.446204
0.369293
0.390182
0.412943
0.359299
0.409229
0.399921
0.436159
0.382826
0.410107
0.437248
0.418317
0.391992
0.399331
0.407244
0.354438
0.325923
0.423431
0.351667
0.456753
0.344981
0.430192
0.415141
0.473928
0.34722
0.410107
0.412886
0.371906
0.447266
0.380338
0.410014
0.361691
0.363511
0.342224
0.431906
0.386657
0.395092
0.434003
0.449928
0.433461
0.410519
0.40165
0.408014
0.387377
0.427367
0.382712
0.440483
0.426973
0.383558
0.445086
0.351667
0.474277
0.332454
0.441626
0.399921
0.449648
0.473819
0.427022
0.422631
0.424505
0.394203
0.423073
0.412784
0.405212
0.383558
0.390948
0.383763
0.395419
0.715443
0.601706
0.556464
0.681659
0.728997
0.697654
0.554183
0.576114
0.750164
0.741214
0.684233
0.72074
0.847142
0.761793
0.740025
0.653899
1
1
1
1
1
1
1
1
1
1
1
1
1
1
1
1
1
1
1
1
1
1
1
1
1
1
1
1
1
1
1
1
1
1
1
1
1
1
1
1
1
1
1
1
1
1
1
1
1
1
1
1
1
1
1
1
1
1
1
1
1
1
1
1
1
1
1
1
1
1
1
1
1
1
1
1
1
1
1
1
1
1
1
1
1
1
1
1
1
1
1
1
1
1
1
1
1
1
1
1
1
1
1
1
1
1
1
1
1
1
1
1
1
1
1
1
1
1
1
1
1
1
1
1
1
1
1
1
1
1
1
1
1
1
1
1
1
1
1
1
1
1
1
1
1
1
1
1
1
1
1
1
1
1
1
1
1
1
1
1
1
1
1
1
1
1
1
1
1
1
1
1
1
1
1
1
1
1
1
1
1
1
1
1
1
1
1
1
1
1
1
1
1
1
1
1
1
1
1
1
1
1
1
1
1
1
1
1
1
1
1
1
1
1
1
1
1
1
1
1
1
1
1
1
1
1
1
1
1
1
1
1
1
1
1
1
1
1
1
1
1
1
1
1
1
1
1
1
1
1
1
1
1
1
1
1
1
1
1
1
1
1
1
1
1
1
1
1
1
1
1
1
0.456753
0.4306
0.461634
0.525186
0.435116
0.418323
0.361727
0.460799
0.418017
0.458686
0.484108
0.460683
0.350982
0.449477
0.477776
0.445203
0.364752
0.44148
0.396659
0.411879
0.40623
0.393394
0.461609
0.493412
0.382827
0.446815
0.41645
0.407323
0.386064
0.319032
0.38876
0.375406
0.491801
0.412466
0.362624
0.428065
0.415858
0.443252
0.37878
0.406444
0.401776
0.392208
0.446051
0.395889
0.426158
0.420735
0.380848
0.479206
0.364752
0.44148
0.35953
0.42267
0.348457
0.371235
0.459173
0.406444
0.396362
0.396957
0.329764
0.487363
0.443699
0.398625
0.368979
0.361088
0.342847
0.4306
0.347154
0.390296
0.419068
0.407244
0.437248
0.443405
0.412603
0.404079
0.469308
0.397795
0.401099
0.40968
0.430301
0.486365
0.299036
0.390705
0.353342
0.498208
0.422277
0.418323
0.451865
0.382528
0.412603
0.377963
0.420679
0.390172
0.373534
0.372094
0.382826
0.387933
0.732758
0.669965
0.718441
0.727522
0.691881
0.612216
0.705225
0.832587
0.623741
0.76733
0.820284
0.729389
0.761943
0.774484
0.8734
0.813874
1
1
1
1
1
1
1
1
1
1
1
1
1
1
1
1
1
1
1
1
1
1
1
1
1
1
1
1
1
1
1
1
1
1
1
1
1
1
1
1
1
1
1
1
1
1
1
1
1
1
1
1
1
1
1
1
1
1
1
1
1
1
1
1
1
1
1
1
1
1
1
1
1
1
1
1
1
1
1
1
1
1
1
1
1
1
1
1
1
1
1
1
1
1
1
1
1
1
1
1
1
1
1
1
1
1
1
1
1
1
1
1
1
1
1
1
1
1
1
1
1
1
1
1
1
1
1
1
1
1
1
1
1
1
1
1
1
1
1
1
1
1
1
1
1
1
1
1
1
1
1
1
1
1
1
1
1
1
1
1
1
1
1
1
1
1
1
1
1
1
1
1
1
1
1
1
1
1
1
1
1
1
1
1
1
1
1
1
1
1
1
1
1
1
1
1
1
1
1
1
1
1
1
1
1
1
1
1
1
1
1
1
1
1
1
1
1
1
1
1
1
1
1
1
1
1
1
1
1
1
1
1
1
1
1
1
1
1
1
1
1
1
1
1
1
1
1
1
1
1
1
1
1
1
1
1
1
1
1
1
1
1
1
1
1
1
1
1
1
1
1
1
)
;

boundaryField
{
    inlet
    {
        type            fixedValue;
        value           uniform 1;
    }
    outlet
    {
        type            fixedValue;
        value           uniform 1;
    }
    wall
    {
        type            zeroGradient;
    }
    procBoundary1to0
    {
        type            processor;
        value           nonuniform List<scalar> 
192
(
0.373263
0.391696
0.436463
0.42593
0.304796
0.381163
0.344296
0.357463
0.312696
0.41803
0.452263
0.370629
0.444363
0.41803
0.325862
0.51283
0.407496
0.378529
0.48123
0.357463
0.446997
0.454897
0.468063
0.428563
0.618164
0.539164
0.705065
0.602364
1
1
1
1
1
1
1
1
1
1
1
1
1
1
1
1
1
1
1
1
1
1
1
1
1
1
1
1
1
1
1
1
1
1
1
1
1
1
1
1
1
1
1
1
1
1
1
1
1
1
1
1
1
1
1
1
1
1
1
1
1
1
1
1
1
1
1
1
0.391513
0.412498
0.476008
0.373534
0.423727
0.450082
0.403047
0.463745
0.434465
0.410519
0.374305
0.463745
0.491734
0.422388
0.416313
0.373534
0.450572
0.392716
0.387571
0.408616
0.493524
0.406563
0.425157
0.458734
0.672491
0.638004
0.785539
0.696791
1
1
1
1
1
1
1
1
1
1
1
1
1
1
1
1
1
1
1
1
1
1
1
1
1
1
1
1
1
1
1
1
1
1
1
1
1
1
1
1
1
1
1
1
1
1
1
1
1
1
1
1
1
1
1
1
1
1
1
1
1
1
1
1
1
1
1
1
)
;
    }
    procBoundary1to3
    {
        type            processor;
        value           nonuniform List<scalar> 
192
(
0.562864
0.412763
0.436463
0.365363
0.510197
0.396963
0.44963
0.43383
0.412763
0.362729
0.375896
0.499664
0.288996
0.349563
0.431196
0.381163
0.296896
0.510197
0.39433
0.38643
0.48913
0.44173
0.41013
0.431196
0.507564
0.549697
0.570764
0.683998
1
1
1
1
1
1
1
1
1
1
1
1
1
1
1
1
1
1
1
1
1
1
1
1
1
1
1
1
1
1
1
1
1
1
1
1
1
1
1
1
1
1
1
1
1
1
1
1
1
1
1
1
1
1
1
1
1
1
1
1
1
1
1
1
1
1
1
1
0.49131
0.473797
0.418432
0.452361
0.381052
0.343352
0.463929
0.464889
0.381052
0.352196
0.422388
0.448782
0.416134
0.436211
0.436235
0.486365
0.428663
0.361039
0.422388
0.391513
0.451216
0.429578
0.469863
0.411199
0.684261
0.717
0.707238
0.645646
1
1
1
1
1
1
1
1
1
1
1
1
1
1
1
1
1
1
1
1
1
1
1
1
1
1
1
1
1
1
1
1
1
1
1
1
1
1
1
1
1
1
1
1
1
1
1
1
1
1
1
1
1
1
1
1
1
1
1
1
1
1
1
1
1
1
1
1
)
;
    }
}


// ************************************************************************* //
