/*--------------------------------*- C++ -*----------------------------------*\
| =========                 |                                                 |
| \\      /  F ield         | OpenFOAM: The Open Source CFD Toolbox           |
|  \\    /   O peration     | Version:  2506                                  |
|   \\  /    A nd           | Website:  www.openfoam.com                      |
|    \\/     M anipulation  |                                                 |
\*---------------------------------------------------------------------------*/
FoamFile
{
    version     2.0;
    format      ascii;
    arch        "LSB;label=32;scalar=64";
    class       volVectorField;
    location    "0.07";
    object      stored_U;
}
// * * * * * * * * * * * * * * * * * * * * * * * * * * * * * * * * * * * * * //

dimensions      [0 1 -1 0 0 0 0];

internalField   nonuniform List<vector> 
1152
(
(0.00739873 -0.00247016 0.0421475)
(-0.000153125 0.000714182 0.0195536)
(0.00209622 -0.00176872 0.022082)
(0.00302338 0.000689179 0.0170493)
(0.00231699 -0.000458311 0.0155285)
(-0.00043698 0.00103054 0.0307435)
(0.00138716 0.00143301 0.0113401)
(0.00378605 0.0028312 0.0169028)
(0.00200524 0.00263479 0.0224838)
(0.00157472 0.0010254 0.0171724)
(0.00173277 0.00512005 0.0165973)
(0.00260723 0.00494618 0.029305)
(0.000774804 0.00275668 0.0116535)
(0.00268384 0.00202637 0.0222321)
(0.00526898 0.00254746 0.0352052)
(-0.00209096 -0.00233998 0.0392721)
(-0.00398137 0.000444504 0.0259624)
(-0.00110601 -0.000436476 0.015636)
(0.00174367 0.00391185 0.0287366)
(0.00265697 0.000329891 0.0193974)
(-0.00362473 0.00195521 0.0259614)
(0.00161226 0.00251085 0.0205685)
(0.00225285 0.00292442 0.0177986)
(0.00202498 0.000309851 0.0329847)
(-0.00344612 0.0032681 0.0368111)
(0.00126622 0.00282005 0.0265887)
(-0.000769195 0.000392292 0.027285)
(0.00217578 -0.000281342 0.0195455)
(3.40386e-05 0.000304664 0.0258747)
(-0.00143567 0.000139047 0.00846411)
(-0.00130055 0.000386229 0.00170601)
(0.00308808 0.00392385 0.0239934)
(-0.0127774 -0.00015305 0.0621729)
(-0.00042231 0.000454868 0.0218423)
(-0.000506026 0.00233326 0.0347822)
(-0.000337457 -2.62626e-05 0.00599047)
(-0.00104116 0.000398665 0.0156996)
(0.00261478 -3.3131e-05 0.0382558)
(0.00119901 0.00202689 0.0280315)
(5.51762e-05 0.000467614 0.0386305)
(-0.00202229 0.000715927 0.0252711)
(-0.00128712 0.000875381 0.0242521)
(0.000392098 -0.00117021 0.0324505)
(0.00118993 -0.000357862 0.019606)
(-0.00279267 -0.00898986 0.0486248)
(-0.00198544 -0.0010219 0.0504424)
(-0.000556623 0.00034891 0.0599443)
(0.00253781 -4.75195e-05 0.0300522)
(0.00177766 0.000910086 0.0174818)
(0.00423133 -0.00134701 0.0418531)
(-0.000142074 0.000407044 0.0115099)
(-0.0024561 0.0011662 0.0253309)
(0.000111446 0.00170184 0.0167208)
(-0.000967714 0.000984936 0.016817)
(0.000893559 -0.000255139 0.0453795)
(0.000610246 0.000984146 0.0354556)
(0.000130484 0.00456529 0.0431747)
(-0.00202883 0.000719267 0.0278542)
(-0.000138308 0.0013461 0.027072)
(-0.000198138 0.000874527 0.0185915)
(-0.000376434 -0.000244115 0.00366964)
(-0.00192477 0.00215396 0.0223693)
(0.00166581 0.00420501 0.0351005)
(-0.000316886 -0.000269466 0.0140905)
(0.00214386 0.00230972 0.0444299)
(0.000325212 2.19869e-05 0.0253229)
(0.000744627 -0.0018041 0.0393954)
(-0.000834057 -0.00101316 0.0288776)
(0.000135019 6.58152e-05 0.031775)
(-0.00189981 0.000469466 0.0195083)
(-0.00150428 -0.000296697 0.0219228)
(0.000955165 -0.000873944 0.0304382)
(0.000714192 -7.86082e-05 0.0190594)
(-0.000137551 0.00249554 0.0446551)
(-0.00049031 0.000472491 0.0154497)
(-0.00154975 0.0031006 0.0358171)
(0.00385437 0.0169799 0.0489899)
(0.000757173 0.000149448 0.00410701)
(-0.00126157 -0.00105319 0.0625023)
(-0.00108267 0.00104859 0.0350982)
(0.000446058 -0.000605335 0.00537507)
(-0.00228054 -0.0013108 0.0268635)
(-0.000604611 -0.000670463 0.0135441)
(0.0034791 -0.00133674 0.0332459)
(0.0038535 -0.00342657 0.0336881)
(0.000137589 -0.000585513 0.0085463)
(-0.000848784 0.000520524 0.0236716)
(9.72738e-05 -0.000133414 0.00587419)
(0.000456221 -0.00156872 0.0124852)
(0.00120881 -0.000620199 0.0268884)
(0.000511801 0.000818094 0.0181289)
(-0.000179713 0.000788282 0.0128418)
(6.31568e-05 -0.00398737 0.0351905)
(0.0026466 -0.00182249 0.0126774)
(0.00112253 -0.00265423 0.0199614)
(-0.000903462 -5.28369e-05 0.0257765)
(0.000300834 5.82055e-05 0.016478)
(0.000175652 0.000856726 0.0232768)
(-0.000350937 -6.77882e-05 0.012012)
(-0.000766659 -8.23866e-05 0.0271577)
(-0.000210876 0.00100366 0.0239737)
(6.11192e-05 0.000540443 0.0098028)
(-0.000104464 0.000343363 0.0179369)
(-8.96768e-05 -1.41099e-05 0.00889894)
(-0.000242663 0.00128645 0.0144414)
(3.06589e-05 -0.000309962 0.0272266)
(9.16007e-05 -4.39406e-05 0.0110772)
(0.000244737 4.27345e-05 0.0180873)
(5.9812e-05 0.000250061 0.00629776)
(-0.00192281 0.000523995 0.0199105)
(-0.00140673 0.000237173 0.0414039)
(0.000608126 0.000366727 0.0255764)
(-0.000431238 0.000214421 0.0314714)
(-0.000200054 0.000186591 0.0276451)
(-0.000763482 -0.000240062 0.0214983)
(-0.000886873 -0.000537687 0.0307691)
(0.000170628 0.000192172 0.0326671)
(-0.000530657 2.47295e-05 0.0198442)
(-0.000908977 -0.000132032 0.0221329)
(-0.00117459 -0.000132618 0.0162021)
(0.000429284 -0.00085168 0.0264451)
(-0.000414709 -0.000454486 0.0337973)
(-0.000723117 -0.00125169 0.0213074)
(-0.00121536 -0.000816885 0.0228544)
(0.000299865 -0.00085183 0.00888845)
(-0.000726623 0.000209753 0.0316126)
(-0.00120458 -0.000160206 0.0386576)
(3.06122e-05 0.000199217 0.0325499)
(0.000147998 0.000304099 0.00774053)
(0.000728674 0.000478822 0.00697813)
(-0.000271508 0.000417389 0.00592344)
(-0.000913895 0.00086667 0.00724251)
(0.000238622 0.000202137 0.00800441)
(0.000620487 -0.000643546 0.00614496)
(4.6011e-05 -0.000295396 0.00584212)
(-0.000901648 0.000298416 0.00515179)
(0.00106598 0.000736131 0.00753528)
(0.00023591 -0.00124735 0.00838974)
(0.000640048 -0.00174326 0.00666209)
(-0.000456038 -0.00156386 0.0063188)
(0.00046959 1.14384e-06 0.00616254)
(-0.00183796 -0.000144198 0.0081507)
(-0.000314827 -0.000309599 0.00994933)
(0.00020763 -0.000561549 0.00866411)
(0.00016606 9.92919e-05 0.0167084)
(0.000379525 5.37835e-05 0.0162682)
(2.90978e-05 -5.14821e-05 0.0157144)
(-0.000261798 -5.60073e-05 0.0161333)
(0.000153337 -4.94511e-05 0.0166169)
(0.000268564 -0.000397061 0.0159376)
(4.73951e-05 -0.000365742 0.0155709)
(-0.000423197 -0.000215608 0.0153388)
(0.000351479 0.000158756 0.0166714)
(5.26926e-05 -0.000561325 0.0169942)
(0.000168509 -0.000829525 0.0161217)
(-0.00032154 -0.000821335 0.0159015)
(-2.57967e-05 0.000115178 0.0158579)
(-0.000745484 -3.2139e-05 0.0170602)
(-0.000274622 -0.000123925 0.0173337)
(-0.000236884 -0.000274287 0.0169757)
(8.24663e-05 4.73174e-05 0.0138328)
(0.000100889 2.5172e-05 0.0136489)
(-6.98973e-05 -7.29703e-07 0.013393)
(-0.000289667 5.35199e-05 0.0134539)
(5.69414e-05 -3.75185e-05 0.0138139)
(5.37815e-05 -0.000157679 0.0136164)
(-6.24138e-05 -0.000154516 0.0134171)
(-0.00029672 -8.82392e-05 0.0133487)
(8.85809e-05 1.2258e-05 0.0139242)
(-2.65361e-05 -0.000224049 0.014003)
(-2.6487e-05 -0.000315799 0.0137114)
(-0.000235975 -0.000312471 0.013633)
(-6.91786e-05 4.21907e-05 0.0136897)
(-0.000293912 -3.81417e-05 0.0140689)
(-0.00018505 -7.75056e-05 0.0141183)
(-0.000242933 -0.000125554 0.0140564)
(4.19168e-05 5.78701e-06 0.0143599)
(4.25046e-05 -1.45348e-05 0.0142964)
(-1.74986e-05 -4.96793e-05 0.0142061)
(-0.000106906 -6.19641e-05 0.0142322)
(2.01245e-05 -3.41175e-05 0.0143578)
(8.529e-06 -8.45473e-05 0.0143044)
(-4.32711e-05 -0.000104682 0.01423)
(-0.00014588 -0.00010583 0.0142245)
(8.99891e-06 -2.14693e-05 0.014416)
(-3.27789e-05 -0.000105983 0.0144391)
(-5.11405e-05 -0.000148109 0.0143477)
(-0.000142357 -0.000161894 0.0143311)
(-5.15373e-05 7.61477e-06 0.0143541)
(-0.000127274 -3.32054e-05 0.0144776)
(-0.000114219 -5.59448e-05 0.0144812)
(-0.000166136 -7.21365e-05 0.014483)
(1.42008e-05 -6.72868e-06 0.0143478)
(5.39409e-06 -1.57171e-05 0.0143159)
(-2.62836e-05 -3.25872e-05 0.0142637)
(-7.21164e-05 -3.61959e-05 0.0142394)
(7.95057e-07 -2.31282e-05 0.0143639)
(-1.18889e-05 -4.36462e-05 0.0143433)
(-4.06555e-05 -5.66098e-05 0.0143065)
(-8.712e-05 -5.9656e-05 0.0142912)
(-1.17002e-05 -2.11894e-05 0.0143963)
(-3.05523e-05 -5.25392e-05 0.0144018)
(-4.78797e-05 -6.97123e-05 0.0143691)
(-8.69701e-05 -7.6814e-05 0.0143588)
(-3.55566e-05 -9.00007e-06 0.0143839)
(-6.45129e-05 -2.65252e-05 0.0144258)
(-7.1259e-05 -3.68678e-05 0.0144234)
(-0.000100769 -4.07879e-05 0.0144266)
(1.68995e-06 -1.01787e-05 0.0143591)
(-5.52425e-06 -1.45073e-05 0.0143428)
(-2.09193e-05 -2.34752e-05 0.0143121)
(-4.06431e-05 -2.75e-05 0.0142836)
(-6.11047e-06 -1.72211e-05 0.0143812)
(-1.47658e-05 -2.63023e-05 0.0143718)
(-2.98399e-05 -3.42185e-05 0.0143519)
(-4.95404e-05 -3.74921e-05 0.0143342)
(-1.37592e-05 -1.80724e-05 0.0144009)
(-2.35588e-05 -2.94728e-05 0.0144018)
(-3.45321e-05 -3.75311e-05 0.014388)
(-5.07084e-05 -4.13811e-05 0.0143763)
(-2.31422e-05 -1.44563e-05 0.0144027)
(-3.55686e-05 -2.09448e-05 0.014417)
(-4.37933e-05 -2.49637e-05 0.014414)
(-5.7784e-05 -2.55767e-05 0.0144099)
(-2.99673e-06 -9.74945e-06 0.0143714)
(-8.01693e-06 -1.17907e-05 0.01436)
(-1.58285e-05 -1.62452e-05 0.0143359)
(-2.41392e-05 -1.87381e-05 0.0143025)
(-7.23316e-06 -1.33333e-05 0.0143954)
(-1.28791e-05 -1.7504e-05 0.0143889)
(-2.08154e-05 -2.17902e-05 0.0143734)
(-2.8884e-05 -2.38556e-05 0.0143511)
(-1.11667e-05 -1.46004e-05 0.0144109)
(-1.69486e-05 -1.89572e-05 0.0144095)
(-2.33238e-05 -2.25176e-05 0.0143996)
(-2.99028e-05 -2.4274e-05 0.0143835)
(-1.4896e-05 -1.42615e-05 0.0144165)
(-2.1235e-05 -1.63724e-05 0.0144202)
(-2.68191e-05 -1.77228e-05 0.0144155)
(-3.32398e-05 -1.73218e-05 0.0144045)
(-4.13292e-06 -8.33511e-06 0.0143797)
(-7.37086e-06 -9.25981e-06 0.01437)
(-1.1378e-05 -1.13482e-05 0.0143479)
(-1.46913e-05 -1.27392e-05 0.0143118)
(-6.36716e-06 -1.05002e-05 0.0144041)
(-9.8835e-06 -1.24521e-05 0.0143982)
(-1.40376e-05 -1.46175e-05 0.0143835)
(-1.71344e-05 -1.57891e-05 0.0143579)
(-8.24283e-06 -1.16258e-05 0.0144181)
(-1.17531e-05 -1.33419e-05 0.0144154)
(-1.53194e-05 -1.48371e-05 0.0144055)
(-1.78843e-05 -1.55291e-05 0.014386)
(-9.71257e-06 -1.21901e-05 0.0144246)
(-1.32831e-05 -1.27932e-05 0.0144242)
(-1.65167e-05 -1.30164e-05 0.0144174)
(-1.93723e-05 -1.24179e-05 0.0144016)
(-3.87381e-06 -6.73584e-06 0.0143851)
(-5.89127e-06 -7.1086e-06 0.0143758)
(-8.00967e-06 -8.0239e-06 0.0143541)
(-9.20169e-06 -8.74258e-06 0.0143162)
(-5.03815e-06 -8.20839e-06 0.0144095)
(-7.18787e-06 -9.14032e-06 0.0144035)
(-9.36969e-06 -1.01889e-05 0.0143884)
(-1.04032e-05 -1.07682e-05 0.0143606)
(-5.92392e-06 -9.10978e-06 0.0144229)
(-8.04078e-06 -9.80258e-06 0.0144193)
(-9.98947e-06 -1.03809e-05 0.0144085)
(-1.09049e-05 -1.05966e-05 0.0143866)
(-6.49631e-06 -9.78857e-06 0.0144293)
(-8.54933e-06 -9.87576e-06 0.0144271)
(-1.0322e-05 -9.74266e-06 0.0144186)
(-1.15278e-05 -9.19877e-06 0.0143999)
(-3.19049e-06 -5.25899e-06 0.0143888)
(-4.43174e-06 -5.37537e-06 0.0143795)
(-5.56159e-06 -5.73163e-06 0.0143576)
(-5.87227e-06 -6.0957e-06 0.0143186)
(-3.80027e-06 -6.318e-06 0.014413)
(-5.09684e-06 -6.77339e-06 0.0144067)
(-6.25972e-06 -7.26959e-06 0.014391)
(-6.44785e-06 -7.5347e-06 0.0143618)
(-4.22124e-06 -7.01478e-06 0.014426)
(-5.49837e-06 -7.30229e-06 0.0144218)
(-6.5436e-06 -7.50654e-06 0.0144101)
(-6.76212e-06 -7.51867e-06 0.0143868)
(-4.43911e-06 -7.60119e-06 0.0144322)
(-5.64432e-06 -7.53201e-06 0.0144291)
(-6.57812e-06 -7.32347e-06 0.0144194)
(-7.03856e-06 -6.91692e-06 0.014399)
(-2.47021e-06 -4.00598e-06 0.0143913)
(-3.23367e-06 -4.01175e-06 0.0143818)
(-3.85168e-06 -4.11895e-06 0.0143597)
(-3.81599e-06 -4.29584e-06 0.0143199)
(-2.79757e-06 -4.78277e-06 0.0144152)
(-3.58076e-06 -5.01573e-06 0.0144086)
(-4.20373e-06 -5.24362e-06 0.0143925)
(-4.0828e-06 -5.34325e-06 0.0143625)
(-3.00265e-06 -5.31214e-06 0.014428)
(-3.77472e-06 -5.42695e-06 0.0144233)
(-4.32481e-06 -5.48638e-06 0.0144111)
(-4.27311e-06 -5.4334e-06 0.0143869)
(-3.07157e-06 -5.76414e-06 0.014434)
(-3.79259e-06 -5.66015e-06 0.0144302)
(-4.28046e-06 -5.47406e-06 0.0144199)
(-4.40647e-06 -5.18266e-06 0.0143984)
(-1.8345e-06 -2.97481e-06 0.0143929)
(-2.30751e-06 -2.9374e-06 0.0143833)
(-2.65369e-06 -2.94276e-06 0.0143609)
(-2.50874e-06 -3.02255e-06 0.0143207)
(-2.01678e-06 -3.55226e-06 0.0144167)
(-2.4904e-06 -3.66827e-06 0.0144099)
(-2.82693e-06 -3.76776e-06 0.0143934)
(-2.62626e-06 -3.79144e-06 0.0143629)
(-2.12112e-06 -3.93942e-06 0.0144292)
(-2.57899e-06 -3.98222e-06 0.0144243)
(-2.87516e-06 -3.98604e-06 0.0144117)
(-2.74013e-06 -3.92168e-06 0.0143869)
(-2.13691e-06 -4.25301e-06 0.014435)
(-2.56306e-06 -4.16995e-06 0.0144309)
(-2.81568e-06 -4.02837e-06 0.0144201)
(-2.80363e-06 -3.82185e-06 0.0143981)
(-1.29389e-06 -2.1208e-06 0.014394)
(-1.58737e-06 -2.07443e-06 0.0143842)
(-1.78359e-06 -2.04759e-06 0.0143617)
(-1.63263e-06 -2.08217e-06 0.0143213)
(-1.39748e-06 -2.54239e-06 0.0144176)
(-1.68466e-06 -2.59851e-06 0.0144107)
(-1.87003e-06 -2.63897e-06 0.014394)
(-1.68102e-06 -2.63345e-06 0.0143631)
(-1.45615e-06 -2.82592e-06 0.01443)
(-1.72242e-06 -2.83426e-06 0.0144249)
(-1.8848e-06 -2.81731e-06 0.014412)
(-1.74764e-06 -2.7597e-06 0.0143869)
(-1.46245e-06 -3.01971e-06 0.0144356)
(-1.69401e-06 -2.96696e-06 0.0144313)
(-1.82978e-06 -2.86819e-06 0.0144203)
(-1.77788e-06 -2.72701e-06 0.0143979)
(-8.15336e-07 -1.40042e-06 0.0143947)
(-9.92692e-07 -1.3609e-06 0.0143848)
(-1.10398e-06 -1.33021e-06 0.0143622)
(-9.89496e-07 -1.34383e-06 0.0143216)
(-8.73077e-07 -1.68854e-06 0.0144182)
(-1.04325e-06 -1.71374e-06 0.0144112)
(-1.14711e-06 -1.72887e-06 0.0143944)
(-1.00869e-06 -1.71659e-06 0.0143633)
(-9.06463e-07 -1.88635e-06 0.0144305)
(-1.05882e-06 -1.88214e-06 0.0144253)
(-1.15068e-06 -1.86304e-06 0.0144122)
(-1.04707e-06 -1.81982e-06 0.014387)
(-9.14519e-07 -1.99908e-06 0.0144359)
(-1.03213e-06 -1.97023e-06 0.0144316)
(-1.10817e-06 -1.90701e-06 0.0144204)
(-1.06113e-06 -1.81529e-06 0.0143978)
(-3.42387e-07 -7.74131e-07 0.0143951)
(-4.40471e-07 -7.44766e-07 0.0143852)
(-5.05042e-07 -7.19419e-07 0.0143625)
(-4.45928e-07 -7.21551e-07 0.0143218)
(-3.67538e-07 -9.41304e-07 0.0144186)
(-4.63056e-07 -9.49397e-07 0.0144114)
(-5.25193e-07 -9.51922e-07 0.0143946)
(-4.5426e-07 -9.39804e-07 0.0143634)
(-3.83185e-07 -1.06005e-06 0.0144308)
(-4.68319e-07 -1.05449e-06 0.0144255)
(-5.2402e-07 -1.04017e-06 0.0144124)
(-4.74164e-07 -1.01206e-06 0.014387)
(-3.88094e-07 -1.12267e-06 0.0144361)
(-4.51523e-07 -1.10795e-06 0.0144317)
(-4.9853e-07 -1.07282e-06 0.0144204)
(-4.80075e-07 -1.02042e-06 0.0143978)
(2.19389e-07 -1.81619e-07 0.0143953)
(1.73328e-07 -1.56936e-07 0.0143854)
(1.25144e-07 -1.33311e-07 0.0143627)
(1.07236e-07 -1.19494e-07 0.014322)
(2.22567e-07 -2.32798e-07 0.0144187)
(1.74294e-07 -2.24495e-07 0.0144116)
(1.25178e-07 -2.14615e-07 0.0143947)
(1.09656e-07 -1.99713e-07 0.0143636)
(2.26496e-07 -2.74704e-07 0.0144309)
(1.78653e-07 -2.66121e-07 0.0144256)
(1.30041e-07 -2.54782e-07 0.0144125)
(1.05987e-07 -2.38582e-07 0.0143871)
(2.29006e-07 -3.06512e-07 0.0144362)
(1.87706e-07 -2.96523e-07 0.0144318)
(1.41365e-07 -2.81191e-07 0.0144205)
(1.05598e-07 -2.60319e-07 0.0143979)
(0.00246161 -0.00183136 0.0289035)
(0.000302414 0.000706008 0.0138507)
(0.00178309 0.00191112 0.0120738)
(0.00487118 0.000612331 0.0202268)
(0.001178 5.23291e-05 0.0156733)
(0.00366007 -0.000593384 0.0229865)
(0.00326246 0.00423232 0.0332459)
(0.00320882 -0.0010931 0.0208852)
(-0.000566236 0.00121492 0.0178742)
(0.00118073 -0.000510262 0.0103388)
(0.00633871 -0.00126361 0.0243095)
(0.00399635 -0.00355799 0.0298906)
(0.00147629 0.000651372 0.0274715)
(-5.40891e-05 0.000683115 0.0202092)
(0.00334737 -0.00158996 0.0216395)
(0.0011141 -0.00049242 0.00617809)
(-0.00238736 0.0029259 0.0191158)
(0.00430359 -0.000689107 0.0343258)
(0.00209591 -0.00162657 0.0233085)
(0.00127597 0.000148461 0.0475283)
(-0.00325423 0.00302782 0.0197558)
(-0.000133388 -0.000116129 0.0345)
(0.00297957 -0.00126338 0.0250359)
(0.00282864 -0.000791254 0.0169469)
(-0.00115854 0.00280245 0.0380287)
(-0.000886251 0.00131372 0.0254359)
(-0.000400086 0.000939932 0.0345892)
(0.00310188 0.00197089 0.0256032)
(-0.00336445 -0.000372738 0.0291454)
(-0.00164011 -0.00083588 0.0190071)
(0.00065301 0.00178685 0.0143542)
(0.00292999 0.00298855 0.0280178)
(-0.00176704 0.000627376 0.0309588)
(0.00165323 0.000835972 0.0343752)
(0.000705992 0.00102703 0.0316248)
(0.00282001 0.0010365 0.0289044)
(-0.00104676 0.00326953 0.0237316)
(-0.000208898 0.00127768 0.0231837)
(0.00118936 0.000681915 0.0370693)
(0.00296543 0.000196009 0.0494581)
(-0.000786292 0.00224899 0.0233377)
(-0.00159395 0.000640774 0.0261975)
(1.73752e-05 0.00161262 0.0328832)
(0.000809977 0.00136804 0.017811)
(0.000179426 0.000807132 0.00330396)
(0.000457645 0.00229891 0.0385022)
(0.000114101 0.00146797 0.0199197)
(8.49626e-05 0.00341162 0.0581927)
(-0.000123311 0.000225248 0.00846481)
(0.000640291 -0.00103276 0.0330366)
(-0.00073782 -0.000655195 0.0199326)
(0.00158846 -0.0016343 0.0618086)
(0.000132897 9.47214e-05 0.00765753)
(-0.00175519 -0.00202752 0.0389797)
(-0.00213019 0.000238342 0.0374768)
(-0.000123862 0.00120636 0.00998144)
(4.01866e-06 -0.00519481 0.0463061)
(-0.00042065 6.69023e-05 0.0334007)
(-0.000798967 0.000833113 0.0250593)
(-0.00156494 0.00235298 0.0269091)
(0.000683585 -0.00323902 0.0251326)
(0.001039 -0.000308557 0.0146649)
(0.000138701 -4.57233e-05 0.0348348)
(-0.000929867 0.00118034 0.0194764)
(0.000198491 0.00150408 0.0233326)
(-0.00168719 -0.00155989 0.041667)
(-0.00213 -0.000648317 0.0333703)
(-0.00116764 0.00340679 0.0307156)
(0.000731211 -0.000302742 0.0324652)
(-0.00188427 2.25068e-05 0.0220506)
(-6.35195e-05 0.000816791 0.0231803)
(-0.00154255 0.00234089 0.0259768)
(0.000138843 -0.00339671 0.0437603)
(-0.000304119 -6.592e-05 0.00968528)
(-0.00160653 0.00212496 0.0471346)
(-0.000500629 0.000397427 0.0226561)
(-0.000196431 -0.000822392 0.0242155)
(-1.0292e-05 -0.00102398 0.0442038)
(-0.000603763 0.000383907 0.0110521)
(-0.000994569 0.00192211 0.0516539)
(8.20025e-05 -2.41368e-06 0.000911247)
(-0.0017453 0.00506029 0.0292331)
(0.000600843 0.000614754 0.0129686)
(0.00239996 0.00109004 0.0268039)
(0.00124797 0.00665768 0.0311849)
(-0.00274043 0.00429901 0.0193702)
(-0.00211565 0.00269685 0.0234079)
(0.000886385 0.00411303 0.0242817)
(0.000306184 0.000826982 0.0135683)
(-0.00214686 0.0012456 0.0255042)
(-0.00112241 0.00238343 0.0142383)
(-0.00144035 0.00175363 0.0187483)
(0.00145533 -0.000387106 0.0194122)
(-0.000578102 -0.000263103 0.00984302)
(-0.00151073 -0.000492503 0.0242222)
(-0.000110417 2.33825e-05 0.00639137)
(0.000480488 -0.000867671 0.0059509)
(-0.000652068 -0.000248505 0.0111236)
(-0.000547758 -9.45358e-05 0.0156672)
(-0.00053931 0.0001815 0.0235626)
(-4.72666e-05 -0.00434595 0.0279158)
(-0.000505728 -0.000543398 0.0241775)
(-0.000292282 -0.000454021 0.0104184)
(-0.000454869 -0.000682558 0.00889529)
(0.000358205 -0.000347722 0.0232027)
(-8.16152e-07 -0.000127798 0.0190001)
(5.99667e-05 -0.000586892 0.0234717)
(0.000379698 -0.000891093 0.0271176)
(0.00129435 0.000461394 0.0220547)
(0.000305285 -0.000509355 0.0176763)
(2.04994e-05 0.00016058 0.0199101)
(-0.000169918 -0.000674879 0.0170034)
(-0.000262474 -0.000817079 0.0298299)
(-0.00028065 -0.000724379 0.0226418)
(-0.00109672 -0.000624604 0.0225128)
(-0.0009209 -0.000614799 0.0315596)
(-0.000585791 -0.00153661 0.0339215)
(0.000118204 -0.00124517 0.0285547)
(-0.000473743 -0.000903644 0.0210308)
(-0.000645176 -0.00113179 0.0236836)
(6.17459e-05 -0.000906085 0.0308811)
(4.15452e-05 -0.000722617 0.0271932)
(-0.000460596 -0.000963251 0.0284117)
(-0.000342195 -0.00120212 0.0289984)
(-0.000185339 -8.74625e-06 0.0295067)
(4.08217e-05 -0.000466621 0.0266184)
(-0.000473002 -0.000317292 0.0267334)
(-0.000521634 -0.00101667 0.0286467)
(0.00160323 0.000377396 0.00633885)
(0.00114479 5.62112e-05 0.00559688)
(-0.000794299 -0.00038362 0.00550193)
(-0.00138806 -0.000342342 0.00769682)
(0.00050675 0.000574431 0.00778351)
(0.00116603 2.30999e-05 0.00682545)
(-0.00020372 -0.00068317 0.00553551)
(-0.00133499 -0.000330506 0.00667121)
(0.000640994 0.000430301 0.00797289)
(0.000607751 0.000125649 0.00704954)
(-0.000257215 -0.000707217 0.00685733)
(-0.000770656 -0.000431805 0.00724951)
(0.000505027 0.000257958 0.00780989)
(0.000533256 0.000145855 0.00694563)
(-0.000358902 0.000116728 0.00678776)
(-0.000786297 -6.95473e-05 0.00725646)
(0.000805909 3.0622e-06 0.0168025)
(0.000664488 3.69204e-06 0.0159573)
(-5.49952e-05 -0.000200923 0.0154144)
(-0.000530409 -0.000354741 0.0166957)
(0.000399917 1.47357e-05 0.0169542)
(0.000707057 -5.97939e-05 0.0162672)
(0.000157905 -0.00039302 0.0154924)
(-0.000496727 -0.0003592 0.0163231)
(0.00037048 0.000145204 0.016861)
(0.000503266 7.08145e-05 0.0163532)
(0.000148225 -0.00030199 0.0159885)
(-0.000345149 -0.000281515 0.0163855)
(0.000300151 0.000116307 0.0167257)
(0.000419285 5.06262e-05 0.0162805)
(0.000113094 -0.000104196 0.015983)
(-0.000256607 -0.000276193 0.0162927)
(0.000337437 5.37233e-05 0.0134974)
(0.00018609 7.29846e-05 0.0132073)
(-0.000138622 -6.24148e-05 0.0128185)
(-0.000353381 -0.000157766 0.0132545)
(0.000197126 7.18442e-05 0.0137359)
(0.000186097 8.11899e-05 0.0134472)
(-0.000107671 -0.000112043 0.0130202)
(-0.000402883 -0.000100846 0.0132881)
(0.000160234 5.79899e-05 0.013811)
(0.000136157 5.30423e-05 0.0135661)
(-8.43948e-05 -0.000131762 0.0132648)
(-0.000336694 -7.91815e-05 0.0133517)
(0.000123838 4.43406e-05 0.0138133)
(0.00010736 3.00233e-05 0.0136008)
(-8.05898e-05 -6.73389e-05 0.0133642)
(-0.000286574 -6.27465e-05 0.0133829)
(0.000161708 3.97225e-06 0.0140798)
(0.000109065 2.41974e-05 0.0140335)
(-4.12797e-06 -3.20039e-05 0.0138631)
(-0.000134148 -9.79417e-05 0.0141046)
(0.000112438 -4.85897e-07 0.0141986)
(0.000103272 1.5919e-05 0.0141316)
(2.92046e-06 -7.26055e-05 0.0139683)
(-0.000149395 -9.17647e-05 0.0141501)
(8.78804e-05 1.30407e-05 0.0142866)
(8.29901e-05 1.94148e-05 0.0142158)
(3.658e-06 -6.62179e-05 0.014098)
(-0.000135659 -6.71258e-05 0.014192)
(6.60622e-05 1.14958e-05 0.014333)
(6.4836e-05 1.74603e-06 0.0142641)
(1.52377e-06 -6.2952e-05 0.0141737)
(-0.000109215 -8.61344e-05 0.0142156)
(6.89041e-05 2.09365e-06 0.0140113)
(3.59624e-05 1.23534e-05 0.0139913)
(-1.76524e-05 -1.66349e-05 0.0138703)
(-7.92213e-05 -4.96368e-05 0.0139374)
(5.06487e-05 -2.57266e-06 0.0141525)
(3.14432e-05 7.7572e-06 0.0141181)
(-1.92792e-05 -3.54967e-05 0.0140063)
(-9.17203e-05 -4.63252e-05 0.0140425)
(3.8249e-05 -1.61191e-06 0.014252)
(2.50022e-05 2.62856e-06 0.014211)
(-1.80155e-05 -3.9842e-05 0.0141209)
(-8.46478e-05 -3.95767e-05 0.014119)
(2.64213e-05 -3.75727e-06 0.0143118)
(1.64933e-05 -9.40096e-06 0.0142723)
(-1.85179e-05 -4.41037e-05 0.0142034)
(-7.21674e-05 -5.22312e-05 0.0141774)
(2.88618e-05 -1.5313e-07 0.0140227)
(1.22453e-05 4.54789e-06 0.0140162)
(-1.00561e-05 -9.43105e-06 0.0139508)
(-3.99932e-05 -2.78371e-05 0.0139757)
(2.0742e-05 -4.84705e-06 0.0141552)
(8.12025e-06 -4.03269e-07 0.0141389)
(-1.33088e-05 -2.20451e-05 0.0140765)
(-4.7292e-05 -3.05248e-05 0.0140809)
(1.45767e-05 -6.50886e-06 0.0142538)
(4.97678e-06 -4.95796e-06 0.0142322)
(-1.41304e-05 -2.56633e-05 0.0141791)
(-4.52315e-05 -2.83022e-05 0.0141625)
(8.17261e-06 -8.57394e-06 0.0143188)
(4.18347e-07 -1.2498e-05 0.0142979)
(-1.5554e-05 -3.06496e-05 0.0142559)
(-4.02431e-05 -3.80514e-05 0.0142251)
(1.14417e-05 -9.64705e-07 0.0140345)
(2.39728e-06 9.77842e-07 0.0140269)
(-8.16713e-06 -6.17382e-06 0.0139836)
(-2.20964e-05 -1.57564e-05 0.0139795)
(7.235e-06 -4.80789e-06 0.0141654)
(-5.55007e-07 -3.22585e-06 0.0141517)
(-1.07424e-05 -1.41137e-05 0.0141079)
(-2.65714e-05 -1.90911e-05 0.0140896)
(4.03569e-06 -6.72441e-06 0.0142632)
(-2.30559e-06 -6.5548e-06 0.0142467)
(-1.16213e-05 -1.6805e-05 0.0142069)
(-2.58452e-05 -1.89565e-05 0.014176)
(4.99722e-07 -8.6768e-06 0.0143296)
(-4.85603e-06 -1.14952e-05 0.0143142)
(-1.27661e-05 -2.10856e-05 0.0142813)
(-2.39353e-05 -2.61619e-05 0.0142428)
(4.07056e-06 -1.03518e-06 0.0140436)
(-1.02484e-06 -3.61496e-07 0.0140341)
(-6.21431e-06 -4.15139e-06 0.0140018)
(-1.26041e-05 -9.30926e-06 0.0139854)
(1.54762e-06 -3.98897e-06 0.014174)
(-3.14318e-06 -3.71495e-06 0.0141603)
(-8.18889e-06 -9.34604e-06 0.014125)
(-1.55175e-05 -1.24038e-05 0.0140966)
(-2.34792e-07 -5.73851e-06 0.0142712)
(-4.21723e-06 -6.0924e-06 0.0142561)
(-8.93001e-06 -1.11935e-05 0.014222)
(-1.54628e-05 -1.27802e-05 0.0141846)
(-2.23463e-06 -7.48854e-06 0.0143375)
(-5.66367e-06 -9.4582e-06 0.0143241)
(-9.68623e-06 -1.45824e-05 0.0142947)
(-1.47898e-05 -1.79594e-05 0.0142526)
(1.02794e-06 -8.83053e-07 0.0140499)
(-1.94793e-06 -7.44032e-07 0.0140389)
(-4.65192e-06 -2.84361e-06 0.0140113)
(-7.55492e-06 -5.69984e-06 0.0139887)
(-6.21321e-07 -3.10019e-06 0.0141802)
(-3.45368e-06 -3.31303e-06 0.0141659)
(-6.08488e-06 -6.32298e-06 0.0141341)
(-9.51882e-06 -8.19132e-06 0.0141004)
(-1.6747e-06 -4.56758e-06 0.0142768)
(-4.1412e-06 -5.02134e-06 0.014262)
(-6.61604e-06 -7.60375e-06 0.0142301)
(-9.64889e-06 -8.65846e-06 0.0141891)
(-2.83713e-06 -6.03732e-06 0.014343)
(-4.97256e-06 -7.38129e-06 0.0143301)
(-7.07299e-06 -1.01746e-05 0.0143017)
(-9.45633e-06 -1.24309e-05 0.0142575)
(-1.38536e-07 -6.96277e-07 0.0140543)
(-1.91988e-06 -7.53015e-07 0.0140424)
(-3.40114e-06 -1.96436e-06 0.0140166)
(-4.69169e-06 -3.60536e-06 0.0139909)
(-1.26275e-06 -2.33965e-06 0.0141845)
(-2.98393e-06 -2.67518e-06 0.0141697)
(-4.42402e-06 -4.34926e-06 0.0141392)
(-6.04164e-06 -5.50271e-06 0.0141029)
(-1.91593e-06 -3.50634e-06 0.0142809)
(-3.43509e-06 -3.90669e-06 0.0142659)
(-4.78093e-06 -5.25824e-06 0.0142347)
(-6.21048e-06 -5.91736e-06 0.0141918)
(-2.61448e-06 -4.68598e-06 0.0143468)
(-3.92888e-06 -5.59746e-06 0.0143339)
(-5.04237e-06 -7.18063e-06 0.0143057)
(-6.18467e-06 -8.67404e-06 0.0142602)
(-5.0743e-07 -5.24896e-07 0.0140573)
(-1.60102e-06 -6.3624e-07 0.0140448)
(-2.45197e-06 -1.36666e-06 0.0140197)
(-3.00866e-06 -2.34569e-06 0.0139924)
(-1.28958e-06 -1.72773e-06 0.0141876)
(-2.35329e-06 -2.04859e-06 0.0141724)
(-3.17663e-06 -3.02278e-06 0.0141422)
(-3.95008e-06 -3.74756e-06 0.0141044)
(-1.70991e-06 -2.62556e-06 0.0142837)
(-2.65412e-06 -2.93739e-06 0.0142685)
(-3.41061e-06 -3.67417e-06 0.0142374)
(-4.09885e-06 -4.07241e-06 0.0141934)
(-2.14307e-06 -3.5442e-06 0.0143494)
(-2.95595e-06 -4.16059e-06 0.0143364)
(-3.55371e-06 -5.09384e-06 0.0143081)
(-4.1179e-06 -6.09052e-06 0.0142618)
(-5.47247e-07 -3.83291e-07 0.0140594)
(-1.23195e-06 -4.93988e-07 0.0140465)
(-1.73645e-06 -9.47808e-07 0.0140216)
(-1.96099e-06 -1.54705e-06 0.0139934)
(-1.09324e-06 -1.2487e-06 0.0141896)
(-1.76077e-06 -1.51151e-06 0.0141742)
(-2.24488e-06 -2.09977e-06 0.014144)
(-2.61547e-06 -2.56104e-06 0.0141054)
(-1.36948e-06 -1.91747e-06 0.0142856)
(-1.9634e-06 -2.1461e-06 0.0142702)
(-2.39907e-06 -2.56556e-06 0.014239)
(-2.73367e-06 -2.80655e-06 0.0141944)
(-1.64399e-06 -2.61042e-06 0.0143512)
(-2.1531e-06 -3.02558e-06 0.014338)
(-2.47772e-06 -3.59632e-06 0.0143096)
(-2.76246e-06 -4.26463e-06 0.0142629)
(-4.51376e-07 -2.69246e-07 0.0140607)
(-8.81754e-07 -3.58015e-07 0.0140476)
(-1.18605e-06 -6.40207e-07 0.0140228)
(-1.26781e-06 -1.00978e-06 0.013994)
(-8.25792e-07 -8.72795e-07 0.014191)
(-1.24464e-06 -1.06765e-06 0.0141754)
(-1.53352e-06 -1.42735e-06 0.0141452)
(-1.71344e-06 -1.72022e-06 0.0141061)
(-1.00659e-06 -1.34767e-06 0.0142869)
(-1.3798e-06 -1.50616e-06 0.0142714)
(-1.63464e-06 -1.75099e-06 0.0142401)
(-1.80022e-06 -1.89666e-06 0.0141951)
(-1.1806e-06 -1.84558e-06 0.0143524)
(-1.49949e-06 -2.12134e-06 0.0143391)
(-1.67753e-06 -2.47671e-06 0.0143105)
(-1.82589e-06 -2.92022e-06 0.0142635)
(-2.88975e-07 -1.73822e-07 0.0140616)
(-5.51192e-07 -2.29229e-07 0.0140484)
(-7.34118e-07 -3.9487e-07 0.0140235)
(-7.64095e-07 -6.14206e-07 0.0139945)
(-5.30669e-07 -5.68102e-07 0.0141919)
(-7.85266e-07 -6.93937e-07 0.0141762)
(-9.58056e-07 -9.04988e-07 0.0141459)
(-1.0503e-06 -1.08233e-06 0.0141065)
(-6.43546e-07 -8.79902e-07 0.0142878)
(-8.69618e-07 -9.7933e-07 0.0142722)
(-1.01973e-06 -1.11798e-06 0.0142407)
(-1.10697e-06 -1.20172e-06 0.0141955)
(-7.49412e-07 -1.20947e-06 0.0143531)
(-9.42452e-07 -1.38378e-06 0.0143398)
(-1.04128e-06 -1.59914e-06 0.0143111)
(-1.12282e-06 -1.87883e-06 0.0142639)
(-6.39533e-08 -8.66381e-08 0.0140622)
(-2.08591e-07 -9.99418e-08 0.0140489)
(-3.16919e-07 -1.73254e-07 0.0140239)
(-3.43225e-07 -2.81337e-07 0.0139948)
(-1.97735e-07 -3.0597e-07 0.0141925)
(-3.37185e-07 -3.62448e-07 0.0141767)
(-4.38611e-07 -4.61965e-07 0.0141463)
(-4.97792e-07 -5.51308e-07 0.0141068)
(-2.56602e-07 -4.79922e-07 0.0142883)
(-3.79974e-07 -5.24417e-07 0.0142726)
(-4.67655e-07 -5.87497e-07 0.0142411)
(-5.23949e-07 -6.2641e-07 0.0141958)
(-3.10437e-07 -6.65153e-07 0.0143536)
(-4.16684e-07 -7.55739e-07 0.0143402)
(-4.7388e-07 -8.66581e-07 0.0143115)
(-5.26082e-07 -1.01634e-06 0.0142642)
(2.69074e-07 4.79687e-09 0.0140624)
(2.07089e-07 5.06623e-08 0.0140491)
(1.36869e-07 6.72378e-08 0.0140242)
(8.102e-08 5.81756e-08 0.013995)
(2.34553e-07 -5.49783e-08 0.0141928)
(1.74872e-07 -3.18761e-08 0.0141769)
(1.092e-07 -3.06783e-08 0.0141465)
(4.50356e-08 -3.73773e-08 0.014107)
(2.25353e-07 -1.01398e-07 0.0142885)
(1.71945e-07 -8.52202e-08 0.0142729)
(1.14678e-07 -7.92219e-08 0.0142413)
(5.54446e-08 -7.44034e-08 0.014196)
(2.18374e-07 -1.53231e-07 0.0143538)
(1.70581e-07 -1.61977e-07 0.0143404)
(1.25247e-07 -1.78841e-07 0.0143117)
(7.22935e-08 -2.13123e-07 0.0142644)
(0.00754271 0.000797556 0.0325739)
(0.00497839 -0.00150965 0.0228877)
(0.00519382 -0.000340683 0.0160008)
(0.00778839 0.00355749 0.0310232)
(0.00318934 -0.000232203 0.0254334)
(0.00367404 0.00137708 0.0122898)
(0.00268512 -0.000517649 0.00242002)
(0.00566655 0.000543449 0.0165699)
(0.00392268 -0.000142621 0.0131163)
(0.00765728 8.41277e-05 0.0170558)
(0.00521224 0.00280262 0.0292102)
(0.000870819 0.000496988 0.0204505)
(0.000557582 0.000311835 0.00532148)
(0.00574833 -0.0018182 0.0168655)
(0.00679194 -0.00242086 0.0274279)
(0.000909711 -0.000512988 0.0325738)
(0.00070453 0.000405663 0.00453283)
(0.00229956 0.00446991 0.0319557)
(0.00133596 0.00388763 0.0207426)
(0.00160217 0.00339614 0.0228682)
(0.00333654 0.00156558 0.0176395)
(0.00489883 0.000641571 0.0199404)