/*--------------------------------*- C++ -*----------------------------------*\
| =========                 |                                                 |
| \\      /  F ield         | OpenFOAM: The Open Source CFD Toolbox           |
|  \\    /   O peration     | Version:  2506                                  |
|   \\  /    A nd           | Website:  www.openfoam.com                      |
|    \\/     M anipulation  |                                                 |
\*---------------------------------------------------------------------------*/
FoamFile
{
    version     2.0;
    format      ascii;
    arch        "LSB;label=32;scalar=64";
    class       volVectorField;
    location    "0.07";
    object      Us;
}
// * * * * * * * * * * * * * * * * * * * * * * * * * * * * * * * * * * * * * //

dimensions      [0 1 -1 0 0 0 0];

internalField   nonuniform List<vector> 
1152
(
(-7.14457e-05 7.4022e-05 0.000208516)
(-0.000154743 0.000424847 -4.17866e-05)
(2.5272e-05 0.000670937 -0.000522245)
(0.000189879 0.000693437 -0.000250298)
(-4.68853e-05 -4.78858e-05 -0.000715444)
(0.000354963 0.000159083 -3.41376e-05)
(0.000250926 0.000855365 -0.000149165)
(0.000217824 0.00117292 -0.000248757)
(0.000446626 0.000637663 -2.79202e-05)
(0.000118446 3.76365e-05 -0.000376074)
(-0.00106181 0.00141968 -0.000254527)
(-0.000185992 0.00112342 -0.000229669)
(-0.000268363 0.000240862 -0.000487003)
(-0.000100092 0.000470786 -0.000312552)
(-0.00053991 0.000787815 -0.000294006)
(-0.000349228 -0.00013114 0.000247028)
(-0.00126426 0.000969038 0.00120822)
(-0.0014438 0.000294059 0.000925002)
(-6.45695e-05 0.00172291 0.00146692)
(0.000666538 0.000947201 0.00129619)
(-0.00102362 0.000909198 0.00160548)
(0.000226415 0.00153378 0.00212076)
(0.000425743 0.00188381 0.0017292)
(0.000567306 0.000617135 0.00279803)
(-0.00124803 0.000573166 0.00294329)
(-0.000419042 0.000867705 0.00174142)
(-0.000818052 0.00074571 0.0013166)
(4.75901e-05 0.000659936 0.000860926)
(-0.000807056 0.00022203 0.00256156)
(-0.00129187 -1.52431e-05 0.000690382)
(-0.0011889 0.000401585 0.00141079)
(-0.000351169 0.00129831 0.0017725)
(-0.000530401 0.000224452 0.00431734)
(-0.000152417 0.000103255 0.004012)
(-0.000496996 0.000881016 0.00428244)
(-0.000595852 0.000100821 0.00249564)
(-6.84577e-06 -0.000458342 0.00348828)
(0.000143558 2.05089e-05 0.00439291)
(-9.99972e-05 0.00100006 0.00289901)
(-0.000242374 0.000331981 0.00335391)
(-0.000466904 -0.000463781 0.003466)
(-0.00045673 0.000399002 0.00439025)
(-0.000197604 0.00037877 0.0033669)
(-0.00012011 0.000134457 0.00329684)
(-0.000312043 4.35494e-05 0.00430526)
(-0.000235943 2.25202e-05 0.00365896)
(-0.000516925 7.04206e-05 0.00315877)
(-0.000103633 -6.53261e-05 0.00346227)
(-0.00022432 -0.000369781 0.0037301)
(-0.000160778 -0.000428323 0.00386635)
(-0.000592183 0.000367106 0.00278903)
(-0.000694781 0.000180882 0.00229477)
(-0.000419576 -0.000178429 0.00335006)
(-0.000702187 -0.000173743 0.00327692)
(-0.000377064 0.00036036 0.00270686)
(0.000158998 0.000300966 0.00270521)
(-0.000369516 -0.000171594 0.00360778)
(-0.000561565 -5.54866e-05 0.00358445)
(0.000132178 0.000245694 0.00358928)
(-0.000325696 0.000174322 0.00296567)
(-0.000228039 -0.000205286 0.00373899)
(-0.000156307 0.00012106 0.00353668)
(0.000176607 0.000171802 0.00338694)
(-0.000259788 1.18159e-05 0.00307202)
(0.000150599 -0.000140119 0.00352231)
(-7.66105e-05 -8.96122e-05 0.00243566)
(-0.00071326 0.0001801 0.00247521)
(-0.000318987 2.30148e-05 0.00248328)
(-0.00012798 3.53747e-07 0.00330566)
(-0.000211642 3.36939e-05 0.00249984)
(-0.000350421 -0.000178462 0.00243055)
(-6.08487e-05 -4.03615e-05 0.0023846)
(-0.000390247 -4.7967e-05 0.00334274)
(-0.000284193 2.05528e-05 0.00287069)
(-0.000364302 -6.09202e-05 0.00271136)
(-0.000170131 2.43508e-05 0.00270088)
(0.000120529 -0.00014252 0.00322823)
(0.000259648 0.000319053 0.00320714)
(0.000112872 0.000214945 0.00290274)
(-0.000134879 -0.000103071 0.00280911)
(0.000118406 -0.000212494 0.0024523)
(4.39493e-05 -0.000249795 0.00219817)
(-0.000202027 -0.000163197 0.00222813)
(8.29333e-06 -0.000305288 0.00232724)
(-0.000169224 2.77315e-05 0.00256986)
(-0.000161864 -0.000131441 0.0022313)
(-5.56407e-05 -8.98547e-05 0.00242801)
(8.6281e-05 -0.000187332 0.00208759)
(-0.000196756 -0.000170169 0.00282248)
(-3.30768e-05 -0.000270963 0.00260977)
(1.59243e-05 -0.000207173 0.00268315)
(-1.34891e-05 -0.000174611 0.00241798)
(0.000574656 -0.000510734 0.00337182)
(0.000242316 -0.000222007 0.00273016)
(-8.92981e-06 -0.000159668 0.00291069)
(-5.49457e-05 0.000102517 0.00267338)
(0.000522134 -0.000203296 0.00189116)
(9.61392e-05 -4.38414e-05 0.00240533)
(2.73886e-05 -0.000303031 0.00209055)
(-0.000241288 -0.000529057 0.00200498)
(-2.11061e-05 1.30782e-05 0.00268288)
(-4.74088e-05 0.000141252 0.00221001)
(0.000239009 -0.000140593 0.00212073)
(4.43891e-05 -0.000300029 0.00204809)
(-0.000208602 -1.95304e-05 0.00237306)
(6.96314e-05 -0.00034139 0.00266152)
(0.000254772 -0.000228636 0.00255759)
(0.000323082 -6.12586e-05 0.00251081)
(7.5196e-05 0.000131715 0.00254449)
(0.000174774 0.000262151 0.00247525)
(-0.000180879 0.00141173 0.00203899)
(-1.97578e-06 0.000231006 0.00253451)
(0 0 0)
(0 0 0)
(0 0 0)
(0 0 0)
(0 0 0)
(0 0 0)
(0 0 0)
(0 0 0)
(0 0 0)
(0 0 0)
(0 0 0)
(0 0 0)
(0.000858952 -9.42842e-05 0.00248963)
(0 0 0)
(0 0 0)
(0 0 0)
(0 0 0)
(0 0 0)
(0 0 0)
(0 0 0)
(0 0 0)
(0 0 0)
(0 0 0)
(0 0 0)
(0 0 0)
(0 0 0)
(0 0 0)
(0 0 0)
(0 0 0)
(0 0 0)
(0 0 0)
(0 0 0)
(0 0 0)
(0 0 0)
(0 0 0)
(0 0 0)
(0 0 0)
(0 0 0)
(0 0 0)
(0 0 0)
(0 0 0)
(0 0 0)
(0 0 0)
(0 0 0)
(0 0 0)
(0 0 0)
(0 0 0)
(0 0 0)
(0 0 0)
(0 0 0)
(0 0 0)
(0 0 0)
(0 0 0)
(0 0 0)
(0 0 0)
(0 0 0)
(0 0 0)
(0 0 0)
(0 0 0)
(0 0 0)
(0 0 0)
(0 0 0)
(0 0 0)
(0 0 0)
(0 0 0)
(0 0 0)
(0 0 0)
(0 0 0)
(0 0 0)
(0 0 0)
(0 0 0)
(0 0 0)
(0 0 0)
(0 0 0)
(0 0 0)
(0 0 0)
(0 0 0)
(0 0 0)
(0 0 0)
(0 0 0)
(0 0 0)
(0 0 0)
(0 0 0)
(0 0 0)
(0 0 0)
(0 0 0)
(0 0 0)
(0 0 0)
(0 0 0)
(0 0 0)
(0 0 0)
(0 0 0)
(0 0 0)
(0 0 0)
(0 0 0)
(0 0 0)
(0 0 0)
(0 0 0)
(0 0 0)
(0 0 0)
(0 0 0)
(0 0 0)
(0 0 0)
(0 0 0)
(0 0 0)
(0 0 0)
(0 0 0)
(0 0 0)
(0 0 0)
(0 0 0)
(0 0 0)
(0 0 0)
(0 0 0)
(0 0 0)
(0 0 0)
(0 0 0)
(0 0 0)
(0 0 0)
(0 0 0)
(0 0 0)
(0 0 0)
(0 0 0)
(0 0 0)
(0 0 0)
(0 0 0)
(0 0 0)
(0 0 0)
(0 0 0)
(0 0 0)
(0 0 0)
(0 0 0)
(0 0 0)
(0 0 0)
(0 0 0)
(0 0 0)
(0 0 0)
(0 0 0)
(0 0 0)
(0 0 0)
(0 0 0)
(0 0 0)
(0 0 0)
(0 0 0)
(0 0 0)
(0 0 0)
(0 0 0)
(0 0 0)
(0 0 0)
(0 0 0)
(0 0 0)
(0 0 0)
(0 0 0)
(0 0 0)
(0 0 0)
(0 0 0)
(0 0 0)
(0 0 0)
(0 0 0)
(0 0 0)
(0 0 0)
(0 0 0)
(0 0 0)
(0 0 0)
(0 0 0)
(0 0 0)
(0 0 0)
(0 0 0)
(0 0 0)
(0 0 0)
(0 0 0)
(0 0 0)
(0 0 0)
(0 0 0)
(0 0 0)
(0 0 0)
(0 0 0)
(0 0 0)
(0 0 0)
(0 0 0)
(0 0 0)
(0 0 0)
(0 0 0)
(0 0 0)
(0 0 0)
(0 0 0)
(0 0 0)
(0 0 0)
(0 0 0)
(0 0 0)
(0 0 0)
(0 0 0)
(0 0 0)
(0 0 0)
(0 0 0)
(0 0 0)
(0 0 0)
(0 0 0)
(0 0 0)
(0 0 0)
(0 0 0)
(0 0 0)
(0 0 0)
(0 0 0)
(0 0 0)
(0 0 0)
(0 0 0)
(0 0 0)
(0 0 0)
(0 0 0)
(0 0 0)
(0 0 0)
(0 0 0)
(0 0 0)
(0 0 0)
(0 0 0)
(0 0 0)
(0 0 0)
(0 0 0)
(0 0 0)
(0 0 0)
(0 0 0)
(0 0 0)
(0 0 0)
(0 0 0)
(0 0 0)
(0 0 0)
(0 0 0)
(0 0 0)
(0 0 0)
(0 0 0)
(0 0 0)
(0 0 0)
(0 0 0)
(0 0 0)
(0 0 0)
(0 0 0)
(0 0 0)
(0 0 0)
(0 0 0)
(0 0 0)
(0 0 0)
(0 0 0)
(0 0 0)
(0 0 0)
(0 0 0)
(0 0 0)
(0 0 0)
(0 0 0)
(0 0 0)
(0 0 0)
(0 0 0)
(0 0 0)
(0 0 0)
(0 0 0)
(0 0 0)
(0 0 0)
(0 0 0)
(0 0 0)
(0 0 0)
(0 0 0)
(0 0 0)
(0 0 0)
(0 0 0)
(0 0 0)
(0 0 0)
(0 0 0)
(0 0 0)
(0 0 0)
(0 0 0)
(0 0 0)
(0 0 0)
(0 0 0)
(-0.000258044 2.43656e-05 -0.000187319)
(4.01315e-06 -9.50295e-05 -0.000147246)
(0.000290229 3.74241e-05 -4.10193e-05)
(3.96386e-05 -9.12891e-06 -0.000152559)
(-3.67691e-05 0.000231793 -0.000202678)
(0.000167545 -5.52279e-05 -0.000305204)
(0.000316721 -7.85248e-05 -0.000111271)
(0.000237992 5.08114e-05 -0.000116974)
(-3.34549e-05 -2.44999e-05 -0.000353269)
(0.000180219 -0.000139518 4.34727e-05)
(0.000159632 4.49281e-05 -0.000230406)
(0.000164271 1.67015e-05 -6.75092e-05)
(6.52724e-05 -0.000196638 -3.35606e-05)
(-8.8274e-05 -0.00010839 -7.07088e-05)
(0.00013649 0.000139295 -0.000307412)
(0.0004816 0.000155405 -0.000155449)
(-0.00160204 0.00142324 0.00108458)
(0.000744667 0.000167802 0.00219279)
(0.000500323 -0.000227835 0.00137544)
(0.000283853 -0.000293639 0.0024313)
(-0.00214526 0.00114336 0.0019795)
(-0.000216016 0.000333913 0.00157195)
(0.000810672 -0.000645404 0.00209731)
(0.00103126 -0.00030073 0.000756703)
(-0.00212805 0.00164736 0.00268986)
(-0.000764927 0.00109298 0.00185593)
(-0.000244447 0.000213906 0.00225044)
(0.00113404 0.000374291 0.00200034)
(-0.00141887 0.000164491 0.00206328)
(-0.0013681 0.000500281 0.000563507)
(-0.000229423 0.00104892 0.000391003)
(0.000555365 0.000390162 0.00129182)
(-0.00067653 9.71694e-05 0.00360025)
(0.000412759 0.000343748 0.00309973)
(-0.000252194 0.00026907 0.00282522)
(0.00102322 0.000421848 0.00323365)
(-0.0010643 0.00110286 0.0029538)
(-0.000592198 0.000459426 0.002896)
(4.82113e-05 0.00081921 0.00301923)
(0.000352851 0.000424791 0.00255156)
(-0.000237637 0.00128555 0.00285859)
(-0.000105747 0.000604317 0.00193558)
(-0.000237068 0.000900126 0.00269216)
(-3.16479e-05 0.000922852 0.00304336)
(-7.476e-05 0.000812725 0.00331622)
(2.76694e-05 0.000937827 0.00351795)
(-0.000274611 0.00098091 0.00340407)
(-0.000997836 0.000785938 0.00220265)
(-0.000199825 -8.18185e-05 0.00111504)
(0.000196901 -2.30388e-05 0.00144138)
(-3.42905e-05 -1.08102e-05 0.00124382)
(-0.000256159 0.000587761 0.00213589)
(-3.401e-05 0.000226304 0.00173354)
(-0.000377133 0.000295687 0.00183954)
(-0.000430571 0.000452147 0.00168537)
(-0.000156576 0.00100246 0.00213372)
(-0.00014032 0.000493891 0.00358475)
(-0.000163253 0.000533636 0.0024116)
(-0.000791779 0.000536789 0.00222807)
(-0.000714795 0.000329422 0.00192573)
(-0.000170644 -0.000871549 0.00453351)
(0.000114706 -0.000206764 0.00319903)
(0.000158416 0.000266354 0.00345145)
(-0.0003601 0.000498736 0.00209191)
(-0.000356818 0.000418332 0.00100827)
(-0.000547454 -0.000689346 0.0022731)
(-0.000271761 -9.34518e-05 0.000795527)
(-0.000319045 -2.7743e-05 0.00133287)
(-0.000347958 0.000758199 0.00155483)
(-0.000315685 0.00051616 0.00136316)
(-3.80677e-06 0.000342495 0.00223769)
(-0.000306572 -3.85659e-05 0.00161772)
(-0.000360529 -0.000297927 0.00314297)
(-0.000459975 0.000284973 0.00253004)
(-0.000502849 0.000656636 0.00183534)
(-0.000470775 0.000366384 0.00186326)
(-0.000586894 -0.00085469 0.00340235)
(-0.000153932 -0.000187519 0.00220517)
(-0.000731399 0.00033973 0.0021272)
(-0.000536529 0.000264854 0.00200814)
(-0.000245168 0.000233784 0.000644672)
(-0.000238584 -9.1603e-05 0.00064928)
(-0.0002464 1.89595e-05 0.000710911)
(0.000161345 0.000188965 0.000636876)
(0.000384036 0.000324979 0.00142193)
(-9.33118e-05 0.00033296 0.00115899)
(-0.000202833 0.00019426 0.00103956)
(-0.000250836 5.55696e-05 0.000931315)
(0.000302024 6.50496e-05 0.00229852)
(-0.000244067 -8.91245e-05 0.00173837)
(-8.17918e-05 0.000203432 0.00144084)
(-0.000254309 6.17805e-05 0.00127934)
(0.000477751 -6.78351e-05 0.00251478)
(9.87891e-05 -0.000152666 0.002048)
(-0.000264978 -5.2609e-05 0.0020604)
(-0.000149174 -0.000105951 0.00180338)
(0.000296186 -0.000210014 0.000478615)
(0.00020969 5.35717e-05 0.000378863)
(-0.00062388 -0.00030467 0.000265721)
(-0.00034167 -0.000472847 0.000372712)
(0.000282632 -0.000420325 0.00133292)
(-0.000381591 -0.00060874 0.00105621)
(-0.000590686 -0.000344676 0.00088058)
(-0.000541097 -0.000647268 0.000830023)
(0.000402847 0.000261215 0.00226961)
(0.000522032 -0.000436298 0.00163168)
(0.000184404 -0.000482844 0.00179739)
(-3.41011e-05 -0.000420743 0.00145341)
(0.00145873 0.00080131 0.00209254)
(0.000524418 -0.000745621 0.00191847)
(0.000303808 -0.000705162 0.00199673)
(-1.87777e-05 -0.000652521 0.00190208)
(0 0 0)
(0 0 0)
(0 0 0)
(0 0 0)
(0 0 0)
(0 0 0)
(0 0 0)
(0 0 0)
(0 0 0)
(0 0 0)
(0 0 0)
(0 0 0)
(0 0 0)
(0 0 0)
(0 0 0)
(0 0 0)
(0 0 0)
(0 0 0)
(0 0 0)
(0 0 0)
(0 0 0)
(0 0 0)
(0 0 0)
(0 0 0)
(0 0 0)
(0 0 0)
(0 0 0)
(0 0 0)
(0 0 0)
(0 0 0)
(0 0 0)
(0 0 0)
(0 0 0)
(0 0 0)
(0 0 0)
(0 0 0)
(0 0 0)
(0 0 0)
(0 0 0)
(0 0 0)
(0 0 0)
(0 0 0)
(0 0 0)
(0 0 0)
(0 0 0)
(0 0 0)
(0 0 0)
(0 0 0)
(0 0 0)
(0 0 0)
(0 0 0)
(0 0 0)
(0 0 0)
(0 0 0)
(0 0 0)
(0 0 0)
(0 0 0)
(0 0 0)
(0 0 0)
(0 0 0)
(0 0 0)
(0 0 0)
(0 0 0)
(0 0 0)
(0 0 0)
(0 0 0)
(0 0 0)
(0 0 0)
(0 0 0)
(0 0 0)
(0 0 0)
(0 0 0)
(0 0 0)
(0 0 0)
(0 0 0)
(0 0 0)
(0 0 0)
(0 0 0)
(0 0 0)
(0 0 0)
(0 0 0)
(0 0 0)
(0 0 0)
(0 0 0)
(0 0 0)
(0 0 0)
(0 0 0)
(0 0 0)
(0 0 0)
(0 0 0)
(0 0 0)
(0 0 0)
(0 0 0)
(0 0 0)
(0 0 0)
(0 0 0)
(0 0 0)
(0 0 0)
(0 0 0)
(0 0 0)
(0 0 0)
(0 0 0)
(0 0 0)
(0 0 0)
(0 0 0)
(0 0 0)
(0 0 0)
(0 0 0)
(0 0 0)
(0 0 0)
(0 0 0)
(0 0 0)
(0 0 0)
(0 0 0)
(0 0 0)
(0 0 0)
(0 0 0)
(0 0 0)
(0 0 0)
(0 0 0)
(0 0 0)
(0 0 0)
(0 0 0)
(0 0 0)
(0 0 0)
(0 0 0)
(0 0 0)
(0 0 0)
(0 0 0)
(0 0 0)
(0 0 0)
(0 0 0)
(0 0 0)
(0 0 0)
(0 0 0)
(0 0 0)
(0 0 0)
(0 0 0)
(0 0 0)
(0 0 0)
(0 0 0)
(0 0 0)
(0 0 0)
(0 0 0)
(0 0 0)
(0 0 0)
(0 0 0)
(0 0 0)
(0 0 0)
(0 0 0)
(0 0 0)
(0 0 0)
(0 0 0)
(0 0 0)
(0 0 0)
(0 0 0)
(0 0 0)
(0 0 0)
(0 0 0)
(0 0 0)
(0 0 0)
(0 0 0)
(0 0 0)
(0 0 0)
(0 0 0)
(0 0 0)
(0 0 0)
(0 0 0)
(0 0 0)
(0 0 0)
(0 0 0)
(0 0 0)
(0 0 0)
(0 0 0)
(0 0 0)
(0 0 0)
(0 0 0)
(0 0 0)
(0 0 0)
(0 0 0)
(0 0 0)
(0 0 0)
(0 0 0)
(0 0 0)
(0 0 0)
(0 0 0)
(0 0 0)
(0 0 0)
(0 0 0)
(0 0 0)
(0 0 0)
(0 0 0)
(0 0 0)
(0 0 0)
(0 0 0)
(0 0 0)
(0 0 0)
(0 0 0)
(0 0 0)
(0 0 0)
(0 0 0)
(0 0 0)
(0 0 0)
(0 0 0)
(0 0 0)
(0 0 0)
(0 0 0)
(0 0 0)
(0 0 0)
(0 0 0)
(0 0 0)
(0 0 0)
(0 0 0)
(0 0 0)
(0 0 0)
(0 0 0)
(0 0 0)
(0 0 0)
(0 0 0)
(0 0 0)
(0 0 0)
(0 0 0)
(0 0 0)
(0 0 0)
(0 0 0)
(0 0 0)
(0 0 0)
(0 0 0)
(0 0 0)
(0 0 0)
(0 0 0)
(0 0 0)
(0 0 0)
(0 0 0)
(0 0 0)
(0 0 0)
(0 0 0)
(0 0 0)
(0 0 0)
(0 0 0)
(0 0 0)
(0 0 0)
(0 0 0)
(0 0 0)
(0 0 0)
(0 0 0)
(0 0 0)
(0 0 0)
(0 0 0)
(0 0 0)
(0 0 0)
(0 0 0)
(0 0 0)
(0 0 0)
(0 0 0)
(0 0 0)
(0 0 0)
(0 0 0)
(0 0 0)
(0 0 0)
(0 0 0)
(0 0 0)
(0 0 0)
(0 0 0)
(0 0 0)
(0 0 0)
(0 0 0)
(0 0 0)
(0 0 0)
(0 0 0)
(0 0 0)
(0 0 0)
(0.000174971 0.000284963 7.56225e-05)
(0.00115109 -0.000123209 -7.79433e-05)
(0.000992254 0.000283838 -1.78984e-05)
(0.00045366 0.000514934 -0.000153998)
(0.00099161 0.000355527 -0.000790522)
(0.000695198 -5.39874e-05 -0.00160743)
(0.00176977 -0.000512176 -0.000647946)
(0.00103966 0.000276389 -0.000186358)
(0.000534326 0.000537825 -0.00023204)
(0.000554202 -0.000390676 -0.000306744)
(0.000460796 -0.000353901 -0.000111875)
(0.000177961 0.000368352 -8.28804e-06)
(1.95732e-05 1.09309e-05 -0.000454367)
(0.000373306 -0.000587031 -0.000626018)
(0.000127928 -0.000572346 -0.000259672)
(0.000112127 -5.41667e-05 9.54561e-05)
(0.000553615 0.000376845 0.000291966)
(0.000719601 0.00048339 0.00140894)
(0.000611761 0.00152763 0.0020614)
(0.000820474 0.00149758 0.00288142)
(0.00113749 0.000529167 0.00123867)
(0.00138803 -0.000407939 0.000956535)
(0.000793853 0.000479035 0.0027186)
(0.0010743 0.00110551 0.00325692)
(0.0010096 -9.89177e-05 0.00104762)
(0.00102717 -0.00146947 0.00278465)
(0.00110242 -0.000323457 0.00260727)
(-0.00010664 -0.000261693 0.00298081)
(0.00127386 -6.38179e-05 0.00238564)
(0.0013132 -0.000526741 0.0004643)
(0.0010168 0.000276526 0.00255734)
(7.99828e-05 0.000468586 0.00181581)
(2.27524e-05 0.00011317 0.002249)
(6.49389e-05 0.00101393 0.00269781)
(-0.000145619 0.000361147 0.00266282)
(0.000294018 9.23622e-05 0.00586723)
(0.00073059 -0.000191033 0.00394976)
(-0.000390872 -0.00039271 0.00287376)
(0.000109339 0.000545356 0.0043067)
(0.000964621 0.002207 0.0042478)
(6.99369e-05 3.47221e-05 0.00285546)
(-5.68267e-05 5.27262e-05 0.0023896)
(-0.000303948 0.000619366 0.0032622)
(8.11795e-05 0.000631745 0.00389796)
(0.00105672 -0.000160249 0.00362222)
(0.000443127 -0.000275893 0.00220224)
(-6.58717e-05 -0.000334044 0.00343233)
(0.000159582 2.76108e-05 0.00318366)
(-0.000560211 0.000406021 0.0020746)
(0.000275274 0.000572884 0.001916)
(-0.000377674 8.08848e-05 0.00204413)
(-0.000268576 -6.25006e-05 0.00414544)
(-0.000539634 -1.62035e-05 0.00254421)
(-0.000337172 -0.000118988 0.00186421)
(-0.000332294 0.000242555 0.00256619)
(0.000262706 0.000625781 0.00245422)
(-0.000157002 -0.000313807 0.00216855)
(-0.00043712 -0.000116378 0.00188678)
(-0.000376003 0.000253884 0.00230892)
(-9.88338e-05 0.000432577 0.00376903)
(-8.32573e-05 -0.000289669 0.00273554)
(-0.000191092 -0.000272966 0.00217102)
(0.000291856 -0.000419167 0.00273613)
(-7.6536e-05 -0.000175899 0.00282254)
(-0.000403597 -0.000167594 0.00188141)
(-0.00022057 0.000170552 0.00166113)
(0.000109733 0.000343985 0.00139985)
(4.11115e-05 3.59838e-05 0.00167376)
(-6.66867e-05 -6.72355e-05 0.00205186)
(-0.000299296 -0.000419706 0.00246913)
(-0.000151887 5.11051e-05 0.00161695)
(-8.22442e-06 0.000140487 0.00148948)
(-0.000151719 2.63335e-05 0.00259202)
(-0.000442017 -2.25516e-05 0.00226797)
(0.000318712 -0.00133534 0.00317549)
(-0.0004699 0.000178438 0.00192289)
(-2.20785e-05 -1.21086e-05 0.00299723)
(-0.000555106 -1.10679e-05 0.00225)
(-0.000363398 0.000103691 0.00210539)
(-0.000144908 0.000112309 0.00226201)
(7.29958e-07 -0.000202998 0.00190594)
(3.14987e-05 1.38065e-05 0.00130833)
(-0.000236173 -0.000132209 0.00117094)
(-0.000284987 -5.92334e-05 0.00082232)
(-9.69063e-05 -0.000198082 0.00212586)
(-9.12517e-06 -3.60614e-05 0.00218687)
(9.87836e-05 2.00415e-05 0.00230051)
(-0.000106702 -0.00015441 0.00103376)
(-1.80285e-05 -4.69902e-05 0.00236939)
(-9.28952e-05 -5.94333e-05 0.00243733)
(-0.000215615 2.87321e-05 0.00236129)
(-1.78404e-05 9.50973e-05 0.00113327)
(-4.50107e-05 0.00023096 0.00289521)
(-9.4561e-05 -7.8694e-06 0.00261359)
(-0.000340821 1.75186e-05 0.0022275)
(-0.000173776 3.48568e-06 0.00148826)
(-0.000501861 -0.000195719 0.001935)
(-0.000431706 -0.000522217 0.00136414)
(-0.000538212 -0.00039255 0.000783228)
(-0.000340351 -0.000502122 0.00050733)
(-0.000120846 -0.000378888 0.00212904)
(0.000280661 -0.00078799 0.00213642)
(-0.000113871 -6.27311e-05 0.00197799)
(-0.000288776 -0.000115127 0.00099033)
(0.0011246 0.000235757 0.00215902)
(5.56493e-05 -0.000572142 0.00236426)
(9.0767e-05 -0.000110773 0.00217225)
(0.000786378 8.34332e-05 0.00101333)
(0.000720667 0.000481755 0.00190165)
(6.88352e-05 -1.1164e-05 0.00257969)
(-0.000635981 -0.000258374 0.0020955)
(-0.000846883 -0.00095664 0.000171473)
(0 0 0)
(0 0 0)
(0 0 0)
(0 0 0)
(0 0 0)
(0 0 0)
(0 0 0)
(0 0 0)
(0 0 0)
(0 0 0)
(0 0 0)
(0 0 0)
(0 0 0)
(0 0 0)
(0 0 0)
(0 0 0)
(0 0 0)
(0 0 0)
(0 0 0)
(0 0 0)
(0 0 0)
(0 0 0)
(0 0 0)
(0 0 0)
(0 0 0)
(0 0 0)
(0 0 0)
(0 0 0)
(0 0 0)
(0 0 0)
(0 0 0)
(0 0 0)
(0 0 0)
(0 0 0)
(0 0 0)
(0 0 0)
(0 0 0)
(0 0 0)
(0 0 0)
(0 0 0)
(0 0 0)
(0 0 0)
(0 0 0)
(0 0 0)
(0 0 0)
(0 0 0)
(0 0 0)
(0 0 0)
(0 0 0)
(0 0 0)
(0 0 0)
(0 0 0)
(0 0 0)
(0 0 0)
(0 0 0)
(0 0 0)
(0 0 0)
(0 0 0)
(0 0 0)
(0 0 0)
(0 0 0)
(0 0 0)
(0 0 0)
(0 0 0)
(0 0 0)
(0 0 0)
(0 0 0)
(0 0 0)
(0 0 0)
(0 0 0)
(0 0 0)
(0 0 0)
(0 0 0)
(0 0 0)
(0 0 0)
(0 0 0)
(0 0 0)
(0 0 0)
(0 0 0)
(0 0 0)
(0 0 0)
(0 0 0)
(0 0 0)
(0 0 0)
(0 0 0)
(0 0 0)
(0 0 0)
(0 0 0)
(0 0 0)
(0 0 0)
(0 0 0)
(0 0 0)
(0 0 0)
(0 0 0)
(0 0 0)
(0 0 0)
(0 0 0)
(0 0 0)
(0 0 0)
(0 0 0)
(0 0 0)
(0 0 0)
(0 0 0)
(0 0 0)
(0 0 0)
(0 0 0)
(0 0 0)
(0 0 0)
(0 0 0)
(0 0 0)
(0 0 0)
(0 0 0)
(0 0 0)
(0 0 0)
(0 0 0)
(0 0 0)
(0 0 0)
(0 0 0)
(0 0 0)
(0 0 0)
(0 0 0)
(0 0 0)
(0 0 0)
(0 0 0)
(0 0 0)
(0 0 0)
(0 0 0)
(0 0 0)
(0 0 0)
(0 0 0)
(0 0 0)
(0 0 0)
(0 0 0)
(0 0 0)
(0 0 0)
(0 0 0)
(0 0 0)
(0 0 0)
(0 0 0)
(0 0 0)
(0 0 0)
(0 0 0)
(0 0 0)
(0 0 0)
(0 0 0)
(0 0 0)
(0 0 0)
(0 0 0)
(0 0 0)
(0 0 0)
(0 0 0)
(0 0 0)
(0 0 0)
(0 0 0)
(0 0 0)
(0 0 0)
(0 0 0)
(0 0 0)
(0 0 0)
(0 0 0)
(0 0 0)
(0 0 0)
(0 0 0)
(0 0 0)
(0 0 0)
(0 0 0)
(0 0 0)
(0 0 0)
(0 0 0)
(0 0 0)
(0 0 0)
(0 0 0)
(0 0 0)
(0 0 0)
(0 0 0)
(0 0 0)
(0 0 0)
(0 0 0)
(0 0 0)
(0 0 0)
(0 0 0)
(0 0 0)
(0 0 0)
(0 0 0)
(0 0 0)
(0 0 0)
(0 0 0)
(0 0 0)
(0 0 0)
(0 0 0)
(0 0 0)
(0 0 0)
(0 0 0)
(0 0 0)
(0 0 0)
(0 0 0)
(0 0 0)
(0 0 0)
(0 0 0)
(0 0 0)
(0 0 0)
(0 0 0)
(0 0 0)
(0 0 0)
(0 0 0)
(0 0 0)
(0 0 0)
(0 0 0)
(0 0 0)
(0 0 0)
(0 0 0)
(0 0 0)
(0 0 0)
(0 0 0)
(0 0 0)
(0 0 0)
(0 0 0)
(0 0 0)
(0 0 0)
(0 0 0)
(0 0 0)
(0 0 0)
(0 0 0)
(0 0 0)
(0 0 0)
(0 0 0)
(0 0 0)
(0 0 0)
(0 0 0)
(0 0 0)
(0 0 0)
(0 0 0)
(0 0 0)
(0 0 0)
(0 0 0)
(0 0 0)
(0 0 0)
(0 0 0)
(0 0 0)
(0 0 0)
(0 0 0)
(0 0 0)
(0 0 0)
(0 0 0)
(0 0 0)
(0 0 0)
(0 0 0)
(0 0 0)
(0 0 0)
(0 0 0)
(0 0 0)
(0 0 0)
(0 0 0)
(0 0 0)
(0 0 0)
(0 0 0)
(0 0 0)
(0 0 0)
(0 0 0)
(0 0 0)
(0 0 0)
(0 0 0)
(0 0 0)
(0 0 0)
(0 0 0)
(0 0 0)
(0 0 0)
(0 0 0)
(0 0 0)
(0 0 0)
(0 0 0)
(0 0 0)
)
;

boundaryField
{
    inlet
    {
        type            zeroGradient;
    }
    outlet
    {
        type            zeroGradient;
    }
    wall
    {
        type            zeroGradient;
    }
    procBoundary1to0
    {
        type            processor;
        value           nonuniform List<vector> 
192
(
(-0.000262899 0.000321526 1.62589e-05)
(0.000133397 0.000888759 -0.000517139)
(0.000329051 0.000708146 -0.000458985)
(0.0004554 -3.02283e-05 -0.000646372)
(1.0149e-05 0.000608883 0.00144154)
(-8.42208e-05 0.000310031 0.00264759)
(0.000479759 -0.000191995 0.00264435)
(-8.73031e-06 0.000558243 0.00308435)
(0.00024539 -0.000402551 0.00323156)
(-0.00041611 -0.000781667 0.00361878)
(-0.000195568 -0.000593333 0.00382028)
(-0.000411588 -0.000758712 0.004307)
(-0.00018328 -0.000665613 0.00372502)
(0.000428598 -0.000370275 0.00499588)
(-0.000194836 -0.000139501 0.00368846)
(-0.000162142 -0.000173123 0.00362552)
(0.000134895 0.000130623 0.00309846)
(6.62313e-05 -0.000473985 0.002794)
(0.000114224 -0.000341239 0.00319552)
(-0.000269761 -0.00018071 0.00325953)
(0.000542406 4.05059e-06 0.00268627)
(-0.000141384 -3.25104e-05 0.00273783)
(-0.000314015 8.45936e-05 0.00299606)
(-0.000108669 0.000175698 0.00291162)
(-4.30451e-05 -0.000855637 0.00238383)
(-0.000342044 -0.000511119 0.00261939)
(-0.000240619 -0.000237243 0.0028813)
(0.000153389 0.000624741 0.00282331)
(0 0 0)
(0 0 0)
(0 0 0)
(0 0 0)
(0 0 0)
(0 0 0)
(0 0 0)
(0 0 0)
(0 0 0)
(0 0 0)
(0 0 0)
(0 0 0)
(0 0 0)
(0 0 0)
(0 0 0)
(0 0 0)
(0 0 0)
(0 0 0)
(0 0 0)
(0 0 0)
(0 0 0)
(0 0 0)
(0 0 0)
(0 0 0)
(0 0 0)
(0 0 0)
(0 0 0)
(0 0 0)
(0 0 0)
(0 0 0)
(0 0 0)
(0 0 0)
(0 0 0)
(0 0 0)
(0 0 0)
(0 0 0)
(0 0 0)
(0 0 0)
(0 0 0)
(0 0 0)
(0 0 0)
(0 0 0)
(0 0 0)
(0 0 0)
(0 0 0)
(0 0 0)
(0 0 0)
(0 0 0)
(0 0 0)
(0 0 0)
(0 0 0)
(0 0 0)
(0 0 0)
(0 0 0)
(0 0 0)
(0 0 0)
(0 0 0)
(0 0 0)
(0 0 0)
(0 0 0)
(0 0 0)
(0 0 0)
(0 0 0)
(0 0 0)
(0 0 0)
(0 0 0)
(0 0 0)
(0 0 0)
(0.000150785 -0.000144138 -4.49889e-05)
(-3.00111e-05 0.000377272 -0.000338499)
(9.54449e-05 -0.000347017 -0.000552787)
(-0.000100803 -6.28897e-05 4.46288e-06)
(-0.00132554 0.000333534 0.0035174)
(-0.00220993 -7.14195e-05 0.00408525)
(-0.000779798 0.000257502 0.0018857)
(0.000566864 0.00030444 0.00255841)
(-0.0013131 -0.000440512 0.00278328)
(-0.00128085 0.000305877 0.00513607)
(0.000193937 0.000680232 0.00427522)
(-8.9975e-05 0.000137592 0.00374358)
(0.000553709 -8.54446e-06 0.00263254)
(0.000300132 2.48213e-05 0.00344237)
(-0.00038949 -0.000328972 0.00340149)
(0.000373917 0.000236664 0.00465677)
(-0.000396374 -0.000831841 0.00269726)
(-0.000543994 -9.73713e-06 0.00268463)
(7.68643e-05 0.000165573 0.00329295)
(0.000469854 0.000309636 0.00392253)
(-0.000313622 0.000735145 0.00141383)
(0.000162297 0.000519611 0.00174588)
(0.00068333 0.000182576 0.00242905)
(0.000821347 4.91795e-05 0.00229587)
(0.000282842 -9.83078e-05 0.00034857)
(-7.39519e-05 0.000217358 0.00161679)
(0.000734542 0.000260705 0.0024472)
(0.000528143 2.69703e-05 0.00193928)
(0 0 0)
(0 0 0)
(0 0 0)
(0 0 0)
(0 0 0)
(0 0 0)
(0 0 0)
(0 0 0)
(0 0 0)
(0 0 0)
(0 0 0)
(0 0 0)
(0 0 0)
(0 0 0)
(0 0 0)
(0 0 0)
(0 0 0)
(0 0 0)
(0 0 0)
(0 0 0)
(0 0 0)
(0 0 0)
(0 0 0)
(0 0 0)
(0 0 0)
(0 0 0)
(0 0 0)
(0 0 0)
(0 0 0)
(0 0 0)
(0 0 0)
(0 0 0)
(0 0 0)
(0 0 0)
(0 0 0)
(0 0 0)
(0 0 0)
(0 0 0)
(0 0 0)
(0 0 0)
(0 0 0)
(0 0 0)
(0 0 0)
(0 0 0)
(0 0 0)
(0 0 0)
(0 0 0)
(0 0 0)
(0 0 0)
(0 0 0)
(0 0 0)
(0 0 0)
(0 0 0)
(0 0 0)
(0 0 0)
(0 0 0)
(0 0 0)
(0 0 0)
(0 0 0)
(0 0 0)
(0 0 0)
(0 0 0)
(0 0 0)
(0 0 0)
(0 0 0)
(0 0 0)
(0 0 0)
(0 0 0)
)
;
    }
    procBoundary1to3
    {
        type            processor;
        value           nonuniform List<vector> 
192
(
(-1.23708e-05 0.000475298 -0.000344076)
(-0.000313635 -6.30539e-05 -9.3597e-05)
(-0.000587667 -0.000995401 8.03283e-06)
(-9.0784e-06 -0.000140458 -0.000322467)
(-0.00148743 -0.000113649 0.00236555)
(-0.000469394 -0.000832953 0.0016153)
(0.000759679 -0.00025935 0.00273435)
(-5.21127e-05 0.000484351 0.00337725)
(8.87135e-05 -0.000182516 0.00442037)
(-7.1732e-05 -0.000716139 0.00318224)
(-0.000578758 0.000212503 0.00316348)
(0.000547744 0.000339964 0.00436906)
(0.00010607 -0.000399344 0.00359236)
(-0.000261678 -0.000263543 0.00312805)
(-0.000122071 -4.59505e-05 0.00271294)
(-7.56657e-05 0.000234825 0.00341301)
(8.25066e-05 -0.000470389 0.0028592)
(-6.38749e-05 -0.000467832 0.00301073)
(0.000131964 -0.000294733 0.00292021)
(0.000263757 0.000274423 0.00283528)
(-4.05025e-05 2.84281e-05 0.00254224)
(-0.00027896 2.10937e-05 0.00252213)
(0.000117337 -0.000385245 0.00263868)
(-3.75339e-05 5.04405e-05 0.0022592)
(0.000553965 0.000614706 0.00230887)
(0.00261077 -0.000254068 0.00163587)
(0.00010997 0.000362522 0.00218558)
(-8.30055e-05 0.000104524 0.00232762)
(0 0 0)
(0 0 0)
(0 0 0)
(0 0 0)
(0 0 0)
(0 0 0)
(0 0 0)
(0 0 0)
(0 0 0)
(0 0 0)
(0 0 0)
(0 0 0)
(0 0 0)
(0 0 0)
(0 0 0)
(0 0 0)
(0 0 0)
(0 0 0)
(0 0 0)
(0 0 0)
(0 0 0)
(0 0 0)
(0 0 0)
(0 0 0)
(0 0 0)
(0 0 0)
(0 0 0)
(0 0 0)
(0 0 0)
(0 0 0)
(0 0 0)
(0 0 0)
(0 0 0)
(0 0 0)
(0 0 0)
(0 0 0)
(0 0 0)
(0 0 0)
(0 0 0)
(0 0 0)
(0 0 0)
(0 0 0)
(0 0 0)
(0 0 0)
(0 0 0)
(0 0 0)
(0 0 0)
(0 0 0)
(0 0 0)
(0 0 0)
(0 0 0)
(0 0 0)
(0 0 0)
(0 0 0)
(0 0 0)
(0 0 0)
(0 0 0)
(0 0 0)
(0 0 0)
(0 0 0)
(0 0 0)
(0 0 0)
(0 0 0)
(0 0 0)
(0 0 0)
(0 0 0)
(0 0 0)
(0 0 0)
(0.000439165 -0.000493739 -0.000340151)
(0.00112962 -0.000203011 -0.000165201)
(0.00121823 0.000348984 -4.12444e-05)
(0.000157521 -0.000265708 -0.000186361)
(0.000401974 -0.000792246 0.0014496)
(0.00145636 -0.000349237 0.00105219)
(0.00208957 0.000672711 0.00286386)
(0.0004574 -0.000886556 0.00302796)
(0.000705554 -0.000408037 0.00238742)
(0.00020313 -8.65866e-05 0.00289602)
(-0.000308585 0.000357679 0.00332589)
(-0.000554193 -0.00127349 0.00320408)
(-0.000165 -0.000288446 0.00401653)
(-0.000487129 -5.95797e-05 0.00295282)
(-0.000114862 5.33707e-05 0.00329335)
(-5.55921e-05 -0.000145056 0.00248189)
(-0.000101167 7.28604e-05 0.00287037)
(-5.46419e-05 -0.00010526 0.00262708)
(5.28767e-05 -7.6462e-05 0.00282784)
(0.000108018 6.55123e-05 0.00229816)
(6.83e-05 0.000415087 0.00263405)
(-0.000125424 0.000138779 0.0026706)
(3.3941e-05 -0.000246132 0.00233546)
(5.37683e-05 -2.10531e-05 0.0012598)
(0.000301992 0.000269016 0.00220236)
(0.000385135 0.000242736 0.00241019)
(-4.07552e-05 0.000275225 0.00198409)
(-0.00010847 0.000371813 0.00132117)
(0 0 0)
(0 0 0)
(0 0 0)
(0 0 0)
(0 0 0)
(0 0 0)
(0 0 0)
(0 0 0)
(0 0 0)
(0 0 0)
(0 0 0)
(0 0 0)
(0 0 0)
(0 0 0)
(0 0 0)
(0 0 0)
(0 0 0)
(0 0 0)
(0 0 0)
(0 0 0)
(0 0 0)
(0 0 0)
(0 0 0)
(0 0 0)
(0 0 0)
(0 0 0)
(0 0 0)
(0 0 0)
(0 0 0)
(0 0 0)
(0 0 0)
(0 0 0)
(0 0 0)
(0 0 0)
(0 0 0)
(0 0 0)
(0 0 0)
(0 0 0)
(0 0 0)
(0 0 0)
(0 0 0)
(0 0 0)
(0 0 0)
(0 0 0)
(0 0 0)
(0 0 0)
(0 0 0)
(0 0 0)
(0 0 0)
(0 0 0)
(0 0 0)
(0 0 0)
(0 0 0)
(0 0 0)
(0 0 0)
(0 0 0)
(0 0 0)
(0 0 0)
(0 0 0)
(0 0 0)
(0 0 0)
(0 0 0)
(0 0 0)
(0 0 0)
(0 0 0)
(0 0 0)
(0 0 0)
(0 0 0)
)
;
    }
}


// ************************************************************************* //
