FoamFile
{version 2.0; format ascii;class Cloud<passiveParticle>; location 0;object  positions;}
2514
(
( -0.0096662 0.00548449 0.000499564 ) 0 
( -0.00614363 0.0118446 0.00125836 ) 0 
( -0.00593952 0.00138538 0.00321087 ) 0 
( -0.00125833 0.00851301 0.00277309 ) 0 
( -0.00869888 0.00304596 0.00110904 ) 0 
( -0.000423954 0.00250099 0.00496084 ) 0 
( -0.00773727 0.00849135 0.00510242 ) 0 
( -0.00914249 0.00685694 0.0018267 ) 0 
( -0.00964893 0.00166619 0.00278982 ) 0 
( -0.00477373 0.00730749 0.0025723 ) 0 
( -0.00418689 0.0050852 0.00446743 ) 0 
( -0.00139619 0.0021079 0.00784261 ) 0 
( -0.00772772 0.00836612 0.00336427 ) 0 
( -0.000886296 0.00787218 0.000499668 ) 0 
( -0.00489537 0.0115005 0.000499856 ) 0 
( -0.000283686 0.00873738 0.000499868 ) 0 
( -0.00826463 0.00238268 0.000499705 ) 0 
( -0.00866456 0.00207997 0.00136492 ) 0 
( -0.00649563 0.00938326 0.000499763 ) 0 
( -0.00087542 0.00167846 0.00709033 ) 0 
( -0.00343065 0.00475451 0.00730387 ) 0 
( -0.0129318 0.00328506 0.00176105 ) 0 
( -0.00490984 0.00107648 0.0034487 ) 0 
( -0.0075031 0.00549504 0.00142081 ) 0 
( -0.00143038 0.00500865 0.00486801 ) 0 
( -0.00754334 0.00889177 0.00419477 ) 0 
( -0.00107346 0.0100915 0.00363325 ) 0 
( -0.000599036 0.00427733 0.00318446 ) 0 
( -0.00706908 0.00386599 0.000708306 ) 0 
( -0.00332197 0.000922584 0.00654624 ) 0 
( -0.0107476 0.0060326 0.006758 ) 0 
( -0.00385743 0.00179799 0.00128932 ) 0 
( -0.0122917 0.00384674 0.0054743 ) 0 
( -0.000185134 0.0106627 0.00455538 ) 0 
( -0.0022737 0.0106251 0.000499864 ) 0 
( -0.00841141 0.00309477 0.00340013 ) 0 
( -0.00170638 0.00348633 0.00286059 ) 0 
( -0.00833052 0.00051035 0.00408102 ) 0 
( -0.00837557 0.00248925 0.00439137 ) 0 
( -0.00460256 0.00747144 0.00705711 ) 0 
( -0.00714488 0.00289127 0.000499718 ) 0 
( -0.0057626 0.00628311 0.00269706 ) 0 
( -0.0035219 0.00173913 0.00233888 ) 0 
( -0.011865 0.00365876 0.00440825 ) 0 
( -0.004505 0.0092245 0.00271335 ) 0 
( -0.00499211 0.00623675 0.00205719 ) 0 
( -0.0118139 0.00180869 0.00249339 ) 0 
( -0.00265681 0.00304531 0.000499569 ) 0 
( -0.00219951 0.00855124 0.000499689 ) 0 
( -0.00279813 0.00633587 0.00244103 ) 0 
( -0.00767007 0.00975848 0.00367681 ) 0 
( -0.000120427 0.00831301 0.00276924 ) 0 
( -0.0115466 0.00670098 0.0017957 ) 0 
( -0.00514315 0.01061 0.0039166 ) 0 
( -0.00985417 0.00900577 0.00327894 ) 0 
( -0.010663 0.00187584 0.00384561 ) 0 
( -0.0130352 0.00287786 0.00375351 ) 0 
( -0.00992401 0.00645054 0.000499746 ) 0 
( -0.00308667 0.00281311 0.00728623 ) 0 
( -0.00218235 0.0123484 0.00652001 ) 0 
( -0.0054976 0.0100168 0.00662693 ) 0 
( -0.00464045 0.0022042 0.00713285 ) 0 
( -4.63773e-05 0.0133502 0.00563329 ) 0 
( -0.00349183 0.00618266 0.00758868 ) 0 
( -0.00977201 0.00270158 0.00689075 ) 0 
( -0.0108257 1.89059e-05 0.00210068 ) 0 
( -0.0021674 0.00552281 0.00442967 ) 0 
( -0.00924832 0.000845355 0.00386825 ) 0 
( -0.00717075 0.00185424 0.0066275 ) 0 
( -0.00221789 0.00745355 0.00371475 ) 0 
( -0.00552585 0.000113087 0.00640861 ) 0 
( -0.00137667 0.0106283 0.00442064 ) 0 
( -0.00986786 0.00174385 0.00115106 ) 0 
( -0.00957222 0.00430451 0.00576813 ) 0 
( -0.00855356 0.0078494 0.00310042 ) 0 
( -0.00370353 0.00613995 0.000499894 ) 0 
( -8.41902e-05 0.0102419 0.00353939 ) 0 
( -0.0106803 0.00166487 0.00280784 ) 0 
( -0.00916771 0.00885881 0.00163641 ) 0 
( -9.89548e-05 0.0023294 0.00100923 ) 0 
( -0.0023291 0.000817737 0.000499696 ) 0 
( -0.00836553 0.00794208 0.000500109 ) 0 
( -0.00859114 0.00449263 0.00581069 ) 0 
( -0.0103361 0.000772029 0.00427322 ) 0 
( -0.00778858 0.00789817 0.00425272 ) 0 
( -0.00632016 0.00424205 0.00667354 ) 0 
( -0.00364724 0.0019268 0.0070703 ) 0 
( -0.00213731 0.0124297 0.000499729 ) 0 
( -0.0097585 0.0056077 0.00404372 ) 0 
( -0.000734159 0.00494844 0.00771129 ) 0 
( -0.00897145 0.00873724 0.000499549 ) 0 
( -0.00638675 0.000205775 0.00349637 ) 0 
( -0.00221824 0.000834585 0.00305856 ) 0 
( -0.00142306 0.00628677 0.00139816 ) 0 
( -0.00775787 0.0107694 0.00335906 ) 0 
( -0.00227264 0.0058791 0.00350145 ) 0 
( -0.00363411 0.00324107 0.00175333 ) 0 
( -0.00985543 0.00746047 0.00218285 ) 0 
( -0.010054 0.0076567 0.00582099 ) 0 
( -0.00400495 0.0116202 0.00477386 ) 0 
( -0.00469262 0.00628626 0.000499801 ) 0 
( -0.0052413 0.0055198 0.00617068 ) 0 
( -0.00068281 0.00203197 0.00318218 ) 0 
( -0.00922402 0.00962137 0.00482108 ) 0 
( -0.00752891 0.00171151 0.00427908 ) 0 
( -0.00396816 7.04947e-05 0.0013462 ) 0 
( -0.00968402 0.00231176 0.00798071 ) 0 
( -0.00991122 0.0026122 0.00516831 ) 0 
( -0.00043888 0.00399354 0.00769679 ) 0 
( -0.00223138 0.00159671 0.00804496 ) 0 
( -0.00203138 0.00771065 0.00628932 ) 0 
( -0.00967764 0.00365008 0.00213798 ) 0 
( -0.00659902 0.00156568 0.0058598 ) 0 
( -0.00253935 0.00909869 0.00219488 ) 0 
( -0.00321799 0.00979551 0.00242661 ) 0 
( -0.00613272 0.00802791 0.00179762 ) 0 
( -0.0120783 0.00480747 0.00529837 ) 0 
( -0.00625428 0.00539662 0.00293681 ) 0 
( -0.0117403 0.00635537 0.00459536 ) 0 
( -0.0080007 0.00456086 0.00129888 ) 0 
( -0.00134764 0.00254652 0.00693878 ) 0 
( -0.00415824 0.00857095 0.00578293 ) 0 
( -0.00405925 0.00501922 0.00347783 ) 0 
( -0.0126676 0.00421372 0.00202081 ) 0 
( -0.00897918 0.000410318 0.00592954 ) 0 
( -0.00129558 0.00380103 0.00372106 ) 0 
( -0.000893854 0.0086216 0.00538004 ) 0 
( -0.00256597 0.00604106 0.00797269 ) 0 
( -0.00952601 0.00790521 0.000499651 ) 0 
( -0.0078185 0.0108213 0.00435554 ) 0 
( -0.00997184 0.00216924 0.00606835 ) 0 
( -0.00665022 0.00187322 0.00268499 ) 0 
( -0.00292016 0.00748034 0.00668527 ) 0 
( -0.00273053 0.00737224 0.00482278 ) 0 
( -0.00993325 0.00673738 0.0054271 ) 0 
( -0.0116617 0.00159393 0.000499843 ) 0 
( -0.00248505 0.00821265 0.00265515 ) 0 
( -0.0119813 0.000165835 0.00313671 ) 0 
( -0.0102786 0.00429698 0.00319337 ) 0 
( -0.0111614 0.000756778 0.00370899 ) 0 
( -0.00435182 0.00422649 0.00294105 ) 0 
( -0.0114506 0.00253135 0.00389228 ) 0 
( -0.0026524 0.00427672 0.00126298 ) 0 
( -0.00350863 0.000358464 0.00454272 ) 0 
( -0.00283802 0.00239848 0.00309403 ) 0 
( -0.00637258 0.00230187 0.000735303 ) 0 
( -0.00911608 0.00790089 0.00606704 ) 0 
( -0.00922423 0.000542006 0.00688983 ) 0 
( -0.00159319 0.0056442 0.0068521 ) 0 
( -0.00403427 0.00584754 0.00291626 ) 0 
( -0.00286194 0.0116831 0.00212161 ) 0 
( -0.0104275 0.00833684 0.000499731 ) 0 
( -0.00447468 0.00335222 0.00228331 ) 0 
( -0.00215563 0.00954421 0.00397502 ) 0 
( -0.000291576 0.00120413 0.00643199 ) 0 
( -0.00747683 0.00660228 0.00646336 ) 0 
( -0.00536559 0.000382208 0.00289128 ) 0 
( -0.00182902 0.0112973 0.00130651 ) 0 
( -0.00887747 0.00130787 0.00550077 ) 0 
( -0.004757 0.00162622 0.00169039 ) 0 
( -0.00820392 0.00821406 0.00633057 ) 0 
( -0.000695631 0.0113613 0.00600419 ) 0 
( -0.00864258 0.00624623 0.00352939 ) 0 
( -0.0115469 0.00163991 0.00344215 ) 0 
( -0.00358082 0.00423202 0.00163128 ) 0 
( -0.00957342 0.00126433 0.0062175 ) 0 
( -2.29152e-06 0.0132675 0.00462762 ) 0 
( -0.00304827 0.0101453 0.00364087 ) 0 
( -0.00346156 0.00886369 0.00269569 ) 0 
( -0.00468086 0.00531571 0.00229076 ) 0 
( -0.00494153 0.0115692 0.00197225 ) 0 
( -0.00572354 0.000943334 0.00692943 ) 0 
( -0.00600137 0.00143437 0.00506921 ) 0 
( -0.00384058 0.000543881 0.00731235 ) 0 
( -0.00951827 0.00551858 0.00209878 ) 0 
( -0.0029565 0.00722702 0.0020111 ) 0 
( -0.0113786 0.00549796 0.00508545 ) 0 
( -0.0107317 0.00196375 0.000499726 ) 0 
( -0.00337836 0.0078572 0.00542168 ) 0 
( -0.00764607 0.00178084 0.00267263 ) 0 
( -0.00451735 0.0125009 0.00619806 ) 0 
( -0.00309307 0.00693181 0.00049965 ) 0 
( -0.00260492 0.0042179 0.00235019 ) 0 
( -0.0109407 0.00414395 0.00395589 ) 0 
( -0.0128066 0.000454905 0.00593453 ) 0 
( -0.0128222 0.000370876 0.00393655 ) 0 
( -0.0109287 0.00750137 0.0053619 ) 0 
( -0.0105996 0.00505855 0.00226515 ) 0 
( -0.00566391 0.00547019 0.00212319 ) 0 
( -0.00313494 0.0100105 0.000499732 ) 0 
( -0.00537071 0.00308073 0.00367526 ) 0 
( -0.00539655 0.00753941 0.00645205 ) 0 
( -0.0131797 0.00212713 0.00148774 ) 0 
( -0.0113282 0.00333797 0.00222306 ) 0 
( -0.00164793 0.0118444 0.00370373 ) 0 
( -0.00750932 0.00542448 0.00707118 ) 0 
( -0.00832761 0.00690899 0.00284637 ) 0 
( -0.00194324 0.000122904 0.00370517 ) 0 
( -0.00120164 0.000793361 0.00371602 ) 0 
( -0.00921495 0.00256023 0.00204762 ) 0 
( -0.00126313 0.0112644 0.00298572 ) 0 
( -0.000625359 0.00975883 0.000499627 ) 0 
( -0.00694799 0.00628737 0.00110734 ) 0 
( -0.00660255 0.0108557 0.0012594 ) 0 
( -3.10642e-05 0.0133503 0.00343346 ) 0 
( -0.00632995 0.0073369 0.00249301 ) 0 
( -0.00226202 0.00343608 0.00692031 ) 0 
( -0.0075428 0.00452289 0.00423371 ) 0 
( -0.00186269 0.00373912 0.00187874 ) 0 
( -0.000520109 0.00729734 0.00123107 ) 0 
( -0.0115554 0.00114512 0.00179028 ) 0 
( -0.00734087 0.00860631 0.00601315 ) 0 
( -0.0104051 0.00685297 0.00630081 ) 0 
( -8.31638e-05 0.00441431 0.00093746 ) 0 
( -0.000756672 0.00864281 0.00438989 ) 0 
( -0.00904565 0.0071717 0.00527468 ) 0 
( -0.0043815 0.00235693 0.00226031 ) 0 
( -0.00136793 0.0051328 0.000499826 ) 0 
( -0.00978907 0.00904116 0.00540726 ) 0 
( -0.0102096 0.000434022 0.00520558 ) 0 
( -0.00326517 0.00233278 0.00621036 ) 0 
( -0.00362643 0.00429471 0.00643395 ) 0 
( -0.000404383 0.00134195 0.00396723 ) 0 
( -0.00627509 0.00722884 0.00609007 ) 0 
( -0.0108256 0.00776627 0.00645062 ) 0 
( -0.0051934 0.0122985 0.0039302 ) 0 
( -0.00795914 0.000353388 0.00662761 ) 0 
( -0.000993178 0.00402192 0.00581167 ) 0 
( -0.00908841 0.00977878 0.00688846 ) 0 
( -0.00736452 0.00743686 0.00343075 ) 0 
( -1.45932e-05 0.00219496 0.0067817 ) 0 
( -0.00722503 0.000128476 0.0049959 ) 0 
( -0.00259615 0.00602933 0.00588519 ) 0 
( -0.00162147 0.00984953 0.000499623 ) 0 
( -0.00212776 0.0121828 0.00166206 ) 0 
( -0.00104126 0.0133093 0.00308207 ) 0 
( -0.00375895 0.0080879 0.00110388 ) 0 
( -0.00398874 0.00285793 0.00576085 ) 0 
( -0.00400297 0.00120835 0.00474736 ) 0 
( -0.00794145 0.000691509 0.00127483 ) 0 
( -0.00727542 0.00553659 0.00289318 ) 0 
( -0.00681079 0.0081906 0.00269979 ) 0 
( -0.00440305 0.00217762 0.000499858 ) 0 
( -0.000548793 0.00464683 0.00517018 ) 0 
( -0.00251565 0.00454944 0.00695755 ) 0 
( -0.00281315 0.000809028 0.0055819 ) 0 
( -0.00417526 0.00315106 0.000499521 ) 0 
( -0.00429436 0.00793972 0.00501961 ) 0 
( -0.00473646 0.000774834 0.00116671 ) 0 
( -0.000154453 0.00914104 0.00332877 ) 0 
( -0.00370904 0.0121857 0.00194991 ) 0 
( -0.00558438 0.00301843 0.00465002 ) 0 
( -0.0125656 0.00112335 0.00149717 ) 0 
( -0.00226289 0.0109339 0.00673346 ) 0 
( -0.00549142 0.000373119 0.00390901 ) 0 
( -0.00154625 0.00652172 0.00374529 ) 0 
( -0.000593461 0.00897134 0.0021788 ) 0 
( -0.00989532 0.00896129 0.00441611 ) 0 
( -0.00235833 0.0114633 0.00311236 ) 0 
( -0.00148913 0.00558977 0.00784481 ) 0 
( -0.00380837 0.00781533 0.00283976 ) 0 
( -0.00409356 0.00602634 0.00479192 ) 0 
( -0.0022184 0.00681066 0.00096874 ) 0 
( -0.00257822 0.0106526 0.00145588 ) 0 
( -0.00379772 0.0105988 0.00257486 ) 0 
( -0.00214395 0.0103435 0.00525924 ) 0 
( -0.000730331 0.000113254 0.00525444 ) 0 
( -0.00849522 0.0102983 0.00492221 ) 0 
( -0.00589316 0.00502989 0.00482565 ) 0 
( -0.000731323 0.00571925 0.00540243 ) 0 
( -0.00542744 0.00643383 0.00117896 ) 0 
( -0.00229522 0.00649066 0.00505079 ) 0 
( -0.0122493 0.00342229 0.000499689 ) 0 
( -0.00967267 0.00459781 0.00245687 ) 0 
( -0.00381315 0.00946394 0.00341395 ) 0 
( -0.00568417 0.00216535 0.00394977 ) 0 
( -0.010482 0.00435488 0.00049975 ) 0 
( -0.00325326 0.0113629 0.00125774 ) 0 
( -0.00426605 0.00203031 0.00525204 ) 0 
( -0.00517507 0.00317016 0.00778389 ) 0 
( -0.00316765 0.0053101 0.00628754 ) 0 
( -0.010373 0.00585348 0.00170257 ) 0 
( -0.00890032 0.00541721 0.00636637 ) 0 
( -0.0117205 0.00607032 0.00757152 ) 0 
( -0.011863 0.00612311 0.00300896 ) 0 
( -0.00550749 0.00480528 0.00681709 ) 0 
( -0.00655798 0.0107609 0.00262367 ) 0 
( -0.000520797 0.000635382 0.00300095 ) 0 
( -0.00131686 0.0043296 0.00249035 ) 0 
( -0.00575272 0.00391069 0.00423127 ) 0 
( -0.00371514 0.00701102 0.00706839 ) 0 
( -0.00813439 0.00459286 0.00703456 ) 0 
( -0.00312285 0.00330284 0.00641533 ) 0 
( -0.00857124 0.0102352 0.00136105 ) 0 
( -0.00730522 0.0088921 0.00697055 ) 0 
( -0.00392952 0.0117017 0.00632339 ) 0 
( -0.0104235 0.0031975 0.00262692 ) 0 
( -0.00983269 0.0031572 0.00600261 ) 0 
( -0.00772564 0.00857451 0.00238382 ) 0 
( -0.00820447 0.00200355 0.00524972 ) 0 
( -0.00817964 0.00134865 0.000499861 ) 0 
( -0.00508531 0.00532031 0.0032391 ) 0 
( -0.0132912 0.00125296 0.00397961 ) 0 
( -0.00697708 0.0104356 0.00579088 ) 0 
( -0.00995259 0.0064992 0.00445625 ) 0 
( -0.012647 0.00427551 0.000836689 ) 0 
( -0.00285706 0.0110803 0.0052286 ) 0 
( -0.0111565 0.000934306 0.00595484 ) 0 
( -0.0112468 0.00266435 0.00667982 ) 0 
( -0.00331999 0.0106951 0.00443052 ) 0 
( -0.00223528 0.0124376 0.00434038 ) 0 
( -0.00736947 0.00629009 0.00201406 ) 0 
( -0.0029855 0.013012 0.00198626 ) 0 
( -0.0133213 0.000880061 0.00490688 ) 0 
( -0.0100218 0.00338909 0.00352472 ) 0 
( -0.00508705 0.00664912 0.00611931 ) 0 
( -0.0011534 0.00097466 0.000794445 ) 0 
( -0.00621053 0.00533363 0.00634197 ) 0 
( -0.000109872 0.00659184 0.0021742 ) 0 
( -0.00224141 0.00174013 0.00263511 ) 0 
( -0.000935546 0.00130236 0.00565601 ) 0 
( -0.00842732 0.00725464 0.00650167 ) 0 
( -0.00666656 1.97008e-05 0.00639346 ) 0 
( -0.0113414 0.00239641 0.00183121 ) 0 
( -0.00195412 0.00506084 0.00273331 ) 0 
( -0.00904322 0.00894438 0.00263293 ) 0 
( -0.00272097 0.00518144 0.00210297 ) 0 
( -0.00478735 0.0106026 0.00298002 ) 0 
( -0.00996213 0.00796193 0.00691543 ) 0 
( -0.00632676 0.00320043 0.00340804 ) 0 
( -0.0058269 0.00583751 0.00712178 ) 0 
( -0.0058671 0.0112554 0.000499574 ) 0 
( -0.00201026 0.00866254 0.00341652 ) 0 
( -0.00580724 0.00831493 0.00693059 ) 0 
( -0.00357403 0.00678187 0.00136297 ) 0 
( -0.00136735 0.0120437 0.00464235 ) 0 
( -0.00123343 1.17785e-05 0.00135795 ) 0 
( -0.0110823 0.00592094 0.00241775 ) 0 
( -0.00443483 0.00368711 0.00609915 ) 0 
( -0.00750131 0.0110433 0.00243233 ) 0 
( -0.00428654 0.00430614 0.00532338 ) 0 
( -0.00425286 0.0114812 0.00269354 ) 0 
( -0.0096754 0.00307313 0.00132139 ) 0 
( -0.00571746 0.000157113 0.00197919 ) 0 
( -0.00167467 0.00446959 0.00118228 ) 0 
( -0.00593835 0.00239253 0.00534787 ) 0 
( -0.0123759 0.0050065 0.001486 ) 0 
( -0.00223165 0.012341 0.00265036 ) 0 
( -0.00769573 0.00615673 0.00387765 ) 0 
( -0.00610097 0.000664571 0.00120773 ) 0 
( -0.00551525 0.0121575 0.00630268 ) 0 
( -0.011893 0.00427282 0.00361113 ) 0 
( -0.00449974 6.89096e-05 0.000499584 ) 0 
( -0.000946127 0.00596831 0.00221719 ) 0 
( -0.00685785 0.00467494 0.00257101 ) 0 
( -0.00292653 0.00116408 0.00465191 ) 0 
( -0.00277392 0.00146158 0.00721264 ) 0 
( -0.00487839 0.00552121 0.00711775 ) 0 
( -0.00127841 0.00749891 0.00332211 ) 0 
( -0.0120265 0.00386389 0.00270845 ) 0 
( -0.000435928 0.0103276 0.00600604 ) 0 
( -0.00489283 0.00984922 0.00451549 ) 0 
( -0.00151605 0.000507299 0.00696496 ) 0 
( -0.000760638 0.00316768 0.00428013 ) 0 
( -0.00511138 0.00781823 0.00375507 ) 0 
( -0.01007 0.00351453 0.00476737 ) 0 
( -0.0113844 0.0050209 0.00318497 ) 0 
( -0.00712569 0.00570673 0.00619215 ) 0 
( -0.00432972 0.00445562 0.00798209 ) 0 
( -0.00615836 0.00431857 0.003192 ) 0 
( -0.0125101 0.00260668 0.00456443 ) 0 
( -0.000899913 0.00045162 0.0061798 ) 0 
( -0.00906656 0.0044859 0.00669023 ) 0 
( -0.00724977 0.0045687 0.00752037 ) 0 
( -0.00225799 0.0100621 0.0022068 ) 0 
( -0.00500681 0.00977444 0.000998168 ) 0 
( -0.00891561 0.00868802 0.00455473 ) 0 
( -0.00194778 0.00588996 0.00215605 ) 0 
( -0.00425045 0.00604569 0.00136361 ) 0 
( -0.00126796 0.00891437 0.000499833 ) 0 
( -0.00462367 0.0103271 0.00535148 ) 0 
( -0.012344 0.0014767 0.00615762 ) 0 
( -0.0082464 0.00573734 0.00276072 ) 0 
( -0.00926009 0.00961582 0.00382184 ) 0 
( -0.0109659 0.00338743 0.0012925 ) 0 
( -0.00889755 0.0041496 0.00145948 ) 0 
( -0.00223346 0.00336241 0.00481584 ) 0 
( -0.00537391 0.00365306 0.001717 ) 0 
( -0.00713144 0.0080573 0.00175894 ) 0 
( -0.00776363 0.0049246 0.00219958 ) 0 
( -0.00874314 0.00770577 0.00448208 ) 0 
( -0.0125022 0.0014463 0.00499664 ) 0 
( -0.000430203 0.00956662 0.00419055 ) 0 
( -0.00075605 0.00622549 0.00808563 ) 0 
( -0.00688398 0.00317033 0.00146715 ) 0 
( -0.00102758 0.0130337 0.00211674 ) 0 
( -0.00501616 0.00685088 0.00399213 ) 0 
( -0.000173449 0.00636006 0.00120106 ) 0 
( -0.00689564 0.00109922 0.0032952 ) 0 
( -0.00172412 0.00874951 0.00483763 ) 0 
( -0.00368177 0.00382731 0.00356689 ) 0 
( -0.00395307 0.0110326 0.00558103 ) 0 
( -0.00649266 0.00151156 0.00749334 ) 0 
( -0.0071183 0.0060993 0.00480723 ) 0 
( -0.00700393 0.0113543 0.00367658 ) 0 
( -0.00314591 0.000482292 0.0080283 ) 0 
( -0.00863607 0.00871459 0.00359509 ) 0 
( -0.00423646 0.00892174 0.004311 ) 0 
( -0.00666936 0.00215753 0.00470737 ) 0 
( -0.00554495 0.00720963 0.00179852 ) 0 
( -0.0106943 0.0079909 0.00413929 ) 0 
( -0.00809954 0.00646982 0.00473708 ) 0 
( -0.00605939 0.00322444 0.000499719 ) 0 
( -0.000657902 0.00980112 0.00277135 ) 0 
( -0.00326229 0.0129196 0.00609338 ) 0 
( -0.00450298 0.00177391 0.00405502 ) 0 
( -0.00636458 0.00784646 0.000499724 ) 0 
( -0.00781998 0.00543293 0.00455605 ) 0 
( -0.00509998 0.0014508 0.000499848 ) 0 
( -0.00813636 8.86132e-05 0.000499855 ) 0 
( -0.00188918 0.00261774 0.00332102 ) 0 
( -0.00230352 0.00997465 0.00701215 ) 0 
( -0.00541206 0.00737678 0.00546563 ) 0 
( -0.00362129 0.00283096 0.00373208 ) 0 
( -0.00738024 0.00711529 0.00500555 ) 0 
( -0.00395417 0.00688286 0.00316999 ) 0 
( -0.00743832 0.00477116 0.000499686 ) 0 
( -0.0127901 0.00160727 0.00235116 ) 0 
( -0.000964273 0.0094672 0.00139372 ) 0 
( -8.29023e-05 0.0026233 0.00378353 ) 0 
( -0.00738382 0.00813233 0.000499873 ) 0 
( -0.00671242 0.00398539 0.00395542 ) 0 
( -0.00286047 0.0121733 0.00360614 ) 0 
( -0.00469763 0.00889257 0.00135348 ) 0 
( -0.00662055 0.00460627 0.00579212 ) 0 
( -0.00522251 0.0107479 0.00107081 ) 0 
( -0.00412796 0.0012164 0.000499799 ) 0 
( -0.00902844 0.00302883 0.00494155 ) 0 
( -0.000764275 0.00638273 0.00708061 ) 0 
( -0.00209688 0.0110498 0.00223746 ) 0 
( -0.00680406 0.0102112 0.00345935 ) 0 
( -0.00959359 0.00013253 0.00447829 ) 0 
( -0.00127571 0.00815883 0.0067665 ) 0 
( -0.00307948 0.00910404 0.00407036 ) 0 
( -0.0100273 0.0039472 0.00658338 ) 0 
( -0.00728344 0.00446368 0.00652668 ) 0 
( -0.000772576 0.0059744 0.00049975 ) 0 
( -0.0113901 0.00696362 0.00616983 ) 0 
( -0.000829445 0.00710238 0.00413166 ) 0 
( -0.00984182 0.00250366 0.000499854 ) 0 
( -0.00616762 0.0118397 0.00561474 ) 0 
( -0.00236608 0.00485544 0.00049969 ) 0 
( -0.00805828 0.00139 0.00798726 ) 0 
( -0.0118681 0.00320357 0.00611173 ) 0 
( -0.0027064 0.00706578 0.00577424 ) 0 
( -0.00322372 0.007421 0.00395424 ) 0 
( -0.000581356 0.0133373 0.00125431 ) 0 
( -0.00675987 0.00585648 0.0036939 ) 0 
( -0.00280478 0.00415801 0.00501644 ) 0 
( -0.00414954 0.00907219 0.0066479 ) 0 
( -0.00114017 0.00621679 0.00616906 ) 0 
( -0.006647 0.00872186 0.004604 ) 0 
( -0.0028922 0.00970393 0.00148148 ) 0 
( -0.00376879 0.0109635 0.000499827 ) 0 
( -0.00609674 0.00976611 0.00134819 ) 0 
( -0.00223312 0.00229444 0.00732848 ) 0 
( -0.00437335 0.00466914 0.00698312 ) 0 
( -0.000467728 0.00622423 0.0038174 ) 0 
( -0.00566587 0.00440572 0.005573 ) 0 
( -0.0019019 0.0106246 0.00341282 ) 0 
( -0.00824599 0.0072912 0.0019115 ) 0 
( -0.000275908 0.0106206 0.000866768 ) 0 
( -0.00858101 0.00614423 0.000499689 ) 0 
( -0.00827746 0.00371559 0.00526516 ) 0 
( -0.00415511 0.0077739 0.00404346 ) 0 
( -0.00588322 0.00128285 0.00196277 ) 0 
( -0.00351134 0.00384329 0.00255808 ) 0 
( -0.00645916 0.00636028 0.00655057 ) 0 
( -0.00450655 0.00642357 0.00690162 ) 0 
( -0.00282273 0.0083098 0.00613638 ) 0 
( -0.00460091 0.00699275 0.00492395 ) 0 
( -0.0034269 0.00479546 0.00547038 ) 0 
( -0.00339129 0.0119133 0.00550781 ) 0 
( -0.0124772 0.000351322 0.00499359 ) 0 
( -0.0113502 0.0038595 0.00049954 ) 0 
( -0.00616482 0.00455497 0.000499723 ) 0 
( -0.00253959 0.000299856 0.00643757 ) 0 
( -0.00811505 0.0067246 0.00570374 ) 0 
( -0.00038831 0.0117537 0.00236414 ) 0 
( -0.000761763 0.0129112 0.00395572 ) 0 
( -0.00821303 0.00769089 0.00546669 ) 0 
( -0.00513981 0.00361717 0.000499859 ) 0 
( -0.004212 0.00201504 0.00625001 ) 0 
( -0.00796384 0.00374695 0.00753897 ) 0 
( -0.00220781 0.000688944 0.00148366 ) 0 
( -0.00615162 0.00406062 0.0022175 ) 0 
( -0.00915 0.00972114 0.000499859 ) 0 
( -0.00664455 0.00207914 0.00368532 ) 0 
( -0.0115137 0.00169383 0.00444027 ) 0 
( -0.00860959 0.00420418 0.000499713 ) 0 
( -0.00173378 0.00191389 0.00594107 ) 0 
( -0.00639333 0.0050317 0.00729311 ) 0 
( -0.00741686 0.00652177 0.00298964 ) 0 
( -0.00967001 0.00101211 0.000499451 ) 0 
( -0.0075086 0.0101254 0.00500308 ) 0 
( -0.00373701 0.00419264 0.00449604 ) 0 
( -0.00350844 0.00575189 0.00393071 ) 0 
( -0.00694936 0.011399 0.00605542 ) 0 
( -0.00580843 0.0120203 0.00218376 ) 0 
( -0.00612632 0.00821205 0.00598677 ) 0 
( -0.00275302 0.00578786 0.00049979 ) 0 
( -0.00800892 0.00700817 0.000499665 ) 0 
( -0.00317474 0.00334947 0.00447885 ) 0 
( -0.00550771 0.00570495 0.000499536 ) 0 
( -0.0070895 0.00117823 0.00209824 ) 0 
( -0.003898 0.0055532 0.00692578 ) 0 
( -0.00282363 0.00996608 0.00588773 ) 0 
( -0.00335831 0.00457892 0.00049965 ) 0 
( -0.00181988 0.0132256 0.00683379 ) 0 
( -0.00275795 0.00244043 0.00409362 ) 0 
( -0.00505393 0.0084042 0.0045636 ) 0 
( -0.00421074 0.00531859 0.00580395 ) 0 
( -0.00690633 0.00487806 0.00354892 ) 0 
( -0.000144968 0.00294006 0.00749814 ) 0 
( -0.00272368 0.00432739 0.00600523 ) 0 
( -0.00504148 0.0054347 0.00134149 ) 0 
( -0.00262868 0.0015616 0.006214 ) 0 
( -0.00263098 0.0115796 0.00606475 ) 0 
( -0.00271244 0.00933061 0.00316826 ) 0 
( -0.00308168 0.00555465 0.00299708 ) 0 
( -0.0031245 0.0121096 0.00675411 ) 0 
( -0.0100348 0.00478689 0.00502447 ) 0 
( -0.00821703 0.00709966 0.00383002 ) 0 
( -0.000827987 0.001873 0.000499632 ) 0 
( -0.00118182 0.00388098 0.00484 ) 0 
( -0.012627 0.00012546 0.00149446 ) 0 
( -0.0100524 0.00878502 0.00209647 ) 0 
( -0.0101666 0.00231478 0.00223149 ) 0 
( -0.0047603 0.0097665 0.00352789 ) 0 
( -0.0122254 0.00241969 0.000499774 ) 0 
( -0.0101593 0.00266315 0.00420099 ) 0 
( -0.0040305 0.000359747 0.00539936 ) 0 
( -0.00320386 0.0111696 0.00355796 ) 0 
( -0.000409051 9.649e-05 0.00430782 ) 0 
( -0.00135806 0.00348195 0.00105472 ) 0 
( -0.00743086 0.00270031 0.00414083 ) 0 
( -0.00721751 0.00253136 0.0021602 ) 0 
( -0.00757666 0.00110994 0.00715729 ) 0 
( -0.0043187 0.0106995 0.00447527 ) 0 
( -0.0109034 2.26832e-05 0.00461471 ) 0 
( -0.0126177 0.00116545 0.000499693 ) 0 
( -0.00314927 0.00204987 0.00792852 ) 0 
( -0.00565482 0.00920169 0.00450888 ) 0 
( -0.00658578 0.0116125 0.00470443 ) 0 
( -0.00472885 0.000479886 0.00212203 ) 0 
( -0.0021411 0.00541165 0.00129947 ) 0 
( -0.00956637 0.00113806 0.00479618 ) 0 
( -0.00414954 0.00335307 0.00490672 ) 0 
( -0.00510751 0.00955306 0.00198231 ) 0 
( -0.00586987 0.0102435 0.000499675 ) 0 
( -0.0104972 0.00250455 0.00130723 ) 0 
( -0.00159931 0.00256141 0.00148382 ) 0 
( -0.00913077 0.0050992 0.00125078 ) 0 
( -0.00231636 0.00260235 0.00637191 ) 0 
( -0.00235361 0.00508153 0.00778819 ) 0 
( -0.00387918 0.0127741 0.000946761 ) 0 
( -0.0031483 0.0045679 0.00314387 ) 0 
( -0.00234776 0.00666386 0.0066166 ) 0 
( -0.00218939 0.00286154 0.00223371 ) 0 
( -0.00444413 0.000475986 0.00633922 ) 0 
( -0.0133335 0.000668191 0.0019479 ) 0 
( -0.0133368 0.000594676 0.000895991 ) 0 
( -6.18557e-05 0.00343678 0.00294959 ) 0 
( -0.0121854 0.00204531 0.00142684 ) 0 
( -0.0107735 0.00431053 0.00162484 ) 0 
( -0.00604374 0.0092636 0.00358861 ) 0 
( -0.00986392 0.00405015 0.00122382 ) 0 
( -0.00917262 0.00486784 0.00437407 ) 0 
( -0.00491113 0.00601439 0.00536716 ) 0 
( -3.77544e-06 0.00900813 0.00508549 ) 0 
( -0.000713956 0.00690649 0.005584 ) 0 
( -0.0114352 0.00577273 0.00384224 ) 0 
( -0.00476856 0.00961058 0.00607649 ) 0 
( -0.00419117 0.00847093 0.00213465 ) 0 
( -0.00802299 0.0106703 0.00572103 ) 0 
( -0.00334599 0.004255 0.00817959 ) 0 
( -0.00568737 0.00826995 0.00306851 ) 0 
( -0.0118199 0.00070613 0.000931785 ) 0 
( -0.00233348 0.00342826 0.00580854 ) 0 
( -0.00754867 0.000209944 0.00338449 ) 0 
( -0.0116741 0.00535586 0.00602988 ) 0 
( -0.00250965 0.0114596 0.00421661 ) 0 
( -0.000640434 0.00264255 0.00178924 ) 0 
( -0.0105576 0.00816548 0.00316424 ) 0 
( -0.00701137 0.0070787 0.000499536 ) 0 
( -0.00190558 0.0112772 0.00499225 ) 0 
( -0.000328227 0.00541597 0.00453906 ) 0 
( -0.00444671 0.00321299 0.00331666 ) 0 
( -0.00135379 0.00963805 0.00456707 ) 0 
( -0.00634098 0.000643951 0.00259862 ) 0 
( -0.00609671 0.0013703 0.000499627 ) 0 
( -0.00489532 0.000365504 0.00821524 ) 0 
( -0.00134415 0.00575093 0.00312248 ) 0 
( -0.00944316 0.00355546 0.00729375 ) 0 
( -0.00339103 0.00916369 0.00501863 ) 0 
( -0.00333427 0.00113502 0.00311326 ) 0 
( -0.0121259 0.00274697 0.00234243 ) 0 
( -0.00408153 0.0111075 0.00175598 ) 0 
( -0.00162302 0.0127264 0.0053338 ) 0 
( -0.00680534 0.00776145 0.00437312 ) 0 
( -0.00648009 0.00204183 0.00169473 ) 0 
( -0.00101647 0.013311 0.00587268 ) 0 
( -0.00257511 0.00573812 0.00701616 ) 0 
( -0.00393339 0.0101454 0.00620311 ) 0 
( -0.00529073 0.0015811 0.00756673 ) 0 
( -0.00609722 0.0118747 0.00386756 ) 0 
( -0.00985204 0.00172558 0.00718886 ) 0 
( -0.00570437 0.00470034 0.00148644 ) 0 
( -0.00305851 0.00287786 0.00539557 ) 0 
( -0.00778791 0.0108431 0.00149552 ) 0 
( -0.0106492 0.00578186 0.00446341 ) 0 
( -0.00448347 0.0084188 0.000499629 ) 0 
( -0.0116252 0.00164668 0.00543276 ) 0 
( -0.00637843 0.00997971 0.00507098 ) 0 
( -0.00191017 0.0043632 0.00427416 ) 0 
( -0.00148283 0.011596 0.00690812 ) 0 
( -0.00248261 0.00220351 0.00100972 ) 0 
( -0.00909981 0.00183328 0.000499595 ) 0 
( -0.00221653 0.00840159 0.00700183 ) 0 
( -0.00307011 0.00647247 0.00339349 ) 0 
( -0.00983456 0.00902852 0.000911213 ) 0 
( -0.000774793 0.00938718 0.00601192 ) 0 
( -0.00476123 0.0107023 0.00626773 ) 0 
( -0.00378473 0.009813 0.00435045 ) 0 
( -0.00118639 0.0105928 0.00540149 ) 0 
( -0.00846742 0.00121045 0.00671417 ) 0 
( -0.00858618 0.005729 0.00180433 ) 0 
( -0.00218441 0.00514079 0.00622234 ) 0 
( -0.0119888 0.000831705 0.00426539 ) 0 
( -0.00687771 0.00963751 0.00427506 ) 0 
( -0.0105515 0.00120098 0.00670484 ) 0 
( -0.00246759 0.00247617 0.00852302 ) 0 
( -0.00548495 0.000578554 0.00504673 ) 0 
( -0.00812634 0.00575723 0.00545093 ) 0 
( -0.00593017 0.00287314 0.00142671 ) 0 
( -0.00742176 0.00480999 0.00522963 ) 0 
( -0.00967217 0.00174855 0.00380254 ) 0 
( -0.00818823 0.00346735 0.00430076 ) 0 
( -0.00682148 0.00995773 0.00200972 ) 0 
( -0.00134746 0.0117156 0.00207762 ) 0 
( -0.00393713 0.00204699 0.00319678 ) 0 
( -0.00801262 0.00218451 0.0035109 ) 0 
( -0.00324374 0.00818453 0.00199345 ) 0 
( -0.00865934 0.00292906 0.00684093 ) 0 
( -0.00137523 0.0011131 0.00774773 ) 0 
( -0.000958953 0.00421155 0.000499739 ) 0 
( -0.00155237 0.00466466 0.00821715 ) 0 
( -0.0117936 0.00625566 0.00558886 ) 0 
( -0.0021048 0.00138754 0.00517604 ) 0 
( -0.00397444 0.010513 0.00355531 ) 0 
( -0.00948653 0.00713596 0.00659372 ) 0 
( -0.00668795 0.000980112 0.00666949 ) 0 
( -0.00594804 0.00506175 0.00382782 ) 0 
( -0.00907932 0.00202856 0.00663215 ) 0 
( -0.0112043 0.000821739 0.00268722 ) 0 
( -0.000134366 0.00615624 0.00607473 ) 0 
( -0.00916457 0.0036203 0.00398708 ) 0 
( -0.00406382 0.00657543 0.00220974 ) 0 
( -0.00133825 0.00629987 0.00483251 ) 0 
( -0.0122527 0.00231761 0.00323644 ) 0 
( -0.00896937 0.00362429 0.00619246 ) 0 
( -0.00516189 0.00920946 0.00711203 ) 0 
( -0.00130319 0.012151 0.00608739 ) 0 
( -0.0107307 0.00655556 0.00108732 ) 0 
( -0.00638725 0.00645411 0.00192282 ) 0 
( -0.00813163 0.0099817 0.000499667 ) 0 
( -0.00874801 0.00577262 0.00440369 ) 0 
( -0.000841977 0.00847935 0.00129277 ) 0 
( -0.00814708 0.00524761 0.00362719 ) 0 
( -0.007711 0.00285971 0.00715395 ) 0 
( -0.00431063 0.0119073 0.00120151 ) 0 
( -0.00112998 0.00777422 0.00585533 ) 0 
( -0.0122382 0.00533504 0.00706016 ) 0 
( -0.0123129 0.00515557 0.000499552 ) 0 
( -0.0100666 0.00648368 0.00242951 ) 0 
( -0.0122787 0.00523994 0.00377241 ) 0 
( -0.00771487 0.0108953 0.000499724 ) 0 
( -0.0112682 0.00535686 0.00136316 ) 0 
( -0.00299981 0.002431 0.00183462 ) 0 
( -0.00997361 0.00431397 0.00414555 ) 0 
( -0.0106132 0.00595001 0.00330133 ) 0 
( -0.000405678 0.00853525 0.00640993 ) 0 
( -0.00177118 0.00384508 0.00768882 ) 0 
( -0.00762075 0.00586559 0.000499723 ) 0 
( -0.00590283 0.0081231 0.00501622 ) 0 
( -0.00249278 0.00509086 0.00527062 ) 0 
( -0.00174624 5.34704e-06 0.000499756 ) 0 
( -0.00684798 0.00799851 0.0066451 ) 0 
( -0.0112931 0.00286114 0.000499861 ) 0 
( -0.000104652 0.0125632 0.00167136 ) 0 
( -0.00517495 0.00716206 0.000499742 ) 0 
( -0.00541857 0.00811476 0.000680805 ) 0 
( -0.0101136 0.00243845 0.00322772 ) 0 
( -0.000163494 0.00379844 0.00480749 ) 0 
( -0.00815682 0.00929457 0.00293646 ) 0 
( -0.00683764 0.00517992 0.00450024 ) 0 
( -0.00893784 0.00766257 0.00127092 ) 0 
( -0.00641135 0.0117018 0.0029307 ) 0 
( -0.00324405 0.00179133 0.000499774 ) 0 
( -0.00569364 0.0120752 0.00476653 ) 0 
( -4.85169e-06 0.00193373 0.00581101 ) 0 
( -0.00176089 0.00858229 0.00588062 ) 0 
( -0.00223967 0.00341194 0.00381723 ) 0 
( -0.000379279 0.00325371 0.0056175 ) 0 
( -0.00751264 0.0100335 0.00272828 ) 0 
( -0.00691857 0.00369755 0.00277367 ) 0 
( -0.00517311 0.00859731 0.00227412 ) 0 
( -0.0117773 0.00422133 0.00132791 ) 0 
( -0.000181061 0.00731948 0.00286429 ) 0 
( -0.00684615 0.0114585 0.000499804 ) 0 
( -0.00195731 0.00164261 0.00164937 ) 0 
( -0.00432536 0.00535616 0.000499905 ) 0 
( -0.0118381 0.00617147 0.00658408 ) 0 
( -0.00140026 0.00479992 0.00353311 ) 0 
( -0.00137241 0.00705862 0.00666405 ) 0 
( -0.00458244 0.0038063 0.00412759 ) 0 
( -0.000527057 0.0044937 0.00655983 ) 0 
( -0.0068235 0.00934409 0.00295496 ) 0 
( -0.00909105 0.0062551 0.00262393 ) 0 
( -0.00483575 0.000613368 0.00724872 ) 0 
( -0.00489987 0.00793594 0.00156204 ) 0 
( -0.00061246 0.00523692 0.00121608 ) 0 
( -0.000172093 0.00797178 0.00561784 ) 0 
( -0.00783949 0.00333526 0.0026159 ) 0 