FoamFile
{version 2.0; format ascii;class vectorField; location 0;object  v;}
2514
(
( -0.000167038 -5.58858e-05 2.21797e-05 )  
( -0.00108294 0.00081686 -0.000644165 )  
( 0.000762221 0.000322851 0.00446347 )  
( 0.00147604 0.00180978 0.00216453 )  
( -0.000426902 0.000480666 0.000160534 )  
( 0.000815726 0.000724848 0.00198907 )  
( 0.00280694 0.00033504 0.00142277 )  
( 6.24935e-05 -0.000567397 0.000189975 )  
( -0.00052322 0.00076407 0.0026345 )  
( -0.000219723 0.00798426 0.0163484 )  
( -0.00137521 -0.000825147 0.00434977 )  
( -0.000574536 0.000518807 0.00324895 )  
( 0.000868386 -0.000376216 0.00142058 )  
( 0.000111273 7.39381e-05 1.51194e-05 )  
( 0.000155828 0.000233824 -8.73645e-05 )  
( -0.000497973 0.000691697 -4.79185e-07 )  
( -0.00103997 0.000197125 0.00013629 )  
( -4.76467e-06 0.000421525 -0.000362114 )  
( -0.000132313 -0.000526826 4.62837e-05 )  
( -0.000366155 0.000245202 0.00201375 )  
( 0.000134751 -0.000249331 0.00130428 )  
( -0.000500945 -0.000539951 -0.00137612 )  
( 0.000502377 0.000431028 0.00108182 )  
( -0.00095501 -0.000593538 -0.000264907 )  
( 0.000697152 7.00656e-05 0.00123656 )  
( 8.98275e-05 -0.000172808 0.000531769 )  
( 0.000291811 -0.00028084 0.00186082 )  
( -0.000637176 0.00113213 0.00332709 )  
( 0.000683844 -5.46756e-05 -0.000165972 )  
( 0.000232166 0.000575367 0.00232827 )  
( -0.000202316 0.000638225 0.000910158 )  
( -0.00050223 -0.000285698 -0.00115427 )  
( -0.00273342 -0.00109383 0.00442506 )  
( -0.000146175 0.000608768 0.00388238 )  
( -0.0011458 -0.000843877 5.45122e-06 )  
( -0.00132751 -0.000547058 0.000727715 )  
( 0.000496249 -0.000699692 0.00456599 )  
( 0.000135181 -0.00058091 0.00214339 )  
( 5.84409e-05 -0.000713177 0.00138399 )  
( 0.000264949 -0.00030666 0.00346006 )  
( -0.000327688 -7.42132e-05 0.000138291 )  
( 0.000725902 0.00121808 0.00151548 )  
( -0.0015312 0.00115899 0.00283506 )  
( -0.00151152 -0.000336095 0.00151196 )  
( 0.000176463 0.000744576 0.00114595 )  
( -0.00139204 0.00132617 -0.00204416 )  
( -0.00116915 -0.000152229 0.00178594 )  
( 0.000194869 6.11035e-05 0.000216893 )  
( -0.000103871 -5.07771e-06 -2.2449e-05 )  
( -0.000440588 0.00075197 0.00328101 )  
( 0.000549404 0.000326679 0.000373039 )  
( 0.00144111 0.00099959 0.00115182 )  
( 0.000209651 0.000478534 -0.00137172 )  
( -0.000469659 3.28908e-05 0.00269333 )  
( -0.000835397 -0.00131579 0.00874892 )  
( -0.000893462 -0.00118019 0.00341613 )  
( -0.000153304 -0.000937613 0.0012417 )  
( 0.000474959 0.000180214 3.85407e-05 )  
( 9.55011e-05 -0.000314982 0.00189659 )  
( 0.000127884 -0.00060688 0.00324685 )  
( 0.00029794 0.000562887 0.00149373 )  
( 3.82001e-05 -0.000225492 0.00193579 )  
( -0.000853317 -2.59883e-05 0.00114006 )  
( 0.000331748 0.000334819 0.00137656 )  
( 0.00063256 -0.000397472 0.00195753 )  
( 0.000356386 0.000604157 -0.000211765 )  
( 0.000398419 0.00423667 0.00673683 )  
( 5.10008e-05 -0.000856766 0.00205134 )  
( 0.000503616 -5.1661e-05 0.00123946 )  
( 5.39248e-05 0.0025197 0.00251428 )  
( 8.65753e-05 -0.000552908 0.00184197 )  
( -0.000100247 -8.84034e-05 0.00171393 )  
( -0.000292574 0.000233448 -0.000399437 )  
( 0.00100683 0.000432161 0.000957779 )  
( -0.000911226 -0.000239168 0.000575012 )  
( -0.000104112 0.000448632 1.64954e-05 )  
( 0.00209207 -0.000566837 0.00315325 )  
( -0.00244021 0.000158646 0.00387355 )  
( 0.000128827 -0.000151247 -0.000230206 )  
( 0.000178208 6.45954e-05 2.47354e-05 )  
( 1.19004e-05 9.02413e-05 4.80165e-05 )  
( -0.00022178 -0.000313258 0.000283904 )  
( 0.00112095 3.67221e-05 0.00119953 )  
( 7.24831e-05 0.000504208 0.00174719 )  
( 7.0136e-05 0.00146058 0.00316401 )  
( -7.11669e-05 3.973e-05 0.000990394 )  
( -0.000195602 0.000435871 0.00220971 )  
( -2.38035e-05 -7.676e-05 3.29693e-05 )  
( 0.000221177 0.000992823 0.00361251 )  
( 0.000655361 5.52853e-05 0.00211148 )  
( -6.07682e-05 -0.000118187 6.51325e-05 )  
( -0.00123076 -0.000429425 0.00434195 )  
( 0.000615117 0.000845797 0.00288736 )  
( 0.00118852 0.00213248 -0.00107801 )  
( 0.000350746 0.00035511 0.000361478 )  
( -0.000729162 0.00136118 0.00581688 )  
( -0.000133055 -0.000208277 -0.000463526 )  
( 0.00110276 0.00127884 -0.000697448 )  
( 0.00153411 0.000452587 0.0023866 )  
( 0.000450075 0.000254577 0.00265862 )  
( -0.000132085 -5.37425e-05 1.96012e-05 )  
( 0.000705447 -0.000545659 0.0021644 )  
( 0.000828101 0.00100832 0.00188856 )  
( 0.00048311 0.000911358 0.00269585 )  
( -0.00252927 0.000148823 0.00266496 )  
( -0.000110231 -0.000137666 0.000298846 )  
( 0.00047056 -0.000221491 0.000808875 )  
( 0.000588909 -0.00282553 0.00335398 )  
( 0.000327132 -0.000100495 0.00198557 )  
( -0.00188888 0.00317937 0.00402805 )  
( 0.000656427 0.000277201 0.00113803 )  
( -0.00166855 0.000613364 0.000316015 )  
( 0.000842603 3.41511e-06 0.00148978 )  
( -0.00073428 -0.000359311 0.000141317 )  
( -0.00093864 -0.000685558 0.000906093 )  
( -0.000945221 -0.000318507 0.000498 )  
( -0.00309427 -0.00137818 0.002577 )  
( -0.00119512 0.00243137 0.0022443 )  
( -0.000549157 -0.00134452 0.00119395 )  
( -0.00183163 -0.000736065 -0.0018681 )  
( -0.000179104 0.000479226 0.00207164 )  
( 0.000450736 -0.000189206 0.00191483 )  
( -0.0011787 0.00149797 0.00434696 )  
( -0.000241411 -0.000724832 -0.00100676 )  
( -7.28151e-05 -0.000113724 0.00109436 )  
( 0.00111639 7.4223e-05 0.00360316 )  
( 0.000427411 1.14206e-06 0.00245006 )  
( 0.00088264 -0.000725827 0.00363692 )  
( -8.80212e-05 -8.66046e-05 3.63118e-05 )  
( 0.000654803 0.000298992 0.000450353 )  
( 0.000479073 -0.000460259 0.0021222 )  
( -0.000885895 0.00112567 0.00427108 )  
( 0.000359808 1.90232e-05 0.000799246 )  
( 0.00112808 0.00182495 0.00243341 )  
( 0.00479478 -0.00111126 0.00339428 )  
( 0.00117538 0.000756577 0.00013453 )  
( 0.000997935 0.00108521 0.0024866 )  
( -0.000412988 -0.00064167 0.000512112 )  
( -0.00109589 -0.00111183 0.00274808 )  
( 0.000292572 -0.000474422 0.00133406 )  
( -1.82163e-05 0.0024831 0.00228034 )  
( -0.00201405 -0.000639624 0.00417529 )  
( -0.000921771 0.000900295 -0.000126681 )  
( -0.00133773 -0.00110415 0.00372387 )  
( -0.00128651 -0.000541282 0.00710905 )  
( 0.000379125 0.000228653 -0.00159682 )  
( 0.000516621 0.00210117 0.00210772 )  
( 0.00055449 -0.000698382 0.00134169 )  
( 0.000455936 -0.000796943 0.00160903 )  
( 0.000318575 0.00154782 0.00368436 )  
( 0.00026255 -0.000879665 -0.000979421 )  
( -2.54389e-05 4.33032e-07 -2.68687e-05 )  
( -0.000240584 0.00187349 -0.00116744 )  
( 0.00196819 0.000679002 0.00217911 )  
( 0.000733917 -0.000160511 0.00328032 )  
( 0.00110926 -0.000303401 0.00111986 )  
( 0.000277335 -0.000990268 0.00296499 )  
( 0.000179575 7.43058e-05 4.70697e-05 )  
( 0.000573986 0.000645008 0.00255134 )  
( -0.00032045 -0.000144463 -0.000658872 )  
( 0.00140544 -1.5757e-05 0.00171648 )  
( -0.00050452 -0.000535841 0.00229243 )  
( 0.000183226 0.000959504 0.00289416 )  
( -0.000292721 -0.000655437 0.00137736 )  
( -0.000905764 -6.16384e-05 0.000134761 )  
( 0.000441181 -0.000361943 0.00258272 )  
( 0.00131069 -0.0007581 0.00281713 )  
( -0.000383541 -0.000874768 0.00224347 )  
( 4.51131e-05 -0.000978464 0.0019169 )  
( -0.000508368 0.00161469 -0.00194797 )  
( 0.000389415 0.000345575 -0.00156279 )  
( 0.000349237 -4.16474e-05 0.00113306 )  
( 0.000786332 -0.000205723 0.00146411 )  
( 0.000313948 -0.00029179 0.0019283 )  
( 0.000608683 -0.00140576 -0.00123509 )  
( 0.001178 7.1773e-05 4.64681e-05 )  
( -0.00143275 -0.000724144 0.001683 )  
( 0.000107293 0.00035943 7.1899e-05 )  
( 0.00176805 0.00076708 0.00242397 )  
( -0.000945871 -0.000147283 0.000577231 )  
( -0.00301208 -0.000886296 0.00655268 )  
( 2.51853e-05 0.000108025 0.000136696 )  
( -0.000656331 0.00132722 0.00317641 )  
( -0.000243527 -0.00176591 0.00548735 )  
( 0.00014477 0.00188847 0.000390298 )  
( -0.00140985 -0.00200812 0.00619918 )  
( 0.00100154 -0.00187405 0.00446886 )  
( -0.00208712 0.000539922 -0.00108421 )  
( -0.00264002 0.00380897 -0.00251384 )  
( 0.000489793 -0.00171419 -7.46143e-06 )  
( -0.000910659 0.00134011 0.00251487 )  
( 0.000165614 -0.00028953 0.00229401 )  
( -4.26163e-06 -0.000308677 -4.16264e-05 )  
( 0.000392241 6.70223e-05 0.00075429 )  
( -0.000935101 4.52511e-05 0.00267664 )  
( 0.00109965 0.000582373 0.00148688 )  
( -0.00103298 -0.00116192 0.00388704 )  
( 0.000361632 2.98195e-05 0.00214817 )  
( 0.000663659 -0.000326407 0.00321798 )  
( -0.00177788 -0.00116051 -0.000199704 )  
( 0.000696752 0.000774508 0.00347212 )  
( -0.000326072 0.000738275 -6.83151e-05 )  
( -0.000646507 -3.61591e-05 0.000139446 )  
( -0.000246521 0.000242063 -0.000398519 )  
( -0.000320808 0.000395572 0.00174278 )  
( -0.000505648 0.000538465 0.0016524 )  
( 0.000624945 0.000109815 0.00155095 )  
( -0.000862236 0.000689844 0.00170069 )  
( -0.00197437 0.00437652 -0.00193898 )  
( 0.00096506 0.000797226 0.000184052 )  
( -0.000427852 0.000915696 -0.000555269 )  
( 0.0015893 -0.000104314 0.0019119 )  
( 0.000678998 -9.63296e-05 0.000685239 )  
( 0.000112105 0.00128812 -0.00135225 )  
( 0.00100467 -0.000191115 0.00282771 )  
( 0.00369046 0.00128512 0.00357238 )  
( 0.00185261 0.00216626 -0.00496543 )  
( 0.000233071 0.000136233 5.37778e-06 )  
( -0.000450415 -0.000510059 0.00145974 )  
( -0.000814515 -0.000917698 0.00142848 )  
( 0.000339307 -0.000169757 0.00246387 )  
( 0.000426285 -0.00108456 0.00256227 )  
( 0.000910885 -0.000430762 0.00273731 )  
( 0.000102581 0.000190358 0.00158292 )  
( -0.00116397 -0.000529563 0.00375285 )  
( 0.000908678 7.67221e-05 0.00149407 )  
( 0.000807714 -0.000478723 0.00205883 )  
( -1.05086e-05 0.000313209 0.00147138 )  
( -0.000624817 -0.000744396 0.000264422 )  
( 0.000264582 -0.000554099 0.00403939 )  
( 0.0010045 0.00120541 0.00278981 )  
( 3.97984e-05 0.000412495 0.00220079 )  
( 0.000483975 -0.00059744 0.00154013 )  
( -0.0006725 0.000403681 -8.99716e-05 )  
( 0.000283217 8.55741e-05 0.000490574 )  
( -0.000378239 -0.000233866 0.00203399 )  
( 2.2655e-05 0.00057012 0.000111811 )  
( 0.000256526 0.000701047 0.00238837 )  
( 0.00106942 -0.00292952 0.00749489 )  
( -0.000842472 0.000669203 -0.000213003 )  
( -0.00107006 0.000506204 0.00153918 )  
( -0.00074137 1.38103e-05 0.00129244 )  
( 0.000471557 -0.000220014 3.27025e-05 )  
( 0.000627322 0.000169077 0.00206956 )  
( 0.00022169 1.99475e-05 0.00135593 )  
( -0.00153159 0.000284286 0.00378895 )  
( 0.000151749 -0.000171241 -2.75824e-05 )  
( 0.00017437 -0.000961242 0.00255179 )  
( 0.000110525 -0.000869573 0.000614243 )  
( 0.00217839 -3.28223e-05 0.00287084 )  
( 0.000616643 0.000148991 -0.000239577 )  
( -0.000701363 -0.00061698 0.00259987 )  
( 0.000137494 5.176e-05 -1.10926e-05 )  
( -0.000794674 0.000255287 0.00178666 )  
( -0.000383051 -0.00180008 0.00296257 )  
( 0.000873169 0.000840344 0.00155378 )  
( 0.00105048 -0.00134539 -0.0032266 )  
( 0.000560604 0.000381166 0.00140412 )  
( 0.000854007 -0.0018568 0.00202896 )  
( 0.000523342 -2.23391e-05 0.00161562 )  
( 0.000777566 0.000188757 0.0019087 )  
( -0.000665954 -0.00015823 0.00220894 )  
( -2.86101e-05 0.000201151 0.0001644 )  
( 0.000564902 -0.000787089 -0.00141649 )  
( -0.00120184 -0.00039083 0.00236888 )  
( -0.00020659 0.00111976 0.00189578 )  
( -0.00134191 0.00111951 0.00140932 )  
( 0.000933604 0.000470414 0.000987796 )  
( 0.00010934 -0.00117107 0.00120917 )  
( 0.0010203 0.000676481 0.00255938 )  
( -0.0030918 0.0022136 -0.00106138 )  
( 0.000985491 0.000121356 0.00210133 )  
( -6.34089e-05 -0.000518149 -4.58894e-05 )  
( -0.00259462 0.000166404 0.00167165 )  
( -0.000425611 0.000494021 0.000417759 )  
( -0.00230246 0.00250525 0.00301863 )  
( -0.000575318 0.000559635 -3.6083e-05 )  
( 0.000227534 -0.000917634 -0.000655053 )  
( -0.000602684 0.00018052 0.00175031 )  
( 0.000965688 -0.000700327 0.00162504 )  
( 0.000304004 -0.000454214 0.00197078 )  
( 0.000732522 0.000882402 0.000506943 )  
( 0.00071222 0.000857118 0.00231315 )  
( 0.000531157 0.000118298 0.000914216 )  
( -0.000273507 -0.000692424 0.00201598 )  
( 0.000353288 -0.000718683 0.00167969 )  
( 0.000808374 -0.000326421 0.00369344 )  
( -0.000764085 0.000392692 0.00161567 )  
( -0.00173543 0.000212995 0.00432497 )  
( 0.000766488 -0.000708172 0.00151835 )  
( 0.000390247 -9.14975e-05 0.00121019 )  
( -7.5084e-05 -0.000377567 0.00152839 )  
( 0.000567123 -0.00034224 0.00199902 )  
( 0.000366046 0.000441046 -0.000154676 )  
( 0.000930255 -0.000130573 0.00203477 )  
( -0.000712937 -0.000190156 0.000765515 )  
( 8.99259e-05 -0.000139361 0.00298435 )  
( 0.000751301 -0.000872709 0.00217301 )  
( -0.000760697 -5.76176e-05 0.00187732 )  
( 0.00113195 0.000222707 0.00182078 )  
( -0.00235996 0.00257058 1.07066e-06 )  
( 0.0018604 -0.000794648 0.0050778 )  
( -0.000159073 -0.00115354 0.000466595 )  
( -0.000494051 -0.000254882 0.00194804 )  
( -0.00116237 0.000813089 0.00375314 )  
( -4.25495e-05 -0.000157956 -0.00096761 )  
( 0.000789119 0.000396532 0.00103049 )  
( -0.000165898 0.000350727 0.00121459 )  
( 0.000186394 -0.000371215 0.00189812 )  
( -9.63045e-05 5.23211e-05 0.00174172 )  
( -0.00052845 0.000138149 0.000767181 )  
( -0.000554778 -0.000343844 0.000188604 )  
( 0.00216156 0.000431768 -0.000907002 )  
( 4.01375e-05 0.00109456 0.00144527 )  
( -0.00351689 -0.000619373 0.00614996 )  
( 0.00049419 8.83002e-05 0.00207415 )  
( 1.21322e-05 0.000208933 -5.43156e-05 )  
( 0.000951778 -0.000702602 0.00105004 )  
( 0.000935939 -0.00127222 -0.00158068 )  
( 0.000750608 0.00230367 0.00603813 )  
( 0.00108865 0.00181509 0.00346377 )  
( 0.00089873 0.000257399 0.00240052 )  
( 0.000448738 -0.000684297 0.00229808 )  
( -0.000196597 0.000445133 0.000808871 )  
( -0.000964243 0.00152589 0.00274072 )  
( 0.000193449 0.00065842 0.000277261 )  
( 0.00221381 0.000850931 -0.00143015 )  
( 0.000277232 -0.000181453 0.00201667 )  
( -0.000242843 0.00182061 0.0030984 )  
( -0.000988941 0.00170112 0.00238447 )  
( -5.77349e-05 -0.000601224 0.00236037 )  
( -0.000384269 0.000276381 -0.000208309 )  
( 0.00147743 0.00121338 0.002828 )  
( 6.75682e-05 -0.000293082 0.0020393 )  
( -0.000231125 0.00125572 0.000457465 )  
( -0.000336036 0.00166529 0.00214384 )  
( -0.000154986 1.37318e-05 -9.04139e-05 )  
( 0.00113622 0.0017147 0.00289492 )  
( 0.00127608 -0.000328208 0.00216848 )  
( 3.39121e-06 -1.50489e-06 0.00015989 )  
( 0.000207376 -0.00100971 0.00152182 )  
( -0.000111314 0.000238369 0.00166947 )  
( -0.000535783 0.00080291 0.000261209 )  
( -7.63576e-05 1.46285e-06 -0.000494706 )  
( -0.000829268 0.000615673 1.03167e-05 )  
( -0.000450949 1.75901e-05 0.00181624 )  
( -0.000100377 -8.40615e-05 -2.63915e-05 )  
( 0.00133035 -0.00165659 0.00262277 )  
( 0.00010474 0.00168498 0.00157368 )  
( -0.00112973 -0.00164759 -0.00118401 )  
( 0.000200667 7.98393e-05 0.00117686 )  
( 0.000801012 -0.00117413 0.00131643 )  
( 0.000355881 -0.000234017 3.80708e-05 )  
( 0.00281023 0.000821811 -0.00272449 )  
( -0.00147243 0.00118134 0.00123243 )  
( -0.000546816 -0.00144151 0.00306654 )  
( -0.000142583 0.000279347 0.00195476 )  
( 0.000239768 -0.000571031 0.00169013 )  
( 0.00191381 0.000717051 0.00101595 )  
( 0.000421473 0.000208699 0.000718003 )  
( -0.000256246 0.000466348 0.00174674 )  
( -0.0015522 -0.000838353 0.00208224 )  
( 0.00125437 0.000795358 0.00260137 )  
( 0.00212442 0.000763071 0.00302607 )  
( 0.000898604 -0.000409081 0.00389927 )  
( -0.00424836 -0.000618471 0.0100198 )  
( 0.00108377 -0.00140416 0.00114243 )  
( 0.00110974 -0.000413536 0.00130616 )  
( -0.000162599 -0.000544278 0.00204064 )  
( -0.000125304 0.0014655 0.000787857 )  
( -0.000759332 -0.00162053 0.0018223 )  
( 0.000167669 0.000612601 0.0017643 )  
( 0.000161495 0.000183606 0.000563706 )  
( 0.00032927 -0.000539611 0.00103371 )  
( -0.00399726 0.00101809 -0.00285727 )  
( -0.000892196 0.000573418 -0.000633179 )  
( -0.000251531 0.000379875 0.000440471 )  
( -0.000311285 0.0028478 -0.00186694 )  
( 0.000123781 0.000792228 0.000105688 )  
( -0.00017198 0.000382595 -0.000137926 )  
( -0.000772286 -0.001185 0.00209011 )  
( -0.000416662 0.00516385 0.00877531 )  
( -0.00150525 0.000822119 0.000921008 )  
( -8.52447e-05 -0.000949759 0.00240365 )  
( -0.000356277 0.000114539 0.000405146 )  
( -0.00113933 -0.00175692 -0.000635304 )  
( 0.000411854 0.000865461 0.00197114 )  
( -0.000202246 -0.000459922 0.000441809 )  
( -0.000860221 5.72079e-05 0.000209144 )  
( -0.00297845 -0.00108057 -0.00136427 )  
( 0.000788101 0.000290127 0.00222591 )  
( -0.000962638 0.00227328 0.00258416 )  
( 2.06226e-05 -0.000143701 0.00234259 )  
( 0.00113308 -0.00105064 0.00244378 )  
( 0.000289656 0.00114445 -0.00227233 )  
( 0.0026098 0.00410534 -0.00177882 )  
( -0.0010513 0.00159571 0.00797988 )  
( 0.00117048 0.00124412 -0.000597721 )  
( 0.000150809 -4.59373e-05 0.00386321 )  
( -0.000562554 0.000275614 0.00398916 )  
( -0.000301555 -0.000202224 0.000983989 )  
( -0.000116508 -0.00121095 0.00156875 )  
( -2.60243e-07 0.000156298 0.00142004 )  
( 0.00183275 -0.00185545 0.00180108 )  
( 0.0011891 -0.000245507 0.0034399 )  
( 0.000232735 -0.000387984 0.0020098 )  
( 0.00072467 0.000116684 0.000607954 )  
( -0.000433813 -0.000325137 0.00145552 )  
( -0.00116718 0.000509282 0.00269576 )  
( -0.000450058 0.00151956 0.000328771 )  
( -0.000444954 -0.000526054 0.00614525 )  
( -0.00037457 0.00103889 0.00165712 )  
( 0.000657581 0.00102132 -0.000188609 )  
( 0.00233731 -5.73288e-05 0.00267316 )  
( 0.00303371 0.00100551 0.00588583 )  
( -0.0010575 -0.0023014 0.00756434 )  
( 9.77099e-05 -0.000364469 2.34917e-05 )  
( -0.000921228 0.00130543 0.00113543 )  
( -0.000389325 0.000263369 3.75099e-06 )  
( -7.87038e-06 0.000264325 1.57894e-05 )  
( -0.000500307 -0.000863482 0.00397692 )  
( 4.94293e-05 0.000598085 0.00309224 )  
( 0.00094232 -0.000100135 0.00232289 )  
( 0.000512183 -0.000225103 0.0020352 )  
( -0.00306377 0.00282183 0.00874947 )  
( 0.000258308 0.000456518 0.00243235 )  
( 0.000367901 -7.21149e-05 -3.23238e-05 )  
( 0.000309988 0.000774608 0.00254267 )  
( -0.00136319 0.00190818 -9.84823e-05 )  
( 0.00121906 0.000538512 0.000642984 )  
( -0.00038103 0.000221 -3.68553e-06 )  
( 0.00136026 0.000919686 0.00143294 )  
( 0.000995677 0.000302861 -0.000432839 )  
( -0.000707176 0.000782398 -0.000403575 )  
( -0.000259403 -3.64344e-05 0.00108238 )  
( 1.50938e-05 0.000607827 -0.000398564 )  
( -0.00039248 -0.000349162 1.64837e-05 )  
( 0.000949435 -0.000274927 0.00523367 )  
( 0.000166548 -0.000349253 0.00177733 )  
( -0.000113384 -0.00133889 -0.000419854 )  
( 1.90028e-05 0.00112328 0.00294294 )  
( 0.00042072 -0.000594274 0.00226897 )  
( 0.000364928 0.000105064 0.00203266 )  
( 0.000902487 0.000137377 0.00217222 )  
( 0.000592375 0.000250026 0.000664326 )  
( -0.000213527 -0.000122362 0.00107595 )  
( 0.0017277 0.00113925 -0.000340684 )  
( 0.000771719 0.00123967 0.0017844 )  
( 0.000405493 0.000970467 0.00249814 )  
( -0.00111075 -0.000137442 5.49712e-05 )  
( 0.000202524 -0.000284504 0.00135143 )  
( -0.000443223 0.000969477 4.9337e-06 )  
( 0.000418708 5.8297e-05 0.00117157 )  
( -0.00124365 0.00128741 0.00533946 )  
( 0.00105601 0.000773048 0.00203757 )  
( 0.00146053 0.000391014 0.00222652 )  
( 0.00327054 0.00029804 -0.00359818 )  
( -0.000181104 0.000320565 0.00180096 )  
( 0.000199957 0.000801686 0.00177083 )  
( 4.70187e-05 0.000352443 0.00167898 )  
( 0.00139938 -0.000459386 0.00219055 )  
( -0.000282861 -0.000339957 0.00136902 )  
( 0.00048554 -0.000754404 -0.000917727 )  
( -0.00091046 -0.000110365 -9.59871e-05 )  
( -0.000861973 -0.00064597 -0.000769432 )  
( 0.000142009 -4.4786e-06 0.0018878 )  
( 9.78145e-05 -0.000536262 0.00132762 )  
( 0.00079196 0.00155654 0.000259098 )  
( -0.000288361 -0.000966574 0.00155114 )  
( 0.00212262 -0.00125598 0.00251437 )  
( -0.000110605 -0.000119389 0.000197536 )  
( 2.33121e-05 0.000582831 -0.000346787 )  
( 0.00016508 -6.15209e-05 -8.33914e-05 )  
( 0.00106709 0.000363516 0.00073125 )  
( 0.00144052 0.000381351 0.00255307 )  
( -0.00162933 -4.4502e-05 -0.00229422 )  
( -0.000510657 0.000474938 0.00346244 )  
( -0.00022237 0.000259046 0.00329147 )  
( 0.000293259 -0.000504154 0.00230166 )  
( 0.000193208 0.000800853 0.00181146 )  
( -2.99121e-05 -0.000948399 0.00259344 )  
( -0.000290884 0.000360429 0.00151492 )  
( -9.12255e-05 0.000502689 0.0013383 )  
( 0.000209219 0.00146684 0.00223131 )  
( -0.000157484 -0.000344849 3.68986e-05 )  
( -0.00136214 0.00120659 -0.000175673 )  
( 0.000649072 0.000201296 0.00265579 )  
( 0.00029323 0.000350252 0.0019926 )  
( 0.00177218 -0.00200434 0.004126 )  
( 0.00044094 0.000814838 0.00268764 )  
( 0.00381553 0.000928058 0.00368028 )  
( 0.000261437 0.00222238 3.4364e-05 )  
( 0.000219797 0.000350598 0.00173922 )  
( 0.000112323 -9.16518e-05 0.00193678 )  
( 6.48107e-05 -0.000144498 0.000134044 )  
( 0.000166631 0.00289656 -0.0003786 )  
( -5.35674e-05 -5.61396e-05 2.69687e-05 )  
( -0.00329793 0.00163989 0.00530288 )  
( -0.000415727 0.000518966 0.00125331 )  
( -0.000124039 -6.86964e-05 3.33407e-05 )  
( 0.000831029 -0.00011809 0.00233511 )  
( 0.000805767 -0.00114366 0.00179429 )  
( 0.000252406 0.000798526 0.00117938 )  
( -0.000918131 -0.000426388 0.000100528 )  
( 0.00075068 0.000715435 0.000919846 )  
( -0.000258095 -0.000501953 0.00119811 )  
( 0.00104748 0.00246116 0.00523623 )  
( -0.000124034 -0.000184257 0.00119355 )  
( 0.000523256 0.000217744 -0.00104407 )  
( 0.000332183 1.93611e-05 0.00185633 )  
( -2.15923e-05 0.000485222 -9.14603e-05 )  
( -0.000290749 -0.000392557 0.000108074 )  
( -0.000253478 0.000725379 0.0030066 )  
( -0.000810784 0.00095805 2.8103e-05 )  
( -0.00181193 0.000807798 -0.000335595 )  
( 0.000235912 -1.09023e-05 0.00171332 )  
( -4.05451e-05 0.00067009 0.00197975 )  
( 0.000393612 8.98992e-05 -5.25306e-05 )  
( 0.000698833 -9.85404e-05 0.00160426 )  
( 0.00200654 -0.000746735 0.00513488 )  
( -0.000211652 0.000145673 0.00327025 )  
( -0.000299055 5.26038e-05 0.00207429 )  
( -0.00067082 0.000472773 0.0014053 )  
( -0.000244952 -0.000341775 0.00295153 )  
( -0.000331278 -0.000162651 0.00156921 )  
( 5.01389e-06 0.000945678 -0.000386989 )  
( 0.000906202 0.000290624 0.00312728 )  
( 0.000308461 0.000427706 0.00112146 )  
( 0.000916591 -0.000310827 0.00219536 )  
( 0.000154973 0.00105592 0.00361974 )  
( -0.000377243 -0.000579934 0.00123113 )  
( -0.000665983 -0.000565556 0.00125303 )  
( 0.000983028 -0.00039383 0.00570441 )  
( 0.000252953 9.27403e-05 -2.12875e-05 )  
( 0.000197879 0.000749557 0.00143787 )  
( 3.35045e-05 0.00015153 -0.000119195 )  
( 0.00017803 0.000207712 3.49848e-05 )  
( -0.00169978 -0.000935535 0.000711964 )  
( 0.000256054 -2.33525e-05 0.00217527 )  
( 0.00142809 0.00107742 -0.000122173 )  
( -0.00134112 -0.000849615 0.00391637 )  
( 0.000256339 -0.000638749 0.00383778 )  
( 0.000700948 0.000504971 0.00247235 )  
( -0.00126832 -0.000530633 0.00145409 )  
( -0.0013515 0.000253121 -0.000421854 )  
( -0.000357553 0.00127699 0.000935411 )  
( 0.00143058 0.000970878 -0.00176126 )  
( 0.000759203 -7.10074e-05 0.0013814 )  
( -0.000118973 -0.000907541 0.00246267 )  
( -0.000266653 -8.3142e-05 6.82165e-05 )  
( 0.000138049 6.67653e-05 2.00072e-05 )  
( -0.000338564 0.000115899 0.00225521 )  
( -0.00142126 -0.000793926 0.00291986 )  
( 0.00102984 0.000551468 0.00329389 )  
( -0.000114779 -0.00275544 7.89488e-05 )  
( 0.0022787 0.00420069 -0.00316921 )  
( -0.00036387 -0.00151153 0.00385481 )  
( -0.000343754 0.00222497 0.00258398 )  
( -0.00113983 0.00106202 -0.000987134 )  
( 0.000251067 0.000225981 7.02018e-06 )  
( -0.000201828 0.000170022 0.000384986 )  
( -0.000629892 0.000257323 -0.00013243 )  
( 0.00050291 -0.00188306 -0.00140939 )  
( 0.000486023 -0.000402739 0.00244445 )  
( -0.000227022 -0.000877948 0.00199056 )  
( 0.000238984 0.000101723 -2.23058e-05 )  
( 0.000739255 0.000769554 0.00186034 )  
( -0.000351335 -0.000682535 0.00198705 )  
( -0.000104215 0.00169727 5.67589e-05 )  
( 0.000365848 -0.000379078 0.00163129 )  
( -8.3043e-05 0.000172617 -0.000486049 )  
( 9.3283e-05 0.000353609 -0.000296572 )  
( 0.00220243 -0.000468894 0.00173892 )  
( 7.0216e-05 6.9124e-05 0.000507658 )  
( -0.00417177 0.00195959 -0.00226225 )  
( 0.000695009 0.00109806 0.00188845 )  
( -0.00179721 0.00045674 0.00106412 )  
( -0.000579616 -0.000834614 0.000807717 )  
( -0.000780849 3.33629e-05 0.00200386 )  
( 0.0044058 0.00317839 0.00915519 )  
( 0.0017278 -0.000352748 0.00268538 )  
( -0.000179258 -0.00194151 0.00175888 )  
( -0.000293563 -0.000107599 0.00135902 )  
( -0.000496483 0.00159572 -0.00161745 )  
( 0.000379851 4.12071e-05 0.0015275 )  
( -0.000284866 -0.000376401 0.00141384 )  
( 0.000660908 0.000227316 0.00170384 )  
( -0.000124993 0.000557557 -0.000261504 )  
( 0.000378519 -0.000299462 0.00218804 )  
( -0.000508093 0.00102536 0.00143971 )  
( -0.00195799 -0.000469736 0.00144967 )  
( 0.000526709 0.0012066 0.00296144 )  
( -0.00308471 0.00321242 -0.00352547 )  
( 0.000537008 -0.000510217 0.00635735 )  
( -0.000186099 -7.47715e-06 3.3052e-05 )  
( 0.000964551 0.00118364 0.0028109 )  
( 0.000138059 0.000985252 0.00203184 )  
( -1.74293e-05 0.000809042 0.00391296 )  
( 0.000668815 -0.000278796 0.00395662 )  
( 0.00132615 -0.000609718 0.00506974 )  
( -0.000384987 -0.000316135 -7.43335e-06 )  
( 0.000113551 -0.000277364 0.00138409 )  
( 0.00032078 0.0014189 0.00113787 )  
( 0.000271567 0.000272214 0.000945027 )  
( 6.10632e-05 0.000976559 0.00201483 )  
( 0.000548889 0.00161794 0.00277303 )  
( 1.93449e-05 0.000554201 0.00134329 )  
( 0.000356358 -0.000265733 -0.000218583 )  
( 0.000492208 -0.000673971 0.00299765 )  
( -0.000136143 -0.00125147 0.00162703 )  
( 0.00042086 -0.00112367 -0.00202137 )  
( -0.000263884 -0.000248365 0.00312546 )  
( 0.00181952 -0.00253658 0.0106728 )  
( 0.000176634 -0.000580816 0.000865046 )  
( -0.00042981 8.50387e-06 0.0015782 )  
( 0.00100391 -0.000105858 0.00383105 )  
( 0.000803213 -0.000319881 0.000837768 )  
( -0.00114456 0.0022635 -0.000390103 )  
( 0.000257921 -0.000497942 0.00289387 )  
( 0.00025222 6.97628e-05 -7.19787e-05 )  
( -0.0003872 -0.000216869 0.00288621 )  
( 3.28016e-05 0.000219957 1.53726e-06 )  
( 2.63559e-05 0.000611842 0.0012807 )  
( -0.00150472 -0.000273683 0.00228105 )  
( -0.000142671 -0.00100127 0.00309514 )  
( 3.50713e-05 -0.00041862 0.00260624 )  
( -0.000285948 -0.000146092 -0.000129708 )  
( -0.000742375 -0.00033554 -5.86339e-05 )  
( 0.000375121 0.00036408 0.00149938 )  
( -7.93069e-05 0.00162162 0.00296315 )  
( -6.32544e-05 -4.8879e-05 2.85623e-05 )  
( -0.000747091 0.000617354 0.00225418 )  
( 0.000261101 -0.000830098 0.0020991 )  
( -0.000144935 -0.000325757 0.000736666 )  
( -2.44611e-05 0.00105107 0.00170115 )  
( 0.000761439 -0.000201793 0.00114134 )  
( 0.000909525 -0.00255502 -0.00121744 )  
( 0.000282835 -0.000252065 0.0011353 )  
( 2.01017e-05 0.000237435 0.00105643 )  
( -0.000501978 -0.000161742 0.00186805 )  
( 0.000163718 1.13758e-05 0.00128349 )  
( -0.00022619 0.000431044 0.00183301 )  
( 2.4493e-05 -0.000828653 0.0021104 )  
( 0.000980192 0.00062132 0.00178486 )  
( -0.000153865 -0.000738896 -0.000922781 )  
( -0.000284401 0.000476114 0.00121445 )  
( -0.000903902 -0.00133161 0.00307583 )  
( -0.000685247 -0.000498704 0.000678979 )  
( -0.00181257 -0.000765351 -0.00162721 )  
( 0.00023543 0.000480118 0.000627962 )  
( -0.000850537 -0.0011538 0.0049126 )  
( -0.00016726 -8.13302e-05 0.00107737 )  
( -0.000666329 -0.000497301 0.000485171 )  
( 0.000766609 0.000574483 0.00127277 )  
( -0.000521655 0.000660125 0.00277249 )  
( -0.000317161 5.21254e-05 1.66531e-05 )  
( 0.000290866 2.62167e-05 0.00159348 )  
( 0.000265858 0.000594866 0.00122274 )  
( -0.000373085 -0.000137513 0.00276082 )  
( 0.000112087 -2.36667e-05 0.00243336 )  
( 0.000257157 0.00136434 0.000996513 )  
( 0.000124441 -0.000387293 0.00181023 )  
( -0.000476818 0.000783498 0.00133807 )  
( 0.000869719 0.000124511 0.00122131 )  
( -0.00327379 0.000603213 0.00503624 )  
( 0.00124492 0.000770409 0.002426 )  
( -0.0014572 -0.00131938 0.00131413 )  
( -0.00144012 0.000781031 -0.000177298 )  
( 0.00107919 0.000656136 0.00216237 )  
( 0.00043466 0.000179292 0.00132321 )  
( 0.000416808 9.33459e-05 0.000734037 )  
( -0.00018134 0.000285473 0.00172673 )  
( 0.000676937 0.000183443 0.00377811 )  
( -0.000200752 0.000420871 0.000426443 )  
( -0.000652101 0.000137382 0.000117722 )  
( -3.67225e-05 0.000222145 -0.000105815 )  
( -0.00160103 -0.000258988 0.00203009 )  
( 9.92983e-05 0.000436063 -0.000154455 )  
( -9.92398e-05 -7.76791e-05 0.000397745 )  
( 0.00100368 0.000436859 0.00138587 )  
( 0.000953784 -0.000180514 -0.000473582 )  
( 0.00152157 -0.000260067 0.00237166 )  
( -4.31172e-05 -0.00026296 0.00149043 )  
( -9.487e-06 0.00014917 -0.000145527 )  
( -0.00482094 -0.000975278 0.00787168 )  
( -0.000760732 -0.00126911 0.0011644 )  
( 0.000732689 0.000528467 -2.03729e-06 )  
( 0.00121089 7.88603e-05 0.000127765 )  
( -0.000342002 -0.000304004 -6.62203e-05 )  
( 0.000330922 -0.00297681 0.00245943 )  
( 0.000790461 -0.000797637 0.00355321 )  
( 0.000130007 6.82508e-05 0.00183237 )  
( 0.000274877 -0.00014682 0.00193216 )  
( 0.000132697 -0.000282981 -0.000204414 )  
( 0.000697318 -0.000338912 0.00200267 )  
( 0.000323318 0.00140246 0.00531548 )  
( -0.000172945 0.000114224 -5.40584e-07 )  
( 0.000679472 -0.000836784 0.0019586 )  
( 0.00031693 -0.000394458 7.39824e-06 )  
( 0.000190832 -7.79551e-05 0.000114488 )  
( -0.000998796 -0.00041805 -7.50941e-05 )  
( 9.31198e-05 -0.000129492 0.000132624 )  
( -0.00166094 -0.000433791 0.00380767 )  
( 0.000239571 0.000164327 0.00155124 )  
( 0.000641891 -0.000128981 0.000172209 )  
( 0.000345891 -0.000495696 0.00161371 )  
( -0.000339118 -0.000313814 0.000245891 )  
( 0.000618534 -0.000275165 0.00381661 )  
( 0.00131323 -0.000343692 0.000101903 )  
( 0.000940739 0.000676283 0.00182597 )  
( -0.000449533 -0.000132111 0.00359263 )  
( 0.000299841 0.000892287 0.00185109 )  
( 0.00113996 0.00122508 0.0019547 )  
( 0.000706911 0.000485964 0.00194113 )  
( -0.00031671 0.000329398 -7.53624e-05 )  
( -0.000311664 0.00116684 0.00133505 )  
( -0.000569444 0.00037383 -8.01878e-05 )  
( -0.000469793 -0.000316757 -0.000137902 )  