/*--------------------------------*- C++ -*----------------------------------*\
| =========                 |                                                 |
| \\      /  F ield         | OpenFOAM: The Open Source CFD Toolbox           |
|  \\    /   O peration     | Version:  2506                                  |
|   \\  /    A nd           | Website:  www.openfoam.com                      |
|    \\/     M anipulation  |                                                 |
\*---------------------------------------------------------------------------*/
FoamFile
{
    version     2.0;
    format      ascii;
    arch        "LSB;label=32;scalar=64";
    class       volScalarField;
    location    "0.009";
    object      p;
}
// * * * * * * * * * * * * * * * * * * * * * * * * * * * * * * * * * * * * * //

dimensions      [0 2 -2 0 0 0 0];

internalField   nonuniform List<scalar> 
512
(
0.121819
-0.227646
-0.148855
-0.145996
-0.45757
-0.552691
-0.245666
-0.0240736
-0.102531
-0.277434
-0.162027
-0.311943
-0.540781
-0.201377
0.153615
0.0238098
-0.0474772
-0.0122135
0.240601
0.525206
0.654287
0.514861
0.293805
0.329245
0.58512
0.449788
0.188761
0.262172
0.195197
0.124813
0.380736
0.443925
0.0971493
-0.0838322
0.0878152
-0.224094
-0.684186
-0.606083
-0.201607
-0.000859931
-0.107338
-0.374994
-0.256423
-0.290268
-0.490161
-0.120809
0.0628829
-0.143417
0.00949913
0.139891
0.198274
0.450479
0.625784
0.477098
0.292159
0.477292
0.608649
0.407256
0.27189
0.435504
0.34531
0.173807
0.117185
0.279758
-0.0916818
-0.116617
0.0242714
-0.220713
-0.552821
-0.515366
-0.201957
-0.0323189
-0.155069
-0.450147
-0.291577
-0.114658
-0.426155
-0.376041
-0.0211059
0.121392
0.156483
0.0879588
0.126424
0.428461
0.420922
0.406322
0.410523
0.419144
0.475352
0.329821
0.28504
0.436555
0.416811
0.426091
0.306577
0.13903
-0.0867177
-0.251919
-0.110791
0.0119518
-0.24699
-0.505459
-0.338888
-0.19459
-0.462853
-0.476004
-0.322066
-0.290869
-0.212347
-0.0781604
0.06902
0.0921545
0.0860467
0.161945
0.332345
0.597158
0.465932
0.250643
0.322485
0.355132
0.32284
0.246416
0.250193
0.355136
0.417471
0.550082
0.491754
0.243854
0.096351
-0.00986553
-0.223226
-0.206583
-0.190272
-0.110985
-0.251948
-0.365191
-0.491438
-0.488714
-0.438288
-0.3814
-0.178507
0.0716835
0.012697
-0.0221093
0.169951
0.278856
0.304219
0.427806
0.385136
0.244753
0.259709
0.346555
0.308345
0.370928
0.382609
0.258646
0.270697
0.522707
0.538856
0.259673
-0.150827
-0.04597
-0.00453509
0.182191
0.0136761
-0.309483
-0.416001
-0.566953
-0.724594
-0.664836
-0.505455
-0.27793
-0.113867
-0.000588954
0.124194
0.18195
0.176415
0.164406
0.258447
0.456583
0.462726
0.352786
0.183451
0.122056
0.297335
0.403056
0.405067
0.422914
0.400638
0.583028
0.589328
0.113488
-0.166418
-0.20851
0.282701
0.568966
0.211501
-0.574474
-0.839429
-0.659018
-0.70526
-0.723508
-0.24113
-0.148851
-0.310277
-0.0689423
0.140305
0.0850512
0.141053
0.33475
0.337801
0.380592
0.355014
0.169739
-0.0306251
0.087155
0.461161
0.490915
0.466272
0.393983
0.255731
0.444721
0.557381
0.288544
-0.257713
-0.0648541
0.374035
0.533962
0.133097
-0.655245
-0.84977
-0.427988
-0.584645
-0.695947
-0.245332
-0.0715444
-0.154472
0.0359508
0.0179037
-0.0822925
0.101568
0.339151
0.448259
0.360532
0.144919
0.0137633
0.027226
0.021514
0.336961
0.778719
0.766502
0.463018
0.327466
0.394154
0.49452
0.260728
0.0513147
-0.197231
-0.0674127
-0.0952961
-0.277635
-0.319034
-0.243974
-0.0695169
-0.182494
-0.572759
-0.374139
-0.268797
-0.479137
-0.284797
0.374115
0.302114
-0.0862323
-0.0979837
0.279362
0.589262
0.584145
0.456149
0.0802335
0.0372861
0.348789
0.436405
0.335669
0.245028
0.184874
0.259782
0.416185
0.387763
-0.00280014
-0.128667
-0.0512072
-0.165428
-0.207926
-0.192292
-0.227195
-0.104372
-0.37868
-0.75642
-0.383363
-0.0991275
-0.334817
-0.211111
0.22335
0.213518
-0.0576528
-0.159287
0.145865
0.530537
0.617788
0.505787
0.171955
0.0258539
0.314033
0.511114
0.420916
0.3365
0.192868
0.217889
0.391157
0.306842
-0.0444971
-0.200143
-0.0214994
-0.0513509
-0.10413
-0.0369781
-0.0826602
-0.0773106
-0.515274
-0.895633
-0.491539
-0.175424
-0.228453
-0.138985
0.180261
0.238107
0.135022
0.0182553
0.00667094
0.211579
0.463291
0.566943
0.424518
0.20626
0.238413
0.468378
0.412861
0.295103
0.30357
0.309282
0.292282
0.205616
-0.215835
-0.275322
-0.0309728
0.0330539
-0.0516948
0.0849339
0.00375956
-0.107711
-0.630192
-0.942241
-0.632295
-0.303406
-0.061127
0.00837582
0.0349771
0.133509
0.220321
0.0871207
0.0446285
0.410171
0.62456
0.450095
0.237801
0.113642
0.295113
0.472284
0.412596
0.351141
0.461545
0.542658
0.331573
0.126336
-0.13625
0.0179794
-0.0473466
-0.00463786
-0.14803
-0.111594
-0.229038
-0.32084
-0.581031
-0.681447
-0.440416
-0.16777
-0.0642804
0.0491543
-0.0498041
0.0137137
0.23363
0.289854
0.299328
0.384605
0.326884
0.147982
0.0815297
0.194047
0.296145
0.44373
0.546639
0.449033
0.261154
0.388437
0.446766
0.110645
-0.231854
-0.163246
0.0439972
0.369359
0.425397
-0.185715
-0.706826
-0.728428
-0.59635
-0.532802
-0.381219
-0.298409
-0.316036
0.0280082
0.196067
0.179626
0.261325
0.279919
0.227936
0.252059
0.273776
0.3231
0.182965
0.14208
0.368424
0.525202
0.538185
0.397576
0.20566
0.345665
0.45585
0.0887383
-0.195732
-0.264642
0.207826
0.508875
0.358915
-0.455517
-1.02674
-0.6119
-0.388223
-0.571749
-0.419103
-0.315244
-0.365471
-0.0473903
0.189873
0.197335
0.184625
0.195052
0.36679
0.379649
0.180185
0.147666
0.149479
0.0262022
0.345613
0.614203
0.635662
0.387016
0.0950556
0.319445
0.582265
0.297327
-0.161779
-0.315338
0.0615632
0.273676
0.129647
-0.27692
-0.615856
-0.520183
-0.426678
-0.485057
-0.240711
-0.156143
-0.314183
-0.0762761
0.148134
0.224299
0.195997
0.168735
0.261931
0.200741
-0.0807599
0.037001
0.364291
0.268075
0.29796
0.587288
0.755436
0.533433
0.237901
0.333442
0.31253
0.149661
)
;

boundaryField
{
    wall
    {
        type            zeroGradient;
    }
    outlet
    {
        type            cyclic;
    }
    inlet
    {
        type            cyclic;
    }
    procBoundary1to0
    {
        type            processor;
        value           nonuniform List<scalar> 
256
(
-0.221628
-0.258369
0.0380291
-0.0111383
-0.222638
-0.453661
-0.278058
-0.0409146
-0.230171
-0.563691
-0.315248
-0.149777
-0.341548
-0.0867808
0.163816
0.0847997
0.0550057
0.108694
0.249154
0.595615
0.664048
0.540484
0.295941
0.251944
0.432269
0.208323
0.12974
0.378977
0.426241
0.394218
0.463055
0.252315
-0.113939
-0.175136
0.00384037
-0.177833
-0.440585
-0.439036
-0.208139
-0.012872
-0.219878
-0.647098
-0.496001
-0.181327
-0.281018
-0.141083
0.0285464
0.120587
0.225416
0.358365
0.288171
0.370389
0.483817
0.416787
0.289432
0.325786
0.476513
0.382876
0.309289
0.437301
0.429091
0.256524
0.208921
0.221011
-0.158413
-0.0727651
0.046067
-0.207689
-0.509727
-0.385823
-0.217053
-0.0990041
-0.257436
-0.591312
-0.633596
-0.370561
-0.204325
-0.0879492
0.152705
0.0974409
0.128022
0.307317
0.397461
0.5173
0.336445
0.361566
0.518078
0.466718
0.43517
0.449078
0.50446
0.483913
0.378991
0.259824
0.0966193
0.0230738
0.0734956
-0.0111731
-0.147845
-0.154316
-0.33613
-0.361267
-0.136425
-0.0573641
-0.531631
-1.03789
-0.512776
-0.164029
-0.182367
0.0147693
0.178402
0.160526
0.270176
0.256847
-0.0149307
0.16659
0.32928
0.31683
0.500591
0.48134
0.371654
0.397762
0.436619
0.38507
0.299209
0.367176
0.343586
0.154127
0.0188964
-0.202596
-0.135837
0.0476908
-0.0627425
-0.291311
-0.388281
-0.538796
-0.779237
-0.66171
-0.323164
-0.335831
-0.226933
0.135597
0.259193
0.144203
0.192151
0.222215
0.203989
0.285975
0.343572
0.319454
0.375283
0.298404
0.366568
0.476188
0.30831
0.0578492
0.291015
0.665206
0.665833
0.307459
0.04609
-0.0512654
0.150675
0.22215
-0.116772
-0.232548
-0.398444
-0.738619
-0.970654
-0.74504
-0.348925
-0.195569
-0.103969
0.0295756
0.190712
0.196335
0.253149
0.220901
0.250049
0.42459
0.354506
0.167647
0.0874282
0.0417386
0.262862
0.515036
0.505183
0.366098
0.319731
0.532959
0.635594
0.361257
-0.0124189
0.0654485
0.334307
0.518663
0.242073
-0.361145
-0.904356
-1.36203
-1.36562
-0.641346
-0.160527
-0.153434
-0.209112
-0.0929709
0.0723987
0.17833
0.187793
0.148933
0.384519
0.595777
0.452574
0.158153
-0.0967929
-0.167938
0.258501
0.494193
0.56909
0.444675
0.28861
0.43646
0.56806
0.346441
-0.180483
-0.18477
0.284529
0.693185
0.421006
-0.581025
-0.989415
-1.03573
-1.15729
-0.638126
-0.0780742
-0.0340973
-0.112838
-0.0543563
0.065711
0.152684
0.135103
0.150407
0.443521
0.597639
0.453796
0.062555
-0.229178
-0.356273
0.0568311
0.773736
0.863958
0.585249
0.499317
0.407492
0.448577
0.333787
)
;
    }
    procBoundary1to2
    {
        type            processor;
        value           nonuniform List<scalar> 
256
(
0.0629874
-0.0217236
-0.231331
-0.408787
-0.0950797
0.148742
0.0784969
0.0451151
-0.502019
-0.839975
-0.389459
-0.182956
-0.460456
-0.32341
-0.103453
-0.0187662
0.215504
0.352704
0.470256
0.540523
0.524077
0.6199
0.396108
-0.0623005
0.0485175
0.396174
0.368703
0.166377
0.363234
0.496981
0.231157
0.0303838
0.158428
-0.0195746
-0.201458
-0.324446
-0.291126
-0.026366
0.0601084
-0.043518
-0.652608
-0.899348
-0.419089
-0.164197
-0.326777
-0.228809
0.0903495
0.154107
0.121675
0.117846
0.258271
0.409014
0.561872
0.631389
0.381195
0.0749372
0.228267
0.429752
0.402734
0.186595
0.161582
0.403959
0.393816
0.281521
-0.2071
-0.135235
0.0982414
-0.0206416
-0.310732
-0.082361
0.0568855
-0.0643783
-0.692425
-0.863429
-0.402567
-0.173092
-0.353443
-0.157057
0.239816
0.328144
0.0397232
-0.149022
0.148977
0.572328
0.604668
0.552894
0.406263
0.17642
0.124768
0.317432
0.292021
0.292763
0.423696
0.439043
0.357602
0.142351
-0.249516
-0.287952
0.000512762
0.110405
-0.142466
-0.132326
0.0558939
-0.0802787
-0.673467
-0.901209
-0.704396
-0.20262
0.188034
0.190759
0.106428
0.170452
0.0639306
-0.15091
0.0913049
0.464697
0.569922
0.445503
0.221283
0.0690627
0.147022
0.380488
0.453963
0.359477
0.41982
0.519478
0.354517
-0.0130973
-0.0118345
-0.17833
-0.0929425
0.131504
-0.110584
-0.365632
-0.241595
-0.210326
-0.504764
-0.768311
-0.668847
-0.15073
0.122112
0.026441
0.040016
0.245771
0.189163
0.0483305
0.225087
0.433867
0.510653
0.351709
0.249465
0.178666
0.137915
0.383916
0.581959
0.46702
0.219638
0.117466
0.159175
0.222804
-0.204647
-0.129814
0.0437156
0.402119
0.342533
-0.191237
-0.472994
-0.420765
-0.426807
-0.508047
-0.557116
-0.265858
-0.0839913
0.0457015
0.237796
0.272223
0.0590099
-0.00387124
0.192455
0.286931
0.243003
0.2255
0.152179
0.191231
0.251185
0.274935
0.485107
0.560307
0.453722
0.330994
0.159567
-0.132309
-0.280978
-0.314643
0.0979962
0.240211
0.161213
-0.23608
-0.506857
-0.542589
-0.371931
-0.4617
-0.737941
-0.539425
-0.0658254
0.139738
0.385307
0.477276
0.170982
0.140443
0.44372
0.343089
0.0284594
0.185619
0.380223
0.0996201
0.140385
0.452756
0.58698
0.454696
0.308348
0.282175
0.285683
0.0369612
-0.331328
-0.462028
0.00972105
0.297797
0.172245
-0.106772
-0.377723
-0.440935
-0.46016
-0.376318
-0.4847
-0.511157
-0.0941226
0.163045
0.209638
0.127369
-0.0339725
0.248388
0.574805
0.359271
-0.0108251
-0.113991
0.149273
0.330836
0.381477
0.519584
0.52962
0.428241
0.41309
0.33545
0.305558
0.124487
)
;
    }
}


// ************************************************************************* //
