ITEM: TIMESTEP
15000
ITEM: NUMBER OF ATOMS
10000
ITEM: BOX BOUNDS mm mm mm
-0.015 0.015
-0.015 0.015
-0.001 0.0554
ITEM: ATOMS id type x y z vx vy vz fx fy fz f_dragforce[1] f_dragforce[2] f_dragforce[3] radius 
3085 1 -0.00381738 -0.0127928 0.000499846 -1.64512e-05 -3.43536e-05 5.89149e-05 2.61681e-07 8.36058e-08 -1.86034e-07 -3.1456e-07 2.63864e-07 3.30252e-06 0.0005 
1995 1 -0.00228772 -0.013138 0.000499869 -9.11635e-05 0.000370489 3.64587e-07 8.8946e-08 5.38519e-10 6.1999e-09 7.75168e-08 3.82309e-08 3.47231e-06 0.0005 
3052 1 -0.00129886 -0.013287 0.000499478 -0.000259885 0.000169788 0.000110298 3.64604e-07 -1.63728e-08 -8.95358e-08 7.72453e-08 3.86991e-08 3.47132e-06 0.0005 
585 1 -0.000300404 -0.0133412 0.00049994 -0.000164872 -0.000121699 -0.000902841 3.69291e-07 -2.36506e-06 1.83544e-06 7.71395e-08 3.95158e-08 3.46971e-06 0.0005 
2795 1 -0.00583255 -0.0120085 0.000499861 -1.62392e-05 -0.000303769 6.49173e-05 1.67178e-06 1.60044e-06 1.90935e-08 -4.27473e-07 1.28711e-07 3.17978e-06 0.0005 
523 1 -0.0048866 -0.0124245 0.000499219 -1.1217e-05 0.000105666 5.99654e-05 -1.2782e-07 3.31183e-07 4.33001e-07 -3.14026e-07 2.64005e-07 3.30093e-06 0.0005 
1312 1 -0.00290735 -0.0123403 0.000499487 0.000170125 -6.46183e-05 -1.96935e-05 6.50532e-07 -1.9996e-07 -1.98501e-07 -3.14691e-07 2.63939e-07 3.3016e-06 0.0005 
798 1 -0.00188063 -0.0122246 0.000499566 0.000309427 -4.07952e-05 9.82078e-05 -9.04979e-07 6.6188e-07 -6.02472e-08 7.77539e-08 3.83462e-08 3.47057e-06 0.0005 
1936 1 -0.000779394 -0.0124226 0.000499869 0.000541291 0.000488229 3.74171e-07 6.30341e-10 -1.54478e-08 6.84756e-09 7.74258e-08 3.88505e-08 3.47046e-06 0.0005 
2169 1 -0.00671615 -0.0115377 0.000499733 0.000564918 -0.000313317 -1.4221e-05 -1.28862e-07 1.5534e-07 -4.58648e-08 -4.27411e-07 1.29206e-07 3.17897e-06 0.0005 
986 1 -0.00408422 -0.0118293 0.000501161 0.000195135 1.6914e-05 -0.000183663 1.50258e-07 -7.95796e-08 -1.58537e-07 -3.1413e-07 2.64302e-07 3.30055e-06 0.0005 
1397 1 -0.00330103 -0.0112086 0.000499637 0.000185403 7.22208e-05 -3.01763e-05 1.71794e-07 -3.074e-07 -3.14683e-07 -3.3752e-07 1.66041e-07 3.11696e-06 0.0005 
1815 1 -0.00181406 -0.011225 0.000498954 0.000238903 0.000144287 3.39783e-05 1.46161e-07 -3.18087e-07 -8.57859e-08 -1.69203e-07 -1.28283e-08 3.2455e-06 0.0005 
1989 1 -7.86205e-06 -0.0114497 0.000499864 0.000197826 0.000508974 2.20734e-05 1.64764e-07 2.58133e-07 2.40883e-08 -1.69831e-07 -1.23441e-08 3.24698e-06 0.0005 
303 1 -0.0075777 -0.0109655 0.000499854 -0.00202915 -0.000650355 6.22759e-07 -1.71369e-09 -6.31288e-08 6.81915e-09 -1.54213e-07 -9.71808e-08 2.72545e-06 0.0005 
4554 1 -0.00643235 -0.0105788 0.000499864 0.000670198 -0.000340933 -1.65379e-06 9.09407e-08 1.65085e-07 8.34178e-09 -4.15177e-07 -3.30275e-07 3.03573e-06 0.0005 
2551 1 -0.00550207 -0.0109973 0.000499274 -0.000181166 -3.51504e-05 5.47362e-05 -1.24001e-07 -3.6081e-07 -3.79175e-08 -4.27282e-07 1.30243e-07 3.17775e-06 0.0005 
4073 1 -0.00393215 -0.0104294 0.000499586 0.000245622 7.54584e-05 5.97293e-05 4.32426e-07 3.06067e-07 1.2938e-07 -3.37501e-07 1.66797e-07 3.11701e-06 0.0005 
769 1 -0.00256062 -0.0105373 0.000499695 -0.000153626 0.000415837 1.51448e-06 1.0055e-07 -4.93339e-07 -2.59021e-08 -3.37785e-07 1.66587e-07 3.11664e-06 0.0005 
4636 1 -0.000823757 -0.0108724 0.000499257 0.000148215 0.000554019 7.98781e-05 -1.91558e-08 -1.41276e-07 1.64765e-08 -1.69242e-07 -1.24786e-08 3.2449e-06 0.0005 
2750 1 -0.00881884 -0.0100239 0.000498443 1.75675e-05 2.8408e-05 3.71874e-05 1.95679e-07 8.07733e-08 -1.88047e-07 -1.5514e-07 -9.70231e-08 2.72805e-06 0.0005 
3084 1 -0.0077874 -0.00990332 0.000499174 0.00030796 -4.74905e-05 8.83971e-05 -1.86504e-07 1.45285e-07 -1.15906e-07 -1.54772e-07 -9.65649e-08 2.72437e-06 0.0005 
3337 1 -0.00681848 -0.00965648 0.000499792 0.000332576 -0.000472046 -3.10498e-05 -1.793e-07 1.19574e-07 -5.54629e-08 -2.71664e-07 -2.24519e-07 2.69602e-06 0.0005 
3321 1 -0.00559261 -0.0100019 0.000498812 -0.000558969 -3.99311e-05 0.00011566 1.64498e-07 -1.3685e-07 -1.99636e-08 -4.14681e-07 -3.28757e-07 3.03471e-06 0.0005 
4461 1 -0.00160388 -0.0102479 0.00049949 -0.000189978 0.00015607 2.91196e-05 -7.20102e-08 -1.77031e-07 -8.12683e-10 -5.37795e-08 -1.37292e-07 3.30068e-06 0.0005 
789 1 -0.00233251 -0.00956382 0.000498839 5.60874e-05 0.000323878 8.20066e-05 -2.61701e-08 -1.7005e-07 2.89937e-08 -1.91625e-07 -1.30531e-08 2.95189e-06 0.0005 
3092 1 -0.00957164 -0.0093013 0.000499849 0.000535832 9.83149e-06 5.55043e-07 5.64009e-08 3.60519e-08 5.02995e-09 1.25587e-07 -8.28689e-09 2.9352e-06 0.0005 
614 1 -0.00592376 -0.00905835 0.000499859 -0.00318347 -0.000925332 6.49364e-06 1.58027e-08 -2.88527e-07 -8.34593e-09 -4.07979e-07 -4.02973e-07 3.40576e-06 0.0005 
4825 1 -0.00475297 -0.00945887 0.000499868 -0.00017907 -0.000679954 1.35354e-05 3.43034e-07 9.59596e-08 -7.16453e-08 -4.08701e-07 -4.03363e-07 3.40585e-06 0.0005 
3436 1 -0.00341363 -0.00933627 0.000499817 0.00108266 -0.00022414 6.40553e-05 2.61778e-07 8.71824e-07 8.77348e-08 -1.91892e-07 -1.29527e-08 2.95086e-06 0.0005 
2173 1 -0.00138215 -0.00925675 0.000499242 0.000210503 2.73008e-05 8.61999e-05 -7.34367e-08 6.94553e-09 1.59828e-07 -5.40354e-08 -1.36698e-07 3.30303e-06 0.0005 
599 1 -6.57421e-05 -0.00894092 0.00049971 0.000343637 0.000324388 0.000114845 -1.6548e-07 -7.47068e-07 -6.64296e-08 -5.49408e-08 -1.3756e-07 3.30046e-06 0.0005 
4221 1 -0.010385 -0.00838934 0.000499386 -0.000320071 0.000431181 1.32727e-05 -3.50114e-07 4.01477e-07 -9.05094e-09 1.24642e-07 -9.23709e-09 2.93833e-06 0.0005 
823 1 -0.00934988 -0.00832318 0.000499858 -0.000672878 0.000285371 4.90267e-07 1.80852e-08 2.08905e-08 6.36656e-09 -1.17041e-08 1.47359e-08 2.7659e-06 0.0005 
1550 1 -0.00830687 -0.0084834 0.000499575 0.000249976 1.10315e-06 2.5497e-05 7.75166e-08 2.34448e-07 1.26864e-08 -2.72361e-07 -2.25785e-07 2.69454e-06 0.0005 
4518 1 -0.00679923 -0.00856924 0.000499823 -0.00278776 -0.000189018 6.70304e-06 -2.05084e-07 2.30137e-08 -1.51881e-08 -5.2098e-07 -2.26664e-07 2.87958e-06 0.0005 
2735 1 -0.00536441 -0.00815742 0.000499371 0.000548638 -0.000104824 -4.46413e-05 -1.11768e-07 -8.1552e-08 2.76425e-08 -4.08961e-07 -4.04868e-07 3.40649e-06 0.0005 
3818 1 -0.00432873 -0.00850264 0.000498402 0.000543023 -0.000101269 0.000118385 -5.43542e-07 2.34947e-07 2.3098e-07 -4.09473e-07 -4.04071e-07 3.4059e-06 0.0005 
2662 1 -0.00306031 -0.00834951 0.000499821 -0.000255111 -0.000718295 4.37344e-05 -2.54779e-07 -1.40964e-07 2.07104e-07 -2.14194e-07 -1.2792e-07 2.80998e-06 0.0005 
3424 1 -0.00205851 -0.00838194 0.000499662 -3.94074e-05 0.000470752 6.01256e-05 -7.10583e-07 3.7241e-07 3.96531e-09 -2.14146e-07 -1.28095e-07 2.81189e-06 0.0005 
3987 1 -0.000895986 -0.00838386 0.000499502 9.28461e-05 0.000131286 0.000143245 2.16129e-07 -2.87124e-07 3.69081e-07 -2.28211e-07 1.05197e-07 3.21777e-06 0.0005 
1567 1 -0.0102066 -0.00739851 0.000498596 -0.000475198 0.000260145 0.000116752 -3.52571e-07 1.07145e-07 1.45951e-08 1.2526e-07 -8.83479e-09 2.93345e-06 0.0005 
251 1 -0.00900871 -0.00730505 0.000499858 -0.000667567 0.000290647 4.9076e-07 1.82653e-08 2.07483e-08 6.35996e-09 -1.06488e-08 1.53349e-08 2.76306e-06 0.0005 
1983 1 -0.00797027 -0.00745254 0.000499295 0.000139272 0.00011132 -2.52707e-05 -1.89747e-07 1.50599e-07 9.90183e-09 -8.40153e-08 -2.48863e-07 2.79416e-06 0.0005 
2675 1 -0.00697925 -0.00758561 0.000499841 0.000249705 0.00034428 1.87288e-05 -3.33768e-07 4.89429e-08 -9.31081e-08 -5.17448e-07 -4.43847e-08 2.92774e-06 0.0005 
1631 1 -0.00584697 -0.00728207 0.000499585 0.000621631 0.000210973 1.41133e-05 -5.23408e-08 -1.88419e-07 1.36483e-07 -5.18197e-07 -4.5618e-08 2.92737e-06 0.0005 
4305 1 -0.00479847 -0.00733353 0.00049977 0.000573049 -0.000205358 -7.99426e-05 -7.30906e-07 1.01642e-06 -3.36577e-07 -8.62614e-08 1.88215e-07 3.18187e-06 0.0005 
3423 1 -0.00379742 -0.00765574 0.000499706 0.000588738 -0.000261044 -5.54024e-05 -3.26829e-07 5.16684e-08 -1.61086e-07 -8.54747e-08 1.89408e-07 3.17905e-06 0.0005 
3833 1 -0.00167788 -0.00744377 0.000499836 1.55937e-07 -6.42853e-05 3.0725e-05 -1.14022e-07 1.59002e-07 -1.12383e-07 -2.27395e-07 1.05236e-07 3.21459e-06 0.0005 
2532 1 -3.42722e-05 -0.00787841 0.000500502 0.000224632 -0.000111761 0.00012728 3.14087e-07 -1.29286e-07 2.49948e-07 -2.28502e-07 1.06963e-07 3.20902e-06 0.0005 
3656 1 -0.000722622 -0.00714809 0.000499852 -8.95155e-05 0.000268064 5.73855e-06 -7.11579e-08 8.34625e-08 3.48475e-08 -2.27889e-07 1.0484e-07 3.21632e-06 0.0005 
4201 1 -0.0112336 -0.00709061 0.000499879 0.000104974 5.15545e-05 -5.43076e-05 -5.24296e-08 -3.94975e-07 -5.94062e-07 7.37171e-08 -6.78048e-08 2.88892e-06 0.0005 
4210 1 -0.00967333 -0.00653259 0.00049951 0.000320743 0.000115903 0.000113271 8.8377e-07 -9.00126e-07 3.40495e-08 -2.24723e-07 -3.81864e-07 2.84257e-06 0.0005 
2888 1 -0.002701 -0.00649666 0.000499286 0.000153348 4.85692e-05 -1.49374e-05 6.35762e-07 -5.92297e-07 -4.53728e-07 -2.66599e-07 -2.11654e-07 2.91893e-06 0.0005 
4625 1 -0.00164434 -0.00644223 0.000499631 -0.00049349 -0.000258513 1.60841e-05 -1.31479e-07 -2.69304e-07 3.31574e-07 -2.23285e-07 1.02417e-08 2.80096e-06 0.0005 
3927 1 -0.0117872 -0.00624269 0.000499483 -1.77093e-05 0.000799094 0.000112166 -4.46114e-08 -1.80609e-06 3.49645e-07 7.43356e-08 -6.74015e-08 2.88618e-06 0.0005 
2192 1 -0.0107886 -0.00619514 0.000499849 9.99641e-05 0.000331569 -5.13577e-05 1.59184e-07 2.67589e-07 2.76124e-07 7.4057e-08 -6.73485e-08 2.89056e-06 0.0005 
1510 1 -0.00999558 -0.00558649 0.000499695 0.000368847 0.000148955 6.29521e-05 6.25611e-07 -2.86703e-07 1.34538e-07 -2.2451e-07 -3.81189e-07 2.84956e-06 0.0005 
780 1 -0.00877508 -0.00607825 0.000499434 0.000849876 0.000582055 -7.91635e-06 5.04445e-08 -2.24071e-07 2.47076e-08 -6.96569e-07 -5.28357e-07 3.08027e-06 0.0005 
2711 1 -0.00777882 -0.00593273 0.000499595 0.000305246 0.000297797 4.09792e-05 2.81489e-07 4.76225e-07 2.02323e-07 -1.87506e-07 -4.98526e-07 2.89035e-06 0.0005 
4528 1 -0.00685541 -0.00631548 0.000499664 0.000132647 -0.000111496 -4.45279e-06 1.75222e-07 6.65387e-08 1.78955e-07 -3.56035e-07 -2.35569e-07 3.00169e-06 0.0005 
1110 1 -0.00611709 -0.00564183 0.000499323 -0.000147171 0.000338325 -9.06624e-05 -3.96306e-07 -8.52024e-08 -7.51861e-09 -3.55905e-07 -2.35889e-07 2.99586e-06 0.0005 
4643 1 -0.00532171 -0.00624841 0.000499701 -0.000669733 0.000349682 -5.43917e-05 -3.83392e-07 -4.95095e-07 2.14713e-07 -3.55737e-07 -2.3755e-07 2.99687e-06 0.0005 
2381 1 -0.00450657 -0.00566257 0.000499205 -0.000140511 -0.000442339 -8.69598e-05 2.53275e-07 -5.03586e-07 -6.75381e-09 -2.75899e-07 1.40355e-07 2.92289e-06 0.0005 
3684 1 -0.00364509 -0.00616914 0.000500261 0.000168712 9.11019e-05 1.02497e-05 3.20235e-07 -7.09356e-07 -1.84612e-07 -2.76074e-07 1.40702e-07 2.92264e-06 0.0005 
1043 1 -0.00221629 -0.00562224 0.000499452 -7.82586e-05 0.000105415 -6.08402e-06 -5.06943e-07 -2.28167e-07 1.7516e-07 -2.66357e-07 -2.10879e-07 2.91862e-06 0.0005 
2993 1 -0.000463753 -0.00617845 0.00049967 -0.000395584 -0.000354111 -0.000117671 1.35117e-08 2.43084e-07 -1.02611e-07 -2.22972e-07 1.00854e-08 2.79727e-06 0.0005 
1776 1 -0.0113567 -0.00504664 0.000499155 0.000183253 0.000315236 0.000104196 -2.94165e-07 -1.22742e-07 1.38415e-07 7.44505e-08 -6.71339e-08 2.88929e-06 0.0005 
4107 1 -0.0091043 -0.00513444 0.000499843 0.000297024 0.000430063 6.09842e-05 4.70803e-07 -1.91242e-07 -1.60678e-07 -6.95347e-07 -5.28368e-07 3.07944e-06 0.0005 
1559 1 -0.00761987 -0.00493801 0.000498791 0.000257688 -1.94912e-05 0.000120886 -6.83831e-07 3.55771e-07 1.34465e-07 -2.41532e-08 -6.40936e-07 3.4311e-06 0.0005 
2094 1 -0.00359865 -0.00517051 0.000499642 -0.000514353 5.10241e-06 -2.05407e-05 6.56684e-07 -2.70727e-07 -3.77827e-07 -8.54601e-08 -2.92433e-07 2.69989e-06 0.0005 
861 1 -0.00110259 -0.00490924 0.000499815 0.000253178 -0.000867213 5.97328e-05 -4.71523e-07 -2.86705e-07 -5.98572e-08 -1.76678e-07 -2.30364e-07 2.88912e-06 0.0005 
3962 1 -0.0125541 -0.00454126 0.000499349 8.05993e-05 6.845e-05 3.18267e-05 -1.22654e-07 2.54491e-07 -3.26204e-07 -2.03671e-07 9.07549e-08 2.8828e-06 0.0005 
2682 1 -0.0103011 -0.00463503 0.000499279 0.000303188 0.000115754 1.01808e-05 2.70102e-07 -1.26443e-07 3.75521e-08 -2.24177e-07 -3.81093e-07 2.8439e-06 0.0005 
2438 1 -0.0110422 -0.00396337 0.000499819 0.000129363 0.000323333 2.82797e-05 1.13131e-08 1.16606e-07 2.20344e-07 -2.472e-07 -2.59152e-07 3.20136e-06 0.0005 
3002 1 -0.0094295 -0.00414518 0.000499344 0.000315355 -5.66035e-05 3.48448e-05 -8.58e-08 1.96775e-07 1.85098e-07 -3.32732e-07 -3.53823e-07 2.77384e-06 0.0005 
1958 1 -0.00845631 -0.00437363 0.00049918 0.000362055 0.000421556 4.91792e-05 -4.46034e-07 3.63355e-07 -2.55741e-08 -6.96068e-07 -5.28668e-07 3.08088e-06 0.0005 
2068 1 -0.00595451 -0.00461181 0.000499812 0.000460109 0.000496954 -1.28636e-05 3.64436e-08 -1.21271e-07 6.11214e-08 2.31657e-07 -2.96058e-07 2.96344e-06 0.0005 
2964 1 -0.00518556 -0.00397227 0.000499849 0.000240828 0.000130587 0.000127892 -5.36172e-07 3.80479e-07 -1.73014e-07 2.334e-07 -2.9641e-07 2.96122e-06 0.0005 
3023 1 -0.00446322 -0.00466381 0.000499858 0.000136419 -0.000878273 -8.64132e-06 2.22419e-06 2.04811e-06 3.75509e-07 -8.59425e-08 -2.91975e-07 2.69509e-06 0.0005 
1681 1 -0.00330934 -0.00421369 0.000503411 -0.000166514 -9.87001e-05 -8.41615e-06 1.24261e-06 2.48693e-07 -6.87706e-07 -3.15694e-07 -3.99796e-07 2.81008e-06 0.0005 
2653 1 -0.00231452 -0.00461679 0.000499858 -0.00424338 -0.00472604 6.44746e-07 -6.07202e-08 -9.06683e-08 7.71742e-09 -3.14915e-07 -3.98666e-07 2.80953e-06 0.0005 
533 1 -0.000149875 -0.00437179 0.000499819 6.47241e-05 7.37698e-05 -2.11807e-06 -1.60048e-07 -2.09043e-07 -4.70918e-08 -1.76834e-07 -2.30635e-07 2.88438e-06 0.0005 
1584 1 -0.0128337 -0.00358139 0.000499424 2.73174e-05 1.11747e-05 -2.57446e-05 -1.08058e-07 9.05497e-08 7.46953e-08 -2.02915e-07 9.08533e-08 2.88373e-06 0.0005 
615 1 -0.0101009 -0.00340349 0.000499866 -0.00143204 -0.00106219 4.5e-07 -1.49712e-07 -1.68494e-07 8.22519e-09 -2.46022e-07 -2.57982e-07 3.19798e-06 0.0005 
1028 1 -0.00824686 -0.00317202 0.000499774 0.000354229 -5.77757e-05 -4.59411e-05 -3.13188e-07 2.46882e-07 1.44654e-07 -2.11988e-07 4.33143e-08 3.21787e-06 0.0005 
631 1 -0.00751397 -0.00385227 0.000499838 3.83404e-05 -0.000146702 -7.14386e-05 -2.61725e-07 4.64086e-07 -1.54057e-07 -2.36746e-08 -6.41733e-07 3.42882e-06 0.0005 
2443 1 -0.00612117 -0.00361927 0.000499853 -0.000269138 -0.000724151 4.34626e-05 3.28732e-07 -5.61387e-07 -2.44058e-08 2.32741e-07 -2.96634e-07 2.96414e-06 0.0005 
4654 1 -0.00302135 -0.00325646 0.00049915 -0.000132898 -6.06847e-05 0.000154033 9.14353e-07 8.02942e-08 -3.7923e-07 -2.03771e-07 -1.43886e-07 3.24454e-06 0.0005 
3257 1 -0.00188604 -0.0031952 0.000499405 -8.43424e-05 0.000195908 1.33562e-05 2.46227e-07 4.95146e-07 -1.78801e-07 -2.04793e-07 -1.4437e-07 3.24548e-06 0.0005 
2288 1 -0.00101831 -0.0038762 0.000498908 -8.80071e-05 -0.000233338 9.82332e-05 9.72684e-08 -1.68152e-07 -1.0572e-07 -1.77335e-07 -2.30318e-07 2.89169e-06 0.0005 
3325 1 -0.0130912 -0.00261547 0.00049973 5.2285e-05 5.98325e-05 4.75803e-06 1.8592e-08 -7.36093e-09 -8.73092e-08 -4.46488e-07 5.43889e-08 2.53124e-06 0.0005 
3678 1 -0.0120303 -0.00284952 0.000499854 -0.00158323 0.000757013 6.07892e-07 -5.74068e-08 1.22782e-08 6.62003e-09 -2.02659e-07 9.07061e-08 2.8835e-06 0.0005 
334 1 -0.0109668 -0.00290271 0.000499456 -0.00037196 0.000320144 6.0703e-05 2.05949e-07 -6.84329e-07 -1.01691e-07 -2.46476e-07 -2.59092e-07 3.20054e-06 0.0005 
707 1 -0.00710272 -0.00294035 0.000499861 -0.00183407 0.000825595 5.24155e-07 -4.06854e-08 -1.54927e-08 6.84656e-09 -2.13303e-07 4.24929e-08 3.22145e-06 0.0005 
3894 1 -0.00394133 -0.00286677 0.000499199 -0.00027683 4.38887e-05 9.16362e-05 -4.61127e-07 -5.41957e-06 1.91618e-06 -3.80047e-07 -9.76846e-08 3.15946e-06 0.0005 
4366 1 -0.00106219 -0.00259608 0.000499665 7.73926e-05 -0.000138498 -6.23093e-05 3.35844e-07 1.75333e-07 -7.80982e-08 3.44704e-08 1.90454e-07 3.33996e-06 0.0005 
2144 1 -0.0123877 -0.001905 0.000499858 1.65098e-05 0.000192866 5.45761e-05 -1.03707e-07 1.39739e-07 -3.11344e-07 -4.45825e-07 5.43759e-08 2.53058e-06 0.0005 
3978 1 -0.0113886 -0.00194611 0.000499854 1.63722e-05 0.000552269 -2.62747e-07 5.07563e-08 1.00551e-07 1.25979e-08 -8.66332e-07 2.59428e-07 3.08433e-06 0.0005 
4751 1 -0.0103871 -0.00195693 0.00049919 0.00046027 6.86053e-05 3.41929e-05 -1.2148e-07 2.93912e-07 6.94011e-08 -8.67294e-07 2.6018e-07 3.0833e-06 0.0005 
649 1 -0.00927854 -0.00208387 0.000499339 0.000354551 0.000243511 3.67435e-05 2.45516e-07 9.72617e-08 -2.75469e-08 -3.34168e-07 -3.54683e-07 2.7763e-06 0.0005 
2196 1 -0.00812391 -0.0021703 0.000499619 -0.000461453 0.000106288 1.03906e-05 -2.88918e-07 1.35168e-07 1.98028e-07 -2.12809e-07 4.25868e-08 3.21839e-06 0.0005 
4189 1 -0.00666633 -0.00201459 0.000499634 -0.000232624 0.000436671 2.23242e-05 -6.5737e-07 1.66655e-06 -7.80841e-07 6.93576e-08 -1.82311e-07 3.01734e-06 0.0005 
3444 1 -0.00540652 -0.00226208 0.000499045 -0.000555532 0.00110105 -2.30794e-05 3.23355e-06 -3.56799e-06 -7.30207e-07 6.95163e-08 -1.81639e-07 3.0167e-06 0.0005 
2846 1 -0.00444238 -0.00199618 0.000499687 -0.000391087 8.16818e-05 -6.26708e-05 -9.80421e-08 -7.76964e-07 -1.67535e-07 -3.80766e-07 -9.70491e-08 3.15438e-06 0.0005 
1785 1 -0.00344291 -0.00200045 0.000499538 -9.93348e-05 0.000338182 9.22147e-06 -2.65405e-06 -2.65505e-06 8.5316e-07 -2.04483e-07 -1.4466e-07 3.24445e-06 0.0005 
4216 1 -0.0024523 -0.00186901 0.000501125 3.7729e-06 0.000771833 -1.01642e-06 -1.32674e-06 -1.23401e-07 1.13214e-06 -2.04808e-07 -1.45125e-07 3.24386e-06 0.0005 
1807 1 -0.00147022 -0.00168401 0.000498974 0.000157275 -4.31713e-05 9.91995e-05 3.18697e-07 2.03529e-07 -1.30815e-08 -1.46347e-07 1.71701e-07 2.72742e-06 0.0005 
1118 1 -0.0132667 -0.00142842 0.000499777 -0.000202186 -4.34002e-05 7.95183e-05 -1.36483e-07 4.3125e-08 1.61418e-07 -4.45852e-07 5.46416e-08 2.531e-06 0.0005 
586 1 -0.0124381 -0.000851753 0.000499364 0.000241497 -9.45343e-05 1.33722e-05 5.39725e-08 2.42719e-07 6.40224e-08 -4.46194e-07 5.43861e-08 2.53018e-06 0.0005 
2266 1 -0.0106996 -0.0010077 0.000499582 0.000363818 0.00012339 4.31529e-05 1.39784e-07 1.37299e-07 -4.33543e-08 -8.66412e-07 2.58959e-07 3.08404e-06 0.0005 
4495 1 -0.00971504 -0.00118475 0.000498941 0.000178697 0.000243848 7.62754e-06 1.88844e-07 -1.6828e-08 1.36314e-08 -3.54937e-07 3.70514e-07 3.42465e-06 0.0005 
3918 1 -0.00866577 -0.00129382 0.000499816 0.000302357 0.000181723 -3.03274e-05 -3.60996e-08 -1.87629e-08 -6.25587e-08 -3.54576e-07 3.70418e-07 3.41899e-06 0.0005 
2686 1 -0.00742738 -0.00123061 0.000499467 0.000212631 0.000242658 -2.86872e-07 -6.53454e-07 1.83816e-07 1.01687e-09 -3.43897e-08 2.33796e-08 3.05962e-06 0.0005 
3469 1 -0.00644618 -0.00103904 0.000499817 0.000299776 0.000105593 4.4325e-05 -1.40695e-07 8.67957e-07 2.58683e-07 4.27076e-08 -2.37743e-07 2.98254e-06 0.0005 
76 1 -0.00388747 -0.00110484 0.000499346 7.19139e-05 0.000408303 5.54712e-05 -4.56215e-08 1.23803e-07 8.45173e-08 -4.88874e-08 -2.67941e-07 2.33336e-06 0.0005 
4432 1 -0.00211849 -0.000923621 0.000500095 0.000261433 9.72488e-05 7.87075e-05 3.9507e-07 -2.09386e-07 2.58658e-07 -2.86763e-08 1.30979e-07 2.78724e-06 0.0005 
879 1 -0.00063895 -0.000880204 0.000499857 0.000282044 5.78082e-05 3.15615e-06 3.39709e-07 -2.54728e-07 1.71728e-08 -1.4474e-07 1.71252e-07 2.71567e-06 0.0005 
4204 1 -0.0115854 -0.000169464 0.000499623 0.000203831 1.01611e-05 8.01593e-05 1.30956e-07 -9.60211e-08 -1.07557e-08 -8.68374e-07 2.59387e-07 3.08123e-06 0.0005 
4822 1 -0.0100642 -0.000199907 0.000499373 0.000111497 0.000206299 0.000104908 6.04994e-08 -8.54042e-09 3.73789e-08 -3.53002e-07 3.68825e-07 3.42041e-06 0.0005 
2149 1 -0.00628454 -2.73935e-05 0.000499851 0.000671188 -0.000488108 -5.04021e-06 -2.26184e-08 -2.23073e-07 4.47799e-09 4.45017e-08 -2.36192e-07 2.97283e-06 0.0005 
2072 1 -0.00548058 -0.000779771 0.000499435 0.000174879 0.00053511 0.000115848 -1.38791e-07 -5.16952e-08 -2.47516e-07 4.32115e-08 -2.36632e-07 2.97771e-06 0.0005 
3036 1 -0.00286372 -2.77797e-05 0.000499532 0.000497021 0.000142499 -5.91391e-06 2.1296e-08 6.08559e-08 -6.53262e-08 -2.91437e-08 1.32079e-07 2.79096e-06 0.0005 
4312 1 -0.0029907 -0.013011 0.00123592 -0.000123675 5.8053e-05 3.23613e-05 2.39855e-07 -8.01197e-09 -2.62603e-07 -3.14876e-07 2.6418e-07 3.30191e-06 0.0005 
636 1 -0.00502195 -0.011621 0.00111468 4.6848e-05 0.000213587 0.00031019 -1.00061e-07 -1.59803e-07 -1.3255e-08 -4.27801e-07 1.29069e-07 3.1799e-06 0.0005 
1605 1 -0.00416518 -0.0111117 0.00119192 7.32229e-05 -6.74307e-05 3.75244e-06 1.18705e-07 3.17927e-08 -1.42105e-07 -3.37406e-07 1.66573e-07 3.11636e-06 0.0005 
2631 1 -0.00112064 -0.0116081 0.00110736 0.000243197 0.000495852 0.000332559 1.96291e-07 -3.84346e-07 -3.24443e-07 -1.69361e-07 -1.25737e-08 3.24534e-06 0.0005 
1340 1 -0.00824115 -0.0105034 0.00115726 2.21287e-05 4.38908e-05 7.65594e-05 6.28176e-08 -3.71358e-08 -2.12527e-07 -1.54563e-07 -9.66566e-08 2.72625e-06 0.0005 
3924 1 -0.00722939 -0.0103016 0.00122629 0.000206838 -0.00016228 0.000154083 -6.72657e-08 -2.41599e-07 -4.65616e-07 -1.54572e-07 -9.65956e-08 2.7244e-06 0.0005 
3961 1 -0.0048024 -0.010369 0.000988301 -0.000224845 -0.000506911 -0.000789552 -4.34557e-08 -1.39625e-07 -7.85718e-08 -4.15065e-07 -3.30214e-07 3.03538e-06 0.0005 
1082 1 -0.000718267 -0.0099254 0.000832587 -0.000170086 -0.000409561 8.45059e-05 4.72854e-09 -1.27428e-07 2.90814e-07 -5.40378e-08 -1.36826e-07 3.30238e-06 0.0005 
765 1 -0.00874117 -0.0091954 0.00105044 0.000452426 -1.16105e-05 0.000146698 -3.00234e-07 1.43715e-07 -2.39428e-07 -2.73083e-07 -2.2591e-07 2.69759e-06 0.0005 
1588 1 -0.00774724 -0.00909349 0.00108301 0.00057813 7.28277e-05 0.000213537 -9.63181e-08 2.12728e-07 -4.6674e-07 -2.72612e-07 -2.24964e-07 2.69494e-06 0.0005 
1920 1 -0.00497749 -0.00872751 0.0012234 0.000402223 -0.000220402 0.000115966 -6.06734e-07 1.19326e-09 2.35753e-08 -4.09407e-07 -4.0345e-07 3.41077e-06 0.0005 
3119 1 -0.00276044 -0.00899669 0.00120067 0.000369904 3.35839e-05 0.000567015 -1.29057e-08 -4.21061e-08 8.25392e-08 -1.91842e-07 -1.29955e-08 2.95029e-06 0.0005 
2813 1 -0.00772292 -0.00810344 0.0012166 -4.59882e-05 0.000178873 0.00021112 2.57402e-07 1.06204e-07 -2.98543e-07 -5.21662e-07 -2.26568e-07 2.87784e-06 0.0005 
2400 1 -0.00598007 -0.00837972 0.00125451 0.000106864 -0.00058773 -0.000621309 -1.23493e-07 6.78504e-08 2.84481e-07 -4.07425e-07 -4.04172e-07 3.40655e-06 0.0005 
4384 1 -0.00367524 -0.00859826 0.00124808 0.000141666 -0.0005106 0.000538044 -1.54111e-07 -7.22331e-08 5.9983e-07 -1.91846e-07 -1.29501e-08 2.95236e-06 0.0005 
2794 1 -0.0108693 -0.00774996 0.00115821 -0.000398044 -0.000168775 0.000162556 -4.79916e-07 -3.12083e-07 -1.10838e-08 1.2514e-07 -8.8983e-09 2.93544e-06 0.0005 
1254 1 -0.00263397 -0.0074924 0.000788579 -0.00102346 0.00076326 -0.00304513 -3.32889e-07 8.33058e-07 -1.63501e-06 -2.13007e-07 -1.27361e-07 2.80536e-06 0.0005 
123 1 -0.0103386 -0.00672083 0.00122132 -1.2279e-05 0.000471505 9.07779e-05 2.89662e-07 1.10496e-07 -6.71873e-08 -2.24924e-07 -3.82194e-07 2.84301e-06 0.0005 
2512 1 -0.00756886 -0.00673132 0.00106321 -3.03627e-05 0.000216465 0.000135879 9.16601e-08 1.8178e-07 -1.01903e-07 -1.87502e-07 -4.98314e-07 2.89035e-06 0.0005 
1544 1 -0.00649936 -0.00695346 0.00118185 0.000358204 -0.000207168 3.56876e-05 4.06143e-07 4.43018e-08 5.44496e-07 -5.18093e-07 -4.44484e-08 2.92549e-06 0.0005 
394 1 -0.00530331 -0.0069081 0.00125063 0.000768272 0.0002251 -0.00027613 -4.09825e-07 -5.06914e-07 4.60314e-07 -5.18824e-07 -4.47729e-08 2.92978e-06 0.0005 
1585 1 -0.00436046 -0.0066141 0.00103811 0.000276375 -2.16408e-05 2.54662e-05 -4.78429e-07 6.39946e-07 -2.80046e-07 -2.76619e-07 1.39408e-07 2.92493e-06 0.0005 
2782 1 -0.00341466 -0.00694422 0.00108854 -0.000235135 0.000279871 -0.000288578 6.13326e-07 -9.38903e-07 1.59709e-07 -2.14316e-07 -1.28562e-07 2.81183e-06 0.0005 
515 1 -0.00113598 -0.00594349 0.0012013 -0.000327093 -0.000356739 -0.000170887 -2.13563e-07 -5.03664e-09 1.47478e-07 -2.22474e-07 9.9011e-09 2.79546e-06 0.0005 
900 1 -0.0122099 -0.00539947 0.000880749 0.000114385 0.000111343 0.000247238 -3.88382e-07 4.72655e-07 -3.79114e-09 7.46235e-08 -6.72695e-08 2.88693e-06 0.0005 
894 1 -0.00830467 -0.00533882 0.00110769 0.00179015 0.00110343 0.000600738 6.98156e-07 8.01877e-07 6.03983e-07 -6.96539e-07 -5.28474e-07 3.08178e-06 0.0005 
2499 1 -0.00530654 -0.00524296 0.000925928 -3.48564e-05 -0.000208174 7.26267e-05 -1.79667e-07 -8.83803e-07 1.5278e-07 -3.56438e-07 -2.36715e-07 2.99521e-06 0.0005 
3350 1 -0.00290361 -0.00538558 0.00118549 -0.000345386 0.000162294 -0.000257572 -4.48878e-07 -2.66958e-07 2.37074e-07 -2.65671e-07 -2.10475e-07 2.91741e-06 0.0005 
2343 1 -0.00173689 -0.00514535 0.00123583 -0.000131816 -0.000150554 9.93539e-05 -2.98976e-07 1.27154e-07 1.0129e-08 -3.16876e-07 -4.00805e-07 2.81082e-06 0.0005 
1262 1 -0.000224534 -0.00528764 0.000896524 0.000265761 5.34704e-05 -0.000149057 -7.75728e-07 -6.70205e-08 1.74953e-07 -2.23529e-07 1.064e-08 2.8002e-06 0.0005 
4865 1 -0.0117645 -0.00434137 0.00107872 4.29744e-05 0.000303931 7.93621e-05 -5.07622e-07 -2.02812e-08 -1.83477e-07 -2.03843e-07 9.07854e-08 2.88349e-06 0.0005 
888 1 -0.006848 -0.00446568 0.000924081 0.000318577 0.00037591 6.29011e-05 -3.29011e-07 2.3173e-07 3.56638e-07 2.32273e-07 -2.96285e-07 2.96663e-06 0.0005 
48 1 -0.00162791 -0.00415199 0.00124059 -7.5221e-05 -0.000177182 0.000249805 -2.56906e-08 -3.86861e-08 -4.373e-07 -1.75988e-07 -2.29334e-07 2.89008e-06 0.0005 
433 1 -0.0114971 -0.00338503 0.00119588 -0.000293013 0.000450988 0.000330564 2.14227e-07 -8.54246e-07 -1.21155e-07 -2.46856e-07 -2.59266e-07 3.20131e-06 0.0005 
4071 1 -0.00435692 -0.00385936 0.00108372 -0.000218203 -0.0011745 0.000328163 7.81699e-07 -1.72244e-06 8.85408e-06 -8.57626e-08 -2.92442e-07 2.69735e-06 0.0005 
437 1 -0.00243604 -0.00356508 0.00124743 0.000106962 0.000122725 6.77483e-05 2.84386e-07 -9.1537e-08 -5.8709e-08 -3.15945e-07 -3.99696e-07 2.81233e-06 0.0005 
4267 1 -0.000345189 -0.00321296 0.000821739 1.14766e-05 -0.000171578 0.000154585 -2.38963e-08 -1.3603e-07 -2.20408e-08 3.49635e-08 1.91666e-07 3.33894e-06 0.0005 
3922 1 -0.00993021 -0.0025027 0.00120031 0.000455777 -0.000169366 -0.000158442 -2.10447e-07 3.51155e-08 -1.49304e-07 -3.33499e-07 -3.5424e-07 2.77509e-06 0.0005 
403 1 -0.00919634 -0.00303818 0.000783109 0.000542841 0.000141347 -0.00026318 5.69805e-08 3.61963e-07 4.21487e-07 -3.32532e-07 -3.5221e-07 2.7662e-06 0.0005 
3594 1 -0.00615249 -0.00273247 0.000968787 -0.000281523 0.00103384 0.000123462 4.60948e-07 -2.52987e-07 1.15374e-06 6.93819e-08 -1.81528e-07 3.01689e-06 0.0005 
4727 1 -0.00487834 -0.00306048 0.000785372 -0.000389022 0.000357094 0.00048619 1.91245e-06 -5.78426e-06 7.11293e-06 -3.80997e-07 -9.7495e-08 3.15748e-06 0.0005 
3331 1 -0.00284481 -0.00251965 0.00115106 -0.000132848 0.000180958 -9.19243e-05 -1.84672e-07 2.91174e-07 -4.02271e-07 -2.04889e-07 -1.44908e-07 3.2478e-06 0.0005 
1769 1 -0.00184597 -0.00239512 0.00109718 -0.000189971 0.000328128 -0.000238864 4.74752e-07 3.54397e-07 -3.36934e-07 -2.05461e-07 -1.45595e-07 3.24522e-06 0.0005 
1638 1 -0.00739851 -0.00196343 0.00117862 7.23669e-05 0.000256576 6.70605e-06 -1.81819e-07 5.31872e-07 -2.79865e-07 -2.13205e-07 4.22547e-08 3.21835e-06 0.0005 
4232 1 -0.000643617 -0.00171354 0.00105955 0.000319989 -3.81206e-05 -5.85452e-05 3.96106e-07 5.69612e-07 1.26759e-07 -1.4607e-07 1.71352e-07 2.72404e-06 0.0005 
4406 1 -0.0115799 -0.00105102 0.000970563 0.000274927 -0.000183322 -5.53995e-06 8.39038e-08 1.21288e-07 1.57552e-07 -8.65458e-07 2.59175e-07 3.08478e-06 0.0005 
1255 1 -0.00509715 -0.00150596 0.00107395 3.85367e-05 0.000926996 -5.50293e-05 1.62085e-06 -1.45404e-06 -4.5411e-07 -4.9352e-08 -2.6924e-07 2.34265e-06 0.0005 
603 1 -0.00301372 -0.000910255 0.000943969 0.000187322 0.000160338 4.17439e-05 -7.88448e-08 4.65061e-07 1.8963e-07 -2.84811e-08 1.31991e-07 2.78459e-06 0.0005 
3200 1 -0.00136307 -0.000964948 0.00118421 0.000316252 8.10156e-05 5.81862e-05 3.38629e-07 2.25178e-07 9.41361e-08 -1.45233e-07 1.71368e-07 2.71982e-06 0.0005 
3347 1 -0.0133439 -0.000430791 0.000518524 0.000152261 -0.000111751 0.000172367 -1.50773e-08 2.89605e-07 2.98908e-08 -4.46921e-07 5.47435e-08 2.53205e-06 0.0005 
271 1 -0.00807284 -0.000737196 0.00108157 0.000245732 0.000100505 5.55605e-05 -3.19636e-07 -6.94052e-08 -1.41259e-07 -3.42459e-08 2.34335e-08 3.05876e-06 0.0005 
1311 1 -0.00721443 -0.000288744 0.0007587 0.000440139 0.000239749 -0.000124106 5.89448e-09 -1.21395e-07 -2.3292e-07 -3.36146e-08 2.41856e-08 3.06159e-06 0.0005 
2322 1 -0.00515586 -0.00016468 0.00121714 0.000299687 0.000449253 0.000173391 3.91963e-07 1.92278e-07 8.97604e-08 -4.92858e-08 -2.69029e-07 2.34419e-06 0.0005 
1292 1 -0.000171308 -0.000277464 0.00122688 0.000140549 0.000487851 0.000112555 5.79679e-07 2.64322e-07 -3.24466e-07 -1.45048e-07 1.72989e-07 2.7262e-06 0.0005 
4563 1 -0.00226536 -0.0131557 0.00190848 -0.000491006 0.000177737 0.000447201 2.47309e-07 -1.2624e-08 -5.24196e-07 7.76271e-08 3.88009e-08 3.4704e-06 0.0005 
3584 1 -0.0015043 -0.0128155 0.00135648 -0.000620284 -8.76053e-05 0.000250665 4.47002e-07 -3.60363e-07 -1.44085e-07 7.7242e-08 3.85946e-08 3.4711e-06 0.0005 
3969 1 -0.000508441 -0.0133409 0.00169849 -0.000132412 2.10273e-06 -0.000130606 3.73249e-08 -1.02326e-07 -4.74694e-07 7.73372e-08 3.92919e-08 3.4694e-06 0.0005 
4136 1 -0.0055371 -0.0121477 0.00192638 -8.36965e-05 3.44036e-05 0.000744388 -1.38569e-07 3.57689e-07 1.50874e-07 -4.27995e-07 1.29267e-07 3.17997e-06 0.0005 
4768 1 -0.00470821 -0.0124934 0.00148723 -0.00020526 0.000119165 0.000372173 8.89713e-08 3.95445e-08 1.07254e-07 -3.14357e-07 2.64245e-07 3.30139e-06 0.0005 
350 1 -0.00372361 -0.0123501 0.00139533 -0.000241628 0.00022303 -7.0637e-05 1.81392e-07 2.83769e-07 -8.13214e-07 -3.14581e-07 2.63868e-07 3.30267e-06 0.0005 
3357 1 -0.00199493 -0.0119484 0.00145336 0.000110347 -2.07451e-05 0.000201909 -5.98691e-07 6.60991e-07 -1.37817e-07 7.79625e-08 3.87604e-08 3.46926e-06 0.0005 