ITEM: TIMESTEP
10000
ITEM: NUMBER OF ATOMS
10000
ITEM: BOX BOUNDS mm mm mm
-0.015 0.015
-0.015 0.015
-0.001 0.0554
ITEM: ATOMS id type x y z vx vy vz fx fy fz f_dragforce[1] f_dragforce[2] f_dragforce[3] radius 
3085 1 -0.00379969 -0.0127922 0.000499771 -0.00012913 0.000159882 -3.39848e-15 9.20817e-22 -4.35987e-23 0 0 0 0 0.0005 
1995 1 -0.00229164 -0.0131518 0.000499771 -0.000193041 9.30859e-05 -4.40489e-06 -1.61611e-10 -2.86116e-10 -2.33478e-08 0 0 0 0.0005 
3052 1 -0.00129732 -0.0132879 0.000498711 2.28455e-05 -2.94779e-06 8.83895e-06 2.65258e-08 -8.2653e-09 8.83763e-09 0 0 0 0.0005 
585 1 -0.000299019 -0.0133459 0.000499772 -2.22252e-05 -8.88136e-07 5.69779e-06 2.58325e-07 -4.76256e-08 -3.3105e-08 0 0 0 0.0005 
2795 1 -0.00580341 -0.0120135 0.000499771 -2.17662e-05 0.000250524 3.24634e-15 -1.16187e-22 1.83482e-21 0 0 0 0 0.0005 
523 1 -0.00488796 -0.0124252 0.000499635 4.70311e-05 -2.42909e-05 1.76137e-05 -1.46945e-07 8.73033e-08 -3.54418e-08 0 0 0 0.0005 
1312 1 -0.00290572 -0.0123415 0.000498798 1.54958e-05 -1.56685e-05 4.9102e-06 1.55927e-08 2.34693e-08 -7.44602e-09 0 0 0 0.0005 
798 1 -0.00188879 -0.0122283 0.000498381 9.24885e-05 1.71197e-05 3.41743e-06 -1.10359e-08 -3.73631e-08 9.75854e-09 0 0 0 0.0005 
1936 1 -0.000785656 -0.0124299 0.000498293 -9.63024e-06 2.81975e-06 1.44271e-05 6.0804e-09 5.06944e-09 -2.03296e-09 0 0 0 0.0005 
2169 1 -0.00671151 -0.0115403 0.000499536 -9.81251e-05 7.45649e-05 -3.42667e-06 -1.56879e-07 5.34895e-08 3.97296e-08 0 0 0 0.0005 
986 1 -0.00408582 -0.0118325 0.000499064 5.34569e-05 -3.56628e-05 9.80994e-06 -8.93939e-08 5.3407e-08 -6.66247e-10 0 0 0 0.0005 
1397 1 -0.00330176 -0.011215 0.00049744 2.50782e-05 -1.1925e-05 8.44228e-06 -4.82197e-08 2.5184e-08 2.38576e-08 0 0 0 0.0005 
1815 1 -0.00181504 -0.0112293 0.000496985 4.14202e-05 -4.61737e-06 1.40922e-05 -2.97969e-07 4.87736e-08 1.08353e-08 0 0 0 0.0005 
1989 1 -1.4101e-05 -0.0114595 0.000499274 -8.45404e-05 7.65061e-05 -9.6044e-06 -8.30754e-08 -5.31425e-07 2.75172e-07 0 0 0 0.0005 
303 1 -0.00753514 -0.0109639 0.000499771 0.000804687 0.00153769 -6.58427e-15 -1.49063e-22 6.20354e-22 -9.17591e-17 0 0 0 0.0005 
4554 1 -0.0064378 -0.0105784 0.00049977 0.000566072 -0.00189802 7.63761e-06 6.52197e-13 -4.08711e-12 3.65862e-09 0 0 0 0.0005 
2551 1 -0.00550085 -0.0110032 0.000497105 4.38238e-05 -5.43002e-05 1.50706e-05 -7.8864e-08 -1.01225e-07 8.90899e-09 0 0 0 0.0005 
4073 1 -0.00392721 -0.0104314 0.000499269 -3.01501e-05 -1.12386e-05 1.00472e-05 2.55553e-08 7.33486e-08 2.8094e-08 0 0 0 0.0005 
769 1 -0.00255733 -0.0105485 0.000499305 -5.80744e-06 2.33148e-05 5.44595e-06 -1.3721e-08 3.58303e-08 1.37369e-08 0 0 0 0.0005 
4636 1 -0.000825849 -0.0108773 0.000497902 -1.70233e-05 1.23311e-05 -5.49122e-06 -7.71013e-08 -1.2793e-07 -5.12835e-08 0 0 0 0.0005 
2750 1 -0.00881909 -0.0100247 0.000497223 -6.03209e-06 1.02176e-05 4.50639e-06 1.21828e-07 -7.97614e-08 -2.98239e-08 0 0 0 0.0005 
3084 1 -0.00779303 -0.00990338 0.000496332 2.59715e-05 -1.48585e-05 1.19967e-05 -1.61274e-08 1.98414e-08 4.84378e-08 0 0 0 0.0005 
3337 1 -0.00682444 -0.00965501 0.000499658 0.000339291 -0.00153652 -1.18433e-05 1.95361e-07 -2.65352e-07 1.75589e-07 0 0 0 0.0005 
3321 1 -0.00559005 -0.0100072 0.000496903 3.48507e-05 -2.64462e-05 2.15107e-05 -5.48491e-08 -9.04146e-08 2.13821e-08 0 0 0 0.0005 
4461 1 -0.00160322 -0.010252 0.000498191 6.61716e-06 2.9743e-05 1.35354e-05 -3.12913e-08 2.1962e-07 -2.80673e-09 0 0 0 0.0005 
789 1 -0.00233267 -0.00956441 0.000496511 1.60411e-05 -1.73645e-05 9.76477e-06 -4.79311e-08 -3.29527e-08 2.42298e-08 0 0 0 0.0005 
3092 1 -0.00958082 -0.00929692 0.000499764 -3.74787e-05 1.14326e-05 1.76955e-05 1.54057e-07 -1.054e-07 -5.0515e-08 0 0 0 0.0005 
614 1 -0.0058388 -0.00903485 0.000499771 -9.9836e-05 -0.000154213 -1.27873e-09 5.62952e-17 8.69569e-17 4.726e-12 0 0 0 0.0005 
4825 1 -0.00472637 -0.00942447 0.000499771 0.00142919 -0.00055078 -2.06926e-15 3.38034e-21 -2.01622e-21 0 0 0 0 0.0005 
3436 1 -0.00339938 -0.00933669 0.000499771 -0.000583438 0.000828364 1.91776e-15 -3.71658e-21 -2.97109e-21 -1.69407e-21 0 0 0 0.0005 
2173 1 -0.00138413 -0.00925747 0.000497317 -2.19105e-05 3.01952e-05 2.49749e-06 -4.27725e-08 1.35485e-08 2.8076e-08 0 0 0 0.0005 
599 1 -6.52835e-05 -0.00894693 0.000499007 -2.85564e-06 4.52085e-05 9.60289e-06 -1.72507e-07 7.56361e-08 -5.58643e-09 0 0 0 0.0005 
4221 1 -0.0103805 -0.00839471 0.000499047 8.52104e-06 -1.34294e-05 -1.72282e-06 -9.19849e-09 7.66207e-08 -3.16946e-08 0 0 0 0.0005 
823 1 -0.00934271 -0.00832579 0.000499263 2.15628e-05 -1.65975e-05 7.56326e-06 -8.12969e-08 -3.22583e-08 -3.29634e-08 0 0 0 0.0005 
1550 1 -0.00831007 -0.00848449 0.000498168 1.81863e-05 -3.89079e-06 1.54002e-05 -1.30194e-08 -2.98274e-08 -9.79444e-09 0 0 0 0.0005 
4518 1 -0.00671975 -0.00855871 0.000499771 -5.09935e-05 0.000273597 -1.18195e-12 2.66629e-20 -1.43153e-19 5.61269e-15 0 0 0 0.0005 
2735 1 -0.00535989 -0.00815626 0.000497461 7.08155e-05 -3.12693e-05 1.95632e-05 6.5922e-08 2.54806e-07 7.3049e-08 0 0 0 0.0005 
3818 1 -0.00433089 -0.00850379 0.000495642 6.13183e-05 -4.19679e-05 1.68241e-05 4.08045e-09 -1.65986e-08 -1.82501e-08 0 0 0 0.0005 
2662 1 -0.00305807 -0.00834286 0.000499197 7.24791e-05 -5.72537e-05 2.10451e-05 9.74419e-09 -1.22438e-07 -2.4485e-09 0 0 0 0.0005 
3424 1 -0.00204831 -0.00837519 0.000498281 -7.71836e-05 -0.000125385 1.73247e-05 -4.02241e-08 2.47444e-09 2.90342e-09 0 0 0 0.0005 
3987 1 -0.000893919 -0.00838691 0.000498944 3.70315e-06 -7.95648e-06 4.74357e-06 -4.97812e-08 9.34917e-09 1.36875e-08 0 0 0 0.0005 
1567 1 -0.0102088 -0.00740503 0.000496715 1.06982e-05 -2.79645e-05 -2.43461e-06 -2.48472e-08 1.07073e-07 1.97103e-08 0 0 0 0.0005 
251 1 -0.00899801 -0.0073157 0.000499771 -0.000288664 0.000753809 -4.72707e-15 -1.84304e-21 3.74244e-21 0 0 0 0 0.0005 
1983 1 -0.0079671 -0.007451 0.000498642 2.96675e-05 -2.87148e-05 3.47806e-06 -4.79447e-08 -3.40524e-08 -2.14015e-08 0 0 0 0.0005 
2675 1 -0.00696719 -0.00758868 0.000499771 0.000643687 -3.8662e-05 3.24634e-15 -3.7524e-21 2.00538e-22 0 0 0 0 0.0005 
1631 1 -0.00584656 -0.00728295 0.00049849 9.68448e-05 3.10358e-05 2.1928e-05 -2.32983e-08 1.1602e-07 -2.36601e-08 0 0 0 0.0005 
4305 1 -0.00479042 -0.00733561 0.000498548 4.17223e-05 -3.19894e-05 2.63143e-05 1.31715e-07 7.10469e-08 -5.86089e-08 0 0 0 0.0005 
3423 1 -0.00380327 -0.00765517 0.000499482 -3.11797e-05 -1.88994e-06 5.55182e-06 1.12049e-08 -1.2106e-07 6.16979e-08 0 0 0 0.0005 
3833 1 -0.0016778 -0.00744287 0.000499611 -2.4431e-05 7.38162e-05 -8.10316e-06 -2.06121e-07 1.97018e-07 -1.97446e-08 0 0 0 0.0005 
2532 1 -3.47184e-05 -0.0078767 0.000497569 -8.11435e-06 -1.5889e-05 4.7339e-06 -4.75851e-08 2.72674e-08 4.89257e-08 0 0 0 0.0005 
3656 1 -0.000722288 -0.00715104 0.000499706 4.19098e-06 3.08165e-06 7.73652e-06 -9.48882e-08 4.97156e-08 8.1986e-09 0 0 0 0.0005 
4201 1 -0.011257 -0.00709689 0.000499771 0.000721444 0.000900587 4.57556e-15 4.16195e-21 2.39409e-21 0 0 0 0 0.0005 
4210 1 -0.00967721 -0.0065306 0.00049885 -3.85694e-07 4.42288e-06 2.94817e-06 -1.1953e-08 9.35983e-08 3.02647e-08 0 0 0 0.0005 
2888 1 -0.00269686 -0.0065012 0.000496978 2.82297e-05 -1.23922e-05 1.24067e-05 9.20933e-08 8.75295e-08 -3.09737e-08 0 0 0 0.0005 
4625 1 -0.00164038 -0.00644122 0.000498617 1.56711e-05 -2.39522e-05 1.5137e-06 -8.4838e-08 -3.25486e-08 2.78491e-08 0 0 0 0.0005 
3927 1 -0.0117881 -0.00624244 0.000498351 9.9869e-06 -3.05748e-05 8.70939e-06 4.11975e-08 1.0343e-07 3.33616e-08 0 0 0 0.0005 
2192 1 -0.0107892 -0.006196 0.000498948 -1.74256e-05 -6.81044e-05 2.12697e-05 -1.9463e-08 2.25823e-07 -2.21897e-07 0 0 0 0.0005 
1510 1 -0.00999801 -0.00558452 0.000499259 -9.18536e-06 -3.22118e-05 -8.34388e-06 3.52373e-08 7.3555e-08 2.41688e-07 0 0 0 0.0005 
780 1 -0.008783 -0.00608428 0.000497568 8.48862e-06 -1.22033e-05 5.13026e-06 -1.26792e-08 -1.43831e-08 -2.73145e-09 0 0 0 0.0005 
2711 1 -0.00777113 -0.00592721 0.000499434 -2.07061e-06 -6.26541e-05 3.56562e-06 -6.86923e-08 -2.84798e-08 -5.31576e-08 0 0 0 0.0005 
4528 1 -0.00684817 -0.00631168 0.000499358 2.31654e-07 -5.56757e-05 -2.85135e-05 -9.68569e-08 8.70788e-08 3.44575e-08 0 0 0 0.0005 
1110 1 -0.00610752 -0.00564087 0.000496442 2.40163e-05 -0.000109237 1.61839e-05 1.47615e-08 9.1493e-08 -7.22841e-09 0 0 0 0.0005 
4643 1 -0.00531054 -0.00624557 0.00049977 -5.05674e-05 -4.92291e-05 6.5283e-08 2.55487e-10 -1.93988e-10 8.227e-09 0 0 0 0.0005 
2381 1 -0.00450094 -0.00565853 0.000497899 0.000101433 1.39252e-05 1.18899e-05 2.5017e-07 1.99273e-07 -1.08301e-09 0 0 0 0.0005 
3684 1 -0.00363934 -0.00617194 0.000498188 2.67391e-05 -1.66583e-05 3.07455e-05 8.69934e-08 -2.85334e-08 6.26725e-08 0 0 0 0.0005 
1043 1 -0.00221461 -0.00562447 0.000497351 -3.57992e-06 -4.08572e-05 1.37171e-05 -2.65487e-07 -6.07295e-08 1.20204e-08 0 0 0 0.0005 
2993 1 -0.000465266 -0.00617469 0.00049894 3.29513e-05 -2.66679e-05 5.35712e-07 -1.28882e-07 -1.54274e-08 1.33068e-08 0 0 0 0.0005 
1776 1 -0.0113588 -0.00504714 0.000497496 1.11262e-05 5.56375e-05 1.27849e-05 -5.19113e-08 -1.60319e-07 5.26512e-08 0 0 0 0.0005 
4107 1 -0.00910369 -0.00513844 0.000497877 1.07468e-05 -5.19888e-06 7.954e-06 1.49724e-07 -2.94829e-08 1.61482e-08 0 0 0 0.0005 
1559 1 -0.0076216 -0.00493807 0.000495643 4.55139e-05 -0.000100996 1.49952e-05 -1.75718e-08 4.823e-08 -1.19344e-08 0 0 0 0.0005 
2094 1 -0.00359465 -0.00517383 0.000499102 0.000152212 -1.99574e-05 1.65541e-05 4.24253e-07 -1.6741e-08 1.80315e-08 0 0 0 0.0005 
861 1 -0.00110837 -0.00489302 0.000497778 3.53698e-05 -0.000193641 6.80569e-06 -2.6114e-07 -4.075e-08 5.94822e-08 0 0 0 0.0005 
3962 1 -0.012555 -0.00453995 0.000497352 -2.14019e-06 3.18398e-06 1.27763e-05 2.55567e-08 5.36896e-08 2.85687e-08 0 0 0 0.0005 
2682 1 -0.010302 -0.00463307 0.000498145 3.80539e-05 -4.71377e-05 9.31215e-06 -1.72068e-07 1.20254e-07 -1.08351e-08 0 0 0 0.0005 
3002 1 -0.00943056 -0.00414567 0.000497277 -2.17556e-06 -2.36941e-05 2.46029e-05 -3.25194e-08 -1.30474e-07 7.47668e-08 0 0 0 0.0005 
1958 1 -0.00845869 -0.00437678 0.000497452 2.96362e-05 -5.36942e-05 1.28307e-05 -1.04374e-08 -5.60521e-08 3.47395e-08 0 0 0 0.0005 
2068 1 -0.00595827 -0.00461563 0.00049968 4.92441e-05 -9.32184e-05 7.30126e-07 -3.32873e-08 -6.45333e-08 -2.26528e-08 0 0 0 0.0005 
2964 1 -0.00519076 -0.0039754 0.000498852 -2.13469e-05 1.85063e-06 2.03462e-05 -1.78818e-07 5.27852e-08 1.41959e-08 0 0 0 0.0005 
3023 1 -0.00446128 -0.00465962 0.000499584 0.000375412 -6.92592e-06 -1.83648e-07 1.97191e-07 7.79241e-08 -1.27101e-07 0 0 0 0.0005 
2653 1 -0.00222636 -0.00446627 0.000499532 0.00170222 -0.00320578 -3.35271e-06 -1.48079e-08 -3.69062e-08 -3.9264e-10 0 0 0 0.0005 
533 1 -0.000147374 -0.00437181 0.000499632 1.65504e-05 -1.03109e-05 -2.30767e-06 -2.67209e-08 -6.22956e-08 1.08062e-08 0 0 0 0.0005 
1584 1 -0.0128346 -0.00358087 0.000498265 -3.02649e-07 1.91444e-06 -5.32401e-07 -5.8575e-08 -1.19218e-07 -7.35529e-09 0 0 0 0.0005 
2438 1 -0.0110064 -0.00392187 0.000499771 -6.58266e-05 8.08167e-05 4.56049e-15 -3.03794e-22 -4.68161e-22 8.13152e-20 0 0 0 0.0005 
615 1 -0.0100947 -0.00339806 0.000499769 3.23153e-05 -2.69415e-06 -9.0201e-06 1.2561e-07 5.70424e-08 1.14279e-08 0 0 0 0.0005 
1028 1 -0.00825476 -0.00317971 0.000498103 -5.20666e-05 -0.000110028 1.02311e-07 -1.98054e-07 -8.66373e-08 -1.58183e-08 0 0 0 0.0005 
631 1 -0.00751436 -0.0038512 0.000499807 -1.34978e-06 -9.24818e-05 -3.69118e-05 -4.65191e-08 2.3096e-08 2.17456e-08 0 0 0 0.0005 
2443 1 -0.00612388 -0.00361094 0.000497878 4.56514e-06 -0.000128172 5.34657e-06 2.02146e-07 2.41426e-08 6.18929e-08 0 0 0 0.0005 
4654 1 -0.00302409 -0.00326088 0.00049758 4.91066e-05 -1.81712e-05 -1.09856e-05 -1.19091e-08 9.16211e-08 4.77958e-08 0 0 0 0.0005 
3257 1 -0.00188658 -0.00319812 0.000497543 -1.1659e-05 -3.76441e-05 -4.50022e-06 -7.75025e-08 5.91722e-08 4.35126e-08 0 0 0 0.0005 
2288 1 -0.00101432 -0.00387377 0.000496613 2.32583e-05 -2.53447e-05 1.35421e-05 -2.99486e-08 -4.11683e-08 5.41764e-08 0 0 0 0.0005 
3325 1 -0.0130915 -0.00261487 0.000499611 -6.32137e-06 -7.39475e-07 -5.30247e-06 -2.38129e-09 -6.17653e-08 1.23364e-08 0 0 0 0.0005 
3678 1 -0.012044 -0.00287273 0.000499274 0.00109737 0.000281976 7.14683e-06 4.65628e-07 -1.32787e-07 1.88024e-08 0 0 0 0.0005 
334 1 -0.0109654 -0.0029062 0.000498089 2.50016e-05 -1.33187e-05 1.32502e-05 -2.71629e-07 1.16682e-07 2.5436e-08 0 0 0 0.0005 
707 1 -0.00706298 -0.00295394 0.000499771 0.000918712 -0.0011474 3.24634e-15 -3.65951e-21 -6.34082e-21 0 0 0 0 0.0005 
3894 1 -0.003943 -0.00287125 0.000498115 4.88422e-05 2.62884e-06 1.404e-05 -1.44958e-08 3.06144e-08 4.7564e-08 0 0 0 0.0005 
4366 1 -0.00106236 -0.00259511 0.000498693 -8.50525e-06 -1.8775e-05 -8.17186e-07 -6.96652e-08 2.40527e-08 2.45489e-08 0 0 0 0.0005 
2144 1 -0.0123895 -0.001903 0.000499769 -1.55076e-05 -1.6741e-05 8.40222e-07 4.84906e-08 -1.21807e-07 -7.2436e-09 0 0 0 0.0005 
3978 1 -0.0113909 -0.00194773 0.000499792 -2.27922e-05 2.82032e-05 -6.92458e-07 6.27887e-08 4.12142e-08 2.07854e-08 0 0 0 0.0005 
4751 1 -0.0103913 -0.00195839 0.000498241 -3.62688e-05 -3.26377e-05 2.48837e-05 6.64694e-08 6.74469e-08 5.46421e-08 0 0 0 0.0005 
649 1 -0.00928054 -0.00208463 0.000498309 2.6487e-06 -3.43061e-05 -9.77587e-06 2.14435e-08 -7.24511e-08 1.89011e-08 0 0 0 0.0005 
2196 1 -0.00813507 -0.00217129 0.000498692 0.000602388 -0.000232137 -7.1098e-06 -1.15639e-07 -3.16828e-09 7.22774e-08 0 0 0 0.0005 
4189 1 -0.00666812 -0.00201245 0.000498487 5.2385e-05 -8.26587e-05 1.03627e-05 -9.53702e-08 -1.7417e-08 -2.70043e-09 0 0 0 0.0005 
3444 1 -0.00540832 -0.00225556 0.0004966 2.27523e-05 -5.53216e-05 6.80752e-06 -6.23475e-08 -1.27526e-09 1.68259e-08 0 0 0 0.0005 
2846 1 -0.00444347 -0.00199764 0.000498714 1.63342e-05 -4.9308e-06 4.3046e-06 -5.50453e-08 4.35229e-08 4.71724e-08 0 0 0 0.0005 
1785 1 -0.00344416 -0.00200458 0.000499645 7.4987e-06 5.82327e-06 -4.16213e-06 -2.52434e-08 1.03748e-08 5.22613e-08 0 0 0 0.0005 
4216 1 -0.00245382 -0.00187129 0.000499207 1.25046e-05 -6.0668e-06 -1.56636e-06 -3.98024e-09 3.5654e-08 4.72774e-08 0 0 0 0.0005 
1807 1 -0.00147224 -0.00168461 0.000496144 1.30109e-05 -1.68061e-05 -7.22647e-06 -1.95567e-08 3.20925e-08 1.62587e-08 0 0 0 0.0005 
1118 1 -0.013265 -0.00142056 0.000497598 7.67094e-06 3.30828e-05 6.38844e-06 7.46778e-08 -1.13313e-07 2.56938e-08 0 0 0 0.0005 
586 1 -0.0124424 -0.000848963 0.000497334 2.7363e-05 1.91842e-05 6.90559e-06 5.67069e-08 -5.35768e-08 1.95864e-08 0 0 0 0.0005 
2266 1 -0.0107056 -0.00101019 0.000498562 4.66364e-05 1.38375e-05 2.22822e-05 4.06399e-08 -8.92426e-08 6.23256e-08 0 0 0 0.0005 
4495 1 -0.00971565 -0.00118588 0.000497355 2.39003e-05 -1.10504e-06 7.24087e-06 4.75878e-08 -1.46884e-07 8.39797e-08 0 0 0 0.0005 
3918 1 -0.00866766 -0.00129594 0.000498769 -2.61114e-05 7.21019e-08 1.21936e-05 -5.71682e-08 -2.5257e-08 4.58033e-08 0 0 0 0.0005 
2686 1 -0.00742959 -0.00123374 0.000498809 9.16456e-06 -6.06417e-05 1.33627e-06 -9.44337e-08 -7.25474e-08 -3.21685e-08 0 0 0 0.0005 
3469 1 -0.00645001 -0.00103266 0.000499771 1.26124e-05 -0.000358582 9.04393e-07 3.24226e-08 1.45899e-07 4.27295e-08 0 0 0 0.0005 
76 1 -0.00388793 -0.00110877 0.000497707 1.13252e-05 -1.43195e-05 -4.6815e-06 -1.57164e-08 -1.3506e-08 5.29375e-08 0 0 0 0.0005 
4432 1 -0.0021187 -0.000925001 0.000496962 7.80793e-06 -1.42647e-05 -2.01995e-06 -2.31801e-08 3.13467e-08 3.89109e-08 0 0 0 0.0005 
879 1 -0.000608946 -0.000877803 0.000499771 0.000345721 -8.60743e-05 -4.72737e-15 -1.85463e-21 4.67626e-22 0 0 0 0 0.0005 
4204 1 -0.0115915 -0.000172896 0.000498306 1.92142e-05 2.02314e-05 1.23254e-05 1.17497e-07 -1.97782e-07 6.15066e-08 0 0 0 0.0005 
4822 1 -0.0100656 -0.000200421 0.000497715 2.26726e-05 2.63392e-05 2.40834e-05 1.13409e-07 -1.25009e-07 9.09869e-08 0 0 0 0.0005 
2149 1 -0.00628724 -2.39004e-05 0.00049974 7.18368e-05 -0.000134562 -3.267e-06 -1.21328e-07 1.49758e-07 -5.57699e-09 0 0 0 0.0005 
2072 1 -0.00547889 -0.000784416 0.000498646 0.000130152 -0.00010391 5.7357e-06 6.07107e-08 -1.78186e-08 2.1518e-08 0 0 0 0.0005 
3036 1 -0.00286446 -2.91802e-05 0.000498479 3.63324e-05 -1.30764e-05 1.86988e-05 -2.92614e-08 5.2084e-08 1.81061e-08 0 0 0 0.0005 
4312 1 -0.00298796 -0.013012 0.00123486 4.22614e-05 -9.8327e-06 7.51441e-07 4.98394e-08 1.50047e-08 4.96408e-09 0 0 0 0.0005 
636 1 -0.00501927 -0.0116249 0.00111157 0.000108661 -1.92889e-05 -8.84458e-06 5.80143e-08 -6.73257e-08 -3.61568e-08 0 0 0 0.0005 
1605 1 -0.00416304 -0.0111152 0.00118903 7.28973e-05 -4.54199e-05 4.9121e-05 -2.77807e-08 2.2246e-09 3.80476e-08 0 0 0 0.0005 
2631 1 -0.0011226 -0.0116126 0.00110432 3.33834e-05 2.49119e-05 1.83938e-05 -4.27494e-07 -2.26746e-08 -7.43351e-08 0 0 0 0.0005 
1340 1 -0.00824047 -0.0105059 0.00115298 1.84341e-05 -1.04877e-05 -3.5787e-06 -7.4183e-08 3.97923e-08 1.00045e-07 0 0 0 0.0005 
3924 1 -0.00722524 -0.0103081 0.00121041 2.66566e-05 7.29963e-06 4.49346e-05 1.06148e-07 1.75713e-07 -8.04681e-09 0 0 0 0.0005 
3961 1 -0.0048025 -0.0103758 0.000986943 2.03977e-05 -0.000104688 1.47863e-05 -1.57206e-07 -1.49257e-07 7.4985e-08 0 0 0 0.0005 
1082 1 -0.000718125 -0.00992359 0.00083067 3.47964e-05 0.000122913 -3.26693e-05 -1.72327e-07 -1.11474e-07 -1.73307e-09 0 0 0 0.0005 
765 1 -0.00874839 -0.00919557 0.00104439 2.14134e-05 -2.75013e-06 2.36905e-05 2.9403e-08 -4.33137e-08 -4.80254e-08 0 0 0 0.0005 
1588 1 -0.00775541 -0.00909587 0.00107859 5.65303e-05 -2.59267e-05 6.92736e-05 -2.95922e-08 7.22511e-08 -3.28724e-08 0 0 0 0.0005 
1920 1 -0.00497874 -0.00873369 0.00121705 8.55895e-05 -4.43724e-05 4.32329e-05 -5.0807e-08 6.81893e-08 -2.83344e-08 0 0 0 0.0005 
3119 1 -0.00276284 -0.00899865 0.00119429 3.72498e-05 -6.93607e-05 6.50659e-05 -4.27238e-08 -1.03516e-07 1.31429e-07 0 0 0 0.0005 
2813 1 -0.00772368 -0.00810664 0.00121253 5.24707e-05 -2.07614e-05 2.43738e-05 3.91255e-08 4.09394e-08 -6.63136e-08 0 0 0 0.0005 
2400 1 -0.00597662 -0.00837821 0.00124964 0.000105534 -7.19718e-05 4.05185e-05 -7.04049e-07 8.13975e-08 -7.14023e-06 0 0 0 0.0005 
4384 1 -0.00367557 -0.00859659 0.00124241 6.55263e-05 -5.02772e-05 4.3297e-05 -3.21225e-08 -6.92594e-08 5.15916e-08 0 0 0 0.0005 
2794 1 -0.0108701 -0.0077526 0.0011585 2.9802e-06 -4.33298e-06 7.75596e-06 -2.13659e-08 5.53341e-08 3.06257e-08 0 0 0 0.0005 
1254 1 -0.00263044 -0.00749017 0.000796976 -1.43038e-05 3.19485e-06 4.58411e-06 -2.05489e-07 -3.99661e-08 1.85126e-07 0 0 0 0.0005 
123 1 -0.0103421 -0.00672643 0.00121745 3.44084e-05 -7.54505e-05 1.22316e-05 -2.80528e-08 1.34117e-07 1.63819e-08 0 0 0 0.0005 
2512 1 -0.00756346 -0.00672866 0.00105957 4.30988e-05 -5.18985e-05 -2.32464e-05 -2.51214e-07 -1.07772e-08 -4.63767e-09 0 0 0 0.0005 
1544 1 -0.00650081 -0.00695586 0.00117967 2.69612e-05 -2.96484e-05 -1.16719e-05 5.66923e-08 1.3617e-07 1.79266e-08 0 0 0 0.0005 
394 1 -0.00530172 -0.00691037 0.00124737 8.4871e-05 -5.00583e-05 7.89372e-05 -1.55393e-07 1.53071e-07 7.05992e-08 0 0 0 0.0005 
1585 1 -0.00435736 -0.00661292 0.00103389 1.19241e-05 -2.47468e-05 5.93774e-05 -1.22533e-08 3.43033e-08 3.21109e-08 0 0 0 0.0005 
2782 1 -0.00341688 -0.00694718 0.00108896 -3.97501e-05 -6.23805e-05 5.27649e-05 -2.57059e-07 -1.4887e-07 2.66093e-07 0 0 0 0.0005 
515 1 -0.00113607 -0.0059427 0.00120256 3.09761e-05 -4.41302e-05 -3.54936e-06 -1.9253e-07 4.1729e-08 6.28167e-08 0 0 0 0.0005 
900 1 -0.0122118 -0.00539719 0.000879329 4.53563e-06 2.86834e-05 1.01379e-05 -7.14414e-09 -9.80559e-08 1.71778e-08 0 0 0 0.0005 
894 1 -0.00830927 -0.00533795 0.00110105 1.24005e-05 -7.46679e-05 1.36169e-05 1.03957e-07 5.30944e-10 6.14036e-08 0 0 0 0.0005 
2499 1 -0.00530041 -0.0052387 0.000921482 2.25579e-05 -0.000137375 2.69481e-05 1.33635e-07 5.86593e-08 2.21198e-08 0 0 0 0.0005 
3350 1 -0.00289694 -0.0053896 0.00118629 -8.74605e-05 -0.000117808 -4.23333e-05 -2.81841e-07 -9.94005e-08 6.79503e-08 0 0 0 0.0005 
2343 1 -0.00173662 -0.00514471 0.00123023 -4.1463e-06 -6.14233e-05 3.08205e-05 -3.1257e-07 -6.4975e-08 9.21435e-08 0 0 0 0.0005 
1262 1 -0.0002292 -0.00528726 0.000893481 4.28546e-05 -5.67823e-05 1.00107e-05 -1.23567e-07 -3.25192e-08 7.43748e-08 0 0 0 0.0005 
4865 1 -0.0117657 -0.00434184 0.00107566 -1.68048e-05 5.53212e-05 1.97826e-05 1.11338e-07 -1.57012e-07 1.50694e-07 0 0 0 0.0005 
888 1 -0.00685093 -0.00446706 0.000923732 2.9056e-05 -6.41063e-05 6.40906e-06 -5.05208e-08 1.29402e-08 -3.14139e-08 0 0 0 0.0005 
1681 1 -0.00330903 -0.00421736 0.000546238 2.72357e-05 8.3623e-06 -2.38914e-05 1.26413e-07 5.65814e-08 4.25918e-08 0 0 0 0.0005 
48 1 -0.00162552 -0.00415023 0.00123317 3.06746e-05 -0.00010327 1.94053e-05 -1.31692e-07 -9.19893e-08 7.24556e-08 0 0 0 0.0005 
433 1 -0.0114981 -0.00338675 0.00119164 -5.95111e-05 5.68654e-05 -6.10838e-06 9.40015e-09 -1.53457e-07 1.50169e-07 0 0 0 0.0005 
4071 1 -0.00432349 -0.00392605 0.00116438 0.000474839 -1.75502e-05 -8.53843e-06 2.53811e-07 8.05237e-08 -2.97169e-07 0 0 0 0.0005 
437 1 -0.0024364 -0.00356928 0.00124195 2.2413e-05 -0.000131352 -1.4451e-05 -9.86628e-08 -1.86144e-08 7.53676e-08 0 0 0 0.0005 
4267 1 -0.000343622 -0.00321028 0.000816857 5.606e-06 -1.69233e-05 9.76364e-06 -9.6911e-08 3.54287e-08 8.28798e-08 0 0 0 0.0005 
3922 1 -0.00993303 -0.00250261 0.00119892 -3.35738e-06 1.16002e-05 6.06985e-05 -1.21214e-07 -3.09458e-07 1.13234e-07 0 0 0 0.0005 
403 1 -0.00920258 -0.00303863 0.000779099 -5.20589e-05 -4.0923e-05 8.19667e-06 -1.60008e-07 -1.54211e-07 -8.18812e-08 0 0 0 0.0005 
3594 1 -0.00615157 -0.00272759 0.000967503 7.08271e-05 -6.6115e-05 5.16672e-05 -1.55768e-07 -1.15623e-07 -1.18151e-07 0 0 0 0.0005 
4727 1 -0.00488029 -0.00306506 0.000779301 9.12509e-05 -0.000214936 4.04976e-05 -6.64398e-08 1.22681e-08 -9.77496e-08 0 0 0 0.0005 
3331 1 -0.00284305 -0.00252462 0.00114757 0.000125587 -4.513e-05 -1.90898e-05 1.17764e-08 5.35604e-08 9.09117e-08 0 0 0 0.0005 
1769 1 -0.0018438 -0.00239618 0.00109226 -2.87374e-05 -4.42349e-05 -6.48886e-06 -2.16037e-08 1.47592e-07 4.87805e-09 0 0 0 0.0005 
1638 1 -0.00740129 -0.00196869 0.00117492 2.28033e-05 -0.000100532 -2.32907e-05 -1.61283e-07 -1.83343e-08 7.51166e-09 0 0 0 0.0005 
4232 1 -0.000647013 -0.00171403 0.00105464 7.82935e-06 -6.48976e-05 -3.47319e-06 2.76582e-08 -4.70948e-08 -7.36733e-08 0 0 0 0.0005 
4406 1 -0.0115862 -0.00105395 0.000967326 3.71186e-05 6.41038e-06 4.08653e-05 2.00796e-08 -2.00152e-07 6.29208e-08 0 0 0 0.0005 
1255 1 -0.00509526 -0.0015064 0.00107475 4.08699e-05 -0.000106308 6.84498e-05 -7.1114e-08 5.52449e-09 7.52623e-08 0 0 0 0.0005 
603 1 -0.00301389 -0.000912554 0.000938145 1.50522e-05 -4.56561e-05 -2.01213e-05 -2.61388e-08 6.24962e-08 6.84555e-08 0 0 0 0.0005 
3200 1 -0.00136308 -0.000966728 0.00117717 6.23654e-05 -3.61454e-05 -3.77266e-06 7.76294e-10 7.02821e-08 3.71927e-08 0 0 0 0.0005 
3347 1 -0.0133456 -0.000424843 0.000516093 1.8006e-05 3.88943e-05 2.22805e-05 2.82862e-08 -4.09793e-08 3.38524e-08 0 0 0 0.0005 
271 1 -0.00807793 -0.000742554 0.00108409 4.75803e-05 -3.25785e-05 -9.62886e-06 -1.26307e-07 6.27747e-08 5.02499e-08 0 0 0 0.0005 
1311 1 -0.00721445 -0.000292961 0.000759784 5.14645e-05 -7.0157e-05 8.43961e-06 -5.67229e-08 4.30064e-08 -4.04076e-08 0 0 0 0.0005 
2322 1 -0.00515428 -0.000166737 0.00121269 5.59844e-05 -6.79006e-05 1.96792e-05 2.59418e-08 2.11345e-08 3.44293e-08 0 0 0 0.0005 
1292 1 -0.000173481 -0.000280915 0.00122068 1.6642e-05 -5.00741e-05 -1.20026e-05 -1.09226e-08 1.10654e-07 7.0183e-08 0 0 0 0.0005 
4563 1 -0.00226264 -0.0131576 0.00190684 4.30685e-05 -4.32051e-06 1.07524e-05 4.69829e-08 -1.06815e-08 4.50407e-09 0 0 0 0.0005 
3584 1 -0.00150222 -0.012818 0.00135502 5.53767e-05 8.79841e-06 2.646e-05 1.33782e-08 2.24245e-08 5.70317e-09 0 0 0 0.0005 
3969 1 -0.000510522 -0.0133417 0.00169052 2.60597e-05 8.71517e-06 8.7062e-06 1.69397e-08 1.15116e-07 -9.00995e-09 0 0 0 0.0005 
4136 1 -0.00552985 -0.012151 0.00192745 -7.90874e-06 2.07478e-05 -9.09695e-05 2.79831e-08 3.35594e-08 -1.02876e-07 0 0 0 0.0005 
4768 1 -0.004704 -0.0124963 0.00148252 3.7907e-05 -2.98192e-05 -8.82659e-06 6.56566e-08 -4.8406e-08 2.41588e-09 0 0 0 0.0005 
350 1 -0.00371971 -0.0123504 0.00139723 4.12334e-05 -2.91297e-05 9.05317e-07 5.20755e-08 -4.44102e-08 1.31989e-08 0 0 0 0.0005 
3357 1 -0.00199546 -0.011954 0.00145204 3.0571e-05 1.42644e-06 6.46478e-06 -6.97323e-08 -2.96761e-08 3.23792e-08 0 0 0 0.0005 
4285 1 -0.000590949 -0.01237 0.00147521 2.65394e-05 2.31288e-05 2.59113e-05 -5.69351e-08 1.68572e-07 7.03331e-08 0 0 0 0.0005 
2810 1 -0.00713291 -0.0112853 0.0013975 -6.01737e-05 2.3904e-05 0.000157358 -4.66009e-08 1.08307e-07 1.08701e-07 0 0 0 0.0005 
2671 1 -0.00626798 -0.0117854 0.00136113 -4.37345e-05 4.46316e-05 -4.11795e-05 -7.60225e-08 5.68519e-08 4.34705e-08 0 0 0 0.0005 
4443 1 -0.00457731 -0.0116566 0.0020074 7.72972e-05 -6.31605e-05 2.56617e-05 -5.93235e-08 -5.06108e-08 2.67139e-08 0 0 0 0.0005 
3552 1 -0.00295133 -0.0117231 0.0012818 2.68753e-05 -1.85575e-05 1.28319e-05 -2.59321e-08 1.77354e-08 6.55189e-10 0 0 0 0.0005 
2204 1 -0.00774287 -0.010634 0.0020077 7.16587e-05 -5.62509e-05 -3.02216e-05 -6.38802e-08 -3.81062e-09 1.1066e-07 0 0 0 0.0005 
1666 1 -0.00555583 -0.0108163 0.00147483 7.07892e-05 -8.57083e-05 5.30123e-05 -1.03092e-07 -2.25678e-07 3.81936e-08 0 0 0 0.0005 
4089 1 -0.00476427 -0.0104781 0.00197979 5.03545e-05 -3.80506e-05 6.94297e-05 -1.81077e-07 -5.94804e-08 6.40804e-08 0 0 0 0.0005 
3280 1 -0.00324676 -0.0107741 0.0013902 5.72082e-05 -3.2664e-05 3.04705e-05 -8.87528e-08 -4.04802e-08 1.14431e-07 0 0 0 0.0005 
3816 1 -0.0022741 -0.0109932 0.00134939 4.41355e-05 -5.11857e-05 3.46745e-05 -1.54851e-07 1.39759e-07 -1.504e-08 0 0 0 0.0005 
3945 1 -0.00128734 -0.0106599 0.00135736 6.36379e-05 1.82137e-05 1.90703e-05 -3.38775e-07 8.51246e-08 -4.1328e-08 0 0 0 0.0005 
2009 1 -0.000253946 -0.0108938 0.00131535 4.25578e-05 2.1967e-05 -2.26634e-05 -2.04462e-07 -3.36815e-07 -7.61169e-08 0 0 0 0.0005 
1166 1 -0.00939639 -0.0094854 0.00174561 1.74801e-05 1.64047e-06 4.23497e-05 1.15509e-08 -6.91634e-09 -6.36929e-08 0 0 0 0.0005 
532 1 -0.00629403 -0.0101469 0.0015315 7.79653e-05 -7.83995e-05 -2.62991e-05 9.81454e-08 -2.50767e-08 -2.78098e-08 0 0 0 0.0005 
3854 1 -0.00549248 -0.00957055 0.00138739 7.63185e-05 -4.52973e-05 3.64464e-05 -1.83364e-08 7.46842e-08 -2.60349e-08 0 0 0 0.0005 
2655 1 -0.004571 -0.00952013 0.00177152 5.49238e-05 -3.22107e-05 9.11366e-05 -7.60031e-08 -4.05215e-08 9.74881e-08 0 0 0 0.0005 
2170 1 -0.00375939 -0.00990179 0.0013299 -2.67633e-05 -1.16737e-05 1.18137e-06 -7.04815e-08 5.78865e-08 4.77495e-08 0 0 0 0.0005 
776 1 -0.00261681 -0.0100038 0.00134387 5.06394e-05 -2.55737e-05 2.74501e-05 -1.53113e-07 3.54506e-08 7.18766e-08 0 0 0 0.0005 
926 1 -0.00165683 -0.00973154 0.00134705 4.66469e-05 -1.49657e-05 6.76238e-05 -1.68398e-07 1.64676e-07 5.19531e-08 0 0 0 0.0005 
3427 1 -0.000594637 -0.0099682 0.00182141 0.000116837 -0.000181873 -8.83488e-05 -1.60939e-07 2.22495e-07 4.66817e-08 0 0 0 0.0005 
4680 1 -0.0100138 -0.00882483 0.00132263 2.91552e-05 -2.6094e-05 -2.10095e-05 2.86857e-08 5.71505e-08 -6.65005e-08 0 0 0 0.0005 
2396 1 -0.00842562 -0.0091376 0.00198623 6.63081e-05 1.44228e-05 -1.27563e-06 -2.76569e-07 9.60493e-08 3.48071e-08 0 0 0 0.0005 
4753 1 -0.00743215 -0.00872177 0.00194385 9.62109e-05 4.68767e-05 7.59908e-05 1.01388e-07 -7.65228e-08 -5.01486e-08 0 0 0 0.0005 
3215 1 -0.00654514 -0.00919548 0.00134245 -0.00105404 0.000698773 -0.000808074 1.23656e-06 6.46034e-07 7.26782e-06 0 0 0 0.0005 
292 1 -0.003304 -0.00929303 0.00197861 8.396e-06 -7.82106e-05 4.6472e-05 -5.67462e-08 -1.29132e-07 1.82944e-07 0 0 0 0.0005 
4382 1 -0.00181719 -0.00874721 0.00139494 2.55438e-05 -2.85837e-05 5.66281e-05 -8.33356e-08 7.03951e-08 5.45237e-08 0 0 0 0.0005 
359 1 -0.000789995 -0.00902494 0.00126403 -6.38821e-06 -2.80407e-05 2.09589e-05 -1.10896e-07 5.1128e-08 6.43765e-08 0 0 0 0.0005 
4572 1 -0.0105107 -0.00823422 0.00195579 1.21991e-05 -3.99552e-05 -1.03198e-05 5.23202e-10 -2.3459e-08 -3.39811e-08 0 0 0 0.0005 
4621 1 -0.00897808 -0.00830459 0.00142929 2.52267e-05 -6.21856e-06 9.41374e-06 -7.68943e-08 -8.67925e-09 -9.20659e-08 0 0 0 0.0005 
3791 1 -0.00435186 -0.00856717 0.00197655 8.29134e-05 -4.12427e-05 6.24467e-05 -9.33441e-08 2.35913e-08 -8.2896e-10 0 0 0 0.0005 
2441 1 -0.00290379 -0.00814145 0.0016833 4.67546e-05 -9.73592e-05 0.00013364 -9.06895e-08 -4.26021e-08 7.50067e-08 0 0 0 0.0005 
3736 1 -0.00127859 -0.00791212 0.00128901 2.05373e-05 -3.69895e-05 4.4272e-05 -3.25954e-08 4.96677e-08 1.22522e-08 0 0 0 0.0005 
4900 1 -0.000534987 -0.00826386 0.00185704 2.1272e-05 -4.59792e-05 3.30219e-05 -7.16423e-08 6.43363e-09 5.83066e-08 0 0 0 0.0005 
4582 1 -0.00985229 -0.00783444 0.00132267 2.30743e-06 -4.94766e-05 -1.84813e-05 -3.13208e-08 1.0084e-07 3.51106e-08 0 0 0 0.0005 
3351 1 -0.00931519 -0.00711854 0.00176202 1.38587e-06 -6.33734e-05 4.98014e-06 2.24235e-08 6.73986e-08 3.99285e-08 0 0 0 0.0005 
1621 1 -0.00846194 -0.00745318 0.00136592 1.23035e-05 -3.58804e-05 -1.46065e-05 -2.78867e-08 -5.33132e-08 -3.06812e-08 0 0 0 0.0005 
2848 1 -0.00757539 -0.00734682 0.0018452 9.5044e-05 3.56716e-06 -2.1148e-06 6.42423e-08 -6.52261e-08 1.13785e-08 0 0 0 0.0005 
2099 1 -0.00679651 -0.00786009 0.0014849 9.05767e-05 -6.1574e-05 -5.45221e-06 -1.34801e-07 1.02385e-07 -4.63819e-08 0 0 0 0.0005 
2597 1 -0.00532101 -0.00778807 0.00172406 9.54834e-05 -5.95219e-05 2.06949e-05 1.14265e-07 1.61308e-08 -1.64373e-07 0 0 0 0.0005 
1239 1 -0.00443899 -0.00787583 0.0012614 7.92267e-05 -5.44358e-05 3.99736e-05 -9.18001e-09 -3.96916e-08 -1.26124e-08 0 0 0 0.0005 
4530 1 -0.00378575 -0.00772839 0.00200013 3.34665e-05 -8.31372e-05 0.00010619 -2.03721e-07 -9.55152e-08 2.22695e-07 0 0 0 0.0005 
2336 1 -0.00208062 -0.00758905 0.00180546 -5.75449e-06 -5.45053e-05 8.74721e-05 -9.45709e-08 -1.08863e-08 -3.15862e-08 0 0 0 0.0005 
3980 1 -0.000136648 -0.00746986 0.00140269 6.01626e-06 -3.07597e-05 1.62919e-05 -1.14534e-07 3.51252e-08 9.54e-08 0 0 0 0.0005 
1191 1 -0.0113833 -0.00697485 0.00151836 2.67135e-06 -1.74619e-05 4.79241e-05 5.67895e-08 5.45783e-08 5.04019e-08 0 0 0 0.0005 
4307 1 -0.00864388 -0.00647322 0.00140476 -1.38593e-05 -5.49881e-05 3.98641e-06 2.89407e-09 -2.85884e-08 -1.27275e-08 0 0 0 0.0005 