ITEM: TIMESTEP
20000
ITEM: NUMBER OF ATOMS
10000
ITEM: BOX BOUNDS mm mm mm
-0.015 0.015
-0.015 0.015
-0.001 0.0554
ITEM: ATOMS id type x y z vx vy vz fx fy fz f_dragforce[1] f_dragforce[2] f_dragforce[3] radius 
3085 1 -0.00381748 -0.0127928 0.000499757 8.07628e-05 1.22037e-05 -2.56689e-05 -6.52172e-08 3.22732e-08 6.45274e-08 2.8028e-07 -2.56492e-08 2.73077e-06 0.0005 
1995 1 -0.00231763 -0.0131473 0.000499847 -0.00218558 0.000385572 -6.50416e-07 -1.3553e-07 3.00215e-08 -2.37675e-09 -3.60137e-07 -2.15781e-07 2.56606e-06 0.0005 
3052 1 -0.00129345 -0.0132873 0.000499656 -4.18043e-05 6.11729e-06 -3.13674e-06 -6.36859e-08 6.28543e-08 3.574e-08 -3.59885e-07 -2.15686e-07 2.56562e-06 0.0005 
585 1 -0.000295345 -0.0133468 0.000499846 -9.12126e-06 4.37455e-06 7.65247e-07 3.42591e-08 4.08243e-08 -3.7622e-09 -3.59299e-07 -2.14478e-07 2.56111e-06 0.0005 
2795 1 -0.0058152 -0.0120169 0.000499734 8.2875e-05 -1.46489e-06 5.30217e-06 -7.33766e-08 2.37397e-08 5.39826e-08 -1.05522e-07 1.01795e-07 2.80198e-06 0.0005 
523 1 -0.00489969 -0.0124186 0.000499648 5.56387e-05 -2.40626e-05 -4.64734e-05 -1.91585e-09 8.67904e-08 1.89462e-08 2.80537e-07 -2.55868e-08 2.72729e-06 0.0005 
1312 1 -0.00291225 -0.0123276 0.000499676 2.24146e-05 -8.49854e-06 1.27189e-05 -4.7235e-09 1.95401e-08 6.06727e-08 2.80865e-07 -2.48772e-08 2.72955e-06 0.0005 
798 1 -0.00190275 -0.0122357 0.000499845 -0.00247183 0.000109354 -7.24737e-07 -1.98018e-07 -2.7501e-07 -8.18394e-09 -3.59077e-07 -2.14426e-07 2.56152e-06 0.0005 
1936 1 -0.000787913 -0.0124246 0.000499847 -0.00118442 0.000676435 4.05372e-06 -8.46643e-08 1.39938e-07 -1.42022e-08 -3.58804e-07 -2.14603e-07 2.56208e-06 0.0005 
2169 1 -0.00673796 -0.0115251 0.000499953 -0.000249146 8.82983e-05 -1.32058e-05 9.05971e-07 -4.18576e-07 3.61833e-09 -1.04621e-07 1.03022e-07 2.79996e-06 0.0005 
986 1 -0.00409057 -0.0118312 0.000499754 -6.80217e-05 2.55109e-05 -1.17396e-05 9.66894e-08 9.1026e-08 -2.40701e-07 2.80373e-07 -2.47924e-08 2.72777e-06 0.0005 
1397 1 -0.00330907 -0.0112075 0.000499502 -8.97273e-06 2.25103e-05 1.77051e-05 -1.33659e-07 1.27196e-09 3.91567e-08 1.30861e-07 -1.13354e-07 2.66596e-06 0.0005 
1815 1 -0.00182376 -0.0112252 0.000499665 -0.000101442 6.53172e-05 -2.16579e-06 2.28003e-08 2.79133e-11 -2.59412e-09 -5.57045e-07 -5.46553e-07 2.51446e-06 0.0005 
303 1 -0.00764101 -0.010947 0.000499855 4.29802e-05 -5.4519e-05 2.83624e-05 -2.89572e-07 -1.16618e-07 -1.08507e-07 -2.91483e-07 -1.27334e-07 2.58425e-06 0.0005 
4554 1 -0.00644582 -0.010569 0.000499777 -0.000301309 4.12773e-05 4.42247e-05 2.00739e-07 -4.09624e-08 2.64922e-07 -7.45862e-08 -1.97005e-07 2.71349e-06 0.0005 
2551 1 -0.00554465 -0.0110023 0.000499682 -0.000322695 -0.000182107 -9.33472e-06 9.56128e-08 7.63176e-08 -8.81769e-08 -1.05719e-07 1.03826e-07 2.80049e-06 0.0005 
4073 1 -0.00392523 -0.0104202 0.000499684 1.46596e-05 8.4411e-05 1.87704e-05 -1.63844e-07 2.81419e-07 -1.53115e-07 1.30366e-07 -1.13097e-07 2.66639e-06 0.0005 
769 1 -0.00257181 -0.0105309 0.000499788 -7.02491e-05 0.00011012 1.49889e-05 6.22349e-09 -4.61349e-08 3.69359e-08 1.32076e-07 -1.11591e-07 2.66249e-06 0.0005 
4636 1 -0.000823831 -0.0108665 0.000499577 -6.06748e-05 -3.86815e-06 -2.52839e-05 1.06952e-07 -6.92595e-08 -8.51846e-08 -5.55469e-07 -5.45389e-07 2.50938e-06 0.0005 
2750 1 -0.00882171 -0.0100203 0.000499587 1.18828e-05 -1.31748e-05 -5.06903e-05 2.46386e-07 -1.685e-07 -4.03074e-08 -2.91094e-07 -1.25685e-07 2.58596e-06 0.0005 
3084 1 -0.0077956 -0.00989894 0.000499434 -0.000222112 -5.25293e-05 -4.77469e-05 7.10936e-07 1.83569e-07 1.29869e-08 -2.9292e-07 -1.27919e-07 2.59001e-06 0.0005 
3337 1 -0.00682843 -0.00964527 0.000499743 -0.000320314 -2.05735e-05 -1.9636e-05 1.03847e-06 1.09899e-06 1.47458e-07 -3.2261e-07 -1.50277e-07 2.68996e-06 0.0005 
3321 1 -0.0056308 -0.00998996 0.000499662 -0.000160946 -0.000111207 1.40649e-05 -8.48629e-08 -2.26871e-07 2.27756e-07 -7.47219e-08 -1.95616e-07 2.71007e-06 0.0005 
4825 1 -0.00477292 -0.00947363 0.000499834 -0.000499989 0.000371204 6.45361e-05 -9.17411e-08 -3.31955e-07 2.09354e-07 -1.2872e-07 -1.88417e-07 2.91038e-06 0.0005 
4461 1 -0.00160976 -0.0102486 0.000499639 3.70011e-05 2.99223e-05 -2.6457e-05 -1.58036e-08 -9.61452e-08 -7.19827e-08 -2.77235e-07 -5.60815e-07 2.87562e-06 0.0005 
789 1 -0.00233411 -0.00955954 0.000499548 5.3996e-05 -7.15392e-06 -1.06169e-05 -1.22645e-07 -3.58947e-07 -1.10787e-07 2.61856e-08 -1.06572e-07 2.64177e-06 0.0005 
3092 1 -0.0095663 -0.0093119 0.000499803 -4.22036e-06 -6.67961e-05 -3.13107e-06 1.64705e-07 -2.06949e-07 9.10725e-08 9.80352e-08 4.42866e-08 2.71901e-06 0.0005 
614 1 -0.00601345 -0.00906624 0.000499724 -0.000144156 -2.91084e-05 0.000420117 2.60394e-06 9.05444e-07 3.75399e-07 -1.27232e-07 -1.89026e-07 2.91117e-06 0.0005 
3436 1 -0.00339482 -0.00932566 0.000499752 -2.89511e-05 0.000151044 3.17102e-05 3.26299e-08 -3.08637e-08 2.63087e-08 2.53435e-08 -1.08226e-07 2.64124e-06 0.0005 
2173 1 -0.00138199 -0.00925471 0.000499774 1.76917e-05 1.27967e-05 -3.49786e-06 1.83248e-08 -8.99304e-08 3.08466e-08 -2.79328e-07 -5.61338e-07 2.8855e-06 0.0005 
599 1 -8.62771e-05 -0.00897639 0.000499694 -2.99857e-05 -5.88677e-05 2.43131e-06 4.31255e-08 -4.46876e-08 2.95767e-08 -2.79552e-07 -5.66353e-07 2.87891e-06 0.0005 
4221 1 -0.0104 -0.00837055 0.000499732 3.03694e-05 -3.57628e-06 8.9702e-06 8.41978e-08 -5.51529e-08 -1.02404e-07 9.56968e-08 4.25818e-08 2.72344e-06 0.0005 
823 1 -0.00939761 -0.00827494 0.00049986 -0.00134307 0.00402898 -1.58766e-07 2.60605e-08 2.3172e-07 -3.00932e-09 -9.78054e-08 3.91472e-07 2.56426e-06 0.0005 
1550 1 -0.00831476 -0.00847831 0.000499665 -2.6602e-05 7.24955e-05 7.72904e-05 -4.9955e-07 -4.97256e-08 2.32137e-07 -3.22789e-07 -1.53668e-07 2.68497e-06 0.0005 
4518 1 -0.00707895 -0.00860867 0.000499798 -0.00728932 -0.0020784 6.44522e-06 -1.03504e-07 -3.06194e-07 1.79234e-07 -4.53627e-07 -7.97866e-09 2.68637e-06 0.0005 
2735 1 -0.00538793 -0.00818024 0.000499707 -0.000137137 -9.67436e-05 0.00017072 9.61363e-07 8.16005e-07 2.2886e-08 -1.2861e-07 -1.90593e-07 2.91175e-06 0.0005 
3818 1 -0.00433838 -0.00853376 0.000499458 1.34352e-05 -0.00019976 0.000152913 -1.16505e-06 1.47862e-06 1.13446e-06 -1.28614e-07 -1.8946e-07 2.90976e-06 0.0005 
2662 1 -0.00308243 -0.00837475 0.000499689 2.39739e-05 -0.000143776 -2.66161e-07 -1.4417e-06 3.96861e-07 3.33251e-07 -1.69084e-07 -2.37839e-07 2.53602e-06 0.0005 
3424 1 -0.00208258 -0.00837016 0.00049972 9.01368e-06 9.07664e-05 1.39013e-05 -2.41014e-07 -1.44978e-07 2.05335e-07 -1.68847e-07 -2.37137e-07 2.53748e-06 0.0005 
3987 1 -0.000891373 -0.00838356 0.00049959 2.86282e-05 -4.54596e-05 2.64243e-05 9.42531e-08 -7.11283e-08 2.08967e-08 -1.83486e-07 -2.21071e-08 3.03348e-06 0.0005 
1567 1 -0.0102125 -0.00738846 0.000499436 1.43214e-05 5.19698e-05 2.30228e-05 -1.08256e-07 -1.53194e-07 -1.10346e-07 9.58991e-08 4.06359e-08 2.71762e-06 0.0005 
251 1 -0.00902543 -0.00730877 0.000499845 0.00101266 0.000843796 9.57704e-06 -1.72547e-08 9.47413e-08 1.34439e-07 -9.65431e-08 3.91018e-07 2.5588e-06 0.0005 
1983 1 -0.00798031 -0.00745133 0.000499655 0.000156233 -0.000107579 4.97219e-05 -3.22105e-07 4.09334e-07 -2.88489e-07 -7.35919e-08 -1.19845e-07 2.48406e-06 0.0005 
2675 1 -0.00699041 -0.00759257 0.000499836 2.00592e-05 -0.00110838 -6.42165e-05 -1.53551e-07 4.82025e-08 4.62078e-07 -4.08391e-07 -1.29331e-08 2.72657e-06 0.0005 
1631 1 -0.00585379 -0.00729556 0.000499651 8.43534e-05 -2.34357e-05 3.67015e-05 -5.08814e-08 2.84153e-07 -1.5555e-09 -4.10255e-07 -1.41948e-08 2.72884e-06 0.0005 
4305 1 -0.00481038 -0.00735934 0.000499605 5.89315e-05 -0.000230454 8.50282e-05 -1.28764e-06 -6.52488e-07 1.2482e-06 1.04182e-07 3.04241e-07 2.79829e-06 0.0005 
3423 1 -0.00381533 -0.00768162 0.000499773 0.000268015 -0.000252559 0.000111372 -8.97605e-07 9.07748e-07 6.0755e-07 1.05736e-07 3.06221e-07 2.7954e-06 0.0005 
3833 1 -0.00167085 -0.00745892 0.000499793 1.76426e-05 0.000109302 1.49955e-05 -2.66272e-08 -6.1025e-08 -1.50677e-08 -1.8243e-07 -2.19334e-08 3.0295e-06 0.0005 
2532 1 -1.76484e-05 -0.00789167 0.000499718 0.000891514 -0.000319493 -3.52215e-05 9.16628e-08 -1.04763e-07 6.84641e-08 -1.84822e-07 -2.31204e-08 3.02609e-06 0.0005 
3656 1 -0.000718245 -0.00715502 0.000499831 2.69101e-05 1.10315e-06 -1.71013e-06 3.16633e-08 -7.02819e-08 2.42581e-08 -1.83929e-07 -2.30015e-08 3.03231e-06 0.0005 
4201 1 -0.0112404 -0.00708652 0.000499781 2.06333e-05 -7.30609e-06 9.65335e-06 -2.46246e-09 5.72448e-08 8.73389e-08 4.47582e-07 -3.95192e-08 2.55073e-06 0.0005 
4210 1 -0.00967292 -0.00654679 0.000499626 2.14744e-05 4.0708e-05 -2.19426e-05 -2.85335e-07 -1.63422e-07 1.65269e-07 -1.48735e-07 -4.7479e-07 2.31853e-06 0.0005 
2888 1 -0.0026994 -0.00650387 0.000499738 -1.36697e-05 -6.63574e-06 1.20827e-05 -7.90415e-08 -1.6715e-07 -2.52959e-08 -2.65697e-07 -1.6222e-07 2.71106e-06 0.0005 
4625 1 -0.00165427 -0.00644403 0.000499654 -7.23814e-05 2.03906e-05 3.21944e-07 1.40023e-07 -5.38312e-09 5.10219e-08 -2.67196e-09 1.54649e-07 2.79632e-06 0.0005 
3927 1 -0.0118028 -0.00623871 0.00049966 4.99953e-05 2.8654e-06 1.63049e-06 -6.10794e-08 -2.60503e-08 1.39687e-07 4.47465e-07 -3.94618e-08 2.54779e-06 0.0005 
2192 1 -0.0108 -0.00618881 0.000499816 1.82049e-05 -3.12958e-05 4.18003e-05 6.63111e-08 -1.46822e-08 5.17415e-09 4.48867e-07 -3.89586e-08 2.55391e-06 0.0005 
1510 1 -0.00999044 -0.00559874 0.000499604 1.06724e-05 1.74885e-05 1.13695e-06 -1.04256e-07 6.69807e-08 7.18817e-08 -1.48059e-07 -4.71435e-07 2.33063e-06 0.0005 
780 1 -0.00878918 -0.00607174 0.00049975 0.000370924 4.68264e-05 8.28182e-05 -4.69041e-07 8.33324e-08 -4.24397e-07 -1.01821e-06 -7.49403e-07 2.73386e-06 0.0005 
2711 1 -0.00778903 -0.00593703 0.000499692 2.50202e-05 -6.86135e-05 1.60461e-05 -1.87236e-08 1.59268e-07 -3.05376e-07 -1.82451e-07 -4.51686e-07 2.56477e-06 0.0005 
4528 1 -0.00686338 -0.00631484 0.000499715 5.70117e-05 -4.93926e-05 -6.6416e-05 -8.80479e-08 1.34207e-07 -4.83209e-07 -1.73259e-07 -7.61626e-08 2.65455e-06 0.0005 
1110 1 -0.00612481 -0.00564099 0.000499641 -1.16731e-05 -7.99112e-05 2.00618e-05 -3.48358e-08 -2.11425e-07 2.31062e-08 -1.7373e-07 -7.82674e-08 2.64923e-06 0.0005 
4643 1 -0.00533648 -0.00625635 0.000499844 -0.000113105 -4.83293e-05 4.83081e-05 -2.7154e-08 -1.13393e-07 -1.73922e-08 -1.73869e-07 -8.03059e-08 2.65026e-06 0.0005 
2381 1 -0.00451267 -0.00568425 0.000499717 -2.89865e-05 -1.77283e-05 -4.63108e-05 -2.06098e-07 -1.68894e-07 1.10391e-08 -1.77788e-07 2.86399e-07 2.58786e-06 0.0005 
3684 1 -0.00364648 -0.00618351 0.000499691 1.51534e-05 5.41756e-05 -9.10484e-06 -2.58654e-07 -4.41577e-07 -9.16274e-08 -1.77148e-07 2.87572e-07 2.58796e-06 0.0005 
1043 1 -0.00222548 -0.00562343 0.000499767 -4.0122e-05 2.08218e-05 -6.11769e-06 -4.61397e-08 -7.90972e-08 1.93772e-08 -2.65572e-07 -1.61503e-07 2.71121e-06 0.0005 
2993 1 -0.000465567 -0.00618111 0.000499557 -4.03105e-05 -3.69298e-05 2.24189e-06 8.13135e-08 3.37387e-08 -1.78787e-09 -4.38495e-09 1.53636e-07 2.79614e-06 0.0005 
1776 1 -0.0113561 -0.00504475 0.000499728 5.73386e-06 -6.08863e-05 -2.1457e-06 -4.67137e-08 -1.10207e-07 1.52864e-08 4.49274e-07 -3.7849e-08 2.55148e-06 0.0005 
4107 1 -0.00911005 -0.00512486 0.00049976 -2.35406e-06 -9.10485e-06 5.8481e-05 -2.38419e-07 2.59662e-08 -1.75829e-08 -1.01586e-06 -7.48928e-07 2.73808e-06 0.0005 
1559 1 -0.00762523 -0.00495075 0.000499624 4.21576e-05 -9.11449e-05 3.322e-05 -2.3579e-07 6.83773e-09 -4.83994e-08 6.56287e-08 -6.98637e-07 3.02958e-06 0.0005 
2094 1 -0.003611 -0.00518434 0.000499587 -4.4216e-05 5.01492e-05 -1.33749e-05 -1.5226e-07 -1.41527e-07 4.4329e-08 -1.77306e-07 2.89347e-07 2.58409e-06 0.0005 
861 1 -0.00110459 -0.00491879 0.000499679 -3.51306e-05 7.50984e-05 7.04489e-06 -2.78486e-09 8.25508e-08 -8.2688e-09 1.00843e-08 -9.51304e-08 2.70915e-06 0.0005 
3962 1 -0.0125509 -0.00455001 0.000499665 -2.42848e-06 4.57028e-06 -8.48965e-06 4.86442e-08 1.64396e-09 3.96623e-08 -1.21226e-07 -2.04915e-07 2.78743e-06 0.0005 
2682 1 -0.0103124 -0.00465221 0.000499673 -1.01685e-05 -2.81784e-05 2.18955e-05 -6.87632e-08 -6.55946e-08 4.87737e-08 -1.48475e-07 -4.70911e-07 2.32228e-06 0.0005 
2438 1 -0.0110407 -0.003967 0.000499777 2.93767e-05 -3.51186e-05 5.87597e-06 9.54768e-08 4.97028e-08 2.53461e-08 2.33065e-08 -8.01878e-07 2.92724e-06 0.0005 
3002 1 -0.00943196 -0.00417822 0.000499687 6.73528e-06 -2.54091e-06 6.61525e-06 -1.35307e-08 4.18219e-08 -2.0976e-08 -9.92531e-08 -5.93534e-07 2.69557e-06 0.0005 
1958 1 -0.00845112 -0.00437282 0.000499844 2.965e-05 1.57e-05 6.17908e-06 -1.65222e-08 1.17982e-08 2.29842e-08 -1.018e-06 -7.4901e-07 2.73751e-06 0.0005 
2068 1 -0.00595051 -0.00462037 0.000499694 1.98267e-05 1.69473e-05 2.01153e-05 -1.05663e-07 -1.72263e-07 -8.74542e-08 3.98849e-07 -9.06971e-08 2.68818e-06 0.0005 
2964 1 -0.0051842 -0.00397769 0.000499681 8.54166e-06 -2.02605e-05 1.40366e-05 -1.42465e-07 1.66943e-07 -4.02564e-08 3.99778e-07 -9.04763e-08 2.6831e-06 0.0005 
3023 1 -0.00447721 -0.00468506 0.000499684 -0.000105989 -2.03818e-05 8.58151e-07 -5.4328e-08 -2.45754e-08 3.65847e-09 -1.21069e-08 -9.13644e-08 2.55342e-06 0.0005 
1681 1 -0.00333416 -0.00421937 0.000499794 -0.000292381 0.000137312 -4.07202e-06 4.60512e-08 -7.15595e-08 -5.39529e-09 -2.54303e-07 -2.2413e-07 2.55315e-06 0.0005 
2653 1 -0.00242903 -0.00464442 0.000499857 -0.000384435 -5.1418e-05 -4.15469e-07 3.10688e-08 -1.1703e-07 -1.17307e-08 -2.53202e-07 -2.23351e-07 2.55237e-06 0.0005 
533 1 -0.00015057 -0.00436517 0.000499716 1.91448e-05 -9.07498e-06 -1.38388e-05 8.31552e-08 8.0926e-08 -1.01345e-08 9.09448e-09 -9.46583e-08 2.70358e-06 0.0005 
1584 1 -0.012833 -0.00358809 0.000499687 -6.39008e-06 -3.65123e-06 1.54527e-06 1.80908e-08 -1.86852e-08 5.66306e-08 -1.19194e-07 -2.0427e-07 2.78756e-06 0.0005 
615 1 -0.0101384 -0.00347075 0.00049989 4.32679e-05 7.95934e-05 -8.07354e-06 -1.5752e-07 -2.3487e-07 6.75587e-08 2.52708e-08 -8.00389e-07 2.92235e-06 0.0005 
1028 1 -0.00824787 -0.0031934 0.000499712 9.04996e-06 3.48641e-06 7.16149e-06 -1.48428e-07 -6.44214e-08 4.01882e-07 1.6356e-07 1.05021e-07 2.99938e-06 0.0005 
631 1 -0.00754805 -0.00390765 0.000499786 -2.33455e-06 -8.56156e-05 1.5656e-05 -1.09917e-08 -9.22823e-08 2.18947e-08 6.54713e-08 -6.99996e-07 3.02836e-06 0.0005 
2443 1 -0.00612787 -0.00363647 0.000499681 7.63625e-06 6.22625e-05 1.44796e-06 7.9306e-08 -2.16613e-07 1.7488e-07 3.98935e-07 -9.09227e-08 2.68651e-06 0.0005 
4654 1 -0.00302553 -0.00326075 0.000499559 -7.3938e-06 3.58066e-05 -1.15213e-05 -6.27192e-08 -9.64354e-08 6.19868e-08 -2.68573e-07 5.0245e-08 2.93156e-06 0.0005 
3257 1 -0.00189627 -0.00320397 0.000499634 2.19927e-05 5.0525e-05 -9.19451e-06 -9.30629e-08 -9.03189e-08 7.23528e-08 -2.69676e-07 4.97651e-08 2.93316e-06 0.0005 
2288 1 -0.00102198 -0.00387494 0.000499654 2.54872e-05 1.00995e-05 2.52864e-05 3.14024e-08 -5.5157e-08 -1.59457e-08 9.89027e-09 -9.48913e-08 2.71038e-06 0.0005 
3325 1 -0.0130901 -0.00262185 0.000499715 -9.49597e-06 -2.50913e-05 -1.42583e-05 -1.36256e-08 5.69382e-08 -4.84979e-09 -4.37777e-07 -2.17303e-07 2.5029e-06 0.0005 
3678 1 -0.0120378 -0.00285426 0.000499772 -0.000294506 -0.000232753 -2.07185e-05 1.01956e-07 -1.83336e-07 7.26147e-09 -1.18795e-07 -2.04021e-07 2.7865e-06 0.0005 
334 1 -0.0109578 -0.00289777 0.000499594 -2.51628e-05 5.15698e-05 -3.03756e-05 -8.11511e-09 -1.36481e-07 1.01652e-07 2.46755e-08 -8.01766e-07 2.92459e-06 0.0005 
707 1 -0.00716221 -0.00289777 0.000499859 0.000910878 0.0010827 -2.0174e-07 9.90236e-08 -5.65414e-10 -2.37059e-09 1.61365e-07 1.02934e-07 3.00332e-06 0.0005 
3894 1 -0.00394385 -0.00286533 0.000499695 -2.04774e-05 2.93595e-06 1.3837e-06 3.15154e-09 1.33116e-08 2.44241e-08 -3.10598e-07 1.21505e-07 2.70541e-06 0.0005 
4366 1 -0.00106231 -0.00259807 0.000499798 0.00012461 0.000111747 1.70593e-05 1.2448e-07 -3.08017e-08 -8.33764e-08 2.13784e-07 3.05694e-07 2.83763e-06 0.0005 
2144 1 -0.0123933 -0.00190472 0.000499843 -1.39974e-05 2.57303e-05 3.58212e-06 2.46753e-08 -7.2018e-08 -2.87819e-08 -4.36895e-07 -2.1689e-07 2.5009e-06 0.0005 
3978 1 -0.0113935 -0.00190912 0.000499804 -5.90593e-06 6.17933e-05 3.66624e-05 1.40919e-07 3.75745e-07 1.16441e-07 -6.55735e-07 1.89356e-07 2.99756e-06 0.0005 
4751 1 -0.0103945 -0.00194934 0.000499621 8.60968e-05 0.000440219 -3.01788e-05 4.43626e-07 4.13882e-07 4.05651e-08 -6.57538e-07 1.9065e-07 2.9948e-06 0.0005 
649 1 -0.00929274 -0.00212197 0.000499664 0.000118441 0.00015638 -5.1551e-05 3.26187e-07 7.43013e-08 -6.95871e-08 -1.0233e-07 -5.9504e-07 2.69374e-06 0.0005 
2196 1 -0.00815257 -0.00212744 0.000499859 0.000826708 0.000928806 -2.02751e-07 1.09799e-07 1.93856e-08 -2.37755e-09 1.61601e-07 1.03713e-07 2.99961e-06 0.0005 
4189 1 -0.00667539 -0.0020222 0.00049969 6.22891e-05 4.98233e-05 4.9761e-05 -1.01775e-07 6.11131e-08 -6.23109e-08 4.82686e-07 -8.64129e-09 2.66664e-06 0.0005 
3444 1 -0.00541585 -0.0022705 0.000499639 1.2891e-05 1.03548e-06 -4.43814e-06 -1.78073e-07 1.85974e-07 5.72899e-08 4.8361e-07 -7.9404e-09 2.66496e-06 0.0005 
2846 1 -0.00445447 -0.00198526 0.000499676 -2.57118e-05 6.15497e-05 -2.03592e-05 -1.97915e-07 -3.98639e-08 -4.19532e-08 -3.12243e-07 1.22105e-07 2.69892e-06 0.0005 
1785 1 -0.00344502 -0.00199875 0.000499833 3.4666e-05 -1.38637e-05 -1.74553e-05 -1.43713e-07 -3.66907e-08 -1.67488e-08 -2.68757e-07 4.92609e-08 2.9319e-06 0.0005 
4216 1 -0.0024539 -0.00186633 0.000499745 2.97789e-05 1.70196e-05 -6.59467e-07 -3.47899e-08 -5.4592e-08 4.96942e-08 -2.69365e-07 4.8746e-08 2.93283e-06 0.0005 
1807 1 -0.00147037 -0.00168526 0.000499591 -6.53377e-06 2.22974e-05 -2.05887e-05 6.03155e-08 -2.11156e-07 3.51495e-08 -3.65186e-08 4.86409e-07 2.45627e-06 0.0005 
1118 1 -0.0132733 -0.00143009 0.000499856 -7.20957e-06 8.82859e-06 -9.31593e-06 -6.41021e-09 9.43316e-09 -2.63735e-08 -4.36682e-07 -2.16507e-07 2.50035e-06 0.0005 
586 1 -0.0124332 -0.000846852 0.000499621 3.99061e-05 0.00015181 1.7196e-05 -1.40877e-07 -3.74258e-08 -1.21879e-07 -4.37769e-07 -2.16872e-07 2.49942e-06 0.0005 
2266 1 -0.0106941 -0.000991752 0.000499797 9.22803e-05 0.000224274 3.57816e-06 -1.79807e-07 2.28518e-07 8.05166e-08 -6.56501e-07 1.88472e-07 2.99718e-06 0.0005 
4495 1 -0.00969317 -0.00113751 0.000499863 -5.36601e-05 0.000200429 -3.24746e-05 -2.36118e-07 2.97082e-07 -2.06094e-08 2.17466e-07 4.70363e-07 3.3162e-06 0.0005 
3918 1 -0.00869923 -0.00124639 0.000499824 1.49685e-05 8.47287e-05 -2.67386e-05 1.67168e-07 -1.72906e-07 6.36663e-08 2.16908e-07 4.70239e-07 3.31205e-06 0.0005 
2686 1 -0.00742999 -0.00123536 0.000499573 -6.50993e-05 0.000125163 1.97127e-05 -1.38395e-07 1.94693e-07 -3.37403e-08 5.43509e-07 1.2551e-07 2.819e-06 0.0005 
3469 1 -0.00644864 -0.00104445 0.000499828 -8.53428e-05 0.000194918 1.62639e-05 3.81906e-08 2.43362e-08 -4.61268e-08 3.67371e-07 -1.15498e-07 2.67178e-06 0.0005 
76 1 -0.00389597 -0.00110631 0.000499793 -5.70318e-05 -7.95706e-05 1.67763e-05 -2.21657e-09 1.05809e-07 -1.40128e-07 4.59421e-08 -1.21587e-07 2.29665e-06 0.0005 
4432 1 -0.00211571 -0.000921649 0.000499502 -2.43691e-05 2.02734e-05 -1.58732e-05 1.20807e-07 -9.87261e-08 1.27689e-07 -7.05959e-08 2.89649e-07 2.55068e-06 0.0005 
879 1 -0.000634154 -0.000875206 0.00049985 7.51353e-05 7.43111e-05 2.76003e-05 -1.39988e-07 -1.51471e-07 -3.75672e-08 -3.59592e-08 4.84321e-07 2.447e-06 0.0005 
4204 1 -0.0115818 -0.000164334 0.000499738 0.000139682 0.000151394 -1.33005e-05 -2.45574e-07 -7.56066e-08 -6.98772e-09 -6.60451e-07 1.89754e-07 2.99222e-06 0.0005 
4822 1 -0.0100636 -0.000186167 0.000499623 -6.62869e-05 0.000203227 4.9092e-05 -4.07341e-07 4.45374e-07 -1.40149e-07 2.19233e-07 4.68072e-07 3.31398e-06 0.0005 
2149 1 -0.00626528 -6.14645e-05 0.000499842 2.09432e-05 0.000207804 -1.67017e-05 2.88586e-07 7.27623e-08 1.86301e-07 3.68179e-07 -1.14057e-07 2.66158e-06 0.0005 
2072 1 -0.00548544 -0.000776395 0.000499623 -9.84742e-05 0.000116777 7.1195e-05 -7.94989e-08 3.72933e-07 -1.97799e-07 3.68303e-07 -1.14361e-07 2.66654e-06 0.0005 
3036 1 -0.00284547 -2.65633e-05 0.000499679 -1.56977e-05 8.86153e-05 2.4235e-05 -4.67053e-08 7.3263e-08 5.47778e-08 -7.16457e-08 2.91449e-07 2.55591e-06 0.0005 
4312 1 -0.00300322 -0.013008 0.00122647 0.000114071 -1.90568e-05 -3.57403e-05 1.03308e-08 3.51507e-08 3.68677e-08 2.80333e-07 -2.52408e-08 2.72853e-06 0.0005 
636 1 -0.00503509 -0.0116252 0.00109293 -0.000154679 -0.0001111 1.46038e-05 3.18623e-07 1.35109e-07 -2.37483e-07 -1.05963e-07 1.02518e-07 2.80195e-06 0.0005 
1605 1 -0.00418572 -0.0111048 0.00118026 -2.94785e-05 -3.07648e-05 9.51779e-05 3.06121e-07 -1.11639e-07 -4.87475e-07 1.30685e-07 -1.13435e-07 2.66283e-06 0.0005 
2631 1 -0.00112196 -0.0116077 0.00110027 -0.000116285 -7.63967e-06 -4.71297e-05 -3.17678e-09 -1.53764e-07 -2.31478e-07 -5.55711e-07 -5.45907e-07 2.51169e-06 0.0005 
1340 1 -0.00824474 -0.0105001 0.00116007 -6.59153e-05 -3.28418e-05 -8.60621e-05 3.43276e-07 -1.80505e-07 -1.95591e-07 -2.90414e-07 -1.25367e-07 2.58286e-06 0.0005 
3924 1 -0.00723643 -0.0103034 0.00122239 0.000513408 -0.000123314 -0.000719873 6.92386e-07 1.81652e-07 -3.69302e-08 -2.92603e-07 -1.28183e-07 2.58386e-06 0.0005 
3961 1 -0.0048192 -0.010368 0.000944629 2.35251e-05 -8.34502e-06 -0.000223448 -2.15509e-07 -1.0786e-06 -3.07083e-07 -7.57141e-08 -1.96775e-07 2.71356e-06 0.0005 
1082 1 -0.000722122 -0.0099288 0.000830753 -3.02411e-05 -3.47784e-05 5.46601e-05 -1.82078e-08 -1.12883e-07 -6.68755e-08 -2.78076e-07 -5.61034e-07 2.88075e-06 0.0005 
765 1 -0.00874261 -0.00919215 0.00105369 -8.80071e-05 -7.28377e-05 4.70058e-06 1.28849e-07 -2.71969e-07 3.26342e-07 -3.22598e-07 -1.51245e-07 2.68717e-06 0.0005 
1588 1 -0.00774865 -0.00908855 0.00108267 -0.000154282 -8.40563e-05 4.59797e-05 -1.41581e-07 5.02321e-07 7.6184e-08 -3.23856e-07 -1.51776e-07 2.69801e-06 0.0005 
1920 1 -0.00499468 -0.00874822 0.00122241 -4.60214e-05 -0.000182567 -0.000154409 -4.99479e-07 2.25229e-07 1.26806e-06 -1.28857e-07 -1.88471e-07 2.91471e-06 0.0005 
3119 1 -0.00276758 -0.00900488 0.00120923 0.000241933 -2.0555e-05 -2.23439e-05 -6.43732e-08 -3.12912e-07 -2.17716e-07 2.57573e-08 -1.08025e-07 2.63919e-06 0.0005 
2813 1 -0.00773631 -0.00809865 0.00122129 0.000257562 -5.87446e-05 5.05402e-05 -4.93879e-07 4.29264e-07 -9.00554e-08 -4.53199e-07 -7.19877e-09 2.68027e-06 0.0005 
2400 1 -0.00599995 -0.00841228 0.00125563 4.63614e-05 4.43057e-05 0.00103352 1.79666e-06 2.02325e-06 1.71278e-07 -4.55277e-07 -6.71517e-09 2.6888e-06 0.0005 
4384 1 -0.00368953 -0.00862093 0.00125491 1.91879e-05 -0.000524178 -2.82587e-05 -3.93595e-07 1.32163e-06 1.69691e-06 2.57782e-08 -1.07829e-07 2.63835e-06 0.0005 
2794 1 -0.0108748 -0.0077438 0.00115855 3.96621e-05 3.37988e-05 6.32381e-05 1.03181e-07 -1.64561e-07 -8.14986e-08 9.51598e-08 4.21936e-08 2.71948e-06 0.0005 
1254 1 -0.00263556 -0.00751781 0.000755763 -2.14431e-05 -4.41242e-05 -0.000165538 2.55972e-07 -1.33572e-07 1.21066e-07 -1.67177e-07 -2.36706e-07 2.52946e-06 0.0005 
123 1 -0.0103627 -0.00671884 0.00122633 4.13786e-05 3.74422e-05 4.72519e-05 -1.70121e-07 -1.33482e-07 -7.34847e-08 -1.49639e-07 -4.74002e-07 2.31754e-06 0.0005 
2512 1 -0.00757427 -0.0067334 0.00106468 0.000111049 -5.51994e-05 2.72545e-06 3.88164e-08 5.90978e-07 -1.52346e-07 -1.82735e-07 -4.51464e-07 2.56218e-06 0.0005 
1544 1 -0.00650457 -0.00695569 0.00117808 2.85198e-05 2.47839e-05 -0.000172122 -9.64246e-08 1.52094e-07 -1.67495e-06 -4.09557e-07 -1.2449e-08 2.72373e-06 0.0005 
394 1 -0.00530707 -0.00691965 0.00124756 6.71647e-06 -4.15186e-05 0.000164425 -8.57918e-07 8.36129e-07 4.26936e-07 -4.09729e-07 -1.41557e-08 2.72364e-06 0.0005 
1585 1 -0.00436242 -0.00663876 0.00102845 0.000141169 -9.91325e-05 -4.33903e-06 -1.02419e-06 -6.39283e-07 -1.3589e-07 -1.78443e-07 2.85365e-07 2.59033e-06 0.0005 
2782 1 -0.00340928 -0.00696879 0.00107122 7.89062e-05 -1.48831e-05 -0.00012012 1.32883e-07 -1.16327e-07 1.59003e-07 -1.6908e-07 -2.38945e-07 2.53239e-06 0.0005 
515 1 -0.00114139 -0.00594387 0.00119702 -8.98126e-05 2.92806e-05 -3.98657e-05 1.0797e-07 1.77661e-07 3.77814e-09 -3.5517e-09 1.5357e-07 2.79632e-06 0.0005 
900 1 -0.012206 -0.0054073 0.000881653 6.58272e-06 1.55348e-05 -4.44778e-06 -4.32133e-08 -2.47431e-08 8.93926e-09 4.48618e-07 -3.9133e-08 2.54836e-06 0.0005 
894 1 -0.0083322 -0.00534028 0.00108985 8.60715e-05 -7.08669e-05 7.82379e-05 -2.73065e-08 -3.51982e-08 -1.96701e-08 -1.01777e-06 -7.48807e-07 2.73693e-06 0.0005 
2499 1 -0.00530785 -0.0052555 0.000927651 1.68681e-07 -3.73333e-05 -3.8081e-05 -1.31998e-07 6.39427e-08 -7.88726e-09 -1.74375e-07 -7.91153e-08 2.64746e-06 0.0005 
3350 1 -0.00291576 -0.00539507 0.00118619 -1.51448e-05 1.97989e-05 -1.90193e-05 -1.00067e-07 9.38588e-09 8.28502e-08 -2.65166e-07 -1.61162e-07 2.70659e-06 0.0005 
2343 1 -0.00174325 -0.00514637 0.00123443 -3.04547e-05 4.83092e-05 1.51499e-05 -9.21867e-08 3.18747e-08 -5.65417e-08 -2.55185e-07 -2.25086e-07 2.55538e-06 0.0005 
1262 1 -0.000231263 -0.00528648 0.000879499 -0.000112216 -5.04884e-06 -5.00706e-05 4.77969e-08 5.76374e-08 6.98828e-08 -4.11775e-09 1.5474e-07 2.79198e-06 0.0005 
4865 1 -0.0117647 -0.00433912 0.00108025 -1.39534e-05 -5.50427e-06 -1.69662e-05 1.09892e-07 -7.76392e-08 3.91611e-08 -1.20819e-07 -2.03991e-07 2.78653e-06 0.0005 
888 1 -0.00684734 -0.00448395 0.000920097 4.43653e-05 -2.07411e-06 1.88341e-05 -9.32782e-08 -2.47876e-07 -5.50321e-08 3.9938e-07 -8.98081e-08 2.69066e-06 0.0005 
48 1 -0.00163114 -0.00415287 0.00124197 1.01563e-05 -1.09502e-05 2.71008e-05 -2.96631e-10 -5.59121e-08 -1.64598e-08 1.13567e-08 -9.39223e-08 2.70558e-06 0.0005 
433 1 -0.0115114 -0.00337694 0.00118022 -3.06161e-05 -3.43691e-05 -8.38639e-05 8.26496e-08 -1.44702e-07 1.54908e-07 2.44211e-08 -8.02394e-07 2.92623e-06 0.0005 
4071 1 -0.00437524 -0.00387652 0.00107867 -3.84229e-05 -4.25024e-05 4.11239e-05 -3.89258e-08 -3.48756e-08 -2.94081e-08 -1.15674e-08 -9.1369e-08 2.5562e-06 0.0005 
437 1 -0.00244402 -0.00357087 0.00125123 -5.08329e-06 2.54287e-06 -4.6782e-05 -4.99633e-08 -4.57277e-08 6.62993e-08 -2.53779e-07 -2.23767e-07 2.55621e-06 0.0005 
4267 1 -0.000344366 -0.00321447 0.000822502 3.56613e-05 2.77988e-05 2.29746e-05 -3.33205e-08 7.53296e-09 -2.52609e-09 2.14157e-07 3.06791e-07 2.83443e-06 0.0005 
3922 1 -0.00992495 -0.00255337 0.00114308 -4.50947e-05 0.000178964 -0.000236249 3.40322e-07 1.20802e-07 1.08352e-07 -1.01409e-07 -5.94038e-07 2.69137e-06 0.0005 
403 1 -0.00922675 -0.0031029 0.000682209 -6.41607e-06 0.000294399 -0.000421588 -2.99603e-07 -1.70178e-07 9.18185e-07 -1.00835e-07 -5.9055e-07 2.67959e-06 0.0005 
3594 1 -0.00616422 -0.00274892 0.000958413 -1.5866e-05 2.85806e-05 5.03702e-05 1.68559e-07 -1.33716e-07 -9.18472e-08 4.8154e-07 -8.09896e-09 2.66216e-06 0.0005 
4727 1 -0.0048816 -0.00306736 0.0007809 -1.52339e-05 -2.13228e-05 6.26464e-06 6.9245e-08 1.15734e-07 1.07821e-07 -3.12925e-07 1.21506e-07 2.7016e-06 0.0005 
3331 1 -0.00284177 -0.00252187 0.00114745 -6.86164e-05 3.95488e-05 -1.63835e-05 9.02462e-08 -1.56242e-07 1.54165e-07 -2.69106e-07 4.94136e-08 2.93749e-06 0.0005 
1769 1 -0.00184732 -0.0023986 0.00109006 4.36939e-05 -2.3319e-05 -3.42994e-05 7.02225e-08 -1.11026e-07 4.52642e-08 -2.70488e-07 4.86709e-08 2.93498e-06 0.0005 
1638 1 -0.0074155 -0.00197638 0.00117035 -9.85817e-05 8.06208e-05 2.00741e-05 -2.53139e-07 -1.08851e-07 -3.9197e-07 1.61119e-07 1.02891e-07 2.99962e-06 0.0005 
4232 1 -0.00062982 -0.00171673 0.00103992 -2.19045e-05 6.97019e-05 5.81565e-06 6.96157e-08 -1.47e-07 9.52611e-08 -3.69394e-08 4.85777e-07 2.45334e-06 0.0005 
4406 1 -0.0115742 -0.00104598 0.000971142 0.000114573 0.000174791 6.14139e-05 -4.88628e-07 5.45495e-08 -1.35356e-07 -6.54439e-07 1.88742e-07 2.99728e-06 0.0005 
1255 1 -0.00511919 -0.00150804 0.00107423 -1.96197e-05 -5.37724e-05 6.34351e-05 -2.45287e-07 3.46264e-07 -1.60888e-07 4.52795e-08 -1.22698e-07 2.30484e-06 0.0005 
603 1 -0.00301632 -0.000910934 0.000933336 -5.39395e-05 9.56302e-05 -4.01652e-05 -5.46213e-08 -2.09979e-07 -1.71348e-07 -7.02645e-08 2.90938e-07 2.54547e-06 0.0005 
3200 1 -0.00136587 -0.000957023 0.00117646 -3.36965e-05 6.41621e-06 -0.00011502 3.13626e-07 -3.12468e-07 2.95412e-07 -3.57089e-08 4.84843e-07 2.44948e-06 0.0005 
3347 1 -0.0133432 -0.00043286 0.000518346 4.89382e-06 -1.05009e-05 1.34578e-05 -1.51811e-07 2.28753e-08 -1.5281e-07 -4.38213e-07 -2.16235e-07 2.50059e-06 0.0005 
271 1 -0.00806883 -0.000730061 0.00107931 -7.23546e-05 0.0001268 -3.89976e-05 7.6728e-09 3.60404e-08 -4.49261e-09 5.43876e-07 1.25545e-07 2.81814e-06 0.0005 
1311 1 -0.00720524 -0.000294174 0.000751003 0.000199397 0.000231833 -0.00041161 2.74465e-07 -1.56132e-07 4.68395e-07 5.45436e-07 1.26713e-07 2.81996e-06 0.0005 
2322 1 -0.0051563 -0.000165801 0.00121962 5.37711e-05 0.000157608 4.18951e-05 -2.13115e-07 1.56926e-07 -7.26503e-08 4.55711e-08 -1.2208e-07 2.30627e-06 0.0005 
1292 1 -0.000163007 -0.000257676 0.00122935 2.43584e-05 5.4086e-05 -1.56867e-05 1.33434e-07 -2.68144e-07 2.14669e-07 -3.56434e-08 4.8731e-07 2.4511e-06 0.0005 
4563 1 -0.002269 -0.0131559 0.00188861 -2.77592e-06 -1.43138e-05 4.80747e-05 9.32349e-08 1.55875e-08 2.30947e-07 -3.59948e-07 -2.14412e-07 2.55619e-06 0.0005 
3584 1 -0.00150627 -0.0128023 0.0013474 -3.38238e-05 4.68697e-05 -1.78436e-07 5.71726e-08 2.28104e-07 1.11502e-07 -3.59981e-07 -2.15876e-07 2.56508e-06 0.0005 
3969 1 -0.000508194 -0.0133408 0.00169599 -0.000103703 -4.03986e-05 -0.000176519 -8.52065e-08 -4.52983e-08 3.20504e-07 -3.5951e-07 -2.1477e-07 2.55731e-06 0.0005 
4136 1 -0.00553815 -0.012147 0.00192696 0.000166798 2.26836e-05 -2.94424e-05 -1.81126e-07 -9.49039e-08 1.5212e-07 -1.0599e-07 1.02474e-07 2.79909e-06 0.0005 
4768 1 -0.00471295 -0.0124906 0.00147907 9.00276e-05 -1.54248e-05 -6.98754e-05 -1.42861e-07 1.00769e-07 1.31434e-07 2.80273e-07 -2.52706e-08 2.726e-06 0.0005 
350 1 -0.00372922 -0.0123394 0.00138623 6.48071e-05 -6.47755e-05 -1.53578e-05 -5.48605e-08 7.36503e-08 1.5798e-07 2.80103e-07 -2.51412e-08 2.72851e-06 0.0005 
3357 1 -0.00199714 -0.0119376 0.00145287 -9.44291e-05 4.01176e-05 5.5078e-05 -2.74879e-08 2.54858e-07 7.94743e-08 -3.58423e-07 -2.12777e-07 2.55226e-06 0.0005 
4285 1 -0.000598125 -0.0123689 0.00148099 -0.000189286 -9.46274e-05 -0.000145128 -2.1405e-07 -1.09856e-07 5.1583e-08 -3.59056e-07 -2.14385e-07 2.55871e-06 0.0005 