/*--------------------------------*- C++ -*----------------------------------*\
| =========                 |                                                 |
| \\      /  F ield         | OpenFOAM: The Open Source CFD Toolbox           |
|  \\    /   O peration     | Version:  2506                                  |
|   \\  /    A nd           | Website:  www.openfoam.com                      |
|    \\/     M anipulation  |                                                 |
\*---------------------------------------------------------------------------*/
FoamFile
{
    version     2.0;
    format      ascii;
    arch        "LSB;label=32;scalar=64";
    class       volScalarField;
    location    "0.01";
    object      p;
}
// * * * * * * * * * * * * * * * * * * * * * * * * * * * * * * * * * * * * * //

dimensions      [0 2 -2 0 0 0 0];

internalField   nonuniform List<scalar> 
1152
(
6.29471
6.34856
6.35632
6.34244
6.25477
6.29104
6.32869
6.33078
6.24943
6.27801
6.31028
6.26861
6.20842
6.23936
6.2745
6.2839
5.57111
5.58934
5.64724
5.48401
5.57415
5.56837
5.61313
5.53205
5.58729
5.59171
5.5614
5.68446
5.50657
5.60455
5.60239
5.69053
4.49775
4.53816
4.57505
4.55678
4.51433
4.54079
4.54451
4.53928
4.57321
4.54426
4.51244
4.55018
4.5351
4.55374
4.51014
4.51681
3.39531
3.39109
3.39911
3.53049
3.47197
3.46074
3.42752
3.48733
3.36814
3.42802
3.48298
3.37977
3.42971
3.33409
3.35011
3.43584
2.15601
2.27637
2.37327
2.42907
2.29737
2.29964
2.40108
2.36785
2.18957
2.23667
2.24094
2.33423
2.13382
2.21311
2.27376
2.3067
1.26768
1.28239
1.3258
1.38092
1.39055
1.29034
1.33296
1.34026
1.18737
1.26773
1.35514
1.36194
1.22201
1.26568
1.36674
1.2909
1.01132
1.01256
1.01122
1.01689
1.02057
1.00612
1.01003
1.01233
1.00995
1.01331
1.01531
1.01348
1.01204
1.01103
1.0086
1.01007
1.00561
1.00557
1.00556
1.00565
1.00373
1.0054
1.00529
1.00541
1.00546
1.00565
1.00541
1.00537
1.00552
1.00546
1.00523
1.00519
1.00775
1.0079
1.00803
1.00849
1.00798
1.00778
1.00802
1.00836
1.00784
1.008
1.00823
1.00838
1.00768
1.00761
1.0077
1.00778
1.00606
1.00617
1.00624
1.00637
1.00614
1.0062
1.00629
1.00639
1.00623
1.0063
1.00637
1.00642
1.00622
1.00623
1.00626
1.00629
1.00572
1.00578
1.00583
1.0059
1.00579
1.00583
1.00589
1.00594
1.00585
1.00588
1.00592
1.00596
1.00587
1.00588
1.0059
1.00593
1.00528
1.00531
1.00535
1.00539
1.00533
1.00536
1.00539
1.00542
1.00536
1.00539
1.00542
1.00544
1.00538
1.0054
1.00542
1.00544
1.00484
1.00487
1.00489
1.00491
1.00488
1.0049
1.00492
1.00494
1.0049
1.00492
1.00494
1.00496
1.00492
1.00494
1.00495
1.00497
1.00442
1.00443
1.00444
1.00446
1.00444
1.00445
1.00447
1.00448
1.00446
1.00447
1.00448
1.00449
1.00448
1.00449
1.0045
1.00451
1.00399
1.004
1.00401
1.00402
1.00401
1.00402
1.00403
1.00403
1.00403
1.00403
1.00404
1.00405
1.00404
1.00405
1.00405
1.00406
1.00357
1.00358
1.00358
1.00359
1.00358
1.00359
1.0036
1.0036
1.0036
1.0036
1.00361
1.00361
1.00361
1.00361
1.00362
1.00362
1.00315
1.00315
1.00316
1.00316
1.00316
1.00316
1.00317
1.00317
1.00317
1.00317
1.00318
1.00318
1.00318
1.00318
1.00318
1.00319
1.00273
1.00273
1.00274
1.00274
1.00274
1.00274
1.00274
1.00274
1.00274
1.00275
1.00275
1.00275
1.00275
1.00275
1.00275
1.00276
1.00231
1.00231
1.00231
1.00232
1.00232
1.00232
1.00232
1.00232
1.00232
1.00232
1.00232
1.00232
1.00232
1.00233
1.00233
1.00233
1.00189
1.00189
1.00189
1.00189
1.00189
1.0019
1.0019
1.0019
1.0019
1.0019
1.0019
1.0019
1.0019
1.0019
1.0019
1.0019
1.00147
1.00147
1.00147
1.00147
1.00147
1.00147
1.00147
1.00148
1.00148
1.00148
1.00148
1.00148
1.00148
1.00148
1.00148
1.00148
1.00105
1.00105
1.00105
1.00105
1.00105
1.00105
1.00105
1.00105
1.00105
1.00105
1.00105
1.00106
1.00105
1.00106
1.00106
1.00106
1.00063
1.00063
1.00063
1.00063
1.00063
1.00063
1.00063
1.00063
1.00063
1.00063
1.00063
1.00063
1.00063
1.00063
1.00063
1.00063
1.00021
1.00021
1.00021
1.00021
1.00021
1.00021
1.00021
1.00021
1.00021
1.00021
1.00021
1.00021
1.00021
1.00021
1.00021
1.00021
6.17273
6.23792
6.23284
6.27944
6.17456
6.225
6.24775
6.26776
6.16591
6.17062
6.20326
6.24342
6.14283
6.18992
6.17975
6.24386
5.54161
5.53853
5.6666
5.41182
5.5061
5.51306
5.61637
5.43417
5.4874
5.50492
5.51237
5.58544
5.47883
5.45101
5.55249
5.57655
4.5591
4.49065
4.50594
4.44085
4.41907
4.35793
4.42404
4.43434
4.39992
4.42982
4.41073
4.4322
4.41737
4.43219
4.45764
4.33638
3.24064
3.35596
3.33296
3.50278
3.34623
3.34526
3.32402
3.48971
3.37353
3.30206
3.29823
3.2557
3.34977
3.24763
3.3563
3.23978
2.2205
2.25093
2.26842
2.33983
2.24719
2.32648
2.23271
2.11768
2.30416
2.28698
2.22277
2.16579
2.30156
2.26339
2.24074
2.04351
1.23026
1.22285
1.25985
1.19697
1.1923
1.21176
1.1583
1.17179
1.21088
1.22108
1.22438
1.05837
1.25556
1.18726
1.14745
1.10384
1.00953
1.00642
1.00913
1.01007
1.01193
1.00835
1.01033
1.00959
1.01015
1.01008
1.01098
1.00926
1.00961
1.01066
1.00841
1.00838
1.00543
1.00519
1.00505
1.0051
1.00552
1.00501
1.00495
1.00498
1.00555
1.00498
1.00481
1.00488
1.00563
1.00501
1.00456
1.00479
1.00754
1.00741
1.00762
1.00792
1.00746
1.00734
1.00748
1.00765
1.00729
1.00735
1.00735
1.00739
1.00722
1.00737
1.00715
1.00732
1.00619
1.00619
1.00623
1.0063
1.00618
1.00618
1.00619
1.00625
1.00616
1.00618
1.00615
1.00619
1.00614
1.00617
1.00608
1.00615
1.00587
1.00587
1.00589
1.00593
1.00587
1.00586
1.00586
1.00589
1.00586
1.00586
1.00584
1.00587
1.00586
1.00586
1.00582
1.00586
1.00539
1.0054
1.00542
1.00544
1.00539
1.0054
1.00541
1.00544
1.00538
1.0054
1.0054
1.00542
1.00538
1.0054
1.00539
1.00542
1.00493
1.00495
1.00496
1.00497
1.00493
1.00495
1.00496
1.00497
1.00493
1.00495
1.00496
1.00497
1.00493
1.00495
1.00495
1.00497
1.00448
1.0045
1.0045
1.00451
1.00449
1.0045
1.00451
1.00452
1.00449
1.0045
1.00451
1.00452
1.00449
1.0045
1.00451
1.00452
1.00405
1.00405
1.00406
1.00407
1.00405
1.00406
1.00406
1.00407
1.00405
1.00406
1.00407
1.00407
1.00405
1.00406
1.00407
1.00408
1.00361
1.00362
1.00362
1.00363
1.00361
1.00362
1.00363
1.00363
1.00361
1.00362
1.00363
1.00363
1.00361
1.00362
1.00363
1.00363
1.00318
1.00318
1.00319
1.00319
1.00318
1.00319
1.00319
1.00319
1.00318
1.00319
1.00319
1.0032
1.00318
1.00319
1.00319
1.0032
1.00275
1.00276
1.00276
1.00276
1.00275
1.00276
1.00276
1.00276
1.00275
1.00276
1.00276
1.00277
1.00275
1.00276
1.00276
1.00277
1.00233
1.00233
1.00233
1.00233
1.00233
1.00233
1.00233
1.00233
1.00233
1.00233
1.00233
1.00234
1.00233
1.00233
1.00233
1.00234
1.0019
1.0019
1.0019
1.00191
1.0019
1.0019
1.00191
1.00191
1.0019
1.00191
1.00191
1.00191
1.0019
1.00191
1.00191
1.00191
1.00148
1.00148
1.00148
1.00148
1.00148
1.00148
1.00148
1.00148
1.00148
1.00148
1.00148
1.00148
1.00148
1.00148
1.00148
1.00148
1.00106
1.00106
1.00106
1.00106
1.00106
1.00106
1.00106
1.00106
1.00106
1.00106
1.00106
1.00106
1.00106
1.00106
1.00106
1.00106
1.00063
1.00063
1.00063
1.00063
1.00063
1.00063
1.00063
1.00063
1.00063
1.00063
1.00063
1.00064
1.00063
1.00063
1.00063
1.00064
1.00021
1.00021
1.00021
1.00021
1.00021
1.00021
1.00021
1.00021
1.00021
1.00021
1.00021
1.00021
1.00021
1.00021
1.00021
1.00021
6.24249
6.20152
6.29397
6.27845
6.19184
6.19961
6.23717
6.24135
6.0952
6.14872
6.19472
6.19897
6.15873
6.17639
6.16557
6.18702
5.40717
5.35273
5.45672
5.51403
5.47272
5.45989
5.49975
5.60708
5.42256
5.52121
5.54016
5.59463
5.45483
5.43661
5.54717
5.54183
4.33291
4.35235
4.37058
4.42287
4.51487
4.39799
4.42475
4.51707
4.48727
4.41161
4.48003
4.46219
4.41541
4.43657
4.43774
4.50921
3.30284
3.44502
3.39092
3.38366
3.24814
3.37246
3.33318
3.32194
3.44215
3.30954
3.33262
3.28385
3.34031
3.38429
3.35046
3.3397
2.16582
2.07748
2.19163
2.17501
2.1399
2.18774
2.22414
2.21756
2.29931
2.24809
2.22427
2.23722
2.33632
2.32325
2.31275
2.25615
1.26573
1.13009
1.13529
1.13812
1.16601
1.1999
1.1757
1.21537
1.17948
1.24033
1.17839
1.22134
1.28936
1.2695
1.15514
1.13972
1.00623
0.993323
0.999599
0.997704
1.00031
1.00435
1.00805
1.01469
1.0133
1.01611
1.01628
1.01446
1.0064
1.00394
1.01661
1.01207
1.00447
1.0041
1.00404
1.0053
1.00565
1.00669
1.00583
1.00548
1.00665
1.00707
1.0065
1.00592
1.00597
1.00582
1.0062
1.00585
1.00695
1.00662
1.00649
1.00676
1.00737
1.00737
1.00736
1.00764
1.00771
1.00764
1.00779
1.00784
1.00718
1.00725
1.00758
1.00769
1.00566
1.00571
1.00572
1.00583
1.00595
1.00598
1.00601
1.00607
1.00621
1.00621
1.00622
1.00621
1.00614
1.00616
1.00619
1.00621
1.00553
1.00554
1.00557
1.00563
1.00571
1.0057
1.00572
1.00575
1.00581
1.0058
1.00581
1.00582
1.00585
1.00585
1.00586
1.00586
1.00517
1.00518
1.0052
1.00523
1.00527
1.00527
1.00528
1.0053
1.00532
1.00533
1.00533
1.00534
1.00536
1.00537
1.00537
1.00537
1.00478
1.00479
1.0048
1.00482
1.00484
1.00484
1.00485
1.00486
1.00488
1.00488
1.00489
1.00489
1.00491
1.00491
1.00491
1.00491
1.00438
1.00439
1.00439
1.0044
1.00442
1.00442
1.00442
1.00443
1.00445
1.00445
1.00445
1.00445
1.00447
1.00447
1.00447
1.00447
1.00397
1.00398
1.00398
1.00399
1.004
1.004
1.004
1.004
1.00402
1.00402
1.00402
1.00402
1.00403
1.00403
1.00403
1.00403
1.00356
1.00356
1.00356
1.00357
1.00358
1.00358
1.00358
1.00358
1.00359
1.00359
1.00359
1.00359
1.0036
1.0036
1.0036
1.0036
1.00314
1.00314
1.00315
1.00315
1.00315
1.00316
1.00316
1.00316
1.00316
1.00317
1.00317
1.00317
1.00317
1.00317
1.00317
1.00317
1.00273
1.00273
1.00273
1.00273
1.00273
1.00273
1.00273
1.00274
1.00274
1.00274
1.00274
1.00274
1.00275
1.00275
1.00275
1.00275
1.00231
1.00231
1.00231
1.00231
1.00231
1.00231
1.00231
1.00231
1.00232
1.00232
1.00232
1.00232
1.00232
1.00232
1.00232
1.00232
1.00189
1.00189
1.00189
1.00189
1.00189
1.00189
1.00189
1.00189
1.0019
1.0019
1.0019
1.0019
1.0019
1.0019
1.0019
1.0019
1.00147
1.00147
1.00147
1.00147
1.00147
1.00147
1.00147
1.00147
1.00147
1.00147
1.00147
1.00147
1.00148
1.00148
1.00148
1.00148
1.00105
1.00105
1.00105
1.00105
1.00105
1.00105
1.00105
1.00105
1.00105
1.00105
1.00105
1.00105
1.00105
1.00105
1.00105
1.00105
1.00063
1.00063
1.00063
1.00063
1.00063
1.00063
1.00063
1.00063
1.00063
1.00063
1.00063
1.00063
1.00063
1.00063
1.00063
1.00063
1.00021
1.00021
1.00021
1.00021
1.00021
1.00021
1.00021
1.00021
1.00021
1.00021
1.00021
1.00021
1.00021
1.00021
1.00021
1.00021
)
;

boundaryField
{
    inlet
    {
        type            zeroGradient;
    }
    outlet
    {
        type            fixedValue;
        value           uniform 1;
    }
    wall
    {
        type            zeroGradient;
    }
    procBoundary2to0
    {
        type            processor;
        value           nonuniform List<scalar> 
192
(
6.30041
6.28853
6.31863
6.36323
5.62497
5.70891
5.72505
5.76468
4.55097
4.48201
4.52249
4.37853
3.22165
3.43298
3.42773
3.43302
2.16131
2.30931
2.352
2.42493
1.20744
1.26438
1.33074
1.3119
1.01299
1.0092
1.00587
1.00711
1.00499
1.00506
1.00489
1.0047
1.00756
1.00761
1.00766
1.0082
1.00596
1.00603
1.00608
1.0062
1.00565
1.0057
1.00575
1.00582
1.00522
1.00526
1.00529
1.00533
1.00481
1.00483
1.00485
1.00487
1.00439
1.0044
1.00442
1.00443
1.00397
1.00398
1.00399
1.004
1.00356
1.00356
1.00357
1.00357
1.00314
1.00314
1.00315
1.00315
1.00272
1.00273
1.00273
1.00273
1.00231
1.00231
1.00231
1.00231
1.00189
1.00189
1.00189
1.00189
1.00147
1.00147
1.00147
1.00147
1.00105
1.00105
1.00105
1.00105
1.00063
1.00063
1.00063
1.00063
1.00021
1.00021
1.00021
1.00021
6.33126
6.29032
6.27049
6.27515
5.48981
5.53418
5.6275
5.58548
4.25759
4.46633
4.49396
4.46621
3.23339
3.22135
3.21302
3.36074
2.21336
2.11862
2.10664
2.11619
1.20133
1.19196
1.10316
1.20982
1.01001
1.00635
1.00914
1.01004
1.00355
1.00295
1.0042
1.00393
1.00616
1.00622
1.00656
1.00693
1.00542
1.0055
1.00561
1.00573
1.00543
1.00545
1.00549
1.00556
1.00511
1.00512
1.00514
1.00518
1.00474
1.00475
1.00476
1.00478
1.00435
1.00436
1.00436
1.00438
1.00395
1.00395
1.00396
1.00397
1.00354
1.00355
1.00355
1.00355
1.00313
1.00313
1.00314
1.00314
1.00272
1.00272
1.00272
1.00272
1.0023
1.0023
1.0023
1.0023
1.00188
1.00188
1.00189
1.00189
1.00147
1.00147
1.00147
1.00147
1.00105
1.00105
1.00105
1.00105
1.00063
1.00063
1.00063
1.00063
1.00021
1.00021
1.00021
1.00021
)
;
    }
    procBoundary2to3
    {
        type            processor;
        value           nonuniform List<scalar> 
192
(
6.25432
6.2735
6.33033
6.28703
5.67877
5.80244
5.56746
5.58147
4.75089
4.53118
4.48874
4.50963
3.51161
3.3868
3.39074
3.37514
2.25088
2.25223
2.33716
2.24277
1.37795
1.35482
1.35747
1.39021
1.03173
1.01004
1.01203
0.996819
1.00472
1.00517
1.00522
1.00527
1.009
1.00866
1.00844
1.00773
1.00644
1.00646
1.00643
1.00627
1.00595
1.00598
1.00598
1.00595
1.00541
1.00544
1.00546
1.00545
1.00492
1.00495
1.00497
1.00497
1.00446
1.00449
1.0045
1.00451
1.00402
1.00404
1.00405
1.00406
1.00359
1.0036
1.00361
1.00362
1.00316
1.00317
1.00318
1.00319
1.00274
1.00275
1.00275
1.00276
1.00232
1.00232
1.00233
1.00233
1.00189
1.0019
1.0019
1.0019
1.00147
1.00148
1.00148
1.00148
1.00105
1.00105
1.00106
1.00106
1.00063
1.00063
1.00063
1.00063
1.00021
1.00021
1.00021
1.00021
6.25857
6.27245
6.22455
6.25099
5.62403
5.56206
5.59211
5.5115
4.54615
4.52321
4.44235
4.63633
3.30363
3.20942
3.31029
3.323
2.15418
2.21641
2.19509
2.14116
1.37993
1.26809
1.15976
1.11621
1.00702
1.00621
1.00877
1.00749
1.00623
1.00521
1.00476
1.00455
1.00851
1.0078
1.00744
1.00721
1.00638
1.00625
1.00617
1.00609
1.00596
1.00591
1.00586
1.00584
1.00546
1.00544
1.00543
1.00542
1.00498
1.00498
1.00497
1.00497
1.00452
1.00452
1.00452
1.00452
1.00407
1.00407
1.00408
1.00408
1.00363
1.00363
1.00364
1.00364
1.00319
1.0032
1.0032
1.0032
1.00276
1.00276
1.00277
1.00277
1.00233
1.00234
1.00234
1.00234
1.00191
1.00191
1.00191
1.00191
1.00148
1.00148
1.00148
1.00148
1.00106
1.00106
1.00106
1.00106
1.00063
1.00064
1.00064
1.00064
1.00021
1.00021
1.00021
1.00021
)
;
    }
}


// ************************************************************************* //
