/*--------------------------------*- C++ -*----------------------------------*\
| =========                 |                                                 |
| \\      /  F ield         | OpenFOAM: The Open Source CFD Toolbox           |
|  \\    /   O peration     | Version:  2506                                  |
|   \\  /    A nd           | Website:  www.openfoam.com                      |
|    \\/     M anipulation  |                                                 |
\*---------------------------------------------------------------------------*/
FoamFile
{
    version     2.0;
    format      ascii;
    arch        "LSB;label=32;scalar=64";
    class       volScalarField;
    location    "0.01";
    object      voidfraction;
}
// * * * * * * * * * * * * * * * * * * * * * * * * * * * * * * * * * * * * * //

dimensions      [0 0 0 0 0 0 0];

internalField   nonuniform List<scalar> 
1152
(
0.420663
0.381163
0.407496
0.360096
0.47333
0.43383
0.420663
0.346929
0.428563
0.43383
0.423296
0.525997
0.452263
0.44963
0.43383
0.460163
0.43383
0.365363
0.407496
0.310062
0.396963
0.41013
0.423296
0.407496
0.412763
0.404863
0.354829
0.446997
0.412763
0.439097
0.391696
0.373263
0.396963
0.404863
0.399596
0.491764
0.46543
0.452263
0.339029
0.439097
0.375896
0.41803
0.452263
0.367996
0.470697
0.370629
0.415396
0.352196
0.41803
0.362729
0.383796
0.404863
0.412763
0.378529
0.41803
0.41803
0.325862
0.373263
0.391696
0.42593
0.365363
0.383796
0.389063
0.331129
0.352196
0.404863
0.439097
0.436463
0.399596
0.420663
0.383796
0.373263
0.365363
0.389063
0.383796
0.43383
0.428563
0.415396
0.44963
0.328496
0.45753
0.39433
0.381163
0.349563
0.373263
0.404863
0.344296
0.412763
0.40223
0.420663
0.468063
0.420663
0.510197
0.439097
0.40223
0.333763
0.647131
0.618164
0.599731
0.604998
0.707698
0.612898
0.565497
0.597097
0.702431
0.649764
0.570764
0.604998
0.720865
0.644498
0.52073
0.602364
1
1
1
1
1
1
1
1
1
1
1
1
1
1
1
1
1
1
1
1
1
1
1
1
1
1
1
1
1
1
1
1
1
1
1
1
1
1
1
1
1
1
1
1
1
1
1
1
1
1
1
1
1
1
1
1
1
1
1
1
1
1
1
1
1
1
1
1
1
1
1
1
1
1
1
1
1
1
1
1
1
1
1
1
1
1
1
1
1
1
1
1
1
1
1
1
1
1
1
1
1
1
1
1
1
1
1
1
1
1
1
1
1
1
1
1
1
1
1
1
1
1
1
1
1
1
1
1
1
1
1
1
1
1
1
1
1
1
1
1
1
1
1
1
1
1
1
1
1
1
1
1
1
1
1
1
1
1
1
1
1
1
1
1
1
1
1
1
1
1
1
1
1
1
1
1
1
1
1
1
1
1
1
1
1
1
1
1
1
1
1
1
1
1
1
1
1
1
1
1
1
1
1
1
1
1
1
1
1
1
1
1
1
1
1
1
1
1
1
1
1
1
1
1
1
1
1
1
1
1
1
1
1
1
1
1
1
1
1
1
1
1
1
1
1
1
1
1
1
1
1
1
1
1
1
1
1
1
1
1
1
1
1
1
1
1
1
1
1
1
1
1
0.496182
0.422277
0.537121
0.408616
0.445107
0.418323
0.449189
0.427367
0.427599
0.464045
0.446051
0.457994
0.492813
0.436883
0.487363
0.450572
0.478658
0.422277
0.409896
0.355993
0.44148
0.351846
0.363718
0.356617
0.393565
0.461609
0.427022
0.400629
0.449648
0.417315
0.434003
0.395092
0.360371
0.415858
0.399069
0.488804
0.401586
0.415554
0.366092
0.489274
0.427599
0.388525
0.443936
0.376891
0.430763
0.441231
0.420663
0.389723
0.377895
0.383763
0.369293
0.451216
0.455987
0.468181
0.396957
0.391992
0.424505
0.449429
0.446051
0.398651
0.44695
0.397747
0.405417
0.445203
0.48742
0.39981
0.439672
0.37604
0.347184
0.376775
0.380338
0.374305
0.347154
0.422631
0.462965
0.422388
0.438857
0.484715
0.376832
0.40762
0.377895
0.374134
0.369293
0.393581
0.434226
0.396164
0.401705
0.464953
0.396659
0.422631
0.458737
0.321504
0.436159
0.397747
0.390172
0.493524
0.693328
0.646947
0.65081
0.714332
0.713486
0.656534
0.726969
0.725844
0.659654
0.688172
0.674396
0.796253
0.657379
0.745619
0.71986
0.833561
1
1
1
1
1
1
1
1
1
1
1
1
1
1
1
1
1
1
1
1
1
1
1
1
1
1
1
1
1
1
1
1
1
1
1
1
1
1
1
1
1
1
1
1
1
1
1
1
1
1
1
1
1
1
1
1
1
1
1
1
1
1
1
1
1
1
1
1
1
1
1
1
1
1
1
1
1
1
1
1
1
1
1
1
1
1
1
1
1
1
1
1
1
1
1
1
1
1
1
1
1
1
1
1
1
1
1
1
1
1
1
1
1
1
1
1
1
1
1
1
1
1
1
1
1
1
1
1
1
1
1
1
1
1
1
1
1
1
1
1
1
1
1
1
1
1
1
1
1
1
1
1
1
1
1
1
1
1
1
1
1
1
1
1
1
1
1
1
1
1
1
1
1
1
1
1
1
1
1
1
1
1
1
1
1
1
1
1
1
1
1
1
1
1
1
1
1
1
1
1
1
1
1
1
1
1
1
1
1
1
1
1
1
1
1
1
1
1
1
1
1
1
1
1
1
1
1
1
1
1
1
1
1
1
1
1
1
1
1
1
1
1
1
1
1
1
1
1
1
1
1
1
1
1
1
1
1
1
1
1
1
1
1
1
1
1
1
1
1
1
1
1
0.441623
0.461951
0.372094
0.453722
0.437815
0.435479
0.401705
0.472155
0.484715
0.464045
0.437713
0.512145
0.441554
0.381189
0.506762
0.421705
0.366457
0.406563
0.327875
0.361005
0.454966
0.397422
0.411202
0.418017
0.499934
0.390961
0.401704
0.460792
0.436159
0.433788
0.405212
0.434848
0.446992
0.525251
0.425157
0.46124
0.352057
0.450279
0.418325
0.339517
0.484715
0.383652
0.390625
0.316362
0.406483
0.446164
0.408839
0.377895
0.411199
0.461951
0.40968
0.426158
0.384455
0.431251
0.418325
0.363879
0.44558
0.437248
0.337997
0.467211
0.449648
0.418317
0.4306
0.395419
0.443413
0.386782
0.367672
0.433675
0.418757
0.40165
0.423073
0.390948
0.395573
0.461609
0.396164
0.447954
0.444252
0.396659
0.416093
0.395419
0.439834
0.507447
0.387571
0.438687
0.437815
0.441822
0.408828
0.396362
0.412967
0.454301
0.390625
0.447954
0.414576
0.375
0.350811
0.35599
0.754815
0.865488
0.796594
0.794519
0.738917
0.653253
0.717472
0.656224
0.734748
0.690608
0.717471
0.669414
0.635796
0.600867
0.717113
0.74152
1
1
1
1
1
1
1
1
1
1
1
1
1
1
1
1
1
1
1
1
1
1
1
1
1
1
1
1
1
1
1
1
1
1
1
1
1
1
1
1
1
1
1
1
1
1
1
1
1
1
1
1
1
1
1
1
1
1
1
1
1
1
1
1
1
1
1
1
1
1
1
1
1
1
1
1
1
1
1
1
1
1
1
1
1
1
1
1
1
1
1
1
1
1
1
1
1
1
1
1
1
1
1
1
1
1
1
1
1
1
1
1
1
1
1
1
1
1
1
1
1
1
1
1
1
1
1
1
1
1
1
1
1
1
1
1
1
1
1
1
1
1
1
1
1
1
1
1
1
1
1
1
1
1
1
1
1
1
1
1
1
1
1
1
1
1
1
1
1
1
1
1
1
1
1
1
1
1
1
1
1
1
1
1
1
1
1
1
1
1
1
1
1
1
1
1
1
1
1
1
1
1
1
1
1
1
1
1
1
1
1
1
1
1
1
1
1
1
1
1
1
1
1
1
1
1
1
1
1
1
1
1
1
1
1
1
1
1
1
1
1
1
1
1
1
1
1
1
1
1
1
1
1
1
1
1
1
1
1
1
1
1
1
1
1
1
1
1
1
1
1
1
)
;

boundaryField
{
    inlet
    {
        type            fixedValue;
        value           uniform 1;
    }
    outlet
    {
        type            fixedValue;
        value           uniform 1;
    }
    wall
    {
        type            zeroGradient;
    }
    procBoundary2to0
    {
        type            processor;
        value           nonuniform List<scalar> 
192
(
0.41013
0.541797
0.47333
0.42593
0.42593
0.38643
0.41013
0.357463
0.367996
0.460163
0.354829
0.370629
0.367996
0.46543
0.431196
0.51283
0.47333
0.352196
0.344296
0.357463
0.444363
0.415396
0.412763
0.428563
0.749832
0.615531
0.547064
0.602364
1
1
1
1
1
1
1
1
1
1
1
1
1
1
1
1
1
1
1
1
1
1
1
1
1
1
1
1
1
1
1
1
1
1
1
1
1
1
1
1
1
1
1
1
1
1
1
1
1
1
1
1
1
1
1
1
1
1
1
1
1
1
1
1
1
1
1
1
0.416568
0.410519
0.471586
0.466251
0.378985
0.422388
0.420735
0.408616
0.393302
0.376891
0.33893
0.446204
0.455941
0.359088
0.367672
0.411122
0.411199
0.398651
0.420735
0.391075
0.420147
0.414476
0.436211
0.456228
0.685018
0.752735
0.816492
0.764449
1
1
1
1
1
1
1
1
1
1
1
1
1
1
1
1
1
1
1
1
1
1
1
1
1
1
1
1
1
1
1
1
1
1
1
1
1
1
1
1
1
1
1
1
1
1
1
1
1
1
1
1
1
1
1
1
1
1
1
1
1
1
1
1
1
1
1
1
)
;
    }
    procBoundary2to3
    {
        type            processor;
        value           nonuniform List<scalar> 
192
(
0.562864
0.560231
0.352196
0.436463
0.510197
0.399596
0.333763
0.439097
0.412763
0.312696
0.41013
0.40223
0.288996
0.396963
0.391696
0.431196
0.296896
0.391696
0.412763
0.41013
0.48913
0.48123
0.362729
0.48123
0.507564
0.594464
0.589197
0.47333
1
1
1
1
1
1
1
1
1
1
1
1
1
1
1
1
1
1
1
1
1
1
1
1
1
1
1
1
1
1
1
1
1
1
1
1
1
1
1
1
1
1
1
1
1
1
1
1
1
1
1
1
1
1
1
1
1
1
1
1
1
1
1
1
1
1
1
1
0.463745
0.391992
0.497557
0.380775
0.428663
0.438422
0.426344
0.484575
0.358499
0.352196
0.380848
0.373616
0.363511
0.391992
0.444148
0.402251
0.421146
0.458321
0.331395
0.361088
0.513863
0.376516
0.432279
0.425516
0.53391
0.652883
0.727019
0.78345
1
1
1
1
1
1
1
1
1
1
1
1
1
1
1
1
1
1
1
1
1
1
1
1
1
1
1
1
1
1
1
1
1
1
1
1
1
1
1
1
1
1
1
1
1
1
1
1
1
1
1
1
1
1
1
1
1
1
1
1
1
1
1
1
1
1
1
1
)
;
    }
}


// ************************************************************************* //
