/*--------------------------------*- C++ -*----------------------------------*\
| =========                 |                                                 |
| \\      /  F ield         | OpenFOAM: The Open Source CFD Toolbox           |
|  \\    /   O peration     | Version:  2506                                  |
|   \\  /    A nd           | Website:  www.openfoam.com                      |
|    \\/     M anipulation  |                                                 |
\*---------------------------------------------------------------------------*/
FoamFile
{
    version     2.0;
    format      ascii;
    arch        "LSB;label=32;scalar=64";
    class       surfaceScalarField;
    location    "0.09";
    object      phi;
}
// * * * * * * * * * * * * * * * * * * * * * * * * * * * * * * * * * * * * * //

dimensions      [0 3 -1 0 0 0 0];

oriented        oriented;

internalField   nonuniform List<scalar> 
3120
(
8.88965e-09
-3.61369e-09
5.89051e-08
-1.09372e-08
-5.97389e-09
-9.18559e-09
8.50011e-08
4.54302e-09
-6.92355e-09
4.99511e-08
-1.52014e-09
5.78032e-08
1.10866e-08
-7.74694e-09
5.68561e-08
-9.84068e-09
-5.07498e-09
-1.20584e-08
7.31804e-08
1.58548e-10
-8.21577e-09
5.0575e-08
-1.08464e-08
6.16179e-08
-1.27063e-10
-8.73319e-10
4.46892e-08
2.24269e-09
-2.21775e-09
7.81675e-10
4.1798e-08
1.35582e-08
-3.45686e-09
3.2624e-08
-2.46719e-08
8.16517e-08
-1.76249e-09
7.17062e-08
-1.01812e-08
-5.45693e-09
-7.51919e-09
5.7906e-08
-5.6144e-09
-9.25935e-10
4.51945e-08
-1.69078e-09
4.08257e-08
-7.4491e-09
1.08421e-07
-1.88153e-08
1.69723e-08
-2.12647e-08
-9.70088e-08
-1.27156e-07
5.29681e-07
-1.40034e-08
-2.17286e-08
1.13567e-08
-5.34556e-08
2.84872e-07
1.98224e-08
-1.10966e-08
4.06121e-08
-1.12972e-08
-2.24639e-08
-3.52648e-08
2.35755e-08
-3.48988e-09
-1.27747e-08
2.26472e-08
-2.7807e-08
2.48912e-08
6.75998e-09
-3.98844e-09
3.49619e-08
-4.14079e-09
-3.73588e-09
-1.15194e-08
2.85485e-08
-8.1355e-09
-8.43845e-09
3.26873e-08
-4.73175e-09
4.57851e-08
-1.95198e-09
7.93906e-08
-1.06597e-08
9.38819e-10
-7.89768e-09
6.04312e-08
-8.09893e-09
-1.46191e-09
3.95515e-08
-9.23118e-09
3.5273e-08
1.1424e-09
-4.27305e-08
8.7471e-09
2.58697e-08
1.82302e-08
-2.47417e-08
-5.84652e-09
5.45647e-07
-4.82445e-08
1.4676e-09
2.7891e-08
4.83614e-08
9.50367e-08
4.25197e-10
-2.5299e-10
5.08569e-08
-1.66986e-09
-2.89186e-09
7.6527e-10
2.02807e-08
-6.70451e-09
9.50712e-09
1.84203e-08
2.09374e-08
4.79617e-08
2.71989e-11
5.60304e-09
2.5212e-08
3.86672e-09
2.153e-09
-3.08963e-09
3.02776e-08
6.79862e-10
5.16647e-09
3.85011e-08
1.44368e-08
4.92899e-08
-4.7249e-09
6.57658e-08
8.55246e-09
1.54002e-08
3.14499e-09
4.89088e-08
5.62888e-10
1.15033e-08
3.90887e-08
-2.72913e-09
8.90833e-08
-1.8022e-08
-1.03425e-07
1.69312e-08
4.63123e-08
4.6151e-08
6.54714e-08
1.27693e-07
1.23017e-07
9.14155e-09
5.22778e-09
6.11619e-08
7.70071e-09
8.91931e-08
-2.561e-08
1.66246e-08
6.14228e-08
1.53506e-08
1.62481e-08
3.33503e-08
7.27652e-08
-2.28835e-09
6.34385e-09
3.58408e-08
2.77994e-08
5.15157e-08
-3.64941e-09
7.68536e-09
3.05292e-08
7.27146e-09
-1.07136e-10
1.58326e-08
4.42531e-08
-3.95189e-10
1.45443e-08
3.05887e-08
-5.29396e-09
7.95651e-08
-4.07177e-09
5.88577e-08
1.70762e-08
1.58902e-09
7.6635e-10
4.86725e-08
1.12307e-08
-1.07132e-08
5.56058e-08
9.50674e-09
8.08781e-08
-6.48957e-09
-1.57762e-08
4.96088e-09
3.29077e-08
6.33979e-09
1.0173e-08
1.5998e-08
6.18837e-08
5.80545e-09
8.79608e-09
5.65315e-08
3.58977e-09
7.88855e-08
-1.13439e-08
1.26101e-08
6.04029e-08
4.71464e-09
2.85876e-09
1.87437e-08
5.58168e-08
-1.83983e-10
1.12095e-08
3.64701e-08
4.62134e-09
4.31766e-08
-6.59549e-09
2.78879e-08
3.38637e-08
-1.20169e-08
1.71406e-09
1.39094e-08
4.07778e-08
-1.53243e-08
1.90394e-09
5.69326e-08
-5.57518e-09
6.3849e-08
-2.37479e-08
5.83994e-08
7.71316e-08
-2.50375e-08
-1.40691e-08
4.27064e-08
1.01967e-08
-2.08237e-08
4.59132e-08
1.83512e-08
2.16761e-08
1.37642e-08
-5.45725e-09
3.5169e-09
3.26681e-08
7.23214e-09
-6.29941e-10
2.40206e-09
5.23774e-08
-2.49516e-10
-4.55561e-10
6.00901e-08
-1.7385e-09
1.10146e-07
-9.27901e-09
8.69909e-09
5.96597e-08
4.84005e-09
-1.87437e-09
6.61672e-09
4.41975e-08
-2.78362e-10
3.50136e-09
3.09172e-08
3.7566e-09
3.75201e-08
-6.14775e-09
2.56875e-08
2.71883e-08
-4.16518e-09
-9.74676e-09
9.64163e-09
4.13518e-08
8.35542e-10
8.93609e-09
4.09155e-08
1.78909e-08
4.48675e-08
-2.63844e-08
-1.86988e-08
1.4937e-07
-2.01989e-08
-8.25771e-09
2.9198e-08
5.02322e-09
1.02877e-08
3.15539e-08
4.74984e-09
6.73585e-08
-2.09952e-10
-1.60836e-09
7.75236e-10
4.59553e-08
-4.69076e-09
-4.09334e-10
2.27291e-09
4.92451e-08
-3.59128e-09
3.93883e-09
5.63565e-08
7.02714e-09
9.12873e-08
1.24783e-09
2.2598e-09
5.28272e-08
4.09985e-09
1.56738e-09
1.94716e-09
4.42038e-08
5.94296e-10
5.72252e-10
3.52569e-08
9.9642e-10
4.37534e-08
-6.16957e-11
-2.22994e-08
5.24464e-08
-6.37277e-10
1.698e-10
1.97926e-10
4.28693e-08
-3.21351e-10
6.07154e-10
4.13717e-08
4.10556e-10
4.29914e-08
1.59254e-08
1.00919e-07
-1.77702e-07
1.98585e-08
2.08e-09
4.92704e-08
-6.02883e-09
-1.26975e-09
3.57297e-08
-2.18925e-10
4.95785e-08
8.94801e-09
4.05954e-09
4.35371e-09
3.7258e-08
-7.51531e-12
6.49376e-09
4.71008e-09
4.50507e-08
6.73471e-09
4.07146e-09
5.70759e-08
6.48193e-09
9.57137e-08
3.49582e-09
3.0328e-09
4.99053e-08
7.47211e-10
5.56109e-09
4.50128e-09
4.23476e-08
7.45808e-09
3.69775e-09
3.37337e-08
4.13237e-09
4.77352e-08
3.84701e-09
-1.88819e-09
5.05927e-08
2.92807e-09
4.38007e-09
4.34534e-09
4.24926e-08
7.67266e-09
6.86558e-09
3.49114e-08
4.22814e-09
4.432e-08
8.02459e-09
8.94758e-08
-4.53918e-09
6.06866e-09
6.37329e-09
5.18161e-08
3.45163e-09
4.80999e-09
3.78896e-08
6.26881e-09
4.88009e-08
5.33673e-09
1.87936e-09
-1.02638e-09
4.89821e-08
-6.65451e-09
-2.85445e-09
1.46607e-09
5.00928e-08
-6.34058e-09
3.84265e-09
5.47498e-08
9.80367e-09
7.03826e-08
6.18352e-09
-6.97681e-09
5.16365e-08
-1.96392e-09
4.82671e-09
-3.12281e-09
4.82929e-08
-2.75482e-09
-6.87436e-10
4.58452e-08
2.8581e-09
5.27036e-08
7.92426e-09
-1.48685e-08
5.41858e-08
-3.62548e-09
6.00349e-09
-7.99545e-09
4.92854e-08
7.90747e-10
-6.15399e-09
4.55905e-08
-4.51223e-09
4.87511e-08
1.26889e-08
6.61243e-08
-6.74489e-09
2.54039e-09
8.5104e-09
5.36269e-08
-5.62851e-09
2.22844e-10
4.69268e-08
-6.9036e-09
4.89666e-08
-5.92826e-09
1.75906e-09
1.33369e-11
5.30394e-08
-3.72973e-09
-9.37604e-10
1.13198e-09
5.27906e-08
-2.50949e-09
2.19984e-09
5.41602e-08
4.86145e-09
5.96045e-08
3.20438e-09
-2.65928e-09
5.30798e-08
-1.97531e-09
2.12386e-09
-1.14965e-09
5.16548e-08
-9.44165e-10
2.05765e-10
5.09074e-08
2.46707e-09
5.376e-08
4.03212e-09
-4.89457e-09
5.45487e-08
-2.16024e-09
3.23322e-09
-3.29123e-09
5.22255e-08
9.79927e-10
-2.6007e-09
5.06502e-08
-1.58475e-09
5.17891e-08
4.73935e-09
5.79786e-08
-2.04737e-09
5.58213e-10
4.06334e-09
5.39606e-08
-2.94935e-09
1.12615e-09
5.14251e-08
-4.16178e-09
5.20337e-08
-4.58912e-09
1.52553e-09
-2.23986e-10
5.43815e-08
-2.15632e-09
4.47597e-10
1.84427e-10
5.4097e-08
-2.78941e-10
5.86176e-10
5.43829e-08
1.51863e-09
5.61576e-08
1.98685e-09
-1.72696e-09
5.4154e-08
-1.55822e-09
1.3867e-09
-1.06471e-09
5.35041e-08
1.84605e-10
-4.79312e-10
5.31751e-08
5.86385e-10
5.42525e-08
2.43189e-09
-2.61677e-09
5.47895e-08
-1.78299e-09
1.94607e-09
-2.14646e-09
5.3793e-08
8.42237e-10
-1.84742e-09
5.31221e-08
-1.39793e-09
5.35043e-08
2.5977e-09
5.58149e-08
-2.09801e-09
-9.52864e-10
2.24384e-09
5.4491e-08
-2.32291e-09
9.71583e-10
5.35494e-08
-2.69951e-09
5.36959e-08
-3.03048e-09
1.10845e-09
-1.46814e-10
5.48162e-08
-1.30785e-09
6.82218e-10
2.63724e-12
5.46501e-08
3.09636e-10
1.44384e-10
5.4666e-08
4.1392e-10
5.51859e-08
1.17634e-09
-7.99067e-10
5.46347e-08
-1.0048e-09
9.17152e-10
-6.11618e-10
5.43775e-08
4.31756e-10
-4.22624e-10
5.42276e-08
-2.66565e-11
5.45513e-08
1.32589e-09
-1.12597e-09
5.48675e-08
-1.07695e-09
1.12966e-09
-1.11847e-09
5.44961e-08
6.86216e-10
-1.08035e-09
5.42233e-08
-9.32527e-10
5.43225e-08
1.2007e-09
5.5148e-08
-1.06782e-09
-5.91876e-10
1.13649e-09
5.47447e-08
-1.30793e-09
7.24016e-10
5.44212e-08
-1.53972e-09
5.44424e-08
-1.74832e-09
7.50761e-10
-1.17313e-10
5.49692e-08
-7.99796e-10
5.98587e-10
-6.96755e-11
5.49003e-08
4.2293e-10
-1.66121e-11
5.48667e-08
7.21357e-11
5.49941e-08
7.40333e-10
-4.39556e-10
5.48598e-08
-6.43212e-10
6.52109e-10
-3.81242e-10
5.47773e-08
4.66514e-10
-3.10037e-10
5.47067e-08
-1.80753e-10
5.47799e-08
8.00392e-10
-6.04532e-10
5.49236e-08
-6.91492e-10
7.3058e-10
-6.26702e-10
5.48114e-08
5.65014e-10
-6.24718e-10
5.47036e-08
-5.77247e-10
5.47054e-08
7.20212e-10
5.4963e-08
-6.56752e-10
-4.82972e-10
7.1042e-10
5.48755e-08
-7.47689e-10
5.80131e-10
5.47715e-08
-8.44778e-10
5.47561e-08
-9.36623e-10
4.9786e-10
-8.46371e-11
5.50108e-08
-4.97755e-10
4.50145e-10
-7.43857e-11
5.50037e-08
3.78271e-10
-5.39992e-11
5.49834e-08
-1.63933e-11
5.49989e-08
4.78276e-10
-2.3819e-10
5.49473e-08
-4.12279e-10
4.61125e-10
-2.26648e-10
5.49468e-08
3.95949e-10
-2.038e-10
5.49217e-08
-1.57173e-10
5.49242e-08
4.97154e-10
-3.14875e-10
5.49358e-08
-4.32608e-10
4.89599e-10
-3.4224e-10
5.49345e-08
4.36945e-10
-3.51218e-10
5.49037e-08
-3.37922e-10
5.48866e-08
4.45417e-10
5.48787e-08
-3.47995e-10
-3.27957e-10
4.68239e-10
5.49114e-08
-4.00941e-10
4.41397e-10
5.48961e-08
-4.491e-10
5.48801e-08
-4.91151e-10
3.33617e-10
-6.00431e-11
5.50167e-08
-3.18664e-10
3.25065e-10
-6.07509e-11
5.50469e-08
2.99339e-10
-5.29837e-11
5.50457e-08
-3.70368e-11
5.50382e-08
3.20132e-10
-1.32895e-10
5.49724e-08
-2.72278e-10
3.27307e-10
-1.33825e-10
5.50128e-08
3.08774e-10
-1.27366e-10
5.50147e-08
-1.1038e-10
5.50052e-08
3.2384e-10
-1.67938e-10
5.49254e-08
-2.78391e-10
3.35958e-10
-1.87481e-10
5.49761e-08
3.25564e-10
-1.96495e-10
5.49832e-08
-1.93612e-10
5.49705e-08
2.95019e-10
5.48263e-08
-1.81754e-10
-2.28714e-10
3.212e-10
5.49089e-08
-2.11218e-10
3.2594e-10
5.49336e-08
-2.38711e-10
5.49267e-08
-2.59098e-10
2.26824e-10
-4.19602e-11
5.50095e-08
-2.08823e-10
2.31498e-10
-4.44383e-11
5.50624e-08
2.23974e-10
-4.12201e-11
5.50771e-08
-3.4025e-11
5.50701e-08
2.19679e-10
-7.5093e-11
5.49717e-08
-1.85711e-10
2.32608e-10
-7.88152e-11
5.50344e-08
2.30303e-10
-7.78494e-11
5.50538e-08
-7.14404e-11
5.50475e-08
2.18278e-10
-9.00604e-11
5.49071e-08
-1.84873e-10
2.34442e-10
-1.02853e-10
5.49841e-08
2.37275e-10
-1.0987e-10
5.50125e-08
-1.10417e-10
5.50087e-08
2.02129e-10
5.47871e-08
-9.23786e-11
-1.60524e-10
2.24921e-10
5.48936e-08
-1.10362e-10
2.36197e-10
5.49394e-08
-1.26927e-10
5.49429e-08
-1.3844e-10
1.5652e-10
-2.89798e-11
5.49983e-08
-1.39862e-10
1.64722e-10
-3.09821e-11
5.50653e-08
1.64633e-10
-2.96043e-11
5.50912e-08
-2.51823e-11
5.50901e-08
1.53116e-10
-4.29156e-11
5.4962e-08
-1.29425e-10
1.65447e-10
-4.66094e-11
5.50378e-08
1.68255e-10
-4.73171e-11
5.50689e-08
-4.48097e-11
5.50696e-08
1.50536e-10
-4.84345e-11
5.48882e-08
-1.2599e-10
1.65175e-10
-5.66629e-11
5.49796e-08
1.71231e-10
-6.17637e-11
5.5021e-08
-6.33002e-11
5.50259e-08
1.41322e-10
5.47571e-08
-4.57403e-11
-1.13939e-10
1.58948e-10
5.48766e-08
-5.71705e-11
1.69642e-10
5.49348e-08
-6.78607e-11
5.49475e-08
-7.5145e-11
1.09229e-10
-1.97117e-11
5.4987e-08
-9.56163e-11
1.17335e-10
-2.10777e-11
5.50627e-08
1.19538e-10
-2.02517e-11
5.50964e-08
-1.79957e-11
5.51012e-08
1.07511e-10
-2.48726e-11
5.49505e-08
-9.0761e-11
1.17686e-10
-2.77979e-11
5.50345e-08
1.21731e-10
-2.88312e-11
5.50735e-08
-2.80561e-11
5.50804e-08
1.05166e-10
-2.60567e-11
5.48717e-08
-8.73722e-11
1.16867e-10
-3.13971e-11
5.49717e-08
1.22789e-10
-3.50774e-11
5.50215e-08
-3.6764e-11
5.50333e-08
9.96495e-11
5.47346e-08
-2.18303e-11
-8.1236e-11
1.12654e-10
5.48619e-08
-2.93781e-11
1.2103e-10
5.49281e-08
-3.65531e-11
5.49479e-08
-4.15493e-11
7.65881e-11
-1.33661e-11
5.49771e-08
-6.61131e-11
8.32859e-11
-1.41068e-11
5.50584e-08
8.60053e-11
-1.38364e-11
5.50975e-08
-1.26286e-11
5.51069e-08
7.55684e-11
-1.46826e-11
5.494e-08
-6.37073e-11
8.35114e-11
-1.67669e-11
5.50294e-08
8.72464e-11
-1.7757e-11
5.50738e-08
-1.77009e-11
5.50856e-08
7.37964e-11
-1.40679e-11
5.48585e-08
-6.10982e-11
8.2645e-11
-1.75358e-11
5.4964e-08
8.74624e-11
-2.01743e-11
5.50193e-08
-2.16933e-11
5.50363e-08
7.03395e-11
5.47182e-08
-9.7812e-12
-5.79265e-11
7.97231e-11
5.48504e-08
-1.49513e-11
8.58508e-11
5.4922e-08
-1.98584e-11
5.4947e-08
-2.33787e-11
5.33495e-11
-8.86858e-12
5.49693e-08
-4.56867e-11
5.85627e-11
-9.43559e-12
5.50542e-08
6.1017e-11
-9.35504e-12
5.5097e-08
-8.72642e-12
5.51098e-08
5.276e-11
-8.75505e-12
5.49316e-08
-4.43607e-11
5.86706e-11
-1.01861e-11
5.50245e-08
6.16904e-11
-1.09717e-11
5.50726e-08
-1.11733e-11
5.5088e-08
5.1509e-11
-7.63694e-12
5.48487e-08
-4.25256e-11
5.79612e-11
-9.82451e-12
5.49576e-08
6.1579e-11
-1.16733e-11
5.50166e-08
-1.29015e-11
5.50373e-08
4.93139e-11
5.47066e-08
-4.00728e-12
-4.09094e-11
5.59345e-11
5.4842e-08
-7.42967e-12
6.02514e-11
5.49172e-08
-1.08095e-11
5.49458e-08
-1.33002e-11
3.63847e-11
-5.77155e-12
5.49636e-08
-3.09987e-11
4.024e-11
-6.178e-12
5.50509e-08
4.22373e-11
-6.19252e-12
5.50961e-08
-5.88733e-12
5.51114e-08
3.6035e-11
-5.17395e-12
5.49255e-08
-3.02192e-11
4.02645e-11
-6.11672e-12
5.50207e-08
4.25794e-11
-6.67469e-12
5.50713e-08
-6.9411e-12
5.50891e-08
3.52038e-11
-4.02842e-12
5.48417e-08
-2.89981e-11
3.97567e-11
-5.44526e-12
5.49529e-08
4.23649e-11
-6.6815e-12
5.50143e-08
-7.60084e-12
5.50376e-08
3.3864e-11
5.46986e-08
-1.27941e-12
-2.8195e-11
3.83955e-11
5.48362e-08
-3.52359e-12
4.13584e-11
5.49137e-08
-5.81485e-12
5.49449e-08
-7.54153e-12
2.36227e-11
-3.60864e-12
5.49598e-08
-2.0042e-11
2.62975e-11
-3.86772e-12
5.50487e-08
2.78332e-11
-3.92376e-12
5.50955e-08
-3.80307e-12
5.51122e-08
2.3424e-11
-2.97262e-12
5.49214e-08
-1.95891e-11
2.62764e-11
-3.55609e-12
5.50181e-08
2.79818e-11
-3.91956e-12
5.50702e-08
-4.17499e-12
5.50897e-08
2.29163e-11
-2.05965e-12
5.48371e-08
-1.88225e-11
2.59468e-11
-2.9379e-12
5.49497e-08
2.77583e-11
-3.71545e-12
5.50127e-08
-4.36254e-12
5.50376e-08
2.21352e-11
5.46934e-08
-1.46148e-13
-1.84572e-11
2.50834e-11
5.48323e-08
-1.56842e-12
2.70485e-11
5.49113e-08
-3.05143e-12
5.49441e-08
-4.19814e-12
1.36726e-11
-2.27386e-12
5.49576e-08
-1.15546e-11
1.52938e-11
-2.43093e-12
5.50473e-08
1.63303e-11
-2.49321e-12
5.50951e-08
-2.46846e-12
5.51127e-08
1.35658e-11
-1.80432e-12
5.49189e-08
-1.13071e-11
1.52593e-11
-2.149e-12
5.50165e-08
1.63746e-11
-2.37686e-12
5.50696e-08
-2.57844e-12
5.50899e-08
1.32731e-11
-1.19503e-12
5.48343e-08
-1.08621e-11
1.50582e-11
-1.69928e-12
5.49478e-08
1.61963e-11
-2.16318e-12
5.50117e-08
-2.58148e-12
5.50375e-08
1.28437e-11
5.46904e-08
-1.7227e-14
-1.06859e-11
1.45728e-11
5.483e-08
-8.66976e-13
1.57527e-11
5.49099e-08
-1.71442e-12
5.49436e-08
-2.41269e-12
5.74298e-12
-2.37193e-12
-4.8355e-12
6.41679e-12
-2.53979e-12
6.8797e-12
-2.64399e-12
-2.70034e-12
5.61433e-12
-2.07416e-12
-4.63487e-12
6.33653e-12
-2.3391e-12
6.83821e-12
-2.5215e-12
-2.67018e-12
5.40619e-12
-1.63632e-12
-4.35766e-12
6.18016e-12
-1.98993e-12
6.70994e-12
-2.27795e-12
-2.51922e-12
5.13217e-12
-9.99864e-13
-4.12366e-12
5.91927e-12
-1.4533e-12
6.48476e-12
-1.87998e-12
-2.23495e-12
-5.37917e-09
-7.20297e-09
3.62678e-08
-1.66485e-09
9.94428e-10
-7.15557e-09
3.96368e-08
-1.24468e-08
-1.85611e-08
6.88095e-08
-7.6167e-09
4.27312e-08
-4.90463e-09
-6.34668e-09
4.20151e-08
3.91475e-10
3.28561e-09
1.20835e-08
2.36685e-08
-7.16253e-09
2.31372e-09
4.72306e-08
4.69173e-09
4.1195e-08
2.3825e-10
2.15671e-09
3.57845e-08
1.04211e-09
-4.99053e-10
-8.9737e-09
8.05882e-08
-3.27323e-09
5.02932e-09
6.58966e-08
-4.81518e-10
6.34689e-08
-4.42854e-09
5.52381e-08
2.82616e-09
3.78686e-09
4.80546e-08
-4.72778e-09
8.79132e-08
5.88052e-08
7.92405e-10
5.36875e-10
2.18726e-08
2.40625e-09
-9.27575e-09
-7.52531e-09
4.91314e-08
7.98022e-09
-4.31105e-09
4.66334e-08
-8.88254e-09
7.22441e-08
-7.63808e-10
-2.6682e-09
4.42297e-08
1.75426e-09
-2.17375e-09
-4.8596e-09
2.24127e-08
1.89026e-09
2.53701e-09
3.63186e-08
-8.45569e-09
4.52241e-08
-2.99151e-09
-9.00405e-09
4.10695e-08
4.04239e-09
-9.93903e-10
8.04251e-09
6.56885e-08
-3.35777e-09
-3.92979e-09
7.47273e-08
-2.94593e-09
6.33499e-08
1.06172e-09
4.40255e-08
3.58677e-09
-6.68483e-09
6.48426e-08
-2.28761e-09
7.95677e-08
6.35247e-08
1.67839e-09
-2.51999e-09
2.93628e-08
1.90389e-09
-9.83412e-10
1.18494e-08
4.05067e-08
1.15498e-08
-1.96572e-09
3.33368e-08
-1.05025e-08
8.19976e-08
3.44789e-09
4.44256e-09
2.93944e-08
4.42487e-09
-2.45557e-09
-1.21423e-08
5.23078e-08
2.33082e-09
1.84826e-11
2.9548e-08
-1.23497e-08
5.61192e-08
-1.27127e-09
3.0839e-09
4.28238e-08
8.7562e-10
9.50605e-10
5.44857e-10
5.07795e-08
-5.19374e-09
-1.14054e-08
9.22955e-08
5.15634e-09
4.31097e-08
-2.87424e-09
5.04657e-08
1.43438e-11
-5.07444e-09
6.71336e-08
2.40769e-09
6.14292e-08
8.69802e-08
-4.63526e-09
-8.54626e-09
6.6606e-08
-6.9855e-09
1.7648e-09
6.09368e-09
3.92437e-08
-7.06922e-09
-2.35695e-09
5.40345e-08
9.14894e-09
6.06453e-08
-1.76536e-09
-1.24854e-08
3.73804e-08
-2.28146e-09
-1.12475e-09
-1.38828e-09
5.91492e-08
2.26561e-10
-6.12596e-09
3.19657e-08
1.77065e-09
6.28163e-08
1.72349e-09
-1.21206e-09
3.12452e-08
-1.41825e-09
-3.25806e-09
-1.77085e-09
5.61436e-08
6.35922e-09
-8.82577e-09
8.53781e-08
-1.86492e-09
5.96504e-08
1.71218e-09
5.01034e-08
-1.44123e-09
-3.14763e-09
7.25416e-08
5.2693e-09
4.4738e-08
9.98085e-08
-5.63722e-08
-4.36803e-08
2.94317e-07
-5.05275e-08
-1.90371e-08
-1.50286e-08
2.71338e-08
-3.39957e-09
7.78167e-09
4.89664e-08
2.80786e-08
2.94196e-08
-1.1191e-08
-1.68671e-08
3.78403e-08
-1.60822e-08
-5.60761e-10
-6.88029e-09
4.03706e-08
1.22812e-08
-4.18388e-09
3.10892e-08
8.59816e-09
7.18065e-08
-1.35958e-09
-4.18275e-09
2.27318e-08
-2.81144e-09
2.86083e-09
-4.34556e-09
4.93884e-08
2.04506e-08
-7.21532e-09
7.08197e-08
-2.01775e-08
1.10037e-07
1.15663e-09
5.04083e-08
-5.50215e-09
5.06488e-10
6.9513e-08
1.17498e-08
2.65951e-08
1.08856e-07
-3.76388e-08
-1.90617e-07
7.03482e-07
-3.15397e-08
-4.65367e-09
-1.05033e-08
9.67532e-09
3.24076e-09
4.34854e-09
4.14733e-08
9.596e-09
1.98087e-08
-3.07939e-08
-4.21716e-08
-6.73635e-08
-1.2447e-08
-5.22775e-10
-1.23538e-08
1.19499e-08
1.39221e-08
-5.09018e-09
2.60831e-08
5.20215e-08
-1.10516e-08
-3.26133e-09
-2.18173e-08
8.89562e-09
-3.2568e-09
2.66909e-09
-2.24037e-10
3.13281e-08
3.13949e-08
1.73405e-09
3.52697e-08
-1.10404e-07
3.33698e-07
2.32157e-09
3.07937e-08
-3.90314e-09
4.22117e-10
7.16268e-08
4.94822e-09
2.35728e-08
1.04188e-08
9.31447e-08
2.32602e-07
1.12854e-07
8.71809e-08
1.34153e-08
1.76867e-08
6.56887e-08
3.36952e-09
5.69156e-09
4.56086e-08
-4.25632e-09
3.88349e-08
3.01709e-08
4.93026e-08
7.61879e-08
9.57589e-09
5.91791e-09
6.71719e-09
4.71727e-08
-2.74469e-09
-2.45465e-09
4.2892e-08
-4.32015e-08
7.24619e-08
4.89195e-09
5.69359e-09
4.67951e-08
8.18793e-10
1.08242e-10
-3.07594e-10
4.31364e-08
-3.28872e-08
5.77507e-09
6.00355e-08
1.09853e-07
1.19317e-07
1.50077e-09
3.59994e-08
5.14006e-10
5.84157e-09
6.57047e-08
2.56072e-10
3.66054e-08
1.06971e-07
1.36582e-08
2.15331e-08
6.82343e-08
4.88874e-09
1.13595e-08
1.43311e-08
5.71087e-08
4.64742e-09
1.01454e-08
4.84438e-08
5.01339e-09
4.3341e-08
1.122e-08
2.13569e-08
6.339e-08
1.75402e-09
8.84079e-09
1.43756e-08
4.95083e-08
-7.58427e-11
1.11055e-08
5.08487e-08
1.21209e-08
7.24245e-08
7.95153e-09
1.56451e-08
4.40686e-08
4.87506e-10
7.05878e-09
5.07967e-09
5.33267e-08
3.09577e-09
6.9606e-09
6.81438e-08
6.39161e-09
1.28227e-07
4.56202e-09
4.75598e-08
-4.76935e-10
4.46439e-09
7.0882e-08
2.27537e-09
4.57548e-08
1.11511e-07
8.07418e-09
7.38805e-09
4.23329e-08
3.69228e-09
8.32237e-09
2.68029e-09
4.85517e-08
1.41416e-09
-2.65043e-09
5.10988e-08
-1.51927e-08
5.3877e-08
7.33325e-09
1.47522e-08
4.69308e-08
1.7633e-09
4.06732e-09
2.02646e-09
5.34276e-08
-9.09885e-09
1.5981e-09
5.97662e-08
-1.68317e-08
7.38313e-08
2.96297e-09
7.11535e-09
4.78686e-08
8.7334e-10
-1.19274e-10
-1.69652e-09
6.01324e-08
-1.02158e-08
1.04888e-08
6.93498e-08
-3.22202e-10
9.5542e-08
2.30347e-09
5.15234e-08
8.48747e-10
3.17069e-09
6.83183e-08
-6.45193e-09
6.58662e-08
9.78892e-08
1.91536e-09
1.36035e-09
3.59931e-08
1.01671e-09
2.31374e-09
-1.03851e-09
4.62419e-08
1.3127e-10
-3.35477e-09
5.24742e-08
-8.62071e-09
5.68755e-08
1.25667e-09
3.85219e-09
4.25708e-08
6.10588e-10
4.79853e-10
-3.30614e-10
5.34964e-08
-3.77826e-09
-5.67783e-10
6.12373e-08
-7.46063e-09
7.01e-08
1.92031e-10
3.16527e-09
4.7974e-08
3.89511e-10
-4.48752e-10
-7.72019e-11
6.05196e-08
-4.29459e-09
3.61172e-09
6.9016e-08
-1.34012e-09
8.23702e-08
1.0597e-10
5.41739e-08
4.08762e-10
7.41364e-11
6.82729e-08
-3.57973e-09
7.31317e-08
8.95933e-08
7.95167e-10
-1.12514e-09
3.37999e-08
4.251e-10
1.13678e-09
-1.86405e-09
4.54414e-08
3.91377e-10
-2.64941e-09
5.31694e-08
-4.56681e-09
5.77044e-08
5.59604e-10
-2.70701e-10
4.07511e-08
4.05691e-10
6.16151e-10
-1.39537e-09
5.29713e-08
-9.36817e-10
-1.33718e-09
6.14779e-08
-3.91558e-09
6.7783e-08
2.71015e-10
-1.89646e-10
4.72777e-08
3.44193e-10
2.53595e-10
-1.09086e-09
6.02326e-08
-1.27312e-09
1.68696e-10
6.90367e-08
-1.79654e-09
7.72412e-08
2.06588e-10
5.34324e-08
3.45364e-10
3.95502e-10
6.69931e-08
-1.19089e-09
7.48866e-08
8.46205e-08
2.02566e-10
-8.894e-10
3.32662e-08
1.52851e-10
4.38101e-10
-1.31318e-09
4.52111e-08
3.28644e-10
-1.63902e-09
5.33781e-08
-2.40828e-09
5.77815e-08
5.11372e-11
-5.07069e-10
4.01239e-08
1.93793e-10
1.98078e-10
-1.00111e-09
5.25123e-08
-1.2194e-10
-1.01769e-09
6.11765e-08
-2.03136e-09
6.63651e-08
-5.62898e-11
-1.36675e-10
4.67757e-08
1.8806e-10
6.09236e-11
-4.78127e-10
5.95925e-08
-3.45794e-10
-1.37287e-10
6.85629e-08
-9.29773e-10
7.46113e-08
-1.25631e-10
5.32235e-08
1.97929e-10
2.45093e-11
6.63647e-08
-4.23324e-10
7.5197e-08
8.20035e-08
1.54351e-10
-6.3047e-10
3.3039e-08
4.65769e-11
3.21995e-10
-7.98445e-10
4.50942e-08
3.66935e-10
-9.29027e-10
5.34173e-08
-1.22408e-09
5.77426e-08
6.88376e-11
-4.7568e-10
3.98226e-08
7.76578e-11
2.25585e-10
-6.68083e-10
5.22251e-08
2.11095e-10
-6.77241e-10
6.0939e-08
-1.07153e-09
6.5687e-08
2.1206e-11
-2.66991e-10
4.64613e-08
8.45787e-11
1.55214e-10
-3.93357e-10
5.91836e-08
1.11476e-10
-2.62769e-10
6.81919e-08
-5.66588e-10
7.34074e-08
-3.04559e-11
5.28822e-08
1.04786e-10
8.74996e-11
6.58532e-08
1.43662e-11
7.50072e-08
8.06401e-08
1.23115e-10
-3.61806e-10
3.29317e-08
-2.084e-12
2.43858e-10
-4.44484e-10
4.50169e-08
3.26803e-10
-5.07721e-10
5.33928e-08
-6.18937e-10
5.76902e-08
7.50285e-11
-2.95685e-10
3.96624e-08
1.90044e-11
1.94989e-10
-3.84323e-10
5.20448e-08
2.61746e-10
-4.07318e-10
6.07716e-08
-5.56299e-10
6.53551e-08
4.10177e-11
-1.66485e-10
4.62655e-08
2.54688e-11
1.54604e-10
-2.29372e-10
5.89148e-08
1.93024e-10
-1.97089e-10
6.7943e-08
-3.2325e-10
7.28246e-08
2.20941e-12
5.26718e-08
4.15754e-11
9.94302e-11
6.55264e-08
1.33789e-10
7.47755e-08
7.99297e-08
1.05107e-10
-2.00352e-10
3.28713e-08
-2.61883e-11
1.92064e-10
-2.43444e-10
4.49621e-08
2.62631e-10
-2.75299e-10
5.33587e-08
-3.18058e-10
5.76501e-08
7.66254e-11
-1.72992e-10
3.95691e-08
-1.07483e-11
1.61294e-10
-2.16264e-10
5.19328e-08
2.29453e-10
-2.33453e-10
6.06614e-08
-2.90938e-10
6.5187e-08
5.55257e-11
-1.05036e-10
4.6144e-08
-2.11155e-12
1.35457e-10
-1.31652e-10
5.875e-08
1.94093e-10
-1.26573e-10
6.77772e-08
-1.76758e-10
7.25354e-08
2.74537e-11
5.2531e-08
8.20022e-12
9.82768e-11
6.53238e-08
1.51855e-10
7.45952e-08
7.9565e-08
8.66751e-11
-1.09009e-10
3.28327e-08
-3.14858e-11
1.47386e-10
-1.32058e-10
4.4923e-08
2.00064e-10
-1.49579e-10
5.33286e-08
-1.66621e-10
5.76234e-08
6.89688e-11
-9.77791e-11
3.95112e-08
-2.23983e-11
1.29094e-10
-1.21025e-10
5.18615e-08
1.82079e-10
-1.31675e-10
6.05904e-08
-1.53257e-10
6.50995e-08
5.52023e-11
-6.07184e-11
4.60679e-08
-1.62713e-11
1.10301e-10
-7.46698e-11
5.86484e-08
1.59934e-10
-7.64557e-11
6.76722e-08
-9.49595e-11
7.23872e-08
3.46131e-11
5.24413e-08
-5.63843e-12
8.45066e-11
6.51992e-08
1.3023e-10
7.4473e-08
7.93726e-08
6.86351e-11
-5.87347e-11
3.28067e-08
-2.95701e-11
1.11186e-10
-7.18214e-11
4.48952e-08
1.47867e-10
-8.17281e-11
5.33059e-08
-8.90775e-11
5.76064e-08
5.75261e-11
-5.50489e-11
3.94734e-08
-2.34168e-11
9.9414e-11
-6.76373e-11
5.18155e-08
1.37204e-10
-7.41185e-11
6.05451e-08
-8.20101e-11
6.50527e-08
4.84928e-11
-3.5398e-11
4.60187e-08
-1.89521e-11
8.75548e-11
-4.28809e-11
5.85847e-08
1.23358e-10
-4.4467e-11
6.76068e-08
-5.13217e-11
7.23098e-08
3.39338e-11
5.23833e-08
-1.13114e-11
6.83931e-11
6.5122e-08
1.0282e-10
7.43942e-08
7.92707e-08
5.28369e-11
-3.15466e-11
3.2789e-08
-2.5173e-11
8.23935e-11
-3.92608e-11
4.48758e-08
1.07339e-10
-4.50929e-11
5.32897e-08
-4.86194e-11
5.75956e-08
4.58523e-11
-3.11106e-11
3.94485e-08
-2.11153e-11
7.48241e-11
-3.80361e-11
5.17856e-08
1.00574e-10
-4.17529e-11
6.05162e-08
-4.46351e-11
6.50268e-08
3.96877e-11
-2.06277e-11
4.59867e-08
-1.7891e-11
6.66956e-11
-2.44812e-11
5.85444e-08
9.15501e-11
-2.56697e-11
6.75662e-08
-2.80018e-11
7.22682e-08
2.93388e-11
5.23456e-08
-1.20703e-11
5.35776e-11
6.50735e-08
7.73768e-11
7.43449e-08
7.92158e-08
3.98177e-11
-1.69603e-11
3.27769e-08
-2.01473e-11
6.01776e-11
-2.1541e-11
4.48625e-08
7.69447e-11
-2.51499e-11
5.32786e-08
-2.7023e-11
5.75888e-08
3.51264e-11
-1.76982e-11
3.94318e-08
-1.73837e-11
5.51611e-11
-2.15743e-11
5.17661e-08
7.24023e-11
-2.36706e-11
6.04979e-08
-2.4682e-11
6.50121e-08
3.10448e-11
-1.215e-11
4.59656e-08
-1.51202e-11
4.96623e-11
-1.4065e-11
5.85188e-08
6.63667e-11
-1.47461e-11
6.7541e-08
-1.54327e-11
7.22452e-08
2.36034e-11
5.2321e-08
-1.07689e-11
4.04433e-11
6.50429e-08
5.65623e-11
7.43143e-08
7.91856e-08
2.92189e-11
-9.12225e-12
3.27687e-08
-1.53861e-11
4.31898e-11
-1.1818e-11
4.48535e-08
5.44096e-11
-1.41256e-11
5.32711e-08
-1.52063e-11
5.75845e-08
2.59833e-11
-1.00912e-11
3.94208e-08
-1.34713e-11
3.98272e-11
-1.23337e-11
5.17533e-08
5.13153e-11
-1.35111e-11
6.04863e-08
-1.37881e-11
6.50036e-08
2.33435e-11
-7.15786e-12
4.59518e-08
-1.19041e-11
3.60893e-11
-8.13797e-12
5.85024e-08
4.71666e-11
-8.4767e-12
6.75253e-08
-8.56942e-12
7.22323e-08
1.81491e-11
5.23048e-08
-8.74255e-12
2.96909e-11
6.50236e-08
4.0391e-11
7.42954e-08
7.91686e-08
2.07072e-11
-4.85074e-12
3.27632e-08
-1.11852e-11
3.01452e-11
-6.43906e-12
4.48476e-08
3.75533e-11
-7.91209e-12
5.32662e-08
-8.57411e-12
5.75818e-08
1.85631e-11
-5.76056e-12
3.94135e-08
-9.90311e-12
2.79156e-11
-7.0234e-12
5.17451e-08
3.54555e-11
-7.69905e-12
6.04789e-08
-7.73642e-12
6.49985e-08
1.68175e-11
-4.21464e-12
4.59427e-08
-8.8302e-12
2.54008e-11
-4.69687e-12
5.8492e-08
3.26455e-11
-4.86094e-12
6.75156e-08
-4.78102e-12
7.22248e-08
1.32583e-11
5.22943e-08
-6.60858e-12
2.10386e-11
6.50113e-08
2.80333e-11
7.42837e-08
7.91588e-08
1.38598e-11
-2.56244e-12
3.27597e-08
-7.58329e-12
1.99348e-11
-3.43832e-12
4.48437e-08
2.46481e-11
-4.35797e-12
5.3263e-08
-4.77911e-12
5.75801e-08
1.2473e-11
-3.26581e-12
3.94089e-08
-6.78033e-12
1.85083e-11
-3.92511e-12
5.17399e-08
2.32802e-11
-4.32469e-12
6.04743e-08
-4.31313e-12
6.49955e-08
1.13293e-11
-2.43499e-12
4.5937e-08
-6.08835e-12
1.68852e-11
-2.67698e-12
5.84855e-08
2.14581e-11
-2.76064e-12
6.75097e-08
-2.66843e-12
7.22205e-08
9.04845e-12
5.22877e-08
-4.61475e-12
1.40646e-11
6.50038e-08
1.84718e-11
7.42766e-08
7.91532e-08
8.10216e-12
-1.42694e-12
3.27576e-08
-4.41842e-12
1.16065e-11
-1.91881e-12
4.48415e-08
1.43443e-11
-2.44164e-12
5.32611e-08
-2.70674e-12
5.7579e-08
7.33317e-12
-1.84976e-12
3.94062e-08
-3.97911e-12
1.08022e-11
-2.19076e-12
5.17369e-08
1.35523e-11
-2.42619e-12
6.04717e-08
-2.43006e-12
6.49937e-08
6.6896e-12
-1.40591e-12
4.59337e-08
-3.59257e-12
9.88977e-12
-1.51262e-12
5.84818e-08
1.25181e-11
-1.57499e-12
6.75063e-08
-1.52535e-12
7.2218e-08
5.38414e-12
5.22838e-08
-2.77224e-12
8.29965e-12
6.49994e-08
1.08356e-11
7.42725e-08
7.915e-08
2.8223e-12
-1.42156e-12
-1.33584e-12
4.3669e-12
-1.75408e-12
5.70778e-12
-2.05865e-12
-2.23599e-12
2.55533e-12
-1.35233e-12
-1.21223e-12
4.06688e-12
-1.605e-12
5.40394e-12
-1.79533e-12
-1.86019e-12
2.34994e-12
-8.42785e-13
-1.11924e-12
3.75565e-12
-9.52122e-13
5.03797e-12
-1.03921e-12
-1.06101e-12
1.90759e-12
-8.60294e-13
3.19809e-12
4.43988e-12
1.44411e-08
5.3514e-09
5.79601e-08
2.22135e-09
1.48228e-09
7.2739e-08
1.44041e-08
3.05015e-09
3.14971e-08
5.96638e-09
4.93182e-08
-3.60921e-10
7.62856e-09
6.87394e-08
5.08606e-09
8.62133e-09
5.21282e-08
1.55727e-08
3.73637e-09
4.85484e-08
3.10512e-09
6.00662e-08
-1.02665e-08
-3.35929e-09
8.64398e-08
1.53297e-10
-1.85654e-09
5.82855e-08
8.93564e-09
-1.97154e-09
4.8843e-08
-6.71949e-09
6.60135e-08
-2.14289e-09
5.37989e-08
1.28192e-09
4.17794e-08
-3.55014e-09
4.21677e-08
1.55059e-08
6.38519e-10
1.18207e-09
5.80249e-08
1.70524e-09
-1.68463e-10
6.61229e-08
-3.80339e-09
-7.9205e-09
4.19835e-08
-9.34548e-09
3.29983e-08
-4.20669e-10
5.43059e-09
6.60028e-08
5.88821e-09
-1.10756e-09
4.67585e-08
-2.329e-09
-1.04077e-09
4.98859e-08
-2.27859e-09
3.93732e-08
-1.42605e-08
-4.53422e-09
1.09527e-07
4.82438e-09
1.44314e-10
3.79488e-08
-7.45454e-09
-5.98675e-09
6.6068e-08
-5.32181e-10
5.26718e-08
6.99501e-09
4.58589e-08
-8.8747e-09
6.18358e-08
6.85374e-10
2.83751e-08
1.90042e-08
-4.09556e-09
-8.37324e-09
7.68259e-08
-2.13006e-08
-1.11746e-09
9.48955e-08
-4.19302e-09
3.22556e-09
4.51814e-08
-8.79597e-09
5.6852e-08
1.73089e-08
5.31101e-09
3.82908e-08
-5.18506e-09
1.11987e-09
6.70151e-08
-9.48019e-09
1.43723e-08
4.30343e-08
2.49211e-10
1.91779e-08
2.2382e-08
1.39364e-09
9.73226e-08
1.76347e-08
-4.55927e-09
4.83754e-08
-1.41608e-08
-1.57628e-08
1.27999e-07
-2.24756e-09
4.48745e-08
2.7246e-09
4.47685e-08
8.1947e-09
5.26821e-08
-1.08344e-08
3.60662e-08
2.32264e-08
-1.34661e-08
-4.12137e-09
9.18353e-08
-2.57528e-08
-6.22897e-09
9.31808e-08
-1.29518e-08
2.65358e-09
3.62913e-08
3.45329e-09
7.99012e-08
-5.55764e-09
-7.28634e-09
4.73251e-08
-1.04852e-08
2.47613e-09
6.32375e-08
-6.36215e-09
-1.79474e-08
5.95122e-08
5.15303e-09
2.64666e-08
2.34721e-08
6.79479e-09
6.25475e-08
1.22886e-08
8.74813e-10
6.11602e-08
2.06829e-08
-7.80925e-09
1.09466e-07
1.02775e-08
6.77044e-08
1.5711e-10
4.97787e-08
1.29177e-08
3.93781e-08
-1.5352e-09
4.04284e-08
2.65722e-08
6.04563e-09
-2.66823e-09
8.49488e-08
-1.13176e-08
-5.1503e-09
1.1792e-07
-9.57405e-09
-2.90486e-09
3.61958e-08
3.51504e-09
6.4763e-08
-2.252e-09
-5.69806e-09
5.26326e-08
-6.57195e-09
-3.20867e-09
6.56159e-08
-2.55895e-09
-6.59066e-09
5.9185e-08
7.05248e-09
2.50849e-08
8.54946e-09
4.57416e-09
4.41139e-08
-1.2409e-08
5.02112e-09
7.38889e-08
2.513e-08
2.06131e-08
4.47234e-08
3.48576e-08
5.30123e-08
6.50088e-09
4.38374e-08
2.42738e-08
2.38148e-08
3.57575e-08