/*--------------------------------*- C++ -*----------------------------------*\
| =========                 |                                                 |
| \\      /  F ield         | OpenFOAM: The Open Source CFD Toolbox           |
|  \\    /   O peration     | Version:  2506                                  |
|   \\  /    A nd           | Website:  www.openfoam.com                      |
|    \\/     M anipulation  |                                                 |
\*---------------------------------------------------------------------------*/
FoamFile
{
    version     2.0;
    format      ascii;
    arch        "LSB;label=32;scalar=64";
    class       volVectorField;
    location    "0.09";
    object      Us;
}
// * * * * * * * * * * * * * * * * * * * * * * * * * * * * * * * * * * * * * //

dimensions      [0 1 -1 0 0 0 0];

internalField   nonuniform List<vector> 
1152
(
(-0.000587907 9.81499e-05 0.000103058)
(-0.00050728 -0.000197789 0.000206562)
(-0.00048473 0.000231429 0.000205973)
(-0.00029702 0.000154392 0.000150321)
(-0.000110376 0.000208883 -7.18191e-05)
(-0.000203629 8.07781e-05 -3.77878e-06)
(-0.000181365 0.000235026 0.000128921)
(-0.000135237 9.85733e-05 0.000213817)
(-0.000413864 0.000380496 -0.000171778)
(-0.00060563 0.000914472 -0.000578911)
(8.35608e-05 0.000508785 -0.000359779)
(0.000177085 -6.57235e-06 0.000155206)
(-0.000602348 0.000217511 0.00037118)
(-0.00245611 0.0016016 -0.00309026)
(-0.000201018 -0.000238826 -0.000218592)
(0.000362574 -0.000745043 0.000163583)
(-0.00093928 -0.000420985 0.00756305)
(-0.000502072 -0.000286094 0.00652767)
(0.000310796 -6.33826e-05 0.00646068)
(-0.001385 -0.000533541 0.00532192)
(-0.000143668 -0.00121505 0.00455298)
(2.07186e-05 -0.00248471 0.00795052)
(-0.000175233 -0.000700705 0.00546263)
(-0.000521312 -0.00159087 0.00589899)
(-0.000136786 -0.000625572 0.0055489)
(-0.000725125 -0.0013056 0.00569761)
(-0.000879569 -0.000103577 0.00277865)
(-0.00116567 -0.00149841 0.00687685)
(-0.0012738 -0.000890035 0.00793368)
(-0.00207843 -0.00110904 0.00731736)
(-0.000411177 -0.0017884 0.00632392)
(-0.000630647 -0.000938252 0.00743659)
(-0.000797942 -0.000255228 0.0114611)
(-0.000212592 0.000148039 0.00858577)
(-0.000800918 -4.56419e-05 0.0104565)
(-0.000560894 -0.00111127 0.0130107)
(-0.000181798 -0.00114253 0.0122792)
(9.76039e-05 -0.000703893 0.0102455)
(-0.000546075 5.0228e-05 0.0101074)
(-0.000582306 -0.000249075 0.0110728)
(-0.000783175 -0.000845209 0.0101389)
(-0.000395027 -0.00104849 0.00986982)
(0.000124758 -0.000478004 0.00947545)
(-0.000914614 -0.000880935 0.010033)
(-0.000657756 -0.00070435 0.00898819)
(-9.31609e-05 -0.00133394 0.00885794)
(0.000671487 -0.000904503 0.00929495)
(1.3355e-05 -0.00178435 0.00958691)
(-0.000615137 -0.000768829 0.0116643)
(-0.000417215 -3.58048e-05 0.011708)
(-0.00133617 -0.000235785 0.0119598)
(-0.00183793 -0.000879938 0.0121891)
(-0.000697105 -0.000637275 0.0114617)
(0.000314889 -0.000569537 0.0106085)
(-0.000386445 -0.000169577 0.010212)
(-0.000987668 -0.000599883 0.0107175)
(1.95529e-06 -0.000700748 0.00990743)
(1.2081e-05 -0.000664649 0.0102033)
(-0.000648408 -0.000261221 0.00997384)
(-0.000544386 -0.000580565 0.0100073)
(-0.00092821 -0.000451397 0.0101869)
(-0.000696662 -0.00112533 0.0103307)
(-0.000322052 -0.000315168 0.00991494)
(-0.000280605 -0.000372324 0.0095191)
(-0.000654067 -6.16847e-05 0.0113772)
(-0.000266248 0.000398205 0.0122743)
(-0.000786385 8.92765e-05 0.0110592)
(-0.000674812 -0.000180785 0.0109484)
(-0.000320192 0.000624645 0.0105522)
(-0.000229842 9.84189e-05 0.0108748)
(-0.000412154 -5.32814e-05 0.0102491)
(-0.000233514 -0.000106775 0.0105607)
(-0.000242417 0.000881049 0.0103611)
(-0.000358505 5.66886e-05 0.0101481)
(-0.000562268 -0.000622916 0.00984508)
(-0.000317584 -0.000432066 0.00992724)
(-0.000857997 0.00015237 0.0101855)
(-0.000710806 4.37093e-05 0.00953645)
(-0.00123114 -0.00054192 0.00945012)
(-0.000417466 -0.000680775 0.00912585)
(-0.000369929 0.000888912 0.0108395)
(-0.000254759 0.000717499 0.0106812)
(-0.000562536 0.000267919 0.0103106)
(-5.74053e-05 0.000263174 0.0101208)
(-0.000107216 0.000680477 0.0102286)
(-6.69709e-05 0.000660004 0.0101116)
(0.000117326 0.00012232 0.00970535)
(0.00029178 8.29843e-05 0.00959537)
(0.000184495 0.000485781 0.00958631)
(0.00014246 0.000890966 0.00983002)
(0.000343835 0.00028453 0.00931491)
(0.000834152 0.000327784 0.00891497)
(-0.000390107 0.000683024 0.00922267)
(7.27887e-05 0.000435746 0.00950285)
(0.0005423 -0.000544079 0.00913444)
(0.000584773 0.000190772 0.00880045)
(0.000376407 0.00140609 0.010344)
(0.000353827 0.000468726 0.00988878)
(-3.52424e-05 0.000646591 0.00959938)
(0.000719718 0.00103896 0.00934345)
(0.00034634 0.00103456 0.00998785)
(0.000273365 0.000583954 0.00956358)
(0.000303725 0.000388423 0.00917175)
(0.000539926 0.000526555 0.00894159)
(5.49514e-05 7.45754e-06 0.00986063)
(-0.000269748 0.000731294 0.00929018)
(-0.000216463 0.000143672 0.00892021)
(0.000163769 0.000308434 0.00868503)
(-0.000721533 4.97513e-05 0.00888661)
(-0.000188586 0.000166763 0.00893882)
(0.00026418 0.000256359 0.00883165)
(0.000461555 0.000380545 0.00834833)
(0 0 0)
(0 0 0)
(0 0 0)
(0 0 0)
(0 0 0)
(0 0 0)
(0 0 0)
(0 0 0)
(0 0 0)
(0 0 0)
(0 0 0)
(0 0 0)
(0 0 0)
(0 0 0)
(0 0 0)
(0 0 0)
(0 0 0)
(0 0 0)
(0 0 0)
(0 0 0)
(0 0 0)
(0 0 0)
(0 0 0)
(0 0 0)
(0 0 0)
(0 0 0)
(0 0 0)
(0 0 0)
(0 0 0)
(0 0 0)
(0 0 0)
(0 0 0)
(0 0 0)
(0 0 0)
(0 0 0)
(0 0 0)
(0 0 0)
(0 0 0)
(0 0 0)
(0 0 0)
(0 0 0)
(0 0 0)
(0 0 0)
(0 0 0)
(0 0 0)
(0 0 0)
(0 0 0)
(0 0 0)
(0 0 0)
(0 0 0)
(0 0 0)
(0 0 0)
(0 0 0)
(0 0 0)
(0 0 0)
(0 0 0)
(0 0 0)
(0 0 0)
(0 0 0)
(0 0 0)
(0 0 0)
(0 0 0)
(0 0 0)
(0 0 0)
(0 0 0)
(0 0 0)
(0 0 0)
(0 0 0)
(0 0 0)
(0 0 0)
(0 0 0)
(0 0 0)
(0 0 0)
(0 0 0)
(0 0 0)
(0 0 0)
(0 0 0)
(0 0 0)
(0 0 0)
(0 0 0)
(0 0 0)
(0 0 0)
(0 0 0)
(0 0 0)
(0 0 0)
(0 0 0)
(0 0 0)
(0 0 0)
(0 0 0)
(0 0 0)
(0 0 0)
(0 0 0)
(0 0 0)
(0 0 0)
(0 0 0)
(0 0 0)
(0 0 0)
(0 0 0)
(0 0 0)
(0 0 0)
(0 0 0)
(0 0 0)
(0 0 0)
(0 0 0)
(0 0 0)
(0 0 0)
(0 0 0)
(0 0 0)
(0 0 0)
(0 0 0)
(0 0 0)
(0 0 0)
(0 0 0)
(0 0 0)
(0 0 0)
(0 0 0)
(0 0 0)
(0 0 0)
(0 0 0)
(0 0 0)
(0 0 0)
(0 0 0)
(0 0 0)
(0 0 0)
(0 0 0)
(0 0 0)
(0 0 0)
(0 0 0)
(0 0 0)
(0 0 0)
(0 0 0)
(0 0 0)
(0 0 0)
(0 0 0)
(0 0 0)
(0 0 0)
(0 0 0)
(0 0 0)
(0 0 0)
(0 0 0)
(0 0 0)
(0 0 0)
(0 0 0)
(0 0 0)
(0 0 0)
(0 0 0)
(0 0 0)
(0 0 0)
(0 0 0)
(0 0 0)
(0 0 0)
(0 0 0)
(0 0 0)
(0 0 0)
(0 0 0)
(0 0 0)
(0 0 0)
(0 0 0)
(0 0 0)
(0 0 0)
(0 0 0)
(0 0 0)
(0 0 0)
(0 0 0)
(0 0 0)
(0 0 0)
(0 0 0)
(0 0 0)
(0 0 0)
(0 0 0)
(0 0 0)
(0 0 0)
(0 0 0)
(0 0 0)
(0 0 0)
(0 0 0)
(0 0 0)
(0 0 0)
(0 0 0)
(0 0 0)
(0 0 0)
(0 0 0)
(0 0 0)
(0 0 0)
(0 0 0)
(0 0 0)
(0 0 0)
(0 0 0)
(0 0 0)
(0 0 0)
(0 0 0)
(0 0 0)
(0 0 0)
(0 0 0)
(0 0 0)
(0 0 0)
(0 0 0)
(0 0 0)
(0 0 0)
(0 0 0)
(0 0 0)
(0 0 0)
(0 0 0)
(0 0 0)
(0 0 0)
(0 0 0)
(0 0 0)
(0 0 0)
(0 0 0)
(0 0 0)
(0 0 0)
(0 0 0)
(0 0 0)
(0 0 0)
(0 0 0)
(0 0 0)
(0 0 0)
(0 0 0)
(0 0 0)
(0 0 0)
(0 0 0)
(0 0 0)
(0 0 0)
(0 0 0)
(0 0 0)
(0 0 0)
(0 0 0)
(0 0 0)
(0 0 0)
(0 0 0)
(0 0 0)
(0 0 0)
(0 0 0)
(0 0 0)
(0 0 0)
(0 0 0)
(0 0 0)
(0 0 0)
(0 0 0)
(0 0 0)
(0 0 0)
(0 0 0)
(0 0 0)
(0 0 0)
(0 0 0)
(0 0 0)
(0 0 0)
(0 0 0)
(0 0 0)
(0 0 0)
(0 0 0)
(0 0 0)
(0 0 0)
(0 0 0)
(0 0 0)
(0 0 0)
(0 0 0)
(0 0 0)
(0 0 0)
(0 0 0)
(0 0 0)
(0 0 0)
(0 0 0)
(0 0 0)
(0 0 0)
(0 0 0)
(0 0 0)
(0 0 0)
(0 0 0)
(0 0 0)
(0 0 0)
(0 0 0)
(9.76731e-05 -0.000596938 -0.00022731)
(-0.000100733 0.000125989 1.52314e-05)
(-0.000719063 -0.00127045 -0.0056981)
(0.000569497 -0.000936348 -0.000296016)
(0.000177945 -0.000255955 -0.000475353)
(0.00010908 1.35181e-05 -0.000144502)
(6.24836e-06 -0.000276737 -0.000792744)
(-0.000161524 -0.000990619 -8.82401e-05)
(-0.000327153 -0.000273049 -0.000221833)
(-0.000198019 8.44619e-06 8.83315e-05)
(-0.00016184 0.000192705 -0.000474963)
(-0.000284277 -0.000223284 -0.000203411)
(-0.000887229 -0.000875298 -0.000666139)
(-0.000173849 -0.000115491 -0.000117337)
(-0.000257877 1.64371e-05 -5.90787e-05)
(0.000519963 5.55569e-05 -0.000517403)
(-0.0010783 -0.000144824 0.00583848)
(-0.000261862 -0.00134669 0.00744392)
(0.000676688 -0.00129943 0.00615315)
(-0.00070529 -0.000968174 0.00664406)
(-0.000246192 -0.000605978 0.0077279)
(0.000167122 -0.000359532 0.0041249)
(0.000130286 -0.000405256 0.00434619)
(0.000381071 -0.00188978 0.00536018)
(-0.00084055 -0.00104664 0.00676539)
(-0.000551602 -0.000735268 0.00832448)
(-0.000165348 -9.27053e-05 0.00600809)
(-0.0012839 -0.00150279 0.00671981)
(-0.000467913 -0.00158789 0.00513941)
(-0.000910882 -0.000920342 0.00723355)
(-0.00128005 -0.000381381 0.00772219)
(-0.000466987 -0.000376579 0.00463538)
(0.000630912 -0.000501686 0.00884007)
(0.000596584 -0.00117997 0.00941368)
(0.000653833 -0.00192985 0.00847167)
(-0.000373977 -0.00193043 0.00899031)
(0.0002038 -0.000293512 0.00821191)
(0.00130222 -0.00112994 0.00758662)
(0.000763685 -0.00132228 0.00822521)
(-0.000301207 -0.00190462 0.0087897)
(0.000385825 -8.28516e-05 0.00852458)
(0.0005368 -0.00191737 0.00809688)
(0.000106016 -0.00076257 0.00841523)
(-0.000602436 -0.00150065 0.00828098)
(-0.000815742 -0.000925691 0.00721859)
(-0.000735235 -0.000193173 0.0109062)
(-0.000562862 -0.000473861 0.00771697)
(-0.000731389 -0.000780695 0.00856731)
(-0.000481461 -0.000522521 0.00813267)
(-0.000599019 -0.00103529 0.00916767)
(-0.000396935 -0.000848492 0.0088027)
(-0.000458503 -0.000651623 0.00903074)
(0.000429401 -0.0017576 0.00819683)
(-0.00053874 -0.000853707 0.00804913)
(2.75738e-05 -0.00141317 0.00817507)
(-0.000308406 -0.0011691 0.00815985)
(-0.000535549 -0.00208134 0.00778328)
(-7.01042e-05 -0.00144685 0.00675178)
(-0.000286251 -0.000921146 0.00799729)
(-0.000319133 -0.000962882 0.00811968)
(-0.000563035 -0.00102949 0.00674137)
(0.000319632 -0.000891572 0.00637632)
(-0.000226805 -0.000305548 0.00742767)
(-0.000584576 -0.000627274 0.00782504)
(-0.000596344 0.000272968 0.00903904)
(-0.000906107 -2.23674e-05 0.00882881)
(-0.0017033 -0.000411463 0.0109441)
(-0.000234425 -0.000771983 0.00850932)
(-0.000750575 -3.76556e-05 0.00839357)
(-0.00105087 -6.70936e-05 0.008797)
(-8.75693e-05 -0.000923953 0.00840512)
(0.000107656 -0.000722806 0.00808623)
(-2.57339e-05 9.18492e-05 0.00729968)
(0.00041863 -0.00042211 0.00673905)
(-0.000594954 -0.000871644 0.00759548)
(-0.000369412 -0.000842498 0.00740617)
(0.000574311 0.000400171 0.0055642)
(0.00061958 5.5371e-05 0.00635107)
(-0.000574897 -0.000328561 0.00661845)
(-0.000993893 -0.000406167 0.00656821)
(-0.000297236 -0.000194556 0.00898893)
(-0.000102903 0.000255654 0.0090921)
(-0.000357208 -0.000148985 0.00834429)
(-0.000388879 -2.08675e-06 0.00817858)
(0.000253764 -0.000234275 0.00802207)
(0.000159877 -0.000538501 0.00860455)
(0.000272565 -0.000218339 0.00811782)
(-0.000449666 -0.000332315 0.00762991)
(0.000747568 0.000448789 0.00817558)
(0.000574065 -0.000333834 0.00679818)
(0.000217625 0.000105819 0.00724382)
(-0.000263329 5.70988e-05 0.00660507)
(0.000889437 0.000428469 0.00600058)
(4.73888e-05 -0.000180615 0.00619466)
(-0.000628171 -8.45256e-05 0.00680998)
(-6.26706e-05 -0.000883887 0.00691314)
(0.000959679 0.000609687 0.00671219)
(0.000617957 0.00017711 0.00876191)
(0.000323849 0.000349007 0.00819641)
(-0.000207536 0.000248189 0.00819541)
(0.00117065 0.00024056 0.00808017)
(0.000913647 0.00102536 0.00840763)
(0.00116065 0.000489483 0.0089775)
(-6.35777e-06 0.000906234 0.00640459)
(0.00166814 2.16183e-05 0.00723179)
(0.000524703 0.00024218 0.00730024)
(0.000884554 0.000129161 0.00833583)
(-1.63118e-06 0.000666002 0.00620317)
(0.000374703 -0.000318334 0.00575854)
(0.00057286 0.00081107 0.00497441)
(0.00108423 -0.000128209 0.00626659)
(0.00138391 0.00245876 0.00576066)
(0 0 0)
(0 0 0)
(0 0 0)
(0 0 0)
(0 0 0)
(0 0 0)
(0 0 0)
(0 0 0)
(0 0 0)
(0 0 0)
(0 0 0)
(0 0 0)
(0 0 0)
(0 0 0)
(0 0 0)
(0 0 0)
(0 0 0)
(0 0 0)
(0 0 0)
(0 0 0)
(0 0 0)
(0 0 0)
(0 0 0)
(0 0 0)
(0 0 0)
(0 0 0)
(0 0 0)
(0 0 0)
(0 0 0)
(0 0 0)
(0 0 0)
(0 0 0)
(0 0 0)
(0 0 0)
(0 0 0)
(0 0 0)
(0 0 0)
(0 0 0)
(0 0 0)
(0 0 0)
(0 0 0)
(0 0 0)
(0 0 0)
(0 0 0)
(0 0 0)
(0 0 0)
(0 0 0)
(0 0 0)
(0 0 0)
(0 0 0)
(0 0 0)
(0 0 0)
(0 0 0)
(0 0 0)
(0 0 0)
(0 0 0)
(0 0 0)
(0 0 0)
(0 0 0)
(0 0 0)
(0 0 0)
(0 0 0)
(0 0 0)
(0 0 0)
(0 0 0)
(0 0 0)
(0 0 0)
(0 0 0)
(0 0 0)
(0 0 0)
(0 0 0)
(0 0 0)
(0 0 0)
(0 0 0)
(0 0 0)
(0 0 0)
(0 0 0)
(0 0 0)
(0 0 0)
(0 0 0)
(0 0 0)
(0 0 0)
(0 0 0)
(0 0 0)
(0 0 0)
(0 0 0)
(0 0 0)
(0 0 0)
(0 0 0)
(0 0 0)
(0 0 0)
(0 0 0)
(0 0 0)
(0 0 0)
(0 0 0)
(0 0 0)
(0 0 0)
(0 0 0)
(0 0 0)
(0 0 0)
(0 0 0)
(0 0 0)
(0 0 0)
(0 0 0)
(0 0 0)
(0 0 0)
(0 0 0)
(0 0 0)
(0 0 0)
(0 0 0)
(0 0 0)
(0 0 0)
(0 0 0)
(0 0 0)
(0 0 0)
(0 0 0)
(0 0 0)
(0 0 0)
(0 0 0)
(0 0 0)
(0 0 0)
(0 0 0)
(0 0 0)
(0 0 0)
(0 0 0)
(0 0 0)
(0 0 0)
(0 0 0)
(0 0 0)
(0 0 0)
(0 0 0)
(0 0 0)
(0 0 0)
(0 0 0)
(0 0 0)
(0 0 0)
(0 0 0)
(0 0 0)
(0 0 0)
(0 0 0)
(0 0 0)
(0 0 0)
(0 0 0)
(0 0 0)
(0 0 0)
(0 0 0)
(0 0 0)
(0 0 0)
(0 0 0)
(0 0 0)
(0 0 0)
(0 0 0)
(0 0 0)
(0 0 0)
(0 0 0)
(0 0 0)
(0 0 0)
(0 0 0)
(0 0 0)
(0 0 0)
(0 0 0)
(0 0 0)
(0 0 0)
(0 0 0)
(0 0 0)
(0 0 0)
(0 0 0)
(0 0 0)
(0 0 0)
(0 0 0)
(0 0 0)
(0 0 0)
(0 0 0)
(0 0 0)
(0 0 0)
(0 0 0)
(0 0 0)
(0 0 0)
(0 0 0)
(0 0 0)
(0 0 0)
(0 0 0)
(0 0 0)
(0 0 0)
(0 0 0)
(0 0 0)
(0 0 0)
(0 0 0)
(0 0 0)
(0 0 0)
(0 0 0)
(0 0 0)
(0 0 0)
(0 0 0)
(0 0 0)
(0 0 0)
(0 0 0)
(0 0 0)
(0 0 0)
(0 0 0)
(0 0 0)
(0 0 0)
(0 0 0)
(0 0 0)
(0 0 0)
(0 0 0)
(0 0 0)
(0 0 0)
(0 0 0)
(0 0 0)
(0 0 0)
(0 0 0)
(0 0 0)
(0 0 0)
(0 0 0)
(0 0 0)
(0 0 0)
(0 0 0)
(0 0 0)
(0 0 0)
(0 0 0)
(0 0 0)
(0 0 0)
(0 0 0)
(0 0 0)
(0 0 0)
(0 0 0)
(0 0 0)
(0 0 0)
(0 0 0)
(0 0 0)
(0 0 0)
(0 0 0)
(0 0 0)
(0 0 0)
(0 0 0)
(0 0 0)
(0 0 0)
(0 0 0)
(0 0 0)
(0 0 0)
(0 0 0)
(0 0 0)
(0 0 0)
(0 0 0)
(0 0 0)
(0 0 0)
(0 0 0)
(0 0 0)
(0 0 0)
(0 0 0)
(0 0 0)
(0 0 0)
(0 0 0)
(0 0 0)
(0 0 0)
(0 0 0)
(0 0 0)
(0 0 0)
(0 0 0)
(0 0 0)
(0 0 0)
(0 0 0)
(0 0 0)
(0 0 0)
(0 0 0)
(0 0 0)
(0 0 0)
(0 0 0)
(0 0 0)
(0 0 0)
(0 0 0)
(0.000339831 0.000752942 -0.000379437)
(-1.00049e-05 0.000128331 -0.000108854)
(-0.000410392 0.000298256 -4.87259e-05)
(-0.000360379 0.00033014 -3.90213e-05)
(-0.000130792 -0.000280704 -0.00104219)
(-0.000578008 -0.000426277 -0.000814414)
(0.000207674 0.000483244 -0.000110771)
(0.000261223 0.00111378 -0.00046348)
(0.000220245 0.000739647 5.00602e-06)
(-0.000168426 0.000114828 -0.000109343)
(-0.000324333 0.000367642 0.000160555)
(-0.000373148 0.000769963 0.000269047)
(-0.000395664 -0.000605838 -0.000334589)
(-0.000114129 -0.000269748 -2.9666e-05)
(-0.000319818 -4.90383e-05 -0.00021899)
(-0.000366771 0.000489078 0.000203619)
(0.000343528 0.000873116 0.00363538)
(-8.85064e-05 0.00123329 0.00445215)
(-0.00135734 -0.000128391 0.003164)
(-0.000943886 -0.000531817 0.0049305)
(0.000266585 -0.000503162 0.00759217)
(-0.00024682 -0.000768018 0.00483606)
(-0.00077953 -0.000929803 0.00726848)
(-0.000543154 -0.000875947 0.00629118)
(-0.00066816 -0.000405811 0.00792366)
(-0.00220767 -0.00103481 0.00644464)
(-0.00136197 -0.000916176 0.010228)
(-0.000832729 -0.000911808 0.00768902)
(-0.000746945 -0.000911612 0.00739333)
(-0.000410626 -0.000762614 0.00693555)
(-0.000994838 -0.00103401 0.00410029)
(-0.000995037 -0.000102082 0.0049451)
(0.000595251 5.87153e-05 0.00831302)
(0.000115377 0.000334802 0.00926152)
(-0.00148867 0.000517754 0.00918565)
(-0.000983178 -0.000662552 0.0102008)
(0.00116241 -0.000796837 0.00912712)
(0.000693707 -0.000611192 0.00826464)
(-0.000348148 -0.00058804 0.00952109)
(-0.000651039 -0.000821743 0.0100395)
(0.00201818 -0.000966454 0.0117101)
(-0.00032686 -0.00157307 0.00970836)
(5.34039e-06 -0.000860782 0.00889856)
(-0.000927976 -0.000452702 0.00921111)
(-0.000194603 -0.000376027 0.00747345)
(-0.000613062 -0.0014517 0.00833183)
(0.000158488 -0.00220761 0.00855372)
(-0.000527306 -0.000465508 0.00821884)
(0.000516951 -0.00102079 0.00800918)
(-0.000355428 -0.000324588 0.00960496)
(-0.000159842 -0.000510152 0.0103286)
(1.57397e-05 -0.000591104 0.0108661)
(-2.88452e-05 -0.000589159 0.0079375)
(0.000388179 -0.0008832 0.00870815)
(0.000303073 -0.0010209 0.00913805)
(9.84778e-05 -0.000840872 0.0101655)
(0.000458925 -0.00128744 0.00864524)
(-0.000257419 -0.00126019 0.00983179)
(0.000493923 -0.000766234 0.00929725)
(0.000330114 -0.000117905 0.0105106)
(-0.000699596 -0.000739554 0.00790021)
(4.96976e-05 -0.00126598 0.00880497)
(0.000438058 -0.00108463 0.00823191)
(0.000413538 -0.000227228 0.00914352)
(-0.000239301 -0.000762142 0.0082098)
(-0.000249883 3.92668e-05 0.00974291)
(-0.000215552 -0.000358459 0.010763)
(5.64043e-05 1.077e-05 0.0109082)
(5.15668e-06 -1.8834e-05 0.00705498)
(0.000568184 -0.000374492 0.00843609)
(0.000241389 -2.14812e-05 0.00990682)
(-0.000143598 0.000265471 0.0101963)
(0.000130475 -0.000126853 0.00776154)
(0.00047806 -0.000188779 0.00853017)
(0.00104068 -0.000477985 0.00927683)
(0.000243319 0.000483082 0.0107217)
(0.000546058 -0.000250204 0.00718806)
(0.000235152 0.000607288 0.00815172)
(0.000760656 -5.02101e-05 0.00895987)
(-0.000299716 0.000959099 0.00913031)
(-0.000651568 -0.000149401 0.00722955)
(-0.000563864 -0.000100771 0.00907238)
(-0.000433351 0.00044707 0.00963464)
(-0.000147064 0.000820234 0.0102991)
(0.000232126 0.000405618 0.00686025)
(-0.000607523 -0.000861894 0.00817455)
(-0.00028539 0.000225721 0.00980233)
(-1.84954e-05 0.000667717 0.0101154)
(0.000934833 0.00106177 0.00580007)
(0.00108766 0.000212388 0.00723386)
(0.00070182 -0.000346681 0.00899663)
(0.000136051 0.000250803 0.00995196)
(0.000418992 0.000803708 0.00647421)
(0.000562179 0.000160037 0.00775183)
(0.000423109 -7.57652e-06 0.00931949)
(3.11786e-06 0.000578388 0.00904282)
(-0.000700077 6.31418e-05 0.00534741)
(-0.000965458 0.000858468 0.00889549)
(-0.00165883 0.000410741 0.00902433)
(1.90095e-05 0.00100148 0.00990155)
(-0.000311016 0.000220395 0.00473007)
(-0.00116397 0.00153004 0.00724417)
(-0.0010803 2.38268e-05 0.00925037)
(-0.000336417 0.000145898 0.0100092)
(5.84436e-05 -0.00135217 0.00530101)
(-0.000776718 -0.00192188 0.0085265)
(-4.3343e-05 0.000374516 0.0095432)
(7.62856e-05 0.00025499 0.0104199)
(-0.000716952 -0.000183899 0.00618756)
(-0.0001492 -0.00119701 0.00846275)
(0.000160032 0.000686561 0.00840449)
(-0.000553835 0.00142469 0.00950051)
(0 0 0)
(0 0 0)
(0 0 0)
(0 0 0)
(0 0 0)
(0 0 0)
(0 0 0)
(0 0 0)
(0 0 0)
(0 0 0)
(0 0 0)
(0 0 0)
(0 0 0)
(0 0 0)
(0 0 0)
(0 0 0)
(0 0 0)
(0 0 0)
(0 0 0)
(0 0 0)
(0 0 0)
(0 0 0)
(0 0 0)
(0 0 0)
(0 0 0)
(0 0 0)
(0 0 0)
(0 0 0)
(0 0 0)
(0 0 0)
(0 0 0)
(0 0 0)
(0 0 0)
(0 0 0)
(0 0 0)
(0 0 0)
(0 0 0)
(0 0 0)
(0 0 0)
(0 0 0)
(0 0 0)
(0 0 0)
(0 0 0)
(0 0 0)
(0 0 0)
(0 0 0)
(0 0 0)
(0 0 0)
(0 0 0)
(0 0 0)
(0 0 0)
(0 0 0)
(0 0 0)
(0 0 0)
(0 0 0)
(0 0 0)
(0 0 0)
(0 0 0)
(0 0 0)
(0 0 0)
(0 0 0)
(0 0 0)
(0 0 0)
(0 0 0)
(0 0 0)
(0 0 0)
(0 0 0)
(0 0 0)
(0 0 0)
(0 0 0)
(0 0 0)
(0 0 0)
(0 0 0)
(0 0 0)
(0 0 0)
(0 0 0)
(0 0 0)
(0 0 0)
(0 0 0)
(0 0 0)
(0 0 0)
(0 0 0)
(0 0 0)
(0 0 0)
(0 0 0)
(0 0 0)
(0 0 0)
(0 0 0)
(0 0 0)
(0 0 0)
(0 0 0)
(0 0 0)
(0 0 0)
(0 0 0)
(0 0 0)
(0 0 0)
(0 0 0)
(0 0 0)
(0 0 0)
(0 0 0)
(0 0 0)
(0 0 0)
(0 0 0)
(0 0 0)
(0 0 0)
(0 0 0)
(0 0 0)
(0 0 0)
(0 0 0)
(0 0 0)
(0 0 0)
(0 0 0)
(0 0 0)
(0 0 0)
(0 0 0)
(0 0 0)
(0 0 0)
(0 0 0)
(0 0 0)
(0 0 0)
(0 0 0)
(0 0 0)
(0 0 0)
(0 0 0)
(0 0 0)
(0 0 0)
(0 0 0)
(0 0 0)
(0 0 0)
(0 0 0)
(0 0 0)
(0 0 0)
(0 0 0)
(0 0 0)
(0 0 0)
(0 0 0)
(0 0 0)
(0 0 0)
(0 0 0)
(0 0 0)
(0 0 0)
(0 0 0)
(0 0 0)
(0 0 0)
(0 0 0)
(0 0 0)
(0 0 0)
(0 0 0)
(0 0 0)
(0 0 0)
(0 0 0)
(0 0 0)
(0 0 0)
(0 0 0)
(0 0 0)
(0 0 0)
(0 0 0)
(0 0 0)
(0 0 0)
(0 0 0)
(0 0 0)
(0 0 0)
(0 0 0)
(0 0 0)
(0 0 0)
(0 0 0)
(0 0 0)
(0 0 0)
(0 0 0)
(0 0 0)
(0 0 0)
(0 0 0)
(0 0 0)
(0 0 0)
(0 0 0)
(0 0 0)
(0 0 0)
(0 0 0)
(0 0 0)
(0 0 0)
(0 0 0)
(0 0 0)
(0 0 0)
(0 0 0)
(0 0 0)
(0 0 0)
(0 0 0)
(0 0 0)
(0 0 0)
(0 0 0)
(0 0 0)
(0 0 0)
(0 0 0)
(0 0 0)
(0 0 0)
(0 0 0)
(0 0 0)
(0 0 0)
(0 0 0)
(0 0 0)
(0 0 0)
(0 0 0)
(0 0 0)
(0 0 0)
(0 0 0)
(0 0 0)
(0 0 0)
(0 0 0)
(0 0 0)
(0 0 0)
(0 0 0)
(0 0 0)
(0 0 0)
(0 0 0)
(0 0 0)
(0 0 0)
(0 0 0)
(0 0 0)
(0 0 0)
(0 0 0)
(0 0 0)
(0 0 0)
(0 0 0)
(0 0 0)
(0 0 0)
(0 0 0)
(0 0 0)
(0 0 0)
(0 0 0)
(0 0 0)
(0 0 0)
(0 0 0)
(0 0 0)
(0 0 0)
(0 0 0)
(0 0 0)
(0 0 0)
(0 0 0)
(0 0 0)
(0 0 0)
(0 0 0)
(0 0 0)
(0 0 0)
(0 0 0)
(0 0 0)
(0 0 0)
(0 0 0)
(0 0 0)
(0 0 0)
(0 0 0)
(0 0 0)
(0 0 0)
(0 0 0)
(0 0 0)
(0 0 0)
(0 0 0)
(0 0 0)
(0 0 0)
(0 0 0)
(0 0 0)
(0 0 0)
(0 0 0)
(0 0 0)
(0 0 0)
(0 0 0)
(0 0 0)
(0 0 0)
(0 0 0)
(0 0 0)
(0 0 0)
(0 0 0)
(0 0 0)
)
;

boundaryField
{
    inlet
    {
        type            zeroGradient;
    }
    outlet
    {
        type            zeroGradient;
    }
    wall
    {
        type            zeroGradient;
    }
    procBoundary2to0
    {
        type            processor;
        value           nonuniform List<vector> 
192
(
(-0.000354155 4.67664e-05 -2.45062e-05)
(-0.000588244 0.000108749 7.40816e-05)
(-0.000325362 0.000101829 0.000222238)
(0.000292325 0.000377779 7.02003e-05)
(-0.000862764 0.00119319 0.00754214)
(-0.000771052 0.00132807 0.00421062)
(0.00072469 0.000580372 0.00708881)
(0.000653053 0.000469311 0.0103646)
(-0.000646614 -0.000427568 0.0116885)
(-0.000646087 0.00100907 0.0105623)
(-0.000418773 7.36802e-05 0.0104969)
(-0.00117908 -9.3307e-06 0.0127198)
(0.000123565 -0.000295417 0.0119152)
(-0.000663616 9.5771e-06 0.011981)
(-0.000922022 0.000299684 0.0116589)
(-0.00109904 0.000437947 0.0118292)
(-0.000600586 -0.000200038 0.011972)
(-0.000769017 -0.000108951 0.0118737)
(-0.000823633 -0.000119051 0.0114697)
(-0.000500292 -6.83186e-05 0.0105569)
(0.000103442 0.00107753 0.0113779)
(-0.000353085 -7.38756e-05 0.0109888)
(-7.41235e-05 -0.000110819 0.0107269)
(2.38119e-05 0.00036895 0.0105502)
(0.000695384 0.00117547 0.0106887)
(0.000967166 -2.37756e-05 0.00984374)
(0.000831 -0.000140634 0.0098929)
(0.000804015 0.000755813 0.00941565)
(0 0 0)
(0 0 0)
(0 0 0)
(0 0 0)
(0 0 0)
(0 0 0)
(0 0 0)
(0 0 0)
(0 0 0)
(0 0 0)
(0 0 0)
(0 0 0)
(0 0 0)
(0 0 0)
(0 0 0)
(0 0 0)
(0 0 0)
(0 0 0)
(0 0 0)
(0 0 0)
(0 0 0)
(0 0 0)
(0 0 0)
(0 0 0)
(0 0 0)
(0 0 0)
(0 0 0)
(0 0 0)
(0 0 0)
(0 0 0)
(0 0 0)
(0 0 0)
(0 0 0)
(0 0 0)
(0 0 0)
(0 0 0)
(0 0 0)
(0 0 0)
(0 0 0)
(0 0 0)
(0 0 0)
(0 0 0)
(0 0 0)
(0 0 0)
(0 0 0)
(0 0 0)
(0 0 0)
(0 0 0)
(0 0 0)
(0 0 0)
(0 0 0)
(0 0 0)
(0 0 0)
(0 0 0)
(0 0 0)
(0 0 0)
(0 0 0)
(0 0 0)
(0 0 0)
(0 0 0)
(0 0 0)
(0 0 0)
(0 0 0)
(0 0 0)
(0 0 0)
(0 0 0)
(0 0 0)
(0 0 0)
(0.000206271 0.000269269 -7.8807e-05)
(8.63973e-06 8.91643e-05 -6.19962e-05)
(-0.000423244 0.000172496 -0.000139023)
(-0.000444644 9.82036e-05 -7.71333e-05)
(0.000125641 0.000942956 0.00568191)
(0.00120001 0.000903038 0.00635718)
(-0.000363744 0.00127726 0.00596677)
(-0.00110442 0.000265589 0.00687079)
(-0.000214197 0.000968974 0.00620149)
(0.000923504 0.000717526 0.00815771)
(-1.26766e-05 0.000904605 0.00861932)
(-0.000291242 0.000180093 0.0103446)
(-0.000736997 0.000520138 0.00754348)
(-0.000189623 0.000233518 0.0088796)
(-0.000637011 0.000400423 0.0114285)
(-0.00033004 -0.000256514 0.0121075)
(9.31608e-05 -0.000351638 0.00946208)
(0.000521936 9.92985e-05 0.00940936)
(-0.000478185 -0.000105744 0.0110142)
(-0.000115773 -0.000203588 0.0121069)
(9.27549e-05 0.000105134 0.00769226)
(0.000886084 -0.000572213 0.00973956)
(0.000835619 0.000850177 0.0102004)
(0.000445164 0.000919945 0.0111666)
(0.000375422 -3.25276e-05 0.00722314)
(0.000745943 -0.000994825 0.00963633)
(0.000354292 0.000671023 0.00984641)
(0.00138146 0.00121124 0.0100596)
(0 0 0)
(0 0 0)
(0 0 0)
(0 0 0)
(0 0 0)
(0 0 0)
(0 0 0)
(0 0 0)
(0 0 0)
(0 0 0)
(0 0 0)
(0 0 0)
(0 0 0)
(0 0 0)
(0 0 0)
(0 0 0)
(0 0 0)
(0 0 0)
(0 0 0)
(0 0 0)
(0 0 0)
(0 0 0)
(0 0 0)
(0 0 0)
(0 0 0)
(0 0 0)
(0 0 0)
(0 0 0)
(0 0 0)
(0 0 0)
(0 0 0)
(0 0 0)
(0 0 0)
(0 0 0)
(0 0 0)
(0 0 0)
(0 0 0)
(0 0 0)
(0 0 0)
(0 0 0)
(0 0 0)
(0 0 0)
(0 0 0)
(0 0 0)
(0 0 0)
(0 0 0)
(0 0 0)
(0 0 0)
(0 0 0)
(0 0 0)
(0 0 0)
(0 0 0)
(0 0 0)
(0 0 0)
(0 0 0)
(0 0 0)
(0 0 0)
(0 0 0)
(0 0 0)
(0 0 0)
(0 0 0)
(0 0 0)
(0 0 0)
(0 0 0)
(0 0 0)
(0 0 0)
(0 0 0)
(0 0 0)
)
;
    }
    procBoundary2to3
    {
        type            processor;
        value           nonuniform List<vector> 
192
(
(-0.000594699 0.000587793 0.000162149)
(-0.000758549 -0.000483259 0.00029118)
(0.000227987 -6.60085e-05 -1.00602e-05)
(-0.000342566 -0.000607462 9.3547e-05)
(-0.00483336 -0.00206806 0.00638119)
(-0.00100809 -0.00168807 0.0057754)
(-0.000482982 -0.000871953 0.00539549)
(-0.00050022 -0.0019044 0.00704045)
(-0.000491227 0.00033278 0.0105899)
(-0.000780465 -0.000105037 0.0097358)
(-0.000818495 -0.000749002 0.0099168)
(-0.00103361 -0.00120913 0.00984769)
(-0.000494053 -0.000377445 0.010363)
(-0.000770396 -0.000848221 0.0103841)
(-0.000270618 -0.000899628 0.00984965)
(-9.04435e-05 -0.00104301 0.00945928)
(-0.000241523 -0.000252828 0.0100746)
(-5.82357e-05 -0.000523838 0.00973703)
(-2.23029e-05 -0.000700081 0.00947569)
(-0.000144138 -0.000320105 0.00926493)
(3.82017e-05 -8.20956e-05 0.00965079)
(0.000210764 -0.000104293 0.00951872)
(0.000254658 5.0488e-05 0.00887817)
(0.000215396 0.000465546 0.00863449)
(0.00104601 0.000729423 0.00879406)
(0.000507649 0.000847915 0.00834261)
(0.000776609 0.000619663 0.00801898)
(-0.000159751 0.000483369 0.00845971)
(0 0 0)
(0 0 0)
(0 0 0)
(0 0 0)
(0 0 0)
(0 0 0)
(0 0 0)
(0 0 0)
(0 0 0)
(0 0 0)
(0 0 0)
(0 0 0)
(0 0 0)
(0 0 0)
(0 0 0)
(0 0 0)
(0 0 0)
(0 0 0)
(0 0 0)
(0 0 0)
(0 0 0)
(0 0 0)
(0 0 0)
(0 0 0)
(0 0 0)
(0 0 0)
(0 0 0)
(0 0 0)
(0 0 0)
(0 0 0)
(0 0 0)
(0 0 0)
(0 0 0)
(0 0 0)
(0 0 0)
(0 0 0)
(0 0 0)
(0 0 0)
(0 0 0)
(0 0 0)
(0 0 0)
(0 0 0)
(0 0 0)
(0 0 0)
(0 0 0)
(0 0 0)
(0 0 0)
(0 0 0)
(0 0 0)
(0 0 0)
(0 0 0)
(0 0 0)
(0 0 0)
(0 0 0)
(0 0 0)
(0 0 0)
(0 0 0)
(0 0 0)
(0 0 0)
(0 0 0)
(0 0 0)
(0 0 0)
(0 0 0)
(0 0 0)
(0 0 0)
(0 0 0)
(0 0 0)
(0 0 0)
(0.000103727 0.000465807 -0.000217159)
(8.92392e-05 0.000368352 6.83732e-05)
(-8.26108e-05 0.000215234 4.17488e-05)
(-0.000319038 0.000116471 -0.00128802)
(0.000255142 -0.00121533 0.00397709)
(0.000460015 -0.000663733 0.007732)
(0.000813847 -0.00114791 0.00688961)
(0.00148367 -0.00113346 0.00583625)
(-0.00066608 -0.00219408 0.00889838)
(-0.000293921 -0.00226502 0.00919986)
(-0.000953972 -0.00192202 0.00843042)
(-0.00158547 -0.00226607 0.00934347)
(-0.000176177 -0.00115777 0.00922683)
(-0.000430608 -0.00109616 0.00825952)
(-0.000872699 -0.000349022 0.00743389)
(-0.000826299 -0.000804153 0.00820032)
(0.000243639 0.000388579 0.00933016)
(0.000180796 -0.000284814 0.00824906)
(0.000218927 -5.85452e-06 0.00699729)
(0.000216825 8.90739e-05 0.00638984)
(4.47825e-05 0.000518479 0.00886772)
(9.28903e-05 0.000406958 0.00768678)
(0.000173406 -1.60806e-05 0.00717273)
(0.000360829 -0.000373455 0.00483903)
(0.000172324 0.000419431 0.00777078)
(8.317e-05 0.000759779 0.00688534)
(-0.000818873 0.00120374 0.00667911)
(0.00148186 0.000697699 0.00425428)
(0 0 0)
(0 0 0)
(0 0 0)
(0 0 0)
(0 0 0)
(0 0 0)
(0 0 0)
(0 0 0)
(0 0 0)
(0 0 0)
(0 0 0)
(0 0 0)
(0 0 0)
(0 0 0)
(0 0 0)
(0 0 0)
(0 0 0)
(0 0 0)
(0 0 0)
(0 0 0)
(0 0 0)
(0 0 0)
(0 0 0)
(0 0 0)
(0 0 0)
(0 0 0)
(0 0 0)
(0 0 0)
(0 0 0)
(0 0 0)
(0 0 0)
(0 0 0)
(0 0 0)
(0 0 0)
(0 0 0)
(0 0 0)
(0 0 0)
(0 0 0)
(0 0 0)
(0 0 0)
(0 0 0)
(0 0 0)
(0 0 0)
(0 0 0)
(0 0 0)
(0 0 0)
(0 0 0)
(0 0 0)
(0 0 0)
(0 0 0)
(0 0 0)
(0 0 0)
(0 0 0)
(0 0 0)
(0 0 0)
(0 0 0)
(0 0 0)
(0 0 0)
(0 0 0)
(0 0 0)
(0 0 0)
(0 0 0)
(0 0 0)
(0 0 0)
(0 0 0)
(0 0 0)
(0 0 0)
(0 0 0)
)
;
    }
}


// ************************************************************************* //
