/*--------------------------------*- C++ -*----------------------------------*\
| =========                 |                                                 |
| \\      /  F ield         | OpenFOAM: The Open Source CFD Toolbox           |
|  \\    /   O peration     | Version:  2506                                  |
|   \\  /    A nd           | Website:  www.openfoam.com                      |
|    \\/     M anipulation  |                                                 |
\*---------------------------------------------------------------------------*/
FoamFile
{
    version     2.0;
    format      ascii;
    arch        "LSB;label=32;scalar=64";
    class       volScalarField;
    location    "0.09";
    object      p;
}
// * * * * * * * * * * * * * * * * * * * * * * * * * * * * * * * * * * * * * //

dimensions      [0 2 -2 0 0 0 0];

internalField   nonuniform List<scalar> 
1152
(
15.4244
15.5883
15.7469
15.9187
15.7562
15.7695
16.0315
15.9672
15.718
15.8649
15.9346
15.9922
15.4672
15.7979
15.5851
15.9293
13.3178
13.3162
13.4313
13.3388
13.5299
13.6448
13.4873
13.6178
13.3204
13.559
13.5373
13.8729
12.7425
13.5165
13.1784
14.117
11.7744
11.3857
11.1873
10.9273
11.5587
11.4429
11.1825
11.4475
11.0342
11.5154
11.5803
11.6127
11.7271
11.6868
12.2852
11.4487
8.96703
8.0518
7.75075
7.73194
8.44049
8.2995
8.0448
7.85477
8.42501
8.2065
8.30717
7.5492
8.75313
8.43954
8.33048
7.85346
5.08313
4.93088
4.454
3.77727
4.92184
4.93928
4.73131
3.55676
5.94073
4.89687
4.76378
4.44336
6.02778
5.37614
4.95262
4.72314
1.71202
1.65005
1.67093
1.4523
2.02695
1.83756
1.65277
1.58335
2.19687
1.84399
1.64466
1.43332
3.2202
1.78549
1.44024
1.42311
1.01888
1.02998
1.00591
1.02806
1.02639
0.983013
1.01813
1.11045
0.99911
1.02044
0.996433
1.01263
1.0099
0.978529
1.01444
1.0062
1.00423
1.00786
1.00763
1.00697
1.00157
1.0041
1.00544
1.01114
1.0006
1.00084
1.00058
1.00168
1.00275
1.00059
0.998392
0.997448
1.00987
1.0107
1.01002
1.01022
1.00794
1.00735
1.00802
1.0084
1.00637
1.00648
1.00593
1.00627
1.00462
1.00385
1.00457
1.00459
1.00633
1.00674
1.00653
1.00641
1.00543
1.00536
1.00546
1.00539
1.00456
1.00455
1.00428
1.00419
1.00347
1.00324
1.00328
1.00312
1.00514
1.00542
1.00541
1.00537
1.00455
1.00471
1.00475
1.00471
1.00408
1.00412
1.00405
1.00398
1.00347
1.00343
1.00337
1.0033
1.00418
1.00435
1.00438
1.00436
1.00382
1.00394
1.00397
1.00395
1.0035
1.00355
1.00354
1.00349
1.00314
1.00314
1.0031
1.00305
1.00352
1.00363
1.00367
1.00367
1.00329
1.00338
1.00341
1.0034
1.00308
1.00312
1.00312
1.0031
1.00285
1.00286
1.00284
1.00281
1.00303
1.0031
1.00313
1.00313
1.00287
1.00293
1.00295
1.00296
1.00272
1.00276
1.00277
1.00276
1.00258
1.00259
1.00258
1.00256
1.00262
1.00267
1.00269
1.0027
1.00252
1.00255
1.00257
1.00258
1.00241
1.00244
1.00245
1.00245
1.00231
1.00232
1.00232
1.00231
1.00227
1.0023
1.00232
1.00232
1.0022
1.00222
1.00224
1.00224
1.00213
1.00215
1.00215
1.00215
1.00206
1.00207
1.00207
1.00206
1.00195
1.00198
1.00199
1.00199
1.00191
1.00192
1.00193
1.00194
1.00186
1.00187
1.00188
1.00188
1.00181
1.00182
1.00182
1.00182
1.00166
1.00168
1.00169
1.00169
1.00163
1.00164
1.00165
1.00165
1.0016
1.00161
1.00161
1.00161
1.00156
1.00157
1.00157
1.00157
1.00139
1.0014
1.00141
1.00141
1.00137
1.00138
1.00138
1.00138
1.00134
1.00135
1.00135
1.00135
1.00132
1.00132
1.00133
1.00133
1.00113
1.00113
1.00114
1.00114
1.00111
1.00112
1.00112
1.00112
1.00109
1.0011
1.0011
1.0011
1.00108
1.00108
1.00108
1.00108
1.00087
1.00087
1.00088
1.00088
1.00086
1.00086
1.00087
1.00087
1.00085
1.00085
1.00085
1.00085
1.00084
1.00084
1.00084
1.00084
1.00062
1.00062
1.00062
1.00062
1.00061
1.00061
1.00062
1.00062
1.0006
1.00061
1.00061
1.00061
1.0006
1.0006
1.0006
1.0006
1.00037
1.00037
1.00037
1.00037
1.00037
1.00037
1.00037
1.00037
1.00036
1.00036
1.00036
1.00036
1.00036
1.00036
1.00036
1.00036
1.00012
1.00012
1.00012
1.00012
1.00012
1.00012
1.00012
1.00012
1.00012
1.00012
1.00012
1.00012
1.00012
1.00012
1.00012
1.00012
14.8826
15.3407
15.6393
15.4937
14.8846
15.1999
15.376
15.6441
14.405
15.4154
15.4478
15.5986
14.9396
15.4303
15.6042
15.7315
12.8783
12.8788
13.1539
13.2535
12.6169
12.8978
13.3333
13.2229
11.993
12.716
13.257
13.3976
12.3959
12.8811
13.4516
13.1975
11.5273
10.4717
10.4556
10.3521
10.9114
10.4104
10.5818
10.4055
11.1866
10.0906
10.4352
10.5397
12.1313
10.6735
10.4312
10.3076
7.19536
6.40129
6.7382
7.19731
7.01834
5.63468
6.62077
7.33795
7.18718
3.18124
6.36842
7.09039
8.50433
6.98456
6.94207
7.25499
4.00414
3.31982
3.91551
4.17821
3.81913
2.54919
3.68471
3.76048
4.51705
2.73852
3.44441
3.68753
4.87283
5.30695
4.12353
3.62288
1.35827
1.71551
1.79862
1.66576
1.44743
1.69433
1.7409
1.66045
1.53352
3.92602
1.7837
1.30934
1.3875
2.05108
1.53691
1.22126
1.00024
1.00461
0.98974
0.98573
1.01939
1.06493
1.00357
0.980203
1.04792
1.19652
1.04889
1.01578
1.02893
1.07361
1.03716
1.04541
1.00335
1.00652
1.0026
0.998004
1.00732
1.01407
1.00643
1.00123
1.01256
1.02482
1.01133
1.00421
1.00928
1.01611
1.0113
1.00707
1.01036
1.01298
1.01025
1.01002
1.01162
1.0145
1.0108
1.0098
1.01281
1.01619
1.01245
1.0108
1.01138
1.01354
1.012
1.01107
1.00709
1.0081
1.00718
1.00658
1.00744
1.00846
1.00736
1.00665
1.0076
1.00863
1.0076
1.00682
1.007
1.00778
1.00731
1.00682
1.00604
1.0066
1.00626
1.00601
1.00603
1.00654
1.00619
1.00593
1.00595
1.00642
1.00612
1.00589
1.0056
1.00599
1.00588
1.00577
1.00487
1.00516
1.005
1.00483
1.00483
1.00509
1.00495
1.0048
1.00472
1.00496
1.00485
1.00473
1.00448
1.00469
1.00467
1.00462
1.00403
1.00419
1.00413
1.00403
1.00398
1.00413
1.00408
1.004
1.00388
1.00402
1.00399
1.00394
1.00372
1.00385
1.00387
1.00385
1.00338
1.00347
1.00345
1.00338
1.00334
1.00343
1.00341
1.00335
1.00327
1.00335
1.00335
1.00331
1.00316
1.00324
1.00326
1.00325
1.00286
1.00292
1.00291
1.00286
1.00284
1.00289
1.00289
1.00284
1.00279
1.00284
1.00284
1.00281
1.00271
1.00276
1.00278
1.00277
1.00244
1.00247
1.00247
1.00243
1.00242
1.00245
1.00245
1.00242
1.00238
1.00242
1.00242
1.0024
1.00233
1.00236
1.00238
1.00237
1.00207
1.00209
1.00209
1.00207
1.00206
1.00208
1.00208
1.00206
1.00203
1.00206
1.00206
1.00204
1.002
1.00202
1.00203
1.00203
1.00175
1.00176
1.00176
1.00174
1.00174
1.00175
1.00175
1.00173
1.00172
1.00173
1.00173
1.00173
1.0017
1.00171
1.00172
1.00171
1.00145
1.00145
1.00145
1.00144
1.00144
1.00145
1.00145
1.00144
1.00143
1.00144
1.00144
1.00143
1.00141
1.00142
1.00142
1.00142
1.00117
1.00117
1.00117
1.00116
1.00116
1.00117
1.00117
1.00116
1.00115
1.00116
1.00116
1.00115
1.00114
1.00115
1.00115
1.00115
1.0009
1.0009
1.0009
1.00089
1.00089
1.0009
1.0009
1.00089
1.00089
1.00089
1.00089
1.00089
1.00088
1.00088
1.00089
1.00089
1.00064
1.00064
1.00064
1.00063
1.00063
1.00064
1.00064
1.00063
1.00063
1.00063
1.00063
1.00063
1.00063
1.00063
1.00063
1.00063
1.00038
1.00038
1.00038
1.00038
1.00038
1.00038
1.00038
1.00038
1.00038
1.00038
1.00038
1.00038
1.00037
1.00038
1.00038
1.00038
1.00013
1.00013
1.00013
1.00013
1.00013
1.00013
1.00013
1.00013
1.00013
1.00013
1.00013
1.00013
1.00012
1.00012
1.00012
1.00012
15.9185
15.8328
15.7759
15.6313
16.1064
16.1292
16.1358
15.8142
16.1668
16.0584
16.0032
15.9821
16.3279
16.3611
15.9972
15.9183
13.4052
13.5686
13.5028
13.6167
13.5681
13.4582
13.2803
13.3542
13.6148
13.5028
13.3219
13.2525
13.3208
13.3562
13.058
12.1074
10.6625
10.7216
11.1795
10.8554
11.0075
10.7409
10.6032
10.8494
10.9801
10.6837
9.68817
9.00874
10.8105
10.0682
8.23456
6.20201
7.76686
7.24445
7.09532
7.2675
7.67032
7.38869
7.34232
7.21056
7.74027
7.60646
7.07912
6.92452
8.10943
7.65948
6.17966
5.16892
3.86471
3.65257
3.03824
3.63673
4.06531
4.37303
4.36799
4.62035
4.60455
5.14981
5.76791
6.18573
4.96056
5.5679
7.19528
8.85988
1.41899
1.67672
0.805436
1.00421
1.48757
1.52059
1.5212
1.21283
1.6151
1.3728
1.3821
1.61721
1.51885
1.52692
1.49258
1.89365
1.00973
1.02333
1.09699
0.988071
1.00989
0.994221
0.999911
0.994827
0.996776
1.00807
1.02033
1.00721
0.999956
1.01342
1.03744
1.06398
1.00437
1.004
1.00535
0.999487
1.00406
1.00136
0.99893
0.997057
1.00035
1.00018
1.00068
1.00069
0.997669
0.999399
1.00333
1.00704
1.00955
1.00955
1.00935
1.00897
1.00783
1.00754
1.00777
1.0077
1.0059
1.00639
1.0072
1.00685
1.00456
1.00568
1.00756
1.00914
1.00599
1.00601
1.00594
1.00571
1.00513
1.00509
1.00512
1.00497
1.00399
1.0041
1.0043
1.00403
1.00303
1.00334
1.00388
1.00421
1.00528
1.00533
1.00532
1.00531
1.00467
1.00471
1.00474
1.00475
1.00391
1.00394
1.00397
1.00394
1.00324
1.00332
1.00348
1.00361
1.00432
1.00437
1.0044
1.00439
1.00394
1.004
1.00402
1.00402
1.00346
1.00348
1.00349
1.00346
1.00301
1.00303
1.00307
1.0031
1.00367
1.00372
1.00374
1.00375
1.00341
1.00345
1.00347
1.00348
1.00309
1.0031
1.0031
1.00309
1.00278
1.00278
1.00279
1.00279
1.00314
1.00317
1.00319
1.0032
1.00296
1.00299
1.00301
1.00301
1.00276
1.00276
1.00277
1.00276
1.00255
1.00254
1.00254
1.00253
1.0027
1.00273
1.00274
1.00275
1.00258
1.0026
1.00262
1.00262
1.00245
1.00245
1.00246
1.00245
1.0023
1.0023
1.0023
1.00229
1.00233
1.00234
1.00236
1.00236
1.00225
1.00226
1.00227
1.00227
1.00216
1.00216
1.00216
1.00216
1.00206
1.00206
1.00206
1.00205
1.002
1.00201
1.00202
1.00202
1.00194
1.00195
1.00196
1.00196
1.00188
1.00189
1.00189
1.00189
1.00181
1.00181
1.00181
1.00181
1.00169
1.0017
1.00171
1.00171
1.00166
1.00166
1.00167
1.00167
1.00161
1.00162
1.00162
1.00162
1.00157
1.00157
1.00157
1.00157
1.00141
1.00142
1.00142
1.00142
1.00139
1.00139
1.00139
1.00139
1.00136
1.00136
1.00136
1.00136
1.00133
1.00133
1.00133
1.00133
1.00114
1.00114
1.00115
1.00115
1.00112
1.00113
1.00113
1.00113
1.0011
1.00111
1.00111
1.00111
1.00108
1.00108
1.00108
1.00108
1.00088
1.00088
1.00088
1.00088
1.00087
1.00087
1.00087
1.00087
1.00086
1.00086
1.00086
1.00086
1.00084
1.00084
1.00084
1.00084
1.00062
1.00063
1.00063
1.00063
1.00062
1.00062
1.00062
1.00062
1.00061
1.00061
1.00061
1.00061
1.0006
1.0006
1.0006
1.0006
1.00037
1.00037
1.00037
1.00037
1.00037
1.00037
1.00037
1.00037
1.00036
1.00037
1.00037
1.00037
1.00036
1.00036
1.00036
1.00036
1.00012
1.00012
1.00012
1.00012
1.00012
1.00012
1.00012
1.00012
1.00012
1.00012
1.00012
1.00012
1.00012
1.00012
1.00012
1.00012
)
;

boundaryField
{
    inlet
    {
        type            zeroGradient;
    }
    outlet
    {
        type            fixedValue;
        value           uniform 1;
    }
    wall
    {
        type            zeroGradient;
    }
    procBoundary1to0
    {
        type            processor;
        value           nonuniform List<scalar> 
192
(
15.9638
16.0424
15.8451
15.4835
12.5715
13.3343
13.0796
12.9222
11.3316
11.252
9.8861
11.8155
10.2952
8.97526
8.93089
9.64916
5.2205
5.58622
7.17857
7.33276
1.89276
2.22661
2.30099
2.76533
1.00639
0.989699
1.04893
1.01011
1.00147
1.00192
0.999691
1.00026
1.00813
1.00588
1.0074
1.00541
1.00553
1.0046
1.00462
1.00362
1.00468
1.0042
1.00392
1.00344
1.0039
1.0036
1.00337
1.00309
1.00335
1.00316
1.00299
1.00281
1.00292
1.00278
1.00266
1.00254
1.00255
1.00246
1.00237
1.00229
1.00222
1.00216
1.0021
1.00204
1.00193
1.00188
1.00184
1.00179
1.00165
1.00162
1.00158
1.00155
1.00138
1.00136
1.00133
1.00131
1.00112
1.0011
1.00109
1.00107
1.00087
1.00086
1.00084
1.00083
1.00062
1.00061
1.0006
1.0006
1.00037
1.00036
1.00036
1.00036
1.00012
1.00012
1.00012
1.00012
15.1379
14.2356
12.8915
14.8185
12.6744
12.3388
12.5515
13.9974
10.9146
11.9765
16.5753
12.5139
8.00277
8.14543
8.72226
9.02219
4.71603
4.64895
4.43416
4.87149
1.86812
1.52988
1.17367
1.52073
0.992788
0.997598
1.03124
1.0109
0.999823
1.00312
1.00682
1.00482
1.00847
1.00892
1.01049
1.00925
1.00584
1.00601
1.00635
1.00592
1.00535
1.00529
1.00531
1.00503
1.00446
1.00441
1.00434
1.00415
1.00377
1.00373
1.00365
1.00352
1.00322
1.00319
1.00313
1.00304
1.00276
1.00274
1.00269
1.00263
1.00237
1.00236
1.00232
1.00228
1.00203
1.00202
1.002
1.00197
1.00172
1.00171
1.0017
1.00167
1.00143
1.00142
1.00141
1.0014
1.00115
1.00115
1.00114
1.00113
1.00089
1.00089
1.00088
1.00087
1.00063
1.00063
1.00063
1.00062
1.00038
1.00038
1.00037
1.00037
1.00013
1.00013
1.00012
1.00012
)
;
    }
    procBoundary1to3
    {
        type            processor;
        value           nonuniform List<scalar> 
192
(
15.1067
15.6354
15.7987
16.2182
12.3731
13.1541
13.4536
13.666
12.1076
11.4822
11.7882
11.3856
11.2825
7.85261
8.22846
8.29512
3.89907
4.87106
4.89326
4.53612
2.99857
2.5505
1.90468
1.71468
1.02907
1.00199
0.986947
0.994095
1.00097
0.998647
0.99568
0.994576
1.00454
1.00286
1.00212
1.00213
1.00296
1.00239
1.00195
1.00177
1.00311
1.00289
1.00264
1.00248
1.00289
1.00279
1.00267
1.00256
1.00267
1.00263
1.00257
1.0025
1.00245
1.00243
1.0024
1.00236
1.00222
1.00222
1.0022
1.00218
1.00199
1.00199
1.00199
1.00198
1.00176
1.00176
1.00176
1.00176
1.00153
1.00153
1.00153
1.00153
1.00129
1.0013
1.0013
1.0013
1.00106
1.00106
1.00106
1.00106
1.00083
1.00083
1.00083
1.00083
1.00059
1.00059
1.00059
1.00059
1.00035
1.00035
1.00035
1.00036
1.00012
1.00012
1.00012
1.00012
16.2101
16.2707
16.2205
16.0978
13.8939
13.9747
13.4016
13.1394
11.2382
10.7191
10.1674
9.50046
7.99344
7.61046
7.25757
7.14968
4.73151
4.78126
5.13949
6.2443
1.66478
1.61762
1.8413
1.92393
0.995885
1.003
1.00546
1.01041
0.994131
0.994923
0.996548
0.998115
1.00228
1.00281
1.0033
1.0036
1.00161
1.00161
1.00171
1.00168
1.00238
1.0023
1.00228
1.00229
1.00247
1.0024
1.00236
1.00234
1.00244
1.00239
1.00235
1.00234
1.00232
1.00229
1.00227
1.00225
1.00216
1.00213
1.00212
1.00211
1.00196
1.00195
1.00194
1.00193
1.00175
1.00174
1.00174
1.00173
1.00153
1.00152
1.00152
1.00152
1.0013
1.00129
1.00129
1.00129
1.00106
1.00106
1.00106
1.00106
1.00083
1.00083
1.00083
1.00083
1.00059
1.00059
1.00059
1.00059
1.00036
1.00036
1.00036
1.00036
1.00012
1.00012
1.00012
1.00012
)
;
    }
}


// ************************************************************************* //
