/*--------------------------------*- C++ -*----------------------------------*\
| =========                 |                                                 |
| \\      /  F ield         | OpenFOAM: The Open Source CFD Toolbox           |
|  \\    /   O peration     | Version:  2506                                  |
|   \\  /    A nd           | Website:  www.openfoam.com                      |
|    \\/     M anipulation  |                                                 |
\*---------------------------------------------------------------------------*/
FoamFile
{
    version     2.0;
    format      ascii;
    arch        "LSB;label=32;scalar=64";
    class       volVectorField;
    location    "0.09";
    object      stored_U;
}
// * * * * * * * * * * * * * * * * * * * * * * * * * * * * * * * * * * * * * //

dimensions      [0 1 -1 0 0 0 0];

internalField   nonuniform List<vector> 
1152
(
(0.00681235 -0.00405002 0.0448949)
(-0.00208751 0.000711319 0.0117265)
(-0.0030196 -0.000197387 0.0168404)
(-0.00180289 0.000694119 0.0233245)
(0.00167063 0.00181837 0.0178327)
(-0.00385973 0.00271546 0.0315814)
(0.000181539 0.000948257 0.00337585)
(-0.00103666 0.00406674 0.0190951)
(0.00045716 0.0100074 0.024209)
(-0.000621714 0.00357566 0.0157765)
(-0.00171351 0.0112243 0.0176383)
(-0.00798832 0.00627451 0.0246709)
(-0.000424858 0.00324516 0.0153555)
(0.000373899 0.00264174 0.0143709)
(-0.00482082 0.00715023 0.0420787)
(-0.0301996 -0.00231794 0.0380091)
(-0.00518 0.000594897 0.0211893)
(-0.00253726 -0.0021345 0.0495546)
(-0.00279515 0.00611263 0.0456554)
(0.00140627 0.00159452 0.0130893)
(-0.00491153 0.00526038 0.0318287)
(-0.00132868 0.00251048 0.0275205)
(0.00112399 0.00478277 0.0426399)
(-0.000587376 0.00168552 0.0506766)
(-0.00611032 0.00920695 0.038677)
(-0.0048628 0.00447798 0.0357936)
(-0.00319122 0.00663677 0.0185666)
(-0.00266201 -0.000105325 0.0304415)
(-0.000499779 0.000642431 0.00499124)
(-0.000184259 0.00307099 0.0221651)
(-0.00131901 0.000136964 0.0032538)
(-0.00381039 0.00257381 0.0149449)
(-0.0102018 0.00768064 0.0665264)
(-1.41501e-05 0.000545327 0.0162827)
(0.00171228 -0.000395456 0.0347703)
(0.000131303 0.00128646 0.00838679)
(-0.00265901 0.0012589 0.0221199)
(0.000159305 -0.000267878 0.0347895)
(0.000452811 -0.000699517 0.0221324)
(0.00146409 -0.00445297 0.0511438)
(-0.00953086 -0.00698945 0.0288134)
(-0.00280395 -0.00253937 0.0264523)
(0.00029008 -0.0130954 0.0390714)
(0.00200458 0.000211884 0.0151056)
(-0.00843076 -0.00736958 0.0423296)
(0.00026237 0.00167899 0.0416817)
(0.00707842 -0.000803744 0.0517848)
(0.0132231 0.00195471 0.0357103)
(0.00247164 0.00177867 0.0341312)
(0.00310467 -0.00140707 0.0505971)
(0.00143192 -0.000857641 0.0332854)
(-0.00125377 0.000473208 0.018624)
(-0.00075902 0.00259217 0.0299506)
(-0.00125453 0.00139226 0.0245768)
(0.00140861 -0.00416915 0.0626716)
(0.00238888 0.000973242 0.0556854)
(-0.000358918 -0.00243394 0.0485952)
(-0.00221805 -0.00042092 0.0392817)
(0.00154629 -0.00118232 0.0337804)
(0.00192923 0.000600061 0.0270288)
(-0.000545872 -9.37607e-05 0.0117818)
(-0.000679587 0.00261429 0.0327991)
(0.00446083 0.00160545 0.0564101)
(0.000410739 -0.000984417 0.0180756)
(0.0013084 0.000652295 0.0584304)
(0.000448643 0.000770671 0.0261653)
(0.00167969 -0.00204084 0.041419)
(0.000910357 -0.00178985 0.0421942)
(0.0020276 -0.0041808 0.0389349)
(-0.0017379 0.000276842 0.0285995)
(-0.000136014 0.00019148 0.0263687)
(0.00298718 -0.00201946 0.0390868)
(0.00485042 -0.00333797 0.0241634)
(0.00582981 -0.00293502 0.0483475)
(-0.000396851 0.000391184 0.0255431)
(0.00103026 -0.000480047 0.0497128)
(0.0113693 0.0141919 0.0633292)
(-0.000168689 -4.65593e-05 0.0133266)
(0.00757548 0.000193497 0.0897661)
(0.000233699 0.0020505 0.0560018)
(0.000734826 -0.00191727 0.0172144)
(-0.000381999 -0.00224041 0.0401773)
(-0.000260355 -0.000948437 0.0220006)
(0.00236847 -0.00409233 0.0369814)
(0.00427177 -0.00562465 0.047122)
(0.000381624 -0.000526283 0.0164492)
(0.000302466 0.000292431 0.0345952)
(-0.000251756 -9.78161e-05 0.00878576)
(0.00218995 -0.00593838 0.0326871)
(0.00547111 0.00104849 0.045735)
(0.00219894 0.00143724 0.0282918)
(8.33231e-05 0.000860273 0.0168869)
(0.000784432 -0.000251589 0.0113852)
(0.00301826 -0.00127095 0.0164524)
(0.00199994 -0.0012227 0.0265278)
(-7.75627e-05 -0.000619359 0.0205984)
(-2.73622e-05 -0.00152963 0.0251441)
(0.000383185 0.000304294 0.0320329)
(-0.0001532 -0.000971684 0.017113)
(-0.00116989 0.000512107 0.0329578)
(0.000862424 0.000491911 0.0318916)
(0.000298811 -0.000289785 0.0140884)
(0.00040623 -0.000604391 0.0250883)
(-1.49335e-05 -0.000273426 0.0128655)
(0.000155547 0.000499768 0.0197491)
(0.000500586 0.000111423 0.0354858)
(0.000819954 -0.000745564 0.0197572)
(0.00108888 -0.00144185 0.0228003)
(0.000679646 0.000412163 0.0240065)
(0.000286193 0.000486836 0.0171511)
(-0.00172184 0.0012113 0.0441761)
(0.00204732 0.000206396 0.027823)
(0.00126887 -0.00299394 0.036417)
(0.00107459 -0.00197826 0.0334269)
(0.000879919 -0.00136567 0.0226116)
(0.000787347 -0.000681962 0.037171)
(0.00518445 -0.00115445 0.0315357)
(0.00215795 -0.000570508 0.0114407)
(0.00094328 -0.000229585 0.0242492)
(0.00165938 0.000273757 0.021721)
(0.00186325 0.000302103 0.0210822)
(0.00203205 -7.06389e-05 0.034185)
(0.00176431 -2.53557e-06 0.0247244)
(0.00142354 0.00130655 0.027797)
(-3.79443e-05 0.00143517 0.0185936)
(0.00166566 0.000826359 0.0109707)
(0.00200719 0.00131188 0.0416098)
(0.0018516 0.00125897 0.0371781)
(-0.00050129 0.00181293 0.01309)
(0.000823659 0.0021847 0.0123347)
(-0.000258156 0.00110865 0.0107311)
(-0.000393564 0.00187772 0.0125688)
(-0.00245291 0.000715461 0.0130903)
(-0.000351741 0.000240219 0.0108579)
(-0.00116935 -2.3134e-06 0.0106637)
(-0.000821378 0.000773314 0.0111522)
(0.00115372 -0.000262844 0.0120964)
(9.86164e-05 -0.000648869 0.0129526)
(0.000113329 -0.00149215 0.0114723)
(-0.000210949 -0.000826102 0.0110232)
(0.0022505 -0.00168628 0.0118522)
(-0.00160414 0.000197913 0.0121727)
(-0.00140301 -0.000312507 0.0152965)
(-1.62742e-05 3.48224e-05 0.0135258)
(0.000299739 0.000602928 0.0197105)
(0.000667176 0.000747769 0.019501)
(0.00016034 0.000233301 0.0187532)
(-8.19991e-05 0.000397637 0.019625)
(-0.000115401 0.000165302 0.0184664)
(0.000236395 -3.20041e-05 0.0182784)
(-0.000249998 -0.000221721 0.0183793)
(-0.000404912 4.71411e-05 0.0189023)
(0.000848202 -5.72211e-05 0.0190512)
(0.00026264 -0.000420933 0.0194983)
(0.000143978 -0.000795391 0.0190467)
(-0.000141352 -0.000550839 0.0191721)
(0.000971161 -0.000555261 0.0185866)
(-0.000535134 -6.81534e-05 0.0191119)
(-0.000445056 -0.000269848 0.0204424)
(-0.000153252 -8.15399e-05 0.0203494)
(0.000284475 0.000295254 0.0178101)
(0.000291954 0.000322313 0.0176225)
(4.02431e-05 0.000135915 0.0172203)
(-0.000209025 0.000232062 0.0174204)
(0.00020475 6.54723e-05 0.0174691)
(0.000127693 4.25722e-06 0.017289)
(-0.000100164 -7.71855e-05 0.0171772)
(-0.000312162 2.39283e-05 0.0173178)
(0.000422336 -6.94169e-05 0.0177185)
(0.000129325 -0.000193356 0.0177376)
(1.32211e-05 -0.000312384 0.0175018)
(-0.000177563 -0.000227263 0.0174981)
(0.000396394 -0.000232872 0.0174982)
(-0.000143455 -0.000126985 0.0176835)
(-0.000174296 -0.000177385 0.0179727)
(-0.000217435 -8.6774e-05 0.0179442)
(0.000228415 0.000114949 0.0182264)
(0.000194942 0.000103354 0.0181476)
(7.94477e-05 1.33009e-05 0.0179897)
(-5.5181e-05 1.38325e-05 0.0180539)
(0.000197253 1.44051e-05 0.0181081)
(0.000118169 -1.67505e-05 0.0180506)
(8.71033e-06 -6.37775e-05 0.0179853)
(-0.000126764 -5.17465e-05 0.0180412)
(0.000238318 -4.78516e-05 0.01822)
(0.000104737 -9.80499e-05 0.0182035)
(2.30833e-05 -0.000144138 0.0181164)
(-9.57823e-05 -0.000130615 0.0181188)
(0.000202507 -9.80733e-05 0.0181596)
(5.37806e-06 -8.43894e-05 0.0182183)
(-4.55868e-05 -9.82791e-05 0.0182705)
(-0.000130546 -6.17077e-05 0.0182803)
(0.000160516 3.86089e-05 0.0182823)
(0.000124721 3.0253e-05 0.0182268)
(5.91496e-05 -4.1221e-06 0.0181371)
(-2.19637e-05 -4.66581e-06 0.0181149)
(0.00014672 -5.79121e-07 0.0182586)
(9.50437e-05 -1.49446e-05 0.0182212)
(3.23078e-05 -3.40889e-05 0.0181708)
(-4.77362e-05 -3.36478e-05 0.0181625)
(0.000150053 -2.85727e-05 0.0183119)
(8.50384e-05 -4.91929e-05 0.018286)
(3.14225e-05 -6.61008e-05 0.0182389)
(-3.79974e-05 -6.40208e-05 0.018223)
(0.000128627 -4.73397e-05 0.0183006)
(4.92028e-05 -4.95343e-05 0.0183065)
(6.73504e-06 -5.34186e-05 0.0182994)
(-5.35977e-05 -3.70877e-05 0.018294)
(0.000111225 7.68161e-06 0.0183252)
(8.62568e-05 3.31804e-06 0.0182852)
(5.00535e-05 -1.03626e-05 0.0182293)
(4.89525e-06 -1.34724e-05 0.0181897)
(0.000105688 -7.70603e-06 0.0183365)
(7.53698e-05 -1.40075e-05 0.0183064)
(3.90942e-05 -2.19902e-05 0.0182679)
(-6.07087e-06 -2.40395e-05 0.0182402)
(0.00010331 -2.01233e-05 0.0183661)
(6.9341e-05 -2.83847e-05 0.0183417)
(3.65596e-05 -3.49749e-05 0.0183085)
(-3.15315e-06 -3.5279e-05 0.018283)
(9.36289e-05 -2.92577e-05 0.0183694)
(5.70356e-05 -3.1639e-05 0.0183579)
(2.80116e-05 -3.22414e-05 0.0183384)
(-8.82873e-06 -2.4714e-05 0.018319)
(7.78629e-05 -3.22998e-06 0.0183557)
(6.1871e-05 -5.03445e-06 0.0183246)
(4.06617e-05 -1.03147e-05 0.0182812)
(1.4876e-05 -1.20506e-05 0.0182331)
(7.61095e-05 -9.82643e-06 0.0183812)
(5.81917e-05 -1.20957e-05 0.0183557)
(3.66337e-05 -1.51299e-05 0.018322)
(1.07339e-05 -1.6017e-05 0.0182849)
(7.43937e-05 -1.61131e-05 0.0184029)
(5.55131e-05 -1.91309e-05 0.0183813)
(3.53866e-05 -2.13656e-05 0.0183528)
(1.22592e-05 -2.1263e-05 0.0183206)
(7.06172e-05 -2.15339e-05 0.0184112)
(5.158e-05 -2.24983e-05 0.0183947)
(3.29549e-05 -2.18878e-05 0.0183719)
(1.09583e-05 -1.78552e-05 0.0183439)
(5.52476e-05 -6.43816e-06 0.0183751)
(4.52645e-05 -6.91764e-06 0.0183495)
(3.24603e-05 -8.73602e-06 0.0183115)
(1.71444e-05 -9.23449e-06 0.0182609)
(5.50847e-05 -9.72752e-06 0.0184054)
(4.43562e-05 -1.01574e-05 0.0183836)
(3.12884e-05 -1.09641e-05 0.0183526)
(1.59021e-05 -1.0911e-05 0.0183118)
(5.45392e-05 -1.33129e-05 0.0184252)
(4.35864e-05 -1.41273e-05 0.0184062)
(3.11094e-05 -1.45488e-05 0.0183797)
(1.70767e-05 -1.39687e-05 0.0183443)
(5.32999e-05 -1.6763e-05 0.0184347)
(4.25849e-05 -1.68565e-05 0.0184181)
(3.08453e-05 -1.59971e-05 0.0183947)
(1.75438e-05 -1.35721e-05 0.0183625)
(3.9578e-05 -6.6851e-06 0.0183873)
(3.33322e-05 -6.57987e-06 0.0183653)
(2.54783e-05 -6.98308e-06 0.01833)
(1.60284e-05 -6.65596e-06 0.0182788)
(4.00364e-05 -8.60187e-06 0.0184192)
(3.34845e-05 -8.29934e-06 0.0184002)
(2.54336e-05 -8.17188e-06 0.0183709)
(1.58948e-05 -7.69973e-06 0.0183289)
(4.01333e-05 -1.08196e-05 0.0184386)
(3.35488e-05 -1.07763e-05 0.0184217)
(2.57575e-05 -1.05139e-05 0.0183965)
(1.69383e-05 -9.79208e-06 0.0183598)
(3.99037e-05 -1.30221e-05 0.0184483)
(3.35473e-05 -1.27877e-05 0.0184329)
(2.61373e-05 -1.19953e-05 0.0184098)
(1.78343e-05 -1.04807e-05 0.0183758)
(2.84887e-05 -5.88315e-06 0.0183952)
(2.4555e-05 -5.56199e-06 0.0183756)
(1.96165e-05 -5.41264e-06 0.018342)
(1.35773e-05 -4.80731e-06 0.0182908)
(2.91174e-05 -7.13152e-06 0.0184276)
(2.50497e-05 -6.60525e-06 0.0184107)
(1.99735e-05 -6.15203e-06 0.0183827)
(1.38487e-05 -5.55519e-06 0.0183404)
(2.94539e-05 -8.57079e-06 0.0184468)
(2.54115e-05 -8.25224e-06 0.0184318)
(2.04621e-05 -7.79213e-06 0.0184075)
(1.47535e-05 -7.10855e-06 0.0183705)
(2.95702e-05 -9.98248e-06 0.0184563)
(2.56937e-05 -9.69098e-06 0.0184424)
(2.09532e-05 -9.06169e-06 0.01842)
(1.55959e-05 -8.06032e-06 0.0183855)
(2.04741e-05 -4.79723e-06 0.0184003)
(1.79755e-05 -4.43177e-06 0.0183824)
(1.48137e-05 -4.10209e-06 0.01835)
(1.08557e-05 -3.48428e-06 0.0182991)
(2.1083e-05 -5.65546e-06 0.0184328)
(1.85265e-05 -5.11842e-06 0.0184175)
(1.52684e-05 -4.61041e-06 0.0183905)
(1.12251e-05 -4.04243e-06 0.0183483)
(2.14551e-05 -6.63857e-06 0.0184518)
(1.89405e-05 -6.27181e-06 0.0184382)
(1.57464e-05 -5.80464e-06 0.0184149)
(1.19633e-05 -5.22531e-06 0.0183779)
(2.16493e-05 -7.52228e-06 0.0184611)
(1.92737e-05 -7.2656e-06 0.0184485)
(1.62038e-05 -6.7958e-06 0.0184269)
(1.26375e-05 -6.1214e-06 0.0183925)
(1.45725e-05 -3.71994e-06 0.0184037)
(1.29789e-05 -3.39047e-06 0.0183869)
(1.09291e-05 -3.04671e-06 0.0183554)
(8.29605e-06 -2.52006e-06 0.0183049)
(1.5084e-05 -4.32989e-06 0.0184362)
(1.34655e-05 -3.86127e-06 0.0184219)
(1.13465e-05 -3.4063e-06 0.0183957)
(8.63881e-06 -2.93106e-06 0.0183538)
(1.54179e-05 -5.01334e-06 0.018455)
(1.38477e-05 -4.67949e-06 0.0184425)
(1.17563e-05 -4.27981e-06 0.0184198)
(9.21696e-06 -3.81712e-06 0.0183832)
(1.56003e-05 -5.54182e-06 0.018464)
(1.41394e-05 -5.3437e-06 0.0184524)
(1.21296e-05 -5.00697e-06 0.0184315)
(9.73278e-06 -4.5464e-06 0.0183974)
(1.01304e-05 -2.75487e-06 0.018406)
(9.11868e-06 -2.48706e-06 0.01839)
(7.79105e-06 -2.1948e-06 0.0183591)
(6.04644e-06 -1.78496e-06 0.0183089)
(1.05277e-05 -3.18075e-06 0.0184383)
(9.50803e-06 -2.81264e-06 0.0184249)
(8.12671e-06 -2.4473e-06 0.0183992)
(6.3216e-06 -2.0767e-06 0.0183577)
(1.07884e-05 -3.64112e-06 0.018457)
(9.81416e-06 -3.37928e-06 0.0184453)
(8.4539e-06 -3.06897e-06 0.0184232)
(6.75683e-06 -2.72017e-06 0.0183869)
(1.09362e-05 -3.95472e-06 0.0184658)
(1.00389e-05 -3.80666e-06 0.018455)
(8.72965e-06 -3.57224e-06 0.0184346)
(7.13189e-06 -3.26144e-06 0.0184009)
(6.68992e-06 -1.91005e-06 0.0184075)
(6.06657e-06 -1.7122e-06 0.0183921)
(5.23232e-06 -1.49025e-06 0.0183616)
(4.12212e-06 -1.19796e-06 0.0183117)
(6.96881e-06 -2.19034e-06 0.0184398)
(6.35122e-06 -1.92798e-06 0.0184268)
(5.47809e-06 -1.6617e-06 0.0184016)
(4.31926e-06 -1.39545e-06 0.0183604)
(7.15407e-06 -2.48142e-06 0.0184583)
(6.56845e-06 -2.29687e-06 0.0184471)
(5.71363e-06 -2.0793e-06 0.0184254)
(4.62499e-06 -1.8337e-06 0.0183894)
(7.26369e-06 -2.66599e-06 0.018467)
(6.725e-06 -2.56078e-06 0.0184567)
(5.90212e-06 -2.40373e-06 0.0184368)
(4.87929e-06 -2.20095e-06 0.0184033)
(3.92072e-06 -1.19134e-06 0.0184084)
(3.57311e-06 -1.06444e-06 0.0183933)
(3.09575e-06 -9.17715e-07 0.0183632)
(2.46444e-06 -7.39408e-07 0.0183134)
(4.08668e-06 -1.36083e-06 0.0184406)
(3.74919e-06 -1.20028e-06 0.0184281)
(3.25076e-06 -1.03252e-06 0.0184031)
(2.58552e-06 -8.63567e-07 0.0183621)
(4.1999e-06 -1.53051e-06 0.0184591)
(3.88089e-06 -1.41736e-06 0.0184483)
(3.39604e-06 -1.28463e-06 0.0184269)
(2.77049e-06 -1.13136e-06 0.0183911)
(4.26976e-06 -1.63448e-06 0.0184677)
(3.97555e-06 -1.56848e-06 0.0184577)
(3.50944e-06 -1.47411e-06 0.0184381)
(2.92276e-06 -1.35319e-06 0.0184048)
(1.61555e-06 -7.42965e-07 0.018409)
(1.45968e-06 -6.80488e-07 0.0183941)
(1.24353e-06 -6.04158e-07 0.0183641)
(9.72769e-07 -5.07909e-07 0.0183145)
(1.67838e-06 -8.56677e-07 0.0184412)
(1.53181e-06 -7.87333e-07 0.0184288)
(1.31622e-06 -7.08045e-07 0.018404)
(1.03995e-06 -6.1803e-07 0.0183631)
(1.72366e-06 -9.58188e-07 0.0184596)
(1.58894e-06 -9.08115e-07 0.0184489)
(1.38421e-06 -8.43458e-07 0.0184277)
(1.12536e-06 -7.63338e-07 0.018392)
(1.75229e-06 -1.02333e-06 0.0184681)
(1.63176e-06 -9.92175e-07 0.0184583)
(1.44026e-06 -9.44169e-07 0.0184388)
(1.19995e-06 -8.79073e-07 0.0184057)
(0.00049853 -0.0018954 0.0148394)
(-0.00234478 0.000563615 0.0146555)
(-8.95375e-05 0.00142103 0.0076573)
(0.00308564 -0.00158236 0.0197196)
(-0.00190863 -0.000232013 0.0185658)
(0.00054369 -0.000977006 0.0195189)
(-0.00385888 0.004277 0.0344429)
(-0.00032743 -0.00254955 0.0187806)
(-0.00417451 0.00105358 0.0167044)
(-0.000450132 -0.0008468 0.0101591)
(0.00309098 -0.0028408 0.026633)
(-0.00200818 -0.00422686 0.0324958)
(0.00177227 -0.00232899 0.0294493)
(-0.00379034 0.00146979 0.025462)
(-0.00037942 -0.00279809 0.0251602)
(0.000581722 -0.000612447 0.00200739)
(-0.00554825 0.0033555 0.05659)
(0.000871993 0.000216201 0.0404348)
(0.0015402 -0.00100617 0.0335222)
(-0.000376945 -0.00133264 0.0699315)
(-0.00253219 0.0020085 0.0165901)
(-0.00332996 0.00129911 0.0539517)
(0.00247267 -0.00042848 0.051621)
(0.00209904 -0.000803722 0.0116962)
(-0.00149555 0.00545909 0.0584726)
(-0.00347742 0.0020172 0.0311513)
(-0.00232211 -0.000213927 0.047379)
(0.000801685 -0.000411418 0.0417171)
(-0.0047625 -0.00179541 0.0443809)
(-0.0031187 0.00047299 0.0147733)
(-0.000236017 0.00211376 0.0090267)
(0.00284545 0.00262536 0.0485015)
(-0.00160488 0.00319106 0.0177276)
(0.00541351 0.00151478 0.0383249)
(0.00247027 0.000583566 0.0270981)
(0.000455389 -0.000286731 0.0298459)
(-0.00103791 0.00554485 0.033743)
(-0.000100568 0.00279664 0.034511)
(0.00194781 0.00133923 0.0215364)
(0.00261594 -0.0042769 0.0550934)
(0.00054995 0.00165067 0.0149839)
(0.000708157 0.00260217 0.0308436)
(-0.00100997 0.00426433 0.0482522)
(0.000867079 0.00170733 0.0184197)
(-0.000577106 0.00200346 0.00951037)
(0.00849965 -0.000971067 0.055109)
(0.000566446 0.00142774 0.0181341)
(-0.00152064 0.00116017 0.0591401)
(0.000979752 -6.4576e-05 0.0202656)
(-0.000434806 0.000809899 0.0355466)
(0.000577349 0.000552424 0.0339773)
(0.00121797 -0.00387216 0.0897877)
(0.000387884 0.000874995 0.0154239)
(-0.00164758 0.00210243 0.0444658)
(-0.00224073 -0.000707268 0.0453474)
(0.000438231 0.0011093 0.0181428)
(0.00546561 -0.00307955 0.0609642)
(0.000543658 -0.00146185 0.0370963)
(-0.00179775 -0.000493698 0.0370729)
(-0.000364212 0.00269971 0.0297379)
(8.32216e-05 -0.000847784 0.0250368)
(0.00139585 -0.00247887 0.0271456)
(0.00110189 -0.000707882 0.0335112)
(-0.00193517 -0.000134302 0.0405092)
(0.00119995 0.00120551 0.0294009)
(-0.0013988 -0.000442165 0.0379558)
(-0.00247409 -0.000112646 0.0361164)
(-0.00140446 0.00529382 0.0443404)
(0.00168475 -0.000987979 0.040608)
(-0.00222412 0.00158446 0.0433631)
(-0.000866275 0.00178149 0.0232722)
(-0.00114087 0.00303 0.0275492)
(0.000787564 -0.000609102 0.033665)
(-0.000474157 0.00104323 0.00796344)
(-0.00257675 0.000748387 0.0513365)
(-0.00056317 0.00107312 0.0330334)
(-0.00063895 0.000543668 0.0359641)
(0.000623766 -0.00341933 0.0534403)
(0.000712989 0.000499435 0.0258317)
(0.000736892 0.00267053 0.0548761)
(-0.0005067 0.000174371 0.00996528)
(-0.00459665 0.0031762 0.030009)
(-0.00103624 0.000233541 0.019837)
(0.00277358 0.0042383 0.0489942)
(0.00050521 0.000882221 0.0301757)
(-0.000950728 0.00112631 0.0159104)
(-0.00298059 0.00284983 0.024767)
(-0.00175223 0.00939842 0.0345278)
(-0.00228345 0.000469469 0.0258303)
(-0.00264603 -0.000465096 0.0277777)
(-0.000164655 0.00470187 0.0253493)
(-0.00254511 0.00251448 0.0181035)
(-0.000565652 -0.00216424 0.0246491)
(-0.00125395 0.000810671 0.0179497)
(-0.000291039 0.000600887 0.0211287)
(-0.00105182 -4.20494e-05 0.00850663)
(0.00146426 -0.000393972 0.0147194)
(0.000533738 -9.69252e-05 0.0175605)
(-0.00126946 -0.000425551 0.0156248)
(-0.00145879 0.000864283 0.029038)
(0.000654169 -0.000726504 0.0257694)
(0.00107608 -0.000746818 0.0266469)
(-0.000976316 -0.00136069 0.014884)
(-0.000999256 -0.000520584 0.0133928)
(-0.000152837 -0.00160778 0.0233249)
(-0.00012692 -0.000400183 0.0383758)
(0.000248387 -0.000419064 0.0275678)
(0.000105689 -0.00212641 0.0321947)
(-0.000384224 -0.00121315 0.0242604)
(-0.000378025 -0.000987762 0.0218041)
(-0.000628977 0.000487975 0.0228248)
(-0.000973866 -0.00017601 0.0145207)
(-0.000633723 -0.00061391 0.0244478)
(-7.50988e-05 -0.000619825 0.0299871)
(-0.00053981 -0.000814783 0.0236264)
(-0.000757343 -0.000940057 0.0415806)
(-0.000602593 -0.00151231 0.0344452)
(0.000117537 -0.00149753 0.0382737)
(-0.000162761 -0.00120293 0.018059)
(-0.000827399 -0.00188665 0.0269389)
(-0.000122259 -0.00175815 0.0352126)
(0.000153003 -0.00107939 0.0436915)
(2.66447e-05 -0.000894934 0.0329447)
(-0.000278095 -0.00177724 0.0376521)
(0.000497959 -0.00175059 0.0324252)
(0.000539606 -0.00119245 0.0320018)
(-8.53261e-05 -0.000889149 0.0319243)
(2.0518e-05 -0.000991235 0.0421089)
(0.000473269 -0.000889034 0.0098995)
(0.000333274 -0.000257975 0.00947985)
(-0.000778318 -0.000535943 0.00853662)
(-0.00147961 -6.79056e-05 0.0121133)
(-0.000102965 -0.00173618 0.0120901)
(0.00116344 -0.000636636 0.0118688)
(0.000394489 -0.0012066 0.00889252)
(-0.00141533 -0.00025384 0.0111202)
(0.000360315 -0.000495816 0.0129586)
(0.000774531 0.000636011 0.0136195)
(0.000636886 -0.00131033 0.0114396)
(-0.000368201 -0.000536079 0.0126342)
(0.000137847 0.000677939 0.0127225)
(0.00031831 0.00176821 0.0123749)
(-0.000380747 0.000291648 0.0118082)
(-0.00040749 0.000669486 0.0135398)
(0.000695688 -0.000373393 0.0189369)
(0.000666891 -9.43953e-05 0.0194812)
(-3.73958e-05 -0.000343671 0.0179621)
(-0.000612392 -0.000370427 0.0204972)
(0.000409223 -0.000779734 0.0199099)
(0.000922909 -0.000326054 0.0202545)
(0.000407508 -0.000674834 0.0181465)
(-0.000502581 -0.000358593 0.0200463)
(0.000483021 -0.000206251 0.0204863)
(0.000777342 0.000260439 0.0208543)
(0.000505876 -0.000536794 0.0192053)
(-0.000239714 -0.000221608 0.0202936)
(0.00040433 0.00026515 0.0200366)
(0.000565427 0.000678112 0.0200965)
(0.000221664 6.65846e-06 0.0193432)
(-0.000143622 0.000149644 0.0202808)
(0.000441249 -6.55054e-05 0.0171614)
(0.000318507 6.9316e-05 0.0171987)
(-8.71198e-05 -0.000128473 0.0164018)
(-0.000384003 -0.000162026 0.0173534)
(0.000334159 -0.000190173 0.0176506)
(0.000382202 2.33975e-05 0.0176401)
(4.35853e-05 -0.000213055 0.0167131)
(-0.000385904 -6.17828e-05 0.0174213)
(0.000342836 -3.46519e-05 0.0179597)
(0.00035337 0.000160017 0.0179266)
(0.000105182 -0.00018502 0.0171409)
(-0.000284478 8.28651e-06 0.017525)
(0.000305162 0.000162684 0.0178631)
(0.000276652 0.000312093 0.0177622)
(4.3602e-05 2.59586e-05 0.0172887)
(-0.000226696 0.000168145 0.0175308)
(0.000294146 -2.36171e-05 0.0178562)
(0.000235158 4.53618e-05 0.0178909)
(5.10375e-05 -4.4536e-05 0.0175357)
(-0.000132544 -8.73875e-05 0.0179763)
(0.000261741 -7.08328e-05 0.0180713)
(0.000253268 2.61579e-05 0.0180728)
(0.000102125 -8.98098e-05 0.017708)
(-0.000121874 -5.03383e-05 0.0180464)
(0.000257571 -4.10871e-07 0.0182373)
(0.00024198 8.20434e-05 0.0182097)
(0.000119976 -6.33866e-05 0.0178998)
(-9.26594e-05 -5.24583e-06 0.018098)
(0.000242208 7.59158e-05 0.018244)
(0.000212873 0.000126011 0.0181923)
(0.000104086 2.06848e-06 0.0179928)
(-6.03215e-05 3.71091e-05 0.018102)
(0.000177064 -1.01642e-06 0.0178986)
(0.000130894 3.22096e-05 0.0178787)
(3.26538e-05 -1.05851e-05 0.0176775)
(-6.45646e-05 -3.72948e-05 0.0178063)
(0.000173032 -1.62923e-05 0.0180843)
(0.000140925 2.75723e-05 0.0180494)
(5.44452e-05 -2.52306e-05 0.0178548)
(-5.876e-05 -1.47811e-05 0.017936)
(0.000172583 4.39496e-06 0.0182122)
(0.000141849 3.75352e-05 0.0181625)
(6.57108e-05 -2.12353e-05 0.0179951)
(-4.1918e-05 -1.64697e-06 0.0180204)
(0.000166434 2.94814e-05 0.0182613)
(0.000133979 4.74864e-05 0.0182061)
(6.66928e-05 1.82519e-07 0.0180867)
(-2.28875e-05 1.58334e-05 0.0180734)
(0.000110466 2.76904e-06 0.017943)
(8.10404e-05 1.9406e-05 0.0179167)
(3.11694e-05 1.4898e-06 0.0178124)
(-2.20822e-05 -1.617e-05 0.0178452)
(0.00011309 -3.55685e-06 0.0181075)
(8.80191e-05 1.63353e-05 0.0180714)
(4.2467e-05 -6.31493e-06 0.0179698)
(-1.56252e-05 -7.50522e-06 0.0179768)
(0.000114504 1.36495e-06 0.0182205)
(9.08129e-05 1.47809e-05 0.0181773)
(4.92277e-05 -7.92923e-06 0.0180875)
(-6.29699e-06 -3.94116e-06 0.0180681)
(0.000113351 8.83323e-06 0.0182865)
(9.02745e-05 1.60295e-05 0.0182433)
(5.3008e-05 -5.25184e-07 0.0181721)
(4.74436e-06 3.50292e-06 0.0181339)
(7.03019e-05 2.64477e-06 0.0179691)
(5.19681e-05 1.16209e-05 0.0179402)
(2.48369e-05 4.66971e-06 0.0178743)
(-4.47783e-06 -5.1129e-06 0.0178621)
(7.47303e-05 -9.13547e-07 0.0181281)
(5.77499e-05 8.99266e-06 0.0180935)
(3.24261e-05 5.97441e-07 0.0180274)
(1.646e-06 -2.10698e-06 0.0179995)
(7.69915e-05 -1.17304e-06 0.018237)
(6.10117e-05 5.29043e-06 0.0181999)
(3.73886e-05 -2.66522e-06 0.0181387)
(7.81977e-06 -3.00631e-06 0.018097)
(7.80533e-05 3.10345e-08 0.0183093)
(6.27685e-05 4.25759e-06 0.0182742)
(4.11648e-05 -5.99994e-07 0.0182213)
(1.43902e-05 4.37918e-07 0.0181701)
(4.63877e-05 1.88697e-06 0.0179855)
(3.48668e-05 7.27305e-06 0.0179583)
(1.93384e-05 4.93712e-06 0.01791)
(2.39695e-06 -5.98224e-07 0.017881)
(5.05907e-05 -6.95526e-07 0.0181428)
(3.9606e-05 5.02435e-06 0.0181119)
(2.4811e-05 2.39377e-06 0.0180611)
(7.57556e-06 7.88679e-08 0.0180202)
(5.29432e-05 -2.45185e-06 0.0182506)
(4.26147e-05 1.40245e-06 0.018219)
(2.86298e-05 -9.89618e-07 0.0181697)
(1.18062e-05 -1.76248e-06 0.01812)
(5.45751e-05 -3.26225e-06 0.0183252)
(4.47537e-05 -7.92778e-08 0.0182959)
(3.18598e-05 -6.57176e-07 0.018251)
(1.60955e-05 5.60174e-08 0.0181958)
(3.15017e-05 1.24242e-06 0.0179961)
(2.41362e-05 4.75408e-06 0.0179715)
(1.47239e-05 4.2228e-06 0.017931)
(4.42301e-06 1.20497e-06 0.0178956)
(3.49634e-05 -8.04952e-07 0.0181529)
(2.78928e-05 2.93458e-06 0.0181254)
(1.8843e-05 2.49045e-06 0.0180814)
(8.55487e-06 1.1216e-06 0.0180358)
(3.70599e-05 -2.76658e-06 0.0182604)
(3.0407e-05 -8.64579e-08 0.0182328)
(2.18094e-05 -3.84486e-07 0.0181888)
(1.16626e-05 -8.06088e-07 0.0181366)
(3.86487e-05 -4.04175e-06 0.018336)
(3.23825e-05 -1.4932e-06 0.0183105)
(2.43866e-05 -6.19852e-07 0.0182694)
(1.46916e-05 3.08391e-07 0.0182131)
(2.18162e-05 7.92323e-07 0.0180034)
(1.70336e-05 3.2235e-06 0.0179809)
(1.10852e-05 3.35225e-06 0.0179443)
(4.5617e-06 1.76304e-06 0.0179067)
(2.45227e-05 -8.27762e-07 0.0181601)
(1.99377e-05 1.7812e-06 0.0181351)
(1.41983e-05 2.12085e-06 0.0180944)
(7.74732e-06 1.43404e-06 0.0180474)
(2.62274e-05 -2.55428e-06 0.0182676)
(2.19332e-05 -5.99205e-07 0.0182426)
(1.64849e-05 -1.45955e-07 0.0182014)
(1.0064e-05 -2.50233e-07 0.0181485)
(2.75765e-05 -3.789e-06 0.0183433)
(2.35655e-05 -1.76303e-06 0.0183205)
(1.84915e-05 -5.13145e-07 0.0182816)
(1.2267e-05 4.40981e-07 0.0182252)
(1.52582e-05 5.09467e-07 0.0180085)
(1.21057e-05 2.2196e-06 0.0179877)
(8.23771e-06 2.56389e-06 0.0179531)
(3.98025e-06 1.7176e-06 0.0179149)
(1.72994e-05 -7.46902e-07 0.0181652)
(1.42977e-05 1.10786e-06 0.018142)
(1.05686e-05 1.67348e-06 0.0181031)
(6.38434e-06 1.36548e-06 0.0180558)
(1.86222e-05 -2.14815e-06 0.0182726)
(1.58257e-05 -7.03771e-07 0.0182495)
(1.23068e-05 -5.13083e-08 0.0182099)
(8.09933e-06 2.51561e-08 0.0181569)
(1.96952e-05 -3.19104e-06 0.0183484)
(1.7106e-05 -1.61908e-06 0.0183273)
(1.38391e-05 -4.04044e-07 0.0182897)
(9.7201e-06 4.39497e-07 0.0182337)
(1.06512e-05 3.27615e-07 0.0180121)
(8.56103e-06 1.53348e-06 0.0179924)
(6.00783e-06 1.89863e-06 0.017959)
(3.18047e-06 1.45045e-06 0.0179207)
(1.21501e-05 -6.24285e-07 0.0181687)
(1.01738e-05 6.99964e-07 0.0181468)
(7.72012e-06 1.25387e-06 0.0181091)
(4.95073e-06 1.14083e-06 0.0180618)
(1.31426e-05 -1.71074e-06 0.0182761)
(1.13123e-05 -6.50717e-07 0.0182543)
(9.00799e-06 -2.76036e-08 0.0182157)
(6.20231e-06 1.20137e-07 0.0181629)
(1.39501e-05 -2.53292e-06 0.0183518)
(1.228e-05 -1.34978e-06 0.0183319)
(1.01538e-05 -3.24166e-07 0.0182953)
(7.383e-06 3.62434e-07 0.0182396)
(7.3046e-06 2.05862e-07 0.0180146)
(5.9305e-06 1.04256e-06 0.0179957)
(4.25057e-06 1.35309e-06 0.0179631)
(2.37673e-06 1.11446e-06 0.0179249)
(8.36731e-06 -4.93278e-07 0.0181712)
(7.07724e-06 4.34694e-07 0.0181501)
(5.46755e-06 8.89637e-07 0.0181132)
(3.6359e-06 8.66074e-07 0.0180661)
(9.08064e-06 -1.29913e-06 0.0182785)
(7.89331e-06 -5.39296e-07 0.0182576)
(6.38865e-06 -3.1482e-08 0.0182197)
(4.52311e-06 1.22817e-07 0.0181672)
(9.66359e-06 -1.90861e-06 0.0183541)
(8.59594e-06 -1.0514e-06 0.0183351)
(7.21259e-06 -2.61754e-07 0.0182991)
(5.35837e-06 2.59461e-07 0.0182437)
(4.78719e-06 1.23376e-07 0.0180163)
(3.91703e-06 6.78309e-07 0.0179979)
(2.84788e-06 9.09667e-07 0.0179658)
(1.64951e-06 7.85815e-07 0.0179277)
(5.49355e-06 -3.62998e-07 0.0181728)
(4.68233e-06 2.55722e-07 0.0181524)
(3.66086e-06 5.87065e-07 0.0181159)
(2.49113e-06 5.99684e-07 0.018069)
(5.97119e-06 -9.20344e-07 0.0182801)
(5.22987e-06 -4.05675e-07 0.0182598)
(4.27892e-06 -3.74212e-08 0.0182223)
(3.08335e-06 9.29022e-08 0.0181701)
(6.36671e-06 -1.34046e-06 0.0183557)
(5.70549e-06 -7.57718e-07 0.0183372)
(4.83412e-06 -2.03128e-07 0.0183017)
(3.64246e-06 1.63556e-07 0.0182466)
(2.81713e-06 6.4478e-08 0.0180174)
(2.31819e-06 3.94226e-07 0.0179993)
(1.7009e-06 5.41682e-07 0.0179675)
(1.0086e-06 4.82313e-07 0.0179295)
(3.22084e-06 -2.42649e-07 0.0181739)
(2.75983e-06 1.22107e-07 0.0181538)
(2.17456e-06 3.28307e-07 0.0181176)
(1.50109e-06 3.48298e-07 0.0180709)
(3.49685e-06 -5.86004e-07 0.0182811)
(3.077e-06 -2.77719e-07 0.0182612)
(2.53455e-06 -5.0388e-08 0.018224)
(1.84673e-06 4.20686e-08 0.0181719)
(3.72867e-06 -8.48976e-07 0.0183567)
(3.35585e-06 -5.01283e-07 0.0183385)
(2.86161e-06 -1.64773e-07 0.0183033)
(2.17763e-06 5.89094e-08 0.0182484)
(1.20931e-06 7.80861e-09 0.018018)
(9.63144e-07 1.45709e-07 0.0180002)
(6.712e-07 1.93794e-07 0.0179685)
(3.70014e-07 1.50615e-07 0.0179306)
(1.35462e-06 -1.83681e-07 0.0181745)
(1.13112e-06 -3.49875e-08 0.0181546)
(8.58204e-07 4.23925e-08 0.0181187)
(5.66629e-07 4.53797e-08 0.018072)
(1.45446e-06 -3.89599e-07 0.0182818)
(1.25396e-06 -2.61593e-07 0.018262)
(1.00499e-06 -1.66479e-07 0.018225)
(7.14092e-07 -1.20466e-07 0.0181731)
(1.54181e-06 -5.58423e-07 0.0183573)
(1.36773e-06 -4.17051e-07 0.0183394)
(1.14184e-06 -2.76416e-07 0.0183043)
(8.55313e-07 -1.71743e-07 0.0182495)
(0.000751735 -0.00260892 0.0320165)
(0.00105138 -0.00507517 0.027715)
(0.0018425 -0.00298077 0.0136294)
(0.00185373 -0.00540217 0.0313792)
(-0.00207051 0.000463514 0.0176453)
(-0.000200438 0.00065007 0.0139166)
(0.00133518 -8.62863e-05 0.002047)
(0.00194048 -0.00297475 0.0141429)
(-0.00289933 0.000363471 0.01605)
(-7.52163e-05 -0.00115319 0.0177613)
(-0.000109012 0.00170351 0.0263573)
(-0.000595323 -0.000607877 0.021501)
(-0.00438515 0.000602666 0.0122634)
(6.28512e-05 -0.000283584 0.0160463)
(0.00284356 -0.000185979 0.0240362)
(0.00016702 0.000796567 0.0334176)
(0.00124018 0.00144334 0.00691964)
(-0.000323365 0.00197463 0.028007)
(0.00073529 0.0022248 0.0343593)
(-0.000705749 0.00254834 0.0420507)
(0.000637496 0.000774627 0.0318394)
(0.00297875 0.000594748 0.0324331)
(0.00196479 0.000722043 0.0499342)
(0.000899042 0.00410647 0.0590642)
(0.00247161 0.0042996 0.0358065)
(0.000658215 0.000800463 0.0525246)
(0.00113618 0.000370871 0.0375874)
(0.000547016 0.00404812 0.0391224)
(0.00225535 0.000350632 0.0110824)
(0.00171698 -0.000980474 0.0168652)
(0.00589937 0.00159765 0.050954)
(0.00160017 0.000864757 0.0212682)
(-0.0011091 -0.000948308 0.0652032)
(-0.00287463 0.00308661 0.0374372)
(0.000607974 0.0013098 0.00953031)
(0.00187263 -0.00128133 0.0353455)
(0.00234455 -5.95485e-05 0.0355817)