/*--------------------------------*- C++ -*----------------------------------*\
| =========                 |                                                 |
| \\      /  F ield         | OpenFOAM: The Open Source CFD Toolbox           |
|  \\    /   O peration     | Version:  2506                                  |
|   \\  /    A nd           | Website:  www.openfoam.com                      |
|    \\/     M anipulation  |                                                 |
\*---------------------------------------------------------------------------*/
FoamFile
{
    version     2.0;
    format      ascii;
    arch        "LSB;label=32;scalar=64";
    class       volScalarField;
    location    "0.09";
    object      voidfraction;
}
// * * * * * * * * * * * * * * * * * * * * * * * * * * * * * * * * * * * * * //

dimensions      [0 0 0 0 0 0 0];

internalField   nonuniform List<scalar> 
1152
(
0.523364
0.446997
0.446997
0.444363
0.44173
0.46543
0.373263
0.444363
0.444363
0.420663
0.404863
0.462797
0.415396
0.428563
0.502297
0.518097
0.436463
0.486497
0.470697
0.407496
0.446997
0.454897
0.446997
0.48123
0.45753
0.46543
0.439097
0.46543
0.333763
0.44173
0.317962
0.412763
0.48123
0.381163
0.391696
0.349563
0.365363
0.391696
0.396963
0.44173
0.383796
0.381163
0.420663
0.328496
0.420663
0.436463
0.48913
0.389063
0.38643
0.41803
0.396963
0.344296
0.365363
0.357463
0.460163
0.439097
0.439097
0.378529
0.40223
0.362729
0.349563
0.373263
0.428563
0.357463
0.431196
0.399596
0.40223
0.423296
0.407496
0.365363
0.357463
0.407496
0.381163
0.415396
0.357463
0.439097
0.45753
0.349563
0.46543
0.44173
0.391696
0.415396
0.396963
0.44963
0.48123
0.38643
0.404863
0.333763
0.404863
0.462797
0.40223
0.357463
0.42593
0.336396
0.420663
0.412763
0.649764
0.689265
0.589197
0.694531
0.633964
0.570764
0.628698
0.53653
0.586564
0.665565
0.620798
0.660298
0.444363
0.602364
0.768265
0.731398
1
1
1
1
1
1
1
1
1
1
1
1
0.9921
0.997367
1
1
1
1
1
1
1
1
1
1
1
1
1
1
1
1
1
1
1
1
1
1
1
1
1
1
1
1
1
1
1
1
1
1
1
1
1
1
1
1
1
1
1
1
1
1
1
1
1
1
1
1
1
1
1
1
1
1
1
1
1
1
1
1
1
1
1
1
1
1
1
1
1
1
1
1
1
1
1
1
1
1
1
1
1
1
1
1
1
1
1
1
1
1
1
1
1
1
1
1
1
1
1
1
1
1
1
1
1
1
1
1
1
1
1
1
1
1
1
1
1
1
1
1
1
1
1
1
1
1
1
1
1
1
1
1
1
1
1
1
1
1
1
1
1
1
1
1
1
1
1
1
1
1
1
1
1
1
1
1
1
1
1
1
1
1
1
1
1
1
1
1
1
1
1
1
1
1
1
1
1
1
1
1
1
1
1
1
1
1
1
1
1
1
1
1
1
1
1
1
1
1
1
1
1
1
1
1
1
1
1
1
1
1
1
1
1
1
1
1
1
1
1
1
1
1
1
1
1
1
1
1
1
1
1
1
1
1
1
1
1
1
1
1
1
1
1
1
1
1
1
1
1
1
1
1
1
1
0.45952
0.434003
0.412967
0.482022
0.45206
0.477765
0.539566
0.415223
0.467164
0.396957
0.49311
0.528522
0.486298
0.453207
0.48005
0.391038
0.541845
0.470212
0.454276
0.503604
0.450082
0.498908
0.488407
0.415223
0.498117
0.434944
0.479261
0.466867
0.503839
0.404483
0.386972
0.452372
0.378985
0.416852
0.393399
0.436159
0.394695
0.41645
0.386088
0.439976
0.345563
0.399331
0.443252
0.383452
0.361005
0.447793
0.367715
0.469896
0.346771
0.392077
0.423838
0.511697
0.349198
0.405879
0.422631
0.387377
0.451688
0.399331
0.415554
0.372572
0.333441
0.382827
0.383763
0.404181
0.395092
0.434003
0.434709
0.430763
0.42041
0.424908
0.388525
0.362624
0.391992
0.332854
0.429403
0.394332
0.398593
0.420724
0.374134
0.439229
0.391513
0.451155
0.408618
0.492813
0.446126
0.38685
0.412886
0.449258
0.389782
0.41595
0.415554
0.383452
0.393581
0.380121
0.374134
0.364752
0.695756
0.569309
0.552115
0.665472
0.71515
0.682853
0.544439
0.545174
0.752375
0.707975
0.656534
0.717113
0.771967
0.667052
0.695091
0.618851
1
1
1
1
1
1
1
1
1
1
1
1
1
1
1
1
1
1
1
1
1
1
1
1
1
1
1
1
1
1
1
1
1
1
1
1
1
1
1
1
1
1
1
1
1
1
1
1
1
1
1
1
1
1
1
1
1
1
1
1
1
1
1
1
1
1
1
1
1
1
1
1
1
1
1
1
1
1
1
1
1
1
1
1
1
1
1
1
1
1
1
1
1
1
1
1
1
1
1
1
1
1
1
1
1
1
1
1
1
1
1
1
1
1
1
1
1
1
1
1
1
1
1
1
1
1
1
1
1
1
1
1
1
1
1
1
1
1
1
1
1
1
1
1
1
1
1
1
1
1
1
1
1
1
1
1
1
1
1
1
1
1
1
1
1
1
1
1
1
1
1
1
1
1
1
1
1
1
1
1
1
1
1
1
1
1
1
1
1
1
1
1
1
1
1
1
1
1
1
1
1
1
1
1
1
1
1
1
1
1
1
1
1
1
1
1
1
1
1
1
1
1
1
1
1
1
1
1
1
1
1
1
1
1
1
1
1
1
1
1
1
1
1
1
1
1
1
1
1
1
1
1
1
1
1
1
1
1
1
1
1
1
1
1
1
1
1
1
1
1
1
1
0.469896
0.466867
0.436882
0.530582
0.438325
0.434943
0.359291
0.456451
0.439672
0.449189
0.465079
0.4664
0.363511
0.398625
0.463929
0.45773
0.3998
0.4306
0.477104
0.492813
0.435116
0.434943
0.47379
0.499934
0.431552
0.48955
0.450279
0.441626
0.383558
0.376516
0.446126
0.387933
0.48742
0.401586
0.32859
0.401087
0.422277
0.396164
0.456737
0.412967
0.393655
0.385086
0.429136
0.374926
0.463745
0.40968
0.372935
0.489944
0.382276
0.394332
0.331684
0.438857
0.361296
0.396164
0.432375
0.406444
0.390948
0.394583
0.338221
0.460683
0.416134
0.403047
0.323482
0.348561
0.35599
0.426973
0.393565
0.374109
0.40623
0.421093
0.439684
0.439057
0.401776
0.406454
0.460851
0.407323
0.371029
0.414102
0.438213
0.506051
0.35599
0.466867
0.288367
0.452346
0.431906
0.351846
0.483535
0.373831
0.40719
0.389834
0.397422
0.367303
0.386064
0.387571
0.412498
0.378985
0.684566
0.619191
0.675124
0.705939
0.637319
0.595596
0.658938
0.813019
0.591259
0.741214
0.792798
0.698897
0.676744
0.705945
0.821969
0.801347
1
1
1
1
1
1
1
1
1
1
1
1
1
1
1
1
1
1
1
1
1
1
1
1
1
1
1
1
1
1
1
1
1
1
1
1
1
1
1
1
1
1
1
1
1
1
1
1
1
1
1
1
1
1
1
1
1
1
1
1
1
1
1
1
1
1
1
1
1
1
1
1
1
1
1
1
1
1
1
1
1
1
1
1
1
1
1
1
1
1
1
1
1
1
1
1
1
1
1
1
1
1
1
1
1
1
1
1
1
1
1
1
1
1
1
1
1
1
1
1
1
1
1
1
1
1
1
1
1
1
1
1
1
1
1
1
1
1
1
1
1
1
1
1
1
1
1
1
1
1
1
1
1
1
1
1
1
1
1
1
1
1
1
1
1
1
1
1
1
1
1
1
1
1
1
1
1
1
1
1
1
1
1
1
1
1
1
1
1
1
1
1
1
1
1
1
1
1
1
1
1
1
1
1
1
1
1
1
1
1
1
1
1
1
1
1
1
1
1
1
1
1
1
1
1
1
1
1
1
1
1
1
1
1
1
1
1
1
1
1
1
1
1
1
1
1
1
1
1
1
1
1
1
1
1
1
1
1
1
1
1
1
1
1
1
1
1
1
1
1
1
1
)
;

boundaryField
{
    inlet
    {
        type            fixedValue;
        value           uniform 1;
    }
    outlet
    {
        type            fixedValue;
        value           uniform 1;
    }
    wall
    {
        type            zeroGradient;
    }
    procBoundary1to0
    {
        type            processor;
        value           nonuniform List<scalar> 
192
(
0.357463
0.404863
0.420663
0.423296
0.381163
0.40223
0.41013
0.478597
0.320596
0.412763
0.44173
0.336396
0.41803
0.420663
0.331129
0.51283
0.389063
0.357463
0.454897
0.378529
0.439097
0.475963
0.462797
0.357463
0.568131
0.507564
0.673465
0.533897
1
1
1
1
1
1
1
1
1
1
1
1
1
1
1
1
1
1
1
1
1
1
1
1
1
1
1
1
1
1
1
1
1
1
1
1
1
1
1
1
1
1
1
1
1
1
1
1
1
1
1
1
1
1
1
1
1
1
1
1
1
1
1
1
1
1
1
1
0.445203
0.42041
0.473797
0.378546
0.416568
0.523272
0.356617
0.378546
0.479206
0.410519
0.400836
0.433675
0.472048
0.432279
0.438422
0.431169
0.438044
0.414476
0.369883
0.403605
0.441623
0.368979
0.416313
0.428663
0.591956
0.6202
0.747953
0.656697
1
1
1
1
1
1
1
1
1
1
1
1
1
1
1
1
1
1
1
1
1
1
1
1
1
1
1
1
1
1
1
1
1
1
1
1
1
1
1
1
1
1
1
1
1
1
1
1
1
1
1
1
1
1
1
1
1
1
1
1
1
1
1
1
1
1
1
1
)
;
    }
    procBoundary1to3
    {
        type            processor;
        value           nonuniform List<scalar> 
192
(
0.557597
0.423296
0.41013
0.336396
0.523364
0.43383
0.50493
0.460163
0.399596
0.375896
0.399596
0.460163
0.249495
0.360096
0.399596
0.407496
0.328496
0.510197
0.42593
0.320596
0.48913
0.423296
0.396963
0.44173
0.494397
0.49703
0.562864
0.641864
1
0.997367
1
1
1
1
1
1
1
1
1
1
1
1
1
1
1
1
1
1
1
1
1
1
1
1
1
1
1
1
1
1
1
1
1
1
1
1
1
1
1
1
1
1
1
1
1
1
1
1
1
1
1
1
1
1
1
1
1
1
1
1
1
1
1
1
1
1
0.493816
0.491485
0.416454
0.429096
0.483792
0.438422
0.48371
0.491734
0.411122
0.33893
0.398651
0.414778
0.431169
0.405258
0.465907
0.475627
0.38857
0.387571
0.384804
0.40404
0.458734
0.442844
0.481732
0.402251
0.629132
0.677203
0.653829
0.629539
1
1
1
1
1
1
1
1
1
1
1
1
1
1
1
1
1
1
1
1
1
1
1
1
1
1
1
1
1
1
1
1
1
1
1
1
1
1
1
1
1
1
1
1
1
1
1
1
1
1
1
1
1
1
1
1
1
1
1
1
1
1
1
1
1
1
1
1
)
;
    }
}


// ************************************************************************* //
