/*--------------------------------*- C++ -*----------------------------------*\
| =========                 |                                                 |
| \\      /  F ield         | OpenFOAM: The Open Source CFD Toolbox           |
|  \\    /   O peration     | Version:  2506                                  |
|   \\  /    A nd           | Website:  www.openfoam.com                      |
|    \\/     M anipulation  |                                                 |
\*---------------------------------------------------------------------------*/
FoamFile
{
    version     2.0;
    format      ascii;
    arch        "LSB;label=32;scalar=64";
    class       surfaceScalarField;
    location    "0.008";
    object      phi;
}
// * * * * * * * * * * * * * * * * * * * * * * * * * * * * * * * * * * * * * //

dimensions      [0 3 -1 0 0 0 0];

oriented        oriented;

internalField   nonuniform List<scalar> 
1200
(
0.00153245
-1.02449e-06
7.36363e-06
0.00152457
4.26544e-06
4.2255e-06
0.00152017
2.67571e-06
9.00115e-07
0.00152685
-4.82772e-06
-2.89291e-06
0.00152756
-1.25977e-06
-5.17921e-06
0.00151806
1.24761e-06
-2.35798e-06
0.00151117
-2.38024e-08
-2.3774e-06
0.00152031
-1.12739e-06
-2.53854e-06
0.00152837
-2.13762e-06
2.93968e-06
0.00153153
-1.77262e-06
5.9288e-06
0.00152891
1.31981e-06
8.45727e-06
0.00152342
3.73044e-06
5.68704e-06
0.00151796
1.90654e-06
2.1388e-07
0.00152066
-1.12619e-06
-5.54975e-06
0.00152098
1.67278e-06
-4.65782e-06
0.00152173
9.8828e-07
-2.66821e-06
0.00152368
-3.05874e-06
4.2758e-07
0.00152253
-2.69906e-06
7.50894e-07
0.00152393
-3.54782e-06
-2.22425e-06
0.00152683
-2.48981e-06
-3.84884e-06
0.00152368
8.92076e-07
9.3198e-07
0.00152272
-3.83516e-07
4.4782e-06
0.00152416
-3.8522e-07
2.48995e-06
0.00152563
1.36749e-07
-2.83444e-06
0.00152462
1.31855e-06
-3.73588e-06
0.00152379
1.42395e-07
-8.86157e-07
0.00152286
-1.54747e-06
2.35524e-06
0.00152101
2.66909e-07
2.76024e-06
0.00151994
1.46569e-06
2.6929e-06
0.00152157
6.62558e-07
6.91812e-07
0.0015292
3.41609e-07
-4.69683e-06
-8.73282e-07
-4.13443e-06
0.00156312
-1.73714e-06
9.95591e-07
0.00155932
3.89728e-06
4.3478e-06
0.00155446
5.50355e-06
2.18437e-06
0.00155029
-2.2976e-06
-1.12256e-06
0.0015503
-2.1956e-06
-5.46175e-06
0.00154634
1.30101e-06
-3.72141e-06
0.00154266
1.48312e-06
-9.69241e-07
0.00154985
-1.34931e-06
-1.75617e-07
0.00155473
-1.90092e-06
-4.76088e-07
0.00155105
-6.62187e-07
6.68505e-06
0.00154611
8.21837e-07
1.25068e-05
0.00154539
2.43449e-06
8.34183e-06
0.0015387
3.75674e-06
3.7564e-06
0.00153003
2.182e-06
2.48006e-06
0.00152795
3.53216e-06
-9.09322e-07
0.0015351
-4.5316e-07
-6.03921e-06
0.00154111
-3.6084e-06
-3.97809e-06
0.00153614
-1.21186e-06
5.99578e-07
0.00153365
-2.7908e-06
-1.0218e-06
0.00154431
-5.78575e-06
-6.51939e-06
0.00155157
-1.83695e-06
-5.61844e-06
0.00155023
1.78548e-07
1.05911e-06
0.00154454
3.30708e-06
3.3817e-06
0.0015427
8.747e-07
-1.7123e-06
0.00154763
-1.87312e-06
-4.34228e-06
0.0015531
-4.6456e-06
-4.90688e-07
0.00155124
-1.11703e-06
5.24287e-07
0.00155056
4.3315e-07
-1.75435e-06
0.0015488
2.03442e-06
4.18104e-06
0.00154771
6.14559e-07
5.44732e-06
0.00155526
-2.10397e-06
-2.31173e-06
-2.8806e-06
-3.49535e-06
0.00155117
8.19397e-07
2.48064e-06
0.00155357
8.38828e-07
-8.41521e-06
0.00155409
4.3803e-06
-8.08221e-06
0.001546
2.13955e-06
1.45007e-06
0.00154673
-3.01878e-06
6.36193e-07
0.00154846
-1.73341e-06
-2.35852e-06
0.00155049
2.73588e-06
-8.11608e-06
0.00155249
7.31298e-07
2.76705e-06
0.00154756
2.23646e-07
1.0944e-05
0.00155052
-1.37144e-06
1.28101e-07
0.0015517
9.87228e-07
-2.46974e-06
0.0015518
3.63495e-07
8.62283e-07
0.00154787
2.68216e-06
9.60847e-07
0.00154704
6.04627e-07
-1.86304e-06
0.00155076
-7.33255e-07
-2.02064e-06
0.00155179
-4.85925e-07
-3.98391e-07
0.00154849
-1.59446e-07
9.57808e-07
0.0015479
-2.0767e-06
-2.06403e-06
0.00154362
-1.20039e-06
-2.75336e-06
0.00153599
-2.76088e-06
2.49398e-06
0.00153965
-3.95227e-06
3.46507e-06
0.00154342
-2.7547e-06
2.58925e-06
0.00154446
2.3014e-06
2.34545e-06
0.00154302
3.20708e-06
-2.60224e-07
0.00153748
2.7574e-06
3.59665e-07
0.00153361
1.11758e-06
-2.80953e-06
0.00153726
-3.94328e-07
-5.73882e-06
0.00153872
-2.83391e-06
-1.45976e-06
0.00154131
-4.31701e-06
4.28629e-06
0.00154549
-3.39703e-06
2.471e-06
0.00155024
-2.53952e-07
-5.2458e-07
1.01064e-06
2.23626e-06
0.00154321
-4.26521e-06
-1.20599e-06
0.00154106
-8.94944e-07
2.57485e-06
0.00154034
2.45392e-06
1.84303e-06
0.00154124
6.6981e-07
5.209e-07
0.00154157
-4.27154e-06
2.90561e-06
0.00154238
-4.56746e-06
-4.11258e-06
0.00154856
-4.01776e-06
-9.58784e-06
0.00155681
2.66832e-08
-3.03755e-06
0.00155622
8.20209e-06
1.33256e-06
0.00154847
6.434e-06
7.30113e-06
0.00154457
-4.91327e-07
9.06669e-06
0.0015461
-3.68736e-06
6.18052e-06
0.00153932
5.94266e-06
3.45966e-06
0.00153362
3.86286e-06
1.36647e-06
0.00153702
-4.98977e-06
-8.34661e-07
0.00154521
-7.57837e-06
-2.17921e-07
0.00154981
-7.11423e-07
-2.22928e-06
0.00154862
2.83833e-06
-3.9674e-06
0.00154602
2.74892e-06
-5.80685e-06
0.00154549
2.20147e-07
-4.8985e-06
0.00154864
-2.32838e-06
-2.30392e-06
0.0015486
-8.58643e-07
6.88891e-08
0.00154848
1.64491e-06
6.19151e-07
0.00154894
9.20072e-07
7.70391e-07
0.00154819
-5.66689e-08
6.63869e-07
0.00154042
1.48475e-06
1.8724e-06
0.00153682
-2.40445e-06
1.2035e-06
0.00153847
-5.75011e-06
-1.36112e-06
0.00153869
-3.3165e-06
-1.68106e-06
0.00152944
1.39375e-06
5.68728e-06
0.0015289
2.67723e-06
1.98139e-06
-2.5208e-06
-1.92734e-06
0.00154785
2.04297e-06
-1.11474e-06
0.00154454
4.52816e-06
-1.30424e-06
0.00154669
3.78082e-06
-3.53465e-06
0.00154567
3.01227e-06
-1.96661e-06
0.00154182
-8.63893e-07
1.75543e-06
0.00154036
-3.52134e-06
-2.9272e-06
0.00153396
-2.46603e-06
-4.56592e-06
0.00153301
1.38537e-07
-4.90672e-07
0.00153393
8.58392e-06
3.52077e-06
0.00153528
5.61226e-06
2.29204e-06
0.00154177
-3.79361e-06
-2.37589e-08
0.00154345
-3.03517e-06
5.23861e-07
0.00154827
6.62062e-06
-5.08377e-07
0.00155059
3.93807e-06
-2.31315e-06
0.00154572
-5.37219e-06
6.96531e-07
0.00154253
-9.64226e-06
9.06933e-07
0.0015464
-5.77839e-06
-2.38098e-06
0.00155165
-5.56852e-07
-3.93505e-06
0.00155413
2.43564e-07
-1.99801e-06
0.00155401
-8.5448e-07
-1.74797e-06
0.00154989
7.18959e-07
-5.62844e-07
0.00154557
2.88333e-06
1.12992e-06
0.00154536
2.72736e-06
-2.44909e-06
0.00154788
5.90023e-07
-4.82933e-06
0.00155189
-3.73177e-06
-1.21709e-06
0.00155616
-4.95911e-06
2.44153e-06
0.00155691
-4.00701e-06
-1.01246e-06
0.00154971
-1.69137e-06
1.44492e-06
0.00153815
1.09117e-07
9.39952e-06
0.00154176
-7.44829e-07
6.33677e-06
0.00154951
8.61589e-07
1.41652e-06
6.88884e-07
-1.04793e-06
0.00154937
-1.58575e-06
4.52359e-06
0.00154605
1.20746e-06
-3.08747e-07
0.00154361
4.26479e-06
-5.12141e-06
0.00154544
1.4913e-06
-4.92532e-07
0.00154995
-5.69116e-07
3.94677e-06
0.00154499
2.63692e-06
-8.54661e-07
0.00152959
2.8395e-06
-3.26473e-06
0.00152277
-4.12419e-07
2.97444e-06
0.00154139
-2.75118e-06
1.2746e-07
0.00155587
-1.99096e-06
2.86851e-07
0.00154405
3.69139e-06
6.41787e-06
0.00153719
2.72544e-06
3.44244e-06
0.00154609
3.52993e-06
-7.64776e-06
0.00154969
3.18645e-06
-7.38064e-06
0.00154747
-2.04502e-06
5.77556e-07
0.00154561
-5.65123e-06
1.38431e-06
0.00154745
-4.95625e-06
-3.57902e-06
0.00154898
-2.4944e-06
-8.53854e-07
0.00154441
3.13163e-06
3.50096e-06
0.00154262
2.27263e-06
6.24433e-07
0.0015456
2.5437e-06
-5.01066e-06
0.00154705
2.0072e-06
-2.05927e-06
0.00154805
-2.28166e-06
3.47095e-06
0.0015498
-4.85635e-06
5.86317e-06
0.00155133
-5.56207e-06
3.1646e-06
0.00154567
-1.94758e-06
1.37389e-06
0.00153119
2.74547e-06
2.64603e-06
0.00152465
2.62424e-06
-9.57837e-07
0.00151459
8.51452e-06
-1.23408e-06
0.00151297
5.1115e-06
-2.35974e-06
0.00153313
-3.95868e-06
-4.29143e-06
-2.58109e-06
-1.12997e-06
0.00154074
1.29949e-06
5.83848e-06
0.00153283
3.4788e-06
-4.3724e-06
0.00154134
-8.47656e-08
-1.03305e-05
0.0015493
-2.45915e-06
-3.2974e-06
0.00155405
-9.37665e-07
2.98881e-06
0.00155715
-5.37468e-08
3.62528e-06
0.00155713
1.02013e-06
3.15864e-06
0.001552
2.27601e-06
1.33542e-06
0.00155266
-1.36404e-06
-3.59833e-06
0.00155319
2.62181e-08
-5.05402e-06
0.00154883
4.24299e-06
4.72939e-06
0.00154192
4.74179e-06
4.06606e-06
0.00154101
3.0634e-06
2.76737e-07
0.00154604
5.72978e-07
-3.95903e-06
0.00154323
1.2964e-06
-3.0816e-06
0.00154266
-1.83731e-06
3.22258e-07
0.00154117
-2.94573e-06
1.30251e-06
0.00154019
-4.35454e-06
-2.4036e-07
0.00154272
-1.10301e-06
-7.01412e-07
0.00154658
-1.12728e-06
1.37956e-06
0.00155015
-1.46622e-06
1.56179e-06
0.00154957
6.90812e-07
-1.07452e-07
0.00154602
2.80871e-06
-2.45063e-06
0.0015419
-2.25799e-06
1.27369e-06
0.00153582
-2.28302e-06
1.28052e-06
0.00153734
-4.63369e-08
-4.99213e-06
0.00154343
6.26334e-07
-5.05785e-06
0.00154191
2.98343e-06
1.21476e-06
0.00154605
4.71883e-06
5.20439e-06
0.00154415
5.112e-06
2.23106e-06
0.0015415
1.89184e-06
-4.87151e-07
-2.008e-06
4.31273e-06
0.00152523
7.38263e-06
0.00152515
-8.83712e-07
0.00152534
-4.55885e-06
0.0015242
3.41682e-07
0.00152312
2.72721e-06
0.00152275
4.468e-06
0.00152355
1.51559e-06
0.00152477
-5.69804e-07
0.00152087
1.50939e-06
0.00152019
2.78288e-06
0.00152121
3.98285e-06
0.00152277
1.37839e-07
0.00152781
-4.04247e-06
0.00152787
-1.93042e-06
0.00152481
2.6449e-06
0.00152883
4.6469e-06
0.00153362
7.29371e-07
0.00152874
-2.07401e-06
0.00152264
2.03796e-06
0.00152147
2.8181e-06
0.00151773
3.03651e-06
0.00151451
-2.32829e-07
0.00152109
-6.06283e-06
0.00152326
-6.25686e-06
0.0015207
-3.5402e-06
0.00151878
-3.95292e-06
0.00151673
-2.61155e-07
0.00152055
-1.14616e-06
0.00152783
7.78653e-07
0.00152872
2.05643e-06
0.00153069
-3.98801e-07
3.01032e-06
0.00145327
-8.43578e-06
0.00146098
-3.493e-06
0.00146309
-1.20783e-06
0.00146344
-3.25684e-06
0.0014538
4.46612e-06
0.00144923
2.11431e-06
0.00145109
-4.26153e-06
0.00145425
-5.74049e-06
0.00145884
-1.6714e-06
0.00146082
3.90681e-06
0.00146464
4.60956e-06
0.00146979
5.28002e-07
0.00146798
2.01247e-06
0.00145898
3.39895e-06
0.00145208
2.23945e-06
0.00144973
-2.94384e-07
0.00145376
-3.6024e-06
0.00145473
-3.43242e-07
0.00145207
4.33688e-07
0.00144877
-5.6246e-07
0.00144928
4.22046e-07
0.00145527
-1.57629e-06
0.00146006
-2.29365e-06
0.00145521
2.01171e-06
0.00144403
7.42967e-06
0.00143887
4.25151e-06
0.00144446
-3.26634e-06
0.00145471
-7.51649e-06
0.0014577
-3.53577e-07
0.00145472
3.63926e-06
0.00144368
6.34215e-06
2.04574e-06
0.00145611
-2.87079e-06
0.00146019
-3.24703e-06
0.00145932
1.83365e-06
0.00145261
2.24151e-06
0.00145153
6.45938e-08
0.00144964
1.743e-07
0.00144346
8.4304e-07
0.00143339
4.16185e-06
0.00142753
3.64262e-06
0.00144026
-2.16826e-06
0.00146376
-6.38483e-06
0.00147397
-1.38191e-06
0.00148102
-1.2938e-06
0.00148399
2.90888e-06
0.00147798
7.32204e-06
0.00146715
4.4651e-06
0.00146037
-8.10399e-07
0.00146419
-3.61207e-06
0.00146316
4.10138e-07
0.00145081
5.24031e-06
0.00144198
3.60224e-06
0.00144286
-1.47286e-06
0.00144319
7.20978e-07
0.00144343
1.32368e-08
0.00144668
-1.84105e-07
0.00145435
-3.90291e-06
0.00145752
-5.91378e-06
0.00145012
-1.95643e-06
0.00145013
3.79311e-06
0.0014573
1.89929e-06
0.00146229
-9.67058e-07
1.24064e-07
0.00147029
9.79949e-08
0.00145353
5.04189e-06
0.00144308
4.15423e-06
0.00144771
-9.44909e-07
0.00145442
-5.95775e-06
0.00145443
-2.22012e-06
0.0014453
1.79298e-06
0.00145089
1.32589e-06
0.00146843
-2.96152e-06
0.00146597
2.96471e-07
0.00145936
-2.24584e-06
0.00146251
-3.66155e-06
0.0014634
-1.25646e-06
0.00146352
9.04764e-07
0.00146851
3.1727e-07
0.00147196
5.88204e-07
0.00147082
1.3038e-06
0.00146409
1.04603e-06
0.00146322
-1.48596e-06
0.00147635
-5.40088e-06
0.00148752
-4.12735e-06
0.00148834
2.90783e-07
0.001487
4.36301e-06
0.00148348
3.21485e-06
0.00147977
3.86177e-06
0.00146739
5.62494e-06
0.00145341
2.26821e-06
0.00145204
-2.16612e-06
0.00146161
-1.49283e-06
0.00146481
1.16895e-06
0.00146439
-1.14748e-06
-4.13314e-06
0.00145442
-4.11284e-06
0.00146648
-4.41902e-06
0.00147257
-9.54594e-08
0.00147086
1.30082e-06
0.0014747
-6.88452e-06
0.001476
-7.64674e-06
0.00146943
-1.28339e-06
0.00145866
9.02771e-06
0.00144765
9.35606e-06
0.00145673
-1.44947e-06
0.00147025
-6.71633e-06
0.00147298
-2.23948e-07
0.00147283
2.35729e-06
0.00147357
1.52222e-06
0.00147322
-1.88216e-07
0.00147483
-1.29713e-06
0.00147579
-1.88685e-06
0.0014714
1.44978e-06
0.00146418
-9.64824e-08
0.00145862
-4.7827e-06
0.00145726
-5.07579e-06
0.00145816
-6.41099e-07
0.00146133
1.77669e-06
0.00146211
3.19663e-06
0.00146305
3.52204e-06
0.00146525
5.28206e-06
0.00146513
3.57718e-06
0.00145917
2.39136e-06
0.00145448
1.50788e-06
0.00145838
2.91882e-06
0.00145722
1.92308e-06
-3.01371e-07
0.00146834
4.15095e-06
0.00146004
2.54874e-06
0.00145517
1.19953e-06
0.00145594
-1.45756e-06
0.00145867
-7.86586e-06
0.00145405
-5.97825e-06
0.00144339
4.69205e-06
0.00143926
1.26479e-05
0.00144782
4.27934e-06
0.00144741
1.2138e-06
0.00144007
5.66495e-07
0.00143949
8.78509e-07
0.00144106
2.10284e-07
0.00144271
-2.40551e-06
0.00145378
-1.05973e-05
0.00146584
-1.25049e-05
0.00146784
-6.27382e-06
0.00146436
9.54281e-07
0.00145998
2.27071e-06
0.00144998
3.43369e-06
0.00144272
1.54949e-06
0.00144154
1.63602e-06
0.00143404
6.86029e-06
0.00142701
5.38644e-06
0.00143384
-4.53488e-06
0.00144348
-1.95071e-06
0.00144271
3.29865e-06
0.00144168
4.86355e-06
0.00145384
-1.26427e-06
0.00146722
-4.18823e-06
0.00147657
-6.01239e-06
-2.56739e-06
0.00146903
3.08277e-06
0.00146805
3.22126e-06
0.00145863
5.49994e-06
0.00145876
-2.09778e-06
0.00145772
-2.87407e-06
0.00144544
5.44788e-06
0.0014451
1.67322e-06
0.00146352
-2.8315e-06
0.00146712
7.99309e-07
0.0014671
1.50249e-06
0.00147394
1.45872e-07
0.00147769
5.76797e-07
0.00146854
1.65606e-06
0.00146082
-2.07036e-06
0.00145921
-8.45318e-06
0.00145291
-4.85384e-06
0.0014476
-4.55395e-06
0.00145468
-6.98307e-06
0.00146264
-2.16983e-06
0.0014592
7.40784e-06
0.00144716
8.57735e-06
0.00144676
-2.22825e-08
0.00146446
-7.38533e-06
0.00148351
-7.83967e-06
0.00148748
-5.35795e-06
0.00149106
-4.16124e-06
0.00149505
1.95403e-06
0.0014915
7.46834e-06
0.00148771
1.24325e-06
0.00148295
-1.78794e-06
0.00147138
1.18501e-06
4.22057e-06
0.00147444
5.27372e-06
0.00146313
1.01399e-05
0.0014513
6.87342e-06
0.00145215
-6.25621e-06
0.00145963
-7.37724e-06
0.00146309
5.61128e-06
0.00146021
7.64855e-06
0.00145624
2.45572e-06
0.00145424
-8.69566e-07
0.0014523
-1.63291e-06
0.00145902
-1.85317e-06
0.00146446
-8.17466e-07
0.00146848
-2.08842e-06
0.00146651
-4.05402e-06
0.00145558
-6.08826e-07
0.00144658
4.43698e-06
0.00144484
-1.51954e-06
0.00144484
-7.23043e-06
0.00144743
-5.47393e-06
0.00145839
-2.22684e-06
0.00146803
4.9311e-07
0.00146532
2.57414e-06
0.00145572
-2.495e-07
0.0014555
-6.39326e-06
0.00145531
-3.90875e-06
0.0014456
5.22627e-07
0.00144139
1.07236e-06
0.00145369
-3.63673e-06
0.00146396
-3.82274e-06
0.00146249
1.88203e-06
0.00146161
1.56815e-06
-6.60116e-07
0.00144976
0.00145902
0.0014613
0.00145533
0.00145068
0.00146077
0.00146993
0.00147182
0.00147245
0.00147353
0.00147566
0.00147497
0.00146883
0.00146283
0.00146486
0.00147394
0.00147309
0.00146378
0.00146035
0.00146092
0.00146445
0.00146677
0.00146043
0.00144779
0.00144027
0.00143683
0.00143763
0.00143282
0.00142971
0.00143365
0.00143479
)
;

boundaryField
{
    wall
    {
        type            calculated;
        value           nonuniform List<scalar> 
384
(
1.45644e-09
-5.61725e-09
1.13519e-07
6.11863e-09
2.66197e-08
3.2402e-08
5.88693e-10
-1.75996e-16
5.72386e-09
2.15607e-08
5.72787e-08
-2.54783e-08
2.82243e-08
-2.45781e-09
1.02312e-08
-8.39148e-10
6.99749e-09
1.18198e-08
4.55803e-08
3.53072e-09
4.73174e-08
4.57532e-09
1.32675e-07
2.71955e-08
7.94852e-09
9.15935e-08
3.93186e-09
-1.29831e-08
1.45246e-08
1.36134e-08
4.56128e-09
5.39098e-08
5.117e-11
1.61076e-08
-4.44219e-08
-1.11748e-08
1.45856e-08
-4.84664e-10
1.4716e-08
7.87383e-17
9.32916e-08
1.15218e-07
2.3773e-08
1.10391e-08
2.45551e-08
-7.22053e-09
-3.35296e-10
-7.66688e-09
3.14509e-08
9.69619e-08
6.12841e-08
5.9182e-08
1.12958e-07
1.00564e-07
7.11608e-08
-1.21619e-09
2.61044e-08
-6.3618e-10
1.14464e-08
3.46628e-08
2.62931e-08
3.34763e-08
1.3953e-08
2.62879e-10
2.06332e-08
7.03807e-08
1.20899e-08
2.08013e-08
3.47718e-08
7.02851e-09
6.6031e-08
6.81846e-09
4.11701e-08
3.13926e-08
1.23885e-07
-2.59239e-08
3.25378e-08
1.267e-08
2.36178e-08
4.40068e-08
2.6955e-08
-1.21893e-10
-1.13172e-09
7.74776e-09
3.31305e-08
-2.41967e-10
8.67082e-09
-4.68831e-10
1.29383e-08
4.07114e-08
-5.4625e-09
1.78499e-08
4.0826e-09
-5.06222e-10
1.86678e-08
1.84386e-08
8.77836e-09
7.75901e-09
3.03042e-08
-2.12411e-09
6.73055e-08
5.74579e-08
8.32001e-09
6.08768e-09
4.62791e-08
2.68252e-09
1.85524e-08
4.19232e-09
-3.23625e-08
1.5539e-09
-1.2169e-08
7.47529e-09
2.12259e-09
1.92837e-08
-1.89364e-09
2.62103e-08
3.23861e-08
4.35346e-08
3.339e-09
7.35944e-09
-1.67434e-08
2.76965e-08
2.55057e-08
5.51899e-08
6.2694e-08
2.68037e-08
3.64105e-08
2.43993e-09
-3.90457e-09
9.12621e-09
-1.75509e-08
-6.31061e-10
2.65872e-16
1.934e-08
3.59735e-09
6.07654e-08
1.24724e-07
5.00786e-08
1.21973e-08
1.5889e-08
3.90116e-08
2.06292e-10
1.12215e-08
4.04337e-09
4.29093e-09
3.20364e-08
1.80931e-08
2.79755e-08
2.08915e-08
-1.7276e-08
1.01757e-08
-6.977e-10
8.72153e-09
3.34991e-08
3.01772e-09
4.48872e-08
3.19623e-08
9.30837e-08
5.71717e-08
-1.71835e-08
3.27608e-09
2.68339e-08
2.24719e-08
3.09212e-09
7.15874e-08
-6.13838e-10
2.64775e-10
6.95281e-09
6.44165e-08
7.53852e-08
1.27522e-09
1.00371e-07
3.55503e-08
0
1.26782e-08
8.13915e-09
-2.18587e-09
4.04495e-08
4.89103e-08
3.55648e-08
-3.92198e-08
1.31684e-08
1.12169e-08
2.52258e-08
-3.39696e-16
4.54193e-08
5.40518e-08
6.65336e-09
1.11406e-08
3.75226e-08
5.06626e-08
-9.54e-09
1.93647e-08
1.69052e-08
2.75261e-08
6.99671e-08
1.83596e-08
2.33663e-08
1.36237e-08
6.81071e-08
1.64288e-08
-9.06056e-10
3.91232e-08
1.03765e-08
2.6589e-08
3.55539e-09
4.33889e-08
1.61292e-08
2.23152e-08
1.05132e-10
6.32185e-08
1.25933e-08
3.95503e-08
0
2.79348e-08
2.82197e-09
1.91497e-08
8.05105e-08
1.17862e-07
3.98976e-08
3.95283e-09
-1.98155e-08
1.89313e-08
2.91936e-08
6.08325e-08
2.61333e-08
-7.85544e-10
1.40769e-08
7.21007e-09
5.23069e-08
0
7.26891e-08
3.0254e-08
1.83851e-08
-8.13246e-11
3.52088e-08
6.40797e-08
2.20154e-09
3.35385e-08
-8.69419e-09
6.05914e-09
1.26527e-08
7.98732e-08
6.7088e-08
8.16549e-09
7.92086e-08
7.58899e-09
9.02161e-09
2.39928e-08
3.89423e-08
-9.04802e-09
4.63542e-08
3.48199e-08
-1.03411e-08
1.70697e-08
2.22016e-08
0
3.04178e-12
1.32183e-13
7.26225e-11
1.81595e-11
2.25319e-11
0
2.74939e-10
0
-1.05529e-12
0
-2.60525e-09
0
2.93466e-10
0
1.33349e-08
0
4.8839e-10
0
-1.4651e-10
0
-2.85963e-10
0
-1.04363e-11
0
-8.51451e-11
0
-2.03728e-10
0
1.21897e-10
0
1.15542e-10
0
-1.37389e-10
0
3.89871e-11
0
-2.25814e-12
0
-2.39084e-11
0
-1.4524e-10
0
-3.41966e-10
0
-3.57698e-10
0
3.44061e-13
0
6.84589e-11
9.77018e-11
8.91073e-10
0
1.29575e-08
0
-1.86312e-11
0
-2.96495e-10
0
-1.51896e-10
0
-1.74048e-11
0
-3.3121e-10
0
-9.91191e-10
0
-5.72498e-11
0
1.18331e-08
-4.71632e-10
-4.12734e-10
0
4.51538e-13
0
-2.07957e-10
0
1.44235e-10
0
-5.84353e-10
0
-1.78576e-09
0
2.43863e-08
0
1.76977e-12
3.71208e-11
5.65167e-11
1.77921e-11
3.01586e-10
0
3.92168e-09
0
4.99702e-11
0
-4.87269e-11
0
-4.00853e-10
0
-1.13011e-11
0
9.69414e-14
0
3.30869e-08
0
-3.19547e-10
0
1.30957e-08
0
7.53848e-11
0
3.54999e-09
0
-6.70262e-11
0
-3.06731e-09
0
-1.11882e-10
0
-4.61076e-10
3.83986e-11
5.25959e-10
0
2.13089e-10
0
2.04482e-08
0
1.24111e-08
)
;
    }
    outlet
    {
        type            cyclic;
        value           nonuniform List<scalar> 
16
(
0.00153638
0.00156257
0.00155159
0.00153698
0.0015518
0.00154562
0.00154665
0.00153032
0.00143747
0.00146067
0.00147089
0.00145142
0.00147775
0.00146347
0.00147079
0.00143711
)
;
    }
    inlet
    {
        type            cyclic;
        value           nonuniform List<scalar> 
16
(
-0.00153638
-0.00156257
-0.00155159
-0.00153698
-0.0015518
-0.00154562
-0.00154665
-0.00153032
-0.00143747
-0.00146067
-0.00147089
-0.00145142
-0.00147775
-0.00146347
-0.00147079
-0.00143711
)
;
    }
    procBoundary3to2
    {
        type            processor;
        value           nonuniform List<scalar> 
256
(
-2.40584e-06
-6.1768e-07
8.25464e-07
1.04672e-06
5.72849e-06
1.06069e-05
9.28628e-06
-5.47386e-06
-8.85289e-06
-7.31911e-06
-7.16233e-06
-3.91957e-06
3.33968e-06
3.97182e-06
2.66255e-06
9.34966e-07
6.765e-07
3.09529e-06
4.37165e-06
3.44376e-06
1.32404e-06
-3.132e-06
-3.54529e-06
1.22348e-06
3.43292e-06
1.57645e-06
1.16629e-07
-1.17829e-06
-3.08981e-06
-2.98345e-06
-3.26818e-06
-2.1762e-06
-8.30004e-07
-1.87513e-07
-1.50319e-07
2.76038e-06
6.38991e-06
7.6267e-06
3.14792e-06
-6.79898e-06
-4.64116e-06
-4.11174e-06
-7.07055e-06
-6.31926e-06
1.08355e-06
2.88009e-06
1.12338e-06
3.38791e-07
-1.48396e-06
2.87737e-06
2.75493e-06
-8.38148e-07
1.08152e-06
-2.80804e-07
-1.38009e-06
2.81451e-06
2.60543e-06
-1.98059e-07
9.13645e-07
2.25896e-06
-2.98311e-06
-4.31417e-06
-2.79347e-06
-1.80311e-06
-4.61665e-06
9.07567e-06
8.67954e-06
2.20077e-06
-5.34597e-07
3.65926e-06
4.8322e-06
-6.84547e-06
-8.13714e-06
-2.37803e-06
1.12478e-06
1.10794e-06
4.04446e-06
4.26635e-06
2.56432e-06
-5.94901e-07
-1.11322e-06
3.52404e-06
5.44297e-06
2.10852e-06
-5.01126e-06
-3.42416e-06
-2.37515e-06
-6.34602e-07
5.50302e-07
9.11821e-07
1.36709e-06
3.26531e-06
-5.21974e-07
-2.64201e-06
-6.06777e-06
-7.48068e-06
6.06837e-08
1.30051e-06
8.05387e-07
5.21374e-08
-1.98297e-06
6.13678e-06
1.01602e-05
-4.5039e-06
-8.72187e-06
-7.359e-06
-3.68595e-06
-3.66042e-06
5.80587e-08
1.07945e-06
1.68783e-06
-8.80233e-07
-1.81788e-06
2.37843e-07
4.45663e-06
2.45235e-06
-2.47158e-06
-1.92627e-06
1.62714e-07
1.0531e-06
2.90166e-06
5.53222e-06
4.39976e-06
2.63301e-06
4.55582e-07
-1.22974e-06
-4.36387e-06
-2.62084e-06
-1.2391e-06
-8.11195e-07
5.64879e-08
6.42022e-07
-1.30765e-06
3.33951e-06
9.41478e-06
1.32856e-06
-4.82997e-06
-2.81331e-06
-3.16388e-06
-2.85367e-06
-4.99276e-06
-8.51845e-08
4.55334e-06
4.35183e-06
3.5729e-06
2.08127e-06
2.02474e-06
2.94383e-06
1.63449e-06
-5.5338e-07
1.57974e-06
2.63677e-06
8.85026e-07
-2.67214e-07
1.86323e-06
1.6936e-06
-1.25816e-06
-7.80668e-06
-7.35986e-06
-4.44745e-06
-4.63803e-06
6.94493e-06
7.07322e-06
1.92852e-07
-8.75824e-06
-3.37804e-07
1.33543e-05
4.39915e-06
-7.41367e-06
-7.16782e-06
-2.0747e-06
-2.35003e-06
1.83732e-06
4.53748e-06
-1.68157e-06
-3.51653e-06
9.11847e-07
1.26471e-06
-1.82452e-06
-1.96246e-06
2.15538e-07
1.47744e-06
5.36276e-07
-2.15741e-06
-2.86728e-06
1.26831e-06
5.08897e-06
3.18195e-06
2.88666e-06
-1.87404e-06
-1.10503e-05
-8.0937e-06
-2.81539e-06
1.00099e-05
6.17503e-06
-7.19295e-07
-7.37067e-06
-4.03465e-06
-1.3109e-06
1.10587e-06
1.55156e-06
2.50227e-06
-9.18923e-07
8.28867e-07
1.09459e-06
1.54434e-06
2.55088e-06
-3.56701e-06
-1.8182e-06
3.0773e-06
2.40441e-06
-1.84132e-06
-1.12203e-06
2.00869e-06
9.08891e-07
2.46766e-07
1.5241e-06
1.5716e-06
1.0791e-06
-4.52526e-08
-5.55467e-06
-3.30897e-07
-2.71087e-06
-1.00369e-05
-9.87846e-07
4.43699e-06
4.28313e-06
-1.65356e-06
-2.5918e-06
-4.1491e-06
-1.29533e-06
1.62743e-06
1.02984e-06
-2.08219e-06
-7.58115e-07
3.04322e-06
2.06594e-06
2.44764e-06
1.70605e-06
-1.0505e-05
-8.46026e-06
2.59536e-06
2.95694e-06
-2.7725e-06
-7.61855e-07
4.13862e-06
2.29109e-06
1.83629e-06
3.81861e-06
5.81871e-06
2.94403e-06
3.02877e-07
-3.34005e-06
2.16642e-06
3.24975e-07
-4.65092e-06
)
;
    }
}


// ************************************************************************* //
