/*--------------------------------*- C++ -*----------------------------------*\
| =========                 |                                                 |
| \\      /  F ield         | OpenFOAM: The Open Source CFD Toolbox           |
|  \\    /   O peration     | Version:  2506                                  |
|   \\  /    A nd           | Website:  www.openfoam.com                      |
|    \\/     M anipulation  |                                                 |
\*---------------------------------------------------------------------------*/
FoamFile
{
    version     2.0;
    format      ascii;
    arch        "LSB;label=32;scalar=64";
    class       volVectorField;
    location    "0.008";
    object      U_0;
}
// * * * * * * * * * * * * * * * * * * * * * * * * * * * * * * * * * * * * * //

dimensions      [0 1 -1 0 0 0 0];

internalField   nonuniform List<vector> 
512
(
(9.98245 -0.0195552 0.0176797)
(9.96571 -0.00327913 -0.00681289)
(9.98096 -0.0262554 -0.0213983)
(10.0074 -0.0220854 -0.0228619)
(9.98073 -0.001259 -0.0388963)
(9.84662 -0.00344639 -0.0377414)
(9.89406 -0.0280169 0.0195934)
(10.0026 -0.0253666 0.0316843)
(10.0317 0.0143985 0.0652962)
(10.0384 0.0132378 0.028834)
(9.98283 0.0427664 0.00760344)
(9.97216 0.0608248 -0.00295192)
(10.0221 0.0394784 -0.0331696)
(10.0409 -0.00864759 -0.0350136)
(10.0284 0.00287687 -0.0208488)
(10.0054 0.0187806 0.00367114)
(9.99383 0.00446468 0.0154763)
(10.0122 0.000870173 -0.0102189)
(10.0266 8.70044e-05 -0.0264707)
(9.99952 0.00404155 -0.0441066)
(9.93335 0.03018 0.0291265)
(9.89849 0.00445671 0.0427689)
(9.97354 -0.014372 0.00192002)
(9.98108 -0.00952987 -0.0192191)
(9.96441 0.00490672 -0.00130001)
(9.97821 0.010866 0.0164356)
(10.0217 0.0114654 -0.00476353)
(9.95544 0.00252363 -0.0130607)
(9.86493 -0.0166852 -0.00454339)
(9.94146 -0.0111711 -0.0113011)
(10.0077 0.000580004 -0.0423065)
(10.0212 -0.0105446 -0.0245202)
(10.1595 0.0244712 0.0128633)
(10.1419 0.0524431 0.00907235)
(10.1426 0.0144007 0.0131076)
(10.1053 -0.059666 -0.0435801)
(10.0767 0.00193205 -0.0908557)
(9.9646 -0.000247687 -0.0256729)
(9.96308 -0.0273248 0.0109364)
(10.1696 -0.00751296 0.0284291)
(10.1741 -0.0112427 0.0139348)
(10.182 -0.0144878 0.0276526)
(10.1729 0.0267424 0.0711501)
(10.1401 0.0279971 0.0479446)
(10.122 0.0154686 0.00857354)
(10.1295 0.0103678 -0.0108181)
(10.1437 0.00896461 -0.0228885)
(10.1241 -0.0228993 -0.015819)
(10.0789 -0.0326187 0.00174621)
(10.0835 -0.0206372 -0.00709666)
(10.1411 -0.0509185 -0.0263527)
(10.1569 -0.0540852 -0.0143438)
(10.0683 -0.0118799 -0.0226657)
(10.0685 -0.00122504 0.00723288)
(10.0898 0.00379974 0.0167168)
(10.0934 0.00295978 -0.0234113)
(10.0812 0.00458759 -0.0319918)
(10.1161 -0.0112043 0.00505043)
(10.1104 -0.0194124 -0.0133879)
(10.0675 0.00433472 -0.021077)
(10.0584 0.0211701 0.0490461)
(10.1133 0.0191237 0.0362461)
(10.1359 0.0141223 -0.00689534)
(10.1525 0.00890229 -0.00871594)
(10.1123 0.0193901 -0.0146933)
(10.1249 0.044966 -0.106211)
(10.1179 0.0520906 -0.0875849)
(10.0887 -0.0111345 0.0102181)
(10.086 -0.0368572 0.0144709)
(9.99931 0.0235963 -0.038089)
(10.0145 0.0498337 -0.0401529)
(10.1214 0.00594362 0.0790147)
(10.1591 -0.00630772 0.0670188)
(10.1629 0.000344861 -0.0464576)
(10.1587 0.00657134 -0.0194282)
(10.1192 -0.00375623 0.00527753)
(10.0954 -0.00505749 -0.00271744)
(10.1611 -0.00398806 -0.015165)
(10.1884 0.0200561 -0.015756)
(10.1253 -0.00779101 0.00933901)
(10.1162 -0.0195788 0.0275994)
(10.1099 -0.0268878 -0.0166713)
(10.1173 -0.0378334 -0.0183409)
(10.1211 -0.0388042 0.0183035)
(10.0391 -0.0133016 0.0399198)
(10.0275 -0.000659317 0.0490102)
(10.0969 0.0517934 0.0300943)
(10.0983 0.0478127 0.0174243)
(10.0796 0.017278 0.0257407)
(10.0481 -0.0260481 -0.00709747)
(10.076 -0.0216147 -0.0632473)
(10.0575 -0.0095396 -0.0618894)
(10.0983 0.00340413 0.0198318)
(10.1312 -0.023997 0.0143648)
(10.1243 -0.0406917 0.0173027)
(10.1008 -0.0122991 0.0349071)
(10.155 -0.0403917 -0.00282616)
(10.0744 -0.0449092 -0.0130334)
(10.0792 -0.00668043 0.00314393)
(10.0952 -0.01161 0.0307505)
(10.0774 -0.0495564 0.0397069)
(9.99029 -0.0238622 -0.103433)
(9.97975 0.00258828 -0.114893)
(10.1103 0.0430435 0.035865)
(10.1406 0.0455891 0.0641843)
(10.1214 -0.0194937 0.066287)
(10.1939 -0.0205784 0.0698669)
(10.2155 -0.00291685 0.0512742)
(10.1751 0.0701769 0.0161264)
(10.1186 0.0247351 -0.012118)
(10.0836 -0.0127795 -0.0222222)
(10.1534 -0.0208762 0.000656638)
(10.1712 0.0107193 -0.00884928)
(10.1485 0.0184736 -0.0250923)
(10.1585 0.0458759 -0.0492211)
(10.1506 0.00367523 -0.027052)
(10.0731 -0.0514954 0.0128973)
(10.0811 -0.0383885 0.0363498)
(10.1349 -0.0042144 0.000406098)
(10.1175 -0.00943213 -0.00591977)
(10.0658 0.00603348 -0.0213488)
(10.0287 0.0442778 -0.0268182)
(10.1034 0.00828392 -0.0176428)
(10.1248 -0.0274797 -0.0281711)
(10.0472 -0.0366435 -0.00174137)
(10.0319 0.00547206 0.0315808)
(10.1372 0.0485636 0.0390267)
(10.1859 -0.00927852 -0.0029479)
(10.0816 0.0228589 -0.00734411)
(10.0948 0.0443797 -0.0179198)
(10.1119 0.0375906 -0.0270474)
(10.1109 0.0212875 -0.00770668)
(10.0423 -0.0166292 0.0194192)
(10.0101 -0.0539162 -0.0436527)
(10.0375 -0.049744 -0.0515999)
(10.0726 0.0238565 -0.00205198)
(10.0712 0.0880404 -0.002134)
(10.1109 0.04315 0.0222261)
(10.2142 -0.0681647 0.0549888)
(10.1994 -0.0367669 0.022156)
(10.1993 0.0432311 -0.0061395)
(10.0992 -0.0134587 -0.0511011)
(10.0663 -0.046741 -0.0370579)
(10.1312 -0.0319318 -0.00599616)
(10.1847 -0.0100606 -0.012118)
(10.1948 -0.000480357 -0.0130527)
(10.0988 0.00529213 -0.00658553)
(10.0838 -0.00857593 -0.00436344)
(10.0697 -0.00595566 0.0118586)
(10.0719 0.0076829 0.0192545)
(10.0824 0.0249615 -0.0203573)
(10.0797 -0.00294879 -0.0356745)
(10.0778 -0.0120722 -0.00768787)
(10.089 -0.00595413 0.0116252)
(10.0959 -0.0288793 -0.00892177)
(10.0963 -0.0447243 -0.00609023)
(10.1138 -0.0436329 0.034929)
(10.142 -0.0151525 0.0650213)
(10.0961 0.0447523 0.0264711)
(10.0872 0.0215323 0.00297003)
(10.1663 0.00897143 0.0539826)
(10.1156 0.0399569 -0.0378003)
(10.0991 0.0422393 -0.0470324)
(10.0707 -0.0209042 0.027894)
(10.049 -0.0524667 0.082742)
(10.0108 0.0180658 -0.0683142)
(10.0062 0.0149233 -0.117683)
(10.1149 0.00396641 -0.0176209)
(10.1474 0.0296401 0.0178738)
(10.1238 0.0461532 0.0543647)
(10.112 0.0253416 0.0746142)
(10.1484 -0.00542398 -0.00140051)
(10.1505 0.0266787 -0.0675784)
(10.1328 0.0166633 -0.052154)
(10.0997 -0.0875872 0.0319815)
(10.1074 -0.096949 0.022723)
(10.1604 -0.0089785 -0.0353171)
(10.1591 0.0256058 -0.0216783)
(10.084 -0.00306873 0.0512947)
(10.0751 0.0159234 0.0252302)
(10.0743 0.0656387 -0.0192949)
(10.1215 0.0221537 -0.0304314)
(10.1722 -0.0210574 0.00375614)
(10.1134 -0.0323307 0.0132899)
(10.0833 -0.0413337 0.00744408)
(10.1646 -0.043377 0.000969421)
(10.0829 -0.000803034 -0.0104603)
(9.98403 0.0522508 -0.0434323)
(9.98791 0.065749 -0.0532448)
(10.0807 -0.00552289 -0.0041664)
(10.1733 -0.0451549 0.0317638)
(10.16 -0.0225216 0.0479031)
(10.1172 -0.00694114 0.0156023)
(10.1122 0.00961538 -0.0521405)
(10.0751 -0.00915356 -0.0754926)
(10.0692 -0.0359869 -0.00649527)
(10.0973 -0.0142523 0.0508139)
(10.1214 0.00448959 0.0222127)
(10.0895 0.0124669 -0.0130965)
(10.075 0.00312404 -0.0308159)
(10.1241 -0.0283652 -0.0500313)
(10.1175 0.0106087 -0.00356011)
(10.0971 0.0580728 0.047063)
(10.1728 0.0278042 0.00359268)
(10.2042 0.00858759 -0.00989649)
(10.1752 0.012673 -0.0599943)
(10.082 0.00439895 -0.0235698)
(10.0597 -0.0533783 0.044012)
(10.0868 -0.0702221 0.0140346)
(10.1022 -0.0283727 -0.0027768)
(10.0863 0.0368496 0.0248025)
(10.0795 0.0156882 0.0413784)
(10.067 0.00193942 0.0194874)
(10.0803 0.011521 -0.0121744)
(10.1079 -0.0016252 -0.0221273)
(10.0843 -0.0734579 -0.00160988)
(10.1071 -0.0617894 -0.00292298)
(10.1264 0.0365496 -0.0366852)
(10.1025 0.0461285 -0.0502753)
(10.105 0.0486293 -0.0106919)
(10.131 0.0835065 0.0508435)
(10.0481 0.0497813 0.0248981)
(10.061 0.00570187 0.0278026)
(10.1135 -0.0199805 0.0451848)
(9.99852 0.00755153 0.037453)
(9.97801 0.0459202 -0.0352862)
(9.92193 0.0180277 -0.0401826)
(9.90064 0.00825963 0.0156596)
(9.9519 -0.00747815 0.0328423)
(9.97727 -0.0380856 0.0234571)
(9.97389 -0.0228952 0.00303627)
(10.0022 0.0366875 0.0060235)
(9.98698 0.0311958 0.0240322)
(9.96365 0.0410047 0.0305228)
(9.97235 0.0453865 0.019837)
(10.0811 0.0307532 -0.0202905)
(10.0959 0.0129341 -0.0343667)
(9.96894 -0.00831812 -0.0132497)
(9.98069 0.00302965 0.00177293)
(10.0105 0.0336229 0.0692098)
(10.0547 0.0101795 0.0063157)
(10.0384 -0.0097625 -0.0251833)
(9.95247 -0.00735313 0.0402118)
(9.89872 -0.0247429 0.0492704)
(9.93125 -0.0506495 0.00617995)
(9.97395 -0.00997641 -0.0358885)
(9.96836 0.0363512 -0.0702399)
(9.98399 0.0236724 -0.0479558)
(10.0127 0.00764935 -0.0233271)
(9.97 -0.0116619 -0.0356999)
(9.97052 -0.00261333 -0.0442576)
(9.98097 0.0106711 -0.0117369)
(9.94258 -0.00430561 0.037334)
(9.95078 0.000601441 0.00654441)
(9.95726 -0.00988173 -0.00571251)
(9.9863 -0.0146756 0.0376564)
(9.71732 -0.0533029 0.0576514)
(9.6744 -0.00740999 0.0630537)
(9.70138 0.0164576 0.0156369)
(9.67319 -0.0501834 -0.0474695)
(9.62865 -0.00755337 -0.0374715)
(9.51814 0.0190224 -0.0127338)
(9.55902 -0.00971224 -0.0319431)
(9.58997 -0.0326526 0.0118569)
(9.60802 -0.0391588 0.0636072)
(9.7015 0.0103722 0.0572223)
(9.70419 0.069541 0.0523512)
(9.66778 0.0580021 0.0585116)
(9.68341 0.0341517 0.0626097)
(9.67678 0.0351934 -0.0091728)
(9.67529 0.0332716 -0.0454151)
(9.65847 0.00610956 -0.0251887)
(9.67571 -0.020544 -0.0107957)
(9.51472 -0.0255393 0.00110299)
(9.57741 -0.0145432 -0.0245044)
(9.60899 -0.0129825 -0.070645)
(9.58148 -0.00389832 -0.0041741)
(9.56043 0.0149047 0.0389366)
(9.54741 0.00660381 0.0189852)
(9.59629 0.00740584 0.00195564)
(9.60792 0.0228543 -0.000429113)
(9.53739 -0.0184469 0.0288885)
(9.54513 -0.0509562 0.0334814)
(9.56344 -0.071123 0.0321163)
(9.5596 -0.0282237 0.0351252)
(9.51062 0.0296759 -0.00655902)
(9.59285 0.0822645 -0.0517483)
(9.64693 -0.0070129 -0.0547848)
(9.68753 -0.0436014 0.00868844)
(9.63502 -0.0371227 0.0413501)
(9.72317 -0.0223746 0.0105944)
(9.72956 0.00712115 -0.0306028)
(9.71726 0.0489894 -0.0727492)
(9.45795 -0.00959853 0.0357071)
(9.40948 -0.0390219 0.047895)
(9.56447 -0.0282736 0.0131381)
(9.67174 0.00665971 -0.0254848)
(9.68852 0.00508018 0.0202109)
(9.75752 -0.0241825 0.0650659)
(9.74373 -0.0184535 0.0486719)
(9.72464 -0.0136213 0.0335199)
(9.73537 0.0178999 0.0583408)
(9.76178 0.0303078 0.0218775)
(9.74742 0.000565912 -0.0412559)
(9.69366 -0.00834932 -0.0531196)
(9.65793 -0.009264 -0.030867)
(9.67342 0.0106955 -0.0432533)
(9.60988 0.0306977 -0.0769248)
(9.58702 0.0254094 -0.0366285)
(9.51402 -0.0340458 0.0632975)
(9.53601 -0.0237749 0.053254)
(9.5504 0.0168071 0.000548636)
(9.52265 0.0428025 -0.0025407)
(9.52644 -0.0143783 -0.0106472)
(9.64298 -0.0606407 -0.0260596)
(9.64567 -0.0228559 -0.0255524)
(9.54595 0.0478348 0.0303395)
(9.61104 0.0570511 0.0424663)
(9.73408 0.0427503 -0.0236903)
(9.74169 0.0309827 -0.0421707)
(9.73863 0.0248751 -0.0217973)
(9.53824 0.02377 -0.050328)
(9.50637 0.0266891 -0.0349053)
(9.5534 0.0105373 0.0231958)
(9.54234 0.00344572 0.00332434)
(9.48233 -0.0118088 -0.0376464)
(9.4745 -0.00633331 -0.0563918)
(9.5673 0.0405447 -0.00456632)
(9.79288 0.0242628 0.0364053)
(9.67222 -0.00133764 0.0101036)
(9.65603 -0.036668 -0.0352957)
(9.64428 -0.049029 0.0117935)
(9.67788 -0.0242283 0.023691)
(9.7586 -0.00227522 -0.0114274)
(9.74176 0.0144729 -0.00669334)
(9.66455 0.0167856 0.00918771)
(9.67273 0.0185841 0.0132306)
(9.71333 0.0210614 0.00342419)
(9.7513 0.0113296 -0.0035103)
(9.78057 -0.0124816 0.00681279)
(9.77983 -0.0198376 0.00313674)
(9.72159 0.00696297 0.0147206)
(9.72682 0.038657 0.00404947)
(9.71063 0.00973138 -0.0146778)
(9.72143 0.00647 0.0103493)
(9.67488 -0.00579993 -0.00702647)
(9.59484 -0.0127445 -0.0135064)
(9.59637 -0.0117023 0.0312329)
(9.60053 -0.0116544 0.0387078)
(9.61349 -0.0312789 0.0444543)
(9.56581 -0.0139387 0.00436294)
(9.7192 0.0140059 -0.0129355)
(9.6799 -0.0124507 0.0140018)
(9.72485 0.00498122 0.0179621)
(9.77603 0.0111718 0.00258809)
(9.74985 -0.0265887 0.00794363)
(9.71391 -0.093261 0.0320237)
(9.57394 0.00401306 -0.015007)
(9.61554 0.0644785 -0.0192362)
(9.61258 0.0415027 -0.000846619)
(9.68147 -0.0288483 0.00679434)
(9.70043 -0.036625 0.0310271)
(9.76022 -0.0196308 0.0184422)
(9.64598 0.012703 0.00455011)
(9.66524 0.0371463 0.0046389)
(9.74647 0.0372509 -0.00305215)
(9.7449 0.00121308 0.0122185)
(9.66321 0.00119859 0.0265108)
(9.67534 0.0055016 -0.00263755)
(9.63556 -0.000881335 -0.0402969)
(9.63273 -0.0213041 -0.0534616)
(9.54449 -0.0453723 -0.0432266)
(9.60237 -0.0370786 -0.0369194)
(9.55273 0.00411191 0.0123344)
(9.58107 0.0169374 0.0162343)
(9.62096 -0.0166661 -0.0124753)
(9.62949 -0.00666106 -0.0181246)
(9.60093 0.013439 0.0200914)
(9.65678 0.00925095 -0.00554108)
(9.62911 -0.00974349 -0.0367905)
(9.66298 0.0062533 -0.0341779)
(9.62545 0.0430874 0.0808133)
(9.59928 0.0285937 0.0717037)
(9.63563 -0.00598038 0.047432)
(9.67714 -0.0263029 -0.014687)
(9.67835 -0.0225562 -0.00878453)
(9.62589 0.0155755 -0.0222599)
(9.61581 0.0102485 -0.0168944)
(9.57374 -0.07618 0.00179543)
(9.55813 -0.0815234 0.0106628)
(9.51992 -0.0152129 0.00804312)
(9.56934 0.0563249 -0.000307567)
(9.56647 0.0770944 0.0185008)
(9.60103 0.0206209 0.0328229)
(9.55616 -0.0216093 -0.000651549)
(9.5283 0.0145592 0.00905279)
(9.54149 0.00812382 -0.00639207)
(9.56478 -0.0174572 -0.0245007)
(9.63023 -0.0304652 0.00566702)
(9.60447 -0.0514391 0.00637857)
(9.66197 -0.0573379 0.00689155)
(9.65131 0.0201448 -0.00681327)
(9.65194 0.0391324 -0.0103092)
(9.58456 0.010087 -0.00861191)
(9.55971 -0.027629 -0.00432672)
(9.53354 -0.026176 0.00202061)
(9.51281 -0.00285469 -0.0199781)
(9.52637 0.0290769 -0.053106)
(9.56765 0.0287454 -0.0433433)
(9.5836 0.0995521 0.00636074)
(9.53636 0.109298 0.0014444)
(9.51834 0.0226069 0.0280305)
(9.63527 -0.0268196 0.0857955)
(9.60437 -0.019131 0.0379259)
(9.67162 -0.0171415 -0.00576056)
(9.63302 -0.0187606 -0.0227786)
(9.64976 0.0555394 -0.0301106)
(9.65344 0.0555147 -0.0213155)
(9.63525 0.0254021 -0.0298237)
(9.61015 -0.0314167 0.0531219)
(9.51168 -0.0255492 -0.00639761)
(9.51248 -0.00396013 -0.0463713)
(9.66151 0.0289642 -0.00159157)
(9.71723 0.0319186 0.0208377)
(9.69222 0.0300561 -0.0217896)
(9.61801 0.0199971 0.0283957)
(9.63895 0.0126767 0.0746847)
(9.77758 -0.00993906 0.0198239)
(9.74787 -0.00256736 -0.0173227)
(9.65092 -0.0105433 0.00238472)
(9.62136 -0.0642364 0.0350171)
(9.54043 -0.0599398 -0.00198119)
(9.54193 -0.0326006 -0.0233159)
(9.68589 -0.00660269 0.00463242)
(9.67577 0.0228332 0.0108062)
(9.57403 0.0589076 -0.030938)
(9.60951 0.0527113 -0.0434713)
(9.72712 0.00743718 -0.0113907)
(9.86846 -0.00108422 -0.0137059)
(9.84961 -0.0142204 0.020068)
(9.80274 -0.0492836 0.0198699)
(9.79973 -0.0391138 0.0554082)
(9.80873 0.0177641 0.0465117)
(9.80236 0.0411441 -5.09957e-05)
(9.70369 0.00118616 0.0229472)
(9.76298 -0.0467427 0.0304011)
(9.76418 -0.0400199 0.00495922)
(9.69197 0.00462704 -0.00852049)
(9.81763 0.0274998 0.0440261)
(9.64697 0.0794131 0.0116916)
(9.59729 0.0288204 -0.0111502)
(9.55314 -0.112986 -0.00109455)
(9.55997 -0.0978902 0.0227649)
(9.5932 0.0725646 -0.00958547)
(9.56314 0.0568439 0.0259193)
(9.59929 0.000112236 0.0204738)
(9.72158 -0.00373596 -0.0532)
(9.66934 -0.0161067 -0.0315324)
(9.64416 -0.0129372 0.0616862)
(9.65921 -0.00822568 0.0670049)
(9.72293 -0.0260336 0.0089097)
(9.7101 -0.0467205 -0.0145003)
(9.66949 -0.0257478 0.0246285)
(9.64002 -0.00865001 0.0204408)
(9.62253 -0.0391388 0.00435395)
(9.56837 -0.0646862 -0.0198627)
(9.59647 -0.000223476 -0.0213079)
(9.61718 0.0353585 -0.0183944)
(9.67953 0.0289178 -0.0198138)
(9.69015 0.0123251 -0.00146373)
(9.66479 -0.0299423 -0.0029311)
(9.60639 -0.0667727 0.0165145)
(9.60539 -0.0393401 0.0160318)
(9.50869 -0.0163473 -0.0116638)
(9.53299 0.0148325 -0.00435147)
(9.59253 0.03145 0.0220079)
(9.60654 0.012289 0.0341757)
(9.61195 0.00287684 -0.0372521)
(9.77428 -0.0104547 -0.0699947)
(9.79522 0.0143672 0.0151931)
(9.67014 -0.00502459 0.0264982)
(9.67432 0.0232373 0.00184596)
(9.59274 0.0283339 0.00717438)
(9.56697 0.00188781 -0.00790135)
(9.6111 -0.00888625 -0.019504)
(9.65755 0.0143255 0.0046867)
(9.60834 0.0153989 -0.00931481)
(9.62179 0.00828673 -0.0370758)
(9.70727 0.0223181 0.00159416)
(9.64481 0.0158735 0.0256212)
(9.68797 0.00455544 0.0316142)
(9.7159 -0.00393491 0.0107694)
(9.64909 -0.0159507 -0.00859976)
(9.67777 -0.021334 0.00213469)
(9.72719 0.00854948 0.0360201)
(9.69601 0.0695921 0.0447822)
(9.67963 0.0174605 0.00792516)
(9.68246 -0.0605176 -0.0197094)
(9.66688 -0.0285924 -0.00770188)
(9.59333 -0.0223979 0.00416605)
(9.58552 -0.0197836 0.0163753)
(9.66463 -0.000299867 0.00167988)
(9.66849 0.00175672 -0.017018)
(9.56537 -0.0133018 -0.0142274)
(9.49802 0.00491324 0.018148)
(9.53726 0.00658952 -0.000786446)
(9.60742 -0.00242699 0.0022945)
(9.54707 -0.0434718 -0.0147769)
(9.47691 -0.0111909 -0.0136801)
(9.45943 0.0630399 0.021414)
(9.44036 0.0485668 0.00906428)
(9.64495 -0.0275188 0.0115198)
)
;

boundaryField
{
    wall
    {
        type            fixedValue;
        value           uniform (0 0 0);
    }
    outlet
    {
        type            cyclic;
    }
    inlet
    {
        type            cyclic;
    }
    procBoundary3to2
    {
        type            processor;
        value           nonuniform List<vector> 
256
(
(10.0214 0.000961406 -0.00894563)
(9.87788 -0.02998 -0.00873282)
(9.9353 -0.032689 0.0242811)
(10.0064 -0.0154774 0.0411434)
(10.0433 0.00369276 -0.00191053)
(9.85579 -0.016883 -0.167866)
(9.80332 -0.0180816 -0.0876597)
(9.84794 -0.0137023 0.0835674)
(10.0227 -0.000124838 0.0313758)
(10.0221 -0.005961 0.0323571)
(9.96721 0.00975205 0.0505001)
(9.97292 0.0229989 0.0266529)
(9.99976 -0.000494878 -0.0469771)
(9.96179 -0.00238645 -0.0510753)
(9.94089 0.0304475 0.000797506)
(9.97292 0.0314654 0.00440899)
(9.99494 -0.0315428 -0.0245441)
(10.0019 -0.0166188 -0.0316458)
(10.0073 0.0238693 -0.0192021)
(9.93001 0.0163262 0.0159789)
(9.91467 0.0268069 0.0104987)
(9.91134 0.00828864 0.0244449)
(9.99584 0.00260272 0.0175327)
(10.0014 0.00927777 -0.00326658)
(9.98955 0.0379645 -0.0228498)
(10.014 0.00670827 -0.014581)
(10.0496 -0.0433436 0.014585)
(9.97261 -0.0379419 0.0241172)
(9.82676 -0.0665165 0.0213443)
(9.92841 -0.0415156 0.0385505)
(10.0295 0.0294603 0.0691382)
(10.063 0.00992299 0.024911)
(10.1373 -0.0213531 -0.0227093)
(10.1743 0.0765844 -0.00812537)
(10.1624 0.0868317 0.0137888)
(10.1204 -0.0190217 0.00493172)
(10.1636 -0.0211921 -0.0241008)
(10.048 0.00595421 -0.0995522)
(9.96273 -0.0117229 -0.0575826)
(10.0537 -0.0539254 0.068304)
(10.184 0.00452647 0.0526624)
(10.1626 0.00556065 0.0292712)
(10.1185 -0.0237205 0.0473988)
(10.1125 -0.0194207 0.0376236)
(10.1354 -0.0265166 -0.0173851)
(10.1336 -0.0381052 -0.0270615)
(10.1215 0.0177966 -0.0265002)
(10.0655 0.0158743 0.0107563)
(10.0382 -0.0138614 0.0153765)
(10.0891 -0.00172289 -0.0113079)
(10.1363 0.0197283 0.0132513)
(10.1232 0.0164448 0.0149238)
(10.0911 0.0253939 0.0226992)
(10.0491 -0.0035983 0.0292709)
(10.106 -0.00513297 -0.0144346)
(10.1218 -0.00937963 -0.0363775)
(10.0833 0.0219741 -0.0278022)
(10.096 0.0389579 -0.00993294)
(10.1247 -0.0160028 -0.00540962)
(10.0804 -0.0363787 0.0247828)
(10.0707 -0.0264845 0.0484482)
(10.1277 0.0139047 0.0195547)
(10.1245 0.0132069 0.0112465)
(10.1006 -0.0202982 0.0121101)
(10.1721 -0.00655816 0.0348249)
(10.173 0.0513801 -0.0140396)
(10.1699 0.0696322 -0.00150674)
(10.1444 -0.0113616 -0.00786594)
(10.1407 -0.0334017 0.00362446)
(10.0535 0.0505611 -0.0807322)
(9.99273 0.0425021 -0.0246337)
(10.0084 -0.0146323 0.0561062)
(10.1756 -0.0503171 0.00730179)
(10.133 -0.0055585 -0.0149391)
(10.0979 0.0179044 0.0205682)
(10.114 -0.00897001 0.021606)
(10.1531 -0.01375 -0.0416563)
(10.1467 -0.0203785 -0.0563968)
(10.1112 -0.0208297 -0.0017454)
(10.0714 0.0151571 0.0122781)
(10.1015 0.0254128 -0.0253386)
(10.1354 0.0129266 -0.0568421)
(10.1173 -0.0317904 -0.0730889)
(10.0608 -0.0128383 -0.0330879)
(10.0221 -0.0329947 0.0302693)
(10.0626 -0.0157523 0.0221179)
(10.1738 0.04186 0.0361302)
(10.1552 0.0261306 0.0308717)
(10.1067 -0.0103812 0.0179051)
(10.1196 0.0083287 -0.0219432)
(10.0829 -8.38292e-05 -0.0399848)
(10.0502 -0.00735127 -0.010047)
(10.0844 0.0148044 0.0281442)
(10.119 -0.0133962 0.016553)
(10.113 -0.0171295 0.0281684)
(10.1037 -0.0308012 0.0652353)
(10.1643 -0.0129491 -0.00372325)
(10.0711 -0.0285887 -0.0204331)
(10.0739 -0.00238072 -0.00460745)
(10.1673 -2.13926e-05 -0.00755391)
(10.1471 -0.0492253 -0.0208437)
(10.098 -0.0303964 -0.0763396)
(10.0127 0.0137984 -0.0326207)
(10.0338 0.0304741 0.0646756)
(10.0317 0.00232077 0.0535782)
(10.172 -0.0272721 0.048699)
(10.2075 0.0052204 0.0307321)
(10.1605 -0.0035034 0.000760704)
(10.0997 0.0517236 -0.0180061)
(10.1077 0.0629906 -0.010117)
(10.1489 0.0393807 -0.0146064)
(10.1249 -0.0126575 0.00761242)
(10.1202 -0.00997087 0.0209458)
(10.1351 -0.0062883 0.00392039)
(10.1317 -0.00610728 -0.0106363)
(10.1273 -0.00105054 0.0205571)
(10.0598 -0.0266614 0.036473)
(10.0599 -0.0114185 0.00246479)
(10.1602 0.0304466 0.0047946)
(10.1525 0.0218634 0.0126362)
(10.0665 -0.010038 -0.000650901)
(10.073 -0.0150024 -0.0560218)
(10.0995 -0.00770324 -0.0570936)
(10.0903 -0.0229689 0.00783322)
(10.0966 -0.00806484 0.0279173)
(10.0906 0.00899963 -0.00584466)
(10.118 0.017415 -0.0203989)
(10.1519 0.0123166 0.00553501)
(10.132 -0.0158028 0.0361633)
(10.1167 0.0250654 0.0196981)
(10.0842 0.0914411 0.00437759)
(10.0848 0.0287087 0.0172296)
(10.0856 -0.0857663 0.0284711)
(10.0391 -0.0587696 -0.0525755)
(10.0441 -0.026582 -0.0786749)
(10.0624 0.0927922 0.0233117)
(10.0927 0.0553854 0.061089)
(10.1129 -0.00869005 -0.013405)
(10.1874 -0.021446 -0.00948953)
(10.2129 0.0398986 0.0736111)
(10.1906 0.0446933 0.0458023)
(10.1386 -0.00751878 -0.0209886)
(10.0726 -0.0485466 -0.0386574)
(10.071 -0.0537438 -0.0545178)
(10.1496 -0.0362045 -0.0355516)
(10.1677 -0.00840995 -0.0096495)
(10.1282 -0.0102077 -0.0276771)
(10.0899 -0.017464 -0.0205687)
(10.0721 0.00772149 -0.0108299)
(10.0885 0.0236124 -0.00781208)
(10.1473 0.00837798 -0.0109022)
(10.124 0.00320912 -0.00798743)
(10.0659 -0.0230806 0.0112755)
(10.088 0.00416358 0.00187568)
(10.1207 0.0392007 0.00718313)
(10.0914 0.00791306 -0.0235984)
(10.0982 0.00918149 -0.0080788)
(10.1132 0.00445689 0.0406005)
(10.0784 0.0190736 0.0410518)
(10.1193 -0.0110861 0.038486)
(10.2345 -0.00468562 0.0157942)
(10.2178 0.0545663 -0.0407746)
(10.1121 0.0931476 -0.061615)
(10.0299 -0.00463943 0.00961616)
(10.0343 -0.0808795 0.0522405)
(10.0779 -0.0524723 0.0405046)
(10.1705 0.0059885 -0.0161836)
(10.1644 0.00828462 -0.0152361)
(10.0596 0.0176833 0.0268959)
(10.0354 0.0135698 0.0126047)
(10.1266 -0.0308906 -0.015094)
(10.2115 0.0142235 0.0228289)
(10.1873 0.083937 0.00119733)
(10.1331 0.045996 -0.0146715)
(10.1036 -0.0459994 0.0152184)
(10.1242 -0.0377981 0.00882051)
(10.1476 -0.0146625 -0.000202971)
(10.121 -0.0248276 0.0106607)
(10.1101 -0.0125575 0.0198803)
(10.0733 0.0220152 0.0335172)
(10.0547 0.0207643 0.0259582)
(10.0915 0.00874235 0.0046879)
(10.1571 -0.0116393 -0.00619137)
(10.1166 -0.0175065 0.0192284)
(10.1098 0.00187568 0.00783068)
(10.1208 0.00644059 -0.0494139)
(10.1143 -0.00216612 -0.0618127)
(10.0983 -0.0101044 -0.0389479)
(10.1058 0.00517101 -0.01212)
(10.1169 0.00375572 0.0260534)
(10.0154 -0.0508946 0.0669711)
(10.0682 -0.0718495 0.0561266)
(10.1853 0.0400234 -0.0121687)
(10.1719 0.0454776 -0.0533193)
(10.0811 0.0203405 -0.0370046)
(10.0098 -0.0493965 0.0187375)
(10.0549 -0.0525786 0.0379621)
(10.1562 -0.016525 0.0778397)
(10.1699 -0.0144775 0.0526886)
(10.1034 -0.0352213 -0.0171955)
(10.1167 -0.0346555 0.00815417)
(10.1548 -0.0016181 0.0237179)
(10.125 -0.00561716 -0.0061835)
(10.1744 -0.00436254 -0.0259708)
(10.2251 0.0470775 0.00735752)
(10.2024 0.0798048 0.0147286)
(10.0183 -0.0025764 -0.05933)
(9.96578 -0.0237121 -0.0529492)
(10.0193 -0.0190872 -0.0564004)
(10.0655 -0.0408321 -0.0763083)
(10.0668 -0.0291232 -0.0254967)
(10.1245 -0.0221353 0.0597338)
(10.1511 -0.00992285 0.0586865)
(10.1618 0.0394694 0.0140444)
(10.1456 0.0253551 0.00495839)
(10.0773 -0.00748252 -0.000392822)
(10.1138 0.000873092 -0.0185492)
(10.1385 -0.00279538 -0.00423432)
(10.0641 -0.0192885 0.028529)
(10.0817 -0.0251997 0.0106251)
(10.0974 -0.0387575 -0.0130663)
(10.0854 -0.0294919 -0.0335309)
(10.0446 0.0364149 0.0567004)
(10.0675 0.0400116 0.0913695)
(10.0951 -0.00833713 -0.0217014)
(10.0765 0.0259151 -0.0329323)
(9.94667 0.0073801 -0.0375187)
(9.87472 0.00404978 -0.00217891)
(9.91543 0.0414085 0.0130213)
(9.95556 0.00730219 0.0221634)
(9.94159 -0.0210902 -0.0113616)
(9.94762 -0.0339357 -0.0246774)
(9.98482 -0.0521999 0.036344)
(10.0297 -0.00171014 0.0742663)
(10.009 0.0357758 0.0126208)
(10.0343 0.0333362 -0.0114797)
(10.0568 -0.0100626 0.0151437)
(9.98409 -0.0148939 -0.0283983)
(9.98338 0.01006 -0.0272259)
(9.99244 0.0381778 0.0426851)
(10.0086 0.0204547 0.00156915)
(9.99346 0.00216758 -0.0878861)
(9.95084 -0.0137349 -0.00221596)
(9.93867 -0.0462865 0.0616052)
(10.004 -0.0132171 0.0238422)
(10.0409 0.0262168 0.00571427)
(9.9883 0.0321087 0.0111548)
(9.97901 0.0248024 -0.00524517)
(9.96786 0.00799601 -0.0862211)
(9.94888 0.00126351 -0.0592001)
(9.91174 0.00127477 0.0226526)
(9.95419 -0.0143793 0.00754726)
(9.98208 -0.0245906 -0.0060795)
(9.98383 -0.0208294 -0.0214175)
(9.9246 0.00747372 0.021717)
(9.95313 -0.0101399 0.024585)
)
;
    }
}


// ************************************************************************* //
