/*--------------------------------*- C++ -*----------------------------------*\
| =========                 |                                                 |
| \\      /  F ield         | OpenFOAM: The Open Source CFD Toolbox           |
|  \\    /   O peration     | Version:  2506                                  |
|   \\  /    A nd           | Website:  www.openfoam.com                      |
|    \\/     M anipulation  |                                                 |
\*---------------------------------------------------------------------------*/
FoamFile
{
    version     2.0;
    format      ascii;
    arch        "LSB;label=32;scalar=64";
    class       volVectorField;
    location    "0.008";
    object      Us;
}
// * * * * * * * * * * * * * * * * * * * * * * * * * * * * * * * * * * * * * //

dimensions      [0 1 -1 0 0 0 0];

internalField   nonuniform List<vector> 
512
(
(0 0 0)
(0.127037 -1.20257e-05 -0.111646)
(0.194045 -0.000190791 -0.0470942)
(0 0 0)
(0 0 0)
(0 0 0)
(0 0 0)
(0 0 0)
(0 0 0)
(0 0 0)
(0 0 0)
(0 0 0)
(0 0 0)
(0 0 0)
(0 0 0)
(0 0 0)
(0 0 0)
(0 0 0)
(0 0 0)
(0 0 0)
(0 0 0)
(0 0 0)
(0 0 0)
(0 0 0)
(0 0 0)
(0.408657 -0.00215193 -0.0505154)
(0 0 0)
(0 0 0)
(0 0 0)
(0 0 0)
(0 0 0)
(0 0 0)
(0 0 0)
(0 0 0)
(0 0 0)
(0 0 0)
(0 0 0)
(0 0 0)
(0 0 0)
(0 0 0)
(0 0 0)
(0 0 0)
(0 0 0)
(0 0 0)
(0 0 0)
(0.40594 0.000788456 -0.0990717)
(0 0 0)
(0 0 0)
(0 0 0)
(0 0 0)
(0 0 0)
(0 0 0)
(0 0 0)
(0 0 0)
(0 0 0)
(0 0 0)
(0 0 0)
(0 0 0)
(0 0 0)
(0 0 0)
(0 0 0)
(0 0 0)
(0 0 0)
(0 0 0)
(0 0 0)
(0 0 0)
(0.41441 -0.00157764 -0.0890713)
(0 0 0)
(0.403907 -0.00132721 -0.135817)
(0.393605 -0.00146962 -0.158678)
(0 0 0)
(0 0 0)
(0 0 0)
(0 0 0)
(0 0 0)
(0 0 0)
(0 0 0)
(0 0 0)
(0 0 0)
(0 0 0)
(0 0 0)
(0.408538 -0.000947986 -0.0887226)
(0 0 0)
(0 0 0)
(0 0 0)
(0 0 0)
(0 0 0)
(0 0 0)
(0 0 0)
(0 0 0)
(0 0 0)
(0 0 0)
(0 0 0)
(0 0 0)
(0 0 0)
(0 0 0)
(0 0 0)
(0 0 0)
(0 0 0)
(0 0 0)
(0 0 0)
(0 0 0)
(0 0 0)
(0 0 0)
(0 0 0)
(0.404969 -0.000265017 -0.147361)
(0 0 0)
(0 0 0)
(0.402189 0.00145207 -0.128198)
(0 0 0)
(0 0 0)
(0 0 0)
(0 0 0)
(0 0 0)
(0 0 0)
(0.407243 -0.00122847 -0.0921217)
(0 0 0)
(0 0 0)
(0.410633 -0.000764722 -0.103558)
(0 0 0)
(0 0 0)
(0.406092 0.000336222 -0.150627)
(0 0 0)
(0 0 0)
(0 0 0)
(0.411457 0.00180549 -0.0397524)
(0 0 0)
(0 0 0)
(0 0 0)
(0 0 0)
(0 0 0)
(0 0 0)
(0.39973 -0.00464989 -0.108287)
(0 0 0)
(0 0 0)
(0 0 0)
(0 0 0)
(0 0 0)
(0 0 0)
(0 0 0)
(0 0 0)
(0 0 0)
(0 0 0)
(0 0 0)
(0 0 0)
(0.404795 0.000430608 -0.00904233)
(0.407961 -0.000483027 -0.0380221)
(0.407961 -0.000483027 -0.0380221)
(0 0 0)
(0.410105 -9.38405e-05 -0.118916)
(0.410695 -0.00229821 -0.127295)
(0 0 0)
(0 0 0)
(0 0 0)
(0 0 0)
(0 0 0)
(0 0 0)
(0 0 0)
(0 0 0)
(0 0 0)
(0 0 0)
(0 0 0)
(0.414044 -0.000647468 -0.0176007)
(0 0 0)
(0 0 0)
(0.39712 -0.00215515 -0.130861)
(0.401045 -0.00135679 -0.123463)
(0 0 0)
(0.403597 0.00279433 -0.170452)
(0 0 0)
(0 0 0)
(0 0 0)
(0.404873 0.000118982 -0.129382)
(0 0 0)
(0 0 0)
(0.40429 -0.003013 -0.134318)
(0 0 0)
(0 0 0)
(0.406232 0.00181373 -0.105204)
(0 0 0)
(0 0 0)
(0 0 0)
(0 0 0)
(0 0 0)
(0.415643 -0.00206828 -0.08746)
(0 0 0)
(0 0 0)
(0 0 0)
(0 0 0)
(0 0 0)
(0 0 0)
(0 0 0)
(0 0 0)
(0 0 0)
(0 0 0)
(0 0 0)
(0 0 0)
(0 0 0)
(0 0 0)
(0 0 0)
(0 0 0)
(0 0 0)
(0 0 0)
(0 0 0)
(0 0 0)
(0.398251 0.00060463 -0.0971928)
(0.397542 -0.00139859 -0.057755)
(0 0 0)
(0 0 0)
(0 0 0)
(0 0 0)
(0 0 0)
(0 0 0)
(0 0 0)
(0 0 0)
(0 0 0)
(0 0 0)
(0 0 0)
(0 0 0)
(0 0 0)
(0 0 0)
(0 0 0)
(0 0 0)
(0 0 0)
(0 0 0)
(0 0 0)
(0 0 0)
(0.38842 -0.00283822 -0.162686)
(0 0 0)
(0 0 0)
(0 0 0)
(0 0 0)
(0 0 0)
(0 0 0)
(0 0 0)
(0.290799 0.00169188 -0.0629228)
(0.290799 0.00169188 -0.0629228)
(0 0 0)
(0 0 0)
(0 0 0)
(0 0 0)
(0 0 0)
(0 0 0)
(0 0 0)
(0 0 0)
(0 0 0)
(0 0 0)
(0 0 0)
(0 0 0)
(0 0 0)
(0 0 0)
(0 0 0)
(0.193822 0.000432552 -0.0949296)
(0 0 0)
(0 0 0)
(0 0 0)
(0.0245741 -8.9823e-05 0.0430082)
(0.144255 -0.000238473 0.0187957)
(0.0722873 -0.00031499 0.0978231)
(0.240154 -0.00557398 0.161145)
(0.00836633 0.00010257 0.00497356)
(0.147384 0.00310012 0.111012)
(0.164659 -0.00103995 0.111452)
(0.119119 -0.0270801 0.0530121)
(0.188444 -0.00191769 0.0810174)
(0.135582 0.000617354 0.173479)
(0.196031 0.0006575 0.0619761)
(0.107872 0.000154688 0.191772)
(0.103577 0.0003279 0.0338061)
(0.177154 0.00050364 0.114408)
(0.199274 -0.000648733 0.0112964)
(0.148556 -0.000472055 -0.0684062)
(0.0745742 0.000564117 -0.0160321)
(0.22321 -5.83031e-05 0.186518)
(0.0514841 7.59448e-05 0.144311)
(0.130328 0.000100089 0.0365114)
(0.240849 0.000492245 0.0111032)
(0.177449 0.000724658 0.136505)
(0.139054 0.000635021 -0.00388057)
(0.00777473 -5.57041e-05 -5.49973e-08)
(0.0725807 -0.000393556 0.111324)
(0.194302 -0.00140369 0.0258799)
(0.169807 -0.0443572 0.0763914)
(0.109623 0.000274184 0.281815)
(0.206204 0.000651047 0.133576)
(0.184844 0.000425313 0.0847121)
(0.103746 0.000298419 0.103889)
(0.130352 0.000784221 0.0568091)
(0.133184 -0.0342824 -0.0229649)
(0.230328 -0.00416322 0.0512324)
(0.127632 -0.000219596 0.0611884)
(0.252963 0.000415573 0.140497)
(0.138764 0.00036597 0.0607956)
(0.285084 -0.000799486 0.128851)
(0.3207 -0.00234727 0.101585)
(0.139636 -0.000382816 -0.00257029)
(0.105699 -0.0108156 0.160137)
(0.148676 0.000322174 0.0710541)
(0.0146435 -0.000114318 -0.00214459)
(0.254922 -0.000249753 0.154064)
(0.246092 0.000484069 0.0165265)
(0.15251 0.000358338 0.0130352)
(0.185517 -0.000547434 0.0956899)
(0.13525 -0.000924197 0.0666188)
(0.190507 -0.00205943 0.0111504)
(0.169171 -0.0235686 0.0744425)
(0.190871 -0.0102584 0.10334)
(0.299882 -0.0764329 0.0459063)
(0.201455 0.000294652 0.0653209)
(0.294506 0.000927442 0.168398)
(0.202889 0.00205277 0.0796827)
(0.397291 0.00329406 0.150664)
(0.320297 0.000985627 0.0164366)
(0.184925 -0.00600873 -0.00202122)
(0.0013736 0.0176212 0.00331263)
(0.267006 0.000948533 0.163358)
(0.260322 0.00101413 0.0421219)
(0.186313 0.000480191 0.201234)
(0.173541 0.00026647 0.0226628)
(0.266316 0.000477148 0.0865725)
(0.256044 -0.00032285 0.248421)
(0.272603 -0.000589307 0.0550859)
(0.399767 -0.000950707 0.0731249)
(0.194088 -0.0187399 0.0181053)
(0.401758 -0.000907413 -0.102414)
(0.358226 -0.001892 0.0501627)
(0.191847 -0.000405607 0.0888383)
(0.0804975 0.0409729 0.0370386)
(0.0926565 0.000417826 0.200188)
(0.337179 -0.000183585 0.134402)
(0.112007 0.0333725 -0.00425028)
(0.12384 -0.000142911 -0.0130021)
(0.271269 0.000669557 0.100528)
(0.322355 -0.0227284 0.0703066)
(0.298338 -0.000549374 -0.00315209)
(0.225712 -0.00150258 0.04642)
(0.405798 -0.00121155 -0.083192)
(0.123356 0.0545746 0.0492853)
(0.110202 -2.30544e-07 0.130023)
(0.0804576 -9.50498e-05 0.00995629)
(0.203633 2.59957e-05 0.28971)
(0.38918 -0.0998618 0.00171321)
(0.201311 0.00179807 0.142145)
(0.345792 0.00179426 0.155387)
(0.0913214 -0.0354758 0.113353)
(0.296344 -0.00101298 0.075101)
(0.276449 -0.00106732 0.0790671)
(0.312599 0.000121567 0.169103)
(0.363497 0.03819 -0.00864785)
(0.00958596 9.05388e-05 -0.0234564)
(0.322593 0.00181975 0.0925375)
(0.416465 0.00127888 -0.0382467)
(0.179806 0.384532 0.183838)
(0.417048 -0.000605307 -0.0923273)
(0.15349 -0.000481937 0.0137169)
(0.221412 -0.00103553 -0.0273707)
(0.114776 0.00052213 -0.043265)
(0.268053 -0.000480299 0.0138774)
(0.282468 0.000525889 0.152924)
(0.209567 0.000392552 0.0665316)
(0.0810887 0.000281069 0.130763)
(0.398653 0.000350294 -0.0955402)
(0.0947482 5.85409e-05 0.0479335)
(0.299029 -0.00277943 0.02359)
(0.103936 0.000398649 -0.011434)
(0.0487256 6.12714e-06 0.357152)
(0.182114 0.000118092 0.0761911)
(0.165148 0.0250141 0.0900884)
(0.0896671 -0.123116 -0.00282898)
(0.360783 -0.000758324 0.0371877)
(0.211543 -0.000816465 0.0436926)
(0.234109 0.00763341 0.0506479)
(0.0470746 0.000101564 0.0606151)
(0.361948 0.00117566 0.113078)
(0.138522 -0.000103476 0.141392)
(0.0655841 -0.000531718 0.344698)
(0.209773 -0.00309259 0.239191)
(0.157499 0.00422715 0.0241581)
(0.11191 0.00306482 0.0480758)
(0.175643 -0.0157619 0.0803865)
(0.157219 0.000564962 0.0595688)
(0.218315 0.00112158 0.0776447)
(0.32924 0.00100272 0.154209)
(0.391285 -0.001138 0.230786)
(0.126487 0.0631131 0.119336)
(0.16368 0.000621148 0.0455079)
(0.180911 0.000847766 0.11787)
(0.177173 -0.00159384 0.0359675)
(0.23114 -0.0023894 0.0441287)
(0.215588 -0.00112056 0.0791824)
(0.243589 -0.000347378 0.126633)
(0.338379 0.000362518 0.0305525)
(0.184989 0.000759806 0.0570505)
(0.339054 0.00106641 0.0658634)
(0.225972 0.0294464 0.0454885)
(0.124509 -0.00551827 0.00610321)
(0.188317 8.25652e-05 0.178886)
(0.398569 -0.000589911 -0.0611517)
(0.167322 -0.0105383 0.06497)
(0.21638 -2.39043e-05 0.177714)
(0.00752815 7.96797e-05 5.17893e-08)
(0.204102 0.000322958 0.0638852)
(0.406083 -0.00067933 0.0448563)
(0.199471 4.46856e-05 0.0590366)
(0.154678 -0.0469625 0.109031)
(0.22716 -0.0197535 0.0355516)
(0.409723 -0.00189064 -0.0597578)
(0.232479 0.00973578 0.0222624)
(0.153273 0.000111753 0.0492428)
(0.147466 0.0133933 0.090537)
(0.242228 0.00718084 0.0648816)
(0.189092 0.000623825 0.00691539)
(0.0752758 -0.000251998 0.156574)
(0.30512 3.11292e-05 0.169753)
(0.113501 -0.000121326 0.352175)
(0.294862 -0.000353563 0.0520366)
(0.27999 0.00154445 0.0625447)
(0.01888 -0.0433885 -0.00975651)
(0.303265 -0.00242199 0.0138413)
(0.145308 -0.000707734 0.0422219)
(0.394493 -0.00237583 -0.00102578)
(0.22175 -0.00119935 -0.0123584)
(0.23388 -0.000516635 0.212472)
(0.197578 -0.0244464 0.0824854)
(0.0804921 0.000442682 0.0551531)
(0.39874 0.00282234 0.0292442)
(0.0850297 0.000642356 -0.00124027)
(0.0134569 -0.000119052 -0.0376796)
(0.252053 0.000140203 0.0931611)
(0.304979 -0.000824222 0.00197579)
(0.265758 -0.00129092 0.142276)
(0.304475 -0.00161147 0.0245675)
(0.311922 0.0600302 0.0290566)
(-0.00592927 -0.00825362 0.00877355)
(0.268802 0.00177049 -0.0453146)
(0.192021 0.000823399 0.156988)
(-0.00679754 0.0547675 -0.0469962)
(0 0 0)
(0.118141 -0.00111306 0.148771)
(0.352984 -0.00278324 0.16821)
(0.304406 -0.00152352 0.103619)
(0.092139 -0.0538385 0.176376)
(0 0 0)
(0.197458 0.000909691 -0.0829533)
(0.241149 -0.0220479 0.0988178)
(0.126499 -0.0146799 0.020589)
(0.370709 4.89982e-05 0.157898)
(0.331443 0.00212705 -0.0105665)
(0.0369072 0.000361651 0.0140269)
(0.396481 0.00180167 0.0153256)
(0.204748 -0.00620413 0.13875)
(0.263651 0.0170158 0.00685865)
(0.208469 -0.00151681 0.0354813)
(0.13602 -5.10501e-05 -0.00161845)
(0.25981 0.000354065 0.179324)
(0.144807 0.000573936 0.0364406)
(0.19275 0.000766129 0.24646)
(0.276188 0.00127925 0.0375445)
(0.252817 -0.00269012 0.0144855)
(0.175462 -0.0336706 0.075018)
(0.116175 0.000317574 0.0935865)
(0.266525 0.0001543 -0.0259065)
(0.16884 -0.0014737 0.00482915)
(0.291915 -0.00303368 0.054861)
(0.300785 -0.00308587 0.00487692)
(0.249857 -0.000171456 0.0156903)
(0.0925854 0.000996246 0.0614974)
(0.247107 0.000716921 0.202062)
(0.0248321 -0.000431099 0.0161865)
(0.217419 -0.000965257 0.0227493)
(0.329743 -0.000934601 0.0110098)
(0.175776 -0.000307694 0.154868)
(0.117752 -0.0134622 0.0318454)
(0.294481 -0.0132994 0.0448038)
(0.256 -0.000815991 0.0805935)
(0.0833077 0.000364776 0.178345)
(0 0 0)
(0.151033 -0.000450526 0.0787205)
(0.0762892 -0.000127866 0.0672049)
(0.0681099 -0.150125 0.0513589)
(0.0259562 -0.145936 -2.59124e-08)
(0.0216308 -0.00342529 -0.0502067)
(0.0940169 0.0328171 0.0754219)
(0.172091 -0.00166451 0.217413)
(0.00739299 7.45143e-05 1.29937e-08)
(0.151992 -0.000515481 -0.0190046)
(0.381884 0.000372513 -0.00314105)
(0.0185947 -0.00936583 0.00421335)
(0.105109 -0.0141084 0.0538691)
(0.308733 0.0396663 0.0715808)
(0.00988573 7.25624e-05 -0.0192226)
(0.109433 0.000625686 0.20413)
(0.193211 0.000857163 0.0173023)
(0.15941 0.056854 0.108372)
(0.240374 0.000122171 0.017993)
(0.0894404 -0.000868266 0.0434773)
(0.157733 -0.00146936 0.22274)
(0.0598831 -7.61907e-05 0.0272599)
(0.0195196 1.11772e-05 -0.080444)
(0.200084 0.0660731 -0.0343147)
(0.153924 -0.000609399 0.0132595)
(0.0942547 0.0654341 0.0406681)
(0.134738 0.000214424 0.0717521)
(0.173447 0.00740492 -0.0198995)
(0.21541 -0.00025937 0.263553)
(0.0852338 -0.00960145 0.0504883)
(0.102274 -0.000484932 0.0122313)
(0.191041 -0.000601882 0.0381089)
(0.22399 0.0021828 0.301669)
(0.13184 0.000701895 -0.0286379)
(0.183815 0.0439662 0.0193976)
(0.28816 0.042813 0.0765862)
)
;

boundaryField
{
    wall
    {
        type            zeroGradient;
    }
    outlet
    {
        type            cyclic;
    }
    inlet
    {
        type            cyclic;
    }
    procBoundary3to2
    {
        type            processor;
        value           uniform (0 0 0);
    }
}


// ************************************************************************* //
