FoamFile
{version 2.0; format ascii;class Cloud<passiveParticle>; location 0;object  positions;}
1000
(
( 0.0304088 0.0356518 0.0874502 ) 0 
( 0.0321703 0.0811168 0.0994663 ) 0 
( 0.0407461 0.092313 0.0994726 ) 0 
( 0.0939885 0.0089118 0.0885824 ) 0 
( 0.00763716 0.00384219 0.0994837 ) 0 
( 0.0948739 0.0400711 0.0989746 ) 0 
( 0.0201232 0.0613614 0.0886484 ) 0 
( 0.0206368 0.0942628 0.0994127 ) 0 
( 0.0235318 0.0972808 0.0995002 ) 0 
( 0.066485 0.0170113 0.0935894 ) 0 
( 0.00296826 0.0301622 0.0954579 ) 0 
( 0.022144 0.0184861 0.0908699 ) 0 
( 0.0506659 0.0566117 0.0995002 ) 0 
( 0.0183508 0.0673758 0.0995002 ) 0 
( 0.0757692 0.0747262 0.0959851 ) 0 
( 0.0586544 0.0159152 0.0995002 ) 0 
( 0.0186824 0.0262126 0.099211 ) 0 
( 0.0210638 0.0696305 0.0995002 ) 0 
( 0.00625636 0.0542023 0.0990865 ) 0 
( 0.0168688 0.0794088 0.0885871 ) 0 
( 0.0846854 0.010284 0.089273 ) 0 
( 0.0627379 0.0128778 0.0945542 ) 0 
( 0.0999937 0.0953388 0.0892696 ) 0 
( 0.0806999 0.0519922 0.0982182 ) 0 
( 0.0303569 0.00346847 0.0995002 ) 0 
( 0.0841617 0.0728456 0.0975587 ) 0 
( 0.0278584 0.07581 0.0995002 ) 0 
( 0.089953 0.035318 0.0989704 ) 0 
( 0.104665 0.00194323 0.0994501 ) 0 
( 0.0881538 0.0320393 0.0989607 ) 0 
( 0.0652086 0.00457089 0.0891431 ) 0 
( 0.0659122 0.023165 0.0883232 ) 0 
( 0.0140241 0.0708819 0.0993444 ) 0 
( 0.0721648 0.0582477 0.0990255 ) 0 
( 0.0741732 0.0865576 0.0887774 ) 0 
( 0.0116879 0.00131129 0.0939317 ) 0 
( 0.0655736 0.0987042 0.0890663 ) 0 
( 0.0422269 0.0788735 0.089907 ) 0 
( 0.0853377 0.0536991 0.0890704 ) 0 
( 0.0947005 0.0715929 0.0953989 ) 0 
( 0.0909984 0.0244531 0.0994982 ) 0 
( 0.027241 0.062478 0.0990487 ) 0 
( 0.0493388 0.0562245 0.0994665 ) 0 
( 0.0763027 0.0866011 0.0899963 ) 0 
( 0.0761255 0.0497535 0.0904689 ) 0 
( 0.0358089 0.0489003 0.0994705 ) 0 
( 0.062474 0.000945141 0.0994888 ) 0 
( 0.0242187 0.0852631 0.0884245 ) 0 
( 0.0775988 0.0226062 0.0884522 ) 0 
( 0.0238892 0.0534732 0.0952034 ) 0 
( 0.0258611 0.0341126 0.0896531 ) 0 
( 0.0227319 0.0199195 0.0995002 ) 0 
( 0.023352 0.00471803 0.0925852 ) 0 
( 0.00768128 0.0793304 0.0995002 ) 0 
( 0.0734291 0.0970293 0.099228 ) 0 
( 0.032771 0.0540725 0.0986 ) 0 
( 0.0716915 0.0449747 0.0995001 ) 0 
( 0.053131 0.0320769 0.0878079 ) 0 
( 0.0835895 0.0317755 0.0926108 ) 0 
( 0.0135063 0.0786401 0.0926372 ) 0 
( 0.0332214 0.0248037 0.0904984 ) 0 
( 0.0789215 0.0286293 0.0990007 ) 0 
( 0.0251703 0.0461451 0.0879298 ) 0 
( 0.0437206 0.0643897 0.0947809 ) 0 
( 0.0900753 0.0451152 0.0923803 ) 0 
( 0.0894347 0.0886426 0.0995002 ) 0 
( 0.0109371 0.0834232 0.0995002 ) 0 
( 0.0547219 0.0414804 0.0991265 ) 0 
( 0.00768334 0.0278053 0.097973 ) 0 
( 0.0544002 0.0805224 0.0890754 ) 0 
( 0.016092 0.0255727 0.0883843 ) 0 
( 0.0905075 0.0775494 0.0991686 ) 0 
( 0.0426929 0.0189745 0.0975 ) 0 
( 0.0347669 0.0600157 0.0995002 ) 0 
( 0.0833387 0.0895725 0.0884566 ) 0 
( 0.0275336 0.0218881 0.0994965 ) 0 
( 0.0686492 0.00117534 0.0964151 ) 0 
( 0.0953319 0.0827905 0.0952405 ) 0 
( 0.0875329 0.0705462 0.0930222 ) 0 
( 0.0875835 0.079876 0.0992604 ) 0 
( 0.0232578 0.00148603 0.099466 ) 0 
( 0.0588423 0.0559308 0.0867896 ) 0 
( 0.0923025 0.0527246 0.088375 ) 0 
( 0.0377329 0.0992339 0.0904069 ) 0 
( 0.0416682 0.0207114 0.0995009 ) 0 
( 0.019295 0.0196149 0.099466 ) 0 
( 0.0203699 0.0560358 0.0994701 ) 0 
( 0.0472917 0.0405476 0.0995002 ) 0 
( 0.0448609 0.0815886 0.0885572 ) 0 
( 0.0504309 0.059221 0.0894904 ) 0 
( 0.0747793 0.0694393 0.0991575 ) 0 
( 0.0724213 0.0854052 0.0995002 ) 0 
( 0.00317411 0.0174377 0.0995002 ) 0 
( 0.0589205 0.0520128 0.0908858 ) 0 
( 0.0876277 0.0623908 0.0995002 ) 0 
( 0.0888436 0.0498109 0.0921567 ) 0 
( 0.0935209 0.0659862 0.0894849 ) 0 
( 0.00886517 0.0171428 0.0995002 ) 0 
( 0.0961177 0.0336579 0.0990138 ) 0 
( 0.081609 0.0722736 0.0867993 ) 0 
( 0.0657471 0.0725444 0.0888765 ) 0 
( 0.0505863 0.0111322 0.0995002 ) 0 
( 0.071567 0.0878372 0.0990972 ) 0 
( 0.0660303 0.0781398 0.0995002 ) 0 
( 0.0270564 0.0553916 0.0958997 ) 0 
( 0.0899177 0.0313554 0.0982804 ) 0 
( 0.0617187 0.0158204 0.0995002 ) 0 
( 0.0343741 0.0914205 0.0995002 ) 0 
( 0.0921052 0.0446819 0.0887535 ) 0 
( 0.089324 0.0114415 0.0962483 ) 0 
( 0.0367877 0.0153142 0.0994732 ) 0 
( 0.00798487 0.0236705 0.0885206 ) 0 
( 0.0854354 0.0583747 0.089496 ) 0 
( 0.00553906 0.0638031 0.0887884 ) 0 
( 0.0225624 0.00322515 0.0876301 ) 0 
( 0.0635867 0.0399826 0.0883554 ) 0 
( 0.0246721 0.0640717 0.0995002 ) 0 
( 0.0665227 0.00683557 0.0924414 ) 0 
( 0.0719344 0.062674 0.0877368 ) 0 
( 0.0489103 0.0859317 0.0898637 ) 0 
( 0.0302953 0.0754873 0.0994624 ) 0 
( 0.0180451 0.0635265 0.0885555 ) 0 
( 0.0807977 0.0810007 0.0931101 ) 0 
( 0.0937242 0.0257985 0.0994314 ) 0 
( 0.0253644 0.0963192 0.092607 ) 0 
( 0.0766711 0.0246651 0.0924503 ) 0 
( 0.0269324 0.063197 0.089854 ) 0 
( 0.0242778 0.00753309 0.0900142 ) 0 
( 0.0345789 0.00324905 0.0927806 ) 0 
( 0.0592081 0.0431879 0.0992142 ) 0 
( 0.014862 0.0322223 0.0923341 ) 0 
( 0.0987713 0.0194937 0.088587 ) 0 
( 0.07218 0.00717206 0.0930235 ) 0 
( 0.080102 0.0020098 0.0884399 ) 0 
( 0.094595 0.0840061 0.0891986 ) 0 
( 0.039168 0.0481348 0.0885748 ) 0 
( 0.093571 0.0299463 0.0995002 ) 0 
( 0.0402907 0.0747774 0.0995002 ) 0 
( 0.0446122 0.0933964 0.0870759 ) 0 
( 0.0670016 0.0453891 0.0908331 ) 0 
( 0.0383074 0.0736006 0.0912747 ) 0 
( 0.0287475 0.0729558 0.0876843 ) 0 
( 0.0444726 0.0697483 0.0993782 ) 0 
( 0.0898027 0.0827395 0.0995002 ) 0 
( 0.0780188 0.087935 0.090106 ) 0 
( 0.0408703 0.0213967 0.0891449 ) 0 
( 0.0657381 0.032653 0.0869957 ) 0 
( 0.0499633 0.0524023 0.0902827 ) 0 
( 0.0308604 0.0935847 0.0923618 ) 0 
( 0.0608253 0.0881712 0.0995002 ) 0 
( 0.0798847 0.0258044 0.0995002 ) 0 
( 0.0110741 0.0748376 0.0923488 ) 0 
( 0.0718919 0.0928937 0.089721 ) 0 
( 0.0956957 0.0795613 0.0991386 ) 0 
( 0.0639599 0.011526 0.0887953 ) 0 
( 0.0927975 0.000901424 0.0983229 ) 0 
( 0.0249207 0.0332809 0.092055 ) 0 
( 0.0795185 0.0613429 0.0995002 ) 0 
( 0.0543542 0.0862882 0.0910078 ) 0 
( 0.0951477 0.05114 0.092996 ) 0 
( 0.056034 0.0162731 0.0915834 ) 0 
( 0.0360362 0.0979921 0.0970487 ) 0 
( 0.0575339 0.0710762 0.0894051 ) 0 
( 0.0948184 0.0900215 0.0995002 ) 0 
( 0.0280704 0.0834232 0.0928061 ) 0 
( 0.0693696 0.0407667 0.0993315 ) 0 
( 0.0490763 0.0846708 0.0994634 ) 0 
( 0.0191577 0.0591476 0.0993129 ) 0 
( 0.0301976 0.0586124 0.0888345 ) 0 
( 0.0850703 0.0441401 0.0974585 ) 0 
( 0.0391472 0.00106311 0.0995002 ) 0 
( 0.0968741 0.0442072 0.0995002 ) 0 
( 0.0222238 0.0718562 0.0995002 ) 0 
( 0.0910838 0.0223169 0.0994933 ) 0 
( 0.0169112 0.0332126 0.0968724 ) 0 
( 0.0401394 0.0716046 0.0990518 ) 0 
( 0.0679284 0.0173969 0.0930636 ) 0 
( 0.0749882 0.0546754 0.09159 ) 0 
( 0.0932671 0.0355866 0.092066 ) 0 
( 0.0414479 0.0838209 0.0995002 ) 0 
( 0.085301 0.0160185 0.0900594 ) 0 
( 0.0731392 0.0678456 0.0995002 ) 0 
( 0.0260005 0.0923653 0.0995002 ) 0 
( 0.0273225 0.0824856 0.0901633 ) 0 
( 0.0223668 0.0329766 0.0881815 ) 0 
( 0.0747147 0.0630054 0.0908996 ) 0 
( 0.0887603 0.00987992 0.0989812 ) 0 
( 0.0408281 0.0432729 0.0889557 ) 0 
( 0.0711434 0.0357766 0.0882941 ) 0 
( 0.000603758 0.0637648 0.099236 ) 0 
( 0.0569108 0.0700936 0.0886272 ) 0 
( 0.0401631 0.0191455 0.0937579 ) 0 
( 0.0974219 0.0613045 0.088703 ) 0 
( 0.0300082 0.0427288 0.0898492 ) 0 
( 0.0522401 0.0835105 0.09912 ) 0 
( 0.0411529 0.0498413 0.0995002 ) 0 
( 0.0269349 0.0869205 0.0888791 ) 0 
( 0.0112193 0.0297868 0.0985385 ) 0 
( 0.0875459 0.0650319 0.0919363 ) 0 
( 0.0884032 0.0882789 0.0995002 ) 0 
( 0.0641574 0.0138861 0.0995002 ) 0 
( 0.0451808 0.0548681 0.0995002 ) 0 
( 0.0548275 0.0462013 0.0885142 ) 0 
( 0.0441308 0.0337145 0.0990212 ) 0 
( 0.0863185 0.059357 0.0952067 ) 0 
( 0.0581742 0.0846066 0.0991223 ) 0 
( 0.0705413 0.047634 0.0908002 ) 0 
( 0.0759284 0.00182304 0.0986213 ) 0 
( 0.0846597 0.0200657 0.0919001 ) 0 
( 0.00148744 0.0590171 0.0995002 ) 0 
( 0.0635318 0.0900454 0.0889522 ) 0 
( 0.0857487 0.0215588 0.0953502 ) 0 
( 0.0728372 0.0400196 0.090203 ) 0 
( 0.0145186 0.068559 0.0989622 ) 0 
( 0.0289012 0.0753762 0.0954032 ) 0 
( 0.0185799 0.0305742 0.0989792 ) 0 
( 0.0138166 0.0696662 0.0994903 ) 0 
( 0.0100461 0.0505036 0.0963777 ) 0 
( 0.0392634 0.0298787 0.0897104 ) 0 
( 0.0231502 0.0124029 0.0992567 ) 0 
( 0.0967937 0.087773 0.0995002 ) 0 
( 0.00588187 0.0114571 0.0992809 ) 0 
( 0.0842214 0.0423207 0.0900157 ) 0 
( 0.0495506 0.0927188 0.0943658 ) 0 
( 0.0234597 0.0632679 0.0990566 ) 0 
( 0.0149694 0.0516627 0.0995002 ) 0 
( 0.0570789 0.0261539 0.0883122 ) 0 
( 0.0350488 0.00484383 0.0869259 ) 0 
( 0.0743252 0.00328274 0.0944176 ) 0 
( 0.00759333 0.0625589 0.0896207 ) 0 
( 0.106398 0.0968644 0.0981571 ) 0 
( 0.050873 0.0386855 0.0995002 ) 0 
( 0.0154 0.059724 0.0990443 ) 0 
( 0.0858669 0.0324561 0.092533 ) 0 
( 0.0862635 0.0252569 0.0995002 ) 0 
( 0.0729771 0.0174114 0.0934812 ) 0 
( 0.0777577 0.0365499 0.0910593 ) 0 
( 0.00856768 0.0324684 0.0897354 ) 0 
( 0.0434691 0.0025567 0.0974151 ) 0 
( 0.00330269 0.0565691 0.0971182 ) 0 
( 0.0944417 0.00521577 0.099162 ) 0 
( 0.0321821 0.0378165 0.0995002 ) 0 
( 0.0826897 0.0865056 0.0981349 ) 0 
( 0.0160331 0.0553929 0.0897538 ) 0 
( 0.395576 0.00234861 0.0995002 ) 0 
( 0.095472 0.0036867 0.088138 ) 0 
( 0.0763481 0.0572044 0.0901349 ) 0 
( 0.0247539 0.0158759 0.0926489 ) 0 
( 0.0376823 0.0319703 0.0942572 ) 0 
( 0.0752507 0.0551693 0.0973876 ) 0 
( 0.0725683 0.0336464 0.0934685 ) 0 
( 0.155968 0.0375556 0.0995002 ) 0 
( 0.185474 0.0386439 0.0995002 ) 0 
( 0.12116 0.0554703 0.0885566 ) 0 
( 0.16692 0.0806302 0.0878146 ) 0 
( 0.11161 0.0136177 0.0994327 ) 0 
( 0.150932 0.0521323 0.0908093 ) 0 
( 0.196172 0.0605177 0.0928578 ) 0 
( 0.132523 0.0216138 0.0991416 ) 0 
( 0.140575 0.0414639 0.0886399 ) 0 
( 0.132161 0.0593364 0.0921307 ) 0 
( 0.151849 0.0707905 0.0941 ) 0 
( 0.138744 0.099296 0.0981351 ) 0 
( 0.122729 0.0948041 0.0991389 ) 0 
( 0.195294 0.0658764 0.0995002 ) 0 
( 0.137061 0.0704705 0.0995002 ) 0 
( 0.120383 0.0953337 0.0992202 ) 0 
( 0.139162 0.0336207 0.0990047 ) 0 
( 0.189001 0.0850733 0.0886319 ) 0 
( 0.152885 0.063316 0.0979852 ) 0 
( 0.167754 0.0213417 0.0897993 ) 0 
( 0.123268 0.0338668 0.0898931 ) 0 
( 0.145364 0.0548616 0.0975498 ) 0 
( 0.16792 0.00330705 0.0949233 ) 0 
( 0.105926 0.0171934 0.0995002 ) 0 
( 0.115949 0.0875496 0.088275 ) 0 
( 0.137093 0.0205428 0.0989875 ) 0 
( 0.159422 0.0486339 0.0876829 ) 0 
( 0.148603 0.0598595 0.0992099 ) 0 
( 0.193442 0.0445247 0.0899775 ) 0 
( 0.190991 0.063651 0.0922313 ) 0 
( 0.127189 0.0642221 0.0990051 ) 0 
( 0.185727 0.058768 0.0916559 ) 0 
( 0.151992 0.0301654 0.088872 ) 0 
( 0.122338 0.0485392 0.0869931 ) 0 
( 0.110187 0.0801423 0.0900491 ) 0 
( 0.10488 0.0676861 0.0995002 ) 0 
( 0.17948 0.0824315 0.086865 ) 0 
( 0.118156 0.0894294 0.0902765 ) 0 
( 0.143618 0.0563308 0.0885565 ) 0 
( 0.128603 0.0276656 0.0995002 ) 0 
( 0.10476 0.0762107 0.0994577 ) 0 
( 0.180323 0.0553425 0.0925725 ) 0 
( 0.165672 0.098794 0.0973298 ) 0 
( 0.14187 0.0452475 0.0939257 ) 0 
( 0.190104 0.0796235 0.0989884 ) 0 
( 0.166753 0.0608596 0.0883361 ) 0 
( 0.17337 0.0637909 0.0882753 ) 0 
( 0.101723 0.0232346 0.0995002 ) 0 
( 0.124932 0.030064 0.0884118 ) 0 
( 0.124852 0.0888061 0.0887655 ) 0 
( 0.195937 0.0464898 0.0915028 ) 0 
( 0.107581 0.0342534 0.0977191 ) 0 
( 0.13654 0.0368185 0.0995002 ) 0 
( 0.110038 0.0560503 0.0914016 ) 0 
( 0.162165 0.0889232 0.0881465 ) 0 
( 0.149314 0.0550169 0.0989547 ) 0 
( 0.103732 0.0656567 0.0990044 ) 0 
( 0.146241 0.0417433 0.0904114 ) 0 
( 0.0932961 0.0723971 0.0994164 ) 0 
( 0.13463 0.00501933 0.0885452 ) 0 
( 0.110188 0.0725397 0.0870845 ) 0 
( 0.103568 0.061819 0.0990234 ) 0 
( 0.101444 0.0676556 0.0970255 ) 0 
( 0.150765 0.00640711 0.0984393 ) 0 
( 0.113448 0.0177224 0.0943505 ) 0 
( 0.170469 0.00330046 0.0914074 ) 0 
( 0.18548 0.089674 0.0990199 ) 0 
( 0.110993 0.0506009 0.0884206 ) 0 
( 0.116127 0.0129405 0.0993282 ) 0 
( 0.133534 0.0855611 0.0903278 ) 0 
( 0.197221 0.0721791 0.0877392 ) 0 
( 0.154471 0.00318039 0.0891864 ) 0 
( 0.142541 0.0784242 0.0888032 ) 0 
( 0.193471 0.0818038 0.0953803 ) 0 
( 0.20045 0.0905833 0.0927183 ) 0 
( 0.125885 0.0232556 0.0991271 ) 0 
( 0.133302 0.0663107 0.0990826 ) 0 
( 0.148474 0.00884075 0.0995022 ) 0 
( 0.120083 0.0369643 0.0984879 ) 0 
( 0.128414 0.016421 0.0995002 ) 0 
( 0.100605 0.0381264 0.0995002 ) 0 
( 0.146748 0.0397048 0.0884429 ) 0 
( 0.103349 0.057899 0.0964294 ) 0 
( 0.195379 0.0548503 0.0938937 ) 0 
( 0.177542 0.056921 0.0990364 ) 0 
( 0.171009 0.0350728 0.0882681 ) 0 
( 0.132391 0.00596149 0.0936831 ) 0 
( 0.167692 0.0640429 0.0991048 ) 0 
( 0.102071 0.0131658 0.0990154 ) 0 
( 0.14602 0.0434661 0.0991713 ) 0 
( 0.161893 0.0590962 0.0942993 ) 0 
( 0.147281 0.0372584 0.0995002 ) 0 
( 0.195002 0.0444326 0.0994811 ) 0 
( 0.185557 0.0753161 0.0885336 ) 0 
( 0.15219 0.0214703 0.0884914 ) 0 
( 0.132166 0.0605394 0.0995001 ) 0 
( 0.14343 0.0544392 0.0991818 ) 0 
( 0.198556 0.0304892 0.0885725 ) 0 
( 0.191071 0.0411846 0.0901552 ) 0 
( 0.105479 0.0209383 0.0920954 ) 0 
( 0.17583 0.0371642 0.0879675 ) 0 
( 0.19411 0.0362477 0.0911348 ) 0 
( 0.113662 0.0468573 0.088178 ) 0 
( 0.122074 0.0686561 0.0883843 ) 0 
( 0.155666 0.0953225 0.0993948 ) 0 
( 0.103927 0.0464504 0.0994726 ) 0 
( 0.198448 0.051073 0.0994715 ) 0 
( 0.160881 0.0703015 0.0990567 ) 0 
( 0.136857 0.033341 0.0989869 ) 0 
( 0.132446 0.0552445 0.0896535 ) 0 
( 0.178012 0.0351734 0.0989791 ) 0 
( 0.185058 0.0834989 0.0994749 ) 0 
( 0.114415 0.0124524 0.0986649 ) 0 
( 0.198545 0.0192166 0.0889284 ) 0 
( 0.173293 0.0311878 0.0982941 ) 0 
( 0.176103 0.0907128 0.0931284 ) 0 
( 0.129498 0.0927456 0.0990782 ) 0 
( 0.179031 0.0445495 0.0897778 ) 0 
( 0.19031 0.0265646 0.0995002 ) 0 
( 0.198745 0.00302198 0.0995002 ) 0 
( 0.108277 0.00226086 0.0995002 ) 0 
( 0.19586 0.00881346 0.0880836 ) 0 
( 0.155773 0.0875499 0.0916685 ) 0 
( 0.193685 0.0445984 0.0990845 ) 0 
( 0.153692 0.0417793 0.0992521 ) 0 
( 0.145097 0.028898 0.0995002 ) 0 
( 0.18507 0.0793827 0.091442 ) 0 
( 0.203185 0.0729611 0.0962086 ) 0 
( 0.170485 0.0724912 0.0894768 ) 0 
( 0.129262 0.0506784 0.0885773 ) 0 
( 0.111381 0.0956832 0.0885342 ) 0 
( 0.160224 0.0251856 0.0950643 ) 0 
( 0.162946 0.0137903 0.0993777 ) 0 
( 0.176787 0.0665931 0.0985511 ) 0 
( 0.127416 0.046962 0.0995002 ) 0 
( 0.142194 0.0521557 0.0994768 ) 0 
( 0.125754 0.0407718 0.0928644 ) 0 
( 0.186186 0.0567343 0.0995002 ) 0 
( 0.143393 0.036692 0.0994984 ) 0 
( 0.174 0.0264519 0.0994903 ) 0 
( 0.200863 0.0723287 0.0883765 ) 0 
( 0.150721 0.00983771 0.0883994 ) 0 
( 0.191931 0.00447119 0.0993911 ) 0 
( 0.131475 0.00384743 0.0915529 ) 0 
( 0.123056 0.0533118 0.0958949 ) 0 
( 0.15283 0.0239891 0.0908816 ) 0 
( 0.124784 0.0168971 0.0995002 ) 0 
( 0.170048 0.0982776 0.0887018 ) 0 
( 0.122335 0.0900247 0.0958724 ) 0 
( 0.188372 0.020905 0.0960477 ) 0 
( 0.136035 0.0181764 0.0995002 ) 0 
( 0.131586 0.0537292 0.0961434 ) 0 
( 0.126434 0.0748441 0.0889966 ) 0 
( 0.192169 0.0207274 0.0994753 ) 0 
( 0.122735 0.0292278 0.0931892 ) 0 
( 0.183912 0.0451936 0.0951467 ) 0 
( 0.138504 0.0524483 0.0891116 ) 0 
( 0.105817 0.0648419 0.0994781 ) 0 
( 0.158298 0.0155292 0.0995002 ) 0 
( 0.184672 0.0904064 0.0885794 ) 0 
( 0.152844 0.00809743 0.0994746 ) 0 
( 0.131689 0.053322 0.0994655 ) 0 
( 0.108051 0.087736 0.0991518 ) 0 
( 0.167738 0.0165872 0.0993175 ) 0 
( 0.152145 0.0810658 0.0994567 ) 0 
( 0.146183 0.0233326 0.0986878 ) 0 
( 0.112724 0.0125776 0.0993427 ) 0 
( 0.117033 0.0205379 0.0882768 ) 0 
( 0.188812 0.0518335 0.098849 ) 0 
( 0.164306 0.0856776 0.0995002 ) 0 
( 0.117866 0.0839333 0.0893199 ) 0 
( 0.126488 0.0814904 0.0995002 ) 0 
( 0.181253 0.085627 0.0995004 ) 0 
( 0.132631 0.0812853 0.0886023 ) 0 
( 0.143508 0.0517639 0.0991551 ) 0 
( 0.177665 0.0758273 0.0904656 ) 0 
( 0.188176 0.0660816 0.0900252 ) 0 
( 0.140238 0.024472 0.0881728 ) 0 
( 0.144184 0.0693929 0.0995002 ) 0 
( 0.106732 0.0435 0.0973773 ) 0 
( 0.146419 0.0724794 0.0992015 ) 0 
( 0.12737 0.0932232 0.0995002 ) 0 
( 0.166078 0.0694577 0.0887276 ) 0 
( 0.109342 0.0980348 0.0990155 ) 0 
( 0.117936 0.0112271 0.099414 ) 0 
( 0.181621 0.0823517 0.0995002 ) 0 
( 0.180298 0.0853166 0.0994105 ) 0 
( 0.127008 0.0406668 0.0995002 ) 0 
( 0.144366 0.00741125 0.0973146 ) 0 
( 0.174016 0.0386185 0.0994526 ) 0 
( 0.137569 0.0841816 0.0992997 ) 0 
( 0.104318 0.0599093 0.0990041 ) 0 
( 0.101576 0.0218439 0.0972522 ) 0 
( 0.192718 0.0263309 0.099004 ) 0 
( 0.11144 0.00946625 0.0906266 ) 0 
( 0.113274 0.0759088 0.0995002 ) 0 
( 0.168712 0.0785166 0.0890865 ) 0 
( 0.165191 0.0184485 0.0867962 ) 0 
( 0.113707 0.00580825 0.0936427 ) 0 
( 0.103627 0.0522516 0.099061 ) 0 
( 0.187123 0.052573 0.0995002 ) 0 
( 0.182968 0.0323387 0.0885347 ) 0 
( 0.173747 0.00644852 0.0992159 ) 0 
( 0.138216 0.0560128 0.0903945 ) 0 
( 0.199061 0.0816337 0.0885552 ) 0 
( 0.15826 0.0527975 0.0990124 ) 0 
( 0.115833 0.0794544 0.0962756 ) 0 
( 0.157024 0.0696501 0.0877779 ) 0 
( 0.154295 0.055855 0.0990357 ) 0 
( 0.191948 0.0991535 0.0995002 ) 0 
( 0.110856 0.077514 0.0977348 ) 0 
( 0.133948 0.0324146 0.0995002 ) 0 
( 0.192005 0.0133148 0.0995002 ) 0 
( 0.114184 0.0541022 0.0895143 ) 0 
( 0.118271 0.0863531 0.0882525 ) 0 
( 0.186444 0.0489731 0.0995002 ) 0 
( 0.136624 0.00415681 0.0992021 ) 0 
( 0.11432 0.0146186 0.0995002 ) 0 
( 0.137448 0.0458788 0.0994632 ) 0 
( 0.154583 0.0978337 0.0995002 ) 0 
( 0.194443 0.0203231 0.0995002 ) 0 
( 0.178397 0.0605945 0.097004 ) 0 
( 0.154909 0.0378828 0.0995002 ) 0 
( 0.135735 0.0954183 0.0995002 ) 0 
( 0.131513 0.0156893 0.0995002 ) 0 
( 0.157636 0.0727182 0.0900891 ) 0 
( 0.156453 0.00906802 0.0995002 ) 0 
( 0.102418 0.041386 0.0991209 ) 0 
( 0.106706 0.0392573 0.0976146 ) 0 
( 0.144278 0.0332781 0.0900276 ) 0 
( 0.14712 0.0314932 0.0882492 ) 0 
( 0.195036 0.0747596 0.0884667 ) 0 
( 0.127313 0.0330794 0.0887344 ) 0 
( 0.178202 0.0719874 0.0885148 ) 0 
( 0.182987 0.0299927 0.0937539 ) 0 
( 0.13882 0.0295881 0.0995002 ) 0 
( 0.122815 0.0695611 0.0933105 ) 0 
( 0.195446 0.0280175 0.0959212 ) 0 
( 0.156949 0.00090908 0.0989809 ) 0 
( 0.150298 0.0903332 0.0876814 ) 0 
( 0.181014 0.000856548 0.088574 ) 0 
( 0.119213 0.0311746 0.094081 ) 0 
( 0.171211 0.0985159 0.0911641 ) 0 
( 0.187007 0.0138741 0.0995002 ) 0 
( 0.168404 0.0570234 0.088234 ) 0 
( 0.106421 0.0152047 0.0965657 ) 0 
( 0.179898 0.0138563 0.0927518 ) 0 
( 0.199278 0.0642882 0.091635 ) 0 
( 0.185681 0.0109809 0.0916997 ) 0 
( 0.17103 0.00831008 0.0890211 ) 0 
( 0.10178 0.0286898 0.0994737 ) 0 
( 0.283255 0.0394517 0.099351 ) 0 
( 0.239225 0.0961687 0.088449 ) 0 
( 0.300183 0.0186267 0.094593 ) 0 
( 0.239863 0.0523321 0.0885578 ) 0 
( 0.216446 0.0233922 0.0930753 ) 0 
( 0.207336 0.0657499 0.0885968 ) 0 
( 0.281062 0.0429005 0.0981806 ) 0 
( 0.270378 0.0267857 0.0886013 ) 0 
( 0.24257 0.0459455 0.0948858 ) 0 
( 0.212888 0.0659065 0.0994666 ) 0 
( 0.27674 0.0707845 0.0994699 ) 0 
( 0.281531 0.0230985 0.0968918 ) 0 
( 0.22838 0.041972 0.091447 ) 0 
( 0.228178 0.0222334 0.0934244 ) 0 
( 0.216859 0.0570264 0.0877214 ) 0 
( 0.215466 0.0250256 0.0995002 ) 0 
( 0.266419 0.0203217 0.0922651 ) 0 
( 0.220617 0.0210363 0.0909362 ) 0 
( 0.272381 0.0130422 0.0993671 ) 0 
( 0.2611 0.0907621 0.0889736 ) 0 
( 0.271772 0.0298094 0.0885355 ) 0 
( 0.245449 0.0724074 0.0907997 ) 0 
( 0.207885 0.0388372 0.0995002 ) 0 
( 0.20489 0.00314082 0.08797 ) 0 
( 0.248797 0.0721059 0.0948439 ) 0 
( 0.290437 0.099003 0.0993179 ) 0 
( 0.284204 0.00577023 0.0994079 ) 0 
( 0.221723 0.0948515 0.0991683 ) 0 
( 0.20942 0.0876767 0.0986479 ) 0 
( 0.220628 0.0844759 0.0911543 ) 0 
( 0.215727 0.00413941 0.0982113 ) 0 
( 0.224754 0.0500663 0.0885396 ) 0 
( 0.239503 0.0927221 0.099306 ) 0 
( 0.229937 0.0957675 0.0992062 ) 0 
( 0.252768 0.0615675 0.0925976 ) 0 
( 0.270789 0.0564698 0.0941041 ) 0 
( 0.27366 0.0111822 0.0887273 ) 0 
( 0.240775 0.0072533 0.088577 ) 0 
( 0.294634 0.0882045 0.089449 ) 0 
( 0.260348 0.0961925 0.0917277 ) 0 
( 0.284111 0.0240978 0.0923149 ) 0 
( 0.22265 0.0296691 0.0867996 ) 0 
( 0.246654 0.0415739 0.0881886 ) 0 
( 0.217631 0.058307 0.0990743 ) 0 
( 0.209349 0.0364568 0.0883604 ) 0 
( 0.2686 0.00497939 0.0894089 ) 0 
( 0.277715 0.0988175 0.0887336 ) 0 
( 0.27931 0.0123515 0.099204 ) 0 
( 0.225517 0.0402043 0.0884851 ) 0 
( 0.224055 0.0728754 0.0995002 ) 0 
( 0.281037 0.0136491 0.0990564 ) 0 
( 0.241319 0.0714782 0.0959733 ) 0 
( 0.264232 0.0161953 0.0888251 ) 0 
( 0.24519 0.0671143 0.0995002 ) 0 
( 0.269184 0.0605391 0.0995002 ) 0 
( 0.239225 0.0460506 0.099208 ) 0 
( 0.286521 0.0314039 0.0995002 ) 0 
( 0.276505 0.00650699 0.0883639 ) 0 
( 0.210381 0.0548402 0.0995002 ) 0 
( 0.283991 0.0107538 0.0883202 ) 0 
( 0.22521 0.0456401 0.0994785 ) 0 
( 0.215028 0.0304151 0.0934615 ) 0 
( 0.29182 0.0518724 0.0888622 ) 0 
( 0.247133 0.0713346 0.0941665 ) 0 
( 0.218433 0.00763629 0.0906341 ) 0 
( 0.287622 0.026069 0.0958746 ) 0 
( 0.266408 0.0326394 0.0965861 ) 0 
( 0.229738 0.023649 0.0926726 ) 0 
( 0.290185 0.00690762 0.0995002 ) 0 
( 0.229103 0.0110829 0.0991128 ) 0 
( 0.280488 0.0844696 0.0990259 ) 0 
( 0.215542 0.0653592 0.099396 ) 0 
( 0.291121 0.080858 0.0974092 ) 0 
( 0.213812 0.0106387 0.0901077 ) 0 
( 0.269094 0.0920792 0.0995002 ) 0 
( 0.243285 0.0311333 0.0991277 ) 0 
( 0.240266 0.0617347 0.0961545 ) 0 
( 0.235399 0.0662539 0.0886843 ) 0 
( 0.266165 0.0801194 0.0994952 ) 0 
( 0.263071 0.0760906 0.099355 ) 0 
( 0.252618 0.0801595 0.0990096 ) 0 
( 0.263681 0.0950794 0.0903729 ) 0 
( 0.241347 0.0798341 0.0989433 ) 0 
( 0.268881 0.0536623 0.0876226 ) 0 
( 0.20876 0.0732879 0.095974 ) 0 
( 0.297191 0.0885305 0.0884024 ) 0 
( 0.213427 0.0526859 0.0986177 ) 0 
( 0.260546 0.0586467 0.0994795 ) 0 
( 0.233226 0.0409201 0.0930769 ) 0 
( 0.271952 0.0826128 0.0883918 ) 0 
( 0.264146 0.0525863 0.0994289 ) 0 
( 0.206921 0.012126 0.0995002 ) 0 
( 0.203693 0.039052 0.0884946 ) 0 
( 0.277617 0.0846646 0.0885489 ) 0 
( 0.202753 0.022191 0.0885524 ) 0 
( 0.25668 0.0940753 0.088436 ) 0 
( 0.290919 0.0752218 0.099476 ) 0 
( 0.213871 0.0887189 0.0995002 ) 0 
( 0.216097 0.00981941 0.0922811 ) 0 
( 0.250926 0.0185267 0.0944554 ) 0 
( 0.237855 0.0540424 0.0869737 ) 0 
( 0.249607 0.0406574 0.0933656 ) 0 
( 0.219032 0.09437 0.099019 ) 0 
( 0.298549 0.0383248 0.0991629 ) 0 
( 0.280218 0.081301 0.0927232 ) 0 
( 0.280859 0.0214818 0.088452 ) 0 
( 0.281784 0.00356928 0.0995002 ) 0 
( 0.218854 0.0482169 0.0913404 ) 0 
( 0.209284 0.0831412 0.0905949 ) 0 
( 0.285859 0.0252991 0.0947986 ) 0 
( 0.268925 0.0430196 0.0903776 ) 0 
( 0.279443 0.0520965 0.087773 ) 0 
( 0.252911 0.00655279 0.0888471 ) 0 
( 0.248657 0.063776 0.0960358 ) 0 
( 0.267866 0.084905 0.0890068 ) 0 
( 0.264541 0.0515795 0.0995002 ) 0 
( 0.232809 0.0631955 0.0876303 ) 0 
( 0.279333 0.0187367 0.0995002 ) 0 
( 0.225157 0.0132786 0.0994349 ) 0 
( 0.264289 0.089609 0.0991048 ) 0 
( 0.223627 0.0130622 0.0994786 ) 0 
( 0.222889 0.078724 0.0995002 ) 0 
( 0.258199 0.0245434 0.0995002 ) 0 
( 0.234242 0.0504104 0.0895485 ) 0 
( 0.26332 0.0260077 0.0882314 ) 0 
( 0.285691 0.0760161 0.0893274 ) 0 
( 0.252135 0.0636385 0.0995002 ) 0 
( 0.207807 0.0155947 0.0995002 ) 0 
( 0.262019 0.0986829 0.0990008 ) 0 
( 0.242011 0.0254908 0.0924641 ) 0 
( 0.284593 0.0941802 0.0990397 ) 0 
( 0.243617 0.0893497 0.0886432 ) 0 
( 0.225635 0.0663648 0.098965 ) 0 
( 0.289759 0.0794341 0.0889741 ) 0 
( 0.277585 0.0500836 0.0876033 ) 0 
( 0.213886 0.0584172 0.0911011 ) 0 
( 0.211783 0.000515917 0.0990053 ) 0 
( 0.233861 0.0804193 0.0989883 ) 0 
( 0.249046 0.0306221 0.0990136 ) 0 
( 0.222219 0.00858418 0.0986404 ) 0 
( 0.221719 0.0629082 0.0994931 ) 0 
( 0.258236 0.0701639 0.0992952 ) 0 
( 0.25947 0.0982731 0.0994676 ) 0 
( 0.22097 0.0762867 0.089009 ) 0 
( 0.20943 0.0387115 0.0995002 ) 0 
( 0.207717 0.0235416 0.0995002 ) 0 
( 0.242153 0.0598012 0.0994715 ) 0 
( 0.26969 0.00799023 0.0995001 ) 0 
( 0.240899 0.0496184 0.0877618 ) 0 
( 0.297371 0.0828698 0.0995002 ) 0 
( 0.204235 0.0489255 0.0995002 ) 0 
( 0.278086 0.0567832 0.0887258 ) 0 
( 0.298402 0.0959234 0.0995002 ) 0 
( 0.257429 0.0487644 0.0994859 ) 0 
( 0.262086 0.00817349 0.0891588 ) 0 
( 0.263006 0.0971135 0.0995002 ) 0 
( 0.213056 0.0040851 0.0984664 ) 0 
( 0.281841 0.0537352 0.0868572 ) 0 
( 0.258748 0.0134146 0.0893465 ) 0 
( 0.282466 0.033078 0.0907893 ) 0 
( 0.210264 0.00973339 0.0994981 ) 0 
( 0.21604 0.0305391 0.0994983 ) 0 
( 0.238424 0.0232112 0.0886899 ) 0 
( 0.246734 0.0347048 0.0995002 ) 0 
( 0.286369 0.0485009 0.0989984 ) 0 
( 0.247292 0.0620271 0.0917186 ) 0 
( 0.273388 0.087517 0.0938791 ) 0 
( 0.298533 0.0665334 0.091703 ) 0 
( 0.246552 0.0969284 0.099326 ) 0 
( 0.266461 0.00176607 0.0994496 ) 0 
( 0.23174 0.0271489 0.0995002 ) 0 
( 0.211023 0.0959868 0.0954776 ) 0 
( 0.263555 0.0406679 0.088561 ) 0 
( 0.245532 0.0171031 0.0951248 ) 0 
( 0.222827 0.0909341 0.0957042 ) 0 
( 0.277937 0.0927746 0.0951166 ) 0 
( 0.27961 0.096926 0.0885977 ) 0 
( 0.282027 0.0965937 0.0908367 ) 0 
( 0.245582 0.0703267 0.0995002 ) 0 
( 0.205896 0.0227494 0.0951343 ) 0 
( 0.240334 0.0191496 0.0905013 ) 0 
( 0.268265 0.0525896 0.0929732 ) 0 
( 0.229432 0.00395481 0.0991397 ) 0 
( 0.209491 0.00607682 0.0889869 ) 0 
( 0.245211 0.0330574 0.0995002 ) 0 
( 0.23619 0.0858147 0.0990127 ) 0 
( 0.268753 0.0441082 0.0897913 ) 0 
( 0.224148 0.021425 0.0990602 ) 0 
( 0.292323 0.0348744 0.0891325 ) 0 
( 0.253473 0.0175699 0.0995002 ) 0 
( 0.23183 0.0447191 0.0995002 ) 0 
( 0.209852 0.0689268 0.0995002 ) 0 
( 0.300773 0.0175705 0.0915179 ) 0 
( 0.281828 0.0770747 0.0883731 ) 0 
( 0.250671 0.0601812 0.0938407 ) 0 
( 0.244606 0.00282342 0.0917324 ) 0 
( 0.295823 0.0320093 0.0951365 ) 0 
( 0.217455 0.0220273 0.089501 ) 0 
( 0.249078 0.0919955 0.0885341 ) 0 
( 0.239997 0.0483516 0.0893613 ) 0 
( 0.260691 0.0977205 0.0995002 ) 0 
( 0.262627 0.0496326 0.0941863 ) 0 
( 0.221033 0.0589329 0.0995002 ) 0 
( 0.193905 0.0383062 0.0994713 ) 0 
( 0.263593 0.0535391 0.0886158 ) 0 
( 0.218208 0.0340748 0.0995002 ) 0 
( 0.225927 0.0156662 0.0995002 ) 0 
( 0.240742 0.0037711 0.0993392 ) 0 
( 0.247304 0.0487665 0.0994887 ) 0 
( 0.21096 0.0802705 0.0884123 ) 0 
( 0.24727 0.0216588 0.0885503 ) 0 
( 0.300753 0.0767376 0.0887358 ) 0 
( 0.249493 0.0150046 0.0994965 ) 0 
( 0.219156 0.0767606 0.0892453 ) 0 
( 0.25766 0.0512501 0.0912273 ) 0 
( 0.206679 0.0776194 0.0989793 ) 0 
( 0.21961 0.00270813 0.0885068 ) 0 
( 0.251478 0.0539858 0.0995002 ) 0 
( 0.235491 0.0784324 0.0995002 ) 0 
( 0.207201 0.0168266 0.088446 ) 0 
( 0.278098 0.00398459 0.0990978 ) 0 
( 0.205041 0.0841919 0.0885967 ) 0 
( 0.206425 0.0983285 0.0910661 ) 0 
( 0.226129 0.0376728 0.0990278 ) 0 
( 0.287336 0.0109983 0.0885594 ) 0 
( 0.256505 0.039174 0.0995002 ) 0 
( 0.207567 0.00522326 0.0995006 ) 0 
( 0.279046 0.0405886 0.0933643 ) 0 
( 0.219732 0.0156959 0.0995002 ) 0 
( 0.300471 0.0202287 0.0885925 ) 0 
( 0.217876 0.0846897 0.0992265 ) 0 
( 0.237066 0.0291041 0.096427 ) 0 
( 0.276169 0.00326442 0.0922286 ) 0 
( 0.202604 0.0170861 0.0989824 ) 0 
( 0.266482 0.0409119 0.0929661 ) 0 
( 0.230929 0.0815824 0.0957233 ) 0 
( 0.276728 0.00743689 0.0995002 ) 0 
( 0.256709 0.027522 0.0972551 ) 0 
( 0.236154 0.0566199 0.0892057 ) 0 
( 0.241616 0.0825373 0.09043 ) 0 
( 0.295681 0.0508257 0.0895466 ) 0 
( 0.282599 0.0639916 0.0968845 ) 0 
( 0.216246 0.0941493 0.0991946 ) 0 
( 0.248094 0.0461206 0.0993092 ) 0 
( 0.316478 0.0937934 0.097221 ) 0 
( 0.240377 0.0586594 0.0995002 ) 0 
( 0.268644 0.039824 0.0954627 ) 0 
( 0.264312 0.0108641 0.0961653 ) 0 
( 0.310912 0.0413462 0.0985319 ) 0 
( 0.39386 0.0536918 0.089413 ) 0 
( 0.377625 0.0817631 0.0995002 ) 0 
( 0.312636 0.0240433 0.0885762 ) 0 
( 0.320641 0.0331606 0.0888922 ) 0 
( 0.311199 0.0285924 0.0989789 ) 0 
( 0.311546 0.0336749 0.0994948 ) 0 
( 0.347837 0.0926662 0.0995002 ) 0 
( 0.351918 0.0702843 0.0901314 ) 0 
( 0.387832 0.0903527 0.0943624 ) 0 
( 0.318459 0.0851856 0.0993482 ) 0 
( 0.31084 0.0753878 0.0994042 ) 0 
( 0.316458 0.0846574 0.0885307 ) 0 
( 0.346048 0.0426929 0.0950901 ) 0 
( 0.335807 0.0481783 0.0966113 ) 0 
( 0.387969 0.0173664 0.0990182 ) 0 
( 0.319593 0.0467398 0.0884608 ) 0 
( 0.305262 0.0924585 0.0995127 ) 0 
( 0.332405 0.0964458 0.0906701 ) 0 
( 0.392666 0.0693698 0.0911618 ) 0 
( 0.374087 0.038258 0.0995002 ) 0 
( 0.367613 0.0109352 0.0918477 ) 0 
( 0.374458 0.0605977 0.0945497 ) 0 
( 0.341864 0.00298002 0.0967147 ) 0 
( 0.381707 0.0217349 0.0922043 ) 0 
( 0.382856 0.00712707 0.0993843 ) 0 
( 0.331304 0.0909961 0.0994709 ) 0 
( 0.387197 0.0410775 0.0888224 ) 0 
( 0.370424 0.0155039 0.0965626 ) 0 
( 0.347339 0.0244367 0.0943153 ) 0 
( 0.340554 0.0446236 0.0995002 ) 0 
( 0.32041 0.0359131 0.0957658 ) 0 
( 0.308193 0.0598137 0.0991489 ) 0 
( 0.307622 0.0173683 0.0904505 ) 0 
( 0.330774 0.043484 0.0994316 ) 0 
( 0.396363 0.0429924 0.0941611 ) 0 
( 0.335081 0.0452807 0.0884529 ) 0 
( 0.367805 0.0399211 0.0886314 ) 0 
( 0.36299 0.0250841 0.0994722 ) 0 
( 0.345598 0.0200852 0.0933516 ) 0 
( 0.333002 0.0580513 0.0885118 ) 0 
( 0.316545 0.0161684 0.0889356 ) 0 
( 0.387805 0.0928213 0.0937582 ) 0 
( 0.395656 0.0696429 0.0884262 ) 0 
( 0.349676 0.0379178 0.0989248 ) 0 
( 0.346217 0.0369902 0.0964861 ) 0 
( 0.351716 0.0120642 0.0883619 ) 0 
( 0.364879 0.046164 0.0907577 ) 0 
( 0.356628 0.021497 0.0882508 ) 0 
( 0.356904 0.0014674 0.0961723 ) 0 
( 0.325904 0.0503611 0.0886527 ) 0 
( 0.326836 0.060937 0.0995006 ) 0 
( 0.378791 0.0957913 0.094479 ) 0 
( 0.375354 0.00869718 0.0933595 ) 0 
( 0.377768 0.0972506 0.0995002 ) 0 
( 0.383117 0.0781843 0.0962095 ) 0 
( 0.378026 0.0247692 0.0995002 ) 0 
( 0.318232 0.00317962 0.0929544 ) 0 
( 0.324931 0.00778114 0.090171 ) 0 
( 0.34903 0.0473574 0.0934149 ) 0 
( 0.377349 0.0679443 0.0960816 ) 0 
( 0.362857 0.0430501 0.0965421 ) 0 
( 0.317937 0.0862573 0.0942835 ) 0 
( 0.350357 0.0273614 0.0885134 ) 0 
( 0.323388 0.0990185 0.0879094 ) 0 
( 0.379805 0.0361157 0.0995002 ) 0 
( 0.343072 0.0362565 0.0908303 ) 0 
( 0.322173 0.0975487 0.0887348 ) 0 
( 0.293887 0.0517968 0.0995002 ) 0 
( 0.327479 0.0179582 0.0990028 ) 0 
( 0.34732 0.096697 0.0989532 ) 0 
( 0.364364 0.000875931 0.088939 ) 0 
( 0.327758 0.0366141 0.0885418 ) 0 
( 0.323345 0.03743 0.099501 ) 0 
( 0.308598 0.0657517 0.086796 ) 0 
( 0.387294 0.0328855 0.0931486 ) 0 
( 0.389397 0.0798953 0.0974224 ) 0 
( 0.327061 0.0306786 0.0894878 ) 0 