FoamFile
{version 2.0; format ascii;class vectorField; location 0;object  v;}
1000
(
( 0.478642 -0.00143414 -0.0789222 )  
( 0.0230649 -0.000755988 0.096734 )  
( 0.0457991 -0.000591377 -0.102007 )  
( 0.453042 -0.0022723 -0.0458779 )  
( 0.0125476 -0.000112124 0.0196027 )  
( 0.0244201 8.06865e-05 -0.0142755 )  
( 0.480874 0.00162186 -0.0299939 )  
( 0.0391733 0.00015224 -0.0914661 )  
( 0.00846517 1.50421e-05 7.27208e-09 )  
( 0.405468 -0.000556028 0.228039 )  
( 0.377532 -2.46567e-05 0.281574 )  
( 0.479116 -0.000796347 0.135366 )  
( 0.00826489 -0.000292872 -1.21165e-08 )  
( 0.00921799 -7.03599e-05 -1.87004e-08 )  
( 0.121249 -0.000236227 0.273434 )  
( 0.00834402 -6.96737e-06 1.98942e-08 )  
( 0.0231288 -9.09284e-05 -0.0723596 )  
( 0.0091413 -0.000110733 -1.87721e-08 )  
( 0.0298482 3.22203e-05 0.0465985 )  
( 0.475875 0.00245258 -0.0502579 )  
( 0.453729 -0.00299666 0.0377819 )  
( 0.163646 -6.14304e-05 0.233118 )  
( 0.153776 0.000615243 0.039109 )  
( 0.140671 -0.000281836 0.329912 )  
( 0.00853385 -1.39288e-05 7.67515e-08 )  
( 0.184309 -0.000418328 0.311613 )  
( -0.0324652 -0.035705 -4.28257e-10 )  
( 0.0258443 0.000367766 -0.00545755 )  
( 0.19264 -0.00697489 0.142689 )  
( 0.0267384 0.000280752 -0.000768478 )  
( 0.169145 0.000149172 0.0291356 )  
( 0.455234 -0.00111312 -0.0465648 )  
( -0.178479 0.0148421 -0.0403454 )  
( 0.0266015 -6.58666e-06 0.0181657 )  
( 0.461072 -0.000317287 0.0070185 )  
( 0.0426668 -0.000111057 0.216929 )  
( 0.0406309 -1.56023e-05 0.0285202 )  
( 0.467857 -0.00552513 0.0534304 )  
( 0.457643 0.000245816 0.00272003 )  
( 0.373915 0.000438563 0.25292 )  
( 0.00970342 3.2171e-05 -0.0028898 )  
( 0.0185924 -2.19408e-05 -0.0473896 )  
( 0.0122614 -0.00024384 0.00900128 )  
( 0.383856 -0.00015312 0.0967302 )  
( 0.32159 -0.000186197 0.071535 )  
( 0.0139316 -0.000146954 -0.0116403 )  
( 0.0120497 3.6812e-05 0.0223322 )  
( 0.470928 0.000692373 -0.074966 )  
( 0.450436 -0.00248904 -0.123593 )  
( 0.288858 0.00110748 0.274876 )  
( 0.474892 -0.00110772 0.0289341 )  
( 0.00893562 -8.57995e-05 2.95863e-09 )  
( 0.281851 -0.000603373 0.168962 )  
( 0.00874553 0.000157429 -3.04677e-08 )  
( 0.0227827 0.000140328 -0.0675142 )  
( 0.121858 0.00061761 0.341491 )  
( 0.00927146 0.00013121 -0.00724378 )  
( 0.467885 -0.00143222 -0.125087 )  
( 0.448961 -0.00131778 0.200367 )  
( 0.423493 0.0030562 0.200169 )  
( 0.475578 -0.000805325 0.111005 )  
( 0.0293434 1.71614e-05 0.0314578 )  
( 0.481574 -0.000547172 -0.0820101 )  
( 0.387828 -0.0010593 0.264232 )  
( 0.457123 0.000641672 0.187659 )  
( -0.00172209 -0.0278607 2.07253e-08 )  
( 0.0087397 0.000110822 -3.39316e-08 )  
( 0.0263873 -0.000213764 0.0467357 )  
( 0.164941 -0.000409298 0.325485 )  
( 0.462031 -0.00340453 0.0243794 )  
( 0.480131 6.73935e-05 -0.0417219 )  
( 0.0201371 9.74257e-05 -0.0587311 )  
( 0.196346 0.000866871 0.310587 )  
( 0.00880384 -3.23222e-05 -2.22853e-06 )  
( 0.46338 0.000674995 -0.0389614 )  
( 0.0150961 -2.28001e-05 -0.0247026 )  
( 0.0353174 6.12338e-05 0.289177 )  
( 0.402536 0.00166094 0.271533 )  
( 0.439416 -0.000759028 0.205975 )  
( 0.0266946 0.000139273 -0.07952 )  
( 0.0133181 -3.02854e-05 -0.00538291 )  
( 0.463867 -0.00491054 -0.0977478 )  
( 0.459252 0.00103518 -0.063092 )  
( 0.0199646 -0.00012514 0.116457 )  
( 0.00927103 0.000174423 -0.00985738 )  
( 0.0133834 -0.000158192 -0.0027017 )  
( 0.0127382 0.000155053 0.0117825 )  
( 0.00836907 -0.000138443 -3.87525e-08 )  
( 0.467848 -0.00645053 -0.0541889 )  
( 0.465091 -0.00342366 0.0590292 )  
( 0.0211686 3.05463e-05 -0.0698649 )  
( 0.00856117 0.000221759 3.50254e-08 )  
( -0.0220738 0.0023167 -1.25374e-07 )  
( 0.45924 -0.00460703 0.0955922 )  
( 0.00518583 0.00010797 1.04541e-08 )  
( 0.271117 0.000714373 0.180626 )  
( 0.464285 0.000421564 0.0518905 )  
( 0.00740236 -0.105421 -3.81651e-08 )  
( 0.0229622 0.000341187 -0.0153032 )  
( 0.465546 -0.00119637 -0.113133 )  
( 0.460168 -0.0024319 0.00363623 )  
( 0.00834889 0.000145034 2.6875e-08 )  
( 0.0182251 0.000269532 -0.0514829 )  
( 0.00850589 0.000171662 3.4947e-08 )  
( 0.331975 0.0018799 0.275104 )  
( 0.0864933 0.283106 0.0980639 )  
( 0.00839259 -5.18269e-05 2.02534e-08 )  
( 0.087671 -0.0177407 -2.97064e-08 )  
( 0.461165 0.00116515 0.0371706 )  
( 0.113232 -0.158383 0.070583 )  
( 0.0123618 8.3673e-05 0.0118756 )  
( 0.481252 0.000396176 -0.058711 )  
( 0.458233 -0.000232412 0.0698452 )  
( 0.478893 0.00205681 0.00625133 )  
( 0.145498 -1.57926e-05 -0.101349 )  
( 0.458024 -0.0018841 -0.116901 )  
( 0.0151342 -0.147538 -2.10875e-08 )  
( 0.372497 0.00098272 0.193954 )  
( 0.46078 -0.00228291 -0.120412 )  
( 0.454468 -0.00488975 0.0800082 )  
( 0.0485359 -0.000576589 -0.105281 )  
( 0.482008 0.00161133 -0.0492769 )  
( 0.455602 0.00117869 0.212718 )  
( 0.0234764 0.000268859 0.0919753 )  
( 0.065677 -0.104346 0.05482 )  
( 0.264641 -0.00137243 0.162652 )  
( 0.400882 0.000735868 0.0605375 )  
( 0.315789 -0.000331057 0.0915231 )  
( 0.158976 -0.000570774 0.20459 )  
( 0.0236623 -0.000117301 -0.0768544 )  
( 0.471739 -0.000875301 0.155773 )  
( 0.461374 -0.00127956 -0.0351548 )  
( 0.421809 0.00022924 0.207188 )  
( 0.0741598 -0.000587086 -0.0324553 )  
( 0.466773 0.00114308 0.0436827 )  
( 0.477625 -0.00154775 -0.0972663 )  
( 0.00897802 0.000230154 -5.70219e-08 )  
( 0.00834674 -0.000174667 -5.20641e-08 )  
( 0.450918 -0.00280364 -0.151782 )  
( 0.455081 -0.00101244 0.0919791 )  
( 0.350508 -0.00214307 0.120011 )  
( 0.478521 -0.000452307 -0.00793325 )  
( 0.0351388 -5.62235e-05 -0.0929816 )  
( 0.00903458 7.70242e-05 7.38609e-08 )  
( 0.426799 0.000294348 0.0539147 )  
( 0.476781 -8.365e-05 0.0281762 )  
( 0.457388 -0.00149105 -0.14801 )  
( 0.462925 -0.00354738 0.116336 )  
( 0.345383 0.282413 0.0348909 )  
( 0.0086242 8.77245e-05 1.52228e-08 )  
( 0.00857114 -2.14628e-05 -3.90901e-09 )  
( 0.36205 0.00275195 0.158538 )  
( 0.388547 -0.000843025 0.028346 )  
( 0.027957 0.000123028 0.0483133 )  
( 0.431121 0.000280954 -0.0115135 )  
( 0.0248179 -0.000199356 0.355498 )  
( 0.46848 -0.00107184 0.177079 )  
( 0.00872093 4.56114e-05 1.45924e-08 )  
( 0.458272 -0.00346625 0.145592 )  
( 0.455365 3.78911e-05 0.188796 )  
( 0.463679 0.00150042 0.134499 )  
( 0.0751817 5.31576e-05 0.306715 )  
( 0.457095 -0.00250237 0.0502331 )  
( 0.00887313 4.67826e-05 2.07464e-08 )  
( 0.431547 -0.00208854 0.18201 )  
( 0.0310365 8.88409e-05 -0.0840709 )  
( 0.0130174 -0.000213175 -0.00469653 )  
( 0.0257949 0.000217618 0.0752865 )  
( 0.477337 0.00164765 -0.00368471 )  
( 0.194822 0.000487044 0.311664 )  
( 0.388241 -0.0112153 1.28321e-07 )  
( 0.00887134 5.8122e-05 -4.01764e-08 )  
( 0.00908105 -0.000141915 -1.87892e-08 )  
( 0.0127226 3.52855e-05 0.0240446 )  
( 0.240363 -0.000678197 0.315866 )  
( 0.0178149 -0.000187613 -0.0513972 )  
( 0.443109 -0.000899902 0.21385 )  
( 0.451503 -0.00257853 0.127706 )  
( 0.456746 0.00162786 0.148153 )  
( 0.154345 0.104321 -2.32755e-08 )  
( 0.450047 -0.00348669 0.0936027 )  
( 0.00905415 -3.45728e-05 8.1111e-06 )  
( 0.00841057 -9.75555e-05 -2.36735e-08 )  
( 0.471333 -0.00120896 0.0956042 )  
( 0.477312 -0.000750879 -0.0601297 )  
( 0.359314 -0.00157253 0.13056 )  
( 0.028021 -0.000301105 0.0176534 )  
( 0.478213 -0.00213031 0.0137105 )  
( 0.454165 -0.00147386 -0.0963284 )  
( 0.0275811 0.000310102 0.0695059 )  
( 0.457899 -0.00261351 -0.032478 )  
( 0.471168 0.000604812 0.230901 )  
( 0.461829 0.000973902 -0.0207976 )  
( 0.481708 -0.00119228 0.0792942 )  
( 0.0175188 -1.11124e-06 -0.0487052 )  
( 0.00859464 -0.000199447 -2.27214e-08 )  
( 0.433563 -0.000453127 0.010628 )  
( 0.126963 -0.000393761 0.339842 )  
( 0.375833 -0.000358814 0.140656 )  
( -0.0119808 -0.0155091 2.07578e-08 )  
( 0.00818825 -0.000139373 -8.87898e-08 )  
( 0.00845841 -0.000364362 8.74988e-09 )  
( 0.465081 -0.00370164 -0.112453 )  
( -0.0313248 -0.037829 -0.0285571 )  
( 0.25676 -0.000424132 0.256673 )  
( 0.0288525 8.869e-05 0.0590554 )  
( 0.454889 -0.000646318 0.123552 )  
( 0.0642005 -0.000359229 0.359939 )  
( 0.447353 -0.00318584 0.152187 )  
( 0.00904814 3.19857e-05 -1.00557e-08 )  
( 0.398722 -0.00199657 0.014842 )  
( 0.264197 -0.00188168 0.278403 )  
( 0.453193 9.68919e-05 0.0960192 )  
( 0.0276219 4.287e-05 -0.00182222 )  
( 0.260105 -0.001503 0.259758 )  
( 0.0231592 -7.73618e-05 -0.0227918 )  
( -0.0784452 -0.109913 0.00886046 )  
( 0.201164 0.382797 0.192804 )  
( 0.473157 -0.000777542 0.0687694 )  
( 0.0252192 -8.6472e-05 -0.0733203 )  
( 0.00891306 3.12077e-05 3.28124e-08 )  
( 0.0283779 -0.000110577 -0.0784828 )  
( 0.458187 0.00159965 0.096044 )  
( 0.411396 -0.00348364 0.250465 )  
( -0.0426463 -0.151686 0.0443694 )  
( 0.00899936 0.000114054 -5.79631e-09 )  
( 0.463271 -0.000506526 -0.0600443 )  
( 0.221836 -0.000222534 -0.0371206 )  
( -0.281363 0.0187405 0.0402114 )  
( 0.478946 0.00168616 0.0712675 )  
( 0.259155 -0.0609587 0.276432 )  
( 0.015884 0.00562677 -2.03856e-08 )  
( 0.0205017 0.000191659 -0.0300143 )  
( 0.450527 -0.00054957 0.192246 )  
( 0.00874003 3.7843e-05 -1.11245e-08 )  
( 0.427668 -0.00189508 0.2254 )  
( 0.375599 -0.000321069 0.135459 )  
( 0.48137 -0.000199718 0.0813101 )  
( 0.107615 -2.95805e-06 0.330751 )  
( 0.231878 -0.000159154 0.307055 )  
( 0.026453 -0.000178264 0.0522715 )  
( 0.00924697 -1.29423e-05 -0.000264975 )  
( 0.15325 0.000680854 0.34642 )  
( 0.479857 0.00095134 0.0734535 )  
( -0.163324 0.0050402 -6.47717e-08 )  
( 0.188206 -0.000835216 -0.073653 )  
( 0.456395 -0.00148633 0.0637166 )  
( 0.605639 -0.0171136 0.146616 )  
( 0.441507 -0.000158238 0.247393 )  
( 0.19758 -0.000444357 0.308126 )  
( 0.370631 -0.00231418 0.22235 )  
( 0.00871438 6.38381e-05 -8.20031e-10 )  
( 0.00884212 -6.46087e-05 -1.3732e-08 )  
( 0.468437 0.00120705 -0.0742625 )  
( 0.463504 0.000492137 -0.0869631 )  
( 0.0521533 0.000179555 0.362273 )  
( 0.417456 0.000953102 0.127352 )  
( 0.44862 -0.000700835 0.176778 )  
( 0.0283405 -0.000199639 0.051638 )  
( 0.471572 0.00101858 -0.0263212 )  
( 0.301334 0.175037 0.0685078 )  
( 0.370575 0.000310738 0.221359 )  
( 0.0182243 7.26227e-05 0.351218 )  
( 0.0204085 2.7022e-05 -0.0661247 )  
( 0.00894726 -3.58521e-05 2.57325e-08 )  
( 0.00871986 2.80299e-05 -2.78665e-08 )  
( 0.0881598 0.000153839 0.364025 )  
( 0.024847 -0.000139991 -0.00449391 )  
( 0.461592 -0.00278749 -0.0134598 )  
( 0.131938 -0.000143734 0.344207 )  
( 0.4679 0.000982071 0.0771288 )  
( 0.467823 -0.000593154 0.0817278 )  
( 0.188982 9.29671e-05 0.314566 )  
( 0.162485 0.000667739 0.251779 )  
( -0.131418 -0.076344 -8.53962e-09 )  
( 0.467918 0.0021913 -0.0491367 )  
( 0.0297231 -0.000148331 0.0234204 )  
( 0.466966 0.00163759 -0.117569 )  
( 0.0226238 -5.4086e-05 -0.0714887 )  
( 0.467662 -0.000138484 0.085959 )  
( 0.365632 -0.00126699 0.160849 )  
( 0.0200927 8.94568e-05 -0.0374975 )  
( 0.459789 -0.000647536 0.141798 )  
( 0.467643 0.000871089 0.0380076 )  
( 0.470098 -0.000359402 -0.136313 )  
( 0.468499 0.00188303 0.0929344 )  
( 0.00891308 0.000187206 -2.79763e-09 )  
( 0.462567 -0.00146101 -0.0476116 )  
( 0.466869 0.00189265 0.0704197 )  
( 0.469188 0.000616074 -0.0906303 )  
( 0.00921511 -0.000143949 -2.48643e-05 )  
( 0.0452488 9.34367e-05 -0.100988 )  
( 0.462474 -0.00011176 0.167278 )  
( 0.390247 0.169449 0.160773 )  
( 0.411982 0.00211155 0.217591 )  
( 0.0294841 -0.000555529 0.0239999 )  
( 0.463198 -0.000743061 -0.0758664 )  
( 0.46355 -0.00153572 -0.0425168 )  
( 0.00911343 0.000110397 -8.31246e-09 )  
( 0.470007 -0.000328567 -0.12128 )  
( 0.467746 0.00241911 0.000350562 )  
( 0.465808 0.000222464 0.134204 )  
( 0.179853 0.000695037 0.322167 )  
( -0.148043 0.0242821 2.80776e-08 )  
( 0.460901 0.00209557 0.154118 )  
( 0.450988 0.00166613 -0.0619624 )  
( 0.0266256 -4.01404e-05 -0.00157384 )  
( 0.0288084 0.00033046 0.0222128 )  
( 0.468971 0.00238367 0.11252 )  
( -0.11343 -0.0812747 -0.0197644 )  
( 0.246769 0.00103305 -0.0127315 )  
( 0.468769 0.00289105 -0.159536 )  
( 0.0265464 0.000381041 0.0133494 )  
( 0.231744 0.000637834 0.301268 )  
( 0.12989 0.000435683 0.342711 )  
( 0.412131 0.000206996 0.22734 )  
( 0.161461 0.000662259 0.153022 )  
( 0.019627 -0.000166988 -0.0355597 )  
( 0.463896 0.00101191 -0.115009 )  
( 0.0259249 0.000225291 0.0805638 )  
( 0.466408 0.00301031 0.0704251 )  
( 0.468443 -0.00339717 -0.123589 )  
( 0.152426 0.000551521 0.0324842 )  
( 0.468188 0.00376325 -0.00647076 )  
( 0.375451 -0.00416191 0.280083 )  
( 0.373624 -0.00286592 0.178515 )  
( 0.0194893 -0.000133523 -0.0583468 )  
( 0.0278733 8.72866e-05 0.0377106 )  
( 0.0178137 8.55314e-05 0.0793382 )  
( 0.125648 -3.83667e-05 0.336365 )  
( 0.00900236 -9.34418e-05 1.27522e-08 )  
( 0.0089892 7.33206e-05 -5.54512e-08 )  
( 0.470266 0.00184188 -0.104862 )  
( 0.2711 0.00118889 0.307311 )  
( 0.443458 -3.3336e-05 0.2123 )  
( 0.0289819 -4.913e-05 0.0331523 )  
( 0.468883 0.000949252 -0.0769886 )  
( 0.427881 0.00161256 0.209176 )  
( 0.0277178 -0.000107796 0.0445964 )  
( 0.026622 0.000140277 0.0102991 )  
( 0.039228 -0.0223278 -0.0216972 )  
( 0.314645 -0.000348153 0.248614 )  
( 0.00880185 1.81056e-05 -1.41811e-08 )  
( 0.0126328 -3.07191e-05 0.0169125 )  
( 0.465041 -0.00314373 -0.0210915 )  
( 0.467061 0.000655538 -0.106214 )  
( 0.00927957 -2.92346e-05 -0.000436125 )  
( 0.0210586 -6.64892e-05 -0.0673495 )  
( 0.469119 -0.00267943 -0.111519 )  
( 0.467021 -0.000677391 0.0952333 )  
( 0.462378 -0.000456211 0.179135 )  
( 0.440907 0.000252956 -0.0927109 )  
( 0.465868 -0.00177811 0.121451 )  
( 0.465325 0.000447563 -0.0926433 )  
( 0.465278 0.00324425 -0.117114 )  
( 0.0232471 6.24696e-05 0.0880087 )  
( 0.0225599 0.000146191 0.0962155 )  
( 0.0125973 -5.35295e-06 0.0140801 )  
( 0.0184903 -0.000139725 -0.0446709 )  
( 0.0284643 -0.000190649 0.0157087 )  
( 0.469692 0.000597344 0.0264715 )  
( 0.0244985 -0.000121144 -0.0131473 )  
( 0.0127302 -0.00015668 0.0129494 )  
( 0.0849724 0.000473145 0.341565 )  
( 0.469539 -0.00248911 0.0470552 )  
( 0.550495 -0.0696112 0.218548 )  
( 0.358657 0.000988105 0.215182 )  
( 0.0182257 9.37344e-05 -0.0477179 )  
( 0.464863 0.000186454 0.0777624 )  
( 0.00882976 -0.00019772 -1.85989e-08 )  
( 0.00849479 -2.65725e-05 -1.70975e-08 )  
( 0.00886831 0.000121907 -6.05656e-08 )  
( 0.467296 -0.00119263 -0.0911339 )  
( 0.45867 0.00151326 0.129643 )  
( 0.0185267 -3.1532e-05 -0.0485142 )  
( 0.0267906 0.000125305 0.0722762 )  
( 0.00873948 -2.16535e-05 -3.24448e-08 )  
( 0.462863 -0.00247919 0.122408 )  
( 0.499765 0.168494 0.0613928 )  
( 0.462238 -0.00120646 0.0578888 )  
( 0.47057 0.000320264 -0.0518223 )  
( 0.132905 0.000597577 -0.0345812 )  
( 0.259528 0.000598551 0.248339 )  
( 0.029499 0.000115183 -0.0884776 )  
( 0.127004 -0.000579766 0.357472 )  
( 0.0089937 3.98546e-05 2.48095e-08 )  
( -0.191365 0.00970045 0.013388 )  
( 0.379794 -1.53884e-05 0.190769 )  
( 0.196432 0.0209771 9.80539e-09 )  
( 0.00974701 -2.66549e-05 0.00280781 )  
( 0.0150148 -1.81111e-05 -0.0235792 )  
( 0.468376 -0.00320345 -0.0471485 )  
( 0.392746 0.000874884 -0.11779 )  
( 0.0369977 -0.000155207 -0.093695 )  
( 0.207837 0.000777393 0.160448 )  
( 0.240608 0.000853586 0.27679 )  
( 0.396877 0.000574548 0.133426 )  
( 0.00902592 -1.20324e-05 -2.58818e-10 )  
( 0.0596489 0.000329561 0.0467669 )  
( 0.59758 0.21757 0.122511 )  
( 0.277705 -0.00156644 0.297389 )  
( 0.00883366 -8.77294e-05 1.27081e-08 )  
( 0.305552 0.000913392 0.277011 )  
( 0.404055 0.00287122 0.0286062 )  
( 0.0126166 -0.000201927 0.0160209 )  
( 0.414885 -0.000200582 0.186823 )  
( 0.349138 0.00032352 0.250905 )  
( 0.470433 0.000925307 0.0398371 )  
( 0.0144358 0.000203884 -0.018722 )  
( 0.00865347 9.89407e-05 -4.49499e-08 )  
( 0.456855 -0.000430498 -0.0964204 )  
( 0.0123691 0.000132911 0.0156655 )  
( 0.0132357 -2.19959e-05 -0.00263745 )  
( 0.0285698 3.63666e-05 0.0566249 )  
( 0.0250536 7.13826e-05 0.0757868 )  
( 0.0221729 -0.00013136 0.0938335 )  
( 0.120605 -0.000230153 0.361759 )  
( 0.0136937 0.000242797 0.0770223 )  
( 0.470779 0.00100196 -0.0274657 )  
( 0.0836063 -4.35934e-06 0.349601 )  
( 0.0086339 -0.000112171 9.41334e-10 )  
( 0.467758 0.00217298 0.043586 )  
( 0.00869464 0.000172118 -5.91081e-08 )  
( 0.0169791 0.00179964 0.000301798 )  
( 0.469163 0.00386548 -0.0441457 )  
( -0.111147 -0.0614207 -0.0614662 )  
( 0.396212 -0.0017368 0.0746079 )  
( 0.464074 -0.00205265 0.0966831 )  
( 0.470073 -0.000357683 -0.0298623 )  
( 0.00900831 -0.000113813 4.02414e-08 )  
( 0.208846 0.00048356 0.329464 )  
( 0.022056 -0.000118739 -0.0666747 )  
( 0.00873675 5.91578e-05 -2.55159e-08 )  
( 0.463295 -0.000723525 -0.0131483 )  
( 0.0201902 4.59393e-05 -0.0366716 )  
( 0.0241774 0.000258712 0.0895047 )  
( 0.00889023 -0.000157803 -5.87756e-08 )  
( 0.0173236 -0.00676772 -0.0932994 )  
( 0.00919539 1.09514e-05 -2.38528e-06 )  
( 0.206833 0.000300614 0.312508 )  
( 0.0522778 2.18275e-05 0.366014 )  
( -0.108509 -0.0806404 0.199882 )  
( 0.0268781 0.000426245 0.0108007 )  
( 0.180061 -0.0004203 0.317155 )  
( 0.0238938 -0.000309286 -0.010659 )  
( 0.442848 0.000859537 0.120117 )  
( 0.0087722 6.67837e-05 -6.92529e-08 )  
( 0.46321 -0.000180139 0.0265121 )  
( 0.471287 0.000855615 -0.0885533 )  
( 0.381393 0.00114861 0.204342 )  
( 0.0275287 0.000364485 0.0291932 )  
( 0.00886875 -1.69498e-05 9.90739e-09 )  
( 0.470482 -0.00125377 -0.0803815 )  
( 0.0282885 2.30561e-05 0.0715694 )  
( 0.46694 0.00102556 0.0713487 )  
( 0.467033 -0.00471814 -0.0232641 )  
( 0.0254339 -4.25106e-05 0.00745567 )  
( 0.275492 0.0003829 0.283434 )  
( 0.470286 0.000188123 -0.118988 )  
( 0.098308 -0.000131 0.368089 )  
( 0.00903127 -0.000122104 -2.84439e-07 )  
( 0.139996 0.000296501 0.318116 )  
( 0.272838 0.143505 2.59252e-08 )  
( 0.00875707 -0.00013677 1.81492e-08 )  
( 0.463754 0.00141737 0.024048 )  
( 0.468281 0.00214041 -0.115076 )  
( 0.00885973 -4.17196e-06 -1.37979e-08 )  
( 0.0222259 4.42212e-05 -0.0709674 )  
( 0.0092525 0.000143967 1.05139e-07 )  
( 0.0130641 3.60181e-05 0.00642979 )  
( 0.00837959 2.22216e-05 3.62637e-08 )  
( 0.00906341 -0.000162858 9.9302e-06 )  
( -0.00749132 -0.0833284 0.0822244 )  
( 0.00873226 7.32043e-05 4.16543e-09 )  
( 0.00854358 5.6195e-05 -4.14981e-09 )  
( 0.00891623 -9.63401e-05 1.27382e-08 )  
( 0.467358 0.000534238 0.102537 )  
( 0.00862741 0.000113404 -2.0434e-08 )  
( 0.0191724 8.71898e-05 -0.0585799 )  
( 0.187122 0.000484795 0.323261 )  
( 0.467952 -0.000805949 0.0737429 )  
( 0.468127 -0.000275729 -0.120357 )  
( 0.466357 -0.00380629 -0.0745501 )  
( 0.470012 -0.00101474 -0.0171244 )  
( 0.463558 -0.00230913 -0.0442599 )  
( 0.450917 -0.00072182 0.205834 )  
( 0.00881237 -7.53472e-05 -3.30762e-08 )  
( 0.45702 0.00261716 0.19529 )  
( 0.32824 -0.00234379 0.270782 )  
( 0.021674 0.000142621 -0.0269317 )  
( 0.334634 0.00169463 -0.0527781 )  
( 0.0236772 -5.39811e-05 -0.122071 )  
( 0.459702 1.01033e-05 0.234174 )  
( 0.0484334 0.000259987 0.146009 )  
( 0.00883245 -0.000147488 8.21221e-08 )  
( 0.461976 -0.000573325 -0.0264747 )  
( 0.274673 -0.00020754 0.30876 )  
( 0.422448 -0.00074759 0.199872 )  
( 0.35669 -0.000894497 0.130402 )  
( 0.426595 -0.00112102 0.163483 )  
( 0.468491 0.000965337 0.0182443 )  
( 0.0230811 0.000174787 0.0964165 )  
( 0.0241124 -0.000151444 0.0780211 )  
( 0.117846 -6.01273e-06 -0.0900984 )  
( 0.444268 0.00358785 0.257234 )  
( 0.470724 -0.00096578 -0.0920075 )  
( 0.353504 0.000176017 0.186642 )  
( 0.468648 -0.000805107 -0.109148 )  
( 0.148122 -0.000340101 0.32998 )  
( 0.475228 0.00254993 -0.0147402 )  
( 0.337873 -0.00107681 0.266302 )  
( 0.012718 0.000134558 0.00539602 )  
( 0.0128344 -7.21969e-05 0.01156 )  
( 0.244835 0.00241184 0.296463 )  
( 0.467543 -0.00174206 0.119155 )  
( 0.330603 0.000530779 0.221015 )  
( 0.469835 0.000464563 0.000716413 )  
( 0.00882723 0.000161106 2.28601e-08 )  
( 0.463136 0.00117553 0.159026 )  
( 0.467574 0.000215372 0.134223 )  
( 0.0829509 0.000421935 0.376316 )  
( 0.421151 -0.00139838 0.0225503 )  
( 0.477378 0.00296544 -0.0424044 )  
( 0.468881 0.00228411 0.12534 )  
( -0.00743319 -0.251224 4.5882e-08 )  
( 0.149067 -0.00025303 -0.133519 )  
( 0.26651 0.000878693 0.241152 )  
( -0.124738 0.0288384 -0.0219342 )  
( 0.0235885 2.17805e-05 0.0858071 )  
( 0.0200316 2.24024e-05 -0.0609509 )  
( 0.117726 -0.00113308 0.34038 )  
( 0.469042 -0.00143289 0.140671 )  
( 0.147815 5.76829e-05 0.34915 )  
( 0.464989 -0.000524859 -0.041736 )  
( 0.2112 0.330553 -0.00643832 )  
( 0.0221345 9.90097e-06 -0.0704555 )  
( 0.320412 0.000406442 0.17825 )  
( 0.462016 -0.00266933 0.242699 )  
( 0.47066 0.00178291 -0.0166285 )  
( 0.306229 1.44737e-05 -0.107814 )  
( 0.469508 0.000176144 0.0570808 )  
( 0.194158 -0.000592265 0.166576 )  
( 0.462826 0.0041863 0.188772 )  
( 0.473805 -0.00100487 -0.0784453 )  
( 0.470406 -0.00166455 -0.0650357 )  
( 0.0185986 8.53011e-06 -0.0385298 )  
( 0.470296 -0.0011667 -0.0728547 )  
( 0.317965 0.000997804 0.0526379 )  
( 0.0364807 8.97887e-05 0.00840107 )  
( 0.026854 0.000211624 0.0582367 )  
( 0.470538 -0.00138098 -0.0676175 )  
( 0.00871292 0.000242801 2.6131e-09 )  
( 0.0297267 0.000356499 0.0397633 )  
( 0.248858 0.00156778 0.271538 )  
( 0.466056 0.000961016 -0.00225651 )  
( 0.00900242 -7.74461e-05 1.60882e-08 )  
( 0.00878069 -0.000213941 -2.53945e-09 )  
( 0.0276977 -8.71343e-05 0.0651744 )  
( 0.00886355 7.82616e-05 -1.05571e-08 )  
( 0.214774 0.000752391 -0.0636842 )  
( 0.0087513 7.8048e-05 1.19951e-09 )  
( 0.472167 0.00191983 -0.0737171 )  
( 0.0125936 -9.587e-05 0.0173198 )  
( 0.460333 -0.000587411 0.196956 )  
( 0.470566 -0.002957 0.0242497 )  
( 0.351649 0.00158272 0.221049 )  
( 0.446468 -9.30112e-05 0.116589 )  
( 0.154775 0.00130727 0.295562 )  
( 0.359802 -0.400986 0.173511 )  
( 0.412911 0.000604897 0.171524 )  
( 0.00899033 -5.24979e-05 -3.19166e-09 )  
( 0.0186491 5.67202e-05 -0.0547346 )  
( 0.0220619 0.000138067 -0.020329 )  
( 0.0477474 0.12873 0.0504282 )  
( 0.201688 0.000172305 0.310257 )  
( 0.436694 -0.000621301 0.103699 )  
( 0.0767138 0.305247 2.44361e-08 )  
( 0.0196044 -0.000126389 -0.0605425 )  
( 0.185413 0.00042173 0.277863 )  
( 0.470315 0.00328777 -0.0217133 )  
( 0.0152875 -8.39198e-05 -0.0263217 )  
( 0.0247176 -0.000274145 0.0833568 )  
( 0.0289296 -0.000412781 0.0259262 )  
( 0.197277 -0.000543088 0.111968 )  
( 0.0991504 0.000227424 0.347133 )  
( 0.473926 -0.000166715 -0.10828 )  
( 0.298614 -0.00163092 0.276852 )  
( 0.471102 0.00019553 -0.0851331 )  
( 0.110107 0.000507228 0.344874 )  
( 0.0125088 -0.000116213 0.0189652 )  
( 0.460287 -0.00170139 0.210015 )  
( 0.471735 -0.00178304 -0.106597 )  
( -0.0153822 -0.0540518 -0.015049 )  
( 0.00859148 5.06022e-05 -1.36107e-08 )  
( 0.471141 -0.00116795 -0.00144334 )  
( 0.471645 -0.00071993 -0.0895302 )  
( 0.468243 -0.00229201 -0.0939887 )  
( 0.404295 -0.00174032 -0.0719575 )  
( 0.0475728 -0.000117485 -0.102532 )  
( 0.00908491 6.01278e-05 3.73652e-08 )  
( 0.380611 -0.000321312 0.185104 )  
( 0.443937 0.000749849 0.23051 )  
( 0.472732 -0.000436435 -0.0280983 )  
( 0.347315 -0.000559623 0.194286 )  
( 0.030226 -2.6834e-05 0.0339407 )  
( 0.0705023 -0.00053396 0.353515 )  
( 0.468501 -0.000527438 0.200699 )  
( 0.475354 0.00361183 -0.0902685 )  
( 0.00903059 -6.43153e-06 4.17123e-08 )  
( 0.465885 -0.000689809 0.122416 )  
( 0.469117 -0.00463078 0.0902961 )  
( 0.250282 0.00229657 0.264671 )  
( 0.473064 0.00138952 0.11012 )  
( 0.47414 -0.00177915 -0.0764813 )  
( 0.256531 0.00028368 -0.00239596 )  
( 0.175138 0.000579706 0.282629 )  
( 0.470133 -0.001663 -0.0199914 )  
( 0.0243839 -0.0668869 -0.00251781 )  
( 0.470806 0.00191067 -0.0946838 )  
( 0.00898193 0.000216533 3.83927e-08 )  
( 0.0718907 -0.0589644 0.0130789 )  
( 0.01882 -7.56686e-05 -0.0544242 )  
( -0.078997 -0.0833939 -0.0252277 )  
( 0.0088432 0.000211854 3.60504e-08 )  
( 0.00872872 6.63768e-05 -1.20168e-07 )  
( 0.469747 -0.00117036 0.0731165 )  
( 0.461467 0.00138958 -0.0725528 )  
( 0.473646 -0.00214134 0.042967 )  
( -0.0393987 0.10957 -2.84405e-08 )  
( 0.00865155 7.90857e-05 -1.25245e-08 )  
( 0.0261888 -9.32199e-05 0.00268326 )  
( 0.411216 -0.000199614 0.169454 )  
( 0.0297645 0.000170551 0.0366407 )  
( 0.465259 -0.000319652 -0.0347803 )  
( 0.0266078 0.000337662 -0.0015308 )  
( 0.472444 -0.00149145 0.0235797 )  
( 0.474582 -0.000755641 -0.0930771 )  
( 0.465078 0.00130432 0.110409 )  
( 0.0125302 1.49018e-05 -0.00288332 )  
( 0.0282966 0.000498407 0.017057 )  
( 0.0212097 -5.59901e-05 -0.0306967 )  
( 0.120882 0.000102192 0.358325 )  
( -0.0849288 -0.16173 0.00811378 )  
( 0.0292973 -0.000211301 -0.0839906 )  
( 0.012801 -5.04414e-05 0.00844692 )  
( 0.470137 0.00011653 0.0148686 )  
( -0.0454509 -0.23918 8.95269e-08 )  
( 0.000235464 -0.00707342 -1.2539e-08 )  
( 0.0127015 -3.60195e-05 0.010792 )  
( 0.00929978 7.78115e-05 0.000619246 )  
( 0.471657 -0.00125818 -0.081881 )  
( 0.00887296 -8.39156e-05 -2.0136e-09 )  
( 0.00887428 -4.20099e-05 4.55224e-08 )  
( 0.472151 -0.00241852 -0.00422827 )  
( 0.00873629 -1.41244e-05 -2.9737e-07 )  
( 0.0126943 5.29617e-06 0.0198702 )  
( 0.305379 0.000712929 0.044054 )  
( 0.00909719 -3.43157e-05 2.09132e-08 )  
( 0.125913 -4.92927e-05 0.336754 )  
( 0.474804 -0.00254309 -0.12303 )  
( 0.4636 0.000541888 0.0482847 )  
( 0.479196 0.00363043 0.092609 )  
( 0.0122234 0.000102793 0.025997 )  
( 0.064725 0.0464934 0.00284564 )  
( 0.469916 -0.000163098 0.00411797 )  
( 0.0089828 -3.93967e-05 1.20819e-08 )  
( 0.0286222 -0.000167456 0.0216633 )  
( 0.45482 0.00106139 0.135395 )  
( 0.292633 -0.000715708 0.239048 )  
( 0.476827 -0.00343012 0.137829 )  
( 0.0241529 -2.4478e-05 0.0749701 )  
( 0.0544041 0.000255025 0.37877 )  
( 0.00900009 2.97866e-05 1.10435e-08 )  
( 0.222876 -0.00171268 0.262342 )  
( 0.473387 0.00118617 -0.0641553 )  
( 0.311609 -0.38026 0.127085 )  
( 0.258604 -0.000677442 0.271583 )  
( 0.38589 0.000155655 0.27132 )  
( 0.147036 0.000332646 -0.00442481 )  
( 0.172205 0.000350933 0.0935916 )  
( 0.00894779 -0.000106669 1.59102e-08 )  
( 0.358392 -0.00155507 0.272536 )  
( 0.467109 0.000356324 0.112992 )  
( 0.451733 -0.00122913 0.183118 )  
( 0.092484 8.53554e-05 0.362085 )  
( 0.315423 0.00211811 0.0233126 )  
( 0.00896323 -6.63851e-05 1.20132e-08 )  
( 0.0205895 0.000301148 -0.029742 )  
( 0.473657 0.00135324 0.0770845 )  
( 0.0293646 0.00023431 0.0400819 )  
( 0.476252 0.00185031 0.0295722 )  
( 0.0085998 2.12717e-05 -1.24458e-07 )  
( 0.00886943 -3.58063e-05 1.51636e-08 )  
( 0.0176333 0.135636 -1.14348e-08 )  
( 0.466918 0.00297739 0.140582 )  
( 0.473454 -0.00199749 -0.0305654 )  
( 0.2881 0.000205938 0.238332 )  
( 0.126108 0.000166753 0.168364 )  
( 0.395594 0.00202521 0.253711 )  
( 0.469186 -0.000321452 0.0561175 )  
( 0.304684 -0.000726545 -0.0651545 )  
( 0.465443 -0.00141622 0.052254 )  
( 0.00894612 -4.87822e-05 -9.14053e-09 )  
( 0.190371 0.000255632 0.248374 )  
( 0.0089149 -1.81511e-05 3.25431e-08 )  
( -0.258485 0.15181 -0.0847074 )  
( 0.472152 3.89234e-05 -0.0412384 )  
( -0.016303 0.153213 -1.78941e-09 )  
( 0.00907311 0.000105659 4.86892e-08 )  
( 0.0244386 3.91615e-05 0.0778366 )  
( 0.0110439 0.0920913 0.00778582 )  
( 0.471495 -0.00352937 -0.0630326 )  
( 0.467513 0.000174402 -0.0668658 )  
( 0.476574 -0.00182729 -0.0149856 )  
( 0.0148328 2.87995e-05 -0.0259349 )  
( 0.470155 -0.000543966 0.0395321 )  
( 0.468892 -9.21496e-05 0.146514 )  
( 0.02788 -0.000298812 0.00945767 )  
( 0.117953 6.46427e-05 -0.0762916 )  
( -0.169132 -0.235008 -5.55909e-05 )  
( 0.00871935 0.00019074 -3.36176e-10 )  
( 0.467476 -0.00170409 -0.0848162 )  
( 0.0187808 2.12541e-05 -0.0527805 )  
( 0.469894 -0.00491247 -0.0453273 )  
( 0.0587604 -0.000496499 0.149361 )  
( 0.0196604 -8.05752e-07 -0.039244 )  
( 0.463707 0.00208886 -0.0567011 )  
( 0.00897583 6.1914e-05 -1.09166e-08 )  
( 0.0102956 0.00122033 -0.00918773 )  
( 0.362049 0.000531927 0.223202 )  
( 0.00893995 0.000168926 4.98803e-08 )  
( 0.471226 0.00301254 -0.102494 )  
( 0.0252635 0.000147829 -0.0785942 )  
( 0.260907 -3.93444e-05 0.305433 )  
( 0.159285 0.000467035 0.155329 )  
( 0.027591 -4.32327e-05 0.0119611 )  
( 0.385476 0.000936329 0.182458 )  
( 0.357857 0.00303164 0.286515 )  
( 0.00913114 4.40169e-05 6.05998e-08 )  
( 0.21641 -5.21121e-05 0.311054 )  
( 0.470191 -2.42603e-05 0.0359372 )  
( 0.464129 0.00138553 0.0750825 )  
( 0.46846 -0.00295076 0.0612375 )  
( 0.248602 -0.00214156 0.304173 )  
( 0.0225024 1.52556e-05 -0.0702018 )  
( 0.040204 -0.0264465 0.0319122 )  
( 0.476871 -0.0631317 0.192748 )  
( 0.00901959 -9.88182e-06 -6.22244e-08 )  
( 0.349093 0.00110508 0.262432 )  
( 0.163158 0.000539921 0.30188 )  
( 0.124219 -0.000790382 0.340379 )  
( 0.477075 -0.00041429 0.0118308 )  
( 0.00942126 -9.45369e-05 5.33163e-09 )  
( 0.439042 6.09486e-05 -0.114937 )  
( 0.463908 -0.00143875 0.0136164 )  
( 0.0240643 -0.000217593 -0.0136142 )  
( 0.0150284 -2.74194e-05 -0.0253394 )  
( 0.0324914 -0.0016383 1.77194e-08 )  
( 0.467783 0.000890424 0.0941387 )  
( 0.290322 9.56335e-05 0.230409 )  
( 0.083734 -0.0861022 -0.0622484 )  
( 0.0369044 -0.000212497 -0.09486 )  
( 0.476014 -0.000949817 -0.114511 )  
( 0.552725 -0.0893009 0.0948773 )  
( 0.170349 0.00109676 0.311033 )  
( 0.0301241 5.97964e-05 0.0299616 )  
( 0.469343 0.00091721 -0.0467885 )  
( 0.0448597 -9.4996e-05 0.11347 )  
( 0.183729 -0.000942648 0.0845991 )  
( 0.474713 0.00237476 0.145387 )  
( 0.00909057 9.05635e-05 -5.66044e-08 )  
( 0.466253 0.00121338 0.169395 )  
( 0.238207 9.6744e-05 0.257005 )  
( 0.134755 0.000153205 0.295813 )  
( 0.479741 0.00115476 0.18137 )  
( 0.0242129 0.000159658 0.0817621 )  
( 0.0141518 -5.82136e-05 -0.0144203 )  
( 0.477805 0.00101302 0.0476908 )  
( 0.273114 0.000755817 0.287278 )  
( 0.320692 0.000743556 0.225532 )  
( 0.00903948 -2.92648e-05 1.91877e-08 )  
( 0.346453 -0.000987007 0.288071 )  
( 0.0195575 0.000405048 -0.0617408 )  
( 0.469542 0.00164282 0.112005 )  
( -0.127889 0.00920656 -0.0509642 )  
( 0.445332 -0.00118187 0.239314 )  
( 0.472334 0.00178282 -0.0367243 )  
( 0.474092 0.00210066 -0.0272293 )  
( 0.0112475 9.50814e-05 -0.0136043 )  
( 0.451971 0.00159411 0.220694 )  
( 0.470142 0.00281129 -0.0177812 )  