FoamFile
{version 2.0; format ascii;class Cloud<passiveParticle>; location 0;object  positions;}
2496
(
( -0.00235475 0.000120245 0.00185778 ) 0 
( -0.012349 0.000639492 0.0032013 ) 0 
( -0.0123517 0.000398352 0.00223203 ) 0 
( -0.00875088 0.000190637 0.00561573 ) 0 
( -0.00849249 8.73203e-05 0.00370363 ) 0 
( -0.00220497 0.000639969 0.0075988 ) 0 
( -0.00319687 0.000165301 0.0013237 ) 0 
( -0.0119603 0.000114752 0.00135857 ) 0 
( -0.00428109 0.000115069 0.00596778 ) 0 
( -0.000295435 9.77473e-05 0.00286005 ) 0 
( -0.0110719 8.94685e-05 0.00643163 ) 0 
( -0.0133446 0.000415697 0.00212638 ) 0 
( -0.00587534 0.000178979 0.00338321 ) 0 
( -0.00375578 0.00012083 0.000497115 ) 0 
( -0.00832056 0.000274903 0.00271601 ) 0 
( -0.00524828 0.000405258 0.00809102 ) 0 
( -0.00938533 3.01046e-05 0.0129678 ) 0 
( -0.00485542 9.61374e-06 0.0128584 ) 0 
( -0.0110683 0.00151956 0.0141895 ) 0 
( -0.0112565 0.00323644 0.0149846 ) 0 
( -0.00774875 0.000631465 0.0141993 ) 0 
( -0.00670743 0.000207551 0.014475 ) 0 
( -0.000892488 0.000117297 0.01064 ) 0 
( -0.00691005 3.88768e-05 0.0130703 ) 0 
( -0.0127331 0.000250048 0.0120439 ) 0 
( -0.0108616 0.000569121 0.013958 ) 0 
( -0.00826807 0.000492776 0.0128766 ) 0 
( -0.00593827 0.000268933 0.013113 ) 0 
( -0.00234159 6.89653e-05 0.0115376 ) 0 
( -0.00283326 3.42443e-06 0.00897533 ) 0 
( -0.00911752 0.000990848 0.00161932 ) 0 
( -0.00114291 0.00974958 0.0012378 ) 0 
( -0.00617285 0.00411213 0.00401273 ) 0 
( -0.00541029 0.00376416 0.00696831 ) 0 
( -0.00202308 0.00568687 0.00324285 ) 0 
( -0.000617638 0.0116328 0.00749419 ) 0 
( -0.00112925 0.0120387 0.00154694 ) 0 
( -0.0125107 0.0018798 0.00143925 ) 0 
( -0.0065057 0.00614324 0.0047456 ) 0 
( -0.00263897 0.010944 0.00731934 ) 0 
( -0.0120693 0.00259553 0.000498514 ) 0 
( -0.00344542 0.00875879 0.00453311 ) 0 
( -0.00999412 0.00262284 0.000499898 ) 0 
( -0.00983487 0.0076513 0.000498459 ) 0 
( -0.0105164 0.00657964 0.00289762 ) 0 
( -0.00727916 0.00430316 0.00211099 ) 0 
( -0.00428592 0.00553521 0.00335346 ) 0 
( -0.00328474 0.00544106 0.00324239 ) 0 
( -0.0108912 0.00561971 0.00118885 ) 0 
( -0.0121475 0.000999589 0.00591488 ) 0 
( -0.00756353 0.00631467 0.00620292 ) 0 
( -0.00256824 0.00165557 0.00545419 ) 0 
( -0.00391049 0.00886171 0.00541063 ) 0 
( -0.00525374 0.0043954 0.00487188 ) 0 
( -0.00548651 0.00602956 0.00217182 ) 0 
( -0.00672819 0.00932801 0.000498981 ) 0 
( -0.000374447 0.00523569 0.0043663 ) 0 
( -0.0110979 0.00310827 0.000499782 ) 0 
( -0.0010839 0.0105214 0.00322063 ) 0 
( -0.00859143 0.00921801 0.00575857 ) 0 
( -0.000686404 0.00733805 0.00537408 ) 0 
( -0.0063501 0.000459808 0.00203366 ) 0 
( -0.00533429 0.0093438 0.00200524 ) 0 
( -0.0123122 0.00516209 0.0047444 ) 0 
( -0.00166793 0.00498939 0.00123869 ) 0 
( -0.000910059 0.00356415 0.0033593 ) 0 
( -0.0126569 0.00424811 0.000499047 ) 0 
( -0.000865996 0.00781023 0.00380321 ) 0 
( -0.00692654 0.00973883 0.00237806 ) 0 
( -0.00550912 0.00222941 0.00733664 ) 0 
( -0.00335413 0.00945207 0.00599869 ) 0 
( -0.00172187 0.00779386 0.0066522 ) 0 
( -0.0104537 0.00319298 0.00227948 ) 0 
( -0.00364982 0.00615786 0.00498216 ) 0 
( -0.00112685 0.00437598 0.00670406 ) 0 
( -0.00134591 0.00945583 0.00330558 ) 0 
( -0.0110807 0.0046621 0.00341435 ) 0 
( -0.00314391 0.00873118 0.000498899 ) 0 
( -0.000572765 0.0126889 0.00387475 ) 0 
( -0.0106326 0.00159476 0.00135169 ) 0 
( -0.0084427 0.00375125 0.00379725 ) 0 
( -0.00896555 0.0080344 0.00566317 ) 0 
( -0.00505049 0.00307786 0.000945981 ) 0 
( -0.00202174 0.00442112 0.000497478 ) 0 
( -0.00164917 0.010453 0.00404033 ) 0 
( -0.00296998 0.00234557 0.00485424 ) 0 
( -0.0094561 0.000329397 0.00426335 ) 0 
( -0.00376534 0.0103524 0.0058591 ) 0 
( -0.00324008 0.0120369 0.00681713 ) 0 
( -0.00698244 0.00325214 0.0049844 ) 0 
( -0.00800439 0.00457599 0.00344734 ) 0 
( -0.00327454 0.00555548 0.00568713 ) 0 
( -0.010041 0.0072397 0.0013832 ) 0 
( -0.00164876 0.00131873 0.00293919 ) 0 
( -0.00573978 0.00712072 0.00336731 ) 0 
( -0.00104781 0.00802748 0.00216965 ) 0 
( -0.00580557 0.00138588 0.00686916 ) 0 
( -0.00262218 0.00110229 0.00681907 ) 0 
( -0.000622571 0.00501626 0.00331847 ) 0 
( -0.00386207 0.00978803 0.00504158 ) 0 
( -0.00724653 0.0100239 0.00136548 ) 0 
( -0.0043101 0.010697 0.00215323 ) 0 
( -0.00533486 0.00835439 0.00495429 ) 0 
( -0.00596205 0.0104333 0.0064055 ) 0 
( -0.0119518 0.00483623 0.00387118 ) 0 
( -0.00498301 0.00285953 0.00191721 ) 0 
( -0.00185416 0.0108106 0.00635706 ) 0 
( -0.00214928 0.00446175 0.0045455 ) 0 
( -0.00557291 0.000593276 0.00141486 ) 0 
( -0.00220825 0.000786905 0.00579049 ) 0 
( -0.00967576 0.00396778 0.00498611 ) 0 
( -0.0104263 0.00308889 0.00128576 ) 0 
( -0.00147037 0.00676059 0.00682917 ) 0 
( -0.00267306 0.00565627 0.00248374 ) 0 
( -0.00797805 0.000522748 0.00714528 ) 0 
( -0.0121206 0.00245514 0.00322131 ) 0 
( -0.00287949 0.0112478 0.00413125 ) 0 
( -0.000592964 0.0105183 0.00654102 ) 0 
( -0.00271597 0.00283135 0.00242858 ) 0 
( -0.00194795 0.00979636 0.00190043 ) 0 
( -0.00441149 0.00579644 0.0067015 ) 0 
( -0.00597494 0.00529262 0.0014422 ) 0 
( -0.00689034 0.00288726 0.00373703 ) 0 
( -0.00681632 0.00128826 0.00723526 ) 0 
( -0.00448966 0.00350876 0.00249239 ) 0 
( -0.0109128 0.00414865 0.00637961 ) 0 
( -0.00890836 0.00586431 0.00392092 ) 0 
( -0.00413276 0.00237803 0.00283565 ) 0 
( -0.00300881 0.00258952 0.00586655 ) 0 
( -0.000133398 0.00308394 0.00196259 ) 0 
( -0.00326735 0.00899862 0.00269163 ) 0 
( -0.00667675 0.0115608 0.00533533 ) 0 
( -0.00238514 0.00716499 0.00462916 ) 0 
( -0.00775409 0.00259402 0.00332925 ) 0 
( -0.00337836 0.00323973 0.00467782 ) 0 
( -0.0114919 0.000814589 0.00515512 ) 0 
( -0.00991541 0.00742585 0.00235505 ) 0 
( -0.011198 0.00430314 0.00433798 ) 0 
( -0.000984379 0.00342013 0.00771905 ) 0 
( -0.00770496 0.00663067 0.00714079 ) 0 
( -0.00167948 0.000815259 0.000499165 ) 0 
( -0.0130421 0.00286033 0.00592841 ) 0 
( -0.00383702 0.00652646 0.0070684 ) 0 
( -0.000955501 0.00164916 0.0045995 ) 0 
( -7.03624e-05 0.00955003 0.00444744 ) 0 
( -0.002429 0.0089634 0.00403993 ) 0 
( -0.000145525 0.00389469 0.0025473 ) 0 
( -0.0120192 0.00581148 0.00544568 ) 0 
( -0.0079223 0.00753658 0.00677893 ) 0 
( -0.00476416 0.00409178 0.0076572 ) 0 
( -0.012169 0.0028985 0.00144443 ) 0 
( -0.00447958 0.00349452 0.00595486 ) 0 
( -0.00381143 0.00513521 0.00714945 ) 0 
( -0.0100375 0.00201069 0.00360622 ) 0 
( -0.0106398 0.00532715 0.00567908 ) 0 
( -0.00951367 0.000682078 0.00519599 ) 0 
( -0.00610147 0.00143336 0.00130962 ) 0 
( -0.00330594 0.000789373 0.00364626 ) 0 
( -0.00765122 0.000211676 0.00806574 ) 0 
( -0.0113132 0.00708858 0.0046296 ) 0 
( -0.00338511 0.0108188 0.00338549 ) 0 
( -0.00454846 0.000519989 0.00480425 ) 0 
( -0.00509682 0.00262354 0.00309243 ) 0 
( -0.00882027 0.0062598 0.00300179 ) 0 
( -0.00445074 0.00789009 0.00692576 ) 0 
( -0.00582758 0.000669483 0.00595574 ) 0 
( -0.00554749 0.0079474 0.00207282 ) 0 
( -0.00306366 0.00694353 0.00532946 ) 0 
( -0.00282976 0.00762757 0.00601951 ) 0 
( -0.00125524 0.000377979 0.00743826 ) 0 
( -0.012803 0.000720653 0.00134247 ) 0 
( -0.00971888 0.00630643 0.00343591 ) 0 
( -0.0119118 0.00108131 0.00160609 ) 0 
( -0.00282177 0.0108033 0.000499724 ) 0 
( -0.00439331 0.00835327 0.00461848 ) 0 
( -0.00830898 0.0045078 0.00249962 ) 0 
( -0.00171378 0.00293923 0.00346798 ) 0 
( -0.00343888 0.0129024 0.00190808 ) 0 
( -0.00368821 0.00842286 0.00728948 ) 0 
( -0.00335383 0.00953343 0.00126209 ) 0 
( -0.00511782 0.0114075 0.00126814 ) 0 
( -0.0113551 0.00126205 0.000499629 ) 0 
( -0.00326114 0.00203107 0.00214444 ) 0 
( -0.00534468 0.010282 0.00563549 ) 0 
( -0.00230828 0.00649026 0.00127888 ) 0 
( -0.00305567 0.000276804 0.00564728 ) 0 
( -0.00965536 0.00819677 0.00293327 ) 0 
( -0.0130504 0.00275926 0.00692164 ) 0 
( -0.00520214 0.00696752 0.00248402 ) 0 
( -0.00792594 0.00544503 0.00130726 ) 0 
( -0.00655329 0.00779815 0.00591953 ) 0 
( -0.00458884 0.00767645 0.00213624 ) 0 
( -0.00596704 0.0119427 0.0031825 ) 0 
( -0.00307868 0.0115478 0.00506181 ) 0 
( -0.00873871 0.00866425 0.00134294 ) 0 
( -0.0104438 0.000770735 0.00483932 ) 0 
( -0.00318696 0.0057952 0.00673445 ) 0 
( -0.0029274 0.00939964 0.00509662 ) 0 
( -0.0108964 0.00113801 0.00346479 ) 0 
( -0.00368348 0.00580361 0.000895512 ) 0 
( -0.00966847 0.00566256 0.000537989 ) 0 
( -0.00219104 0.0122784 0.00249678 ) 0 
( -0.00495928 0.0100693 0.00257832 ) 0 
( -0.00691811 0.00509641 0.00504936 ) 0 
( -0.00602869 0.000901335 0.0077129 ) 0 
( -0.00703008 0.00699086 0.00442005 ) 0 
( -0.00556049 0.00163122 0.000496743 ) 0 
( -0.00382377 0.0107477 0.00049978 ) 0 
( -0.00331382 0.00117393 0.0049578 ) 0 
( -0.00189274 0.0082162 0.00364639 ) 0 
( -8.37566e-05 0.0057474 0.002867 ) 0 
( -0.0115491 0.0019525 0.00119773 ) 0 
( -0.00486268 0.0016401 0.00545364 ) 0 
( -0.00440615 0.00348181 0.00695068 ) 0 
( -0.00248988 0.00428921 0.00546887 ) 0 
( -0.00977924 0.00247937 0.00444761 ) 0 
( -0.0096893 0.00376223 0.00130806 ) 0 
( -0.00152203 0.0106412 0.00157731 ) 0 
( -0.00139281 0.00902812 0.00614535 ) 0 
( -0.00230256 0.0107139 0.00474902 ) 0 
( -0.00213064 0.00467352 0.00649064 ) 0 
( -0.00383383 0.00417315 0.00203415 ) 0 
( -0.00409752 0.00100538 0.00555309 ) 0 
( -0.000332979 0.00680024 0.00330968 ) 0 
( -0.00746975 0.00456901 0.00116624 ) 0 
( -0.00780644 0.0108301 0.00208156 ) 0 
( -0.00846742 0.00249949 0.006801 ) 0 
( -0.00718389 0.00208435 0.00630238 ) 0 
( -0.00624024 0.00221302 0.00413978 ) 0 
( -0.00427748 0.00861749 0.00202268 ) 0 
( -0.00813602 0.00363615 0.00204437 ) 0 
( -0.0109053 0.00770462 0.00618236 ) 0 
( -0.00914544 0.00133483 0.000499549 ) 0 
( -0.00562428 0.00376339 0.000498103 ) 0 
( -0.00773 0.00598866 0.000495749 ) 0 
( -0.00403468 0.0123234 0.00135581 ) 0 
( -0.00307416 0.00470094 0.00616599 ) 0 
( -0.00502865 0.000191412 0.000499779 ) 0 
( -0.012077 0.00229778 0.00223656 ) 0 
( -0.00488498 0.0111808 0.00392257 ) 0 
( -0.00328353 0.000397884 0.00707184 ) 0 
( -0.0112677 0.00195604 0.00716397 ) 0 
( -0.00204356 0.0038783 0.00782726 ) 0 
( -0.0042912 0.00338935 0.00346375 ) 0 
( -0.00269895 0.0114412 0.0027112 ) 0 
( -0.00138888 0.013279 0.00182286 ) 0 
( -0.0121409 0.00402309 0.00180813 ) 0 
( -4.91543e-06 0.00299259 0.000500561 ) 0 
( -0.00859323 0.00494734 0.00416492 ) 0 
( -0.000879492 0.00833229 0.00664638 ) 0 
( -0.00293041 0.00679473 0.00674696 ) 0 
( -0.00680922 0.00902185 0.00306392 ) 0 
( -0.00596402 0.00770052 0.00118603 ) 0 
( -2.8424e-05 0.0105263 0.00569584 ) 0 
( -0.00972176 0.00845711 0.00134189 ) 0 
( -0.00978218 0.00160872 0.0049372 ) 0 
( -0.0114862 0.0046293 0.00135911 ) 0 
( -0.00228894 0.00196084 0.0072047 ) 0 
( -6.55549e-06 0.00820686 0.0041241 ) 0 
( -0.00169237 0.00641981 0.000496914 ) 0 
( -0.00754768 0.00697607 0.00049976 ) 0 
( -0.00309457 0.00958685 0.00701756 ) 0 
( -0.00210507 0.0122454 0.00148742 ) 0 
( -0.00204643 0.0131933 0.00469587 ) 0 
( -0.005619 0.0121106 0.00538011 ) 0 
( -0.00736129 0.00498102 0.00416059 ) 0 
( -0.00279723 0.00738796 0.00132279 ) 0 
( -0.00430414 0.00586648 0.00567706 ) 0 
( -0.0123471 0.00226677 0.00417465 ) 0 
( -0.0044002 0.0030132 0.00441171 ) 0 
( -0.00106406 0.00427008 0.0026699 ) 0 
( -0.00399192 0.00976471 0.00199354 ) 0 
( -0.00623486 0.00157267 0.0084398 ) 0 
( -0.00371315 0.0128259 0.00571187 ) 0 
( -0.00669413 0.00806985 0.00334379 ) 0 
( -0.00133858 0.00279478 0.00131986 ) 0 
( -0.00445169 0.00381334 0.00500855 ) 0 
( -0.00893138 0.00353382 0.00549261 ) 0 
( -0.00480368 0.00548441 0.00760166 ) 0 
( -0.000153123 0.0120195 0.00129549 ) 0 
( -0.00171431 0.00301774 0.00827009 ) 0 
( -0.00370917 0.00293814 0.00212405 ) 0 
( -0.000174399 0.00718506 0.000497908 ) 0 
( -0.000112899 0.0099617 0.00221401 ) 0 
( -0.00852981 0.00606738 0.0063726 ) 0 
( -0.00128214 0.0092985 0.00518991 ) 0 
( -0.00586424 0.00251597 0.00506999 ) 0 
( -0.00218507 0.00343621 0.00588964 ) 0 
( -0.0101989 0.00743101 0.00331255 ) 0 
( -0.00010896 0.010857 0.00282297 ) 0 
( -0.00101746 0.00846942 0.00306631 ) 0 
( -0.00509216 0.0050671 0.0018478 ) 0 
( -0.00168772 0.0052805 0.0042066 ) 0 
( -0.00539631 0.0103145 0.0039833 ) 0 
( -0.00140362 0.00593029 0.0049096 ) 0 
( -0.00370895 0.00394477 0.00640354 ) 0 
( -0.00984287 0.00902019 0.00713067 ) 0 
( -0.00136699 0.00753931 0.0029818 ) 0 
( -0.00612191 0.0110792 0.000499706 ) 0 
( -0.0025144 0.00443942 0.00136452 ) 0 
( -0.00711699 0.00611018 0.00395632 ) 0 
( -0.0119605 0.00356487 0.00071753 ) 0 
( -0.0116757 0.00158244 0.00302713 ) 0 
( -0.00633849 0.0102384 0.0043156 ) 0 
( -0.00924252 0.000303965 0.00233246 ) 0 
( -0.00448278 0.00217128 0.00786603 ) 0 
( -0.00277758 0.0130577 0.00398449 ) 0 
( -0.00977103 0.00786425 0.00462266 ) 0 
( -0.000331022 0.00775014 0.00296045 ) 0 
( -0.00733988 0.000122953 0.00170596 ) 0 
( -0.00992032 0.0033981 0.0039443 ) 0 
( -0.000101299 0.000462273 0.00193271 ) 0 
( -0.00552395 0.00933124 0.00538827 ) 0 
( -0.00677438 0.00503429 0.00324725 ) 0 
( -0.00360586 0.00451359 0.00107576 ) 0 
( -0.0113171 0.00182905 0.00617466 ) 0 
( -0.00462817 0.00198825 0.000499901 ) 0 
( -0.00012282 0.000550864 0.000498868 ) 0 
( -0.00385095 0.00162228 0.00731984 ) 0 
( -0.000640774 0.00593668 0.00370547 ) 0 
( -0.00719858 0.00770976 0.00509364 ) 0 
( -0.00390769 0.00237209 0.00131601 ) 0 
( -0.00685851 0.00892734 0.00667172 ) 0 
( -0.00709549 0.00822592 0.0042442 ) 0 
( -0.00837329 0.00271094 0.00143174 ) 0 
( -0.00398539 0.00285347 0.00536988 ) 0 
( -0.000717727 0.0102052 0.00504851 ) 0 
( -0.0015869 0.0113988 0.00302212 ) 0 
( -0.0133135 0.00100727 0.00579896 ) 0 
( -0.00840845 0.00278788 0.00405715 ) 0 
( -0.00920241 0.00963477 0.00508005 ) 0 
( -0.000277729 0.00730757 0.00446258 ) 0 
( -0.00986887 0.00699182 0.00414654 ) 0 
( -0.00927496 0.00779038 0.00376118 ) 0 
( -0.0118364 0.00617713 0.00147574 ) 0 
( -0.00292143 0.00978262 0.00212843 ) 0 
( -0.0108585 0.00776248 0.000499608 ) 0 
( -0.00337164 0.00638061 0.00280377 ) 0 
( -4.31551e-05 0.00127343 0.00118414 ) 0 
( -0.00470989 0.00452172 0.00570084 ) 0 
( -0.000638067 0.00166121 0.00700172 ) 0 
( -0.011632 0.00488195 0.00595509 ) 0 
( -0.000566295 0.00506232 0.00232236 ) 0 
( -0.00405684 0.0111352 0.00640544 ) 0 
( -0.00893453 0.00685398 0.0037972 ) 0 
( -0.0127107 0.00365835 0.00542646 ) 0 
( -0.012522 0.00463263 0.00556605 ) 0 
( -0.0110442 0.00211808 0.0035886 ) 0 
( -0.00739326 0.00171449 0.00384772 ) 0 
( -0.000701926 0.00973715 0.00593018 ) 0 
( -0.00286242 0.0130407 0.000498926 ) 0 
( -0.00674133 0.00603956 0.0070555 ) 0 
( -0.00820296 0.000621316 0.0017813 ) 0 
( -0.0128308 0.00368757 0.00647498 ) 0 
( -0.008054 0.00764381 0.00227451 ) 0 
( -0.00930334 0.00416952 0.00408244 ) 0 
( -0.00178889 0.011482 0.00204788 ) 0 
( -0.0100169 0.00882798 0.0047019 ) 0 
( -0.00323046 0.00118093 0.00603188 ) 0 
( -0.012326 0.00202172 0.0061461 ) 0 
( -0.0114162 0.000285981 0.00326338 ) 0 
( -0.000935135 0.00744947 0.00108714 ) 0 
( -0.00690585 0.0103777 0.00608229 ) 0 
( -0.00326872 0.00771849 0.00049978 ) 0 
( -0.0108678 0.00598978 0.00638979 ) 0 
( -0.00674735 0.00440283 0.000496988 ) 0 
( -0.00149629 0.00192904 0.00380703 ) 0 
( -0.00838531 0.00848488 0.00640496 ) 0 
( -0.0100543 0.00369538 0.00586898 ) 0 
( -0.00595252 0.00687641 0.0071637 ) 0 
( -0.011833 0.00173894 0.00532448 ) 0 
( -0.0013053 0.00657208 0.00331385 ) 0 
( -0.00128608 0.00181943 0.00554329 ) 0 
( -0.00210307 0.00236177 0.0017948 ) 0 
( -0.000472639 0.00969634 0.000498556 ) 0 
( -0.00488684 0.000934193 0.006161 ) 0 
( -0.00114245 0.00685126 0.00425962 ) 0 
( -0.000850708 0.00686619 0.00245795 ) 0 
( -0.00148527 0.0123951 0.00443612 ) 0 
( -0.00499189 0.0113457 0.00668539 ) 0 
( -0.000800374 0.00129591 0.000499781 ) 0 
( -0.0108925 0.00363128 0.00366498 ) 0 
( -0.00193942 0.0116485 0.0072151 ) 0 
( -0.00317469 0.00369566 0.00145272 ) 0 
( -0.0012282 0.00978421 0.00677718 ) 0 
( -0.00949603 0.00431002 0.000497003 ) 0 
( -0.0101702 0.00705281 0.00509655 ) 0 
( -0.000580803 0.00432143 0.00756747 ) 0 
( -0.0119237 0.00326749 0.00242526 ) 0 
( -0.00872887 0.00600011 0.000499297 ) 0 
( -0.00873488 0.00116677 0.00252449 ) 0 
( -0.00164964 0.0114989 0.00401482 ) 0 
( -0.00648523 0.0070017 0.00525744 ) 0 
( -0.011026 0.000663015 0.00141087 ) 0 
( -0.0108652 0.00213358 0.000496848 ) 0 
( -0.00265297 0.00532635 0.0074374 ) 0 
( -0.00410864 0.0113299 0.00141025 ) 0 
( -0.00941006 0.00628026 0.00467855 ) 0 
( -0.00191838 0.0062453 0.00409121 ) 0 
( -0.00486178 0.00774155 0.00602652 ) 0 
( -0.00417908 0.00288041 0.000499059 ) 0 
( -0.00952557 0.00670032 0.000499779 ) 0 
( -0.00543036 0.00222078 0.00129257 ) 0 
( -0.00629446 0.00533928 0.000498121 ) 0 
( -0.00263693 0.00530733 0.00475349 ) 0 
( -0.0063274 0.00411375 0.00723069 ) 0 
( -0.00235411 0.006235 0.00499029 ) 0 
( -0.0106321 0.00175541 0.00442601 ) 0 
( -0.00182424 0.00416208 0.00203075 ) 0 
( -0.00349141 0.00667152 0.00135754 ) 0 
( -0.00702232 0.00293333 0.00274145 ) 0 
( -0.00380901 0.00416161 0.00737266 ) 0 
( -0.00810182 0.0106112 0.00491546 ) 0 
( -0.000661851 0.011167 0.00141393 ) 0 
( -0.00751146 0.00812305 0.000496705 ) 0 
( -0.00315792 0.00225235 0.00311207 ) 0 
( -0.000397485 0.00571234 0.00626577 ) 0 
( -0.00104709 0.00353584 0.00199307 ) 0 
( -0.00355961 0.0104952 0.00143907 ) 0 
( -0.00428141 0.00677907 0.00448439 ) 0 
( -0.0056178 0.00460533 0.00773331 ) 0 
( -0.0108537 0.00539616 0.00277826 ) 0 
( -0.0124937 0.00470993 0.00656112 ) 0 
( -0.0112785 0.00166223 0.00211282 ) 0 
( -0.0106144 0.00264685 0.00518912 ) 0 
( -0.00468592 0.00440678 0.0066937 ) 0 
( -0.0046161 0.0086396 0.00361561 ) 0 
( -0.00106337 0.0121412 0.0025382 ) 0 
( -0.0130977 0.00259366 0.00181415 ) 0 
( -0.00919002 0.00183948 0.00310713 ) 0 
( -0.00450547 0.00221124 0.00378232 ) 0 
( -0.00460299 0.00935135 0.00131858 ) 0 
( -0.00996741 0.00214103 0.00687922 ) 0 
( -0.00744825 0.00579625 0.00771762 ) 0 
( -0.000335715 0.0124797 0.00704671 ) 0 
( -0.00146392 0.0020002 0.00776803 ) 0 
( -0.00760677 0.00373133 0.00288708 ) 0 
( -0.00228373 0.00176911 0.000496514 ) 0 
( -0.00800188 0.00486181 0.00498011 ) 0 
( -0.00318897 0.0027508 0.00049825 ) 0 
( -0.00860189 0.00175746 0.00123637 ) 0 
( -0.0106802 0.00167625 0.0054204 ) 0 
( -0.0056303 0.00107453 0.00301394 ) 0 
( -0.00829642 0.00403034 0.00608218 ) 0 
( -0.00744311 0.008935 0.00107516 ) 0 
( -0.00271629 0.00382616 0.00233129 ) 0 
( -0.00220585 0.00271067 0.000823652 ) 0 
( -0.00491665 0.00745219 0.00485984 ) 0 
( -0.00928173 0.00659881 0.00146642 ) 0 
( -0.00668403 0.00144066 0.000497518 ) 0 
( -0.00159143 0.0103439 0.00551313 ) 0 
( -0.00972026 0.00494544 0.00123281 ) 0 
( -0.00750033 0.000417678 0.00326733 ) 0 
( -0.0128854 0.00349119 0.0075824 ) 0 
( -0.000371575 0.00298473 0.0061077 ) 0 
( -0.00555132 0.00440721 0.00125675 ) 0 
( -0.00643049 0.00359257 0.00319938 ) 0 
( -0.00361365 0.00728863 0.00227548 ) 0 
( -0.000916167 0.00445063 0.00161527 ) 0 
( -0.0104399 0.0028487 0.0032405 ) 0 
( -0.00573522 0.00775593 0.00651303 ) 0 
( -0.00234612 0.00275066 0.00659713 ) 0 
( -0.011376 0.000681301 0.00234732 ) 0 
( -0.00928201 0.00552522 0.00556969 ) 0 
( -0.00683176 0.0114706 0.00744478 ) 0 
( -0.00402961 0.00863646 0.00637623 ) 0 
( -0.000285263 0.00259651 0.0070248 ) 0 
( -0.000752259 0.00636778 0.0056012 ) 0 
( -0.000439393 0.00367031 0.00121362 ) 0 
( -0.00511732 0.00678213 0.00578703 ) 0 
( -0.000302107 0.00639687 0.00698631 ) 0 
( -0.00464138 0.00694801 0.00665033 ) 0 
( -0.00590494 0.00871082 0.00148637 ) 0 
( -0.00621176 0.00990039 0.00313096 ) 0 
( -0.000555754 0.00873222 0.00477115 ) 0 
( -0.00960071 0.00178929 0.00126415 ) 0 
( -0.000555912 0.00601561 0.0020302 ) 0 
( -0.0012671 0.00908604 0.000499779 ) 0 
( -8.62967e-05 0.00199688 0.000498306 ) 0 
( -0.00109901 0.00264863 0.00244478 ) 0 
( -0.00537843 0.00469128 0.00383119 ) 0 
( -0.000916997 0.0110399 0.005754 ) 0 
( -0.00242351 0.00296873 0.00756838 ) 0 
( -0.0070233 0.0113549 0.00442199 ) 0 
( -0.00586759 0.00153802 0.00527654 ) 0 
( -0.000330494 0.01112 0.00495138 ) 0 
( -0.0068224 0.0114763 0.00144183 ) 0 
( -0.000651806 0.0123213 0.00611394 ) 0 
( -0.00878588 0.00127853 0.0055487 ) 0 
( -0.0102959 0.00849815 0.00370594 ) 0 
( -0.00434904 0.00658028 0.00283367 ) 0 
( -0.00860243 0.00568395 0.00485379 ) 0 
( -0.0123959 0.000377171 0.000498488 ) 0 
( -0.00698725 0.00418801 0.00463635 ) 0 
( -0.00882728 0.00502476 0.000694088 ) 0 
( -0.00589901 0.00898572 0.00694185 ) 0 
( -0.00423339 0.00103322 0.0004987 ) 0 
( -0.00932581 0.00829392 0.00668063 ) 0 
( -0.000684634 0.0107053 0.00411642 ) 0 
( -0.000273713 0.00291976 0.00293833 ) 0 
( -0.0045541 0.00381824 0.000497654 ) 0 
( -0.00595184 0.0111468 0.00384116 ) 0 
( -0.00794468 0.0101016 0.00328007 ) 0 
( -0.00745151 0.00263622 0.00709133 ) 0 
( -0.00994591 0.0089053 0.00220588 ) 0 
( -4.42581e-05 0.00357329 0.00802045 ) 0 
( -0.00118166 0.0017032 0.00213328 ) 0 
( -0.00479665 0.012459 0.000499682 ) 0 
( -0.0100786 0.00610524 0.00540067 ) 0 
( -0.00774673 0.0108445 0.00108682 ) 0 
( -0.00771643 0.00167547 0.00704153 ) 0 
( -0.00317026 0.00465212 0.00796261 ) 0 
( -0.00208972 0.00373359 0.00683919 ) 0 
( -0.012572 0.0026145 0.00508291 ) 0 
( -0.00982702 0.00578467 0.00176168 ) 0 
( -0.00222074 0.0072162 0.00730859 ) 0 
( -0.00712617 0.00435754 0.00668221 ) 0 
( -0.00694334 0.000461757 0.00494271 ) 0 
( -0.00196842 0.0100942 0.00285318 ) 0 
( -0.00836066 0.00187345 0.00365858 ) 0 
( -0.00433321 0.00930162 0.00430837 ) 0 
( -0.00322475 0.0121811 0.0042037 ) 0 
( -0.0084175 0.00459751 0.00149987 ) 0 
( -0.00961736 0.00159007 0.00224154 ) 0 
( -0.00719414 0.000950057 0.00224857 ) 0 
( -0.00464914 0.0121502 0.00561956 ) 0 
( -0.0114516 0.0068651 0.000498086 ) 0 
( -0.00685543 0.00698499 0.00675343 ) 0 
( -0.000197557 0.00787345 0.00607746 ) 0 
( -0.00183653 0.000957044 0.00202727 ) 0 
( -0.0101394 0.00144654 0.000497266 ) 0 
( -0.00799315 0.00946115 0.00172151 ) 0 
( -0.00817665 0.00311296 0.00497244 ) 0 
( -0.0082233 0.00708311 0.00308249 ) 0 
( -0.00904918 0.00866467 0.00489125 ) 0 
( -0.00424132 0.012659 0.00258431 ) 0 
( -0.00862237 0.000562753 0.000867354 ) 0 
( -0.00712113 0.00292925 0.000499674 ) 0 
( -0.00568434 0.00755087 0.00549267 ) 0 
( -0.00740118 0.0072721 0.00596903 ) 0 
( -0.00402706 0.0118351 0.0049033 ) 0 
( -0.00532758 0.00508578 0.000499891 ) 0 
( -0.0054912 0.00519454 0.00693709 ) 0 
( -0.00425591 0.00924179 0.00280134 ) 0 
( -0.00953026 0.00295783 0.00725434 ) 0 
( -0.000389574 0.00716613 0.00786194 ) 0 
( -0.000848958 0.0043122 0.00049978 ) 0 
( -0.000947317 0.000976716 0.00148474 ) 0 
( -0.00943955 0.0051016 0.00467753 ) 0 
( -0.00166236 0.00605023 0.0058667 ) 0 
( -0.00696506 0.00533285 0.00156355 ) 0 
( -0.00910064 0.00753531 0.00116706 ) 0 
( -9.89119e-06 0.00689317 0.00601664 ) 0 
( -0.00767856 0.00919177 0.00616515 ) 0 
( -0.00576675 0.00493266 0.00553963 ) 0 
( -0.00804826 0.000958548 0.00390177 ) 0 
( -0.00292996 0.0130077 0.00512109 ) 0 
( -0.00055727 0.00255268 0.00474912 ) 0 
( -0.00460029 0.00577162 0.000497874 ) 0 
( -0.0100333 0.000802761 0.00127075 ) 0 
( -0.00363785 0.00185814 0.000499636 ) 0 
( -0.00591372 0.00128471 0.0043111 ) 0 
( -0.00633225 0.000527105 0.00680554 ) 0 
( -0.00036468 0.00146832 0.00538636 ) 0 
( -0.00491099 0.00130304 0.00118061 ) 0 
( -0.00820981 0.00927087 0.00700666 ) 0 
( -0.00863051 0.00348409 0.00684774 ) 0 
( -0.00830919 0.00546825 0.00222752 ) 0 
( -0.0116734 0.00147669 0.00402606 ) 0 
( -0.00664366 0.00495666 0.00601791 ) 0 
( -0.00867943 0.00647666 0.00729605 ) 0 
( -0.0053853 0.0122167 0.00241968 ) 0 
( -0.00460292 0.0019371 0.00188759 ) 0 
( -0.00495555 0.00980162 0.000498491 ) 0 
( -0.0107715 0.00437282 0.00541698 ) 0 
( -0.001518 0.00273917 0.00442774 ) 0 
( -0.00311791 0.000994885 0.00187565 ) 0 
( -0.0072925 0.00625197 0.00135083 ) 0 
( -0.00681573 0.00889777 0.00185116 ) 0 
( -0.00892758 0.00992751 0.00333239 ) 0 
( -0.00963717 0.00113914 0.00713604 ) 0 
( -0.0124438 0.0013317 0.00464605 ) 0 
( -0.00436959 0.00479992 0.000499342 ) 0 
( -0.00637797 2.50646e-05 0.00423232 ) 0 
( -0.00500759 0.0115227 0.0048518 ) 0 
( -0.00389176 0.0039456 0.00419155 ) 0 
( -0.00761142 0.0057499 0.00474525 ) 0 
( -0.0112082 0.000973702 0.00733807 ) 0 
( -0.000765451 0.00343848 0.0043402 ) 0 
( -0.00124298 0.00578765 0.00684877 ) 0 
( -0.0124302 0.00137885 0.00240613 ) 0 
( -0.0091423 0.00323941 0.00456057 ) 0 
( -0.00526594 0.0019996 0.00629429 ) 0 
( -0.00597333 0.0109324 0.00147739 ) 0 
( -0.00862104 0.00210358 0.00475358 ) 0 
( -0.0106286 0.00057584 0.000499064 ) 0 
( -0.00479553 0.0111098 0.0057349 ) 0 
( -0.00732866 0.00836216 0.00252115 ) 0 
( -0.0102724 0.00436558 0.00393792 ) 0 
( -0.00334978 0.0105721 0.00469595 ) 0 
( -0.0024477 0.00253436 0.0040131 ) 0 
( -0.00808806 0.0013209 0.000498434 ) 0 
( -0.00289603 0.0074286 0.0036496 ) 0 
( -0.00287787 0.0107068 0.00556535 ) 0 
( -0.00109516 0.00234692 0.0063708 ) 0 
( -0.00670315 0.00688657 0.00348275 ) 0 
( -0.0105575 0.00817432 0.00250525 ) 0 
( -0.00795299 0.00155918 0.00202047 ) 0 
( -0.0097393 0.0035804 0.00287477 ) 0 
( -0.00618671 0.00338864 0.00624304 ) 0 
( -0.0133102 0.000913178 0.00380934 ) 0 
( -0.00192329 0.00722379 0.00374773 ) 0 
( -0.00339856 0.010519 0.00683091 ) 0 
( -0.00467187 0.000725425 0.00212108 ) 0 
( -0.00739097 0.00657825 0.00525416 ) 0 
( -0.00923925 0.00166932 0.00409988 ) 0 
( -0.0133454 0.00019211 0.00310461 ) 0 
( -0.00359332 0.000225967 0.00480796 ) 0 
( -0.00250284 0.00495658 0.00372878 ) 0 
( -0.00652598 0.00444147 0.00146797 ) 0 
( -0.00639667 0.0093208 0.00392313 ) 0 
( -2.70486e-05 0.00105705 0.00294599 ) 0 
( -0.0123362 0.0051037 0.00090465 ) 0 
( -0.00135864 0.00855866 0.00138213 ) 0 
( -0.00158299 0.001261 0.00710585 ) 0 
( -0.00981773 0.00555242 0.00278826 ) 0 
( -0.0026375 0.000209725 0.000498299 ) 0 
( -0.00223506 0.00488093 0.00822862 ) 0 
( -0.0128631 0.0035764 0.00120911 ) 0 
( -0.0104786 0.000242694 0.00360694 ) 0 
( -0.00742822 0.00249219 0.00448038 ) 0 
( -0.0129172 0.00337237 0.00412166 ) 0 
( -0.00777773 0.0108498 0.00400167 ) 0 
( -0.00238927 0.000888594 0.00119839 ) 0 
( -0.000477274 0.00620166 0.00465529 ) 0 
( -0.00642181 0.00495924 0.00231462 ) 0 
( -0.00277079 0.00560632 0.0013204 ) 0 
( -0.00163824 0.00379675 0.00400186 ) 0 
( -0.00818399 0.00178102 0.00616717 ) 0 
( -0.00854696 0.00698253 0.000526896 ) 0 
( -0.00294677 0.00174734 0.00124083 ) 0 
( -0.00404228 0.00119895 0.00427366 ) 0 
( -0.00605669 0.00870832 0.00247328 ) 0 
( -0.0025041 0.000609168 0.00481349 ) 0 
( -0.00195489 0.00225666 0.00277732 ) 0 
( -0.00141756 0.00809746 0.000498555 ) 0 
( -0.00312736 0.00433385 0.00470255 ) 0 
( -0.00047655 0.00520957 0.00712422 ) 0 
( -0.00502036 0.0123719 0.00150427 ) 0 
( -0.00385859 0.00820451 0.00283045 ) 0 
( -0.00496063 0.00154322 0.00446419 ) 0 
( -0.00763483 0.00046733 0.000764587 ) 0 
( -0.00696898 0.0103939 0.00355631 ) 0 
( -0.00318687 0.00492428 0.00191869 ) 0 
( -0.0114231 0.00513052 0.000498608 ) 0 
( -0.000423529 0.0133451 0.00210834 ) 0 
( -0.000667792 0.0128754 0.00126238 ) 0 
( -0.010412 0.00680366 0.00603295 ) 0 
( -0.00276922 0.00470817 0.0027988 ) 0 
( -0.00564637 0.00684608 0.00159666 ) 0 
( -0.0116566 0.00460502 0.00255518 ) 0 
( -0.00942635 0.00277042 0.0013096 ) 0 
( -0.00616372 0.00668828 0.00257393 ) 0 
( -0.00395845 0.00975623 0.000499739 ) 0 
( -0.00356318 0.00368577 0.000499758 ) 0 
( -0.0104935 0.00505376 0.00191091 ) 0 
( -0.00737459 0.00912247 0.0038817 ) 0 
( -0.0102474 0.00855959 0.000498486 ) 0 
( -0.00435675 0.00674988 0.00184935 ) 0 
( -0.00286989 0.00431638 0.00706597 ) 0 
( -0.00760669 0.00472629 0.00588789 ) 0 
( -0.00528272 0.00794058 0.000498305 ) 0 
( -0.000165175 0.0109536 0.000497641 ) 0 
( -0.00387713 0.0117837 0.00334762 ) 0 
( -0.0126208 0.00435536 0.00262599 ) 0 
( -0.00297569 0.00778972 0.00699331 ) 0 
( -0.00193293 0.00779356 0.00176139 ) 0 
( -0.00632039 0.00954495 0.00610066 ) 0 
( -0.00492148 0.00530535 0.00511787 ) 0 
( -0.00338205 0.0025122 0.00745097 ) 0 
( -0.00709257 0.0113123 0.000496604 ) 0 
( -0.00114719 0.00287832 0.00548712 ) 0 
( -0.00210427 0.0123897 0.000498834 ) 0 
( -0.0127594 0.00023465 0.00610193 ) 0 
( -0.00571133 0.00347645 0.0015804 ) 0 
( -0.00476633 0.00105711 0.00359115 ) 0 
( -0.00257462 0.0065167 0.00338949 ) 0 
( -0.00686069 0.0103409 0.000499323 ) 0 
( -0.0101907 0.00231907 0.00187508 ) 0 
( -0.00604531 0.00687875 0.00614678 ) 0 
( -0.00547767 0.000251987 0.00246975 ) 0 
( -0.0122794 0.00523947 0.0030117 ) 0 
( -0.00681642 0.00231902 0.00530004 ) 0 
( -0.00107745 0.000103815 0.00633611 ) 0 
( -0.00765227 0.00350902 0.00664924 ) 0 
( -0.0038512 0.0063748 0.00367909 ) 0 
( -0.00473282 0.0103844 0.00641971 ) 0 
( -0.000220289 0.00749286 0.00200074 ) 0 
( -0.00824068 0.00862313 0.0022069 ) 0 
( -0.00607994 0.00836828 0.00407366 ) 0 
( -0.00290671 0.00666458 0.000498775 ) 0 
( -0.00682207 0.0106658 0.00202346 ) 0 
( -0.00794852 0.00394744 0.00749754 ) 0 
( -0.00139383 0.00222551 0.000499688 ) 0 
( -0.00306633 0.00512486 0.000498018 ) 0 
( -0.00687253 0.00396322 0.00579957 ) 0 
( -0.00889151 0.00509897 0.00638527 ) 0 
( -0.00518705 0.00504778 0.00284304 ) 0 
( -0.00379841 0.000239433 0.00211715 ) 0 
( -0.00207627 0.0122996 0.00646813 ) 0 
( -0.0022215 0.00334913 0.00160692 ) 0 
( -0.00429968 0.00776741 0.00049765 ) 0 
( -0.00662563 0.0115912 0.00633115 ) 0 
( -0.00711824 0.00416032 0.00364661 ) 0 
( -0.00928931 0.00572371 0.00705531 ) 0 
( -0.00478852 0.00593723 0.00146337 ) 0 
( -0.00195442 0.00642289 0.00256971 ) 0 
( -0.0037467 0.00433615 0.00548604 ) 0 
( -0.00097524 0.00322936 0.000497349 ) 0 
( -0.00500447 0.00987854 0.00723821 ) 0 
( -0.00410676 0.000587653 0.00300442 ) 0 
( -0.00613626 0.00241182 0.00602647 ) 0 
( -0.00456456 0.00966343 0.0057416 ) 0 
( -0.00533154 0.00048394 0.00418412 ) 0 
( -0.00254842 0.00834767 0.00120296 ) 0 
( -0.00594388 0.000536283 0.00497274 ) 0 
( -0.00381916 0.0127947 0.00471906 ) 0 
( -0.000763227 0.00197411 0.0012337 ) 0 
( -0.0106876 0.00281693 0.00420664 ) 0 
( -0.00305162 0.00835337 0.00536987 ) 0 
( -0.00158572 0.000121431 0.00251403 ) 0 
( -0.00393222 0.00520082 0.00502294 ) 0 
( -0.00371437 0.000855477 0.0083966 ) 0 
( -0.0130669 0.00211458 0.00268999 ) 0 