FoamFile
{version 2.0; format ascii;class vectorField; location 0;object  v;}
2496
(
( -2.32518e-05 -8.17618e-06 8.32512e-07 )  
( 0.000514379 0.00142769 4.94177e-05 )  
( 3.39258e-05 3.2572e-05 0.000271618 )  
( 0.000182569 -0.000103405 0.000181465 )  
( 1.57257e-05 -8.8295e-06 0.000167665 )  
( -0.00011537 0.000229434 2.71558e-05 )  
( -4.20723e-05 2.21456e-05 2.47836e-05 )  
( -3.44843e-05 5.84187e-05 0.000150092 )  
( -1.18898e-05 -0.000239615 -0.000677273 )  
( -2.32898e-06 -4.10571e-05 -4.52177e-06 )  
( 5.28215e-05 0.000109012 0.000373327 )  
( 2.58824e-05 -2.07957e-05 8.30039e-05 )  
( -8.49921e-07 -2.20771e-05 0.000116659 )  
( -5.07343e-05 -9.27162e-06 1.74178e-05 )  
( 4.11188e-05 -1.71319e-05 9.97e-05 )  
( -0.000159331 8.94974e-05 6.93423e-05 )  
( 6.73721e-05 -4.76721e-05 0.000471449 )  
( 0.000445523 -8.84708e-05 -0.000142809 )  
( -0.00275211 -0.000793688 -0.00260575 )  
( -0.0129398 -0.0073962 0.010799 )  
( -0.000549171 0.000202221 0.000206495 )  
( 0.0121949 0.00300363 0.00269943 )  
( 1.2274e-06 0.000214444 -0.000240913 )  
( 0.000517755 5.43171e-05 -0.000569678 )  
( 0.000237133 0.001332 3.55001e-05 )  
( 0.000653445 -0.0010735 -0.000273912 )  
( -1.61565e-05 0.000183259 0.000434995 )  
( 0.000105367 0.000602743 6.8309e-05 )  
( 0.000279909 0.000126892 -0.000414536 )  
( -5.15936e-05 8.75644e-05 -0.000113789 )  
( -5.66477e-06 -3.27639e-05 9.9279e-05 )  
( -1.83742e-05 7.98702e-05 6.14855e-05 )  
( 0.0001656 -6.62714e-05 0.000237356 )  
( -7.70461e-05 0.000130425 0.000207872 )  
( 0.000125148 -2.44148e-05 5.203e-06 )  
( -2.10285e-05 8.75156e-06 6.86766e-05 )  
( 6.85569e-05 -3.89244e-05 0.00010033 )  
( 2.71838e-05 -1.28206e-05 6.20753e-05 )  
( -6.86177e-07 8.52232e-05 0.000188015 )  
( 2.70166e-05 4.23396e-05 0.000132778 )  
( 0.000103 7.04337e-05 2.20133e-05 )  
( -1.75527e-05 1.35091e-05 0.000171889 )  
( 8.04449e-05 -4.71697e-05 3.3361e-06 )  
( 9.52146e-06 -2.96687e-05 -8.69227e-08 )  
( -2.27186e-05 -8.23652e-05 8.33938e-05 )  
( 3.04918e-05 7.14694e-05 9.58141e-05 )  
( 0.00020259 8.58118e-05 9.70925e-05 )  
( 0.000123329 -5.42511e-05 0.000117365 )  
( 1.4796e-05 1.01263e-05 2.18264e-05 )  
( 0.000806209 -0.000505323 0.000308959 )  
( 1.33569e-05 -3.46883e-06 0.000217276 )  
( -4.9897e-05 4.59304e-05 1.99008e-05 )  
( 2.12135e-05 7.73493e-05 0.000197919 )  
( 6.6151e-06 5.80409e-05 0.000236976 )  
( 7.41698e-05 -3.33534e-05 -6.25678e-05 )  
( 1.17196e-05 -1.62187e-05 1.50453e-05 )  
( 9.01329e-05 8.5602e-05 7.83638e-05 )  
( 0.000156362 0.000224124 1.20601e-06 )  
( 3.35505e-05 1.36976e-05 0.000100586 )  
( 8.53217e-05 -2.77984e-05 0.000214169 )  
( 0.000130792 0.00015135 0.000145013 )  
( 5.48926e-06 -4.45936e-05 3.61026e-05 )  
( 5.69555e-05 -4.5701e-05 -3.13065e-06 )  
( 1.48494e-05 1.00378e-06 4.42595e-05 )  
( 0.000102276 2.13434e-05 -1.0739e-05 )  
( 1.20642e-06 8.50861e-06 3.50477e-05 )  
( -8.19092e-06 -2.31731e-05 -2.49116e-06 )  
( 6.67216e-05 2.04135e-05 0.000144023 )  
( -9.41019e-05 3.70917e-05 8.5559e-05 )  
( -0.00010256 0.00019915 0.000139269 )  
( 8.4089e-05 7.83407e-05 0.000186163 )  
( 2.93888e-05 0.00015159 0.000168022 )  
( 7.90163e-05 4.54012e-05 0.000126945 )  
( -1.60088e-06 0.000102293 0.000178928 )  
( -3.4091e-05 0.000145345 -7.42496e-05 )  
( 8.14955e-05 6.53788e-05 9.34652e-05 )  
( -1.42041e-05 -1.0155e-05 0.000153103 )  
( -1.11255e-05 -5.99714e-05 7.79641e-06 )  
( 6.13979e-05 -3.59367e-05 9.95231e-05 )  
( 6.65637e-05 6.94449e-05 6.20372e-05 )  
( 2.07184e-05 -3.23154e-05 0.000194027 )  
( 2.21155e-06 -6.07514e-05 0.000255635 )  
( 9.90716e-06 6.32776e-06 3.95142e-05 )  
( -8.14817e-06 1.03187e-05 3.60636e-05 )  
( 5.63819e-05 1.68634e-05 0.000117421 )  
( -8.47852e-06 9.68288e-05 7.64724e-05 )  
( -6.88765e-06 -7.21769e-06 0.000281939 )  
( 6.05389e-05 6.58438e-05 0.000158504 )  
( 2.76129e-05 5.33621e-05 0.000207338 )  
( 2.60484e-05 -5.78507e-05 0.000236839 )  
( 7.23117e-05 -4.52488e-05 0.000169809 )  
( -4.41733e-07 8.51969e-05 0.000140512 )  
( 2.48597e-05 4.45447e-05 5.94167e-05 )  
( -4.48076e-05 -2.67383e-05 4.30149e-05 )  
( 3.67654e-05 1.82167e-05 0.000109814 )  
( 7.24967e-05 5.33521e-05 5.8072e-05 )  
( -0.000145124 0.000198741 0.000227078 )  
( -3.62635e-05 0.00015586 -1.59573e-05 )  
( 0.000151566 1.70961e-05 1.65398e-05 )  
( 4.10928e-05 4.3958e-05 0.000169454 )  
( -0.000129341 0.000153237 1.35784e-05 )  
( 1.47974e-05 1.35821e-05 4.84017e-05 )  
( 4.12811e-05 9.49912e-05 0.000217582 )  
( -9.60979e-05 0.000173249 0.000204414 )  
( -5.33404e-06 5.29769e-05 8.72377e-05 )  
( -4.80972e-05 6.06908e-06 8.48959e-05 )  
( 2.86501e-05 4.99122e-05 0.000192744 )  
( 1.64623e-05 5.41391e-05 5.7319e-05 )  
( -7.84586e-05 5.74807e-05 4.50729e-05 )  
( -0.000108143 5.34687e-05 4.81968e-05 )  
( 5.633e-06 1.43581e-06 0.000172151 )  
( 3.7405e-05 6.28651e-05 0.000101066 )  
( 3.4596e-05 0.000199089 0.000161418 )  
( 0.000153641 -0.000416315 2.86511e-05 )  
( -0.000171175 -9.48514e-05 0.000294367 )  
( -1.87681e-05 3.37098e-05 3.79111e-05 )  
( 2.84626e-05 -2.0114e-05 6.50166e-05 )  
( 7.06895e-05 1.69028e-05 0.000231377 )  
( -9.22168e-05 2.95405e-05 7.54629e-05 )  
( 2.89922e-05 2.25297e-05 -3.15697e-06 )  
( -4.10937e-05 0.000109842 0.000217197 )  
( -9.08569e-05 -0.000108351 -3.07846e-05 )  
( 1.94452e-05 -1.18663e-05 0.000286422 )  
( -0.000105088 0.000116269 0.000253849 )  
( -3.6617e-05 2.60468e-05 9.19871e-05 )  
( -0.000100825 -0.000426709 0.000202729 )  
( 4.09561e-05 -2.6086e-05 0.00016643 )  
( 0.000530754 8.38277e-05 0.000127254 )  
( -3.08359e-05 0.000105533 5.24283e-05 )  
( -1.47412e-05 -3.07247e-05 2.80379e-05 )  
( 3.0162e-05 -5.10799e-05 0.000105308 )  
( 9.72444e-06 2.12327e-06 8.87646e-05 )  
( 5.6897e-05 2.35846e-05 0.000140967 )  
( 3.35478e-05 -2.98225e-06 0.000213282 )  
( -2.91368e-05 7.95771e-05 0.000109808 )  
( 0.00246408 0.000284801 0.000804877 )  
( 9.1063e-05 3.25172e-06 8.43804e-05 )  
( 3.65048e-06 -3.54405e-05 0.000185709 )  
( -8.63694e-05 0.000245169 -5.96707e-05 )  
( -5.20617e-05 4.75322e-05 0.000237794 )  
( 7.62792e-05 0.000319561 -1.17924e-05 )  
( -8.26646e-06 -0.000157864 -3.96529e-05 )  
( -4.84388e-05 0.000116286 0.00019446 )  
( -4.64897e-05 1.34553e-05 4.46223e-05 )  
( 8.67554e-05 2.1884e-05 0.000112565 )  
( -7.49675e-05 6.23235e-06 0.000225864 )  
( 1.82412e-05 -4.44703e-05 -3.10527e-05 )  
( -3.37336e-05 -0.000137807 0.000127588 )  
( -1.4347e-05 4.31374e-05 0.000252033 )  
( -6.24914e-05 0.000106355 0.000203202 )  
( 8.52972e-05 4.12007e-05 5.56689e-05 )  
( -2.10208e-05 6.72363e-05 0.000158233 )  
( -2.34669e-05 0.000132758 0.000177656 )  
( 3.07652e-05 -2.98261e-05 0.000140477 )  
( -2.21123e-05 -0.000111285 0.000281506 )  
( 0.000212789 9.02464e-06 0.000363072 )  
( -5.68353e-05 7.32193e-05 4.07753e-05 )  
( -1.24421e-06 -1.71537e-06 7.24231e-05 )  
( -1.95854e-05 8.94953e-05 0.000292803 )  
( 1.03349e-05 1.59234e-05 5.29961e-05 )  
( 5.82378e-05 -2.64136e-05 3.8481e-05 )  
( -8.5246e-05 0.000138149 9.66377e-05 )  
( 2.98801e-05 3.91658e-06 5.61077e-05 )  
( 1.70986e-05 -3.18306e-05 0.000160116 )  
( -3.82873e-05 0.000149815 0.000189259 )  
( -0.00017936 7.03504e-05 0.000173399 )  
( 5.39904e-06 1.30552e-05 5.61183e-05 )  
( 1.32044e-05 0.000100409 0.000132927 )  
( 2.22362e-05 0.000105868 0.00014151 )  
( -0.000217616 5.42913e-05 -4.59201e-05 )  
( 5.16463e-05 -3.98714e-05 5.34632e-05 )  
( 6.57256e-05 -0.000200575 0.000234845 )  
( 4.57528e-06 5.85919e-05 0.000145849 )  
( -0.000192324 0.000119393 4.77866e-06 )  
( 4.15791e-06 3.35023e-05 0.000141181 )  
( 2.24023e-06 4.67496e-06 0.000158118 )  
( -2.56255e-05 -1.93315e-05 9.66606e-05 )  
( 2.12135e-05 -1.28365e-06 1.51196e-05 )  
( -3.38737e-05 0.000102574 0.000220555 )  
( 2.97404e-06 -2.61409e-06 6.58622e-05 )  
( -7.01366e-05 -1.61093e-05 4.46103e-05 )  
( -4.32873e-07 1.45762e-05 2.66037e-05 )  
( -8.20554e-05 2.04809e-05 6.58508e-05 )  
( -2.50606e-05 5.94479e-05 0.00026698 )  
( 1.82922e-05 9.161e-06 3.74688e-05 )  
( -0.000136368 4.00554e-05 0.000144298 )  
( -1.02805e-05 -3.72361e-05 0.000204368 )  
( 0.0001511 -0.000182708 -4.89584e-05 )  
( 0.000299828 -0.000907501 -0.0010868 )  
( 2.24186e-05 3.23458e-06 7.64561e-05 )  
( -5.8245e-05 0.000100606 0.000144048 )  
( 5.09277e-06 1.72788e-05 0.000121017 )  
( 3.89103e-05 3.19612e-05 3.03287e-05 )  
( 3.90029e-05 -2.75532e-05 7.61854e-05 )  
( 3.68154e-05 3.36393e-05 6.05505e-05 )  
( 6.48546e-06 0.000329618 0.000423031 )  
( 1.79425e-06 0.000151057 0.000196114 )  
( 5.16839e-05 -1.12588e-05 0.000158456 )  
( 3.46017e-05 -1.77617e-06 4.1261e-05 )  
( 0.000154027 -3.8179e-05 -2.89813e-06 )  
( 2.13651e-05 3.01796e-05 2.42303e-05 )  
( 8.4974e-05 5.09415e-05 0.000149147 )  
( -3.32813e-05 1.65779e-05 8.6362e-07 )  
( 0.000108139 -1.12373e-05 0.000168907 )  
( -0.000135284 0.000125676 0.000236678 )  
( 1.06071e-05 2.64176e-05 0.000145024 )  
( -3.59315e-05 5.51589e-05 1.95573e-05 )  
( -0.000184735 -0.000167584 -2.7451e-06 )  
( -2.8111e-05 3.41845e-05 0.000133291 )  
( 8.71651e-05 -3.46728e-05 0.000140556 )  
( 1.39167e-05 -3.20549e-05 5.7161e-05 )  
( 4.46079e-05 7.32169e-05 5.71102e-05 )  
( -8.30993e-05 0.000131854 0.000136227 )  
( -3.41092e-06 6.77507e-05 0.000171268 )  
( 7.88666e-06 0.000160935 6.00082e-05 )  
( 3.11172e-05 -5.6922e-05 0.000192162 )  
( 3.06906e-05 4.19002e-05 5.69418e-05 )  
( -3.51739e-05 6.80035e-05 7.62259e-06 )  
( 4.51114e-05 7.35002e-05 0.000160992 )  
( 2.60121e-05 1.52578e-05 9.82521e-05 )  
( 0.000108221 0.000210036 -3.74597e-06 )  
( 1.43162e-05 5.05222e-05 3.41434e-05 )  
( -0.00010385 9.67902e-05 6.54937e-05 )  
( 0.000124201 3.10728e-05 5.7435e-05 )  
( 2.53109e-05 2.03129e-06 3.93362e-05 )  
( 1.23546e-05 -2.44949e-05 7.71121e-05 )  
( -5.9937e-05 -5.94809e-05 0.000219807 )  
( -0.000158834 -6.4832e-06 0.000236804 )  
( -7.18039e-05 4.43149e-05 0.000221789 )  
( 1.8345e-05 3.26867e-06 7.60304e-05 )  
( -1.81525e-05 -1.69703e-05 0.000161764 )  
( -3.27201e-05 -6.1674e-05 0.000126026 )  
( 9.59127e-06 -1.38112e-06 2.7345e-05 )  
( -2.79623e-05 -2.98407e-05 2.41653e-05 )  
( 2.82473e-05 -1.05488e-05 2.905e-05 )  
( 3.31415e-05 -3.02135e-05 1.09338e-05 )  
( 5.86909e-05 0.000130914 0.000151167 )  
( 0.000830412 -0.000374707 -1.49094e-07 )  
( 6.26439e-05 4.8227e-06 3.6195e-05 )  
( 9.36848e-05 -3.93583e-05 0.000106554 )  
( -7.05045e-05 0.000159237 -2.18816e-05 )  
( 0.00028721 -8.5892e-05 0.000444943 )  
( -9.43331e-05 0.000494235 -6.15367e-05 )  
( -2.3857e-05 0.000144813 0.000112663 )  
( -2.26028e-05 -9.81166e-06 8.38652e-05 )  
( 2.95028e-05 9.68948e-07 0.000130348 )  
( 7.76408e-06 8.80493e-06 8.55383e-05 )  
( -3.72033e-05 -2.08282e-05 3.00058e-05 )  
( 0.000131874 3.54494e-05 0.00018464 )  
( 5.62188e-05 8.16728e-05 0.000166387 )  
( -3.83903e-05 0.000131155 0.000192926 )  
( 5.69841e-06 2.5681e-05 0.000118568 )  
( 2.26716e-05 -1.4356e-06 5.68675e-05 )  
( 8.62169e-05 -4.91177e-05 0.000149763 )  
( -2.54164e-05 -3.01747e-05 9.8499e-06 )  
( 0.000163587 6.90682e-06 0.000348783 )  
( 9.27576e-06 -5.848e-06 4.4185e-05 )  
( -1.10795e-05 0.000168538 -3.08286e-05 )  
( 8.50451e-05 3.80524e-05 0.000152316 )  
( 5.15426e-05 3.86555e-05 2.01778e-05 )  
( 0.000122474 -0.000312599 -1.5126e-05 )  
( 3.87213e-05 5.84888e-05 0.000207433 )  
( 9.14489e-05 5.82444e-05 5.29986e-05 )  
( 6.60416e-05 -2.21193e-05 7.39296e-05 )  
( -1.80873e-05 -1.72651e-05 4.86611e-05 )  
( 1.87158e-06 -4.19908e-05 0.000186371 )  
( -1.2806e-07 -1.25646e-05 9.23724e-06 )  
( -3.26647e-05 0.000101308 0.000181573 )  
( 3.67058e-05 -7.53102e-05 2.36226e-05 )  
( -1.07888e-05 -4.16028e-05 0.000243819 )  
( 4.32683e-05 3.42143e-07 3.64463e-05 )  
( 7.63882e-05 1.36958e-05 0.000135016 )  
( -6.27382e-05 0.000129153 0.000329546 )  
( 6.14783e-05 1.23201e-05 5.30272e-05 )  
( 5.5914e-05 7.77082e-06 0.000126759 )  
( -0.000406768 0.000115289 -8.48837e-05 )  
( -9.95782e-06 4.5963e-05 0.000144158 )  
( -6.39095e-05 4.18507e-05 0.000242964 )  
( -5.89547e-05 0.000119243 0.000243658 )  
( 3.31273e-05 -7.53983e-05 2.54131e-05 )  
( -7.15708e-05 0.000325473 -3.73784e-05 )  
( 0.000133229 0.000434127 0.000174105 )  
( 3.21283e-05 -2.3014e-05 2.82364e-05 )  
( 9.64492e-06 2.72531e-05 9.83652e-05 )  
( 4.13907e-05 1.80488e-05 0.000225165 )  
( 4.21178e-05 -4.50208e-06 0.000122933 )  
( -0.000143494 7.57367e-05 0.000241574 )  
( 2.19301e-05 0.000142834 4.08684e-05 )  
( 7.04641e-05 -0.000139965 0.000113423 )  
( -2.43242e-05 -1.74406e-05 0.000102206 )  
( 3.69775e-05 4.26519e-05 0.000115912 )  
( 4.62371e-05 1.75535e-05 -4.79901e-05 )  
( -2.33288e-05 0.000106392 3.73475e-05 )  
( -8.97943e-06 -2.02659e-05 8.29183e-05 )  
( -0.000119612 0.000209683 2.7684e-05 )  
( -6.32898e-05 0.000128287 0.000158311 )  
( -7.7332e-06 -5.14705e-05 0.000248498 )  
( 5.70218e-05 5.02476e-05 0.000100284 )  
( -1.80793e-05 -5.01923e-05 8.65074e-06 )  
( 1.09105e-06 3.78929e-05 6.49256e-05 )  
( 4.24364e-05 -3.64702e-06 0.000140374 )  
( 6.82745e-05 7.77393e-05 -2.11869e-06 )  
( 2.91084e-05 7.85287e-05 9.88636e-05 )  
( 1.87506e-05 2.31634e-05 0.000110792 )  
( 1.15604e-05 -5.73116e-05 0.000106593 )  
( -0.000101035 0.000110783 1.66819e-05 )  
( 1.08598e-05 2.95883e-05 8.6913e-05 )  
( -6.52524e-05 -9.65128e-05 0.000175994 )  
( -6.04412e-06 1.35031e-05 3.87064e-05 )  
( -7.82511e-06 -1.23686e-05 5.56116e-05 )  
( 2.76128e-05 -5.3158e-05 0.000175112 )  
( 6.6277e-05 -0.000137448 6.93134e-05 )  
( 3.93372e-05 7.54809e-05 0.000151137 )  
( -7.42271e-05 -0.000221871 0.000130085 )  
( 3.46764e-05 7.61832e-06 1.32079e-05 )  
( 7.43964e-05 0.000328135 0.00038338 )  
( 8.85763e-06 -2.27993e-05 1.27956e-05 )  
( -0.000166226 -5.30994e-05 7.28515e-06 )  
( -5.23637e-05 0.000221221 -6.31701e-05 )  
( 0.000100066 2.17498e-05 -1.27427e-06 )  
( 9.61763e-05 -1.8358e-05 0.000200614 )  
( -0.000106084 6.43028e-05 5.3593e-05 )  
( 0.000112324 4.38581e-06 0.000143196 )  
( 0.000123872 -2.92822e-05 0.000173833 )  
( -3.96489e-05 -1.37271e-05 4.89801e-05 )  
( -5.71935e-05 9.58501e-05 9.57781e-05 )  
( 5.22482e-05 -3.68129e-05 0.000140138 )  
( 3.92402e-05 3.3808e-05 0.000119559 )  
( -3.92295e-05 -3.42106e-05 7.5742e-05 )  
( -8.27277e-06 -3.99824e-05 0.00019521 )  
( -0.000442513 -7.79292e-05 0.000133216 )  
( 8.34924e-05 3.31379e-05 0.000123417 )  
( -9.33865e-05 -0.000146263 0.000183041 )  
( 3.05728e-05 -1.41156e-05 0.00019703 )  
( 1.01316e-05 -1.21305e-05 1.36129e-05 )  
( 3.50129e-05 6.7532e-05 3.328e-05 )  
( -1.47904e-05 -4.18126e-05 -9.42453e-07 )  
( 4.14906e-05 5.35866e-05 0.000117085 )  
( -6.95771e-05 -0.000119936 1.5949e-05 )  
( 3.76981e-05 9.88444e-05 0.000196361 )  
( 0.000169796 5.31663e-06 0.000107009 )  
( -0.000122217 -0.000220059 0.000209757 )  
( 6.1377e-05 -3.62133e-06 7.13071e-06 )  
( 1.07928e-05 5.00382e-05 0.000166867 )  
( 4.52866e-05 -1.72345e-05 0.000172865 )  
( 4.78386e-05 -8.939e-05 5.05386e-05 )  
( -7.9423e-06 -0.000124192 4.36487e-05 )  
( 8.56282e-05 -5.49107e-06 0.00014319 )  
( 1.8882e-05 -3.90076e-05 0.000218463 )  
( 4.91965e-05 5.39788e-05 0.000174625 )  
( 2.50756e-05 -8.66564e-06 -3.47081e-06 )  
( -5.12806e-05 2.18022e-05 0.000269778 )  
( 2.81071e-05 5.01742e-05 3.2617e-05 )  
( 8.90471e-06 -0.000273378 0.000116699 )  
( 2.96809e-05 -6.12518e-06 0.000128101 )  
( 2.16257e-05 -4.42124e-05 0.000177292 )  
( 2.99284e-05 5.06778e-05 0.000109757 )  
( -2.02153e-05 -5.67577e-05 5.17614e-05 )  
( -8.30161e-05 0.000104599 4.64017e-05 )  
( -9.63692e-05 -0.000526651 4.9672e-05 )  
( 1.99004e-05 0.000263991 0.000185698 )  
( 4.44224e-05 4.46021e-05 6.48312e-05 )  
( -8.36291e-05 0.000409081 0.000148763 )  
( 3.40971e-05 -0.000244832 -1.90977e-07 )  
( -6.96002e-06 -4.42731e-05 0.000195342 )  
( 2.88556e-05 1.28259e-05 4.45887e-05 )  
( -2.238e-05 -1.79882e-05 2.02186e-05 )  
( -8.25988e-07 5.4354e-05 0.000323464 )  
( 0.00014172 7.20646e-05 0.000236369 )  
( -4.93763e-05 0.000149077 0.000270562 )  
( 0.000485619 -0.000360766 0.000273207 )  
( 0.000125936 4.41679e-05 4.80428e-06 )  
( -6.29779e-05 -2.69435e-05 9.70837e-05 )  
( -0.00024717 -6.33891e-05 3.08294e-05 )  
( -1.29285e-05 -5.04765e-05 3.09008e-05 )  
( -0.000105924 -3.05528e-05 5.51679e-05 )  
( 9.50541e-05 3.91279e-05 4.36579e-05 )  
( 6.37592e-05 3.60524e-05 6.40528e-05 )  
( 6.94219e-05 -8.61695e-07 0.000116642 )  
( 2.97957e-05 0.000167567 0.000179821 )  
( 0.000169328 -0.000225175 -1.42242e-05 )  
( -1.40311e-05 -2.88103e-05 0.000168564 )  
( 3.41686e-05 7.19129e-06 0.000124017 )  
( -1.96213e-05 4.10292e-05 0.000102597 )  
( 3.92821e-05 5.97898e-05 0.000182425 )  
( 3.99125e-05 2.27947e-05 2.17263e-05 )  
( -9.17601e-06 -7.10565e-05 0.000203412 )  
( -8.80187e-05 0.000235144 -7.60506e-05 )  
( 5.49922e-05 4.07416e-05 0.000168539 )  
( 7.70508e-06 8.15732e-05 2.67028e-05 )  
( 2.81088e-05 1.96128e-05 0.000101695 )  
( -7.02637e-05 5.92662e-05 0.000147012 )  
( -3.0602e-05 7.3848e-05 0.000195499 )  
( 3.54073e-05 7.05446e-05 6.96802e-05 )  
( 4.29743e-05 1.41456e-05 2.19183e-05 )  
( 3.93599e-06 0.000214663 0.000160395 )  
( -1.44732e-05 -4.98942e-05 -2.73751e-05 )  
( -4.28716e-06 -8.77113e-05 0.000186668 )  
( -1.95031e-05 0.000147801 0.000204943 )  
( 5.54014e-06 0.000102159 0.000206136 )  
( -2.87869e-05 9.70719e-07 -2.44316e-06 )  
( -0.000265178 3.00748e-05 -1.76127e-07 )  
( 3.71147e-05 1.69141e-05 1.10445e-05 )  
( -0.000508747 -0.00102855 2.32247e-06 )  
( 0.000154762 0.000117884 1.92576e-05 )  
( -2.81798e-05 3.1245e-05 0.000197815 )  
( 6.19679e-05 8.00285e-05 0.000216074 )  
( 2.54609e-05 -0.000137842 0.000305412 )  
( 3.68945e-06 -2.31965e-05 6.24229e-05 )  
( -8.84998e-06 -1.65384e-06 3.44797e-05 )  
( 2.40323e-05 -9.75342e-06 0.000150781 )  
( -9.52477e-05 0.000158801 0.000133139 )  
( -2.24313e-05 -4.62811e-05 2.65665e-05 )  
( 4.89111e-06 -6.69506e-05 4.67488e-05 )  
( -1.9968e-05 -4.12219e-05 2.99189e-05 )  
( -9.82303e-05 5.77594e-05 7.74018e-05 )  
( 1.8463e-05 0.000105064 -2.73682e-05 )  
( -2.08846e-06 -2.0739e-05 6.03496e-05 )  
( 9.926e-06 -5.86384e-06 -1.46223e-05 )  
( -9.24501e-07 7.57124e-05 0.000184325 )  
( -7.61984e-05 0.000104198 0.000209828 )  
( 5.34199e-05 -3.71135e-05 0.000105064 )  
( 1.09709e-06 -7.3939e-05 3.993e-05 )  
( 7.67404e-05 5.67223e-05 6.97276e-05 )  
( -6.84218e-05 -6.86504e-05 0.000206643 )  
( -0.000351403 -4.98982e-05 0.000177679 )  
( 4.16216e-05 -3.0582e-07 0.000197234 )  
( -9.19003e-06 8.41354e-05 0.000101703 )  
( 4.8807e-06 -1.53777e-05 6.14402e-05 )  
( 4.76312e-05 1.57577e-06 0.000116945 )  
( -7.16632e-05 -2.35393e-05 9.16695e-05 )  
( 0.00046058 9.03853e-06 -0.000157747 )  
( -8.32426e-05 2.32843e-05 0.000410262 )  
( -3.02348e-05 6.71504e-05 0.00029633 )  
( 2.15642e-05 -2.82042e-06 0.000106721 )  
( 0.000124903 0.000203925 -0.000175979 )  
( 1.10584e-05 -5.75809e-05 0.0001826 )  
( -0.000116526 -1.53161e-05 2.06362e-05 )  
( 7.52505e-05 -3.85301e-05 0.000198256 )  
( -3.40462e-05 4.6541e-05 2.77925e-05 )  
( 7.42221e-06 -1.54334e-05 5.58491e-05 )  
( -6.89844e-05 4.31588e-05 0.00034164 )  
( -4.72894e-06 1.35784e-05 0.000115193 )  
( 1.92189e-05 -1.01615e-06 0.000246906 )  
( -7.16109e-06 -2.07854e-05 3.02072e-05 )  
( 1.68666e-05 2.64791e-05 6.74882e-05 )  
( 0.000106014 -5.17388e-05 1.12401e-06 )  
( -2.6385e-05 7.74107e-05 0.000168078 )  
( 2.27913e-05 1.25702e-05 0.000116816 )  
( -4.78305e-05 -5.93894e-06 2.0333e-05 )  
( 8.9955e-05 1.46548e-05 0.000239408 )  
( 6.43372e-05 2.3182e-05 3.31967e-05 )  
( 5.88294e-05 -1.3902e-05 0.000141582 )  
( 2.18784e-05 -4.71562e-05 -6.23383e-05 )  
( 2.50952e-05 -6.27943e-06 8.21377e-05 )  
( -2.44624e-05 -4.49223e-05 5.58683e-05 )  
( 4.01732e-05 -4.33135e-05 0.00019511 )  
( -6.05931e-07 3.12999e-05 6.62997e-05 )  
( 1.20324e-05 -2.60037e-05 3.32259e-05 )  
( 2.454e-05 -7.49031e-07 0.000189592 )  
( 6.94912e-05 0.000122102 0.000214633 )  
( -6.9918e-05 0.00016663 1.58679e-05 )  
( 6.27549e-05 -4.65257e-05 4.67044e-05 )  
( 4.76362e-06 -1.13416e-05 0.000205339 )  
( -7.15541e-05 -6.91494e-05 7.87635e-05 )  
( 2.8331e-05 0.000113169 0.000197664 )  
( 2.42612e-05 0.000158393 0.000176539 )  
( 1.19453e-06 0.000154551 4.65245e-05 )  
( -2.08654e-05 -6.43956e-05 1.98966e-05 )  
( -1.32642e-05 7.46214e-05 0.000247492 )  
( -4.70875e-05 5.42297e-05 5.09429e-05 )  
( -5.92968e-05 0.000147029 0.000260661 )  
( -2.03756e-05 -2.81205e-05 4.66487e-05 )  
( 9.28828e-05 7.35318e-05 9.91453e-05 )  
( 9.22032e-05 7.81264e-05 0.000135744 )  
( 2.61522e-05 -8.34384e-06 6.62121e-05 )  
( 6.53062e-05 2.66242e-05 3.33796e-05 )  
( -6.39798e-05 6.22926e-05 -4.49005e-07 )  
( 2.88618e-05 -4.88514e-05 3.35585e-05 )  
( 9.19364e-06 -7.55762e-06 7.91498e-05 )  
( 3.36012e-05 8.87249e-05 0.000133261 )  
( 7.61916e-05 -6.48327e-06 0.000203471 )  
( -0.000114732 0.000171486 -1.93003e-05 )  
( 5.49746e-05 2.61861e-05 5.09734e-05 )  
( -0.000108711 5.4752e-05 0.000291276 )  
( 4.63916e-05 -3.44461e-05 0.000166596 )  
( 8.34756e-05 4.00114e-05 -7.779e-06 )  
( 8.24583e-05 -1.64343e-05 8.61695e-05 )  
( -6.23731e-05 -2.24861e-06 0.000161965 )  
( 1.69047e-05 5.44598e-05 0.000142323 )  
( 4.49802e-05 -1.06946e-05 0.000134426 )  
( 2.54894e-05 -2.49184e-05 0.000194724 )  
( 5.56649e-05 3.1669e-07 1.6001e-05 )  
( -2.57624e-05 -4.6634e-05 0.00022068 )  
( 4.93824e-05 4.29381e-05 5.88922e-05 )  
( 4.82831e-05 0.000188267 0.000283811 )  
( -2.65379e-05 6.97559e-05 2.65932e-05 )  
( -2.67939e-05 -8.30206e-05 0.00026342 )  
( 7.42879e-05 -3.08439e-05 0.000119686 )  
( 6.07362e-06 -1.57483e-05 3.37853e-05 )  
( 8.22259e-06 -5.06763e-07 1.43099e-05 )  
( 2.75449e-05 5.50957e-05 5.25118e-05 )  
( 2.21634e-06 9.52931e-06 0.000126855 )  
( -0.000118278 3.27848e-05 0.000211189 )  
( 7.45619e-06 -6.97769e-05 4.86661e-05 )  
( -2.73052e-05 0.000157067 -0.00010966 )  
( -8.33502e-05 -6.89686e-10 6.16458e-05 )  
( 5.25295e-06 7.69203e-06 -6.34149e-06 )  
( -3.65074e-06 -9.73938e-05 0.000199784 )  
( -1.68727e-05 -8.55568e-06 4.28686e-05 )  
( -0.000106296 3.43011e-05 0.000277802 )  
( -3.48279e-05 0.000169207 7.68084e-05 )  
( 7.60223e-05 0.000198827 8.02145e-06 )  
( 3.6205e-05 -0.000115944 3.23516e-05 )  
( 3.54897e-05 -1.80285e-05 0.000103437 )  
( 4.55794e-06 9.2677e-05 0.00018929 )  
( -3.61674e-05 2.84972e-05 0.000240017 )  
( -8.52836e-05 -8.16539e-05 0.000211034 )  
( 3.10105e-07 -1.21846e-05 2.52941e-05 )  
( 3.05132e-05 -2.24356e-05 0.000177498 )  
( 2.82271e-05 4.48598e-05 0.000163105 )  
( 5.64222e-05 -1.57678e-05 7.2555e-05 )  
( 8.99713e-06 1.01213e-05 0.000122396 )  
( 1.69434e-05 1.16225e-05 0.000105153 )  
( 5.24299e-05 5.12282e-06 -3.03404e-05 )  
( -1.33093e-05 -6.28939e-05 6.01296e-05 )  
( 1.68248e-05 8.21714e-06 1.53135e-05 )  
( -6.43257e-05 4.00376e-05 0.000271449 )  
( 9.39489e-05 0.000100467 0.00017119 )  
( -4.90387e-05 -3.08532e-05 7.44614e-05 )  
( 3.10794e-05 1.60481e-05 2.39695e-05 )  
( 0.000115545 1.84593e-05 0.000153282 )  
( -5.12684e-05 -6.61657e-05 0.000241594 )  
( 9.07394e-06 3.04916e-05 0.000168877 )  
( 8.51144e-06 -1.41258e-05 0.000117665 )  
( -5.06671e-06 2.76978e-06 -9.51475e-05 )  
( -1.28999e-05 2.36696e-06 4.6574e-05 )  
( 3.94961e-05 1.25496e-05 -4.27637e-07 )  
( -1.80584e-05 5.91173e-05 0.000217989 )  
( -1.85892e-05 2.0257e-05 0.000215391 )  
( 8.00776e-05 -2.17945e-06 0.000107279 )  
( -3.40505e-05 0.00125797 0.000177345 )  
( -7.3213e-05 0.000134812 0.000233783 )  
( 1.95597e-05 -1.29133e-05 0.000117623 )  
( -4.22327e-05 -6.50039e-05 0.000609532 )  
( 6.85099e-05 0.000168326 0.000155264 )  
( -0.000852937 -0.000339389 -2.12179e-07 )  
( -0.000101885 5.5903e-05 6.45421e-05 )  
( -0.000181287 0.000325583 0.000188323 )  
( -5.28717e-05 0.000219107 6.22921e-05 )  
( 1.19758e-05 -4.01924e-05 0.000144084 )  
( 2.37526e-05 -4.59437e-05 -3.74937e-06 )  
( 0.000113239 0.000120315 -4.78576e-05 )  
( 0.000115545 0.000108266 0.000228187 )  
( -2.01812e-06 0.000130797 0.00018858 )  
( 1.75818e-05 -3.00392e-05 0.000148252 )  
( 4.11074e-05 -4.46289e-07 2.01174e-05 )  
( -3.20996e-05 3.56229e-05 1.07898e-05 )  
( 0.000251099 0.00010278 1.21103e-05 )  
( 2.45993e-06 -6.99657e-06 8.46066e-05 )  
( 2.80409e-05 3.51492e-05 3.74113e-05 )  
( -3.13515e-06 6.43323e-05 0.00024323 )  
( -0.000166484 5.20378e-05 0.000220477 )  
( -8.62176e-05 -3.25945e-05 -4.47765e-05 )  
( -4.74154e-05 2.91053e-05 3.65553e-05 )  
( 0.000142692 5.74793e-05 0.000264373 )  
( -2.28285e-05 -6.69852e-05 0.000199335 )  
( 3.51864e-05 1.44207e-05 0.000130411 )  
( -3.14573e-05 0.000197207 0.000170024 )  
( -1.54647e-05 7.03808e-05 0.000203037 )  
( -2.85048e-05 3.62708e-05 0.000251486 )  
( 5.8575e-05 3.60953e-05 4.95287e-05 )  
( -6.26636e-05 -8.29405e-06 9.22222e-05 )  
( 1.92484e-05 -1.2256e-06 5.90734e-06 )  
( 9.22592e-06 -0.000131957 0.000272351 )  
( 7.35522e-05 -3.66142e-05 7.59635e-05 )  
( -6.14138e-06 2.1044e-05 3.27169e-05 )  
( 4.13951e-05 -3.38327e-05 6.52143e-05 )  
( -3.20661e-05 2.28034e-05 8.9265e-05 )  
( 1.31708e-05 1.2235e-05 5.51612e-05 )  
( 0.000454768 -0.000501783 0.00055354 )  
( -8.59981e-05 0.000619743 0.000129514 )  
( -9.07328e-06 -4.73196e-06 3.13984e-05 )  
( 9.43715e-05 -6.03347e-05 0.000159754 )  
( 2.70588e-05 -2.48858e-05 0.000106662 )  
( -5.70934e-06 8.97815e-05 0.000156598 )  
( 3.03414e-05 -5.64176e-08 0.000163312 )  
( 0.00022285 -0.000145716 0.000482021 )  
( -2.77232e-06 5.1999e-05 3.66776e-05 )  
( 4.49236e-07 0.000217437 8.14731e-05 )  
( -9.90749e-06 3.21118e-05 0.000158158 )  
( 6.41451e-06 -4.11618e-05 0.000214015 )  
( -0.000105719 0.000123282 0.000158607 )  
( 0.000128277 7.47641e-05 1.40107e-05 )  
( -8.57456e-05 -1.37933e-05 0.000249329 )  
( 3.20053e-05 4.24879e-05 2.3305e-05 )  
( -9.56454e-06 7.21022e-05 0.000182975 )  
( 4.53283e-05 -1.22079e-05 0.000113503 )  
( 2.67612e-05 -2.58164e-05 0.000190633 )  
( 4.70404e-05 7.79319e-06 0.000112846 )  
( -0.000184073 -3.12016e-06 3.98777e-05 )  
( -1.48508e-05 1.92566e-05 3.64008e-05 )  
( 9.89041e-05 -4.61142e-05 7.01713e-05 )  
( 5.06792e-05 9.42732e-05 0.0001262 )  
( -0.000115766 0.000215287 -6.67386e-05 )  
( 4.80535e-05 -3.02981e-06 0.000144077 )  
( -7.59829e-06 -6.26235e-05 0.000149333 )  
( 5.68243e-05 2.30295e-05 0.000113481 )  
( 6.51699e-05 2.73042e-05 0.000123307 )  
( 2.51321e-05 7.28137e-05 0.000238891 )  
( 3.05095e-05 0.000105392 7.49464e-05 )  
( 9.77652e-05 -4.21156e-05 0.000131981 )  
( 1.08736e-05 3.69151e-05 0.000167934 )  
( -8.56837e-05 3.8579e-06 4.22341e-05 )  
( -4.04381e-06 3.24896e-05 0.000168706 )  
( -1.12806e-05 -3.26948e-05 0.000185383 )  
( -9.12002e-05 8.66016e-05 0.000120504 )  
( -0.000118706 4.78447e-05 0.000159041 )  
( -0.000105739 0.00017472 0.000110897 )  
( -1.34491e-05 -5.14576e-05 0.000107502 )  
( 3.30486e-05 3.76219e-05 9.8835e-05 )  
( -3.03584e-05 -3.50433e-05 5.42863e-05 )  
( 4.95332e-06 -2.19959e-05 1.40891e-05 )  
( 6.25005e-05 4.95367e-05 3.42567e-05 )  
( -7.30139e-05 9.77037e-05 -4.35531e-05 )  
( -0.000151066 -4.56187e-05 8.05623e-05 )  
( -5.00448e-05 -1.40958e-05 8.64762e-06 )  
( -2.34557e-05 0.000158985 8.21909e-05 )  
( 1.59047e-05 -7.14309e-06 1.38316e-05 )  
( 1.06404e-05 -2.75404e-05 0.000121179 )  
( -4.04295e-05 -6.00464e-05 0.000238482 )  
( 3.5579e-05 2.16457e-05 -4.40018e-06 )  
( -0.00010047 6.09473e-05 4.38614e-05 )  
( 3.24954e-05 0.000159111 1.28688e-05 )  
( -0.000112992 0.000195658 -4.44828e-06 )  
( 1.83619e-05 -8.66952e-05 0.000155578 )  
( 6.01037e-05 -1.90413e-05 4.47704e-05 )  
( -1.07493e-05 3.70834e-05 3.53836e-05 )  
( -0.000143891 -8.68932e-05 0.0002541 )  
( 0.000138962 6.63823e-05 6.09685e-06 )  
( -9.40827e-05 3.85614e-05 3.42664e-05 )  
( 5.64422e-06 2.43903e-05 7.0802e-05 )  
( 8.17538e-06 2.11191e-05 7.97943e-05 )  
( -5.7033e-05 -2.72287e-05 8.85452e-05 )  
( 8.83546e-06 3.40368e-05 3.98019e-05 )  
( 5.20054e-05 2.53986e-05 2.64255e-05 )  
( -5.97889e-06 8.33919e-05 9.50923e-05 )  
( 2.11468e-05 0.000239245 1.73712e-05 )  
( 1.55852e-05 -1.215e-05 1.84275e-05 )  
( -4.87165e-05 -5.82731e-06 0.000104627 )  
( 3.42255e-05 8.62695e-05 0.000134112 )  
( -4.57499e-06 6.70622e-05 3.3099e-05 )  
( 5.83337e-05 5.68069e-05 0.000106516 )  
( 5.35852e-05 2.47856e-05 0.00011097 )  
( 1.68846e-05 1.46252e-06 1.91791e-05 )  
( -5.32526e-05 -1.32233e-05 5.74764e-05 )  
( 4.10903e-05 -3.94535e-05 6.19898e-05 )  
( -2.02229e-05 -7.87412e-05 0.000184185 )  
( -1.1437e-05 -4.18611e-05 0.000129127 )  
( 0.00172816 -0.000275614 -0.00190972 )  
( 2.27313e-05 -2.00319e-05 7.62247e-05 )  
( 4.34115e-05 1.79121e-06 7.31689e-05 )  
( 6.53204e-05 -1.46753e-05 6.55669e-05 )  
( 4.68933e-05 9.0228e-07 -8.70445e-06 )  
( -6.69693e-06 -0.000220828 1.02538e-05 )  
( 3.17506e-05 4.07284e-05 6.39676e-05 )  
( 1.62209e-05 3.09223e-05 0.00015717 )  
( -2.31521e-06 -1.46465e-05 6.7453e-06 )  
( 4.12984e-05 2.78301e-05 0.000181787 )  
( -0.000143441 -0.000161109 4.42751e-05 )  
( 1.60032e-05 -2.11954e-05 0.000217848 )  
( -6.85464e-06 6.02262e-06 1.98125e-05 )  
( 5.4965e-06 1.36327e-05 8.43582e-06 )  
( 2.08471e-05 1.13961e-05 5.73068e-05 )  
( 9.75133e-06 -1.36817e-05 3.30242e-05 )  
( -1.51297e-05 9.30982e-05 0.000177347 )  
( -1.11675e-06 3.93268e-05 9.27618e-05 )  
( 4.90979e-05 0.000124018 0.000195807 )  
( -2.00154e-05 9.44091e-05 0.000188047 )  
( 6.19788e-06 0.000112962 0.000110074 )  
( -3.17156e-06 -7.73998e-06 1.42281e-05 )  
( 1.5406e-05 4.76581e-05 6.11272e-05 )  
( 2.35239e-05 -6.02261e-05 2.61397e-05 )  
( 1.23758e-05 5.23143e-05 0.00016594 )  
( 1.41836e-05 -3.09581e-05 8.52227e-05 )  
( 0.000548953 0.000203226 0.000437327 )  
( -4.87404e-05 0.000140528 0.000222061 )  
( -1.26967e-06 -1.16755e-05 8.97779e-06 )  
( 6.22723e-05 5.74907e-05 8.79284e-05 )  
( -4.63959e-05 0.000175221 0.000215726 )  
( -4.63141e-05 -1.52942e-05 0.000117252 )  
( -1.94397e-05 -3.60448e-05 3.67588e-05 )  
( -9.61656e-05 -7.5101e-05 0.000288442 )  
( -0.000122279 -4.92897e-05 6.89978e-06 )  
( -2.34786e-05 3.10421e-05 0.000241963 )  
( 1.06806e-05 8.82339e-05 0.000135699 )  
( 2.94373e-05 0.000143112 0.000275647 )  
( 5.49226e-05 3.39586e-05 3.14595e-05 )  
( 1.17028e-05 -4.28769e-06 0.000111785 )  
( 9.05384e-05 2.83357e-05 0.000130798 )  
( -0.000518241 -0.00195037 3.43373e-06 )  
( 4.56294e-05 3.3995e-05 3.46795e-05 )  