/*--------------------------------*- C++ -*----------------------------------*\
| =========                 |                                                 |
| \\      /  F ield         | OpenFOAM: The Open Source CFD Toolbox           |
|  \\    /   O peration     | Version:  2506                                  |
|   \\  /    A nd           | Website:  www.openfoam.com                      |
|    \\/     M anipulation  |                                                 |
\*---------------------------------------------------------------------------*/
FoamFile
{
    version     2.0;
    format      ascii;
    arch        "LSB;label=32;scalar=64";
    class       volScalarField;
    location    "0.01";
    object      Ksl;
}
// * * * * * * * * * * * * * * * * * * * * * * * * * * * * * * * * * * * * * //

dimensions      [1 -3 -1 0 0 0 0];

internalField   nonuniform List<scalar> 
1152
(
166777
209789
152330
165869
78288.5
100045
145232
516045
137935
108732
125860
65152.8
107470
92300
124863
90877.2
164845
368078
201467
4.38804e+07
345507
239206
172711
216030
216653
253541
667832
148200
344297
169659
259826
393486
369613
282586
236101
100068
131556
155506
1.10727e+06
177537
323570
216290
141959
366634
112617
440841
191159
399315
171987
1.05759e+06
327374
427641
225025
287919
195601
229084
785362
278652
277788
178110
354507
238449
259445
1.15845e+06
1.3806e+06
203483
165356
127458
211559
170123
289954
375484
325567
231313
316511
154776
179161
224243
152459
702138
109209
293080
367965
1.69851e+06
243985
221420
538975
201605
271396
213121
126698
186941
100773
183413
235270
1.40194e+06
131744
79138.3
65786.8
65575.6
90090.4
52727.2
112557
91123.6
43849.7
64434.7
105430
75469.9
38990.2
72234.1
105945
84270.1
0
0
0
0
0
0
0
0
0
0
0
0
0
0
0
0
0
0
0
0
0
0
0
0
0
0
0
0
0
0
0
0
0
0
0
0
0
0
0
0
0
0
0
0
0
0
0
0
0
0
0
0
0
0
0
0
0
0
0
0
0
0
0
0
0
0
0
0
0
0
0
0
0
0
0
0
0
0
0
0
0
0
0
0
0
0
0
0
0
0
0
0
0
0
0
0
0
0
0
0
0
0
0
0
0
0
0
0
0
0
0
0
0
0
0
0
0
0
0
0
0
0
0
0
0
0
0
0
0
0
0
0
0
0
0
0
0
0
0
0
0
0
0
0
0
0
0
0
0
0
0
0
0
0
0
0
0
0
0
0
0
0
0
0
0
0
0
0
0
0
0
0
0
0
0
0
0
0
0
0
0
0
0
0
0
0
0
0
0
0
0
0
0
0
0
0
0
0
0
0
0
0
0
0
0
0
0
0
0
0
0
0
0
0
0
0
0
0
0
0
0
0
0
0
0
0
0
0
0
0
0
0
0
0
0
0
0
0
0
0
0
0
0
0
0
0
0
0
0
0
0
0
0
0
0
0
0
0
0
0
0
0
0
0
0
0
0
0
0
0
0
0
78231.1
197852
65733.7
134639
153477
118481
124288
104065
98533.8
95753.2
108168
111433
106009
144566
89847.7
111104
123536
194387
219209
661664
166690
575657
307508
627514
382731
132604
209519
222891
160103
258403
189214
278369
545215
184449
229761
111627
248996
197801
445522
122107
195419
372876
155927
333176
199758
160012
217551
256995
339915
314429
391740
161356
153684
149199
292232
271704
218251
164611
176998
301386
173340
382257
253743
164611
103869
235311
154726
248826
920667
307372
288523
358678
413118
231177
136341
178664
195030
117585
379501
228249
1.44652e+06
298492
327455
379965
133730
191815
269724
112863
227950
187128
145628
3.8787e+06
166588
394063
322966
98933.2
44247
73516.7
58244
42648
44342.8
64156.6
42289.9
42588.9
70126.8
63581.1
44160.7
32837.6
57841.3
28836.4
56621.2
19567.2
0
0
0
0
0
0
0
0
0
0
0
0
0
0
0
0
0
0
0
0
0
0
0
0
0
0
0
0
0
0
0
0
0
0
0
0
0
0
0
0
0
0
0
0
0
0
0
0
0
0
0
0
0
0
0
0
0
0
0
0
0
0
0
0
0
0
0
0
0
0
0
0
0
0
0
0
0
0
0
0
0
0
0
0
0
0
0
0
0
0
0
0
0
0
0
0
0
0
0
0
0
0
0
0
0
0
0
0
0
0
0
0
0
0
0
0
0
0
0
0
0
0
0
0
0
0
0
0
0
0
0
0
0
0
0
0
0
0
0
0
0
0
0
0
0
0
0
0
0
0
0
0
0
0
0
0
0
0
0
0
0
0
0
0
0
0
0
0
0
0
0
0
0
0
0
0
0
0
0
0
0
0
0
0
0
0
0
0
0
0
0
0
0
0
0
0
0
0
0
0
0
0
0
0
0
0
0
0
0
0
0
0
0
0
0
0
0
0
0
0
0
0
0
0
0
0
0
0
0
0
0
0
0
0
0
0
0
0
0
0
0
0
0
0
0
0
0
0
0
0
0
0
0
0
0
0
0
0
0
0
0
0
0
0
0
0
0
0
0
0
0
0
124381
70099.1
160294
102183
189327
99254.6
125330
107684
107145
86749.8
140869
96741.6
132783
218611
67630
152937
398326
280790
999404
545060
155117
305772
204243
203196
121071
308471
261929
134363
202274
170986
281263
193592
171122
92995
242175
131466
794150
165479
207897
711001
126451
375043
207451
897501
323464
158201
216554
286454
290591
146750
268960
225461
288582
204300
203442
398173
177023
174153
1.33418e+06
126036
175988
248680
183292
293650
153001
257708
342072
155325
205873
280490
171159
291196
271984
138087
283529
156380
170975
282635
173195
340042
225857
81424.8
343646
171041
184520
165168
205707
256623
214463
139592
314407
139285
196984
251240
439049
549749
144392
13451.7
44705.1
19194.4
32767.2
94279.4
37054.6
69621.3
37761.7
44631.6
48117.4
50160.1
60366.7
105616
39313
40941.6
0
0
0
0
0
0
0
0
0
0
0
0
0
0
0
0
0
0
0
0
0
0
0
0
0
0
0
0
0
0
0
0
0
0
0
0
0
0
0
0
0
0
0
0
0
0
0
0
0
0
0
0
0
0
0
0
0
0
0
0
0
0
0
0
0
0
0
0
0
0
0
0
0
0
0
0
0
0
0
0
0
0
0
0
0
0
0
0
0
0
0
0
0
0
0
0
0
0
0
0
0
0
0
0
0
0
0
0
0
0
0
0
0
0
0
0
0
0
0
0
0
0
0
0
0
0
0
0
0
0
0
0
0
0
0
0
0
0
0
0
0
0
0
0
0
0
0
0
0
0
0
0
0
0
0
0
0
0
0
0
0
0
0
0
0
0
0
0
0
0
0
0
0
0
0
0
0
0
0
0
0
0
0
0
0
0
0
0
0
0
0
0
0
0
0
0
0
0
0
0
0
0
0
0
0
0
0
0
0
0
0
0
0
0
0
0
0
0
0
0
0
0
0
0
0
0
0
0
0
0
0
0
0
0
0
0
0
0
0
0
0
0
0
0
0
0
0
0
0
0
0
0
0
0
0
0
0
0
0
0
0
0
0
0
0
0
0
0
0
0
0
0
)
;

boundaryField
{
    inlet
    {
        type            zeroGradient;
    }
    outlet
    {
        type            zeroGradient;
    }
    wall
    {
        type            zeroGradient;
    }
    procBoundary2to0
    {
        type            processor;
        value           nonuniform List<scalar> 
192
(
129173
58822.2
100763
117734
188488
366980
212126
244604
343854
139750
413856
1.2084e+06
529767
133373
211795
102164
117748
498307
411035
2.74877e+06
285641
187937
181583
135189
27072.9
97120.8
216201
112468
0
0
0
0
0
0
0
0
0
0
0
0
0
0
0
0
0
0
0
0
0
0
0
0
0
0
0
0
0
0
0
0
0
0
0
0
0
0
0
0
0
0
0
0
0
0
0
0
0
0
0
0
0
0
0
0
0
0
0
0
0
0
0
0
0
0
0
0
165536
199761
90003.1
91105.4
250020
177910
195457
222604
270331
599852
487665
164994
160041
664186
311232
204909
262071
224322
182575
388370
175722
260349
194310
123828
44565.3
49096.7
18485.8
95979.2
0
0
0
0
0
0
0
0
0
0
0
0
0
0
0
0
0
0
0
0
0
0
0
0
0
0
0
0
0
0
0
0
0
0
0
0
0
0
0
0
0
0
0
0
0
0
0
0
0
0
0
0
0
0
0
0
0
0
0
0
0
0
0
0
0
0
0
0
)
;
    }
    procBoundary2to3
    {
        type            processor;
        value           nonuniform List<scalar> 
192
(
58698.9
51613.1
300971
173238
101498
298876
1.57551e+06
149136
465892
617721
193938
222462
487075
194972
320401
161960
9.04403e+06
246479
211385
235390
98146.3
125471
648853
107860
608826
94059.5
83358.8
473523
0
0
0
0
0
0
0
0
0
0
0
0
0
0
0
0
0
0
0
0
0
0
0
0
0
0
0
0
0
0
0
0
0
0
0
0
0
0
0
0
0
0
0
0
0
0
0
0
0
0
0
0
0
0
0
0
0
0
0
0
0
0
0
0
0
0
0
0
75351
190094
87427.7
718449
180620
167326
222506
121107
446388
986673
256664
370267
404473
250896
152107
223812
223117
138132
2.03422e+06
310555
95355.9
1.01218e+06
130947
196923
257023
54466.1
49338.3
38251.1
0
0
0
0
0
0
0
0
0
0
0
0
0
0
0
0
0
0
0
0
0
0
0
0
0
0
0
0
0
0
0
0
0
0
0
0
0
0
0
0
0
0
0
0
0
0
0
0
0
0
0
0
0
0
0
0
0
0
0
0
0
0
0
0
0
0
0
0
)
;
    }
}


// ************************************************************************* //
