/*--------------------------------*- C++ -*----------------------------------*\
| =========                 |                                                 |
| \\      /  F ield         | OpenFOAM: The Open Source CFD Toolbox           |
|  \\    /   O peration     | Version:  2506                                  |
|   \\  /    A nd           | Website:  www.openfoam.com                      |
|    \\/     M anipulation  |                                                 |
\*---------------------------------------------------------------------------*/
FoamFile
{
    version     2.0;
    format      ascii;
    arch        "LSB;label=32;scalar=64";
    class       surfaceScalarField;
    location    "0.01";
    object      phi;
}
// * * * * * * * * * * * * * * * * * * * * * * * * * * * * * * * * * * * * * //

dimensions      [0 3 -1 0 0 0 0];

oriented        oriented;

internalField   nonuniform List<scalar> 
3120
(
-1.05383e-09
1.74148e-09
1.03685e-08
5.32457e-10
-1.71259e-10
1.68611e-09
5.24645e-09
2.3548e-10
7.44271e-10
8.74147e-09
3.91236e-11
6.68912e-09
-1.9725e-09
3.63823e-10
1.41109e-08
6.60214e-10
-1.40088e-09
6.57065e-10
1.19038e-08
-1.95142e-10
5.58444e-10
1.04016e-08
2.63781e-09
5.21772e-09
-1.01671e-09
1.32664e-09
9.10669e-09
2.45403e-09
-1.13858e-09
1.73485e-09
1.04251e-08
2.15315e-09
9.83783e-10
7.73045e-09
-8.83792e-10
2.01114e-08
-1.14849e-09
1.04023e-08
2.06966e-09
5.39692e-10
-1.36938e-09
1.34495e-08
-8.72342e-11
-3.82338e-10
9.03578e-09
2.34802e-09
9.92801e-09
2.16552e-10
-2.58658e-10
-1.05267e-11
1.10592e-08
8.53158e-10
-7.70942e-10
3.6836e-10
6.47526e-09
-1.84982e-09
7.52767e-10
1.04364e-08
-2.35107e-09
1.71556e-08
1.16176e-10
-1.65791e-10
1.46182e-08
-4.68223e-10
-8.80335e-10
-2.45717e-10
1.35144e-08
1.51955e-09
8.05233e-10
7.94927e-09
-3.58418e-09
1.19491e-08
-4.09956e-11
1.17221e-09
8.21131e-09
-4.01621e-10
2.6761e-10
-1.3957e-10
1.00103e-08
-2.0047e-09
-2.9854e-10
1.11065e-08
-7.11741e-11
1.24576e-08
-1.71827e-09
1.56036e-08
-1.34977e-09
-9.61047e-10
9.4141e-11
9.98539e-09
1.51213e-09
-8.49337e-10
1.06583e-08
-9.7759e-10
5.07442e-09
1.79785e-09
-6.50627e-10
-2.64992e-10
1.05429e-08
1.9951e-09
-6.54939e-10
5.83993e-11
5.18208e-09
2.6192e-10
4.38226e-10
8.54346e-09
5.09286e-10
1.8195e-08
-9.97125e-10
-1.21991e-09
1.63838e-08
1.86446e-10
-1.8866e-10
6.09853e-11
1.27033e-08
5.11077e-11
9.54108e-10
7.19361e-09
-3.62558e-11
1.25183e-08
3.62793e-10
1.19024e-09
4.71984e-09
7.18545e-10
7.79703e-10
4.81384e-11
9.60627e-09
-6.96193e-10
2.93753e-10
1.32428e-08
4.44729e-10
1.04175e-08
-5.61735e-10
1.68821e-08
-3.99987e-10
8.73436e-10
5.89096e-10
7.56787e-09
1.31484e-09
-6.7582e-11
1.12994e-08
3.09352e-10
2.93598e-09
2.3835e-09
-3.02615e-10
-1.38161e-09
9.44455e-09
4.30214e-10
-2.66901e-10
-1.40513e-10
6.57809e-09
-1.42173e-09
-1.5689e-10
1.04322e-08
8.46299e-10
1.29363e-08
8.35567e-11
1.23713e-09
1.17068e-08
1.97472e-09
5.10204e-10
6.00004e-10
1.15362e-08
-1.04094e-09
-5.82135e-10
9.17e-09
2.53979e-09
8.03843e-09
-5.11025e-10
-1.70409e-10
4.42215e-09
2.21626e-09
-7.34082e-10
1.40484e-09
9.0245e-09
1.75871e-09
1.99762e-09
8.17024e-09
-7.43299e-11
1.49871e-08
1.01859e-09
1.20737e-08
2.40627e-09
1.21317e-09
-2.38211e-10
1.03115e-08
-8.19593e-11
-6.83871e-10
1.34107e-08
3.3196e-10
1.95834e-09
-5.5681e-10
-1.18409e-09
-8.68892e-10
1.22349e-08
-7.52839e-11
-2.15248e-09
-2.02303e-10
8.43279e-09
-1.64576e-09
-1.94343e-10
1.00625e-08
1.72522e-09
9.31664e-09
-4.51274e-11
1.60511e-09
8.02791e-09
1.25002e-09
-1.7087e-09
1.41632e-09
1.15811e-08
4.18948e-10
2.02537e-09
4.82264e-09
1.02438e-09
7.73862e-09
-5.27173e-10
1.04719e-09
6.78451e-09
-1.27726e-09
-4.30261e-11
5.4609e-10
9.41059e-09
-1.70615e-09
-4.06296e-10
1.2265e-08
8.31457e-10
1.35304e-08
-1.46036e-09
2.13041e-08
-4.32303e-09
-2.39982e-09
-1.38812e-09
1.14502e-08
-6.64897e-10
-5.54539e-10
1.19659e-08
2.04931e-10
1.70481e-09
-2.84651e-11
-1.60919e-10
-3.60977e-09
9.25085e-09
4.79837e-09
5.86168e-11
-6.03275e-11
8.18103e-09
2.54893e-10
1.88009e-10
1.00465e-08
7.20327e-10
8.36578e-09
1.68853e-09
2.47759e-09
-2.24555e-09
2.49757e-09
-7.1189e-12
1.71909e-10
1.30446e-08
2.28962e-10
-5.34379e-10
5.30895e-09
-4.02544e-10
9.36882e-09
-1.1492e-09
-1.27262e-09
1.28973e-08
-1.21335e-09
-2.26932e-09
-4.40626e-10
1.11432e-08
-4.59428e-11
-6.64471e-10
1.01718e-08
8.67481e-10
1.22222e-08
-1.48934e-09
1.98676e-08
-5.08562e-10
2.16177e-09
-1.72679e-09
1.0944e-08
3.03105e-10
8.13493e-10
7.60786e-09
1.15332e-09
5.43713e-09
5.44801e-10
7.21837e-09
-6.49502e-09
1.52701e-08
-2.86863e-09
3.73604e-09
1.27514e-09
1.25285e-08
1.88226e-09
1.67199e-09
9.8469e-09
2.35639e-09
1.40485e-08
-1.13525e-08
-4.42547e-09
-6.94509e-09
1.39825e-08
3.2052e-10
-2.35781e-09
5.00447e-09
-1.85502e-10
8.42404e-10
6.64457e-09
2.34858e-10
1.15107e-08
-2.04666e-10
-8.69327e-10
1.08967e-08
-1.35093e-09
-1.89431e-10
-1.31782e-09
1.0088e-08
-8.65829e-10
-3.47878e-10
1.20384e-08
-1.85275e-09
1.24162e-08
5.24224e-10
1.43108e-08
2.20412e-09
1.95916e-09
1.60656e-09
9.10376e-09
-5.59942e-10
-2.69576e-10
7.95133e-09
1.18481e-09
7.75929e-09
-3.16679e-09
1.93472e-10
3.511e-09
1.43102e-08
-1.16785e-10
6.34891e-10
9.92466e-11
1.2914e-08
1.28895e-09
-2.31649e-10
9.38138e-09
-4.32462e-10
1.25941e-08
-6.9335e-09
-7.5206e-09
1.24239e-08
-1.40384e-09
-2.21431e-09
-2.80016e-09
3.18474e-09
-7.43451e-10
-1.76954e-09
6.71173e-09
-1.04843e-09
1.10007e-08
-1.01724e-09
-3.48749e-09
8.70048e-09
-8.19823e-10
-2.69713e-10
-1.81958e-09
8.35994e-09
4.3876e-10
-1.39922e-09
1.09597e-08
-1.44456e-09
1.13935e-08
1.30853e-10
1.15642e-08
-1.21684e-09
3.45046e-10
9.42423e-10
8.03751e-09
-1.56482e-09
1.07243e-09
8.29952e-09
-1.87744e-09
8.57979e-09
-3.19213e-09
-3.95411e-10
1.04639e-09
1.17349e-08
3.54994e-09
1.24436e-10
2.38587e-09
1.13861e-08
-1.56406e-09
7.01646e-10
1.08395e-08
9.58689e-10
1.18875e-08
2.10593e-09
1.03403e-09
1.03889e-08
-5.85717e-11
-9.99323e-10
-6.57347e-11
8.7416e-09
-2.66845e-09
-6.47827e-10
9.73047e-09
1.97396e-10
1.12587e-08
3.30583e-11
-7.06738e-10
1.03055e-08
1.0268e-10
-1.38059e-09
-3.32398e-10
1.00403e-08
-1.50146e-09
-3.22292e-10
1.0755e-08
-3.87927e-10
1.13337e-08
5.40036e-10
1.11084e-08
-1.30245e-09
5.11581e-10
-8.48655e-10
1.00664e-08
-9.72574e-10
-1.42848e-09
1.0355e-08
-1.79795e-09
1.08127e-08
-2.8107e-09
-2.47151e-10
9.41616e-10
1.13164e-08
8.42391e-10
-1.82745e-10
1.03666e-09
1.11843e-08
-4.92473e-10
5.18336e-10
1.11262e-08
4.24601e-10
1.15236e-08
1.89026e-10
2.93409e-10
1.09592e-08
-1.11043e-10
-5.62809e-10
5.97077e-11
1.04705e-08
-9.63117e-10
-1.06155e-10
1.07554e-08
1.62205e-11
1.13127e-08
-3.05202e-10
-2.18786e-10
1.08505e-08
2.72472e-10
-6.55708e-10
-2.79656e-10
1.07302e-08
-6.89758e-10
-3.25681e-10
1.10087e-08
-3.92923e-10
1.13326e-08
-3.24698e-10
1.10683e-08
-4.58172e-10
6.04165e-10
-6.47884e-10
1.08137e-08
-7.03698e-10
-7.06471e-10
1.10269e-08
-9.38913e-10
1.13432e-08
-1.35574e-09
-3.09737e-11
5.40367e-10
1.13374e-08
2.06096e-10
-6.30058e-11
5.27918e-10
1.13033e-08
-1.64265e-10
3.43644e-10
1.13174e-08
2.62737e-10
1.14679e-08
3.50103e-11
2.65271e-10
1.12035e-08
-4.19714e-12
-1.97847e-10
1.34862e-10
1.10965e-08
-3.38162e-10
4.47079e-11
1.11948e-08
3.07002e-11
1.13955e-08
-1.37143e-10
-6.38514e-11
1.11493e-08
1.67515e-10
-2.84733e-10
-1.18631e-10
1.11314e-08
-3.17748e-10
-1.62214e-10
1.12488e-08
-2.17691e-10
1.14049e-08
-1.68311e-10
1.12214e-08
-2.62881e-10
2.14411e-10
-3.16908e-10
1.1202e-08
-3.58107e-10
-3.50777e-10
1.13139e-08
-4.15255e-10
1.14795e-08
-5.63997e-10
1.15394e-11
3.5117e-10
1.14152e-08
3.60181e-11
-2.46581e-12
3.14894e-10
1.14094e-08
-2.3077e-11
2.37475e-10
1.1423e-08
1.81772e-10
1.14763e-08
-1.22538e-11
2.09647e-10
1.13437e-08
1.37392e-11
-7.05149e-11
1.40618e-10
1.13292e-08
-9.61492e-11
8.74777e-11
1.13706e-08
5.73427e-11
1.1445e-08
-8.7094e-11
3.85515e-11
1.13073e-08
1.00224e-10
-1.25155e-10
-1.3697e-11
1.13239e-08
-1.19791e-10
-4.79964e-11
1.1379e-08
-8.21398e-11
1.14494e-08
-1.24465e-10
1.1327e-08
-7.39309e-11
1.31458e-10
-1.57958e-10
1.13561e-08
-1.3416e-10
-1.43764e-10
1.1418e-08
-1.66139e-10
1.14968e-08
-2.23671e-10
2.33142e-11
2.38452e-10
1.14693e-08
-5.10595e-12
2.42533e-11
2.11283e-10
1.14693e-08
2.80229e-11
1.72984e-10
1.14755e-08
1.40006e-10
1.14908e-08
-1.9712e-12
1.57302e-10
1.14245e-08
2.33982e-12
-1.17386e-11
1.2233e-10
1.1428e-08
-5.2466e-12
9.13639e-11
1.14459e-08
6.86558e-11
1.14715e-08
-3.84619e-11
6.21932e-11
1.13989e-08
4.20485e-11
-4.21401e-11
3.43429e-11
1.14157e-08
-2.48766e-11
1.14305e-11
1.14417e-08
-9.25734e-12
1.14714e-08
-6.29507e-11
1.13968e-08
-5.56393e-12
6.09957e-11
-6.37255e-11
1.14264e-08
-3.49958e-11
-3.95613e-11
1.14587e-08
-5.33937e-11
1.14928e-08
-7.81905e-11
2.76353e-11
1.65551e-10
1.14998e-08
-1.81982e-11
3.41187e-11
1.48738e-10
1.14995e-08
4.41226e-11
1.28444e-10
1.15002e-08
1.10181e-10
1.15021e-08
1.08038e-11
1.17857e-10
1.14697e-08
-8.28406e-12
1.42403e-11
9.95987e-11
1.14737e-08
2.59259e-11
8.23381e-11
1.14803e-08
6.8072e-11
1.14875e-08
-7.70309e-12
6.38399e-11
1.14505e-08
1.01384e-11
-2.56739e-12
4.85776e-11
1.14616e-08
1.35967e-11
3.49102e-11
1.1473e-08
2.35435e-11
1.14836e-08
-2.16011e-11
1.14401e-08
2.04537e-11
2.17695e-11
-1.53863e-11
1.14613e-08
7.50474e-12
3.66799e-12
1.14776e-08
-2.98447e-12
1.14911e-08
-1.58845e-11
2.72711e-11
1.16118e-10
1.15147e-08
-2.01792e-11
3.45285e-11
1.06899e-10
1.15136e-08
4.38103e-11
9.59641e-11
1.15117e-08
8.5836e-11
1.1509e-08
1.75287e-11
8.81541e-11
1.14941e-08
-1.39399e-11
2.36193e-11
7.8587e-11
1.14959e-08
3.38007e-11
6.88558e-11
1.14973e-08
6.05285e-11
1.14974e-08
7.98656e-12
5.68643e-11
1.14793e-08
-5.49972e-12
1.41654e-11
4.84787e-11
1.14854e-08
2.59873e-11
4.03561e-11
1.14897e-08
3.35005e-11
1.14919e-08
2.83266e-13
1.1466e-08
2.92257e-11
1.46215e-12
6.72127e-12
1.14807e-08
2.26141e-11
1.98679e-11
1.14883e-08
1.65169e-11
1.14924e-08
9.6862e-12
2.43907e-11
8.21312e-11
1.15212e-08
-1.86556e-11
3.06243e-11
7.7456e-11
1.15196e-08
3.77979e-11
7.15949e-11
1.15169e-08
6.59395e-11
1.1513e-08
1.92595e-11
6.56516e-11
1.15068e-08
-1.55379e-11
2.47732e-11
6.07478e-11
1.15071e-08
3.22016e-11
5.5329e-11
1.15061e-08
5.04139e-11
1.15038e-08
1.43022e-11
4.70905e-11
1.14952e-08
-1.17502e-11
1.94736e-11
4.25177e-11
1.14984e-08
2.74858e-11
3.77784e-11
1.14992e-08
3.35669e-11
1.14981e-08
1.00524e-11
1.14814e-08
2.94251e-11
-7.90326e-12
1.50389e-11
1.14922e-08
2.59422e-11
2.35747e-11
1.14955e-08
2.20078e-11
1.14957e-08
1.80979e-11
2.0543e-11
5.8443e-11
1.15234e-08
-1.59809e-11
2.53984e-11
5.62423e-11
1.15218e-08
3.05253e-11
5.31676e-11
1.1519e-08
4.99795e-11
1.15152e-08
1.80156e-11
4.86574e-11
1.15132e-08
-1.47383e-11
2.22802e-11
4.6223e-11
1.15127e-08
2.73645e-11
4.32157e-11
1.15109e-08
4.02827e-11
1.1508e-08
1.54921e-11
3.74194e-11
1.15041e-08
-1.31985e-11
1.93474e-11
3.494e-11
1.15057e-08
2.45075e-11
3.21581e-11
1.1505e-08
2.95055e-11
1.15029e-08
1.32512e-11
1.14907e-08
2.59712e-11
-1.11593e-11
1.6763e-11
1.14994e-08
2.41423e-11
2.19633e-11
1.15007e-08
2.16965e-11
1.14995e-08
1.91919e-11
1.65956e-11
4.17025e-11
1.15237e-08
-1.3099e-11
2.01847e-11
4.07798e-11
1.15223e-08
2.37241e-11
3.92052e-11
1.15198e-08
3.73976e-11
1.15165e-08
1.54468e-11
3.58492e-11
1.15163e-08
-1.28259e-11
1.85672e-11
3.46752e-11
1.15156e-08
2.19268e-11
3.30293e-11
1.15136e-08
3.12595e-11
1.15108e-08
1.42421e-11
2.89054e-11
1.1509e-08
-1.23335e-11
1.69436e-11
2.75725e-11
1.15101e-08
2.01815e-11
2.59401e-11
1.15088e-08
2.42403e-11
1.15065e-08
1.30769e-11
1.14963e-08
2.13937e-11
-1.12889e-11
1.54042e-11
1.15041e-08
2.046e-11
1.84979e-11
1.15046e-08
1.8911e-11
1.1503e-08
1.72366e-11
1.29558e-11
2.96999e-11
1.15232e-08
-1.03554e-11
1.55305e-11
2.94042e-11
1.15221e-08
1.79241e-11
2.86236e-11
1.15199e-08
2.75945e-11
1.15172e-08
1.25005e-11
2.6163e-11
1.15177e-08
-1.05067e-11
1.47131e-11
2.5641e-11
1.15171e-08
1.68979e-11
2.47467e-11
1.15153e-08
2.36697e-11
1.15128e-08
1.19588e-11
2.18122e-11
1.15118e-08
-1.04894e-11
1.38221e-11
2.11057e-11
1.15127e-08
1.58244e-11
2.01418e-11
1.15113e-08
1.90427e-11
1.15092e-08
1.13783e-11
1.14998e-08
1.68445e-11
-9.98097e-12
1.29117e-11
1.15073e-08
1.63748e-11
1.47141e-11
1.15075e-08
1.53847e-11
1.1506e-08
1.42476e-11
9.77177e-12
2.09449e-11
1.15226e-08
-7.89471e-12
1.15761e-11
2.09331e-11
1.15217e-08
1.31672e-11
2.05655e-11
1.15199e-08
1.99806e-11
1.15177e-08
9.64713e-12
1.87924e-11
1.15184e-08
-8.1866e-12
1.11793e-11
1.85968e-11
1.15179e-08
1.25827e-11
1.81167e-11
1.15163e-08
1.74589e-11
1.15142e-08
9.43434e-12
1.6046e-11
1.15134e-08
-8.35037e-12
1.06951e-11
1.56793e-11
1.15143e-08
1.19211e-11
1.51092e-11
1.15131e-08
1.43988e-11
1.15113e-08
9.1591e-12
1.15021e-08
1.27574e-11
-8.11988e-12
1.0156e-11
1.15094e-08
1.25281e-11
1.11918e-11
1.15097e-08
1.18922e-11
1.15084e-08
1.11209e-11
7.05459e-12
1.44084e-11
1.1522e-08
-5.74753e-12
8.28159e-12
1.4502e-11
1.15213e-08
9.31511e-12
1.43423e-11
1.15198e-08
1.40129e-11
1.1518e-08
7.06993e-12
1.31029e-11
1.15186e-08
-6.04241e-12
8.10023e-12
1.3058e-11
1.15183e-08
8.98511e-12
1.28056e-11
1.15169e-08
1.24061e-11
1.15152e-08
7.01008e-12
1.13789e-11
1.15143e-08
-6.245e-12
7.84189e-12
1.11943e-11
1.15154e-08
8.58024e-12
1.08597e-11
1.15143e-08
1.04066e-11
1.15128e-08
6.88942e-12
1.15035e-08
9.22971e-12
-6.14979e-12
7.5253e-12
1.15109e-08
9.12453e-12
8.10902e-12
1.15113e-08
8.71973e-12
1.15102e-08
8.20601e-12
4.74154e-12
9.3639e-12
1.15215e-08
-3.88567e-12
5.52953e-12
9.47148e-12
1.1521e-08
6.16968e-12
9.40965e-12
1.15197e-08
9.2288e-12
1.15182e-08
4.79792e-12
8.59768e-12
1.15187e-08
-4.12032e-12
5.45318e-12
8.60955e-12
1.15185e-08
5.98739e-12
8.48125e-12
1.15173e-08
8.24555e-12
1.15159e-08
4.79885e-12
7.55305e-12
1.15148e-08
-4.29159e-12
5.31986e-12
7.46414e-12
1.1516e-08
5.74716e-12
7.27362e-12
1.15151e-08
6.99624e-12
1.15138e-08
4.75237e-12
1.15043e-08
6.20947e-12
-4.25887e-12
5.13987e-12
1.15118e-08
6.16588e-12
5.45581e-12
1.15123e-08
5.91828e-12
1.15114e-08
5.59291e-12
2.74698e-12
5.33014e-12
1.15212e-08
-2.25904e-12
3.18899e-12
5.40872e-12
1.15208e-08
3.53972e-12
5.38853e-12
1.15197e-08
5.29709e-12
1.15183e-08
2.79637e-12
4.92687e-12
1.15187e-08
-2.40847e-12
3.16047e-12
4.9489e-12
1.15187e-08
3.44648e-12
4.88911e-12
1.15176e-08
4.76374e-12
1.15163e-08
2.81204e-12
4.36106e-12
1.15151e-08
-2.52011e-12
3.09749e-12
4.32211e-12
1.15164e-08
3.31792e-12
4.22404e-12
1.15156e-08
4.07304e-12
1.15144e-08
2.79761e-12
1.15048e-08
3.6167e-12
-2.51244e-12
3.00513e-12
1.15124e-08
3.60092e-12
3.15806e-12
1.1513e-08
3.46662e-12
1.15121e-08
3.2855e-12
1.15602e-12
2.3791e-12
-9.56206e-13
1.3344e-12
2.42022e-12
1.47361e-12
2.41693e-12
2.38008e-12
1.18413e-12
2.20881e-12
-1.02827e-12
1.3273e-12
2.22646e-12
1.43608e-12
2.20643e-12
2.1554e-12
1.19892e-12
1.96215e-12
-1.08641e-12
1.30582e-12
1.9543e-12
1.38352e-12
1.91837e-12
1.857e-12
1.20148e-12
1.6342e-12
-1.09437e-12
1.27244e-12
1.63584e-12
1.31824e-12
1.58532e-12
1.51175e-12
-1.99263e-09
-7.55162e-10
1.18545e-08
-4.43193e-10
2.34082e-10
2.47807e-10
6.76865e-09
-2.48263e-09
-1.18423e-09
1.73483e-08
5.11247e-10
8.39238e-09
-9.16073e-10
4.94108e-10
7.76551e-09
2.45855e-10
-4.64446e-10
3.26046e-09
7.31275e-09
-5.73204e-10
2.36638e-09
9.21512e-09
1.32829e-09
1.23006e-08
-8.56143e-11
2.23738e-09
8.17685e-09
-1.15873e-10
-1.04653e-09
-1.21267e-09
1.76955e-08
-1.30978e-09
1.91394e-09
1.48628e-08
-5.85993e-11
1.45539e-08
-9.54322e-10
1.4616e-08
-2.09803e-10
1.78528e-10
1.14346e-08
-2.15538e-09
1.98331e-08
1.4958e-08
4.29618e-10
2.1133e-09
8.00181e-09
-3.99389e-11
-1.95703e-09
2.73556e-10
1.03939e-08
2.72424e-09
9.23244e-10
1.07662e-08
-7.58844e-11
1.54821e-08
1.1003e-10
8.87296e-10
9.34881e-09
-4.67321e-10
-4.90604e-10
2.57026e-10
7.92992e-09
1.12507e-09
2.09762e-09
6.42508e-09
-2.02143e-09
1.67884e-08
-4.09333e-10
9.04151e-10
8.05873e-09
5.10604e-10
-7.06889e-11
2.43776e-09
1.51762e-08
-9.06198e-10
-1.23005e-09
1.9026e-08
9.30332e-11
1.15677e-08
2.15146e-10
1.46489e-08
2.76466e-10
-1.10102e-09
1.51623e-08
-2.13331e-10
1.77344e-08
1.37287e-08
1.18307e-09
2.62004e-09
3.54301e-09
2.55713e-10
1.57072e-10
4.07962e-09
8.65511e-09
2.05216e-09
1.29476e-09
7.88572e-09
5.62894e-10
2.17531e-08
1.01285e-09
8.86145e-10
1.02647e-08
-1.94848e-10
-4.94095e-10
-1.32544e-09
1.48419e-08
-9.51541e-11
4.2183e-10
6.89908e-09
1.34858e-10
1.85653e-08
-2.64164e-10
-5.68872e-10
1.01502e-08
-3.72297e-10
3.05399e-10
8.76311e-11
1.31935e-08
-1.95665e-10
-1.64428e-09
2.15932e-08
1.59754e-09
9.93586e-09
-2.25371e-10
1.41209e-08
6.16009e-11
-2.78642e-10
1.52523e-08
1.30165e-09
1.45375e-08
1.88607e-08
-8.50058e-10
-3.30817e-09
1.08639e-08
-7.5637e-10
1.9902e-10
5.55912e-10
6.96816e-09
-2.73363e-09
1.58846e-10
1.09915e-08
4.47415e-10
1.46735e-08
-1.89539e-11
-1.11022e-09
8.16195e-09
-7.62359e-11
5.77844e-10
2.35063e-09
1.24504e-08
-1.59907e-09
7.64739e-10
8.47011e-09
3.84839e-09
1.04515e-08
1.07044e-09
1.12527e-09
6.91228e-09
-6.79892e-11
1.89582e-10
1.88723e-09
1.45378e-08
6.38665e-10
-1.70903e-09
2.36179e-08
5.0508e-10
1.46451e-08
8.18353e-10
1.43234e-08
1.09879e-10
-8.413e-10
1.87586e-08
1.61519e-09
1.03658e-08
2.21551e-08
-1.51247e-09
-1.28792e-09
9.95379e-09
-6.12531e-10
-3.59413e-10
-1.38143e-09
6.53164e-09
-1.11071e-09
1.05263e-09
1.08951e-08
2.94681e-09
7.91767e-09
-4.48324e-10
-4.09049e-10
8.07591e-09
-3.44514e-10
7.3923e-10
8.41445e-10
9.03998e-09
9.45977e-10
5.13089e-10
8.80291e-09
-8.90439e-10
1.69447e-08
9.07309e-11
1.81446e-10
6.24748e-09
-1.64256e-11
1.14043e-09
1.28682e-09
1.30427e-08
1.1898e-09
-4.57251e-10
2.45389e-08
3.49198e-09
1.17258e-08
5.84318e-10
1.41848e-08
-3.32475e-10
2.54088e-10
2.03039e-08
1.5986e-09
8.45059e-09
2.8083e-08
-6.99579e-11
1.28513e-09
8.04884e-09
1.81217e-10
-3.00068e-10
8.95603e-11
6.9753e-09
5.68476e-10
1.49266e-09
9.6872e-09
6.95187e-10
1.42565e-08
-2.34438e-10
-6.01551e-10
9.85713e-09
3.39909e-10
5.50151e-10
-2.95547e-10
8.6405e-09
-2.89423e-10
-1.63357e-09
1.27687e-08
2.08396e-09
1.66253e-08
-2.48867e-10
-1.77901e-09
7.94489e-09
-2.71078e-10
-2.33296e-10
9.58111e-10
1.17735e-08
1.09097e-09
2.84954e-09
1.87315e-08
-2.76892e-09
1.86087e-08
5.62775e-10
1.21655e-08
-2.67027e-10
6.9842e-11
2.1611e-08
6.23795e-10
1.0445e-08
2.64609e-08
-5.5924e-10
2.82728e-09
8.24158e-09
-2.56615e-10
2.3982e-09
-1.68052e-09
5.13846e-09
2.89081e-09
1.54894e-09
8.83047e-09
-1.33708e-09
1.4919e-08
8.36134e-10
-1.22699e-09
1.22529e-08
8.22407e-10
9.99821e-10
-2.16296e-09
8.95925e-09
-1.2909e-09
1.70571e-09
1.49027e-08
-1.00825e-09
1.66938e-08
3.07425e-09
-5.7234e-09
9.63488e-09
-2.67828e-10
-4.74586e-10
-8.08732e-10
1.39681e-08
-1.57357e-10
3.65795e-09
1.64621e-08
-1.00066e-09
1.84262e-08
-6.93626e-10
5.2899e-09
2.31638e-09
1.94034e-09
1.81759e-08
7.7544e-10
1.32942e-08
2.7592e-08
-9.42556e-10
-1.00364e-09
8.57472e-09
3.96478e-10
-5.92451e-10
-2.09985e-09
5.32346e-09
-9.52935e-10
-2.29333e-09
9.60677e-09
-3.15186e-09
1.39176e-08
-9.16223e-10
-1.24065e-09
1.25727e-08
8.33593e-10
-1.48958e-09
-2.61417e-09
1.00469e-08
-1.63551e-09
-7.95329e-10
1.35506e-08
-1.86758e-09
1.56862e-08
-1.0851e-09
-1.71845e-09
9.95377e-09
1.24402e-09
-1.32259e-09
-2.60693e-09
1.41984e-08
-1.03293e-09
5.46037e-10
1.48311e-08
-2.07202e-09
1.69562e-08
-1.38414e-09
3.94728e-09
1.00832e-09
-5.77766e-10
1.47626e-08
-5.59652e-10
1.38222e-08
2.29514e-08
-1.67112e-10
-2.51755e-10
7.01158e-09
6.79668e-10
-1.93477e-09
-2.21363e-09
8.33225e-09
-3.44964e-09
-1.49664e-09
1.08202e-08
-1.15396e-09
1.34519e-08
-3.89676e-10
2.79512e-09
8.9041e-09
1.01155e-09
-1.26459e-09
-2.0103e-09
1.07185e-08
-2.09938e-09
-1.03151e-10
1.29919e-08
-6.03773e-10
1.54583e-08
-1.09401e-09
3.65604e-09
9.2266e-09
9.60274e-10
-9.86738e-10
-7.80036e-10
1.28609e-08
-1.60822e-09
8.64191e-10
1.44853e-08
-1.45714e-09
1.72681e-08
-1.47271e-09
8.55097e-09
5.2508e-10
-1.28954e-09
1.37994e-08
-1.8467e-09
1.52435e-08
1.97868e-08
-5.72728e-10
-1.88204e-10
6.87061e-09
4.43815e-10
-1.05723e-09
-9.66427e-10
9.07963e-09
-1.41052e-09
-8.38303e-10
1.10729e-08
-1.05364e-09
1.26808e-08
-6.76993e-10
5.7603e-10
8.30183e-09
5.15131e-10
-9.06919e-10
-8.0015e-10
1.07822e-08
-1.15288e-09
-3.85214e-10
1.27849e-08
-7.62326e-10
1.45429e-08
-8.58387e-10
9.03693e-10
9.26609e-09
4.91311e-10
-8.23142e-10
-2.86529e-10
1.23122e-08
-1.00439e-09
4.27205e-11
1.42387e-08
-6.02254e-10
1.62681e-08
-8.9255e-10
9.94526e-09
4.02014e-10
-8.70564e-10
1.3491e-08
-9.82587e-10
1.53984e-08
1.80034e-08
-2.62353e-10
-1.17628e-10
6.78539e-09
2.02437e-10
-4.41186e-10
-3.835e-10
9.28402e-09
-5.67196e-10
-3.70528e-10
1.11543e-08
-5.18558e-10
1.23457e-08
-2.95869e-10
1.06761e-10
8.15506e-09
2.18394e-10
-4.00122e-10
-3.1333e-10
1.08164e-08
-5.23526e-10
-2.29776e-10
1.27677e-08
-4.41876e-10
1.41052e-08
-3.52381e-10
1.72854e-10
9.34626e-09
2.06233e-10
-3.78552e-10
-1.92042e-10
1.22172e-08
-4.89185e-10
-1.04264e-10
1.4224e-08
-3.62783e-10
1.57422e-08
-3.587e-10
1.02979e-08
1.78975e-10
-3.87385e-10
1.33278e-08
-4.62125e-10
1.53689e-08
1.71011e-08
-1.53287e-10
-3.28598e-11
6.81088e-09
8.68708e-11
-2.08446e-10
-1.47679e-10
9.35286e-09
-2.20485e-10
-1.69431e-10
1.11698e-08
-2.47241e-10
1.21909e-08
-1.72824e-10
3.0583e-11
8.17166e-09
9.29314e-11
-2.0953e-10
-1.21722e-10
1.08273e-08
-2.27746e-10
-1.25395e-10
1.27419e-08
-2.26011e-10
1.38685e-08
-1.8979e-10
6.42139e-11
9.41081e-09
9.17147e-11
-2.05381e-10
-6.83508e-11
1.21796e-08
-2.242e-10
-6.41106e-11
1.41816e-08
-1.67926e-10
1.54222e-08
-1.88655e-10
1.04654e-08
8.55263e-11
-2.05247e-10
1.32761e-08
-2.14684e-10
1.53143e-08
1.66524e-08
-6.67786e-11
3.65621e-12
6.83966e-09
2.89075e-11
-8.56004e-11
-4.68084e-11
9.38363e-09
-7.12993e-11
-6.91403e-11
1.11713e-08
-1.0681e-10
1.21195e-08
-7.84156e-11
1.75752e-11
8.20342e-09
3.28599e-11
-9.45691e-11
-4.2707e-11
1.08394e-08
-8.34289e-11
-6.04878e-11
1.27222e-08
-1.08052e-10
1.37469e-08
-8.62232e-11
2.15922e-11
9.45872e-09
3.43709e-11
-9.71351e-11
-2.65126e-11
1.21744e-08
-8.8608e-11
-3.5144e-11
1.41478e-08
-7.91398e-11
1.52535e-08
-8.49488e-11
1.05391e-08
3.28861e-11
-9.6923e-11
1.32616e-08
-8.80555e-11
1.52704e-08
1.64307e-08
-1.92807e-11
1.92304e-11
6.85975e-09
5.06178e-13
-2.4195e-11
-4.46884e-12
9.40059e-09
-8.15054e-12
-1.92841e-11
1.11716e-08
-3.77981e-11
1.20898e-08
-2.69722e-11
1.80696e-11
8.22739e-09
4.24178e-12
-3.33368e-11
-8.66886e-12
1.085e-08
-1.76802e-11
-2.35002e-11
1.27108e-08
-4.53955e-11
1.3691e-08
-3.22486e-11
1.33035e-11
9.4891e-09
6.6587e-12
-3.79184e-11
-7.1527e-12
1.21786e-08
-2.45599e-11
-1.61976e-11
1.41272e-08
-3.52274e-11
1.51717e-08
-3.2744e-11
1.05778e-08
7.36041e-12
-3.92787e-11
1.3261e-08
-2.75713e-11
1.52425e-08
1.63242e-08
3.99095e-12
2.40271e-11
6.87278e-09
-1.17605e-11
3.54422e-12
1.25287e-11
9.41113e-09
1.42995e-11
3.29639e-12
1.1174e-08
-5.96479e-12
1.20792e-08
-1.63709e-12
1.81792e-11
8.24327e-09
-8.38318e-12
-3.36733e-12
5.40444e-12
1.08588e-08
7.30336e-12
-3.79831e-12
1.27072e-08
-1.46458e-11
1.36672e-08
-5.4497e-12
1.06439e-11
9.50814e-09
-6.10498e-12
-7.97605e-12
1.27299e-12
1.21852e-08
2.34766e-12
-4.71364e-12
1.41178e-08
-1.36765e-11
1.51352e-08
-6.63617e-12
1.06004e-08
-5.33268e-12
-1.00437e-11
1.32657e-08
-7.03085e-13
1.52284e-08
1.62759e-08
1.34255e-11
2.3308e-11
6.88111e-09
-1.55885e-11
1.4621e-11
1.75369e-11
9.41831e-09
2.10025e-11
1.23763e-11
1.11772e-08
7.55911e-12
1.20771e-08
9.4677e-12
1.65573e-11
8.25349e-09
-1.29539e-11
9.5805e-12
1.04917e-11
1.08656e-08
1.62466e-11
5.08192e-12
1.27078e-08
-2.23821e-13
1.36593e-08
6.24413e-12
8.93708e-12
9.52027e-09
-1.08297e-11
6.00951e-12
4.55009e-12
1.21913e-08
1.23043e-11
9.86389e-13
1.41156e-08
-3.22263e-12
1.51209e-08
4.61402e-12
1.06144e-08
-9.78948e-12
3.65328e-12
1.32712e-08
9.37326e-12
1.52237e-08
1.62561e-08
1.59161e-11
2.02704e-11
6.88639e-09
-1.5463e-11
1.74367e-11
1.74912e-11
9.42339e-09
2.10655e-11
1.44971e-11
1.11807e-08
1.19403e-11
1.20788e-08
1.30554e-11
1.40693e-11
8.26005e-09
-1.345e-11
1.38896e-11
1.12184e-11
1.08709e-08
1.77294e-11
8.20886e-12
1.27102e-08
5.68487e-12
1.36583e-08
1.0514e-11
7.3484e-12
9.52804e-09
-1.1663e-11
1.09557e-11
5.3517e-12
1.21967e-08
1.46794e-11
3.31844e-12
1.41168e-08
1.42915e-12
1.51171e-08
8.92488e-12
1.06234e-08
-1.06189e-11
8.92705e-12
1.32765e-08
1.21096e-11
1.52238e-08
1.62498e-08
1.50453e-11
1.65857e-11
6.8898e-09
-1.35995e-11
1.64759e-11
1.53309e-11
9.42705e-09
1.83793e-11
1.37068e-11
1.1184e-08
1.22789e-11
1.20816e-08
1.29976e-11
1.1388e-11
8.26431e-09
-1.20886e-11
1.40097e-11
1.01516e-11
1.0875e-08
1.60475e-11
8.61208e-12
1.27132e-08
7.35974e-12
1.36603e-08
1.10521e-11
5.85522e-12
9.53311e-09
-1.06724e-11
1.17885e-11
5.01158e-12
1.2201e-08
1.3786e-11
3.98063e-12
1.41194e-08
3.10654e-12
1.5118e-08
9.66529e-12
1.06292e-08
-9.73748e-12
1.00742e-11
1.32811e-08
1.17769e-11
1.52261e-08
1.62497e-08
1.2816e-11
1.3009e-11
6.89202e-09
-1.11557e-11
1.39973e-11
1.25173e-11
9.4297e-09
1.49155e-11
1.16594e-11
1.11868e-08
1.08488e-11
1.20845e-08
1.13578e-11
8.88027e-12
8.26711e-09
-1.00471e-11
1.22919e-11
8.4428e-12
1.08781e-08
1.32971e-11
7.71014e-12
1.27162e-08
7.10372e-12
1.36632e-08
9.88896e-12
4.52289e-12
9.53645e-09
-8.94668e-12
1.06501e-11
4.24095e-12
1.22044e-08
1.16471e-11
3.77042e-12
1.41223e-08
3.38159e-12
1.51206e-08
8.75796e-12
1.06331e-08
-8.17712e-12
9.28122e-12
1.32848e-08
1.01053e-11
1.5229e-08
1.6252e-08
1.0189e-11
9.83186e-12
6.89348e-09
-8.67839e-12
1.11017e-11
9.70092e-12
9.43162e-09
1.14931e-11
9.26283e-12
1.1189e-08
8.79971e-12
1.20871e-08
9.16148e-12
6.6899e-12
8.26897e-09
-7.88087e-12
9.93145e-12
6.61859e-12
1.08804e-08
1.03776e-11
6.30718e-12
1.27187e-08
6.02811e-12
1.36659e-08
8.08674e-12
3.38869e-12
9.53868e-09
-7.05781e-12
8.74848e-12
3.36046e-12
1.2207e-08
9.19395e-12
3.18009e-12
1.4125e-08
3.02497e-12
1.51234e-08
7.20793e-12
1.06358e-08
-6.45168e-12
7.70065e-12
1.32877e-08
8.04625e-12
1.52318e-08
1.62549e-08
7.60501e-12
7.10702e-12
6.89445e-09
-6.39152e-12
8.27018e-12
7.12735e-12
9.43297e-09
8.40117e-12
6.91334e-12
1.11907e-08
6.65098e-12
1.20891e-08
6.90074e-12
4.82624e-12
8.2702e-09
-5.83609e-12
7.48486e-12
4.89829e-12
1.0882e-08
7.64874e-12
4.79417e-12
1.27206e-08
4.67733e-12
1.36683e-08
6.14079e-12
2.4367e-12
9.54016e-09
-5.24587e-12
6.65638e-12
2.50575e-12
1.22089e-08
6.82469e-12
2.46278e-12
1.41272e-08
2.41474e-12
1.51259e-08
5.49487e-12
1.06375e-08
-4.7954e-12
5.89422e-12
1.32898e-08
6.00504e-12
1.52342e-08
1.62575e-08
5.22142e-12
4.78141e-12
6.89506e-09
-4.35027e-12
5.66934e-12
4.84597e-12
9.43387e-09
5.68676e-12
4.74781e-12
1.11918e-08
4.60397e-12
1.20906e-08
4.76608e-12
3.24342e-12
8.27098e-09
-3.98709e-12
5.16822e-12
3.34717e-12
1.08831e-08
5.20539e-12
3.33191e-12
1.2722e-08
3.29117e-12
1.36699e-08
4.26168e-12
1.63496e-12
9.5411e-09
-3.59223e-12
4.62286e-12
1.72259e-12
1.22102e-08
4.66565e-12
1.73359e-12
1.41287e-08
1.72927e-12
1.51278e-08
3.82197e-12
1.06386e-08
-3.28353e-12
4.10872e-12
1.32913e-08
4.11927e-12
1.52359e-08
1.62596e-08
3.07122e-12
2.78641e-12
6.8954e-09
-2.54692e-12
3.32776e-12
2.84356e-12
9.4344e-09
3.30838e-12
2.80362e-12
1.11925e-08
2.73294e-12
1.20915e-08
2.81329e-12
1.89121e-12
8.27141e-09
-2.33995e-12
3.04696e-12
1.97324e-12
1.08838e-08
3.03791e-12
1.98493e-12
1.27229e-08
1.97563e-12
1.3671e-08
2.52178e-12
9.56522e-13
9.54162e-09
-2.11075e-12
2.73444e-12
1.02391e-12
1.22109e-08
2.73014e-12
1.04569e-12
1.41297e-08
1.05331e-12
1.5129e-08
2.26165e-12
1.06392e-08
-1.92676e-12
2.43302e-12
1.32921e-08
2.41351e-12
1.5237e-08
1.62608e-08
1.35546e-12
1.26834e-12
-1.13357e-12
1.44544e-12
1.30794e-12
1.40277e-12
1.3002e-12
1.27384e-12
1.24617e-12
8.64077e-13
-1.04235e-12
1.32837e-12
9.15895e-13
1.29016e-12
9.30516e-13
9.30696e-13
1.11611e-12
4.30766e-13
-9.37069e-13
1.19216e-12
4.70378e-13
1.15889e-12
4.86759e-13
4.93216e-13
9.85825e-13
-8.39851e-13
1.04953e-12
1.01624e-12
2.73264e-09
1.11564e-09
1.49031e-08
-4.9279e-09
3.29806e-10
2.5483e-08
5.68294e-10
1.10307e-09
6.4324e-09
1.61491e-09
1.147e-08
-4.11184e-10
2.19789e-09
1.51202e-08
-1.7378e-09
1.69857e-09
1.42751e-08
-2.33584e-11
9.0837e-10
1.12076e-08
1.80214e-09
1.16104e-08
-4.83005e-09
-1.24349e-09
2.2103e-08
-2.94734e-09
-5.70048e-10
1.27393e-08
-4.02524e-11
9.43738e-10
7.98956e-09
6.58721e-11
1.35928e-08
-8.79372e-10
1.05766e-08
8.68123e-10
7.26595e-09
-1.64114e-09
1.20486e-08
5.40581e-09
9.02588e-10
-5.75606e-10
1.5519e-08
-9.83993e-10
-9.21974e-10
3.08238e-08
-2.22446e-10
-4.60994e-10
7.66237e-09
-1.18141e-09
1.40043e-08
4.67479e-10
1.23543e-09
1.2856e-08
-8.41121e-10
-5.30677e-10
1.51924e-08
-2.58811e-09
-6.07125e-10
1.31008e-08
8.23913e-11
7.29027e-09
-4.68795e-09
-4.60704e-10
2.85678e-08
-3.68831e-10
7.63427e-10
7.12606e-09
-1.78445e-09
-1.92711e-10
8.99077e-09
1.15256e-09
1.03365e-08
8.2908e-10
9.5909e-09
-3.72442e-09
1.30935e-08
4.5497e-10
7.20921e-09
6.01237e-09
-6.75744e-10
-2.18503e-09
1.73887e-08
-3.11499e-10
-1.35586e-09
3.50368e-08
-1.67516e-09
-8.21012e-10
1.09691e-08
-1.98147e-09
1.742e-08
3.06967e-09
2.27234e-11
7.72063e-09
-8.26175e-10
-2.90413e-10
1.80228e-08
-1.42296e-09
-7.94303e-10
1.36708e-08
7.34037e-11
3.99889e-09
3.2396e-09
8.95198e-10
2.44909e-08
-1.34552e-09
-3.53435e-10
1.17742e-08
2.39615e-10
3.99113e-10
6.21222e-09
-4.13846e-10
1.17819e-08
-8.18519e-10
1.14192e-08
-1.29314e-11
1.15622e-08
-1.87921e-09
9.27976e-09
4.84846e-09
-4.51976e-09
4.47959e-10
2.04233e-08
1.73523e-09
1.18371e-09
2.4358e-08
9.43423e-11
6.6855e-10
1.0122e-08
6.97121e-10
1.68946e-08
-2.95366e-09
-2.18724e-09
1.33972e-08
1.1345e-09
8.45297e-10
1.4273e-08
1.53955e-10
-9.53375e-11
1.54153e-08
5.81513e-10
6.24318e-09
5.71413e-09
1.24588e-09
1.53853e-08
-5.06921e-10
-9.12792e-10
1.97533e-08
1.07363e-09
-1.21449e-10
4.65779e-09
-1.11167e-09
1.6765e-08
-1.87384e-09
1.46886e-08
1.09011e-09
7.61746e-09
1.8901e-10
9.98318e-09
4.38261e-09
2.4673e-09
5.16258e-10
1.79042e-08
-1.77721e-09
-7.91502e-10
2.99247e-08
1.05792e-10
-3.42656e-10
7.50817e-09
-6.20858e-10
1.67549e-08
-1.08436e-09
-1.44009e-09
1.63742e-08
-5.63512e-10
-7.5858e-10
1.37193e-08
2.8004e-10
1.32666e-10
1.40964e-08
-3.87806e-10
7.5402e-09
2.08313e-09
-3.39627e-10
1.21532e-08
8.03099e-10
-1.04805e-09
2.13229e-08
-2.88823e-10
-9.8849e-10
6.87087e-09
9.53248e-11
1.47158e-08
4.895e-10
1.349e-08
2.90801e-10
6.75169e-09
1.69114e-09
7.24983e-09
3.15673e-09
1.04175e-08
1.99703e-09
5.58186e-09
1.17351e-09
-2.96411e-09
4.31205e-08
-4.95266e-10
-3.81659e-10
9.01272e-09
-1.64003e-09
2.46864e-08
-1.34532e-09
2.52608e-10