/*--------------------------------*- C++ -*----------------------------------*\
| =========                 |                                                 |
| \\      /  F ield         | OpenFOAM: The Open Source CFD Toolbox           |
|  \\    /   O peration     | Version:  2506                                  |
|   \\  /    A nd           | Website:  www.openfoam.com                      |
|    \\/     M anipulation  |                                                 |
\*---------------------------------------------------------------------------*/
FoamFile
{
    version     2.0;
    format      ascii;
    arch        "LSB;label=32;scalar=64";
    class       volVectorField;
    location    "0.01";
    object      stored_U;
}
// * * * * * * * * * * * * * * * * * * * * * * * * * * * * * * * * * * * * * //

dimensions      [0 1 -1 0 0 0 0];

internalField   nonuniform List<vector> 
1152
(
(-0.000567285 0.000329413 0.00391843)
(-0.000348403 -1.50677e-05 0.00297717)
(-0.000237435 -4.66216e-05 0.00405758)
(0.000538747 0.000142145 0.00378474)
(-0.000994061 0.00083174 0.0086138)
(-0.00104201 0.000895497 0.00660709)
(-0.000478117 0.000474826 0.00433434)
(6.30293e-05 0.000256128 0.00109948)
(-0.000748285 0.000542484 0.00440002)
(-0.000783636 0.000692545 0.00581265)
(-1.8164e-05 0.000636549 0.00529749)
(-0.000743653 0.00131653 0.00971851)
(-0.000549109 0.000905566 0.00604751)
(-0.000894901 0.000640323 0.0065264)
(-0.000498448 0.00065503 0.00497192)
(-0.000164256 0.000109407 0.00634151)
(-0.000679611 0.000387836 0.0100213)
(-0.00024136 0.000457 0.00389502)
(-0.000339923 0.000541547 0.00779741)
(-5.96274e-05 -1.3366e-05 3.13526e-05)
(6.74737e-05 -9.26999e-06 0.00437321)
(-0.00031572 0.000122407 0.00642446)
(-0.000136852 0.000720348 0.00927552)
(-0.00103474 -0.000309936 0.00733116)
(5.93672e-06 0.000413459 0.0068983)
(3.45914e-05 -3.13671e-05 0.00594696)
(-0.000180137 0.000135877 0.0021269)
(-3.65975e-05 -0.000846769 0.0109925)
(-0.000167511 0.000182042 0.00438818)
(-0.000694907 0.000607934 0.00929311)
(-0.000377511 -0.000289577 0.00571748)
(9.58739e-05 0.000888842 0.00356055)
(-0.000463311 0.000171545 0.00511898)
(-0.000351859 -0.00014766 0.0066208)
(8.92267e-05 -8.13352e-05 0.00801119)
(-0.00263025 -0.00215141 0.0213675)
(-0.00033441 -0.000636422 0.0158204)
(-0.000309602 2.87003e-05 0.0130118)
(2.13178e-05 0.000131277 0.00151652)
(4.10062e-05 -0.000260242 0.0108403)
(-0.000358199 6.83827e-05 0.00559942)
(0.000260068 6.54384e-05 0.00894575)
(-9.56049e-05 0.000407238 0.0140424)
(6.6683e-05 0.000203283 0.00488404)
(-0.000658385 0.000244748 0.0184234)
(3.99017e-05 0.000359934 0.00422948)
(0.000206652 0.000240009 0.0104097)
(-1.04153e-05 0.000488454 0.00420806)
(-0.000249411 -0.00154089 0.0119227)
(-6.79657e-05 0.000140247 0.00169129)
(-0.000472716 0.000133406 0.00532957)
(-0.000551088 -3.84923e-05 0.00410988)
(-0.00088942 0.000317583 0.0087035)
(0.000156062 4.74753e-05 0.00615945)
(-7.11394e-05 -0.000276003 0.00944507)
(0.00024214 0.00103151 0.00808316)
(-0.000217407 0.000221068 0.00232627)
(-0.000436375 0.000655144 0.0065679)
(0.000156787 0.000591461 0.00672403)
(0.000604113 0.000632329 0.0109646)
(-5.22558e-05 0.000642817 0.00545828)
(0.000355149 0.000492532 0.00812631)
(-0.000434693 0.000856544 0.00716645)
(2.17621e-07 0.000152266 0.00149525)
(-0.000108716 1.8365e-05 0.00142469)
(-0.00110065 0.000218911 0.00849239)
(-0.00110052 -0.000141511 0.0109458)
(0.000298483 0.000782995 0.0146238)
(-0.000542025 0.000145188 0.00833252)
(-0.000706389 0.000423086 0.0109979)
(-0.00021209 0.000681501 0.00552267)
(0.000480413 0.000485535 0.00422024)
(-1.17058e-05 0.000774653 0.00527518)
(-0.000239872 0.000567471 0.00763341)
(-0.000308242 0.000594495 0.00535653)
(-0.000705744 0.000691869 0.011612)
(0.000564155 -0.000266043 0.0114986)
(-0.000691073 -4.331e-06 0.00835188)
(-0.000814626 -3.96658e-05 0.0124945)
(6.40477e-05 0.000120542 0.00224464)
(-0.00185229 -0.00202901 0.00986063)
(-4.38809e-05 0.000109226 0.00327945)
(-6.90087e-05 0.000112674 0.00251571)
(-3.13407e-05 7.86353e-05 0.000358087)
(-0.000444113 0.000323416 0.00404055)
(0.000470441 6.3877e-05 0.00470378)
(0.000151213 8.20438e-05 0.00159495)
(3.64365e-05 6.40657e-05 0.00538407)
(-0.000159095 0.000674194 0.00387833)
(-0.000905778 -2.85231e-05 0.00503921)
(-0.000817547 -0.000453104 0.00919312)
(-2.21897e-05 0.000226993 0.0059863)
(-0.00204635 -0.000623917 0.0123527)
(-0.000915394 0.000145666 0.00641895)
(-3.99947e-05 0.000314047 0.00466038)
(-7.43839e-05 9.04456e-05 0.000812826)
(0.00266884 0.000102174 0.00253705)
(0.00298472 0.00112854 0.00370163)
(-5.64223e-06 -0.000347132 0.0056586)
(0.00193113 0.00109407 0.00618241)
(-0.0102332 -0.00443598 -0.00838111)
(0.000372796 -0.000581572 0.00651125)
(0.000231422 0.00116863 0.00287041)
(-0.000221572 -0.000112399 0.00430968)
(0.000139672 9.07413e-05 0.00651052)
(-1.79312e-05 -0.000828186 0.00515284)
(-3.29904e-05 -0.000751142 0.00365031)
(-0.000606927 0.00013832 0.00566025)
(-2.49033e-05 -0.000351271 0.0089144)
(0.000667489 -0.000535051 0.00479889)
(0.000835933 -0.000310022 0.00408154)
(-0.000660247 -0.00207963 0.00347691)
(-2.04477e-05 0.00133227 0.0109614)
(8.41405e-05 0.000305307 0.00999755)
(0.000167092 -3.37416e-05 0.007108)
(0.000666411 -0.000190263 0.00980192)
(-0.000802481 -0.000693644 0.011432)
(-0.0012444 -0.000363926 0.00213564)
(-0.00029659 -0.000246055 0.00541241)
(5.14727e-05 -0.000252307 0.00867698)
(-1.56943e-05 -0.00164823 0.00632629)
(-0.000278528 -0.00074384 0.00653674)
(1.67192e-05 -0.000469092 0.0088669)
(0.000245836 -0.000210444 0.00905409)
(-6.60747e-05 -0.000517478 0.00833311)
(0.000107312 -0.000395952 0.0059215)
(0.000220884 -0.000444643 0.00623289)
(0.000369496 -0.000723365 0.00651684)
(-0.000437993 0.000415238 0.00170886)
(0.000307262 0.000658043 0.00163774)
(-0.000196522 0.000235103 0.00135744)
(-0.00026276 0.000221196 0.00154478)
(0.000549968 0.000366501 0.000734092)
(0.000311603 0.000332294 0.000542591)
(-0.000600557 4.04651e-05 0.000876619)
(-0.000574886 0.000140832 0.00136709)
(0.000221082 5.94088e-05 0.0012126)
(-0.00010591 -0.000244055 0.00112996)
(-0.000427621 -0.000194095 0.0012814)
(-0.000254549 -1.95988e-05 0.00140711)
(0.000147177 -0.000469203 0.00172956)
(6.59308e-05 -0.000179372 0.00131581)
(-0.000381883 -0.000281755 0.00129703)
(-0.000300416 -0.000523163 0.00136403)
(-0.000112359 0.000304894 0.00428042)
(4.0427e-05 0.000320402 0.0041339)
(-9.26969e-05 0.00017902 0.0040448)
(-5.36183e-05 0.000136234 0.00427664)
(0.000118825 0.000202371 0.00414323)
(5.92392e-06 0.000166418 0.00368022)
(-0.000225205 7.43453e-05 0.00384172)
(-0.000185033 7.38456e-05 0.00414501)
(-7.87678e-06 1.71871e-05 0.00396864)
(-9.58814e-05 -7.43575e-05 0.00385111)
(-0.000189955 -8.25655e-05 0.00399856)
(-0.000106937 -4.92298e-05 0.00415768)
(-7.95378e-05 -0.000133954 0.00409333)
(-9.15545e-05 -0.000135319 0.00386924)
(-0.000200658 -0.00018132 0.00397612)
(-0.00011414 -0.000270775 0.00413249)
(-1.04513e-05 0.000189093 0.00366467)
(2.36825e-05 0.000177312 0.00364591)
(-2.46409e-05 0.000126581 0.00364458)
(-1.15766e-05 0.000100216 0.00371829)
(3.47121e-05 0.000125965 0.0035885)
(3.04042e-06 0.00010394 0.00351936)
(-6.96345e-05 6.55091e-05 0.00357904)
(-5.75205e-05 5.14312e-05 0.00367998)
(-1.23417e-05 3.29882e-05 0.00356462)
(-3.79625e-05 -2.36261e-06 0.00356387)
(-7.76135e-05 -1.97291e-05 0.00362159)
(-4.97166e-05 -2.34083e-05 0.00368877)
(-3.06859e-05 -5.67262e-05 0.00359964)
(-4.83083e-05 -6.86961e-05 0.00358973)
(-9.04478e-05 -8.51066e-05 0.00364619)
(-5.72291e-05 -0.000117732 0.00371611)
(8.48549e-06 0.000122384 0.00372805)
(1.50033e-05 0.000109464 0.00371907)
(2.0325e-06 8.79048e-05 0.00372023)
(8.28308e-06 7.14634e-05 0.0037461)
(9.53523e-06 8.50823e-05 0.00369284)
(1.04069e-06 7.08051e-05 0.00367587)
(-1.74023e-05 5.25764e-05 0.0036937)
(-9.30025e-06 4.06982e-05 0.00372938)
(-1.17735e-05 3.80031e-05 0.00367677)
(-1.79294e-05 2.03254e-05 0.00367884)
(-2.81154e-05 7.56188e-06 0.00370214)
(-1.35469e-05 -6.16867e-08 0.00373296)
(-2.34161e-05 -7.27071e-06 0.00369124)
(-2.86332e-05 -2.02393e-05 0.00369562)
(-3.74459e-05 -3.0405e-05 0.00372119)
(-1.77164e-05 -4.37583e-05 0.00375555)
(1.07678e-05 8.12824e-05 0.00375437)
(1.30251e-05 7.28583e-05 0.00375135)
(1.13406e-05 6.21755e-05 0.00375216)
(1.56914e-05 5.28661e-05 0.00375962)
(5.88017e-06 5.96506e-05 0.00373354)
(4.43598e-06 5.12731e-05 0.0037313)
(1.51374e-06 4.18564e-05 0.00373803)
(7.35295e-06 3.41785e-05 0.00375022)
(-4.23556e-06 3.39332e-05 0.00372189)
(-5.02277e-06 2.48034e-05 0.00372665)
(-5.77218e-06 1.71847e-05 0.00373742)
(3.05455e-06 1.15776e-05 0.00375047)
(-1.08404e-05 8.38638e-06 0.00372345)
(-1.19205e-05 1.17253e-06 0.00373289)
(-1.14975e-05 -4.87721e-06 0.00374632)
(4.78562e-07 -1.08806e-05 0.00376168)
(9.83746e-06 5.50217e-05 0.00376896)
(1.18016e-05 5.03046e-05 0.00376747)
(1.31007e-05 4.47481e-05 0.00376704)
(1.63745e-05 3.96421e-05 0.00376798)
(5.96376e-06 4.26607e-05 0.00375524)
(6.831e-06 3.79819e-05 0.00375542)
(7.88319e-06 3.29135e-05 0.00375776)
(1.2009e-05 2.84772e-05 0.00376117)
(9.98727e-07 2.80479e-05 0.00374667)
(1.88669e-06 2.33148e-05 0.00375015)
(3.57803e-06 1.89261e-05 0.0037548)
(9.11855e-06 1.54406e-05 0.00375963)
(-2.71771e-06 1.32086e-05 0.00374364)
(-2.08423e-06 9.27052e-06 0.00375098)
(1.29117e-07 5.79455e-06 0.00375763)
(7.27082e-06 2.71892e-06 0.00376377)
(8.36352e-06 3.78181e-05 0.00377638)
(1.02297e-05 3.5415e-05 0.00377522)
(1.20017e-05 3.2506e-05 0.00377407)
(1.43771e-05 2.97252e-05 0.00377293)
(6.08372e-06 3.07605e-05 0.00376697)
(7.5117e-06 2.82938e-05 0.00376708)
(9.17704e-06 2.5534e-05 0.00376739)
(1.19783e-05 2.30357e-05 0.00376756)
(3.62208e-06 2.23018e-05 0.00376048)
(4.88454e-06 1.98185e-05 0.00376241)
(6.72636e-06 1.73567e-05 0.00376404)
(1.01737e-05 1.52734e-05 0.00376517)
(1.61716e-06 1.34007e-05 0.0037559)
(2.68593e-06 1.12519e-05 0.00376085)
(4.69352e-06 9.26418e-06 0.00376387)
(8.83451e-06 7.53157e-06 0.00376582)
(6.86881e-06 2.63272e-05 0.00377984)
(8.4768e-06 2.52027e-05 0.00377881)
(1.00294e-05 2.37022e-05 0.00377746)
(1.16958e-05 2.21869e-05 0.00377582)
(5.67882e-06 2.22659e-05 0.00377329)
(7.05961e-06 2.10423e-05 0.00377304)
(8.49836e-06 1.95568e-05 0.00377249)
(1.03306e-05 1.81354e-05 0.00377156)
(4.48179e-06 1.72731e-05 0.00376828)
(5.68136e-06 1.59887e-05 0.00376917)
(7.1072e-06 1.46135e-05 0.00376938)
(9.1992e-06 1.33685e-05 0.00376902)
(3.4164e-06 1.17761e-05 0.00376338)
(4.47198e-06 1.06181e-05 0.00376679)
(5.90654e-06 9.48833e-06 0.00376797)
(8.26397e-06 8.4851e-06 0.00376813)
(5.51575e-06 1.85069e-05 0.00378123)
(6.79572e-06 1.80408e-05 0.00378033)
(7.9948e-06 1.72866e-05 0.00377905)
(9.13781e-06 1.64523e-05 0.00377747)
(4.95097e-06 1.61472e-05 0.00377659)
(6.0899e-06 1.558e-05 0.00377616)
(7.1662e-06 1.47901e-05 0.00377532)
(8.33472e-06 1.39689e-05 0.00377412)
(4.39065e-06 1.31462e-05 0.0037727)
(5.37645e-06 1.24945e-05 0.00377303)
(6.37111e-06 1.17231e-05 0.00377265)
(7.61193e-06 1.09648e-05 0.00377179)
(3.85675e-06 9.66476e-06 0.00376797)
(4.71305e-06 9.03676e-06 0.00377055)
(5.64688e-06 8.38957e-06 0.00377088)
(6.9573e-06 7.78242e-06 0.00377037)
(4.33622e-06 1.30859e-05 0.00378161)
(5.31291e-06 1.29384e-05 0.00378086)
(6.19073e-06 1.25737e-05 0.00377976)
(6.95735e-06 1.21081e-05 0.0037784)
(4.09889e-06 1.17035e-05 0.00377828)
(4.97822e-06 1.14642e-05 0.00377781)
(5.73985e-06 1.10489e-05 0.00377694)
(6.47235e-06 1.05646e-05 0.00377579)
(3.85541e-06 9.86672e-06 0.00377522)
(4.61399e-06 9.54345e-06 0.00377533)
(5.28115e-06 9.10994e-06 0.00377474)
(6.00292e-06 8.63888e-06 0.0037738)
(3.60395e-06 7.61453e-06 0.00377082)
(4.2525e-06 7.27759e-06 0.00377302)
(4.837e-06 6.90164e-06 0.00377301)
(5.54547e-06 6.51957e-06 0.00377232)
(3.33385e-06 9.25528e-06 0.00378155)
(4.05651e-06 9.25064e-06 0.00378096)
(4.67839e-06 9.0858e-06 0.00378003)
(5.18412e-06 8.82689e-06 0.00377892)
(3.25609e-06 8.43907e-06 0.00377911)
(3.91035e-06 8.35936e-06 0.00377869)
(4.43369e-06 8.14442e-06 0.0037779)
(4.88851e-06 7.85634e-06 0.00377691)
(3.16583e-06 7.29835e-06 0.00377668)
(3.73009e-06 7.14573e-06 0.00377674)
(4.16769e-06 6.90199e-06 0.00377614)
(4.58267e-06 6.60677e-06 0.00377527)
(3.05932e-06 5.82248e-06 0.0037726)
(3.53469e-06 5.642e-06 0.00377468)
(3.89259e-06 5.42259e-06 0.00377457)
(4.26568e-06 5.17826e-06 0.0037739)
(2.4939e-06 6.48914e-06 0.00378134)
(3.01045e-06 6.53962e-06 0.00378088)
(3.43843e-06 6.47621e-06 0.00378011)
(3.77085e-06 6.33775e-06 0.00377921)
(2.48787e-06 6.00474e-06 0.00377951)
(2.95922e-06 5.99877e-06 0.00377917)
(3.31189e-06 5.89393e-06 0.00377848)
(3.59382e-06 5.72682e-06 0.00377766)
(2.46845e-06 5.29187e-06 0.00377753)
(2.87697e-06 5.22759e-06 0.00377762)
(3.16071e-06 5.09356e-06 0.00377707)
(3.39748e-06 4.91074e-06 0.00377634)
(2.4326e-06 4.32167e-06 0.00377374)
(2.77433e-06 4.22707e-06 0.0037758)
(2.99158e-06 4.10019e-06 0.00377571)
(3.18147e-06 3.94419e-06 0.00377513)
(1.79121e-06 4.44131e-06 0.0037811)
(2.146e-06 4.50442e-06 0.00378074)
(2.43227e-06 4.48959e-06 0.00378012)
(2.64943e-06 4.41964e-06 0.00377939)
(1.81288e-06 4.15532e-06 0.00377968)
(2.13989e-06 4.17865e-06 0.00377943)
(2.37218e-06 4.13344e-06 0.00377885)
(2.5465e-06 4.04007e-06 0.00377817)
(1.82239e-06 3.71332e-06 0.00377803)
(2.10837e-06 3.69277e-06 0.00377818)
(2.28953e-06 3.62233e-06 0.00377771)
(2.42377e-06 3.51152e-06 0.00377709)
(1.81767e-06 3.08314e-06 0.00377446)
(2.05747e-06 3.03615e-06 0.00377656)
(2.18754e-06 2.96453e-06 0.00377652)
(2.28023e-06 2.86617e-06 0.00377603)
(1.19782e-06 2.87427e-06 0.00378089)
(1.42712e-06 2.92952e-06 0.00378062)
(1.60851e-06 2.93443e-06 0.0037801)
(1.74588e-06 2.90165e-06 0.0037795)
(1.22508e-06 2.71141e-06 0.00377975)
(1.43804e-06 2.74047e-06 0.00377957)
(1.58359e-06 2.725e-06 0.00377907)
(1.68867e-06 2.67574e-06 0.0037785)
(1.24274e-06 2.44713e-06 0.00377832)
(1.43051e-06 2.44579e-06 0.00377853)
(1.54103e-06 2.41113e-06 0.00377813)
(1.61525e-06 2.34682e-06 0.0037776)
(1.24954e-06 2.05543e-06 0.00377492)
(1.40749e-06 2.03364e-06 0.00377706)
(1.48202e-06 1.99493e-06 0.00377707)
(1.52474e-06 1.93582e-06 0.00377667)
(6.88813e-07 1.62714e-06 0.00378075)
(8.17148e-07 1.66396e-06 0.00378053)
(9.17996e-07 1.6728e-06 0.00378008)
(9.96111e-07 1.65938e-06 0.00377957)
(7.10173e-07 1.54356e-06 0.00377977)
(8.30208e-07 1.56646e-06 0.00377964)
(9.10077e-07 1.56369e-06 0.00377921)
(9.67581e-07 1.5408e-06 0.00377871)
(7.25315e-07 1.40255e-06 0.00377848)
(8.31561e-07 1.40688e-06 0.00377873)
(8.90757e-07 1.39196e-06 0.00377838)
(9.28542e-07 1.35901e-06 0.00377792)
(7.33505e-07 1.18677e-06 0.00377519)
(8.22826e-07 1.17799e-06 0.00377736)
(8.60637e-07 1.15951e-06 0.00377742)
(8.78485e-07 1.12835e-06 0.00377707)
(2.79106e-07 6.86002e-07 0.00378067)
(3.29214e-07 7.0274e-07 0.00378049)
(3.69295e-07 7.07492e-07 0.00378008)
(4.00737e-07 7.02297e-07 0.00377961)
(2.90389e-07 6.52466e-07 0.00377978)
(3.36471e-07 6.6404e-07 0.00377968)
(3.67172e-07 6.64309e-07 0.00377928)
(3.88944e-07 6.55447e-07 0.00377882)
(2.99112e-07 5.94481e-07 0.00377857)
(3.38595e-07 5.98272e-07 0.00377884)
(3.60012e-07 5.93323e-07 0.00377852)
(3.73317e-07 5.80418e-07 0.00377809)
(3.04758e-07 5.04805e-07 0.00377533)
(3.3679e-07 5.03646e-07 0.00377752)
(3.48732e-07 4.97349e-07 0.0037776)
(3.53048e-07 4.84915e-07 0.00377728)
(-0.000904236 0.000225705 0.00826264)
(-0.000283596 -4.00575e-05 0.00321122)
(-0.00095596 0.000543046 0.00967348)
(-0.000139608 0.000265133 0.00556792)
(-0.000443631 -0.000110906 0.00414966)
(-0.000775549 0.000605836 0.00537747)
(-0.000440222 0.000393258 0.00490069)
(-0.000240492 0.00055218 0.00723723)
(-0.000356738 0.000591414 0.00617475)
(-0.000507334 0.000423768 0.0068257)
(-0.000893941 0.000770064 0.00608373)
(-0.00018666 0.000305921 0.00580058)
(-0.00058498 0.000224434 0.00649694)
(-9.14759e-05 -0.000273237 0.00475142)
(-0.00072885 0.000324825 0.00720686)
(-0.000539663 -9.188e-05 0.00579235)
(-0.000117299 0.000303276 0.0132707)
(-0.00076455 0.000467869 0.00810177)
(0.000714255 8.48501e-05 0.00691591)
(0.000139559 0.000555389 0.0021992)
(-4.07339e-05 0.000817153 0.00986714)
(-0.000151383 9.58265e-05 0.00258476)
(0.000210081 0.000640198 0.00464445)
(0.000178124 -0.00014019 0.00234059)
(-0.000536935 0.000118133 0.00387081)
(-0.000445612 0.000719255 0.0129054)
(-0.000368754 0.000395722 0.00786438)
(-0.000206522 -0.000641664 0.00700233)
(-0.00019429 0.000108273 0.010244)
(-0.000348652 0.000229498 0.00611513)
(-0.000446919 -0.00037358 0.0084341)
(0.00012924 0.00027529 0.00581586)
(-3.10416e-05 0.00056232 0.0034608)
(5.99469e-05 0.00190479 0.0105945)
(0.000237933 0.000708206 0.00867578)
(-0.000423444 0.00128575 0.0177024)
(5.65247e-06 0.00139749 0.00758846)
(-7.97128e-05 0.000640636 0.00985669)
(-0.000117442 0.000328085 0.00419346)
(-0.000876608 0.000239886 0.0165816)
(-0.000125086 0.000189053 0.00999202)
(6.70968e-05 -0.000122814 0.00512507)
(7.32942e-05 -0.000191667 0.0135421)
(-5.2528e-05 0.00036616 0.0057663)
(-8.4061e-05 -0.000129991 0.00988262)
(-0.000216343 -6.60951e-05 0.0130799)
(0.000469666 -0.000194812 0.00917736)
(-0.000530786 0.000466767 0.0076474)
(-5.81291e-05 0.000316687 0.00580708)
(-0.000265341 -6.77941e-06 0.00605766)
(-0.000384927 0.000129507 0.00466899)
(0.000293555 -0.000449663 0.0125297)
(0.000553546 -0.00155765 0.0140021)
(0.000119923 0.000799693 0.013831)
(-0.000493648 0.000170908 0.00655129)
(0.000405752 0.00101864 0.00728345)
(0.000350975 0.000105133 0.00907275)
(7.16821e-05 0.00110819 0.0128078)
(0.000340996 -0.000175351 0.0119607)
(-4.6029e-05 0.00095536 0.00659853)
(0.000249383 0.00036023 0.0118705)
(-0.000222697 0.000142149 0.00502023)
(0.000144433 -0.000308963 0.00769381)
(0.000174738 0.00021762 0.0133577)
(5.18902e-05 -0.00176546 0.0203095)
(-0.000161504 -0.00065785 0.00804595)
(-0.000749013 0.00029719 0.0127278)
(0.00041901 0.000861616 0.00750511)
(3.98057e-05 -0.000107781 0.00212012)
(5.98135e-05 -0.000166908 0.00600409)
(0.000562354 0.000317858 0.00638238)
(2.23648e-05 0.000464768 0.00543061)
(0.000114696 -0.000179166 0.00417878)
(0.000211632 0.000509838 0.00847194)
(0.000814281 0.000141033 0.0151693)
(0.000126624 0.00052567 0.0111819)
(0.000274241 0.000180728 0.0102856)
(0.00024706 0.000400592 0.0182255)
(0.000363174 7.57998e-05 0.00480244)
(0.000294567 0.000735755 0.00831434)
(-8.71235e-05 -8.37467e-05 0.0010375)
(-0.00017277 0.000114185 0.0036532)
(-5.01297e-05 0.000542822 0.00327259)
(-0.000489709 0.000306214 0.00309625)
(-0.000101884 0.000290674 0.00900918)
(0.000155574 -1.81333e-05 0.00629769)
(2.75168e-05 0.000234188 0.00413012)
(-0.00128661 0.00117439 0.0098391)
(0.000414168 -0.00042433 0.00527238)
(-0.000100458 0.000128629 0.0064933)
(0.000795593 0.000352006 0.00834743)
(-0.000111122 0.000116756 0.000364257)
(0.000814201 -0.000131538 0.00734683)
(7.08016e-05 0.000186181 0.00283642)
(-3.09034e-05 0.000410806 0.00332706)
(0.000220703 -0.000274514 0.0113117)
(-0.000836576 0.00110082 0.00722302)
(-9.00133e-05 -0.000174326 0.00434585)
(0.00220976 0.00100172 0.0050274)
(-0.00037358 -0.000324648 0.00692083)
(-0.000417755 0.00110355 0.00663932)
(0.000965254 -0.000299505 0.00446718)
(-9.57501e-05 0.000180666 0.00599597)
(-0.0010802 -0.000452541 0.00657773)
(0.00385297 -0.00129976 0.00510643)
(-9.26898e-05 -0.000289238 0.00514089)
(-0.00040903 0.000987748 0.00716103)
(6.27158e-05 -0.000363981 0.00467818)
(-0.000401556 -0.000462205 0.00568116)
(-6.33714e-05 -0.0001623 0.00972393)
(0.00130159 0.000853266 0.00387089)
(-0.000376029 -0.000675491 0.00970198)
(-0.000289875 -0.000331764 0.00966945)
(-8.66208e-05 -0.000551686 0.00412594)
(-5.65386e-05 -0.00061387 0.00728643)
(-0.00035727 -0.000881013 0.00967885)
(-0.000437902 -0.000290909 0.0121761)
(-0.000202278 -0.000607471 0.00724058)
(-0.000373908 -0.00044704 0.00893634)
(-0.000369345 -0.000537573 0.00932184)
(-0.000305043 -0.000665316 0.00788215)
(-0.000286373 -0.000719021 0.00931027)
(-0.000398253 -8.67072e-05 0.00860378)
(-1.67407e-05 -0.000386723 0.00872926)
(-0.000522301 -0.000628702 0.00193166)
(-0.000255326 -0.000452984 0.008251)
(-0.000184742 1.93208e-05 0.00682443)
(7.00295e-05 -0.000349464 0.0104519)
(0.000115084 -0.000335101 0.0021478)
(7.51448e-05 -0.000452676 0.00144286)
(-0.000709347 -0.0005537 0.00163231)
(-0.000973196 -0.000613132 0.00213554)
(-0.000307837 0.000113506 0.00250082)
(0.000142306 -0.000511773 0.00194481)
(-0.000492886 -0.000270185 0.0019464)
(-0.000501019 -0.000191846 0.00234497)
(-0.000771077 0.000533316 0.00195949)
(-0.000125341 -0.000298815 0.00222659)
(-0.000417904 -1.35389e-06 0.0019918)
(-0.000308278 -0.000309734 0.00245243)
(-0.000535683 0.000208689 0.0012812)
(-0.000383724 -0.000231871 0.00221032)
(-0.000519483 -4.94319e-05 0.00201468)
(-0.000213716 -0.000254818 0.00287056)
(-0.000124865 -0.000132513 0.00426869)
(-0.000126473 -0.000243302 0.00395742)
(-0.000312297 -0.000267817 0.00414835)
(-0.00028581 -0.000340733 0.00451134)
(-0.000232597 -4.09014e-05 0.00434034)
(-0.000125007 -0.000248908 0.00415752)
(-0.000284845 -0.000181386 0.00423316)
(-0.000189633 -0.000208031 0.00453941)
(-0.000332725 4.11836e-05 0.00405643)
(-0.000192082 -0.000177917 0.00424186)
(-0.000278548 -8.96926e-05 0.00418912)
(-0.000136754 -0.000173214 0.00454015)
(-0.000261625 -4.95749e-05 0.00361203)
(-0.000245586 -0.000139655 0.00410285)
(-0.000304497 -7.13658e-05 0.00405158)
(-9.34332e-05 -9.43457e-05 0.00459948)
(-5.60011e-05 -6.1657e-05 0.00363138)
(-6.17907e-05 -0.000103589 0.00364011)
(-0.000123974 -0.000115431 0.00372409)
(-9.97641e-05 -0.000150371 0.00386206)
(-8.67463e-05 -3.21894e-05 0.00361365)
(-6.58136e-05 -0.000100501 0.00368526)
(-0.000125962 -8.87397e-05 0.00375713)
(-7.77133e-05 -0.000114553 0.00391542)
(-0.000109158 -1.51827e-05 0.00350584)
(-8.22153e-05 -8.49331e-05 0.00367808)
(-0.000129185 -6.54816e-05 0.00373147)
(-5.87472e-05 -9.57223e-05 0.0039231)
(-9.0083e-05 -3.59645e-05 0.00333686)
(-9.87132e-05 -6.65008e-05 0.00357187)
(-0.000137838 -4.72721e-05 0.00362261)
(-4.45685e-05 -4.74018e-05 0.00386487)
(-3.43106e-05 -1.83865e-05 0.00370313)
(-3.8031e-05 -4.00716e-05 0.00372113)
(-5.08274e-05 -4.78682e-05 0.00375544)
(-2.85424e-05 -6.34879e-05 0.00381139)
(-4.34458e-05 -1.39288e-05 0.00368114)
(-4.27803e-05 -4.20944e-05 0.00372755)
(-5.71074e-05 -4.2603e-05 0.00376511)
(-2.56153e-05 -5.62812e-05 0.00383716)
(-4.90174e-05 -1.25696e-05 0.0036117)
(-4.79639e-05 -3.89506e-05 0.00369459)
(-6.15805e-05 -3.44959e-05 0.00373549)
(-2.07596e-05 -4.57029e-05 0.0038273)
(-4.25742e-05 -2.09227e-05 0.00349558)
(-5.24599e-05 -3.25042e-05 0.00359508)
(-6.53784e-05 -2.40395e-05 0.00363683)
(-1.7732e-05 -2.10965e-05 0.00374542)
(-1.55451e-05 -7.05938e-07 0.00372059)
(-1.68859e-05 -1.09315e-05 0.00374121)
(-1.76189e-05 -1.63449e-05 0.00376022)
(-3.24559e-06 -2.36372e-05 0.00378361)
(-1.8614e-05 -1.8935e-06 0.00369491)
(-2.03279e-05 -1.46422e-05 0.00373334)
(-2.23169e-05 -1.77465e-05 0.00375995)
(-4.01495e-06 -2.46195e-05 0.00379303)
(-1.96041e-05 -4.5367e-06 0.00363258)
(-2.25945e-05 -1.57048e-05 0.00369025)
(-2.56467e-05 -1.58209e-05 0.00372605)
(-3.74881e-06 -2.05626e-05 0.00377082)
(-1.70211e-05 -8.83627e-06 0.0035251)
(-2.40122e-05 -1.42387e-05 0.00358632)
(-2.79093e-05 -1.10252e-05 0.00362419)
(-4.15221e-06 -9.19854e-06 0.00367623)
(-4.7228e-06 6.72854e-06 0.00373607)
(-4.82963e-06 1.57361e-06 0.0037518)
(-2.99122e-06 -1.85792e-06 0.00376225)
(5.37333e-06 -5.75457e-06 0.00377178)
(-5.99681e-06 4.23436e-06 0.00370974)
(-6.97954e-06 -2.08073e-06 0.0037388)
(-5.99891e-06 -4.97176e-06 0.00375669)
(4.03746e-06 -8.69801e-06 0.00377199)
(-6.20085e-06 1.35011e-06 0.00364909)
(-8.31288e-06 -4.28515e-06 0.00369183)
(-8.17816e-06 -5.67771e-06 0.00371971)
(3.13323e-06 -8.09908e-06 0.00374264)
(-5.10092e-06 -1.69473e-06 0.00354395)
(-9.04604e-06 -4.99425e-06 0.00358581)
(-9.75236e-06 -4.2232e-06 0.00361593)
(1.9481e-06 -3.62307e-06 0.00364276)
(8.08229e-07 9.04211e-06 0.00374619)
(1.12911e-06 6.27191e-06 0.00375837)
(2.9307e-06 4.04916e-06 0.00376419)
(7.62905e-06 1.83346e-06 0.00376786)
(1.20306e-07 6.59346e-06 0.00371979)
(-1.99022e-07 3.14379e-06 0.0037433)
(1.1396e-06 9.89717e-07 0.00375573)
(6.50872e-06 -1.21521e-06 0.00376324)
(-4.86278e-09 4.19518e-06 0.00365945)
(-1.05817e-06 9.18364e-07 0.00369466)
(-2.97738e-07 -5.48689e-07 0.00371676)
(5.4618e-06 -2.19309e-06 0.00373002)
(4.31485e-07 1.81804e-06 0.00355464)
(-1.55772e-06 -5.43321e-07 0.00358754)
(-1.4162e-06 -8.38078e-07 0.00361181)
(4.26928e-06 -1.03142e-06 0.00362766)
(3.15705e-06 8.94584e-06 0.0037528)
(3.6017e-06 7.40632e-06 0.00376288)
(4.88997e-06 5.94483e-06 0.00376635)
(7.42273e-06 4.56259e-06 0.00376758)
(2.75087e-06 6.94601e-06 0.00372648)
(2.76173e-06 4.91198e-06 0.003747)
(3.78693e-06 3.33102e-06 0.00375646)
(6.5849e-06 1.89854e-06 0.00376052)
(2.61768e-06 5.06782e-06 0.0036662)
(2.16738e-06 2.9865e-06 0.0036976)
(2.82878e-06 1.68395e-06 0.00371632)
(5.71291e-06 4.3941e-07 0.00372533)
(2.74853e-06 3.20251e-06 0.00356137)
(1.80005e-06 1.39924e-06 0.00358991)
(2.02378e-06 6.77319e-07 0.00361062)
(4.72665e-06 1.10816e-07 0.00362173)
(3.82193e-06 7.84055e-06 0.00375712)
(4.22114e-06 6.9476e-06 0.0037661)
(5.03785e-06 5.99559e-06 0.00376843)
(6.37057e-06 5.0739e-06 0.00376869)
(3.55223e-06 6.29224e-06 0.00373089)
(3.70665e-06 5.03882e-06 0.0037499)
(4.36102e-06 3.92488e-06 0.00375787)
(5.75294e-06 2.93203e-06 0.0037605)
(3.40927e-06 4.8735e-06 0.00367064)
(3.2915e-06 3.48114e-06 0.00370016)
(3.72817e-06 2.40827e-06 0.00371713)
(5.09135e-06 1.45144e-06 0.00372432)
(3.40018e-06 3.43578e-06 0.00356576)
(3.004e-06 2.04163e-06 0.00359217)
(3.15515e-06 1.21241e-06 0.00361098)
(4.34736e-06 5.569e-07 0.00362006)
(3.65896e-06 6.43594e-06 0.00375995)
(3.97249e-06 5.90354e-06 0.00376844)
(4.4576e-06 5.26908e-06 0.00377028)
(5.12988e-06 4.63332e-06 0.00377022)
(3.47117e-06 5.26971e-06 0.0037338)
(3.65544e-06 4.47249e-06 0.00375214)
(4.0363e-06 3.68873e-06 0.00375941)
(4.68853e-06 2.98175e-06 0.00376152)
(3.33715e-06 4.21998e-06 0.00367358)
(3.36742e-06 3.25861e-06 0.00370227)
(3.61396e-06 2.41948e-06 0.00371837)
(4.20322e-06 1.67621e-06 0.00372486)
(3.26852e-06 3.13062e-06 0.00356868)
(3.14682e-06 2.05836e-06 0.00359413)
(3.20791e-06 1.28576e-06 0.003612)
(3.65738e-06 6.62387e-07 0.00362026)
(3.14325e-06 5.05748e-06 0.00376182)
(3.37399e-06 4.73088e-06 0.00377012)
(3.65236e-06 4.30324e-06 0.00377181)
(3.97226e-06 3.85879e-06 0.00377171)
(3.01135e-06 4.19579e-06 0.00373574)
(3.1775e-06 3.67606e-06 0.00375383)
(3.38631e-06 3.12391e-06 0.00376084)
(3.66062e-06 2.61524e-06 0.00376282)
(2.89382e-06 3.42658e-06 0.00367556)
(2.97783e-06 2.7555e-06 0.00370391)
(3.10094e-06 2.11741e-06 0.00371967)
(3.31024e-06 1.54728e-06 0.00372594)
(2.80938e-06 2.61697e-06 0.00357065)
(2.8119e-06 1.80533e-06 0.00359571)
(2.81376e-06 1.1518e-06 0.00361317)
(2.91599e-06 6.17356e-07 0.00362115)
(2.51657e-06 3.82744e-06 0.00376306)
(2.68235e-06 3.62394e-06 0.00377133)
(2.83865e-06 3.3347e-06 0.003773)
(2.9767e-06 3.02381e-06 0.00377297)
(2.42405e-06 3.20449e-06 0.00373704)
(2.5595e-06 2.86139e-06 0.00375507)
(2.66827e-06 2.47345e-06 0.00376202)
(2.75885e-06 2.10874e-06 0.00376402)
(2.32816e-06 2.65088e-06 0.00367689)
(2.42079e-06 2.18135e-06 0.00370516)
(2.47413e-06 1.70749e-06 0.00372081)
(2.50908e-06 1.28024e-06 0.00372706)
(2.24708e-06 2.05962e-06 0.00357197)
(2.29765e-06 1.4592e-06 0.00359693)
(2.27167e-06 9.40499e-07 0.00361426)
(2.22713e-06 5.13108e-07 0.00362219)
(1.88911e-06 2.76907e-06 0.00376388)
(2.00591e-06 2.64328e-06 0.00377218)
(2.09111e-06 2.45005e-06 0.0037739)
(2.14078e-06 2.23688e-06 0.00377394)
(1.8258e-06 2.33369e-06 0.00373791)
(1.92905e-06 2.10887e-06 0.00375597)
(1.98235e-06 1.84162e-06 0.00376294)
(1.9922e-06 1.58696e-06 0.00376501)
(1.75275e-06 1.94673e-06 0.00367777)
(1.83429e-06 1.6243e-06 0.00370607)
(1.85216e-06 1.28531e-06 0.00372172)
(1.8191e-06 9.77875e-07 0.00372802)
(1.68499e-06 1.52886e-06 0.00357287)
(1.7456e-06 1.10047e-06 0.00359782)
(1.71266e-06 7.13311e-07 0.00361514)
(1.62288e-06 3.92955e-07 0.00362311)
(1.30247e-06 1.86389e-06 0.00376441)
(1.37964e-06 1.78823e-06 0.00377276)
(1.42414e-06 1.66554e-06 0.00377452)
(1.43544e-06 1.52802e-06 0.00377464)
(1.26148e-06 1.57739e-06 0.00373847)
(1.33312e-06 1.43607e-06 0.00375658)
(1.35776e-06 1.26254e-06 0.0037636)
(1.34013e-06 1.09553e-06 0.00376574)
(1.21074e-06 1.32248e-06 0.00367835)
(1.27177e-06 1.1136e-06 0.0037067)
(1.27459e-06 8.87807e-07 0.0037224)
(1.22714e-06 6.80951e-07 0.00372876)
(1.16074e-06 1.04589e-06 0.00357345)
(1.21238e-06 7.60755e-07 0.00359845)
(1.18346e-06 4.95173e-07 0.00361581)
(1.09814e-06 2.73972e-07 0.00362382)
(7.65785e-07 1.08195e-06 0.00376473)
(8.09656e-07 1.04145e-06 0.00377312)
(8.30331e-07 9.73436e-07 0.00377492)
(8.28903e-07 8.96616e-07 0.0037751)
(7.42661e-07 9.17932e-07 0.0037388)
(7.84682e-07 8.3965e-07 0.00375696)
(7.94725e-07 7.41969e-07 0.00376403)
(7.7583e-07 6.47056e-07 0.00376622)
(7.12514e-07 7.71735e-07 0.0036787)
(7.49971e-07 6.54295e-07 0.00370709)
(7.4822e-07 5.24698e-07 0.00372283)
(7.1144e-07 4.04506e-07 0.00372925)
(6.81659e-07 6.12269e-07 0.0035738)
(7.15397e-07 4.48727e-07 0.00359885)
(6.95987e-07 2.93038e-07 0.00361624)
(6.37353e-07 1.62665e-07 0.0036243)
(3.17672e-07 4.57e-07 0.0037649)
(3.3377e-07 4.44195e-07 0.00377331)
(3.37767e-07 4.1779e-07 0.00377514)
(3.32943e-07 3.87015e-07 0.00377534)
(3.09752e-07 3.9023e-07 0.00373899)
(3.25383e-07 3.59817e-07 0.00375717)
(3.24624e-07 3.19792e-07 0.00376426)
(3.11475e-07 2.80502e-07 0.00376648)
(2.97468e-07 3.26097e-07 0.00367889)
(3.11917e-07 2.7861e-07 0.00370731)
(3.06466e-07 2.24099e-07 0.00372308)
(2.85421e-07 1.74831e-07 0.00372951)
(2.82391e-07 2.5485e-07 0.00357399)
(2.9574e-07 1.87651e-07 0.00359907)
(2.84329e-07 1.22087e-07 0.00361648)
(2.54882e-07 6.88742e-08 0.00362457)
(0.000445557 0.000987672 0.00631772)
(-0.000897418 0.00138733 0.0117008)
(-0.000526456 0.000233618 0.00417198)
(-1.56129e-05 0.000429048 0.00719753)
(0.000124322 0.000753374 0.00358266)
(-0.000442071 0.000659315 0.00689543)
(-0.000269396 0.000832462 0.00506083)
(-9.51849e-05 0.000975622 0.00595462)
(-0.000727029 0.000686247 0.0064676)
(-0.00170238 0.000962199 0.00711022)
(-0.000370739 0.00068196 0.00438584)
(-0.000637502 0.000839729 0.00677409)