/*--------------------------------*- C++ -*----------------------------------*\
| =========                 |                                                 |
| \\      /  F ield         | OpenFOAM: The Open Source CFD Toolbox           |
|  \\    /   O peration     | Version:  2506                                  |
|   \\  /    A nd           | Website:  www.openfoam.com                      |
|    \\/     M anipulation  |                                                 |
\*---------------------------------------------------------------------------*/
FoamFile
{
    version     2.0;
    format      ascii;
    arch        "LSB;label=32;scalar=64";
    class       volVectorField;
    location    "0.01";
    object      U;
}
// * * * * * * * * * * * * * * * * * * * * * * * * * * * * * * * * * * * * * //

dimensions      [0 1 -1 0 0 0 0];

internalField   nonuniform List<vector> 
1152
(
(-0.000510265 0.000333881 0.00401275)
(-0.000296905 -1.29118e-05 0.00303552)
(1.16703e-06 -4.13599e-05 0.00414346)
(0.000591468 0.000177263 0.00407101)
(-0.000880868 0.000782893 0.00884797)
(-0.00093894 0.000912484 0.00680439)
(-0.000392625 0.000383203 0.00452927)
(2.96898e-05 6.17824e-05 0.00120299)
(-0.000780304 0.00044946 0.00454282)
(-0.000694501 0.000627669 0.00594467)
(9.16e-05 0.000523105 0.00549753)
(-0.000596506 0.00102685 0.0100441)
(-0.000498675 0.000806891 0.00609995)
(-0.000800525 0.000567626 0.00669451)
(-0.000448199 0.00053519 0.00509798)
(-0.000142755 -0.000125528 0.00649387)
(-0.000565135 0.000393231 0.0103624)
(-0.000153366 0.000470834 0.00404656)
(0.000528337 0.000641753 0.00784768)
(-3.70584e-05 -3.67306e-05 7.27315e-05)
(0.00013103 -3.13401e-05 0.00452821)
(-0.000138392 6.27515e-05 0.00663827)
(0.000180389 0.000639851 0.0095169)
(-0.00103366 -0.00107738 0.00737329)
(6.53766e-05 0.000356107 0.00707174)
(0.000106136 -0.00010728 0.00613351)
(-0.000148153 5.37527e-05 0.00217232)
(-4.49374e-06 -0.001324 0.0112113)
(-0.000141601 0.000141455 0.00445331)
(-0.000666006 0.000509992 0.00954738)
(-0.000316492 -0.000429006 0.00586178)
(0.000118094 0.000792936 0.0036745)
(-0.000492034 0.000167153 0.00529146)
(-0.000410899 -0.000195276 0.00681774)
(-0.000157244 -5.81023e-05 0.00830596)
(-0.00254221 -0.00227124 0.0207212)
(-0.000310566 -0.000685136 0.016253)
(-0.000305772 3.173e-05 0.0133539)
(-1.42319e-05 0.000145761 0.00152241)
(9.35284e-05 9.67387e-05 0.0109957)
(-0.000333479 8.06557e-06 0.00581224)
(0.000299928 8.84277e-06 0.00923155)
(-2.82601e-05 0.000436347 0.0143503)
(9.02071e-05 0.000164907 0.005025)
(-0.000654989 0.000198706 0.0188676)
(3.88935e-05 0.00025916 0.00435819)
(0.000243019 0.00017323 0.0107367)
(6.17567e-06 0.000434864 0.00435432)
(-0.000156536 -0.00163693 0.0125123)
(-0.00012838 0.000138932 0.00167139)
(-0.00055102 0.000141582 0.00555156)
(-0.000443747 -6.56546e-05 0.00431924)
(-0.000816468 0.000242837 0.00902794)
(0.000151485 1.61919e-05 0.00646792)
(-0.000148055 -0.000325176 0.00988284)
(0.000259215 0.00101573 0.00854128)
(-0.000225903 0.000141081 0.00237095)
(-0.000488084 0.000636282 0.00686069)
(0.00013581 0.000503787 0.00698641)
(0.000614305 0.000569952 0.0114165)
(-0.000101083 0.000668441 0.00562159)
(0.000341417 0.000450586 0.00837039)
(-0.000440328 0.000822564 0.00744508)
(-3.96063e-05 6.52319e-05 0.00149817)
(-6.82162e-05 6.11876e-05 0.0014261)
(-0.00122368 0.000231908 0.00901076)
(-0.00115045 -0.000183758 0.0116164)
(0.00114297 0.000739417 0.0155395)
(-0.000449686 -4.86567e-05 0.0087391)
(-0.000702443 0.000416393 0.0116093)
(-0.000218697 0.000680155 0.00588217)
(0.000500761 0.000521259 0.00444539)
(5.60987e-05 0.000640334 0.00553817)
(-0.00023135 0.000540263 0.00799434)
(-0.000331022 0.000598594 0.00558846)
(-0.000715814 0.000680095 0.0122079)
(0.000581175 -0.000298959 0.0117992)
(-0.000671303 -1.73576e-05 0.00858005)
(-0.000799359 -0.000128162 0.0127841)
(5.24803e-05 0.000124837 0.00233469)
(-0.0017183 -0.0021688 0.010572)
(9.09629e-05 8.97437e-06 0.00354691)
(5.30053e-05 0.000169985 0.00270065)
(6.65237e-05 0.000129659 0.000372715)
(-0.00032517 0.000132123 0.00448269)
(0.000565022 3.28847e-05 0.00513464)
(0.000139725 8.79995e-05 0.00173196)
(-1.95336e-05 0.000122404 0.00576619)
(-8.86927e-05 0.000680533 0.00407686)
(-0.000850374 -9.25259e-05 0.00537006)
(-0.0008309 -0.000528063 0.00966759)
(4.52563e-05 0.000320868 0.00645819)
(-0.00193514 -0.000686685 0.0125207)
(-0.000846654 -3.65534e-06 0.00653186)
(3.49524e-05 0.000286973 0.00484499)
(-6.32436e-05 0.000139946 0.000830164)
(0.00247413 0.000270078 0.00352558)
(0.00284177 0.000956532 0.00426652)
(2.02222e-05 -0.000210988 0.00589515)
(0.0015021 0.00134405 0.00674915)
(-0.00999164 -0.00428028 -0.00902521)
(0.00056212 -0.000484643 0.00693422)
(0.000162206 0.00139054 0.00307955)
(-0.000260105 0.000127632 0.00463676)
(0.000187963 0.000309251 0.00660822)
(-2.8282e-05 -0.000722698 0.00547097)
(-0.000112276 -0.000386631 0.00390932)
(-0.000663484 0.000248957 0.0059734)
(-0.00011092 -0.000240469 0.00885157)
(0.000526575 -0.000489279 0.00514652)
(0.000744779 -0.000211753 0.00407903)
(-0.000640631 -0.0019847 0.00361273)
(-5.6744e-05 0.00132511 0.0108555)
(0.00010367 0.000272922 0.0100269)
(0.000158472 -7.73625e-05 0.00737484)
(0.00073042 -0.000254432 0.0104112)
(-0.000807756 -0.000659266 0.0119469)
(-0.00131029 -0.000364199 0.0025697)
(-0.000292507 -0.000210422 0.00566837)
(6.46695e-05 -0.000210627 0.00893249)
(1.38067e-05 -0.00172799 0.00675672)
(-0.000267396 -0.000739515 0.00693396)
(4.28523e-05 -0.000449787 0.00924058)
(0.00025417 -0.000190684 0.00934254)
(-3.10531e-06 -0.000505725 0.00862595)
(0.000133532 -0.000340603 0.00622587)
(0.000241593 -0.000397404 0.00633731)
(0.000327841 -0.000678891 0.00669422)
(-0.000544962 0.000361093 0.00179518)
(0.000239189 0.000597628 0.00170243)
(-0.000272297 0.00018455 0.00140869)
(-0.000392962 0.000193777 0.0016128)
(0.000453926 0.000315821 0.000752625)
(0.000257286 0.000295998 0.000595126)
(-0.000643833 1.66729e-05 0.000912772)
(-0.000635915 0.000146385 0.00141194)
(0.000181389 7.14325e-05 0.00127579)
(-0.000150635 -0.000205855 0.00118676)
(-0.000463713 -0.000144481 0.00132943)
(-0.000286236 5.03162e-05 0.00144886)
(0.000136457 -0.00038977 0.0017887)
(4.82576e-05 -0.000109543 0.00135431)
(-0.000393782 -0.000205198 0.0013171)
(-0.000314341 -0.000452762 0.0013832)
(-0.000151746 0.000275324 0.00443868)
(1.10018e-05 0.000289087 0.00431217)
(-0.000119754 0.000149263 0.00423886)
(-8.77301e-05 0.000109753 0.00450038)
(8.85581e-05 0.000172183 0.0043155)
(-1.7107e-05 0.00014541 0.00387087)
(-0.000245543 5.73788e-05 0.00403862)
(-0.000207768 6.40621e-05 0.0043604)
(-2.08076e-05 5.78668e-06 0.00414662)
(-0.000112724 -7.38505e-05 0.00404039)
(-0.00020619 -7.59782e-05 0.00420024)
(-0.00011979 -3.50662e-05 0.0043691)
(-8.32832e-05 -0.000126276 0.00424566)
(-9.69524e-05 -0.000122069 0.00402689)
(-0.00020745 -0.000163148 0.00413475)
(-0.000122088 -0.000251508 0.00429599)
(-3.11497e-05 0.000167942 0.0037541)
(6.53132e-06 0.000157132 0.00374378)
(-4.12301e-05 0.000106739 0.00374804)
(-2.86151e-05 8.19261e-05 0.00382911)
(1.94666e-05 0.000107296 0.00368455)
(-1.13299e-05 8.94684e-05 0.00362182)
(-8.41071e-05 5.32808e-05 0.0036847)
(-7.11793e-05 4.22657e-05 0.00379138)
(-2.15351e-05 2.29e-05 0.00366627)
(-4.87633e-05 -7.60576e-06 0.00366824)
(-8.89488e-05 -2.14614e-05 0.00372988)
(-5.98021e-05 -2.19232e-05 0.00380017)
(-3.56663e-05 -5.91127e-05 0.00369718)
(-5.43725e-05 -6.72409e-05 0.00368697)
(-9.8213e-05 -8.07669e-05 0.0037434)
(-6.54291e-05 -0.000112132 0.00381446)
(-3.15621e-06 0.00010762 0.00382305)
(4.57733e-06 9.52639e-05 0.00381854)
(-7.95654e-06 7.39723e-05 0.0038233)
(-3.54824e-07 5.81282e-05 0.00385359)
(2.83999e-07 7.26747e-05 0.00379212)
(-8.33274e-06 5.99414e-05 0.00377834)
(-2.64759e-05 4.28768e-05 0.00379928)
(-1.67476e-05 3.22723e-05 0.00383864)
(-1.88482e-05 2.98927e-05 0.00377887)
(-2.56692e-05 1.41337e-05 0.00378284)
(-3.56744e-05 2.97333e-06 0.00380854)
(-1.95404e-05 -3.27668e-06 0.00384194)
(-2.88295e-05 -1.1188e-05 0.00379262)
(-3.44682e-05 -2.24837e-05 0.00379754)
(-4.354e-05 -3.12352e-05 0.00382427)
(-2.26794e-05 -4.37513e-05 0.00386045)
(4.14469e-06 7.0939e-05 0.00384768)
(6.5881e-06 6.27147e-05 0.00384724)
(5.41798e-06 5.2208e-05 0.00385036)
(1.08998e-05 4.31587e-05 0.00386028)
(2.55281e-07 5.07356e-05 0.00382949)
(-1.49925e-06 4.304e-05 0.00382941)
(-3.97953e-06 3.42045e-05 0.00383824)
(3.00277e-06 2.70808e-05 0.00385257)
(-8.9513e-06 2.72566e-05 0.00381953)
(-1.01988e-05 1.90038e-05 0.00382598)
(-1.05616e-05 1.21955e-05 0.00383842)
(-6.88643e-07 7.29518e-06 0.0038532)
(-1.47933e-05 4.18611e-06 0.00382114)
(-1.61514e-05 -2.22031e-06 0.00383186)
(-1.54684e-05 -7.49731e-06 0.00384656)
(-2.62555e-06 -1.30431e-05 0.00386331)
(5.92892e-06 4.7697e-05 0.00386112)
(7.84363e-06 4.30071e-05 0.00386122)
(9.49467e-06 3.75237e-05 0.00386222)
(1.35141e-05 3.25479e-05 0.00386447)
(2.48458e-06 3.61716e-05 0.0038492)
(3.07541e-06 3.17635e-05 0.00385077)
(4.48677e-06 2.69698e-05 0.00385442)
(9.36049e-06 2.28155e-05 0.00385903)
(-2.07644e-06 2.2802e-05 0.00384185)
(-1.52307e-06 1.84527e-05 0.00384654)
(5.27458e-07 1.44696e-05 0.0038523)
(6.77947e-06 1.13166e-05 0.00385814)
(-5.45689e-06 9.49121e-06 0.0038392)
(-5.03925e-06 5.94745e-06 0.00384766)
(-2.52573e-06 2.86931e-06 0.00385521)
(5.24928e-06 -5.5542e-08 0.00386218)
(5.99195e-06 3.25837e-05 0.00386798)
(7.7694e-06 3.01394e-05 0.00386778)
(9.74929e-06 2.72471e-05 0.00386751)
(1.25773e-05 2.45253e-05 0.00386712)
(3.89622e-06 2.60145e-05 0.00385983)
(5.11396e-06 2.3632e-05 0.00386083)
(7.02237e-06 2.09946e-05 0.00386195)
(1.02886e-05 1.8639e-05 0.00386281)
(1.62445e-06 1.82788e-05 0.00385424)
(2.63468e-06 1.59538e-05 0.00385701)
(4.73801e-06 1.36761e-05 0.00385936)
(8.6449e-06 1.17694e-05 0.00386109)
(-2.63488e-07 1.03616e-05 0.00385002)
(6.38124e-07 8.39148e-06 0.00385588)
(2.90171e-06 6.55782e-06 0.00385954)
(7.48436e-06 4.9333e-06 0.00386202)
(5.3933e-06 2.25661e-05 0.00387118)
(6.9204e-06 2.138e-05 0.00387073)
(8.59026e-06 1.98686e-05 0.00386992)
(1.05158e-05 1.83768e-05 0.00386873)
(4.27889e-06 1.87971e-05 0.00386551)
(5.50319e-06 1.75768e-05 0.00386584)
(7.09653e-06 1.61358e-05 0.00386579)
(9.21028e-06 1.47853e-05 0.00386528)
(3.15973e-06 1.4243e-05 0.00386117)
(4.176e-06 1.30122e-05 0.00386264)
(5.78252e-06 1.17158e-05 0.00386332)
(8.16624e-06 1.05637e-05 0.00386333)
(2.12954e-06 9.39784e-06 0.00385653)
(3.05318e-06 8.31251e-06 0.00386066)
(4.6778e-06 7.23217e-06 0.00386231)
(7.33075e-06 6.27901e-06 0.00386282)
(4.573e-06 1.5794e-05 0.00387243)
(5.78588e-06 1.5267e-05 0.0038719)
(7.04733e-06 1.44928e-05 0.00387095)
(8.33703e-06 1.36695e-05 0.00386965)
(4.03847e-06 1.36124e-05 0.00386842)
(5.05877e-06 1.30208e-05 0.00386837)
(6.23128e-06 1.22428e-05 0.00386785)
(7.56973e-06 1.14594e-05 0.00386691)
(3.50886e-06 1.08898e-05 0.00386502)
(4.3566e-06 1.02475e-05 0.00386577)
(5.47256e-06 9.50839e-06 0.00386569)
(6.89769e-06 8.80071e-06 0.00386508)
(2.96945e-06 7.85303e-06 0.00386043)
(3.72746e-06 7.24866e-06 0.00386361)
(4.79578e-06 6.60853e-06 0.00386428)
(6.30058e-06 6.02063e-06 0.00386401)
(3.71797e-06 1.11251e-05 0.00387275)
(4.63734e-06 1.09262e-05 0.00387225)
(5.54423e-06 1.05423e-05 0.00387134)
(6.39907e-06 1.00848e-05 0.00387016)
(3.493e-06 9.85183e-06 0.00386987)
(4.28037e-06 9.58429e-06 0.00386966)
(5.10133e-06 9.17159e-06 0.003869)
(5.93887e-06 8.7131e-06 0.00386802)
(3.26103e-06 8.199e-06 0.00386715)
(3.91474e-06 7.87005e-06 0.00386758)
(4.66251e-06 7.45054e-06 0.0038672)
(5.50204e-06 7.01004e-06 0.00386643)
(2.99145e-06 6.25717e-06 0.00386278)
(3.56584e-06 5.92327e-06 0.0038655)
(4.24364e-06 5.54034e-06 0.00386575)
(5.07967e-06 5.16473e-06 0.00386523)
(2.91977e-06 7.84321e-06 0.00387266)
(3.59518e-06 7.79845e-06 0.00387224)
(4.22889e-06 7.61787e-06 0.00387145)
(4.78974e-06 7.36429e-06 0.00387045)
(2.84737e-06 7.09446e-06 0.00387055)
(3.43092e-06 6.9901e-06 0.00387032)
(3.9904e-06 6.77508e-06 0.00386967)
(4.51136e-06 6.50483e-06 0.00386879)
(2.76072e-06 6.07794e-06 0.00386835)
(3.24546e-06 5.91537e-06 0.00386867)
(3.7355e-06 5.67745e-06 0.00386821)
(4.22664e-06 5.40078e-06 0.00386746)
(2.63446e-06 4.82015e-06 0.00386423)
(3.05329e-06 4.63528e-06 0.00386676)
(3.47405e-06 4.405e-06 0.00386686)
(3.93163e-06 4.16144e-06 0.00386631)
(2.2138e-06 5.48735e-06 0.00387244)
(2.69631e-06 5.50734e-06 0.00387211)
(3.1298e-06 5.42995e-06 0.00387144)
(3.49369e-06 5.2913e-06 0.00387063)
(2.20987e-06 5.04559e-06 0.00387085)
(2.62925e-06 5.01918e-06 0.00387066)
(3.00309e-06 4.91018e-06 0.00387008)
(3.32568e-06 4.75048e-06 0.00386934)
(2.19011e-06 4.41529e-06 0.00386904)
(2.53926e-06 4.33986e-06 0.00386934)
(2.85499e-06 4.20546e-06 0.00386891)
(3.14103e-06 4.03142e-06 0.00386824)
(2.13637e-06 3.59658e-06 0.00386514)
(2.43447e-06 3.49463e-06 0.00386762)
(2.69144e-06 3.35581e-06 0.00386769)
(2.93837e-06 3.19763e-06 0.00386721)
(1.605e-06 3.75173e-06 0.00387221)
(1.93805e-06 3.7915e-06 0.00387196)
(2.22667e-06 3.76364e-06 0.00387141)
(2.45861e-06 3.68919e-06 0.00387075)
(1.62631e-06 3.49276e-06 0.00387098)
(1.91707e-06 3.49912e-06 0.00387085)
(2.16071e-06 3.44607e-06 0.00387034)
(2.35835e-06 3.3522e-06 0.00386972)
(1.63357e-06 3.10347e-06 0.00386943)
(1.87633e-06 3.07194e-06 0.00386977)
(2.07535e-06 2.9969e-06 0.00386939)
(2.24048e-06 2.88848e-06 0.00386883)
(1.61456e-06 2.57549e-06 0.00386572)
(1.82024e-06 2.52022e-06 0.0038682)
(1.97404e-06 2.43713e-06 0.00386831)
(2.10496e-06 2.33573e-06 0.0038679)
(1.08204e-06 2.42728e-06 0.00387202)
(1.2984e-06 2.46494e-06 0.00387184)
(1.48068e-06 2.45838e-06 0.00387138)
(1.62243e-06 2.41918e-06 0.00387083)
(1.10692e-06 2.28012e-06 0.00387102)
(1.29633e-06 2.29554e-06 0.00387094)
(1.44737e-06 2.27112e-06 0.00387051)
(1.56426e-06 2.21728e-06 0.00386999)
(1.12138e-06 2.04767e-06 0.00386966)
(1.27966e-06 2.03653e-06 0.00387004)
(1.39949e-06 1.99585e-06 0.00386971)
(1.49204e-06 1.93067e-06 0.00386923)
(1.11734e-06 1.72085e-06 0.00386609)
(1.25074e-06 1.69186e-06 0.0038686)
(1.339e-06 1.64374e-06 0.00386874)
(1.40613e-06 1.58142e-06 0.0038684)
(6.28083e-07 1.37771e-06 0.0038719)
(7.50566e-07 1.40358e-06 0.00387175)
(8.51521e-07 1.4041e-06 0.00387135)
(9.28059e-07 1.38489e-06 0.00387087)
(6.46401e-07 1.30199e-06 0.00387104)
(7.53623e-07 1.31497e-06 0.00387099)
(8.35994e-07 1.30474e-06 0.00387062)
(8.97619e-07 1.27668e-06 0.00387016)
(6.58462e-07 1.17773e-06 0.00386979)
(7.47848e-07 1.17489e-06 0.0038702)
(8.11564e-07 1.15477e-06 0.00386992)
(8.58254e-07 1.11967e-06 0.00386949)
(6.59187e-07 9.97998e-07 0.0038663)
(7.34309e-07 9.84097e-07 0.00386884)
(7.79267e-07 9.59022e-07 0.00386902)
(8.10369e-07 9.25014e-07 0.00386873)
(2.65027e-07 6.13909e-07 0.00387183)
(3.1503e-07 6.2689e-07 0.00387171)
(3.55427e-07 6.28465e-07 0.00387134)
(3.85179e-07 6.20828e-07 0.0038709)
(2.74734e-07 5.82462e-07 0.00387104)
(3.179e-07 5.90001e-07 0.00387102)
(3.49758e-07 5.87004e-07 0.00387067)
(3.72467e-07 5.75656e-07 0.00387025)
(2.82148e-07 5.29099e-07 0.00386986)
(3.1717e-07 5.30035e-07 0.00387028)
(3.40342e-07 5.22888e-07 0.00387003)
(3.55924e-07 5.08579e-07 0.00386964)
(2.84968e-07 4.50354e-07 0.00386642)
(3.13319e-07 4.46868e-07 0.00386897)
(3.27729e-07 4.37796e-07 0.00386918)
(3.3585e-07 4.23982e-07 0.00386891)
(-0.000862464 0.000181124 0.00840667)
(-0.000293319 -9.32729e-05 0.00328846)
(-0.00091546 0.000411115 0.00989234)
(-0.000149626 0.000128203 0.00575246)
(-0.000461346 -0.000159426 0.0042996)
(-0.000752233 0.000558548 0.00544509)
(-0.000433778 0.000278082 0.0049933)
(-0.000253514 0.000438414 0.00740584)
(-0.000330091 0.000584205 0.00638116)
(-0.000497738 0.000393702 0.00696673)
(-0.000895485 0.000708348 0.0061807)
(-0.000212134 0.000224798 0.00588339)
(-0.000544856 0.000239563 0.00671689)
(-6.30119e-05 -0.000279443 0.00485707)
(-0.000731942 0.000305593 0.0073373)
(-0.000549794 -0.000127972 0.00590418)
(-8.29685e-05 0.000220131 0.0135324)
(-0.000775474 0.000386059 0.00827275)
(0.000729349 -3.82019e-05 0.00710558)
(0.000119809 0.000456305 0.00226069)
(6.53269e-08 0.000770974 0.0101765)
(-0.000150492 3.84267e-05 0.00261334)
(0.000181693 0.000564971 0.00480274)
(0.000140439 -0.000241741 0.00237185)
(-0.000557455 0.000118399 0.00393289)
(-0.000438386 0.000666653 0.0131525)
(-0.000362465 0.000325762 0.00798363)
(-0.000239644 -0.00075487 0.00716276)
(-0.000176763 0.000115253 0.010501)
(-0.000328242 0.000244 0.00622215)
(-0.000431683 -0.000411446 0.00860503)
(0.000167267 -3.13253e-05 0.00598259)
(-3.7562e-05 0.000477748 0.00352646)
(7.51939e-05 0.00183907 0.0108405)
(0.000220084 0.000609959 0.00893705)
(-0.000428972 0.00122295 0.0181456)
(3.60972e-05 0.00131103 0.00773248)
(-3.08443e-05 0.000577133 0.010072)
(-0.000129516 0.000256352 0.00427355)
(-0.000905833 0.000134198 0.0169559)
(-8.01024e-05 0.000129261 0.0101392)
(7.02209e-05 -0.00016071 0.00520252)
(0.000104357 -0.000231368 0.0137712)
(-5.2902e-05 0.00032479 0.00590637)
(-6.63328e-05 -0.000173983 0.0100228)
(-0.000190028 -7.35452e-05 0.0132245)
(0.000486043 -0.00022186 0.00929348)
(-0.000528013 0.000456866 0.00778449)
(-9.33968e-05 0.000305901 0.00592787)
(-0.000302107 -4.82159e-05 0.00617305)
(-0.000419432 0.000109967 0.00480059)
(0.000273534 -0.000488491 0.0128887)
(0.000502163 -0.00154722 0.0142374)
(0.000102344 0.000817474 0.0141014)
(-0.000508803 0.000160115 0.00670487)
(0.000359356 0.00101722 0.00750004)
(0.000325235 0.000191753 0.00913724)
(7.85634e-05 0.00118548 0.0129519)
(0.000367632 -0.000155315 0.0121495)
(-8.04702e-05 0.000973321 0.00669837)
(0.000288531 0.00041798 0.0119628)
(-0.000226823 0.000167354 0.00505961)
(0.00014165 -0.000307316 0.00781958)
(0.000182298 0.000219973 0.0135348)
(-1.38164e-05 -0.00188379 0.0205252)
(-0.00013271 -0.00069308 0.0081396)
(-0.000663774 0.000343633 0.0130253)
(0.000479833 0.000954388 0.00782311)
(-5.86221e-05 -0.000102379 0.00212182)
(8.49434e-05 -0.000222364 0.00600299)
(0.00058251 0.000350619 0.00647548)
(1.50473e-05 0.000556516 0.00554588)
(6.74333e-05 -0.000121169 0.00431836)
(0.000165466 0.000520301 0.00850666)
(0.000862499 0.000173625 0.01546)
(6.90815e-05 0.000602797 0.0114843)
(0.000262778 0.000249079 0.0103891)
(0.000180789 0.000453003 0.0184705)
(0.000444546 7.01036e-05 0.00486213)
(0.000274019 0.000730281 0.00842712)
(-0.00012753 1.04406e-05 0.000988609)
(-0.000160192 6.15552e-05 0.00369872)
(-2.75386e-05 0.000622089 0.0033536)
(-0.000327124 0.000374736 0.00328506)
(-0.000219674 0.000158872 0.00900587)
(0.000118 -5.09942e-06 0.00616177)
(4.49487e-05 0.000295404 0.00423362)
(-0.0011063 0.00160839 0.0101186)
(0.000242892 -0.000252235 0.00527021)
(-0.000278212 0.000111311 0.00636998)
(0.000861446 0.00041119 0.00854606)
(1.50276e-05 -6.5767e-05 0.000439613)
(0.000731505 -0.000126474 0.00752211)
(5.86198e-06 0.000184847 0.00286143)
(6.2674e-06 0.000411199 0.00341143)
(0.000215079 -0.000564985 0.0113154)
(-0.0010541 0.00103588 0.00729175)
(-6.71353e-05 -0.00023407 0.00431347)
(0.00220373 0.00108039 0.00497923)
(-4.64342e-07 -0.000283176 0.00695344)
(-0.000576308 0.00104846 0.00650422)
(0.00116753 -0.000560848 0.00432892)
(2.46329e-05 0.000184972 0.00586575)
(-0.000896108 -0.000604792 0.00653264)
(0.00398361 -0.000919753 0.00484021)
(-9.74991e-05 -0.000402597 0.00527651)
(-0.000346713 0.000872989 0.00734581)
(-8.15823e-06 6.83316e-06 0.00371532)
(-0.000390869 -0.000518554 0.00590548)
(7.1957e-05 -6.18668e-05 0.00983648)
(0.00109993 0.00096645 0.00372972)
(-0.000390128 -0.000424861 0.00931808)
(-0.000199676 -0.000270199 0.0096667)
(-4.51444e-05 -0.000449821 0.00435282)
(-4.0042e-05 -0.000540142 0.00734744)
(-0.000464435 -0.000805871 0.00970304)
(-0.000302036 -0.000231868 0.0119362)
(-0.000136595 -0.000529373 0.0073297)
(-0.000361109 -0.000392753 0.00901513)
(-0.000407306 -0.000486471 0.00936739)
(-0.00018732 -0.000591407 0.00791492)
(-0.000210711 -0.000647658 0.00932371)
(-0.000386113 -3.14072e-05 0.00882898)
(-2.27166e-05 -0.000343838 0.00881585)
(-0.000440131 -0.000565364 0.0025338)
(-0.000179116 -0.000397644 0.00845895)
(-0.000167026 5.51755e-05 0.00694639)
(6.27267e-05 -0.000316408 0.0103443)
(9.82776e-05 -0.000244772 0.00219507)
(3.88466e-05 -0.000403134 0.00145588)
(-0.000744615 -0.000515715 0.00164216)
(-0.00105013 -0.000575341 0.00215037)
(-0.000310103 0.000156661 0.00253201)
(0.000103551 -0.000476622 0.0019422)
(-0.000522713 -0.000238634 0.00195639)
(-0.00054455 -0.000123674 0.00234505)
(-0.000746466 0.000495171 0.0020021)
(-0.000143336 -0.000299685 0.00222216)
(-0.000431412 3.20074e-05 0.00199666)
(-0.0003192 -0.00024745 0.00244137)
(-0.000524916 0.000164151 0.00133163)
(-0.000370214 -0.000234927 0.00220562)
(-0.000510036 -2.68004e-05 0.00197385)
(-0.000218399 -0.000229941 0.00284655)
(-0.000127845 -0.0001212 0.00439556)
(-0.000132043 -0.000232081 0.00409876)
(-0.000322848 -0.000257981 0.00429757)
(-0.000304351 -0.000328911 0.00467811)
(-0.000231321 -3.54411e-05 0.00444923)
(-0.000128069 -0.00023993 0.00428105)
(-0.000291672 -0.000170491 0.00437048)
(-0.000201487 -0.000187695 0.00468579)
(-0.000328089 3.87917e-05 0.00416369)
(-0.000190683 -0.000173749 0.00435644)
(-0.000280791 -7.60845e-05 0.00431776)
(-0.000140828 -0.000155164 0.00466379)
(-0.000259614 -5.34964e-05 0.00373394)
(-0.000240169 -0.000137979 0.00422285)
(-0.000302501 -6.37413e-05 0.00416306)
(-9.59119e-05 -8.77081e-05 0.00470929)
(-5.97958e-05 -6.16207e-05 0.00372467)
(-6.59657e-05 -0.000101292 0.00373311)
(-0.000131286 -0.000111113 0.00381808)
(-0.000109713 -0.000144191 0.00395965)
(-8.90898e-05 -3.17067e-05 0.00370417)
(-6.77179e-05 -9.77219e-05 0.00377409)
(-0.00013059 -8.26003e-05 0.00384698)
(-8.46367e-05 -0.0001052 0.00400653)
(-0.000110404 -1.61638e-05 0.00359561)
(-8.18535e-05 -8.35416e-05 0.0037642)
(-0.000131255 -5.95142e-05 0.00381699)
(-6.27302e-05 -8.85717e-05 0.00400703)
(-9.13449e-05 -3.78599e-05 0.00342653)
(-9.71478e-05 -6.61728e-05 0.0036582)
(-0.000138158 -4.47814e-05 0.00370291)
(-4.74621e-05 -4.51394e-05 0.00394541)
(-3.91345e-05 -2.18201e-05 0.00380291)
(-4.26522e-05 -4.17183e-05 0.00382112)
(-5.60822e-05 -4.75902e-05 0.00385633)
(-3.3545e-05 -6.21129e-05 0.00391444)
(-4.73925e-05 -1.6159e-05 0.00377922)
(-4.61264e-05 -4.27946e-05 0.00382519)
(-6.1179e-05 -4.09294e-05 0.00386275)
(-2.93855e-05 -5.33216e-05 0.0039361)
(-5.23827e-05 -1.46395e-05 0.00370862)
(-5.01813e-05 -3.95522e-05 0.0037903)
(-6.4336e-05 -3.25965e-05 0.0038296)
(-2.35966e-05 -4.30247e-05 0.00392192)
(-4.53374e-05 -2.29758e-05 0.00359185)
(-5.39579e-05 -3.32314e-05 0.00369042)
(-6.72106e-05 -2.34585e-05 0.00372872)
(-1.98465e-05 -2.02683e-05 0.00383825)
(-1.94491e-05 -4.87742e-06 0.00381727)
(-2.0464e-05 -1.37506e-05 0.00383922)
(-2.1131e-05 -1.79399e-05 0.00385932)
(-6.12329e-06 -2.45638e-05 0.00388404)
(-2.19654e-05 -4.84207e-06 0.00379027)
(-2.32522e-05 -1.64743e-05 0.00382981)
(-2.52333e-05 -1.823e-05 0.00385709)
(-6.37941e-06 -2.44638e-05 0.00389147)
(-2.25637e-05 -7.10093e-06 0.00372694)
(-2.49354e-05 -1.71636e-05 0.0037852)
(-2.79866e-05 -1.5886e-05 0.00382083)
(-5.67065e-06 -2.01668e-05 0.00386657)
(-1.94673e-05 -1.08524e-05 0.00361896)
(-2.58836e-05 -1.52827e-05 0.00368073)
(-2.97356e-05 -1.12236e-05 0.00371764)
(-5.63948e-06 -9.10545e-06 0.00377067)
(-7.68724e-06 2.85607e-06 0.00383096)
(-7.43241e-06 -1.34462e-06 0.00384803)
(-5.43385e-06 -4.07463e-06 0.00385938)
(3.51435e-06 -7.51461e-06 0.00386976)
(-8.64815e-06 1.4531e-06 0.00380357)
(-9.31958e-06 -4.16029e-06 0.00383391)
(-8.10874e-06 -6.31454e-06 0.00385264)
(2.48329e-06 -9.59172e-06 0.00386883)
(-8.62075e-06 -1.02078e-06 0.00374214)
(-1.03792e-05 -5.91308e-06 0.0037857)
(-1.00355e-05 -6.47622e-06 0.003814)
(1.79876e-06 -8.57125e-06 0.00383774)
(-7.13564e-06 -3.41916e-06 0.00363682)
(-1.0821e-05 -6.03423e-06 0.00367934)
(-1.13151e-05 -4.6719e-06 0.00370943)
(8.73369e-07 -3.81099e-06 0.00373696)
(-1.3926e-06 5.79632e-06 0.00383977)
(-7.71191e-07 3.67486e-06 0.00385317)
(1.25749e-06 1.88063e-06 0.00385971)
(6.40002e-06 -4.41165e-08 0.003864)
(-1.90095e-06 4.24235e-06 0.00381243)
(-1.98196e-06 1.22661e-06 0.00383719)
(-3.93808e-07 -4.73923e-07 0.00385048)
(5.42926e-06 -2.43013e-06 0.00385864)
(-1.89416e-06 2.18844e-06 0.0037514)
(-2.72429e-06 -5.75772e-07 0.00378744)
(-1.71365e-06 -1.50649e-06 0.00381019)
(4.49689e-06 -2.92337e-06 0.00382409)
(-1.17426e-06 4.15619e-07 0.00364657)
(-3.03527e-06 -1.4363e-06 0.00368011)
(-2.66356e-06 -1.30526e-06 0.00370469)
(3.46476e-06 -1.30549e-06 0.00372107)
(1.55173e-06 6.3636e-06 0.00384544)
(2.23498e-06 5.27134e-06 0.0038566)
(3.71039e-06 4.06676e-06 0.00386068)
(6.56456e-06 2.87376e-06 0.00386232)
(1.24965e-06 5.05386e-06 0.0038182)
(1.4338e-06 3.3127e-06 0.00383988)
(2.67034e-06 1.99706e-06 0.00385016)
(5.80778e-06 7.36347e-07 0.00385473)
(1.19509e-06 3.46339e-06 0.00375727)
(8.83824e-07 1.73962e-06 0.00378945)
(1.76758e-06 7.73646e-07 0.00380884)
(5.00405e-06 -2.70383e-07 0.00381837)
(1.52588e-06 2.11352e-06 0.00365253)
(6.33969e-07 6.74318e-07 0.00368163)
(1.07595e-06 2.53073e-07 0.00370271)
(4.13104e-06 -1.41704e-07 0.00371423)
(2.65938e-06 5.85346e-06 0.00384905)
(3.24708e-06 5.27207e-06 0.003859)
(4.2029e-06 4.47663e-06 0.00386185)
(5.75705e-06 3.6789e-06 0.00386241)
(2.45175e-06 4.83248e-06 0.00382191)
(2.73394e-06 3.7689e-06 0.00384198)
(3.55127e-06 2.81695e-06 0.0038507)
(5.18854e-06 1.93999e-06 0.00385375)
(2.35348e-06 3.63927e-06 0.00376103)
(2.32975e-06 2.49094e-06 0.00379122)
(2.9412e-06 1.64523e-06 0.00380883)
(4.56717e-06 8.36017e-07 0.00381646)
(2.48716e-06 2.61245e-06 0.00365631)
(2.11885e-06 1.47826e-06 0.00368316)
(2.44345e-06 8.66688e-07 0.00370234)
(3.90341e-06 3.40385e-07 0.00371172)
(2.82248e-06 4.94066e-06 0.00385135)
(3.28187e-06 4.62719e-06 0.00386072)
(3.86736e-06 4.09198e-06 0.00386302)
(4.69026e-06 3.53781e-06 0.0038632)
(2.67142e-06 4.17244e-06 0.00382429)
(2.95182e-06 3.49924e-06 0.0038436)
(3.45314e-06 2.8173e-06 0.00385156)
(4.27901e-06 2.18633e-06 0.00385403)
(2.5619e-06 3.29414e-06 0.00376345)
(2.6597e-06 2.5005e-06 0.00379271)
(3.03718e-06 1.81646e-06 0.00380941)
(3.818e-06 1.17714e-06 0.00381627)
(2.59572e-06 2.51966e-06 0.00365875)
(2.48966e-06 1.63378e-06 0.00368454)
(2.68106e-06 1.01714e-06 0.00370274)
(3.32853e-06 4.87494e-07 0.00371123)
(2.54358e-06 3.95056e-06 0.00385284)
(2.88409e-06 3.77929e-06 0.00386197)
(3.23201e-06 3.41621e-06 0.00386406)
(3.65488e-06 3.02642e-06 0.00386415)
(2.43333e-06 3.38572e-06 0.00382585)
(2.67126e-06 2.94909e-06 0.00384484)
(2.96567e-06 2.46255e-06 0.00385247)
(3.3623e-06 2.0044e-06 0.00385477)
(2.32963e-06 2.74562e-06 0.00376503)
(2.4624e-06 2.19071e-06 0.0037939)
(2.68002e-06 1.65933e-06 0.00381019)
(3.02715e-06 1.16231e-06 0.00381678)
(2.31888e-06 2.17069e-06 0.00366036)
(2.33085e-06 1.49253e-06 0.00368568)
(2.427e-06 9.49912e-07 0.00370342)
(2.67293e-06 4.82805e-07 0.00371158)
(2.08909e-06 3.0229e-06 0.00385382)
(2.33337e-06 2.92858e-06 0.00386288)
(2.53534e-06 2.68245e-06 0.00386491)
(2.74495e-06 2.40985e-06 0.00386503)
(2.00982e-06 2.61657e-06 0.00382688)
(2.19636e-06 2.33016e-06 0.00384577)
(2.36358e-06 1.98646e-06 0.0038533)
(2.54037e-06 1.65733e-06 0.00385558)
(1.92221e-06 2.15834e-06 0.00376609)
(2.04884e-06 1.77016e-06 0.00379481)
(2.16808e-06 1.37102e-06 0.00381096)
(2.30129e-06 9.9626e-07 0.0038175)
(1.89452e-06 1.73884e-06 0.00366143)
(1.95027e-06 1.23328e-06 0.00368658)
(1.99038e-06 7.93219e-07 0.00370414)
(2.04856e-06 4.14161e-07 0.00371223)
(1.59119e-06 2.20251e-06 0.00385448)
(1.76042e-06 2.15081e-06 0.00386353)
(1.87455e-06 1.98662e-06 0.00386558)
(1.97357e-06 1.80047e-06 0.00386576)
(1.5358e-06 1.91969e-06 0.00382757)
(1.67329e-06 1.7331e-06 0.00384644)
(1.76499e-06 1.49639e-06 0.00385397)
(1.83437e-06 1.2667e-06 0.0038563)
(1.46777e-06 1.60098e-06 0.00376679)
(1.57171e-06 1.33499e-06 0.00379549)
(1.63382e-06 1.04785e-06 0.00381161)
(1.66893e-06 7.77086e-07 0.00381818)
(1.43824e-06 1.30478e-06 0.00366215)
(1.50092e-06 9.42503e-07 0.00368726)
(1.51222e-06 6.09751e-07 0.00370478)
(1.49386e-06 3.23086e-07 0.00371288)
(1.10634e-06 1.48892e-06 0.0038549)
(1.21657e-06 1.46145e-06 0.00386398)
(1.27827e-06 1.35715e-06 0.00386607)
(1.32181e-06 1.23696e-06 0.00386632)
(1.06978e-06 1.30413e-06 0.00382801)
(1.1632e-06 1.1876e-06 0.00384692)
(1.21121e-06 1.03363e-06 0.00385448)
(1.23229e-06 8.82895e-07 0.00385687)
(1.02177e-06 1.09529e-06 0.00376725)
(1.09703e-06 9.22985e-07 0.00379598)
(1.12754e-06 7.3058e-07 0.00381212)
(1.12443e-06 5.48536e-07 0.00381874)
(9.9773e-07 8.98925e-07 0.00366262)
(1.04973e-06 6.5682e-07 0.00368775)
(1.0489e-06 4.26488e-07 0.00370528)
(1.0102e-06 2.2808e-07 0.00371341)
(6.54672e-07 8.69457e-07 0.00385515)
(7.16845e-07 8.56213e-07 0.00386426)
(7.46505e-07 7.98026e-07 0.00386638)
(7.63034e-07 7.30361e-07 0.00386668)
(6.33845e-07 7.63976e-07 0.00382828)
(6.87911e-07 6.99672e-07 0.00384722)
(7.1023e-07 6.12222e-07 0.00385481)
(7.12753e-07 5.26306e-07 0.00385725)
(6.04978e-07 6.44331e-07 0.00376753)
(6.50172e-07 5.46853e-07 0.00379628)
(6.63345e-07 4.35497e-07 0.00381246)
(6.51528e-07 3.29984e-07 0.00381912)
(5.89252e-07 5.29814e-07 0.0036629)
(6.22659e-07 3.89966e-07 0.00368806)
(6.18736e-07 2.54063e-07 0.00370561)
(5.86511e-07 1.37062e-07 0.00371379)
(2.85591e-07 3.933e-07 0.00385529)
(3.08211e-07 3.88957e-07 0.00386442)
(3.15575e-07 3.65397e-07 0.00386656)
(3.16302e-07 3.37438e-07 0.00386689)
(2.7834e-07 3.4483e-07 0.00382843)
(2.98277e-07 3.18664e-07 0.00384739)
(3.02045e-07 2.81413e-07 0.003855)
(2.95752e-07 2.45001e-07 0.00385747)
(2.66434e-07 2.88609e-07 0.00376768)
(2.83545e-07 2.47035e-07 0.00379646)
(2.83476e-07 1.9835e-07 0.00381265)
(2.70508e-07 1.53066e-07 0.00381934)
(2.56405e-07 2.31629e-07 0.00366306)
(2.69957e-07 1.71226e-07 0.00368824)
(2.63566e-07 1.11694e-07 0.00370581)
(2.42382e-07 6.15089e-08 0.00371401)
(0.000478257 0.000974085 0.00647105)
(-0.000854937 0.00135626 0.0120003)
(-0.000492773 0.000215586 0.00429477)
(7.63571e-05 0.000422642 0.00734993)
(0.000147646 0.000747554 0.00365025)
(-0.000407869 0.000654312 0.00706279)
(-0.000240373 0.000834705 0.00518131)
(-3.19082e-05 0.00096338 0.00607975)
(-0.000730084 0.000697971 0.006606)
(-0.00168707 0.000995991 0.0072618)
(-0.000344374 0.000701484 0.00449568)
(-0.000598875 0.000831754 0.0069517)
(-0.000350167 -0.000224125 0.0050875)