/*--------------------------------*- C++ -*----------------------------------*\
| =========                 |                                                 |
| \\      /  F ield         | OpenFOAM: The Open Source CFD Toolbox           |
|  \\    /   O peration     | Version:  2506                                  |
|   \\  /    A nd           | Website:  www.openfoam.com                      |
|    \\/     M anipulation  |                                                 |
\*---------------------------------------------------------------------------*/
FoamFile
{
    version     2.0;
    format      ascii;
    arch        "LSB;label=32;scalar=64";
    class       volVectorField;
    location    "0.01";
    object      Us;
}
// * * * * * * * * * * * * * * * * * * * * * * * * * * * * * * * * * * * * * //

dimensions      [0 1 -1 0 0 0 0];

internalField   nonuniform List<vector> 
1152
(
(-2.49565e-06 6.2689e-06 4.18864e-05)
(2.94088e-05 -4.03272e-06 2.41979e-05)
(-3.06913e-05 3.41316e-05 2.63307e-05)
(-3.43185e-05 -3.08618e-05 3.21002e-05)
(1.69917e-06 -6.42816e-06 4.35834e-05)
(-1.91282e-05 4.25501e-05 5.14933e-05)
(-6.40898e-05 -5.0506e-06 4.09912e-05)
(-7.5665e-05 -8.18882e-05 2.28382e-05)
(-2.04073e-05 2.27468e-05 7.19883e-05)
(1.29469e-05 2.91587e-05 2.70687e-05)
(1.82213e-05 -9.58328e-06 5.08548e-05)
(-0.000127519 -7.48164e-05 2.08879e-05)
(0.000220422 -0.000241077 -0.000285056)
(0.000130825 -9.34767e-06 3.71393e-05)
(1.7632e-06 -0.00025761 2.89815e-05)
(4.09851e-05 -8.05803e-06 1.80595e-05)
(1.34343e-05 6.53096e-06 0.000153861)
(6.73179e-05 6.75517e-05 0.000142685)
(-5.22521e-05 -7.86361e-06 4.3456e-05)
(-3.6392e-05 -4.14832e-05 4.51273e-05)
(6.78772e-07 2.15738e-05 0.000178432)
(6.21008e-05 7.14768e-05 0.000132316)
(-6.01162e-05 2.99778e-05 6.53637e-05)
(-3.56504e-06 -1.36034e-05 4.58659e-05)
(4.75926e-05 -1.857e-05 0.000149887)
(-1.03639e-05 5.65018e-05 0.000129636)
(-5.06939e-06 3.63464e-05 9.01063e-05)
(5.19113e-05 2.29064e-05 2.65051e-05)
(4.3165e-05 1.50185e-05 8.02852e-05)
(5.2041e-05 4.67398e-05 0.000117174)
(5.97091e-05 3.45138e-05 9.32512e-05)
(6.10382e-05 4.51155e-05 2.97184e-05)
(-0.000133631 5.43297e-05 0.000206416)
(-9.22451e-05 4.62384e-05 -1.99084e-05)
(-7.24912e-05 5.21974e-05 5.90557e-05)
(-5.7935e-05 -1.9023e-05 6.16417e-06)
(-6.6681e-05 7.94199e-05 0.000226627)
(-5.25265e-05 8.43857e-05 0.000109843)
(-1.57736e-05 9.0166e-05 6.12809e-05)
(4.67119e-06 6.99813e-05 4.80063e-05)
(-1.06698e-05 7.67508e-05 0.000208395)
(-3.70013e-05 7.81586e-05 0.000169612)
(2.94398e-05 0.000123034 6.45411e-05)
(2.18246e-05 9.91163e-05 -7.21076e-06)
(-3.30585e-05 0.000105167 0.000218436)
(-2.16982e-05 0.000107077 0.000200303)
(1.37267e-05 0.000127692 0.000146566)
(5.19383e-06 0.000154768 2.98267e-05)
(-9.92601e-05 0.000111826 0.000232945)
(-0.000124508 0.000166904 -1.99114e-05)
(-7.99622e-05 0.000141491 -5.00153e-05)
(-0.000133893 8.45057e-05 -6.78109e-05)
(-4.79328e-05 9.82938e-05 0.000219526)
(-1.66055e-05 0.000155669 7.57491e-05)
(1.2967e-05 0.000188563 -1.87147e-05)
(4.49996e-05 0.000220969 -4.09074e-05)
(-3.96755e-05 8.94443e-05 0.000216383)
(-4.52701e-05 0.000145058 0.000161525)
(-6.12844e-05 0.000185547 3.48909e-05)
(-2.11992e-05 0.000210806 -3.06677e-05)
(-4.45466e-05 0.000132035 0.000246248)
(-2.77952e-05 0.000125999 0.000211498)
(6.93367e-07 0.000168281 0.000177969)
(-1.92922e-05 0.00016633 0.000120575)
(7.59742e-06 0.000162498 0.000240239)
(2.03774e-05 0.000177113 -5.84643e-05)
(1.57734e-05 0.000188462 -0.000268979)
(-3.92519e-06 0.000174429 -0.000274209)
(1.92458e-05 0.000126036 0.00023458)
(3.88977e-05 0.000132628 2.02125e-05)
(4.33884e-05 0.000174133 -0.000131475)
(7.28482e-05 0.000248913 -0.000195759)
(3.6892e-05 0.000107137 0.000222556)
(2.03633e-05 0.0001184 0.000124063)
(1.18195e-05 0.000151854 -1.78607e-05)
(6.01955e-05 0.000184556 1.04222e-05)
(5.29396e-05 8.14953e-05 0.000363294)
(7.87041e-05 8.42093e-05 0.000269339)
(-1.9214e-06 9.64864e-05 0.000148987)
(1.079e-05 0.00013192 0.000149772)
(2.54186e-05 2.52531e-05 0.000292881)
(0.00032232 0.000108537 -0.000146158)
(0.000351997 0.000178601 -0.000362498)
(9.78827e-05 0.00014677 -0.000263033)
(4.74904e-05 -0.000225043 0.00025795)
(0.000265424 -4.60268e-05 1.79528e-05)
(0.000232351 0.000142131 -0.000201797)
(0.000105971 1.15549e-05 -0.000235717)
(9.65543e-05 -4.31018e-05 0.000274316)
(0.000108709 -0.000236531 0.000137153)
(0.00017106 -0.000178043 -7.70656e-05)
(6.63224e-05 4.82373e-06 3.34296e-05)
(0.000235905 -3.80438e-05 0.000313113)
(0.000159953 -0.000357956 0.000291084)
(0.000164129 -0.000204279 0.000151773)
(-4.70713e-05 2.66528e-05 0.000156651)
(0.00272167 0.00040504 0.000800004)
(0.00286378 0.00087688 -0.000363489)
(0.000116288 -9.88111e-05 -0.000357563)
(0.00200414 0.00156186 -0.000588918)
(-0.0103523 -0.00438353 -0.0160275)
(0.000324255 -0.000431601 1.89015e-05)
(0.000246795 0.0014934 -0.00049898)
(-0.0002755 8.6198e-05 -9.92284e-05)
(0.000219325 4.19434e-05 0.000448474)
(0.00012255 -0.000567623 -0.000207893)
(-0.00012066 -0.000375886 -0.000199011)
(-0.000765914 0.000238774 -0.000159108)
(-0.000178172 -0.000293383 0.000236711)
(0.000425342 -0.000677551 0.000156056)
(0.000726698 -0.000287465 0.000213975)
(-0.000892588 -0.00207557 -0.000816099)
(0 0 0)
(0 0 0)
(0 0 0)
(0 0 0)
(0 0 0)
(0 0 0)
(0 0 0)
(0 0 0)
(0 0 0)
(0 0 0)
(0 0 0)
(0 0 0)
(0 0 0)
(0 0 0)
(0 0 0)
(0 0 0)
(0 0 0)
(0 0 0)
(0 0 0)
(0 0 0)
(0 0 0)
(0 0 0)
(0 0 0)
(0 0 0)
(0 0 0)
(0 0 0)
(0 0 0)
(0 0 0)
(0 0 0)
(0 0 0)
(0 0 0)
(0 0 0)
(0 0 0)
(0 0 0)
(0 0 0)
(0 0 0)
(0 0 0)
(0 0 0)
(0 0 0)
(0 0 0)
(0 0 0)
(0 0 0)
(0 0 0)
(0 0 0)
(0 0 0)
(0 0 0)
(0 0 0)
(0 0 0)
(0 0 0)
(0 0 0)
(0 0 0)
(0 0 0)
(0 0 0)
(0 0 0)
(0 0 0)
(0 0 0)
(0 0 0)
(0 0 0)
(0 0 0)
(0 0 0)
(0 0 0)
(0 0 0)
(0 0 0)
(0 0 0)
(0 0 0)
(0 0 0)
(0 0 0)
(0 0 0)
(0 0 0)
(0 0 0)
(0 0 0)
(0 0 0)
(0 0 0)
(0 0 0)
(0 0 0)
(0 0 0)
(0 0 0)
(0 0 0)
(0 0 0)
(0 0 0)
(0 0 0)
(0 0 0)
(0 0 0)
(0 0 0)
(0 0 0)
(0 0 0)
(0 0 0)
(0 0 0)
(0 0 0)
(0 0 0)
(0 0 0)
(0 0 0)
(0 0 0)
(0 0 0)
(0 0 0)
(0 0 0)
(0 0 0)
(0 0 0)
(0 0 0)
(0 0 0)
(0 0 0)
(0 0 0)
(0 0 0)
(0 0 0)
(0 0 0)
(0 0 0)
(0 0 0)
(0 0 0)
(0 0 0)
(0 0 0)
(0 0 0)
(0 0 0)
(0 0 0)
(0 0 0)
(0 0 0)
(0 0 0)
(0 0 0)
(0 0 0)
(0 0 0)
(0 0 0)
(0 0 0)
(0 0 0)
(0 0 0)
(0 0 0)
(0 0 0)
(0 0 0)
(0 0 0)
(0 0 0)
(0 0 0)
(0 0 0)
(0 0 0)
(0 0 0)
(0 0 0)
(0 0 0)
(0 0 0)
(0 0 0)
(0 0 0)
(0 0 0)
(0 0 0)
(0 0 0)
(0 0 0)
(0 0 0)
(0 0 0)
(0 0 0)
(0 0 0)
(0 0 0)
(0 0 0)
(0 0 0)
(0 0 0)
(0 0 0)
(0 0 0)
(0 0 0)
(0 0 0)
(0 0 0)
(0 0 0)
(0 0 0)
(0 0 0)
(0 0 0)
(0 0 0)
(0 0 0)
(0 0 0)
(0 0 0)
(0 0 0)
(0 0 0)
(0 0 0)
(0 0 0)
(0 0 0)
(0 0 0)
(0 0 0)
(0 0 0)
(0 0 0)
(0 0 0)
(0 0 0)
(0 0 0)
(0 0 0)
(0 0 0)
(0 0 0)
(0 0 0)
(0 0 0)
(0 0 0)
(0 0 0)
(0 0 0)
(0 0 0)
(0 0 0)
(0 0 0)
(0 0 0)
(0 0 0)
(0 0 0)
(0 0 0)
(0 0 0)
(0 0 0)
(0 0 0)
(0 0 0)
(0 0 0)
(0 0 0)
(0 0 0)
(0 0 0)
(0 0 0)
(0 0 0)
(0 0 0)
(0 0 0)
(0 0 0)
(0 0 0)
(0 0 0)
(0 0 0)
(0 0 0)
(0 0 0)
(0 0 0)
(0 0 0)
(0 0 0)
(0 0 0)
(0 0 0)
(0 0 0)
(0 0 0)
(0 0 0)
(0 0 0)
(0 0 0)
(0 0 0)
(0 0 0)
(0 0 0)
(0 0 0)
(0 0 0)
(0 0 0)
(0 0 0)
(0 0 0)
(0 0 0)
(0 0 0)
(0 0 0)
(0 0 0)
(0 0 0)
(0 0 0)
(0 0 0)
(0 0 0)
(0 0 0)
(0 0 0)
(0 0 0)
(0 0 0)
(0 0 0)
(0 0 0)
(0 0 0)
(0 0 0)
(0 0 0)
(0 0 0)
(0 0 0)
(0 0 0)
(0 0 0)
(0 0 0)
(0 0 0)
(0 0 0)
(0 0 0)
(0 0 0)
(0 0 0)
(0 0 0)
(0 0 0)
(0 0 0)
(0 0 0)
(0 0 0)
(0 0 0)
(0 0 0)
(0 0 0)
(0 0 0)
(0 0 0)
(0 0 0)
(0 0 0)
(0 0 0)
(0 0 0)
(0 0 0)
(0 0 0)
(0 0 0)
(0 0 0)
(0 0 0)
(0 0 0)
(0.000178434 -6.63271e-05 -0.000131352)
(4.06262e-05 -3.61209e-05 2.28598e-05)
(4.7474e-06 -5.47774e-05 4.07679e-05)
(5.74181e-05 2.86616e-05 4.75756e-05)
(-1.19118e-05 -1.71358e-05 6.67059e-05)
(5.91033e-05 -4.53114e-07 1.03688e-05)
(1.31816e-05 -4.85582e-06 3.78898e-05)
(5.20225e-06 2.13383e-05 3.77695e-05)
(-3.29852e-05 3.24287e-05 4.14945e-05)
(2.21833e-05 -1.84095e-05 1.34455e-05)
(-9.23281e-05 3.96364e-06 1.89148e-05)
(-1.42614e-05 -9.91642e-06 2.82873e-05)
(1.41872e-05 4.87193e-06 6.28484e-05)
(3.9254e-05 5.00901e-06 1.46556e-05)
(-5.49925e-05 8.19633e-06 6.71744e-06)
(-6.63052e-06 -5.57384e-05 5.75936e-05)
(4.24252e-05 -1.51142e-05 8.12226e-05)
(4.57342e-05 -2.63793e-05 5.00729e-05)
(4.30027e-05 -9.07884e-06 0.00010958)
(6.5045e-05 2.43172e-05 0.000107629)
(6.35678e-05 -1.56572e-06 0.000132764)
(3.19329e-05 2.03887e-05 0.000123593)
(1.59637e-05 1.08635e-06 0.000123615)
(5.47456e-05 2.00196e-05 0.00010364)
(-0.000391327 0.000103816 -3.09022e-05)
(3.38877e-05 1.9014e-05 8.94578e-05)
(4.73843e-05 9.98002e-06 5.88367e-05)
(2.07345e-05 2.07274e-06 0.000110368)
(-0.000185957 3.49903e-05 2.89619e-05)
(3.89825e-05 3.26891e-05 5.22802e-05)
(3.6776e-05 3.41198e-06 4.66506e-05)
(5.55012e-05 -6.66957e-05 0.000107316)
(-5.10367e-08 6.64247e-05 0.000203145)
(-1.39054e-05 9.89605e-05 0.000198793)
(1.71604e-05 9.41998e-05 0.0001463)
(7.57963e-05 0.000108923 0.000141172)
(3.07781e-05 1.8674e-05 0.000174219)
(4.18634e-05 0.000116814 0.000214802)
(4.20745e-05 5.95598e-05 0.000172874)
(5.31898e-05 3.71505e-05 0.000158913)
(-7.26796e-05 7.43591e-05 0.000121258)
(5.19355e-06 0.00010803 0.000202464)
(4.69963e-05 5.75203e-05 0.000145736)
(5.16809e-05 -4.62978e-06 0.000178412)
(-8.50937e-05 -7.39901e-06 6.49238e-05)
(7.99973e-06 2.66279e-05 8.0296e-05)
(4.59065e-05 2.37147e-06 7.85921e-05)
(4.73099e-05 -6.74842e-06 9.9699e-05)
(-6.45682e-05 0.000147001 0.000266985)
(-2.90094e-05 0.000145943 0.000232888)
(-2.18179e-05 8.36568e-05 0.00021498)
(1.80899e-05 9.38499e-05 0.000198233)
(-2.3303e-06 0.000113757 0.000331561)
(9.73902e-05 0.000170728 0.000324203)
(4.82564e-06 7.14619e-05 0.000243608)
(6.16066e-06 1.60475e-05 0.000245977)
(1.80866e-05 3.20469e-05 0.000276682)
(2.94317e-05 0.000102678 0.000291318)
(3.52426e-05 7.10823e-05 0.000207574)
(1.39582e-05 1.53606e-05 0.000183534)
(-3.62396e-05 -3.24482e-05 0.000144807)
(-0.000103519 -3.62879e-05 0.000147519)
(2.0844e-05 8.99729e-06 0.000132918)
(3.17859e-05 9.30726e-06 0.000111305)
(-7.33642e-05 9.18129e-06 0.0003508)
(9.62137e-07 8.38261e-05 0.000266247)
(7.31289e-05 9.54095e-05 0.000296837)
(3.47966e-05 0.000107083 0.000271636)
(-7.72362e-05 3.50185e-05 0.000343502)
(2.96902e-06 -5.77703e-05 0.000319844)
(-5.0947e-05 2.55463e-05 0.000270948)
(-5.97707e-06 1.34135e-05 0.000288203)
(-6.49778e-05 1.61354e-05 0.000367973)
(-1.77266e-05 2.69313e-05 0.000236752)
(-2.97251e-05 6.65377e-05 0.000255355)
(-1.71238e-05 9.65225e-06 0.000250447)
(1.73763e-05 4.83092e-05 0.000177304)
(-0.000138345 -4.43588e-05 0.000142665)
(2.62578e-06 5.24346e-05 9.2336e-05)
(-8.85255e-06 1.30069e-05 0.000148968)
(-7.41462e-05 1.37746e-05 0.000291514)
(-3.88789e-05 -0.000128403 0.000309369)
(-8.15336e-05 -9.21601e-05 0.000266907)
(2.78123e-05 -1.55816e-07 0.000287863)
(0.000137606 0.000163675 0.000365301)
(-8.23839e-05 -5.50113e-05 0.000252682)
(-9.83158e-05 0.000107065 0.000275825)
(9.35169e-05 -4.35758e-05 0.000298039)
(-0.000120825 5.48192e-05 0.000372011)
(-0.00013941 -5.08489e-05 0.000110703)
(-0.000184192 0.00010947 0.000293213)
(5.03954e-06 -8.57249e-05 0.000229613)
(2.17722e-05 -1.02653e-05 0.000201328)
(-0.000143069 -9.02022e-06 0.000105338)
(-0.00011958 9.68206e-05 0.000175722)
(-0.000131423 -2.39043e-05 0.000156413)
(-0.00144535 0.000941107 -0.00027637)
(-9.02912e-05 -0.00032762 0.000129441)
(0.00236854 0.00122198 -0.00122537)
(1.95993e-05 -0.000285707 6.94359e-05)
(-0.000976918 0.000948198 -6.97958e-05)
(0.0011973 -0.000525671 -0.000330241)
(8.29943e-05 0.000297802 8.95302e-05)
(-0.00102989 -0.000724148 0.000349583)
(0.00426972 -0.000871484 0.000563004)
(-0.000129072 -0.000345846 0.000174118)
(-0.000357942 0.000768234 0.000189577)
(-0.000131663 9.34824e-05 0.000268303)
(-0.000363088 -0.000489132 -0.000190871)
(6.24694e-05 3.03912e-05 -0.000124827)
(0.00103847 0.000910944 -0.000323347)
(-0.000503927 -0.000364012 -3.45788e-06)
(0 0 0)
(0 0 0)
(0 0 0)
(0 0 0)
(0 0 0)
(0 0 0)
(0 0 0)
(0 0 0)
(0 0 0)
(0 0 0)
(0 0 0)
(0 0 0)
(0 0 0)
(0 0 0)
(0 0 0)
(0 0 0)
(0 0 0)
(0 0 0)
(0 0 0)
(0 0 0)
(0 0 0)
(0 0 0)
(0 0 0)
(0 0 0)
(0 0 0)
(0 0 0)
(0 0 0)
(0 0 0)
(0 0 0)
(0 0 0)
(0 0 0)
(0 0 0)
(0 0 0)
(0 0 0)
(0 0 0)
(0 0 0)
(0 0 0)
(0 0 0)
(0 0 0)
(0 0 0)
(0 0 0)
(0 0 0)
(0 0 0)
(0 0 0)
(0 0 0)
(0 0 0)
(0 0 0)
(0 0 0)
(0 0 0)
(0 0 0)
(0 0 0)
(0 0 0)
(0 0 0)
(0 0 0)
(0 0 0)
(0 0 0)
(0 0 0)
(0 0 0)
(0 0 0)
(0 0 0)
(0 0 0)
(0 0 0)
(0 0 0)
(0 0 0)
(0 0 0)
(0 0 0)
(0 0 0)
(0 0 0)
(0 0 0)
(0 0 0)
(0 0 0)
(0 0 0)
(0 0 0)
(0 0 0)
(0 0 0)
(0 0 0)
(0 0 0)
(0 0 0)
(0 0 0)
(0 0 0)
(0 0 0)
(0 0 0)
(0 0 0)
(0 0 0)
(0 0 0)
(0 0 0)
(0 0 0)
(0 0 0)
(0 0 0)
(0 0 0)
(0 0 0)
(0 0 0)
(0 0 0)
(0 0 0)
(0 0 0)
(0 0 0)
(0 0 0)
(0 0 0)
(0 0 0)
(0 0 0)
(0 0 0)
(0 0 0)
(0 0 0)
(0 0 0)
(0 0 0)
(0 0 0)
(0 0 0)
(0 0 0)
(0 0 0)
(0 0 0)
(0 0 0)
(0 0 0)
(0 0 0)
(0 0 0)
(0 0 0)
(0 0 0)
(0 0 0)
(0 0 0)
(0 0 0)
(0 0 0)
(0 0 0)
(0 0 0)
(0 0 0)
(0 0 0)
(0 0 0)
(0 0 0)
(0 0 0)
(0 0 0)
(0 0 0)
(0 0 0)
(0 0 0)
(0 0 0)
(0 0 0)
(0 0 0)
(0 0 0)
(0 0 0)
(0 0 0)
(0 0 0)
(0 0 0)
(0 0 0)
(0 0 0)
(0 0 0)
(0 0 0)
(0 0 0)
(0 0 0)
(0 0 0)
(0 0 0)
(0 0 0)
(0 0 0)
(0 0 0)
(0 0 0)
(0 0 0)
(0 0 0)
(0 0 0)
(0 0 0)
(0 0 0)
(0 0 0)
(0 0 0)
(0 0 0)
(0 0 0)
(0 0 0)
(0 0 0)
(0 0 0)
(0 0 0)
(0 0 0)
(0 0 0)
(0 0 0)
(0 0 0)
(0 0 0)
(0 0 0)
(0 0 0)
(0 0 0)
(0 0 0)
(0 0 0)
(0 0 0)
(0 0 0)
(0 0 0)
(0 0 0)
(0 0 0)
(0 0 0)
(0 0 0)
(0 0 0)
(0 0 0)
(0 0 0)
(0 0 0)
(0 0 0)
(0 0 0)
(0 0 0)
(0 0 0)
(0 0 0)
(0 0 0)
(0 0 0)
(0 0 0)
(0 0 0)
(0 0 0)
(0 0 0)
(0 0 0)
(0 0 0)
(0 0 0)
(0 0 0)
(0 0 0)
(0 0 0)
(0 0 0)
(0 0 0)
(0 0 0)
(0 0 0)
(0 0 0)
(0 0 0)
(0 0 0)
(0 0 0)
(0 0 0)
(0 0 0)
(0 0 0)
(0 0 0)
(0 0 0)
(0 0 0)
(0 0 0)
(0 0 0)
(0 0 0)
(0 0 0)
(0 0 0)
(0 0 0)
(0 0 0)
(0 0 0)
(0 0 0)
(0 0 0)
(0 0 0)
(0 0 0)
(0 0 0)
(0 0 0)
(0 0 0)
(0 0 0)
(0 0 0)
(0 0 0)
(0 0 0)
(0 0 0)
(0 0 0)
(0 0 0)
(0 0 0)
(0 0 0)
(0 0 0)
(0 0 0)
(0 0 0)
(0 0 0)
(0 0 0)
(0 0 0)
(0 0 0)
(0 0 0)
(0 0 0)
(0 0 0)
(0 0 0)
(0 0 0)
(0 0 0)
(0 0 0)
(0 0 0)
(0 0 0)
(0 0 0)
(0 0 0)
(0 0 0)
(0 0 0)
(0 0 0)
(0 0 0)
(0 0 0)
(0 0 0)
(0 0 0)
(0 0 0)
(0 0 0)
(0 0 0)
(0 0 0)
(0 0 0)
(0 0 0)
(0 0 0)
(3.10162e-05 4.3998e-05 5.93956e-05)
(3.32114e-05 4.25287e-05 6.73272e-05)
(8.71756e-06 -4.57395e-06 6.71798e-05)
(1.13315e-05 2.61241e-05 4.38369e-05)
(4.45255e-05 9.39758e-05 3.26178e-05)
(4.63278e-05 6.2726e-05 6.96108e-05)
(2.26892e-05 5.59276e-06 6.05362e-05)
(-5.08194e-06 2.05471e-05 6.12103e-05)
(1.20999e-05 -6.93602e-06 3.03577e-05)
(1.36362e-05 1.50343e-05 4.57687e-05)
(6.57172e-06 2.23632e-05 6.91386e-05)
(1.98016e-05 1.23803e-05 7.62597e-05)
(1.85442e-06 -2.49832e-05 2.60248e-05)
(-1.79084e-05 -6.86582e-06 3.11833e-05)
(4.00805e-05 5.51504e-06 7.64431e-05)
(4.0741e-05 -2.08298e-05 5.26381e-05)
(6.94662e-05 0.000220919 8.72297e-05)
(3.56222e-05 7.40036e-05 0.00013914)
(2.16348e-05 -1.43637e-05 0.000158624)
(2.73721e-05 -2.37187e-05 0.000151566)
(8.94395e-06 1.09837e-05 6.86071e-05)
(2.3539e-05 -2.31458e-05 0.00016286)
(2.48664e-05 -2.32577e-05 0.000168526)
(1.74434e-05 -2.76306e-05 0.000197425)
(5.35768e-05 3.99132e-05 -7.08144e-05)
(-8.64369e-06 -5.36913e-05 0.00016023)
(2.44684e-05 4.3912e-06 0.000155523)
(2.73515e-05 -4.54966e-05 0.000167779)
(1.73236e-05 4.23975e-06 1.75984e-05)
(1.12866e-05 -4.77626e-05 0.000145738)
(2.97722e-05 -1.6475e-05 0.000151442)
(2.55115e-05 -1.21524e-05 0.000125012)
(3.73077e-05 -0.000145706 0.000109065)
(0.000392346 7.03139e-05 0.0004295)
(9.57618e-05 -9.22511e-06 0.000354316)
(-9.13459e-05 -6.56556e-05 0.00022003)
(1.43663e-05 -0.000177997 9.71551e-05)
(4.82544e-05 -0.000111147 0.000250618)
(-2.42629e-05 1.52476e-05 0.00023181)
(-5.61852e-05 -4.65431e-05 0.000238257)
(-1.27124e-05 -5.07654e-05 0.000127856)
(-6.60117e-06 -6.60219e-05 0.000218868)
(1.16917e-05 4.37526e-05 0.000209473)
(1.45198e-05 -2.03569e-05 0.000224888)
(-6.41542e-06 -4.18531e-05 0.000145766)
(-1.35741e-05 -5.49888e-05 0.000203529)
(7.9589e-06 1.04422e-05 0.000202273)
(-8.01676e-07 1.4134e-05 0.00019729)
(-2.73455e-06 -2.04079e-05 0.000174044)
(0.00011968 -7.08858e-05 0.000423915)
(4.09043e-05 -9.56787e-05 0.000495108)
(-6.93647e-05 4.8518e-05 0.000337197)
(4.1088e-05 5.46774e-06 7.87344e-05)
(3.86449e-05 -0.000106237 0.000283766)
(-1.86228e-05 -7.58742e-05 0.000326616)
(-8.08782e-05 -8.8443e-06 0.000260543)
(2.32977e-06 -2.93556e-05 0.000163759)
(-1.40863e-05 -4.4689e-05 0.000229082)
(-4.24909e-05 -2.26242e-06 0.00020509)
(-1.73007e-05 8.52638e-05 0.000215926)
(-1.39432e-05 -4.07703e-05 0.000146476)
(-4.27946e-05 -5.09484e-05 0.000240303)
(-2.99633e-05 2.32626e-05 0.000264899)
(-3.20459e-05 0.000103582 0.000268762)
(-0.000116324 0.000120016 0.000170079)
(-3.44036e-05 0.000112666 0.000240609)
(-0.000102818 -6.32019e-06 0.000541742)
(-9.09431e-05 0.000159798 0.000268232)
(-1.65349e-05 3.35564e-05 -0.000162962)
(0.000145251 0.000229342 -0.000124723)
(0.000282566 0.000116151 0.000117278)
(-3.61852e-05 5.57762e-05 0.000250075)
(3.79576e-05 0.000114179 0.000149216)
(-3.3267e-05 3.76168e-05 0.000165224)
(8.70427e-05 -2.65059e-06 0.000133466)
(0.000105028 -8.23175e-05 7.35503e-05)
(-3.24595e-05 -1.71277e-05 7.5721e-05)
(-5.94179e-05 -9.47336e-05 0.000252514)
(-3.9073e-05 -9.12582e-05 0.000262915)
(6.20869e-05 -6.53996e-05 0.000276895)
(0.000333947 0.000397882 -0.000560619)
(0.000589033 -0.000140803 0.000268501)
(2.85846e-05 5.89966e-05 0.000574009)
(-0.000389537 8.19154e-05 0.00031073)
(-4.12417e-06 0.000261511 0.00019406)
(-0.000112219 -0.000490383 -3.81486e-05)
(6.30427e-05 4.48786e-05 0.000127917)
(-9.56115e-05 -0.000116272 0.00043565)
(0.000183627 0.000202946 0.000124594)
(0.000107972 -0.00034038 0.000144424)
(7.15113e-05 -0.000156486 0.000206767)
(2.50536e-05 -0.000207169 0.000258608)
(2.32584e-05 -0.000109866 0.000195459)
(3.19051e-05 -0.000285639 0.000347334)
(-2.96091e-05 -0.000222042 0.0004223)
(7.42118e-05 0.00011014 0.000152396)
(-0.0103508 -0.0040063 -0.00355934)
(-0.0015684 -0.000997243 -0.00165347)
(0.00288842 -0.000562482 -0.00241248)
(0.000545471 0.000174188 0.000583471)
(0.00108829 -0.00127951 -0.00152012)
(-0.00207655 -0.00545991 0.00176873)
(-0.000904622 0.00131095 -3.99705e-05)
(0.000129315 0.00375732 -0.00027545)
(0.000895773 0.000921476 -0.000679068)
(-0.000225394 -0.00312688 -0.00109814)
(0.000251056 0.0016832 -4.464e-05)
(9.41125e-05 0.000176719 0.000409059)
(-0.00291996 -0.000358321 -0.00101937)
(0.00151255 -0.00389884 -0.0016844)
(-0.00124771 -0.0012606 0.00116592)
(-0.00100777 0.00106242 0.000399767)
(0 0 0)
(0 0 0)
(0 0 0)
(0 0 0)
(0 0 0)
(0 0 0)
(0 0 0)
(0 0 0)
(0 0 0)
(0 0 0)
(0 0 0)
(0 0 0)
(0 0 0)
(0 0 0)
(0 0 0)
(0 0 0)
(0 0 0)
(0 0 0)
(0 0 0)
(0 0 0)
(0 0 0)
(0 0 0)
(0 0 0)
(0 0 0)
(0 0 0)
(0 0 0)
(0 0 0)
(0 0 0)
(0 0 0)
(0 0 0)
(0 0 0)
(0 0 0)
(0 0 0)
(0 0 0)
(0 0 0)
(0 0 0)
(0 0 0)
(0 0 0)
(0 0 0)
(0 0 0)
(0 0 0)
(0 0 0)
(0 0 0)
(0 0 0)
(0 0 0)
(0 0 0)
(0 0 0)
(0 0 0)
(0 0 0)
(0 0 0)
(0 0 0)
(0 0 0)
(0 0 0)
(0 0 0)
(0 0 0)
(0 0 0)
(0 0 0)
(0 0 0)
(0 0 0)
(0 0 0)
(0 0 0)
(0 0 0)
(0 0 0)
(0 0 0)
(0 0 0)
(0 0 0)
(0 0 0)
(0 0 0)
(0 0 0)
(0 0 0)
(0 0 0)
(0 0 0)
(0 0 0)
(0 0 0)
(0 0 0)
(0 0 0)
(0 0 0)
(0 0 0)
(0 0 0)
(0 0 0)
(0 0 0)
(0 0 0)
(0 0 0)
(0 0 0)
(0 0 0)
(0 0 0)
(0 0 0)
(0 0 0)
(0 0 0)
(0 0 0)
(0 0 0)
(0 0 0)
(0 0 0)
(0 0 0)
(0 0 0)
(0 0 0)
(0 0 0)
(0 0 0)
(0 0 0)
(0 0 0)
(0 0 0)
(0 0 0)
(0 0 0)
(0 0 0)
(0 0 0)
(0 0 0)
(0 0 0)
(0 0 0)
(0 0 0)
(0 0 0)
(0 0 0)
(0 0 0)
(0 0 0)
(0 0 0)
(0 0 0)
(0 0 0)
(0 0 0)
(0 0 0)
(0 0 0)
(0 0 0)
(0 0 0)
(0 0 0)
(0 0 0)
(0 0 0)
(0 0 0)
(0 0 0)
(0 0 0)
(0 0 0)
(0 0 0)
(0 0 0)
(0 0 0)
(0 0 0)
(0 0 0)
(0 0 0)
(0 0 0)
(0 0 0)
(0 0 0)
(0 0 0)
(0 0 0)
(0 0 0)
(0 0 0)
(0 0 0)
(0 0 0)
(0 0 0)
(0 0 0)
(0 0 0)
(0 0 0)
(0 0 0)
(0 0 0)
(0 0 0)
(0 0 0)
(0 0 0)
(0 0 0)
(0 0 0)
(0 0 0)
(0 0 0)
(0 0 0)
(0 0 0)
(0 0 0)
(0 0 0)
(0 0 0)
(0 0 0)
(0 0 0)
(0 0 0)
(0 0 0)
(0 0 0)
(0 0 0)
(0 0 0)
(0 0 0)
(0 0 0)
(0 0 0)
(0 0 0)
(0 0 0)
(0 0 0)
(0 0 0)
(0 0 0)
(0 0 0)
(0 0 0)
(0 0 0)
(0 0 0)
(0 0 0)
(0 0 0)
(0 0 0)
(0 0 0)
(0 0 0)
(0 0 0)
(0 0 0)
(0 0 0)
(0 0 0)
(0 0 0)
(0 0 0)
(0 0 0)
(0 0 0)
(0 0 0)
(0 0 0)
(0 0 0)
(0 0 0)
(0 0 0)
(0 0 0)
(0 0 0)
(0 0 0)
(0 0 0)
(0 0 0)
(0 0 0)
(0 0 0)
(0 0 0)
(0 0 0)
(0 0 0)
(0 0 0)
(0 0 0)
(0 0 0)
(0 0 0)
(0 0 0)
(0 0 0)
(0 0 0)
(0 0 0)
(0 0 0)
(0 0 0)
(0 0 0)
(0 0 0)
(0 0 0)
(0 0 0)
(0 0 0)
(0 0 0)
(0 0 0)
(0 0 0)
(0 0 0)
(0 0 0)
(0 0 0)
(0 0 0)
(0 0 0)
(0 0 0)
(0 0 0)
(0 0 0)
(0 0 0)
(0 0 0)
(0 0 0)
(0 0 0)
(0 0 0)
(0 0 0)
(0 0 0)
(0 0 0)
(0 0 0)
(0 0 0)
(0 0 0)
(0 0 0)
(0 0 0)
(0 0 0)
(0 0 0)
(0 0 0)
(0 0 0)
(0 0 0)
(0 0 0)
(0 0 0)
(0 0 0)
(0 0 0)
(0 0 0)
(0 0 0)
(0 0 0)
(0 0 0)
(0 0 0)
(0 0 0)
(0 0 0)
(0 0 0)
(0 0 0)
(0 0 0)
(0 0 0)
(0 0 0)
(0 0 0)
(0 0 0)
(0 0 0)
(0 0 0)
)
;

boundaryField
{
    inlet
    {
        type            zeroGradient;
    }
    outlet
    {
        type            zeroGradient;
    }
    wall
    {
        type            zeroGradient;
    }
    procBoundary2to0
    {
        type            processor;
        value           nonuniform List<vector> 
192
(
(-2.76998e-05 -5.8188e-06 4.46784e-05)
(-9.81544e-05 -1.47419e-05 2.82492e-05)
(-6.18098e-05 -0.000133546 -5.66193e-08)
(-7.17638e-05 -3.87708e-05 3.54555e-06)
(2.10402e-05 -2.17105e-05 9.88027e-05)
(-9.23264e-06 -1.90194e-05 8.9476e-05)
(-1.78494e-05 -4.756e-05 2.55854e-05)
(-7.16048e-05 -6.62497e-05 3.32654e-05)
(-0.000102475 3.2083e-05 0.000127404)
(-2.17517e-05 -2.9885e-05 3.54421e-05)
(-5.77837e-05 -3.23345e-06 3.52304e-07)
(-0.000116201 8.62351e-06 -2.1036e-05)
(-7.76749e-05 3.80292e-05 0.000177126)
(-7.24991e-05 0.000104397 -1.13894e-05)
(-2.35271e-05 4.21749e-05 -6.57959e-05)
(-0.000154752 3.55833e-05 -5.26905e-05)
(-5.44642e-05 5.51969e-05 0.00019162)
(-5.48513e-06 0.000150553 -5.5448e-05)
(3.16963e-07 0.000128663 -9.36533e-05)
(-4.77067e-05 0.000157386 -0.000184138)
(0.000357892 -0.0001616 -7.79678e-05)
(-8.24881e-05 0.000140214 -7.83594e-05)
(0.000204284 0.000181764 -0.000182526)
(8.92568e-05 0.000184689 -0.000130686)
(0.0011978 0.00148587 -0.00140333)
(0.000210013 0.00106509 0.000210102)
(0.000412454 0.000131038 -0.000335602)
(0.00176696 0.00239799 -0.00113908)
(0 0 0)
(0 0 0)
(0 0 0)
(0 0 0)
(0 0 0)
(0 0 0)
(0 0 0)
(0 0 0)
(0 0 0)
(0 0 0)
(0 0 0)
(0 0 0)
(0 0 0)
(0 0 0)
(0 0 0)
(0 0 0)
(0 0 0)
(0 0 0)
(0 0 0)
(0 0 0)
(0 0 0)
(0 0 0)
(0 0 0)
(0 0 0)
(0 0 0)
(0 0 0)
(0 0 0)
(0 0 0)
(0 0 0)
(0 0 0)
(0 0 0)
(0 0 0)
(0 0 0)
(0 0 0)
(0 0 0)
(0 0 0)
(0 0 0)
(0 0 0)
(0 0 0)
(0 0 0)
(0 0 0)
(0 0 0)
(0 0 0)
(0 0 0)
(0 0 0)
(0 0 0)
(0 0 0)
(0 0 0)
(0 0 0)
(0 0 0)
(0 0 0)
(0 0 0)
(0 0 0)
(0 0 0)
(0 0 0)
(0 0 0)
(0 0 0)
(0 0 0)
(0 0 0)
(0 0 0)
(0 0 0)
(0 0 0)
(0 0 0)
(0 0 0)
(0 0 0)
(0 0 0)
(0 0 0)
(0 0 0)
(-6.27351e-06 -3.98204e-06 2.10983e-05)
(-4.99704e-05 4.82416e-07 2.59794e-05)
(-5.55331e-05 -1.50726e-06 5.50101e-05)
(-1.03701e-05 7.99079e-06 4.56213e-05)
(4.07396e-05 0.000112607 6.03168e-05)
(-4.71248e-05 3.53738e-05 0.00012381)
(-3.13982e-05 -4.42233e-05 0.000129932)
(8.14608e-06 -8.57216e-06 0.000127726)
(1.24171e-05 2.55171e-05 0.000108134)
(1.93309e-05 9.84579e-05 0.000206408)
(-4.4095e-05 -4.56023e-06 0.00027435)
(-7.6449e-05 -5.7847e-05 0.000184988)
(8.44958e-06 -2.21851e-05 0.000148488)
(1.46523e-05 -8.06729e-05 0.000356514)
(-3.25227e-05 3.56327e-05 0.000365496)
(-3.38978e-05 9.90898e-06 0.000297177)
(-0.000100882 -1.79195e-05 5.78475e-05)
(-4.33471e-05 8.86523e-06 0.000407251)
(-9.74418e-05 5.37173e-06 0.00051107)
(-9.27175e-05 6.46466e-05 0.000386218)
(-3.58112e-05 -0.00012174 -0.000142912)
(9.36187e-05 -0.000450893 -8.29246e-05)
(6.27366e-05 -0.000178886 0.000663198)
(-5.20416e-05 -9.60386e-05 0.000253202)
(-0.00021324 -0.00228821 -0.00182753)
(0.00240837 -0.00489651 -0.00575194)
(-0.00105196 -0.0019119 0.000567791)
(0.00200124 -0.013704 -0.00552632)
(0 0 0)
(0 0 0)
(0 0 0)
(0 0 0)
(0 0 0)
(0 0 0)
(0 0 0)
(0 0 0)
(0 0 0)
(0 0 0)
(0 0 0)
(0 0 0)
(0 0 0)
(0 0 0)
(0 0 0)
(0 0 0)
(0 0 0)
(0 0 0)
(0 0 0)
(0 0 0)
(0 0 0)
(0 0 0)
(0 0 0)
(0 0 0)
(0 0 0)
(0 0 0)
(0 0 0)
(0 0 0)
(0 0 0)
(0 0 0)
(0 0 0)
(0 0 0)
(0 0 0)
(0 0 0)
(0 0 0)
(0 0 0)
(0 0 0)
(0 0 0)
(0 0 0)
(0 0 0)
(0 0 0)
(0 0 0)
(0 0 0)
(0 0 0)
(0 0 0)
(0 0 0)
(0 0 0)
(0 0 0)
(0 0 0)
(0 0 0)
(0 0 0)
(0 0 0)
(0 0 0)
(0 0 0)
(0 0 0)
(0 0 0)
(0 0 0)
(0 0 0)
(0 0 0)
(0 0 0)
(0 0 0)
(0 0 0)
(0 0 0)
(0 0 0)
(0 0 0)
(0 0 0)
(0 0 0)
(0 0 0)
)
;
    }
    procBoundary2to3
    {
        type            processor;
        value           nonuniform List<vector> 
192
(
(-9.46673e-05 -1.32017e-05 3.64537e-06)
(-3.15894e-06 1.78671e-05 -7.61104e-06)
(2.72684e-05 2.22715e-05 -2.44449e-05)
(3.87078e-05 0.000227014 1.98868e-05)
(-4.21401e-05 -0.000158885 -0.000121847)
(-6.39395e-06 2.23654e-05 -4.0968e-06)
(9.44292e-05 1.76428e-05 -1.63141e-05)
(5.72142e-05 2.81513e-05 5.70212e-05)
(-0.000118052 1.9926e-05 -1.74455e-05)
(-8.19988e-05 2.72671e-05 -1.25789e-05)
(7.10226e-06 6.02287e-05 2.13254e-05)
(5.01962e-05 6.51822e-05 5.72009e-05)
(-0.000157379 6.48068e-05 -0.000118228)
(-8.77181e-05 0.000119147 -0.000168693)
(-2.63637e-05 0.00013369 -2.19451e-05)
(-2.22874e-05 0.000134647 9.88034e-05)
(-9.49343e-05 9.59425e-05 -0.000246156)
(6.2236e-05 0.00011561 -0.000177696)
(-4.00934e-06 7.16898e-05 -4.15594e-05)
(-6.92368e-05 4.5156e-05 0.000154262)
(-4.21985e-05 -6.82086e-05 -0.000373836)
(-1.33841e-05 -0.000138543 -0.000160976)
(-0.000123833 -0.000172454 5.46235e-05)
(-6.7251e-05 -0.000159504 0.000154942)
(-0.00264835 -0.00213162 -0.00173464)
(-3.62063e-05 -0.00028412 -0.000269909)
(0.00155387 -0.00262755 -0.00118354)
(-9.59639e-05 -0.000166172 5.62115e-06)
(0 0 0)
(0 0 0)
(0 0 0)
(0 0 0)
(0 0 0)
(0 0 0)
(0 0 0)
(0 0 0)
(0 0 0)
(0 0 0)
(0 0 0)
(0 0 0)
(0 0 0)
(0 0 0)
(0 0 0)
(0 0 0)
(0 0 0)
(0 0 0)
(0 0 0)
(0 0 0)
(0 0 0)
(0 0 0)
(0 0 0)
(0 0 0)
(0 0 0)
(0 0 0)
(0 0 0)
(0 0 0)
(0 0 0)
(0 0 0)
(0 0 0)
(0 0 0)
(0 0 0)
(0 0 0)
(0 0 0)
(0 0 0)
(0 0 0)
(0 0 0)
(0 0 0)
(0 0 0)
(0 0 0)
(0 0 0)
(0 0 0)
(0 0 0)
(0 0 0)
(0 0 0)
(0 0 0)
(0 0 0)
(0 0 0)
(0 0 0)
(0 0 0)
(0 0 0)
(0 0 0)
(0 0 0)
(0 0 0)
(0 0 0)
(0 0 0)
(0 0 0)
(0 0 0)
(0 0 0)
(0 0 0)
(0 0 0)
(0 0 0)
(0 0 0)
(0 0 0)
(0 0 0)
(0 0 0)
(0 0 0)
(-6.41268e-06 1.29532e-05 2.04956e-06)
(1.66903e-05 -1.14918e-06 2.67265e-05)
(-1.55891e-05 -2.7834e-05 3.82829e-05)
(-1.22103e-05 -1.28182e-05 3.07782e-05)
(0.000106981 3.44929e-05 8.59366e-05)
(8.64315e-05 4.65756e-05 0.000101145)
(3.63344e-05 -4.96558e-06 0.000102125)
(-5.87974e-06 1.08168e-05 7.1693e-05)
(7.50694e-05 8.25135e-05 0.000103986)
(7.83265e-05 3.16632e-05 0.000153884)
(3.81792e-05 1.17636e-05 0.000162856)
(-2.6147e-05 -2.81223e-05 0.000121965)
(3.72031e-05 0.000115114 0.000200864)
(2.49027e-05 5.57778e-05 0.00025387)
(8.26504e-05 2.41363e-06 0.0002361)
(-1.6862e-05 -6.00337e-06 0.000179138)
(-2.37871e-05 3.35609e-05 0.000259061)
(5.25492e-05 -3.37878e-05 0.000287966)
(6.23919e-06 -5.23077e-06 0.00030157)
(-3.27709e-05 -2.53721e-07 0.000222461)
(4.45339e-05 -7.59243e-05 0.000311152)
(0.000136187 -0.000112275 0.000334827)
(4.53094e-05 -7.24456e-05 0.000290436)
(-8.35164e-05 -1.57923e-05 0.00023375)
(8.45711e-05 -0.000349792 0.000390278)
(-0.000556966 -0.000574519 -0.000713927)
(0.000144838 -5.29647e-05 0.000302233)
(5.05556e-05 3.98131e-06 1.5617e-05)
(0 0 0)
(0 0 0)
(0 0 0)
(0 0 0)
(0 0 0)
(0 0 0)
(0 0 0)
(0 0 0)
(0 0 0)
(0 0 0)
(0 0 0)
(0 0 0)
(0 0 0)
(0 0 0)
(0 0 0)
(0 0 0)
(0 0 0)
(0 0 0)
(0 0 0)
(0 0 0)
(0 0 0)
(0 0 0)
(0 0 0)
(0 0 0)
(0 0 0)
(0 0 0)
(0 0 0)
(0 0 0)
(0 0 0)
(0 0 0)
(0 0 0)
(0 0 0)
(0 0 0)
(0 0 0)
(0 0 0)
(0 0 0)
(0 0 0)
(0 0 0)
(0 0 0)
(0 0 0)
(0 0 0)
(0 0 0)
(0 0 0)
(0 0 0)
(0 0 0)
(0 0 0)
(0 0 0)
(0 0 0)
(0 0 0)
(0 0 0)
(0 0 0)
(0 0 0)
(0 0 0)
(0 0 0)
(0 0 0)
(0 0 0)
(0 0 0)
(0 0 0)
(0 0 0)
(0 0 0)
(0 0 0)
(0 0 0)
(0 0 0)
(0 0 0)
(0 0 0)
(0 0 0)
(0 0 0)
(0 0 0)
)
;
    }
}


// ************************************************************************* //
