/*--------------------------------*- C++ -*----------------------------------*\
| =========                 |                                                 |
| \\      /  F ield         | OpenFOAM: The Open Source CFD Toolbox           |
|  \\    /   O peration     | Version:  2506                                  |
|   \\  /    A nd           | Website:  www.openfoam.com                      |
|    \\/     M anipulation  |                                                 |
\*---------------------------------------------------------------------------*/
FoamFile
{
    version     2.0;
    format      ascii;
    arch        "LSB;label=32;scalar=64";
    class       volScalarField;
    location    "0.01";
    object      Ksl;
}
// * * * * * * * * * * * * * * * * * * * * * * * * * * * * * * * * * * * * * //

dimensions      [1 -3 -1 0 0 0 0];

internalField   uniform 0;

boundaryField
{
    wall
    {
        type            zeroGradient;
    }
    outlet
    {
        type            cyclic;
    }
    inlet
    {
        type            cyclic;
    }
    procBoundary2to1
    {
        type            processor;
        value           uniform 0;
    }
    procBoundary2to3
    {
        type            processor;
        value           nonuniform List<scalar> 
256
(
0
0.31428
1.35642
0
0
0
0
0
0
0
0
0
0
0
0
0
0.038849
0
0
0
0
0
0
0
0
1.20948
0
0
0
0
0
0
0
0
0
0
0
0
0
0
0
0
0
0
0
3.55435
0
0
0
0
0
0
0
0
0
0
0
0
0
0
0.72074
0
0
0
0
0
2.29755
0
1.20073
3.5205
0
0
0
0
0
0
0
0
0.121766
0
0
3.55582
0
0
0
0
0
0
0
0
0
0
0
0
0
0
0
0
0.121578
0
0
0
0
0
0
3.5291
0
0
1.20554
0
0
0
0
0
0
1.20493
0
0
0.479096
0
0
3.54373
0
0
0
3.53026
0
0
0
0
0
0
3.53456
0.241732
0
0
0
0
0
0
0
0
0
0
0
0.723129
1.09004e-16
3.53971
0
1.20068
5.43101
0
0
0
0
0
0
0
0
0
0
0
1.21478
0
0
0.964681
3.54817
0
3.5429
0
0
0
1.21768
0
0
1.20481
0
0
1.2107
0
0
0
0
0
3.56119
0
0
0
0
0
0
0.121832
0
0
0
0
0
0
0
0
0
0
0
0
0
0.727752
3.53996
0
0
0
0
0
0
0
0
0
0
0
0
0
0
0
0
0
0
0
0
3.05428
0
0
0
0
0
0
0
0
0.875158
0
0
0
0
0
0
0
0
0
0
0
0
0.00725535
0
0
1.38571
0
0
0
)
;
    }
}


// ************************************************************************* //
