/*--------------------------------*- C++ -*----------------------------------*\
| =========                 |                                                 |
| \\      /  F ield         | OpenFOAM: The Open Source CFD Toolbox           |
|  \\    /   O peration     | Version:  2506                                  |
|   \\  /    A nd           | Website:  www.openfoam.com                      |
|    \\/     M anipulation  |                                                 |
\*---------------------------------------------------------------------------*/
FoamFile
{
    version     2.0;
    format      ascii;
    arch        "LSB;label=32;scalar=64";
    class       volVectorField;
    location    "0.01";
    object      U;
}
// * * * * * * * * * * * * * * * * * * * * * * * * * * * * * * * * * * * * * //

dimensions      [0 1 -1 0 0 0 0];

internalField   nonuniform List<vector> 
512
(
(9.99825 -0.0072283 0.0652398)
(9.96601 -0.016935 -0.0113106)
(9.95505 -0.00351563 -0.0422847)
(9.96527 -0.00737255 -0.0144948)
(9.95877 -0.00351915 0.0166742)
(9.97386 0.000514243 0.0163445)
(9.96913 -0.00263857 -0.0815354)
(9.95882 -0.00394239 -0.0938325)
(9.96647 -0.00248432 -0.0757139)
(10.0029 -0.00073047 0.011447)
(9.97761 0.00365281 0.0310251)
(9.9517 0.0160434 0.0476942)
(9.97642 0.00908959 0.00456895)
(9.98272 0.000609384 -0.0285229)
(9.97326 0.00689586 -0.00819646)
(9.97011 0.00255111 0.0129951)
(9.97634 0.00500324 0.0114009)
(9.98184 0.0121347 -0.00540257)
(9.97231 -0.00437804 -0.0384952)
(9.96299 -0.00360868 -0.0420152)
(9.91492 0.00350121 -0.00906407)
(9.89108 0.00426235 0.0143222)
(9.88914 -0.0018653 0.00996942)
(9.95421 -0.00632863 -0.0184144)
(9.96385 -0.00755827 -0.0282638)
(9.93779 -0.00631251 -0.00196626)
(9.94122 -0.00810147 0.012385)
(9.99093 0.00137096 -0.00276856)
(9.97572 0.00779312 -0.0148377)
(9.95094 -0.00451171 -0.0264164)
(9.97743 -0.000976184 -0.00345688)
(10.0057 6.28798e-05 0.0597366)
(10.1033 -0.000605071 0.0162249)
(10.1027 0.014072 -0.000264089)
(10.098 0.0447497 0.00296815)
(10.101 0.0417515 0.00793099)
(10.145 0.0075438 0.0278502)
(10.1912 -0.0065083 0.0200662)
(10.2024 -0.0133694 -0.0220488)
(10.1493 -0.0234041 -0.0405779)
(10.1495 -0.0216361 -0.0197127)
(10.1793 -0.0116194 0.0100229)
(10.1619 -0.00261355 0.016814)
(10.1597 0.00431119 0.0262361)
(10.1706 -0.00463536 0.00974433)
(10.1561 -0.00189199 -0.00532957)
(10.1296 0.0173308 -0.0146738)
(10.1378 0.00123359 -0.00463245)
(10.1565 -0.0117042 0.00721114)
(10.1692 0.00355876 -0.0171607)
(10.1831 0.00763115 -0.0265648)
(10.1665 0.000907835 -0.0189316)
(10.1532 -0.00573825 -0.0169315)
(10.1577 -0.00625533 -0.0215151)
(10.1113 -0.00776969 0.0139961)
(10.1209 -0.0141585 0.00931096)
(10.1309 -0.0233846 -0.00288551)
(10.1206 -0.0237338 0.0065626)
(10.1265 -0.0193215 0.00929722)
(10.1614 -0.00790689 -0.0142555)
(10.1591 -0.00374083 -0.0111415)
(10.1612 -0.000933979 0.00244652)
(10.1599 -0.00413242 0.00950125)
(10.1131 -0.00668494 0.0224161)
(10.1292 -0.0342841 0.00898195)
(10.1193 0.00205999 -0.00895757)
(10.0746 0.0329352 0.0126861)
(10.0971 0.021335 0.0076076)
(10.1903 -0.00545008 0.0118857)
(10.236 -0.00455167 0.0109392)
(10.2469 0.00550912 -0.0177989)
(10.1591 0.00227996 -0.0332212)
(10.139 -0.00620879 -0.0274482)
(10.1575 -0.0256258 -0.000446032)
(10.1414 -0.00695634 0.00539921)
(10.1096 0.0269994 0.00854766)
(10.1438 0.0260338 0.00270349)
(10.1759 0.0164415 -0.00426331)
(10.2037 0.0107494 -0.00137484)
(10.1584 0.00123007 0.00185926)
(10.1133 -0.000916245 -0.0100812)
(10.1267 -0.00110723 -0.0137729)
(10.1213 -0.00392916 -0.0123546)
(10.1257 -0.0090322 -0.0152303)
(10.1375 -0.0244817 -0.020213)
(10.1199 -0.0134737 -0.00685661)
(10.1068 0.0236064 0.0193434)
(10.1228 0.020461 0.0229873)
(10.13 -0.0193336 -0.00544993)
(10.1412 -0.0249214 -0.00402648)
(10.1691 -0.0131068 0.000310456)
(10.1556 0.0167949 -0.0163513)
(10.1447 0.0168546 -0.0128521)
(10.1556 -0.00298201 0.0131859)
(10.1493 -0.0188083 0.0280548)
(10.1208 -0.0496471 0.0295231)
(10.1818 0.0296901 0.0147855)
(10.175 0.00290997 0.00398724)
(10.1622 -0.0125287 0.00195254)
(10.1509 0.00673848 0.0124423)
(10.1605 0.0013268 0.0196371)
(10.1736 -0.00714096 -0.00633716)
(10.1733 -0.00108856 -0.0224819)
(10.1852 0.00609254 -0.0112353)
(10.1894 -0.0124198 -0.00541752)
(10.1644 -0.056854 0.00309651)
(10.1551 -0.0240549 0.0231863)
(10.1457 0.0295771 0.0338117)
(10.1656 0.0147299 0.0259026)
(10.1859 -0.0204594 0.0113311)
(10.1503 -0.00886465 -0.00329803)
(10.1154 0.0234145 -0.0104138)
(10.1159 0.0279701 -0.005148)
(10.1516 0.00549477 -0.00672142)
(10.1561 -0.00955197 -0.0111371)
(10.1574 -0.00026983 -0.0222548)
(10.1646 0.00468542 -0.0278956)
(10.1541 -0.0184796 -0.0048963)
(10.1575 -0.0195552 0.0081034)
(10.1642 0.00308031 -0.00641528)
(10.1561 0.0104191 -0.0139981)
(10.1327 0.0125203 -0.00760234)
(10.122 0.00290457 -0.00963652)
(10.1483 -0.0151575 -0.00562093)
(10.1456 -0.0173379 0.00476525)
(10.1239 -0.0275723 0.0173784)
(10.1277 -0.0472826 0.0266158)
(10.1622 -0.0130404 0.0320811)
(10.1627 -0.0352721 0.00578149)
(10.1592 0.0313502 -0.00704576)
(10.1301 0.0494189 0.000161424)
(10.1069 0.0384472 0.0126214)
(10.1201 0.0340816 0.00249224)
(10.1343 -0.00508961 -0.00487657)
(10.1311 -0.0119876 -0.00784613)
(10.1743 0.0135992 0.00219646)
(10.1773 0.0258282 -0.00409303)
(10.1462 0.0271235 -0.0257102)
(10.1566 -0.00240749 -0.00887826)
(10.1644 -0.0226688 0.011124)
(10.1778 -0.0159469 0.000696255)
(10.1717 0.0280413 -0.0128087)
(10.1381 0.0191935 -0.00796119)
(10.0855 0.00463091 -0.0147768)
(10.0797 0.011564 -0.0181902)
(10.1232 0.00148901 -0.000793583)
(10.1493 -0.0179572 0.00696339)
(10.1381 -0.0192235 0.00265837)
(10.1426 -0.0149175 0.00258239)
(10.1527 -0.00927039 -0.00100906)
(10.1535 0.00569761 -0.00254515)
(10.1573 0.0149037 -0.00452059)
(10.1543 0.00150333 -0.019935)
(10.1516 0.00133353 -0.0259457)
(10.1469 0.0063681 -0.0166216)
(10.1451 0.00527935 -0.00298425)
(10.1444 -0.00364416 -0.0128005)
(10.141 -0.0163765 -0.00143942)
(10.1393 -0.0464398 0.0307783)
(10.1495 -0.0636866 0.0345648)
(10.1249 -0.0548631 0.00247776)
(10.1152 -0.0437005 0.0235247)
(10.141 0.0127481 0.00633241)
(10.1209 0.0217238 -0.00656648)
(10.1174 0.0314885 -0.0117253)
(10.142 0.016352 0.00113812)
(10.1403 -0.0130124 0.0293709)
(10.1334 0.00591422 0.0299495)
(10.1402 0.0409487 -0.000833131)
(10.1588 0.021591 -0.0402622)
(10.178 -0.0175612 -0.0314095)
(10.1746 -0.029263 0.00912734)
(10.1671 -0.0133833 0.0095213)
(10.1301 0.025006 -0.0127303)
(10.1169 0.0206272 -0.0162261)
(10.1248 0.00753056 -0.0179189)
(10.1695 -0.00998864 -0.0198525)
(10.1839 0.000314238 0.00650186)
(10.185 -0.000127478 0.00991304)
(10.1518 -0.0185879 -0.00445039)
(10.1344 -0.0149063 -0.00371349)
(10.1278 0.0190294 -0.0137889)
(10.1337 0.0198813 -0.0152762)
(10.1318 0.00347164 -0.00696262)
(10.1238 -0.00849965 -0.00291314)
(10.1344 0.000599393 -0.00799424)
(10.1357 0.00646424 -0.00645612)
(10.1172 0.00868731 -0.00675819)
(10.1246 0.0101249 -0.0100683)
(10.1499 0.016782 -0.00919617)
(10.1723 0.010174 0.0100002)
(10.1778 -0.00367484 0.00190028)
(10.1354 -0.037513 0.00249201)
(10.1244 -0.0235489 0.0121206)
(10.1343 -0.00284915 0.00653371)
(10.1235 0.000124424 0.00760898)
(10.1326 0.00852689 0.0164959)
(10.1556 -0.00260791 0.0276716)
(10.157 -0.0145495 0.0239384)
(10.1431 -0.00378532 0.00686903)
(10.1353 0.000700037 0.00166186)
(10.1527 -0.0147743 -0.0132104)
(10.1847 -0.0317529 0.00234033)
(10.1885 -0.0103399 0.0108087)
(10.1757 0.00580804 0.00539036)
(10.1694 0.00379958 0.0091058)
(10.1702 0.0141851 0.00716384)
(10.1215 0.00489542 -0.0229133)
(10.0851 -0.00796658 -0.0332218)
(10.0861 0.0027799 -0.0130363)
(10.0962 0.022585 0.000546303)
(10.1158 0.00734104 0.00933034)
(10.1206 -0.0170692 0.0321068)
(10.1182 -0.00690627 0.0344212)
(10.1242 0.00981312 0.0290346)
(10.1429 -0.00340401 -0.00711293)
(10.1417 -0.00667652 -0.016003)
(10.1258 -0.0106516 -0.00259835)
(10.1254 -0.0084735 -0.0193025)
(10.1377 -0.000196634 -0.0287592)
(10.172 -0.00367228 0.0156617)
(10.1684 -0.00366406 0.0235847)
(10.1806 0.0228545 -0.0261052)
(10.1851 0.0109346 -0.0316966)
(9.96358 -0.0259587 0.00146892)
(9.98489 0.00237607 0.00828911)
(9.98543 0.0189561 0.0153984)
(9.95478 0.0172709 0.0105111)
(9.96463 0.0170367 0.0123547)
(9.98628 0.00339303 0.0139598)
(9.97528 -0.0053714 0.0159097)
(9.9641 -0.00338918 0.0180902)
(9.98662 0.0130519 -0.00511298)
(9.98107 0.0105453 -0.00806841)
(9.95307 0.000510756 0.0089249)
(9.95819 0.00750648 0.014088)
(9.9554 0.00858547 0.00782794)
(9.96808 0.0023857 -0.00507818)
(9.97181 -0.00217055 -0.0314969)
(9.97131 0.00270143 -0.0299033)
(9.97785 0.0146411 -0.00031922)
(9.97073 0.01049 0.00657249)
(9.97666 -0.00233133 -0.00157833)
(9.98005 -0.0251267 0.0127715)
(9.98021 -0.031712 0.0216563)
(9.97789 -0.016062 -0.0055128)
(9.97089 -0.00802651 -0.00798305)
(9.96807 -0.0122516 -0.0143093)
(9.95601 0.00160041 -0.0144523)
(9.94794 0.00312009 -0.00848152)
(9.95296 -0.020605 -0.0175569)
(9.94714 -0.0139496 -0.00869247)
(9.92313 0.00679233 0.0145724)
(9.93177 0.00371051 0.0243465)
(9.94335 -0.00152381 0.0252131)
(9.95025 -0.0144739 0.0139706)
(10.0138 -0.00453763 0.0401512)
(10.0116 0.00355378 0.0239373)
(9.94957 -0.000835457 -0.00354407)
(9.93312 -0.0161407 -0.000995361)
(9.94808 -0.022405 0.000924919)
(9.95624 -0.0148816 0.000615402)
(9.94926 -0.0104894 -0.090882)
(9.94455 -0.0109578 -0.0710474)
(9.95559 -0.00948336 0.0346988)
(9.94481 -0.011844 0.0369807)
(9.9322 -0.00753887 0.0372083)
(9.93671 0.00851968 0.0454276)
(9.95792 0.0140912 0.0338171)
(9.95791 -0.000745307 0.000587983)
(9.92493 -0.00125388 -0.0151083)
(9.92163 0.00923382 -0.0118349)
(9.93053 0.0116179 -0.00319843)
(9.95369 -0.0172178 -0.0143245)
(9.96105 -0.0130654 -0.0148042)
(9.97314 0.00260715 -0.00672759)
(9.94248 0.0191875 -0.00567369)
(9.92974 0.0195931 0.000708842)
(9.93655 0.0109781 0.024389)
(9.97057 -0.00240248 0.010569)
(9.96509 -0.000638781 -0.00196389)
(9.95682 0.0161545 -0.0102209)
(9.96884 0.00168707 -0.00384221)
(9.99168 -0.00959031 0.00032419)
(9.95625 -0.00670654 0.00144109)
(9.90189 -0.0202286 0.00332772)
(9.92632 -0.0164152 0.0138112)
(9.98334 -0.00643212 0.0560692)
(10.1459 -0.0175463 0.0326826)
(10.1638 -0.0199976 0.0110928)
(10.2013 0.0338934 -0.00772724)
(10.1956 0.0387038 -0.00633477)
(10.1633 -0.00021478 -0.024846)
(10.1757 0.00134171 -0.0447641)
(10.1745 0.00471933 -0.0506392)
(10.1599 -0.0124032 -0.0156125)
(10.1751 -0.0233921 0.033657)
(10.1716 -0.0161301 0.0316165)
(10.1626 -0.00536171 0.0290535)
(10.1496 -0.00535606 0.0322133)
(10.154 -0.00485564 0.0216062)
(10.1449 -0.0193396 -0.00166727)
(10.1368 -0.0240578 -0.000457963)
(10.1363 0.00117115 -0.00368359)
(10.1248 -0.00106378 -0.0018777)
(10.1114 -0.00379671 -0.0144589)
(10.1165 0.00330728 -0.0202882)
(10.1412 0.00417251 0.00475624)
(10.1425 0.0141878 0.0103429)
(10.1338 0.0172838 0.0157976)
(10.1374 0.0206122 0.0280534)
(10.158 0.00352202 0.00348359)
(10.15 -0.00973553 -0.0128983)
(10.1238 0.00538395 -0.00396065)
(10.1329 0.0109353 0.00137685)
(10.1509 -0.00577628 -0.010562)
(10.1349 -0.00744842 -0.00488991)
(10.1314 -0.0027641 0.00422289)
(10.1609 0.00475905 0.0302044)
(10.1526 -0.00357471 0.040408)
(10.1636 -0.0120499 0.0433776)
(10.1761 -0.0136502 0.0182709)
(10.1758 0.0107472 0.00139214)
(10.1864 0.0351092 -0.0087021)
(10.1955 0.019097 -0.0215441)
(10.1926 0.00790483 -0.0254003)
(10.1791 0.0271375 -0.0350284)
(10.1771 0.017799 -0.00703675)
(10.1762 -0.0253111 0.0285601)
(10.1697 -0.0332782 0.0238714)
(10.1433 -0.000244781 0.0166403)
(10.1306 0.0213542 0.0155414)
(10.1392 0.0215772 0.00557568)
(10.1598 -0.00529472 -0.024897)
(10.1592 -0.0192983 -0.0228514)
(10.1346 -0.015601 0.00243352)
(10.1197 0.00222498 0.00988486)
(10.1402 0.0157744 -0.0130723)
(10.1445 0.00833143 -0.0355123)
(10.1404 -0.0114869 -0.0483968)
(10.1296 -0.0203324 -0.0353895)
(10.1029 -0.0190429 0.00181402)
(10.1151 -0.00657904 0.0135981)
(10.1785 0.0224361 0.0133704)
(10.1789 0.0182173 0.00836976)
(10.1479 0.00525829 0.00700504)
(10.1448 0.00500612 -0.00483681)
(10.132 -0.00247155 -0.0109316)
(10.1135 -0.00472139 -0.00652953)
(10.1168 -0.00462194 0.0015384)
(10.1569 -0.0211306 0.0187756)
(10.1615 -0.0188379 0.04246)
(10.1913 0.00202377 0.0241193)
(10.1881 -0.00496533 0.00604518)
(10.1386 -0.0108072 -0.0078548)
(10.1386 -0.00218538 -0.00311319)
(10.1666 -0.00182215 -0.0112417)
(10.1702 -0.00973994 -0.0326948)
(10.1567 -0.000768318 -0.0441883)
(10.1638 0.00899149 -0.0229883)
(10.1833 -0.00498289 0.0255852)
(10.1627 -0.024262 0.0368848)
(10.1595 -0.00755829 0.0228927)
(10.1701 0.00687302 0.0227848)
(10.1748 0.00323531 0.0238754)
(10.1389 0.0036668 0.00588589)
(10.1278 0.0133656 -0.00422408)
(10.1317 0.0215304 -0.00752801)
(10.1502 0.00990479 -0.00501406)
(10.1646 0.00506409 -0.00665925)
(10.1646 -0.0143113 -0.00981097)
(10.1635 -0.0157163 -0.0089236)
(10.1736 -0.00188772 0.00789667)
(10.1524 0.00295917 0.015216)
(10.1449 0.00614031 0.0151106)
(10.1684 0.00818976 -0.000427953)
(10.1686 0.00339908 -0.00384234)
(10.1287 -0.00838714 -0.0207358)
(10.1254 -0.00387079 -0.0259072)
(10.1295 -0.00394613 -0.027818)
(10.1253 -0.00431289 -0.0082715)
(10.1261 0.00491339 0.00425897)
(10.1466 0.00990343 0.00371913)
(10.1716 0.00796369 0.0248506)
(10.1526 -0.0124243 0.0344793)
(10.1738 0.00242896 0.0303157)
(10.1628 0.0129758 0.0287799)
(10.1363 0.043123 0.0143425)
(10.1404 0.0181474 0.00401504)
(10.146 -0.0215195 -0.00596796)
(10.1388 -0.00468605 -0.0382679)
(10.1385 0.015177 -0.0488592)
(10.1579 0.0294012 0.00598387)
(10.1539 0.0219207 0.0250616)
(10.1557 -0.0180659 -0.00748056)
(10.1565 -0.0227421 -0.0115733)
(10.1728 0.0171676 0.0399544)
(10.1924 0.0245743 0.0397158)
(10.186 0.00493647 0.0191233)
(10.1426 -0.0228549 -0.0124415)
(10.1306 -0.0338791 -0.0363076)
(10.1495 -0.027531 -0.0276238)
(10.1653 -0.0250841 -0.0234296)
(10.1708 -0.016932 -0.0252487)
(10.1816 -0.00534816 -0.01538)
(10.1627 0.0132102 -0.00529266)
(10.1468 0.0242629 0.00172826)
(10.1492 0.0212136 -0.00641139)
(10.147 0.010714 -0.0132435)
(10.1299 -0.0177206 -0.0056134)
(10.1322 -0.00748286 0.00183302)
(10.1354 -0.00130101 0.00859143)
(10.1445 -0.00233343 -0.00143234)
(10.1524 0.00540155 0.00272304)
(10.1423 0.00703164 0.016495)
(10.131 -0.00883235 0.0306632)
(10.1439 -0.0424847 0.059891)
(10.2072 -0.000863929 0.020623)
(10.1949 0.0161613 -0.00342595)
(10.1445 0.0432985 -0.021241)
(10.1538 0.0123871 0.00233043)
(10.1546 -0.0235983 0.0128295)
(10.1552 -0.0086018 -0.00317319)
(10.1843 0.00979858 -0.017072)
(10.2025 0.00639971 -0.00113912)
(10.1824 0.0018478 0.0209904)
(10.143 -0.0160148 -0.00153814)
(10.1424 -0.0207829 -0.00627257)
(10.1476 -0.0123044 0.00733058)
(10.1648 0.0549503 0.00314384)
(10.1679 0.0455752 0.00348026)
(10.1663 -0.027062 0.0125963)
(10.1686 -0.0304512 0.00975934)
(10.1642 -0.0253611 0.00352894)
(10.1669 -0.0250568 -0.000533231)
(10.1755 -0.0155256 0.00289642)
(10.1535 0.0220743 0.0105606)
(10.1284 0.0359465 0.0186264)
(10.1397 0.017118 0.0180493)
(10.1421 0.00159814 0.0121591)
(10.1313 -0.00238397 0.00607151)
(10.1438 0.00276329 0.00383529)
(10.1463 -0.00800788 -0.0220747)
(10.1403 -0.0187225 -0.0348153)
(10.1432 -0.026648 -0.0371583)
(10.1642 -0.0146196 -0.0056655)
(10.1656 -0.00254244 0.0132421)
(10.1277 -0.0248845 0.0407714)
(10.1482 0.0230065 0.0478397)
(10.1565 0.0209346 0.0114934)
(10.1405 0.0355569 -0.0211565)
(10.1169 0.0264149 -0.0116457)
(10.1294 -0.00945909 0.0118591)
(10.168 -0.0205755 0.0234928)
(10.2036 -0.0203352 0.0238016)
(10.1985 -0.0202983 0.0138462)
(10.18 -0.0100844 0.011823)
(10.1834 -0.00176861 0.014109)
(10.188 0.00359737 0.00519604)
(10.1742 -0.0107015 -0.0329687)
(10.1668 -0.0184101 -0.0410775)
(10.1723 0.0183974 -0.00016995)
(10.1846 0.03849 0.0140516)
(10.1647 0.0185349 0.017786)
(10.1083 -0.00396861 0.00755094)
(10.0841 -0.0111109 -0.0132116)
(10.0712 -0.0224331 -0.0381826)
(10.0832 -0.0301871 -0.0328442)
(10.1518 -0.0269952 -0.00238743)
(10.1658 -0.00226157 0.00119491)
(10.1806 0.0109245 0.0101417)
(10.184 0.00121931 0.0116265)
(10.1411 -0.00165082 -0.0173649)
(10.1411 -0.00169054 -0.0132692)
(10.1472 -0.00693182 0.00754366)
(10.1196 -0.0177778 0.0303096)
(10.1272 -0.0217794 0.0325556)
(10.1509 -0.0211088 0.00176091)
(10.1503 -0.0198337 -0.0269928)
(10.1368 0.00767084 0.0193224)
(9.97263 -0.016445 0.0166657)
(9.99551 -0.00884957 -0.018092)
(9.99041 0.00014306 -0.0406139)
(9.96318 0.0031722 -0.0205622)
(9.96473 0.0204393 0.00193148)
(9.9732 0.019288 0.021811)
(9.96911 0.00836053 0.0259633)
(9.96457 -0.00427335 -0.00373392)
(9.9616 -0.0184142 -0.0216316)
(9.97681 -0.0167499 0.0022467)
(9.9881 -0.0066509 0.0201472)
(9.97455 0.0192014 -0.0145834)
(9.96389 0.0213007 -0.0129189)
(9.95416 0.00174304 -0.00328192)
(9.96055 0.00238109 -0.00818329)
(9.97403 0.011794 -0.00691512)
(9.99424 0.0297076 0.0287407)
(9.9895 0.0226164 0.0208422)
(9.97922 0.020285 -0.0154806)
(9.9724 0.0049504 -0.0104548)
(9.96454 -0.0337461 -0.00613162)
(9.97574 -0.0223398 -0.0136309)
(9.97605 0.00387022 -0.0117422)
(9.9614 0.00864274 0.00788927)
(9.96098 0.0084274 0.0116112)
(9.95403 0.00243279 -0.0233096)
(9.94053 -0.000290535 -0.0251265)
(9.90919 -0.00545321 -0.00143059)
(9.92904 -0.0104485 0.0101481)
(9.97793 -0.00992834 -0.00778661)
(9.97333 -0.00958789 -0.0163817)
(9.94838 -0.0127536 0.0109115)
)
;

boundaryField
{
    wall
    {
        type            fixedValue;
        value           uniform (0 0 0);
    }
    outlet
    {
        type            cyclic;
    }
    inlet
    {
        type            cyclic;
    }
    procBoundary2to1
    {
        type            processor;
        value           nonuniform List<vector> 
256
(
(9.93938 -0.0155523 0.00245897)
(9.97637 -0.00219143 -0.00395017)
(9.97965 0.00480339 -0.00564127)
(9.98623 0.0124529 0.0167697)
(9.95695 0.0158441 0.0514272)
(9.95859 0.0149148 0.0408784)
(9.93339 0.0157006 -0.00653421)
(9.92904 0.00165784 -0.0555319)
(9.95327 -0.00371453 -0.0600878)
(10.0319 0.00996141 0.000244116)
(9.97896 0.0224544 0.0270121)
(9.93076 0.0184405 0.0327087)
(9.95083 -0.00437839 0.016235)
(9.97299 -0.00819434 0.00437396)
(9.9894 0.000396479 0.00435231)
(9.93842 0.011204 -0.0004001)
(9.91809 0.0124531 -0.00893346)
(9.91109 0.000657452 -0.0160624)
(9.90286 -0.000959357 -0.0102057)
(9.92012 -0.00111915 -0.0065464)
(9.95509 -0.0029415 -0.000778758)
(9.95647 -0.000114743 0.0202642)
(9.95786 -0.00294384 0.024745)
(9.98103 0.00230261 -0.0126726)
(9.98049 0.00715609 -0.0235769)
(9.96542 0.00698238 0.00240676)
(9.96837 0.00739029 0.00411791)
(9.96596 0.00117739 0.00706544)
(9.9559 -0.00417213 0.00678752)
(9.95664 -0.00884456 -0.00535137)
(9.95871 -0.0120807 -0.00270962)
(9.94066 -0.0172502 0.00572115)
(10.135 -0.02251 -0.0119155)
(10.1529 0.00497859 -0.020178)
(10.1558 0.00631883 -0.0207011)
(10.1528 0.0228976 0.0157295)
(10.1328 0.0380707 0.0465077)
(10.1412 0.0401972 0.0272956)
(10.1182 0.025326 -0.0241786)
(10.1033 -0.00810545 -0.0550987)
(10.1434 -0.0302046 -0.0622799)
(10.1999 -0.000445329 0.00245047)
(10.2083 0.0344471 0.0648541)
(10.1559 0.0194596 0.0472566)
(10.0975 -0.0106184 0.000883409)
(10.1065 -0.0286273 0.00333704)
(10.147 -0.036875 0.0205841)
(10.1423 -0.00313046 -0.00266694)
(10.1386 0.0165862 -0.0242751)
(10.1389 -0.00909763 -0.0125427)
(10.1306 -0.0110524 -0.00342229)
(10.1382 -0.0019166 -0.000420229)
(10.1632 -0.00630938 -0.00518154)
(10.1628 0.00582657 -0.0047578)
(10.1694 0.0179179 -0.00682298)
(10.1742 -0.00447625 -0.000223964)
(10.165 -0.0146414 0.00735413)
(10.1463 0.003998 0.0202966)
(10.1467 0.00791459 0.00775656)
(10.1448 0.00968876 0.00520678)
(10.142 0.00996964 0.0243144)
(10.1447 -0.00114818 0.0229113)
(10.1466 -0.0136645 0.00847352)
(10.1228 -0.0310641 -0.000728278)
(10.1321 -0.0374956 0.0070615)
(10.1736 -0.00355038 0.0127329)
(10.1725 0.00978714 0.0208037)
(10.1491 0.0443594 0.0341148)
(10.1301 0.0643598 0.0410293)
(10.134 0.0575389 0.0274351)
(10.1456 0.0183417 -0.0347396)
(10.1021 -0.028654 -0.0714336)
(10.0963 -0.0416299 -0.0730647)
(10.1631 -0.0221105 -0.0045932)
(10.1598 -0.00413106 0.0133057)
(10.1498 0.0312799 0.0186303)
(10.1626 0.0247628 0.0209429)
(10.1673 -0.0428641 -0.000711633)
(10.1455 -0.0368188 -0.00900404)
(10.1226 0.0162048 -0.0276391)
(10.1405 0.0259605 -0.0346435)
(10.1676 0.00133456 -0.0079718)
(10.152 -0.00210686 0.0318973)
(10.1551 0.00955722 0.0235347)
(10.181 0.0205357 -9.37599e-05)
(10.176 0.0274952 -0.00317912)
(10.1639 0.0363764 -0.00650306)
(10.1641 0.00683073 -0.0115223)
(10.1446 -0.0248123 -0.00689113)
(10.1288 -0.0196587 -0.00257085)
(10.1213 6.01017e-05 0.0119977)
(10.121 0.0169507 0.0106543)
(10.1243 0.0269926 -0.00924091)
(10.139 0.0134381 -0.00700867)
(10.1428 -0.027987 0.015539)
(10.1269 -0.0468073 0.0141684)
(10.1436 -0.0331548 0.00272789)
(10.2018 -0.0387799 -0.00302549)
(10.1978 -0.0204373 0.000850666)
(10.182 0.0293214 0.000381683)
(10.1652 0.0470484 0.0178809)
(10.1467 0.0463217 0.0347764)
(10.1448 0.000906021 0.0324793)
(10.1245 0.0033604 -0.00783195)
(10.105 0.000671916 -0.0588359)
(10.1702 -0.00345657 -0.02608)
(10.2013 -0.00402287 0.0224277)
(10.1926 0.0190191 0.0285367)
(10.1995 0.0209271 0.0183934)
(10.1473 -0.0224379 0.00706969)
(10.1047 -0.0336493 0.0069573)
(10.1078 -0.00237988 -0.0109048)
(10.1301 0.0104363 -0.0260208)
(10.14 -0.00227357 -0.0101673)
(10.1631 -0.00631769 0.00204388)
(10.1643 -0.00507536 0.000917557)
(10.1545 -0.0167681 0.00233508)
(10.1614 -0.0119819 -0.00130306)
(10.1791 0.0253566 -0.00474228)
(10.1828 0.0268845 0.00268518)
(10.181 0.0214898 0.00950795)
(10.1244 0.00414085 -0.00292851)
(10.1195 -0.00916945 -0.00726791)
(10.1398 -0.0127032 -0.0153824)
(10.1415 0.00724943 -0.017271)
(10.1515 0.020948 -0.000548163)
(10.1324 -0.0143753 0.034919)
(10.1186 -0.0296658 0.0293921)
(10.1649 -0.0504784 0.00716498)
(10.1813 -0.0566569 -0.00269129)
(10.1759 -0.0105095 0.00760666)
(10.153 0.0330109 0.00665379)
(10.1236 0.0536731 0.00345861)
(10.1157 0.0203491 0.0131403)
(10.1388 -0.0285639 0.0103886)
(10.1437 -0.00344645 0.000944976)
(10.1283 0.0396507 -0.0112198)
(10.1643 0.0164341 0.00312188)
(10.172 -0.00103148 0.0179209)
(10.1397 -0.015774 -0.00268594)
(10.1472 0.00421783 -0.014448)
(10.1576 0.015918 -0.00512817)
(10.1493 -0.00449884 0.0119975)
(10.1558 -0.0142399 -0.00140512)
(10.1757 -0.0168282 -0.0197989)
(10.1918 -0.0122227 -0.00376575)
(10.1853 -0.0183256 0.014178)
(10.1355 -0.0122121 0.0221133)
(10.1284 -0.0030105 0.0121954)
(10.1357 -0.00445158 -0.0169295)
(10.146 0.00909881 -0.00803861)
(10.1532 0.032968 0.00975725)
(10.1558 0.0249231 0.00454557)
(10.1542 -0.00338217 0.0055707)
(10.154 -0.00794284 0.0123414)
(10.1627 -0.00323056 0.0127476)
(10.1667 0.00174589 -0.0304135)
(10.1518 0.0129356 -0.0116933)
(10.1457 0.0196761 0.0468711)
(10.1557 -0.00502052 0.0519329)
(10.169 -0.0545955 0.00740324)
(10.1674 -0.0503157 0.00586373)
(10.1053 0.017484 0.0176164)
(10.0927 0.0514597 0.00980634)
(10.1183 0.056393 -0.00679611)
(10.173 -0.00450223 -0.0199091)
(10.1603 -0.0155627 -0.02201)
(10.1374 0.0279372 0.0120187)
(10.124 0.0397125 0.0270348)
(10.1614 0.00481976 0.0146972)
(10.1665 -0.0108051 0.00100175)
(10.1452 -0.0118791 -0.0232635)
(10.1513 0.00535923 -0.0152903)
(10.1541 0.0174826 0.00250402)
(10.1612 0.0161309 0.00476398)
(10.1792 -0.0113127 -0.00716314)
(10.1849 -0.0253103 -0.0119958)
(10.166 -0.0222637 0.00822325)
(10.1464 -0.0117184 0.0109288)
(10.1177 0.0106566 -0.0127194)
(10.1094 0.0097293 -0.0140646)
(10.1022 0.00575999 -0.0126079)
(10.1132 0.00627552 -0.00511443)
(10.1363 0.0257862 -0.0035337)
(10.1334 0.0215608 -0.00607428)
(10.1386 0.015431 -0.00908328)
(10.1343 0.00684228 -0.00156016)
(10.1213 -0.00938717 0.00513638)
(10.133 0.00548194 -0.00214)
(10.1422 0.0247271 -0.000819866)
(10.1594 0.0291772 0.00848463)
(10.1929 -0.00633326 0.0213561)
(10.1952 -0.0431431 0.00507047)
(10.1743 -0.0296867 0.0200425)
(10.0959 -0.0157457 -0.000525157)
(10.0615 -0.0086914 -0.00648193)
(10.0803 0.00556107 0.00330174)
(10.1449 0.0262976 -0.0181308)
(10.1618 0.0389725 -0.00645698)
(10.1381 0.0352581 0.00851469)
(10.1276 0.00891032 0.0218194)
(10.1635 -0.0040284 -0.00910127)
(10.1644 -0.00748527 -0.0141746)
(10.1355 -0.001942 -0.00885164)
(10.1545 0.000979176 -0.0092585)
(10.1665 0.00159944 -0.00203083)
(10.1555 0.0101164 -0.00353111)
(10.1581 0.00682985 -0.0153522)
(10.1702 -0.00390479 -0.0161253)
(10.1663 0.000940573 0.00710452)
(10.1618 0.00234361 0.0142822)
(10.1584 -0.02194 0.00355583)
(10.1471 -0.0244045 0.0150669)
(10.1249 0.00924109 0.0281809)
(10.1197 0.0162507 0.0337135)
(10.1351 -0.00185972 0.000551105)
(10.147 -0.018066 -0.0142787)
(10.148 -0.0280602 -0.0155568)
(10.1324 0.00255845 -0.00369783)
(10.146 0.0328967 0.0256117)
(10.1701 0.0282791 0.0092898)
(10.1621 0.00659593 -0.0194563)
(10.1681 0.0104181 -0.0320288)
(10.196 -0.00138837 -0.0293656)
(9.93376 -0.0219019 -0.00475953)
(9.91836 -0.01292 0.00337407)
(9.90164 -0.0151161 -0.00538004)
(9.86276 0.00691799 0.0172288)
(9.8777 0.0354936 0.0365535)
(9.92129 0.0465736 0.0205269)
(9.95297 0.0108992 -0.0249771)
(9.94737 0.00313028 -0.000420229)
(9.95833 0.0055299 0.0274891)
(9.96161 0.0072283 -0.0139796)
(9.9463 0.00494891 -0.0219807)
(9.92446 0.00372334 0.0055443)
(9.95263 -0.00531432 0.00769779)
(9.96947 -0.00933624 0.00790753)
(9.98611 0.00447386 0.00162418)
(9.98349 0.00486613 -0.0165971)
(9.97532 0.00069648 -0.0208666)
(9.98081 0.0075158 0.012392)
(9.97953 0.0142445 0.0230378)
(9.98406 -0.000147676 0.00174249)
(9.99138 -0.00486352 -0.000263344)
(9.98584 0.0185203 0.00433522)
(9.98799 0.0208639 0.00408838)
(9.98651 -0.000910745 -0.0155018)
(9.98199 -0.00417607 -0.0185332)
(9.94639 0.000705727 -0.00329775)
(9.91788 0.00863353 -0.0116386)
(9.95467 0.0276757 -0.0182839)
(10.0353 -0.00935268 0.0313259)
(10.0374 -0.0386119 0.0564783)
(9.99479 -0.0331758 -0.00232149)
(9.96895 -0.0245806 -0.0175744)
)
;
    }
    procBoundary2to3
    {
        type            processor;
        value           nonuniform List<vector> 
256
(
(9.95797 -0.00975667 0.0109806)
(9.95837 -0.00466022 0.0128048)
(9.96596 0.00440689 -0.00155324)
(9.96086 -0.0217331 -0.0272968)
(9.95263 -0.0189517 -0.0351013)
(9.94923 -0.00642545 -0.0404392)
(9.95574 0.00742919 -0.0255244)
(9.99214 -0.00194685 -0.0156697)
(10.0124 -0.00837908 0.0151632)
(10.0002 -0.00779092 0.0185824)
(9.98211 -0.00191949 0.0439832)
(9.97254 0.0132724 0.0369653)
(9.97916 0.0327521 -0.00781672)
(9.98333 0.0089716 -0.0300457)
(9.9773 -0.000391806 -0.0251629)
(9.98105 0.00301691 -0.00926852)
(9.97181 0.00147551 -0.0060341)
(9.96684 -0.00120066 -0.0024473)
(9.97898 -0.00280197 -0.00810391)
(9.9848 0.00337354 -0.018814)
(9.98601 0.0170225 -0.0224354)
(9.96668 0.0154424 -0.00345522)
(9.95392 0.0104206 0.0179116)
(9.96884 0.00286508 -0.00946357)
(9.96351 -0.000414744 -0.03186)
(9.94549 0.00412484 -0.0221134)
(9.95036 0.00435012 -0.0102551)
(9.96712 0.00551619 0.000616271)
(9.94623 0.00493484 0.00153252)
(9.92145 0.000544051 0.0184303)
(9.94819 0.0003877 0.0148846)
(9.97058 -0.00837923 0.00493032)
(10.1655 -0.00311471 0.0268704)
(10.1757 0.0102245 0.0178884)
(10.1954 0.0267819 -0.00621372)
(10.1868 0.0044613 -0.00696553)
(10.1585 -0.0201578 -0.00610433)
(10.1454 0.00485226 -0.0457392)
(10.1382 0.00419963 -0.0407806)
(10.1439 -0.00510318 -0.0248799)
(10.1749 -0.0153855 0.0121787)
(10.1701 -0.0142443 0.0205439)
(10.1724 -0.00706152 0.0412364)
(10.1697 0.00636889 0.0489873)
(10.1833 0.00430356 0.0293995)
(10.1446 -0.00132733 0.00138313)
(10.1456 0.00620991 -0.00904506)
(10.1472 0.0035048 -0.0231905)
(10.1391 -0.0156634 -0.022899)
(10.1253 -0.0103582 0.00134568)
(10.125 -0.00196084 0.00228329)
(10.1554 -0.0140798 -0.01454)
(10.1563 -0.0175307 -0.0187898)
(10.1439 -0.0106145 -0.0174938)
(10.1581 -0.00685563 -0.00807965)
(10.1691 -0.00905515 -0.0110833)
(10.1533 -0.0144014 -0.0227953)
(10.1274 -0.0192018 -0.0181206)
(10.1268 -0.014962 0.00892252)
(10.1242 -0.0112475 0.00380917)
(10.1165 -0.00115358 0.000283532)
(10.131 0.017435 0.0160075)
(10.1644 0.0240782 0.0122112)
(10.1648 0.00778163 0.0167321)
(10.1384 0.0016143 0.0373048)
(10.1449 0.00758399 0.0106613)
(10.1342 0.0321727 -0.0589316)
(10.1493 0.043566 -0.0563242)
(10.1479 0.0164537 -0.0272655)
(10.1021 0.000690408 -0.0171752)
(10.1171 0.00681582 -0.0144175)
(10.1378 0.0109039 -0.0081768)
(10.1875 -0.0147334 0.0600356)
(10.1876 -0.0116709 0.0602634)
(10.155 0.0105746 0.00913837)
(10.1568 0.0129647 -0.00431293)
(10.1633 0.0136433 -0.0115706)
(10.1595 -0.00199455 -0.0165977)
(10.1588 -0.00873693 -0.0159024)
(10.1603 -0.00282237 -0.0167358)
(10.1693 -0.00368882 -0.00981711)
(10.1481 0.00260292 -0.00646833)
(10.1504 -0.000876473 -0.000850973)
(10.1494 -0.017772 0.0124595)
(10.1454 -0.0322456 0.0240366)
(10.1126 -0.0126116 0.015859)
(10.1061 0.00171599 0.0225636)
(10.1179 0.0155193 0.00408945)
(10.1266 0.023448 -0.00608646)
(10.128 0.00368879 -0.00617305)
(10.1295 -0.0139283 -0.0129668)
(10.1086 -0.00871754 -0.0193403)
(10.0979 -0.00351109 -0.0101395)
(10.1254 -0.00208989 -0.000774785)
(10.1668 -0.0295662 -0.00194797)
(10.1645 -0.030778 0.00189398)
(10.1893 -0.00225097 -0.000661376)
(10.1737 -0.0116127 0.00190292)
(10.1407 -0.0116425 -0.00375079)
(10.1319 -0.00873682 -0.00634133)
(10.1329 -0.0205472 -0.00112805)
(10.1339 -0.0286934 0.00602333)
(10.116 -0.0193488 -0.0383567)
(10.1082 -0.0187745 -0.0560368)
(10.163 -0.00176486 -0.00799473)
(10.1452 0.00732705 0.0169537)
(10.1267 0.0151646 0.0344154)
(10.1495 0.00936924 0.0361972)
(10.1776 0.0134744 0.0380004)
(10.2061 0.0227012 0.028849)
(10.1745 0.00420704 0.0106747)
(10.1401 -0.014788 -0.00779868)
(10.1519 -0.00951649 -0.0121478)
(10.1901 0.0060026 -0.0148965)
(10.1903 0.00603446 -0.0283721)
(10.1844 0.0117709 -0.0271235)
(10.1866 0.0113911 -0.0223074)
(10.1579 -0.00477444 -0.00927067)
(10.1549 -0.00375901 -0.000101423)
(10.1595 -0.00209163 0.00500521)
(10.154 -0.00951458 0.0071977)
(10.1025 -0.00197107 0.00116372)
(10.0928 0.0110447 0.00412652)
(10.1138 -0.00127879 0.0034833)
(10.1264 -0.00855759 -0.00437093)
(10.084 -0.00210203 0.00191818)
(10.0997 0.00230297 0.0121199)
(10.1719 0.00425731 -0.000271127)
(10.1438 -0.00960907 0.0160927)
(10.146 -0.00270669 0.00556213)
(10.1381 0.0177882 -0.0056201)
(10.1334 0.0189804 -0.0128575)
(10.1078 0.0156947 -0.00750408)
(10.112 0.0110322 -0.00648856)