FoamFile
{version 2.0; format ascii;class vectorField; location 0;object  v;}
2498
(
( 2.40681e-05 -8.11534e-05 0.00149935 )  
( 0.00057937 1.48183e-05 0.000669714 )  
( -4.97623e-05 0.000285398 -0.000283646 )  
( 0.000917427 3.11817e-05 0.00158548 )  
( -0.000195067 -0.000753548 0.0013559 )  
( -0.000221464 0.000648962 0.00075779 )  
( 1.05786e-05 0.000573627 -3.85436e-05 )  
( -0.000663006 -0.000318336 6.43216e-05 )  
( 1.89251e-05 0.000642023 0.000888787 )  
( -0.000687313 0.000128636 0.00020795 )  
( 0.000339779 0.000783251 0.000837177 )  
( -0.000662839 -0.000226256 0.000355356 )  
( -0.000202187 0.00147389 8.04579e-05 )  
( 0.000350172 -0.000853847 2.94471e-05 )  
( -0.000738589 0.00037612 0.000773302 )  
( -6.6142e-05 0.000147641 0.000166382 )  
( 0.000444348 0.000115541 -9.61696e-05 )  
( -0.000330892 0.000100734 0.00100945 )  
( -7.35583e-05 0.000722991 0.00155903 )  
( -0.000354805 6.46006e-05 0.000157152 )  
( -0.000179488 -0.000419868 -0.000168288 )  
( -0.000920412 -0.000444538 0.000134073 )  
( -0.000554697 -0.000144754 0.000493963 )  
( -0.000364183 0.000166583 0.00157231 )  
( -0.000168786 0.000802989 0.000603287 )  
( -0.000382072 5.33331e-05 -0.000369042 )  
( 0.000319461 0.000466941 0.00226978 )  
( 7.16173e-05 0.000188639 0.00213797 )  
( -0.000136887 0.00114955 0.00105604 )  
( 0.000519978 0.000208761 0.000165154 )  
( -7.14775e-05 0.000981634 0.000377399 )  
( -0.0019732 8.65412e-05 -0.000223816 )  
( -0.000433785 0.000479747 0.000583556 )  
( 0.000217221 8.45694e-05 -0.000279948 )  
( 0.000748193 -0.000378483 0.000425403 )  
( -0.000121111 0.000830679 0.000589531 )  
( -0.000929201 0.000293927 4.0597e-08 )  
( -0.000163183 7.71611e-05 2.18651e-05 )  
( -0.000285602 -0.000219594 -0.000311868 )  
( -0.00061706 0.000217172 0.000490698 )  
( 4.29414e-06 6.16471e-06 0.0013831 )  
( -0.000177768 0.000170004 0.00100977 )  
( 1.37611e-05 -0.000888162 -0.000165297 )  
( -0.000197844 0.00246396 -1.53246e-05 )  
( 0.000373723 0.000402866 0.000722811 )  
( -0.000435975 -0.000640714 -0.000128659 )  
( 0.000637125 0.000133666 4.29123e-07 )  
( 0.000107091 0.00067306 0.00118378 )  
( 0.000131003 -0.000501448 0.000555993 )  
( -1.4473e-05 0.000560024 0.00045534 )  
( -0.000798332 0.00135718 -0.000187942 )  
( -0.0003569 0.000454694 0.00153019 )  
( 0.00230496 -0.00086178 0.00105439 )  
( 0.000394463 -6.06203e-05 0.00126109 )  
( 0.00336358 0.000183436 7.76538e-07 )  
( -4.92897e-05 -5.67558e-05 0.000111937 )  
( -0.000149881 -5.521e-05 5.98319e-05 )  
( -0.000777945 -0.000510549 -0.000143371 )  
( -0.00110027 0.00180346 -0.00065158 )  
( -0.000474695 -0.000388083 0.000806966 )  
( 0.00020458 0.0009923 0.000264003 )  
( -0.000510964 0.000547014 0.000659517 )  
( -0.000256554 -0.000197826 0.002642 )  
( -0.000449866 -0.000542445 0.000669525 )  
( -0.000999937 -0.000365273 8.09891e-05 )  
( -0.000494406 -0.00121886 0.00092325 )  
( -0.000746727 0.000159163 0.000513122 )  
( 7.78046e-05 -0.000326041 -3.76519e-05 )  
( 0.000282615 0.000578292 -0.000416407 )  
( 0.000894768 0.00123499 -0.000326971 )  
( 9.72835e-05 0.000117195 -2.15542e-05 )  
( 0.00233117 -0.00123176 4.18355e-07 )  
( 0.000949766 -0.000427367 0.00126348 )  
( -0.000280848 0.000391237 0.000989471 )  
( -0.00019826 -0.000391818 0.000308684 )  
( -0.00783254 -0.00342847 0.00921429 )  
( -0.000273087 -0.000126251 -7.06122e-05 )  
( -7.25785e-05 0.000236965 0.00141304 )  
( -0.000423592 -0.000332118 1.01765e-05 )  
( -0.000506853 0.00103582 0.00274721 )  
( -0.000563236 0.000235292 0.000674844 )  
( -0.000249924 0.000133342 -6.42517e-05 )  
( -0.000337741 0.00152112 -6.72208e-05 )  
( -0.000743713 -0.000226977 0.00101194 )  
( -0.00102624 9.75123e-05 0.000806642 )  
( 0.00126672 7.1261e-05 -5.10721e-07 )  
( -0.000414926 -0.00126655 0.00118301 )  
( 0.000283847 0.000228627 7.17928e-06 )  
( -0.000111267 0.000499076 -0.000231015 )  
( -0.000457514 -0.000204658 -3.02031e-07 )  
( 0.000517993 -0.000514167 0.000204403 )  
( 0.000163198 0.000592342 0.000568954 )  
( -0.000366961 0.00182763 0.000397828 )  
( -0.00121869 0.00175761 0.000998383 )  
( 0.000102367 0.000344267 -1.6815e-05 )  
( -0.000783374 0.000568397 -7.37247e-05 )  
( 0.000634152 -0.00015529 -0.000287011 )  
( 0.000861979 8.99927e-05 0.00100008 )  
( 0.000620395 -0.000224413 -0.000265783 )  
( 0.000414097 -5.30325e-06 0.000552076 )  
( 0.00023655 0.000135922 -3.43323e-05 )  
( -0.000243519 0.000272957 0.00106976 )  
( 0.000588025 0.000191117 -5.76768e-05 )  
( -0.00130883 0.000767272 0.000235921 )  
( -0.000366237 -0.00012506 0.000882977 )  
( 0.000130958 0.000325412 0.00105856 )  
( -2.08852e-05 0.000729976 0.000536647 )  
( -1.91188e-05 0.00128073 0.00052435 )  
( 0.00140354 1.76761e-05 0.00156917 )  
( -1.50871e-05 -2.66487e-06 -3.13555e-08 )  
( 0.000195108 0.000160082 -2.75629e-05 )  
( -0.00017177 -0.0002701 0.00037876 )  
( 0.000146534 0.000462494 0.0020538 )  
( -0.000236459 0.000302542 -0.000936379 )  
( -0.000511984 0.00116334 0.000873171 )  
( 0.000172902 -0.000215156 -0.00100821 )  
( 0.000500142 0.000760755 -6.72691e-05 )  
( 1.81001e-05 4.63778e-05 0.000442506 )  
( -0.000732986 0.000353265 8.88438e-05 )  
( -0.000660727 0.000428866 0.00077905 )  
( -0.00122219 -0.00133327 0.000529357 )  
( -0.000222445 -0.000475462 0.000866173 )  
( -8.28646e-05 0.0011473 -4.48054e-05 )  
( -0.000526263 0.00119749 0.00194283 )  
( -0.000328705 -9.00556e-05 0.000657261 )  
( 0.000261262 0.000229219 0.00182001 )  
( 0.000795513 -0.000634305 -0.00282881 )  
( -0.000146677 0.000753862 0.000622762 )  
( -0.000163113 9.08446e-05 0.000448042 )  
( 0.000218437 -0.00018956 -0.000130346 )  
( 2.51302e-05 -0.000421958 0.000967161 )  
( -0.000335447 -0.000432459 0.000120162 )  
( -0.000776907 0.00160704 -0.00112464 )  
( 7.46558e-05 -0.00042907 -0.000240494 )  
( -6.03402e-05 0.000708883 0.00247329 )  
( -0.000192378 0.000598944 0.00163745 )  
( 0.000875353 0.000132164 0.00346361 )  
( 0.000849499 -0.000721043 0.000810446 )  
( -0.000380082 -2.59037e-05 0.00162112 )  
( -0.000335277 0.000128612 0.000393942 )  
( -0.000648603 -0.000158529 -0.00108202 )  
( 0.00143363 -0.000400839 9.21063e-05 )  
( 0.000147071 0.000847622 0.00063896 )  
( 0.00122922 3.91295e-05 0.00164037 )  
( -0.000542238 1.1225e-06 -8.41841e-06 )  
( -0.000615218 0.000407125 5.80915e-05 )  
( -0.000207167 0.00189006 -0.000973153 )  
( 0.000544295 -0.000239357 0.000893519 )  
( -0.00169591 0.000413976 0.00135569 )  
( -9.33145e-05 0.000567564 -0.00032075 )  
( 0.000349243 0.000207075 0.000127187 )  
( 1.00618e-05 0.000807372 0.000276909 )  
( -0.000641761 0.00119124 -0.000240603 )  
( 0.000227042 -5.1989e-05 -8.92362e-05 )  
( 0.00131585 0.000597752 0.000231275 )  
( -0.000139288 0.000147534 0.000413949 )  
( -0.000391157 -0.000771218 0.000196199 )  
( 0.000134995 0.000201353 0.00176545 )  
( 0.000372894 -0.000208955 -0.00010299 )  
( -0.000104876 0.000663563 0.000312565 )  
( 6.35508e-05 0.000865096 0.00152585 )  
( 5.90343e-06 0.00188701 0.00117502 )  
( -0.000569104 -0.000155831 -0.00107547 )  
( -0.000664928 0.000107915 0.00063213 )  
( -0.000125821 2.9805e-06 0.00102947 )  
( -4.25617e-05 0.000259947 6.39397e-05 )  
( -8.11007e-05 -0.000709414 0.00171329 )  
( -0.000463567 -0.000336528 -0.000191212 )  
( -0.000574544 0.000766459 0.00152641 )  
( 0.000194245 1.41825e-05 0.00106224 )  
( 0.000907243 0.0013958 1.48855e-05 )  
( 7.53816e-06 -7.36415e-05 0.00190933 )  
( -0.000125636 0.000302253 0.000650129 )  
( -1.88512e-05 0.000268324 3.60224e-05 )  
( -0.00109132 0.000592364 0.000625286 )  
( 0.000184796 0.000975998 0.000239717 )  
( -0.00053487 0.000374435 0.00042507 )  
( 0.000295523 -0.000179088 2.54615e-05 )  
( -0.000257493 -2.63233e-05 -0.000107732 )  
( -0.000347115 0.00110786 0.000183561 )  
( -0.000588562 1.09084e-05 0.00122206 )  
( 2.44268e-05 -6.12876e-05 -1.11741e-06 )  
( 0.000350213 -8.24293e-05 0.000212349 )  
( 1.74712e-05 -4.93944e-06 0.000613868 )  
( 0.000456081 -0.00072178 0.00195914 )  
( 0.000210097 0.000416702 1.11804e-05 )  
( -0.000619421 0.000597752 0.0003047 )  
( 0.000177226 0.000776273 0.00207207 )  
( -0.000369378 0.000154274 0.000828419 )  
( -0.000274879 -0.000313424 0.00163452 )  
( -0.000446784 -0.000593955 0.000191929 )  
( 0.000294477 -0.000227362 0.000169347 )  
( 2.56978e-05 0.000361731 1.93822e-05 )  
( -0.000777535 -0.000262842 0.00014086 )  
( -6.70369e-06 0.000222475 0.00019039 )  
( 0.00107728 -0.00181842 -6.18893e-06 )  
( -6.70434e-07 8.48878e-05 0.000415466 )  
( -0.000979628 0.00148792 0.000538508 )  
( -0.000343622 0.000287772 8.38397e-05 )  
( -7.17844e-05 2.43432e-05 0.000773864 )  
( -0.000539669 0.000873469 0.000662518 )  
( -0.000624926 0.000930577 0.000254186 )  
( -0.000824022 0.0015581 0.00154141 )  
( 0.000223342 -0.000436205 0.00245916 )  
( 0.000580047 -0.000175936 0.000681727 )  
( -0.000107414 3.35489e-05 0.000325188 )  
( 0.000823004 -0.000200959 -0.00057519 )  
( -0.000158468 -6.41217e-06 -0.000225362 )  
( 0.000419732 0.000436718 -9.0613e-05 )  
( 4.58124e-05 -0.000171966 0.000659476 )  
( -0.000732493 -0.000439724 0.000168652 )  
( -0.00057974 0.000633877 0.000798183 )  
( -5.81343e-05 -0.000621188 0.000629288 )  
( -0.000860567 -4.79673e-05 0.00100567 )  
( -0.000165319 -0.000714305 0.000532473 )  
( 0.000126609 0.000273346 0.000330137 )  
( 0.000453408 0.000535996 -5.47541e-05 )  
( -0.000293692 0.0004791 0.0001274 )  
( -0.000193283 0.000156088 0.000340713 )  
( 2.6841e-05 0.00159859 -3.77161e-05 )  
( 0.00100961 0.00157028 -0.00148259 )  
( 0.00106273 0.000325239 0.00147019 )  
( 0.000274355 0.00050848 9.17292e-05 )  
( 0.000126458 0.000542063 0.000677009 )  
( 0.00071173 -0.00102772 0.000711082 )  
( 0.000639515 4.73016e-05 -0.00130834 )  
( 0.000148383 0.00138052 -0.00050128 )  
( -0.000696264 0.000804317 3.79815e-05 )  
( -0.000650599 -0.00057456 0.001059 )  
( 0.000158457 0.000709208 3.73415e-05 )  
( -0.000797501 0.000638271 0.000599096 )  
( -0.000339213 0.000662867 0.000708138 )  
( -0.000345004 -0.000483255 -3.15578e-05 )  
( -0.000692509 0.000438229 0.000210649 )  
( -0.000922419 -0.000140106 0.00206831 )  
( 0.000702329 0.000182024 0.0104279 )  
( -0.00134973 -0.000697663 0.000357789 )  
( -0.00185445 -0.000379952 0.00136466 )  
( -0.000290897 -0.00018975 -3.09894e-05 )  
( -0.000396497 0.00226759 -0.000146386 )  
( 0.00129676 0.000208794 0.00182318 )  
( 0.000863021 0.000126272 0.00176093 )  
( -0.000545114 -0.000413696 0.00075111 )  
( -0.0017336 0.00222417 0.000400751 )  
( -0.000620798 -0.000706541 0.000275155 )  
( 0.000109427 -0.000658067 0.000709524 )  
( -0.000747376 -0.000272925 -0.000253355 )  
( -0.000351387 0.000374009 -5.04117e-05 )  
( 0.000421694 0.000445162 0.00165676 )  
( 0.00101211 0.000617414 -0.000272413 )  
( -6.23943e-05 -0.00104191 0.000177024 )  
( -0.000673068 0.000518298 -7.91443e-05 )  
( 0.000255441 -0.00028432 -6.14272e-05 )  
( 8.04854e-05 0.000426919 0.000827685 )  
( 0.000135654 -0.000345351 -0.000790671 )  
( -0.000804374 0.000431571 6.3309e-05 )  
( -0.00031368 -0.00104173 0.000709502 )  
( -0.000234281 -0.000345673 0.0015812 )  
( -0.000570638 0.000392593 -0.000207078 )  
( 0.000335064 0.00019392 6.04969e-05 )  
( -0.000347877 -0.000210895 7.91295e-05 )  
( -0.000210144 9.74741e-05 0.00115828 )  
( 0.000115617 0.000348162 -0.000180537 )  
( 0.000554405 0.00063409 -7.98002e-05 )  
( 0.000122236 0.000649914 0.000125642 )  
( -0.00117788 0.00155593 0.000929477 )  
( -0.000506208 0.000692826 0.000404247 )  
( -3.14767e-05 0.000761186 -5.20585e-05 )  
( -0.000994924 0.000785015 0.0012145 )  
( -0.000350312 6.02027e-05 0.000673822 )  
( -0.000516941 0.000555886 0.000615921 )  
( -0.000489685 0.000291033 0.000749138 )  
( -3.33012e-05 0.00027928 0.000426004 )  
( -0.000354197 0.000440529 0.000588801 )  
( 3.50659e-05 6.36545e-05 3.00752e-05 )  
( -0.000124398 0.000483355 0.00158484 )  
( -0.000715329 -6.88615e-05 0.00083088 )  
( -0.00198708 0.000201197 0.0014086 )  
( -3.17083e-05 -2.08497e-05 5.73891e-05 )  
( 4.14613e-05 -0.000449173 -0.00012325 )  
( -0.000515446 -0.000293411 0.00102632 )  
( -0.000354401 0.000457358 0.00140116 )  
( 0.00124876 0.0010119 0.00292752 )  
( -5.24879e-05 0.000536537 0.000739576 )  
( 1.88541e-05 0.000330737 0.000264514 )  
( 1.64136e-05 2.44302e-05 2.30751e-05 )  
( 0.000421479 0.00268549 -0.000248256 )  
( 0.000430532 -8.60428e-05 0.00101074 )  
( -0.00069611 9.51461e-05 0.000499978 )  
( -0.000126619 -0.000810216 0.00265146 )  
( -6.00026e-05 -1.74944e-05 0.000111897 )  
( -0.000301763 0.000577183 0.00244466 )  
( -0.000684128 -0.000260267 0.000863939 )  
( -3.81429e-05 -6.24873e-06 0.000578981 )  
( -0.000505298 -7.9762e-05 -3.04473e-07 )  
( -8.87907e-05 0.00106169 0.000981492 )  
( -0.000445829 -8.00675e-05 5.31306e-06 )  
( 2.61629e-06 0.000801192 -0.000645053 )  
( 0.000335629 6.58702e-05 -3.92236e-05 )  
( 0.0011793 5.4454e-05 0.000804577 )  
( 0.000263324 0.000732514 0.000589788 )  
( 0.000437241 0.000531435 -0.000632111 )  
( -0.000732265 5.14527e-06 0.000380022 )  
( -0.000549698 0.00264009 0.0021177 )  
( -0.000607514 0.000414626 -0.000409855 )  
( -0.000227937 -0.000686025 0.000637102 )  
( -0.00174602 -0.000332204 0.00312266 )  
( 0.000179753 0.000768537 0.000709442 )  
( 0.000270397 -0.000192676 0.000575189 )  
( -0.000372303 0.000174011 0.00103435 )  
( 2.92783e-05 0.00113338 0.0031442 )  
( -0.000233927 0.000507687 0.00115057 )  
( 0.000424527 0.000545172 -6.35337e-05 )  
( -0.000761075 0.000617556 0.000121307 )  
( -0.000509346 -0.000141523 0.000402162 )  
( 0.001044 0.000457599 0.00239005 )  
( -0.000627216 0.000819395 0.000359834 )  
( 0.000124877 0.000859041 0.00121719 )  
( 0.000215299 -0.000937287 0.000834423 )  
( -5.73009e-05 0.000139572 0.00241148 )  
( -6.55948e-05 0.00121109 0.000497913 )  
( -0.000259237 0.000617078 0.00228522 )  
( -0.000259343 2.66223e-05 -9.65848e-05 )  
( 0.000120474 0.00217043 -0.000535663 )  
( -0.000900829 0.000332124 0.000649586 )  
( 0.000429614 0.00184076 0.00197616 )  
( -0.000282669 8.6647e-05 0.000175344 )  
( -0.00105803 -0.00160149 -0.000135131 )  
( -0.000251048 0.000645935 0.000727151 )  
( -0.000100392 0.000213562 0.000173659 )  
( 0.000184534 0.00015313 -6.26557e-05 )  
( 0.00136164 0.000727745 0.000344952 )  
( -0.000435425 0.00108222 0.000235863 )  
( 8.32937e-06 -0.00034431 -0.000104078 )  
( 0.000351996 -0.000262606 0.00196828 )  
( 0.00210386 0.0011954 0.00311066 )  
( -2.76748e-05 -0.00029285 0.000536716 )  
( 0.000127382 0.000211166 0.000245959 )  
( 0.000373278 0.000798625 0.000362876 )  
( -5.61191e-05 -0.000322517 0.00146212 )  
( 0.000643804 0.000523858 8.50417e-05 )  
( -0.00081334 0.00145133 0.0021493 )  
( -0.000153399 -0.000571892 0.000300334 )  
( -0.0007798 0.000648014 0.00108076 )  
( -2.9463e-05 -0.000163979 7.81113e-05 )  
( -0.00187932 0.00280618 -1.17658e-05 )  
( 0.000202533 0.00061939 0.0012956 )  
( -0.000346459 -8.69163e-05 -0.000645945 )  
( 0.000261531 0.00111593 9.65146e-05 )  
( -0.000196681 -0.000271994 0.00172586 )  
( -5.88536e-05 -6.36724e-06 0.00111935 )  
( 0.000268504 0.000635625 -2.1648e-05 )  
( -0.000182542 -6.75124e-05 0.000747197 )  
( -7.98559e-05 0.000987615 0.000292367 )  
( -0.000691897 -0.0013913 0.000854216 )  
( -0.000885885 0.00063602 1.95195e-05 )  
( 0.000386434 0.00236526 0.00330287 )  
( 0.0011837 -0.000172361 -2.75713e-06 )  
( -0.000248468 0.00163113 0.000224226 )  
( 0.000465972 0.000290103 0.00187566 )  
( 0.000570691 0.00164303 0.00127897 )  
( 0.000101142 0.000153696 -0.000253438 )  
( 0.00022292 0.00053096 9.14438e-05 )  
( -0.000242997 0.000711178 0.00057701 )  
( 0.000413862 -0.000322236 0.000293855 )  
( 0.000483146 0.000182988 -0.000762065 )  
( 0.000227591 1.48044e-05 0.000179182 )  
( -0.000186771 -0.000238646 0.000558431 )  
( -8.69419e-05 -9.60619e-05 5.84342e-05 )  
( -0.000501545 -0.000506126 0.000162426 )  
( 0.000740977 -0.000145547 3.0556e-05 )  
( -0.000837605 -0.000130039 0.00117156 )  
( 0.00062037 0.0011167 -0.00262591 )  
( -0.000108746 0.000466807 4.10916e-05 )  
( 0.00052844 0.000404532 0.000773744 )  
( 0.000300307 0.000616556 4.535e-05 )  
( -0.000890296 -0.000930739 0.000848663 )  
( -0.000291267 -0.000155307 0.000261075 )  
( 0.000914248 0.000760862 0.000255846 )  
( -9.06336e-05 0.00104106 0.000489696 )  
( -0.00361666 0.000849817 0.00227731 )  
( -0.000116157 0.000779332 0.0013253 )  
( -1.97612e-05 2.90883e-05 6.248e-05 )  
( -0.00185016 -0.00147046 -0.000492111 )  
( -0.000143567 0.000601259 -0.000237801 )  
( -0.000149356 -0.000106073 0.000835422 )  
( 3.76793e-05 -1.99954e-05 3.7427e-05 )  
( 0.000430575 0.000107648 -0.000319067 )  
( 0.000879634 0.0001388 0.00197085 )  
( 0.000129948 0.00398278 0.00545893 )  
( -0.00118818 -0.000560837 0.00258993 )  
( -0.000952733 0.000841168 0.00162082 )  
( 2.64473e-05 0.000158933 0.000269143 )  
( -0.000313125 -0.000158598 0.000420282 )  
( -0.000840734 -0.000956697 0.000196211 )  
( -0.000503863 5.70388e-05 0.00134406 )  
( -0.000664435 -0.000549618 0.000355681 )  
( 0.000185927 0.000347798 0.00116498 )  
( 0.000362334 0.000965933 0.000711423 )  
( 0.00134525 0.00149911 5.5345e-07 )  
( -1.24649e-05 -4.21722e-05 -5.68873e-05 )  
( 0.000609091 -0.00106886 -4.96074e-05 )  
( 0.000313259 0.000482352 0.00116338 )  
( -0.000287357 -1.95052e-05 -0.000107761 )  
( -0.000165844 0.00157692 -0.00077838 )  
( -0.000157204 0.00187319 0.001292 )  
( 4.29213e-05 9.22461e-05 0.000246028 )  
( 6.72951e-05 0.000111585 0.000859046 )  
( 0.00029685 -0.00022399 0.00085631 )  
( -4.8847e-05 0.000375068 0.000855702 )  
( -0.000802656 0.000327645 -0.000451347 )  
( -0.000884781 0.000134506 0.000973339 )  
( 0.000732087 0.00032169 -0.000634367 )  
( -0.00145432 -0.000597386 0.00321691 )  
( 0.00218033 0.00188334 -1.75564e-06 )  
( -0.000581798 -0.00164981 -0.00243866 )  
( -0.0002676 -0.000183886 0.00106994 )  
( -0.000675107 0.000897282 0.00253357 )  
( -0.000606153 -1.68113e-05 0.000186393 )  
( 3.97026e-05 -0.000141345 7.09537e-05 )  
( 0.00202396 -0.00341481 0.00588037 )  
( -9.34398e-05 0.000545249 8.7912e-05 )  
( 0.000215368 -5.92659e-05 0.000490268 )  
( 4.58353e-05 0.00270656 -0.000264897 )  
( -0.00091456 0.000371367 8.43023e-05 )  
( 0.000323965 0.000829954 2.8748e-06 )  
( 0.000737286 0.000196719 0.000514935 )  
( 0.000189254 0.000191028 3.0737e-05 )  
( -0.000974798 -0.00041581 0.00292697 )  
( -1.9102e-05 0.000114693 5.90043e-05 )  
( -0.000371142 0.000288203 6.14984e-05 )  
( -0.000147477 -0.000588209 -0.000506032 )  
( 0.000119447 2.36575e-05 -0.000119359 )  
( 6.08819e-05 0.000230035 0.000342685 )  
( -8.2935e-05 -0.000209635 0.000484439 )  
( 0.000151758 0.000491633 0.00898721 )  
( -0.000476287 0.000418371 0.000493201 )  
( -0.000368369 0.00049387 0.000375925 )  
( 2.71655e-05 0.000175623 0.00100717 )  
( -0.000251439 -0.000406645 0.00085294 )  
( -0.000343812 9.6229e-06 0.000725806 )  
( -0.000425406 7.93056e-05 0.00119308 )  
( -0.00106098 0.00152865 0.000205346 )  
( -0.000138977 7.29994e-05 0.00208477 )  
( -0.000628003 0.000126618 -1.86556e-05 )  
( 0.000205244 -0.000757954 0.00363415 )  
( 0.000418578 -0.000339723 0.000512458 )  
( -0.00035605 0.00115034 0.00101444 )  
( 0.000524694 5.86848e-07 0.000316732 )  
( 0.000321757 0.000380754 0.00132672 )  
( 0.000105689 -0.000231843 0.00078222 )  
( -0.000694473 0.00200962 -0.000283573 )  
( 0.000507865 0.000619205 0.00241798 )  
( -0.00112884 0.00164545 -0.000116818 )  
( 0.000228207 0.00027766 1.45816e-05 )  
( 0.000366928 0.000209052 0.000692332 )  
( 0.000249651 0.000639851 0.000248706 )  
( 5.94091e-05 0.000863872 -8.58449e-05 )  
( -0.000354515 0.00017113 3.23022e-05 )  
( 0.00052741 0.000426475 -8.46533e-05 )  
( 0.000530293 -0.00129246 0.00415058 )  
( -0.000354613 0.000980305 0.000260655 )  
( -0.00087546 -0.000167805 -0.000885412 )  
( 1.38521e-05 0.000315462 0.000618669 )  
( 8.25144e-05 4.01384e-05 -0.000118098 )  
( -0.000762605 0.000417265 0.000417426 )  
( 0.000891389 0.000106248 0.00144626 )  
( -0.00056946 -0.000550592 0.00034938 )  
( -0.000192052 -0.00026287 -0.000395888 )  
( -0.00175874 -0.0009239 -0.000322606 )  
( -9.69394e-05 0.000115177 -6.91784e-05 )  
( -0.00091712 0.0013117 0.000958534 )  
( -0.000197492 0.000177647 2.51969e-05 )  
( -0.000169629 6.73316e-05 0.000756181 )  
( 0.000739786 -0.00026415 -0.00018733 )  
( 4.52951e-05 0.000120779 0.00139791 )  
( 9.09326e-05 0.000396546 7.04583e-05 )  
( -0.000788916 0.00132213 0.00159679 )  
( -0.000375255 -0.000411153 0.000326962 )  
( -0.00119879 0.00335542 0.000127987 )  
( 0.00011392 0.00045568 0.000680192 )  
( 0.00039654 8.58287e-05 0.00203316 )  
( -0.00018555 0.000128089 0.000811298 )  
( -0.000900643 0.000262792 0.000931887 )  
( -2.77003e-05 0.00100425 5.37084e-06 )  
( -0.000767607 -0.000509952 0.00129824 )  
( -0.00111673 0.001186 0.000399837 )  
( 0.000220682 -0.000738108 0.000737515 )  
( 1.24612e-05 0.00122455 0.000367019 )  
( -0.000101964 0.000704689 6.28164e-06 )  
( 0.000578922 -9.9877e-06 0.000670125 )  
( 3.26789e-06 1.18832e-05 9.89727e-05 )  
( -0.000149752 0.000696014 0.00111277 )  
( 0.000264783 -0.00026862 -0.000311947 )  
( 0.000299929 0.000203645 0.000893933 )  
( -0.000912414 0.000929357 0.0063953 )  
( -0.00122378 0.000378463 0.00244581 )  
( 0.000412388 8.55348e-05 1.37475e-07 )  
( -0.000478042 -0.000698563 0.000799746 )  
( 0.000306156 -0.000200733 3.35675e-05 )  
( 1.63322e-05 -0.00030937 4.52614e-05 )  
( 8.09021e-05 0.00145613 0.00116043 )  
( -6.86472e-06 0.000316144 -9.71897e-06 )  
( 0.000567906 0.000177136 -0.000240782 )  
( 0.000704578 0.00132883 0.000270847 )  
( 3.64762e-05 0.000165513 0.001078 )  
( -6.95439e-05 1.71217e-05 -0.00014145 )  
( -0.000506645 0.00047527 0.000479624 )  
( -4.01467e-06 -0.000245494 0.0006466 )  
( 0.000311708 0.000200782 -0.0005762 )  
( -0.000738212 0.000202241 4.12032e-06 )  
( -0.000849674 -0.000131623 0.00111388 )  
( 0.000891272 0.000487372 -0.000132754 )  
( -0.00106445 0.00156152 0.00274436 )  
( 0.000253424 0.00229996 0.00122301 )  
( 0.000281948 0.000196681 0.000332165 )  
( 0.00234096 0.000944313 7.57734e-06 )  
( 0.000890734 0.000439418 0.000354329 )  
( 0.00178029 -0.00228665 0.00490533 )  
( -0.000565862 0.000193381 0.000354838 )  
( -0.000109837 0.000144287 -8.8598e-06 )  
( -0.00164578 0.00147475 0.00365282 )  
( -0.00100736 -0.00138277 0.00926903 )  
( 0.000761478 -0.000627724 0.000698358 )  
( 0.000306884 -0.000328602 -0.000657105 )  
( -0.000220907 0.000753886 0.000533326 )  
( 0.000600877 -2.24194e-05 2.82742e-07 )  
( -0.000289212 0.000170436 -0.000132836 )  
( 0.000554331 0.000862362 -9.23142e-05 )  
( -4.91385e-05 0.000138943 0.000826918 )  
( -0.000742608 -0.000998901 0.00158502 )  
( -0.00111405 0.00217178 0.00267786 )  
( 0.000139141 0.000981714 -0.000717455 )  
( 0.000106865 -0.000161744 0.000326799 )  
( -0.000541184 -0.000526622 0.00142538 )  
( 0.00103634 0.00135476 0.00021012 )  
( 0.000985642 0.000240231 0.00104357 )  
( 0.000855023 -0.000309189 0.00167893 )  
( -6.13566e-05 8.24238e-05 0.00058194 )  
( 2.51101e-05 -0.000389801 0.000226243 )  
( -0.000822418 3.97117e-05 0.00143933 )  
( 5.18289e-05 -0.000380481 0.00132494 )  
( -0.000802605 0.000495278 5.18876e-05 )  
( -0.000661501 3.79427e-05 0.000770829 )  
( -0.00156807 0.000643686 0.000144578 )  
( -9.40149e-05 0.000145486 0.000243329 )  
( 0.000366776 9.13995e-05 0.000687378 )  
( 0.000401857 -0.000371294 5.92593e-05 )  
( -0.000991472 0.000587064 0.00112604 )  
( -0.000252781 0.000264967 5.92123e-05 )  
( 0.00194036 -0.00214005 0.00313215 )  
( -3.09516e-06 -8.14501e-05 -4.27889e-05 )  
( -0.000777532 0.000472217 0.00109023 )  
( 3.759e-05 -0.000398768 0.000952736 )  
( -0.000478319 0.00131802 -0.000559527 )  
( -0.000438192 0.00184187 -0.000852288 )  
( 6.82189e-06 -0.00010046 0.00666673 )  
( -0.000356622 -7.5253e-06 -0.000366653 )  
( -0.00108196 -4.92465e-05 -1.42625e-05 )  
( -0.000756977 0.00117495 -0.000307571 )  
( 0.000323351 6.95434e-05 0.000387907 )  
( -0.000386586 6.1811e-05 0.000868246 )  
( -0.000220041 0.000394683 1.51986e-05 )  
( -0.000810808 0.00107559 8.99423e-05 )  
( -0.000343097 -0.000352094 0.000431154 )  
( 0.000216627 0.000887414 -6.69356e-06 )  
( -0.00123124 -0.00161812 -0.00087514 )  
( 2.94695e-05 0.00118499 0.00039629 )  
( -0.00107113 0.00151584 0.00203836 )  
( -0.000592723 0.000466474 0.0017386 )  
( -0.000326437 0.00119503 0.0014991 )  
( -0.00074133 0.000162585 0.000322109 )  
( -0.000551468 -0.000180479 0.0003788 )  
( 0.000194182 0.000171112 -5.99549e-05 )  
( 0.000698789 0.0023291 0.00137323 )  
( 3.62163e-06 0.000353417 -9.59541e-05 )  
( -0.00111165 0.000117745 7.91595e-05 )  
( 0.000262163 -0.000853754 0.00511712 )  
( -0.000102973 4.46697e-05 0.000649916 )  
( -0.000174453 0.00028265 -0.000146961 )  
( 0.000150544 0.000428101 -0.00018572 )  
( -0.00163087 0.00153842 0.000852872 )  
( -0.000128151 -0.000286159 -8.8335e-05 )  
( -0.00149509 -0.000934606 0.00163706 )  
( 0.000419431 -0.000398609 0.000822417 )  
( -0.000539981 0.000719337 0.00189665 )  
( 2.54692e-05 -0.000484301 0.00137043 )  
( 0.000149878 -0.000399554 -0.000433504 )  
( -0.000672775 -6.51928e-05 3.91638e-05 )  
( -0.000158233 0.000224221 7.31823e-05 )  
( 0.000377703 0.000134018 0.000782809 )  
( 0.000409439 -4.34563e-05 -2.84097e-06 )  
( 0.000484645 2.81534e-05 5.40463e-05 )  
( -0.00149199 9.48647e-05 0.00400217 )  
( 0.000342185 0.00020492 1.88358e-05 )  
( -0.000521731 0.000547119 -0.00037196 )  
( -0.000698086 -3.37843e-06 4.48553e-05 )  
( -5.20935e-05 0.000200649 -1.88906e-06 )  
( 0.000655787 0.000617313 -4.02084e-05 )  
( 3.84552e-05 1.64472e-05 -7.57217e-06 )  
( -0.000241271 -1.06472e-05 0.000195836 )  
( -3.25595e-05 0.000635452 0.00103618 )  
( 0.00028787 0.00079007 2.39063e-05 )  
( -0.000634881 0.00145394 0.00166608 )  
( -0.000223411 -5.7296e-05 0.000258589 )  
( -0.00141088 0.00272411 0.00115039 )  
( 0.000296413 0.00075371 -0.000202889 )  
( 0.000258916 0.00017231 -0.000420896 )  
( -0.000659254 0.000625368 1.61765e-05 )  
( -0.000398696 -5.98517e-05 0.00015884 )  
( -9.61663e-05 0.000252417 3.55552e-05 )  
( -0.000735018 0.000111177 -0.000628247 )  
( 0.000986618 0.000479664 0.000141976 )  
( -0.000167217 -9.6869e-05 0.000128447 )  
( -0.00092787 0.000289327 7.95962e-05 )  
( -0.000249886 0.000500113 0.000334891 )  
( -0.0011284 -6.50434e-05 -4.21603e-05 )  
( -0.00052469 0.000546814 -1.70851e-05 )  
( 0.000259841 0.00142407 -0.000268807 )  
( 0.000500001 0.000432806 -7.00456e-05 )  
( -0.000124522 -6.68875e-05 0.000456877 )  
( 8.6603e-05 -0.000211697 0.00163031 )  
( -0.000540392 -0.000266479 -0.000472636 )  
( -0.000572023 0.000910797 0.000816992 )  
( -0.00113056 0.000830393 0.00101368 )  
( -0.00041587 -0.00018507 0.000857338 )  
( -0.000359354 0.000161622 2.89677e-05 )  
( -0.000831517 0.000562808 0.00182291 )  
( -0.000285187 -8.60427e-05 0.00104578 )  
( -0.000538165 -5.68972e-05 0.00142398 )  
( -0.000215322 -0.000387131 0.000958407 )  
( -0.000416662 0.00155293 -4.18495e-05 )  
( -0.000536869 0.000435121 0.00101968 )  
( -0.000752271 0.000211389 0.00128051 )  
( 0.0016119 0.00142443 0.00172318 )  
( -0.000978704 -0.00015835 0.000937645 )  
( -0.000447021 0.00141311 0.00115394 )  
( 7.11533e-05 0.000260155 0.00116418 )  
( -0.000678458 0.000512339 0.00105366 )  
( -2.49661e-05 0.000101063 0.000449646 )  
( 0.00145491 0.00323991 5.07821e-05 )  
( -0.000794251 -0.000331587 0.000493447 )  
( -0.000109637 -0.000105734 0.00017408 )  
( 6.21172e-05 0.000252556 -0.000145937 )  
( -0.000391509 -0.00130153 0.00338713 )  
( -0.000644248 0.000396968 0.00126272 )  
( 8.10959e-05 -0.000292143 -4.61535e-05 )  
( -0.000397882 -0.00024468 0.000745754 )  
( -4.94201e-05 -0.000376357 0.000839429 )  
( -7.69626e-05 -0.000246426 0.000228725 )  
( -0.000307416 6.20189e-05 0.000712616 )  
( 0.000209001 0.000546465 0.00620487 )  
( 0.000691102 -0.000106769 0.000747545 )  
( 1.19687e-05 0.000317781 0.00121711 )  
( -0.00267693 0.00130896 0.0018046 )  
( 0.000211202 0.000521734 -0.000508937 )  
( 0.000396312 0.000591459 0.00184945 )  
( -0.000279746 -0.000195705 0.000118705 )  
( -1.3216e-05 -0.00034762 0.000997937 )  
( 0.0010484 0.00239142 2.41008e-06 )  
( -0.00026178 -0.00112094 -0.000165141 )  
( -0.000616025 9.64977e-05 0.000503093 )  
( -0.000280374 -0.000253671 0.000129762 )  
( 0.00397478 -0.000328765 0.00491456 )  
( 0.00138369 -0.00134829 -4.7952e-06 )  
( 0.000454947 -7.43485e-05 9.64814e-05 )  
( -0.00164686 0.00273424 0.00101502 )  
( -0.000516209 -0.000251003 0.0012249 )  
( -0.000648071 0.00017197 -6.06859e-05 )  
( -0.000149426 4.6876e-05 0.000623107 )  
( 0.000714178 0.000567745 -0.000194485 )  
( -0.000142697 -0.000129448 -4.94419e-06 )  
( 0.000743864 0.000654176 0.00396805 )  
( -0.000210427 -0.000118058 0.00213765 )  
( -0.00103861 0.0028109 7.8025e-05 )  
( 0.000299409 0.000106613 0.000183802 )  
( 0.000819411 0.000371763 0.000668868 )  
( -0.000322346 -0.000106466 0.000571326 )  
( -0.000939544 -0.000432332 6.79551e-05 )  
( 0.000131285 0.000651066 -4.15252e-06 )  
( -0.00412394 -0.00121965 0.000962064 )  
( 0.00101094 0.000756773 0.00187739 )  
( -0.000873733 0.000672589 0.000801907 )  
( -0.000174325 0.000591633 0.0012764 )  
( 0.000151187 0.000798266 -0.000362329 )  
( 0.000248723 -0.000214182 9.3086e-05 )  
( -0.000177837 -0.00022431 0.00077943 )  
( -0.000479676 -0.000352087 0.000540067 )  
( -0.000249206 -0.000929785 0.000207752 )  
( 0.00031479 0.000240919 -0.000224303 )  
( 0.00259233 -0.000111459 -0.000361174 )  
( -0.000465942 -0.000655433 8.02461e-05 )  
( -0.000227541 -0.000211581 -6.59327e-05 )  
( -0.00085044 0.000436849 0.000687804 )  
( 0.00039988 0.000226241 -5.4994e-05 )  
( -0.000724181 5.23131e-05 -0.000458717 )  
( 5.4932e-05 9.55534e-05 9.76776e-07 )  
( -0.000135238 0.00052533 0.0027018 )  
( 0.000141069 0.00029854 0.00629528 )  
( 0.000641547 0.00196025 -0.000841177 )  
( -0.000238627 -0.000318736 0.001198 )  
( -0.000278145 -0.00022807 0.000688823 )  
( -0.000651363 0.000870324 0.00141018 )  
( 0.000175884 2.42866e-06 0.00179445 )  
( -1.15001e-05 0.000304188 5.5913e-06 )  
( -0.00111984 -0.00036713 -0.00182772 )  
( -0.000547952 0.000223859 0.000426656 )  