/*--------------------------------*- C++ -*----------------------------------*\
| =========                 |                                                 |
| \\      /  F ield         | OpenFOAM: The Open Source CFD Toolbox           |
|  \\    /   O peration     | Version:  2506                                  |
|   \\  /    A nd           | Website:  www.openfoam.com                      |
|    \\/     M anipulation  |                                                 |
\*---------------------------------------------------------------------------*/
FoamFile
{
    version     2.0;
    format      ascii;
    arch        "LSB;label=32;scalar=64";
    class       volScalarField;
    location    "0.006";
    object      p;
}
// * * * * * * * * * * * * * * * * * * * * * * * * * * * * * * * * * * * * * //

dimensions      [0 2 -2 0 0 0 0];

internalField   nonuniform List<scalar> 
512
(
-0.316283
1.86435
2.41586
2.13146
0.779439
0.170589
0.792882
1.40433
0.0151724
-1.3012
-0.739533
0.0595886
0.0936203
-0.0648912
0.705908
1.0649
1.36577
1.919
1.59462
0.883998
1.13957
1.75806
2.34274
3.00142
3.59767
3.58518
2.12161
1.21311
1.40672
1.15626
-0.557771
-2.15603
-0.416282
1.10529
2.08245
1.95728
1.0795
0.854005
1.34234
0.805762
-0.755465
-1.24408
-0.425057
0.127456
-0.0323197
-0.26445
0.629198
1.12449
1.75352
2.18282
1.965
1.32482
0.894903
1.30327
2.12744
2.71322
3.32191
3.50285
2.27935
1.6819
1.64821
0.932188
-0.810258
-2.32748
-0.298997
1.37692
1.89404
1.61891
1.30101
1.38288
1.37385
0.475699
-0.797036
-1.37337
-1.01399
-0.350193
0.0969362
0.226281
0.902464
1.37565
1.63145
1.95631
1.68662
0.854707
1.5058
2.40647
2.28398
1.76212
2.51203
3.17113
2.51378
1.78878
1.73496
1.11328
-0.696667
-2.1494
0.0299221
1.45189
2.54826
1.94587
0.919472
1.17509
1.46245
0.799387
-0.997778
-2.21934
-1.63117
-0.585524
-0.460015
-0.0561572
1.3897
2.03467
1.10298
0.390364
1.30384
2.12406
2.29931
2.72552
2.21338
1.28654
2.01916
2.71938
1.69473
1.14016
1.87443
1.82589
0.178571
-1.17883
0.561025
1.666
2.43341
2.17346
1.55085
2.24377
2.04693
-0.0767881
-2.15927
-2.51976
-1.08922
-0.489624
-0.786165
0.0155842
1.53071
2.0345
0.874898
0.27645
1.48341
2.46008
2.59293
2.85542
2.0525
0.988467
1.45067
2.405
1.57436
0.689496
1.773
2.19232
0.925714
-0.156923
0.672558
2.50985
3.55493
2.61802
2.25325
2.23411
0.876423
-1.29228
-2.8474
-2.25993
-0.787189
-0.497017
-1.00667
-0.246744
1.00899
1.54525
1.47228
1.36838
2.04792
2.46421
2.35122
2.31001
1.49303
0.69197
0.946523
2.24309
1.92786
1.12861
1.31402
2.22744
1.66138
0.645353
1.27314
2.66667
3.35201
2.61463
1.64912
1.16788
0.335088
-1.56125
-2.87091
-2.06367
-0.727481
-0.567738
-1.12384
-0.412815
1.02233
1.55083
1.217
1.66268
2.77928
3.18263
2.1432
1.34485
0.587205
0.385649
1.45879
2.49914
2.05376
0.706632
0.487015
2.41203
3.44914
2.01326
1.29034
3.03318
4.34665
2.91458
0.961076
0.742367
0.605414
-1.31747
-2.6699
-1.78759
-0.463482
-0.46934
-1.13731
-0.442701
1.03712
1.45185
1.05834
1.84777
3.43073
3.62397
2.13936
0.732565
-0.354284
-0.436999
1.38418
2.73744
2.28149
1.19278
0.883357
1.54423
2.78178
2.26023
-0.0140007
1.37342
2.24959
1.97387
0.82179
0.792162
1.71506
1.70943
0.503179
-0.505065
-0.726016
-0.866028
-0.36033
0.0282273
0.421297
0.884717
1.25106
1.46538
1.45818
1.61027
1.60894
1.14435
1.95705
3.36198
3.50333
1.97398
1.29271
1.60277
1.97744
1.44604
-0.125268
-1.49467
-0.0230244
1.49588
1.74126
1.31819
0.945841
1.2877
2.05578
1.82508
0.577591
-0.528083
-0.765112
-0.925269
-0.398992
-0.0382935
-0.0184914
0.775636
1.75381
2.09063
1.60494
1.34367
1.32072
1.10371
1.48339
3.03816
3.3133
2.01495
1.59274
2.01629
2.03437
1.13603
-0.537265
-1.75492
0.0188446
1.56807
2.06224
1.37721
0.920954
1.49354
2.26595
1.74422
0.268633
-0.689351
-0.624303
-1.03193
-0.949179
-0.00372838
0.266962
0.903068
1.57436
1.62313
1.77998
1.81715
1.50612
1.6072
1.63598
1.62782
2.44149
2.71272
2.06013
1.86738
1.98683
1.33762
-0.363078
-1.62687
-0.00829401
1.30533
1.83536
1.50748
1.31503
2.30472
2.9466
1.69921
0.0436675
-1.60139
-1.97773
-1.04565
-0.615549
0.024105
0.695951
1.46825
1.79655
1.26647
1.41738
1.71593
2.14284
2.5671
1.81947
1.03657
1.8707
2.52829
1.50366
0.990918
2.01432
2.04784
0.46059
-0.930515
0.446244
1.37562
2.04079
2.10093
1.69931
2.66495
2.94721
0.980884
-1.41538
-2.12875
-1.32606
-0.730549
-0.697435
-0.0545939
0.839044
1.7335
1.61013
0.797721
1.13414
1.96845
2.46599
2.09385
1.12508
0.849876
1.6116
2.42896
1.63472
0.919378
1.92359
2.23167
1.05525
0.0640348
1.23985
2.46291
3.00735
2.22356
2.54874
2.88917
1.86293
-0.154737
-2.23974
-2.15482
-1.31869
-0.827998
-0.864818
-0.253932
0.834244
1.85089
1.53461
0.62403
1.4557
2.88829
2.57252
0.773263
-0.457087
0.446333
2.04022
3.12717
2.28258
1.42137
1.50205
1.93405
1.30045
0.891849
1.27923
2.32812
3.37712
3.42426
2.87751
1.92244
0.801564
-0.889667
-2.56366
-1.98229
-1.13029
-0.908268
-0.781874
-0.00958076
0.900744
1.19098
1.04977
1.44676
2.2037
3.11497
2.38551
0.451317
-0.824593
0.285934
2.1321
2.80236
2.14588
0.840952
0.488403
2.32855
3.19602
1.97964
1.20354
1.96179
3.43659
4.04257
3.11251
1.72597
0.552904
-1.48348
-2.67694
-1.65333
-0.660923
-0.765803
-0.816741
0.0255552
0.939982
1.17357
1.25143
1.81091
2.39264
2.98829
2.43461
0.819605
-0.864113
-0.82011
1.22104
2.74591
2.27818
1.23661
0.817106
1.73017
2.89753
2.15121
)
;

boundaryField
{
    wall
    {
        type            zeroGradient;
    }
    outlet
    {
        type            cyclic;
    }
    inlet
    {
        type            cyclic;
    }
    procBoundary0to1
    {
        type            processor;
        value           nonuniform List<scalar> 
256
(
0.619199
1.71406
2.14715
1.4093
0.525977
0.865825
1.55826
1.44127
1.05431
0.941291
-0.39158
-2.02005
-1.0064
0.837983
1.06368
0.397322
0.431899
0.870967
1.13428
1.63921
1.91606
1.5171
1.68234
3.03695
2.79622
1.52139
1.41752
1.97668
1.91166
1.2093
0.285413
-0.466698
0.679822
2.09733
2.30811
0.988994
0.42774
1.14682
1.9263
1.61854
0.991143
0.93155
-0.299994
-2.01603
-1.10963
0.497214
0.590338
0.439302
0.868358
1.36451
1.55635
1.35818
1.13507
1.08229
1.43401
2.80649
2.80972
1.47317
1.63151
2.20175
2.03274
0.949744
-0.0855358
-0.649496
0.432211
1.9173
2.2939
1.18325
0.808763
1.68256
2.22273
1.48449
0.461777
0.21498
-0.213179
-1.12316
-1.19046
-0.293066
0.155706
0.779511
1.17314
1.23673
1.57812
1.37683
1.49856
1.2546
1.21005
2.30458
2.72456
1.92963
1.38536
1.65549
2.03422
1.49782
0.264326
-0.671551
0.311333
1.35379
1.72641
1.53985
1.66012
2.1867
2.52841
1.35418
0.0444036
-0.909429
-0.966649
-0.812596
-0.485328
-0.261397
-0.0250931
0.870637
1.27789
1.20389
1.69432
2.29697
2.10306
1.72561
1.35004
1.19506
1.60994
1.69887
1.51473
1.4846
2.18647
2.05393
0.968982
-0.178215
1.5339
1.9363
1.8147
1.67655
2.3119
2.77989
2.15938
0.78073
-0.303916
-1.52157
-2.10475
-1.11994
0.141356
0.239564
0.165186
0.818081
1.0078
1.49039
1.86781
1.72753
2.08014
2.06456
1.11057
0.546695
1.32479
2.32508
1.88515
1.19117
2.07995
2.04245
0.849689
0.756365
1.63271
1.75171
2.63692
2.66701
2.65357
2.2669
1.29172
0.140616
-0.734351
-1.78962
-2.13878
-1.31629
-0.449821
0.0401755
0.554328
1.11895
1.25775
1.25107
1.58364
2.27081
2.29127
1.2491
0.285444
0.21636
1.4123
2.55725
1.94632
1.47596
1.82449
2.26642
1.66622
1.5866
1.10915
1.71656
3.55827
4.06928
2.38137
1.36517
0.950079
0.0649996
-0.999353
-1.89689
-1.98148
-1.41185
-0.463987
0.163621
0.451259
0.752429
1.29441
1.62144
1.89258
2.56863
2.33139
0.725357
-0.337884
0.282425
1.83325
2.51472
2.10956
0.955403
0.762276
2.34428
3.03399
2.05099
0.509629
1.97507
4.17922
3.78877
1.72966
1.04671
1.24613
0.158146
-1.41576
-1.88645
-1.32512
-0.94064
-0.527509
0.200307
0.755669
0.915657
1.23554
1.64301
2.02536
2.32174
2.11031
1.17965
-0.131578
-0.430022
1.10908
2.37848
2.02177
1.35935
0.808041
1.57372
3.04874
2.00432
)
;
    }
}


// ************************************************************************* //
