/*--------------------------------*- C++ -*----------------------------------*\
| =========                 |                                                 |
| \\      /  F ield         | OpenFOAM: The Open Source CFD Toolbox           |
|  \\    /   O peration     | Version:  2506                                  |
|   \\  /    A nd           | Website:  www.openfoam.com                      |
|    \\/     M anipulation  |                                                 |
\*---------------------------------------------------------------------------*/
FoamFile
{
    version     2.0;
    format      ascii;
    arch        "LSB;label=32;scalar=64";
    class       volScalarField;
    location    "0.03";
    object      p;
}
// * * * * * * * * * * * * * * * * * * * * * * * * * * * * * * * * * * * * * //

dimensions      [0 2 -2 0 0 0 0];

internalField   nonuniform List<scalar> 
1152
(
10.9987
11.0666
11.0286
10.935
10.9312
10.9837
11.0243
11.0133
10.9278
10.9726
11.0174
10.9248
10.8689
10.9127
10.9721
10.9739
9.60616
9.59402
9.60269
9.27555
9.62204
9.59506
9.66024
9.54591
9.65233
9.66285
9.61324
9.82094
9.53641
9.70207
9.68358
9.85103
7.57074
7.67297
7.80784
7.92249
7.61406
7.66428
7.72238
7.77175
7.73044
7.66936
7.61304
7.70604
7.66976
7.70004
7.59769
7.62068
5.47085
5.50421
5.59737
5.84921
5.62386
5.62866
5.58184
5.72267
5.48409
5.54554
5.64581
5.49988
5.55286
5.38479
5.43287
5.52289
3.1423
3.38331
3.57321
3.65057
3.34615
3.41322
3.59857
3.53283
3.20245
3.31944
3.31614
3.47814
3.11348
3.25881
3.35631
3.39743
1.40151
1.47144
1.56791
1.66241
1.36514
1.49169
1.54502
1.58793
1.32819
1.46439
1.62582
1.62553
1.40114
1.498
1.67001
1.41501
1.01325
1.01306
1.01208
1.01289
1.01596
1.01487
1.00804
1.00785
1.0144
1.01373
1.0135
1.0141
1.01703
1.01181
1.00848
1.01172
1.00564
1.00509
1.00411
1.00261
1.00541
1.00496
1.00418
1.00316
1.00518
1.00494
1.00456
1.00401
1.00488
1.00479
1.00471
1.00461
1.00857
1.00829
1.00788
1.00772
1.00864
1.00838
1.00779
1.00776
1.00872
1.00848
1.00819
1.00812
1.00883
1.00849
1.00815
1.00822
1.00694
1.00675
1.0065
1.0063
1.00691
1.00675
1.00652
1.00642
1.00692
1.0068
1.00666
1.00659
1.00691
1.00683
1.00673
1.00673
1.0067
1.0066
1.00648
1.0064
1.00668
1.0066
1.0065
1.00644
1.0067
1.00663
1.00656
1.00651
1.00672
1.00666
1.0066
1.00658
1.00619
1.00614
1.00608
1.00604
1.00617
1.00613
1.00608
1.00605
1.00617
1.00614
1.0061
1.00608
1.00618
1.00616
1.00613
1.00611
1.0057
1.00568
1.00565
1.00563
1.00569
1.00567
1.00564
1.00563
1.00569
1.00567
1.00565
1.00563
1.00569
1.00568
1.00566
1.00565
1.00522
1.0052
1.00519
1.00518
1.00521
1.0052
1.00518
1.00517
1.00521
1.00519
1.00518
1.00517
1.00521
1.0052
1.00519
1.00518
1.00473
1.00472
1.00471
1.00471
1.00472
1.00471
1.00471
1.0047
1.00472
1.00471
1.0047
1.0047
1.00472
1.00471
1.0047
1.0047
1.00424
1.00423
1.00423
1.00422
1.00423
1.00423
1.00422
1.00422
1.00423
1.00422
1.00422
1.00421
1.00422
1.00422
1.00421
1.00421
1.00374
1.00374
1.00373
1.00373
1.00374
1.00373
1.00373
1.00373
1.00373
1.00373
1.00373
1.00372
1.00373
1.00373
1.00372
1.00372
1.00324
1.00324
1.00324
1.00324
1.00324
1.00324
1.00324
1.00323
1.00324
1.00324
1.00323
1.00323
1.00323
1.00323
1.00323
1.00323
1.00275
1.00274
1.00274
1.00274
1.00274
1.00274
1.00274
1.00274
1.00274
1.00274
1.00274
1.00274
1.00274
1.00274
1.00274
1.00273
1.00225
1.00225
1.00224
1.00224
1.00225
1.00224
1.00224
1.00224
1.00224
1.00224
1.00224
1.00224
1.00224
1.00224
1.00224
1.00224
1.00175
1.00175
1.00175
1.00175
1.00175
1.00175
1.00174
1.00174
1.00175
1.00174
1.00174
1.00174
1.00174
1.00174
1.00174
1.00174
1.00125
1.00125
1.00125
1.00125
1.00125
1.00125
1.00125
1.00125
1.00125
1.00125
1.00125
1.00125
1.00125
1.00125
1.00125
1.00124
1.00075
1.00075
1.00075
1.00075
1.00075
1.00075
1.00075
1.00075
1.00075
1.00075
1.00075
1.00075
1.00075
1.00075
1.00075
1.00075
1.00025
1.00025
1.00025
1.00025
1.00025
1.00025
1.00025
1.00025
1.00025
1.00025
1.00025
1.00025
1.00025
1.00025
1.00025
1.00025
10.8128
10.9282
10.9051
10.9796
10.8209
10.9172
10.9426
10.973
10.8006
10.8097
10.8593
10.9254
10.7527
10.8487
10.8152
10.9325
9.60485
9.58431
9.81325
9.30966
9.5453
9.54496
9.72445
9.39881
9.51734
9.53891
9.54787
9.65253
9.52367
9.45323
9.60557
9.64
7.70186
7.59071
7.59609
7.45907
7.46671
7.34749
7.46999
7.45354
7.42237
7.51527
7.44168
7.44629
7.44158
7.5033
7.52397
7.25831
5.29264
5.41204
5.37281
5.63217
5.44705
5.41922
5.36571
5.61418
5.48936
5.34085
5.32255
5.21547
5.4403
5.23076
5.45194
5.18498
3.28293
3.33891
3.35154
3.46535
3.35341
3.46136
3.2918
3.05608
3.46369
3.41166
3.28528
3.10746
3.44968
3.362
3.32803
2.91699
1.29552
1.36308
1.41472
1.32626
1.36403
1.39728
1.2843
1.36304
1.40189
1.40229
1.42536
1.21944
1.45352
1.32986
1.29816
1.19676
1.01992
1.01303
1.01389
1.01274
1.01414
1.01164
1.01099
1.01316
1.0092
1.01456
1.01827
1.02054
1.01073
1.01351
1.01182
1.01833
1.00482
1.00496
1.00503
1.00513
1.0048
1.00508
1.00539
1.00562
1.00479
1.00527
1.00593
1.00694
1.00499
1.0055
1.00569
1.00756
1.009
1.00878
1.00864
1.00871
1.00885
1.00882
1.00878
1.009
1.00867
1.00898
1.00909
1.00916
1.00868
1.00908
1.00899
1.00976
1.00692
1.00692
1.0069
1.00694
1.0069
1.00698
1.007
1.00709
1.00687
1.00705
1.00711
1.00723
1.00683
1.00706
1.00707
1.00737
1.00676
1.00673
1.00668
1.00669
1.00677
1.00677
1.00673
1.00677
1.00677
1.00681
1.00677
1.00684
1.00678
1.00684
1.0068
1.0069
1.00619
1.00618
1.00616
1.00616
1.00619
1.0062
1.00619
1.0062
1.00619
1.00622
1.00621
1.00624
1.00619
1.00623
1.00622
1.00626
1.0057
1.00569
1.00568
1.00567
1.00571
1.0057
1.00569
1.00569
1.00571
1.00571
1.0057
1.00571
1.00571
1.00572
1.00571
1.00572
1.00521
1.0052
1.00519
1.00519
1.00521
1.00521
1.0052
1.0052
1.00521
1.00521
1.0052
1.00521
1.00521
1.00521
1.00521
1.00521
1.00472
1.00471
1.0047
1.0047
1.00472
1.00471
1.00471
1.0047
1.00472
1.00471
1.00471
1.00471
1.00472
1.00472
1.00471
1.00471
1.00422
1.00422
1.00421
1.00421
1.00422
1.00422
1.00421
1.00421
1.00422
1.00422
1.00422
1.00421
1.00422
1.00422
1.00422
1.00421
1.00373
1.00373
1.00372
1.00372
1.00373
1.00373
1.00372
1.00372
1.00373
1.00373
1.00372
1.00372
1.00373
1.00373
1.00372
1.00372
1.00323
1.00323
1.00323
1.00323
1.00323
1.00323
1.00323
1.00323
1.00323
1.00323
1.00323
1.00323
1.00323
1.00323
1.00323
1.00323
1.00274
1.00274
1.00273
1.00273
1.00274
1.00274
1.00273
1.00273
1.00274
1.00274
1.00273
1.00273
1.00274
1.00274
1.00273
1.00273
1.00224
1.00224
1.00224
1.00224
1.00224
1.00224
1.00224
1.00224
1.00224
1.00224
1.00224
1.00224
1.00224
1.00224
1.00224
1.00224
1.00174
1.00174
1.00174
1.00174
1.00174
1.00174
1.00174
1.00174
1.00174
1.00174
1.00174
1.00174
1.00174
1.00174
1.00174
1.00174
1.00125
1.00125
1.00124
1.00124
1.00125
1.00124
1.00124
1.00124
1.00125
1.00124
1.00124
1.00124
1.00125
1.00124
1.00124
1.00124
1.00075
1.00075
1.00075
1.00075
1.00075
1.00075
1.00075
1.00075
1.00075
1.00075
1.00075
1.00075
1.00075
1.00075
1.00075
1.00075
1.00025
1.00025
1.00025
1.00025
1.00025
1.00025
1.00025
1.00025
1.00025
1.00025
1.00025
1.00025
1.00025
1.00025
1.00025
1.00025
10.9212
10.8471
11.0164
10.9731
10.8408
10.8461
10.9125
10.9114
10.6488
10.754
10.8365
10.8375
10.7815
10.8156
10.7951
10.8358
9.33197
9.24582
9.46683
9.54029
9.43855
9.41647
9.5024
9.71232
9.34705
9.53919
9.56816
9.67693
9.40657
9.37181
9.5942
9.59615
7.26461
7.30179
7.32232
7.41077
7.62137
7.37515
7.42225
7.61393
7.55325
7.35863
7.53249
7.54514
7.43328
7.47875
7.48066
7.61027
5.28398
5.5536
5.43954
5.45601
5.20267
5.4356
5.36753
5.35208
5.58765
5.38799
5.42487
5.31897
5.45704
5.53184
5.44516
5.41551
3.10838
2.99241
3.21716
3.21158
3.12845
3.21422
3.28585
3.27656
3.46551
3.39049
3.28761
3.31702
3.54167
3.49554
3.47066
3.35217
1.28285
1.21558
1.18332
1.24302
1.25574
1.38928
1.3168
1.36921
1.32333
1.42605
1.29721
1.40539
1.49429
1.42877
1.3223
1.25512
1.0141
1.01633
1.01069
1.01672
1.01174
1.00993
1.01379
1.00771
1.01035
1.01344
1.01244
1.01275
1.01181
1.00538
1.00887
1.01184
1.00632
1.00693
1.00597
1.00628
1.00615
1.00531
1.00552
1.00515
1.00597
1.00551
1.00547
1.00531
1.00525
1.00502
1.00493
1.00488
1.00909
1.00916
1.00876
1.00881
1.00846
1.00848
1.00867
1.00841
1.00877
1.00882
1.00879
1.00871
1.00848
1.00834
1.0085
1.00869
1.00722
1.0073
1.00714
1.00708
1.00688
1.00692
1.00696
1.00689
1.00689
1.00698
1.00696
1.00694
1.00672
1.00675
1.0068
1.00684
1.0069
1.00688
1.00682
1.00677
1.00675
1.00674
1.00674
1.0067
1.0068
1.00679
1.00677
1.00674
1.00674
1.00672
1.00673
1.00674
1.0063
1.00629
1.00626
1.00623
1.00622
1.00622
1.00622
1.00619
1.00623
1.00623
1.00622
1.0062
1.00617
1.00618
1.00618
1.00618
1.00577
1.00576
1.00575
1.00573
1.00573
1.00573
1.00572
1.00571
1.00573
1.00573
1.00572
1.00571
1.00571
1.00571
1.00571
1.0057
1.00526
1.00525
1.00524
1.00523
1.00523
1.00523
1.00523
1.00522
1.00523
1.00523
1.00522
1.00522
1.00522
1.00521
1.00521
1.00521
1.00475
1.00475
1.00474
1.00474
1.00474
1.00474
1.00473
1.00473
1.00473
1.00473
1.00473
1.00472
1.00472
1.00472
1.00472
1.00472
1.00425
1.00425
1.00424
1.00424
1.00424
1.00424
1.00424
1.00423
1.00423
1.00423
1.00423
1.00423
1.00423
1.00423
1.00423
1.00423
1.00375
1.00375
1.00375
1.00374
1.00374
1.00374
1.00374
1.00374
1.00374
1.00374
1.00374
1.00373
1.00373
1.00373
1.00373
1.00373
1.00325
1.00325
1.00325
1.00325
1.00324
1.00324
1.00324
1.00324
1.00324
1.00324
1.00324
1.00324
1.00324
1.00324
1.00324
1.00324
1.00275
1.00275
1.00275
1.00275
1.00275
1.00275
1.00274
1.00274
1.00274
1.00274
1.00274
1.00274
1.00274
1.00274
1.00274
1.00274
1.00225
1.00225
1.00225
1.00225
1.00225
1.00225
1.00225
1.00225
1.00224
1.00224
1.00224
1.00224
1.00224
1.00224
1.00224
1.00224
1.00175
1.00175
1.00175
1.00175
1.00175
1.00175
1.00175
1.00175
1.00175
1.00175
1.00175
1.00175
1.00174
1.00174
1.00174
1.00174
1.00125
1.00125
1.00125
1.00125
1.00125
1.00125
1.00125
1.00125
1.00125
1.00125
1.00125
1.00125
1.00125
1.00125
1.00125
1.00125
1.00075
1.00075
1.00075
1.00075
1.00075
1.00075
1.00075
1.00075
1.00075
1.00075
1.00075
1.00075
1.00075
1.00075
1.00075
1.00075
1.00025
1.00025
1.00025
1.00025
1.00025
1.00025
1.00025
1.00025
1.00025
1.00025
1.00025
1.00025
1.00025
1.00025
1.00025
1.00025
)
;

boundaryField
{
    inlet
    {
        type            zeroGradient;
    }
    outlet
    {
        type            fixedValue;
        value           uniform 1;
    }
    wall
    {
        type            zeroGradient;
    }
    procBoundary2to0
    {
        type            processor;
        value           nonuniform List<scalar> 
192
(
10.9883
10.9377
10.9686
11.0079
9.69793
9.83051
9.79834
9.74994
7.67495
7.55954
7.65788
7.3583
5.16541
5.61183
5.62976
5.71504
3.18011
3.4701
3.576
3.98816
1.31618
1.47855
1.64526
1.65682
1.01854
1.01156
1.00583
1.01184
1.00612
1.0052
1.00428
1.00239
1.0088
1.00836
1.00757
1.00747
1.007
1.00679
1.00645
1.00624
1.00672
1.00663
1.0065
1.00643
1.0062
1.00616
1.0061
1.00607
1.00572
1.0057
1.00567
1.00565
1.00523
1.00522
1.0052
1.00519
1.00474
1.00473
1.00472
1.00472
1.00424
1.00424
1.00423
1.00423
1.00375
1.00374
1.00374
1.00374
1.00325
1.00325
1.00324
1.00324
1.00275
1.00275
1.00275
1.00274
1.00225
1.00225
1.00225
1.00225
1.00175
1.00175
1.00175
1.00175
1.00125
1.00125
1.00125
1.00125
1.00075
1.00075
1.00075
1.00075
1.00025
1.00025
1.00025
1.00025
11.0823
11.0073
10.9615
10.9611
9.48252
9.57191
9.74597
9.64723
7.13184
7.5243
7.55191
7.5058
5.16028
5.13449
5.12839
5.40068
3.21455
3.06029
3.06075
3.13487
1.37869
1.22269
1.17836
1.23777
1.01815
1.01515
1.01354
1.01313
1.00629
1.00627
1.00635
1.0061
1.00908
1.00892
1.00882
1.0087
1.00721
1.0072
1.00715
1.00706
1.00687
1.00685
1.00682
1.00677
1.00629
1.00629
1.00627
1.00624
1.00577
1.00577
1.00576
1.00574
1.00526
1.00526
1.00525
1.00524
1.00476
1.00475
1.00475
1.00475
1.00425
1.00425
1.00425
1.00425
1.00375
1.00375
1.00375
1.00375
1.00325
1.00325
1.00325
1.00325
1.00275
1.00275
1.00275
1.00275
1.00225
1.00225
1.00225
1.00225
1.00175
1.00175
1.00175
1.00175
1.00125
1.00125
1.00125
1.00125
1.00075
1.00075
1.00075
1.00075
1.00025
1.00025
1.00025
1.00025
)
;
    }
    procBoundary2to3
    {
        type            processor;
        value           nonuniform List<scalar> 
192
(
10.8132
10.89
11.0262
10.9692
9.74735
10.0231
9.59968
9.62319
8.10297
7.70796
7.56798
7.60318
5.90971
5.52821
5.52552
5.43327
3.24149
3.24142
3.48985
3.26434
1.81844
1.64859
1.53389
1.63192
0.999804
1.01286
1.01142
1.00948
1.00052
1.00256
1.00357
1.00488
1.00689
1.00781
1.00791
1.00783
1.00606
1.00636
1.00652
1.00663
1.00634
1.0064
1.00647
1.00654
1.00602
1.00603
1.00605
1.00609
1.00562
1.00561
1.00562
1.00564
1.00517
1.00516
1.00517
1.00517
1.0047
1.00469
1.00469
1.00469
1.00422
1.00421
1.00421
1.00421
1.00373
1.00372
1.00372
1.00372
1.00324
1.00323
1.00323
1.00323
1.00274
1.00274
1.00273
1.00273
1.00224
1.00224
1.00224
1.00224
1.00174
1.00174
1.00174
1.00174
1.00125
1.00125
1.00124
1.00124
1.00075
1.00075
1.00075
1.00075
1.00025
1.00025
1.00025
1.00025
10.9225
10.9587
10.869
10.927
9.70105
9.59269
9.65266
9.4947
7.65066
7.59661
7.45564
7.81891
5.27352
5.0848
5.26543
5.32062
3.07068
3.14407
3.1265
3.13774
1.56963
1.23763
1.27726
1.20816
1.01045
1.02543
1.01429
1.01305
1.00519
1.00628
1.00635
1.00664
1.00839
1.00916
1.00903
1.00917
1.00683
1.00708
1.00712
1.00715
1.00663
1.00672
1.00677
1.00681
1.00614
1.00618
1.00621
1.00622
1.00566
1.00568
1.00569
1.0057
1.00518
1.00519
1.0052
1.0052
1.00469
1.0047
1.0047
1.0047
1.00421
1.00421
1.00421
1.00421
1.00372
1.00372
1.00372
1.00372
1.00322
1.00322
1.00322
1.00322
1.00273
1.00273
1.00273
1.00273
1.00224
1.00224
1.00223
1.00223
1.00174
1.00174
1.00174
1.00174
1.00124
1.00124
1.00124
1.00124
1.00075
1.00075
1.00075
1.00075
1.00025
1.00025
1.00025
1.00025
)
;
    }
}


// ************************************************************************* //
