/*--------------------------------*- C++ -*----------------------------------*\
| =========                 |                                                 |
| \\      /  F ield         | OpenFOAM: The Open Source CFD Toolbox           |
|  \\    /   O peration     | Version:  2506                                  |
|   \\  /    A nd           | Website:  www.openfoam.com                      |
|    \\/     M anipulation  |                                                 |
\*---------------------------------------------------------------------------*/
FoamFile
{
    version     2.0;
    format      ascii;
    arch        "LSB;label=32;scalar=64";
    class       surfaceScalarField;
    location    "0.03";
    object      phi;
}
// * * * * * * * * * * * * * * * * * * * * * * * * * * * * * * * * * * * * * //

dimensions      [0 3 -1 0 0 0 0];

oriented        oriented;

internalField   nonuniform List<scalar> 
3120
(
-1.1925e-09
2.9288e-09
1.96395e-08
7.49262e-10
1.00468e-09
2.32261e-09
1.01719e-08
2.44849e-09
-2.37968e-10
1.87803e-08
-1.98388e-09
2.02991e-08
-2.64716e-09
3.79613e-10
2.6653e-08
8.02154e-10
-1.31989e-09
5.591e-10
2.2685e-08
4.19562e-10
1.37026e-10
2.01787e-08
3.16609e-09
9.25173e-09
-1.69345e-09
2.32321e-09
1.74455e-08
4.54199e-09
-1.62253e-09
2.6199e-09
2.0064e-08
5.09254e-09
1.32372e-09
1.43269e-08
-3.21635e-09
3.84419e-08
-1.93376e-09
2.09297e-08
4.14842e-09
9.27704e-10
-2.62842e-09
2.63364e-08
-7.70285e-10
-1.71045e-10
1.71874e-08
3.87169e-09
1.89728e-08
-3.74291e-10
3.10097e-10
-2.30696e-10
2.09656e-08
8.6968e-10
8.6387e-11
-7.68809e-11
1.25065e-08
6.04545e-09
-1.2101e-09
1.77176e-08
-3.93867e-09
5.52372e-08
4.57033e-10
-4.32322e-10
2.78446e-08
-1.44707e-09
-1.17261e-09
-1.1305e-09
2.53682e-08
2.2947e-09
5.48548e-10
1.49527e-08
-6.79076e-09
2.18971e-08
-2.03463e-10
1.71482e-09
1.65021e-08
-1.00034e-09
4.02893e-10
-7.37405e-10
1.90645e-08
-3.46862e-09
-6.75909e-10
1.94229e-08
-8.42698e-10
2.59598e-08
-3.47486e-09
2.98922e-08
-2.39723e-09
-1.37558e-09
1.05986e-10
1.89428e-08
3.07535e-09
-1.92598e-09
2.05703e-08
-2.02692e-09
9.05187e-09
2.98693e-09
-9.0394e-10
-1.15006e-09
2.0727e-08
3.37077e-09
-1.60949e-09
4.79109e-11
1.07983e-08
-3.86468e-09
5.08854e-10
1.79216e-08
4.66003e-09
3.90386e-08
-1.33635e-09
-2.94434e-09
3.10932e-08
-1.17982e-10
-4.95137e-10
-2.76142e-10
2.48511e-08
-7.12604e-10
1.22611e-09
1.44529e-08
9.9069e-10
2.4877e-08
1.04824e-09
1.67857e-09
9.6442e-09
1.18675e-09
1.42435e-09
-3.66699e-10
1.8779e-08
-1.84253e-09
1.24981e-10
2.37909e-08
6.48526e-10
2.24146e-08
-1.08308e-09
3.08071e-08
-3.53537e-11
1.88211e-09
1.14306e-09
1.44172e-08
1.93267e-09
-4.81789e-10
2.2378e-08
-5.78227e-11
5.12691e-09
4.05192e-09
5.01231e-10
-3.29424e-09
1.87637e-08
1.03691e-10
-2.7005e-10
-1.03783e-09
1.38265e-08
-2.84196e-09
-9.03229e-11
2.089e-08
1.17331e-09
3.03081e-08
1.90088e-10
1.0305e-09
2.36543e-08
2.92405e-09
9.08552e-10
9.71375e-10
2.21234e-08
-2.43066e-09
-1.24937e-09
1.89511e-08
3.73589e-09
1.65022e-08
-2.54772e-10
-4.91438e-10
7.96208e-09
3.45883e-09
-1.22116e-09
2.09361e-09
1.86231e-08
2.31188e-09
2.78062e-09
1.62278e-08
-1.26855e-09
3.05211e-08
1.77277e-09
2.27895e-08
4.0263e-09
1.72702e-09
-8.07561e-10
1.95573e-08
-4.66155e-10
-9.91583e-10
2.48598e-08
4.82827e-10
4.28537e-09
-2.03373e-09
-1.86958e-09
-2.30612e-09
2.44636e-08
-8.92034e-10
-3.63315e-09
-7.25936e-10
1.72592e-08
-1.36688e-09
-7.56125e-10
1.93363e-08
1.98806e-09
2.37568e-08
-1.28116e-09
1.74326e-09
1.97393e-08
1.14671e-09
-3.08096e-09
1.62878e-09
2.15684e-08
7.01306e-10
2.98673e-09
1.1426e-08
5.08434e-10
1.53924e-08
-1.3577e-09
1.28752e-09
1.26729e-08
-2.89735e-09
1.44656e-10
8.50622e-10
1.78989e-08
-3.24754e-09
-1.00061e-09
2.36073e-08
9.96169e-10
2.72953e-08
-2.64599e-09
3.92606e-08
-7.59764e-09
-4.93991e-09
-2.02317e-09
2.17604e-08
-1.97532e-09
-6.81406e-10
2.27987e-08
-2.81307e-10
4.0385e-09
-7.32302e-10
-1.89639e-09
9.38494e-10
1.78183e-08
5.34145e-09
-9.97604e-10
-2.61011e-10
1.68701e-08
-3.66741e-10
1.33171e-10
1.975e-08
3.45308e-10
2.74999e-08
-2.03619e-09
4.85301e-10
2.20215e-08
2.07201e-10
-5.56843e-10
3.56972e-10
1.94711e-08
-5.26291e-10
-1.76951e-09
1.32981e-08
-7.76267e-10
1.7714e-08
-1.99996e-09
-2.3361e-09
1.96431e-08
-2.14892e-09
-4.20577e-09
-7.24853e-10
2.11865e-08
-1.30437e-10
-1.23971e-09
1.90022e-08
2.14179e-09
2.31785e-08
-3.92272e-09
3.39609e-08
2.8731e-09
4.0132e-09
-3.88308e-09
1.88209e-08
2.17502e-09
2.46062e-09
1.14617e-08
3.7536e-09
1.367e-08
2.78713e-10
-1.20767e-09
2.59623e-09
1.74852e-08
-7.20378e-11
-9.19422e-10
3.56128e-10
1.6835e-08
7.27768e-11
1.03124e-10
1.72887e-08
4.07584e-10
2.541e-08
3.55047e-10
2.92567e-09
2.16376e-08
-3.0063e-10
3.42783e-10
-3.0951e-12
1.98425e-08
-1.31722e-10
-2.05109e-10
1.40807e-08
4.4735e-10
1.80895e-08
-1.72577e-10
-5.86133e-10
2.28541e-08
4.73363e-10
-3.00459e-10
1.42359e-10
2.11689e-08
-1.20104e-09
7.08883e-10
1.89887e-08
1.58298e-09
2.16334e-08
4.95028e-10
3.00727e-08
-4.97253e-10
3.30411e-09
-1.05435e-11
1.938e-08
8.88096e-11
1.19723e-10
1.41388e-08
-2.09855e-09
1.66584e-08
-1.51016e-12
3.15147e-09
1.01584e-09
1.86951e-08
-4.61998e-09
2.60978e-09
4.64096e-11
1.73851e-08
2.56276e-09
-5.66005e-10
1.74445e-08
-1.30181e-09
2.61856e-08
1.74864e-09
6.21457e-10
2.09475e-08
-6.64215e-10
1.97987e-09
-2.30058e-10
1.98875e-08
1.03213e-09
-1.1326e-09
1.55948e-08
-1.78335e-09
2.01594e-08
7.5603e-10
7.69234e-11
2.25092e-08
1.33406e-10
7.9086e-10
-3.15336e-10
2.12193e-08
-1.51831e-10
-1.01572e-09
1.98143e-08
-1.6048e-09
2.21e-08
7.36416e-11
2.80943e-08
5.04129e-10
1.47745e-09
-2.62968e-10
2.04042e-08
-1.00298e-09
-1.63354e-09
1.61485e-08
-1.65501e-09
1.72795e-08
-1.22974e-09
8.24803e-10
-8.72546e-10
2.12979e-08
-1.40777e-09
-7.51706e-10
-8.11863e-10
2.04278e-08
-3.62345e-09
-1.64372e-10
2.03443e-08
2.34801e-09
2.35479e-08
6.77433e-10
-2.34751e-09
2.1621e-08
1.24047e-10
3.70171e-10
-1.41857e-09
2.08014e-08
-2.84163e-09
-9.71857e-10
1.96135e-08
9.60826e-10
2.17606e-08
1.17147e-09
-2.7072e-09
2.24175e-08
-7.20134e-10
6.57085e-10
-1.09804e-09
2.14133e-08
-7.74828e-10
-5.38683e-10
2.08127e-08
9.56725e-10
2.17413e-08
2.73043e-09
2.37465e-08
-1.55919e-09
4.69433e-10
2.51311e-09
2.13083e-08
-1.78469e-09
4.89963e-10
1.9887e-08
-2.25404e-09
2.02696e-08
-1.79068e-09
5.87786e-10
9.47923e-11
2.20027e-08
-7.72295e-10
-1.95973e-10
6.18392e-11
2.16774e-08
-1.46404e-09
1.87972e-10
2.16588e-08
8.82643e-10
2.28826e-08
4.37747e-10
-6.01198e-10
2.19703e-08
-9.09227e-11
5.48809e-11
-3.95747e-10
2.16421e-08
-1.27408e-09
-2.40985e-10
2.13716e-08
4.40016e-10
2.22834e-08
5.82268e-10
-6.2888e-10
2.23225e-08
-4.59423e-10
1.9021e-10
-4.80318e-10
2.18901e-08
-5.27502e-10
-4.01062e-10
2.16906e-08
2.46073e-11
2.21068e-08
6.65173e-10
2.26315e-08
-3.99224e-10
2.20292e-10
5.77084e-10
2.18855e-08
-9.69166e-10
-9.27344e-11
2.14487e-08
-1.29278e-09
2.1628e-08
-1.27649e-09
2.13532e-10
3.37308e-11
2.23311e-08
-2.79089e-10
-1.03966e-10
6.99728e-11
2.22157e-08
-6.03616e-10
1.20159e-10
2.22198e-08
3.36326e-10
2.26619e-08
1.86114e-10
-3.83634e-10
2.2267e-08
-6.53162e-11
-2.01041e-11
-2.34721e-10
2.21532e-08
-5.23004e-10
-1.07922e-10
2.21028e-08
1.63281e-10
2.24531e-08
3.50107e-10
-4.91296e-10
2.24101e-08
-3.29937e-10
1.26696e-10
-3.72265e-10
2.22512e-08
-2.21247e-10
-2.58469e-10
2.21893e-08
-9.59013e-11
2.23682e-08
4.60581e-10
2.24773e-08
-5.43749e-10
-2.53712e-10
3.18614e-10
2.22757e-08
-6.20317e-10
-6.41049e-12
2.21442e-08
-6.28774e-10
2.2241e-08
-6.50939e-10
1.04154e-10
6.42661e-11
2.24599e-08
-1.45691e-10
-2.55053e-11
5.94605e-11
2.24282e-08
-2.08982e-10
6.43541e-11
2.24369e-08
1.21362e-10
2.25935e-08
7.87824e-11
-1.15095e-10
2.24158e-08
-4.8129e-11
-1.15971e-11
-8.58577e-11
2.2389e-08
-1.86039e-10
-4.62691e-11
2.2388e-08
4.17197e-11
2.25183e-08
1.31421e-10
-1.56119e-10
2.24604e-08
-1.40664e-10
4.09847e-11
-1.64738e-10
2.24206e-08
-8.44928e-11
-1.40587e-10
2.24092e-08
-9.6508e-11
2.24876e-08
1.12552e-10
2.2448e-08
-1.97994e-10
-4.12573e-11
8.09981e-11
2.24236e-08
-2.80968e-10
-1.02821e-11
2.24016e-08
-3.06629e-10
2.24549e-08
-3.36895e-10
6.14239e-11
3.27213e-11
2.25199e-08
-7.87086e-11
1.25393e-11
2.62299e-11
2.25158e-08
-5.42557e-11
2.40209e-11
2.25226e-08
3.80651e-11
2.25772e-08
4.76101e-11
-5.41925e-11
2.24931e-08
-3.80421e-11
1.19749e-11
-4.4204e-11
2.24951e-08
-4.8628e-11
-2.90373e-11
2.25018e-08
-9.32465e-13
2.25501e-08
6.88714e-11
-8.78704e-11
2.24984e-08
-7.312e-11
3.41888e-11
-9.08841e-11
2.2502e-08
-1.25961e-11
-7.88481e-11
2.25058e-08
-6.30875e-11
2.25391e-08
6.06025e-11
2.24649e-08
-1.22988e-10
-4.23203e-11
4.65707e-11
2.24929e-08
-1.46103e-10
1.72459e-11
2.2501e-08
-1.48812e-10
2.25291e-08
-1.63217e-10
4.03733e-11
1.54529e-11
2.25453e-08
-4.61441e-11
2.25291e-11
9.01518e-12
2.2551e-08
-6.79501e-13
6.31478e-12
2.25553e-08
8.40563e-12
2.25733e-08
3.24407e-11
-2.38383e-11
2.25284e-08
-2.83997e-11
1.97722e-11
-2.29223e-11
2.25398e-08
2.14852e-13
-1.81156e-11
2.25459e-08
-9.38932e-12
2.25632e-08
3.87281e-11
-4.24387e-11
2.25173e-08
-3.91376e-11
2.77408e-11
-4.67203e-11
2.25367e-08
1.35746e-11
-4.27946e-11
2.25447e-08
-3.69427e-11
2.25585e-08
3.18565e-11
2.24732e-08
-6.00027e-11
-2.25952e-11
3.02532e-11
2.25188e-08
-7.10834e-11
2.30939e-11
2.25358e-08
-7.05029e-11
2.25505e-08
-7.89793e-11
2.9013e-11
5.83645e-12
2.25551e-08
-2.9609e-11
2.31815e-11
2.15357e-12
2.25643e-08
1.5695e-11
-2.45089e-13
2.25671e-08
-3.42229e-13
2.25723e-08
2.42731e-11
-1.17403e-11
2.25432e-08
-2.15444e-11
2.10786e-11
-1.27584e-11
2.25579e-08
1.56293e-11
-1.1631e-11
2.25629e-08
-8.52662e-12
2.25685e-08
2.53721e-11
-2.13932e-11
2.25255e-08
-2.38617e-11
2.31095e-11
-2.4298e-11
2.25505e-08
1.99283e-11
-2.32417e-11
2.25595e-08
-2.1138e-11
2.25652e-08
2.12767e-11
2.24763e-08
-2.99236e-11
-1.57717e-11
2.35266e-11
2.25272e-08
-3.49964e-11
2.4081e-11
2.25469e-08
-3.48355e-11
2.25556e-08
-3.84224e-11
2.14031e-11
1.78856e-12
2.25581e-08
-2.03414e-11
2.01971e-11
-9.88835e-13
2.25689e-08
1.81077e-11
-2.58238e-12
2.25712e-08
-2.85521e-12
2.25721e-08
1.88739e-11
-5.99496e-12
2.25486e-08
-1.64317e-11
1.88322e-11
-7.38818e-12
2.25645e-08
1.79564e-11
-7.49684e-12
2.25689e-08
-6.46248e-12
2.25704e-08
1.83212e-11
-1.09279e-11
2.25281e-08
-1.59401e-11
1.90816e-11
-1.27739e-11
2.25552e-08
1.95204e-11
-1.27375e-11
2.25644e-08
-1.21186e-11
2.25672e-08
1.58578e-11
2.24762e-08
-1.46451e-11
-1.19287e-11
1.87837e-11
2.25289e-08
-1.7272e-11
2.14508e-11
2.25493e-08
-1.7725e-11
2.2556e-08
-1.90675e-11
1.61654e-11
-2.19479e-13
2.25583e-08
-1.44477e-11
1.65257e-11
-1.84404e-12
2.25701e-08
1.62297e-11
-2.81658e-12
2.25724e-08
-3.01648e-12
2.2572e-08
1.46128e-11
-3.37181e-12
2.25499e-08
-1.25722e-11
1.55822e-11
-4.48057e-12
2.25663e-08
1.60822e-11
-4.86977e-12
2.25707e-08
-4.51595e-12
2.2571e-08
1.38088e-11
-5.63132e-12
2.25282e-08
-1.15311e-11
1.53124e-11
-6.80888e-12
2.25561e-08
1.65846e-11
-7.19779e-12
2.25656e-08
-6.94451e-12
2.25676e-08
1.22848e-11
2.24749e-08
-7.07051e-12
-9.35834e-12
1.48157e-11
2.25282e-08
-8.53751e-12
1.70603e-11
2.2549e-08
-9.08098e-12
2.25552e-08
-9.8681e-12
1.19376e-11
-7.81317e-13
2.25576e-08
-1.0465e-11
1.28178e-11
-1.8981e-12
2.25699e-08
1.31299e-11
-2.46753e-12
2.25725e-08
-2.57732e-12
2.25719e-08
1.13063e-11
-2.00799e-12
2.25495e-08
-9.50139e-12
1.23241e-11
-2.84471e-12
2.25665e-08
1.30093e-11
-3.21784e-12
2.2571e-08
-3.15269e-12
2.25711e-08
1.06796e-11
-3.00936e-12
2.25273e-08
-8.63458e-12
1.20092e-11
-3.69552e-12
2.25558e-08
1.31484e-11
-4.10668e-12
2.25655e-08
-4.13658e-12
2.25674e-08
9.53853e-12
2.24733e-08
-3.48259e-12
-7.31791e-12
1.15043e-11
2.25269e-08
-4.281e-12
1.32214e-11
2.2548e-08
-4.77532e-12
2.25542e-08
-5.25541e-12
8.90382e-12
-9.25736e-13
2.25566e-08
-7.6642e-12
9.75276e-12
-1.60682e-12
2.25693e-08
1.01396e-11
-1.98667e-12
2.25722e-08
-2.09453e-12
2.25718e-08
8.39847e-12
-1.25288e-12
2.25486e-08
-7.07124e-12
9.41694e-12
-1.92267e-12
2.25659e-08
1.004e-11
-2.21505e-12
2.25706e-08
-2.27074e-12
2.25709e-08
8.03546e-12
-1.62453e-12
2.25262e-08
-6.41275e-12
9.14669e-12
-2.13611e-12
2.2555e-08
1.00149e-11
-2.49262e-12
2.25649e-08
-2.61644e-12
2.2567e-08
7.39068e-12
2.24718e-08
-1.71779e-12
-5.6819e-12
8.74878e-12
2.25257e-08
-2.17987e-12
9.92418e-12
2.25471e-08
-2.64039e-12
2.25535e-08
-2.97419e-12
6.57752e-12
-8.82106e-13
2.25556e-08
-5.60057e-12
7.26374e-12
-1.31046e-12
2.25687e-08
7.58582e-12
-1.57915e-12
2.25717e-08
-1.705e-12
2.25716e-08
6.23887e-12
-8.79394e-13
2.25477e-08
-5.23735e-12
7.0258e-12
-1.33863e-12
2.25652e-08
7.48898e-12
-1.59386e-12
2.25702e-08
-1.7133e-12
2.25707e-08
5.87279e-12
-9.23045e-13
2.25252e-08
-4.72314e-12
6.77588e-12
-1.34086e-12
2.25542e-08
7.38436e-12
-1.60921e-12
2.25643e-08
-1.78116e-12
2.25667e-08
5.51745e-12
2.24706e-08
-8.87281e-13
-4.24563e-12
6.45656e-12
2.25247e-08
-1.1715e-12
7.23195e-12
2.25462e-08
-1.54224e-12
2.2553e-08
-1.81967e-12
4.74094e-12
-7.55287e-13
2.25548e-08
-4.01085e-12
5.24635e-12
-1.04629e-12
2.2568e-08
5.48536e-12
-1.2406e-12
2.25712e-08
-1.37518e-12
2.25713e-08
4.50694e-12
-6.54999e-13
2.2547e-08
-3.77167e-12
5.06779e-12
-9.68813e-13
2.25646e-08
5.38216e-12
-1.18289e-12
2.25697e-08
-1.3191e-12
2.25704e-08
4.23554e-12
-5.68551e-13
2.25244e-08
-3.44948e-12
4.8534e-12
-8.61461e-13
2.25535e-08
5.2525e-12
-1.10276e-12
2.25638e-08
-1.27449e-12
2.25664e-08
3.92835e-12
2.24697e-08
-4.67743e-13
-3.07071e-12
4.59439e-12
2.25238e-08
-6.98674e-13
5.08934e-12
2.25456e-08
-9.66374e-13
2.25526e-08
-1.19087e-12
3.24979e-12
-5.45158e-13
2.25542e-08
-2.74145e-12
3.58873e-12
-7.41645e-13
2.25675e-08
3.75027e-12
-8.8322e-13
2.25708e-08
-9.91954e-13
2.2571e-08
3.08735e-12
-4.39327e-13
2.25463e-08
-2.58664e-12
3.45894e-12
-6.5131e-13
2.25641e-08
3.65615e-12
-8.16788e-13
2.25693e-08
-9.31558e-13
2.25701e-08
2.89681e-12
-3.35602e-13
2.25238e-08
-2.38169e-12
3.29322e-12
-5.36243e-13
2.2553e-08
3.53845e-12
-7.20091e-13
2.25634e-08
-8.65586e-13
2.25661e-08
2.67678e-12
2.2469e-08
-2.39005e-13
-2.10911e-12
3.09806e-12
2.25233e-08
-4.01729e-13
3.39805e-12
2.25452e-08
-5.82627e-13
2.25523e-08
-7.60163e-13
2.07805e-12
-1.70749e-13
2.25537e-08
-1.75285e-12
2.29089e-12
-2.85931e-13
2.25671e-08
2.39684e-12
-3.73566e-13
2.25705e-08
-4.44335e-13
2.25708e-08
1.97849e-12
-1.04782e-13
2.25459e-08
-1.66886e-12
2.20835e-12
-2.27639e-13
2.25637e-08
2.32971e-12
-3.36142e-13
2.2569e-08
-4.19733e-13
2.25699e-08
1.86213e-12
-4.35277e-14
2.25234e-08
-1.55386e-12
2.09907e-12
-1.60182e-13
2.25526e-08
2.2457e-12
-2.82091e-13
2.25632e-08
-3.86171e-13
2.2566e-08
1.72459e-12
2.24686e-08
1.11834e-14
-1.39604e-12
1.96953e-12
2.25229e-08
-9.08112e-14
2.14437e-12
2.25449e-08
-2.08117e-13
2.25521e-08
-3.26905e-13
1.38137e-12
3.81371e-13
-1.16202e-12
1.54453e-12
3.36717e-13
1.64362e-12
2.96015e-13
2.58182e-13
1.34243e-12
3.93859e-13
-1.13478e-12
1.50515e-12
3.39556e-13
1.60519e-12
2.81836e-13
2.28445e-13
1.28764e-12
3.90943e-13
-1.08697e-12
1.44591e-12
3.30202e-13
1.55094e-12
2.59187e-13
1.89346e-13
1.2175e-12
3.52071e-13
-1.01503e-12
1.37209e-12
3.07189e-13
1.48207e-12
2.35025e-13
1.53491e-13
-3.66331e-09
-1.16345e-09
2.29526e-08
-9.24496e-10
5.64809e-10
1.36859e-10
1.30148e-08
-4.34478e-09
-2.99171e-09
3.30712e-08
1.08408e-11
1.64634e-08
-1.83319e-09
1.20558e-09
1.49983e-08
6.77858e-10
-5.85521e-10
6.2304e-09
1.36817e-08
-1.05143e-09
4.5347e-09
1.77714e-08
1.94481e-09
2.34598e-08
-9.65653e-11
4.94078e-09
1.5346e-08
-1.00998e-10
-1.44605e-09
-2.31414e-09
3.3695e-08
-2.14565e-09
3.7233e-09
2.98214e-08
-7.36057e-10
2.79377e-08
-2.04543e-09
2.87979e-08
-3.11429e-10
1.01874e-09
2.12443e-08
-3.75525e-09
3.90242e-08
2.82602e-08
1.22118e-09
3.96274e-09
1.54306e-08
-5.9128e-11
-3.68485e-09
9.88226e-10
2.0008e-08
4.59087e-09
1.63789e-09
2.11307e-08
-7.57274e-10
2.98087e-08
3.82848e-10
1.43036e-09
1.78803e-08
-7.32462e-10
-8.39534e-10
1.13067e-09
1.47616e-08
2.10305e-09
3.75351e-09
1.27132e-08
-4.06695e-09
3.14216e-08
-2.10708e-10
1.6547e-10
1.58939e-08
9.27697e-10
-2.80907e-10
4.54282e-09
3.03531e-08
-1.64938e-09
-1.77064e-09
3.6714e-08
2.5507e-11
2.24083e-08
8.95256e-10
2.69477e-08
1.08305e-09
-1.77806e-09
2.83952e-08
-5.51246e-10
3.59678e-08
2.51934e-08
1.87288e-09
4.68108e-09
8.4427e-09
3.98601e-10
3.6175e-10
7.29888e-09
1.61529e-08
3.78335e-09
1.87412e-09
1.57771e-08
1.4424e-10
4.25798e-08
1.91252e-09
1.87706e-09
1.90449e-08
-2.73107e-10
-1.32085e-09
-3.28585e-09
2.85797e-08
-1.83939e-10
6.38202e-10
1.28122e-08
1.15418e-10
3.43882e-08
-6.89506e-10
-7.54702e-10
1.9915e-08
-6.99851e-10
9.19797e-10
5.09791e-10
2.49481e-08
-1.42562e-10
-2.97786e-09
4.13924e-08
3.13516e-09
1.9459e-08
-8.23699e-10
2.67644e-08
9.92331e-11
-1.88063e-10
2.81711e-08
2.8471e-09
3.00189e-08
3.53549e-08
-1.25198e-09
-5.69445e-09
2.04868e-08
-1.07137e-09
2.18397e-11
-2.88887e-10
1.47018e-08
-4.40354e-09
-2.69533e-10
2.09548e-08
4.31906e-10
2.99921e-08
3.54796e-10
-2.12887e-09
1.50464e-08
7.80968e-11
9.32657e-10
3.87485e-09
2.38381e-08
-2.42961e-09
6.14676e-10
1.52902e-08
6.66398e-09
1.98489e-08
2.14533e-09
2.115e-09
1.37457e-08
-2.19939e-10
3.42185e-10
3.43582e-09
2.71903e-08
1.3934e-09
-4.4954e-09
4.54513e-08
6.48128e-10
2.78443e-08
1.7373e-09
2.7263e-08
-2.81921e-11
-1.76748e-09
3.50817e-08
3.6088e-09
2.02613e-08
4.19859e-08
-2.75125e-09
-3.11437e-09
1.9971e-08
-1.21624e-09
-6.59977e-10
-2.69876e-09
1.33339e-08
-2.19623e-09
1.37564e-09
2.08341e-08
6.09865e-09
1.4779e-08
-6.37308e-10
-9.60426e-10
1.42069e-08
-6.77198e-10
1.22983e-09
8.23929e-10
1.84482e-08
1.82694e-09
1.89901e-10
1.58788e-08
-1.1002e-09
3.06801e-08
2.77317e-10
4.09655e-10
1.21433e-08
-4.49907e-11
2.26821e-09
2.24248e-09
2.37808e-08
3.56897e-09
-1.5387e-09
4.58791e-08
4.98507e-09
2.70423e-08
1.38358e-09
2.71424e-08
-8.12689e-10
5.08542e-10
3.83298e-08
3.09748e-09
1.61295e-08
5.21971e-08
-2.11795e-10
-2.09258e-09
2.51251e-08
2.34376e-11
-2.85719e-10
-7.78278e-10
1.63612e-08
4.43026e-10
1.67569e-09
2.21833e-08
-1.03815e-09
2.42798e-08
-9.54719e-10
-1.90855e-09
1.4468e-08
5.09563e-10
1.35322e-09
-3.46229e-10
1.57082e-08
-1.92091e-09
-4.26822e-09
2.50969e-08
6.61486e-09
2.14829e-08
-9.28026e-11
-2.32618e-09
1.26985e-08
-4.47951e-11
-6.4605e-10
1.57557e-09
2.24123e-08
-2.57596e-09
4.14333e-09
3.93975e-08
1.27233e-10
3.45243e-08
1.21968e-09
2.39492e-08
-2.78337e-10
2.50119e-10
4.10203e-08
2.0436e-09
1.8723e-08
5.4822e-08
9.61205e-10
1.84658e-09
1.98793e-08
1.94061e-09
-1.50563e-09
7.49375e-10
1.81673e-08
-1.38427e-09
-9.73498e-10
2.09369e-08
-2.57909e-11
2.30577e-08
8.96825e-10
-2.03243e-09
1.69623e-08
4.87801e-10
-1.56928e-10
-8.25719e-10
1.83371e-08
2.29913e-09
-1.99609e-09
2.36633e-08
-7.7673e-10
2.36643e-08
2.9025e-09
-4.30831e-09
1.32448e-08
-1.17298e-09
2.30376e-10
-6.40337e-10
2.48989e-08
1.16384e-09
2.262e-09
3.4206e-08
-1.43184e-09
3.56168e-08
6.34155e-11
1.8939e-08
3.78965e-10
6.23259e-09
3.49983e-08
5.52048e-09
2.20646e-08
5.66819e-08
-3.99485e-10
1.89578e-09
1.84203e-08
4.66997e-10
-7.92062e-10
-8.94617e-10
1.84515e-08
-1.09054e-09
-1.11845e-09
2.06988e-08
-1.46767e-09
2.23345e-08
-6.83248e-10
1.45853e-09
1.79614e-08
1.21144e-10
-1.01506e-09
-2.12305e-09
1.98973e-08
-9.2857e-10
-6.16828e-10
2.30754e-08
-4.74146e-09
2.69777e-08
-1.25091e-09
-4.05386e-10
1.63135e-08
4.59383e-11
-1.30874e-09
-2.90873e-09
2.57425e-08
-1.32412e-09
1.99175e-09
3.16127e-08
-6.30411e-09
3.48091e-08
-1.2349e-09
1.93643e-08
4.03995e-10
-1.27765e-10
3.09824e-08
-2.06886e-09
2.59975e-08
4.57163e-08
1.02046e-09
7.09354e-10
1.42313e-08
9.00148e-10
1.01962e-09
-1.47159e-09
1.81393e-08
1.03986e-10
-1.83907e-09
2.11994e-08
-2.94281e-09
2.3344e-08
5.12775e-10
1.5509e-09
1.65158e-08
9.11266e-11
4.5724e-10
-2.69955e-09
2.11807e-08
-1.36337e-09
-1.6388e-09
2.46958e-08
-3.98086e-09
2.79941e-08
-5.45854e-10
3.44356e-10
1.82681e-08
-2.02485e-10
-3.24113e-10
-2.32925e-09
2.51505e-08
-7.84341e-10
1.28647e-09
2.91477e-08
-4.01246e-09
3.35028e-08
-1.9817e-10
2.01237e-08
-2.16944e-10
1.86789e-10
2.82682e-08
-1.57889e-09
2.90496e-08
3.86288e-08
-1.62109e-10
-8.77268e-11
1.37904e-08
2.9176e-10
-2.16498e-10
-1.12187e-09
1.83466e-08
-5.50705e-10
-1.30494e-09
2.1546e-08
-1.95433e-09
2.35519e-08
-4.48709e-10
3.09907e-10
1.64033e-08
1.6353e-10
-4.57852e-10
-1.27166e-09
2.13397e-08
-9.92488e-10
-8.99713e-10
2.48252e-08
-2.16113e-09
2.74568e-08
-7.72381e-10
5.21396e-10
1.87419e-08
8.69289e-11
-6.59779e-10
-6.3078e-10
2.4397e-08
-9.45796e-10
4.9352e-10
2.80405e-08
-1.41498e-09
3.14015e-08
-7.61928e-10
2.12749e-08
1.32062e-10
-5.90847e-10
2.74663e-08
-1.18847e-09
3.01407e-08
3.51999e-08
2.81861e-11
-3.8344e-10
1.34785e-08
1.23611e-10
3.05826e-11
-6.64777e-10
1.83887e-08
-1.71137e-10
-6.62857e-10
2.17819e-08
-9.74475e-10
2.37169e-08
-4.68553e-11
-2.46461e-10
1.62079e-08
1.0514e-10
-4.07167e-11
-6.96106e-10
2.13649e-08
-3.0805e-10
-5.16134e-10
2.49459e-08
-1.04945e-09
2.72191e-08
-1.55834e-10
-2.3335e-10
1.87902e-08
9.43136e-11
-1.0522e-10
-6.01986e-10
2.42522e-08
-3.39847e-10
-1.56588e-10
2.79156e-08
-8.38962e-10
3.06064e-08
-1.71028e-10
2.11207e-08
9.17854e-11
-1.18908e-10
2.68122e-08
-4.02134e-10
3.02674e-08
3.35814e-08
-7.2243e-11
-1.89637e-10
1.34745e-08
6.81274e-11
-5.30153e-11
-3.38564e-10
1.84271e-08
-9.24225e-11
-3.5113e-10
2.18658e-08
-4.96293e-10
2.37167e-08
-1.17792e-10
-1.17138e-10
1.61838e-08
6.93753e-11
-8.48034e-11
-3.14608e-10
2.13078e-08
-1.44047e-10
-2.58355e-10
2.49124e-08
-4.95804e-10
2.69654e-08
-1.55046e-10
-1.05149e-11
1.877e-08
6.85197e-11
-1.09107e-10
-1.67096e-10
2.40587e-08
-1.71763e-10
-5.43187e-11
2.77742e-08
-3.09276e-10
3.00573e-08
-1.69586e-10
2.12117e-08
6.7931e-11
-1.23519e-10
2.6599e-08
-1.98588e-10
3.02881e-08
3.28352e-08
-2.54274e-11
-1.17379e-10
1.34612e-08
3.32246e-11
-1.24397e-11
-1.69775e-10
1.84377e-08
-1.65848e-11
-1.73002e-10
2.18941e-08
-2.35088e-10
2.37017e-08
-4.33623e-11
-8.95106e-11
1.61631e-08
3.60406e-11
-2.53367e-11
-1.58264e-10
2.12782e-08
-3.62585e-11
-1.38095e-10
2.48883e-08
-2.35878e-10
2.68345e-08
-5.79482e-11
-5.21212e-11
1.8753e-08
3.73484e-11
-3.53263e-11
-1.0479e-10
2.39825e-08
-5.13929e-11
-5.86321e-11
2.77107e-08
-1.57739e-10
2.98036e-08
-6.3144e-11
2.11854e-08
3.72673e-11
-4.24303e-11
2.64734e-08
-6.15747e-11
3.02486e-08
3.24767e-08
-1.07564e-11
-5.95427e-11
1.34568e-08
1.48997e-11
1.11183e-12
-8.29213e-11
1.84377e-08
1.03414e-11
-8.3998e-11
2.18983e-08
-1.11073e-10
2.3686e-08
-1.95307e-11
-4.63512e-11
1.61525e-08
1.69017e-11
-5.38212e-12
-7.65286e-11
2.12575e-08
3.05413e-12
-7.09004e-11
2.48667e-08
-1.11461e-10
2.67675e-08
-2.62096e-11
-2.39735e-11
1.87388e-08
1.79548e-11
-1.08833e-11
-4.85547e-11
2.39391e-08
-5.2924e-12
-3.61537e-11
2.76703e-08
-7.53697e-11
2.9681e-08
-2.96916e-11
2.11727e-08
1.83094e-11
-1.5715e-11
2.64109e-08
-1.12399e-11
3.0208e-08
3.23043e-08
-1.53039e-12
-3.08185e-11
1.34538e-08
5.56768e-12
8.02793e-12
-4.17471e-11
1.84348e-08
1.66674e-11
-4.1802e-11
2.18966e-08
-5.31617e-11
2.36743e-08
-5.84378e-12
-2.49846e-11
1.6146e-08
6.57513e-12
3.64719e-12
-3.85041e-11
2.12447e-08
1.24143e-11
-3.64752e-11
2.48526e-08
-5.37931e-11
2.67319e-08
-8.87537e-12
-1.41161e-11
1.87295e-08
7.19844e-12
6.2433e-13
-2.44427e-11
2.39155e-08
8.74478e-12
-2.02286e-11
2.76459e-08
-3.6459e-11
2.96197e-08
-1.04753e-11
2.11616e-08
7.40895e-12
-1.86164e-12
2.63778e-08
6.53744e-12
3.01793e-08
3.22203e-08
2.65801e-12
-1.57496e-11
1.34513e-08
1.00591e-12
9.77451e-12
-2.10685e-11
1.84316e-08
1.6851e-11
-2.15954e-11
2.18934e-08
-2.59881e-11
2.3667e-08
5.1896e-13
-1.31324e-11
1.61415e-08
1.39658e-12
7.65301e-12
-1.97078e-11
2.12362e-08
1.4562e-11
-1.92908e-11
2.48433e-08
-2.62482e-11
2.67133e-08
-1.01648e-12
-7.54118e-12
1.87233e-08
1.69699e-12
5.84501e-12
-1.2599e-11
2.39016e-08
1.2247e-11
-1.1111e-11
2.76313e-08
-1.78037e-11
2.95887e-08
-1.89494e-12
2.11541e-08
1.84175e-12
4.08964e-12
2.63592e-08
1.08379e-11
3.01614e-08
3.21783e-08
4.19947e-12
-8.19335e-12
1.34493e-08
-9.84354e-13
9.28794e-12
-1.07877e-11
1.84288e-08
1.46932e-11
-1.1402e-11
2.18904e-08
-1.30761e-11
2.36626e-08
3.00009e-12
-6.99326e-12
1.61384e-08
-9.05156e-13
8.01523e-12
-1.02273e-11
2.12307e-08
1.33202e-11
-1.04485e-11
2.48371e-08
-1.30945e-11
2.67037e-08
2.24882e-12
-4.10318e-12
1.8719e-08
-7.69516e-13
6.99331e-12
-6.55259e-12
2.38932e-08
1.19696e-11
-6.24651e-12
2.76221e-08
-8.83554e-12
2.95732e-08
1.76982e-12
2.1149e-08
-6.68953e-13
6.12919e-12
2.63483e-08
1.11079e-11
3.01502e-08
3.21574e-08
4.21888e-12
-4.42064e-12
1.34478e-08
-1.65854e-12
7.82357e-12
-5.66237e-12
1.84267e-08
1.15471e-11
-6.20474e-12
2.18881e-08
-6.82442e-12
2.366e-08
3.53117e-12
-3.88297e-12
1.61361e-08
-1.66618e-12
6.98412e-12
-5.42051e-12
2.12271e-08
1.06091e-11
-5.77951e-12
2.48331e-08
-6.72563e-12
2.66984e-08
3.10921e-12
-2.31978e-12
1.87161e-08
-1.62292e-12
6.35825e-12
-3.47095e-12
2.38881e-08
9.76571e-12
-3.52399e-12
2.76165e-08
-4.4791e-12
2.95651e-08
2.87616e-12
2.11455e-08
-1.63111e-12
5.90416e-12
2.63419e-08
9.25649e-12
3.01433e-08
3.21466e-08
3.65342e-12
-2.44717e-12
1.34466e-08
-1.70207e-12
6.23748e-12
-3.12108e-12
1.84251e-08
8.77766e-12
-3.48668e-12
2.18865e-08
-3.70393e-12
2.36584e-08
3.29189e-12
-2.21876e-12
1.61345e-08
-1.79473e-12
5.65702e-12
-3.00539e-12
2.12247e-08
8.13423e-12
-3.28513e-12
2.48305e-08
-3.58558e-12
2.66956e-08
3.06281e-12
-1.33707e-12
1.87141e-08
-1.77199e-12
5.25284e-12
-1.91632e-12
2.38849e-08
7.58597e-12
-2.01373e-12
2.76129e-08
-2.34721e-12
2.95608e-08
2.96517e-12
2.11432e-08
-1.79384e-12
5.0217e-12
2.6338e-08
7.3472e-12
3.0139e-08
3.21411e-08
2.92852e-12
-1.41631e-12
1.34457e-08
-1.48322e-12
4.73162e-12
-1.78132e-12
1.8424e-08
6.41838e-12
-2.03203e-12
2.18854e-08
-2.14745e-12
2.36574e-08
2.71571e-12
-1.32062e-12
1.61333e-08
-1.56518e-12
4.34093e-12
-1.73932e-12
2.12232e-08
5.98711e-12
-1.92217e-12
2.48288e-08
-2.01578e-12
2.6694e-08
2.59474e-12
-8.14323e-13
1.87127e-08
-1.56151e-12
4.07903e-12
-1.09321e-12
2.38829e-08
5.63681e-12
-1.18109e-12
2.76107e-08
-1.28317e-12
2.95585e-08
2.56206e-12
2.11415e-08
-1.59945e-12
3.96888e-12
2.63355e-08
5.49622e-12
3.01364e-08
3.21382e-08
2.19986e-12
-8.31476e-13
1.34451e-08
-1.14706e-12
3.41047e-12
-1.07646e-12
1.84232e-08
4.51079e-12
-1.25163e-12
2.18846e-08
-1.32458e-12
2.36568e-08
2.07292e-12
-8.03675e-13
1.61325e-08
-1.22529e-12
3.15567e-12
-1.05162e-12
2.12222e-08
4.21765e-12
-1.16243e-12
2.48277e-08
-1.18389e-12
2.6693e-08
2.00068e-12
-5.05225e-13
1.87117e-08
-1.23151e-12
2.99211e-12
-6.55025e-13
2.38816e-08
3.99304e-12
-7.04163e-13
2.76093e-08
-7.23458e-13
2.95572e-08
1.99582e-12
2.11404e-08
-1.26919e-12
2.93665e-12
2.6334e-08
3.91465e-12
3.01348e-08
3.21366e-08
1.54709e-12
-4.66935e-13
1.34447e-08
-8.1763e-13
2.31658e-12
-6.27684e-13
1.84227e-08
3.00549e-12
-7.47674e-13
2.18841e-08
-8.02196e-13
2.36565e-08
1.46425e-12
-4.68944e-13
1.6132e-08
-8.80939e-13
2.15557e-12
-6.20138e-13
2.12215e-08
2.80991e-12
-6.86651e-13
2.48271e-08
-6.8706e-13
2.66925e-08
1.42049e-12
-3.00833e-13
1.87111e-08
-8.92088e-13
2.06316e-12
-3.86173e-13
2.38808e-08
2.66918e-12
-4.06381e-13
2.76085e-08
-3.988e-13
2.95565e-08
1.42896e-12
2.11396e-08
-9.22199e-13
2.02806e-12
2.63331e-08
2.62324e-12
3.01338e-08
3.21358e-08
1.05762e-12
-1.49158e-13
1.34445e-08
-5.93011e-13
1.51776e-12
-2.42664e-13
1.84224e-08
1.91004e-12
-3.10742e-13
2.18838e-08
-3.51287e-13
2.36563e-08
9.99489e-13
-1.91951e-13
1.61317e-08
-6.27787e-13
1.41045e-12
-2.74296e-13
2.12211e-08
1.78531e-12
-3.03808e-13
2.48267e-08
-2.99726e-13
2.66923e-08
9.69348e-13
-1.37684e-13
1.87107e-08
-6.35296e-13
1.34365e-12
-1.72322e-13
2.38804e-08
1.68733e-12
-1.80107e-13
2.76081e-08
-1.69753e-13
2.95563e-08
9.70751e-13
2.11392e-08
-6.54415e-13
1.32651e-12
2.63326e-08
1.65325e-12
3.01333e-08
3.21354e-08
8.75952e-13
1.75867e-13
-5.77672e-13
1.15569e-12
1.48481e-13
1.36597e-12
1.15189e-13
9.06573e-14
8.16477e-13
7.74578e-14
-5.69349e-13
1.07214e-12
4.67349e-14
1.2699e-12
3.87825e-14
4.27276e-14
7.81771e-13
2.30876e-14
-5.56594e-13
1.00972e-12
1.09029e-14
1.19011e-12
8.34861e-15
1.32847e-14
7.67689e-13
-5.56579e-13
9.80317e-13
1.14774e-12
4.90912e-09
2.14693e-09
2.89449e-08
-8.96258e-09
4.4134e-10
4.81175e-08
1.69552e-09
2.12419e-09
1.22934e-08
2.90307e-09
2.26394e-08
-8.98942e-10
4.70453e-09
2.79772e-08
-3.28081e-09
3.06346e-09
2.73296e-08
4.86575e-10
1.80249e-09
2.11889e-08
3.38868e-09
2.22089e-08
-9.45078e-09
-2.53546e-09
4.33648e-08
-5.59234e-09
-1.30914e-09
2.45568e-08
-7.74081e-11
1.38608e-09
1.58856e-08
-2.85295e-10
2.63522e-08
-1.80348e-09
2.06456e-08
1.41218e-09
1.43318e-08
-3.37744e-09
2.2945e-08
9.78017e-09
1.20994e-09
-1.24275e-09
3.00601e-08
-2.72963e-09
-1.49333e-09
5.78651e-08
-3.93293e-10
-2.0852e-10
1.30469e-08
-1.84909e-09
2.62879e-08
7.01963e-10
2.27528e-09
2.37452e-08
-1.86104e-09
-8.2025e-10
2.92195e-08
-4.80738e-09
-8.52778e-10
2.47795e-08
7.73739e-10
1.33316e-08
-9.33224e-09
-1.03778e-09
5.61724e-08
-6.67623e-10
1.80704e-09
1.32649e-08
-3.91762e-09
-3.28809e-10
1.86116e-08
1.90396e-09
2.0304e-08
1.51309e-09
1.93837e-08
-7.74261e-09
2.63223e-08
3.10968e-10
1.38301e-08
1.05604e-08
-1.4655e-09
-4.34256e-09
3.45643e-08
-4.9078e-10
-2.46064e-09
6.4375e-08
-2.60734e-09
-1.25077e-09
1.8442e-08
-3.63716e-09
3.33618e-08
6.26157e-09
-2.50124e-10
1.35977e-08
-1.35237e-09
-5.38598e-11
3.44266e-08
-2.60282e-09
-1.76372e-09
2.65428e-08
1.61947e-10
6.81171e-09
8.08765e-09
1.37329e-09
4.66134e-08
-3.3661e-09
-1.56095e-09
2.62257e-08
-4.28071e-11
3.0478e-10
1.32198e-08
-5.51051e-10
2.21609e-08
-1.86314e-09
2.28963e-08
2.2681e-10
2.19715e-08
-3.1927e-09
1.72813e-08
9.0973e-09
-8.7593e-09
5.81685e-11
4.08115e-08
3.64311e-09
2.01356e-09
4.44538e-08
-1.08487e-10
8.51707e-10
1.82452e-08
1.20415e-09
3.1077e-08
-5.7831e-09
-4.90525e-09
2.43032e-08
1.97207e-09
5.56731e-10
2.81283e-08
5.68045e-10
-8.8502e-10
2.96836e-08
2.23256e-10
1.12847e-08
9.90258e-09
1.16156e-09
2.93217e-08
9.39934e-10
-2.16068e-09
3.79058e-08
4.37209e-09
-3.34053e-10
9.23661e-09
-2.0608e-09
3.22759e-08
-2.96225e-09
2.71156e-08
2.93395e-09
1.36947e-08
7.18434e-10
1.92409e-08
8.41056e-09
3.62763e-09
-2.65691e-10
3.9257e-08
-3.18034e-09
-1.88614e-09
5.39147e-08
4.60663e-11
-8.92216e-10
1.39945e-08
-1.27344e-09
3.01043e-08
-2.4044e-09
-3.20775e-09
2.93099e-08
-2.07197e-09
-1.91409e-09
2.78238e-08
2.70028e-11
9.39077e-12
2.6683e-08
-8.10961e-10
1.19959e-08
2.82195e-09
-5.94888e-10
2.40811e-08
3.04453e-09
-8.96235e-10
3.66653e-08
-7.69921e-10
-1.87934e-09
1.49398e-08
4.01621e-10