/*--------------------------------*- C++ -*----------------------------------*\
| =========                 |                                                 |
| \\      /  F ield         | OpenFOAM: The Open Source CFD Toolbox           |
|  \\    /   O peration     | Version:  2506                                  |
|   \\  /    A nd           | Website:  www.openfoam.com                      |
|    \\/     M anipulation  |                                                 |
\*---------------------------------------------------------------------------*/
FoamFile
{
    version     2.0;
    format      ascii;
    arch        "LSB;label=32;scalar=64";
    class       volVectorField;
    location    "0.03";
    object      stored_U;
}
// * * * * * * * * * * * * * * * * * * * * * * * * * * * * * * * * * * * * * //

dimensions      [0 1 -1 0 0 0 0];

internalField   nonuniform List<vector> 
1152
(
(-0.000557661 0.000426978 0.00766729)
(-0.000100129 -0.000207503 0.00580933)
(0.000467188 -0.000724332 0.00960383)
(0.00141796 -0.000504114 0.00954621)
(-0.00102122 0.00109984 0.0164809)
(-0.00104334 0.00106206 0.0129243)
(-0.000318413 8.26633e-05 0.00894955)
(0.000181411 -9.59974e-05 0.00146868)
(-0.00129529 0.000538047 0.00866753)
(-0.00103413 0.000732852 0.011556)
(0.0003703 0.000437182 0.0101819)
(-0.000632765 0.00122722 0.0194527)
(-0.000764523 0.00152386 0.0120609)
(-0.00151568 0.000474923 0.012839)
(-0.000760538 0.000956185 0.00945947)
(-6.36136e-05 -0.000782349 0.0123842)
(-5.69051e-05 0.000510944 0.0192338)
(0.00022048 0.000599015 0.00784445)
(0.00188902 0.00070338 0.0149452)
(9.11543e-05 -4.0236e-05 0.000288448)
(0.000583711 -0.000243286 0.00904381)
(7.44205e-07 -0.000532015 0.0126288)
(0.000425001 -0.000427963 0.0181916)
(-0.00214188 -0.00302617 0.0147572)
(0.000138046 0.000282546 0.0131274)
(0.000196656 -0.000652812 0.0113624)
(-0.00028842 -3.36071e-05 0.00412106)
(0.000128543 -0.00284024 0.0214892)
(-0.000413055 8.64407e-05 0.0094863)
(-0.00120819 0.000684079 0.018477)
(-0.000773176 -0.00100004 0.0115735)
(6.59342e-05 0.00129036 0.00684139)
(-0.00051083 0.000143248 0.0105036)
(-0.000103964 -0.000512553 0.0136668)
(0.000138184 -0.000560342 0.0154539)
(-0.00362978 -0.0074794 0.0395283)
(8.90303e-05 -0.00180984 0.0303497)
(-1.07168e-05 -0.000561579 0.024917)
(-1.22579e-05 7.40053e-05 0.00290611)
(0.000380271 -0.000500161 0.0212107)
(-0.000375515 -0.000403976 0.0125769)
(0.000896243 -0.000413786 0.0179152)
(0.000173452 9.17044e-05 0.0251637)
(0.00026145 -0.000132401 0.0135143)
(-0.00111569 6.59985e-05 0.0345847)
(1.64692e-05 0.00014092 0.00705787)
(0.000451319 -0.000314067 0.0199808)
(-0.000169354 0.000381297 0.00760615)
(0.000549603 -0.00340691 0.0234319)
(-4.66705e-05 1.12918e-05 0.00207458)
(-0.00036417 -0.000570716 0.0128553)
(-0.000511782 -0.00137691 0.0114205)
(-0.00105122 -0.000269671 0.0170718)
(0.00071643 -0.000363169 0.0135572)
(0.000195269 -0.0012764 0.0187965)
(0.00061419 0.000134385 0.0167912)
(-0.000148129 5.0706e-06 0.00314028)
(-0.000479064 0.000779474 0.0129785)
(0.00032197 0.000193557 0.0133927)
(0.000753047 8.7949e-05 0.0213383)
(4.31608e-06 0.00063982 0.00967705)
(0.000554261 0.000477328 0.0166979)
(-0.000641411 0.000937872 0.0157654)
(-0.000154638 -0.000107147 0.00223967)
(-0.000119233 -4.92966e-05 0.00168927)
(-0.00164588 0.000273603 0.0174799)
(-0.000544992 -0.000335441 0.0196243)
(0.00931067 0.000732689 0.0306705)
(-0.000480898 -0.000487231 0.0189107)
(-0.00111916 1.54901e-05 0.0203612)
(-0.000257616 0.000589472 0.0125919)
(0.000769837 -1.98101e-05 0.00866186)
(0.000199061 0.000596214 0.0103106)
(-0.000422552 0.000600323 0.0167875)
(-0.000521977 0.000533067 0.0111314)
(-0.00147929 0.000115086 0.0244622)
(0.00125789 -0.000671587 0.0223825)
(-0.00119419 -0.000265476 0.0148671)
(-0.00103041 -0.000617455 0.0211903)
(3.88813e-05 -6.77237e-05 0.00548667)
(-0.00249129 -0.000415386 0.0181636)
(-0.000639347 -1.26657e-05 0.00731222)
(-0.000683629 0.000325287 0.00645555)
(-0.000251527 9.86586e-05 0.00154201)
(-0.000643214 0.000328591 0.00893514)
(-0.000877983 -4.39203e-05 0.00971376)
(-0.000301716 -0.00013001 0.00451754)
(-0.00101069 0.000307334 0.0109218)
(-0.000166047 -0.000185051 0.00743466)
(-0.00143841 -0.00016804 0.00882325)
(-0.00162586 -0.00143572 0.0175475)
(0.000301073 0.00120572 0.0120352)
(-0.00390432 0.000581452 0.0221215)
(-0.00196093 0.000774147 0.0127929)
(0.000404432 0.00127728 0.0113779)
(-9.63588e-05 0.000105182 0.00143104)
(-0.00021238 0.000338297 0.00734874)
(-0.000548641 0.000329433 0.00846217)
(-0.000301303 -0.000370793 0.0100551)
(0.000583466 -0.000351806 0.0144635)
(7.24938e-05 0.00164942 0.01066)
(8.80675e-05 -8.16569e-05 0.00986816)
(4.62851e-05 -9.01665e-05 0.00722508)
(-0.000183323 8.99279e-05 0.00884676)
(-5.18219e-05 -0.000148957 0.00969089)
(-3.63362e-05 -0.000125828 0.0104075)
(-0.000132021 -6.86691e-05 0.00766069)
(-0.000758849 0.000734636 0.0112685)
(-7.91179e-05 -0.000452952 0.0150452)
(-8.59788e-05 -7.54271e-05 0.00860729)
(-0.000280446 0.000245738 0.0051287)
(0.000162048 0.000215609 0.00570985)
(0.000946604 0.000258987 0.011883)
(0.000540626 -2.58509e-05 0.0117018)
(0.000288926 -0.000146995 0.012223)
(0.000161899 -0.000263086 0.0192763)
(0.000145844 0.000196249 0.0142797)
(0.000408932 -4.15829e-05 0.0138784)
(0.000165863 -0.000116366 0.010459)
(-0.00020168 -0.000177963 0.0139398)
(4.06694e-05 2.78306e-06 0.0152816)
(0.000216748 -5.41413e-05 0.0147059)
(-3.85296e-05 -0.000205223 0.0139706)
(-0.000293923 -0.000291179 0.0157779)
(-0.000118478 -0.00013735 0.019625)
(0.000124121 -0.000206967 0.0140522)
(-0.000305991 -0.000302694 0.0107497)
(-0.000636831 -0.000239551 0.0121684)
(0.00024171 0.00010076 0.00359348)
(3.71985e-05 -3.9395e-05 0.00316154)
(-0.00080218 -1.37972e-05 0.00310319)
(-0.000982222 0.000711141 0.00422886)
(-0.000104732 -0.000457004 0.00367465)
(0.000256768 -0.000323836 0.00329184)
(-0.000376672 -0.00013755 0.00287122)
(-0.00095586 0.000429836 0.00361272)
(0.00011947 -0.000719462 0.00386905)
(0.000276632 -0.000278351 0.00346842)
(-0.000148445 -7.77448e-05 0.00325372)
(-0.000208478 0.000405465 0.00360883)
(0.000293638 -0.000645386 0.00438998)
(0.000809866 -0.000353007 0.00339905)
(0.000196431 -0.000194853 0.00295827)
(0.000167287 4.90908e-05 0.00308004)
(0.000142245 0.000111405 0.00830663)
(5.97467e-05 8.02211e-05 0.00820354)
(-0.000331224 7.34028e-05 0.00824488)
(-0.000451714 0.000270679 0.00895205)
(1.72668e-05 -8.11886e-05 0.00836284)
(9.78425e-05 -5.15563e-05 0.00823585)
(-0.00021278 4.57781e-06 0.00808539)
(-0.000434497 0.000206602 0.00859229)
(9.16673e-05 -0.000184656 0.00858987)
(0.000114732 -9.34799e-05 0.00838742)
(-0.000105942 -3.26338e-05 0.00829892)
(-0.000166029 0.0001571 0.00851233)
(3.758e-05 -0.000131022 0.00882663)
(0.00021222 -0.000155853 0.00838075)
(-4.3732e-06 -0.000153487 0.00810386)
(-2.64315e-05 -8.48975e-05 0.0081871)
(4.49066e-05 5.0899e-05 0.00713247)
(1.02264e-05 4.92903e-05 0.00707644)
(-0.000139853 4.45965e-05 0.00708563)
(-0.000183947 9.38798e-05 0.00732994)
(1.96308e-05 -4.74977e-05 0.00710043)
(2.56219e-05 -2.0616e-05 0.0070453)
(-0.000101697 9.88066e-06 0.00701486)
(-0.000174171 8.33629e-05 0.00720512)
(8.17318e-05 -0.000121349 0.00715342)
(6.0716e-05 -6.82217e-05 0.0070826)
(-4.41211e-05 -2.34856e-05 0.00706277)
(-7.80221e-05 5.39757e-05 0.00716138)
(9.32641e-05 -0.000135305 0.00716958)
(0.000110741 -0.00011713 0.00707372)
(7.15506e-06 -9.06638e-05 0.00701842)
(-1.69161e-05 -6.15544e-05 0.0070789)
(2.11376e-05 2.87172e-05 0.00745032)
(4.22703e-06 2.57019e-05 0.0074388)
(-5.07099e-05 2.13151e-05 0.00744981)
(-6.62325e-05 3.11126e-05 0.00753975)
(8.85929e-06 -9.91832e-06 0.00743596)
(5.42132e-06 -3.47903e-06 0.00742261)
(-4.1413e-05 5.67932e-06 0.00742273)
(-6.26797e-05 2.80182e-05 0.00749575)
(2.80702e-05 -3.83761e-05 0.00746616)
(1.84997e-05 -2.81098e-05 0.00744037)
(-2.10027e-05 -1.40543e-05 0.00743493)
(-3.01289e-05 1.1295e-05 0.00747575)
(1.54302e-05 -4.31476e-05 0.00747924)
(2.55822e-05 -5.15406e-05 0.0074448)
(-5.59454e-06 -4.72884e-05 0.00742394)
(-4.85376e-06 -4.04833e-05 0.00744918)
(1.17671e-05 1.28235e-05 0.00745833)
(4.2674e-06 1.01147e-05 0.00745795)
(-1.51975e-05 7.01633e-06 0.00746429)
(-2.05958e-05 8.11294e-06 0.00749662)
(6.55413e-06 -4.83414e-06 0.00744739)
(3.3812e-06 -3.01817e-06 0.00744849)
(-1.33307e-05 2.38919e-07 0.00745315)
(-1.92065e-05 6.89656e-06 0.00748074)
(1.44684e-05 -2.00256e-05 0.00745252)
(9.20138e-06 -1.62324e-05 0.00745217)
(-5.68608e-06 -1.03287e-05 0.00745499)
(-7.97711e-06 -1.65564e-06 0.00747318)
(1.03725e-05 -2.65928e-05 0.00744081)
(1.16182e-05 -2.83882e-05 0.00744811)
(1.49889e-07 -2.53243e-05 0.00745013)
(2.72545e-06 -2.2957e-05 0.00746411)
(7.50746e-06 4.59775e-06 0.0074685)
(4.50094e-06 2.52819e-06 0.00747104)
(-2.0469e-06 7.04405e-07 0.00747451)
(-3.80423e-06 1.24982e-07 0.00748588)
(4.83219e-06 -3.0399e-06 0.00746201)
(3.41767e-06 -3.03513e-06 0.00746632)
(-1.95792e-06 -2.16609e-06 0.00747)
(-3.23225e-06 -1.47652e-07 0.00748036)
(7.39144e-06 -9.84699e-06 0.00746033)
(5.39551e-06 -9.09694e-06 0.00746619)
(7.31901e-07 -6.97396e-06 0.00746963)
(8.64206e-07 -3.96913e-06 0.00747739)
(4.7916e-06 -1.35284e-05 0.00744673)
(5.75666e-06 -1.47392e-05 0.00746065)
(2.78083e-06 -1.3271e-05 0.00746606)
(5.44044e-06 -1.26251e-05 0.00747312)
(5.31873e-06 7.76375e-07 0.0074726)
(4.35899e-06 -5.90654e-07 0.00747609)
(2.33089e-06 -1.67093e-06 0.00747804)
(1.78981e-06 -2.19799e-06 0.00748183)
(4.00787e-06 -2.45714e-06 0.00746842)
(3.59461e-06 -2.84858e-06 0.0074737)
(2.1114e-06 -2.76555e-06 0.00747628)
(2.09235e-06 -2.15849e-06 0.00748)
(4.59102e-06 -5.37809e-06 0.00746347)
(4.07286e-06 -5.44944e-06 0.00747174)
(2.97583e-06 -4.7984e-06 0.00747523)
(3.70241e-06 -3.69958e-06 0.00747847)
(3.187e-06 -7.28976e-06 0.0074477)
(3.95426e-06 -7.91154e-06 0.00746444)
(3.69274e-06 -7.36563e-06 0.00747104)
(5.68515e-06 -7.11258e-06 0.00747494)
(3.98311e-06 -7.36186e-07 0.00747383)
(3.84751e-06 -1.60864e-06 0.00747764)
(3.36507e-06 -2.24578e-06 0.00747886)
(3.24499e-06 -2.54654e-06 0.00747997)
(3.3235e-06 -2.03042e-06 0.00747078)
(3.33845e-06 -2.44277e-06 0.00747625)
(3.14141e-06 -2.56771e-06 0.00747815)
(3.41342e-06 -2.40367e-06 0.00747941)
(3.22671e-06 -3.20972e-06 0.00746452)
(3.32167e-06 -3.46719e-06 0.00747352)
(3.37772e-06 -3.32911e-06 0.00747684)
(4.07773e-06 -2.94421e-06 0.00747834)
(2.4604e-06 -4.07591e-06 0.00744773)
(3.11144e-06 -4.43872e-06 0.00746519)
(3.58033e-06 -4.30004e-06 0.00747205)
(4.93268e-06 -4.20508e-06 0.00747466)
(3.03336e-06 -1.19693e-06 0.00747378)
(3.16972e-06 -1.73645e-06 0.00747773)
(3.18994e-06 -2.11483e-06 0.00747868)
(3.21906e-06 -2.29382e-06 0.00747888)
(2.6693e-06 -1.65463e-06 0.00747118)
(2.84136e-06 -1.98144e-06 0.0074767)
(3.01891e-06 -2.13566e-06 0.00747832)
(3.30013e-06 -2.10822e-06 0.00747873)
(2.45208e-06 -2.07435e-06 0.00746438)
(2.69627e-06 -2.31861e-06 0.00747362)
(3.04817e-06 -2.35748e-06 0.00747685)
(3.58264e-06 -2.22338e-06 0.00747773)
(1.99202e-06 -2.39935e-06 0.00744705)
(2.49529e-06 -2.61602e-06 0.00746471)
(3.06825e-06 -2.63035e-06 0.00747163)
(3.93883e-06 -2.63736e-06 0.00747382)
(2.30589e-06 -1.19443e-06 0.00747332)
(2.50653e-06 -1.54384e-06 0.00747738)
(2.64105e-06 -1.76641e-06 0.00747827)
(2.72226e-06 -1.87117e-06 0.00747821)
(2.07855e-06 -1.3017e-06 0.00747087)
(2.28011e-06 -1.5651e-06 0.00747645)
(2.53376e-06 -1.68673e-06 0.007478)
(2.75025e-06 -1.69545e-06 0.00747816)
(1.88492e-06 -1.41513e-06 0.00746385)
(2.12781e-06 -1.60608e-06 0.0074732)
(2.50147e-06 -1.69093e-06 0.00747643)
(2.86148e-06 -1.66074e-06 0.00747714)
(1.58808e-06 -1.48126e-06 0.00744623)
(1.96414e-06 -1.61108e-06 0.00746397)
(2.45251e-06 -1.6984e-06 0.00747094)
(2.99562e-06 -1.73557e-06 0.00747303)
(1.73155e-06 -1.03059e-06 0.00747278)
(1.91498e-06 -1.24267e-06 0.00747693)
(2.04608e-06 -1.38137e-06 0.00747786)
(2.14167e-06 -1.45412e-06 0.00747777)
(1.5932e-06 -1.00243e-06 0.00747037)
(1.77069e-06 -1.19504e-06 0.00747602)
(1.97642e-06 -1.28592e-06 0.00747758)
(2.13384e-06 -1.30285e-06 0.00747771)
(1.44861e-06 -9.80549e-07 0.00746323)
(1.6373e-06 -1.14338e-06 0.00747267)
(1.93273e-06 -1.22292e-06 0.00747592)
(2.16785e-06 -1.23196e-06 0.00747664)
(1.24934e-06 -9.46703e-07 0.00744546)
(1.50287e-06 -1.0415e-06 0.00746325)
(1.87246e-06 -1.13471e-06 0.00747028)
(2.20565e-06 -1.18757e-06 0.0074724)
(1.2754e-06 -8.16427e-07 0.00747229)
(1.42173e-06 -9.45011e-07 0.00747652)
(1.52034e-06 -1.03381e-06 0.00747751)
(1.60706e-06 -1.09189e-06 0.00747748)
(1.19247e-06 -7.53638e-07 0.00746988)
(1.33057e-06 -8.82423e-07 0.00747558)
(1.47634e-06 -9.51988e-07 0.0074772)
(1.58179e-06 -9.69361e-07 0.00747738)
(1.09416e-06 -6.84627e-07 0.00746267)
(1.22846e-06 -8.08747e-07 0.00747217)
(1.43006e-06 -8.80316e-07 0.00747548)
(1.58035e-06 -9.04553e-07 0.00747625)
(9.63489e-07 -6.16433e-07 0.00744481)
(1.11894e-06 -6.95244e-07 0.00746266)
(1.37151e-06 -7.74968e-07 0.00746974)
(1.57696e-06 -8.30024e-07 0.00747194)
(9.09517e-07 -6.0116e-07 0.00747192)
(1.01842e-06 -6.80056e-07 0.0074762)
(1.08633e-06 -7.36808e-07 0.00747725)
(1.15015e-06 -7.81859e-07 0.00747728)
(8.5899e-07 -5.42232e-07 0.00746949)
(9.59543e-07 -6.26589e-07 0.00747523)
(1.05614e-06 -6.78484e-07 0.0074769)
(1.12172e-06 -6.95267e-07 0.00747713)
(7.93609e-07 -4.73287e-07 0.00746224)
(8.86194e-07 -5.5936e-07 0.00747177)
(1.01563e-06 -6.18316e-07 0.00747513)
(1.10772e-06 -6.45529e-07 0.00747597)
(7.0869e-07 -4.0057e-07 0.00744432)
(8.0447e-07 -4.63748e-07 0.0074622)
(9.64619e-07 -5.27373e-07 0.00746933)
(1.08964e-06 -5.75713e-07 0.00747161)
(6.1432e-07 -3.9591e-07 0.00747165)
(6.89451e-07 -4.42386e-07 0.00747597)
(7.34017e-07 -4.76063e-07 0.00747706)
(7.71309e-07 -5.05368e-07 0.00747714)
(5.84265e-07 -3.52496e-07 0.0074692)
(6.52183e-07 -4.05635e-07 0.00747498)
(7.12882e-07 -4.41089e-07 0.00747668)
(7.51184e-07 -4.55699e-07 0.00747697)
(5.42961e-07 -2.9988e-07 0.00746193)
(6.03663e-07 -3.56096e-07 0.00747149)
(6.82744e-07 -3.98351e-07 0.00747489)
(7.36393e-07 -4.21552e-07 0.00747578)
(4.90614e-07 -2.42024e-07 0.00744398)
(5.47304e-07 -2.87422e-07 0.00746188)
(6.44251e-07 -3.33653e-07 0.00746906)
(7.16874e-07 -3.70443e-07 0.00747139)
(3.934e-07 -1.80017e-07 0.00747148)
(4.43306e-07 -2.03407e-07 0.00747582)
(4.73216e-07 -2.20025e-07 0.00747695)
(4.93008e-07 -2.35068e-07 0.00747707)
(3.78272e-07 -1.55736e-07 0.00746902)
(4.22759e-07 -1.84383e-07 0.00747481)
(4.60255e-07 -2.05103e-07 0.00747655)
(4.83289e-07 -2.15482e-07 0.00747687)
(3.55846e-07 -1.27247e-07 0.00746173)
(3.95481e-07 -1.57875e-07 0.00747131)
(4.41364e-07 -1.83541e-07 0.00747474)
(4.71627e-07 -2.00036e-07 0.00747567)
(3.2622e-07 -9.45681e-08 0.00744376)
(3.62218e-07 -1.2064e-07 0.00746168)
(4.16186e-07 -1.49864e-07 0.00746889)
(4.55567e-07 -1.75716e-07 0.00747126)
(2.89091e-07 5.725e-08 0.00747136)
(3.31964e-07 4.99975e-08 0.00747573)
(3.62749e-07 4.39196e-08 0.00747689)
(3.81803e-07 3.73412e-08 0.00747703)
(2.84491e-07 6.39845e-08 0.0074689)
(3.23747e-07 5.26801e-08 0.00747472)
(3.55268e-07 4.23117e-08 0.00747649)
(3.75105e-07 3.38789e-08 0.00747684)
(2.7449e-07 6.60661e-08 0.00746162)
(3.10738e-07 5.3321e-08 0.00747122)
(3.43344e-07 3.94562e-08 0.00747467)
(3.64372e-07 2.66707e-08 0.00747563)
(2.57165e-07 6.85372e-08 0.00744365)
(2.93951e-07 5.54163e-08 0.00746158)
(3.2719e-07 3.8227e-08 0.00746882)
(3.49652e-07 1.98656e-08 0.00747122)
(-0.00165464 0.000426529 0.0162559)
(-0.000619166 -0.000260718 0.00587084)
(-0.00138734 0.000257794 0.0187954)
(-0.000138028 -0.000114654 0.0113725)
(-0.00102658 -0.000318112 0.00829401)
(-0.00134602 0.000976076 0.0101038)
(-0.000652237 0.00037181 0.00948508)
(-0.000250432 0.000322969 0.0132347)
(-0.000630001 0.00114204 0.011635)
(-0.000740507 0.000836224 0.0123455)
(-0.0014035 0.0014008 0.0120271)
(-0.000175284 0.000205826 0.0109965)
(-0.00129772 0.00054187 0.0141278)
(7.53879e-05 -0.000407138 0.00891192)
(-0.00113573 0.000610707 0.0139906)
(-0.000833686 -0.000321184 0.0111989)
(2.11055e-05 0.000407496 0.0259657)
(-0.00147355 0.000908218 0.0167938)
(0.00118559 -0.000147317 0.0125848)
(4.52825e-05 0.000584643 0.00382761)
(-6.95268e-05 0.00129791 0.0192688)
(-0.000255942 0.000313122 0.00454594)
(0.000351064 0.000987916 0.00891839)
(0.000247584 -0.000818162 0.00598538)
(-0.000407389 3.56103e-05 0.00776645)
(-0.000818213 0.00146598 0.0262416)
(-0.00062543 0.000676313 0.0160752)
(-0.000449484 -0.00138909 0.0137486)
(6.93497e-05 -0.00017667 0.0179323)
(-0.000265502 0.000600249 0.0117907)
(-0.00103109 -0.00074755 0.0169766)
(0.000345031 -8.10845e-06 0.0106408)
(-8.59372e-05 0.000878089 0.00590076)
(0.00025054 0.00296001 0.0198892)
(0.000446027 0.000631056 0.0182857)
(-0.000867398 0.00170647 0.0348435)
(0.0001274 0.00227951 0.0144055)
(2.71011e-05 0.000698075 0.0184623)
(-0.000508855 0.000277126 0.00886185)
(-0.00131537 -3.83997e-05 0.0304059)
(-0.000242505 0.000129991 0.0192823)
(0.000163817 -0.000360365 0.00910089)
(0.000498692 -0.000408024 0.0252343)
(-0.000253399 0.000625407 0.0111555)
(-0.000267985 -0.000282424 0.0192548)
(-0.000522362 -8.23622e-05 0.0256171)
(0.00122404 -0.000314106 0.0182103)
(-0.0010252 0.000863115 0.0144784)
(0.00010673 0.000413901 0.016001)
(-0.000284331 -0.000435517 0.0112731)
(-0.000826258 3.4806e-05 0.00858153)
(0.000650109 -0.00118783 0.0238334)
(0.00105218 -0.00240405 0.0261632)
(0.000391632 0.000968198 0.0270461)
(-0.00071767 -9.22264e-05 0.0112666)
(0.000903185 0.0018087 0.0146285)
(0.000736569 0.000317209 0.0170898)
(0.000325129 0.00184141 0.0239467)
(0.000973102 -0.000766337 0.0237598)
(-1.78979e-05 0.00152149 0.0134051)
(0.000592265 0.000852697 0.0220992)
(-0.000314514 0.000249991 0.00914937)
(0.000445616 -0.000776615 0.0162424)
(0.000489956 0.0002148 0.0249539)
(0.000267789 -0.00352396 0.0353361)
(-0.00045204 -0.00180315 0.0180788)
(-0.00124955 0.000124319 0.0245797)
(0.0011472 0.00165854 0.0179257)
(-1.67219e-05 -0.00025444 0.00326777)
(0.000118729 -0.000431 0.0102468)
(0.00102816 0.000374171 0.0120723)
(9.19338e-05 0.00117846 0.00923624)
(0.000105423 -0.000362689 0.00860193)
(0.000475319 0.000637979 0.015701)
(0.00268105 7.04422e-05 0.0280168)
(0.000320295 0.00107189 0.0182744)
(0.000576163 0.000409966 0.0197136)
(0.000581522 0.000868524 0.0341925)
(0.000709926 -1.11208e-05 0.00769956)
(0.000561476 0.000728248 0.0152833)
(-5.33516e-05 -1.27165e-05 0.00103622)
(-0.000342982 0.000135873 0.0057538)
(-0.000135725 0.000969288 0.00587134)
(-0.000368768 -8.33527e-05 0.00336603)
(-0.000168354 -0.00170131 0.0159054)
(0.000430253 -0.000395025 0.013155)
(-0.000261805 -0.000296005 0.00728859)
(1.91744e-05 -0.00375271 0.0188953)
(0.000469552 -0.000583361 0.0100842)
(-0.000435154 0.000303319 0.011446)
(-0.00189293 -0.0003691 0.0159698)
(-3.93107e-05 -1.012e-06 0.00048145)
(0.00108063 0.000106172 0.0141061)
(0.000166666 0.000357297 0.00561513)
(-2.92108e-05 0.000509505 0.00735594)
(0.000655483 0.00521108 0.0206287)
(-0.000102895 0.000287361 0.00982407)
(5.35878e-05 0.000120949 0.0101445)
(-0.000768749 -0.00116595 0.0122184)
(4.62369e-05 -0.000116175 0.011844)
(0.000208353 0.000503648 0.00933617)
(-4.96725e-05 3.14664e-05 0.0079407)
(-4.1322e-05 -9.37727e-05 0.0114591)
(0.00183407 0.000750416 0.00807565)
(0.00368236 -0.000122368 0.00625855)
(-1.16936e-05 -0.000384475 0.00994002)
(0.00106293 0.000172667 0.0161693)
(0.0002813 -4.23378e-05 0.00236565)
(-8.09317e-05 -9.80106e-05 0.0118416)
(0.000311492 8.12731e-05 0.0178031)
(0.00366595 0.00160034 0.00619689)
(0.000423541 -0.00176411 0.0199271)
(-0.000274672 0.00028095 0.0218769)
(1.24617e-05 -0.000124272 0.0153573)
(-0.000277435 -0.000250636 0.0147086)
(-8.52509e-05 -2.24682e-05 0.0146661)
(-0.000382534 0.000444456 0.0169348)
(-8.61114e-05 -0.000224728 0.0139644)
(-0.000229595 -0.000102989 0.0137502)
(-0.000151468 -0.000334747 0.0150874)
(-0.000217298 -4.2131e-05 0.012721)
(-7.64203e-05 -0.000619265 0.0162663)
(-0.000322462 0.000125571 0.0174354)
(9.04212e-05 -0.000983924 0.0156937)
(-0.000384579 -0.000345202 0.0130751)
(0.000130117 -0.000310919 0.0167433)
(-0.000169359 0.000338451 0.0123026)
(-0.000151791 -0.000657684 0.019662)
(0.000133613 -7.82313e-05 0.00449137)
(0.000652222 -0.000269077 0.003689)
(0.000107303 -0.000481995 0.00364018)
(0.00017424 -0.000584421 0.00378089)
(-0.000132803 0.000304048 0.00399403)
(0.000496362 -0.000292576 0.00366957)
(-5.1707e-05 -0.000386691 0.00375925)
(-0.000337069 -0.000721195 0.00412102)
(-0.000239083 6.15789e-05 0.00340453)
(0.000246675 -0.000493643 0.00407193)
(-0.000239095 -7.60705e-06 0.00417463)
(6.12603e-05 -0.000746297 0.0048041)
(-0.000160851 -0.000124629 0.00332001)
(0.000331831 -0.000125652 0.00437545)
(-0.000313603 0.000241998 0.00336366)
(-9.24289e-05 -0.000358258 0.0054918)
(-4.67199e-05 -7.31911e-05 0.00892552)
(9.39994e-05 -0.000236584 0.00859393)
(-8.59158e-05 -0.000327861 0.00845728)
(-2.84977e-05 -0.000404096 0.00856075)
(-0.000157299 -8.09598e-06 0.00879431)
(2.35735e-05 -0.00025371 0.00866037)
(-0.000175515 -0.000267616 0.00855842)
(-0.000150936 -0.000431776 0.00884428)
(-0.000255326 -2.35983e-05 0.00855689)
(-7.4586e-05 -0.000230082 0.00879739)
(-0.000279764 -4.26357e-05 0.00869327)
(-4.57256e-05 -0.000330178 0.0091444)
(-0.000245537 -0.000110616 0.00841359)
(-7.05051e-05 -0.000104471 0.00882742)
(-0.000327443 3.84573e-05 0.00828544)
(-8.47869e-05 -0.000137779 0.00928007)
(5.12028e-05 -0.000103658 0.00715754)
(9.69871e-05 -0.000135082 0.00714046)
(-7.13419e-06 -0.000153531 0.00714531)
(-8.98011e-06 -0.000194265 0.00723485)
(4.30258e-06 -6.63993e-05 0.00709115)
(8.01513e-05 -0.000125478 0.0071597)
(-3.946e-05 -0.000123181 0.00719226)
(-3.11988e-05 -0.000206659 0.00736725)
(-3.28306e-05 -6.87839e-05 0.00696991)
(5.5852e-05 -0.000116693 0.00715738)
(-7.77542e-05 -6.2739e-05 0.00718352)
(-6.99968e-06 -0.00017687 0.00745403)
(-5.61588e-05 -6.67114e-05 0.00682069)
(3.57548e-05 -4.72477e-05 0.00707285)
(-0.000103576 -2.144e-05 0.00696405)
(-1.75205e-05 -7.98314e-05 0.00741795)
(-1.77894e-06 -4.80016e-05 0.00748225)
(1.4552e-05 -7.01322e-05 0.00747304)
(-1.50047e-05 -7.75098e-05 0.00746456)
(1.94291e-07 -9.7508e-05 0.00750192)
(-2.14927e-05 -4.04973e-05 0.00744704)
(5.70554e-06 -6.79264e-05 0.00746801)
(-3.03648e-05 -6.45617e-05 0.00746527)
(-3.0653e-06 -0.000100012 0.00753914)
(-4.2578e-05 -3.1593e-05 0.0073719)
(-7.08216e-06 -5.09316e-05 0.00742905)
(-4.9306e-05 -3.08468e-05 0.00741742)
(1.0736e-06 -7.38425e-05 0.00753687)
(-5.11826e-05 -3.4339e-05 0.00726932)
(-1.7756e-05 -2.59094e-05 0.00734473)
(-6.23693e-05 -1.33096e-05 0.00729098)
(-2.53702e-06 -2.97818e-05 0.0074693)
(2.45617e-06 -2.87398e-05 0.00741775)
(9.32489e-06 -3.51141e-05 0.00744463)
(-2.35522e-06 -3.66906e-05 0.00745676)
(6.03338e-06 -4.54763e-05 0.00747934)
(-5.44919e-06 -2.52564e-05 0.00737226)
(6.03256e-06 -3.33194e-05 0.00741765)
(-8.76098e-06 -3.17441e-05 0.00743792)
(6.24468e-06 -4.70094e-05 0.00747921)
(-1.32396e-05 -2.20325e-05 0.00729438)
(1.38156e-06 -2.58349e-05 0.00735535)
(-1.6785e-05 -1.89764e-05 0.00737557)
(6.93491e-06 -3.57046e-05 0.00743865)
(-1.90669e-05 -1.89678e-05 0.00718144)
(-4.30189e-06 -1.25824e-05 0.00724558)
(-2.29774e-05 -8.8328e-06 0.00725135)
(5.50188e-06 -1.42375e-05 0.00733583)
(9.78238e-07 -1.4725e-05 0.00741996)
(4.88601e-06 -1.74445e-05 0.00744734)
(1.83392e-06 -1.75592e-05 0.00745973)
(7.14785e-06 -2.14599e-05 0.00747193)
(-2.69202e-06 -1.3e-05 0.00737343)
(3.14171e-06 -1.62619e-05 0.00741173)
(-1.12554e-06 -1.5413e-05 0.00743119)
(7.46038e-06 -2.20884e-05 0.00745334)
(-6.49311e-06 -1.0999e-05 0.00729731)
(6.31475e-07 -1.23586e-05 0.00734208)
(-4.88465e-06 -9.94647e-06 0.00736404)
(7.38577e-06 -1.68011e-05 0.00739693)
(-9.44172e-06 -9.26449e-06 0.00718936)
(-2.58826e-06 -6.12741e-06 0.00722996)
(-8.12038e-06 -4.47573e-06 0.00724518)
(6.62782e-06 -6.4472e-06 0.0072852)
(1.21588e-06 -7.77296e-06 0.0074173)
(3.48593e-06 -8.96257e-06 0.00744604)
(3.23363e-06 -8.93731e-06 0.00745913)
(6.52572e-06 -1.05188e-05 0.00746697)
(-5.35202e-07 -6.77054e-06 0.0073689)
(2.47833e-06 -8.19945e-06 0.00740605)
(1.80498e-06 -7.71337e-06 0.00742609)
(6.6224e-06 -1.06156e-05 0.00744045)
(-2.34763e-06 -5.60731e-06 0.0072918)
(1.14571e-06 -6.06628e-06 0.00733263)
(-1.32863e-08 -5.00059e-06 0.00735638)
(6.37159e-06 -8.01168e-06 0.00737699)
(-3.86335e-06 -4.29212e-06 0.0071834)
(-5.55058e-07 -2.74331e-06 0.00721798)
(-1.64136e-06 -1.91832e-06 0.00723773)
(5.94153e-06 -2.87806e-06 0.00726057)
(1.31581e-06 -4.20239e-06 0.0074157)
(2.7463e-06 -4.77431e-06 0.00744448)
(3.3088e-06 -4.83267e-06 0.00745784)
(5.30533e-06 -5.44771e-06 0.00746376)
(4.31764e-07 -3.47615e-06 0.00736652)
(2.06375e-06 -4.16818e-06 0.00740251)
(2.52404e-06 -4.04537e-06 0.00742282)
(5.26458e-06 -5.30796e-06 0.00743364)
(-4.96423e-07 -2.69886e-06 0.00728902)
(1.27384e-06 -2.95888e-06 0.00732746)
(1.56749e-06 -2.54454e-06 0.00735181)
(5.03559e-06 -3.91056e-06 0.00736696)
(-1.30066e-06 -1.77821e-06 0.00718059)
(3.65438e-07 -1.11198e-06 0.00721175)
(7.38339e-07 -6.95011e-07 0.00723281)
(4.7947e-06 -1.26335e-06 0.0072483)
(1.27148e-06 -2.37763e-06 0.0074142)
(2.22083e-06 -2.65604e-06 0.00744293)
(2.85675e-06 -2.7482e-06 0.00745637)
(4.0593e-06 -3.03575e-06 0.0074616)
(8.04234e-07 -1.81481e-06 0.00736462)
(1.74906e-06 -2.16469e-06 0.00739999)
(2.37617e-06 -2.20861e-06 0.00742042)
(3.95615e-06 -2.7962e-06 0.00742987)
(3.01636e-07 -1.26983e-06 0.00728688)
(1.26702e-06 -1.43162e-06 0.00732412)
(1.85021e-06 -1.32446e-06 0.00734878)
(3.77854e-06 -1.97551e-06 0.0073617)
(-1.47398e-07 -5.97017e-07 0.00717838)
(7.68811e-07 -3.25733e-07 0.00720792)
(1.42929e-06 -1.63012e-07 0.0072295)
(3.66037e-06 -5.39651e-07 0.00724199)
(1.11136e-06 -1.43259e-06 0.00741299)
(1.74899e-06 -1.56419e-06 0.00744166)
(2.28423e-06 -1.66302e-06 0.00745516)
(3.01441e-06 -1.79691e-06 0.00746022)
(8.54978e-07 -9.8415e-07 0.00736321)
(1.43008e-06 -1.17385e-06 0.00739826)
(1.9785e-06 -1.26193e-06 0.00741873)
(2.8994e-06 -1.55537e-06 0.00742774)
(5.57943e-07 -5.83875e-07 0.00728535)
(1.12712e-06 -6.93234e-07 0.007322)
(1.67467e-06 -7.09213e-07 0.00734676)
(2.76806e-06 -1.04577e-06 0.00735887)
(2.97998e-07 -8.01443e-08 0.00717684)
(8.4898e-07 1.80782e-08 0.00720557)
(1.4582e-06 5.00994e-08 0.00722733)
(2.71649e-06 -2.20898e-07 0.00723867)
(9.15823e-07 -9.11222e-07 0.00741202)
(1.34454e-06 -9.7312e-07 0.00744068)
(1.73809e-06 -1.05704e-06 0.00745424)
(2.17887e-06 -1.13706e-06 0.0074593)
(7.59428e-07 -5.60528e-07 0.00736215)
(1.13055e-06 -6.69182e-07 0.00739704)
(1.53387e-06 -7.58261e-07 0.00741756)
(2.07798e-06 -9.26639e-07 0.00742646)
(5.71701e-07 -2.59386e-07 0.00728423)
(9.34123e-07 -3.37669e-07 0.00732061)
(1.35014e-06 -3.899e-07 0.00734541)
(1.98318e-06 -5.91362e-07 0.00735726)
(4.20129e-07 1.18768e-07 0.00717571)
(7.77796e-07 1.45512e-07 0.00720408)
(1.23703e-06 1.19334e-07 0.0072259)
(1.9631e-06 -8.94951e-08 0.00723683)
(7.19425e-07 -5.92188e-07 0.00741127)
(1.00374e-06 -6.37223e-07 0.00743995)
(1.27102e-06 -7.00065e-07 0.00745356)
(1.53698e-06 -7.53642e-07 0.00745868)
(6.13271e-07 -3.30976e-07 0.00736136)
(8.56018e-07 -4.03241e-07 0.00739619)
(1.13378e-06 -4.76355e-07 0.00741675)
(1.45951e-06 -5.83035e-07 0.00742567)
(4.91069e-07 -1.08128e-07 0.0072834)
(7.28428e-07 -1.65402e-07 0.00731967)
(1.01848e-06 -2.21874e-07 0.0073445)
(1.39073e-06 -3.52779e-07 0.00735632)
(4.00457e-07 1.72492e-07 0.00717489)
(6.39288e-07 1.68736e-07 0.0072031)
(9.60769e-07 1.23291e-07 0.00722495)
(1.38716e-06 -3.41977e-08 0.00723579)
(5.33216e-07 -3.82294e-07 0.00741073)
(7.18892e-07 -4.22185e-07 0.00743942)
(8.92107e-07 -4.66913e-07 0.00745308)
(1.05229e-06 -5.04561e-07 0.00745827)
(4.60126e-07 -1.98267e-07 0.00736078)
(6.1833e-07 -2.49592e-07 0.00739561)
(8.00748e-07 -3.03804e-07 0.0074162)
(9.94501e-07 -3.75398e-07 0.00742518)
(3.80884e-07 -4.02127e-08 0.00728281)
(5.35581e-07 -8.06332e-08 0.00731904)
(7.27363e-07 -1.28743e-07 0.0073439)
(9.48119e-07 -2.17089e-07 0.00735575)
(3.26699e-07 1.61492e-07 0.0071743)
(4.85809e-07 1.49382e-07 0.00720245)
(6.9848e-07 1.03625e-07 0.00722432)
(9.50225e-07 -1.1277e-08 0.00723518)
(3.72069e-07 -2.31174e-07 0.00741036)
(4.87667e-07 -2.61738e-07 0.00743906)
(5.94553e-07 -2.92725e-07 0.00745276)
(6.88099e-07 -3.18391e-07 0.00745801)
(3.23124e-07 -1.10848e-07 0.00736039)
(4.22549e-07 -1.44862e-07 0.00739522)
(5.35664e-07 -1.83095e-07 0.00741584)
(6.47882e-07 -2.30356e-07 0.00742487)
(2.73669e-07 -5.51911e-09 0.00728241)
(3.70833e-07 -3.35621e-08 0.00731863)
(4.89808e-07 -6.93625e-08 0.00734351)
(6.17288e-07 -1.28162e-07 0.0073554)
(2.41773e-07 1.29534e-07 0.00717391)
(3.4404e-07 1.15903e-07 0.00720203)
(4.75934e-07 7.87142e-08 0.00722393)
(6.20694e-07 -1.05969e-09 0.00723482)
(2.57399e-07 -9.01909e-08 0.00741013)
(3.25458e-07 -1.11494e-07 0.00743884)
(3.83954e-07 -1.32658e-07 0.00745257)
(4.33966e-07 -1.51205e-07 0.00745786)
(2.2576e-07 -2.60797e-08 0.00736016)
(2.86025e-07 -4.90292e-08 0.00739499)
(3.48583e-07 -7.53739e-08 0.00741563)
(4.07477e-07 -1.06354e-07 0.0074247)
(1.97337e-07 3.17876e-08 0.00728217)
(2.55299e-07 1.09062e-08 0.00731838)
(3.21236e-07 -1.64922e-08 0.00734328)
(3.87169e-07 -5.5371e-08 0.00735521)
(1.79205e-07 1.08032e-07 0.00717367)
(2.40165e-07 9.21941e-08 0.00720178)
(3.13385e-07 6.1144e-08 0.0072237)
(3.87852e-07 7.82793e-09 0.00723462)
(2.26295e-07 6.56288e-08 0.00741001)
(2.70619e-07 4.77094e-08 0.00743874)
(3.05328e-07 2.96693e-08 0.00745249)
(3.30929e-07 1.15231e-08 0.00745781)
(2.05637e-07 8.35793e-08 0.00736003)
(2.45015e-07 6.25784e-08 0.00739488)
(2.81341e-07 3.86808e-08 0.00741554)
(3.09663e-07 1.14586e-08 0.00742464)
(1.88101e-07 1.0023e-07 0.00728204)
(2.25444e-07 7.74258e-08 0.00731827)
(2.61638e-07 4.85262e-08 0.00734319)
(2.90929e-07 1.37313e-08 0.00735515)
(1.75914e-07 1.28114e-07 0.00717354)
(2.14753e-07 1.02183e-07 0.00720167)
(2.52657e-07 6.72633e-08 0.0072236)
(2.83165e-07 2.2543e-08 0.00723455)
(0.000880215 0.0016992 0.0124278)
(-0.00148856 0.00230134 0.0219841)
(-0.000736282 0.000390639 0.0078112)
(0.000563653 0.000612116 0.0141822)
(0.000268627 0.00162502 0.00632365)
(-0.000722829 0.00113786 0.0133755)
(-0.00015784 0.00150291 0.00953816)
(0.000363644 0.00164825 0.0117436)
(-0.00136986 0.0014805 0.0124449)
(-0.003106 0.00175457 0.0135051)
(-0.000654191 0.00135471 0.0087213)