/*--------------------------------*- C++ -*----------------------------------*\
| =========                 |                                                 |
| \\      /  F ield         | OpenFOAM: The Open Source CFD Toolbox           |
|  \\    /   O peration     | Version:  2506                                  |
|   \\  /    A nd           | Website:  www.openfoam.com                      |
|    \\/     M anipulation  |                                                 |
\*---------------------------------------------------------------------------*/
FoamFile
{
    version     2.0;
    format      ascii;
    arch        "LSB;label=32;scalar=64";
    class       volScalarField;
    location    "0.08";
    object      Ksl;
}
// * * * * * * * * * * * * * * * * * * * * * * * * * * * * * * * * * * * * * //

dimensions      [1 -3 -1 0 0 0 0];

internalField   nonuniform List<scalar> 
1152
(
229686
156511
90850
231780
120602
278574
222646
163347
128461
181308
210899
163191
254871
207477
157606
127265
168864
125151
203172
297426
231828
177306
167545
180864
246910
218834
142438
249660
152260
110782
177722
230501
295137
346651
201342
147793
182648
265609
199427
306287
277876
240537
314012
214854
217191
164823
317285
238616
221613
246894
283289
163403
201137
248355
358803
264837
371988
213141
218355
273355
141982
214496
189700
203091
157469
660548
178569
290329
181721
338851
199178
247372
255949
194343
388882
219372
257543
260430
163863
222341
229609
146767
218589
330597
197808
227320
189117
171816
255946
251922
244574
193492
126321
196925
288840
307234
53793.5
103180
76563.1
36192.3
84541
99156.5
53202.7
33158.2
56902.7
41087.8
54924.4
39694.2
62325.1
34800.2
29745.5
53616.3
0
0
0
0
0
0
0
0
0
0
0
0
0
0
0
0
0
0
0
0
0
0
0
0
0
0
0
0
0
0
0
0
0
0
0
0
0
0
0
0
0
0
0
0
0
0
0
0
0
0
0
0
0
0
0
0
0
0
0
0
0
0
0
0
0
0
0
0
0
0
0
0
0
0
0
0
0
0
0
0
0
0
0
0
0
0
0
0
0
0
0
0
0
0
0
0
0
0
0
0
0
0
0
0
0
0
0
0
0
0
0
0
0
0
0
0
0
0
0
0
0
0
0
0
0
0
0
0
0
0
0
0
0
0
0
0
0
0
0
0
0
0
0
0
0
0
0
0
0
0
0
0
0
0
0
0
0
0
0
0
0
0
0
0
0
0
0
0
0
0
0
0
0
0
0
0
0
0
0
0
0
0
0
0
0
0
0
0
0
0
0
0
0
0
0
0
0
0
0
0
0
0
0
0
0
0
0
0
0
0
0
0
0
0
0
0
0
0
0
0
0
0
0
0
0
0
0
0
0
0
0
0
0
0
0
0
0
0
0
0
0
0
0
0
0
0
0
0
0
0
0
0
0
0
0
0
0
0
0
0
0
0
0
0
0
0
0
0
0
0
0
0
160480
152690
199617
229948
181694
246607
185796
202239
189857
227560
148328
209262
221689
198912
148764
214116
197484
190618
175898
414906
176880
133247
207646
202911
160477
197107
157112
183631
214575
211681
231176
132683
457110
275358
210929
65704.5
331903
265929
302266
336153
295281
154526
230893
365795
209435
212323
199375
177111
237812
283393
233922
333332
349376
165382
263445
283166
309797
237108
176758
250534
231816
253242
150321
153492
160689
258667
144094
336576
208149
285847
226666
254103
189838
168699
224455
178250
245843
199360
204324
121301
234169
225059
168426
315736
344699
270168
183598
157674
130006
275737
177125
301969
438283
234304
225132
177674
26176.8
40388.5
51106.4
108203
72209.4
46039.1
29463
35137.4
37137.5
75848.6
53547.9
56098.9
50952.5
51031.2
120643
49010.9
0
0
0
0
0
0
0
0
0
0
0
0
0
0
0
0
0
0
0
0
0
0
0
0
0
0
0
0
0
0
0
0
0
0
0
0
0
0
0
0
0
0
0
0
0
0
0
0
0
0
0
0
0
0
0
0
0
0
0
0
0
0
0
0
0
0
0
0
0
0
0
0
0
0
0
0
0
0
0
0
0
0
0
0
0
0
0
0
0
0
0
0
0
0
0
0
0
0
0
0
0
0
0
0
0
0
0
0
0
0
0
0
0
0
0
0
0
0
0
0
0
0
0
0
0
0
0
0
0
0
0
0
0
0
0
0
0
0
0
0
0
0
0
0
0
0
0
0
0
0
0
0
0
0
0
0
0
0
0
0
0
0
0
0
0
0
0
0
0
0
0
0
0
0
0
0
0
0
0
0
0
0
0
0
0
0
0
0
0
0
0
0
0
0
0
0
0
0
0
0
0
0
0
0
0
0
0
0
0
0
0
0
0
0
0
0
0
0
0
0
0
0
0
0
0
0
0
0
0
0
0
0
0
0
0
0
0
0
0
0
0
0
0
0
0
0
0
0
0
0
0
0
0
0
0
0
0
0
0
0
0
0
0
0
0
0
0
0
0
0
0
0
242298
153240
246138
227839
154002
207884
196727
149446
148117
199000
176401
257648
266343
183568
301341
173551
214619
218200
105680
227929
193384
204374
146466
157204
265516
172993
131219
241241
222712
192308
172028
178298
285399
271937
367125
184815
235554
273939
240471
229225
147669
289926
111546
242585
263136
181653
331029
217993
324041
241648
221771
198393
263890
236864
192939
186489
157189
263128
235390
161565
285254
197423
210339
165368
303901
212890
269279
218564
270740
250331
283119
259021
180740
465553
148682
182400
143076
211980
448722
213388
134415
205351
178067
170353
200652
253646
140731
184668
139226
291779
205043
316366
314254
302150
259020
158577
35015
51223.3
65322.1
56381.7
28437.7
66981.2
20876
29183.4
30362.8
70351.9
34063.6
42601.6
19751.5
90713.8
64847.1
50071.8
0
0
0
0
0
0
0
0
0
0
0
0
0
0
0
0
0
0
0
0
0
0
0
0
0
0
0
0
0
0
0
0
0
0
0
0
0
0
0
0
0
0
0
0
0
0
0
0
0
0
0
0
0
0
0
0
0
0
0
0
0
0
0
0
0
0
0
0
0
0
0
0
0
0
0
0
0
0
0
0
0
0
0
0
0
0
0
0
0
0
0
0
0
0
0
0
0
0
0
0
0
0
0
0
0
0
0
0
0
0
0
0
0
0
0
0
0
0
0
0
0
0
0
0
0
0
0
0
0
0
0
0
0
0
0
0
0
0
0
0
0
0
0
0
0
0
0
0
0
0
0
0
0
0
0
0
0
0
0
0
0
0
0
0
0
0
0
0
0
0
0
0
0
0
0
0
0
0
0
0
0
0
0
0
0
0
0
0
0
0
0
0
0
0
0
0
0
0
0
0
0
0
0
0
0
0
0
0
0
0
0
0
0
0
0
0
0
0
0
0
0
0
0
0
0
0
0
0
0
0
0
0
0
0
0
0
0
0
0
0
0
0
0
0
0
0
0
0
0
0
0
0
0
0
0
0
0
0
0
0
0
0
0
0
0
0
0
0
0
0
0
0
)
;

boundaryField
{
    inlet
    {
        type            zeroGradient;
    }
    outlet
    {
        type            zeroGradient;
    }
    wall
    {
        type            zeroGradient;
    }
    procBoundary3to1
    {
        type            processor;
        value           nonuniform List<scalar> 
192
(
138683
221205
261175
296564
249656
294296
141328
146306
203036
346591
213661
282956
207447
179951
176027
319211
348266
140538
351897
142814
323959
234139
314773
174188
239575
99236
164313
47694.1
0
36384.2
520.998
0
0
0
0
0
0
0
0
0
0
0
0
0
0
0
0
0
0
0
0
0
0
0
0
0
0
0
0
0
0
0
0
0
0
0
0
0
0
0
0
0
0
0
0
0
0
0
0
0
0
0
0
0
0
0
0
0
0
0
0
0
0
0
0
0
141287
316451
118098
145838
155569
135058
221356
149169
214995
188206
211846
290204
208456
367660
158186
296494
189892
196414
192640
248952
319260
314216
342099
296565
98692
30159.1
74347
63604.2
0
0
0
0
0
0
0
0
0
0
0
0
0
0
0
0
0
0
0
0
0
0
0
0
0
0
0
0
0
0
0
0
0
0
0
0
0
0
0
0
0
0
0
0
0
0
0
0
0
0
0
0
0
0
0
0
0
0
0
0
0
0
0
0
0
0
0
0
)
;
    }
    procBoundary3to2
    {
        type            processor;
        value           nonuniform List<scalar> 
192
(
153371
206625
314910
144883
159269
187703
165177
230328
266872
453320
398481
325244
175201
418076
164677
557763
281525
278193
222327
208835
229447
340110
220172
500851
86236.5
91680.9
66643.5
50274.8
0
0
0
0
0
0
0
0
0
0
0
0
0
0
0
0
0
0
0
0
0
0
0
0
0
0
0
0
0
0
0
0
0
0
0
0
0
0
0
0
0
0
0
0
0
0
0
0
0
0
0
0
0
0
0
0
0
0
0
0
0
0
0
0
0
0
0
0
137329
202547
216759
142683
246189
247219
159716
160019
136083
176600
322019
279068
229786
226632
110866
160805
403009
331077
246972
153824
391884
190932
362262
172959
94006.2
66862.1
66947.6
123912
0
0
0
0
0
0
0
0
0
0
0
0
0
0
0
0
0
0
0
0
0
0
0
0
0
0
0
0
0
0
0
0
0
0
0
0
0
0
0
0
0
0
0
0
0
0
0
0
0
0
0
0
0
0
0
0
0
0
0
0
0
0
0
0
0
0
0
0
)
;
    }
}


// ************************************************************************* //
