/*--------------------------------*- C++ -*----------------------------------*\
| =========                 |                                                 |
| \\      /  F ield         | OpenFOAM: The Open Source CFD Toolbox           |
|  \\    /   O peration     | Version:  2506                                  |
|   \\  /    A nd           | Website:  www.openfoam.com                      |
|    \\/     M anipulation  |                                                 |
\*---------------------------------------------------------------------------*/
FoamFile
{
    version     2.0;
    format      ascii;
    arch        "LSB;label=32;scalar=64";
    class       surfaceScalarField;
    location    "0.08";
    object      phi;
}
// * * * * * * * * * * * * * * * * * * * * * * * * * * * * * * * * * * * * * //

dimensions      [0 3 -1 0 0 0 0];

oriented        oriented;

internalField   nonuniform List<scalar> 
3120
(
3.38384e-09
3.69121e-09
4.15539e-08
2.62158e-11
-3.51329e-09
6.32023e-08
-1.39741e-08
-3.68174e-09
7.59088e-08
3.63101e-09
3.01727e-08
-7.64437e-11
-3.27686e-09
1.35877e-09
5.79352e-08
9.9817e-10
2.01621e-09
4.02394e-08
-2.89158e-10
1.28274e-09
4.4155e-08
-2.50411e-10
5.45576e-08
-1.38895e-10
7.48505e-10
7.58944e-10
5.17847e-08
2.63565e-09
5.69956e-09
4.44218e-08
-1.67924e-09
1.68393e-09
5.33489e-08
2.78401e-09
4.55729e-08
5.84057e-10
3.87754e-09
4.66467e-08
-7.65065e-10
-2.82821e-09
6.42813e-08
-3.55554e-09
-3.52011e-09
5.3373e-08
-2.18986e-09
5.74286e-08
-5.25402e-09
-2.44915e-09
4.97911e-10
-1.55291e-09
4.6682e-08
5.66332e-10
3.8546e-09
5.77382e-08
1.07836e-08
6.10761e-09
5.11374e-08
-4.90541e-09
5.26981e-08
-2.07847e-09
5.69116e-09
-2.55796e-10
5.16609e-08
3.76187e-09
1.7569e-10
4.58477e-08
1.18809e-09
-1.26273e-10
5.29627e-08
2.74604e-09
4.59583e-08
2.1359e-09
5.14448e-09
7.45561e-09
3.58037e-08
2.79257e-09
4.96929e-09
4.19801e-08
1.749e-09
1.10282e-09
5.31633e-08
3.51259e-09
4.30764e-08
3.47898e-09
4.86797e-09
6.00519e-08
-4.34352e-09
-2.59909e-09
7.84299e-08
-1.71233e-09
7.44539e-10
4.64368e-08
4.69533e-09
4.25254e-08
1.29313e-08
6.22899e-09
-3.30676e-09
1.4588e-09
4.61666e-08
5.98632e-09
2.44281e-09
3.91383e-08
8.63177e-09
-2.34643e-09
4.93573e-08
-3.71523e-09
7.76603e-08
-3.80034e-09
-2.61383e-09
-5.67018e-11
6.30673e-08
-1.96512e-10
2.63403e-09
4.32392e-08
3.49594e-09
1.12148e-09
4.58023e-08
4.69962e-09
3.91147e-08
1.9247e-09
1.08863e-09
2.3793e-09
3.2682e-08
-1.44322e-09
-2.70223e-09
4.98482e-08
5.64036e-09
3.60386e-09
4.35974e-08
4.37635e-09
4.49098e-08
4.13018e-09
-4.32638e-09
7.28464e-08
-1.40947e-09
5.23651e-09
6.49735e-08
1.19123e-09
3.08031e-09
5.03956e-08
1.80118e-09
4.8192e-08
1.73393e-09
5.60752e-11
-3.78532e-09
-2.61335e-09
6.31809e-08
-3.09336e-10
-5.03969e-10
3.24349e-08
-3.51656e-09
8.3769e-10
5.29096e-08
5.55453e-09
5.81572e-08
2.39682e-09
-2.85023e-09
7.06268e-10
6.08135e-08
4.31132e-10
2.2014e-09
3.72525e-08
3.92686e-10
1.25182e-09
4.54266e-08
5.32653e-10
4.5642e-08
-1.11276e-09
-8.30106e-10
-1.30115e-09
3.42359e-08
-5.29294e-10
-2.84989e-09
5.45986e-08
4.39345e-10
4.35113e-09
3.95294e-08
-6.24131e-10
4.76392e-08
-1.13326e-09
-4.11609e-09
6.76964e-08
7.04967e-09
7.24884e-09
4.88451e-08
1.91355e-09
-4.88854e-09
6.63359e-08
5.48229e-10
5.1957e-08
-1.22548e-08
2.97704e-09
5.28687e-09
2.33276e-09
6.23637e-08
-2.87127e-09
-3.91147e-10
5.09134e-08
-3.74158e-09
5.92252e-09
5.47323e-08
7.65476e-09
3.61014e-08
7.66448e-09
1.45151e-09
2.47873e-09
5.93416e-08
2.57893e-09
-8.09312e-10
3.65432e-08
1.73108e-09
-3.17083e-09
5.53678e-08
-1.83132e-09
5.72116e-08
-3.52482e-10
-1.97366e-09
-2.65357e-10
4.22325e-08
3.13854e-10
8.87595e-10
5.06142e-08
1.91696e-09
-2.2744e-09
3.70299e-08
-5.65448e-09
5.54123e-08
-2.03292e-09
-3.45933e-10
7.25226e-08
-1.69371e-09
-1.45522e-09
5.11282e-08
-2.86249e-10
-1.26848e-09
5.9854e-08
4.02075e-09
4.34816e-08
8.20411e-10
7.32007e-10
-2.80605e-09
3.36526e-10
6.8437e-08
4.03118e-09
6.14422e-09
4.5442e-08
7.65845e-09
6.02856e-09
4.82751e-08
-1.02597e-09
6.08062e-08
-4.93597e-09
2.35032e-09
6.27356e-09
4.79811e-08
3.43557e-09
5.40665e-09
3.61956e-08
5.60827e-09
5.1492e-09
5.40745e-08
-5.47338e-10
6.14061e-08
9.35158e-10
1.63495e-09
-2.43645e-09
5.0948e-08
9.15275e-10
4.45354e-10
5.62952e-08
-7.39459e-10
6.87321e-11
4.37651e-08
4.72936e-10
5.5203e-08
-1.55047e-09
6.61204e-09
5.04937e-08
4.7002e-09
9.64296e-10
5.8327e-08
-1.10578e-09
-1.06439e-09
7.1072e-08
-9.12054e-09
4.42475e-08
-2.663e-09
1.30572e-09
1.95623e-09
2.37079e-09
5.59653e-08
-1.48531e-09
5.01774e-10
5.09352e-08
-3.16092e-09
4.87271e-12
4.65602e-08
2.07224e-09
5.90088e-08
-9.49438e-11
3.89407e-10
-7.99446e-10
4.88817e-08
-2.51092e-09
-2.87212e-09
4.24696e-08
-1.78122e-09
2.5955e-09
5.07538e-08
1.70065e-09
6.0023e-08
-2.68322e-11
-6.75636e-10
-9.47364e-10
5.10942e-08
1.68983e-09
-4.09396e-10
5.14669e-08
-1.11712e-09
-2.89423e-09
5.20616e-08
1.30462e-09
5.49646e-08
-4.8315e-10
-1.99719e-09
5.53744e-08
-3.98149e-09
-1.31734e-09
5.69562e-08
2.81214e-10
3.81549e-09
6.49309e-08
-1.88633e-09
5.19368e-08
1.84672e-09
-4.41696e-09
-9.85218e-10
6.25956e-09
5.1838e-08
-6.10377e-11
8.31185e-09
4.50478e-08
7.38285e-09
1.17539e-08
4.61853e-08
7.21078e-09
5.73436e-08
8.81384e-09
-2.8222e-10
5.91418e-09
4.58562e-08
2.5288e-10
6.42866e-09
4.38174e-08
3.30149e-09
7.58913e-09
5.18699e-08
6.41853e-09
5.87906e-08
5.32568e-09
5.61936e-10
4.54161e-09
5.06619e-08
5.52465e-10
5.7962e-09
5.21088e-08
2.72127e-09
5.40432e-09
5.20779e-08
6.4137e-09
5.40222e-08
3.66878e-09
8.62828e-10
5.32313e-08
4.85558e-09
3.28404e-10
5.79131e-08
5.37397e-09
3.5562e-09
6.02047e-08
6.90307e-09
5.16485e-08
6.30277e-09
3.956e-09
2.75462e-10
-5.28628e-09
4.70324e-08
-1.16701e-09
-5.79798e-09
4.50304e-08
-7.75235e-09
-9.47494e-09
4.54775e-08
-5.08816e-09
5.11565e-08
-4.07019e-09
-2.17632e-09
-4.88205e-09
4.62232e-08
-4.02231e-09
-6.09203e-09
4.59569e-08
-5.37683e-09
-5.63905e-09
4.93882e-08
-2.51604e-09
5.26327e-08
-1.79146e-09
-3.05694e-09
-3.60472e-09
4.89878e-08
-2.93655e-09
-4.36512e-09
5.02607e-08
-2.80884e-09
-4.57066e-09
5.08817e-08
-2.03692e-09
5.19017e-08
-1.16782e-09
-4.21746e-09
5.06376e-08
-2.43174e-09
-2.98648e-09
5.30631e-08
-7.46681e-10
-3.16686e-10
5.44262e-08
-1.46222e-09
5.19312e-08
-3.43879e-09
8.03133e-10
-5.05417e-10
-3.46693e-09
4.64314e-08
-1.80286e-09
-4.08616e-09
4.61923e-08
-4.59867e-09
-5.45207e-09
4.65826e-08
-3.54709e-09
4.91332e-08
-3.3406e-09
-1.70132e-09
-3.62878e-09
4.70514e-08
-2.89571e-09
-4.2957e-09
4.73605e-08
-3.50428e-09
-4.04278e-09
4.85871e-08
-2.44328e-09
5.01738e-08
-2.14953e-09
-2.30222e-09
-2.92022e-09
4.84805e-08
-2.31035e-09
-3.25752e-09
4.92303e-08
-2.21406e-09
-3.18947e-09
4.99319e-08
-1.92499e-09
5.06001e-08
-1.43098e-09
-2.79157e-09
4.95708e-08
-2.24324e-09
-2.08875e-09
5.06515e-08
-1.54926e-09
-7.95505e-10
5.14501e-08
-1.50675e-09
5.12403e-08
-1.97474e-09
-5.5158e-11
-5.96734e-10
-2.16963e-09
4.72417e-08
-1.43935e-09
-2.60586e-09
4.73245e-08
-2.50926e-09
-3.03026e-09
4.76853e-08
-2.46581e-09
4.88319e-08
-2.15079e-09
-1.16847e-09
-2.34757e-09
4.78188e-08
-1.80302e-09
-2.71594e-09
4.81053e-08
-2.18326e-09
-2.74929e-09
4.86865e-08
-2.24805e-09
4.94988e-08
-1.72608e-09
-1.51547e-09
-2.07254e-09
4.85884e-08
-1.73814e-09
-2.2885e-09
4.90255e-08
-1.77142e-09
-2.31109e-09
4.95269e-08
-2.01303e-09
5.00194e-08
-1.42573e-09
-1.78875e-09
4.9242e-08
-1.5999e-09
-1.72172e-09
4.9792e-08
-1.49623e-09
-1.38734e-09
5.03019e-08
-1.49734e-09
5.05705e-08
-1.8029e-09
-9.27495e-10
-5.05917e-10
-1.30921e-09
4.80148e-08
-9.83545e-10
-1.56122e-09
4.81115e-08
-1.43719e-09
-1.7189e-09
4.8373e-08
-1.56712e-09
4.89065e-08
-1.34497e-09
-7.90209e-10
-1.45693e-09
4.83649e-08
-1.1441e-09
-1.65458e-09
4.85524e-08
-1.35395e-09
-1.70086e-09
4.88783e-08
-1.53845e-09
4.93107e-08
-1.19429e-09
-9.83108e-10
-1.35794e-09
4.87859e-08
-1.17256e-09
-1.47947e-09
4.90395e-08
-1.21418e-09
-1.4876e-09
4.93553e-08
-1.38288e-09
4.96856e-08
-1.03579e-09
-1.12072e-09
4.91624e-08
-1.10146e-09
-1.17028e-09
4.94639e-08
-1.10224e-09
-1.06673e-09
4.97807e-08
-1.06989e-09
5.00469e-08
-1.14351e-09
-7.82207e-10
-3.77152e-10
-7.56506e-10
4.85127e-08
-6.34176e-10
-8.97311e-10
4.85871e-08
-8.29733e-10
-9.8302e-10
4.87509e-08
-9.61722e-10
4.90142e-08
-7.99856e-10
-5.22752e-10
-8.66197e-10
4.87113e-08
-7.19845e-10
-9.76624e-10
4.8829e-08
-8.23901e-10
-1.01733e-09
4.90171e-08
-9.74606e-10
4.92539e-08
-7.53705e-10
-6.30929e-10
-8.3488e-10
4.8944e-08
-7.55524e-10
-9.0609e-10
4.90937e-08
-7.84401e-10
-9.17835e-10
4.9285e-08
-8.81889e-10
4.94915e-08
-6.82702e-10
-7.07461e-10
4.91601e-08
-7e-10
-7.65801e-10
4.93327e-08
-7.16433e-10
-7.3158e-10
4.95259e-08
-6.97026e-10
4.97141e-08
-7.10831e-10
-5.69565e-10
-2.63361e-10
-4.42776e-10
4.88017e-08
-3.95344e-10
-5.21265e-10
4.88536e-08
-4.80923e-10
-5.72444e-10
4.89515e-08
-5.83092e-10
4.90885e-08
-4.66638e-10
-3.42112e-10
-5.13055e-10
4.89134e-08
-4.46141e-10
-5.74976e-10
4.89872e-08
-4.9441e-10
-6.04009e-10
4.90973e-08
-5.9704e-10
4.92299e-08
-4.56089e-10
-4.02973e-10
-5.04344e-10
4.90442e-08
-4.73645e-10
-5.45108e-10
4.91346e-08
-4.8692e-10
-5.5516e-10
4.92495e-08
-5.41377e-10
4.9374e-08
-4.24919e-10
-4.45786e-10
4.91692e-08
-4.32217e-10
-4.8419e-10
4.92715e-08
-4.45512e-10
-4.67085e-10
4.93885e-08
-4.34822e-10
4.95075e-08
-4.29785e-10
-3.71995e-10
-1.79972e-10
-2.66056e-10
4.89626e-08
-2.46167e-10
-3.10713e-10
4.89977e-08
-2.83716e-10
-3.42025e-10
4.90557e-08
-3.55827e-10
4.91302e-08
-2.73878e-10
-2.24345e-10
-3.08394e-10
4.90264e-08
-2.77182e-10
-3.43631e-10
4.90731e-08
-2.97661e-10
-3.62617e-10
4.91384e-08
-3.64309e-10
4.9214e-08
-2.73333e-10
-2.59076e-10
-3.06592e-10
4.91013e-08
-2.9564e-10
-3.29705e-10
4.91572e-08
-2.98556e-10
-3.36589e-10
4.92264e-08
-3.30367e-10
4.93004e-08
-2.58974e-10
-2.83085e-10
4.91745e-08
-2.67093e-10
-3.0315e-10
4.92369e-08
-2.75105e-10
-2.90304e-10
4.93079e-08
-2.68713e-10
4.93802e-08
-2.60307e-10
-2.33028e-10
-1.22305e-10
-1.64405e-10
4.90506e-08
-1.55026e-10
-1.90387e-10
4.9074e-08
-1.70966e-10
-2.09476e-10
4.91088e-08
-2.19935e-10
4.91509e-08
-1.63062e-10
-1.48077e-10
-1.89117e-10
4.9088e-08
-1.73937e-10
-2.09392e-10
4.91179e-08
-1.81142e-10
-2.21188e-10
4.91573e-08
-2.23903e-10
4.92012e-08
-1.64445e-10
-1.68127e-10
-1.88863e-10
4.91319e-08
-1.8553e-10
-2.01892e-10
4.91671e-08
-1.83317e-10
-2.06101e-10
4.92091e-08
-2.02769e-10
4.92532e-08
-1.57255e-10
-1.816e-10
4.91755e-08
-1.66386e-10
-1.90185e-10
4.92144e-08
-1.70617e-10
-1.79349e-10
4.92576e-08
-1.66483e-10
4.93011e-08
-1.59289e-10
-1.43608e-10
-8.33285e-11
-1.04262e-10
4.90986e-08
-9.92531e-11
-1.19572e-10
4.91142e-08
-1.05366e-10
-1.31035e-10
4.91355e-08
-1.37806e-10
4.91601e-08
-9.88759e-11
-9.85301e-11
-1.18369e-10
4.91211e-08
-1.10617e-10
-1.30063e-10
4.91406e-08
-1.11889e-10
-1.37112e-10
4.91647e-08
-1.39107e-10
4.91907e-08
-1.00057e-10
-1.10134e-10
-1.18117e-10
4.91475e-08
-1.17582e-10
-1.25384e-10
4.917e-08
-1.13564e-10
-1.27732e-10
4.91958e-08
-1.25667e-10
4.92222e-08
-9.60804e-11
-1.1764e-10
4.9174e-08
-1.04715e-10
-1.20209e-10
4.91985e-08
-1.06708e-10
-1.11307e-10
4.92251e-08
-1.0388e-10
4.92513e-08
-9.86295e-11
-8.83809e-11
-5.7117e-11
-6.75843e-11
4.91247e-08
-6.46181e-11
-7.65938e-11
4.91353e-08
-6.63441e-11
-8.3352e-11
4.91487e-08
-8.74128e-11
4.91635e-08
-6.11402e-11
-6.60756e-11
-7.54167e-11
4.91387e-08
-7.13225e-11
-8.21333e-11
4.91516e-08
-7.02414e-11
-8.62078e-11
4.91666e-08
-8.73723e-11
4.91824e-08
-6.1796e-11
-7.27566e-11
-7.49112e-11
4.9155e-08
-7.53583e-11
-7.88971e-11
4.91696e-08
-7.12165e-11
-8.00756e-11
4.91856e-08
-7.86573e-11
4.92017e-08
-5.93718e-11
-7.68797e-11
4.91714e-08
-6.65881e-11
-7.6699e-11
4.91871e-08
-6.73621e-11
-6.97263e-11
4.92035e-08
-6.53454e-11
4.92194e-08
-6.17082e-11
-5.47577e-11
-3.93153e-11
-4.45326e-11
4.9139e-08
-4.2615e-11
-4.98004e-11
4.91462e-08
-4.25116e-11
-5.37322e-11
4.91549e-08
-5.60663e-11
4.91641e-08
-3.84982e-11
-4.4559e-11
-4.87108e-11
4.91479e-08
-4.65189e-11
-5.25539e-11
4.91565e-08
-4.47439e-11
-5.48493e-11
4.91661e-08
-5.54362e-11
4.91759e-08
-3.87479e-11
-4.83863e-11
-4.80404e-11
4.91582e-08
-4.87932e-11
-5.0185e-11
4.91677e-08
-4.52108e-11
-5.06958e-11
4.91779e-08
-4.96793e-11
4.91878e-08
-3.71589e-11
-5.06122e-11
4.91685e-08
-4.27165e-11
-4.93937e-11
4.91787e-08
-4.28745e-11
-4.41426e-11
4.9189e-08
-4.14106e-11
4.91987e-08
-3.89408e-11
-3.42674e-11
-2.70181e-11
-2.96574e-11
4.91465e-08
-2.82863e-11
-3.27044e-11
4.91516e-08
-2.75545e-11
-3.49585e-11
4.91574e-08
-3.6246e-11
4.91633e-08
-2.45804e-11
-3.00534e-11
-3.17553e-11
4.91524e-08
-3.05263e-11
-3.39302e-11
4.91583e-08
-2.8778e-11
-3.51829e-11
4.91647e-08
-3.54218e-11
4.91709e-08
-2.45795e-11
-3.22196e-11
-3.10294e-11
4.91591e-08
-3.17649e-11
-3.21437e-11
4.91656e-08
-2.89337e-11
-3.22982e-11
4.91722e-08
-3.1559e-11
4.91785e-08
-2.34845e-11
-3.3383e-11
4.91657e-08
-2.75337e-11
-3.19652e-11
4.91726e-08
-2.74131e-11
-2.81393e-11
4.91792e-08
-2.63506e-11
4.91853e-08
-2.46909e-11
-2.16112e-11
-1.83407e-11
-1.97495e-11
4.91503e-08
-1.8699e-11
-2.1452e-11
4.91541e-08
-1.78738e-11
-2.26897e-11
4.91581e-08
-2.33438e-11
4.91621e-08
-1.57413e-11
-2.00376e-11
-2.07014e-11
4.91545e-08
-1.99288e-11
-2.18799e-11
4.91587e-08
-1.84857e-11
-2.25131e-11
4.91631e-08
-2.25512e-11
4.91673e-08
-1.56095e-11
-2.12111e-11
-1.99968e-11
4.9159e-08
-2.05508e-11
-2.05278e-11
4.91636e-08
-1.84624e-11
-2.05007e-11
4.91681e-08
-1.99621e-11
4.91722e-08
-1.48344e-11
-2.17723e-11
4.91636e-08
-1.76449e-11
-2.05441e-11
4.91683e-08
-1.74304e-11
-1.78658e-11
4.91727e-08
-1.66714e-11
4.91767e-08
-1.55726e-11
-1.35998e-11
-1.20389e-11
-1.278e-11
4.91522e-08
-1.20497e-11
-1.36692e-11
4.91551e-08
-1.13481e-11
-1.42931e-11
4.91582e-08
-1.45798e-11
4.91611e-08
-9.8767e-12
-1.2925e-11
-1.31462e-11
4.91554e-08
-1.26671e-11
-1.37316e-11
4.91586e-08
-1.16049e-11
-1.40047e-11
4.91618e-08
-1.39447e-11
4.91648e-08
-9.70717e-12
-1.35083e-11
-1.25402e-11
4.91588e-08
-1.29311e-11
-1.27517e-11
4.91621e-08
-1.14994e-11
-1.26494e-11
4.91654e-08
-1.22687e-11
4.91683e-08
-9.16876e-12
-1.37402e-11
4.91621e-08
-1.09698e-11
-1.2836e-11
4.91655e-08
-1.0759e-11
-1.10663e-11
4.91686e-08
-1.02377e-11
4.91714e-08
-9.53433e-12
-8.36829e-12
-7.41921e-12
-7.60335e-12
4.91531e-08
-7.32456e-12
-8.01975e-12
4.91555e-08
-6.81038e-12
-8.3012e-12
4.9158e-08
-8.40697e-12
4.91604e-08
-5.86444e-12
-7.83336e-12
-7.70891e-12
4.91557e-08
-7.59935e-12
-7.9667e-12
4.91584e-08
-6.89322e-12
-8.0606e-12
4.91609e-08
-7.98371e-12
4.91633e-08
-5.72439e-12
-8.0915e-12
-7.27305e-12
4.91585e-08
-7.68629e-12
-7.33161e-12
4.91612e-08
-6.78392e-12
-7.22638e-12
4.91637e-08
-6.98324e-12
4.9166e-08
-5.38134e-12
-8.16608e-12
4.91611e-08
-6.31156e-12
-7.58471e-12
4.91638e-08
-6.1482e-12
-6.50256e-12
4.91663e-08
-5.81614e-12
4.91683e-08
-5.39482e-12
-4.89619e-12
-4.40303e-12
-3.90797e-12
-4.29468e-12
-4.12009e-12
-3.94785e-12
-4.25637e-12
-4.30271e-12
-3.37763e-12
-4.61307e-12
-3.94892e-12
-4.42426e-12
-4.06426e-12
-3.97598e-12
-4.09511e-12
-4.03364e-12
-3.29021e-12
-4.73008e-12
-3.71682e-12
-4.45049e-12
-3.71894e-12
-3.89403e-12
-3.63194e-12
-3.46273e-12
-3.07986e-12
-4.74627e-12
-3.23107e-12
-4.36788e-12
-3.11047e-12
-3.70592e-12
-2.88877e-12
-2.60658e-12
-2.77571e-12
2.402e-09
-2.21139e-09
5.10965e-08
-9.76528e-10
-2.55025e-09
4.94745e-08
-1.19502e-09
-4.74123e-10
3.92313e-08
3.00738e-09
1.77531e-08
1.69074e-09
1.75721e-09
-2.1449e-09
5.56867e-08
3.58509e-10
-4.3636e-09
5.63495e-08
-1.27209e-09
5.77038e-09
4.02967e-08
4.18137e-09
3.10652e-08
1.50775e-09
-1.62027e-09
-6.15995e-09
6.92047e-08
4.96732e-09
-2.25843e-09
5.22425e-08
-2.39242e-09
5.51077e-10
6.43439e-08
7.21178e-09
3.66103e-08
-8.18776e-10
2.57991e-10
6.04374e-08
5.98146e-09
6.10028e-08
1.04098e-09
5.93527e-08
5.88976e-08
-1.63088e-09
3.76275e-09
1.38709e-09
3.82037e-08
4.53396e-09
6.22784e-09
4.07631e-08
8.96138e-09
-1.58911e-09
4.10883e-08
-1.19859e-08
5.67243e-08
-5.09277e-09
5.42794e-09
2.36463e-09
4.70768e-08
-1.76178e-10
6.28457e-09
6.18969e-08
3.50366e-09
-2.15887e-10
3.52436e-08
-2.3715e-09
2.4457e-08
4.97508e-10
5.26263e-09
4.46159e-09
6.15097e-08
-2.55448e-09
-3.30994e-09
6.96541e-08
2.31687e-09
1.082e-10
5.91484e-08
4.39923e-09
3.16362e-08
5.20253e-10
2.93323e-09
6.59366e-08
1.16402e-09
6.04144e-08
3.1181e-09
5.76261e-08
6.81066e-08
-1.03956e-09
3.14913e-10
-2.69791e-09
3.73903e-08
3.50274e-09
1.7966e-09
3.69699e-08
3.90653e-09
9.69157e-10
4.15165e-08
2.83247e-10
6.29171e-08
-8.35623e-10
3.47907e-09
6.3101e-10
3.54436e-08
1.25798e-09
2.932e-09
6.29825e-08
-6.64518e-11
3.89808e-09
3.36391e-08
2.36954e-09
2.20465e-08
2.57753e-10
6.34277e-09
6.51542e-09
4.53648e-08
3.05382e-09
1.32069e-09
7.45543e-08
-9.46215e-10
8.98159e-09
5.80649e-08
4.44653e-09
2.90295e-08
-4.16579e-10
2.65715e-09
7.05886e-08
5.72706e-09
5.9967e-08
-2.55589e-09
7.55071e-08
7.0463e-08
-2.37211e-10
-1.94647e-09
-1.06133e-09
6.10336e-08
2.31618e-09
-3.3393e-09
3.79601e-08
-9.75655e-09
-1.80813e-10
5.43183e-08
1.50651e-08
2.03274e-08
5.51319e-09
-1.02783e-09
-1.95684e-09
4.57013e-08
3.66509e-09
-3.11579e-09
5.80661e-08
-1.99699e-09
-1.46616e-09
4.05865e-08
9.52142e-09
2.74576e-08
-1.86446e-09
-7.63859e-10
-6.73809e-09
6.12933e-08
2.32898e-09
-2.09826e-10
6.85554e-08
2.43349e-09
-1.06039e-10
5.66002e-08
3.6637e-09
4.04567e-08
-3.13603e-09
2.99726e-09
6.02287e-08
1.52775e-09
6.14112e-08
4.16189e-09
7.38848e-08
8.08899e-08
-4.14527e-09
1.52598e-09
-1.9835e-09
6.75802e-08
8.59866e-10
-6.60102e-09
4.49409e-08
-2.17401e-09
-1.52877e-09
6.29017e-08
2.00925e-09
1.83603e-08
-1.3958e-09
-2.67001e-09
2.75701e-09
4.79035e-08
4.93375e-09
-1.52589e-10
4.40138e-08
8.1594e-10
-8.61095e-09
5.17865e-08
-7.62838e-09
4.09352e-08
-3.02401e-09
-5.06804e-09
-1.68923e-08
1.03428e-07
1.07929e-09
-4.30548e-09
6.6561e-08
7.91536e-10
-9.87523e-09
5.81522e-08
-4.44152e-09
3.98353e-08
-1.77383e-09
6.35424e-10
4.72558e-08
-4.20877e-09
6.64826e-08
2.35718e-09
5.83396e-08
7.83216e-08
-7.22374e-10
-2.71485e-10
-5.12143e-09
7.83139e-08
-5.26235e-09
-2.00452e-09
5.08305e-08
2.34357e-09
2.75475e-09
4.34205e-08
-3.27068e-09
1.93264e-08
1.98517e-09
1.87735e-09
-5.73554e-09
4.78312e-08
-7.98876e-10
-1.07944e-08
5.548e-08
1.03434e-09
-1.37542e-08
6.64622e-08
-9.23319e-09
4.71017e-08
8.30442e-10
-2.35289e-09
4.81166e-09
9.80684e-08
1.23625e-09
-2.79411e-09
5.49715e-08
1.89924e-09
-1.62298e-08
5.99648e-08
-1.31729e-08
4.43324e-08
1.34181e-09
-1.77977e-09
6.63909e-08
-4.32139e-09
6.88427e-08
4.16186e-10
3.94333e-08
6.28873e-08
3.26805e-09
-7.6526e-11
2.63677e-09
6.38037e-08
-8.71702e-10
-1.5277e-09
5.34348e-08
1.85758e-09
-8.42848e-09
4.72328e-08
-6.8184e-09
3.46536e-08
-4.80496e-09
-1.2691e-09
-9.70002e-09
6.04348e-08
-1.98055e-09
-2.91181e-09
5.75752e-08
6.58978e-10
-5.76547e-09
6.11597e-08
-9.58444e-10
4.08766e-08
1.02312e-09
3.57571e-09
9.62184e-10
8.2925e-08
1.52041e-09
-4.08256e-09
5.81977e-08
1.09057e-09
-2.24592e-09
5.68748e-08
-4.12543e-09
4.88395e-08
-2.4954e-10
4.87023e-09
6.53108e-08
8.47369e-09
5.86476e-08
4.88148e-10
4.60927e-08
5.98116e-08
-1.90589e-11
2.90011e-10
6.85724e-09
5.99096e-08
-3.8252e-10
5.48723e-09
5.39934e-08
-8.01275e-10
4.76336e-09
4.97913e-08
8.32903e-09
3.30801e-08
-1.25427e-09
-2.9093e-10
4.14483e-09
6.19575e-08
-2.8975e-10
5.87608e-09
5.71845e-08
1.82771e-10
4.79203e-09
6.06579e-08
8.11898e-09
4.2563e-08
-1.29292e-09
1.08552e-09
5.8648e-09
7.90522e-08
8.64088e-10
5.05533e-09
5.92391e-08
9.63883e-10
3.2728e-09
5.8294e-08
5.60276e-09
5.35719e-08
-1.25283e-09
8.31704e-10
7.07334e-08
8.40989e-10
6.36934e-08
1.03474e-09
4.91714e-08
6.76318e-08
-1.18329e-09
-2.92783e-09
-3.28411e-10
5.53637e-08
-2.80802e-09
1.75692e-09
5.13696e-08
-1.76859e-10
6.74804e-10
4.50234e-08
-3.68073e-09
3.16179e-08
1.52762e-09
-2.91299e-09
-1.25104e-09
6.13231e-08
-4.219e-09
2.68589e-09
5.75613e-08
-1.37863e-09
5.14312e-09
5.33489e-08
-4.0986e-09
3.99191e-08
1.68365e-09
-5.94603e-10
3.30465e-09
7.19317e-08
-3.3548e-09
2.29361e-09
6.2391e-08
-3.70052e-09
6.49789e-09
5.72849e-08
-3.62355e-09
4.8716e-08
6.79984e-10
-1.05243e-09
7.31308e-08
-2.786e-09
6.77206e-08
-5.7067e-09
5.85901e-08
5.83635e-08
-6.17137e-11
-2.05107e-09
-1.27525e-09
5.30638e-08
-1.41841e-09
-5.66942e-10
4.97544e-08
-1.50809e-11
-7.55881e-10
4.28691e-08
-2.64385e-09
3.15611e-08
7.11586e-10
-1.95606e-09
-1.35129e-09
6.02719e-08
-1.9382e-09
3.21156e-10
5.66547e-08
-5.38461e-10
1.13818e-09
5.0055e-08
-2.74199e-09
3.87568e-08
7.22109e-10
-1.01686e-09
8.50222e-10
6.81204e-08
-1.8648e-09
6.25859e-10
6.29342e-08
-1.53939e-09
2.03671e-09
5.60603e-08
-2.12583e-09
4.62212e-08
3.39139e-10
-1.33001e-09
7.31048e-08
-1.81995e-09
6.88363e-08
-2.38508e-09
6.11918e-08
5.38441e-08
7.98141e-12
-1.54391e-09
-1.11766e-09
5.22925e-08
-1.20792e-09
-9.45973e-10
4.88678e-08
-5.1325e-10
-9.94567e-10
4.16719e-08
-1.80496e-09
3.07369e-08
3.13563e-10
-1.56014e-09
-7.1082e-10
5.95718e-08
-1.45297e-09
-3.13929e-10
5.59155e-08
-7.8951e-10
-1.81897e-10
4.85787e-08
-1.62818e-09
3.74962e-08
2.94504e-10
-1.32029e-09
2.07085e-10
6.67912e-08
-1.52393e-09
1.53176e-10
6.26708e-08
-1.14164e-09
3.59142e-10
5.51369e-08
-1.09861e-09
4.43703e-08
1.79424e-10
-1.44887e-09
7.31356e-08
-1.60231e-09
6.91429e-08
-1.43098e-09
6.13794e-08
5.1255e-08
5.91772e-11
-9.91866e-10
-8.80586e-10
5.1985e-08
-7.63826e-10
-8.73844e-10
4.84113e-08
-3.61463e-10
-8.94226e-10
4.1094e-08
-1.17938e-09
3.02812e-08
1.3032e-10
-1.03445e-09
-5.57271e-10
5.91421e-08
-8.72216e-10
-5.10049e-10
5.53894e-08
-4.70649e-10
-5.37e-10
4.78197e-08
-1.04711e-09
3.67753e-08
1.17914e-10
-1.00396e-09
-9.99034e-11
6.62114e-08
-9.36229e-10
-1.42112e-10
6.22351e-08
-6.01407e-10
-1.6865e-10
5.44334e-08
-6.71718e-10
4.33131e-08
8.01288e-11
-1.05114e-09
7.29849e-08
-9.90301e-10
6.89398e-08
-7.02846e-10
6.09231e-08
4.98416e-08
3.85072e-11
-6.32127e-10
-5.92157e-10
5.18509e-08
-4.93437e-10
-6.18608e-10
4.81748e-08
-2.52787e-10
-6.31086e-10
4.07876e-08
-7.26711e-10
2.9994e-08
5.04075e-11
-6.68286e-10
-3.97091e-10
5.89112e-08
-5.44124e-10
-4.19926e-10
5.50663e-08
-2.95127e-10
-4.55392e-10
4.73946e-08
-6.3152e-10
3.63413e-08
4.3545e-11
-6.74273e-10
-1.43639e-10
6.59188e-08
-5.76023e-10
-1.82149e-10
6.1899e-08
-3.40382e-10
-2.20919e-10
5.39629e-08
-3.92835e-10
4.27057e-08
2.79826e-11
-6.90306e-10
7.2819e-08
-5.9647e-10
6.86638e-08
-3.72745e-10
6.04783e-08
4.90604e-08
1.54271e-11
-3.98703e-10
-3.78383e-10
5.17834e-08
-3.10332e-10
-4.03038e-10
4.80439e-08
-1.6099e-10
-4.10527e-10
4.06139e-08
-4.38846e-10
2.98218e-08
2.04146e-11
-4.22022e-10
-2.66889e-10
5.87819e-08
-3.34105e-10
-2.94635e-10
5.48698e-08
-1.76953e-10
-3.18149e-10
4.71447e-08
-3.76211e-10
3.60861e-08
1.57054e-11
-4.29736e-10
-1.2088e-10
6.57536e-08
-3.47763e-10
-1.47272e-10
6.16696e-08
-1.91639e-10
-1.72778e-10
5.36612e-08
-2.30877e-10
4.23573e-08
1.13521e-11
-4.34781e-10
7.26821e-08
-3.5401e-10
6.84358e-08
-2.0132e-10
6.01528e-08
4.86218e-08
6.38421e-12
-2.51961e-10
-2.40233e-10
5.17441e-08
-1.92945e-10
-2.56719e-10
4.79664e-08
-9.8609e-11
-2.60074e-10
4.05111e-08
-2.6535e-10
2.97185e-08
1.01173e-11
-2.6492e-10
-1.7661e-10
5.87038e-08
-2.03602e-10
-1.96294e-10
5.47481e-08
-1.0406e-10
-2.08806e-10
4.69939e-08
-2.26108e-10
3.59351e-08
7.95259e-12
-2.69159e-10
-8.89308e-11
6.56506e-08
-2.08506e-10
-1.05105e-10
6.1518e-08
-1.08209e-10
-1.18828e-10
5.34709e-08
-1.37641e-10
4.21548e-08
5.85361e-12
-2.70015e-10
7.25778e-08
-2.09435e-10
6.82703e-08
-1.10646e-10
5.99353e-08
4.83702e-08
3.31887e-12
-1.60515e-10
-1.52758e-10
5.17186e-08
-1.2015e-10
-1.62581e-10
4.79182e-08
-5.97555e-11
-1.63528e-10
4.0448e-08
-1.62047e-10
2.96558e-08
6.09524e-12
-1.67097e-10
-1.15816e-10
5.86539e-08
-1.24626e-10
-1.27917e-10
5.46712e-08
-6.12615e-11
-1.3381e-10
4.69009e-08
-1.37474e-10
3.58446e-08
4.84221e-12
-1.6869e-10
-6.17025e-11
6.5583e-08
-1.2581e-10
-7.11437e-11
6.14187e-08
-6.19226e-11
-7.78806e-11
5.33513e-08
-8.32222e-11
4.20348e-08
3.74036e-12
-1.68081e-10
7.2502e-08
-1.25067e-10
6.81564e-08
-6.22028e-11
5.97947e-08
4.82225e-08
2.25535e-12
-1.03227e-10
-9.75081e-11
5.17013e-08
-7.54234e-11
-1.03072e-10
4.7887e-08
-3.63767e-11
-1.02912e-10
4.04082e-08
-1.00128e-10
2.96171e-08
4.13119e-12
-1.06344e-10
-7.54928e-11
5.8621e-08
-7.71127e-11
-8.258e-11
5.46217e-08
-3.65133e-11
-8.51111e-11
4.68425e-08
-8.46535e-11
3.57893e-08
3.34591e-12
-1.06595e-10
-4.14771e-11
6.55376e-08
-7.69347e-11
-4.69234e-11
6.13536e-08
-3.61736e-11
-5.01114e-11
5.32756e-08
-5.10418e-11
4.19623e-08
2.68943e-12
-1.05646e-10
7.24487e-08
-7.59057e-11
6.808e-08
-3.59397e-11
5.97046e-08
4.81336e-08
1.71722e-12
-6.69854e-11
-6.25891e-11
5.1689e-08
-4.783e-11
-6.56435e-11
4.78664e-08
-2.24074e-11
-6.50741e-11
4.03827e-08
-6.25519e-11
2.95928e-08
2.87749e-12
-6.833e-11
-4.9135e-11
5.85988e-08
-4.83101e-11
-5.3204e-11
5.45893e-08
-2.21299e-11
-5.41503e-11
4.68053e-08
-5.27486e-11
3.57549e-08
2.37972e-12
-6.80327e-11
-2.74778e-11
6.5507e-08
-4.77485e-11
-3.06182e-11
6.13109e-08
-2.1614e-11
-3.20876e-11
5.32273e-08
-3.17182e-11
4.19175e-08
1.95981e-12
-6.71488e-11
7.24118e-08
-4.68644e-11
6.80292e-08
-2.13456e-11
5.9647e-08
4.80792e-08
1.28507e-12
-4.38103e-11
-4.04032e-11
5.16801e-08
-3.06473e-11
-4.20225e-11
4.78524e-08
-1.40091e-11
-4.13717e-11
4.0366e-08
-3.94251e-11
2.95773e-08
1.97926e-12
-4.42842e-11
-3.20102e-11
5.85836e-08
-3.06345e-11
-3.4306e-11
5.4568e-08
-1.36561e-11
-3.45417e-11
4.67813e-08
-3.31765e-11
3.57333e-08
1.66106e-12
-4.38207e-11
-1.80987e-11
6.54861e-08
-3.00525e-11
-1.9902e-11
6.12828e-08
-1.32056e-11
-2.05464e-11
5.31964e-08
-1.99156e-11
4.18896e-08
1.38235e-12
-4.31046e-11
7.23866e-08
-2.93904e-11
6.79956e-08
-1.30104e-11
5.961e-08
4.80452e-08
9.03693e-13
-2.8723e-11
-2.61315e-11
5.16737e-08
-1.9753e-11
-2.69515e-11
4.78429e-08
-8.85661e-12
-2.63614e-11
4.0355e-08
-2.49528e-11
2.95674e-08
1.32911e-12
-2.8799e-11
-2.08212e-11
5.85731e-08
-1.95716e-11
-2.20935e-11
5.45538e-08
-8.54186e-12
-2.20411e-11
4.67659e-08
-2.09605e-11
3.57196e-08
1.12207e-12
-2.83434e-11
-1.1857e-11
6.5472e-08
-1.90881e-11
-1.28827e-11
6.12643e-08
-8.20722e-12
-1.3137e-11
5.31765e-08
-1.25646e-11
4.1872e-08
9.32494e-13
-2.7801e-11
7.23695e-08
-1.8623e-11
6.79735e-08
-8.08938e-12
5.95863e-08
4.80239e-08
5.92578e-13
-1.86297e-11
-1.67403e-11
5.16693e-08
-1.26514e-11
-1.71379e-11
4.78367e-08
-5.59829e-12
-1.66665e-11
4.0348e-08
-1.56839e-11
2.95611e-08
8.57999e-13
-1.85596e-11
-1.33735e-11
5.85661e-08
-1.24505e-11
-1.4071e-11
5.45447e-08
-5.3543e-12
-1.39331e-11
4.6756e-08
-1.3148e-11
3.5711e-08
7.28089e-13
-1.8191e-11
-7.64684e-12
6.54627e-08
-1.20938e-11
-8.22385e-12
6.12524e-08
-5.12593e-12
-8.30603e-12
5.3164e-08
-7.86464e-12
4.1861e-08
5.97966e-13
-1.78064e-11
7.23583e-08
-1.17849e-11
6.79593e-08
-5.06463e-12
5.95713e-08
4.80107e-08
3.5987e-13
-1.17056e-11
-1.03683e-11
5.16665e-08
-7.89271e-12
-1.0553e-11
4.78328e-08
-3.47994e-12
-1.0212e-11
4.03437e-08
-9.55352e-12
2.95573e-08
5.04054e-13
-1.1611e-11
-8.28244e-12
5.85618e-08
-7.73261e-12
-8.66063e-12
5.4539e-08
-3.30943e-12
-8.52063e-12
4.675e-08
-7.98633e-12
3.57058e-08
4.32544e-13
-1.13534e-11
-4.74665e-12
6.54568e-08
-7.49226e-12
-5.06788e-12
6.12451e-08
-3.16294e-12
-5.07497e-12
5.31563e-08
-4.75481e-12
4.18543e-08
3.45131e-13
-1.11033e-11
7.23512e-08
-7.2994e-12
6.79505e-08
-3.13142e-12
5.95621e-08
4.80027e-08
1.86361e-13
-6.95225e-12
-5.94421e-12
5.16649e-08
-4.69988e-12
-6.02494e-12
4.78305e-08
-2.11229e-12
-5.80048e-12
4.03411e-08
-5.39635e-12
2.95551e-08
2.1601e-13
-6.87853e-12
-4.74275e-12
5.85593e-08
-4.59063e-12
-4.94403e-12
5.45357e-08
-2.00468e-12
-4.84009e-12
4.67466e-08
-4.51173e-12
3.57028e-08
1.85116e-13
-6.7241e-12
-2.71421e-12
6.54535e-08
-4.44389e-12
-2.8927e-12
6.12408e-08
-1.91349e-12
-2.87558e-12
5.31519e-08
-2.67367e-12
4.18505e-08
1.34248e-13
-6.58243e-12
7.23471e-08
-4.32932e-12
6.79454e-08
-1.89171e-12
5.95569e-08
4.79981e-08
4.21302e-14
-4.08028e-12
-3.07465e-12
-2.79456e-12
-3.10673e-12
-1.32807e-12
-2.96839e-12
-2.71856e-12
-6.80044e-14
-4.02862e-12
-2.48126e-12
-2.71595e-12
-2.58684e-12
-1.25398e-12
-2.51775e-12
-2.32316e-12
-7.38748e-14
-3.94741e-12
-1.4331e-12
-2.62905e-12
-1.52927e-12
-1.19207e-12
-1.5038e-12
-1.39057e-12
-8.99038e-14
-3.87899e-12
-2.55762e-12
-1.16285e-12
-1.19983e-13
5.36467e-09
2.40742e-09
3.76205e-08
8.07506e-09
-2.56586e-09
5.50781e-08
-9.37315e-09
-1.94408e-09
8.62622e-08
5.03393e-09
5.09798e-08
1.16199e-09
-1.52844e-09
4.98497e-08
7.9567e-09
-9.28253e-10
4.43342e-08
2.08962e-09
-1.19227e-09
6.49301e-08
-6.19855e-09
8.20453e-08
2.96405e-09
-3.0352e-09
3.95568e-08
5.88014e-09
-3.61935e-09
4.66892e-08
-1.08448e-08
-2.90557e-09
7.25822e-08
1.49669e-09
4.06565e-08
3.94793e-09
2.02451e-08
2.15336e-10
3.48042e-08
2.35777e-09
3.64999e-08
4.96587e-08
-1.33248e-09
-4.72869e-11
3.84392e-08
5.70233e-09
3.52858e-09
4.34516e-08
8.01254e-09
6.94917e-09
8.70693e-08
3.31293e-09
6.57332e-08
2.96856e-09
4.67842e-09
4.42914e-08
2.04538e-09
4.76051e-09
4.40254e-08
-4.30317e-09
8.91568e-09
6.93122e-08
6.7064e-09
7.60403e-08
1.09843e-09
2.11153e-09
4.45043e-08
8.72455e-09
1.54146e-09
4.22822e-08
-2.78685e-09
-1.68898e-09
9.46983e-08
-2.84782e-10
4.56529e-08
5.31012e-10
2.29619e-08
-2.81302e-11
3.74023e-08
-2.71709e-10
3.55747e-08
4.7457e-08
1.07661e-10
2.95752e-09
3.4537e-08
-5.49744e-09
3.24605e-09
5.02009e-08
1.22663e-08
6.93917e-09
5.68965e-08
3.69659e-09
8.32707e-08
3.0069e-10
7.76847e-09
4.11044e-08
-1.33229e-09
3.05914e-09
4.58453e-08
2.33921e-09
7.7578e-09
6.48221e-08
6.735e-09
7.49124e-08
-6.58712e-09
1.27588e-09
6.17142e-08
7.84162e-10
3.05188e-09
3.49182e-08
1.53085e-08
2.50185e-09
8.54298e-08
1.71449e-09
6.65698e-08
1.5115e-09
2.19467e-08
1.39181e-09
4.08316e-08
6.38555e-09
3.26662e-08
5.49364e-08
7.92997e-10
7.96575e-10
3.71499e-08
-4.53302e-09
-3.66853e-10
6.02497e-08
-5.00407e-09
-1.06689e-09
6.08536e-08
-3.51118e-10
7.96668e-08
1.86559e-10
-4.11283e-10
4.1013e-08
-3.27458e-09
-8.27902e-10
4.97675e-08
-1.54366e-09
-1.27686e-09
6.33011e-08
2.15709e-09
7.26862e-08
-2.39912e-09
2.46716e-09
6.01016e-08
-1.62178e-09
3.50331e-09
2.98096e-08
9.15863e-09
3.35765e-09
7.00149e-08
2.40037e-09
7.61007e-08
-3.47912e-09
3.63832e-08
1.7144e-09
3.72769e-08
4.66093e-09
2.99413e-08
5.57764e-08
-6.78678e-09
-1.94917e-09
6.47161e-08
-3.31898e-09
-9.15938e-11
6.38325e-08
-1.62344e-09
8.55738e-10
6.72773e-08
-8.97727e-10
8.30647e-08
-4.60707e-09
-3.00873e-09