/*--------------------------------*- C++ -*----------------------------------*\
| =========                 |                                                 |
| \\      /  F ield         | OpenFOAM: The Open Source CFD Toolbox           |
|  \\    /   O peration     | Version:  2506                                  |
|   \\  /    A nd           | Website:  www.openfoam.com                      |
|    \\/     M anipulation  |                                                 |
\*---------------------------------------------------------------------------*/
FoamFile
{
    version     2.0;
    format      ascii;
    arch        "LSB;label=32;scalar=64";
    class       volVectorField;
    location    "0.08";
    object      U;
}
// * * * * * * * * * * * * * * * * * * * * * * * * * * * * * * * * * * * * * //

dimensions      [0 1 -1 0 0 0 0];

internalField   nonuniform List<vector> 
1152
(
(0.00058585 0.00116483 0.0109849)
(0.00136223 0.00112817 0.0168453)
(-0.00521084 0.00146696 0.0327838)
(-0.00176342 0.000296722 0.0122946)
(-0.000235837 0.001528 0.0244872)
(-4.95921e-05 -0.000250789 0.0097952)
(0.000103866 -0.000153963 0.0114784)
(1.10986e-08 0.00123705 0.0188218)
(0.00133279 0.000794297 0.0227372)
(0.00136867 0.00260091 0.0164801)
(0.000184396 0.000762939 0.0128539)
(-0.00052589 0.000534534 0.0191657)
(0.00177967 -0.000368421 0.00949867)
(0.000462784 0.000492276 0.0122691)
(-0.00159478 -0.000292131 0.0179923)
(-0.00313581 -0.00161313 0.0252751)
(0.000612732 0.00059726 0.043635)
(-0.000454924 0.000558983 0.0556224)
(0.00528846 -0.000651527 0.0355265)
(0.00181613 -0.000809919 0.0262991)
(0.00167543 -0.000928643 0.0335632)
(0.0028976 0.000616559 0.0429842)
(0.00159006 0.00202975 0.0439069)
(0.00104035 -0.00136478 0.0434677)
(0.00119604 0.00154041 0.0304832)
(0.0023932 0.000829098 0.0347356)
(0.0015592 0.000176361 0.0525619)
(0.00168293 0.00234821 0.031792)
(0.00372917 0.0016463 0.0513124)
(0.000290227 0.00101478 0.0645649)
(-0.000484276 0.00184641 0.043482)
(0.00284158 0.00777314 0.0330678)
(-0.00114702 -0.00032193 0.0303871)
(-6.56301e-05 -0.00204891 0.0268205)
(0.0049282 -0.0012595 0.0439097)
(0.00103821 0.0015417 0.0559138)
(0.00223481 0.000534039 0.0477532)
(-0.000989243 0.00186863 0.0328375)
(0.00139795 -0.000443289 0.0424545)
(0.0013686 0.000595392 0.0296712)
(0.000342575 0.00057387 0.0316789)
(-0.000317794 0.000251179 0.0355279)
(0.00115658 0.0017441 0.0282251)
(0.00324075 0.00324316 0.0393534)
(0.000911434 0.000417647 0.039334)
(0.000526386 -0.000210352 0.0498875)
(0.00173274 0.00179194 0.0287137)
(0.00133194 0.00161724 0.0358896)
(-0.000247043 0.0011243 0.0418162)
(-0.00114833 -0.00082092 0.0391658)
(-0.000745761 0.00074754 0.033808)
(-0.000123162 -0.00135902 0.0550529)
(-0.0020526 -0.00046329 0.0454615)
(-0.000463516 0.000376136 0.0379919)
(0.00026672 0.000667823 0.0281378)
(-0.000294042 0.00118334 0.0372877)
(-0.000319438 -0.000170444 0.0258229)
(-0.000516184 -9.64507e-05 0.042513)
(-0.000110101 0.00158026 0.0427431)
(-8.79593e-05 0.00021378 0.034237)
(-0.00209611 0.00216747 0.0646371)
(0.00110556 0.000143881 0.0434815)
(0.000726364 0.00131171 0.0484223)
(-0.000356081 -0.00599921 0.0426235)
(0.00360485 0.0026487 0.0552578)
(-3.17444e-06 0.000702406 0.0176718)
(-0.00284977 0.00487126 0.0492521)
(0.0019002 0.00183895 0.033965)
(0.000799076 0.00155534 0.0482011)
(0.000648922 -0.000387354 0.0275155)
(0.00184101 0.000297196 0.0449743)
(0.000460031 0.0022151 0.0382371)
(0.000351812 0.000500656 0.0355354)
(-0.000334314 0.000138578 0.0468358)
(0.000138163 -0.00110858 0.0258975)
(0.000247072 -0.00230505 0.0428238)
(0.000675881 -0.000589678 0.0348944)
(-0.000300082 -0.000120529 0.0362976)
(-0.00114377 -0.000127706 0.0560007)
(-0.000144311 -0.00119203 0.0413098)
(-0.000714167 0.00171977 0.0278119)
(0.000468693 0.00495879 0.0382514)
(0.00390823 0.00281948 0.0287142)
(0.00109729 0.00182685 0.0219078)
(-0.000539059 0.00238949 0.0315285)
(0.00154843 0.00310641 0.0273607)
(0.00257708 0.00370266 0.0309441)
(0.002033 -0.000662249 0.0332278)
(0.00102109 0.000996302 0.0253822)
(0.000677952 0.00186117 0.0251357)
(0.000162654 0.00157932 0.0261562)
(-0.000543475 2.49892e-05 0.0300739)
(-0.00169604 0.0011682 0.045174)
(0.00195585 -0.000127433 0.0307048)
(-0.000421657 -0.00206163 0.0234775)
(0.000106222 -0.000665348 0.0219925)
(-3.8461e-05 -0.00134373 0.0320538)
(-2.06674e-05 0.000594734 0.0223627)
(-0.000842354 -0.00115122 0.024313)
(-0.000668847 0.00108161 0.0183775)
(-0.000327385 0.000543055 0.0240446)
(-0.000128543 -4.34199e-05 0.0196187)
(-0.000934746 0.000326148 0.0243726)
(-0.000402141 0.000533433 0.0234032)
(-0.000354417 -0.000527213 0.0229637)
(0.000267124 -0.00100415 0.0229156)
(0.000105545 0.000633134 0.0183684)
(-0.000241648 0.000544231 0.0221934)
(-0.000469446 -0.000807634 0.0234749)
(-0.000684935 0.000106317 0.0234511)
(0.000707247 -0.000879833 0.0221708)
(0.000274794 0.000520379 0.0173172)
(-0.000807236 0.00183575 0.0275217)
(-0.000258771 0.00168721 0.0161042)
(0.000663937 0.00440875 0.0188854)
(0.00232652 0.00202859 0.0292256)
(-0.000395115 0.00167655 0.0181795)
(-1.55806e-06 0.00195879 0.0125522)
(0.000304482 0.00249464 0.0248392)
(0.00117295 0.00167068 0.0309065)
(-5.82961e-06 0.00123188 0.0240166)
(0.000116075 0.00146059 0.0262534)
(0.000333436 0.00159548 0.0233447)
(0.000838339 0.00160163 0.0277093)
(0.000141343 0.00117553 0.0252464)
(5.43675e-05 0.00142798 0.0304782)
(0.000420031 0.00157029 0.032953)
(0.00097296 0.00170807 0.0252057)
(0.00013469 -0.00237715 0.0144951)
(0.000148712 -0.00184267 0.0132604)
(-0.00122014 -0.00354437 0.0141371)
(-0.00177906 -0.00168271 0.0153631)
(-0.000466065 -0.00106379 0.0133373)
(-0.000727357 -0.00140526 0.0128656)
(-0.00134759 -0.00179751 0.0144517)
(-0.00100057 -0.000896297 0.0152906)
(-0.000870443 -0.00113788 0.0140058)
(-0.000751384 -0.00141312 0.0142999)
(-0.000781762 -0.00130065 0.0143166)
(-0.000516713 -0.000495639 0.0144299)
(-0.00130364 -0.00080064 0.0142956)
(-0.000955245 -0.000641444 0.0150373)
(-0.000390867 -0.000805247 0.0155256)
(9.65628e-05 -0.000693016 0.0140651)
(-1.5038e-05 -0.00122565 0.0159777)
(-0.000208251 -0.00117012 0.015792)
(-0.000883794 -0.00173905 0.015837)
(-0.00115373 -0.00106561 0.0171477)
(-0.000357294 -0.000835062 0.0162474)
(-0.000559794 -0.00103465 0.016341)
(-0.000879647 -0.00116956 0.0169044)
(-0.00076947 -0.000731754 0.0176748)
(-0.000594095 -0.000862433 0.0169301)
(-0.000587295 -0.000998374 0.0172546)
(-0.000599135 -0.000917433 0.017555)
(-0.000451359 -0.000511558 0.0178495)
(-0.000811241 -0.00066274 0.0174484)
(-0.00063531 -0.000615706 0.0179581)
(-0.000363156 -0.00061147 0.0183387)
(-5.74414e-05 -0.000491594 0.0181632)
(-5.46598e-05 -0.00059793 0.0156736)
(-0.000237659 -0.000675428 0.015684)
(-0.000535389 -0.000818554 0.0157957)
(-0.000652462 -0.000650148 0.0163715)
(-0.000225596 -0.000568062 0.0158907)
(-0.000373523 -0.000677596 0.0160049)
(-0.000536699 -0.000732439 0.0162715)
(-0.000526608 -0.000595041 0.016649)
(-0.00035222 -0.000578377 0.0162367)
(-0.000417763 -0.000656128 0.0164267)
(-0.00046236 -0.000651758 0.0166284)
(-0.000415251 -0.000536074 0.0168183)
(-0.00046089 -0.000474955 0.016518)
(-0.000454239 -0.000491647 0.0167663)
(-0.000404729 -0.000503159 0.0169681)
(-0.000296994 -0.000503712 0.0169955)
(-6.57311e-05 -0.000315494 0.0160275)
(-0.000185916 -0.000378109 0.0160626)
(-0.000323097 -0.000427111 0.0161671)
(-0.000377421 -0.000390224 0.016415)
(-0.000151771 -0.000356687 0.0161716)
(-0.000247529 -0.000415796 0.0162497)
(-0.000330654 -0.000439954 0.0163932)
(-0.000339429 -0.000397611 0.0165856)
(-0.000219016 -0.000367507 0.0163582)
(-0.000277837 -0.000408436 0.0164674)
(-0.000312152 -0.000412481 0.0166003)
(-0.000295557 -0.000373621 0.0167395)
(-0.00027227 -0.000318293 0.0165195)
(-0.000295737 -0.000335342 0.0166516)
(-0.000291282 -0.00033614 0.0167875)
(-0.000242867 -0.000332609 0.0168931)
(-6.02718e-05 -0.000171586 0.016243)
(-0.000128973 -0.000208941 0.0162717)
(-0.000193221 -0.000234982 0.0163392)
(-0.000217465 -0.000233224 0.0164581)
(-0.000103527 -0.000210997 0.0163283)
(-0.000159865 -0.000243232 0.0163768)
(-0.000202547 -0.000258778 0.0164566)
(-0.000208926 -0.000249423 0.01656)
(-0.000138976 -0.000221445 0.0164295)
(-0.000178948 -0.000244808 0.0164923)
(-0.000200907 -0.00025081 0.0165725)
(-0.000193426 -0.000239152 0.016659)
(-0.000167087 -0.000198981 0.0165219)
(-0.000190079 -0.000210923 0.0165951)
(-0.000195169 -0.000211535 0.0166759)
(-0.000172317 -0.000209186 0.0167517)
(-4.76559e-05 -9.78804e-05 0.0163645)
(-8.46054e-05 -0.000119209 0.0163853)
(-0.000114791 -0.000134629 0.0164267)
(-0.000125209 -0.000140075 0.0164877)
(-7.0548e-05 -0.000124465 0.0164129)
(-0.000101572 -0.0001424 0.0164435)
(-0.000122746 -0.000152401 0.0164904)
(-0.000125371 -0.000152341 0.016548)
(-8.96959e-05 -0.000132231 0.0164697)
(-0.000113083 -0.000145426 0.0165076)
(-0.000125028 -0.000150258 0.0165562)
(-0.000120345 -0.000147049 0.0166089)
(-0.000104709 -0.000121379 0.0165232)
(-0.000119876 -0.000128691 0.0165664)
(-0.000123833 -0.000129324 0.0166156)
(-0.000111385 -0.000127227 0.0166651)
(-3.53837e-05 -5.83738e-05 0.0164347)
(-5.4814e-05 -7.07358e-05 0.0164488)
(-6.90223e-05 -8.0152e-05 0.0164733)
(-7.31819e-05 -8.54175e-05 0.0165059)
(-4.81291e-05 -7.46865e-05 0.0164621)
(-6.45902e-05 -8.48925e-05 0.0164813)
(-7.47153e-05 -9.12139e-05 0.016509)
(-7.50703e-05 -9.29685e-05 0.0165415)
(-5.8802e-05 -7.97816e-05 0.0164942)
(-7.14607e-05 -8.72792e-05 0.0165175)
(-7.71457e-05 -9.05536e-05 0.0165466)
(-7.35568e-05 -8.97836e-05 0.016578)
(-6.69901e-05 -7.42715e-05 0.0165254)
(-7.54728e-05 -7.84726e-05 0.0165514)
(-7.70909e-05 -7.88777e-05 0.0165812)
(-6.94619e-05 -7.71852e-05 0.0166116)
(-2.56516e-05 -3.63178e-05 0.0164734)
(-3.56464e-05 -4.35482e-05 0.0164828)
(-4.22685e-05 -4.92755e-05 0.0164975)
(-4.36187e-05 -5.29981e-05 0.0165155)
(-3.29474e-05 -4.5837e-05 0.0164893)
(-4.14101e-05 -5.17476e-05 0.0165015)
(-4.59923e-05 -5.56509e-05 0.016518)
(-4.53087e-05 -5.7241e-05 0.0165368)
(-3.90147e-05 -4.89263e-05 0.0165079)
(-4.54838e-05 -5.32084e-05 0.0165224)
(-4.7765e-05 -5.52552e-05 0.01654)
(-4.48848e-05 -5.51136e-05 0.0165587)
(-4.35451e-05 -4.59252e-05 0.0165263)
(-4.77965e-05 -4.82597e-05 0.0165424)
(-4.78897e-05 -4.84414e-05 0.0165605)
(-4.28208e-05 -4.71968e-05 0.0165788)
(-1.84689e-05 -2.34571e-05 0.0164944)
(-2.34327e-05 -2.76677e-05 0.0165007)
(-2.64292e-05 -3.10833e-05 0.0165096)
(-2.65638e-05 -3.34292e-05 0.01652)
(-2.26683e-05 -2.87772e-05 0.0165039)
(-2.68483e-05 -3.22267e-05 0.0165118)
(-2.87338e-05 -3.45763e-05 0.0165218)
(-2.7719e-05 -3.5659e-05 0.0165328)
(-2.61269e-05 -3.05376e-05 0.016515)
(-2.9237e-05 -3.29787e-05 0.0165242)
(-2.98596e-05 -3.41888e-05 0.0165349)
(-2.75931e-05 -3.4162e-05 0.0165461)
(-2.86366e-05 -2.87605e-05 0.0165261)
(-3.05338e-05 -3.00204e-05 0.0165362)
(-2.99341e-05 -3.00502e-05 0.0165472)
(-2.64429e-05 -2.91745e-05 0.0165582)
(-1.32338e-05 -1.55535e-05 0.0165059)
(-1.55971e-05 -1.79964e-05 0.0165101)
(-1.68613e-05 -1.99951e-05 0.0165156)
(-1.65259e-05 -2.13875e-05 0.0165218)
(-1.56509e-05 -1.84279e-05 0.0165117)
(-1.76075e-05 -2.04363e-05 0.0165169)
(-1.82332e-05 -2.18161e-05 0.0165231)
(-1.72301e-05 -2.24696e-05 0.0165297)
(-1.76135e-05 -1.93658e-05 0.0165184)
(-1.89872e-05 -2.0746e-05 0.0165244)
(-1.88919e-05 -2.14265e-05 0.016531)
(-1.71639e-05 -2.13911e-05 0.0165377)
(-1.89922e-05 -1.8233e-05 0.0165252)
(-1.96891e-05 -1.88878e-05 0.0165317)
(-1.88917e-05 -1.88308e-05 0.0165385)
(-1.64629e-05 -1.82212e-05 0.0165451)
(-9.39716e-06 -1.04553e-05 0.0165121)
(-1.04801e-05 -1.1883e-05 0.016515)
(-1.09316e-05 -1.30428e-05 0.0165185)
(-1.04725e-05 -1.38424e-05 0.0165223)
(-1.08002e-05 -1.19818e-05 0.0165158)
(-1.1654e-05 -1.31462e-05 0.0165192)
(-1.1728e-05 -1.39417e-05 0.0165232)
(-1.08744e-05 -1.43099e-05 0.0165272)
(-1.19138e-05 -1.24366e-05 0.01652)
(-1.24406e-05 -1.32099e-05 0.0165239)
(-1.20914e-05 -1.35757e-05 0.0165281)
(-1.08124e-05 -1.3522e-05 0.0165322)
(-1.26634e-05 -1.16757e-05 0.0165243)
(-1.28052e-05 -1.1999e-05 0.0165284)
(-1.20446e-05 -1.19055e-05 0.0165327)
(-1.03571e-05 -1.14833e-05 0.0165367)
(-6.58084e-06 -7.06226e-06 0.0165155)
(-7.0641e-06 -7.90263e-06 0.0165175)
(-7.15599e-06 -8.57271e-06 0.0165198)
(-6.72447e-06 -9.01966e-06 0.0165222)
(-7.40341e-06 -7.872e-06 0.0165178)
(-7.7418e-06 -8.54052e-06 0.0165202)
(-7.60644e-06 -8.98958e-06 0.0165227)
(-6.93902e-06 -9.18313e-06 0.0165253)
(-8.03628e-06 -8.05457e-06 0.0165206)
(-8.18137e-06 -8.47993e-06 0.0165231)
(-7.79344e-06 -8.66486e-06 0.0165258)
(-6.87387e-06 -8.60305e-06 0.0165284)
(-8.43798e-06 -7.52214e-06 0.0165233)
(-8.35841e-06 -7.66771e-06 0.016526)
(-7.72635e-06 -7.56817e-06 0.0165287)
(-6.56481e-06 -7.27656e-06 0.0165312)
(-4.5102e-06 -4.74231e-06 0.0165172)
(-4.72568e-06 -5.22852e-06 0.0165186)
(-4.67893e-06 -5.60699e-06 0.0165202)
(-4.32769e-06 -5.8459e-06 0.0165218)
(-4.98707e-06 -5.17452e-06 0.0165188)
(-5.10244e-06 -5.54437e-06 0.0165205)
(-4.91918e-06 -5.78451e-06 0.0165222)
(-4.42895e-06 -5.87276e-06 0.0165239)
(-5.34143e-06 -5.21192e-06 0.0165206)
(-5.33471e-06 -5.4335e-06 0.0165224)
(-5.00147e-06 -5.51444e-06 0.0165242)
(-4.36359e-06 -5.45251e-06 0.0165259)
(-5.54997e-06 -4.82738e-06 0.0165224)
(-5.40769e-06 -4.8797e-06 0.0165243)
(-4.93048e-06 -4.78923e-06 0.0165261)
(-4.14892e-06 -4.58979e-06 0.0165277)
(-2.97436e-06 -3.0846e-06 0.0165181)
(-3.07121e-06 -3.35082e-06 0.0165192)
(-2.98964e-06 -3.55203e-06 0.0165203)
(-2.72838e-06 -3.67026e-06 0.0165214)
(-3.23784e-06 -3.31177e-06 0.0165193)
(-3.2652e-06 -3.50162e-06 0.0165205)
(-3.10432e-06 -3.61693e-06 0.0165217)
(-2.76568e-06 -3.64598e-06 0.0165228)
(-3.42616e-06 -3.28473e-06 0.0165205)
(-3.37511e-06 -3.38849e-06 0.0165218)
(-3.12823e-06 -3.41259e-06 0.0165231)
(-2.70701e-06 -3.35766e-06 0.0165242)
(-3.5277e-06 -3.01085e-06 0.0165218)
(-3.39403e-06 -3.01815e-06 0.0165231)
(-3.06463e-06 -2.94466e-06 0.0165243)
(-2.5607e-06 -2.81285e-06 0.0165254)
(-1.84095e-06 -1.84372e-06 0.0165185)
(-1.87921e-06 -1.97731e-06 0.0165194)
(-1.80454e-06 -2.0759e-06 0.0165203)
(-1.62678e-06 -2.13001e-06 0.0165211)
(-1.97441e-06 -1.95444e-06 0.0165194)
(-1.96834e-06 -2.0415e-06 0.0165204)
(-1.85181e-06 -2.08968e-06 0.0165213)
(-1.63432e-06 -2.09336e-06 0.0165222)
(-2.06637e-06 -1.91423e-06 0.0165204)
(-2.01323e-06 -1.95566e-06 0.0165214)
(-1.8511e-06 -1.95562e-06 0.0165224)
(-1.58999e-06 -1.9155e-06 0.0165232)
(-2.11129e-06 -1.73808e-06 0.0165214)
(-2.01059e-06 -1.72849e-06 0.0165224)
(-1.80442e-06 -1.67627e-06 0.0165233)
(-1.49845e-06 -1.59613e-06 0.0165241)
(-1.10233e-06 -9.53056e-07 0.0165187)
(-1.10846e-06 -1.02214e-06 0.0165194)
(-1.0515e-06 -1.07384e-06 0.0165202)
(-9.37311e-07 -1.10219e-06 0.0165209)
(-1.16999e-06 -1.00352e-06 0.0165195)
(-1.15252e-06 -1.0458e-06 0.0165203)
(-1.07239e-06 -1.06739e-06 0.0165211)
(-9.3455e-07 -1.06539e-06 0.0165218)
(-1.21533e-06 -9.80018e-07 0.0165203)
(-1.17142e-06 -9.95538e-07 0.0165211)
(-1.0658e-06 -9.88625e-07 0.0165219)
(-9.01955e-07 -9.59102e-07 0.0165225)
(-1.23438e-06 -8.89038e-07 0.0165211)
(-1.16338e-06 -8.7493e-07 0.0165219)
(-1.03174e-06 -8.36989e-07 0.0165226)
(-8.41365e-07 -7.816e-07 0.0165232)
(0.000658567 -0.000669149 0.0177382)
(-6.91607e-05 -0.00173355 0.0186162)
(-0.000936546 -0.000157997 0.0154635)
(0.00088806 -0.000113099 0.0149495)
(0.00132462 -0.00111844 0.0149269)
(9.30845e-05 -0.00156155 0.0105647)
(0.000169641 0.00081045 0.0151972)
(0.000388376 0.00170677 0.0155814)
(-0.00162855 -0.00170002 0.0157738)
(0.000418142 -0.00169993 0.0134551)
(0.00160575 0.00135872 0.0204684)
(0.000349032 0.00281145 0.013876)
(-0.00169662 -0.00132454 0.0145044)
(0.00137785 -0.00107709 0.0164462)
(0.00250565 -0.000498262 0.0201025)
(0.000754266 0.00133418 0.0144695)
(-0.000518505 -0.00093333 0.0381736)
(0.00314106 0.00123523 0.0383122)
(0.00678919 -0.00116246 0.0415237)
(0.000965617 0.00106335 0.0188901)
(0.000768489 0.000495912 0.0401391)
(0.00215527 0.00343571 0.053872)
(0.000962238 -0.000509597 0.0350673)
(0.000221635 -0.00611833 0.0352992)
(0.0024618 0.00139885 0.0459124)
(0.000100475 -8.04787e-05 0.038174)
(-5.67995e-05 -0.000538691 0.0461217)
(0.00104084 -0.000685098 0.0395565)
(0.00235208 0.000589223 0.0354359)
(0.00107597 -0.0010182 0.0357184)
(0.00140288 -0.000564784 0.0331039)
(0.00127985 0.000752524 0.0577643)
(-6.17276e-05 -0.00100456 0.0211825)
(0.00133776 0.000370714 0.0309069)
(0.00198779 0.000519206 0.0399537)
(0.00277439 -0.00133298 0.098983)
(-0.000316721 -0.00161991 0.0262568)
(0.00253343 0.000568262 0.0310973)
(0.000648425 0.00111018 0.0276699)
(0.000660152 0.00105389 0.0246881)
(-4.13277e-05 0.00164654 0.0294799)
(0.00408175 0.000560012 0.0509788)
(0.0015017 0.00257596 0.035231)
(-0.000225071 0.00145883 0.0225625)
(0.0010898 0.001592 0.0388867)
(0.00237541 -0.000745988 0.0368897)
(0.00221208 0.00129155 0.0391266)
(-0.000838601 0.00188731 0.0447151)
(0.00345626 0.00120551 0.0385624)
(3.24895e-05 -0.000629266 0.0326156)
(-0.00305381 0.00171949 0.038428)
(-0.000719086 0.00130667 0.0271303)
(0.00216285 -0.000825186 0.0266393)
(0.000373323 -0.00226623 0.0522429)
(0.000217982 -0.000520602 0.0335017)
(0.00149053 0.00770569 0.0304869)
(0.0011462 -0.00211619 0.0292997)
(-2.74077e-05 -0.000553756 0.035399)
(0.00220749 -0.00112187 0.0468416)
(0.000930569 0.00338967 0.0341555)
(0.00101386 -0.00159285 0.0370471)
(0.00151245 -0.000379514 0.0317992)
(0.00145297 -0.00117264 0.0522)
(0.000586393 0.00151209 0.0535922)
(0.00410266 -0.00108367 0.0556304)
(-2.77801e-05 -0.00223263 0.0365062)
(-0.000558344 0.00111758 0.0606687)
(-0.00086022 0.000607561 0.0293855)
(0.000813655 0.000441908 0.0407863)
(0.000349592 -0.00197021 0.0323885)
(0.00149541 -0.00293375 0.0380756)
(-0.00145361 -0.00022058 0.0348351)
(0.00496967 -0.00314646 0.045555)
(-0.00175223 -0.000525563 0.0505356)
(-0.000861654 -0.00407967 0.0366167)
(-0.00181825 -0.00182928 0.0455041)
(0.000116406 -0.00406357 0.0338505)
(-0.00108403 -0.00154358 0.0413481)
(-0.00224036 -0.00166599 0.0384335)
(0.000455034 -0.00119722 0.0656437)
(3.34315e-05 -0.0011097 0.0267662)
(-0.00158672 -0.000590134 0.0265452)
(-0.00186858 -0.00222264 0.0335961)
(0.00106629 -0.00203167 0.020571)
(0.00050838 -0.00218375 0.0189924)
(-0.000285596 -0.00330039 0.0232662)
(-0.0010526 -0.00213251 0.0299062)
(-0.000986613 -0.00357801 0.0343814)
(6.10485e-05 0.000500769 0.0417474)
(-0.000638407 -0.00378573 0.0233552)
(-0.00169323 -0.00735356 0.0302679)
(-0.0010134 -0.00414554 0.0202699)
(0.00111441 0.000314111 0.0140566)
(-0.00187706 -0.000445138 0.0231672)
(-0.00312283 -0.00203483 0.0250148)
(-0.000454776 -0.00390695 0.0291749)
(-0.00187746 0.00036045 0.0264627)
(-0.000496705 -4.67438e-06 0.020631)
(0.000228612 -0.0018215 0.0238677)
(-0.000627745 -7.41425e-05 0.0153826)
(-0.000676781 -0.00131558 0.0185406)
(-0.000686358 -0.000619433 0.0186366)
(-0.000568809 -0.00190551 0.0291569)
(-0.000943725 -0.0017432 0.0278017)
(0.000814559 -0.0017596 0.0310714)
(-0.000266069 -0.00138126 0.0217357)
(0.0013892 -0.00209576 0.0261402)
(-0.00150335 -0.000105939 0.0234847)
(0.000745923 0.000348561 0.0167343)
(0.00344894 -0.000851681 0.02263)
(0.0022021 -0.00115413 0.0171026)
(-0.00109684 1.31606e-05 0.0302025)
(-9.42056e-06 0.00144133 0.0320274)
(0.000345774 0.00129123 0.0284099)
(0.000401765 0.00136428 0.0319007)
(0.000667353 0.00177174 0.0233017)
(-4.79728e-05 0.00115034 0.0240421)
(0.000154719 0.00121578 0.0253725)
(0.000483554 0.000901078 0.0361982)
(0.000822366 0.00166041 0.0313955)
(0.000224476 0.000822756 0.0344812)
(0.000459618 0.00100904 0.0212497)
(0.00068762 0.000603788 0.0291085)
(0.000788444 0.00126313 0.0340607)
(0.000306373 0.00062597 0.0248516)
(0.000360428 0.000417245 0.0253077)
(0.000447631 0.000103389 0.0154794)
(0.000312029 0.000466973 0.0405894)
(-0.00117884 -0.000145986 0.0148088)
(-0.000743747 0.000186522 0.0146124)
(-0.000623188 -0.000110439 0.0154212)
(-0.000112903 -0.000899968 0.0143268)
(-0.00101292 -0.0001847 0.0139444)
(-0.000810199 0.000655814 0.0140043)
(-0.000830963 0.000789643 0.0157445)
(-0.000284241 -0.000920122 0.0149916)
(-0.000433292 0.000182445 0.0147538)
(-1.71983e-05 0.000633328 0.0129749)
(-0.000912168 0.00175567 0.0141657)
(-0.000765292 -0.000566675 0.0154819)
(-0.0005451 0.000559463 0.0125989)
(-1.1927e-05 0.000263678 0.012375)
(-0.00144155 0.00148711 0.0119873)
(-0.000995342 0.00018453 0.0163006)
(-0.000790021 -0.00038084 0.0179168)
(-0.000532755 -0.000223127 0.0181511)
(-0.0003845 -0.000278904 0.0186837)
(-0.000154056 -0.00057426 0.0187113)
(-0.00072317 -0.000290417 0.0178976)
(-0.000493594 6.20556e-05 0.0180853)
(-0.000463829 0.000142981 0.0189073)
(-0.00023205 -0.000590083 0.0191826)
(-0.00051124 2.09121e-05 0.0182567)
(-0.000190072 0.000203215 0.0177958)
(-0.000542044 0.000623494 0.0184546)
(-0.000383734 -0.000396973 0.0196765)
(-0.000577482 0.000221401 0.0174761)
(-0.000188712 0.000142692 0.0174602)
(-0.000769675 0.000635696 0.0177304)
(-0.000395977 4.73964e-06 0.0201382)
(-0.000490348 -0.000314469 0.0167574)
(-0.000447989 -0.000270119 0.0169292)
(-0.00042864 -0.000270319 0.0171519)
(-0.000305765 -0.00041341 0.017224)
(-0.000488151 -0.000184459 0.0168506)
(-0.000423794 -6.76347e-05 0.0169822)
(-0.000449037 -2.01538e-05 0.0172776)
(-0.000292807 -0.000323544 0.0174364)
(-0.000434688 1.09894e-05 0.0169834)
(-0.000327681 8.82554e-05 0.0169228)
(-0.000468133 0.000230794 0.0171927)
(-0.000286963 -0.000177867 0.0176683)
(-0.000463102 9.71327e-05 0.0167291)
(-0.000325763 0.00012146 0.0167995)
(-0.00053541 0.000317868 0.0169915)
(-0.000234917 2.71181e-05 0.0178608)
(-0.000298034 -0.000232864 0.0166479)
(-0.000298754 -0.000223389 0.0167711)
(-0.000293256 -0.000215749 0.0169156)
(-0.000230018 -0.000263673 0.0170406)
(-0.00030835 -0.000140325 0.0167149)
(-0.000288482 -0.000105617 0.0168305)
(-0.00029147 -8.83936e-05 0.0170002)
(-0.000203826 -0.000200841 0.0171594)
(-0.000299917 -2.77453e-05 0.0167513)
(-0.000258148 4.83788e-06 0.0168269)
(-0.000287442 4.55295e-05 0.0170062)
(-0.000171924 -0.000111075 0.0172664)
(-0.000309735 3.22762e-05 0.0166659)
(-0.000252476 6.46436e-05 0.0167785)
(-0.000292933 0.000132491 0.0169586)
(-0.000119233 4.22657e-06 0.0173441)
(-0.000184209 -0.000152246 0.0165985)
(-0.000194122 -0.000151332 0.0166731)
(-0.000193561 -0.000145505 0.0167537)
(-0.000157218 -0.00016127 0.0168308)
(-0.000193037 -9.59973e-05 0.0166477)
(-0.000189804 -8.42247e-05 0.016723)
(-0.000186173 -7.62857e-05 0.0168108)
(-0.000133644 -0.000118576 0.0168959)
(-0.000193506 -3.28279e-05 0.0166704)
(-0.000177044 -1.61005e-05 0.0167399)
(-0.000174821 -1.69759e-06 0.0168356)
(-0.000104617 -6.34402e-05 0.016952)
(-0.000196781 9.38975e-06 0.0166497)
(-0.000169371 3.3167e-05 0.0167305)
(-0.000163772 5.96761e-05 0.016834)
(-6.70908e-05 2.07571e-06 0.0169902)
(-0.000114757 -9.54873e-05 0.0165688)
(-0.000122689 -9.61692e-05 0.0166144)
(-0.000121597 -9.26846e-05 0.0166627)
(-9.95393e-05 -9.70484e-05 0.0167102)
(-0.000120245 -6.26605e-05 0.0166006)
(-0.000120435 -5.79466e-05 0.0166487)
(-0.000114464 -5.39822e-05 0.0166992)
(-8.27279e-05 -6.99523e-05 0.016747)
(-0.000121362 -2.64819e-05 0.016617)
(-0.000113594 -1.71446e-05 0.0166658)
(-0.000103859 -1.13978e-05 0.0167203)
(-6.23716e-05 -3.67314e-05 0.016777)
(-0.000122022 1.97034e-06 0.0166156)
(-0.000107046 1.72739e-05 0.0166684)
(-9.19923e-05 2.81388e-05 0.0167274)
(-3.83693e-05 1.10157e-06 0.0167966)
(-7.25413e-05 -5.97128e-05 0.0165526)
(-7.69819e-05 -6.02411e-05 0.0165804)
(-7.50361e-05 -5.80898e-05 0.0166096)
(-6.11581e-05 -5.87353e-05 0.0166377)
(-7.54652e-05 -4.05899e-05 0.0165725)
(-7.537e-05 -3.81748e-05 0.0166026)
(-6.94458e-05 -3.5884e-05 0.0166324)
(-5.00766e-05 -4.1971e-05 0.0166588)
(-7.59075e-05 -1.92309e-05 0.0165839)
(-7.10394e-05 -1.36711e-05 0.0166155)
(-6.14299e-05 -1.09986e-05 0.0166471)
(-3.68807e-05 -2.20107e-05 0.0166754)
(-7.55652e-05 -3.51178e-07 0.0165869)
(-6.61153e-05 9.10167e-06 0.0166203)
(-5.2292e-05 1.37773e-05 0.016654)
(-2.20171e-05 2.99713e-07 0.0166859)
(-4.65181e-05 -3.75306e-05 0.0165428)
(-4.84622e-05 -3.77213e-05 0.0165601)
(-4.6252e-05 -3.63321e-05 0.0165777)
(-3.72803e-05 -3.5998e-05 0.0165941)
(-4.79166e-05 -2.62203e-05 0.0165554)
(-4.7172e-05 -2.47094e-05 0.0165742)
(-4.22231e-05 -2.32493e-05 0.0165918)
(-3.01709e-05 -2.56491e-05 0.0166064)
(-4.78591e-05 -1.32801e-05 0.0165632)
(-4.42392e-05 -9.82045e-06 0.0165831)
(-3.66352e-05 -8.3951e-06 0.0166015)
(-2.1838e-05 -1.35531e-05 0.016616)
(-4.72457e-05 -8.80968e-07 0.0165665)
(-4.07523e-05 4.92138e-06 0.0165873)
(-3.03051e-05 7.03536e-06 0.0166065)
(-1.27139e-05 -1.47844e-07 0.0166219)
(-3.01884e-05 -2.3761e-05 0.0165362)
(-3.07442e-05 -2.37365e-05 0.016547)
(-2.87117e-05 -2.28116e-05 0.0165577)
(-2.28182e-05 -2.23459e-05 0.0165674)
(-3.07801e-05 -1.69163e-05 0.0165442)
(-2.97214e-05 -1.58785e-05 0.0165559)
(-2.5923e-05 -1.49104e-05 0.0165665)
(-1.82901e-05 -1.59165e-05 0.0165747)
(-3.05106e-05 -8.90891e-06 0.0165494)
(-2.77085e-05 -6.7003e-06 0.0165619)
(-2.21719e-05 -5.87234e-06 0.0165726)
(-1.3061e-05 -8.49818e-06 0.0165803)
(-2.99168e-05 -8.22779e-07 0.0165521)
(-2.5325e-05 2.76597e-06 0.0165649)
(-1.79775e-05 3.76919e-06 0.016576)
(-7.4479e-06 -3.02033e-07 0.0165837)
(-1.97758e-05 -1.51659e-05 0.0165315)
(-1.96795e-05 -1.50415e-05 0.0165384)
(-1.8004e-05 -1.44104e-05 0.016545)
(-1.4101e-05 -1.40207e-05 0.0165507)
(-1.99712e-05 -1.09311e-05 0.0165367)
(-1.88932e-05 -1.01938e-05 0.016544)
(-1.61096e-05 -9.5407e-06 0.0165504)
(-1.12125e-05 -9.9933e-06 0.0165551)
(-1.96576e-05 -5.89278e-06 0.0165402)
(-1.75144e-05 -4.45781e-06 0.0165479)
(-1.36349e-05 -3.95069e-06 0.0165543)
(-7.9243e-06 -5.38843e-06 0.0165584)
(-1.91725e-05 -6.30773e-07 0.016542)
(-1.59157e-05 1.6163e-06 0.01655)
(-1.09076e-05 2.11646e-06 0.0165565)
(-4.44798e-06 -3.00391e-07 0.0165605)
(-1.304e-05 -9.74982e-06 0.0165282)
(-1.27055e-05 -9.59427e-06 0.0165326)
(-1.14087e-05 -9.15652e-06 0.0165367)
(-8.81161e-06 -8.86937e-06 0.0165401)
(-1.30552e-05 -7.08358e-06 0.0165315)
(-1.21167e-05 -6.55235e-06 0.0165362)
(-1.01317e-05 -6.10687e-06 0.0165401)
(-6.96022e-06 -6.32427e-06 0.0165428)
(-1.27701e-05 -3.87419e-06 0.0165338)
(-1.11757e-05 -2.92696e-06 0.0165387)
(-8.51098e-06 -2.60341e-06 0.0165425)
(-4.88304e-06 -3.43428e-06 0.0165448)
(-1.2402e-05 -4.48183e-07 0.0165351)
(-1.01126e-05 9.77792e-07 0.0165401)
(-6.75116e-06 1.24182e-06 0.016544)
(-2.71491e-06 -2.37412e-07 0.0165461)
(-8.60421e-06 -6.28853e-06 0.0165258)
(-8.23521e-06 -6.13825e-06 0.0165287)
(-7.27579e-06 -5.8333e-06 0.0165312)
(-5.54924e-06 -5.63247e-06 0.0165333)
(-8.54898e-06 -4.58972e-06 0.016528)
(-7.80536e-06 -4.20792e-06 0.016531)
(-6.42057e-06 -3.90338e-06 0.0165334)
(-4.3595e-06 -4.01295e-06 0.016535)
(-8.31762e-06 -2.53286e-06 0.0165296)
(-7.16815e-06 -1.90207e-06 0.0165327)
(-5.36545e-06 -1.69e-06 0.016535)
(-3.04487e-06 -2.18671e-06 0.0165362)
(-8.05006e-06 -3.06069e-07 0.0165304)
(-6.46671e-06 6.07309e-07 0.0165336)
(-4.23623e-06 7.55392e-07 0.0165359)
(-1.68813e-06 -1.6429e-07 0.016537)
(-5.61246e-06 -4.02566e-06 0.0165242)
(-5.29333e-06 -3.89966e-06 0.0165261)
(-4.61745e-06 -3.68977e-06 0.0165277)
(-3.48473e-06 -3.55326e-06 0.016529)
(-5.54181e-06 -2.94096e-06 0.0165256)
(-4.99138e-06 -2.67375e-06 0.0165276)
(-4.05353e-06 -2.46865e-06 0.0165291)
(-2.72526e-06 -2.52375e-06 0.01653)
(-5.36932e-06 -1.63047e-06 0.0165267)
(-4.56939e-06 -1.21402e-06 0.0165287)
(-3.37633e-06 -1.07472e-06 0.0165301)
(-1.89924e-06 -1.37419e-06 0.0165309)
(-5.18313e-06 -2.00951e-07 0.0165273)
(-4.11494e-06 3.82454e-07 0.0165294)
(-2.66136e-06 4.69657e-07 0.0165308)
(-1.05625e-06 -1.014e-07 0.0165314)
(-3.54385e-06 -2.49636e-06 0.016523)
(-3.30343e-06 -2.40215e-06 0.0165244)
(-2.8564e-06 -2.26214e-06 0.0165255)
(-2.13871e-06 -2.17151e-06 0.0165263)
(-3.48355e-06 -1.8191e-06 0.0165241)
(-3.10368e-06 -1.64126e-06 0.0165254)
(-2.49794e-06 -1.50709e-06 0.0165264)
(-1.66726e-06 -1.53209e-06 0.016527)
(-3.36656e-06 -1.00924e-06 0.0165248)
(-2.83677e-06 -7.43268e-07 0.0165262)
(-2.07767e-06 -6.5245e-07 0.0165271)
(-1.16186e-06 -8.27403e-07 0.0165275)
(-3.24598e-06 -1.23486e-07 0.0165253)
(-2.55439e-06 2.4042e-07 0.0165267)
(-1.63979e-06 2.93899e-07 0.0165275)
(-6.52066e-07 -5.07425e-08 0.0165279)
(-2.11057e-06 -1.43295e-06 0.0165223)
(-1.94896e-06 -1.36972e-06 0.0165233)
(-1.67759e-06 -1.28145e-06 0.0165241)
(-1.25344e-06 -1.22256e-06 0.0165247)
(-2.06893e-06 -1.0393e-06 0.0165231)
(-1.82826e-06 -9.28901e-07 0.0165241)
(-1.46583e-06 -8.44831e-07 0.0165248)
(-9.78399e-07 -8.53561e-07 0.0165252)
(-1.99801e-06 -5.73454e-07 0.0165237)
(-1.67293e-06 -4.13065e-07 0.0165247)
(-1.22186e-06 -3.54652e-07 0.0165254)
(-6.86381e-07 -4.50012e-07 0.0165256)
(-1.92739e-06 -6.48479e-08 0.016524)
(-1.51075e-06 1.51501e-07 0.0165251)
(-9.70269e-07 1.86067e-07 0.0165257)
(-3.94793e-07 -8.29776e-09 0.0165258)
(-1.22918e-06 -7.36822e-07 0.0165219)
(-1.12395e-06 -6.96234e-07 0.0165227)
(-9.56687e-07 -6.41342e-07 0.0165233)
(-7.24649e-07 -5.8978e-07 0.0165237)
(-1.20484e-06 -5.35482e-07 0.0165225)
(-1.0565e-06 -4.68226e-07 0.0165233)
(-8.39878e-07 -4.16575e-07 0.0165238)
(-5.74262e-07 -4.07018e-07 0.0165241)
(-1.16904e-06 -2.93296e-07 0.016523)
(-9.73792e-07 -1.97156e-07 0.0165238)
(-7.07256e-07 -1.59332e-07 0.0165242)
(-4.13222e-07 -1.99502e-07 0.0165244)
(-1.13455e-06 -2.39187e-08 0.0165233)
(-8.87237e-07 1.03862e-07 0.0165241)
(-5.69387e-07 1.26153e-07 0.0165245)
(-2.50904e-07 2.91422e-08 0.0165245)
(0.000980855 -0.00053186 0.0114466)
(0.00410297 -0.00140006 0.0185946)
(-0.000788934 -0.000420848 0.0101387)
(-0.00223271 -0.000392569 0.0122117)
(-0.000131292 0.000782372 0.0191545)
(0.00268921 -0.000101516 0.0129913)
(0.00223013 -0.000700227 0.0135241)
(0.000722174 -0.000495685 0.019789)
(0.0012577 -0.00145662 0.0221672)
(0.00231639 -0.000673205 0.0151581)
(-0.000627726 -0.00242978 0.0182889)
(-0.00123461 -0.00150535 0.0118708)
(0.00122156 -0.00138641 0.00992053)
(0.00217494 -0.00202394 0.0160434)
(0.000295677 -0.000352323 0.010059)
(-0.000532655 0.00175098 0.0179619)
(-0.00140674 0.000412051 0.0348495)
(9.19111e-05 0.000843445 0.033025)
(0.00337882 0.0060824 0.0648315)
(0.000811676 0.00402633 0.031833)
(0.000884153 0.00167793 0.0383412)
(0.000858154 0.00317746 0.03629)
(-0.00151531 0.00336651 0.0496206)