FoamFile
{version 2.0; format ascii;class Cloud<passiveParticle>; location 0;object  positions;}
1000
(
( 0.0299622 0.0356533 0.0875342 ) 0 
( 0.0321484 0.0811175 0.0993744 ) 0 
( 0.040692 0.0923137 0.0993037 ) 0 
( 0.0935673 0.00891399 0.0886334 ) 0 
( 0.00762552 0.0038423 0.099469 ) 0 
( 0.0948516 0.040071 0.0989938 ) 0 
( 0.0196745 0.0613599 0.0886834 ) 0 
( 0.0205985 0.0942626 0.0995114 ) 0 
( 0.0235239 0.0972808 0.0995002 ) 0 
( 0.0661047 0.0170119 0.0933656 ) 0 
( 0.00261092 0.0301623 0.0951804 ) 0 
( 0.0216965 0.0184868 0.0907391 ) 0 
( 0.0506583 0.056612 0.0995002 ) 0 
( 0.0183422 0.0673759 0.0995002 ) 0 
( 0.0756552 0.0747265 0.095716 ) 0 
( 0.0586467 0.0159153 0.0995002 ) 0 
( 0.0186605 0.0262127 0.0992884 ) 0 
( 0.0210552 0.0696306 0.0995002 ) 0 
( 0.00622842 0.0542023 0.0990448 ) 0 
( 0.0164251 0.0794065 0.0886424 ) 0 
( 0.0842631 0.0102869 0.08924 ) 0 
( 0.0625841 0.0128778 0.0943254 ) 0 
( 0.0998506 0.0953382 0.0892353 ) 0 
( 0.0805647 0.0519925 0.0978926 ) 0 
( 0.030349 0.00346848 0.0995002 ) 0 
( 0.0839856 0.072846 0.0972514 ) 0 
( 0.0278915 0.0758457 0.0995002 ) 0 
( 0.0899293 0.0353177 0.0989808 ) 0 
( 0.104473 0.00195021 0.0993121 ) 0 
( 0.0881292 0.032039 0.0989664 ) 0 
( 0.065052 0.00457075 0.0891188 ) 0 
( 0.0654885 0.0231661 0.0883748 ) 0 
( 0.014204 0.070867 0.0993897 ) 0 
( 0.0721401 0.0582477 0.0990122 ) 0 
( 0.0737438 0.086558 0.0887753 ) 0 
( 0.0116481 0.00131139 0.0937194 ) 0 
( 0.0655358 0.0987042 0.0890426 ) 0 
( 0.0417906 0.0788788 0.0898583 ) 0 
( 0.0849117 0.0536988 0.0890725 ) 0 
( 0.0943469 0.0715926 0.0951502 ) 0 
( 0.0909887 0.0244531 0.099493 ) 0 
( 0.0272242 0.062478 0.0991011 ) 0 
( 0.0493274 0.0562247 0.0994624 ) 0 
( 0.0759446 0.0866013 0.0899042 ) 0 
( 0.0758274 0.0497537 0.0904019 ) 0 
( 0.0357959 0.0489005 0.0994871 ) 0 
( 0.0624629 0.000945104 0.0994713 ) 0 
( 0.0237797 0.0852625 0.0885046 ) 0 
( 0.0771796 0.0226087 0.0885811 ) 0 
( 0.023617 0.0534721 0.0949327 ) 0 
( 0.0254177 0.0341138 0.0896289 ) 0 
( 0.0227236 0.0199196 0.0995002 ) 0 
( 0.0230898 0.00471864 0.0924207 ) 0 
( 0.00767316 0.0793303 0.0995002 ) 0 
( 0.0734076 0.0970292 0.0993005 ) 0 
( 0.0326533 0.0540719 0.0982629 ) 0 
( 0.0716811 0.0449746 0.0994842 ) 0 
( 0.052695 0.0320783 0.0879384 ) 0 
( 0.0831713 0.0317768 0.0924145 ) 0 
( 0.0131091 0.0786372 0.0924414 ) 0 
( 0.0327774 0.0248046 0.0903919 ) 0 
( 0.0788943 0.0286293 0.0989741 ) 0 
( 0.0247209 0.0461456 0.088017 ) 0 
( 0.0433575 0.0643907 0.0945208 ) 0 
( 0.0896495 0.0451147 0.0921969 ) 0 
( 0.0894371 0.0886705 0.0995002 ) 0 
( 0.0109289 0.0834231 0.0995002 ) 0 
( 0.0546973 0.0414806 0.0990846 ) 0 
( 0.00752493 0.0278057 0.0976518 ) 0 
( 0.0539699 0.0805256 0.0890559 ) 0 
( 0.015644 0.0255727 0.088431 ) 0 
( 0.0904889 0.0775493 0.0992323 ) 0 
( 0.0425051 0.0189736 0.0971937 ) 0 
( 0.0347587 0.0600157 0.0995002 ) 0 
( 0.0829071 0.0895719 0.0885006 ) 0 
( 0.027516 0.0218881 0.099445 ) 0 
( 0.0686163 0.00117528 0.0961305 ) 0 
( 0.0949506 0.0827888 0.0949732 ) 0 
( 0.0871213 0.070547 0.0928205 ) 0 
( 0.0875579 0.0798758 0.0993449 ) 0 
( 0.0232454 0.00148607 0.0994763 ) 0 
( 0.0584104 0.0559355 0.0868926 ) 0 
( 0.0918751 0.0527237 0.0884432 ) 0 
( 0.0377143 0.0992341 0.0902953 ) 0 
( 0.0416575 0.0207112 0.099483 ) 0 
( 0.0192826 0.019615 0.0994736 ) 0 
( 0.0203581 0.0560356 0.0994632 ) 0 
( 0.047284 0.0405478 0.0995002 ) 0 
( 0.0444248 0.0815948 0.0886165 ) 0 
( 0.0499974 0.0592243 0.0894361 ) 0 
( 0.0747596 0.0694392 0.0992324 ) 0 
( 0.0724133 0.085405 0.0995002 ) 0 
( 0.00319683 0.0174354 0.0995002 ) 0 
( 0.0584927 0.0520172 0.0907948 ) 0 
( 0.0876229 0.0623907 0.0995002 ) 0 
( 0.0885913 0.0498102 0.0919805 ) 0 
( 0.0930887 0.0659859 0.0894377 ) 0 
( 0.00885839 0.0172483 0.0995002 ) 0 
( 0.0960967 0.0336576 0.099034 ) 0 
( 0.0811757 0.0722749 0.0869176 ) 0 
( 0.0653186 0.0725469 0.0888777 ) 0 
( 0.0505785 0.0111321 0.0995002 ) 0 
( 0.0715504 0.0878369 0.0991536 ) 0 
( 0.0660224 0.0781397 0.0995002 ) 0 
( 0.0267414 0.0553897 0.0956287 ) 0 
( 0.0898358 0.0310718 0.0981871 ) 0 
( 0.0617109 0.0158205 0.0995002 ) 0 
( 0.034287 0.0914383 0.0995002 ) 0 
( 0.091676 0.0446809 0.0887211 ) 0 
( 0.0892193 0.0116002 0.0961825 ) 0 
( 0.0367763 0.0153141 0.0994662 ) 0 
( 0.00753583 0.0236701 0.0885844 ) 0 
( 0.0850089 0.0583749 0.0894308 ) 0 
( 0.00509229 0.0638011 0.088787 ) 0 
( 0.0224261 0.00322516 0.0877366 ) 0 
( 0.0631605 0.0399844 0.0884776 ) 0 
( 0.0246576 0.0642194 0.0995002 ) 0 
( 0.0661776 0.00683462 0.0922517 ) 0 
( 0.0715054 0.0626762 0.0878624 ) 0 
( 0.0484841 0.0859364 0.0897884 ) 0 
( 0.0302396 0.075488 0.0993272 ) 0 
( 0.0175953 0.063525 0.0886098 ) 0 
( 0.0803729 0.0809997 0.0929016 ) 0 
( 0.0937019 0.0257983 0.0993442 ) 0 
( 0.0253117 0.0964238 0.092557 ) 0 
( 0.076425 0.0246665 0.0922921 ) 0 
( 0.0265606 0.0631963 0.0897981 ) 0 
( 0.0239839 0.00753342 0.0899274 ) 0 
( 0.0344308 0.00324964 0.0925805 ) 0 
( 0.0591857 0.043188 0.0992961 ) 0 
( 0.0144215 0.0322233 0.0921826 ) 0 
( 0.0983421 0.019495 0.0886273 ) 0 
( 0.0717891 0.00717186 0.0928205 ) 0 
( 0.0800331 0.00201038 0.0884774 ) 0 
( 0.09416 0.0840049 0.0891597 ) 0 
( 0.0387226 0.0481363 0.0886773 ) 0 
( 0.0935627 0.0299461 0.0995002 ) 0 
( 0.040283 0.0747775 0.0995002 ) 0 
( 0.0441925 0.0933993 0.0872331 ) 0 
( 0.066578 0.0453901 0.0907457 ) 0 
( 0.0379797 0.0736027 0.0911593 ) 0 
( 0.0283012 0.0729564 0.0876971 ) 0 
( 0.0444383 0.0697483 0.0994762 ) 0 
( 0.0897943 0.0827394 0.0995002 ) 0 
( 0.0776237 0.0879348 0.0900568 ) 0 
( 0.0404257 0.0213968 0.0891214 ) 0 
( 0.0653126 0.0326545 0.087149 ) 0 
( 0.0495309 0.0524058 0.0901709 ) 0 
( 0.0305456 0.0933014 0.0923317 ) 0 
( 0.0608173 0.0881711 0.0995002 ) 0 
( 0.0798767 0.0258044 0.0995002 ) 0 
( 0.0107325 0.0748349 0.0921947 ) 0 
( 0.0715272 0.0928946 0.0896975 ) 0 
( 0.0956695 0.0795612 0.0990951 ) 0 
( 0.0635593 0.0115258 0.0888117 ) 0 
( 0.0927744 0.000901616 0.0979719 ) 0 
( 0.0244825 0.0332821 0.0918821 ) 0 
( 0.0795104 0.0613429 0.0995002 ) 0 
( 0.0539272 0.0862915 0.0908667 ) 0 
( 0.0947233 0.0511402 0.0928115 ) 0 
( 0.055602 0.0162717 0.0914531 ) 0 
( 0.0359662 0.097992 0.0967464 ) 0 
( 0.0571082 0.0710786 0.0893597 ) 0 
( 0.0948101 0.0900215 0.0995002 ) 0 
( 0.0276658 0.0834253 0.0926284 ) 0 
( 0.0693396 0.0407666 0.0994206 ) 0 
( 0.0490642 0.084671 0.099473 ) 0 
( 0.0191334 0.0591474 0.0992424 ) 0 
( 0.0297523 0.0586108 0.088843 ) 0 
( 0.0848841 0.0441396 0.097151 ) 0 
( 0.0387592 0.00107433 0.0995002 ) 0 
( 0.0968658 0.0442071 0.0995002 ) 0 
( 0.0222154 0.0718564 0.0995002 ) 0 
( 0.091072 0.0223169 0.0994741 ) 0 
( 0.0166822 0.0332133 0.0965606 ) 0 
( 0.0401234 0.0716048 0.0991082 ) 0 
( 0.0675144 0.0173977 0.092854 ) 0 
( 0.0745678 0.0546778 0.0914667 ) 0 
( 0.0928416 0.0355851 0.0919222 ) 0 
( 0.0412941 0.0837165 0.0995002 ) 0 
( 0.084882 0.0160219 0.0899705 ) 0 
( 0.0731307 0.0678456 0.0995002 ) 0 
( 0.0259927 0.0923654 0.0995002 ) 0 
( 0.0268829 0.0824869 0.0900722 ) 0 
( 0.0219215 0.0329774 0.0882466 ) 0 
( 0.0743766 0.0630069 0.0907735 ) 0 
( 0.0887344 0.00988021 0.0989684 ) 0 
( 0.0403821 0.043275 0.0889469 ) 0 
( 0.0707208 0.0357781 0.0883955 ) 0 
( 0.000577774 0.0637645 0.0991713 ) 0 
( 0.0564845 0.0700961 0.0886647 ) 0 
( 0.0397227 0.0191449 0.0935311 ) 0 
( 0.0969921 0.0613037 0.0887288 ) 0 
( 0.0295587 0.04273 0.0897746 ) 0 
( 0.0522242 0.0835105 0.0991737 ) 0 
( 0.041145 0.0498415 0.0995002 ) 0 
( 0.0265333 0.0869211 0.0888733 ) 0 
( 0.0110967 0.0297872 0.098203 ) 0 
( 0.0871947 0.0650323 0.0918001 ) 0 
( 0.0884158 0.0882944 0.0995002 ) 0 
( 0.0641498 0.0138862 0.0995002 ) 0 
( 0.0451729 0.0548684 0.0995002 ) 0 
( 0.0543947 0.0462048 0.0886321 ) 0 
( 0.044164 0.0337524 0.0990547 ) 0 
( 0.0860771 0.0593574 0.0949543 ) 0 
( 0.0581472 0.0846065 0.099068 ) 0 
( 0.0701178 0.0476346 0.090681 ) 0 
( 0.0758684 0.00182339 0.0982657 ) 0 
( 0.084243 0.0200688 0.0917524 ) 0 
( 0.00147901 0.0590171 0.0995002 ) 0 
( 0.0631603 0.0900474 0.0889423 ) 0 
( 0.0855001 0.0215606 0.0950761 ) 0 
( 0.0724153 0.0400196 0.0901115 ) 0 
( 0.0144931 0.068559 0.0989689 ) 0 
( 0.0286576 0.0753778 0.0951476 ) 0 
( 0.0185587 0.0305742 0.0990069 ) 0 
( 0.0138961 0.0697762 0.0994863 ) 0 
( 0.00985563 0.0501199 0.0961894 ) 0 
( 0.0388218 0.0298795 0.0896463 ) 0 
( 0.0231261 0.0124029 0.099335 ) 0 
( 0.0967855 0.0877729 0.0995002 ) 0 
( 0.00585462 0.0114572 0.0993643 ) 0 
( 0.0837949 0.0423192 0.0899242 ) 0 
( 0.0491643 0.0927222 0.0941194 ) 0 
( 0.0235045 0.0634198 0.0990171 ) 0 
( 0.014961 0.0516626 0.0995002 ) 0 
( 0.0566474 0.0261544 0.0883773 ) 0 
( 0.0348408 0.00484404 0.086968 ) 0 
( 0.0746189 0.00326396 0.0943821 ) 0 
( 0.00714639 0.0625573 0.0895541 ) 0 
( 0.106144 0.0969255 0.0978851 ) 0 
( 0.0508577 0.0386799 0.0995002 ) 0 
( 0.0153814 0.0597238 0.0990793 ) 0 
( 0.0854472 0.0324567 0.0923449 ) 0 
( 0.0862554 0.0252568 0.0995002 ) 0 
( 0.0725763 0.0174132 0.0932601 ) 0 
( 0.0774093 0.0365503 0.0909282 ) 0 
( 0.00811844 0.0324686 0.0896587 ) 0 
( 0.043369 0.00255667 0.0970886 ) 0 
( 0.00308111 0.0565692 0.0968154 ) 0 
( 0.0944169 0.00521594 0.0991145 ) 0 
( 0.0321735 0.0378165 0.0995006 ) 0 
( 0.0825422 0.086505 0.0977927 ) 0 
( 0.0155853 0.055392 0.0896849 ) 0 
( 0.39574 0.00234356 0.0995002 ) 0 
( 0.0952972 0.0036875 0.0882168 ) 0 
( 0.0759231 0.0572058 0.0900758 ) 0 
( 0.0241721 0.015893 0.0925068 ) 0 
( 0.0372671 0.0319705 0.0940139 ) 0 
( 0.0750619 0.0551697 0.0970837 ) 0 
( 0.0722209 0.0336487 0.0932502 ) 0 
( 0.15596 0.0375556 0.0995002 ) 0 
( 0.185465 0.038644 0.0995002 ) 0 
( 0.120723 0.0554691 0.0886362 ) 0 
( 0.166489 0.0806296 0.0879067 ) 0 
( 0.111559 0.0136175 0.0990748 ) 0 
( 0.150542 0.0521314 0.0906865 ) 0 
( 0.195751 0.0605182 0.0926854 ) 0 
( 0.132497 0.021614 0.0990948 ) 0 
( 0.140136 0.0414629 0.0886713 ) 0 
( 0.131891 0.0591607 0.0920669 ) 0 
( 0.151501 0.0707902 0.0938828 ) 0 
( 0.138727 0.099296 0.0977884 ) 0 
( 0.12271 0.0948041 0.09921 ) 0 
( 0.195286 0.0658764 0.0995002 ) 0 
( 0.137053 0.0704704 0.0995002 ) 0 
( 0.120297 0.0953335 0.0988606 ) 0 
( 0.139139 0.0336209 0.0990141 ) 0 
( 0.188572 0.0850761 0.0886504 ) 0 
( 0.15276 0.0633162 0.0976452 ) 0 
( 0.167319 0.0213408 0.0897269 ) 0 
( 0.122832 0.0338673 0.089816 ) 0 
( 0.145184 0.0548615 0.0972395 ) 0 
( 0.167769 0.00330642 0.0946758 ) 0 
( 0.106059 0.0172698 0.0995002 ) 0 
( 0.115513 0.0875474 0.0883292 ) 0 
( 0.137066 0.020543 0.098969 ) 0 
( 0.158987 0.0486324 0.0878058 ) 0 
( 0.148581 0.0598596 0.0992864 ) 0 
( 0.193006 0.0445248 0.0898962 ) 0 
( 0.190651 0.0636521 0.0920749 ) 0 
( 0.127171 0.064222 0.0990475 ) 0 
( 0.185297 0.0587685 0.0915185 ) 0 
( 0.151556 0.0301645 0.0888389 ) 0 
( 0.1219 0.0485395 0.0871349 ) 0 
( 0.10975 0.0801404 0.0899607 ) 0 
( 0.104871 0.0676859 0.0995002 ) 0 
( 0.17905 0.0824329 0.0869177 ) 0 
( 0.117721 0.0894275 0.0902108 ) 0 
( 0.14318 0.0563302 0.0886524 ) 0 
( 0.128595 0.0276657 0.0995003 ) 0 
( 0.104709 0.0762106 0.0993565 ) 0 
( 0.179891 0.0553425 0.0924096 ) 0 
( 0.165284 0.0986243 0.0971737 ) 0 
( 0.141483 0.0452454 0.0937123 ) 0 
( 0.190077 0.0796241 0.0989693 ) 0 
( 0.166322 0.0608604 0.088417 ) 0 
( 0.172939 0.0637923 0.0883228 ) 0 
( 0.101714 0.0232345 0.0995002 ) 0 
( 0.124495 0.0300643 0.0885385 ) 0 
( 0.124416 0.0888037 0.0887702 ) 0 
( 0.195503 0.0464895 0.0913731 ) 0 
( 0.107409 0.0342527 0.0974012 ) 0 
( 0.136689 0.0367942 0.0995002 ) 0 
( 0.109609 0.0560484 0.0912519 ) 0 
( 0.161744 0.0889215 0.0882135 ) 0 
( 0.14929 0.0550169 0.0989611 ) 0 
( 0.103705 0.0656564 0.098987 ) 0 
( 0.145804 0.0417409 0.0903034 ) 0 
( 0.0934107 0.0724785 0.0994411 ) 0 
( 0.134399 0.00501838 0.0885629 ) 0 
( 0.109751 0.0725369 0.0872494 ) 0 
( 0.103543 0.0618187 0.099015 ) 0 
( 0.101223 0.067655 0.0967284 ) 0 
( 0.150639 0.00640669 0.0981009 ) 0 
( 0.113061 0.0177222 0.0941274 ) 0 
( 0.170319 0.00329984 0.0912589 ) 0 
( 0.185462 0.0896742 0.0990604 ) 0 
( 0.110561 0.0506 0.088541 ) 0 
( 0.116102 0.0129403 0.0992525 ) 0 
( 0.133099 0.0855581 0.0902622 ) 0 
( 0.196784 0.0721823 0.0878681 ) 0 
( 0.154329 0.00317987 0.0891587 ) 0 
( 0.142105 0.0784205 0.0888148 ) 0 
( 0.193116 0.0818079 0.0951043 ) 0 
( 0.2001 0.0905862 0.0925442 ) 0 
( 0.125867 0.0232558 0.0991904 ) 0 
( 0.133276 0.0663106 0.0990497 ) 0 
( 0.148454 0.00884065 0.0994069 ) 0 
( 0.119962 0.0369643 0.0981559 ) 0 
( 0.128405 0.0164211 0.0995002 ) 0 
( 0.100597 0.0381264 0.0995002 ) 0 
( 0.14631 0.039703 0.0885531 ) 0 
( 0.103092 0.057898 0.0961263 ) 0 
( 0.194961 0.0548502 0.0936856 ) 0 
( 0.177515 0.056921 0.0990081 ) 0 
( 0.170573 0.0350719 0.0883503 ) 0 
( 0.131992 0.00596009 0.0934783 ) 0 
( 0.167667 0.064043 0.0990651 ) 0 
( 0.102046 0.0131657 0.09901 ) 0 
( 0.145982 0.0434885 0.0991979 ) 0 
( 0.161598 0.0590965 0.0940549 ) 0 
( 0.147273 0.0372584 0.0995002 ) 0 
( 0.194991 0.0444327 0.0994691 ) 0 
( 0.185124 0.0753191 0.0885597 ) 0 
( 0.151755 0.0214697 0.088603 ) 0 
( 0.132158 0.0605395 0.0994979 ) 0 
( 0.14341 0.0544393 0.0992541 ) 0 
( 0.19812 0.0304919 0.0886893 ) 0 
( 0.190636 0.0411853 0.0900646 ) 0 
( 0.105048 0.0209388 0.0919205 ) 0 
( 0.175421 0.037164 0.0880654 ) 0 
( 0.193676 0.0362495 0.0910179 ) 0 
( 0.113228 0.0468569 0.088276 ) 0 
( 0.121641 0.0686529 0.0885068 ) 0 
( 0.155644 0.0953224 0.0993116 ) 0 
( 0.103906 0.0464503 0.0993811 ) 0 
( 0.198436 0.051073 0.0994623 ) 0 
( 0.160864 0.0703016 0.0991064 ) 0 
( 0.136831 0.0333411 0.0989761 ) 0 
( 0.132008 0.0552438 0.089632 ) 0 
( 0.17799 0.0351735 0.0989972 ) 0 
( 0.185046 0.0834991 0.0994669 ) 0 
( 0.114334 0.012452 0.0983277 ) 0 
( 0.198108 0.0192191 0.0888861 ) 0 
( 0.172747 0.0312575 0.0980801 ) 0 
( 0.175767 0.0907118 0.0929175 ) 0 
( 0.129482 0.0927455 0.0991309 ) 0 
( 0.178599 0.0445493 0.0897046 ) 0 
( 0.190302 0.0265648 0.0995002 ) 0 
( 0.198737 0.003022 0.0995002 ) 0 
( 0.108269 0.00226074 0.0995002 ) 0 
( 0.195425 0.00881467 0.0881799 ) 0 
( 0.155346 0.0875483 0.0915433 ) 0 
( 0.193668 0.0445984 0.099138 ) 0 
( 0.153667 0.0417792 0.0991846 ) 0 
( 0.145089 0.028898 0.0995002 ) 0 
( 0.184639 0.0793851 0.0913241 ) 0 
( 0.202695 0.0727922 0.096152 ) 0 
( 0.170055 0.0724924 0.0894236 ) 0 
( 0.128824 0.050678 0.0886343 ) 0 
( 0.111257 0.0956826 0.0885737 ) 0 
( 0.159978 0.025185 0.0948202 ) 0 
( 0.162917 0.0137902 0.0994711 ) 0 
( 0.176665 0.0665937 0.0981979 ) 0 
( 0.127408 0.046962 0.0995002 ) 0 
( 0.142386 0.052146 0.0994684 ) 0 
( 0.125398 0.0407718 0.092678 ) 0 
( 0.18599 0.0567133 0.0995002 ) 0 
( 0.143385 0.0366921 0.0995006 ) 0 
( 0.173984 0.0264519 0.0994646 ) 0 
( 0.200426 0.0723317 0.0884287 ) 0 
( 0.150354 0.00983691 0.0885226 ) 0 
( 0.191895 0.00447135 0.0994898 ) 0 
( 0.131281 0.00384675 0.0913971 ) 0 
( 0.122829 0.053311 0.0956223 ) 0 
( 0.152462 0.0239885 0.0907527 ) 0 
( 0.124776 0.0168972 0.0995002 ) 0 
( 0.169993 0.0982772 0.0886599 ) 0 
( 0.12175 0.0898067 0.0957545 ) 0 
( 0.188111 0.0209066 0.0957544 ) 0 
( 0.136027 0.0181765 0.0995002 ) 0 
( 0.131296 0.0537282 0.0958706 ) 0 
( 0.12606 0.0748413 0.088973 ) 0 
( 0.192157 0.0207276 0.0994641 ) 0 
( 0.122346 0.029228 0.0930068 ) 0 
( 0.183584 0.0451933 0.0949 ) 0 
( 0.138066 0.0524473 0.0890766 ) 0 
( 0.105803 0.0648417 0.0995021 ) 0 
( 0.15829 0.0155291 0.0995002 ) 0 
( 0.184248 0.0904068 0.0886812 ) 0 
( 0.152833 0.0080973 0.0994638 ) 0 
( 0.131677 0.053322 0.0994731 ) 0 
( 0.108024 0.0877359 0.0991001 ) 0 
( 0.167715 0.0165871 0.0992466 ) 0 
( 0.152124 0.081066 0.0993677 ) 0 
( 0.146066 0.0233328 0.0983304 ) 0 
( 0.112711 0.0125774 0.0992705 ) 0 
( 0.116594 0.0205369 0.0883094 ) 0 
( 0.188732 0.0518335 0.0985038 ) 0 
( 0.164298 0.0856777 0.0995002 ) 0 
( 0.11743 0.0839311 0.089281 ) 0 
( 0.12648 0.0814903 0.0995002 ) 0 
( 0.181234 0.0856245 0.099501 ) 0 
( 0.132194 0.0812815 0.0886517 ) 0 
( 0.143621 0.0518255 0.0992215 ) 0 
( 0.177298 0.075829 0.0903956 ) 0 
( 0.187743 0.0660834 0.0899331 ) 0 
( 0.139801 0.0244723 0.0882078 ) 0 
( 0.144175 0.069393 0.0995002 ) 0 
( 0.106532 0.0434995 0.0970521 ) 0 
( 0.146398 0.0724795 0.0992732 ) 0 
( 0.127362 0.0932232 0.0995002 ) 0 
( 0.165647 0.0694584 0.0887457 ) 0 
( 0.109324 0.0980347 0.0990572 ) 0 
( 0.117913 0.0112268 0.0993293 ) 0 
( 0.181613 0.0823518 0.0995002 ) 0 
( 0.180281 0.0853234 0.0995108 ) 0 
( 0.127 0.0406668 0.0995002 ) 0 
( 0.144169 0.007411 0.0970064 ) 0 
( 0.173966 0.0386185 0.099091 ) 0 
( 0.137679 0.0842624 0.0991045 ) 0 
( 0.104293 0.0599089 0.0989982 ) 0 
( 0.101406 0.0218443 0.0969392 ) 0 
( 0.192697 0.0263312 0.0990196 ) 0 
( 0.111029 0.00946534 0.0905111 ) 0 
( 0.113266 0.0759087 0.0995002 ) 0 
( 0.168282 0.0785167 0.0890647 ) 0 
( 0.164753 0.0184477 0.08689 ) 0 
( 0.113354 0.00580707 0.0934428 ) 0 
( 0.103601 0.0522513 0.0990367 ) 0 
( 0.187115 0.052573 0.0995002 ) 0 
( 0.18253 0.03234 0.0886202 ) 0 
( 0.17372 0.0064485 0.0991491 ) 0 
( 0.137781 0.0560117 0.0903279 ) 0 
( 0.198626 0.0816383 0.0885835 ) 0 
( 0.158237 0.0527975 0.0990098 ) 0 
( 0.115572 0.079454 0.0959963 ) 0 
( 0.156587 0.06965 0.0879021 ) 0 
( 0.154199 0.0558551 0.098672 ) 0 
( 0.191939 0.0991536 0.0995002 ) 0 
( 0.110724 0.0775137 0.0974209 ) 0 
( 0.133676 0.032271 0.0995002 ) 0 
( 0.191997 0.013315 0.0995002 ) 0 
( 0.113752 0.0541009 0.0894952 ) 0 
( 0.117835 0.086351 0.0883729 ) 0 
( 0.186436 0.0489731 0.0995002 ) 0 
( 0.136603 0.00415678 0.099278 ) 0 
( 0.114311 0.0146184 0.0995002 ) 0 
( 0.137436 0.0458788 0.0994616 ) 0 
( 0.154576 0.0978337 0.0995002 ) 0 
( 0.194435 0.0203233 0.0995002 ) 0 
( 0.178415 0.0606779 0.0969266 ) 0 
( 0.154901 0.0378828 0.0995002 ) 0 
( 0.135727 0.0954183 0.0995002 ) 0 
( 0.131505 0.0156894 0.0995002 ) 0 
( 0.157201 0.0727177 0.0899911 ) 0 
( 0.156445 0.00906791 0.0995002 ) 0 
( 0.1024 0.0413859 0.0991845 ) 0 
( 0.106527 0.0392568 0.0972956 ) 0 
( 0.143842 0.0332788 0.0899586 ) 0 
( 0.146684 0.0314934 0.088375 ) 0 
( 0.194602 0.0747633 0.0885465 ) 0 
( 0.126875 0.0330803 0.0887565 ) 0 
( 0.177771 0.0719896 0.0885642 ) 0 
( 0.182563 0.0299935 0.0935523 ) 0 
( 0.138812 0.0295882 0.0995002 ) 0 
( 0.122388 0.0695585 0.0931196 ) 0 
( 0.195134 0.0280199 0.0956546 ) 0 
( 0.156929 0.000908942 0.0990128 ) 0 
( 0.149986 0.0903315 0.0877393 ) 0 
( 0.180992 0.000856607 0.0887011 ) 0 
( 0.118784 0.0311746 0.093851 ) 0 
( 0.171166 0.0985156 0.0910228 ) 0 
( 0.186999 0.0138743 0.0995002 ) 0 
( 0.167974 0.057024 0.0882654 ) 0 
( 0.10616 0.0152049 0.0962611 ) 0 
( 0.179505 0.0138571 0.0925562 ) 0 
( 0.198944 0.064289 0.0915091 ) 0 
( 0.185279 0.0109821 0.0915406 ) 0 
( 0.170594 0.00830918 0.0890077 ) 0 
( 0.101758 0.0286897 0.099382 ) 0 
( 0.283232 0.0394518 0.0992778 ) 0 
( 0.239115 0.0961687 0.0885442 ) 0 
( 0.299765 0.0186232 0.0943399 ) 0 
( 0.239424 0.052333 0.088655 ) 0 
( 0.216117 0.023392 0.092893 ) 0 
( 0.206899 0.0657506 0.0887111 ) 0 
( 0.28092 0.0429009 0.097855 ) 0 
( 0.269935 0.0267831 0.0886211 ) 0 
( 0.242254 0.0459465 0.0946235 ) 0 
( 0.212876 0.0659064 0.0994661 ) 0 
( 0.276728 0.0707845 0.0994633 ) 0 
( 0.281297 0.0230961 0.0965996 ) 0 
( 0.227944 0.0419737 0.0913322 ) 0 
( 0.227868 0.0222329 0.0932076 ) 0 
( 0.216422 0.057026 0.0877255 ) 0 
( 0.215458 0.0250255 0.0995002 ) 0 
( 0.265987 0.0203205 0.0921106 ) 0 
( 0.220181 0.021036 0.0908064 ) 0 
( 0.2723 0.0130418 0.0989952 ) 0 
( 0.260704 0.0907634 0.0889559 ) 0 
( 0.271327 0.0298064 0.0885831 ) 0 
( 0.245012 0.0724053 0.0906788 ) 0 
( 0.207893 0.0390887 0.0995002 ) 0 
( 0.204752 0.00314106 0.0881087 ) 0 
( 0.248547 0.0721051 0.0946069 ) 0 
( 0.290563 0.0989741 0.0993448 ) 0 
( 0.284182 0.00577021 0.0993269 ) 0 
( 0.221705 0.0948514 0.0992343 ) 0 
( 0.209306 0.0876779 0.0983119 ) 0 
( 0.220191 0.0844772 0.091018 ) 0 
( 0.215585 0.00413933 0.0978664 ) 0 
( 0.22432 0.0500668 0.0885863 ) 0 
( 0.239293 0.0923911 0.0993174 ) 0 
( 0.229916 0.0957675 0.0992816 ) 0 
( 0.25247 0.0615671 0.0924237 ) 0 
( 0.270357 0.0564725 0.0938655 ) 0 
( 0.273221 0.0111804 0.088749 ) 0 
( 0.240492 0.00725326 0.08869 ) 0 
( 0.294196 0.0882042 0.0893966 ) 0 
( 0.260167 0.0961931 0.0915657 ) 0 
( 0.283676 0.0240936 0.0921305 ) 0 
( 0.222209 0.0296701 0.0868832 ) 0 
( 0.246215 0.0415755 0.0882587 ) 0 
( 0.217614 0.058307 0.0991178 ) 0 
( 0.208911 0.036458 0.0884384 ) 0 
( 0.268304 0.00497841 0.0893611 ) 0 
( 0.277681 0.0988174 0.0887301 ) 0 
( 0.279284 0.0123513 0.0991506 ) 0 
( 0.225079 0.0402056 0.0885578 ) 0 
( 0.224046 0.0728751 0.0995002 ) 0 
( 0.281009 0.0136488 0.0990215 ) 0 
( 0.241085 0.0714768 0.0957059 ) 0 
( 0.263797 0.0161943 0.0888323 ) 0 
( 0.245181 0.0671143 0.0995002 ) 0 
( 0.269176 0.0605393 0.0995002 ) 0 
( 0.239199 0.0460506 0.0991476 ) 0 
( 0.286513 0.0314038 0.0995002 ) 0 
( 0.276305 0.00650623 0.0884327 ) 0 
( 0.210373 0.0548402 0.0995002 ) 0 
( 0.283551 0.0107518 0.0883991 ) 0 
( 0.225198 0.0456402 0.099466 ) 0 
( 0.214597 0.0304158 0.0932688 ) 0 
( 0.291381 0.0518754 0.0888427 ) 0 
( 0.246801 0.0713331 0.0939496 ) 0 
( 0.218018 0.00763632 0.090522 ) 0 
( 0.287476 0.0260677 0.0955834 ) 0 
( 0.26606 0.0330413 0.0964171 ) 0 
( 0.229354 0.0236484 0.0925053 ) 0 
( 0.290177 0.00690767 0.0995002 ) 0 
( 0.229086 0.0110828 0.0991726 ) 0 
( 0.280467 0.0844694 0.0990512 ) 0 
( 0.215495 0.0652303 0.0993505 ) 0 
( 0.290928 0.0808578 0.0971032 ) 0 
( 0.213404 0.0106393 0.0900085 ) 0 
( 0.269018 0.0917737 0.0995002 ) 0 
( 0.243267 0.0311335 0.0991932 ) 0 
( 0.240091 0.0617343 0.0958809 ) 0 
( 0.23496 0.0662506 0.088711 ) 0 
( 0.266147 0.0801195 0.0994456 ) 0 
( 0.263048 0.0760909 0.0992765 ) 0 
( 0.252592 0.0801599 0.0989886 ) 0 
( 0.263498 0.09508 0.0902655 ) 0 
( 0.241251 0.0798339 0.0986006 ) 0 
( 0.268439 0.0536624 0.0877362 ) 0 
( 0.208477 0.0732895 0.0957014 ) 0 
( 0.296752 0.0885303 0.0884927 ) 0 
( 0.213321 0.0526854 0.0982771 ) 0 
( 0.260535 0.0586468 0.0994654 ) 0 
( 0.232794 0.0409218 0.092871 ) 0 
( 0.271513 0.0826146 0.0885037 ) 0 
( 0.264162 0.0526404 0.0994489 ) 0 
( 0.206913 0.012126 0.0995002 ) 0 
( 0.203254 0.0390531 0.0885009 ) 0 
( 0.277178 0.0846653 0.0886435 ) 0 
( 0.202317 0.0221933 0.0886515 ) 0 
( 0.256304 0.094077 0.0885131 ) 0 
( 0.290862 0.0752219 0.099292 ) 0 
( 0.213862 0.0887188 0.0995002 ) 0 
( 0.215743 0.00981968 0.0921003 ) 0 
( 0.250509 0.018526 0.0942289 ) 0 
( 0.237414 0.0540429 0.0870068 ) 0 
( 0.249281 0.0406579 0.0931756 ) 0 
( 0.219004 0.09437 0.0989899 ) 0 
( 0.298481 0.0383254 0.0988138 ) 0 
( 0.279781 0.0813015 0.0925267 ) 0 
( 0.280415 0.0214782 0.0885475 ) 0 
( 0.281776 0.00356929 0.0995002 ) 0 
( 0.21842 0.0482176 0.0912224 ) 0 
( 0.208847 0.0831458 0.0905092 ) 0 
( 0.285621 0.0252968 0.0945382 ) 0 
( 0.268483 0.0430182 0.090272 ) 0 
( 0.279001 0.0520983 0.0878547 ) 0 
( 0.252674 0.00655251 0.0888544 ) 0 
( 0.24849 0.0637754 0.0957575 ) 0 
( 0.267428 0.0849067 0.0890318 ) 0 
( 0.264515 0.0516531 0.0994962 ) 0 
( 0.23237 0.0631937 0.0877302 ) 0 
( 0.279325 0.0187364 0.0995002 ) 0 
( 0.225086 0.0133376 0.0994267 ) 0 
( 0.264272 0.089609 0.0991642 ) 0 
( 0.223706 0.0131472 0.0994981 ) 0 
( 0.222881 0.0787237 0.0995002 ) 0 
( 0.25819 0.0245433 0.0995002 ) 0 
( 0.233804 0.0504116 0.0894799 ) 0 
( 0.262891 0.0260063 0.0883092 ) 0 
( 0.285249 0.0760182 0.0892892 ) 0 
( 0.252175 0.0635289 0.0995002 ) 0 
( 0.207799 0.0155946 0.0995002 ) 0 
( 0.261995 0.098683 0.099003 ) 0 
( 0.241628 0.025491 0.0922989 ) 0 
( 0.284565 0.09418 0.0990079 ) 0 
( 0.243184 0.08935 0.088683 ) 0 
( 0.22561 0.0663644 0.0989714 ) 0 
( 0.289319 0.0794355 0.0889554 ) 0 
( 0.277142 0.0500844 0.0877016 ) 0 
( 0.213453 0.0584158 0.0909952 ) 0 
( 0.211771 0.0005159 0.0990131 ) 0 
( 0.233835 0.0804188 0.0989762 ) 0 
( 0.249027 0.0306221 0.0990492 ) 0 
( 0.222102 0.00858406 0.0982864 ) 0 
( 0.221805 0.0630702 0.0994899 ) 0 
( 0.258207 0.0701641 0.0993842 ) 0 
( 0.259458 0.0982732 0.099464 ) 0 
( 0.220531 0.0762865 0.088999 ) 0 
( 0.209476 0.0389509 0.0995002 ) 0 
( 0.207717 0.0235486 0.0995002 ) 0 
( 0.242141 0.0598012 0.0994656 ) 0 
( 0.269681 0.00799015 0.0994985 ) 0 
( 0.240459 0.0496197 0.0878488 ) 0 
( 0.297363 0.0828698 0.0995002 ) 0 
( 0.204226 0.0489256 0.0995002 ) 0 
( 0.277646 0.0567856 0.088735 ) 0 
( 0.298394 0.0959235 0.0995002 ) 0 
( 0.257417 0.0487644 0.0994709 ) 0 
( 0.261801 0.00817278 0.0891196 ) 0 
( 0.262997 0.0971135 0.0995002 ) 0 
( 0.212935 0.00408514 0.098134 ) 0 
( 0.281398 0.0537378 0.0869855 ) 0 
( 0.258315 0.0134141 0.089303 ) 0 
( 0.282018 0.0330744 0.0907013 ) 0 
( 0.210253 0.00973328 0.099477 ) 0 
( 0.215976 0.0304926 0.0995004 ) 0 
( 0.237986 0.0232114 0.0886906 ) 0 
( 0.246726 0.0347048 0.0995002 ) 0 
( 0.286343 0.048501 0.0989816 ) 0 
( 0.246864 0.0620261 0.0915876 ) 0 
( 0.273111 0.0875177 0.0936444 ) 0 
( 0.298088 0.0665368 0.0915697 ) 0 
( 0.24653 0.0969284 0.0992559 ) 0 
( 0.266409 0.00176581 0.0990752 ) 0 
( 0.231732 0.0271489 0.0995002 ) 0 
( 0.210815 0.0959885 0.0952194 ) 0 
( 0.263113 0.0406667 0.0886303 ) 0 
( 0.245242 0.0174845 0.0950021 ) 0 
( 0.222584 0.0909347 0.0954368 ) 0 
( 0.277573 0.0927745 0.0948494 ) 0 
( 0.279473 0.0969257 0.0886071 ) 0 
( 0.281866 0.0965933 0.0907478 ) 0 
( 0.245574 0.0703269 0.0995002 ) 0 
( 0.205561 0.022751 0.0948658 ) 0 
( 0.239899 0.0191493 0.0903927 ) 0 
( 0.267844 0.0525907 0.0927944 ) 0 
( 0.229342 0.00395472 0.0987821 ) 0 
( 0.209195 0.00607467 0.0889684 ) 0 
( 0.245203 0.0330575 0.0995002 ) 0 
( 0.236172 0.0858144 0.0990474 ) 0 
( 0.268311 0.0441068 0.0897189 ) 0 
( 0.224121 0.0214248 0.099025 ) 0 
( 0.291879 0.0348726 0.0891078 ) 0 
( 0.253465 0.0175699 0.0995002 ) 0 
( 0.231822 0.0447191 0.0995002 ) 0 
( 0.209835 0.0687911 0.0995002 ) 0 
( 0.300337 0.0175675 0.0913817 ) 0 
( 0.281387 0.0770767 0.0884087 ) 0 
( 0.2504 0.060181 0.0936066 ) 0 
( 0.244488 0.00282324 0.0915686 ) 0 
( 0.29545 0.0320073 0.0948869 ) 0 
( 0.217018 0.0220275 0.0894495 ) 0 
( 0.248792 0.0919962 0.0886044 ) 0 
( 0.239563 0.048353 0.0893137 ) 0 
( 0.260682 0.0977206 0.0995002 ) 0 
( 0.262447 0.0496324 0.0939423 ) 0 
( 0.221024 0.0589329 0.0995002 ) 0 
( 0.194157 0.038155 0.0993565 ) 0 
( 0.263153 0.053539 0.0886621 ) 0 
( 0.218225 0.0339214 0.0995002 ) 0 
( 0.225918 0.0156661 0.0995002 ) 0 
( 0.240718 0.00377106 0.0992661 ) 0 
( 0.247294 0.0486743 0.0994858 ) 0 
( 0.21052 0.0802739 0.0884805 ) 0 
( 0.246835 0.0216586 0.0886222 ) 0 
( 0.300308 0.0767392 0.0887558 ) 0 
( 0.249476 0.0150046 0.0994433 ) 0 
( 0.218717 0.076761 0.0892105 ) 0 
( 0.257223 0.0512501 0.0910852 ) 0 
( 0.206653 0.0776197 0.0989748 ) 0 
( 0.2195 0.00270805 0.0885882 ) 0 
( 0.251648 0.054221 0.0995003 ) 0 
( 0.235483 0.0784322 0.0995002 ) 0 
( 0.206766 0.0168283 0.0885359 ) 0 
( 0.278081 0.00398456 0.0991555 ) 0 
( 0.204603 0.0841967 0.0886472 ) 0 
( 0.20637 0.098329 0.0909214 ) 0 
( 0.226111 0.0376728 0.099072 ) 0 
( 0.286902 0.0109962 0.0886212 ) 0 
( 0.256496 0.039174 0.0995002 ) 0 
( 0.207555 0.00522203 0.0994834 ) 0 
( 0.278707 0.0405881 0.0931453 ) 0 
( 0.219724 0.0156958 0.0995002 ) 0 
( 0.300032 0.0202257 0.0887002 ) 0 
( 0.217852 0.0846895 0.0993101 ) 0 
( 0.23682 0.0291042 0.0961257 ) 0 
( 0.27602 0.00326397 0.0920778 ) 0 
( 0.202579 0.0170861 0.0989753 ) 0 
( 0.266121 0.040911 0.0927881 ) 0 
( 0.230589 0.0815794 0.0954409 ) 0 
( 0.27672 0.00743685 0.0995002 ) 0 
( 0.256502 0.027522 0.0969483 ) 0 
( 0.235716 0.05662 0.0891745 ) 0 
( 0.241183 0.082536 0.0903595 ) 0 
( 0.295244 0.0508287 0.08949 ) 0 
( 0.282362 0.0639938 0.0965845 ) 0 
( 0.216224 0.0941493 0.0992698 ) 0 
( 0.248055 0.0461471 0.0992822 ) 0 
( 0.31601 0.0938567 0.0970327 ) 0 
( 0.240368 0.0586594 0.0995002 ) 0 
( 0.268315 0.0398229 0.0952044 ) 0 
( 0.264158 0.0108636 0.0958677 ) 0 
( 0.310792 0.041347 0.0981959 ) 0 
( 0.393414 0.0536922 0.0894061 ) 0 
( 0.377616 0.0817632 0.0995002 ) 0 
( 0.312228 0.0240433 0.0886964 ) 0 
( 0.320209 0.033162 0.0888834 ) 0 
( 0.311177 0.0285926 0.0989974 ) 0 
( 0.311529 0.0336749 0.0994473 ) 0 
( 0.347805 0.0926678 0.0995002 ) 0 
( 0.351482 0.0702835 0.0900419 ) 0 
( 0.387558 0.0903527 0.0941363 ) 0 
( 0.318376 0.0852718 0.0994154 ) 0 
( 0.310804 0.075388 0.0995046 ) 0 
( 0.316014 0.0846584 0.0886504 ) 0 
( 0.345515 0.0427825 0.0949997 ) 0 
( 0.335645 0.0481772 0.0963045 ) 0 
( 0.38794 0.0173663 0.0989931 ) 0 
( 0.319155 0.0467389 0.0885127 ) 0 
( 0.305193 0.0924586 0.0991609 ) 0 
( 0.332233 0.0964468 0.0905902 ) 0 
( 0.392224 0.0693674 0.0910208 ) 0 
( 0.374079 0.0382579 0.0995002 ) 0 
( 0.367177 0.010934 0.0916827 ) 0 
( 0.374233 0.0605976 0.094297 ) 0 
( 0.341738 0.0029798 0.0964232 ) 0 
( 0.381259 0.0217338 0.0920272 ) 0 
( 0.382833 0.00712691 0.0993074 ) 0 
( 0.331291 0.0909962 0.0994903 ) 0 
( 0.386751 0.0410766 0.0887795 ) 0 
( 0.370163 0.0155032 0.0962796 ) 0 
( 0.347036 0.0244359 0.0940941 ) 0 
( 0.340546 0.0446236 0.0995002 ) 0 
( 0.320082 0.0359141 0.0954819 ) 0 
( 0.308175 0.0598132 0.0992156 ) 0 
( 0.307184 0.0173667 0.090343 ) 0 
( 0.330903 0.0434748 0.0994876 ) 0 
( 0.395945 0.0429936 0.093926 ) 0 
( 0.334641 0.0452789 0.0884947 ) 0 
( 0.367362 0.0399191 0.0886638 ) 0 
( 0.362979 0.025084 0.0994907 ) 0 
( 0.345174 0.0200836 0.093135 ) 0 
( 0.332564 0.0580486 0.0885346 ) 0 
( 0.316104 0.0161713 0.0889311 ) 0 
( 0.387384 0.0928215 0.0935315 ) 0 
( 0.395212 0.0696402 0.0885142 ) 0 
( 0.349659 0.0379177 0.0989277 ) 0 
( 0.345953 0.0369898 0.0961823 ) 0 
( 0.351321 0.0120635 0.088437 ) 0 
( 0.36444 0.0461619 0.0906245 ) 0 
( 0.356192 0.0214954 0.0883652 ) 0 
( 0.356859 0.00146722 0.0958949 ) 0 
( 0.325515 0.0503593 0.0886735 ) 0 
( 0.326817 0.0609249 0.0994983 ) 0 
( 0.378254 0.0954841 0.0944119 ) 0 
( 0.374989 0.00869632 0.0931593 ) 0 
( 0.37776 0.0972507 0.0995002 ) 0 
( 0.38282 0.0781846 0.0959366 ) 0 
( 0.378017 0.0247691 0.0995002 ) 0 
( 0.318089 0.00318127 0.0927708 ) 0 
( 0.32462 0.00778363 0.0901112 ) 0 
( 0.348725 0.0473562 0.093196 ) 0 
( 0.377045 0.0679448 0.0958072 ) 0 
( 0.362588 0.0430488 0.0962363 ) 0 
( 0.317585 0.0862592 0.0940629 ) 0 
( 0.349921 0.0273608 0.0885421 ) 0 
( 0.323362 0.0990186 0.087971 ) 0 
( 0.379797 0.0361156 0.0995002 ) 0 
( 0.342636 0.0362562 0.0907333 ) 0 
( 0.322076 0.0975491 0.088714 ) 0 
( 0.294001 0.0517615 0.0995002 ) 0 
( 0.32749 0.0179315 0.0989804 ) 0 
( 0.347293 0.0966969 0.0989384 ) 0 
( 0.364341 0.000875885 0.0889281 ) 0 
( 0.327337 0.0366146 0.0886423 ) 0 
( 0.323334 0.0374299 0.0994788 ) 0 
( 0.30815 0.0657538 0.0868782 ) 0 
( 0.386864 0.0328829 0.0929403 ) 0 
( 0.389198 0.0798947 0.0971154 ) 0 
( 0.326626 0.0306805 0.0894348 ) 0 