FoamFile
{version 2.0; format ascii;class vectorField; location 0;object  v;}
1000
(
( 0.41441 -0.00157764 -0.0890713 )  
( 0.0208206 -0.00074989 0.0871539 )  
( 0.061145 -0.000821733 0.358847 )  
( 0.389271 -0.00211287 -0.056155 )  
( 0.0107252 -9.62196e-05 0.00981963 )  
( 0.0202842 6.49844e-05 -0.02413 )  
( 0.416396 0.00151159 -0.0399136 )  
( 0.0347621 0.000135723 -0.106997 )  
( 0.00724803 1.27612e-05 -7.9584e-08 )  
( 0.355098 -0.000542143 0.219542 )  
( 0.33712 -0.000114176 0.273426 )  
( 0.415829 -0.000700018 0.126315 )  
( 0.00705627 -0.000280318 2.1869e-08 )  
( 0.00796795 -7.26671e-05 -7.07234e-08 )  
( 0.106777 -0.000295009 0.264692 )  
( 0.00711382 -1.13479e-05 -4.09382e-08 )  
( 0.0205259 -9.7353e-05 -0.0823387 )  
( 0.00789309 -0.000111717 -7.01961e-08 )  
( 0.0260184 4.02805e-05 0.0369107 )  
( 0.411537 0.00215599 -0.0603723 )  
( 0.390801 -0.00288406 0.0282034 )  
( 0.144081 -7.44508e-05 0.224355 )  
( 0.132357 0.000595225 0.0294934 )  
( 0.12977 -0.000286507 0.321252 )  
( 0.00729827 -1.98509e-05 4.92727e-08 )  
( 0.167844 -0.000477923 0.303037 )  
( -0.0337831 -0.0357594 -3.15389e-08 )  
( 0.0216435 0.000347983 -0.0152883 )  
( 0.190612 -0.00698264 0.133198 )  
( 0.0224767 0.000262978 -0.0105817 )  
( 0.144135 0.000119271 0.0194904 )  
( 0.392072 -0.00111386 -0.0566456 )  
( -0.181266 0.014871 -0.050257 )  
( 0.0226261 1.34607e-05 0.00839408 )  
( 0.397627 -0.000503634 -0.00279295 )  
( 0.0368756 -8.37481e-05 0.207705 )  
( 0.0349625 -2.74557e-05 0.018774 )  
( 0.404693 -0.00510415 0.0439848 )  
( 0.39415 0.000214936 -0.0070147 )  
( 0.333184 0.000332397 0.24442 )  
( 0.0109732 4.34108e-05 0.023382 )  
( 0.015022 -2.24204e-05 -0.0573208 )  
( 0.0104105 -0.000241682 -0.000790343 )  
( 0.332196 -0.000282187 0.0874488 )  
( 0.274404 -0.000144329 0.0623187 )  
( 0.0121424 -0.000145429 -0.0214831 )  
( 0.0102401 3.68186e-05 0.0125646 )  
( 0.407074 0.000448635 -0.0851725 )  
( 0.387857 -0.00240633 -0.1343 )  
( 0.255412 0.00114291 0.266539 )  
( 0.411728 -0.00124307 0.0195286 )  
( 0.00770109 -8.51165e-05 2.3408e-08 )  
( 0.242383 -0.000617504 0.159881 )  
( 0.00749898 0.000152334 -3.59718e-08 )  
( 0.0202223 0.000127427 -0.0774994 )  
( 0.113566 0.000612782 0.332801 )  
( 0.0104408 0.000178279 0.0200915 )  
( 0.403907 -0.00132721 -0.135817 )  
( 0.387316 -0.0013468 0.192181 )  
( 0.370832 0.00280037 0.191522 )  
( 0.412365 -0.000839911 0.102025 )  
( 0.0251915 1.32601e-05 0.0217511 )  
( 0.417048 -0.000605307 -0.0923273 )  
( 0.338251 -0.000962886 0.255863 )  
( 0.394458 0.000364779 0.179161 )  
( -0.00297476 -0.0279019 -6.77175e-10 )  
( 0.00750184 0.000106435 8.68898e-07 )  
( 0.0227689 -0.000171924 0.0370308 )  
( 0.151868 -0.000439854 0.316913 )  
( 0.398609 -0.00302545 0.0145196 )  
( 0.415867 -2.94008e-05 -0.0517096 )  
( 0.0172251 0.000116858 -0.0687004 )  
( 0.179256 0.000856998 0.30209 )  
( 0.00757414 -2.83067e-05 4.54416e-05 )  
( 0.399782 0.000597855 -0.0490466 )  
( 0.0189437 -3.27066e-05 0.0879029 )  
( 0.0303737 5.42787e-05 0.280171 )  
( 0.359974 0.00169762 0.26319 )  
( 0.383642 -0.000931791 0.197431 )  
( 0.0243418 0.000143476 -0.0895325 )  
( 0.0115152 -3.85058e-05 -0.0152187 )  
( 0.39973 -0.00464989 -0.108287 )  
( 0.395382 0.000787071 -0.0733237 )  
( 0.0171227 -0.000127455 0.106932 )  
( 0.0104704 0.000245401 0.0184649 )  
( 0.0115549 -0.000156056 -0.0125311 )  
( 0.0108405 0.000159422 0.00199657 )  
( 0.00713805 -0.000129473 -4.47269e-08 )  
( 0.404339 -0.00596952 -0.0643937 )  
( 0.401757 -0.00325669 0.0495234 )  
( 0.0182627 1.02243e-05 -0.0798465 )  
( 0.00733626 0.000198731 5.94618e-08 )  
( -0.0233694 0.00233726 7.8187e-06 )  
( 0.396389 -0.00419941 0.0863971 )  
( 0.00443138 9.22488e-05 2.54208e-08 )  
( 0.233286 0.000595659 0.171847 )  
( 0.399993 0.000254352 0.042378 )  
( 0.00615887 -0.105581 -2.95559e-08 )  
( 0.019041 0.000325384 -0.0251598 )  
( 0.401045 -0.00135679 -0.123463 )  
( 0.396934 -0.00243012 -0.00605051 )  
( 0.00713867 0.000145649 8.65511e-08 )  
( 0.0149477 0.00024367 -0.0614318 )  
( 0.00727239 0.00014159 5.96302e-08 )  
( 0.297933 0.0018791 0.266803 )  
( 0.0774677 0.284009 0.0885743 )  
( 0.00715808 -5.50439e-05 -4.13197e-08 )  
( 0.0865906 -0.0177666 -9.2925e-08 )  
( 0.397102 0.000926899 0.0275696 )  
( 0.0961424 -0.158979 0.061028 )  
( 0.0104968 8.54889e-05 0.00208596 )  
( 0.416763 0.000396032 -0.0689025 )  
( 0.394764 -0.000256191 0.0605598 )  
( 0.414571 0.00192646 -0.00348391 )  
( 0.127037 -1.20257e-05 -0.111646 )  
( 0.394303 -0.00172905 -0.127453 )  
( 0.0138931 -0.147783 -7.72253e-08 )  
( 0.317743 0.00090942 0.185466 )  
( 0.39712 -0.00215515 -0.130861 )  
( 0.397721 -0.00459298 0.0706431 )  
( 0.0649132 -0.000801273 0.375609 )  
( 0.417497 0.0014167 -0.0593325 )  
( 0.393777 0.000841115 0.204174 )  
( 0.0210713 0.000253967 0.0823827 )  
( 0.0397756 -0.104912 0.0452535 )  
( 0.227451 -0.00133951 0.153742 )  
( 0.34269 0.000572036 0.0512664 )  
( 0.272077 -0.000335943 0.0820847 )  
( 0.137276 -0.00061013 0.195646 )  
( 0.0210695 -8.70042e-05 -0.086865 )  
( 0.409168 -0.00101023 0.147246 )  
( 0.397078 -0.00122304 -0.0453779 )  
( 0.359956 0.000175298 0.198838 )  
( 0.0636611 -0.000570462 -0.0423766 )  
( 0.403029 0.00113304 0.0341463 )  
( 0.413086 -0.00155393 -0.107763 )  
( 0.00770867 0.000223093 -2.36057e-08 )  
( 0.00711645 -0.000164925 -5.28902e-08 )  
( 0.38842 -0.00283822 -0.162686 )  
( 0.392094 -0.000916021 0.0829029 )  
( 0.304874 -0.00208296 0.110897 )  
( 0.414044 -0.000647468 -0.0176007 )  
( 0.0333996 -4.63255e-05 -0.103019 )  
( 0.00779443 8.97758e-05 1.26613e-07 )  
( 0.363346 0.000139123 0.044404 )  
( 0.412517 -5.91072e-05 0.0186983 )  
( 0.393605 -0.00146962 -0.158678 )  
( 0.401859 -0.00337925 0.107253 )  
( 0.283986 0.284147 0.0252921 )  
( 0.00739299 7.45143e-05 1.29937e-08 )  
( 0.0073326 -2.25523e-05 -4.77016e-08 )  
( 0.321173 0.00260689 0.149616 )  
( 0.340854 -0.000900564 0.0186402 )  
( 0.0243981 0.000151258 0.0386148 )  
( 0.36987 0.000229809 -0.0212378 )  
( 0.0212352 -0.000184777 0.346617 )  
( 0.40794 -0.00122333 0.168691 )  
( 0.00746832 3.19693e-05 6.54843e-08 )  
( 0.39571 -0.00315614 0.136672 )  
( 0.393455 -0.000314917 0.180222 )  
( 0.400188 0.00131617 0.125987 )  
( 0.0647088 3.04389e-05 0.297964 )  
( 0.394234 -0.00233586 0.0406425 )  
( 0.00764125 5.15061e-05 -3.19297e-10 )  
( 0.37767 -0.00229335 0.173421 )  
( 0.0290302 8.89744e-05 -0.0940788 )  
( 0.0111976 -0.000200817 -0.0145219 )  
( 0.0229212 0.000226176 0.0656621 )  
( 0.413258 0.0014976 -0.0133874 )  
( 0.177551 0.000362938 0.303158 )  
( 0.387687 -0.0112259 2.06598e-07 )  
( 0.00761341 5.24617e-05 -6.29533e-08 )  
( 0.00783351 -0.00014205 -7.08966e-08 )  
( 0.0108556 3.11785e-05 0.014285 )  
( 0.217438 -0.000740312 0.307614 )  
( 0.0143093 -0.000169266 -0.0613671 )  
( 0.384865 -0.000855325 0.205273 )  
( 0.389288 -0.00234108 0.1188 )  
( 0.394073 0.00138733 0.139343 )  
( 0.153382 0.104501 -7.19111e-08 )  
( 0.387799 -0.00331305 0.0842181 )  
( 0.00780853 -4.89783e-05 4.45947e-05 )  
( 0.00719198 -9.63657e-05 -1.16052e-07 )  
( 0.407919 -0.00142832 0.0865635 )  
( 0.413325 -0.000915564 -0.0700273 )  
( 0.316924 -0.00152003 0.121663 )  
( 0.0237864 -0.000284098 0.00788021 )  
( 0.413778 -0.00209077 0.00394355 )  
( 0.390977 -0.00149265 -0.106545 )  
( 0.0243845 0.000290721 0.0598756 )  
( 0.394753 -0.00241581 -0.0426941 )  
( 0.409609 0.000619 0.222737 )  
( 0.397744 0.00068832 -0.0307782 )  
( 0.41732 -0.0012606 0.0700325 )  
( 0.0143564 1.33458e-05 -0.0586517 )  
( 0.00736112 -0.000193764 -2.3143e-08 )  
( 0.369508 -0.000638599 0.00101383 )  
( 0.118151 -0.000415337 0.331171 )  
( 0.326568 -0.000478537 0.131706 )  
( -0.0132533 -0.0155301 -7.81552e-10 )  
( 0.00698858 -0.000134468 -7.02098e-08 )  
( 0.00724108 -0.000360804 1.81254e-08 )  
( 0.400594 -0.00330675 -0.123226 )  
( -0.0352085 -0.0379263 -0.0384597 )  
( 0.225885 -0.000471742 0.248157 )  
( 0.0252003 0.000100996 0.0493851 )  
( 0.391991 -0.000537989 0.11471 )  
( 0.0557455 -0.00035016 0.351316 )  
( 0.385956 -0.00301974 0.143169 )  
( 0.00779986 3.32394e-05 -4.62139e-08 )  
( 0.34425 -0.00199431 0.005031 )  
( 0.232822 -0.00178734 0.269898 )  
( 0.390462 3.40138e-05 0.0870916 )  
( 0.0233465 2.2836e-05 -0.0116351 )  
( 0.226951 -0.0015993 0.251374 )  
( 0.019162 -8.64182e-05 -0.0326481 )  
( -0.0804996 -0.110179 -0.000929939 )  
( 0.179806 0.384532 0.183838 )  
( 0.409957 -0.000827483 0.0594258 )  
( 0.0228288 -9.05156e-05 -0.0833252 )  
( 0.00767903 3.96076e-05 2.84208e-08 )  
( 0.0261214 -8.95013e-05 -0.0885005 )  
( 0.394893 0.00131284 0.0870469 )  
( 0.361186 -0.0034835 0.242242 )  
( -0.0469176 -0.152118 0.0346826 )  
( 0.00775506 0.000115461 -4.35296e-08 )  
( 0.399682 -0.000502093 -0.0701631 )  
( 0.194045 -0.000190791 -0.0470942 )  
( -0.306005 0.0188205 0.0306149 )  
( 0.414859 0.00158887 0.0619972 )  
( 0.248578 -0.0611919 0.267575 )  
( 0.0146717 0.0056542 6.78381e-09 )  
( 0.0167813 0.000201147 -0.0399069 )  
( 0.388761 -0.000640591 0.183946 )  
( 0.00749267 3.57583e-05 -3.61584e-08 )  
( 0.373918 -0.00180166 0.216809 )  
( 0.321049 -0.000410075 0.126786 )  
( 0.417036 -0.000322033 0.0721738 )  
( 0.092622 7.79171e-05 0.322289 )  
( 0.21127 -0.000103872 0.298608 )  
( 0.0229798 -0.000162673 0.0425884 )  
( 0.00780833 -1.51829e-05 -0.00057833 )  
( 0.141638 0.00062806 0.337822 )  
( 0.415651 0.000991331 0.0641785 )  
( -0.164885 0.00505775 -6.89749e-08 )  
( 0.161298 -0.000757107 -0.0838858 )  
( 0.393559 -0.00133748 0.0544516 )  
( 0.557777 -0.0171161 0.137545 )  
( 0.388774 -0.000265608 0.239152 )  
( 0.179897 -0.000370983 0.299566 )  
( 0.324255 -0.00230591 0.214072 )  
( 0.00748636 5.81662e-05 -2.21393e-09 )  
( 0.00759869 -6.74635e-05 -1.82638e-08 )  
( 0.404359 0.00111435 -0.0848267 )  
( 0.398251 0.00060463 -0.0971928 )  
( 0.048489 0.00016793 0.353428 )  
( 0.362704 0.00086416 0.118297 )  
( 0.394237 -0.000392767 0.168066 )  
( 0.0247542 -0.00018673 0.0419304 )  
( 0.406751 0.00105955 -0.0364567 )  
( 0.236853 0.176354 0.0590482 )  
( 0.324365 0.000323558 0.212881 )  
( 0.0156227 7.42042e-05 0.34226 )  
( 0.0174125 3.09343e-05 -0.0761154 )  
( 0.00772734 -2.03171e-05 1.09871e-07 )  
( 0.00749732 2.48211e-05 1.91677e-08 )  
( 0.0835241 0.000158643 0.355212 )  
( 0.020862 -0.000119907 -0.0143293 )  
( 0.397398 -0.00278338 -0.0235583 )  
( 0.118719 -0.000150785 0.335703 )  
( 0.40332 0.00090583 0.0676237 )  
( 0.403421 -0.000522648 0.0723802 )  
( 0.17265 6.44663e-05 0.306009 )  
( 0.140088 0.000586578 0.243129 )  
( -0.132973 -0.0764833 5.7372e-09 )  
( 0.403629 0.00215039 -0.0593061 )  
( 0.0254778 -0.00013642 0.0136387 )  
( 0.402189 0.00145207 -0.128198 )  
( 0.0200204 -6.27562e-05 -0.0814827 )  
( 0.403434 -9.12769e-05 0.0765997 )  
( 0.314156 -0.000940145 0.152005 )  
( 0.0162888 9.16339e-05 -0.0474422 )  
( 0.39919 -0.000348583 0.132863 )  
( 0.403163 0.000931979 0.0283035 )  
( 0.404969 -0.000265017 -0.147361 )  
( 0.404319 0.00188418 0.0839169 )  
( 0.00769021 0.000188947 8.85235e-07 )  
( 0.397542 -0.00139859 -0.057755 )  
( 0.403185 0.00183521 0.0609983 )  
( 0.405009 0.000656621 -0.101186 )  
( 0.00798722 -0.000135811 -0.000124455 )  
( 0.0604121 0.000147729 0.359608 )  
( 0.399471 8.28884e-05 0.158565 )  
( 0.385419 0.169937 0.151399 )  
( 0.361047 0.00209468 0.209063 )  
( 0.0252583 -0.000554998 0.0142426 )  
( 0.39904 -0.000699594 -0.0860482 )  
( 0.399256 -0.00137029 -0.0525711 )  
( 0.00783753 0.000104094 5.34716e-09 )  
( 0.405069 -0.000262094 -0.132025 )  
( 0.404034 0.00232566 -0.0096422 )  
( 0.402156 0.000278553 0.125179 )  
( 0.164508 0.000666089 0.313553 )  
( -0.149577 0.024331 -3.43513e-08 )  
( 0.39795 0.00172911 0.145175 )  
( 0.392366 0.00174982 -0.0721121 )  
( 0.0224007 -4.92344e-05 -0.0113972 )  
( 0.0246718 0.0003206 0.0124653 )  
( 0.404952 0.00234249 0.103364 )  
( -0.115793 -0.0814667 -0.0296341 )  
( 0.215447 0.000858991 -0.0227601 )  
( 0.403597 0.00279433 -0.170452 )  
( 0.0225902 0.000348137 0.00356183 )  
( 0.210122 0.000574049 0.292804 )  
( 0.120445 0.000398476 0.333992 )  
( 0.360836 0.000171428 0.218912 )  
( 0.139208 0.000581414 0.14392 )  
( 0.0158374 -0.000179132 -0.0454857 )  
( 0.39962 0.000814209 -0.125821 )  
( 0.0231089 0.000216447 0.0709387 )  
( 0.402869 0.00299631 0.0607999 )  
( 0.40429 -0.003013 -0.134318 )  
( 0.13112 0.000477313 0.0227302 )  
( 0.403795 0.00374832 -0.0166276 )  
( 0.334423 -0.00415539 0.271779 )  
( 0.326148 -0.00299961 0.16964 )  
( 0.0163402 -0.000120859 -0.0683361 )  
( 0.0240935 8.02622e-05 0.0279648 )  
( 0.0194288 9.56084e-05 0.0907038 )  
( 0.116563 -1.52019e-05 0.32765 )  
( 0.00777237 -8.95548e-05 -8.77409e-11 )  
( 0.00772168 7.99042e-05 3.19013e-07 )  
( 0.405517 0.00182719 -0.115525 )  
( 0.243262 0.000954703 0.298938 )  
( 0.390932 0.000247443 0.203768 )  
( 0.024982 -2.16462e-05 0.0234197 )  
( 0.40372 0.00090875 -0.0872964 )  
( 0.369689 0.00118138 0.200386 )  
( 0.0240143 -9.62063e-05 0.0348961 )  
( 0.0225529 0.000133279 0.000515727 )  
( 0.0362355 -0.022388 -0.031571 )  
( 0.276401 -0.000350804 0.240233 )  
( 0.00757926 1.92539e-05 -6.94036e-09 )  
( 0.0107998 -3.54336e-05 0.00713195 )  
( 0.400765 -0.00285371 -0.0311941 )  
( 0.40237 0.000686842 -0.11694 )  
( 0.00851762 -2.16711e-05 0.00209339 )  
( 0.0182958 -7.17201e-05 -0.0773357 )  
( 0.404534 -0.00271253 -0.122145 )  
( 0.402743 -0.000681227 0.085963 )  
( 0.398536 -0.0005091 0.170598 )  
( 0.376665 0.000183709 -0.103128 )  
( 0.402171 -0.001847 0.112372 )  
( 0.400753 0.000379779 -0.103323 )  
( 0.401101 0.00312567 -0.128015 )  
( 0.0207866 6.85997e-05 0.078408 )  
( 0.0203102 0.000151908 0.0866284 )  
( 0.0107489 6.37208e-06 0.00429581 )  
( 0.0149337 -0.000140572 -0.0545961 )  
( 0.0242875 -0.000171281 0.00594569 )  
( 0.405902 0.000840784 0.0167102 )  
( 0.0203782 -0.000136572 -0.0229978 )  
( 0.0108666 -0.00015582 0.00316012 )  
( 0.0768693 0.000458917 0.332814 )  
( 0.404859 -0.00247117 0.0376698 )  
( 0.54274 -0.0698408 0.209433 )  
( 0.31279 0.0010174 0.206566 )  
( 0.0148251 9.79261e-05 -0.0576677 )  
( 0.400315 0.000205303 0.0684746 )  
( 0.00760539 -0.000208973 -1.02812e-08 )  
( 0.0072649 -2.60103e-05 1.23227e-08 )  
( 0.00763715 0.000124957 -4.00512e-08 )  
( 0.403084 -0.00123572 -0.1015 )  
( 0.395266 0.00161697 0.120698 )  
( 0.0151643 -3.56789e-05 -0.0584645 )  
( 0.0236868 0.000108307 0.0626409 )  
( 0.00752362 -2.07048e-05 -2.2784e-08 )  
( 0.399273 -0.00228479 0.113261 )  
( 0.48029 0.169295 0.0518716 )  
( 0.397931 -0.00111313 0.0485137 )  
( 0.406049 0.000449418 -0.0622078 )  
( 0.115546 0.000576844 -0.0445431 )  
( 0.231124 0.00063078 0.239673 )  
( 0.0276908 0.000106883 -0.0985064 )  
( 0.11832 -0.000506135 0.348795 )  
( 0.00775981 5.36744e-05 1.446e-08 )  
( -0.193776 0.00972389 0.00360367 )  
( 0.331438 0.00011054 0.181996 )  
( 0.195546 0.021024 -7.93533e-09 )  
( 0.00804157 -1.99504e-05 -0.00900639 )  
( 0.0187324 -4.31225e-05 0.0947639 )  
( 0.404415 -0.00292264 -0.0573085 )  
( 0.342116 0.000731743 -0.128527 )  
( 0.0353206 -0.00015443 -0.103719 )  
( 0.179397 0.000564909 0.151251 )  
( 0.212772 0.000849686 0.268236 )  
( 0.339114 0.000650077 0.124318 )  
( 0.00779121 -1.26535e-05 -6.45839e-09 )  
( 0.0512013 0.00034856 0.0370918 )  
( 0.573334 0.218561 0.113205 )  
( 0.245322 -0.00163313 0.289157 )  
( 0.00761405 -8.26129e-05 9.36078e-11 )  
( 0.274817 0.00101026 0.268613 )  
( 0.342923 0.00279725 0.0186806 )  
( 0.0107327 -0.000210404 0.00625119 )  
( 0.362192 -0.000151443 0.178148 )  
( 0.306223 0.000330481 0.242473 )  
( 0.406162 0.00101648 0.0301243 )  
( 0.0126355 0.000200583 -0.0379808 )  
( 0.00742006 9.79401e-05 -8.37723e-08 )  
( 0.392495 -0.000471755 -0.107102 )  
( 0.0105268 0.000130445 0.00587677 )  
( 0.0114438 3.50704e-07 -0.0124566 )  
( 0.0250109 4.3357e-05 0.0469623 )  
( 0.0222132 5.36313e-05 0.0661422 )  
( 0.0199363 -0.000130492 0.0842376 )  
( 0.112706 -0.000217636 0.353058 )  
( 0.0120485 0.00023459 0.0673769 )  
( 0.4056 0.00102204 -0.0376454 )  
( 0.076799 4.26803e-05 0.340853 )  
( 0.00741669 -0.000104721 -5.70962e-08 )  
( 0.403624 0.00219769 0.034136 )  
( 0.00747369 0.00017631 -4.15973e-08 )  
( 0.0227192 0.00391961 0.000694842 )  
( 0.405034 0.00379294 -0.0546426 )  
( -0.11449 -0.061583 -0.0714445 )  
( 0.336816 -0.0015496 0.0652265 )  
( 0.40072 -0.00165035 0.0874305 )  
( 0.405049 -0.000285779 -0.0400873 )  
( 0.00776966 -0.000119243 5.08611e-08 )  
( 0.190454 0.000547626 0.321017 )  
( 0.0193496 -0.000123822 -0.0766585 )  
( 0.00750659 6.26252e-05 -2.65431e-08 )  
( 0.398714 -0.000717259 -0.0229354 )  
( 0.0163802 4.40321e-05 -0.0465885 )  
( 0.0217255 0.000247348 0.0798926 )  
( 0.00765383 -0.000157183 -4.82304e-08 )  
( 0.0117815 -0.00728199 -0.118587 )  
( 0.00795964 2.21046e-05 4.22864e-05 )  
( 0.188238 0.000193868 0.303884 )  
( 0.0487256 6.12714e-06 0.357152 )  
( -0.112437 -0.0808511 0.190571 )  
( 0.0228367 0.000387423 0.00100332 )  
( 0.160397 -0.000426045 0.308738 )  
( 0.0199317 -0.000326857 -0.0205087 )  
( 0.379246 0.000956174 0.110795 )  
( 0.00754893 7.44092e-05 -8.31125e-08 )  
( 0.39845 -2.14809e-05 0.0170151 )  
( 0.40594 0.000788456 -0.0990717 )  
( 0.325861 0.00121058 0.19548 )  
( 0.0236724 0.000325248 0.019445 )  
( 0.00763631 -4.94429e-06 -1.03799e-08 )  
( 0.405243 -0.00137106 -0.0907298 )  
( 0.0250198 7.65105e-06 0.0619424 )  
( 0.403551 0.00109705 0.0618849 )  
( 0.402965 -0.0046076 -0.0333762 )  
( 0.0214896 -4.51882e-05 -0.0023388 )  
( 0.245651 0.000437348 0.275138 )  
( 0.404873 0.000118982 -0.129382 )  
( 0.0926712 -0.000137908 0.359354 )  
( 0.0078171 -0.000133321 -2.72537e-05 )  
( 0.125088 0.000316321 0.309613 )  
( 0.272096 0.143735 -3.12942e-08 )  
( 0.00751485 -0.000139188 5.36887e-09 )  
( 0.400031 0.00123518 0.0141806 )  
( 0.403982 0.00210716 -0.125699 )  
( 0.00761032 1.78666e-06 -1.80578e-08 )  
( 0.0195915 2.47204e-05 -0.0809725 )  
( 0.00799701 0.000138835 1.94031e-07 )  
( 0.0111805 4.49515e-05 -0.00337356 )  
( 0.00717754 2.50028e-05 7.56128e-09 )  
( 0.00782139 -0.000167096 1.56676e-05 )  
( -0.0283998 -0.0835981 0.0727316 )  
( 0.00750453 6.50925e-05 -5.12883e-09 )  
( 0.00732555 5.71361e-05 -1.72231e-08 )  
( 0.00769344 -9.15259e-05 -1.24011e-14 )  
( 0.402646 0.000549101 0.0935248 )  
( 0.00740719 0.000110728 2.96546e-08 )  
( 0.0159816 9.93577e-05 -0.0685472 )  
( 0.170976 0.000526549 0.314718 )  
( 0.403803 -0.000622261 0.064331 )  
( 0.403456 -0.000156216 -0.131113 )  
( 0.402343 -0.00351739 -0.0849643 )  
( 0.405239 -0.000896138 -0.0270725 )  
( 0.399234 -0.00199703 -0.0544792 )  
( 0.396467 -0.000823021 0.197353 )  
( 0.00759691 -6.94063e-05 -2.2982e-08 )  
( 0.396379 0.00251901 0.186504 )  
( 0.294318 -0.00241752 0.262382 )  
( 0.018074 0.000132619 -0.0368335 )  
( 0.290799 0.00169188 -0.0629228 )  
( 0.0204128 -6.50272e-05 -0.132181 )  
( 0.39865 3.34618e-05 0.225855 )  
( 0.0416102 0.000276691 0.136625 )  
( 0.00759614 -0.000156742 1.18461e-07 )  
( 0.398098 -0.000480228 -0.0362552 )  
( 0.247969 -0.000220084 0.300471 )  
( 0.363438 -0.000938125 0.19138 )  
( 0.310996 -0.000664853 0.121378 )  
( 0.378136 -0.00123244 0.154773 )  
( 0.4043 0.000838917 0.00863969 )  
( 0.0208052 0.000169563 0.0868223 )  
( 0.0214834 -0.000161257 0.0683927 )  
( 0.101265 1.69697e-05 -0.100313 )  
( 0.39315 0.00345216 0.249015 )  
( 0.406649 -0.000995198 -0.102346 )  
( 0.304166 0.000202004 0.178042 )  
( 0.404609 -0.000655027 -0.119604 )  
( 0.136975 -0.000369185 0.321315 )  
( 0.411121 0.00254785 -0.0248316 )  
( 0.294236 -0.000881763 0.258221 )  
( 0.0108572 0.000127596 -0.00440731 )  
( 0.0109062 -6.68247e-05 0.00177288 )  
( 0.222341 0.00244924 0.28788 )  
( 0.404162 -0.00167173 0.110414 )  
( 0.289267 0.000533053 0.212585 )  
( 0.404795 0.000430608 -0.00904233 )  
( 0.00758077 0.000165673 4.1131e-08 )  
( 0.40143 0.00133065 0.149986 )  
( 0.403655 0.000295513 0.125463 )  
( 0.0790783 0.000438116 0.367485 )  
( 0.369961 -0.00135925 0.0128469 )  
( 0.413161 0.00294576 -0.052711 )  
( 0.405804 0.0019952 0.116472 )  
( -0.00869959 -0.251639 7.94773e-08 )  
( 0.128015 -0.000229129 -0.143935 )  
( 0.234882 0.000709609 0.232658 )  
( -0.127513 0.0289171 -0.0318005 )  
( 0.0211659 2.32475e-05 0.0761972 )  
( 0.0171442 3.86204e-05 -0.0709146 )  
( 0.109735 -0.00112632 0.331655 )  
( 0.406257 -0.00113445 0.131872 )  
( 0.136748 8.85849e-05 0.340572 )  
( 0.404095 -0.000611659 -0.0516909 )  
( 0.20928 0.331331 -0.0162707 )  
( 0.0195196 1.11772e-05 -0.080444 )  
( 0.276526 0.000375705 0.169526 )  
( 0.403625 -0.00254642 0.234474 )  
( 0.407489 0.00180521 -0.0267891 )  
( 0.260328 5.94431e-05 -0.11804 )  
( 0.406236 0.000353132 0.0476961 )  
( 0.166463 -0.000550994 0.157528 )  
( 0.407188 0.0041762 0.180007 )  
( 0.408538 -0.000947986 -0.0887226 )  
( 0.406133 -0.00148785 -0.0751659 )  
( 0.0151425 -1.06703e-05 -0.0484437 )  
( 0.405798 -0.00121155 -0.083192 )  
( 0.2751 0.000953793 0.0429275 )  
( 0.0314567 8.96315e-05 -0.00138036 )  
( 0.0236059 0.000218485 0.0485594 )  
( 0.406046 -0.00138789 -0.0777217 )  
( 0.00748473 0.000235191 5.86622e-09 )  
( 0.0258304 0.000371131 0.0300317 )  
( 0.219854 0.00139331 0.263158 )  
( 0.403009 0.00101356 -0.0122763 )  
( 0.00778136 -8.61826e-05 2.65219e-08 )  
( 0.00755868 -0.000212344 6.61094e-10 )  
( 0.024427 -5.63902e-05 0.0555402 )  
( 0.00762758 7.39646e-05 -4.41316e-08 )  
( 0.185465 0.000766257 -0.0739048 )  
( 0.00752815 7.96797e-05 5.17893e-08 )  
( 0.408755 0.00194474 -0.0841382 )  
( 0.0107417 -8.86602e-05 0.00755391 )  
( 0.400384 -0.000693894 0.188405 )  
( 0.40725 -0.00306256 0.0147746 )  
( 0.31086 0.00135551 0.212599 )  
( 0.383588 3.63964e-05 0.107568 )  
( 0.137903 0.00128056 0.286939 )  
( 0.335502 -0.402882 0.164458 )  
( 0.354697 0.000586134 0.162976 )  
( 0.00777473 -5.57041e-05 -5.49973e-08 )  
( 0.0154911 6.11914e-05 -0.064683 )  
( 0.0182325 0.000171612 -0.0301982 )  
( 0.0454762 0.129028 0.0407311 )  
( 0.184074 0.000320593 0.301686 )  
( 0.378601 -0.000516294 0.0945952 )  
( 0.0755886 0.30574 3.96895e-08 )  
( 0.0164687 -0.00012399 -0.0705158 )  
( 0.162752 0.000367348 0.269332 )  
( 0.406204 0.00318544 -0.0317744 )  
( 0.0192053 -0.000117965 0.0926207 )  
( 0.0220495 -0.00027478 0.0737445 )  
( 0.0248321 -0.000431099 0.0161865 )  
( 0.168814 -0.000533719 0.102686 )  
( 0.0930692 0.000195265 0.338359 )  
( 0.410105 -9.38405e-05 -0.118916 )  
( 0.267445 -0.00152731 0.2685 )  
( 0.407542 0.000358214 -0.0954908 )  
( 0.101869 0.000499853 0.336174 )  
( 0.0106486 -0.000103588 0.00919455 )  
( 0.403085 -0.00160089 0.201809 )  
( 0.407326 -0.00184439 -0.117087 )  
( -0.0173823 -0.0541765 -0.0249001 )  
( 0.00734024 5.56034e-05 -3.20936e-08 )  
( 0.406507 -0.00119986 -0.0113157 )  
( 0.407401 -0.000667267 -0.0998738 )  
( 0.403551 -0.00224081 -0.104346 )  
( 0.346321 -0.00155532 -0.082335 )  
( 0.0635845 -0.000139149 0.358413 )  
( 0.00784203 6.92286e-05 3.37074e-08 )  
( 0.328776 -0.000211165 0.176462 )  
( 0.390369 0.000593267 0.222467 )  
( 0.407961 -0.000483027 -0.0380221 )  
( 0.304302 -0.000386674 0.185705 )  
( 0.0261077 -9.77356e-07 0.024223 )  
( 0.0655841 -0.000531718 0.344698 )  
( 0.405349 -0.000346964 0.192272 )  
( 0.411693 0.00366293 -0.100938 )  
( 0.00780639 -4.90967e-06 -1.12585e-08 )  
( 0.402662 -0.000730359 0.11359 )  
( 0.405768 -0.00440985 0.0810744 )  
( 0.224115 0.00226747 0.256065 )  
( 0.410164 0.00143281 0.100912 )  
( 0.410395 -0.00182231 -0.0867912 )  
( 0.218227 0.000275198 -0.0122089 )  
( 0.157231 0.000513592 0.274027 )  
( 0.4061 -0.00170456 -0.029916 )  
( 0.0256605 -0.07621 0.00313171 )  
( 0.406232 0.00181373 -0.105204 )  
( 0.00775155 0.000222046 4.76011e-08 )  
( 0.0700131 -0.059101 0.00330105 )  
( 0.0155761 -8.25498e-05 -0.0643803 )  
( -0.0408706 -0.138011 0.116187 )  
( 0.00763023 0.000213186 4.00133e-08 )  
( 0.00751665 6.30053e-05 -1.46419e-07 )  
( 0.405839 -0.00122893 0.0639562 )  
( 0.397215 0.00143414 -0.082983 )  
( 0.409045 -0.00195604 0.0334243 )  
( -0.0407328 0.10975 -4.99866e-08 )  
( 0.00739638 8.47171e-05 -7.3636e-08 )  
( 0.0221443 -9.12992e-05 -0.00713145 )  
( 0.353034 -0.000196947 0.160896 )  
( 0.0257425 0.000176204 0.0269301 )  
( 0.401833 -0.000270338 -0.0449438 )  
( 0.0224041 0.000321259 -0.0113565 )  
( 0.408275 -0.00122875 0.0138922 )  
( 0.410633 -0.000764722 -0.103558 )  
( 0.401501 0.00135817 0.101371 )  
( 0.0107204 1.9647e-05 -0.0127059 )  
( 0.0241734 0.00048356 0.00729493 )  
( 0.0173354 -5.1432e-05 -0.0405991 )  
( 0.112843 0.000124258 0.349662 )  
( -0.0869563 -0.162116 -0.00168411 )  
( 0.0271377 -0.000215423 -0.0939924 )  
( 0.010937 -5.0331e-05 -0.0013514 )  
( 0.406244 0.000260787 0.00516135 )  
( -0.0467898 -0.239578 -4.368e-07 )  
( -0.00102758 -0.00708031 -7.36241e-08 )  
( 0.0108465 -2.83869e-05 0.00100404 )  
( 0.00859939 8.08687e-05 0.00319028 )  
( 0.407243 -0.00122847 -0.0921217 )  
( 0.00764786 -6.5283e-05 -1.8442e-08 )  
( 0.00765084 -4.61174e-05 7.87578e-08 )  
( 0.408666 -0.00246134 -0.014022 )  
( 0.00752204 -8.73048e-06 -2.73028e-06 )  
( 0.0108529 1.38489e-05 0.0101077 )  
( 0.263471 0.000709292 0.0344153 )  
( 0.00785586 -3.76781e-05 3.83055e-08 )  
( 0.116708 -2.46147e-05 0.32807 )  
( 0.410718 -0.0026319 -0.133603 )  
( 0.400546 0.000501016 0.0388171 )  
( 0.415305 0.0034242 0.0833621 )  
( 0.0103798 0.000110869 0.0162441 )  
( 0.0631349 0.0465976 -0.00825871 )  
( 0.405361 -9.96336e-05 -0.00549533 )  
( 0.00773456 -3.75383e-05 1.40472e-08 )  
( 0.0245391 -0.000192467 0.0118991 )  
( 0.400284 0.000922078 0.126517 )  
( 0.260904 -0.000731301 0.230491 )  
( 0.41286 -0.00333029 0.128858 )  
( 0.0214113 -1.73262e-05 0.0653393 )  
( 0.0508526 0.000254241 0.369935 )  
( 0.00774976 3.46613e-05 2.63713e-08 )  
( 0.192506 -0.00169841 0.253858 )  
( 0.409593 0.00130265 -0.0745141 )  
( 0.268705 -0.382621 0.118346 )  
( 0.228546 -0.000521401 0.263175 )  
( 0.34087 0.000150903 0.263161 )  
( 0.126843 0.00030782 -0.0141935 )  
( 0.148779 0.00034756 0.084243 )  
( 0.00773186 -0.000117249 2.62064e-08 )  
( 0.313164 -0.00155474 0.264494 )  
( 0.403538 0.000319924 0.104262 )  
( 0.389844 -0.00111742 0.174489 )  
( 0.0874771 9.06982e-05 0.353304 )  
( 0.275869 0.00219044 0.0136339 )  
( 0.00771593 -6.53417e-05 1.42485e-08 )  
( 0.016832 0.00029064 -0.0396287 )  
( 0.410583 0.00141749 0.0676472 )  
( 0.0254232 0.000244512 0.030383 )  
( 0.412113 0.00176238 0.0199648 )  
( 0.00738996 2.13176e-05 -1.51462e-07 )  
( 0.00763172 -2.31214e-05 1.247e-08 )  
( 0.0164237 0.135855 -6.32582e-08 )  
( 0.404877 0.00283933 0.131728 )  
( 0.408686 -0.00187435 -0.0405752 )  
( 0.253634 0.0002061 0.229802 )  
( 0.108884 0.0001943 0.159347 )  
( 0.351157 0.00200328 0.245447 )  
( 0.404875 -0.000246959 0.0467823 )  
( 0.266629 -0.00069475 -0.0753855 )  
( 0.401587 -0.00134263 0.0429759 )  
( 0.00771572 -4.92033e-05 2.12544e-08 )  
( 0.168778 0.000302903 0.239646 )  
( 0.00769328 -2.85672e-05 1.41647e-07 )  
( -0.243406 0.15065 0.304122 )  
( 0.40856 0.000149737 -0.051376 )  
( -0.0175998 0.153467 4.52671e-10 )  
( 0.00783225 0.00010593 1.04541e-07 )  
( 0.0217707 4.65235e-05 0.0682271 )  
( 0.0092635 0.0923262 -0.00200367 )  
( 0.407347 -0.00332052 -0.0732811 )  
( 0.403181 0.000199535 -0.0769329 )  
( 0.412299 -0.00151575 -0.0250099 )  
( 0.0186274 3.69318e-05 0.0893511 )  
( 0.406377 -0.000358139 0.0300141 )  
( 0.40623 9.33109e-05 0.137728 )  
( 0.0236786 -0.000282309 -0.00033371 )  
( 0.101536 9.58742e-05 -0.086425 )  
( -0.170721 -0.235388 -0.00143234 )  
( 0.0075096 0.000181095 1.58961e-08 )  
( 0.402923 -0.0016032 -0.0950602 )  
( 0.0155105 2.32684e-05 -0.0627383 )  
( 0.405875 -0.00473624 -0.0555611 )  
( 0.050687 -0.00050979 0.14003 )  
( 0.0159496 1.28305e-05 -0.0491511 )  
( 0.40375 0.00210374 -0.0669582 )  
( 0.00775658 6.43098e-05 -4.51049e-08 )  
( 0.0113495 0.00124004 0.0192582 )  
( 0.314792 0.000445814 0.214642 )  
( 0.00768853 0.000172588 8.5475e-08 )  
( 0.407713 0.00291263 -0.112993 )  
( 0.022775 0.000161338 -0.0885964 )  
( 0.232155 -3.78247e-05 0.297117 )  
( 0.137714 0.000450284 0.146143 )  
( 0.0233527 -3.51485e-05 0.00219975 )  
( 0.336392 0.000948465 0.173675 )  
( 0.321826 0.00302969 0.278323 )  
( 0.00790124 4.64456e-05 -2.48523e-06 )  
( 0.196958 -2.25611e-05 0.302561 )  
( 0.406318 -0.000148685 0.0264151 )  
( 0.401145 0.00123858 0.0657648 )  
( 0.405339 -0.00303374 0.0520127 )  
( 0.225376 -0.00215929 0.295768 )  
( 0.0197756 3.35757e-05 -0.0801844 )  
( 0.0376195 -0.0264863 0.0221862 )  
( 0.460346 -0.0634072 0.183714 )  
( 0.00779239 -4.07671e-06 -6.27843e-08 )  
( 0.30962 0.00107785 0.254024 )  
( 0.145203 0.000529176 0.293261 )  
( 0.115442 -0.000804358 0.331699 )  
( 0.413251 -0.000382664 0.00211754 )  
( 0.00815694 -9.53861e-05 -4.73465e-08 )  
( 0.377033 3.61036e-05 -0.125525 )  
( 0.399716 -0.00139544 0.0039445 )  
( 0.0199216 -0.000219665 -0.0234711 )  
( 0.0187879 -4.68713e-05 0.0934025 )  
( 0.0313358 -0.00162953 -3.50701e-08 )  
( 0.403865 0.000750578 0.0848668 )  
( 0.256096 7.62277e-05 0.221763 )  
( 0.081868 -0.086311 -0.0722054 )  
( 0.0351213 -0.000204223 -0.131318 )  
( 0.412601 -0.000935317 -0.125027 )  
( 0.511608 -0.0897604 0.0857527 )  
( 0.153324 0.00110153 0.302496 )  
( 0.0259961 5.95941e-05 0.0202415 )  
( 0.405443 0.000739355 -0.0569523 )  
( 0.0679134 -0.000149583 0.35239 )  
( 0.158923 -0.000943584 0.0751556 )  
( 0.410712 0.0023925 0.136547 )  
( 0.00786749 8.60502e-05 -3.93172e-08 )  
( 0.404424 0.00101476 0.160625 )  
( 0.210359 0.000149587 0.248366 )  
( 0.116229 0.000288121 0.287168 )  
( 0.416224 0.000995283 0.172866 )  
( 0.0217086 0.000145013 0.0721577 )  
( 0.0124083 -6.45622e-05 -0.0242706 )  
( 0.413885 0.000978143 0.0379724 )  
( 0.247253 0.000614554 0.278714 )  
( 0.285523 0.000769436 0.216903 )  
( 0.00780111 -1.71747e-05 6.6282e-07 )  
( 0.3105 -0.00100788 0.279798 )  
( 0.0166211 0.00039664 -0.0716988 )  
( 0.406941 0.00146545 0.102985 )  
( -0.13007 0.00923686 -0.060901 )  
( 0.391285 -0.001138 0.230786 )  
( 0.408051 0.00177411 -0.0467448 )  
( 0.410276 0.0020339 -0.037555 )  
( 0.00958596 9.05388e-05 -0.0234564 )  
( 0.39554 0.00168415 0.212409 )  
( 0.406407 0.00253632 -0.02773 )  