/*--------------------------------*- C++ -*----------------------------------*\
| =========                 |                                                 |
| \\      /  F ield         | OpenFOAM: The Open Source CFD Toolbox           |
|  \\    /   O peration     | Version:  2506                                  |
|   \\  /    A nd           | Website:  www.openfoam.com                      |
|    \\/     M anipulation  |                                                 |
\*---------------------------------------------------------------------------*/
FoamFile
{
    version     2.0;
    format      ascii;
    arch        "LSB;label=32;scalar=64";
    class       volScalarField;
    location    "0.09";
    object      Ksl;
}
// * * * * * * * * * * * * * * * * * * * * * * * * * * * * * * * * * * * * * //

dimensions      [1 -3 -1 0 0 0 0];

internalField   nonuniform List<scalar> 
1152
(
55341
149276
126728
1.74304e+06
41763.5
135803
108151
179134
1.50657e+06
95902.5
93155.5
119677
178690
263910
324831
96354.4
93465.1
267936
104465
167969
196120
201694
258297
171590
404589
115277
362319
134984
126897
245976
71403.2
1.248e+06
455158
261576
317958
144206
1.19029e+07
184803
200357
327392
218373
237549
292929
471035
257093
215797
331387
170338
8.64576e+06
265402
228217
200660
187499
393951
303554
254685
378835
212080
279724
168346
142020
373224
136452
156766
4.39538e+06
101637
447510
1.19608e+06
221605
267701
154024
207839
303838
179727
268966
156071
211490
291420
539918
198223
123846
203102
199481
137557
152973
296835
265444
240720
333994
277927
257280
219447
97149.7
950235
124746
96643.6
112938
94613.7
130136
85838.8
87305.7
69508.8
53876.7
37881.9
138392
80529.2
80968.4
43932.2
184649
10069
133354
104922
0
608.737
0
0
0
0
0
0
0
0
0
0
0
0
0
0
0
0
0
0
0
0
0
0
0
0
0
0
0
0
0
0
0
0
0
0
0
0
0
0
0
0
0
0
0
0
0
0
0
0
0
0
0
0
0
0
0
0
0
0
0
0
0
0
0
0
0
0
0
0
0
0
0
0
0
0
0
0
0
0
0
0
0
0
0
0
0
0
0
0
0
0
0
0
0
0
0
0
0
0
0
0
0
0
0
0
0
0
0
0
0
0
0
0
0
0
0
0
0
0
0
0
0
0
0
0
0
0
0
0
0
0
0
0
0
0
0
0
0
0
0
0
0
0
0
0
0
0
0
0
0
0
0
0
0
0
0
0
0
0
0
0
0
0
0
0
0
0
0
0
0
0
0
0
0
0
0
0
0
0
0
0
0
0
0
0
0
0
0
0
0
0
0
0
0
0
0
0
0
0
0
0
0
0
0
0
0
0
0
0
0
0
0
0
0
0
0
0
0
0
0
0
0
0
0
0
0
0
0
0
0
0
0
0
0
0
0
0
0
0
0
0
0
0
0
0
0
0
0
0
0
0
0
0
0
0
0
0
0
0
0
0
0
0
0
0
0
0
0
0
0
0
57049.1
167400
83052.5
116323
202234
225309
91620.9
190003
69371.7
106340
98340.6
87359.1
1.06548e+07
209649
139378
150015
744616
216249
140159
147189
126523
196487
897625
195038
186479
149396
132795
103629
110664
138615
170073
125838
231743
290835
283857
5.99016e+06
286452
154639
288043
133411
217322
1.7057e+06
129524
746447
270218
126588
431508
120407
1.09333e+06
161162
396267
284523
244760
223570
204147
179324
180332
261477
208102
289232
211419
282085
230667
149488
271881
140586
205385
288747
189762
349212
243894
149551
1.39769e+06
127223
142991
616935
2.59926e+06
242321
376137
171614
99540.2
342143
200833
1.34365e+06
9.42638e+06
114150
298885
365158
104732
325297
184755
235067
247014
197145
136801
212762
158882
63308.6
72482
96981.5
18045
61120.2
83588
43951.1
72650.5
30420.5
48808
99646
55830.8
52188.8
78987.9
56414.4
0
0
0
0
0
0
0
0
0
0
0
0
0
0
0
0
0
0
0
0
0
0
0
0
0
0
0
0
0
0
0
0
0
0
0
0
0
0
0
0
0
0
0
0
0
0
0
0
0
0
0
0
0
0
0
0
0
0
0
0
0
0
0
0
0
0
0
0
0
0
0
0
0
0
0
0
0
0
0
0
0
0
0
0
0
0
0
0
0
0
0
0
0
0
0
0
0
0
0
0
0
0
0
0
0
0
0
0
0
0
0
0
0
0
0
0
0
0
0
0
0
0
0
0
0
0
0
0
0
0
0
0
0
0
0
0
0
0
0
0
0
0
0
0
0
0
0
0
0
0
0
0
0
0
0
0
0
0
0
0
0
0
0
0
0
0
0
0
0
0
0
0
0
0
0
0
0
0
0
0
0
0
0
0
0
0
0
0
0
0
0
0
0
0
0
0
0
0
0
0
0
0
0
0
0
0
0
0
0
0
0
0
0
0
0
0
0
0
0
0
0
0
0
0
0
0
0
0
0
0
0
0
0
0
0
0
0
0
0
0
0
0
0
0
0
0
0
0
0
0
0
0
0
0
0
0
0
0
0
0
0
0
0
0
0
0
0
0
0
0
0
0
92452.7
77645.9
224950
203991
144020
104627
311854
126846
6.32503e+06
104855
189588
116078
63189.5
200525
86570.9
112536
117664
238325
124640
121912
171238
236183
104382
210824
216254
266681
277277
110647
208913
347838
147480
175547
323429
556835
268131
339409
386246
150160
248922
241846
153032
177514
279796
251948
118922
842768
181119
180785
165858
247509
131308
152411
241518
268031
191237
169023
661076
127040
394144
141806
313194
751962
374479
292278
219998
291559
368511
241246
395771
193375
204178
415757
350701
196186
462084
168130
171011
149235
187762
255613
153117
177300
106118
250939
237977
257822
147843
138666
371246
103841
289591
189325
3.40287e+06
504480
246989
201729
68488.4
53783.4
93225.3
91763.3
68563.1
85431
27847.3
63794.1
68909.3
68636.4
141454
77389.4
104473
128958
60639.5
127462
0
0
0
0
0
0
0
0
0
0
0
0
0
0
0
341.538
0
0
0
0
0
0
0
0
0
0
0
0
0
0
0
0
0
0
0
0
0
0
0
0
0
0
0
0
0
0
0
0
0
0
0
0
0
0
0
0
0
0
0
0
0
0
0
0
0
0
0
0
0
0
0
0
0
0
0
0
0
0
0
0
0
0
0
0
0
0
0
0
0
0
0
0
0
0
0
0
0
0
0
0
0
0
0
0
0
0
0
0
0
0
0
0
0
0
0
0
0
0
0
0
0
0
0
0
0
0
0
0
0
0
0
0
0
0
0
0
0
0
0
0
0
0
0
0
0
0
0
0
0
0
0
0
0
0
0
0
0
0
0
0
0
0
0
0
0
0
0
0
0
0
0
0
0
0
0
0
0
0
0
0
0
0
0
0
0
0
0
0
0
0
0
0
0
0
0
0
0
0
0
0
0
0
0
0
0
0
0
0
0
0
0
0
0
0
0
0
0
0
0
0
0
0
0
0
0
0
0
0
0
0
0
0
0
0
0
0
0
0
0
0
0
0
0
0
0
0
0
0
0
0
0
0
0
0
0
0
0
0
0
0
0
0
0
0
0
0
0
0
0
0
0
0
)
;

boundaryField
{
    inlet
    {
        type            zeroGradient;
    }
    outlet
    {
        type            zeroGradient;
    }
    wall
    {
        type            zeroGradient;
    }
    procBoundary3to1
    {
        type            processor;
        value           nonuniform List<scalar> 
192
(
152090
146405
64263.4
51862.1
5.98728e+06
213193
9.38986e+06
349981
138574
174491
129875
210462
3.33187e+06
278648
172451
711404
120037
2.16755e+06
104714
154675
1.90147e+06
537039
250512
298104
147251
131679
24404.2
42163.9
1450.18
1781.99
0
0
0
0
0
0
0
0
0
0
0
0
0
0
0
0
0
0
0
0
0
0
0
0
0
0
0
0
0
0
0
0
0
0
0
0
0
0
0
0
0
0
0
0
0
0
0
0
0
0
0
0
0
0
0
0
0
0
0
0
0
0
0
0
0
0
191864
155032
108627
97896.7
675380
406626
144658
387216
133367
217309
314287
109575
235067
199724
6.28315e+06
1.10598e+07
287979
184502
185611
101134
226084
243256
192908
257243
72325.5
53339.7
23284.1
20657.6
0
0
0
0
0
0
0
0
0
0
0
0
0
0
0
0
0
0
0
0
0
0
0
0
0
0
0
0
0
0
0
0
0
0
0
0
0
0
0
0
0
0
0
0
0
0
0
0
0
0
0
0
0
0
0
0
0
0
0
0
0
0
0
0
0
0
0
0
)
;
    }
    procBoundary3to2
    {
        type            processor;
        value           nonuniform List<scalar> 
192
(
198708
5.4223e+06
64725.2
118225
1.30718e+07
138997
139830
231258
113902
152809
220273
453930
129175
196819
134936
1.48396e+07
156755
350622
148042
453820
2.39212e+06
190291
187440
781489
89018.1
138386
89910.3
8839.9
0
0
0
0
0
0
0
0
0
0
0
0
0
0
0
0
0
0
0
0
0
0
0
0
0
0
0
0
0
0
0
0
0
0
0
0
0
0
0
0
0
0
0
0
0
0
0
0
0
0
0
0
0
0
0
0
0
0
0
0
0
0
0
0
0
0
0
0
301619
140377
186126
103339
139598
357589
127775
397669
133342
175119
421573
150378
138256
319524
303300
281387
271059
175417
212246
133162
504241
101729
6.70949e+06
89826.3
66356.8
89876.9
10436.3
16612.5
0
0
0
0
0
0
0
0
0
0
0
0
0
0
0
0
0
0
0
0
0
0
0
0
0
0
0
0
0
0
0
0
0
0
0
0
0
0
0
0
0
0
0
0
0
0
0
0
0
0
0
0
0
0
0
0
0
0
0
0
0
0
0
0
0
0
0
0
)
;
    }
}


// ************************************************************************* //
