/*--------------------------------*- C++ -*----------------------------------*\
| =========                 |                                                 |
| \\      /  F ield         | OpenFOAM: The Open Source CFD Toolbox           |
|  \\    /   O peration     | Version:  2506                                  |
|   \\  /    A nd           | Website:  www.openfoam.com                      |
|    \\/     M anipulation  |                                                 |
\*---------------------------------------------------------------------------*/
FoamFile
{
    version     2.0;
    format      ascii;
    arch        "LSB;label=32;scalar=64";
    class       volVectorField;
    location    "0.09";
    object      stored_U;
}
// * * * * * * * * * * * * * * * * * * * * * * * * * * * * * * * * * * * * * //

dimensions      [0 1 -1 0 0 0 0];

internalField   nonuniform List<vector> 
1152
(
(0.00123108 -0.00429528 0.047983)
(-0.00203592 -0.00177149 0.0154825)
(-0.00429698 -0.0086316 0.0162341)
(0.000347636 -0.000682312 0.00118284)
(-0.00197281 -0.0234142 0.0536277)
(-0.00484754 -0.00342646 0.01633)
(-0.00533734 -0.00708219 0.0215394)
(-0.00251002 -0.00130892 0.0138032)
(0.000252735 -0.000645625 0.00140303)
(-0.00166472 -0.00804503 0.0246247)
(-0.00394342 0.00165915 0.0246369)
(-0.00431771 0.00113739 0.0216136)
(-0.0020415 -0.00157447 0.0144425)
(0.00132097 -0.00230903 0.00874242)
(-0.000117022 6.82534e-05 0.00721427)
(-0.00470681 0.00149102 0.0278471)
(-0.0184437 -0.0151936 0.0476675)
(-0.00251398 -0.000567146 0.0212491)
(-0.00323352 -0.0151555 0.0478997)
(-0.00646386 0.000983989 0.0344252)
(-0.00179792 -0.00503454 0.0284431)
(-4.81157e-05 -0.00404509 0.0272197)
(-0.000938889 -0.00499099 0.0226561)
(-0.00149658 -0.00341974 0.0359695)
(6.63122e-06 -0.00117221 0.0167336)
(-0.00483041 -0.00159885 0.0524393)
(-0.00107396 -0.00178427 0.0205572)
(0.00319114 0.000976597 0.0454006)
(0.000561312 -0.00768871 0.0502549)
(-0.00112701 -0.00105888 0.028142)
(-0.000936332 0.000600541 0.0843329)
(-8.26906e-05 0.00112176 0.00641223)
(0.00102133 0.00658128 0.0174801)
(0.000129187 0.00437484 0.0280571)
(0.000869518 0.00730429 0.0246799)
(0.00770657 0.00485805 0.0490221)
(-0.000708373 0.000187503 0.00994821)
(-0.000312407 0.00286513 0.038917)
(0.000281409 0.0049742 0.0354346)
(0.000804427 0.00108015 0.0254358)
(-0.00185256 0.00191566 0.0336977)
(-0.00171924 0.00103565 0.0335435)
(0.00103042 -0.00126723 0.0280766)
(0.00107613 -5.61581e-05 0.0205698)
(-0.00476062 -0.000208291 0.0324388)
(-0.00542873 0.00251927 0.0354804)
(-0.000879961 -0.00126346 0.0264075)
(0.000476976 -0.00666655 0.0432927)
(-0.000371237 -0.000844208 0.0106657)
(0.00643436 0.00110653 0.0334553)
(-0.00468198 0.00354572 0.0405871)
(0.0016019 0.000284039 0.0439769)
(0.00400293 0.00880764 0.0433797)
(0.00290508 -0.00194403 0.0236881)
(0.00149528 0.000538493 0.0304533)
(-0.000692546 0.00181813 0.0347505)
(0.00106065 0.00311418 0.025027)
(0.00195742 0.00137507 0.0403818)
(0.00113185 -0.00114199 0.031727)
(-0.00379175 -0.00247607 0.0508998)
(0.00183161 0.00583558 0.0603646)
(-0.00108 0.000610675 0.0259529)
(-0.00223169 -0.000174038 0.0658376)
(-0.00241348 -0.00996216 0.0556877)
(-2.22651e-05 -0.000259631 0.0114089)
(-0.00582606 0.0072921 0.076979)
(0.000490811 0.000323625 0.0231181)
(-0.000514862 4.47003e-05 0.0141673)
(0.0032986 -0.00350708 0.0393737)
(0.00101453 -0.000752974 0.0339767)
(0.000714514 0.000379617 0.0549037)
(0.000121988 -0.00202982 0.0405841)
(0.00185524 0.0014466 0.0301542)
(0.000820246 0.000910444 0.0459859)
(0.000321984 0.000192465 0.0327503)
(0.000646109 0.000320923 0.0545334)
(0.00611348 0.00702773 0.0398726)
(-0.00175526 0.00188179 0.0313477)
(-0.000125769 0.000459028 0.0190979)
(-0.000534867 -0.00152484 0.0425708)
(-0.00370874 0.00870042 0.0419298)
(0.00473723 -0.000482008 0.0300652)
(0.00490906 -0.00105644 0.0285793)
(0.00250023 3.74602e-05 0.0370932)
(0.00425829 0.00635942 0.0391405)
(0.00216424 0.00279221 0.0212312)
(0.00213515 0.00131424 0.0226568)
(0.0011088 0.000634307 0.0235322)
(0.00128134 0.00239794 0.0202267)
(0.00106956 0.00442268 0.0209957)
(0.00104823 -0.000586543 0.0229217)
(0.00142814 -0.00264167 0.0257401)
(0.00120204 0.00903681 0.0527029)
(-0.000231503 0.000620166 0.0113375)
(-0.0121886 -0.000323571 0.0413233)
(0.0040233 0.00398451 0.0554599)
(0.00131425 0.000847068 0.0270484)
(0.000705574 -0.000221943 0.0272339)
(0.000475708 0.000591012 0.0183747)
(-0.000231624 0.000425213 0.0207845)
(0.000194799 0.00150904 0.0273129)
(0.000377117 0.000529632 0.0263281)
(0.000324339 2.45073e-05 0.0277451)
(0.00095559 -0.00027171 0.0268129)
(0.000618288 0.00105776 0.0167064)
(0.000395687 0.000567519 0.0207564)
(0.000160858 0.000652571 0.0204439)
(0.00059877 0.000740484 0.0310307)
(-9.50624e-05 0.000691665 0.011977)
(0.000257429 0.000222232 -0.0239116)
(0.000863913 8.95185e-05 0.0153624)
(0.000357791 0.000829598 0.020024)
(-0.000637619 0.00343057 0.0422276)
(0.000222414 0.00251434 0.0175275)
(0.00154379 0.00231636 0.0239444)
(0.000656755 0.00157538 0.0274432)
(0.000449064 0.000665688 0.0347779)
(0.000479317 0.00210861 0.0318339)
(0.00056751 0.00109011 0.0348968)
(0.000502303 0.00120441 0.0338562)
(0.00140547 0.000438868 0.016726)
(0.000954221 0.00140579 0.0267283)
(0.000635803 0.00112553 0.0253115)
(0.000988265 0.00204072 0.0356667)
(0.00166947 0.00113846 0.0178416)
(0.00109713 0.00134847 0.0409869)
(0.000912934 0.00120174 0.0225216)
(0.0014764 0.00152196 0.033751)
(0.00353904 -0.00116008 0.0152955)
(0.0012498 -0.000974912 0.0118684)
(-0.000211063 0.000103555 0.012589)
(-0.000281486 0.000360772 0.0118897)
(0.000110615 0.00169625 0.0128311)
(-0.000314775 -0.000329164 0.0121245)
(-0.000264239 0.000124714 0.012629)
(0.00014943 -0.000344044 0.0120544)
(0.000288642 -0.000117383 0.00870092)
(-0.000345264 -0.00131948 0.00985429)
(-0.000372901 0.000192681 0.00992245)
(-0.00105656 -0.000165116 0.0116022)
(-0.000601208 -0.00186118 0.00821076)
(-8.87588e-05 -0.00127576 0.011459)
(0.000523438 -0.000659002 0.00938615)
(-0.00208921 -0.000148581 0.0113103)
(0.00148894 -0.000317867 0.0208883)
(0.000505663 -0.000178148 0.0195493)
(4.42976e-05 0.000140717 0.0198789)
(-4.78153e-05 0.000253076 0.0197916)
(0.000208344 0.000917884 0.019805)
(-0.000119081 0.000290573 0.0198456)
(-0.000105432 0.000393138 0.0201806)
(-4.18571e-05 0.000189177 0.0201247)
(0.000248642 5.41186e-05 0.0183954)
(-6.48313e-05 -0.000223023 0.019123)
(-0.000142575 0.000311305 0.0191021)
(-0.000375178 0.000272291 0.0199244)
(-0.00011197 -0.00103785 0.0188088)
(8.97537e-05 -0.000671663 0.020223)
(0.000238326 -0.000244612 0.0193107)
(-0.000549653 0.000215031 0.0201653)
(0.000544998 -0.000138788 0.0181522)
(0.000152475 -9.86707e-05 0.0178037)
(-1.01143e-06 -2.38141e-05 0.0178158)
(-8.40635e-05 3.57785e-05 0.017734)
(0.000137572 0.000239931 0.0176441)
(-6.57516e-05 7.30836e-05 0.0177073)
(-9.84312e-05 9.11909e-05 0.0177858)
(-0.000154646 2.767e-05 0.0177662)
(0.000136551 -0.00015192 0.0171274)
(-2.71693e-05 -0.000188639 0.0173013)
(-9.53539e-05 -2.6447e-05 0.0172864)
(-0.000233049 -1.84769e-05 0.0174877)
(3.71344e-05 -0.000640413 0.0172543)
(4.33271e-05 -0.000470909 0.0175601)
(1.70031e-05 -0.00030954 0.0172721)
(-0.000295152 -0.000153807 0.0174199)
(0.000236399 -6.29704e-05 0.0183576)
(8.38224e-05 -5.22632e-05 0.018278)
(1.54114e-05 -3.22986e-05 0.01826)
(-5.11507e-05 3.52469e-06 0.0182279)
(0.0001123 3.71901e-05 0.0181783)
(1.44456e-05 3.51649e-06 0.0182177)
(-2.20538e-05 1.48985e-05 0.0182369)
(-8.07193e-05 2.06288e-05 0.0182366)
(0.000117658 -0.000140187 0.0180434)
(4.54532e-05 -0.0001174 0.0180946)
(7.59949e-06 -4.70938e-05 0.0180804)
(-5.64022e-05 5.48683e-06 0.018124)
(0.000110268 -0.000361283 0.0181264)
(0.000101918 -0.000269905 0.0181912)
(8.17816e-05 -0.000174083 0.0180984)
(-2.0652e-05 -6.09449e-05 0.0181174)
(0.000133787 -4.13611e-05 0.0183603)
(6.90706e-05 -3.85507e-05 0.0183324)
(2.98586e-05 -3.11156e-05 0.0183065)
(-1.41915e-05 -1.12728e-05 0.0182786)
(9.751e-05 -2.58027e-05 0.0182972)
(4.93166e-05 -2.87102e-05 0.0183001)
(1.91066e-05 -1.9951e-05 0.0182865)
(-2.23165e-05 -6.3384e-06 0.0182659)
(0.000102828 -0.000104185 0.0182607)
(6.78865e-05 -8.46827e-05 0.0182556)
(4.12953e-05 -5.34445e-05 0.0182228)
(1.60679e-06 -1.97502e-05 0.0181937)
(0.000110988 -0.000198084 0.0182941)
(9.93686e-05 -0.000156646 0.0182755)
(7.85553e-05 -0.000113207 0.0182079)
(2.59839e-05 -6.4265e-05 0.0181472)
(9.32913e-05 -3.24034e-05 0.0183894)
(6.22762e-05 -3.10631e-05 0.0183696)
(3.78191e-05 -2.66298e-05 0.0183439)
(1.07589e-05 -1.52712e-05 0.0183138)
(8.34182e-05 -3.66601e-05 0.0183678)
(5.87362e-05 -3.40056e-05 0.0183552)
(3.7737e-05 -2.69027e-05 0.0183321)
(1.15376e-05 -1.52341e-05 0.0183013)
(8.73896e-05 -7.11517e-05 0.0183545)
(6.94873e-05 -5.99906e-05 0.0183349)
(5.23989e-05 -4.3642e-05 0.0183004)
(2.84499e-05 -2.29234e-05 0.0182573)
(9.41588e-05 -0.000110457 0.0183604)
(8.67277e-05 -9.15147e-05 0.0183297)
(7.36141e-05 -7.00729e-05 0.0182776)
(4.5639e-05 -4.5921e-05 0.0182139)
(7.00467e-05 -2.57117e-05 0.0184189)
(5.35754e-05 -2.48379e-05 0.0184007)
(3.79006e-05 -2.17989e-05 0.0183758)
(2.10763e-05 -1.52681e-05 0.0183429)
(6.77456e-05 -3.17909e-05 0.0184111)
(5.40779e-05 -2.95096e-05 0.0183935)
(4.02815e-05 -2.46933e-05 0.0183673)
(2.38044e-05 -1.72044e-05 0.0183312)
(6.99905e-05 -4.7479e-05 0.0184014)
(6.00493e-05 -4.18638e-05 0.018379)
(4.88267e-05 -3.32426e-05 0.0183449)
(3.39158e-05 -2.17408e-05 0.0182982)
(7.36361e-05 -6.36502e-05 0.0183914)
(6.89659e-05 -5.50503e-05 0.0183617)
(6.05171e-05 -4.46095e-05 0.0183161)
(4.40599e-05 -3.30097e-05 0.0182538)
(5.31048e-05 -1.9986e-05 0.018439)
(4.37906e-05 -1.9318e-05 0.018422)
(3.36088e-05 -1.73157e-05 0.0183976)
(2.27048e-05 -1.36029e-05 0.0183632)
(5.26681e-05 -2.42651e-05 0.0184343)
(4.4798e-05 -2.29291e-05 0.0184165)
(3.57617e-05 -2.00501e-05 0.0183899)
(2.52223e-05 -1.56846e-05 0.0183519)
(5.37684e-05 -3.14994e-05 0.0184236)
(4.79185e-05 -2.89534e-05 0.0184024)
(4.04607e-05 -2.45639e-05 0.0183699)
(3.07437e-05 -1.84667e-05 0.0183235)
(5.53131e-05 -3.7874e-05 0.0184048)
(5.22364e-05 -3.41055e-05 0.0183786)
(4.65997e-05 -2.91315e-05 0.0183376)
(3.62845e-05 -2.37638e-05 0.0182786)
(3.99287e-05 -1.52338e-05 0.0184513)
(3.43521e-05 -1.47491e-05 0.0184358)
(2.77387e-05 -1.3474e-05 0.0184122)
(2.05615e-05 -1.13412e-05 0.0183771)
(3.98937e-05 -1.77817e-05 0.0184468)
(3.51585e-05 -1.71026e-05 0.0184302)
(2.92428e-05 -1.54971e-05 0.0184043)
(2.23735e-05 -1.30473e-05 0.0183659)
(4.02981e-05 -2.10135e-05 0.0184342)
(3.66805e-05 -2.0016e-05 0.0184151)
(3.17036e-05 -1.79029e-05 0.0183844)
(2.52481e-05 -1.48462e-05 0.018339)
(4.07197e-05 -2.32766e-05 0.0184103)
(3.85951e-05 -2.17217e-05 0.0183875)
(3.47093e-05 -1.94561e-05 0.0183498)
(2.80661e-05 -1.70775e-05 0.0182936)
(2.96796e-05 -1.13979e-05 0.0184587)
(2.62218e-05 -1.10823e-05 0.0184446)
(2.19265e-05 -1.0298e-05 0.0184219)
(1.71249e-05 -9.04226e-06 0.0183869)
(2.96863e-05 -1.27994e-05 0.0184536)
(2.67346e-05 -1.24973e-05 0.0184385)
(2.28577e-05 -1.16455e-05 0.0184137)
(1.82835e-05 -1.03137e-05 0.0183755)
(2.97312e-05 -1.41696e-05 0.0184395)
(2.74267e-05 -1.3881e-05 0.0184223)
(2.40964e-05 -1.29288e-05 0.0183932)
(1.97526e-05 -1.14446e-05 0.0183489)
(2.9644e-05 -1.47323e-05 0.0184127)
(2.8172e-05 -1.41647e-05 0.0183924)
(2.54962e-05 -1.32023e-05 0.0183572)
(2.11085e-05 -1.2224e-05 0.018303)
(2.17935e-05 -8.36112e-06 0.018463)
(1.96e-05 -8.17954e-06 0.0184502)
(1.67887e-05 -7.7158e-06 0.0184284)
(1.355e-05 -6.9782e-06 0.0183938)
(2.17651e-05 -9.10847e-06 0.0184573)
(1.98871e-05 -9.00929e-06 0.0184436)
(1.73309e-05 -8.58084e-06 0.0184197)
(1.42515e-05 -7.87013e-06 0.0183821)
(2.16526e-05 -9.62587e-06 0.0184421)
(2.01632e-05 -9.63885e-06 0.0184265)
(1.79298e-05 -9.25814e-06 0.0183987)
(1.49867e-05 -8.56516e-06 0.0183554)
(2.13817e-05 -9.53438e-06 0.0184136)
(2.03715e-05 -9.39356e-06 0.0183951)
(1.85337e-05 -9.04099e-06 0.0183617)
(1.55849e-05 -8.70608e-06 0.018309)
(1.5731e-05 -6.00226e-06 0.0184655)
(1.43375e-05 -5.91069e-06 0.0184538)
(1.2485e-05 -5.64255e-06 0.0184328)
(1.02897e-05 -5.20772e-06 0.0183985)
(1.56753e-05 -6.37884e-06 0.0184593)
(1.44779e-05 -6.38315e-06 0.0184467)
(1.2786e-05 -6.18629e-06 0.0184237)
(1.07033e-05 -5.81568e-06 0.0183867)
(1.55156e-05 -6.52298e-06 0.0184434)
(1.45522e-05 -6.64845e-06 0.0184289)
(1.30559e-05 -6.5376e-06 0.0184022)
(1.10613e-05 -6.23695e-06 0.0183596)
(1.52154e-05 -6.23189e-06 0.0184138)
(1.45334e-05 -6.26339e-06 0.0183967)
(1.3279e-05 -6.18311e-06 0.0183645)
(1.12813e-05 -6.1261e-06 0.0183129)
(1.10253e-05 -4.17895e-06 0.018467)
(1.01657e-05 -4.13532e-06 0.0184561)
(8.95198e-06 -3.98187e-06 0.0184357)
(7.47708e-06 -3.72498e-06 0.0184018)
(1.09664e-05 -4.33725e-06 0.0184604)
(1.02211e-05 -4.38593e-06 0.0184486)
(9.1092e-06 -4.3113e-06 0.0184263)
(7.71557e-06 -4.12631e-06 0.0183898)
(1.08164e-05 -4.33394e-06 0.018444)
(1.02051e-05 -4.48413e-06 0.0184304)
(9.21416e-06 -4.49092e-06 0.0184044)
(7.8805e-06 -4.37979e-06 0.0183625)
(1.05545e-05 -4.03513e-06 0.0184138)
(1.01072e-05 -4.12424e-06 0.0183976)
(9.26491e-06 -4.15367e-06 0.0183663)
(7.92385e-06 -4.19985e-06 0.0183154)
(7.30833e-06 -2.75355e-06 0.0184679)
(6.80967e-06 -2.73238e-06 0.0184576)
(6.04138e-06 -2.64582e-06 0.0184376)
(5.09055e-06 -2.4979e-06 0.0184041)
(7.26112e-06 -2.7912e-06 0.0184611)
(6.82255e-06 -2.84884e-06 0.0184498)
(6.11621e-06 -2.8327e-06 0.018428)
(5.22205e-06 -2.74736e-06 0.0183918)
(7.14495e-06 -2.74659e-06 0.0184444)
(6.77648e-06 -2.87871e-06 0.0184313)
(6.14452e-06 -2.92521e-06 0.0184059)
(5.28981e-06 -2.89881e-06 0.0183643)
(6.9482e-06 -2.51521e-06 0.0184138)
(6.67096e-06 -2.60848e-06 0.0183982)
(6.12845e-06 -2.6685e-06 0.0183674)
(5.26331e-06 -2.73607e-06 0.018317)
(4.28596e-06 -1.65897e-06 0.0184685)
(4.02724e-06 -1.64873e-06 0.0184585)
(3.58972e-06 -1.60233e-06 0.0184388)
(3.04248e-06 -1.52205e-06 0.0184055)
(4.25525e-06 -1.6498e-06 0.0184615)
(4.02553e-06 -1.69462e-06 0.0184506)
(3.62282e-06 -1.69728e-06 0.0184291)
(3.11033e-06 -1.66011e-06 0.0183931)
(4.18097e-06 -1.60901e-06 0.0184445)
(3.98505e-06 -1.70046e-06 0.0184319)
(3.62528e-06 -1.74373e-06 0.0184067)
(3.13777e-06 -1.74511e-06 0.0183655)
(4.05837e-06 -1.46168e-06 0.0184137)
(3.90886e-06 -1.53223e-06 0.0183985)
(3.59866e-06 -1.58373e-06 0.0183681)
(3.10038e-06 -1.63513e-06 0.018318)
(1.75809e-06 -1.04032e-06 0.0184688)
(1.65821e-06 -1.03274e-06 0.018459)
(1.48165e-06 -1.00496e-06 0.0184395)
(1.26033e-06 -9.58066e-07 0.0184063)
(1.7466e-06 -1.02796e-06 0.0184617)
(1.66272e-06 -1.04443e-06 0.018451)
(1.50565e-06 -1.03728e-06 0.0184296)
(1.30202e-06 -1.00861e-06 0.0183938)
(1.71792e-06 -9.90487e-07 0.0184446)
(1.65284e-06 -1.02636e-06 0.0184321)
(1.51812e-06 -1.0378e-06 0.0184072)
(1.32798e-06 -1.02592e-06 0.0183661)
(1.67245e-06 -8.96611e-07 0.0184136)
(1.63048e-06 -9.2863e-07 0.0183986)
(1.52051e-06 -9.47374e-07 0.0183684)
(1.33398e-06 -9.53026e-07 0.0183185)
(-0.00365319 0.00159268 0.039085)
(0.000462105 -0.000198285 0.0139506)
(0.00336738 -0.00478111 0.0299629)
(-0.00130955 0.00199608 0.0237365)
(-0.000152158 0.00246668 0.0107389)
(9.9155e-05 0.00184995 0.011438)
(0.00351855 -0.000157854 0.0254372)
(0.000379806 0.00237269 0.0129415)
(0.00111499 0.0231459 0.0273945)
(-0.00180338 0.0035231 0.022325)
(0.00174919 0.00066929 0.0251474)
(0.00132617 0.00609115 0.0275397)
(-0.000350245 0.000105127 -0.00109151)
(-0.00442635 0.000433212 0.0109249)
(0.00135436 -0.00131152 0.0171984)
(0.00129148 -0.00031851 0.0144776)
(0.000183381 -0.0013379 0.0103836)
(0.00326875 -0.0007877 0.0291216)
(0.00625882 -0.00606512 0.043795)
(0.00106437 0.00200208 0.037404)
(0.00102073 -0.000172416 0.0485129)
(-0.000351353 -0.000824614 0.0327559)
(4.05647e-05 0.00021779 0.00848279)
(-0.000918282 -0.00572173 0.0308551)
(0.000479478 -0.00414457 0.033255)
(0.00272759 -0.00103281 0.0395723)
(0.000541256 0.000281483 0.0463948)
(-0.00233358 -0.00239599 0.0567242)
(0.00190991 -0.0037128 0.0449011)
(0.00388388 0.00150319 0.0445858)
(-8.86906e-05 -0.000772045 0.0353287)
(0.00111365 0.00109715 0.0511896)
(-0.00107489 -0.00385906 0.0337832)
(-0.00248789 -0.000690382 0.0284307)
(-0.00361372 0.00272418 0.0261021)
(0.000714751 -0.000520113 0.00733823)
(-0.00118457 -0.00425201 0.0309105)
(5.90337e-06 -0.00787778 0.0483308)
(-0.000751422 -0.001298 0.0274161)
(-0.0028495 0.00575836 0.0511255)
(-0.00213768 -0.00464445 0.0359383)
(-0.000505887 -0.00188271 0.0109716)
(-0.00226717 -0.0043003 0.056986)
(0.000171484 -0.00133402 0.013899)
(-0.00332765 -0.00411089 0.031853)
(0.00210736 -0.00116225 0.0566931)
(-0.000502817 -0.000370731 0.0203094)
(0.00110811 0.00303557 0.0580344)
(-6.08551e-05 -0.00081634 0.0148568)
(-0.00234809 0.000509831 0.0529874)
(-0.00348835 0.00091884 0.0246405)
(-0.00167143 0.000748416 0.0294753)
(-0.00214073 -0.000898228 0.0376523)
(-0.00263868 0.000390636 0.0394606)
(-0.00387089 -0.00145695 0.0407888)
(0.00117946 0.0025 0.0460742)
(-0.00254471 -0.00364145 0.0520612)
(-0.00320141 -0.00389553 0.0342887)
(-0.00562784 -0.000340478 0.0402063)
(-0.00300082 -0.000332899 0.0300948)
(-0.00648517 -0.00148752 0.0418327)
(-0.00303454 -0.00381148 0.0301719)
(-0.000882289 -0.00102301 0.0360868)
(-0.00311049 -0.000214871 0.0555408)
(0.00168161 0.00512291 0.0316416)
(-0.00785382 0.00686796 0.0580465)
(-0.00297676 0.000625199 0.0394503)
(-0.00160683 -0.00200812 0.0300046)
(-0.0018899 0.00107446 0.0481744)
(-0.0039805 0.00165022 0.0263286)
(-0.00450257 0.000827482 0.0351218)
(-0.00192601 -0.0014032 0.0579162)
(-0.000162068 -0.00130859 0.0106415)
(-0.00894695 -0.00170213 0.0651522)
(-0.00401792 0.0047635 0.0584482)
(-0.00157422 -0.000658619 0.0171729)
(-0.000251016 -0.000542462 0.00832567)
(0.000790495 -0.00048575 0.0329447)
(-0.00196534 0.00166228 0.0218244)
(-0.0045553 -0.000613084 0.047506)
(-0.00302138 0.027348 0.0431762)
(-0.00125035 -0.00123879 0.0174433)
(-0.000420186 0.00118263 0.0268345)
(0.000202322 0.000411515 0.0101283)
(-0.000126463 0.000371517 0.00762497)
(-0.0170387 0.00485015 0.0383297)
(-0.00108908 0.000326216 0.0195005)
(-0.0014019 0.000184549 0.0173803)
(-0.009407 -0.0160585 0.0336607)
(-0.00161674 0.00066374 0.0177386)
(-0.00294448 -0.000265589 0.0280817)
(-0.00211805 -0.000396676 0.0227267)
(-0.000490979 -0.000440117 0.0184963)
(-0.00199019 -1.75388e-05 0.0236762)
(-0.00410965 0.0011364 0.034855)
(-0.00258334 0.000765664 0.0245006)
(0.000192825 -0.000197446 0.0109308)
(0.000301094 0.00132217 0.0198035)
(0.000238487 8.8529e-05 0.0209664)
(0.00074439 0.000191295 0.0160384)
(7.4002e-05 0.000201049 -0.0814675)
(0.00224818 -3.16885e-05 0.0179993)
(9.86803e-05 -0.000218298 0.0184285)
(0.00099571 -0.000126613 0.0271143)
(0.000344712 0.00407551 0.012135)
(-0.00160792 0.00099447 0.028223)
(-0.000221463 -0.000499964 0.029312)
(-0.000620178 0.000844819 0.016098)
(0.00179865 0.000672693 0.0126595)
(-0.000745236 0.00147384 0.019791)
(-0.00147821 0.000446895 0.0205318)
(-0.000813836 0.000289702 0.0251927)
(0.0011995 0.00227647 0.0240519)
(0.000906936 0.00128831 0.0328642)
(0.00056449 0.00094573 0.0245817)
(0.00105934 0.000349436 0.0331737)
(0.000734897 0.00230974 0.0981008)
(-9.00365e-05 0.000376801 0.036372)
(0.000362282 0.000258386 0.0255563)
(0.000862062 -1.72759e-05 0.0318826)
(-0.00181732 0.00121773 0.0438565)
(-0.000821927 2.33507e-05 0.0368691)
(0.000556612 0.000162537 0.0343076)
(0.000348786 7.77341e-05 0.0264852)
(0.000641358 0.000168318 0.0234116)
(-0.000342692 0.000154535 0.0284515)
(0.000433109 0.000117014 0.030157)
(6.18549e-05 -1.77874e-05 0.0305835)
(-0.000289928 -0.00570465 0.00960101)
(0.000733237 -0.000999971 0.0104497)
(0.000341421 -0.000618116 0.0091687)
(-0.00129077 0.000763921 0.0107831)
(0.000754371 -0.00224825 0.0199141)
(0.00421055 -0.00117634 0.0113039)
(0.00106018 -0.000963892 0.00929588)
(-0.000199814 0.000909804 0.0102026)
(0.00280842 0.00439436 0.0148212)
(0.00211634 0.000625379 0.0114851)
(0.00100648 -0.000467532 0.0101177)
(0.000255031 0.000296761 0.0091155)
(0.00273246 0.00172091 0.0102418)
(0.000701914 0.000447699 0.00963115)
(0.000489246 -2.61331e-05 0.00942093)
(0.000176405 -0.000231524 0.00892922)
(0.000213565 -0.00261029 0.0201074)
(0.00068351 -0.000907514 0.0202577)
(0.00048731 -0.000477051 0.0194556)
(-0.000170791 0.000350837 0.0200857)
(0.000730665 -0.00151684 0.0251089)
(0.00199191 -0.00089313 0.0212111)
(0.000913289 -0.00055882 0.0197448)
(0.000230946 0.000402687 0.0198602)
(0.00146554 0.00111565 0.0232004)
(0.00159329 4.97179e-06 0.0209406)
(0.0010345 -0.000254012 0.0199049)
(0.000461668 0.000285516 0.0193777)
(0.00158446 0.000527097 0.0208244)
(0.00111278 1.1952e-05 0.0199561)
(0.000830116 -0.000189526 0.0195707)
(0.000346071 -1.50027e-05 0.0191763)
(0.000194828 -0.00114029 0.0178726)
(0.000300843 -0.00059457 0.017689)
(0.000147234 -0.000370603 0.0172984)
(-0.000106636 -5.76675e-05 0.0172683)
(0.000437357 -0.000830078 0.0194632)
(0.000739201 -0.000520632 0.0180663)
(0.000330312 -0.000318688 0.0173495)
(3.60334e-05 4.64921e-05 0.0170845)
(0.000719997 1.07236e-05 0.0190755)
(0.000742978 -0.000219307 0.0179581)
(0.000393637 -0.000235886 0.0172786)
(9.43454e-05 4.82143e-06 0.0168009)
(0.000804377 4.59677e-05 0.0182184)
(0.000608072 -0.000134427 0.0174655)
(0.000345228 -0.000173477 0.0169892)
(7.91665e-05 -5.37641e-05 0.0165278)
(0.000185785 -0.000545715 0.0183965)
(0.000233095 -0.000358609 0.0182861)
(0.00018388 -0.000236097 0.0181316)
(7.00493e-05 -6.42798e-05 0.0180796)
(0.000294593 -0.000437958 0.0188587)
(0.00040268 -0.000308329 0.0184007)
(0.000276229 -0.000204408 0.0181214)
(0.000123223 -2.37328e-05 0.0179857)
(0.000408776 -0.000121815 0.0188099)
(0.000461718 -0.000161255 0.0183347)
(0.000324241 -0.000151501 0.0180401)
(0.00015361 -2.01873e-05 0.0178414)
(0.000456663 -2.20416e-05 0.0185173)
(0.000430215 -0.000104465 0.01813)
(0.000310338 -0.000134938 0.0178976)
(0.000133237 -5.51728e-05 0.0177001)
(0.000144169 -0.000266816 0.0183919)
(0.000155389 -0.000202697 0.0183048)
(0.00012553 -0.000147028 0.0181905)
(6.82914e-05 -7.5584e-05 0.0180826)
(0.0001908 -0.000228499 0.0185148)
(0.00022235 -0.000177219 0.0183127)
(0.000166608 -0.000128707 0.0181358)
(8.8454e-05 -5.211e-05 0.0179876)
(0.000236102 -0.000110471 0.0184798)
(0.000259112 -0.000118975 0.0182364)
(0.000190403 -0.000110703 0.0180353)
(9.68597e-05 -5.18999e-05 0.0178612)
(0.000256272 -3.8124e-05 0.0182952)
(0.000255693 -7.86051e-05 0.0180635)
(0.000188333 -9.54511e-05 0.0178777)
(8.88252e-05 -5.84379e-05 0.0177039)
(0.00010832 -0.00013693 0.0183803)
(0.000110911 -0.000114477 0.0183211)
(9.55552e-05 -9.05152e-05 0.0182439)
(6.42576e-05 -5.79323e-05 0.0181566)
(0.000127069 -0.000120004 0.0183876)
(0.000137855 -0.000101292 0.0182848)
(0.000113626 -7.99875e-05 0.0181778)
(7.26746e-05 -4.53176e-05 0.0180744)
(0.000144054 -7.25229e-05 0.0183256)
(0.000155023 -7.63312e-05 0.0181992)
(0.000124854 -7.26334e-05 0.0180779)
(7.57973e-05 -4.50831e-05 0.0179661)
(0.000149491 -2.9682e-05 0.0181746)
(0.000156226 -5.1961e-05 0.0180495)
(0.000124995 -6.42948e-05 0.0179333)
(7.00674e-05 -4.79214e-05 0.0178257)
(7.92571e-05 -7.39423e-05 0.0183752)
(7.91213e-05 -6.68119e-05 0.0183318)
(6.99923e-05 -5.72031e-05 0.018271)
(5.12476e-05 -4.25407e-05 0.0181948)
(8.60871e-05 -6.49409e-05 0.0183371)
(8.96982e-05 -5.93061e-05 0.0182749)
(7.72706e-05 -5.0744e-05 0.0181986)
(5.41682e-05 -3.54018e-05 0.0181158)
(9.16583e-05 -4.31912e-05 0.0182547)
(9.6637e-05 -4.75355e-05 0.0181808)
(8.15819e-05 -4.7381e-05 0.0180962)
(5.43553e-05 -3.56048e-05 0.0180119)
(9.15491e-05 -1.88597e-05 0.0181081)
(9.64174e-05 -3.28148e-05 0.0180335)
(8.06025e-05 -4.18272e-05 0.0179511)
(5.00514e-05 -3.60596e-05 0.0178725)
(5.7203e-05 -4.17929e-05 0.0183716)
(5.62308e-05 -4.0373e-05 0.0183376)
(5.03117e-05 -3.70094e-05 0.0182865)
(3.84303e-05 -3.03374e-05 0.0182181)
(5.91778e-05 -3.63653e-05 0.0183144)
(6.00773e-05 -3.56791e-05 0.0182711)
(5.29133e-05 -3.27119e-05 0.0182112)
(3.92155e-05 -2.58575e-05 0.0181408)
(6.02505e-05 -2.54327e-05 0.0182204)
(6.23238e-05 -2.96341e-05 0.0181715)
(5.40797e-05 -3.09351e-05 0.0181075)
(3.84508e-05 -2.62352e-05 0.018039)
(5.82088e-05 -1.16129e-05 0.0180712)
(6.10864e-05 -2.07164e-05 0.0180227)
(5.24949e-05 -2.71685e-05 0.0179613)
(3.51382e-05 -2.59653e-05 0.0179)
(4.10445e-05 -2.46323e-05 0.0183688)
(3.99328e-05 -2.52154e-05 0.0183406)
(3.59355e-05 -2.45141e-05 0.0182954)
(2.80815e-05 -2.1451e-05 0.0182319)
(4.1155e-05 -2.10962e-05 0.0183029)
(4.10137e-05 -2.20745e-05 0.0182693)
(3.65263e-05 -2.14958e-05 0.0182185)
(2.80064e-05 -1.85398e-05 0.0181552)
(4.06544e-05 -1.51279e-05 0.0182029)
(4.1288e-05 -1.87212e-05 0.0181665)
(3.63672e-05 -2.04269e-05 0.0181139)
(2.70212e-05 -1.8879e-05 0.018054)
(3.82819e-05 -7.14619e-06 0.018051)
(3.96881e-05 -1.3238e-05 0.0180159)
(3.46669e-05 -1.7828e-05 0.0179666)
(2.44972e-05 -1.83834e-05 0.0179148)
(2.93761e-05 -1.50724e-05 0.018367)
(2.84113e-05 -1.621e-05 0.0183424)
(2.56784e-05 -1.65574e-05 0.0183008)
(2.03559e-05 -1.51678e-05 0.0182404)
(2.88621e-05 -1.26757e-05 0.0182968)
(2.84138e-05 -1.40255e-05 0.0182686)
(2.54755e-05 -1.43921e-05 0.0182231)
(1.99944e-05 -1.31992e-05 0.0181639)
(2.79422e-05 -9.19328e-06 0.0181936)
(2.79655e-05 -1.204e-05 0.018164)
(2.48535e-05 -1.37025e-05 0.0181179)
(1.90919e-05 -1.34473e-05 0.018063)
(2.58258e-05 -4.4666e-06 0.0180399)
(2.64076e-05 -8.61002e-06 0.0180121)
(2.3316e-05 -1.1904e-05 0.0179698)
(1.71891e-05 -1.2973e-05 0.0179233)
(2.09441e-05 -9.49713e-06 0.0183656)
(2.0198e-05 -1.06443e-05 0.0183435)
(1.83227e-05 -1.13181e-05 0.0183042)
(1.46668e-05 -1.07081e-05 0.0182457)
(2.03017e-05 -7.84587e-06 0.0182933)
(1.98368e-05 -9.10277e-06 0.0182683)
(1.78695e-05 -9.75969e-06 0.018226)
(1.42564e-05 -9.35488e-06 0.0181694)
(1.93917e-05 -5.71905e-06 0.0181884)
(1.92056e-05 -7.87667e-06 0.0181626)
(1.7167e-05 -9.29736e-06 0.0181205)
(1.35002e-05 -9.53037e-06 0.0180685)
(1.76863e-05 -2.8481e-06 0.0180337)
(1.78742e-05 -5.69606e-06 0.0180098)
(1.58939e-05 -8.05431e-06 0.0179717)
(1.20746e-05 -9.13627e-06 0.0179284)
(1.47852e-05 -6.08353e-06 0.0183646)
(1.42445e-05 -7.05364e-06 0.0183441)
(1.29648e-05 -7.74314e-06 0.0183063)
(1.0445e-05 -7.48939e-06 0.0182491)
(1.42027e-05 -4.9487e-06 0.0182912)
(1.38172e-05 -5.97113e-06 0.0182682)
(1.24939e-05 -6.63386e-06 0.0182279)
(1.00821e-05 -6.56567e-06 0.0181729)
(1.34437e-05 -3.61816e-06 0.0181854)
(1.32231e-05 -5.19864e-06 0.0181619)
(1.18671e-05 -6.32253e-06 0.0181221)
(9.48975e-06 -6.69521e-06 0.018072)
(1.21488e-05 -1.84225e-06 0.01803)
(1.21717e-05 -3.80076e-06 0.0180086)
(1.08738e-05 -5.47256e-06 0.0179729)
(8.44372e-06 -6.39504e-06 0.0179315)
(1.01987e-05 -3.88539e-06 0.0183639)
(9.82746e-06 -4.63216e-06 0.0183444)
(8.97095e-06 -5.21326e-06 0.0183077)
(7.25621e-06 -5.1145e-06 0.0182514)
(9.73841e-06 -3.1255e-06 0.0182898)
(9.45206e-06 -3.89284e-06 0.0182682)
(8.57453e-06 -4.44803e-06 0.0182291)
(6.9725e-06 -4.50435e-06 0.0181752)
(9.16374e-06 -2.29359e-06 0.0181835)
(8.9741e-06 -3.40921e-06 0.0181616)
(8.07831e-06 -4.24364e-06 0.0181232)
(6.53373e-06 -4.60244e-06 0.0180743)
(8.23101e-06 -1.19099e-06 0.0180278)
(8.19646e-06 -2.51844e-06 0.0180079)
(7.34636e-06 -3.67648e-06 0.0179737)
(5.79201e-06 -4.38839e-06 0.0179335)
(6.68882e-06 -2.40287e-06 0.0183634)
(6.45137e-06 -2.92813e-06 0.0183446)
(5.90386e-06 -3.35656e-06 0.0183086)
(4.78671e-06 -3.32049e-06 0.0182528)
(6.364e-06 -1.92193e-06 0.018289)
(6.17115e-06 -2.45258e-06 0.0182682)
(5.61329e-06 -2.86191e-06 0.0182299)
(4.58619e-06 -2.94419e-06 0.0181766)
(5.96838e-06 -1.41831e-06 0.0181824)
(5.83032e-06 -2.16104e-06 0.0181614)
(5.25997e-06 -2.73542e-06 0.0181239)
(4.28468e-06 -3.01706e-06 0.0180757)
(5.34445e-06 -7.49085e-07 0.0180265)
(5.30123e-06 -1.61169e-06 0.0180074)
(4.76146e-06 -2.37497e-06 0.0179743)
(3.79137e-06 -2.87516e-06 0.0179348)
(3.90135e-06 -1.38463e-06 0.0183631)
(3.7715e-06 -1.7011e-06 0.0183448)
(3.46166e-06 -1.96494e-06 0.0183091)
(2.81869e-06 -1.95295e-06 0.0182537)
(3.70932e-06 -1.106e-06 0.0182885)
(3.60165e-06 -1.42664e-06 0.0182682)
(3.28687e-06 -1.68323e-06 0.0182304)
(2.69903e-06 -1.74875e-06 0.0181775)
(3.47914e-06 -8.19863e-07 0.0181818)
(3.4e-06 -1.26003e-06 0.0181612)
(3.07654e-06 -1.6084e-06 0.0181243)
(2.52139e-06 -1.79173e-06 0.0180766)
(3.12285e-06 -4.36825e-07 0.0180257)
(3.09609e-06 -9.44359e-07 0.0180072)
(2.78932e-06 -1.39811e-06 0.0179746)
(2.23847e-06 -1.70595e-06 0.0179356)
(1.61827e-06 -8.09537e-07 0.0183629)
(1.58991e-06 -9.31971e-07 0.0183447)
(1.48614e-06 -1.03043e-06 0.0183093)
(1.25046e-06 -1.02284e-06 0.0182541)
(1.55482e-06 -6.38416e-07 0.0182881)
(1.54224e-06 -7.77548e-07 0.0182681)
(1.43799e-06 -8.89597e-07 0.0182306)
(1.21388e-06 -9.27532e-07 0.0181779)
(1.48021e-06 -4.48205e-07 0.0181814)
(1.48504e-06 -6.45388e-07 0.0181611)
(1.37758e-06 -8.10882e-07 0.0181245)
(1.15797e-06 -9.09621e-07 0.018077)
(1.36085e-06 -2.2086e-07 0.0180252)
(1.39086e-06 -4.57878e-07 0.018007)
(1.28746e-06 -6.81257e-07 0.0179747)
(1.06369e-06 -8.43746e-07 0.0179359)
(-0.00317417 -0.000983135 0.0273432)
(-0.00269884 0.00256017 0.0321942)
(0.000207708 -0.000302464 0.0114218)
(0.000448209 -0.000789823 0.0133658)
(-0.000602627 -0.00216873 0.0176585)
(0.00136999 -0.0014344 0.0251669)
(0.00044852 -0.000925564 0.00802764)
(-0.00105508 0.000306923 0.0208884)
(-0.000296058 -0.000207695 0.000317009)
(-0.00167672 0.000130459 0.0246662)
(0.00197797 0.000940387 0.0130172)
(0.00303579 0.00373419 0.0220981)
(-0.00904446 0.0050865 0.0416996)
(-0.00065665 0.00156435 0.011425)
(-0.000208156 0.00743947 0.0278026)
(-0.00135546 0.00218182 0.0223985)
(-0.00812835 -0.00607944 0.0531918)
(0.00254798 -0.00102142 0.0252547)
(0.00723193 -0.000968731 0.0568261)
(0.00194817 -0.00560473 0.0587464)
(0.000623482 0.000464736 0.0374807)
(0.00214469 0.00103948 0.0289613)
(0.00110513 -0.00214913 0.0646557)
(0.000261 -0.00457498 0.0333135)
(0.000821868 6.20674e-05 0.0300898)
(-0.000363568 -0.00162242 0.0237261)
(0.000643536 -0.00248732 0.0224069)
(0.00029568 -0.00309308 0.0591257)
(-0.00482954 0.0025536 0.0266112)
(-0.00214905 -0.000402975 0.0157681)
(-0.00120368 -0.000247167 0.0376562)
(-0.00033549 0.000149266 0.0347293)
(0.00334533 -0.00107054 0.0257682)
(0.00254261 -0.00114632 0.0182642)
(0.00296502 -0.00373372 0.0311603)