/*--------------------------------*- C++ -*----------------------------------*\
| =========                 |                                                 |
| \\      /  F ield         | OpenFOAM: The Open Source CFD Toolbox           |
|  \\    /   O peration     | Version:  2506                                  |
|   \\  /    A nd           | Website:  www.openfoam.com                      |
|    \\/     M anipulation  |                                                 |
\*---------------------------------------------------------------------------*/
FoamFile
{
    version     2.0;
    format      ascii;
    arch        "LSB;label=32;scalar=64";
    class       volVectorField;
    location    "0.09";
    object      Us;
}
// * * * * * * * * * * * * * * * * * * * * * * * * * * * * * * * * * * * * * //

dimensions      [0 1 -1 0 0 0 0];

internalField   nonuniform List<vector> 
1152
(
(-0.000594699 0.000587793 0.000162149)
(-0.000329293 6.45801e-05 0.000607201)
(-0.000666833 -0.000787254 0.000156558)
(3.51443e-05 -0.000329436 -5.85924e-05)
(-0.000758549 -0.000483259 0.00029118)
(3.22988e-06 -0.000302421 0.000263811)
(-5.64754e-05 -0.000361545 0.000334544)
(-0.000199114 -7.36855e-05 -8.20727e-05)
(0.000227987 -6.60085e-05 -1.00602e-05)
(8.50784e-05 -0.00110609 0.000278751)
(-0.000697805 0.000172211 0.000268619)
(-0.000638387 -0.000130715 0.000114366)
(-0.000342566 -0.000607462 9.3547e-05)
(0.000146119 -0.000712807 -0.00106316)
(-0.000753717 -5.8311e-05 -0.000296928)
(-0.000454432 -1.62086e-05 -0.000427091)
(-0.00483336 -0.00206806 0.00638119)
(-0.00171343 -0.00048452 0.00628211)
(-0.000450499 -0.00128896 0.00820163)
(-0.00159168 -0.00027813 0.00736855)
(-0.00100809 -0.00168807 0.0057754)
(-0.000203907 -0.00151312 0.00544906)
(-0.000327848 -0.00184938 0.00550015)
(0.000244595 -0.00112273 0.00761621)
(-0.000482982 -0.000871953 0.00539549)
(-0.000967492 -0.0012054 0.00779443)
(-0.000679547 -0.00148093 0.00743405)
(0.00157445 -5.59856e-05 0.00714119)
(-0.00050022 -0.0019044 0.00704045)
(-0.00130362 -0.00133697 0.00676255)
(-0.000821911 -0.00153791 0.00954999)
(-2.08272e-05 0.000318543 0.00282194)
(-0.000491227 0.00033278 0.0105899)
(-0.000979703 -0.000605469 0.0101366)
(-0.000246049 -0.000338897 0.0102756)
(-0.000110223 0.000552096 0.0104913)
(-0.000780465 -0.000105037 0.0097358)
(-0.000286573 -0.000167445 0.0101157)
(7.5164e-06 -7.01383e-05 0.0103993)
(0.000336012 0.000124773 0.00940225)
(-0.000818495 -0.000749002 0.0099168)
(-0.0010794 -0.000379317 0.00957638)
(0.000367985 -0.000386414 0.0102493)
(0.000808907 -0.000138216 0.00934958)
(-0.00103361 -0.00120913 0.00984769)
(-0.00125485 -0.000812036 0.00927876)
(-0.000367221 -0.00113523 0.00996589)
(0.000283852 -0.000334155 0.00929045)
(-0.000494053 -0.000377445 0.010363)
(-0.000215785 -0.000240051 0.0101577)
(-0.000509 -0.00029479 0.0105441)
(-0.000126842 0.000365822 0.0104704)
(-0.000770396 -0.000848221 0.0103841)
(-3.12351e-05 -0.000749178 0.00989509)
(-0.000126871 -0.000480558 0.00981964)
(3.67458e-06 -0.000379172 0.00969109)
(-0.000270618 -0.000899628 0.00984965)
(-0.000354216 -0.000914392 0.00950909)
(6.37383e-05 -0.000494159 0.0098758)
(-0.000117363 -0.000639031 0.00907119)
(-9.04435e-05 -0.00104301 0.00945928)
(-0.00014467 -0.000863445 0.0093328)
(-0.000154888 -0.00121005 0.00950595)
(0.000351985 -0.000433966 0.00839314)
(-0.000241523 -0.000252828 0.0100746)
(0.000430471 -0.000251263 0.0106027)
(0.000129615 -0.000313811 0.0102518)
(-0.000310907 -0.000128659 0.00932926)
(-5.82357e-05 -0.000523838 0.00973703)
(0.000339769 -0.000306607 0.00979737)
(-0.000752794 -7.58355e-05 0.00920229)
(-0.000139564 -0.000273409 0.00873375)
(-2.23029e-05 -0.000700081 0.00947569)
(-0.000242447 -0.000505922 0.00928342)
(-0.000299406 -0.000154391 0.00883602)
(-0.000368299 -0.000268345 0.00835314)
(-0.000144138 -0.000320105 0.00926493)
(-0.000485628 4.73758e-05 0.00892491)
(-0.000318049 -0.000145179 0.00885702)
(-0.000212875 -0.000280778 0.00793862)
(3.82017e-05 -8.20956e-05 0.00965079)
(0.000209863 -0.000263422 0.00948031)
(-2.81854e-06 -8.06087e-05 0.00910722)
(-6.02773e-05 -0.000160216 0.00853867)
(0.000210764 -0.000104293 0.00951872)
(5.97899e-05 -3.6051e-05 0.00901474)
(0.000148623 0.000157378 0.00851206)
(0.000154403 -2.48523e-05 0.00811075)
(0.000254658 5.0488e-05 0.00887817)
(0.000184446 4.04166e-05 0.00868036)
(-4.71686e-05 -0.00013049 0.00841069)
(0.000155287 -4.07867e-05 0.00788413)
(0.000215396 0.000465546 0.00863449)
(-0.000124563 4.21187e-05 0.00840728)
(-0.00011933 -0.000133377 0.00827191)
(3.91718e-05 -0.000110265 0.00794237)
(0.00104601 0.000729423 0.00879406)
(0.000430354 0.000220363 0.00893498)
(0.000539387 0.000397208 0.00845531)
(-9.17805e-05 0.000221691 0.00828614)
(0.000507649 0.000847915 0.00834261)
(0.000487818 0.000382334 0.0084851)
(0.000333284 0.000213347 0.00827676)
(0.000149468 0.000120877 0.00764171)
(0.000776609 0.000619663 0.00801898)
(0.000644702 0.000548379 0.00816366)
(-3.06098e-05 0.000145697 0.00806077)
(1.96487e-05 8.30432e-05 0.00808086)
(-0.000159751 0.000483369 0.00845971)
(0.000475276 0.000279048 0.00850295)
(0.000562162 0.000305288 0.00813271)
(-4.20251e-05 0.000449644 0.00744642)
(0 0 0)
(0.000803061 0.00078402 0.00857107)
(0 0 0)
(0 0 0)
(0 0 0)
(0 0 0)
(0 0 0)
(0 0 0)
(0 0 0)
(0 0 0)
(0 0 0)
(0 0 0)
(0 0 0)
(0 0 0)
(0 0 0)
(0 0 0)
(0 0 0)
(0 0 0)
(0 0 0)
(0 0 0)
(0 0 0)
(0 0 0)
(0 0 0)
(0 0 0)
(0 0 0)
(0 0 0)
(0 0 0)
(0 0 0)
(0 0 0)
(0 0 0)
(0 0 0)
(0 0 0)
(0 0 0)
(0 0 0)
(0 0 0)
(0 0 0)
(0 0 0)
(0 0 0)
(0 0 0)
(0 0 0)
(0 0 0)
(0 0 0)
(0 0 0)
(0 0 0)
(0 0 0)
(0 0 0)
(0 0 0)
(0 0 0)
(0 0 0)
(0 0 0)
(0 0 0)
(0 0 0)
(0 0 0)
(0 0 0)
(0 0 0)
(0 0 0)
(0 0 0)
(0 0 0)
(0 0 0)
(0 0 0)
(0 0 0)
(0 0 0)
(0 0 0)
(0 0 0)
(0 0 0)
(0 0 0)
(0 0 0)
(0 0 0)
(0 0 0)
(0 0 0)
(0 0 0)
(0 0 0)
(0 0 0)
(0 0 0)
(0 0 0)
(0 0 0)
(0 0 0)
(0 0 0)
(0 0 0)
(0 0 0)
(0 0 0)
(0 0 0)
(0 0 0)
(0 0 0)
(0 0 0)
(0 0 0)
(0 0 0)
(0 0 0)
(0 0 0)
(0 0 0)
(0 0 0)
(0 0 0)
(0 0 0)
(0 0 0)
(0 0 0)
(0 0 0)
(0 0 0)
(0 0 0)
(0 0 0)
(0 0 0)
(0 0 0)
(0 0 0)
(0 0 0)
(0 0 0)
(0 0 0)
(0 0 0)
(0 0 0)
(0 0 0)
(0 0 0)
(0 0 0)
(0 0 0)
(0 0 0)
(0 0 0)
(0 0 0)
(0 0 0)
(0 0 0)
(0 0 0)
(0 0 0)
(0 0 0)
(0 0 0)
(0 0 0)
(0 0 0)
(0 0 0)
(0 0 0)
(0 0 0)
(0 0 0)
(0 0 0)
(0 0 0)
(0 0 0)
(0 0 0)
(0 0 0)
(0 0 0)
(0 0 0)
(0 0 0)
(0 0 0)
(0 0 0)
(0 0 0)
(0 0 0)
(0 0 0)
(0 0 0)
(0 0 0)
(0 0 0)
(0 0 0)
(0 0 0)
(0 0 0)
(0 0 0)
(0 0 0)
(0 0 0)
(0 0 0)
(0 0 0)
(0 0 0)
(0 0 0)
(0 0 0)
(0 0 0)
(0 0 0)
(0 0 0)
(0 0 0)
(0 0 0)
(0 0 0)
(0 0 0)
(0 0 0)
(0 0 0)
(0 0 0)
(0 0 0)
(0 0 0)
(0 0 0)
(0 0 0)
(0 0 0)
(0 0 0)
(0 0 0)
(0 0 0)
(0 0 0)
(0 0 0)
(0 0 0)
(0 0 0)
(0 0 0)
(0 0 0)
(0 0 0)
(0 0 0)
(0 0 0)
(0 0 0)
(0 0 0)
(0 0 0)
(0 0 0)
(0 0 0)
(0 0 0)
(0 0 0)
(0 0 0)
(0 0 0)
(0 0 0)
(0 0 0)
(0 0 0)
(0 0 0)
(0 0 0)
(0 0 0)
(0 0 0)
(0 0 0)
(0 0 0)
(0 0 0)
(0 0 0)
(0 0 0)
(0 0 0)
(0 0 0)
(0 0 0)
(0 0 0)
(0 0 0)
(0 0 0)
(0 0 0)
(0 0 0)
(0 0 0)
(0 0 0)
(0 0 0)
(0 0 0)
(0 0 0)
(0 0 0)
(0 0 0)
(0 0 0)
(0 0 0)
(0 0 0)
(0 0 0)
(0 0 0)
(0 0 0)
(0 0 0)
(0 0 0)
(0 0 0)
(0 0 0)
(0 0 0)
(0 0 0)
(0 0 0)
(0 0 0)
(0 0 0)
(0 0 0)
(0 0 0)
(0 0 0)
(0 0 0)
(0 0 0)
(0 0 0)
(0 0 0)
(0 0 0)
(0 0 0)
(0 0 0)
(0 0 0)
(0 0 0)
(0 0 0)
(0 0 0)
(0 0 0)
(0 0 0)
(0 0 0)
(0 0 0)
(0 0 0)
(0 0 0)
(0 0 0)
(0 0 0)
(0 0 0)
(0 0 0)
(0 0 0)
(0 0 0)
(0 0 0)
(0 0 0)
(0 0 0)
(0 0 0)
(0 0 0)
(0 0 0)
(0 0 0)
(0 0 0)
(0 0 0)
(0 0 0)
(0 0 0)
(0 0 0)
(0 0 0)
(0 0 0)
(0 0 0)
(0.000103727 0.000465807 -0.000217159)
(0.000102755 0.000635598 -0.000363597)
(0.000694502 0.000607904 -0.000266258)
(0.000172093 0.000464374 7.96077e-05)
(8.92392e-05 0.000368352 6.83732e-05)
(7.32823e-05 0.000666225 -1.61766e-06)
(0.000516238 0.000233153 1.70834e-05)
(5.25999e-05 2.5298e-06 0.000133832)
(-8.26108e-05 0.000215234 4.17488e-05)
(-0.000122854 0.000182553 8.92268e-05)
(0.000325389 0.000170926 -7.89246e-05)
(0.000120898 6.4017e-05 1.71594e-05)
(-0.000319038 0.000116471 -0.00128802)
(-0.000133092 0.000165395 -2.13575e-05)
(0.000383125 -3.23002e-05 -0.000377377)
(0.00118115 -0.000802327 -0.00131769)
(0.000255142 -0.00121533 0.00397709)
(0.00112569 -0.000931042 0.00606007)
(0.00135818 -0.00126738 0.0070572)
(0.000758369 0.000184122 0.00544545)
(0.000460015 -0.000663733 0.007732)
(5.3676e-05 -0.00047696 0.00632344)
(-8.92035e-05 0.000481857 0.00327479)
(0.000477733 -0.000297035 0.00603496)
(0.000813847 -0.00114791 0.00688961)
(0.000990237 -0.000465898 0.00639974)
(0.000330005 0.000219013 0.00661141)
(-0.000466551 -0.000356327 0.00828061)
(0.00148367 -0.00113346 0.00583625)
(0.0011745 0.000189642 0.00717239)
(0.000316059 -0.000180542 0.00519495)
(0.000136023 -0.000818076 0.00546957)
(-0.00066608 -0.00219408 0.00889838)
(-0.000659216 -0.00150691 0.00841864)
(-0.00014672 -0.00136943 0.00807926)
(0.000187428 -0.000566745 0.00786217)
(-0.000293921 -0.00226502 0.00919986)
(-0.000157872 -0.00205194 0.00801558)
(-1.18586e-05 -0.00185799 0.00763384)
(0.00064506 -0.000447804 0.00788708)
(-0.000953972 -0.00192202 0.00843042)
(-0.000620719 -0.00167492 0.00797445)
(7.72778e-05 -0.00152696 0.00768102)
(0.000548258 -0.0011782 0.00671918)
(-0.00158547 -0.00226607 0.00934347)
(-0.000392007 -0.000901942 0.00863435)
(-0.00051135 -0.000153565 0.00790929)
(0.000113045 -0.000518001 0.00631904)
(-0.000176177 -0.00115777 0.00922683)
(-9.99532e-05 -0.00079883 0.00951388)
(-0.00036996 -0.000925615 0.00890836)
(-7.01266e-05 8.32385e-05 0.00790408)
(-0.000430608 -0.00109616 0.00825952)
(-0.000199238 -0.000958785 0.00897637)
(-0.000858917 -0.00135021 0.00788054)
(-0.00010654 -0.000502618 0.00718803)
(-0.000872699 -0.000349022 0.00743389)
(-0.000912776 -0.00116582 0.00673594)
(-0.000937202 -0.000947525 0.00661826)
(-0.00178744 9.82422e-05 0.00863985)
(-0.000826299 -0.000804153 0.00820032)
(-0.0010579 0.000284281 0.00657239)
(-0.000902683 -0.000613756 0.00525787)
(-0.000565104 0.000578 0.00576111)
(0.000243639 0.000388579 0.00933016)
(-0.000301936 0.00011685 0.00876708)
(-0.000266788 -1.20607e-05 0.00852762)
(-0.000545281 -0.000416658 0.00772791)
(0.000180796 -0.000284814 0.00824906)
(9.24678e-05 0.000363389 0.00769798)
(-0.000757358 -2.09841e-05 0.00833722)
(-0.000578584 -0.000428285 0.00739365)
(0.000218927 -5.85452e-06 0.00699729)
(0.000665066 -0.0003666 0.00705899)
(-0.00065165 -0.000594242 0.00683127)
(-0.000840531 -0.00037341 0.00706868)
(0.000216825 8.90739e-05 0.00638984)
(0.000612834 -0.000165042 0.00599894)
(-0.000820903 0.00014253 0.00513411)
(-0.000711409 0.000284654 0.00534721)
(4.47825e-05 0.000518479 0.00886772)
(-9.94148e-05 0.000255266 0.00842083)
(-0.000150876 -0.000269738 0.00796291)
(0.000160607 -6.40591e-05 0.00744777)
(9.28903e-05 0.000406958 0.00768678)
(-0.000180715 0.000449486 0.00773311)
(-0.000369021 2.15188e-05 0.00758787)
(-0.000181653 0.000170142 0.0070145)
(0.000173406 -1.60806e-05 0.00717273)
(4.46368e-05 0.000530626 0.00743636)
(-0.000610334 0.000337451 0.00696215)
(-0.000742611 0.000511134 0.00635485)
(0.000360829 -0.000373455 0.00483903)
(9.55127e-05 -3.96215e-05 0.00601022)
(-0.00138511 0.00060982 0.00563454)
(-0.000996271 0.00058435 0.00423142)
(0.000172324 0.000419431 0.00777078)
(0.000622451 0.000322863 0.0080383)
(0.000379022 0.000120316 0.00779684)
(0.000937057 0.000312541 0.00686919)
(8.317e-05 0.000759779 0.00688534)
(0.000125834 0.000322077 0.00779307)
(0.000313645 -8.87393e-05 0.00729751)
(0.000752885 4.08837e-05 0.00669864)
(-0.000818873 0.00120374 0.00667911)
(-0.000530641 0.00121444 0.00759727)
(-0.000274984 -0.000101664 0.00661159)
(-0.000577249 0.000851102 0.0052788)
(0.00148186 0.000697699 0.00425428)
(-0.000637688 0.00137809 0.00574679)
(-0.0014024 0.000203904 0.00581273)
(-0.000515997 0.000946997 0.0028821)
(0 0 0)
(0 0 0)
(0 0 0)
(0 0 0)
(0 0 0)
(0 0 0)
(0 0 0)
(0 0 0)
(0 0 0)
(0 0 0)
(0 0 0)
(0 0 0)
(0 0 0)
(0 0 0)
(0 0 0)
(0 0 0)
(0 0 0)
(0 0 0)
(0 0 0)
(0 0 0)
(0 0 0)
(0 0 0)
(0 0 0)
(0 0 0)
(0 0 0)
(0 0 0)
(0 0 0)
(0 0 0)
(0 0 0)
(0 0 0)
(0 0 0)
(0 0 0)
(0 0 0)
(0 0 0)
(0 0 0)
(0 0 0)
(0 0 0)
(0 0 0)
(0 0 0)
(0 0 0)
(0 0 0)
(0 0 0)
(0 0 0)
(0 0 0)
(0 0 0)
(0 0 0)
(0 0 0)
(0 0 0)
(0 0 0)
(0 0 0)
(0 0 0)
(0 0 0)
(0 0 0)
(0 0 0)
(0 0 0)
(0 0 0)
(0 0 0)
(0 0 0)
(0 0 0)
(0 0 0)
(0 0 0)
(0 0 0)
(0 0 0)
(0 0 0)
(0 0 0)
(0 0 0)
(0 0 0)
(0 0 0)
(0 0 0)
(0 0 0)
(0 0 0)
(0 0 0)
(0 0 0)
(0 0 0)
(0 0 0)
(0 0 0)
(0 0 0)
(0 0 0)
(0 0 0)
(0 0 0)
(0 0 0)
(0 0 0)
(0 0 0)
(0 0 0)
(0 0 0)
(0 0 0)
(0 0 0)
(0 0 0)
(0 0 0)
(0 0 0)
(0 0 0)
(0 0 0)
(0 0 0)
(0 0 0)
(0 0 0)
(0 0 0)
(0 0 0)
(0 0 0)
(0 0 0)
(0 0 0)
(0 0 0)
(0 0 0)
(0 0 0)
(0 0 0)
(0 0 0)
(0 0 0)
(0 0 0)
(0 0 0)
(0 0 0)
(0 0 0)
(0 0 0)
(0 0 0)
(0 0 0)
(0 0 0)
(0 0 0)
(0 0 0)
(0 0 0)
(0 0 0)
(0 0 0)
(0 0 0)
(0 0 0)
(0 0 0)
(0 0 0)
(0 0 0)
(0 0 0)
(0 0 0)
(0 0 0)
(0 0 0)
(0 0 0)
(0 0 0)
(0 0 0)
(0 0 0)
(0 0 0)
(0 0 0)
(0 0 0)
(0 0 0)
(0 0 0)
(0 0 0)
(0 0 0)
(0 0 0)
(0 0 0)
(0 0 0)
(0 0 0)
(0 0 0)
(0 0 0)
(0 0 0)
(0 0 0)
(0 0 0)
(0 0 0)
(0 0 0)
(0 0 0)
(0 0 0)
(0 0 0)
(0 0 0)
(0 0 0)
(0 0 0)
(0 0 0)
(0 0 0)
(0 0 0)
(0 0 0)
(0 0 0)
(0 0 0)
(0 0 0)
(0 0 0)
(0 0 0)
(0 0 0)
(0 0 0)
(0 0 0)
(0 0 0)
(0 0 0)
(0 0 0)
(0 0 0)
(0 0 0)
(0 0 0)
(0 0 0)
(0 0 0)
(0 0 0)
(0 0 0)
(0 0 0)
(0 0 0)
(0 0 0)
(0 0 0)
(0 0 0)
(0 0 0)
(0 0 0)
(0 0 0)
(0 0 0)
(0 0 0)
(0 0 0)
(0 0 0)
(0 0 0)
(0 0 0)
(0 0 0)
(0 0 0)
(0 0 0)
(0 0 0)
(0 0 0)
(0 0 0)
(0 0 0)
(0 0 0)
(0 0 0)
(0 0 0)
(0 0 0)
(0 0 0)
(0 0 0)
(0 0 0)
(0 0 0)
(0 0 0)
(0 0 0)
(0 0 0)
(0 0 0)
(0 0 0)
(0 0 0)
(0 0 0)
(0 0 0)
(0 0 0)
(0 0 0)
(0 0 0)
(0 0 0)
(0 0 0)
(0 0 0)
(0 0 0)
(0 0 0)
(0 0 0)
(0 0 0)
(0 0 0)
(0 0 0)
(0 0 0)
(0 0 0)
(0 0 0)
(0 0 0)
(0 0 0)
(0 0 0)
(0 0 0)
(0 0 0)
(0 0 0)
(0 0 0)
(0 0 0)
(0 0 0)
(0 0 0)
(0 0 0)
(0 0 0)
(0 0 0)
(0 0 0)
(0 0 0)
(0 0 0)
(0 0 0)
(0 0 0)
(0 0 0)
(0 0 0)
(0 0 0)
(0 0 0)
(0 0 0)
(0 0 0)
(0 0 0)
(0 0 0)
(0 0 0)
(0 0 0)
(0 0 0)
(0 0 0)
(0 0 0)
(0 0 0)
(0 0 0)
(0 0 0)
(0 0 0)
(0 0 0)
(0 0 0)
(0 0 0)
(0 0 0)
(0 0 0)
(0 0 0)
(0 0 0)
(1.9018e-07 -0.000128712 0.000178444)
(0.000345652 0.000253024 0.000318807)
(1.8227e-05 -0.000174312 9.80423e-05)
(1.94678e-06 -0.000341765 -4.28947e-05)
(-0.000209531 -0.000105859 0.00026975)
(0.000302418 0.000179509 7.45303e-06)
(0.000198782 -0.000310921 0.000103082)
(-0.00010802 7.52866e-06 1.70201e-05)
(-0.0005162 -8.1018e-06 0.000124998)
(-0.000178597 0.000247538 -9.0437e-06)
(0.000362057 -0.000230808 -0.000133809)
(2.14881e-06 0.000163679 8.45822e-05)
(-0.000170032 0.00014916 1.34094e-05)
(-0.000182043 -3.04579e-05 -2.42183e-05)
(-7.26667e-05 0.000113668 -6.4839e-05)
(-0.000214365 0.000336215 -6.82742e-05)
(-0.0012338 -0.00116767 0.00669259)
(0.00122506 -0.000692813 0.00392099)
(0.000681937 -0.0010179 0.00604653)
(8.83803e-05 -0.00119491 0.00507662)
(0.00138883 -0.000564672 0.00765134)
(0.00153741 -0.000100552 0.0068038)
(0.000827362 -0.000126469 0.00719849)
(0.000580521 -0.00285895 0.00676114)
(0.000868536 -8.03757e-05 0.00673999)
(0.000136612 -0.00122116 0.00502456)
(0.000579683 -0.00149416 0.00407314)
(0.000868104 -0.00226264 0.00842162)
(-0.000282504 0.00033754 0.00345011)
(-0.000869709 -0.000873146 0.00234838)
(5.53168e-05 -0.000532288 0.00387849)
(0.000396956 -0.000719546 0.00460786)
(0.000501896 -0.000378448 0.00879471)
(0.000395664 -0.00014888 0.00863066)
(0.000116501 0.000734361 0.00837834)
(-1.89395e-05 -0.00154371 0.00861434)
(0.00096361 -0.000550277 0.00908251)
(0.000770695 2.40574e-05 0.009212)
(0.00075504 -0.00103132 0.00805569)
(0.00132781 -0.00277354 0.00776949)
(0.000172848 -0.000850959 0.00882856)
(0.00031373 -0.00041594 0.0090701)
(0.000264269 -0.000680594 0.00775029)
(0.000133563 -0.00261616 0.00790413)
(0.000856643 -0.000515792 0.00894363)
(-7.33518e-05 -0.00105402 0.00764006)
(4.94203e-05 -0.00080054 0.00797308)
(0.000349166 -0.00123152 0.00748162)
(-0.000200145 4.61516e-05 0.0099417)
(-0.000423252 -0.000660315 0.00961514)
(-0.00066048 -0.00171274 0.0090836)
(-0.000597312 -0.00143072 0.00840388)
(-0.00069124 4.04141e-05 0.00907741)
(-0.000499108 -0.000284551 0.00888846)
(-0.00109485 -0.000234228 0.00821743)
(-0.000146447 -0.000996395 0.00751599)
(-0.000624888 -0.000234608 0.00856247)
(-6.15753e-05 0.00017322 0.00813439)
(0.000823835 0.000359824 0.00762055)
(0.000945297 -0.00105277 0.00622036)
(-9.85727e-05 0.000139419 0.00784699)
(-0.000160754 -0.000936753 0.00731724)
(0.000161923 -0.000770433 0.00726439)
(9.06995e-05 -0.000643122 0.00624596)
(-0.000300712 -0.000515555 0.00895271)
(-1.40072e-05 -0.000921889 0.00883359)
(-6.17101e-05 -0.00106456 0.00868129)
(0.000157695 -0.00114686 0.00690855)
(-0.000385278 -0.000501531 0.00876243)
(-0.000357795 -0.000853044 0.00805635)
(-0.000222187 -0.000800273 0.00755597)
(-7.61995e-05 -0.000704871 0.00619803)
(-8.88972e-05 -8.02347e-06 0.00804363)
(-0.00065223 -0.000244705 0.00783305)
(-0.000646705 4.2265e-05 0.00694803)
(-0.000475212 0.000296699 0.00626757)
(-0.000132064 0.000256243 0.0076476)
(-0.000520915 -0.000351528 0.00705064)
(-0.000422052 -0.000302239 0.00666427)
(-0.000872215 0.000458269 0.00492386)
(-0.00010849 0.000163865 0.00857402)
(-0.000175111 -0.000243933 0.00836588)
(0.000377365 -0.000100703 0.0073981)
(0.000320754 -0.000747289 0.00553618)
(0.00031235 -0.000188526 0.0081943)
(0.000397621 -0.000607355 0.00776854)
(-2.20646e-05 0.000400628 0.00675206)
(-4.71808e-05 -0.000149204 0.00536591)
(8.22228e-05 -0.000590736 0.00776908)
(9.71479e-07 -0.00103524 0.00727139)
(-0.000206287 2.68768e-05 0.00608025)
(-0.000157796 0.000164083 0.00466328)
(0.000365559 -0.00045178 0.00721113)
(3.11399e-05 -5.07165e-05 0.00669416)
(-0.000524093 0.000210119 0.00590314)
(-0.000459001 0.00055985 0.00423364)
(0.000281953 2.14472e-05 0.00793878)
(0.000691813 7.97965e-05 0.00818001)
(0.000775519 -0.000145304 0.00726446)
(-0.000188982 0.000296011 0.00564373)
(0.000354184 -6.11612e-05 0.00786018)
(0.000475986 0.000779459 0.00728118)
(0.00137376 0.000515399 0.0062346)
(9.27199e-05 0.000352464 0.00565142)
(7.57233e-05 -0.000111914 0.00773281)
(0.00137508 0.000391985 0.00665812)
(0.000794241 0.000556037 0.00585377)
(-1.99065e-05 5.36042e-05 0.00483095)
(0.000455223 -0.000244075 0.00678437)
(0.000367518 -0.000327914 0.00686836)
(-0.000108605 0.000409191 0.00598314)
(1.84572e-05 0.000134369 0.00377418)
(0 0 0)
(0 0 0)
(0 0 0)
(0 0 0)
(0 0 0)
(0 0 0)
(0 0 0)
(0 0 0)
(0 0 0)
(0 0 0)
(0 0 0)
(0 0 0)
(0 0 0)
(0 0 0)
(0 0 0)
(-2.46213e-05 1.19115e-05 0.00307949)
(0 0 0)
(0 0 0)
(0 0 0)
(0 0 0)
(0 0 0)
(0 0 0)
(0 0 0)
(0 0 0)
(0 0 0)
(0 0 0)
(0 0 0)
(0 0 0)
(0 0 0)
(0 0 0)
(0 0 0)
(0 0 0)
(0 0 0)
(0 0 0)
(0 0 0)
(0 0 0)
(0 0 0)
(0 0 0)
(0 0 0)
(0 0 0)
(0 0 0)
(0 0 0)
(0 0 0)
(0 0 0)
(0 0 0)
(0 0 0)
(0 0 0)
(0 0 0)
(0 0 0)
(0 0 0)
(0 0 0)
(0 0 0)
(0 0 0)
(0 0 0)
(0 0 0)
(0 0 0)
(0 0 0)
(0 0 0)
(0 0 0)
(0 0 0)
(0 0 0)
(0 0 0)
(0 0 0)
(0 0 0)
(0 0 0)
(0 0 0)
(0 0 0)
(0 0 0)
(0 0 0)
(0 0 0)
(0 0 0)
(0 0 0)
(0 0 0)
(0 0 0)
(0 0 0)
(0 0 0)
(0 0 0)
(0 0 0)
(0 0 0)
(0 0 0)
(0 0 0)
(0 0 0)
(0 0 0)
(0 0 0)
(0 0 0)
(0 0 0)
(0 0 0)
(0 0 0)
(0 0 0)
(0 0 0)
(0 0 0)
(0 0 0)
(0 0 0)
(0 0 0)
(0 0 0)
(0 0 0)
(0 0 0)
(0 0 0)
(0 0 0)
(0 0 0)
(0 0 0)
(0 0 0)
(0 0 0)
(0 0 0)
(0 0 0)
(0 0 0)
(0 0 0)
(0 0 0)
(0 0 0)
(0 0 0)
(0 0 0)
(0 0 0)
(0 0 0)
(0 0 0)
(0 0 0)
(0 0 0)
(0 0 0)
(0 0 0)
(0 0 0)
(0 0 0)
(0 0 0)
(0 0 0)
(0 0 0)
(0 0 0)
(0 0 0)
(0 0 0)
(0 0 0)
(0 0 0)
(0 0 0)
(0 0 0)
(0 0 0)
(0 0 0)
(0 0 0)
(0 0 0)
(0 0 0)
(0 0 0)
(0 0 0)
(0 0 0)
(0 0 0)
(0 0 0)
(0 0 0)
(0 0 0)
(0 0 0)
(0 0 0)
(0 0 0)
(0 0 0)
(0 0 0)
(0 0 0)
(0 0 0)
(0 0 0)
(0 0 0)
(0 0 0)
(0 0 0)
(0 0 0)
(0 0 0)
(0 0 0)
(0 0 0)
(0 0 0)
(0 0 0)
(0 0 0)
(0 0 0)
(0 0 0)
(0 0 0)
(0 0 0)
(0 0 0)
(0 0 0)
(0 0 0)
(0 0 0)
(0 0 0)
(0 0 0)
(0 0 0)
(0 0 0)
(0 0 0)
(0 0 0)
(0 0 0)
(0 0 0)
(0 0 0)
(0 0 0)
(0 0 0)
(0 0 0)
(0 0 0)
(0 0 0)
(0 0 0)
(0 0 0)
(0 0 0)
(0 0 0)
(0 0 0)
(0 0 0)
(0 0 0)
(0 0 0)
(0 0 0)
(0 0 0)
(0 0 0)
(0 0 0)
(0 0 0)
(0 0 0)
(0 0 0)
(0 0 0)
(0 0 0)
(0 0 0)
(0 0 0)
(0 0 0)
(0 0 0)
(0 0 0)
(0 0 0)
(0 0 0)
(0 0 0)
(0 0 0)
(0 0 0)
(0 0 0)
(0 0 0)
(0 0 0)
(0 0 0)
(0 0 0)
(0 0 0)
(0 0 0)
(0 0 0)
(0 0 0)
(0 0 0)
(0 0 0)
(0 0 0)
(0 0 0)
(0 0 0)
(0 0 0)
(0 0 0)
(0 0 0)
(0 0 0)
(0 0 0)
(0 0 0)
(0 0 0)
(0 0 0)
(0 0 0)
(0 0 0)
(0 0 0)
(0 0 0)
(0 0 0)
(0 0 0)
(0 0 0)
(0 0 0)
(0 0 0)
(0 0 0)
(0 0 0)
(0 0 0)
(0 0 0)
(0 0 0)
(0 0 0)
(0 0 0)
(0 0 0)
(0 0 0)
(0 0 0)
(0 0 0)
(0 0 0)
(0 0 0)
(0 0 0)
(0 0 0)
(0 0 0)
(0 0 0)
(0 0 0)
(0 0 0)
(0 0 0)
(0 0 0)
(0 0 0)
(0 0 0)
(0 0 0)
(0 0 0)
(0 0 0)
(0 0 0)
(0 0 0)
(0 0 0)
(0 0 0)
(0 0 0)
(0 0 0)
)
;

boundaryField
{
    inlet
    {
        type            zeroGradient;
    }
    outlet
    {
        type            zeroGradient;
    }
    wall
    {
        type            zeroGradient;
    }
    procBoundary3to1
    {
        type            processor;
        value           nonuniform List<vector> 
192
(
(-0.000643331 -0.000149546 0.000225406)
(-0.000609928 0.000624058 0.000411961)
(-0.000784175 0.00127072 0.00055378)
(-0.000902352 0.000234382 0.000245224)
(-0.000819247 0.000784943 0.0056643)
(-0.00182007 0.000977263 0.00410615)
(-0.00164563 0.000169781 0.00362325)
(-0.000528506 0.00102394 0.00327825)
(-0.000654484 0.000424553 0.0117079)
(-0.000253641 0.000925904 0.0118765)
(-0.000400565 -4.64362e-05 0.0113472)
(0.000310957 0.000204588 0.010094)
(-0.000102062 0.000546819 0.0104124)
(-0.000106055 -6.95562e-06 0.010601)
(-0.00029964 -0.000134296 0.0103662)
(-0.000657953 0.000314566 0.00979033)
(-0.000221855 0.000199778 0.0108458)
(-0.000208341 -0.000182211 0.0105203)
(0.000246138 -0.000105704 0.0102051)
(-0.000265656 2.31383e-05 0.00973815)
(0.000600386 0.000216128 0.00957845)
(0.000264556 0.000100498 0.0100926)
(0.000209271 -0.000173533 0.00994232)
(0.000258326 4.86142e-05 0.00893434)
(0.000319811 0.000442422 0.00943872)
(0.000566011 0.000357699 0.0090158)
(0.000868631 0.000607968 0.00888573)
(0.000508539 -0.000200278 0.0084313)
(0.000634369 -0.000585574 0.00893603)
(0.000634369 -0.000585574 0.00893603)
(0 0 0)
(0 0 0)
(0 0 0)
(0 0 0)
(0 0 0)
(0 0 0)
(0 0 0)
(0 0 0)
(0 0 0)
(0 0 0)
(0 0 0)
(0 0 0)
(0 0 0)
(0 0 0)
(0 0 0)
(0 0 0)
(0 0 0)
(0 0 0)
(0 0 0)
(0 0 0)
(0 0 0)
(0 0 0)
(0 0 0)
(0 0 0)
(0 0 0)
(0 0 0)
(0 0 0)
(0 0 0)
(0 0 0)
(0 0 0)
(0 0 0)
(0 0 0)
(0 0 0)
(0 0 0)
(0 0 0)
(0 0 0)
(0 0 0)
(0 0 0)
(0 0 0)
(0 0 0)
(0 0 0)
(0 0 0)
(0 0 0)
(0 0 0)
(0 0 0)
(0 0 0)
(0 0 0)
(0 0 0)
(0 0 0)
(0 0 0)
(0 0 0)
(0 0 0)
(0 0 0)
(0 0 0)
(0 0 0)
(0 0 0)
(0 0 0)
(0 0 0)
(0 0 0)
(0 0 0)
(0 0 0)
(0 0 0)
(0 0 0)
(0 0 0)
(0 0 0)
(0 0 0)
(-0.000329698 0.0001358 -0.000231367)
(0.000559142 -0.000260131 -0.000667575)
(0.000857965 -0.000145324 -6.13426e-05)
(9.06169e-05 -7.86634e-05 0.0006656)
(0.00153808 0.000425907 0.00400198)
(0.00161796 -0.00018009 0.00414483)
(-0.000115724 0.00105319 0.00533222)
(-0.000518614 0.000398445 0.00446704)
(-0.000145196 0.00103557 0.0096004)
(-0.00069822 0.000616996 0.008301)
(-0.000193527 3.72612e-05 0.00793538)
(-0.000889555 0.000801231 0.00686198)
(-0.000496773 -0.000195547 0.00989553)
(-0.000727782 -0.000575017 0.00933303)
(-0.000722075 -0.000627751 0.00900987)
(-0.000388007 -0.000408429 0.00845004)
(-0.000150218 -0.000207677 0.00933255)
(-0.0002995 -0.000920629 0.00971027)
(-2.38224e-05 -0.000283554 0.0101704)
(-0.000620216 -0.000509367 0.0126575)
(6.79323e-05 6.70317e-05 0.00866576)
(-0.000176009 -0.000113468 0.00858501)
(-0.000579072 0.000126839 0.00846922)
(-0.000377241 -0.000483672 0.00714445)
(0.000806694 -6.54119e-05 0.00760508)
(0.000449968 0.000991145 0.00812762)
(-0.000723714 -0.000662632 0.00794753)
(-0.000320743 -0.00131934 0.00538082)
(0 0 0)
(0 0 0)
(0 0 0)
(0 0 0)
(0 0 0)
(0 0 0)
(0 0 0)
(0 0 0)
(0 0 0)
(0 0 0)
(0 0 0)
(0 0 0)
(0 0 0)
(0 0 0)
(0 0 0)
(0 0 0)
(0 0 0)
(0 0 0)
(0 0 0)
(0 0 0)
(0 0 0)
(0 0 0)
(0 0 0)
(0 0 0)
(0 0 0)
(0 0 0)
(0 0 0)
(0 0 0)
(0 0 0)
(0 0 0)
(0 0 0)
(0 0 0)
(0 0 0)
(0 0 0)
(0 0 0)
(0 0 0)
(0 0 0)
(0 0 0)
(0 0 0)
(0 0 0)
(0 0 0)
(0 0 0)
(0 0 0)
(0 0 0)
(0 0 0)
(0 0 0)
(0 0 0)
(0 0 0)
(0 0 0)
(0 0 0)
(0 0 0)
(0 0 0)
(0 0 0)
(0 0 0)
(0 0 0)
(0 0 0)
(0 0 0)
(0 0 0)
(0 0 0)
(0 0 0)
(0 0 0)
(0 0 0)
(0 0 0)
(0 0 0)
(0 0 0)
(0 0 0)
(0 0 0)
(0 0 0)
)
;
    }
    procBoundary3to2
    {
        type            processor;
        value           nonuniform List<vector> 
192
(
(-0.00029702 0.000154392 0.000150321)
(-0.000135237 9.85733e-05 0.000213817)
(0.000177085 -6.57235e-06 0.000155206)
(0.000362574 -0.000745043 0.000163583)
(-0.001385 -0.000533541 0.00532192)
(-0.000521312 -0.00159087 0.00589899)
(-0.00116567 -0.00149841 0.00687685)
(-0.000630647 -0.000938252 0.00743659)
(-0.000560894 -0.00111127 0.0130107)
(-0.000582306 -0.000249075 0.0110728)
(-0.000914614 -0.000880935 0.010033)
(1.3355e-05 -0.00178435 0.00958691)
(-0.00183793 -0.000879938 0.0121891)
(-0.000987668 -0.000599883 0.0107175)
(-0.000544386 -0.000580565 0.0100073)
(-0.000280605 -0.000372324 0.0095191)
(-0.000674812 -0.000180785 0.0109484)
(-0.000233514 -0.000106775 0.0105607)
(-0.000317584 -0.000432066 0.00992724)
(-0.000417466 -0.000680775 0.00912585)
(-5.74053e-05 0.000263174 0.0101208)
(0.00029178 8.29843e-05 0.00959537)
(0.000834152 0.000327784 0.00891497)
(0.000584773 0.000190772 0.00880045)
(0.000719718 0.00103896 0.00934345)
(0.000539926 0.000526555 0.00894159)
(0.000163769 0.000308434 0.00868503)
(0.000461555 0.000380545 0.00834833)
(0 0 0)
(0 0 0)
(0 0 0)
(0 0 0)
(0 0 0)
(0 0 0)
(0 0 0)
(0 0 0)
(0 0 0)
(0 0 0)
(0 0 0)
(0 0 0)
(0 0 0)
(0 0 0)
(0 0 0)
(0 0 0)
(0 0 0)
(0 0 0)
(0 0 0)
(0 0 0)
(0 0 0)
(0 0 0)
(0 0 0)
(0 0 0)
(0 0 0)
(0 0 0)
(0 0 0)
(0 0 0)
(0 0 0)
(0 0 0)
(0 0 0)
(0 0 0)
(0 0 0)
(0 0 0)
(0 0 0)
(0 0 0)
(0 0 0)
(0 0 0)
(0 0 0)
(0 0 0)
(0 0 0)
(0 0 0)
(0 0 0)
(0 0 0)
(0 0 0)
(0 0 0)
(0 0 0)
(0 0 0)
(0 0 0)
(0 0 0)
(0 0 0)
(0 0 0)
(0 0 0)
(0 0 0)
(0 0 0)
(0 0 0)
(0 0 0)
(0 0 0)
(0 0 0)
(0 0 0)
(0 0 0)
(0 0 0)
(0 0 0)
(0 0 0)
(0 0 0)
(0 0 0)
(0 0 0)
(0 0 0)
(0.000569497 -0.000936348 -0.000296016)
(-0.000161524 -0.000990619 -8.82401e-05)
(-0.000284277 -0.000223284 -0.000203411)
(0.000519963 5.55569e-05 -0.000517403)
(-0.00070529 -0.000968174 0.00664406)
(0.000381071 -0.00188978 0.00536018)
(-0.0012839 -0.00150279 0.00671981)
(-0.000466987 -0.000376579 0.00463538)
(-0.000373977 -0.00193043 0.00899031)
(-0.000301207 -0.00190462 0.0087897)
(-0.000602436 -0.00150065 0.00828098)
(-0.000731389 -0.000780695 0.00856731)
(-0.000458503 -0.000651623 0.00903074)
(-0.000308406 -0.0011691 0.00815985)
(-0.000319133 -0.000962882 0.00811968)
(-0.000584576 -0.000627274 0.00782504)
(-0.000234425 -0.000771983 0.00850932)
(0.000107656 -0.000722806 0.00808623)
(-0.000369412 -0.000842498 0.00740617)
(-0.000993893 -0.000406167 0.00656821)
(-0.000388879 -2.08675e-06 0.00817858)
(-0.000449666 -0.000332315 0.00762991)
(-0.000263329 5.70988e-05 0.00660507)
(-6.26706e-05 -0.000883887 0.00691314)
(-0.000207536 0.000248189 0.00819541)
(-6.35777e-06 0.000906234 0.00640459)
(-1.63118e-06 0.000666002 0.00620317)
(0.00138391 0.00245876 0.00576066)
(0 0 0)
(0 0 0)
(0 0 0)
(0 0 0)
(0 0 0)
(0 0 0)
(0 0 0)
(0 0 0)
(0 0 0)
(0 0 0)
(0 0 0)
(0 0 0)
(0 0 0)
(0 0 0)
(0 0 0)
(0 0 0)
(0 0 0)
(0 0 0)
(0 0 0)
(0 0 0)
(0 0 0)
(0 0 0)
(0 0 0)
(0 0 0)
(0 0 0)
(0 0 0)
(0 0 0)
(0 0 0)
(0 0 0)
(0 0 0)
(0 0 0)
(0 0 0)
(0 0 0)
(0 0 0)
(0 0 0)
(0 0 0)
(0 0 0)
(0 0 0)
(0 0 0)
(0 0 0)
(0 0 0)
(0 0 0)
(0 0 0)
(0 0 0)
(0 0 0)
(0 0 0)
(0 0 0)
(0 0 0)
(0 0 0)
(0 0 0)
(0 0 0)
(0 0 0)
(0 0 0)
(0 0 0)
(0 0 0)
(0 0 0)
(0 0 0)
(0 0 0)
(0 0 0)
(0 0 0)
(0 0 0)
(0 0 0)
(0 0 0)
(0 0 0)
(0 0 0)
(0 0 0)
(0 0 0)
(0 0 0)
)
;
    }
}


// ************************************************************************* //
