/*--------------------------------*- C++ -*----------------------------------*\
| =========                 |                                                 |
| \\      /  F ield         | OpenFOAM: The Open Source CFD Toolbox           |
|  \\    /   O peration     | Version:  2506                                  |
|   \\  /    A nd           | Website:  www.openfoam.com                      |
|    \\/     M anipulation  |                                                 |
\*---------------------------------------------------------------------------*/
FoamFile
{
    version     2.0;
    format      ascii;
    arch        "LSB;label=32;scalar=64";
    class       surfaceScalarField;
    location    "0.06";
    object      phi;
}
// * * * * * * * * * * * * * * * * * * * * * * * * * * * * * * * * * * * * * //

dimensions      [0 3 -1 0 0 0 0];

oriented        oriented;

internalField   nonuniform List<scalar> 
13248
(
-1.57582e-09
-5.08242e-09
3.97074e-08
4.8776e-09
-3.81379e-10
-3.63466e-09
-3.72417e-09
4.56556e-08
-2.49574e-09
3.84051e-10
2.62828e-10
2.84827e-08
4.75562e-09
-3.90978e-09
-2.49037e-09
4.83089e-08
-3.08171e-09
5.51775e-09
2.55132e-09
2.03853e-08
5.15827e-09
-4.51834e-09
-5.70618e-09
5.76161e-08
-2.6681e-09
1.3986e-09
-4.53739e-10
3.13289e-08
1.89831e-09
-1.05942e-09
3.12781e-08
3.46569e-09
4.3622e-09
1.06538e-09
-2.45048e-09
3.73978e-08
-3.61095e-09
-4.75538e-09
-4.08094e-09
4.39886e-08
-4.55548e-09
-5.3117e-09
4.35527e-08
1.43502e-09
-1.09285e-10
2.99897e-08
-2.29797e-09
-3.36678e-09
4.73518e-08
3.41985e-10
-1.90919e-09
3.16179e-08
-1.99521e-10
-1.27758e-09
3.89511e-08
2.31144e-09
2.99111e-08
3.08532e-09
-9.24025e-10
-8.45346e-10
3.77969e-08
-2.32269e-09
-3.83347e-09
2.91102e-09
3.41321e-08
3.51239e-10
3.04023e-09
2.51625e-08
-1.01705e-09
1.12366e-08
2.69124e-08
-4.17556e-10
3.02322e-09
3.03273e-08
2.47681e-09
-5.05136e-10
3.36638e-08
4.41445e-09
2.35742e-09
3.03734e-08
-2.40928e-10
4.43723e-08
-2.99368e-10
4.42992e-09
-2.59526e-09
3.41507e-08
4.59497e-10
-9.23485e-09
-1.37597e-08
6.6821e-08
5.29754e-09
-1.2169e-09
2.79631e-08
-8.40751e-09
-8.26682e-10
6.29101e-08
-1.77076e-09
4.3967e-09
3.03896e-08
4.32252e-09
7.82429e-09
2.19323e-08
2.00837e-09
6.64537e-09
3.32721e-08
1.22624e-09
3.12765e-08
6.56058e-09
-1.10747e-09
-1.3462e-09
3.44149e-08
1.98716e-09
2.50904e-10
1.80083e-10
2.30557e-08
3.71127e-09
1.87856e-09
3.14745e-08
-6.80318e-10
-3.20367e-09
4.37957e-08
1.59303e-09
4.67848e-10
3.87357e-08
1.82761e-09
-1.24409e-09
4.68083e-08
-3.3453e-09
-2.55779e-09
5.27149e-08
5.40236e-09
2.61714e-08
3.6971e-09
1.15437e-09
4.58933e-09
2.67212e-08
1.60551e-09
2.60744e-09
3.85934e-09
3.09162e-08
-2.72695e-09
3.27101e-09
4.20858e-08
3.77645e-09
2.11724e-09
2.55278e-08
8.13103e-10
3.23438e-09
3.83271e-08
1.22901e-09
9.08219e-10
3.52254e-08
4.14366e-09
2.69345e-09
2.98124e-08
1.74348e-09
4.22376e-08
4.63582e-09
-9.06017e-10
-7.30991e-10
3.81544e-08
5.90099e-09
3.33927e-10
-1.02895e-10
3.9702e-08
-3.28836e-09
2.61259e-09
4.22625e-08
5.50853e-09
3.48021e-09
2.52888e-08
6.11466e-10
7.78021e-10
4.31176e-08
5.03486e-09
6.78388e-09
2.79284e-08
1.7737e-09
5.7e-10
4.39416e-08
2.19661e-09
3.41038e-08
5.01003e-09
-9.25006e-10
2.62563e-08
4.44271e-09
6.31114e-09
2.22614e-09
2.59635e-08
7.51202e-09
-6.88651e-10
4.0482e-08
1.68487e-09
3.46472e-09
2.99232e-08
5.05719e-09
5.51301e-09
3.30773e-08
2.15765e-09
-1.65887e-09
5.43216e-08
-3.17373e-09
5.15596e-10
3.58552e-08
1.21047e-11
4.12337e-08
-1.47068e-09
9.88224e-10
-1.88658e-09
-5.75235e-09
4.31158e-08
2.77249e-09
1.45799e-09
-4.40238e-09
-7.77471e-09
5.37824e-08
2.16356e-09
-2.46244e-09
-2.09471e-09
2.74706e-08
1.1668e-09
1.97981e-09
-4.35095e-10
3.93552e-08
4.94647e-09
-2.17559e-09
-2.89976e-09
3.01516e-08
-2.71111e-09
3.56152e-09
1.81236e-09
5.02941e-08
-2.27503e-10
7.44239e-10
-1.35579e-09
3.5084e-08
4.17888e-10
-1.2567e-10
2.90574e-08
1.69132e-09
1.39933e-09
-4.79234e-09
-3.90501e-09
3.44896e-08
5.85316e-09
-7.27177e-10
2.1528e-09
2.9996e-08
-1.26483e-09
8.52835e-10
4.11428e-08
-2.67767e-09
4.07052e-09
2.68969e-08
6.02864e-09
3.43723e-09
3.23085e-08
1.2982e-09
1.19538e-09
3.69653e-08
2.03622e-09
1.27878e-09
3.55785e-08
-4.11218e-10
3.0231e-08
2.00196e-09
5.96878e-10
-3.08972e-09
3.50486e-08
1.33616e-09
-1.70704e-09
-1.44682e-08
5.30569e-08
1.96917e-09
-3.51617e-09
2.58552e-08
-3.90113e-09
-7.73663e-09
4.45898e-08
2.16255e-09
2.67354e-09
2.50273e-08
1.97792e-09
-1.29089e-09
3.63347e-08
5.03188e-10
6.52488e-10
3.24745e-08
6.03345e-09
3.24941e-08
5.93672e-09
-1.23097e-08
-4.7331e-09
4.35185e-08
4.58508e-09
5.2013e-09
9.54197e-09
2.52998e-08
9.50415e-10
4.5403e-09
2.41574e-08
2.62328e-09
2.02654e-09
5.14736e-08
1.20699e-09
2.17593e-10
3.42623e-08
4.48395e-09
-1.4468e-09
1.88112e-08
3.62771e-09
-4.04421e-09
3.88251e-08
4.17899e-09
3.75043e-08
-7.45602e-10
5.22791e-09
2.85851e-09
1.84618e-08
3.13355e-09
-2.96255e-09
-3.09095e-09
4.3879e-08
-4.1657e-09
-3.05848e-09
4.02765e-08
-1.46729e-09
1.38946e-09
4.17349e-08
-5.25648e-10
1.0987e-09
3.69124e-08
2.86103e-09
4.58896e-09
3.7386e-08
7.50246e-09
3.13802e-09
4.08914e-08
-4.54329e-09
4.56255e-08
-3.22933e-09
-1.27699e-09
1.62558e-09
2.72748e-08
1.95629e-09
-1.04354e-09
1.30863e-09
2.62831e-08
2.07664e-09
1.04782e-09
3.48593e-08
2.7805e-09
2.98255e-09
2.32308e-08
2.51012e-09
-2.60908e-09
4.23052e-08
3.46418e-09
1.90495e-09
3.69554e-08
1.7662e-09
1.02558e-09
3.36229e-08
8.66103e-10
3.54657e-08
3.12865e-09
-1.71556e-10
3.04328e-09
3.52358e-08
1.67249e-09
-2.42507e-09
4.63875e-09
3.86255e-08
2.14364e-09
6.63999e-09
3.21016e-08
-3.69415e-09
2.48519e-10
3.38606e-08
6.86408e-09
9.104e-09
2.08463e-08
2.76584e-09
4.1292e-09
2.98024e-08
9.07092e-10
3.47972e-09
4.33462e-08
2.83392e-09
3.05778e-08
2.46525e-09
1.11914e-09
2.69223e-08
-1.05087e-09
2.30893e-09
-1.71715e-09
3.60061e-08
-2.56762e-09
-2.86851e-09
4.79683e-08
3.04959e-10
5.19481e-09
1.8951e-08
3.15753e-09
5.17783e-09
4.13344e-08
8.63846e-10
-8.13133e-11
6.5273e-08
-1.56305e-09
4.30863e-10
3.472e-08
4.10269e-09
3.15935e-08
7.17416e-09
5.73095e-09
-2.56396e-09
-4.51213e-09
5.7947e-08
-9.02963e-09
1.27446e-09
5.03908e-09
-2.43028e-09
4.55639e-08
3.0456e-09
3.47912e-10
-3.32063e-09
3.97895e-08
-4.30706e-09
-1.09675e-09
-2.24057e-10
4.26021e-08
-1.5783e-09
-4.13485e-09
7.5976e-10
3.41131e-08
-1.68321e-09
4.83728e-10
3.01986e-09
4.12231e-08
1.43248e-09
2.43657e-09
1.37043e-09
3.10514e-08
7.09284e-10
2.06775e-09
3.53478e-08
-4.20445e-09
-1.71723e-09
-6.2938e-11
-9.88965e-10
2.91033e-08
1.926e-09
5.39209e-10
-4.90162e-09
3.18652e-08
2.26106e-09
-1.39185e-09
3.74921e-08
5.30149e-10
-2.2551e-09
3.06588e-08
-2.12447e-10
1.78682e-10
3.36321e-08
2.59058e-10
2.03464e-09
3.7479e-08
3.0891e-09
-2.99891e-10
3.44187e-08
-8.8328e-11
3.45308e-08
9.45396e-10
-3.00299e-09
-7.15417e-10
3.75128e-08
2.65302e-10
1.80913e-09
5.56841e-10
4.27863e-08
1.97098e-09
-2.28716e-09
2.65886e-08
1.5357e-09
-7.9561e-09
5.07259e-08
2.1746e-09
5.60367e-11
2.45112e-08
-2.02964e-09
2.05327e-09
4.05202e-08
2.03507e-09
1.50147e-10
2.79597e-08
-3.98774e-10
3.21737e-08
2.66586e-09
9.09128e-11
3.94439e-09
3.83765e-08
3.91151e-10
-6.69895e-10
3.20771e-09
2.34097e-08
-7.33015e-10
2.1096e-09
1.98237e-08
5.78217e-09
2.90661e-09
3.40947e-08
3.26698e-09
-2.02638e-09
3.88606e-08
-3.14644e-09
-6.13706e-09
3.3415e-08
-1.07843e-10
-8.50211e-10
3.67868e-08
3.19197e-09
3.06603e-08
3.14541e-09
-2.14611e-09
-1.07536e-09
2.85969e-08
-2.96922e-09
-1.5547e-09
-9.87638e-10
4.74828e-08
-2.27358e-09
-2.15378e-09
4.52588e-08
-2.47899e-10
1.14691e-09
4.14696e-08
-3.08268e-09
3.92236e-09
3.37979e-08
4.70494e-09
1.21253e-09
2.22487e-08
6.16374e-09
-1.82612e-09
4.04085e-08
-3.88104e-09
6.05973e-08
-1.73492e-09
-1.42587e-09
-1.87623e-09
3.33544e-08
-3.85292e-09
-1.90421e-09
-2.57992e-09
2.83537e-08
9.96416e-10
-1.56609e-10
2.99614e-08
4.03206e-09
2.87661e-09
1.84656e-08
-5.0614e-09
-1.445e-09
5.67659e-08
-9.79707e-10
2.26795e-09
3.18183e-08
6.9096e-10
-6.12379e-10
3.07385e-08
3.63551e-09
2.87523e-08
-1.12156e-10
-2.80235e-09
1.49079e-09
3.64077e-08
-1.73665e-09
-2.62426e-10
3.09951e-10
3.31957e-08
3.87017e-09
-2.4914e-10
2.80615e-08
-3.37096e-10
-1.16126e-09
4.21057e-08
1.04888e-09
9.15565e-10
1.70998e-08
-2.46777e-09
-2.51548e-09
3.81025e-08
4.24309e-09
3.87137e-09
3.21516e-08
4.81352e-09
2.88655e-08
4.77746e-09
-3.959e-09
4.24822e-08
6.1489e-10
-1.0725e-08
-2.08979e-09
4.21697e-08
-7.72281e-09
4.28577e-09
3.34812e-08
7.86242e-09
1.97381e-09
1.7392e-08
2.70969e-09
-3.62528e-09
4.75311e-08
3.17962e-10
4.79502e-09
4.95519e-08
4.78531e-09
3.84167e-09
3.81396e-08
1.40519e-09
3.96861e-08
-2.66668e-10
8.2955e-10
-1.99874e-09
1.86549e-09
5.3984e-08
-2.61942e-10
4.35824e-09
5.41762e-09
1.06373e-09
3.34775e-08
3.60614e-09
3.92133e-09
3.688e-09
4.01573e-08
-2.55955e-09
-4.50777e-09
4.67744e-09
5.0589e-08
-4.23522e-09
-5.44939e-10
2.51871e-09
2.48164e-08
2.81509e-09
1.513e-09
2.38995e-09
3.09452e-08
5.83e-09
2.73826e-09
2.61183e-09
2.76874e-08
-4.73087e-10
2.03463e-09
3.40221e-08
-8.89351e-10
2.91884e-09
-1.15365e-09
-4.72694e-09
4.49721e-08
-8.12275e-09
4.4481e-09
-4.1975e-09
3.15248e-08
2.94582e-09
-5.45934e-09
4.81418e-08
-7.47013e-09
-1.01996e-08
5.59519e-08
-7.13066e-10
3.02555e-09
2.63681e-08
2.44533e-09
3.1763e-09
3.35342e-08
1.95957e-09
2.79889e-09
3.47174e-08
2.14684e-09
3.52778e-08
1.10023e-09
-2.27334e-09
-2.86494e-09
4.13433e-08
-3.41913e-09
2.11012e-09
2.08968e-09
3.21156e-08
-1.10349e-09
2.31247e-11
2.43197e-08
5.63254e-09
1.0515e-09
3.27388e-08
-9.54705e-10
-1.58821e-09
3.57121e-08
1.37324e-09
6.15877e-09
3.52098e-08
6.24948e-10
-4.1542e-10
3.19223e-08
2.27082e-09
3.55246e-08
-2.84991e-09
2.65504e-09
4.53054e-09
3.26521e-08
-4.32616e-09
4.61314e-10
-8.51724e-10
2.85449e-08
-4.10365e-10
4.73674e-09
1.59818e-08
2.55112e-09
3.65067e-09
2.8534e-08
7.09878e-09
4.95208e-09
2.77726e-08
-5.79803e-09
-5.5583e-09
5.80289e-08
2.43031e-09
-1.90395e-09
3.0047e-08
-8.34948e-09
4.83698e-08
-4.65885e-09
-2.32102e-09
1.86214e-09
3.67774e-08
-3.19127e-09
6.95421e-09
1.04181e-09
3.63139e-08
-2.203e-09
3.14405e-10
5.88382e-08
5.3485e-09
3.36775e-09
3.42009e-08
-4.14455e-09
-5.89024e-09
5.41333e-08
-1.07563e-09
-1.17218e-09
1.47937e-08
-3.70023e-09
-1.03888e-09
4.21681e-08
4.18598e-09
3.9461e-08
4.90058e-09
-1.63006e-09
3.26704e-09
3.60379e-08
-2.45835e-09
2.90538e-09
-5.75593e-10
2.54357e-08
8.42663e-10
1.26659e-09
3.10719e-08
-3.83388e-09
-6.24678e-10
2.71346e-08
-1.95943e-09
3.79124e-09
4.52099e-08
-1.26408e-09
2.90135e-09
2.70494e-08
7.04597e-10
6.56574e-10
2.70744e-08
1.28811e-10
3.45293e-08
-1.01525e-09
-4.32934e-09
-6.12582e-09
5.85372e-08
-8.40732e-09
4.49625e-09
-1.75898e-09
2.55535e-08
-6.61574e-10
-4.21541e-09
3.87013e-08
1.67308e-09
-3.83345e-10
3.95298e-08
-1.0303e-09
-3.45157e-09
2.70459e-08
-2.41191e-09
-3.12112e-09
4.55066e-08
7.30919e-10
5.57524e-09
2.40901e-08
-1.82357e-09
3.39199e-08
-2.37109e-09
-5.08002e-09
4.99238e-08
-3.11002e-10
-8.17642e-09
1.97581e-09
2.89397e-08
4.41521e-09
2.49337e-09
2.60876e-08
2.66059e-09
-1.00369e-09
2.46561e-08
-4.15046e-09
-2.10461e-09
4.43841e-08
7.9625e-10
7.13786e-09
3.56167e-08
1.57161e-09
-6.46776e-09
5.9138e-08
-1.81752e-09
3.43617e-08
-4.90678e-09
1.93989e-09
-5.51518e-10
2.46963e-09
4.37598e-08
4.05932e-09
4.24674e-09
2.43266e-10
2.60726e-10
2.81403e-08
4.28177e-09
-2.76714e-10
1.66092e-09
3.60241e-08
2.99221e-09
6.82049e-09
2.49367e-09
4.10843e-08
-8.6227e-11
-2.57819e-09
-1.37255e-09
3.33492e-08
2.23835e-09
1.71262e-10
-2.3661e-09
2.85424e-08
2.01945e-09
8.51698e-10
-1.17112e-09
2.67592e-08
1.41899e-09
4.56133e-10
2.93176e-08
-2.32249e-10
5.33235e-09
-1.08468e-09
-2.24284e-09
5.61811e-08
-5.41183e-09
5.34324e-10
4.51351e-10
2.97152e-08
-1.35448e-09
4.85833e-10
5.12056e-08
1.54856e-09
4.06589e-09
5.14765e-08
-2.32055e-09
3.39131e-10
2.85255e-08
1.76546e-09
4.24054e-09
2.28416e-08
2.47569e-09
1.04497e-09
3.1791e-08
-1.26396e-09
3.17662e-08
7.70737e-09
8.76901e-10
-1.59918e-09
3.82664e-08
1.55634e-09
3.15314e-10
2.94941e-09
3.01791e-08
9.95467e-10
2.20249e-09
2.19229e-08
-1.24014e-09
3.93508e-09
3.51053e-08
1.98265e-12
-1.20211e-09
3.60111e-08
-1.77663e-09
-1.00705e-09
4.22361e-08
1.20587e-09
2.62138e-10
2.97227e-08
3.66852e-09
2.96399e-08
2.15815e-09
4.27522e-09
2.52573e-09
2.2267e-08
1.98495e-09
5.98395e-10
-4.55433e-09
3.97254e-08
-7.39946e-11
-8.08329e-09
2.694e-08
-5.22638e-09
-5.68974e-09
4.33115e-08
1.0431e-09
3.44698e-09
1.68536e-08
-9.20728e-10
1.10508e-08
4.79348e-08
3.95394e-09
3.88332e-09
2.15512e-08
-2.8864e-09
6.0855e-08
-1.97625e-09
-2.08898e-09
1.76292e-09
4.08998e-08
-1.27056e-09
-7.26863e-10
1.73906e-09
2.86584e-08
1.39784e-09
3.05625e-09
4.55738e-08
2.52708e-09
2.86077e-10
2.70953e-08
8.72079e-09
1.41268e-09
4.99745e-08
-5.60787e-09
-1.54837e-09
4.17215e-08
-3.34962e-09
5.90978e-09
3.78833e-08
6.83797e-09
2.19945e-08
4.39245e-09
-1.69901e-09
5.53202e-09
3.60204e-08
-2.0526e-09
-3.94087e-10
1.46078e-09
2.4409e-08
-2.30597e-10
3.987e-09
2.99777e-08
1.05409e-09
1.19499e-09
2.49409e-08
7.93276e-10
3.64628e-09
4.32371e-08
2.37346e-09
7.40334e-11
2.38468e-08
1.10925e-09
-2.03296e-10
3.44517e-08
-9.49922e-10
4.16624e-08
1.76402e-09
-4.61319e-09
-1.00628e-08
9.06557e-08
-1.19105e-08
-1.07828e-09
-1.4245e-09
2.49038e-08
-2.7372e-09
-2.35877e-09
4.6706e-08
3.00219e-09
2.40698e-09
3.25784e-08
-2.20071e-09
5.49042e-09
3.04047e-08
2.51942e-09
2.45353e-09
3.84069e-08
8.92621e-10
-1.93436e-09
2.74479e-08
-5.56374e-09
4.28621e-08
-3.43579e-09
7.44361e-10
3.50112e-08
5.94596e-09
-1.84048e-09
4.82078e-10
2.79487e-08
-1.71254e-10
2.34757e-09
2.21818e-08
-3.18447e-10
6.20163e-09
2.53138e-08
-2.10479e-09
-4.48936e-09
6.52822e-08
-4.71669e-09
-2.19696e-09
3.64668e-08
-6.88981e-10
-4.78588e-09
5.60719e-08
3.72061e-09
2.38778e-08
2.05226e-09
-1.91803e-09
1.66005e-09
-6.90288e-09
5.25147e-08
-1.76625e-09
-1.74592e-09
-2.79358e-09
-1.21262e-09
3.23044e-08
1.50217e-09
-1.48865e-09
-1.09679e-08
4.43189e-08
1.36828e-09
-6.30819e-10
-5.73227e-09
4.35432e-08
2.41554e-09
-4.41386e-10
-9.7719e-09
4.1602e-08
1.32968e-09
-8.0038e-10
-5.17291e-09
3.53763e-08
-1.30209e-09
1.85143e-09
-4.86922e-09
2.2575e-08
6.40151e-09
-2.75235e-09
4.12455e-08
7.57247e-10
-8.08129e-09
6.1119e-09
4.56522e-09
3.85197e-08
8.14197e-11
-1.12609e-08
-1.28177e-09
4.71572e-08
-1.34202e-09
5.95585e-09
2.43629e-08
1.62246e-09
3.3513e-09
3.94283e-08
3.43748e-10
-5.20801e-10
2.05531e-08
3.70582e-10
-9.16732e-10
1.85586e-08
4.99198e-09
-2.86307e-09
2.51635e-08
-7.04311e-10
3.49861e-08
-2.76065e-10
1.09527e-10
3.37835e-09
4.1692e-08
-2.34824e-09
-2.18992e-09
3.64879e-09
2.7548e-08
-4.78832e-09
1.95818e-09
2.8519e-08
-2.52327e-09
3.01867e-09
3.31728e-08
1.85165e-10
1.47291e-09
3.13089e-08
-2.36358e-09
-1.37665e-09
4.52447e-08
3.98172e-09
2.70106e-09
1.78132e-08
2.26631e-09
2.59372e-08
4.71374e-09
-8.09697e-10
-4.30691e-09
3.79726e-08
-7.2107e-09
-7.08516e-09
-3.41492e-09
5.30645e-08
-8.20957e-09
1.95527e-10
2.9827e-08
-2.89758e-09
4.50716e-09
3.65113e-08
-1.85926e-09
3.28807e-09
1.39999e-08
2.4361e-09
9.57008e-09
3.26926e-08
5.52447e-09
3.87846e-09
1.72854e-08
5.99417e-09
6.18527e-08
7.98922e-10
-3.37838e-10
-6.42188e-10
4.14895e-08
-3.91651e-09
-6.78911e-10
1.48701e-09
2.40975e-08
-1.7493e-09
-4.47342e-10
4.72871e-08
-7.95495e-10
8.52159e-10
2.97963e-08
-3.56929e-09
-3.40562e-10
5.6377e-08
7.0954e-09
6.22471e-09
3.44024e-08
3.97531e-09
3.17227e-09
4.17097e-08
-5.09393e-10
3.47284e-08
-2.25511e-09
2.3301e-09
4.49586e-09
2.85043e-08
4.79023e-11
-3.06398e-09
1.3811e-09
2.9909e-08
-3.52074e-10
-2.54404e-09
2.93625e-08
-2.82386e-09
1.45552e-09
2.68093e-08
1.6816e-09
5.76562e-09
3.26255e-08
4.74998e-09
3.40881e-09
2.35943e-08
4.65638e-09
1.95214e-09
3.57653e-08
-2.60071e-09
5.03024e-08
-1.89213e-09
3.59747e-09
-5.88836e-09
9.67363e-08
7.06078e-10
-9.58724e-09
-2.7497e-09
4.22194e-08
4.65094e-09
8.70946e-10
2.90528e-08
4.21224e-11
3.02587e-09
3.56168e-08
5.31278e-10
-2.37032e-09
3.80514e-08
1.94921e-09
1.16275e-09
3.9235e-08
4.39653e-11
-7.10394e-10
3.20158e-08
2.75526e-10
4.16584e-08
-1.62869e-09
2.03875e-09
3.79079e-08
-1.20034e-08
1.17953e-09
-3.51427e-09
3.17122e-08
-9.60206e-10
2.52566e-09
2.01823e-08
-3.16946e-09
-1.20715e-08
4.46051e-08
-1.66832e-09
7.11904e-09
3.88311e-08
4.89033e-09
4.10742e-10
4.37404e-08
5.97502e-10
3.60113e-10
5.89855e-08
-3.57343e-09
2.5943e-08
-1.61735e-09
1.87929e-10
3.76211e-09
9.89407e-11
4.7812e-08
-1.58369e-09
2.42409e-09
-4.1491e-10
-1.94022e-09
3.8992e-08
-5.69495e-10
-4.01649e-10
2.53384e-09
4.15412e-08
2.3059e-10
-4.08429e-10
-1.85351e-09
4.39219e-08
1.48162e-09
-3.22698e-10
2.00367e-09
4.08989e-08
-1.38668e-09
3.09876e-10
1.01167e-09
3.27309e-08
1.00122e-09
-1.99992e-09
-3.14575e-10
2.76992e-08
-2.49874e-09
9.74538e-11
3.91772e-08
3.71619e-10
-3.9906e-10
-9.14907e-10
-1.43318e-10
3.82115e-08
1.46573e-09
1.19982e-09
1.53785e-09
4.15645e-08
2.73828e-09
1.81747e-10
2.51761e-08
6.4095e-09
2.07035e-10
3.36963e-08
-5.20492e-11
3.17742e-10
2.87003e-08
-4.10737e-10
-1.36088e-09
2.129e-08
-2.69558e-10
3.73922e-10
2.43343e-08
3.6813e-10
3.52997e-08
-8.53203e-10
-4.80377e-11
4.53555e-10
3.9363e-08
1.77943e-09
-9.59866e-10
-1.92384e-09
3.19209e-08
-1.2056e-09
1.24293e-10
2.88222e-08
-5.37866e-10
7.34491e-11
3.26383e-08
-1.1236e-09
1.18615e-09
3.10264e-08
1.47241e-09
1.0249e-09
4.02633e-08
-9.45483e-10
-2.10393e-11
2.06266e-08
-2.51285e-09
2.97163e-08
-1.84241e-09
-2.4578e-09
-8.33211e-10
4.00833e-08
1.63352e-09
-2.50062e-10
2.49742e-09
4.64345e-08
-2.64992e-09
-1.28662e-09
3.36371e-08
-6.00845e-10
2.80423e-10
3.42561e-08
-1.27497e-09
-2.99427e-09
1.88542e-08
6.33804e-10
1.02924e-10
3.17056e-08
-3.9862e-09
-1.65547e-09
2.35411e-08
3.88976e-09
4.8274e-08
3.18919e-09
2.71162e-10
1.14517e-10
3.81624e-08
2.10799e-09
-2.58047e-09
-1.14639e-10
2.95615e-08
3.03428e-10
1.46644e-09
4.16506e-08
-2.87306e-09
-2.53713e-10
3.35064e-08
9.51218e-10
1.758e-09
4.78004e-08
-3.01034e-10
6.86685e-10
3.50711e-08
1.67386e-09
1.3341e-09
3.67446e-08
-1.23444e-09
4.09099e-08
6.1743e-10
1.35004e-10
-6.47941e-09
3.4566e-08
3.9764e-10
1.94326e-10
-1.56802e-09
3.1303e-08
8.85718e-10
-1.89534e-12
3.01404e-08
-4.32989e-11
-7.29282e-10
2.82147e-08
3.99466e-10
-8.52198e-12
3.39485e-08
-1.65931e-09
-5.27764e-10
2.68672e-08
-1.87332e-09
1.79825e-09
3.55154e-08
-2.12627e-10
4.82201e-08
-8.12925e-10
4.48469e-09
4.01825e-09
7.52543e-08
6.49925e-09
5.85716e-10
8.82785e-10
4.36678e-08
-1.02192e-09
2.16724e-10
3.04425e-08
-9.55706e-10
-2.77991e-10
3.50998e-08
-5.90141e-10
1.89881e-11
3.7658e-08
3.8587e-10
3.05628e-10
3.74248e-08
-1.09438e-09
-1.65598e-09
3.69495e-08
4.24748e-10
4.02536e-08
-3.26804e-10
1.39229e-09
4.05579e-08
-1.07558e-09
1.05055e-09
1.2381e-09
3.5239e-08
-2.48996e-09
-3.33475e-09
2.68667e-08
-1.8946e-09
-1.46577e-09
4.03609e-08
2.09743e-09
-1.59059e-09
4.01228e-08
-1.14812e-09
-2.2678e-09
4.36084e-08
1.1145e-09
1.51788e-09
5.23987e-08
1.14581e-09
3.33678e-08
-1.1737e-09
-4.30762e-09
-2.29404e-10
1.07419e-10
4.30851e-08
1.67567e-09
3.17837e-09
7.82506e-10
5.57673e-10
3.85892e-08
-1.16618e-09
1.28384e-09
1.62227e-09
3.93332e-08
8.4284e-11
8.1872e-10
6.00927e-10
4.34291e-08
3.5385e-10
9.46703e-10
-4.10946e-10
4.13801e-08
-2.00071e-10
1.03278e-09
-1.83384e-09
3.28671e-08
1.61079e-09
1.43251e-09
-2.35659e-09
2.9619e-08
3.70299e-11
-2.76056e-09
3.78613e-08
2.28683e-09
3.22092e-09
-3.00497e-09
-1.5983e-09
3.85962e-08
4.32636e-09
2.23147e-09
-3.053e-10
3.71924e-08
2.00977e-09
-1.95217e-09
2.89711e-08
-5.94087e-10
-3.2029e-09
4.0101e-08
-2.95052e-10
-1.81253e-09
2.9801e-08
-4.32463e-10
-4.50379e-09
2.40955e-08
6.62532e-10
-3.70915e-09
2.45917e-08
-3.56393e-09
3.64097e-08
3.55627e-10
-1.74858e-09
-2.02815e-09
3.72521e-08
4.28937e-09
-2.00056e-10
-2.69293e-09
3.27593e-08
-3.31988e-10
-2.37701e-09
2.93788e-08
-1.43023e-09
-2.71214e-09
3.32454e-08
-2.24241e-09
-1.35642e-09
3.13799e-08
-5.22309e-10
-2.0421e-09
3.60801e-08
7.0331e-10
-2.07815e-09
1.77696e-08
-4.99088e-09
3.26813e-08
-8.34281e-10
-4.12447e-09
-7.71123e-10
3.67754e-08
6.17328e-09
4.0753e-10
9.40248e-10
3.8268e-08
-1.26634e-10
-2.14017e-09
3.3934e-08
-7.75498e-10
-1.18434e-09
3.33787e-08
-3.13875e-09
-3.53298e-09
2.33917e-08
-1.12336e-09
1.4272e-11
2.76355e-08
4.41e-11
-7.28227e-10
2.10253e-08
-1.57712e-09
4.22618e-08
2.64539e-09
-2.17369e-09
-1.57169e-09
3.59079e-08
5.22854e-09
-2.68021e-09
-7.04412e-10
3.17098e-08
-9.88838e-10
1.74919e-10
3.76412e-08
-2.81814e-09
-3.08019e-10
3.44572e-08
-6.60587e-10
-1.92183e-10
4.23031e-08
-1.68325e-09
3.97276e-11
3.60684e-08
-1.12351e-09
-5.80444e-10
3.60372e-08
-1.51019e-09
3.90518e-08
6.6671e-10
-2.05064e-09
-5.24661e-09
3.64628e-08
3.82798e-09
-7.51341e-10
-1.88537e-09
3.11836e-08
-9.8853e-10
-4.02062e-10
3.09544e-08
-1.92708e-09
-1.50625e-09
3.03511e-08
-1.53508e-09
-8.39527e-10
3.42048e-08
-3.31694e-09
-1.22085e-09
2.99097e-08
-3.56618e-09
-3.19447e-10
3.55044e-08
2.06713e-09
4.0598e-08
4.78548e-10
8.3426e-10
5.62539e-09
5.46875e-08
8.85933e-09
1.44166e-09
1.6328e-09
3.95417e-08
-1.04395e-09
1.14691e-09
3.13805e-08
-1.66815e-09
-1.78525e-10
3.43968e-08
-1.69248e-09
-2.93587e-10
3.71371e-08
-1.71851e-09
-4.41872e-11
3.62738e-08
-1.3606e-09
-2.53962e-10
3.65255e-08
3.61408e-09
3.72919e-08
5.47509e-11
-1.86859e-09
4.21374e-08
2.17355e-09
3.73998e-09
-1.65471e-09
3.65411e-08
1.1619e-10
-4.01941e-09
2.93378e-08
1.04169e-09
-2.0005e-09
3.52259e-08
2.93832e-09
-2.28981e-09
3.95113e-08
6.08291e-10
-2.34869e-09
4.14111e-08
2.21038e-09
1.66215e-09
4.4589e-08
3.54384e-09
3.5234e-08
3.20818e-09
2.02548e-10
3.11488e-09
3.5265e-09
4.00938e-08
-2.99521e-09
-6.52096e-10
2.08455e-09
3.25993e-09
3.85277e-08
-2.16984e-09
7.51512e-10
4.21117e-09
3.77737e-08
-1.31978e-09
2.24226e-09
2.53594e-09
3.89811e-08
4.18436e-10
3.57316e-09
4.87834e-09
3.81008e-08
-2.93095e-09
8.6349e-10
3.39767e-09
3.47703e-08
-2.59206e-09
-2.90845e-09
4.17188e-09
3.3815e-08
-4.59708e-09
1.59063e-09
3.65999e-08
-8.81153e-10
-2.35831e-09
1.412e-09
1.94344e-09
3.76075e-08
1.15878e-09
2.65262e-09
2.49663e-09
3.67134e-08
5.30422e-10
1.48008e-09
3.38236e-08
3.67949e-09
2.77113e-09
3.67147e-08
3.01345e-09
1.894e-09
3.34507e-08
-3.13033e-10
-4.51646e-10
3.12708e-08
-5.33118e-09
2.49529e-09
3.12862e-08
8.2435e-10
3.61535e-08
-4.30794e-09
1.79693e-09
4.88891e-10
3.66967e-08
2.12634e-10
1.89023e-09
1.78632e-10
3.49829e-08
4.3859e-10
-9.0539e-10
3.3215e-08
1.38389e-09
8.30003e-10
3.42416e-08
1.17127e-09
2.24896e-10
3.32603e-08
2.63798e-09
-8.7107e-11
3.4248e-08
-5.0493e-09
-1.60932e-09
2.95616e-08
-2.15224e-09
3.51387e-08
-4.52986e-09
4.9298e-10
-8.07242e-10
3.66307e-08
9.45872e-10
1.94045e-09
5.42884e-10
3.64557e-08
1.8028e-09
-1.50772e-09
3.46741e-08
3.09208e-09
-1.03251e-09
3.39524e-08
7.14412e-10
-5.02001e-09
3.10147e-08
-7.00906e-10
-3.27145e-09
3.2236e-08
-6.04688e-09
-5.89959e-09
3.06615e-08
-1.773e-09
3.77903e-08
-1.9536e-09
1.27503e-09
-2.25589e-09
3.65724e-08
-4.91427e-10
-9.25147e-11
-1.1578e-09
3.47759e-08
1.39042e-11
3.64246e-11
3.59887e-08
-9.54637e-10
-5.96699e-10
3.49906e-08
7.61298e-10
-1.54351e-09
3.71116e-08
-2.48055e-10
-1.70449e-09
3.55124e-08
-2.41151e-09
-3.36693e-09
3.56709e-08
-1.97593e-09
3.77649e-08
-9.19769e-10
2.40647e-09
-5.07569e-09
3.74477e-08
-5.72372e-10
1.31162e-09
-3.73718e-09
3.48572e-08
7.61812e-14
-1.6302e-09
3.39317e-08
-1.24674e-09
-2.63685e-09
3.36361e-08
-6.01374e-10
-3.0236e-09
3.50424e-08
-2.44725e-09
-4.05749e-09
3.41097e-08
-2.78961e-09
-3.71601e-09
3.61962e-08
-1.70973e-09
3.83161e-08
-7.72644e-10
3.84948e-09
2.12459e-10
4.31222e-08
2.42762e-09
3.24977e-09
-1.76493e-09
3.81683e-08
-1.11163e-10
-1.5778e-09
3.46898e-08
-1.69911e-09
-1.91741e-09
3.52648e-08
-1.08056e-09
-3.08539e-09
3.65822e-08
-1.50276e-09
-3.94375e-09
3.6583e-08
-1.20463e-09
-4.80147e-09
3.73139e-08
-2.72396e-09
3.77059e-08
-6.03653e-10
1.91522e-09
3.95105e-08
6.60613e-10
2.64048e-10
2.03892e-09
3.73161e-08
-2.66366e-09
-1.64804e-09
3.43584e-08
-2.91071e-09
-3.15728e-09
3.58394e-08
-1.02198e-09
-2.2343e-09
3.80132e-08
-2.50801e-09
-2.00341e-09
3.89863e-08
-1.74996e-09
1.78577e-10
4.04004e-08
-2.79577e-09
3.78943e-08
-5.38593e-09
1.80713e-10
1.17156e-09
1.85885e-09
3.85762e-08
-8.7258e-10
-6.41628e-10
1.21172e-09
2.1593e-09
3.78942e-08
-1.56683e-09
7.25009e-10
2.51048e-09
3.72997e-08
-1.55057e-09
1.22696e-09
2.11083e-09
3.74645e-08
-1.09764e-09
1.72786e-09
2.78694e-09
3.70777e-08
-2.26555e-09
5.59666e-10
2.00401e-09
3.59269e-08
-1.99252e-09
-8.96922e-10
1.88245e-09
3.56706e-08
-2.28104e-09
2.32366e-10
3.66192e-08
-1.03135e-10
-1.0445e-09
7.43797e-10
1.05719e-09
3.7228e-08
4.36408e-10
1.39211e-09
1.47116e-09
3.67521e-08
6.47202e-10
1.26888e-09
3.58095e-08
1.57856e-09
1.64068e-09
3.62521e-08
1.25406e-09
1.23542e-09
3.53261e-08
-2.30945e-10
1.89742e-10
3.45699e-08
-2.31027e-09
6.84344e-10
3.45637e-08
-2.72635e-10
3.63574e-08
-2.00833e-09
1.11066e-09
2.06155e-10
3.67414e-08
-3.05264e-10
1.29306e-09
2.20204e-10
3.60507e-08
6.14953e-10
-1.00394e-10
3.5262e-08
7.46324e-10
3.8928e-10
3.53605e-08
3.72086e-10
-4.00088e-11
3.49106e-08
1.17658e-10
-3.69664e-10
3.50617e-08
-2.61352e-09
-1.14557e-09
3.41232e-08
-1.38591e-09
3.61465e-08
-2.50696e-09
8.27933e-10
-4.61684e-10
3.67266e-08
-2.57279e-10
1.29631e-09
-9.02715e-11
3.62968e-08
1.04916e-09
-7.38448e-10
3.55583e-08
1.08524e-09
-8.20301e-10
3.51222e-08
-2.01018e-11
-2.26721e-09
3.43519e-08
-8.40263e-10
-1.94509e-09
3.46323e-08
-3.02565e-09
-2.83043e-09
3.45338e-08
-1.57544e-09
3.67752e-08
-1.81967e-09
1.08968e-09
-1.10553e-09
3.68555e-08
-7.29426e-10
5.12888e-10
-8.10756e-10
3.60729e-08
2.63139e-10
-4.7795e-10
3.59783e-08
-3.97298e-10
-8.28507e-10
3.56636e-08
-2.37433e-10
-1.40266e-09
3.60835e-08
-8.9887e-10
-1.63915e-09
3.58688e-08
-1.91651e-09
-2.26331e-09
3.61215e-08
-1.59873e-09
3.72267e-08
-1.35349e-09
1.3476e-09
-1.80415e-09
3.73614e-08
-5.62622e-10
9.21354e-10
-1.7621e-09
3.62344e-08
6.36467e-11
-1.28972e-09
3.56009e-08
-7.84622e-10
-1.74938e-09
3.54065e-08
-8.40613e-10
-2.18544e-09
3.58809e-08
-1.66991e-09
-2.57281e-09
3.58738e-08
-1.88599e-09
-2.48856e-09
3.66383e-08
-1.55033e-09
3.75484e-08
-1.16588e-09
1.44163e-09
2.86972e-10
3.89827e-08
6.06838e-10
1.36437e-09
-9.05941e-10
3.73893e-08
-1.48906e-10
-1.20263e-09
3.61161e-08
-1.14812e-09
-1.59099e-09
3.61062e-08
-1.13331e-09
-2.29139e-09
3.66739e-08
-1.37172e-09
-2.62634e-09
3.68756e-08
-1.15385e-09
-2.77557e-09
3.73839e-08
-1.91775e-09
3.77181e-08
-7.97404e-10
2.84925e-10
3.81222e-08
6.04481e-10
7.86016e-10
5.33997e-10
3.7301e-08
-1.13982e-09
-9.31327e-10
3.62722e-08
-1.65045e-09
-1.90969e-09
3.6546e-08
-1.31895e-09
-1.59662e-09
3.74905e-08
-2.08032e-09
-1.3761e-09
3.79757e-08
-1.83549e-09
-3.01075e-10
3.86112e-08
-2.06028e-09
3.83221e-08
-2.55568e-09
-8.99543e-11
1.02334e-09
1.48206e-09
3.80003e-08
-8.66436e-10
-1.06293e-09
1.01713e-09
1.45878e-09
3.76551e-08
-1.2139e-09
7.24018e-10
1.44778e-09
3.72901e-08
-1.14563e-09
6.74698e-10
1.32326e-09
3.71959e-08
-1.00641e-09
6.17029e-10
1.43271e-09
3.70031e-08
-1.30091e-09
-1.87048e-11
1.12933e-09
3.66134e-08
-1.18047e-09
-6.72918e-10
1.0362e-09
3.65822e-08
-1.2938e-09
4.47665e-10
3.69327e-08
-5.03327e-10
-9.3064e-10
7.35417e-10
9.26131e-10
3.72941e-08
-2.46103e-10
9.25175e-10
9.92043e-10
3.70285e-08
6.30991e-10
9.19085e-10
3.6632e-08
6.89024e-10
9.29317e-10
3.65876e-08
4.0597e-10
7.58978e-10
3.62821e-08
-2.79897e-10
3.39469e-10
3.60451e-08
-1.11416e-09
3.33413e-10
3.61005e-08
-1.2886e-11
3.67698e-08
-1.06576e-09
8.11231e-10
3.2642e-10
3.69994e-08
-4.69943e-10
8.69643e-10
3.12199e-10
3.66716e-08
5.60322e-10
1.97985e-10
3.62924e-08
4.16356e-10
2.39155e-10
3.61945e-08
8.43499e-11
-6.17297e-12
3.60074e-08
-3.14172e-10
-2.17923e-10
3.60174e-08
-1.28716e-09
-5.22132e-10
3.59518e-08
-6.22018e-10
3.67163e-08
-1.2472e-09
7.37717e-10
-1.96295e-10
3.69549e-08
-4.44359e-10
8.16844e-10
-1.29574e-10
3.66588e-08
5.99826e-10
-3.28094e-10
3.63013e-08
3.63475e-10
-4.74685e-10
3.60696e-08
-1.93918e-10
-9.5416e-10
3.58602e-08
-6.73458e-10
-1.05352e-09
3.59488e-08
-1.43107e-09
-1.32929e-09
3.60999e-08
-1.06843e-09
3.69098e-08
-1.11737e-09
7.77292e-10
-5.86392e-10
3.70679e-08
-5.99974e-10
5.76044e-10
-5.42458e-10
3.66865e-08
2.86826e-10
-5.22201e-10
3.64612e-08
-1.29003e-10
-7.05007e-10
3.63128e-08
-3.71049e-10
-1.02652e-09
3.63957e-08
-7.78757e-10
-1.22245e-09
3.64453e-08
-1.1988e-09
-1.46196e-09
3.66746e-08
-1.28119e-09
3.72141e-08
-9.72942e-10
8.01739e-10
-8.73556e-10
3.73147e-08
-4.67959e-10
6.15189e-10
-9.48686e-10
3.6827e-08
1.32862e-10
-9.1506e-10
3.64757e-08
-3.99356e-10
-1.12226e-09
3.63574e-08
-6.66519e-10
-1.40792e-09
3.65289e-08
-1.0532e-09
-1.61684e-09
3.66554e-08
-1.20685e-09
-1.69276e-09
3.70234e-08
-1.47742e-09
3.74735e-08
-9.35111e-10
7.40335e-10
-3.33543e-10
3.78248e-08
-1.22412e-10
6.3648e-10
-7.28884e-10
3.72733e-08
-3.19758e-11
-9.12057e-10
3.67817e-08
-6.43429e-10
-1.11938e-09
3.67162e-08
-8.58776e-10
-1.48172e-09
3.69629e-08
-1.07043e-09
-1.68313e-09
3.7154e-08
-1.04427e-09
-1.81501e-09
3.74805e-08
-1.71702e-09
3.77574e-08
-8.43191e-10
3.57837e-10
3.76498e-08
-2.00723e-10
-1.81623e-11
3.1435e-10
3.735e-08
-7.34228e-10
-3.55226e-10
3.69703e-08
-9.40132e-10
-1.00682e-09
3.70108e-08
-9.31593e-10
-1.10941e-09
3.7419e-08
-1.30703e-09
-1.16727e-09
3.77057e-08
-1.35475e-09
-9.04498e-10
3.80687e-08
-1.53479e-09
3.82045e-08
-1.84198e-09
-6.61399e-10
5.3552e-10
8.37706e-10
3.77161e-08
-4.0341e-10
-6.85392e-10
5.74238e-10
8.46257e-10
3.75358e-08
-7.66109e-10
4.60528e-10
8.30361e-10
3.73389e-08
-7.65807e-10
3.72775e-10
7.7948e-10
3.72335e-08
-7.29842e-10
2.706e-10
7.58272e-10
3.71305e-08
-7.83921e-10
-2.52262e-11
5.95566e-10
3.69918e-08
-6.78487e-10
-2.85632e-10
4.78023e-10
3.70021e-08
-6.37852e-10
1.74695e-10
3.71341e-08
-2.41493e-10
-4.20367e-10
4.50082e-10
5.52272e-10
3.73573e-08
-2.28208e-10
5.25233e-10
5.86045e-10
3.72132e-08
4.06975e-10
5.58414e-10
3.70219e-08
3.21695e-10
5.18662e-10
3.69338e-08
1.32285e-10
4.15367e-10
3.68136e-08
-1.8988e-10
2.24933e-10
3.67379e-08
-5.14325e-10
1.09707e-10
3.67932e-08
-9.18808e-11
3.70451e-08
-5.22791e-10
4.95095e-10
2.27332e-10
3.71917e-08
-3.62804e-10
5.05125e-10
2.24632e-10
3.70227e-08
3.50625e-10
1.70262e-10
3.6835e-08
1.94779e-10
1.2684e-10
3.6743e-08
-3.75601e-11
-1.11282e-11
3.6665e-08
-3.07986e-10
-1.58219e-10
3.66712e-08
-6.6519e-10
-3.1186e-10
3.6731e-08
-4.07336e-10
3.70364e-08
-6.6937e-10
4.76173e-10
-7.41597e-11
3.71478e-08