/*--------------------------------*- C++ -*----------------------------------*\
| =========                 |                                                 |
| \\      /  F ield         | OpenFOAM: The Open Source CFD Toolbox           |
|  \\    /   O peration     | Version:  2506                                  |
|   \\  /    A nd           | Website:  www.openfoam.com                      |
|    \\/     M anipulation  |                                                 |
\*---------------------------------------------------------------------------*/
FoamFile
{
    version     2.0;
    format      ascii;
    arch        "LSB;label=32;scalar=64";
    class       volVectorField;
    location    "0.06";
    object      Us;
}
// * * * * * * * * * * * * * * * * * * * * * * * * * * * * * * * * * * * * * //

dimensions      [0 1 -1 0 0 0 0];

internalField   nonuniform List<vector> 
4608
(
(-0.000494756 -0.000470994 -0.000189988)
(0.000207209 -0.000993409 -0.000245941)
(0.00015456 -0.000261725 -0.000196878)
(-4.61639e-05 0.000267731 0.00012488)
(-0.000236239 -1.33362e-05 -0.000195369)
(-7.84781e-05 4.59061e-05 0.000396168)
(4.20382e-05 -6.00521e-05 0.000208023)
(0.000967222 -0.000317416 -0.00049955)
(-1.38134e-05 -0.00095632 -0.000209486)
(-0.000165317 -0.0012021 -9.77896e-05)
(-0.00114513 -0.000429713 3.1511e-05)
(-0.000141076 0.000264001 9.45063e-05)
(-0.00016806 2.78113e-05 -0.000137304)
(-0.000129556 -0.000572727 -1.1392e-05)
(-0.00019808 -0.000575832 -0.0001746)
(0.000327647 -9.44238e-05 -0.000526067)
(-0.000739859 -0.000340434 -0.000670139)
(-0.000556974 -0.000598004 4.34466e-05)
(-0.000236266 -0.000126749 -0.000133816)
(-0.000300628 0.000402486 -0.000414309)
(-0.000199779 0.000558096 -0.000268021)
(0.000525417 0.000237422 -4.37939e-05)
(0.00112534 0.000406218 -0.000736706)
(0.000343056 0.000266599 -0.00034504)
(-0.000611097 3.7066e-05 -0.000274922)
(-0.00106472 -0.000342596 -0.00059103)
(-0.000189453 9.55389e-05 5.20419e-05)
(-0.000108314 0.000243341 -0.000339664)
(0.000154902 0.000903142 0.000107917)
(0.000881867 0.000331198 -0.000595626)
(0.00136059 0.00105491 -0.00097537)
(0.00120578 0.000161316 -0.000270864)
(-0.000519631 -0.000374959 -0.000540164)
(5.90267e-05 -0.000336847 9.14133e-05)
(2.02523e-05 5.48179e-05 -1.96642e-05)
(1.50629e-05 0.000326008 -0.00036997)
(0.000451168 0.000720572 -0.000349758)
(0.000432057 0.000112732 -3.97992e-05)
(0.000498054 0.000463518 8.93343e-05)
(0.00080418 0.00112672 -0.000240473)
(0.000471306 0.000134908 -0.000924112)
(0.000383228 0.00038045 -0.000707277)
(-0.000181532 0.000220288 1.95482e-05)
(-0.000441928 0.000932399 -0.000251861)
(0.0005292 0.000323318 1.48076e-05)
(0.000762427 0.000116487 -0.000101194)
(0.000599175 -0.000210095 -3.78835e-05)
(0.000816109 0.000539228 0.000342096)
(-0.000190235 0.00128299 -9.05682e-05)
(-0.000774827 0.00101684 -0.000384986)
(-0.00048106 0.000932187 -3.70816e-05)
(-0.000374223 0.00115049 -0.000900879)
(0.00113473 0.000573838 -0.00082346)
(0.0014983 0.000683541 4.81626e-05)
(0.000755982 -0.000394052 0.000162529)
(0.0009376 0.000164181 -0.000102565)
(-0.00135513 0.000779257 -0.000437627)
(-0.000416075 0.000604776 -0.000466443)
(0.000428966 0.00135293 -0.000497585)
(0.000944837 0.00113952 -0.000851153)
(0.000685166 0.000767257 -0.000544316)
(0.000346682 0.000167559 -0.000310051)
(0.00019515 -0.00039776 -0.000213448)
(0.000406592 0.000449526 -1.73081e-05)
(-0.000247362 -0.00205281 0.00383997)
(-0.000390208 -0.00151915 0.00307823)
(-0.000892724 -0.000480772 0.00248873)
(6.27467e-05 -0.000974874 0.003532)
(-0.0002778 0.000211986 0.000941053)
(0.000239087 7.60704e-05 0.00281157)
(0.000353385 -0.000213148 0.00289975)
(0.000332868 -0.000255297 0.0013334)
(-0.00122001 -0.00209947 0.00319174)
(-0.00122087 -0.000743965 0.00426742)
(-0.000286141 -0.000679018 0.00288119)
(-1.05167e-05 0.000723103 0.00258778)
(0.000247161 0.000513611 0.00365752)
(0.000526598 0.000136965 0.00271624)
(0.000424349 -0.000325385 0.00275359)
(0.000729554 7.86097e-05 0.00329263)
(-0.000884101 -0.0014805 0.00424096)
(-0.000728896 -0.001181 0.00450391)
(3.26826e-05 -0.000583476 0.00231081)
(0.000288062 -0.000255865 0.00254625)
(-0.000841218 0.00139684 0.00310148)
(0.000563155 -0.000124347 0.0025892)
(0.001322 -0.0002372 0.00222708)
(0.000899332 0.000351751 0.00363731)
(-0.00179899 -0.00123608 0.00361682)
(-0.00109548 -0.000656006 0.00307949)
(0.000748873 -0.000484372 0.00224697)
(0.000379023 -0.00115091 0.00216666)
(0.000382981 0.000557073 0.00368572)
(0.000844512 -7.14965e-05 0.0026202)
(0.000598696 4.73059e-05 0.00318944)
(0.000271514 0.00150696 0.00412265)
(5.021e-05 -0.000445964 0.00358064)
(0.000322633 0.000259383 0.00261219)
(0.000109358 0.000212497 0.00298372)
(-0.000770648 0.000281651 0.00311122)
(-0.000219768 -5.20695e-05 0.0025927)
(0.00091088 -5.46128e-07 0.00396635)
(0.00112523 0.000149824 0.00231259)
(0.000213866 -6.13499e-05 0.00263142)
(-0.000942768 0.00128926 0.00344811)
(-0.000400986 -0.00042818 0.00414765)
(0.000215539 8.7535e-05 0.00429438)
(0.00148293 0.000781493 0.00286667)
(0.00099468 -0.00070674 0.00283633)
(0.00112607 -0.000162512 0.00426801)
(0.00125044 5.40186e-05 0.00308894)
(0.000707562 0.000361285 0.00449879)
(1.06614e-05 0.000914313 0.00177379)
(-0.000703254 0.000931445 0.00278039)
(2.56794e-05 0.000427429 0.00253923)
(7.26008e-05 0.000751404 0.00330324)
(0.000932748 0.000936158 0.00322511)
(0.00179162 0.00022538 0.00218966)
(0.00113913 0.000272136 0.00416623)
(0.0011453 0.00130329 0.00292105)
(0.000292907 0.000674353 0.00163095)
(9.95675e-05 0.00116111 0.00353154)
(-8.74375e-05 0.00156154 0.00347509)
(0.000627057 0.00108454 0.000953551)
(0.00133195 0.00105012 0.0041881)
(0.000474999 -0.000348214 0.00372567)
(0.000866827 0.00111779 0.00464967)
(0.00082088 0.00157473 0.00240225)
(0.000540093 -0.00130253 0.00346278)
(0.000795892 -0.00115186 0.00342009)
(0.00065066 0.00054617 0.00228819)
(0.000759229 0.000269248 0.00247364)
(-0.000324166 -0.000244954 0.00142109)
(0.000255242 -0.000181597 0.00198568)
(-1.11573e-05 -5.07653e-05 0.0038616)
(0.000999273 0.000247419 0.00218645)
(7.01474e-06 -0.000552205 0.0031701)
(0.000238198 -0.00162548 0.00356854)
(0.000398958 -0.000380192 0.00274999)
(0.000368347 0.000224396 0.00210559)
(0.000339034 0.000569704 0.00216317)
(0.000227447 0.000434002 0.00234504)
(0.000886423 1.11594e-05 0.00285194)
(0.00076373 0.000280919 0.00278933)
(-0.000152386 -9.25068e-05 0.00283218)
(-0.000261251 -0.000435704 0.00266824)
(-7.57291e-05 -0.000481969 0.00277932)
(0.00017094 -0.000306016 0.00310365)
(0.00022106 0.0003389 0.00317918)
(0.00073323 1.83058e-05 0.00223984)
(0.000122974 1.90953e-06 0.00305925)
(0.000856816 0.00058671 0.00288988)
(4.96906e-05 0.000128233 0.00246912)
(0.000255213 -0.00025286 0.00185498)
(-2.51252e-05 -0.000601581 0.00187978)
(-0.000159807 -0.000110554 0.00222745)
(5.03963e-05 -3.73483e-05 0.0024675)
(0.00034147 -0.000648627 0.00225919)
(-0.00033158 -0.00013085 0.00225067)
(-3.22194e-05 3.34117e-05 0.00305682)
(0.000422087 -0.000278053 0.00201334)
(0.000225636 -0.000513889 0.00274368)
(-0.000313841 -2.47177e-05 0.00277325)
(-8.45225e-05 0.000773757 0.00271648)
(-0.000630126 -0.000340656 0.00315752)
(-0.000408689 -0.00115317 0.00405718)
(0.000640979 0.000528422 0.00341661)
(-3.78562e-05 0.000372446 0.00250974)
(-9.76281e-05 -1.50599e-05 0.00180711)
(6.51836e-06 0.000200551 0.00200846)
(0.000607342 -9.69147e-05 0.00255033)
(0.000520602 0.000628702 0.00222362)
(-0.000151108 0.000195744 0.00322862)
(-0.000269008 -0.000165409 0.00340952)
(-0.000505317 -0.000604237 0.0040078)
(-9.71068e-05 0.000611601 0.00324175)
(0.000316221 -0.000315824 0.00142778)
(0.000208978 -0.000417422 0.00186384)
(0.000134311 0.000210009 0.00204619)
(0.000471588 0.000183929 0.00163916)
(0.000777704 -5.62461e-05 0.00227135)
(0.000318257 0.000166508 0.00241256)
(0.000232738 -0.000280569 0.00320638)
(0.000230127 0.000687958 0.00225661)
(0.000461199 -0.000260799 0.00194217)
(-2.45525e-05 -0.000158708 0.00209012)
(0.000342587 -1.83298e-05 0.0026662)
(0.000967551 0.000149925 0.00202446)
(0.000763258 0.000321004 0.00257695)
(-0.000238126 0.000425344 0.00303021)
(0.000277763 5.01234e-05 0.00318575)
(3.81783e-05 0.000233087 0.00266398)
(-7.66616e-05 -0.000667375 0.00298894)
(0.000692061 -0.000808161 0.0025571)
(0.000184056 6.7208e-05 0.00286963)
(0.000534484 -0.000604188 0.00283394)
(0.000136629 0.000505032 0.00202573)
(0.000248022 1.98876e-05 0.00316704)
(0.00086843 0.00018367 0.00199844)
(0.00057135 -2.19498e-05 0.00189002)
(0.000461727 -0.000395506 0.00249422)
(6.34025e-05 -0.000608003 0.00224653)
(0.000168922 -0.00037579 0.00245293)
(-0.000153333 1.10241e-05 0.0027809)
(0.000238125 0.000399322 0.00183255)
(0.000720276 0.000152342 0.00187262)
(0.000425949 0.00047438 0.00171301)
(0.000543152 0.000129382 0.00228022)
(7.2339e-05 -0.0003001 0.0026037)
(9.72866e-05 -0.000143429 0.00184621)
(0.000196669 -0.000356713 0.00214971)
(0.000329157 -0.000112531 0.00219855)
(0.000103373 -4.70712e-05 0.00180449)
(0.000151315 0.000205207 0.00233065)
(0.000353236 0.000126742 0.00242797)
(0.000407801 0.000484226 0.00220165)
(0.000346827 -0.000524731 0.00255451)
(9.43911e-05 -0.00013697 0.00170222)
(7.26669e-05 -0.000200567 0.0018419)
(-0.00027978 7.95001e-05 0.00201561)
(0.000142553 -0.000284448 0.00185775)
(0.000136573 -7.58352e-05 0.00207023)
(-0.000119092 7.32036e-05 0.00209124)
(-0.000176782 0.000175076 0.00270468)
(-9.02111e-05 4.02408e-05 0.00135591)
(0.000253217 -0.000272359 0.00180603)
(-0.000206017 0.000313495 0.00197176)
(8.54041e-05 0.000687326 0.00226061)
(-0.000252606 0.000238364 0.00248682)
(-0.000328657 -0.000146809 0.00245443)
(-8.53969e-05 0.000232519 0.00297583)
(-0.000369616 0.000378965 0.00243448)
(0.00021467 -3.69144e-05 0.00160716)
(0.000102972 -0.000239734 0.00191132)
(-7.43569e-05 0.00029608 0.00197816)
(-0.000111372 7.47171e-05 0.00264781)
(-0.000295227 0.000420617 0.00316743)
(-9.49167e-05 -4.91955e-05 0.00347171)
(-0.000383717 -0.000478735 0.00328119)
(-0.000424555 -0.000313368 0.00260386)
(0.000517365 -0.000315841 0.00185789)
(4.26522e-05 -0.000232456 0.00178724)
(2.73935e-05 -0.000177104 0.00147329)
(0.000219626 4.74481e-05 0.00198395)
(0.000441277 -0.000163382 0.00228384)
(0.000223676 9.85621e-05 0.00245288)
(-0.000136256 0.000297133 0.00268817)
(-0.000289113 -3.1749e-05 0.00312805)
(0.000457098 -0.00111811 0.00204211)
(0.000352457 -3.11796e-05 0.00188693)
(0.000125736 -0.000108427 0.00292436)
(0.000554172 -0.000427493 0.00199789)
(0.000352677 -2.69659e-05 0.00225272)
(0.000211276 0.000157885 0.00250007)
(0.000268404 -1.22629e-05 0.00314042)
(-1.89558e-05 -0.000258814 0.00341899)
(9.54347e-05 -0.00062157 0.00194496)
(-0.000114225 -0.00088639 0.00186591)
(-0.000144575 -0.000394543 0.00273417)
(7.60634e-05 8.26842e-05 0.00205651)
(0.000136726 0.00037458 0.00197615)
(0.000213768 0.000430116 0.00219544)
(0.000182881 0.000310208 0.00168744)
(5.03528e-05 0.000212803 0.00189507)
(0.000241558 -0.000216898 0.00184941)
(-2.19823e-05 -0.000231901 0.00171617)
(7.63192e-05 8.9999e-05 0.00207947)
(-2.78247e-05 0.000186198 0.0020217)
(-3.87343e-05 0.000278781 0.00178692)
(-4.255e-05 0.000117203 0.00210553)
(-0.000137259 0.000174738 0.00179773)
(-0.000192365 -6.10894e-05 0.00179922)
(0.000131002 -0.000133818 0.00150335)
(4.48937e-05 0.000347588 0.00188808)
(0.000147978 6.7846e-05 0.00186767)
(4.67016e-05 0.000242225 0.00177292)
(3.62097e-05 0.000296959 0.00186215)
(2.69269e-05 0.000135103 0.00186267)
(-0.000134762 0.000147915 0.00177143)
(0.000385942 0.000312716 0.00201123)
(7.00698e-05 8.50603e-05 0.00151767)
(-2.68291e-05 -0.000178533 0.00176324)
(-4.48667e-05 4.99747e-05 0.00176229)
(-0.000134025 0.000144576 0.00180959)
(8.60164e-05 0.000208 0.00204121)
(-0.000132714 0.000224619 0.00187714)
(2.33173e-05 0.000208251 0.00215558)
(0.000159813 0.000341347 0.0020885)
(8.49527e-05 5.92227e-05 0.00160202)
(5.97327e-07 7.10702e-05 0.00176948)
(2.53845e-05 -6.10232e-05 0.0018495)
(-7.57594e-05 -0.000638847 0.00220198)
(-1.67307e-05 0.000162294 0.00198141)
(-6.43051e-05 0.00014176 0.00190739)
(-0.000362442 0.00057083 0.0022084)
(-0.000171232 9.32129e-05 0.00198828)
(4.59582e-05 -5.59986e-05 0.00174617)
(0.000121648 3.73754e-06 0.00196471)
(-5.96276e-05 -6.12267e-05 0.00189598)
(-0.000148807 0.000109995 0.00267189)
(-0.000236811 0.000132006 0.00219308)
(0.00023372 -0.00013072 0.00261404)
(-1.06591e-05 0.00018698 0.00230669)
(-1.72381e-05 -0.000145996 0.00240641)
(-0.000383537 -0.000166952 0.00212014)
(-0.000289748 -0.000102052 0.00224022)
(-0.000397554 -9.62578e-05 0.00188227)
(-0.000141605 0.000206846 0.00186004)
(-5.46254e-05 0.000119271 0.00225621)
(0.000327535 -0.000173458 0.00289081)
(-8.49892e-05 0.00020804 0.00262731)
(-5.18296e-05 -0.000230863 0.00248963)
(0.000516037 0.000421962 0.00177752)
(0.000157585 -0.000149691 0.00171547)
(0.00013982 -0.000517939 0.00172081)
(-0.000121591 -0.00052322 0.00344909)
(-0.00013307 -0.000101248 0.00238312)
(-4.63898e-06 1.45008e-05 0.00236635)
(-1.96976e-05 -0.000178595 0.00285589)
(0.000177233 3.1463e-05 0.0021748)
(0.000458215 -9.66633e-05 0.001978)
(0.000212057 -7.36395e-05 0.00189206)
(-0.000134743 0.000135066 0.00193358)
(0.000163735 0.000105615 0.00179392)
(-5.92498e-05 -8.00971e-05 0.00173543)
(-0.000301544 -4.17658e-05 0.00180335)
(-0.000205097 -0.000192269 0.00162394)
(8.60718e-05 -3.81539e-05 0.00148018)
(0.00013296 3.73178e-05 0.00178519)
(3.50037e-05 -4.54907e-05 0.00168046)
(5.66564e-05 0.000228979 0.00185249)
(0.000152945 0.00031265 0.0019104)
(0.000100668 0.000295514 0.00189536)
(-5.96674e-05 -2.72396e-05 0.00191736)
(2.33223e-05 -0.000233482 0.00179025)
(-9.40664e-05 -3.36007e-05 0.00162072)
(5.32974e-06 0.000167719 0.00133326)
(-0.000122996 8.02545e-06 0.00143329)
(4.28723e-05 0.000113745 0.00174282)
(4.60379e-06 0.00026545 0.00176853)
(1.57885e-05 0.000199037 0.00172549)
(-3.88183e-05 6.44595e-05 0.00190163)
(-0.000162254 3.36543e-06 0.00175872)
(-0.000192483 3.5617e-05 0.00175636)
(-7.21435e-05 6.1871e-05 0.0012031)
(-0.000135504 2.08544e-05 0.00162655)
(-0.00030775 4.065e-05 0.00194726)
(-0.000248945 0.000298781 0.00216597)
(-3.55415e-05 0.000352092 0.00183769)
(-6.64611e-05 0.000144315 0.00189988)
(-5.41073e-05 3.15573e-05 0.0020014)
(-1.02323e-05 -2.61174e-05 0.00199511)
(-0.000103684 -0.000142531 0.00168864)
(-0.000208659 5.57756e-05 0.0018016)
(-0.000273051 -2.05935e-05 0.00192827)
(-0.000267241 9.62974e-06 0.00204741)
(-0.0002471 0.000253828 0.00199331)
(0.000308559 0.000464895 0.00196978)
(-0.000111682 0.000229107 0.00207852)
(6.97432e-05 -0.000138905 0.00221507)
(2.26467e-05 -0.000180591 0.00174756)
(-0.000261712 -3.66954e-05 0.00198926)
(-0.000207509 -0.000124106 0.00195767)
(-0.000239245 2.88682e-05 0.00204622)
(-0.000158353 0.000144552 0.00224441)
(-7.21178e-05 0.000108072 0.00221626)
(-2.20625e-05 -0.000178321 0.0020948)
(0.000121136 -0.000106615 0.0023102)
(0.000109372 -0.000247274 0.00156502)
(-9.98975e-05 -4.13365e-05 0.00194908)
(-0.000159025 -0.000185156 0.00185125)
(-0.000310682 7.97661e-05 0.00195506)
(-0.000193702 2.928e-05 0.00222807)
(9.80241e-06 2.75246e-05 0.00236693)
(-5.38875e-05 -9.27565e-05 0.00226718)
(7.66129e-05 -0.000216775 0.00221778)
(2.19672e-05 -6.4689e-05 0.00139304)
(1.96641e-06 -5.71434e-05 0.00146066)
(-0.000118848 -0.000191596 0.00140277)
(-0.000513761 -7.41425e-05 0.00172605)
(-0.000429749 -0.000134188 0.00199506)
(-0.000219339 5.84686e-05 0.0022028)
(-0.000299475 -0.000235341 0.00232504)
(-0.000152096 -9.91513e-05 0.00191363)
(0.000436466 -0.000437701 0.00155715)
(0.000810076 -0.000783604 0.00180709)
(-0.00039817 0.000148316 0.00174741)
(0.000193552 0.000366243 0.00129669)
(-0.000695114 0.000279079 0.00115621)
(-5.59957e-05 -3.56074e-05 0.00178357)
(-6.25736e-05 -0.000151506 0.00175247)
(-0.000473306 -0.000182373 0.000888904)
(-0.000166847 0.000189331 0.00179143)
(-0.000284472 0.000251808 0.00154471)
(-0.000379828 0.000406331 0.00170624)
(0.00389034 -0.000839392 -0.00495081)
(-0.000104206 0.000367803 0.00177654)
(-0.000106315 9.11468e-05 0.0017266)
(7.50598e-05 -2.42193e-05 0.00160992)
(1.30778e-05 -7.2427e-05 0.0015394)
(-0.000435847 -2.65298e-05 0.00121868)
(-0.000312672 3.95505e-05 0.00151367)
(-0.000469815 0.000225062 0.00157256)
(-0.000439665 0.000176915 0.00181322)
(-1.6219e-05 0.000240807 0.00179316)
(-9.13191e-05 0.000110207 0.00178532)
(-9.05134e-05 -7.48579e-05 0.00183397)
(-0.00014603 -3.36189e-05 0.00170946)
(-0.000233812 -7.55804e-05 0.00134799)
(-0.000402907 -1.09174e-05 0.00163885)
(-0.000777058 -1.92289e-06 0.00181596)
(-0.00110246 2.3775e-05 0.00183478)
(-0.000230176 0.000104615 0.0018641)
(-0.000120088 7.59157e-05 0.00175416)
(-0.00010187 5.89909e-05 0.00191297)
(2.9126e-05 4.68029e-06 0.00185949)
(-0.000342522 -7.79699e-05 0.00154532)
(-0.000352338 6.21393e-05 0.00172656)
(-0.000314536 -3.243e-05 0.00183565)
(-0.000373613 -7.09934e-05 0.0020074)
(-0.00016807 5.87459e-05 0.00194288)
(-0.0001426 -6.90398e-05 0.00184767)
(2.96006e-05 0.000108879 0.00197212)
(0.000376194 -8.22025e-05 0.00209036)
(0.000103528 -0.000531259 0.0016104)
(-0.000141255 -3.39682e-05 0.00204222)
(0.000205619 -1.25553e-05 0.00210603)
(0.00048421 -0.000328223 0.00138827)
(-0.000147122 3.50295e-05 0.00209154)
(-5.92061e-06 8.45148e-05 0.00205476)
(-0.000438978 0.000448129 0.00206553)
(-0.000213052 -0.000193962 0.00201388)
(-1.8427e-05 -0.000116144 0.00182966)
(-0.000316625 1.39272e-05 0.00183005)
(-0.000188692 6.54584e-05 0.00195936)
(-0.000267774 0.000172265 0.00173549)
(-0.000310551 0.000103363 0.00215739)
(-4.823e-05 0.000402207 0.00212277)
(-0.000102977 0.000562001 0.00217679)
(-0.000172504 -0.00017733 0.00240538)
(-9.85344e-06 1.92028e-05 0.00137678)
(0.000765546 8.74705e-06 0.00143603)
(-0.000303165 -3.00284e-05 0.00154647)
(-0.000429542 4.93904e-05 0.00155507)
(-0.000532964 7.85813e-05 0.00183522)
(-0.000460723 5.22605e-05 0.00191114)
(-0.000539102 6.99995e-05 0.0022096)
(-0.00115081 -0.000671752 0.00192191)
(0 0 0)
(0 0 0)
(0 0 0)
(0 0 0)
(0 0 0)
(0 0 0)
(0 0 0)
(0 0 0)
(0 0 0)
(0 0 0)
(0 0 0)
(0 0 0)
(0 0 0)
(0 0 0)
(0 0 0)
(0 0 0)
(0 0 0)
(0 0 0)
(0 0 0)
(0 0 0)
(0 0 0)
(0 0 0)
(-0.000174136 -4.03376e-05 0.0016968)
(0 0 0)
(0 0 0)
(0 0 0)
(0 0 0)
(0 0 0)
(0 0 0)
(2.33542e-05 1.76575e-05 0.00164112)
(-0.000161244 0.000178362 0.00187212)
(0 0 0)
(0 0 0)
(0 0 0)
(0 0 0)
(0 0 0)
(0 0 0)
(0 0 0)
(0 0 0)
(0 0 0)
(0 0 0)
(0 0 0)
(0 0 0)
(0 0 0)
(0 0 0)
(0 0 0)
(0 0 0)
(0 0 0)
(0 0 0)
(0 0 0)
(0 0 0)
(0 0 0)
(0 0 0)
(0 0 0)
(0 0 0)
(0 0 0)
(0 0 0)
(0 0 0)
(0 0 0)
(0 0 0)
(0 0 0)
(0 0 0)
(0 0 0)
(0 0 0)
(0 0 0)
(0 0 0)
(0 0 0)
(0 0 0)
(0 0 0)
(0 0 0)
(0 0 0)
(0 0 0)
(0 0 0)
(0 0 0)
(0 0 0)
(0 0 0)
(0 0 0)
(0 0 0)
(0 0 0)
(0 0 0)
(0 0 0)
(0 0 0)
(0 0 0)
(0 0 0)
(0 0 0)
(0 0 0)
(0 0 0)
(0 0 0)
(0 0 0)
(0 0 0)
(0 0 0)
(0 0 0)
(0 0 0)
(0 0 0)
(0 0 0)
(0 0 0)
(0 0 0)
(0 0 0)
(0 0 0)
(0 0 0)
(0 0 0)
(0 0 0)
(0 0 0)
(0 0 0)
(0 0 0)
(0 0 0)
(0 0 0)
(0 0 0)
(0 0 0)
(0 0 0)
(0 0 0)
(0 0 0)
(0 0 0)
(0 0 0)
(0 0 0)
(0 0 0)
(0 0 0)
(0 0 0)
(0 0 0)
(0 0 0)
(0 0 0)
(0 0 0)
(0 0 0)
(0 0 0)
(0 0 0)
(0 0 0)
(0 0 0)
(0 0 0)
(0 0 0)
(0 0 0)
(0 0 0)
(0 0 0)
(0 0 0)
(0 0 0)
(0 0 0)
(0 0 0)
(0 0 0)
(0 0 0)
(0 0 0)
(0 0 0)
(0 0 0)
(0 0 0)
(0 0 0)
(0 0 0)
(0 0 0)
(0 0 0)
(0 0 0)
(0 0 0)
(0 0 0)
(0 0 0)
(0 0 0)
(0 0 0)
(0 0 0)
(0 0 0)
(0 0 0)
(0 0 0)
(0 0 0)
(0 0 0)
(0 0 0)
(0 0 0)
(0 0 0)
(0 0 0)
(0 0 0)
(0 0 0)
(0 0 0)
(0 0 0)
(0 0 0)
(0 0 0)
(0 0 0)
(0 0 0)
(0 0 0)
(0 0 0)
(0 0 0)
(0 0 0)
(0 0 0)
(0 0 0)
(0 0 0)
(0 0 0)
(0 0 0)
(0 0 0)
(0 0 0)
(0 0 0)
(0 0 0)
(0 0 0)
(0 0 0)
(0 0 0)
(0 0 0)
(0 0 0)
(0 0 0)
(0 0 0)
(0 0 0)
(0 0 0)
(0 0 0)
(0 0 0)
(0 0 0)
(0 0 0)
(0 0 0)
(0 0 0)
(0 0 0)
(0 0 0)
(0 0 0)
(0 0 0)
(0 0 0)
(0 0 0)
(0 0 0)
(0 0 0)
(0 0 0)
(0 0 0)
(0 0 0)
(0 0 0)
(0 0 0)
(0 0 0)
(0 0 0)
(0 0 0)
(0 0 0)
(0 0 0)
(0 0 0)
(0 0 0)
(0 0 0)
(0 0 0)
(0 0 0)
(0 0 0)
(0 0 0)
(0 0 0)
(0 0 0)
(0 0 0)
(0 0 0)
(0 0 0)
(0 0 0)
(0 0 0)
(0 0 0)
(0 0 0)
(0 0 0)
(0 0 0)
(0 0 0)
(0 0 0)
(0 0 0)
(0 0 0)
(0 0 0)
(0 0 0)
(0 0 0)
(0 0 0)
(0 0 0)
(0 0 0)
(0 0 0)
(0 0 0)
(0 0 0)
(0 0 0)
(0 0 0)
(0 0 0)
(0 0 0)
(0 0 0)
(0 0 0)
(0 0 0)
(0 0 0)
(0 0 0)
(0 0 0)
(0 0 0)
(0 0 0)
(0 0 0)
(0 0 0)
(0 0 0)
(0 0 0)
(0 0 0)
(0 0 0)
(0 0 0)
(0 0 0)
(0 0 0)
(0 0 0)
(0 0 0)
(0 0 0)
(0 0 0)
(0 0 0)
(0 0 0)
(0 0 0)
(0 0 0)
(0 0 0)
(0 0 0)
(0 0 0)
(0 0 0)
(0 0 0)
(0 0 0)
(0 0 0)
(0 0 0)
(0 0 0)
(0 0 0)
(0 0 0)
(0 0 0)
(0 0 0)
(0 0 0)
(0 0 0)
(0 0 0)
(0 0 0)
(0 0 0)
(0 0 0)
(0 0 0)
(0 0 0)
(0 0 0)
(0 0 0)
(0 0 0)
(0 0 0)
(0 0 0)
(0 0 0)
(0 0 0)
(0 0 0)
(0 0 0)
(0 0 0)
(0 0 0)
(0 0 0)
(0 0 0)
(0 0 0)
(0 0 0)
(0 0 0)
(0 0 0)
(0 0 0)
(0 0 0)
(0 0 0)
(0 0 0)
(0 0 0)
(0 0 0)
(0 0 0)
(0 0 0)
(0 0 0)
(0 0 0)
(0 0 0)
(0 0 0)
(0 0 0)
(0 0 0)
(0 0 0)
(0 0 0)
(0 0 0)
(0 0 0)
(0 0 0)
(0 0 0)
(0 0 0)
(0 0 0)
(0 0 0)
(0 0 0)
(0 0 0)
(0 0 0)
(0 0 0)
(0 0 0)
(0 0 0)
(0 0 0)
(0 0 0)
(0 0 0)
(0 0 0)
(0 0 0)
(0 0 0)
(0 0 0)
(0 0 0)
(0 0 0)
(0 0 0)
(0 0 0)
(0 0 0)
(0 0 0)
(0 0 0)
(0 0 0)
(0 0 0)
(0 0 0)
(0 0 0)
(0 0 0)
(0 0 0)
(0 0 0)
(0 0 0)
(0 0 0)
(0 0 0)
(0 0 0)
(0 0 0)
(0 0 0)
(0 0 0)
(0 0 0)
(0 0 0)
(0 0 0)
(0 0 0)
(0 0 0)
(0 0 0)
(0 0 0)
(0 0 0)
(0 0 0)
(0 0 0)
(0 0 0)
(0 0 0)
(0 0 0)
(0 0 0)
(0 0 0)
(0 0 0)
(0 0 0)
(0 0 0)
(0 0 0)
(0 0 0)
(0 0 0)
(0 0 0)
(0 0 0)
(0 0 0)
(0 0 0)
(0 0 0)
(0 0 0)
(0 0 0)
(0 0 0)
(0 0 0)
(0 0 0)
(0 0 0)
(0 0 0)
(0 0 0)
(0 0 0)
(0 0 0)
(0 0 0)
(0 0 0)
(0 0 0)
(0 0 0)
(0 0 0)
(0 0 0)
(0 0 0)
(0 0 0)
(0 0 0)
(0 0 0)
(0 0 0)
(0 0 0)
(0 0 0)
(0 0 0)
(0 0 0)
(0 0 0)
(0 0 0)
(0 0 0)
(0 0 0)
(0 0 0)
(0 0 0)
(0 0 0)
(0 0 0)
(0 0 0)
(0 0 0)
(0 0 0)
(0 0 0)
(0 0 0)
(0 0 0)
(0 0 0)
(0 0 0)
(0 0 0)
(0 0 0)
(0 0 0)
(0 0 0)
(0 0 0)
(0 0 0)
(0 0 0)
(0 0 0)
(0 0 0)
(0 0 0)
(0 0 0)
(0 0 0)
(0 0 0)
(0 0 0)
(0 0 0)
(0 0 0)
(0 0 0)
(0 0 0)
(0 0 0)
(0 0 0)
(0 0 0)
(0 0 0)
(0 0 0)
(0 0 0)
(0 0 0)
(0 0 0)
(0 0 0)
(0 0 0)
(0 0 0)
(0 0 0)
(0 0 0)
(0 0 0)
(0 0 0)
(0 0 0)
(0 0 0)
(0 0 0)
(0 0 0)
(0 0 0)
(0 0 0)
(0 0 0)
(0 0 0)
(0 0 0)
(0 0 0)
(0 0 0)
(0 0 0)
(0 0 0)
(0 0 0)
(0 0 0)
(0 0 0)
(0 0 0)
(0 0 0)
(0 0 0)
(0 0 0)
(0 0 0)
(0 0 0)
(0 0 0)
(0 0 0)
(0 0 0)
(0 0 0)
(0 0 0)
(0 0 0)
(0 0 0)
(0 0 0)
(0 0 0)
(0 0 0)
(0 0 0)
(0 0 0)
(0 0 0)
(0 0 0)
(0 0 0)
(0 0 0)
(0 0 0)
(0 0 0)
(0 0 0)
(0 0 0)
(0 0 0)
(0 0 0)
(0 0 0)
(0 0 0)
(0 0 0)
(0 0 0)
(0 0 0)
(0 0 0)
(0 0 0)
(0 0 0)
(0 0 0)
(0 0 0)
(0 0 0)
(0 0 0)
(0 0 0)
(0 0 0)
(0 0 0)
(0 0 0)
(0 0 0)
(0 0 0)
(0 0 0)
(0 0 0)
(0 0 0)
(0 0 0)
(0 0 0)
(0 0 0)
(0 0 0)
(0 0 0)
(0 0 0)
(0 0 0)
(0 0 0)
(0 0 0)
(0 0 0)
(0 0 0)
(0 0 0)
(0 0 0)
(0 0 0)
(0 0 0)
(0 0 0)
(0 0 0)
(0 0 0)
(0 0 0)
(0 0 0)
(0 0 0)
(0 0 0)
(0 0 0)
(0 0 0)
(0 0 0)
(0 0 0)
(0 0 0)
(0 0 0)
(0 0 0)
(0 0 0)
(0 0 0)
(0 0 0)
(0 0 0)
(0 0 0)
(0 0 0)
(0 0 0)
(0 0 0)
(0 0 0)
(0 0 0)
(0 0 0)
(0 0 0)
(0 0 0)
(0 0 0)
(0 0 0)
(0 0 0)
(0 0 0)
(0 0 0)
(0 0 0)
(0 0 0)
(0 0 0)
(0 0 0)
(0 0 0)
(0 0 0)
(0 0 0)
(0 0 0)
(0 0 0)
(0 0 0)
(0 0 0)
(0 0 0)
(0 0 0)
(0 0 0)
(0 0 0)
(0 0 0)
(0 0 0)
(0 0 0)
(0 0 0)
(0 0 0)
(0 0 0)
(0 0 0)
(0 0 0)
(0 0 0)
(0 0 0)
(0 0 0)
(0 0 0)
(0 0 0)
(0 0 0)
(0 0 0)
(0 0 0)
(0 0 0)
(0 0 0)
(0 0 0)
(0 0 0)
(0 0 0)
(0 0 0)
(0 0 0)
(0 0 0)
(0 0 0)
(0 0 0)
(0 0 0)
(0 0 0)
(0 0 0)
(0 0 0)
(0 0 0)
(0 0 0)
(0 0 0)
(0 0 0)
(0 0 0)
(0 0 0)
(0 0 0)
(0 0 0)
(0 0 0)
(0 0 0)
(0 0 0)
(0 0 0)
(0 0 0)
(0 0 0)
(0 0 0)
(0 0 0)
(0 0 0)
(0 0 0)
(0 0 0)
(0 0 0)
(0 0 0)
(0 0 0)
(0 0 0)
(0 0 0)
(0 0 0)
(0 0 0)
(0 0 0)
(0 0 0)
(0 0 0)
(0 0 0)
(0 0 0)
(0 0 0)
(0 0 0)
(0 0 0)
(0 0 0)
(0 0 0)
(0 0 0)
(0 0 0)
(0 0 0)
(0 0 0)
(0 0 0)
(0 0 0)
(0 0 0)
(0 0 0)
(0 0 0)
(0 0 0)
(0 0 0)
(0 0 0)
(0 0 0)
(0 0 0)
(0 0 0)
(0 0 0)
(0 0 0)
(0 0 0)
(0 0 0)
(0 0 0)
(0 0 0)
(0 0 0)
(0 0 0)
(0 0 0)
(0 0 0)
(0 0 0)
(0 0 0)
(0 0 0)
(0 0 0)
(0 0 0)
(0 0 0)
(0 0 0)
(0 0 0)
(0 0 0)
(0 0 0)
(0 0 0)
(0 0 0)
(0 0 0)
(0 0 0)
(0 0 0)
(0 0 0)
(0 0 0)
(0 0 0)
(0 0 0)
(0 0 0)
(0 0 0)
(0 0 0)
(0 0 0)
(0 0 0)
(0 0 0)
(0 0 0)
(0 0 0)
(0 0 0)
(0 0 0)
(0 0 0)
(0 0 0)
(0 0 0)
(0 0 0)
(0 0 0)
(0 0 0)
(0 0 0)
(0 0 0)
(0 0 0)
(0 0 0)
(0 0 0)
(0 0 0)
(0 0 0)
(0 0 0)
(0 0 0)
(0 0 0)
(0 0 0)
(0 0 0)
(0 0 0)
(0 0 0)
(0 0 0)
(0 0 0)
(0 0 0)
(0 0 0)
(0 0 0)
(0 0 0)
(0 0 0)
(0 0 0)
(0 0 0)
(0 0 0)
(0 0 0)
(0 0 0)
(0 0 0)
(0 0 0)
(0 0 0)
(0 0 0)
(0 0 0)
(0 0 0)
(0 0 0)
(0 0 0)
(0 0 0)
(0 0 0)
(0 0 0)
(0 0 0)
(0 0 0)
(0 0 0)
(0 0 0)
(0 0 0)
(0 0 0)
(0 0 0)
(0 0 0)
(0 0 0)
(0 0 0)
(0 0 0)
(0 0 0)
(0 0 0)
(0 0 0)
(0 0 0)
(0 0 0)
(0 0 0)
(0 0 0)
(0 0 0)
(0 0 0)
(0 0 0)
(0 0 0)
(0 0 0)
(0 0 0)
(0 0 0)
(0 0 0)
(0 0 0)
(0 0 0)
(0 0 0)
(0 0 0)
(0 0 0)
(0 0 0)
(0 0 0)
(0 0 0)
(0 0 0)
(0 0 0)
(0 0 0)
(0 0 0)
(0 0 0)
(0 0 0)
(0 0 0)
(0 0 0)
(0 0 0)
(0 0 0)
(0 0 0)
(0 0 0)
(0 0 0)
(0 0 0)
(0 0 0)
(0 0 0)
(0 0 0)
(0 0 0)
(0 0 0)
(0 0 0)
(0 0 0)
(0 0 0)
(0 0 0)
(0 0 0)
(0 0 0)
(0 0 0)
(0 0 0)
(0 0 0)
(0 0 0)
(0 0 0)
(0 0 0)
(0 0 0)
(0 0 0)
(0 0 0)
(0 0 0)
(0 0 0)
(0 0 0)
(0 0 0)
(0 0 0)
(0 0 0)
(0 0 0)
(0 0 0)
(0 0 0)
(0 0 0)
(0 0 0)
(0 0 0)
(0 0 0)
(0 0 0)
(0 0 0)
(0 0 0)
(0 0 0)
(0 0 0)
(0 0 0)
(0 0 0)
(0 0 0)
(0 0 0)
(0 0 0)
(0 0 0)
(0 0 0)
(0 0 0)
(0 0 0)
(0 0 0)
(0 0 0)
(0 0 0)
(0 0 0)
(0 0 0)
(0 0 0)
(0 0 0)
(0 0 0)
(0 0 0)
(0 0 0)
(0 0 0)
(0 0 0)
(0 0 0)
(0 0 0)
(0 0 0)
(0 0 0)
(0 0 0)
(0 0 0)
(0 0 0)
(0 0 0)
(0 0 0)
(0 0 0)
(0 0 0)
(0 0 0)
(0 0 0)
(0 0 0)
(0 0 0)
(0 0 0)
(0 0 0)
(0 0 0)
(0 0 0)
(0 0 0)
(0 0 0)
(0 0 0)
(0 0 0)
(0 0 0)
(0 0 0)
(0 0 0)
(0 0 0)
(0 0 0)
(0 0 0)
(0 0 0)
(0 0 0)
(0 0 0)
(0 0 0)
(0 0 0)
(0 0 0)
(0 0 0)
(0 0 0)
(0 0 0)
(0 0 0)
(0 0 0)
(0 0 0)
(0 0 0)
(0 0 0)
(0 0 0)
(0 0 0)
(0 0 0)
(0 0 0)
(0 0 0)
(0 0 0)
(0 0 0)
(0 0 0)
(0 0 0)
(0 0 0)
(0 0 0)
(0 0 0)
(0 0 0)
(0 0 0)
(0 0 0)
(0 0 0)
(0 0 0)
(0 0 0)
(0 0 0)
(0 0 0)
(0 0 0)
(0 0 0)
(0 0 0)
(0 0 0)
(0 0 0)
(0 0 0)
(0 0 0)
(0 0 0)
(0 0 0)
(0 0 0)
(0 0 0)
(0 0 0)
(0 0 0)
(0 0 0)
(0 0 0)
(0 0 0)
(0 0 0)
(0 0 0)
(0 0 0)
(0 0 0)
(0 0 0)
(0 0 0)
(0 0 0)
(0 0 0)
(0 0 0)
(0 0 0)
(0 0 0)
(0 0 0)
(0 0 0)
(0 0 0)
(0 0 0)
(0 0 0)
(0 0 0)
(0 0 0)
(0 0 0)
(0 0 0)
(0 0 0)
(0 0 0)
(0 0 0)
(0 0 0)
(0 0 0)
(0 0 0)
(0 0 0)
(0 0 0)
(0 0 0)
(0 0 0)
(0 0 0)
(0 0 0)
(0 0 0)
(0 0 0)
(0 0 0)
(0 0 0)
(0 0 0)
(0 0 0)
(0 0 0)
(0 0 0)
(0 0 0)
(0 0 0)
(0 0 0)
(0 0 0)
(0 0 0)
(0 0 0)
(0 0 0)
(0 0 0)
(0 0 0)
(0 0 0)
(0 0 0)
(0 0 0)
(0 0 0)
(0 0 0)
(0 0 0)
(0 0 0)
(0 0 0)
(0 0 0)
(0 0 0)
(0 0 0)
(0 0 0)
(0 0 0)
(0 0 0)
(0 0 0)
(0 0 0)
(0 0 0)
(0 0 0)
(0 0 0)
(0 0 0)
(0 0 0)
(0 0 0)
(0 0 0)
(0 0 0)
(0 0 0)
(0 0 0)
(0 0 0)
(0 0 0)
(0 0 0)
(0 0 0)
(0 0 0)
(0 0 0)
(0 0 0)
(0 0 0)
(0 0 0)
(0 0 0)
(0 0 0)
(0 0 0)
(0 0 0)
(0 0 0)
(0 0 0)
(0 0 0)
(0 0 0)
(0 0 0)
(0 0 0)
(0 0 0)
(0 0 0)
(0 0 0)
(0 0 0)
(0 0 0)
(0 0 0)
(0 0 0)
(0 0 0)
(0 0 0)
(0 0 0)
(0 0 0)
(0 0 0)
(0 0 0)
(0 0 0)
(0 0 0)
(0 0 0)
(0 0 0)
(0 0 0)
(0 0 0)
(0 0 0)
(0 0 0)
(0 0 0)
(0 0 0)
(0 0 0)
(0 0 0)
(0 0 0)
(0 0 0)
(0 0 0)
(0 0 0)
(0 0 0)
(0 0 0)
(0 0 0)
(0 0 0)
(0 0 0)
(0 0 0)
(0 0 0)
(0 0 0)
(0 0 0)
(0 0 0)
(0 0 0)
(0 0 0)
(0 0 0)
(0 0 0)
(0 0 0)
(0 0 0)
(0 0 0)
(0 0 0)
(-0.000360956 0.000169263 0.000259874)
(-0.000855081 0.000969576 0.000166579)
(0.000311224 0.000115348 -6.63438e-06)
(0.000623179 0.000727617 -0.000168918)
(0.000816574 0.000522602 0.00032612)
(0.000539248 -8.2212e-05 0.000161404)
(0.00133877 -0.000427117 -0.000216688)
(0.000335955 -0.00067985 -0.000503187)
(-0.000365578 0.000154847 9.56505e-05)
(-0.000465238 0.000271679 -0.000297264)
(-0.000422857 -0.000205005 -0.000270594)
(-0.00060604 0.000615211 -0.000362481)
(0.000407864 0.000396553 -0.000291724)
(0.000457931 5.52024e-05 -0.000210292)
(0.000569251 -0.00030708 -0.000922493)
(0.000184717 4.70222e-05 -0.000290723)
(-0.000426483 5.15693e-05 -0.000134102)
(-0.000517414 0.00025181 -0.000462636)
(-2.02289e-05 -0.000373751 -0.000358507)
(-1.17063e-05 7.60061e-05 0.000301869)
(7.05822e-05 -5.54637e-05 -5.84163e-05)
(0.000213118 0.00016346 -3.66634e-05)
(0.000240538 0.000394035 -0.000269199)
(0.00045266 -5.80538e-06 -4.12867e-05)
(0.000161755 0.000150855 -8.97426e-05)
(-0.000300163 0.000264251 -0.000442112)
(0.000432107 3.14786e-05 -0.000359078)
(0.000555625 0.000420993 -0.000385666)
(-0.000209112 -0.000105022 0.000107519)
(5.92522e-05 -9.03089e-05 -0.00031667)
(-9.08804e-06 0.000199531 -0.000131347)
(0.000391507 -0.00020225 0.000272022)
(2.87512e-05 -0.000277116 0.00271151)
(0.000439655 0.00133578 0.00501986)
(0.000777749 0.000837556 0.0021357)
(0.00125381 0.000804575 0.00158354)
(0.000491088 0.000823529 0.0031543)
(0.00127447 0.0013728 0.00248362)
(0.0014294 0.001016 0.00447225)
(0.00101712 0.000724707 0.00253828)
(0.000145498 0.000234723 0.00150602)
(-1.41614e-05 0.000201519 0.0016644)
(0.000267919 -2.74573e-05 0.00154009)
(0.00118475 -0.000132221 0.00235191)
(0.000338266 0.000544534 0.0022249)
(0.000340543 0.000925229 0.00171037)
(-1.13613e-05 -9.7983e-05 0.0016953)
(0.00067049 0.000818824 0.00233637)
(0.000212313 0.000176602 0.000724237)
(-0.000164732 -8.06807e-05 0.00258562)
(-9.40627e-05 -0.000215175 0.00202516)
(0.000814338 -0.000110995 0.00357861)
(0.000179023 0.000561484 0.00205184)
(-0.000319589 -1.51888e-05 0.00135648)
(-0.000815601 -0.000775032 0.00322443)
(0.000689461 0.000848109 0.00299449)
(0.000123037 4.98667e-05 0.00158153)
(0.000755226 -2.97503e-05 0.00284568)
(0.000455015 0.000346735 0.00281981)
(0.000382552 -3.94201e-06 0.00218113)
(0.000511825 0.000722528 0.00234616)
(-0.000795928 -8.52122e-07 0.00151069)
(6.99973e-05 -0.000535973 0.00221262)
(-0.000169855 0.000414684 0.0021503)
(0.000470984 0.000454435 0.00263332)
(0.000198853 -0.000323809 0.00273941)
(0.000838787 0.000541352 0.00205415)
(0.000890207 0.000164705 0.0021102)
(0.000623366 0.000306636 0.00409789)
(-1.03375e-05 -5.50463e-05 0.00232177)
(1.30734e-05 0.000118112 0.00386105)
(0.000315368 0.00031691 0.00165737)
(0.000955292 -0.000226401 0.0017578)
(-0.000204274 0.000114866 0.00196302)
(9.15782e-05 0.000491515 0.00194084)
(0.000349755 0.000663764 0.00300748)
(-0.000308602 -0.000422057 0.00369917)
(0.00026301 1.02647e-06 0.00162357)
(0.000281591 0.000212408 0.00229985)
(0.0003472 -6.8516e-05 0.00196468)
(0.000873871 0.000112322 0.0020151)
(-0.000439351 -3.67521e-05 0.00249438)
(-2.32268e-05 -0.000128736 0.00132819)
(-5.45994e-05 0.000262382 0.0023233)
(-0.000120573 0.000717592 0.00211732)
(0.000475992 -6.78254e-05 0.00157216)
(0.000470388 0.000407622 0.00265047)
(0.000300692 0.000118072 0.00319709)
(0.000588311 0.000458695 0.00193565)
(0.000221173 0.000114247 0.00226858)