FoamFile
{version 2.0; format ascii;class Cloud<passiveParticle>; location 0;object  positions;}
2510
(
( 0.00589115 4.02566e-06 0.000498531 ) 0 
( 0.00232416 0.000201233 0.000499388 ) 0 
( 0.00113518 0.000122657 0.00704085 ) 0 
( 0.00903558 2.23069e-05 0.00566558 ) 0 
( 0.00927618 0.00014281 0.00470297 ) 0 
( 0.0124775 5.09539e-05 0.000499008 ) 0 
( 0.000893814 0.000654427 0.00150603 ) 0 
( 0.00682628 0.000178392 0.00181185 ) 0 
( 0.00999643 0.000153679 0.005417 ) 0 
( 0.00919098 0.00031467 0.0105355 ) 0 
( 0.0123884 0.000207908 0.0143127 ) 0 
( 0.00115406 0.000107273 0.0138464 ) 0 
( 0.00255059 0.000499335 0.0146692 ) 0 
( 0.00573426 0.00136683 0.0147231 ) 0 
( 0.00664289 0.00103325 0.014473 ) 0 
( 0.0089259 0.000260772 0.0133798 ) 0 
( 0.00945878 0.000499075 0.0146065 ) 0 
( 0.011367 8.24917e-05 0.0130243 ) 0 
( 0.0133368 0.000598852 0.00797525 ) 0 
( 0.00462261 0.000714445 0.0148157 ) 0 
( 0.00940817 0.0018653 0.0146177 ) 0 
( 0.0100238 0.000403914 0.0110811 ) 0 
( 0.00790129 5.51e-05 0.00912964 ) 0 
( 0.00721104 0.00561618 0.0152554 ) 0 
( 0.00404037 0.00839996 0.0146902 ) 0 
( 0.00829575 0.000297809 0.0149021 ) 0 
( 0.00202813 0.000787138 0.0129639 ) 0 
( 0.00214318 0.000241542 0.0137936 ) 0 
( 0.0119308 0.00105754 0.0140517 ) 0 
( 0.0114827 0.000271011 0.0147318 ) 0 
( 0.0104864 4.24188e-05 0.0145004 ) 0 
( 0.00236428 0.000172869 0.00903393 ) 0 
( 0.00346643 0.00374077 0.00261161 ) 0 
( 0.0017382 0.00543453 0.00790514 ) 0 
( 0.00022724 0.0127691 0.00565297 ) 0 
( 0.00707805 0.00503748 0.00214731 ) 0 
( 0.00678435 0.00473908 0.00528008 ) 0 
( 0.00896756 0.00551717 0.00669514 ) 0 
( 0.000330555 0.013312 0.00353087 ) 0 
( 0.00617124 0.00339508 0.00425923 ) 0 
( 0.00548145 0.0121533 0.00462621 ) 0 
( 0.0103002 0.0053086 0.00559337 ) 0 
( 0.000907753 0.00734082 0.00447405 ) 0 
( 0.00713112 0.0103246 0.000499852 ) 0 
( 0.00635904 0.00977188 0.00163232 ) 0 
( 0.00222929 0.0122948 0.00396155 ) 0 
( 0.00188419 0.00315523 0.000499455 ) 0 
( 0.00441971 0.00759481 0.00189939 ) 0 
( 0.0107325 0.00370854 0.00377664 ) 0 
( 0.0112966 0.00536217 0.00563717 ) 0 
( 0.00472542 0.0033499 0.00406737 ) 0 
( 0.00825403 0.00272612 0.00673448 ) 0 
( 0.0087407 0.00267559 0.0048156 ) 0 
( 0.0026236 0.0100628 0.00623705 ) 0 
( 0.00724197 0.00683302 0.00118942 ) 0 
( 0.00670476 0.00468213 0.00407892 ) 0 
( 0.00551049 0.00766158 0.00319474 ) 0 
( 0.00373769 0.0128152 0.00569375 ) 0 
( 0.00252055 0.00796205 0.00304984 ) 0 
( 0.0116725 0.00436708 0.000498348 ) 0 
( 0.00112869 0.00226344 0.00323171 ) 0 
( 0.00529029 0.00687338 0.00453059 ) 0 
( 0.0109958 0.00372524 0.000859161 ) 0 
( 0.00933157 0.00222276 0.00414904 ) 0 
( 0.00275043 0.00148265 0.00623577 ) 0 
( 0.00684269 0.000177594 0.00832717 ) 0 
( 0.000902884 0.00608414 0.00469491 ) 0 
( 0.00184629 0.00813021 0.00780188 ) 0 
( 0.00155116 0.00796872 0.00280616 ) 0 
( 0.00905603 0.00978855 0.00419789 ) 0 
( 0.0128482 0.0036276 0.00654469 ) 0 
( 0.00256681 0.00710503 0.00131496 ) 0 
( 0.0099305 0.00322232 0.00542667 ) 0 
( 0.00276729 0.000677074 0.00125872 ) 0 
( 0.00718803 0.00570777 0.00569656 ) 0 
( 0.00579427 0.00468586 0.00567165 ) 0 
( 0.000755346 0.000335096 0.00244522 ) 0 
( 0.00121642 0.00588709 0.00562342 ) 0 
( 0.00874064 0.0012871 0.00685578 ) 0 
( 0.00138965 0.0118862 0.00431839 ) 0 
( 0.00295725 0.00800705 0.00394817 ) 0 
( 0.00746118 0.00212192 0.00545262 ) 0 
( 0.00900771 0.00985375 0.00767622 ) 0 
( 0.012124 0.00412384 0.00221359 ) 0 
( 0.00570645 0.00823412 0.00646074 ) 0 
( 0.00292969 0.00706869 0.00286554 ) 0 
( 0.00806536 0.000566939 0.00718399 ) 0 
( 0.0100088 0.00526834 0.00312019 ) 0 
( 0.000353886 0.00375882 0.00618654 ) 0 
( 0.00274119 0.00100686 0.00535655 ) 0 
( 0.00397112 0.0101187 0.00317926 ) 0 
( 0.00357331 0.00215454 0.00194177 ) 0 
( 0.00580032 0.00506351 0.00359643 ) 0 
( 0.00827157 0.00136838 0.00774525 ) 0 
( 0.00313799 0.0124153 0.00500079 ) 0 
( 0.00134564 0.00885596 0.00321927 ) 0 
( 0.000925156 0.012346 0.00507474 ) 0 
( 0.00584002 0.00412739 0.00307902 ) 0 
( 0.00774649 0.00290163 0.00489567 ) 0 
( 0.00189052 0.00999437 0.000499806 ) 0 
( 0.00907195 0.00849312 0.0040222 ) 0 
( 0.00491393 0.0049598 0.00801013 ) 0 
( 0.00935909 6.58307e-05 0.0023284 ) 0 
( 0.00476842 0.00724151 0.00699312 ) 0 
( 0.00223464 0.00522826 0.00706258 ) 0 
( 0.0102147 0.00851907 0.00373959 ) 0 
( 0.00474091 0.00120856 0.00589018 ) 0 
( 0.00693814 0.00362461 0.00744366 ) 0 
( 0.00694492 0.00668766 0.00415216 ) 0 
( 0.000774759 0.00775124 0.00641954 ) 0 
( 0.00640919 0.00641222 0.00207757 ) 0 
( 0.000657381 0.0028733 0.00259508 ) 0 
( 0.0118742 0.00610402 0.00597488 ) 0 
( 0.000932165 0.00127314 0.00471368 ) 0 
( 0.00709227 0.010226 0.00710601 ) 0 
( 0.00106058 0.00294796 0.00168339 ) 0 
( 0.00798375 0.0107003 0.00205643 ) 0 
( 0.0045749 0.00342582 0.00592254 ) 0 
( 0.00365483 0.0114057 0.00706991 ) 0 
( 0.0111022 0.00130745 0.0043354 ) 0 
( 0.000758637 0.0133285 0.000499484 ) 0 
( 0.0021888 0.000657996 0.00611331 ) 0 
( 0.00051312 0.00912217 0.00273351 ) 0 
( 0.00673346 0.000699078 0.000499624 ) 0 
( 0.00499207 0.0019691 0.006488 ) 0 
( 0.00336819 0.00512438 0.00129345 ) 0 
( 0.000915578 0.00457314 0.00604596 ) 0 
( 0.000907534 0.00338955 0.000499248 ) 0 
( 0.0114659 0.00290871 0.000499363 ) 0 
( 0.00472632 0.0115107 0.00594555 ) 0 
( 0.00320019 0.0056733 0.00720386 ) 0 
( 0.00271097 0.00115579 0.00308617 ) 0 
( 0.00840456 0.00247986 0.00132469 ) 0 
( 0.00645812 0.00666609 0.00574864 ) 0 
( 0.0122645 0.00527381 0.00369901 ) 0 
( 0.00248655 0.0113895 0.00294917 ) 0 
( 0.00455053 0.00111595 0.00219426 ) 0 
( 0.00259892 0.0112103 0.000498605 ) 0 
( 0.0123502 0.00506999 0.00467391 ) 0 
( 0.000868757 0.00794245 0.00201517 ) 0 
( 0.00456101 0.00912804 0.00498861 ) 0 
( 0.00268539 0.0054493 0.00442413 ) 0 
( 0.00325277 0.00938507 0.00305363 ) 0 
( 0.00488993 0.00943848 0.00256442 ) 0 
( 0.00369654 0.00962004 0.00508564 ) 0 
( 0.00315369 0.00434386 0.00187906 ) 0 
( 0.00640348 0.0107344 0.00547341 ) 0 
( 0.011089 0.00741949 0.00479162 ) 0 
( 0.00710724 0.00104226 0.00222847 ) 0 
( 0.0070427 0.00851574 0.00383794 ) 0 
( 0.0108948 0.00532264 0.00138836 ) 0 
( 0.00942691 0.00817542 0.00490077 ) 0 
( 0.0129437 0.00327226 0.00239558 ) 0 
( 0.000432465 0.00899703 0.00372208 ) 0 
( 0.00392065 0.0127047 0.000499493 ) 0 
( 0.00874196 0.010086 0.00226846 ) 0 
( 0.00198519 0.00910628 0.00119926 ) 0 
( 0.00613701 0.00537068 0.00458543 ) 0 
( 0.00683148 0.00382728 0.00487256 ) 0 
( 0.00791667 0.00722819 0.00206781 ) 0 
( 0.000391459 0.0106866 0.00659905 ) 0 
( 3.08601e-05 0.00171202 0.00630198 ) 0 
( 0.0124312 0.00432067 0.00533016 ) 0 
( 0.010434 0.00189186 0.00145707 ) 0 
( 0.0119986 0.000868705 0.000814506 ) 0 
( 0.0111725 0.00195344 0.000499953 ) 0 
( 0.00557452 0.000817923 0.00724594 ) 0 
( 0.00876936 0.00044322 0.00388891 ) 0 
( 0.0100046 0.0020084 0.00235172 ) 0 
( 0.00176817 0.00783662 0.00655262 ) 0 
( 0.00809851 0.00866847 0.00359787 ) 0 
( 0.00863157 0.00635343 0.00234192 ) 0 
( 0.00652401 0.00279246 0.00597576 ) 0 
( 0.00596843 0.00399654 0.00149579 ) 0 
( 0.000708548 0.00313419 0.005492 ) 0 
( 0.00859932 0.00446569 0.00508455 ) 0 
( 0.00227065 0.0123046 0.000505522 ) 0 
( 0.0122135 0.00455262 0.00131607 ) 0 
( 0.00625604 0.00343072 0.00669647 ) 0 
( 0.00457444 0.00805688 0.00753801 ) 0 
( 0.0089214 0.00751749 0.00418066 ) 0 
( 0.00606649 0.00221535 0.00394436 ) 0 
( 0.000978441 0.00416049 0.00419423 ) 0 
( 0.0105052 0.00674822 0.00267414 ) 0 
( 0.00402263 0.00362339 0.00696088 ) 0 
( 0.000290981 0.00452755 0.00684165 ) 0 
( 0.0035924 0.00540154 0.00366842 ) 0 
( 0.0119706 0.00116942 0.00386048 ) 0 
( 0.00220496 0.00138589 0.00441005 ) 0 
( 0.0085435 0.00898836 0.00168999 ) 0 
( 0.00314501 0.0109064 0.00374776 ) 0 
( 0.00235669 0.012229 0.00645835 ) 0 
( 0.0103871 0.0083872 0.00141724 ) 0 
( 0.00267744 0.00415135 0.0030686 ) 0 
( 0.000736576 0.0119465 0.00300539 ) 0 
( 0.00161857 0.00615455 0.00313537 ) 0 
( 0.00371362 0.00278569 0.00276975 ) 0 
( 0.00510979 0.000143303 0.00561968 ) 0 
( 0.00644621 0.000300462 0.0072755 ) 0 
( 0.00754742 0.000695952 0.00134728 ) 0 
( 0.0100029 0.00532296 0.000499318 ) 0 
( 0.00649526 0.00483107 0.00133499 ) 0 
( 0.00177521 0.0123506 0.00145138 ) 0 
( 0.00631004 0.0117657 0.00238994 ) 0 
( 0.00434319 0.00877336 0.00310876 ) 0 
( 0.00514224 0.0113764 0.00376932 ) 0 
( 0.00316096 0.0103955 0.00462427 ) 0 
( 0.00300563 0.0111322 0.00198544 ) 0 
( 0.00386848 0.00600557 0.00653887 ) 0 
( 0.00986145 0.00706959 0.00599277 ) 0 
( 0.00459892 0.00302344 0.00500796 ) 0 
( 0.00322001 0.0119927 0.000501411 ) 0 
( 0.00268342 0.0042109 0.00407034 ) 0 
( 0.0046596 0.00955945 0.00363954 ) 0 
( 0.00395221 0.00352696 0.00345883 ) 0 
( 0.00944624 0.00100645 0.0057072 ) 0 
( 0.00399432 0.0108706 0.00434209 ) 0 
( 0.00476594 0.00436066 0.000499372 ) 0 
( 0.00342278 0.00839202 0.00302539 ) 0 
( 0.00341762 0.00774989 0.00225695 ) 0 
( 0.00809617 0.00523712 0.00725053 ) 0 
( 0.0073841 0.00839715 0.0067213 ) 0 
( 0.00283164 0.00238207 0.00444213 ) 0 
( 0.000240664 0.00159215 0.00751799 ) 0 
( 0.00701958 0.00831114 0.00569653 ) 0 
( 0.00925927 0.00961802 0.00516146 ) 0 
( 0.0107237 0.000806056 0.00697099 ) 0 
( 0.00407998 0.00281433 0.00754482 ) 0 
( 0.0108979 0.0027079 0.00669934 ) 0 
( 0.00399493 0.0110276 0.00208439 ) 0 
( 0.00566376 0.000145109 0.00380459 ) 0 
( 0.0080354 0.00976051 0.00108645 ) 0 
( 0.00683126 0.00891313 0.00192538 ) 0 
( 0.00510797 0.00567729 0.00133929 ) 0 
( 0.00694676 0.00229242 0.00441622 ) 0 
( 0.00303204 0.00174024 0.00121036 ) 0 
( 0.000254829 0.00654735 0.00409187 ) 0 
( 0.0035819 0.011959 0.00165372 ) 0 
( 0.00328793 0.00389291 0.00766869 ) 0 
( 0.0106434 0.00632992 0.00745632 ) 0 
( 0.00480414 0.00563581 0.00229087 ) 0 
( 0.00317757 0.000576933 0.00623791 ) 0 
( 0.000539621 0.0026407 0.00636714 ) 0 
( 0.0120247 0.00373872 0.00456826 ) 0 
( 0.00891049 0.00735104 0.0051671 ) 0 
( 0.00528707 0.00674829 0.00252689 ) 0 
( 0.010064 0.00247108 0.00478187 ) 0 
( 0.00748616 0.00751249 0.000498284 ) 0 
( 0.00195778 0.00802445 0.00396681 ) 0 
( 0.0114641 5.94068e-05 0.00146281 ) 0 
( 0.00159803 0.0034785 0.0045809 ) 0 
( 0.00636771 0.00801214 0.00499901 ) 0 
( 0.0035949 0.00130587 0.00264277 ) 0 
( 0.00816397 0.0043231 0.00685225 ) 0 
( 0.0133185 0.000924395 0.00421675 ) 0 
( 0.00279244 0.0130557 0.00218306 ) 0 
( 0.0105099 0.00372172 0.00478012 ) 0 
( 0.00975146 0.00430317 0.000499091 ) 0 
( 0.004424 0.00534009 0.00722096 ) 0 
( 0.00949488 0.0088363 0.00142654 ) 0 
( 0.00672493 0.00500909 0.00624093 ) 0 
( 0.010654 0.00628859 0.00147839 ) 0 
( 0.00440656 0.00386323 0.00153209 ) 0 
( 0.00193252 0.00704527 0.00280812 ) 0 
( 0.00301249 0.00468156 0.00497334 ) 0 
( 0.01335 5.56641e-05 0.00136469 ) 0 
( 0.00516451 0.00356502 0.000952637 ) 0 
( 0.00604732 0.00835298 0.00219167 ) 0 
( 0.00555486 0.012139 0.00562389 ) 0 
( 0.00111326 0.0092836 0.00195027 ) 0 
( 0.00924845 0.00923019 0.0023589 ) 0 
( 0.00214958 0.0107847 0.00366917 ) 0 
( 0.00201051 0.0113051 0.00617888 ) 0 
( 0.00449556 0.0116208 0.00142888 ) 0 
( 0.00178231 0.00505135 0.00618377 ) 0 
( 0.00801045 0.00794457 0.0042874 ) 0 
( 0.00125921 0.00997035 0.00478779 ) 0 
( 0.00311956 0.00727015 0.00469602 ) 0 
( 0.00166874 0.000745801 0.00526399 ) 0 
( 0.0133501 9.00489e-05 0.00552706 ) 0 
( 0.00350158 0.000588886 0.00194393 ) 0 
( 0.0118658 0.00179549 0.0018819 ) 0 
( 0.0104413 6.18222e-05 0.00311045 ) 0 
( 0.00231503 0.000429609 0.00364696 ) 0 
( 0.00728911 0.00765372 0.00339521 ) 0 
( 0.00866937 0.00813008 0.00218652 ) 0 
( 0.0112401 0.00526107 0.00375997 ) 0 
( 0.00400915 0.00792039 0.00368345 ) 0 
( 0.00449833 0.0119657 0.00300951 ) 0 
( 0.00988402 0.000389345 0.00731886 ) 0 
( 0.00964956 0.00800829 0.00233805 ) 0 
( 0.00429112 0.006278 0.000498889 ) 0 
( 0.00401866 0.00902539 0.00582166 ) 0 
( 0.0111493 0.00449194 0.0048442 ) 0 
( 0.0133399 0.000553982 0.000498962 ) 0 
( 0.00178058 0.00546688 0.00384288 ) 0 
( 0.00795112 0.00519135 0.00531131 ) 0 
( 4.21495e-05 0.00401522 0.00451246 ) 0 
( 0.00167744 0.00336526 0.0055709 ) 0 
( 0.000396902 0.00132094 0.00208769 ) 0 
( 0.00064916 0.0115596 0.000499803 ) 0 
( 0.00505407 0.00840547 0.00374038 ) 0 
( 0.0100331 0.0034275 0.00309388 ) 0 
( 0.000407812 0.0121915 0.00644898 ) 0 
( 0.0086203 0.00906203 0.000499758 ) 0 
( 0.0087334 0.000450574 0.00139471 ) 0 
( 0.00222579 0.00184239 0.00700722 ) 0 
( 0.00759072 0.00858978 0.00492488 ) 0 
( 0.0018078 0.00394706 0.00366619 ) 0 
( 0.000142147 0.00957262 0.0054351 ) 0 
( 0.00125206 0.00333319 0.00648047 ) 0 
( 0.00392294 0.00515082 0.00214068 ) 0 
( 0.000902229 0.000961459 0.00792221 ) 0 
( 0.00318202 0.00663085 0.00616567 ) 0 
( 0.00177534 0.0132095 0.00536385 ) 0 
( 0.00705634 0.00765736 0.00436739 ) 0 
( 0.00648748 0.000998551 0.00585868 ) 0 
( 0.00251244 0.00377578 0.00136394 ) 0 
( 0.00816938 0.00600102 0.00633627 ) 0 
( 0.00560677 0.0017608 0.0047111 ) 0 
( 0.0010237 0.0106439 0.00548709 ) 0 
( 0.00770663 0.00131075 0.0048859 ) 0 
( 0.00573158 0.00302508 0.00157264 ) 0 
( 0.00652558 0.00181291 0.00528044 ) 0 
( 0.00221992 0.0104947 0.00704266 ) 0 
( 0.00201982 0.00265445 0.00495743 ) 0 
( 0.0110499 0.00749232 0.00714565 ) 0 
( 0.00698134 0.00201103 0.00202013 ) 0 
( 6.23248e-05 0.00500579 0.00796566 ) 0 
( 0.00201249 0.00993733 0.00544363 ) 0 
( 0.00737965 0.0107418 0.00387102 ) 0 
( 0.00166673 0.000839076 0.000899497 ) 0 
( 0.000806 0.00588402 0.000499794 ) 0 
( 0.00105356 0.00163292 0.00137886 ) 0 
( 0.00736392 0.00276341 0.00255492 ) 0 
( 0.00128069 0.00914118 0.00423083 ) 0 
( 0.00111295 0.0096272 0.00101163 ) 0 
( 0.00812614 0.00124759 0.00333852 ) 0 
( 0.00754665 0.000188106 0.00250371 ) 0 
( 0.00554416 0.00585909 0.00295936 ) 0 
( 0.0122727 0.00186014 0.00310435 ) 0 
( 0.00403607 0.00205366 0.0067681 ) 0 
( 0.00278372 0.00127526 0.00205955 ) 0 
( 0.00221799 0.0069363 0.00638327 ) 0 
( 0.0128637 0.00195861 0.00581417 ) 0 
( 0.00364824 0.0114416 0.00297405 ) 0 
( 0.011279 0.00345724 0.00536924 ) 0 
( 0.0100386 0.000299633 0.000498985 ) 0 
( 0.000184685 0.00250607 0.00387314 ) 0 
( 0.00123397 0.0107485 0.000499794 ) 0 
( 0.00182671 0.00925907 0.00615608 ) 0 
( 0.00643812 0.00120165 0.00684319 ) 0 
( 0.00728014 0.0059981 0.00234168 ) 0 
( 0.00224299 0.00898074 0.0040159 ) 0 
( 0.0120197 0.00302767 0.00380957 ) 0 
( 0.00331207 0.00936048 0.006446 ) 0 
( 0.00104697 0.00188381 0.00679808 ) 0 
( 0.00708817 0.00694082 0.00261233 ) 0 
( 0.00727393 0.0107699 0.00287764 ) 0 
( 0.00549706 0.000929028 0.000499712 ) 0 
( 0.00290026 0.00744301 0.00565584 ) 0 
( 0.0049707 0.00759207 0.00607203 ) 0 
( 0.0058735 0.00177173 0.00605943 ) 0 
( 0.00502409 0.012369 0.0037581 ) 0 
( 0.00355029 0.0039537 0.0010247 ) 0 
( 0.0018613 0.00735301 0.000499239 ) 0 
( 0.00722609 0.00314458 0.00661574 ) 0 
( 0.00776042 0.00171194 0.00135371 ) 0 
( 0.00275679 0.0120604 0.00225946 ) 0 
( 0.00437024 0.00514398 0.0062416 ) 0 
( 0.00468845 0.00288373 0.0067543 ) 0 
( 0.00462548 0.0098125 0.000604553 ) 0 
( 0.0089033 0.00722545 0.00182833 ) 0 
( 0.00217961 0.0102399 0.00450609 ) 0 
( 0.00463216 0.00186904 0.00514688 ) 0 
( 0.00262496 0.00504662 0.00351093 ) 0 
( 0.00329364 0.011738 0.00428218 ) 0 
( 0.0107576 0.00385164 0.00228995 ) 0 
( 0.00136607 0.00731427 0.00358619 ) 0 
( 0.00516637 0.00192611 0.00208951 ) 0 
( 0.0128988 0.00263856 0.00316864 ) 0 
( 0.00711811 0.0112948 0.000737999 ) 0 
( 0.0102192 0.000732582 0.00240273 ) 0 
( 0.00542331 0.00669524 0.00351542 ) 0 
( 0.0114106 0.00423995 0.00293933 ) 0 
( 0.00725394 0.00927686 0.00556834 ) 0 
( 0.000133402 0.00364304 0.00349959 ) 0 
( 0.00622462 0.00659875 0.000611012 ) 0 
( 0.00459977 0.0080992 0.00529294 ) 0 
( 0.00645693 0.0116286 0.0014122 ) 0 
( 0.00438883 0.00138581 0.00430491 ) 0 
( 0.0047381 0.00291652 0.00158269 ) 0 
( 0.00723057 0.00417498 0.000499753 ) 0 
( 0.00343391 0.00628188 0.00322146 ) 0 
( 0.00245747 0.00505629 0.00179711 ) 0 
( 0.0120262 0.00263805 0.00136735 ) 0 
( 0.00366843 0.00954503 0.000499235 ) 0 
( 0.00194021 0.00899974 0.00496951 ) 0 
( 0.00558371 0.0104264 0.0069811 ) 0 
( 0.000849174 0.000293164 0.00490972 ) 0 
( 0.00139156 0.00351055 0.00756684 ) 0 
( 0.0035501 0.00478926 0.00689697 ) 0 
( 0.011581 0.0044213 0.00584659 ) 0 
( 0.00337382 0.00624794 0.00421926 ) 0 
( 0.00574674 0.0018621 0.00713485 ) 0 
( 0.00226256 0.000561898 0.00766332 ) 0 
( 0.00788578 0.0107418 0.00573939 ) 0 
( 0.00264614 0.00990379 0.00133369 ) 0 
( 0.00160255 0.00175303 0.000499629 ) 0 
( 0.0082101 0.00503224 0.00435963 ) 0 
( 0.00382982 0.0079729 0.00466548 ) 0 
( 0.00300045 5.72727e-06 0.00728246 ) 0 
( 0.00272922 0.00476566 0.00632737 ) 0 
( 0.0118543 0.00164562 0.00554474 ) 0 
( 0.00619675 0.0055997 0.00563198 ) 0 
( 0.00274711 0.00321597 0.00215771 ) 0 
( 0.00642248 0.00192049 0.00305663 ) 0 
( 0.00517095 0.0122229 0.00185472 ) 0 
( 0.00870492 0.00295699 0.00049946 ) 0 
( 0.00344881 0.00573851 0.000499792 ) 0 
( 0.00695265 0.00513554 0.000499702 ) 0 
( 0.000958045 0.0108384 0.00250849 ) 0 
( 0.00522083 0.00497751 0.00673939 ) 0 
( 0.00602723 0.0108477 0.00211238 ) 0 
( 0.00291635 0.00482076 0.00766937 ) 0 
( 0.00182868 0.00469279 0.00300071 ) 0 
( 0.0117013 0.00519434 0.00287666 ) 0 
( 0.00489233 0.00382533 0.00317705 ) 0 
( 0.00978822 0.00265509 0.00144388 ) 0 
( 0.00205406 0.00162433 0.0013822 ) 0 
( 0.00641436 0.00750148 0.00768968 ) 0 
( 0.00867585 0.00486209 0.00599883 ) 0 
( 0.00576617 0.00547472 0.00206357 ) 0 
( 0.00411976 0.0119045 0.00525552 ) 0 
( 0.00844265 0.00587764 0.00388048 ) 0 
( 0.00931838 0.00409466 0.00137571 ) 0 
( 0.00265625 0.00935133 0.000499727 ) 0 
( 0.00954149 0.00157205 0.0034207 ) 0 
( 0.0115185 0.00431681 0.00392998 ) 0 
( 0.0043105 0.00200235 0.00259989 ) 0 
( 0.00344294 0.000693209 0.00358555 ) 0 
( 0.00540404 0.0112057 0.00139049 ) 0 
( 0.00461861 9.53714e-05 0.00753355 ) 0 
( 0.00853602 0.0102645 0.00632949 ) 0 
( 0.00652759 0.00816591 0.00133505 ) 0 
( 0.00642938 0.00807936 0.00308598 ) 0 
( 0.00238485 0.00997338 0.00291636 ) 0 
( 0.000612211 0.000983557 0.00681724 ) 0 
( 0.00822951 0.0105108 0.00301393 ) 0 
( 0.00801064 3.97361e-05 0.00337606 ) 0 
( 0.00269839 0.00924586 0.00566589 ) 0 
( 0.00485085 0.00437584 0.00578284 ) 0 
( 0.00702694 0.00839899 0.000499502 ) 0 
( 0.00395638 0.0010607 0.00663876 ) 0 
( 0.00131904 0.00704554 0.00184171 ) 0 
( 0.000988019 0.00896226 0.00661644 ) 0 
( 0.00348326 0.00264919 0.00373258 ) 0 
( 0.00434875 0.00881315 0.000499614 ) 0 
( 0.00349643 0.0074758 0.00126882 ) 0 
( 0.00971289 0.00134324 0.00661108 ) 0 
( 0.0119671 0.00358168 0.00104209 ) 0 
( 0.0113205 0.00658514 0.00529703 ) 0 
( 0.00208631 0.0122293 0.00494807 ) 0 
( 0.00661686 0.00562035 0.00374441 ) 0 
( 0.0113334 0.00128828 0.00310008 ) 0 
( 0.00656813 0.010537 0.00441734 ) 0 
( 0.000282643 0.00242814 0.00133182 ) 0 
( 0.00440383 0.0108014 0.00658278 ) 0 
( 0.00878142 0.00181599 0.0028192 ) 0 
( 0.013149 0.00230947 0.000656143 ) 0 
( 0.00237521 4.65944e-05 0.00508083 ) 0 
( 0.0126713 0.00420525 0.00049897 ) 0 
( 0.0128047 0.00378135 0.00154733 ) 0 
( 0.00648482 0.00934183 0.0037596 ) 0 
( 0.00804006 0.00210122 0.00437436 ) 0 
( 0.00986255 0.00568083 0.00142181 ) 0 
( 0.00429168 0.00525756 0.00442419 ) 0 
( 0.00590295 0.00274896 0.000499396 ) 0 
( 0.00496235 0.00626162 0.00703368 ) 0 
( 0.00689608 0.00471037 0.00307485 ) 0 
( 0.0081991 0.00322559 0.00406531 ) 0 
( 0.0100432 0.00711526 0.00499756 ) 0 
( 0.00900408 0.00633572 0.00138542 ) 0 
( 0.00106679 0.00532119 0.00315543 ) 0 
( 0.00541515 0.00750291 0.00188397 ) 0 
( 0.00434119 0.00245387 0.00590407 ) 0 
( 0.00725337 0.00569675 0.00138878 ) 0 
( 0.0015351 0.0132617 0.00439468 ) 0 
( 0.0070074 0.0113632 0.0059637 ) 0 
( 0.00499714 0.00525627 0.00533352 ) 0 
( 0.00570892 0.00458855 0.00753068 ) 0 
( 0.00642183 0.00907031 0.000923804 ) 0 
( 0.00541154 0.00242749 0.00543075 ) 0 
( 0.00548771 0.0118384 0.00295279 ) 0 
( 0.00158819 0.0115667 0.00336651 ) 0 
( 0.00155951 0.00063523 0.00426827 ) 0 
( 0.00958583 0.00335158 0.000755691 ) 0 
( 0.0119955 0.00270349 0.00491323 ) 0 
( 0.00873167 0.00142452 0.00411313 ) 0 
( 0.00731078 0.00925769 0.00722406 ) 0 
( 0.00985917 0.00407819 0.00409067 ) 0 
( 0.00984195 0.00465528 0.00620029 ) 0 
( 0.0128201 0.00372547 0.003277 ) 0 
( 0.0108455 0.00252092 0.00571857 ) 0 
( 0.0127415 0.00320843 0.000499606 ) 0 
( 0.00879151 0.0078074 0.00605617 ) 0 
( 0.0114858 0.000820256 0.00511853 ) 0 
( 6.88843e-05 0.00450417 0.00179577 ) 0 
( 0.0016234 0.0103861 0.00624694 ) 0 
( 0.00012069 0.00505953 0.000499748 ) 0 
( 0.00886593 0.00672782 0.00356998 ) 0 
( 0.00304089 0.0121853 0.00719312 ) 0 
( 0.000951744 0.00802549 0.00736738 ) 0 
( 0.0035643 0.0102813 0.00674135 ) 0 
( 0.00846242 0.00102934 0.00588187 ) 0 
( 0.00392528 0.00704658 0.00275357 ) 0 
( 0.00690973 0.00785078 0.00223968 ) 0 
( 0.008441 0.00350138 0.00529144 ) 0 
( 0.0107538 0.00497623 0.00238217 ) 0 
( 0.00614583 0.00727303 0.0025266 ) 0 
( 0.00993158 0.0018993 0.00560002 ) 0 
( 0.0109061 0.00143212 0.00220841 ) 0 
( 0.0124361 0.000442851 0.0067522 ) 0 
( 9.29791e-05 0.00234725 0.00551318 ) 0 
( 0.000730149 0.0126131 0.00412595 ) 0 
( 0.00401163 0.0017668 0.00778411 ) 0 
( 0.00475722 0.00131629 0.00318106 ) 0 
( 0.00169733 0.000438912 0.00276417 ) 0 
( 0.00418154 0.00794367 0.00657442 ) 0 
( 0.00123692 0.00524887 0.00700813 ) 0 
( 0.00602852 0.000557882 0.00463877 ) 0 
( 0.0132908 0.00126364 0.00651361 ) 0 
( 0.00973398 0.00634646 0.00324071 ) 0 
( 0.00308122 0.00582285 0.00194707 ) 0 
( 0.00750326 0.00473439 0.0012856 ) 0 
( 0.0092401 0.00480067 0.00439501 ) 0 
( 0.00799639 0.00539799 0.00198696 ) 0 
( 0.00384925 0.00835469 0.00158827 ) 0 
( 0.00408784 0.0127068 0.0036635 ) 0 
( 0.0103242 0.00846427 0.00722398 ) 0 
( 0.013253 0.00160655 0.00135968 ) 0 
( 0.00169808 0.00981875 0.00362603 ) 0 
( 0.00667339 0.00307635 0.0019028 ) 0 
( 0.00205151 0.00639944 0.00205514 ) 0 
( 0.00544571 0.00671007 0.00576713 ) 0 
( 0.001884 0.0132167 0.00256717 ) 0 
( 0.000108855 0.00182917 0.00460525 ) 0 
( 0.000749242 0.00654441 0.0076564 ) 0 
( 0.00868005 0.00660379 0.00454385 ) 0 
( 0.00356455 0.00654828 0.00524594 ) 0 
( 4.02355e-05 0.000681322 0.005869 ) 0 
( 0.00226557 0.00766893 0.00208374 ) 0 
( 0.00361507 0.0101438 0.00130055 ) 0 
( 0.00473974 0.00769043 0.00436412 ) 0 
( 0.0012633 0.00683496 0.00600324 ) 0 
( 3.12939e-05 0.000840198 0.00472784 ) 0 
( 0.000239436 0.0124718 0.000499656 ) 0 
( 0.00583092 0.00864364 0.00555735 ) 0 
( 0.000100078 0.011783 0.00556312 ) 0 
( 0.0102251 0.00359708 0.00148345 ) 0 
( 0.00142463 0.00815299 0.00480277 ) 0 
( 0.00152114 0.00972239 0.00698792 ) 0 
( 0.0020355 0.0107424 0.0023369 ) 0 
( 0.00126142 0.00710394 0.00700501 ) 0 
( 0.0126269 0.000210844 0.00484773 ) 0 
( 0.0103981 0.00689198 0.003752 ) 0 
( 0.00827738 0.00616258 0.00535382 ) 0 
( 0.00904283 0.0040429 0.00643814 ) 0 
( 0.00196241 0.000745314 0.00184998 ) 0 
( 0.000340388 0.00560965 0.00184881 ) 0 
( 0.00897042 0.00696834 0.000499792 ) 0 
( 0.000196511 0.0125631 0.002166 ) 0 
( 0.00131633 0.00425744 0.00690576 ) 0 
( 0.00533947 0.00147394 0.00796116 ) 0 
( 0.0106504 0.00608502 0.000499535 ) 0 
( 0.00600827 0.00613183 0.00646431 ) 0 
( 0.000428651 0.0101468 0.000499789 ) 0 
( 0.0106535 0.00254419 0.0038742 ) 0 
( 0.00206439 0.0131901 0.00354956 ) 0 
( 0.0106233 0.00110978 0.000508513 ) 0 
( 0.00898199 0.00544085 0.0018287 ) 0 
( 0.00993324 0.0089115 0.00537529 ) 0 
( 0.000875199 0.00723143 0.00271826 ) 0 
( 0.00637033 0.00761936 0.00603765 ) 0 
( 0.00762747 0.00341336 0.00326668 ) 0 
( 0.00379472 0.00329544 0.00442821 ) 0 
( 0.00922504 0.000473132 0.0065373 ) 0 
( 0.0021013 0.012326 0.00296638 ) 0 
( 0.0039351 0.00612347 0.00237082 ) 0 
( 0.0123476 0.00120157 0.00478573 ) 0 
( 0.00578533 0.010084 0.00391258 ) 0 
( 0.000373466 0.0132098 0.00676826 ) 0 
( 0.0104691 0.00589588 0.00374644 ) 0 
( 0.00421392 0.00879957 0.00411134 ) 0 
( 0.00399067 0.0078785 0.00049926 ) 0 
( 0.00278834 0.00947039 0.00469584 ) 0 
( 8.04648e-06 0.0092742 0.0064749 ) 0 
( 0.0014153 0.00567676 0.00148476 ) 0 
( 0.00749576 0.00787196 0.00143039 ) 0 
( 0.0106054 0.00810954 0.00633304 ) 0 
( 0.000186044 0.00203107 0.00299324 ) 0 
( 0.00136491 0.00244907 0.0058216 ) 0 
( 0.00893529 0.00566832 0.00478638 ) 0 
( 0.00684817 0.00839301 0.00756476 ) 0 
( 0.00423867 0.011761 0.00395677 ) 0 
( 0.0131657 0.00221145 0.00230478 ) 0 
( 0.00996627 0.00759216 0.00318751 ) 0 
( 0.00176086 0.0047987 0.00112833 ) 0 
( 0.00665578 0.00702706 0.00684405 ) 0 
( 0.00480468 0.0114205 0.00471042 ) 0 
( 0.00821974 0.00700292 0.00589199 ) 0 
( 0.00405153 0.00697565 0.00448468 ) 0 
( 0.00601621 0.00439062 0.0047428 ) 0 
( 0.00539152 0.00272626 0.00447615 ) 0 
( 0.00335695 0.00225162 0.00603569 ) 0 
( 0.00603392 0.00820997 0.00399474 ) 0 
( 0.00491841 0.0113494 0.00229268 ) 0 
( 0.00372537 0.00162882 0.000499295 ) 0 
( 0.00267202 0.000370519 0.00246861 ) 0 
( 0.00922837 0.00215469 0.000783732 ) 0 
( 0.00127017 0.0126578 0.00668454 ) 0 
( 0.00524399 0.000471842 0.00295825 ) 0 
( 0.0015254 0.00388939 0.00147063 ) 0 
( 0.00691813 0.00102015 0.00778646 ) 0 
( 0.00798967 0.00382782 0.00105021 ) 0 
( 0.00302063 0.0103051 0.000499411 ) 0 
( 0.0097371 0.00804965 0.0058424 ) 0 
( 0.00838961 0.00402698 0.00306279 ) 0 
( 0.00367227 0.0045212 0.00320099 ) 0 
( 0.000240767 0.0058605 0.00540896 ) 0 
( 0.00153162 0.00678263 0.00503416 ) 0 
( 0.00286961 0.00759834 0.000499613 ) 0 
( 0.00440767 0.00484083 0.00132335 ) 0 
( 0.00514863 0.0104379 0.00602286 ) 0 
( 0.00634718 0.00719049 0.00145304 ) 0 
( 0.00396337 0.000166724 0.00116406 ) 0 
( 0.00428145 0.0108384 0.00533689 ) 0 
( 0.000181296 0.0118136 0.00383037 ) 0 
( 0.0118242 0.00256135 0.00594332 ) 0 
( 0.00157597 0.00653395 0.000996154 ) 0 
( 0.000685222 0.00133386 0.000499269 ) 0 
( 0.000996773 0.0133139 0.00598237 ) 0 
( 0.0126044 0.000683303 0.00158797 ) 0 
( 0.00684977 0.00188617 0.00624197 ) 0 
( 0.00442801 0.00338459 0.00240977 ) 0 
( 0.00489616 0.00271604 0.000499286 ) 0 
( 0.00800526 0.00321571 0.00187033 ) 0 
( 0.00959619 0.00252944 0.00313852 ) 0 
( 0.0130457 0.00281168 0.00151411 ) 0 
( 0.00673903 0.0115235 0.00325867 ) 0 
( 0.00916812 0.00498753 0.000936125 ) 0 
( 0.00503134 0.000183483 0.000976013 ) 0 
( 0.00934378 0.00645644 0.00527612 ) 0 
( 0.00910499 0.00314141 0.00600995 ) 0 
( 0.00977582 0.00112477 0.00143114 ) 0 
( 0.00218664 0.00628463 0.00562552 ) 0 
( 0.00229549 0.00938593 0.00211278 ) 0 
( 0.0108586 0.00776815 0.00388349 ) 0 
( 0.00755822 0.0053 0.00365141 ) 0 
( 0.0132483 0.00164788 0.00315081 ) 0 
( 0.00717834 0.0032252 0.00413996 ) 0 
( 0.00264196 0.0118079 0.00129887 ) 0 
( 0.00762459 0.00885685 0.00132081 ) 0 
( 0.0127829 0.00201064 0.00395917 ) 0 
( 0.00318781 0.0129615 0.00651682 ) 0 
( 0.000207628 0.00461322 0.00372868 ) 0 
( 0.00953868 0.000612563 0.0031443 ) 0 
( 0.00763245 0.0109532 0.00668307 ) 0 
( 0.00818339 0.00113276 0.00204957 ) 0 
( 0.00846348 0.00459133 0.0015246 ) 0 
( 0.00531557 0.00949968 0.00552754 ) 0 
( 0.000134071 0.00405568 0.000499121 ) 0 
( 0.00342037 0.0129058 0.0029464 ) 0 
( 0.00272698 0.0130686 0.00563603 ) 0 
( 0.00463619 0.000551063 0.00381336 ) 0 
( 0.00616838 0.0117728 0.00632363 ) 0 
( 0.000543328 0.00373985 0.00136123 ) 0 
( 0.00511018 0.00583058 0.00614387 ) 0 
( 0.00400882 0.0105915 0.000499166 ) 0 
( 0.00784877 0.00483113 0.00279722 ) 0 
( 0.00033626 0.0110906 0.00135212 ) 0 
( 0.00773696 0.00619594 0.0045134 ) 0 
( 0.000378593 0.0104412 0.00475155 ) 0 
( 0.009226 0.00823603 0.000499028 ) 0 
( 0.00778527 0.00810093 0.00265151 ) 0 
( 0.00451298 0.00438025 0.00238101 ) 0 
( 0.0117836 0.00211226 0.0041316 ) 0 
( 0.00711412 0.00937673 0.00453491 ) 0 
( 0.0130212 0.00294568 0.00583433 ) 0 
( 0.00426614 0.00999297 0.00587062 ) 0 
( 0.00977061 0.00495225 0.00220309 ) 0 
( 0.00380623 0.00696262 0.00698017 ) 0 
( 0.0110842 0.00742059 0.00579106 ) 0 
( 0.00773351 0.00415686 0.00206846 ) 0 
( 0.000243387 0.00937495 0.0014578 ) 0 
( 0.00948678 0.00939304 0.00338763 ) 0 
( 0.00340666 0.0129082 0.0013931 ) 0 
( 0.000733135 0.010197 0.00174446 ) 0 
( 0.00953768 0.00784029 0.00136157 ) 0 
( 0.00203574 0.0040583 0.00619498 ) 0 
( 0.00256794 0.00224799 0.00198589 ) 0 
( 0.0064421 0.00591048 0.00733752 ) 0 
( 0.00438004 0.0126119 0.00138268 ) 0 
( 0.00602726 0.0112883 0.00742309 ) 0 
( 0.00871856 0.00144106 0.0012627 ) 0 
( 0.00647932 0.00395135 0.00581504 ) 0 
( 0.00832247 0.0104396 0.00400626 ) 0 
( 0.0010621 0.00618137 0.00227374 ) 0 
( 0.00978732 0.00907265 0.000499803 ) 0 
( 0.00835544 0.00771692 0.0033775 ) 0 
( 0.0112337 0.00132074 0.00127091 ) 0 
( 0.000623662 0.00251258 0.00745003 ) 0 
( 0.00338517 0.0112363 0.00514145 ) 0 
( 0.0115524 0.00335565 0.00192667 ) 0 
( 0.00648752 0.00755695 0.000499608 ) 0 
( 0.00996379 0.00566224 0.00646666 ) 0 
( 0.000146792 0.00837358 0.00688522 ) 0 
( 0.0058742 0.0109537 0.0032125 ) 0 
( 0.00627706 0.00274203 0.00500842 ) 0 
( 0.00248578 0.0131128 0.00466664 ) 0 
( 0.00368599 0.00264326 0.000499797 ) 0 
( 0.0128865 0.00349196 0.00500805 ) 0 
( 0.00498188 0.0110376 0.000499775 ) 0 
( 0.00593319 0.00991938 0.00252437 ) 0 
( 0.000332728 0.00680376 0.00509089 ) 0 
( 0.00393807 0.00178929 0.00350325 ) 0 
( 0.00544089 0.00229868 0.00300727 ) 0 
( 0.00267543 0.00311452 0.00555526 ) 0 
( 0.0064265 0.0023517 0.00125266 ) 0 
( 0.00341976 0.0111653 0.00106776 ) 0 
( 0.0113742 0.00227803 0.00323466 ) 0 
( 0.00376594 0.00310891 0.0017136 ) 0 
( 0.00307381 0.00379524 0.00669772 ) 0 
( 0.00417706 0.00235921 0.0043914 ) 0 
( 0.00351668 0.00559147 0.00496028 ) 0 
( 0.0103416 0.000891889 0.00483506 ) 0 
( 0.00138741 0.0116827 0.00686307 ) 0 
( 0.01222 0.00277329 0.00683954 ) 0 
( 0.0106495 0.00797521 0.00228969 ) 0 
( 0.0127917 0.00138953 0.00049954 ) 0 
( 0.00025787 0.0132964 0.00136436 ) 0 
( 0.00573056 0.000523151 0.00630435 ) 0 
( 0.00388072 0.000516414 0.00446725 ) 0 
( 0.00940965 0.00150742 0.00484295 ) 0 
( 0.00466682 0.0125077 0.00589844 ) 0 
( 0.00305967 0.00753393 0.00663964 ) 0 
( 0.00460832 0.00617775 0.0031079 ) 0 
( 0.00660426 0.00491491 0.00722847 ) 0 
( 0.00354141 0.0026238 0.00512413 ) 0 
( 0.00298695 0.00273897 0.00120859 ) 0 
( 6.31819e-05 0.00820849 0.000498952 ) 0 
( 0.010982 0.00759325 0.00130008 ) 0 
( 0.00636539 0.0117349 0.00513255 ) 0 