FoamFile
{version 2.0; format ascii;class vectorField; location 0;object  v;}
2510
(
( 1.97099e-05 0.000159123 0.000133449 )  
( -0.000150569 -0.000264552 -4.00909e-05 )  
( -0.000196971 0.000155645 0.00162388 )  
( 0.000733387 0.000341919 0.000775592 )  
( 0.000926331 0.000221812 0.000780878 )  
( -9.35172e-05 -3.84543e-05 2.38128e-05 )  
( -0.000623332 0.000188559 8.17356e-05 )  
( -0.000167655 -0.000482458 0.000139413 )  
( 0.00152228 5.53949e-05 0.00257527 )  
( -3.26598e-05 0.000174819 0.00124167 )  
( -0.000252276 -0.000823469 0.00176416 )  
( -0.000156885 6.75673e-05 0.0010306 )  
( -0.000153646 -3.65652e-05 0.00122691 )  
( -0.000171382 0.000227189 0.00109117 )  
( -0.000273147 4.74856e-05 0.00105746 )  
( -0.000132829 0.000238677 0.00120324 )  
( -4.10708e-05 -6.95818e-05 0.0010404 )  
( -5.77213e-05 1.21937e-05 0.00168255 )  
( 7.34388e-05 -0.000919149 0.00107101 )  
( -5.93551e-05 0.000125466 0.0011899 )  
( -6.269e-05 3.80775e-05 0.000950369 )  
( 0.000150566 0.000193179 0.00116926 )  
( 9.35457e-05 -0.000147583 0.000813944 )  
( 0.0017446 0.000883248 -0.000450329 )  
( -0.00652225 0.00134263 -0.0312606 )  
( -0.000268174 0.000364199 0.00119103 )  
( -0.000167372 0.000101252 0.00113694 )  
( -8.16867e-05 -0.000242386 0.00110634 )  
( -2.64836e-06 -0.000674686 0.00129405 )  
( -0.00071901 -0.00083536 0.000932717 )  
( -0.000527791 0.0003384 0.00153461 )  
( -9.76347e-05 1.47037e-05 0.00112105 )  
( -0.000120112 -0.000250375 0.000653104 )  
( -0.000324452 -0.000195857 0.000676197 )  
( -2.60384e-05 -0.000501468 0.000488281 )  
( -8.17603e-06 -0.000485895 -0.000243468 )  
( -0.000696334 -0.000359166 0.000435615 )  
( 0.000825165 -0.000197997 0.000526296 )  
( 0.000219331 -0.000296774 0.000650652 )  
( 0.000590065 -0.000799671 0.000147699 )  
( -0.000527971 8.82203e-05 0.0010823 )  
( -1.03964e-05 0.000262596 0.000540668 )  
( 0.000673235 -0.00028571 0.000795583 )  
( -7.07822e-05 1.3768e-05 5.18027e-05 )  
( 0.000295753 -5.90713e-05 0.000197908 )  
( 2.94978e-05 0.000360846 0.000778184 )  
( -0.000369097 0.000259238 0.000101449 )  
( -0.000138111 -9.99211e-05 -0.000360649 )  
( -0.000131341 -8.9508e-06 0.000478486 )  
( -5.7131e-06 -0.000194303 0.000614111 )  
( -0.000218248 -7.86084e-05 0.000583015 )  
( -0.000288283 -0.00023294 0.000746195 )  
( -0.000133033 -0.000552648 0.000733389 )  
( 0.000325033 -0.000300617 0.000679337 )  
( -0.000183558 -0.000239244 6.90502e-05 )  
( 0.000735622 -0.00097452 -0.000415813 )  
( -8.70804e-05 -9.07349e-05 -0.00080595 )  
( 0.000368119 -0.000347409 0.00255601 )  
( 0.000355158 -0.000626206 0.000217143 )  
( -7.33319e-05 -0.000196131 2.54931e-05 )  
( 0.000358336 -8.68342e-05 0.000786907 )  
( -3.75075e-05 -5.51859e-05 0.000882004 )  
( -0.000154937 -0.000225412 -0.000155498 )  
( -0.000141619 -0.000460873 0.000616883 )  
( -0.000574075 -7.78151e-06 0.0010456 )  
( 0.000499129 -0.000374707 0.00144464 )  
( 0.000194226 -0.000427453 0.000230795 )  
( -0.000419684 0.00100366 0.00310893 )  
( 0.00037194 -0.000277576 0.000419607 )  
( -0.000451395 0.000107058 0.000339405 )  
( 0.000139009 -0.000291508 0.000687245 )  
( -0.000106548 0.000371443 -0.000103977 )  
( -0.000320198 -0.000304523 0.000559799 )  
( -0.0010868 0.000112331 0.000211352 )  
( -0.000211737 -1.64438e-05 0.000719814 )  
( 0.00027223 -0.000829527 0.000485302 )  
( -0.000258353 0.000232034 0.000357443 )  
( 0.000572793 0.00011121 0.000253386 )  
( -0.000599866 -0.000102525 0.0011546 )  
( 8.86274e-05 6.18855e-05 0.000593106 )  
( 0.000470883 0.000291347 0.000184539 )  
( 0.00030018 -0.000523001 0.000514707 )  
( -4.58308e-05 0.00021451 0.000340786 )  
( -0.000319807 8.98367e-06 0.000236477 )  
( -1.58834e-05 -0.000295047 0.000904244 )  
( 3.15249e-05 -0.000710109 0.000212721 )  
( -0.000365691 -0.00029335 0.00110306 )  
( -0.000258928 -0.00016987 0.00038501 )  
( 0.000330446 -0.000231302 0.0009477 )  
( -0.000726912 -0.000539582 0.00157885 )  
( 0.000417262 4.44988e-05 0.00072737 )  
( -0.000316674 0.000363335 5.86663e-05 )  
( -0.000178134 -0.000529394 0.000713855 )  
( -0.000195266 5.47108e-05 0.000944511 )  
( 0.00155112 -0.000229506 0.00150327 )  
( 0.000250969 -0.00016525 0.000149565 )  
( -0.000150216 -7.39342e-05 0.0004121 )  
( 0.000238611 -0.000234041 0.000106465 )  
( 5.87528e-05 -0.000401671 0.000627198 )  
( 0.000425425 0.000418238 2.5066e-05 )  
( -0.000313577 -0.000203594 0.000471145 )  
( -7.62007e-05 -0.000578765 0.000902727 )  
( -0.000151989 8.17611e-06 0.000404591 )  
( -0.000284293 7.62828e-05 0.000906882 )  
( -0.000198747 -0.000400609 0.000738964 )  
( 5.46237e-05 0.000185099 0.000307903 )  
( 0.00149504 -0.00079489 0.000643347 )  
( -0.000415694 -0.000255103 0.000711553 )  
( -0.000716026 -0.000575129 8.26298e-05 )  
( 0.000302913 1.18973e-05 0.000480741 )  
( -0.000263092 -0.000428738 5.11921e-05 )  
( -0.000333883 -0.000132196 0.000867417 )  
( 4.46703e-05 -0.00020678 0.000526913 )  
( -0.000348953 -0.000949348 0.000784587 )  
( -0.000415704 0.000128792 0.000552373 )  
( -2.88943e-05 -0.000419391 0.000707472 )  
( -0.000243008 2.00069e-06 0.00114945 )  
( 9.32567e-05 -0.000768851 0.000847141 )  
( 0.000749827 -0.000407591 0.00334542 )  
( 0.000109091 7.71098e-05 0.00076911 )  
( -0.000194562 3.31682e-06 1.60412e-05 )  
( 2.04167e-06 -0.00128467 0.00173565 )  
( 0.000120887 -0.000621705 0.000157812 )  
( 0.00012025 -9.26738e-05 2.14724e-05 )  
( -0.000224742 -0.000755239 0.00135474 )  
( 0.000159589 -0.000272509 0.000439705 )  
( 0.000597524 -0.000509697 0.000290321 )  
( -7.91517e-05 -4.08519e-05 9.71146e-05 )  
( 1.6486e-05 -0.000245172 -1.08504e-05 )  
( -0.00035627 6.49777e-05 0.000613947 )  
( -0.000302122 -0.000133566 0.00053271 )  
( -0.000291044 -0.000106989 0.000483235 )  
( 0.000163658 -0.000133923 0.000159071 )  
( 0.000511043 -0.000775781 0.00137017 )  
( -3.42994e-06 1.99178e-05 0.000124485 )  
( 0.000838265 -5.58396e-05 0.000815523 )  
( -5.37655e-05 -0.00100162 0.000390707 )  
( -0.000213717 -2.51405e-05 0.000109517 )  
( 4.76756e-05 -0.000285881 7.48349e-05 )  
( -0.000195079 4.97705e-05 -0.000109034 )  
( -0.000300882 -0.00108692 0.000665879 )  
( 0.000602084 -0.000388662 0.000585576 )  
( 0.00045337 0.00042498 0.000432194 )  
( 0.000370709 0.00050355 0.000494612 )  
( 0.000547061 0.000217646 0.000967462 )  
( -7.38234e-05 -0.000217366 0.000580073 )  
( -0.000305892 -0.000107177 0.000833456 )  
( -0.000198595 -0.000166766 0.00031406 )  
( -0.000272089 -0.000364702 0.000124638 )  
( 0.000690865 0.000123818 0.000757375 )  
( -0.000327598 0.000476677 -0.000269464 )  
( 9.24344e-05 0.000621544 0.000608173 )  
( 4.03567e-05 -9.50585e-05 -0.000111574 )  
( 1.99988e-05 -0.000235594 0.000344031 )  
( -0.000211359 0.000173636 2.09722e-05 )  
( -0.000283319 -0.000387572 0.000549639 )  
( -0.000834282 0.00239376 -0.000275572 )  
( 0.00124047 0.000689486 0.00182663 )  
( 2.79749e-05 -0.00043556 0.00044725 )  
( -0.0004095 -0.000333343 0.000328274 )  
( -0.000436038 -0.000281702 0.000500562 )  
( -0.000457158 -0.00201822 0.00478384 )  
( 4.6818e-05 -8.83336e-05 0.000339512 )  
( 0.000134534 -0.00045813 0.000231118 )  
( -0.00048942 -0.000142467 -0.000184809 )  
( 0.000167745 -0.000382975 8.46074e-06 )  
( -0.000212894 6.30139e-05 0.0011029 )  
( -7.17478e-05 0.000283885 0.000651116 )  
( 0.000139262 -0.000438356 0.000298817 )  
( -8.52129e-05 -0.000260232 0.000619333 )  
( -0.000245318 -0.00210792 -0.000794429 )  
( -0.000289408 0.000324481 0.000647594 )  
( -0.000244277 -0.00025009 0.000582386 )  
( -0.000468757 -0.000531419 6.64245e-05 )  
( -0.000490576 0.000243045 8.59444e-05 )  
( -0.000150111 -0.000129372 0.00080959 )  
( -0.000203067 2.29104e-05 0.000145878 )  
( -0.000170059 -0.00012533 0.000183913 )  
( -9.45996e-06 -0.000315995 0.000748671 )  
( -0.000241095 -0.00026772 0.00139159 )  
( 3.17517e-05 -0.000191096 0.00121921 )  
( -0.000649421 -0.000533033 6.58042e-05 )  
( 0.000172183 -0.000623205 0.000539896 )  
( 6.42605e-05 0.000189078 0.000354399 )  
( -0.00030244 -0.000332584 0.000636782 )  
( 0.000370578 0.000555646 0.00368505 )  
( 0.000218965 -0.000145299 0.00103138 )  
( 3.85935e-05 -1.30394e-05 0.000721823 )  
( 0.000360296 -0.000459948 0.00142422 )  
( -0.000318818 4.46224e-05 0.000369604 )  
( 0.000471595 -0.00020234 0.000811253 )  
( -0.000326919 -0.000161055 0.000279721 )  
( -9.62469e-05 0.000208588 9.81647e-07 )  
( -0.00037326 -0.000384451 0.000480194 )  
( 0.000619101 -0.000636388 0.000700744 )  
( 0.000919486 -0.000631942 0.00177108 )  
( -0.000101921 -0.000288634 0.000810749 )  
( -0.000152922 9.73946e-05 0.00142462 )  
( -0.000318081 -0.000126693 0.00146879 )  
( -0.000174331 0.000230125 0.000216342 )  
( -0.000103912 -7.51815e-05 3.51819e-06 )  
( -0.000950354 -0.000353512 -0.000490432 )  
( -0.000294441 -3.25156e-06 0.000367962 )  
( -0.000129435 2.53361e-05 0.000305141 )  
( -0.00011926 0.000416881 0.000592458 )  
( 0.000190699 -0.000181092 0.000404659 )  
( -5.07214e-05 5.53183e-05 0.00085369 )  
( 0.000208677 -0.000330213 0.000473892 )  
( 9.30949e-05 0.000476172 0.00115939 )  
( 0.000192693 0.000417412 0.00071421 )  
( 0.000305762 -0.000533815 0.000787742 )  
( -0.000185802 3.48296e-05 0.00018876 )  
( 0.00097821 -0.000539278 0.00135182 )  
( 0.000204704 -9.18671e-08 0.000894194 )  
( -0.000116089 3.27027e-05 0.000633605 )  
( -0.000140539 -0.0003912 0.000352207 )  
( 0.000174028 -0.000203189 0.00101931 )  
( 9.82086e-05 -9.83066e-05 4.05407e-06 )  
( 0.000261344 -0.000372287 -0.000188562 )  
( -3.16519e-05 -0.000237169 -0.00029124 )  
( -0.000179907 -0.000219094 0.000963458 )  
( 0.000166349 0.000119822 0.000809888 )  
( 0.000177582 3.17618e-05 0.00134544 )  
( -0.000235204 -0.000696301 0.00127632 )  
( 0.00014762 -7.99768e-06 0.00060522 )  
( -0.000309639 0.000269927 0.000356121 )  
( -0.000107956 0.000298845 0.000969013 )  
( -5.94777e-05 -0.00028742 0.000744702 )  
( -1.38057e-05 9.41773e-05 0.000377988 )  
( 0.00030945 0.000174748 0.0002436 )  
( 0.000457059 -0.00028936 0.000283892 )  
( -7.62457e-05 6.41893e-05 9.99559e-05 )  
( -0.000234003 -0.000116323 5.7465e-05 )  
( -0.000142464 6.07936e-05 0.00032153 )  
( 0.000200696 -0.00068332 0.000852489 )  
( -0.000132907 -0.000450188 0.00031176 )  
( -0.000208503 -0.000597958 0.000469499 )  
( -0.000277978 -0.000126833 -4.12219e-05 )  
( -0.000671948 -0.000243717 0.000966889 )  
( 0.000409796 -1.82818e-05 0.000551348 )  
( -0.000276568 -0.000480069 0.000222425 )  
( 2.12531e-05 -9.95074e-05 0.00127799 )  
( 1.55658e-05 0.00169752 0.00368526 )  
( 7.48175e-05 -0.000122652 0.000480934 )  
( -0.000931777 -0.000156943 0.00128677 )  
( -0.000609043 0.000723685 -1.24194e-05 )  
( 2.37077e-06 -0.000233147 0.000408545 )  
( -5.77173e-06 -0.000141959 5.75289e-05 )  
( 0.000476888 0.000259801 0.000256606 )  
( -8.45286e-05 -7.56082e-05 0.000110767 )  
( 0.000383175 -0.000293481 0.000943579 )  
( 0.000344153 -0.000457211 0.000453526 )  
( -0.000277914 -0.000780058 0.000282763 )  
( 8.51766e-05 2.54962e-05 0.000394861 )  
( -2.16203e-05 -0.000348023 0.000182997 )  
( 9.67576e-05 -0.00011265 3.67331e-05 )  
( -0.000211264 -0.000441472 0.0012501 )  
( 0.000131426 -0.00023862 7.5769e-05 )  
( -0.000283744 -0.000115661 0.000685748 )  
( -0.000259802 0.000102299 0.000365479 )  
( -0.000138744 -0.000364547 0.0005093 )  
( -0.000214162 0.000406965 -4.84376e-06 )  
( 4.69418e-05 -0.00035605 0.000611617 )  
( -0.000148077 -0.000669057 0.000490853 )  
( -0.00065551 -0.00128353 0.00044802 )  
( 3.83867e-05 0.000212356 0.000162505 )  
( -0.00036723 -0.0004704 7.20817e-05 )  
( -0.000249761 -0.000117479 8.44268e-05 )  
( 0.00119266 -0.000737544 0.00143378 )  
( 0.00036751 0.000511775 0.000385837 )  
( -0.000391507 -0.000551423 0.000419224 )  
( -7.5872e-05 3.08557e-05 0.000604794 )  
( -4.58554e-05 -1.15914e-05 0.000534848 )  
( -0.000201104 -0.00025912 7.90666e-05 )  
( -7.64191e-05 0.000714136 0.00061613 )  
( 0.00078216 0.000121291 0.000891803 )  
( 0.00036154 -0.000265605 0.000340624 )  
( -0.000296115 -2.69961e-05 0.000610013 )  
( -0.000111729 -0.000668968 0.00206312 )  
( -1.52157e-06 -0.000654278 0.00106286 )  
( -0.000612877 -0.000345377 -0.000246993 )  
( 0.000296321 -5.3909e-05 0.000284614 )  
( -0.000170153 0.000165734 0.000351327 )  
( -0.000111628 -3.44412e-05 0.000910821 )  
( 0.00254222 5.18713e-05 0.00184451 )  
( -0.000241982 -0.000263177 -0.000114103 )  
( -0.000139222 -0.000249703 0.000453676 )  
( -0.000114849 -0.000422212 -6.98052e-06 )  
( -0.000217033 0.000259338 2.05232e-05 )  
( -0.000321 1.34524e-05 0.000484398 )  
( -0.000342649 -9.15956e-05 0.000360902 )  
( 2.52013e-05 -2.73302e-05 7.8462e-05 )  
( -3.08503e-05 -0.000206528 0.000953456 )  
( 0.00126836 -0.000718144 0.000459073 )  
( -3.73854e-05 1.03227e-05 2.74455e-05 )  
( 0.000785146 -0.000496395 0.00134191 )  
( -0.00017838 -3.47845e-05 0.000552661 )  
( 0.000449329 -0.000435764 0.00154513 )  
( -0.000231209 -0.000656587 0.000904697 )  
( -1.40808e-05 -5.13725e-05 0.00117589 )  
( 0.000306747 0.000200594 2.58934e-06 )  
( 0.000311859 -0.000185685 2.95242e-05 )  
( -0.000149066 9.88676e-05 0.000568051 )  
( 0.000247038 -2.72954e-05 0.000910399 )  
( -0.000164763 -2.02799e-05 -2.51679e-05 )  
( 0.00244774 -0.000190087 -0.000723309 )  
( -0.000359017 -8.29766e-05 0.000949134 )  
( 1.97937e-05 2.13977e-05 0.00055625 )  
( 3.67396e-05 0.00156365 0.00207659 )  
( -0.000104248 -8.83018e-05 0.000239405 )  
( 0.000922473 0.00100543 0.00236793 )  
( -0.000273509 -0.000302082 0.000590261 )  
( 0.00011094 -0.000351202 0.00116153 )  
( 0.00017689 -0.000324399 0.000788294 )  
( 0.000416139 -0.000225346 0.000779169 )  
( 0.00119171 -0.00107236 0.00158012 )  
( -3.04941e-05 -0.000771096 0.000277484 )  
( 0.000247017 -0.00016039 6.88512e-05 )  
( 6.72324e-05 -0.000879093 0.00134757 )  
( 0.000637941 -0.000156285 0.00205764 )  
( 0.000276375 -0.000220325 0.00030081 )  
( -0.000126319 5.69738e-05 0.00064204 )  
( -0.000496691 -0.000405989 0.000450794 )  
( 4.11672e-05 -0.00108456 -0.000539111 )  
( -0.000368554 -0.000130483 0.000371519 )  
( -0.000441578 -0.000740092 0.000825796 )  
( 0.000269104 -0.000450203 0.000951666 )  
( -0.000236534 -0.000156184 0.000340537 )  
( -6.5813e-05 -0.000301098 0.000998457 )  
( 0.000219384 -0.000143141 0.000565242 )  
( -0.00051496 0.000313238 0.000945896 )  
( -0.000327093 -0.000345963 0.000105873 )  
( -0.000320398 -5.47185e-05 -5.25046e-06 )  
( 0.000344641 6.2858e-05 0.000376037 )  
( -0.000354974 -0.000172274 0.000579411 )  
( 0.000112549 -0.000396933 0.000403262 )  
( 0.000359073 -0.000207985 0.000128533 )  
( -0.000165708 -0.000607922 0.000466662 )  
( -0.000261814 -0.000408995 0.000445256 )  
( 7.95951e-05 -0.000678963 0.00051632 )  
( -3.11195e-05 -0.000307599 4.38078e-05 )  
( -0.000227115 -0.000723254 0.00107114 )  
( -0.000485538 -0.000383478 0.000446174 )  
( 3.02876e-05 -0.000290281 0.00105299 )  
( 0.000151179 -0.000236735 0.000513839 )  
( -0.000197198 0.000117519 0.00040183 )  
( 0.000175202 0.00028613 0.000538083 )  
( 0.0001872 -0.000577606 6.73991e-05 )  
( 0.000434502 -0.000571234 0.00100682 )  
( 0.000342561 0.000297376 -6.09521e-06 )  
( 0.000302048 -0.000301841 0.000480132 )  
( -0.000432141 -0.000464149 0.000714834 )  
( -0.000269635 -0.000637443 -6.9233e-05 )  
( 0.000334696 0.000358917 0.000627084 )  
( -0.000162099 0.000374957 0.000396371 )  
( 7.51944e-05 -0.000373302 0.00075404 )  
( -8.49751e-05 -0.0012252 0.00188174 )  
( -0.00059568 -0.000657135 1.56559e-05 )  
( -6.40653e-05 0.000447648 0.00087919 )  
( 0.000231489 0.000380845 9.41054e-05 )  
( 7.43143e-05 -0.00025232 0.000695049 )  
( 0.000173912 -6.03175e-05 0.000455506 )  
( -0.000375878 -0.00119517 0.00160921 )  
( 0.000156465 -0.000123058 -0.000115476 )  
( 0.000207164 -0.000341899 0.000231771 )  
( 0.000126279 0.000123068 4.46781e-05 )  
( -0.000349346 -0.00036137 0.000653584 )  
( 0.000226666 -0.000368962 0.000537793 )  
( 0.00043479 -0.000238309 0.000350587 )  
( -0.000723243 0.000144594 0.00140598 )  
( -1.94129e-05 -0.000477788 0.00105493 )  
( -2.14037e-05 -4.26118e-05 0.000184672 )  
( -0.000115617 -3.27585e-05 0.000397392 )  
( 0.000438978 -0.000301071 0.000468781 )  
( 0.00032663 -0.000412355 0.000703754 )  
( 0.000605141 -0.000421219 0.000702489 )  
( 0.000221019 -0.000266672 0.00115683 )  
( -0.000411428 -5.09601e-05 0.00042599 )  
( 0.000346661 0.000224737 0.000619332 )  
( -0.000735896 -0.000535466 -0.000528459 )  
( 0.000892386 -0.000773723 -0.000536869 )  
( -7.70651e-05 2.66422e-05 9.00941e-05 )  
( 0.000143437 0.000266448 0.000111644 )  
( -6.29075e-05 0.00014756 -0.000119785 )  
( -0.000199837 -8.44037e-05 0.000262384 )  
( 4.86651e-05 -0.000264044 0.00101475 )  
( -0.000193686 -0.000947943 0.00164249 )  
( -1.50824e-05 -0.000156345 -2.74102e-05 )  
( -0.000364868 0.00122854 0.00149507 )  
( -0.000102815 -6.04388e-05 0.000212544 )  
( 0.000318015 -0.000108984 0.00142037 )  
( -0.000574602 0.000198905 0.000631734 )  
( -0.000515014 -0.000313448 -0.000115034 )  
( 8.86459e-05 -0.000307212 0.000745391 )  
( -3.90152e-05 -0.00011671 0.000209935 )  
( -0.00143382 -0.000179459 -0.000123515 )  
( -3.5662e-05 -7.71173e-05 4.0943e-05 )  
( 5.06015e-05 0.000164685 0.000679778 )  
( -0.00215018 -0.00108387 0.00123047 )  
( -0.00121743 -0.000462601 0.00190958 )  
( -0.000562239 -0.000371994 0.000908877 )  
( -0.00021951 -0.000211197 0.000553471 )  
( 0.000106729 -0.00017976 0.000465174 )  
( -0.000132169 0.000401022 0.00102197 )  
( 2.47026e-05 -0.000209221 0.00119857 )  
( 0.000150118 -0.000338122 0.00110678 )  
( -0.000231207 8.77626e-05 0.000456063 )  
( 0.000255287 7.05374e-06 0.000493327 )  
( -5.36775e-05 -0.00027931 -9.92296e-05 )  
( 4.24189e-05 -0.000350882 0.000537272 )  
( -0.000124419 -0.000146658 -5.29156e-05 )  
( 0.000511034 -0.000156814 0.00190723 )  
( -0.000248173 -0.000111831 0.000517769 )  
( -0.000281784 0.000143267 0.000520791 )  
( -0.000107321 -0.000612934 0.000232385 )  
( 1.94389e-05 -9.01867e-05 0.000208101 )  
( -0.000126183 -0.000441367 0.000379351 )  
( -0.00029084 1.72133e-05 8.62413e-05 )  
( 5.64302e-05 -0.000191764 2.11937e-05 )  
( -9.84912e-05 9.73738e-05 -6.9806e-07 )  
( -0.000149302 -0.000241274 3.00637e-06 )  
( 0.000531648 -0.000593827 0.000276011 )  
( -0.000440683 -0.000682787 0.000641672 )  
( 8.55282e-05 -1.66226e-05 6.13514e-05 )  
( -1.53584e-05 0.000105333 0.000820702 )  
( 0.000368358 5.05859e-05 0.000312533 )  
( -0.000137913 -8.12633e-05 0.000276145 )  
( 5.13568e-05 0.000178425 0.000763385 )  
( 0.000219304 -0.000266394 5.89987e-05 )  
( -0.000308887 -0.000146573 -9.76443e-05 )  
( -0.000190728 0.00014275 0.000765611 )  
( -9.43878e-05 1.97516e-05 0.000703988 )  
( -8.62869e-05 -0.000379618 0.000295484 )  
( -0.000149011 0.000267658 0.000551186 )  
( -0.000135298 -0.000110404 0.000679674 )  
( -3.83589e-05 -0.000866073 -0.000102749 )  
( 0.000218507 0.000153882 -1.7731e-05 )  
( 5.29727e-06 5.09369e-06 0.00015261 )  
( 0.00031046 -0.000178832 0.000202472 )  
( -0.000478694 -0.000492674 -3.66249e-06 )  
( -0.000509579 -2.3217e-06 0.000522274 )  
( 7.64158e-06 1.72644e-05 0.000341332 )  
( -0.00087922 -0.000148877 0.000770707 )  
( 2.68304e-05 0.000211199 0.000203967 )  
( -0.000348449 -0.000141012 7.25859e-05 )  
( 0.000203807 -0.000334484 0.000522803 )  
( 0.00021591 -0.000103293 0.000766595 )  
( -0.000221564 -0.00116378 0.00178535 )  
( -0.000253844 -0.000294574 0.000546221 )  
( -8.89776e-05 9.53488e-05 0.000575891 )  
( 7.49204e-05 -0.000359689 0.000788003 )  
( 0.000150374 -0.000706721 0.000709346 )  
( -3.72859e-05 -9.18319e-05 8.1897e-05 )  
( 0.000170655 -0.000243434 0.00025881 )  
( 1.92965e-05 -0.000305998 -0.000149977 )  
( -0.000390708 -0.000309309 0.000990653 )  
( -0.000298686 -0.000270476 0.000797644 )  
( 0.000278076 0.000221851 -3.50341e-05 )  
( 0.000737585 -0.000453314 -0.000204775 )  
( -8.93703e-05 -0.00141737 0.00159056 )  
( -2.59545e-05 -0.000136775 -0.000139312 )  
( 0.000306388 9.18329e-05 0.000470258 )  
( -0.000141984 0.000267592 0.000759749 )  
( -0.00016738 -0.000613076 0.000490286 )  
( -0.000573207 -0.000112331 0.00112059 )  
( -0.000481036 4.89657e-07 0.00092653 )  
( -7.0093e-05 -1.43184e-05 0.000217453 )  
( -0.000713662 0.000659906 0.00081828 )  
( -0.000126569 -0.000114397 0.000116033 )  
( 1.61688e-05 -0.000221027 -0.000251317 )  
( 0.000182383 -0.00155379 0.00197923 )  
( -1.22615e-05 -8.86579e-05 0.000110454 )  
( 5.43913e-05 -0.000177698 -0.000220753 )  
( 8.38887e-05 -0.00025774 0.000142088 )  
( 0.000301385 -0.000226089 0.000394307 )  
( -5.83491e-05 0.00019006 -4.91874e-05 )  
( 0.000469996 0.000420584 0.00138923 )  
( -2.39055e-06 0.000226998 0.000107275 )  
( 5.79791e-05 0.000168247 0.00100927 )  
( 0.000122365 -0.000693908 -4.16634e-05 )  
( -0.00010778 -0.000185596 0.00063371 )  
( 0.000448432 0.000541947 0.000602042 )  
( -0.000258692 4.0623e-05 6.57449e-05 )  
( 0.000197063 -0.000254855 0.00127002 )  
( -0.000109664 0.000749126 4.99373e-05 )  
( 3.51488e-05 -0.000791688 0.0010983 )  
( -0.000226249 -0.000572798 -0.000171171 )  
( 0.000465561 -0.000192734 0.00066826 )  
( 0.000393897 -7.05865e-05 0.00084413 )  
( -0.00029988 -0.000264166 0.00108643 )  
( 6.25532e-05 -8.05347e-05 0.00078284 )  
( -0.000121625 -8.90833e-05 8.98685e-05 )  
( -0.000102864 0.000258439 0.000723717 )  
( -5.4393e-05 0.000165504 0.000544526 )  
( 0.00141805 -0.00058708 -0.000941551 )  
( 0.000223833 -0.000833293 0.00151065 )  
( 0.000184147 -0.000245289 -6.06925e-06 )  
( -0.000311184 -0.000192664 0.00176021 )  
( -0.000261291 -0.000497582 0.000577658 )  
( -0.000258291 0.000159965 0.000742745 )  
( -0.000268814 -0.000241839 0.00026859 )  
( -0.000360615 -0.000644018 0.00164036 )  
( -4.89853e-05 -7.40098e-05 -0.000104835 )  
( -8.53529e-05 1.3297e-05 0.00043215 )  
( 0.000324415 -7.82029e-05 -8.7112e-05 )  
( -3.98317e-05 -0.00026121 0.00110991 )  
( -0.000302569 -4.238e-05 0.000880142 )  
( 0.000400355 -0.000345309 0.000773101 )  
( -0.000232982 9.29593e-05 0.000266592 )  
( 0.000214149 -0.000568155 -7.39171e-05 )  
( -0.000435174 0.000151125 0.000653969 )  
( 0.000416488 -0.000473543 0.00196512 )  
( 0.000741866 0.00126947 0.00101243 )  
( -0.000285406 -0.000396341 0.00141055 )  
( -9.99794e-05 -2.46242e-05 0.000682067 )  
( -0.000234773 -1.93956e-05 0.000328847 )  
( -0.000337354 -0.000468677 0.00010814 )  
( 2.88366e-05 -0.000287492 0.000539384 )  
( -0.00023035 4.91265e-05 -9.92218e-05 )  
( -1.81354e-06 -0.00127176 -0.000924432 )  
( -0.000489626 -0.000388727 0.000667649 )  
( 0.000327683 0.0003831 0.000679826 )  
( -0.00032433 9.10111e-05 0.0010236 )  
( 0.000402328 -0.000482616 0.000777081 )  
( 0.000969184 0.000575117 0.0016544 )  
( -0.00037459 -0.000248925 0.000719001 )  
( 0.000208058 -0.000555857 0.00116519 )  
( -0.000212602 -0.000719964 0.000381182 )  
( 0.000264706 -0.000453659 0.000855939 )  
( -0.000193261 -0.000713762 0.0014946 )  
( 0.000193913 -0.000886637 0.000741909 )  
( -3.95849e-05 -8.25603e-05 0.000403586 )  
( -0.000278717 -0.000322928 0.000487208 )  
( -9.81723e-05 -0.000230776 0.000436225 )  
( -5.25045e-05 -0.000632039 3.19051e-05 )  
( 1.16529e-05 -0.000251387 0.000896352 )  
( -7.11843e-05 -0.000346737 -0.000212832 )  
( -0.000104733 -6.19985e-05 -0.000141686 )  
( 0.000119625 -0.000119815 0.000380328 )  
( -0.000287237 0.000227029 0.000682747 )  
( -1.3587e-05 -0.000173085 -0.000170908 )  
( -0.000196798 4.19576e-05 0.000542282 )  
( -0.000268108 -0.000444945 0.00015303 )  
( -0.000206292 -0.000582044 0.000268679 )  
( 0.00048176 -0.000183566 0.000868291 )  
( 2.69301e-05 -4.36067e-05 1.20788e-05 )  
( -7.92458e-05 -0.000376174 0.00100566 )  
( -0.000195225 -7.28096e-05 0.000932543 )  
( 7.96207e-05 -0.000173828 0.000757774 )  
( -0.000228922 0.000276378 0.000507386 )  
( -7.76825e-06 -2.06902e-05 0.00114588 )  
( -0.00090874 -0.000471583 0.000243279 )  
( 0.000248801 0.000104585 8.62926e-05 )  
( 0.000136914 1.91994e-05 0.000140742 )  
( 0.000527738 -0.000505628 0.00145041 )  
( -0.000545888 -0.000399372 0.00141846 )  
( -0.000225757 -8.15024e-05 5.1814e-05 )  
( 0.000311101 -0.000867698 0.000855874 )  
( -0.000517544 -0.00062902 0.0012321 )  
( 7.37546e-05 -0.000549545 0.000232724 )  
( 0.000415516 0.0001811 0.000293882 )  
( 7.68656e-05 -0.000243952 0.000201485 )  
( 0.000827276 -5.01e-06 0.000465806 )  
( -0.000274503 9.01375e-05 0.00101404 )  
( -0.000207849 0.000518698 0.00126338 )  
( -0.00030469 -0.000124715 0.000522965 )  
( -0.000756424 -0.000685658 0.000404042 )  
( -0.000727177 -0.000132622 0.000880004 )  
( -0.00118667 0.000474424 0.000446003 )  
( 0.000226237 -0.000283983 0.000389629 )  
( -0.00128511 0.00170518 -2.41473e-07 )  
( -0.000234349 -7.85457e-05 0.000331007 )  
( -0.000198151 -0.00062164 0.000711693 )  
( -0.000356794 1.87254e-05 0.00111563 )  
( -0.000192005 -0.00020791 5.90373e-05 )  
( -0.000407194 -0.000732003 0.000882481 )  
( 0.000217492 -6.29878e-05 1.47101e-05 )  
( 5.82102e-05 -8.04471e-05 0.000515222 )  
( -0.000214662 3.33335e-05 0.000107494 )  
( 0.000164787 -0.000555498 0.000554917 )  
( -1.62096e-05 -6.98596e-05 6.34498e-06 )  
( -0.000299645 0.000223217 0.000396574 )  
( 0.000391882 5.15469e-05 -0.000123374 )  
( -0.000466175 -0.000588175 0.00039833 )  
( -0.000124255 -0.000235031 0.000616562 )  
( -0.000224821 -0.00010536 0.000676761 )  
( -0.000298212 -7.81475e-05 0.00117751 )  
( 0.00112334 0.000609306 0.000857058 )  
( -0.000173413 -0.000212698 0.000641426 )  
( -0.000133646 -0.000378054 0.000781243 )  
( -0.000143258 -0.000162508 0.000600206 )  
( -0.00090673 0.000690975 0.00239899 )  
( -0.000231242 -0.000225703 0.000540698 )  
( 0.000291278 -0.000568462 0.000249105 )  
( 0.000276684 0.000544664 -2.0761e-05 )  
( 0.000615783 -0.000147005 0.000855674 )  
( 5.21192e-05 -0.00027618 0.000310929 )  
( 0.000137828 -7.89874e-05 -6.65992e-06 )  
( -3.3982e-05 -0.000204151 0.000132546 )  
( -0.000139626 0.000205762 0.000610344 )  
( 0.000210782 4.43353e-05 0.00055061 )  
( -0.000508628 1.94501e-05 0.0026587 )  
( -8.69464e-05 -0.000208712 0.000804127 )  
( -0.000202961 5.79376e-05 0.000601597 )  
( 5.63648e-05 -0.000390024 0.000470456 )  
( 0.000104988 -0.000819974 -0.000610366 )  
( -0.000603702 -4.12077e-05 0.000658722 )  
( 0.000178638 -0.000260657 6.25894e-06 )  
( -0.000284283 -0.00010686 0.000877203 )  
( 0.000111914 -0.000925371 0.00139568 )  
( -5.88061e-05 -0.00098823 0.000901742 )  
( -0.000261647 0.000551527 0.000687226 )  
( 0.000615232 0.000396399 0.000135784 )  
( 0.00022038 0.000347675 0.000211004 )  
( -5.95613e-05 -0.000429523 0.000720357 )  
( 0.000324252 -0.000140441 0.000700387 )  
( 0.000279747 0.00040886 0.000131578 )  
( -5.19887e-05 -0.000232357 0.000110252 )  
( -0.00088353 -0.00024399 0.000745104 )  
( 0.000210756 -7.78401e-05 -5.6175e-05 )  
( -0.000853623 -6.91382e-05 0.000460259 )  
( 0.000499828 -0.000169601 0.00020771 )  
( 0.00014569 -0.000304978 4.52138e-05 )  
( 0.000976271 -0.000583015 0.00252128 )  
( -0.000227748 0.000303633 -0.000483278 )  
( -2.18641e-05 -3.03005e-05 0.000145232 )  
( -0.000248152 0.000355161 0.000665439 )  
( -0.000321079 0.000177551 0.000551157 )  
( -0.000542137 -0.000110575 0.000777274 )  
( 0.000602612 -0.000736149 0.000517671 )  
( 0.000151593 -0.000432542 0.000494403 )  
( 0.000424906 0.00029726 4.77706e-05 )  
( -0.00034891 -0.000337634 0.000431397 )  
( 0.00022866 0.000262814 0.00206286 )  
( -0.000171582 -0.000200157 0.000371821 )  
( 0.0010727 0.00150736 -0.000264203 )  
( -0.000120603 -0.000477713 0.00268796 )  
( 0.000207636 6.20861e-05 0.000685363 )  
( 0.000760064 -6.8599e-05 0.00101428 )  
( 0.000214934 -7.62775e-06 0.000118691 )  
( 0.000757702 -0.000102265 0.000113119 )  
( 6.55356e-05 -6.69243e-05 -9.75084e-06 )  
( -0.000475461 -0.000178816 -0.000183226 )  
( -0.000422027 -0.000490959 0.000545115 )  
( -0.000280536 -2.17291e-05 0.000931358 )  
( -0.000260443 -0.000603644 -1.36576e-05 )  
( 9.5795e-05 -0.000244444 0.000246308 )  
( -0.000315841 0.000143086 0.000325603 )  
( 0.000684894 -0.000179938 -7.56643e-05 )  
( -0.000764481 0.000119781 0.000679046 )  
( -0.000334947 -0.000275797 -0.000584626 )  
( 7.38458e-06 0.000295471 0.000124674 )  
( 0.000118498 0.000180485 0.000780597 )  
( 0.00121408 -0.0033504 0.0079706 )  
( -0.000192445 -4.3719e-05 4.2972e-05 )  
( -0.000414732 -6.18536e-05 0.0009636 )  
( 0.000120551 2.13672e-05 0.000603975 )  
( -3.91852e-05 -0.000121415 0.000193983 )  
( 0.000126645 -6.09966e-05 0.000620423 )  
( 6.68125e-06 -0.000308705 -0.000259797 )  
( -0.00018511 -0.000545951 0.000676743 )  
( -0.000634285 0.000117056 0.000209634 )  
( -0.000218065 -0.000154083 0.000110578 )  
( 0.00129066 -0.00251235 0.00201639 )  
( -0.000207341 0.00178851 0.00132219 )  
( 6.67748e-05 -0.000770319 0.00115301 )  
( 0.000545627 -0.000306836 0.00064475 )  
( -1.18321e-05 -0.000173742 0.000482433 )  
( -4.05988e-05 -0.000644159 0.000606575 )  
( 9.10688e-05 -0.000566887 -6.33556e-05 )  
( -7.97903e-05 -0.00134891 0.000580914 )  
( 7.35808e-06 -0.000235335 3.37861e-05 )  
( -3.97201e-05 -5.79406e-05 0.000425242 )  
( 0.000448699 -6.06229e-05 0.000670999 )  
( -0.000379859 -0.0001987 0.00136908 )  
( 0.000886017 0.000103239 0.00217758 )  
( 6.76299e-05 -0.000426457 0.000456792 )  
( -0.000514801 -0.000640787 0.00133276 )  
( 0.000107078 -7.99788e-06 -1.84509e-05 )  
( 0.000262026 -0.000122827 0.000154541 )  
( 0.000113638 -0.000214351 0.000246437 )  
( -0.000607328 -0.000451803 0.000276296 )  
( 9.20244e-05 -0.00065166 0.000683334 )  
( 1.45144e-06 0.000138834 3.51856e-05 )  
( -0.00028541 -0.000293274 -0.000303503 )  
( 9.48411e-05 -6.29215e-05 0.00045512 )  
( 0.000274324 0.000200481 0.000422734 )  
( -0.000277914 -9.60687e-05 0.000457914 )  
( 0.000162768 -0.0002918 0.000571265 )  
( 0.000545134 -0.000532508 0.0026107 )  
( -0.000308885 8.44269e-05 0.000165758 )  
( -0.000691827 -0.000421866 0.00046887 )  
( -0.00045007 4.16418e-05 0.000344653 )  
( 0.000299389 -0.00022865 0.000295283 )  
( 0.000717439 -0.000776589 0.000393142 )  
( 4.69044e-05 -0.000109271 0.000554437 )  
( 1.73797e-05 -3.48024e-05 -7.11543e-05 )  
( 0.000152748 -0.000367563 0.000322989 )  
( -0.00025002 4.17369e-05 0.000154456 )  