/*--------------------------------*- C++ -*----------------------------------*\
| =========                 |                                                 |
| \\      /  F ield         | OpenFOAM: The Open Source CFD Toolbox           |
|  \\    /   O peration     | Version:  2506                                  |
|   \\  /    A nd           | Website:  www.openfoam.com                      |
|    \\/     M anipulation  |                                                 |
\*---------------------------------------------------------------------------*/
FoamFile
{
    version     2.0;
    format      ascii;
    arch        "LSB;label=32;scalar=64";
    class       surfaceScalarField;
    location    "0.1";
    object      phi;
}
// * * * * * * * * * * * * * * * * * * * * * * * * * * * * * * * * * * * * * //

dimensions      [0 3 -1 0 0 0 0];

oriented        oriented;

internalField   nonuniform List<scalar> 
3120
(
1.74567e-10
-3.63839e-09
6.4548e-08
-4.32101e-09
-3.84882e-10
-1.10029e-09
4.9945e-08
4.4037e-09
5.87989e-10
5.22057e-08
-6.8485e-09
7.39608e-08
7.14098e-10
3.77726e-09
5.21362e-08
-9.43028e-10
6.85814e-10
7.75766e-09
5.08534e-08
-1.91044e-09
3.00565e-09
6.11433e-08
-6.95154e-10
4.45578e-08
1.06004e-08
-2.61202e-09
5.02515e-08
4.129e-09
-4.85823e-09
-8.48954e-09
9.14245e-08
-3.39534e-09
-5.22569e-09
6.61027e-08
-3.17926e-09
4.70352e-08
1.0228e-09
4.98406e-08
-1.61061e-09
7.2701e-09
2.51571e-09
4.73396e-08
1.49875e-09
-1.7903e-09
6.19312e-08
-3.71515e-09
5.10557e-08
-1.09356e-09
5.30736e-09
3.27535e-09
5.15509e-08
3.20096e-09
2.23122e-09
1.77551e-09
6.27789e-08
-1.89878e-09
-2.98296e-09
6.57968e-08
9.75866e-10
7.53273e-08
1.15866e-09
3.75087e-09
4.62629e-08
4.23903e-09
-2.6374e-09
6.73163e-10
5.57518e-08
1.00302e-09
1.29077e-09
5.32291e-08
1.08646e-09
4.79791e-08
-3.46097e-10
5.00876e-09
4.47655e-08
4.57411e-09
-1.76708e-09
1.04796e-08
8.3039e-08
1.03019e-09
4.60998e-09
5.99861e-08
1.58203e-09
5.51996e-08
2.51223e-09
5.55511e-08
-3.12331e-09
-9.07394e-11
-3.01826e-09
6.72001e-08
-3.8505e-09
-1.89936e-09
6.48537e-08
5.68533e-10
4.30258e-08
3.973e-09
1.89974e-09
3.9604e-09
4.13987e-08
1.56682e-09
2.69567e-09
-3.92311e-09
7.0329e-08
-3.71866e-09
-8.26586e-10
7.70349e-08
5.975e-09
6.92111e-08
-5.43374e-09
-1.66617e-09
6.06768e-08
-3.35357e-09
3.51006e-09
-5.0358e-09
4.79207e-08
3.76204e-09
-3.77013e-09
5.59207e-08
4.40342e-10
6.07238e-08
-6.89404e-09
1.66627e-10
5.3308e-08
-3.48119e-09
4.20167e-09
1.23662e-08
5.45413e-08
5.8075e-09
5.81801e-09
4.87921e-08
-2.47021e-10
6.39439e-08
-3.85528e-09
6.73144e-08
4.25121e-09
-1.19926e-08
4.85356e-09
7.23883e-08
-1.53097e-09
2.32039e-09
6.69196e-08
6.28529e-09
4.62223e-08
3.87982e-09
5.30919e-10
2.2442e-09
5.21762e-08
-6.25096e-09
5.31003e-09
1.05162e-09
6.52717e-08
-9.48868e-10
1.52249e-09
8.5972e-08
1.12817e-09
6.95898e-08
7.8884e-10
4.07669e-09
6.00881e-08
-2.03264e-09
4.30734e-09
8.14225e-10
4.46396e-08
-4.00558e-10
1.48697e-09
6.06642e-08
2.87189e-09
5.25531e-08
-2.32856e-09
-7.16623e-09
7.58235e-08
-8.94406e-09
6.10801e-09
-8.90656e-09
5.58255e-08
6.84333e-10
-7.72664e-09
6.34294e-08
-2.47062e-09
6.64809e-08
-9.4747e-09
7.4748e-08
3.19592e-09
-8.3211e-09
8.10934e-09
3.96124e-08
6.28536e-09
7.2707e-09
5.30284e-08
7.00313e-09
6.15561e-08
-5.60258e-09
-2.70049e-09
-2.54394e-09
7.04425e-08
-6.93566e-09
-1.9895e-09
1.35313e-09
5.38644e-08
4.2075e-11
1.01016e-09
7.19525e-08
-3.72733e-10
5.32284e-08
2.14214e-09
4.93993e-09
5.64081e-08
-5.94605e-09
-2.07643e-09
-1.02382e-10
5.03137e-08
-7.05752e-10
5.2948e-09
5.50089e-08
1.67638e-09
4.303e-08
-3.36964e-09
-8.07163e-09
1.02852e-07
-1.06477e-08
1.23346e-09
2.7053e-11
5.1093e-08
-3.64058e-09
-5.11286e-09
7.87111e-08
1.50182e-09
5.62531e-08
2.81439e-09
6.48303e-08
2.5824e-09
-3.55073e-09
-1.71209e-09
4.58413e-08
-1.67536e-09
3.16807e-09
4.04372e-08
2.59822e-09
5.89373e-08
-2.18575e-09
7.27791e-09
-4.67698e-11
6.29843e-08
-8.46086e-09
-7.57126e-09
-1.51157e-09
7.41321e-08
-1.51118e-09
7.68257e-10
5.96797e-08
2.64835e-09
5.04631e-08
3.7091e-09
6.11968e-09
4.71406e-08
-6.07914e-10
-5.78917e-09
3.33888e-09
5.49615e-08
7.09266e-10
1.37131e-09
4.79074e-08
2.46745e-09
4.57773e-08
3.81639e-09
-5.75567e-09
1.12693e-07
-1.78179e-09
-1.46513e-08
-2.5642e-09
7.54638e-08
5.97321e-09
4.61629e-09
5.48416e-08
4.23185e-09
6.26239e-08
4.12641e-09
7.11153e-08
-1.64231e-08
2.56059e-10
-2.66615e-09
5.46621e-08
-4.59247e-09
3.80476e-09
4.12295e-08
-2.64687e-09
7.44832e-08
-1.70946e-09
-1.56407e-09
1.87131e-09
6.04512e-08
2.2673e-09
9.06785e-10
2.34212e-09
6.65934e-08
-4.49145e-10
1.01462e-09
5.73405e-08
5.49548e-11
5.28782e-08
-1.0659e-09
-8.75066e-09
5.86597e-08
1.68832e-10
-2.24879e-10
-2.3401e-09
5.88024e-08
-1.47949e-09
-6.28743e-10
5.08057e-08
-2.79013e-09
5.00086e-08
2.24801e-09
4.59321e-09
8.80167e-08
9.08415e-09
1.12721e-09
3.18735e-09
7.10576e-08
-3.19723e-09
-2.79781e-11
5.85653e-08
-1.93121e-09
5.86127e-08
1.85706e-09
6.78531e-08
2.00603e-09
3.99234e-09
8.68374e-10
5.6156e-08
2.68205e-09
-3.79553e-09
4.86896e-08
-2.82402e-09
6.66102e-08
2.05637e-09
-1.54832e-08
6.48575e-09
6.69505e-08
5.44354e-09
-2.33553e-08
1.05239e-08
7.1402e-08
-2.89891e-08
1.77417e-08
7.1334e-08
3.20725e-08
6.03875e-08
-1.16299e-08
1.1288e-08
5.49347e-08
1.0553e-08
-1.67943e-08
1.2688e-08
6.18024e-08
-1.49564e-08
1.64682e-08
5.024e-08
2.76294e-08
4.62479e-08
-1.1012e-08
1.20467e-08
8.711e-08
1.11601e-08
-1.27218e-08
1.39986e-08
7.14566e-08
-4.744e-09
1.61744e-08
5.0881e-08
1.90517e-08
6.35223e-08
-1.00791e-08
7.14757e-08
8.88952e-09
9.61461e-09
-1.09673e-08
5.57236e-08
1.53196e-08
-1.8117e-09
3.9348e-08
1.63605e-08
6.60839e-08
1.42027e-08
2.01003e-09
-2.51072e-09
6.11318e-08
6.20571e-09
1.16864e-08
-2.29178e-09
6.09457e-08
1.68883e-08
-5.85144e-09
5.67242e-08
-1.56292e-08
4.97134e-08
2.9244e-09
-8.73021e-09
5.87944e-08
-5.64469e-10
9.25232e-09
-5.11484e-09
5.82979e-08
7.33454e-09
-6.30552e-09
5.26117e-08
-1.46718e-08
5.03798e-08
5.94035e-09
-1.45246e-10
7.08229e-08
1.76166e-09
8.96547e-09
-3.12422e-10
6.36292e-08
1.54772e-09
-2.5465e-09
5.45397e-08
-6.25702e-09
5.72926e-08
6.40484e-09
6.50828e-08
2.09396e-09
-2.25123e-09
5.45638e-09
5.8308e-08
-1.94789e-09
-5.09486e-09
5.26221e-08
-5.26915e-09
6.02452e-08
-2.11985e-10
2.85053e-09
-2.43164e-09
5.94e-08
8.86838e-10
6.40765e-09
-2.27654e-09
5.84975e-08
6.47882e-09
-3.71351e-09
5.57161e-08
-6.82808e-09
5.26328e-08
3.19642e-09
-5.25898e-09
5.96521e-08
-1.2269e-09
5.24207e-09
-4.30709e-09
5.82827e-08
3.38491e-09
-4.80333e-09
5.5558e-08
-7.76385e-09
5.42364e-08
4.13877e-09
-1.3582e-09
6.32061e-08
-4.2294e-10
5.03245e-09
-2.01796e-09
6.04468e-08
1.18033e-09
-3.48806e-09
5.70763e-08
-5.36199e-09
5.72338e-08
3.58004e-09
6.20273e-08
-5.2117e-10
-1.36167e-09
2.91483e-09
5.96196e-08
-2.66431e-09
-1.57391e-09
5.74924e-08
-3.8693e-09
5.90059e-08
-2.23359e-09
2.39667e-09
-1.7706e-09
5.90346e-08
-7.28086e-10
3.71429e-09
-1.91757e-09
5.82668e-08
3.37644e-09
-2.766e-09
5.67207e-08
-4.25246e-09
5.52452e-08
2.30069e-09
-2.78482e-09
5.95248e-08
-1.15922e-09
2.92423e-09
-2.84178e-09
5.85838e-08
1.90429e-09
-3.41118e-09
5.72228e-08
-4.69459e-09
5.6444e-08
2.23546e-09
-1.70224e-09
6.07316e-08
-8.43502e-10
2.41953e-09
-2.16487e-09
5.95859e-08
7.76952e-10
-2.93975e-09
5.82474e-08
-3.7998e-09
5.80072e-08
1.78948e-09
6.07644e-08
-1.28334e-09
-9.45548e-10
1.47285e-09
5.98112e-08
-2.03975e-09
-3.40189e-10
5.88854e-08
-2.51964e-09
5.90929e-08
-2.28863e-09
1.59149e-09
-1.084e-09
5.91352e-08
-8.58153e-10
2.04151e-09
-1.27213e-09
5.86222e-08
1.68769e-09
-1.74527e-09
5.78311e-08
-2.45827e-09
5.71334e-08
1.40332e-09
-1.55234e-09
5.94618e-08
-8.71851e-10
1.56049e-09
-1.77578e-09
5.89303e-08
9.67841e-10
-2.19265e-09
5.82627e-08
-2.81947e-09
5.78478e-08
1.17709e-09
-1.30816e-09
6.00017e-08
-6.91331e-10
1.14759e-09
-1.63154e-09
5.94711e-08
3.65028e-10
-2.05205e-09
5.88892e-08
-2.50342e-09
5.8702e-08
8.49907e-10
6.02085e-08
-1.06935e-09
-5.3277e-10
6.71835e-10
5.97897e-08
-1.4321e-09
-1.59021e-10
5.93749e-08
-1.71082e-09
5.93719e-08
-1.79884e-09
9.19526e-10
-5.98058e-10
5.9347e-08
-6.15894e-10
1.03585e-09
-7.45595e-10
5.90452e-08
7.70273e-10
-1.00453e-09
5.86521e-08
-1.3507e-09
5.83284e-08
7.68909e-10
-8.8943e-10
5.95309e-08
-5.46704e-10
7.70993e-10
-1.06548e-09
5.9248e-08
4.19934e-10
-1.31638e-09
5.89253e-08
-1.63191e-09
5.8722e-08
5.92097e-10
-8.67164e-10
5.98027e-08
-4.15558e-10
5.16976e-10
-1.0693e-09
5.95499e-08
1.03398e-10
-1.30393e-09
5.92902e-08
-1.54947e-09
5.919e-08
3.84348e-10
5.99821e-08
-7.52932e-10
-2.72296e-10
2.60083e-10
5.97903e-08
-9.45769e-10
-1.61296e-10
5.96086e-08
-1.11642e-09
5.95931e-08
-1.22259e-09
4.8886e-10
-3.19891e-10
5.9537e-08
-3.68845e-10
4.97353e-10
-4.18726e-10
5.93714e-08
3.24047e-10
-5.6243e-10
5.91793e-08
-7.3954e-10
5.90315e-08
3.88059e-10
-5.07459e-10
5.96352e-08
-3.05047e-10
3.50721e-10
-6.2281e-10
5.94894e-08
1.43803e-10
-7.66541e-10
5.93362e-08
-9.32634e-10
5.92437e-08
2.72076e-10
-5.41578e-10
5.97797e-08
-2.15116e-10
2.03513e-10
-6.63332e-10
5.96591e-08
-2.07048e-11
-7.95612e-10
5.95435e-08
-9.28926e-10
5.95017e-08
1.47613e-10
5.99033e-08
-4.93225e-10
-1.17185e-10
5.9541e-11
5.98166e-08
-6.0129e-10
-1.62702e-10
5.97395e-08
-7.04218e-10
5.97393e-08
-7.79207e-10
2.42425e-10
-1.71901e-10
5.96779e-08
-1.99166e-10
2.23549e-10
-2.33986e-10
5.95911e-08
1.16279e-10
-3.1507e-10
5.9499e-08
-4.10526e-10
5.94341e-08
1.79264e-10
-2.90709e-10
5.97292e-08
-1.54267e-10
1.40699e-10
-3.61983e-10
5.96563e-08
2.08025e-11
-4.44442e-10
5.95855e-08
-5.34017e-10
5.9548e-08
1.0793e-10
-3.30869e-10
5.98082e-08
-9.60367e-11
5.58784e-11
-4.02376e-10
5.97521e-08
-6.88344e-11
-4.7866e-10
5.97028e-08
-5.51521e-10
5.9691e-08
3.46868e-11
5.9886e-08
-3.14504e-10
-3.34706e-11
-2.25183e-11
5.98488e-08
-3.76845e-10
-1.45521e-10
5.98206e-08
-4.36424e-10
5.983e-08
-4.8335e-10
1.10255e-10
-9.49088e-11
5.97741e-08
-9.79971e-11
8.9413e-11
-1.32906e-10
5.97303e-08
2.55176e-11
-1.79754e-10
5.96875e-08
-2.33161e-10
5.96609e-08
7.17392e-11
-1.68906e-10
5.98008e-08
-6.87978e-11
4.16422e-11
-2.11723e-10
5.97659e-08
-2.74763e-11
-2.5962e-10
5.97349e-08
-3.09109e-10
5.97227e-08
2.90201e-11
-2.01963e-10
5.98446e-08
-3.174e-11
-6.48257e-12
-2.4343e-10
5.98201e-08
-7.73501e-11
-2.86921e-10
5.98014e-08
-3.27613e-10
5.98027e-08
-1.43739e-11
5.98924e-08
-1.97868e-10
4.46366e-12
-5.19713e-11
5.98783e-08
-2.34584e-10
-1.20034e-10
5.98713e-08
-2.69039e-10
5.98839e-08
-2.96611e-10
4.31646e-11
-5.48803e-11
5.98371e-08
-4.23404e-11
2.67423e-11
-7.79334e-11
5.9816e-08
-1.03304e-11
-1.05704e-10
5.9797e-08
-1.36303e-10
5.97876e-08
1.98433e-11
-1.00577e-10
5.98511e-08
-2.38834e-11
-1.05229e-12
-1.25938e-10
5.98354e-08
-4.10335e-11
-1.53786e-10
5.98233e-08
-1.81923e-10
5.98219e-08
-5.91392e-12
-1.23654e-10
5.98759e-08
-1.7184e-12
-2.93692e-11
-1.48132e-10
5.98663e-08
-6.94857e-11
-1.73099e-10
5.98614e-08
-1.96107e-10
5.98673e-08
-3.13367e-11
5.99048e-08
-1.24628e-10
2.06407e-11
-5.55855e-11
5.99012e-08
-1.46154e-10
-9.36678e-11
5.99027e-08
-1.65971e-10
5.99149e-08
-1.81728e-10
1.10912e-11
-3.37314e-11
5.98772e-08
-1.38766e-11
-4.13677e-13
-4.77468e-11
5.98678e-08
-2.20431e-11
-6.42886e-11
5.98602e-08
-8.22671e-11
5.98583e-08
-3.12361e-12
-6.14638e-11
5.98849e-08
-2.5129e-12
-1.71188e-11
-7.66241e-11
5.98787e-08
-4.0107e-11
-9.29645e-11
5.98752e-08
-1.09238e-10
5.98778e-08
-1.86163e-11
-7.67872e-11
5.98992e-08
1.11532e-11
-3.37932e-11
-9.12104e-11
5.98967e-08
-5.66213e-11
-1.05645e-10
5.98973e-08
-1.18778e-10
5.99041e-08
-3.36745e-11
5.99166e-08
-7.90672e-11
2.45856e-11
-4.90399e-11
5.99176e-08
-9.16114e-11
-7.04921e-11
5.9922e-08
-1.02919e-10
5.99324e-08
-1.11764e-10
-2.92822e-12
-2.19957e-11
5.99024e-08
-5.71419e-13
-1.08028e-11
-3.05897e-11
5.98988e-08
-2.33364e-11
-4.04962e-11
5.98967e-08
-5.11677e-11
5.98978e-08
-1.16721e-11
-3.86948e-11
5.99069e-08
6.56099e-12
-2.08182e-11
-4.78002e-11
5.99053e-08
-3.40734e-11
-5.74356e-11
5.99056e-08
-6.69237e-11
5.99094e-08
-2.10339e-11
-4.85044e-11
5.99154e-08
1.49087e-11
-3.06894e-11
-5.69987e-11
5.9916e-08
-4.37367e-11
-6.53478e-11
5.99187e-08
-7.28578e-11
5.9925e-08
-2.9961e-11
5.99261e-08
-5.06441e-11
2.29712e-11
-3.95783e-11
5.99288e-08
-5.78929e-11
-5.17244e-11
5.99337e-08
-6.42751e-11
5.9942e-08
-6.91414e-11
-7.95582e-12
-1.50492e-11
5.9918e-08
4.85953e-12
-1.32441e-11
-2.03256e-11
5.99173e-08
-2.05252e-11
-2.6254e-11
5.99176e-08
-3.2569e-11
5.99199e-08
-1.33411e-11
-2.49922e-11
5.99209e-08
9.28776e-12
-1.92499e-11
-3.04554e-11
5.99214e-08
-2.68869e-11
-3.61243e-11
5.99232e-08
-4.16501e-11
5.9927e-08
-1.89944e-11
-3.10849e-11
5.99262e-08
1.4374e-11
-2.50856e-11
-3.60676e-11
5.9928e-08
-3.25358e-11
-4.08656e-11
5.99313e-08
-4.51329e-11
5.99366e-08
-2.4277e-11
5.9933e-08
-3.26723e-11
1.92345e-11
-3.02479e-11
5.99361e-08
-3.68174e-11
-3.71186e-11
5.99406e-08
-4.03653e-11
5.99471e-08
-4.29794e-11
-8.63286e-12
-1.05147e-11
5.99274e-08
6.21147e-12
-1.2135e-11
-1.37287e-11
5.99281e-08
-1.63211e-11
-1.72394e-11
5.99295e-08
-2.09314e-11
5.99321e-08
-1.19243e-11
-1.63286e-11
5.99295e-08
8.93982e-12
-1.57004e-11
-1.95747e-11
5.99309e-08
-2.00458e-11
-2.2876e-11
5.99332e-08
-2.60661e-11
5.99368e-08
-1.53078e-11
-2.0002e-11
5.99331e-08
1.20212e-11
-1.91189e-11
-2.28955e-11
5.99353e-08
-2.33206e-11
-2.56159e-11
5.99385e-08
-2.80098e-11
5.99429e-08
-1.84115e-11
5.99377e-08
-2.10449e-11
1.49532e-11
-2.2087e-11
5.99406e-08
-2.338e-11
-2.59255e-11
5.99446e-08
-2.53104e-11
5.99497e-08
-2.66783e-11
-7.35154e-12
-7.23964e-12
5.99329e-08
5.6067e-12
-9.58392e-12
-9.14768e-12
5.99341e-08
-1.19096e-11
-1.11848e-11
5.9936e-08
-1.33126e-11
5.99385e-08
-9.31417e-12
-1.05282e-11
5.99345e-08
7.25227e-12
-1.16591e-11
-1.2412e-11
5.99363e-08
-1.40599e-11
-1.42945e-11
5.99387e-08
-1.61026e-11
5.99419e-08
-1.12953e-11
-1.26562e-11
5.99372e-08
9.08113e-12
-1.36223e-11
-1.42996e-11
5.99395e-08
-1.59256e-11
-1.58046e-11
5.99424e-08
-1.71159e-11
5.99462e-08
-1.30846e-11
5.99405e-08
-1.32877e-11
1.08236e-11
-1.52932e-11
5.99432e-08
-1.45602e-11
-1.73769e-11
5.99466e-08
-1.55727e-11
5.99508e-08
-1.6261e-11
-5.47114e-12
-4.81537e-12
5.99359e-08
4.30875e-12
-6.78773e-12
-5.88897e-12
5.99373e-08
-8.00598e-12
-7.02452e-12
5.99393e-08
-8.20675e-12
5.99417e-08
-6.58269e-12
-6.5449e-12
5.99373e-08
5.25618e-12
-7.94987e-12
-7.57671e-12
5.99391e-08
-9.20416e-12
-8.59781e-12
5.99415e-08
-9.57062e-12
5.99444e-08
-7.68219e-12
-7.68109e-12
5.99395e-08
6.28456e-12
-9.02588e-12
-8.55808e-12
5.99417e-08
-1.02168e-11
-9.34061e-12
5.99444e-08
-1.00124e-11
5.99476e-08
-8.65831e-12
5.99422e-08
-8.0124e-12
7.26547e-12
-9.91801e-12
5.99446e-08
-8.65507e-12
-1.0982e-11
5.99476e-08
-9.13892e-12
5.99511e-08
-9.44702e-12
-4.08541e-12
-3.41013e-12
3.31842e-12
-4.82646e-12
-3.98427e-12
-5.46298e-12
-4.59153e-12
-5.20807e-12
-4.68648e-12
-4.22459e-12
3.85066e-12
-5.45264e-12
-4.74187e-12
-6.09188e-12
-5.2557e-12
-5.73488e-12
-5.25264e-12
-4.73972e-12
4.38445e-12
-6.00605e-12
-5.1496e-12
-6.6017e-12
-5.51202e-12
-5.81066e-12
-5.73127e-12
-4.85199e-12
4.87104e-12
-6.44557e-12
-5.11798e-12
-6.97007e-12
-5.30245e-12
-5.39893e-12
2.77449e-09
-5.92957e-10
2.57507e-08
6.22306e-09
-2.56485e-09
-1.8777e-09
5.69052e-08
1.0401e-09
5.55633e-09
4.48891e-08
-5.51087e-09
6.21689e-08
8.10238e-10
3.43267e-09
3.13339e-08
7.12237e-09
1.21974e-09
4.18254e-09
4.98004e-08
-9.10087e-09
5.63686e-09
7.56249e-08
7.8196e-09
4.29216e-08
1.0004e-09
5.77012e-09
4.31336e-08
4.11139e-09
1.61991e-09
-4.01491e-09
7.17002e-08
-4.70397e-09
-1.06913e-09
8.68918e-08
8.69024e-09
7.58514e-08
-1.80635e-09
5.75104e-08
8.4265e-09
2.19437e-09
6.39486e-08
4.29275e-10
8.26618e-08
1.06788e-07
1.1689e-09
2.56738e-09
1.60287e-08
2.86244e-09
-3.12574e-10
-2.67258e-09
5.72087e-08
2.10515e-10
-4.06908e-10
4.53414e-08
4.05989e-09
6.49839e-08
-4.61959e-10
2.62891e-09
3.08565e-08
8.7787e-10
9.19667e-10
3.59703e-09
4.21491e-08
3.53314e-09
6.44488e-09
6.61596e-08
-1.15726e-09
5.48707e-08
9.91063e-10
2.70098e-09
4.16331e-08
4.37331e-10
2.15594e-09
-5.16432e-09
7.92966e-08
2.06096e-09
2.92011e-09
9.05115e-08
-1.41318e-09
8.09843e-08
-1.5704e-09
5.70001e-08
2.73534e-09
6.21317e-09
5.32242e-08
1.78409e-09
9.0943e-08
1.08916e-07
-5.69723e-09
-8.99758e-09
4.47551e-08
-9.78035e-09
6.11938e-09
5.46802e-09
3.83931e-08
1.14308e-09
-3.51316e-09
6.01161e-08
4.34821e-09
7.02215e-08
2.67107e-09
-4.46423e-09
2.75114e-08
-3.85936e-09
4.38429e-10
-7.97844e-09
5.78282e-08
6.67174e-09
-1.22986e-09
5.7643e-08
8.51224e-09
6.60363e-08
1.47443e-09
-8.69819e-09
4.82711e-08
-3.87842e-09
3.15886e-09
1.46939e-09
6.81643e-08
1.33591e-08
-7.65224e-09
8.67336e-08
-8.34099e-09
1.17367e-07
3.68928e-09
5.26565e-08
-5.71973e-09
-2.85247e-11
5.89732e-08
1.13269e-08
7.38613e-08
1.1042e-07
1.60381e-09
-3.89401e-09
5.75842e-08
-7.34291e-09
3.06592e-09
-1.06808e-09
4.42845e-08
-2.05921e-09
-4.32641e-09
7.65708e-08
-8.10805e-10
5.8656e-08
-4.74889e-10
-8.24475e-09
3.30247e-08
-6.87712e-10
-1.07466e-09
-9.13514e-09
6.6495e-08
1.1745e-09
-4.42052e-09
5.5488e-08
5.20091e-09
5.61617e-08
9.49409e-10
3.54437e-09
3.50564e-08
4.76079e-10
2.44068e-09
8.33696e-09
4.9201e-08
1.07394e-08
1.00251e-09
7.30118e-08
2.08486e-09
1.15488e-07
5.65831e-10
5.47547e-08
6.16064e-10
-1.92555e-09
6.97094e-08
5.16782e-09
6.82003e-08
1.13106e-07
-2.14314e-09
-8.30331e-09
7.29987e-08
-2.38566e-09
-1.65288e-10
-7.05012e-09
4.76814e-08
-7.96841e-10
-1.66765e-10
7.99673e-08
2.26674e-09
4.83447e-08
-1.8907e-09
-2.83879e-09
3.13152e-08
-1.86424e-09
3.81664e-09
5.50065e-09
4.82369e-08
3.3315e-09
-6.02291e-09
6.18292e-08
-1.9887e-08
7.96721e-08
1.52657e-09
-1.79823e-09
3.37994e-08
-1.31011e-09
-1.40858e-09
-4.24747e-09
6.18842e-08
-1.04685e-09
1.67458e-08
4.98814e-08
6.98748e-09
6.72929e-08
4.51322e-10
5.7152e-08
-3.32165e-09
6.29946e-09
6.02819e-08
-7.71203e-09
9.8338e-08
1.06551e-07
2.05104e-09
1.24626e-09
4.522e-08
8.05849e-09
-2.9274e-09
7.64548e-11
4.79909e-08
6.3264e-09
4.06076e-09
6.40059e-08
-9.81924e-09
6.22366e-08
1.72615e-10
2.53343e-09
2.926e-08
5.95335e-10
-1.72297e-09
5.74865e-09
4.44603e-08
-3.04801e-09
2.75534e-09
6.44597e-08
-7.90055e-10
6.14052e-08
4.80945e-10
-5.13822e-09
4.31433e-08
-2.1532e-09
-4.43661e-09
-6.02459e-09
7.8575e-08
-1.40084e-09
-1.10151e-08
6.0616e-08
-1.20529e-08
6.87035e-08
4.9894e-10
5.69792e-08
-4.71331e-09
-9.07364e-09
6.63436e-08
-8.70232e-09
8.74608e-08
6.85139e-08
3.51013e-09
5.57341e-09
3.74824e-08
6.60234e-10
4.2981e-10
6.68515e-09
4.70682e-08
-1.26449e-10
3.02723e-10
6.14354e-08
2.79808e-09
6.28088e-08
-1.76693e-09
3.06831e-10
3.87973e-08
-2.50371e-09
-4.58918e-09
4.3788e-09
4.9589e-08
-1.44679e-09
2.15712e-09
5.94632e-08
1.04852e-09
6.28108e-08
-3.58917e-09
-6.38249e-09
5.44103e-08
-9.88347e-10
-1.07894e-09
8.98104e-09
7.14627e-08
-2.9415e-09
-1.93195e-09
6.65678e-08
6.07925e-09
6.20614e-08
-2.16877e-10
5.37834e-08
-1.59703e-09
-2.33887e-09
7.39471e-08
1.33957e-09
8.42448e-08
7.3454e-08
1.24731e-10
9.65844e-09
3.6833e-08
-2.41837e-10
-4.11893e-09
1.6109e-08
5.05227e-08
-1.61781e-09
1.49938e-08
6.03014e-08
6.34561e-09
6.54939e-08
6.67685e-10
5.35779e-09
4.25178e-08
-8.73206e-11
-5.36669e-09
1.19426e-08
5.9789e-08
-6.65341e-09
1.12261e-08
6.45183e-08
4.7952e-10
5.6184e-08
1.15147e-09
1.05219e-08
4.806e-08
3.47316e-11
-5.29525e-09
9.30633e-09
8.0546e-08
-7.68859e-09
2.96296e-09
7.72255e-08
-1.69272e-08
6.43934e-08
-2.87795e-10
6.6126e-08
-1.53311e-09
-8.27857e-09
9.1245e-08
-1.23525e-08
9.12824e-08
2.8637e-08
1.63007e-09
1.39065e-09
3.73506e-08
-1.44334e-09
1.92169e-09
-2.08615e-09
5.03702e-08
-7.721e-10
-7.44081e-10
5.84704e-08
7.41913e-09
6.25568e-08
8.856e-10
1.81664e-10
4.41142e-08
-1.27259e-09
3.53532e-09
-4.30658e-09
5.93601e-08
2.69678e-09
-7.90746e-10
6.54042e-08
8.39938e-09
6.47077e-08
-6.13823e-10
-3.13517e-09
5.20237e-08
-3.32004e-11
4.82392e-09
-2.2367e-09
7.30391e-08
5.2544e-09
-4.15027e-10
7.6421e-08
1.60752e-08
7.03794e-08
-2.77426e-10
6.21356e-08
1.13243e-09
6.27089e-09
8.24606e-08
1.01216e-08
8.70178e-08
6.44972e-08
6.54477e-10
-7.08302e-10
3.70768e-08
-1.92761e-10
1.01065e-09
-2.61767e-09
4.99678e-08
-5.2062e-10
-1.88187e-09
5.80147e-08
1.45738e-09
6.23964e-08
1.45045e-10
-1.25812e-09
4.46378e-08
-1.18526e-10
1.71814e-09
-3.45915e-09
5.86286e-08
9.63387e-10
-2.08069e-09
6.63583e-08
2.73176e-09
6.90437e-08
-6.18603e-10
-1.48201e-09
5.24596e-08
4.06393e-10
2.42116e-09
-1.79363e-09
6.83342e-08
2.31153e-09
-1.23015e-09
7.56807e-08
5.07687e-09
7.57478e-08
-6.54907e-10
6.04827e-08
8.25585e-10
3.01233e-09
7.70002e-08
4.26299e-09
8.45377e-08
7.93248e-08
2.2269e-10
-1.18095e-09
3.65747e-08
1.77409e-10
4.4009e-10
-1.86899e-09
4.95798e-08
-4.49724e-10
-1.72004e-09
5.81052e-08
-5.92489e-10
6.26499e-08
3.18467e-11
-1.03221e-09
4.42413e-08
2.15898e-10
6.78816e-10
-1.78728e-09
5.78997e-08
4.28748e-11
-1.37562e-09
6.66502e-08
5.31372e-10
7.06653e-08
-2.01373e-10
-6.62944e-10
5.19218e-08
3.69434e-10
9.1294e-10
-9.61146e-10
6.63936e-08
6.10201e-10
-7.11215e-10
7.53194e-08
1.46858e-09
7.83477e-08
-2.69485e-10
5.96046e-08
4.84319e-10
1.1327e-09
7.46371e-08
1.28566e-09
8.3674e-08
8.49979e-08
-4.88109e-11
-9.68036e-10
3.62892e-08
2.33151e-10
2.59093e-11
-1.27873e-09
4.93518e-08
-4.52718e-10
-1.32921e-09
5.82022e-08
-9.98826e-10
6.28198e-08
-1.26693e-10
-7.54471e-10
4.39078e-08
2.46549e-10
9.86139e-11
-1.04258e-09
5.7438e-08
-2.56193e-10
-9.67166e-10
6.6643e-08
-2.29152e-10
7.12345e-08
-2.01502e-10
-4.27014e-10
5.15142e-08
2.81316e-10
1.86114e-10
-5.76515e-10
6.55397e-08
-6.4945e-11
-4.70663e-10
7.50741e-08
3.46411e-10
7.9402e-08
-2.37141e-10
5.91072e-08
3.0725e-10
2.67201e-10
7.35563e-08
1.11252e-10
8.33596e-08
8.71882e-08
-1.31497e-10
-6.69379e-10
3.61345e-08
2.02654e-10
-1.32635e-10
-8.29271e-10
4.92366e-08
-3.9257e-10
-9.04493e-10
5.82502e-08
-8.47736e-10
6.29169e-08
-1.62535e-10
-5.0693e-10
4.37048e-08
2.03187e-10
-1.12942e-10
-6.38571e-10
5.71977e-08
-3.30821e-10
-6.39166e-10
6.65956e-08
-4.0896e-10
7.14258e-08
-1.86669e-10
-2.80284e-10
5.12669e-08
2.0727e-10
-8.46657e-11
-3.50957e-10
6.515e-08
-2.4473e-10
-3.15653e-10
7.49108e-08
-3.68711e-11
7.9801e-08
-2.01636e-10
5.88183e-08
2.10222e-10
-6.04997e-11
7.30644e-08
-1.74422e-10
8.31581e-08
8.80241e-08
-1.42957e-10
-4.33923e-10
3.60615e-08
1.56787e-10
-1.70827e-10
-5.23791e-10
4.91873e-08
-3.14067e-10
-5.85938e-10
5.82754e-08
-6.02319e-10
6.29672e-08
-1.55635e-10
-3.25564e-10
4.35984e-08
1.54007e-10
-1.67536e-10
-3.94831e-10
5.70809e-08
-3.00418e-10
-4.14783e-10
6.65576e-08
-3.58805e-10
7.14747e-08
-1.62567e-10
-1.78914e-10
5.11318e-08
1.51227e-10
-1.57373e-10
-2.15858e-10
6.49661e-08
-2.69476e-10
-2.08767e-10
7.48172e-08
-1.22179e-10
7.99163e-08
-1.68432e-10
5.86586e-08
1.49269e-10
-1.52038e-10
7.28323e-08
-2.44756e-10
8.30422e-08
8.82942e-08
-1.26505e-10
-2.73713e-10
3.60316e-08
1.15897e-10
-1.58723e-10
-3.27593e-10
4.91708e-08
-2.39257e-10
-3.71899e-10
5.82918e-08
-3.99187e-10
6.29918e-08
-1.3226e-10
-2.04167e-10
4.35482e-08
1.1329e-10
-1.60125e-10
-2.45239e-10
5.70271e-08
-2.39868e-10
-2.67367e-10
6.65333e-08
-2.64589e-10
7.1475e-08
-1.33836e-10
-1.11784e-10
5.10638e-08
1.09924e-10
-1.56859e-10
-1.33766e-10
6.48782e-08
-2.30367e-10
-1.37813e-10
7.47616e-08
-1.17412e-10
7.99273e-08
-1.36135e-10
5.85756e-08
1.07708e-10
-1.56448e-10
7.27192e-08
-2.23306e-10
8.29714e-08
8.8349e-08
-1.01901e-10
-1.70344e-10
3.60219e-08
8.44148e-11
-1.29978e-10
-2.03617e-10
4.91685e-08
-1.76303e-10
-2.33411e-10
5.8303e-08
-2.55854e-10
6.3003e-08
-1.04809e-10
-1.26106e-10
4.35272e-08
8.21446e-11
-1.32247e-10
-1.52133e-10
5.70037e-08
-1.79715e-10
-1.70692e-10
6.65186e-08
-1.80564e-10
7.1462e-08
-1.04829e-10
-6.8644e-11
5.10323e-08
7.9459e-11
-1.31367e-10
-8.28711e-11
6.48361e-08
-1.77304e-10
-8.98211e-11
7.47272e-08
-8.90114e-11
7.99066e-08
-1.05765e-10
5.85354e-08
7.78558e-11
-1.32091e-10
7.26631e-08
-1.75805e-10
8.29257e-08
8.83352e-08
-7.80326e-11
-1.05659e-10
3.60208e-08
6.06587e-11
-9.99012e-11
-1.26367e-10
4.91713e-08
-1.27027e-10
-1.45721e-10
5.83105e-08
-1.61343e-10
6.30073e-08
-7.95346e-11
-7.73819e-11
4.352e-08
5.90236e-11
-1.0179e-10
-9.42219e-11
5.69944e-08
-1.30018e-10
-1.08025e-10
6.65098e-08
-1.1838e-10
7.14478e-08
-7.91272e-11
-4.17566e-11
5.10194e-08
5.7103e-11
-1.01562e-10
-5.12012e-11
6.48163e-08
-1.29566e-10
-5.76709e-11
7.47057e-08
-6.1491e-11
7.98815e-08
-7.94904e-11
5.85176e-08
5.60538e-11
-1.02247e-10
7.26352e-08
-1.29487e-10
8.28958e-08
8.83065e-08
-5.79847e-11
-6.57938e-11
3.60227e-08
4.32935e-11
-7.40515e-11
-7.86503e-11
4.91751e-08
-9.01656e-11
-9.0929e-11
5.83153e-08
-1.01067e-10
6.30084e-08
-5.87098e-11
-4.75027e-11
4.35189e-08
4.21643e-11
-7.53056e-11
-5.83871e-11
5.69914e-08
-9.21521e-11
-6.80048e-11
6.65045e-08
-7.5986e-11
7.1436e-08
-5.8207e-11
-2.53303e-11
5.10152e-08
4.08409e-11
-7.51633e-11
-3.1578e-11
6.48073e-08
-9.20621e-11
-3.66166e-11
7.46921e-08
-4.06054e-11
7.98605e-08
-5.82996e-11
5.8511e-08
4.01596e-11
-7.55812e-11
7.26215e-08
-9.21854e-11
8.28765e-08
8.828e-08
-4.22192e-11
-4.12779e-11
3.60253e-08
3.07509e-11
-5.36045e-11
-4.92056e-11
4.91785e-08
-6.32816e-11
-5.6856e-11
5.83183e-08
-6.31919e-11
6.30081e-08
-4.24967e-11
-2.92953e-11
4.352e-08
2.99676e-11
-5.43117e-11
-3.6265e-11
5.69911e-08
-6.44153e-11
-4.27048e-11
6.65014e-08
-4.82299e-11
7.14273e-08
-4.20019e-11
-1.53863e-11
5.10149e-08
2.90554e-11
-5.41195e-11
-1.94667e-11
6.48035e-08
-6.42891e-11
-2.30776e-11
7.46837e-08
-2.6175e-11
7.9845e-08
-4.19555e-11
5.85094e-08
2.86061e-11
-5.42978e-11
7.2615e-08
-6.43279e-11
8.28641e-08
8.82598e-08
-3.01914e-11
-2.60801e-11
3.60276e-08
2.16855e-11
-3.8055e-11
-3.09271e-11
4.91811e-08
-4.3885e-11
-3.56214e-11
5.83201e-08
-3.94918e-11
6.30072e-08
-3.02261e-11
-1.81793e-11
4.35217e-08
2.11222e-11
-3.83873e-11
-2.25966e-11
5.69916e-08
-4.44543e-11
-2.67854e-11
6.64994e-08
-3.04116e-11
7.14211e-08
-2.97844e-11
-9.39218e-12
5.10159e-08
2.04884e-11
-3.81482e-11
-1.20261e-11
6.4802e-08
-4.42531e-11
-1.44832e-11
7.46783e-08
-1.66395e-11
7.98342e-08
-2.96671e-11
5.85099e-08
2.01788e-11
-3.81603e-11
7.26119e-08
-4.41884e-11
8.28562e-08
8.82456e-08
-2.10885e-11
-1.64805e-11
3.60293e-08
1.50419e-11
-2.63874e-11
-1.94109e-11
4.91829e-08
-2.98699e-11
-2.22428e-11
5.8321e-08
-2.45641e-11
6.30062e-08
-2.10147e-11
-1.13079e-11
4.35232e-08
1.46257e-11
-2.65024e-11
-1.40739e-11
5.69922e-08
-3.01165e-11
-1.67207e-11
6.64981e-08
-1.90076e-11
7.14168e-08
-2.06513e-11
-5.761e-12
5.10171e-08
1.41869e-11
-2.62532e-11
-7.44082e-12
6.48014e-08
-2.98829e-11
-9.03515e-12
7.4675e-08
-1.04384e-11
7.9827e-08
-2.05047e-11
5.85109e-08
1.39655e-11
-2.6167e-11
7.26105e-08
-2.9756e-11
8.28512e-08
8.82361e-08
-1.41702e-11
-1.02328e-11
3.60304e-08
1.0077e-11
-1.76111e-11
-1.19575e-11
4.91839e-08
-1.964e-11
-1.36147e-11
5.83214e-08
-1.49645e-11
6.30054e-08
-1.40676e-11
-6.93468e-12
4.35242e-08
9.77629e-12
-1.76216e-11
-8.62201e-12
5.69926e-08
-1.97228e-11
-1.02257e-11
6.64972e-08
-1.15963e-11
7.1414e-08
-1.3794e-11
-3.50007e-12
5.1018e-08
9.48085e-12
-1.74013e-11
-4.54494e-12
6.48012e-08
-1.95048e-11
-5.52214e-12
7.46729e-08
-6.37307e-12
7.98223e-08
-1.36491e-11
5.85117e-08
9.3209e-12
-1.72775e-11
7.26098e-08
-1.9363e-11
8.28482e-08
8.823e-08
-8.99055e-12
-6.07583e-12
3.60311e-08
6.38607e-12
-1.10962e-11
-7.02643e-12
4.91845e-08
-1.22157e-11
-7.92818e-12
5.83215e-08
-8.65914e-12
6.30046e-08
-8.89679e-12
-4.07249e-12
4.35249e-08
6.18554e-12
-1.10649e-11
-5.0343e-12
5.69928e-08
-1.22259e-11
-5.93775e-12
6.64966e-08
-6.70211e-12
7.14121e-08
-8.70871e-12
-2.04199e-12
5.10186e-08
5.9986e-12
-1.09007e-11
-2.65165e-12
6.48012e-08
-1.20645e-11
-3.20449e-12
7.46716e-08
-3.68097e-12
7.98195e-08
-8.58431e-12
5.85124e-08
5.88534e-12
-1.07851e-11
7.26094e-08
-1.19511e-11
8.28463e-08
8.82263e-08
-5.69766e-12
-3.59093e-12
4.06365e-12
-6.99059e-12
-4.07582e-12
-7.61266e-12
-4.5404e-12
-4.92107e-12
-5.61448e-12
-2.35019e-12
3.93929e-12
-6.94964e-12
-2.87285e-12
-7.60392e-12
-3.37903e-12
-3.81235e-12
-5.49238e-12
-1.15364e-12
3.82123e-12
-6.85053e-12
-1.49779e-12
-7.51805e-12
-1.82477e-12
-2.11951e-12
-5.38822e-12
3.72962e-12
-6.76749e-12
-7.45943e-12
1.86638e-08
-6.76662e-10
6.47867e-08
1.13176e-08
-5.74838e-09
1.0311e-07
-1.54215e-08
-1.39257e-10
1.13406e-07
-1.04722e-11
3.91871e-08
3.33378e-09
1.09755e-08
6.74356e-08
1.22453e-08
8.33288e-09
5.07994e-08
-1.11157e-08
-4.202e-09
9.33956e-08
4.63524e-09
4.12054e-08
-1.07391e-08
5.85249e-09
8.74918e-08
-7.09692e-09
7.59115e-10
6.74133e-08
-1.10711e-09
4.94521e-09
4.0248e-08
-6.53704e-10
5.69545e-08
-2.39274e-08
9.62745e-08
1.75503e-09
2.97474e-08
-1.22965e-08
6.93653e-08
3.61052e-08
-9.97099e-09
-3.36528e-09
8.71535e-08
-2.07242e-09
2.21249e-09
9.30612e-08
-1.93524e-09
1.08097e-09
1.08421e-07
-9.32482e-10
4.26311e-08
2.46187e-09
-3.83754e-09
6.67838e-08
-7.81123e-09
-4.12075e-09
6.74057e-08
-8.04439e-09
-6.87511e-09
1.01585e-07
-2.09584e-09
3.85633e-08
-1.00422e-08
-4.18097e-09
9.51906e-08
-6.10397e-09
-7.7032e-10
6.01246e-08
-4.3523e-09
-4.41988e-10
3.20632e-08
1.57173e-09
5.35087e-08
-7.76258e-10
9.57638e-08
-6.35121e-09
3.49893e-08
1.75938e-09
6.16905e-08
4.22078e-08
1.28379e-09
5.39981e-10
1.00875e-07
-1.69499e-08
-8.21242e-09
1.26388e-07
7.58994e-09
-1.82044e-10
7.20636e-08
-2.84917e-09
5.84012e-08
-1.07225e-08
-1.41308e-08
8.92746e-08
-1.85163e-08
-9.46948e-09
7.64565e-08
1.52381e-09
1.08903e-09
8.02737e-08
9.09403e-11
3.37935e-08
1.47513e-08
-6.44693e-09
7.73534e-08
6.94034e-09
-1.36305e-09
5.98291e-08
3.30864e-10
-4.45756e-09
4.42193e-08
1.62686e-09
4.88225e-08
2.27073e-08
6.88731e-08
-2.21248e-09
5.46676e-08
1.89441e-08
3.2217e-08
4.10058e-08
1.94133e-08
-3.04413e-10
7.63597e-08
7.16699e-09
-5.08348e-09
1.43389e-07
8.01442e-09
-9.40129e-10
7.1664e-08
4.58002e-09
5.89295e-08
5.42387e-09
-1.61652e-09
8.75012e-08
1.0006e-08
1.1443e-09
6.56466e-08
1.30711e-08
3.09188e-09
7.31766e-08
-2.01709e-09
5.1429e-08
1.60873e-08
6.86532e-09
5.82089e-08
1.0116e-08
2.05486e-09
6.48898e-08
5.23856e-09
1.36663e-09
5.0822e-08
-2.38e-09
4.54799e-08
-1.96806e-09
8.00773e-08
1.18252e-08
4.34053e-08
-2.0715e-09
4.67926e-08
2.08903e-08
-1.04666e-08
-3.74475e-09
8.29215e-08
1.67544e-08
8.24462e-09
9.49249e-08
1.03314e-08
2.06348e-09
7.1689e-08
1.33747e-09
5.94785e-08
1.23536e-08
4.83904e-09
6.79342e-08
8.02585e-09
6.97036e-09
7.12487e-08
1.29594e-08
4.68746e-09
6.56191e-08
2.07885e-09
5.7701e-08
1.01107e-08
8.49967e-10
5.4228e-08