/*--------------------------------*- C++ -*----------------------------------*\
| =========                 |                                                 |
| \\      /  F ield         | OpenFOAM: The Open Source CFD Toolbox           |
|  \\    /   O peration     | Version:  2506                                  |
|   \\  /    A nd           | Website:  www.openfoam.com                      |
|    \\/     M anipulation  |                                                 |
\*---------------------------------------------------------------------------*/
FoamFile
{
    version     2.0;
    format      ascii;
    arch        "LSB;label=32;scalar=64";
    class       volVectorField;
    location    "0.1";
    object      Us;
}
// * * * * * * * * * * * * * * * * * * * * * * * * * * * * * * * * * * * * * //

dimensions      [0 1 -1 0 0 0 0];

internalField   nonuniform List<vector> 
1152
(
(0.000171653 0.0002228 -3.36377e-05)
(-2.3658e-05 6.1946e-06 0.00016721)
(0.00020378 -6.89095e-05 0.000121052)
(3.84778e-05 3.14841e-05 -0.000110017)
(0.000186455 0.000143451 -6.67222e-05)
(-0.00045581 -0.000139959 5.87448e-05)
(-0.000344838 -0.000178847 0.000513248)
(-0.000216783 -0.000370553 -0.000105568)
(0.000474926 7.85013e-05 -0.000325284)
(0.000397377 -0.000124073 7.25135e-05)
(4.33395e-06 -0.000620823 -6.23951e-05)
(-0.000110044 -0.000399876 -0.0003623)
(0.000391456 -0.000282337 -0.000130138)
(0.000978838 -0.000196208 -0.000237237)
(0.000788193 -0.000393672 -0.000131515)
(0.000416925 -0.000686431 -1.16502e-05)
(0.00061895 0.00119672 0.0122869)
(0.00137957 0.00261812 0.013713)
(0.0011779 0.00123253 0.0157861)
(0.000515197 0.00082322 0.0144741)
(-0.000152761 0.00192943 0.0137195)
(9.41871e-05 0.000585335 0.0145445)
(-4.78041e-05 -0.000224498 0.0156505)
(-0.000104819 -6.26596e-05 0.0131384)
(-0.000687437 0.00215385 0.011319)
(0.000264997 0.0015652 0.0146252)
(-8.5314e-06 0.000799871 0.0139653)
(-0.000550884 0.000849149 0.0145313)
(0.00120083 -0.000404606 0.0130342)
(0.000843978 0.000586921 0.0134557)
(6.10986e-05 0.000946497 0.0154074)
(9.27042e-06 0.0019895 0.0121193)
(0.000174305 0.000408928 0.0146973)
(0.000584316 -0.000658673 0.0184772)
(0.00144098 -0.000224041 0.0185275)
(-0.00103966 0.000560741 0.0174772)
(-0.000238999 0.00107587 0.0172509)
(0.000242219 -0.000739652 0.017372)
(0.00147064 -0.000117711 0.0180126)
(0.00125465 0.000348762 0.0176021)
(0.000866397 -0.000342843 0.0169334)
(0.00152829 0.000468091 0.0164992)
(0.00184734 0.000210165 0.0162898)
(0.000768672 0.000482305 0.0159038)
(0.00128579 -0.000686448 0.0153942)
(0.00138191 0.000581343 0.0170687)
(0.00145551 0.000649785 0.0167194)
(0.000431315 -1.3982e-05 0.0155372)
(0.00143163 0.00114788 0.0180781)
(0.000656088 0.000737032 0.0194838)
(0.000718564 0.000284237 0.0186456)
(0.000408404 0.000440821 0.0189298)
(0.00193865 9.17607e-05 0.0180864)
(0.00135525 0.000421453 0.018493)
(0.000860034 0.000407272 0.0186047)
(0.000600954 0.000431821 0.0191142)
(0.00160376 -0.000451982 0.0178417)
(0.00163389 -0.000106387 0.0177554)
(0.000927728 -0.000301192 0.0180047)
(0.00113491 -0.000472 0.0182969)
(0.00151738 -0.000730398 0.0178962)
(0.00120039 -0.000389311 0.0176089)
(0.000842635 -0.000490791 0.0178944)
(0.00132781 -0.00122137 0.0177836)
(0.00126307 -0.000103533 0.018841)
(0.000920457 -5.78165e-05 0.0194109)
(0.000307093 -2.23329e-05 0.0190308)
(2.71543e-06 -9.82538e-05 0.0192863)
(0.00181551 -0.000508678 0.0188667)
(0.00110068 -0.000146233 0.0202777)
(0.000109369 0.00022263 0.0194444)
(0.000642115 0.000257606 0.0199924)
(0.00107341 -0.000418353 0.0182844)
(0.000794068 -0.000346623 0.0192567)
(0.000208544 -0.000105882 0.0194337)
(0.000462397 0.00025258 0.018893)
(0.00109033 -0.000558049 0.0177248)
(0.000757778 -0.000449643 0.0180038)
(0.000409214 -0.000586167 0.0182517)
(0.000201914 -0.000834814 0.018373)
(0.00113812 -0.000194658 0.0188775)
(0.000260608 -0.000394764 0.0193622)
(0.000173588 -4.42258e-05 0.0194305)
(-0.000265322 -0.000209171 0.0194006)
(0.00103483 4.78758e-05 0.0191224)
(0.000375245 0.000123797 0.0199329)
(-2.19942e-05 3.07287e-05 0.0191679)
(-0.000232882 -4.37412e-05 0.0193758)
(0.000558387 -0.000293398 0.0187162)
(0.000142344 0.000291358 0.0192715)
(0.000156786 6.57093e-05 0.0196114)
(-9.90137e-05 -0.000359369 0.0194888)
(0.000546049 -7.98253e-06 0.017879)
(0.00105743 -1.87973e-05 0.0183326)
(2.09687e-06 -7.99253e-06 0.0188226)
(-0.00033068 -0.000358496 0.0183562)
(-8.18498e-06 -0.000172562 0.018987)
(-0.00053939 -0.000266818 0.0191402)
(-0.000386994 5.14685e-05 0.0192302)
(-0.000349798 -0.000157854 0.0193791)
(-0.000399952 0.000401155 0.0186557)
(-0.000191236 0.000180171 0.0189541)
(-0.00085725 2.27662e-05 0.019209)
(-0.000518572 -0.000170917 0.0194955)
(-0.000906137 -8.96903e-05 0.0189905)
(-0.000827925 0.00036075 0.0190434)
(-0.000830422 -0.000198545 0.0196614)
(-0.000917035 -0.000720739 0.0193011)
(-2.46876e-05 0.000702878 0.0181665)
(-0.00034338 -0.000142604 0.0184536)
(0.000117041 -0.000311983 0.0184716)
(-0.000208279 -5.88418e-05 0.018572)
(0 0 0)
(0 0 0)
(0 0 0)
(0 0 0)
(0 0 0)
(0 0 0)
(0 0 0)
(0 0 0)
(0 0 0)
(0 0 0)
(0 0 0)
(0 0 0)
(0 0 0)
(0 0 0)
(0 0 0)
(0 0 0)
(0 0 0)
(0 0 0)
(0 0 0)
(0 0 0)
(0 0 0)
(0 0 0)
(0 0 0)
(0 0 0)
(0 0 0)
(0 0 0)
(0 0 0)
(0 0 0)
(0 0 0)
(0 0 0)
(0 0 0)
(0 0 0)
(0 0 0)
(0 0 0)
(0 0 0)
(0 0 0)
(0 0 0)
(0 0 0)
(0 0 0)
(0 0 0)
(0 0 0)
(0 0 0)
(0 0 0)
(0 0 0)
(0 0 0)
(0 0 0)
(0 0 0)
(0 0 0)
(0 0 0)
(0 0 0)
(0 0 0)
(0 0 0)
(0 0 0)
(0 0 0)
(0 0 0)
(0 0 0)
(0 0 0)
(0 0 0)
(0 0 0)
(0 0 0)
(0 0 0)
(0 0 0)
(0 0 0)
(0 0 0)
(0 0 0)
(0 0 0)
(0 0 0)
(0 0 0)
(0 0 0)
(0 0 0)
(0 0 0)
(0 0 0)
(0 0 0)
(0 0 0)
(0 0 0)
(0 0 0)
(0 0 0)
(0 0 0)
(0 0 0)
(0 0 0)
(0 0 0)
(0 0 0)
(0 0 0)
(0 0 0)
(0 0 0)
(0 0 0)
(0 0 0)
(0 0 0)
(0 0 0)
(0 0 0)
(0 0 0)
(0 0 0)
(0 0 0)
(0 0 0)
(0 0 0)
(0 0 0)
(0 0 0)
(0 0 0)
(0 0 0)
(0 0 0)
(0 0 0)
(0 0 0)
(0 0 0)
(0 0 0)
(0 0 0)
(0 0 0)
(0 0 0)
(0 0 0)
(0 0 0)
(0 0 0)
(0 0 0)
(0 0 0)
(0 0 0)
(0 0 0)
(0 0 0)
(0 0 0)
(0 0 0)
(0 0 0)
(0 0 0)
(0 0 0)
(0 0 0)
(0 0 0)
(0 0 0)
(0 0 0)
(0 0 0)
(0 0 0)
(0 0 0)
(0 0 0)
(0 0 0)
(0 0 0)
(0 0 0)
(0 0 0)
(0 0 0)
(0 0 0)
(0 0 0)
(0 0 0)
(0 0 0)
(0 0 0)
(0 0 0)
(0 0 0)
(0 0 0)
(0 0 0)
(0 0 0)
(0 0 0)
(0 0 0)
(0 0 0)
(0 0 0)
(0 0 0)
(0 0 0)
(0 0 0)
(0 0 0)
(0 0 0)
(0 0 0)
(0 0 0)
(0 0 0)
(0 0 0)
(0 0 0)
(0 0 0)
(0 0 0)
(0 0 0)
(0 0 0)
(0 0 0)
(0 0 0)
(0 0 0)
(0 0 0)
(0 0 0)
(0 0 0)
(0 0 0)
(0 0 0)
(0 0 0)
(0 0 0)
(0 0 0)
(0 0 0)
(0 0 0)
(0 0 0)
(0 0 0)
(0 0 0)
(0 0 0)
(0 0 0)
(0 0 0)
(0 0 0)
(0 0 0)
(0 0 0)
(0 0 0)
(0 0 0)
(0 0 0)
(0 0 0)
(0 0 0)
(0 0 0)
(0 0 0)
(0 0 0)
(0 0 0)
(0 0 0)
(0 0 0)
(0 0 0)
(0 0 0)
(0 0 0)
(0 0 0)
(0 0 0)
(0 0 0)
(0 0 0)
(0 0 0)
(0 0 0)
(0 0 0)
(0 0 0)
(0 0 0)
(0 0 0)
(0 0 0)
(0 0 0)
(0 0 0)
(0 0 0)
(0 0 0)
(0 0 0)
(0 0 0)
(0 0 0)
(0 0 0)
(0 0 0)
(0 0 0)
(0 0 0)
(0 0 0)
(0 0 0)
(0 0 0)
(0 0 0)
(0 0 0)
(0 0 0)
(0 0 0)
(0 0 0)
(0 0 0)
(0 0 0)
(0 0 0)
(0 0 0)
(0 0 0)
(0 0 0)
(0 0 0)
(0 0 0)
(0 0 0)
(0 0 0)
(0 0 0)
(0 0 0)
(0 0 0)
(0 0 0)
(0 0 0)
(0 0 0)
(0 0 0)
(0 0 0)
(0 0 0)
(0 0 0)
(0 0 0)
(0 0 0)
(0 0 0)
(0 0 0)
(0 0 0)
(0 0 0)
(0 0 0)
(0 0 0)
(0 0 0)
(0 0 0)
(0 0 0)
(0 0 0)
(0 0 0)
(0 0 0)
(0 0 0)
(0 0 0)
(0 0 0)
(0 0 0)
(0 0 0)
(0 0 0)
(0 0 0)
(0 0 0)
(0 0 0)
(0 0 0)
(0 0 0)
(0.000356894 -0.000202598 -3.48264e-06)
(0.000179369 -0.000101521 -0.000269551)
(0.000269894 -0.000299589 -4.64109e-05)
(0.00111502 1.69193e-05 -0.000329017)
(5.6677e-05 -0.000111898 3.85009e-05)
(8.22815e-05 -0.000209613 -0.000114241)
(-0.000453127 -0.000447285 -0.000199615)
(-0.000396292 -0.000324581 -0.000580689)
(4.58137e-05 -6.64844e-05 -2.83293e-05)
(0.000111272 -6.53858e-05 -6.70208e-05)
(6.61327e-05 -0.000228439 -7.30161e-05)
(-0.000644599 -0.000384673 -0.000171661)
(1.20226e-05 -2.32218e-05 7.09212e-05)
(5.44647e-05 2.77289e-05 -3.45955e-05)
(7.80173e-05 4.03113e-05 -5.69082e-05)
(5.76748e-05 -5.57104e-05 -0.000254069)
(-0.000490467 -0.000145866 0.00919096)
(0.000967324 1.53948e-05 0.0136454)
(0.000526859 0.000392495 0.0134493)
(-4.33558e-05 0.00173972 0.0142069)
(-0.000617306 0.000379489 0.00980795)
(0.00106484 -0.000133838 0.010169)
(0.000833446 4.0537e-06 0.0131278)
(0.000610293 -0.000409636 0.0114574)
(-0.000429571 0.000627664 0.00907077)
(0.00145676 -0.000115627 0.0118411)
(0.00119377 0.000114419 0.0136766)
(0.000765199 -0.00103298 0.0141094)
(-0.0021716 -0.000896361 0.0100269)
(0.00212937 0.000250785 0.0109137)
(0.00249811 0.000442342 0.0115463)
(0.000265434 -4.46237e-05 0.0125577)
(0.00134951 -0.00116203 0.0138873)
(0.000909464 -0.000292619 0.0150229)
(0.00102521 0.000638974 0.016296)
(0.000898364 0.000298912 0.017204)
(0.00363761 -0.00165943 0.0135376)
(0.00205228 -0.000710336 0.0144898)
(0.00171155 -0.000710532 0.0163554)
(0.000689901 -4.42097e-05 0.0167756)
(0.00325612 -0.000676525 0.0150798)
(0.00165541 -0.000965163 0.0135527)
(0.00273565 -0.000666042 0.0141694)
(0.00258848 -0.000707193 0.0148144)
(0.00297602 0.00126381 0.014975)
(0.000771397 0.000128347 0.0109271)
(0.00240893 -1.58935e-05 0.0148799)
(0.00337114 -3.82906e-05 0.013756)
(0.00290123 -0.00195188 0.0167372)
(0.00112903 -0.000685646 0.0164364)
(0.000855391 -0.000181065 0.017642)
(0.00166061 -0.00155576 0.0182561)
(0.00286497 -0.00104592 0.0150739)
(0.000236342 1.71544e-05 0.016401)
(0.000685544 -3.01375e-05 0.0174243)
(0.000512116 -0.000616691 0.0180584)
(0.00120198 0.000159497 0.0148826)
(0.00184105 0.000660633 0.0156791)
(0.000276574 -0.000356824 0.0150164)
(0.00143875 0.000710387 0.0145813)
(0.00023657 0.000332271 0.0127214)
(0.000119096 0.000103326 0.0139554)
(-0.000289477 -0.00028887 0.0123643)
(0.00146067 0.000254867 0.0128142)
(0.00159513 -0.00186584 0.0161037)
(0.000833119 0.000133008 0.0169551)
(0.000427723 -0.000739827 0.0173237)
(0.000445846 -0.0012542 0.0179707)
(0.00104436 -0.00141061 0.0131723)
(0.00115662 -0.000195621 0.0148704)
(0.000836982 0.000516592 0.0169417)
(0.000799916 -0.00135181 0.016476)
(0.000231173 -0.000461231 0.0114373)
(0.00165503 -4.19099e-05 0.014729)
(0.00133394 0.000471693 0.0154867)
(0.00131128 -0.0015115 0.0149917)
(0.000285183 -0.000422612 0.01085)
(0.000978299 0.000207744 0.0135728)
(0.0012006 0.000623691 0.0134354)
(0.00159361 -0.000454303 0.011734)
(-0.00122549 -0.000986068 0.0176672)
(0.000730192 -0.000662702 0.0168796)
(-8.2753e-06 0.000269478 0.0175075)
(-0.000327241 -0.000105965 0.0178153)
(-0.000611571 -0.00142406 0.0130515)
(-0.000812198 -0.000581714 0.015524)
(-0.000171793 0.000187449 0.0162351)
(-0.000249852 -0.000429187 0.0170781)
(-0.000569802 -0.00194703 0.0109182)
(-0.000939217 -0.00194496 0.0127632)
(0.000202558 -0.000345279 0.0146099)
(0.000794373 -0.00027876 0.0155431)
(-0.000811035 -0.0010536 0.0105169)
(-0.00119286 -0.00182973 0.0109834)
(5.4248e-07 -0.000184576 0.0136883)
(0.000615216 0.000780015 0.0114493)
(0.000595636 0.000815902 0.0170161)
(0.000750021 0.00256219 0.0156224)
(-0.000261379 -0.000143681 0.0172208)
(-0.000619162 0.000274104 0.0178592)
(-0.000740454 0.00118202 0.01593)
(-0.00292738 0.00243031 0.0119894)
(-0.00233165 -0.000546164 0.0155926)
(-0.000215013 0.000337385 0.0174846)
(0.000435191 9.98187e-06 0.0140466)
(-0.00218785 0.00145481 0.0123467)
(-0.0017326 0.000510254 0.0137642)
(-0.00107585 0.00140552 0.0147688)
(0.000485774 -0.000117495 0.0105381)
(-0.0014131 0.000345001 0.0108298)
(-0.00083213 -0.00100447 0.0130424)
(8.02438e-05 0.000554997 0.0110907)
(0 0 0)
(0 0 0)
(0 0 0)
(0 0 0)
(0 0 0)
(0 0 0)
(0 0 0)
(0 0 0)
(-0.00115535 0.00103942 0.0141681)
(0 0 0)
(0 0 0)
(0 0 0)
(0 0 0)
(0 0 0)
(0 0 0)
(0.00187622 -0.000601386 0.0129035)
(0 0 0)
(0 0 0)
(0 0 0)
(0 0 0)
(0 0 0)
(0 0 0)
(0 0 0)
(0 0 0)
(0 0 0)
(0 0 0)
(0 0 0)
(0 0 0)
(0 0 0)
(0 0 0)
(0 0 0)
(0 0 0)
(0 0 0)
(0 0 0)
(0 0 0)
(0 0 0)
(0 0 0)
(0 0 0)
(0 0 0)
(0 0 0)
(0 0 0)
(0 0 0)
(0 0 0)
(0 0 0)
(0 0 0)
(0 0 0)
(0 0 0)
(0 0 0)
(0 0 0)
(0 0 0)
(0 0 0)
(0 0 0)
(0 0 0)
(0 0 0)
(0 0 0)
(0 0 0)
(0 0 0)
(0 0 0)
(0 0 0)
(0 0 0)
(0 0 0)
(0 0 0)
(0 0 0)
(0 0 0)
(0 0 0)
(0 0 0)
(0 0 0)
(0 0 0)
(0 0 0)
(0 0 0)
(0 0 0)
(0 0 0)
(0 0 0)
(0 0 0)
(0 0 0)
(0 0 0)
(0 0 0)
(0 0 0)
(0 0 0)
(0 0 0)
(0 0 0)
(0 0 0)
(0 0 0)
(0 0 0)
(0 0 0)
(0 0 0)
(0 0 0)
(0 0 0)
(0 0 0)
(0 0 0)
(0 0 0)
(0 0 0)
(0 0 0)
(0 0 0)
(0 0 0)
(0 0 0)
(0 0 0)
(0 0 0)
(0 0 0)
(0 0 0)
(0 0 0)
(0 0 0)
(0 0 0)
(0 0 0)
(0 0 0)
(0 0 0)
(0 0 0)
(0 0 0)
(0 0 0)
(0 0 0)
(0 0 0)
(0 0 0)
(0 0 0)
(0 0 0)
(0 0 0)
(0 0 0)
(0 0 0)
(0 0 0)
(0 0 0)
(0 0 0)
(0 0 0)
(0 0 0)
(0 0 0)
(0 0 0)
(0 0 0)
(0 0 0)
(0 0 0)
(0 0 0)
(0 0 0)
(0 0 0)
(0 0 0)
(0 0 0)
(0 0 0)
(0 0 0)
(0 0 0)
(0 0 0)
(0 0 0)
(0 0 0)
(0 0 0)
(0 0 0)
(0 0 0)
(0 0 0)
(0 0 0)
(0 0 0)
(0 0 0)
(0 0 0)
(0 0 0)
(0 0 0)
(0 0 0)
(0 0 0)
(0 0 0)
(0 0 0)
(0 0 0)
(0 0 0)
(0 0 0)
(0 0 0)
(0 0 0)
(0 0 0)
(0 0 0)
(0 0 0)
(0 0 0)
(0 0 0)
(0 0 0)
(0 0 0)
(0 0 0)
(0 0 0)
(0 0 0)
(0 0 0)
(0 0 0)
(0 0 0)
(0 0 0)
(0 0 0)
(0 0 0)
(0 0 0)
(0 0 0)
(0 0 0)
(0 0 0)
(0 0 0)
(0 0 0)
(0 0 0)
(0 0 0)
(0 0 0)
(0 0 0)
(0 0 0)
(0 0 0)
(0 0 0)
(0 0 0)
(0 0 0)
(0 0 0)
(0 0 0)
(0 0 0)
(0 0 0)
(0 0 0)
(0 0 0)
(0 0 0)
(0 0 0)
(0 0 0)
(0 0 0)
(0 0 0)
(0 0 0)
(0 0 0)
(0 0 0)
(0 0 0)
(0 0 0)
(0 0 0)
(0 0 0)
(0 0 0)
(0 0 0)
(0 0 0)
(0 0 0)
(0 0 0)
(0 0 0)
(0 0 0)
(0 0 0)
(0 0 0)
(0 0 0)
(0 0 0)
(0 0 0)
(0 0 0)
(0 0 0)
(0 0 0)
(0 0 0)
(0 0 0)
(0 0 0)
(0 0 0)
(0 0 0)
(0 0 0)
(0 0 0)
(0 0 0)
(0 0 0)
(0 0 0)
(0 0 0)
(0 0 0)
(0 0 0)
(0 0 0)
(0 0 0)
(0 0 0)
(0 0 0)
(0 0 0)
(0 0 0)
(0 0 0)
(0 0 0)
(0 0 0)
(0 0 0)
(0 0 0)
(0 0 0)
(0 0 0)
(0 0 0)
(0 0 0)
(0 0 0)
(0 0 0)
(0 0 0)
(0 0 0)
(0 0 0)
(0 0 0)
(0 0 0)
(0 0 0)
(0 0 0)
(0 0 0)
(0 0 0)
(0 0 0)
(0 0 0)
(0 0 0)
(0 0 0)
(0 0 0)
(0 0 0)
(0 0 0)
(0 0 0)
(0 0 0)
(0 0 0)
(0 0 0)
(0 0 0)
(3.14647e-05 -4.84181e-05 0.000125758)
(0.000975541 8.5367e-05 -0.000141976)
(0.000251564 0.000132244 8.00756e-05)
(0.000243598 0.000163626 1.08153e-05)
(3.84894e-05 -0.000138641 -1.00708e-05)
(-1.51046e-05 0.00010893 -9.2099e-05)
(0.000146088 1.50438e-05 -1.15773e-05)
(0.000211094 -2.50644e-05 5.10048e-06)
(-0.000183879 4.4463e-05 1.93416e-05)
(6.36389e-05 0.000225679 -0.000279072)
(0.000441962 -0.000373879 -0.000443484)
(-6.32869e-05 0.000119657 -7.9001e-05)
(-2.22016e-05 -1.24877e-05 1.57738e-06)
(5.73534e-05 2.96554e-05 -3.72112e-05)
(-0.000154835 0.000214477 1.69974e-05)
(4.827e-05 -0.000145286 -0.000121566)
(-0.000582705 0.000225543 0.0110049)
(-0.000689924 0.000209985 0.0134247)
(-0.000564052 0.000378148 0.0148294)
(-0.00103603 -3.28233e-05 0.00899826)
(1.59142e-05 -0.0016939 0.0100122)
(-0.000746231 0.000172399 0.00896453)
(-0.0022759 -0.00150737 0.0124015)
(-0.0019301 -0.000420122 0.0102438)
(-0.0025467 -0.00300894 0.0113215)
(-0.00262866 -0.0016501 0.00820295)
(-0.0025678 -0.000814902 0.00400699)
(-0.00128966 0.000278646 0.0114065)
(-0.000665531 -0.000887185 0.0101261)
(-0.000610876 0.000165749 0.00673922)
(-0.000793559 0.000259531 0.0126147)
(-0.000347242 -0.000541812 0.0122809)
(-0.000413342 0.0016114 0.0135833)
(-0.00151875 0.000314172 0.0148269)
(-0.000769872 -0.00114319 0.0163471)
(0.000958513 -0.000167999 0.0158326)
(-0.00118796 -0.000196573 0.0153732)
(-0.00221419 -0.00288864 0.0167306)
(-0.00108219 -0.000353109 0.0175083)
(0.000493149 -0.000644981 0.0144732)
(-0.000141805 -0.0037113 0.0132352)
(0.00188449 -0.00295974 0.0133445)
(0.00209231 -0.0019467 0.0148427)
(0.000580458 0.000192156 0.0156875)
(0.0026074 -0.00173892 0.0136014)
(0.00307665 -0.001127 0.0134104)
(0.00247719 -0.00170038 0.0142634)
(0.00154734 -0.000946722 0.0140433)
(0.000753826 -0.00132562 0.0155782)
(0.00195527 0.000483569 0.0167033)
(0.00280886 -0.000994772 0.0166965)
(0.00244926 0.000231215 0.0176201)
(0.00117254 0.000964564 0.0175499)
(0.00170023 -0.000753545 0.0168683)
(0.00208718 -0.00135167 0.0166617)
(0.00204991 -0.000432207 0.017301)
(0.00162198 -0.00153958 0.0124105)
(0.00141437 -0.00160255 0.0123999)
(0.00263678 -0.00114765 0.0161223)
(0.0016586 -0.00120224 0.0165975)
(9.84228e-07 -0.00102936 0.0118322)
(0.00158265 -0.00195049 0.0127952)
(0.00229538 -0.00183858 0.0138694)
(0.00222904 -0.000855389 0.015854)
(0.000405644 -0.00101452 0.0135655)
(0.000929586 0.00115307 0.0172152)
(0.0025963 0.000770703 0.0171544)
(0.00203256 -0.000138987 0.0182731)
(0.000510312 -0.00029568 0.0129697)
(0.00188185 -0.00104263 0.0154126)
(0.00236396 -0.000762252 0.0164857)
(0.0017658 -0.000279597 0.0177226)
(0.00115657 0.000183575 0.0113689)
(0.00205545 -0.000336888 0.013207)
(0.00195295 5.01667e-07 0.0158017)
(0.00184533 -0.000621091 0.0172481)
(-0.000867214 0.000337011 0.0106009)
(-0.000127981 0.00015936 0.01054)
(0.000620145 -0.000889365 0.0140717)
(0.000976766 -0.00117344 0.0166796)
(0.000389613 -0.00174403 0.0123986)
(0.000488443 0.000327371 0.0162094)
(0.000767902 6.75365e-06 0.0178437)
(0.00107032 0.000296933 0.018018)
(0.000291389 9.43287e-05 0.0112656)
(0.000743906 -0.000134481 0.0145646)
(0.000771494 0.000277278 0.0167001)
(0.000780033 0.000181103 0.0180134)
(-0.000119932 3.80361e-05 0.0107142)
(0.000987459 3.07572e-05 0.0137655)
(0.00071908 -0.000655254 0.0159889)
(0.000873495 -1.60925e-05 0.0181311)
(0.000152756 -0.000329205 0.00934313)
(0.00187937 -0.000558693 0.0119288)
(0.00137538 -0.000616892 0.0135971)
(0.000795708 -0.000223068 0.0169282)
(1.88066e-05 0.000673955 0.0115914)
(0.000691322 -0.000292565 0.0163747)
(0.000738644 -0.000967027 0.017459)
(-0.000459758 0.000262115 0.01738)
(0.00131155 0.00018281 0.012078)
(0.00025162 0.000260805 0.0149093)
(-0.000703172 0.000602944 0.016556)
(-0.0011877 0.000560985 0.0170342)
(8.06224e-05 0.00133416 0.0102391)
(-0.000552494 0.00159759 0.0126845)
(-0.000276733 0.00124967 0.0159186)
(-0.000304948 0.000521725 0.0178346)
(0.00199467 0.00101071 0.00716895)
(0.00100599 0.000944823 0.0112898)
(0.000584476 0.000493073 0.0144535)
(-0.000901506 0.000169567 0.0166884)
(-0.000781317 0.00114508 0.0121831)
(0 0 0)
(0 0 0)
(0 0 0)
(0 0 0)
(0 0 0)
(0 0 0)
(0 0 0)
(-0.00185841 0.00247509 0.0115882)
(0 0 0)
(0 0 0)
(0 0 0)
(0 0 0)
(0 0 0)
(0 0 0)
(0 0 0)
(0 0 0)
(0 0 0)
(0 0 0)
(0 0 0)
(0 0 0)
(0 0 0)
(0 0 0)
(0 0 0)
(0 0 0)
(0 0 0)
(0 0 0)
(0 0 0)
(0 0 0)
(0 0 0)
(0 0 0)
(0 0 0)
(0 0 0)
(0 0 0)
(0 0 0)
(0 0 0)
(0 0 0)
(0 0 0)
(0 0 0)
(0 0 0)
(0 0 0)
(0 0 0)
(0 0 0)
(0 0 0)
(0 0 0)
(0 0 0)
(0 0 0)
(0 0 0)
(0 0 0)
(0 0 0)
(0 0 0)
(0 0 0)
(0 0 0)
(0 0 0)
(0 0 0)
(0 0 0)
(0 0 0)
(0 0 0)
(0 0 0)
(0 0 0)
(0 0 0)
(0 0 0)
(0 0 0)
(0 0 0)
(0 0 0)
(0 0 0)
(0 0 0)
(0 0 0)
(0 0 0)
(0 0 0)
(0 0 0)
(0 0 0)
(0 0 0)
(0 0 0)
(0 0 0)
(0 0 0)
(0 0 0)
(0 0 0)
(0 0 0)
(0 0 0)
(0 0 0)
(0 0 0)
(0 0 0)
(0 0 0)
(0 0 0)
(0 0 0)
(0 0 0)
(0 0 0)
(0 0 0)
(0 0 0)
(0 0 0)
(0 0 0)
(0 0 0)
(0 0 0)
(0 0 0)
(0 0 0)
(0 0 0)
(0 0 0)
(0 0 0)
(0 0 0)
(0 0 0)
(0 0 0)
(0 0 0)
(0 0 0)
(0 0 0)
(0 0 0)
(0 0 0)
(0 0 0)
(0 0 0)
(0 0 0)
(0 0 0)
(0 0 0)
(0 0 0)
(0 0 0)
(0 0 0)
(0 0 0)
(0 0 0)
(0 0 0)
(0 0 0)
(0 0 0)
(0 0 0)
(0 0 0)
(0 0 0)
(0 0 0)
(0 0 0)
(0 0 0)
(0 0 0)
(0 0 0)
(0 0 0)
(0 0 0)
(0 0 0)
(0 0 0)
(0 0 0)
(0 0 0)
(0 0 0)
(0 0 0)
(0 0 0)
(0 0 0)
(0 0 0)
(0 0 0)
(0 0 0)
(0 0 0)
(0 0 0)
(0 0 0)
(0 0 0)
(0 0 0)
(0 0 0)
(0 0 0)
(0 0 0)
(0 0 0)
(0 0 0)
(0 0 0)
(0 0 0)
(0 0 0)
(0 0 0)
(0 0 0)
(0 0 0)
(0 0 0)
(0 0 0)
(0 0 0)
(0 0 0)
(0 0 0)
(0 0 0)
(0 0 0)
(0 0 0)
(0 0 0)
(0 0 0)
(0 0 0)
(0 0 0)
(0 0 0)
(0 0 0)
(0 0 0)
(0 0 0)
(0 0 0)
(0 0 0)
(0 0 0)
(0 0 0)
(0 0 0)
(0 0 0)
(0 0 0)
(0 0 0)
(0 0 0)
(0 0 0)
(0 0 0)
(0 0 0)
(0 0 0)
(0 0 0)
(0 0 0)
(0 0 0)
(0 0 0)
(0 0 0)
(0 0 0)
(0 0 0)
(0 0 0)
(0 0 0)
(0 0 0)
(0 0 0)
(0 0 0)
(0 0 0)
(0 0 0)
(0 0 0)
(0 0 0)
(0 0 0)
(0 0 0)
(0 0 0)
(0 0 0)
(0 0 0)
(0 0 0)
(0 0 0)
(0 0 0)
(0 0 0)
(0 0 0)
(0 0 0)
(0 0 0)
(0 0 0)
(0 0 0)
(0 0 0)
(0 0 0)
(0 0 0)
(0 0 0)
(0 0 0)
(0 0 0)
(0 0 0)
(0 0 0)
(0 0 0)
(0 0 0)
(0 0 0)
(0 0 0)
(0 0 0)
(0 0 0)
(0 0 0)
(0 0 0)
(0 0 0)
(0 0 0)
(0 0 0)
(0 0 0)
(0 0 0)
(0 0 0)
(0 0 0)
(0 0 0)
(0 0 0)
(0 0 0)
(0 0 0)
(0 0 0)
(0 0 0)
(0 0 0)
(0 0 0)
(0 0 0)
(0 0 0)
(0 0 0)
(0 0 0)
(0 0 0)
(0 0 0)
(0 0 0)
(0 0 0)
(0 0 0)
(0 0 0)
(0 0 0)
(0 0 0)
(0 0 0)
(0 0 0)
(0 0 0)
(0 0 0)
(0 0 0)
(0 0 0)
(0 0 0)
(0 0 0)
(0 0 0)
(0 0 0)
(0 0 0)
(0 0 0)
(0 0 0)
)
;

boundaryField
{
    inlet
    {
        type            zeroGradient;
    }
    outlet
    {
        type            zeroGradient;
    }
    wall
    {
        type            zeroGradient;
    }
    procBoundary2to0
    {
        type            processor;
        value           nonuniform List<vector> 
192
(
(-3.8504e-06 0.000135457 3.31495e-05)
(-3.12913e-05 5.57137e-05 6.28604e-06)
(2.9865e-05 8.03439e-05 1.39617e-05)
(4.57771e-05 6.44694e-05 -4.08586e-05)
(-0.00230528 0.000345215 0.0142918)
(-0.00128175 -0.000283895 0.0104505)
(0.00241913 0.000565795 0.00980832)
(0.00174716 8.32416e-05 0.0123209)
(-0.000149235 -0.000383467 0.016551)
(-0.000275065 -0.000218561 0.0154952)
(0.00057552 -5.58727e-05 0.0167096)
(0.00101614 -0.000114624 0.0192381)
(0.00176378 0.000641321 0.0179743)
(0.00126118 0.000497763 0.0182423)
(0.00111293 0.000627463 0.0185477)
(0.000854788 0.000368754 0.0192019)
(0.000963486 -9.33956e-05 0.0184268)
(0.00102325 9.43927e-05 0.0189051)
(0.000889061 0.00038404 0.018932)
(0.000557932 0.000153803 0.0190287)
(0.000599165 -0.000328942 0.0187724)
(0.000498614 -0.000148509 0.019206)
(0.000357012 -0.000225257 0.0193992)
(0.000252302 -0.000121388 0.0194143)
(0.000216503 -0.000140493 0.0189627)
(0.000128301 -0.000522062 0.0191006)
(-0.00017336 -0.000653546 0.0192058)
(-0.000260844 -0.000648481 0.0191102)
(0 0 0)
(0 0 0)
(-0.00101385 -0.000566505 0.0188283)
(-0.00101385 -0.000566505 0.0188283)
(0 0 0)
(0 0 0)
(0 0 0)
(0 0 0)
(0 0 0)
(0 0 0)
(0 0 0)
(0 0 0)
(0 0 0)
(0 0 0)
(0 0 0)
(0 0 0)
(0 0 0)
(0 0 0)
(0 0 0)
(0 0 0)
(0 0 0)
(0 0 0)
(0 0 0)
(0 0 0)
(0 0 0)
(0 0 0)
(0 0 0)
(0 0 0)
(0 0 0)
(0 0 0)
(0 0 0)
(0 0 0)
(0 0 0)
(0 0 0)
(0 0 0)
(0 0 0)
(0 0 0)
(0 0 0)
(0 0 0)
(0 0 0)
(0 0 0)
(0 0 0)
(0 0 0)
(0 0 0)
(0 0 0)
(0 0 0)
(0 0 0)
(0 0 0)
(0 0 0)
(0 0 0)
(0 0 0)
(0 0 0)
(0 0 0)
(0 0 0)
(0 0 0)
(0 0 0)
(0 0 0)
(0 0 0)
(0 0 0)
(0 0 0)
(0 0 0)
(0 0 0)
(0 0 0)
(0 0 0)
(0 0 0)
(0 0 0)
(0 0 0)
(0 0 0)
(-3.76641e-05 0.000366137 1.08161e-05)
(6.84909e-05 0.000325329 1.87857e-05)
(0.000119595 9.34129e-06 -9.77907e-05)
(-0.00011534 0.000398081 -0.000152192)
(0.00189633 0.0026084 0.0114414)
(0.00197803 0.000316368 0.00987531)
(-0.000219281 0.00114279 0.00818796)
(-0.00189197 0.000689577 0.0136386)
(0.00364633 0.0033122 0.0123815)
(0.00235955 0.00171024 0.0140574)
(0.000583945 -0.000401682 0.0149122)
(0.000620012 0.000544969 0.0162367)
(0.00102429 0.000780164 0.012304)
(0.00185999 0.000184097 0.0150918)
(0.00186856 0.000464132 0.016614)
(0.00179922 0.000421508 0.017287)
(0.000578321 0.000331937 0.0124681)
(0.00136761 0.00102708 0.0150154)
(0.00239113 0.0013777 0.0175567)
(0.00121097 0.000411029 0.0177595)
(0.000997224 -0.00128724 0.00867895)
(0.00207992 -1.39812e-05 0.0149634)
(0.00106719 0.000499402 0.0171446)
(0.000788338 8.79744e-05 0.0180564)
(-0.000151339 -0.000440445 0.00645437)
(-0.000235268 -0.0011891 0.0140416)
(-0.000646921 -0.000682769 0.0171652)
(6.25175e-05 -0.000128756 0.0178741)
(0 0 0)
(-0.00249735 -0.000918155 0.015803)
(-0.00249735 -0.000918155 0.015803)
(0 0 0)
(0 0 0)
(0 0 0)
(0 0 0)
(0 0 0)
(0 0 0)
(0 0 0)
(0 0 0)
(0 0 0)
(0 0 0)
(0 0 0)
(0 0 0)
(0 0 0)
(0 0 0)
(0 0 0)
(0 0 0)
(0 0 0)
(0 0 0)
(0 0 0)
(0 0 0)
(0 0 0)
(0 0 0)
(0 0 0)
(0 0 0)
(0 0 0)
(0 0 0)
(0 0 0)
(0 0 0)
(0 0 0)
(0 0 0)
(0 0 0)
(0 0 0)
(0 0 0)
(0 0 0)
(0 0 0)
(0 0 0)
(0 0 0)
(0 0 0)
(0 0 0)
(0 0 0)
(0 0 0)
(0 0 0)
(0 0 0)
(0 0 0)
(0 0 0)
(0 0 0)
(0 0 0)
(0 0 0)
(0 0 0)
(0 0 0)
(0 0 0)
(0 0 0)
(0 0 0)
(0 0 0)
(0 0 0)
(0 0 0)
(0 0 0)
(0 0 0)
(0 0 0)
(0 0 0)
(0 0 0)
(0 0 0)
(0 0 0)
(0 0 0)
(0 0 0)
)
;
    }
    procBoundary2to3
    {
        type            processor;
        value           nonuniform List<vector> 
192
(
(-6.49718e-05 0.000114381 7.33772e-05)
(1.96767e-06 0.000245867 0.000161208)
(0.00039674 -0.000148047 6.46727e-05)
(0.000288335 -6.42282e-05 9.34785e-06)
(0.000373808 -0.000918741 0.01238)
(0.000801067 -0.00105742 0.00996397)
(0.000586108 0.00223764 0.00741788)
(0.00138884 0.00163143 0.011969)
(-0.00175364 -0.00115818 0.0188767)
(-0.000283039 0.000431997 0.0187146)
(0.000685989 -2.37867e-05 0.0165561)
(0.000366265 0.00138284 0.0171368)
(-0.000121587 0.00014173 0.0189834)
(0.0004438 0.000123716 0.019014)
(0.000876531 -0.000465478 0.0183575)
(0.00118298 -0.000921156 0.0178711)
(4.4257e-05 0.000183625 0.0194926)
(-0.00021629 0.000204616 0.019469)
(-0.00015955 -0.000471193 0.0194091)
(1.17527e-06 -0.000612508 0.0181367)
(-0.000591918 0.000193384 0.019638)
(-0.000396672 -4.64347e-05 0.0195534)
(-0.000584651 -0.000442378 0.0195571)
(-0.000941928 -0.000468044 0.0178788)
(-0.000343345 8.60716e-05 0.0192942)
(-0.000439853 -4.60776e-05 0.0192128)
(-0.000606007 -0.000546681 0.0196896)
(-0.00116997 -0.00119447 0.0185908)
(0 0 0)
(0 0 0)
(0 0 0)
(0 0 0)
(0 0 0)
(0 0 0)
(0 0 0)
(0 0 0)
(0 0 0)
(0 0 0)
(0 0 0)
(0 0 0)
(0 0 0)
(0 0 0)
(0 0 0)
(0 0 0)
(0 0 0)
(0 0 0)
(0 0 0)
(0 0 0)
(0 0 0)
(0 0 0)
(0 0 0)
(0 0 0)
(0 0 0)
(0 0 0)
(0 0 0)
(0 0 0)
(0 0 0)
(0 0 0)
(0 0 0)
(0 0 0)
(0 0 0)
(0 0 0)
(0 0 0)
(0 0 0)
(0 0 0)
(0 0 0)
(0 0 0)
(0 0 0)
(0 0 0)
(0 0 0)
(0 0 0)
(0 0 0)
(0 0 0)
(0 0 0)
(0 0 0)
(0 0 0)
(0 0 0)
(0 0 0)
(0 0 0)
(0 0 0)
(0 0 0)
(0 0 0)
(0 0 0)
(0 0 0)
(0 0 0)
(0 0 0)
(0 0 0)
(0 0 0)
(0 0 0)
(0 0 0)
(0 0 0)
(0 0 0)
(0 0 0)
(0 0 0)
(0 0 0)
(0 0 0)
(-0.000445663 -0.000901547 -8.51807e-05)
(-0.00102619 -0.00108959 -0.000382401)
(-0.000903293 -0.000661631 -0.00024712)
(-0.000684509 -0.000596077 -0.000201722)
(-0.000579248 0.00021643 0.0117064)
(0.000467616 -0.000266664 0.0119573)
(0.000903495 -0.000584565 0.0133797)
(0.00161369 -0.000869663 0.0106418)
(0.000520377 -0.000836175 0.0154779)
(0.0010446 -0.000915527 0.0153903)
(0.00156174 0.000480373 0.0157371)
(0.00143789 0.000883335 0.0145325)
(0.00104167 -0.000785801 0.0188646)
(6.05087e-05 -0.00121431 0.0166996)
(0.00123696 -0.000464055 0.0148008)
(0.000147844 -0.000508413 0.014376)
(0.00039734 -0.000774141 0.0176405)
(0.000795424 -0.00132894 0.0165658)
(-0.00069626 -0.00155691 0.0148013)
(-5.8995e-05 -0.00138876 0.0145021)
(-0.000359949 -0.00150966 0.0177257)
(-0.000297534 -0.00142687 0.0165258)
(0.000830844 -0.00130772 0.0146609)
(-0.000232987 -0.000856374 0.0120345)
(-0.0006779 -0.000546035 0.0182976)
(-0.00034507 0.00036663 0.0164972)
(0.00173844 -0.000473027 0.0142271)
(0.00322915 0.000162524 0.0108627)
(0 0 0)
(0 0 0)
(0 0 0)
(0 0 0)
(0 0 0)
(0 0 0)
(0 0 0)
(0 0 0)
(0 0 0)
(0 0 0)
(0 0 0)
(0 0 0)
(0 0 0)
(0 0 0)
(0 0 0)
(0 0 0)
(0 0 0)
(0 0 0)
(0 0 0)
(0 0 0)
(0 0 0)
(0 0 0)
(0 0 0)
(0 0 0)
(0 0 0)
(0 0 0)
(0 0 0)
(0 0 0)
(0 0 0)
(0 0 0)
(0 0 0)
(0 0 0)
(0 0 0)
(0 0 0)
(0 0 0)
(0 0 0)
(0 0 0)
(0 0 0)
(0 0 0)
(0 0 0)
(0 0 0)
(0 0 0)
(0 0 0)
(0 0 0)
(0 0 0)
(0 0 0)
(0 0 0)
(0 0 0)
(0 0 0)
(0 0 0)
(0 0 0)
(0 0 0)
(0 0 0)
(0 0 0)
(0 0 0)
(0 0 0)
(0 0 0)
(0 0 0)
(0 0 0)
(0 0 0)
(0 0 0)
(0 0 0)
(0 0 0)
(0 0 0)
(0 0 0)
(0 0 0)
(0 0 0)
(0 0 0)
)
;
    }
}


// ************************************************************************* //
