/*--------------------------------*- C++ -*----------------------------------*\
| =========                 |                                                 |
| \\      /  F ield         | OpenFOAM: The Open Source CFD Toolbox           |
|  \\    /   O peration     | Version:  2506                                  |
|   \\  /    A nd           | Website:  www.openfoam.com                      |
|    \\/     M anipulation  |                                                 |
\*---------------------------------------------------------------------------*/
FoamFile
{
    version     2.0;
    format      ascii;
    arch        "LSB;label=32;scalar=64";
    class       surfaceScalarField;
    location    "0.08";
    object      phi;
}
// * * * * * * * * * * * * * * * * * * * * * * * * * * * * * * * * * * * * * //

dimensions      [0 3 -1 0 0 0 0];

oriented        oriented;

internalField   nonuniform List<scalar> 
3120
(
-1.61804e-08
-1.85253e-09
1.12035e-07
1.46845e-10
7.05624e-10
3.41416e-08
-4.55597e-09
-6.20166e-09
6.10581e-08
-2.4359e-09
3.14271e-08
7.4355e-09
-1.61242e-08
-2.61821e-08
1.02692e-07
-4.71995e-09
-8.10315e-10
3.88748e-08
-2.48769e-09
1.29593e-10
4.02396e-08
4.57934e-09
3.82714e-08
-3.27985e-11
3.21518e-09
3.60919e-10
7.99834e-09
-4.81873e-09
-5.54181e-09
6.18435e-08
8.11995e-10
7.27237e-09
3.56536e-08
3.41504e-09
5.56412e-08
-5.70953e-09
-2.12681e-09
5.17611e-08
-9.92499e-10
6.70981e-09
3.47233e-08
-1.1668e-09
-5.82771e-09
6.86093e-08
-2.00276e-09
4.47733e-08
2.78623e-09
-2.2723e-09
3.84995e-09
-1.13271e-08
6.8251e-08
4.04933e-09
-1.80007e-09
3.34409e-08
1.62265e-09
-7.68121e-09
6.55639e-08
-5.58944e-09
6.23677e-08
-1.20825e-08
9.01513e-09
-5.92698e-10
6.23836e-08
-2.44666e-12
-5.20607e-10
4.66129e-08
1.37196e-09
-1.52538e-09
3.27094e-08
-1.88916e-09
3.41653e-08
1.7778e-09
-3.2849e-09
-1.54102e-08
3.43828e-08
-6.18651e-11
1.54789e-09
5.6552e-08
3.01137e-10
9.27162e-10
3.28381e-08
2.78932e-09
4.32245e-08
8.03936e-09
-4.76028e-10
5.43528e-08
-1.13837e-08
-1.05407e-09
3.74596e-08
-6.10288e-10
1.47178e-09
7.29278e-08
-5.91722e-09
3.92457e-08
1.10875e-08
-1.29884e-09
8.52005e-09
1.96971e-09
1.5168e-08
1.9025e-09
-5.70291e-09
3.84428e-08
-8.71342e-09
-2.42309e-09
7.87255e-08
-1.54856e-09
6.27722e-08
-6.89615e-09
2.4147e-09
-1.20014e-09
6.29381e-08
5.42516e-09
-3.70841e-09
4.1608e-08
-1.96556e-09
-4.22337e-09
4.19004e-08
-2.27614e-09
3.48722e-08
-1.94484e-09
-2.2579e-09
7.80511e-10
3.35722e-08
3.31389e-09
-3.71138e-10
4.76429e-08
6.57973e-10
-7.09118e-09
3.83619e-08
-3.37917e-09
4.63883e-08
-1.40278e-09
-3.26053e-09
5.95911e-08
-1.20494e-09
-4.83956e-09
3.76809e-08
9.8657e-10
4.79322e-09
5.4608e-08
1.59592e-09
6.5266e-08
-1.88282e-08
-5.77799e-09
1.0394e-08
-4.55651e-09
9.12671e-09
2.91288e-08
-1.83595e-08
4.82655e-08
-5.36328e-08
-4.49769e-08
2.65591e-07
-3.52163e-09
2.25977e-08
-1.00642e-08
1.25499e-08
2.43705e-10
4.54469e-08
1.34307e-08
-7.71844e-09
3.00861e-08
-1.32278e-08
-1.88214e-08
4.24035e-08
-6.77705e-09
3.47197e-08
-9.81995e-09
3.03308e-09
-5.56426e-10
2.92599e-08
4.23112e-09
-3.9944e-09
4.27209e-08
-7.55757e-11
-1.06955e-08
3.45427e-08
-1.38348e-08
6.20478e-08
-8.67725e-09
8.18389e-10
6.15157e-08
2.48642e-09
-4.33098e-10
2.89093e-08
6.02869e-09
3.86692e-10
4.42634e-08
-1.17073e-09
6.85979e-08
-1.17251e-08
-5.05494e-09
-3.67882e-08
-5.73998e-09
1.55209e-07
9.58052e-09
-1.1018e-08
4.0038e-08
1.28439e-09
-8.03543e-11
2.71026e-07
-3.5406e-09
3.75928e-08
-4.11017e-09
1.85313e-09
-3.59418e-09
4.58356e-08
-1.37847e-09
-6.17755e-09
2.84772e-08
-2.24808e-09
-6.62754e-09
4.98203e-08
-5.89307e-09
3.65447e-08
-1.72059e-09
1.03973e-09
2.17831e-09
2.53847e-08
2.63042e-09
1.97221e-09
3.29804e-08
-6.22177e-10
4.22291e-10
3.07455e-08
-1.74255e-10
5.53216e-08
3.85189e-10
1.30447e-09
5.37851e-08
1.03575e-08
1.0061e-09
2.66052e-08
4.5747e-09
-9.88991e-11
4.48523e-08
9.38431e-10
7.11615e-08
-5.90815e-09
3.07134e-09
1.57202e-08
4.46315e-08
7.5295e-08
-2.19323e-08
1.93874e-08
4.51532e-08
5.20125e-08
3.60296e-08
1.15354e-07
1.37221e-08
5.68883e-08
9.1879e-09
1.43221e-08
1.17495e-08
6.16867e-08
2.07255e-09
1.66964e-09
5.84445e-08
7.62642e-09
3.39211e-09
7.6904e-08
-1.22068e-09
5.89144e-08
1.99607e-10
2.03937e-09
1.74001e-09
3.42613e-08
3.90784e-09
5.37507e-09
2.74066e-08
2.68026e-09
-4.05498e-09
3.94201e-08
-7.55612e-09
6.35862e-08
7.51116e-10
1.22787e-08
2.85375e-08
8.68875e-09
-3.16436e-09
4.77123e-08
-2.88934e-10
1.14532e-09
3.10658e-08
5.42179e-09
4.9255e-08
6.46638e-09
9.02929e-09
3.01514e-09
4.03139e-09
6.47569e-08
-4.12227e-09
-6.8189e-12
5.44747e-08
8.14926e-09
9.82877e-09
8.27019e-08
2.9393e-09
5.70671e-08
3.99159e-09
1.34538e-09
4.05846e-09
5.80127e-08
-1.5117e-09
4.02655e-09
5.72684e-08
6.58498e-09
6.50834e-09
7.21281e-08
2.57538e-09
5.95118e-08
6.3518e-09
1.62836e-09
1.86165e-09
3.61813e-08
-2.05489e-10
1.30273e-09
3.19642e-08
7.9542e-10
1.97063e-09
4.29572e-08
3.13524e-09
5.82057e-08
5.61566e-09
5.24246e-10
2.89347e-08
9.88875e-10
-6.4378e-10
5.01575e-08
2.56399e-11
-1.75112e-09
3.43297e-08
-1.86287e-10
4.7663e-08
1.55785e-09
1.41939e-09
2.52391e-09
1.30409e-08
6.09059e-08
8.33858e-10
6.19333e-09
5.24643e-08
7.4012e-09
8.01085e-09
7.01441e-08
3.66887e-09
5.44082e-08
7.85602e-09
-2.19055e-09
6.94875e-09
5.96094e-08
-1.3182e-09
4.38835e-09
5.82015e-08
4.48762e-09
8.50069e-09
6.58323e-08
6.87522e-09
5.40776e-08
6.71542e-09
-5.84783e-10
4.10632e-09
3.70497e-08
8.13439e-11
2.96843e-09
3.27179e-08
3.41394e-09
5.40588e-09
4.27191e-08
7.66722e-09
5.38113e-08
7.01612e-09
-4.34597e-09
2.66129e-08
6.76021e-09
2.55636e-09
3.65632e-08
9.66011e-09
4.0347e-09
3.37935e-08
4.46369e-09
5.05426e-08
5.0107e-09
3.81139e-09
1.13673e-10
-6.13572e-09
5.24289e-08
-5.15404e-09
-2.32643e-10
5.10022e-08
2.5015e-09
2.57823e-09
5.52669e-08
1.47725e-10
5.11132e-08
3.13629e-09
-5.42775e-09
4.25698e-09
5.02961e-08
-5.27496e-09
6.40003e-09
5.1416e-08
1.09966e-09
7.59655e-09
5.44394e-08
1.41124e-09
5.14253e-08
2.48833e-09
-1.55801e-09
1.08444e-09
4.23819e-08
-5.82235e-09
9.45861e-10
4.24365e-08
-4.78006e-09
3.01227e-09
4.62609e-08
1.19718e-09
4.9968e-08
-7.22226e-10
-3.04277e-09
3.909e-08
-8.70707e-09
-4.21912e-09
4.22303e-08
-3.54512e-09
-8.67978e-09
4.32313e-08
-1.96487e-09
4.90011e-08
2.75393e-09
-8.69628e-09
7.50121e-11
-4.5979e-10
4.93581e-08
-1.58927e-09
1.10366e-09
4.97622e-08
3.13028e-10
1.20252e-09
5.05916e-08
3.87034e-10
4.95749e-08
2.99752e-10
-2.56717e-09
2.39456e-09
4.81924e-08
-2.55632e-09
3.26922e-09
4.92399e-08
-5.31551e-10
3.3538e-09
5.02637e-08
1.70282e-09
4.97106e-08
-1.32308e-10
-1.44366e-09
1.36872e-10
4.56572e-08
-2.80469e-09
8.79826e-10
4.61873e-08
-2.36929e-09
1.69556e-09
4.74841e-08
1.60029e-09
4.86946e-08
-9.93138e-10
-1.34896e-09
4.48509e-08
-4.74531e-09
-2.07428e-09
4.56654e-08
-1.82954e-09
-2.94923e-09
4.63737e-08
-5.71932e-10
4.81521e-08
1.69572e-09
-2.19497e-09
-4.67271e-10
-1.19524e-10
4.86901e-08
-8.89821e-10
2.23834e-10
4.90758e-08
-4.97717e-10
8.617e-11
4.92478e-08
-2.00956e-10
4.90096e-08
-4.68314e-10
-1.35343e-09
4.53553e-10
4.81684e-08
-1.43634e-09
8.23894e-10
4.87231e-08
-9.76998e-10
7.83601e-10
4.91073e-08
2.59119e-10
4.90669e-08
-7.93046e-10
-9.76863e-10
-6.20507e-10
4.73414e-08
-1.52064e-09
-1.36817e-10
4.7692e-08
-1.52696e-09
1.25114e-10
4.81491e-08
3.09668e-11
4.85277e-08
-1.13148e-09
-7.24873e-10
4.71742e-08
-2.50029e-09
-1.29494e-09
4.74082e-08
-1.3095e-09
-1.70502e-09
4.77047e-08
-7.95764e-10
4.8173e-08
-1.28814e-10
-1.56606e-09
-3.80105e-10
-1.14355e-10
4.85835e-08
-5.03988e-10
-3.26638e-11
4.87705e-08
-4.52274e-10
-1.05712e-10
4.88135e-08
-1.54481e-10
4.87483e-08
-4.69992e-10
-6.66649e-10
-4.82158e-11
4.83717e-08
-7.16616e-10
1.22402e-10
4.86183e-08
-6.25882e-10
1.59287e-10
4.87517e-08
1.17575e-10
4.87522e-08
-5.83042e-10
-5.02919e-10
-5.55995e-10
4.81098e-08
-6.79699e-10
-2.70935e-10
4.82623e-08
-6.91166e-10
-7.3517e-11
4.83936e-08
6.50887e-11
4.847e-08
-5.80743e-10
-2.86847e-10
4.80775e-08
-1.33267e-09
-4.71772e-10
4.81305e-08
-8.08335e-10
-5.61259e-10
4.8175e-08
-4.54188e-10
4.82226e-08
-5.43889e-11
-4.91063e-10
-2.19188e-10
-1.44205e-10
4.86079e-08
-2.80413e-10
-1.33389e-10
4.86855e-08
-2.96942e-10
-1.60989e-10
4.86896e-08
-1.57722e-10
4.86491e-08
-3.14992e-10
-3.07489e-10
-1.82276e-10
4.85325e-08
-3.49785e-10
-1.01045e-10
4.86284e-08
-3.5098e-10
-6.77614e-11
4.86598e-08
-3.98368e-11
4.86339e-08
-3.50485e-10
-2.3993e-10
-4.02651e-10
4.84439e-08
-3.11477e-10
-2.66398e-10
4.84993e-08
-3.33448e-10
-1.66049e-10
4.8514e-08
-7.97485e-11
4.8482e-08
-3.05438e-10
-1.23872e-10
4.8427e-08
-7.0083e-10
-1.89302e-10
4.84229e-08
-4.9317e-10
-2.35585e-10
4.83808e-08
-3.25407e-10
4.83008e-08
-1.48381e-10
-2.44911e-10
-1.11987e-10
-1.44795e-10
4.86477e-08
-1.45382e-10
-1.44975e-10
4.86735e-08
-1.66587e-10
-1.48699e-10
4.86584e-08
-1.34922e-10
4.86095e-08
-1.78163e-10
-1.34055e-10
-1.79564e-10
4.86228e-08
-1.60877e-10
-1.42358e-10
4.86527e-08
-1.75488e-10
-1.16006e-10
4.86418e-08
-8.44851e-11
4.85892e-08
-1.81373e-10
-1.0372e-10
-2.74072e-10
4.85847e-08
-1.29777e-10
-2.09718e-10
4.85929e-08
-1.45081e-10
-1.49739e-10
4.85631e-08
-1.00421e-10
4.84889e-08
-1.36096e-10
-4.19739e-11
4.85536e-08
-3.83292e-10
-5.8596e-11
4.85284e-08
-2.98445e-10
-7.3355e-11
4.84596e-08
-2.13585e-10
4.83392e-08
-1.21789e-10
-9.02809e-11
-5.53392e-11
-1.26456e-10
4.86803e-08
-7.51986e-11
-1.25878e-10
4.86812e-08
-9.15694e-11
-1.22166e-10
4.86546e-08
-1.08881e-10
4.85937e-08
-9.92596e-11
-6.03994e-11
-1.4596e-10
4.86708e-08
-7.53635e-11
-1.28865e-10
4.86706e-08
-8.6983e-11
-1.09164e-10
4.86403e-08
-8.56057e-11
4.85711e-08
-9.22202e-11
-4.22864e-11
-1.84249e-10
4.86428e-08
-5.44396e-11
-1.54338e-10
4.86305e-08
-6.31148e-11
-1.20945e-10
4.85836e-08
-8.93761e-11
4.84916e-08
-6.21824e-11
-1.13362e-11
4.85957e-08
-2.22013e-10
-1.48625e-11
4.85635e-08
-1.85791e-10
-2.06075e-11
4.84876e-08
-1.43053e-10
4.8358e-08
-9.62602e-11
-3.24967e-11
-2.64973e-11
-1.00918e-10
4.87012e-08
-3.92088e-11
-9.99703e-11
4.86913e-08
-4.96844e-11
-9.56426e-11
4.86571e-08
-8.58206e-11
4.85877e-08
-5.47207e-11
-2.66837e-11
-1.104e-10
4.86943e-08
-3.61308e-11
-1.0189e-10
4.86819e-08
-4.39119e-11
-8.97327e-11
4.86421e-08
-7.48599e-11
4.85632e-08
-4.71981e-11
-1.7606e-11
-1.24507e-10
4.86657e-08
-2.31193e-11
-1.10587e-10
4.86447e-08
-2.68542e-11
-9.27416e-11
4.85902e-08
-7.3207e-11
4.84908e-08
-2.79024e-11
-1.48765e-12
4.86069e-08
-1.35192e-10
-2.06909e-12
4.85725e-08
-1.18933e-10
-5.11562e-12
4.84951e-08
-9.71567e-11
4.83627e-08
-7.28976e-11
-1.00857e-11
-1.25817e-11
-7.70099e-11
4.87137e-08
-2.04632e-11
-7.61041e-11
4.8699e-08
-2.70496e-11
-7.27567e-11
4.86603e-08
-6.62383e-11
4.85853e-08
-2.99264e-11
-1.18967e-11
-8.09395e-11
4.87054e-08
-1.75002e-11
-7.66164e-11
4.8688e-08
-2.20809e-11
-6.95227e-11
4.86433e-08
-6.06515e-11
4.85591e-08
-2.37065e-11
-6.99868e-12
-8.50116e-11
4.86737e-08
-9.94671e-12
-7.82866e-11
4.86492e-08
-1.19372e-11
-6.88029e-11
4.85913e-08
-5.73344e-11
4.84885e-08
-1.31927e-11
1.1315e-12
4.86072e-08
-8.57139e-11
1.31164e-12
4.85721e-08
-7.81014e-11
1.22412e-13
4.84945e-08
-6.69549e-11
4.83612e-08
-5.4003e-11
-1.76511e-12
-5.83637e-12
-5.73226e-11
4.87208e-08
-1.05472e-11
-5.66213e-11
4.87039e-08
-1.44158e-11
-5.4272e-11
4.86626e-08
-5.00975e-11
4.85844e-08
-1.6128e-11
-5.15729e-12
-5.84673e-11
4.87105e-08
-8.36496e-12
-5.6227e-11
4.86908e-08
-1.0625e-11
-5.22861e-11
4.86435e-08
-4.65717e-11
4.85565e-08
-1.1703e-11
-2.57736e-12
-5.8543e-11
4.86757e-08
-4.1321e-12
-5.52216e-11
4.86497e-08
-5.35089e-12
-5.01091e-11
4.85902e-08
-4.36671e-11
4.84853e-08
-5.29924e-12
1.62457e-12
4.86041e-08
-5.60318e-11
2.01212e-12
4.85688e-08
-5.23511e-11
1.75335e-12
4.84912e-08
-4.65434e-11
4.83576e-08
-3.95371e-11
1.17535e-12
-2.50079e-12
-4.18716e-11
4.87248e-08
-5.33109e-12
-4.14296e-11
4.87068e-08
-7.58498e-12
-3.9932e-11
4.8664e-08
-3.71138e-11
4.85839e-08
-8.57692e-12
-2.05091e-12
-4.18122e-11
4.87126e-08
-3.9159e-12
-4.0621e-11
4.86918e-08
-5.32682e-12
-3.8325e-11
4.86432e-08
-3.48812e-11
4.85544e-08
-5.71241e-12
-6.87448e-13
-4.05278e-11
4.86753e-08
-1.44926e-12
-3.88609e-11
4.86486e-08
-1.91565e-12
-3.60856e-11
4.85883e-08
-3.24631e-11
4.84823e-08
-1.59096e-12
1.51444e-12
4.86004e-08
-3.73875e-11
1.94382e-12
4.8565e-08
-3.55738e-11
2.11064e-12
4.84874e-08
-3.24924e-11
4.83536e-08
-2.86774e-11
2.16525e-12
-8.79325e-13
-2.99937e-11
4.87269e-08
-2.59844e-12
-2.97522e-11
4.87083e-08
-3.9193e-12
-2.8808e-11
4.86648e-08
-2.69405e-11
4.85835e-08
-4.47564e-12
-6.52919e-13
-2.95242e-11
4.87132e-08
-1.68685e-12
-2.89039e-11
4.86918e-08
-2.44524e-12
-2.75527e-11
4.86426e-08
-2.54672e-11
4.85529e-08
-2.56044e-12
8.30668e-14
-2.79931e-11
4.86741e-08
-2.49961e-13
-2.71549e-11
4.86471e-08
-3.56435e-13
-2.56285e-11
4.85863e-08
-2.35489e-11
4.84798e-08
-4.54531e-15
1.25342e-12
4.8597e-08
-2.51679e-11
1.65733e-12
4.85616e-08
-2.42585e-11
1.9888e-12
4.8484e-08
-2.26039e-11
4.83501e-08
-2.05272e-11
2.3471e-12
-1.7631e-13
-2.09057e-11
4.87279e-08
-1.18668e-12
-2.07761e-11
4.87091e-08
-1.94484e-12
-2.01618e-11
4.86651e-08
-1.8933e-11
4.85832e-08
-2.26073e-12
-3.87264e-14
-2.03642e-11
4.8713e-08
-6.09949e-13
-2.00367e-11
4.86914e-08
-9.89007e-13
-1.92372e-11
4.86418e-08
-1.79606e-11
4.85517e-08
-9.69989e-13
3.61175e-13
-1.90136e-11
4.86727e-08
2.49334e-13
-1.85946e-11
4.86455e-08
2.96102e-13
-1.77478e-11
4.85846e-08
-1.65658e-11
4.84778e-08
6.39095e-13
9.92198e-13
4.85943e-08
-1.67968e-11
1.33469e-12
4.85589e-08
-1.63364e-11
1.66515e-12
4.84813e-08
-1.54364e-11
4.83474e-08
-1.42961e-11
2.01509e-12
1.73974e-13
-1.38192e-11
4.87282e-08
-3.95688e-13
-1.37136e-11
4.87093e-08
-8.17099e-13
-1.33129e-11
4.86651e-08
-1.25242e-11
4.8583e-08
-9.94296e-13
2.84008e-13
-1.33333e-11
4.87126e-08
-1.42495e-14
-1.31514e-11
4.86909e-08
-2.04366e-13
-1.26788e-11
4.86412e-08
-1.19129e-11
4.85508e-08
-1.66662e-13
5.10157e-13
-1.23121e-11
4.86715e-08
4.95065e-13
-1.21074e-11
4.86443e-08
5.69467e-13
-1.16413e-11
4.85833e-08
-1.10027e-11
4.84764e-08
8.40867e-13
8.48831e-13
4.85922e-08
-1.07529e-11
1.11059e-12
4.85569e-08
-1.05276e-11
1.38495e-12
4.84793e-08
-1.00516e-11
4.83455e-08
-9.41954e-12
1.58156e-12
6.05399e-13
-8.06482e-12
4.87281e-08
3.07583e-13
-7.97306e-12
4.87092e-08
5.41198e-14
-7.73073e-12
4.8665e-08
-7.27476e-12
4.85829e-08
-9.28548e-14
6.97446e-13
-7.72124e-12
4.87122e-08
5.38703e-13
-7.62453e-12
4.86905e-08
4.09903e-13
-7.36465e-12
4.86408e-08
-6.96089e-12
4.85504e-08
3.85134e-13
8.21258e-13
-7.08207e-12
4.86707e-08
8.27285e-13
-7.00906e-12
4.86435e-08
8.881e-13
-6.79199e-12
4.85825e-08
-6.44082e-12
4.84756e-08
9.66578e-13
9.99921e-13
4.8591e-08
-6.15888e-12
1.12437e-12
4.85557e-08
-6.0648e-12
1.22069e-12
4.84782e-08
-5.84372e-12
4.83445e-08
-5.56112e-12
1.31209e-12
1.30383e-12
-3.88742e-12
1.13284e-12
-3.84607e-12
9.35752e-13
-3.73482e-12
-3.52745e-12
7.40134e-13
1.34751e-12
-3.74948e-12
1.23673e-12
-3.72378e-12
1.09735e-12
-3.62643e-12
-3.45252e-12
9.56527e-13
1.38839e-12
-3.46461e-12
1.34537e-12
-3.46181e-12
1.26924e-12
-3.3918e-12
-3.27058e-12
1.19537e-12
1.43457e-12
-3.03123e-12
1.46026e-12
-3.04225e-12
1.43196e-12
-2.99072e-12
-2.92408e-12
1.36162e-12
-2.85222e-09
-7.28021e-11
5.61867e-08
1.12956e-08
-1.09151e-09
3.11594e-08
-6.29212e-10
-5.55884e-09
5.20224e-08
2.74747e-09
3.05475e-08
-1.88254e-09
-1.74081e-09
1.13865e-08
5.165e-08
5.39088e-09
9.89328e-09
3.50963e-08
9.71209e-10
9.00862e-09
3.5579e-08
1.64485e-08
2.46168e-08
-1.88194e-09
-2.36889e-09
2.46158e-09
8.30887e-08
3.44378e-09
-1.97513e-09
6.66537e-08
3.79492e-09
-5.12746e-09
6.60009e-08
4.74556e-09
6.21572e-08
-5.22018e-09
-8.98256e-10
7.35203e-08
2.0226e-09
6.19489e-08
6.76741e-09
4.72643e-08
5.93591e-08
-2.24491e-09
5.29733e-09
7.07508e-09
2.54604e-08
-6.75385e-10
1.96849e-09
3.45533e-08
8.93706e-09
1.03788e-09
3.54549e-08
8.10138e-10
5.41787e-08
-4.41677e-09
4.24472e-09
-6.50323e-09
6.41151e-08
-2.71735e-09
-5.89606e-09
4.9923e-08
2.56782e-09
1.13687e-08
1.99631e-08
-8.80276e-09
3.8336e-08
-1.53848e-09
5.93294e-09
1.13057e-08
6.05496e-08
2.29179e-09
1.21237e-08
5.22751e-08
-2.3899e-10
-3.74104e-10
8.02745e-08
8.96905e-09
4.66636e-08
-2.51711e-09
9.17006e-09
7.95473e-08
-2.42067e-09
8.42981e-08
3.0307e-09
3.92533e-08
7.44367e-08
-3.25734e-09
1.30579e-09
-5.3133e-09
2.65982e-08
-4.55474e-09
-6.66976e-09
4.80702e-08
3.46256e-09
3.82236e-09
2.52112e-08
-1.21747e-08
3.41734e-08
1.68144e-08
2.9043e-09
-5.47068e-09
5.60088e-08
2.03755e-09
-9.59001e-09
5.371e-08
7.16842e-10
-1.27807e-08
3.78869e-08
-1.97272e-08
4.72304e-08
-6.25057e-10
-6.81784e-10
-1.33096e-08
6.55906e-08
1.18568e-09
-8.74717e-09
4.95648e-08
-1.26721e-09
-1.0674e-09
7.1014e-08
1.96749e-09
2.2351e-08
1.3507e-09
3.2204e-09
5.62779e-08
5.28252e-09
7.3744e-08
-1.79465e-09
4.53496e-08
7.66157e-08
-1.64467e-09
2.75677e-09
3.39795e-09
2.90999e-08
-5.1764e-09
-9.34928e-09
7.13814e-08
-2.26115e-09
-5.69521e-10
2.16947e-08
-2.77103e-09
2.1546e-08
1.4122e-09
-4.71599e-09
-7.88403e-09
7.72785e-08
-6.20655e-10
4.68224e-09
3.55832e-08
-4.2799e-09
-5.58902e-09
4.65656e-08
-6.12e-09
3.98859e-08
6.41352e-09
2.37706e-09
-2.27893e-09
5.41959e-08
-5.29059e-09
-2.2091e-08
8.40057e-08
-2.32253e-09
-8.80983e-09
7.12668e-08
-7.48416e-09
1.99711e-08
1.42147e-09
-7.01913e-09
5.5382e-08
4.76832e-10
4.50144e-08
-2.41965e-09
4.0232e-08
6.67942e-08
1.6897e-09
-1.28264e-08
1.1517e-09
6.26934e-08
-1.45149e-09
6.67864e-09
5.79025e-08
-2.40379e-09
-6.36713e-09
2.99526e-08
-3.41513e-09
1.23009e-08
4.3483e-09
-5.73552e-09
-3.38807e-09
8.67065e-08
-5.3616e-09
-2.19015e-09
4.40781e-08
-8.86275e-10
1.665e-09
3.40582e-08
-2.47495e-09
3.33316e-08
4.7279e-09
-3.90994e-09
-3.49647e-09
5.93535e-08
-5.91198e-09
4.82536e-09
7.89923e-08
-1.45452e-09
4.88472e-09
6.35897e-08
-9.16402e-09
2.37737e-08
1.43201e-09
4.33748e-10
4.41144e-08
-1.73904e-09
5.13556e-08
-6.10917e-09
5.0152e-08
4.95808e-08
2.68394e-09
1.96052e-09
2.24213e-08
3.37603e-08
1.88609e-09
3.25344e-09
5.44346e-08
1.369e-09
1.49866e-09
3.43928e-08
-2.65087e-09
2.26238e-08
1.63348e-10
-4.34357e-09
4.65778e-09
1.09556e-07
1.78742e-09
5.71779e-09
3.54827e-08
-5.88612e-10
-2.08932e-09
4.00222e-08
2.35192e-09
2.98248e-08
-2.08463e-09
-4.38486e-09
2.24902e-10
6.44022e-08
-1.20927e-09
2.40548e-09
7.9129e-08
6.01001e-10
1.52516e-09
5.81649e-08
-6.29215e-09
3.5795e-08
-2.7762e-09
-1.82614e-09
4.73057e-08
-2.40731e-09
5.46998e-08
-2.48799e-09
5.16854e-08
4.40738e-08
-2.64558e-09
-1.13736e-09
-1.08414e-09
3.92432e-08
2.06184e-09
3.73621e-09
4.75245e-08
1.33759e-09
1.0902e-09
3.38405e-08
-2.53656e-10
2.61322e-08
-3.58296e-10
1.96091e-09
1.10716e-08
9.38768e-08
3.63419e-10
-2.51609e-09
4.33325e-08
1.77385e-09
-1.56031e-09
4.12623e-08
-1.15813e-09
3.06505e-08
1.85207e-09
-4.20739e-09
4.40833e-09
8.5911e-08
1.34393e-10
2.31348e-09
6.99575e-08
1.7114e-09
2.47632e-10
5.47799e-08
-7.71154e-10
3.61352e-08
9.85029e-10
-5.73597e-10
5.64701e-08
-5.56789e-10
5.60779e-08
-5.13629e-10
5.30092e-08
4.15218e-08
6.56917e-10
-3.28046e-09
1.34938e-08
3.2771e-08
-6.49157e-10
1.16198e-08
4.29334e-08
5.29216e-10
4.15721e-09
3.29683e-08
4.49691e-09
2.74162e-08
-2.40441e-10
-6.16213e-09
1.38292e-08
9.98888e-08
-3.62047e-09
3.84318e-09
4.85676e-08
7.17598e-11
1.99316e-09
3.9734e-08
1.79705e-09
3.21706e-08
1.25185e-09
-9.08258e-09
4.04191e-09
1.04564e-07
-1.82124e-09
1.35555e-09
6.51839e-08
7.01302e-10
2.40173e-09
5.18491e-08
1.32697e-09
3.61342e-08
1.17226e-09
-4.11531e-09
6.72447e-08
-1.23746e-09
5.45555e-08
2.3003e-10
5.39436e-08
4.25058e-08
5.73452e-10
-5.49485e-10
-2.07498e-08
4.55256e-08
-1.10695e-09
-3.79368e-09
4.37394e-08
-3.74403e-09
-2.92876e-09
3.65692e-08
2.82098e-09
2.78376e-08
-4.23363e-09
7.181e-09
-5.66636e-09
7.4246e-08
2.40284e-09
-2.998e-09
5.25502e-08
-1.70942e-09
-2.8128e-09
4.37303e-08
2.50033e-09
3.33435e-08
-2.56086e-09
6.69127e-09
8.23275e-09
8.41801e-08
3.07884e-09
3.49368e-09
6.23049e-08
-9.02776e-11
2.79922e-10
5.19259e-08
4.46947e-10
3.84172e-08
-3.20474e-10
3.94155e-09
7.30798e-08
6.76086e-10
6.13146e-08
-4.42334e-10
5.53421e-08
4.2727e-08
-2.16348e-10
5.84342e-10
-9.6791e-09
4.94193e-08
8.24668e-11
-3.01652e-09
4.54284e-08
-8.32276e-10
-1.6261e-09
3.85382e-08
1.33036e-09
2.88484e-08
-1.47761e-09
3.85491e-09
-4.27479e-09
6.34174e-08
1.93446e-09
-1.8364e-09
5.32909e-08
8.99359e-11
-1.08576e-09
4.50348e-08
1.3981e-09
3.44117e-08
-1.04617e-09
4.20195e-09
3.23593e-09
7.21584e-08
2.35501e-09
1.82183e-09
6.04937e-08
8.73605e-10
9.0382e-10
5.14181e-08
1.54043e-09
3.96425e-08
-4.93648e-10
3.14262e-09
7.3781e-08
1.49781e-09
6.47814e-08
7.21659e-10
5.70223e-08
4.53233e-08
-3.33845e-10
2.92954e-10
-4.24816e-09
5.06579e-08
-2.39378e-10
-1.8787e-09
4.653e-08
-5.92792e-10
-1.10241e-09
3.91983e-08
-8.8603e-11
2.87271e-08
-5.11682e-10
1.50753e-09
-2.64869e-09
5.99241e-08
5.64856e-10
-1.35775e-09
5.37127e-08
-2.00813e-10
-8.61948e-10
4.55603e-08
-4.09266e-12
3.4528e-08
-4.01302e-10
1.92675e-09
-3.74834e-11
6.76543e-08
8.17519e-10
-1.51171e-10
6.03964e-08
4.12169e-11
-3.8481e-10
5.17177e-08
-1.79898e-10
4.01364e-08
-2.76657e-10
1.67765e-09
7.2482e-08
6.25868e-10
6.56821e-08
8.69681e-11
5.71767e-08
4.54283e-08
-1.97717e-10
2.74273e-10
-1.97616e-09
5.0939e-08
1.31075e-10
-1.09426e-09
4.69591e-08
-2.4263e-11
-6.08558e-10
3.95081e-08
-7.03324e-11
2.88824e-08
-1.63279e-10
7.88819e-10
-1.40101e-09
5.84995e-08
4.92336e-10
-7.77776e-10
5.36928e-08
1.67628e-10
-4.16385e-10
4.56931e-08
3.07439e-11
3.47148e-08
-1.19962e-10
1.05289e-09
-2.21456e-10
6.55126e-08
6.37758e-10
-9.73743e-11
6.01313e-08
2.91279e-10
-4.83314e-11
5.16965e-08
1.52365e-10
4.0392e-08
-8.56388e-11
1.05518e-09
7.14639e-08
6.40013e-10
6.6e-08
3.41276e-10
5.74273e-08
4.59682e-08
-4.59979e-11
1.4732e-10
-9.32962e-10
5.10049e-08
1.08755e-10
-6.03277e-10
4.71079e-08
3.42424e-11
-3.65118e-10
3.96225e-08
-1.39757e-10
2.89326e-08
-2.41325e-11
3.64103e-10
-7.31394e-10
5.79547e-08
2.74157e-10
-4.68977e-10
5.36487e-08
1.12012e-10
-2.668e-10
4.57572e-08
-9.12044e-11
3.47872e-08
-8.60333e-12
5.02478e-10
-2.60374e-10
6.46239e-08
3.55189e-10
-1.70485e-10
5.99804e-08
1.67657e-10
-1.11421e-10
5.17291e-08
-5.05677e-11
4.05154e-08
3.92896e-12
5.43233e-10
7.08166e-08
3.85382e-10
6.59876e-08
2.109e-10
5.74907e-08
4.61046e-08
2.4107e-11
9.07911e-11
-4.66807e-10
5.10033e-08
9.55835e-11
-3.38034e-10
4.71428e-08
5.98884e-11
-2.15444e-10
3.96603e-08
-1.05116e-10
2.89573e-08
1.90852e-11
1.82921e-10
-3.88243e-10
5.77253e-08
1.67667e-10
-2.71674e-10
5.35978e-08
9.74669e-11
-1.60309e-10
4.57724e-08
-7.24061e-11
3.48219e-08
3.03406e-11
2.48983e-10
-1.87675e-10
6.42404e-08
2.17028e-10
-1.30683e-10
5.98717e-08
1.26002e-10
-7.38691e-11
5.17341e-08
-3.27639e-11
4.0569e-08
3.30154e-11
2.82733e-10
7.04405e-08
2.45091e-10
6.58948e-08
1.53788e-10
5.75085e-08
4.61842e-08
4.15429e-11
5.62452e-11
-2.51675e-10
5.09863e-08
6.83715e-11
-1.97839e-10
4.71428e-08
5.27054e-11
-1.36261e-10
3.96693e-08
-8.19186e-11
2.89659e-08
3.03757e-11
9.59836e-11
-2.1296e-10
5.76167e-08
1.01653e-10
-1.61592e-10
5.3556e-08
6.98435e-11
-1.03046e-10
4.57711e-08
-5.94432e-11
3.48349e-08
3.47761e-11
1.26914e-10
-1.15478e-10
6.40583e-08
1.2674e-10
-8.71656e-11
5.97978e-08
8.24678e-11
-5.17891e-11
5.17274e-08
-3.18983e-11
4.05898e-08
3.43381e-11
1.46479e-10
7.02342e-08
1.43594e-10
6.58108e-08
9.89046e-11
5.75016e-08
4.6212e-08
3.92594e-11
3.44809e-11
-1.44487e-10
5.09691e-08
4.53475e-11
-1.20677e-10
4.71336e-08
3.96146e-11
-8.95472e-11
3.96675e-08
-6.11931e-11
2.89667e-08
2.76654e-11
5.21039e-11
-1.22107e-10
5.75586e-08
6.10371e-11
-9.88683e-11
5.35254e-08
4.7613e-11
-6.82791e-11
4.57633e-08
-4.49201e-11
3.48366e-08
2.99277e-11
6.68362e-11
-6.9406e-11
6.39641e-08
7.3164e-11
-5.57592e-11
5.97485e-08
5.33368e-11
-3.64845e-11
5.17156e-08
-2.42648e-11
4.05937e-08
2.88356e-11
7.79585e-11
7.01187e-08
8.39303e-11
6.57492e-08
6.14195e-11
5.74879e-08
4.62179e-08
3.11917e-11
2.11702e-11
-8.73539e-11
5.09547e-08
2.94864e-11
-7.64086e-11
4.71235e-08
2.81998e-11
-6.04332e-11
3.96623e-08
-4.4996e-11
2.89642e-08
2.21162e-11
2.92627e-11
-7.32079e-11
5.75243e-08
3.69041e-11
-6.21748e-11
5.35034e-08
3.18077e-11
-4.61642e-11
4.5754e-08
-3.33232e-11
3.48336e-08
2.32897e-11
3.63146e-11
-4.23221e-11
6.39114e-08
4.29274e-11
-3.58475e-11
5.97157e-08
3.45919e-11
-2.52712e-11
5.17032e-08
-1.81438e-11
4.05909e-08
2.22571e-11
4.23642e-11
7.00522e-08
4.83657e-11
6.57075e-08
3.85364e-11
5.74726e-08
4.62148e-08
2.33777e-11
1.33492e-11
-5.51396e-11
5.09436e-08
1.94335e-11
-4.98437e-11
4.71147e-08
1.9951e-11
-4.14404e-11
3.96567e-08
-3.27494e-11
2.89609e-08
1.69454e-11
1.72187e-11
-4.54324e-11
5.75027e-08
2.29497e-11
-4.00778e-11
5.34878e-08
2.15772e-11
-3.16751e-11
4.57454e-08
-2.42869e-11
3.48293e-08
1.7533e-11
2.06183e-11
-2.63932e-11
6.38797e-08
2.59019e-11
-2.31538e-11
5.96935e-08
2.27628e-11
-1.75181e-11
5.16921e-08
-1.32979e-11
4.0586e-08
1.66277e-11
2.39553e-11
7.00122e-08
2.89458e-11
6.56794e-08
2.49013e-11
5.74592e-08
4.62092e-08
1.71564e-11
8.66753e-12
-3.5839e-11
5.09352e-08
1.30418e-11
-3.31722e-11
4.71077e-08
1.41235e-11
-2.86405e-11
3.96517e-08
-2.36248e-11
2.89577e-08
1.26951e-11
1.04314e-11
-2.90212e-11
5.74884e-08
1.46903e-11
-2.64031e-11
5.34766e-08
1.48177e-11
-2.18828e-11
4.57383e-08
-1.74903e-11
3.48252e-08
1.29589e-11
1.22264e-11
-1.6863e-11
6.38596e-08
1.61375e-11
-1.51702e-11
5.96783e-08
1.53082e-11
-1.21697e-11
5.16832e-08
-9.59704e-12
4.05811e-08
1.22405e-11
1.41088e-11
6.99873e-08
1.78605e-11
6.56605e-08
1.64588e-11
5.74485e-08
4.62035e-08
1.24745e-11
5.73808e-12
-2.36675e-11
5.09291e-08
8.85557e-12
-2.22838e-11
4.71024e-08
9.96048e-12
-1.97738e-11
3.96477e-08
-1.68009e-11
2.8955e-08
9.28591e-12
6.55758e-12
-1.89419e-11
5.74787e-08
9.62146e-12
-1.75792e-11
5.34687e-08
1.0228e-11
-1.50904e-11
4.57328e-08
-1.23972e-11
3.48218e-08
9.40258e-12
7.50293e-12
-1.09088e-11
6.38466e-08
1.03257e-11
-1.00416e-11
5.96679e-08
1.04083e-11
-8.41326e-12
5.16764e-08
-6.79669e-12
4.05771e-08
8.85964e-12
8.6059e-12
6.99712e-08
1.13124e-11
6.56478e-08
1.10333e-11
5.74404e-08
4.61987e-08
8.9497e-12
3.8219e-12
-1.55871e-11
5.09247e-08
5.99975e-12
-1.48595e-11
4.70985e-08
6.91104e-12
-1.34308e-11
3.96447e-08
-1.16421e-11
2.8953e-08
6.60676e-12
4.21128e-12
-1.2368e-11
5.74722e-08
6.35406e-12
-1.1638e-11
5.34631e-08
6.99566e-12
-1.02396e-11
4.57288e-08
-8.55808e-12
3.48192e-08
6.63312e-12
4.69807e-12
-7.08055e-12
6.3838e-08
6.69086e-12
-6.62481e-12
5.96608e-08
7.04452e-12
-5.71535e-12
5.16715e-08
-4.68312e-12
4.05739e-08
6.23707e-12
5.38046e-12
6.99609e-08
7.25877e-12
6.56392e-08
7.38553e-12
5.74346e-08
4.6195e-08
6.2618e-12
2.5872e-12
-9.89777e-12
5.09216e-08
4.01032e-12
-9.51068e-12
4.70958e-08
4.63433e-12
-8.69975e-12
3.96426e-08
-7.63674e-12
2.89516e-08
4.47764e-12
2.76543e-12
-7.80941e-12
5.74679e-08
4.17134e-12
-7.41533e-12
5.34595e-08
4.65013e-12
-6.62756e-12
4.57261e-08
-5.59189e-12
3.48174e-08
4.46308e-12
3.02138e-12
-4.46441e-12
6.38326e-08
4.32553e-12
-4.21235e-12
5.96563e-08
4.64866e-12
-3.7032e-12
5.16682e-08
-3.05285e-12
4.05718e-08
4.18998e-12
3.41583e-12
6.99543e-08
4.64056e-12
6.56338e-08
4.82811e-12
5.74308e-08
4.61925e-08
4.19048e-12
1.92241e-12
-5.63807e-12
5.09198e-08
2.69842e-12
-5.44857e-12
4.70943e-08
2.98651e-12
-5.02546e-12
3.96414e-08
-4.45533e-12
2.89508e-08
2.78501e-12
2.00085e-12
-4.44023e-12
5.74654e-08
2.76257e-12
-4.2322e-12
5.34574e-08
2.97622e-12
-3.81876e-12
4.57245e-08
-3.23965e-12
3.48164e-08
2.78132e-12
2.11097e-12
-2.55101e-12
6.38295e-08
2.81709e-12
-2.41105e-12
5.96537e-08
2.95277e-12
-2.1362e-12
5.16663e-08
-1.75715e-12
4.05706e-08
2.60724e-12
2.31364e-12
6.99506e-08
2.96657e-12
6.56307e-08
3.02954e-12
5.74286e-08
4.61911e-08
2.59774e-12
1.83555e-12
-2.7681e-12
2.10014e-12
-2.69494e-12
2.06922e-12
-2.53003e-12
-2.31014e-12
1.76417e-12
1.83983e-12
-2.17095e-12
2.10462e-12
-2.07261e-12
2.03629e-12
-1.88947e-12
-1.6293e-12
1.7142e-12
1.86809e-12
-1.227e-12
2.10462e-12
-1.16481e-12
1.98129e-12
-1.03104e-12
-8.57097e-13
1.61098e-12
1.93063e-12
2.1083e-12
1.95646e-12
1.55667e-12
-1.25676e-09
-7.33663e-09
7.55673e-08
7.79691e-10
-3.65263e-09
7.207e-08
2.08694e-09
-6.63708e-10
6.11584e-08
-6.21365e-11
7.25927e-08
3.58445e-09
-3.16316e-09
3.93784e-08
2.66346e-09
-2.25245e-09
5.20164e-08
1.49371e-09
-1.64919e-09
6.01203e-08
2.66663e-09
6.42238e-08
-6.03771e-11
7.24864e-09
2.32617e-08
3.76106e-09
1.36331e-09
3.83633e-08
1.19344e-08
5.50426e-09
3.68904e-08
3.69686e-09
6.96472e-08
-1.14053e-08
4.37027e-08
1.02495e-08
1.30996e-08
7.89813e-09
4.37763e-08
5.63393e-08
-1.32997e-08
1.65332e-09
6.47444e-08
2.74123e-08
5.08431e-09
2.19579e-08
8.99895e-09
1.59673e-09
8.28979e-08
-4.74669e-09
8.14521e-08
9.52504e-10
2.45134e-09
3.94057e-08
6.0204e-09
9.55083e-10
5.10778e-08
-2.44901e-09
-7.04311e-09
7.72296e-08
-3.93628e-09
6.07809e-08
-2.19709e-09
-1.38989e-09
3.73394e-08
-2.73439e-09
-6.02531e-10
4.04582e-08
3.09531e-09
1.57296e-10
2.38603e-08
4.58595e-10
6.88127e-08
-2.49291e-09
3.90901e-08
-1.73627e-09
1.0202e-08
1.12838e-09
3.85518e-08
5.39465e-08
4.46856e-09
-7.81193e-10
4.77944e-08
-7.58393e-09
-3.95738e-09
3.70225e-08
-4.56671e-09
-1.6821e-09
8.1807e-08
-6.82238e-10
6.67825e-08
6.9137e-11
-3.41438e-09
4.00249e-08
-7.51409e-09
2.22918e-09
5.24745e-08
4.98575e-09
2.39693e-09
6.06508e-08
-2.84312e-09
6.78606e-08
8.83999e-09
-5.71532e-09
2.93976e-08
-2.14471e-09
-5.53991e-09
5.9212e-08
-2.58726e-09
-5.5976e-09
3.22974e-08
-6.1517e-09
7.07713e-08
4.19034e-09
4.0221e-08
-4.61339e-09
1.28407e-08
-7.17662e-09
3.68682e-08
4.0442e-08
-4.86045e-09
-5.76675e-09
5.10782e-08
-9.3335e-09
-3.31508e-09
4.13169e-08
-6.97251e-09
-1.99211e-09
6.66909e-08
-1.14223e-09
5.69784e-08
-8.03689e-10
-1.85459e-09
2.70965e-08
-3.19484e-09
-2.04711e-09
5.35977e-08
-5.11646e-09
-2.20903e-09
6.27894e-08
-6.05592e-10
6.20621e-08
1.42465e-09
-2.23816e-09
1.96792e-08
-3.81816e-09
1.26232e-09
6.11454e-08
1.28044e-09
-2.55218e-09
2.75419e-08
-5.32251e-09
7.66104e-08
5.69179e-09
2.86483e-08
-6.79655e-09
3.30049e-08
-3.06802e-09
3.20089e-08
3.35036e-08
-1.85831e-09
-2.77661e-09
5.51885e-08
-1.95875e-09
-3.7306e-09
4.67526e-08
-5.40938e-09
-3.30677e-09
7.55152e-08
-1.32636e-09
5.47725e-08
-2.78896e-09
-1.93657e-10
2.55819e-08
-1.98086e-09
2.42618e-09
4.66328e-08
-4.08345e-09
-2.51765e-09
6.41029e-08
-2.10576e-09
5.93532e-08
-2.93165e-10
4.83519e-10
1.96804e-08
-7.61355e-09
5.16311e-11
7.08403e-08
-5.34216e-09