/*--------------------------------*- C++ -*----------------------------------*\
| =========                 |                                                 |
| \\      /  F ield         | OpenFOAM: The Open Source CFD Toolbox           |
|  \\    /   O peration     | Version:  2506                                  |
|   \\  /    A nd           | Website:  www.openfoam.com                      |
|    \\/     M anipulation  |                                                 |
\*---------------------------------------------------------------------------*/
FoamFile
{
    version     2.0;
    format      ascii;
    arch        "LSB;label=32;scalar=64";
    class       volVectorField;
    location    "0.08";
    object      U;
}
// * * * * * * * * * * * * * * * * * * * * * * * * * * * * * * * * * * * * * //

dimensions      [0 1 -1 0 0 0 0];

internalField   nonuniform List<vector> 
1152
(
(0.00445725 0.00833677 0.0459588)
(-0.001969 0.000884279 0.0164989)
(-0.00282713 -0.00216309 0.0224469)
(0.000289657 -0.000335278 0.000637768)
(-0.00106516 -0.0118678 0.0541831)
(-0.00288081 -4.89385e-05 0.0160879)
(-0.00230367 -0.00189853 0.0218146)
(-0.000792376 0.00109387 0.016879)
(-3.39687e-05 -0.00110357 0.00440393)
(-4.38243e-05 -0.00214432 0.0234104)
(-0.00117472 0.00228392 0.0184423)
(-0.00224208 0.00246121 0.0248339)
(-0.000882046 8.39647e-05 0.017833)
(0.00140726 -0.00183983 0.0154686)
(0.000524085 0.00170087 0.0167561)
(-0.00188998 0.00183882 0.0278954)
(-0.00685751 -0.00914861 0.059648)
(0.000879472 -0.00132256 0.0259735)
(0.00277693 -0.00231546 0.0571759)
(-0.00259194 0.00168703 0.0386626)
(-0.00274331 0.00153556 0.0390536)
(0.00233054 -0.000897624 0.0344605)
(0.00028957 -0.00206955 0.0244442)
(0.00101634 -0.00216369 0.0311987)
(-2.92441e-06 -0.00109191 0.00421768)
(-0.00133748 0.000748994 0.0520284)
(-0.000185913 -0.000462688 0.0246918)
(0.00288766 0.000488492 0.0377082)
(0.00239151 -0.00578564 0.0477403)
(-0.000598835 -0.000149035 0.026456)
(2.41645e-05 -0.00134121 0.068047)
(-7.1838e-05 0.000552615 0.00370909)
(0.000777316 -0.00169093 0.0154184)
(0.00473495 -0.0031133 0.0311498)
(-0.00144814 -0.00101812 0.0412466)
(-0.00594478 -0.000513184 0.0583378)
(0.000178141 1.3778e-05 0.0069986)
(0.00295619 -0.00333453 0.0380488)
(0.000623191 -0.00194226 0.031754)
(-0.000909055 -0.000921154 0.024142)
(-0.00125779 0.000107909 0.0336857)
(0.000211727 -0.0011816 0.0282642)
(0.00154428 -0.00354204 0.0293719)
(0.000206287 -0.00151176 0.027495)
(-0.0013754 0.000114678 0.0328259)
(-0.00251932 0.000138729 0.0339753)
(-0.00021847 -0.00233513 0.0311834)
(0.000387541 -0.0044586 0.0414221)
(0.000507295 -0.000368854 0.00797909)
(0.0136229 -0.00300651 0.0273051)
(-0.00854538 0.00135676 0.0409067)
(-0.0156995 -0.00114876 0.0300039)
(0.005584 -0.00303816 0.0500171)
(0.00694526 -0.00857714 0.02967)
(0.000464872 -0.0170839 0.0309245)
(-0.00790437 -0.00267107 0.0312889)
(0.000157362 3.72675e-05 0.0216974)
(0.00282385 -0.004481 0.0433556)
(0.00104494 -0.00827858 0.0321939)
(-0.00390604 -0.00588599 0.0417466)
(0.00255282 0.000529595 0.0576945)
(0.00039473 0.000570157 0.0267855)
(-0.000284912 -0.00470032 0.0502785)
(-0.00287843 -0.00921602 0.0547723)
(0.000152078 0.000247385 0.00681769)
(-0.0291721 0.0059098 0.0425338)
(0.000147784 -0.000172007 0.00590544)
(6.74378e-05 -3.77675e-05 0.0105778)
(0.00182109 -0.00758206 0.0205356)
(0.000570783 -0.00319046 0.0238643)
(-0.00140594 -0.00130762 0.0455496)
(-0.001448 -0.00313428 0.032314)
(0.00089404 -0.000725126 0.0276113)
(0.00123986 -0.00144856 0.0296026)
(0.000661109 -0.000993193 0.0276262)
(-0.00013143 -0.00213853 0.0553526)
(0.00123958 0.00421934 0.0335593)
(0.000668567 0.00130011 0.0244903)
(0.000363114 0.000370956 0.0192651)
(0.000516832 -0.00256939 0.0438043)
(-0.0053307 0.0109369 0.0224663)
(-0.00391281 -5.71671e-06 0.0234891)
(0.00635133 -0.00141905 0.0234855)
(0.0209241 0.0014828 0.0295241)
(0.00442472 0.0158793 0.0409326)
(0.0030846 0.00547037 0.0199303)
(0.00308308 0.0114542 0.0189789)
(0.00254289 0.00233994 0.018039)
(0.000700404 0.00177013 0.012791)
(0.00225001 0.00267316 0.0208718)
(0.00210929 0.000208269 0.0171492)
(0.00111015 -0.00149297 0.0171747)
(0.00155116 0.00209586 0.0369001)
(0.000309607 0.000570479 0.00582306)
(-0.00285882 0.000325063 0.0346247)
(0.00131486 0.00126844 0.0421295)
(-0.000136597 0.000221868 0.0292069)
(3.45319e-05 0.00055367 0.0218918)
(0.000270837 0.000981999 0.0625316)
(0.00245866 0.000344375 0.0269082)
(-0.000401571 0.00213221 0.0265189)
(7.79014e-05 0.000736224 0.0294044)
(0.000520961 0.00381028 0.038022)
(0.00258499 0.00104366 0.0262259)
(0.000605353 0.00134497 0.0180928)
(0.000631745 0.00100479 0.0151349)
(-0.000303639 0.00129159 0.0194062)
(0.00140677 0.00105702 0.029674)
(-9.69007e-05 0.000492343 0.0122693)
(0.000663259 0.000254321 0.00983398)
(-0.00147233 0.000286901 0.0134885)
(0.000279231 0.000874408 0.0225172)
(7.54377e-05 0.00596407 0.041335)
(0.000473318 0.00153303 0.0302971)
(0.000524726 0.00181271 0.0510855)
(0.00219646 0.000857154 0.0356074)
(-0.00102898 0.00218004 0.0387327)
(-0.000427539 0.00124195 0.0372927)
(0.000139769 0.00193231 0.0438793)
(0.00173164 0.00110899 0.0345946)
(-0.000527877 0.00127027 0.0227942)
(7.11147e-05 0.000577674 0.0186535)
(0.000314639 0.00183775 0.02718)
(0.00140164 0.00197744 0.0352194)
(-0.00153487 0.000758747 0.0130182)
(2.97509e-05 0.00105727 0.0228093)
(0.00120461 0.00113137 0.0206527)
(0.000633521 0.00161798 0.0328204)
(0.00227767 -0.0052859 0.012756)
(-0.00154804 -0.00159035 0.0110591)
(-0.000326322 -0.000273255 0.0128741)
(0.00106922 -0.000140571 0.0108071)
(-0.000844046 0.000890664 0.0113591)
(-0.00164153 0.00128017 0.0111737)
(-0.000491647 0.00141939 0.012304)
(0.000828969 0.000217358 0.0108605)
(0.000418306 0.00102956 0.00768959)
(-0.00109924 0.00117481 0.00737318)
(-0.0014985 0.00171962 0.00878543)
(-0.000741544 0.000341647 0.0102469)
(-4.95274e-05 -0.000709508 0.00620854)
(-0.000988552 -0.000675877 0.00725896)
(-0.00150487 -8.59898e-05 0.00734404)
(-0.00286305 0.000272948 0.00943649)
(0.000722352 -0.0011924 0.0185669)
(-0.00051023 -0.000288905 0.0189215)
(-0.000133723 -4.02007e-05 0.0196056)
(0.000191936 -4.31441e-05 0.019013)
(-0.000357297 0.000715859 0.0183346)
(-0.000789991 0.00075822 0.0188853)
(-0.000387973 0.000647528 0.019503)
(4.35878e-05 0.000248409 0.0191247)
(-1.46188e-05 0.000499143 0.0171044)
(-0.000625148 0.000677368 0.0173153)
(-0.000706813 0.000819592 0.0180594)
(-0.000400956 0.00047954 0.0187476)
(-7.34563e-05 -0.000509805 0.0167251)
(-0.000472886 -0.00020614 0.0172763)
(-0.000631997 8.01779e-05 0.0175951)
(-0.000798821 0.000391584 0.0186794)
(0.00013274 -0.000316558 0.0160216)
(-0.000281337 -0.000130503 0.0161721)
(-0.000159995 -0.000100329 0.0162801)
(-9.53848e-05 -0.000104299 0.0161078)
(-0.000193039 0.000191433 0.0157198)
(-0.000410476 0.00021718 0.0159899)
(-0.000300792 0.000148484 0.01619)
(-0.000192945 1.98246e-05 0.0161153)
(-8.75209e-05 4.74028e-05 0.0152369)
(-0.000351924 0.000157816 0.0153939)
(-0.000397991 0.000189881 0.0156321)
(-0.000340807 8.44353e-05 0.0158222)
(-5.89642e-05 -0.000385956 0.0150895)
(-0.000267041 -0.000211232 0.0152508)
(-0.000387155 -0.000122597 0.0153746)
(-0.000470105 -6.48156e-05 0.0156082)
(-3.20368e-06 -0.000106231 0.016368)
(-0.00014605 -7.11865e-05 0.0164609)
(-0.00011278 -7.39248e-05 0.016486)
(-0.000110191 -6.94475e-05 0.016449)
(-0.000105933 2.79394e-05 0.0162582)
(-0.000195846 4.35457e-05 0.0163861)
(-0.000165431 2.44635e-05 0.0164627)
(-0.00014343 1.66772e-06 0.0164644)
(-6.55172e-05 -5.13167e-05 0.016118)
(-0.000164112 1.1216e-05 0.0161995)
(-0.000176012 4.32097e-05 0.0162826)
(-0.000158647 4.78125e-05 0.0163477)
(-3.18938e-05 -0.000242067 0.016096)
(-0.000101089 -0.000147408 0.0161445)
(-0.00013261 -7.94174e-05 0.0161962)
(-0.00014104 -1.21123e-05 0.016273)
(-2.23593e-05 -5.53162e-05 0.0163362)
(-7.36483e-05 -5.19152e-05 0.0163788)
(-6.94815e-05 -5.61912e-05 0.0163835)
(-7.61723e-05 -5.16609e-05 0.0163687)
(-5.23378e-05 -2.55545e-05 0.0162966)
(-8.96534e-05 -1.85951e-05 0.0163486)
(-8.63695e-05 -2.14156e-05 0.0163709)
(-8.65872e-05 -2.19642e-05 0.0163654)
(-3.74161e-05 -6.48432e-05 0.0162523)
(-7.45824e-05 -3.60231e-05 0.0162828)
(-8.12136e-05 -1.7075e-05 0.0162977)
(-8.02568e-05 -3.89333e-06 0.016295)
(-1.61246e-05 -0.000143231 0.016246)
(-4.05258e-05 -0.000101422 0.016251)
(-5.35222e-05 -6.78657e-05 0.0162422)
(-6.34211e-05 -3.93478e-05 0.0162212)
(-1.58332e-05 -3.99688e-05 0.0163424)
(-3.5506e-05 -4.13871e-05 0.0163584)
(-3.83844e-05 -4.29357e-05 0.0163556)
(-4.38138e-05 -3.88473e-05 0.0163408)
(-2.4245e-05 -3.64487e-05 0.0163292)
(-3.98853e-05 -3.25519e-05 0.0163478)
(-4.16957e-05 -3.02865e-05 0.0163491)
(-4.46758e-05 -2.54863e-05 0.0163349)
(-1.74609e-05 -5.47074e-05 0.0163122)
(-3.095e-05 -4.09287e-05 0.0163211)
(-3.4403e-05 -2.87144e-05 0.016316)
(-3.52362e-05 -1.65611e-05 0.0162955)
(-5.69186e-06 -8.55337e-05 0.0163038)
(-1.261e-05 -6.70614e-05 0.0162985)
(-1.63387e-05 -4.91692e-05 0.0162782)
(-2.12279e-05 -3.28273e-05 0.0162421)
(-8.8162e-06 -3.18406e-05 0.0163554)
(-1.71329e-05 -3.27877e-05 0.0163591)
(-2.0808e-05 -3.28183e-05 0.0163516)
(-2.44126e-05 -2.97002e-05 0.0163328)
(-1.09103e-05 -3.30173e-05 0.0163509)
(-1.76589e-05 -3.0919e-05 0.0163547)
(-2.02339e-05 -2.82178e-05 0.0163468)
(-2.26707e-05 -2.37896e-05 0.0163256)
(-7.62306e-06 -4.10531e-05 0.0163409)
(-1.26447e-05 -3.46654e-05 0.0163394)
(-1.46508e-05 -2.74552e-05 0.0163255)
(-1.55683e-05 -1.96241e-05 0.0162966)
(-1.41663e-06 -5.2767e-05 0.0163271)
(-3.08704e-06 -4.45387e-05 0.0163173)
(-4.29029e-06 -3.51965e-05 0.0162925)
(-6.4701e-06 -2.6168e-05 0.0162498)
(-4.30269e-06 -2.49697e-05 0.0163643)
(-8.40728e-06 -2.53823e-05 0.0163623)
(-1.12206e-05 -2.49323e-05 0.0163518)
(-1.34608e-05 -2.27394e-05 0.0163296)
(-4.83817e-06 -2.62876e-05 0.0163619)
(-8.03308e-06 -2.51061e-05 0.0163592)
(-9.98044e-06 -2.30723e-05 0.016347)
(-1.14954e-05 -1.99965e-05 0.0163217)
(-3.14353e-06 -2.9613e-05 0.0163526)
(-5.17143e-06 -2.65608e-05 0.0163466)
(-6.40227e-06 -2.25081e-05 0.0163292)
(-6.93545e-06 -1.78103e-05 0.0162967)
(-2.56435e-09 -3.36294e-05 0.0163343)
(-2.87495e-07 -2.98882e-05 0.016323)
(-5.96087e-07 -2.50775e-05 0.0162972)
(-1.48619e-06 -2.00546e-05 0.016253)
(-1.90985e-06 -1.90618e-05 0.0163695)
(-4.18983e-06 -1.92093e-05 0.0163651)
(-6.00508e-06 -1.8745e-05 0.0163527)
(-7.33801e-06 -1.72784e-05 0.0163282)
(-2.06223e-06 -1.98748e-05 0.016367)
(-3.73194e-06 -1.92021e-05 0.0163617)
(-4.96883e-06 -1.78804e-05 0.0163473)
(-5.80592e-06 -1.59228e-05 0.0163197)
(-1.21483e-06 -2.10593e-05 0.0163568)
(-2.13334e-06 -1.95519e-05 0.016349)
(-2.82723e-06 -1.73176e-05 0.01633)
(-3.03402e-06 -1.45861e-05 0.0162958)
(3.49356e-07 -2.20379e-05 0.0163354)
(4.02943e-07 -2.02801e-05 0.0163237)
(3.91615e-07 -1.78087e-05 0.0162977)
(7.64351e-09 -1.50406e-05 0.016253)
(-7.18559e-07 -1.4232e-05 0.0163725)
(-2.07381e-06 -1.42858e-05 0.0163671)
(-3.17725e-06 -1.39132e-05 0.0163535)
(-3.94424e-06 -1.29594e-05 0.0163277)
(-7.9058e-07 -1.46523e-05 0.0163693)
(-1.71223e-06 -1.42683e-05 0.016363)
(-2.44441e-06 -1.34592e-05 0.0163474)
(-2.88426e-06 -1.21878e-05 0.0163185)
(-3.88758e-07 -1.48948e-05 0.0163581)
(-8.37177e-07 -1.41341e-05 0.0163495)
(-1.1483e-06 -1.29119e-05 0.0163297)
(-1.18958e-06 -1.13172e-05 0.0162948)
(3.83767e-07 -1.47488e-05 0.0163346)
(5.08739e-07 -1.39035e-05 0.0163228)
(6.11501e-07 -1.26155e-05 0.0162967)
(4.94634e-07 -1.11237e-05 0.0162519)
(-1.92484e-07 -1.04589e-05 0.0163742)
(-9.9701e-07 -1.04741e-05 0.0163683)
(-1.64239e-06 -1.02095e-05 0.0163541)
(-2.08238e-06 -9.56214e-06 0.0163274)
(-2.37356e-07 -1.06209e-05 0.0163704)
(-7.59533e-07 -1.04054e-05 0.0163635)
(-1.14607e-06 -9.91357e-06 0.0163473)
(-1.37029e-06 -9.10348e-06 0.0163177)
(-4.79753e-08 -1.04955e-05 0.0163582)
(-2.65294e-07 -1.01037e-05 0.0163493)
(-3.75385e-07 -9.42051e-06 0.0163291)
(-3.38178e-07 -8.50569e-06 0.0162936)
(3.33549e-07 -1.00069e-05 0.0163334)
(4.61665e-07 -9.5947e-06 0.0163215)
(5.98439e-07 -8.91643e-06 0.0162954)
(6.1239e-07 -8.1108e-06 0.0162505)
(4.10752e-10 -7.56725e-06 0.0163751)
(-4.47069e-07 -7.55337e-06 0.016369)
(-8.23569e-07 -7.36683e-06 0.0163544)
(-1.07665e-06 -6.92361e-06 0.0163273)
(-1.71562e-08 -7.56628e-06 0.0163707)
(-3.00168e-07 -7.45069e-06 0.0163636)
(-4.97919e-07 -7.15213e-06 0.0163471)
(-6.04811e-07 -6.63933e-06 0.0163171)
(7.54451e-08 -7.33473e-06 0.0163578)
(-2.00342e-08 -7.13364e-06 0.0163488)
(-3.78272e-08 -6.74679e-06 0.0163284)
(2.90244e-08 -6.21369e-06 0.0162927)
(2.66334e-07 -6.8148e-06 0.0163322)
(3.79656e-07 -6.61398e-06 0.0163203)
(5.14493e-07 -6.25226e-06 0.0162942)
(5.73291e-07 -5.8131e-06 0.0162492)
(6.03844e-08 -5.32389e-06 0.0163756)
(-1.76666e-07 -5.29339e-06 0.0163693)
(-3.93807e-07 -5.15859e-06 0.0163546)
(-5.35847e-07 -4.85933e-06 0.0163271)
(6.22044e-08 -5.25115e-06 0.0163707)
(-8.39536e-08 -5.18871e-06 0.0163635)
(-1.80415e-07 -5.00472e-06 0.0163469)
(-2.23866e-07 -4.67963e-06 0.0163167)
(1.10887e-07 -5.02154e-06 0.0163573)
(7.65972e-08 -4.91807e-06 0.0163482)
(9.70447e-08 -4.697e-06 0.0163278)
(1.70381e-07 -4.38557e-06 0.0162919)
(2.08665e-07 -4.58391e-06 0.0163311)
(2.99141e-07 -4.48652e-06 0.0163193)
(4.1183e-07 -4.29214e-06 0.0162932)
(4.84339e-07 -4.05195e-06 0.0162482)
(1.01715e-07 -3.52797e-06 0.0163758)
(-3.01452e-08 -3.49581e-06 0.0163694)
(-1.50441e-07 -3.40242e-06 0.0163546)
(-2.29469e-07 -3.20591e-06 0.016327)
(1.10951e-07 -3.45593e-06 0.0163706)
(3.24677e-08 -3.41728e-06 0.0163633)
(-1.2343e-08 -3.30359e-06 0.0163466)
(-2.88439e-08 -3.10191e-06 0.0163163)
(1.36846e-07 -3.27e-06 0.0163569)
(1.25948e-07 -3.21602e-06 0.0163478)
(1.5281e-07 -3.09025e-06 0.0163273)
(2.11721e-07 -2.91393e-06 0.0162913)
(1.86276e-07 -2.94933e-06 0.0163304)
(2.49199e-07 -2.90386e-06 0.0163185)
(3.28047e-07 -2.80126e-06 0.0162924)
(3.9181e-07 -2.67169e-06 0.0162474)
(1.96404e-07 -2.047e-06 0.0163758)
(1.14174e-07 -2.0239e-06 0.0163694)
(4.70727e-08 -1.96747e-06 0.0163546)
(-4.72549e-09 -1.85185e-06 0.016327)
(2.03254e-07 -2.00927e-06 0.0163705)
(1.54989e-07 -1.98466e-06 0.0163632)
(1.28167e-07 -1.91935e-06 0.0163464)
(1.10469e-07 -1.80759e-06 0.0163161)
(2.14144e-07 -1.88748e-06 0.0163565)
(2.06345e-07 -1.86339e-06 0.0163474)
(2.1705e-07 -1.79949e-06 0.0163269)
(2.43746e-07 -1.70532e-06 0.016291)
(2.33802e-07 -1.69198e-06 0.0163298)
(2.65444e-07 -1.67606e-06 0.0163179)
(3.09642e-07 -1.62922e-06 0.0162919)
(3.39591e-07 -1.56465e-06 0.0162469)
(3.56152e-07 -9.77015e-07 0.0163758)
(3.09129e-07 -9.66446e-07 0.0163694)
(2.62331e-07 -9.39509e-07 0.0163546)
(2.1113e-07 -8.8638e-07 0.016327)
(3.57088e-07 -9.71808e-07 0.0163704)
(3.27827e-07 -9.62883e-07 0.0163631)
(2.98504e-07 -9.35695e-07 0.0163464)
(2.61273e-07 -8.86402e-07 0.016316)
(3.56691e-07 -9.19513e-07 0.0163564)
(3.47058e-07 -9.15045e-07 0.0163472)
(3.35352e-07 -8.92984e-07 0.0163268)
(3.15828e-07 -8.56301e-07 0.0162908)
(3.58191e-07 -8.29681e-07 0.0163295)
(3.67972e-07 -8.32939e-07 0.0163177)
(3.71051e-07 -8.20308e-07 0.0162916)
(3.60431e-07 -7.99337e-07 0.0162467)
(-0.000171914 0.000128037 0.0353463)
(0.00132874 -0.00107785 0.0166172)
(0.00460008 -0.00233009 0.0316085)
(1.06249e-05 0.00177399 0.015675)
(0.000526844 0.00157099 0.0148117)
(0.000733865 0.00142554 0.0109949)
(0.00401307 0.000294318 0.0256427)
(0.00119607 0.00343382 0.0166047)
(0.00192042 0.00406391 0.0302379)
(0.000668575 0.00211527 0.022596)
(0.00253024 -3.17455e-05 0.0216167)
(0.00262442 0.00601119 0.028006)
(-0.000140854 -7.48197e-07 -0.000454058)
(-0.000287531 -0.000229305 0.0114472)
(0.0023606 -0.00237383 0.0208654)
(0.00241145 -0.000436102 0.0199546)
(0.000570512 -0.000773189 0.0113309)
(0.00214796 0.000217865 0.0225523)
(0.00213035 -0.00199174 0.0314073)
(0.00277234 0.00310563 0.0464577)
(0.00293719 0.0013536 0.0427141)
(-0.000706097 -8.82537e-06 0.0310107)
(0.000503796 0.00150882 0.00829308)
(0.000624414 -0.000859779 0.0247088)
(0.00256394 -0.000381374 0.0317513)
(0.0025704 -6.21661e-05 0.0400024)
(0.00133456 0.00215738 0.0496918)
(-0.00141048 -1.32388e-05 0.0525066)
(0.00506404 0.0027512 0.0536628)
(0.00152752 0.00281012 0.0435785)
(9.8509e-05 0.000375154 0.0185107)
(0.00126628 0.00161642 0.0479218)
(7.27794e-05 -0.00155684 0.0274558)
(-0.00143753 -0.00107976 0.0370462)
(-0.00205047 0.00277903 0.0348503)
(0.000349849 -0.00142226 0.00571419)
(-0.00149492 -0.00303483 0.0434322)
(0.000997993 -0.00479611 0.0412477)
(-0.000204296 -0.00109133 0.0254006)
(-0.00217092 -0.000735748 0.0529518)
(-0.00236333 -0.00503721 0.0373913)
(1.4003e-05 -0.00143043 0.0104683)
(-0.00200773 -0.00370956 0.0554977)
(-0.000625 -0.00246547 0.0213856)
(-0.00286005 -0.00272494 0.0232613)
(0.00319695 -0.00294345 0.0508204)
(0.00091286 -0.000117971 0.0319142)
(-0.00111073 0.00175591 0.0563468)
(0.0010084 0.00143331 0.0170517)
(-0.00143483 -0.000259836 0.0379631)
(-0.00140874 0.000120797 0.0142366)
(-0.0017972 -0.00298158 0.0353451)
(0.000274605 -0.000365594 0.0277813)
(-0.00250746 -0.000912766 0.033378)
(-0.00219364 -0.00103781 0.0390062)
(8.84705e-05 -0.00420788 0.0453987)
(-0.00113372 -0.00285038 0.0423237)
(-0.00215367 -0.00467064 0.0423203)
(-0.0039613 -0.00221423 0.0375809)
(-0.00161471 -0.00195739 0.0218807)
(-0.00434237 -0.000547291 0.0359746)
(-0.00319829 -0.00287857 0.0249735)
(-0.000523666 -0.00148481 0.030595)
(-0.0015526 -0.00194499 0.05365)
(0.00238765 0.00358153 0.0263398)
(-0.00576786 0.00425933 0.0672837)
(-0.0019781 -0.000603202 0.0293787)
(-0.000699946 -0.00238005 0.0251677)
(-0.00331625 -0.000798949 0.0640265)
(-0.00160047 0.00088493 0.0168695)
(-0.00362955 -0.000890054 0.0384491)
(0.000149931 -0.00257191 0.0365919)
(3.43297e-05 -0.000239729 0.00811983)
(-0.00436128 0.00112476 0.0586041)
(-0.00184255 0.00271127 0.0588258)
(-0.000703502 -0.00175565 0.018896)
(-0.00201197 -0.00148692 0.0298643)
(-0.000368868 0.000969819 0.0280773)
(-0.00175128 0.00129337 0.0206177)
(-0.00347238 -0.00198069 0.0477186)
(-0.00481788 0.0104341 0.0436311)
(0.000657989 -0.000293599 0.0107388)
(0.00203513 0.0012833 0.0226716)
(0.000260754 0.000112224 0.00760692)
(-0.000202364 0.000485768 0.00622388)
(-0.000952183 0.00268361 0.0286911)
(0.000209431 -0.000256899 0.0129608)
(-0.00229421 0.00102027 0.0256358)
(-0.00364381 0.00144963 0.0266185)
(-0.00131203 0.00205121 0.0235725)
(-5.68999e-05 -0.000442716 0.0202598)
(-0.00162194 -1.18745e-05 0.0188388)
(-0.00022933 -0.000294439 0.0140458)
(-0.00116932 0.000542923 0.0233135)
(-0.00188748 0.00129887 0.0288803)
(-0.00249722 -0.000125604 0.0207722)
(0.000102447 0.000375081 0.00970174)
(7.29289e-05 0.000763977 0.0264881)
(0.000857653 -4.54758e-05 0.0215623)
(0.0006221 0.000254885 0.0139665)
(0.00016288 0.000207692 0.0160078)
(0.000275912 -6.46552e-05 0.0150928)
(0.000673362 -2.58519e-05 0.0195299)
(0.000813994 -0.000766328 0.0203761)
(0.00054973 0.00289136 0.0244952)
(-0.00113111 7.6055e-05 0.0304029)
(0.00070104 -0.000707147 0.0265451)
(0.000180662 -0.000451483 0.0201878)
(0.000989274 0.000468995 0.0142913)
(-0.000184327 0.000404594 0.0188971)
(-0.000473819 9.17547e-05 0.0204091)
(7.03754e-05 -5.56092e-05 0.022855)
(-0.000867065 0.00276017 0.0126757)
(0.000465909 0.00289539 0.0313912)
(0.000654115 0.00102914 0.0265147)
(0.000518552 0.001099 0.0285783)
(-0.000843299 0.00288447 0.0534351)
(-0.000902958 0.00174683 0.0265744)
(-0.000200111 0.000555359 0.0274682)
(0.000593808 0.000539716 0.0284581)
(-0.00144517 0.00165111 0.045935)
(-0.00121483 0.000503976 0.0340732)
(-2.90923e-05 0.000416008 0.032327)
(0.000646108 6.02155e-05 0.0279597)
(-0.000191238 0.000502402 0.0262614)
(-0.000744571 0.000368577 0.0253009)
(-0.000114105 0.00041113 0.0289806)
(0.00037657 -5.4455e-05 0.0285661)
(-0.000139341 -0.00397245 0.00765571)
(-0.000432325 -0.00096798 0.00800038)
(-0.000912137 -0.000595088 0.00782347)
(-0.00188347 0.00105218 0.00850638)
(0.000660656 -0.00385638 0.0150037)
(0.00178955 -0.00135367 0.00870292)
(-0.000499301 -0.000656172 0.00816542)
(-0.00103031 0.00109391 0.00814992)
(0.00175268 0.00112144 0.0147218)
(0.00208446 -0.000153344 0.00985596)
(7.83811e-05 -0.000202412 0.00898675)
(-0.000219838 0.000498494 0.00781168)
(0.00174507 0.00147649 0.00933351)
(0.00100318 0.00042314 0.00779664)
(-0.000243657 0.000282685 0.0083394)
(-0.0001148 0.0001043 0.00766411)
(3.99489e-06 -0.00198606 0.0178144)
(8.72034e-07 -0.000714501 0.0178837)
(-0.000240355 -0.000327204 0.0179484)
(-0.000457944 0.000419792 0.0184668)
(0.000375769 -0.00195253 0.0213079)
(0.000960265 -0.000847957 0.018606)
(7.9512e-05 -0.00041465 0.0182838)
(-0.000123632 0.000388298 0.0183458)
(0.000851689 0.000274426 0.0217851)
(0.00124226 -0.000102953 0.0190093)
(0.000387438 -9.46513e-05 0.0185467)
(0.00019287 0.00028807 0.0180981)
(0.000958116 0.000576208 0.0195614)
(0.000825172 0.000127832 0.0180608)
(0.000280396 3.16899e-05 0.0182224)
(0.000175271 7.27353e-05 0.0179426)
(1.20293e-05 -0.000909371 0.0155664)
(-5.80284e-05 -0.000437184 0.0154395)
(-0.000253774 -0.00023276 0.0154174)
(-0.000317531 -3.60391e-06 0.0154308)
(0.000189219 -0.000886432 0.0167148)
(0.000302396 -0.000444186 0.0157106)
(-0.000100704 -0.000219844 0.0154819)
(-0.000175558 5.75057e-05 0.0152842)
(0.000396805 -0.000155036 0.0169504)
(0.000460228 -0.000189552 0.0157835)
(2.28075e-05 -0.00013048 0.0154704)
(-7.39212e-05 3.0718e-05 0.0150843)
(0.000479764 7.20546e-05 0.0161086)
(0.000364206 -5.8328e-05 0.0153226)
(3.78614e-05 -5.19929e-05 0.0151999)
(-3.18023e-05 5.61431e-07 0.0148637)
(2.17292e-05 -0.000438449 0.0162921)
(1.40785e-05 -0.000257088 0.0162211)
(-3.99461e-05 -0.000141908 0.0162167)
(-7.08741e-05 -1.93006e-05 0.0162308)
(0.000108963 -0.000408103 0.0166481)
(0.000166033 -0.000245544 0.0163036)
(4.43928e-05 -0.000134356 0.0162138)
(-1.021e-05 -4.62649e-06 0.0161584)
(0.000205095 -0.000130828 0.016726)
(0.000259432 -0.000114963 0.0162835)
(0.000116873 -7.6987e-05 0.0161561)
(4.17971e-05 8.69248e-06 0.0160435)
(0.000259895 -5.7326e-06 0.0164541)
(0.000256167 -5.47478e-05 0.0161073)
(0.000137341 -6.12622e-05 0.0160309)
(5.51036e-05 -1.70046e-05 0.0159298)
(1.34854e-05 -0.000210752 0.0163114)
(1.08337e-05 -0.000142898 0.0162629)
(-1.18024e-05 -8.7875e-05 0.0162153)
(-2.83501e-05 -3.94117e-05 0.0161561)
(5.54065e-05 -0.000194737 0.0164048)
(7.36515e-05 -0.000134024 0.0162615)
(2.98779e-05 -8.12111e-05 0.0161658)
(-6.19978e-07 -2.91007e-05 0.0160756)
(9.93341e-05 -9.58364e-05 0.0163906)
(0.00011996 -8.3712e-05 0.0161984)
(6.44424e-05 -6.03123e-05 0.0160751)
(1.91118e-05 -2.45923e-05 0.0159637)
(0.000128765 -2.69066e-05 0.0162239)
(0.000134263 -4.71619e-05 0.0160467)
(8.22299e-05 -4.96063e-05 0.0159335)
(3.19957e-05 -2.84371e-05 0.0158293)
(9.66717e-06 -0.000107623 0.0163108)
(1.10875e-05 -8.12943e-05 0.0162823)
(4.75972e-06 -5.45377e-05 0.0162411)
(-3.49659e-06 -3.16229e-05 0.0161873)
(2.94842e-05 -9.77495e-05 0.0163077)
(3.84974e-05 -7.45083e-05 0.0162443)
(2.60184e-05 -4.93893e-05 0.0161795)
(1.07779e-05 -2.57384e-05 0.0161141)
(4.96056e-05 -5.84222e-05 0.016248)
(6.08239e-05 -5.19762e-05 0.0161641)
(4.41698e-05 -3.95196e-05 0.0160849)
(2.10652e-05 -2.23099e-05 0.0160152)
(6.43868e-05 -2.09555e-05 0.0161147)
(7.36404e-05 -3.10943e-05 0.0160336)
(5.67483e-05 -3.43771e-05 0.0159574)
(2.87771e-05 -2.4277e-05 0.0158968)
(6.33337e-06 -5.90889e-05 0.0163071)
(8.14324e-06 -4.82182e-05 0.0162859)
(6.61376e-06 -3.52562e-05 0.0162479)
(2.45104e-06 -2.40367e-05 0.0161938)
(1.57225e-05 -5.22347e-05 0.0162665)
(2.06983e-05 -4.31078e-05 0.0162311)
(1.72617e-05 -3.13158e-05 0.0161801)
(9.80895e-06 -2.07437e-05 0.0161215)
(2.51595e-05 -3.36513e-05 0.0161858)
(3.16146e-05 -3.13897e-05 0.0161413)
(2.66056e-05 -2.54529e-05 0.0160828)
(1.49618e-05 -1.81471e-05 0.0160249)
(3.25718e-05 -1.28415e-05 0.0160562)
(3.96148e-05 -1.87251e-05 0.0160123)
(3.4038e-05 -2.14716e-05 0.0159557)
(1.96521e-05 -1.78812e-05 0.0159073)
(3.85008e-06 -3.44959e-05 0.0163018)
(5.23566e-06 -2.97507e-05 0.0162838)
(5.11362e-06 -2.34011e-05 0.0162486)
(3.09576e-06 -1.76881e-05 0.0161958)
(8.38598e-06 -2.95946e-05 0.0162461)
(1.12932e-05 -2.59049e-05 0.016221)
(1.06425e-05 -2.03836e-05 0.0161782)
(7.25971e-06 -1.54376e-05 0.0161242)
(1.29832e-05 -1.95679e-05 0.0161553)
(1.68529e-05 -1.90058e-05 0.0161263)
(1.56699e-05 -1.64534e-05 0.01608)
(1.02528e-05 -1.32361e-05 0.016029)
(1.68429e-05 -7.56325e-06 0.0160235)
(2.15475e-05 -1.10631e-05 0.0159957)
(2.01398e-05 -1.33128e-05 0.0159528)
(1.32481e-05 -1.23654e-05 0.0159124)
(2.25233e-06 -2.1167e-05 0.0162968)
(3.19869e-06 -1.90093e-05 0.0162802)
(3.4222e-06 -1.58679e-05 0.0162467)
(2.46318e-06 -1.28682e-05 0.0161947)
(4.50084e-06 -1.76428e-05 0.0162342)
(6.25799e-06 -1.61214e-05 0.0162135)
(6.41396e-06 -1.3553e-05 0.0161749)
(4.98462e-06 -1.12093e-05 0.0161233)
(6.81741e-06 -1.17146e-05 0.0161387)
(9.22467e-06 -1.17324e-05 0.016116)
(9.23724e-06 -1.07187e-05 0.016076)
(6.84608e-06 -9.4452e-06 0.0160285)
(8.90189e-06 -4.49809e-06 0.0160047)
(1.20017e-05 -6.62422e-06 0.0159839)
(1.19771e-05 -8.27648e-06 0.0159485)
(8.8089e-06 -8.44163e-06 0.0159121)
(1.32698e-06 -1.35103e-05 0.0162928)
(1.97445e-06 -1.24913e-05 0.016277)
(2.26231e-06 -1.09149e-05 0.0162444)
(1.84504e-06 -9.31458e-06 0.0161929)
(2.44815e-06 -1.09626e-05 0.0162269)
(3.59925e-06 -1.03425e-05 0.0162081)
(3.947e-06 -9.17393e-06 0.0161718)
(3.42875e-06 -8.06829e-06 0.0161214)
(3.67607e-06 -7.22047e-06 0.0161289)
(5.2457e-06 -7.39651e-06 0.016109)
(5.5929e-06 -7.10389e-06 0.0160724)
(4.62665e-06 -6.70155e-06 0.0160267)
(4.85748e-06 -2.73913e-06 0.0159936)
(6.92126e-06 -4.04619e-06 0.015976)
(7.29708e-06 -5.25075e-06 0.0159446)
(5.92815e-06 -5.79567e-06 0.0159103)
(8.09795e-07 -8.85657e-06 0.0162898)
(1.25606e-06 -8.36447e-06 0.0162743)
(1.5201e-06 -7.56454e-06 0.0162422)
(1.37073e-06 -6.70846e-06 0.016191)
(1.38615e-06 -7.02605e-06 0.0162222)
(2.15431e-06 -6.79189e-06 0.0162042)
(2.50145e-06 -6.27993e-06 0.016169)
(2.38582e-06 -5.77382e-06 0.0161193)
(2.05923e-06 -4.57559e-06 0.0161229)
(3.10198e-06 -4.77148e-06 0.0161042)
(3.49488e-06 -4.78018e-06 0.0160693)
(3.17706e-06 -4.74644e-06 0.0160247)
(2.75202e-06 -1.71386e-06 0.0159868)
(4.13615e-06 -2.53505e-06 0.0159706)
(4.57675e-06 -3.40811e-06 0.0159413)
(4.0492e-06 -4.01246e-06 0.0159082)
(5.12799e-07 -5.88672e-06 0.0162876)
(8.22721e-07 -5.64699e-06 0.0162722)
(1.04054e-06 -5.23601e-06 0.0162404)
(1.01286e-06 -4.77575e-06 0.0161894)
(8.17528e-07 -4.59364e-06 0.016219)
(1.33721e-06 -4.51829e-06 0.0162014)
(1.63029e-06 -4.30845e-06 0.0161668)
(1.67275e-06 -4.0865e-06 0.0161176)
(1.19753e-06 -2.95689e-06 0.016119)
(1.90317e-06 -3.1262e-06 0.016101)
(2.24553e-06 -3.23836e-06 0.016067)
(2.20031e-06 -3.33671e-06 0.0160229)
(1.61958e-06 -1.09169e-06 0.0159824)
(2.54977e-06 -1.62127e-06 0.015967)
(2.94113e-06 -2.24708e-06 0.0159387)
(2.7836e-06 -2.77863e-06 0.0159064)
(3.40223e-07 -3.89435e-06 0.0162859)
(5.5166e-07 -3.77764e-06 0.0162707)
(7.19223e-07 -3.56435e-06 0.0162389)
(7.4158e-07 -3.31702e-06 0.016188)
(5.05496e-07 -3.00356e-06 0.0162168)
(8.53136e-07 -2.99296e-06 0.0161994)
(1.07951e-06 -2.91745e-06 0.0161652)
(1.16524e-06 -2.82652e-06 0.0161162)
(7.26289e-07 -1.91658e-06 0.0161164)
(1.19568e-06 -2.049e-06 0.0160987)
(1.46309e-06 -2.17622e-06 0.0160652)
(1.51221e-06 -2.29946e-06 0.0160215)
(9.86104e-07 -7.00619e-07 0.0159795)
(1.6015e-06 -1.04492e-06 0.0159645)
(1.90915e-06 -1.48283e-06 0.0159369)
(1.89625e-06 -1.89784e-06 0.0159049)
(2.56182e-07 -2.47951e-06 0.0162848)
(3.91353e-07 -2.42489e-06 0.0162696)
(5.0765e-07 -2.31642e-06 0.0162379)
(5.39347e-07 -2.18486e-06 0.0161871)
(3.45186e-07 -1.89983e-06 0.0162154)
(5.65922e-07 -1.91271e-06 0.0161981)
(7.22875e-07 -1.89431e-06 0.016164)
(7.97967e-07 -1.86117e-06 0.0161152)
(4.71808e-07 -1.20811e-06 0.0161147)
(7.68563e-07 -1.30456e-06 0.0160972)
(9.53813e-07 -1.41226e-06 0.0160639)
(1.01347e-06 -1.51608e-06 0.0160204)
(6.28665e-07 -4.41436e-07 0.0159777)
(1.01588e-06 -6.6271e-07 0.0159629)
(1.22817e-06 -9.56127e-07 0.0159356)
(1.25316e-06 -1.24924e-06 0.0159039)
(2.6645e-07 -1.41663e-06 0.016284)
(3.38854e-07 -1.39746e-06 0.0162689)
(4.02258e-07 -1.35014e-06 0.0162373)
(4.14855e-07 -1.29081e-06 0.0161865)
(3.08395e-07 -1.08521e-06 0.0162144)
(4.28892e-07 -1.10838e-06 0.0161972)
(5.14823e-07 -1.11595e-06 0.0161633)
(5.49626e-07 -1.10963e-06 0.0161145)
(3.72877e-07 -6.9495e-07 0.0161137)
(5.34526e-07 -7.66127e-07 0.0160962)
(6.34436e-07 -8.46406e-07 0.0160631)
(6.59983e-07 -9.16763e-07 0.0160198)
(4.57497e-07 -2.60603e-07 0.0159766)
(6.68011e-07 -4.02714e-07 0.0159619)
(7.80993e-07 -5.86074e-07 0.0159347)
(7.85621e-07 -7.65187e-07 0.0159032)
(3.64712e-07 -6.99822e-07 0.0162836)
(3.94859e-07 -7.06698e-07 0.0162685)
(4.08463e-07 -7.00183e-07 0.016237)
(3.92502e-07 -6.86554e-07 0.0161862)
(3.76623e-07 -5.42526e-07 0.0162139)
(4.27932e-07 -5.76177e-07 0.0161968)
(4.48756e-07 -6.02117e-07 0.0161629)
(4.33736e-07 -6.13638e-07 0.0161143)
(3.99252e-07 -3.53907e-07 0.0161131)
(4.66515e-07 -4.18908e-07 0.0160958)
(4.88504e-07 -4.8297e-07 0.0160628)
(4.63392e-07 -5.3062e-07 0.0160195)
(4.32659e-07 -1.44167e-07 0.015976)
(5.18256e-07 -2.47784e-07 0.0159613)
(5.40649e-07 -3.60945e-07 0.0159343)
(4.99957e-07 -4.57481e-07 0.0159029)
(0.00283964 0.00267906 0.0277644)
(-0.000555334 0.00444721 0.0380415)
(0.00105948 0.000211322 0.00839979)
(0.000463229 -0.000266357 0.0137674)
(0.00112261 -0.00240928 0.0205943)
(0.0018645 -0.00101306 0.0209597)
(0.000958902 -0.000859101 0.00863527)
(0.000153187 0.000825394 0.0181283)
(-0.000334795 -0.000493079 0.00143106)
(0.00109073 0.0002605 0.0237283)
(0.00243782 0.00244561 0.0227907)
(0.00144501 0.00283324 0.023447)
(-0.00689307 0.00526899 0.0414726)
(-0.000223577 0.00147181 0.0122185)
(0.00225308 0.00650772 0.0277289)
(-0.000388503 0.00302699 0.0225416)
(-0.0111043 -0.00410728 0.0535316)
(0.00219726 -0.00113868 0.00922906)
(0.010171 0.00231555 0.0549331)
(0.00126494 -0.0031788 0.0477587)
(0.000797417 0.000764671 0.0255502)
(0.000980858 0.00435678 0.0354494)
(0.00156437 -0.00158457 0.0548015)
(0.000165191 -0.00268834 0.0390433)
(0.00121406 0.000628245 0.0391535)
(-0.00136436 -0.000705185 0.0204226)
(0.000549161 -0.0015723 0.0107514)
(0.00109799 -0.000775723 0.0445393)
(-0.00149879 0.000419958 0.0254224)
(-0.000965148 -0.000437197 0.00761775)