/*--------------------------------*- C++ -*----------------------------------*\
| =========                 |                                                 |
| \\      /  F ield         | OpenFOAM: The Open Source CFD Toolbox           |
|  \\    /   O peration     | Version:  2506                                  |
|   \\  /    A nd           | Website:  www.openfoam.com                      |
|    \\/     M anipulation  |                                                 |
\*---------------------------------------------------------------------------*/
FoamFile
{
    version     2.0;
    format      ascii;
    arch        "LSB;label=32;scalar=64";
    class       volVectorField;
    location    "0.08";
    object      Us;
}
// * * * * * * * * * * * * * * * * * * * * * * * * * * * * * * * * * * * * * //

dimensions      [0 1 -1 0 0 0 0];

internalField   nonuniform List<vector> 
1152
(
(-5.6672e-05 0.000680071 -0.000563241)
(-9.36984e-05 -2.6299e-06 -3.33516e-05)
(-0.000296564 -0.00121743 -1.70387e-05)
(0.000313828 -0.000292273 -0.000265672)
(-8.17793e-05 -0.000413738 1.41495e-05)
(-4.23875e-05 -0.000584604 -1.33215e-05)
(5.08038e-06 -0.00104982 1.05898e-06)
(-0.000225041 -0.00069398 -0.000379336)
(0.000274784 -0.000738777 -8.10676e-05)
(-1.21134e-05 -0.00119245 0.000102529)
(-0.000383945 -0.000471227 -0.000134816)
(-0.000340654 -0.00059976 -0.000313421)
(0.000196679 -0.000996344 -0.000109293)
(0.000387388 -0.00111686 -0.000308741)
(-0.000437946 -0.000514758 -0.000723771)
(-5.01816e-05 -0.000466528 -0.000412988)
(-0.002113 -0.000226162 0.00422237)
(-0.000851109 -0.000223281 0.00312775)
(0.00056202 -0.00127201 0.00399104)
(-0.000607745 -0.000866755 0.00463255)
(-0.000694419 -0.000882083 0.00436778)
(-0.000407951 -0.000732638 0.0038727)
(0.000107604 -0.00129853 0.00290254)
(0.000960553 -0.000613283 0.00430855)
(-8.88263e-05 -0.00133392 0.00226542)
(-9.21176e-05 -0.000723129 0.00465052)
(8.94657e-06 -0.000902041 0.00364378)
(0.00132123 -7.48407e-05 0.00351879)
(0.00033761 -0.00203187 0.00415859)
(-0.000331626 -0.000799464 0.00476462)
(0.000276941 -0.000545944 0.00624356)
(-7.07974e-05 0.000365566 0.00180537)
(0.000436389 0.000563655 0.006121)
(0.000162079 -0.000459632 0.00503171)
(-0.000646025 -9.03397e-05 0.00584864)
(0.000218264 0.000350955 0.00559416)
(0.000137755 -0.000155805 0.00525748)
(0.000221797 -2.65289e-05 0.0055182)
(0.000209858 0.000329954 0.00572533)
(0.000601185 -5.08062e-05 0.00546042)
(-0.000511298 -0.000325126 0.00568644)
(-0.00020152 -0.000452213 0.00510806)
(0.000970259 -0.000226508 0.00558713)
(0.00114122 -0.000294951 0.00466068)
(-0.00104664 0.000321212 0.00655175)
(-0.000440469 -0.000798175 0.00518869)
(-0.00011384 -0.00088705 0.00519915)
(0.00026911 -0.00106786 0.00473851)
(-3.23052e-05 0.000199018 0.00582797)
(5.60915e-05 -2.42218e-05 0.00546348)
(-0.000115294 -0.000210876 0.00500784)
(-0.000499393 0.000147835 0.00538292)
(0.000309053 5.80954e-05 0.00565483)
(3.40561e-05 8.0817e-05 0.00546758)
(-5.07029e-05 -7.7969e-05 0.00506982)
(-0.000340723 0.000354617 0.00529689)
(-0.000110103 0.000195087 0.0056759)
(4.04282e-05 0.000209375 0.00516419)
(0.000119688 9.25525e-05 0.00562016)
(0.000332175 -0.000273926 0.00467433)
(2.2084e-06 0.00035239 0.00562087)
(0.000579635 4.59685e-05 0.00523367)
(3.33663e-05 -0.000228956 0.00516675)
(0.000183781 -0.000436993 0.00482803)
(8.07566e-05 0.000192412 0.00644479)
(0.000290976 0.000138622 0.00598841)
(0.000155479 -0.000175508 0.00588416)
(-6.96318e-05 5.23172e-05 0.00542285)
(4.85371e-05 0.000589075 0.00594301)
(0.000251535 0.000348132 0.00569535)
(0.000104462 0.000122052 0.00533823)
(-9.35155e-05 5.98665e-05 0.00514363)
(0.000132269 0.000773519 0.00558517)
(0.000159501 0.000618901 0.00545547)
(8.08874e-05 0.000272417 0.00505883)
(0.000203083 0.000126984 0.00484033)
(0.000220228 0.00044132 0.00545514)
(0.000159257 0.000630937 0.00536734)
(0.000272126 0.000375412 0.00504251)
(0.000233642 9.54799e-05 0.00481633)
(0.000309273 0.000306353 0.0065183)
(0.000450431 0.00039645 0.00603558)
(0.000666254 0.000139973 0.00590772)
(0.00040466 0.000314431 0.00548182)
(0.000339526 0.000759044 0.00612479)
(0.000297569 0.000376866 0.00585637)
(0.000317305 0.000379531 0.00545353)
(0.00054227 0.000296674 0.00515363)
(0.000217494 0.000956753 0.0056524)
(0.00031125 0.000283763 0.00537532)
(0.00057276 0.00013744 0.00512146)
(0.00066954 0.000143001 0.00509365)
(0.00025022 0.000557625 0.0055214)
(0.000250115 0.000547299 0.0049225)
(0.00047224 0.000114201 0.00508496)
(0.000640133 6.48899e-05 0.00474464)
(0.00060028 0.000987667 0.00605073)
(0.000383916 0.00052156 0.00591106)
(0.000831205 0.000824536 0.0056737)
(0.000462467 0.00025867 0.0057221)
(0.000318467 0.00127877 0.00587959)
(0.000405369 0.000452324 0.0059343)
(0.000450334 0.000785493 0.00550419)
(0.0005359 0.000358567 0.00533806)
(0.000400921 0.00088092 0.0054994)
(0.000730848 0.000815027 0.005457)
(9.5935e-05 0.000328154 0.00492372)
(0.000689856 0.000333563 0.00517368)
(0.000196333 0.000385976 0.00531998)
(0.000754397 0.000556523 0.00463934)
(-0.00153233 0.000267901 0.00442582)
(0.000271863 0.000419805 0.0047179)
(0 0 0)
(-0.000106223 0.000311866 0.00547435)
(0 0 0)
(0 0 0)
(0 0 0)
(0 0 0)
(0 0 0)
(0 0 0)
(0 0 0)
(0 0 0)
(0 0 0)
(0 0 0)
(0 0 0)
(0 0 0)
(0 0 0)
(0 0 0)
(0 0 0)
(0 0 0)
(0 0 0)
(0 0 0)
(0 0 0)
(0 0 0)
(0 0 0)
(0 0 0)
(0 0 0)
(0 0 0)
(0 0 0)
(0 0 0)
(0 0 0)
(0 0 0)
(0 0 0)
(0 0 0)
(0 0 0)
(0 0 0)
(0 0 0)
(0 0 0)
(0 0 0)
(0 0 0)
(0 0 0)
(0 0 0)
(0 0 0)
(0 0 0)
(0 0 0)
(0 0 0)
(0 0 0)
(0 0 0)
(0 0 0)
(0 0 0)
(0 0 0)
(0 0 0)
(0 0 0)
(0 0 0)
(0 0 0)
(0 0 0)
(0 0 0)
(0 0 0)
(0 0 0)
(0 0 0)
(0 0 0)
(0 0 0)
(0 0 0)
(0 0 0)
(0 0 0)
(0 0 0)
(0 0 0)
(0 0 0)
(0 0 0)
(0 0 0)
(0 0 0)
(0 0 0)
(0 0 0)
(0 0 0)
(0 0 0)
(0 0 0)
(0 0 0)
(0 0 0)
(0 0 0)
(0 0 0)
(0 0 0)
(0 0 0)
(0 0 0)
(0 0 0)
(0 0 0)
(0 0 0)
(0 0 0)
(0 0 0)
(0 0 0)
(0 0 0)
(0 0 0)
(0 0 0)
(0 0 0)
(0 0 0)
(0 0 0)
(0 0 0)
(0 0 0)
(0 0 0)
(0 0 0)
(0 0 0)
(0 0 0)
(0 0 0)
(0 0 0)
(0 0 0)
(0 0 0)
(0 0 0)
(0 0 0)
(0 0 0)
(0 0 0)
(0 0 0)
(0 0 0)
(0 0 0)
(0 0 0)
(0 0 0)
(0 0 0)
(0 0 0)
(0 0 0)
(0 0 0)
(0 0 0)
(0 0 0)
(0 0 0)
(0 0 0)
(0 0 0)
(0 0 0)
(0 0 0)
(0 0 0)
(0 0 0)
(0 0 0)
(0 0 0)
(0 0 0)
(0 0 0)
(0 0 0)
(0 0 0)
(0 0 0)
(0 0 0)
(0 0 0)
(0 0 0)
(0 0 0)
(0 0 0)
(0 0 0)
(0 0 0)
(0 0 0)
(0 0 0)
(0 0 0)
(0 0 0)
(0 0 0)
(0 0 0)
(0 0 0)
(0 0 0)
(0 0 0)
(0 0 0)
(0 0 0)
(0 0 0)
(0 0 0)
(0 0 0)
(0 0 0)
(0 0 0)
(0 0 0)
(0 0 0)
(0 0 0)
(0 0 0)
(0 0 0)
(0 0 0)
(0 0 0)
(0 0 0)
(0 0 0)
(0 0 0)
(0 0 0)
(0 0 0)
(0 0 0)
(0 0 0)
(0 0 0)
(0 0 0)
(0 0 0)
(0 0 0)
(0 0 0)
(0 0 0)
(0 0 0)
(0 0 0)
(0 0 0)
(0 0 0)
(0 0 0)
(0 0 0)
(0 0 0)
(0 0 0)
(0 0 0)
(0 0 0)
(0 0 0)
(0 0 0)
(0 0 0)
(0 0 0)
(0 0 0)
(0 0 0)
(0 0 0)
(0 0 0)
(0 0 0)
(0 0 0)
(0 0 0)
(0 0 0)
(0 0 0)
(0 0 0)
(0 0 0)
(0 0 0)
(0 0 0)
(0 0 0)
(0 0 0)
(0 0 0)
(0 0 0)
(0 0 0)
(0 0 0)
(0 0 0)
(0 0 0)
(0 0 0)
(0 0 0)
(0 0 0)
(0 0 0)
(0 0 0)
(0 0 0)
(0 0 0)
(0 0 0)
(0 0 0)
(0 0 0)
(0 0 0)
(0 0 0)
(0 0 0)
(0 0 0)
(0 0 0)
(0 0 0)
(0 0 0)
(0 0 0)
(0 0 0)
(0 0 0)
(0 0 0)
(0 0 0)
(0 0 0)
(0 0 0)
(0 0 0)
(0 0 0)
(0 0 0)
(0 0 0)
(0 0 0)
(0 0 0)
(0 0 0)
(0 0 0)
(0 0 0)
(0 0 0)
(0 0 0)
(0 0 0)
(0 0 0)
(0 0 0)
(0 0 0)
(0 0 0)
(0 0 0)
(0 0 0)
(0 0 0)
(0 0 0)
(0 0 0)
(0 0 0)
(0 0 0)
(0 0 0)
(0 0 0)
(0 0 0)
(0 0 0)
(0 0 0)
(0 0 0)
(0 0 0)
(0 0 0)
(0 0 0)
(0 0 0)
(0 0 0)
(0 0 0)
(0 0 0)
(0 0 0)
(0 0 0)
(0.000644885 -0.00020271 -0.000248591)
(0.000560441 -0.000311283 -0.000771236)
(0.0017247 8.17782e-05 -0.00165324)
(0.000604302 0.000109623 -4.6105e-05)
(0.000506297 -6.1036e-05 -8.30056e-05)
(0.000329116 0.000442606 -0.000288503)
(0.000404181 -0.000180477 -0.000263607)
(0.000541663 -0.00028608 1.54841e-05)
(0.000532337 2.82941e-05 -0.000100998)
(0.000199545 -0.000113576 -5.3863e-05)
(0.000702756 -3.88942e-05 -0.000181843)
(0.000550319 -0.000135866 -4.23447e-05)
(-0.00015444 -1.79609e-05 -0.00109266)
(0.000180099 1.72203e-05 -0.000107935)
(0.000731649 -0.000385533 -0.000596488)
(0.00129058 -0.000982198 -0.000709344)
(0.00084053 -0.000646794 0.00170686)
(0.00107116 -0.000371858 0.00305832)
(0.00127029 -0.00036694 0.00369109)
(0.000670703 0.000633282 0.00413768)
(0.00136713 0.00032057 0.00560317)
(3.45393e-07 0.000102445 0.00358424)
(0.00037336 0.00129292 0.00160313)
(0.000537021 0.000453446 0.00360741)
(0.00177755 -0.000366818 0.0052982)
(0.00064946 -0.000545515 0.00411963)
(0.000548734 0.00105377 0.00407498)
(-1.70416e-05 0.000354706 0.00532995)
(0.00168732 0.00038668 0.00394416)
(0.00101601 0.000215354 0.00463427)
(0.000530673 0.000697801 0.00258517)
(0.000450005 -0.000286461 0.00342989)
(0.000160793 -0.00025052 0.00516777)
(-0.000499378 -0.00111698 0.00504795)
(-4.35779e-05 -0.000430735 0.00543055)
(0.000344191 -0.00146672 0.0049432)
(-0.00036469 -0.000891752 0.00673165)
(-0.000105691 -0.00131868 0.00429476)
(-0.000224992 -0.000709095 0.0051426)
(0.00094243 -0.00134807 0.00479197)
(-0.000946875 -0.0018573 0.00605593)
(5.28124e-05 -0.00100312 0.00567649)
(-0.000665204 -0.00120831 0.00418177)
(0.000509625 -0.000993616 0.00418109)
(-0.000826947 -0.00116877 0.00536852)
(0.000135932 -0.000138221 0.00497312)
(0.000187389 -0.000138939 0.00549516)
(0.000177282 -0.000312604 0.00335245)
(-0.000186816 0.000790977 0.00565866)
(-0.000338896 5.57368e-05 0.0052231)
(-0.000184176 -0.000196395 0.00514366)
(-0.000296207 -0.000437198 0.00468593)
(0.00036737 -5.11354e-06 0.00621085)
(-0.000369865 -0.000104585 0.00450021)
(0.000232964 -0.000789807 0.00390302)
(0.000436777 -0.000754215 0.00390556)
(-0.000561385 0.000166394 0.00614351)
(1.5171e-05 -0.000403014 0.00406226)
(0.000304587 -0.000864536 0.00331222)
(-0.000580196 -0.00110916 0.00441554)
(-0.000981172 -0.000503165 0.00491716)
(-0.00151816 6.27121e-05 0.0041407)
(-0.000109956 -0.000309476 0.00260391)
(-0.000126226 -0.000765423 0.00654241)
(0.00053974 0.000991903 0.0057213)
(-0.000446798 0.000441088 0.00512232)
(-0.000308095 0.000565399 0.00489851)
(-0.000154361 -0.000384334 0.00433816)
(0.00038249 -0.000233248 0.0060109)
(-0.000164128 0.000581771 0.00502953)
(-0.000438923 -3.32291e-05 0.00429439)
(-1.83888e-05 -0.000401411 0.00418273)
(0.000158252 -9.14984e-06 0.00496617)
(0.000253858 9.98473e-05 0.00424038)
(0.000473425 -0.00152739 0.00426413)
(4.19937e-05 -0.000690456 0.00362627)
(-0.000161272 0.000102926 0.0034256)
(-0.000243244 0.000387855 0.0044423)
(-0.000452029 -8.44553e-05 0.00279719)
(-7.08942e-05 -0.000323959 0.00293379)
(0.000299427 0.000607054 0.00567033)
(0.000184026 0.000177975 0.00451894)
(0.000207214 -3.01021e-05 0.00466629)
(0.000295338 -5.53758e-05 0.00439693)
(-0.000151677 0.000213769 0.00511045)
(0.000104376 0.000160837 0.00398207)
(0.00014097 -0.000269419 0.00424459)
(3.39751e-05 -0.000365699 0.00388551)
(0.000449392 0.000434913 0.00436277)
(0.000262455 0.000313969 0.00427369)
(0.000204304 -0.00010556 0.00360543)
(-0.000458357 -1.80009e-05 0.00345339)
(0.000247685 -0.000357904 0.00251868)
(0.000267121 -0.000229186 0.0035602)
(-0.000504321 0.000301668 0.00278148)
(-0.000497391 6.90088e-05 0.0023172)
(0.000183485 0.000478767 0.00522108)
(0.000690176 0.000266829 0.00427923)
(0.000164213 0.000526352 0.00472699)
(0.000375457 0.000271222 0.00431606)
(0.000184787 0.000299918 0.00410075)
(0.000254164 -0.000275994 0.00400769)
(0.000802933 0.000206013 0.00447114)
(0.000154922 7.74925e-05 0.00395137)
(0.000354678 0.00102039 0.00379825)
(1.20924e-05 0.000534124 0.00410757)
(0.000398066 -0.000506502 0.00332701)
(-0.000203895 0.000339954 0.00282625)
(0.00114235 0.000532905 0.00265269)
(0.000238657 0.000210499 0.00350859)
(-0.00071164 -2.37685e-06 0.00263483)
(-0.000128395 0.000351964 0.00188107)
(0 0 0)
(0 0 0)
(0 0 0)
(0 0 0)
(0 0 0)
(0 0 0)
(0 0 0)
(0 0 0)
(0 0 0)
(0 0 0)
(0 0 0)
(0 0 0)
(0 0 0)
(0 0 0)
(0 0 0)
(0 0 0)
(0 0 0)
(0 0 0)
(0 0 0)
(0 0 0)
(0 0 0)
(0 0 0)
(0 0 0)
(0 0 0)
(0 0 0)
(0 0 0)
(0 0 0)
(0 0 0)
(0 0 0)
(0 0 0)
(0 0 0)
(0 0 0)
(0 0 0)
(0 0 0)
(0 0 0)
(0 0 0)
(0 0 0)
(0 0 0)
(0 0 0)
(0 0 0)
(0 0 0)
(0 0 0)
(0 0 0)
(0 0 0)
(0 0 0)
(0 0 0)
(0 0 0)
(0 0 0)
(0 0 0)
(0 0 0)
(0 0 0)
(0 0 0)
(0 0 0)
(0 0 0)
(0 0 0)
(0 0 0)
(0 0 0)
(0 0 0)
(0 0 0)
(0 0 0)
(0 0 0)
(0 0 0)
(0 0 0)
(0 0 0)
(0 0 0)
(0 0 0)
(0 0 0)
(0 0 0)
(0 0 0)
(0 0 0)
(0 0 0)
(0 0 0)
(0 0 0)
(0 0 0)
(0 0 0)
(0 0 0)
(0 0 0)
(0 0 0)
(0 0 0)
(0 0 0)
(0 0 0)
(0 0 0)
(0 0 0)
(0 0 0)
(0 0 0)
(0 0 0)
(0 0 0)
(0 0 0)
(0 0 0)
(0 0 0)
(0 0 0)
(0 0 0)
(0 0 0)
(0 0 0)
(0 0 0)
(0 0 0)
(0 0 0)
(0 0 0)
(0 0 0)
(0 0 0)
(0 0 0)
(0 0 0)
(0 0 0)
(0 0 0)
(0 0 0)
(0 0 0)
(0 0 0)
(0 0 0)
(0 0 0)
(0 0 0)
(0 0 0)
(0 0 0)
(0 0 0)
(0 0 0)
(0 0 0)
(0 0 0)
(0 0 0)
(0 0 0)
(0 0 0)
(0 0 0)
(0 0 0)
(0 0 0)
(0 0 0)
(0 0 0)
(0 0 0)
(0 0 0)
(0 0 0)
(0 0 0)
(0 0 0)
(0 0 0)
(0 0 0)
(0 0 0)
(0 0 0)
(0 0 0)
(0 0 0)
(0 0 0)
(0 0 0)
(0 0 0)
(0 0 0)
(0 0 0)
(0 0 0)
(0 0 0)
(0 0 0)
(0 0 0)
(0 0 0)
(0 0 0)
(0 0 0)
(0 0 0)
(0 0 0)
(0 0 0)
(0 0 0)
(0 0 0)
(0 0 0)
(0 0 0)
(0 0 0)
(0 0 0)
(0 0 0)
(0 0 0)
(0 0 0)
(0 0 0)
(0 0 0)
(0 0 0)
(0 0 0)
(0 0 0)
(0 0 0)
(0 0 0)
(0 0 0)
(0 0 0)
(0 0 0)
(0 0 0)
(0 0 0)
(0 0 0)
(0 0 0)
(0 0 0)
(0 0 0)
(0 0 0)
(0 0 0)
(0 0 0)
(0 0 0)
(0 0 0)
(0 0 0)
(0 0 0)
(0 0 0)
(0 0 0)
(0 0 0)
(0 0 0)
(0 0 0)
(0 0 0)
(0 0 0)
(0 0 0)
(0 0 0)
(0 0 0)
(0 0 0)
(0 0 0)
(0 0 0)
(0 0 0)
(0 0 0)
(0 0 0)
(0 0 0)
(0 0 0)
(0 0 0)
(0 0 0)
(0 0 0)
(0 0 0)
(0 0 0)
(0 0 0)
(0 0 0)
(0 0 0)
(0 0 0)
(0 0 0)
(0 0 0)
(0 0 0)
(0 0 0)
(0 0 0)
(0 0 0)
(0 0 0)
(0 0 0)
(0 0 0)
(0 0 0)
(0 0 0)
(0 0 0)
(0 0 0)
(0 0 0)
(0 0 0)
(0 0 0)
(0 0 0)
(0 0 0)
(0 0 0)
(0 0 0)
(0 0 0)
(0 0 0)
(0 0 0)
(0 0 0)
(0 0 0)
(0 0 0)
(0 0 0)
(0 0 0)
(0 0 0)
(0 0 0)
(0 0 0)
(0 0 0)
(0 0 0)
(0 0 0)
(0 0 0)
(0 0 0)
(0 0 0)
(0 0 0)
(0 0 0)
(0 0 0)
(0 0 0)
(0 0 0)
(0 0 0)
(0 0 0)
(0 0 0)
(0 0 0)
(0 0 0)
(0 0 0)
(0 0 0)
(0 0 0)
(0 0 0)
(0 0 0)
(0 0 0)
(0 0 0)
(0 0 0)
(0 0 0)
(0 0 0)
(0 0 0)
(0 0 0)
(0 0 0)
(0 0 0)
(0 0 0)
(0 0 0)
(-3.66404e-05 -0.000718985 -0.000453404)
(0.000804786 -0.000571927 -0.000124726)
(0.00130374 0.000113936 -0.000652808)
(0.000532901 -0.000661553 -0.00011117)
(0.000174296 -0.000935896 -0.000113939)
(0.000584253 -0.000343851 -0.000537238)
(0.00075807 -0.000963647 -0.000787931)
(0.000342807 -0.000226159 -0.00034262)
(-0.00014466 -0.000655215 -0.000295325)
(8.58616e-05 -0.00078514 -0.000229599)
(0.000349942 -0.000494905 -0.000182531)
(0.000351206 -0.000336017 1.3322e-05)
(2.07682e-05 -0.000331081 -8.57715e-05)
(8.23432e-05 -0.000430642 -7.81416e-05)
(0.000339157 -0.000385925 -0.000175126)
(0.000199793 -9.18273e-05 -0.000146393)
(-0.000276441 -0.00105597 0.00355273)
(0.00234465 -0.00117343 0.00148474)
(0.00327316 -0.00115687 0.00537631)
(0.000607053 -0.00260086 0.00502443)
(0.00162877 -0.00047791 0.00350895)
(0.00181137 4.40619e-05 0.00507909)
(0.00156459 -0.000891362 0.00479761)
(0.000753288 -0.00224363 0.0043696)
(0.000793249 9.89888e-05 0.00464115)
(0.000599376 -0.00052819 0.00284874)
(0.00103438 -0.00138118 0.00162283)
(0.000545592 -0.00139651 0.00457373)
(-0.000246824 0.000235501 0.00257434)
(-0.000441863 -0.000566223 0.0011559)
(0.000587528 8.8291e-05 0.00235502)
(0.000749788 -0.000501655 0.00250887)
(0.000561466 -0.000453994 0.00432503)
(0.00135208 -0.000899262 0.00435026)
(0.00052535 -0.00116766 0.00345461)
(1.7169e-06 -0.00250702 0.00449055)
(0.000924622 -0.00100659 0.00489531)
(0.000655904 -0.0006622 0.00466688)
(0.000206887 -0.00105676 0.00436369)
(0.000939397 -0.00300151 0.00437689)
(-0.00014602 -0.0010321 0.00557708)
(0.00121052 -7.2755e-05 0.00493437)
(0.000589902 -0.000414782 0.00485127)
(0.000201973 -0.0014243 0.00334533)
(0.000894123 -0.000635031 0.00486148)
(0.000808417 -0.00116874 0.00414125)
(0.000386872 -0.000998562 0.00499886)
(-0.000188673 -0.00064505 0.00358319)
(1.48895e-05 -0.000430536 0.00486467)
(5.53206e-05 -0.000127719 0.0039338)
(0.000111224 -0.000622956 0.00286852)
(9.75307e-05 -0.000386999 0.00213558)
(8.31005e-06 -0.000576163 0.00467605)
(0.000122586 -0.000193127 0.00436175)
(0.000203342 -0.000363416 0.00324896)
(0.000338169 -0.000924582 0.00407972)
(-3.68205e-05 -0.000324247 0.0044215)
(0.000201796 -0.000127536 0.00407501)
(0.00050946 -0.000763491 0.00397415)
(0.0004806 -0.000775886 0.0024556)
(0.000153367 -0.000757484 0.00428128)
(0.000135795 -0.00119956 0.00399665)
(0.000493465 -0.00110446 0.00394065)
(0.000240899 -0.000135864 0.00296491)
(-0.000132383 -9.48805e-05 0.00508191)
(-0.000375673 -9.45608e-05 0.00441967)
(-0.000616311 0.00060896 0.00363934)
(-0.000599806 0.000209381 0.00254786)
(0.000232731 6.36478e-05 0.00468902)
(-0.000205723 0.000371113 0.00411429)
(0.000110209 -0.000542572 0.00322354)
(-0.000247112 -9.07346e-05 0.00285885)
(-5.71682e-06 0.000287112 0.00459818)
(-0.00010904 0.00036716 0.00437929)
(-1.54739e-05 -0.000316695 0.00358563)
(-0.000185065 8.41166e-05 0.00328699)
(0.000152658 -0.000282398 0.00422102)
(-0.000328199 -0.000457207 0.0035585)
(-0.000645954 -3.65916e-05 0.0040403)
(-0.000615678 0.000165061 0.00257839)
(0.000233898 0.000310907 0.00544063)
(-5.78484e-05 0.000266178 0.00521379)
(8.85144e-05 9.82531e-06 0.00459493)
(-0.000346181 4.9743e-05 0.00351353)
(0.000441222 0.000246672 0.00494014)
(0.000391224 0.000407982 0.00458599)
(0.00042153 0.000475863 0.00331069)
(-0.000241623 -2.4185e-05 0.00270853)
(0.000327625 7.03811e-05 0.00474977)
(0.000209739 0.00011586 0.00420275)
(-0.000219416 0.000322873 0.00308255)
(-0.000176668 1.5119e-05 0.0019734)
(0.000332638 -5.39529e-06 0.00425513)
(0.000100421 7.52627e-05 0.00354885)
(-0.000314361 6.28026e-05 0.00333199)
(-0.00021711 0.000271817 0.00234379)
(0.000368427 0.000542584 0.00539491)
(0.000380331 0.00024946 0.00529236)
(0.000213005 0.000306926 0.00492098)
(-0.000572057 0.00134068 0.00438733)
(0.000453841 0.000568048 0.00497418)
(0.000886519 0.000505503 0.00454243)
(0.00080446 0.000788928 0.00354087)
(-0.000412909 0.00111356 0.00379408)
(0.000781076 0.000400707 0.00479549)
(0.000831616 0.000185505 0.00414573)
(0.00056098 0.000156245 0.00372193)
(-0.000460071 -0.000261333 0.00238867)
(0.00075954 0.00119583 0.00409972)
(0.000230458 -0.000100296 0.00415523)
(0.000211916 -0.00027249 0.00317525)
(0.000224728 -0.00028446 0.00238156)
(0 0 0)
(0 0 0)
(0 0 0)
(0 0 0)
(0 0 0)
(0 0 0)
(0 0 0)
(0 0 0)
(0 0 0)
(0 0 0)
(0 0 0)
(0 0 0)
(0 0 0)
(0 0 0)
(0 0 0)
(0 0 0)
(0 0 0)
(0 0 0)
(0 0 0)
(0 0 0)
(0 0 0)
(0 0 0)
(0 0 0)
(0 0 0)
(0 0 0)
(0 0 0)
(0 0 0)
(0 0 0)
(0 0 0)
(0 0 0)
(0 0 0)
(0 0 0)
(0 0 0)
(0 0 0)
(0 0 0)
(0 0 0)
(0 0 0)
(0 0 0)
(0 0 0)
(0 0 0)
(0 0 0)
(0 0 0)
(0 0 0)
(0 0 0)
(0 0 0)
(0 0 0)
(0 0 0)
(0 0 0)
(0 0 0)
(0 0 0)
(0 0 0)
(0 0 0)
(0 0 0)
(0 0 0)
(0 0 0)
(0 0 0)
(0 0 0)
(0 0 0)
(0 0 0)
(0 0 0)
(0 0 0)
(0 0 0)
(0 0 0)
(0 0 0)
(0 0 0)
(0 0 0)
(0 0 0)
(0 0 0)
(0 0 0)
(0 0 0)
(0 0 0)
(0 0 0)
(0 0 0)
(0 0 0)
(0 0 0)
(0 0 0)
(0 0 0)
(0 0 0)
(0 0 0)
(0 0 0)
(0 0 0)
(0 0 0)
(0 0 0)
(0 0 0)
(0 0 0)
(0 0 0)
(0 0 0)
(0 0 0)
(0 0 0)
(0 0 0)
(0 0 0)
(0 0 0)
(0 0 0)
(0 0 0)
(0 0 0)
(0 0 0)
(0 0 0)
(0 0 0)
(0 0 0)
(0 0 0)
(0 0 0)
(0 0 0)
(0 0 0)
(0 0 0)
(0 0 0)
(0 0 0)
(0 0 0)
(0 0 0)
(0 0 0)
(0 0 0)
(0 0 0)
(0 0 0)
(0 0 0)
(0 0 0)
(0 0 0)
(0 0 0)
(0 0 0)
(0 0 0)
(0 0 0)
(0 0 0)
(0 0 0)
(0 0 0)
(0 0 0)
(0 0 0)
(0 0 0)
(0 0 0)
(0 0 0)
(0 0 0)
(0 0 0)
(0 0 0)
(0 0 0)
(0 0 0)
(0 0 0)
(0 0 0)
(0 0 0)
(0 0 0)
(0 0 0)
(0 0 0)
(0 0 0)
(0 0 0)
(0 0 0)
(0 0 0)
(0 0 0)
(0 0 0)
(0 0 0)
(0 0 0)
(0 0 0)
(0 0 0)
(0 0 0)
(0 0 0)
(0 0 0)
(0 0 0)
(0 0 0)
(0 0 0)
(0 0 0)
(0 0 0)
(0 0 0)
(0 0 0)
(0 0 0)
(0 0 0)
(0 0 0)
(0 0 0)
(0 0 0)
(0 0 0)
(0 0 0)
(0 0 0)
(0 0 0)
(0 0 0)
(0 0 0)
(0 0 0)
(0 0 0)
(0 0 0)
(0 0 0)
(0 0 0)
(0 0 0)
(0 0 0)
(0 0 0)
(0 0 0)
(0 0 0)
(0 0 0)
(0 0 0)
(0 0 0)
(0 0 0)
(0 0 0)
(0 0 0)
(0 0 0)
(0 0 0)
(0 0 0)
(0 0 0)
(0 0 0)
(0 0 0)
(0 0 0)
(0 0 0)
(0 0 0)
(0 0 0)
(0 0 0)
(0 0 0)
(0 0 0)
(0 0 0)
(0 0 0)
(0 0 0)
(0 0 0)
(0 0 0)
(0 0 0)
(0 0 0)
(0 0 0)
(0 0 0)
(0 0 0)
(0 0 0)
(0 0 0)
(0 0 0)
(0 0 0)
(0 0 0)
(0 0 0)
(0 0 0)
(0 0 0)
(0 0 0)
(0 0 0)
(0 0 0)
(0 0 0)
(0 0 0)
(0 0 0)
(0 0 0)
(0 0 0)
(0 0 0)
(0 0 0)
(0 0 0)
(0 0 0)
(0 0 0)
(0 0 0)
(0 0 0)
(0 0 0)
(0 0 0)
(0 0 0)
(0 0 0)
(0 0 0)
(0 0 0)
(0 0 0)
(0 0 0)
(0 0 0)
(0 0 0)
(0 0 0)
(0 0 0)
(0 0 0)
(0 0 0)
(0 0 0)
(0 0 0)
(0 0 0)
(0 0 0)
(0 0 0)
(0 0 0)
(0 0 0)
(0 0 0)
(0 0 0)
(0 0 0)
(0 0 0)
(0 0 0)
(0 0 0)
(0 0 0)
(0 0 0)
(0 0 0)
(0 0 0)
(0 0 0)
(0 0 0)
(0 0 0)
(0 0 0)
(0 0 0)
(0 0 0)
(0 0 0)
(0 0 0)
(0 0 0)
(0 0 0)
)
;

boundaryField
{
    inlet
    {
        type            zeroGradient;
    }
    outlet
    {
        type            zeroGradient;
    }
    wall
    {
        type            zeroGradient;
    }
    procBoundary3to1
    {
        type            processor;
        value           nonuniform List<vector> 
192
(
(0.000230913 6.2857e-05 -0.000922914)
(0.000364089 0.000243238 -0.000229357)
(-0.000502827 0.000727381 -1.62117e-05)
(-0.00024212 0.000449229 -0.000114027)
(-0.000390964 0.00144538 0.00361992)
(-0.000868575 0.000464996 0.00164441)
(-0.00103577 -8.52919e-05 0.00140824)
(-0.000442103 0.000711316 0.00219889)
(-0.000231099 0.000178762 0.00601718)
(-0.000414684 -2.84188e-05 0.00528628)
(-0.000396954 0.000180483 0.00519297)
(0.000867075 0.00062961 0.0054514)
(2.6311e-05 0.000210368 0.0064115)
(0.000127451 0.000317071 0.00583202)
(0.000188388 3.60904e-05 0.00586961)
(-2.81699e-05 -0.000146778 0.00530552)
(-0.000147759 0.000118612 0.00647253)
(-2.58039e-05 0.000322124 0.00631035)
(0.000247052 0.000135274 0.00594472)
(-0.000227866 0.000203195 0.00562496)
(8.75719e-05 0.000491483 0.0066197)
(0.000398271 0.000395877 0.00626693)
(0.000465426 2.63199e-05 0.00640881)
(0.000352177 0.000178076 0.00586539)
(0.000319945 0.00075304 0.00618595)
(3.76108e-05 0.000459036 0.00576471)
(-0.0014824 6.12352e-05 0.00542421)
(0.000481023 -8.13343e-05 0.00604767)
(0.000540357 0.000233454 0.00605447)
(0 0 0)
(0 0 0)
(0 0 0)
(0 0 0)
(0 0 0)
(0 0 0)
(0 0 0)
(0 0 0)
(0 0 0)
(0 0 0)
(0 0 0)
(0 0 0)
(0 0 0)
(0 0 0)
(0 0 0)
(0 0 0)
(0 0 0)
(0 0 0)
(0 0 0)
(0 0 0)
(0 0 0)
(0 0 0)
(0 0 0)
(0 0 0)
(0 0 0)
(0 0 0)
(0 0 0)
(0 0 0)
(0 0 0)
(0 0 0)
(0 0 0)
(0 0 0)
(0 0 0)
(0 0 0)
(0 0 0)
(0 0 0)
(0 0 0)
(0 0 0)
(0 0 0)
(0 0 0)
(0 0 0)
(0 0 0)
(0 0 0)
(0 0 0)
(0 0 0)
(0 0 0)
(0 0 0)
(0 0 0)
(0 0 0)
(0 0 0)
(0 0 0)
(0 0 0)
(0 0 0)
(0 0 0)
(0 0 0)
(0 0 0)
(0 0 0)
(0 0 0)
(0 0 0)
(0 0 0)
(0 0 0)
(0 0 0)
(0 0 0)
(0 0 0)
(0 0 0)
(0 0 0)
(0 0 0)
(-0.000356429 -0.000357619 -0.00053296)
(0.000938916 -0.000819815 -0.000457865)
(0.00109932 -0.000801298 -0.000406876)
(0.000357474 -0.000129168 0.000494497)
(0.00120557 -0.000562121 0.0035892)
(0.00261644 -0.000875402 0.00172141)
(0.00281015 -0.000126804 0.00527163)
(0.00100644 0.000327851 0.00428509)
(0.0015996 -0.00020413 0.00483885)
(0.0019753 -0.000458975 0.0034213)
(0.00146495 -0.000418134 0.00412998)
(0.000911035 0.000508768 0.00381823)
(-9.04675e-05 -0.000106398 0.00435922)
(-5.11026e-05 -0.000181623 0.00372616)
(-0.000501451 -0.000117753 0.00342993)
(-0.000205939 0.000254454 0.00315216)
(-0.000410481 0.000152247 0.00520893)
(-0.00100559 0.000129046 0.00454918)
(-0.00165755 0.00049241 0.00417514)
(-0.00210319 0.000162525 0.005355)
(-0.00011196 0.000204565 0.00561422)
(-0.000439693 9.83552e-05 0.00527685)
(-0.000910875 -6.20797e-05 0.00489843)
(-0.00102262 -0.000121887 0.0049056)
(-0.000238712 -0.000238588 0.00520476)
(0.000235481 0.000493246 0.00580613)
(-0.000970834 -0.000421314 0.00506539)
(-0.00106513 0.00139135 0.00231105)
(0 0 0)
(0 0 0)
(0 0 0)
(0 0 0)
(0 0 0)
(0 0 0)
(0 0 0)
(0 0 0)
(0 0 0)
(0 0 0)
(0 0 0)
(0 0 0)
(0 0 0)
(0 0 0)
(0 0 0)
(0 0 0)
(0 0 0)
(0 0 0)
(0 0 0)
(0 0 0)
(0 0 0)
(0 0 0)
(0 0 0)
(0 0 0)
(0 0 0)
(0 0 0)
(0 0 0)
(0 0 0)
(0 0 0)
(0 0 0)
(0 0 0)
(0 0 0)
(0 0 0)
(0 0 0)
(0 0 0)
(0 0 0)
(0 0 0)
(0 0 0)
(0 0 0)
(0 0 0)
(0 0 0)
(0 0 0)
(0 0 0)
(0 0 0)
(0 0 0)
(0 0 0)
(0 0 0)
(0 0 0)
(0 0 0)
(0 0 0)
(0 0 0)
(0 0 0)
(0 0 0)
(0 0 0)
(0 0 0)
(0 0 0)
(0 0 0)
(0 0 0)
(0 0 0)
(0 0 0)
(0 0 0)
(0 0 0)
(0 0 0)
(0 0 0)
(0 0 0)
(0 0 0)
(0 0 0)
(0 0 0)
)
;
    }
    procBoundary3to2
    {
        type            processor;
        value           nonuniform List<vector> 
192
(
(0.000558259 6.48086e-05 -0.000656905)
(0.00032067 -0.000466944 -0.000108286)
(0.000514143 -0.000434396 -6.19535e-05)
(0.000734506 -0.000849383 2.69797e-05)
(-0.000383331 -0.000193134 0.0020748)
(0.000881802 -0.00184437 0.00366367)
(0.000979127 -0.00231002 0.00397554)
(0.000710946 -0.000787448 0.00260394)
(-0.0001275 0.000281626 0.00635903)
(-0.000207186 0.000202191 0.00593316)
(-0.000366656 -0.000519922 0.00573727)
(0.000119843 -0.000445011 0.00512507)
(-0.000574727 0.000195782 0.00676024)
(-0.00173969 0.000492649 0.00670136)
(-0.000135426 1.54982e-06 0.00562035)
(0.000330305 0.00021329 0.00522083)
(-0.000235831 -7.60807e-05 0.00683887)
(0.000104818 4.60606e-05 0.00651288)
(-0.000179026 0.000465284 0.00605989)
(0.000285724 -8.25004e-05 0.00554514)
(3.50597e-05 0.000301819 0.00671297)
(0.000291678 0.000728927 0.00623813)
(0.000204866 0.000866703 0.00574367)
(0.00015195 0.000808523 0.00550205)
(0.000318783 0.00103776 0.0063467)
(0.000212231 0.00093647 0.00603804)
(0.000153363 0.000834241 0.00589204)
(0.000452563 0.000832322 0.00562166)
(0 0 0)
(0 0 0)
(0 0 0)
(0 0 0)
(0 0 0)
(0 0 0)
(0 0 0)
(0 0 0)
(0 0 0)
(0 0 0)
(0 0 0)
(0 0 0)
(0 0 0)
(0 0 0)
(0 0 0)
(0 0 0)
(0 0 0)
(0 0 0)
(0 0 0)
(0 0 0)
(0 0 0)
(0 0 0)
(0 0 0)
(0 0 0)
(0 0 0)
(0 0 0)
(0 0 0)
(0 0 0)
(0 0 0)
(0 0 0)
(0 0 0)
(0 0 0)
(0 0 0)
(0 0 0)
(0 0 0)
(0 0 0)
(0 0 0)
(0 0 0)
(0 0 0)
(0 0 0)
(0 0 0)
(0 0 0)
(0 0 0)
(0 0 0)
(0 0 0)
(0 0 0)
(0 0 0)
(0 0 0)
(0 0 0)
(0 0 0)
(0 0 0)
(0 0 0)
(0 0 0)
(0 0 0)
(0 0 0)
(0 0 0)
(0 0 0)
(0 0 0)
(0 0 0)
(0 0 0)
(0 0 0)
(0 0 0)
(0 0 0)
(0 0 0)
(0 0 0)
(0 0 0)
(0 0 0)
(0 0 0)
(0.000685699 -0.000532876 -0.000259527)
(0.000302911 -0.000618057 -0.000146352)
(6.56759e-05 -9.49734e-05 -0.00101666)
(0.000188649 -0.000115878 -0.000524549)
(0.000547622 6.38933e-05 0.00421995)
(0.000742003 -0.000888738 0.00323613)
(0.00022332 -0.000977162 0.00390025)
(0.000661169 -0.000333379 0.0035568)
(0.000398687 -0.000615784 0.00508866)
(-5.14216e-05 -0.000291337 0.0049397)
(0.000300922 -0.000149138 0.006255)
(-6.58294e-05 0.000313558 0.00511178)
(-2.3519e-05 0.000657888 0.00592385)
(-0.000217511 -0.000565 0.00572166)
(0.000306695 -0.000595767 0.00474065)
(-0.000894585 -1.2079e-05 0.00656722)
(-3.43475e-05 -4.60064e-05 0.00506086)
(5.75838e-05 -0.00023333 0.00503267)
(5.51921e-06 -0.000148449 0.00500984)
(-0.000465257 -0.000397515 0.00566742)
(-0.000228146 0.000344511 0.00492588)
(-0.000208294 -0.000145594 0.00516212)
(-6.66203e-05 6.29334e-05 0.00436795)
(-0.000456612 -0.000245254 0.0040113)
(-7.98627e-05 0.000234946 0.00547013)
(-0.000123875 0.000323833 0.00458202)
(-0.00104677 -0.0004484 0.0037618)
(0.000866374 0.000942968 0.00403462)
(0 0 0)
(0 0 0)
(0 0 0)
(0 0 0)
(0 0 0)
(0 0 0)
(0 0 0)
(0 0 0)
(0 0 0)
(0 0 0)
(0 0 0)
(0 0 0)
(0 0 0)
(0 0 0)
(0 0 0)
(0 0 0)
(0 0 0)
(0 0 0)
(0 0 0)
(0 0 0)
(0 0 0)
(0 0 0)
(0 0 0)
(0 0 0)
(0 0 0)
(0 0 0)
(0 0 0)
(0 0 0)
(0 0 0)
(0 0 0)
(0 0 0)
(0 0 0)
(0 0 0)
(0 0 0)
(0 0 0)
(0 0 0)
(0 0 0)
(0 0 0)
(0 0 0)
(0 0 0)
(0 0 0)
(0 0 0)
(0 0 0)
(0 0 0)
(0 0 0)
(0 0 0)
(0 0 0)
(0 0 0)
(0 0 0)
(0 0 0)
(0 0 0)
(0 0 0)
(0 0 0)
(0 0 0)
(0 0 0)
(0 0 0)
(0 0 0)
(0 0 0)
(0 0 0)
(0 0 0)
(0 0 0)
(0 0 0)
(0 0 0)
(0 0 0)
(0 0 0)
(0 0 0)
(0 0 0)
(0 0 0)
)
;
    }
}


// ************************************************************************* //
