# Probe 0 (0 0 0.0001)
# Probe 1 (0 0 0.0026)
# Probe 2 (0 0 0.0051)
# Probe 3 (0 0 0.0076)
# Probe 4 (0 0 0.0101)
# Probe 5 (0 0 0.0126)
# Probe 6 (0 0 0.0151)
# Probe 7 (0 0 0.0176)
# Probe 8 (0 0 0.0201)
# Probe 9 (0 0 0.0226)
# Probe 10 (0 0 0.0251)
# Probe 11 (0 0 0.0276)
# Probe 12 (0 0 0.0301)
# Probe 13 (0 0 0.0326)
# Probe 14 (0 0 0.0351)
# Probe 15 (0 0 0.0375)
# Probe 16 (0 0 0.0401)
# Probe 17 (0 0 0.0426)
# Probe 18 (0 0 0.0451)
# Probe 19 (0 0 0.0476)
# Probe 20 (0 0 0.0529)
# Time        0             1             2             3             4             5             6             7             8             9             10            11            12            13            14            15            16            17            18            19            20           
0.001         100004        100003        100002        100002        100001        100000        100000        100000        100000        100000        100000        100000        100000        100000        100000        100000        100000        100000        100000        100000        100000       
0.002         100004        100003        100002        100002        100001        100000        100000        100000        100000        100000        100000        100000        100000        100000        100000        100000        100000        100000        100000        100000        100000       
0.003         100003        100003        100002        100001        100001        100000        100000        100000        100000        100000        100000        100000        100000        100000        100000        100000        100000        100000        100000        100000        100000       
0.004         100003        100003        100002        100001        100001        100000        100000        100000        100000        100000        100000        100000        100000        100000        100000        100000        100000        100000        100000        100000        100000       
0.005         100004        100003        100002        100002        100001        100000        100000        100000        100000        100000        100000        100000        100000        100000        100000        100000        100000        100000        100000        100000        100000       
0.006         100004        100004        100003        100002        100001        100000        100000        100000        100000        100000        100000        100000        100000        100000        100000        100000        100000        100000        100000        100000        100000       
0.007         100005        100004        100003        100002        100001        100000        100000        100000        100000        100000        100000        100000        100000        100000        100000        100000        100000        100000        100000        100000        100000       
0.008         100005        100004        100003        100002        100001        100000        100000        100000        100000        100000        100000        100000        100000        100000        100000        100000        100000        100000        100000        100000        100000       
0.009         100005        100005        100004        100002        100001        100000        100000        100000        100000        100000        100000        100000        100000        100000        100000        100000        100000        100000        100000        100000        100000       
0.01          100006        100005        100004        100003        100001        100000        100000        100000        100000        100000        100000        100000        100000        100000        100000        100000        100000        100000        100000        100000        100000       
0.011         100006        100005        100004        100003        100001        100000        100000        100000        100000        100000        100000        100000        100000        100000        100000        100000        100000        100000        100000        100000        100000       
0.012         100006        100005        100004        100003        100001        100000        100000        100000        100000        100000        100000        100000        100000        100000        100000        100000        100000        100000        100000        100000        100000       
0.013         100006        100005        100004        100003        100001        100000        100000        100000        100000        100000        100000        100000        100000        100000        100000        100000        100000        100000        100000        100000        100000       
0.014         100007        100006        100004        100003        100001        100000        100000        100000        100000        100000        100000        100000        100000        100000        100000        100000        100000        100000        100000        100000        100000       
0.015         100007        100006        100004        100003        100001        100000        100000        100000        100000        100000        100000        100000        100000        100000        100000        100000        100000        100000        100000        100000        100000       
0.016         100007        100006        100005        100003        100001        100000        100000        100000        100000        100000        100000        100000        100000        100000        100000        100000        100000        100000        100000        100000        100000       
0.017         100007        100006        100005        100003        100001        100000        100000        100000        100000        100000        100000        100000        100000        100000        100000        100000        100000        100000        100000        100000        100000       
0.018         100008        100006        100005        100003        100002        100000        100000        100000        100000        100000        100000        100000        100000        100000        100000        100000        100000        100000        100000        100000        100000       
0.019         100008        100007        100005        100004        100002        100000        100000        100000        100000        100000        100000        100000        100000        100000        100000        100000        100000        100000        100000        100000        100000       
0.02          100008        100007        100005        100004        100002        100000        100000        100000        100000        100000        100000        100000        100000        100000        100000        100000        100000        100000        100000        100000        100000       
0.021         100008        100007        100005        100004        100002        100000        100000        100000        100000        100000        100000        100000        100000        100000        100000        100000        100000        100000        100000        100000        100000       
0.022         100009        100007        100006        100004        100002        100000        100000        100000        100000        100000        100000        100000        100000        100000        100000        100000        100000        100000        100000        100000        100000       
0.023         100009        100008        100006        100004        100002        100000        100000        100000        100000        100000        100000        100000        100000        100000        100000        100000        100000        100000        100000        100000        100000       
0.024         100009        100008        100006        100004        100002        100000        100000        100000        100000        100000        100000        100000        100000        100000        100000        100000        100000        100000        100000        100000        100000       
0.025         100009        100008        100006        100004        100002        100000        100000        100000        100000        100000        100000        100000        100000        100000        100000        100000        100000        100000        100000        100000        100000       
0.026         100010        100008        100006        100004        100002        100000        100000        100000        100000        100000        100000        100000        100000        100000        100000        100000        100000        100000        100000        100000        100000       
0.027         100010        100008        100006        100004        100002        100000        100000        100000        100000        100000        100000        100000        100000        100000        100000        100000        100000        100000        100000        100000        100000       
0.028         100010        100009        100007        100005        100002        100000        100000        100000        100000        100000        100000        100000        100000        100000        100000        100000        100000        100000        100000        100000        100000       
0.029         100010        100009        100007        100005        100002        100000        100000        100000        100000        100000        100000        100000        100000        100000        100000        100000        100000        100000        100000        100000        100000       
0.03          100011        100009        100007        100005        100002        100001        100000        100000        100000        100000        100000        100000        100000        100000        100000        100000        100000        100000        100000        100000        100000       
0.031         100011        100009        100007        100005        100002        100001        100000        100000        100000        100000        100000        100000        100000        100000        100000        100000        100000        100000        100000        100000        100000       
0.032         100011        100010        100007        100005        100002        100001        100000        100000        100000        100000        100000        100000        100000        100000        100000        100000        100000        100000        100000        100000        100000       
0.033         100012        100010        100007        100005        100002        100001        100000        100000        100000        100000        100000        100000        100000        100000        100000        100000        100000        100000        100000        100000        100000       
0.034         100012        100010        100008        100005        100002        100001        100000        100000        100000        100000        100000        100000        100000        100000        100000        100000        100000        100000        100000        100000        100000       
0.035         100012        100010        100008        100005        100003        100001        100000        100000        100000        100000        100000        100000        100000        100000        100000        100000        100000        100000        100000        100000        100000       
0.036         100012        100010        100008        100006        100003        100001        100000        100000        100000        100000        100000        100000        100000        100000        100000        100000        100000        100000        100000        100000        100000       
0.037         100013        100011        100008        100006        100003        100001        100000        100000        100000        100000        100000        100000        100000        100000        100000        100000        100000        100000        100000        100000        100000       
0.038         100013        100011        100008        100006        100003        100001        100000        100000        100000        100000        100000        100000        100000        100000        100000        100000        100000        100000        100000        100000        100000       
0.039         100013        100011        100008        100006        100003        100001        100000        100000        100000        100000        100000        100000        100000        100000        100000        100000        100000        100000        100000        100000        100000       
0.04          100013        100011        100008        100006        100003        100001        100000        100000        100000        100000        100000        100000        100000        100000        100000        100000        100000        100000        100000        100000        100000       
0.041         100013        100011        100009        100006        100003        100001        100000        100000        100000        100000        100000        100000        100000        100000        100000        100000        100000        100000        100000        100000        100000       
0.042         100014        100012        100009        100006        100003        100001        100000        100000        100000        100000        100000        100000        100000        100000        100000        100000        100000        100000        100000        100000        100000       
0.043         100014        100012        100009        100006        100003        100001        100000        100000        100000        100000        100000        100000        100000        100000        100000        100000        100000        100000        100000        100000        100000       
0.044         100014        100012        100009        100006        100003        100001        100000        100000        100000        100000        100000        100000        100000        100000        100000        100000        100000        100000        100000        100000        100000       
0.045         100014        100012        100009        100006        100003        100001        100000        100000        100000        100000        100000        100000        100000        100000        100000        100000        100000        100000        100000        100000        100000       
0.046         100015        100012        100009        100007        100003        100001        100000        100000        100000        100000        100000        100000        100000        100000        100000        100000        100000        100000        100000        100000        100000       
0.047         100015        100013        100010        100007        100003        100001        100000        100000        100000        100000        100000        100000        100000        100000        100000        100000        100000        100000        100000        100000        100000       
0.048         100015        100013        100010        100007        100003        100001        100000        100000        100000        100000        100000        100000        100000        100000        100000        100000        100000        100000        100000        100000        100000       
0.049         100015        100013        100010        100007        100003        100001        100000        100000        100000        100000        100000        100000        100000        100000        100000        100000        100000        100000        100000        100000        100000       
0.05          100016        100013        100010        100007        100003        100001        100000        100000        100000        100000        100000        100000        100000        100000        100000        100000        100000        100000        100000        100000        100000       
