# Probe 0 (0 0 0.0001)
# Probe 1 (0 0 0.0026)
# Probe 2 (0 0 0.0051)
# Probe 3 (0 0 0.0076)
# Probe 4 (0 0 0.0101)
# Probe 5 (0 0 0.0126)
# Probe 6 (0 0 0.0151)
# Probe 7 (0 0 0.0176)
# Probe 8 (0 0 0.0201)
# Probe 9 (0 0 0.0226)
# Probe 10 (0 0 0.0251)
# Probe 11 (0 0 0.0276)
# Probe 12 (0 0 0.0301)
# Probe 13 (0 0 0.0326)
# Probe 14 (0 0 0.0351)
# Probe 15 (0 0 0.0375)
# Probe 16 (0 0 0.0401)
# Probe 17 (0 0 0.0426)
# Probe 18 (0 0 0.0451)
# Probe 19 (0 0 0.0476)
# Probe 20 (0 0 0.0529)
# Time        0             1             2             3             4             5             6             7             8             9             10            11            12            13            14            15            16            17            18            19            20           
0.001         (-0.000256131 0.000190504 0.00514055) (0.000217702 -0.000275562 0.0052122) (0.000306797 -0.000146432 0.00720694) (-8.04177e-06 0.000125569 0.00282561) (-0.000311638 -1.79872e-07 0.00495473) (-0.000857994 0.000391764 0.00563425) (-0.000170724 -9.29896e-05 0.00332415) (0.000238913 -0.00011158 0.00267052) (0.000131327 -1.2005e-05 0.00201438) (8.52791e-05 1.6002e-05 0.00214566) (5.86176e-05 2.35884e-05 0.00220015) (4.15093e-05 2.27239e-05 0.0022204) (2.16215e-05 1.49142e-05 0.00223043) (1.5756e-05 1.13276e-05 0.00223099) (1.15069e-05 8.44191e-06 0.00223086) (8.39358e-06 6.20982e-06 0.00223051) (6.09865e-06 4.52123e-06 0.00223018) (4.40503e-06 3.26369e-06 0.00222992) (3.13611e-06 2.31888e-06 0.00222972) (2.16303e-06 1.59379e-06 0.00222959) (7.89362e-07 5.77913e-07 0.00222944)
0.002         (-0.00028564 0.000296951 0.00589086) (0.000323033 -0.000339045 0.00566733) (0.000462734 -0.000199505 0.0088493) (-0.000124804 0.000175579 0.00269343) (-0.000370768 -2.97859e-05 0.00534157) (-0.000969401 0.000371985 0.00600305) (-0.000294671 -0.00022737 0.00290612) (0.000307143 -0.000206743 0.00362051) (0.000166302 -6.73122e-05 0.00199465) (0.000113638 -3.14992e-05 0.00224156) (8.19789e-05 -1.63591e-05 0.00233174) (5.92747e-05 -8.87932e-06 0.00236649) (3.11884e-05 -2.86396e-06 0.00238722) (2.2692e-05 -1.78513e-06 0.00238944) (1.65684e-05 -1.15543e-06 0.00239022) (1.20914e-05 -7.89127e-07 0.00239045) (8.78697e-06 -5.70652e-07 0.00239042) (6.35236e-06 -4.10285e-07 0.00239027) (4.53851e-06 -2.85879e-07 0.00239011) (3.15395e-06 -1.94203e-07 0.00238998) (1.16689e-06 -7.04021e-08 0.00238983)
0.003         (-0.000404351 0.000453405 0.0068584) (0.000355297 -0.000485082 0.00696709) (0.000458233 -0.000197392 0.0105953) (6.91696e-05 0.000193806 0.00377577) (-0.000307287 -0.000126982 0.00669745) (-0.000973833 0.000299755 0.00689816) (-0.000277113 -0.000180818 0.00317185) (0.000175161 -0.000175738 0.00339188) (0.000109761 -7.01581e-05 0.00223707) (8.44336e-05 -3.60908e-05 0.00266258) (6.56705e-05 -2.09401e-05 0.00275358) (4.97466e-05 -1.24936e-05 0.00278701) (2.69841e-05 -4.41245e-06 0.00280429) (1.97308e-05 -2.68403e-06 0.00280545) (1.44136e-05 -1.68601e-06 0.00280557) (1.05115e-05 -1.09654e-06 0.00280539) (7.63933e-06 -7.30584e-07 0.00280517) (5.51436e-06 -4.89263e-07 0.00280496) (3.92481e-06 -3.24797e-07 0.00280479) (2.71422e-06 -2.11063e-07 0.00280466) (9.95982e-07 -6.98789e-08 0.00280451)
0.004         (-0.000448735 0.000478579 0.00705643) (0.000432713 -0.000606326 0.00702808) (0.000411583 -0.000303321 0.0111336) (-1.77233e-05 0.000168121 0.0041627) (-0.000310486 -9.35601e-05 0.00710724) (-0.000600956 0.000458118 0.00711389) (-0.000267319 0.000279135 0.00370981) (4.88005e-05 -0.000153668 0.00183327) (0.000104454 -7.75536e-05 0.00229353) (7.07559e-05 -4.73021e-05 0.00273065) (4.61022e-05 -3.1145e-05 0.00279489) (3.17533e-05 -2.12177e-05 0.00282303) (1.56691e-05 -9.87966e-06 0.00283716) (1.11521e-05 -6.87212e-06 0.00283791) (8.00034e-06 -4.8605e-06 0.00283785) (5.77948e-06 -3.47286e-06 0.00283764) (4.18378e-06 -2.49647e-06 0.00283748) (3.01498e-06 -1.79589e-06 0.00283737) (2.1531e-06 -1.27238e-06 0.00283731) (1.50994e-06 -8.65051e-07 0.00283727) (5.79921e-07 -2.99659e-07 0.00283727)
0.005         (-0.000388937 0.000537718 0.00753669) (0.00046105 -0.000598626 0.00754822) (0.000578084 -0.000350065 0.0120223) (-3.47449e-06 2.25204e-05 0.00452769) (-0.0003648 -0.000199903 0.00795241) (-0.000921138 0.000306732 0.00816313) (-0.000264782 0.000114279 0.004229) (8.47499e-05 -0.00013632 0.0013262) (0.000154972 -7.42153e-05 0.00243082) (8.45347e-05 -3.89019e-05 0.00287265) (4.56377e-05 -2.35232e-05 0.00294819) (2.75682e-05 -1.52614e-05 0.0029896) (1.17164e-05 -6.64148e-06 0.00301551) (8.01495e-06 -4.47163e-06 0.00301851) (5.60889e-06 -3.07583e-06 0.00301966) (3.9734e-06 -2.17177e-06 0.00302008) (2.82218e-06 -1.57312e-06 0.00302023) (2.00214e-06 -1.15024e-06 0.00302028) (1.41521e-06 -8.26237e-07 0.00302027) (9.851e-07 -5.66322e-07 0.00302023) (3.77921e-07 -1.93442e-07 0.00302015)
0.006         (-0.000542884 0.000505062 0.00798923) (0.000390577 -0.000630798 0.00799236) (0.000613359 -0.000339916 0.0127678) (2.63884e-05 9.5226e-05 0.0045371) (-0.000517324 -0.00024304 0.00822317) (-0.00141476 0.000393671 0.00860561) (-0.000475446 0.000323409 0.00426697) (0.000106203 -0.000132763 0.0022274) (0.000243274 -6.88112e-05 0.00244125) (0.000108829 -3.08212e-05 0.00291304) (5.29632e-05 -1.50943e-05 0.00302681) (3.01331e-05 -8.28415e-06 0.00308651) (1.20962e-05 -2.65604e-06 0.00312564) (8.15765e-06 -1.55544e-06 0.00313087) (5.63703e-06 -9.81587e-07 0.00313314) (3.98905e-06 -6.43543e-07 0.00313415) (2.87662e-06 -4.22093e-07 0.00313469) (2.07816e-06 -2.84724e-07 0.00313502) (1.47789e-06 -2.02614e-07 0.00313518) (1.02089e-06 -1.45426e-07 0.0031352) (3.84098e-07 -5.44821e-08 0.00313515)
0.007         (-0.000595829 0.000488503 0.00824698) (0.000305967 -0.000648984 0.00788025) (0.000575936 -0.000426767 0.0128243) (-3.93027e-05 0.000217093 0.00409149) (-0.000608645 -0.000385616 0.00788974) (-0.0016463 0.000382254 0.008781) (-0.000493857 5.17605e-05 0.0041519) (0.000217082 -0.000235254 0.00341157) (0.000303342 -9.21926e-05 0.00225334) (0.000129678 -3.59282e-05 0.00287159) (6.46374e-05 -1.34859e-05 0.00304259) (3.81231e-05 -5.38821e-06 0.0031309) (1.62244e-05 -7.00753e-07 0.00319365) (1.10963e-05 -1.49974e-07 0.00320314) (7.74603e-06 3.21573e-08 0.00320767) (5.48628e-06 6.6499e-08 0.00320985) (3.91734e-06 5.11765e-08 0.00321093) (2.79725e-06 2.62214e-08 0.00321147) (1.97818e-06 6.33302e-09 0.00321173) (1.36322e-06 -6.53891e-09 0.00321184) (5.06672e-07 -7.38425e-09 0.0032119)
0.008         (-0.000625426 0.000593367 0.00844427) (0.000333421 -0.000610976 0.00787445) (0.000723745 -0.000349131 0.0129754) (-5.97338e-05 0.000183736 0.00344389) (-0.00062936 -0.000242497 0.00753874) (-0.00176038 0.000600572 0.00850729) (-0.000499966 3.94857e-05 0.00373301) (0.00030303 -0.000244549 0.00490198) (0.000289083 -0.000100804 0.00207307) (0.000106955 -4.93277e-05 0.00293039) (4.84989e-05 -2.6293e-05 0.00312645) (2.71822e-05 -1.63139e-05 0.00322632) (1.08892e-05 -7.54821e-06 0.00329992) (7.23623e-06 -5.36983e-06 0.00331166) (4.91711e-06 -3.89035e-06 0.00331749) (3.407e-06 -2.84442e-06 0.00332042) (2.38264e-06 -2.09146e-06 0.00332191) (1.66649e-06 -1.53558e-06 0.00332269) (1.15913e-06 -1.10977e-06 0.00332311) (7.89011e-07 -7.78457e-07 0.00332334) (2.89277e-07 -2.9489e-07 0.00332349)
0.009         (-0.000653494 0.000607469 0.00888915) (0.000444358 -0.000546115 0.00819061) (0.000753908 -0.000392159 0.0134421) (-4.91546e-05 0.000195614 0.00318165) (-0.000573728 -0.000150902 0.0073886) (-0.00177699 0.000616045 0.00845723) (-0.000330295 0.00019262 0.00353651) (0.000392563 -0.00029928 0.00637004) (0.000238985 -7.31606e-05 0.00190964) (8.68363e-05 -4.89101e-05 0.00316732) (3.95431e-05 -2.95797e-05 0.00332766) (2.26482e-05 -1.96521e-05 0.00341922) (9.45185e-06 -9.80102e-06 0.00349148) (6.32563e-06 -7.09221e-06 0.00350343) (4.30296e-06 -5.19379e-06 0.00350951) (2.96841e-06 -3.83327e-06 0.00351265) (2.06821e-06 -2.83728e-06 0.00351431) (1.45018e-06 -2.08773e-06 0.00351522) (1.01611e-06 -1.51187e-06 0.00351574) (6.98684e-07 -1.06361e-06 0.00351604) (2.64133e-07 -4.04624e-07 0.00351632)
0.01          (-0.000688179 0.000637647 0.00938874) (0.000470677 -0.000695355 0.00860874) (0.000910036 -0.000458992 0.0140255) (-9.9999e-05 0.00018749 0.00315171) (-0.000670151 -0.000240896 0.00750417) (-0.00192877 0.000587259 0.0087491) (-0.000237484 0.000529546 0.00367072) (0.000568854 -0.00026501 0.00765988) (0.000194203 -4.29779e-05 0.00185119) (7.0383e-05 -4.20807e-05 0.00352453) (2.86025e-05 -2.68044e-05 0.00360776) (1.4906e-05 -1.83118e-05 0.00368176) (5.62078e-06 -9.22849e-06 0.0037447) (3.55607e-06 -6.69183e-06 0.00375524) (2.27883e-06 -4.91523e-06 0.00376064) (1.4895e-06 -3.63687e-06 0.00376345) (9.9606e-07 -2.69393e-06 0.00376495) (6.79553e-07 -1.98361e-06 0.00376578) (4.6525e-07 -1.44135e-06 0.00376626) (3.10537e-07 -1.01945e-06 0.00376655) (1.14925e-07 -3.90267e-07 0.00376686)
0.011         (-0.000698225 0.000660764 0.00985682) (0.000524411 -0.000652791 0.00913229) (0.00092982 -0.000442618 0.0149089) (-7.40125e-05 0.000256069 0.00352508) (-0.00071648 -0.000230895 0.00821259) (-0.00201326 0.000573792 0.0094257) (-0.000100358 0.000565864 0.00395705) (0.000599556 -0.000268042 0.00830651) (0.000128852 -4.66324e-05 0.00187202) (5.58556e-05 -5.48906e-05 0.00385787) (1.9095e-05 -3.59056e-05 0.00383339) (8.24286e-06 -2.47095e-05 0.00388791) (2.28749e-06 -1.21557e-05 0.0039385) (1.1367e-06 -8.64135e-06 0.00394706) (5.07014e-07 -6.20427e-06 0.0039515) (1.87551e-07 -4.47517e-06 0.00395385) (3.67774e-08 -3.22964e-06 0.00395513) (-2.6281e-08 -2.31926e-06 0.00395586) (-4.43983e-08 -1.64339e-06 0.00395626) (-4.17474e-08 -1.13266e-06 0.00395648) (-7.42444e-09 -4.15563e-07 0.00395663)
0.012         (-0.000746657 0.000722717 0.0104058) (0.000478528 -0.000712521 0.00982338) (0.000870334 -0.000403212 0.0160662) (-7.69343e-05 0.000248198 0.00423428) (-0.000681038 -0.000169729 0.00923051) (-0.00205471 0.000833345 0.0102693) (-0.000250273 0.000630921 0.00437481) (0.000675218 -0.000258827 0.00839247) (0.000135729 -3.88345e-05 0.00197178) (6.68674e-05 -5.47905e-05 0.00415385) (2.12327e-05 -3.57036e-05 0.00404129) (8.31728e-06 -2.47361e-05 0.00409158) (1.86863e-06 -1.22892e-05 0.00413879) (7.74064e-07 -8.78977e-06 0.00414671) (2.24769e-07 -6.35933e-06 0.00415083) (-1.40569e-08 -4.62374e-06 0.004153) (-1.03852e-07 -3.36816e-06 0.00415419) (-1.38101e-07 -2.4568e-06 0.00415487) (-1.46686e-07 -1.78466e-06 0.00415526) (-1.36298e-07 -1.26805e-06 0.00415548) (-5.47234e-08 -4.89644e-07 0.00415567)
0.013         (-0.00082829 0.000736764 0.0109306) (0.000529199 -0.000744486 0.0104338) (0.000875728 -0.000435042 0.0170596) (-8.06847e-05 0.000357951 0.00487129) (-0.000737466 -2.06454e-05 0.0102501) (-0.00147474 0.00105263 0.0112456) (-0.000284842 0.000684818 0.00491622) (0.000446111 -0.000269587 0.00830288) (9.91481e-05 -6.29369e-05 0.00209319) (6.03587e-05 -7.28272e-05 0.0043829) (1.32621e-05 -4.73806e-05 0.0042093) (1.52814e-06 -3.2921e-05 0.00426628) (-2.19524e-06 -1.64636e-05 0.00431659) (-2.25012e-06 -1.17538e-05 0.00432512) (-2.03536e-06 -8.49328e-06 0.00432966) (-1.71248e-06 -6.18449e-06 0.0043321) (-1.35887e-06 -4.50065e-06 0.00433343) (-1.03323e-06 -3.25475e-06 0.0043342) (-7.66361e-07 -2.32736e-06 0.00433466) (-5.54949e-07 -1.62222e-06 0.00433496) (-2.08959e-07 -6.0533e-07 0.00433531)
0.014         (-0.000855637 0.000661247 0.0113709) (0.000582467 -0.000836982 0.0109109) (0.000915828 -0.000473803 0.0178494) (-8.4986e-05 0.000321408 0.00524475) (-0.000668387 -0.000103335 0.0107204) (-0.00141663 0.00102093 0.0118494) (-0.000356286 0.000929146 0.00532161) (0.000364014 -0.000148371 0.00782888) (0.000138538 1.20807e-06 0.00215826) (8.50339e-05 -3.55551e-05 0.00455708) (2.53916e-05 -2.12835e-05 0.00436591) (8.48483e-06 -1.4102e-05 0.0044447) (4.49217e-07 -6.58248e-06 0.00450818) (-5.42945e-07 -4.62328e-06 0.00451874) (-8.72132e-07 -3.3304e-06 0.0045243) (-8.9227e-07 -2.44552e-06 0.00452729) (-7.90842e-07 -1.82209e-06 0.00452894) (-6.53492e-07 -1.36696e-06 0.00452987) (-5.10164e-07 -1.01666e-06 0.00453042) (-3.72885e-07 -7.32815e-07 0.00453075) (-1.28062e-07 -2.91185e-07 0.00453108)
0.015         (-0.000933233 0.000635217 0.0118355) (0.000596803 -0.000880808 0.0113351) (0.000983935 -0.000549406 0.0184461) (-3.78071e-05 0.000304093 0.00538517) (-0.000724921 -9.90725e-05 0.0110056) (-0.00141497 0.00115793 0.0120662) (-0.000633138 0.0013594 0.0051897) (0.00029445 -0.000132435 0.00765685) (0.000171208 3.47631e-06 0.00222939) (8.8743e-05 -3.53969e-05 0.00472035) (1.90793e-05 -2.26317e-05 0.00453126) (-1.99501e-07 -1.61047e-05 0.00463517) (-6.11985e-06 -8.04101e-06 0.00471442) (-5.72607e-06 -5.76763e-06 0.00472791) (-4.85441e-06 -4.19343e-06 0.00473509) (-3.87686e-06 -3.05153e-06 0.00473897) (-2.97472e-06 -2.20698e-06 0.00474113) (-2.22203e-06 -1.58651e-06 0.00474235) (-1.62129e-06 -1.13023e-06 0.00474304) (-1.14073e-06 -7.82813e-07 0.00474342) (-4.05099e-07 -2.87483e-07 0.00474373)
0.016         (-0.000957176 0.000696367 0.012216) (0.000519181 -0.000889135 0.0116001) (0.00101591 -0.000554554 0.0188728) (-3.79152e-05 0.000268926 0.00542) (-0.000816944 -0.000224128 0.0111639) (-0.00143799 0.000942164 0.0123337) (-0.00054769 0.00141309 0.00596135) (0.000321375 -7.80282e-05 0.00767968) (0.000233174 8.39742e-06 0.00233004) (0.000109124 -2.80162e-05 0.00485819) (2.81049e-05 -1.70916e-05 0.00466613) (4.82766e-06 -1.27036e-05 0.0047881) (-4.02097e-06 -6.84382e-06 0.00487663) (-4.2901e-06 -5.07011e-06 0.00489151) (-3.86471e-06 -3.79443e-06 0.00489941) (-3.21362e-06 -2.84729e-06 0.00490366) (-2.55608e-06 -2.13334e-06 0.004906) (-1.96969e-06 -1.58422e-06 0.00490731) (-1.46977e-06 -1.15242e-06 0.00490805) (-1.05285e-06 -8.08999e-07 0.00490848) (-3.91761e-07 -3.10162e-07 0.00490889)
0.017         (-0.000947787 0.000737875 0.0126267) (0.000321983 -0.000963459 0.0118172) (0.00105772 -0.000611913 0.0205028) (-1.57375e-06 0.000218717 0.00500618) (-0.000750527 -0.000281334 0.0113437) (-0.00135741 0.000979628 0.012563) (-0.00013561 0.000707546 0.00645327) (0.000149991 -2.68467e-05 0.00788324) (0.000239335 1.43574e-05 0.00241292) (0.000107905 -1.52962e-05 0.00501445) (2.61935e-05 -7.63754e-06 0.00481721) (3.06367e-06 -5.93312e-06 0.00495073) (-5.19262e-06 -3.34386e-06 0.00504405) (-5.15041e-06 -2.52403e-06 0.00505972) (-4.46526e-06 -1.9378e-06 0.00506807) (-3.61754e-06 -1.50037e-06 0.00507255) (-2.80679e-06 -1.15884e-06 0.00507499) (-2.1058e-06 -8.83056e-07 0.00507634) (-1.53199e-06 -6.60079e-07 0.00507714) (-1.07409e-06 -4.77613e-07 0.00507763) (-3.85399e-07 -1.9467e-07 0.00507813)
0.018         (-0.000982639 0.000790348 0.0130743) (0.000350778 -0.00097605 0.0121556) (0.000900138 -0.000738603 0.0213075) (0.000126031 0.000256509 0.00512584) (-0.000659767 -0.00027618 0.0112247) (-0.00130957 0.00108273 0.0128507) (-3.40065e-05 0.000272257 0.00652828) (2.62452e-05 -5.78478e-05 0.00844529) (0.000279336 -3.27667e-06 0.00249637) (0.000111716 -2.22813e-05 0.00517653) (2.3445e-05 -1.31246e-05 0.00497184) (-8.51162e-07 -1.0165e-05 0.00511406) (-8.36824e-06 -5.64988e-06 0.00521052) (-7.63885e-06 -4.15324e-06 0.00522671) (-6.34772e-06 -3.04659e-06 0.00523537) (-5.02162e-06 -2.23348e-06 0.00524004) (-3.85819e-06 -1.64041e-06 0.0052426) (-2.89703e-06 -1.20062e-06 0.00524402) (-2.12153e-06 -8.67725e-07 0.00524484) (-1.49904e-06 -6.09409e-07 0.00524532) (-5.51079e-07 -2.38491e-07 0.00524579)
0.019         (-0.00100274 0.00086208 0.0135408) (0.000380139 -0.00100686 0.0126011) (0.000953907 -0.000765791 0.0221109) (0.000103903 0.000236376 0.00524335) (-0.00065565 -0.000292446 0.0116197) (-0.00116839 0.00100862 0.0133648) (-1.30526e-05 -0.000365762 0.00662298) (-6.82889e-05 -7.33055e-06 0.00897004) (0.000313356 3.49801e-05 0.00255329) (0.000112773 7.10856e-06 0.00535794) (2.00141e-05 7.57736e-06 0.00515184) (-5.08885e-06 4.92808e-06 0.00530551) (-1.14131e-05 2.6545e-06 0.00540738) (-9.99213e-06 1.96648e-06 0.00542447) (-8.15159e-06 1.42472e-06 0.00543358) (-6.38047e-06 1.03347e-06 0.0054385) (-4.84423e-06 7.68601e-07 0.00544122) (-3.58554e-06 5.81968e-07 0.00544279) (-2.59447e-06 4.32168e-07 0.00544372) (-1.8251e-06 3.03957e-07 0.00544428) (-6.8384e-07 9.89532e-08 0.00544484)
0.02          (-0.000984462 0.000851776 0.0139826) (0.000448595 -0.00103014 0.0130604) (0.000956643 -0.0007169 0.0228806) (0.000105067 0.000290856 0.00540819) (-0.000742431 -0.000228391 0.0119679) (-0.00117525 0.00105583 0.0137303) (6.0521e-05 -0.000886802 0.00660988) (-0.000140676 2.56659e-05 0.00956672) (0.000372103 6.57218e-05 0.00261597) (0.000130218 3.02704e-05 0.0055449) (2.84448e-05 2.26085e-05 0.00532751) (-5.07389e-07 1.52676e-05 0.00548966) (-9.78837e-06 7.82259e-06 0.00559643) (-8.98263e-06 5.61975e-06 0.0056144) (-7.50615e-06 4.02062e-06 0.00562397) (-5.94717e-06 2.88707e-06 0.0056291) (-4.55541e-06 2.08325e-06 0.00563193) (-3.41627e-06 1.48854e-06 0.00563352) (-2.51746e-06 1.03619e-06 0.00563442) (-1.80253e-06 6.93324e-07 0.00563496) (-6.83398e-07 2.32072e-07 0.00563547)
0.021         (-0.00104645 0.000871871 0.0144658) (0.000451238 -0.00101513 0.0135266) (0.000948504 -0.000698501 0.0237072) (4.22004e-06 0.000324416 0.00563281) (-0.00107143 -0.000223092 0.0124823) (-0.00226905 0.00106955 0.0138392) (-9.52596e-05 -0.000353668 0.00645723) (0.000230114 -7.25258e-05 0.0103985) (0.000486761 4.58987e-05 0.00283563) (0.000148258 2.08423e-05 0.00577646) (3.45026e-05 1.37904e-05 0.00551281) (1.9777e-06 7.78311e-06 0.00567416) (-9.20761e-06 3.32671e-06 0.00578131) (-8.6537e-06 2.30418e-06 0.0057998) (-7.33031e-06 1.59711e-06 0.00580976) (-5.88205e-06 1.11743e-06 0.00581515) (-4.54884e-06 8.10812e-07 0.00581811) (-3.41601e-06 6.10782e-07 0.00581978) (-2.50007e-06 4.60543e-07 0.00582075) (-1.77094e-06 3.33521e-07 0.00582131) (-6.59711e-07 1.21291e-07 0.00582179)
0.022         (-0.00106906 0.000903845 0.0149476) (0.000408751 -0.0010156 0.0139054) (0.000991689 -0.000958833 0.0243447) (4.86126e-05 0.000332601 0.00582076) (-0.00087204 -0.000154602 0.0129831) (-0.00225238 0.00120225 0.0145597) (0.000150117 -0.000241403 0.0068421) (0.000207422 -0.000184053 0.010975) (0.000462268 3.3155e-05 0.00297641) (0.000145439 1.98817e-05 0.00598435) (3.84014e-05 1.44678e-05 0.0057009) (6.11173e-06 8.42776e-06 0.0058676) (-6.62291e-06 3.40542e-06 0.0059769) (-6.6858e-06 2.30017e-06 0.00599575) (-5.82918e-06 1.56702e-06 0.00600595) (-4.75038e-06 1.06231e-06 0.00601148) (-3.70361e-06 7.3431e-07 0.0060145) (-2.78302e-06 5.28712e-07 0.00601621) (-2.02748e-06 3.83854e-07 0.00601721) (-1.43108e-06 2.65747e-07 0.00601783) (-5.39485e-07 7.70333e-08 0.00601843)
0.023         (-0.0011049 0.000910612 0.0153909) (0.00042291 -0.00106714 0.0143324) (0.00102077 -0.00103041 0.0251124) (1.30683e-07 0.000345821 0.006072) (-0.00107568 -7.14052e-05 0.0135504) (-0.00225177 0.00137497 0.0150352) (0.000187518 -0.000319382 0.00713173) (0.000336454 -0.000209568 0.0117946) (0.000426512 3.11869e-05 0.00320077) (0.000123585 1.92401e-05 0.00621703) (2.77165e-05 1.50128e-05 0.00590043) (-7.95171e-08 9.18963e-06 0.006067) (-9.10072e-06 3.96806e-06 0.00617587) (-8.37479e-06 2.68102e-06 0.00619486) (-6.99228e-06 1.80174e-06 0.00620513) (-5.51623e-06 1.22106e-06 0.0062107) (-4.18458e-06 8.43598e-07 0.00621379) (-3.08172e-06 5.89659e-07 0.00621553) (-2.20814e-06 4.11589e-07 0.00621651) (-1.52469e-06 2.84735e-07 0.00621704) (-5.44013e-07 9.76648e-08 0.00621741)
0.024         (-0.0011436 0.00100961 0.015857) (0.000479528 -0.00105285 0.0147643) (0.0010836 -0.00108215 0.0259005) (4.70263e-05 0.000355841 0.00633281) (-0.00100673 -9.19253e-05 0.0139793) (-0.00235719 0.00132303 0.0154934) (-0.000103073 -0.000128554 0.00735611) (0.000457809 -0.00030968 0.0121647) (0.000416599 3.9922e-06 0.00330234) (0.00012859 1.35891e-05 0.00639646) (3.39963e-05 1.62523e-05 0.00606751) (5.38733e-06 1.20863e-05 0.00623972) (-5.68845e-06 6.28103e-06 0.00635185) (-5.7961e-06 4.47642e-06 0.00637141) (-5.06866e-06 3.16897e-06 0.00638198) (-4.12844e-06 2.22696e-06 0.00638769) (-3.21949e-06 1.55097e-06 0.00639082) (-2.42054e-06 1.07415e-06 0.00639256) (-1.75452e-06 7.3732e-07 0.00639358) (-1.21715e-06 4.94357e-07 0.00639422) (-4.37547e-07 1.60744e-07 0.00639495)
0.025         (-0.00111149 0.000998011 0.0163014) (0.000492805 -0.00114307 0.0151604) (0.00110522 -0.00107851 0.0266205) (6.99444e-05 0.000331372 0.00657621) (-0.000976931 -0.000107879 0.0145316) (-0.00241939 0.0013215 0.0161134) (-0.000151733 -9.62575e-05 0.00769006) (0.000538429 -0.000311497 0.0124335) (0.000414722 -2.63033e-06 0.0034422) (0.000136677 1.66918e-05 0.00659969) (4.06477e-05 2.24043e-05 0.0062566) (1.03449e-05 1.77565e-05 0.00643292) (-2.83385e-06 9.73049e-06 0.00654655) (-3.69738e-06 7.01046e-06 0.00656641) (-3.55983e-06 4.99827e-06 0.00657705) (-3.02844e-06 3.57888e-06 0.00658275) (-2.42381e-06 2.56194e-06 0.00658588) (-1.8787e-06 1.81024e-06 0.00658763) (-1.41605e-06 1.25587e-06 0.00658866) (-1.02053e-06 8.5196e-07 0.00658931) (-3.83394e-07 2.99383e-07 0.00659006)
0.026         (-0.00114702 0.00103896 0.0167259) (0.0005295 -0.00108976 0.0156365) (0.00117056 -0.00102568 0.0274289) (5.52085e-05 0.000338883 0.00683356) (-0.00109796 -0.000115092 0.0149071) (-0.00254229 0.00145854 0.0165786) (-7.66897e-05 -9.3066e-05 0.00792662) (0.000598414 -0.000334418 0.012808) (0.000416761 -4.09151e-05 0.00356222) (0.000138131 -5.38225e-06 0.00677744) (3.98879e-05 8.46565e-06 0.0064243) (8.91777e-06 7.79395e-06 0.00660538) (-3.91826e-06 4.13312e-06 0.00672134) (-4.53373e-06 2.8211e-06 0.00674172) (-4.19523e-06 1.87699e-06 0.00675274) (-3.5516e-06 1.21915e-06 0.0067587) (-2.86136e-06 7.76487e-07 0.00676194) (-2.22114e-06 4.91175e-07 0.00676367) (-1.66521e-06 3.12728e-07 0.00676455) (-1.19482e-06 1.99651e-07 0.00676498) (-4.54004e-07 5.57348e-08 0.0067653)
0.027         (-0.00119869 0.000972175 0.017181) (0.000498881 -0.00113604 0.0160891) (0.00115214 -0.00108508 0.0280922) (3.06099e-05 0.000444232 0.00697527) (-0.00111676 -2.65438e-05 0.0152886) (-0.00253801 0.00123927 0.0170082) (5.45657e-05 -0.000114732 0.008182) (0.000577171 -0.000322874 0.013109) (0.000410599 -5.4357e-05 0.0036637) (0.000141264 -7.06652e-06 0.00696151) (4.11587e-05 1.12599e-05 0.00660032) (9.65339e-06 1.10495e-05 0.00678682) (-3.23195e-06 6.48997e-06 0.00690597) (-3.96371e-06 4.62836e-06 0.00692699) (-3.77394e-06 3.20557e-06 0.00693833) (-3.21953e-06 2.2008e-06 0.00694441) (-2.56396e-06 1.52374e-06 0.0069477) (-1.95459e-06 1.05479e-06 0.00694952) (-1.45545e-06 7.09021e-07 0.00695059) (-1.05993e-06 4.52825e-07 0.00695126) (-4.28497e-07 1.33756e-07 0.00695195)
0.028         (-0.00124526 0.00104074 0.0176405) (0.000519318 -0.00120645 0.016474) (0.00123373 -0.00115601 0.0288014) (6.13223e-05 0.0004039 0.00711053) (-0.00108911 -2.61516e-05 0.0156083) (-0.00257566 0.00121547 0.0175536) (-0.000144008 -0.000147541 0.00848451) (0.00053025 -0.000293266 0.0131955) (0.000444941 -6.25264e-05 0.00374782) (0.000161457 -8.47821e-06 0.00713359) (5.2067e-05 1.31467e-05 0.00676419) (1.64298e-05 1.35612e-05 0.00695659) (-1.03542e-07 8.06559e-06 0.00707925) (-1.68988e-06 5.82366e-06 0.00710083) (-2.00645e-06 4.19497e-06 0.00711251) (-1.86134e-06 2.98739e-06 0.00711891) (-1.59918e-06 2.06581e-06 0.00712244) (-1.30209e-06 1.39412e-06 0.00712439) (-9.93275e-07 9.35191e-07 0.00712548) (-7.05014e-07 6.25466e-07 0.00712612) (-2.56643e-07 2.15661e-07 0.00712677)
0.029         (-0.00128686 0.00111964 0.0180894) (0.000493182 -0.00122836 0.0168646) (0.00128583 -0.00121962 0.0294369) (0.000101443 0.000315783 0.00720822) (-0.0011099 -0.000122768 0.0158513) (-0.00263661 0.00141633 0.0178597) (-0.000225761 -0.000306273 0.00865549) (0.000452378 -0.000282826 0.0135824) (0.000467203 -7.37172e-05 0.00385756) (0.000171725 -1.46023e-05 0.00731176) (5.43109e-05 1.03346e-05 0.0069328) (1.56957e-05 1.20751e-05 0.00713002) (-1.64388e-06 7.40657e-06 0.00725605) (-3.01888e-06 5.34817e-06 0.00727842) (-3.14923e-06 3.79497e-06 0.00729049) (-2.80413e-06 2.67968e-06 0.00729697) (-2.31704e-06 1.88315e-06 0.00730049) (-1.82575e-06 1.32129e-06 0.00730242) (-1.38772e-06 9.14155e-07 0.00730353) (-1.01267e-06 6.13548e-07 0.00730421) (-4.02334e-07 2.01187e-07 0.00730494)
0.03          (-0.00131772 0.00117606 0.0184847) (0.00046724 -0.00125513 0.0172242) (0.00128023 -0.00123354 0.030084) (9.69954e-05 0.000392781 0.00734899) (-0.00117922 -7.39878e-05 0.0161543) (-0.0025782 0.00145671 0.0181273) (-5.06621e-05 -0.000109556 0.00911184) (0.000350826 -0.00028775 0.013978) (0.000490769 -8.92542e-05 0.00396467) (0.000180244 -2.25896e-05 0.00749002) (5.5434e-05 6.60462e-06 0.00709639) (1.43764e-05 1.02885e-05 0.00729654) (-3.65151e-06 6.56885e-06 0.00742563) (-4.72557e-06 4.67902e-06 0.00744873) (-4.46871e-06 3.27661e-06 0.00746122) (-3.77993e-06 2.26421e-06 0.00746795) (-3.01628e-06 1.54194e-06 0.00747167) (-2.31404e-06 1.04179e-06 0.0074738) (-1.72335e-06 6.88112e-07 0.00747505) (-1.23724e-06 4.3212e-07 0.00747582) (-4.75984e-07 1.12899e-07 0.0074767)
0.031         (-0.00129756 0.00105572 0.0189506) (0.000531145 -0.00131335 0.0176457) (0.00135988 -0.00123262 0.0306669) (0.000207436 0.000431344 0.00723665) (-0.000820523 -2.68673e-05 0.0158022) (-0.00212822 0.00102572 0.0132152) (-8.7658e-05 -1.04639e-05 0.00844263) (0.000178248 -0.000334154 0.013472) (0.000472692 -0.000125211 0.00395839) (0.000173396 -4.17663e-05 0.00766019) (5.16762e-05 -3.43379e-06 0.00727295) (1.09269e-05 4.13583e-06 0.00748314) (-6.23536e-06 3.63292e-06 0.00761873) (-6.81539e-06 2.55302e-06 0.00764324) (-6.15507e-06 1.68544e-06 0.00765668) (-5.12413e-06 1.07082e-06 0.00766404) (-4.09592e-06 6.35107e-07 0.00766812) (-3.18818e-06 3.39333e-07 0.00767035) (-2.40994e-06 1.57256e-07 0.00767153) (-1.74369e-06 6.17935e-08 0.00767213) (-6.77259e-07 -5.21165e-09 0.00767255)
0.032         (-0.00131469 0.00108366 0.0194108) (0.000562393 -0.00140608 0.0180478) (0.00147075 -0.00131735 0.0317281) (0.000233052 0.000402694 0.00725191) (-0.000840433 4.11752e-05 0.0166353) (-0.00210197 0.000971352 0.0131967) (-0.000222415 -0.000136781 0.00916116) (0.000128068 -0.00039236 0.013342) (0.000454909 -0.000168825 0.00403017) (0.000170017 -6.49718e-05 0.0078337) (5.28124e-05 -1.63046e-05 0.00744169) (1.23191e-05 -3.56625e-06 0.00765771) (-5.5882e-06 2.41268e-07 0.00779683) (-6.4104e-06 1.51062e-07 0.00782196) (-5.9012e-06 -5.032e-08 0.00783575) (-4.93692e-06 -1.81946e-07 0.0078433) (-3.88171e-06 -2.23319e-07 0.00784754) (-2.90191e-06 -2.01821e-07 0.00784999) (-2.06937e-06 -1.54982e-07 0.00785143) (-1.39871e-06 -1.10437e-07 0.00785226) (-4.79735e-07 -5.85358e-08 0.00785296)
0.033         (-0.0013735 0.00122608 0.0198433) (0.000497218 -0.00137723 0.0184732) (0.00153301 -0.00146104 0.0325805) (0.000229475 0.000474115 0.00737922) (-0.000969553 5.32613e-05 0.0173898) (-0.00219204 0.00104255 0.0131539) (-0.000212782 -0.000167337 0.00956964) (6.48373e-05 -0.000409769 0.0135095) (0.000437021 -0.000193556 0.00412374) (0.000165349 -7.95487e-05 0.00801248) (5.24018e-05 -2.4822e-05 0.00761575) (1.21003e-05 -9.13361e-06 0.00783829) (-6.1162e-06 -2.67895e-06 0.00798151) (-6.84939e-06 -1.97842e-06 0.00800741) (-6.22311e-06 -1.57838e-06 0.00802161) (-5.17493e-06 -1.27734e-06 0.00802936) (-4.09391e-06 -1.02621e-06 0.00803365) (-3.12311e-06 -8.06529e-07 0.00803605) (-2.30264e-06 -6.12995e-07 0.00803741) (-1.62627e-06 -4.4081e-07 0.0080382) (-6.14313e-07 -1.76364e-07 0.0080389)
0.034         (-0.00134756 0.00119355 0.0201919) (0.000544851 -0.00141428 0.0187536) (0.00148331 -0.00148142 0.0332724) (0.000258502 0.000481744 0.00752991) (-0.000932439 8.19996e-05 0.0178829) (-0.00213423 0.00101291 0.0134136) (-5.07995e-05 -0.000188029 0.00998926) (2.83545e-05 -0.00041085 0.0136163) (0.000433064 -0.000209384 0.00420006) (0.000166342 -9.13354e-05 0.0081796) (5.60503e-05 -3.15878e-05 0.00777448) (1.50916e-05 -1.30506e-05 0.00800154) (-4.80696e-06 -4.36584e-06 0.00814734) (-6.02847e-06 -3.22038e-06 0.00817366) (-5.71181e-06 -2.52853e-06 0.00818806) (-4.87195e-06 -2.03274e-06 0.00819595) (-3.92168e-06 -1.62433e-06 0.00820039) (-3.02195e-06 -1.26527e-06 0.00820297) (-2.24017e-06 -9.53471e-07 0.00820452) (-1.59101e-06 -6.90456e-07 0.00820548) (-6.12289e-07 -2.83814e-07 0.00820646)
0.035         (-0.00126147 0.00125627 0.0206508) (0.000617726 -0.00151526 0.0192435) (0.00153265 -0.00147294 0.0340051) (0.000276902 0.000523319 0.00767498) (-0.000924337 9.35556e-05 0.0183152) (-0.00214125 0.00106765 0.0137202) (-5.50311e-05 -9.11226e-05 0.0102705) (3.06807e-07 -0.000428043 0.0137865) (0.000403445 -0.000233666 0.00428664) (0.000146442 -0.00010504 0.00837233) (4.38177e-05 -3.90382e-05 0.0079696) (5.90117e-06 -1.78367e-05 0.00820693) (-1.03039e-05 -6.69713e-06 0.00835996) (-1.03036e-05 -4.98862e-06 0.00838786) (-9.06131e-06 -3.91607e-06 0.00840319) (-7.42554e-06 -3.04533e-06 0.00841154) (-5.79988e-06 -2.28865e-06 0.00841619) (-4.38916e-06 -1.6711e-06 0.00841883) (-3.24435e-06 -1.19824e-06 0.00842037) (-2.32386e-06 -8.36879e-07 0.00842128) (-9.14233e-07 -3.25148e-07 0.00842213)
0.036         (-0.00125628 0.00121884 0.0210525) (0.000646279 -0.00149699 0.0195481) (0.00159164 -0.0015147 0.0347671) (0.000296556 0.000561845 0.00785735) (-0.000895939 4.24944e-05 0.0187226) (-0.00217911 0.00104181 0.0140381) (-2.94199e-05 -0.000123388 0.0104988) (-5.96465e-06 -0.000430478 0.0139831) (0.000397652 -0.000247702 0.00434801) (0.000145583 -0.000110933 0.00853863) (4.62451e-05 -4.03991e-05 0.008134) (8.29778e-06 -1.74932e-05 0.00837939) (-9.04099e-06 -6.12736e-06 0.00853758) (-9.33203e-06 -4.47776e-06 0.00856644) (-8.24707e-06 -3.44145e-06 0.00858234) (-6.78253e-06 -2.71528e-06 0.00859098) (-5.34961e-06 -2.1674e-06 0.00859576) (-4.08812e-06 -1.69275e-06 0.00859852) (-3.00917e-06 -1.24947e-06 0.00860011) (-2.11827e-06 -8.69621e-07 0.00860097) (-8.14737e-07 -3.43547e-07 0.00860163)