/*--------------------------------*- C++ -*----------------------------------*\
| =========                 |                                                 |
| \\      /  F ield         | OpenFOAM: The Open Source CFD Toolbox           |
|  \\    /   O peration     | Version:  2506                                  |
|   \\  /    A nd           | Website:  www.openfoam.com                      |
|    \\/     M anipulation  |                                                 |
\*---------------------------------------------------------------------------*/
FoamFile
{
    version     2.0;
    format      ascii;
    arch        "LSB;label=32;scalar=64";
    class       surfaceScalarField;
    location    "0.05";
    object      phi;
}
// * * * * * * * * * * * * * * * * * * * * * * * * * * * * * * * * * * * * * //

dimensions      [0 3 -1 0 0 0 0];

oriented        oriented;

internalField   nonuniform List<scalar> 
3120
(
-1.01206e-09
-1.09102e-09
2.9658e-08
2.89306e-09
6.96675e-10
3.57992e-10
1.97964e-08
2.66159e-09
6.37024e-10
2.92621e-08
-4.32804e-09
3.87213e-08
1.48331e-10
6.38833e-09
2.18737e-08
3.31264e-09
1.98379e-09
3.84048e-09
2.72415e-08
-2.42816e-09
1.70444e-09
3.60641e-08
5.38054e-10
2.22039e-08
-3.12034e-09
-1.99707e-09
3.76032e-08
6.99011e-09
-3.69673e-10
-5.11111e-10
3.46546e-08
-2.36654e-09
1.48614e-09
3.53378e-08
2.71198e-09
2.24447e-08
-1.01432e-09
2.05694e-08
5.11458e-09
6.73866e-09
1.41211e-09
2.35565e-08
6.604e-09
-1.37349e-09
3.52573e-08
2.38217e-09
2.29338e-08
8.65727e-09
4.38601e-09
2.49244e-09
1.52745e-08
3.26697e-09
-3.52086e-09
-2.9258e-09
3.95734e-08
-3.81749e-09
-4.02983e-09
3.84323e-08
5.79188e-11
3.55423e-08
-7.00389e-10
-2.54993e-11
2.32907e-08
1.80125e-09
-4.52577e-10
9.41801e-10
2.3126e-08
1.13081e-09
3.34127e-10
3.01167e-08
1.53476e-09
1.97252e-08
1.88042e-10
3.92588e-09
3.10148e-08
2.44898e-09
-1.63413e-09
3.526e-09
3.38926e-08
1.86185e-09
4.45201e-09
2.77239e-08
4.92469e-10
2.91747e-08
-4.575e-10
2.63648e-08
-1.63568e-09
2.23726e-10
-1.83629e-09
3.19185e-08
-3.45724e-09
-1.88809e-10
3.78655e-08
1.9635e-10
1.91575e-08
1.3149e-09
-3.0846e-09
-4.61333e-10
2.49049e-08
-2.29188e-09
-2.17143e-09
-1.01694e-09
4.2883e-08
-1.23564e-09
-8.02635e-10
4.03112e-08
7.61184e-11
3.6452e-08
-1.64261e-09
-2.14728e-09
3.02977e-08
-3.67842e-09
-1.03628e-09
-2.0493e-09
2.35521e-08
-1.22413e-11
-5.98375e-10
2.88884e-08
1.85284e-09
1.34138e-08
-2.92503e-09
1.2719e-09
3.16214e-08
-1.10076e-09
3.50657e-11
5.54282e-10
2.83289e-08
2.91961e-09
-5.87922e-10
2.48289e-08
-9.28393e-10
3.48238e-08
-4.05493e-09
3.72682e-08
9.33085e-10
-6.50969e-09
-1.86876e-09
3.7306e-08
-7.01938e-09
3.38117e-09
2.64104e-08
5.61724e-09
1.76653e-08
2.81876e-09
-2.92712e-09
2.09358e-09
3.31242e-08
-3.27518e-09
5.37275e-09
1.74644e-09
3.21649e-08
-2.59216e-09
1.59735e-09
5.0423e-08
3.70849e-09
3.26341e-08
-2.2726e-09
3.81279e-09
3.32112e-08
-2.36004e-09
2.58955e-09
-8.62293e-10
2.12987e-08
3.66686e-10
9.29877e-10
3.17787e-08
-4.69677e-10
2.13264e-08
-4.96814e-09
-7.06573e-09
5.53872e-08
-7.91912e-09
4.01502e-09
-2.50992e-09
2.09934e-08
-8.4227e-10
-3.99377e-09
3.46099e-08
-2.20023e-09
3.42606e-08
-3.96997e-09
3.70488e-08
1.13905e-09
-4.01541e-09
1.94577e-09
2.51041e-08
3.77628e-09
9.83483e-10
2.38846e-08
-5.05667e-10
1.86751e-08
-3.35221e-09
-2.56031e-09
1.24396e-09
3.64104e-08
-6.00514e-10
-1.31297e-09
1.79462e-09
2.48235e-08
1.37383e-09
1.70918e-09
3.84828e-08
1.25095e-09
2.39927e-08
-1.21582e-09
6.86973e-09
2.99616e-08
-1.16034e-09
-1.45962e-09
1.58394e-09
2.17532e-08
1.3988e-09
3.81529e-09
2.68142e-08
1.1156e-09
2.14059e-08
-3.56589e-09
-7.18825e-09
8.41982e-08
-1.11871e-08
-1.80764e-09
-7.91389e-10
2.16105e-08
-8.00262e-10
-4.19904e-10
3.78377e-08
1.87505e-09
2.93037e-08
4.60576e-10
2.78269e-08
3.92827e-09
-2.35519e-09
4.26243e-10
2.50572e-08
-7.10096e-10
2.35988e-09
2.18113e-08
-2.80257e-10
1.86231e-08
-2.01497e-09
-8.19129e-11
5.11228e-10
3.5382e-08
-3.37311e-09
-3.15488e-10
1.09526e-09
2.02657e-08
-1.40098e-09
-5.97207e-10
3.98963e-08
9.01454e-10
2.55179e-08
1.46921e-09
2.11404e-09
2.69384e-08
-4.87863e-11
-2.33958e-09
1.06567e-09
2.55915e-08
1.47082e-10
-1.63669e-09
2.5367e-08
1.32678e-09
2.31968e-08
3.10077e-09
-4.15197e-09
8.67958e-08
5.67688e-10
-6.58318e-09
-2.46284e-09
3.48229e-08
4.20897e-09
3.93363e-10
2.50155e-08
2.19292e-09
3.21763e-08
1.80032e-09
3.45851e-08
-1.28953e-08
1.84662e-10
-3.48298e-09
2.93236e-08
-1.44597e-09
3.21934e-09
1.79249e-08
-2.42265e-09
3.57338e-08
-1.68875e-09
9.52692e-10
-1.18168e-09
3.37532e-08
1.01497e-09
-1.79352e-09
-8.7432e-10
2.53688e-08
6.14417e-10
3.52881e-10
3.56404e-08
-1.2799e-10
2.82739e-08
8.22526e-10
-7.66815e-09
3.24744e-08
1.27748e-10
-5.30148e-11
-2.00394e-09
2.7597e-08
3.34737e-11
-5.16819e-10
2.61501e-08
-1.02306e-09
2.44211e-08
4.71012e-09
2.33143e-09
6.70922e-08
4.9944e-09
7.30303e-10
-2.81587e-10
3.70802e-08
-5.98209e-10
-1.42967e-10
2.59701e-08
-8.39244e-11
3.0886e-08
1.24404e-09
3.66502e-08
-1.37571e-09
3.98263e-10
1.5042e-09
3.12377e-08
-2.45587e-09
-1.635e-09
2.26623e-08
-1.74064e-09
3.37622e-08
8.65706e-10
-1.50573e-09
-2.01186e-09
3.26193e-08
4.31534e-09
-2.1463e-09
-8.87934e-10
2.83829e-08
-7.29639e-10
1.05998e-10
3.29479e-08
-5.29557e-10
2.95369e-08
-8.493e-10
-5.24461e-09
3.34134e-08
3.1435e-09
-7.53084e-10
-2.07006e-09
2.86827e-08
-1.0709e-09
-6.3677e-10
2.7211e-08
-1.73474e-09
2.58993e-08
1.44171e-09
4.9061e-09
4.78305e-08
7.67009e-09
1.29553e-09
1.09784e-09
3.40579e-08
-1.18998e-09
8.80573e-10
2.69386e-08
-3.37529e-10
2.95958e-08
-1.1043e-09
3.75552e-08
2.10137e-09
3.00532e-09
-7.3174e-10
3.1981e-08
-1.87731e-11
-3.46104e-09
2.5844e-08
4.28717e-10
2.97866e-08
1.88306e-09
1.53887e-09
-1.65391e-09
3.26627e-08
-3.70214e-10
4.20763e-10
-7.88509e-10
3.09027e-08
2.22923e-10
3.59991e-10
3.17063e-08
-2.88697e-10
3.05235e-08
2.43888e-09
-3.72885e-09
3.34326e-08
-3.83161e-10
1.71879e-09
-2.51087e-09
3.11251e-08
3.76649e-10
-9.84033e-10
2.98973e-08
-2.04421e-09
2.92673e-08
3.77777e-09
5.184e-10
3.78393e-08
1.96573e-09
3.13473e-09
-1.19745e-09
3.33872e-08
4.68896e-11
-1.22737e-09
3.027e-08
-1.41774e-09
3.06316e-08
2.20794e-09
3.49107e-08
9.80779e-10
-2.64044e-11
2.1342e-09
3.27452e-08
-1.88841e-09
-1.02054e-09
3.01429e-08
-2.37141e-09
3.10289e-08
-8.51372e-10
1.14757e-09
-7.13471e-10
3.26496e-08
-6.66938e-10
6.39391e-10
-4.88171e-10
3.1914e-08
3.57482e-10
-2.07148e-10
3.17201e-08
-4.73383e-10
3.13478e-08
1.34221e-09
-1.19578e-09
3.30527e-08
-4.80234e-10
1.08103e-09
-1.14843e-09
3.2047e-08
2.5354e-10
-8.32933e-10
3.13506e-08
-1.26519e-09
3.1065e-08
1.45681e-09
5.08656e-10
3.42828e-08
3.95237e-10
1.39624e-09
-5.60299e-10
3.28601e-08
1.83359e-11
-8.68852e-10
3.16838e-08
-1.17744e-09
3.15986e-08
5.1523e-10
3.35798e-08
7.89501e-10
5.3488e-10
6.86088e-10
3.27725e-08
-7.58135e-10
-5.97865e-10
3.18308e-08
-1.27258e-09
3.19443e-08
-1.03945e-09
7.16725e-10
-3.45669e-10
3.27225e-08
-5.07919e-10
5.4967e-10
-3.05658e-10
3.23758e-08
2.50336e-10
-2.71533e-10
3.21403e-08
-4.04456e-10
3.19857e-08
7.41238e-10
-5.5772e-10
3.29082e-08
-3.84346e-10
6.13564e-10
-6.04855e-10
3.24743e-08
1.53655e-10
-5.85045e-10
3.21241e-08
-7.6013e-10
3.19854e-08
7.12943e-10
-1.4336e-10
3.32818e-08
-1.25641e-10
6.31476e-10
-4.501e-10
3.27873e-08
1.80842e-11
-6.18467e-10
3.23308e-08
-7.92251e-10
3.22423e-08
3.87831e-10
3.31163e-08
3.72966e-12
-7.06821e-11
3.50032e-10
3.2828e-08
-4.6738e-10
-2.4402e-10
3.24748e-08
-6.68298e-10
3.24705e-08
-6.82419e-10
3.90183e-10
-1.30072e-10
3.27958e-08
-3.19004e-10
3.10263e-10
-1.59065e-10
3.26272e-08
1.11294e-10
-1.937e-10
3.24905e-08
-2.76808e-10
3.24171e-08
3.53103e-10
-2.1494e-10
3.28705e-08
-2.30295e-10
2.78725e-10
-2.96106e-10
3.2686e-08
3.50858e-11
-3.52548e-10
3.25267e-08
-4.53517e-10
3.24654e-08
2.79054e-10
-9.63672e-11
3.29945e-08
-1.1003e-10
2.20892e-10
-2.63942e-10
3.28135e-08
-5.78381e-11
-3.83723e-10
3.26408e-08
-4.94549e-10
3.26024e-08
1.08383e-10
3.29659e-08
-5.04134e-11
-3.56958e-12
6.66078e-11
3.28614e-08
-2.55546e-10
-1.96157e-10
3.27365e-08
-3.82472e-10
3.27379e-08
-4.42785e-10
1.82874e-10
-4.39392e-11
3.28582e-08
-1.60454e-10
1.36351e-10
-7.59766e-11
3.27785e-08
2.52497e-11
-1.12611e-10
3.27108e-08
-1.66767e-10
3.26782e-08
1.46212e-10
-9.68594e-11
3.28867e-08
-1.09257e-10
9.90314e-11
-1.5114e-10
3.28088e-08
-2.73016e-11
-2.00361e-10
3.27412e-08
-2.61278e-10
3.27187e-08
9.36851e-11
-7.58709e-11
3.29323e-08
-5.23218e-11
4.86146e-11
-1.56905e-10
3.28645e-08
-8.69385e-11
-2.26109e-10
3.28024e-08
-2.90508e-10
3.27937e-08
1.11185e-11
3.2936e-08
-6.56202e-11
8.80706e-12
-3.02699e-11
3.28994e-08
-1.53354e-10
-1.59725e-10
3.28606e-08
-2.20655e-10
3.2872e-08
-2.65485e-10
7.33e-11
-9.87921e-12
3.29073e-08
-6.98525e-11
4.48097e-11
-3.33439e-11
3.28706e-08
-1.60698e-11
-6.09757e-11
3.28399e-08
-9.55259e-11
3.28278e-08
4.7294e-11
-4.53095e-11
3.29173e-08
-4.2276e-11
1.62409e-11
-7.80724e-11
3.2885e-08
-5.02508e-11
-1.11422e-10
3.28585e-08
-1.48216e-10
3.28536e-08
1.47549e-11
-5.0777e-11
3.29358e-08
-1.2513e-11
-1.75037e-11
-9.19909e-11
3.29111e-08
-8.68389e-11
-1.30782e-10
3.28914e-08
-1.67346e-10
3.28952e-08
-2.71166e-11
3.29438e-08
-5.22846e-11
2.09836e-11
-5.90706e-11
3.29333e-08
-9.35245e-11
-1.26028e-10
3.29255e-08
-1.28506e-10
3.29399e-08
-1.5567e-10
2.15785e-11
1.90465e-12
3.29431e-08
-2.50215e-11
3.19406e-12
-1.35771e-11
3.29272e-08
-3.05084e-11
-3.20683e-11
3.29148e-08
-5.36108e-11
3.29121e-08
4.82027e-12
-2.18691e-11
3.2946e-08
-9.55084e-12
-1.56027e-11
-4.12742e-11
3.29335e-08
-5.19557e-11
-6.20183e-11
3.29249e-08
-8.40121e-11
3.29271e-08
-1.46144e-11
-3.2208e-11
3.29541e-08
6.96099e-12
-3.65992e-11
-5.40661e-11
3.29464e-08
-7.39104e-11
-7.57218e-11
3.29427e-08
-9.64309e-11
3.29502e-08
-3.67462e-11
3.29606e-08
-3.70558e-11
2.51047e-11
-5.92277e-11
3.29598e-08
-5.75705e-11
-9.5451e-11
3.29623e-08
-7.60885e-11
3.29756e-08
-9.15721e-11
-8.2189e-13
4.62699e-12
3.29682e-08
-4.2252e-12
-1.27311e-11
-5.21554e-12
3.29619e-08
-3.19035e-11
-1.68914e-11
3.29581e-08
-3.0165e-11
3.29595e-08
-1.11131e-11
-1.09992e-11
3.29685e-08
4.56426e-12
-2.46009e-11
-2.24264e-11
3.29646e-08
-4.51476e-11
-3.49263e-11
3.29633e-08
-4.79803e-11
3.29677e-08
-2.26835e-11
-2.01148e-11
3.29722e-08
1.41183e-11
-3.72402e-11
-3.20532e-11
3.29712e-08
-5.81784e-11
-4.42179e-11
3.2973e-08
-5.59531e-11
3.29806e-08
-3.47058e-11
3.29766e-08
-2.50442e-11
2.40648e-11
-4.97686e-11
3.29791e-08
-3.56828e-11
-7.01649e-11
3.29843e-08
-4.56303e-11
3.29951e-08
-5.42106e-11
-9.00392e-12
4.13124e-12
3.29851e-08
4.42483e-12
-1.6765e-11
-1.97688e-12
3.29833e-08
-2.78569e-11
-9.27916e-12
3.29831e-08
-1.75189e-11
3.29859e-08
-1.53657e-11
-5.90563e-12
3.29847e-08
9.57745e-12
-2.41758e-11
-1.26194e-11
3.29843e-08
-3.60867e-11
-2.00824e-11
3.29858e-08
-2.78736e-11
3.29903e-08
-2.22114e-11
-1.26537e-11
3.29865e-08
1.51517e-11
-3.17174e-11
-1.92886e-11
3.29878e-08
-4.38518e-11
-2.61604e-11
3.29911e-08
-3.28374e-11
3.29976e-08
-2.88643e-11
3.29892e-08
-1.66459e-11
2.06585e-11
-3.87422e-11
3.29925e-08
-2.22875e-11
-5.05923e-11
3.29977e-08
-2.76498e-11
3.3006e-08
-3.23101e-11
-1.08466e-11
2.92076e-12
3.29964e-08
7.22526e-12
-1.5873e-11
-8.73512e-13
3.29965e-08
-2.23209e-11
-5.47201e-12
3.29976e-08
-1.06635e-11
3.30004e-08
-1.47867e-11
-3.43762e-12
3.29959e-08
1.03114e-11
-2.05273e-11
-7.38388e-12
3.29968e-08
-2.75077e-11
-1.18366e-11
3.2999e-08
-1.6538e-11
3.3003e-08
-1.88369e-11
-8.07517e-12
3.29967e-08
1.35742e-11
-2.50276e-11
-1.17979e-11
3.29987e-08
-3.21867e-11
-1.56862e-11
3.30021e-08
-1.94992e-11
3.30072e-08
-2.25638e-11
3.29983e-08
-1.09988e-11
1.66542e-11
-2.89929e-11
3.30015e-08
-1.40179e-11
-3.60074e-11
3.30059e-08
-1.68871e-11
3.30121e-08
-1.93657e-11
-1.00833e-11
1.81248e-12
3.30038e-08
7.37497e-12
-1.33557e-11
-5.13949e-13
3.30046e-08
-1.70662e-11
-3.39381e-12
3.3006e-08
-6.66799e-12
3.30084e-08
-1.25122e-11
-2.16644e-12
3.30034e-08
9.23097e-12
-1.62591e-11
-4.46299e-12
3.30047e-08
-2.0342e-11
-7.09273e-12
3.30069e-08
-9.92099e-12
3.30101e-08
-1.48872e-11
-5.22688e-12
3.30037e-08
1.11346e-11
-1.89207e-11
-7.29995e-12
3.30058e-08
-2.31564e-11
-9.47294e-12
3.30087e-08
-1.16337e-11
3.30126e-08
-1.69669e-11
3.30047e-08
-7.24852e-12
1.28598e-11
-2.11426e-11
3.30075e-08
-8.84677e-12
-2.53145e-11
3.3011e-08
-1.03392e-11
3.30156e-08
-1.16175e-11
-8.41386e-12
1.02955e-12
3.30087e-08
6.42651e-12
-1.05545e-11
-3.52697e-13
3.30097e-08
-1.2704e-11
-2.08092e-12
3.30111e-08
-4.04742e-12
3.30131e-08
-9.85738e-12
-1.43853e-12
3.30083e-08
7.51835e-12
-1.22989e-11
-2.73631e-12
3.30097e-08
-1.46818e-11
-4.23747e-12
3.30117e-08
-5.88262e-12
3.30142e-08
-1.12125e-11
-3.40527e-12
3.30085e-08
8.60713e-12
-1.38232e-11
-4.52358e-12
3.30103e-08
-1.63213e-11
-5.69747e-12
3.30128e-08
-6.88573e-12
3.30158e-08
-1.23427e-11
3.3009e-08
-4.75016e-12
9.55497e-12
-1.50339e-11
3.30113e-08
-5.56375e-12
-1.75101e-11
3.30142e-08
-6.29702e-12
3.30176e-08
-6.92161e-12
-6.50358e-12
5.41688e-13
3.30118e-08
5.08387e-12
-7.89024e-12
-2.35357e-13
3.30129e-08
-9.17283e-12
-1.20774e-12
3.30142e-08
-2.29925e-12
3.30159e-08
-7.31169e-12
-9.7519e-13
3.30116e-08
5.69272e-12
-8.86898e-12
-1.67382e-12
3.30129e-08
-1.02782e-11
-2.48432e-12
3.30146e-08
-3.38375e-12
3.30166e-08
-8.05138e-12
-2.20767e-12
3.30116e-08
6.28596e-12
-9.69677e-12
-2.77808e-12
3.30132e-08
-1.11775e-11
-3.37602e-12
3.30152e-08
-3.9913e-12
3.30176e-08
-8.6358e-12
3.30118e-08
-3.07101e-12
6.77521e-12
-1.0323e-11
3.30138e-08
-3.45119e-12
-1.17966e-11
3.30161e-08
-3.77869e-12
3.30187e-08
-4.05033e-12
-4.60994e-12
2.38902e-13
3.30138e-08
3.65381e-12
-5.4685e-12
-1.81912e-13
3.30149e-08
-6.25561e-12
-6.908e-13
3.30161e-08
-1.22998e-12
3.30176e-08
-5.03238e-12
-6.66953e-13
3.30136e-08
3.97361e-12
-5.97744e-12
-1.02384e-12
3.30148e-08
-6.8268e-12
-1.43046e-12
3.30163e-08
-1.88051e-12
3.3018e-08
-5.41793e-12
-1.40512e-12
3.30136e-08
4.27362e-12
-6.39629e-12
-1.67425e-12
3.3015e-08
-7.27778e-12
-1.95321e-12
3.30167e-08
-2.24151e-12
3.30186e-08
-5.69952e-12
3.30136e-08
-1.92987e-12
4.49762e-12
-6.69517e-12
3.30153e-08
-2.07825e-12
-7.56981e-12
3.30172e-08
-2.20333e-12
3.30193e-08
-2.29145e-12
-2.91155e-12
1.99064e-14
3.3015e-08
2.33764e-12
-3.40234e-12
-1.96429e-13
3.3016e-08
-3.85119e-12
-4.39714e-13
3.30172e-08
-7.01262e-13
3.30185e-08
-3.12621e-12
-4.72461e-13
3.30148e-08
2.50479e-12
-3.65007e-12
-6.46285e-13
3.30159e-08
-4.13642e-12
-8.34619e-13
3.30173e-08
-1.04156e-12
3.30188e-08
-3.31863e-12
-8.69459e-13
3.30147e-08
2.65278e-12
-3.84632e-12
-9.89595e-13
3.3016e-08
-4.34421e-12
-1.10748e-12
3.30175e-08
-1.22699e-12
3.30191e-08
-3.44749e-12
3.30147e-08
-1.1517e-12
2.75118e-12
-3.97641e-12
3.30162e-08
-1.19781e-12
-4.46598e-12
3.30179e-08
-1.238e-12
3.30196e-08
-1.24761e-12
-1.74632e-12
-2.0404e-13
1.44758e-12
-2.00825e-12
-3.12502e-13
-2.23875e-12
-4.40349e-13
-5.83671e-13
-1.86425e-12
-4.46403e-13
1.53904e-12
-2.14127e-12
-5.28869e-13
-2.3844e-12
-6.22493e-13
-7.25052e-13
-1.9579e-12
-6.37627e-13
1.6171e-12
-2.23994e-12
-6.87518e-13
-2.48712e-12
-7.3851e-13
-7.90584e-13
-2.01262e-12
-7.63163e-13
1.66183e-12
-2.29733e-12
-7.74506e-13
-2.54056e-12
-7.81029e-13
-7.73608e-13
4.53231e-09
1.35254e-09
1.72677e-08
2.04259e-09
-3.16564e-09
-3.05605e-09
4.54653e-08
1.08578e-09
4.34534e-09
2.55561e-08
-2.01376e-09
4.52493e-08
1.49658e-09
5.71188e-09
1.3408e-08
4.88857e-09
7.63329e-10
1.34081e-09
2.749e-08
-3.91271e-09
3.89435e-09
4.1313e-08
6.87605e-09
2.58979e-08
4.30737e-10
1.0851e-09
2.97037e-08
2.59051e-09
2.49523e-09
-3.21763e-09
3.75802e-08
-1.79303e-09
-5.36376e-10
4.9576e-08
3.9964e-09
4.91778e-08
-9.65877e-10
3.06578e-08
3.58016e-09
2.62333e-09
3.31735e-08
1.43819e-10
4.70915e-08
5.73902e-08
-3.03744e-10
5.41692e-10
1.40604e-08
1.33369e-09
-1.963e-09
-4.22501e-09
4.78923e-08
1.40451e-09
8.64607e-10
2.15204e-08
3.38465e-10
4.7207e-08
-5.00479e-10
-8.97339e-10
1.55781e-08
-2.30604e-10
9.0471e-10
2.37464e-09
1.94851e-08
1.12425e-09
8.46134e-10
4.1112e-08
-1.51567e-09
2.70413e-08
2.97229e-10
1.84158e-09
2.67372e-08
-6.96773e-11
3.1027e-10
-2.69927e-09
4.26411e-08
9.39931e-10
4.55816e-09
4.52343e-08
-3.41266e-09
4.72868e-08
-1.0191e-09
3.45353e-08
-6.61539e-10
2.68304e-09
2.71526e-08
-2.88442e-09
5.75183e-08
4.37335e-08
-6.10786e-09
-6.22213e-09
3.11551e-08
-3.83157e-09
6.68402e-09
7.21231e-09
2.08687e-08
-2.13974e-09
-4.75764e-09
4.0719e-08
3.61783e-09
4.37071e-08
2.96755e-10
-2.90527e-09
1.3564e-08
-1.59952e-09
-7.16271e-11
-2.88292e-09
2.99488e-08
4.07139e-09
7.35499e-10
3.14758e-08
9.87267e-09
2.65209e-08
7.28357e-11
-4.75289e-09
2.93894e-08
-8.77372e-10
1.74565e-09
4.46918e-09
3.36162e-08
8.50332e-09
-3.15761e-09
4.23698e-08
-4.10873e-09
7.44712e-08
2.5122e-09
2.9731e-08
-1.64195e-09
-6.62753e-10
3.48498e-08
7.36342e-09
4.75848e-08
4.94149e-08
2.2818e-09
-2.5908e-09
3.72286e-08
-4.62551e-09
-1.47027e-09
-1.32019e-10
2.85291e-08
-7.23895e-09
-1.06346e-09
4.70455e-08
3.36172e-09
2.16254e-08
1.44414e-09
-3.10117e-09
1.26234e-08
6.89396e-12
-1.08654e-09
-7.15229e-09
3.94997e-08
9.35732e-11
-7.70117e-10
3.00023e-08
4.4095e-09
2.32632e-08
7.05725e-10
2.46399e-09
2.17564e-08
1.36214e-09
1.36979e-09
-1.16613e-09
2.69659e-08
3.02297e-09
-3.54518e-09
4.34916e-08
4.18107e-09
7.27337e-08
1.5144e-10
3.04922e-08
1.63079e-09
3.39055e-10
3.36171e-08
4.81721e-09
3.97159e-08
6.24168e-08
-2.77749e-09
-2.87413e-09
4.95461e-08
-2.73762e-09
6.46991e-10
-1.79613e-09
2.61907e-08
-8.02641e-11
-4.35637e-10
4.79281e-08
-4.88e-10
1.72562e-08
-1.31004e-09
-4.44972e-09
1.86656e-08
-3.15661e-09
1.25352e-09
3.64067e-09
3.14994e-08
-2.64678e-10
-5.1534e-09
3.62383e-08
-1.11835e-08
3.1599e-08
2.02676e-09
-2.23168e-09
1.82406e-08
-7.28979e-10
-2.21954e-09
-4.60305e-09
3.9456e-08
-6.77138e-09
9.5127e-09
3.33774e-08
9.81354e-09
3.16622e-08
1.01591e-09
2.91279e-08
-1.9717e-09
2.98644e-09
2.71557e-08
-7.06726e-09
5.97103e-08
6.27602e-08
6.42493e-09
-5.21424e-11
2.46906e-08
5.58745e-09
-5.6908e-09
-2.4005e-09
3.9261e-08
5.86575e-09
-1.34244e-09
3.52913e-08
-2.00047e-09
2.23078e-08
9.91917e-10
2.41083e-09
1.47848e-08
4.25876e-10
-1.21984e-09
5.12551e-09
2.61851e-08
2.7792e-09
3.81175e-09
2.70851e-08
-1.56704e-09
3.23102e-08
2.17539e-09
-5.20935e-10
2.08787e-08
-1.88179e-09
-1.33958e-09
-3.06414e-09
5.11606e-08
-5.27093e-10
-1.40849e-08
5.04616e-08
-1.2969e-08
3.8919e-08
8.64045e-10
3.01197e-08
-2.34176e-09
-6.64203e-09
3.18603e-08
-5.01089e-09
4.43353e-08
3.67138e-08
5.0077e-10
1.0793e-09
2.09868e-08
7.48214e-10
1.11855e-09
1.52258e-09
3.46645e-08
1.44152e-09
1.02199e-10
3.31252e-08
-1.22153e-09
2.71449e-08
-3.65154e-10
-1.06224e-09
1.80259e-08
-7.34385e-10
-8.55642e-11
-2.46492e-09
2.98927e-08
-4.94808e-10
-2.29895e-09
2.9895e-08
-5.67544e-09
3.56431e-08
-1.389e-09
-1.31216e-09
2.23749e-08
1.42676e-10
2.78202e-10
1.01745e-09
4.60107e-08
2.60406e-09
-2.08788e-09
4.79242e-08
-6.01731e-09
4.04297e-08
-2.629e-10
2.90873e-08
1.07808e-10
-3.58144e-09
3.7905e-08
-2.47473e-09
4.34841e-08
2.84013e-08
-1.56269e-09
2.69224e-09
2.14282e-08
5.31745e-10
-1.488e-10
1.90607e-09
3.13256e-08
-9.91006e-10
2.06048e-09
3.23361e-08
1.31592e-09
2.96177e-08
-1.31108e-09
5.23996e-10
2.14879e-08
1.63788e-11
-5.57029e-10
-1.06071e-09
3.21044e-08
-1.93149e-09
1.34538e-10
3.31955e-08
1.6233e-09
3.51976e-08
-2.45797e-09
9.81774e-11
2.42999e-08
9.57964e-10
-1.73475e-10
2.54723e-09
4.01182e-08
-2.27281e-10
2.95496e-09
4.51579e-08
2.3786e-09
4.22529e-08
-1.05538e-09
2.92952e-08
9.46003e-10
-4.58489e-11
3.94436e-08
-9.00941e-10
4.72948e-08
3.25228e-08
1.82086e-10
2.53322e-09
1.97923e-08
-9.79203e-11
1.33797e-09
1.39521e-10
2.8142e-08
4.14399e-10
-7.80701e-10
3.16695e-08
-4.16321e-10
3.27021e-08
5.55653e-11
1.66573e-09
2.27983e-08
-4.9867e-10
7.38724e-10
-2.24466e-10
3.17849e-08
-1.93388e-10
-2.20074e-09
3.55483e-08
5.34593e-10
3.73921e-08
-1.01573e-09
6.81801e-10
2.63366e-08
-3.73216e-11
8.0823e-11
1.57584e-09
3.72214e-08
2.70715e-10
1.21309e-10
4.26465e-08
4.14312e-09
4.2633e-08
-4.35424e-10
3.03099e-08
1.02421e-10
4.66193e-10
4.01182e-08
1.6732e-09
4.62099e-08
4.20143e-08
-3.88349e-10
9.03323e-10
2.00839e-08
-1.62909e-11
-6.50379e-11
-3.38736e-10
2.73996e-08
-4.81767e-10
-8.98019e-10
3.17116e-08
-7.44981e-10
3.38644e-08
-6.69128e-10
6.313e-10
2.382e-08
-8.00616e-11
-3.38284e-10
-4.53747e-10
3.15693e-08
-5.91293e-10
-1.31875e-09
3.6222e-08
-1.66038e-10
3.84219e-08
-1.02796e-09
3.54985e-10
2.75809e-08
6.01859e-11
-5.62614e-10
2.63853e-10
3.60387e-08
-3.94552e-10
-2.42213e-10
4.14017e-08
1.36081e-09
4.30536e-08
-8.78851e-10
3.14244e-08
1.19287e-10
-3.82574e-10
3.98857e-08
6.14262e-11
4.55235e-08
4.57409e-08
8.95111e-12
2.43377e-10
1.98318e-08
4.22572e-12
4.83771e-11
-1.95511e-10
2.70888e-08
-3.16016e-10
-4.57285e-10
3.18652e-08
-4.01315e-10
3.43357e-08
-9.61382e-11
3.14662e-10
2.3843e-08
2.58223e-12
-4.98447e-11
-7.10552e-11
3.1399e-08
-3.2267e-10
-4.09609e-10
3.64475e-08
-2.39537e-11
3.89641e-08
-2.24537e-10
2.50988e-10
2.78301e-08
3.95381e-11
-1.3853e-10
1.55825e-10
3.57263e-08
-2.51612e-10
-3.75705e-11
4.11431e-08
5.42367e-10
4.3541e-08
-2.09241e-10
3.18237e-08
6.11705e-11
-6.02341e-11
3.98928e-08
-9.17087e-11
4.55177e-08
4.74999e-08
-7.45497e-11
2.58753e-11
1.98035e-08
2.69627e-11
-1.01937e-10
-1.65708e-10
2.70265e-08
-2.91368e-10
-2.94045e-10
3.19663e-08
-3.06581e-10
3.45282e-08
-1.22419e-10
7.54068e-11
2.38872e-08
2.89774e-11
-1.416e-10
-8.4266e-11
3.13369e-08
-2.94681e-10
-2.07128e-10
3.65139e-08
-1.1137e-10
3.9183e-08
-1.61865e-10
7.62615e-11
2.79533e-08
3.79981e-11
-1.66803e-10
1.22626e-11
3.56349e-08
-2.59719e-10
-4.0173e-11
4.10694e-08
1.32674e-10
4.37827e-08
-1.62463e-10
3.20175e-08
4.49149e-11
-1.4411e-10
3.98869e-08
-1.93165e-10
4.55268e-08
4.81904e-08
-6.98547e-11
-2.37116e-11
1.97988e-08
3.29661e-11
-1.14329e-10
-1.07816e-10
2.70256e-08
-2.22585e-10
-1.72536e-10
3.20265e-08
-2.00914e-10
3.46159e-08
-8.75994e-11
1.06713e-11
2.3907e-08
3.36732e-11
-1.30289e-10
-5.75293e-11
3.13294e-08
-2.28332e-10
-1.11168e-10
3.65507e-08
-9.94968e-11
3.92705e-08
-1.00766e-10
2.22623e-11
2.8007e-08
3.55886e-11
-1.37788e-10
-9.82771e-12
3.56245e-08
-2.14913e-10
-3.22556e-11
4.10679e-08
1.02202e-11
4.38938e-08
-1.02627e-10
3.21053e-08
3.72227e-11
-1.30883e-10
3.99056e-08
-1.89639e-10
4.55536e-08
4.84521e-08
-6.11301e-11
-2.87034e-11
1.98057e-08
3.10981e-11
-9.95747e-11
-6.75081e-11
2.70384e-08
-1.62212e-10
-1.01234e-10
3.20621e-08
-1.24499e-10
3.46569e-08
-6.68214e-11
-7.78649e-12
2.39227e-08
3.05395e-11
-1.05492e-10
-3.79428e-11
3.13389e-08
-1.66747e-10
-6.40501e-11
3.6575e-08
-7.18364e-11
3.93053e-08
-7.04746e-11
3.26591e-12
2.80364e-08
3.03584e-11
-1.06826e-10
-1.17209e-11
3.5635e-08
-1.61606e-10
-2.33385e-11
4.10822e-08
-1.53977e-11
4.39383e-08
-7.11022e-11
3.21493e-08
3.06479e-11
-1.03836e-10
3.99268e-08
-1.52093e-10
4.55787e-08
4.8549e-08
-4.93665e-11
-2.27818e-11
1.98151e-08
2.60702e-11
-7.83422e-11
-4.21584e-11
2.70524e-08
-1.15464e-10
-6.0661e-11
3.2084e-08
-7.64829e-11
3.46771e-08
-5.08353e-11
-9.92068e-12
2.3936e-08
2.51792e-11
-8.04625e-11
-2.47991e-11
3.13515e-08
-1.18238e-10
-3.90355e-11
3.65914e-08
-4.89095e-11
3.93194e-08
-5.13572e-11
-1.73333e-12
2.80555e-08
2.45022e-11
-7.99967e-11
-9.46996e-12
3.56489e-08
-1.15916e-10
-1.63727e-11
4.10958e-08
-1.82547e-11
4.39547e-08
-5.12817e-11
3.21748e-08
2.43849e-11
-7.83803e-11
3.99447e-08
-1.12066e-10
4.55962e-08
4.85816e-08
-3.78546e-11
-1.58515e-11
1.98237e-08
2.0504e-11
-5.84658e-11
-2.61866e-11
2.70639e-08
-8.10294e-11
-3.67508e-11
3.20979e-08
-4.67843e-11
3.46876e-08
-3.79396e-11
-7.74698e-12
2.39466e-08
1.96919e-11
-5.91271e-11
-1.5793e-11
3.13628e-08
-8.24729e-11
-2.42316e-11
3.66025e-08
-3.20553e-11
3.93252e-08
-3.75393e-11
-2.18423e-12
2.80691e-08
1.90125e-11
-5.82936e-11
-6.50547e-12
3.56609e-08
-8.11351e-11
-1.09987e-11
4.11057e-08
-1.45389e-11
4.39597e-08
-3.72276e-11
3.21914e-08
1.88108e-11
-5.72758e-11
3.99585e-08
-7.92591e-11
4.56073e-08
4.85907e-08
-2.80995e-11
-1.04571e-11
1.98305e-08
1.55474e-11
-4.23652e-11
-1.61859e-11
2.70725e-08
-5.63873e-11
-2.23404e-11
3.21068e-08
-2.84762e-11
3.46933e-08
-2.77693e-11
-5.21195e-12
2.39547e-08
1.49111e-11
-4.24342e-11
-9.80857e-12
3.13714e-08
-5.69827e-11
-1.49765e-11
3.66099e-08
-2.03581e-11
3.93277e-08
-2.71721e-11
-1.58512e-12
2.80788e-08
1.43541e-11
-4.16144e-11
-4.11668e-12
3.56701e-08
-5.6008e-11
-7.06763e-12
4.11125e-08
-1.00451e-11
4.39608e-08
-2.68266e-11
3.22029e-08
1.41639e-11
-4.08979e-11
3.99686e-08
-5.48909e-11
4.56144e-08
4.85922e-08
-2.04398e-11
-6.74377e-12
1.98355e-08
1.15175e-11
-3.01875e-11
-9.98218e-12
2.70785e-08
-3.90268e-11
-1.35891e-11
3.21125e-08
-1.72623e-11
3.46965e-08
-2.00282e-11
-3.29065e-12
2.39606e-08
1.10413e-11
-3.00173e-11
-5.99434e-12
3.13777e-08
-3.91514e-11
-9.17784e-12
3.66149e-08
-1.2656e-11
3.93288e-08
-1.94599e-11
-9.69872e-13
2.80858e-08
1.06133e-11
-2.93039e-11
-2.49902e-12
3.56768e-08
-3.83653e-11
-4.4099e-12
4.11171e-08
-6.50434e-12
4.39606e-08
-1.91495e-11
3.22109e-08
1.04567e-11
-2.87635e-11
3.99759e-08
-3.75989e-11
4.56189e-08
4.85915e-08
-1.46181e-11
-4.30384e-12
1.98389e-08
8.37405e-12
-2.12219e-11
-6.13953e-12
2.70826e-08
-2.68289e-11
-8.23931e-12
3.21161e-08
-1.04114e-11
3.46982e-08
-1.42376e-11
-2.0099e-12
2.39648e-08
8.0245e-12
-2.09702e-11
-3.61828e-12
3.1382e-08
-2.67344e-11
-5.56829e-12
3.66181e-08
-7.75017e-12
3.93293e-08
-1.37621e-11
-5.40641e-13
2.80906e-08
7.70446e-12
-2.03838e-11
-1.48213e-12
3.56814e-08
-2.61006e-11
-2.70049e-12
4.112e-08
-4.07408e-12
4.39601e-08
-1.35073e-11
3.22165e-08
7.58357e-12
-1.99696e-11
3.99809e-08
-2.55439e-11
4.56218e-08
4.85904e-08
-1.0245e-11
-2.71938e-12
1.98413e-08
5.95679e-12
-1.46614e-11
-3.74879e-12
2.70853e-08
-1.82186e-11
-4.95275e-12
3.21183e-08
-6.22437e-12
3.46992e-08
-9.93156e-12
-1.19641e-12
2.39676e-08
5.70728e-12
-1.44084e-11
-2.15426e-12
3.13849e-08
-1.80497e-11
-3.33635e-12
3.66201e-08
-4.6821e-12
3.93294e-08
-9.56228e-12
-2.79498e-13
2.80939e-08
5.47567e-12
-1.39507e-11
-8.63185e-13
3.56846e-08
-1.75593e-11
-1.63107e-12
4.11219e-08
-2.50381e-12
4.39596e-08
-9.3662e-12
3.22203e-08
5.38863e-12
-1.36418e-11
3.99843e-08
-1.71573e-11
4.56237e-08
4.85895e-08
-6.9638e-12
-1.68644e-12
1.98429e-08
4.09815e-12
-9.83953e-12
-2.25046e-12
2.70871e-08
-1.20802e-11
-2.92579e-12
3.21197e-08
-3.65179e-12
3.46996e-08
-6.72496e-12
-6.90492e-13
2.39695e-08
3.93173e-12
-9.62533e-12
-1.25305e-12
3.13868e-08
-1.19062e-11
-1.95791e-12
3.66214e-08
-2.77105e-12
3.93294e-08
-6.45553e-12
-1.30178e-13
2.80961e-08
3.77295e-12
-9.28981e-12
-4.81929e-13
3.56867e-08
-1.15472e-11
-9.60811e-13
4.11231e-08
-1.50683e-12
4.39592e-08
-6.31357e-12
3.22229e-08
3.71528e-12
-9.07446e-12
3.99866e-08
-1.12719e-11
4.56249e-08
4.85888e-08
-4.49535e-12
-1.01327e-12
1.98439e-08
2.67255e-12
-6.27086e-12
-1.30877e-12
2.70882e-08
-7.64246e-12
-1.67331e-12
3.21206e-08
-2.06437e-12
3.46999e-08
-4.32624e-12
-3.82676e-13
2.39707e-08
2.57277e-12
-6.11105e-12
-6.98794e-13
3.1388e-08
-7.49372e-12
-1.10698e-12
3.66222e-08
-1.57873e-12
3.93294e-08
-4.14195e-12
-4.6136e-14
2.80976e-08
2.47032e-12
-5.8844e-12
-2.41923e-13
3.5688e-08
-7.24971e-12
-5.35968e-13
4.11239e-08
-8.73735e-13
4.39589e-08
-4.04512e-12
3.22245e-08
2.43268e-12
-5.75044e-12
3.99881e-08
-7.07855e-12
4.56256e-08
4.85883e-08
-2.6878e-12
-5.97871e-13
1.98445e-08
1.62141e-12
-3.68763e-12
-7.43115e-13
2.70889e-08
-4.46019e-12
-9.2729e-13
3.21211e-08
-1.11852e-12
3.47e-08
-2.57986e-12
-2.18618e-13
2.39714e-08
1.56463e-12
-3.58291e-12
-3.83564e-13
3.13888e-08
-4.35139e-12
-6.08752e-13
3.66226e-08
-8.63427e-13
3.93293e-08
-2.4617e-12
-1.15635e-14
2.80985e-08
1.49926e-12
-3.44465e-12
-1.1053e-13
3.56888e-08
-4.20103e-12
-2.90423e-13
4.11243e-08
-4.90724e-13
4.39587e-08
-2.39764e-12
3.22255e-08
1.46777e-12
-3.37005e-12
3.99889e-08
-4.10625e-12
4.5626e-08
4.8588e-08
-1.59109e-12
-4.271e-13
1.00849e-12
-2.13806e-12
-4.97062e-13
-2.53647e-12
-5.91065e-13
-6.88308e-13
-1.52353e-12
-1.7688e-13
9.65546e-13
-2.07084e-12
-2.69016e-13
-2.46787e-12
-3.94244e-13
-5.31785e-13
-1.44707e-12
-2.423e-14
9.17135e-13
-1.98666e-12
-8.7607e-14
-2.37969e-12
-1.93872e-13
-3.0775e-13
-1.39732e-12
8.82179e-13
-1.9354e-12
-2.32411e-12
3.44225e-09
2.54602e-10
4.19904e-08
-2.20359e-09
-1.45923e-09
5.59187e-08
-1.54073e-08
-1.64217e-10
6.24588e-08
1.74941e-10
2.10536e-08
-1.03737e-09
3.57539e-09
4.36219e-08
-1.13369e-10
3.88875e-09
3.4668e-08
-1.16136e-08
-1.97154e-09
4.96356e-08
2.29035e-09
2.11243e-08
-4.01999e-09
-6.04163e-10
4.82873e-08
-1.34492e-08
-3.82297e-09
5.29196e-08
-1.02933e-08
-1.73514e-09
2.73967e-08
-1.73105e-09
2.67168e-08
-1.09922e-08
4.61342e-08
-2.36687e-09
1.8012e-08
-1.16461e-08
3.64584e-08
1.53662e-08
-6.13734e-09
-2.11525e-09
5.44819e-08
-2.34038e-09
1.50455e-10
4.95179e-08
-2.07731e-09
-1.25741e-09
5.91521e-08
-1.49527e-10
2.18872e-08
2.96079e-10
-6.12766e-10
4.193e-08
-6.28376e-09
-3.04365e-09
4.44419e-08
-2.28076e-09
-2.18011e-09
4.65554e-08
-8.2266e-10
2.13179e-08
-6.85292e-09
-3.89433e-09
5.76021e-08
-4.24171e-09
-1.18718e-09
4.8452e-08
-3.92318e-10
6.39304e-10
2.07278e-08
2.40666e-09
2.55441e-08
5.00625e-10
4.1611e-08
2.83463e-10
1.69723e-08
6.0748e-09
3.10757e-08
2.54052e-08
1.8734e-09
-2.45316e-09
6.28671e-08
-1.10535e-08
-6.86365e-09
7.71042e-08
2.40445e-09
-2.60895e-09
4.6276e-08
-1.12835e-09
2.41117e-08
-6.21462e-09
-9.14064e-09
5.48271e-08
-4.59306e-09
-4.41012e-09
4.03668e-08
3.35838e-09
2.04214e-09
3.39529e-08
1.15218e-09
1.87174e-08
6.34616e-09
5.51086e-10
4.18273e-08
8.22443e-09
2.20709e-09
3.99565e-08
2.85578e-09
-3.30817e-10
2.84694e-08
4.75075e-11
2.84038e-08
5.75165e-09
3.54659e-08
-7.62016e-11
2.41299e-08
6.89321e-09
2.21759e-08
2.20048e-08
-1.97794e-09
-3.63568e-09
6.05091e-08
7.18205e-10
-1.23938e-09
7.8818e-08
2.21763e-09
2.03464e-09
4.4186e-08
1.19745e-09
2.48084e-08
1.98987e-09
-1.20179e-10
4.98389e-08
3.97023e-09
6.51793e-10
3.64953e-08
2.00845e-09
6.03401e-11
3.7889e-08
2.84837e-10
1.92784e-08
3.68288e-09
5.13091e-09
3.26058e-08
4.80169e-09
2.17125e-09
3.73183e-08
4.31823e-09
2.15457e-09
2.68587e-08
-1.41641e-09
2.65042e-08
-7.26618e-09
4.91017e-08
2.37581e-09
1.80213e-08
-3.02041e-09
2.97336e-08
8.92705e-09
-2.09827e-09
1.73626e-09
4.99343e-08
1.02894e-08
4.97561e-09
5.27533e-08
6.10922e-09
1.59266e-09
4.40682e-08
3.62836e-10
2.70237e-08
6.29081e-09
3.87847e-09
4.19103e-08
5.2792e-09
2.96741e-09
3.95151e-08
4.90516e-09
4.82918e-10