/*--------------------------------*- C++ -*----------------------------------*\
| =========                 |                                                 |
| \\      /  F ield         | OpenFOAM: The Open Source CFD Toolbox           |
|  \\    /   O peration     | Version:  2506                                  |
|   \\  /    A nd           | Website:  www.openfoam.com                      |
|    \\/     M anipulation  |                                                 |
\*---------------------------------------------------------------------------*/
FoamFile
{
    version     2.0;
    format      ascii;
    arch        "LSB;label=32;scalar=64";
    class       volVectorField;
    location    "0.05";
    object      Us;
}
// * * * * * * * * * * * * * * * * * * * * * * * * * * * * * * * * * * * * * //

dimensions      [0 1 -1 0 0 0 0];

internalField   nonuniform List<vector> 
1152
(
(7.30552e-05 0.000174254 8.64644e-05)
(0.000123822 0.000182231 0.000184765)
(0.000195667 -7.63894e-05 0.000132495)
(3.97982e-05 0.000162597 9.88613e-06)
(4.4789e-05 0.000253986 2.8306e-05)
(0.000150893 0.000372168 -5.98053e-05)
(-5.66876e-05 0.000247407 -4.30427e-06)
(-5.46165e-05 -2.48305e-05 5.68601e-05)
(-3.96704e-05 0.000472619 0.000125043)
(-0.00036667 0.00056313 0.000111839)
(4.19491e-05 0.000261313 0.000136014)
(0.000197943 0.000326762 -0.000358333)
(-0.000267768 3.01135e-05 0.00023126)
(-0.000269756 0.000138685 0.000125727)
(4.63293e-05 0.000218213 0.000219002)
(0.000332899 0.000753735 6.92167e-05)
(1.43111e-05 7.7383e-05 0.000483512)
(-0.000120494 0.000311014 0.000350538)
(-0.000211806 0.000203036 0.00122595)
(0.000243163 -0.000142306 0.000293725)
(-0.000100481 0.00021765 0.00076378)
(0.000146905 -9.7188e-05 0.000996197)
(0.000321512 -6.48397e-05 0.000848173)
(0.00044039 0.000403606 0.000606462)
(-2.59708e-05 0.000214704 0.000653966)
(-8.06923e-05 0.000180478 0.000754431)
(0.000258094 -4.20156e-05 0.000186327)
(0.000401638 0.000133568 0.000164812)
(0.000213697 0.000335362 0.000687188)
(0.000328235 -0.00010143 0.000382567)
(0.000640824 0.000342175 0.000888681)
(0.000438288 5.97585e-05 0.000207635)
(0.000141609 -0.000109123 0.000676909)
(0.000133549 -0.000361139 0.000659254)
(-6.82694e-05 5.8253e-05 0.0013285)
(3.93277e-05 0.000455274 0.000901068)
(0.000335797 6.01583e-05 0.000976928)
(0.000268404 0.000177346 0.000779117)
(0.000395065 0.000136786 0.000697472)
(0.000383769 0.00024035 0.000844619)
(3.26241e-05 0.0002166 0.000648908)
(0.000328739 0.000272819 0.000683869)
(0.000574398 0.000177593 0.000670247)
(0.000400742 7.14257e-05 0.000655983)
(0.000112072 0.000285907 0.000759544)
(0.000143175 8.84948e-05 0.000662731)
(0.000390089 -9.3356e-05 0.000859954)
(0.000497452 0.000133803 0.000571472)
(0.000275975 1.20373e-05 0.000992151)
(0.000268829 -1.83064e-05 0.000843214)
(0.000152898 0.000186231 0.000885766)
(-0.000211304 0.000838061 0.00164354)
(0.000181368 0.000109296 0.000943007)
(-3.10136e-05 4.60166e-05 0.00112801)
(2.09369e-05 0.000119311 0.00101026)
(0.000210405 9.22306e-05 0.00127182)
(0.000258369 -0.000215748 0.00104526)
(9.98027e-05 -0.000414407 0.00182713)
(0.000381214 -0.000295463 0.000891146)
(0.000362176 -0.000172215 0.000984712)
(0.000334002 -0.000343039 0.00171726)
(-0.000230879 -0.000141832 0.00116494)
(0.0001336 -0.000208508 0.00119918)
(0.000533454 -0.00022404 0.000679759)
(-1.98589e-05 3.74792e-05 0.0009885)
(-1.2366e-05 -7.93052e-05 0.000902103)
(7.78217e-05 -3.60425e-05 0.00108245)
(3.50533e-05 0.00018426 0.0012289)
(1.6091e-05 0.000170177 0.00111181)
(0.000115508 3.70511e-05 0.00111541)
(6.81228e-05 -3.86048e-05 0.00112899)
(0.000238838 0.000216948 0.00160736)
(-7.45973e-05 0.000121525 0.00160071)
(7.37555e-05 6.68431e-06 0.00111998)
(3.26498e-05 -0.000210256 0.000963535)
(0.000203407 -3.9162e-05 0.00104531)
(0.000283856 5.65181e-06 0.00154546)
(0.00034014 -0.00010126 0.000972446)
(0.000340661 -0.000307649 0.000925042)
(0.000876038 -0.000385864 0.0021585)
(0.000152101 -0.000217057 0.000688979)
(-5.89841e-06 -0.000187974 0.000819606)
(2.4441e-05 -0.000114102 0.000996547)
(2.82101e-05 -4.41906e-05 0.00112997)
(0.000176914 -0.000244056 0.000955668)
(0.000199271 -0.000185854 0.000857552)
(7.30984e-05 -0.000152608 0.00096351)
(7.12564e-05 2.8921e-05 0.00123295)
(0.000172707 -0.00029689 0.0010582)
(0.000177925 -9.12416e-05 0.00107085)
(0.000203286 -0.000238095 0.00103415)
(0.000192788 -0.000147898 0.00125693)
(0.000231629 -0.000239913 0.000902538)
(0.000230576 -0.00030837 0.000857797)
(0.000155263 -0.000275849 0.00089339)
(3.7995e-05 -0.000179546 0.00109658)
(-6.08896e-05 -9.73179e-05 0.00066169)
(-0.000111261 -0.00032865 0.00103558)
(-8.81146e-05 -0.000257092 0.000985058)
(-8.45485e-05 -9.20537e-05 0.00116336)
(-7.86362e-05 -0.00120524 0.00141095)
(0.000244774 -0.000110305 0.000889079)
(-3.52623e-05 -0.000207948 0.000995841)
(-5.07797e-05 -0.000127325 0.00113558)
(0.000328277 -0.000424643 0.000914742)
(7.87772e-05 -0.000255969 0.0010145)
(-8.38027e-05 -0.00019701 0.000999854)
(-6.45739e-05 -0.000144113 0.00114907)
(0.000115675 -0.000215657 0.000819383)
(0.000515538 -0.000269697 0.00074571)
(4.71795e-05 -0.000197356 0.00091654)
(-4.85441e-05 -0.000122133 0.00104129)
(0 0 0)
(0 0 0)
(0 0 0)
(0 0 0)
(0 0 0)
(0 0 0)
(0 0 0)
(0 0 0)
(0 0 0)
(0 0 0)
(0 0 0)
(0 0 0)
(0 0 0)
(0 0 0)
(0 0 0)
(0 0 0)
(0 0 0)
(0 0 0)
(0 0 0)
(0 0 0)
(0 0 0)
(0 0 0)
(0 0 0)
(0 0 0)
(0 0 0)
(0 0 0)
(0 0 0)
(0 0 0)
(0 0 0)
(0 0 0)
(0 0 0)
(0 0 0)
(0 0 0)
(0 0 0)
(0 0 0)
(0 0 0)
(0 0 0)
(0 0 0)
(0 0 0)
(0 0 0)
(0 0 0)
(0 0 0)
(0 0 0)
(0 0 0)
(0 0 0)
(0 0 0)
(0 0 0)
(0 0 0)
(0 0 0)
(0 0 0)
(0 0 0)
(0 0 0)
(0 0 0)
(0 0 0)
(0 0 0)
(0 0 0)
(0 0 0)
(0 0 0)
(0 0 0)
(0 0 0)
(0 0 0)
(0 0 0)
(0 0 0)
(0 0 0)
(0 0 0)
(0 0 0)
(0 0 0)
(0 0 0)
(0 0 0)
(0 0 0)
(0 0 0)
(0 0 0)
(0 0 0)
(0 0 0)
(0 0 0)
(0 0 0)
(0 0 0)
(0 0 0)
(0 0 0)
(0 0 0)
(0 0 0)
(0 0 0)
(0 0 0)
(0 0 0)
(0 0 0)
(0 0 0)
(0 0 0)
(0 0 0)
(0 0 0)
(0 0 0)
(0 0 0)
(0 0 0)
(0 0 0)
(0 0 0)
(0 0 0)
(0 0 0)
(0 0 0)
(0 0 0)
(0 0 0)
(0 0 0)
(0 0 0)
(0 0 0)
(0 0 0)
(0 0 0)
(0 0 0)
(0 0 0)
(0 0 0)
(0 0 0)
(0 0 0)
(0 0 0)
(0 0 0)
(0 0 0)
(0 0 0)
(0 0 0)
(0 0 0)
(0 0 0)
(0 0 0)
(0 0 0)
(0 0 0)
(0 0 0)
(0 0 0)
(0 0 0)
(0 0 0)
(0 0 0)
(0 0 0)
(0 0 0)
(0 0 0)
(0 0 0)
(0 0 0)
(0 0 0)
(0 0 0)
(0 0 0)
(0 0 0)
(0 0 0)
(0 0 0)
(0 0 0)
(0 0 0)
(0 0 0)
(0 0 0)
(0 0 0)
(0 0 0)
(0 0 0)
(0 0 0)
(0 0 0)
(0 0 0)
(0 0 0)
(0 0 0)
(0 0 0)
(0 0 0)
(0 0 0)
(0 0 0)
(0 0 0)
(0 0 0)
(0 0 0)
(0 0 0)
(0 0 0)
(0 0 0)
(0 0 0)
(0 0 0)
(0 0 0)
(0 0 0)
(0 0 0)
(0 0 0)
(0 0 0)
(0 0 0)
(0 0 0)
(0 0 0)
(0 0 0)
(0 0 0)
(0 0 0)
(0 0 0)
(0 0 0)
(0 0 0)
(0 0 0)
(0 0 0)
(0 0 0)
(0 0 0)
(0 0 0)
(0 0 0)
(0 0 0)
(0 0 0)
(0 0 0)
(0 0 0)
(0 0 0)
(0 0 0)
(0 0 0)
(0 0 0)
(0 0 0)
(0 0 0)
(0 0 0)
(0 0 0)
(0 0 0)
(0 0 0)
(0 0 0)
(0 0 0)
(0 0 0)
(0 0 0)
(0 0 0)
(0 0 0)
(0 0 0)
(0 0 0)
(0 0 0)
(0 0 0)
(0 0 0)
(0 0 0)
(0 0 0)
(0 0 0)
(0 0 0)
(0 0 0)
(0 0 0)
(0 0 0)
(0 0 0)
(0 0 0)
(0 0 0)
(0 0 0)
(0 0 0)
(0 0 0)
(0 0 0)
(0 0 0)
(0 0 0)
(0 0 0)
(0 0 0)
(0 0 0)
(0 0 0)
(0 0 0)
(0 0 0)
(0 0 0)
(0 0 0)
(0 0 0)
(0 0 0)
(0 0 0)
(0 0 0)
(0 0 0)
(0 0 0)
(0 0 0)
(0 0 0)
(0 0 0)
(0 0 0)
(0 0 0)
(0 0 0)
(0 0 0)
(0 0 0)
(0 0 0)
(0 0 0)
(0 0 0)
(0 0 0)
(0 0 0)
(0 0 0)
(0 0 0)
(0 0 0)
(0 0 0)
(0 0 0)
(0 0 0)
(0 0 0)
(0 0 0)
(0 0 0)
(0 0 0)
(0 0 0)
(0 0 0)
(0 0 0)
(0 0 0)
(0 0 0)
(0 0 0)
(0 0 0)
(0 0 0)
(0 0 0)
(0 0 0)
(0 0 0)
(0 0 0)
(0 0 0)
(0 0 0)
(0 0 0)
(7.01357e-05 0.000174728 0.000236161)
(-4.42775e-05 0.000342619 0.000521576)
(6.29699e-05 -0.000113478 -2.56717e-05)
(0.000167738 0.000353388 -7.33078e-05)
(6.45436e-05 7.44997e-05 0.000183294)
(0.000223008 -1.47401e-05 1.29908e-05)
(0.000104536 -0.000109525 -3.74537e-05)
(-0.000200552 0.000152847 4.94399e-05)
(0.000166319 0.000116644 9.95116e-05)
(0.000834401 0.000344686 -9.50547e-05)
(8.44251e-05 -0.000283046 2.52743e-05)
(-6.07817e-05 -0.000128353 0.000182901)
(0.000240008 0.000176571 6.9155e-05)
(0.000134288 -1.90457e-05 3.19754e-05)
(0.000275805 4.70663e-05 -4.3884e-05)
(-0.000227272 6.46908e-05 0.000102581)
(0.000115088 0.000242752 0.000934952)
(0.000104298 0.000319731 0.00140899)
(0.000306317 5.71675e-05 0.000427041)
(0.000473128 0.000303818 0.000245978)
(0.000237024 -1.47026e-05 0.00063649)
(0.0001474 0.000341699 0.000748187)
(5.25412e-05 0.000129991 0.000505355)
(2.2355e-05 -0.000241046 0.000820628)
(0.000367166 3.38878e-05 0.000275836)
(0.000178019 0.000186588 0.000541256)
(0.000272004 7.18476e-05 0.000287506)
(0.000502415 -0.000321629 0.00146092)
(0.000296415 7.08309e-05 0.000558866)
(0.000466677 5.80617e-05 7.79797e-05)
(0.000183213 -6.3627e-05 0.000619066)
(-3.56836e-05 0.000140542 0.000582473)
(0.000179525 0.000107556 0.00117336)
(0.000122751 0.000160916 0.000667117)
(0.000176147 -6.20551e-05 0.00083459)
(-7.38045e-05 -0.000222477 0.000862424)
(0.000109818 0.000319556 0.00105719)
(6.98234e-05 0.000139133 0.000784757)
(0.000247919 -8.35917e-06 0.000936401)
(5.13655e-05 0.000348023 0.00126431)
(0.000234911 4.78742e-05 0.00109148)
(0.000107045 -0.00013585 0.000835077)
(0.000316846 -0.000170829 0.000537242)
(0.00025671 -0.000191362 0.00111116)
(0.00061689 9.1114e-05 0.00123097)
(0.000166726 6.40955e-05 0.000816087)
(0.000623509 -0.000293699 0.00153706)
(0.000704869 -3.68488e-05 0.00150583)
(0.000776027 0.000334803 0.00105044)
(0.000343431 -0.000572952 0.00127161)
(0.00028193 -0.00036697 0.00158741)
(0.000292722 -0.000301135 0.000810875)
(-3.56515e-05 0.000233927 0.000953148)
(0.000794727 -0.000647394 0.00123043)
(0.000326779 -0.00015841 0.000933695)
(0.000394002 -0.000129846 0.000995437)
(-0.000203658 -8.62675e-05 0.00145923)
(0.000421162 -0.000315279 0.00133369)
(0.000337022 -0.000148226 0.0008138)
(0.000689426 -0.000239282 0.00180535)
(1.53058e-05 -2.99685e-05 0.000708157)
(0.000204675 5.56158e-05 0.000890373)
(0.000247943 7.41425e-06 0.000866007)
(0.000952544 -0.000364896 0.00134518)
(0.000288441 6.36149e-05 0.0011922)
(0.000389918 -0.000200663 0.000994286)
(0.000329034 -0.00028655 0.000977458)
(0.000325104 -0.000360963 0.00112368)
(0.000396818 -0.000212166 0.000877727)
(0.000503265 -0.00038928 0.00129833)
(0.000344011 -0.000239003 0.00129221)
(0.000369179 -0.000205634 0.0009263)
(0.000372879 -2.67397e-05 0.00080406)
(0.000496177 0.000121879 0.00100413)
(0.000511525 -0.000316345 0.0011351)
(0.000185653 -0.00019469 0.00102689)
(0.00010396 0.000130177 0.00072588)
(0.00052627 0.000223904 0.000725294)
(0.000155187 -0.000139548 0.00118281)
(-0.000166405 -0.000208692 0.000936905)
(0.000240683 -1.18091e-05 0.00105602)
(0.000295977 -0.000122031 0.000923952)
(0.000281014 -0.000247036 0.000942901)
(0.000152984 -0.000149265 0.000921794)
(0.000268007 -5.11047e-05 0.0008135)
(0.000256302 -8.16239e-05 0.000836004)
(0.000201024 -0.000105809 0.000876021)
(0.000209342 -9.46842e-05 0.000750887)
(0.000240638 5.11732e-05 0.000683472)
(0.000167862 -9.23722e-05 0.000573448)
(0.000262371 -0.000151123 0.000538127)
(0.000299234 -4.72026e-05 0.000542345)
(7.75392e-05 4.46193e-05 0.000432533)
(7.89223e-05 -7.96909e-05 0.00043269)
(-4.7467e-05 -0.000133279 0.00044089)
(0.000420691 -6.27983e-05 0.000633141)
(0.000174237 -0.00018483 0.000851913)
(0.000473256 -9.89319e-05 0.000813578)
(0.000283986 -0.000341991 0.000837583)
(0.000181875 -1.46874e-06 0.000870831)
(0.000100698 -0.000212562 0.00079751)
(-2.98197e-05 -6.95442e-05 0.000672782)
(-0.000151835 -0.000166455 0.000631516)
(0.000104558 -0.000175332 0.000704626)
(2.72827e-05 -0.000130136 0.000576073)
(2.05933e-05 -0.000123349 0.000376831)
(0.000341084 -0.000131824 0.000310144)
(0.00196526 -0.00319249 -0.000369471)
(-8.99978e-05 -0.000118939 0.000436959)
(0.000126153 -0.000451058 4.16923e-05)
(-0.0025398 -0.00147853 -0.00053373)
(0.000298957 -0.00015865 0.000401632)
(0 0 0)
(0 0 0)
(0 0 0)
(0 0 0)
(0 0 0)
(0 0 0)
(0 0 0)
(0 0 0)
(0 0 0)
(0 0 0)
(0 0 0)
(0 0 0)
(0 0 0)
(0 0 0)
(0 0 0)
(0 0 0)
(0 0 0)
(0 0 0)
(0 0 0)
(0 0 0)
(0 0 0)
(0 0 0)
(0 0 0)
(0 0 0)
(0 0 0)
(0 0 0)
(0 0 0)
(0 0 0)
(0 0 0)
(0 0 0)
(0 0 0)
(0 0 0)
(0 0 0)
(0 0 0)
(0 0 0)
(0 0 0)
(0 0 0)
(0 0 0)
(0 0 0)
(0 0 0)
(0 0 0)
(0 0 0)
(0 0 0)
(0 0 0)
(0 0 0)
(0 0 0)
(0 0 0)
(0 0 0)
(0 0 0)
(0 0 0)
(0 0 0)
(0 0 0)
(0 0 0)
(0 0 0)
(0 0 0)
(0 0 0)
(0 0 0)
(0 0 0)
(0 0 0)
(0 0 0)
(0 0 0)
(0 0 0)
(0 0 0)
(0 0 0)
(0 0 0)
(0 0 0)
(0 0 0)
(0 0 0)
(0 0 0)
(0 0 0)
(0 0 0)
(0 0 0)
(0 0 0)
(0 0 0)
(0 0 0)
(0 0 0)
(0 0 0)
(0 0 0)
(0 0 0)
(0 0 0)
(0 0 0)
(0 0 0)
(0 0 0)
(0 0 0)
(0 0 0)
(0 0 0)
(0 0 0)
(0 0 0)
(0 0 0)
(0 0 0)
(0 0 0)
(0 0 0)
(0 0 0)
(0 0 0)
(0 0 0)
(0 0 0)
(0 0 0)
(0 0 0)
(0 0 0)
(0 0 0)
(0 0 0)
(0 0 0)
(0 0 0)
(0 0 0)
(0 0 0)
(0 0 0)
(0 0 0)
(0 0 0)
(0 0 0)
(0 0 0)
(0 0 0)
(0 0 0)
(0 0 0)
(0 0 0)
(0 0 0)
(0 0 0)
(0 0 0)
(0 0 0)
(0 0 0)
(0 0 0)
(0 0 0)
(0 0 0)
(0 0 0)
(0 0 0)
(0 0 0)
(0 0 0)
(0 0 0)
(0 0 0)
(0 0 0)
(0 0 0)
(0 0 0)
(0 0 0)
(0 0 0)
(0 0 0)
(0 0 0)
(0 0 0)
(0 0 0)
(0 0 0)
(0 0 0)
(0 0 0)
(0 0 0)
(0 0 0)
(0 0 0)
(0 0 0)
(0 0 0)
(0 0 0)
(0 0 0)
(0 0 0)
(0 0 0)
(0 0 0)
(0 0 0)
(0 0 0)
(0 0 0)
(0 0 0)
(0 0 0)
(0 0 0)
(0 0 0)
(0 0 0)
(0 0 0)
(0 0 0)
(0 0 0)
(0 0 0)
(0 0 0)
(0 0 0)
(0 0 0)
(0 0 0)
(0 0 0)
(0 0 0)
(0 0 0)
(0 0 0)
(0 0 0)
(0 0 0)
(0 0 0)
(0 0 0)
(0 0 0)
(0 0 0)
(0 0 0)
(0 0 0)
(0 0 0)
(0 0 0)
(0 0 0)
(0 0 0)
(0 0 0)
(0 0 0)
(0 0 0)
(0 0 0)
(0 0 0)
(0 0 0)
(0 0 0)
(0 0 0)
(0 0 0)
(0 0 0)
(0 0 0)
(0 0 0)
(0 0 0)
(0 0 0)
(0 0 0)
(0 0 0)
(0 0 0)
(0 0 0)
(0 0 0)
(0 0 0)
(0 0 0)
(0 0 0)
(0 0 0)
(0 0 0)
(0 0 0)
(0 0 0)
(0 0 0)
(0 0 0)
(0 0 0)
(0 0 0)
(0 0 0)
(0 0 0)
(0 0 0)
(0 0 0)
(0 0 0)
(0 0 0)
(0 0 0)
(0 0 0)
(0 0 0)
(0 0 0)
(0 0 0)
(0 0 0)
(0 0 0)
(0 0 0)
(0 0 0)
(0 0 0)
(0 0 0)
(0 0 0)
(0 0 0)
(0 0 0)
(0 0 0)
(0 0 0)
(0 0 0)
(0 0 0)
(0 0 0)
(0 0 0)
(0 0 0)
(0 0 0)
(0 0 0)
(0 0 0)
(0 0 0)
(0 0 0)
(0 0 0)
(0 0 0)
(0 0 0)
(0 0 0)
(0 0 0)
(0 0 0)
(0 0 0)
(0 0 0)
(0 0 0)
(0 0 0)
(0 0 0)
(0 0 0)
(0 0 0)
(0 0 0)
(0 0 0)
(0 0 0)
(0 0 0)
(0 0 0)
(0 0 0)
(0 0 0)
(0 0 0)
(0 0 0)
(0 0 0)
(0 0 0)
(0 0 0)
(0 0 0)
(0 0 0)
(0 0 0)
(3.80469e-05 2.27365e-05 7.34126e-06)
(0.00032771 -0.000151208 0.000179472)
(8.24153e-05 6.76436e-07 0.000222433)
(-0.000170746 0.000352998 0.000133443)
(0.000141479 -0.000401567 -1.14332e-05)
(-0.000262806 -0.000108694 4.79767e-05)
(-0.000256675 -7.2442e-05 7.25735e-06)
(-0.000182389 6.36845e-05 -0.000106592)
(0.000112182 -6.87108e-05 2.7428e-05)
(-0.000281598 -8.39089e-05 0.00012979)
(-0.000228712 -0.000273035 -0.000121565)
(-0.000278003 -0.000111071 -0.000364833)
(0.000173919 0.000155081 4.09451e-05)
(0.000161836 6.57666e-05 4.77763e-06)
(-2.54841e-06 -5.37067e-05 0.000126789)
(-8.6682e-05 9.86937e-05 0.000165195)
(-4.183e-05 -0.000533379 0.000295005)
(-9.68437e-05 -0.000309238 0.000810312)
(0.000142634 5.48761e-05 0.000649199)
(9.42406e-05 6.28843e-05 0.000476629)
(4.75917e-05 1.74643e-07 -7.90875e-05)
(-0.000236767 -0.000387386 0.000935792)
(-0.000261081 -0.000246785 0.000598085)
(1.9175e-05 -6.16772e-05 0.000231865)
(-0.000339257 -5.65299e-05 0.00043094)
(-0.000451239 -0.000200155 0.000865603)
(-0.000155969 3.87444e-05 0.000474968)
(-0.000140452 4.91234e-05 0.000434559)
(0.000170192 -8.29372e-05 0.00109621)
(0.000140786 7.83857e-05 0.000275305)
(5.74937e-05 8.45365e-05 0.00057065)
(8.78637e-05 0.000118845 0.000796402)
(-1.97379e-05 0.000795488 0.000973407)
(-0.000242011 0.000258092 0.00090742)
(-0.000265905 -3.90182e-05 0.000872064)
(0.00029192 -7.02021e-05 0.000848853)
(-3.89126e-05 -0.000121662 0.00153313)
(0.00011896 0.000304597 0.00109744)
(0.000152801 -3.48934e-05 0.000675416)
(0.000140911 -0.000160189 0.00056301)
(-1.86871e-05 -0.000243855 0.000699816)
(0.000165722 0.000245451 0.00141102)
(0.000220307 0.000246834 0.000674238)
(6.094e-05 -1.51688e-05 0.000677936)
(0.000481263 0.000100373 0.00031273)
(-7.0438e-05 0.000528957 0.000504949)
(-0.000166924 0.00052206 0.000791127)
(-0.000168427 0.000242119 0.00132958)
(4.26257e-05 -0.000162509 0.00143929)
(0.000223325 0.000515702 0.00178361)
(6.61211e-05 8.21289e-05 0.000689964)
(0.000183522 -4.12055e-05 0.000965897)
(0.000211557 4.13244e-05 0.00204361)
(0.000194894 0.000414144 0.00100786)
(-0.000285554 0.000259306 0.00134434)
(0.000164499 -2.37816e-06 0.00094434)
(0.000144612 0.000526681 0.000901077)
(0.000801259 1.2389e-05 0.00185578)
(0.000454311 0.000174694 0.00123076)
(0.000291165 -0.000218928 0.000955873)
(0.000104898 0.000359563 0.00110035)
(-0.000226056 0.000140017 0.000731924)
(0.000312481 0.000497416 0.000736584)
(0.000327818 6.47212e-05 0.000658548)
(0.000121324 5.51196e-05 0.000944465)
(0.000298038 -0.000124719 0.000711279)
(0.000364207 -0.000118468 0.00101976)
(0.000344931 -0.000322865 0.00101001)
(0.000530357 0.00102672 0.00111098)
(0.000734057 -0.000120824 0.0015531)
(0.000188208 0.000104419 0.000871332)
(1.86787e-05 -7.33679e-05 0.00106817)
(0.0004558 0.000488504 0.000745683)
(0.000527286 0.000249365 0.000873068)
(0.00046266 0.000149465 0.000897437)
(0.000115126 -7.89945e-05 0.00101104)
(0.00018733 0.00013762 0.000366525)
(0.000351976 0.000236037 0.000615992)
(0.000462916 0.000185053 0.000879028)
(0.00053317 0.000245055 0.00096617)
(0.000152643 8.7226e-05 0.000585294)
(0.000260951 9.54229e-05 0.000705287)
(0.000191293 2.20481e-05 0.000800456)
(9.28529e-05 -0.00015633 0.000878682)
(6.87661e-05 -6.11796e-05 0.000349023)
(0.000138943 0.000176657 0.000731357)
(0.000250913 -1.9629e-05 0.000712851)
(4.87332e-05 -0.000150084 0.000887086)
(2.63915e-07 -0.000140586 0.000401908)
(0.000200483 0.000106236 0.000567046)
(0.000223593 -7.42113e-05 0.000788859)
(0.000244064 -0.000241437 0.000898768)
(0.000116329 5.86326e-05 0.00028157)
(0.000288646 3.59559e-05 0.000519048)
(0.000250888 -9.55313e-05 0.000649206)
(0.00027686 -0.000141626 0.00079751)
(0.00163405 -0.00203311 -0.00232927)
(0.000123232 3.09088e-05 0.000364366)
(-0.000157201 -0.000295709 0.00063202)
(5.32778e-05 -0.000150546 0.000557126)
(0.000133151 9.23049e-05 6.55705e-05)
(0.000567614 0.000228893 0.000427335)
(0.000189091 -0.000125799 0.000687473)
(0.000114216 -8.65449e-05 0.000891183)
(1.1982e-06 3.81166e-05 0.00024456)
(0.000202435 0.000132354 0.000477238)
(0.000306918 -2.93512e-05 0.000816094)
(0.000355896 -0.000141657 0.000904111)
(-0.000116678 -0.000103047 2.44807e-05)
(0.000117443 -7.84394e-05 0.000439884)
(0.000103382 -0.000293708 0.000617897)
(0.000135571 -0.000280424 0.000724365)
(0 0 0)
(0 0 0)
(0 0 0)
(0 0 0)
(0 0 0)
(0 0 0)
(0 0 0)
(0 0 0)
(0 0 0)
(0 0 0)
(0 0 0)
(0 0 0)
(0 0 0)
(0 0 0)
(0 0 0)
(0 0 0)
(0 0 0)
(0 0 0)
(0 0 0)
(0 0 0)
(0 0 0)
(0 0 0)
(0 0 0)
(0 0 0)
(0 0 0)
(0 0 0)
(0 0 0)
(0 0 0)
(0 0 0)
(0 0 0)
(0 0 0)
(0 0 0)
(0 0 0)
(0 0 0)
(0 0 0)
(0 0 0)
(0 0 0)
(0 0 0)
(0 0 0)
(0 0 0)
(0 0 0)
(0 0 0)
(0 0 0)
(0 0 0)
(0 0 0)
(0 0 0)
(0 0 0)
(0 0 0)
(0 0 0)
(0 0 0)
(0 0 0)
(0 0 0)
(0 0 0)
(0 0 0)
(0 0 0)
(0 0 0)
(0 0 0)
(0 0 0)
(0 0 0)
(0 0 0)
(0 0 0)
(0 0 0)
(0 0 0)
(0 0 0)
(0 0 0)
(0 0 0)
(0 0 0)
(0 0 0)
(0 0 0)
(0 0 0)
(0 0 0)
(0 0 0)
(0 0 0)
(0 0 0)
(0 0 0)
(0 0 0)
(0 0 0)
(0 0 0)
(0 0 0)
(0 0 0)
(0 0 0)
(0 0 0)
(0 0 0)
(0 0 0)
(0 0 0)
(0 0 0)
(0 0 0)
(0 0 0)
(0 0 0)
(0 0 0)
(0 0 0)
(0 0 0)
(0 0 0)
(0 0 0)
(0 0 0)
(0 0 0)
(0 0 0)
(0 0 0)
(0 0 0)
(0 0 0)
(0 0 0)
(0 0 0)
(0 0 0)
(0 0 0)
(0 0 0)
(0 0 0)
(0 0 0)
(0 0 0)
(0 0 0)
(0 0 0)
(0 0 0)
(0 0 0)
(0 0 0)
(0 0 0)
(0 0 0)
(0 0 0)
(0 0 0)
(0 0 0)
(0 0 0)
(0 0 0)
(0 0 0)
(0 0 0)
(0 0 0)
(0 0 0)
(0 0 0)
(0 0 0)
(0 0 0)
(0 0 0)
(0 0 0)
(0 0 0)
(0 0 0)
(0 0 0)
(0 0 0)
(0 0 0)
(0 0 0)
(0 0 0)
(0 0 0)
(0 0 0)
(0 0 0)
(0 0 0)
(0 0 0)
(0 0 0)
(0 0 0)
(0 0 0)
(0 0 0)
(0 0 0)
(0 0 0)
(0 0 0)
(0 0 0)
(0 0 0)
(0 0 0)
(0 0 0)
(0 0 0)
(0 0 0)
(0 0 0)
(0 0 0)
(0 0 0)
(0 0 0)
(0 0 0)
(0 0 0)
(0 0 0)
(0 0 0)
(0 0 0)
(0 0 0)
(0 0 0)
(0 0 0)
(0 0 0)
(0 0 0)
(0 0 0)
(0 0 0)
(0 0 0)
(0 0 0)
(0 0 0)
(0 0 0)
(0 0 0)
(0 0 0)
(0 0 0)
(0 0 0)
(0 0 0)
(0 0 0)
(0 0 0)
(0 0 0)
(0 0 0)
(0 0 0)
(0 0 0)
(0 0 0)
(0 0 0)
(0 0 0)
(0 0 0)
(0 0 0)
(0 0 0)
(0 0 0)
(0 0 0)
(0 0 0)
(0 0 0)
(0 0 0)
(0 0 0)
(0 0 0)
(0 0 0)
(0 0 0)
(0 0 0)
(0 0 0)
(0 0 0)
(0 0 0)
(0 0 0)
(0 0 0)
(0 0 0)
(0 0 0)
(0 0 0)
(0 0 0)
(0 0 0)
(0 0 0)
(0 0 0)
(0 0 0)
(0 0 0)
(0 0 0)
(0 0 0)
(0 0 0)
(0 0 0)
(0 0 0)
(0 0 0)
(0 0 0)
(0 0 0)
(0 0 0)
(0 0 0)
(0 0 0)
(0 0 0)
(0 0 0)
(0 0 0)
(0 0 0)
(0 0 0)
(0 0 0)
(0 0 0)
(0 0 0)
(0 0 0)
(0 0 0)
(0 0 0)
(0 0 0)
(0 0 0)
(0 0 0)
(0 0 0)
(0 0 0)
(0 0 0)
(0 0 0)
(0 0 0)
(0 0 0)
(0 0 0)
(0 0 0)
(0 0 0)
(0 0 0)
(0 0 0)
(0 0 0)
(0 0 0)
(0 0 0)
(0 0 0)
(0 0 0)
(0 0 0)
(0 0 0)
(0 0 0)
(0 0 0)
(0 0 0)
(0 0 0)
(0 0 0)
(0 0 0)
(0 0 0)
(0 0 0)
(0 0 0)
(0 0 0)
(0 0 0)
(0 0 0)
(0 0 0)
(0 0 0)
)
;

boundaryField
{
    inlet
    {
        type            zeroGradient;
    }
    outlet
    {
        type            zeroGradient;
    }
    wall
    {
        type            zeroGradient;
    }
    procBoundary2to0
    {
        type            processor;
        value           nonuniform List<vector> 
192
(
(0.000266178 0.000326798 0.000254372)
(0.000158514 0.000410609 9.90739e-05)
(0.000168572 0.000183644 6.35735e-05)
(0.000257535 0.000130166 3.23692e-05)
(-0.000369829 4.66079e-05 0.00103209)
(1.26343e-05 0.000434262 0.000638762)
(0.000113783 0.000279201 0.000581691)
(0.000313779 4.4863e-05 0.000534735)
(-0.000258114 0.00015333 0.00157262)
(0.000624917 -0.000180171 0.000980458)
(0.000364327 -0.000124523 0.000636495)
(0.000240755 9.64999e-05 0.000867983)
(0.000375368 -0.00044161 0.000962221)
(0.000318842 -0.000135488 0.000888809)
(0.000257123 -8.77971e-05 0.000978008)
(7.02237e-05 0.000234704 0.0011699)
(0.000190629 -0.000258723 0.000933019)
(0.000204938 -0.000187643 0.000964185)
(0.00026079 9.37198e-05 0.0011384)
(0.000273254 0.000120624 0.00113118)
(8.56927e-05 -0.000120278 0.00085578)
(5.74719e-05 -3.78326e-05 0.000931314)
(-4.09606e-05 -3.74857e-05 0.0010502)
(-0.00037417 0.000314479 0.0010729)
(-1.30396e-05 2.20215e-05 0.000799378)
(3.50278e-05 -0.00018179 0.00106586)
(-0.000224235 -0.000291314 0.000967843)
(-0.00047214 -0.000192499 0.000974749)
(0 0 0)
(0 0 0)
(0 0 0)
(0 0 0)
(0 0 0)
(0 0 0)
(0 0 0)
(0 0 0)
(0 0 0)
(0 0 0)
(0 0 0)
(0 0 0)
(0 0 0)
(0 0 0)
(0 0 0)
(0 0 0)
(0 0 0)
(0 0 0)
(0 0 0)
(0 0 0)
(0 0 0)
(0 0 0)
(0 0 0)
(0 0 0)
(0 0 0)
(0 0 0)
(0 0 0)
(0 0 0)
(0 0 0)
(0 0 0)
(0 0 0)
(0 0 0)
(0 0 0)
(0 0 0)
(0 0 0)
(0 0 0)
(0 0 0)
(0 0 0)
(0 0 0)
(0 0 0)
(0 0 0)
(0 0 0)
(0 0 0)
(0 0 0)
(0 0 0)
(0 0 0)
(0 0 0)
(0 0 0)
(0 0 0)
(0 0 0)
(0 0 0)
(0 0 0)
(0 0 0)
(0 0 0)
(0 0 0)
(0 0 0)
(0 0 0)
(0 0 0)
(0 0 0)
(0 0 0)
(0 0 0)
(0 0 0)
(0 0 0)
(0 0 0)
(0 0 0)
(0 0 0)
(0 0 0)
(0 0 0)
(-2.369e-06 -6.4723e-05 -5.89923e-05)
(0.000236986 1.8899e-05 0.000129437)
(0.000223246 0.000100093 0.00021373)
(0.000306969 0.000213997 7.77979e-05)
(9.22362e-05 -5.99664e-05 0.000387372)
(-2.75683e-05 -8.94325e-05 0.000402452)
(0.000167567 -5.93055e-05 0.000439317)
(0.000305963 0.000125178 0.000490191)
(5.23426e-05 0.00025314 0.000629974)
(0.000230734 5.70349e-05 0.000632036)
(7.04115e-05 -0.000110828 0.000563804)
(0.000235589 -0.000180768 0.000982261)
(0.000121494 -3.08735e-05 0.000764298)
(6.05585e-06 4.01446e-05 0.000675266)
(6.06418e-05 -0.000292973 0.0010368)
(0.000463378 2.53222e-06 0.000951232)
(0.000160242 -6.18623e-05 0.000902072)
(0.000149413 -0.000165439 0.000692176)
(0.000164739 -5.83046e-05 0.000631829)
(8.89266e-05 -0.000219062 0.000920652)
(0.000133428 0.000231257 0.000102113)
(2.01382e-05 -0.00023254 0.000436165)
(5.19229e-05 -0.000156251 0.000604883)
(6.4453e-05 -0.000184867 0.000785056)
(-2.55509e-05 -0.00032254 -7.95967e-05)
(-0.00010643 -0.000551842 0.000368423)
(-0.000300093 -0.000323433 0.000415947)
(-7.20617e-05 -0.000223797 0.000673065)
(0 0 0)
(0 0 0)
(0 0 0)
(0 0 0)
(0 0 0)
(0 0 0)
(0 0 0)
(0 0 0)
(0 0 0)
(0 0 0)
(0 0 0)
(0 0 0)
(0 0 0)
(0 0 0)
(0 0 0)
(0 0 0)
(0 0 0)
(0 0 0)
(0 0 0)
(0 0 0)
(0 0 0)
(0 0 0)
(0 0 0)
(0 0 0)
(0 0 0)
(0 0 0)
(0 0 0)
(0 0 0)
(0 0 0)
(0 0 0)
(0 0 0)
(0 0 0)
(0 0 0)
(0 0 0)
(0 0 0)
(0 0 0)
(0 0 0)
(0 0 0)
(0 0 0)
(0 0 0)
(0 0 0)
(0 0 0)
(0 0 0)
(0 0 0)
(0 0 0)
(0 0 0)
(0 0 0)
(0 0 0)
(0 0 0)
(0 0 0)
(0 0 0)
(0 0 0)
(0 0 0)
(0 0 0)
(0 0 0)
(0 0 0)
(0 0 0)
(0 0 0)
(0 0 0)
(0 0 0)
(0 0 0)
(0 0 0)
(0 0 0)
(0 0 0)
(0 0 0)
(0 0 0)
(0 0 0)
(0 0 0)
)
;
    }
    procBoundary2to3
    {
        type            processor;
        value           nonuniform List<vector> 
192
(
(0.000139953 0.000311878 0.000125474)
(0.000358172 -0.000295359 0.000116382)
(-1.59127e-05 -0.00016549 0.000125211)
(0.000554409 0.000618599 -7.16353e-05)
(4.37632e-05 0.000130097 0.000648049)
(0.000705745 -0.000148409 0.000401011)
(0.000165387 0.000392391 0.000639645)
(0.000762842 0.000438734 0.000934926)
(-0.00020756 -0.000409291 0.0015644)
(0.000286403 -9.4423e-05 0.00100678)
(0.000675159 -2.71453e-05 0.000795749)
(0.000371839 0.000235179 0.000869359)
(-4.49462e-05 2.53483e-05 0.00138609)
(0.000538153 1.36664e-05 0.00158127)
(0.000451507 -4.60809e-06 0.000905776)
(0.000349029 -6.85962e-05 0.000789649)
(0.000139207 0.000141954 0.00123168)
(0.000107901 -3.83114e-05 0.00132895)
(0.000192506 -9.59118e-05 0.00114112)
(0.000364346 -0.000101948 0.00125241)
(7.5196e-05 -1.26815e-05 0.00126059)
(2.21019e-05 -2.85187e-05 0.00138822)
(0.000164532 -0.000112829 0.00134268)
(0.000132749 -9.3906e-05 0.00108533)
(2.59087e-05 -0.000126227 0.00125799)
(1.83489e-05 -7.67749e-05 0.00130266)
(-2.85917e-05 -9.83353e-06 0.00129055)
(0.000162649 6.37727e-05 0.000792253)
(0 0 0)
(0 0 0)
(0 0 0)
(0 0 0)
(0 0 0)
(0 0 0)
(0 0 0)
(0 0 0)
(0 0 0)
(0 0 0)
(0 0 0)
(0 0 0)
(0 0 0)
(0 0 0)
(0 0 0)
(0 0 0)
(0 0 0)
(0 0 0)
(0 0 0)
(0 0 0)
(0 0 0)
(0 0 0)
(0 0 0)
(0 0 0)
(0 0 0)
(0 0 0)
(0 0 0)
(0 0 0)
(0 0 0)
(0 0 0)
(0 0 0)
(0 0 0)
(0 0 0)
(0 0 0)
(0 0 0)
(0 0 0)
(0 0 0)
(0 0 0)
(0 0 0)
(0 0 0)
(0 0 0)
(0 0 0)
(0 0 0)
(0 0 0)
(0 0 0)
(0 0 0)
(0 0 0)
(0 0 0)
(0 0 0)
(0 0 0)
(0 0 0)
(0 0 0)
(0 0 0)
(0 0 0)
(0 0 0)
(0 0 0)
(0 0 0)
(0 0 0)
(0 0 0)
(0 0 0)
(0 0 0)
(0 0 0)
(0 0 0)
(0 0 0)
(0 0 0)
(0 0 0)
(0 0 0)
(0 0 0)
(0.000322908 0.000467106 6.41733e-06)
(-0.000208187 0.000155546 -1.61657e-05)
(-1.94218e-05 -1.68548e-05 -1.81158e-05)
(1.76824e-05 -5.2106e-05 5.38243e-05)
(0.000212066 0.000166865 0.000507799)
(-3.37976e-05 0.000131829 0.000971392)
(0.000139832 0.000135905 0.000653261)
(8.25663e-05 -0.000124775 0.000355629)
(0.000326484 -0.000189147 0.00142006)
(0.000140543 -0.000380608 0.001588)
(6.88431e-05 6.67709e-05 0.000698784)
(0.000541129 -0.000254275 0.00109512)
(0.00115865 -0.000265422 0.00218975)
(0.000784824 -0.000307487 0.0010685)
(0.000405884 -0.000285325 0.000563699)
(0.000429624 -0.000301646 0.00106289)
(0.000476945 7.27082e-07 0.00120671)
(0.000570929 -0.000100335 0.00109671)
(0.00122416 3.28747e-05 0.00125022)
(0.000714492 -0.0007466 0.00207138)
(0.000165498 -9.34544e-05 0.000857196)
(0.000250171 -0.000168965 0.000836255)
(0.000110346 -0.000197087 0.000738809)
(0.000146979 -0.000168324 0.000793864)
(5.09286e-05 -0.000236177 0.000690658)
(4.3977e-05 -0.000223141 0.000736854)
(0.000174989 -0.000118772 0.000783681)
(0.000327734 -0.000144105 0.000488562)
(0 0 0)
(0 0 0)
(0 0 0)
(0 0 0)
(0 0 0)
(0 0 0)
(0 0 0)
(0 0 0)
(0 0 0)
(0 0 0)
(0 0 0)
(0 0 0)
(0 0 0)
(0 0 0)
(0 0 0)
(0 0 0)
(0 0 0)
(0 0 0)
(0 0 0)
(0 0 0)
(0 0 0)
(0 0 0)
(0 0 0)
(0 0 0)
(0 0 0)
(0 0 0)
(0 0 0)
(0 0 0)
(0 0 0)
(0 0 0)
(0 0 0)
(0 0 0)
(0 0 0)
(0 0 0)
(0 0 0)
(0 0 0)
(0 0 0)
(0 0 0)
(0 0 0)
(0 0 0)
(0 0 0)
(0 0 0)
(0 0 0)
(0 0 0)
(0 0 0)
(0 0 0)
(0 0 0)
(0 0 0)
(0 0 0)
(0 0 0)
(0 0 0)
(0 0 0)
(0 0 0)
(0 0 0)
(0 0 0)
(0 0 0)
(0 0 0)
(0 0 0)
(0 0 0)
(0 0 0)
(0 0 0)
(0 0 0)
(0 0 0)
(0 0 0)
(0 0 0)
(0 0 0)
(0 0 0)
(0 0 0)
)
;
    }
}


// ************************************************************************* //
