/*--------------------------------*- C++ -*----------------------------------*\
| =========                 |                                                 |
| \\      /  F ield         | OpenFOAM: The Open Source CFD Toolbox           |
|  \\    /   O peration     | Version:  2506                                  |
|   \\  /    A nd           | Website:  www.openfoam.com                      |
|    \\/     M anipulation  |                                                 |
\*---------------------------------------------------------------------------*/
FoamFile
{
    version     2.0;
    format      ascii;
    arch        "LSB;label=32;scalar=64";
    class       volVectorField;
    location    "0.08";
    object      Us;
}
// * * * * * * * * * * * * * * * * * * * * * * * * * * * * * * * * * * * * * //

dimensions      [0 1 -1 0 0 0 0];

internalField   nonuniform List<vector> 
1152
(
(-0.000269465 -0.000383545 0.000259664)
(-0.000215505 -3.73083e-06 0.000363332)
(-7.58653e-05 -0.000172012 0.0005319)
(-0.000489309 -0.000174119 -6.95417e-05)
(-8.93542e-05 -0.000189441 0.000249272)
(0.000372839 -0.000652858 3.14804e-05)
(-7.80641e-05 4.59815e-05 0.000512062)
(-0.000122692 0.000102213 0.000210313)
(-0.000299996 -0.000583076 0.000540189)
(-0.000146413 9.53498e-05 0.000365121)
(4.06746e-05 -6.0752e-05 4.07155e-05)
(-9.286e-06 4.61301e-05 0.00021518)
(-0.000109549 3.69333e-05 -1.81805e-05)
(-0.000238613 -0.000100373 -2.32372e-05)
(-4.93643e-05 0.000385307 0.000313276)
(-0.000255039 0.000450828 -5.31742e-05)
(-0.000272797 -0.00156504 0.00973759)
(0.000758349 -0.00113738 0.0104325)
(-0.000198324 -0.000895489 0.010436)
(-0.00177407 -0.000555059 0.0103392)
(-0.000396177 -0.00165324 0.0110373)
(-0.0004241 -0.000247039 0.0105258)
(0.000797018 0.000270154 0.00895335)
(0.000767436 0.000990778 0.0105233)
(-0.000535631 -0.000709683 0.0115807)
(-0.000313601 -0.000454554 0.0106857)
(0.00050845 -0.000449136 0.00935306)
(0.000669891 -0.000137783 0.00973874)
(-0.00052267 -0.000651007 0.0103937)
(-0.000267152 -0.000538169 0.0107332)
(0.000957634 0.000510899 0.0101503)
(0.000623931 -0.000505279 0.00984105)
(0.00075852 -0.00048575 0.0100835)
(0.000611188 -2.65832e-05 0.0107081)
(0.000589826 0.000838485 0.0105433)
(0.000993958 0.000555522 0.00998826)
(0.000382187 -0.000192112 0.0105519)
(-0.000312525 -0.00021929 0.0111769)
(0.000902016 0.000438982 0.0107072)
(0.000932344 0.000807241 0.0104905)
(0.000936835 -0.000183361 0.0103448)
(0.000811751 0.000180743 0.0106114)
(0.000509638 -0.000200251 0.0107626)
(0.00100934 0.000201626 0.0107779)
(0.000992682 -0.000281264 0.00979609)
(0.00112089 -6.39573e-05 0.0106211)
(0.000683661 -4.30034e-05 0.0104401)
(0.000434511 0.000503772 0.0104876)
(-0.000698111 -0.000153912 0.0109021)
(0.000734829 0.000369974 0.0105284)
(0.000789179 0.000446281 0.0107721)
(0.00152216 0.000189029 0.0108717)
(0.00102863 0.000609623 0.0103977)
(0.000686142 0.000353843 0.0106276)
(0.000596622 0.000382499 0.0104825)
(0.000830112 0.000370002 0.0104)
(0.000413264 5.97051e-05 0.011374)
(0.0010111 0.000283152 0.0103633)
(0.000741263 0.000123499 0.0103907)
(0.000718669 9.66311e-05 0.0108424)
(0.00143402 0.00024592 0.0101331)
(0.000875057 0.000157181 0.0106202)
(0.00105275 0.000171158 0.0108142)
(0.000378711 8.9544e-07 0.0112783)
(0.000504111 4.94926e-05 0.0099115)
(0.000172129 -0.000113812 0.010513)
(0.000482284 -2.65809e-05 0.0109316)
(0.000422986 0.000467076 0.0106241)
(0.000680914 0.000250876 0.0101261)
(0.000414108 0.000199796 0.0105346)
(0.000371681 0.000235835 0.01086)
(0.000285077 0.000237256 0.0107458)
(0.000450349 3.36459e-06 0.010233)
(0.000447882 0.0001403 0.0106038)
(0.000299647 0.000156643 0.0108183)
(0.000217275 0.000173286 0.0108969)
(0.000703597 -0.000135291 0.0101792)
(0.000938342 0.000228685 0.0110795)
(0.000331111 6.69812e-05 0.0107954)
(4.31021e-05 8.49936e-05 0.0111327)
(0.000425552 -0.000355964 0.010089)
(0.000273082 5.92465e-05 0.0103535)
(0.000488189 0.000286176 0.0106385)
(0.000524903 7.02877e-06 0.0108914)
(0.000591892 -2.28766e-05 0.0103079)
(0.000381078 -0.000129867 0.0105957)
(0.000260928 0.000259421 0.010824)
(6.17666e-05 0.000210757 0.0109502)
(0.00021332 -1.59773e-05 0.0100892)
(0.00012881 5.02639e-05 0.0106528)
(0.000157897 0.000185286 0.0108916)
(2.51743e-05 0.000280723 0.0109739)
(0.000197364 -0.000110277 0.0101789)
(6.16238e-05 5.84197e-06 0.0106924)
(-1.182e-05 2.97235e-05 0.0108594)
(2.85984e-05 0.000194429 0.0110063)
(0.000299408 -0.000496217 0.00983933)
(0.00033924 -0.000881349 0.00999986)
(0.000604946 -6.69454e-05 0.0104645)
(0.000794419 -0.000253292 0.0104262)
(-0.000156839 1.36008e-06 0.0101503)
(-5.29324e-05 -0.000189158 0.0106819)
(-0.000124305 -9.97726e-05 0.010718)
(0.000326673 0.00013634 0.0106633)
(-0.000135653 -0.000173125 0.0101189)
(-0.000162186 -0.000177748 0.0106224)
(-0.00021542 -9.40046e-05 0.0109458)
(3.23702e-05 6.37741e-05 0.0109439)
(-5.30912e-05 -0.000153225 0.0102825)
(-0.000153912 -1.65713e-05 0.0106883)
(3.54993e-05 -7.0658e-07 0.0112731)
(-0.000100731 -4.01107e-05 0.0110775)
(0 0 0)
(0 0 0)
(0 0 0)
(0 0 0)
(0 0 0)
(0 0 0)
(0 0 0)
(0 0 0)
(0 0 0)
(0 0 0)
(0 0 0)
(0 0 0)
(0 0 0)
(0 0 0)
(0 0 0)
(0 0 0)
(0 0 0)
(0 0 0)
(0 0 0)
(0 0 0)
(0 0 0)
(0 0 0)
(0 0 0)
(0 0 0)
(0 0 0)
(0 0 0)
(0 0 0)
(0 0 0)
(0 0 0)
(0 0 0)
(0 0 0)
(0 0 0)
(0 0 0)
(0 0 0)
(0 0 0)
(0 0 0)
(0 0 0)
(0 0 0)
(0 0 0)
(0 0 0)
(0 0 0)
(0 0 0)
(0 0 0)
(0 0 0)
(0 0 0)
(0 0 0)
(0 0 0)
(0 0 0)
(0 0 0)
(0 0 0)
(0 0 0)
(0 0 0)
(0 0 0)
(0 0 0)
(0 0 0)
(0 0 0)
(0 0 0)
(0 0 0)
(0 0 0)
(0 0 0)
(0 0 0)
(0 0 0)
(0 0 0)
(0 0 0)
(0 0 0)
(0 0 0)
(0 0 0)
(0 0 0)
(0 0 0)
(0 0 0)
(0 0 0)
(0 0 0)
(0 0 0)
(0 0 0)
(0 0 0)
(0 0 0)
(0 0 0)
(0 0 0)
(0 0 0)
(0 0 0)
(0 0 0)
(0 0 0)
(0 0 0)
(0 0 0)
(0 0 0)
(0 0 0)
(0 0 0)
(0 0 0)
(0 0 0)
(0 0 0)
(0 0 0)
(0 0 0)
(0 0 0)
(0 0 0)
(0 0 0)
(0 0 0)
(0 0 0)
(0 0 0)
(0 0 0)
(0 0 0)
(0 0 0)
(0 0 0)
(0 0 0)
(0 0 0)
(0 0 0)
(0 0 0)
(0 0 0)
(0 0 0)
(0 0 0)
(0 0 0)
(0 0 0)
(0 0 0)
(0 0 0)
(0 0 0)
(0 0 0)
(0 0 0)
(0 0 0)
(0 0 0)
(0 0 0)
(0 0 0)
(0 0 0)
(0 0 0)
(0 0 0)
(0 0 0)
(0 0 0)
(0 0 0)
(0 0 0)
(0 0 0)
(0 0 0)
(0 0 0)
(0 0 0)
(0 0 0)
(0 0 0)
(0 0 0)
(0 0 0)
(0 0 0)
(0 0 0)
(0 0 0)
(0 0 0)
(0 0 0)
(0 0 0)
(0 0 0)
(0 0 0)
(0 0 0)
(0 0 0)
(0 0 0)
(0 0 0)
(0 0 0)
(0 0 0)
(0 0 0)
(0 0 0)
(0 0 0)
(0 0 0)
(0 0 0)
(0 0 0)
(0 0 0)
(0 0 0)
(0 0 0)
(0 0 0)
(0 0 0)
(0 0 0)
(0 0 0)
(0 0 0)
(0 0 0)
(0 0 0)
(0 0 0)
(0 0 0)
(0 0 0)
(0 0 0)
(0 0 0)
(0 0 0)
(0 0 0)
(0 0 0)
(0 0 0)
(0 0 0)
(0 0 0)
(0 0 0)
(0 0 0)
(0 0 0)
(0 0 0)
(0 0 0)
(0 0 0)
(0 0 0)
(0 0 0)
(0 0 0)
(0 0 0)
(0 0 0)
(0 0 0)
(0 0 0)
(0 0 0)
(0 0 0)
(0 0 0)
(0 0 0)
(0 0 0)
(0 0 0)
(0 0 0)
(0 0 0)
(0 0 0)
(0 0 0)
(0 0 0)
(0 0 0)
(0 0 0)
(0 0 0)
(0 0 0)
(0 0 0)
(0 0 0)
(0 0 0)
(0 0 0)
(0 0 0)
(0 0 0)
(0 0 0)
(0 0 0)
(0 0 0)
(0 0 0)
(0 0 0)
(0 0 0)
(0 0 0)
(0 0 0)
(0 0 0)
(0 0 0)
(0 0 0)
(0 0 0)
(0 0 0)
(0 0 0)
(0 0 0)
(0 0 0)
(0 0 0)
(0 0 0)
(0 0 0)
(0 0 0)
(0 0 0)
(0 0 0)
(0 0 0)
(0 0 0)
(0 0 0)
(0 0 0)
(0 0 0)
(0 0 0)
(0 0 0)
(0 0 0)
(0 0 0)
(0 0 0)
(0 0 0)
(0 0 0)
(0 0 0)
(0 0 0)
(0 0 0)
(0 0 0)
(0 0 0)
(0 0 0)
(0 0 0)
(0 0 0)
(0 0 0)
(0 0 0)
(0 0 0)
(0 0 0)
(0 0 0)
(0 0 0)
(0 0 0)
(0 0 0)
(0 0 0)
(0 0 0)
(0 0 0)
(0 0 0)
(0 0 0)
(0 0 0)
(0 0 0)
(0 0 0)
(0 0 0)
(0 0 0)
(0 0 0)
(0 0 0)
(1.96434e-05 -0.000170689 7.03712e-05)
(-0.00100384 0.00062682 -0.000219198)
(-9.29024e-05 0.000267133 0.000613957)
(-0.000246495 -0.000110803 0.000609974)
(7.06363e-05 -0.000249811 0.000362971)
(4.35302e-05 -0.000781191 -6.11033e-05)
(0.000204255 -0.000386461 0.000403075)
(-0.000307498 -0.000664948 0.000509751)
(0.00020467 -0.00023115 0.000110904)
(-0.000232882 -0.000431207 0.000386519)
(-0.000306985 -0.00161224 5.1469e-05)
(-0.000437251 -0.000258196 0.000385961)
(0.000196197 0.000256187 0.000348951)
(0.000286652 0.000287351 3.38337e-05)
(-0.000114107 0.000229909 -0.000316088)
(0.000627576 4.27105e-05 -6.09104e-05)
(-0.000224581 0.000350381 0.0113736)
(-0.00105916 0.00068198 0.00996237)
(0.00143467 0.000871083 0.0111425)
(0.000450905 -0.000696977 0.0102452)
(-0.000408338 0.000307012 0.00979444)
(0.000242174 -0.00106877 0.00995945)
(0.000949419 -0.000795225 0.0109866)
(-0.000487345 -0.00127287 0.0101274)
(-0.000254611 -0.000364688 0.00868366)
(-0.000551426 -0.000394378 0.00919619)
(-0.000361723 -0.00056715 0.00914524)
(-0.000283779 -0.00125529 0.00872313)
(0.000299946 0.000870904 0.00760382)
(0.00104896 0.000253187 0.00725722)
(-0.000250383 0.000292067 0.0075917)
(-0.000937688 0.000129618 0.00877632)
(-0.000486733 0.00141135 0.00865358)
(0.000181171 0.000417827 0.01052)
(0.000312656 0.000700274 0.00999209)
(6.83618e-05 8.51346e-05 0.0114216)
(0.000144744 0.000781439 0.00920253)
(-0.000796471 -0.000396274 0.0101814)
(-0.000442642 -0.000101683 0.0100647)
(0.000175685 0.00020602 0.010246)
(4.60108e-05 0.000692377 0.00912205)
(0.000416944 0.000258582 0.00910485)
(0.000668226 0.000380986 0.00878583)
(0.000708882 0.00049001 0.00976168)
(0.000932754 0.0013801 0.00733835)
(0.00156005 0.000254707 0.00774503)
(0.000493567 -0.000127748 0.00907871)
(0.001047 -0.000212177 0.00983995)
(-5.68643e-05 0.00119384 0.0076268)
(0.000961966 0.00015751 0.00800563)
(0.000367628 0.000727152 0.00923446)
(-0.000700478 0.000804928 0.00952293)
(-0.000747407 0.00057911 0.00825788)
(0.000642955 1.8884e-05 0.00919004)
(0.000478445 0.00132478 0.00915346)
(0.000252549 0.00118081 0.00946101)
(-0.000409959 0.000631345 0.00670147)
(0.000717074 9.50905e-06 0.00823681)
(0.000266476 0.000515439 0.00901415)
(0.000821425 4.95421e-05 0.0103987)
(0.000447579 0.000634925 0.00878509)
(0.000737073 0.000107007 0.00809726)
(0.0014034 -5.78782e-05 0.00929714)
(0.00147546 -0.000394916 0.00971433)
(0.000616388 -0.00062632 0.00720264)
(0.000411441 -0.000672864 0.00719059)
(0.000794002 0.000668711 0.00874306)
(0.000810677 0.000742244 0.0093518)
(0.000697884 -0.000325925 0.00707524)
(0.00120932 -0.000193339 0.00799254)
(0.000866184 0.00101785 0.009667)
(0.000880613 0.000297285 0.0101611)
(-0.000154212 0.000276566 0.00776835)
(0.000503826 0.000145261 0.00771459)
(0.000677284 0.000315406 0.00952464)
(0.000618804 3.23426e-06 0.00991749)
(0.000886732 -0.000291885 0.00685806)
(0.00082609 0.000671214 0.00743022)
(0.00147015 0.000280408 0.00946454)
(0.000778949 0.000207514 0.00978795)
(0.000468039 -0.000225556 0.00664348)
(0.000819303 -0.000202318 0.00831189)
(0.000743698 -0.000475267 0.00862022)
(0.000732946 -0.000439132 0.00948983)
(0.000307896 -0.000441505 0.00629273)
(0.000591748 -0.00106948 0.00774989)
(0.000703086 -0.000217595 0.00974856)
(0.000933362 0.000574853 0.0101465)
(0.000627039 -0.00123909 0.00480797)
(0.000430208 -0.000322391 0.00746769)
(0.000150535 -0.000221725 0.00922991)
(7.45908e-05 -0.000131137 0.00987337)
(0.000824311 0.000100903 0.00499607)
(0.00071385 -0.00107479 0.00775869)
(0.00024434 -0.00017759 0.00839634)
(0.000367195 2.27129e-05 0.00982294)
(0.000515185 -0.00175293 0.00468568)
(0.00187326 -0.000333813 0.00920024)
(0.00132034 -0.00194162 0.00861667)
(0.000413365 -0.000425821 0.00840555)
(-6.98699e-05 -5.43642e-05 0.00612495)
(-0.000266295 0.000200645 0.00812634)
(-0.000552757 -6.59412e-05 0.00932367)
(0.000177206 8.79581e-05 0.00901013)
(-0.000447653 0.000482755 0.00371938)
(-0.00138842 0.000813823 0.00735258)
(-0.000391008 0.000489202 0.00927147)
(0.000111393 5.92799e-05 0.00967396)
(-0.000356341 0.00035895 0.00430245)
(-0.00107276 0.000318694 0.00750397)
(-0.00117867 -0.000614152 0.00831633)
(-0.000421838 -0.000150708 0.00976047)
(0 0 0)
(0 0 0)
(0 0 0)
(0 0 0)
(0 0 0)
(0 0 0)
(0 0 0)
(0 0 0)
(0 0 0)
(0 0 0)
(0 0 0)
(0 0 0)
(0 0 0)
(0 0 0)
(-0.00362377 -0.000396749 0.00809391)
(0 0 0)
(0 0 0)
(0 0 0)
(0 0 0)
(0 0 0)
(0 0 0)
(0 0 0)
(0 0 0)
(0 0 0)
(0 0 0)
(0 0 0)
(0 0 0)
(0 0 0)
(0 0 0)
(0 0 0)
(0 0 0)
(0 0 0)
(0 0 0)
(0 0 0)
(0 0 0)
(0 0 0)
(0 0 0)
(0 0 0)
(0 0 0)
(0 0 0)
(0 0 0)
(0 0 0)
(0 0 0)
(0 0 0)
(0 0 0)
(0 0 0)
(0 0 0)
(0 0 0)
(0 0 0)
(0 0 0)
(0 0 0)
(0 0 0)
(0 0 0)
(0 0 0)
(0 0 0)
(0 0 0)
(0 0 0)
(0 0 0)
(0 0 0)
(0 0 0)
(0 0 0)
(0 0 0)
(0 0 0)
(0 0 0)
(0 0 0)
(0 0 0)
(0 0 0)
(0 0 0)
(0 0 0)
(0 0 0)
(0 0 0)
(0 0 0)
(0 0 0)
(0 0 0)
(0 0 0)
(0 0 0)
(0 0 0)
(0 0 0)
(0 0 0)
(0 0 0)
(0 0 0)
(0 0 0)
(0 0 0)
(0 0 0)
(0 0 0)
(0 0 0)
(0 0 0)
(0 0 0)
(0 0 0)
(0 0 0)
(0 0 0)
(0 0 0)
(0 0 0)
(0 0 0)
(0 0 0)
(0 0 0)
(0 0 0)
(0 0 0)
(0 0 0)
(0 0 0)
(0 0 0)
(0 0 0)
(0 0 0)
(0 0 0)
(0 0 0)
(0 0 0)
(0 0 0)
(0 0 0)
(0 0 0)
(0 0 0)
(0 0 0)
(0 0 0)
(0 0 0)
(0 0 0)
(0 0 0)
(0 0 0)
(0 0 0)
(0 0 0)
(0 0 0)
(0 0 0)
(0 0 0)
(0 0 0)
(0 0 0)
(0 0 0)
(0 0 0)
(0 0 0)
(0 0 0)
(0 0 0)
(0 0 0)
(0 0 0)
(0 0 0)
(0 0 0)
(0 0 0)
(0 0 0)
(0 0 0)
(0 0 0)
(0 0 0)
(0 0 0)
(0 0 0)
(0 0 0)
(0 0 0)
(0 0 0)
(0 0 0)
(0 0 0)
(0 0 0)
(0 0 0)
(0 0 0)
(0 0 0)
(0 0 0)
(0 0 0)
(0 0 0)
(0 0 0)
(0 0 0)
(0 0 0)
(0 0 0)
(0 0 0)
(0 0 0)
(0 0 0)
(0 0 0)
(0 0 0)
(0 0 0)
(0 0 0)
(0 0 0)
(0 0 0)
(0 0 0)
(0 0 0)
(0 0 0)
(0 0 0)
(0 0 0)
(0 0 0)
(0 0 0)
(0 0 0)
(0 0 0)
(0 0 0)
(0 0 0)
(0 0 0)
(0 0 0)
(0 0 0)
(0 0 0)
(0 0 0)
(0 0 0)
(0 0 0)
(0 0 0)
(0 0 0)
(0 0 0)
(0 0 0)
(0 0 0)
(0 0 0)
(0 0 0)
(0 0 0)
(0 0 0)
(0 0 0)
(0 0 0)
(0 0 0)
(0 0 0)
(0 0 0)
(0 0 0)
(0 0 0)
(0 0 0)
(0 0 0)
(0 0 0)
(0 0 0)
(0 0 0)
(0 0 0)
(0 0 0)
(0 0 0)
(0 0 0)
(0 0 0)
(0 0 0)
(0 0 0)
(0 0 0)
(0 0 0)
(0 0 0)
(0 0 0)
(0 0 0)
(0 0 0)
(0 0 0)
(0 0 0)
(0 0 0)
(0 0 0)
(0 0 0)
(0 0 0)
(0 0 0)
(0 0 0)
(0 0 0)
(0 0 0)
(0 0 0)
(0 0 0)
(0 0 0)
(0 0 0)
(0 0 0)
(0 0 0)
(0 0 0)
(0 0 0)
(0 0 0)
(0 0 0)
(0 0 0)
(0 0 0)
(0 0 0)
(0 0 0)
(0 0 0)
(0 0 0)
(0 0 0)
(0 0 0)
(0 0 0)
(0 0 0)
(0 0 0)
(0 0 0)
(0 0 0)
(0 0 0)
(0 0 0)
(0 0 0)
(0 0 0)
(0 0 0)
(0 0 0)
(0 0 0)
(0 0 0)
(0 0 0)
(0 0 0)
(0 0 0)
(0 0 0)
(0 0 0)
(0 0 0)
(0 0 0)
(0 0 0)
(0 0 0)
(0 0 0)
(0 0 0)
(0 0 0)
(0 0 0)
(0 0 0)
(0 0 0)
(-0.000127265 -0.000663448 -0.000286554)
(-0.000878477 0.000477863 -2.53676e-06)
(-5.3358e-06 0.000133888 -7.4065e-05)
(-2.74917e-05 -6.63568e-05 0.000154241)
(-0.000283985 -0.000270955 -0.00228379)
(-0.000529827 5.0475e-06 0.000624523)
(-0.000278499 0.00089798 -0.000387856)
(0.000347492 0.000106343 0.000362344)
(-0.00138476 -0.000196126 0.000158296)
(-0.000226739 -0.000429063 3.9067e-05)
(-0.000491545 0.000539054 -0.000176841)
(-0.000278318 -0.000326879 -0.000309549)
(-0.000295709 -0.000335277 0.0001075)
(-0.000245012 -7.37981e-05 0.000251579)
(-5.11747e-05 -0.0002243 6.93715e-05)
(-3.49089e-05 -0.000291988 1.96992e-06)
(-0.000269691 -0.000309948 0.00941167)
(0.000645536 -6.40267e-05 0.00947687)
(0.000615467 0.000581788 0.0103433)
(0.00116905 -0.000201057 0.0100403)
(-0.000450039 -0.00078811 0.0108012)
(-0.00138498 -1.92237e-05 0.00993784)
(-8.97376e-06 0.000455073 0.0102575)
(0.00222072 0.00171029 0.00928036)
(0.000579101 -0.000908823 0.0115212)
(-0.000789923 -0.00154939 0.00918282)
(-0.000734427 -0.00098237 0.0106748)
(0.00128395 0.000471829 0.00900766)
(0.000271141 -0.00167253 0.0088933)
(0.000372073 -0.000904564 0.010725)
(0.000126631 -0.000936005 0.0114137)
(0.000220079 0.000352949 0.00939099)
(0.000567862 5.08038e-05 0.00877646)
(0.00037444 0.000257191 0.00940852)
(-5.82462e-05 0.000148018 0.00897585)
(0.00238985 0.000431687 0.0107265)
(0.0013409 7.74512e-06 0.0132085)
(-0.00043308 0.000521474 0.00948487)
(-0.000494685 0.000210415 0.00964901)
(0.000966288 0.00120623 0.0100046)
(0.000679468 0.000608666 0.0113311)
(0.000574314 0.000621029 0.00966072)
(-0.000197652 8.4121e-05 0.0101273)
(0.000656947 0.000965992 0.0100744)
(0.000415555 -0.00024249 0.0110839)
(0.000345777 0.00110434 0.00969081)
(0.000511905 0.000320066 0.00993171)
(0.000170997 0.00027667 0.0101279)
(-0.000905737 0.000106377 0.00688055)
(0.00034324 4.56203e-05 0.00737266)
(7.72246e-05 7.65671e-05 0.00845705)
(-0.000623755 0.000724755 0.00957985)
(0.000114327 -0.000353098 0.00888449)
(0.000527626 0.000174706 0.00891157)
(-6.62076e-05 0.000735452 0.00863081)
(-0.000735828 0.00125392 0.00955677)
(0.00171101 0.000521709 0.00926829)
(0.000989778 0.000852137 0.00976468)
(0.000281815 0.000799069 0.00912115)
(0.000433633 0.000926121 0.0100425)
(0.000667961 0.000396309 0.00998909)
(0.000914892 0.000808789 0.00991296)
(0.000634458 0.000711565 0.0101789)
(0.000489242 0.000778846 0.0100924)
(0.000118748 -0.000366191 0.0061077)
(0.000313266 -0.000131339 0.00613196)
(0.00125987 -0.000127597 0.00880782)
(-0.000383522 0.000788282 0.00682516)
(0.000524376 7.29083e-05 0.00804017)
(-5.9752e-05 0.000155665 0.00841361)
(-9.90362e-05 0.000281325 0.00885624)
(0.000285584 0.000382331 0.00821683)
(0.00091271 1.84212e-05 0.00881911)
(8.45051e-05 -8.99364e-05 0.00919905)
(2.60475e-05 0.000217817 0.0097767)
(0.000733126 -8.15929e-05 0.0097839)
(0.000514659 -6.31121e-05 0.00920854)
(0.00081648 0.000219336 0.0100227)
(0.000548114 0.000643552 0.010647)
(0.000450394 0.00033969 0.0103233)
(8.53858e-06 -0.000189504 0.00660868)
(-1.73912e-05 9.07644e-05 0.00538543)
(0.00016207 0.00112587 0.00671487)
(-0.000258207 -0.000420671 0.00632167)
(0.000605405 -0.000377216 0.00849004)
(0.000726236 0.000320501 0.00787002)
(0.0008306 0.0010958 0.00844711)
(0.000665358 0.000103251 0.00831499)
(0.000992122 -0.000343892 0.00875847)
(0.000900536 0.000194531 0.00937796)
(0.00102893 0.000738253 0.0092042)
(0.00105942 -7.25753e-05 0.00937246)
(0.000642782 -0.000253645 0.00913108)
(0.000438142 0.000300127 0.0102095)
(0.000609702 0.000760105 0.0100822)
(0.000384278 0.000504894 0.0102239)
(0.000827481 -0.000894787 0.00583291)
(-0.000365293 0.000345546 0.0061528)
(-0.00118819 0.000289599 0.00506841)
(-1.31209e-05 -0.000668087 0.00661045)
(0.000607716 -0.00140214 0.00822937)
(-0.000159972 -6.40234e-05 0.00865768)
(0.000231188 3.38345e-05 0.00762297)
(0.00108572 -0.000612983 0.0083751)
(0.000612812 -0.0014681 0.00828705)
(-0.000179573 -0.000205725 0.0092853)
(0.00051604 0.000228699 0.00930291)
(0.000282315 -0.000599125 0.00893562)
(-0.000358265 -0.00106371 0.00880353)
(5.63454e-05 0.000315161 0.0103194)
(0.000283992 -1.3746e-05 0.00982478)
(0.000690151 -0.000699797 0.0101071)
(0 0 0)
(0 0 0)
(0 0 0)
(0 0 0)
(0 0 0)
(0 0 0)
(0 0 0)
(0 0 0)
(0 0 0)
(0 0 0)
(0 0 0)
(0 0 0)
(0 0 0)
(0 0 0)
(0 0 0)
(0 0 0)
(0 0 0)
(0 0 0)
(0 0 0)
(0 0 0)
(0 0 0)
(0 0 0)
(0 0 0)
(0 0 0)
(0 0 0)
(0 0 0)
(0 0 0)
(0 0 0)
(0 0 0)
(0 0 0)
(0 0 0)
(0 0 0)
(0 0 0)
(0 0 0)
(0 0 0)
(0 0 0)
(0 0 0)
(0 0 0)
(0 0 0)
(0 0 0)
(0 0 0)
(0 0 0)
(0 0 0)
(0 0 0)
(0 0 0)
(0 0 0)
(0 0 0)
(0 0 0)
(0 0 0)
(0 0 0)
(0 0 0)
(0 0 0)
(0 0 0)
(0 0 0)
(0 0 0)
(0 0 0)
(0 0 0)
(0 0 0)
(0 0 0)
(0 0 0)
(0 0 0)
(0 0 0)
(0 0 0)
(0 0 0)
(0 0 0)
(0 0 0)
(0 0 0)
(0 0 0)
(0 0 0)
(0 0 0)
(0 0 0)
(0 0 0)
(0 0 0)
(0 0 0)
(0 0 0)
(0 0 0)
(0 0 0)
(0 0 0)
(0 0 0)
(0 0 0)
(0 0 0)
(0 0 0)
(0 0 0)
(0 0 0)
(0 0 0)
(0 0 0)
(0 0 0)
(0 0 0)
(0 0 0)
(0 0 0)
(0 0 0)
(0 0 0)
(0 0 0)
(0 0 0)
(0 0 0)
(0 0 0)
(0 0 0)
(0 0 0)
(0 0 0)
(0 0 0)
(0 0 0)
(0 0 0)
(0 0 0)
(0 0 0)
(0 0 0)
(0 0 0)
(0 0 0)
(0 0 0)
(0 0 0)
(0 0 0)
(0 0 0)
(0 0 0)
(0 0 0)
(0 0 0)
(0 0 0)
(0 0 0)
(0 0 0)
(0 0 0)
(0 0 0)
(0 0 0)
(0 0 0)
(0 0 0)
(0 0 0)
(0 0 0)
(0 0 0)
(0 0 0)
(0 0 0)
(0 0 0)
(0 0 0)
(0 0 0)
(0 0 0)
(0 0 0)
(0 0 0)
(0 0 0)
(0 0 0)
(0 0 0)
(0 0 0)
(0 0 0)
(0 0 0)
(0 0 0)
(0 0 0)
(0 0 0)
(0 0 0)
(0 0 0)
(0 0 0)
(0 0 0)
(0 0 0)
(0 0 0)
(0 0 0)
(0 0 0)
(0 0 0)
(0 0 0)
(0 0 0)
(0 0 0)
(0 0 0)
(0 0 0)
(0 0 0)
(0 0 0)
(0 0 0)
(0 0 0)
(0 0 0)
(0 0 0)
(0 0 0)
(0 0 0)
(0 0 0)
(0 0 0)
(0 0 0)
(0 0 0)
(0 0 0)
(0 0 0)
(0 0 0)
(0 0 0)
(0 0 0)
(0 0 0)
(0 0 0)
(0 0 0)
(0 0 0)
(0 0 0)
(0 0 0)
(0 0 0)
(0 0 0)
(0 0 0)
(0 0 0)
(0 0 0)
(0 0 0)
(0 0 0)
(0 0 0)
(0 0 0)
(0 0 0)
(0 0 0)
(0 0 0)
(0 0 0)
(0 0 0)
(0 0 0)
(0 0 0)
(0 0 0)
(0 0 0)
(0 0 0)
(0 0 0)
(0 0 0)
(0 0 0)
(0 0 0)
(0 0 0)
(0 0 0)
(0 0 0)
(0 0 0)
(0 0 0)
(0 0 0)
(0 0 0)
(0 0 0)
(0 0 0)
(0 0 0)
(0 0 0)
(0 0 0)
(0 0 0)
(0 0 0)
(0 0 0)
(0 0 0)
(0 0 0)
(0 0 0)
(0 0 0)
(0 0 0)
(0 0 0)
(0 0 0)
(0 0 0)
(0 0 0)
(0 0 0)
(0 0 0)
(0 0 0)
(0 0 0)
(0 0 0)
(0 0 0)
(0 0 0)
(0 0 0)
(0 0 0)
(0 0 0)
(0 0 0)
(0 0 0)
(0 0 0)
(0 0 0)
(0 0 0)
(0 0 0)
(0 0 0)
(0 0 0)
(0 0 0)
(0 0 0)
(0 0 0)
(0 0 0)
(0 0 0)
(0 0 0)
(0 0 0)
(0 0 0)
(0 0 0)
(0 0 0)
(0 0 0)
(0 0 0)
(0 0 0)
(0 0 0)
(0 0 0)
(0 0 0)
(0 0 0)
(0 0 0)
(0 0 0)
(0 0 0)
(0 0 0)
(0 0 0)
(0 0 0)
(0 0 0)
(0 0 0)
(0 0 0)
(0 0 0)
(0 0 0)
)
;

boundaryField
{
    inlet
    {
        type            zeroGradient;
    }
    outlet
    {
        type            zeroGradient;
    }
    wall
    {
        type            zeroGradient;
    }
    procBoundary0to1
    {
        type            processor;
        value           nonuniform List<vector> 
192
(
(0.000159403 0.000162116 0.000345689)
(9.00505e-05 -0.000166481 3.56805e-06)
(-0.000111219 0.000191164 2.20262e-05)
(-0.000289934 0.000212872 -5.90765e-05)
(-0.000537207 0.000143474 0.0083537)
(0.000758559 0.000502943 0.0102471)
(-0.00054719 0.000576626 0.0104355)
(0.000523864 0.000743643 0.010357)
(0.000326088 0.000583817 0.0100295)
(0.000777929 0.00107332 0.0105863)
(0.000327707 0.000921606 0.0109221)
(0.000537359 0.000562751 0.0104786)
(0.000362092 0.000730334 0.0103562)
(0.000288233 0.000518665 0.0107139)
(0.000568372 0.00044169 0.0110652)
(0.000374165 3.8502e-05 0.0111865)
(0.000320229 0.00040334 0.0107243)
(0.000369491 8.28355e-05 0.0110063)
(0.000137533 0.000269573 0.011147)
(-4.84897e-05 0.000199575 0.0112153)
(0.000167507 -0.000516463 0.0105447)
(-1.32798e-05 8.62447e-05 0.0109954)
(0.000100775 0.000268254 0.0108091)
(-0.000102632 0.00011946 0.0110921)
(0.000483698 -2.42032e-05 0.0105633)
(3.93363e-05 0.000507889 0.0110754)
(-6.56596e-05 0.00035217 0.0107517)
(-0.000224332 -6.66831e-05 0.0111054)
(0 0 0)
(0 0 0)
(0 0 0)
(0 0 0)
(0 0 0)
(0 0 0)
(0 0 0)
(0 0 0)
(0 0 0)
(0 0 0)
(0 0 0)
(0 0 0)
(0 0 0)
(0 0 0)
(0 0 0)
(0 0 0)
(0 0 0)
(0 0 0)
(0 0 0)
(0 0 0)
(0 0 0)
(0 0 0)
(0 0 0)
(0 0 0)
(0 0 0)
(0 0 0)
(0 0 0)
(0 0 0)
(0 0 0)
(0 0 0)
(0 0 0)
(0 0 0)
(0 0 0)
(0 0 0)
(0 0 0)
(0 0 0)
(0 0 0)
(0 0 0)
(0 0 0)
(0 0 0)
(0 0 0)
(0 0 0)
(0 0 0)
(0 0 0)
(0 0 0)
(0 0 0)
(0 0 0)
(0 0 0)
(0 0 0)
(0 0 0)
(0 0 0)
(0 0 0)
(0 0 0)
(0 0 0)
(0 0 0)
(0 0 0)
(0 0 0)
(0 0 0)
(0 0 0)
(0 0 0)
(0 0 0)
(0 0 0)
(0 0 0)
(0 0 0)
(0 0 0)
(0 0 0)
(0 0 0)
(0 0 0)
(4.54013e-05 0.000130156 -5.97956e-05)
(7.97092e-05 -6.06195e-05 0.000185473)
(-9.45899e-05 0.000100851 -0.000595066)
(-0.000135259 -0.000125277 -9.88851e-05)
(0.00021911 -0.000334826 0.0081479)
(0.000304675 -0.000629086 0.00862083)
(0.00133105 -0.000569704 0.00876292)
(0.000279778 -0.00126804 0.00866805)
(-0.000151136 -0.000145752 0.00999203)
(0.000642008 0.000582795 0.0103541)
(0.00102418 0.000617407 0.0108839)
(-0.00103185 0.000876068 0.0101003)
(-0.000338151 0.00025708 0.00783799)
(-0.000360138 0.00106356 0.0101215)
(-0.000408857 0.0012911 0.0117934)
(0.000230752 0.000957554 0.0100763)
(0.000486386 0.000146758 0.00672597)
(0.000772006 0.000210529 0.00853876)
(0.00044548 0.000302954 0.0104688)
(0.000185729 0.000724463 0.0101965)
(-0.000103462 -0.000402932 0.00630636)
(-0.000679631 -0.00120725 0.00845965)
(0.000911542 0.000499047 0.00968708)
(0.000224497 -0.000439364 0.0102805)
(-0.000113331 0.000345258 0.00720377)
(5.88579e-05 0.000703792 0.0088071)
(0.000300626 -0.000763802 0.00926859)
(0.000570847 -0.000429545 0.0103609)
(0 0 0)
(0 0 0)
(0 0 0)
(0 0 0)
(0 0 0)
(0 0 0)
(0 0 0)
(0 0 0)
(0 0 0)
(0 0 0)
(0 0 0)
(0 0 0)
(0 0 0)
(0 0 0)
(0 0 0)
(0 0 0)
(0 0 0)
(0 0 0)
(0 0 0)
(0 0 0)
(0 0 0)
(0 0 0)
(0 0 0)
(0 0 0)
(0 0 0)
(0 0 0)
(0 0 0)
(0 0 0)
(0 0 0)
(0 0 0)
(0 0 0)
(0 0 0)
(0 0 0)
(0 0 0)
(0 0 0)
(0 0 0)
(0 0 0)
(0 0 0)
(0 0 0)
(0 0 0)
(0 0 0)
(0 0 0)
(0 0 0)
(0 0 0)
(0 0 0)
(0 0 0)
(0 0 0)
(0 0 0)
(0 0 0)
(0 0 0)
(0 0 0)
(0 0 0)
(0 0 0)
(0 0 0)
(0 0 0)
(0 0 0)
(0 0 0)
(0 0 0)
(0 0 0)
(0 0 0)
(0 0 0)
(0 0 0)
(0 0 0)
(0 0 0)
(0 0 0)
(0 0 0)
(0 0 0)
(0 0 0)
)
;
    }
    procBoundary0to2
    {
        type            processor;
        value           nonuniform List<vector> 
192
(
(-0.00019416 8.53337e-05 -0.000227709)
(0.000439839 -0.000863136 -0.000231272)
(0.00046688 0.000278399 -0.000164586)
(-0.000105664 0.000307318 -0.000262319)
(0.000494054 0.000566192 0.00991327)
(0.00110245 0.0014999 0.00863719)
(0.000525622 -1.01197e-05 0.0102901)
(0.000298134 -0.000835835 0.0101966)
(0.00128338 -0.000240144 0.00949425)
(0.00091951 -0.000784699 0.010669)
(-0.000269128 -0.000534072 0.0113369)
(5.04637e-05 -7.99103e-05 0.0107486)
(0.00100825 0.000201979 0.0100734)
(0.000938315 5.5592e-05 0.0104524)
(0.000682524 -0.000361462 0.0107283)
(0.000182373 -9.16474e-05 0.0109779)
(0.000874088 7.72406e-06 0.0102862)
(0.000519877 -5.16918e-05 0.0108306)
(0.000282173 -9.13696e-06 0.0109436)
(-5.76542e-05 2.93747e-05 0.0111611)
(0.00036978 -0.00027484 0.010469)
(0.000302286 -0.000181294 0.0110105)
(-5.85544e-05 2.72379e-05 0.0108973)
(-7.87031e-05 6.88359e-05 0.0111337)
(-0.000316635 0.000132334 0.0102874)
(2.14161e-06 0.000290528 0.0106523)
(-0.000227746 -6.69451e-05 0.0108129)
(-0.000288522 4.88913e-06 0.0113405)
(0 0 0)
(0 0 0)
(0 0 0)
(0 0 0)
(0 0 0)
(0 0 0)
(0 0 0)
(0 0 0)
(0 0 0)
(0 0 0)
(0 0 0)
(0 0 0)
(0 0 0)
(0 0 0)
(0 0 0)
(0 0 0)
(0 0 0)
(0 0 0)
(0 0 0)
(0 0 0)
(0 0 0)
(0 0 0)
(0 0 0)
(0 0 0)
(0 0 0)
(0 0 0)
(0 0 0)
(0 0 0)
(0 0 0)
(0 0 0)
(0 0 0)
(0 0 0)
(0 0 0)
(0 0 0)
(0 0 0)
(0 0 0)
(0 0 0)
(0 0 0)
(0 0 0)
(0 0 0)
(0 0 0)
(0 0 0)
(0 0 0)
(0 0 0)
(0 0 0)
(0 0 0)
(0 0 0)
(0 0 0)
(0 0 0)
(0 0 0)
(0 0 0)
(0 0 0)
(0 0 0)
(0 0 0)
(0 0 0)
(0 0 0)
(0 0 0)
(0 0 0)
(0 0 0)
(0 0 0)
(0 0 0)
(0 0 0)
(0 0 0)
(0 0 0)
(0 0 0)
(0 0 0)
(0 0 0)
(0 0 0)
(-0.000114639 -0.000102459 0.000741108)
(0.000383137 -3.64548e-05 0.000282211)
(0.000165976 0.00041268 0.000518295)
(-0.000827415 0.000175871 -0.000413794)
(-0.000392617 -6.24691e-05 0.00774503)
(-0.00169635 -0.000429538 0.0105972)
(0.000333809 -0.000575824 0.0101446)
(-0.000101214 -8.6252e-05 0.00835334)
(-0.000842262 -0.00051277 0.00984193)
(-0.00020674 -6.54432e-06 0.00897655)
(0.0013537 -0.000908294 0.00935141)
(0.00183691 -0.000444058 0.0090851)
(0.00038539 -0.00327395 0.0105989)
(0.00176999 -0.000140844 0.00884374)
(0.00198437 -0.000168492 0.00874197)
(0.00143174 -0.000404126 0.00946653)
(0.000199712 0.00101545 0.00696731)
(0.00124341 -0.000217546 0.00876721)
(0.00144657 -0.000159132 0.00944811)
(0.00124159 0.000115808 0.0100623)
(0.000354425 0.000162224 0.00580822)
(8.38615e-05 0.000183028 0.00794481)
(-0.000109838 0.000274305 0.00953887)
(0.000223031 -0.000101948 0.0100798)
(-0.000200086 0.000429505 0.00501772)
(-0.000608617 -2.78749e-05 0.00760848)
(-0.00105063 -0.00064173 0.0088666)
(-0.000464943 -0.000416407 0.00962962)
(0 0 0)
(0 0 0)
(0 0 0)
(0 0 0)
(0 0 0)
(0 0 0)
(0 0 0)
(0 0 0)
(0 0 0)
(0 0 0)
(0 0 0)
(0 0 0)
(0 0 0)
(0 0 0)
(0 0 0)
(0 0 0)
(0 0 0)
(0 0 0)
(0 0 0)
(0 0 0)
(0 0 0)
(0 0 0)
(0 0 0)
(0 0 0)
(0 0 0)
(0 0 0)
(0 0 0)
(0 0 0)
(0 0 0)
(0 0 0)
(0 0 0)
(0 0 0)
(0 0 0)
(0 0 0)
(0 0 0)
(0 0 0)
(0 0 0)
(0 0 0)
(0 0 0)
(0 0 0)
(0 0 0)
(0 0 0)
(0 0 0)
(0 0 0)
(0 0 0)
(0 0 0)
(0 0 0)
(0 0 0)
(0 0 0)
(0 0 0)
(0 0 0)
(0 0 0)
(0 0 0)
(0 0 0)
(0 0 0)
(0 0 0)
(0 0 0)
(0 0 0)
(0 0 0)
(0 0 0)
(0 0 0)
(0 0 0)
(0 0 0)
(0 0 0)
(0 0 0)
(0 0 0)
(0 0 0)
(0 0 0)
)
;
    }
}


// ************************************************************************* //
