/*--------------------------------*- C++ -*----------------------------------*\
| =========                 |                                                 |
| \\      /  F ield         | OpenFOAM: The Open Source CFD Toolbox           |
|  \\    /   O peration     | Version:  2506                                  |
|   \\  /    A nd           | Website:  www.openfoam.com                      |
|    \\/     M anipulation  |                                                 |
\*---------------------------------------------------------------------------*/
FoamFile
{
    version     2.0;
    format      ascii;
    arch        "LSB;label=32;scalar=64";
    class       volScalarField;
    location    "0.08";
    object      voidfraction;
}
// * * * * * * * * * * * * * * * * * * * * * * * * * * * * * * * * * * * * * //

dimensions      [0 0 0 0 0 0 0];

internalField   nonuniform List<scalar> 
1152
(
0.486497
0.470697
0.44963
0.43383
0.45753
0.49703
0.49703
0.45753
0.483863
0.428563
0.41803
0.439097
0.468063
0.589197
0.45753
0.539164
0.40223
0.478597
0.40223
0.44963
0.446997
0.44173
0.444363
0.423296
0.423296
0.475963
0.391696
0.389063
0.462797
0.439097
0.412763
0.460163
0.428563
0.446997
0.412763
0.383796
0.39433
0.423296
0.39433
0.370629
0.38643
0.470697
0.38643
0.462797
0.43383
0.339029
0.352196
0.44963
0.475963
0.436463
0.41013
0.483863
0.399596
0.399596
0.407496
0.360096
0.446997
0.389063
0.367996
0.404863
0.404863
0.383796
0.352196
0.317962
0.407496
0.399596
0.389063
0.399596
0.41013
0.399596
0.475963
0.507564
0.389063
0.391696
0.333763
0.373263
0.399596
0.38643
0.357463
0.383796
0.428563
0.383796
0.399596
0.407496
0.48123
0.370629
0.415396
0.396963
0.452263
0.357463
0.40223
0.444363
0.323229
0.439097
0.428563
0.475963
0.757732
0.734032
0.686631
0.649764
0.599731
0.741932
0.51283
0.560231
0.691898
0.657665
0.565497
0.547064
0.723498
0.712965
0.639231
0.604998
1
1
1
1
1
1
1
1
1
1
1
1
1
1
1
1
1
1
1
1
1
1
1
1
1
1
1
1
1
1
1
1
1
1
1
1
1
1
1
1
1
1
1
1
1
1
1
1
1
1
1
1
1
1
1
1
1
1
1
1
1
1
1
1
1
1
1
1
1
1
1
1
1
1
1
1
1
1
1
1
1
1
1
1
1
1
1
1
1
1
1
1
1
1
1
1
1
1
1
1
1
1
1
1
1
1
1
1
1
1
1
1
1
1
1
1
1
1
1
1
1
1
1
1
1
1
1
1
1
1
1
1
1
1
1
1
1
1
1
1
1
1
1
1
1
1
1
1
1
1
1
1
1
1
1
1
1
1
1
1
1
1
1
1
1
1
1
1
1
1
1
1
1
1
1
1
1
1
1
1
1
1
1
1
1
1
1
1
1
1
1
1
1
1
1
1
1
1
1
1
1
1
1
1
1
1
1
1
1
1
1
1
1
1
1
1
1
1
1
1
1
1
1
1
1
1
1
1
1
1
1
1
1
1
1
1
1
1
1
1
1
1
1
1
1
1
1
1
1
1
1
1
1
1
1
1
1
1
1
1
1
1
1
1
1
1
1
1
1
1
1
1
0.436159
0.501857
0.503135
0.465515
0.469496
0.417758
0.443252
0.40302
0.443532
0.443936
0.510918
0.418017
0.491734
0.446126
0.394203
0.481286
0.452346
0.409035
0.463241
0.522468
0.443405
0.510332
0.437713
0.40623
0.470212
0.407993
0.408828
0.388241
0.497103
0.406563
0.347774
0.46124
0.452346
0.365718
0.376198
0.377895
0.426012
0.405578
0.410014
0.435116
0.403512
0.443936
0.411202
0.355758
0.362878
0.438213
0.447266
0.443699
0.395692
0.427599
0.463241
0.347228
0.439057
0.451865
0.415554
0.447954
0.390172
0.446051
0.418325
0.344931
0.377195
0.31557
0.407469
0.413628
0.419972
0.44307
0.4306
0.417324
0.386876
0.461609
0.304758
0.438325
0.435909
0.382621
0.413576
0.372
0.477417
0.406563
0.405258
0.361005
0.592632
0.409035
0.405212
0.439229
0.399921
0.369035
0.379545
0.377343
0.422569
0.435479
0.413576
0.399069
0.421937
0.418432
0.403047
0.421146
0.576445
0.650372
0.72074
0.754663
0.521676
0.595598
0.601136
0.643738
0.512137
0.591938
0.601137
0.615621
0.577638
0.562835
0.590977
0.60658
1
1
1
1
1
1
1
1
1
1
1
1
1
1
0.997789
1
1
1
1
1
1
1
1
1
1
1
1
1
1
1
1
1
1
1
1
1
1
1
1
1
1
1
1
1
1
1
1
1
1
1
1
1
1
1
1
1
1
1
1
1
1
1
1
1
1
1
1
1
1
1
1
1
1
1
1
1
1
1
1
1
1
1
1
1
1
1
1
1
1
1
1
1
1
1
1
1
1
1
1
1
1
1
1
1
1
1
1
1
1
1
1
1
1
1
1
1
1
1
1
1
1
1
1
1
1
1
1
1
1
1
1
1
1
1
1
1
1
1
1
1
1
1
1
1
1
1
1
1
1
1
1
1
1
1
1
1
1
1
1
1
1
1
1
1
1
1
1
1
1
1
1
1
1
1
1
1
1
1
1
1
1
1
1
1
1
1
1
1
1
1
1
1
1
1
1
1
1
1
1
1
1
1
1
1
1
1
1
1
1
1
1
1
1
1
1
1
1
1
1
1
1
1
1
1
1
1
1
1
1
1
1
1
1
1
1
1
1
1
1
1
1
1
1
1
1
1
1
1
1
1
1
1
1
1
1
1
1
1
1
1
1
1
1
1
1
1
1
1
1
1
1
1
0.473928
0.465147
0.432097
0.429096
0.467822
0.481099
0.448165
0.513382
0.470494
0.396164
0.472931
0.420735
0.44361
0.428697
0.48569
0.371029
0.484719
0.40427
0.435909
0.463099
0.452352
0.454301
0.454508
0.444148
0.448733
0.412784
0.434944
0.440633
0.386657
0.425487
0.49381
0.411122
0.403785
0.436883
0.420663
0.398671
0.396659
0.408014
0.437593
0.428323
0.448733
0.418323
0.368467
0.376516
0.412943
0.319571
0.404483
0.443699
0.44695
0.419489
0.418757
0.393302
0.430693
0.459173
0.384736
0.444148
0.44148
0.382315
0.366092
0.422946
0.347228
0.419068
0.442379
0.416134
0.433461
0.423838
0.411135
0.416568
0.347154
0.388525
0.475651
0.333373
0.4306
0.423863
0.392208
0.31461
0.412943
0.374134
0.369293
0.355993
0.42267
0.391225
0.392077
0.418358
0.375
0.415322
0.429136
0.384804
0.499508
0.385085
0.382712
0.378727
0.386657
0.451164
0.464034
0.37604
0.711335
0.699961
0.655066
0.672491
0.631807
0.77831
0.72514
0.774494
0.622818
0.75348
0.691356
0.736899
0.662661
0.77854
0.72119
0.696791
1
1
1
1
1
1
1
1
1
1
1
1
1
1
1
1
1
1
1
1
1
1
1
1
1
1
1
1
1
1
1
1
1
1
1
1
1
1
1
1
1
1
1
1
1
1
1
1
1
1
1
1
1
1
1
1
1
1
1
1
1
1
1
1
1
1
1
1
1
1
1
1
1
1
1
1
1
1
1
1
1
1
1
1
1
1
1
1
1
1
1
1
1
1
1
1
1
1
1
1
1
1
1
1
1
1
1
1
1
1
1
1
1
1
1
1
1
1
1
1
1
1
1
1
1
1
1
1
1
1
1
1
1
1
1
1
1
1
1
1
1
1
1
1
1
1
1
1
1
1
1
1
1
1
1
1
1
1
1
1
1
1
1
1
1
1
1
1
1
1
1
1
1
1
1
1
1
1
1
1
1
1
1
1
1
1
1
1
1
1
1
1
1
1
1
1
1
1
1
1
1
1
1
1
1
1
1
1
1
1
1
1
1
1
1
1
1
1
1
1
1
1
1
1
1
1
1
1
1
1
1
1
1
1
1
1
1
1
1
1
1
1
1
1
1
1
1
1
1
1
1
1
1
1
1
1
1
1
1
1
1
1
1
1
1
1
1
1
1
1
1
1
)
;

boundaryField
{
    inlet
    {
        type            fixedValue;
        value           uniform 1;
    }
    outlet
    {
        type            fixedValue;
        value           uniform 1;
    }
    wall
    {
        type            zeroGradient;
    }
    procBoundary0to1
    {
        type            processor;
        value           nonuniform List<scalar> 
192
(
0.502297
0.52863
0.470697
0.494397
0.328496
0.389063
0.412763
0.391696
0.412763
0.420663
0.367996
0.42593
0.378529
0.383796
0.389063
0.423296
0.389063
0.317962
0.444363
0.354829
0.43383
0.431196
0.383796
0.354829
0.662931
0.502297
0.541797
0.44173
1
1
1
1
1
1
1
1
1
1
1
1
1
1
1
1
1
1
1
1
1
1
1
1
1
1
1
1
1
1
1
1
1
1
1
1
1
1
1
1
1
1
1
1
1
1
1
1
1
1
1
1
1
1
1
1
1
1
1
1
1
1
1
1
1
1
1
1
0.45952
0.380848
0.471586
0.511357
0.463099
0.418432
0.436211
0.413628
0.432675
0.45206
0.416313
0.348476
0.434465
0.368979
0.416313
0.363511
0.423727
0.428323
0.482641
0.408616
0.427306
0.446126
0.407469
0.456228
0.651015
0.65185
0.66836
0.706814
1
1
1
1
1
1
1
1
1
1
1
1
1
1
1
1
1
1
1
1
1
1
1
1
1
1
1
1
1
1
1
1
1
1
1
1
1
1
1
1
1
1
1
1
1
1
1
1
1
1
1
1
1
1
1
1
1
1
1
1
1
1
1
1
1
1
1
1
)
;
    }
    procBoundary0to2
    {
        type            processor;
        value           nonuniform List<scalar> 
192
(
0.49703
0.389063
0.357463
0.470697
0.404863
0.407496
0.46543
0.462797
0.281096
0.46543
0.40223
0.38643
0.452263
0.423296
0.444363
0.452263
0.362729
0.375896
0.49703
0.378529
0.446997
0.367996
0.38643
0.415396
0.660298
0.670831
0.615531
0.583931
1
1
1
1
1
1
1
1
1
1
1
1
1
1
1
1
1
1
1
1
1
1
1
1
1
1
1
1
1
1
1
1
1
1
1
1
1
1
1
1
1
1
1
1
1
1
1
1
1
1
1
1
1
1
1
1
1
1
1
1
1
1
1
1
1
1
1
1
0.436254
0.507447
0.491485
0.421146
0.432675
0.450082
0.515805
0.37604
0.472048
0.406563
0.427367
0.383558
0.432675
0.505469
0.438422
0.361005
0.432675
0.440191
0.422946
0.421146
0.378985
0.42041
0.425157
0.406111
0.606273
0.61031
0.648461
0.574003
1
1
1
1
1
1
1
1
1
1
1
1
1
1
1
1
1
1
1
1
1
1
1
1
1
1
1
1
1
1
1
1
1
1
1
1
1
1
1
1
1
1
1
1
1
1
1
1
1
1
1
1
1
1
1
1
1
1
1
1
1
1
1
1
1
1
1
1
)
;
    }
}


// ************************************************************************* //
