/*--------------------------------*- C++ -*----------------------------------*\
| =========                 |                                                 |
| \\      /  F ield         | OpenFOAM: The Open Source CFD Toolbox           |
|  \\    /   O peration     | Version:  2506                                  |
|   \\  /    A nd           | Website:  www.openfoam.com                      |
|    \\/     M anipulation  |                                                 |
\*---------------------------------------------------------------------------*/
FoamFile
{
    version     2.0;
    format      ascii;
    arch        "LSB;label=32;scalar=64";
    class       volScalarField;
    location    "0.009";
    object      Ksl;
}
// * * * * * * * * * * * * * * * * * * * * * * * * * * * * * * * * * * * * * //

dimensions      [1 -3 -1 0 0 0 0];

internalField   uniform 0;

boundaryField
{
    wall
    {
        type            zeroGradient;
    }
    outlet
    {
        type            cyclic;
    }
    inlet
    {
        type            cyclic;
    }
    procBoundary2to1
    {
        type            processor;
        value           uniform 0;
    }
    procBoundary2to3
    {
        type            processor;
        value           nonuniform List<scalar> 
256
(
0
0.331595
1.44458
0
0
0
0
0
0
0
0
0
0
0
0
0
0
0
0
0
0
0
0
0
0
0.732421
0
0
0
0
0
0
0
0
0
0
0
0
0
0
0
0
0
0
0
3.58554
0
0
0
0
0
0
0
0
0
0
0
0
0
0
0.121329
0
0
0
0
0
2.3136
0
0.727846
3.54722
0
0
0
0
0
0
0
0
0
0
0
3.58691
0
0
0
0
0
0
0
0
0
0
0
0
0
0
0
0
0.122737
0
0
0
0
0
0
3.56438
0
0
1.21671
0
0
0
0
0
0
0.728726
0
0
0.483304
0
0
3.57393
0
0
0
3.56562
0
0
0
0
0
0
3.55753
0.243564
0
0
0
0
0
0
0
0
0
0
0
1.21863
0.122727
3.44699
0
1.21149
4.98919
0
0
0
0
0
0
0
0
0
0
0
1.22523
0
0
0.486608
3.57836
0
3.44756
0
0
0
0.738767
0
0
0.728965
0
0
1.22365
0
0
0
0
0
3.59433
0
0
0
0
0
0
0
0
0
0
0
0
0
0
0
0
0
0
0
0
0.612382
3.57295
0
0
0
0
0
0
0
0
0
0
0
0
0
0
0
0
0
0
0
0
3.19235
0
0
0
0
0
0
0
-2.95184e-16
0.830059
0
0
0
0
0
0
0
0
0
0
0
0
0.00729794
0
0
1.47158
0
0
0
)
;
    }
}


// ************************************************************************* //
