/*--------------------------------*- C++ -*----------------------------------*\
| =========                 |                                                 |
| \\      /  F ield         | OpenFOAM: The Open Source CFD Toolbox           |
|  \\    /   O peration     | Version:  2506                                  |
|   \\  /    A nd           | Website:  www.openfoam.com                      |
|    \\/     M anipulation  |                                                 |
\*---------------------------------------------------------------------------*/
FoamFile
{
    version     2.0;
    format      ascii;
    arch        "LSB;label=32;scalar=64";
    class       volScalarField;
    location    "0.009";
    object      p;
}
// * * * * * * * * * * * * * * * * * * * * * * * * * * * * * * * * * * * * * //

dimensions      [0 2 -2 0 0 0 0];

internalField   nonuniform List<scalar> 
512
(
0.0629874
-0.0217236
-0.231331
-0.408787
-0.0950797
0.148742
0.0784969
0.0451151
-0.502019
-0.839975
-0.389459
-0.182956
-0.460456
-0.32341
-0.103453
-0.0187662
0.215504
0.352704
0.470256
0.540523
0.524077
0.6199
0.396108
-0.0623005
0.0485175
0.396174
0.368703
0.166377
0.363234
0.496981
0.231157
0.0303838
0.158428
-0.0195746
-0.201458
-0.324446
-0.291126
-0.026366
0.0601084
-0.043518
-0.652608
-0.899348
-0.419089
-0.164197
-0.326777
-0.228809
0.0903495
0.154107
0.121675
0.117846
0.258271
0.409014
0.561872
0.631389
0.381195
0.0749372
0.228267
0.429752
0.402734
0.186595
0.161582
0.403959
0.393816
0.281521
-0.2071
-0.135235
0.0982414
-0.0206416
-0.310732
-0.082361
0.0568855
-0.0643783
-0.692425
-0.863429
-0.402567
-0.173092
-0.353443
-0.157057
0.239816
0.328144
0.0397232
-0.149022
0.148977
0.572328
0.604668
0.552894
0.406263
0.17642
0.124768
0.317432
0.292021
0.292763
0.423696
0.439043
0.357602
0.142351
-0.249516
-0.287952
0.000512762
0.110405
-0.142466
-0.132326
0.0558939
-0.0802787
-0.673467
-0.901209
-0.704396
-0.20262
0.188034
0.190759
0.106428
0.170452
0.0639306
-0.15091
0.0913049
0.464697
0.569922
0.445503
0.221283
0.0690627
0.147022
0.380488
0.453963
0.359477
0.41982
0.519478
0.354517
-0.0130973
-0.0118345
-0.17833
-0.0929425
0.131504
-0.110584
-0.365632
-0.241595
-0.210326
-0.504764
-0.768311
-0.668847
-0.15073
0.122112
0.026441
0.040016
0.245771
0.189163
0.0483305
0.225087
0.433867
0.510653
0.351709
0.249465
0.178666
0.137915
0.383916
0.581959
0.46702
0.219638
0.117466
0.159175
0.222804
-0.204647
-0.129814
0.0437156
0.402119
0.342533
-0.191237
-0.472994
-0.420765
-0.426807
-0.508047
-0.557116
-0.265858
-0.0839913
0.0457015
0.237796
0.272223
0.0590099
-0.00387124
0.192455
0.286931
0.243003
0.2255
0.152179
0.191231
0.251185
0.274935
0.485107
0.560307
0.453722
0.330994
0.159567
-0.132309
-0.280978
-0.314643
0.0979962
0.240211
0.161213
-0.23608
-0.506857
-0.542589
-0.371931
-0.4617
-0.737941
-0.539425
-0.0658254
0.139738
0.385307
0.477276
0.170982
0.140443
0.44372
0.343089
0.0284594
0.185619
0.380223
0.0996201
0.140385
0.452756
0.58698
0.454696
0.308348
0.282175
0.285683
0.0369612
-0.331328
-0.462028
0.00972105
0.297797
0.172245
-0.106772
-0.377723
-0.440935
-0.46016
-0.376318
-0.4847
-0.511157
-0.0941226
0.163045
0.209638
0.127369
-0.0339725
0.248388
0.574805
0.359271
-0.0108251
-0.113991
0.149273
0.330836
0.381477
0.519584
0.52962
0.428241
0.41309
0.33545
0.305558
0.124487
-0.085787
0.138059
0.0496819
-0.207378
-0.151142
0.196342
0.0819241
-0.240603
-0.718008
-0.746174
-0.348655
-0.189025
-0.375812
-0.3542
-0.0850048
0.0878582
0.129395
0.170328
0.260007
0.360793
0.44941
0.519201
0.340046
-0.024584
0.0718646
0.326891
0.287671
0.313745
0.646922
0.774099
0.38615
-0.103823
0.189191
0.0652244
-0.209204
-0.202017
-0.0686523
0.0328916
0.0186843
-0.314992
-0.783564
-0.615507
-0.317899
-0.223269
-0.294846
-0.280222
0.0346632
0.177035
0.214007
0.239385
0.178584
0.216352
0.406315
0.62935
0.475643
0.127311
0.212617
0.434687
0.398342
0.238097
0.305339
0.307604
0.0613759
0.0376523
0.0246493
-0.114033
0.00822357
0.199475
0.0219251
0.00923403
-0.0170507
-0.319171
-0.761451
-0.749005
-0.432363
-0.168662
-0.188799
-0.274082
-0.116893
0.152441
0.230882
0.0945062
0.0989945
0.437247
0.521327
0.482446
0.270409
0.0904533
0.201738
0.360913
0.391095
0.375394
0.52346
0.45241
0.17103
-0.0195283
-0.339625
-0.172386
0.0436436
0.0362666
-0.025721
-0.0374641
0.0475143
-0.0658064
-0.567123
-0.837207
-0.695436
-0.239112
-0.0544672
-0.0713434
0.0413736
0.233241
0.280279
0.259954
0.190865
0.388278
0.491129
0.425238
0.223955
0.0799029
0.194662
0.337117
0.393537
0.373227
0.413591
0.487725
0.273753
-0.14651
-0.00359401
-0.137528
0.0263706
0.0501156
0.0209987
-0.050338
-0.131716
-0.268681
-0.537415
-0.658839
-0.546761
-0.272344
0.000307916
0.14651
0.0301675
0.177899
0.193896
0.14792
0.396497
0.489073
0.257874
0.177686
0.14579
0.152012
0.264562
0.284147
0.274396
0.379677
0.27873
0.126258
0.251799
0.259824
-0.210738
-0.489876
0.0689661
0.373048
0.188462
-0.230419
-0.358995
-0.349853
-0.385381
-0.493429
-0.51998
-0.281533
-0.0529804
0.0607665
0.176487
0.133151
0.0276459
0.211384
0.339248
0.214974
0.143717
0.148904
0.108283
0.25483
0.435266
0.382545
0.30879
0.467791
0.384689
0.269485
0.385059
0.276928
-0.303445
-0.36874
0.141086
0.486645
0.275057
-0.324589
-0.591677
-0.411826
-0.466529
-0.54916
-0.362405
-0.19597
-0.216962
0.0150523
0.523983
0.465808
0.022475
-0.00116676
0.31606
0.202147
-0.0664063
0.093975
0.397088
0.403776
0.374808
0.355395
0.367922
0.402199
0.350692
0.281377
0.275945
0.0484153
-0.254335
-0.310427
0.103481
0.375362
0.11717
-0.177596
-0.296352
-0.416908
-0.640836
-0.642738
-0.468259
-0.416665
-0.243533
0.164219
0.387565
0.303777
0.0116337
0.0896656
0.333292
0.287015
0.0951912
0.0684377
0.349398
0.462581
0.44246
0.410545
0.431512
0.477266
0.34006
0.11973
0.174207
0.12844
)
;

boundaryField
{
    wall
    {
        type            zeroGradient;
    }
    outlet
    {
        type            cyclic;
    }
    inlet
    {
        type            cyclic;
    }
    procBoundary2to1
    {
        type            processor;
        value           nonuniform List<scalar> 
256
(
0.0513147
-0.197231
-0.0674127
-0.0952961
-0.277635
-0.319034
-0.243974
-0.0695169
-0.182494
-0.572759
-0.374139
-0.268797
-0.479137
-0.284797
0.374115
0.302114
-0.0862323
-0.0979837
0.279362
0.589262
0.584145
0.456149
0.0802335
0.0372861
0.348789
0.436405
0.335669
0.245028
0.184874
0.259782
0.416185
0.387763
-0.00280014
-0.128667
-0.0512072
-0.165428
-0.207926
-0.192292
-0.227195
-0.104372
-0.37868
-0.75642
-0.383363
-0.0991275
-0.334817
-0.211111
0.22335
0.213518
-0.0576528
-0.159287
0.145865
0.530537
0.617788
0.505787
0.171955
0.0258539
0.314033
0.511114
0.420916
0.3365
0.192868
0.217889
0.391157
0.306842
-0.0444971
-0.200143
-0.0214994
-0.0513509
-0.10413
-0.0369781
-0.0826602
-0.0773106
-0.515274
-0.895633
-0.491539
-0.175424
-0.228453
-0.138985
0.180261
0.238107
0.135022
0.0182553
0.00667094
0.211579
0.463291
0.566943
0.424518
0.20626
0.238413
0.468378
0.412861
0.295103
0.30357
0.309282
0.292282
0.205616
-0.215835
-0.275322
-0.0309728
0.0330539
-0.0516948
0.0849339
0.00375956
-0.107711
-0.630192
-0.942241
-0.632295
-0.303406
-0.061127
0.00837582
0.0349771
0.133509
0.220321
0.0871207
0.0446285
0.410171
0.62456
0.450095
0.237801
0.113642
0.295113
0.472284
0.412596
0.351141
0.461545
0.542658
0.331573
0.126336
-0.13625
0.0179794
-0.0473466
-0.00463786
-0.14803
-0.111594
-0.229038
-0.32084
-0.581031
-0.681447
-0.440416
-0.16777
-0.0642804
0.0491543
-0.0498041
0.0137137
0.23363
0.289854
0.299328
0.384605
0.326884
0.147982
0.0815297
0.194047
0.296145
0.44373
0.546639
0.449033
0.261154
0.388437
0.446766
0.110645
-0.231854
-0.163246
0.0439972
0.369359
0.425397
-0.185715
-0.706826
-0.728428
-0.59635
-0.532802
-0.381219
-0.298409
-0.316036
0.0280082
0.196067
0.179626
0.261325
0.279919
0.227936
0.252059
0.273776
0.3231
0.182965
0.14208
0.368424
0.525202
0.538185
0.397576
0.20566
0.345665
0.45585
0.0887383
-0.195732
-0.264642
0.207826
0.508875
0.358915
-0.455517
-1.02674
-0.6119
-0.388223
-0.571749
-0.419103
-0.315244
-0.365471
-0.0473903
0.189873
0.197335
0.184625
0.195052
0.36679
0.379649
0.180185
0.147666
0.149479
0.0262022
0.345613
0.614203
0.635662
0.387016
0.0950556
0.319445
0.582265
0.297327
-0.161779
-0.315338
0.0615632
0.273676
0.129647
-0.27692
-0.615856
-0.520183
-0.426678
-0.485057
-0.240711
-0.156143
-0.314183
-0.0762761
0.148134
0.224299
0.195997
0.168735
0.261931
0.200741
-0.0807599
0.037001
0.364291
0.268075
0.29796
0.587288
0.755436
0.533433
0.237901
0.333442
0.31253
0.149661
)
;
    }
    procBoundary2to3
    {
        type            processor;
        value           nonuniform List<scalar> 
256
(
0.0478673
0.332099
0.0659375
-0.294683
-0.0572237
0.219456
0.00762561
-0.564048
-0.775424
-0.406185
-0.213876
-0.268153
-0.461469
-0.57276
-0.304294
-0.149185
0.100076
0.389216
0.416002
0.480179
0.70327
0.627971
0.410183
0.133192
0.199344
0.290726
0.220597
0.249784
0.464199
0.481461
0.0796854
-0.214935
0.0103698
0.106473
-0.000168904
-0.12491
-0.0197338
0.0535019
-0.112734
-0.603593
-0.843862
-0.49146
-0.262065
-0.219646
-0.087322
-0.290616
-0.349174
0.00842422
0.246856
0.427603
0.403752
0.31199
0.584118
0.699888
0.395753
0.0965967
0.169648
0.335079
0.345433
0.325832
0.433508
0.323842
-0.0241363
-0.145757
0.0879854
0.0848434
0.0649886
0.112103
0.00402217
0.0356179
-0.0698923
-0.46909
-0.784759
-0.681846
-0.425655
-0.292398
-0.180428
-0.267914
-0.130809
0.198567
0.294739
0.163439
0.0719057
0.213584
0.422829
0.569095
0.432019
0.244336
0.314472
0.370397
0.277716
0.350404
0.447071
0.264037
-0.0509122
-0.0413895
-0.546169
-0.153233
0.0230838
0.0459424
0.104776
0.0855076
-0.0282629
-0.339805
-0.679401
-0.707714
-0.500456
-0.346064
-0.15468
-0.0354045
0.0843899
0.322476
0.369918
0.190758
0.106932
0.302038
0.471216
0.572828
0.390791
0.157411
0.173555
0.403086
0.351261
0.258511
0.453784
0.561259
0.188671
-0.373668
-0.0116166
-0.070033
-0.0794454
0.0494261
0.192316
0.0871186
-0.131967
-0.420424
-0.675525
-0.704237
-0.575563
-0.418881
-0.148302
0.074299
0.106971
0.236175
0.194402
0.0257534
0.286105
0.411218
0.318101
0.302408
0.1678
0.144841
0.314312
0.41167
0.463011
0.403531
0.191361
0.0305302
0.239531
0.18475
-0.178097
-0.0451128
0.0739869
0.153428
0.178743
0.144681
-0.0730571
-0.408928
-0.752548
-0.770718
-0.325612
-0.16877
-0.199723
-0.0508261
0.100655
0.118985
0.0512112
0.13256
0.361572
0.430579
0.34151
0.136459
0.00648443
0.288995
0.570852
0.461847
0.25016
0.231641
0.320527
0.3432
0.128121
-0.0883564
-0.0507294
-0.120502
-0.0897698
0.00406936
-0.0138095
-0.130871
-0.194401
-0.215977
-0.49564
-0.593171
-0.299066
-0.232817
-0.370759
-0.170138
0.229543
0.0824135
-0.0590442
0.104157
0.295648
0.332621
0.425829
0.392052
0.258987
0.296793
0.365703
0.222485
0.0518507
0.168488
0.371623
0.511355
0.394843
0.0912936
-0.225429
-0.150085
0.058847
0.174053
0.0212545
-0.269732
-0.173872
-0.218457
-0.436746
-0.48511
-0.304705
-0.340111
-0.330206
-0.00211845
0.123746
0.0120375
0.0664829
0.2152
0.44247
0.514445
0.481694
0.304859
0.060824
0.156694
0.257517
0.202521
0.165682
0.209163
0.434662
0.553011
0.386291
0.0839867
)
;
    }
}


// ************************************************************************* //
