/*--------------------------------*- C++ -*----------------------------------*\
| =========                 |                                                 |
| \\      /  F ield         | OpenFOAM: The Open Source CFD Toolbox           |
|  \\    /   O peration     | Version:  2506                                  |
|   \\  /    A nd           | Website:  www.openfoam.com                      |
|    \\/     M anipulation  |                                                 |
\*---------------------------------------------------------------------------*/
FoamFile
{
    version     2.0;
    format      ascii;
    arch        "LSB;label=32;scalar=64";
    class       surfaceScalarField;
    location    "0.004";
    object      phi;
}
// * * * * * * * * * * * * * * * * * * * * * * * * * * * * * * * * * * * * * //

dimensions      [0 3 -1 0 0 0 0];

oriented        oriented;

internalField   nonuniform List<scalar> 
1200
(
0.00178667
6.71106e-07
-3.26385e-05
0.00175121
1.30324e-05
-9.15425e-06
0.00176846
-2.49364e-06
7.03352e-06
0.00178801
-5.13083e-06
1.82478e-05
0.00181539
-3.2769e-06
-1.92323e-05
0.00185878
-2.05476e-05
-4.98441e-05
0.00184427
-1.24091e-05
2.59753e-06
0.00182243
-7.06261e-06
-6.55511e-06
0.00184125
-5.63156e-06
-3.02043e-05
0.00184898
-2.59047e-06
-1.38304e-05
0.00182232
1.1467e-05
1.47126e-05
0.0018265
-8.37827e-07
-1.10978e-05
0.001825
-6.87265e-06
-1.58976e-05
0.00179287
5.62589e-06
-3.01856e-06
0.0017902
-2.81625e-06
7.25307e-06
0.00180988
-4.76594e-07
-1.44464e-06
0.00181471
6.56945e-06
-3.71176e-06
0.00183138
-4.71291e-06
1.32237e-05
0.00180491
4.66664e-06
3.8141e-05
0.00179609
5.51733e-06
1.6871e-05
0.00182805
-1.29143e-05
-9.98885e-06
0.00183502
-1.32215e-05
-4.36349e-05
0.00180281
2.76954e-06
-3.79365e-05
0.00178141
-2.46992e-06
-2.02923e-05
0.00177856
1.79788e-06
-6.55252e-06
0.00175602
1.28867e-05
3.26819e-06
0.00173731
1.34476e-05
2.84864e-05
0.0017367
8.03162e-06
3.77522e-05
0.00172984
1.18812e-05
3.12631e-05
0.0016893
2.71151e-05
4.47355e-05
0.00170432
-4.88671e-06
4.71844e-05
-1.95653e-05
-3.45618e-06
0.00175975
1.28651e-05
-1.075e-05
0.00175054
5.51133e-06
-9.67721e-07
0.00179753
-1.78343e-05
9.25742e-06
0.00183561
-1.49909e-05
2.30567e-05
0.00186239
-9.48323e-06
-8.29672e-06
0.00187939
-1.76234e-05
-5.32937e-05
0.0018555
-5.32687e-06
-1.46713e-05
0.00181335
1.11985e-06
-4.15917e-06
0.00178864
4.95524e-06
-1.36849e-05
0.00179082
-1.57658e-05
-8.52589e-06
0.00183455
-2.74272e-05
4.01746e-06
0.00186294
-1.45982e-05
-9.32792e-06
0.0018496
-4.13634e-06
-9.11945e-06
0.00183769
3.66347e-06
-3.42669e-06
0.0018194
8.77282e-06
1.18546e-05
0.00180311
1.6701e-05
5.07345e-06
0.00182616
-4.67488e-06
-1.04462e-05
0.00184203
-1.66692e-05
2.09968e-05
0.00183634
-6.58081e-07
2.85697e-05
0.00185707
-3.69444e-06
-1.32854e-06
0.00184667
1.79311e-06
6.07419e-06
0.0017999
1.70526e-06
-7.64136e-06
0.00180271
-1.56582e-05
-3.4576e-05
0.00179808
-9.40595e-06
-2.10882e-05
0.00179764
1.16646e-05
-1.77912e-05
0.00178973
2.49633e-05
-9.87456e-06
0.00179884
2.29033e-05
1.04512e-05
0.00180527
1.16158e-05
3.04851e-05
0.00181385
8.38922e-06
2.17837e-05
0.00182866
1.55062e-05
2.67348e-05
0.0018275
1.36457e-05
3.83353e-05
1.29264e-05
1.8261e-05
0.00176828
3.90619e-06
4.33931e-06
0.00176434
-1.09541e-06
8.07109e-06
0.0017778
-1.65313e-05
1.22876e-05
0.00181771
-2.92225e-05
8.05151e-06
0.00184521
-2.21067e-05
-1.10068e-05
0.00184305
-1.76245e-05
-3.06459e-05
0.00184356
-1.19066e-05
-1.26918e-05
0.00184673
-1.84039e-07
-1.42523e-05
0.00187404
-1.90518e-05
-1.77594e-05
0.00186787
-1.26468e-05
-1.17986e-05
0.00182231
9.01889e-06
3.93715e-06
0.00179384
1.68019e-06
3.68717e-07
0.00179518
-1.18384e-05
-1.3586e-05
0.00181659
-8.01169e-06
-1.07944e-05
0.00181551
7.53264e-06
-1.06293e-06
0.00182879
5.71438e-07
-1.70171e-05
0.00185762
-1.75096e-05
-8.36471e-06
0.00184938
-5.67344e-07
1.55149e-05
0.00185489
2.61987e-06
1.08473e-05
0.00186494
-6.07946e-06
2.69098e-06
0.00184359
1.2283e-05
1.27941e-05
0.00178012
2.91408e-05
-9.19262e-06
0.00172299
5.20974e-06
-9.81888e-06
0.00169626
-2.92751e-06
1.37987e-06
0.00170528
1.40681e-06
2.2643e-07
0.00175319
4.55572e-06
-1.25808e-05
0.00180353
-7.31712e-07
-5.21844e-06
0.00181335
2.28215e-06
2.10723e-05
0.00180849
1.56789e-05
1.79665e-05
0.00180402
3.31437e-05
1.97034e-05
0.00178072
3.97546e-05
3.53808e-05
2.67348e-05
1.15829e-05
0.00186456
-1.21002e-05
1.07319e-06
0.00181296
2.81903e-05
-1.96894e-06
0.00176231
2.09663e-05
7.76306e-06
0.00177996
-3.87426e-05
2.0985e-06
0.0018312
-6.65895e-05
-1.19962e-05
0.00186974
-5.11085e-05
-1.72061e-05
0.00188208
-4.36934e-06
-1.09489e-05
0.00186893
2.02876e-05
-1.34773e-05
0.00183085
3.97073e-07
-3.1909e-06
0.00181557
-1.19701e-05
-5.11638e-06
0.00183359
-1.90148e-05
-9.33425e-06
0.00182556
2.10121e-07
2.08457e-06
0.00176205
4.01578e-05
1.51383e-05
0.00172191
1.99237e-05
2.0203e-05
0.00172883
-6.68523e-06
-7.9885e-07
0.00172367
-1.10731e-05
-1.43879e-05
0.00170272
-2.88167e-06
2.78678e-06
0.00171064
-1.781e-06
7.35614e-09
0.0017198
4.4746e-07
2.11996e-06
0.00171017
-6.76124e-06
1.99406e-05
0.00170706
7.48359e-06
-5.66326e-07
0.00169851
2.42861e-05
-1.25056e-05
0.00168532
1.00941e-05
-5.81605e-06
0.00167404
2.62893e-06
1.17733e-05
0.00169082
-2.74886e-06
1.64818e-06
0.0017617
-2.95898e-05
-1.75434e-05
0.00180588
-2.81295e-05
-5.10009e-06
0.00177837
5.248e-06
1.4631e-05
0.00175874
3.42743e-05
1.33344e-05
0.00179976
2.62887e-05
-5.56646e-07
0.00180763
5.15968e-05
1.02342e-05
1.34677e-05
9.6139e-06
0.00188622
4.06612e-05
7.22096e-06
0.00187105
4.61807e-05
-7.91463e-06
0.00182521
4.17931e-05
8.96001e-06
0.00175843
-9.95588e-06
2.01907e-05
0.00176324
-7.21774e-05
-8.21207e-06
0.00179336
-6.10777e-05
-1.73842e-05
0.00184807
-1.70317e-05
-1.75712e-05
0.0018486
1.5817e-05
1.58979e-05
0.00179881
1.93759e-05
1.28427e-05
0.00176153
1.2239e-05
-7.49976e-06
0.0017129
9.70453e-06
3.26787e-06
0.00167168
1.17924e-05
1.56353e-05
0.00171128
1.41899e-05
4.86861e-06
0.00177299
-1.59285e-05
8.14242e-06
0.00178705
-1.08563e-06
-1.28829e-05
0.00174978
9.95153e-06
-8.4757e-07
0.00172
6.41027e-06
9.72064e-06
0.00172295
-1.5984e-06
-4.17916e-06
0.00172607
4.98503e-06
-7.65237e-06
0.00169947
7.94889e-06
4.27368e-06
0.00172502
-1.55245e-05
-9.41972e-06
0.00178374
-1.66172e-05
-6.42103e-06
0.00180778
-1.46293e-05
2.33894e-06
0.0018061
-4.31712e-06
4.70919e-06
0.00183091
-1.1334e-05
-1.15627e-05
0.00186419
-4.07252e-05
-8.17105e-06
0.00186382
-2.85361e-05
6.67803e-06
0.00185207
9.38848e-06
-5.77844e-06
0.00183185
4.85405e-05
1.42293e-05
0.00186993
7.89273e-06
1.33722e-05
0.00196148
-6.82657e-07
-2.28296e-05
1.73266e-05
-3.98614e-06
0.00187121
2.8082e-05
-2.23882e-05
0.00189232
2.04456e-05
-1.22419e-05
0.00190928
6.71834e-06
2.06276e-06
0.00188888
4.32735e-06
4.38493e-06
0.00180521
-7.19731e-06
1.33678e-05
0.00174497
-1.57759e-05
1.98798e-05
0.00177165
-1.51774e-05
-3.5148e-06
0.00181376
-9.31217e-06
8.98742e-06
0.00182181
1.57918e-06
5.48602e-06
0.00185673
-6.50262e-06
-1.05706e-05
0.0018711
4.5784e-06
-2.27308e-06
0.00185225
1.87734e-05
1.83669e-05
0.00184923
2.44733e-05
9.94915e-06
0.00180297
1.97826e-05
8.73195e-06
0.00177933
5.5135e-06
-4.54542e-07
0.00177916
-2.42275e-06
-1.17062e-06
0.00174422
2.5696e-05
2.85061e-06
0.00171628
1.36864e-05
-1.47326e-05
0.00171663
-8.77063e-06
-8.27552e-06
0.00173881
-1.1855e-05
4.98357e-06
0.00176134
-2.88502e-05
5.25223e-06
0.00179636
-3.36197e-05
1.4808e-05
0.00181767
-2.50815e-05
9.4505e-06
0.00182304
-1.81167e-05
-1.65058e-05
0.00181663
-1.1157e-05
-1.44365e-05
0.00179262
-9.57539e-06
1.62943e-05
0.00177654
-1.91518e-05
2.18809e-05
0.00177712
-1.76223e-06
1.32343e-05
0.00182151
2.6062e-05
-2.44282e-05
0.00182106
3.27439e-05
-2.83217e-05
0.00182286
-1.77882e-06
-1.39355e-05
-6.64149e-06
-1.47803e-05
0.00183201
1.18666e-05
-2.99706e-05
0.00183522
1.1787e-05
-1.77689e-05
0.00181133
8.91966e-06
-2.4814e-06
0.00182226
7.30091e-06
-1.35522e-05
0.00179509
2.92258e-06
1.20889e-05
0.00174968
-4.47864e-06
3.28118e-05
0.00177987
-7.52901e-06
-9.78639e-06
0.00181944
-1.63848e-05
-1.19804e-06
0.00179972
1.59833e-06
2.35811e-05
0.00178968
1.76593e-06
9.77615e-06
0.00178367
6.98674e-06
1.07824e-05
0.00177481
1.04874e-05
3.26668e-05
0.00178809
1.01612e-05
2.69104e-05
0.00182755
5.13728e-06
-1.82712e-05
0.00185656
-8.64108e-06
-2.92733e-05
0.00186301
-4.29552e-06
-1.76793e-05
0.00191262
7.22136e-06
-2.56115e-05
0.0019266
9.53922e-07
-1.15577e-05
0.00190698
-1.3651e-05
5.296e-06
0.00188901
-1.14913e-05
1.9366e-05
0.00185145
4.69394e-08
2.36915e-05
0.00182951
-1.44405e-05
1.8133e-05
0.00183338
-3.12183e-05
3.25854e-06
0.00181003
-8.41997e-06
-1.06159e-05
0.00178862
-3.42531e-06
4.1425e-06
0.00176998
-1.10493e-05
3.40065e-05
0.00178059
-4.79413e-06
2.46666e-05
0.00178296
-5.2004e-07
1.56658e-06
0.00183664
-1.41105e-05
-4.88748e-05
0.0018668
7.45751e-06
-4.21602e-05
0.00182313
2.393e-05
2.72478e-06
1.65159e-05
-1.03193e-05
0.00181013
-1.54883e-05
0.00182284
-1.02861e-05
0.00183329
-8.6981e-06
0.00187607
-2.77849e-05
0.00188243
-1.16633e-05
0.00186218
4.86844e-06
0.00189312
-2.01924e-05
0.00189956
-1.15411e-07
0.00185732
4.28603e-05
0.00183009
3.49154e-05
0.00182859
2.03768e-05
0.00183533
2.76438e-05
0.00185554
1.58482e-05
0.00185836
-1.98532e-06
0.00185308
-8.60738e-06
0.00187755
-3.10617e-05
0.00191809
-3.43205e-05
0.00192388
-1.2312e-05
0.00186932
1.79514e-05
0.00183193
1.58388e-05
0.00181386
2.02616e-05
0.00180176
1.90346e-05
0.00175747
7.96755e-06
0.0017439
-6.11666e-06
0.00176411
-1.45984e-06
0.00176074
3.147e-05
0.00177085
3.09385e-05
0.00178259
-7.01292e-06
0.00174915
-2.66204e-05
0.0017186
-2.55833e-05
0.00175434
-1.5136e-05
-2.1001e-05
0.00179017
1.09153e-05
0.00172923
3.33049e-05
0.00170139
1.6778e-05
0.00172417
3.13486e-06
0.0017771
-1.39343e-05
0.00178282
-2.74994e-05
0.00180177
-7.93144e-06
0.00179805
5.39338e-06
0.00178289
4.72866e-06
0.00179596
-1.95514e-06
0.00181839
-3.9562e-06
0.00180452
-6.84846e-06
0.00180443
-1.19696e-05
0.0017947
9.34688e-06
0.00177579
1.08714e-05
0.00176323
-1.4039e-05
0.00174074
1.04212e-06
0.00174116
1.62739e-05
0.00177523
-1.07878e-06
0.00180534
-1.73414e-05
0.00178743
3.94951e-07
0.0017379
1.17934e-05
0.0017027
9.57509e-06
0.00167449
1.20006e-05
0.00165263
9.29514e-06
0.00164466
-2.65304e-06
0.00167306
-1.08643e-05
0.00172216
-1.65829e-05
0.0017356
4.39418e-06
0.00174689
2.22212e-05
0.00181149
-1.9273e-05
-2.9677e-05
0.00169351
2.61028e-05
0.00167642
4.28951e-05
0.00171566
-1.95251e-05
0.001797
-3.5e-05
0.00181825
-1.61039e-06
0.00177443
3.00913e-06
0.00178587
-1.59416e-05
0.00178995
-1.09515e-05
0.00177394
1.13168e-05
0.00179015
-1.42268e-05
0.0018205
-3.70081e-05
0.00180434
-1.07013e-05
0.00178504
-3.08024e-06
0.00179373
4.38801e-06
0.00179941
7.55318e-06
0.00176228
1.60136e-06
0.00172878
1.04041e-05
0.0017749
-3.48649e-06
0.00181157
-8.3035e-06
0.00179105
-3.58488e-06
0.0017958
-5.49786e-06
0.00177557
9.13094e-06
0.00174181
1.39385e-05
0.00172202
1.99596e-05
0.00169359
2.38782e-05
0.00167193
8.61949e-06
0.00168392
-7.75907e-06
0.00169208
-4.62387e-06
0.00169469
1.17822e-05
0.00173668
7.67883e-06
0.00175904
-1.42386e-05
-5.15228e-06
0.00172402
-3.7969e-07
0.00179483
-1.69887e-05
0.00180142
-2.14646e-05
0.00178797
-1.54665e-05
0.00181561
-1.47835e-05
0.00184469
-5.00327e-06
0.00184328
-1.44108e-06
0.00182009
5.55651e-06
0.00183683
-4.33539e-06
0.00184939
-2.82128e-05
0.0018033
-3.08602e-06
0.001765
1.00266e-05
0.00171809
2.2624e-05
0.00170036
1.01699e-05
0.00170059
4.47982e-06
0.00168162
1.95516e-06
0.0017042
-2.83027e-06
0.00176172
-2.35366e-05
0.00176957
-1.50189e-05
0.00174144
-1.62245e-07
0.00172428
1.21119e-05
0.00168091
3.02496e-05
0.00164032
2.27973e-05
0.00163095
6.38995e-06
0.00164575
-3.05503e-06
0.00166868
-1.70113e-06
0.00170093
-1.38884e-05
0.00170864
5.45046e-06
0.00171157
1.5765e-05
0.00171823
9.76146e-06
0.0017156
2.55299e-06
1.78466e-05
0.00175926
-2.61802e-06
0.00172218
1.47726e-05
0.00168932
5.86891e-06
0.00169346
-2.90661e-05
0.00174921
-5.94055e-05
0.00183638
-5.35013e-05
0.00186112
-2.39327e-07
0.00180295
3.78719e-05
0.00175318
1.99019e-05
0.00169768
-2.65165e-06
0.00167417
-9.18986e-06
0.00167338
7.43269e-06
0.00167612
3.41242e-05
0.00169845
1.01606e-05
0.00172101
-1.21813e-05
0.00172189
-5.94371e-06
0.0017276
-1.28483e-06
0.00170627
-3.939e-06
0.00170632
-1.34029e-05
0.00173354
-1.33184e-05
0.00172228
1.4468e-05
0.00170965
2.62288e-05
0.00170127
1.11826e-05
0.00170758
-1.60048e-05
0.00171687
-9.28307e-06
0.00171445
2.75486e-06
0.00172034
-5.3265e-06
0.00171903
2.14368e-05
0.0016948
4.61396e-05
0.00168743
1.19009e-05
0.00170252
-8.04097e-06
-1.29563e-05
0.00176399
1.19495e-05
0.00172721
4.26888e-05
0.00171158
1.81456e-05
0.00172594
-4.42543e-05
0.00170629
-3.65938e-05
0.00168254
-2.82683e-05
0.00168756
-1.11163e-05
0.00175543
1.77839e-05
0.00175479
3.40812e-05
0.00169612
2.13527e-05
0.00165311
5.65326e-06
0.0016512
1.0858e-05
0.00168223
8.74464e-06
0.00173631
-1.78474e-05
0.00172138
6.17572e-07
0.00170333
-3.7551e-07
0.0017043
-1.06177e-05
0.00170353
1.52259e-06
0.00169333
3.0116e-06
0.00167902
4.75817e-06
0.00167063
3.93203e-06
0.00169356
-6.74985e-08
0.0017358
-2.1764e-05
0.00175262
-3.38742e-05
0.00173404
-6.38442e-06
0.00175197
-8.8975e-06
0.001762
-3.04656e-06
0.00173545
3.96531e-05
0.00176109
2.30325e-05
0.0017799
1.58484e-06
0.00175905
-4.53496e-06
-8.37613e-06
0.00168898
1.17436e-05
0.00172763
1.39419e-05
0.00173105
7.22914e-06
0.0016651
-1.77191e-05
0.00165357
-2.12987e-05
0.0016884
-1.96008e-05
0.0017187
-2.07705e-05
0.00180468
-1.41182e-05
0.0018468
3.91385e-06
0.00179905
1.61862e-05
0.00176656
1.4945e-05
0.00176058
3.79611e-05
0.00175961
2.47467e-05
0.00174669
-6.86052e-06
0.00174932
-1.17325e-05
0.00176302
-1.41055e-05
0.00175015
-7.9185e-06
0.00169911
1.37884e-05
0.00168559
9.15842e-06
0.00171531
-1.55519e-05
0.00173906
-1.6963e-05
0.00176102
-1.07035e-05
0.0017652
-1.43396e-05
0.00174517
-1.80141e-05
0.00175982
-1.83422e-05
0.00176516
-6.60263e-06
0.00176545
-3.01862e-06
0.00182896
7.12492e-06
0.00184672
1.12825e-05
0.00180202
2.53128e-05
0.00173916
3.0005e-05
1.60982e-05
0.00171727
2.02232e-05
0.00171349
1.46644e-05
0.00172542
-3.09918e-06
0.00168171
-6.47115e-06
0.00166598
-1.86003e-05
0.00169808
-2.88791e-05
0.00171531
-2.20431e-05
0.00176835
-2.16886e-05
0.00180994
-5.67225e-06
0.00177937
2.6639e-05
0.00175299
2.46129e-05
0.00179905
1.32643e-05
0.00183632
1.69434e-05
0.00181838
4.28243e-06
0.00179624
-9.81913e-06
0.00178644
-2.03236e-05
0.00178117
-1.34737e-05
0.00177679
4.11728e-06
0.00176755
2.74696e-06
0.00175705
-8.96609e-06
0.00175393
7.051e-06
0.00175883
-3.00498e-06
0.00175543
-1.55223e-05
0.00171693
4.79755e-06
0.0017055
-1.3749e-06
0.00173334
-1.00514e-05
0.00175069
-5.90332e-06
0.00175479
-6.94387e-06
0.00174449
-1.10375e-05
0.00172415
2.1536e-05
0.00174719
2.14306e-05
1.36184e-05
0.00176056
0.00179732
0.00180068
0.00175656
0.00172487
0.00170183
0.00166457
0.00164531
0.00167364
0.00171759
0.00174159
0.00175489
0.00178307
0.0017939
0.00177738
0.0017473
0.0017349
0.00173045
0.00171645
0.00171652
0.00174364
0.00175773
0.00173724
0.00173511
0.0017223
0.00172191
0.00174525
0.00173978
0.00171864
0.00172259
0.00174881
)
;

boundaryField
{
    wall
    {
        type            calculated;
        value           uniform 0;
    }
    outlet
    {
        type            cyclic;
        value           nonuniform List<scalar> 
16
(
0.00176541
0.0017913
0.00176847
0.0018339
0.00195253
0.00184267
0.00179563
0.00178947
0.0018361
0.00173205
0.00169257
0.00174509
0.00176417
0.00169012
0.00174388
0.00174621
)
;
    }
    inlet
    {
        type            cyclic;
        value           nonuniform List<scalar> 
16
(
-0.00176541
-0.0017913
-0.00176847
-0.0018339
-0.00195253
-0.00184267
-0.00179563
-0.00178947
-0.0018361
-0.00173205
-0.00169257
-0.00174509
-0.00176417
-0.00169012
-0.00174388
-0.00174621
)
;
    }
    procBoundary2to1
    {
        type            processor;
        value           nonuniform List<scalar> 
256
(
1.07103e-05
3.15858e-05
-2.17925e-05
-3.26652e-05
-4.87624e-06
2.69987e-05
2.43253e-05
3.54559e-05
1.70202e-05
8.68971e-06
4.75342e-07
7.76126e-06
2.42691e-05
2.95267e-05
-1.76957e-06
-1.77653e-05
-7.68424e-06
-2.51777e-05
-1.63407e-05
-1.35624e-05
-9.05935e-06
4.98869e-05
6.73783e-05
4.41587e-05
7.60428e-06
6.38082e-06
-2.32215e-05
-4.5169e-05
-3.62896e-05
-3.13048e-05
-5.73186e-05
-3.80736e-05
3.0104e-05
1.77011e-05
-4.09009e-05
-5.12812e-05
-1.2273e-05
3.33631e-05
3.14843e-05
3.81233e-05
2.78101e-05
1.9522e-05
-8.84985e-06
-5.30992e-06
1.9724e-05
1.72995e-05
-5.15668e-06
-5.96016e-06
-1.35362e-06
-2.49122e-05
-1.7555e-05
-1.0186e-05
-1.03853e-05
3.94868e-05
5.01923e-05
3.26522e-05
8.36116e-06
5.71389e-06
-2.90161e-05
-4.04987e-05
-2.68732e-05
-2.99386e-05
-5.5703e-05
-1.45598e-05
4.81804e-06
2.4726e-06
-2.70513e-05
-3.37337e-05
-3.872e-06
3.28084e-05
1.87646e-05
1.23854e-05
1.44621e-05
1.48484e-05
5.17356e-06
1.18191e-05
1.99554e-05
1.0596e-06
3.37573e-06
1.98745e-05
-7.63417e-06
-2.33756e-05
-1.96389e-05
-1.03525e-05
-1.93445e-06
4.52291e-05
4.60737e-05
1.88704e-05
1.01625e-06
-1.49186e-05
-2.14935e-05
-2.15573e-05
-2.0397e-05
-3.28641e-05
-3.81949e-05
-1.31433e-05
-1.57286e-05
2.42784e-05
5.38961e-06
-1.02281e-05
5.23791e-06
1.21574e-05
-8.92749e-06
6.15157e-06
2.18199e-05
1.97252e-05
1.93445e-05
7.41949e-06
-3.62553e-06
-7.99856e-06
8.09816e-06
3.11878e-05
3.53081e-06
-6.70963e-06
-9.11073e-06
-9.62099e-06
8.46751e-06
2.59113e-05
1.41223e-05
-6.0464e-06
-1.42754e-05
-1.91932e-05
-1.16826e-05
9.91747e-06
-1.22955e-05
-3.36142e-05
-2.99438e-05
-2.26151e-05
6.32748e-06
5.09029e-06
1.60556e-05
1.77979e-05
8.9959e-06
-2.76345e-06
-2.44765e-05
-1.19613e-05
1.79649e-05
2.05786e-05
1.6642e-05
1.39982e-05
-1.84966e-05
-3.40077e-05
-6.7773e-06
1.70954e-05
1.07654e-05
1.05176e-06
-8.67694e-09
7.62275e-06
6.87843e-06
-1.14016e-05
-1.65575e-06
3.91375e-06
-4.65825e-06
-1.39707e-05
-5.90308e-06
1.3385e-05
-8.26927e-06
-3.30557e-05
-1.64417e-05
9.07565e-06
6.4275e-06
1.68648e-05
1.60507e-05
1.73942e-06
5.31643e-06
-4.93847e-06
-2.50219e-05
-2.59706e-05
4.25865e-06
-5.6026e-06
-6.96925e-06
-6.50231e-06
-1.7212e-05
1.82272e-06
1.74949e-05
1.37074e-05
1.28048e-05
2.73894e-05
2.16837e-05
-7.35627e-06
-1.44652e-05
-3.2819e-05
-2.03138e-05
2.49347e-05
2.06767e-05
-2.34361e-05
-1.51846e-05
-2.66507e-06
2.51562e-06
3.92521e-06
1.32275e-05
1.89392e-05
9.80422e-06
2.32149e-05
2.41672e-05
-3.50415e-07
4.9593e-06
1.30566e-06
-2.80548e-05
-3.12943e-05
-3.87997e-06
-8.01198e-06
-7.17165e-06
-1.55254e-05
-2.5883e-05
-6.54254e-06
1.44187e-05
1.31003e-05
-5.5226e-06
1.03108e-05
1.92067e-05
-1.7597e-06
-1.50276e-05
-1.53698e-05
-9.92424e-07
2.42702e-05
9.53246e-06
-1.38924e-05
-4.96313e-05
-5.18296e-06
3.53673e-05
3.72912e-05
1.52332e-05
1.46657e-05
6.69326e-06
9.36488e-06
7.1739e-06
-7.69649e-06
8.2262e-06
1.09062e-05
-1.82802e-05
-2.2709e-05
9.75312e-07
-5.91985e-06
-1.1883e-05
-2.39053e-05
-2.58889e-05
4.29939e-06
5.24279e-06
2.29455e-06
1.00238e-06
7.47874e-06
2.29581e-05
1.00604e-05
-2.14213e-06
-2.13805e-05
5.10478e-06
1.12659e-05
-2.2172e-05
-3.91523e-05
-4.58415e-05
-5.24422e-06
4.59456e-05
6.35924e-05
3.32852e-06
2.38336e-06
)
;
    }
    procBoundary2to3
    {
        type            processor;
        value           nonuniform List<scalar> 
256
(
2.37693e-06
1.84754e-05
1.80989e-05
-7.66616e-06
-5.82253e-05
-2.80718e-05
-8.41581e-06
-8.22851e-06
-1.97756e-05
-2.49455e-05
-3.7609e-06
9.61838e-06
-3.83191e-06
-2.64017e-06
1.52965e-05
2.51456e-05
1.77424e-05
-3.47318e-06
5.15606e-06
4.09526e-06
7.52346e-06
-5.8952e-06
-1.23068e-05
-4.08821e-06
6.01164e-06
1.3891e-05
1.09507e-05
5.24013e-06
1.34226e-05
1.12318e-05
1.85528e-06
1.61006e-06
1.26074e-05
6.52874e-06
6.31695e-06
-2.0144e-05
-4.18679e-05
-3.99887e-05
-1.80979e-05
8.10944e-06
-4.26491e-06
-1.24683e-05
6.72541e-06
1.06783e-05
1.29781e-06
-7.16742e-06
9.49989e-06
2.6557e-05
1.3698e-05
-5.36944e-06
-8.66985e-07
5.43441e-06
7.21474e-06
1.52538e-05
-5.18339e-06
-9.26098e-06
-3.94317e-06
5.17153e-07
-4.64185e-06
1.03594e-05
1.17872e-05
-7.11934e-07
1.09356e-05
2.07291e-05
-6.25969e-07
-2.85656e-06
7.64233e-06
1.96594e-06
-2.54756e-05
-5.17107e-05
-2.57817e-05
-7.56891e-06
-1.88522e-05
-1.03719e-05
1.61017e-05
1.79473e-05
7.61633e-06
1.15782e-06
1.78221e-06
1.59139e-06
-1.7704e-05
-2.19565e-05
9.70773e-06
2.74062e-05
1.23409e-05
1.30587e-05
2.1916e-05
2.43175e-05
1.23617e-05
-2.5194e-05
-3.13382e-05
3.29009e-06
1.10482e-05
1.09651e-05
2.12156e-05
1.16109e-05
-1.08527e-05
3.34299e-06
1.32971e-05
1.15536e-05
-2.31261e-05
-5.58742e-05
-3.68941e-05
1.23826e-05
2.23359e-05
2.48244e-05
2.0282e-05
5.4629e-06
8.99774e-07
-2.11176e-06
-6.70638e-06
-7.36646e-06
-4.46538e-06
1.74232e-06
4.49183e-07
5.87857e-06
8.34068e-06
4.13809e-06
1.41778e-05
2.78566e-05
-1.4065e-06
-1.95815e-05
-1.95502e-05
-4.88144e-08
7.19605e-06
4.6654e-06
5.74554e-06
-2.15913e-06
-7.16634e-06
9.47168e-07
1.23148e-05
2.10159e-05
-1.1371e-05
-1.88629e-05
-1.17205e-05
-3.18777e-05
-6.9751e-07
2.71667e-05
3.1432e-05
1.41139e-05
-7.79907e-07
-1.79261e-05
-1.07538e-05
1.16394e-05
1.80753e-05
-8.86731e-06
-1.38629e-05
5.05273e-07
9.50799e-06
-3.0549e-06
-6.95455e-06
5.75882e-06
4.11345e-06
-1.4451e-05
-5.62969e-06
2.56119e-06
1.16951e-05
4.87546e-06
-5.4877e-06
-1.36839e-05
-2.10384e-05
-2.21459e-05
9.55888e-06
4.38015e-05
9.5963e-06
-2.3613e-05
-2.41593e-05
-4.50906e-05
-6.46908e-06
4.23486e-05
2.09222e-05
-2.7579e-06
-5.07664e-06
1.06592e-05
9.26551e-06
-1.13952e-06
1.30228e-05
2.40383e-05
-8.95972e-07
-4.43487e-06
2.39911e-06
3.48543e-06
-2.15319e-06
-1.23355e-05
-1.71236e-05
8.65508e-06
2.15622e-05
-1.77489e-05
-3.04354e-05
-7.35018e-06
1.43819e-05
9.7866e-06
-1.18474e-05
-1.47112e-05
-4.07527e-06
1.89035e-05
2.5123e-05
9.99007e-06
-2.57442e-05
-4.66625e-05
-8.42744e-06
2.98937e-05
2.74991e-05
1.13037e-05
-2.55747e-06
-1.14751e-05
-9.04727e-06
-1.66647e-06
-1.47851e-05
2.49427e-06
2.09484e-05
2.32818e-05
2.79319e-06
5.53821e-06
7.83983e-06
5.07618e-06
-1.39322e-06
9.60791e-06
1.02008e-05
1.15408e-05
-1.62596e-05
-1.80346e-05
-1.17425e-05
-4.52964e-06
-9.61566e-06
-3.23824e-05
-1.51496e-05
9.86408e-06
1.4244e-06
-9.75494e-07
-4.96969e-06
-2.54845e-06
8.85757e-06
1.76041e-05
2.09894e-05
2.76158e-05
4.61076e-06
-8.53489e-06
-1.90559e-06
-2.13096e-05
-3.53933e-05
-3.74551e-06
3.46984e-05
6.80534e-06
1.90523e-07
1.93635e-06
1.29393e-05
8.16505e-07
9.96621e-06
2.18102e-05
1.70068e-06
-8.48994e-06
-1.65187e-05
-7.99796e-06
-1.99229e-05
-4.78555e-06
)
;
    }
}


// ************************************************************************* //
