/*--------------------------------*- C++ -*----------------------------------*\
| =========                 |                                                 |
| \\      /  F ield         | OpenFOAM: The Open Source CFD Toolbox           |
|  \\    /   O peration     | Version:  2506                                  |
|   \\  /    A nd           | Website:  www.openfoam.com                      |
|    \\/     M anipulation  |                                                 |
\*---------------------------------------------------------------------------*/
FoamFile
{
    version     2.0;
    format      ascii;
    arch        "LSB;label=32;scalar=64";
    class       volVectorField;
    location    "0.004";
    object      U_0;
}
// * * * * * * * * * * * * * * * * * * * * * * * * * * * * * * * * * * * * * //

dimensions      [0 1 -1 0 0 0 0];

internalField   nonuniform List<vector> 
512
(
(10.3886 -0.0514309 -0.163556)
(10.5848 0.00243459 -0.443388)
(10.8211 -0.0149545 -0.249166)
(10.6576 0.049197 0.144491)
(10.3477 0.00497502 -0.0784785)
(9.70541 -0.0869301 -0.272627)
(9.23722 -0.0857105 -0.110589)
(9.20729 -0.0403884 -0.108317)
(9.39099 -0.0449865 -0.236104)
(9.59493 -0.0853794 -0.125045)
(9.64168 -0.0185979 -0.0629884)
(9.60546 0.0238213 -0.125582)
(9.64277 0.00540443 -0.135724)
(9.70026 0.00546374 -0.130013)
(9.67522 -0.00366528 0.0138184)
(9.85285 0.0156868 0.00534861)
(9.9436 0.0353323 -0.0824599)
(9.69717 0.0903038 0.24603)
(9.83317 0.0920493 0.42142)
(9.95044 0.0226381 0.381419)
(10.241 -0.0771994 -0.00104683)
(10.5714 -0.131645 -0.41238)
(10.5323 -0.0686674 -0.502549)
(9.86124 0.0257314 -0.479802)
(10.1057 0.0668887 -0.231828)
(10.3084 0.0925956 -0.0158692)
(9.80146 0.0831671 0.303083)
(9.3728 0.102332 0.302798)
(9.90649 0.166339 0.287256)
(10.3983 0.0742789 0.575594)
(10.8 -0.11322 0.791167)
(10.7925 -0.157739 0.447352)
(10.7261 0.0498445 -0.284927)
(10.6872 -0.058338 -0.23451)
(10.9006 -0.124863 0.0313577)
(10.7792 -0.0352844 0.305401)
(10.2297 -0.101969 -0.0378921)
(9.64601 -0.201437 -0.384114)
(9.34822 -0.123609 -0.196138)
(9.30952 -0.0623059 -0.100074)
(9.41837 -0.0592097 -0.208239)
(9.68679 -0.0931674 -0.083684)
(9.766 -0.0856054 -0.0205535)
(9.68099 -0.105237 -0.1155)
(9.69342 -0.0924463 -0.148025)
(9.75286 -0.0260569 -0.0601611)
(9.7253 -0.0153723 -0.00131183)
(9.96793 0.150317 -0.0762602)
(10.0709 0.151683 -0.122001)
(9.8337 0.0689614 0.268264)
(9.78535 0.0825675 0.412122)
(9.89466 0.00230551 0.22444)
(10.0219 -0.0687826 0.0468551)
(10.7051 -0.139131 -0.295124)
(10.7976 -0.142821 -0.377145)
(10.0154 -0.0983047 -0.331103)
(10.1903 0.141015 -0.201779)
(10.3913 0.266965 -0.035717)
(9.90789 0.2441 0.221395)
(9.60642 0.164653 0.221832)
(9.79552 0.22969 0.121108)
(9.9864 0.197102 0.580462)
(10.6747 -0.063517 0.754007)
(10.9745 -0.0411399 0.196141)
(10.4754 0.265333 -0.233719)
(10.4878 -0.0893035 -0.140116)
(10.8305 -0.300389 0.0623551)
(10.8393 -0.367437 0.194295)
(10.121 -0.346968 -0.108377)
(9.68362 -0.219703 -0.225169)
(9.44487 -0.0678251 -0.112691)
(9.32792 -0.0241484 -0.127236)
(9.42732 -0.0682373 -0.157638)
(9.63573 -0.166886 -0.136127)
(9.68631 -0.175529 -0.0720684)
(9.643 -0.162228 -0.130175)
(9.77861 -0.105487 -0.234876)
(9.79936 0.00845862 -0.0437548)
(9.92845 0.0899421 -0.0197346)
(10.0524 0.117226 -0.140062)
(9.94063 -0.023272 -0.034994)
(9.71874 -0.0978924 0.198937)
(9.78553 -0.0233085 0.255398)
(9.86336 0.0154419 0.236944)
(10.1122 0.175973 0.103743)
(10.6093 0.169876 -0.225418)
(10.5995 -0.0342594 -0.321281)
(10.2521 -0.027211 -0.111269)
(10.4284 0.118971 -0.00242543)
(10.4246 0.171573 0.0435323)
(9.84562 0.153237 0.112921)
(9.54688 0.0789604 0.100347)
(9.74767 0.0247542 0.0918907)
(9.93769 0.205173 0.467907)
(10.8243 0.375469 0.532413)
(11.0466 0.392249 0.20417)
(10.3559 0.00543837 -0.0256866)
(9.94777 0.125548 -0.308868)
(10.5843 -0.241718 -0.110301)
(10.7616 -0.520281 -0.0111183)
(10.3428 -0.524623 -0.0660433)
(9.95567 -0.399839 -0.00605254)
(9.57242 -0.146985 0.0331133)
(9.31917 0.0679179 -0.0460617)
(9.27861 0.0325203 -0.148407)
(9.58058 -0.186763 -0.31572)
(9.77721 -0.325422 -0.250513)
(9.74878 -0.106762 -0.0399624)
(9.86257 0.189152 0.041229)
(9.88752 0.255554 0.142633)
(9.82165 0.121777 0.0327136)
(9.85679 -0.0552528 -0.101544)
(9.85828 -0.228337 0.0213707)
(9.81456 -0.164595 0.0280118)
(9.96232 -0.00549621 0.143594)
(10.047 0.0362511 0.30888)
(10.3419 0.337108 0.00558025)
(10.4511 0.408074 -0.195444)
(10.3227 0.124061 -0.110864)
(10.2785 0.0372975 0.0279022)
(10.4452 -0.0293108 0.0768776)
(10.3813 -0.178506 0.0779559)
(9.83437 -0.223511 0.0754727)
(9.44405 0.0147172 -0.0746215)
(10.0735 0.431084 0.0899451)
(10.3001 0.535263 0.2198)
(10.7859 0.385094 0.310361)
(10.9018 0.236846 0.232054)
(10.5196 -0.0565077 -0.0610401)
(10.2241 0.168108 -0.214367)
(10.1949 0.254663 -0.119577)
(10.405 -0.287921 -0.0171282)
(10.4087 -0.522323 -0.0403792)
(10.0972 -0.465464 -0.0169679)
(9.90257 -0.257207 -0.0232522)
(9.49386 0.0563614 0.0620746)
(9.25283 0.141143 0.0236041)
(9.27285 0.0487286 -0.33133)
(9.82442 0.0225855 -0.183445)
(10.0664 0.151292 0.0172716)
(10.0296 0.149564 0.0997655)
(9.85359 0.00880371 0.151022)
(9.65479 0.0406966 0.0433321)
(9.57305 -0.0211858 0.00791735)
(9.87436 -0.141606 0.100527)
(9.93454 -0.098144 -0.00493738)
(10.0386 0.0602599 0.0217479)
(10.2403 0.0972966 0.0908988)
(10.4405 0.0765683 0.0257085)
(10.4435 0.0704322 0.0245168)
(10.1738 -0.022744 0.0896569)
(10.0741 -0.00482721 -0.00164038)
(10.2209 -0.183236 -0.0577472)
(10.2599 -0.448033 0.115569)
(10.1215 -0.591547 0.213977)
(10.0924 0.0466408 -0.0577799)
(10.1774 0.696836 0.0597386)
(10.172 0.633697 0.146968)
(10.2711 0.374988 -0.0883088)
(10.5372 -0.027732 -0.0636343)
(10.7617 0.200511 -0.19958)
(10.2542 0.318594 -0.125124)
(9.99823 0.166064 0.0193424)
(10.0368 -0.0345174 -0.0366526)
(10.0878 -0.302657 -0.0705254)
(10.2427 -0.321291 0.0115532)
(10.1866 -0.22936 0.0241395)
(9.65935 -0.0397886 0.158036)
(9.29689 0.0989988 0.155173)
(9.41524 0.156053 -0.096474)
(9.85937 0.242734 -0.17809)
(9.98852 0.335773 0.0248717)
(9.73646 0.122217 0.143631)
(9.74909 -0.16387 0.0679129)
(9.81536 -0.149635 -0.0705462)
(9.61869 0.023371 0.0012887)
(9.85261 0.153502 0.0213248)
(9.99752 0.142808 -0.186385)
(10.0743 0.128966 -0.0464292)
(10.0971 0.121764 0.119185)
(10.2926 -0.246644 0.252354)
(10.374 -0.418368 0.364946)
(10.2369 -0.327804 0.141052)
(10.1345 -0.221291 -0.254086)
(10.0159 -0.208728 -0.0971461)
(9.83628 -0.571751 0.38074)
(10.6085 -0.295491 0.301079)
(10.83 0.0690721 0.0857269)
(10.4817 0.385662 -0.105649)
(9.87221 0.489785 -0.203786)
(9.87203 0.314789 -0.316908)
(10.5712 0.0766928 -0.261194)
(10.7973 0.338008 -0.178381)
(10.1443 0.238499 -0.131442)
(9.745 0.10065 -0.0569854)
(9.89914 -0.0254188 -0.108611)
(10.1006 -0.060014 -0.057569)
(10.2736 -0.119872 0.0633551)
(10.2007 -0.230033 0.0200288)
(9.75608 -0.221629 0.12439)
(9.43573 -0.028243 0.227368)
(9.47075 0.122852 -0.000819551)
(9.88118 0.160746 -0.120507)
(9.97257 0.168194 0.157103)
(9.61756 0.170027 0.260853)
(9.65503 0.0826513 0.000538325)
(9.82601 -0.0597474 -0.165408)
(9.86392 -0.00885981 -0.223677)
(9.92103 0.151156 -0.0558968)
(9.96215 0.12649 -0.0170575)
(9.94547 0.069322 0.0303812)
(9.91324 -0.05132 0.217277)
(9.92258 -0.146551 0.317932)
(10.2879 -0.295239 0.27628)
(10.4088 -0.383507 0.0648764)
(10.1932 -0.369564 -0.305022)
(9.80908 -0.358773 -0.0188525)
(10.303 -0.132993 0.524647)
(10.691 0.0302122 0.514985)
(10.8723 -0.00684039 -0.033678)
(10.6809 -0.0094974 -0.315745)
(10.0295 0.0844045 -0.464577)
(9.75273 0.287073 -0.336782)
(10.5965 0.326429 -0.197639)
(10.6326 0.178729 -0.10323)
(10.0007 0.102598 -0.160243)
(9.64996 0.0486359 -0.107109)
(9.78921 0.0491836 -0.0894736)
(9.95122 0.0309664 -0.134586)
(10.0217 0.0137912 -0.0766236)
(9.94865 -0.140645 -0.079625)
(9.79839 -0.195514 -0.0062892)
(9.61666 -0.0736221 0.135119)
(9.55147 0.0439625 0.102045)
(9.84869 0.0749811 0.0700875)
(9.93058 0.0661476 0.244471)
(9.627 0.0886255 0.257272)
(9.49643 0.116454 0.0705851)
(9.64134 -0.00399901 -0.15641)
(9.80425 -0.0489281 -0.36641)
(9.90363 -0.00597443 -0.160962)
(9.89739 -0.00700259 0.0465909)
(9.83463 -0.0112225 0.102597)
(9.79779 -0.0638034 0.0878183)
(9.98676 -0.0617028 0.373361)
(10.108 0.031841 0.402766)
(10.0742 -0.122152 -0.16461)
(10.1147 -0.24395 -0.0904989)
(10.0977 -0.164312 0.212555)
(10.3786 0.0451672 0.596818)
(10.5967 0.0772516 0.485856)
(10.684 -0.031791 -0.0549667)
(10.5677 -0.125956 -0.302083)
(10.1548 -0.0054267 -0.566561)
(10.0767 0.121313 -0.457012)
(10.5382 0.201092 -0.115159)
(9.92341 -0.121018 -0.116778)
(10.6885 0.194394 -0.0358884)
(10.9913 0.172131 -0.0180511)
(10.7193 0.108046 -0.0834097)
(10.136 -0.0139373 -0.329994)
(9.68145 -0.155648 -0.283116)
(9.35504 -0.13031 -0.0991923)
(9.12179 -0.0239687 -0.192548)
(9.44459 -0.00128847 -0.356349)
(9.70399 -0.00410404 -0.242899)
(9.62058 0.0295536 -0.13966)
(9.56148 -0.00265109 -0.146438)
(9.64556 -0.0141015 -0.125234)
(9.82459 0.0469857 0.0496751)
(9.83359 -0.00599291 0.235483)
(9.65185 -0.0620522 0.246562)
(9.9832 0.0334764 0.112636)
(10.0919 0.114562 0.192061)
(9.85268 0.0459448 0.393595)
(9.77636 -0.0957637 0.336474)
(9.74094 -0.146144 0.102025)
(10.3365 0.0461995 -0.28243)
(10.4306 0.0986395 -0.383289)
(10.1512 0.096923 -0.183253)
(10.3573 0.049398 -0.0171867)
(10.3854 0.0165842 0.061216)
(9.98303 -0.0355981 0.115461)
(9.36711 -0.120542 0.155584)
(10.0625 0.116115 0.270006)
(10.6506 0.120619 0.369855)
(10.691 -0.0510463 0.38885)
(10.1937 -0.298853 0.0367278)
(10.6697 0.0764948 -0.00387881)
(10.8481 0.227245 0.0599532)
(10.9001 0.0792921 0.0572598)
(10.6791 -0.0281336 -0.0293998)
(9.94359 -0.117011 -0.275056)
(9.59934 -0.173674 -0.427052)
(9.5191 -0.177742 -0.354983)
(9.29191 -0.0926133 -0.191465)
(9.55166 -0.00630141 -0.1314)
(9.77056 -0.0831277 -0.0914973)
(9.67706 -0.0763001 -0.0102124)
(9.57205 -0.0730112 -0.0616683)
(9.767 -0.153224 -0.121442)
(9.90514 0.048038 -0.010357)
(9.78431 0.0196951 0.256582)
(9.71098 -0.0704604 0.244556)
(10.1771 0.121462 0.0176915)
(10.244 0.0886198 0.114682)
(9.74825 0.0102745 0.34175)
(9.61444 -0.0884054 0.197851)
(9.92361 -0.0936898 0.00926366)
(10.5602 0.0649914 -0.0583724)
(10.6119 0.0880994 -0.152647)
(10.1213 0.196285 -0.13801)
(10.3287 0.20978 -0.0591254)
(10.3611 0.120883 -0.020774)
(9.95262 -0.0074622 0.0234648)
(9.7694 -0.0129014 0.0284653)
(10.1945 0.134951 0.103107)
(10.4337 0.148204 0.265133)
(10.2182 -0.174637 0.416963)
(10.4405 -0.162413 0.0879247)
(10.6333 0.233596 -0.0659479)
(10.6422 -0.00609274 0.126618)
(10.7142 -0.322896 0.0921213)
(10.6939 -0.420021 -0.0306199)
(10.0244 -0.275054 -0.261341)
(9.731 -0.033298 -0.336034)
(9.4755 -0.0252573 -0.295238)
(9.33432 -0.0677845 -0.370416)
(9.48765 -0.0244495 -0.239203)
(9.68867 -0.316021 -0.0225879)
(9.7029 -0.348984 0.0249577)
(9.51461 -0.0487911 0.0416638)
(9.89283 0.116528 0.0760533)
(10.003 0.163287 0.102759)
(9.72868 0.0809333 0.109063)
(9.92623 0.0568961 -0.0465011)
(10.0979 0.0711233 -0.0908743)
(10.0253 -0.16523 -0.0391708)
(9.77839 -0.200995 0.207253)
(9.68041 0.0248123 0.274561)
(10.1112 0.227688 0.144026)
(10.5057 0.210147 0.0425998)
(10.5181 0.125298 0.0444513)
(10.2995 0.162547 0.132689)
(10.3425 0.18224 0.0283171)
(10.2465 0.107276 -0.188429)
(9.8689 0.00476992 -0.210302)
(9.78176 0.0184932 -0.0459363)
(10.0838 0.0973334 0.051741)
(10.3986 -0.00596176 0.313237)
(10.4285 5.03529e-05 0.458571)
(10.5431 0.34551 -0.0337621)
(10.0984 0.117177 -0.207336)
(10.3187 -0.175349 0.0318137)
(10.6647 -0.265862 0.163725)
(10.6369 -0.386575 0.0816037)
(10.2371 -0.366739 -0.125836)
(9.98758 -0.283762 -0.216926)
(9.52322 -0.150572 -0.339041)
(9.29597 0.126974 -0.308155)
(9.15926 0.092242 -0.084193)
(9.63857 -0.295058 0.0278202)
(9.92798 -0.193622 0.0598688)
(9.94218 0.107743 0.159277)
(9.94824 0.32097 0.198952)
(9.88074 0.236115 0.123808)
(9.64827 0.0994065 -0.00263518)
(9.85778 0.00614419 -0.0647938)
(9.9654 -0.0435291 0.0304517)
(9.82853 -0.247911 0.121809)
(9.97342 -0.162949 0.135842)
(10.0435 -0.0140591 0.169551)
(10.2187 0.308116 0.0256556)
(10.4347 0.382232 -0.0572486)
(10.4201 0.179037 0.0936376)
(10.2403 0.0614809 0.197875)
(10.3058 -0.0353709 -0.0150317)
(10.2823 -0.0730278 -0.173466)
(9.77324 -0.145544 -0.16623)
(9.84036 0.158294 0.028395)
(10.1337 0.389296 0.0629156)
(10.4425 0.184825 0.047758)
(10.6629 0.020961 0.0417569)
(10.6372 0.11687 -0.0833045)
(10.3026 -0.0537164 -0.192008)
(10.3401 0.210438 -0.134947)
(10.4968 0.0618104 0.152326)
(10.4409 -0.216609 0.249245)
(10.1563 -0.410923 -0.0300692)
(10.0844 -0.477296 -0.0919571)
(9.75229 -0.101886 -0.205044)
(9.58526 0.134662 -0.25498)
(9.08881 0.272789 -0.256836)
(9.55175 0.154782 0.0603388)
(9.99566 0.0747815 0.236668)
(10.1032 0.148657 0.228815)
(9.96682 0.109399 0.107322)
(9.79338 -0.0483814 0.0220836)
(9.55602 -0.0757999 -0.124012)
(9.74914 0.000811912 0.071874)
(9.83253 -0.0885685 0.251968)
(9.90756 -0.128191 0.0494305)
(10.0824 -0.00965523 -0.0217076)
(10.2324 0.0823903 0.0593627)
(10.3364 0.157689 0.0143273)
(10.4035 0.193715 -0.0567475)
(10.2587 -0.0364537 -0.0309693)
(10.0389 -0.324255 0.0963012)
(10.2545 -0.130335 0.0121083)
(10.3195 -0.172523 -0.0843958)
(9.94823 -0.324827 -0.0700507)
(10.1999 0.393417 0.0114257)
(10.3181 0.56947 0.070422)
(9.86568 0.338737 0.0599267)
(10.4113 -0.105088 -0.112827)
(10.6548 -0.233633 -0.123417)
(10.6185 0.164194 -0.211615)
(10.4069 0.20454 -0.178863)
(10.2162 0.109376 -0.00205818)
(10.1213 -0.265665 0.143528)
(10.1818 -0.292468 0.118603)
(10.1682 -0.218941 0.0508749)
(9.98593 -0.116022 -0.106383)
(9.79057 -0.0239729 -0.181419)
(9.36074 0.194625 -0.213801)
(9.30098 0.355508 0.00203267)
(9.95693 0.236537 0.176973)
(10.1037 0.335852 0.166966)
(9.7207 0.0736925 0.0790884)
(9.60681 -0.249827 0.048048)
(9.72932 -0.208865 -0.056099)
(9.82765 -0.0881392 0.0188128)
(9.71135 -0.020066 0.189769)
(9.97238 0.147874 0.0883274)
(10.2052 0.189155 0.0717741)
(10.2276 0.142117 0.106983)
(10.2848 -0.0740723 0.108589)
(10.3153 -0.167682 0.103524)
(9.86594 -0.350863 -0.0287929)
(10.1948 -0.40758 -0.2361)
(10.4219 -0.262306 -0.164421)
(10.1079 -0.224722 0.287574)
(10.3662 -0.0809339 0.355852)
(10.5411 0.181587 0.0896472)
(10.2079 0.186957 -0.344954)
(9.71429 0.1133 -0.352717)
(10.1979 0.253763 -0.0596375)
(10.6015 0.135815 -0.0412547)
(10.5363 0.319678 -0.267472)
(10.2134 0.129203 -0.260794)
(10.0284 -0.00923765 -0.0872885)
(10.119 -0.117057 0.0568411)
(10.2209 -0.200825 0.0937272)
(10.1756 -0.220223 0.0813511)
(10.0111 -0.26741 -0.213479)
(9.94551 -0.286189 -0.235834)
(9.55685 -0.0394047 -0.096176)
(9.30224 0.280771 0.0792064)
(10.0136 0.332456 0.257844)
(10.1541 0.319755 0.295357)
(9.47853 0.235384 0.1997)
(9.40561 0.0115032 -0.101208)
(9.59784 -0.136324 -0.215241)
(9.97557 -0.227359 -0.175498)
(10.0709 -0.10781 -0.136246)
(10.042 0.219844 0.0514662)
(10.0788 0.159002 0.207208)
(10.022 -0.0679308 0.288976)
(9.99071 -0.0282822 0.241694)
(10.0811 -0.23427 0.129303)
(9.99897 -0.434571 -0.0395099)
(10.2926 -0.154373 -0.0989111)
(10.4436 -0.150754 0.188349)
(10.291 -0.112695 0.513024)
(10.4274 -0.0277198 0.3125)
(10.5178 -0.0489377 0.0370179)
(10.2181 -0.0744062 -0.361336)
(10.0938 0.184515 -0.461591)
(10.2265 0.375989 -0.206409)
(10.4973 0.325863 -0.053467)
(10.4761 0.173015 -0.240683)
(10.0312 0.102818 -0.321193)
(9.8491 0.0275958 -0.2227)
(9.84545 0.0421626 -0.150509)
(9.98985 -0.117574 -0.0995235)
(10.0212 -0.185727 -0.0977542)
(9.96747 -0.189475 -0.0936708)
(9.9532 -0.207406 -0.0470734)
(9.73241 -0.034758 0.0997386)
(9.59534 0.135897 0.212972)
(9.9474 0.189773 0.300789)
(10.0086 0.119122 0.338727)
(9.43975 0.100528 0.204474)
(9.2429 0.159368 0.0765805)
(9.25697 -0.0014105 -0.178138)
(9.9219 -0.148967 -0.440794)
(10.2049 -0.0987498 -0.396172)
(9.98781 0.0343068 0.0662614)
(9.82183 -0.0111646 0.249443)
(10.0466 -0.0963833 0.197407)
(10.1267 0.0358329 0.186923)
(9.75951 0.0161631 0.169361)
(10.0388 -0.14673 0.0761348)
(10.2952 -0.0483451 0.045713)
(10.3682 -0.0137381 0.383081)
(10.2486 -0.0228521 0.633683)
(10.3405 -0.0299863 0.288057)
(10.4448 -0.0636316 -0.0901044)
(10.2758 -0.058486 -0.415883)
(10.2015 0.0707553 -0.351211)
(10.2882 0.131086 -0.18803)
(10.4602 0.14393 -0.129294)
)
;

boundaryField
{
    wall
    {
        type            fixedValue;
        value           uniform (0 0 0);
    }
    outlet
    {
        type            cyclic;
    }
    inlet
    {
        type            cyclic;
    }
    procBoundary2to1
    {
        type            processor;
        value           nonuniform List<vector> 
256
(
(11.178 0.0585407 0.199686)
(10.5906 0.0254294 -0.274944)
(10.4271 -0.0388109 -0.217694)
(10.8825 -0.0497311 0.00243027)
(10.8772 -0.0578162 -0.095049)
(9.88633 -0.0713654 -0.202122)
(9.29105 -0.0575414 -0.129489)
(9.37918 -0.0383341 -0.0911247)
(9.5812 -0.0319256 -0.114749)
(9.74263 -0.0332292 -0.115715)
(9.80706 -0.0211412 -0.108065)
(9.80303 -0.0119664 -0.109971)
(9.82779 -0.0125886 -0.122171)
(9.87471 -0.00574014 -0.12776)
(9.89828 0.0095174 -0.15433)
(9.92727 0.0315573 -0.159393)
(9.86075 0.0308737 0.0190143)
(9.73685 0.0807063 0.170848)
(10.0352 0.0925798 0.164787)
(10.1826 0.0211166 0.23542)
(10.7023 -0.073952 0.0476218)
(10.962 -0.117223 -0.27273)
(10.7307 -0.075605 -0.357796)
(10.0585 -0.0168749 -0.304288)
(9.92066 0.00897218 -0.290477)
(10.0695 0.0540222 0.0242041)
(9.95936 0.0699572 0.256725)
(9.77754 0.068767 0.25802)
(9.82162 0.0537291 0.143349)
(9.88743 0.0445844 0.387948)
(11.0942 0.0308787 0.74932)
(11.4812 0.0370757 0.608475)
(11.2783 0.128302 0.0945333)
(10.5265 -0.0193348 -0.269689)
(10.3903 -0.101521 -0.139527)
(10.9292 -0.0844439 0.126733)
(10.9058 -0.176084 -0.0300756)
(9.93679 -0.232398 -0.251869)
(9.38907 -0.158444 -0.16975)
(9.46498 -0.0970389 -0.0915507)
(9.64103 -0.0703096 -0.133648)
(9.80839 -0.0697891 -0.176946)
(9.88378 -0.0718372 -0.0993076)
(9.86725 -0.0733935 -0.0638004)
(9.89006 -0.0527816 -0.107272)
(9.95248 -0.0197937 -0.125293)
(9.98904 0.0128658 -0.157645)
(10.0164 0.0818003 -0.171373)
(9.96277 0.0818706 0.031995)
(9.88154 0.133532 0.183117)
(10.0184 0.1601 0.147456)
(10.1112 0.0224568 0.197558)
(10.6053 -0.0970219 0.109041)
(11.017 -0.15192 -0.326022)
(10.9144 -0.147654 -0.374485)
(10.2094 -0.106858 -0.232554)
(10.0417 -0.0882237 -0.224347)
(10.189 0.122138 0.097278)
(10.0306 0.219137 0.320994)
(9.82095 0.175097 0.291189)
(9.8532 0.151031 0.241632)
(9.89959 0.180521 0.442612)
(11.14 0.178918 0.519654)
(11.541 0.168797 0.319018)
(11.1198 0.131664 0.0989738)
(10.4197 -0.128781 -0.259547)
(10.4563 -0.149723 -0.124365)
(10.8389 -0.0998894 0.171956)
(10.7228 -0.30227 -0.0596712)
(9.98775 -0.384783 -0.265267)
(9.54047 -0.232909 -0.116382)
(9.5401 -0.121752 -0.0517248)
(9.66324 -0.0834284 -0.110317)
(9.79623 -0.0995975 -0.146738)
(9.859 -0.119683 -0.117768)
(9.87727 -0.122488 -0.154187)
(9.93753 -0.0647918 -0.186335)
(9.99597 -0.0077902 -0.149685)
(10.048 -0.0105157 -0.179781)
(10.0594 0.0356126 -0.0630622)
(9.96414 0.0446676 0.109557)
(9.89778 0.086785 0.119012)
(9.97998 0.107787 0.0378633)
(10.0265 -0.0533275 0.126056)
(10.6066 0.117111 0.0214492)
(10.9505 0.127393 -0.255562)
(10.8129 -0.0498092 -0.280986)
(10.1614 -0.219557 -0.261563)
(10.25 -0.112521 -0.0584063)
(10.3879 0.0632289 0.238082)
(10.0379 0.163729 0.402187)
(9.78008 0.160191 0.289145)
(9.8872 0.227124 0.223228)
(9.93605 0.382733 0.328862)
(11.1058 0.44383 0.38822)
(11.4603 0.327995 0.314347)
(10.8925 0.0161632 0.0728512)
(10.3775 -0.134679 -0.191386)
(10.492 -0.126909 -0.102126)
(10.7213 -0.174242 -0.0245073)
(10.5209 -0.418693 -0.237199)
(10.0633 -0.463523 -0.206887)
(9.72651 -0.268833 -0.000531279)
(9.62792 -0.110849 0.0239364)
(9.66324 -0.0632658 -0.117471)
(9.77076 -0.0874604 -0.267639)
(9.8633 -0.120827 -0.186512)
(9.92423 -0.0770274 -0.136593)
(9.98629 0.0265529 -0.175777)
(9.97938 0.0721503 -0.116132)
(10.0019 0.0274221 -0.0963423)
(10.0399 -0.0873335 -0.0793928)
(10.0068 -0.21305 -0.0195918)
(9.94644 -0.039358 -0.000377703)
(9.80734 0.0277186 -0.0274393)
(10.3139 0.194166 0.0300494)
(10.694 0.296867 0.0242897)
(10.7884 0.183715 -0.00122877)
(10.4737 -0.190981 -0.0175567)
(10.131 -0.120637 -0.124756)
(10.3798 0.000493254 0.0668795)
(10.4707 -0.128476 0.289798)
(10.0884 -0.148485 0.38907)
(9.90883 0.143116 0.193932)
(10.0734 0.385835 0.0170256)
(10.1319 0.604066 0.204673)
(10.9368 0.639682 0.425727)
(11.2541 0.380309 0.397623)
(10.8033 0.00957832 -0.0747277)
(10.493 0.00217294 -0.175504)
(10.4225 0.0105935 -0.147956)
(10.5 -0.185992 -0.233224)
(10.4133 -0.416554 -0.234676)
(10.1739 -0.428754 -0.129935)
(9.91263 -0.245528 0.103627)
(9.74128 -0.0901643 0.184119)
(9.68569 -0.0246391 -0.00661138)
(9.73941 0.00304017 -0.239708)
(9.87395 0.00269174 -0.351656)
(10.0152 0.0603554 -0.207013)
(10.0497 0.0511311 -0.0257019)
(10.0103 -0.0119216 0.0364438)
(9.89122 0.0755177 0.0299839)
(9.75119 -0.0527714 -0.059297)
(10.0096 -0.105715 -0.130111)
(10.0832 0.00683561 -0.108535)
(10.1225 0.211371 -0.0763913)
(10.2922 0.208216 -0.0136876)
(10.4942 -0.0283071 0.161315)
(10.4982 -0.272817 0.340263)
(10.4693 -0.302463 0.277464)
(10.436 -0.133567 0.0327957)
(10.2572 -0.00106929 -0.084096)
(10.1926 -0.347413 0.137391)
(10.3233 -0.560414 0.260485)
(10.3949 0.0798734 0.157412)
(10.3853 0.685398 0.124207)
(10.3505 0.769284 0.151554)
(10.4731 0.680866 0.189704)
(10.7946 0.303588 0.147221)
(10.7333 0.193342 -0.0946698)
(10.4706 0.155054 -0.0201044)
(10.3033 0.0538319 -0.0758207)
(10.2909 -0.109118 -0.124869)
(10.2788 -0.277697 -0.158471)
(10.2331 -0.317043 -0.150514)
(10.0642 -0.204432 0.122279)
(9.84875 -0.0850368 0.265507)
(9.75721 -0.00675711 0.0855424)
(9.79865 0.063163 -0.166094)
(9.91435 0.104379 -0.212924)
(9.97639 0.12765 -0.000405669)
(9.93469 0.0223332 0.0337218)
(9.98967 -0.088236 -0.105554)
(10.0068 -0.0266279 -0.0594463)
(9.83928 0.132287 -0.0643634)
(10.0517 0.204382 -0.171214)
(10.2295 0.15016 -0.148516)
(10.1068 0.117098 -0.0682139)
(10.0282 0.0539019 0.090779)
(10.2527 -0.27659 0.255974)
(10.4932 -0.501403 0.44781)
(10.6423 -0.26754 0.249146)
(10.5083 -0.178742 -0.0371364)
(10.0489 -0.288399 -0.0670496)
(9.86319 -0.602907 0.119678)
(10.8317 -0.334021 0.0927492)
(11.091 0.0735152 0.0760653)
(10.7005 0.557795 0.0765526)
(10.1666 0.725768 0.0563482)
(10.1388 0.550474 -0.0360258)
(10.5469 0.292236 -0.175635)
(10.6661 0.238277 -0.0811883)
(10.3533 0.250234 0.107704)
(10.1569 0.101486 -0.00927179)
(10.167 -0.0345406 -0.141204)
(10.2117 -0.110995 -0.163092)
(10.2414 -0.155082 -0.0676021)
(10.1369 -0.168656 0.16008)
(9.93606 -0.117724 0.26755)
(9.83626 -0.0271839 0.124075)
(9.85071 0.0468687 -0.0984438)
(9.9279 0.0855387 -0.158916)
(9.95031 0.0888775 0.0791071)
(9.83922 0.0990399 0.104239)
(9.96377 0.0638447 -0.0983071)
(10.0675 0.00208151 -0.115333)
(9.99508 0.0448086 -0.0813813)
(10.0253 0.13927 -0.0441994)
(10.1038 0.0461979 -0.020145)
(10.0217 -0.0600559 0.0318905)
(9.94405 -0.0647419 0.136843)
(10.0027 -0.16573 0.273547)
(10.5969 -0.21422 0.276826)
(10.7556 -0.163002 0.0722071)
(10.376 -0.216947 -0.118285)
(9.80122 -0.390003 -0.0666168)
(10.1201 -0.40489 0.18956)
(11.0577 -0.0978927 0.250459)
(11.3144 -0.0196897 0.0489964)
(11.0071 0.0947548 -0.124053)
(10.1986 0.410779 -0.180565)
(9.95547 0.491599 -0.20077)
(10.4197 0.231681 -0.34365)
(10.6285 0.125217 -0.0118653)
(10.2039 0.143174 0.144575)
(9.94196 0.0705662 0.0262487)
(10.0312 0.0137006 -0.0748931)
(10.1093 -0.00962591 -0.0796191)
(10.1271 -0.0288405 -0.00860847)
(10.0408 -0.075256 0.0900303)
(9.92858 -0.0766633 0.131623)
(9.86694 -0.0282676 0.0594727)
(9.85711 0.0117352 -0.0774109)
(9.90501 0.0347012 -0.105894)
(9.92231 0.0405655 0.120129)
(9.86205 0.0656695 0.163271)
(9.87698 0.11118 -0.0134658)
(9.94295 0.0175613 -0.119864)
(9.94792 -0.0332657 -0.114872)
(9.98224 0.00673591 -0.0575567)
(10.0093 -0.0191117 -0.0250284)
(9.94274 -0.045104 0.0395069)
(9.88136 -0.043189 0.112897)
(10.0152 -0.0493347 0.267043)
(10.498 -0.00879179 0.288174)
(10.6061 -0.0398231 -0.0170975)
(10.1917 -0.127066 -0.309996)
(9.64664 -0.217758 0.0383149)
(10.4543 -0.12895 0.440332)
(10.9838 -0.00481922 0.330741)
(11.1647 -0.0629115 -0.00134856)
(10.9151 -0.0298262 -0.2609)
(10.4795 0.119821 -0.41336)
(9.84784 0.193676 -0.395716)
(10.3556 0.0789783 -0.205894)
)
;
    }
    procBoundary2to3
    {
        type            processor;
        value           nonuniform List<vector> 
256
(
(10.4769 -0.00775726 0.0726424)
(10.7834 0.0929726 0.369784)
(10.7978 0.0817638 0.16684)
(10.6141 0.106109 -0.172919)
(10.1295 -0.0308533 -0.453024)
(10.0292 -0.206227 -0.446927)
(9.60267 -0.293412 -0.285714)
(9.10906 -0.00618174 -0.0675389)
(9.61407 0.140616 -0.161353)
(9.86575 0.0867308 -0.288268)
(9.78008 0.118596 0.0346849)
(9.78391 0.0639587 0.144677)
(9.9427 -0.0139801 0.0428775)
(10.0629 0.00850138 -0.00485327)
(9.99373 0.0137998 0.102201)
(9.86812 -0.0306479 0.349292)
(10.0144 -0.043189 0.243267)
(10.1446 0.0409594 -0.0868894)
(10.035 0.0240453 -0.129343)
(9.83307 -0.095437 -0.00682028)
(9.79532 -0.154001 0.174442)
(10.375 0.08371 0.132264)
(10.5243 0.142879 -0.0104531)
(10.3698 0.0900078 0.159319)
(10.4839 0.0249596 0.318425)
(10.4006 0.00193746 0.255186)
(10.0036 -0.0146644 -0.0272224)
(9.71547 -0.0571078 -0.182217)
(10.2048 0.0132488 0.0730668)
(10.5921 0.0111554 -0.024358)
(10.6116 -0.0750905 -0.255985)
(10.4533 -0.0588739 -0.108341)
(10.7187 0.0542103 0.155799)
(10.8275 0.11547 0.0985343)
(10.7964 0.0126957 -0.0743056)
(10.587 -0.0187977 -0.309032)
(9.96051 -0.0279893 -0.281793)
(9.71455 -0.256039 -0.228195)
(9.65784 -0.302412 -0.32337)
(9.61319 -0.208795 -0.286927)
(9.78496 0.0994035 -0.104398)
(9.92898 0.117484 -0.0916562)
(9.8799 0.095782 -0.0817664)
(9.7352 0.084056 0.177509)
(9.95236 0.0528114 0.168278)
(10.1121 -0.000224528 0.0359185)
(10.0687 -0.112823 0.00238579)
(9.84358 -0.103119 0.312015)
(10.1483 -0.0830291 0.179137)
(10.318 -0.142021 -0.0937343)
(10.0816 -0.118173 -0.224397)
(9.60352 -0.0931351 0.138608)
(10.1385 0.0591824 0.354646)
(10.5707 0.158296 0.217496)
(10.6173 0.20085 0.0149824)
(10.3016 0.313305 0.0686174)
(10.4331 0.198158 0.146045)
(10.4117 -0.00486656 0.0103993)
(10.077 -0.0875939 -0.101317)
(9.8853 -0.0368838 0.0775154)
(10.2291 0.0596729 0.0301725)
(10.5212 0.0555325 -0.153157)
(10.5523 -0.0248713 -0.036905)
(10.6074 -0.0333074 0.135744)
(10.7494 0.0478661 0.0921686)
(10.7895 -0.0431651 0.0784288)
(10.6865 -0.209907 -0.0206567)
(10.6321 -0.271509 -0.14644)
(10.0631 -0.173061 -0.263763)
(9.78065 -0.0310861 -0.353028)
(9.50679 -0.103098 -0.372809)
(9.66162 -0.0962191 -0.259933)
(9.89061 -0.0245906 -0.178949)
(9.98615 -0.0892342 -0.0861399)
(9.84531 -0.0839515 0.0557768)
(9.79219 0.0700412 0.184036)
(9.9557 0.222161 0.236849)
(10.0054 0.162685 0.0777066)
(9.92017 -0.196594 0.0528946)
(9.92233 -0.233993 0.157152)
(10.0758 0.0222992 -0.0218283)
(10.1231 -0.130811 -0.0988494)
(10.0885 -0.171953 -0.00305475)
(9.94943 -0.0146493 0.104066)
(10.2027 0.2436 0.278599)
(10.5623 0.194338 0.266198)
(10.6382 0.193337 0.225309)
(10.3952 0.249259 0.288149)
(10.2284 0.178435 0.178787)
(10.2127 0.0219398 -0.221273)
(10.0664 -0.0305794 -0.40815)
(9.9969 0.0647269 0.112388)
(10.2709 0.080846 0.140861)
(10.5418 -0.00555601 -0.0935041)
(10.5294 0.00314346 -0.120884)
(10.6201 0.111678 0.104509)
(10.517 -0.072245 -0.171659)
(10.6134 -0.204908 0.0927654)
(10.6736 -0.159911 0.167989)
(10.5266 -0.226551 0.102387)
(10.1064 -0.257394 -0.17224)
(9.87759 -0.205243 -0.464243)
(9.64547 0.0805573 -0.361812)
(9.68424 0.128067 -0.15242)
(9.73571 -0.0387205 0.0104966)
(9.88654 -0.171074 0.242512)
(10.0167 -0.039297 0.154346)
(10.0559 0.126271 0.118225)
(9.9149 0.215428 0.12848)
(9.7936 0.159465 -0.00875876)
(9.80257 -0.0425924 -0.0354126)
(10.0258 -0.0094919 -0.0326332)
(10.1261 0.0684719 -0.10186)
(10.0438 -0.00774126 -0.0345593)
(10.0913 -0.232997 0.0826772)
(10.104 -0.173975 0.0612575)
(10.294 0.213037 0.154947)
(10.5542 0.264986 0.205607)
(10.5802 0.0805311 0.152708)
(10.3526 -0.0149257 0.115526)
(10.2508 -0.0442761 -0.0343884)
(10.3212 -0.0834071 -0.245527)
(10.1405 -0.0585253 -0.265011)
(9.87185 0.1186 0.0984961)
(10.2263 0.388991 0.121553)
(10.5027 0.192569 0.107895)
(10.65 -0.0209856 0.0830892)
(10.6005 0.0100074 -0.129436)
(10.5368 -0.0285302 -0.0459981)
(10.6774 -0.00780312 0.10494)
(10.65 -0.0390817 0.148777)
(10.4124 -0.146014 0.093659)
(10.0903 -0.272373 -0.0561274)
(10.035 -0.22027 -0.164779)
(9.86419 0.0615106 -0.296121)
(9.55221 0.158058 -0.438039)
(9.65027 -0.0154874 -0.0310561)
(9.93496 0.0501852 0.269395)
(10.1226 0.110604 0.308795)
(10.0688 0.108488 0.178284)
(9.91572 0.0290717 0.0220796)
(9.73558 -0.0809607 -0.14366)
(9.83008 0.010336 -0.0138403)
(10.0374 0.0654479 0.099168)
(10.0759 -0.0196931 0.0469615)
(9.83947 -0.0913378 -0.00874777)
(10.0931 -0.0066865 0.0276391)
(10.3477 0.0644684 0.0422362)
(10.4069 0.143433 0.0563039)
(10.4427 0.172879 -0.0189608)
(10.3989 -0.186896 -0.0830428)
(10.3234 -0.448237 -0.0553764)
(10.1863 -0.243124 0.0509925)
(10.2627 -0.0365549 -0.0763752)
(10.3074 0.0209092 0.00754109)
(10.3468 0.182139 0.102444)
(10.3526 0.261851 -0.0842111)
(10.0805 0.258967 -0.13771)
(10.4573 0.0918412 0.0770128)
(10.6086 0.0499703 -0.0475444)
(10.5385 0.143011 -0.0844385)
(10.6025 0.108832 0.0158797)
(10.484 -0.0811294 0.217361)
(10.2524 -0.243951 0.185363)
(10.1447 -0.204372 -0.0393185)
(10.1468 -0.160519 -0.257642)
(10.0908 -0.194695 -0.330564)
(9.63816 -0.0122988 -0.581561)
(9.70168 0.268351 -0.0683762)
(9.92177 0.292802 0.256896)
(10.0766 0.248757 0.234167)
(10.0315 0.348269 0.0183872)
(9.72966 -0.000190346 0.0372778)
(9.70343 -0.246176 0.0924037)
(9.912 -0.189696 0.00511168)
(10.0271 -0.186903 -0.0154047)
(10.0205 -0.142511 0.226195)
(10.0125 0.0130904 0.277838)
(10.2454 0.360295 -0.0457175)
(10.3004 0.366205 -0.0589846)
(10.3549 -0.0399454 0.0273989)
(10.3749 -0.193862 -0.112672)
(10.0306 -0.297913 -0.206753)
(10.2847 -0.416801 0.077146)
(10.5589 -0.19044 0.10167)
(10.4936 0.0812138 0.173213)
(10.296 0.116779 0.271666)
(10.1854 0.121313 -0.180911)
(10.2458 -0.00477565 -0.353592)
(10.3297 -0.0148588 -0.162543)
(10.4643 0.218848 0.176921)
(10.5014 0.192822 0.107678)
(10.4796 0.25078 0.000774174)
(10.4651 0.107405 -0.0595156)
(10.3384 -0.117912 0.0460332)
(10.2224 -0.298581 0.240687)