/*--------------------------------*- C++ -*----------------------------------*\
| =========                 |                                                 |
| \\      /  F ield         | OpenFOAM: The Open Source CFD Toolbox           |
|  \\    /   O peration     | Version:  2506                                  |
|   \\  /    A nd           | Website:  www.openfoam.com                      |
|    \\/     M anipulation  |                                                 |
\*---------------------------------------------------------------------------*/
FoamFile
{
    version     2.0;
    format      ascii;
    arch        "LSB;label=32;scalar=64";
    class       volScalarField;
    location    "0.007";
    object      p;
}
// * * * * * * * * * * * * * * * * * * * * * * * * * * * * * * * * * * * * * //

dimensions      [0 2 -2 0 0 0 0];

internalField   nonuniform List<scalar> 
512
(
0.54686
0.910316
0.885388
0.437123
-0.413842
-1.00644
-0.0889153
0.399698
-0.231358
-0.591601
-0.864399
-1.30092
-0.443574
0.404106
0.329136
0.174993
0.274037
0.204519
0.48711
1.08762
1.36348
1.0665
0.867161
1.22638
1.30328
0.550848
0.0577185
0.419617
0.485943
-0.0505078
0.110728
0.427454
0.366907
1.02782
0.993161
0.275434
-0.686688
-1.06197
0.0761751
0.489811
-0.0969386
-0.556963
-0.839929
-1.39867
-0.619978
0.311027
0.195542
0.108142
0.527895
0.747488
0.61275
0.425943
0.945405
1.04527
0.772149
1.1073
1.27421
0.553729
0.276911
0.687223
0.597991
-0.0571537
0.15039
0.277534
0.0623391
0.876043
0.837082
0.313421
-0.305239
-0.705938
0.116694
0.387374
-0.194851
-0.547062
-0.552445
-0.666134
-0.708313
-0.680105
-0.16317
0.448307
0.728944
0.700962
0.556579
0.567666
1.09004
0.876123
0.476418
0.918015
1.27191
0.658675
0.321676
0.679281
1.01775
0.649136
0.222963
-0.167689
-0.143843
0.384572
0.732994
0.4203
-0.000342073
-0.0461051
0.438551
0.167504
-0.566226
-0.938028
-0.902242
-0.853895
-0.5386
-0.351621
-0.166745
0.324186
0.695509
0.796183
0.946542
1.34639
1.26497
0.730096
0.336274
0.417132
0.767704
0.720563
0.384288
0.651546
1.18483
1.11316
0.545084
-0.018287
0.413616
0.180687
0.375498
0.357325
0.567618
0.629564
0.339049
-0.292288
-0.836543
-1.50524
-1.69356
-0.811408
-0.0340027
0.10672
0.0941335
0.063469
0.435291
0.957435
0.987117
0.812388
1.01367
0.881566
0.382407
0.180145
0.573274
0.947182
0.715909
0.654395
1.05735
0.998374
0.643929
0.603267
0.39007
0.264204
0.807458
0.790736
0.652264
0.366686
-0.131078
-0.756791
-1.18605
-1.80992
-1.88413
-0.782668
-0.249005
-0.107851
0.240137
0.488398
0.618446
0.744174
0.959209
1.25341
1.17323
0.806551
0.330467
-0.0998709
0.4509
1.06439
0.859734
0.813945
1.01245
1.13565
0.926176
0.584883
0.0653838
0.296044
1.29544
1.84225
0.614229
-0.262688
-0.652996
-0.923055
-1.52907
-2.09824
-1.47916
-0.738961
-0.410381
-0.0538933
0.211804
0.427341
0.610773
0.725958
1.02259
1.46207
1.27449
0.49856
-0.124996
0.0167372
0.860327
1.1592
0.964627
0.373321
0.167381
1.38394
1.67409
0.716665
-0.398241
0.35733
1.67179
1.77952
0.25538
-0.576795
-0.351538
-0.691652
-1.6597
-2.01845
-1.27934
-0.75416
-0.391541
0.0852909
0.339491
0.482685
0.634019
0.750327
1.15659
1.58587
1.03751
0.305588
-0.115226
-0.0613715
0.958523
1.62934
1.05431
0.006558
0.0565492
1.17733
1.78343
0.674809
0.588245
1.19932
0.929454
-0.000941884
-0.539186
-0.776365
0.0640055
0.258373
-0.423501
-0.791786
-1.01736
-1.45783
-0.652405
0.500413
1.19194
0.509473
-0.31471
0.265569
1.00188
1.03536
1.22514
1.07014
0.355055
0.368364
0.832842
0.775799
0.560008
0.442221
0.0376508
-0.0121565
0.564488
0.736976
0.382659
0.976626
0.982067
0.176249
-0.359015
-0.6613
0.0533825
0.198843
-0.458535
-0.938465
-0.893905
-0.919712
-0.804692
0.173417
0.833467
0.471699
-0.167051
0.143034
0.66851
0.904418
1.28181
1.31073
0.486172
0.155741
0.792772
0.973227
0.766266
0.692216
0.238993
-0.0317865
0.544164
0.698449
0.232501
0.681283
0.829405
0.526982
0.138923
-0.291793
0.469749
0.119897
-1.00199
-1.04758
-0.808898
-0.892295
-0.655759
0.0687458
0.438589
0.303137
0.513168
0.546901
0.397829
0.533453
1.08684
0.987601
0.529182
0.800295
0.703606
0.401091
0.428041
0.916002
0.750852
0.348476
0.636728
0.527563
-0.118614
0.421337
0.782633
0.62318
0.312685
0.45078
0.73551
-0.184602
-1.22358
-1.68344
-1.03903
-0.495354
-0.280585
-0.384518
-0.17743
0.38236
0.770374
0.636247
0.481449
0.775147
0.992496
0.698621
0.564811
0.709094
0.677315
0.511423
0.376783
0.882586
1.25623
0.920053
0.825826
0.329421
0.527633
0.308498
0.466032
0.666957
0.68857
0.507395
0.136701
-0.847019
-1.57378
-1.37393
-0.86831
-0.582409
-0.287314
-0.121438
-0.0458743
0.0698575
0.567881
0.87004
0.864706
0.828748
0.785641
0.611786
0.355281
0.549206
0.956774
0.856416
0.788478
0.801527
1.01866
0.924805
0.683129
0.691584
0.338927
0.231923
0.920154
1.51049
1.26889
0.196217
-0.80023
-1.39968
-1.33273
-0.922657
-0.843262
-1.04034
-0.935216
-0.459389
-0.0153581
0.358716
0.943934
1.08569
1.03152
1.15516
1.15272
0.565973
-0.0382465
0.187981
0.755755
0.925434
0.734357
0.657759
0.89678
1.11075
0.912837
0.561167
0.00318517
0.139401
1.24134
2.02948
0.856924
-0.50971
-1.23601
-0.991057
-0.887351
-0.964903
-1.07288
-1.39634
-1.08178
-0.0293981
0.408825
0.340772
0.482796
0.701316
1.15005
1.63052
1.28776
0.574969
-0.0169529
0.0636971
0.723875
1.13915
1.18927
0.612606
0.164351
1.18147
1.56582
0.748653
-0.0580237
-0.190515
0.656073
1.45597
0.750167
-0.121149
-0.471559
-0.67838
-0.918043
-1.17581
-1.27848
-1.28851
-0.603498
0.336968
0.705475
0.616543
0.267038
0.231525
0.982826
1.31083
0.696108
0.137866
0.195666
0.491204
0.995023
1.43379
1.128
0.363808
0.275938
1.05168
1.42312
0.781843
)
;

boundaryField
{
    wall
    {
        type            zeroGradient;
    }
    outlet
    {
        type            cyclic;
    }
    inlet
    {
        type            cyclic;
    }
    procBoundary1to0
    {
        type            processor;
        value           nonuniform List<scalar> 
256
(
0.0396726
0.826801
1.11396
0.850389
-0.0148843
-0.749728
-0.208541
0.251537
-0.35418
-1.13416
-1.14348
-0.418449
-0.211116
-0.394148
-0.0252736
0.645118
0.808792
0.461605
0.624422
1.0527
1.23478
1.00609
1.01819
1.52919
1.53982
0.515445
0.0921927
0.310152
0.801981
0.456044
-0.134527
-0.492657
0.00531094
0.996744
0.838054
0.46475
-0.224669
-0.704625
-0.076609
0.358751
-0.342646
-1.08643
-1.20208
-0.712097
-0.307625
-0.224322
-0.0367093
0.629953
1.21837
1.09269
0.730653
0.503718
0.867605
0.898352
0.774047
1.31873
1.48664
0.739972
0.487513
0.752113
0.848597
0.33755
-0.360193
-0.877479
-0.0274064
0.976559
0.858906
0.392343
-0.154304
-0.654155
0.0976309
0.369104
-0.505001
-0.968152
-0.903184
-0.931372
-0.507709
0.0318742
0.169862
0.518128
0.852489
0.974439
0.876976
0.917385
0.98403
0.884234
0.784781
0.843993
1.13432
1.14425
0.824775
0.874205
1.00025
0.573126
-0.330082
-1.07199
-0.0463801
0.646092
0.841417
0.383034
-0.00106924
0.19336
0.808311
0.549316
-0.553834
-1.8437
-1.89947
-0.730017
-0.195556
-0.0855427
0.209557
0.624373
1.02545
1.06757
0.631264
0.609315
1.0974
1.1842
0.829923
0.461351
0.841356
0.999951
0.515149
0.397787
1.08784
1.1132
0.161754
-0.533223
-0.147054
0.0450194
0.780133
0.628386
0.206494
0.530206
0.624977
-0.421676
-1.65294
-1.6407
-0.764578
-0.354978
-0.497258
-0.21258
0.366154
0.7046
0.682894
0.465093
0.700986
1.11531
1.20975
1.03176
0.583706
0.285954
0.62172
1.07612
0.691354
0.383679
0.941276
1.15932
0.837692
0.34247
0.263299
0.590625
0.83254
0.521106
0.717185
0.815954
0.304924
-1.14518
-2.32796
-1.75429
-0.759321
-0.415621
-0.490149
-0.262632
0.219206
0.720744
0.643843
0.385419
0.913985
1.55243
1.27173
0.33308
-0.355469
0.0581877
0.918681
1.29301
1.12328
0.817565
0.737589
1.00155
0.996554
0.570139
0.296848
0.48096
1.18032
1.31372
0.861808
0.180911
-0.454794
-1.65273
-2.59591
-1.71218
-0.747756
-0.456994
-0.479741
-0.165261
0.295213
0.539202
0.550214
0.748792
1.10767
1.55243
1.36813
0.435385
-0.540116
-0.156877
0.956933
1.21709
0.986198
0.401107
0.181113
1.43078
1.62197
0.673922
0.0241685
0.107488
1.28044
2.04251
1.19445
-0.144877
-0.710637
-1.74854
-2.33667
-1.43918
-0.683455
-0.517498
-0.49607
-0.0726175
0.458711
0.665397
0.596328
0.750112
1.03027
1.51765
1.34876
0.468212
-0.729131
-0.57255
0.986333
1.77156
1.15377
0.136895
0.0438618
1.05532
1.55542
0.866532
)
;
    }
    procBoundary1to2
    {
        type            processor;
        value           nonuniform List<scalar> 
256
(
0.749176
1.01447
0.309915
-0.333209
0.121718
0.783562
1.20858
-0.084959
-1.52654
-1.28506
-0.791217
-0.866254
-0.65877
0.113905
0.412238
0.35711
0.584606
0.786523
1.00307
0.989225
0.89525
1.13721
0.690854
-0.00651465
0.247337
0.702838
0.490964
0.590507
0.785842
0.558798
0.0414101
0.263622
0.567255
0.479105
0.139614
-0.164226
0.172452
0.762821
1.10698
-0.201412
-1.69345
-1.40337
-0.969073
-0.799377
-0.380319
0.239533
0.602473
0.602817
0.558655
0.592872
0.69684
0.934138
1.05153
1.15214
0.419697
-0.0753361
0.519893
0.935797
0.649258
0.672691
0.683372
0.534272
0.603895
0.769778
0.0882256
0.34333
0.604616
0.213525
0.2706
0.832796
1.09085
-0.277352
-1.53121
-1.14846
-0.628521
-0.638088
-0.646172
-0.124929
0.685658
0.942581
0.510132
0.237239
0.49027
0.921689
1.03348
0.978195
0.417954
0.0736472
0.518341
0.490691
0.496562
0.918615
0.849659
0.773116
0.928097
0.611486
0.224064
0.530198
0.721523
0.352767
0.10406
0.585113
1.02343
0.180227
-1.16699
-1.91221
-1.53631
-0.496565
0.0147353
0.0121566
0.126614
0.551188
0.510813
0.259443
0.757445
0.98618
0.85487
0.580025
0.294071
0.247211
0.129074
0.287277
0.864907
1.11924
0.960951
0.783161
0.833465
0.499155
0.584278
0.316735
0.60246
0.653304
0.229371
-0.0934507
0.00266919
-0.203625
-0.947446
-1.59271
-1.29895
-0.578429
-0.367631
-0.0655682
0.374465
0.549226
0.437634
0.610553
0.960519
1.01508
0.781241
0.588283
0.411475
0.651499
0.642714
0.605638
0.844145
0.940329
0.774112
0.657757
0.761523
0.78308
0.312223
0.325083
1.05533
1.57094
0.804086
-0.405789
-0.951629
-1.08209
-1.05082
-0.962883
-0.800023
-0.709198
-0.528269
0.239373
0.338891
0.0410709
0.516819
0.948056
0.951351
0.951369
0.813165
0.325751
0.123984
0.608044
0.661539
0.427338
0.658053
0.995648
1.2332
1.26732
0.707131
0.27534
0.103595
0.2181
1.30066
1.28937
0.498007
-0.488513
-1.17072
-0.883379
-0.512992
-0.551714
-1.08425
-1.5353
-0.699896
0.356475
1.00805
0.767714
0.438739
0.835707
1.29037
1.07706
0.668544
0.155521
0.146952
0.315362
0.113831
0.697687
1.12447
0.984862
0.837792
1.06187
0.889341
0.601158
0.00364458
-0.292147
0.924126
1.45578
0.866276
-0.0517318
-0.731753
-0.735913
-0.470431
-0.838639
-1.58137
-1.60628
-0.439118
0.619739
0.914791
0.46304
0.0389166
0.650223
1.39898
0.823315
0.124317
0.0739769
0.0306585
0.297229
1.05739
1.22395
1.00959
0.861379
0.868459
1.04583
1.18187
0.871213
)
;
    }
}


// ************************************************************************* //
