/*--------------------------------*- C++ -*----------------------------------*\
| =========                 |                                                 |
| \\      /  F ield         | OpenFOAM: The Open Source CFD Toolbox           |
|  \\    /   O peration     | Version:  2506                                  |
|   \\  /    A nd           | Website:  www.openfoam.com                      |
|    \\/     M anipulation  |                                                 |
\*---------------------------------------------------------------------------*/
FoamFile
{
    version     2.0;
    format      ascii;
    arch        "LSB;label=32;scalar=64";
    class       surfaceScalarField;
    location    "0.007";
    object      phi;
}
// * * * * * * * * * * * * * * * * * * * * * * * * * * * * * * * * * * * * * //

dimensions      [0 3 -1 0 0 0 0];

oriented        oriented;

internalField   nonuniform List<scalar> 
1200
(
0.00151029
3.86222e-06
7.9326e-06
0.00151115
4.07706e-06
-1.55737e-07
0.00151464
-1.1769e-06
-7.12785e-06
0.00150765
-1.48537e-06
2.75274e-06
0.0015011
3.42307e-06
8.81601e-06
0.00150138
4.87823e-06
6.29111e-06
0.00151234
-2.16524e-06
-6.47965e-06
0.00152373
-4.43872e-06
-8.63923e-06
0.0015282
-3.13518e-06
4.89996e-08
0.00151984
3.65311e-07
2.73117e-06
0.00150493
2.74847e-06
-1.62153e-06
0.00150455
-4.26233e-07
1.84396e-06
0.00150741
-1.56423e-06
6.51023e-06
0.00150859
-2.04293e-06
3.05853e-06
0.00150775
4.68792e-06
-1.24742e-05
0.00150825
4.67903e-06
-1.06183e-05
0.00150365
-4.41659e-08
3.67479e-06
0.00150383
-2.93028e-06
4.50999e-06
0.00151024
-2.65228e-06
-1.23758e-06
0.00151214
9.67772e-07
-2.75273e-06
0.0015058
7.65155e-07
1.66088e-06
0.00150404
-2.26694e-06
-4.58073e-06
0.00150929
-2.48344e-06
-8.57389e-06
0.0015177
-2.08233e-06
-9.49311e-06
0.00151035
1.68707e-06
3.47595e-06
0.00150148
3.69441e-06
4.4738e-06
0.00150324
1.50181e-06
4.50306e-07
0.00149914
2.01536e-06
-1.07602e-06
0.00149035
3.73327e-06
2.95239e-06
0.00149675
-2.65155e-06
7.05323e-06
0.00151323
-6.59327e-06
3.52574e-07
-1.17368e-06
-1.59368e-06
0.00153678
1.73905e-06
1.0448e-06
0.00154502
3.56762e-06
2.64295e-06
0.00152906
7.41242e-06
1.18657e-06
0.00150857
7.83156e-06
5.80205e-06
0.00151014
2.06204e-06
4.58803e-06
0.00152625
-4.12166e-06
8.39561e-07
0.00154085
-7.98402e-06
-8.45699e-06
0.00155049
-7.17627e-06
-9.25364e-06
0.00155002
-3.23957e-06
4.28143e-07
0.00153762
2.49077e-06
7.93333e-06
0.00152373
5.49554e-06
1.30369e-06
0.00152791
-2.45535e-06
-2.34112e-06
0.00152907
-3.40903e-06
7.30369e-06
0.00151867
2.16803e-06
8.19414e-06
0.00151749
7.69519e-06
-8.71547e-06
0.00152725
2.66745e-06
-1.3206e-05
0.00152796
-5.88158e-07
-2.52487e-06
0.00151914
1.99039e-06
5.10518e-06
0.00151195
3.81852e-06
2.09515e-06
0.0015222
-3.23111e-06
-2.79138e-06
0.00153049
-5.39168e-06
-8.22111e-07
0.00153284
-4.54434e-06
-5.27217e-06
0.00153381
-5.03351e-06
-6.44602e-06
0.00153874
-7.3596e-06
-5.46958e-06
0.00153248
1.41274e-06
5.60517e-06
0.00153013
3.11082e-06
2.66534e-06
0.00153347
3.46041e-06
-3.34428e-06
0.00152184
1.13804e-05
1.13179e-06
0.00151048
9.75335e-06
7.60683e-06
0.0015176
-4.20857e-06
7.29668e-06
0.00152959
-1.34599e-05
2.45395e-06
-5.9228e-06
-2.32811e-06
0.00153598
-4.10628e-06
-5.12474e-07
0.00154187
-7.62849e-07
2.11453e-06
0.00153123
1.36763e-05
6.25631e-06
0.00151721
1.6773e-05
8.6706e-06
0.00151459
9.37183e-06
4.58734e-06
0.00152627
-7.45529e-06
5.48988e-07
0.00154497
-1.44114e-05
-1.16292e-05
0.00155836
-1.14816e-05
-1.25323e-05
0.0015559
-5.54003e-06
2.92331e-06
0.00154841
3.1336e-06
8.13178e-06
0.0015355
1.16485e-05
1.85468e-06
0.00151069
1.02101e-05
2.2832e-06
0.00151067
-4.75195e-06
1.88753e-06
0.00152825
-7.56889e-06
-7.10939e-07
0.00153975
2.4308e-06
-7.39142e-06
0.00153994
2.80167e-06
-3.97766e-06
0.001537
2.00549e-06
-1.88135e-06
0.00153576
2.51405e-06
-1.96836e-06
0.00153647
1.47069e-06
-1.35952e-06
0.0015385
-5.0577e-06
-1.73152e-06
0.00153374
-3.82596e-06
-1.08049e-06
0.00152873
-2.88139e-06
-6.73215e-06
0.00154312
-1.02055e-05
-1.07475e-05
0.00154572
-6.61817e-06
-9.08168e-06
0.00153059
6.29156e-06
8.3059e-07
0.00152487
4.40638e-06
4.40944e-06
0.00153492
1.93878e-07
3.28747e-07
0.00154783
6.54845e-06
-2.85493e-06
0.00154835
1.06742e-05
5.45612e-06
0.00153294
3.69374e-06
1.68906e-05
0.00152691
-9.05361e-06
6.72466e-06
-9.71095e-06
-4.48504e-06
0.00153289
-3.31239e-06
2.26334e-06
0.00153106
1.72533e-06
2.18264e-06
0.00153621
8.41415e-06
4.32627e-06
0.00153887
1.50644e-05
4.74518e-06
0.00153522
1.03346e-05
6.87207e-06
0.00153822
-8.26443e-06
2.86943e-06
0.00154068
-9.73468e-06
-5.27641e-06
0.00154572
-9.17387e-06
-6.92717e-06
0.00155296
-8.28962e-06
-2.34897e-07
0.00155138
-2.10865e-06
6.80626e-06
0.00154059
9.79026e-06
6.9175e-06
0.00153915
6.83526e-06
2.53946e-06
0.00153663
-1.15645e-06
-3.49289e-06
0.00153071
-2.91597e-06
-1.58989e-06
0.00153832
-2.14208e-06
-1.74131e-06
0.00154968
-4.61807e-07
-5.05371e-06
0.00155375
3.98749e-06
-6.05602e-06
0.00156001
4.65056e-07
-3.06344e-06
0.00156031
-1.99904e-07
1.26669e-06
0.00154219
3.05582e-06
1.97785e-06
0.00153184
4.76964e-08
-2.31177e-07
0.00153637
-3.41302e-06
-7.12916e-06
0.00153821
-4.55046e-06
-4.82519e-06
0.00153453
-7.78051e-07
-6.44316e-06
0.00153541
5.33313e-06
-4.3057e-06
0.00153802
2.59437e-06
3.14051e-06
0.0015369
-2.03712e-07
5.13533e-06
0.00154153
3.11085e-06
-1.94527e-06
0.00154704
6.66879e-06
1.50104e-06
0.00154049
7.64877e-06
1.01135e-05
0.00153255
-3.80241e-06
3.84079e-06
-9.15414e-06
-6.12346e-06
0.00155301
6.72615e-07
9.41128e-07
0.00152542
2.18232e-05
2.14964e-06
0.00151779
1.5474e-05
1.25281e-06
0.00153324
9.13133e-06
1.38241e-06
0.00155229
-2.16863e-06
-8.67653e-07
0.0015567
-6.42675e-06
-2.73589e-06
0.00155853
-8.3238e-06
1.91228e-06
0.00155512
-8.41021e-06
5.50953e-06
0.00154025
-2.46582e-06
4.01845e-06
0.00152768
4.91143e-06
-6.16028e-07
0.00154314
4.82754e-07
-4.68283e-06
0.00155418
-3.71338e-07
-2.62318e-06
0.0015449
4.16444e-06
-1.90407e-07
0.00152722
6.60299e-06
1.85312e-06
0.00152445
-8.09416e-07
-6.13582e-07
0.00153493
-4.57208e-06
-2.74609e-06
0.00154832
-3.90566e-06
7.1832e-07
0.00154576
-1.69838e-06
1.06619e-06
0.00153589
2.16167e-06
-2.06231e-06
0.00154305
-2.65802e-06
-2.67643e-06
0.00155188
-6.04201e-06
-4.80456e-06
0.00154758
-2.96918e-06
2.29725e-07
0.00153921
1.46743e-06
3.2293e-06
0.00153399
7.3352e-06
-2.87093e-06
0.00153733
4.58299e-06
-4.41871e-06
0.00153323
2.83885e-06
4.69762e-06
0.0015275
2.49249e-06
5.20219e-06
0.00153723
-3.95017e-06
-4.34432e-06
0.00154449
1.54251e-06
-2.50384e-06
0.00154739
3.74786e-06
8.70657e-06
0.00155455
-7.87578e-06
5.71657e-06
-1.28766e-05
1.59777e-06
0.00154248
-9.57634e-06
-2.98751e-06
0.00153568
2.39871e-05
6.22125e-06
0.00152585
2.33049e-05
1.09465e-05
0.00153929
4.20175e-07
2.68787e-06
0.00155973
-1.0229e-05
-1.54848e-05
0.00156442
-4.37711e-06
-9.9237e-06
0.00155533
-2.96291e-06
1.00823e-05
0.00153739
-5.8781e-06
2.08461e-05
0.00151783
1.13793e-06
1.24097e-05
0.00151284
9.95317e-06
-3.09938e-06
0.00152821
-1.37728e-06
-1.16584e-05
0.00153098
-2.33124e-06
-2.49095e-06
0.00152711
7.78506e-07
5.92117e-06
0.00152709
1.45265e-06
1.99801e-06
0.00152572
4.6208e-08
-4.63033e-06
0.0015243
4.21546e-07
-5.74454e-06
0.00152504
-2.57636e-06
-7.09712e-07
0.00152767
-4.09525e-06
-1.87336e-06
0.00153581
-8.42033e-07
-6.93769e-06
0.00154197
-2.78199e-06
-2.05447e-06
0.00154262
-4.55906e-06
6.29028e-07
0.00153121
-1.5026e-06
3.88573e-06
0.00151616
6.68866e-06
8.71047e-06
0.00152453
4.21043e-06
-8.65238e-07
0.00154229
-1.8389e-06
-1.06017e-05
0.00154354
2.58528e-06
-3.21574e-06
0.00154188
1.87806e-06
2.48439e-06
0.00153855
-1.95701e-06
1.19855e-06
0.00153075
6.88368e-06
1.2063e-06
0.00152855
3.70389e-06
-2.14984e-06
0.00152557
-5.43283e-06
-3.81385e-06
-1.98991e-05
-3.49119e-06
0.00151462
-4.46433e-06
-2.66905e-06
0.00153402
5.56667e-06
-3.99061e-07
0.0015608
7.11727e-06
-8.08231e-07
0.00156744
-3.97548e-07
-2.95196e-06
0.00156076
-4.99149e-07
-4.07275e-06
0.001557
4.44861e-06
1.61736e-06
0.00154488
1.23228e-06
1.78691e-05
0.00152954
-2.60448e-06
1.67879e-05
0.00151585
3.57078e-06
8.42369e-06
0.00152971
3.69376e-06
-1.10867e-05
0.00153937
-4.32601e-07
-1.14379e-05
0.00153849
-1.88151e-06
-1.77595e-07
0.00153358
-4.47645e-07
7.14876e-06
0.0015309
-2.17391e-07
5.30259e-06
0.00153457
-2.13827e-06
-3.92213e-06
0.00153713
-2.14951e-06
-3.18091e-06
0.00153316
-1.10719e-06
1.11084e-06
0.00152876
-1.49468e-06
1.69728e-06
0.00153536
-4.08967e-06
-2.88408e-06
0.00154225
-5.13905e-06
-2.08373e-07
0.00153743
1.39082e-06
1.74488e-06
0.00152699
1.11884e-06
4.37376e-06
0.00153121
3.10679e-07
-1.27823e-06
0.00153369
6.66443e-06
-4.59203e-06
0.00153051
4.79385e-06
-2.11927e-06
0.00152924
2.29452e-06
2.44875e-06
0.00152505
2.86662e-06
5.45428e-06
0.00152691
-5.52511e-06
1.89424e-06
0.00154334
-9.04743e-06
-5.78523e-06
0.00154299
7.89231e-06
-8.46887e-06
0.00153609
2.84624e-06
-5.78187e-06
-1.18423e-05
-2.95099e-06
0.00149626
-2.99427e-06
0.00149867
-4.93674e-06
0.00150431
4.41398e-07
0.00150333
3.95263e-06
0.00150971
2.68357e-06
0.00152567
3.00565e-06
0.00152109
1.38873e-05
0.00150492
1.50488e-05
0.00150181
2.2665e-06
0.00151532
-1.28147e-05
0.00152131
-6.65432e-06
0.00151753
3.35028e-06
0.00151432
3.26379e-06
0.00151288
1.98108e-06
0.00151627
-6.46314e-06
0.00151894
-7.42515e-06
0.00151319
1.24397e-06
0.00150455
5.43515e-06
0.00149859
-5.0386e-06
0.00149961
-4.51231e-06
0.00150453
3.41647e-06
0.00150465
5.74088e-06
0.00150108
-7.19709e-07
0.00151019
-6.30932e-06
0.00151642
-1.1554e-06
0.00152002
-9.50482e-07
0.0015242
1.6245e-06
0.00151261
9.09983e-06
0.00149848
3.36556e-06
0.00151282
-1.0438e-05
0.00151507
-7.07561e-06
3.60859e-08
0.00152297
2.24959e-06
0.00152544
2.15126e-06
0.00151017
4.45408e-06
0.00148768
8.95668e-06
0.00148171
6.23509e-06
0.00149554
5.2842e-06
0.0015176
-2.79631e-06
0.00153143
-5.45915e-06
0.00153184
-3.02389e-06
0.00151886
5.34764e-06
0.00150708
2.86417e-06
0.00151602
-4.66221e-06
0.00153112
-2.99421e-06
0.00153999
-3.11961e-06
0.00152097
2.8034e-06
0.00150119
4.75482e-06
0.00150759
-7.72101e-07
0.00151997
-3.09628e-06
0.00152225
-2.93822e-06
0.00152003
-1.49263e-06
0.0015122
1.93121e-06
0.00150826
1.39739e-06
0.00152068
-6.90155e-07
0.00152607
-9.2446e-07
0.00152264
2.93054e-06
0.00152118
1.72239e-06
0.00151948
7.51173e-07
0.00151094
1.32677e-06
0.00150971
-4.43221e-07
0.00151721
-3.65444e-06
0.00151512
-5.08293e-06
-3.336e-06
0.00153561
2.2262e-06
0.00154089
3.67104e-06
0.00152489
1.39893e-05
0.00150756
1.41429e-05
0.00149976
8.02404e-06
0.0015114
4.42084e-06
0.00153425
-9.6734e-06
0.00154813
-1.40106e-05
0.00154641
-4.21164e-06
0.00154931
4.55457e-07
0.00154274
3.98145e-06
0.00153155
2.31705e-06
0.0015505
-1.01292e-05
0.00156906
-1.219e-05
0.00155228
6.33577e-06
0.00152886
1.16384e-05
0.00153118
-8.62366e-07
0.00154286
-5.84693e-06
0.0015438
-1.07778e-06
0.00153887
2.68906e-06
0.00153656
3.52985e-06
0.00152327
5.44744e-06
0.00152049
-9.1556e-07
0.00153256
-8.29548e-06
0.00153953
-7.82725e-07
0.0015358
5.96004e-06
0.00153023
5.68981e-06
0.0015226
6.39736e-06
0.00152188
2.98758e-06
0.00153095
-7.49433e-06
0.00153473
-8.29246e-06
-4.90624e-06
0.00152629
3.14478e-06
0.0015212
4.08213e-06
0.00151818
1.12557e-05
0.00151885
1.34334e-05
0.00151222
1.18658e-05
0.00153383
-4.88997e-06
0.00154227
-1.08495e-05
0.00153812
-9.54697e-06
0.00154364
-7.25592e-06
0.00154647
1.89526e-06
0.00154358
7.72882e-06
0.00154537
2.53169e-06
0.001549
-1.1818e-05
0.00154337
-7.33461e-06
0.00153489
9.13195e-06
0.00154634
4.73728e-06
0.00154563
1.40483e-06
0.00153024
2.1295e-06
0.00152208
2.47565e-06
0.00152668
-1.94679e-06
0.00152906
-8.33531e-07
0.00152348
4.62096e-06
0.00151728
-4.93843e-07
0.00150587
-1.41387e-06
0.0015112
-2.00951e-06
0.0015202
4.19595e-07
0.00152418
2.36289e-06
0.00151902
8.23685e-06
0.00151794
6.04311e-06
0.0015299
-8.43132e-06
0.00153198
-1.04782e-05
-4.70889e-06
0.00153741
-5.67387e-06
0.00153408
6.29873e-06
0.00152995
1.71538e-05
0.0015274
1.51615e-05
0.00153636
1.70368e-06
0.0015476
-1.53074e-05
0.00154221
-9.01005e-06
0.00153007
4.43125e-06
0.00152505
3.93239e-06
0.00152841
6.58401e-08
0.00153943
-2.87108e-06
0.00154068
1.20392e-06
0.0015283
-2.56846e-06
0.00152726
-8.12858e-06
0.00154115
-3.67883e-06
0.00154481
6.67765e-07
0.00153643
4.84893e-06
0.00153296
2.56586e-06
0.00154037
1.08472e-06
0.00154856
-3.00659e-06
0.00154869
-1.67401e-06
0.00154562
6.43772e-07
0.00153924
3.78471e-06
0.00153104
1.72676e-06
0.00152775
-3.44665e-06
0.00153277
-2.16592e-06
0.00154265
-6.34442e-07
0.00154964
1.84472e-06
0.00154194
9.15099e-06
0.00153066
2.78805e-06
0.00152399
-6.29398e-06
-9.12941e-06
0.00154402
-2.00704e-06
0.00153076
1.64301e-05
0.00152557
1.69155e-05
0.00153004
1.14547e-05
0.00155023
-1.79451e-05
0.00155229
-2.07328e-05
0.00154428
-1.78456e-06
0.00154167
1.4598e-05
0.00155327
3.11751e-06
0.00155168
-2.81069e-06
0.00154711
-7.13799e-06
0.00155108
-3.18884e-06
0.00154482
4.44903e-06
0.00152784
4.44577e-06
0.00152517
-2.23833e-06
0.00153363
-6.63786e-06
0.0015419
-2.26208e-06
0.00154276
2.52745e-07
0.00153708
3.21689e-06
0.00153137
8.00903e-07
0.00153383
-3.15998e-06
0.00153697
-7.05839e-08
0.00153821
5.23013e-06
0.00153652
3.25867e-06
0.00153007
5.77467e-07
0.00152843
3.21016e-06
0.00153075
1.4732e-06
0.00153822
-3.18667e-06
0.00154442
8.74528e-07
0.00153673
7.0941e-06
0.00153712
-5.70706e-06
-9.42315e-06
0.0015287
-2.91391e-06
0.00154162
9.48094e-06
0.00156335
6.75729e-06
0.00157341
5.35548e-06
0.00154305
-3.6332e-06
0.00150758
-1.45038e-06
0.00150248
6.71152e-06
0.00153018
3.26185e-06
0.00154887
-3.33635e-06
0.00154283
-2.60573e-06
0.0015244
-1.59198e-06
0.00151903
3.08549e-07
0.00152581
2.31929e-06
0.00153066
2.85241e-06
0.00152912
1.19736e-06
0.00152376
-4.51468e-06
0.00152063
-1.20894e-06
0.00151641
4.49636e-07
0.00151752
1.95865e-07
0.00152737
-4.86147e-06
0.00152999
-2.69769e-06
0.00153209
2.94082e-06
0.00154494
5.77181e-07
0.00155067
-1.42372e-06
0.00154409
1.05513e-07
0.00153874
5.62186e-06
0.00153549
1.97843e-06
0.0015339
-1.33271e-06
0.0015331
4.48313e-06
0.00153514
5.05384e-06
0.0015305
-7.34999e-06
-1.20102e-05
0.0015272
-3.71113e-06
0.00154123
4.82629e-07
0.00155758
-4.14602e-07
0.0015494
6.04738e-06
0.00152841
5.71001e-06
0.00152102
5.04932e-06
0.00153866
3.2771e-06
0.00155412
-3.72701e-08
0.00155775
-7.49924e-07
0.00154385
-6.33738e-07
0.00152711
1.32012e-06
0.00152424
1.15949e-06
0.0015343
-1.06093e-06
0.00153251
2.28034e-06
0.00152831
4.3587e-06
0.00153112
-4.28278e-06
0.00153247
-3.01736e-06
0.00153092
5.96924e-07
0.00153644
-4.09756e-06
0.00153491
-4.90194e-06
0.00152557
3.03976e-06
0.00151717
8.36793e-06
0.00152053
-6.20267e-07
0.00152874
-3.36025e-06
0.00152971
-1.61065e-06
0.00153428
4.33987e-06
0.00152692
9.94624e-06
0.0015206
-1.64097e-06
0.00153812
-1.14072e-05
0.00155143
-1.206e-07
0.00154479
-9.31306e-07
-6.15061e-06
0.00149701
0.00149504
0.00149527
0.00150169
0.00150623
0.0015142
0.00152498
0.00153497
0.00153772
0.00152637
0.00151801
0.00151759
0.00151753
0.00152486
0.0015272
0.00151465
0.001509
0.00151277
0.00151007
0.00150071
0.00150902
0.00152626
0.00152229
0.00151304
0.00151342
0.0015227
0.00153253
0.00152653
0.00151368
0.00151558
0.00151417
)
;

boundaryField
{
    wall
    {
        type            calculated;
        value           uniform 0;
    }
    outlet
    {
        type            cyclic;
        value           nonuniform List<scalar> 
16
(
0.00151721
0.00153229
0.00153006
0.00153409
0.00155979
0.00153379
0.00152267
0.00149817
0.00151293
0.00153163
0.0015278
0.00152556
0.00154253
0.00152942
0.00153056
0.0015044
)
;
    }
    inlet
    {
        type            cyclic;
        value           nonuniform List<scalar> 
16
(
-0.00151721
-0.00153229
-0.00153006
-0.00153409
-0.00155979
-0.00153379
-0.00152267
-0.00149817
-0.00151293
-0.00153163
-0.0015278
-0.00152556
-0.00154253
-0.00152942
-0.00153056
-0.0015044
)
;
    }
    procBoundary1to0
    {
        type            processor;
        value           nonuniform List<scalar> 
256
(
-4.88015e-06
-4.77397e-06
4.80865e-06
5.72341e-06
-5.68826e-06
-1.14544e-05
-2.31062e-06
1.68587e-06
-1.38617e-06
5.26656e-06
1.37837e-05
-1.04123e-06
-7.79638e-06
-2.20343e-06
8.63213e-06
5.43184e-06
9.76967e-07
-1.76307e-06
-2.5199e-06
-1.12414e-07
3.9101e-06
8.6063e-06
5.81071e-06
3.16798e-06
2.18007e-06
7.06009e-07
-3.71478e-06
3.15917e-06
2.11292e-06
-1.08076e-05
-1.02345e-05
-1.2139e-06
-3.41133e-06
-1.03787e-05
6.18593e-06
5.37231e-06
-4.79993e-06
-7.94459e-06
-3.24031e-07
2.34921e-06
1.47458e-07
2.3322e-06
9.8395e-06
1.96537e-07
-6.61596e-06
-2.0142e-06
6.88833e-06
5.46028e-06
2.36043e-06
-1.20241e-06
-1.38258e-06
-3.25584e-06
-1.31347e-06
5.20039e-06
8.0297e-06
5.8154e-06
9.24322e-07
2.71669e-07
-1.95723e-06
1.13192e-06
-2.25963e-06
-1.28583e-05
-7.5855e-06
4.38551e-06
4.3936e-07
-3.67348e-06
-1.8767e-06
-3.59841e-06
-9.26738e-06
-8.89688e-06
-6.50097e-07
3.44861e-06
1.83682e-06
-1.28306e-06
4.90333e-06
9.8649e-06
-5.26389e-07
-7.13543e-06
1.15895e-06
3.64976e-06
2.22933e-06
2.6835e-06
2.99844e-06
1.52651e-06
4.27763e-06
1.00801e-05
1.52765e-06
5.74329e-06
9.41766e-06
1.67878e-08
-7.11619e-06
-5.22321e-06
-6.89133e-06
-9.38272e-06
-5.10767e-06
5.12241e-06
-1.85631e-06
-2.83729e-06
-4.21304e-06
-5.69625e-06
-4.182e-06
-5.06048e-06
-1.86365e-06
-4.18105e-07
-4.25445e-06
1.41748e-08
5.72426e-06
2.2838e-06
2.40989e-06
2.85929e-06
-1.29571e-06
-3.04232e-06
4.51669e-09
-1.14807e-06
1.0861e-07
8.02052e-06
6.7096e-06
3.13541e-06
-2.67194e-06
4.28147e-06
4.38675e-06
-3.94193e-06
-3.61275e-06
7.48839e-07
-3.01013e-06
-7.51803e-06
-1.14448e-06
4.01912e-06
1.85813e-06
5.34393e-06
-6.82819e-07
-1.0904e-05
-5.67133e-06
-3.51469e-06
-5.15489e-06
-2.86135e-06
5.02762e-06
6.16777e-06
-1.47226e-06
-1.20615e-06
4.14317e-06
6.30909e-06
2.05016e-06
-3.62695e-06
-6.21392e-06
3.66414e-06
9.56935e-06
1.23206e-06
2.06318e-06
3.61835e-06
-8.72203e-07
-1.93375e-08
1.82439e-06
-8.41686e-07
-2.16706e-06
1.67536e-06
3.67872e-07
-7.70803e-06
-8.7948e-06
-3.12363e-06
4.54984e-06
-1.59145e-06
-8.94489e-06
-7.41042e-06
3.10193e-06
3.17754e-06
-6.35048e-06
-5.43726e-06
3.54466e-06
3.04676e-06
-1.8448e-06
1.6731e-06
1.33798e-06
3.16901e-06
5.15383e-06
2.16301e-06
-1.35253e-06
1.63249e-06
1.80174e-06
-3.98099e-06
-2.7598e-06
6.0632e-06
1.11605e-06
-4.38413e-06
-7.32154e-07
2.21567e-06
-2.0541e-07
1.34471e-07
1.25724e-06
4.3902e-06
4.35496e-06
2.28846e-06
5.59844e-06
-5.79879e-07
-9.77762e-06
-2.86851e-06
1.01716e-06
-6.67924e-06
-9.94358e-06
-4.72267e-06
2.83325e-06
3.48127e-06
8.3885e-07
6.05079e-07
-1.01268e-06
-9.51044e-07
2.43151e-06
3.19546e-06
1.38997e-06
1.02907e-07
-4.63761e-07
-4.32451e-06
-2.87463e-06
3.44471e-06
3.43074e-06
-3.43438e-07
-1.32951e-06
-8.91093e-07
-2.24722e-06
-1.92629e-07
5.28385e-06
4.63462e-06
4.4009e-06
8.32037e-06
4.37537e-07
8.09483e-06
1.03834e-06
-3.37634e-06
-9.55579e-06
-1.45226e-05
-8.06879e-06
-1.48521e-06
4.41411e-06
2.99377e-06
2.34724e-07
-1.45694e-06
-5.00807e-07
-7.5569e-07
9.33355e-07
2.61026e-06
3.39428e-06
1.71262e-06
6.90644e-06
-1.64424e-06
-6.94857e-06
-4.73757e-06
4.60099e-06
3.85716e-06
-2.72684e-07
-3.63283e-07
-2.93582e-06
-3.02926e-06
1.71752e-06
3.98986e-06
7.67066e-06
5.02103e-06
)
;
    }
    procBoundary1to2
    {
        type            processor;
        value           nonuniform List<scalar> 
256
(
-4.35553e-06
-4.78252e-06
3.69507e-06
1.62848e-05
8.54911e-06
-1.28246e-05
-2.57398e-05
-1.70082e-05
2.66278e-06
1.03598e-05
7.2887e-06
-2.43385e-06
-5.58636e-06
-2.69707e-06
3.74684e-06
4.39818e-06
-1.95154e-06
-4.77362e-06
-5.72017e-07
9.51173e-07
7.56846e-06
-2.04376e-06
-2.03003e-05
-1.39559e-05
3.96587e-06
4.21943e-06
1.40043e-06
6.12822e-06
4.62724e-06
3.21341e-06
7.52567e-06
3.93019e-06
-2.91035e-06
-4.15558e-06
7.64768e-06
1.79442e-05
1.05978e-05
-9.93768e-06
-2.44252e-05
-1.45816e-05
3.33349e-06
9.9275e-06
6.75583e-06
1.86795e-06
-4.50966e-06
-1.29406e-06
4.53354e-06
3.32265e-06
-4.75258e-06
-3.82599e-06
-6.97464e-07
-2.05149e-06
-1.09455e-07
3.97289e-06
-3.44184e-06
-1.01676e-05
2.34332e-06
2.15969e-06
-2.70933e-06
3.68459e-06
4.9006e-06
2.06203e-06
1.88216e-06
2.34875e-06
8.09088e-08
6.79473e-06
1.20045e-05
8.7133e-06
7.37514e-06
-1.17482e-05
-1.88979e-05
-1.28417e-05
4.50848e-07
3.85429e-06
1.00584e-06
2.70877e-07
-5.33371e-08
6.66944e-08
-1.71099e-06
-8.5279e-06
-3.42895e-06
5.44127e-06
3.24942e-06
-1.69925e-06
9.00147e-07
-3.19168e-07
-4.9731e-06
-4.54797e-06
-3.27817e-06
9.52263e-07
-3.26807e-07
4.70841e-07
3.47714e-06
5.86481e-06
6.83615e-06
-5.08171e-07
-7.69476e-07
3.29435e-06
2.5646e-06
5.5694e-06
8.06531e-06
2.05014e-06
-1.72956e-06
-8.75764e-06
-6.40384e-06
5.27348e-06
6.49401e-06
2.61776e-06
-3.61307e-07
2.40592e-07
-2.81477e-06
-4.64969e-06
-1.11992e-06
-2.27373e-08
-4.75721e-06
-5.14852e-06
4.76352e-07
-8.22451e-08
-2.72705e-06
-1.37855e-06
4.1872e-07
7.13272e-07
-1.7492e-06
-2.54889e-06
6.09156e-06
1.01752e-05
6.33237e-06
-3.27625e-06
-4.21553e-06
5.27695e-06
6.67414e-06
6.23239e-07
-1.40773e-06
6.29175e-07
2.69793e-06
-2.04599e-06
-6.77453e-06
3.85766e-06
4.14998e-06
-2.19489e-06
-9.50398e-07
6.25358e-06
6.23642e-07
-3.90894e-06
-4.40757e-07
2.52348e-06
1.48688e-06
-7.73751e-07
-5.78193e-06
-2.19763e-06
5.50028e-07
-2.71007e-06
-2.00082e-06
9.67092e-07
7.73797e-07
-6.78368e-06
-4.25751e-07
1.20919e-05
4.73158e-06
-3.51065e-06
-1.35793e-06
2.44148e-07
-6.17855e-07
-1.27299e-06
5.58808e-07
6.2681e-06
6.68427e-06
4.47928e-06
1.71821e-07
2.74487e-06
1.22229e-06
-6.22017e-07
1.27696e-06
-1.25906e-06
-6.52753e-06
-2.50632e-06
1.36602e-06
2.14401e-06
-5.01921e-06
-6.24465e-06
-2.45105e-06
-1.23191e-06
5.17157e-07
-1.91071e-06
-3.55757e-06
-2.74386e-07
5.22779e-06
9.37842e-07
-1.60523e-06
-2.15077e-06
2.4735e-06
1.74027e-07
1.49184e-06
-5.43257e-06
-9.9878e-06
4.53389e-06
7.57706e-06
2.50415e-06
3.6654e-06
4.62811e-06
2.20446e-06
8.39917e-07
2.39059e-06
1.84617e-06
4.66395e-07
7.6615e-06
-2.8742e-06
-6.22865e-06
1.56614e-06
3.10509e-06
-4.11501e-06
1.36178e-06
5.35433e-06
7.34572e-06
-3.43849e-06
-1.08687e-05
-1.3792e-06
-8.39377e-07
4.84811e-06
8.52668e-06
-7.41427e-06
-1.66053e-05
-5.56498e-06
5.42252e-06
6.79251e-07
-2.4798e-06
-2.04252e-07
3.57812e-06
3.85673e-06
8.51632e-08
6.38754e-06
5.01784e-06
-1.22836e-06
-2.09861e-06
3.02049e-06
4.92915e-06
2.26767e-06
-3.07641e-06
-4.43598e-06
8.37269e-07
3.87363e-06
2.26492e-06
-6.43675e-06
-5.40812e-08
-1.84858e-06
-3.13449e-06
2.62743e-06
-4.20619e-07
-3.14484e-06
-5.89238e-06
1.74332e-06
1.34605e-05
4.80583e-06
-1.24578e-05
-6.59887e-06
3.65937e-06
)
;
    }
}


// ************************************************************************* //
