/*--------------------------------*- C++ -*----------------------------------*\
| =========                 |                                                 |
| \\      /  F ield         | OpenFOAM: The Open Source CFD Toolbox           |
|  \\    /   O peration     | Version:  2506                                  |
|   \\  /    A nd           | Website:  www.openfoam.com                      |
|    \\/     M anipulation  |                                                 |
\*---------------------------------------------------------------------------*/
FoamFile
{
    version     2.0;
    format      ascii;
    arch        "LSB;label=32;scalar=64";
    class       volVectorField;
    location    "0.007";
    object      U_0;
}
// * * * * * * * * * * * * * * * * * * * * * * * * * * * * * * * * * * * * * //

dimensions      [0 1 -1 0 0 0 0];

internalField   nonuniform List<vector> 
512
(
(10.0963 0.0311681 0.122561)
(9.99541 0.00861034 0.0100315)
(9.87471 -0.0231193 -0.0991047)
(9.88807 -0.0353761 -0.0876658)
(10.0337 0.0199353 0.0180186)
(10.0619 0.047272 0.0159132)
(9.90953 -0.000778329 -0.0263074)
(9.9615 -0.0125196 0.00916258)
(9.96096 -0.00662349 0.0505204)
(9.7809 -0.00175967 -0.0467159)
(9.84676 -0.00185574 -0.108916)
(10.1832 -0.000370534 0.0290386)
(10.1489 -0.00348322 0.0867156)
(9.96094 -0.0154724 0.0268475)
(9.94661 0.00950285 -0.0807393)
(10.0203 0.0270809 -0.095014)
(10.0256 0.0143947 -0.0141361)
(10.0367 0.00965875 0.000232564)
(10.0754 -0.0152705 -0.0240261)
(10.0325 -0.0136581 -0.0250989)
(9.92092 -0.00623739 0.000875662)
(9.98948 -0.0141285 -0.0887749)
(10.052 -0.0190026 -0.0914388)
(9.85883 -0.00588457 -0.038605)
(9.81706 0.00864847 0.0138979)
(9.95904 0.0236245 0.0455015)
(9.97123 0.0248088 0.0236689)
(9.86259 0.000689456 -0.0659544)
(9.90223 -0.0170863 -0.0367575)
(10.0076 -0.0151782 0.0941243)
(9.98451 -0.0214708 0.086933)
(10.1092 0.0161081 0.0744765)
(10.22 0.0444394 0.0726741)
(10.0644 0.0382799 0.100476)
(9.98942 -0.00531444 -0.015476)
(10.0483 -0.0149964 -0.0257136)
(10.1729 0.0201802 0.00916809)
(10.2083 0.0232646 -0.0130806)
(10.04 -0.0443531 -0.0628837)
(10.0839 -0.0387298 -0.0244463)
(10.077 -0.0121133 0.0402566)
(9.87979 0.0200479 -0.00931911)
(9.94031 0.0433296 -0.050049)
(10.2763 -0.0295829 0.00716556)
(10.234 -0.0439703 0.0738655)
(10.1221 -0.0113347 0.018405)
(10.1469 0.0386622 -0.0825932)
(10.1653 0.0284539 -0.109065)
(10.1429 -0.00595794 -0.0514862)
(10.066 0.0139926 -0.00880321)
(10.0928 0.00127238 -0.00935307)
(10.1485 -0.0313079 0.00460969)
(10.1008 -0.0315856 0.03952)
(10.1664 -0.0537922 -0.0650042)
(10.1981 -0.0455876 -0.102959)
(10.0076 -0.0107899 -0.0434401)
(9.96323 0.0324415 0.0418639)
(10.0728 0.0254273 0.0211719)
(10.0883 0.0291003 -0.0110252)
(9.91065 0.0704102 -0.0339791)
(9.93962 0.0556143 -0.00116931)
(10.1353 -0.0594432 0.0824849)
(10.1291 -0.0668347 0.0698995)
(10.223 0.0156799 0.0398738)
(10.2471 -0.0188154 0.0344071)
(10.0586 0.0170898 0.0114658)
(10.0101 0.0850547 0.0461806)
(10.111 0.117678 0.0851231)
(10.2035 -0.00661224 0.0523877)
(10.2011 -0.0610199 0.0263839)
(10.0203 -0.0810504 -0.0481516)
(10.0777 -0.076371 -0.0531675)
(10.0938 -0.0105199 0.0254474)
(10.031 0.0531955 0.0113029)
(9.95949 0.0704665 -0.0277097)
(10.0236 0.0076917 0.00457012)
(10.2076 -0.0505822 0.0291095)
(10.2286 -0.0233616 0.00753269)
(10.2347 0.0443122 -0.070308)
(10.1886 0.025642 -0.0441772)
(10.1191 -0.00118236 -0.0467347)
(10.1185 0.028922 -0.0862565)
(10.124 0.050209 -0.08186)
(10.1212 -0.0272368 -0.00675933)
(10.09 -0.00758543 -0.0187691)
(10.1479 -0.0505759 -0.0696576)
(10.1854 -0.105733 -0.0391775)
(10.0835 -0.110857 -0.0451477)
(10.0042 0.0476765 -0.00380493)
(10.0708 0.024711 0.018873)
(10.1053 0.0178891 0.00663935)
(10.0677 0.112961 -0.0108876)
(10.0046 0.107329 0.0662477)
(10.0341 -0.00803922 0.109665)
(10.0299 -0.0924299 0.0638682)
(10.2341 -0.0443656 0.0170473)
(10.2195 -0.0179279 0.0451369)
(10.0689 -0.00854507 0.0289058)
(9.9915 0.0947589 0.0541888)
(10.1766 0.131548 0.0394635)
(10.2551 0.0818967 0.0198876)
(10.0617 -0.0801101 0.00607667)
(9.93701 -0.0880829 -0.0257356)
(10.0385 -0.0815943 -0.0265878)
(10.0699 -0.0773159 0.012032)
(10.0463 -0.0140396 0.0173424)
(10.1128 0.056748 0.0357009)
(10.1419 0.0502063 0.0104768)
(10.1285 -0.0164214 -0.0596485)
(10.1897 -0.0164094 -0.0588326)
(10.244 0.00436504 -0.0159682)
(10.1855 -0.00784329 -0.0272763)
(10.1647 0.0373738 -0.0210623)
(10.1861 0.0207747 -0.0212611)
(10.1522 0.00872799 -0.014093)
(10.0289 0.0173114 -0.025543)
(10.0363 -0.00694527 -0.0471759)
(10.0671 -0.0122117 -0.0540653)
(10.1205 -0.0749973 0.000594017)
(10.1361 -0.0723029 -0.0245593)
(10.0855 0.0368155 -0.0131852)
(10.1235 0.00555836 0.0433559)
(10.1459 -0.00760422 0.0403325)
(10.1311 0.0734999 -0.013924)
(10.0008 0.106234 0.0299628)
(10.0109 0.0343842 0.0787129)
(10.0451 0.00798163 0.0286599)
(10.2162 -0.000358345 0.0142233)
(10.2108 0.0791637 0.0309744)
(10.0863 0.0591548 -0.0144923)
(10.1086 0.0471744 -0.0125167)
(10.1426 0.0584888 0.0543207)
(10.1629 0.0641787 0.035855)
(9.99523 -0.122791 -0.0187948)
(9.95711 -0.125934 0.00793518)
(9.99819 -0.103339 0.00672326)
(9.98939 -0.0364046 0.00478772)
(10.0463 -0.0245851 -0.0066858)
(10.2813 -0.00520613 -0.00967573)
(10.2766 0.011652 0.00961236)
(10.0809 0.0218528 -0.0320711)
(10.0541 0.0232032 -0.0568849)
(10.2264 -0.0101295 -0.0583256)
(10.2312 -0.0157178 -0.0233514)
(10.1968 0.00783479 0.0215086)
(10.0813 -0.00795829 -0.0502712)
(10.0525 -0.0046743 -0.0760491)
(10.1406 -0.0118732 -0.0293155)
(10.1356 -0.0294334 -0.0306992)
(10.0755 -0.0258815 0.00943411)
(10.0933 -0.0267857 0.0309956)
(10.1585 0.0429625 -0.00483977)
(10.0996 0.0507533 -0.0146844)
(10.0962 0.0114441 0.0358232)
(10.1506 0.0250829 0.040364)
(10.1872 -0.0179235 -0.00556223)
(10.0456 0.0598378 0.0403773)
(10.0315 0.0541602 0.0639813)
(10.0732 -0.0628781 0.0264947)
(10.2068 0.02841 0.0451435)
(10.1496 0.0794997 -0.0148725)
(10.1378 0.282348 0.0569756)
(10.0286 0.20002 0.127294)
(10.025 0.00117812 0.0139438)
(10.0217 -0.147319 -0.109414)
(10.0377 -0.148258 -0.0924924)
(9.97915 -0.0813151 0.0776916)
(9.9965 -0.0621827 0.0983397)
(10.0569 0.0272286 0.0598001)
(10.1672 0.0588457 -0.00711254)
(10.2376 -0.0239638 -0.0479258)
(10.2165 -0.0293044 -0.0320776)
(10.1792 0.0160654 -0.0217287)
(10.172 0.0287983 -0.0552228)
(10.1508 -0.000616239 -0.085805)
(10.1368 -0.00244666 -0.0189785)
(10.1445 -0.033598 0.0422344)
(10.1552 -0.0129449 -0.00530195)
(10.1387 0.0452297 -0.0159165)
(10.056 -0.0130664 0.0410116)
(10.0108 -0.063669 0.0389042)
(10.0102 -0.0404297 0.06066)
(10.1503 0.0464945 0.029571)
(10.2036 0.0198092 -0.0141894)
(10.1581 -0.0282146 -0.080235)
(10.0771 0.0133837 -0.0215262)
(10.0591 -0.00385491 -0.0130682)
(10.1639 -0.032176 -0.00764877)
(10.0979 0.0594127 0.00568904)
(10.055 0.0728582 -0.0228728)
(10.096 -0.0721379 -0.0433273)
(10.0954 -0.0938938 -0.0135707)
(10.1394 -0.00374771 -0.04098)
(10.1131 0.126171 0.0243214)
(10.0029 0.118875 0.0770603)
(9.96633 -0.0599324 -0.0432528)
(10.0135 -0.061423 -0.0446304)
(10.0518 -0.00263332 0.0459479)
(9.9558 -0.0146608 0.142224)
(9.9664 -0.0289054 0.122964)
(10.1535 0.0296844 0.051559)
(10.205 0.0388095 -0.0469923)
(10.1932 -0.00485073 -0.0547187)
(10.1915 -0.00792912 -0.0144844)
(10.1806 0.000530253 0.00304199)
(10.1697 0.000917709 -0.0214484)
(10.1642 -0.00774759 -0.0698453)
(10.1585 -0.00771546 -0.0331583)
(10.1507 -0.0032578 -0.0199943)
(10.13 -0.0140977 -0.0230123)
(10.1273 -0.0339921 -0.00379166)
(10.0148 -0.0362146 0.0256345)
(10.0289 -0.00682645 0.0354414)
(10.0769 -0.00954348 0.0455857)
(10.2159 0.0234756 -0.00839457)
(10.2347 0.0199108 0.000537033)
(10.069 0.00431695 0.0117292)
(10.033 0.0392412 0.022389)
(10.0502 -0.0121723 0.0301043)
(10.2407 -0.0689241 -0.024667)
(10.2799 -0.000468654 -0.0465318)
(10.0716 0.108795 -0.0304191)
(10.011 -0.00450201 -0.0258357)
(10.0331 -0.139813 -0.0599098)
(10.0603 0.0164571 -0.0206329)
(9.99212 0.0374506 -0.0636188)
(9.75929 -0.00836792 -0.0649765)
(9.77668 -0.0239719 -0.0172449)
(9.94243 0.0230396 0.056164)
(9.98708 0.045571 0.111945)
(9.86934 0.021372 0.136661)
(9.8477 0.00217871 0.102935)
(10.0729 0.0234708 0.0171114)
(10.0698 0.0182928 -0.0619484)
(10.0467 -0.00086401 -0.0467607)
(10.0687 -0.00559735 0.00018463)
(10.0822 0.00273202 -0.00528213)
(10.0606 0.00491394 0.00647097)
(10.0173 -0.00259961 -0.028867)
(10.035 -0.0104915 -0.0483027)
(10.035 -0.00960144 -0.0397699)
(10.0191 -0.00999837 -0.0410044)
(9.99555 -0.0311156 -0.0678557)
(9.94102 -0.0151897 0.009988)
(9.95109 0.0182639 0.055815)
(9.98319 0.0105163 0.0834254)
(10.0754 -0.00775595 0.000219179)
(10.1345 0.0331772 -0.00778456)
(9.95327 0.0280225 0.0118496)
(9.8515 0.019121 0.00845272)
(10.0882 0.0132343 0.0394506)
(10.1542 -0.0337821 0.0222678)
(10.0348 -0.103645 -0.0536038)
(9.90885 0.0417842 -0.0769096)
(9.87886 -0.00528044 -0.0308123)
(9.97126 -0.0551096 -0.00665458)
(10.1384 0.00403742 0.0675275)
(9.95157 0.0212895 -0.0514518)
(9.86114 0.0309937 0.0178193)
(9.90091 0.0323264 0.122695)
(10.0133 0.019012 0.0825217)
(10.0328 0.0164959 0.0556119)
(9.91238 -0.0253188 -0.120156)
(9.98412 -0.0231965 -0.115953)
(10.0087 0.00336 -0.0313587)
(9.78408 0.0303254 0.0423379)
(9.8334 0.0450182 0.0325112)
(10.214 -0.0209615 -0.00965536)
(10.193 -0.0122665 -0.0145144)
(10.0547 -0.0109626 -0.0392567)
(9.74507 0.00274652 -0.00607085)
(9.80967 0.00584881 0.0058019)
(10.0769 -0.0157524 0.0438425)
(10.0463 -0.0187292 0.0682361)
(10.0362 -0.0164575 0.0347129)
(10.0128 0.000570554 0.0025004)
(9.93919 0.0197564 0.0376805)
(9.97738 -0.00506349 -0.066117)
(10.0831 -0.00896644 -0.173988)
(10.0257 0.00489792 -0.164869)
(9.92606 0.040795 0.0608019)
(9.98765 0.0177113 0.0416402)
(9.91423 0.0091174 0.0178281)
(9.90599 0.00507233 0.0369563)
(10.0303 -0.0146183 0.0669961)
(10.0399 -0.028069 0.0298613)
(9.96708 -0.0262571 0.015641)
(10.0591 -0.00501472 0.0275116)
(10.2281 0.0171012 -0.0165521)
(10.0667 -0.00366602 -0.0638745)
(9.96992 0.0780167 0.0598616)
(10.0204 0.116655 0.125137)
(10.1172 0.05121 0.0485535)
(10.1024 0.0418925 0.0247429)
(9.99181 -0.0598765 -0.118133)
(10.0848 -0.0867151 -0.124738)
(10.1369 -0.01437 -0.00968685)
(10.0729 0.0278707 0.0384518)
(9.97997 0.0101893 0.0232765)
(10.0535 -0.0144118 -0.00352773)
(10.2711 -0.0632605 0.0177645)
(10.258 -0.0625992 0.0431763)
(9.94367 0.0350204 -0.00806056)
(9.97963 0.0684473 -0.028587)
(10.1899 -0.00551983 -0.00885875)
(10.1733 -0.0477722 0.0338221)
(10.1785 -0.0402264 0.0342915)
(10.1636 -0.0158714 0.00712696)
(10.0658 0.0241947 0.0134705)
(10.0792 0.0158022 -0.03921)
(10.1652 -0.0269694 -0.114766)
(10.1789 -0.0342407 -0.102774)
(10.0652 0.0444559 0.0595653)
(10.0774 0.0137986 0.0184666)
(10.0171 0.0292613 0.0144616)
(10.0119 0.0551131 0.0516926)
(10.1181 0.00391627 0.0758182)
(10.1373 -0.0358879 0.0591851)
(10.0631 -0.0364673 0.0715628)
(10.1867 -0.00158404 -0.00909913)
(10.2426 0.0182047 0.0153604)
(10.0905 0.0254312 0.0376493)
(10.0012 0.106176 0.0692159)
(10.0786 0.11239 0.0559041)
(10.0924 0.0636206 0.0355673)
(10.103 0.00583513 -0.0236743)
(9.84273 -0.0805478 -0.107584)
(9.90462 -0.122935 -0.138946)
(10.2214 -0.0659225 -0.00285367)
(10.101 -0.0112099 0.0178558)
(10.0568 0.0454704 -0.000694845)
(10.2268 0.00412183 0.0149361)
(10.2268 -0.0806135 0.00231359)
(10.0651 -0.0486027 0.0267697)
(10.0248 0.0664014 0.00874886)
(10.1814 0.0664971 -0.0363462)
(10.1125 0.00706411 0.0219442)
(10.079 0.00699849 0.035986)
(10.1943 0.0241721 0.0242973)
(10.2192 0.0236183 0.00234606)
(10.0842 0.0024841 0.0150166)
(10.0538 0.00776072 -0.0336345)
(10.1222 -0.0274415 -0.124565)
(10.099 -0.0430378 -0.0780448)
(10.0522 -0.0265512 -0.0156954)
(10.0657 0.0196929 0.035098)
(10.0877 0.0339254 0.0109767)
(10.0393 0.0964822 -0.00606466)
(10.0949 0.0415283 0.0426179)
(10.1028 -0.0430949 0.105776)
(10.0475 -0.0433902 0.0964144)
(10.1893 -0.00734038 -0.00166659)
(10.2844 0.0074464 0.0528623)
(10.1478 0.0282416 0.0200415)
(10.0736 0.065955 0.0269709)
(10.1012 0.0564488 0.0579654)
(10.0864 0.0350405 0.0874155)
(10.0466 -0.101012 0.0146942)
(9.82523 -0.0687943 -0.0444548)
(9.87695 -0.0408257 -0.110793)
(10.2322 -0.0292172 -0.0425919)
(10.2446 0.000348757 -0.00465255)
(10.1956 0.0253695 0.0160867)
(10.1205 0.00909453 0.0371238)
(10.0182 -0.056773 0.0174651)
(10.0804 -0.0512282 0.0175037)
(10.2003 0.0178404 -0.0252518)
(10.113 -0.00825932 -0.055208)
(10.0852 0.00164666 -0.042077)
(10.1599 0.0411663 -0.0319948)
(10.1661 0.0321067 -0.0282487)
(10.0907 -0.0604869 0.00515)
(10.1304 0.00537546 -0.0130807)
(10.1254 0.0371582 -0.0286431)
(10.1403 0.00448582 -0.0208457)
(10.1025 -0.00745506 -0.0354222)
(10.0177 0.005418 -0.0468668)
(10.1145 -0.00538584 0.0433594)
(10.18 -0.00599801 0.039134)
(10.1044 0.0896189 -0.0095438)
(10.003 0.0662051 0.0535278)
(10.0206 -0.0334934 0.0846396)
(10.0508 -0.0319743 0.0273151)
(10.2217 0.00709576 -0.0271533)
(10.1563 0.0331051 -0.00466018)
(10.1036 0.111429 0.0515039)
(10.0614 0.116837 0.0375536)
(10.0787 0.0778078 -0.0228952)
(10.0292 -0.126356 -0.0602277)
(10.0291 -0.21513 -0.0459505)
(9.92054 -0.0306498 0.029712)
(9.931 0.0635063 0.0107906)
(10.2296 0.0386108 -0.0169757)
(10.1473 0.00501019 0.00637468)
(10.0873 -0.0533493 0.00182052)
(10.1988 -0.0298289 -0.0361689)
(10.1389 0.0189593 -0.00424073)
(10.0992 -0.00955277 0.0426309)
(10.1789 -0.0402216 0.00777979)
(10.2041 -0.0140583 -0.0134359)
(10.1615 0.0389793 -0.0122129)
(10.0672 0.0196723 0.0064275)
(10.0369 0.0259067 0.0189043)
(10.0818 0.0139057 -0.0182167)
(10.0964 -0.00749203 -0.0474329)
(10.1281 -0.0213864 0.0369145)
(10.1644 0.00907648 0.0437499)
(10.1709 -0.0157622 -0.0145587)
(10.1128 -0.0289977 0.00405901)
(10.091 0.0146258 0.0507763)
(10.1205 0.0121324 0.00163896)
(10.1419 -0.0650919 -0.0625436)
(10.0437 0.072156 0.0179508)
(10.0577 0.0661222 0.106661)
(10.1294 -0.0787294 0.0237821)
(10.1603 -0.0100446 -0.0215081)
(10.1187 0.043124 -0.00260951)
(10.1314 0.16912 0.0434524)
(10.0999 0.162294 0.0480492)
(10.0857 0.018589 -0.0186648)
(9.9079 -0.17518 -0.0537912)
(9.9219 -0.13508 -0.036267)
(10.023 0.0442562 0.0606249)
(10.1152 0.0582816 0.0703718)
(10.1668 -0.00710405 0.0268594)
(10.0724 -0.0223543 0.011787)
(10.0361 -0.04045 -0.00424852)
(10.2121 -0.0399491 0.00680759)
(10.2252 -0.00278838 0.0372352)
(10.1809 0.0338565 0.0116321)
(10.1739 -0.0123896 -0.057901)
(10.1594 -0.0209192 -0.0347337)
(10.0695 -0.00130523 0.00283169)
(10.064 0.0390521 -0.0214895)
(10.0601 0.0797919 -0.0674339)
(10.0192 0.00956085 -0.0381465)
(9.99141 -0.00733434 -0.0236518)
(10.0756 -0.00379847 0.0122493)
(10.1952 -0.0113117 0.0358463)
(10.1879 -0.0393373 0.0034054)
(10.0789 0.0083496 -0.0655015)
(10.0284 0.00893643 0.0170252)
(10.047 -0.0462227 0.0440501)
(10.1887 -0.0106959 -0.0066359)
(10.1662 0.0673012 -0.00349585)
(10.0831 0.0762573 -0.0110843)
(10.1001 -0.0505407 -0.00559778)
(10.0648 -0.0681267 -0.0231809)
(10.1434 0.0114988 -0.00209183)
(10.1352 0.0250999 -0.0348866)
(10.0328 -0.0319801 -0.0920871)
(9.87672 0.00277878 0.0154818)
(9.92283 0.0298064 0.0141662)
(10.0581 0.0612802 -0.0156696)
(10.1016 0.0612336 0.0604075)
(10.0754 -0.0091498 0.0990448)
(10.1199 -0.0190586 0.047642)
(10.0447 -0.0170296 -0.0144062)
(10.0351 -0.000154505 -0.038841)
(10.2661 0.0222966 -0.00406357)
(10.2787 0.0250034 0.0286763)
(10.1345 0.0724663 0.0574399)
(10.1029 0.0412097 0.000197932)
(10.1469 -0.0603633 -0.0154895)
(10.161 -0.0412063 0.0404633)
(10.1484 -0.0285498 0.0402987)
(10.11 -0.0632838 -0.0323136)
(9.96819 -0.0462841 0.00144297)
(9.98162 -0.00630787 0.0128211)
(10.0608 0.0358093 0.0342858)
(10.1995 -0.024248 -0.0521563)
(10.2149 -0.0318001 -0.0787813)
(10.1227 0.00778548 -0.0156189)
(10.0283 0.0865534 0.0222934)
(10.0955 0.0617135 0.0839426)
(10.2161 -0.0603155 0.0047363)
(10.244 -0.0404621 -0.0779726)
(10.1194 0.0711747 -0.119174)
(10.0395 -0.0377791 -0.0105148)
(10.0218 -0.0813379 0.0164676)
(10.0359 -0.00253736 -0.00906576)
(10.0282 -0.0227804 -0.0772207)
(9.81757 -0.0308896 0.00940637)
(9.85169 0.0415007 0.0848553)
(9.90475 0.0716204 0.0401504)
(9.93044 0.0412869 -0.0211738)
(9.92766 0.0343447 0.0753126)
(9.92795 0.00566173 0.0922427)
(9.97065 -0.000457918 0.0204541)
(9.91883 -0.00115057 -0.0321038)
(9.92957 0.0105207 -0.0184439)
(10.1686 0.0190297 0.0151869)
(10.153 0.00860933 0.0238634)
(10.0956 0.0506273 0.0250621)
(9.94958 0.0308064 -0.0338227)
(9.93648 -0.00966065 -0.0321801)
(10.0582 -0.0122129 0.0508323)
(10.0679 -0.0200967 0.043411)
(9.96401 -0.0633399 -0.0778503)
(9.97521 -0.0389668 -0.0566003)
(10.0136 0.0193965 -0.0207414)
(10.041 0.024657 -0.00894007)
(10.0454 0.00103055 -0.00927635)
(10.0469 0.00238903 -0.0276749)
(9.98112 0.0220319 -0.00165234)
(9.91908 0.0280795 -0.0275393)
(10.0824 0.0244022 0.0874084)
(10.1412 -0.0285674 0.139079)
(10.1028 -0.123319 0.0135306)
(9.91963 -0.030412 -0.201971)
(9.83725 -0.0019969 -0.033579)
(9.8515 -0.0190321 0.0491507)
)
;

boundaryField
{
    wall
    {
        type            fixedValue;
        value           uniform (0 0 0);
    }
    outlet
    {
        type            cyclic;
    }
    inlet
    {
        type            cyclic;
    }
    procBoundary1to0
    {
        type            processor;
        value           nonuniform List<vector> 
256
(
(10.3334 0.0358374 0.0552195)
(10.2877 -0.058764 -0.00318747)
(10.0009 -0.0389241 -0.0686588)
(9.92662 -0.00465494 -0.0395444)
(10.0907 0.0251207 0.104922)
(10.1718 0.0239186 0.10497)
(9.99492 -0.0036909 -0.000508911)
(9.98174 -0.00160568 -0.00404209)
(10.1209 -0.00325016 0.0183435)
(10.1401 -0.00593656 0.00653977)
(10.1469 -0.0052305 -0.084597)
(10.104 -0.00477539 -0.0651261)
(10.1209 -0.00241552 0.0264686)
(10.1527 -0.00598387 0.0257204)
(10.1504 0.0207557 -0.0472395)
(10.154 0.0379729 -0.0332036)
(10.1315 0.013216 -0.0130999)
(10.1258 -0.0190293 -0.00999526)
(10.1574 -0.0227543 0.0349654)
(10.1058 -0.0131775 0.0121344)
(10.081 -0.0125824 -0.041264)
(10.2253 -0.0274645 -0.00721417)
(10.2417 -0.0113892 0.0107243)
(10.0552 -0.00580271 -0.0572641)
(9.98602 0.033172 -0.0959761)
(10.0689 0.0513149 -0.0212191)
(10.1372 0.020513 0.0392185)
(10.1049 -0.00838966 -0.00441394)
(10.0105 -0.0182116 0.0242827)
(10.0398 -0.0132457 0.0648348)
(10.0731 -0.0253339 0.099058)
(10.3773 0.0153364 0.0597236)
(10.4349 0.0570479 0.10618)
(10.3956 -0.0247108 0.016423)
(10.178 -0.0423026 -0.101853)
(10.1462 -0.023265 -0.0961583)
(10.2282 0.020758 0.0498603)
(10.2642 0.0264988 0.0741324)
(10.1055 -0.0361249 0.0413175)
(10.0995 -0.0360295 0.02901)
(10.2236 -0.0162681 0.0200684)
(10.2242 -0.0109649 0.0110986)
(10.2793 -0.0234297 -0.0821704)
(10.2541 -0.0381566 -0.0671141)
(10.2627 0.00140154 0.015181)
(10.3078 -0.00452242 0.00416587)
(10.3186 0.0275843 -0.0441311)
(10.283 0.030173 -0.0214402)
(10.1847 0.016154 -0.0258903)
(10.1168 0.0276551 -0.0121252)
(10.2001 -0.00169649 0.0280948)
(10.2336 -0.00510978 0.0247893)
(10.2315 0.051827 -0.0328087)
(10.3558 -0.0304549 -0.0268297)
(10.3835 -0.0897561 0.0121341)
(10.235 -0.0588066 -0.0310046)
(10.1311 0.107958 -0.0970194)
(10.2105 0.0794288 -0.035208)
(10.255 0.00333708 0.0306748)
(10.1679 -0.00208047 0.0185346)
(10.0911 0.00221889 0.0515679)
(10.1385 -0.00911318 0.0827629)
(10.2683 -0.0699111 0.075489)
(10.4774 0.0146664 0.0668729)
(10.449 0.0206595 0.0339419)
(10.3489 0.0327647 0.053734)
(10.1721 0.0514584 -0.0381013)
(10.1916 0.0732582 -0.0524601)
(10.2618 0.0488008 0.0586201)
(10.2874 0.0174665 0.064707)
(10.1438 -0.0837122 0.0234675)
(10.1461 -0.0739893 0.0089929)
(10.2489 -0.0398629 0.0376973)
(10.2108 -0.0408489 0.0441382)
(10.2753 0.00363181 -0.0505745)
(10.3462 0.01157 -0.101033)
(10.3224 0.033461 -0.014479)
(10.3042 0.0236892 -0.0230631)
(10.3 0.00796892 -0.0389533)
(10.183 -0.0280597 -0.00239532)
(10.1565 -0.035933 -0.0208897)
(10.2168 0.0126509 -0.0150214)
(10.1846 0.0383857 -0.0150904)
(10.1831 0.0415746 -0.0308426)
(10.2581 0.0357063 -0.0711155)
(10.3115 0.00253614 -0.0710199)
(10.279 -0.0978275 0.0300126)
(10.3112 -0.0587052 -0.0226193)
(10.2205 0.0402923 -0.114484)
(10.1736 -0.0251716 -0.00987076)
(10.1946 -0.0423749 0.0441746)
(10.137 0.0937049 0.0672022)
(10.0721 0.104032 0.0763185)
(10.1483 0.0356361 0.0614374)
(10.3123 -0.0480726 0.0510015)
(10.4821 -0.0100343 0.0291124)
(10.3688 0.0271745 0.0341322)
(10.2203 0.0294895 -0.0265863)
(10.1812 0.0636472 -0.0227602)
(10.3155 0.0668793 0.0408789)
(10.3854 0.00549571 0.0265698)
(10.1686 -0.105708 0.00806569)
(10.0582 -0.0912893 0.0253533)
(10.1199 -0.0643574 0.0281137)
(10.2833 0.0187617 0.0641492)
(10.3526 0.0154033 0.0421091)
(10.3537 0.0220922 -0.0367827)
(10.3218 0.0122663 -0.0532527)
(10.2568 -0.00149532 -0.0111539)
(10.1997 -0.00245292 -0.0427874)
(10.2139 -0.0101989 -0.0117113)
(10.1386 -0.0379129 0.0198796)
(10.1692 -0.0421477 -0.0211852)
(10.2726 -0.0309929 0.0284115)
(10.2858 0.00947684 0.0157001)
(10.2877 0.0208522 -0.0299012)
(10.2574 -0.0431704 -0.0626951)
(10.1562 -0.0661889 -0.0299577)
(10.1585 -0.0339304 0.0170021)
(10.3069 -0.050245 -0.0588303)
(10.175 -0.0371278 -0.0611739)
(10.162 -0.0212898 0.0189353)
(10.294 -0.0127412 0.0172311)
(10.3316 0.118484 0.0298479)
(10.1474 0.149956 0.0607395)
(10.1633 0.0764169 0.0631648)
(10.2364 -0.0254733 0.0164073)
(10.3931 -0.00894158 0.0174838)
(10.3233 0.0571504 -0.0149101)
(10.2189 0.0613084 -0.0495462)
(10.1785 0.0972772 0.0139817)
(10.2898 0.0752629 0.082538)
(10.3671 -0.0138843 0.0622694)
(10.0825 -0.182041 0.0278488)
(10.022 -0.131667 0.0258559)
(10.1299 -0.064751 0.0243408)
(10.3587 0.0482168 -0.00459216)
(10.3023 0.0370957 -0.0614368)
(10.2681 -0.0101211 -0.0536736)
(10.3276 -0.0273166 -0.0104091)
(10.3333 -0.0217133 0.0135859)
(10.2636 -0.00761375 -0.0368685)
(10.2672 -0.0116384 -0.00780628)
(10.1528 -0.0224296 0.0221899)
(10.1911 -0.0234903 0.026279)
(10.3116 0.0412426 0.0165361)
(10.259 0.0261751 -0.0279275)
(10.2637 -0.0449054 -0.00474254)
(10.1571 -0.10808 -0.0421165)
(10.1319 -0.0615806 -0.0584427)
(10.2313 -0.00303441 -0.00397166)
(10.293 -0.00302071 -0.00755608)
(10.1893 0.0130989 -0.0181975)
(10.203 0.0473795 0.00807371)
(10.3425 0.0567128 0.0149979)
(10.3593 0.00273242 0.00384477)
(10.1614 0.0979981 0.029069)
(10.1383 0.0991179 0.0458038)
(10.1645 0.0175033 0.0715406)
(10.3218 0.0155437 0.0396128)
(10.4621 0.155144 -0.0214137)
(10.2819 0.110049 -0.0639858)
(10.165 0.0261795 0.0268483)
(10.168 0.0214289 0.0367682)
(10.1889 -0.099065 -0.00894983)
(10.0144 -0.180433 0.0373215)
(9.99226 -0.0965852 0.0366072)
(10.1379 -0.0538243 0.0243601)
(10.3924 0.00906699 -0.0243967)
(10.3524 0.00681252 -0.053055)
(10.2977 -0.0312292 -0.0397551)
(10.3338 -0.0299377 -0.00658567)
(10.3657 -0.00815205 0.0319057)
(10.2821 -0.00765539 -0.00725595)
(10.2685 -0.0207828 -0.000931896)
(10.1513 -0.00802422 -0.00871205)
(10.1807 0.0270124 -0.0244374)
(10.3451 0.0435358 0.00180163)
(10.3203 0.0347204 -0.0135707)
(10.0871 -0.0687937 -0.00472526)
(10.1076 -0.0827039 -0.0372511)
(10.2045 -0.0795998 -0.087544)
(10.439 0.036706 0.0323112)
(10.42 0.0233489 0.0397877)
(10.2966 -0.0258223 0.000993648)
(10.1497 0.0280517 -0.0128178)
(10.16 0.0124291 0.0103563)
(10.2765 -0.0195556 0.0114422)
(10.2866 0.0225067 0.000518428)
(10.2015 0.0931074 -0.0137807)
(10.1462 -0.0274326 0.000996289)
(10.3701 0.063402 0.0334031)
(10.2883 0.0118483 -0.0375746)
(10.2653 0.136558 0.00851358)
(10.0523 0.15209 0.119087)
(10.0361 0.0234831 0.0509884)
(10.0979 -0.15713 -0.00448583)
(10.0908 -0.128441 0.0488048)
(10.1262 -0.0589452 0.0454607)
(10.2487 -0.00434764 0.0180165)
(10.4174 0.0352043 -0.0312908)
(10.3527 0.0273546 -0.0421948)
(10.2979 -0.0147951 -0.0225162)
(10.3427 -0.0112569 0.00676827)
(10.3632 0.00836448 0.0190661)
(10.2963 0.000602257 -0.0132926)
(10.2238 -0.0234382 -0.0204046)
(10.248 -0.0116585 -0.000472849)
(10.3227 0.0477088 0.0190608)
(10.3064 0.019369 0.0139765)
(10.2847 -0.0291358 -0.0103346)
(10.0511 -0.034094 0.0238919)
(10.0868 -0.0236135 -0.016248)
(10.2555 -0.00431361 -0.0624713)
(10.4347 0.0125942 0.0218494)
(10.4191 -0.0018029 0.0177344)
(10.2374 -0.0223537 -0.0216073)
(10.1644 0.045275 -0.0189151)
(10.1582 0.00828788 0.00219819)
(10.4224 -0.0540208 0.000268889)
(10.4372 -0.0111938 -0.0164721)
(10.1962 0.0893704 -0.02286)
(10.1698 0.00818804 -0.035644)
(10.2143 -0.128671 -0.0504013)
(10.207 -0.00360534 -0.0284561)
(10.1813 0.0497828 -0.00113712)
(10.0238 0.076628 0.107792)
(9.96101 0.0178327 0.0224339)
(9.97426 -0.0313542 -0.00297351)
(9.9376 -0.004392 0.0496934)
(9.98607 0.0041486 0.0522133)
(10.3258 0.0249855 0.00803102)
(10.3173 0.0212832 -0.0382923)
(10.1911 0.0181657 -0.0427338)
(10.1313 -0.00531758 -0.00479952)
(10.2035 -0.00589244 0.0163117)
(10.2442 0.00727126 0.0155752)
(10.1906 0.00652988 -0.00182087)
(10.0922 0.00643074 -0.0232379)
(10.1295 0.00882455 -0.0107044)
(10.1856 0.00614852 0.00631538)
(10.1672 -0.00135092 -0.0165694)
(10.1549 -0.0209156 -0.0177556)
(9.95574 -0.0115741 0.0528395)
(9.97638 -0.00466095 0.0175933)
(10.1445 0.00133216 -0.0165868)
(10.385 -0.000952487 -0.00875963)
(10.3785 0.0232485 0.00209738)
(10.0824 0.0242929 -0.0137494)
(9.95006 0.0325937 -0.023125)
(10.1852 0.020292 0.00550793)
(10.2563 -0.0325123 0.00591163)
(10.2166 -0.0945958 -0.00636168)
(10.0489 -0.00252917 0.0321518)
(10.0244 -0.00262537 -0.0548817)
(10.1317 -0.0517764 -0.0723765)
)
;
    }
    procBoundary1to2
    {
        type            processor;
        value           nonuniform List<vector> 
256
(
(10.0823 -0.0638228 -0.112329)
(10.061 -0.00259219 -0.0782485)
(10.1713 0.02643 0.0265896)
(10.2391 -0.0145796 0.108083)
(10.2018 -0.00821609 0.0795106)
(10.1291 -0.00532161 -0.145548)
(9.85175 -0.0197775 -0.109204)
(9.9624 -0.0268563 -0.0822903)
(10.2494 -0.00639119 -0.000164514)
(10.0901 -0.0054877 0.0457198)
(10.0732 0.0219562 0.073823)
(10.2421 0.0261172 -0.0178012)
(10.2435 0.0173025 -0.0580154)
(10.142 0.0378138 -0.0343652)
(10.1751 0.0344467 0.00128869)
(10.2143 -0.0168045 0.0396179)
(10.1857 -0.014524 -0.0129403)
(10.1322 -0.050557 -0.0713742)
(10.0322 -0.00501788 0.00553798)
(10.0123 0.0227762 0.0201298)
(10.0492 0.00723841 0.0386779)
(10.0423 -0.0498011 -0.0948213)
(10.1205 0.00052678 -0.12081)
(10.1813 0.0154448 -0.0784644)
(10.1475 0.0183572 -0.000436834)
(10.1479 0.0174318 -0.00116294)
(10.1954 0.0133901 -0.00904841)
(10.0715 0.00266049 0.107488)
(10.0412 -0.0307653 0.137004)
(10.2025 0.0553114 0.0890965)
(10.231 0.0663888 0.0771263)
(10.2303 -0.0608577 -0.0055193)
(10.1748 0.00266052 -0.0651326)
(10.1836 0.0750052 -0.0614591)
(10.3138 0.0468076 0.0369017)
(10.3807 -0.0527162 0.140068)
(10.3591 -0.0273096 0.148531)
(10.2133 -0.021451 -0.11669)
(9.9384 -0.0364429 -0.0931675)
(10.0676 -0.038595 -0.0501731)
(10.3597 0.00848235 -0.0125625)
(10.2626 0.0182869 0.00228698)
(10.2728 0.0241381 0.0359585)
(10.341 -0.0118785 0.0198361)
(10.2648 0.00234181 -0.05131)
(10.2385 0.065397 -0.0481101)
(10.2534 0.0231242 0.0545835)
(10.2447 -0.0303357 0.0669417)
(10.2984 -0.0236275 -0.0107971)
(10.3034 -0.0546954 -0.0229969)
(10.2316 -0.0201622 -0.00724707)
(10.2215 -0.00141624 -0.0269315)
(10.1943 -0.0228922 0.00213011)
(10.0696 -0.0442929 0.0340329)
(10.2402 -0.0199382 -0.0594903)
(10.3414 -0.0196358 -0.0798041)
(10.2392 -0.0295596 -0.00199462)
(10.2316 0.0133145 -0.0306198)
(10.2492 0.0431165 -0.0575244)
(10.2063 0.018756 0.0815617)
(10.2224 0.00483968 0.0908434)
(10.1915 0.0498991 0.0326552)
(10.1653 0.0625098 0.0383362)
(10.1901 -0.0404952 0.0623349)
(10.2248 0.0655466 -0.0105005)
(10.1987 0.0806206 0.0289286)
(10.3363 -0.0044646 0.0599435)
(10.3839 -0.0288951 0.0476619)
(10.3905 -0.0144384 0.0751395)
(10.1943 0.00219945 -0.0842881)
(9.91803 0.0217474 -0.0778266)
(10.0424 -0.0197191 -0.0480583)
(10.3742 -0.0422463 0.0126112)
(10.2079 -0.00583004 0.0140698)
(10.144 0.0356755 0.00911127)
(10.3584 0.0682262 0.000178749)
(10.4237 0.0170795 -0.033747)
(10.3774 -0.0651297 -0.0578723)
(10.1151 -0.00963949 -0.00469923)
(10.1125 0.00402333 -0.0255069)
(10.2918 -0.0466136 -0.0329295)
(10.3044 -0.0479251 0.0269895)
(10.2682 -0.0106961 0.0527258)
(10.2288 -0.0357431 0.00597613)
(10.1255 -0.0270142 0.00628209)
(10.1203 0.0446835 -0.0201091)
(10.2683 -0.0251077 -0.0762087)
(10.3008 -0.0588129 -0.0704112)
(10.3499 -0.0206177 -0.0148633)
(10.3434 0.0319487 0.00795369)
(10.2866 0.0866512 -0.00429905)
(10.1866 0.0246625 0.0635482)
(10.2101 -0.0185481 0.0908966)
(10.1766 -0.0515143 0.0595394)
(10.1225 -0.0658203 0.053788)
(10.2261 0.0161462 -0.0214894)
(10.3163 -0.0622219 0.0356914)
(10.2755 -0.0640002 0.0195346)
(10.1873 0.0752136 -0.0145105)
(10.2955 -0.0361144 -0.0153068)
(10.324 -0.103001 -0.0305606)
(10.3065 -0.105961 -0.0175044)
(10.0689 0.00257208 0.0526631)
(10.0236 -0.000251917 0.0361948)
(10.1188 -0.0868657 0.0101647)
(10.4279 -0.023692 0.059513)
(10.4027 0.0454688 -0.0268888)
(10.3353 -0.0131541 -0.0521414)
(10.242 -0.00988713 0.00543748)
(10.2097 0.0187867 0.0275307)
(10.2114 0.0375813 0.0105077)
(10.218 -0.00335694 -0.017251)
(10.2868 -0.0168059 0.002523)
(10.342 -0.000200319 0.00014835)
(10.2839 0.0119008 -0.0114918)
(10.2511 -0.00854913 -0.0147237)
(10.1759 -0.0850588 0.0166282)
(10.232 0.0167486 -0.0411313)
(10.2792 0.0856446 -0.0665695)
(10.2611 0.0449775 -0.0203138)
(10.2934 0.0189238 0.0106201)
(10.2671 0.0105457 -0.00811878)
(10.2992 -0.0584751 -0.00076393)
(10.1505 -0.0273341 0.000720634)
(10.1267 -0.0523907 0.0138208)
(10.3222 -0.0453161 0.0413648)
(10.2942 0.115305 0.0528547)
(10.2777 0.119513 0.0131752)
(10.2044 0.102572 -0.0174737)
(10.2174 0.0713105 0.0463605)
(10.1728 0.0777882 0.0276627)
(10.1831 0.0898379 -0.0226347)
(10.2045 -0.135594 -0.0349433)
(10.2245 -0.178585 0.00134866)
(10.2714 -0.0635016 0.0304451)
(10.0163 0.0915529 0.0374241)
(10.0513 0.0564154 -0.0165258)
(10.4527 0.00304122 0.0266028)
(10.3991 -0.0215149 -0.0211207)
(10.2863 -0.0116211 -0.0458991)
(10.2579 0.0726865 0.0184803)
(10.223 0.02231 0.0710425)
(10.1344 -0.0344811 0.0244868)
(10.1743 -0.0101119 -0.00672657)
(10.3206 0.0285182 -0.00929986)
(10.3195 -0.0088759 0.00373948)
(10.2226 -0.0346794 0.00975207)
(10.2055 -0.0214913 0.00367883)
(10.2093 -0.0206135 -0.0393549)
(10.2428 0.0119628 -0.0295237)
(10.2939 0.0288599 -0.0246016)
(10.2601 0.0250257 -0.0447189)
(10.2612 0.0150818 -0.0469696)
(10.2719 -0.0136189 -0.0249054)
(10.1943 -0.0182591 0.000636153)