/*--------------------------------*- C++ -*----------------------------------*\
| =========                 |                                                 |
| \\      /  F ield         | OpenFOAM: The Open Source CFD Toolbox           |
|  \\    /   O peration     | Version:  2506                                  |
|   \\  /    A nd           | Website:  www.openfoam.com                      |
|    \\/     M anipulation  |                                                 |
\*---------------------------------------------------------------------------*/
FoamFile
{
    version     2.0;
    format      ascii;
    arch        "LSB;label=32;scalar=64";
    class       volScalarField;
    location    "0.03";
    object      Ksl;
}
// * * * * * * * * * * * * * * * * * * * * * * * * * * * * * * * * * * * * * //

dimensions      [1 -3 -1 0 0 0 0];

internalField   nonuniform List<scalar> 
1152
(
59343
175018
107767
270469
51229
130667
127903
132313
310142
116699
106586
108914
162839
127317
212902
88687.7
103313
346496
138091
223421
272160
221536
345428
225308
5.51568e+06
122179
342721
241981
146597
402980
109009
1.15025e+07
257290
233810
811979
109906
2.03356e+06
200653
199367
437099
202056
277332
258732
278120
221383
275792
351668
134720
465063
507023
148843
334313
191491
330036
366490
246977
245223
186764
266606
189149
162942
309130
160375
186347
6.54784e+06
97965
1.06414e+06
252206
226710
373855
129320
229422
276590
190721
304013
124936
226391
325330
403385
135261
100810
195056
161894
193726
115928
184240
319611
240010
558991
444149
208113
256203
108700
738583
136577
194886
273322
79887.3
179949
64156
81152.6
51710.6
34597.9
23686.3
78023.7
90366.3
70358.9
29465.9
803061
46875.8
100065
53997.7
0
0
0
0
0
0
0
0
0
0
0
0
0
0
0
0
0
0
0
0
0
0
0
0
0
0
0
0
0
0
0
0
0
0
0
0
0
0
0
0
0
0
0
0
0
0
0
0
0
0
0
0
0
0
0
0
0
0
0
0
0
0
0
0
0
0
0
0
0
0
0
0
0
0
0
0
0
0
0
0
0
0
0
0
0
0
0
0
0
0
0
0
0
0
0
0
0
0
0
0
0
0
0
0
0
0
0
0
0
0
0
0
0
0
0
0
0
0
0
0
0
0
0
0
0
0
0
0
0
0
0
0
0
0
0
0
0
0
0
0
0
0
0
0
0
0
0
0
0
0
0
0
0
0
0
0
0
0
0
0
0
0
0
0
0
0
0
0
0
0
0
0
0
0
0
0
0
0
0
0
0
0
0
0
0
0
0
0
0
0
0
0
0
0
0
0
0
0
0
0
0
0
0
0
0
0
0
0
0
0
0
0
0
0
0
0
0
0
0
0
0
0
0
0
0
0
0
0
0
0
0
0
0
0
0
0
0
0
0
0
0
0
0
0
0
0
0
0
0
0
0
0
0
0
0
0
0
0
0
0
0
0
0
0
0
0
0
0
0
0
0
0
77390.5
137749
66365.1
121397
189223
230719
92392.3
113267
84708.6
125462
107995
87489.8
775458
200846
105730
104238
179714
301077
183498
182322
169220
221488
1.00826e+06
320384
219569
156412
151001
147212
120644
152784
277953
129878
450240
203957
252006
1.77635e+07
852554
171275
261393
131361
253209
471434
136287
269264
369190
184287
298872
133084
403666
169713
384064
270348
251502
285142
222131
183086
154524
193094
225594
315785
222421
287555
261826
175235
229476
137325
258327
419179
136999
396654
239776
166782
6.84089e+06
126894
146678
308013
313412
251432
261975
165414
95852.5
312453
201698
1.07435e+06
4.9829e+06
166606
298492
204447
128421
227001
248991
276741
218805
208869
166111
242895
212874
69163.6
62582.9
47465.3
38647.9
62720
39962.9
76689.3
42464.8
30843.5
45551.5
45722.1
42976.8
42569.9
47733.8
45599.6
0
0
0
0
0
0
0
0
0
0
0
0
0
0
0
0
0
0
0
0
0
0
0
0
0
0
0
0
0
0
0
0
0
0
0
0
0
0
0
0
0
0
0
0
0
0
0
0
0
0
0
0
0
0
0
0
0
0
0
0
0
0
0
0
0
0
0
0
0
0
0
0
0
0
0
0
0
0
0
0
0
0
0
0
0
0
0
0
0
0
0
0
0
0
0
0
0
0
0
0
0
0
0
0
0
0
0
0
0
0
0
0
0
0
0
0
0
0
0
0
0
0
0
0
0
0
0
0
0
0
0
0
0
0
0
0
0
0
0
0
0
0
0
0
0
0
0
0
0
0
0
0
0
0
0
0
0
0
0
0
0
0
0
0
0
0
0
0
0
0
0
0
0
0
0
0
0
0
0
0
0
0
0
0
0
0
0
0
0
0
0
0
0
0
0
0
0
0
0
0
0
0
0
0
0
0
0
0
0
0
0
0
0
0
0
0
0
0
0
0
0
0
0
0
0
0
0
0
0
0
0
0
0
0
0
0
0
0
0
0
0
0
0
0
0
0
0
0
0
0
0
0
0
0
0
0
0
0
0
0
0
0
0
0
0
0
0
0
0
0
0
0
82834.6
80254.4
175060
114147
140903
89139.2
151532
135038
304463
108162
101729
99316.5
66043.5
165500
87208.1
114957
271087
309676
139881
146652
313947
370919
154504
229957
201690
325568
408273
207401
220262
1.67539e+06
214642
152733
297975
612449
198769
206197
202318
135100
292153
261021
306350
163089
260827
187746
106699
384778
248946
226434
203844
183171
176678
134685
433977
233510
324345
172702
250077
164443
250156
140268
373273
505447
282754
258970
164512
415451
212731
293468
380448
194076
157597
359721
556584
163608
572041
180701
144184
144745
199240
264734
158032
200023
104414
193461
194001
220630
223761
150020
461461
137304
185672
208025
551522
5.10394e+06
284408
169214
48623.4
40789.6
46536.7
89847.5
50129.8
66943
18258
47870.5
65674.8
41288.8
105806
69872.5
80121.8
80356.9
72561
122091
0
0
0
0
0
0
0
0
0
0
0
0
0
0
0
0
0
0
0
0
0
0
0
0
0
0
0
0
0
0
0
0
0
0
0
0
0
0
0
0
0
0
0
0
0
0
0
0
0
0
0
0
0
0
0
0
0
0
0
0
0
0
0
0
0
0
0
0
0
0
0
0
0
0
0
0
0
0
0
0
0
0
0
0
0
0
0
0
0
0
0
0
0
0
0
0
0
0
0
0
0
0
0
0
0
0
0
0
0
0
0
0
0
0
0
0
0
0
0
0
0
0
0
0
0
0
0
0
0
0
0
0
0
0
0
0
0
0
0
0
0
0
0
0
0
0
0
0
0
0
0
0
0
0
0
0
0
0
0
0
0
0
0
0
0
0
0
0
0
0
0
0
0
0
0
0
0
0
0
0
0
0
0
0
0
0
0
0
0
0
0
0
0
0
0
0
0
0
0
0
0
0
0
0
0
0
0
0
0
0
0
0
0
0
0
0
0
0
0
0
0
0
0
0
0
0
0
0
0
0
0
0
0
0
0
0
0
0
0
0
0
0
0
0
0
0
0
0
0
0
0
0
0
0
0
0
0
0
0
0
0
0
0
0
0
0
0
0
0
0
0
0
)
;

boundaryField
{
    inlet
    {
        type            zeroGradient;
    }
    outlet
    {
        type            zeroGradient;
    }
    wall
    {
        type            zeroGradient;
    }
    procBoundary3to1
    {
        type            processor;
        value           nonuniform List<scalar> 
192
(
301156
83120.8
66702.5
68258.4
255672
580085
5.55137e+07
181627
162825
170864
132639
1.2623e+07
1.27469e+07
170892
373239
381656
146649
5.23873e+06
91147.9
205303
3.78771e+06
211992
394650
158861
221470
72382.5
14434.5
37862.5
116.003
0
0
0
0
0
0
0
0
0
0
0
0
0
0
0
0
0
0
0
0
0
0
0
0
0
0
0
0
0
0
0
0
0
0
0
0
0
0
0
0
0
0
0
0
0
0
0
0
0
0
0
0
0
0
0
0
0
0
0
0
0
0
0
0
0
0
0
239915
91437.3
84729.2
108574
250112
2.59045e+06
272694
471321
154850
172721
312995
116291
219204
301366
551075
8.96737e+06
233315
196674
189286
110177
363727
184968
450744
347751
40504.8
48407
17101.9
18886.5
0
0
0
0
0
0
0
0
0
0
0
0
0
0
0
0
0
0
0
0
0
0
0
0
0
0
0
0
0
0
0
0
0
0
0
0
0
0
0
0
0
0
0
0
0
0
0
0
0
0
0
0
0
0
0
0
0
0
0
0
0
0
0
0
0
0
0
0
)
;
    }
    procBoundary3to2
    {
        type            processor;
        value           nonuniform List<scalar> 
192
(
141785
843498
64772.5
90712.7
2.21248e+07
210349
149293
407099
102281
179499
278810
445690
344822
229540
183415
1.75563e+06
119670
400664
146481
587436
1.78371e+06
206737
189603
2.25937e+06
61481.4
94547.4
74303.8
103550
0
0
0
0
0
0
0
0
0
0
0
0
0
0
0
0
0
0
0
0
0
0
0
0
0
0
0
0
0
0
0
0
0
0
0
0
0
0
0
0
0
0
0
0
0
0
0
0
0
0
0
0
0
0
0
0
0
0
0
0
0
0
0
0
0
0
0
0
129835
108591
113574
111339
752884
482789
221025
292510
110634
128751
331784
260407
163712
259632
285784
165951
207921
386348
189570
227940
701246
108663
1.4525e+07
97137.1
44751.6
71297.1
104086
17691.6
0
0
0
0
0
0
0
0
0
0
0
0
0
0
0
0
0
0
0
0
0
0
0
0
0
0
0
0
0
0
0
0
0
0
0
0
0
0
0
0
0
0
0
0
0
0
0
0
0
0
0
0
0
0
0
0
0
0
0
0
0
0
0
0
0
0
0
0
)
;
    }
}


// ************************************************************************* //
