/*--------------------------------*- C++ -*----------------------------------*\
| =========                 |                                                 |
| \\      /  F ield         | OpenFOAM: The Open Source CFD Toolbox           |
|  \\    /   O peration     | Version:  2506                                  |
|   \\  /    A nd           | Website:  www.openfoam.com                      |
|    \\/     M anipulation  |                                                 |
\*---------------------------------------------------------------------------*/
FoamFile
{
    version     2.0;
    format      ascii;
    arch        "LSB;label=32;scalar=64";
    class       volScalarField;
    location    "0.03";
    object      p;
}
// * * * * * * * * * * * * * * * * * * * * * * * * * * * * * * * * * * * * * //

dimensions      [0 2 -2 0 0 0 0];

internalField   nonuniform List<scalar> 
1152
(
10.8132
10.8958
10.7602
10.8538
10.89
10.9511
10.9712
10.9627
11.0262
10.9308
10.974
10.9255
10.9692
10.9908
10.8796
10.8309
9.74735
9.70652
9.74424
9.39112
10.0231
9.71578
9.67648
9.62144
9.59968
9.66827
9.6966
9.66802
9.62319
9.67228
9.63293
9.49066
8.10297
7.84387
7.88376
7.73926
7.70796
7.77971
7.66409
7.62382
7.56798
7.74987
7.58288
7.43582
7.60318
7.57288
7.70816
7.52993
5.90971
5.09358
5.41299
5.69445
5.52821
5.53617
5.26036
5.32318
5.52552
5.46601
5.39777
5.2435
5.43327
5.44459
5.46142
5.43466
3.24149
3.28355
3.3125
3.19186
3.24142
3.26621
3.29115
3.27528
3.48985
3.53118
3.36964
3.4045
3.26434
3.45215
3.39588
3.45983
1.81844
1.74471
1.49879
1.35078
1.64859
1.46418
1.35139
1.19087
1.53389
1.50142
1.40983
1.34193
1.63192
1.32356
1.49782
1.53625
0.999804
1.00943
1.00552
1.0105
1.01286
1.01168
1.01441
1.01269
1.01142
1.00927
1.01153
1.01755
1.00948
1.01072
1.00943
1.01922
1.00052
1.00208
1.00322
1.00421
1.00256
1.00318
1.00424
1.00483
1.00357
1.00367
1.00432
1.00499
1.00488
1.00469
1.00463
1.00516
1.00689
1.00736
1.00753
1.00806
1.00781
1.00784
1.00809
1.00831
1.00791
1.00789
1.00814
1.00866
1.00783
1.00804
1.00826
1.00884
1.00606
1.00616
1.00634
1.00661
1.00636
1.0064
1.00655
1.00669
1.00652
1.00652
1.00662
1.00679
1.00663
1.00666
1.0067
1.00683
1.00634
1.00634
1.0064
1.00651
1.0064
1.00641
1.00647
1.00654
1.00647
1.00647
1.00651
1.00659
1.00654
1.00655
1.00657
1.00664
1.00602
1.00601
1.00604
1.00608
1.00603
1.00603
1.00605
1.00608
1.00605
1.00605
1.00607
1.00609
1.00609
1.00609
1.00609
1.00611
1.00562
1.00561
1.00562
1.00564
1.00561
1.00561
1.00562
1.00563
1.00562
1.00562
1.00562
1.00564
1.00564
1.00564
1.00564
1.00564
1.00517
1.00517
1.00517
1.00517
1.00516
1.00516
1.00516
1.00517
1.00517
1.00516
1.00516
1.00517
1.00517
1.00517
1.00517
1.00517
1.0047
1.0047
1.0047
1.0047
1.00469
1.00469
1.00469
1.00469
1.00469
1.00469
1.00469
1.00469
1.00469
1.00469
1.00469
1.00469
1.00422
1.00422
1.00421
1.00421
1.00421
1.00421
1.00421
1.00421
1.00421
1.00421
1.0042
1.0042
1.00421
1.0042
1.0042
1.0042
1.00373
1.00373
1.00372
1.00372
1.00372
1.00372
1.00372
1.00372
1.00372
1.00372
1.00372
1.00372
1.00372
1.00372
1.00371
1.00371
1.00324
1.00323
1.00323
1.00323
1.00323
1.00323
1.00323
1.00323
1.00323
1.00323
1.00323
1.00322
1.00323
1.00322
1.00322
1.00322
1.00274
1.00274
1.00274
1.00274
1.00274
1.00274
1.00273
1.00273
1.00273
1.00273
1.00273
1.00273
1.00273
1.00273
1.00273
1.00273
1.00224
1.00224
1.00224
1.00224
1.00224
1.00224
1.00224
1.00224
1.00224
1.00224
1.00224
1.00224
1.00224
1.00224
1.00224
1.00224
1.00174
1.00174
1.00174
1.00174
1.00174
1.00174
1.00174
1.00174
1.00174
1.00174
1.00174
1.00174
1.00174
1.00174
1.00174
1.00174
1.00125
1.00125
1.00125
1.00125
1.00125
1.00124
1.00124
1.00124
1.00124
1.00124
1.00124
1.00124
1.00124
1.00124
1.00124
1.00124
1.00075
1.00075
1.00075
1.00075
1.00075
1.00075
1.00075
1.00075
1.00075
1.00075
1.00075
1.00075
1.00075
1.00075
1.00075
1.00075
1.00025
1.00025
1.00025
1.00025
1.00025
1.00025
1.00025
1.00025
1.00025
1.00025
1.00025
1.00025
1.00025
1.00025
1.00025
1.00025
10.9225
10.9695
10.8294
10.8085
10.9587
10.9924
10.8379
10.7633
10.869
10.8555
10.7502
10.6646
10.927
10.8593
10.753
10.6195
9.70105
9.55807
9.7181
9.53627
9.59269
9.42246
9.63321
9.40511
9.65266
9.50727
9.46302
9.46021
9.4947
9.42511
9.55992
9.40741
7.65066
7.45045
7.67541
7.6112
7.59661
7.52686
7.49012
7.44632
7.45564
7.61955
7.60391
7.64406
7.81891
7.77504
7.61283
7.67932
5.27352
5.30042
5.4336
5.54528
5.0848
5.40291
5.45912
5.56956
5.26543
5.17669
5.46925
5.61038
5.32062
5.46665
5.47299
5.67382
3.07068
3.35958
3.32891
3.5105
3.14407
3.22149
3.41155
3.51377
3.1265
3.23991
3.37301
3.49325
3.13774
3.18898
3.28546
3.54831
1.56963
1.55088
1.4344
1.2775
1.23763
1.35126
1.29777
1.45392
1.27726
1.31386
1.38902
1.33096
1.20816
1.2426
1.33547
1.3814
1.01045
1.01051
1.01157
1.01533
1.02543
1.01091
1.00994
1.01262
1.01429
1.01312
1.01119
1.01112
1.01305
1.01103
1.01283
1.01283
1.00519
1.00479
1.00468
1.00525
1.00628
1.00525
1.00514
1.00526
1.00635
1.00586
1.00498
1.00528
1.00664
1.00617
1.00514
1.00527
1.00839
1.00844
1.00852
1.00888
1.00916
1.00882
1.00865
1.0089
1.00903
1.00911
1.00875
1.00893
1.00917
1.00916
1.00891
1.00904
1.00683
1.00682
1.00679
1.00685
1.00708
1.00698
1.00686
1.00685
1.00712
1.00709
1.00691
1.00686
1.00715
1.00708
1.0069
1.00684
1.00663
1.00664
1.00664
1.0067
1.00672
1.00671
1.00668
1.00672
1.00677
1.00677
1.00671
1.00674
1.00681
1.00681
1.00675
1.00677
1.00614
1.00613
1.00612
1.00613
1.00618
1.00617
1.00615
1.00614
1.00621
1.0062
1.00616
1.00615
1.00622
1.00621
1.00616
1.00615
1.00566
1.00566
1.00565
1.00566
1.00568
1.00567
1.00566
1.00566
1.00569
1.00569
1.00567
1.00567
1.0057
1.0057
1.00568
1.00567
1.00518
1.00518
1.00517
1.00517
1.00519
1.00518
1.00518
1.00518
1.0052
1.00519
1.00518
1.00518
1.0052
1.00519
1.00518
1.00518
1.00469
1.00469
1.00469
1.00469
1.0047
1.00469
1.00469
1.00469
1.0047
1.0047
1.00469
1.00469
1.0047
1.0047
1.00469
1.00469
1.00421
1.0042
1.0042
1.0042
1.00421
1.00421
1.0042
1.0042
1.00421
1.00421
1.0042
1.0042
1.00421
1.00421
1.0042
1.0042
1.00372
1.00372
1.00371
1.00371
1.00372
1.00371
1.00371
1.00371
1.00372
1.00371
1.00371
1.00371
1.00372
1.00371
1.00371
1.00371
1.00322
1.00322
1.00322
1.00322
1.00322
1.00322
1.00322
1.00322
1.00322
1.00322
1.00322
1.00322
1.00322
1.00322
1.00322
1.00322
1.00273
1.00273
1.00273
1.00273
1.00273
1.00273
1.00273
1.00273
1.00273
1.00273
1.00273
1.00273
1.00273
1.00273
1.00273
1.00273
1.00224
1.00224
1.00223
1.00223
1.00224
1.00223
1.00223
1.00223
1.00223
1.00223
1.00223
1.00223
1.00223
1.00223
1.00223
1.00223
1.00174
1.00174
1.00174
1.00174
1.00174
1.00174
1.00174
1.00174
1.00174
1.00174
1.00174
1.00174
1.00174
1.00174
1.00174
1.00174
1.00124
1.00124
1.00124
1.00124
1.00124
1.00124
1.00124
1.00124
1.00124
1.00124
1.00124
1.00124
1.00124
1.00124
1.00124
1.00124
1.00075
1.00075
1.00075
1.00075
1.00075
1.00075
1.00075
1.00075
1.00075
1.00075
1.00075
1.00075
1.00075
1.00075
1.00075
1.00075
1.00025
1.00025
1.00025
1.00025
1.00025
1.00025
1.00025
1.00025
1.00025
1.00025
1.00025
1.00025
1.00025
1.00025
1.00025
1.00025
10.8323
10.7983
10.7225
10.6186
10.9287
10.8339
10.7857
10.7774
10.9383
10.8657
10.8155
10.7531
10.8042
10.8284
10.7384
10.6958
9.67624
9.69849
9.31816
9.2238
9.48711
9.3725
9.37133
9.34968
9.42874
9.38194
9.51847
9.4489
9.41781
9.52361
9.55913
9.51313
7.46277
7.22817
7.34417
7.19301
7.46958
7.35711
7.452
7.22821
7.44393
7.28415
7.2754
7.22457
7.51872
7.48076
7.59508
7.66724
5.31226
5.30095
5.30469
5.36919
5.50367
5.45497
5.24905
5.35537
5.43265
5.39664
5.42614
5.41739
5.51366
5.28768
5.41099
5.50955
3.20679
3.27526
3.20775
3.5842
3.16444
3.29882
3.25233
3.32927
3.4562
3.39299
3.41196
3.60014
3.47496
3.44084
3.43681
3.41095
1.35576
1.28347
1.39315
1.4464
1.26425
1.36631
1.31329
1.3458
1.29519
1.43217
1.47779
1.55264
1.64551
1.50476
1.50424
1.60019
1.01323
1.01441
1.02519
1.01208
1.00976
1.01163
1.01771
1.01249
1.01637
1.0184
0.991677
1.01446
1.01694
1.02122
1.01234
1.01085
1.00489
1.00521
1.00541
1.00502
1.00494
1.00539
1.00567
1.00516
1.00513
1.00575
1.00524
1.00546
1.00523
1.00575
1.00569
1.0056
1.00835
1.00862
1.00921
1.00868
1.00838
1.00853
1.00886
1.00893
1.00869
1.00857
1.00769
1.00833
1.00885
1.00881
1.00871
1.00877
1.00677
1.0069
1.00708
1.00688
1.00678
1.00685
1.00696
1.00692
1.0068
1.00678
1.00666
1.0067
1.00678
1.00678
1.00677
1.00675
1.00659
1.00664
1.0067
1.00669
1.0066
1.00664
1.00669
1.00672
1.00662
1.00663
1.00662
1.00665
1.00667
1.00669
1.00671
1.00674
1.00611
1.00614
1.00616
1.00616
1.00611
1.00613
1.00615
1.00615
1.00611
1.00611
1.00611
1.00611
1.00611
1.00612
1.00613
1.00612
1.00565
1.00566
1.00567
1.00567
1.00564
1.00565
1.00566
1.00567
1.00564
1.00565
1.00565
1.00565
1.00565
1.00565
1.00566
1.00566
1.00518
1.00518
1.00519
1.00519
1.00517
1.00518
1.00518
1.00518
1.00517
1.00517
1.00517
1.00517
1.00517
1.00517
1.00517
1.00517
1.0047
1.0047
1.0047
1.0047
1.00469
1.00469
1.00469
1.00469
1.00469
1.00469
1.00469
1.00469
1.00469
1.00469
1.00469
1.00469
1.00421
1.00421
1.00421
1.00421
1.00421
1.00421
1.00421
1.00421
1.0042
1.0042
1.0042
1.0042
1.0042
1.0042
1.0042
1.0042
1.00372
1.00372
1.00372
1.00372
1.00372
1.00372
1.00372
1.00372
1.00372
1.00371
1.00371
1.00371
1.00371
1.00371
1.00371
1.00371
1.00323
1.00323
1.00323
1.00323
1.00323
1.00323
1.00323
1.00322
1.00322
1.00322
1.00322
1.00322
1.00322
1.00322
1.00322
1.00322
1.00274
1.00273
1.00273
1.00273
1.00273
1.00273
1.00273
1.00273
1.00273
1.00273
1.00273
1.00273
1.00273
1.00273
1.00273
1.00273
1.00224
1.00224
1.00224
1.00224
1.00224
1.00224
1.00224
1.00224
1.00224
1.00224
1.00223
1.00223
1.00223
1.00223
1.00223
1.00223
1.00174
1.00174
1.00174
1.00174
1.00174
1.00174
1.00174
1.00174
1.00174
1.00174
1.00174
1.00174
1.00174
1.00174
1.00174
1.00174
1.00124
1.00124
1.00124
1.00124
1.00124
1.00124
1.00124
1.00124
1.00124
1.00124
1.00124
1.00124
1.00124
1.00124
1.00124
1.00124
1.00075
1.00075
1.00075
1.00075
1.00075
1.00075
1.00075
1.00075
1.00075
1.00075
1.00075
1.00075
1.00075
1.00075
1.00075
1.00075
1.00025
1.00025
1.00025
1.00025
1.00025
1.00025
1.00025
1.00025
1.00025
1.00025
1.00025
1.00025
1.00025
1.00025
1.00025
1.00025
)
;

boundaryField
{
    inlet
    {
        type            zeroGradient;
    }
    outlet
    {
        type            fixedValue;
        value           uniform 1;
    }
    wall
    {
        type            zeroGradient;
    }
    procBoundary3to1
    {
        type            processor;
        value           nonuniform List<scalar> 
192
(
10.9301
10.7842
10.5197
10.6707
9.60243
9.74207
9.84015
9.56349
7.67001
7.77549
8.33287
7.82595
5.77573
5.50921
5.38167
5.25888
3.88282
3.60943
3.27236
3.17169
1.94143
1.49961
1.23426
1.2943
0.946634
1.0019
1.01603
1.0135
0.995539
1.00085
1.00429
1.00419
1.00799
1.00743
1.00825
1.00823
1.00619
1.00618
1.00654
1.00668
1.0064
1.00639
1.00647
1.00654
1.00605
1.00605
1.00607
1.0061
1.00564
1.00564
1.00564
1.00565
1.00519
1.00518
1.00518
1.00519
1.00471
1.00471
1.00471
1.00471
1.00423
1.00422
1.00422
1.00422
1.00373
1.00373
1.00373
1.00373
1.00324
1.00324
1.00324
1.00324
1.00274
1.00274
1.00274
1.00274
1.00224
1.00224
1.00224
1.00224
1.00175
1.00175
1.00174
1.00174
1.00125
1.00125
1.00125
1.00125
1.00075
1.00075
1.00075
1.00075
1.00025
1.00025
1.00025
1.00025
10.8518
10.789
10.7275
10.7004
9.30183
9.53616
9.52663
9.04956
7.34871
7.28076
7.24299
6.99938
5.39549
5.30128
5.08185
5.05136
3.30547
3.24393
3.3405
3.56144
1.24137
1.28265
1.12474
1.25745
1.01256
1.01327
1.0127
1.01489
1.00504
1.00525
1.00576
1.00608
1.00833
1.00852
1.00873
1.0089
1.00679
1.00691
1.00703
1.00704
1.00661
1.00666
1.00671
1.00675
1.00613
1.00616
1.00618
1.00619
1.00567
1.00568
1.00569
1.00569
1.00519
1.0052
1.0052
1.0052
1.00471
1.00471
1.00471
1.00471
1.00422
1.00422
1.00422
1.00422
1.00373
1.00373
1.00373
1.00373
1.00323
1.00323
1.00323
1.00323
1.00274
1.00274
1.00274
1.00274
1.00224
1.00224
1.00224
1.00224
1.00174
1.00174
1.00174
1.00174
1.00125
1.00125
1.00125
1.00125
1.00075
1.00075
1.00075
1.00075
1.00025
1.00025
1.00025
1.00025
)
;
    }
    procBoundary3to2
    {
        type            processor;
        value           nonuniform List<scalar> 
192
(
10.935
11.0133
10.9248
10.9739
9.27555
9.54591
9.82094
9.85103
7.92249
7.77175
7.70604
7.62068
5.84921
5.72267
5.49988
5.52289
3.65057
3.53283
3.47814
3.39743
1.66241
1.58793
1.62553
1.41501
1.01289
1.00785
1.0141
1.01172
1.00261
1.00316
1.00401
1.00461
1.00772
1.00776
1.00812
1.00822
1.0063
1.00642
1.00659
1.00673
1.0064
1.00644
1.00651
1.00658
1.00604
1.00605
1.00608
1.00611
1.00563
1.00563
1.00563
1.00565
1.00518
1.00517
1.00517
1.00518
1.00471
1.0047
1.0047
1.0047
1.00422
1.00422
1.00421
1.00421
1.00373
1.00373
1.00372
1.00372
1.00324
1.00323
1.00323
1.00323
1.00274
1.00274
1.00274
1.00273
1.00224
1.00224
1.00224
1.00224
1.00175
1.00174
1.00174
1.00174
1.00125
1.00125
1.00125
1.00124
1.00075
1.00075
1.00075
1.00075
1.00025
1.00025
1.00025
1.00025
10.9796
10.973
10.9254
10.9325
9.30966
9.39881
9.65253
9.64
7.45907
7.45354
7.44629
7.25831
5.63217
5.61418
5.21547
5.18498
3.46535
3.05608
3.10746
2.91699
1.32626
1.36304
1.21944
1.19676
1.01274
1.01316
1.02054
1.01833
1.00513
1.00562
1.00694
1.00756
1.00871
1.009
1.00916
1.00976
1.00694
1.00709
1.00723
1.00737
1.00669
1.00677
1.00684
1.0069
1.00616
1.0062
1.00624
1.00626
1.00567
1.00569
1.00571
1.00572
1.00519
1.0052
1.00521
1.00521
1.0047
1.0047
1.00471
1.00471
1.00421
1.00421
1.00421
1.00421
1.00372
1.00372
1.00372
1.00372
1.00323
1.00323
1.00323
1.00323
1.00273
1.00273
1.00273
1.00273
1.00224
1.00224
1.00224
1.00224
1.00174
1.00174
1.00174
1.00174
1.00124
1.00124
1.00124
1.00124
1.00075
1.00075
1.00075
1.00075
1.00025
1.00025
1.00025
1.00025
)
;
    }
}


// ************************************************************************* //
