/*--------------------------------*- C++ -*----------------------------------*\
| =========                 |                                                 |
| \\      /  F ield         | OpenFOAM: The Open Source CFD Toolbox           |
|  \\    /   O peration     | Version:  2506                                  |
|   \\  /    A nd           | Website:  www.openfoam.com                      |
|    \\/     M anipulation  |                                                 |
\*---------------------------------------------------------------------------*/
FoamFile
{
    version     2.0;
    format      ascii;
    arch        "LSB;label=32;scalar=64";
    class       volVectorField;
    location    "0.03";
    object      stored_U;
}
// * * * * * * * * * * * * * * * * * * * * * * * * * * * * * * * * * * * * * //

dimensions      [0 1 -1 0 0 0 0];

internalField   nonuniform List<vector> 
1152
(
(0.00112942 0.00209333 0.0225522)
(-0.000328917 0.000153564 0.00685964)
(-6.41219e-05 -0.00164117 0.0111938)
(6.29698e-05 -0.000471718 0.00479058)
(0.00152796 -0.00538448 0.0208539)
(-0.00102234 0.000353165 0.00919754)
(-0.000537519 -0.000754517 0.0097099)
(0.000279435 0.000192096 0.00958439)
(7.28268e-06 -0.000301144 0.00378743)
(0.000535427 -0.000189926 0.0107686)
(-0.000232151 0.00163916 0.0110535)
(-0.000169657 0.00204197 0.0116491)
(-0.000103604 0.00105601 0.00799552)
(0.000848597 -0.000348229 0.0100844)
(0.000794515 0.000981272 0.00561858)
(0.000852248 0.00206169 0.015472)
(-0.0058178 -0.00676709 0.0316915)
(0.000194029 -0.000153344 0.00891218)
(0.002288 0.000653797 0.0241789)
(-0.00052993 0.000851925 0.0144587)
(-0.000738298 0.000501029 0.0110493)
(0.00184872 3.15219e-05 0.0137333)
(1.47813e-05 5.91434e-05 0.00860499)
(0.000556145 -0.0012957 0.0134603)
(-1.0635e-05 1.27787e-05 0.000746238)
(-0.00124008 1.24134e-05 0.0271117)
(-0.00016208 7.19211e-05 0.00885403)
(0.00122049 0.000585994 0.0123858)
(0.00160923 -0.00125937 0.0221216)
(4.26742e-05 0.000260057 0.00769811)
(0.00223838 -0.000535789 0.0299858)
(-0.000154664 -0.000138903 0.00043217)
(-0.000315462 -0.000697602 0.0161642)
(0.00112417 -0.00141995 0.0170632)
(-4.46819e-05 -5.77103e-05 0.00488256)
(0.00162774 0.000510973 0.0373168)
(-0.000162165 0.000264094 0.00211218)
(-0.000139475 -0.000799862 0.0191696)
(0.000524494 3.03361e-05 0.019672)
(0.000288225 0.000613465 0.008284)
(-0.000357264 -0.000301262 0.018344)
(-0.000294929 0.000282098 0.0133445)
(0.00110367 -0.000762711 0.0140696)
(0.000337936 9.43562e-05 0.0133077)
(0.000190577 -0.000960844 0.0167805)
(-0.000533162 0.000863571 0.0128827)
(6.56853e-05 -0.000554367 0.0103002)
(0.00163365 -0.0025953 0.0297425)
(0.00102428 -0.00071131 0.00735174)
(0.000485515 -0.000703624 0.00729728)
(-0.00690886 -0.00081413 0.027329)
(-0.000389677 -0.000424163 0.0113663)
(0.000702094 2.77974e-05 0.0202919)
(0.000490703 -0.00186973 0.0105726)
(0.000240772 -0.000466973 0.0101031)
(-0.00163847 0.0015002 0.0147009)
(-0.000142494 -0.000381592 0.0150869)
(0.000354157 -0.000460665 0.0209619)
(0.000602164 -0.00143126 0.0140002)
(-0.000972887 -0.00123573 0.0206216)
(0.000391816 0.00103895 0.024757)
(-0.000335322 0.000266306 0.0119651)
(-0.000377774 -0.000929836 0.025309)
(-0.00115224 -0.00312603 0.021098)
(-8.13699e-05 8.68605e-05 0.000909898)
(-0.0106526 0.000362676 0.034548)
(-0.000114333 1.35601e-06 0.00351934)
(-7.60864e-05 -0.000485458 0.0143945)
(0.00129753 -0.00438895 0.0146782)
(-0.000174822 -0.00121929 0.00929396)
(-0.001268 -0.0015592 0.0290446)
(0.000308877 -0.00118871 0.0158882)
(-0.000378129 -0.000237072 0.0124457)
(0.000523694 -0.00187756 0.0183178)
(0.000186134 -0.000563821 0.011468)
(-0.00163663 -0.00254083 0.0323249)
(-0.00043268 0.00178744 0.0150365)
(-0.000541356 0.000391459 0.0102121)
(-0.000195016 1.68713e-05 0.00830102)
(-0.00137601 -0.00166598 0.0296539)
(-0.00224838 0.00735721 0.0171942)
(0.00359071 0.00138411 0.0107861)
(0.00315593 -0.000761129 0.0123664)
(0.000844619 0.000766516 0.01072)
(0.00140591 0.00634945 0.0205337)
(0.00235733 0.0020069 0.0113013)
(0.000962261 0.000449839 0.0065077)
(0.0003756 0.000119938 0.00853628)
(0.000166795 0.000224089 0.00398356)
(0.000247162 0.000413923 0.00469731)
(0.000794648 -0.000775543 0.0101411)
(0.000485502 -0.00148944 0.00844984)
(0.00103389 -0.000733649 0.0216378)
(0.000125009 2.23797e-05 0.0029367)
(-0.00202328 -0.000162299 0.0168887)
(-0.00124031 0.000814126 0.0120142)
(0.000280189 -0.000679165 0.00401842)
(0.00020487 -0.000464206 0.0125445)
(-0.000183036 9.35862e-05 0.00424963)
(-0.000460413 0.000138649 0.00855337)
(-0.000106125 -0.000470469 0.0117046)
(0.000132071 -4.34189e-06 0.013872)
(-3.25668e-05 -0.00014429 0.0153087)
(0.000206667 -0.000480682 0.0136487)
(4.19913e-05 0.000224165 0.00950623)
(-0.00297192 0.000526795 0.00690817)
(-0.000253594 0.00026494 0.00875904)
(-0.000769693 -0.00038132 0.0179851)
(-0.000861754 -5.16155e-05 0.00132664)
(0.000124333 -0.000874993 0.0103989)
(0.000579144 -0.00277661 0.00653128)
(-0.000339093 0.000153383 0.0139194)
(7.68949e-05 -9.62015e-05 0.0166998)
(-0.000577975 -0.000268257 0.0167732)
(-0.00101004 0.000900955 0.0114701)
(-0.000636988 0.000150234 0.0146804)
(-0.000400663 -0.00027452 0.0191639)
(-0.000878594 -0.000155903 0.0184201)
(-0.00119867 6.11956e-05 0.0173065)
(-0.000474634 -0.00036196 0.0164647)
(-0.000258414 -0.000364361 0.0145983)
(-0.000961598 7.17796e-05 0.0125869)
(-0.001712 0.000511986 0.0146305)
(-0.00148486 0.00011876 0.0219772)
(-0.000386298 0.000192606 0.00529821)
(-0.000347955 0.000549556 0.0095545)
(-0.00141054 0.000453347 0.0131573)
(-0.00192507 -0.000150968 0.0217995)
(1.38158e-05 0.00154257 0.00433419)
(0.000547145 0.000270139 0.00421822)
(-1.07381e-05 0.000163018 0.00378115)
(-0.000327319 -0.000234631 0.00406752)
(-0.000546423 0.000759473 0.00451304)
(-0.000236057 0.000465756 0.00475763)
(-0.000330857 -0.00018385 0.00472498)
(-1.55619e-06 -0.000655813 0.00478014)
(-0.00012758 0.00122348 0.00356892)
(-0.000680815 0.00101679 0.00350646)
(-0.00145254 0.000413329 0.00416886)
(-0.000917412 -0.000462546 0.0056099)
(-0.000206627 0.00045655 0.00250724)
(-0.00133557 0.000385678 0.00301602)
(-0.002045 0.000198713 0.00399319)
(-0.0014165 -0.000105778 0.00528529)
(-0.000110072 0.000357018 0.00919128)
(0.000131866 0.000103257 0.00898687)
(3.44185e-05 5.26322e-05 0.00860116)
(-6.22229e-05 -8.18964e-05 0.00875019)
(-0.000288462 0.000328893 0.00899264)
(-0.000124035 0.000240994 0.00908733)
(-8.22596e-05 3.26129e-05 0.00900677)
(7.5204e-05 -0.000104513 0.0090441)
(-0.000134415 0.000441717 0.00847292)
(-0.000248193 0.000429956 0.00854109)
(-0.000398864 0.000282714 0.00881159)
(-6.52415e-05 0.000104664 0.00936382)
(-0.000116318 8.1932e-05 0.00786611)
(-0.000384543 0.000126164 0.00820532)
(-0.000459938 0.000184153 0.00871346)
(4.5989e-05 0.000233592 0.00925629)
(-6.20347e-05 9.16768e-05 0.0074363)
(3.85096e-05 2.79233e-05 0.00740904)
(3.10304e-05 -3.85817e-06 0.00730015)
(1.46521e-06 -4.71543e-05 0.00733512)
(-0.000117301 0.00012514 0.00734899)
(-4.21348e-05 9.08926e-05 0.00741347)
(-8.37174e-06 2.28597e-05 0.00739512)
(4.63451e-05 -2.25307e-05 0.00740724)
(-6.77845e-05 0.000151225 0.00718335)
(-7.99432e-05 0.000148053 0.00723604)
(-9.38514e-05 0.000104549 0.00730163)
(3.48661e-05 5.61723e-05 0.00741965)
(-4.69145e-05 4.53408e-06 0.00702597)
(-0.000107674 1.46852e-05 0.00712368)
(-9.63866e-05 3.68398e-05 0.00721163)
(9.23629e-05 4.48736e-05 0.00725415)
(-2.60094e-05 2.61237e-05 0.00758132)
(1.27009e-05 9.62513e-06 0.00758168)
(2.11885e-05 9.43396e-07 0.00754695)
(1.24718e-05 -3.89191e-06 0.00755195)
(-3.91956e-05 4.36216e-05 0.00754713)
(-5.40642e-06 3.73651e-05 0.007577)
(1.80035e-05 2.67356e-05 0.00756962)
(4.01479e-05 2.84908e-05 0.00757194)
(-1.86268e-05 4.73132e-05 0.00749139)
(-5.23037e-06 5.48205e-05 0.00752028)
(1.52718e-05 5.98347e-05 0.00753581)
(6.88931e-05 7.34507e-05 0.00756289)
(6.1904e-07 -1.12548e-05 0.00743954)
(6.83917e-06 2.14559e-06 0.0074782)
(4.6202e-05 2.9363e-05 0.00749435)
(0.000131693 6.02275e-05 0.00749447)
(-7.39082e-06 5.43061e-06 0.00751236)
(6.76101e-06 1.37312e-06 0.00751621)
(1.26733e-05 3.05559e-07 0.00750417)
(1.04276e-05 2.74477e-06 0.00749976)
(-9.83096e-06 1.30719e-05 0.00749885)
(4.1812e-06 1.3325e-05 0.00751017)
(1.56743e-05 1.41986e-05 0.00750393)
(2.35817e-05 1.99015e-05 0.00749581)
(-1.00042e-06 1.2206e-05 0.00747943)
(8.63071e-06 1.86662e-05 0.00748878)
(2.18964e-05 2.62166e-05 0.00748345)
(4.01944e-05 3.69771e-05 0.00747212)
(1.04081e-05 -1.01065e-05 0.00745998)
(1.97177e-05 -2.45693e-06 0.00746702)
(3.96058e-05 1.06789e-05 0.00745195)
(6.80789e-05 2.22564e-05 0.00741637)
(6.03508e-07 -8.71837e-07 0.00749149)
(5.90622e-06 -1.36799e-06 0.00749345)
(8.61971e-06 -2.73204e-07 0.00748866)
(7.82306e-06 2.85278e-06 0.00748296)
(8.65056e-07 2.54679e-06 0.00748645)
(6.87019e-06 4.20628e-06 0.00749)
(1.19768e-05 6.93525e-06 0.0074856)
(1.46388e-05 1.17463e-05 0.007477)
(5.04515e-06 1.81146e-06 0.00747946)
(1.07637e-05 6.17589e-06 0.00748135)
(1.74319e-05 1.18823e-05 0.00747462)
(2.35777e-05 1.90258e-05 0.00746046)
(1.11834e-05 -6.67048e-06 0.00747078)
(1.7843e-05 -2.34498e-06 0.00746925)
(2.73965e-05 4.69795e-06 0.00745487)
(3.76353e-05 1.10588e-05 0.00742591)
(3.36571e-06 -2.54277e-06 0.00748364)
(5.35957e-06 -2.18409e-06 0.0074839)
(6.28725e-06 -9.52914e-07 0.00748098)
(5.69494e-06 1.2899e-06 0.00747525)
(4.00334e-06 -8.2795e-07 0.00748179)
(6.59116e-06 5.26308e-07 0.00748205)
(8.63091e-06 2.6564e-06 0.00747828)
(9.26266e-06 5.66319e-06 0.00747001)
(6.08184e-06 -1.16233e-06 0.00747878)
(9.03855e-06 1.37892e-06 0.00747759)
(1.19509e-05 4.76145e-06 0.00747111)
(1.36876e-05 8.64319e-06 0.00745745)
(9.16434e-06 -4.42411e-06 0.00747324)
(1.28957e-05 -2.1015e-06 0.00746912)
(1.69432e-05 1.39037e-06 0.00745649)
(2.01965e-05 4.40227e-06 0.00743118)
(3.82301e-06 -2.67084e-06 0.00748027)
(4.55418e-06 -2.2343e-06 0.00747968)
(4.73056e-06 -1.32036e-06 0.00747732)
(4.18092e-06 8.04844e-08 0.00747182)
(4.33871e-06 -1.71154e-06 0.0074796)
(5.43992e-06 -8.28626e-07 0.00747869)
(6.15284e-06 4.97563e-07 0.00747536)
(6.06513e-06 2.20969e-06 0.0074677)
(5.39973e-06 -1.78352e-06 0.0074779)
(6.83611e-06 -4.12612e-07 0.00747586)
(7.98129e-06 1.43924e-06 0.00747011)
(8.26593e-06 3.47147e-06 0.00745772)
(6.89792e-06 -3.02809e-06 0.00747332)
(8.8129e-06 -1.85562e-06 0.00746896)
(1.04544e-05 -1.36757e-07 0.00745816)
(1.13007e-05 1.38782e-06 0.00743586)
(3.42518e-06 -2.30923e-06 0.00747863)
(3.64199e-06 -1.98552e-06 0.00747776)
(3.54623e-06 -1.39075e-06 0.00747563)
(3.07408e-06 -5.64705e-07 0.00747034)
(3.75397e-06 -1.75619e-06 0.00747837)
(4.19609e-06 -1.23418e-06 0.00747716)
(4.36726e-06 -4.67585e-07 0.00747416)
(4.06776e-06 4.66963e-07 0.00746701)
(4.29231e-06 -1.70231e-06 0.00747709)
(4.95531e-06 -9.9791e-07 0.00747497)
(5.33344e-06 -4.18321e-08 0.00746986)
(5.15568e-06 9.94911e-07 0.00745841)
(4.98764e-06 -2.14612e-06 0.00747276)
(5.91692e-06 -1.58713e-06 0.00746873)
(6.52468e-06 -7.71486e-07 0.00745919)
(6.57684e-06 4.28265e-10 0.00743865)
(2.78233e-06 -1.83986e-06 0.0074778)
(2.78465e-06 -1.63725e-06 0.00747691)
(2.62404e-06 -1.27666e-06 0.00747494)
(2.24644e-06 -8.00027e-07 0.00746982)
(2.96654e-06 -1.53589e-06 0.00747767)
(3.11716e-06 -1.23831e-06 0.00747648)
(3.08837e-06 -8.0664e-07 0.00747374)
(2.77171e-06 -3.05864e-07 0.00746695)
(3.23188e-06 -1.43552e-06 0.00747651)
(3.52138e-06 -1.08412e-06 0.00747455)
(3.59179e-06 -6.01601e-07 0.00746989)
(3.32289e-06 -8.13315e-08 0.00745906)
(3.54614e-06 -1.55455e-06 0.00747221)
(3.97749e-06 -1.30432e-06 0.00746859)
(4.15618e-06 -9.28786e-07 0.00745984)
(3.99143e-06 -5.3294e-07 0.00744031)
(2.14252e-06 -1.39968e-06 0.00747736)
(2.05649e-06 -1.28727e-06 0.00747654)
(1.90693e-06 -1.07761e-06 0.0074747)
(1.62246e-06 -8.04196e-07 0.00746972)
(2.23205e-06 -1.25164e-06 0.00747725)
(2.25516e-06 -1.08216e-06 0.00747616)
(2.16983e-06 -8.42375e-07 0.00747363)
(1.90201e-06 -5.7183e-07 0.00746708)
(2.35695e-06 -1.14565e-06 0.00747611)
(2.46718e-06 -9.71457e-07 0.00747433)
(2.43141e-06 -7.32933e-07 0.00746998)
(2.18532e-06 -4.77534e-07 0.00745953)
(2.49431e-06 -1.14017e-06 0.00747179)
(2.68092e-06 -1.03946e-06 0.00746847)
(2.68944e-06 -8.71984e-07 0.0074602)
(2.50519e-06 -6.70333e-07 0.00744125)
(1.5841e-06 -1.03083e-06 0.0074771)
(1.47054e-06 -9.74026e-07 0.00747637)
(1.35249e-06 -8.54811e-07 0.00747465)
(1.14905e-06 -6.97098e-07 0.00746976)
(1.61841e-06 -9.7315e-07 0.00747698)
(1.58979e-06 -8.76063e-07 0.00747601)
(1.50411e-06 -7.41733e-07 0.00747362)
(1.30084e-06 -5.90382e-07 0.00746724)
(1.67272e-06 -8.82371e-07 0.00747583)
(1.70142e-06 -7.96584e-07 0.00747421)
(1.64337e-06 -6.77305e-07 0.00747007)
(1.45031e-06 -5.49388e-07 0.00745986)
(1.72778e-06 -8.36261e-07 0.00747147)
(1.80207e-06 -8.02001e-07 0.00746837)
(1.761e-06 -7.30394e-07 0.0074604)
(1.60375e-06 -6.29384e-07 0.00744178)
(1.11887e-06 -7.28691e-07 0.00747695)
(1.01379e-06 -7.01813e-07 0.0074763)
(9.27495e-07 -6.35744e-07 0.00747466)
(7.88775e-07 -5.44862e-07 0.00746986)
(1.12801e-06 -7.17205e-07 0.00747681)
(1.085e-06 -6.61491e-07 0.00747593)
(1.01619e-06 -5.85424e-07 0.00747366)
(8.72874e-07 -4.98651e-07 0.00746738)
(1.14936e-06 -6.49081e-07 0.00747563)
(1.14458e-06 -6.06756e-07 0.00747413)
(1.09184e-06 -5.46281e-07 0.00747014)
(9.52926e-07 -4.79703e-07 0.00746007)
(1.16794e-06 -5.98668e-07 0.00747125)
(1.19203e-06 -5.91088e-07 0.0074683)
(1.14659e-06 -5.61453e-07 0.00746051)
(1.02715e-06 -5.1167e-07 0.00744208)
(7.45305e-07 -4.71796e-07 0.00747686)
(6.70779e-07 -4.58978e-07 0.00747628)
(6.10073e-07 -4.2386e-07 0.0074747)
(5.19223e-07 -3.74118e-07 0.00746995)
(7.46845e-07 -4.73628e-07 0.0074767)
(7.09038e-07 -4.45253e-07 0.00747589)
(6.5923e-07 -4.04416e-07 0.00747369)
(5.6413e-07 -3.56491e-07 0.00746749)
(7.53584e-07 -4.32088e-07 0.00747551)
(7.39121e-07 -4.12658e-07 0.00747409)
(6.98978e-07 -3.83523e-07 0.00747019)
(6.06156e-07 -3.49153e-07 0.0074602)
(7.56595e-07 -3.94027e-07 0.00747111)
(7.60109e-07 -3.96427e-07 0.00746825)
(7.23658e-07 -3.85561e-07 0.00746057)
(6.41143e-07 -3.62216e-07 0.00744224)
(4.80089e-07 -2.21596e-07 0.00747682)
(4.3983e-07 -2.16789e-07 0.00747628)
(3.99088e-07 -2.01878e-07 0.00747474)
(3.40665e-07 -1.80041e-07 0.00747003)
(4.79954e-07 -2.25055e-07 0.00747664)
(4.54338e-07 -2.15694e-07 0.00747588)
(4.19658e-07 -1.99429e-07 0.00747373)
(3.59164e-07 -1.79117e-07 0.00746757)
(4.78574e-07 -2.10937e-07 0.00747544)
(4.64884e-07 -2.06305e-07 0.00747407)
(4.35552e-07 -1.96497e-07 0.00747023)
(3.76886e-07 -1.83342e-07 0.00746029)
(4.74129e-07 -1.9503e-07 0.00747103)
(4.70106e-07 -2.02286e-07 0.00746822)
(4.42837e-07 -2.02152e-07 0.00746061)
(3.90864e-07 -1.93303e-07 0.00744234)
(3.8346e-07 3.65753e-08 0.00747683)
(3.67239e-07 3.37938e-08 0.00747632)
(3.38604e-07 3.31269e-08 0.00747481)
(2.95005e-07 3.41251e-08 0.00747013)
(3.78438e-07 2.58004e-08 0.00747664)
(3.6478e-07 2.092e-08 0.00747592)
(3.37714e-07 1.76377e-08 0.0074738)
(2.92895e-07 1.53426e-08 0.00746767)
(3.697e-07 1.45411e-08 0.00747544)
(3.58742e-07 5.91363e-09 0.00747411)
(3.33025e-07 -1.94652e-09 0.00747031)
(2.88106e-07 -9.29842e-09 0.00746041)
(3.5754e-07 2.10291e-09 0.00747103)
(3.48744e-07 -1.28404e-08 0.00746826)
(3.22654e-07 -2.63084e-08 0.00746069)
(2.77556e-07 -3.67412e-08 0.00744246)
(4.50133e-05 -4.15961e-05 0.0155416)
(0.00067743 -0.000344573 0.00862588)
(0.00337024 -0.000298074 0.0187056)
(0.000374881 0.00101224 0.0102997)
(-7.32475e-05 0.000332509 0.00612805)
(0.00061862 0.000378587 0.00555921)
(0.002946 0.000209682 0.0121128)
(0.00107061 0.00225341 0.0110667)
(0.000886486 0.000316779 0.0152533)
(0.0010547 0.000987417 0.00978375)
(0.00198589 0.000444133 0.0115571)
(0.00184101 0.00294807 0.0139241)
(1.77002e-05 -8.45681e-05 0.00157529)
(0.00064511 -0.000197573 0.00618925)
(0.00184396 -0.000853269 0.0115755)
(0.00114053 0.000595803 0.0122382)
(-0.00159503 3.50931e-05 0.0170222)
(0.000176276 0.00102258 0.00965979)
(0.000356959 -0.000319222 0.0166938)
(0.00225765 -0.000201842 0.0163194)
(-0.000281407 -6.77687e-06 0.0186549)
(-8.00671e-05 0.00032613 0.0140054)
(5.98227e-05 0.000385375 0.00257847)
(0.000382814 -8.39574e-05 0.00857139)
(0.000524666 0.000250652 0.014446)
(0.0011632 -0.000293945 0.0202384)
(0.000419807 0.000439447 0.0206719)
(-0.000451646 5.48656e-05 0.0203121)
(0.00164669 0.00165225 0.0267099)
(-0.000184932 0.000845718 0.0202753)
(-0.000289991 -0.000501907 0.0102579)
(0.000964841 0.000490792 0.023992)
(-0.000120954 -0.000201522 0.00793547)
(-0.000280912 0.000108543 0.0185901)
(-0.000621961 0.00100458 0.013762)
(-4.49474e-05 -9.91672e-05 0.000594178)
(-0.000223092 0.000161343 0.00434357)
(0.000204375 -0.00155594 0.0217578)
(5.00094e-05 3.22027e-06 0.0142409)
(-0.000497863 -0.00116213 0.0289086)
(-0.000731896 -0.00103897 0.0144306)
(-0.000486183 -0.000627444 0.00759073)
(-0.000620107 -0.00153448 0.0287268)
(-0.000725036 -0.00149328 0.0131401)
(-0.00115232 -0.00106018 0.00928472)
(0.000548587 -0.00144542 0.0199954)
(0.000297001 -6.37022e-05 0.011934)
(-0.000616028 -0.0002571 0.0286575)
(0.000748125 0.000780889 0.00925135)
(-0.00143015 4.53089e-05 0.0229578)
(-0.000940475 0.000154092 0.00922838)
(-0.000613477 -0.000617436 0.0126079)
(0.0006892 4.19894e-05 0.0150903)
(-0.00129632 0.000627614 0.0131772)
(-0.001034 -6.61913e-05 0.0165077)
(0.00012122 -0.00104708 0.0209895)
(-0.000331095 -0.00200331 0.0264133)
(-0.00130496 -0.000300506 0.0209794)
(-0.00194162 0.000480284 0.0173829)
(-0.000604689 -0.000525662 0.0114194)
(-0.00127816 -0.00027874 0.0183192)
(-0.000728519 -0.00106591 0.013149)
(-0.000693077 0.000314768 0.0143605)
(-0.000877064 -0.00047949 0.0226525)
(0.000371054 0.00044532 0.0149054)
(-0.00239072 0.00228587 0.0269977)
(-0.000734414 8.21373e-05 0.0132466)
(-0.000462667 2.69409e-05 0.00827653)
(-0.00149376 -0.000695184 0.0269371)
(-0.000595777 0.000478984 0.008918)
(-0.00123896 0.0001655 0.0154859)
(-0.000509277 0.000335533 0.0232198)
(-0.00010845 -2.68415e-05 0.000800392)
(-0.00161393 0.000861195 0.0310251)
(-0.00112906 0.00191954 0.0274551)
(-0.000479118 2.33033e-05 0.0118865)
(-0.000813906 9.3919e-05 0.010274)
(-0.000493723 0.000415782 0.0140272)
(-0.000874423 0.000924497 0.0137508)
(-0.001279 -0.000138258 0.0240627)
(-0.00311551 0.00513122 0.0241697)
(0.000627404 -0.000145005 0.00695878)
(0.00164692 0.000727636 0.0103649)
(-0.000331435 0.000154532 0.00224301)
(-0.000112377 9.67425e-05 0.00101484)
(0.000269369 0.00175692 0.012465)
(-0.000297072 0.000435499 0.00697539)
(-0.00114021 0.000440797 0.0109711)
(0.0022603 0.000996275 0.0156545)
(-0.000605376 0.000741275 0.0091556)
(0.000226599 -0.00106702 0.00788959)
(-0.000463539 0.000920267 0.00786437)
(7.43649e-05 7.61219e-05 0.00895815)
(-0.000378094 0.000458401 0.00950548)
(-0.000807707 0.000841305 0.012915)
(-0.0011238 0.000433726 0.00920233)
(4.86754e-05 5.8262e-06 0.00385995)
(0.00314548 0.00149165 0.00791593)
(0.00260683 0.00131876 0.00770568)
(0.000836118 -0.000130465 0.00913084)
(4.35783e-05 5.97286e-05 0.0119683)
(0.000869582 0.000157086 0.00859629)
(-0.000321591 -0.001299 0.0118665)
(0.00105367 -0.00434846 0.00761788)
(-0.000567491 0.00047373 0.00989758)
(0.000496616 0.000458094 0.0160249)
(0.00278763 0.00118828 0.0120262)
(4.24643e-05 -0.000246327 0.0116614)
(0.00031947 -2.43886e-05 0.0083824)
(-0.00217797 7.66253e-05 0.0097922)
(-0.000418093 9.57906e-05 0.0109506)
(-0.000534954 -0.0003379 0.013104)
(8.45509e-05 0.000530338 0.0100088)
(-7.54461e-05 0.000956577 0.012137)
(-0.00113959 0.000490074 0.0147738)
(-0.00151368 -0.000607971 0.0170271)
(-1.05422e-05 0.000238645 0.0203387)
(-2.44397e-05 -1.01881e-05 0.0157682)
(-0.000590074 -0.000166228 0.0138738)
(-0.000946297 -0.0013013 0.0145707)
(0.000265751 0.000329415 0.0154359)
(0.000285374 7.1504e-05 0.0181172)
(0.000518883 -0.000135588 0.0152047)
(-0.000159762 -0.00120734 0.0141801)
(0.000973033 -8.92641e-05 0.0133941)
(0.000351916 3.52694e-05 0.0149252)
(0.000542384 -0.000273632 0.0159699)
(0.000645565 -0.000966641 0.0156609)
(-0.000179445 -0.000849678 0.00322538)
(-0.00102695 -0.000233 0.00355319)
(-0.00135435 0.000248891 0.00408181)
(-0.000914875 8.26584e-05 0.00414814)
(-0.00022363 -0.000413538 0.00485915)
(-0.000258573 -0.000447895 0.00444249)
(-0.000493881 7.54442e-06 0.00391314)
(-0.000380623 -0.000320263 0.0031331)
(0.0001115 0.000370597 0.00431371)
(-8.72837e-05 -7.67907e-05 0.00472648)
(0.000143735 -0.000305272 0.00366537)
(8.27332e-05 -0.00073397 0.00251046)
(0.000507427 9.0505e-05 0.00390851)
(-2.70871e-05 8.37191e-05 0.00390659)
(0.000288259 -0.000270754 0.00346565)
(0.000525837 -0.000745896 0.00240233)
(-6.45297e-05 -0.000388409 0.00831085)
(-0.000205127 -0.000173906 0.00857534)
(-9.37438e-05 9.61299e-05 0.0087942)
(0.000282884 0.000179595 0.00883805)
(-7.52668e-06 -0.000238643 0.00901755)
(0.000115181 -0.000203395 0.00899199)
(0.000316612 -1.63399e-06 0.00869583)
(0.000530223 -1.42385e-05 0.00840297)
(0.000174236 8.88626e-05 0.00878235)
(0.000277008 -1.46706e-05 0.00907041)
(0.000600638 -0.000107939 0.00854124)
(0.000679095 -0.000258516 0.00803704)
(0.000357861 3.96097e-05 0.00850403)
(0.000329507 -9.53506e-06 0.00874994)
(0.00062665 -0.000235112 0.00840024)
(0.000712974 -0.000477216 0.00787327)
(-2.45485e-05 -0.00015454 0.0071804)
(-5.3815e-05 -9.56926e-05 0.00724153)
(1.77135e-05 1.37099e-05 0.00719324)
(0.000188658 3.71939e-05 0.00704375)
(1.28709e-05 -0.000111343 0.00737294)
(5.06279e-05 -9.17992e-05 0.0073487)
(0.00015861 -2.85974e-06 0.00709965)
(0.000272796 -1.22034e-05 0.00679444)
(8.29541e-05 -2.88515e-05 0.00728614)
(0.000110476 -5.83751e-05 0.00731147)
(0.000240784 -7.08214e-05 0.00694735)
(0.000292833 -0.000127852 0.00654269)
(0.000143987 -1.57173e-05 0.00709345)
(0.000130068 -4.62035e-05 0.00709752)
(0.000251403 -0.000124477 0.00675901)
(0.000293395 -0.000221233 0.00634248)
(1.85255e-05 -7.14626e-05 0.00748399)
(3.82913e-05 -4.86788e-05 0.00751457)
(9.96887e-05 2.07308e-06 0.00748634)
(0.000168806 3.07567e-05 0.00742871)
(3.97434e-05 -5.75291e-05 0.0075178)
(7.9363e-05 -4.98305e-05 0.00752682)
(0.00015435 -1.05332e-05 0.00743008)
(0.000199087 1.60675e-06 0.00732173)
(6.72362e-05 -1.95815e-05 0.00745655)
(0.000106135 -3.19618e-05 0.00747242)
(0.000185911 -3.34707e-05 0.0073308)
(0.000204415 -4.73591e-05 0.0071923)
(9.01938e-05 -7.30137e-06 0.00733354)
(0.000115192 -3.10479e-05 0.00735017)
(0.000184391 -7.2343e-05 0.0072085)
(0.000187075 -0.000110385 0.00706833)
(1.95448e-05 -3.19384e-05 0.00746873)
(3.2805e-05 -2.28496e-05 0.00746775)
(5.84043e-05 -1.26119e-06 0.00742813)
(8.263e-05 7.12139e-06 0.00736245)
(2.97772e-05 -2.81175e-05 0.0074601)
(4.83292e-05 -2.51519e-05 0.0074477)
(7.76264e-05 -7.57373e-06 0.00737391)
(9.17723e-05 -5.29302e-06 0.00728301)
(4.03903e-05 -1.50801e-05 0.00739781)
(5.81236e-05 -2.20024e-05 0.00738197)
(8.69627e-05 -2.02133e-05 0.00728339)
(8.93951e-05 -2.82105e-05 0.00717771)
(4.82166e-05 -6.84618e-06 0.00727325)
(6.16163e-05 -2.04905e-05 0.00725754)
(8.55666e-05 -3.67224e-05 0.00715425)
(8.1456e-05 -5.30576e-05 0.00705124)
(1.58222e-05 -1.48173e-05 0.00746605)
(2.39278e-05 -1.08753e-05 0.00745923)
(3.53488e-05 -1.54559e-06 0.0074317)
(4.34883e-05 2.56854e-06 0.00738674)
(2.06504e-05 -1.38317e-05 0.00744213)
(3.02848e-05 -1.28062e-05 0.00742838)
(4.27718e-05 -5.25798e-06 0.00738336)
(4.65987e-05 -3.57177e-06 0.00732609)
(2.49254e-05 -8.8921e-06 0.00737707)
(3.42911e-05 -1.26089e-05 0.00735956)
(4.63059e-05 -1.12547e-05 0.00730155)
(4.53028e-05 -1.37203e-05 0.00723867)
(2.79332e-05 -4.46386e-06 0.00725698)
(3.6242e-05 -1.21525e-05 0.00724091)
(4.58927e-05 -1.96521e-05 0.00718153)
(4.12727e-05 -2.599e-05 0.00712513)
(1.14335e-05 -7.50633e-06 0.00746341)
(1.57302e-05 -5.65313e-06 0.00745508)
(2.02729e-05 -1.54329e-06 0.00743296)
(2.26548e-05 1.26357e-07 0.00739479)
(1.35823e-05 -7.23846e-06 0.00743406)
(1.84024e-05 -6.88695e-06 0.0074203)
(2.31385e-05 -3.6767e-06 0.00738662)
(2.34668e-05 -2.92999e-06 0.00733972)
(1.53152e-05 -5.12017e-06 0.0073669)
(2.00382e-05 -7.15778e-06 0.00734954)
(2.43349e-05 -6.64775e-06 0.00730747)
(2.24002e-05 -7.76443e-06 0.00725724)
(1.65428e-05 -2.73582e-06 0.00724711)
(2.09856e-05 -6.99688e-06 0.00723081)
(2.40863e-05 -1.06155e-05 0.00718904)
(2.04604e-05 -1.33339e-05 0.00714581)
(7.96191e-06 -4.17216e-06 0.00746149)
(1.01609e-05 -3.2618e-06 0.00745349)
(1.19293e-05 -1.43105e-06 0.00743484)
(1.2423e-05 -6.50678e-07 0.007401)
(8.88424e-06 -4.04334e-06 0.00743002)
(1.13145e-05 -3.94017e-06 0.00741733)
(1.30514e-05 -2.6136e-06 0.0073897)
(1.25271e-05 -2.17896e-06 0.00734864)
(9.57282e-06 -3.00796e-06 0.00736175)
(1.19908e-05 -4.14257e-06 0.00734569)
(1.3435e-05 -4.08604e-06 0.00731191)
(1.18257e-05 -4.49702e-06 0.00726861)
(1.01161e-05 -1.68051e-06 0.0072417)
(1.24692e-05 -4.08969e-06 0.00722659)
(1.33103e-05 -6.02119e-06 0.00719445)
(1.08218e-05 -7.16863e-06 0.00715874)
(5.48027e-06 -2.5163e-06 0.0074601)
(6.55644e-06 -2.0697e-06 0.00745275)
(7.19025e-06 -1.24409e-06 0.00743607)
(7.1325e-06 -8.94484e-07 0.00740442)
(5.84804e-06 -2.39853e-06 0.00742773)
(7.04913e-06 -2.40503e-06 0.00741607)
(7.61739e-06 -1.88365e-06 0.00739152)
(7.0177e-06 -1.64612e-06 0.00735324)
(6.09994e-06 -1.82158e-06 0.00735887)
(7.31447e-06 -2.48846e-06 0.00734402)
(7.69666e-06 -2.609e-06 0.00731432)
(6.54606e-06 -2.77374e-06 0.00727424)
(6.35403e-06 -1.04819e-06 0.00723859)
(7.56037e-06 -2.45183e-06 0.00722464)
(7.62976e-06 -3.55176e-06 0.00719725)
(6.0056e-06 -4.0683e-06 0.00716498)
(3.75744e-06 -1.6134e-06 0.00745918)
(4.27373e-06 -1.40969e-06 0.0074524)
(4.46204e-06 -1.04189e-06 0.00743684)
(4.28968e-06 -9.08841e-07 0.00740639)
(3.87513e-06 -1.49751e-06 0.00742641)
(4.46626e-06 -1.5562e-06 0.00741554)
(4.60377e-06 -1.37471e-06 0.00739261)
(4.13217e-06 -1.26852e-06 0.00735578)
(3.95031e-06 -1.14131e-06 0.00735724)
(4.55924e-06 -1.5592e-06 0.0073433)
(4.58166e-06 -1.72677e-06 0.00731569)
(3.82506e-06 -1.7959e-06 0.00727725)
(4.08033e-06 -6.66335e-07 0.0072368)
(4.6862e-06 -1.51461e-06 0.00722377)
(4.54896e-06 -2.18675e-06 0.00719881)
(3.52498e-06 -2.43501e-06 0.0071683)
(2.57174e-06 -1.08549e-06 0.00745857)
(2.81143e-06 -1.0028e-06 0.0074522)
(2.83484e-06 -8.41576e-07 0.00743728)
(2.68299e-06 -8.10305e-07 0.00740748)
(2.59111e-06 -9.76068e-07 0.00742559)
(2.87389e-06 -1.0503e-06 0.00741526)
(2.86574e-06 -1.00755e-06 0.0073932)
(2.54166e-06 -9.76019e-07 0.00735715)
(2.59806e-06 -7.39574e-07 0.00735626)
(2.89528e-06 -1.01529e-06 0.00734295)
(2.81847e-06 -1.16999e-06 0.00731642)
(2.33483e-06 -1.22217e-06 0.00727886)
(2.67163e-06 -4.34322e-07 0.00723573)
(2.96563e-06 -9.64013e-07 0.00722336)
(2.80191e-06 -1.38814e-06 0.00719965)
(2.16162e-06 -1.53625e-06 0.00717007)
(1.74837e-06 -7.4932e-07 0.00745816)
(1.85577e-06 -7.21215e-07 0.00745207)
(1.82723e-06 -6.56865e-07 0.00743751)
(1.72084e-06 -6.67015e-07 0.00740807)
(1.73381e-06 -6.53885e-07 0.00742508)
(1.86278e-06 -7.23819e-07 0.0074151)
(1.82084e-06 -7.36659e-07 0.00739352)
(1.6135e-06 -7.36049e-07 0.00735789)
(1.71796e-06 -4.89326e-07 0.00735567)
(1.85844e-06 -6.74646e-07 0.00734275)
(1.77766e-06 -7.99083e-07 0.0073168)
(1.47524e-06 -8.47464e-07 0.00727973)
(1.76317e-06 -2.86156e-07 0.00723509)
(1.9018e-06 -6.24054e-07 0.00722314)
(1.76911e-06 -8.96866e-07 0.00720009)
(1.37096e-06 -9.99933e-07 0.00717103)
(1.16748e-06 -5.16207e-07 0.00745789)
(1.21321e-06 -5.09391e-07 0.00745197)
(1.17534e-06 -4.8324e-07 0.00743764)
(1.10634e-06 -5.09418e-07 0.0074084)
(1.14448e-06 -4.37678e-07 0.00742475)
(1.20372e-06 -4.96031e-07 0.007415)
(1.16007e-06 -5.20963e-07 0.00739369)
(1.03021e-06 -5.32097e-07 0.0073583)
(1.12533e-06 -3.21532e-07 0.0073553)
(1.191e-06 -4.46746e-07 0.00734264)
(1.12681e-06 -5.40034e-07 0.00731701)
(9.39986e-07 -5.79776e-07 0.00728019)
(1.1542e-06 -1.87651e-07 0.00723471)
(1.21823e-06 -4.03058e-07 0.00722302)
(1.12225e-06 -5.79933e-07 0.00720033)
(8.76482e-07 -6.52693e-07 0.00717156)
(7.49902e-07 -3.32263e-07 0.00745772)
(7.6734e-07 -3.33354e-07 0.00745191)
(7.34723e-07 -3.23622e-07 0.00743771)
(6.92085e-07 -3.50265e-07 0.00740859)
(7.28999e-07 -2.77289e-07 0.00742455)
(7.5469e-07 -3.1936e-07 0.00741493)
(7.19878e-07 -3.42376e-07 0.00739378)
(6.40962e-07 -3.55458e-07 0.00735852)
(7.12856e-07 -2.00679e-07 0.00735507)
(7.42124e-07 -2.82e-07 0.00734256)
(6.95857e-07 -3.45353e-07 0.00731712)
(5.83183e-07 -3.75378e-07 0.00728045)
(7.30053e-07 -1.17026e-07 0.00723448)
(7.57305e-07 -2.51331e-07 0.00722295)
(6.92155e-07 -3.61391e-07 0.00720046)
(5.43961e-07 -4.10289e-07 0.00717185)
(4.6482e-07 -1.64647e-07 0.00745762)
(4.6853e-07 -1.70734e-07 0.00745188)
(4.44082e-07 -1.71215e-07 0.00743774)
(4.1511e-07 -1.90792e-07 0.00740869)
(4.47215e-07 -1.3939e-07 0.00742445)
(4.54821e-07 -1.68795e-07 0.0074149)
(4.29201e-07 -1.87552e-07 0.00739383)
(3.79335e-07 -1.97344e-07 0.00735864)
(4.3294e-07 -1.0271e-07 0.00735495)
(4.41402e-07 -1.52742e-07 0.00734253)
(4.09255e-07 -1.91843e-07 0.00731717)
(3.40825e-07 -2.1006e-07 0.00728059)
(4.39125e-07 -6.39927e-08 0.00723435)
(4.44887e-07 -1.42294e-07 0.00722291)
(4.01119e-07 -2.04819e-07 0.00720052)
(3.12417e-07 -2.3146e-07 0.00717201)
(3.41927e-07 -5.8082e-09 0.00745762)
(3.34036e-07 -2.0963e-08 0.00745192)
(3.07374e-07 -3.47276e-08 0.00743783)
(2.70579e-07 -5.5169e-08 0.00740882)
(3.22236e-07 -1.72123e-08 0.00742443)
(3.12829e-07 -4.29119e-08 0.00741493)
(2.82424e-07 -6.22037e-08 0.00739392)
(2.37017e-07 -7.36018e-08 0.00735878)
(3.03314e-07 -2.45815e-08 0.00735493)
(2.90785e-07 -6.01925e-08 0.00734256)
(2.54392e-07 -8.55702e-08 0.00731727)
(2.01081e-07 -9.45929e-08 0.00728074)
(2.9454e-07 -2.84377e-08 0.00723433)
(2.77575e-07 -7.65454e-08 0.00722295)
(2.34086e-07 -1.09737e-07 0.00720063)
(1.71568e-07 -1.18196e-07 0.00717217)
(0.00218201 2.03515e-05 0.0151624)
(0.0024721 -0.000100402 0.0140332)
(0.00142272 -6.03779e-05 0.00735514)
(0.00133492 -0.000392813 0.0118944)
(0.00116355 -0.00037306 0.00922378)
(0.00232864 -0.000171336 0.0153491)
(0.000567569 -0.000407564 0.0088251)
(0.000156969 -0.000772095 0.00980399)
(-8.96789e-05 0.000438734 0.00399038)
(0.00134802 0.000595355 0.0123398)
(0.0012043 0.000941651 0.0118127)
(0.000559433 0.0010817 0.0132665)
(-0.00202454 0.00297917 0.0215087)
(0.000157469 0.000980185 0.00696037)
(0.00141489 0.00288376 0.013196)