/*--------------------------------*- C++ -*----------------------------------*\
| =========                 |                                                 |
| \\      /  F ield         | OpenFOAM: The Open Source CFD Toolbox           |
|  \\    /   O peration     | Version:  2506                                  |
|   \\  /    A nd           | Website:  www.openfoam.com                      |
|    \\/     M anipulation  |                                                 |
\*---------------------------------------------------------------------------*/
FoamFile
{
    version     2.0;
    format      ascii;
    arch        "LSB;label=32;scalar=64";
    class       volVectorField;
    location    "0.03";
    object      Us;
}
// * * * * * * * * * * * * * * * * * * * * * * * * * * * * * * * * * * * * * //

dimensions      [0 1 -1 0 0 0 0];

internalField   nonuniform List<vector> 
1152
(
(0.000189931 0.000218665 -3.11209e-05)
(2.31794e-05 0.00037089 0.000129101)
(-0.000123863 -1.64094e-05 0.000110873)
(-3.4127e-05 2.97064e-05 0.000137517)
(0.00017085 -4.67862e-05 0.00012678)
(8.40194e-05 4.85138e-05 0.000116118)
(-0.000222205 -9.82107e-05 0.000165497)
(-0.000209312 -6.66196e-05 0.000134784)
(7.54636e-05 -0.000161029 0.000148212)
(0.000135587 -4.21971e-05 0.000143402)
(-0.000112318 5.32736e-05 0.000224077)
(-0.000489518 4.77867e-05 1.25122e-06)
(6.27977e-05 0.000155775 0.000143273)
(1.5855e-05 -7.06549e-05 0.000148885)
(-5.37936e-05 7.00388e-05 8.73785e-05)
(-0.000164113 4.63791e-06 0.000157306)
(-0.000261779 -0.000387656 2.88681e-05)
(-0.000173647 -3.04512e-06 0.000629293)
(-0.000259504 5.80341e-05 0.000446872)
(-0.000340924 6.79615e-05 0.000359651)
(9.94583e-06 -0.00021345 0.000425694)
(-0.000157879 -3.37774e-05 0.000499976)
(-0.000220227 9.44017e-05 0.000439477)
(-0.000187874 6.91838e-05 0.000445916)
(-2.47578e-05 -0.000154366 0.000294506)
(-3.31631e-05 -0.000224367 0.000387094)
(-9.18459e-05 -5.01074e-05 0.0004159)
(-0.000112271 -2.64368e-05 0.000391573)
(1.59504e-05 -0.000138832 0.000336395)
(1.96612e-05 -4.82654e-05 0.000392898)
(-3.25651e-05 -5.28399e-05 0.00032588)
(-0.00019043 -0.00011847 0.000212068)
(-0.000204002 -0.000129111 0.000930041)
(-0.000251596 -8.10053e-05 0.000881042)
(-0.000143537 1.44957e-05 0.000562925)
(-0.000113249 0.000262766 0.000482086)
(-0.000206064 -3.62144e-05 0.000607833)
(-0.000185604 -0.000146714 0.00071998)
(-0.000118097 -0.000157027 0.000631533)
(-1.06252e-05 7.13073e-05 0.000508151)
(-1.49818e-05 -0.000110995 0.000438787)
(-0.000185788 -0.000124284 0.000505754)
(-9.27679e-05 -0.000194675 0.000542868)
(-7.51685e-05 -4.69877e-05 0.000519927)
(-4.79423e-05 -0.000192 0.000456067)
(-0.000122963 -0.000122598 0.000409578)
(-0.000149175 -0.000172195 0.0004384)
(-0.000113328 -4.63536e-05 0.00042348)
(-0.000161031 -0.000144845 0.000711392)
(-0.000271368 -0.000111282 0.000656242)
(-0.000309633 -0.000143356 0.000658435)
(-0.000253853 1.35129e-05 0.000627313)
(-0.000270129 -0.000243601 0.000577835)
(-0.000260164 -0.000190825 0.000601379)
(-0.000222967 -8.30544e-05 0.000648111)
(-0.000121145 -2.91159e-05 0.000555951)
(-0.000208451 -0.000248008 0.000573185)
(-0.000169307 -0.000244099 0.000558953)
(-0.00017811 -0.000104673 0.000584057)
(-9.83255e-05 -1.3181e-05 0.000553082)
(-0.000120521 -0.000220576 0.000540107)
(-0.000140009 -0.000181058 0.000494976)
(-0.000169982 -0.000185059 0.000578416)
(-9.84522e-05 -8.92856e-05 0.000606356)
(-0.000136183 -0.000215588 0.000542373)
(-0.000420101 -0.000230184 0.00045798)
(-0.000393234 -7.31267e-05 0.000570292)
(-0.000160513 2.2999e-05 0.000678485)
(-3.62885e-05 -0.000339298 0.000583445)
(-0.000267177 -0.000280749 0.000539213)
(-0.000255934 -0.000101434 0.000524049)
(-0.000121882 -2.62681e-05 0.000558945)
(-0.000171786 -0.000210076 0.000553572)
(-0.000174867 -0.000189816 0.000551503)
(-0.000206694 -4.78218e-05 0.000570475)
(-0.000156196 -4.30664e-05 0.000561987)
(-8.13948e-05 -7.65386e-05 0.000588403)
(-0.00010974 -7.22726e-05 0.000571609)
(-0.000127175 -8.38721e-05 0.000598696)
(-8.44617e-05 6.12694e-06 0.000563425)
(-3.78899e-05 -0.000227382 0.000465796)
(-0.000146415 -0.000126988 0.000491971)
(-9.81739e-05 5.78906e-05 0.000516248)
(-3.70103e-05 5.4609e-05 0.000789228)
(2.20135e-05 -0.000170086 0.000505368)
(-0.000139672 -8.40042e-05 0.000557537)
(-9.35233e-05 8.4781e-05 0.000575644)
(-0.000162489 7.27021e-05 0.000706634)
(-7.29554e-05 8.28962e-07 0.000582475)
(-6.87206e-05 3.47983e-05 0.000613008)
(-1.56258e-05 9.27614e-05 0.000559557)
(5.04001e-05 5.89013e-05 0.000632089)
(-5.11405e-05 3.1967e-05 0.000652534)
(-0.000113756 3.56916e-05 0.000585835)
(2.18097e-05 8.64347e-05 0.000590234)
(4.57451e-05 8.40505e-05 0.000642371)
(0.000235335 -3.9519e-05 0.00032768)
(0.000362442 -0.000239562 0.000451386)
(-0.000104173 0.000170146 0.000631371)
(-0.000142051 5.24813e-05 0.00083436)
(-2.31478e-05 4.29438e-05 0.000541975)
(0.00013026 -5.10709e-05 0.000544328)
(-2.3119e-05 0.000297556 0.000613868)
(-0.00019826 0.000158821 0.000587318)
(-0.000107821 9.75622e-05 0.000717878)
(-0.00310072 0.000740179 -0.000274959)
(-4.22628e-05 0.000282461 0.000607619)
(-0.000330916 0.000107255 0.000537236)
(-0.000904956 1.45198e-05 0.000487634)
(0.000145558 -0.000873022 0.000394858)
(0.000341652 -0.00284936 8.35753e-05)
(-0.000311608 9.0121e-05 0.000922732)
(0 0 0)
(0 0 0)
(0 0 0)
(0 0 0)
(0 0 0)
(0 0 0)
(0 0 0)
(0 0 0)
(0 0 0)
(0 0 0)
(0 0 0)
(0 0 0)
(0 0 0)
(0 0 0)
(0 0 0)
(0 0 0)
(0 0 0)
(0 0 0)
(0 0 0)
(0 0 0)
(0 0 0)
(0 0 0)
(0 0 0)
(0 0 0)
(0 0 0)
(0 0 0)
(0 0 0)
(0 0 0)
(0 0 0)
(0 0 0)
(0 0 0)
(0 0 0)
(0 0 0)
(0 0 0)
(0 0 0)
(0 0 0)
(0 0 0)
(0 0 0)
(0 0 0)
(0 0 0)
(0 0 0)
(0 0 0)
(0 0 0)
(0 0 0)
(0 0 0)
(0 0 0)
(0 0 0)
(0 0 0)
(0 0 0)
(0 0 0)
(0 0 0)
(0 0 0)
(0 0 0)
(0 0 0)
(0 0 0)
(0 0 0)
(0 0 0)
(0 0 0)
(0 0 0)
(0 0 0)
(0 0 0)
(0 0 0)
(0 0 0)
(0 0 0)
(0 0 0)
(0 0 0)
(0 0 0)
(0 0 0)
(0 0 0)
(0 0 0)
(0 0 0)
(0 0 0)
(0 0 0)
(0 0 0)
(0 0 0)
(0 0 0)
(0 0 0)
(0 0 0)
(0 0 0)
(0 0 0)
(0 0 0)
(0 0 0)
(0 0 0)
(0 0 0)
(0 0 0)
(0 0 0)
(0 0 0)
(0 0 0)
(0 0 0)
(0 0 0)
(0 0 0)
(0 0 0)
(0 0 0)
(0 0 0)
(0 0 0)
(0 0 0)
(0 0 0)
(0 0 0)
(0 0 0)
(0 0 0)
(0 0 0)
(0 0 0)
(0 0 0)
(0 0 0)
(0 0 0)
(0 0 0)
(0 0 0)
(0 0 0)
(0 0 0)
(0 0 0)
(0 0 0)
(0 0 0)
(0 0 0)
(0 0 0)
(0 0 0)
(0 0 0)
(0 0 0)
(0 0 0)
(0 0 0)
(0 0 0)
(0 0 0)
(0 0 0)
(0 0 0)
(0 0 0)
(0 0 0)
(0 0 0)
(0 0 0)
(0 0 0)
(0 0 0)
(0 0 0)
(0 0 0)
(0 0 0)
(0 0 0)
(0 0 0)
(0 0 0)
(0 0 0)
(0 0 0)
(0 0 0)
(0 0 0)
(0 0 0)
(0 0 0)
(0 0 0)
(0 0 0)
(0 0 0)
(0 0 0)
(0 0 0)
(0 0 0)
(0 0 0)
(0 0 0)
(0 0 0)
(0 0 0)
(0 0 0)
(0 0 0)
(0 0 0)
(0 0 0)
(0 0 0)
(0 0 0)
(0 0 0)
(0 0 0)
(0 0 0)
(0 0 0)
(0 0 0)
(0 0 0)
(0 0 0)
(0 0 0)
(0 0 0)
(0 0 0)
(0 0 0)
(0 0 0)
(0 0 0)
(0 0 0)
(0 0 0)
(0 0 0)
(0 0 0)
(0 0 0)
(0 0 0)
(0 0 0)
(0 0 0)
(0 0 0)
(0 0 0)
(0 0 0)
(0 0 0)
(0 0 0)
(0 0 0)
(0 0 0)
(0 0 0)
(0 0 0)
(0 0 0)
(0 0 0)
(0 0 0)
(0 0 0)
(0 0 0)
(0 0 0)
(0 0 0)
(0 0 0)
(0 0 0)
(0 0 0)
(0 0 0)
(0 0 0)
(0 0 0)
(0 0 0)
(0 0 0)
(0 0 0)
(0 0 0)
(0 0 0)
(0 0 0)
(0 0 0)
(0 0 0)
(0 0 0)
(0 0 0)
(0 0 0)
(0 0 0)
(0 0 0)
(0 0 0)
(0 0 0)
(0 0 0)
(0 0 0)
(0 0 0)
(0 0 0)
(0 0 0)
(0 0 0)
(0 0 0)
(0 0 0)
(0 0 0)
(0 0 0)
(0 0 0)
(0 0 0)
(0 0 0)
(0 0 0)
(0 0 0)
(0 0 0)
(0 0 0)
(0 0 0)
(0 0 0)
(0 0 0)
(0 0 0)
(0 0 0)
(0 0 0)
(0 0 0)
(0 0 0)
(0 0 0)
(0 0 0)
(0 0 0)
(0 0 0)
(0 0 0)
(0 0 0)
(0 0 0)
(0 0 0)
(0 0 0)
(0 0 0)
(0 0 0)
(0 0 0)
(0 0 0)
(0 0 0)
(0 0 0)
(0 0 0)
(0 0 0)
(0 0 0)
(0 0 0)
(0 0 0)
(0 0 0)
(0 0 0)
(0 0 0)
(0 0 0)
(0 0 0)
(0 0 0)
(0 0 0)
(0 0 0)
(0 0 0)
(0 0 0)
(0 0 0)
(0 0 0)
(-0.000114256 -0.000278951 -2.22041e-05)
(8.46956e-05 -2.8662e-05 3.90725e-05)
(2.90038e-05 7.90955e-06 0.000104054)
(6.21394e-05 4.73402e-05 0.000254682)
(-3.03659e-05 -2.94955e-05 3.40595e-05)
(6.88512e-05 -9.88831e-06 1.86388e-05)
(6.62694e-05 -1.99142e-05 1.44448e-05)
(6.03662e-06 -1.83486e-05 4.87555e-05)
(1.80879e-05 -6.68263e-05 6.29104e-05)
(4.22282e-05 -2.47254e-05 6.60791e-05)
(5.74923e-05 1.10978e-05 1.50069e-05)
(-5.57031e-06 5.28944e-05 9.20354e-05)
(-1.31583e-05 5.75867e-06 5.60797e-05)
(1.24831e-05 -2.0144e-05 3.36273e-05)
(1.72075e-05 -5.36993e-06 7.35536e-05)
(-2.41278e-05 2.84134e-05 7.69077e-05)
(-1.73633e-05 -0.000105758 0.000249245)
(7.56531e-05 -1.73599e-06 0.000189641)
(-1.25891e-05 0.000100455 0.000214294)
(5.88908e-05 0.000224735 0.00015327)
(-6.40549e-05 -0.000120324 0.000115922)
(2.15744e-05 -2.14652e-05 0.00022559)
(-6.16826e-05 0.000115161 5.60403e-05)
(4.02777e-05 -2.92387e-05 -7.98027e-05)
(-0.000115924 -0.000237881 0.000158423)
(2.9014e-06 -4.29991e-05 0.000224698)
(5.55015e-05 -5.8261e-05 0.000231441)
(-5.88774e-05 -7.99163e-05 9.67349e-05)
(-0.000115917 -3.77221e-05 0.000153144)
(-1.04606e-05 -5.70771e-06 0.000133292)
(-4.90287e-05 4.14862e-05 0.000298059)
(-1.973e-05 -3.32561e-05 0.000359375)
(-9.18575e-05 -0.000131058 0.000382463)
(-0.000109737 -0.000123567 0.000403674)
(-5.82512e-05 -0.000223189 0.000386147)
(-9.79577e-05 -0.000217354 0.000474968)
(-0.00017475 -7.70837e-05 0.000320676)
(-0.000128928 -8.54087e-05 0.000415522)
(-0.000107915 -0.000233537 0.000455737)
(3.45979e-06 -0.000169041 0.000492392)
(-5.27367e-05 -2.85775e-05 0.000276508)
(-7.74533e-05 -8.94342e-05 0.000348509)
(-0.000136646 -0.000333238 0.000178505)
(-0.000107565 -0.000193721 0.000420822)
(-5.03542e-05 -5.90937e-06 0.000231194)
(-1.99854e-05 -0.000124838 0.000229911)
(7.30399e-05 -9.34963e-06 0.000278261)
(2.17919e-05 -8.67023e-05 0.000353139)
(-7.82782e-05 -7.43039e-05 0.000487624)
(-0.000144185 -0.000178635 0.000525781)
(-0.000175965 -0.000178911 0.000557389)
(-0.000117401 -9.75586e-05 0.000473073)
(-0.000139312 -7.53088e-05 0.000450149)
(-0.000148904 -0.000129919 0.000403705)
(-0.000224126 -0.000180296 0.000469358)
(-9.40963e-05 -0.000150581 0.000411932)
(-0.000166898 -5.90943e-05 0.000350777)
(-8.2776e-05 -0.000117676 0.000358602)
(-0.000142262 -0.000168805 0.000292989)
(-0.000299274 -3.26263e-05 0.000258891)
(-0.000198517 -4.07358e-05 0.000248079)
(-5.26032e-05 -4.00869e-05 0.000217414)
(0.000100935 -0.000106456 0.000240687)
(-8.05131e-05 -7.37365e-06 0.000403399)
(-0.000113757 -2.9927e-06 0.000568457)
(-0.000135463 -4.52978e-05 0.000493546)
(-5.29963e-05 -5.43357e-05 0.000526495)
(-3.97718e-05 -3.76777e-07 0.000483839)
(-0.000128575 -1.47192e-05 0.000524236)
(-0.000133046 2.58298e-05 0.000493906)
(-9.06906e-05 -5.19994e-05 0.000481444)
(1.09468e-05 4.89014e-06 0.000382679)
(-0.000123862 -2.33159e-05 0.000379959)
(-4.50467e-05 6.33844e-05 0.000314411)
(-7.24339e-05 -4.9534e-05 0.000383172)
(-7.2535e-05 5.07248e-05 0.000263464)
(-0.000164011 -2.90267e-05 0.000342512)
(-9.11603e-05 8.67176e-05 0.00013971)
(-7.66137e-05 -1.70546e-05 0.000170912)
(-6.84668e-05 5.57643e-05 0.000208109)
(-8.74516e-05 0.000159403 0.000605077)
(-3.89311e-05 3.81703e-05 0.000522064)
(2.44574e-05 5.21927e-05 0.000611178)
(-6.16596e-05 6.05952e-06 0.000612702)
(-0.000139824 0.000119427 0.000651691)
(-0.000251859 0.000222932 0.000401166)
(-0.000199531 9.36313e-05 0.000474603)
(-0.00018005 -3.00119e-05 0.000602309)
(-6.17355e-05 0.000256119 0.000496621)
(-0.000136494 0.000119461 0.000503159)
(0.000539988 -0.000987898 -0.000745683)
(-3.35814e-05 -7.93503e-05 0.0005931)
(3.49267e-05 0.000114516 0.000347817)
(-0.00013732 -5.49712e-05 0.000557402)
(-0.000199142 4.94589e-05 0.000372296)
(3.20453e-05 -9.70835e-05 0.000520266)
(4.71274e-06 0.00014208 0.000585701)
(0.00288977 0.00144335 -0.00242081)
(0.00278843 0.00150801 -0.00227623)
(0.000889644 -0.000484821 0.000335168)
(-8.68212e-05 -0.000137496 0.000511573)
(0.000683274 0.000328 -4.5832e-05)
(-0.00044762 -0.00138531 0.000458848)
(0.00118201 -0.0047528 -0.000733102)
(-0.000166815 4.76105e-05 0.000537485)
(0.000757906 0.000456413 0.0001772)
(0.00299153 0.00144725 -0.00126784)
(-2.83564e-05 -0.000199532 0.000727252)
(-0.000161773 0.000149034 0.000407875)
(-0.00216101 0.000164662 0.00126973)
(-0.000211876 1.27908e-05 0.00023344)
(-0.000230317 -0.000318631 0.000808944)
(0 0 0)
(0 0 0)
(0 0 0)
(0 0 0)
(0 0 0)
(0 0 0)
(0 0 0)
(0 0 0)
(0 0 0)
(0 0 0)
(0 0 0)
(0 0 0)
(0 0 0)
(0 0 0)
(0 0 0)
(0 0 0)
(0 0 0)
(0 0 0)
(0 0 0)
(0 0 0)
(0 0 0)
(0 0 0)
(0 0 0)
(0 0 0)
(0 0 0)
(0 0 0)
(0 0 0)
(0 0 0)
(0 0 0)
(0 0 0)
(0 0 0)
(0 0 0)
(0 0 0)
(0 0 0)
(0 0 0)
(0 0 0)
(0 0 0)
(0 0 0)
(0 0 0)
(0 0 0)
(0 0 0)
(0 0 0)
(0 0 0)
(0 0 0)
(0 0 0)
(0 0 0)
(0 0 0)
(0 0 0)
(0 0 0)
(0 0 0)
(0 0 0)
(0 0 0)
(0 0 0)
(0 0 0)
(0 0 0)
(0 0 0)
(0 0 0)
(0 0 0)
(0 0 0)
(0 0 0)
(0 0 0)
(0 0 0)
(0 0 0)
(0 0 0)
(0 0 0)
(0 0 0)
(0 0 0)
(0 0 0)
(0 0 0)
(0 0 0)
(0 0 0)
(0 0 0)
(0 0 0)
(0 0 0)
(0 0 0)
(0 0 0)
(0 0 0)
(0 0 0)
(0 0 0)
(0 0 0)
(0 0 0)
(0 0 0)
(0 0 0)
(0 0 0)
(0 0 0)
(0 0 0)
(0 0 0)
(0 0 0)
(0 0 0)
(0 0 0)
(0 0 0)
(0 0 0)
(0 0 0)
(0 0 0)
(0 0 0)
(0 0 0)
(0 0 0)
(0 0 0)
(0 0 0)
(0 0 0)
(0 0 0)
(0 0 0)
(0 0 0)
(0 0 0)
(0 0 0)
(0 0 0)
(0 0 0)
(0 0 0)
(0 0 0)
(0 0 0)
(0 0 0)
(0 0 0)
(0 0 0)
(0 0 0)
(0 0 0)
(0 0 0)
(0 0 0)
(0 0 0)
(0 0 0)
(0 0 0)
(0 0 0)
(0 0 0)
(0 0 0)
(0 0 0)
(0 0 0)
(0 0 0)
(0 0 0)
(0 0 0)
(0 0 0)
(0 0 0)
(0 0 0)
(0 0 0)
(0 0 0)
(0 0 0)
(0 0 0)
(0 0 0)
(0 0 0)
(0 0 0)
(0 0 0)
(0 0 0)
(0 0 0)
(0 0 0)
(0 0 0)
(0 0 0)
(0 0 0)
(0 0 0)
(0 0 0)
(0 0 0)
(0 0 0)
(0 0 0)
(0 0 0)
(0 0 0)
(0 0 0)
(0 0 0)
(0 0 0)
(0 0 0)
(0 0 0)
(0 0 0)
(0 0 0)
(0 0 0)
(0 0 0)
(0 0 0)
(0 0 0)
(0 0 0)
(0 0 0)
(0 0 0)
(0 0 0)
(0 0 0)
(0 0 0)
(0 0 0)
(0 0 0)
(0 0 0)
(0 0 0)
(0 0 0)
(0 0 0)
(0 0 0)
(0 0 0)
(0 0 0)
(0 0 0)
(0 0 0)
(0 0 0)
(0 0 0)
(0 0 0)
(0 0 0)
(0 0 0)
(0 0 0)
(0 0 0)
(0 0 0)
(0 0 0)
(0 0 0)
(0 0 0)
(0 0 0)
(0 0 0)
(0 0 0)
(0 0 0)
(0 0 0)
(0 0 0)
(0 0 0)
(0 0 0)
(0 0 0)
(0 0 0)
(0 0 0)
(0 0 0)
(0 0 0)
(0 0 0)
(0 0 0)
(0 0 0)
(0 0 0)
(0 0 0)
(0 0 0)
(0 0 0)
(0 0 0)
(0 0 0)
(0 0 0)
(0 0 0)
(0 0 0)
(0 0 0)
(0 0 0)
(0 0 0)
(0 0 0)
(0 0 0)
(0 0 0)
(0 0 0)
(0 0 0)
(0 0 0)
(0 0 0)
(0 0 0)
(0 0 0)
(0 0 0)
(0 0 0)
(0 0 0)
(0 0 0)
(0 0 0)
(0 0 0)
(0 0 0)
(0 0 0)
(0 0 0)
(0 0 0)
(0 0 0)
(0 0 0)
(0 0 0)
(0 0 0)
(0 0 0)
(0 0 0)
(0 0 0)
(0 0 0)
(0 0 0)
(0 0 0)
(0 0 0)
(0 0 0)
(0 0 0)
(0 0 0)
(0 0 0)
(0 0 0)
(0 0 0)
(0 0 0)
(0 0 0)
(0 0 0)
(0 0 0)
(0 0 0)
(0 0 0)
(0 0 0)
(0 0 0)
(0 0 0)
(0 0 0)
(0 0 0)
(0 0 0)
(0 0 0)
(0 0 0)
(0 0 0)
(0 0 0)
(0 0 0)
(-4.8029e-05 5.18864e-05 4.4452e-05)
(-4.53974e-05 3.22929e-05 7.21385e-05)
(-1.34465e-05 1.99195e-05 0.000173326)
(-1.64352e-05 -1.72747e-05 3.28621e-05)
(-0.00018396 3.07198e-05 9.00528e-05)
(-0.0001438 -8.42588e-05 -4.47807e-06)
(-0.000120399 -6.68951e-05 6.40107e-05)
(-2.92496e-05 -6.37318e-05 7.46039e-05)
(-0.00018205 -7.79005e-05 2.94605e-05)
(-0.000220475 -8.05373e-05 -4.66264e-05)
(-0.000119643 -0.000116693 -5.34499e-06)
(4.04548e-06 -9.40502e-05 1.91254e-05)
(-7.40949e-05 -1.67447e-05 9.29164e-05)
(-6.82548e-05 -8.05506e-06 4.81658e-05)
(-4.11957e-05 6.60107e-05 4.51405e-05)
(-3.80259e-05 -5.77317e-05 1.76217e-05)
(-0.000224579 0.000120869 0.000283404)
(-0.00012717 7.98106e-05 0.000307411)
(-4.2789e-05 7.47737e-05 0.00022367)
(-7.61567e-05 -0.00013911 0.000138992)
(-0.000171535 3.08122e-05 0.000266152)
(-0.000135174 1.28333e-05 0.000157578)
(-0.000123803 -1.02565e-05 0.000262177)
(-6.43233e-05 3.72001e-05 0.000205141)
(-0.000145315 8.06507e-06 0.000329751)
(-0.00012624 2.40691e-05 0.000230939)
(-0.00017701 -8.5851e-05 0.000134663)
(-3.26671e-05 -0.000142836 0.000169142)
(-0.000257496 -5.5945e-05 0.000251991)
(-0.000178905 5.65939e-05 0.000261988)
(-8.81505e-05 0.000126683 0.000214358)
(-3.20297e-05 9.1483e-06 0.000126632)
(-0.000148639 -4.92845e-05 0.000484628)
(-0.000110217 -1.64449e-05 0.000473355)
(-0.000102234 1.92156e-05 0.000315757)
(-1.92858e-05 -0.000127005 0.0003354)
(-8.8721e-05 2.15644e-05 0.000475972)
(-0.000121201 2.76429e-05 0.000431648)
(-0.000117029 -2.05474e-05 0.00036151)
(-4.1999e-05 -0.000114611 0.000247481)
(-0.000117601 -5.87788e-06 0.000384426)
(-0.000115224 7.80825e-05 0.000418836)
(-0.000157933 0.000161295 0.000397233)
(-9.1025e-05 5.79807e-06 7.57925e-05)
(-0.000157447 -5.52448e-05 0.000354692)
(-0.000125236 -2.4514e-06 0.000330277)
(-0.000106528 3.52095e-05 0.000381285)
(1.93304e-05 2.04061e-05 0.000201631)
(-0.000107087 -4.21172e-05 0.000567948)
(-6.58159e-05 -3.43559e-05 0.000575625)
(4.4572e-05 6.33917e-06 0.000418078)
(-5.61141e-05 -0.000112703 0.000438579)
(-9.27614e-05 -2.7933e-05 0.000527247)
(-0.000129373 1.70251e-05 0.000460242)
(-5.14334e-05 -1.39806e-05 0.000411857)
(-4.87074e-05 -4.93935e-06 0.000251842)
(-0.000111067 2.36703e-05 0.000480159)
(-5.74699e-05 1.95368e-05 0.000428927)
(7.54346e-05 -4.66144e-05 0.00041831)
(8.26123e-05 -2.42691e-05 0.000147494)
(-7.35797e-05 1.36699e-05 0.000420484)
(-3.94065e-05 1.91913e-05 0.000321731)
(1.38381e-05 2.53881e-05 0.000290637)
(-2.87019e-05 5.2093e-05 0.000206706)
(-1.47153e-05 3.09422e-05 0.000721729)
(-1.15129e-05 6.48367e-05 0.000656656)
(-7.25124e-05 0.000135497 0.000668093)
(-2.1669e-05 3.61314e-05 0.000584961)
(-8.20014e-05 4.91288e-06 0.00058736)
(-8.88164e-06 3.94298e-05 0.000569171)
(9.73661e-06 -0.00014221 0.000516643)
(-8.16629e-05 -2.40782e-05 0.000426599)
(-0.000171648 3.13434e-05 0.000347858)
(-6.50439e-05 2.45646e-06 0.000322711)
(-1.98037e-05 -7.07479e-05 0.00041718)
(-6.03451e-05 -8.07428e-06 0.000241144)
(-8.61893e-05 -1.18827e-05 0.00039926)
(-5.22942e-05 -2.5765e-05 0.000416974)
(-4.36795e-05 -1.41391e-06 0.000323582)
(-5.02172e-05 1.96321e-05 0.000156038)
(-8.74322e-05 1.56893e-05 0.000817438)
(-0.000191202 -2.22816e-05 0.000803794)
(-7.65082e-05 3.53693e-06 0.000702208)
(-7.50456e-05 5.47652e-05 0.000497532)
(-0.000104557 1.76377e-05 0.000588879)
(-5.75384e-05 4.57607e-05 0.000740764)
(-3.71763e-05 -4.90494e-05 0.00071774)
(-0.000124608 3.76355e-05 0.000732815)
(7.07185e-05 1.9455e-05 0.000274596)
(-0.000329967 -0.000145206 0.00031948)
(-0.000199315 -6.8646e-05 0.000582632)
(-0.000108448 -0.000117227 0.000442503)
(-8.16043e-05 0.000170572 0.000636223)
(-0.000195838 -8.52478e-05 0.000627783)
(-0.000399131 -0.000226044 0.000378882)
(1.50447e-05 9.47351e-05 0.000174851)
(-0.00112647 0.00165518 0.00159159)
(-0.000310381 -4.08667e-05 0.000875994)
(0.000180111 -0.000523148 0.000623024)
(4.22348e-05 -0.000100904 0.000294485)
(-7.33611e-05 0.000337503 0.000184353)
(-3.73339e-05 -2.99261e-05 0.000800357)
(0.00488971 -0.0140096 -0.0104209)
(-0.000126562 0.000101303 0.000855856)
(-0.00246755 0.00339079 8.32673e-07)
(-0.00335557 0.000170628 0.00047258)
(-0.000344967 -0.0035939 -0.000708218)
(-0.000734493 -0.00046545 -0.000167309)
(-0.00320963 -0.00969056 -0.00285387)
(-0.000385843 0.000158293 0.000902528)
(-0.00160792 0.000445105 0.0011521)
(-0.00025816 -0.000333705 0.000307777)
(0 0 0)
(0 0 0)
(0 0 0)
(0 0 0)
(0 0 0)
(0 0 0)
(0 0 0)
(0 0 0)
(0 0 0)
(0 0 0)
(0 0 0)
(0 0 0)
(0 0 0)
(0 0 0)
(0 0 0)
(0 0 0)
(0 0 0)
(0 0 0)
(0 0 0)
(0 0 0)
(0 0 0)
(0 0 0)
(0 0 0)
(0 0 0)
(0 0 0)
(0 0 0)
(0 0 0)
(0 0 0)
(0 0 0)
(0 0 0)
(0 0 0)
(0 0 0)
(0 0 0)
(0 0 0)
(0 0 0)
(0 0 0)
(0 0 0)
(0 0 0)
(0 0 0)
(0 0 0)
(0 0 0)
(0 0 0)
(0 0 0)
(0 0 0)
(0 0 0)
(0 0 0)
(0 0 0)
(0 0 0)
(0 0 0)
(0 0 0)
(0 0 0)
(0 0 0)
(0 0 0)
(0 0 0)
(0 0 0)
(0 0 0)
(0 0 0)
(0 0 0)
(0 0 0)
(0 0 0)
(0 0 0)
(0 0 0)
(0 0 0)
(0 0 0)
(0 0 0)
(0 0 0)
(0 0 0)
(0 0 0)
(0 0 0)
(0 0 0)
(0 0 0)
(0 0 0)
(0 0 0)
(0 0 0)
(0 0 0)
(0 0 0)
(0 0 0)
(0 0 0)
(0 0 0)
(0 0 0)
(0 0 0)
(0 0 0)
(0 0 0)
(0 0 0)
(0 0 0)
(0 0 0)
(0 0 0)
(0 0 0)
(0 0 0)
(0 0 0)
(0 0 0)
(0 0 0)
(0 0 0)
(0 0 0)
(0 0 0)
(0 0 0)
(0 0 0)
(0 0 0)
(0 0 0)
(0 0 0)
(0 0 0)
(0 0 0)
(0 0 0)
(0 0 0)
(0 0 0)
(0 0 0)
(0 0 0)
(0 0 0)
(0 0 0)
(0 0 0)
(0 0 0)
(0 0 0)
(0 0 0)
(0 0 0)
(0 0 0)
(0 0 0)
(0 0 0)
(0 0 0)
(0 0 0)
(0 0 0)
(0 0 0)
(0 0 0)
(0 0 0)
(0 0 0)
(0 0 0)
(0 0 0)
(0 0 0)
(0 0 0)
(0 0 0)
(0 0 0)
(0 0 0)
(0 0 0)
(0 0 0)
(0 0 0)
(0 0 0)
(0 0 0)
(0 0 0)
(0 0 0)
(0 0 0)
(0 0 0)
(0 0 0)
(0 0 0)
(0 0 0)
(0 0 0)
(0 0 0)
(0 0 0)
(0 0 0)
(0 0 0)
(0 0 0)
(0 0 0)
(0 0 0)
(0 0 0)
(0 0 0)
(0 0 0)
(0 0 0)
(0 0 0)
(0 0 0)
(0 0 0)
(0 0 0)
(0 0 0)
(0 0 0)
(0 0 0)
(0 0 0)
(0 0 0)
(0 0 0)
(0 0 0)
(0 0 0)
(0 0 0)
(0 0 0)
(0 0 0)
(0 0 0)
(0 0 0)
(0 0 0)
(0 0 0)
(0 0 0)
(0 0 0)
(0 0 0)
(0 0 0)
(0 0 0)
(0 0 0)
(0 0 0)
(0 0 0)
(0 0 0)
(0 0 0)
(0 0 0)
(0 0 0)
(0 0 0)
(0 0 0)
(0 0 0)
(0 0 0)
(0 0 0)
(0 0 0)
(0 0 0)
(0 0 0)
(0 0 0)
(0 0 0)
(0 0 0)
(0 0 0)
(0 0 0)
(0 0 0)
(0 0 0)
(0 0 0)
(0 0 0)
(0 0 0)
(0 0 0)
(0 0 0)
(0 0 0)
(0 0 0)
(0 0 0)
(0 0 0)
(0 0 0)
(0 0 0)
(0 0 0)
(0 0 0)
(0 0 0)
(0 0 0)
(0 0 0)
(0 0 0)
(0 0 0)
(0 0 0)
(0 0 0)
(0 0 0)
(0 0 0)
(0 0 0)
(0 0 0)
(0 0 0)
(0 0 0)
(0 0 0)
(0 0 0)
(0 0 0)
(0 0 0)
(0 0 0)
(0 0 0)
(0 0 0)
(0 0 0)
(0 0 0)
(0 0 0)
(0 0 0)
(0 0 0)
(0 0 0)
(0 0 0)
(0 0 0)
(0 0 0)
(0 0 0)
(0 0 0)
(0 0 0)
(0 0 0)
(0 0 0)
(0 0 0)
(0 0 0)
(0 0 0)
(0 0 0)
(0 0 0)
(0 0 0)
(0 0 0)
(0 0 0)
(0 0 0)
(0 0 0)
(0 0 0)
(0 0 0)
(0 0 0)
(0 0 0)
(0 0 0)
(0 0 0)
(0 0 0)
(0 0 0)
(0 0 0)
(0 0 0)
(0 0 0)
(0 0 0)
(0 0 0)
(0 0 0)
)
;

boundaryField
{
    inlet
    {
        type            zeroGradient;
    }
    outlet
    {
        type            zeroGradient;
    }
    wall
    {
        type            zeroGradient;
    }
    procBoundary3to1
    {
        type            processor;
        value           nonuniform List<vector> 
192
(
(0.000585245 0.000677778 -0.00054523)
(-5.33101e-06 0.000103884 7.28236e-05)
(2.80365e-05 0.000116213 6.05148e-05)
(-2.599e-05 -0.000153204 0.000117387)
(9.97815e-05 -1.83009e-05 0.000692756)
(-0.000100365 0.000132712 0.000534164)
(-6.54547e-05 6.55096e-05 0.000493125)
(-0.000121331 0.00017121 0.00046419)
(-0.000213418 5.91706e-06 0.000527854)
(-0.000140127 7.67915e-05 0.000872147)
(-0.000236091 8.63761e-05 0.000562948)
(-0.000233055 0.000126922 0.000594864)
(-7.66842e-05 0.000110356 0.000730367)
(-0.000466006 0.00013382 0.0008681)
(-0.00029548 0.000124295 0.000699547)
(-0.000336509 5.87776e-05 0.000643995)
(-6.72656e-05 9.86958e-05 0.000440672)
(-0.000518765 7.16331e-05 0.000576523)
(-0.000490478 2.23149e-05 0.000553798)
(-0.000231384 0.000111353 0.000724583)
(0.00032576 3.51371e-05 0.00033456)
(-6.76177e-05 -2.06528e-05 0.000431976)
(-0.000117334 4.57582e-05 0.000586019)
(-6.00401e-05 1.05894e-05 0.000740676)
(0.000195838 -0.000498358 0.000566322)
(0.00208565 -0.00127653 -0.000146064)
(0.000275614 -1.37144e-05 0.000586383)
(0.00057326 -0.000287502 0.000544984)
(0.000391948 -0.000372133 0.0004217)
(0 0 0)
(0 0 0)
(0 0 0)
(0 0 0)
(0 0 0)
(0 0 0)
(0 0 0)
(0 0 0)
(0 0 0)
(0 0 0)
(0 0 0)
(0 0 0)
(0 0 0)
(0 0 0)
(0 0 0)
(0 0 0)
(0 0 0)
(0 0 0)
(0 0 0)
(0 0 0)
(0 0 0)
(0 0 0)
(0 0 0)
(0 0 0)
(0 0 0)
(0 0 0)
(0 0 0)
(0 0 0)
(0 0 0)
(0 0 0)
(0 0 0)
(0 0 0)
(0 0 0)
(0 0 0)
(0 0 0)
(0 0 0)
(0 0 0)
(0 0 0)
(0 0 0)
(0 0 0)
(0 0 0)
(0 0 0)
(0 0 0)
(0 0 0)
(0 0 0)
(0 0 0)
(0 0 0)
(0 0 0)
(0 0 0)
(0 0 0)
(0 0 0)
(0 0 0)
(0 0 0)
(0 0 0)
(0 0 0)
(0 0 0)
(0 0 0)
(0 0 0)
(0 0 0)
(0 0 0)
(0 0 0)
(0 0 0)
(0 0 0)
(0 0 0)
(0 0 0)
(0 0 0)
(0 0 0)
(-3.84329e-05 1.34451e-05 9.23436e-05)
(0.000108786 -5.06329e-05 0.000108822)
(0.000213875 8.21433e-05 0.000147121)
(-0.000742891 -1.84527e-05 -0.000152247)
(-0.000154591 0.000123522 0.000314307)
(-0.000131168 0.000121557 0.000386784)
(4.68967e-05 -3.69709e-05 0.000343952)
(3.19284e-05 5.2308e-05 0.000353594)
(-0.000142512 1.40861e-05 0.00051257)
(-3.3119e-05 0.000148465 0.000493008)
(-0.000224615 -6.44763e-06 0.000491542)
(0.00017606 -0.000204689 0.000506439)
(-0.00019403 7.58102e-05 0.000595682)
(-4.04614e-05 9.1135e-05 0.000608808)
(9.15902e-05 0.000120779 0.000596015)
(-2.49627e-05 2.14701e-05 0.000827443)
(-9.2871e-05 8.63411e-05 0.000714884)
(-2.55044e-05 0.000111733 0.000644678)
(-0.000107039 0.000124153 0.000773552)
(-9.286e-05 -1.04467e-06 0.0013277)
(-0.000134813 4.10168e-05 0.000889607)
(-0.000235277 0.000133153 0.00068292)
(-0.000217337 7.7175e-05 0.000654813)
(-0.000134726 -0.000195898 0.000674455)
(0.00100076 -0.000606395 0.000581166)
(8.57038e-05 -8.24197e-05 0.000836024)
(-0.000324854 -0.000101254 0.000487351)
(0.00144645 0.00270685 -0.000769434)
(0 0 0)
(0 0 0)
(0 0 0)
(0 0 0)
(0 0 0)
(0 0 0)
(0 0 0)
(0 0 0)
(0 0 0)
(0 0 0)
(0 0 0)
(0 0 0)
(0 0 0)
(0 0 0)
(0 0 0)
(0 0 0)
(0 0 0)
(0 0 0)
(0 0 0)
(0 0 0)
(0 0 0)
(0 0 0)
(0 0 0)
(0 0 0)
(0 0 0)
(0 0 0)
(0 0 0)
(0 0 0)
(0 0 0)
(0 0 0)
(0 0 0)
(0 0 0)
(0 0 0)
(0 0 0)
(0 0 0)
(0 0 0)
(0 0 0)
(0 0 0)
(0 0 0)
(0 0 0)
(0 0 0)
(0 0 0)
(0 0 0)
(0 0 0)
(0 0 0)
(0 0 0)
(0 0 0)
(0 0 0)
(0 0 0)
(0 0 0)
(0 0 0)
(0 0 0)
(0 0 0)
(0 0 0)
(0 0 0)
(0 0 0)
(0 0 0)
(0 0 0)
(0 0 0)
(0 0 0)
(0 0 0)
(0 0 0)
(0 0 0)
(0 0 0)
(0 0 0)
(0 0 0)
(0 0 0)
(0 0 0)
)
;
    }
    procBoundary3to2
    {
        type            processor;
        value           nonuniform List<vector> 
192
(
(0.000195916 -0.000490528 0.000139126)
(0.000104385 -0.000292734 0.000127058)
(-7.89653e-05 2.08051e-06 8.77371e-05)
(2.42287e-05 -9.84448e-05 8.03989e-05)
(5.01811e-05 -3.40004e-05 0.000435668)
(4.35194e-05 -4.69607e-05 0.000321)
(-1.74873e-06 -9.82672e-05 0.000245163)
(-7.14432e-05 -8.93775e-05 0.000232564)
(-5.68595e-05 -0.000129012 0.000721025)
(-0.000134822 -7.22359e-05 0.000458569)
(-1.23715e-05 -9.74848e-05 0.000413406)
(-0.000147373 -6.99837e-05 0.000403439)
(1.61447e-05 -0.00024634 0.000841163)
(7.05562e-05 -0.000416204 0.000545786)
(-0.00020546 -0.000290619 0.000593915)
(-0.000130078 -0.000190118 0.000526331)
(0.00016338 -0.00017402 0.000611419)
(1.28023e-07 -0.000311588 0.000653631)
(-5.83558e-05 -0.000186927 0.000647609)
(-1.37627e-05 -9.81109e-05 0.000579229)
(4.24538e-05 -0.000119491 0.0005137)
(1.05714e-05 -8.54677e-05 0.000650189)
(-4.49472e-05 -5.90167e-05 0.000670867)
(-4.7166e-05 -1.58418e-06 0.000663852)
(0.000187862 2.98345e-05 0.000445216)
(-6.51247e-05 -3.30961e-05 0.000682717)
(-0.000780371 0.000870148 0.000614664)
(0.000335429 0.000266418 0.00066046)
(0 0 0)
(0 0 0)
(0 0 0)
(0 0 0)
(0 0 0)
(0 0 0)
(0 0 0)
(0 0 0)
(0 0 0)
(0 0 0)
(0 0 0)
(0 0 0)
(0 0 0)
(0 0 0)
(0 0 0)
(0 0 0)
(0 0 0)
(0 0 0)
(0 0 0)
(0 0 0)
(0 0 0)
(0 0 0)
(0 0 0)
(0 0 0)
(0 0 0)
(0 0 0)
(0 0 0)
(0 0 0)
(0 0 0)
(0 0 0)
(0 0 0)
(0 0 0)
(0 0 0)
(0 0 0)
(0 0 0)
(0 0 0)
(0 0 0)
(0 0 0)
(0 0 0)
(0 0 0)
(0 0 0)
(0 0 0)
(0 0 0)
(0 0 0)
(0 0 0)
(0 0 0)
(0 0 0)
(0 0 0)
(0 0 0)
(0 0 0)
(0 0 0)
(0 0 0)
(0 0 0)
(0 0 0)
(0 0 0)
(0 0 0)
(0 0 0)
(0 0 0)
(0 0 0)
(0 0 0)
(0 0 0)
(0 0 0)
(0 0 0)
(0 0 0)
(0 0 0)
(0 0 0)
(0 0 0)
(0 0 0)
(8.22994e-07 -3.71804e-05 7.08678e-05)
(-0.000103157 -0.000237786 0.000128578)
(-5.49099e-05 -0.000202638 6.64936e-05)
(1.92248e-05 -9.84055e-05 3.55128e-05)
(-8.00405e-05 -0.000137861 0.000267851)
(1.97401e-05 -0.000150255 0.000292358)
(-0.000156414 -0.000118572 0.000198382)
(4.70841e-05 -4.74323e-05 9.28933e-05)
(-0.000177195 -0.000119993 0.000393586)
(-0.000147205 -0.000109029 0.00037463)
(-9.90599e-05 -3.60961e-06 0.000337125)
(-4.55128e-05 -6.01536e-06 0.000238003)
(-7.17372e-05 4.17299e-06 0.000511369)
(2.13701e-07 -6.59027e-05 0.000527802)
(-7.45662e-05 -0.000150509 0.000389799)
(-0.000118149 -6.95192e-05 0.000314823)
(-7.51842e-05 -1.79767e-06 0.000593339)
(-9.34348e-05 -7.71564e-05 0.000574356)
(-0.000107675 -0.00013392 0.000467595)
(2.0977e-05 -5.21308e-05 0.000382346)
(-0.000115881 3.52261e-05 0.000527106)
(-0.000140639 5.8002e-05 0.000593843)
(-8.69259e-05 2.34877e-05 0.00036855)
(-0.000132367 -7.86107e-05 0.000348541)
(-0.000247233 -0.000155907 0.000572324)
(0.00207391 0.000187321 -0.000199681)
(0.000240513 2.75817e-05 0.000374758)
(0.000277293 0.000120567 0.000319308)
(0 0 0)
(0 0 0)
(0 0 0)
(0 0 0)
(0 0 0)
(0 0 0)
(0 0 0)
(0 0 0)
(0 0 0)
(0 0 0)
(0 0 0)
(0 0 0)
(0 0 0)
(0 0 0)
(0 0 0)
(0 0 0)
(0 0 0)
(0 0 0)
(0 0 0)
(0 0 0)
(0 0 0)
(0 0 0)
(0 0 0)
(0 0 0)
(0 0 0)
(0 0 0)
(0 0 0)
(0 0 0)
(0 0 0)
(0 0 0)
(0 0 0)
(0 0 0)
(0 0 0)
(0 0 0)
(0 0 0)
(0 0 0)
(0 0 0)
(0 0 0)
(0 0 0)
(0 0 0)
(0 0 0)
(0 0 0)
(0 0 0)
(0 0 0)
(0 0 0)
(0 0 0)
(0 0 0)
(0 0 0)
(0 0 0)
(0 0 0)
(0 0 0)
(0 0 0)
(0 0 0)
(0 0 0)
(0 0 0)
(0 0 0)
(0 0 0)
(0 0 0)
(0 0 0)
(0 0 0)
(0 0 0)
(0 0 0)
(0 0 0)
(0 0 0)
(0 0 0)
(0 0 0)
(0 0 0)
(0 0 0)
)
;
    }
}


// ************************************************************************* //
