FoamFile
{version 2.0; format ascii;class Cloud<passiveParticle>; location 0;object  positions;}
2525
(
( 0.011624 -0.00456598 0.0046778 ) 0 
( 0.00178379 -0.0132301 0.00356644 ) 0 
( 0.0048303 -0.00857523 0.00161708 ) 0 
( 0.00967089 -0.0011607 0.00647978 ) 0 
( 0.00452449 -0.00405614 0.00599694 ) 0 
( 0.00520311 -0.00421948 0.000707512 ) 0 
( 0.00817387 -0.00252229 0.00410246 ) 0 
( 0.00183814 -0.0122347 0.00199349 ) 0 
( 0.00992862 -0.00110273 0.00259501 ) 0 
( 0.0118971 -0.00194081 0.000499784 ) 0 
( 0.00167341 -0.00679461 0.00147846 ) 0 
( 0.0108954 -0.00582581 0.00409284 ) 0 
( 6.56742e-05 -0.0123618 0.00479363 ) 0 
( 0.00708901 -0.00893082 0.00221817 ) 0 
( 0.000557642 -0.00733379 0.00218742 ) 0 
( 0.00638265 -0.00371733 0.00645847 ) 0 
( 0.00989206 -0.00549446 0.00453068 ) 0 
( 0.00447779 -0.0095844 0.00666586 ) 0 
( 0.0016486 -0.00482206 0.00221004 ) 0 
( 0.00759725 -0.00398144 0.0058316 ) 0 
( 0.00835726 -0.0041241 0.00424426 ) 0 
( 0.0059309 -0.000591464 0.0037946 ) 0 
( 0.00147164 -0.0075509 0.00779422 ) 0 
( 0.0123471 -0.00371332 0.00536048 ) 0 
( 0.00901055 -0.00462165 0.00101914 ) 0 
( 0.00957213 -0.00488471 0.00288359 ) 0 
( 0.00309038 -0.00149322 0.00218514 ) 0 
( 0.0078174 -0.00650925 0.00341725 ) 0 
( 0.001832 -0.0060873 0.00769932 ) 0 
( 0.00609113 -0.00461751 0.00678182 ) 0 
( 0.0028485 -0.00181543 0.000499686 ) 0 
( 0.00761395 -0.00141683 0.00123972 ) 0 
( 0.00979521 -0.00291134 0.000499729 ) 0 
( 0.00705475 -0.00196452 0.000499646 ) 0 
( 0.00249728 -0.00995106 0.00675284 ) 0 
( 0.00955153 -0.00695965 0.00645526 ) 0 
( 0.000218342 -0.0117962 0.00140514 ) 0 
( 0.00275024 -0.0114926 0.00162898 ) 0 
( 0.00331296 -0.00202585 0.00136878 ) 0 
( 0.00928755 -0.00262821 0.00515836 ) 0 
( 0.00175711 -0.00929395 0.00661145 ) 0 
( 0.0110319 -0.00240372 0.00493466 ) 0 
( 0.00254938 -0.00848132 0.000499859 ) 0 
( 0.00660479 -0.00104555 0.00610493 ) 0 
( 0.0075841 -0.00389531 0.00483562 ) 0 
( 0.00382768 -0.00864363 0.00141884 ) 0 
( 0.00130879 -0.000262354 0.00581068 ) 0 
( 0.00456269 -0.00745175 0.000499714 ) 0 
( 0.0062159 -0.010229 0.00176736 ) 0 
( 0.0120044 -0.00398325 0.000499685 ) 0 
( 0.00286396 -0.0024073 0.00601752 ) 0 
( 0.00547118 -0.00172603 0.000860725 ) 0 
( 0.00438526 -0.00570713 0.001099 ) 0 
( 0.00107992 -0.0123005 0.00134505 ) 0 
( 0.0101926 -0.000133842 0.001394 ) 0 
( 0.0028951 -0.00900514 0.0013811 ) 0 
( 0.010347 -0.00714983 0.00179849 ) 0 
( 0.00905437 -0.00576317 0.00690381 ) 0 
( 0.0129809 -0.00307394 0.00276104 ) 0 
( 0.00251272 -0.00449014 0.00183192 ) 0 
( 0.00680872 -0.00639969 0.00755511 ) 0 
( 0.0083377 -0.00486539 0.00257495 ) 0 
( 0.00111361 -0.00272388 0.00687865 ) 0 
( 0.00854901 -0.00696504 0.00125741 ) 0 
( 0.0103076 -0.00848389 0.00358592 ) 0 
( 0.00226494 -0.00722347 0.00503977 ) 0 
( 0.0045483 -0.0125517 0.00502707 ) 0 
( 0.00678119 -0.00452953 0.00603297 ) 0 
( 0.00907987 -0.00169316 0.00315823 ) 0 
( 0.00650496 -0.00375612 0.00124857 ) 0 
( 0.00932382 -4.95012e-05 0.00223612 ) 0 
( 0.00392401 -0.00860966 0.0031331 ) 0 
( 0.012125 -0.00552289 0.00595409 ) 0 
( 0.00452419 -0.00642616 0.0027872 ) 0 
( 0.00321454 -0.000356989 0.00593452 ) 0 
( 0.00364516 -0.00583252 0.00368113 ) 0 
( 0.00517287 -0.0082773 0.00736477 ) 0 
( 0.00912232 -0.00974676 0.00530833 ) 0 
( 0.00666247 -0.00369494 0.00439764 ) 0 
( 0.00420275 -0.00391792 0.00479214 ) 0 
( 0.0032094 -0.0109463 0.00660559 ) 0 
( 0.00368084 -0.00608655 0.000499607 ) 0 
( 0.00455714 -0.00749052 0.00571601 ) 0 
( 0.011535 -0.00174566 0.00665815 ) 0 
( 0.00588644 -0.00351978 0.000499603 ) 0 
( 0.0103848 -0.00515467 0.00355578 ) 0 
( 0.00623327 -0.00241801 0.00304991 ) 0 
( 0.00528688 -0.00222834 0.00278872 ) 0 
( 0.0128782 -0.00277782 0.0014237 ) 0 
( 0.00519947 -0.000889441 0.00133854 ) 0 
( 0.00166596 -0.00097005 0.00409812 ) 0 
( 0.00880648 -0.00156988 0.0010623 ) 0 
( 0.00514859 -0.0116784 0.00283117 ) 0 
( 0.00100016 -0.00677548 0.00821344 ) 0 
( 0.0031967 -0.000654552 0.00165122 ) 0 
( 0.0118913 -0.00432692 0.00690381 ) 0 
( 0.00305735 -0.00802578 0.00126187 ) 0 
( 0.00222979 -0.00733303 0.00211129 ) 0 
( 0.00771715 -0.00642313 0.00112991 ) 0 
( 0.00239261 -0.0111329 0.00516455 ) 0 
( 0.00162929 -0.00472012 0.00838735 ) 0 
( 0.00859077 -0.00808011 0.0070667 ) 0 
( 0.0046435 -0.0125165 0.00722274 ) 0 
( 0.00728918 -0.00144582 0.0036041 ) 0 
( 0.00809229 -0.00299028 0.000499729 ) 0 
( 0.00195163 -0.00470334 0.00346157 ) 0 
( 0.00174189 -0.00559654 0.00683316 ) 0 
( 0.00298773 -0.00502242 0.0069601 ) 0 
( 0.00358187 -0.00705139 0.000742353 ) 0 
( 0.00708879 -0.00455599 0.00145801 ) 0 
( 0.00656475 -0.00842424 0.00105762 ) 0 
( 0.00119013 -0.0031374 0.00596317 ) 0 
( 0.00455647 -0.0115744 0.00363236 ) 0 
( 0.00738479 -0.00327719 0.00174233 ) 0 
( 0.00793068 -0.000156225 0.00453423 ) 0 
( 0.0107991 -0.00213693 0.00395627 ) 0 
( 0.00690863 -0.00685918 0.00539843 ) 0 
( 0.00819986 -0.0101251 0.00380881 ) 0 
( 0.00964025 -0.000322709 0.00712929 ) 0 
( 0.00781165 -0.00835114 0.00276376 ) 0 
( 0.00566475 -0.00437098 0.00308601 ) 0 
( 0.0111117 -9.71443e-05 0.00293242 ) 0 
( 0.000446564 -0.0121925 0.00775655 ) 0 
( 0.00197989 -0.00279207 0.00278428 ) 0 
( 0.00725936 -0.011204 0.00689989 ) 0 
( 0.00709381 -0.00484129 0.000499794 ) 0 
( 0.00389785 -0.00280193 0.00311849 ) 0 
( 0.00229195 -0.0112901 0.00680543 ) 0 
( 0.00749625 -0.0105487 0.00595008 ) 0 
( 0.00408898 -0.010006 0.00553326 ) 0 
( 0.00601515 -0.00878921 0.00719551 ) 0 
( 0.0068598 -0.0103671 0.0009625 ) 0 
( 0.00577713 -0.00968446 0.00546792 ) 0 
( 0.000658022 -0.00760533 0.00356125 ) 0 
( 0.00169282 -0.00909873 0.000499512 ) 0 
( 0.0116689 -0.00438087 0.00135354 ) 0 
( 0.0109275 -0.000936297 0.00551778 ) 0 
( 0.00166549 -0.00842981 0.00474917 ) 0 
( 0.00802007 -0.00277334 0.00684266 ) 0 
( 0.00955674 -0.00932147 0.00610236 ) 0 
( 0.00451621 -0.00812909 0.0048254 ) 0 
( 0.0104774 -0.00418968 0.0011242 ) 0 
( 0.00255214 -0.00657312 0.00433658 ) 0 
( 0.00548854 -0.00858213 0.00377808 ) 0 
( 8.6739e-05 -0.00956212 0.0012912 ) 0 
( 0.00524163 -0.012278 0.00127431 ) 0 
( 0.00319737 -0.0011614 0.00358232 ) 0 
( 0.0121139 -0.00561062 0.00131269 ) 0 
( 0.0101174 -0.00370835 0.00370653 ) 0 
( 0.00901592 -0.00984606 0.00431864 ) 0 
( 0.00561395 -0.00799061 0.00647503 ) 0 
( 0.000451116 -0.00328324 0.00148711 ) 0 
( 0.000462324 -0.00420776 0.00464148 ) 0 
( 0.00629261 -0.00206045 0.00716185 ) 0 
( 0.00955784 -0.00381232 0.00123224 ) 0 
( 0.00738759 -0.00508122 0.0042923 ) 0 
( 0.009865 -0.00899068 0.00521038 ) 0 
( 0.0108036 -0.00122216 0.00306401 ) 0 
( 0.0122214 -0.00186713 0.00441285 ) 0 
( 0.00301545 -0.0114575 0.000499864 ) 0 
( 0.00978052 -0.00543825 0.00115673 ) 0 
( 0.0112583 -0.00261853 0.00718829 ) 0 
( 0.00741281 -0.00414231 0.00388212 ) 0 
( 0.0100686 -0.00565372 0.00562198 ) 0 
( 0.000921904 -0.00355441 0.00403639 ) 0 
( 0.0108348 -0.00112481 0.00186413 ) 0 
( 0.00147326 -0.00743962 0.00300644 ) 0 
( 0.00656069 -0.00603561 0.00665743 ) 0 
( 0.00265513 -0.0130561 0.000499832 ) 0 
( 0.00486378 -0.0114815 0.00470821 ) 0 
( 0.00474595 -0.00135869 0.00209645 ) 0 
( 0.00484571 -0.00303735 0.00207732 ) 0 
( 0.00831813 -0.000864954 0.00516201 ) 0 
( 0.010223 -0.00710464 0.00718202 ) 0 
( 0.0111082 -0.00569402 0.00312457 ) 0 
( 0.00164957 -0.000125342 0.00356325 ) 0 
( 0.00055985 -0.0110016 0.00674331 ) 0 
( 0.010073 -0.00646015 0.00434432 ) 0 
( 0.00522607 -0.00586242 0.00322266 ) 0 
( 8.09204e-05 -0.0117433 0.00276825 ) 0 
( 0.00227902 -0.0010269 0.00834099 ) 0 
( 0.00704328 -0.00594042 0.00369429 ) 0 
( 0.00141111 -0.010214 0.00642049 ) 0 
( 0.0106779 -0.000492665 0.00374198 ) 0 
( 0.0110013 -0.000597507 0.00103118 ) 0 
( 0.000808506 -0.00980664 0.00536946 ) 0 
( 0.00141522 -0.00439305 0.00429221 ) 0 
( 0.0114551 -0.0044312 0.00300705 ) 0 
( 0.00486086 -0.00940946 0.00575903 ) 0 
( 0.00902781 -0.00547579 0.000499745 ) 0 
( 0.00392535 -0.0117132 0.00760573 ) 0 
( 0.00127147 -0.000937402 0.00311887 ) 0 
( 0.00014371 -0.0133493 0.00306167 ) 0 
( 0.00188451 -0.0038724 0.00597177 ) 0 
( 0.00658736 -0.00689667 0.00260235 ) 0 
( 0.00304264 -0.0119369 0.00663662 ) 0 
( 0.0104363 -0.00832516 0.00122393 ) 0 
( 0.00356547 -0.00910057 0.00400946 ) 0 
( 0.00154584 -0.0132606 0.00683898 ) 0 
( 0.0125083 -0.00466491 0.00312781 ) 0 
( 0.00990985 -0.00205012 0.00686901 ) 0 
( 0.0115387 -0.00290094 0.00261245 ) 0 
( 0.00658623 -0.00580604 0.00209162 ) 0 
( 0.00521666 -0.0100749 0.0015429 ) 0 
( 0.00475002 -0.00651756 0.00750732 ) 0 
( 0.00259192 -0.00220236 0.00695779 ) 0 
( 0.0124607 -0.00156613 0.00533654 ) 0 
( 0.00107533 -0.0038597 0.00201417 ) 0 
( 0.00115204 -0.0118068 0.00676458 ) 0 
( 0.00924331 -0.000710905 0.00563718 ) 0 
( 0.0092401 -0.00951177 0.00049985 ) 0 
( 0.0100834 -0.00234419 0.00462406 ) 0 
( 0.00916503 -0.000651578 0.00464211 ) 0 
( 0.00463617 -0.00117785 0.00568927 ) 0 
( 0.00339332 -0.00554129 0.00771207 ) 0 
( 0.00825171 -0.00184382 0.0020165 ) 0 
( 0.00251205 -0.00630194 0.00124654 ) 0 
( 0.00321217 -0.0074127 0.00478119 ) 0 
( 0.0047241 -0.0111884 0.006206 ) 0 
( 0.00510898 -0.00679486 0.00378665 ) 0 
( 0.000432198 -0.00296906 0.00764757 ) 0 
( 0.00330586 -0.00171438 0.00874712 ) 0 
( 0.0084579 -0.00719058 0.00306338 ) 0 
( 0.00229009 -0.00832861 0.00218432 ) 0 
( 0.000349496 -0.00178319 0.00571668 ) 0 
( 0.000451119 -0.00454948 0.00781801 ) 0 
( 0.00593373 -0.0102259 0.00383339 ) 0 
( 0.000221642 -0.00303697 0.00354401 ) 0 
( 0.00409775 -0.00055119 0.00123054 ) 0 
( 0.00140963 -0.00859953 0.00306862 ) 0 
( 0.00930633 -0.00774233 0.00285991 ) 0 
( 0.004323 -0.0105698 0.00342363 ) 0 
( 0.00801546 -0.00891658 0.00695497 ) 0 
( 0.00110106 -0.00584858 0.00524854 ) 0 
( 0.00597033 -0.0119398 0.00589268 ) 0 
( 0.000271749 -0.00841908 0.00129386 ) 0 
( 0.00805854 -0.00192121 0.000499671 ) 0 
( 0.0111745 -0.00454101 0.000499608 ) 0 
( 0.00574762 -0.012049 0.00354122 ) 0 
( 0.00316141 -0.0079885 0.00713939 ) 0 
( 0.001439 -0.00118439 0.00782287 ) 0 
( 0.0109649 -0.00590686 0.00598556 ) 0 
( 0.00199555 -0.000178315 0.00465051 ) 0 
( 0.004216 -0.0126666 0.00370875 ) 0 
( 0.00954053 -0.00236345 0.00129758 ) 0 
( 0.0120583 -0.00347454 0.00151655 ) 0 
( 0.00568308 -0.0109888 0.00139515 ) 0 
( 0.0100194 -0.0075884 0.00583433 ) 0 
( 0.0101035 -0.00017617 0.00298715 ) 0 
( 0.00262713 -0.00224164 0.00488476 ) 0 
( 0.00476663 -0.00651239 0.0056344 ) 0 
( 0.00559951 -0.00107877 0.00593764 ) 0 
( 0.00834787 -0.0104183 0.00479517 ) 0 
( 0.00132616 -0.00458947 0.00531085 ) 0 
( 0.00383407 -0.00939868 0.00207439 ) 0 
( 0.0108805 -0.0043795 0.00697681 ) 0 
( 0.00163146 -0.00651617 0.00472639 ) 0 
( 0.00795624 -0.00135499 0.00699613 ) 0 
( 0.00631904 -0.0117601 0.00139917 ) 0 
( 0.000818396 -0.00941053 0.00628751 ) 0 
( 0.00751314 -0.00171172 0.00539035 ) 0 
( 0.010764 -0.00314031 0.00421557 ) 0 
( 0.0029749 -0.00256953 0.00213687 ) 0 
( 0.00274628 -0.00133131 0.00645281 ) 0 
( 0.0102239 -0.00504664 0.00662569 ) 0 
( 0.00909664 -0.00892523 0.00689685 ) 0 
( 0.000574584 -0.00914939 0.0046531 ) 0 
( 0.00498044 -0.00517188 0.000499814 ) 0 
( 0.00126332 -0.00396725 0.00778587 ) 0 
( 0.00585831 -0.010533 0.00478203 ) 0 
( 0.00200219 -0.00643049 0.00263494 ) 0 
( 0.00984705 -0.00435352 0.00478802 ) 0 
( 0.00596685 -0.000886719 0.00685834 ) 0 
( 0.000200863 -0.0058939 0.00481592 ) 0 
( 0.0035829 -0.00391653 0.00123092 ) 0 
( 0.00631468 -0.00756763 0.00491902 ) 0 
( 0.0103493 -0.00320101 0.00127979 ) 0 
( 0.000718903 -0.0127074 0.00674006 ) 0 
( 0.00103406 -0.00508005 0.00359261 ) 0 
( 0.00321479 -0.0127394 0.00600386 ) 0 
( 0.00609768 -0.00250274 0.000499875 ) 0 
( 0.00601809 -0.0070429 0.00412111 ) 0 
( 0.00777868 -0.00901558 0.00351027 ) 0 
( 0.0126914 -0.00414035 0.00452373 ) 0 
( 0.00186672 -0.00977959 0.00377225 ) 0 
( 0.00335899 -0.00339891 0.00609578 ) 0 
( 0.010001 -0.00336608 0.00482118 ) 0 
( 0.00833263 -0.00251675 0.00543276 ) 0 
( 0.00308029 -0.00370153 0.00831489 ) 0 
( 0.00264676 -0.00594504 0.00713786 ) 0 
( 0.00210868 -0.0108453 0.000499628 ) 0 
( 0.00669807 -0.00962717 0.00585738 ) 0 
( 0.00471526 -0.00703394 0.00471443 ) 0 
( 0.00697014 -0.00797987 0.00555143 ) 0 
( 0.0107819 -0.00401612 0.00489749 ) 0 
( 0.00428534 -0.00224159 0.00725798 ) 0 
( 0.0105585 -0.00676754 0.00629188 ) 0 
( 0.00448004 -0.00941453 0.00482835 ) 0 
( 0.00254862 -0.00328735 0.00550391 ) 0 
( 0.00421674 -0.00303472 0.0083063 ) 0 
( 0.00567723 -0.00338007 0.00295151 ) 0 
( 0.00012505 -0.00744325 0.00802028 ) 0 
( 0.00584095 -0.00940305 0.00642561 ) 0 
( 0.00270941 -0.0081656 0.00520609 ) 0 
( 0.0107405 -0.0064721 0.00261538 ) 0 
( 0.0016467 -0.00565395 0.00049981 ) 0 
( 0.00770465 -0.00608305 0.00550659 ) 0 
( 0.00955643 -0.00713765 0.00118674 ) 0 
( 0.00565276 -0.00282325 0.00378199 ) 0 
( 0.0088549 -0.00498925 0.0043134 ) 0 
( 0.00564235 -0.000125572 0.00623633 ) 0 
( 0.0124949 -0.00145603 0.00354295 ) 0 
( 0.00370405 -0.00801358 0.000499613 ) 0 
( 0.00391784 -0.0120371 0.00299119 ) 0 
( 0.00788153 -0.00981455 0.00291315 ) 0 
( 0.000889984 -0.00652281 0.00290008 ) 0 
( 0.00213989 -0.0104315 0.00447951 ) 0 
( 0.00693918 -0.00952607 0.00332365 ) 0 
( 0.0108559 -0.0077196 0.00637813 ) 0 
( 0.00350023 -0.0044663 0.00206198 ) 0 
( 0.00671352 -0.00782258 0.00190506 ) 0 
( 0.00136226 -0.00747858 0.00469324 ) 0 
( 0.0103192 -0.00618047 0.00155492 ) 0 
( 0.0107092 -0.00796497 0.00733604 ) 0 
( 0.00201146 -0.00626817 0.00565766 ) 0 
( 0.00082308 -0.00513945 0.00460069 ) 0 
( 0.0105792 -0.00320455 0.0029754 ) 0 
( 0.0107107 -0.00492265 0.00448155 ) 0 
( 4.04587e-05 -0.00943756 0.00385761 ) 0 
( 0.00422875 -0.00413474 0.000499606 ) 0 
( 0.0058503 -0.00800237 0.000499627 ) 0 
( 0.000301812 -0.0011148 0.00293486 ) 0 
( 0.00715951 -0.00722974 0.00450413 ) 0 
( 0.00127978 -0.00247532 0.00784059 ) 0 
( 0.00351137 -0.00218298 0.00788812 ) 0 
( 0.0067646 -3.78041e-05 0.00195539 ) 0 
( 0.0014606 -0.0126774 0.000499707 ) 0 
( 0.00140257 -0.00782966 0.00184899 ) 0 
( 0.00603525 -0.000846547 0.0080958 ) 0 
( 0.00484837 -0.0115319 0.000499607 ) 0 
( 0.00308308 -0.00696318 0.00283673 ) 0 
( 0.0131741 -0.00212515 0.00575881 ) 0 
( 0.0124844 -0.00289823 0.00592318 ) 0 
( 0.00760141 -0.00961455 0.00629089 ) 0 
( 0.00437839 -0.00146811 0.0047678 ) 0 
( 0.00251481 -0.00302071 0.000499669 ) 0 
( 0.0112874 -0.000302884 0.00451175 ) 0 
( 0.00552957 -0.00382178 0.00156933 ) 0 
( 0.000820331 -0.00581553 0.00720175 ) 0 
( 0.00509084 -0.0028309 0.00731292 ) 0 
( 0.00833613 -2.80816e-05 0.00269827 ) 0 
( 0.0112199 -0.00618021 0.00112099 ) 0 
( 0.00674262 -0.00333038 0.00761357 ) 0 
( 0.00225319 -0.00518142 0.00765781 ) 0 
( 4.41237e-05 -0.00796733 0.00285985 ) 0 
( 0.00788597 -0.0101855 0.00126448 ) 0 
( 0.00541916 -0.00112349 0.00312018 ) 0 
( 0.0077416 -0.00330578 0.00764182 ) 0 
( 0.00389643 -0.00608472 0.00587921 ) 0 
( 0.00411402 -0.00269405 0.0012757 ) 0 
( 0.00280611 -0.0130284 0.00513672 ) 0 
( 0.00775081 -0.00639997 0.00714995 ) 0 
( 0.00649286 -0.00975552 0.00477321 ) 0 
( 0.00335653 -0.00340246 0.00492624 ) 0 
( 0.0088617 -0.00516548 0.00768234 ) 0 
( 0.00246165 -0.00785302 0.00428829 ) 0 
( 0.00679453 -0.00657295 0.00148484 ) 0 
( 0.00209183 -0.00354569 0.00815493 ) 0 
( 0.00746377 -0.00560921 0.00165484 ) 0 
( 0.0100024 -0.0060346 0.00673835 ) 0 
( 0.00439433 -0.00191524 0.00631938 ) 0 
( 0.00682335 -0.00430059 0.00738449 ) 0 
( 0.00590089 -0.00556255 0.000499661 ) 0 
( 0.0118994 -0.00089454 0.000499692 ) 0 
( 0.00274017 -0.0130659 0.00685214 ) 0 
( 0.0033262 -0.00977169 0.00613536 ) 0 
( 0.00885039 -0.00324328 0.0071688 ) 0 
( 0.00139578 -0.00768454 0.000499743 ) 0 
( 0.00739587 -0.0111141 0.00513098 ) 0 
( 0.00155 -0.000465747 0.00713663 ) 0 
( 0.00352144 -0.00264822 0.00675737 ) 0 
( 0.000744827 -0.00441607 0.00686049 ) 0 
( 0.0036797 -0.00443154 0.00561585 ) 0 
( 0.00387038 -0.00509452 0.000499707 ) 0 
( 0.00111436 -0.013299 0.00282687 ) 0 
( 0.00910306 -0.0070964 0.00207931 ) 0 
( 0.00446616 -0.0114145 0.00141595 ) 0 
( 0.000871934 -0.00420242 0.000499747 ) 0 
( 0.00387997 -0.00835567 0.00640009 ) 0 
( 0.00456509 -0.00366202 0.00131379 ) 0 
( 0.00606541 -0.00848656 0.00461271 ) 0 
( 0.00672348 -0.000439563 0.00749565 ) 0 
( 0.01123 -0.00355192 0.00096187 ) 0 
( 0.00557682 -0.0110374 0.00570561 ) 0 
( 0.00526778 -0.00299034 0.00107958 ) 0 
( 0.00616054 -0.0044824 0.000499762 ) 0 
( 0.00752649 -0.00290919 0.00499044 ) 0 
( 0.00425845 -0.00600989 0.00493511 ) 0 
( 0.00346774 -0.000219068 0.00334944 ) 0 
( 0.010304 -0.00729966 0.00484079 ) 0 
( 0.00605159 -0.00780023 0.00735349 ) 0 
( 0.00838457 -0.00569286 0.00127474 ) 0 
( 0.00444863 -0.00943827 0.00128662 ) 0 
( 0.0133111 -0.000994471 0.0031953 ) 0 
( 0.0128272 -0.00369672 0.00352961 ) 0 
( 0.00153505 -0.00216255 0.00616701 ) 0 
( 0.00678274 -0.00888976 0.00518104 ) 0 
( 0.00200364 -0.0106264 0.00324226 ) 0 
( 0.0100244 -0.00271288 0.00369558 ) 0 
( 0.00502541 -0.00976421 0.00361653 ) 0 
( 0.011236 -0.00557262 0.00191485 ) 0 
( 0.00195677 -0.00429039 0.000499579 ) 0 
( 0.0022728 -0.0131551 0.00597283 ) 0 
( 0.00400728 -0.000818075 0.00410447 ) 0 
( 0.000867949 -0.00853376 0.000499724 ) 0 
( 0.00992209 -0.00663927 0.00553154 ) 0 
( 0.00343269 -0.0100007 0.00710246 ) 0 
( 0.000725824 -0.0107539 0.00480709 ) 0 
( 0.000420803 -0.00207099 0.00718353 ) 0 
( 0.00664665 -0.000608188 0.00309667 ) 0 
( 0.00581718 -0.012016 0.000499827 ) 0 
( 0.00251702 -0.0121691 0.00470365 ) 0 
( 0.00222328 -0.00506788 0.00106883 ) 0 
( 0.00157799 -0.0111778 0.00611455 ) 0 
( 0.00560089 -0.00667434 0.00616115 ) 0 
( 0.00116098 -0.00562617 0.00255001 ) 0 
( 0.00406572 -0.0104628 0.00642451 ) 0 
( 0.00728855 -0.00822381 0.00463251 ) 0 
( 0.0065575 -8.0145e-05 0.00583632 ) 0 
( 0.00575417 -0.00986992 0.00291639 ) 0 
( 0.000844664 -0.000402189 0.00800768 ) 0 
( 0.00638558 -0.0116949 0.00679877 ) 0 
( 0.00388937 -0.0119008 0.000699295 ) 0 
( 0.012275 -0.00280347 0.00341608 ) 0 
( 0.0100209 -0.00395463 0.00669214 ) 0 
( 0.0116046 -0.00357617 0.00453732 ) 0 
( 0.00370472 -0.00634117 0.00146606 ) 0 
( 0.00179167 -0.00964745 0.00567702 ) 0 
( 0.00732532 -0.00365039 0.00680058 ) 0 
( 0.00636904 -0.00175631 0.00540438 ) 0 
( 0.00485232 -0.0105018 0.00426917 ) 0 
( 0.00278879 -0.00971205 0.00422451 ) 0 
( 0.0104519 -0.00691129 0.000803964 ) 0 
( 0.00400927 -5.25611e-06 0.00206439 ) 0 
( 0.00142333 -0.00368215 0.0068401 ) 0 
( 0.00414152 -0.00479738 0.00728654 ) 0 
( 0.00169588 -0.000362976 0.00882425 ) 0 
( 0.00318861 -0.00212179 0.00330352 ) 0 
( 0.00316508 -0.00300864 0.00125903 ) 0 
( 0.00171481 -0.00881925 0.00750172 ) 0 
( 0.00193396 -0.00387026 0.00497268 ) 0 
( 0.00100743 -0.0111897 0.000499872 ) 0 
( 0.011381 -0.00501659 0.00639066 ) 0 
( 0.0117392 -0.000870909 0.0030314 ) 0 
( 0.000600952 -0.00323999 0.000499576 ) 0 
( 0.00636887 -0.011438 0.00512534 ) 0 
( 0.010728 -0.00612074 0.00503347 ) 0 
( 0.00167809 -0.0104357 0.00130362 ) 0 
( 0.0110119 -0.00144425 0.000499692 ) 0 
( 0.00401071 -0.00329632 0.00400063 ) 0 
( 0.0082376 -0.00098039 0.00298665 ) 0 
( 0.00684067 -0.00409841 0.00305766 ) 0 
( 0.00834573 -0.00356616 0.00127685 ) 0 
( 0.00848572 -0.00631597 0.000499597 ) 0 
( 0.00312575 -0.004889 0.00375834 ) 0 
( 0.00828026 -0.00774961 0.0061758 ) 0 
( 0.00156975 -0.00798763 0.00385046 ) 0 
( 0.0119982 -0.00259716 0.00510315 ) 0 
( 0.00957633 -0.00339182 0.00573532 ) 0 
( 0.00717768 -0.00921497 0.00428424 ) 0 
( 0.00675997 -0.00153497 0.0081086 ) 0 
( 0.00294203 -0.00311173 0.00324901 ) 0 
( 0.00105151 -0.00566962 0.00816361 ) 0 
( 0.00891066 -0.00734202 0.00394189 ) 0 
( 0.00479202 -0.0115069 0.00715212 ) 0 
( 0.00798401 -0.00543745 0.00728757 ) 0 
( 0.00585832 -0.010829 0.00265329 ) 0 
( 0.00503503 -0.0123392 0.00417988 ) 0 
( 0.00992129 -0.0046049 0.00749506 ) 0 
( 0.0106936 -0.00209829 0.00618663 ) 0 
( 0.00596919 -0.00841021 0.00561257 ) 0 
( 0.00717589 -0.00553655 0.00790131 ) 0 
( 0.00891666 -0.00417469 0.00190858 ) 0 
( 0.0037024 -0.00737198 0.00642565 ) 0 
( 0.00675622 -0.00455126 0.00490513 ) 0 
( 0.00828073 -0.00664858 0.00429259 ) 0 
( 0.00281637 -0.00333462 0.00693324 ) 0 
( 0.00749831 -0.00207867 0.00751209 ) 0 
( 0.0113989 -0.00369199 0.00630952 ) 0 
( 0.00291449 -0.0105128 0.00363893 ) 0 
( 1.14347e-06 -0.0114319 0.000499758 ) 0 
( 0.00950619 -0.00795334 0.00502571 ) 0 
( 0.00223068 -0.00542861 0.00283232 ) 0 
( 0.00205298 -0.0113913 0.00257565 ) 0 
( 0.0100672 -0.00069189 0.0050713 ) 0 
( 0.00120504 -0.0028009 0.00344321 ) 0 
( 0.000737096 -0.00820768 0.00435858 ) 0 
( 0.0112932 -0.00711959 0.00147707 ) 0 
( 0.0116921 -0.00644365 0.00209649 ) 0 
( 0.00747814 -0.00743818 0.00300234 ) 0 
( 0.0100386 -0.00174714 0.00343685 ) 0 
( 0.0106704 -0.00113775 0.00646247 ) 0 
( 0.00146527 -0.00834449 0.00649885 ) 0 
( 0.00767438 -0.000574837 0.00785857 ) 0 
( 0.00587465 -0.00835161 0.00177751 ) 0 
( 0.0116375 -0.00264526 0.00417179 ) 0 
( 0.0118936 -0.00590304 0.00400632 ) 0 
( 0.00770335 -0.0041423 0.00212953 ) 0 
( 0.000665118 -0.00191849 0.00166468 ) 0 
( 0.00166275 -0.00185332 0.00471678 ) 0 
( 0.0125379 -0.000123171 0.000558831 ) 0 
( 0.0031402 -0.00414674 0.00741752 ) 0 
( 0.000207759 -0.00118456 0.00116287 ) 0 
( 0.00500257 -0.0102783 0.00523208 ) 0 
( 0.00319257 -0.00937134 0.000499628 ) 0 
( 0.00852121 -0.000625041 0.00387751 ) 0 
( 0.00733234 -0.00305576 0.00402054 ) 0 
( 0.0102353 -0.00192494 0.0018674 ) 0 
( 0.00650317 -0.00326994 0.00350437 ) 0 
( 0.00994377 -0.00104807 0.00414531 ) 0 
( 0.0111816 -0.00367592 0.00195293 ) 0 
( 0.0116866 -0.0043996 0.00566467 ) 0 
( 0.00935764 -0.00518571 0.00614629 ) 0 
( 0.0062919 -0.00151011 0.00363528 ) 0 
( 0.00740158 -0.00626182 0.00457069 ) 0 
( 0.00737897 -0.00105752 0.00215166 ) 0 
( 0.00479794 -0.012456 0.00215324 ) 0 
( 0.0062954 -0.00736032 0.00112336 ) 0 
( 0.0002459 -0.0128532 0.00125311 ) 0 
( 0.00104174 -0.00927093 0.0012384 ) 0 
( 0.00888203 -0.00266119 0.00300455 ) 0 
( 0.00987859 -0.00469093 0.000499778 ) 0 
( 0.0103636 -0.00538514 0.00253268 ) 0 
( 0.00783905 -0.00918624 0.00541862 ) 0 
( 0.00326744 -0.00818102 0.00375376 ) 0 
( 0.00772068 -1.6115e-05 0.000499739 ) 0 
( 0.00383374 -0.0118468 0.00559293 ) 0 
( 0.00034097 -0.00266211 0.00619306 ) 0 
( 0.00504251 -0.00960426 0.000499624 ) 0 
( 0.0121568 -0.00375234 0.00278966 ) 0 
( 0.00735787 -0.00866845 0.00049987 ) 0 
( 0.00382941 -0.00256401 0.00580984 ) 0 
( 0.0114378 -0.00503457 0.00380429 ) 0 
( 0.000612716 -0.00987042 0.00208363 ) 0 
( 0.00404716 -0.0109339 0.000499707 ) 0 
( 0.00591011 -0.00288333 0.00674243 ) 0 
( 0.00738644 -0.000461901 0.00375324 ) 0 
( 0.00404257 -0.00521623 0.00436568 ) 0 
( 0.00619518 -0.00926766 0.00395269 ) 0 
( 0.0062324 -0.00740717 0.00590847 ) 0 
( 0.00479263 -0.00315345 0.00339349 ) 0 
( 0.0107619 -0.00221209 0.00292637 ) 0 
( 0.000853764 -0.00156221 0.000499749 ) 0 
( 0.00231066 -0.0100854 0.00218267 ) 0 
( 0.0094532 -0.00555203 0.003623 ) 0 
( 0.00227633 -0.0050993 0.00509371 ) 0 
( 0.00372903 -0.00113026 0.000499683 ) 0 
( 0.00490168 -0.00427749 0.0068973 ) 0 
( 0.00916619 -0.00550537 0.0052183 ) 0 
( 0.000748481 -0.00526702 0.00633598 ) 0 
( 0.00903647 -0.00732251 0.00567871 ) 0 
( 0.00178338 -0.0114269 0.00138288 ) 0 
( 0.00836069 -0.00635307 0.0020253 ) 0 
( 0.0122738 -0.00525174 0.00690496 ) 0 
( 0.000911931 -0.00147501 0.00653862 ) 0 
( 0.00421436 -0.0126674 0.00601927 ) 0 
( 0.00656004 -0.00265353 0.00500602 ) 0 
( 0.00583598 -0.00331582 0.00481348 ) 0 
( 0.0053641 -0.0018274 0.00383078 ) 0 
( 0.00356815 -0.0109763 0.00137616 ) 0 
( 0.00578327 -0.00639746 0.0021641 ) 0 
( 0.00510147 -0.0105838 0.000690095 ) 0 
( 0.00678038 -0.00948458 0.000499671 ) 0 
( 0.0109915 -0.00255501 0.00169196 ) 0 
( 0.00757936 -0.00247147 0.00118325 ) 0 
( 0.00486787 -0.00278045 0.00615521 ) 0 
( 0.00696183 -0.00132168 0.00709043 ) 0 
( 0.00593523 -0.00985688 0.000882754 ) 0 
( 0.00884014 -0.00429602 0.00322729 ) 0 
( 0.00990531 -0.00746461 0.00393664 ) 0 
( 0.00242583 -0.00441409 0.00429296 ) 0 
( 0.00868725 -0.00099262 0.00641865 ) 0 
( 0.00748629 -0.000434612 0.00137694 ) 0 
( 0.00567205 -0.00268205 0.00556928 ) 0 
( 0.00855978 -0.010242 0.00222907 ) 0 
( 0.00802356 -0.00196978 0.00621057 ) 0 
( 0.0115296 -0.00187306 0.00218731 ) 0 
( 0.00339049 -0.00536753 0.00540015 ) 0 
( 0.00999267 -0.00885282 0.000499765 ) 0 
( 0.0132377 -0.00173047 0.00715144 ) 0 
( 0.00404269 -0.0119625 0.00439741 ) 0 
( 0.00964412 -0.00789903 0.00182862 ) 0 
( 0.0111405 -0.00735576 0.00286235 ) 0 
( 0.0120406 -0.00575082 0.00498379 ) 0 
( 0.00525872 -0.00577823 0.00158004 ) 0 
( 0.000670331 -0.00676191 0.00459799 ) 0 
( 0.011182 -0.00519161 0.00532147 ) 0 
( 0.00410535 -0.00958471 0.00326093 ) 0 
( 0.00466373 -0.000304486 0.00693923 ) 0 
( 0.0132899 -0.000741312 0.00416465 ) 0 
( 0.0120876 -0.000632991 0.00393916 ) 0 
( 0.00210165 -0.00733426 0.00601995 ) 0 
( 0.00612157 -0.0103464 0.00624487 ) 0 
( 0.00362111 -0.0128495 0.00458567 ) 0 
( 0.00130099 -0.00898084 0.00398656 ) 0 
( 0.00814061 -0.00939347 0.00448792 ) 0 
( 0.0117031 -8.1325e-05 0.00547602 ) 0 
( 0.00721051 -0.005835 0.000499782 ) 0 
( 0.00477296 -0.0023437 0.000499587 ) 0 
( 0.00270354 -0.00427532 0.00546576 ) 0 
( 0.00617855 -0.00896473 0.00293691 ) 0 
( 0.00699284 -0.00771364 0.00049966 ) 0 
( 0.000267572 -0.00734382 0.00607089 ) 0 
( 0.00323724 -0.00152482 0.00560228 ) 0 
( 0.00169122 -0.00533366 0.00586995 ) 0 
( 0.00773348 -0.00478437 0.00641141 ) 0 
( 0.00432397 -0.000607392 0.00782938 ) 0 
( 0.00576655 -0.00269385 0.00189383 ) 0 
( 0.00117652 -0.00996906 0.00049987 ) 0 
( 0.00657674 -0.00124064 0.00457291 ) 0 
( 0.00167563 -0.00314222 0.00158693 ) 0 
( 0.00807749 -0.00468 0.00137404 ) 0 
( 0.010097 -0.00873301 0.00715021 ) 0 
( 0.00253236 -0.000377875 0.00666523 ) 0 
( 0.0105995 -0.00149849 0.00475871 ) 0 
( 0.00638266 -0.00532543 0.00323156 ) 0 
( 0.00239072 -0.00372379 0.00119961 ) 0 
( 0.0035963 -0.003268 0.00755775 ) 0 
( 0.00522035 -0.000926189 0.00752239 ) 0 
( 0.00887744 -0.00872457 0.00516672 ) 0 
( 0.00346931 -0.00945734 0.00497216 ) 0 
( 0.00457341 -5.51549e-05 0.00441669 ) 0 
( 0.00928936 -0.00160852 0.0019369 ) 0 
( 0.00615375 -0.0039887 0.00808209 ) 0 
( 0.00382795 -0.00107194 0.00626981 ) 0 
( 0.00153874 -0.00962876 0.00470999 ) 0 
( 0.0102344 -0.00613909 0.00341093 ) 0 
( 0.00166371 -0.00187688 0.00713758 ) 0 
( 0.00663011 -0.00270796 0.00139022 ) 0 
( 0.00577796 -0.00523673 0.00224095 ) 0 
( 0.00297177 -0.000361398 0.00496045 ) 0 
( 0.00465465 -0.0125126 0.000499652 ) 0 
( 0.0073915 -0.00639632 0.00226724 ) 0 
( 0.000207833 -0.00394574 0.00280858 ) 0 
( 0.00216678 -0.00759105 0.00112942 ) 0 
( 0.00891608 -0.00418375 0.00750178 ) 0 
( 0.00381402 -0.00759512 0.00315541 ) 0 
( 0.000103471 -0.00552989 0.00783765 ) 0 
( 0.00919543 -0.000700013 0.00314288 ) 0 
( 0.000422037 -0.00604235 0.000939896 ) 0 
( 0.00311996 -0.00375066 0.00401364 ) 0 
( 0.0115279 -0.00673288 0.00600756 ) 0 
( 0.00363681 -3.35559e-05 0.000499781 ) 0 
( 0.0046687 -0.00802094 0.00345227 ) 0 
( 3.7817e-05 -0.00535321 0.0039849 ) 0 
( 0.0107534 -0.00170582 0.00728066 ) 0 
( 0.010086 -0.00465797 0.00571008 ) 0 
( 0.00662702 -0.000247664 0.00446669 ) 0 
( 0.00470754 -0.00688988 0.0014001 ) 0 
( 0.00153094 -0.00664722 0.000499818 ) 0 
( 0.000406813 -0.0124821 0.00581755 ) 0 
( 0.00247709 -0.00316886 0.00451157 ) 0 
( 0.00478593 -0.00212477 0.00540464 ) 0 
( 0.00225517 -0.0017076 0.00564387 ) 0 
( 0.00486294 -0.00895668 0.00304967 ) 0 
( 0.00159001 -0.0105535 0.00530563 ) 0 
( 0.00463099 -0.00234683 0.00426957 ) 0 
( 0.00500862 -0.0052297 0.0046235 ) 0 
( 0.00192855 -0.00220712 0.000499748 ) 0 
( 0.000589853 -0.011599 0.00538623 ) 0 
( 0.00226222 -0.000891561 0.00326254 ) 0 
( 0.00358264 -0.0112434 0.00349871 ) 0 
( 0.0021367 -0.0131771 0.00764148 ) 0 
( 0.00205249 -0.00121056 0.000499693 ) 0 
( 0.00139509 -0.00448579 0.00130321 ) 0 
( 0.00355648 -0.00838277 0.00470551 ) 0 
( 0.00856104 -0.00320138 0.00472783 ) 0 
( 0.00261641 -0.00695818 0.000499617 ) 0 
( 0.000757343 -0.00857487 0.00215382 ) 0 
( 0.000608878 -0.00225437 0.00403131 ) 0 
( 0.00811742 -0.00192016 0.00330624 ) 0 
( 0.0012336 -0.00674412 0.0072411 ) 0 
( 0.0100564 -0.00878058 0.00205726 ) 0 
( 0.0133462 -0.000243007 0.00253646 ) 0 
( 0.0131165 -0.00246933 0.00398227 ) 0 
( 0.0055295 -0.0050847 0.0037732 ) 0 
( 0.00480013 -0.00991022 0.00261962 ) 0 
( 0.0100086 -0.00113276 0.00130093 ) 0 
( 0.0073603 -0.00207173 0.00446994 ) 0 
( 0.000690835 -0.00518581 0.0004997 ) 0 
( 0.00695215 -0.00302851 0.000499701 ) 0 
( 0.00333381 -0.0108159 0.00562219 ) 0 
( 0.00447676 -0.0078943 0.00225824 ) 0 
( 0.00452471 -0.00181596 0.00328758 ) 0 
( 0.00937157 -0.00950776 0.00213643 ) 0 
( 0.00489327 -0.00841543 0.00592751 ) 0 
( 0.00678932 -0.0092747 0.00678896 ) 0 
( 0.00458984 -0.00492956 0.00346875 ) 0 
( 0.00337516 -0.00661394 0.00698963 ) 0 
( 0.00294925 -0.00416874 0.000499671 ) 0 
( 0.00569855 -0.00372998 0.00723038 ) 0 
( 0.00139168 -0.0104718 0.00226091 ) 0 
( 0.00631782 -0.00699281 0.00681454 ) 0 
( 0.00272035 -0.000384204 0.0039929 ) 0 
( 0.0106633 -0.00304467 0.00650745 ) 0 
( 0.00594883 -0.00402254 0.00551171 ) 0 
( 0.00396676 -0.0109659 0.0043792 ) 0 
( 0.00558125 -0.0121188 0.00498923 ) 0 
( 0.00358049 -0.00610348 0.00271285 ) 0 
( 0.00608827 -0.00749309 0.00323095 ) 0 
( 0.000310449 -0.0111169 0.00397132 ) 0 
( 0.000132126 -0.00336721 0.00548969 ) 0 
( 0.0120226 -0.00497301 0.00207749 ) 0 
( 0.00246179 -0.012359 0.00122189 ) 0 
( 0.00580017 -0.0046187 0.00461575 ) 0 
( 0.00200578 -0.0118395 0.000499778 ) 0 
( 0.0118499 -0.000973029 0.00590395 ) 0 
( 0.00588791 -0.00198329 0.00625105 ) 0 
( 0.000737447 -0.0107035 0.00580564 ) 0 
( 0.00689292 -0.011433 0.00792343 ) 0 
( 0.00794053 -0.00758214 0.00398862 ) 0 
( 0.000814184 -0.00925172 0.00746353 ) 0 
( 0.0125395 -0.00124823 0.00256569 ) 0 
( 0.00221733 -0.00694417 0.00347035 ) 0 
( 0.00877068 -0.000744029 0.000499695 ) 0 
( 0.00762448 -0.00110694 0.00448336 ) 0 
( 0.00365388 -0.0119104 0.00172262 ) 0 
( 0.0034508 -0.00990695 0.00130331 ) 0 
( 0.00308473 -0.00884456 0.00262191 ) 0 
( 2.46674e-05 -0.0085598 0.00525832 ) 0 
( 0.00771865 -0.00558628 0.00304549 ) 0 
( 0.0014567 -0.0108763 0.00716801 ) 0 
( 0.00664123 -0.0105172 0.00540377 ) 0 
( 0.00390117 -0.00335481 0.00199534 ) 0 
( 0.00658457 -0.00788138 0.00400902 ) 0 