FoamFile
{version 2.0; format ascii;class vectorField; location 0;object  v;}
2525
(
( -0.000830771 0.00145149 0.0132696 )  
( -0.000890608 -0.000495297 0.0126563 )  
( -0.000869445 -0.000418252 -0.00108911 )  
( 0.000635081 5.09593e-05 0.0134655 )  
( 0.00215408 -0.000959427 0.0135768 )  
( 0.00100908 0.000111403 -0.00174164 )  
( 0.00117996 0.00240222 0.0148333 )  
( 0.000244844 0.00109915 0.000219209 )  
( -0.00167965 -0.00108528 0.0124932 )  
( -2.7257e-05 1.69167e-05 -2.51598e-05 )  
( 8.20281e-05 0.000454398 -2.22436e-05 )  
( -0.00325907 -0.00198053 0.0129823 )  
( 0.00645174 0.0010579 0.0195255 )  
( -0.00873531 0.00290604 -0.00340579 )  
( -0.00402892 -0.00130998 -0.00129454 )  
( 0.00208723 0.000247775 0.015097 )  
( -0.000686701 0.000405365 0.0150827 )  
( 0.00048567 -0.000668959 0.0138638 )  
( 0.00179097 -0.00699057 -0.00303317 )  
( 0.0021894 0.0040713 0.0145961 )  
( 0.000831695 0.00092177 0.0137549 )  
( 0.00284379 0.000781994 0.0161333 )  
( -2.10716e-08 0.00104402 0.0134972 )  
( 0.00443113 -0.00188683 0.0117389 )  
( 0.000288931 -8.79158e-06 -0.000134387 )  
( 0.00163313 0.00140393 0.0107072 )  
( 0.00113899 0.00182282 -0.000629256 )  
( -0.00105452 -0.000532093 0.0120465 )  
( 0.000595313 0.0016759 0.0137595 )  
( -0.000661682 0.00107588 0.0150349 )  
( 0.000143604 -9.5955e-05 -7.5335e-07 )  
( -0.000270788 -0.00046757 4.30107e-07 )  
( -2.16302e-05 2.506e-05 -3.74781e-05 )  
( -0.00010458 -0.000377541 -6.15388e-05 )  
( 0.000932959 0.00120364 0.0133706 )  
( -0.000899274 0.000777171 0.0131541 )  
( -5.1377e-05 0.00031059 7.73469e-06 )  
( -0.000829026 0.000547426 -0.000294554 )  
( -0.000101164 8.1688e-05 7.76588e-05 )  
( 0.00179508 -0.000238141 0.0135524 )  
( 0.00129071 0.00167016 0.01238 )  
( 0.00109855 0.000169179 0.013097 )  
( -0.000665334 0.00108419 -2.8838e-07 )  
( -3.07223e-05 0.00115476 0.0167854 )  
( 0.0015067 0.00181672 0.0143559 )  
( -0.000267333 -0.000209151 0.000129762 )  
( 0.000545772 0.000578057 0.0147581 )  
( -0.000314222 2.22149e-05 -5.41527e-06 )  
( -0.000196238 -0.000424342 -0.000372445 )  
( -4.36136e-05 -0.000120268 2.70525e-05 )  
( 0.00128782 0.00240004 0.0163871 )  
( 0.00127949 0.00202089 3.62428e-05 )  
( 2.13329e-05 2.06994e-05 -3.48961e-05 )  
( 0.000321141 3.73971e-05 0.000117185 )  
( -0.00172555 -0.00174949 -0.000845929 )  
( 0.000206137 -0.000383427 7.05805e-05 )  
( 1.45723e-05 -8.19545e-05 -0.000148079 )  
( 0.000702987 0.000178021 0.0133355 )  
( -0.000891596 8.15939e-06 0.0126405 )  
( -0.000621395 0.00170388 -0.00107644 )  
( -0.000187301 0.00200076 0.0144512 )  
( 0.00114478 0.00101727 0.0118498 )  
( 0.00111395 0.00124317 0.014447 )  
( -0.00199421 -0.000760847 -0.000325937 )  
( -0.00237724 -0.00283069 0.0167963 )  
( 0.00139737 -0.00038027 0.0132122 )  
( -0.000358325 -0.000169373 0.0115917 )  
( 0.00295295 0.00182115 0.0129433 )  
( 0.000752169 0.00106259 0.0127949 )  
( -0.000325727 -0.000439198 -0.000656089 )  
( 0.000526474 -0.000872646 -0.000267744 )  
( 0.00171212 -0.000833214 0.0154084 )  
( -0.00313629 0.00201066 0.0110883 )  
( 0.00269838 -0.00262568 0.0103707 )  
( 0.000266903 0.000406908 0.0151724 )  
( 0.000950225 0.000917333 0.0111021 )  
( 0.00165663 -0.00119261 0.0127127 )  
( 0.000689531 0.000581506 0.0131459 )  
( 0.001886 0.000332461 0.013036 )  
( 0.00111217 -2.29867e-05 0.014594 )  
( 0.000475502 0.001957 0.0112695 )  
( 9.4714e-05 -6.21624e-06 -3.85444e-05 )  
( -0.000174511 0.00341459 0.0152479 )  
( 3.27465e-05 -0.00222319 0.0136989 )  
( -0.000135966 0.00160148 -8.89689e-05 )  
( 0.000385403 0.00141838 0.0134357 )  
( 0.000869656 0.0010517 0.0143465 )  
( 0.00108694 0.000554642 0.0123899 )  
( -0.000400055 0.000266503 -0.000255903 )  
( -0.000621075 0.00166891 3.64649e-06 )  
( 0.000643981 0.000606688 0.0143457 )  
( -0.00014698 -0.000712727 0.000102169 )  
( 0.000559974 0.00187813 0.0122847 )  
( 0.000495031 0.00103057 0.0140491 )  
( 0.00172625 0.00030558 -0.00231271 )  
( -0.000529528 0.00040572 0.0122215 )  
( -0.000317189 -0.000234749 -9.69172e-05 )  
( -8.53427e-05 0.000294883 -0.000148955 )  
( -0.000182313 6.862e-05 -9.01422e-05 )  
( 0.00216127 0.000890878 0.0136294 )  
( 0.000155703 0.0010199 0.0145906 )  
( -0.00310049 0.00117993 0.0107285 )  
( 0.000325961 0.000382037 0.0102484 )  
( 0.00150116 0.00129613 0.0147449 )  
( -0.000362944 -0.00039524 -8.25886e-05 )  
( 0.00168934 0.00247968 0.0135118 )  
( 0.000363973 0.00156573 0.0135428 )  
( 0.00154294 0.000622909 0.0135786 )  
( 0.000269756 -2.48271e-05 -0.00010581 )  
( 1.52595e-05 0.000461466 0.000118291 )  
( 7.17815e-05 -0.000342066 -9.41637e-06 )  
( 0.00047824 0.00165559 0.0154416 )  
( -0.000615803 -0.000144482 0.0121937 )  
( -0.00142351 -5.23139e-05 0.000164852 )  
( 0.00112665 0.0010947 0.0134231 )  
( 0.000688611 0.00192017 0.013288 )  
( -0.000844921 0.000561093 0.0146057 )  
( 0.00320299 -0.00126101 0.0116226 )  
( 0.00143924 0.000749749 0.0134806 )  
( -0.00274438 -0.000436714 0.0156173 )  
( 0.00345483 0.000341607 0.0150047 )  
( -0.003494 0.00464595 0.0117788 )  
( -0.000753747 -0.00218227 0.0131568 )  
( 0.00168138 0.00100203 0.0136566 )  
( 0.00056614 0.000518904 0.0086665 )  
( 0.000244521 0.000645006 1.56443e-05 )  
( 0.00178152 0.00105101 0.0149687 )  
( 0.00120089 0.00141623 0.0128355 )  
( -0.000876997 -0.00132005 0.0117897 )  
( -0.00068964 -5.83194e-05 0.0122252 )  
( 0.00357015 1.43687e-05 0.0160753 )  
( -0.000323843 2.86757e-05 9.49602e-05 )  
( 0.000793571 0.00146498 0.0148926 )  
( -0.000179933 -0.0012464 0.0138043 )  
( 0.000132176 -6.58685e-05 4.55669e-06 )  
( -0.000148322 2.80656e-05 3.55769e-05 )  
( 0.000929598 0.000645893 0.0122178 )  
( -0.000387341 0.000678193 0.0142069 )  
( 0.00137269 0.00203785 0.0142731 )  
( 0.00104521 0.00161691 0.0128987 )  
( -0.00126215 0.00131259 0.0157323 )  
( -0.000226343 8.52133e-05 1.62762e-06 )  
( 0.00112598 -0.000165912 0.0135457 )  
( -0.000979007 0.000630683 0.0142575 )  
( 0.000246355 -0.000382917 -0.000232825 )  
( -0.000104661 4.73708e-06 -6.15928e-05 )  
( 0.00506167 0.00148734 0.0139774 )  
( -9.60666e-06 -5.78886e-05 -2.93825e-05 )  
( -6.492e-05 0.00171107 0.013196 )  
( 0.00139739 0.000521217 0.0105288 )  
( 0.000828894 0.00280357 0.0116767 )  
( -0.000195117 -0.000257919 -3.80103e-05 )  
( 0.00135725 0.00016519 0.016124 )  
( -4.62979e-05 0.000687391 0.0142466 )  
( -0.000143454 0.000375126 0.000118935 )  
( 0.00247521 0.00244637 0.0176382 )  
( 0.00063561 0.00282496 0.0130811 )  
( -0.000704194 0.00248829 0.011373 )  
( 0.00157533 0.000783006 0.00955581 )  
( 0.000741942 0.001801 -2.45947e-05 )  
( 7.45602e-05 -0.000162594 -2.96368e-05 )  
( 0.00112587 0.000564723 0.0137894 )  
( 0.000986298 0.000796404 0.0146248 )  
( 0.00104843 0.000146786 0.0134354 )  
( 0.000299678 0.000513968 0.0130288 )  
( 0.000102622 3.6312e-05 0.000238722 )  
( 0.00122127 -0.00402318 0.0151343 )  
( 0.000490383 0.00197869 0.014441 )  
( -0.00034026 0.00101972 3.48651e-05 )  
( -7.83333e-05 0.000915601 0.0119701 )  
( -4.96827e-05 0.000913476 0.000522913 )  
( -0.000214236 0.00131367 -0.00183541 )  
( -0.000642401 0.00088577 0.017308 )  
( -0.000664822 0.00145779 0.0138948 )  
( -0.00104434 -0.00109255 0.0135142 )  
( 0.00119248 0.0011763 0.0154965 )  
( 0.00228148 -0.000364369 0.0144015 )  
( -0.000310535 0.000844509 0.0114976 )  
( 7.98165e-05 -0.000438486 0.0121324 )  
( -0.00279532 -2.99589e-05 0.0129808 )  
( 0.000421336 0.000944133 0.0170353 )  
( 0.000511193 0.00168184 0.0137915 )  
( 0.00233384 0.00022036 0.0134341 )  
( -0.000776824 0.00153912 0.0117738 )  
( 0.000314597 -0.000357364 2.36908e-05 )  
( 0.00288992 -0.00135684 0.0138371 )  
( 0.00188748 0.00139551 0.0131709 )  
( -0.00127643 -0.00136889 0.0123102 )  
( -4.59598e-05 0.000329499 0.0139379 )  
( 8.67997e-05 -0.000115729 -3.34022e-05 )  
( 0.00182124 0.00174706 0.0140629 )  
( 0.0020462 0.00102735 0.014694 )  
( -0.000596978 -1.57647e-05 0.0139934 )  
( 0.000894042 0.00192909 0.0136051 )  
( 0.00331021 0.00117672 0.0125484 )  
( 0.00218787 -0.00042492 0.0117567 )  
( -6.96615e-06 2.54942e-05 -1.55953e-05 )  
( -0.0023484 0.000328079 0.0135662 )  
( 0.00106232 -0.000360402 0.00685489 )  
( -0.00157699 -0.00334352 0.0091134 )  
( -0.000410792 -0.000135738 0.0141372 )  
( -0.00238549 0.000626357 0.0120816 )  
( 0.000155227 0.000131318 -0.000338621 )  
( 4.38008e-05 -0.000728128 -1.82994e-05 )  
( 0.000609926 0.00109646 0.0149999 )  
( 0.00186958 0.0013671 0.0171671 )  
( 0.00132421 0.00125557 0.0109335 )  
( 0.00322115 0.00255122 -0.0010222 )  
( 0.00322665 0.00053152 0.0192355 )  
( 0.00183314 -0.000233418 0.014492 )  
( -0.000133416 0.000127269 -3.27957e-05 )  
( 0.00108985 0.000372502 0.0127823 )  
( -0.000152879 0.000962414 0.0148336 )  
( -7.00975e-05 0.00162628 0.0165422 )  
( 0.000561669 0.00103825 0.014527 )  
( -0.00113197 -0.000971663 -0.000579063 )  
( 0.000208503 0.000271174 0.000158648 )  
( 0.00157636 -0.000824775 0.0133136 )  
( 0.00151283 -0.00213014 0.0115225 )  
( 0.0006299 -0.000515058 0.0116217 )  
( 0.000795485 0.00102106 0.0153144 )  
( 0.000823001 0.000385562 0.0159692 )  
( -0.00066384 -0.000284465 0.0110026 )  
( 0.00312483 1.44899e-05 -0.00153952 )  
( -0.000567644 0.000723396 0.0141282 )  
( 0.00112228 0.000645352 0.0154314 )  
( -0.000788139 0.00139745 0.0107062 )  
( 0.000105744 0.0015796 0.0131578 )  
( 0.00214538 0.00139014 -0.00121463 )  
( -0.00159722 -0.00166359 0.0125403 )  
( -0.0018243 -0.00197409 0.00660008 )  
( -0.00375688 -0.0028032 0.0149771 )  
( 0.000729368 0.0011005 0.0111522 )  
( 0.000693736 0.00123694 0.0129603 )  
( 0.00186007 0.000502298 0.011131 )  
( 0.000571896 0.000198274 0.000272427 )  
( -0.000268836 -0.000516284 2.82635e-05 )  
( -0.000163362 1.96549e-05 4.00276e-05 )  
( 0.00045161 0.000751255 0.0120276 )  
( 0.000410218 0.00175766 0.0138083 )  
( 0.000907505 0.000449509 0.0164305 )  
( 0.00159158 0.000783527 0.0123176 )  
( 0.00231049 0.000132272 0.0143042 )  
( -0.00059314 -0.00020059 0.0141041 )  
( -1.70037e-05 0.000521124 -1.06568e-05 )  
( 0.000333106 -1.91845e-05 -0.000251349 )  
( -0.0005062 -0.000256763 -0.000275957 )  
( -0.000809876 -0.000452105 0.0144278 )  
( -0.00121981 0.00122776 0.0120185 )  
( 0.0012376 -0.00112584 0.0156386 )  
( 0.000295424 0.00121199 0.0145664 )  
( 0.000488689 0.00111267 0.0148187 )  
( -0.000617873 -0.000582463 0.00903941 )  
( 0.000525137 0.00350155 0.0152925 )  
( -0.000853431 -0.000658883 -0.000182506 )  
( 0.000451222 -0.000479637 0.0156944 )  
( 0.00134565 0.000332511 0.0149002 )  
( -0.000474382 0.000715138 0.0131302 )  
( -0.00023776 -0.000115657 -1.34903e-05 )  
( 0.000890734 0.000489401 0.013141 )  
( -0.00169162 0.000267909 0.0158355 )  
( -0.000391962 0.00170077 0.0136693 )  
( 0.000665957 -0.00122771 -0.000463308 )  
( 0.000435537 0.000106909 0.0143972 )  
( 0.00113088 -0.000225666 0.0157343 )  
( -0.00134365 0.00208204 0.0110391 )  
( 0.00141078 -0.001311 0.0145552 )  
( 0.000107652 5.39668e-05 -1.24935e-05 )  
( 0.000678539 0.00135193 0.0148654 )  
( -0.000926231 0.000731552 0.0107012 )  
( 0.00648555 -0.00147646 0.0129803 )  
( 0.00405891 -0.00231334 0.0151087 )  
( 0.00081749 -0.000758249 0.017678 )  
( 0.00053448 0.00205175 0.0130584 )  
( 0.000588355 -0.000935018 0.000107541 )  
( -0.00162172 0.00195559 0.0140317 )  
( -0.000139 -0.000106566 -8.10645e-05 )  
( 0.00302071 0.000916564 0.00998242 )  
( 0.00153218 0.00169788 0.0117058 )  
( 0.00025352 -0.00019003 0.0139484 )  
( 0.00015745 0.00172409 -1.22494e-07 )  
( 0.000864944 9.8276e-05 0.0116984 )  
( 0.00160687 -0.00285227 0.0132819 )  
( -0.000673386 -0.000447512 0.00831949 )  
( -0.000589979 -0.000769651 0.0126132 )  
( 0.000577915 0.000211843 0.0150066 )  
( 0.000858837 -0.00164622 0.0140507 )  
( 0.00199883 0.00017521 0.0142773 )  
( -0.0001769 -0.000340759 0.0145317 )  
( 0.000443964 0.000888141 0.0135468 )  
( -0.000434157 -1.10844e-05 -8.37249e-06 )  
( 0.00339815 -0.000565258 0.0105995 )  
( 0.00342586 -0.000357472 0.0159943 )  
( -0.0014059 0.00215304 0.0140891 )  
( 0.00343282 -0.000565238 0.0137567 )  
( 0.000541244 0.000770144 0.0152069 )  
( 0.00134391 0.000259635 0.010408 )  
( -0.00206931 0.00247248 0.0137089 )  
( 0.00172691 0.00180992 0.0147773 )  
( -9.79398e-05 0.000490665 0.0157124 )  
( 0.00199395 0.000175035 0.0140922 )  
( 0.000929604 0.00197951 0.0131269 )  
( 0.00158182 0.00224323 0.0145283 )  
( 0.000488065 0.000743977 0.0116722 )  
( 0.000217109 -0.00188607 0.0138876 )  
( 0.00012087 3.67463e-05 3.29682e-06 )  
( 0.000101398 0.00168883 0.0136266 )  
( 2.24492e-06 -1.82065e-06 -0.000106348 )  
( 0.0018302 -0.00049003 0.0147607 )  
( 0.000955254 0.00074396 0.0122361 )  
( 0.000683886 0.00102827 0.0151243 )  
( -0.00180581 0.00679428 0.0110758 )  
( -0.000214347 -0.000121226 2.17841e-06 )  
( -0.00333175 -0.00108152 0.0144546 )  
( 0.00330989 -0.00215995 0.0112406 )  
( -0.00210412 -0.000899795 0.00597817 )  
( 0.000268529 0.00119117 0.0139338 )  
( 0.000108948 -9.80248e-05 0.0147294 )  
( 0.00257229 -0.000619281 0.00882387 )  
( -0.001039 -0.000531139 0.000193453 )  
( -1.04725e-05 -0.000336234 -0.00021166 )  
( 0.000840498 0.000808381 0.0125415 )  
( 0.000111568 -6.48464e-05 2.16597e-05 )  
( 0.00138726 0.000867628 0.00974308 )  
( 0.000711956 0.00339313 0.0136303 )  
( 0.00128959 0.000301533 0.0116954 )  
( -0.0013274 0.00108517 0.0126035 )  
( -0.00063353 9.73683e-05 0.0131826 )  
( 0.00129388 4.19617e-05 0.0140569 )  
( 0.000574981 -0.00109229 -2.9542e-05 )  
( 6.56261e-05 -0.000166311 3.25087e-06 )  
( 0.00195663 0.00272691 0.0154501 )  
( -0.000435251 0.000556115 0.0143436 )  
( 0.000833684 0.000759759 0.0154962 )  
( 0.00122915 0.000519905 0.0159322 )  
( 0.00150478 0.00044216 0.00134776 )  
( -8.83787e-05 1.18954e-05 -6.96415e-05 )  
( -8.26734e-05 0.000141422 -2.02659e-05 )  
( -8.39947e-05 0.000388962 0.0159911 )  
( 2.79339e-05 -2.70872e-05 8.15528e-06 )  
( 0.00478077 -0.00282295 0.0126118 )  
( 0.00130199 0.00260677 0.0121291 )  
( -0.000613191 0.000108504 0.00980394 )  
( 0.0010318 -0.00132351 0.0118003 )  
( -0.00151514 -0.000986868 0.0177386 )  
( 0.000802765 -0.000189794 8.10091e-05 )  
( -0.00400605 0.00235116 0.0132173 )  
( 0.00046327 -0.0031708 -0.00796208 )  
( 0.000771657 0.00040758 0.0148474 )  
( 0.000510871 0.000890423 0.014184 )  
( 0.001639 0.000856175 0.0126939 )  
( 4.34738e-05 -0.000139838 -4.73244e-05 )  
( -0.000350495 0.000915995 0.0152806 )  
( 0.000905495 0.00163726 0.0140395 )  
( 0.000915497 -0.00270722 0.0135965 )  
( 0.000103132 2.39192e-05 7.72111e-05 )  
( -0.00359391 0.00488193 0.0176758 )  
( -0.000728605 0.00299135 0.0143253 )  
( 0.000283757 0.00131523 0.0138813 )  
( 0.00139488 0.000527885 -0.000620685 )  
( 0.00135455 -0.000691676 0.01201 )  
( 0.000193264 0.00256165 0.0137906 )  
( -0.00101502 0.00204636 0.0136698 )  
( 0.00137813 0.000311438 0.0146959 )  
( -8.69475e-05 0.000691494 0.0134831 )  
( 0.00126428 0.000802262 0.0119744 )  
( -0.000135448 -5.70557e-05 -0.00010153 )  
( 0.000793194 0.000934269 0.0154598 )  
( 0.000105806 0.000603935 -0.00045058 )  
( 0.000924501 -0.00157213 0.0166606 )  
( 0.000460448 0.000200983 0.0150013 )  
( -0.00176259 0.00178929 0.0156923 )  
( -1.37052e-05 -0.000131717 -8.05084e-05 )  
( -6.12943e-05 5.53416e-05 5.12501e-05 )  
( 0.00346196 0.000555102 0.0130679 )  
( -0.00122382 0.000279696 0.0116241 )  
( 0.00122773 0.00097786 0.0144379 )  
( 6.88483e-05 0.000237153 -8.30024e-06 )  
( 0.00100043 0.00111535 0.00964507 )  
( -0.000378997 -9.39108e-05 0.0158121 )  
( 0.000966279 0.000371611 0.0152087 )  
( 0.0012872 0.00162969 0.0157458 )  
( 0.00116898 -0.00108658 0.0154482 )  
( -0.000732243 -0.000529103 -3.39796e-05 )  
( -0.000954945 0.000424564 0.0124425 )  
( -0.00106099 -0.000915132 -0.000882881 )  
( -0.000611382 0.000128366 -0.000256317 )  
( 4.49875e-05 -1.46255e-05 1.28996e-05 )  
( 0.00121747 0.000683816 0.0140977 )  
( 0.000131689 0.000172104 -0.000657567 )  
( 0.000183224 -0.000111484 0.0156209 )  
( 0.00056702 0.000769686 0.0172727 )  
( -7.28215e-05 -0.000148366 0.000154199 )  
( 0.00512259 0.0049569 0.0191825 )  
( -0.000654309 0.00111191 -0.000282019 )  
( 0.000581175 0.0018116 8.89392e-05 )  
( 0.00162434 0.00143414 0.0142392 )  
( 0.00287672 0.00080715 0.0126926 )  
( 0.00570614 0.00239932 0.0188307 )  
( -0.00113529 -7.66091e-06 0.0105256 )  
( -0.000334621 0.0021956 0.0123665 )  
( 0.000207724 -0.000260296 -7.28756e-05 )  
( -0.000776009 -0.000888907 -0.000179613 )  
( 1.27475e-06 0.00687953 0.0151492 )  
( -0.00060776 -0.00139095 0.0115267 )  
( 0.000717786 0.00110863 0.0141163 )  
( 0.000539627 0.000178262 0.0163651 )  
( -0.00165688 -0.000914111 0.0122605 )  
( 0.00086113 0.00185139 0.0124921 )  
( -0.00141187 -0.00110579 0.0132398 )  
( -5.73394e-05 0.000119621 -0.000320341 )  
( 7.12947e-05 6.0673e-05 -2.07293e-05 )  
( 0.00228811 0.000599619 0.0131735 )  
( 0.00330148 -0.00197849 0.014829 )  
( 0.000326814 0.000185265 4.71088e-05 )  
( -0.00118772 0.000133057 0.012319 )  
( 0.00171477 0.000701236 0.0115637 )  
( 0.00120858 -0.00119786 0.0139847 )  
( 0.00146633 0.00113928 0.0151811 )  
( 0.00111305 -0.000401606 0.0143571 )  
( 6.03664e-05 6.87124e-05 2.61447e-05 )  
( -0.00026614 -0.00143365 0.0161083 )  
( -2.46286e-05 5.82782e-05 0.000107797 )  
( -0.00302226 0.00320501 0.0174295 )  
( -8.84906e-06 0.0017901 0.0144937 )  
( -0.00197706 -0.00132001 0.00499471 )  
( 0.00195722 -0.000690326 0.0124296 )  
( -0.000584626 -0.00121677 0.0126718 )  
( 0.000127051 0.0013983 0.0138653 )  
( -0.00218086 0.000179196 0.0103396 )  
( 0.000477856 0.000458714 0.0150634 )  
( -0.00172805 -0.000782723 0.00878313 )  
( 0.000101807 1.32388e-05 0.000223309 )  
( -0.000765085 0.00122035 0.0122872 )  
( 0.00172641 -0.000826885 0.0145016 )  
( 0.000407546 0.0015085 0.0101877 )  
( 0.000339119 -0.000347169 -0.00013442 )  
( -0.000547797 -0.000847722 0.0133371 )  
( 0.000134389 0.00047599 0.0150594 )  
( 0.00445503 0.000640626 0.0163095 )  
( -0.000820537 -0.000823723 0.0137595 )  
( -0.00134069 0.00201074 0.0122932 )  
( -6.36817e-05 2.16293e-05 -0.000193715 )  
( 0.000736544 0.00212751 -0.00205329 )  
( 0.000933408 0.00200021 0.0151192 )  
( 0.000616653 0.00104151 0.0146957 )  
( -9.43387e-05 0.000348326 0.0162805 )  
( 0.00178375 0.00161911 0.0136573 )  
( 0.00167146 -0.000247934 -0.000537041 )  
( 0.00194489 -0.000203712 0.014087 )  
( 0.00197617 0.00199924 0.0140621 )  
( -0.00154031 0.00149382 3.63735e-07 )  
( -0.00172927 0.0019332 0.0114113 )  
( -0.00204516 0.00575075 0.0103968 )  
( 0.000161 4.60233e-05 1.35455e-05 )  
( 0.000120148 -0.000968299 0.00888142 )  
( -0.000129833 -0.000252506 0.0129021 )  
( -0.000412596 0.000290929 -0.000178637 )  
( 0.000298868 -0.000301637 1.84502e-05 )  
( 0.00186764 0.00040542 0.0159178 )  
( 0.00283022 0.000581444 0.0125071 )  
( 0.000593289 9.48483e-05 0.0133141 )  
( -0.000141682 1.65145e-07 4.73757e-05 )  
( -9.33445e-05 -3.41543e-05 -3.40922e-05 )  
( 0.000734361 0.00164993 0.0137764 )  
( -0.00171041 0.00149709 0.0104214 )  
( 0.00119773 -0.00393525 0.0155748 )  
( 0.00244852 0.00171939 0.00813198 )  
( 0.00102469 4.53825e-05 0.014223 )  
( 0.00114224 -0.000524882 0.0137435 )  
( 0.000714885 0.00138959 0.0179385 )  
( 0.00214916 0.000651522 0.0137659 )  
( 0.000898845 0.00133802 0.0146377 )  
( 0.000591321 0.000867627 0.0107498 )  
( 0.00217387 0.00016035 0.0131622 )  
( 0.00173902 0.00171107 0.0132816 )  
( -0.00238538 0.000216306 0.0098235 )  
( -0.000522405 0.00241512 0.0119218 )  
( 0.00529058 -0.00201993 0.0188347 )  
( 0.0020122 -0.00171883 0.0138062 )  
( -0.000129856 0.00133318 0.0125288 )  
( -1.32425e-05 0.00241671 0.0129851 )  
( -0.00555991 0.00421798 -0.00284261 )  
( 0.00075272 0.000509729 0.0139422 )  
( 0.00079211 0.00136155 0.014967 )  
( -0.00063335 0.000295729 0.0122116 )  
( 0.000474195 0.000648103 0.0148049 )  
( 0.00288403 0.000449251 0.0161502 )  
( 0.00246345 0.00132288 0.0114524 )  
( -0.00258719 0.000540111 0.0140282 )  
( 8.72911e-05 0.000315208 2.69179e-05 )  
( 0.00117392 0.00186169 0.0138589 )  
( 0.00265735 0.00238071 0.0140022 )  
( 0.000237066 -0.000929507 0.0117226 )  
( 0.000765307 0.00198385 0.0129499 )  
( 0.000723684 0.000444724 0.0145919 )  
( -0.000380454 -0.00126997 0.0142752 )  
( 8.35711e-05 -1.8986e-05 7.69999e-05 )  
( 9.20717e-05 0.000207689 -0.000104093 )  
( 0.00554137 -0.00316595 0.0212287 )  
( 0.000664186 0.00203272 0.0130243 )  
( 0.000630074 -0.00132029 0.012067 )  
( -0.000185018 0.00118474 0.0124529 )  
( -0.0001537 0.00179878 0.0167505 )  
( -0.00024432 0.000202188 -0.000333909 )  
( -0.00172797 0.00214523 0.00939619 )  
( -0.00340273 -0.00270455 0.0126172 )  
( 0.000480024 0.000507979 -0.000177029 )  
( -6.52674e-05 1.42411e-05 0.000162291 )  
( 0.000959352 -9.71579e-05 0.013852 )  
( -3.89331e-05 4.96359e-05 6.25336e-05 )  
( 0.000535533 0.000456872 0.0144658 )  
( -8.60733e-05 -0.000122567 -5.52768e-06 )  
( -8.57358e-05 -0.000680887 0.0136817 )  
( 2.1461e-06 -0.000236051 2.80303e-06 )  
( 0.000840924 -0.000280966 0.0139122 )  
( 0.00164653 0.00134794 0.0141017 )  
( 0.000183416 2.61351e-05 0.000176461 )  
( 0.00202419 0.000545848 0.0134996 )  
( -0.000590446 0.00154564 0.013362 )  
( 0.000534889 7.7385e-05 0.000607554 )  
( 0.00035428 0.00168813 0.0104299 )  
( 0.0019604 0.000516975 0.0146579 )  
( 0.00158706 0.000414115 0.0159747 )  
( -0.000111777 0.00074025 0.0138025 )  
( -3.29052e-05 -0.00133205 -0.00256124 )  
( -4.04419e-05 0.000347391 0.000635226 )  
( -5.53063e-05 -9.08174e-05 5.35872e-05 )  
( -6.66003e-05 2.6804e-05 -0.0005877 )  
( -0.000520088 0.00204471 -9.5465e-05 )  
( -0.000127483 0.00086476 0.0143932 )  
( -9.23633e-05 -0.000103991 1.07742e-06 )  
( 0.00154326 0.000926114 0.0109381 )  
( -0.000744692 -0.00103943 0.00970207 )  
( 0.00191386 0.00166181 0.0137923 )  
( 0.00470111 0.000326876 -2.01041e-05 )  
( 0.00174339 0.00089868 0.0126118 )  
( 6.56287e-05 0.00125974 0.0148846 )  
( -8.18672e-05 0.000143264 1.62225e-05 )  
( -0.00240613 0.00019828 0.0133324 )  
( 0.000176447 -0.000179421 -1.22971e-05 )  
( 0.000616188 -6.83942e-05 0.014894 )  
( -0.00174782 -0.00211626 0.0119616 )  
( 0.000730918 0.000747429 -3.40392e-05 )  
( 0.000121482 -3.23729e-05 0.000155855 )  
( 0.000865134 -0.000221102 0.0148579 )  
( 0.000715719 0.00133397 0.0138823 )  
( 0.00079298 0.000635224 0.0117709 )  
( 0.000637038 0.00142468 0.0123026 )  
( -0.0026965 -0.000390981 0.0145538 )  
( 0.00118607 -3.7316e-05 0.0158151 )  
( -1.07777e-06 0.00211583 0.01203 )  
( -0.000149539 -5.67589e-05 -4.47997e-05 )  
( 0.000302635 0.000418322 -0.000348818 )  
( -0.000883848 0.00239622 0.0118643 )  
( 0.000614541 0.00268573 0.0142935 )  
( 4.51008e-05 0.00106141 9.87831e-05 )  
( -0.000783764 0.000550109 0.0135752 )  
( 6.51834e-05 -0.000489553 0.0153115 )  
( 0.000706652 0.00171529 0.0156138 )  
( 0.000391343 0.000760563 0.0119605 )  
( -0.000684071 0.000225768 -0.000267048 )  
( -0.0009596 -0.000401222 -0.00028767 )  
( -0.000168694 -0.000418754 0.0117095 )  
( 0.000636648 0.000406494 0.0151949 )  
( 0.000494918 0.000324678 0.0106477 )  
( 0.0015876 0.00106341 0.01513 )  
( 0.00256015 -0.000190498 0.0148512 )  
( 0.00137499 0.000293432 0.014803 )  
( -0.00068836 0.00045683 -0.000152327 )  
( -7.74325e-05 0.00025905 -0.000567554 )  
( -7.95822e-05 6.48032e-05 -0.000462325 )  
( -0.000125081 6.81641e-05 5.01123e-05 )  
( -0.000112173 -0.000210114 -0.00020739 )  
( -0.000346962 -0.000601787 -0.000100625 )  
( 0.00181816 0.000927465 0.0152503 )  
( -0.000104735 0.00111153 0.0162456 )  
( -0.000267164 -0.000149028 -0.000300144 )  
( 0.00130667 0.000410932 0.0124657 )  
( 0.000509205 0.00177432 0.00891195 )  
( 0.00162002 0.00163067 0.0139867 )  
( 0.000379018 -0.000155175 0.0133906 )  
( -0.00145351 -0.000352282 -0.00198167 )  
( 0.00133363 -7.15196e-05 0.0144863 )  
( -0.000161668 0.000677917 -0.000157479 )  
( 0.000408249 -0.000557144 0.0141256 )  
( -0.0006571 -0.000293513 -1.71204e-05 )  
( 0.000913888 0.00231681 0.0142912 )  
( 6.53023e-05 3.86443e-05 -1.09645e-05 )  
( 0.00012617 0.000518466 0.0073517 )  
( -0.000724406 0.00106634 0.013102 )  
( 3.34667e-05 -0.000365762 -0.000467316 )  
( -0.00189625 -0.00392608 0.0132088 )  
( -0.00163565 0.00153997 0.0117315 )  
( 0.000230969 0.000774488 -0.000359594 )  
( 0.00186926 0.0005988 0.00949271 )  
( -0.00154118 0.00214708 0.0125181 )  
( -0.000591407 -0.00150147 0.012783 )  
( -0.00209693 3.16491e-06 0.0156642 )  
( -0.00136958 0.00141108 0.00992115 )  
( -0.00520122 0.00439382 0.0111991 )  
( 0.00122273 0.000923073 0.013253 )  
( 0.000249563 0.00223314 0.0117224 )  
( 0.003299 0.000760032 0.014895 )  
( 0.00099563 -0.000596849 0.0133352 )  
( 0.00147912 -0.00103577 0.0116992 )  
( 0.000240542 0.00268858 0.0150974 )  
( -2.49456e-05 0.000276213 -1.68234e-05 )  
( 0.000912288 0.00231469 -2.53017e-05 )  
( 0.00154575 0.00180668 0.0147638 )  
( -0.00415154 0.00118539 0.01469 )  
( -0.000161884 -0.000180722 3.74697e-05 )  
( 0.00118927 0.00205912 0.0125694 )  
( 0.00116334 -0.000795471 0.01563 )  
( -0.000124319 0.00174356 0.013462 )  
( 0.000351157 0.00358 0.0141732 )  
( -0.000747602 -0.000959391 0.0157819 )  
( -0.00116818 0.00390123 -0.00116889 )  
( 0.000309141 0.00465595 -8.89497e-08 )  
( -7.26487e-05 0.00254949 0.0164582 )  
( 0.000107761 0.000454568 -0.000913144 )  
( 0.000118469 0.00115551 -0.00067218 )  
( -5.81414e-05 0.0011639 0.0120956 )  
( 0.000939141 4.02616e-05 0.0157833 )  
( 0.00113879 0.000678343 0.0118051 )  
( 0.00134806 0.000830275 0.0128736 )  
( 0.000185376 -0.000152278 0.000103577 )  
( -0.00195677 0.00128278 0.016844 )  
( -0.000294334 -0.000355102 0.0162653 )  
( 0.00230553 0.00014008 0.0123658 )  
( -0.0018504 0.0069889 0.0199131 )  
( 0.00138727 -0.00058383 0.0151634 )  
( 0.0010845 0.00292562 -0.000360623 )  
( 0.000107556 0.000894231 0.0154543 )  
( -2.89547e-05 0.000314096 0.0158186 )  
( 0.0016603 -0.00118324 0.0126761 )  
( -0.00271918 0.000202163 0.0111764 )  
( 0.00158133 0.00105901 0.0161103 )  
( -0.000690821 0.000154221 -0.000172804 )  
( 0.000132052 -0.00022616 0.000493379 )  
( 0.000386646 0.00025377 0.0141508 )  
( 4.44868e-05 4.58274e-07 7.47541e-05 )  
( -0.000891659 0.00151013 0.000196375 )  
( 0.00247266 0.00121978 0.0130966 )  
( -5.73155e-05 0.000322697 1.93664e-05 )  
( 0.00251619 0.000191947 0.0135712 )  
( 0.00200977 -0.000902698 0.0111939 )  
( 0.00115717 0.00154227 0.0148214 )  
( -0.000416841 0.00140249 0.012512 )  
( -0.000219912 -9.11848e-06 -1.11532e-05 )  
( 0.00063898 0.00216713 0.0144327 )  
( 0.00179077 0.000605623 0.00841589 )  
( 0.000558542 0.000748233 -1.24289e-05 )  
( 0.00226996 0.000588093 0.0123675 )  
( 0.000860343 0.000989684 0.0113424 )  
( -4.07818e-05 0.000441972 0.0133428 )  
( 0.00290464 -0.00043888 0.0152678 )  
( -0.00176549 0.0024944 0.0148075 )  
( -0.000207476 -0.000381516 -0.000241829 )  
( 0.000118029 1.83004e-05 -3.3236e-05 )  
( 0.000844342 0.000201545 0.0105041 )  
( 0.00205752 0.00245561 0.015141 )  
( -0.000578622 0.0013099 0.0159123 )  
( 0.000890902 0.000846836 0.0141694 )  
( 0.00022698 0.0013378 0.0159972 )  
( 0.00063764 -0.00112754 0.0137043 )  
( 0.00216559 -0.000215897 0.01555 )  
( 0.000542553 -0.000540573 0.0139381 )  
( -0.000213003 0.000494012 1.68528e-05 )  
( 0.00159345 0.000653153 0.0112395 )  
( 0.00345072 0.00115849 0.0130078 )  
( -0.00445654 -0.00110761 0.0137994 )  
( -0.000877791 -0.000311335 0.0100175 )  
( 0.000105286 -0.000163894 -6.4192e-06 )  
( 0.0001211 -0.000149411 -4.26006e-05 )  
( -0.00111611 -0.000870549 0.0148557 )  
( 0.00391263 0.00208928 0.0148991 )  
( 0.000278601 0.000227047 7.03466e-05 )  
( 0.00496856 0.00578976 -0.00119737 )  
( 0.000292535 0.000908994 0.0140733 )  
( 0.000946974 0.00103119 0.0136024 )  
( 0.000650608 0.00190317 0.0130879 )  
( -0.00036965 -0.000481935 -0.000239368 )  
( -0.000363392 0.00304801 0.0105943 )  
( -0.000739095 0.0034519 0.0125091 )  
( -0.00141662 -0.000502531 0.0132327 )  
( -0.00231686 -0.000743713 0.0104987 )  
( 0.000422089 -0.000460923 -0.000427841 )  
( 0.000841049 0.00169864 0.0148688 )  
( -0.000182969 8.2586e-06 -1.36171e-05 )  
( -4.75551e-05 0.000430758 1.42866e-05 )  
( -0.00103891 -0.000771415 0.0106495 )  
( 0.0032059 0.00152942 -0.000909481 )  
( 0.00145689 -0.0012042 0.0146758 )  
( 2.40118e-05 -0.000392436 -0.000121999 )  
( 0.000366455 0.00151588 0.0133932 )  
( 0.000338407 0.00121585 0.0109693 )  
( -0.000956202 0.000947409 0.0131831 )  
( -0.000178327 0.000256287 0.0137723 )  
( 8.96121e-05 -0.000199037 5.11875e-05 )  
( -0.00213531 0.00151428 0.0167918 )  
( 0.000401541 0.000243098 3.6927e-05 )  
( 0.00060671 0.00163863 0.0129785 )  
( 0.00189866 -2.48823e-05 0.0137661 )  
( 0.00163015 -0.00130756 0.0148627 )  
( 0.00239889 0.00137781 0.0163916 )  
( 0.000239768 0.000906621 0.0109902 )  
( 0.000677605 0.00124048 0.0111798 )  
( 0.00301786 -0.00104442 0.0110694 )  
( 0.00293784 0.000543408 0.0116572 )  
( -0.000117048 -0.00160848 0.0152852 )  
( 0.00133054 0.00154203 0.0150119 )  
( -8.35034e-06 -0.000101745 -5.65066e-05 )  
( -0.000138403 6.4284e-05 7.23417e-05 )  
( 0.00101271 -0.000586677 0.0126624 )  
( -0.000242107 1.01873e-05 -6.68753e-06 )  
( 0.00186498 0.00140546 0.0118798 )  
( 0.000402812 0.000628873 0.0140722 )  
( 0.00074308 -0.000665265 0.0139661 )  
( -0.00128797 -0.000859152 0.0119468 )  
( -0.000221255 -5.30414e-05 0.0153167 )  
( 0.000944801 0.00198324 0.0137867 )  
( -0.000258663 0.00765299 0.0111218 )  
( 0.00247995 -0.00370807 0.014491 )  
( -0.00247109 -0.00075412 5.28875e-05 )  
( 0.000839879 0.00165359 0.0153005 )  
( -0.000959863 0.000136886 -0.00102323 )  
( 5.79422e-05 -0.000914047 -0.000391957 )  
( 0.00131122 0.000237174 0.0137249 )  
( 9.3636e-05 0.000447554 0.0130236 )  
( 0.000858481 0.000347204 0.0134881 )  
( 0.00208675 0.00230735 0.0152396 )  
( -0.000761512 -0.000924462 0.0105972 )  
( 6.862e-05 0.000540628 -0.000982581 )  
( -0.00326101 0.00196725 0.0131725 )  
( 0.000138367 -0.00143059 0.0118743 )  
( 0.00161616 0.00173609 0.0143813 )  
( 0.000548573 -0.00109198 0.0145878 )  
( -0.00152097 -0.00341554 0.00916291 )  
( 0.000989704 0.000314301 0.0148136 )  
( -0.00076122 -0.000920579 0.0101493 )  