/*--------------------------------*- C++ -*----------------------------------*\
| =========                 |                                                 |
| \\      /  F ield         | OpenFOAM: The Open Source CFD Toolbox           |
|  \\    /   O peration     | Version:  2506                                  |
|   \\  /    A nd           | Website:  www.openfoam.com                      |
|    \\/     M anipulation  |                                                 |
\*---------------------------------------------------------------------------*/
FoamFile
{
    version     2.0;
    format      ascii;
    arch        "LSB;label=32;scalar=64";
    class       volVectorField;
    location    "0.05";
    object      Us;
}
// * * * * * * * * * * * * * * * * * * * * * * * * * * * * * * * * * * * * * //

dimensions      [0 1 -1 0 0 0 0];

internalField   nonuniform List<vector> 
1152
(
(0.000160384 5.7615e-05 1.09685e-05)
(-0.00022066 -8.59891e-05 4.92286e-05)
(-3.90359e-05 2.3029e-05 -9.4027e-05)
(-0.000139704 -0.00024635 -0.000118942)
(0.000181449 9.96289e-05 8.88041e-05)
(-0.000202109 -0.000141222 0.000147298)
(-0.000816519 -0.000614565 0.00011769)
(6.77446e-05 -0.000118273 5.16437e-05)
(-9.41653e-05 0.000493441 -1.4e-05)
(-0.000196468 3.78682e-05 0.000106944)
(-8.63062e-05 0.000336929 -0.00011362)
(8.03141e-05 1.9288e-05 3.52485e-05)
(0.000266178 0.000326798 0.000254372)
(0.000158514 0.000410609 9.90739e-05)
(0.000168572 0.000183644 6.35735e-05)
(0.000257535 0.000130166 3.23692e-05)
(0.000213507 -0.000229663 0.000968141)
(0.000129256 -4.29321e-05 0.000814513)
(-0.000114718 0.000115628 0.000221074)
(-0.000154461 -0.000341355 0.000203056)
(0.000423111 3.86649e-05 0.000607267)
(-6.56942e-05 0.000321369 0.00112793)
(-6.84733e-05 0.000191291 0.00072297)
(0.000249118 4.52185e-05 0.000581845)
(0.000206794 -0.000263972 0.00150899)
(4.52901e-05 0.000200971 0.00105684)
(0.000291276 0.000267921 0.000182574)
(0.00018385 3.19115e-05 0.000722632)
(-0.000369829 4.66079e-05 0.00103209)
(1.26343e-05 0.000434262 0.000638762)
(0.000113783 0.000279201 0.000581691)
(0.000313779 4.4863e-05 0.000534735)
(0.000199459 -0.000355269 0.00136546)
(0.000113991 -0.000525293 0.00141089)
(0.000417066 -0.000130265 0.000707917)
(8.31344e-05 0.000174765 0.000775914)
(0.000494966 0.000351555 0.000969256)
(0.000583697 -0.000767378 0.00163475)
(0.000471896 -0.000255128 0.000937987)
(0.000287742 -0.000273432 0.00130189)
(0.000224031 3.7124e-05 0.000910782)
(-8.61837e-05 -8.86893e-05 0.00112733)
(0.0002264 -9.28692e-05 0.000952537)
(0.000180802 -0.00115734 0.00246095)
(-0.000258114 0.00015333 0.00157262)
(0.000624917 -0.000180171 0.000980458)
(0.000364327 -0.000124523 0.000636495)
(0.000240755 9.64999e-05 0.000867983)
(-0.000121718 0.000517408 0.00287315)
(0.000370279 -0.000241592 0.00121598)
(0.000162723 -0.000239753 0.00146243)
(-7.01364e-05 -8.09189e-05 0.00173952)
(0.000822088 -5.18995e-06 0.00146023)
(0.000364283 -0.00035468 0.00114782)
(0.000599639 -0.000342003 0.00121594)
(0.00061015 -0.000694191 0.00082724)
(8.30802e-05 -0.00042967 0.00220689)
(0.000348058 -0.00012719 0.000928044)
(0.000399523 -0.000258644 0.00137293)
(0.000320099 -0.000200174 0.00137013)
(0.000375368 -0.00044161 0.000962221)
(0.000318842 -0.000135488 0.000888809)
(0.000257123 -8.77971e-05 0.000978008)
(7.02237e-05 0.000234704 0.0011699)
(0.00012781 0.000248581 0.00141411)
(0.00029614 -0.000321236 0.00117792)
(0.000336783 -0.000196354 0.00145659)
(0.000659227 -0.000216075 0.00137281)
(0.000135693 -0.00025836 0.00129064)
(0.00032313 3.89069e-05 0.000998293)
(0.000328622 -4.69346e-05 0.00109468)
(0.000448617 -0.000309777 0.0010737)
(0.000185617 -0.000308727 0.000930461)
(0.000248745 -0.000106889 0.000972791)
(0.000361131 4.85151e-05 0.00105379)
(0.000401 -0.000162896 0.00108074)
(0.000190629 -0.000258723 0.000933019)
(0.000204938 -0.000187643 0.000964185)
(0.00026079 9.37198e-05 0.0011384)
(0.000273254 0.000120624 0.00113118)
(0.000171124 -0.000177297 0.00101134)
(9.24068e-05 -4.16079e-05 0.000962636)
(4.72593e-05 9.54134e-06 0.00117622)
(0.000269898 -4.05768e-05 0.00110833)
(0.000100572 -0.000187943 0.000992514)
(0.000138942 -3.40055e-05 0.00089797)
(0.000141899 -4.68942e-05 0.00102224)
(0.000228593 -8.32322e-06 0.00103781)
(9.34182e-05 -0.000123615 0.000932009)
(0.000106097 -7.40302e-05 0.000968969)
(0.000133784 -0.000118513 0.00102648)
(0.000147225 -6.2715e-05 0.00103785)
(8.56927e-05 -0.000120278 0.00085578)
(5.74719e-05 -3.78326e-05 0.000931314)
(-4.09606e-05 -3.74857e-05 0.0010502)
(-0.00037417 0.000314479 0.0010729)
(0.000274084 -0.000355389 0.000772608)
(0.000414911 -0.00110901 0.000799151)
(2.33263e-05 -1.32382e-05 0.00117251)
(0.000453328 -8.64405e-05 0.000856561)
(0.000658683 0.000465151 0.000980361)
(0.000106636 -2.44432e-05 0.000994077)
(0.000131711 -3.34885e-05 0.00108201)
(0.00398568 -0.00200415 -0.00127489)
(0.000153709 2.0439e-05 0.000988872)
(0.000113809 -9.22421e-05 0.000961898)
(4.51246e-05 -0.000167199 0.00102601)
(-3.72346e-06 -7.92637e-05 0.00105038)
(-1.30396e-05 2.20215e-05 0.000799378)
(3.50278e-05 -0.00018179 0.00106586)
(-0.000224235 -0.000291314 0.000967843)
(-0.00047214 -0.000192499 0.000974749)
(0 0 0)
(0 0 0)
(0 0 0)
(0 0 0)
(0 0 0)
(0 0 0)
(0 0 0)
(0 0 0)
(0 0 0)
(0 0 0)
(0 0 0)
(0 0 0)
(0 0 0)
(0 0 0)
(0 0 0)
(0 0 0)
(0 0 0)
(0 0 0)
(0 0 0)
(0 0 0)
(0 0 0)
(0 0 0)
(0 0 0)
(0 0 0)
(0 0 0)
(0 0 0)
(0 0 0)
(0 0 0)
(0 0 0)
(0 0 0)
(0 0 0)
(0 0 0)
(0 0 0)
(0 0 0)
(0 0 0)
(0 0 0)
(0 0 0)
(0 0 0)
(0 0 0)
(0 0 0)
(0 0 0)
(0 0 0)
(0 0 0)
(0 0 0)
(0 0 0)
(0 0 0)
(0 0 0)
(0 0 0)
(0 0 0)
(0 0 0)
(0 0 0)
(0 0 0)
(0 0 0)
(0 0 0)
(0 0 0)
(0 0 0)
(0 0 0)
(0 0 0)
(0 0 0)
(0 0 0)
(0 0 0)
(0 0 0)
(0 0 0)
(0 0 0)
(0 0 0)
(0 0 0)
(0 0 0)
(0 0 0)
(0 0 0)
(0 0 0)
(0 0 0)
(0 0 0)
(0 0 0)
(0 0 0)
(0 0 0)
(0 0 0)
(0 0 0)
(0 0 0)
(0 0 0)
(0 0 0)
(0 0 0)
(0 0 0)
(0 0 0)
(0 0 0)
(0 0 0)
(0 0 0)
(0 0 0)
(0 0 0)
(0 0 0)
(0 0 0)
(0 0 0)
(0 0 0)
(0 0 0)
(0 0 0)
(0 0 0)
(0 0 0)
(0 0 0)
(0 0 0)
(0 0 0)
(0 0 0)
(0 0 0)
(0 0 0)
(0 0 0)
(0 0 0)
(0 0 0)
(0 0 0)
(0 0 0)
(0 0 0)
(0 0 0)
(0 0 0)
(0 0 0)
(0 0 0)
(0 0 0)
(0 0 0)
(0 0 0)
(0 0 0)
(0 0 0)
(0 0 0)
(0 0 0)
(0 0 0)
(0 0 0)
(0 0 0)
(0 0 0)
(0 0 0)
(0 0 0)
(0 0 0)
(0 0 0)
(0 0 0)
(0 0 0)
(0 0 0)
(0 0 0)
(0 0 0)
(0 0 0)
(0 0 0)
(0 0 0)
(0 0 0)
(0 0 0)
(0 0 0)
(0 0 0)
(0 0 0)
(0 0 0)
(0 0 0)
(0 0 0)
(0 0 0)
(0 0 0)
(0 0 0)
(0 0 0)
(0 0 0)
(0 0 0)
(0 0 0)
(0 0 0)
(0 0 0)
(0 0 0)
(0 0 0)
(0 0 0)
(0 0 0)
(0 0 0)
(0 0 0)
(0 0 0)
(0 0 0)
(0 0 0)
(0 0 0)
(0 0 0)
(0 0 0)
(0 0 0)
(0 0 0)
(0 0 0)
(0 0 0)
(0 0 0)
(0 0 0)
(0 0 0)
(0 0 0)
(0 0 0)
(0 0 0)
(0 0 0)
(0 0 0)
(0 0 0)
(0 0 0)
(0 0 0)
(0 0 0)
(0 0 0)
(0 0 0)
(0 0 0)
(0 0 0)
(0 0 0)
(0 0 0)
(0 0 0)
(0 0 0)
(0 0 0)
(0 0 0)
(0 0 0)
(0 0 0)
(0 0 0)
(0 0 0)
(0 0 0)
(0 0 0)
(0 0 0)
(0 0 0)
(0 0 0)
(0 0 0)
(0 0 0)
(0 0 0)
(0 0 0)
(0 0 0)
(0 0 0)
(0 0 0)
(0 0 0)
(0 0 0)
(0 0 0)
(0 0 0)
(0 0 0)
(0 0 0)
(0 0 0)
(0 0 0)
(0 0 0)
(0 0 0)
(0 0 0)
(0 0 0)
(0 0 0)
(0 0 0)
(0 0 0)
(0 0 0)
(0 0 0)
(0 0 0)
(0 0 0)
(0 0 0)
(0 0 0)
(0 0 0)
(0 0 0)
(0 0 0)
(0 0 0)
(0 0 0)
(0 0 0)
(0 0 0)
(0 0 0)
(0 0 0)
(0 0 0)
(0 0 0)
(0 0 0)
(0 0 0)
(0 0 0)
(0 0 0)
(0 0 0)
(0 0 0)
(0 0 0)
(0 0 0)
(0 0 0)
(0 0 0)
(0 0 0)
(0 0 0)
(0 0 0)
(0 0 0)
(0 0 0)
(0 0 0)
(0 0 0)
(0 0 0)
(0 0 0)
(0 0 0)
(0 0 0)
(0 0 0)
(0 0 0)
(0 0 0)
(0 0 0)
(0 0 0)
(0 0 0)
(0 0 0)
(0 0 0)
(0 0 0)
(0 0 0)
(0 0 0)
(0 0 0)
(0 0 0)
(-0.000150904 0.000137416 5.2315e-05)
(-0.000337594 0.000223739 -0.000223358)
(0.000103449 0.00031303 2.37567e-05)
(0.000265138 0.000181126 0.000243316)
(0.00011195 0.000242147 0.000129593)
(0.000412645 0.000106336 -6.82045e-06)
(0.000643838 0.000336766 0.000279363)
(0.000285564 8.47695e-05 0.000227317)
(-1.29876e-06 0.000216589 0.000155259)
(-2.52188e-05 0.000149647 4.28886e-05)
(0.000236074 7.32944e-05 1.1834e-05)
(-3.44958e-05 0.000246492 0.000132306)
(-2.369e-06 -6.4723e-05 -5.89923e-05)
(0.000236986 1.8899e-05 0.000129437)
(0.000223246 0.000100093 0.00021373)
(0.000306969 0.000213997 7.77979e-05)
(0.000283277 0.000270965 0.000502524)
(0.000149951 -0.0002839 0.000265208)
(-1.35018e-05 -8.58371e-05 0.000634294)
(0.000424286 -0.000108935 0.00093982)
(1.49863e-05 0.000113466 0.000462522)
(-0.000258127 -4.90516e-05 -9.36197e-05)
(0.000275118 -0.000328295 0.000572724)
(0.00031416 -0.000175109 0.000855971)
(0.000123045 8.59044e-05 0.000895639)
(-0.000105377 6.88569e-05 -2.03888e-06)
(0.000355079 -0.000238648 0.000243935)
(0.000473124 -1.50891e-05 0.000625974)
(9.22362e-05 -5.99664e-05 0.000387372)
(-2.75683e-05 -8.94325e-05 0.000402452)
(0.000167567 -5.93055e-05 0.000439317)
(0.000305963 0.000125178 0.000490191)
(-7.87728e-06 7.85865e-05 0.000425441)
(0.000269219 0.000193995 0.00116804)
(3.72637e-05 0.000663938 0.00125335)
(0.000160495 -2.76044e-05 0.00141793)
(-0.00020622 0.00033862 0.00135368)
(-0.00052011 1.69818e-05 0.000304423)
(-0.000202775 0.00017335 0.00106166)
(-0.000309263 0.000228478 0.00167693)
(0.000134094 -3.06462e-06 0.00153165)
(0.000131375 0.000408202 0.000649215)
(0.000107449 -3.76657e-05 0.00069569)
(0.000192229 0.000154228 0.000990645)
(5.23426e-05 0.00025314 0.000629974)
(0.000230734 5.70349e-05 0.000632036)
(7.04115e-05 -0.000110828 0.000563804)
(0.000235589 -0.000180768 0.000982261)
(-2.03213e-05 -0.000123262 0.00042817)
(0.000212123 -0.00030521 0.00135143)
(0.00016753 -3.06062e-05 0.00157018)
(0.000241041 -6.51722e-05 0.00133362)
(-0.000254071 3.92066e-05 0.000910388)
(-0.000145684 -0.000578657 0.000738715)
(2.32533e-05 0.00015685 0.000667502)
(0.000147041 -0.000327534 0.00104769)
(-4.19134e-05 5.90146e-05 0.000843471)
(-0.000134099 -0.000519543 0.00189309)
(3.38306e-05 -0.000487298 0.00153836)
(0.000305235 -0.000220397 0.00113635)
(0.000121494 -3.08735e-05 0.000764298)
(6.05585e-06 4.01446e-05 0.000675266)
(6.06418e-05 -0.000292973 0.0010368)
(0.000463378 2.53222e-06 0.000951232)
(7.34919e-05 5.25113e-05 0.000781966)
(-5.53705e-05 0.000413993 0.000793842)
(-0.000140872 0.000259294 0.00100131)
(0.000154373 0.000314665 0.0010144)
(0.000101655 -0.000222372 0.000598036)
(-4.53097e-05 -0.000154273 0.000588476)
(-5.45586e-05 0.000167283 0.000977536)
(0.000277267 -0.000232424 0.000978581)
(0.000107333 -0.000282794 0.000533545)
(0.000104488 -0.000134762 0.000868925)
(0.000143921 -9.68788e-07 0.000739656)
(0.000159951 -0.000325235 0.000725868)
(0.000160242 -6.18623e-05 0.000902072)
(0.000149413 -0.000165439 0.000692176)
(0.000164739 -5.83046e-05 0.000631829)
(8.89266e-05 -0.000219062 0.000920652)
(0.000276859 -5.88838e-05 0.000562716)
(0.000168724 -0.00015313 0.000703867)
(-2.33913e-05 -0.000160162 0.000728299)
(6.3197e-05 -0.00019775 0.000947573)
(0.000150643 -0.000283635 0.000556632)
(0.000273852 0.000101688 0.000671328)
(0.000287078 -9.15895e-06 0.000851415)
(0.000258022 -0.000331439 0.000960497)
(4.33447e-05 -0.000293788 0.000214555)
(8.92241e-05 -0.000261678 0.00054901)
(0.000158763 -0.000186967 0.000541029)
(0.000126017 -0.000213666 0.00074598)
(0.000133428 0.000231257 0.000102113)
(2.01382e-05 -0.00023254 0.000436165)
(5.19229e-05 -0.000156251 0.000604883)
(6.4453e-05 -0.000184867 0.000785056)
(-0.00177858 -0.0035167 -0.000828616)
(-0.000877096 -0.0011837 0.000340303)
(0.000226577 4.72972e-05 0.00114828)
(3.80186e-05 -7.86133e-05 0.00127562)
(7.63725e-05 -0.000101998 0.000556015)
(3.42565e-05 -6.4272e-05 0.000684462)
(-2.01554e-05 0.000102519 0.00100547)
(0.000171882 0.000414316 0.00150747)
(-4.72829e-05 -9.96076e-05 3.54443e-05)
(-5.93801e-05 -0.000187672 0.000366241)
(6.26988e-05 -0.000140561 0.00047698)
(0.000245897 -0.000514273 0.000576385)
(-2.55509e-05 -0.00032254 -7.95967e-05)
(-0.00010643 -0.000551842 0.000368423)
(-0.000300093 -0.000323433 0.000415947)
(-7.20617e-05 -0.000223797 0.000673065)
(0 0 0)
(0 0 0)
(0 0 0)
(0 0 0)
(0 0 0)
(0 0 0)
(0 0 0)
(0 0 0)
(0 0 0)
(0 0 0)
(0 0 0)
(0 0 0)
(0 0 0)
(0 0 0)
(0 0 0)
(0 0 0)
(0 0 0)
(0 0 0)
(0 0 0)
(0 0 0)
(0 0 0)
(0 0 0)
(0 0 0)
(0 0 0)
(0 0 0)
(0 0 0)
(0 0 0)
(0 0 0)
(0 0 0)
(0 0 0)
(0 0 0)
(0 0 0)
(0 0 0)
(0 0 0)
(0 0 0)
(0 0 0)
(0 0 0)
(0 0 0)
(0 0 0)
(0 0 0)
(0 0 0)
(0 0 0)
(0 0 0)
(0 0 0)
(0 0 0)
(0 0 0)
(0 0 0)
(0 0 0)
(0 0 0)
(0 0 0)
(0 0 0)
(0 0 0)
(0 0 0)
(0 0 0)
(0 0 0)
(0 0 0)
(0 0 0)
(0 0 0)
(0 0 0)
(0 0 0)
(0 0 0)
(0 0 0)
(0 0 0)
(0 0 0)
(0 0 0)
(0 0 0)
(0 0 0)
(0 0 0)
(0 0 0)
(0 0 0)
(0 0 0)
(0 0 0)
(0 0 0)
(0 0 0)
(0 0 0)
(0 0 0)
(0 0 0)
(0 0 0)
(0 0 0)
(0 0 0)
(0 0 0)
(0 0 0)
(0 0 0)
(0 0 0)
(0 0 0)
(0 0 0)
(0 0 0)
(0 0 0)
(0 0 0)
(0 0 0)
(0 0 0)
(0 0 0)
(0 0 0)
(0 0 0)
(0 0 0)
(0 0 0)
(0 0 0)
(0 0 0)
(0 0 0)
(0 0 0)
(0 0 0)
(0 0 0)
(0 0 0)
(0 0 0)
(0 0 0)
(0 0 0)
(0 0 0)
(0 0 0)
(0 0 0)
(0 0 0)
(0 0 0)
(0 0 0)
(0 0 0)
(0 0 0)
(0 0 0)
(0 0 0)
(0 0 0)
(0 0 0)
(0 0 0)
(0 0 0)
(0 0 0)
(0 0 0)
(0 0 0)
(0 0 0)
(0 0 0)
(0 0 0)
(0 0 0)
(0 0 0)
(0 0 0)
(0 0 0)
(0 0 0)
(0 0 0)
(0 0 0)
(0 0 0)
(0 0 0)
(0 0 0)
(0 0 0)
(0 0 0)
(0 0 0)
(0 0 0)
(0 0 0)
(0 0 0)
(0 0 0)
(0 0 0)
(0 0 0)
(0 0 0)
(0 0 0)
(0 0 0)
(0 0 0)
(0 0 0)
(0 0 0)
(0 0 0)
(0 0 0)
(0 0 0)
(0 0 0)
(0 0 0)
(0 0 0)
(0 0 0)
(0 0 0)
(0 0 0)
(0 0 0)
(0 0 0)
(0 0 0)
(0 0 0)
(0 0 0)
(0 0 0)
(0 0 0)
(0 0 0)
(0 0 0)
(0 0 0)
(0 0 0)
(0 0 0)
(0 0 0)
(0 0 0)
(0 0 0)
(0 0 0)
(0 0 0)
(0 0 0)
(0 0 0)
(0 0 0)
(0 0 0)
(0 0 0)
(0 0 0)
(0 0 0)
(0 0 0)
(0 0 0)
(0 0 0)
(0 0 0)
(0 0 0)
(0 0 0)
(0 0 0)
(0 0 0)
(0 0 0)
(0 0 0)
(0 0 0)
(0 0 0)
(0 0 0)
(0 0 0)
(0 0 0)
(0 0 0)
(0 0 0)
(0 0 0)
(0 0 0)
(0 0 0)
(0 0 0)
(0 0 0)
(0 0 0)
(0 0 0)
(0 0 0)
(0 0 0)
(0 0 0)
(0 0 0)
(0 0 0)
(0 0 0)
(0 0 0)
(0 0 0)
(0 0 0)
(0 0 0)
(0 0 0)
(0 0 0)
(0 0 0)
(0 0 0)
(0 0 0)
(0 0 0)
(0 0 0)
(0 0 0)
(0 0 0)
(0 0 0)
(0 0 0)
(0 0 0)
(0 0 0)
(0 0 0)
(0 0 0)
(0 0 0)
(0 0 0)
(0 0 0)
(0 0 0)
(0 0 0)
(0 0 0)
(0 0 0)
(0 0 0)
(0 0 0)
(0 0 0)
(0 0 0)
(0 0 0)
(0 0 0)
(0 0 0)
(0 0 0)
(0 0 0)
(0 0 0)
(0 0 0)
(0 0 0)
(0 0 0)
(0 0 0)
(0 0 0)
(0 0 0)
(0 0 0)
(0 0 0)
(0 0 0)
(0 0 0)
(0 0 0)
(0 0 0)
(0 0 0)
(0 0 0)
(0 0 0)
(0 0 0)
(0 0 0)
(0 0 0)
(0 0 0)
(0 0 0)
(0 0 0)
(0 0 0)
(-0.000170218 -9.88875e-05 -3.15819e-05)
(5.72792e-05 -0.000106171 0.000145342)
(-6.212e-05 0.000101231 6.30887e-05)
(-0.000155497 2.73914e-05 4.22436e-05)
(0.000307188 -1.95972e-05 0.000129645)
(-3.7216e-05 -9.2711e-05 -7.53505e-05)
(0.000175928 2.93256e-05 2.75519e-05)
(5.3737e-05 0.000306129 2.81002e-05)
(-0.000486031 -5.52395e-05 0.000112955)
(-0.000140716 -0.000260858 -7.19603e-05)
(0.000325762 -0.000145598 0.000289448)
(0.000142379 -4.84297e-05 4.47439e-05)
(0.000411401 -2.65983e-05 -0.000120309)
(0.00033344 -8.68052e-05 -6.58389e-05)
(-9.04096e-05 6.17019e-05 -0.00039487)
(0.000141735 -4.8792e-05 0.000258303)
(-0.000310682 -0.00013497 0.00036244)
(1.62248e-07 7.79228e-05 0.000333253)
(-0.000381952 9.3719e-06 0.000835718)
(-0.00018375 -0.000296675 0.00137463)
(-0.000478884 -0.000449264 0.000371028)
(-0.000567416 0.000398317 0.000772084)
(-0.000107806 -0.000213446 0.000501134)
(0.000310366 -0.000421544 0.00105429)
(-0.000178144 -0.00033023 0.00132861)
(-0.000178076 -6.19067e-05 0.00049183)
(-0.000158293 -0.000561559 0.000468967)
(0.000518597 -0.000319464 0.000587445)
(-0.000293459 -3.20416e-05 0.00052944)
(5.80898e-05 -0.000229734 0.000403325)
(-0.000106031 -0.000349937 0.000112105)
(0.000112533 -0.000395463 0.000481308)
(0.000179125 -0.000194123 0.000684379)
(-0.000385637 0.000325708 0.00155385)
(-0.000150393 0.000207377 0.00102046)
(0.000214934 0.000191357 0.00148416)
(-6.05924e-05 0.000140653 0.00126796)
(-0.000276397 0.000401307 0.000798886)
(-0.000102815 -2.2796e-05 0.0012154)
(0.000290823 -1.7143e-05 0.00153322)
(0.000106491 0.000353843 0.00159777)
(0.000178136 0.000196476 0.00117761)
(-5.70466e-05 4.52656e-05 0.000782705)
(8.27123e-05 -5.09981e-05 0.00164266)
(0.000705391 0.00010813 0.00146669)
(0.00010688 -6.301e-05 0.00102584)
(0.000101425 2.92355e-05 0.000674432)
(-0.000173111 0.000155263 0.00117467)
(-0.000105879 0.000117982 0.001015)
(1.72406e-07 0.000220528 0.000788467)
(0.000273796 -6.77381e-05 0.00125914)
(-6.04799e-06 0.000109975 0.000855289)
(8.14329e-05 0.000132601 0.00126109)
(5.26155e-05 -0.000188204 0.00125882)
(-7.9765e-05 0.000318589 0.000724255)
(0.000168952 -2.98535e-05 0.00126928)
(-4.14841e-05 -7.7598e-05 0.00156635)
(-0.000120345 7.29705e-05 0.00166106)
(-6.65711e-05 0.000466848 0.000847109)
(-0.000172781 0.000267921 0.00117914)
(7.75765e-05 -2.32902e-05 0.0014974)
(-2.95145e-06 3.20187e-05 0.00142995)
(-0.000199649 0.000131844 0.00249293)
(-9.90389e-05 0.000115945 0.00107231)
(-3.30758e-05 1.36478e-05 0.00075012)
(0.000388755 -2.44542e-05 0.00153738)
(-0.000326949 -0.000118842 0.000764919)
(-0.000277183 0.000170175 0.000741022)
(-0.000104019 0.000155477 0.00112491)
(0.000206876 9.69356e-05 0.0010598)
(-0.000377265 9.59806e-05 0.000594051)
(-0.000378038 -1.88101e-06 0.000927953)
(-0.000572819 0.000373516 0.00205406)
(0.000299973 -0.000167687 0.00123301)
(-9.97514e-05 0.000196047 0.000962251)
(-3.05992e-05 -8.09392e-05 0.00109839)
(2.62731e-05 -0.000114928 0.00113823)
(5.80295e-05 -0.000446517 0.00163897)
(0.000134666 -0.000190822 0.00143817)
(0.000157705 -0.000236437 0.00118582)
(-2.36352e-05 2.40309e-05 0.000532452)
(-0.00021839 0.000183941 0.000222575)
(-0.000356822 0.00010131 0.000280199)
(-0.000122302 0.000151877 0.000583509)
(-0.000101118 -0.000162339 0.000554814)
(-0.000180319 0.000282247 0.000552992)
(-4.14719e-06 0.000150762 0.000581483)
(-0.000105394 -2.27411e-05 0.000775438)
(-0.00014969 -2.09972e-05 0.00102837)
(-5.7367e-05 -0.000305071 0.000862312)
(2.0554e-05 0.000129102 0.000861908)
(3.92925e-05 -0.00016178 0.000950992)
(-1.0464e-06 2.64474e-05 0.00104353)
(8.29919e-06 -4.03739e-05 0.00113696)
(0.000112213 -2.42798e-05 0.0013157)
(0.000178487 -0.000219134 0.00102179)
(7.79661e-05 -9.82905e-05 0.000459727)
(-0.00029444 0.000162991 0.000371111)
(-0.000764266 0.000340626 3.21259e-05)
(-7.3664e-05 1.29288e-05 0.000444571)
(2.03086e-05 -0.000365101 0.000767783)
(-0.000181799 0.000174134 0.000755184)
(-0.000288728 7.84198e-05 0.000620521)
(-0.000152335 -0.000252047 0.000902445)
(0.0010343 -0.000248993 0.00030906)
(-0.000111344 -0.00056167 0.000712545)
(-7.51822e-05 6.13132e-05 0.000930543)
(-0.000157188 -0.000233799 0.00107182)
(0.00314196 -0.000953011 -0.000722709)
(6.42493e-05 -0.000442166 0.000906277)
(-5.60545e-05 -2.93013e-05 0.0011448)
(0.000252997 -0.000726743 0.000566621)
(0 0 0)
(0 0 0)
(0 0 0)
(0 0 0)
(0 0 0)
(0 0 0)
(0 0 0)
(0 0 0)
(0 0 0)
(0 0 0)
(0 0 0)
(0 0 0)
(0 0 0)
(0 0 0)
(0 0 0)
(0 0 0)
(0 0 0)
(0 0 0)
(0 0 0)
(0 0 0)
(0 0 0)
(0 0 0)
(0 0 0)
(0 0 0)
(0 0 0)
(0 0 0)
(0 0 0)
(0 0 0)
(0 0 0)
(0 0 0)
(0 0 0)
(0 0 0)
(0 0 0)
(0 0 0)
(0 0 0)
(0 0 0)
(0 0 0)
(0 0 0)
(0 0 0)
(0 0 0)
(0 0 0)
(0 0 0)
(0 0 0)
(0 0 0)
(0 0 0)
(0 0 0)
(0 0 0)
(0 0 0)
(0 0 0)
(0 0 0)
(0 0 0)
(0 0 0)
(0 0 0)
(0 0 0)
(0 0 0)
(0 0 0)
(0 0 0)
(0 0 0)
(0 0 0)
(0 0 0)
(0 0 0)
(0 0 0)
(0 0 0)
(0 0 0)
(0 0 0)
(0 0 0)
(0 0 0)
(0 0 0)
(0 0 0)
(0 0 0)
(0 0 0)
(0 0 0)
(0 0 0)
(0 0 0)
(0 0 0)
(0 0 0)
(0 0 0)
(0 0 0)
(0 0 0)
(0 0 0)
(0 0 0)
(0 0 0)
(0 0 0)
(0 0 0)
(0 0 0)
(0 0 0)
(0 0 0)
(0 0 0)
(0 0 0)
(0 0 0)
(0 0 0)
(0 0 0)
(0 0 0)
(0 0 0)
(0 0 0)
(0 0 0)
(0 0 0)
(0 0 0)
(0 0 0)
(0 0 0)
(0 0 0)
(0 0 0)
(0 0 0)
(0 0 0)
(0 0 0)
(0 0 0)
(0 0 0)
(0 0 0)
(0 0 0)
(0 0 0)
(0 0 0)
(0 0 0)
(0 0 0)
(0 0 0)
(0 0 0)
(0 0 0)
(0 0 0)
(0 0 0)
(0 0 0)
(0 0 0)
(0 0 0)
(0 0 0)
(0 0 0)
(0 0 0)
(0 0 0)
(0 0 0)
(0 0 0)
(0 0 0)
(0 0 0)
(0 0 0)
(0 0 0)
(0 0 0)
(0 0 0)
(0 0 0)
(0 0 0)
(0 0 0)
(0 0 0)
(0 0 0)
(0 0 0)
(0 0 0)
(0 0 0)
(0 0 0)
(0 0 0)
(0 0 0)
(0 0 0)
(0 0 0)
(0 0 0)
(0 0 0)
(0 0 0)
(0 0 0)
(0 0 0)
(0 0 0)
(0 0 0)
(0 0 0)
(0 0 0)
(0 0 0)
(0 0 0)
(0 0 0)
(0 0 0)
(0 0 0)
(0 0 0)
(0 0 0)
(0 0 0)
(0 0 0)
(0 0 0)
(0 0 0)
(0 0 0)
(0 0 0)
(0 0 0)
(0 0 0)
(0 0 0)
(0 0 0)
(0 0 0)
(0 0 0)
(0 0 0)
(0 0 0)
(0 0 0)
(0 0 0)
(0 0 0)
(0 0 0)
(0 0 0)
(0 0 0)
(0 0 0)
(0 0 0)
(0 0 0)
(0 0 0)
(0 0 0)
(0 0 0)
(0 0 0)
(0 0 0)
(0 0 0)
(0 0 0)
(0 0 0)
(0 0 0)
(0 0 0)
(0 0 0)
(0 0 0)
(0 0 0)
(0 0 0)
(0 0 0)
(0 0 0)
(0 0 0)
(0 0 0)
(0 0 0)
(0 0 0)
(0 0 0)
(0 0 0)
(0 0 0)
(0 0 0)
(0 0 0)
(0 0 0)
(0 0 0)
(0 0 0)
(0 0 0)
(0 0 0)
(0 0 0)
(0 0 0)
(0 0 0)
(0 0 0)
(0 0 0)
(0 0 0)
(0 0 0)
(0 0 0)
(0 0 0)
(0 0 0)
(0 0 0)
(0 0 0)
(0 0 0)
(0 0 0)
(0 0 0)
(0 0 0)
(0 0 0)
(0 0 0)
(0 0 0)
(0 0 0)
(0 0 0)
(0 0 0)
(0 0 0)
(0 0 0)
(0 0 0)
(0 0 0)
(0 0 0)
(0 0 0)
(0 0 0)
(0 0 0)
(0 0 0)
(0 0 0)
(0 0 0)
(0 0 0)
(0 0 0)
(0 0 0)
(0 0 0)
(0 0 0)
(0 0 0)
(0 0 0)
(0 0 0)
(0 0 0)
(0 0 0)
(0 0 0)
(0 0 0)
(0 0 0)
(0 0 0)
(0 0 0)
(0 0 0)
(0 0 0)
(0 0 0)
(0 0 0)
(0 0 0)
(0 0 0)
(0 0 0)
(0 0 0)
(0 0 0)
)
;

boundaryField
{
    inlet
    {
        type            zeroGradient;
    }
    outlet
    {
        type            zeroGradient;
    }
    wall
    {
        type            zeroGradient;
    }
    procBoundary0to1
    {
        type            processor;
        value           nonuniform List<vector> 
192
(
(0.000303986 -0.000254481 9.30201e-06)
(2.99324e-05 -7.46701e-05 0.000219566)
(4.02732e-05 7.21659e-06 0.000171343)
(8.49919e-05 0.000131204 4.88496e-06)
(2.34106e-05 -0.000377082 8.51979e-05)
(0.000476379 -0.000275962 0.0007896)
(-0.000160583 0.000128909 0.000267595)
(0.000193941 0.0002987 0.000718003)
(-0.000684753 -0.000125638 0.00175651)
(0.000399027 0.0003763 0.00100758)
(0.000256969 0.000104466 0.000759246)
(0.00028165 0.000235376 0.0013126)
(-1.18712e-05 1.90379e-05 0.0012341)
(0.000295814 0.000271198 0.00084647)
(0.000283957 0.000143341 0.000942487)
(0.00020236 0.00012998 0.001137)
(2.5459e-05 -1.11856e-05 0.00171096)
(0.000377178 -0.000234919 0.000988032)
(0.000367595 -0.000208222 0.00117127)
(5.14092e-05 0.000102456 0.00132292)
(4.05022e-07 -0.000202606 0.00110693)
(0.00022935 1.897e-05 0.00104801)
(0.000188126 -0.000119253 0.00112919)
(5.77474e-05 -2.26959e-05 0.00115404)
(7.40804e-06 0.000170306 0.000715396)
(6.91248e-05 5.15842e-05 0.000958583)
(0.000150057 -9.95305e-05 0.00113404)
(-3.43498e-05 -0.000106457 0.00115804)
(0 0 0)
(0 0 0)
(0 0 0)
(0 0 0)
(0 0 0)
(0 0 0)
(0 0 0)
(0 0 0)
(0 0 0)
(0 0 0)
(0 0 0)
(0 0 0)
(0 0 0)
(0 0 0)
(0 0 0)
(0 0 0)
(0 0 0)
(0 0 0)
(0 0 0)
(0 0 0)
(0 0 0)
(0 0 0)
(0 0 0)
(0 0 0)
(0 0 0)
(0 0 0)
(0 0 0)
(0 0 0)
(0 0 0)
(0 0 0)
(0 0 0)
(0 0 0)
(0 0 0)
(0 0 0)
(0 0 0)
(0 0 0)
(0 0 0)
(0 0 0)
(0 0 0)
(0 0 0)
(0 0 0)
(0 0 0)
(0 0 0)
(0 0 0)
(0 0 0)
(0 0 0)
(0 0 0)
(0 0 0)
(0 0 0)
(0 0 0)
(0 0 0)
(0 0 0)
(0 0 0)
(0 0 0)
(0 0 0)
(0 0 0)
(0 0 0)
(0 0 0)
(0 0 0)
(0 0 0)
(0 0 0)
(0 0 0)
(0 0 0)
(0 0 0)
(0 0 0)
(0 0 0)
(0 0 0)
(0 0 0)
(-0.000143275 -2.89799e-05 3.70662e-05)
(6.10274e-05 6.76331e-05 5.5517e-05)
(0.00017671 -0.000279456 7.52394e-05)
(0.000157934 -0.000237073 0.000220341)
(-0.000196876 -0.000127116 0.00107084)
(-0.000636472 -0.000501354 0.000830471)
(4.35713e-05 -0.000355659 0.000771007)
(-5.60683e-05 -8.41943e-05 0.00077876)
(0.000179591 -4.18119e-05 0.00150043)
(-1.24292e-05 0.000248694 0.00143204)
(0.00014283 4.16164e-05 0.00143799)
(-0.000343576 -1.23759e-05 0.00144636)
(0.000146276 7.26565e-05 0.0012802)
(7.09948e-05 0.000337329 0.00140281)
(9.42063e-05 0.000382574 0.00138718)
(5.83492e-06 0.000256457 0.001305)
(-0.000130737 0.000122907 0.000611649)
(-0.000169929 0.000141966 0.000931187)
(0.000221238 1.58277e-05 0.00121425)
(-1.96388e-05 0.00028568 0.00140318)
(5.66768e-05 7.8531e-05 0.000694534)
(-0.000141226 0.000146159 0.000894762)
(-7.47994e-06 -8.00903e-08 0.000939333)
(-1.38745e-05 -0.000460726 0.00116219)
(-0.000156975 -0.000361406 0.000459112)
(-0.000119063 -0.000330034 0.000849452)
(5.56465e-06 9.50485e-05 0.00103514)
(4.2976e-05 -0.000188101 0.00114514)
(0 0 0)
(0 0 0)
(0 0 0)
(0 0 0)
(0 0 0)
(0 0 0)
(0 0 0)
(0 0 0)
(0 0 0)
(0 0 0)
(0 0 0)
(0 0 0)
(0 0 0)
(0 0 0)
(0 0 0)
(0 0 0)
(0 0 0)
(0 0 0)
(0 0 0)
(0 0 0)
(0 0 0)
(0 0 0)
(0 0 0)
(0 0 0)
(0 0 0)
(0 0 0)
(0 0 0)
(0 0 0)
(0 0 0)
(0 0 0)
(0 0 0)
(0 0 0)
(0 0 0)
(0 0 0)
(0 0 0)
(0 0 0)
(0 0 0)
(0 0 0)
(0 0 0)
(0 0 0)
(0 0 0)
(0 0 0)
(0 0 0)
(0 0 0)
(0 0 0)
(0 0 0)
(0 0 0)
(0 0 0)
(0 0 0)
(0 0 0)
(0 0 0)
(0 0 0)
(0 0 0)
(0 0 0)
(0 0 0)
(0 0 0)
(0 0 0)
(0 0 0)
(0 0 0)
(0 0 0)
(0 0 0)
(0 0 0)
(0 0 0)
(0 0 0)
(0 0 0)
(0 0 0)
(0 0 0)
(0 0 0)
)
;
    }
    procBoundary0to2
    {
        type            processor;
        value           nonuniform List<vector> 
192
(
(7.30552e-05 0.000174254 8.64644e-05)
(0.000123822 0.000182231 0.000184765)
(0.000195667 -7.63894e-05 0.000132495)
(3.97982e-05 0.000162597 9.88613e-06)
(1.43111e-05 7.7383e-05 0.000483512)
(-0.000120494 0.000311014 0.000350538)
(-0.000211806 0.000203036 0.00122595)
(0.000243163 -0.000142306 0.000293725)
(0.000141609 -0.000109123 0.000676909)
(0.000133549 -0.000361139 0.000659254)
(-6.82694e-05 5.8253e-05 0.0013285)
(3.93277e-05 0.000455274 0.000901068)
(0.000275975 1.20373e-05 0.000992151)
(0.000268829 -1.83064e-05 0.000843214)
(0.000152898 0.000186231 0.000885766)
(-0.000211304 0.000838061 0.00164354)
(-1.98589e-05 3.74792e-05 0.0009885)
(-1.2366e-05 -7.93052e-05 0.000902103)
(7.78217e-05 -3.60425e-05 0.00108245)
(3.50533e-05 0.00018426 0.0012289)
(0.000152101 -0.000217057 0.000688979)
(-5.89841e-06 -0.000187974 0.000819606)
(2.4441e-05 -0.000114102 0.000996547)
(2.82101e-05 -4.41906e-05 0.00112997)
(-6.08896e-05 -9.73179e-05 0.00066169)
(-0.000111261 -0.00032865 0.00103558)
(-8.81146e-05 -0.000257092 0.000985058)
(-8.45485e-05 -9.20537e-05 0.00116336)
(0 0 0)
(0 0 0)
(0 0 0)
(0 0 0)
(0 0 0)
(0 0 0)
(0 0 0)
(0 0 0)
(0 0 0)
(0 0 0)
(0 0 0)
(0 0 0)
(0 0 0)
(0 0 0)
(0 0 0)
(0 0 0)
(0 0 0)
(0 0 0)
(0 0 0)
(0 0 0)
(0 0 0)
(0 0 0)
(0 0 0)
(0 0 0)
(0 0 0)
(0 0 0)
(0 0 0)
(0 0 0)
(0 0 0)
(0 0 0)
(0 0 0)
(0 0 0)
(0 0 0)
(0 0 0)
(0 0 0)
(0 0 0)
(0 0 0)
(0 0 0)
(0 0 0)
(0 0 0)
(0 0 0)
(0 0 0)
(0 0 0)
(0 0 0)
(0 0 0)
(0 0 0)
(0 0 0)
(0 0 0)
(0 0 0)
(0 0 0)
(0 0 0)
(0 0 0)
(0 0 0)
(0 0 0)
(0 0 0)
(0 0 0)
(0 0 0)
(0 0 0)
(0 0 0)
(0 0 0)
(0 0 0)
(0 0 0)
(0 0 0)
(0 0 0)
(0 0 0)
(0 0 0)
(0 0 0)
(0 0 0)
(3.80469e-05 2.27365e-05 7.34126e-06)
(0.00032771 -0.000151208 0.000179472)
(8.24153e-05 6.76436e-07 0.000222433)
(-0.000170746 0.000352998 0.000133443)
(-4.183e-05 -0.000533379 0.000295005)
(-9.68437e-05 -0.000309238 0.000810312)
(0.000142634 5.48761e-05 0.000649199)
(9.42406e-05 6.28843e-05 0.000476629)
(-1.97379e-05 0.000795488 0.000973407)
(-0.000242011 0.000258092 0.00090742)
(-0.000265905 -3.90182e-05 0.000872064)
(0.00029192 -7.02021e-05 0.000848853)
(4.26257e-05 -0.000162509 0.00143929)
(0.000223325 0.000515702 0.00178361)
(6.61211e-05 8.21289e-05 0.000689964)
(0.000183522 -4.12055e-05 0.000965897)
(0.000121324 5.51196e-05 0.000944465)
(0.000298038 -0.000124719 0.000711279)
(0.000364207 -0.000118468 0.00101976)
(0.000344931 -0.000322865 0.00101001)
(0.000152643 8.7226e-05 0.000585294)
(0.000260951 9.54229e-05 0.000705287)
(0.000191293 2.20481e-05 0.000800456)
(9.28529e-05 -0.00015633 0.000878682)
(0.00163405 -0.00203311 -0.00232927)
(0.000123232 3.09088e-05 0.000364366)
(-0.000157201 -0.000295709 0.00063202)
(5.32778e-05 -0.000150546 0.000557126)
(0 0 0)
(0 0 0)
(0 0 0)
(0 0 0)
(0 0 0)
(0 0 0)
(0 0 0)
(0 0 0)
(0 0 0)
(0 0 0)
(0 0 0)
(0 0 0)
(0 0 0)
(0 0 0)
(0 0 0)
(0 0 0)
(0 0 0)
(0 0 0)
(0 0 0)
(0 0 0)
(0 0 0)
(0 0 0)
(0 0 0)
(0 0 0)
(0 0 0)
(0 0 0)
(0 0 0)
(0 0 0)
(0 0 0)
(0 0 0)
(0 0 0)
(0 0 0)
(0 0 0)
(0 0 0)
(0 0 0)
(0 0 0)
(0 0 0)
(0 0 0)
(0 0 0)
(0 0 0)
(0 0 0)
(0 0 0)
(0 0 0)
(0 0 0)
(0 0 0)
(0 0 0)
(0 0 0)
(0 0 0)
(0 0 0)
(0 0 0)
(0 0 0)
(0 0 0)
(0 0 0)
(0 0 0)
(0 0 0)
(0 0 0)
(0 0 0)
(0 0 0)
(0 0 0)
(0 0 0)
(0 0 0)
(0 0 0)
(0 0 0)
(0 0 0)
(0 0 0)
(0 0 0)
(0 0 0)
(0 0 0)
)
;
    }
}


// ************************************************************************* //
