/*--------------------------------*- C++ -*----------------------------------*\
| =========                 |                                                 |
| \\      /  F ield         | OpenFOAM: The Open Source CFD Toolbox           |
|  \\    /   O peration     | Version:  2506                                  |
|   \\  /    A nd           | Website:  www.openfoam.com                      |
|    \\/     M anipulation  |                                                 |
\*---------------------------------------------------------------------------*/
FoamFile
{
    version     2.0;
    format      ascii;
    arch        "LSB;label=32;scalar=64";
    class       volScalarField;
    location    "0.003";
    object      Ksl;
}
// * * * * * * * * * * * * * * * * * * * * * * * * * * * * * * * * * * * * * //

dimensions      [1 -3 -1 0 0 0 0];

internalField   nonuniform List<scalar> 
512
(
0
0
1.2425
0
0
0
0
0
0
0
0
0
0
0
0
0
0
0
0
0
0
0
0
0
0
0
0
0
0
0
0
0
0
0
0
0
0
0
0
0
0
0
0
0
0
1.3803
0
0
0
0
0
0
0
0
0
0
0
0
0
0
0
0
0
0
0
0
0
0
0
0
0
0
0
0
0
0
0
0
0
0
0
2.62747
0
0
0
0
0
0
0
0
0
0
0
0
0
0
0
0
0
0
0
0
0
0
0
0
0
0
0
0
0
0
0
0
0
0
0
0
0
0
0
0.138091
0
0
0
2.62591
0
0
0
0
0
0
1.38194
0
0
0
0
0
0
0
0
0
0
0
0
0.138041
2.62917
0
0
0
0.82701
0
0
0
0
0
0
0
0
0
0
0
0.138229
0
0
0
1.38069
0
0
0
0
0
0
0
0
0
0
0
0
0
0
0
0
0
2.63053
0
0
0
0
0
0
0
0
0
0
0
0
0
0
0
0
0
0
0
0
0
2.61919
0
0
0
0
0
0
0
0
0
0
0
0
0
0
0
0
0
0
0
0
0
0
0
0
0
0
0
0
0
0
0
0
0
0
0
0
0
0
0
0
0
0
0
0
0
1.27514
0
0
0
0.963159
6.54728
2.16129
0.908833
2.6583
9.66547
6.60763
7.01481
6.25714
1.89916
7.96417
6.0722
3.04002
7.01455
4.20727
4.80181
8.0967
13.0623
1.29161
3.78305
4.7303
8.94013
12.1173
0.0998922
7.20831
9.6588
4.1802
1.42101
7.63574
7.9464
0.215897
9.11041
4.2253
7.85878
3.5212
10.2128
5.65023
16.0954
16.9924
4.59317
13.4694
4.79672
0.996561
5.4225
8.02835
7.35014
5.38642
5.25663
11.7241
11.8547
10.6572
15.5291
5.5985
7.67781
11.1483
12.0857
11.3671
8.39942
0.53783
11.0902
13.6133
2.77869
8.39346
7.62722
13.4875
23.1683
10.2953
2.76096
8.0684
11.6068
11.8695
5.59342
2.14393
17.3309
4.50954
8.83448
5.91554
8.88128
8.22551
12.0714
4.02653
5.68426
2.56856
4.02793
6.07667
9.4676
7.74301
7.74809
5.95817
11.8398
15.2993
11.9794
0.0611141
0.082222
23.6726
0
1.81145
4.02785
5.7018
6.84528
8.81139
13.7689
7.83079
10.1455
8.70533
7.61144
0.30556
16.0742
4.42657
0.708948
7.483
12.6187
4.33316
9.48735
8.48755
18.7226
5.96522
14.6512
6.62374
0.761383
7.12391
12.8452
6.2052
12.0043
7.24151
9.78857
9.96609
4.11758
5.50308
11.3282
8.78816
8.33077
6.77041
10.9599
12.6992
12.6372
12.7818
8.93568
23.7329
10.9061
4.32977
8.06908
9.9368
9.05294
3.83613
8.19645
9.33195
12.6813
11.1782
12.216
13.9619
8.14943
11.8616
6.93025
13.284
8.58532
1.8158
8.6252
1.37105
15.2555
9.67881
5.13455
10.247
4.43283
8.07188
11.0839
13.0906
7.89397
6.95805
8.978
2.15745
0.444009
12.8429
12.3572
9.67553
18.361
8.51415
0.544511
8.26065
14.0422
0.635715
0
2.66619
4.19063
5.50617
1.1661
0.12157
4.16435
12.2422
1.28004
11.1539
16.5933
4.64495
8.0657
14.8411
12.4187
8.45274
6.44153
7.41789
8.77928
6.19637
12.4033
8.60932
4.53784
1.59226
8.16157
16.3956
9.58318
12.5982
12.6639
4.0282
5.18731
0.227673
9.45554
16.3206
10.9575
5.9943
19.9953
9.07367
2.03569
0
9.30917
3.32613
6.66031
0.141523
0.852496
6.14313
8.65194
3.44672
4.50557
7.46466
1.69058
2.48928
14.4468
0.321599
3.14648
6.98943
4.2294
4.82995
3.46312
3.41525
3.35004
0.361266
8.14498
9.19471
3.80683
6.75084
8.35439
6.93616
5.47142
4.63212
13.3218
5.58396
5.39744
16.1155
0.365744
)
;

boundaryField
{
    wall
    {
        type            zeroGradient;
    }
    outlet
    {
        type            cyclic;
    }
    inlet
    {
        type            cyclic;
    }
    procBoundary3to2
    {
        type            processor;
        value           uniform 0;
    }
}


// ************************************************************************* //
