/*--------------------------------*- C++ -*----------------------------------*\
| =========                 |                                                 |
| \\      /  F ield         | OpenFOAM: The Open Source CFD Toolbox           |
|  \\    /   O peration     | Version:  2506                                  |
|   \\  /    A nd           | Website:  www.openfoam.com                      |
|    \\/     M anipulation  |                                                 |
\*---------------------------------------------------------------------------*/
FoamFile
{
    version     2.0;
    format      ascii;
    arch        "LSB;label=32;scalar=64";
    class       volScalarField;
    location    "0.003";
    object      p;
}
// * * * * * * * * * * * * * * * * * * * * * * * * * * * * * * * * * * * * * //

dimensions      [0 2 -2 0 0 0 0];

internalField   nonuniform List<scalar> 
512
(
21.9139
11.1351
-8.25761
-16.3202
-10.5117
-9.11222
8.13842
35.2871
46.219
41.9123
48.333
57.052
59.3583
57.7326
57.3884
65.8321
68.7107
63.9554
65.6319
74.2842
84.7251
78.5364
61.4748
61.4855
54.9989
40.8733
45.2925
59.2682
63.1202
45.2187
30.9273
28.3319
18.2369
5.44263
-10.4818
-18.3243
-7.27182
6.58897
15.3
27.4472
38.9076
40.1384
42.8792
56.3148
62.4658
56.1387
56.8482
68.35
70.704
59.7163
67.1239
82.3971
87.0637
70.3967
55.4496
58.9896
56.1987
41.7625
46.5251
61.7552
61.1026
45.1317
36.7074
30.0316
16.5396
4.17725
-4.65491
-13.6968
-6.76913
5.92292
21.0539
36.4362
36.3282
37.3702
45.4964
54.0202
58.1952
59.2001
64.9548
69.8585
71.7374
70.8332
68.7709
74.6117
80.0711
69.4621
49.4726
47.1047
52.3373
48.6461
49.2726
59.7867
58.0813
43.8159
34.48
29.7891
18.9611
13.3763
-0.0180033
-7.97809
-4.13883
5.85383
20.9995
30.8098
37.0241
45.8135
45.8355
45.8546
51.4507
58.9723
70.368
73.1361
65.7901
70.6702
75.0986
72.8527
73.6584
65.0011
47.7153
47.4422
51.8123
45.8032
47.6241
57.7032
58.4177
47.925
34.5961
24.4569
23.0962
15.8447
-1.05741
-2.09039
5.05855
6.72284
13.4533
30.0519
44.4914
46.5211
42.2782
42.9252
48.1375
58.5776
70.0865
68.8433
66.626
78.1997
81.7623
70.7161
64.7964
59.008
53.0733
50.5847
54.2996
53.1591
47.3702
45.5207
39.9356
44.8158
43.0488
27.0806
21.0583
11.8858
2.27161
4.17174
8.81428
9.49433
10.306
26.2273
40.8638
40.7764
39.6988
41.8832
52.775
63.5776
67.9744
69.2797
71.2833
74.5832
72.9455
67.8589
65.6254
59.7935
65.0999
69.8695
54.6532
42.3001
43.3436
47.0852
44.7097
40.7427
35.2025
26.6482
19.1787
11.7278
8.73525
13.0151
11.2271
12.1829
18.404
22.3649
29.8516
35.3216
33.5062
32.0262
53.3596
74.8965
76.2214
75.801
71.9393
65.3967
61.9128
65.314
73.0332
73.7578
69.4346
67.3866
52.2061
40.9524
43.1426
40.8996
44.7375
43.5967
28.4563
22.6704
11.8533
12.1739
17.0883
19.2984
17.9325
16.9508
18.5556
19.2201
22.2579
27.7568
30.1272
27.3165
45.032
68.8025
86.0608
91.4783
74.768
60.8512
63.808
73.9203
72.6839
69.5719
72.747
65.888
48.2162
37.703
44.6383
51.1286
46.9104
34.6159
23.5077
18.623
14.9491
0.986644
-5.67553
-1.68472
-0.88356
0.610388
10.7078
28.796
45.4606
45.8271
38.4156
47.4365
63.1219
65.0019
54.3517
53.1779
69.0168
81.4917
76.2211
69.8364
73.4791
72.4092
62.6647
53.9819
40.5488
33.5946
53.6429
68.7542
60.2783
51.6511
39.5328
25.5705
15.8866
5.76645
-3.57279
-7.18597
-7.15798
4.41503
22.8182
34.0149
38.4019
40.0559
41.7771
45.9927
55.6216
64.5966
62.0377
57.3921
67.87
77.8736
75.0919
68.6031
70.2391
68.5189
58.8752
54.7095
50.2051
46.1112
50.2887
56.9251
61.577
53.9964
36.4862
24.7211
14.5331
6.88147
-2.80349
-7.11139
-1.36547
10.8396
23.0746
35.8046
40.8102
39.6245
44.3141
48.804
54.5304
61.5012
64.9009
67.2482
70.2215
72.524
72.0268
71.103
70.1253
61.8604
46.2407
40.1475
48.7777
59.2161
58.7737
48.7338
54.6897
56.1972
38.3278
21.7528
24.5181
9.97395
-3.94169
-10.243
2.32941
18.669
21.63
27.0299
36.3003
41.3008
46.9586
46.0298
49.3098
60.6016
67.5142
74.0986
75.1645
72.3566
72.8791
70.5001
66.5732
55.5233
48.4175
50.203
53.429
56.9933
54.1839
49.7364
50.981
42.0299
30.51
29.2166
20.7372
8.97303
-0.734739
0.581488
4.17956
12.5617
26.1842
33.1245
34.7066
38.4775
38.562
42.0851
52.8622
61.2748
64.7031
68.1625
74.9925
79.721
75.7307
68.7543
64.1502
60.6597
56.9035
54.4547
52.0045
49.8703
44.2881
44.8069
50.7646
46.0767
35.4813
28.8432
21.1395
2.82181
-7.85744
6.31396
18.8962
18.9429
27.2549
30.923
26.3749
31.2963
42.0957
47.4571
48.5094
58.0807
70.2246
67.9107
63.9155
75.5751
80.7701
67.9761
64.0102
68.9784
67.0303
58.509
46.5897
41.581
44.4689
49.1705
52.2876
40.6743
29.6505
29.3886
13.7897
12.7949
3.96422
2.81209
13.8895
26.0888
33.2004
28.7965
25.5732
26.7934
28.7125
39.8652
54.9411
64.2287
70.8341
74.4394
74.3588
67.5763
62.0452
70.7148
74.4835
68.9766
66.8938
61.9813
54.1214
40.26
33.4083
47.8298
58.1263
45.3268
27.9885
17.8067
12.106
7.92424
9.65674
18.6838
22.0726
21.1582
23.6999
23.7045
24.371
25.2129
23.4496
32.8371
48.8984
58.3746
79.5184
92.4968
77.288
65.4844
60.7111
68.567
78.2764
72.9229
60.9747
58.3555
58.2549
48.5672
40.8365
42.2182
44.4507
44.5167
32.4677
17.2569
)
;

boundaryField
{
    wall
    {
        type            zeroGradient;
    }
    outlet
    {
        type            cyclic;
    }
    inlet
    {
        type            cyclic;
    }
    procBoundary3to2
    {
        type            processor;
        value           nonuniform List<scalar> 
256
(
29.4826
20.5417
-7.95507
-25.9274
-21.6054
-10.8662
5.63215
26.8868
37.6555
37.2845
45.256
55.8575
61.3896
63.5957
64.5467
73.2688
74.6018
66.5298
71.4614
76.9164
83.498
77.2514
59.285
62.2228
58.7243
40.8619
41.8731
60.5838
68.5497
46.0963
24.4402
24.8345
22.3225
8.05838
-12.3983
-26.6538
-16.2546
-2.50309
7.44869
25.8723
37.6644
36.5114
43.9712
56.8282
61.1023
61.5656
67.1891
74.5937
71.4092
61.0083
72.1316
85.227
86.068
72.1119
54.0416
58.4306
58.4377
41.2886
45.7051
62.708
60.0222
42.2688
39.1962
35.8642
17.5364
7.66732
-5.3254
-19.2796
-14.2704
-3.62581
10.2867
27.4694
37.2348
42.0589
48.5264
60.3886
64.475
58.1467
66.7865
74.0501
66.1052
66.5616
75.3207
81.9539
83.7681
71.3444
53.4164
52.583
50.8803
39.3726
46.4275
61.3103
58.6985
46.2423
37.7273
29.4452
18.7396
22.1232
4.91993
-10.8198
-11.2894
-7.07787
9.30228
28.3282
44.3448
54.8831
50.3972
50.1525
54.527
54.6188
66.0454
73.2335
68.7513
75.6812
78.548
73.7737
74.2076
64.8746
51.7495
50.8902
50.4037
39.8714
48.598
61.7642
54.9239
45.6372
33.1619
16.3269
18.8035
19.352
6.67474
-0.311221
-0.214283
1.6404
8.83544
19.279
41.9874
59.249
52.0042
44.7309
47.2058
53.1424
67.6343
75.2371
73.6579
79.2083
78.2562
71.0046
66.8317
56.9238
51.5829
55.4605
54.2717
43.9709
48.2894
50.4973
37.9211
44.1658
43.3874
22.06
13.7559
8.22543
7.15021
10.9998
7.77373
5.12717
7.43723
12.87
33.1822
51.7602
50.3266
41.4275
50.5494
62.1069
68.5899
71.4775
76.2408
81.5675
73.6608
67.3392
66.3049
57.303
62.9051
67.1205
51.2582
50.5695
50.7718
34.1104
32.5421
44.328
44.8177
27.8536
11.3583
8.84072
12.7042
16.268
10.7874
7.16435
11.4663
12.2489
27.06
46.236
45.7659
33.2219
51.0938
70.2864
73.6344
74.151
69.8735
71.0552
70.0029
69.5244
73.7181
70.8032
70.3856
70.6848
56.9804
50.1299
49.2989
34.0611
31.6445
37.5567
32.5101
22.1326
4.80995
7.06242
13.6684
17.6337
18.2855
15.8689
18.4593
18.788
23.898
35.4565
37.7351
31.5365
46.3489
66.322
79.6339
81.775
69.0384
67.9597
73.6015
74.5589
67.9627
74.2725
78.8655
67.1981
57.0533
51.9487
50.0218
37.594
31.8675
33.0078
25.4047
16.2088
)
;
    }
}


// ************************************************************************* //
