/*--------------------------------*- C++ -*----------------------------------*\
| =========                 |                                                 |
| \\      /  F ield         | OpenFOAM: The Open Source CFD Toolbox           |
|  \\    /   O peration     | Version:  2506                                  |
|   \\  /    A nd           | Website:  www.openfoam.com                      |
|    \\/     M anipulation  |                                                 |
\*---------------------------------------------------------------------------*/
FoamFile
{
    version     2.0;
    format      ascii;
    arch        "LSB;label=32;scalar=64";
    class       volVectorField;
    location    "0.003";
    object      Us;
}
// * * * * * * * * * * * * * * * * * * * * * * * * * * * * * * * * * * * * * //

dimensions      [0 1 -1 0 0 0 0];

internalField   nonuniform List<vector> 
512
(
(0 0 0)
(0 0 0)
(0.028466 4.20365e-08 -0.0984192)
(0 0 0)
(0 0 0)
(0 0 0)
(0 0 0)
(0 0 0)
(0 0 0)
(0 0 0)
(0 0 0)
(0 0 0)
(0 0 0)
(0 0 0)
(0 0 0)
(0 0 0)
(0 0 0)
(0 0 0)
(0 0 0)
(0 0 0)
(0 0 0)
(0 0 0)
(0 0 0)
(0 0 0)
(0 0 0)
(0 0 0)
(0 0 0)
(0 0 0)
(0 0 0)
(0 0 0)
(0 0 0)
(0 0 0)
(0 0 0)
(0 0 0)
(0 0 0)
(0 0 0)
(0 0 0)
(0 0 0)
(0 0 0)
(0 0 0)
(0 0 0)
(0 0 0)
(0 0 0)
(0 0 0)
(0 0 0)
(0.0591167 -1.04914e-07 -0.153169)
(0 0 0)
(0 0 0)
(0 0 0)
(0 0 0)
(0 0 0)
(0 0 0)
(0 0 0)
(0 0 0)
(0 0 0)
(0 0 0)
(0 0 0)
(0 0 0)
(0 0 0)
(0 0 0)
(0 0 0)
(0 0 0)
(0 0 0)
(0 0 0)
(0 0 0)
(0 0 0)
(0 0 0)
(0 0 0)
(0 0 0)
(0 0 0)
(0 0 0)
(0 0 0)
(0 0 0)
(0 0 0)
(0 0 0)
(0 0 0)
(0 0 0)
(0 0 0)
(0 0 0)
(0 0 0)
(0 0 0)
(0.0591869 3.22967e-08 -0.140113)
(0 0 0)
(0 0 0)
(0 0 0)
(0 0 0)
(0 0 0)
(0 0 0)
(0 0 0)
(0 0 0)
(0 0 0)
(0 0 0)
(0 0 0)
(0 0 0)
(0 0 0)
(0 0 0)
(0 0 0)
(0 0 0)
(0 0 0)
(0 0 0)
(0 0 0)
(0 0 0)
(0 0 0)
(0 0 0)
(0 0 0)
(0 0 0)
(0 0 0)
(0 0 0)
(0 0 0)
(0 0 0)
(0 0 0)
(0 0 0)
(0 0 0)
(0 0 0)
(0 0 0)
(0 0 0)
(0 0 0)
(0 0 0)
(0 0 0)
(0 0 0)
(0 0 0)
(0.0592429 4.47143e-07 -0.202775)
(0 0 0)
(0 0 0)
(0 0 0)
(0.0591074 4.10259e-07 -0.0926488)
(0 0 0)
(0 0 0)
(0 0 0)
(0 0 0)
(0 0 0)
(0 0 0)
(0.0591965 6.14047e-07 -0.161072)
(0 0 0)
(0 0 0)
(0 0 0)
(0 0 0)
(0 0 0)
(0 0 0)
(0 0 0)
(0 0 0)
(0 0 0)
(0 0 0)
(0 0 0)
(0 0 0)
(0.0591491 9.14833e-08 -0.0583698)
(0.0592481 1.99843e-08 -0.0890627)
(0 0 0)
(0 0 0)
(0 0 0)
(0.0591827 -7.41141e-08 -0.187816)
(0 0 0)
(0 0 0)
(0 0 0)
(0 0 0)
(0 0 0)
(0 0 0)
(0 0 0)
(0 0 0)
(0 0 0)
(0 0 0)
(0 0 0)
(0.0592586 1.30822e-07 -0.0697994)
(0 0 0)
(0 0 0)
(0 0 0)
(0.0592084 3.7771e-07 -0.172654)
(0 0 0)
(0 0 0)
(0 0 0)
(0 0 0)
(0 0 0)
(0 0 0)
(0 0 0)
(0 0 0)
(0 0 0)
(0 0 0)
(0 0 0)
(0 0 0)
(0 0 0)
(0 0 0)
(0 0 0)
(0 0 0)
(0 0 0)
(0.059191 2.84097e-07 -0.142098)
(0 0 0)
(0 0 0)
(0 0 0)
(0 0 0)
(0 0 0)
(0 0 0)
(0 0 0)
(0 0 0)
(0 0 0)
(0 0 0)
(0 0 0)
(0 0 0)
(0 0 0)
(0 0 0)
(0 0 0)
(0 0 0)
(0 0 0)
(0 0 0)
(0 0 0)
(0 0 0)
(0 0 0)
(0.0590664 1.51186e-07 -0.111469)
(0 0 0)
(0 0 0)
(0 0 0)
(0 0 0)
(0 0 0)
(0 0 0)
(0 0 0)
(0 0 0)
(0 0 0)
(0 0 0)
(0 0 0)
(0 0 0)
(0 0 0)
(0 0 0)
(0 0 0)
(0 0 0)
(0 0 0)
(0 0 0)
(0 0 0)
(0 0 0)
(0 0 0)
(0 0 0)
(0 0 0)
(0 0 0)
(0 0 0)
(0 0 0)
(0 0 0)
(0 0 0)
(0 0 0)
(0 0 0)
(0 0 0)
(0 0 0)
(0 0 0)
(0 0 0)
(0 0 0)
(0 0 0)
(0 0 0)
(0 0 0)
(0 0 0)
(0 0 0)
(0 0 0)
(0 0 0)
(0 0 0)
(0 0 0)
(0 0 0)
(0.0292662 1.25568e-07 -0.147365)
(0 0 0)
(0 0 0)
(0 0 0)
(0.00583779 -2.94795e-08 0.193873)
(0.0211555 -2.35794e-09 0.0559841)
(0.124385 -0.0033873 0.0347995)
(0.0138172 4.68273e-08 0.280451)
(0.016544 2.61813e-08 0.00866639)
(0.0300093 5.21264e-08 0.110451)
(-0.0888449 0.00493791 0.0447626)
(0.01772 -0.018702 0.0028909)
(0.0692953 -0.00194468 0.066941)
(0.0126126 2.48856e-08 0.120847)
(0.0300336 -6.23185e-08 0.130623)
(0.0309543 -5.53215e-08 0.0446985)
(0.00980554 -3.38512e-08 0.0493343)
(0.026056 -2.83623e-08 0.0682014)
(0.031021 1.79591e-08 -0.0363888)
(0.0243177 1.41149e-08 0.0537993)
(0.0176848 0.000551528 0.00358794)
(0.0345494 -1.30177e-07 0.147898)
(0.0120879 -5.83362e-08 0.330818)
(0.0188639 6.23947e-08 -0.0120403)
(0.0350672 1.55073e-07 -0.0400138)
(0.0266981 5.64156e-08 0.0956394)
(0.0206165 3.82081e-08 0.0137439)
(0.00114274 7.23141e-09 -1.52021e-09)
(0.0165862 -7.43335e-08 0.0643054)
(0.0269461 -5.66991e-08 -0.0111282)
(0.0597736 -0.0444105 0.062485)
(0.016729 6.73828e-08 0.209833)
(0.0302751 9.23297e-08 0.0874075)
(0.0295503 3.23747e-08 0.0487397)
(0.00350239 7.18078e-09 0.0239417)
(-0.0129468 0.00102952 0.124103)
(0.00969673 -0.0346428 -0.0343242)
(0.0773899 -0.00388368 0.0800346)
(0.0188934 5.93757e-08 0.0573694)
(0.0385121 1.44693e-07 0.127548)
(0.0213162 2.16336e-08 0.0642268)
(0.0471615 7.78584e-09 0.0816232)
(0.0499803 7.58653e-08 0.0562453)
(0.0197474 -0.0166421 -0.00882681)
(0.00775951 -0.00949774 0.134503)
(0.0150301 -1.07639e-08 0.0136851)
(0.00262245 -5.17873e-08 0.0503326)
(0.0414392 -1.24497e-07 0.10844)
(0.0361788 -3.2364e-08 -0.0107803)
(0.0305416 -8.03117e-08 0.0666067)
(0.0306247 -3.30089e-08 0.117666)
(0.0180189 5.30334e-08 0.0380369)
(0.0272459 -0.00119457 -0.022337)
(0.0400607 -0.0307891 0.0644579)
(0.0376147 -1.94131e-07 0.0568788)
(0.0374744 -0.0791402 0.0440626)
(0.0244323 1.59018e-07 -0.0107221)
(0.0436527 2.15596e-07 0.143937)
(0.0308963 1.31599e-07 0.0408013)
(0.0591359 -7.52224e-09 0.0409059)
(0.041448 1.24689e-08 -0.0473127)
(0.00194732 -0.00426355 -0.0376508)
(-0.0127713 0.0171673 -0.0234925)
(0.0414085 2.82963e-07 0.131006)
(0.0409105 6.55135e-08 0.0850492)
(0.0331705 -3.69933e-08 0.191097)
(0.0248261 1.16187e-07 0.0196242)
(0.0381731 6.26448e-08 0.0394517)
(0.0308315 3.95293e-08 0.205075)
(0.0428567 2.14412e-08 0.0624721)
(0.0583846 1.53098e-07 0.0277354)
(-0.00725604 -0.0232649 -0.0483405)
(0.0591333 1.76158e-07 -0.153995)
(0.0571929 3.65712e-07 -0.063997)
(0.0292319 1.73501e-07 0.0592115)
(0.0133285 0.041222 -0.00444493)
(0.0178025 -9.0792e-08 0.155118)
(0.0517216 -1.77422e-07 0.0889299)
(0.0491725 0.0346085 -0.0254107)
(0.0100676 0.00115968 -0.0353376)
(0.0412614 5.76501e-08 0.0622026)
(0.149389 -0.0179884 -0.02026)
(0.0402632 3.2737e-08 -0.0203592)
(-0.00275145 0.0177764 0.0369151)
(0.0591263 -1.29186e-07 -0.135481)
(0.0282807 0.0503468 0.0191105)
(0.0179215 -3.64482e-08 0.106748)
(0.0122724 -5.65749e-08 0.0753239)
(0.0459089 2.03362e-07 0.0601314)
(0.106803 -0.137937 -0.0230698)
(0.0299724 1.29028e-07 0.119839)
(0.0568717 2.06216e-07 0.0882155)
(0.0228364 2.01045e-07 0.0937192)
(0.0479403 2.92906e-07 0.0372179)
(0.0402916 2.3322e-07 0.0634814)
(0.0499469 4.35172e-08 0.0951227)
(0.334924 0.0497091 0.0018576)
(0.00222546 6.93203e-09 0.0557264)
(0.0494237 3.05294e-07 0.0354049)
(0 0 0)
(0.0336144 0.394612 0.139033)
(0.0591521 3.16885e-07 -0.146111)
(0.0253586 2.60846e-07 0.00505596)
(0.0287495 3.01181e-07 -0.0445888)
(0.0279627 0.00115959 -0.0026483)
(0.0383046 3.86865e-07 0.102904)
(0.045345 3.5653e-07 0.121635)
(0.03136 1.46609e-07 0.0288605)
(0.0231291 -1.24123e-07 0.135957)
(0.0554202 -4.50245e-08 -0.0362896)
(0.00187302 1.33024e-08 0.0222274)
(0.0479145 -0.00421863 -0.0168584)
(0.017923 1.18201e-07 -0.0465569)
(0.0115023 2.9467e-08 0.297767)
(0.0278073 1.63354e-07 0.0552091)
(0.0157779 0.00989923 0.126384)
(-0.00211291 -0.123725 -0.0139527)
(0.054548 -3.13622e-08 -0.0303311)
(0.0270361 -9.6154e-08 0.0461503)
(0.0373674 0.00836876 0.0118835)
(0.0225553 1.68188e-08 0.0359789)
(0.0543851 1.27588e-07 0.101265)
(0.0235687 -7.43125e-08 0.0865018)
(0.0128335 5.98507e-08 0.301255)
(-0.00451844 -0.046351 0.14677)
(0.0397459 0.003293 -0.0358005)
(-0.0149509 0.00224716 0.0848196)
(0.0650042 -0.0166848 0.0519459)
(0.0275776 1.8881e-07 0.0638418)
(0.0330435 2.87721e-07 -0.00408244)
(0.050025 2.79577e-07 0.10705)
(0.0589956 -8.8138e-08 0.188427)
(0.011405 -1.11813e-08 0.0746458)
(0.0240175 1.00118e-07 0.0220459)
(0.0289914 3.43208e-07 0.0959688)
(0.0291044 4.4157e-07 0.0335682)
(0.0373348 4.11729e-07 -0.0244894)
(0.0393889 -0.000176701 0.0636271)
(0.03575 3.10142e-07 0.0843391)
(0.0507292 3.47461e-07 -0.010608)
(0.0299085 3.30404e-09 0.00580704)
(0.0500092 8.29681e-08 0.0220252)
(0.0216014 0.022649 0.015611)
(-0.0313986 -0.00585744 0.0999245)
(0.0229687 9.8619e-08 0.154649)
(0.0591508 -7.57083e-08 -0.111907)
(0.0275942 -0.0107614 0.0335413)
(0.0335671 -4.01862e-08 0.164274)
(0.0291093 5.96355e-08 0.0269819)
(0.0260792 3.44548e-08 0.0154166)
(0.0592258 -2.87959e-08 -0.0159738)
(0.031561 8.69124e-08 0.0650803)
(-0.00292434 -0.046828 0.039188)
(0.0298962 -0.0275477 0.0248616)
(0.0590245 -1.14762e-07 -0.13239)
(-0.00143948 0.0118704 -0.00981267)
(0.0301672 1.92717e-07 0.172177)
(-0.000149758 0.0121474 0.0225286)
(0.0510979 0.00598516 0.0269693)
(0.0240641 5.03378e-08 -0.0194162)
(0.0147343 4.74317e-08 0.135002)
(0.0462993 1.78945e-07 0.125531)
(0.0237725 7.54377e-08 0.309799)
(0.0412543 -3.93639e-08 0.0136476)
(0.0404105 2.46692e-07 0.014428)
(-0.0348917 -0.0492266 -0.0199425)
(0.0452483 -0.00153572 -0.0015461)
(0.0186029 2.14044e-07 0.237704)
(0.0591747 5.79848e-07 -0.049837)
(0.034837 2.75001e-07 0.0484263)
(0.0412401 2.98977e-07 0.130792)
(-0.00480046 -0.0261457 0.104022)
(0.0212203 2.59935e-07 0.0107743)
(0.0578762 4.67525e-07 -0.025213)
(0.00887301 6.89612e-08 -0.038653)
(0.00425748 -7.09223e-08 0.172721)
(0.038425 -2.44594e-07 0.0394438)
(0.0453113 -6.10659e-08 -0.0486249)
(0.0480271 4.87451e-08 0.0777658)
(0.0454812 1.80705e-07 -0.0422041)
(0.120308 0.0769909 0.014038)
(-0.0149789 -0.00836196 0.019548)
(0.0403968 2.50404e-07 -0.100398)
(0.030298 1.0647e-07 0.126472)
(-0.0186401 0.0553859 0.166787)
(0 0 0)
(0.0217896 1.72636e-09 0.165773)
(0.0515572 2.72639e-07 0.122286)
(0.0469483 2.16049e-07 0.0267182)
(0.0564046 -0.0545586 0.154205)
(0.0509575 5.34288e-07 -0.126163)
(0.0309721 3.06137e-07 0.113586)
(0.035404 -0.0101521 0.0402575)
(-0.0191357 -0.0442937 0.0313624)
(0.0552752 3.52832e-07 0.112535)
(0.0463883 3.09334e-07 -0.0513649)
(0.0217494 2.16559e-07 0.0606757)
(0.0591415 3.56115e-07 -0.125428)
(0.0260368 -0.00512961 0.0992184)
(0.0632739 0.0202848 -0.00855045)
(0.0316399 1.63805e-07 0.101507)
(0.0255694 9.05756e-08 -0.00283298)
(0.0369982 -2.06656e-09 0.229624)
(0.0244868 3.97007e-08 0.123)
(0.0312432 3.5472e-07 0.202233)
(0.0415776 4.82755e-07 -0.0014144)
(0.0401798 2.09191e-07 -0.0335571)
(-0.0452608 -0.0413472 0.0382424)
(0.0177753 -5.36251e-08 0.046396)
(0.0398305 7.3894e-08 -0.0611444)
(0.0304481 5.71593e-08 0.0394029)
(0.0416838 1.73709e-07 0.0212421)
(0.0440719 3.50312e-07 -0.044762)
(0.0375779 4.04842e-07 0.0754207)
(0.0153671 1.99661e-07 0.0266286)
(0.0397755 -6.74145e-08 0.157201)
(0.00342927 -6.79003e-08 -0.0328665)
(0.0322619 1.32792e-07 -0.0271298)
(0.0477536 8.91757e-08 -0.038487)
(0.0346946 1.3227e-07 0.0823831)
(0.00500141 -0.0149282 0.0915213)
(0.0507866 -0.0123833 0.0601976)
(0.0811225 0.0114631 0.245297)
(0.0146511 1.53742e-07 0.152658)
(0 0 0)
(0.0216473 -0.000742825 0.0477978)
(0.0128885 2.06699e-07 0.0569418)
(-0.023731 -0.143138 0.0341796)
(0.0191512 -0.147196 -1.41276e-09)
(0.00574716 -0.0018277 0.156706)
(-0.00841832 0.0331661 0.0455726)
(0.0346814 7.58026e-08 0.0903863)
(0.0258434 9.66201e-08 -0.0217626)
(0.0177179 7.41272e-08 0.154097)
(0.0555101 -4.12615e-08 -0.0506733)
(-0.00157983 -0.0089214 -0.00382196)
(0.0476936 -0.0159864 0.00773982)
(0.101867 0.0396081 0.109233)
(0.00190449 2.77726e-08 0.118721)
(0.023371 -2.51279e-08 0.0915522)
(0.0280348 2.95679e-08 -0.0118684)
(0.104547 0.0454342 0.0815715)
(0.0321208 8.90902e-08 -0.10213)
(0.0260625 1.30273e-07 0.0691836)
(0.0192243 1.82226e-07 0.19089)
(0.0110435 1.12397e-07 0.177767)
(0.0075827 1.92507e-08 0.3381)
(0.0643332 0.0669399 -0.0295186)
(0.0224989 -4.73295e-09 -0.00704322)
(0.0272366 0.0662196 0.114377)
(0.0204396 1.7906e-07 0.0240563)
(-0.00530699 0.00742669 0.01907)
(0.0355507 5.03406e-08 0.22148)
(0.057833 -0.0134456 0.0262181)
(-0.0300745 0.00321332 0.0763275)
(0.0310587 -0.000253234 -0.0104268)
(0.036977 2.14872e-07 0.198813)
(0.0197987 7.92389e-08 -0.0537496)
(0.0848947 0.0498645 0.0015525)
(-0.0113233 -0.0887766 -0.0510109)
)
;

boundaryField
{
    wall
    {
        type            zeroGradient;
    }
    outlet
    {
        type            cyclic;
    }
    inlet
    {
        type            cyclic;
    }
    procBoundary3to2
    {
        type            processor;
        value           uniform (0 0 0);
    }
}


// ************************************************************************* //
