/*--------------------------------*- C++ -*----------------------------------*\
| =========                 |                                                 |
| \\      /  F ield         | OpenFOAM: The Open Source CFD Toolbox           |
|  \\    /   O peration     | Version:  2506                                  |
|   \\  /    A nd           | Website:  www.openfoam.com                      |
|    \\/     M anipulation  |                                                 |
\*---------------------------------------------------------------------------*/
FoamFile
{
    version     2.0;
    format      ascii;
    arch        "LSB;label=32;scalar=64";
    class       volScalarField;
    location    "0.006";
    object      p;
}
// * * * * * * * * * * * * * * * * * * * * * * * * * * * * * * * * * * * * * //

dimensions      [0 2 -2 0 0 0 0];

internalField   nonuniform List<scalar> 
512
(
1.93964
2.54037
1.6151
1.02588
1.69733
2.93838
3.34947
1.06094
-1.59039
-1.3219
-0.69767
-1.2275
-0.512523
0.719759
0.567933
0.316982
0.721884
1.18238
2.1611
2.26158
1.91479
1.82394
1.19447
0.88239
0.966858
1.32164
1.45833
1.56399
1.55384
1.60963
1.55653
1.49884
1.29489
1.57686
1.70197
1.45948
1.93029
3.10853
3.4523
0.945743
-1.68784
-1.55947
-1.0075
-1.14222
-0.345954
0.776869
1.05015
0.675753
0.547706
1.12057
1.9478
2.28157
2.25335
1.64995
0.622843
0.907823
1.36451
1.72494
1.71208
1.67408
1.61622
1.72098
1.74024
1.5447
1.10647
1.6408
1.93758
1.97897
2.24673
3.25879
3.46193
0.869418
-1.50211
-0.97417
-0.629304
-0.919298
-0.65836
-0.0981327
0.99628
1.21548
0.627507
1.0143
1.56166
2.05233
2.13324
1.58002
0.548817
0.604682
1.21174
1.53526
1.80581
1.98339
1.74606
1.63123
1.6069
1.18743
1.69274
2.08059
1.82978
1.1541
1.75671
2.63386
3.32838
2.0505
-0.510918
-2.37459
-2.59497
-1.33965
0.0536389
0.190216
0.403172
0.943532
0.750069
0.675738
1.42981
2.24974
2.03407
1.42374
0.880378
0.919703
0.979408
1.40636
2.30102
2.3346
1.98236
1.24255
1.52683
1.68582
2.00992
1.44703
1.82709
2.1058
1.76093
1.76548
1.78777
1.79244
0.266109
-1.80141
-2.78115
-1.49066
-0.574179
0.0514888
1.04035
1.14001
0.488654
0.810551
1.63601
2.08237
1.90582
1.57292
1.33563
1.29645
1.48665
1.91042
2.4254
1.81996
1.64681
1.56801
1.64487
2.10101
1.05475
1.5505
2.83693
3.71959
2.8038
1.4386
0.343239
0.251452
-0.163556
-0.740549
-1.03638
-1.15123
-0.774698
0.547402
0.963041
0.364027
0.695226
1.47318
1.65427
1.85001
1.74423
0.908613
0.669407
1.13259
1.6251
1.72596
1.36907
1.54221
2.01661
2.55423
1.7934
1.05746
0.804972
2.15557
3.40085
3.26087
2.34693
1.20118
0.339455
0.62298
0.512083
-0.0759464
-1.15627
-1.8239
-0.828552
0.135054
1.46164
1.13253
0.587432
1.6629
2.28909
2.05944
1.53541
0.686988
0.385146
0.572183
0.538199
1.28805
1.74855
1.82136
1.76145
2.0916
2.0603
1.18322
1.0182
2.14499
3.22767
3.26926
2.75989
1.64328
0.611697
0.597142
0.707434
-0.420427
-1.95671
-2.17395
-0.493412
0.967566
1.62697
0.774827
0.328934
1.66229
2.45498
1.41012
0.601558
0.84186
0.614996
-0.0676264
1.10684
1.99113
1.98405
1.87858
1.88482
1.72993
1.70564
1.37746
2.37319
1.47984
0.881081
1.60149
2.65075
3.45851
2.78287
0.609634
-1.78815
-2.18374
-1.00628
-0.539195
-0.438194
0.307994
1.09769
0.947989
0.769792
0.955738
1.80925
2.43362
2.54209
1.32972
-0.118064
0.158448
1.02186
0.99338
0.943635
1.85456
2.48672
2.09164
2.21922
2.74441
1.78618
1.53115
1.75717
2.29607
3.37624
3.66095
2.13851
-0.0147843
-1.75364
-1.49722
-1.09165
-0.685964
-0.455274
0.296921
1.04114
1.34576
1.02303
0.880559
1.91361
2.25071
1.99713
1.3321
0.408104
0.489481
1.05828
1.49764
1.31419
1.53608
1.8851
1.77298
1.94047
1.9535
1.43042
1.9784
3.15529
2.86846
2.68282
3.28015
3.15517
0.601082
-1.65626
-1.38549
-0.830171
-0.967242
-0.933991
-0.296262
0.410483
0.458271
0.607481
1.25854
2.18928
2.47636
2.20546
1.3677
0.0953124
0.480591
1.22213
1.20784
1.58492
2.0794
1.63648
1.47346
2.14982
2.0795
2.42065
2.48682
2.05801
1.71056
2.07597
2.76666
3.40733
1.73456
-0.415086
-2.17176
-2.64152
-1.52839
-0.48733
0.36735
0.848201
0.652159
0.882896
1.39735
1.65362
2.00546
2.1196
1.17565
0.326724
1.17802
1.69809
1.65718
1.5787
1.33959
1.38732
1.35875
1.44051
2.10274
1.5458
1.63988
1.74551
2.31491
2.77382
2.57889
1.90942
0.822057
0.164032
-1.22893
-1.98082
-2.04093
-0.331887
1.02055
1.62032
1.01595
0.58734
1.01585
1.47334
1.68831
1.73518
1.14304
0.791701
1.27198
1.7518
1.6887
1.67287
1.53067
1.42436
1.8362
1.77657
1.39582
0.565659
0.54143
2.1576
3.39613
2.92686
2.06886
1.0974
0.677168
1.13165
0.240566
-1.33441
-1.83135
-0.397088
0.945984
0.988447
0.796857
0.964239
1.13126
1.02179
1.29334
1.5091
1.4636
0.992823
0.714704
1.14761
1.75025
1.79413
1.9353
2.50915
2.51797
1.75984
0.95939
0.978084
1.0349
2.47844
3.21208
2.18835
1.24159
1.15516
1.04252
0.663847
0.0960504
-0.98588
-1.58663
-0.573056
1.14009
1.75173
0.87641
0.714309
1.36084
1.70697
1.48292
1.14357
0.653055
0.57179
0.506012
0.747627
1.42631
1.7935
2.07337
2.5479
2.23223
1.51131
1.39213
0.99884
1.09665
2.85433
3.40928
2.06957
0.99257
0.891188
0.670153
0.0330825
-0.577818
-1.12071
-1.24616
0.402754
1.45892
1.48816
0.725338
0.236495
0.878277
1.44125
1.00061
0.703378
0.773065
1.00365
1.25524
1.43811
1.83804
2.06532
2.31384
2.53072
2.01312
1.70245
1.88889
)
;

boundaryField
{
    wall
    {
        type            zeroGradient;
    }
    outlet
    {
        type            cyclic;
    }
    inlet
    {
        type            cyclic;
    }
    procBoundary2to1
    {
        type            processor;
        value           nonuniform List<scalar> 
256
(
1.14529
2.67521
2.74357
1.2683
0.530267
1.23469
1.84544
1.21059
0.439743
0.353434
-0.827424
-2.44026
-1.33733
0.901813
2.1395
0.880524
-0.420794
0.52579
1.69713
2.26907
2.2674
1.69968
1.1813
1.69709
2.03239
1.3569
1.66714
1.67357
0.909101
1.00519
1.35185
1.06035
0.900313
2.65602
2.83369
1.43221
0.814769
1.61468
2.09353
1.06114
-0.214331
-0.269392
-0.519575
-1.37436
-1.46568
0.504418
1.82861
0.900632
-0.20757
0.569267
1.45721
1.86784
2.19685
1.60381
0.971703
1.43715
2.18013
1.99102
2.15131
1.81859
1.00886
1.04797
1.15546
0.773919
0.754027
2.20163
2.34699
1.64124
1.63405
2.189
2.78012
1.25643
-1.10707
-0.756516
-0.643111
-1.33431
-0.744871
0.622752
1.03068
0.518445
0.751228
1.28487
1.27474
1.3893
1.86493
1.47997
1.06886
1.5043
1.81123
1.70114
1.80204
1.82039
1.62543
1.30695
1.24219
0.588537
0.74609
1.82668
2.3061
1.84116
1.96768
2.66607
2.95701
1.05136
-1.34425
-1.98355
-1.55478
-0.514167
0.124832
-0.211611
-0.306479
0.817767
1.22439
1.21015
1.44637
1.43975
1.52752
1.61932
1.79682
1.64554
1.53994
1.30612
1.47046
1.96111
2.50874
1.79579
1.5586
0.640357
1.67153
1.75645
2.15244
2.11193
2.52704
2.69516
1.97819
0.226083
-1.488
-1.61615
-1.21468
-1.0655
-0.210455
0.0782588
0.027742
0.399006
0.669621
1.21336
1.63135
1.7429
1.81618
1.79335
1.3915
1.40998
1.91926
2.05139
1.83652
1.43335
2.15712
1.98753
1.19133
1.18336
1.53766
1.48013
2.63707
3.63882
3.42288
2.02502
0.323075
-0.676697
-0.809151
-0.755248
-0.918886
-1.46408
-0.78928
-0.115558
0.0405666
0.572788
1.10919
1.53987
1.92038
2.33194
2.27564
0.977878
0.0870558
0.592299
1.6402
2.19231
1.59032
1.20233
1.75456
2.33224
1.68653
1.7494
0.881847
1.53211
3.38961
4.48856
2.84058
0.934673
0.168096
0.177569
-0.232386
-0.592581
-1.15333
-1.97761
-1.1528
0.13345
0.71635
0.646185
0.926766
1.58758
2.0982
2.81681
2.25222
0.993358
-0.0268876
0.120122
1.38252
2.13997
1.99286
1.24509
0.865243
2.15478
2.77728
1.86445
0.987114
2.03989
3.00374
3.24237
2.53741
1.54111
1.02947
0.523936
-0.249418
-0.65628
-1.3092
-1.87352
-0.855121
0.208681
1.2506
1.05971
0.710372
1.31766
1.95429
1.85739
1.44064
1.06051
0.381302
0.221563
1.11679
2.14893
2.08065
1.58408
1.16395
1.37713
2.21426
1.7578
)
;
    }
    procBoundary2to3
    {
        type            processor;
        value           nonuniform List<scalar> 
256
(
2.40478
2.58428
1.77387
2.01016
3.04139
3.01541
1.8822
0.423258
-1.43526
-2.50358
-1.75964
-0.611665
-0.380338
-0.158474
0.679614
1.27276
1.54228
1.43029
1.48214
2.12722
2.33539
1.36294
0.3353
0.480466
0.992392
0.983678
1.16514
2.07547
2.29598
1.85023
1.93352
2.14148
2.03683
2.40364
2.41795
2.64416
3.52709
3.36201
0.82869
-1.04953
-1.4043
-1.46876
-1.5176
-0.504331
0.19744
0.296224
0.897321
1.32385
1.46022
1.60495
1.81669
1.84086
1.60443
1.0717
0.746244
0.589217
0.709275
0.771012
1.27206
2.00612
1.94991
1.49215
1.41715
1.76365
1.94639
2.67085
3.24039
2.82143
2.84927
3.06083
1.74762
-0.311019
-1.53903
-1.77545
-1.31553
0.0547194
0.324869
-0.152376
0.286121
0.860792
1.07059
1.02831
1.29129
1.67029
1.9299
1.44127
0.466369
1.06986
2.09738
1.7949
1.26486
1.23959
1.40658
1.50788
1.50102
1.59583
1.77734
2.28448
2.23239
2.16501
2.6074
2.74252
1.70961
0.179928
-0.541693
-1.39354
-1.93337
-0.346886
0.655069
0.698966
0.453181
-0.0123375
0.0648352
1.42074
1.91875
1.53693
1.76009
1.29985
0.585568
1.30739
2.42007
2.10278
1.30827
1.47981
1.59919
1.57849
1.12487
0.929259
1.63573
1.78713
1.67351
2.49006
3.31491
2.66454
1.41821
0.63455
-0.201384
-1.263
-2.37496
-1.12707
0.667834
1.13458
0.639187
0.27948
0.729165
1.39851
1.27193
1.03748
1.17622
1.12625
0.844949
1.29701
1.73843
1.56987
1.54763
1.4462
1.3978
1.59753
1.43686
1.28039
1.53579
1.56773
1.87321
2.6576
3.06979
2.75294
1.94525
0.442502
-0.660152
-0.733247
-1.26815
-1.40329
-0.127447
0.784428
0.833966
0.652176
0.7834
1.23093
1.24212
1.27058
1.46158
1.37788
0.98704
0.879615
1.15668
1.60968
1.76762
1.84725
1.9572
1.51312
1.05614
1.08921
1.53352
1.83233
2.25165
2.46235
2.03128
1.87441
2.15302
0.961844
-0.377205
-0.278898
-0.494709
-0.68446
0.323588
0.890094
0.880836
-0.00057383
-0.435098
0.513927
1.24729
1.65006
2.07027
1.57468
0.983841
0.813699
0.909617
1.17381
1.7082
2.03251
2.0937
1.48018
1.27061
1.37238
1.63531
1.97003
2.45631
2.10895
1.32237
1.38902
1.30684
0.683507
0.282193
0.314982
-0.0549155
-0.46708
0.676821
1.82635
1.45725
0.19996
-0.961961
-0.110269
1.02495
1.47836
1.06339
0.843872
1.30296
1.39499
1.56433
1.97725
2.0899
1.7877
1.18245
1.20059
1.73177
1.74015
)
;
    }
}


// ************************************************************************* //
