/*--------------------------------*- C++ -*----------------------------------*\
| =========                 |                                                 |
| \\      /  F ield         | OpenFOAM: The Open Source CFD Toolbox           |
|  \\    /   O peration     | Version:  2506                                  |
|   \\  /    A nd           | Website:  www.openfoam.com                      |
|    \\/     M anipulation  |                                                 |
\*---------------------------------------------------------------------------*/
FoamFile
{
    version     2.0;
    format      ascii;
    arch        "LSB;label=32;scalar=64";
    class       volVectorField;
    location    "0.006";
    object      U;
}
// * * * * * * * * * * * * * * * * * * * * * * * * * * * * * * * * * * * * * //

dimensions      [0 1 -1 0 0 0 0];

internalField   nonuniform List<vector> 
512
(
(9.95441 -0.0638228 -0.112329)
(9.93164 -0.00259219 -0.0782485)
(10.0125 0.02643 0.0265896)
(10.0937 -0.0145796 0.108083)
(10.0734 -0.00821609 0.0795106)
(9.97833 -0.00532161 -0.145548)
(9.71157 -0.0197775 -0.109204)
(9.81698 -0.0268563 -0.0822903)
(10.1038 -0.00639119 -0.000164514)
(9.96988 -0.0054877 0.0457198)
(9.94544 0.0219562 0.073823)
(10.1139 0.0261172 -0.0178012)
(10.109 0.0173025 -0.0580154)
(10.0073 0.0378138 -0.0343652)
(10.0289 0.0344467 0.00128869)
(10.0687 -0.0168045 0.0396179)
(10.0498 -0.014524 -0.0129403)
(9.99336 -0.050557 -0.0713742)
(9.90937 -0.00501788 0.00553798)
(9.89191 0.0227762 0.0201298)
(9.91839 0.00723841 0.0386779)
(9.91204 -0.0498011 -0.0948213)
(10.0001 0.00052678 -0.12081)
(10.0353 0.0154448 -0.0784644)
(9.99731 0.0183572 -0.000436834)
(10.0241 0.0174318 -0.00116294)
(10.0677 0.0133901 -0.00904841)
(9.94391 0.00266049 0.107488)
(9.90954 -0.0307653 0.137004)
(10.0702 0.0553114 0.0890965)
(10.0849 0.0663888 0.0771263)
(10.0734 -0.0608577 -0.0055193)
(10.0542 0.00266052 -0.0651326)
(10.0573 0.0750052 -0.0614591)
(10.1607 0.0468076 0.0369017)
(10.2364 -0.0527162 0.140068)
(10.2345 -0.0273096 0.148531)
(10.0614 -0.021451 -0.11669)
(9.79384 -0.0364429 -0.0931675)
(9.92274 -0.038595 -0.0501731)
(10.2139 0.00848235 -0.0125625)
(10.1421 0.0182869 0.00228698)
(10.1297 0.0241381 0.0359585)
(10.198 -0.0118785 0.0198361)
(10.1449 0.00234181 -0.05131)
(10.1184 0.065397 -0.0481101)
(10.1333 0.0231242 0.0545835)
(10.123 -0.0303357 0.0669417)
(10.1766 -0.0236275 -0.0107971)
(10.1751 -0.0546954 -0.0229969)
(10.1028 -0.0201622 -0.00724707)
(10.1014 -0.00141624 -0.0269315)
(10.049 -0.0228922 0.00213011)
(9.92413 -0.0442929 0.0340329)
(10.12 -0.0199382 -0.0594903)
(10.2026 -0.0196358 -0.0798041)
(10.1003 -0.0295596 -0.00199462)
(10.1111 0.0133145 -0.0306198)
(10.1228 0.0431165 -0.0575244)
(10.0799 0.018756 0.0815617)
(10.1018 0.00483968 0.0908434)
(10.071 0.0498991 0.0326552)
(10.0294 0.0625098 0.0383362)
(10.0543 -0.0404952 0.0623349)
(10.1038 0.0655466 -0.0105005)
(10.075 0.0806206 0.0289286)
(10.2133 -0.0044646 0.0599435)
(10.255 -0.0288951 0.0476619)
(10.25 -0.0144384 0.0751395)
(10.0352 0.00219945 -0.0842881)
(9.77298 0.0217474 -0.0778266)
(9.89717 -0.0197191 -0.0480583)
(10.2292 -0.0422463 0.0126112)
(10.0883 -0.00583004 0.0140698)
(10.0217 0.0356755 0.00911127)
(10.2353 0.0682262 0.000178749)
(10.2813 0.0170795 -0.033747)
(10.2179 -0.0651297 -0.0578723)
(9.98257 -0.00963949 -0.00469923)
(9.9673 0.00402333 -0.0255069)
(10.1468 -0.0466136 -0.0329295)
(10.1596 -0.0479251 0.0269895)
(10.121 -0.0106961 0.0527258)
(10.0814 -0.0357431 0.00597613)
(9.9805 -0.0270142 0.00628209)
(9.98899 0.0446835 -0.0201091)
(10.1357 -0.0251077 -0.0762087)
(10.1606 -0.0588129 -0.0704112)
(10.176 -0.0206177 -0.0148633)
(10.1607 0.0319487 0.00795369)
(10.1169 0.0866512 -0.00429905)
(10.0502 0.0246625 0.0635482)
(10.0894 -0.0185481 0.0908966)
(10.0562 -0.0515143 0.0595394)
(9.99829 -0.0658203 0.053788)
(10.1013 0.0161462 -0.0214894)
(10.1791 -0.0622219 0.0356914)
(10.1304 -0.0640002 0.0195346)
(10.0416 0.0752136 -0.0145105)
(10.1751 -0.0361144 -0.0153068)
(10.1965 -0.103001 -0.0305606)
(10.151 -0.105961 -0.0175044)
(9.88431 0.00257208 0.0526631)
(9.87882 -0.000251917 0.0361948)
(9.974 -0.0868657 0.0101647)
(10.2439 -0.023692 0.059513)
(10.2576 0.0454688 -0.0268888)
(10.2131 -0.0131541 -0.0521414)
(10.0938 -0.00988713 0.00543748)
(10.064 0.0187867 0.0275307)
(10.087 0.0375813 0.0105077)
(10.0939 -0.00335694 -0.017251)
(10.1409 -0.0168059 0.002523)
(10.1956 -0.000200319 0.00014835)
(10.1585 0.0119008 -0.0114918)
(10.0989 -0.00854913 -0.0147237)
(10.0294 -0.0850588 0.0166282)
(10.0857 0.0167486 -0.0411313)
(10.1327 0.0856446 -0.0665695)
(10.1144 0.0449775 -0.0203138)
(10.1466 0.0189238 0.0106201)
(10.1305 0.0105457 -0.00811878)
(10.163 -0.0584751 -0.00076393)
(10.0296 -0.0273341 0.000720634)
(9.98451 -0.0523907 0.0138208)
(10.1442 -0.0453161 0.0413648)
(10.1498 0.115305 0.0528547)
(10.1408 0.119513 0.0131752)
(10.0605 0.102572 -0.0174737)
(10.0726 0.0713105 0.0463605)
(10.053 0.0777882 0.0276627)
(10.0589 0.0898379 -0.0226347)
(10.079 -0.135594 -0.0349433)
(10.1015 -0.178585 0.00134866)
(10.1385 -0.0635016 0.0304451)
(9.88574 0.0915529 0.0374241)
(9.90645 0.0564154 -0.0165258)
(10.2684 0.00304122 0.0266028)
(10.2531 -0.0215149 -0.0211207)
(10.1626 -0.0116211 -0.0458991)
(10.1164 0.0726865 0.0184803)
(10.0821 0.02231 0.0710425)
(10.0116 -0.0344811 0.0244868)
(10.0385 -0.0101119 -0.00672657)
(10.184 0.0285182 -0.00929986)
(10.1858 -0.0088759 0.00373948)
(10.0893 -0.0346794 0.00975207)
(10.0817 -0.0214913 0.00367883)
(10.0855 -0.0206135 -0.0393549)
(10.0969 0.0119628 -0.0295237)
(10.1484 0.0288599 -0.0246016)
(10.1399 0.0250257 -0.0447189)
(10.1336 0.0150818 -0.0469696)
(10.1232 -0.0136189 -0.0249054)
(10.0558 -0.0182591 0.000636153)
(10.0481 -0.0462629 -0.028745)
(10.0888 -0.0158389 0.0111123)
(10.1363 -0.0673272 0.0536875)
(10.1598 -0.0126004 0.0277829)
(10.0916 0.0745757 -0.0413727)
(10.176 0.0637888 -0.0177499)
(10.2295 0.14326 -0.0386856)
(10.0385 0.0688687 -0.051123)
(9.93377 0.0535869 -0.0193971)
(9.93943 -0.0580623 0.0349262)
(10.0149 -0.119178 0.0747546)
(10.0887 -0.00869249 0.0626105)
(10.0757 0.0595736 0.0412484)
(10.0958 0.0297864 -0.0206234)
(10.1636 -0.0425339 0.0203982)
(10.1418 -0.0437117 0.0283781)
(10.145 0.0276786 0.0310298)
(10.1592 0.0883411 0.0289848)
(10.0729 0.0389464 0.0184621)
(10.0882 -0.00795962 -0.00553971)
(10.2082 -0.0179076 -0.0293313)
(10.1798 0.0423542 -0.00871014)
(10.1319 0.0308902 -0.0181783)
(10.0442 -0.0411116 -0.0764585)
(10.0354 -0.014923 -0.0486272)
(10.0312 0.00651129 -0.0247249)
(10.128 -0.0391109 0.00614425)
(10.146 -0.0692457 0.0316747)
(10.1009 -0.0507824 -0.026517)
(10.1174 -0.00194699 -0.043962)
(10.1143 0.0260621 -0.0079792)
(10.0806 -0.00398719 0.0616113)
(10.1526 0.0179101 0.027351)
(10.1275 0.0774935 -0.000890984)
(10.0243 -0.00541497 0.00106937)
(10.0546 -0.0854742 0.00753604)
(10.0837 -0.116772 -0.0435282)
(10.2123 0.0126453 -0.00935421)
(10.2423 0.0374922 -0.0389608)
(9.98238 -0.0253285 -0.0335939)
(9.97069 -0.0118038 0.00319052)
(9.97655 0.0103412 0.0391246)
(10.0245 -0.00392165 0.0546147)
(10.1193 0.0234128 0.0389972)
(10.1194 0.00611079 0.0161577)
(10.0589 -0.0209539 0.0215295)
(10.0848 -0.047655 0.0555691)
(10.1877 -0.032713 0.066318)
(10.2535 0.0247104 0.048989)
(10.2254 0.000928533 0.0528286)
(10.138 0.0586391 0.0559653)
(9.93497 0.0150805 -0.0182829)
(9.95885 -0.0234828 -0.0300479)
(10.1596 0.0492103 0.00591618)
(10.1441 0.0733361 0.00571094)
(10.0085 -0.0582149 -0.0420356)
(10.0061 -0.0846905 -0.0296787)
(10.0576 -0.0262509 0.0140549)
(10.0978 0.00773437 0.0126194)
(10.1314 -0.0589853 -0.0182801)
(10.1478 -0.022151 -0.0373672)
(10.1546 0.0455926 -0.0291126)
(10.1322 0.0198557 -0.0768145)
(10.1375 -0.00572102 0.0620748)
(10.1354 -0.0187103 0.131944)
(10.1619 0.00656195 -0.0574971)
(10.079 0.0457554 -0.181229)
(10.0347 -0.010785 -0.0112724)
(10.0296 -0.0758716 0.0461279)
(10.1311 0.0115419 0.00368731)
(10.1394 0.0270584 0.0342403)
(9.90337 0.018478 0.0149772)
(9.91417 0.022001 -0.010595)
(9.8846 0.0237033 -0.00757327)
(9.87306 0.024146 0.010551)
(10.0051 0.0503539 0.000570886)
(10.0265 0.00798253 -0.0260383)
(9.85171 -0.0205299 0.00525032)
(9.84867 -0.0135938 0.0395226)
(10.1265 0.00452025 0.0374518)
(10.1654 0.0221594 0.037209)
(10.1322 0.00443253 0.045745)
(9.9923 -0.0287912 -0.0497217)
(9.92828 -0.0144787 -0.00172212)
(10.0135 -0.00366608 0.0363057)
(10.0982 -0.0189356 0.00513275)
(10.0611 -0.0262893 -0.000890383)
(9.86168 -0.0741536 -0.00803485)
(9.90074 -0.0580609 0.00851642)
(10.0392 -0.0240684 -0.0773263)
(10.0289 -0.011768 0.00513439)
(10.0417 -0.000814793 0.0363723)
(10.0683 0.0600757 -0.0080254)
(10.03 0.0218067 -0.023065)
(9.96743 -0.0257243 -0.0386746)
(9.92489 0.00785107 0.0918204)
(9.94305 0.0469071 0.132311)
(10.0389 -0.0252033 -0.0326372)
(9.96543 -0.0244948 -0.0776427)
(9.92173 0.00297625 0.000614298)
(10.0106 -0.00162786 0.01036)
(9.94379 -0.0278889 -0.0320973)
(9.8369 -0.0412681 -0.00773446)
(10.051 -0.00869601 0.0624256)
(10.1037 0.0146961 0.0692784)
(10.0725 0.0186666 -0.0539886)
(9.76557 -0.0314169 -0.233677)
(9.6977 -0.0323143 -0.00307241)
(9.80728 -0.0175358 0.0966984)
(10.0619 0.0104623 -0.0158806)
(10.0513 0.00276108 0.00928177)
(9.98984 0.0128281 0.0416686)
(10.0078 0.0158968 -0.00406946)
(10.0344 -0.00501424 -0.0615931)
(9.98185 0.0133801 -0.0483405)
(9.96459 0.0402348 0.0307724)
(10.0037 0.0150425 0.0130108)
(10.0236 -0.0365661 -0.025904)
(10.0419 0.0127367 -0.0302639)
(10.0327 0.0396771 -0.015315)
(9.91303 0.00530063 0.0478239)
(9.8996 0.0210522 0.00918172)
(9.90787 -0.00140265 0.00294383)
(10.0586 0.0141783 -0.0147483)
(10.0357 0.0276005 -0.0205776)
(10.0346 0.0468771 -0.0220774)
(10.0703 -0.0186106 -0.00452377)
(10.095 -0.0492518 0.0280663)
(9.90035 -0.0624953 0.055753)
(9.80157 -0.0919225 0.0479575)
(10.0569 0.0060376 0.0735696)
(10.0901 0.0498641 0.0877222)
(10.1071 -0.0230727 -0.000629464)
(10.1792 -0.0124027 -0.031459)
(10.1956 0.135605 0.012934)
(10.1796 0.106569 0.0453265)
(10.1607 -0.0426512 0.0288982)
(10.2003 -0.0199504 -0.0334709)
(9.88778 0.00813618 -0.142837)
(9.83853 -0.0235029 -0.0876631)
(10.0509 -0.056249 0.0942206)
(10.181 0.0281469 0.0471764)
(10.154 0.005251 0.021117)
(10.1148 -0.0371226 0.0552324)
(10.1231 -0.0276331 0.0383167)
(10.1678 -0.0444509 -0.0326941)
(10.1583 -0.0438429 -0.0357883)
(10.1087 0.0312405 -0.0148068)
(10.0325 -0.00177788 0.0375715)
(10.0355 -0.0237195 0.0223056)
(10.1459 0.0163776 -0.00716534)
(10.1589 0.039725 0.0275084)
(10.0893 0.0166751 0.00712047)
(10.0469 0.0142006 0.0123031)
(10.0314 -0.0140136 0.00827417)
(10.1404 -0.00239881 -0.0409557)
(10.132 0.00435079 -0.0458147)
(10.1018 0.0450226 -0.0397568)
(10.1233 0.0426446 -0.0177462)
(10.115 -0.0424828 0.00754655)
(10.062 -0.0437402 0.0533579)
(10.0926 -0.025624 0.0678055)
(10.1593 0.0374176 0.00545815)
(10.1069 0.00774597 0.00600746)
(10.106 -0.0472232 0.0113854)
(10.2262 0.0469485 0.0231204)
(10.222 0.0953446 -0.000331362)
(10.1805 0.0471771 0.0318239)
(10.1381 -0.0719914 0.00242443)
(10.1376 -0.0697197 0.00279207)
(9.98264 0.0879599 -0.143253)
(9.85008 0.0500572 -0.0185816)
(9.94837 -0.0229205 0.062128)
(10.2014 -0.0363268 -0.0283315)
(10.1127 -0.00347853 -0.0416451)
(10.0895 -0.0179828 0.0390768)
(10.12 -0.0365923 0.0404489)
(10.1885 -0.0110691 -0.0452403)
(10.1528 -0.0237947 -0.0517114)
(10.0865 -0.0212438 -0.00440945)
(10.0704 0.0135861 -0.00856199)
(10.153 0.0263767 -0.0555762)
(10.1621 0.0046123 -0.0667113)
(10.1099 -0.0532437 -0.0719144)
(10.0104 -0.00228692 0.00549641)
(9.99334 -0.0313927 0.0457581)
(10.1052 0.0193533 0.0117868)
(10.1963 0.0552682 0.0441848)
(10.1477 0.0190718 0.0478677)
(10.1176 -0.00791659 0.0307182)
(10.148 0.0175085 -0.0496509)
(10.0587 -0.010411 -0.0672121)
(10.0368 -0.00752571 -0.00106389)
(10.1111 0.0212787 0.0412039)
(10.1525 -0.0281793 0.0152861)
(10.1037 -0.0217865 0.0525264)
(10.1006 -0.015854 0.0743926)
(10.1425 -0.0168888 -0.0129351)
(10.0386 -0.0367899 -0.0164935)
(10.1103 -0.0124517 0.013614)
(10.2 -0.0179267 0.00117166)
(10.1507 -0.0939467 -0.0305161)
(10.0814 -0.0442655 -0.0959563)
(9.9057 0.00670289 -0.022908)
(9.92583 0.0520944 0.0569057)
(9.97197 0.0125427 0.0523145)
(10.2095 -0.0338451 0.0649194)
(10.241 -0.0121479 0.0425032)
(10.1527 0.00126667 0.0022759)
(10.1143 0.10224 -0.00121902)
(10.143 0.0866103 0.0027167)
(10.1509 0.0266459 -0.0243903)
(10.1222 -0.0150294 -0.0167159)
(10.1403 -0.0108586 0.0251377)
(10.1492 -0.015044 0.0113342)
(10.1388 -0.0138907 -0.00840845)
(10.0976 -0.0227059 0.041231)
(10.0135 -0.0376201 0.0366597)
(10.0825 0.0265895 -0.0247335)
(10.2036 0.0588918 0.00527634)
(10.1335 0.0229505 0.0392008)
(10.0545 -0.00544417 0.0254453)
(10.0888 -0.0125587 -0.0883634)
(10.1032 -0.0172137 -0.0714592)
(10.0857 -0.0306174 0.0265023)
(10.1134 0.0178453 0.0402319)
(10.0917 0.0160817 -0.0225091)
(10.1655 0.00754747 -0.0363169)
(10.1851 0.00950835 -0.00686676)
(10.1363 -0.0572717 0.0345837)
(10.1059 0.0515841 0.00959375)
(10.0941 0.119375 -0.00236182)
(10.1027 -0.0195248 0.0512596)
(10.0665 -0.11595 0.0472781)
(9.99005 -0.0890717 -0.0754493)
(10.0005 -0.0419261 -0.0725015)
(10.0118 0.127312 0.0456399)
(10.0521 0.0561694 0.05088)
(10.102 0.0269234 -0.0288069)
(10.235 0.0197417 0.0393133)
(10.2546 0.0463882 0.111914)
(10.213 0.0328347 0.0268988)
(10.1138 -0.024457 -0.0352583)
(10.0423 -0.052892 -0.0574836)
(10.0756 -0.0463333 -0.0705402)
(10.1858 -0.0278776 -0.010847)
(10.1811 -0.0082115 -0.0028991)
(10.1079 -0.02799 -0.0505444)
(10.073 -0.0358995 -0.0271845)
(10.0515 0.0199135 -0.012921)
(10.1161 0.0376792 -0.0180858)
(10.182 0.00418229 -0.023076)
(10.1044 -0.0283808 0.00742227)
(10.0531 -0.0281185 0.023595)
(10.116 0.0362519 -0.0146593)
(10.129 0.0495648 -0.00855577)
(10.0843 0.0195639 -0.0516605)
(10.1141 0.0486221 0.0240475)
(10.1004 0.0216148 0.0563157)
(10.0716 0.0243497 0.0202126)
(10.1645 -0.0524693 0.023044)
(10.2715 0.016696 -0.00522841)
(10.2297 0.0726885 -0.0767799)
(10.1164 0.109421 -0.075282)
(9.97731 -0.0757499 0.0441893)
(9.99576 -0.121198 0.0697538)
(10.0904 -0.0542273 0.056317)
(10.1658 -0.00420761 0.00645293)
(10.1363 0.0126683 -0.00530158)
(9.9669 0.0458474 0.0330052)
(9.98453 0.0357163 0.00318858)
(10.1762 -0.0205933 -0.00769666)
(10.267 0.0447943 0.0382296)
(10.218 0.112336 -0.00211548)
(10.0976 -0.0125228 -0.0101549)
(10.0803 -0.0596168 0.0264417)
(10.1436 -0.0217051 0.00476094)
(10.1491 -0.00342388 -0.00575384)
(10.1053 -0.0164771 0.00954132)
(10.096 0.00498357 0.0212785)
(10.0692 0.0241706 0.0321022)
(10.0559 -0.00113166 0.0231442)
(10.1228 -0.0174412 0.0019972)
(10.1574 -0.0303747 -0.00906748)
(10.1168 -0.050317 0.017755)
(10.1392 -0.00881405 -0.0280626)
(10.1307 0.00250847 -0.0573494)
(10.1312 0.00188029 -0.0407007)
(10.1194 0.0123882 -0.0211374)
(10.1105 0.0390049 -0.0263601)
(10.0499 -0.00728324 0.0265242)
(9.96438 -0.0602413 0.0574757)
(10.1588 -0.0496394 0.044457)
(10.2037 0.0546683 -0.0490401)
(10.1992 0.0474784 -0.0712854)
(10.0417 -0.0112322 -0.040751)
(9.96806 -0.0733531 0.0125534)
(10.0627 -0.0649675 0.0630414)
(10.1544 -0.0298876 0.114787)
(10.1451 -0.0287816 0.0499846)
(10.0703 -0.0478297 -0.0335846)
(10.1027 -0.0534627 0.0121099)
(10.1172 0.00251817 0.0318847)
(10.0892 0.00220391 -0.000168501)
(10.2518 0.041307 0.01447)
(10.2851 0.0785512 0.0507871)
(10.1368 0.0749181 -0.0149298)
(9.93421 -0.0170487 -0.114366)
(9.9322 -0.0420123 -0.086044)
(10.0768 -0.0315452 -0.0993909)
(10.0934 -0.044009 -0.0951823)
(10.0879 -0.0104808 0.012022)
(10.1296 -0.0243796 0.0846647)
(10.1527 -0.00951703 0.0678513)
(10.154 0.0309433 0.0311912)
(10.1073 0.00496167 0.00762784)
(10.0718 0.00428837 0.00137585)
(10.1761 0.00575857 -0.013482)
(10.1471 -0.00847459 0.0174521)
(10.0712 -0.0226638 0.0352857)
(10.1355 -0.0230139 0.00241428)
(10.0889 -0.0439662 -0.0443769)
(10.0445 -0.00380826 -0.0453069)
(10.0182 0.08156 0.0830472)
(10.1276 0.0636392 0.0698087)
(10.1263 0.00493693 -0.0294388)
(10.1329 0.0363473 -0.0313245)
(9.89106 0.00243938 -0.0532083)
(9.83478 0.00850455 -0.0276705)
(9.89864 0.0514155 -0.00580156)
(9.96293 -0.0231451 0.0225474)
(9.94261 -0.0464132 -0.0212603)
(9.96179 -0.0516254 -0.0144982)
(9.9942 -0.0575112 0.0812892)
(10.0281 0.0163598 0.101781)
(10.0293 0.0515787 0.0369772)
(10.1152 0.032198 0.0300873)
(10.1174 -0.0109092 0.0437428)
(9.96563 -0.0043911 -0.0452858)
(9.96779 0.0276039 -0.0202143)
(9.99574 0.0314224 0.0218835)
(10.0412 -0.00778624 -0.0950985)
(10.0139 -0.00966592 -0.13748)
(9.93427 -0.0356744 0.0568799)
(9.94949 -0.0592873 0.0832744)
(10.0652 0.0131709 0.0184799)
(10.0654 0.036166 0.0218735)
(10.0085 0.0421798 0.0379007)
(10.0084 0.0397013 -0.0303393)
(9.99066 0.0214775 -0.116938)
(9.95697 0.00384349 -0.00795558)
(9.95203 0.00309363 0.061821)
(10.0388 -0.0246689 -0.00644175)
(9.99764 -0.0272724 -0.0396739)
(9.96633 -0.00777849 -0.0321533)
(9.9322 0.0272314 0.0231186)
(10.0287 -0.01032 0.00309252)
)
;

boundaryField
{
    wall
    {
        type            fixedValue;
        value           uniform (0 0 0);
    }
    outlet
    {
        type            cyclic;
    }
    inlet
    {
        type            cyclic;
    }
    procBoundary2to1
    {
        type            processor;
        value           nonuniform List<vector> 
256
(
(10.2831 0.00403742 0.0675275)
(10.0738 0.0212895 -0.0514518)
(9.9842 0.0309937 0.0178193)
(10.0467 0.0323264 0.122695)
(10.1597 0.019012 0.0825217)
(10.1796 0.0164959 0.0556119)
(10.0573 -0.0253188 -0.120156)
(10.104 -0.0231965 -0.115953)
(10.1344 0.00336 -0.0313587)
(9.90982 0.0303254 0.0423379)
(9.97887 0.0450182 0.0325112)
(10.3593 -0.0209615 -0.00965536)
(10.3177 -0.0122665 -0.0145144)
(10.2069 -0.0109626 -0.0392567)
(9.88972 0.00274652 -0.00607085)
(9.95435 0.00584881 0.0058019)
(10.2226 -0.0157524 0.0438425)
(10.1665 -0.0187292 0.0682361)
(10.1565 -0.0164575 0.0347129)
(10.1583 0.000570554 0.0025004)
(10.085 0.0197564 0.0376805)
(10.1228 -0.00506349 -0.066117)
(10.2272 -0.00896644 -0.173988)
(10.171 0.00489792 -0.164869)
(10.0716 0.040795 0.0608019)
(10.1076 0.0177113 0.0416402)
(10.036 0.0091174 0.0178281)
(10.03 0.00507233 0.0369563)
(10.1527 -0.0146183 0.0669961)
(10.1609 -0.028069 0.0298613)
(10.0901 -0.0262571 0.015641)
(10.2089 -0.00501472 0.0275116)
(10.375 0.0171012 -0.0165521)
(10.2006 -0.00366602 -0.0638745)
(10.1023 0.0780167 0.0598616)
(10.1657 0.116655 0.125137)
(10.2638 0.05121 0.0485535)
(10.249 0.0418925 0.0247429)
(10.1367 -0.0598765 -0.118133)
(10.2065 -0.0867151 -0.124738)
(10.2586 -0.01437 -0.00968685)
(10.2178 0.0278707 0.0384518)
(10.1244 0.0101893 0.0232765)
(10.1979 -0.0144118 -0.00352773)
(10.415 -0.0632605 0.0177645)
(10.4019 -0.0625992 0.0431763)
(10.0879 0.0350204 -0.00806056)
(10.1239 0.0684473 -0.028587)
(10.3353 -0.00551983 -0.00885875)
(10.2932 -0.0477722 0.0338221)
(10.2985 -0.0402264 0.0342915)
(10.3091 -0.0158714 0.00712696)
(10.2114 0.0241947 0.0134705)
(10.2246 0.0158022 -0.03921)
(10.3106 -0.0269694 -0.114766)
(10.3239 -0.0342407 -0.102774)
(10.2102 0.0444559 0.0595653)
(10.1972 0.0137986 0.0184666)
(10.1623 0.0292613 0.0144616)
(10.158 0.0551131 0.0516926)
(10.239 0.00391627 0.0758182)
(10.2642 -0.0358879 0.0591851)
(10.1896 -0.0364673 0.0715628)
(10.3322 -0.00158404 -0.00909913)
(10.388 0.0182047 0.0153604)
(10.2358 0.0254312 0.0376493)
(10.1468 0.106176 0.0692159)
(10.2022 0.11239 0.0559041)
(10.2257 0.0636206 0.0355673)
(10.2558 0.00583513 -0.0236743)
(9.98208 -0.0805478 -0.107584)
(10.0487 -0.122935 -0.138946)
(10.3662 -0.0659225 -0.00285367)
(10.2204 -0.0112099 0.0178558)
(10.1791 0.0454704 -0.000694845)
(10.3487 0.00412183 0.0149361)
(10.3477 -0.0806135 0.00231359)
(10.186 -0.0486027 0.0267697)
(10.1589 0.0664014 0.00874886)
(10.315 0.0664971 -0.0363462)
(10.2316 0.00706411 0.0219442)
(10.1991 0.00699849 0.035986)
(10.3154 0.0241721 0.0242973)
(10.3612 0.0236183 0.00234606)
(10.2261 0.0024841 0.0150166)
(10.1995 0.00776072 -0.0336345)
(10.268 -0.0274415 -0.124565)
(10.245 -0.0430378 -0.0780448)
(10.2367 -0.0265512 -0.0156954)
(10.2306 0.0196929 0.035098)
(10.2406 0.0339254 0.0109767)
(10.1758 0.0964822 -0.00606466)
(10.2407 0.0415283 0.0426179)
(10.248 -0.0430949 0.105776)
(10.1769 -0.0433902 0.0964144)
(10.3488 -0.00734038 -0.00166659)
(10.4283 0.0074464 0.0528623)
(10.2927 0.0282416 0.0200415)
(10.2186 0.065955 0.0269709)
(10.2209 0.0564488 0.0579654)
(10.2148 0.0350405 0.0874155)
(10.1876 -0.101012 0.0146942)
(9.9564 -0.0687943 -0.0444548)
(10.022 -0.0408257 -0.110793)
(10.3775 -0.0292172 -0.0425919)
(10.3902 0.000348757 -0.00465255)
(10.3401 0.0253695 0.0160867)
(10.2651 0.00909453 0.0371238)
(10.1632 -0.056773 0.0174651)
(10.2258 -0.0512282 0.0175037)
(10.3452 0.0178404 -0.0252518)
(10.2322 -0.00825932 -0.055208)
(10.2049 0.00164666 -0.042077)
(10.2796 0.0411663 -0.0319948)
(10.3115 0.0321067 -0.0282487)
(10.2362 -0.0604869 0.00515)
(10.2505 0.00537546 -0.0130807)
(10.2451 0.0371582 -0.0286431)
(10.2603 0.00448582 -0.0208457)
(10.2476 -0.00745506 -0.0354222)
(10.1635 0.005418 -0.0468668)
(10.2363 -0.00538584 0.0433594)
(10.301 -0.00599801 0.039134)
(10.2493 0.0896189 -0.0095438)
(10.1577 0.0662051 0.0535278)
(10.1468 -0.0334934 0.0846396)
(10.1958 -0.0319743 0.0273151)
(10.4041 0.00709576 -0.0271533)
(10.2769 0.0331051 -0.00466018)
(10.2245 0.111429 0.0515039)
(10.1942 0.116837 0.0375536)
(10.2252 0.0778078 -0.0228952)
(10.1888 -0.126356 -0.0602277)
(10.1787 -0.21513 -0.0459505)
(10.0435 -0.0306498 0.029712)
(10.0747 0.0635063 0.0107906)
(10.3726 0.0386108 -0.0169757)
(10.2663 0.00501019 0.00637468)
(10.2094 -0.0533493 0.00182052)
(10.321 -0.0298289 -0.0361689)
(10.2834 0.0189593 -0.00424073)
(10.2447 -0.00955277 0.0426309)
(10.2996 -0.0402216 0.00777979)
(10.35 -0.0140583 -0.0134359)
(10.3239 0.0389793 -0.0122129)
(10.1993 0.0196723 0.0064275)
(10.158 0.0259067 0.0189043)
(10.2185 0.0139057 -0.0182167)
(10.2424 -0.00749203 -0.0474329)
(10.2559 -0.0213864 0.0369145)
(10.3001 0.00907648 0.0437499)
(10.3061 -0.0157622 -0.0145587)
(10.2581 -0.0289977 0.00405901)
(10.236 0.0146258 0.0507763)
(10.2657 0.0121324 0.00163896)
(10.2864 -0.0650919 -0.0625436)
(10.162 0.072156 0.0179508)
(10.2022 0.0661222 0.106661)
(10.2741 -0.0787294 0.0237821)
(10.279 -0.0100446 -0.0215081)
(10.2636 0.043124 -0.00260951)
(10.2752 0.16912 0.0434524)
(10.2239 0.162294 0.0480492)
(10.2387 0.018589 -0.0186648)
(10.0513 -0.17518 -0.0537912)
(10.0664 -0.13508 -0.036267)
(10.2076 0.0442562 0.0606249)
(10.2716 0.0582816 0.0703718)
(10.2939 -0.00710405 0.0268594)
(10.1917 -0.0223543 0.011787)
(10.1683 -0.04045 -0.00424852)
(10.3454 -0.0399491 0.00680759)
(10.3623 -0.00278838 0.0372352)
(10.3293 0.0338565 0.0116321)
(10.3036 -0.0123896 -0.057901)
(10.3057 -0.0209192 -0.0347337)
(10.2153 -0.00130523 0.00283169)
(10.2094 0.0390521 -0.0214895)
(10.205 0.0797919 -0.0674339)
(10.1647 0.00956085 -0.0381465)
(10.1367 -0.00733434 -0.0236518)
(10.2205 -0.00379847 0.0122493)
(10.3398 -0.0113117 0.0358463)
(10.3182 -0.0393373 0.0034054)
(10.2143 0.0083496 -0.0655015)
(10.1521 0.00893643 0.0170252)
(10.1924 -0.0462227 0.0440501)
(10.3341 -0.0106959 -0.0066359)
(10.3114 0.0673012 -0.00349585)
(10.2285 0.0762573 -0.0110843)
(10.2203 -0.0505407 -0.00559778)
(10.1847 -0.0681267 -0.0231809)
(10.2666 0.0114988 -0.00209183)
(10.2657 0.0250999 -0.0348866)
(10.1942 -0.0319801 -0.0920871)
(10.0206 0.00277878 0.0154818)
(10.0634 0.0298064 0.0141662)
(10.2226 0.0612802 -0.0156696)
(10.2705 0.0612336 0.0604075)
(10.2194 -0.0091498 0.0990448)
(10.2388 -0.0190586 0.047642)
(10.1635 -0.0170296 -0.0144062)
(10.1743 -0.000154505 -0.038841)
(10.4063 0.0222966 -0.00406357)
(10.4138 0.0250034 0.0286763)
(10.2698 0.0724663 0.0574399)
(10.2488 0.0412097 0.000197932)
(10.2927 -0.0603633 -0.0154895)
(10.2818 -0.0412063 0.0404633)
(10.2795 -0.0285498 0.0402987)
(10.26 -0.0632838 -0.0323136)
(10.1045 -0.0462841 0.00144297)
(10.1177 -0.00630787 0.0128211)
(10.2307 0.0358093 0.0342858)
(10.3837 -0.024248 -0.0521563)
(10.3601 -0.0318001 -0.0787813)
(10.2683 0.00778548 -0.0156189)
(10.1736 0.0865534 0.0222934)
(10.2337 0.0617135 0.0839426)
(10.3893 -0.0603155 0.0047363)
(10.3987 -0.0404621 -0.0779726)
(10.2449 0.0711747 -0.119174)
(10.1591 -0.0377791 -0.0105148)
(10.1455 -0.0813379 0.0164676)
(10.1817 -0.00253736 -0.00906576)
(10.1661 -0.0227804 -0.0772207)
(9.95612 -0.0308896 0.00940637)
(9.97211 0.0415007 0.0848553)
(10.0505 0.0716204 0.0401504)
(10.0756 0.0412869 -0.0211738)
(10.0633 0.0343447 0.0753126)
(10.063 0.00566173 0.0922427)
(10.0928 -0.000457918 0.0204541)
(10.041 -0.00115057 -0.0321038)
(10.0741 0.0105207 -0.0184439)
(10.3137 0.0190297 0.0151869)
(10.298 0.00860933 0.0238634)
(10.2579 0.0506273 0.0250621)
(10.0807 0.0308064 -0.0338227)
(10.0691 -0.00966065 -0.0321801)
(10.1914 -0.0122129 0.0508323)
(10.2105 -0.0200967 0.043411)
(10.1068 -0.0633399 -0.0778503)
(10.1208 -0.0389668 -0.0566003)
(10.1978 0.0193965 -0.0207414)
(10.204 0.024657 -0.00894007)
(10.1916 0.00103055 -0.00927635)
(10.179 0.00238903 -0.0276749)
(10.1018 0.0220319 -0.00165234)
(10.0401 0.0280795 -0.0275393)
(10.2032 0.0244022 0.0874084)
(10.2728 -0.0285674 0.139079)
(10.2652 -0.123319 0.0135306)
(10.0645 -0.030412 -0.201971)
(9.9577 -0.0019969 -0.033579)
(9.99714 -0.0190321 0.0491507)
)
;
    }
    procBoundary2to3
    {
        type            processor;
        value           nonuniform List<vector> 
256
(
(10.122 -0.0265609 0.0233371)
(10.1408 0.00197029 0.0196021)
(10.1984 -0.029921 0.013531)
(10.2231 -0.00224932 -0.0197826)
(10.0812 0.006439 -0.0872283)
(9.94338 -0.0142477 -0.0794503)
(10.0171 -0.0787427 0.025001)
(10.0943 -0.0254045 0.0520875)
(10.1641 0.0441336 0.0902575)
(10.21 0.0381524 -0.00204885)
(10.1253 0.0711772 -0.0175398)
(10.1449 0.0753622 0.0100362)
(10.2398 0.0210021 -0.0149579)
(10.2346 -0.005158 -0.024158)
(10.1916 0.0157218 -0.0194394)
(10.1455 0.015319 0.0323291)
(10.1376 -0.000460775 0.0335855)
(10.2049 0.00931872 -0.0452398)
(10.2119 0.00146865 -0.0535611)
(10.137 -0.00306698 -0.0645033)
(10.0372 0.0212103 0.0484675)
(10.0309 -0.0102429 0.0553238)
(10.181 -0.0113595 0.00274715)
(10.1473 -0.00215045 0.00490906)
(10.1365 0.00221061 0.0491776)
(10.1738 0.0103425 0.046342)
(10.2151 0.0145732 -0.00400623)
(10.0328 -0.0145814 -0.0153527)
(9.97144 -0.0337618 -0.0037686)
(10.1507 -0.00484148 -0.0292065)
(10.1779 -0.000316277 -0.0708126)
(10.2019 -0.0223251 -0.0459379)
(10.2926 0.0481782 0.0369478)
(10.2689 0.0677192 0.0167266)
(10.297 -0.00900791 0.0125355)
(10.2681 -0.0771844 -0.0874547)
(10.1822 0.0277685 -0.136157)
(9.98047 -0.016302 -0.00964951)
(10.0647 -0.0490541 0.0278229)
(10.3335 -0.0113294 0.0420177)
(10.2778 -0.00401237 0.0140191)
(10.3378 0.0134903 0.0238511)
(10.3419 0.0560807 0.0602505)
(10.2656 0.0441949 0.0518181)
(10.2593 0.0234883 0.038647)
(10.2975 0.00215525 -0.0189673)
(10.2811 -0.0265435 -0.0361389)
(10.2657 -0.0514837 -0.0020596)
(10.2281 -0.0372711 0.0168171)
(10.2622 -0.0409442 -0.0335853)
(10.3006 -0.0705878 -0.0649228)
(10.2665 -0.055531 -0.0169461)
(10.1815 -0.00173526 -0.0149624)
(10.1976 0.0121093 0.0551404)
(10.2455 0.0157933 0.0287469)
(10.239 0.0284495 -0.0280713)
(10.243 0.0330431 -0.0255942)
(10.3067 -0.0109987 0.0118728)
(10.2492 -0.0367063 -0.0384325)
(10.162 -0.00260815 0.0124308)
(10.1663 0.00656243 0.0828093)
(10.2731 0.0230295 0.00374775)
(10.2763 0.0155688 -0.033408)
(10.3235 0.00228394 -0.00542069)
(10.2928 0.0439631 -0.046097)
(10.2836 0.0570819 -0.115712)
(10.2532 0.0209287 -0.0526861)
(10.2275 -0.0517573 0.0192099)
(10.2182 -0.0686011 -0.00117544)
(10.0594 0.0536531 -0.0956417)
(10.1018 0.0635354 -0.0364118)
(10.2238 0.0153146 0.097714)
(10.2993 0.00318312 0.000816528)
(10.3379 -0.00519953 -0.0825018)
(10.3367 0.000721175 -0.000243073)
(10.2193 0.000245623 0.0443816)
(10.2132 0.0112397 0.0317333)
(10.3331 0.00382606 -0.0239375)
(10.3413 -0.00586985 -0.0345788)
(10.2474 -0.0633125 0.0310359)
(10.263 -0.0399886 0.0405604)
(10.2762 -0.0370892 -0.0453277)
(10.2639 -0.039378 -0.0342232)
(10.2578 -0.0272094 0.0177419)
(10.16 0.00676195 0.041364)
(10.1783 0.0202489 0.0773409)
(10.2925 0.074583 0.0589961)
(10.2582 0.0657633 0.0602017)
(10.2004 0.0282326 0.0634588)
(10.1937 -0.0249684 -0.0219916)
(10.2187 -0.0339091 -0.109085)
(10.2194 -0.0107326 -0.0665245)
(10.2803 0.0100523 0.0530413)
(10.2981 -0.0357663 0.0126239)
(10.2697 -0.043638 9.87856e-05)
(10.2414 -0.007713 0.0335786)
(10.2994 -0.0618747 -0.0178875)
(10.2144 -0.0614075 -0.032314)
(10.2412 -0.0118984 0.0268402)
(10.258 -0.0175931 0.0637043)
(10.1981 -0.0644126 0.026202)
(10.0737 -0.0303153 -0.185763)
(10.0669 0.0289682 -0.131573)
(10.2532 0.082946 0.0926113)
(10.2234 0.0492104 0.0857933)
(10.2844 -0.052696 0.0933948)
(10.4218 -0.0419183 0.0928579)
(10.4057 0.0181455 0.0470864)
(10.3165 0.0946271 0.0155722)
(10.2179 0.019137 -0.0267929)
(10.2228 -0.0128369 -0.0390677)
(10.3672 -0.0297879 3.52122e-05)
(10.3548 0.0206299 -0.0272952)
(10.2839 0.0390839 -0.0463167)
(10.3118 0.0465135 -0.0585881)
(10.2794 -0.0483873 -0.0195166)
(10.1673 -0.0701527 0.0164212)
(10.2486 -0.0105976 0.0555792)
(10.3158 0.0074437 0.0188426)
(10.2677 -0.0120479 0.0173956)
(10.1519 0.0159876 -0.0222988)
(10.159 0.0466481 -0.0492462)
(10.2863 -0.00733229 -0.0454761)
(10.2695 -0.0349003 -0.0300116)
(10.1734 -0.0257684 0.00724542)
(10.1999 0.0436314 0.055473)
(10.3436 0.0394104 0.0468889)
(10.3721 -0.0302825 -0.00227826)
(10.2108 0.0251631 -0.00279869)
(10.2673 0.0399191 -0.0140105)
(10.2873 0.0327617 -0.0279464)
(10.2627 0.0217066 0.00486321)
(10.147 -0.0573939 0.0136047)
(10.1085 -0.0731382 -0.0529337)
(10.1549 -0.0083246 -0.043474)
(10.159 0.0643035 -0.0152932)
(10.1825 0.0881869 -0.0158453)
(10.3265 -0.0028256 0.0590392)
(10.4167 -0.0824695 0.0990342)
(10.3793 -0.0163144 0.031385)
(10.3296 0.0289664 -0.0195325)
(10.1948 -0.028123 -0.0783408)
(10.1834 -0.0407584 -0.0530054)
(10.3276 0.00511799 -0.00041882)
(10.3395 -0.00540931 -0.0129411)
(10.3373 -0.00442008 -0.0182587)
(10.2227 0.00130228 -0.0118121)
(10.2032 -0.0183065 -0.00326978)
(10.1803 0.000785949 0.0188874)
(10.2176 0.0259376 0.0123778)
(10.276 0.0219358 -0.0270862)
(10.2246 -0.0541696 -0.0364642)
(10.194 -0.0366266 -0.000670846)
(10.2213 -0.00453413 0.0030311)
(10.2305 -0.0280028 -0.0150733)
(10.2358 -0.037205 -0.0011784)