/*--------------------------------*- C++ -*----------------------------------*\
| =========                 |                                                 |
| \\      /  F ield         | OpenFOAM: The Open Source CFD Toolbox           |
|  \\    /   O peration     | Version:  2506                                  |
|   \\  /    A nd           | Website:  www.openfoam.com                      |
|    \\/     M anipulation  |                                                 |
\*---------------------------------------------------------------------------*/
FoamFile
{
    version     2.0;
    format      ascii;
    arch        "LSB;label=32;scalar=64";
    class       volScalarField;
    location    "0.08";
    object      Ksl;
}
// * * * * * * * * * * * * * * * * * * * * * * * * * * * * * * * * * * * * * //

dimensions      [1 -3 -1 0 0 0 0];

internalField   nonuniform List<scalar> 
1152
(
146306
152219
100590
762310
147797
140373
227563
122153
137821
186593
79558.8
141164
143001
59557.8
106398
135187
206156
129413
116424
325861
191146
128096
519161
245321
208566
103972
155397
398133
166242
439609
181390
146847
280171
353882
332082
4.46895e+06
593357
471038
154946
173610
247784
215370
460486
133238
362172
121741
448196
548714
241170
142429
467328
332128
141697
257438
204515
172211
335087
336302
232615
4.00778e+06
291602
158740
215678
134954
259645
338800
416377
181461
202500
184019
166476
375987
223394
217614
278590
115522
173025
260399
328829
5.53828e+06
314214
156340
161384
223178
174553
209808
325995
130039
245672
128662
977319
164030
81125.1
314831
234913
117473
63598.7
51389.8
73009.4
85483.2
35262.5
58314.2
87918.8
528685
40732.4
65841.2
142336
40849.1
50935.8
107976
137218
74873.5
0
0
0
0
0
0
0
0
0
0
0
0
0
0
0
0
0
0
0
0
0
0
0
0
0
0
0
0
0
0
0
0
0
0
0
0
0
0
0
0
0
0
0
0
0
0
0
0
0
0
0
0
0
0
0
0
0
0
0
0
0
0
0
0
0
0
0
0
0
0
0
0
0
0
0
0
0
0
0
0
0
0
0
0
0
0
0
0
0
0
0
0
0
0
0
0
0
0
0
0
0
0
0
0
0
0
0
0
0
0
0
0
0
0
0
0
0
0
0
0
0
0
0
0
0
0
0
0
0
0
0
0
0
0
0
0
0
0
0
0
0
0
0
0
0
0
0
0
0
0
0
0
0
0
0
0
0
0
0
0
0
0
0
0
0
0
0
0
0
0
0
0
0
0
0
0
0
0
0
0
0
0
0
0
0
0
0
0
0
0
0
0
0
0
0
0
0
0
0
0
0
0
0
0
0
0
0
0
0
0
0
0
0
0
0
0
0
0
0
0
0
0
0
0
0
0
0
0
0
0
0
0
0
0
0
0
0
0
0
0
0
0
0
0
0
0
0
0
0
0
0
0
0
0
0
0
0
0
0
0
0
0
0
0
0
0
0
0
0
0
0
0
136996
116526
90619.9
169955
245653
107316
112962
91449
158757
88400.2
125576
218649
274872
225415
92102.9
105160
135829
113599
281487
189438
263252
153053
251938
154504
164796
258465
271431
173105
139363
138930
127406
170059
139469
276149
293362
266726
218574
151734
322403
137565
209923
236122
188525
455784
470733
241641
1.60291e+06
190127
238831
268966
165904
1.10733e+07
6.67255e+06
120228
500259
175613
227964
172482
181522
251134
205197
329758
294662
203438
114616
332758
202290
652252
265092
189787
209974
165340
155097
283739
198472
192915
205288
1.32447e+06
148537
290120
299742
651543
159540
125286
173880
185755
204388
261876
240574
130651
4.11411e+06
277356
218665
185073
194263
193548
46420.5
106216
36738.5
29800.6
87308.3
44356
26291.2
24654.8
33013.3
18740.6
107185
35645.6
78817.3
72012.3
18280.2
42636.7
0
0
0
0
0
0
0
0
0
0
0
0
0
0
0
0
0
0
0
0
0
0
0
0
0
0
0
0
0
0
0
0
0
0
0
0
0
0
0
0
0
0
0
0
0
0
0
0
0
0
0
0
0
0
0
0
0
0
0
0
0
0
0
0
0
0
0
0
0
0
0
0
0
0
0
0
0
0
0
0
0
0
0
0
0
0
0
0
0
0
0
0
0
0
0
0
0
0
0
0
0
0
0
0
0
0
0
0
0
0
0
0
0
0
0
0
0
0
0
0
0
0
0
0
0
0
0
0
0
0
0
0
0
0
0
0
0
0
0
0
0
0
0
0
0
0
0
0
0
0
0
0
0
0
0
0
0
0
0
0
0
0
0
0
0
0
0
0
0
0
0
0
0
0
0
0
0
0
0
0
0
0
0
0
0
0
0
0
0
0
0
0
0
0
0
0
0
0
0
0
0
0
0
0
0
0
0
0
0
0
0
0
0
0
0
0
0
0
0
0
0
0
0
0
0
0
0
0
0
0
0
0
0
0
0
0
0
0
0
0
0
0
0
0
0
0
0
0
0
0
0
0
0
0
0
0
0
0
0
0
0
0
0
0
0
0
0
0
0
0
0
0
109807
265064
125493
240480
152664
103250
171771
171127
145951
120314
126339
87661.8
107495
210167
144462
1.286e+06
144728
125182
222063
251252
508387
222903
144885
113054
291412
185616
153459
692006
222533
221989
162339
126245
280753
232237
420077
135664
281604
184158
200047
217448
99976.9
2.68923e+06
156712
453432
447189
147828
346329
170573
207889
242687
198766
167695
307988
161989
341871
209704
188716
327643
338345
164530
163434
364116
171535
237589
159372
318875
271004
162668
327891
150069
184942
189437
203669
177634
203522
662259
213480
203460
249117
158812
185754
170122
224706
110295
197476
135083
269238
361588
247248
267965
1.81008e+06
120354
8.68083e+06
136297
191003
174290
107699
75297.1
63078.1
71131.6
67108
88325.7
93588.1
72895.3
55687.8
67621.1
106746
35953.5
145329
47460.8
70091.3
59124.4
0
0
0
0
0
0
231.28
0
0
0
0
0
0
0
0
0
0
0
0
0
0
0
0
0
0
0
0
0
0
0
0
0
0
0
0
0
0
0
0
0
0
0
0
0
0
0
0
0
0
0
0
0
0
0
0
0
0
0
0
0
0
0
0
0
0
0
0
0
0
0
0
0
0
0
0
0
0
0
0
0
0
0
0
0
0
0
0
0
0
0
0
0
0
0
0
0
0
0
0
0
0
0
0
0
0
0
0
0
0
0
0
0
0
0
0
0
0
0
0
0
0
0
0
0
0
0
0
0
0
0
0
0
0
0
0
0
0
0
0
0
0
0
0
0
0
0
0
0
0
0
0
0
0
0
0
0
0
0
0
0
0
0
0
0
0
0
0
0
0
0
0
0
0
0
0
0
0
0
0
0
0
0
0
0
0
0
0
0
0
0
0
0
0
0
0
0
0
0
0
0
0
0
0
0
0
0
0
0
0
0
0
0
0
0
0
0
0
0
0
0
0
0
0
0
0
0
0
0
0
0
0
0
0
0
0
0
0
0
0
0
0
0
0
0
0
0
0
0
0
0
0
0
0
0
0
0
0
0
0
0
0
0
0
0
0
0
0
0
0
0
0
0
)
;

boundaryField
{
    inlet
    {
        type            zeroGradient;
    }
    outlet
    {
        type            zeroGradient;
    }
    wall
    {
        type            zeroGradient;
    }
    procBoundary0to1
    {
        type            processor;
        value           nonuniform List<scalar> 
192
(
60232.8
156047
108358
169880
220994
201409
164846
422053
120186
334014
322812
154242
267453
421969
137130
6.74879e+06
168189
220258
436115
105685
449160
127468
210719
361999
57459.9
57453.4
144839
547883
0
0
0
47.7552
0
0
0
0
0
0
0
0
0
0
0
0
0
0
0
0
0
0
0
0
0
0
0
0
0
0
0
0
0
0
0
0
0
0
0
0
0
0
0
0
0
0
0
0
0
0
0
0
0
0
0
0
0
0
0
0
0
0
0
0
0
0
0
0
82049.4
144051
134604
84206.6
111656
294251
120665
196471
404891
253617
311711
3.29007e+06
340047
611793
169754
248855
336966
160958
181087
382898
7.24519e+06
156170
268444
196116
167725
39081.9
41631.6
33863.1
0
0
0
0
0
0
0
0
0
0
0
0
0
0
0
0
0
0
0
0
0
0
0
0
0
0
0
0
0
0
0
0
0
0
0
0
0
0
0
0
0
0
0
0
0
0
0
0
0
0
0
0
0
0
0
0
0
0
0
0
0
0
0
0
0
0
0
0
)
;
    }
    procBoundary0to2
    {
        type            processor;
        value           nonuniform List<scalar> 
192
(
163901
419518
147107
251933
157754
180086
183098
5.27707e+06
155124
1.01371e+06
200697
139134
244740
1.06384e+06
425458
101648
363665
255922
188842
185069
394303
205023
258081
4.95772e+06
124468
92295.2
68056.1
180992
0
0
0
0
0
0
0
0
0
0
0
0
0
0
0
0
0
0
0
0
0
0
0
0
0
0
0
0
0
0
0
0
0
0
0
0
0
0
0
0
0
0
0
0
0
0
0
0
0
0
0
0
0
0
0
0
0
0
0
0
0
0
0
0
0
0
0
0
110399
83784.8
152235
111517
1.79961e+06
323826
2.03698e+06
433642
159938
132656
220189
164580
155154
180944
290551
156167
182045
166272
362822
212932
164633
88564.3
360520
158562
36702.1
16865.7
70195
26662
0
0
0
0
0
0
0
0
0
0
0
0
0
0
0
0
0
0
0
0
0
0
0
0
0
0
0
0
0
0
0
0
0
0
0
0
0
0
0
0
0
0
0
0
0
0
0
0
0
0
0
0
0
0
0
0
0
0
0
0
0
0
0
0
0
0
0
0
)
;
    }
}


// ************************************************************************* //
