/*--------------------------------*- C++ -*----------------------------------*\
| =========                 |                                                 |
| \\      /  F ield         | OpenFOAM: The Open Source CFD Toolbox           |
|  \\    /   O peration     | Version:  2506                                  |
|   \\  /    A nd           | Website:  www.openfoam.com                      |
|    \\/     M anipulation  |                                                 |
\*---------------------------------------------------------------------------*/
FoamFile
{
    version     2.0;
    format      ascii;
    arch        "LSB;label=32;scalar=64";
    class       surfaceScalarField;
    location    "0.08";
    object      phi;
}
// * * * * * * * * * * * * * * * * * * * * * * * * * * * * * * * * * * * * * //

dimensions      [0 3 -1 0 0 0 0];

oriented        oriented;

internalField   nonuniform List<scalar> 
3120
(
4.63696e-09
2.09311e-09
4.06146e-08
3.27685e-09
-1.90396e-09
7.78724e-10
1.48809e-09
5.70049e-08
-6.28739e-09
-1.05685e-08
-8.20766e-09
7.16574e-08
-4.13332e-09
2.6259e-09
1.43855e-08
5.04879e-10
3.9437e-09
3.73902e-10
4.17772e-08
4.5248e-09
-6.69631e-09
1.89078e-09
5.8691e-08
-6.80525e-10
1.32958e-08
2.01972e-08
4.74248e-09
4.08638e-08
6.10375e-09
1.95477e-09
4.24526e-08
-1.86345e-09
-3.82292e-09
-1.43169e-09
6.13046e-08
-9.97617e-09
1.29876e-09
6.64482e-08
4.00621e-09
3.53821e-08
6.85859e-09
4.24259e-08
1.45085e-09
-7.48514e-09
7.48997e-08
-3.20129e-09
5.15727e-08
5.19905e-08
-1.63222e-09
-8.08231e-10
3.82671e-08
3.772e-09
1.01604e-09
-3.53811e-09
-1.58598e-09
5.53862e-08
5.11064e-09
4.32807e-09
8.89222e-09
5.45572e-08
3.41837e-10
1.96492e-09
2.78476e-08
-3.39895e-09
3.64322e-10
-1.66081e-09
3.78915e-08
4.37397e-09
9.05283e-09
-1.49353e-09
4.991e-08
1.90448e-09
-5.25173e-09
4.14895e-08
2.30897e-09
4.81994e-08
-5.76065e-10
8.58488e-10
3.76725e-08
2.83683e-09
-4.90506e-09
-5.57311e-09
6.97132e-08
1.06243e-08
3.80041e-10
4.52871e-08
-2.18454e-09
5.79655e-08
-2.84231e-09
4.04235e-08
-5.63672e-10
2.27832e-09
5.92022e-08
1.00425e-08
3.81639e-08
5.41799e-08
-5.18953e-09
1.6939e-09
3.50039e-08
8.99772e-09
-2.23886e-09
-3.98432e-09
-4.76644e-10
5.6408e-08
-1.75036e-09
6.06326e-09
1.54515e-08
2.43849e-08
4.67315e-09
9.23496e-09
3.45173e-08
-9.92162e-09
-4.13221e-09
-5.8436e-09
5.33728e-08
-3.81165e-09
1.15466e-08
-5.58843e-10
3.43134e-08
9.12563e-09
-4.18205e-10
5.97803e-08
1.64384e-08
5.68606e-08
-5.83585e-09
-7.88325e-10
3.5772e-08
2.68115e-09
7.83925e-09
1.36089e-08
4.18703e-08
1.78916e-08
-1.73021e-10
3.49895e-08
6.32886e-10
9.20044e-08
2.42822e-09
3.29536e-08
3.18659e-09
3.15017e-09
7.94318e-08
4.88462e-09
3.78109e-08
6.42362e-08
-9.78412e-10
5.8071e-09
3.7713e-08
-4.00384e-09
-3.53394e-09
-4.50118e-10
6.03325e-09
5.33061e-08
-3.45963e-09
1.80477e-09
2.63662e-09
2.01507e-08
-6.57327e-10
-9.21887e-10
4.38325e-08
-2.49576e-09
3.50996e-10
7.0096e-10
6.46209e-08
-6.49291e-09
-2.35653e-09
-3.02574e-09
4.60799e-08
4.85619e-10
3.63609e-09
5.59386e-08
7.07562e-09
4.34289e-08
-2.47659e-09
-5.77558e-10
3.82588e-08
1.2683e-09
2.70986e-09
-4.50522e-09
3.81634e-08
2.91818e-09
2.3496e-09
3.60677e-08
4.66438e-09
9.85817e-08
-8.19275e-09
5.21795e-08
-2.22292e-09
1.20956e-08
5.08412e-08
2.17842e-08
3.22547e-08
1.14623e-07
4.93026e-10
9.20145e-10
3.05144e-08
2.49429e-09
3.29113e-09
3.75927e-09
1.3246e-09
4.53166e-08
3.39862e-09
-2.65669e-09
-7.27454e-09
3.83231e-08
-4.48185e-09
-1.23484e-09
4.40529e-08
-3.50227e-10
2.66868e-09
7.82684e-09
5.46827e-08
3.62819e-10
-3.98958e-09
4.97541e-09
4.90873e-08
3.33793e-09
-2.72936e-09
4.4066e-08
-9.9607e-09
5.03608e-08
3.95443e-10
8.03206e-09
4.05673e-08
-2.90923e-09
-8.61961e-09
-6.07653e-09
5.82304e-08
-2.45552e-09
9.63699e-11
2.70779e-08
2.82293e-09
7.8126e-08
-1.46203e-08
9.34781e-08
-6.88055e-09
-2.26436e-09
3.06566e-08
-1.40398e-09
2.77907e-08
1.24031e-07
-3.94585e-09
-8.21915e-10
3.55062e-08
-1.56399e-11
-2.08413e-10
-3.04927e-09
-2.17801e-09
4.8385e-08
-1.78694e-09
-3.74826e-09
-4.27532e-09
4.22147e-08
1.08269e-09
-6.45053e-09
3.73719e-08
4.20789e-09
-5.10877e-09
-6.76374e-10
5.65958e-08
3.05004e-09
-3.60491e-09
-3.0057e-09
4.84111e-08
-3.57926e-09
1.38392e-09
3.83811e-08
-1.60402e-09
3.17731e-08
-7.5145e-09
-1.08561e-08
5.70674e-08
1.19412e-09
-1.10177e-09
-8.21495e-10
4.96334e-08
-4.74384e-09
-3.08077e-09
3.51847e-08
-2.57856e-08
9.64243e-08
-4.58273e-09
6.89582e-08
1.43623e-08
-5.93168e-09
3.15796e-08
-1.8552e-08
3.2246e-08
7.82743e-08
-4.38309e-11
-2.82094e-09
4.72969e-08
-1.57398e-09
-7.351e-09
1.14519e-09
-1.36963e-09
5.0038e-08
-1.47262e-09
8.11204e-10
-2.21321e-10
4.2019e-08
7.51041e-10
7.78608e-10
3.64998e-08
1.86122e-10
1.99276e-09
-1.13195e-09
5.48034e-08
-1.88893e-09
2.10957e-09
-1.22169e-09
4.81464e-08
4.21606e-09
8.12318e-10
3.52411e-08
-9.60524e-09
4.87905e-08
1.37197e-09
-3.58614e-10
5.52804e-08
-3.58678e-10
2.25996e-09
1.49355e-09
4.60304e-08
-4.13233e-09
8.70999e-10
4.15183e-08
-8.56296e-10
7.95965e-08
3.81833e-09
5.83161e-08
8.97776e-10
8.16808e-10
3.4862e-08
-1.81251e-09
3.34043e-08
6.18363e-08
2.2142e-09
-3.39301e-09
5.02418e-08
-3.48745e-09
1.72106e-09
3.48993e-10
-4.53814e-09
5.24385e-08
4.00244e-09
-7.90974e-10
-5.35515e-09
4.43737e-08
4.14031e-09
-1.15603e-08
4.14461e-08
6.09956e-09
3.64985e-09
-2.97682e-09
5.42667e-08
-3.52973e-09
-9.25302e-10
-3.03836e-09
5.12215e-08
-5.95118e-09
-3.78462e-09
3.86961e-08
-4.80283e-09
3.44873e-08
3.17578e-09
1.98274e-11
5.43574e-08
-5.24909e-09
-1.5528e-09
-4.84757e-10
4.8206e-08
-4.84332e-09
-7.27278e-10
4.17516e-08
-1.95604e-09
7.33159e-08
1.80926e-09
5.54633e-08
-2.04718e-09
-2.60595e-09
3.66972e-08
-1.05169e-08
3.50267e-08
5.88743e-08
3.2066e-09
-2.72373e-10
4.97713e-08
-3.20087e-09
7.36486e-10
4.38807e-09
1.06326e-09
4.99984e-08
1.9504e-10
1.11469e-09
2.4288e-09
4.6726e-08
-1.5079e-09
-7.59138e-10
4.64744e-08
-3.01187e-09
5.25813e-09
2.72842e-10
5.13192e-08
-2.85676e-09
6.67596e-09
1.46733e-09
4.93994e-08
1.97361e-09
1.1209e-09
4.47062e-08
-8.49208e-09
4.43169e-08
4.28609e-09
2.59744e-09
5.07409e-08
-2.99371e-09
1.37803e-09
4.28539e-09
4.8296e-08
-2.67274e-09
1.03567e-09
4.58882e-08
-2.58778e-09
5.67308e-08
7.42344e-09
4.94379e-08
-2.23852e-09
4.29635e-09
4.35962e-08
2.79528e-09
4.22686e-08
5.18629e-08
1.22684e-09
-1.47524e-09
4.89601e-08
-9.19325e-10
1.97929e-09
1.66323e-09
-2.9232e-10
4.88711e-08
9.83358e-10
3.9501e-10
2.14698e-10
4.76732e-08
1.06482e-10
-8.69466e-10
4.78689e-08
-6.34442e-10
2.29308e-09
-4.43857e-10
4.93599e-08
-1.36495e-09
2.53713e-09
2.72808e-10
4.85905e-08
5.21916e-10
3.20623e-11
4.69044e-08
-3.74669e-09
4.73807e-08
1.91027e-09
1.1174e-09
4.91616e-08
-1.89214e-09
4.43054e-10
1.6695e-09
4.83669e-08
-1.57872e-09
4.39179e-10
4.75031e-08
-1.50413e-09
5.0878e-08
2.7558e-09
4.81275e-08
-1.3855e-09
1.00766e-09
4.64585e-08
-7.38138e-10
4.56644e-08
4.91717e-08
1.0849e-09
-1.53833e-10
4.86491e-08
-1.06129e-09
4.41477e-10
1.07725e-09
9.58231e-11
4.85956e-08
1.87722e-10
4.21442e-10
2.007e-10
4.81514e-08
-2.28362e-11
-2.6681e-10
4.8294e-08
-2.4511e-10
1.22332e-09
1.17767e-10
4.87987e-08
-9.33471e-10
1.18418e-09
2.14918e-10
4.85111e-08
3.16396e-10
6.23779e-11
4.79107e-08
-1.17176e-09
4.81934e-08
1.0191e-09
6.22551e-10
4.87506e-08
-1.1125e-09
4.44756e-10
6.90636e-10
4.84658e-08
-3.76688e-10
2.42846e-10
4.81441e-08
-5.12765e-10
4.92456e-08
1.0625e-09
4.8171e-08
-6.98748e-10
4.0205e-10
4.76843e-08
-6.12706e-10
4.73717e-08
4.86548e-08
4.6439e-10
-2.39023e-10
4.84245e-08
-4.39388e-10
4.3886e-10
4.79221e-10
-5.89168e-11
4.84532e-08
1.86774e-10
2.43791e-10
-1.07376e-11
4.83157e-08
8.20809e-11
-1.44248e-10
4.8387e-08
-5.09865e-11
5.49372e-10
-5.97283e-11
4.85387e-08
-4.6842e-10
5.10471e-10
1.98923e-11
4.84714e-08
1.71009e-10
-4.05497e-11
4.82802e-08
-4.43435e-10
4.8407e-08
5.28352e-10
2.04854e-10
4.85771e-08
-6.19306e-10
2.95171e-10
2.18603e-10
4.85004e-08
-4.10156e-11
5.37474e-11
4.83863e-08
-2.15348e-10
4.87552e-08
4.71059e-10
4.83104e-08
-3.99871e-10
1.99572e-10
4.81964e-08
-2.78118e-10
4.81013e-08
4.85694e-08
3.05733e-10
-1.04914e-10
4.83533e-08
-3.16389e-10
1.86826e-10
2.88869e-10
-4.92782e-11
4.84212e-08
9.82119e-11
1.77169e-10
-4.78125e-11
4.83977e-08
7.76401e-11
-1.02643e-10
4.84329e-08
2.87751e-11
3.03097e-10
-4.40996e-11
4.84657e-08
-2.90721e-10
2.63636e-10
-2.76189e-11
4.84894e-08
1.19357e-10
-6.73852e-11
4.84443e-08
-2.1123e-10
4.84972e-08
3.05345e-10
5.03202e-11
4.85345e-08
-3.57117e-10
2.05886e-10
3.38828e-11
4.85386e-08
3.54579e-11
-2.33032e-11
4.85129e-08
-1.37233e-10
4.86343e-08
2.31762e-10
4.84277e-08
-2.2302e-10
1.14079e-10
4.84323e-08
-9.37119e-11
4.84206e-08
4.8594e-08
1.81429e-10
-7.75473e-11
4.83205e-08
-1.84461e-10
1.13518e-10
1.70176e-10
-5.42068e-11
4.84163e-08
7.05155e-11
1.15928e-10
-6.47419e-11
4.8443e-08
7.38413e-11
-8.81742e-11
4.8468e-08
5.46248e-11
1.67924e-10
-5.50129e-11
4.84434e-08
-1.68012e-10
1.48066e-10
-5.27886e-11
4.85082e-08
8.29956e-11
-7.75142e-11
4.85223e-08
-1.31793e-10
4.85487e-08
1.72832e-10
-1.60272e-11
4.85235e-08
-2.00572e-10
1.23397e-10
-3.22804e-11
4.85678e-08
4.08349e-11
-6.13145e-11
4.85795e-08
-1.1467e-10
4.86243e-08
1.21762e-10
4.84977e-08
-1.24151e-10
7.00672e-11
4.85445e-08
-2.01487e-11
4.85655e-08
4.86332e-08
1.06738e-10
-6.30521e-11
4.83101e-08
-1.08695e-10
7.54209e-11
1.00704e-10
-5.56378e-11
4.84213e-08
5.68028e-11
7.3253e-11
-6.47389e-11
4.8472e-08
6.32827e-11
-7.66518e-11
4.84966e-08
5.69566e-11
9.78207e-11
-5.74471e-11
4.84412e-08
-1.00936e-10
8.57556e-11
-6.01618e-11
4.85251e-08
5.53497e-11
-7.43585e-11
4.85625e-08
-9.71562e-11
4.85833e-08
9.84689e-11
-4.08521e-11
4.85237e-08
-1.15048e-10
7.38037e-11
-5.59313e-11
4.85885e-08
3.4107e-11
-7.33698e-11
4.86183e-08
-9.79828e-11
4.86421e-08
6.98696e-11
4.85368e-08
-7.12151e-11
4.56969e-11
4.86009e-08
5.17481e-12
4.86335e-08
4.86652e-08
6.52023e-11
-5.27643e-11
4.83096e-08
-6.75524e-11
5.56719e-11
6.04524e-11
-5.08842e-11
4.84295e-08
4.75281e-11
4.57764e-11
-5.71695e-11
4.84919e-08
5.20862e-11
-6.38717e-11
4.8519e-08
5.09453e-11
5.91731e-11
-5.34749e-11
4.84449e-08
-6.18717e-11
5.19652e-11
-5.64509e-11
4.85381e-08
3.59119e-11
-6.47726e-11
4.85862e-08
-7.56183e-11
4.86073e-08
5.74464e-11
-4.84114e-11
4.85277e-08
-6.62811e-11
4.44539e-11
-5.80414e-11
4.86033e-08
2.47472e-11
-6.89255e-11
4.86422e-08
-8.1292e-11
4.86613e-08
4.21915e-11
4.85575e-08
-4.33065e-11
3.03884e-11
4.86296e-08
1.07165e-11
4.8667e-08
4.8688e-08
4.05604e-11
-4.32497e-11
4.83125e-08
-4.2419e-11
4.21682e-11
3.71568e-11
-4.34723e-11
4.84376e-08
3.89326e-11
2.84901e-11
-4.74658e-11
4.85063e-08
4.1818e-11
-5.145e-11
4.85359e-08
4.2244e-11
3.65305e-11
-4.55462e-11
4.84495e-08
-3.85117e-11
3.1954e-11
-4.84078e-11
4.8548e-08
2.28825e-11
-5.35382e-11
4.86015e-08
-5.92816e-11
4.86242e-08
3.39532e-11
-4.46827e-11
4.8532e-08
-3.88789e-11
2.71814e-11
-5.1908e-11
4.86138e-08
1.67818e-11
-5.82373e-11
4.86573e-08
-6.47235e-11
4.86762e-08
2.60941e-11
4.85684e-08
-2.67286e-11
1.9814e-11
4.86446e-08
9.64442e-12
4.86846e-08
4.8703e-08
2.54607e-11
-3.4626e-11
4.83164e-08
-2.6735e-11
3.20985e-11
2.30369e-11
-3.53531e-11
4.84446e-08
3.0949e-11
1.77456e-11
-3.78465e-11
4.85168e-08
3.27601e-11
-4.02577e-11
4.85484e-08
3.34858e-11
2.27913e-11
-3.7004e-11
4.84537e-08
-2.4284e-11
1.98997e-11
-3.93767e-11
4.85553e-08
1.45211e-11
-4.25903e-11
4.86118e-08
-4.57642e-11
4.86361e-08
2.04309e-11
-3.77687e-11
4.85357e-08
-2.31507e-11
1.68659e-11
-4.27118e-11
4.86211e-08
1.10933e-11
-4.64402e-11
4.86671e-08
-4.99321e-11
4.86867e-08
1.61604e-11
4.85743e-08
-1.64842e-11
1.27519e-11
4.86529e-08
7.33127e-12
4.86946e-08
4.87125e-08
1.61483e-11
-2.68969e-11
4.83201e-08
-1.70329e-11
2.4167e-11
1.44667e-11
-2.76514e-11
4.84503e-08
2.38996e-11
1.11391e-11
-2.92132e-11
4.85245e-08
2.50385e-11
-3.06404e-11
4.85574e-08
2.56774e-11
1.43831e-11
-2.89359e-11
4.84572e-08
-1.54822e-11
1.25368e-11
-3.07615e-11
4.85607e-08
9.22174e-12
-3.27929e-11
4.8619e-08
-3.462e-11
4.86443e-08
1.25216e-11
-3.00302e-11
4.85386e-08
-1.40579e-11
1.05845e-11
-3.33859e-11
4.8626e-08
7.26583e-12
-3.56617e-11
4.86735e-08
-3.759e-11
4.86938e-08
1.00429e-11
4.85776e-08
-1.01471e-11
8.19278e-12
4.86577e-08
5.21705e-12
4.87003e-08
4.87184e-08
1.03412e-11
-2.02161e-11
4.83232e-08
-1.09561e-11
1.78528e-11
9.19368e-12
-2.08295e-11
4.84545e-08
1.78897e-11
7.06143e-12
-2.18001e-11
4.85299e-08
1.86095e-11
-2.26564e-11
4.85637e-08
1.90605e-11
9.18352e-12
-2.18148e-11
4.84599e-08
-9.95209e-12
8.00416e-12
-2.31367e-11
4.85646e-08
5.93063e-12
-2.44278e-11
4.86238e-08
-2.55018e-11
4.86498e-08
7.81447e-12
-2.27962e-11
4.85407e-08
-8.68433e-12
6.74493e-12
-2.50645e-11
4.86292e-08
4.7775e-12
-2.64817e-11
4.86777e-08
-2.76056e-11
4.86984e-08
6.31125e-12
4.85794e-08
-6.28661e-12
5.29403e-12
4.86604e-08
3.58523e-12
4.87037e-08
4.8722e-08
6.65753e-12
-1.45643e-11
4.83255e-08
-7.04165e-12
1.27359e-11
5.90099e-12
-1.50018e-11
4.84575e-08
1.28461e-11
4.56161e-12
-1.55881e-11
4.85336e-08
1.32808e-11
-1.60857e-11
4.85679e-08
1.35497e-11
5.92457e-12
-1.5733e-11
4.84617e-08
-6.41651e-12
5.18296e-12
-1.66418e-11
4.85671e-08
3.90065e-12
-1.74565e-11
4.8627e-08
-1.80805e-11
4.86534e-08
4.97971e-12
-1.64682e-11
4.8542e-08
-5.44695e-12
4.38948e-12
-1.79682e-11
4.86312e-08
3.20695e-12
-1.88516e-11
4.86802e-08
-1.95509e-11
4.87013e-08
4.05172e-12
4.85803e-08
-3.96768e-12
3.49889e-12
4.86618e-08
2.49239e-12
4.87055e-08
4.8724e-08
4.28784e-12
-9.80389e-12
4.83269e-08
-4.49846e-12
8.5577e-12
3.83219e-12
-1.00769e-11
4.84594e-08
8.61761e-12
3.04308e-12
-1.04003e-11
4.85358e-08
8.84769e-12
-1.06631e-11
4.85704e-08
8.96819e-12
3.8589e-12
-1.05876e-11
4.84628e-08
-4.12165e-12
3.42735e-12
-1.11623e-11
4.85686e-08
2.67917e-12
-1.16429e-11
4.86288e-08
-1.19847e-11
4.86554e-08
3.25682e-12
-1.10558e-11
4.85427e-08
-3.47011e-12
2.96042e-12
-1.19961e-11
4.86323e-08
2.29664e-12
-1.25171e-11
4.86815e-08
-1.29308e-11
4.87028e-08
2.70276e-12
4.85806e-08
-2.59223e-12
2.43964e-12
4.86624e-08
1.8752e-12
4.87063e-08
4.87249e-08
2.79984e-12
-5.77841e-12
4.83276e-08
-2.86882e-12
5.0745e-12
2.59502e-12
-5.91311e-12
4.84603e-08
5.06098e-12
2.20939e-12
-6.05242e-12
4.8537e-08
5.13977e-12
-6.15347e-12
4.85717e-08
5.15255e-12
2.59439e-12
-6.22412e-12
4.84633e-08
-2.66025e-12
2.4102e-12
-6.53049e-12
4.85693e-08
2.04212e-12
-6.76765e-12
4.86297e-08
-6.9164e-12
4.86564e-08
2.26448e-12
-6.46367e-12
4.8543e-08
-2.29328e-12
2.17542e-12
-6.97658e-12
4.86327e-08
1.87871e-12
-7.24174e-12
4.86821e-08
-7.44307e-12
4.87034e-08
1.97256e-12
4.85807e-08
-1.83192e-12
1.91677e-12
4.86626e-08
1.65974e-12
4.87066e-08
4.87252e-08
1.99244e-12
-2.85257e-12
-1.82901e-12
2.50365e-12
2.00531e-12
-2.8801e-12
2.48614e-12
1.89882e-12
-2.90123e-12
2.46591e-12
-2.90055e-12
2.41271e-12
1.94231e-12
-3.04395e-12
-1.83053e-12
1.95761e-12
-3.16547e-12
1.86216e-12
-3.24192e-12
-3.27392e-12
1.84193e-12
-3.15417e-12
-1.68979e-12
1.88172e-12
-3.35862e-12
1.81801e-12
-3.46793e-12
-3.54235e-12
1.68824e-12
-1.49959e-12
1.78186e-12
1.74867e-12
-1.78309e-09
-6.08999e-09
5.80328e-08
-2.3677e-09
-1.18896e-08
-3.09182e-09
5.91547e-08
-4.4695e-09
-8.10233e-09
-4.94384e-10
3.70329e-08
-4.77993e-09
3.72161e-09
2.34316e-08
-2.53959e-09
1.56416e-08
3.32305e-09
3.48877e-08
-1.46866e-09
-8.27566e-11
6.7688e-08
3.58341e-09
-1.04116e-09
4.21969e-08
-4.10227e-09
5.6669e-08
2.92877e-09
-7.49272e-10
6.64553e-08
-4.03174e-09
-2.34102e-10
6.79956e-08
-6.25303e-10
6.74164e-09
4.28621e-08
4.48711e-09
3.63473e-08
1.95807e-09
6.29185e-08
6.33754e-09
6.03419e-08
-3.60191e-09
8.4969e-08
5.777e-08
-1.30184e-08
3.79984e-09
7.19959e-08
-6.3507e-09
-1.04719e-08
4.16675e-09
5.668e-08
-4.23844e-09
4.01883e-10
6.8948e-10
2.34055e-08
2.06412e-09
6.26045e-10
2.80258e-08
-1.04633e-09
-9.68029e-09
-1.96023e-09
4.91739e-08
-1.09447e-08
-5.10646e-09
7.82256e-08
-1.21419e-09
-1.34285e-10
3.32902e-08
-2.16615e-09
6.2621e-08
-9.37186e-09
1.85076e-09
7.01397e-08
5.55155e-10
3.29782e-09
4.96643e-08
-1.61433e-09
-2.70649e-09
4.76038e-08
-2.91113e-09
3.83148e-08
-5.04028e-09
6.39264e-08
-1.06855e-08
6.7696e-08
-8.54478e-11
6.56694e-08
5.30599e-08
-6.00643e-09
1.27896e-08
6.80321e-08
-2.13005e-09
8.52654e-09
8.80106e-09
3.21583e-08
1.18765e-09
4.01794e-09
-2.96891e-10
3.27283e-08
-4.51729e-09
-5.89585e-09
5.15162e-08
-4.57892e-09
-1.19096e-08
-5.93551e-09
7.85382e-08
-8.27772e-09
-1.45635e-09
8.48512e-08
-2.88115e-10
-8.44334e-11
2.50882e-08
-4.60347e-09
5.72289e-08
4.63857e-09
-2.31263e-09
6.13489e-08
-1.69236e-09
-8.21607e-09
6.27549e-08
-4.8374e-09
-1.06306e-08
6.1295e-08
-1.2073e-09
3.27624e-08
-4.73923e-09
5.77443e-08
-7.11618e-09
4.89416e-08
6.64927e-09
3.38313e-08
5.59694e-08
-9.34031e-09
1.10857e-08
6.73186e-08
-7.85999e-10
-4.11676e-09
8.07165e-10
2.63131e-08
-1.85543e-10
-1.5358e-08
3.08927e-09
4.17734e-08
-8.93204e-10
9.65506e-09
2.03164e-08
2.18291e-09
1.09264e-08
1.24359e-08
6.58846e-08
8.07673e-09
6.92406e-09
8.1584e-08
-1.3109e-09
3.21076e-09
3.43543e-08
6.66384e-09
5.24163e-08
-3.73181e-09
1.15645e-09
7.51791e-08
5.50132e-09
-2.08145e-09
6.25273e-08
1.19361e-09
4.51784e-09
6.42956e-08
-3.20933e-09
4.50975e-08
-8.23928e-09
7.05627e-08
7.22794e-09
3.18933e-08
-8.80352e-09
6.11211e-08
4.73328e-08
-1.07369e-09
-2.16711e-09
6.73752e-08
2.36918e-09
5.87633e-09
-6.13111e-10
1.94156e-08
5.60651e-10
5.69824e-09
8.43977e-10
4.12895e-08
-1.81993e-10
-1.81363e-09
3.1096e-08
-7.73432e-10
2.35997e-10
6.37416e-09
5.60082e-08
1.33431e-08
7.35234e-09
6.05115e-08
-1.97886e-09
4.72135e-09
4.57989e-08
4.67274e-09
4.43139e-08
6.71751e-09
1.15488e-09
7.4623e-08
4.9367e-09
1.7383e-09
6.99222e-08
-2.81327e-09
2.48536e-09
7.42816e-08
2.09529e-09
4.19524e-08
1.16684e-08
6.2811e-08
-8.86829e-10
4.80496e-08
-2.9141e-09
7.10124e-08
4.42143e-08
6.86577e-09
1.00916e-09
6.1243e-08
-1.96367e-09
2.34531e-09
4.39193e-10
2.59708e-08
-2.474e-09
4.06394e-09
2.25153e-09
3.94903e-08
-2.17087e-09
1.97891e-09
3.35115e-08
-3.4612e-10
1.16493e-08
5.33236e-09
4.04349e-08
9.00786e-09
6.75201e-09
5.68401e-08
4.3816e-10
4.78298e-09
5.1837e-08
5.33433e-10
4.92475e-08
9.49272e-09
-2.10255e-09
7.44921e-08
1.83281e-08
-3.64121e-09
7.14799e-08
1.42753e-09
-1.2836e-09
9.72488e-08
-7.93851e-10
4.59013e-08
7.98337e-09
4.94321e-08
6.36432e-09
4.52978e-08
-4.27556e-09
8.05956e-08
5.16313e-08
5.69887e-09
1.82646e-09
5.11417e-08
2.52666e-10
-1.83973e-09
-1.17614e-10
3.40566e-08
-4.28994e-10
-1.02044e-09
1.27078e-09
3.71343e-08
2.6576e-10
7.58969e-10
3.52168e-08
-5.05757e-09
-3.47873e-09
1.37362e-09
4.42712e-08
-6.50341e-11
-5.69728e-10
5.38781e-08
1.65448e-09
-2.56139e-09
5.39509e-08
6.29765e-10
4.91419e-08
-4.46159e-10
2.33824e-09
7.42124e-08
-1.00188e-08
-4.52435e-10
8.09366e-08
6.23286e-09
2.77558e-09
7.56589e-08
9.55848e-10
5.14508e-08
4.01628e-10
5.27809e-08
-5.14292e-09
5.42428e-08
1.66831e-09
7.50453e-08
5.37489e-08
-5.42269e-10
-2.95908e-09
5.12488e-08
3.39438e-09
-2.11945e-09
-4.2269e-09
3.65961e-08
3.26451e-09
6.79155e-11
-4.89584e-09
3.61374e-08
3.70495e-09
-3.60715e-09
3.33364e-08
2.06701e-09
-7.21532e-09
-4.94565e-09
5.34728e-08
-5.02429e-09
-6.55608e-09
5.40166e-08
7.05538e-10
-7.22397e-09
5.05483e-08
-3.31184e-09
4.60226e-08
-5.72589e-09
-6.18491e-10
7.56116e-08
7.82818e-10
-1.53697e-09
6.94081e-08
8.81969e-09
-2.53518e-10
6.06538e-08
2.60176e-10
5.14482e-08
-5.34422e-09
5.80375e-08
-5.11818e-09
5.5284e-08
3.36739e-09
6.19785e-08
5.38061e-08
3.55168e-09
-1.13751e-09
4.68512e-08
1.98321e-09
1.24052e-10
-2.07524e-09
4.03183e-08
1.77991e-09
3.94386e-10
-1.61607e-09
3.55344e-08
1.94874e-09
-8.81105e-10
3.01509e-08
1.25847e-09
-1.67303e-09
-9.74994e-10
5.4983e-08
-1.16312e-09
-1.36324e-09
5.2795e-08
3.70081e-10
-8.42573e-10
4.8241e-08
3.10442e-10
4.23446e-08
2.34062e-09
1.93614e-09
7.03601e-08
3.68554e-09
1.46109e-09
6.52389e-08
3.35237e-09
2.21515e-09
5.793e-08
2.40616e-09
4.97109e-08
-2.25932e-09
6.43795e-08
-3.85451e-09
6.13392e-08
-2.8249e-10
5.90732e-08
5.17487e-08
-3.09879e-10
-1.49594e-09
4.74509e-08
1.20611e-09
-4.60564e-10
-1.82825e-09
4.10043e-08
1.29325e-09
9.88404e-11
-1.85236e-09
3.55004e-08
1.32668e-09
-1.64383e-09
2.97869e-08
1.18757e-09
-1.96068e-09
-1.73858e-09
5.71864e-08
-9.74758e-10
-1.96828e-09
5.1949e-08
3.6873e-10
-1.68964e-09
4.67355e-08
-1.09113e-09
4.07957e-08
2.51117e-10
-1.22276e-10
6.84928e-08
1.69103e-09
-1.22574e-10
6.19543e-08
2.13786e-09
4.27621e-10
5.53659e-08
6.5588e-10
4.82107e-08
-1.78741e-09
6.75743e-08
-1.41964e-09
6.23357e-08
4.10623e-10
5.73083e-08
5.07433e-08
6.46769e-10
-2.991e-10
4.65859e-08
5.17693e-10
4.79442e-10
-3.84184e-10
4.09557e-08
6.00363e-10
6.40679e-10
-4.09982e-10
3.51148e-08
6.34533e-10
-4.03059e-10
2.91696e-08
5.9959e-10
-9.92119e-11
-3.19521e-10
5.73062e-08
-7.38908e-11
-4.17706e-10
5.19576e-08
4.06912e-10
-3.40802e-10
4.61859e-08
-1.75637e-10
4.0042e-08
8.1314e-10
1.81757e-10
6.71787e-08
1.05913e-09
2.32141e-10
6.10586e-08
1.17351e-09
4.40161e-10
5.44712e-08
4.84965e-10
4.76113e-08
-2.59226e-10
6.88622e-08
-2.68329e-10
6.33275e-08
2.92085e-10
5.73315e-08
5.07353e-08
6.68725e-11
-3.09612e-10
4.65286e-08
3.00083e-10
2.17508e-10
-3.40563e-10
4.07992e-08
3.46565e-10
3.38521e-10
-3.60651e-10
3.49895e-08
3.64962e-10
-3.59916e-10
2.90736e-08
3.54881e-10
-1.55218e-10
-3.38473e-10
5.74904e-08
2.7727e-11
-3.77102e-10
5.18113e-08
2.9778e-10
-3.55661e-10
4.59112e-08
-2.7961e-10
3.97911e-08
3.01391e-10
3.70824e-11
6.65018e-08
5.8143e-10
5.2219e-11
6.03494e-08
6.89356e-10
8.77799e-11
5.392e-08
9.76978e-11
4.73043e-08
-1.79294e-10
6.94743e-08
-2.1127e-11
6.35698e-08
2.47537e-10
5.73218e-08
5.07532e-08
1.4122e-10
-1.35137e-10
4.63534e-08
1.69177e-10
2.07797e-10
-1.53361e-10
4.06921e-08
1.94016e-10
2.6417e-10
-1.67566e-10
3.48949e-08
2.05798e-10
-1.75786e-10
2.89942e-08
2.02944e-10
1.58512e-11
-1.34098e-10
5.74735e-08
1.03001e-10
-1.6456e-10
5.17354e-08
2.16441e-10
-1.65208e-10
4.57955e-08
-1.44912e-10
3.96859e-08
2.21156e-10
4.88782e-11
6.60977e-08
3.55322e-10
4.30974e-11
6.00076e-08
3.98866e-10
3.70209e-11
5.36743e-08
2.43141e-11
4.71769e-08
-3.16309e-11
6.974e-08
5.31858e-11
6.37013e-08
1.64645e-10
5.73727e-08
5.08122e-08
7.24016e-11
-8.88778e-11
4.6267e-08
1.02919e-10
1.24333e-10
-9.68881e-11
4.06217e-08
1.155e-10
1.58681e-10
-1.0416e-10
3.48428e-08
1.21898e-10
-1.10328e-10
2.89583e-08
1.20548e-10
2.68893e-11
-8.80232e-11
5.74458e-08
7.86308e-11
-1.01913e-10
5.16888e-08
1.33874e-10
-1.04999e-10
4.57413e-08
-1.00856e-10
3.96424e-08
1.29362e-10
1.36165e-11
6.58667e-08
2.03164e-10
6.73105e-12
5.98253e-08
2.24488e-10
-3.53733e-12
5.35517e-08
-1.74198e-11
4.71177e-08
-1.40231e-13
6.98501e-08
4.69294e-11
6.3761e-08
9.92595e-11
5.74082e-08
5.08545e-08
4.53579e-11
-5.90715e-11
4.62154e-08
6.52718e-11
7.5848e-11
-6.43144e-11
4.05833e-08
7.22294e-11
9.38813e-11
-6.88793e-11
3.4817e-08
7.66413e-11
-7.46222e-11
2.89428e-08
7.55868e-11
2.3018e-11
-6.0971e-11
5.74247e-08
5.40048e-11
-6.9839e-11
5.16635e-08
8.38537e-11
-7.47232e-11
4.57176e-08
-7.61662e-11
3.96272e-08
7.29266e-11
-7.29128e-12
6.57402e-08
1.14283e-10
-1.31627e-11
5.97275e-08
1.26603e-10
-2.57505e-11
5.34908e-08
-3.92769e-11
4.70927e-08
7.02382e-12
6.98984e-08
3.45302e-11
6.37897e-08
6.06467e-11
5.74289e-08
5.0879e-08
2.60462e-11
-4.29372e-11
4.6189e-08
4.33433e-11
4.41348e-11
-4.62055e-11
4.05641e-08
4.74039e-11
5.56419e-11
-4.96606e-11
3.48049e-08
5.026e-11
-5.36752e-11
2.89367e-08
4.82902e-11
1.57153e-11
-4.69392e-11
5.74132e-08
3.4539e-11
-5.27417e-11
5.16515e-08
5.16725e-11
-5.68886e-11
4.57079e-08
-5.88801e-11
3.96225e-08
4.03369e-11
-2.01803e-11
6.56734e-08
6.31959e-11
-2.54674e-11
5.96778e-08
7.01802e-11
-3.41474e-11
5.34614e-08
-4.38894e-11
4.7082e-08
7.87108e-12
6.99184e-08
2.32647e-11
6.38029e-08
3.75903e-11
5.74402e-08
5.08929e-08
1.4564e-11
-3.19121e-11
4.61766e-08
2.97531e-11
2.55492e-11
-3.41631e-11
4.05555e-08
3.19367e-11
3.36233e-11
-3.6972e-11
3.48001e-08
3.37917e-11
-3.92782e-11
2.89351e-08
3.25472e-11
1.00346e-11
-3.62006e-11
5.74077e-08
2.14116e-11
-4.02485e-11
5.16465e-08
3.14509e-11
-4.35439e-11
4.57047e-08
-4.54967e-11
3.96221e-08
2.23729e-11
-2.35222e-11
6.56388e-08
3.49447e-11
-2.77897e-11
5.96533e-08
3.97599e-11
-3.42366e-11
5.34477e-08
-4.05329e-11
4.70783e-08
6.29718e-12
6.99269e-08
1.56283e-11
6.38088e-08
2.3571e-11
5.74458e-08
5.09001e-08
8.02735e-12
-2.39074e-11
4.61718e-08
2.07566e-11
1.46994e-11
-2.54726e-11
4.05525e-08
2.18815e-11
2.01937e-11
-2.76509e-11
3.47991e-08
2.32331e-11
-2.90174e-11
2.89355e-08
2.26118e-11
6.16746e-12
-2.77818e-11
5.74056e-08
1.30295e-11
-3.04539e-11
5.1645e-08
1.91423e-11
-3.3068e-11
4.57043e-08
-3.47614e-11
3.96231e-08
1.16984e-11
-2.21805e-11
6.56218e-08
1.89295e-11
-2.54327e-11
5.96415e-08
2.23003e-11
-3.03686e-11
5.34421e-08
-3.46057e-11
4.70777e-08
4.61807e-12
6.993e-08
1.03911e-11
6.3811e-08
1.47636e-11
5.74482e-08
5.09037e-08
4.42915e-12
-1.7758e-11
4.61706e-08
1.45493e-11
8.42602e-12
-1.89056e-11
4.05521e-08
1.53692e-11
1.21331e-11
-2.04984e-11
3.47996e-08
1.63314e-11
-2.13271e-11
2.89367e-08
1.58359e-11
3.72553e-12
-2.09366e-11
5.74053e-08
7.85861e-12
-2.27734e-11
5.1645e-08
1.16939e-11
-2.48094e-11
4.5705e-08
-2.61719e-11
3.96245e-08
6.28075e-12
-1.9027e-11
6.56139e-08
1.03942e-11
-2.14521e-11
5.96365e-08
1.27898e-11
-2.49167e-11
5.34401e-08
-2.76494e-11
4.70783e-08
3.18149e-12
6.99306e-08
6.69593e-12
6.38114e-08
9.13282e-12
5.74491e-08
5.09056e-08
2.43822e-12
-1.29668e-11
4.6171e-08
1.01769e-11
4.85459e-12
-1.37722e-11
4.05528e-08
1.07312e-11
7.38332e-12
-1.49117e-11
3.48007e-08
1.13808e-11
-1.54448e-11
2.89379e-08
1.10803e-11
2.22202e-12
-1.54376e-11
5.74057e-08
4.72584e-12
-1.67166e-11
5.16456e-08
7.19298e-12
-1.82488e-11
4.5706e-08
-1.92967e-11
3.96259e-08
3.39991e-12
-1.51452e-11
6.56105e-08
5.82991e-12
-1.68764e-11
5.96345e-08
7.5169e-12
-1.92539e-11
5.34397e-08
-2.10331e-11
4.70791e-08
2.1014e-12
6.99304e-08
4.21094e-12
6.38113e-08
5.65035e-12
5.74494e-08
5.09066e-08
1.37556e-12
-9.18624e-12
4.61718e-08
7.00174e-12
2.86915e-12
-9.74088e-12
4.05537e-08
7.3528e-12
4.58117e-12
-1.05318e-11
3.48017e-08
7.80351e-12
-1.08935e-11
2.8939e-08
7.70051e-12
1.34062e-12
-1.10126e-11
5.74063e-08
2.87285e-12
-1.18912e-11
5.16464e-08
4.48229e-12
-1.29973e-11
4.5707e-08
-1.37603e-11
3.9627e-08
1.88779e-12
-1.12779e-11
6.5609e-08
3.36105e-12
-1.24799e-11
5.96338e-08
4.54126e-12
-1.4085e-11
5.34397e-08
-1.52259e-11
4.70797e-08
1.36668e-12
6.99299e-08
2.65642e-12
6.38109e-08
3.54898e-12
5.74494e-08
5.0907e-08
8.21167e-13
-6.16027e-12
4.61725e-08
4.619e-12
1.75665e-12
-6.52618e-12
4.05544e-08
4.83612e-12
2.8747e-12
-7.04768e-12
3.48025e-08
5.13808e-12
-7.29484e-12
2.89397e-08
5.1058e-12
8.41134e-13
-7.39748e-12
5.74068e-08
1.80335e-12
-7.97628e-12
5.16469e-08
2.84155e-12
-8.72268e-12
4.57076e-08
-9.24295e-12
3.96277e-08
1.09601e-12
-7.73214e-12
6.56084e-08
2.02133e-12
-8.5254e-12
5.96335e-08
2.83464e-12
-9.56007e-12
5.34398e-08
-1.02587e-11
4.70801e-08
9.00816e-13
6.99294e-08
1.71884e-12
6.38106e-08
2.30155e-12
5.74493e-08
5.09071e-08
5.51846e-13
-3.71289e-12
4.61728e-08
2.79976e-12
1.15552e-12
-3.93423e-12
4.05548e-08
2.9277e-12
1.84948e-12
-4.24243e-12
3.48028e-08
3.11321e-12
-4.41838e-12
2.894e-08
3.07805e-12
5.87599e-13
-4.40141e-12
5.74069e-08
1.21882e-12
-4.75016e-12
5.16471e-08
1.88541e-12
-5.19619e-12
4.57078e-08
-5.51558e-12
3.96279e-08
7.05984e-13
-4.59001e-12
6.56079e-08
1.32e-12
-5.06354e-12
5.96332e-08
1.87519e-12
-5.66059e-12
5.34398e-08
-6.0503e-12
4.70802e-08
6.47688e-13
6.99288e-08
1.20329e-12
6.38101e-08
1.61625e-12
5.7449e-08
5.09069e-08
4.05985e-13
-1.9803e-12
1.55436e-12
8.40668e-13
-2.11948e-12
1.63763e-12
1.26636e-12
-2.27803e-12
1.74262e-12
-2.42579e-12
1.82182e-12
4.46959e-13
-2.24689e-12
9.2864e-13
-2.45547e-12
1.37296e-12
-2.68681e-12
-2.87009e-12
5.00748e-13
-2.25908e-12
9.92026e-13
-2.53028e-12
1.38667e-12
-2.82802e-12
-3.03857e-12
4.9551e-13
9.72328e-13
1.32369e-12
-2.87486e-09
-1.45727e-08
6.24417e-08
-1.96681e-09
-1.1913e-09
5.873e-08
-1.84971e-09
5.11833e-09
6.17086e-08
9.43786e-09
4.45346e-08
3.05503e-10
-2.45644e-10
2.21235e-08
1.07195e-10
-1.65604e-09
5.29911e-08
1.92922e-09
3.96786e-09
5.99641e-08
-6.93318e-10
7.68838e-08
4.81768e-10
2.22527e-09
2.75497e-08
3.01738e-09
-2.11203e-09
4.43283e-08
1.28876e-09
-1.8401e-11
5.99304e-08
-3.50199e-09
4.66277e-08
-1.94761e-09
2.90298e-08
2.9439e-09
2.65639e-08
-5.09656e-10
4.62509e-08
4.40234e-08
-6.42584e-10
8.42021e-09
5.08874e-08
-7.44586e-09
-1.97217e-10
6.79522e-08
3.94291e-09
1.17579e-08
4.1811e-08
-1.20407e-08
8.04477e-08
-2.14446e-09
7.49817e-09
2.09516e-08
-1.19075e-09
3.12921e-09
4.8711e-08
-9.14086e-10
3.59164e-09
6.78537e-08
-9.49334e-09
8.67836e-08
-5.04011e-09
-9.25495e-09
5.1407e-08
-3.43071e-09
3.35908e-09
4.2489e-08
-8.44914e-09
1.72592e-09
6.68145e-08
1.2765e-08
2.11069e-08
1.4257e-09
1.83189e-08
-3.67167e-09
4.0131e-08
1.77449e-09
4.28725e-08
6.78204e-08
-2.67459e-09
8.46239e-09
4.36122e-08
7.06353e-10
1.7502e-08
5.14822e-08
-1.99266e-09
-6.07784e-09
5.04061e-08
-1.24184e-08
1.11092e-07
-1.79686e-09
3.93363e-09
2.84648e-08
-7.27039e-09
5.30073e-09
6.63857e-08
-1.56929e-09
3.04301e-09
5.30317e-08
1.07072e-08
6.73374e-08
-1.92443e-08
6.88817e-09
6.31795e-08
-8.96005e-09
9.83742e-09
2.76681e-08
6.34379e-09
3.2405e-10
5.42296e-08
-6.43462e-09
4.96787e-08
-7.12674e-09
2.5516e-08
-1.36212e-09
4.24535e-08
1.51292e-09
4.49947e-08
5.50936e-08
-3.03649e-09
-1.01929e-08
5.46642e-08
8.33388e-10
7.73047e-09
4.02776e-08
-2.97523e-09
-3.2705e-10
5.49558e-08
4.6263e-09
1.01904e-07
8.38256e-10
-9.37611e-09
2.66243e-08
-2.31349e-09
2.82254e-09
7.44454e-08
-4.7447e-10
-7.91152e-10
5.16568e-08
3.90983e-09
6.41163e-08
4.66127e-09
8.46461e-09
3.97843e-08
-3.03651e-09
-2.90907e-09
4.10975e-08
3.83299e-09
4.74107e-09
4.18279e-08
1.69167e-09
5.34565e-08
-1.44862e-09
3.40782e-08
1.15572e-09
3.34804e-08
1.96783e-09
4.82663e-08
5.8121e-08
2.01828e-09
2.77194e-09
5.20592e-08
-1.40015e-09
-9.32383e-10
4.50441e-08
2.79542e-09
2.80378e-09
4.78545e-08
-4.9689e-09
1.06234e-07
-4.00072e-10
-2.1363e-11
3.03783e-08
-2.53894e-09
4.55587e-09
7.1096e-08
-1.39665e-09
3.20494e-09
5.01134e-08
4.28828e-09
4.66155e-08
5.41321e-12
1.01878e-08
2.93877e-08
-1.81061e-09
7.35694e-09
4.01124e-08
1.26104e-09
2.72386e-09
3.92373e-08
-1.54786e-10
6.23309e-08
-8.45959e-10
4.76297e-08
-3.30568e-09
4.66957e-08
1.88882e-09
4.13138e-08
5.98041e-08
2.54588e-09
1.49571e-08
3.36692e-08
1.41048e-09