FoamFile
{version 2.0; format ascii;class vectorField; location 0;object  v;}
2510
(
( -0.000233235 3.06085e-05 8.99984e-05 )  
( -0.000582079 -0.000273292 -0.000346755 )  
( 0.00304796 0.000744793 0.00738386 )  
( 0.00165034 0.00281148 0.00604065 )  
( -0.000716848 0.0013312 6.719e-05 )  
( 0.000128714 4.59631e-05 0.00711814 )  
( 0.00203234 0.000691091 0.00446143 )  
( 3.64401e-05 -0.00073554 0.000830301 )  
( -0.00157908 0.00234926 0.00852395 )  
( 0.00668653 0.0057158 0.0217487 )  
( -0.0006172 -0.00101339 0.0111226 )  
( -0.00207234 0.0019444 0.0105881 )  
( -0.000562678 -0.00293474 0.00455536 )  
( -0.000178002 -0.000233342 -7.24517e-05 )  
( -0.000225858 0.000137684 -3.31804e-05 )  
( -2.82312e-06 0.00047252 -8.7196e-05 )  
( -0.00140967 0.000907016 -0.000152649 )  
( -0.00170738 0.00114703 -0.000297763 )  
( 0.000222503 -8.19467e-05 -2.79686e-05 )  
( 0.00032068 -5.98948e-05 0.00666939 )  
( 0.0003662 -0.000273865 0.00579397 )  
( 0.000145724 0.000187505 -0.000219914 )  
( 0.00079819 0.000324506 0.00414214 )  
( -0.00146952 -0.00215773 -0.000291767 )  
( 0.000368782 0.000926225 0.00555881 )  
( -0.00036681 -0.00064317 0.00338335 )  
( 0.001153 -0.000604529 0.00636896 )  
( -0.00111836 0.00308641 0.00841205 )  
( 7.69264e-07 0.000304326 -0.000362132 )  
( 0.00155781 0.000287711 0.00677521 )  
( -0.0011521 0.000866071 0.00424519 )  
( -0.000169303 -0.000368454 -0.000628364 )  
( -0.00726566 -0.00237098 0.0124767 )  
( -5.71947e-05 -0.000986179 0.00717624 )  
( -4.78267e-05 -0.000393432 3.77898e-05 )  
( -0.000598677 -0.000340031 0.0053692 )  
( -0.00062578 -0.000125331 0.00787584 )  
( -0.00183992 0.000451795 0.00591886 )  
( -0.00104559 0.000241004 0.00585135 )  
( 0.00134415 0.0011778 0.00587026 )  
( -7.78678e-05 0.000405757 -5.23736e-05 )  
( 0.00128489 0.00117672 0.00588475 )  
( 0.00196021 0.00274835 0.00590176 )  
( -0.00231284 -0.00190578 0.00507599 )  
( 0.000205618 0.000563908 0.00513856 )  
( -0.000941784 0.00282363 -0.000179647 )  
( -0.000631437 -0.00227802 0.00569266 )  
( -0.000676887 0.000626783 4.45894e-05 )  
( -0.000214023 0.00012289 3.09604e-05 )  
( -5.56219e-05 0.00114738 0.00538086 )  
( 0.000188298 0.000240034 0.0038886 )  
( 0.000739708 0.00325703 0.00377986 )  
( 0.000261789 0.000496379 -0.000274179 )  
( 0.00112703 0.000330731 0.00567164 )  
( 5.02063e-05 8.18222e-05 0.00561208 )  
( -0.00300738 2.71528e-05 0.0105376 )  
( -8.51867e-05 -0.000571517 0.00419635 )  
( -0.000345132 -4.39748e-05 -1.89269e-05 )  
( 0.000342116 -3.94485e-05 0.00635332 )  
( 0.000917844 -0.000420059 0.00544723 )  
( 0.00081408 0.000700484 0.00456073 )  
( 0.000636525 -0.000119835 0.00600575 )  
( 3.67795e-05 -0.000294683 0.00354383 )  
( 0.000257176 0.00017313 0.00640908 )  
( 0.000812222 -0.00145104 0.00633281 )  
( -9.58451e-05 0.00122085 -0.000219401 )  
( 0.00143225 0.0055523 0.00951479 )  
( -0.00126278 0.000930889 0.00459215 )  
( 0.000739949 -0.000636464 0.00480831 )  
( 0.000541145 0.00230225 0.00584385 )  
( 0.000439577 -0.000836693 0.00538242 )  
( 0.000275113 -0.000538166 0.00587913 )  
( -0.000819604 0.000112521 -3.7421e-06 )  
( 0.00144527 -0.000316978 0.00404651 )  
( -0.000909153 0.00221684 0.00257777 )  
( 4.25151e-06 7.94997e-06 -2.63264e-05 )  
( 0.00082466 -0.000910229 0.0083075 )  
( -0.0035981 -0.0020307 0.00796579 )  
( 9.89693e-05 -0.000428185 -0.000237056 )  
( 0.000123591 0.00103238 -0.00012011 )  
( 0.000629081 0.000755044 -2.61012e-05 )  
( -0.000331296 -0.000419142 -2.93396e-05 )  
( 0.00134894 -0.000450309 0.00512693 )  
( 0.000206162 -0.00101705 0.00413205 )  
( 0.000438483 0.00122157 0.00860847 )  
( 0.000399532 -0.00048456 0.0045802 )  
( 0.000630768 0.000214408 0.00606328 )  
( -0.000895136 -0.000217476 1.74882e-05 )  
( -0.00280553 -0.00136577 0.00745465 )  
( 0.00061331 -0.000340657 0.00618147 )  
( 5.51286e-05 7.71173e-06 -2.21494e-05 )  
( 0.000563434 -0.00161201 0.00563199 )  
( -0.0010128 0.000713757 0.00821545 )  
( 0.00132352 0.00216497 -0.000791925 )  
( -0.00136145 -0.000792016 0.00280349 )  
( 0.000766264 0.00271108 0.00864717 )  
( -0.00120487 0.000769645 -0.0011586 )  
( 0.0023703 0.00315818 -0.00159526 )  
( 0.00100559 3.28509e-05 0.00473536 )  
( 0.0016461 -0.000306367 0.00595049 )  
( -0.000106112 -2.50183e-05 1.50925e-05 )  
( 0.000957412 -0.000450925 0.00543392 )  
( 0.00163939 0.000862249 0.00601937 )  
( 0.0016892 0.000368937 0.00620027 )  
( -0.00414333 -0.000512967 0.00684848 )  
( -0.000260888 -0.000623477 0.000188324 )  
( 0.000396975 -0.000986664 0.00524768 )  
( 0.00118415 -0.00304106 0.00567746 )  
( 0.000274831 -0.000248649 0.00626282 )  
( -0.00221181 0.000160831 0.00737588 )  
( 0.000657063 -0.00134507 0.00557622 )  
( -0.00207856 -0.000301002 0.00155046 )  
( 0.00154289 -0.000252127 0.00515888 )  
( -0.000641084 -0.000722665 8.14429e-05 )  
( 0.000713376 -0.000349034 0.0054 )  
( -0.00126503 -0.000315716 -0.000287141 )  
( -0.00664788 -0.00324361 0.00899021 )  
( 6.70721e-05 0.00176424 0.00486809 )  
( -0.00127139 -0.00287952 0.00307556 )  
( -0.00347131 -0.000674957 -0.00302482 )  
( 0.000364131 -0.000160101 0.00604061 )  
( 0.00213843 -0.000621598 0.00580549 )  
( -0.00169568 0.00248473 0.0107962 )  
( 1.10643e-05 0.000224135 -0.000597547 )  
( 0.000540821 -0.000694306 0.00479469 )  
( 0.000215081 0.000418967 0.00733467 )  
( 9.52403e-05 -8.23447e-05 0.0082955 )  
( 0.000525246 0.000281583 0.00542664 )  
( 1.53102e-05 0.000138226 2.13199e-05 )  
( -0.000597769 -0.000548908 0.00288427 )  
( 0.00103295 -0.00136432 0.0064556 )  
( -0.00263695 0.00279199 0.00953118 )  
( 0.00011583 0.000719944 0.00735907 )  
( 0.00129036 -0.000330518 0.00467009 )  
( 0.00367041 -0.00290976 0.00700344 )  
( 8.13493e-05 0.000222283 -7.42242e-05 )  
( 0.000787853 0.0023947 0.0064817 )  
( -0.000169443 0.00023347 0.00417109 )  
( -0.00277466 -0.00125665 0.00568639 )  
( -0.000175889 -0.000687789 0.00458564 )  
( 0.00140625 0.00359229 0.00731535 )  
( -0.000251377 -0.000564388 0.00253325 )  
( -0.00142552 8.90299e-05 -0.000253626 )  
( -9.18396e-05 -0.0013138 0.00673395 )  
( -0.00221475 0.00204498 0.00897959 )  
( 0.000337251 0.000434077 -0.00102412 )  
( 0.00157819 1.54618e-05 0.00593154 )  
( 0.001013 -0.000718271 0.00504604 )  
( 0.00052584 -0.000339385 0.00514468 )  
( 0.0011182 0.000884727 0.00663457 )  
( 0.000120358 -0.000129029 -0.000302198 )  
( 2.79567e-05 4.56398e-05 -7.32019e-06 )  
( -0.000661804 -0.00121155 -0.00088894 )  
( 0.000728909 0.000490103 0.00523686 )  
( 0.000272053 0.000427046 0.00634596 )  
( 0.00033039 -0.000530175 0.0050744 )  
( 0.000430392 -0.00113352 0.00644166 )  
( -0.000804797 3.69234e-05 -0.000269212 )  
( 0.000857681 -0.000769324 0.00473386 )  
( -0.000127382 -0.000603791 -0.0003269 )  
( 0.00205151 0.000190264 0.00428182 )  
( 0.00156655 -0.0010371 0.00566217 )  
( 0.00068265 0.00249056 0.00715354 )  
( -0.000338166 -0.000513907 0.00563552 )  
( -0.00147615 0.000828125 -0.000689439 )  
( 0.00147385 -0.00127144 0.00536502 )  
( 0.00104437 -0.00080924 0.00631589 )  
( 0.00177981 -0.000385993 0.00614545 )  
( 0.00100805 0.00216852 -0.00560819 )  
( 0.00035313 -0.000321754 -0.000673377 )  
( 0.000937466 -0.000593489 0.00533469 )  
( 0.00158689 -0.000846964 0.00514189 )  
( 0.00100196 -0.000370848 0.00609915 )  
( 0.00046044 -0.00147751 -0.000845296 )  
( 0.000605742 -0.000788492 -0.000653103 )  
( -0.0020515 -0.00464075 0.00658026 )  
( 6.38944e-05 0.000442599 -4.46579e-05 )  
( 0.000162806 0.0018806 0.00671808 )  
( -0.00292822 -0.000347111 0.00474522 )  
( 0.000411393 -0.000230909 0.0139445 )  
( 3.28816e-05 2.72924e-05 6.87132e-05 )  
( 0.000891368 0.00166324 0.00600225 )  
( -0.000621839 -0.00283102 0.0066074 )  
( -0.000904666 0.000115282 0.00396488 )  
( -6.08188e-05 -0.00110466 0.00575515 )  
( -0.00065956 -0.00175652 0.00891544 )  
( -0.00232454 0.00197864 -0.000397473 )  
( -7.29707e-05 0.001203 0.000107399 )  
( 0.00129951 -0.000655655 -3.791e-05 )  
( 0.00032135 0.00264875 0.00513998 )  
( -0.000162909 -0.000202674 0.00645585 )  
( -0.000222184 -0.00118215 4.88626e-05 )  
( -0.0014239 -0.00166143 -5.79043e-05 )  
( 0.00036103 -0.000706022 0.00637627 )  
( 0.000200314 0.000349139 0.00550118 )  
( 0.000243282 0.00161484 0.00615548 )  
( 0.000440902 0.000560086 0.00679078 )  
( 0.0006372 0.000245367 0.00692297 )  
( -0.00072804 0.000393096 0.000855258 )  
( -7.94453e-06 -0.000923082 0.00641184 )  
( -8.18702e-05 -0.000478172 3.35691e-05 )  
( -0.00151546 -0.000218596 0.000430381 )  
( -0.000249897 -5.33118e-06 4.87828e-05 )  
( 0.000991879 0.00014393 0.00309464 )  
( -0.000351023 -0.00154421 0.00468802 )  
( 0.000385071 -0.000411185 0.00562633 )  
( -0.000395069 -0.000494273 0.00410835 )  
( -0.00136955 0.000802764 -0.000529564 )  
( 7.81255e-05 3.05394e-05 3.29288e-07 )  
( -0.00363809 0.00515089 -0.00183802 )  
( 0.00249884 -0.000562071 0.00493649 )  
( -0.000327405 0.000117716 0.00408984 )  
( -0.000494127 0.00011769 -0.00278605 )  
( 0.000893828 -0.000563389 0.00864359 )  
( 0.00313893 -0.00137423 0.00734506 )  
( 0.00605537 0.000106432 -0.00635784 )  
( 0.00010896 0.000264289 -1.29584e-05 )  
( 0.000747368 0.00054183 0.00541792 )  
( -3.57707e-05 -0.000350718 0.00426232 )  
( 0.000688816 -0.000232431 0.00714114 )  
( 0.000773693 -0.000951854 0.00584037 )  
( 0.00133194 -9.50936e-05 0.00557016 )  
( -0.000548677 -0.00038737 0.00651182 )  
( -0.000364259 -0.00262543 0.00941756 )  
( 0.00216529 0.000804955 0.0051728 )  
( 0.00108908 6.62473e-05 0.00525346 )  
( 0.000342728 0.000414412 0.00581252 )  
( -0.000789696 -0.000746448 0.00244255 )  
( -0.000330695 -0.00224846 0.00821626 )  
( 0.000807713 0.000681898 0.00663577 )  
( 0.000138901 0.000823434 0.00455359 )  
( 0.00104225 0.000543305 0.00531306 )  
( -0.000375991 -0.000173401 -5.04929e-05 )  
( 0.000315174 0.000219676 0.000398534 )  
( -0.000995599 -4.57946e-05 0.0052173 )  
( 0.000247525 9.00275e-05 -7.24884e-05 )  
( 0.000360626 2.94346e-06 0.00599554 )  
( 0.00135864 -0.00108318 0.00678615 )  
( -0.00072763 0.000296125 -0.000408386 )  
( -0.00124527 0.00106374 0.00516274 )  
( -9.72592e-05 -0.00141518 0.00526363 )  
( 0.000173035 -0.00202608 4.81992e-05 )  
( 0.000248409 0.00100192 0.00588998 )  
( 0.000518226 0.000532081 0.00559729 )  
( 2.64099e-05 3.50331e-05 0.00809789 )  
( -0.00142196 -0.00083036 -3.10067e-05 )  
( 0.000401759 -0.000430194 0.00597138 )  
( -0.000332114 -0.000888342 0.000290352 )  
( 0.000735838 0.00131073 0.00647552 )  
( 0.000211994 1.8202e-05 -0.000260773 )  
( 0.000581208 -0.00063475 0.00520883 )  
( 0.00130769 -0.000401337 -0.000155582 )  
( -9.05709e-05 -0.000209531 0.0062594 )  
( 0.000424669 -0.00136909 0.00609656 )  
( 0.00233841 0.00115242 0.00686104 )  
( 0.00041537 -0.00136418 -5.55784e-06 )  
( 0.000209271 0.000235285 0.0055549 )  
( 0.000576382 -0.000626759 0.00598919 )  
( 0.000381987 -0.000444606 0.00519335 )  
( 0.000889705 0.000980009 0.00400944 )  
( 0.000260663 0.00049091 0.00599534 )  
( 3.59367e-05 -3.87046e-05 7.57213e-05 )  
( -0.000423563 -0.000488658 -2.22197e-05 )  
( 0.000544473 -1.74005e-05 0.00667048 )  
( 0.000548273 0.00240868 0.00773142 )  
( 0.000461302 -0.00037469 0.00621312 )  
( 0.00136731 0.00128787 0.00284163 )  
( 0.000767281 -0.000940764 0.00459832 )  
( 0.00136894 0.000314903 0.00466 )  
( -0.000531445 0.000546253 -0.000788826 )  
( 0.00115092 0.000942489 0.00541222 )  
( -0.000184537 -0.000101498 -5.20783e-05 )  
( -0.0040486 0.00030322 0.00170719 )  
( 0.00209764 0.00101186 0.00491933 )  
( -0.000917337 0.00187188 0.00666599 )  
( -0.0010782 0.00102819 0.000203489 )  
( -0.000141643 -0.000186088 -7.9036e-05 )  
( 0.000463859 -0.000893607 0.00612444 )  
( 0.000413957 -0.000154191 0.00550311 )  
( 0.00103945 -0.000891954 0.00573092 )  
( 0.00113517 0.00111018 0.000397477 )  
( 0.000107007 -0.000463371 0.00400863 )  
( 0.00183623 6.45213e-06 0.0032194 )  
( -0.00188205 -0.00353252 0.00580703 )  
( 0.000264843 -0.000299751 0.00553243 )  
( 0.00341852 -0.000918413 0.00677658 )  
( -0.00092194 -0.00135161 0.0059803 )  
( -0.00301137 0.00195473 0.0103944 )  
( 0.000319487 -0.00126317 0.00419146 )  
( 0.000251989 -0.000689134 0.00516339 )  
( 0.000932206 -0.000187663 0.00589903 )  
( 0.000680703 -7.48777e-05 0.00627635 )  
( -2.35039e-05 -0.00024502 0.000176146 )  
( 0.00166823 -0.00189159 0.00506796 )  
( -0.000391656 -0.000998814 0.00494468 )  
( -0.000862303 0.000247752 0.0025891 )  
( 0.000709355 -0.00128534 0.00481389 )  
( -0.000753939 -0.00189107 0.00457118 )  
( 0.00172712 -0.000391586 0.00503913 )  
( -0.00136626 0.000815764 -5.60573e-05 )  
( 0.000122372 0.000750287 0.0099653 )  
( -4.52021e-05 -0.00105302 0.0040284 )  
( 0.000809557 -0.00134712 0.00457384 )  
( -0.00151272 -0.00102763 0.00789734 )  
( -0.00114821 0.000205769 -1.57845e-05 )  
( 0.00240595 -0.00143961 0.005623 )  
( 0.000997228 -0.000628009 0.00409404 )  
( 0.000925827 -0.00151593 0.00499548 )  
( 0.000396771 0.000608811 0.0061222 )  
( 0.00101552 0.000659778 0.00549427 )  
( -0.00171381 -0.000449028 0.000339577 )  
( 0.00217357 0.000508725 -0.000836133 )  
( -1.44925e-05 0.000553285 0.00450335 )  
( -0.00117789 0.000484022 0.00626181 )  
( -0.000912677 -0.000970308 0.00584626 )  
( 0.000245334 0.000759229 -0.000419604 )  
( 0.000460529 -0.000644242 0.0049582 )  
( 0.00139656 0.000154608 -3.0754e-05 )  
( 0.000341784 0.00159298 0.00996615 )  
( 0.000368361 0.00152226 0.0079921 )  
( 0.0023398 -0.000604923 0.00483579 )  
( 0.00136215 -0.000693548 0.0057201 )  
( -0.000340371 0.000710213 -0.000278614 )  
( -0.00131143 0.00393462 0.00810179 )  
( -0.000353316 0.00025494 0.00262947 )  
( 0.00645458 0.000369872 -0.0033419 )  
( 0.00192275 2.28703e-05 0.00619699 )  
( 0.00145443 0.000642979 0.00424498 )  
( 0.000136598 0.00366088 0.00539994 )  
( 0.000729108 -0.000302137 0.00584729 )  
( -0.000208897 -0.000437226 -1.24846e-05 )  
( 0.00168621 0.000436735 0.0077509 )  
( 0.0037177 0.00546812 0.00555566 )  
( -0.00111683 0.00121136 -0.000301299 )  
( 0.00139121 0.00100778 0.00554329 )  
( 2.55904e-05 0.000767936 5.03725e-05 )  
( -0.000820719 0.00108368 0.00600022 )  
( 0.00147709 0.000347456 0.00650793 )  
( 0.000614308 0.00035865 0.00356736 )  
( 0.000720963 -0.000318921 0.0056757 )  
( 0.000633161 -0.000301621 0.00650369 )  
( -0.000744897 0.00120505 0.000548194 )  
( -0.000529358 -0.000140913 -9.69798e-05 )  
( -0.00216219 0.0017591 0.000144795 )  
( 0.000412248 -0.000816631 0.00535828 )  
( 8.2765e-07 0.000470201 -0.000154399 )  
( 0.000469925 -0.00134096 0.00454482 )  
( -0.000783915 0.000877872 0.00500912 )  
( -0.000485224 -0.000395967 -0.000149142 )  
( 0.000217856 0.000364422 0.00252697 )  
( 0.00152312 -0.00338567 0.00405445 )  
( 8.10605e-05 -0.00047771 -7.60178e-07 )  
( 0.00806629 -0.000711406 -0.00640033 )  
( -0.00113666 0.00188792 0.00385049 )  
( -0.000656821 -0.0010665 0.00785322 )  
( 0.000429144 -1.01907e-05 0.00680266 )  
( 0.000523322 -0.00057392 0.00561097 )  
( -0.000611495 0.00302375 0.00650373 )  
( 0.00042101 -0.000842919 0.00186118 )  
( 0.00116262 -0.000565404 0.0058475 )  
( -0.000826625 -0.000891281 0.00501583 )  
( 0.00021704 0.000287536 0.00583777 )  
( 0.000611868 -1.71432e-05 0.00654885 )  
( 0.00119389 -0.00043142 0.00698465 )  
( -0.00209844 -0.00246148 0.00904596 )  
( 0.000839494 -0.00330594 0.00341901 )  
( 0.000651272 -0.000391198 0.00475449 )  
( -7.71347e-05 -0.000609717 0.00603906 )  
( 0.000141451 0.00164901 0.00469144 )  
( 0.000337651 0.000664554 0.0048055 )  
( 0.000385091 0.000371953 0.00592499 )  
( 0.00122755 -0.000315779 0.00505882 )  
( 0.00079099 -0.00043519 0.00489267 )  
( -0.000462729 -0.000836049 -0.000216267 )  
( -8.29754e-05 -0.000278281 -0.000526446 )  
( 0.00151544 -0.000237921 0.00478394 )  
( -0.00148553 0.00417477 -0.00324158 )  
( -0.000269685 0.000514321 0.00019948 )  
( -6.2884e-05 8.80802e-06 -0.000180277 )  
( -0.000333984 -0.00258291 0.00555502 )  
( -0.00271961 0.0019603 0.016772 )  
( -0.00220585 -0.00029834 0.000901528 )  
( -0.000200917 -0.000252707 0.00631751 )  
( -0.000218647 0.00105741 0.000319182 )  
( -0.00229937 -0.00237185 -0.00127253 )  
( 0.00112959 0.000400237 0.00603316 )  
( 0.00108124 0.000689939 -0.0033481 )  
( -0.000888202 -0.000418181 -0.000140787 )  
( -0.00550364 -0.00224652 -0.00182152 )  
( -0.000380824 -0.000298031 0.00302364 )  
( -0.000460434 0.00125494 0.00502405 )  
( 0.000485217 -0.00130238 0.00761679 )  
( 0.000104968 -0.000519708 0.00555231 )  
( 0.000308163 0.000118817 -0.00293332 )  
( 0.00150277 0.00819095 -0.000441546 )  
( 0.000604343 -0.00110615 0.00543511 )  
( 3.71098e-05 0.000152123 -0.00013558 )  
( -0.000626325 -0.000504777 0.00576802 )  
( 0.000568127 -0.000123868 0.00743573 )  
( 0.000278441 -0.000167906 0.00459276 )  
( 0.000195158 -0.00153295 0.00537321 )  
( 0.000527088 -0.000523827 0.00521872 )  
( -0.00133636 -0.000599631 0.00610888 )  
( 0.00262177 8.23172e-05 0.00706092 )  
( 0.000697498 -0.000250071 0.00631953 )  
( -9.16852e-05 0.00116576 0.00447739 )  
( 0.00189403 -0.000373793 0.00525858 )  
( -0.00241492 0.0014891 0.00781757 )  
( -0.00022002 7.68758e-05 -0.000189829 )  
( -0.00106807 -0.00142249 0.0109849 )  
( -0.000526024 -0.00052675 0.00562544 )  
( 0.00053031 0.00111389 6.73233e-05 )  
( 0.000406299 0.000743954 0.00618717 )  
( 0.00311107 -0.00121271 0.0112174 )  
( 0.00233419 -0.000819971 0.00907002 )  
( -0.000926375 -0.000240249 -1.17015e-05 )  
( -0.00105984 -0.000153802 0.00417199 )  
( -0.000289262 -0.00197377 0.000255566 )  
( 2.74965e-05 -0.000523705 -4.26077e-07 )  
( 0.000110725 -0.000530843 0.00719506 )  
( 0.0010931 0.000478578 0.00761814 )  
( 0.000615037 -0.00062123 0.00600667 )  
( 1.67939e-05 -0.000705538 0.00597304 )  
( 0.0037341 -0.00268103 0.00699406 )  
( 0.000694944 0.00167749 0.00581627 )  
( 2.36341e-05 0.000416124 -2.2586e-05 )  
( -0.000614462 -0.00106771 0.00418907 )  
( -0.000716513 -0.000295487 -9.97975e-05 )  
( -6.81885e-05 0.000908419 0.00480504 )  
( -0.000262059 0.000333041 1.51887e-05 )  
( -0.000238764 0.000579572 0.00465311 )  
( 0.000406484 0.000739087 0.00626305 )  
( -0.000449954 -0.00038282 -0.000283841 )  
( 0.000641692 -0.000901896 0.00487215 )  
( 0.000312064 -0.000147 -0.000197213 )  
( -0.000439647 -0.00244922 -1.09929e-05 )  
( 0.00355945 -0.00172522 0.00481303 )  
( 0.000125694 -0.000628501 0.00588399 )  
( 0.000718271 0.000426188 -0.00123414 )  
( 0.000962009 0.00143613 0.00582703 )  
( -0.000494967 -0.000106131 0.00398231 )  
( 0.000509759 -0.000859222 0.00623077 )  
( 0.00312016 0.000352711 0.00718115 )  
( 0.00162706 -0.000146323 0.0040747 )  
( 0.000371026 -0.000359767 0.00491906 )  
( -0.000181046 0.000235933 7.86053e-06 )  
( -0.000540821 -0.00140114 0.00435546 )  
( 0.000954904 0.00397704 0.00480861 )  
( -0.00161158 -0.000146483 -3.68022e-05 )  
( -0.000299679 -0.00025373 0.00335112 )  
( -0.000368275 -0.000236415 2.17687e-06 )  
( 0.00108708 -0.000420004 0.00563582 )  
( -0.00365059 -0.00173689 0.0104678 )  
( 0.00110309 0.00149227 0.00532994 )  
( 0.000861575 -0.000950248 0.00471341 )  
( 0.00159938 0.0013723 -0.00477673 )  
( -0.000534161 -0.000344378 0.00639781 )  
( 0.000559673 -0.000206957 0.00569843 )  
( -0.000135547 -3.46265e-05 0.00550457 )  
( 0.0014571 -0.000576261 0.00530156 )  
( -0.00100959 -0.000697828 0.00407103 )  
( -0.000173068 -0.000607841 -7.83397e-05 )  
( -0.000434161 0.000120322 1.73491e-06 )  
( -0.000786133 -5.95195e-05 -0.000132953 )  
( 0.000332856 0.00025393 0.00638836 )  
( 0.000618593 -0.00044293 0.00522524 )  
( 0.00145104 0.00321042 0.00379882 )  
( 0.000706279 -0.000448573 0.00509614 )  
( 0.000360406 -0.000912487 0.0070623 )  
( -1.68066e-06 -0.000685572 0.000646845 )  
( -0.000393986 -0.000267714 -0.00018594 )  
( 5.33037e-06 0.000367346 -1.28641e-05 )  
( 0.00253337 0.000261397 0.00501506 )  
( 0.00139613 0.000375705 0.00651229 )  
( -0.000783905 0.000357294 -0.00062432 )  
( 0.000485608 0.001505 0.0047595 )  
( -0.000581978 -0.000349274 0.00718628 )  
( -5.87722e-05 -0.000450132 0.00551815 )  
( -0.000187616 0.00100194 0.00772784 )  
( -0.000791328 -0.000261001 0.00609209 )  
( 0.000727632 -0.000461467 0.00659164 )  
( 0.000906394 0.000551498 0.00636519 )  
( 6.97201e-05 0.00118152 0.00428895 )  
( -0.000619155 0.000360406 -0.000544774 )  
( -0.0015669 0.00144267 1.89975e-05 )  
( 4.96194e-05 0.000596297 0.00587769 )  
( 0.000225622 -0.000246732 0.0053773 )  
( 0.00161469 -0.00053478 0.00759686 )  
( 0.00167363 0.00137321 0.00503124 )  
( 0.00337141 -0.000174364 0.00470585 )  
( 0.000516751 0.000810111 -4.41048e-05 )  
( 0.000624534 1.64648e-05 0.0060765 )  
( 0.000163311 -0.000686151 0.00518935 )  
( 0.000393375 -0.000327146 -0.000152189 )  
( -0.00135552 0.00473156 -0.000967405 )  
( 3.85713e-05 2.43161e-05 -1.41938e-05 )  
( -0.00206117 0.003257 0.010503 )  
( -0.000312107 0.00132848 0.00534468 )  
( -0.000280584 0.00051313 2.79002e-05 )  
( 0.0016597 -0.000157147 0.00630111 )  
( 0.00132836 -0.000941912 0.00529941 )  
( -5.17577e-05 0.00095229 0.0056285 )  
( -0.000715442 -3.84511e-05 9.22732e-05 )  
( 0.00124475 0.000164007 0.00338462 )  
( -0.000396929 -0.00123287 0.00481756 )  
( 0.00139137 -0.00155411 0.00863477 )  
( -0.000460738 -0.000725146 0.00254791 )  
( 0.000598616 0.000283954 -0.00111697 )  
( 0.00173387 -0.00066834 0.00519518 )  
( 0.000541619 2.40428e-05 5.39361e-05 )  
( -0.00103265 -0.000674885 5.16772e-06 )  
( 0.000884177 0.000511096 0.0067708 )  
( -0.00117735 -2.82169e-05 -2.19059e-05 )  
( -0.00393977 -0.00142514 -0.00132696 )  
( 0.000572687 -0.000510881 0.00516152 )  
( 0.000910207 0.00102789 0.00669345 )  
( 0.000386015 -0.00055639 -2.95017e-05 )  
( 0.00090522 0.000133745 0.00383656 )  
( 0.00109993 0.00100211 0.00911503 )  
( 0.00165965 0.00054044 0.00635108 )  
( 0.000525997 0.000241413 0.00540629 )  
( -0.00121893 0.000162345 0.00432949 )  
( -0.000326588 0.000193122 0.00639081 )  
( 0.000615338 -0.000464407 0.0056943 )  
( -0.000506148 0.000777573 -0.000170217 )  
( 0.0015498 0.000439785 0.00704133 )  
( 0.00158487 -0.000465538 0.00514631 )  
( 0.000537368 -0.000762391 0.00579297 )  
( 0.00139484 0.0012484 0.00668289 )  
( 0.000209057 2.04178e-05 0.00536755 )  
( -1.8411e-05 -0.00198372 0.00417173 )  
( 0.00310528 -0.00189813 0.0124554 )  
( 0.000251558 0.000963164 -9.10332e-06 )  
( 0.00185902 0.00134 0.0055042 )  
( 3.27615e-05 -0.000246884 0.000254988 )  
( 4.98481e-05 0.000103335 -5.0894e-05 )  
( -0.000821992 -3.31415e-05 -5.24231e-05 )  
( 0.00164014 -0.000913358 0.00557973 )  
( 1.01109e-05 0.000104381 -4.07014e-05 )  
( -0.00175113 0.000944971 0.00675677 )  
( 0.00138494 -0.000687252 0.00775021 )  
( 0.000266722 3.93986e-05 0.00572203 )  
( -0.000709904 -0.00160057 0.00592723 )  
( -0.00254817 0.000316471 0.000690574 )  
( 0.000545017 0.000251088 0.00461605 )  
( -8.22396e-05 0.00177692 -0.00156885 )  
( 0.00115088 -0.000367395 0.00563223 )  
( 0.000489194 -0.000871027 0.00674271 )  
( -0.000731766 0.000758542 0.00417167 )  
( 0.000492401 -0.000326439 -5.96553e-05 )  
( 0.00017526 4.34646e-05 0.00645451 )  
( -0.000514657 -0.0012338 0.00656575 )  
( 0.000512805 0.000351678 0.00366998 )  
( -0.000366132 -0.00736186 -0.00201687 )  
( 0.00180383 0.00523887 -0.0047233 )  
( -0.00197363 -0.0030692 0.00835335 )  
( -6.45642e-05 0.00216635 0.00705196 )  
( -0.000660414 0.00036981 -0.0013443 )  
( -0.000127713 8.6414e-05 5.05197e-05 )  
( -0.000305479 0.000550514 -0.000170491 )  
( -0.00111237 0.000183501 -5.64508e-05 )  
( 0.000821244 -0.00209872 -0.0019463 )  
( 0.000958324 -0.000838186 0.00634781 )  
( 0.000561841 0.000299315 0.00571298 )  
( 7.38388e-05 6.0658e-05 -2.99513e-05 )  
( 0.000336971 0.00122299 0.00582805 )  
( 0.000130309 0.000914699 0.00540842 )  
( -0.000389901 0.0013518 4.05986e-05 )  
( 0.000717307 -0.00143118 0.00601041 )  
( 5.49953e-05 0.000922824 -0.00105121 )  
( 4.12421e-05 8.916e-05 -0.000199974 )  
( 0.00250105 -0.00130296 0.00608041 )  
( -0.000162161 0.000196009 -0.00016514 )  
( -0.0019537 0.00174455 0.000182872 )  
( 0.00113778 -0.000702372 0.00618207 )  
( -0.00317198 0.000480721 0.00189556 )  
( -0.00112254 -0.0015895 0.00419021 )  
( -0.000341765 4.96809e-05 0.00502518 )  
( 0.00182094 -0.000578351 0.00544805 )  
( -0.00102728 -0.00365121 0.00363835 )  
( 0.000600067 1.67672e-06 0.00473203 )  
( 7.45344e-05 -0.000608609 -0.000756505 )  
( 0.00208381 -0.000497808 0.00516255 )  
( 0.000838848 -0.00143493 0.00604737 )  
( 0.00100225 -0.000849123 0.00542434 )  
( 0.000275041 0.000101091 -0.000194654 )  
( 0.000746041 -0.000630813 0.00607871 )  
( -0.000404159 0.000912397 0.00474049 )  
( -0.00435062 -0.00166706 0.00632798 )  
( -0.000551545 0.00263681 0.00914827 )  
( -0.00104098 0.00569717 -0.00319407 )  
( 0.00115664 -0.00163821 0.0112439 )  
( -0.000577265 -0.000326183 4.93196e-05 )  
( 0.00177619 0.00167822 0.00725437 )  
( 0.0016352 0.00144099 0.00424256 )  
( 0.000751834 0.000379258 0.00575707 )  
( 0.000431422 -0.00054259 0.00576633 )  
( 0.0024708 0.00121644 0.00722013 )  
( -0.000380162 -0.000124589 9.04277e-05 )  
( 0.000203766 -0.000276272 0.00575453 )  
( 0.00164234 0.00337777 0.00410638 )  
( 0.00117218 -0.000840993 0.00415826 )  
( 0.00102276 0.000755876 0.00651417 )  
( 0.000652824 0.00275009 0.00617805 )  
( 8.82561e-05 -0.00178931 0.00408973 )  
( 0.000408893 -0.000559436 0.000484399 )  
( 0.00282416 -0.000301008 0.00705083 )  
( 0.000187752 -0.00128181 0.00453205 )  
( 1.55019e-05 0.000740804 -0.00104245 )  
( 0.00135856 -0.000443837 0.00862273 )  
( 0.00175336 0.00213513 0.00716694 )  
( 0.00126046 -0.00106222 0.00420991 )  
( 0.000631948 -0.000408159 0.00560167 )  
( 0.00249072 0.000231099 0.00405594 )  
( 0.00103849 -0.00114015 0.00508877 )  
( 6.86651e-05 0.000578001 0.00103483 )  
( 0.000514527 -0.000643218 0.00651448 )  
( 7.56795e-05 -6.61834e-05 -4.21512e-05 )  
( -0.00249297 -0.0013298 0.00776758 )  
( 0.000231336 -0.000221025 -7.66202e-05 )  
( -0.000233344 -0.000116378 0.00531425 )  
( -0.000305551 0.000192659 0.00331792 )  
( -0.000171922 0.000146823 0.00700777 )  
( 0.000651554 -0.00105403 0.00705747 )  
( 0.000401982 0.000835547 1.52515e-05 )  
( -0.00140041 0.00028247 -8.78624e-05 )  
( -1.56984e-05 -0.00102764 0.00492039 )  
( 0.00060034 0.001741 0.00551141 )  
( 7.12796e-06 7.54177e-06 -3.18153e-05 )  
( 0.001076 -0.00060743 0.00884267 )  
( -0.000182534 -0.00233522 0.00519663 )  
( 0.0014778 -0.00086355 0.00554013 )  
( 0.00156914 0.000159338 0.00562725 )  
( 0.000962008 4.09487e-06 0.00527726 )  
( 0.00057333 -0.0026751 -0.00103997 )  
( 0.00108368 -0.00051816 0.00470794 )  
( -0.00040793 0.00151809 0.00408596 )  
( -0.00019723 -0.000838853 0.00402626 )  
( 0.00133698 -0.000651617 0.00408401 )  
( -0.00066455 0.000610976 0.00733109 )  
( 0.00129106 -0.00105873 0.00596086 )  
( 0.00112053 -0.000347773 0.00548866 )  
( 0.000535273 -0.000289333 -0.000416007 )  
( -0.00156285 0.000918734 0.008911 )  
( -0.00432619 -0.000521211 0.0103442 )  
( 0.000105812 0.000156577 0.00495326 )  
( 0.000258653 0.00352164 -0.000111873 )  
( -0.000532568 -0.0013902 -3.33904e-05 )  
( -0.000992423 -0.00164783 0.00712426 )  
( -0.000159812 -0.000216916 0.0057391 )  
( -4.09658e-05 -0.000993276 -0.000139809 )  
( 0.000931834 -0.000377328 0.00492569 )  
( -0.000972007 0.00226421 0.00858529 )  
( -0.00199688 0.000486824 4.53663e-05 )  
( 0.000183429 -0.000229272 0.00571483 )  
( -0.000962182 -0.00205593 0.00329036 )  
( -0.000327114 0.000113921 0.00736458 )  
( 0.0014499 0.000284734 0.00696631 )  
( -0.000139407 -0.000234795 0.00461268 )  
( 0.00101334 -0.00052177 0.00506695 )  
( 0.000577431 0.00145496 0.00467496 )  
( 0.00100544 -0.000915778 0.00492419 )  
( -0.00700317 0.00052273 0.00527191 )  
( 0.000734027 -0.000181719 0.00556061 )  
( 0.000153861 -0.000939481 0.00472687 )  
( -0.000279209 0.000774694 0.000120039 )  
( 0.00183673 0.00197423 0.00590105 )  
( -0.000566393 -0.00099625 0.00528333 )  
( 0.000371693 -0.000639512 0.00486698 )  
( 0.00121465 0.000469674 0.00398886 )  
( 0.00159617 -0.000886302 0.00724228 )  
( 0.000258573 0.000158865 3.94247e-05 )  
( -0.00180052 -1.6309e-05 0.000461138 )  
( 0.000120708 -0.000270183 8.00552e-05 )  
( -0.00117536 -0.00143683 0.00461614 )  
( -0.000989378 -0.000331884 -6.49125e-05 )  
( -0.00289656 0.00190675 0.00306446 )  
( 0.000898814 -0.000518193 0.0054673 )  
( 0.000399269 -0.000237712 -0.000356772 )  
( 0.000787596 -0.00133906 0.00648638 )  
( -0.000104416 -0.000406015 0.0060889 )  
( -0.000127129 0.00044592 3.3165e-06 )  
( -0.00500035 -0.0026483 0.0127399 )  
( -0.00137412 -0.00309479 0.00419187 )  
( 0.000497045 0.000362726 -1.14321e-06 )  
( -0.000224188 -0.000262251 -0.000188411 )  
( -0.00111513 -0.000302442 -0.00047815 )  
( -0.000344193 -0.00291038 0.00478314 )  
( -4.91071e-05 -0.00143696 0.00586669 )  
( 0.00179284 -0.000370049 0.00601362 )  
( -0.000166386 -0.000125584 0.00581991 )  
( -0.000238369 -0.00083876 -2.02303e-05 )  
( 0.00126018 -0.000963582 0.004671 )  
( 0.00072862 -0.0015691 0.00493257 )  
( 0.000174404 0.000519352 6.48443e-06 )  
( 0.00193798 -0.000835288 0.00504483 )  
( 0.00146031 0.000313408 -2.24674e-07 )  
( 0.000175948 -0.000316011 -0.00137507 )  
( -0.00108246 -0.000466468 -1.28824e-05 )  
( -0.000556789 -0.000302578 -0.000296803 )  
( -0.00562066 0.000555424 0.00675932 )  
( 0.000414284 0.00115548 0.0057123 )  
( -4.29582e-05 5.66852e-05 0.00398054 )  
( -0.00014558 -0.00119697 0.00473383 )  
( -0.000284363 -0.000214474 0.000140638 )  
( 0.00178622 7.07452e-05 0.00449247 )  
( 0.000850038 -0.000119609 8.75705e-05 )  
( 0.00118245 0.000670093 0.00441271 )  
( 0.000153281 0.000137946 0.00596208 )  
( -0.000810642 -0.000452837 0.00727776 )  
( 0.00132332 1.32059e-05 0.00631923 )  
( 0.000966894 0.000973095 0.005848 )  
( 0.00095334 -0.000741286 0.00396553 )  
( -0.000639049 0.00195022 0.00503118 )  
( -0.00025737 -0.00297954 -0.00201398 )  
( -0.00111395 0.000193631 -0.00237574 )  
( 0.00192709 0.00339673 0.00524457 )  
( -0.00022701 -0.000131881 2.11585e-05 )  
( -0.000116084 -0.000206454 9.36658e-05 )  
( -3.55052e-05 5.13576e-05 4.84098e-06 )  
( 0.000730661 0.0010715 0.00367106 )  
( 0.000156807 0.000763707 0.00762344 )  