/*--------------------------------*- C++ -*----------------------------------*\
| =========                 |                                                 |
| \\      /  F ield         | OpenFOAM: The Open Source CFD Toolbox           |
|  \\    /   O peration     | Version:  2506                                  |
|   \\  /    A nd           | Website:  www.openfoam.com                      |
|    \\/     M anipulation  |                                                 |
\*---------------------------------------------------------------------------*/
FoamFile
{
    version     2.0;
    format      ascii;
    arch        "LSB;label=32;scalar=64";
    class       volScalarField;
    location    "0.001";
    object      p;
}
// * * * * * * * * * * * * * * * * * * * * * * * * * * * * * * * * * * * * * //

dimensions      [0 2 -2 0 0 0 0];

internalField   nonuniform List<scalar> 
512
(
-0.295799
-0.302046
-0.310788
-0.318465
-0.324551
-0.329304
-0.33306
-0.336071
-0.338508
-0.34048
-0.342069
-0.343339
-0.344339
-0.345106
-0.345668
-0.346038
-0.346216
-0.346186
-0.345921
-0.345406
-0.344639
-0.343619
-0.342326
-0.340726
-0.338762
-0.336355
-0.333377
-0.329637
-0.324862
-0.31872
-0.310964
-0.302135
-0.30442
-0.308006
-0.314248
-0.320407
-0.325657
-0.329954
-0.333453
-0.336316
-0.338663
-0.340579
-0.342134
-0.343384
-0.344372
-0.345133
-0.345691
-0.346058
-0.346234
-0.346203
-0.345944
-0.34544
-0.344686
-0.343681
-0.34241
-0.340842
-0.338932
-0.336611
-0.333778
-0.330289
-0.325967
-0.320658
-0.314421
-0.308092
-0.313037
-0.314903
-0.318853
-0.323281
-0.327422
-0.331045
-0.334138
-0.336751
-0.338942
-0.340761
-0.342256
-0.343471
-0.344438
-0.345185
-0.345735
-0.346098
-0.34627
-0.346239
-0.345988
-0.345501
-0.344769
-0.343792
-0.342561
-0.341055
-0.33924
-0.337068
-0.334476
-0.331384
-0.327729
-0.323524
-0.319018
-0.314985
-0.319641
-0.32065
-0.323119
-0.326204
-0.329357
-0.332312
-0.334968
-0.337295
-0.339301
-0.341001
-0.342422
-0.343591
-0.344528
-0.345257
-0.345795
-0.346152
-0.346321
-0.346292
-0.346049
-0.345578
-0.344872
-0.343931
-0.342752
-0.341326
-0.33963
-0.337636
-0.335316
-0.332651
-0.329655
-0.326436
-0.323274
-0.320727
-0.324303
-0.324902
-0.326517
-0.328711
-0.331124
-0.33353
-0.335798
-0.337859
-0.339683
-0.341263
-0.342606
-0.343724
-0.344628
-0.345335
-0.345861
-0.346212
-0.34638
-0.346353
-0.346117
-0.345662
-0.34498
-0.344075
-0.342952
-0.341609
-0.340035
-0.338217
-0.336154
-0.333864
-0.33141
-0.328927
-0.326658
-0.324971
-0.327428
-0.327827
-0.328971
-0.330619
-0.332537
-0.334545
-0.336514
-0.33836
-0.340033
-0.341508
-0.342779
-0.343847
-0.344718
-0.345404
-0.34592
-0.346268
-0.346438
-0.346416
-0.346186
-0.34574
-0.345077
-0.344205
-0.343133
-0.341865
-0.340399
-0.338731
-0.336875
-0.334873
-0.33281
-0.330821
-0.329101
-0.32789
-0.329349
-0.329648
-0.330544
-0.331886
-0.333507
-0.335262
-0.337034
-0.338733
-0.3403
-0.341698
-0.342913
-0.343941
-0.344786
-0.345457
-0.345966
-0.346313
-0.346487
-0.346469
-0.346242
-0.345801
-0.34515
-0.344302
-0.343269
-0.34206
-0.340672
-0.339111
-0.337399
-0.335588
-0.333772
-0.33208
-0.330669
-0.32971
-0.330264
-0.330521
-0.331309
-0.332513
-0.333996
-0.33563
-0.337304
-0.338931
-0.340444
-0.341803
-0.342987
-0.343993
-0.344823
-0.345487
-0.345994
-0.346341
-0.346517
-0.346501
-0.346274
-0.345833
-0.345189
-0.344355
-0.343344
-0.342164
-0.340819
-0.339312
-0.337673
-0.335956
-0.334258
-0.332705
-0.331434
-0.330583
-0.312808
-0.314938
-0.319138
-0.323697
-0.327895
-0.331559
-0.334693
-0.337349
-0.339573
-0.341396
-0.34287
-0.344045
-0.344971
-0.345684
-0.346218
-0.346593
-0.346804
-0.346822
-0.346583
-0.346069
-0.345305
-0.344311
-0.343078
-0.341577
-0.339768
-0.337609
-0.335039
-0.331961
-0.328285
-0.32401
-0.31935
-0.315043
-0.31608
-0.317614
-0.320988
-0.324895
-0.328657
-0.332045
-0.335006
-0.337551
-0.339703
-0.341477
-0.34292
-0.344079
-0.344997
-0.345707
-0.346241
-0.346613
-0.346818
-0.346832
-0.346604
-0.346111
-0.345363
-0.344383
-0.343167
-0.34169
-0.339922
-0.337831
-0.335365
-0.332453
-0.329046
-0.3252
-0.32119
-0.317712
-0.32029
-0.321285
-0.323729
-0.326789
-0.329924
-0.332884
-0.335562
-0.337916
-0.339938
-0.341628
-0.34302
-0.344156
-0.34506
-0.345761
-0.34629
-0.346658
-0.346854
-0.346861
-0.346647
-0.346181
-0.345462
-0.344508
-0.343327
-0.341902
-0.340213
-0.338237
-0.335945
-0.333301
-0.330307
-0.327081
-0.323918
-0.321375
-0.324143
-0.324793
-0.326527
-0.328854
-0.331386
-0.333901
-0.336259
-0.338385
-0.34025
-0.341838
-0.343173
-0.344277
-0.345159
-0.345843
-0.346362
-0.346725
-0.346914
-0.346915
-0.346707
-0.346263
-0.345575
-0.344658
-0.343522
-0.342169
-0.340585
-0.33875
-0.336659
-0.33431
-0.331751
-0.329124
-0.326699
-0.324874
-0.327222
-0.327676
-0.328949
-0.33074
-0.332787
-0.334914
-0.336979
-0.338888
-0.340596
-0.342082
-0.343355
-0.344419
-0.345269
-0.345929
-0.346437
-0.346796
-0.346985
-0.346987
-0.346781
-0.346352
-0.345689
-0.344803
-0.343718
-0.342447
-0.340976
-0.339287
-0.337388
-0.335307
-0.333122
-0.330977
-0.329091
-0.32774
-0.329472
-0.329815
-0.330806
-0.332248
-0.333953
-0.335786
-0.337621
-0.339356
-0.340934
-0.342326
-0.34353
-0.344543
-0.34536
-0.345999
-0.346498
-0.346857
-0.347054
-0.347066
-0.346864
-0.34644
-0.345789
-0.344931
-0.343897
-0.342701
-0.341331
-0.339772
-0.338036
-0.336165
-0.334257
-0.332452
-0.330925
-0.329868
-0.330944
-0.33122
-0.332046
-0.333278
-0.334774
-0.336417
-0.338096
-0.339714
-0.341205
-0.342527
-0.343671
-0.344636
-0.345424
-0.346051
-0.346546
-0.346912
-0.347122
-0.347143
-0.34694
-0.346507
-0.345858
-0.345025
-0.344033
-0.342899
-0.341607
-0.340143
-0.338523
-0.336792
-0.335061
-0.333469
-0.332161
-0.331275
-0.331672
-0.331916
-0.332665
-0.333798
-0.335193
-0.336743
-0.338342
-0.339902
-0.341353
-0.342643
-0.343754
-0.344691
-0.345461
-0.346086
-0.346583
-0.346953
-0.34717
-0.347194
-0.346984
-0.346541
-0.345895
-0.345079
-0.34411
-0.343007
-0.341756
-0.34034
-0.338778
-0.337117
-0.335475
-0.333986
-0.332784
-0.331976
)
;

boundaryField
{
    wall
    {
        type            zeroGradient;
    }
    outlet
    {
        type            cyclic;
    }
    inlet
    {
        type            cyclic;
    }
    procBoundary1to0
    {
        type            processor;
        value           nonuniform List<scalar> 
256
(
-0.257553
-0.280685
-0.300033
-0.312879
-0.32143
-0.327397
-0.331777
-0.335124
-0.337753
-0.339848
-0.341523
-0.342859
-0.343907
-0.344708
-0.345287
-0.345656
-0.345819
-0.345766
-0.345484
-0.34496
-0.344182
-0.343137
-0.341798
-0.34012
-0.338031
-0.335414
-0.332076
-0.327693
-0.3217
-0.3131
-0.300187
-0.280764
-0.285505
-0.294791
-0.306441
-0.315894
-0.32295
-0.328218
-0.332246
-0.335405
-0.337927
-0.339958
-0.341596
-0.342908
-0.343943
-0.344735
-0.345309
-0.345676
-0.345837
-0.345786
-0.345508
-0.344991
-0.344224
-0.343195
-0.34188
-0.340241
-0.338214
-0.335702
-0.332551
-0.328515
-0.323219
-0.316113
-0.306593
-0.294869
-0.303984
-0.307579
-0.313836
-0.320008
-0.325265
-0.329561
-0.333051
-0.335901
-0.33824
-0.34016
-0.34173
-0.343
-0.344009
-0.344786
-0.34535
-0.345712
-0.345872
-0.345822
-0.345552
-0.345048
-0.344301
-0.343301
-0.342031
-0.34046
-0.338543
-0.33621
-0.333362
-0.329861
-0.325533
-0.320222
-0.313984
-0.307654
-0.314986
-0.316544
-0.319958
-0.323904
-0.327691
-0.331073
-0.334004
-0.336509
-0.338634
-0.340419
-0.341905
-0.343122
-0.344098
-0.344854
-0.345406
-0.345762
-0.345919
-0.345872
-0.34561
-0.345122
-0.3444
-0.343437
-0.342223
-0.340738
-0.338955
-0.336833
-0.334323
-0.331374
-0.327955
-0.324112
-0.320101
-0.316616
-0.321651
-0.32244
-0.324449
-0.32706
-0.329822
-0.332487
-0.334938
-0.337127
-0.339045
-0.340696
-0.342094
-0.343255
-0.344195
-0.344928
-0.345467
-0.345816
-0.345972
-0.345928
-0.345674
-0.345201
-0.344504
-0.34358
-0.342425
-0.341029
-0.339381
-0.337462
-0.335263
-0.332788
-0.33008
-0.327261
-0.324585
-0.322508
-0.325728
-0.326198
-0.327512
-0.329365
-0.331474
-0.333638
-0.335728
-0.337666
-0.339413
-0.340948
-0.342269
-0.343378
-0.344284
-0.344996
-0.345523
-0.345867
-0.346023
-0.345982
-0.345735
-0.345275
-0.3446
-0.34371
-0.342607
-0.341291
-0.339759
-0.33801
-0.336057
-0.333937
-0.331727
-0.329559
-0.327642
-0.326263
-0.328099
-0.328429
-0.329404
-0.330852
-0.332585
-0.334439
-0.336293
-0.338061
-0.339687
-0.341139
-0.342402
-0.343472
-0.344352
-0.345048
-0.345566
-0.345907
-0.346063
-0.346025
-0.345783
-0.345332
-0.344672
-0.343808
-0.342745
-0.341487
-0.340039
-0.33841
-0.336625
-0.334737
-0.332833
-0.331042
-0.32953
-0.328492
-0.329196
-0.32947
-0.330306
-0.331578
-0.333139
-0.334847
-0.336586
-0.338269
-0.339834
-0.341242
-0.342474
-0.343522
-0.344388
-0.345076
-0.34559
-0.345929
-0.346086
-0.34605
-0.34581
-0.345363
-0.344711
-0.343861
-0.342819
-0.341592
-0.340188
-0.33862
-0.33692
-0.335145
-0.333386
-0.331766
-0.33043
-0.329532
)
;
    }
    procBoundary1to2
    {
        type            processor;
        value           nonuniform List<scalar> 
256
(
-0.322196
-0.323083
-0.325277
-0.328088
-0.331012
-0.333856
-0.33649
-0.338855
-0.340908
-0.34258
-0.34392
-0.344967
-0.345788
-0.346419
-0.346906
-0.34729
-0.347571
-0.347703
-0.347502
-0.346942
-0.34614
-0.345168
-0.34401
-0.342624
-0.340968
-0.339053
-0.336884
-0.334387
-0.331547
-0.328493
-0.325538
-0.323208
-0.32364
-0.324384
-0.326302
-0.328829
-0.331527
-0.334208
-0.336732
-0.339018
-0.341018
-0.342634
-0.343937
-0.344976
-0.345793
-0.346424
-0.346927
-0.347312
-0.347571
-0.347682
-0.347507
-0.347006
-0.346234
-0.345268
-0.344114
-0.342732
-0.3411
-0.339239
-0.337145
-0.334758
-0.332062
-0.329216
-0.326536
-0.324488
-0.325817
-0.326381
-0.327927
-0.33005
-0.332404
-0.33483
-0.337169
-0.339306
-0.341191
-0.342734
-0.34399
-0.345026
-0.345852
-0.346481
-0.346981
-0.347371
-0.347603
-0.347679
-0.347538
-0.347104
-0.346375
-0.345429
-0.344299
-0.342956
-0.341394
-0.339614
-0.337633
-0.335404
-0.332933
-0.330412
-0.328143
-0.326473
-0.328038
-0.328475
-0.329721
-0.331475
-0.333495
-0.33565
-0.337758
-0.339701
-0.341441
-0.342897
-0.344127
-0.345164
-0.345975
-0.34659
-0.347084
-0.34747
-0.347682
-0.347733
-0.347585
-0.347183
-0.34651
-0.345605
-0.344507
-0.343235
-0.341775
-0.340095
-0.338243
-0.336192
-0.333985
-0.331801
-0.329914
-0.32856
-0.329998
-0.330378
-0.331426
-0.332891
-0.334607
-0.3365
-0.338395
-0.340153
-0.34174
-0.343116
-0.344317
-0.345343
-0.346121
-0.346691
-0.347175
-0.34756
-0.347777
-0.347824
-0.347658
-0.34728
-0.346633
-0.345749
-0.344688
-0.343507
-0.342173
-0.340616
-0.338885
-0.336993
-0.33503
-0.333147
-0.331544
-0.330415
-0.331558
-0.331886
-0.332805
-0.334089
-0.335588
-0.337269
-0.338995
-0.34062
-0.342088
-0.343376
-0.344508
-0.345468
-0.346207
-0.346754
-0.347226
-0.347611
-0.34786
-0.34793
-0.347771
-0.34739
-0.346736
-0.345869
-0.344867
-0.343766
-0.342528
-0.341106
-0.339492
-0.337725
-0.33593
-0.334263
-0.332875
-0.331907
-0.332675
-0.33295
-0.333765
-0.334916
-0.336295
-0.337839
-0.339446
-0.340993
-0.342402
-0.343618
-0.344666
-0.345548
-0.346247
-0.346795
-0.347269
-0.347682
-0.347965
-0.348067
-0.347899
-0.347461
-0.346785
-0.345948
-0.345
-0.343984
-0.34284
-0.341507
-0.33999
-0.338296
-0.3366
-0.335076
-0.333845
-0.332993
-0.333259
-0.333506
-0.334255
-0.335342
-0.336655
-0.338135
-0.339663
-0.341172
-0.342573
-0.343776
-0.344778
-0.345608
-0.346284
-0.346849
-0.347336
-0.347757
-0.348065
-0.348173
-0.34797
-0.347485
-0.346809
-0.346009
-0.345089
-0.344107
-0.343009
-0.341708
-0.340236
-0.338586
-0.336951
-0.335501
-0.334362
-0.333568
)
;
    }
}


// ************************************************************************* //
