/*--------------------------------*- C++ -*----------------------------------*\
| =========                 |                                                 |
| \\      /  F ield         | OpenFOAM: The Open Source CFD Toolbox           |
|  \\    /   O peration     | Version:  2506                                  |
|   \\  /    A nd           | Website:  www.openfoam.com                      |
|    \\/     M anipulation  |                                                 |
\*---------------------------------------------------------------------------*/
FoamFile
{
    version     2.0;
    format      ascii;
    arch        "LSB;label=32;scalar=64";
    class       surfaceScalarField;
    location    "0.06";
    object      phi;
}
// * * * * * * * * * * * * * * * * * * * * * * * * * * * * * * * * * * * * * //

dimensions      [0 3 -1 0 0 0 0];

oriented        oriented;

internalField   nonuniform List<scalar> 
3120
(
1.28886e-09
2.99251e-10
2.84667e-08
4.07659e-09
4.30152e-09
3.59959e-10
2.59616e-09
3.74411e-08
-1.18845e-09
-7.85543e-09
-5.67273e-09
5.43959e-08
-2.38368e-09
1.79486e-09
8.00894e-09
7.01253e-10
3.70344e-09
-7.13344e-10
3.07839e-08
5.11222e-09
-8.39654e-09
-1.4497e-10
5.28301e-08
-1.08406e-09
6.56264e-09
1.86664e-08
3.81414e-09
2.86293e-08
3.65453e-09
2.31867e-09
3.2092e-08
-2.39034e-10
-2.72956e-09
7.11776e-10
4.35597e-08
-5.08773e-09
1.48329e-09
4.57489e-08
3.14575e-09
2.78391e-08
5.95336e-09
3.3354e-08
9.10445e-10
-5.31375e-09
6.22762e-08
-3.2252e-09
3.95282e-08
2.6784e-08
-9.25554e-10
-2.56464e-09
2.63219e-08
9.30538e-10
4.7045e-09
-2.61443e-09
-3.58547e-09
3.81289e-08
4.58657e-09
1.92046e-09
6.8899e-09
3.82543e-08
4.71683e-09
2.16375e-09
5.81587e-09
3.98699e-09
-8.29555e-10
-1.12313e-09
2.58382e-08
4.33373e-09
7.20917e-09
9.01334e-10
4.03045e-08
-8.72642e-10
-4.95461e-09
3.85927e-08
8.56461e-10
3.65107e-08
2.64597e-10
6.5686e-10
2.93395e-08
7.07844e-10
-4.30782e-09
-4.82465e-09
5.3858e-08
5.33494e-09
-1.4269e-09
3.25784e-08
-2.0094e-09
3.98481e-08
-4.53483e-09
3.3909e-08
1.11155e-09
-3.41359e-10
4.94742e-08
-4.1083e-10
2.69829e-08
2.04083e-08
-2.12812e-09
2.07823e-09
2.734e-08
3.63596e-10
-1.3319e-09
-3.48892e-09
-3.38674e-09
4.61155e-08
-3.23912e-09
3.25177e-09
9.48378e-09
1.57626e-08
6.26727e-09
6.74426e-10
4.41274e-08
-1.48057e-08
-4.22062e-09
-6.12581e-09
4.45541e-08
-6.29126e-09
9.04417e-09
-7.06684e-10
2.43597e-08
6.44896e-09
-3.82645e-09
5.44981e-08
5.86452e-10
4.62869e-08
-6.34905e-09
-3.65966e-10
2.54724e-08
4.45634e-09
2.13709e-09
1.52308e-08
2.94344e-08
8.46236e-09
1.65101e-10
2.22615e-08
-3.79112e-09
5.74474e-08
5.6404e-09
2.05731e-08
4.23008e-09
-7.54868e-09
8.44429e-08
1.3456e-09
2.3893e-08
5.44734e-08
-1.50107e-09
4.3278e-09
2.71222e-08
4.0263e-10
-3.01154e-09
-4.70752e-10
5.74075e-09
4.33467e-08
-4.00227e-09
-1.5488e-09
-7.82561e-10
1.88589e-08
-1.23565e-09
-4.0659e-10
4.65166e-08
1.10365e-09
1.55889e-09
1.34837e-09
5.18527e-08
-5.87801e-09
-5.84467e-09
-2.15898e-09
3.9663e-08
8.71544e-10
1.40442e-09
4.55949e-08
5.96321e-09
3.47113e-08
-1.60346e-09
-6.71946e-10
2.80895e-08
1.00671e-09
-1.38899e-09
-8.02505e-09
3.5086e-08
4.54637e-10
-2.7662e-09
2.45885e-08
-1.77722e-09
6.73445e-08
-1.14363e-08
3.92106e-08
-1.07376e-09
-1.55836e-09
5.85469e-08
-1.53579e-09
2.32049e-08
5.84438e-08
4.83793e-11
-2.20575e-10
2.33942e-08
3.58741e-09
3.12804e-10
1.91781e-09
-4.79262e-11
3.92269e-08
2.29828e-09
-3.94232e-09
-6.8088e-09
3.35634e-08
-2.03563e-09
9.20965e-10
3.23269e-08
6.44895e-09
9.91766e-10
4.68287e-09
4.28017e-08
3.1557e-09
-4.22991e-09
1.76318e-09
4.30736e-08
1.3366e-09
-2.39961e-09
3.56192e-08
-8.01629e-09
4.20911e-08
-3.29099e-09
-5.2587e-10
3.71034e-08
-5.14261e-10
-6.96425e-09
-7.99501e-09
4.85174e-08
-3.57981e-09
-1.02515e-09
1.98296e-08
-1.39617e-08
6.88878e-08
-1.09399e-08
4.6606e-08
3.36239e-09
6.71993e-10
3.64345e-08
-3.2941e-09
2.73026e-08
1.91601e-08
-3.79556e-09
-2.27595e-10
2.4662e-08
1.78428e-09
9.71022e-10
-3.35898e-09
-1.63485e-09
4.13669e-08
-9.41721e-10
-2.15871e-09
-3.97801e-09
3.55341e-08
8.07108e-10
-6.2115e-09
2.98832e-08
3.23832e-09
-5.76333e-09
-1.19406e-09
4.63951e-08
3.13643e-09
-3.61414e-09
-1.59996e-09
4.08896e-08
-2.97637e-09
1.36602e-09
2.96374e-08
3.47601e-09
2.19283e-08
-5.9818e-09
-8.28451e-10
4.12846e-08
1.43503e-09
-1.04405e-09
-4.00147e-09
4.59811e-08
-2.63743e-09
-3.04413e-09
2.58331e-08
-4.69979e-10
6.95165e-08
-8.70859e-09
5.71449e-08
3.4392e-09
-3.13309e-09
2.64417e-08
5.80507e-10
1.95648e-08
2.78702e-08
-1.38683e-09
-2.2592e-09
3.39975e-08
-1.489e-09
-4.2005e-09
7.36248e-10
2.57266e-10
4.47991e-08
-5.81259e-09
1.98072e-10
-1.33588e-10
3.60405e-08
1.65329e-10
-5.37015e-10
3.11985e-08
-7.3798e-12
-5.49742e-10
-8.78664e-10
4.48167e-08
7.47488e-10
8.28157e-10
-1.10836e-09
4.08775e-08
5.6553e-10
-7.52688e-11
2.98416e-08
-3.93059e-09
2.84454e-08
-8.32151e-10
-1.50896e-09
4.2057e-08
6.90348e-10
1.74784e-09
4.55899e-10
4.18367e-08
-1.55063e-09
1.03775e-10
2.89525e-08
2.32259e-09
5.85554e-08
2.10438e-09
4.99988e-08
1.31213e-09
6.52598e-10
2.82028e-08
7.53447e-10
2.0126e-08
3.10363e-08
3.61683e-09
-4.28434e-09
3.76753e-08
-5.90499e-09
2.89439e-09
3.08039e-09
-1.30189e-09
4.50497e-08
1.58689e-09
1.03842e-09
1.82109e-10
3.78459e-08
5.42497e-11
1.65176e-10
3.51231e-08
-1.84945e-09
6.26826e-09
-1.70405e-09
4.19361e-08
-5.96849e-09
4.8545e-09
-8.08105e-10
4.17982e-08
2.04922e-09
1.70555e-10
3.26584e-08
-6.56825e-10
3.14903e-08
5.13591e-09
-4.61298e-10
4.1441e-08
-5.76231e-09
4.34837e-09
8.37838e-10
4.0978e-08
1.25815e-09
2.05231e-10
3.20077e-08
2.38512e-09
5.51108e-08
7.32826e-09
4.3847e-08
-4.3444e-09
5.44514e-09
2.9985e-08
3.89919e-09
2.2041e-08
3.72502e-08
5.47156e-10
4.07284e-10
3.91391e-08
-8.75122e-10
-1.54336e-09
2.56597e-09
2.19785e-09
4.10579e-08
-2.24926e-10
7.4614e-10
3.15349e-09
3.82121e-08
-1.69988e-09
8.06893e-10
3.78227e-08
-2.69364e-09
1.66136e-09
2.21672e-10
4.02071e-08
2.53435e-10
3.77645e-09
2.12204e-09
3.97593e-08
6.27713e-10
2.72157e-09
3.62392e-08
-2.61765e-09
3.67678e-08
1.63239e-09
5.88268e-10
3.96915e-08
-2.49579e-10
1.40176e-09
4.36859e-09
3.89617e-08
-3.55994e-09
3.66109e-09
3.60296e-08
3.64524e-09
4.4037e-08
5.37968e-09
3.94326e-08
-1.48141e-09
3.73269e-09
3.49062e-08
-2.58198e-09
3.2191e-08
3.80823e-08
3.82755e-10
-7.27314e-10
3.88313e-08
-4.87605e-10
1.1399e-09
1.07026e-09
5.28884e-10
3.93172e-08
5.24178e-10
2.83437e-10
1.09701e-09
3.83264e-08
-4.24447e-10
4.08339e-10
3.84741e-08
-1.09159e-09
1.14582e-09
-7.64267e-11
3.89522e-08
-5.42047e-10
1.69367e-09
9.40606e-10
3.87995e-08
2.79722e-10
1.1573e-09
3.75926e-08
-5.54542e-10
3.80366e-08
1.40418e-09
6.27507e-10
3.87608e-08
-1.1776e-09
8.96179e-10
1.9554e-09
3.84544e-08
-1.19805e-09
1.76029e-09
3.75203e-08
1.75429e-09
4.0045e-08
2.59142e-09
3.8249e-08
-1.44517e-09
1.56956e-09
3.69563e-08
-1.09458e-09
3.60571e-08
3.82168e-08
6.39996e-10
3.08768e-10
3.86605e-08
-7.46969e-10
-3.11125e-11
7.53569e-10
6.13764e-10
3.88e-08
-2.10357e-10
3.11126e-10
7.149e-10
3.84511e-08
-3.97309e-10
4.83065e-10
3.85569e-08
-6.37362e-10
6.74946e-10
3.5709e-10
3.86568e-08
-4.28127e-10
8.03624e-10
6.81332e-10
3.86028e-08
2.38316e-10
7.02417e-10
3.81701e-08
1.42743e-10
3.83879e-08
7.85086e-10
5.3622e-10
3.8569e-08
-7.72714e-10
5.49075e-10
9.44975e-10
3.84261e-08
-2.17797e-10
8.88718e-10
3.81003e-08
8.30833e-10
3.88915e-08
1.0359e-09
3.82393e-08
-7.17252e-10
6.45868e-10
3.78446e-08
-3.46538e-10
3.75363e-08
3.83069e-08
2.93363e-10
1.09303e-10
3.84785e-08
-3.1833e-10
9.76076e-11
3.53804e-10
3.06255e-10
3.85637e-08
-1.30791e-10
2.00762e-10
3.60451e-10
3.8455e-08
-2.11488e-10
3.15182e-10
3.8514e-08
-3.61482e-10
3.33965e-10
1.85196e-10
3.84995e-08
-2.52941e-10
3.78743e-10
3.54704e-10
3.85092e-08
1.70719e-10
3.70406e-10
3.83678e-08
1.99216e-10
3.84576e-08
4.58959e-10
3.0479e-10
3.84904e-08
-5.00294e-10
3.43891e-10
4.56925e-10
3.84384e-08
3.45552e-11
4.54126e-10
3.83256e-08
4.00459e-10
3.85655e-08
5.11388e-10
3.83282e-08
-4.35522e-10
3.50353e-10
3.8212e-08
-2.7408e-11
3.8107e-08
3.83698e-08
2.25324e-10
1.22725e-10
3.8395e-08
-2.49575e-10
-1.50876e-11
2.36792e-10
1.96796e-10
3.84755e-08
-1.20435e-10
1.62999e-10
2.06459e-10
3.84587e-08
-1.36533e-10
1.99846e-10
3.84866e-08
-2.08446e-10
2.21288e-10
1.40255e-10
3.84487e-08
-1.88311e-10
2.33556e-10
2.07781e-10
3.84856e-08
1.45305e-10
2.11463e-10
3.84509e-08
1.6126e-10
3.8481e-08
2.91026e-10
1.84033e-10
3.84713e-08
-3.15984e-10
2.32496e-10
2.35459e-10
3.84689e-08
1.02407e-10
2.34355e-10
3.84328e-08
2.09433e-10
3.85006e-08
2.88827e-10
3.84037e-08
-2.64527e-10
2.21015e-10
3.83813e-08
6.86502e-11
3.83469e-08
3.84275e-08
1.41602e-10
7.6064e-11
3.83461e-08
-1.49652e-10
-1.92228e-11
1.48936e-10
1.1175e-10
3.84341e-08
-7.78394e-11
1.19024e-10
1.15629e-10
3.84552e-08
-8.23453e-11
1.19026e-10
3.84727e-08
-1.18104e-10
1.41961e-10
8.23595e-11
3.84243e-08
-1.24098e-10
1.47154e-10
1.14456e-10
3.84776e-08
1.12579e-10
1.18356e-10
3.84827e-08
1.05949e-10
3.8494e-08
1.78641e-10
1.01043e-10
3.84645e-08
-1.90607e-10
1.53688e-10
1.19904e-10
3.84882e-08
9.97317e-11
1.20887e-10
3.84842e-08
1.11934e-10
3.85016e-08
1.74248e-10
3.84439e-08
-1.62456e-10
1.46881e-10
3.84582e-08
8.4104e-11
3.84523e-08
3.84738e-08
9.28573e-11
4.59306e-11
3.8319e-08
-9.40791e-11
-1.77055e-11
9.73541e-11
6.26066e-11
3.84135e-08
-4.66393e-11
8.52371e-11
6.5317e-11
3.84513e-08
-4.93581e-11
6.95516e-11
3.84672e-08
-6.74052e-11
9.44064e-11
4.70078e-11
3.84112e-08
-8.24278e-11
9.75282e-11
6.30167e-11
3.8474e-08
8.36036e-11
6.65147e-11
3.84954e-08
6.45166e-11
3.85032e-08
1.13962e-10
5.46878e-11
3.846e-08
-1.1718e-10
1.03479e-10
6.25424e-11
3.84991e-08
8.08068e-11
6.40199e-11
3.85094e-08
6.12583e-11
3.85149e-08
1.11374e-10
3.84627e-08
-1.03429e-10
1.00864e-10
3.8494e-08
7.48476e-11
3.85006e-08
3.85065e-08
6.16666e-11
2.61661e-11
3.83025e-08
-5.94369e-11
-1.18517e-11
6.51337e-11
3.47399e-11
3.84018e-08
-2.6601e-11
6.04311e-11
3.71637e-11
3.84479e-08
-2.91633e-11
4.03842e-11
3.84651e-08
-3.85134e-11
6.38228e-11
2.64285e-11
3.84026e-08
-5.54825e-11
6.63891e-11
3.47501e-11
3.84714e-08
6.07011e-11
3.76124e-11
3.85006e-08
3.82504e-11
3.85094e-08
7.43758e-11
2.95834e-11
3.84561e-08
-7.3627e-11
7.06082e-11
3.3501e-11
3.85041e-08
6.08248e-11
3.49055e-11
3.85219e-08
3.45491e-11
3.85263e-08
7.34065e-11
3.847e-08
-6.74626e-11
7.00356e-11
3.85104e-08
5.90353e-11
3.85237e-08
3.85267e-08
4.17137e-11
1.45897e-11
3.82919e-08
-3.86316e-11
-7.11188e-12
4.44371e-11
1.92653e-11
3.83946e-08
-1.48481e-11
4.28491e-11
2.12935e-11
3.84453e-08
-1.71384e-11
2.35672e-11
3.84644e-08
-2.21619e-11
4.37974e-11
1.48576e-11
3.83966e-08
-3.78938e-11
4.5924e-11
1.9536e-11
3.8469e-08
4.36995e-11
2.15739e-11
3.85025e-08
2.26293e-11
3.85132e-08
4.93826e-11
1.64982e-11
3.84524e-08
-4.721e-11
4.86786e-11
1.8582e-11
3.85058e-08
4.45123e-11
1.97132e-11
3.8528e-08
2.01199e-11
3.85337e-08
4.94071e-11
3.8472e-08
-4.47933e-11
4.89793e-11
3.85175e-08
4.43179e-11
3.85348e-08
3.85385e-08
2.85632e-11
8.01298e-12
3.82849e-08
-2.57705e-11
-3.84129e-12
3.07046e-11
1.0682e-11
3.83898e-08
-8.14523e-12
3.03967e-11
1.22926e-11
3.84433e-08
-1.00118e-11
1.38887e-11
3.8464e-08
-1.28803e-11
3.02549e-11
8.52204e-12
3.8392e-08
-2.60744e-11
3.20461e-11
1.107e-11
3.84669e-08
3.13027e-11
1.25559e-11
3.8503e-08
1.35264e-11
3.85154e-08
3.32666e-11
9.35276e-12
3.84492e-08
-3.07694e-11
3.37786e-11
1.06202e-11
3.85059e-08
3.21337e-11
1.15037e-11
3.85309e-08
1.20951e-11
3.85381e-08
3.36693e-11
3.84716e-08
-3.0145e-11
3.43297e-11
3.85202e-08
3.24837e-11
3.85402e-08
3.85451e-08
1.96673e-11
4.36124e-12
3.82802e-08
-1.74822e-11
-1.85558e-12
2.1311e-11
5.96471e-12
3.83866e-08
-4.40666e-12
2.15142e-11
7.1727e-12
3.84418e-08
-5.85747e-12
8.2938e-12
3.84637e-08
-7.57901e-12
2.09384e-11
4.93286e-12
3.83886e-08
-1.79563e-11
2.23975e-11
6.43433e-12
3.84651e-08
2.22916e-11
7.44635e-12
3.85029e-08
8.20941e-12
3.85165e-08
2.26305e-11
5.48874e-12
3.84465e-08
-2.04015e-11
2.3513e-11
6.27852e-12
3.85053e-08
2.29792e-11
6.91827e-12
3.85321e-08
7.46639e-12
3.85406e-08
2.30975e-11
3.84704e-08
-2.04448e-11
2.40421e-11
3.8521e-08
2.34408e-11
3.85427e-08
3.85488e-08
1.3519e-11
2.36801e-12
3.82771e-08
-1.19067e-11
-7.8373e-13
1.47461e-11
3.35811e-12
3.83844e-08
-2.35842e-12
1.5098e-11
4.23519e-12
3.84407e-08
-3.42577e-12
5.02486e-12
3.84635e-08
-4.52982e-12
1.44186e-11
2.90041e-12
3.83861e-08
-1.22788e-11
1.55668e-11
3.80667e-12
3.84637e-08
1.57087e-11
4.49745e-12
3.85026e-08
5.06374e-12
3.85171e-08
1.54141e-11
3.29504e-12
3.84445e-08
-1.36085e-11
1.62976e-11
3.82241e-12
3.85045e-08
1.62325e-11
4.27606e-12
3.85325e-08
4.70666e-12
3.85419e-08
1.58248e-11
3.84691e-08
-1.38928e-11
1.67158e-11
3.85209e-08
1.66343e-11
3.85438e-08
3.85508e-08
9.14213e-12
1.30674e-12
3.82749e-08
-8.01654e-12
-2.47198e-13
1.00283e-11
1.91011e-12
3.83829e-08
-1.24569e-12
1.03864e-11
2.52248e-12
3.84399e-08
-2.01801e-12
3.08083e-12
3.84633e-08
-2.73332e-12
9.76102e-12
1.72711e-12
3.83843e-08
-8.25276e-12
1.06279e-11
2.29475e-12
3.84626e-08
1.08382e-11
2.7575e-12
3.85022e-08
3.1644e-12
3.85174e-08
1.03731e-11
2.041e-12
3.84429e-08
-9.01131e-12
1.11083e-11
2.3912e-12
3.85037e-08
1.12138e-11
2.70014e-12
3.85325e-08
3.00623e-12
3.85426e-08
1.06886e-11
3.84679e-08
-9.31764e-12
1.14069e-11
3.85205e-08
1.15143e-11
3.85441e-08
3.85518e-08
5.95962e-12
7.28766e-13
3.82735e-08
-5.20037e-12
-4.90035e-14
6.56785e-12
1.09446e-12
3.83819e-08
-6.66282e-13
6.85504e-12
1.50313e-12
3.84393e-08
-1.18243e-12
1.87787e-12
3.84631e-08
-1.63936e-12
6.36414e-12
1.03367e-12
3.83831e-08
-5.34926e-12
6.98146e-12
1.38945e-12
3.84618e-08
7.1752e-12
1.68992e-12
3.85018e-08
1.96647e-12
3.85174e-08
6.74603e-12
1.27883e-12
3.84419e-08
-5.79328e-12
7.28956e-12
1.5067e-12
3.85031e-08
7.43399e-12
1.70354e-12
3.85323e-08
1.90823e-12
3.85428e-08
6.96332e-12
3.84669e-08
-6.03583e-12
7.48831e-12
3.85201e-08
7.63756e-12
3.85442e-08
3.85523e-08
3.65392e-12
3.64871e-13
3.82726e-08
-3.15802e-12
1.80984e-14
4.03851e-12
5.77064e-13
3.83813e-08
-3.2361e-13
4.23809e-12
8.19625e-13
3.84389e-08
-6.29764e-13
1.05177e-12
3.8463e-08
-8.96231e-13
3.88874e-12
5.63977e-13
3.83823e-08
-3.25791e-12
4.29533e-12
7.70037e-13
3.84612e-08
4.44379e-12
9.50978e-13
3.85015e-08
1.12271e-12
3.85174e-08
4.11116e-12
7.31022e-13
3.84411e-08
-3.50186e-12
4.47965e-12
8.63159e-13
3.85027e-08
4.6074e-12
9.78425e-13
3.85321e-08
1.1047e-12
3.85429e-08
4.24325e-12
3.84663e-08
-3.64935e-12
4.5979e-12
3.85197e-08
4.72919e-12
3.85441e-08
3.85525e-08
1.9973e-12
3.65331e-14
-1.67289e-12
1.25023e-13
2.23045e-12
1.43674e-13
-2.2182e-14
2.35712e-12
2.78867e-13
-1.87177e-13
3.99369e-13
-3.31129e-13
2.12787e-12
1.50539e-13
-1.76842e-12
2.35939e-12
2.45717e-13
2.46801e-12
3.39008e-13
4.28878e-13
2.23475e-12
2.4555e-13
-1.8919e-12
2.45631e-12
3.04875e-13
2.55468e-12
3.55695e-13
4.15526e-13
2.2967e-12
-1.96056e-12
2.51493e-12
2.61314e-12
-1.12817e-08
-7.7517e-09
5.92378e-08
-2.90557e-09
-8.81159e-09
-3.00131e-09
3.5755e-08
-2.51856e-09
-7.2021e-09
-1.24928e-09
2.95835e-08
-2.03336e-09
2.4353e-09
1.77256e-08
-1.85478e-10
1.09235e-08
2.25695e-09
2.64468e-08
-1.9057e-09
-1.39568e-09
5.3007e-08
3.34542e-10
-2.18048e-09
3.52622e-08
-4.30187e-09
4.38392e-08
1.42045e-09
-3.617e-09
5.73283e-08
-5.10604e-09
-3.29385e-09
5.61658e-08
-1.22582e-09
1.84173e-09
3.4112e-08
4.04637e-09
2.71296e-08
3.92357e-09
4.22377e-08
4.38817e-09
3.82826e-08
1.58226e-09
5.3017e-08
4.74327e-08
-9.84828e-09
3.11705e-09
6.86602e-08
-3.22471e-09
-7.10096e-09
6.56361e-10
3.2886e-08
-5.34618e-10
1.22945e-09
3.34884e-10
1.76027e-08
3.31543e-09
3.57385e-10
1.80216e-08
1.50662e-09
-1.03932e-08
-2.83258e-09
4.23897e-08
-5.90564e-09
-3.21625e-09
5.23921e-08
7.27389e-10
-3.42436e-10
2.93066e-08
-2.7724e-09
5.20301e-08
-8.48241e-09
-9.4863e-10
6.30672e-08
1.01033e-09
1.974e-09
4.14827e-08
-1.88595e-09
-2.96373e-09
3.96296e-08
3.77107e-11
2.31414e-08
-4.74512e-09
4.50485e-08
-8.25373e-09
3.56967e-08
2.71805e-09
3.29313e-08
4.92907e-08
2.20001e-09
3.6929e-09
5.98515e-08
2.67552e-09
4.07806e-09
3.32119e-09
2.60802e-08
1.60652e-09
-8.08824e-10
3.17567e-10
2.11736e-08
9.98391e-10
1.59883e-09
1.6425e-08
-4.47332e-10
3.02184e-09
3.03382e-09
3.86155e-08
-2.08275e-09
2.97418e-09
5.78436e-08
8.96579e-10
2.18581e-09
2.4459e-08
-1.49037e-09
4.97246e-08
3.54376e-09
3.79931e-09
5.82043e-08
-3.74139e-09
-3.90577e-09
5.56478e-08
-4.528e-09
-3.67784e-09
4.62799e-08
-1.39328e-09
2.29727e-08
-7.86843e-09
5.9662e-08
-6.17719e-10
1.68215e-08
3.18459e-10
2.45533e-08
4.8907e-08
-3.22848e-09
3.6735e-10
6.08308e-08
1.89198e-09
2.48142e-09
2.03157e-09
1.79996e-08
3.39096e-10
-7.60524e-09
5.73512e-10
3.26954e-08
-2.00867e-09
3.2841e-09
4.21973e-09
1.71852e-09
1.05321e-08
6.48507e-09
2.22747e-08
1.7471e-09
4.51542e-09
6.41448e-08
-1.55064e-09
3.73092e-09
2.45993e-08
5.44182e-09
4.01382e-08
-5.32749e-09
9.74547e-10
6.93462e-08
4.8062e-09
2.96913e-09
4.70604e-08
9.35829e-10
2.44805e-09
5.14331e-08
-4.33489e-09
3.46919e-08
-2.86733e-11
6.21313e-08
-3.01146e-10
2.82507e-08
-7.55427e-09
4.1765e-08
3.91724e-08
2.6504e-09
5.84251e-09
5.23753e-08
6.57608e-11
8.09569e-09
-7.93504e-11
1.17996e-08
8.34064e-10
9.76268e-09
-2.15988e-10
3.194e-08
-6.95629e-10
-3.81895e-09
2.43732e-08
-2.98439e-09
-8.75584e-09
-1.02079e-09
3.7843e-08
8.4498e-09
2.74541e-09
4.41144e-08
2.68459e-10
-7.77002e-10
3.33417e-08
6.28739e-10
3.91147e-08
1.08564e-09
1.55125e-09
6.41023e-08
-6.52837e-10
3.17643e-09
4.83679e-08
1.68266e-09
7.13305e-09
4.11876e-08
2.59379e-09
3.38952e-08
5.89987e-09
5.58877e-08
-4.60361e-11
3.72813e-08
-3.36657e-09
5.61703e-08
4.34879e-08
6.38595e-09
8.47138e-10
4.72037e-08
-1.92289e-09
9.29849e-10
-2.3697e-10
1.98203e-08
-2.32765e-09
-4.0072e-10
1.54445e-09
3.42777e-08
-2.55149e-09
2.05815e-09
2.58105e-08
-2.11199e-09
8.22314e-09
2.45003e-09
2.82676e-08
4.23686e-09
2.71692e-09
4.51468e-08
-1.22148e-09
-1.88168e-10
4.05326e-08
-2.29174e-10
4.33171e-08
7.07883e-09
-3.46339e-09
6.35343e-08
-7.12766e-10
-2.36823e-09
6.12446e-08
-4.28887e-11
4.89892e-10
3.98396e-08
-4.58142e-10
3.55163e-08
8.63625e-09
4.21803e-08
3.11989e-09
4.07492e-08
-4.53697e-09
6.51882e-08
4.27203e-08
2.27595e-09
-4.14016e-11
4.3261e-08
5.98451e-10
-3.92742e-09
-1.45927e-09
2.74949e-08
-1.1788e-11
-6.48936e-10
-4.8306e-10
3.20719e-08
-5.89569e-10
-8.54876e-10
2.59941e-08
-1.46721e-09
-1.69817e-09
-1.05447e-09
3.1234e-08
3.98168e-10
-1.04098e-09
4.2632e-08
-1.71447e-09
-1.31363e-10
4.22938e-08
5.02304e-10
4.09927e-08
8.72136e-10
-1.52439e-10
6.14361e-08
2.94034e-10
-2.60113e-09
6.3383e-08
-7.26579e-11
-9.53907e-10
4.10291e-08
-9.32656e-11
3.67295e-08
2.58287e-10
4.40903e-08
-3.00642e-09
4.60446e-08
-5.27019e-10
6.09122e-08
4.39216e-08
-1.92691e-10
-4.05366e-09
4.38192e-08
3.68753e-09
-1.69458e-09
-6.04297e-09
3.14292e-08
3.61094e-09
2.5544e-09
-5.27559e-09
2.90528e-08
4.04542e-09
-5.34559e-09
2.47318e-08
3.25652e-09
-5.07068e-09
-4.68292e-09
3.6934e-08
-1.53543e-09
-6.42043e-09
3.94741e-08
2.3896e-09
-3.92657e-09
3.70199e-08
-2.24869e-09
3.43156e-08
4.31009e-11
-1.89017e-10
5.68988e-08
8.10286e-09
-7.6776e-10
4.96709e-08
6.89463e-09
-1.98372e-09
4.02951e-08
-1.20449e-09
3.68173e-08
-3.91857e-09
4.83639e-08
-3.77979e-09
4.63861e-08
4.7519e-09
4.75179e-08
4.25348e-08
3.40985e-09
1.58626e-09
3.86683e-08
1.54924e-10
7.39955e-10
7.28392e-10
3.30794e-08
2.91181e-10
2.18553e-10
9.33148e-10
2.84662e-08
1.74869e-10
7.12673e-10
2.35984e-08
-2.36013e-10
-2.92348e-09
-8.33421e-10
4.22774e-08
-2.75103e-09
-9.70195e-10
4.10009e-08
-2.00908e-09
-7.2336e-11
3.72838e-08
4.48367e-10
3.28238e-08
2.37268e-09
-1.40059e-09
5.5093e-08
2.4996e-09
-1.559e-09
5.01327e-08
5.67096e-10
-1.02838e-09
4.31841e-08
-4.67368e-10
3.80501e-08
-9.4824e-10
5.23685e-08
-1.58706e-09
4.98734e-08
-9.18138e-11
4.64071e-08
4.11618e-08
1.87264e-10
-5.63261e-10
3.83262e-08
7.18181e-10
2.42001e-10
-7.77297e-10
3.29769e-08
8.25129e-10
3.67213e-10
-7.95896e-10
2.83466e-08
7.90191e-10
-8.01039e-10
2.36291e-08
6.49683e-10
-1.78105e-09
-1.36965e-09
4.48643e-08
-9.77511e-10
-1.44144e-09
4.08616e-08
-1.06255e-10
-1.06113e-09
3.66781e-08
-6.71547e-10
3.20454e-08
5.75466e-10
-6.96733e-10
5.38447e-08
1.58854e-09
-7.36343e-10
4.84145e-08
1.31594e-09
-4.62609e-10
4.28584e-08
-1.8859e-10
3.77051e-08
-9.20897e-10
5.42921e-08
-1.68604e-10
4.99351e-08
8.6293e-10
4.53464e-08
4.02845e-08
7.3475e-10
1.83237e-10
3.71749e-08
2.32997e-10
6.08967e-10
1.24253e-10
3.26777e-08
3.00889e-10
5.87703e-10
1.11756e-10
2.79576e-08
2.98555e-10
4.60438e-11
2.31771e-08
2.461e-10
-1.23947e-10
-7.03608e-11
4.52418e-08
-1.51283e-10
-8.37797e-11
4.10969e-08
9.81416e-11
2.55232e-11
3.65149e-08
8.9281e-11
3.16715e-08
7.74017e-10
-2.90851e-11
5.30296e-08
9.47805e-10
-1.75871e-11
4.81743e-08
8.18229e-10
1.4194e-10
4.28715e-08
2.59111e-10
3.75802e-08
8.19236e-11
5.48842e-08
1.86861e-10
5.04379e-08
4.47952e-10
4.54875e-08
4.02731e-08
1.43421e-10
-5.60202e-11
3.69413e-08
1.46193e-10
2.89946e-10
-6.51175e-11
3.2425e-08
1.71122e-10
3.28797e-10
-6.18465e-11
2.78081e-08
1.72274e-10
-6.39454e-11
2.30977e-08
1.53005e-10
-1.27849e-10
-1.23625e-10
4.54371e-08
8.01979e-12
-1.22173e-10
4.10177e-08
1.65517e-10
-7.38783e-11
3.63692e-08
-1.5791e-11
3.15353e-08
2.95888e-10
5.22686e-11
5.25576e-08
5.37659e-10
6.45337e-11
4.77453e-08
5.55717e-10
1.17843e-10
4.26613e-08
1.56773e-10
3.74626e-08
-7.01214e-12
5.51324e-08
1.70464e-10
5.04822e-08
3.33436e-10
4.54871e-08
4.02789e-08
1.57191e-10
3.35773e-12
3.6705e-08
7.56021e-11
2.22424e-10
5.29211e-13
3.22706e-08
8.82859e-11
2.46045e-10
-1.24992e-12
2.76946e-08
9.07664e-11
-7.836e-12
2.30175e-08
8.37236e-11
2.22815e-11
-5.94428e-12
4.54238e-08
8.61132e-11
-9.79217e-12
4.09638e-08
1.51685e-10
4.95278e-12
3.62972e-08
1.94012e-11
3.1471e-08
2.03006e-10
1.09193e-10
5.22392e-08
3.22209e-10
1.1084e-10
4.7505e-08
3.47251e-10
1.16333e-10
4.25246e-08
1.18064e-10
3.73949e-08
4.25709e-11
5.52272e-08
1.40142e-10
5.05151e-08
2.1963e-10
4.55136e-08
4.03115e-08
7.99691e-11
-5.17066e-12
3.65868e-08
4.32973e-11
1.28491e-10
-3.87324e-12
3.21761e-08
4.96893e-11
1.47718e-10
-3.40533e-12
2.76276e-08
5.09831e-11
-6.54389e-12
2.2974e-08
4.77234e-11
2.80452e-11
-3.68772e-12
4.5394e-08
7.10248e-11
-3.52655e-12
4.09202e-08
1.07528e-10
4.14537e-12
3.6253e-08
1.09292e-11
3.14367e-08
1.17029e-10
6.96254e-11
5.20487e-08
1.85853e-10
7.13816e-11
4.7361e-08
2.06145e-10
7.02615e-11
4.2438e-08
6.7008e-11
3.73542e-08
3.88578e-11
5.52525e-08
9.57605e-11
5.05213e-08
1.40811e-10
4.5521e-08
4.03273e-08
4.94155e-11
-5.08105e-12
3.65164e-08
2.58703e-11
7.89242e-11
-4.656e-12
3.21215e-08
2.97329e-11
9.16452e-11
-4.34171e-12
2.75889e-08
3.03389e-11
-6.45645e-12
2.29487e-08
2.92327e-11
2.52453e-11
-2.3227e-12
4.53659e-08
5.29998e-11
-2.24644e-12
4.08899e-08
7.41949e-11
1.4281e-12
3.6226e-08
4.52381e-12
3.14174e-08
6.79613e-11
3.89096e-11
5.19394e-08
1.08914e-10
3.97499e-11
4.7278e-08
1.23736e-10
3.79526e-11
4.23865e-08
3.51951e-11
3.733e-08
2.91523e-11
5.52528e-08
6.48504e-11
5.05151e-08
9.23771e-11
4.5518e-08
4.0332e-08
2.92235e-11
-5.13806e-12
3.64759e-08
1.64163e-11
4.79528e-11
-5.13962e-12
3.20891e-08
1.87094e-11
5.6927e-11
-5.00944e-12
2.75656e-08
1.93029e-11
-6.05097e-12
2.29337e-08
1.85744e-11
1.90021e-11
-2.96975e-12
4.53447e-08
3.73548e-11
-2.90262e-12
4.08694e-08
5.05835e-11
-1.03696e-12
3.62088e-08
1.08157e-12
3.14053e-08
4.01252e-11
1.99138e-11
5.18764e-08
6.51151e-11
2.05132e-11
4.72296e-08
7.53995e-11
1.95324e-11
4.23557e-08
1.79893e-11
3.73148e-08
2.12939e-11
5.52441e-08
4.42451e-11
5.05049e-08
6.09912e-11
4.55111e-08
4.03311e-08
1.8069e-11
-5.19212e-12
3.6452e-08
1.09949e-11
2.98274e-11
-5.1144e-12
3.20699e-08
1.25558e-11
3.60164e-11
-4.91426e-12
2.75515e-08
1.28501e-11
-5.55806e-12
2.29245e-08
1.24776e-11
1.3615e-11
-3.22476e-12
4.53292e-08
2.58758e-11
-3.04603e-12
4.08551e-08
3.44131e-11
-1.89566e-12
3.61972e-08
-9.23766e-13
3.13973e-08
2.42879e-11
9.87728e-12
5.18391e-08
3.97636e-11
1.03715e-11
4.72008e-08
4.70228e-11
9.95514e-12
4.23366e-08
9.05874e-12
3.73047e-08
1.51823e-11
5.52333e-08
3.01264e-11
5.04946e-08
4.06495e-11
4.55037e-08
4.0328e-08
1.12047e-11
-4.70017e-12
3.64378e-08
7.64392e-12
1.88705e-11
-4.78348e-12
3.20583e-08
8.76689e-12
2.3319e-11
-4.59894e-12
2.75429e-08
8.82012e-12
-4.95414e-12
2.29187e-08
8.7391e-12
9.53923e-12
-3.01319e-12
4.53181e-08
1.78206e-11
-3.018e-12
4.08451e-08
2.34837e-11
-2.29292e-12
3.61892e-08
-1.79222e-12
3.13917e-08
1.48728e-11
4.75557e-12
5.18166e-08
2.47918e-11
5.08411e-12
4.71829e-08
2.98994e-11
4.91674e-12
4.23243e-08
4.41862e-12
3.72978e-08
1.0659e-11
5.52236e-08
2.05524e-11
5.04858e-08
2.73551e-11
4.54971e-08
4.03245e-08
7.11192e-12
-3.87952e-12
3.64291e-08
5.4395e-12
1.21905e-11
-4.03452e-12
3.20511e-08
6.15075e-12
1.53811e-11
-3.88202e-12
2.75375e-08
6.17411e-12
-4.08548e-12
2.29149e-08
6.21462e-12
6.65915e-12
-2.42851e-12
4.53101e-08
1.22541e-11
-2.44756e-12
4.08381e-08
1.60636e-11
-2.04737e-12
3.61836e-08
-1.8189e-12
3.13877e-08
9.32738e-12
2.19553e-12
5.18029e-08
1.57935e-11
2.4201e-12
4.71718e-08
1.93803e-11
2.35992e-12
4.23165e-08
2.08583e-12
3.7293e-08
7.42562e-12
5.52157e-08
1.40659e-11
5.04787e-08
1.85345e-11
4.54917e-08
4.03212e-08
4.568e-12
-2.9937e-12
3.64238e-08
3.84125e-12
7.97252e-12
-3.1599e-12
3.20466e-08
4.30613e-12
1.0232e-11
-3.05119e-12
2.7534e-08
4.32031e-12
-3.16669e-12
2.29124e-08
4.39264e-12
4.60916e-12
-1.85798e-12
4.53045e-08
8.39809e-12
-1.86967e-12
4.08331e-08
1.09481e-11
-1.62649e-12
3.61796e-08
-1.51851e-12
3.13848e-08
5.94052e-12
9.88809e-13
5.17943e-08
1.02153e-11
1.13839e-12
4.71648e-08
1.27324e-11
1.15694e-12
4.23113e-08
1.03994e-12
3.72897e-08
5.13647e-12
5.52097e-08
9.58997e-12
5.04734e-08
1.25621e-11
4.54877e-08
4.03186e-08
2.94061e-12
-2.18098e-12
3.64204e-08
2.65207e-12
5.20579e-12
-2.31093e-12
3.20437e-08
2.95903e-12
6.7644e-12
-2.24172e-12
2.75318e-08
2.96299e-12
-2.31549e-12
2.29108e-08
3.02954e-12
3.12684e-12
-1.34621e-12
4.53007e-08
5.66348e-12
-1.34303e-12
4.08297e-08
7.35166e-12
-1.19207e-12
3.61769e-08
-1.14846e-12
3.13829e-08
3.7962e-12
4.45057e-13
5.17889e-08
6.60492e-12
5.61426e-13
4.71602e-08
8.32998e-12
5.97186e-13
4.23079e-08
5.14455e-13
3.72874e-08
3.49537e-12
5.52053e-08
6.44849e-12
5.04696e-08
8.42548e-12
4.54847e-08
4.03165e-08
1.84639e-12
-1.48356e-12
3.64183e-08
1.75068e-12
3.31809e-12
-1.56895e-12
3.20419e-08
1.94985e-12
4.34708e-12
-1.52936e-12
2.75303e-08
1.94958e-12
-1.57303e-12
2.29098e-08
1.99533e-12
2.03464e-12
-9.01591e-13
4.52982e-08
3.67359e-12
-8.91136e-13
4.08275e-08
4.76609e-12
-8.03708e-13
3.61751e-08
-7.9193e-13
3.13815e-08
2.37749e-12
2.0464e-13
5.17855e-08
4.17174e-12
2.87266e-13
4.71574e-08
5.31961e-12
3.19709e-13
4.23057e-08
2.77365e-13
3.72859e-08
2.29595e-12
5.52024e-08
4.18283e-12
5.0467e-08
5.45956e-12
4.54826e-08
4.03151e-08
1.09731e-12
-9.28467e-13
3.6417e-08
1.08999e-12
1.99096e-12
-9.80526e-13
3.20408e-08
1.20189e-12
2.63136e-12
-9.55836e-13
2.75295e-08
1.21404e-12
-9.94367e-13
2.29091e-08
1.24388e-12
1.24609e-12
-5.46727e-13
4.52966e-08
2.21642e-12
-5.41557e-13
4.08261e-08
2.89227e-12
-5.01808e-13
3.6174e-08
-5.10845e-13
3.13807e-08
1.418e-12
1.01092e-13
5.17835e-08
2.4807e-12
1.44436e-13
4.71557e-08
3.19172e-12
1.60441e-13
4.23044e-08
1.35963e-13
3.72849e-08
1.41265e-12
5.52005e-08
2.52993e-12
5.04653e-08
3.30388e-12
4.54813e-08
4.03141e-08
5.68167e-13
-5.98535e-13
6.64221e-13
1.0435e-12
-6.23331e-13
7.04243e-13
1.39765e-12
-6.2197e-13
7.19119e-13
-6.39269e-13
7.34774e-13
6.53648e-13
-3.75938e-13
1.17824e-12
-3.72361e-13
1.55251e-12
-3.73007e-13
-3.93199e-13
7.25018e-13
-2.42873e-14
1.30826e-12
-1.2882e-14
1.70161e-12
-2.32325e-14
-4.94563e-14
7.31529e-13
1.34858e-12
1.77005e-12
-2.28013e-09
-8.13402e-09
4.44996e-08
-9.79347e-10
3.89788e-09
4.07134e-08
-5.99039e-10
5.14447e-09
4.71007e-08
3.44359e-09
4.73362e-08
5.76641e-10
-1.91358e-09
2.31065e-08
-9.51665e-10
-3.1772e-09
4.95789e-08
-3.1026e-10
-2.69064e-10
5.23515e-08
-3.20677e-10
5.52469e-08
2.32758e-10
3.2608e-10
2.30792e-08
9.90156e-10
-3.39491e-09
3.57458e-08
-3.41392e-11
-3.19706e-09
4.70929e-08
-5.7824e-09
5.04867e-08
-1.59743e-09
2.91628e-08
1.055e-09
2.39855e-08
-1.27988e-09
3.43945e-08
2.84247e-08
6.25439e-10
-1.68563e-12
4.08727e-08
-2.43872e-09
8.99077e-10
4.38873e-08
2.7764e-09
3.66805e-09
3.84504e-08
-7.33399e-09
7.1363e-08
6.25395e-10
5.70048e-09
1.62442e-08
-9.29019e-10
-8.06291e-10
5.28387e-08
-1.06331e-09
-2.20042e-09
5.83542e-08
-9.28408e-09
6.36159e-08
-3.61791e-09
-1.23905e-08
4.81034e-08
-2.06752e-09
1.31679e-09
3.20723e-08
-5.60193e-09
-8.47289e-10
4.92742e-08
1.10825e-08
2.59556e-08
1.90157e-09
2.10819e-08
-1.3392e-09
3.31296e-08
4.09491e-09
3.28299e-08
6.2298e-08
-8.01709e-10
3.88053e-10
4.37954e-08
9.19331e-10
7.21206e-09
3.54753e-08
1.04285e-09
-7.93535e-09
4.60763e-08
-8.83925e-09
8.87637e-08
8.82683e-10
-1.35216e-09
1.87083e-08
-6.20993e-09
1.82187e-09
6.53216e-08
7.86147e-10
-1.37419e-09
4.4797e-08
3.14953e-09
5.60544e-08
1.98096e-09
-3.43953e-09
4.92082e-08
-4.24501e-09
7.66782e-09
3.24524e-08
3.56601e-09
2.53937e-09
3.75497e-08
-3.22589e-09
3.7432e-08
-2.88336e-09
1.87465e-08
1.10662e-09
3.35683e-08
1.87462e-09
4.08685e-08
4.98625e-08
-8.14586e-10
-7.75516e-09
5.40799e-08
5.77288e-10
-3.08095e-09
3.69519e-08
5.03516e-09
-1.61937e-09
4.40942e-08
-8.64444e-09
1.02678e-07
-4.61999e-12
-6.32352e-09
1.76204e-08
-6.88072e-10
-1.35817e-09
6.42822e-08
1.89633e-09
1.48954e-10
4.04443e-08
-4.22221e-10
4.92859e-08
2.72e-09
8.08867e-09
3.00673e-08
-7.09774e-10
-2.09372e-09
3.66177e-08
2.51251e-09
6.89509e-10
3.37868e-08
-2.748e-09
3.92069e-08
-1.99106e-09
2.75332e-08
6.62091e-10
2.48191e-08
4.42952e-10
4.05415e-08
4.64178e-08
2.03802e-09
7.87412e-09
4.38584e-08
-2.9432e-10
-3.65634e-09
4.27942e-08
3.99511e-10
-3.36591e-10
4.35895e-08
1.1055e-10
9.89553e-08
-1.05094e-09
-5.79116e-10
2.79586e-08
-1.79619e-10
1.94105e-09
5.78135e-08
3.30818e-10
5.09956e-10
3.90873e-08
2.91745e-09
3.97957e-08
-6.81347e-10
2.26237e-09
2.72116e-08
-1.27609e-09
4.85364e-09
3.42999e-08
1.88301e-09
4.64833e-09
2.64894e-08
1.92259e-09
4.26124e-08
1.39502e-09
2.5729e-08
-1.78696e-09
3.5153e-08
1.40784e-09
3.99594e-08
5.6685e-08
1.41794e-09
1.26203e-08
2.82301e-08
2.80328e-09
-4.35276e-09
4.57057e-08
-4.86278e-09
-5.06065e-10
5.21777e-08
1.31464e-08
8.06464e-08
-4.33059e-09
7.52347e-09
3.50583e-08
3.66611e-09
1.13467e-08
3.41173e-08
1.68262e-09
5.74067e-09
3.4824e-08