/*--------------------------------*- C++ -*----------------------------------*\
| =========                 |                                                 |
| \\      /  F ield         | OpenFOAM: The Open Source CFD Toolbox           |
|  \\    /   O peration     | Version:  2506                                  |
|   \\  /    A nd           | Website:  www.openfoam.com                      |
|    \\/     M anipulation  |                                                 |
\*---------------------------------------------------------------------------*/
FoamFile
{
    version     2.0;
    format      ascii;
    arch        "LSB;label=32;scalar=64";
    class       volVectorField;
    location    "0.06";
    object      U;
}
// * * * * * * * * * * * * * * * * * * * * * * * * * * * * * * * * * * * * * //

dimensions      [0 1 -1 0 0 0 0];

internalField   nonuniform List<vector> 
1152
(
(-0.00100126 -0.0012047 0.0147175)
(0.000649375 0.00104733 0.0164425)
(-0.0036236 -0.00159742 0.0219928)
(0.00019768 -1.6228e-06 0.00507332)
(-7.38681e-05 -3.88102e-05 0.0153224)
(-0.00183645 0.000698293 0.0209668)
(-0.00211813 0.000242959 0.0141483)
(0.00107108 0.00174344 0.0144889)
(0.00154261 0.000513814 0.0181285)
(0.000121238 0.000283608 0.0106929)
(-0.00256014 0.00303365 0.0218748)
(0.000346422 0.00230981 0.019805)
(0.000731722 0.000610172 0.0139637)
(0.00035017 -0.00500121 0.038021)
(-0.00175317 -0.000175381 0.0207064)
(0.00107259 0.0033233 0.0160995)
(-0.000493798 -0.00167189 0.0220252)
(-0.00073961 -0.00285616 0.0301923)
(-0.000176627 0.000914161 0.0416821)
(-9.8918e-05 0.000334694 0.00620026)
(-0.00156156 -0.00135397 0.0263512)
(0.00265723 -0.000868887 0.0408512)
(0.000658603 0.000331584 0.00544615)
(-0.00296876 0.000926645 0.0241051)
(-0.000114432 -0.000172897 0.0182471)
(-0.00163474 -0.00198019 0.0480456)
(0.00184876 -0.00345863 0.0320721)
(9.26199e-05 2.84966e-05 0.0059737)
(-0.00216673 0.00162233 0.0315703)
(-0.00106583 0.000662048 0.0116196)
(-1.44067e-05 0.00278003 0.0249654)
(0.00100371 0.00239821 0.0176133)
(-0.000790244 0.00147589 0.0202304)
(-0.00260518 -0.000959176 0.0256857)
(0.00132025 0.000157751 0.00808611)
(8.55165e-05 0.000290965 0.00146897)
(-0.00106882 -0.000665736 0.0099579)
(-0.000655475 -0.000870458 0.0136742)
(0.00643356 0.00254673 0.0520414)
(-0.000180085 -0.00288745 0.0317035)
(-0.00399649 -0.00328886 0.0299348)
(-0.000891767 0.00243634 0.0253878)
(0.00137797 -0.000303791 0.0125717)
(0.00204951 -0.00148207 0.052043)
(0.000410263 0.000907707 0.0173414)
(-0.00123219 0.0025961 0.0544065)
(-0.000340183 -0.00126793 0.0141082)
(-0.00049172 -0.00359121 0.0142846)
(0.00118655 0.00183335 0.0269483)
(-0.000679923 0.00394321 0.045871)
(-0.000385096 8.73922e-05 0.02035)
(-0.00283242 -0.00045125 0.0394968)
(0.00319006 0.00198106 0.0547736)
(-0.00150449 0.00042375 0.0251754)
(-0.00184486 0.00029114 0.0285104)
(0.00294039 0.00079619 0.0422047)
(-0.000770906 5.4241e-05 0.0124166)
(-0.00107082 -0.00152077 0.0201512)
(-0.000176028 -0.000516901 0.0241355)
(2.40373e-05 0.000264682 0.00182317)
(-0.00118987 -0.00151646 0.0172175)
(-0.00536264 0.000372604 0.0678934)
(-0.00035184 -0.00165838 0.0262666)
(0.00237259 -0.00846863 0.0577127)
(-0.00223555 -0.000100122 0.0198293)
(0.000854559 -0.000528429 0.0220245)
(-0.000410877 -0.000829591 0.0142646)
(-0.00098441 -0.00104571 0.027797)
(-0.00084673 0.00109143 0.0224498)
(-0.000681227 0.000593719 0.0399244)
(-0.000604102 -0.00402293 0.0406907)
(0.000537415 -0.000287981 0.00921245)
(-0.000615888 0.00168077 0.0333549)
(-0.00408659 -0.00341023 0.0362858)
(-0.00201535 -0.000770723 0.0199333)
(-0.00118613 -0.0116995 0.0611484)
(-0.00654276 -0.000209532 0.0435276)
(-0.00100161 -0.000731563 0.0119837)
(-0.00151232 -0.000556714 0.0143447)
(-7.05878e-05 -1.79814e-05 0.00229064)
(-0.00112132 0.000394572 0.0131038)
(-0.00232465 -0.000429787 0.0247978)
(-0.0018587 -0.00212152 0.0254933)
(0.00112039 -0.00170299 0.0168403)
(-0.0031638 -0.000526493 0.0260224)
(-0.00263529 -0.000760604 0.0168535)
(-0.00137066 -6.83518e-05 0.0119968)
(0.000789812 -0.00119696 0.0357311)
(-0.00183874 -0.000498527 0.0163443)
(-0.0025642 -0.00171797 0.025662)
(-0.000643125 -0.00021344 0.0100949)
(-0.000881543 0.000556863 0.024117)
(-0.00284859 -0.00140596 0.0177581)
(-0.00405572 -0.000987545 0.0293972)
(-0.000497442 -0.000985793 0.0221715)
(-0.00134926 -0.000515135 0.0148948)
(-4.79634e-06 0.000189969 0.0118607)
(-5.57484e-05 0.000163129 0.0201005)
(7.92796e-05 -0.000102217 0.0160964)
(-4.10723e-05 -4.47116e-05 0.015196)
(-0.000300953 -0.000741356 0.0228074)
(0.00014927 -0.000149663 0.0205688)
(0.000420721 -1.35061e-05 0.0157916)
(-0.000182378 -0.000313125 0.00515102)
(-0.000254605 -0.000419251 0.0200169)
(0.000189564 -0.000157233 0.0219936)
(0.000175312 -2.40131e-05 0.01348)
(0.000297831 -0.000493561 0.0349881)
(0.000340928 0.00025117 0.0284605)
(0.000310113 7.92072e-05 0.0114668)
(0.00016696 -6.53526e-05 0.00858671)
(0.000580123 0.000128022 0.0151872)
(0.00126513 -0.000629334 0.0244476)
(0.000814288 -0.000167516 0.0311688)
(0.00057821 0.000131221 0.0261909)
(-0.000137499 0.000340794 0.0241588)
(0.00161327 -0.000873124 0.0277731)
(0.00151147 -0.000369868 0.028613)
(0.000826896 -2.80363e-05 0.0224631)
(4.22318e-05 -0.000354453 0.0199654)
(0.00136336 -0.000283329 0.0275861)
(0.00144044 2.42066e-05 0.0287827)
(0.000454162 7.17977e-05 0.0215168)
(0.00043361 0.000248212 0.0387717)
(0.00149898 0.000187013 0.0300922)
(0.00175413 0.000245076 0.0206703)
(0.00112553 -5.48304e-05 0.0145662)
(0.000403447 0.000340168 0.0252195)
(0.000136117 0.00044475 0.0070778)
(0.000354228 0.000524026 0.00761423)
(0.000580453 0.000776837 0.00642117)
(-0.000138017 0.000791672 0.00607602)
(0.000149797 -6.68646e-05 0.00776568)
(0.000865727 0.000434235 0.00723442)
(0.000669854 0.000634739 0.00573331)
(-0.000440272 -0.000683651 0.00584669)
(0.000127451 0.000131975 0.00754399)
(0.000900468 0.000929739 0.00690842)
(-0.000623272 0.000984514 0.00570379)
(-0.000286827 6.92821e-05 0.00875578)
(0.000870251 0.000244048 0.00758948)
(0.00161978 0.000776576 0.0053928)
(-0.000238164 0.000354003 0.00430162)
(-0.000425834 0.000892587 0.00626097)
(4.93345e-05 -0.000198382 0.015172)
(0.000204811 6.22069e-05 0.0155158)
(0.000212269 0.000255518 0.0149878)
(-2.91062e-05 0.000306274 0.0150151)
(0.000183717 -0.00013786 0.0151948)
(0.000451919 0.000153788 0.0151918)
(0.000266343 0.000238533 0.0145506)
(-0.000108101 -0.000205914 0.0147378)
(0.000298822 0.000101477 0.0150654)
(0.000495501 0.000416136 0.0150092)
(-0.00019528 0.000424069 0.0144809)
(-0.000131336 8.96058e-05 0.0159079)
(0.000542064 0.000184524 0.0148751)
(0.00072234 0.000414393 0.0141989)
(-9.15428e-05 0.000311073 0.0136898)
(-0.000239108 0.000505077 0.0148762)
(0.000175383 7.86472e-05 0.0125325)
(0.000188451 0.00013193 0.0126413)
(0.000135516 0.00016655 0.0124604)
(5.21017e-05 0.00017301 0.0125217)
(0.000142384 7.5965e-05 0.0125948)
(0.000223855 0.000156462 0.0125631)
(0.000125857 0.000166029 0.0123306)
(1.2671e-05 2.09994e-05 0.0124282)
(0.000193432 0.000131612 0.0125733)
(0.00023546 0.00022678 0.0125043)
(-2.1639e-05 0.000218866 0.0123159)
(-2.89139e-05 0.000101648 0.0127865)
(0.00023926 0.000102353 0.0124387)
(0.000288044 0.000194675 0.0122033)
(-1.42685e-05 0.000178943 0.0120267)
(-8.72399e-05 0.000229539 0.012445)
(7.41968e-05 7.82871e-06 0.0130112)
(8.72842e-05 6.29709e-05 0.0130302)
(6.79793e-05 8.105e-05 0.0129588)
(5.00753e-05 9.36599e-05 0.0129833)
(7.25847e-05 3.58467e-05 0.012995)
(0.000103915 8.24441e-05 0.0129855)
(6.55775e-05 8.93994e-05 0.0129028)
(3.43122e-05 5.03826e-05 0.0129428)
(0.000120777 7.27185e-05 0.0129744)
(0.000121155 0.000111857 0.0129483)
(2.64641e-05 0.000110451 0.0128812)
(1.11839e-05 7.07778e-05 0.0130259)
(0.000127342 5.92954e-05 0.0128972)
(0.000133693 9.71082e-05 0.0128306)
(1.85611e-05 9.8518e-05 0.0127696)
(-1.755e-05 0.000108118 0.0129116)
(6.10891e-05 2.24323e-05 0.0129099)
(6.01221e-05 4.42648e-05 0.0129416)
(4.84449e-05 4.72465e-05 0.0129267)
(4.20296e-05 5.41517e-05 0.0129414)
(5.27609e-05 3.31044e-05 0.0129269)
(6.21491e-05 5.15405e-05 0.0129384)
(4.57432e-05 5.2662e-05 0.012915)
(3.43651e-05 4.22618e-05 0.0129316)
(7.71512e-05 4.6496e-05 0.0129334)
(7.1342e-05 6.01846e-05 0.012928)
(3.57322e-05 5.90175e-05 0.0129058)
(2.34058e-05 4.61145e-05 0.0129484)
(7.33744e-05 3.5207e-05 0.0129001)
(7.20712e-05 4.97315e-05 0.0128834)
(2.96268e-05 5.16809e-05 0.0128626)
(1.04339e-05 5.26005e-05 0.0129089)
(3.81309e-05 1.49476e-05 0.0128931)
(3.73333e-05 2.62337e-05 0.0129214)
(3.27641e-05 2.69247e-05 0.0129235)
(3.0707e-05 3.09493e-05 0.0129305)
(3.44865e-05 2.01488e-05 0.0129157)
(3.80639e-05 2.90353e-05 0.0129317)
(3.20247e-05 2.9938e-05 0.0129284)
(2.73498e-05 2.78452e-05 0.012934)
(4.75272e-05 2.58925e-05 0.0129273)
(4.36773e-05 3.15606e-05 0.0129322)
(3.02025e-05 3.15786e-05 0.0129262)
(2.29339e-05 2.76889e-05 0.0129374)
(4.43231e-05 1.96829e-05 0.0129148)
(4.30773e-05 2.53866e-05 0.0129154)
(2.75063e-05 2.67375e-05 0.0129094)
(1.74255e-05 2.65489e-05 0.0129227)
(2.43031e-05 9.86194e-06 0.012881)
(2.43102e-05 1.52179e-05 0.0129119)
(2.26011e-05 1.56035e-05 0.0129225)
(2.17135e-05 1.78108e-05 0.0129279)
(2.28832e-05 1.18541e-05 0.0129102)
(2.48062e-05 1.62142e-05 0.0129301)
(2.26545e-05 1.70186e-05 0.0129352)
(2.03338e-05 1.69665e-05 0.012938)
(2.9778e-05 1.41686e-05 0.0129257)
(2.80683e-05 1.67966e-05 0.0129369)
(2.28211e-05 1.71842e-05 0.0129383)
(1.87074e-05 1.6171e-05 0.0129412)
(2.80085e-05 1.08329e-05 0.0129238)
(2.76964e-05 1.3243e-05 0.0129323)
(2.18335e-05 1.40645e-05 0.0129327)
(1.65252e-05 1.39468e-05 0.0129361)
(1.56399e-05 5.96146e-06 0.0128744)
(1.61533e-05 8.64392e-06 0.0129071)
(1.56893e-05 9.05761e-06 0.0129215)
(1.52453e-05 1.02646e-05 0.012927)
(1.53763e-05 6.72222e-06 0.012907)
(1.66722e-05 8.99478e-06 0.0129293)
(1.60111e-05 9.68118e-06 0.0129381)
(1.47728e-05 1.00421e-05 0.0129408)
(1.90187e-05 7.72765e-06 0.0129245)
(1.85555e-05 9.09394e-06 0.0129394)
(1.65155e-05 9.52994e-06 0.0129444)
(1.42668e-05 9.4097e-06 0.0129457)
(1.82353e-05 6.0343e-06 0.0129278)
(1.84822e-05 7.1443e-06 0.0129402)
(1.62714e-05 7.63713e-06 0.0129437)
(1.34672e-05 7.67304e-06 0.0129448)
(1.03166e-05 3.50152e-06 0.01287)
(1.09553e-05 4.90308e-06 0.0129041)
(1.09739e-05 5.29053e-06 0.0129205)
(1.07504e-05 5.96587e-06 0.0129266)
(1.04884e-05 3.80821e-06 0.0129046)
(1.14334e-05 5.02622e-06 0.0129285)
(1.13281e-05 5.55607e-06 0.0129391)
(1.06636e-05 5.92392e-06 0.0129424)
(1.23748e-05 4.27499e-06 0.0129231)
(1.24933e-05 5.03345e-06 0.0129404)
(1.17707e-05 5.40245e-06 0.0129472)
(1.05806e-05 5.5318e-06 0.0129488)
(1.21262e-05 3.45538e-06 0.012929)
(1.25891e-05 4.01565e-06 0.0129436)
(1.18119e-05 4.31468e-06 0.0129489)
(1.03293e-05 4.39462e-06 0.0129499)
(6.93433e-06 2.01807e-06 0.0128672)
(7.51939e-06 2.78106e-06 0.0129021)
(7.70428e-06 3.10784e-06 0.0129197)
(7.61468e-06 3.50715e-06 0.0129264)
(7.20592e-06 2.15253e-06 0.0129029)
(7.91611e-06 2.83673e-06 0.0129277)
(8.01641e-06 3.22762e-06 0.0129395)
(7.67934e-06 3.52372e-06 0.0129433)
(8.18717e-06 2.4092e-06 0.0129219)
(8.52427e-06 2.85891e-06 0.0129405)
(8.34054e-06 3.13922e-06 0.0129485)
(7.73676e-06 3.31371e-06 0.0129507)
(8.18136e-06 2.04286e-06 0.0129291)
(8.67013e-06 2.34759e-06 0.012945)
(8.4685e-06 2.53901e-06 0.0129514)
(7.69158e-06 2.62085e-06 0.0129528)
(4.72077e-06 1.15824e-06 0.0128653)
(5.19524e-06 1.58878e-06 0.0129008)
(5.4086e-06 1.83989e-06 0.0129192)
(5.39387e-06 2.0892e-06 0.0129263)
(4.96087e-06 1.21901e-06 0.0129016)
(5.49957e-06 1.61785e-06 0.012927)
(5.657e-06 1.89878e-06 0.0129395)
(5.50339e-06 2.1228e-06 0.0129439)
(5.49004e-06 1.38773e-06 0.0129209)
(5.8582e-06 1.66469e-06 0.0129404)
(5.88585e-06 1.86803e-06 0.0129491)
(5.59825e-06 2.02502e-06 0.0129518)
(5.56473e-06 1.25351e-06 0.0129288)
(5.99691e-06 1.43144e-06 0.0129455)
(6.01797e-06 1.55903e-06 0.0129525)
(5.62689e-06 1.63074e-06 0.0129544)
(3.2207e-06 6.61564e-07 0.012864)
(3.58051e-06 9.14829e-07 0.0129)
(3.77084e-06 1.09844e-06 0.0129187)
(3.79047e-06 1.26226e-06 0.0129262)
(3.39736e-06 6.91487e-07 0.0129006)
(3.80161e-06 9.33902e-07 0.0129265)
(3.9583e-06 1.13229e-06 0.0129394)
(3.90071e-06 1.2978e-06 0.0129442)
(3.69743e-06 8.16931e-07 0.0129201)
(4.0225e-06 9.94915e-07 0.0129401)
(4.11843e-06 1.13771e-06 0.0129494)
(3.99456e-06 1.2607e-06 0.0129524)
(3.78931e-06 7.94426e-07 0.0129283)
(4.13371e-06 9.04163e-07 0.0129456)
(4.22541e-06 9.91289e-07 0.0129531)
(4.04166e-06 1.05028e-06 0.0129553)
(2.16949e-06 3.80683e-07 0.0128631)
(2.42675e-06 5.31746e-07 0.0128993)
(2.57852e-06 6.60317e-07 0.0129184)
(2.6109e-06 7.70697e-07 0.0129262)
(2.28796e-06 3.93553e-07 0.0128999)
(2.58276e-06 5.45596e-07 0.0129261)
(2.71544e-06 6.83673e-07 0.0129393)
(2.70315e-06 8.02699e-07 0.0129443)
(2.46656e-06 4.92112e-07 0.0129195)
(2.7228e-06 6.0862e-07 0.0129399)
(2.82556e-06 7.05652e-07 0.0129494)
(2.78063e-06 7.95757e-07 0.0129527)
(2.54661e-06 5.13435e-07 0.0129279)
(2.80378e-06 5.82997e-07 0.0129454)
(2.90381e-06 6.42506e-07 0.0129533)
(2.8257e-06 6.88452e-07 0.0129558)
(1.40963e-06 2.17311e-07 0.0128625)
(1.58508e-06 3.07921e-07 0.0128989)
(1.69663e-06 3.94027e-07 0.0129182)
(1.73005e-06 4.6722e-07 0.0129261)
(1.48624e-06 2.25025e-07 0.0128994)
(1.68962e-06 3.19872e-07 0.0129257)
(1.79117e-06 4.12135e-07 0.0129391)
(1.79845e-06 4.93269e-07 0.0129443)
(1.59442e-06 2.9979e-07 0.0129191)
(1.77814e-06 3.74553e-07 0.0129396)
(1.86374e-06 4.37417e-07 0.0129494)
(1.855e-06 4.99013e-07 0.0129528)
(1.65293e-06 3.32119e-07 0.0129275)
(1.83231e-06 3.75564e-07 0.0129453)
(1.9166e-06 4.14867e-07 0.0129533)
(1.89054e-06 4.4763e-07 0.012956)
(8.61074e-07 1.08806e-07 0.0128622)
(9.73472e-07 1.60716e-07 0.0128986)
(1.04748e-06 2.1356e-07 0.012918)
(1.07643e-06 2.5887e-07 0.012926)
(9.07105e-07 1.18046e-07 0.012899)
(1.03582e-06 1.7165e-07 0.0129255)
(1.10635e-06 2.2801e-07 0.012939)
(1.12111e-06 2.78638e-07 0.0129443)
(9.67652e-07 1.67031e-07 0.0129188)
(1.08798e-06 2.10549e-07 0.0129394)
(1.15056e-06 2.47887e-07 0.0129493)
(1.15674e-06 2.85605e-07 0.0129529)
(1.00283e-06 1.95726e-07 0.0129272)
(1.12046e-06 2.19958e-07 0.0129451)
(1.18213e-06 2.42325e-07 0.0129533)
(1.18061e-06 2.62175e-07 0.0129561)
(4.67012e-07 7.30886e-09 0.0128619)
(5.35403e-07 3.75008e-08 0.0128985)
(5.81994e-07 6.85525e-08 0.0129179)
(6.01622e-07 9.68591e-08 0.012926)
(4.96189e-07 2.37178e-08 0.0128988)
(5.68353e-07 5.0549e-08 0.0129254)
(6.1241e-07 7.92916e-08 0.0129389)
(6.26389e-07 1.06493e-07 0.0129443)
(5.25279e-07 5.16836e-08 0.0129186)
(5.94575e-07 7.11519e-08 0.0129393)
(6.35649e-07 8.96637e-08 0.0129492)
(6.4569e-07 1.08294e-07 0.0129529)
(5.4129e-07 7.03316e-08 0.012927)
(6.10386e-07 7.96646e-08 0.012945)
(6.5067e-07 8.8612e-08 0.0129533)
(6.5868e-07 9.79706e-08 0.0129561)
(-0.000845176 -0.00408111 0.0224969)
(-0.00384971 -0.00223883 0.0211111)
(-0.00449929 -0.00144702 0.0244553)
(-0.00286135 0.000185368 0.0167351)
(0.00211123 -0.000345863 0.0133283)
(0.00315521 -0.000274555 0.0223876)
(-3.38169e-05 -0.00169437 0.0219319)
(-0.0014652 -0.00168313 0.0294444)
(0.000142695 -0.000348726 0.0175894)
(-0.000621337 -0.00193077 0.0284188)
(-0.00113216 -0.000235403 0.0188634)
(-0.000124625 -3.51377e-05 0.0149574)
(0.000921535 0.000380253 0.0134038)
(0.0014734 0.000858278 0.0117782)
(0.00161342 -0.000335321 0.0234635)
(-0.00012023 0.00118094 0.0237232)
(-0.00404254 0.00155575 0.0454085)
(-0.00348706 -0.0013166 0.0272378)
(-4.97154e-05 -0.00181867 0.0181789)
(-9.22759e-07 -0.000428351 0.0181203)
(-0.00103575 -0.000557409 0.0120741)
(-0.00445071 -0.00337966 0.0366716)
(-0.000770146 -0.000301276 0.019353)
(-0.00101717 -0.00121535 0.0271337)
(-0.00198824 -0.00225496 0.0335746)
(-0.00087646 -0.000608132 0.0158532)
(6.74803e-05 -0.00113807 0.0170619)
(-0.000781036 -0.00108399 0.0202102)
(-0.000733472 0.000188 0.025509)
(-0.00330921 0.00335863 0.0276394)
(-0.00111278 0.00178664 0.0272516)
(0.0005679 0.0010551 0.0269899)
(0.000834765 0.000303728 0.0507649)
(0.00161854 0.00136644 0.0293749)
(0.000697201 8.05243e-05 0.0193521)
(-0.000632138 0.000306837 0.0279304)
(-0.000436901 0.00236783 0.0406039)
(-0.00115673 0.00211978 0.0312903)
(-0.000378694 0.000701331 0.0273438)
(0.00250571 0.000184204 0.0586349)
(0.000166803 0.0023755 0.0341444)
(2.72981e-06 -0.000893121 0.0320887)
(-0.0025093 -0.00159131 0.0370287)
(-0.00210377 -0.000907085 0.0169646)
(-0.00244261 0.000387146 0.0217437)
(-0.00124864 -0.000239602 0.0129198)
(-0.000281482 0.000311388 0.0125099)
(-0.00149125 0.000531057 0.040551)
(2.11056e-06 -0.00149065 0.0338291)
(-0.000106754 0.000397713 0.0192776)
(-0.00170977 0.000806738 0.0314128)
(-0.000213543 -9.24524e-05 0.0015024)
(8.65675e-05 0.000594952 0.00316924)
(0.00285881 0.00409718 0.0498546)
(-0.000258943 0.0014331 0.0170842)
(-0.000278174 0.00340848 0.0334152)
(-0.0019867 0.00328521 0.0316598)
(-0.000505314 0.00260389 0.0410344)
(0.000775808 0.00277825 0.0303656)
(-0.000304636 0.000118438 0.0228848)
(0.000194771 -0.00103375 0.0427531)
(-0.000281462 -0.000444361 0.00866843)
(-0.00164628 -0.00158846 0.0236981)
(-0.00183633 -0.00276356 0.0340915)
(-0.00106475 0.00358899 0.0578854)
(0.00146934 0.000541881 0.0179157)
(0.00687819 0.00307193 0.0397112)
(6.4699e-05 0.000152904 0.00820514)
(-0.00173041 0.000105492 0.0238435)
(-0.000288482 0.000898809 0.0390197)
(0.00159177 0.000680132 0.0254232)
(0.000145223 -0.00199759 0.0409671)
(4.84928e-05 0.000310968 0.0479323)
(-0.00021447 0.00141699 0.0166416)
(0.000118528 0.00218431 0.0440756)
(0.000613334 0.00112969 0.0360455)
(0.00123694 0.000561225 0.0204297)
(0.00125823 0.00150936 0.0261013)
(-0.00128442 5.72253e-05 0.0349539)
(-0.00153535 0.000403849 0.024674)
(0.00115062 0.00189645 0.0130756)
(0.000748061 0.000737093 0.00443484)
(-0.000627186 0.00183048 0.017641)
(-0.00128222 0.00165057 0.0308966)
(0.00140809 0.00213127 0.0184271)
(0.00221105 0.00161073 0.0150737)
(0.000729973 0.000765597 0.018497)
(-0.00123164 -4.21016e-06 0.0198079)
(0.0010121 8.05708e-05 0.0121416)
(0.00123841 0.000673232 0.0252993)
(8.09696e-05 0.00018484 0.00747985)
(-0.000393701 -0.000144334 0.0116077)
(0.00252336 -0.000657499 0.0243701)
(0.00186745 -0.000474103 0.012872)
(-5.70922e-05 -0.000154296 0.0219712)
(-0.00238191 -0.000575236 0.0244407)
(0.000491942 -0.00014737 0.0263519)
(5.26418e-05 -0.000369393 0.0122686)
(-0.000637498 -0.000570519 0.023932)
(0.000104364 -0.000116075 0.0203356)
(-2.20821e-05 -9.54579e-05 0.0111621)
(-9.44279e-05 -0.000451158 0.0212635)
(-1.40478e-06 -0.000225773 0.0217803)
(-0.000428083 -0.000282398 0.0272156)
(0.000174572 -0.000135271 0.0242074)
(0.000273606 -0.0004757 0.0269493)
(3.9372e-05 -0.00010121 0.0159894)
(-0.000155132 -1.74146e-05 0.0172706)
(0.000204987 -0.000358852 0.0129421)
(-7.23714e-05 -0.00125581 0.0146001)
(-0.000626083 -4.95647e-05 0.0281532)
(-0.000190035 -2.17837e-05 0.0198713)
(0.000913257 -0.00108538 0.0296141)
(0.00064189 -0.0016679 0.0236727)
(0.000535677 -0.00180771 0.0261596)
(0.00130017 -0.00131761 0.0265685)
(0.000191735 -0.00175055 0.0198327)
(3.1506e-05 -0.00248034 0.0243244)
(0.000439037 -0.00146859 0.0251106)
(0.0011733 -0.00082913 0.0270075)
(-0.000209787 -0.000404176 0.0265518)
(0.000695258 -0.000275433 0.0251216)
(0.00191499 -0.000396727 0.0231351)
(0.00147404 2.68146e-05 0.0243082)
(-0.000465876 -2.02241e-05 0.0219489)
(-0.00112851 -0.000678663 0.0229498)
(0.000229483 -3.23327e-05 0.0259976)
(0.00120251 -0.00043545 0.0265934)
(9.72343e-05 0.000651157 0.00771164)
(0.000261574 0.000519426 0.00703412)
(-9.1583e-05 0.000232971 0.00741643)
(0.000108631 0.000278252 0.00756443)
(-0.000398056 -3.56017e-05 0.00597511)
(-0.000568729 -0.000320668 0.00709517)
(-0.000575273 -4.12368e-05 0.00768969)
(-0.000277676 9.34597e-05 0.00801616)
(0.000313241 -0.000239655 0.00808162)
(0.000575287 -5.45796e-05 0.00825389)
(0.00033405 -7.11688e-05 0.00753435)
(-1.93096e-05 7.7426e-05 0.00748003)
(-6.13016e-05 -0.000798929 0.00613601)
(-0.000245112 -0.00107884 0.00683235)
(-0.000138204 -0.000492528 0.00766844)
(6.7492e-05 -0.000380475 0.00754884)
(0.000123389 -9.8897e-05 0.0154384)
(0.000162614 -0.000184011 0.0152177)
(0.000146018 -0.000245892 0.0152559)
(0.000157564 -0.000246251 0.0152845)
(-4.83588e-05 -0.000398443 0.0141615)
(-0.000161904 -0.000502247 0.0146117)
(-4.54449e-05 -0.000356545 0.0149268)
(8.9963e-05 -0.000233171 0.0151416)
(0.000102228 -0.00019007 0.0150416)
(0.000251129 -0.000128233 0.0149992)
(0.000345805 -7.20406e-05 0.0148411)
(0.000280104 9.10726e-08 0.0149533)
(-0.000104235 -0.000340993 0.0141651)
(-0.000128588 -0.000414622 0.0144357)
(8.79818e-05 -0.000181839 0.0146919)
(0.000250568 -6.7674e-05 0.0148283)
(3.63649e-05 9.18381e-05 0.0123245)
(0.000118212 0.00010337 0.0123962)
(0.000121308 7.15517e-05 0.012468)
(0.00015914 6.42391e-05 0.012523)
(-1.86137e-05 -1.94459e-05 0.0120524)
(-3.20816e-05 -3.02751e-05 0.0123315)
(-2.12681e-05 1.073e-05 0.0125035)
(5.95252e-05 5.72249e-05 0.0125888)
(7.12305e-05 4.07611e-05 0.012565)
(0.00017363 7.35443e-05 0.012671)
(0.000185911 9.20354e-05 0.0126266)
(0.000178641 0.000109482 0.0126067)
(2.93722e-06 -9.53337e-05 0.0120803)
(2.61836e-05 -0.000105915 0.0123346)
(6.13993e-05 -3.71785e-05 0.0124582)
(0.000128028 1.68867e-05 0.0124885)
(2.03503e-05 -5.54166e-07 0.0128812)
(5.114e-05 5.24724e-06 0.0129445)
(7.50025e-05 7.83951e-06 0.0129939)
(8.59278e-05 6.75474e-06 0.0130196)
(1.66434e-06 -5.21479e-05 0.0126803)
(-3.06118e-06 -4.90712e-05 0.0128216)
(2.2988e-05 -2.12445e-05 0.01293)
(5.37647e-05 7.2632e-06 0.0129894)
(2.5459e-05 2.17309e-05 0.0128872)
(8.09465e-05 3.56325e-05 0.0129626)
(0.000118181 4.721e-05 0.0129835)
(0.000126297 5.49548e-05 0.0129905)
(-9.53174e-06 -2.165e-05 0.0126192)
(9.84688e-06 -2.15301e-05 0.0127586)
(5.15354e-05 1.64246e-06 0.0128544)
(8.94392e-05 2.57479e-05 0.0129037)
(1.40045e-05 9.78251e-06 0.0126454)
(3.80118e-05 1.86896e-05 0.0127521)
(5.19737e-05 2.09924e-05 0.0128268)
(6.25714e-05 2.12003e-05 0.0128764)
(2.78461e-06 -1.0498e-05 0.0125975)
(9.39081e-06 -5.45866e-06 0.0127381)
(2.27571e-05 7.68019e-06 0.0128369)
(4.02348e-05 2.16434e-05 0.0128976)
(1.38173e-05 2.74507e-05 0.0127332)
(4.87633e-05 3.35086e-05 0.0128462)
(7.0816e-05 3.79516e-05 0.0129037)
(7.9338e-05 4.02945e-05 0.0129294)
(-1.67788e-06 4.51473e-06 0.0126062)
(1.39597e-05 5.63032e-06 0.0127514)
(3.63938e-05 1.3625e-05 0.0128425)
(5.73782e-05 2.31171e-05 0.0128904)
(8.71871e-06 2.33897e-06 0.0126154)
(2.15733e-05 8.22139e-06 0.0127216)
(3.08154e-05 1.15274e-05 0.0128006)
(3.79786e-05 1.31115e-05 0.0128549)
(3.39167e-06 -6.22813e-06 0.0126007)
(8.89527e-06 -1.63019e-06 0.012728)
(1.7448e-05 6.17672e-06 0.0128211)
(2.74359e-05 1.39547e-05 0.0128816)
(7.78847e-06 1.58526e-05 0.0126769)
(2.78029e-05 1.9537e-05 0.0127951)
(4.1186e-05 2.18596e-05 0.0128691)
(4.75822e-05 2.30506e-05 0.0129097)
(3.03679e-07 6.97459e-06 0.012618)
(1.06593e-05 8.02869e-06 0.0127537)
(2.3964e-05 1.1239e-05 0.0128435)
(3.61861e-05 1.49948e-05 0.0128948)
(5.83097e-06 5.3451e-07 0.0125809)
(1.35435e-05 4.20663e-06 0.0126915)
(1.91624e-05 6.63376e-06 0.0127759)
(2.3802e-05 8.00688e-06 0.0128359)
(2.78654e-06 -3.20028e-06 0.0125907)
(7.2288e-06 -1.61052e-07 0.0127161)
(1.26658e-05 4.26209e-06 0.012809)
(1.8625e-05 8.41188e-06 0.0128715)
(4.5615e-06 8.48511e-06 0.0126423)
(1.62209e-05 1.06126e-05 0.0127657)
(2.43795e-05 1.19307e-05 0.012849)
(2.88976e-05 1.26581e-05 0.0128991)
(8.99683e-07 5.14454e-06 0.01262)
(7.7498e-06 5.92463e-06 0.012753)
(1.59626e-05 7.37249e-06 0.0128437)
(2.3348e-05 8.90186e-06 0.0128976)
(4.0348e-06 -7.18824e-07 0.0125638)
(8.56015e-06 1.47482e-06 0.0126758)
(1.19167e-05 3.16555e-06 0.0127629)
(1.50094e-05 4.26781e-06 0.0128257)
(2.26734e-06 -2.21243e-06 0.0125843)
(5.49494e-06 -2.6311e-07 0.0127089)
(9.01268e-06 2.33257e-06 0.0128019)
(1.27096e-05 4.70387e-06 0.0128657)
(2.81586e-06 4.14275e-06 0.0126227)
(9.70502e-06 5.45726e-06 0.0127491)
(1.47208e-05 6.33167e-06 0.0128373)
(1.78636e-05 6.83951e-06 0.0128927)
(9.9765e-07 3.24811e-06 0.0126187)
(5.5967e-06 3.79882e-06 0.012751)
(1.07559e-05 4.51704e-06 0.0128423)
(1.53093e-05 5.1877e-06 0.0128981)
(2.87137e-06 -1.11191e-06 0.0125532)
(5.61975e-06 1.91613e-07 0.0126661)
(7.64197e-06 1.30104e-06 0.0127546)
(9.75045e-06 2.10836e-06 0.0128192)
(1.71663e-06 -1.55e-06 0.0125792)
(4.01251e-06 -3.25613e-07 0.0127036)
(6.32849e-06 1.22476e-06 0.012797)
(8.72793e-06 2.62782e-06 0.0128617)
(1.77423e-06 1.92497e-06 0.0126112)
(5.93473e-06 2.76656e-06 0.0127392)
(9.09823e-06 3.37526e-06 0.01283)
(1.12778e-05 3.73918e-06 0.0128885)
(8.73651e-07 1.94664e-06 0.0126162)
(3.97278e-06 2.3404e-06 0.0127483)
(7.27921e-06 2.72895e-06 0.0128402)
(1.01782e-05 3.04405e-06 0.0128973)
(2.07748e-06 -1.13374e-06 0.0125471)
(3.77377e-06 -3.67193e-07 0.0126604)
(5.01807e-06 3.55153e-07 0.0127496)
(6.50083e-06 9.43923e-07 0.0128152)
(1.26596e-06 -1.1143e-06 0.0125756)
(2.8774e-06 -3.32448e-07 0.0127)
(4.42154e-06 6.28122e-07 0.0127937)
(6.01983e-06 1.47182e-06 0.012859)
(1.15957e-06 8.31151e-07 0.0126043)
(3.72435e-06 1.38421e-06 0.0127332)
(5.73934e-06 1.81053e-06 0.0128254)
(7.25265e-06 2.07132e-06 0.0128856)
(6.92195e-07 1.15649e-06 0.0126138)
(2.79401e-06 1.42213e-06 0.0127459)
(4.95516e-06 1.65721e-06 0.0128382)
(6.84641e-06 1.82285e-06 0.0128961)
(1.49005e-06 -9.88934e-07 0.0125434)
(2.56275e-06 -5.31836e-07 0.0126568)
(3.35659e-06 -5.23492e-08 0.0127465)
(4.40455e-06 3.68907e-07 0.0128126)
(9.22346e-07 -8.10757e-07 0.0125731)
(2.04304e-06 -3.01737e-07 0.0126974)
(3.0768e-06 3.02712e-07 0.0127914)
(4.14968e-06 8.21397e-07 0.0128571)
(7.70676e-07 3.09663e-07 0.0126001)
(2.38492e-06 6.76717e-07 0.0127294)
(3.69793e-06 9.76838e-07 0.0128225)
(4.75501e-06 1.16435e-06 0.0128836)
(5.2045e-07 6.99078e-07 0.0126118)
(1.95144e-06 8.81861e-07 0.0127439)
(3.38336e-06 1.03491e-06 0.0128365)
(4.63754e-06 1.12803e-06 0.012895)
(1.05724e-06 -7.90744e-07 0.0125411)
(1.74545e-06 -5.12108e-07 0.0126546)
(2.25998e-06 -1.89791e-07 0.0127445)
(2.99538e-06 1.04326e-07 0.0128109)
(6.61346e-07 -5.86531e-07 0.0125712)
(1.43425e-06 -2.52208e-07 0.0126956)
(2.12511e-06 1.33768e-07 0.0127897)
(2.84182e-06 4.57738e-07 0.0128558)
(5.14675e-07 7.31897e-08 0.0125975)
(1.54709e-06 3.18809e-07 0.0127271)
(2.41526e-06 5.27633e-07 0.0128206)
(3.14714e-06 6.61322e-07 0.0128822)
(3.79314e-07 4.27115e-07 0.0126102)
(1.35102e-06 5.56141e-07 0.0127424)
(2.30467e-06 6.58714e-07 0.0128352)
(3.14556e-06 7.15507e-07 0.0128941)
(7.32631e-07 -5.88319e-07 0.0125396)
(1.17494e-06 -4.15314e-07 0.0126532)
(1.50788e-06 -1.99402e-07 0.0127433)
(2.01217e-06 9.81749e-10 0.0128098)
(4.60792e-07 -4.12936e-07 0.0125699)
(9.83485e-07 -1.93778e-07 0.0126944)
(1.43997e-06 5.31033e-08 0.0127886)
(1.91212e-06 2.5643e-07 0.0128548)
(3.41495e-07 -1.85798e-08 0.0125958)
(1.00297e-06 1.45334e-07 0.0127255)
(1.57482e-06 2.88538e-07 0.0128193)
(2.07219e-06 3.83848e-07 0.0128813)
(2.67329e-07 2.64245e-07 0.0126091)
(9.19031e-07 3.54305e-07 0.0127412)
(1.55033e-06 4.24341e-07 0.0128342)
(2.10824e-06 4.61585e-07 0.0128933)
(4.84479e-07 -4.05651e-07 0.0125387)
(7.62521e-07 -2.98316e-07 0.0126523)
(9.74677e-07 -1.58007e-07 0.0127424)
(1.30296e-06 -2.76188e-08 0.0128091)
(3.0548e-07 -2.75435e-07 0.0125691)
(6.44305e-07 -1.35574e-07 0.0126935)
(9.37711e-07 1.85367e-08 0.0127878)
(1.24028e-06 1.44257e-07 0.0128541)
(2.18761e-07 -3.72313e-08 0.0125948)
(6.33694e-07 6.94135e-08 0.0127246)
(1.00113e-06 1.63733e-07 0.0128185)
(1.32726e-06 2.28131e-07 0.0128806)
(1.78851e-07 1.6886e-07 0.0126082)
(6.0051e-07 2.28628e-07 0.0127404)
(1.00506e-06 2.75015e-07 0.0128335)
(1.36475e-06 2.98771e-07 0.0128927)
(3.00768e-07 -2.58335e-07 0.0125382)
(4.63487e-07 -1.93616e-07 0.0126518)
(5.92055e-07 -1.09682e-07 0.0127419)
(7.86351e-07 -3.16073e-08 0.0128086)
(1.89717e-07 -1.69664e-07 0.0125685)
(3.92942e-07 -8.64009e-08 0.012693)
(5.69831e-07 1.67247e-09 0.0127873)
(7.53654e-07 7.34836e-08 0.0128537)
(1.32015e-07 -2.93407e-08 0.0125942)
(3.7767e-07 3.36781e-08 0.012724)
(5.98442e-07 8.90327e-08 0.012818)
(7.98928e-07 1.2741e-07 0.0128802)
(1.10967e-07 1.06156e-07 0.0126077)
(3.65873e-07 1.39773e-07 0.0127399)
(6.08099e-07 1.65307e-07 0.012833)
(8.25085e-07 1.77039e-07 0.0128924)
(1.81546e-07 -1.68686e-07 0.0125378)
(2.55174e-07 -1.31441e-07 0.0126514)
(3.24548e-07 -8.75473e-08 0.0127416)
(4.125e-07 -4.79679e-08 0.0128083)
(1.14552e-07 -1.17575e-07 0.0125682)
(2.15806e-07 -7.47042e-08 0.0126926)
(3.13475e-07 -3.21077e-08 0.0127869)
(4.08547e-07 9.42743e-10 0.0128534)
(7.33779e-08 -3.87697e-08 0.0125938)
(1.99325e-07 -7.39302e-09 0.0127236)
(3.22097e-07 1.75506e-08 0.0128176)
(4.30424e-07 3.45306e-08 0.0128799)
(5.86334e-08 4.28367e-08 0.0126073)
(1.93252e-07 5.69279e-08 0.0127395)
(3.26434e-07 6.39508e-08 0.0128327)
(4.43501e-07 6.49775e-08 0.0128921)
(-0.00295835 6.04296e-05 0.0199987)
(-0.000319396 0.00064116 0.00986585)
(-0.000567882 0.00134095 0.0199283)
(0.000502392 0.000433683 0.00771363)
(-0.00181029 -0.00135325 0.0191813)
(9.9323e-05 0.000286707 0.0271678)
(-0.000130985 0.00104828 0.0171379)
(-9.04573e-05 0.00111623 0.014977)
(-0.00070063 2.71733e-05 0.0176373)
(-4.07736e-05 -0.00159054 0.0184316)
(0.000271264 -0.00104207 0.0181352)
(-0.000253574 -0.00267773 0.0257973)
(-0.0010859 -0.00088683 0.0212894)
(-0.000340395 -0.000485361 0.0162376)
(-0.000614146 -0.000239845 0.0205548)
(8.46623e-05 -0.000355876 0.00348824)
(-0.000486355 0.000518953 0.0333085)
(-0.000857058 0.000718411 0.0368607)
(0.000377151 0.000537869 0.0149408)
(-0.00407121 -0.00144629 0.0400891)
(0.000564267 0.000872011 0.00799614)
(0.000135519 -0.000192586 0.0207254)
(-0.000328266 0.000637353 0.0347462)
(-0.00345507 -0.00450107 0.0400305)
(0.000491232 -0.000340545 0.0184406)
(-0.00222973 0.00093798 0.0278863)
(-0.0030387 -0.000347312 0.0337247)
(-0.00145402 0.000627962 0.0162415)
(-0.000362391 -0.00676539 0.0380846)
(-0.000504814 -0.000561678 0.0181296)
(0.000447827 -0.000897911 0.0189174)
(-0.00267573 0.00133616 0.0377615)
(0.000152554 -0.000387454 0.0260527)
(0.000213717 0.000868815 0.0162857)
(0.000548749 -0.00185224 0.0282263)
(-0.00304585 -0.00214196 0.0309785)
(0.000758681 -0.000319362 0.0230123)
(-0.00153513 0.000689824 0.0491883)
(-0.00168187 -0.0014498 0.0343507)
(-0.00132087 -0.000756055 0.0293203)