/*--------------------------------*- C++ -*----------------------------------*\
| =========                 |                                                 |
| \\      /  F ield         | OpenFOAM: The Open Source CFD Toolbox           |
|  \\    /   O peration     | Version:  2506                                  |
|   \\  /    A nd           | Website:  www.openfoam.com                      |
|    \\/     M anipulation  |                                                 |
\*---------------------------------------------------------------------------*/
FoamFile
{
    version     2.0;
    format      ascii;
    arch        "LSB;label=32;scalar=64";
    class       volVectorField;
    location    "0.06";
    object      Us;
}
// * * * * * * * * * * * * * * * * * * * * * * * * * * * * * * * * * * * * * //

dimensions      [0 1 -1 0 0 0 0];

internalField   nonuniform List<vector> 
1152
(
(-0.000435747 -0.000406857 0.000123639)
(-6.41446e-05 -0.000123938 -6.09037e-05)
(9.84649e-05 0.000232427 1.34867e-05)
(0.00010222 0.000237536 -8.3723e-05)
(4.81259e-05 -0.000168994 0.000179962)
(-4.7353e-05 -0.000307728 -3.69328e-05)
(-8.96024e-05 0.000301922 4.49999e-05)
(-2.11357e-05 0.000552641 -2.40752e-05)
(0.000324509 -0.000164276 0.000164987)
(-0.000219965 1.15398e-05 -1.97245e-05)
(0.000115207 0.000159821 8.37796e-05)
(3.69092e-05 0.000628179 1.23795e-05)
(0.000409924 -1.2628e-05 -5.25996e-05)
(0.000341673 -0.000842716 -0.000407799)
(0.000593832 -0.000478726 0.000408018)
(0.000237791 0.00048227 -8.48749e-05)
(9.18866e-05 -0.000157604 0.000862223)
(0.000482817 -0.000276003 0.0011242)
(0.000305558 0.000342244 0.000493357)
(0.000140417 0.000598084 0.000145779)
(1.28682e-06 -0.00044905 0.000882446)
(0.000573648 -1.46932e-05 0.000952739)
(0.000455989 0.000470028 0.000548034)
(-0.000486952 0.000477345 0.000482792)
(8.18963e-05 -0.000193101 0.000948271)
(5.07393e-05 0.000195324 0.000774812)
(0.000889103 -4.18694e-06 0.000968126)
(4.38019e-05 0.000472675 0.00103823)
(-0.000164684 -6.23301e-05 0.000764884)
(-0.000428442 0.000281081 0.000558884)
(0.000240215 0.00020207 0.0010285)
(-0.000181266 4.7452e-05 0.00106794)
(-0.000179854 3.9522e-05 0.00184434)
(0.000474853 0.0005438 0.00115471)
(0.000365927 0.000217886 0.000990218)
(4.49565e-05 0.000285251 0.00102176)
(-3.5776e-07 -0.000257884 0.00122979)
(0.000535062 0.000218561 0.00128951)
(0.00102914 0.000579145 0.00181974)
(0.000219976 0.000424395 0.00122229)
(-5.60166e-05 -8.96295e-05 0.00118083)
(4.51881e-05 5.97085e-05 0.00168912)
(3.68103e-05 0.000132952 0.00129586)
(1.95305e-05 0.000303887 0.00146557)
(0.000380589 0.000391155 0.00198566)
(-5.593e-05 0.000201273 0.00398837)
(0.00011988 -0.000201089 0.00169699)
(-6.51861e-05 -0.000236871 0.00191855)
(-0.00025399 0.000585548 0.00117929)
(-0.000108685 0.000279149 0.00123034)
(-0.00013638 0.000269202 0.0026302)
(-8.48341e-05 0.00023398 0.00144603)
(-0.000162864 0.00030234 0.00153791)
(-0.000191089 0.00027392 0.00123367)
(-3.07263e-05 0.000620692 0.0017494)
(0.000471478 0.000176618 0.00234271)
(-0.000185214 0.000163153 0.00113768)
(-0.000130059 7.22408e-05 0.00118641)
(-2.33134e-05 0.000138342 0.00138784)
(1.8338e-05 0.000294257 0.00122426)
(-0.000444619 -0.000276488 0.00193084)
(0.000197411 -1.45928e-05 0.00166385)
(0.000181391 0.00011909 0.00162506)
(5.39082e-05 0.000185043 0.00149849)
(-0.000177123 0.000336497 0.00113445)
(-3.16231e-05 0.000121805 0.0012003)
(-3.96736e-05 -0.000256261 0.00118763)
(0.000226423 4.82234e-05 0.00145949)
(-0.0004251 0.00040258 0.0014105)
(-8.85304e-05 0.000118829 0.00132635)
(-0.000231798 -0.000426078 0.00221888)
(8.93534e-05 0.000114196 0.00139992)
(-0.000325006 0.000455283 0.00184839)
(-0.00128716 -1.55562e-05 0.0025501)
(-0.00040267 1.83679e-05 0.00172389)
(0.000127531 1.64325e-05 0.00126095)
(-0.000322128 -2.43268e-05 0.00174807)
(7.9653e-06 8.4211e-05 0.00158155)
(-0.000206149 -2.77565e-05 0.00135391)
(-0.000129728 2.82088e-05 0.00122566)
(-0.000212333 1.47515e-05 0.00104566)
(7.02011e-05 6.94681e-05 0.00129709)
(-2.74193e-05 -3.15611e-05 0.00150137)
(0.000138699 9.00032e-05 0.00133286)
(-0.000107922 -1.17151e-05 0.0013691)
(-3.88352e-05 -2.70912e-05 0.00125099)
(-0.000158973 0.000145276 0.00146234)
(-3.07287e-05 -3.83336e-05 0.00118069)
(0.000159995 1.01859e-05 0.00184925)
(-7.53044e-05 -1.86465e-05 0.00156201)
(-0.000167013 -3.39187e-06 0.00165136)
(-0.00028398 -5.06519e-05 0.0014725)
(-0.000130578 5.07411e-05 0.0016982)
(-0.000141765 4.23322e-05 0.00165892)
(-0.000104922 2.19976e-05 0.00152648)
(-0.000164491 -3.6615e-05 0.00147269)
(4.76878e-06 -0.000160492 0.00106029)
(7.38484e-05 -4.73517e-05 0.00130034)
(-0.000150296 -0.00022487 0.00139322)
(1.41715e-05 -0.00043619 0.00104332)
(-0.000420187 -0.000351769 0.00121295)
(-8.292e-05 -5.57894e-05 0.0012293)
(7.42395e-05 -0.000117433 0.00153392)
(-0.000134672 -0.0002447 0.00120649)
(3.76369e-05 -0.000165201 0.00166526)
(-0.000136262 -0.000290647 0.00134772)
(0.000223707 -0.000143544 0.0017005)
(8.94406e-05 -0.000224799 0.0014495)
(0.000165335 0.000180098 0.00166214)
(5.39199e-05 2.22142e-05 0.00151467)
(8.87913e-05 2.75598e-05 0.00150318)
(0.000535867 0.000237726 0.000996141)
(0 0 0)
(0 0 0)
(0 0 0)
(0 0 0)
(0 0 0)
(0 0 0)
(0 0 0)
(0 0 0)
(0 0 0)
(0 0 0)
(0 0 0)
(0 0 0)
(0 0 0)
(0 0 0)
(0 0 0)
(0 0 0)
(0 0 0)
(0 0 0)
(0 0 0)
(0 0 0)
(0 0 0)
(0 0 0)
(0 0 0)
(0 0 0)
(0 0 0)
(0 0 0)
(0 0 0)
(0 0 0)
(0 0 0)
(0 0 0)
(0 0 0)
(0 0 0)
(0 0 0)
(0 0 0)
(0 0 0)
(0 0 0)
(0 0 0)
(0 0 0)
(0 0 0)
(0 0 0)
(0 0 0)
(0 0 0)
(0 0 0)
(0 0 0)
(0 0 0)
(0 0 0)
(0 0 0)
(0 0 0)
(0 0 0)
(0 0 0)
(0 0 0)
(0 0 0)
(0 0 0)
(0 0 0)
(0 0 0)
(0 0 0)
(0 0 0)
(0 0 0)
(0 0 0)
(0 0 0)
(0 0 0)
(0 0 0)
(0 0 0)
(0 0 0)
(0 0 0)
(0 0 0)
(0 0 0)
(0 0 0)
(0 0 0)
(0 0 0)
(0 0 0)
(0 0 0)
(0 0 0)
(0 0 0)
(0 0 0)
(0 0 0)
(0 0 0)
(0 0 0)
(0 0 0)
(0 0 0)
(0 0 0)
(0 0 0)
(0 0 0)
(0 0 0)
(0 0 0)
(0 0 0)
(0 0 0)
(0 0 0)
(0 0 0)
(0 0 0)
(0 0 0)
(0 0 0)
(0 0 0)
(0 0 0)
(0 0 0)
(0 0 0)
(0 0 0)
(0 0 0)
(0 0 0)
(0 0 0)
(0 0 0)
(0 0 0)
(0 0 0)
(0 0 0)
(0 0 0)
(0 0 0)
(0 0 0)
(0 0 0)
(0 0 0)
(0 0 0)
(0 0 0)
(0 0 0)
(0 0 0)
(0 0 0)
(0 0 0)
(0 0 0)
(0 0 0)
(0 0 0)
(0 0 0)
(0 0 0)
(0 0 0)
(0 0 0)
(0 0 0)
(0 0 0)
(0 0 0)
(0 0 0)
(0 0 0)
(0 0 0)
(0 0 0)
(0 0 0)
(0 0 0)
(0 0 0)
(0 0 0)
(0 0 0)
(0 0 0)
(0 0 0)
(0 0 0)
(0 0 0)
(0 0 0)
(0 0 0)
(0 0 0)
(0 0 0)
(0 0 0)
(0 0 0)
(0 0 0)
(0 0 0)
(0 0 0)
(0 0 0)
(0 0 0)
(0 0 0)
(0 0 0)
(0 0 0)
(0 0 0)
(0 0 0)
(0 0 0)
(0 0 0)
(0 0 0)
(0 0 0)
(0 0 0)
(0 0 0)
(0 0 0)
(0 0 0)
(0 0 0)
(0 0 0)
(0 0 0)
(0 0 0)
(0 0 0)
(0 0 0)
(0 0 0)
(0 0 0)
(0 0 0)
(0 0 0)
(0 0 0)
(0 0 0)
(0 0 0)
(0 0 0)
(0 0 0)
(0 0 0)
(0 0 0)
(0 0 0)
(0 0 0)
(0 0 0)
(0 0 0)
(0 0 0)
(0 0 0)
(0 0 0)
(0 0 0)
(0 0 0)
(0 0 0)
(0 0 0)
(0 0 0)
(0 0 0)
(0 0 0)
(0 0 0)
(0 0 0)
(0 0 0)
(0 0 0)
(0 0 0)
(0 0 0)
(0 0 0)
(0 0 0)
(0 0 0)
(0 0 0)
(0 0 0)
(0 0 0)
(0 0 0)
(0 0 0)
(0 0 0)
(0 0 0)
(0 0 0)
(0 0 0)
(0 0 0)
(0 0 0)
(0 0 0)
(0 0 0)
(0 0 0)
(0 0 0)
(0 0 0)
(0 0 0)
(0 0 0)
(0 0 0)
(0 0 0)
(0 0 0)
(0 0 0)
(0 0 0)
(0 0 0)
(0 0 0)
(0 0 0)
(0 0 0)
(0 0 0)
(0 0 0)
(0 0 0)
(0 0 0)
(0 0 0)
(0 0 0)
(0 0 0)
(0 0 0)
(0 0 0)
(0 0 0)
(0 0 0)
(0 0 0)
(0 0 0)
(0 0 0)
(0 0 0)
(0 0 0)
(0 0 0)
(0 0 0)
(0 0 0)
(0 0 0)
(0 0 0)
(0 0 0)
(0 0 0)
(0 0 0)
(0 0 0)
(0 0 0)
(0 0 0)
(0 0 0)
(0 0 0)
(0 0 0)
(0 0 0)
(0 0 0)
(0 0 0)
(0 0 0)
(0 0 0)
(0 0 0)
(0 0 0)
(0 0 0)
(0 0 0)
(0 0 0)
(0 0 0)
(0 0 0)
(0 0 0)
(-0.000114841 -5.01477e-05 0.000171149)
(1.6972e-06 -3.64927e-05 0.000125792)
(0.000142315 7.59952e-05 0.00013317)
(-2.06868e-05 0.000258145 0.000125273)
(0.000173065 -2.00771e-05 0.00026853)
(0.000165248 -8.81645e-05 0.00020929)
(4.33989e-05 -8.3194e-05 0.000140874)
(5.42636e-05 -0.000235322 0.000189187)
(5.76729e-05 7.17939e-05 1.25828e-05)
(0.000145751 1.89567e-05 9.29378e-05)
(0.000137238 9.37528e-05 -7.61403e-05)
(0.000174377 -7.65982e-05 -4.0828e-05)
(-3.89076e-05 -5.69219e-05 8.38817e-05)
(1.24773e-05 -4.95745e-05 -2.41522e-05)
(0.000213379 -0.000291511 0.000183636)
(0.000447609 -2.28742e-05 4.39867e-05)
(-0.000516057 0.000327468 0.00202322)
(-0.000177659 -0.000126639 0.000858036)
(-0.00020295 -0.000396804 0.00067106)
(-0.000481877 -0.000395784 0.000485246)
(-0.000179977 -2.63396e-05 0.00104514)
(-0.000275067 -0.000130123 0.00105784)
(-3.99061e-05 -0.000219475 0.00105868)
(-0.000403767 -0.00038813 0.002045)
(-0.000241675 -0.000363842 0.00185437)
(-0.000173662 -2.66063e-05 0.000255048)
(0.00016728 -0.000356561 0.00058475)
(-0.000105377 -0.000371682 0.000871142)
(6.98074e-05 -0.000167289 0.00106203)
(-0.000451101 0.000965899 0.000472181)
(-0.000331846 0.00049253 0.000644344)
(-0.000131138 -0.000117081 0.000846687)
(0.000197723 -0.000378946 0.00104241)
(0.00030197 3.1103e-05 0.000424635)
(6.43115e-05 -0.000500474 0.00140874)
(-4.53285e-05 -0.000637206 0.00163636)
(-0.000449972 -0.000270283 0.00111853)
(-0.000675133 -0.000289346 0.000618359)
(0.000161716 -0.000266494 0.00203315)
(0.000386357 -0.000442395 0.00189261)
(-0.000233055 -2.72613e-06 0.00194969)
(-0.000197981 1.72609e-05 0.000702645)
(-0.000499062 2.95786e-05 0.00119498)
(-0.000676275 -0.000383737 0.000938335)
(-3.12605e-05 0.000346137 0.00228144)
(0.000208393 2.00574e-05 0.00114668)
(-0.00040099 0.000325547 0.0010319)
(-0.000479613 0.000253308 0.00166119)
(-0.000479591 0.000590596 0.00188249)
(-0.000397443 0.000369093 0.000686719)
(-0.000357809 -0.000370886 0.00135074)
(-0.000218846 -9.20997e-05 0.000904538)
(-3.46126e-05 0.000368481 0.000451823)
(0.000158427 0.00025472 0.00117519)
(-1.89958e-05 0.000531909 0.000697797)
(-0.000263946 0.000315017 0.0012816)
(-0.000157117 0.000934263 0.00212954)
(0.00060086 -5.72267e-05 0.00169582)
(0.00035788 0.0004497 0.00189209)
(0.000237897 -4.78066e-05 0.00139194)
(-0.000259412 -0.00069472 0.00136194)
(-0.000354874 -0.000124635 0.00169197)
(-6.81215e-05 -0.000159162 0.0027555)
(0.000147925 -0.000283269 0.00182986)
(-0.000846773 0.00109224 0.00135208)
(-0.000120419 0.000258263 0.000552242)
(0.000175539 0.000238719 0.000586397)
(-1.68418e-05 6.44481e-05 0.000949618)
(-5.8184e-05 6.40237e-05 0.000723458)
(6.36134e-05 -0.000277582 0.0015649)
(9.75935e-05 0.000200941 0.0010863)
(0.000399769 8.61269e-05 0.0020422)
(-0.000552895 -0.0002563 0.00172301)
(-8.53479e-05 0.000104797 0.00140326)
(-2.18049e-05 1.44608e-06 0.00203326)
(2.69858e-05 -1.01139e-05 0.00201279)
(0.000223741 -0.000339885 0.000953872)
(4.02493e-05 0.000198964 0.00112886)
(1.6589e-05 1.65301e-05 0.00186532)
(-0.000222413 0.000362498 0.00205102)
(0.000100849 -3.41415e-05 0.000147355)
(0.000334621 2.43723e-05 0.000316499)
(0.000101762 -2.74086e-05 0.0004719)
(-0.000127317 -6.25407e-05 0.000895377)
(0.000197729 -0.000157133 0.000512885)
(0.00027278 -5.70048e-05 0.000954116)
(0.000154597 -2.84661e-05 0.00120907)
(-8.32705e-06 -8.12483e-05 0.00125984)
(0.000320297 -0.000211869 0.000633962)
(0.00031222 2.44596e-05 0.00121037)
(0.000379417 0.000195014 0.00161147)
(0.000192689 0.00013277 0.00187747)
(0.000110034 -0.000531187 0.000722053)
(7.04545e-05 -0.000164401 0.00128936)
(0.000152616 -0.000154795 0.00161055)
(-0.000204467 -8.51816e-05 0.00180412)
(1.32427e-05 -0.000593392 0.000118275)
(-0.000194164 -0.000360121 0.000548789)
(-0.000224066 -0.000262341 0.000919019)
(-0.000108775 -0.000479241 0.000984247)
(0.000102776 -2.94384e-05 0.000384483)
(4.20839e-05 -7.53732e-05 0.00084477)
(-5.05592e-05 -0.000339334 0.00122124)
(-0.000385133 -0.000491126 0.00149315)
(-8.64049e-05 -9.25062e-05 0.000447542)
(-0.000405956 -0.00116857 0.000823331)
(-0.00014175 -0.000148348 0.00179616)
(-3.82898e-05 -9.40884e-05 0.00165578)
(0.000227684 -0.000384178 0.000703381)
(6.69669e-05 -0.00107257 0.00102037)
(-0.000639001 -0.000119111 0.00166336)
(4.03232e-05 0.000388415 0.00175979)
(0 0 0)
(0 0 0)
(0 0 0)
(0 0 0)
(0 0 0)
(0 0 0)
(0 0 0)
(0 0 0)
(0 0 0)
(0 0 0)
(0 0 0)
(0 0 0)
(0 0 0)
(0 0 0)
(0 0 0)
(0 0 0)
(0 0 0)
(0 0 0)
(0 0 0)
(0 0 0)
(0 0 0)
(0 0 0)
(0 0 0)
(0 0 0)
(0 0 0)
(0 0 0)
(0 0 0)
(0 0 0)
(0 0 0)
(0 0 0)
(0 0 0)
(0 0 0)
(0 0 0)
(0 0 0)
(0 0 0)
(0 0 0)
(0 0 0)
(0 0 0)
(0 0 0)
(0 0 0)
(0 0 0)
(0 0 0)
(0 0 0)
(0 0 0)
(0 0 0)
(0 0 0)
(0 0 0)
(0 0 0)
(0 0 0)
(0 0 0)
(0 0 0)
(0 0 0)
(0 0 0)
(0 0 0)
(0 0 0)
(0 0 0)
(0 0 0)
(0 0 0)
(0 0 0)
(0 0 0)
(0 0 0)
(0 0 0)
(0 0 0)
(0 0 0)
(0 0 0)
(0 0 0)
(0 0 0)
(0 0 0)
(0 0 0)
(0 0 0)
(0 0 0)
(0 0 0)
(0 0 0)
(0 0 0)
(0 0 0)
(0 0 0)
(0 0 0)
(0 0 0)
(0 0 0)
(0 0 0)
(0 0 0)
(0 0 0)
(0 0 0)
(0 0 0)
(0 0 0)
(0 0 0)
(0 0 0)
(0 0 0)
(0 0 0)
(0 0 0)
(0 0 0)
(0 0 0)
(0 0 0)
(0 0 0)
(0 0 0)
(0 0 0)
(0 0 0)
(0 0 0)
(0 0 0)
(0 0 0)
(0 0 0)
(0 0 0)
(0 0 0)
(0 0 0)
(0 0 0)
(0 0 0)
(0 0 0)
(0 0 0)
(0 0 0)
(0 0 0)
(0 0 0)
(0 0 0)
(0 0 0)
(0 0 0)
(0 0 0)
(0 0 0)
(0 0 0)
(0 0 0)
(0 0 0)
(0 0 0)
(0 0 0)
(0 0 0)
(0 0 0)
(0 0 0)
(0 0 0)
(0 0 0)
(0 0 0)
(0 0 0)
(0 0 0)
(0 0 0)
(0 0 0)
(0 0 0)
(0 0 0)
(0 0 0)
(0 0 0)
(0 0 0)
(0 0 0)
(0 0 0)
(0 0 0)
(0 0 0)
(0 0 0)
(0 0 0)
(0 0 0)
(0 0 0)
(0 0 0)
(0 0 0)
(0 0 0)
(0 0 0)
(0 0 0)
(0 0 0)
(0 0 0)
(0 0 0)
(0 0 0)
(0 0 0)
(0 0 0)
(0 0 0)
(0 0 0)
(0 0 0)
(0 0 0)
(0 0 0)
(0 0 0)
(0 0 0)
(0 0 0)
(0 0 0)
(0 0 0)
(0 0 0)
(0 0 0)
(0 0 0)
(0 0 0)
(0 0 0)
(0 0 0)
(0 0 0)
(0 0 0)
(0 0 0)
(0 0 0)
(0 0 0)
(0 0 0)
(0 0 0)
(0 0 0)
(0 0 0)
(0 0 0)
(0 0 0)
(0 0 0)
(0 0 0)
(0 0 0)
(0 0 0)
(0 0 0)
(0 0 0)
(0 0 0)
(0 0 0)
(0 0 0)
(0 0 0)
(0 0 0)
(0 0 0)
(0 0 0)
(0 0 0)
(0 0 0)
(0 0 0)
(0 0 0)
(0 0 0)
(0 0 0)
(0 0 0)
(0 0 0)
(0 0 0)
(0 0 0)
(0 0 0)
(0 0 0)
(0 0 0)
(0 0 0)
(0 0 0)
(0 0 0)
(0 0 0)
(0 0 0)
(0 0 0)
(0 0 0)
(0 0 0)
(0 0 0)
(0 0 0)
(0 0 0)
(0 0 0)
(0 0 0)
(0 0 0)
(0 0 0)
(0 0 0)
(0 0 0)
(0 0 0)
(0 0 0)
(0 0 0)
(0 0 0)
(0 0 0)
(0 0 0)
(0 0 0)
(0 0 0)
(0 0 0)
(0 0 0)
(0 0 0)
(0 0 0)
(0 0 0)
(0 0 0)
(0 0 0)
(0 0 0)
(0 0 0)
(0 0 0)
(0 0 0)
(0 0 0)
(0 0 0)
(0 0 0)
(0 0 0)
(0 0 0)
(0 0 0)
(0 0 0)
(0 0 0)
(0 0 0)
(0 0 0)
(0 0 0)
(0 0 0)
(0 0 0)
(0 0 0)
(0 0 0)
(0 0 0)
(0 0 0)
(0 0 0)
(0 0 0)
(0 0 0)
(0 0 0)
(0 0 0)
(0 0 0)
(0 0 0)
(0 0 0)
(0 0 0)
(0 0 0)
(0 0 0)
(-0.000151866 8.34733e-05 -3.84212e-05)
(0.000239442 3.68463e-05 -0.000169714)
(0.00012258 0.000140643 -0.000122205)
(0.000203887 -1.37009e-05 9.30346e-05)
(5.59262e-05 -6.46408e-05 2.3101e-06)
(0.000327561 0.000371111 -6.81322e-05)
(9.02962e-05 0.000174947 4.09763e-05)
(0.000149769 0.000150544 0.000176893)
(2.97114e-05 0.000136916 -3.50026e-05)
(0.000310613 0.000184878 2.87646e-05)
(0.000436302 -6.16487e-05 0.00029328)
(-2.9672e-05 -7.36291e-05 -8.23607e-05)
(-1.37639e-05 4.66827e-05 0.000140971)
(0.000304478 -0.000231593 -1.2537e-05)
(0.00033277 0.000245969 0.000221735)
(-3.3004e-05 0.000168075 -5.26615e-05)
(-9.19246e-05 0.000185893 0.000394477)
(-0.000131054 0.000516455 0.00155505)
(6.69177e-05 8.29151e-05 0.000527957)
(-0.000420707 0.000107635 0.00169404)
(0.000167689 7.57783e-05 0.000529329)
(0.00017592 7.63766e-05 0.000400979)
(1.15478e-05 -0.000186267 0.000971511)
(-0.00075282 -9.56322e-05 0.0020786)
(-5.46928e-05 -0.000109069 0.00104814)
(-0.000229068 0.000201494 0.000600305)
(-0.0003158 3.65667e-05 0.000474673)
(-0.000438642 0.00019019 0.000391683)
(-0.000110927 7.10683e-05 0.000966261)
(2.69993e-05 0.000238026 0.000543382)
(0.000219088 8.90415e-05 0.000532244)
(0.000195483 0.000212043 0.000755635)
(4.42094e-05 -0.000124906 0.000806418)
(-7.00815e-05 0.000292496 0.00201014)
(5.84907e-05 -9.74708e-05 0.00133121)
(-0.000411299 -0.000255036 0.0016889)
(0.000241994 0.000339167 0.00211115)
(0.000456097 0.000253769 0.00192856)
(-1.85919e-05 0.0006604 0.00278104)
(-0.000424211 0.00021027 0.00177966)
(0.000406087 0.000249151 0.00218384)
(-3.96466e-05 -4.36403e-06 0.00114365)
(-0.000238345 0.000123963 0.00154718)
(-0.000198208 8.314e-05 0.000927963)
(-3.87476e-05 0.000373907 0.00118699)
(-0.000395301 0.000740183 0.00187699)
(-0.000158758 -0.000233028 0.00123699)
(-9.68129e-05 1.38759e-05 0.000901068)
(-7.69581e-05 -2.32427e-05 0.00083456)
(0.000508015 -0.000368539 0.00105683)
(0.00067453 0.00015525 0.00169992)
(0.000325116 -0.000580157 0.00281763)
(-0.000920133 -0.000642897 0.00332341)
(0.000115344 -6.66821e-05 0.00131821)
(0.000347341 0.000372865 0.0011135)
(-0.000150264 0.000484305 0.00229801)
(-5.69042e-05 -0.000355075 0.00340306)
(-0.000160912 1.41381e-05 0.00136879)
(2.7104e-05 0.000113783 0.00101454)
(0.000178403 -0.000598829 0.00248013)
(0.000488473 0.000222059 0.00139609)
(9.7165e-05 0.00036026 0.0017619)
(-0.000400861 0.000296275 0.00249934)
(0.000171924 -0.000267015 0.00220478)
(-0.000241719 1.78196e-05 0.00131357)
(0.000231798 -0.000193984 0.00073969)
(0.000367157 -0.000174687 0.000838386)
(0.000288464 -0.0001362 0.00205083)
(0.000122343 6.05578e-05 0.00190256)
(0.000158827 -0.000191765 0.00111639)
(0.000212476 0.000260374 0.00182871)
(0.000311027 0.000315622 0.00180344)
(5.47256e-05 0.000113117 0.00185282)
(-3.74742e-05 4.15487e-05 0.00154533)
(0.000131897 0.000209496 0.00150182)
(0.000164165 -1.71448e-06 0.00177207)
(0.000274275 -0.000247966 0.00140503)
(-7.40645e-05 3.68796e-05 0.00156774)
(-0.00022716 0.000306818 0.00192296)
(-7.37528e-05 -0.000194091 0.00297944)
(9.47222e-05 9.2224e-05 0.0006493)
(0.000380498 -0.000227277 0.000446839)
(-0.000211579 0.000234535 0.000460069)
(-0.000159184 0.000474309 0.00109428)
(0.000495819 0.000203416 0.00143965)
(0.000267762 7.43125e-05 0.00112328)
(0.000477647 0.000447791 0.000864708)
(0.000241133 0.000151624 0.00118389)
(6.17905e-05 -0.000130465 0.00106956)
(0.000187068 7.51683e-06 0.0012873)
(0.000270848 0.000166154 0.00131261)
(0.000440854 -8.81029e-05 0.00172214)
(-0.000148289 -0.000147796 0.000970211)
(2.53325e-05 -2.86284e-05 0.0013484)
(3.37163e-05 0.000319811 0.00147833)
(0.000123761 9.83782e-05 0.00138259)
(-0.000358488 -7.54273e-05 0.0003201)
(-9.9808e-05 0.000341325 0.000392614)
(0.000154451 0.0001007 5.95866e-05)
(0.000296321 -0.000113877 0.000686951)
(5.36188e-05 8.98478e-05 0.000814278)
(-0.000150137 0.00127795 0.000401637)
(-9.99034e-05 0.00114678 0.000458334)
(0.000521125 0.000128583 0.000946369)
(0.00130261 0.00337538 0.000513197)
(0.00199157 0.0026665 0.000351129)
(0.000238324 0.000670834 0.00108537)
(0.000726978 -0.000167064 0.00155086)
(9.31219e-05 0.00127737 0.00167016)
(0.0011309 0.00341527 0.00124312)
(0.000110592 -0.000118295 0.0013668)
(0.000287414 -0.000360809 0.00125177)
(0 0 0)
(0 0 0)
(0 0 0)
(0 0 0)
(0 0 0)
(0 0 0)
(-0.000163522 0.00139483 -0.000882056)
(0 0 0)
(0 0 0)
(0 0 0)
(0 0 0)
(0 0 0)
(0 0 0)
(0 0 0)
(0 0 0)
(0 0 0)
(0 0 0)
(0 0 0)
(0 0 0)
(0 0 0)
(0 0 0)
(0 0 0)
(0 0 0)
(0 0 0)
(0 0 0)
(0 0 0)
(0 0 0)
(0 0 0)
(0 0 0)
(0 0 0)
(0 0 0)
(0 0 0)
(0 0 0)
(0 0 0)
(0 0 0)
(0 0 0)
(0 0 0)
(0 0 0)
(0 0 0)
(0 0 0)
(0 0 0)
(0 0 0)
(0 0 0)
(0 0 0)
(0 0 0)
(0 0 0)
(0 0 0)
(0 0 0)
(0 0 0)
(0 0 0)
(0 0 0)
(0 0 0)
(0 0 0)
(0 0 0)
(0 0 0)
(0 0 0)
(0 0 0)
(0 0 0)
(0 0 0)
(0 0 0)
(0 0 0)
(0 0 0)
(0 0 0)
(0 0 0)
(0 0 0)
(0 0 0)
(0 0 0)
(0 0 0)
(0 0 0)
(0 0 0)
(0 0 0)
(0 0 0)
(0 0 0)
(0 0 0)
(0 0 0)
(0 0 0)
(0 0 0)
(0 0 0)
(0 0 0)
(0 0 0)
(0 0 0)
(0 0 0)
(0 0 0)
(0 0 0)
(0 0 0)
(0 0 0)
(0 0 0)
(0 0 0)
(0 0 0)
(0 0 0)
(0 0 0)
(0 0 0)
(0 0 0)
(0 0 0)
(0 0 0)
(0 0 0)
(0 0 0)
(0 0 0)
(0 0 0)
(0 0 0)
(0 0 0)
(0 0 0)
(0 0 0)
(0 0 0)
(0 0 0)
(0 0 0)
(0 0 0)
(0 0 0)
(0 0 0)
(0 0 0)
(0 0 0)
(0 0 0)
(0 0 0)
(0 0 0)
(0 0 0)
(0 0 0)
(0 0 0)
(0 0 0)
(0 0 0)
(0 0 0)
(0 0 0)
(0 0 0)
(0 0 0)
(0 0 0)
(0 0 0)
(0 0 0)
(0 0 0)
(0 0 0)
(0 0 0)
(0 0 0)
(0 0 0)
(0 0 0)
(0 0 0)
(0 0 0)
(0 0 0)
(0 0 0)
(0 0 0)
(0 0 0)
(0 0 0)
(0 0 0)
(0 0 0)
(0 0 0)
(0 0 0)
(0 0 0)
(0 0 0)
(0 0 0)
(0 0 0)
(0 0 0)
(0 0 0)
(0 0 0)
(0 0 0)
(0 0 0)
(0 0 0)
(0 0 0)
(0 0 0)
(0 0 0)
(0 0 0)
(0 0 0)
(0 0 0)
(0 0 0)
(0 0 0)
(0 0 0)
(0 0 0)
(0 0 0)
(0 0 0)
(0 0 0)
(0 0 0)
(0 0 0)
(0 0 0)
(0 0 0)
(0 0 0)
(0 0 0)
(0 0 0)
(0 0 0)
(0 0 0)
(0 0 0)
(0 0 0)
(0 0 0)
(0 0 0)
(0 0 0)
(0 0 0)
(0 0 0)
(0 0 0)
(0 0 0)
(0 0 0)
(0 0 0)
(0 0 0)
(0 0 0)
(0 0 0)
(0 0 0)
(0 0 0)
(0 0 0)
(0 0 0)
(0 0 0)
(0 0 0)
(0 0 0)
(0 0 0)
(0 0 0)
(0 0 0)
(0 0 0)
(0 0 0)
(0 0 0)
(0 0 0)
(0 0 0)
(0 0 0)
(0 0 0)
(0 0 0)
(0 0 0)
(0 0 0)
(0 0 0)
(0 0 0)
(0 0 0)
(0 0 0)
(0 0 0)
(0 0 0)
(0 0 0)
(0 0 0)
(0 0 0)
(0 0 0)
(0 0 0)
(0 0 0)
(0 0 0)
(0 0 0)
(0 0 0)
(0 0 0)
(0 0 0)
(0 0 0)
(0 0 0)
(0 0 0)
(0 0 0)
(0 0 0)
(0 0 0)
(0 0 0)
(0 0 0)
(0 0 0)
(0 0 0)
(0 0 0)
(0 0 0)
(0 0 0)
(0 0 0)
(0 0 0)
(0 0 0)
(0 0 0)
(0 0 0)
(0 0 0)
(0 0 0)
(0 0 0)
(0 0 0)
(0 0 0)
(0 0 0)
(0 0 0)
(0 0 0)
(0 0 0)
(0 0 0)
(0 0 0)
(0 0 0)
(0 0 0)
(0 0 0)
(0 0 0)
(0 0 0)
(0 0 0)
(0 0 0)
(0 0 0)
(0 0 0)
(0 0 0)
(0 0 0)
(0 0 0)
(0 0 0)
(0 0 0)
(0 0 0)
(0 0 0)
(0 0 0)
)
;

boundaryField
{
    inlet
    {
        type            zeroGradient;
    }
    outlet
    {
        type            zeroGradient;
    }
    wall
    {
        type            zeroGradient;
    }
    procBoundary0to1
    {
        type            processor;
        value           nonuniform List<vector> 
192
(
(-8.48667e-05 0.000313485 -4.11092e-05)
(-0.000183578 0.000435249 0.000239136)
(-0.000133944 0.000238368 0.000154285)
(0.000286217 0.000340432 -0.00021332)
(-0.000310296 0.000126117 0.000450959)
(-0.000365334 0.00104794 0.00117634)
(-0.000465923 0.000611057 0.00144216)
(-0.000283973 0.00020621 0.00116239)
(-0.000213734 0.000307617 0.00146807)
(-0.000295402 0.000288637 0.00148007)
(-0.000139337 0.000435941 0.00140165)
(-7.87781e-05 -0.000183024 0.00151544)
(-0.000117862 0.000201253 0.00138251)
(-6.68549e-05 0.000309517 0.00113239)
(-0.000148631 0.000147947 0.00114297)
(-1.15402e-05 0.000131101 0.00120083)
(0.000342838 -4.11134e-05 0.00126788)
(0.000128263 -1.06211e-05 0.000876601)
(7.16586e-05 -0.001058 0.00301715)
(1.2662e-05 -4.67405e-05 0.00110347)
(0.000214848 -0.00037138 0.00117179)
(-1.92419e-05 -0.00048755 0.000946242)
(1.95006e-05 -0.000770448 0.0013031)
(0.000197687 -0.000347133 0.00119766)
(0.000167161 -8.97528e-05 0.000981454)
(-0.000171823 -3.31123e-05 0.00114925)
(0.000207367 -0.000124462 0.00126713)
(0.000306523 -1.72191e-05 0.00115815)
(0 0 0)
(0 0 0)
(0 0 0)
(0.00105212 -0.000210779 0.000749983)
(0 0 0)
(0 0 0)
(0 0 0)
(0 0 0)
(0 0 0)
(0 0 0)
(0 0 0)
(0 0 0)
(0 0 0)
(0 0 0)
(0 0 0)
(0 0 0)
(0 0 0)
(0 0 0)
(0 0 0)
(0 0 0)
(0 0 0)
(0 0 0)
(0 0 0)
(0 0 0)
(0 0 0)
(0 0 0)
(0 0 0)
(0 0 0)
(0 0 0)
(0 0 0)
(0 0 0)
(0 0 0)
(0 0 0)
(0 0 0)
(0 0 0)
(0 0 0)
(0 0 0)
(0 0 0)
(0 0 0)
(0 0 0)
(0 0 0)
(0 0 0)
(0 0 0)
(0 0 0)
(0 0 0)
(0 0 0)
(0 0 0)
(0 0 0)
(0 0 0)
(0 0 0)
(0 0 0)
(0 0 0)
(0 0 0)
(0 0 0)
(0 0 0)
(0 0 0)
(0 0 0)
(0 0 0)
(0 0 0)
(0 0 0)
(0 0 0)
(0 0 0)
(0 0 0)
(0 0 0)
(0 0 0)
(0 0 0)
(0 0 0)
(0 0 0)
(2.07148e-06 6.99316e-05 8.51207e-05)
(0.000127124 0.000345805 9.47301e-05)
(-5.82711e-05 0.000702458 0.000115101)
(0.000155883 0.000651562 -4.91464e-05)
(-0.00037882 0.000895605 0.000304779)
(-0.00087498 0.00142584 0.00113315)
(-0.000397213 0.00174965 0.00128479)
(-0.000912674 -2.32639e-05 0.001016)
(-0.000325816 0.000358429 0.00169244)
(0.000398676 0.000314791 0.00170951)
(-2.74125e-05 0.000253093 0.000254767)
(-0.000106713 0.000363776 0.000541761)
(-0.000351097 -0.000114174 0.000583068)
(-0.000301451 -0.000199239 0.000542329)
(2.38668e-05 -0.000167054 0.00062151)
(0.000300009 -0.000903039 0.00215538)
(-0.000155231 -0.000234012 0.000389202)
(-0.000127816 -0.00010091 0.000540893)
(0.000238692 -0.000135784 0.000928731)
(0.000505849 -0.000340278 0.00229225)
(-0.000179009 -0.000116188 0.000242988)
(0.000164651 -0.000207291 0.000654961)
(0.000507201 -0.000233226 0.000862075)
(6.88552e-05 -0.000392236 0.00145561)
(0.000390934 -0.000116238 7.69576e-05)
(-0.000231734 -0.000211963 0.000248565)
(0.000445576 -0.000386846 0.00083409)
(-0.000470052 -0.000935909 0.000942974)
(0 0 0)
(0 0 0)
(0 0 0)
(0 0 0)
(0 0 0)
(0 0 0)
(0 0 0)
(0 0 0)
(0 0 0)
(0 0 0)
(0 0 0)
(0 0 0)
(0 0 0)
(0 0 0)
(0 0 0)
(0 0 0)
(0 0 0)
(0 0 0)
(0 0 0)
(0 0 0)
(0 0 0)
(0 0 0)
(0 0 0)
(0 0 0)
(0 0 0)
(0 0 0)
(0 0 0)
(0 0 0)
(0 0 0)
(0 0 0)
(0 0 0)
(0 0 0)
(0 0 0)
(0 0 0)
(0 0 0)
(0 0 0)
(0 0 0)
(0 0 0)
(0 0 0)
(0 0 0)
(0 0 0)
(0 0 0)
(0 0 0)
(0 0 0)
(0 0 0)
(0 0 0)
(0 0 0)
(0 0 0)
(0 0 0)
(0 0 0)
(0 0 0)
(0 0 0)
(0 0 0)
(0 0 0)
(0 0 0)
(0 0 0)
(0 0 0)
(0 0 0)
(0 0 0)
(0 0 0)
(0 0 0)
(0 0 0)
(0 0 0)
(0 0 0)
(0 0 0)
(0 0 0)
(0 0 0)
(0 0 0)
)
;
    }
    procBoundary0to2
    {
        type            processor;
        value           nonuniform List<vector> 
192
(
(0.000245164 0.000102903 0.000244809)
(7.64075e-05 -0.000216111 -5.74138e-05)
(8.04672e-05 -0.000213987 7.34509e-05)
(0.000391555 0.000227365 8.084e-05)
(0.000325202 -0.000367108 0.000751071)
(-8.31865e-05 4.54858e-05 0.000755573)
(0.000779921 -0.000118359 0.00135434)
(-0.000217032 -0.000350384 0.000840798)
(0.000594169 -0.000799215 0.00168632)
(0.0007189 -2.43523e-05 0.00131949)
(3.2562e-05 8.48045e-05 0.00146903)
(0.00041712 -0.00060034 0.0031985)
(-5.0321e-05 -0.000443616 0.00218453)
(2.95797e-05 5.19526e-05 0.00177104)
(4.82602e-06 0.00019765 0.00158)
(-0.000319295 -0.000115396 0.00190668)
(-1.14574e-05 -0.000115957 0.00138745)
(-4.12866e-05 0.000242154 0.0016303)
(-0.000121913 2.85538e-05 0.00137357)
(-7.91109e-05 -6.7018e-05 0.00136679)
(2.00711e-05 0.000160491 0.00151372)
(2.35151e-05 0.000139213 0.0013129)
(-6.48714e-05 3.69069e-05 0.0013721)
(3.84733e-05 -2.83205e-05 0.00129942)
(0.00026433 0.0003365 0.00149074)
(0.000242777 0.000319829 0.00135887)
(-3.8337e-05 0.000317822 0.00120894)
(0.000310314 0.000411802 0.00109668)
(0 0 0)
(0 0 0)
(0 0 0)
(0 0 0)
(0 0 0)
(0 0 0)
(0 0 0)
(0 0 0)
(0 0 0)
(0 0 0)
(0 0 0)
(0 0 0)
(0 0 0)
(0 0 0)
(0 0 0)
(0 0 0)
(0 0 0)
(0 0 0)
(0 0 0)
(0 0 0)
(0 0 0)
(0 0 0)
(0 0 0)
(0 0 0)
(0 0 0)
(0 0 0)
(0 0 0)
(0 0 0)
(0 0 0)
(0 0 0)
(0 0 0)
(0 0 0)
(0 0 0)
(0 0 0)
(0 0 0)
(0 0 0)
(0 0 0)
(0 0 0)
(0 0 0)
(0 0 0)
(0 0 0)
(0 0 0)
(0 0 0)
(0 0 0)
(0 0 0)
(0 0 0)
(0 0 0)
(0 0 0)
(0 0 0)
(0 0 0)
(0 0 0)
(0 0 0)
(0 0 0)
(0 0 0)
(0 0 0)
(0 0 0)
(0 0 0)
(0 0 0)
(0 0 0)
(0 0 0)
(0 0 0)
(0 0 0)
(0 0 0)
(0 0 0)
(0 0 0)
(0 0 0)
(0 0 0)
(0 0 0)
(0.000195897 0.000133898 0.000437626)
(0.000169638 0.000474685 4.90663e-05)
(0.000140707 -0.000123061 -2.72188e-05)
(0.000289801 4.8421e-05 -0.000198278)
(1.73535e-05 0.000109765 0.00101326)
(-8.18409e-05 0.000858193 0.00155014)
(-3.29976e-05 0.000305916 0.000593389)
(0.000292135 0.000108157 0.000301239)
(-0.000141988 0.000106161 0.00123038)
(0.000637269 0.000308641 0.00174337)
(0.000240456 -7.78577e-06 0.00104954)
(0.000191167 -0.000446292 0.00080201)
(0.000179999 -9.38049e-05 0.00117901)
(0.000552087 2.43918e-05 0.00149968)
(0.000344314 -0.000740407 0.00137473)
(-7.6693e-06 -0.000474796 0.00121563)
(0.000196043 6.3443e-05 0.00144649)
(0.00045068 0.000102812 0.00147326)
(9.12383e-05 -9.83867e-05 0.00132639)
(4.17876e-05 -4.31665e-05 0.00130083)
(-0.000278867 -0.000242621 0.000938945)
(-0.000203278 -7.12562e-05 0.00115307)
(-0.000144121 -9.80731e-05 0.00103673)
(-0.000110065 -0.000191227 0.00147471)
(-0.000407591 -0.000389545 0.000483628)
(7.81601e-05 -0.000264464 0.00115155)
(-0.00052807 2.81234e-06 0.000921224)
(-0.000264806 0.000346569 0.00103735)
(0 0 0)
(0 0 0)
(0 0 0)
(0 0 0)
(0 0 0)
(0 0 0)
(0 0 0)
(0 0 0)
(0 0 0)
(0 0 0)
(0 0 0)
(0 0 0)
(0 0 0)
(0 0 0)
(0 0 0)
(0 0 0)
(0 0 0)
(0 0 0)
(0 0 0)
(0 0 0)
(0 0 0)
(0 0 0)
(0 0 0)
(0 0 0)
(0 0 0)
(0 0 0)
(0 0 0)
(0 0 0)
(0 0 0)
(0 0 0)
(0 0 0)
(0 0 0)
(0 0 0)
(0 0 0)
(0 0 0)
(0 0 0)
(0 0 0)
(0 0 0)
(0 0 0)
(0 0 0)
(0 0 0)
(0 0 0)
(0 0 0)
(0 0 0)
(0 0 0)
(0 0 0)
(0 0 0)
(0 0 0)
(0 0 0)
(0 0 0)
(0 0 0)
(0 0 0)
(0 0 0)
(0 0 0)
(0 0 0)
(0 0 0)
(0 0 0)
(0 0 0)
(0 0 0)
(0 0 0)
(0 0 0)
(0 0 0)
(0 0 0)
(0 0 0)
(0 0 0)
(0 0 0)
(0 0 0)
(0 0 0)
)
;
    }
}


// ************************************************************************* //
