/*--------------------------------*- C++ -*----------------------------------*\
| =========                 |                                                 |
| \\      /  F ield         | OpenFOAM: The Open Source CFD Toolbox           |
|  \\    /   O peration     | Version:  2506                                  |
|   \\  /    A nd           | Website:  www.openfoam.com                      |
|    \\/     M anipulation  |                                                 |
\*---------------------------------------------------------------------------*/
FoamFile
{
    version     2.0;
    format      ascii;
    arch        "LSB;label=32;scalar=64";
    class       volScalarField;
    location    "0.06";
    object      voidfraction;
}
// * * * * * * * * * * * * * * * * * * * * * * * * * * * * * * * * * * * * * //

dimensions      [0 0 0 0 0 0 0];

internalField   nonuniform List<scalar> 
1152
(
0.41013
0.44173
0.460163
0.383796
0.42593
0.475963
0.378529
0.391696
0.44173
0.436463
0.46543
0.42593
0.41013
0.544431
0.47333
0.42593
0.399596
0.439097
0.475963
0.315329
0.404863
0.475963
0.373263
0.389063
0.40223
0.494397
0.439097
0.352196
0.436463
0.391696
0.415396
0.354829
0.362729
0.399596
0.336396
0.299529
0.349563
0.336396
0.452263
0.428563
0.389063
0.399596
0.370629
0.444363
0.381163
0.454897
0.354829
0.381163
0.41013
0.44173
0.349563
0.44963
0.475963
0.39433
0.420663
0.436463
0.354829
0.378529
0.389063
0.341663
0.381163
0.50493
0.41013
0.502297
0.362729
0.391696
0.365363
0.404863
0.399596
0.444363
0.43383
0.354829
0.420663
0.423296
0.38643
0.468063
0.436463
0.352196
0.336396
0.365363
0.378529
0.44173
0.444363
0.41803
0.431196
0.41803
0.39433
0.475963
0.41803
0.452263
0.362729
0.44963
0.44173
0.431196
0.41013
0.352196
0.731398
0.697165
0.668198
0.604998
0.770899
0.681365
0.594464
0.544431
0.739298
0.673465
0.623431
0.686631
0.747198
0.599731
0.557597
0.581297
1
1
1
1
1
1
1
1
1
1
1
1
1
1
1
1
1
1
1
1
1
1
1
1
1
1
1
1
1
1
1
1
1
1
1
1
1
1
1
1
1
1
1
1
1
1
1
1
1
1
1
1
1
1
1
1
1
1
1
1
1
1
1
1
1
1
1
1
1
1
1
1
1
1
1
1
1
1
1
1
1
1
1
1
1
1
1
1
1
1
1
1
1
1
1
1
1
1
1
1
1
1
1
1
1
1
1
1
1
1
1
1
1
1
1
1
1
1
1
1
1
1
1
1
1
1
1
1
1
1
1
1
1
1
1
1
1
1
1
1
1
1
1
1
1
1
1
1
1
1
1
1
1
1
1
1
1
1
1
1
1
1
1
1
1
1
1
1
1
1
1
1
1
1
1
1
1
1
1
1
1
1
1
1
1
1
1
1
1
1
1
1
1
1
1
1
1
1
1
1
1
1
1
1
1
1
1
1
1
1
1
1
1
1
1
1
1
1
1
1
1
1
1
1
1
1
1
1
1
1
1
1
1
1
1
1
1
1
1
1
1
1
1
1
1
1
1
1
1
1
1
1
1
1
1
1
1
1
1
1
1
1
1
1
1
1
1
1
1
1
1
1
0.482022
0.436882
0.463241
0.430467
0.384702
0.446992
0.440483
0.467211
0.445437
0.473537
0.420699
0.428845
0.416568
0.410519
0.471586
0.468757
0.490115
0.44307
0.390705
0.391038
0.382528
0.434812
0.396164
0.415858
0.432097
0.38685
0.380338
0.388241
0.386144
0.418432
0.420735
0.416134
0.479324
0.427599
0.387079
0.408562
0.462973
0.437248
0.407244
0.48005
0.416852
0.41645
0.420699
0.377414
0.389723
0.374913
0.341141
0.436181
0.433461
0.399753
0.401586
0.285893
0.347741
0.466482
0.398934
0.431906
0.422569
0.452394
0.420699
0.396362
0.455941
0.359088
0.369883
0.416134
0.473928
0.362624
0.423346
0.320941
0.399921
0.427503
0.396164
0.422277
0.45306
0.37205
0.437318
0.428845
0.411199
0.392716
0.422946
0.393581
0.409181
0.347154
0.423346
0.461134
0.421663
0.386088
0.412784
0.428697
0.403512
0.424908
0.361344
0.390948
0.436254
0.414476
0.445055
0.446204
0.673566
0.690594
0.786022
0.798473
0.623864
0.753948
0.819957
0.813845
0.763692
0.871027
0.783949
0.759086
0.668911
0.758669
0.843024
0.754425
1
1
1
1
1
1
1
1
1
1
1
1
1
1
1
1
1
1
1
1
1
1
1
1
1
1
1
1
1
1
1
1
1
1
1
1
1
1
1
1
1
1
1
1
1
1
1
1
1
1
1
1
1
1
1
1
1
1
1
1
1
1
1
1
1
1
1
1
1
1
1
1
1
1
1
1
1
1
1
1
1
1
1
1
1
1
1
1
1
1
1
1
1
1
1
1
1
1
1
1
1
1
1
1
1
1
1
1
1
1
1
1
1
1
1
1
1
1
1
1
1
1
1
1
1
1
1
1
1
1
1
1
1
1
1
1
1
1
1
1
1
1
1
1
1
1
1
1
1
1
1
1
1
1
1
1
1
1
1
1
1
1
1
1
1
1
1
1
1
1
1
1
1
1
1
1
1
1
1
1
1
1
1
1
1
1
1
1
1
1
1
1
1
1
1
1
1
1
1
1
1
1
1
1
1
1
1
1
1
1
1
1
1
1
1
1
1
1
1
1
1
1
1
1
1
1
1
1
1
1
1
1
1
1
1
1
1
1
1
1
1
1
1
1
1
1
1
1
1
1
1
1
1
1
1
1
1
1
1
1
1
1
1
1
1
1
1
1
1
1
1
1
0.479324
0.421663
0.468306
0.391513
0.421411
0.449429
0.429136
0.416454
0.416093
0.415554
0.430195
0.476008
0.434848
0.40623
0.426138
0.368523
0.444252
0.439057
0.388266
0.436254
0.365718
0.41045
0.452394
0.45206
0.394332
0.423863
0.453937
0.407469
0.439229
0.40302
0.41531
0.443699
0.406483
0.380354
0.407323
0.429096
0.396659
0.459173
0.427022
0.414476
0.510388
0.357386
0.413576
0.374305
0.382276
0.444744
0.426138
0.46124
0.455043
0.417315
0.414946
0.477417
0.365718
0.449429
0.397422
0.424366
0.390705
0.410014
0.392208
0.420735
0.421705
0.380553
0.40719
0.386064
0.463137
0.391225
0.405417
0.470258
0.384283
0.454301
0.414336
0.400629
0.419719
0.421093
0.401705
0.380938
0.3998
0.40623
0.409896
0.433675
0.428065
0.456451
0.428286
0.477417
0.430693
0.461609
0.399536
0.398651
0.397959
0.410014
0.356596
0.416313
0.303417
0.438325
0.442379
0.456228
0.568351
0.602122
0.63982
0.62059
0.637995
0.571236
0.589824
0.636025
0.698979
0.631605
0.696104
0.796594
0.710852
0.707929
0.683293
0.67925
1
1
1
1
1
1
0.997886
1
1
1
1
1
1
1
1
1
1
1
1
1
1
1
1
1
1
1
1
1
1
1
1
1
1
1
1
1
1
1
1
1
1
1
1
1
1
1
1
1
1
1
1
1
1
1
1
1
1
1
1
1
1
1
1
1
1
1
1
1
1
1
1
1
1
1
1
1
1
1
1
1
1
1
1
1
1
1
1
1
1
1
1
1
1
1
1
1
1
1
1
1
1
1
1
1
1
1
1
1
1
1
1
1
1
1
1
1
1
1
1
1
1
1
1
1
1
1
1
1
1
1
1
1
1
1
1
1
1
1
1
1
1
1
1
1
1
1
1
1
1
1
1
1
1
1
1
1
1
1
1
1
1
1
1
1
1
1
1
1
1
1
1
1
1
1
1
1
1
1
1
1
1
1
1
1
1
1
1
1
1
1
1
1
1
1
1
1
1
1
1
1
1
1
1
1
1
1
1
1
1
1
1
1
1
1
1
1
1
1
1
1
1
1
1
1
1
1
1
1
1
1
1
1
1
1
1
1
1
1
1
1
1
1
1
1
1
1
1
1
1
1
1
1
1
1
1
1
1
1
1
1
1
1
1
1
1
1
1
1
1
1
1
1
)
;

boundaryField
{
    inlet
    {
        type            fixedValue;
        value           uniform 1;
    }
    outlet
    {
        type            fixedValue;
        value           uniform 1;
    }
    wall
    {
        type            zeroGradient;
    }
    procBoundary0to1
    {
        type            processor;
        value           nonuniform List<scalar> 
192
(
0.544431
0.46543
0.452263
0.420663
0.404863
0.41013
0.439097
0.40223
0.491764
0.336396
0.375896
0.40223
0.357463
0.378529
0.44173
0.341663
0.43383
0.439097
0.39433
0.452263
0.362729
0.47333
0.381163
0.454897
0.707698
0.670831
0.628698
0.475963
1
1
1
0.997367
1
1
1
1
1
1
1
1
1
1
1
1
1
1
1
1
1
1
1
1
1
1
1
1
1
1
1
1
1
1
1
1
1
1
1
1
1
1
1
1
1
1
1
1
1
1
1
1
1
1
1
1
1
1
1
1
1
1
1
1
1
1
1
1
0.534686
0.442169
0.476008
0.483792
0.418358
0.416454
0.436211
0.433675
0.364668
0.390738
0.378727
0.320911
0.344981
0.343263
0.447266
0.366017
0.395092
0.414476
0.434
0.386064
0.35035
0.469863
0.391992
0.396087
0.692177
0.725041
0.770063
0.809554
1
1
1
1
1
1
1
1
1
1
1
1
1
1
1
1
1
1
1
1
1
1
1
1
1
1
1
1
1
1
1
1
1
1
1
1
1
1
1
1
1
1
1
1
1
1
1
1
1
1
1
1
1
1
1
1
1
1
1
1
1
1
1
1
1
1
1
1
)
;
    }
    procBoundary0to2
    {
        type            processor;
        value           nonuniform List<scalar> 
192
(
0.42593
0.381163
0.407496
0.357463
0.415396
0.378529
0.428563
0.317962
0.44173
0.360096
0.404863
0.478597
0.423296
0.370629
0.383796
0.446997
0.346929
0.404863
0.41013
0.436463
0.460163
0.396963
0.383796
0.325862
0.633964
0.604998
0.599731
0.594464
1
1
1
1
1
1
1
1
1
1
1
1
1
1
1
1
1
1
1
1
1
1
1
1
1
1
1
1
1
1
1
1
1
1
1
1
1
1
1
1
1
1
1
1
1
1
1
1
1
1
1
1
1
1
1
1
1
1
1
1
1
1
1
1
1
1
1
1
0.45773
0.459973
0.380938
0.458734
0.366457
0.416454
0.347774
0.358499
0.446992
0.505469
0.427367
0.451216
0.411199
0.459973
0.414102
0.428663
0.454151
0.396673
0.356617
0.423652
0.443413
0.493601
0.387571
0.441193
0.751236
0.855597
0.803227
0.794519
1
1
1
1
1
1
1
1
1
1
1
1
1
1
1
1
1
1
1
1
1
1
1
1
1
1
1
1
1
1
1
1
1
1
1
1
1
1
1
1
1
1
1
1
1
1
1
1
1
1
1
1
1
1
1
1
1
1
1
1
1
1
1
1
1
1
1
1
)
;
    }
}


// ************************************************************************* //
