/*--------------------------------*- C++ -*----------------------------------*\
| =========                 |                                                 |
| \\      /  F ield         | OpenFOAM: The Open Source CFD Toolbox           |
|  \\    /   O peration     | Version:  2506                                  |
|   \\  /    A nd           | Website:  www.openfoam.com                      |
|    \\/     M anipulation  |                                                 |
\*---------------------------------------------------------------------------*/
FoamFile
{
    version     2.0;
    format      ascii;
    arch        "LSB;label=32;scalar=64";
    class       volScalarField;
    location    "0.006";
    object      p;
}
// * * * * * * * * * * * * * * * * * * * * * * * * * * * * * * * * * * * * * //

dimensions      [0 2 -2 0 0 0 0];

internalField   nonuniform List<scalar> 
512
(
2.40478
2.58428
1.77387
2.01016
3.04139
3.01541
1.8822
0.423258
-1.43526
-2.50358
-1.75964
-0.611665
-0.380338
-0.158474
0.679614
1.27276
1.54228
1.43029
1.48214
2.12722
2.33539
1.36294
0.3353
0.480466
0.992392
0.983678
1.16514
2.07547
2.29598
1.85023
1.93352
2.14148
2.03683
2.40364
2.41795
2.64416
3.52709
3.36201
0.82869
-1.04953
-1.4043
-1.46876
-1.5176
-0.504331
0.19744
0.296224
0.897321
1.32385
1.46022
1.60495
1.81669
1.84086
1.60443
1.0717
0.746244
0.589217
0.709275
0.771012
1.27206
2.00612
1.94991
1.49215
1.41715
1.76365
1.94639
2.67085
3.24039
2.82143
2.84927
3.06083
1.74762
-0.311019
-1.53903
-1.77545
-1.31553
0.0547194
0.324869
-0.152376
0.286121
0.860792
1.07059
1.02831
1.29129
1.67029
1.9299
1.44127
0.466369
1.06986
2.09738
1.7949
1.26486
1.23959
1.40658
1.50788
1.50102
1.59583
1.77734
2.28448
2.23239
2.16501
2.6074
2.74252
1.70961
0.179928
-0.541693
-1.39354
-1.93337
-0.346886
0.655069
0.698966
0.453181
-0.0123375
0.0648352
1.42074
1.91875
1.53693
1.76009
1.29985
0.585568
1.30739
2.42007
2.10278
1.30827
1.47981
1.59919
1.57849
1.12487
0.929259
1.63573
1.78713
1.67351
2.49006
3.31491
2.66454
1.41821
0.63455
-0.201384
-1.263
-2.37496
-1.12707
0.667834
1.13458
0.639187
0.27948
0.729165
1.39851
1.27193
1.03748
1.17622
1.12625
0.844949
1.29701
1.73843
1.56987
1.54763
1.4462
1.3978
1.59753
1.43686
1.28039
1.53579
1.56773
1.87321
2.6576
3.06979
2.75294
1.94525
0.442502
-0.660152
-0.733247
-1.26815
-1.40329
-0.127447
0.784428
0.833966
0.652176
0.7834
1.23093
1.24212
1.27058
1.46158
1.37788
0.98704
0.879615
1.15668
1.60968
1.76762
1.84725
1.9572
1.51312
1.05614
1.08921
1.53352
1.83233
2.25165
2.46235
2.03128
1.87441
2.15302
0.961844
-0.377205
-0.278898
-0.494709
-0.68446
0.323588
0.890094
0.880836
-0.00057383
-0.435098
0.513927
1.24729
1.65006
2.07027
1.57468
0.983841
0.813699
0.909617
1.17381
1.7082
2.03251
2.0937
1.48018
1.27061
1.37238
1.63531
1.97003
2.45631
2.10895
1.32237
1.38902
1.30684
0.683507
0.282193
0.314982
-0.0549155
-0.46708
0.676821
1.82635
1.45725
0.19996
-0.961961
-0.110269
1.02495
1.47836
1.06339
0.843872
1.30296
1.39499
1.56433
1.97725
2.0899
1.7877
1.18245
1.20059
1.73177
1.74015
1.4521
3.18741
3.00255
2.21397
1.79063
1.7598
1.29548
0.339585
-0.930276
-1.81249
-1.26148
0.262782
0.799837
0.420877
0.499175
1.08544
1.6975
1.34388
0.348803
0.530475
1.32644
1.78789
1.34593
1.25334
1.95482
2.21671
1.77641
1.97158
2.10393
2.03138
1.90667
1.00482
1.96996
2.45552
2.36254
2.14537
2.47608
2.90853
1.79969
-0.0454528
-1.42982
-2.17734
-1.77956
-0.0431514
1.05364
0.800197
0.551468
0.998106
1.882
1.56416
0.487445
0.997461
1.58411
1.99231
1.67095
1.0458
0.936296
0.90312
1.4036
1.8231
1.989
1.92493
1.54006
1.46309
2.22727
2.94762
2.33678
2.2051
2.91671
2.85239
1.49358
-0.681164
-1.90144
-1.54833
-1.07933
-0.361374
0.489727
0.280012
-0.312802
0.318519
1.20646
1.31851
1.18878
1.18606
1.57558
1.65053
1.50615
1.86239
2.61052
2.72605
1.34331
0.45975
1.30669
2.23743
1.51118
1.01517
1.87364
1.80144
2.07186
2.44096
3.46704
2.76279
0.788616
0.343998
-0.118443
-1.10409
-1.42049
-0.555113
0.217447
0.701291
0.342271
-0.0370882
0.308328
1.04264
1.35303
1.37391
1.36933
1.25541
1.53904
2.23166
2.30501
1.60818
0.81616
1.06689
1.22825
1.23743
2.038
2.28426
2.10591
2.60872
2.13368
2.18657
2.51135
2.4932
1.43376
0.407655
-0.538881
-1.09522
-0.786393
-0.144179
0.683936
0.68927
0.233349
0.59628
0.776186
0.566119
0.740525
1.15777
1.25422
1.1329
1.27003
1.92929
1.40234
1.32944
1.69898
1.48219
1.12356
0.968591
1.24845
1.71225
1.71471
1.88457
2.71754
3.40333
3.9939
2.46132
-0.271628
-1.29008
-0.855123
-0.185056
-0.576587
-1.07714
-0.236804
0.633017
1.14807
1.47784
1.41438
1.02541
1.01572
1.15818
1.55758
1.26673
0.195577
0.260697
1.22696
1.82153
2.15453
1.9275
1.2413
1.03275
1.74756
1.89827
1.96547
2.77555
2.98492
3.11192
3.17369
2.00904
0.738884
-0.111834
-0.793352
-0.920639
-0.609692
-0.260522
0.0145623
0.579206
0.963846
1.10722
0.904509
0.461354
0.655739
1.26245
1.47778
1.44121
1.20608
0.896833
0.995269
0.983486
1.2795
1.9466
2.17374
1.815
0.719956
0.828655
1.43485
2.43287
3.64979
3.23387
1.60905
0.809269
1.0038
0.617911
-0.406227
-0.43313
-0.0176409
0.165356
0.626036
1.36886
1.34728
0.933017
0.696548
0.325656
0.151655
1.1714
1.1976
0.670182
1.00364
1.53426
1.61429
0.777121
0.418278
1.31978
2.03697
2.53958
2.06801
1.23005
)
;

boundaryField
{
    wall
    {
        type            zeroGradient;
    }
    outlet
    {
        type            cyclic;
    }
    inlet
    {
        type            cyclic;
    }
    procBoundary3to2
    {
        type            processor;
        value           nonuniform List<scalar> 
256
(
2.37319
1.47984
0.881081
1.60149
2.65075
3.45851
2.78287
0.609634
-1.78815
-2.18374
-1.00628
-0.539195
-0.438194
0.307994
1.09769
0.947989
0.769792
0.955738
1.80925
2.43362
2.54209
1.32972
-0.118064
0.158448
1.02186
0.99338
0.943635
1.85456
2.48672
2.09164
2.21922
2.74441
1.78618
1.53115
1.75717
2.29607
3.37624
3.66095
2.13851
-0.0147843
-1.75364
-1.49722
-1.09165
-0.685964
-0.455274
0.296921
1.04114
1.34576
1.02303
0.880559
1.91361
2.25071
1.99713
1.3321
0.408104
0.489481
1.05828
1.49764
1.31419
1.53608
1.8851
1.77298
1.94047
1.9535
1.43042
1.9784
3.15529
2.86846
2.68282
3.28015
3.15517
0.601082
-1.65626
-1.38549
-0.830171
-0.967242
-0.933991
-0.296262
0.410483
0.458271
0.607481
1.25854
2.18928
2.47636
2.20546
1.3677
0.0953124
0.480591
1.22213
1.20784
1.58492
2.0794
1.63648
1.47346
2.14982
2.0795
2.42065
2.48682
2.05801
1.71056
2.07597
2.76666
3.40733
1.73456
-0.415086
-2.17176
-2.64152
-1.52839
-0.48733
0.36735
0.848201
0.652159
0.882896
1.39735
1.65362
2.00546
2.1196
1.17565
0.326724
1.17802
1.69809
1.65718
1.5787
1.33959
1.38732
1.35875
1.44051
2.10274
1.5458
1.63988
1.74551
2.31491
2.77382
2.57889
1.90942
0.822057
0.164032
-1.22893
-1.98082
-2.04093
-0.331887
1.02055
1.62032
1.01595
0.58734
1.01585
1.47334
1.68831
1.73518
1.14304
0.791701
1.27198
1.7518
1.6887
1.67287
1.53067
1.42436
1.8362
1.77657
1.39582
0.565659
0.54143
2.1576
3.39613
2.92686
2.06886
1.0974
0.677168
1.13165
0.240566
-1.33441
-1.83135
-0.397088
0.945984
0.988447
0.796857
0.964239
1.13126
1.02179
1.29334
1.5091
1.4636
0.992823
0.714704
1.14761
1.75025
1.79413
1.9353
2.50915
2.51797
1.75984
0.95939
0.978084
1.0349
2.47844
3.21208
2.18835
1.24159
1.15516
1.04252
0.663847
0.0960504
-0.98588
-1.58663
-0.573056
1.14009
1.75173
0.87641
0.714309
1.36084
1.70697
1.48292
1.14357
0.653055
0.57179
0.506012
0.747627
1.42631
1.7935
2.07337
2.5479
2.23223
1.51131
1.39213
0.99884
1.09665
2.85433
3.40928
2.06957
0.99257
0.891188
0.670153
0.0330825
-0.577818
-1.12071
-1.24616
0.402754
1.45892
1.48816
0.725338
0.236495
0.878277
1.44125
1.00061
0.703378
0.773065
1.00365
1.25524
1.43811
1.83804
2.06532
2.31384
2.53072
2.01312
1.70245
1.88889
)
;
    }
}


// ************************************************************************* //
