/*--------------------------------*- C++ -*----------------------------------*\
| =========                 |                                                 |
| \\      /  F ield         | OpenFOAM: The Open Source CFD Toolbox           |
|  \\    /   O peration     | Version:  2506                                  |
|   \\  /    A nd           | Website:  www.openfoam.com                      |
|    \\/     M anipulation  |                                                 |
\*---------------------------------------------------------------------------*/
FoamFile
{
    version     2.0;
    format      ascii;
    arch        "LSB;label=32;scalar=64";
    class       surfaceScalarField;
    location    "0.006";
    object      phi;
}
// * * * * * * * * * * * * * * * * * * * * * * * * * * * * * * * * * * * * * //

dimensions      [0 3 -1 0 0 0 0];

oriented        oriented;

internalField   nonuniform List<scalar> 
1200
(
0.00150715
3.22105e-06
1.25518e-05
0.00149381
6.36267e-06
4.02056e-06
0.00150299
-4.99449e-06
-2.02382e-06
0.00152562
-8.75062e-06
-9.97165e-06
0.00151254
-9.48969e-08
-3.66802e-06
0.00150312
-5.87744e-06
-4.99609e-06
0.00151192
-5.22001e-06
-1.22605e-06
0.00151316
3.18242e-06
7.10101e-06
0.00150368
3.20787e-06
1.14026e-05
0.0015033
-4.51534e-07
1.69041e-06
0.00149907
8.03302e-06
4.33695e-07
0.00149115
8.75555e-06
2.93926e-06
0.00148417
1.83085e-06
1.23284e-06
0.00149134
-3.16279e-06
-9.91058e-06
0.00150262
-2.50137e-06
-5.47193e-06
0.00150597
-4.00089e-06
4.22644e-06
0.00150532
-4.23781e-06
3.19451e-06
0.00150475
-6.89323e-06
-2.37049e-06
0.00150941
-9.69079e-06
-4.08571e-06
0.00151633
-7.93578e-07
-8.90739e-06
0.00150486
4.52159e-06
1.28397e-05
0.00150058
1.65271e-06
6.89676e-06
0.00149798
-1.44194e-06
-6.00457e-07
0.00149569
2.23515e-06
-1.9281e-06
0.00149183
7.08256e-06
8.90518e-07
0.00149049
2.35025e-06
4.95667e-06
0.00149355
-1.84337e-06
1.12365e-06
0.00149813
-3.16011e-06
1.46616e-06
0.00150373
-2.92386e-06
1.92485e-06
0.001512
2.86691e-06
-4.1723e-06
0.00152233
2.71682e-06
-9.95279e-06
-4.5806e-08
-3.4496e-06
0.0015313
8.79686e-06
5.35394e-06
0.00152335
7.00175e-06
6.99038e-06
0.00152437
-4.42588e-06
-8.20359e-08
0.00152917
-1.19356e-05
-8.22296e-06
0.00152726
-5.60458e-07
-1.24707e-05
0.00149862
4.70521e-06
7.89368e-06
0.00149453
-4.50237e-06
2.46323e-06
0.00151663
-4.26106e-06
-1.09853e-06
0.00152075
3.09249e-06
-5.07394e-07
0.00150958
5.60446e-06
7.46689e-06
0.00151658
2.77512e-06
9.91439e-06
0.00152733
1.53188e-06
5.89393e-06
0.00151943
5.27893e-06
3.80795e-06
0.00150279
4.7663e-06
2.06882e-06
0.00150008
1.64482e-07
-3.99952e-06
0.00151389
-9.1383e-06
-3.62652e-06
0.0015208
-6.60475e-06
-2.42237e-06
0.00150943
2.06025e-07
-4.13819e-06
0.00150706
-5.21267e-06
-7.24776e-06
0.00151869
-6.92607e-06
-6.30575e-06
0.00152665
-2.2235e-06
-2.10664e-07
0.00152695
7.61602e-07
8.33953e-06
0.00151019
1.05391e-05
2.63856e-06
0.00150127
7.60482e-06
-4.74604e-06
0.00150529
4.88413e-07
-2.29844e-06
0.00151875
-6.43031e-06
-3.03634e-06
0.00152629
-6.32534e-06
-6.69578e-06
0.00152044
1.60852e-06
3.19056e-06
0.00151485
2.78988e-06
1.23073e-05
0.00152022
-1.41947e-06
1.1644e-06
0.00153689
-5.4499e-06
-8.74789e-06
-1.72644e-06
-2.29799e-06
0.00153813
-1.61438e-06
-6.11254e-06
0.00154852
3.07239e-07
-1.43916e-05
0.00154069
4.43273e-06
-2.86454e-06
0.00152833
-2.43265e-06
6.30905e-06
0.00153747
-7.69853e-06
-5.29719e-07
0.00153097
2.8626e-06
-1.06914e-05
0.00152503
1.05485e-05
-9.94874e-06
0.00152376
5.68299e-06
8.73509e-06
0.00151992
8.66526e-07
3.49131e-06
0.00153164
-7.22253e-06
-1.05899e-05
0.00154736
-1.75738e-06
-5.21552e-06
0.00153617
3.41377e-06
1.16379e-05
0.00152193
6.88051e-06
7.50395e-06
0.00152662
-9.09768e-07
-5.70233e-06
0.00152814
-4.97059e-06
-1.53051e-06
0.00151135
-1.82001e-06
8.12205e-06
0.00149409
2.0481e-06
5.05428e-06
0.00149587
-2.03506e-06
-5.66924e-06
0.0014966
-5.8585e-06
-4.57203e-06
0.00150355
-8.7434e-06
1.42688e-06
0.00151068
-4.57574e-06
3.25948e-06
0.0015073
3.16846e-06
6.39079e-06
0.00151346
7.78432e-06
3.43603e-06
0.00152217
3.72368e-06
1.05744e-06
0.00151862
3.50371e-06
5.70976e-06
0.0015077
2.04021e-06
-5.94302e-06
0.00149952
-4.18343e-06
-7.79961e-06
0.00150514
-6.36845e-06
-1.4461e-06
0.0015135
-1.66778e-06
6.22774e-06
0.00151186
5.11661e-07
3.00915e-06
0.00151518
1.68049e-06
-1.72721e-06
-4.99423e-07
1.56655e-06
0.00150761
-2.85852e-06
-4.8964e-06
0.00150432
-1.03776e-06
-2.25533e-07
0.00150362
2.14034e-06
4.7015e-06
0.00149814
-2.67761e-06
9.51749e-06
0.00150175
-1.76969e-05
3.85788e-06
0.00150668
-6.67213e-06
-1.98669e-05
0.00152081
3.91454e-06
-1.16648e-05
0.00153023
8.44709e-06
5.21428e-06
0.00152668
9.69532e-06
7.55206e-06
0.00151961
-3.40029e-06
9.83884e-06
0.00152458
-6.27814e-06
6.01229e-06
0.00151923
2.81771e-06
5.29021e-06
0.00150375
1.10895e-05
6.39741e-06
0.0015031
-1.24987e-06
-1.6942e-06
0.00150202
-5.2346e-06
-1.70362e-06
0.00150331
-3.87461e-06
2.02734e-06
0.00151913
-2.20843e-06
-8.81977e-06
0.00151699
4.09301e-06
-6.19276e-06
0.00150511
6.9653e-06
-7.01674e-06
0.00150843
-2.43852e-06
-5.33323e-06
0.00151391
-3.62361e-06
-3.47578e-07
0.00150848
2.60713e-06
7.94364e-06
0.00151482
1.88022e-06
1.67661e-06
0.001537
-8.50513e-06
-2.60206e-06
0.00154064
-5.53633e-08
-1.04105e-06
0.00152273
7.02861e-06
8.99318e-07
0.00151297
-3.08511e-06
-4.08152e-06
0.00151379
-4.53421e-06
-5.71895e-06
0.00151376
-2.78976e-06
3.98436e-06
0.00149551
2.7365e-06
1.8847e-05
0.00148921
5.81777e-06
5.55091e-06
-3.7251e-06
-2.06247e-06
0.00151608
4.62881e-06
-1.60214e-06
0.00151377
5.63996e-06
-3.31615e-06
0.00151613
4.41932e-06
-6.00609e-06
0.00152235
-6.35094e-06
-9.55807e-09
0.00151417
-1.08267e-05
4.65146e-06
0.00150673
-6.69764e-06
-1.54996e-06
0.00151048
-2.08472e-06
-4.95514e-06
0.0015092
1.14258e-05
-1.9375e-06
0.0015052
1.64889e-05
5.87508e-07
0.00149626
4.58983e-06
5.46529e-06
0.00151178
-7.26722e-06
2.44572e-06
0.00152008
-1.24866e-06
2.95577e-06
0.00152002
8.80641e-06
-4.89621e-07
0.00151607
-2.44653e-06
-5.75527e-06
0.0015211
-1.11597e-05
-4.31378e-06
0.00152448
-8.82118e-06
-1.3829e-06
0.0015232
-2.8081e-06
-5.89734e-07
0.00152323
-7.45006e-07
-2.58849e-07
0.00152595
-1.70873e-06
-3.92692e-07
0.00152212
1.94838e-06
-1.32179e-06
0.00151425
5.95421e-06
2.03707e-07
0.00151456
-1.48498e-07
1.24676e-06
0.00151977
-1.78816e-06
-6.2778e-06
0.00152176
-3.80873e-06
-8.8314e-06
0.00153226
-6.86894e-06
-2.11442e-06
0.00154288
-5.18078e-06
1.50828e-06
0.00153777
2.13733e-07
-9.18644e-07
0.00152287
2.22467e-06
2.86327e-06
0.00151317
1.60787e-06
1.01228e-05
0.00152051
-1.90585e-06
5.74794e-06
0.00152448
5.69113e-06
-2.70457e-08
5.252e-06
-3.23948e-06
0.00151677
2.3832e-06
7.93981e-07
0.00150316
5.04193e-06
-3.50128e-06
0.0015049
1.04859e-06
-5.68622e-06
0.00152232
-1.47676e-05
9.12473e-06
0.00153108
-6.83808e-06
1.76859e-06
0.00152091
3.04118e-06
-1.25034e-05
0.0015047
-1.8027e-06
-4.43496e-06
0.00150904
-1.56239e-06
2.29568e-06
0.00153495
5.18878e-06
-5.61478e-06
0.00153439
1.25919e-05
7.29068e-06
0.00151276
8.27044e-06
1.16256e-05
0.0015143
-2.64494e-06
-2.02703e-06
0.00152101
2.20246e-06
-6.88593e-06
0.00151459
3.04199e-06
2.22614e-06
0.00151519
-1.02396e-05
5.85192e-06
0.00152316
-9.25269e-06
-4.6654e-06
0.00153121
-5.13835e-06
-7.16898e-06
0.00152463
3.79485e-06
1.9805e-06
0.00151642
2.82656e-06
8.47437e-06
0.00152047
2.16818e-06
-2.89955e-06
0.00152752
3.1769e-06
-4.43244e-06
0.00152988
-1.51684e-06
-2.62297e-06
0.00152821
-3.27546e-06
-4.02131e-07
0.00153679
-1.67342e-05
2.91172e-06
0.00153194
-6.96493e-06
2.55929e-06
0.00151172
6.00331e-06
6.55188e-06
0.001497
1.31476e-05
-8.92164e-07
0.00149196
1.17232e-05
-9.19785e-06
0.00148256
8.55821e-06
-2.41999e-06
0.00148441
-1.28824e-06
2.88326e-06
0.00150468
-4.18347e-06
1.40123e-06
-2.05475e-06
3.32949e-06
0.00151986
1.00949e-06
3.521e-06
0.00151116
6.22589e-06
-3.1368e-06
0.00151751
-3.09722e-06
-1.0389e-05
0.00151904
-3.92012e-06
-1.23872e-07
0.0015291
-5.80118e-06
6.03217e-06
0.00154703
-6.48718e-06
-1.28387e-06
0.00153476
1.2378e-06
2.53431e-06
0.00151987
7.22158e-06
-4.65651e-06
0.00153222
1.5313e-06
-1.16561e-05
0.00153509
9.35433e-06
7.3791e-06
0.00152254
8.67816e-06
1.4662e-05
0.00150911
4.65829e-06
5.78578e-06
0.00151169
-1.33953e-07
-9.15336e-07
0.00151588
4.44675e-07
-7.08946e-06
0.00150193
-1.09047e-06
1.33354e-06
0.00150078
-9.05016e-06
3.41548e-06
0.00150985
-9.132e-06
-8.66578e-06
0.00151679
-9.09016e-07
-9.04683e-06
0.00151487
6.46118e-06
9.52936e-07
0.00152171
-2.17557e-06
4.36004e-06
0.00152875
-3.80695e-06
2.41526e-06
0.00151873
4.93271e-06
2.26357e-06
0.00151313
2.06117e-06
-9.11261e-08
0.00150345
-9.69223e-06
3.17185e-06
0.00149727
-3.49352e-06
4.24664e-07
0.00150624
-2.39163e-07
-4.4669e-06
0.00151566
4.61829e-06
-2.66288e-06
0.00151816
8.53249e-06
4.83984e-06
0.00151758
7.40142e-06
3.83563e-06
0.00152075
4.40425e-06
-9.49008e-06
0.00152806
-1.60854e-06
-3.54237e-06
-2.63041e-06
1.01416e-05
0.00150056
8.56697e-06
0.00149802
-3.63988e-06
0.00149594
-3.09623e-06
0.00150132
-2.94632e-06
0.00150061
-1.88974e-06
0.0014909
2.89054e-06
0.00148908
-5.96997e-07
0.00149793
-2.57197e-06
0.00149775
7.64825e-06
0.00150172
1.26969e-05
0.00150394
9.82099e-06
0.00151118
-5.9711e-07
0.00151375
-2.72532e-06
0.00150556
2.83001e-06
0.00150096
4.40343e-06
0.00149716
7.16881e-06
0.00149785
-1.04569e-05
0.00149901
-1.33777e-05
0.00150722
7.13251e-06
0.00150344
9.13537e-06
0.00149854
9.70889e-07
0.00150181
-3.28244e-06
0.00150659
-5.56739e-06
0.0014972
-2.52274e-06
0.00148226
3.88683e-07
0.00147737
-3.97812e-06
0.00148113
-2.08124e-06
0.00149177
-3.33657e-07
0.00150514
2.86704e-07
0.00151219
-9.47812e-07
0.00151319
-2.47376e-06
5.19015e-06
0.00144595
-8.59318e-06
0.00145025
-3.05219e-07
0.00144854
-3.27755e-07
0.00143829
2.7217e-07
0.00142699
7.63154e-06
0.00142361
-1.68345e-06
0.00143401
-1.16591e-05
0.00144758
-6.49048e-06
0.00146174
-2.77264e-06
0.00145581
7.59314e-06
0.00144796
8.25748e-06
0.00144757
3.31799e-06
0.00144897
-1.79536e-07
0.00143674
2.28169e-06
0.00143226
-9.88921e-07
0.00143985
-3.39069e-06
0.00144811
-5.053e-06
0.00144843
-2.83298e-06
0.00144204
2.29738e-06
0.00142945
3.68449e-06
0.00144147
8.16055e-07
0.00145023
-1.91285e-06
0.00144852
1.126e-06
0.00143941
7.18112e-06
0.00142927
1.10018e-05
0.00143878
-4.55282e-06
0.00145073
-1.08495e-05
0.00146382
-1.16462e-05
0.00146269
3.01409e-06
0.00144603
1.24598e-05
0.00142305
1.30208e-05
-5.29419e-06
0.00143274
-2.27704e-06
0.0014484
-9.02106e-06
0.00145095
-2.96282e-06
0.00143868
4.25057e-06
0.00142732
6.49364e-06
0.00143565
-2.21205e-06
0.00143123
-4.84763e-06
0.00141655
7.08888e-06
0.00140533
7.84054e-06
0.00142322
-2.85265e-06
0.00145371
-1.23144e-05
0.00147002
-7.12965e-06
0.00147389
-2.46153e-07
0.0014727
5.50593e-06
0.00146446
3.23097e-06
0.00145886
-1.43426e-06
0.00145112
2.63613e-07
0.00144
4.11268e-06
0.00143375
1.25584e-06
0.00142885
2.2297e-06
0.00143145
-2.00635e-06
0.00143809
-2.85656e-07
0.00143141
1.04022e-05
0.0014316
2.19566e-06
0.00143965
6.70283e-07
0.00145353
-2.14657e-05
0.00144801
-1.20313e-05
0.00143777
1.69119e-06
0.00144913
3.95186e-06
0.00146048
2.24158e-06
0.0014537
1.10505e-05
1.23852e-05
0.00147143
2.58185e-06
0.00144103
6.94814e-06
0.00143304
2.13174e-06
0.00144995
-6.34735e-06
0.00146641
-1.0448e-05
0.0014525
1.00714e-06
0.00142766
9.99543e-06
0.00144212
1.35699e-06
0.00146003
-6.59343e-06
0.00144892
-2.42895e-06
0.00143139
-2.38043e-09
0.00143737
-1.45455e-06
0.00144048
4.11562e-06
0.00144018
9.55633e-08
0.00144583
-3.95401e-06
0.00145107
1.43268e-06
0.00145472
1.69019e-06
0.00145338
-2.26097e-07
0.0014516
-1.55352e-06
0.00146008
-4.8217e-06
0.00146587
-4.56453e-06
0.00146788
4.09544e-06
0.00147692
4.74582e-06
0.00148498
-4.84966e-06
0.00149065
6.75501e-07
0.00146056
2.6592e-06
0.00143783
2.82993e-06
0.00144349
-5.50565e-06
0.0014554
-1.7274e-06
0.00145762
3.02309e-06
0.00146581
1.04674e-06
-2.74381e-06
0.00144779
-6.74428e-06
0.00145912
-4.57999e-06
0.0014614
4.53345e-06
0.00146592
-1.32857e-06
0.00147032
-1.0963e-05
0.00145239
-1.00629e-06
0.00145007
5.95737e-07
0.00145528
1.33213e-06
0.00144763
8.5825e-06
0.00145081
4.22456e-06
0.00145751
-6.86054e-07
0.00146187
-5.28522e-07
0.00147187
5.16411e-07
0.00146855
1.71879e-06
0.00145859
4.26324e-06
0.00146601
-4.01234e-06
0.00146446
-5.58128e-06
0.00145229
5.75712e-06
0.00144023
3.47041e-06
0.00143197
-1.92845e-06
0.00143213
-5.08657e-06
0.00144708
-3.00463e-06
0.00145694
-3.47768e-06
0.00145602
-6.53634e-06
0.00145352
2.06913e-06
0.00144531
1.17687e-05
0.00143369
1.03401e-05
0.00142321
-7.89468e-07
0.00142731
-1.87063e-06
0.00144851
6.57135e-07
0.00144963
5.4088e-06
1.40249e-06
0.00144459
6.84575e-06
0.00142353
1.31488e-05
0.00141909
2.91756e-06
0.00142846
-1.07142e-05
0.00144625
-2.41145e-05
0.00145347
-9.8062e-06
0.00143992
9.11381e-06
0.00142675
1.25575e-05
0.00142479
1.11112e-05
0.00143459
-1.39797e-07
0.0014362
9.4288e-08
0.00143456
4.07244e-06
0.00143176
2.7812e-06
0.00143145
-3.67892e-06
0.00143983
-8.46083e-06
0.00144235
-7.98555e-06
0.00144306
-6.88359e-06
0.00144818
3.49486e-07
0.00144747
3.77401e-06
0.00143839
5.79204e-06
0.00143452
-1.05264e-06
0.00143718
-4.43633e-06
0.00142563
1.84409e-06
0.00140872
1.53875e-06
0.00141348
-4.89855e-06
0.00142243
4.30899e-06
0.00141956
1.22477e-05
0.00141961
2.03447e-06
0.00143016
-2.31237e-06
0.00144198
-5.48967e-06
0.00145867
-1.13164e-05
-2.99785e-06
0.00144924
5.72654e-06
0.00145088
8.00622e-06
0.00144793
1.74551e-07
0.00145737
-1.10673e-05
0.00144567
-1.06296e-05
0.00141866
4.71071e-06
0.00142353
-3.1698e-07
0.00143988
-1.55599e-06
0.00144164
3.72604e-06
0.00144255
6.23914e-06
0.00145092
3.34552e-06
0.00145805
-5.08356e-06
0.00145884
-4.93748e-06
0.00146084
-3.44771e-06
0.00146101
-2.81998e-06
0.00145197
-3.59469e-06
0.00144064
-2.74312e-06
0.00144679
-3.82362e-06
0.00145393
5.14912e-06
0.00144878
7.93788e-06
0.00144014
3.15778e-06
0.00143645
-3.37285e-06
0.00145003
-1.21508e-05
0.00146773
-1.3294e-05
0.00147227
-6.89915e-06
0.001484
-8.7361e-07
0.00148732
8.03005e-06
0.00147221
7.91163e-06
0.00146518
2.24376e-06
0.00146654
-3.96621e-06
0.00145596
5.81863e-07
8.97454e-06
0.00146499
1.02198e-05
0.00145632
1.35766e-05
0.00145113
-5.12616e-06
0.00145714
-1.72136e-05
0.0014587
-6.16473e-06
0.00145106
1.1065e-05
0.00144817
5.0117e-06
0.00143918
2.74338e-06
0.0014281
3.06604e-06
0.00144392
-2.21551e-06
0.0014628
-8.71086e-07
0.00146317
3.13298e-07
0.00146175
-4.43539e-06
0.00145694
-5.71328e-06
0.00145637
-9.60454e-07
0.00145294
3.22756e-06
0.00144985
-8.29913e-06
0.00144807
-1.10941e-05
0.00144972
4.44563e-06
0.00145977
2.20398e-06
0.00146605
-7.05349e-07
0.00146244
2.49977e-06
0.0014489
1.31124e-06
0.00144234
-3.62811e-06
0.00143877
-2.93941e-06
0.00143917
-5.82043e-06
0.00144462
-1.89117e-07
0.00145628
1.07459e-06
0.00145551
6.8514e-06
0.00143309
8.93064e-06
0.00143786
-7.74034e-06
-9.01379e-06
0.00144598
0.00145591
0.00144766
0.00142744
0.00141939
0.00143336
0.00143778
0.00143795
0.00144867
0.00145909
0.00146804
0.00146774
0.00146057
0.00145768
0.00146112
0.0014715
0.00145271
0.00142824
0.00143982
0.00145115
0.00145142
0.00145062
0.00144635
0.00144021
0.00143759
0.00142778
0.0014255
0.00142623
0.0014333
0.0014413
0.00143102
)
;

boundaryField
{
    wall
    {
        type            calculated;
        value           nonuniform List<scalar> 
384
(
6.5609e-09
-7.58424e-09
1.11634e-07
1.60516e-08
1.58338e-08
2.37697e-08
8.93532e-09
1.50633e-15
3.24619e-08
4.31248e-08
3.85958e-08
-2.34224e-08
1.88111e-08
-2.79013e-09
-3.00112e-08
5.1805e-09
9.51648e-09
8.95138e-09
3.48181e-08
1.30335e-08
4.7686e-08
7.53811e-09
1.02392e-07
2.09545e-08
1.0578e-08
6.86206e-08
-2.19356e-09
-1.8466e-08
1.01272e-08
3.83858e-08
1.12326e-08
5.48298e-08
1.31451e-11
2.34012e-08
-5.26078e-08
-2.29635e-08
6.89257e-09
-9.09141e-09
7.91681e-09
-3.09413e-10
6.71885e-08
9.49872e-08
1.8293e-09
7.60943e-08
3.32599e-08
-1.71941e-08
-1.87422e-09
-1.45141e-08
2.7377e-08
7.17098e-08
5.05644e-08
5.50264e-08
7.58764e-08
1.31736e-07
9.35624e-08
-8.52425e-09
1.41081e-08
-6.12407e-09
7.90279e-09
2.65694e-08
9.571e-09
5.35328e-08
3.72466e-08
1.91527e-10
1.62053e-08
1.09044e-07
1.60412e-08
2.78822e-08
2.26711e-08
1.37629e-08
8.11191e-08
5.17902e-09
3.08995e-08
1.51001e-08
9.49301e-08
-2.67215e-09
2.34834e-08
4.01646e-09
1.71028e-08
3.4511e-08
1.67662e-08
-6.81796e-10
-3.46461e-09
4.18288e-10
5.50508e-08
-2.99062e-09
-4.83693e-09
-4.79981e-10
1.97374e-08
3.42496e-08
-9.82164e-09
3.43846e-09
-7.83563e-09
-6.11691e-10
1.68812e-08
1.80734e-08
7.7722e-09
3.31664e-09
2.75805e-08
-6.279e-09
4.55164e-08
4.79987e-08
6.77203e-09
3.261e-09
3.96115e-08
3.61693e-08
9.32086e-09
9.64222e-09
-3.88866e-08
-1.16688e-08
-1.91848e-08
7.11129e-09
-1.64874e-09
2.20419e-08
1.29952e-10
3.57728e-08
3.01232e-08
4.67777e-08
4.46565e-08
-2.61328e-09
1.96506e-08
1.42698e-08
1.77359e-08
5.19832e-08
6.78952e-08
-1.31328e-08
2.38634e-08
1.44733e-08
-6.46227e-09
-1.06638e-09
-2.25595e-08
-1.66139e-09
1.20035e-10
1.59121e-08
-1.20303e-08
3.3577e-08
1.40438e-07
3.87907e-08
1.10856e-08
-5.32901e-09
3.02076e-08
4.02996e-10
-4.47699e-09
1.90257e-09
4.8077e-09
4.34807e-08
1.60063e-08
2.00824e-08
1.11233e-08
-3.98845e-08
8.15422e-09
-6.73356e-10
3.629e-09
4.68927e-08
-3.4607e-10
3.7911e-08
3.96612e-08
1.04128e-07
4.40743e-08
-2.11512e-08
-2.22926e-09
9.74717e-09
2.69133e-08
8.97013e-09
3.50836e-08
2.99751e-09
-4.63857e-11
-1.54551e-09
5.27018e-08
7.44819e-08
3.16002e-09
1.00135e-07
2.44049e-08
0
1.40723e-09
5.88924e-09
-1.10838e-08
3.94236e-08
4.81331e-08
3.32672e-08
-5.10737e-08
1.8714e-08
-8.17462e-09
1.80518e-08
-1.64124e-15
4.85756e-08
4.28809e-08
9.70389e-09
4.53376e-09
3.61417e-08
6.18711e-08
-1.53308e-08
2.24092e-08
-8.77045e-09
3.19233e-08
6.12767e-08
9.31396e-08
2.30039e-08
3.28291e-08
7.07961e-08
5.37546e-09
-6.19092e-09
2.45714e-08
-5.19648e-10
1.86727e-08
7.10702e-09
8.58744e-08
9.39568e-09
1.41339e-08
-1.11496e-10
6.73877e-08
3.3907e-08
4.21372e-08
0
1.01143e-07
5.58443e-09
1.60377e-08
9.24177e-08
9.33056e-08
4.05328e-08
-6.84575e-09
3.7127e-08
1.4981e-08
1.45037e-08
4.78843e-08
1.64414e-08
-4.90002e-16
3.37185e-08
1.14276e-08
5.23466e-08
0
6.63263e-08
2.86319e-08
2.67226e-08
3.39797e-10
1.37344e-08
7.25238e-08
1.34871e-09
3.2941e-08
-1.01129e-08
5.93681e-10
5.48876e-09
9.0896e-08
6.24263e-08
1.3317e-08
7.93433e-08
1.09753e-08
2.29059e-08
8.10419e-08
3.07084e-08
-9.06648e-09
4.67456e-08
2.57579e-08
-2.85921e-08
1.46971e-08
-9.39099e-10
0
1.71912e-12
0
7.93235e-11
4.92665e-12
2.73129e-11
0
3.82477e-10
0
-1.8338e-12
0
-1.52677e-10
0
-1.3904e-09
0
1.15084e-08
0
4.48326e-10
0
-9.91518e-11
0
-7.68055e-11
0
-2.98462e-11
0
-3.98803e-11
0
-1.23993e-10
0
1.30814e-10
0
1.07571e-10
0
-1.71425e-10
0
-5.33318e-11
0
-2.9565e-12
0
-1.74607e-11
0
-9.10032e-11
0
-2.62963e-10
0
-3.22557e-10
0
2.12375e-13
0
8.49917e-11
1.20315e-11
7.75428e-10
0
8.89419e-09
0
-2.94865e-11
0
-2.37214e-10
0
-4.36075e-11
0
-9.35469e-13
0
-5.99516e-10
0
-1.00969e-09
0
-1.0643e-10
0
1.09141e-08
-1.68897e-10
-5.64668e-10
0
-3.15759e-11
0
-1.13773e-10
0
4.53366e-11
0
-8.35899e-10
0
-2.1956e-09
0
2.63173e-08
0
1.62992e-12
8.49459e-12
1.16064e-10
0
2.67151e-10
0
4.34248e-09
0
-1.8507e-11
0
-2.61462e-10
0
-1.29032e-10
0
2.14979e-12
0
-4.5676e-14
0
2.57779e-08
0
-2.02902e-10
0
1.29017e-08
0
5.59233e-11
0
3.29655e-09
0
-8.97104e-11
0
-3.54872e-09
0
2.26061e-10
0
-3.51377e-10
3.45939e-11
4.11693e-10
0
1.0769e-10
0
4.36639e-08
0
1.49904e-13
)
;
    }
    outlet
    {
        type            cyclic;
        value           nonuniform List<scalar> 
16
(
0.00152448
0.00154289
0.00152487
0.00150033
0.00151974
0.00151792
0.00152646
0.00150945
0.00142482
0.00143369
0.00148252
0.00144338
0.0014598
0.00144735
0.00146597
0.00142719
)
;
    }
    inlet
    {
        type            cyclic;
        value           nonuniform List<scalar> 
16
(
-0.00152448
-0.00154289
-0.00152487
-0.00150033
-0.00151974
-0.00151792
-0.00152646
-0.00150945
-0.00142482
-0.00143369
-0.00148252
-0.00144338
-0.0014598
-0.00144735
-0.00146597
-0.00142719
)
;
    }
    procBoundary3to2
    {
        type            processor;
        value           nonuniform List<scalar> 
256
(
1.55577e-06
2.95193e-06
-2.15838e-06
-3.90995e-06
1.68488e-05
2.02954e-05
-2.35543e-06
-1.15269e-05
-5.13067e-06
-8.56132e-07
-4.23941e-06
-3.77896e-06
3.92312e-06
5.89803e-06
-3.30704e-06
-3.56805e-06
1.68751e-06
9.83471e-06
9.11977e-06
2.78159e-06
-5.89609e-06
-4.27064e-06
4.6493e-06
1.97503e-06
-4.11451e-06
-5.95835e-06
-2.34427e-06
-2.8886e-06
-4.59465e-06
-6.97167e-06
-3.09491e-06
1.35233e-06
6.59946e-07
3.21834e-07
-1.50011e-06
6.5994e-06
1.48498e-05
1.01615e-05
9.09407e-07
-1.35581e-05
-3.49603e-06
-2.35365e-06
-1.16507e-05
-9.42525e-06
6.48722e-07
6.64308e-06
4.04082e-06
-5.04609e-06
-2.12189e-06
8.41078e-06
5.13656e-06
8.11659e-07
-1.00493e-06
-7.74729e-06
2.1383e-06
8.29982e-06
4.87319e-06
-1.6451e-06
3.63752e-06
-2.10754e-06
-1.24301e-05
-2.24964e-06
2.39288e-07
-2.02277e-06
3.26256e-06
1.0698e-05
1.83566e-06
-3.45962e-06
-1.4671e-06
1.90288e-05
8.37955e-07
-1.74078e-05
2.57373e-06
1.17037e-05
-5.97879e-06
-2.3282e-06
5.13551e-06
6.6866e-06
5.14448e-06
1.3547e-06
3.54841e-06
6.1304e-06
4.48687e-06
-6.56049e-06
-8.03149e-06
-5.42075e-06
-6.84387e-06
-5.8796e-06
-5.18008e-06
8.39357e-06
1.38412e-05
3.80488e-06
-1.01368e-05
-3.3003e-06
-8.71844e-06
-1.24815e-05
-1.137e-06
4.86289e-06
-1.71498e-06
-3.78763e-06
2.52754e-06
2.44755e-05
4.16745e-06
-1.7404e-05
-1.28304e-05
-6.59136e-06
-6.46067e-06
6.5351e-07
4.87548e-06
2.68891e-06
3.04902e-06
-1.26327e-06
-2.74648e-06
2.19958e-06
6.07626e-06
-4.2926e-06
-6.07907e-06
-1.9541e-06
-2.11356e-06
-7.34832e-06
9.61002e-07
1.20242e-05
1.27393e-05
3.06436e-06
-2.82789e-06
-2.83004e-06
-3.3801e-06
-5.83643e-06
-2.21891e-06
-1.05715e-06
1.37329e-06
-2.53915e-06
-3.34072e-06
9.01785e-06
7.20055e-06
2.37343e-07
-3.37944e-06
-4.51934e-06
-1.69771e-05
-7.18402e-06
2.83233e-06
1.09026e-05
5.20203e-06
2.95443e-06
2.46595e-06
5.07195e-06
6.34217e-06
7.66077e-07
-1.90739e-06
1.19927e-06
4.73041e-06
2.14271e-06
-1.56775e-06
8.04944e-08
2.73541e-06
5.27412e-06
-4.82309e-06
-8.44402e-06
-3.81096e-06
-1.00596e-06
2.59572e-06
1.77146e-05
7.3152e-06
-1.81249e-05
-1.45184e-05
1.29344e-05
2.03601e-05
6.34938e-06
-8.99116e-06
-1.47327e-05
-5.52966e-06
1.88005e-06
6.77466e-06
-1.29051e-06
-7.37389e-06
-2.87145e-06
1.4453e-06
6.0818e-08
-4.8e-06
-1.36615e-06
1.54325e-07
1.63824e-06
3.55577e-06
1.4387e-06
2.38624e-06
2.48437e-06
2.67279e-06
4.74458e-06
4.86639e-06
-5.35173e-06
-1.17964e-05
-9.25892e-06
4.44875e-06
1.06587e-05
8.17564e-06
-1.22441e-05
-1.71351e-05
-7.11385e-06
6.68819e-06
1.07638e-05
2.96423e-06
-7.01143e-06
-2.51585e-06
3.3456e-07
6.80981e-07
5.49094e-06
3.47155e-06
-2.46971e-06
3.59213e-06
6.81155e-06
-2.66811e-06
-6.86192e-06
-2.47333e-06
1.31382e-06
3.53533e-07
-5.37964e-07
2.2884e-06
1.73265e-06
1.77656e-06
-4.14498e-06
-2.10002e-06
6.27152e-07
-6.34729e-06
-7.96171e-06
1.33358e-06
1.23978e-05
2.08731e-06
-6.35386e-06
-3.20935e-06
3.35145e-07
3.65134e-06
9.45928e-07
-5.93892e-06
-7.3043e-06
-3.37149e-06
-1.98494e-06
2.61273e-08
5.80208e-06
-8.95536e-07
-1.24163e-05
6.37657e-07
1.13038e-05
-8.88082e-06
-7.52755e-06
1.23905e-07
4.94372e-06
2.84748e-06
2.22098e-06
1.10605e-05
8.62258e-06
2.94137e-06
-1.7734e-06
-6.25157e-06
-1.70489e-06
-1.2631e-07
-4.08143e-06
)
;
    }
}


// ************************************************************************* //
