/*--------------------------------*- C++ -*----------------------------------*\
| =========                 |                                                 |
| \\      /  F ield         | OpenFOAM: The Open Source CFD Toolbox           |
|  \\    /   O peration     | Version:  2506                                  |
|   \\  /    A nd           | Website:  www.openfoam.com                      |
|    \\/     M anipulation  |                                                 |
\*---------------------------------------------------------------------------*/
FoamFile
{
    version     2.0;
    format      ascii;
    arch        "LSB;label=32;scalar=64";
    class       volVectorField;
    location    "0.006";
    object      U_0;
}
// * * * * * * * * * * * * * * * * * * * * * * * * * * * * * * * * * * * * * //

dimensions      [0 1 -1 0 0 0 0];

internalField   nonuniform List<vector> 
512
(
(9.9722 -0.0362598 0.0256815)
(10.0304 0.0161157 0.100435)
(10.1024 -0.00271185 0.0917306)
(10.1829 0.0444072 -0.0248537)
(9.8032 0.0221284 -0.191526)
(9.71109 -0.0395721 -0.146964)
(9.7996 -0.163733 -0.00629801)
(9.77592 -0.0046481 0.0672345)
(9.88376 0.0778534 0.0845205)
(10.0448 0.0685507 -0.0588885)
(9.96961 0.100375 -0.0205309)
(10.0309 0.076904 0.061896)
(10.1003 0.000757754 0.00723166)
(10.0951 0.0022411 -0.0243571)
(10.0501 0.0313298 -0.0157715)
(9.98562 0.0117394 0.0878594)
(10.0015 -0.012743 0.076476)
(10.0705 0.0225693 -0.0823639)
(10.0555 0.00908744 -0.105371)
(9.89385 -0.019898 -0.0917751)
(9.79103 -0.0140455 0.0531566)
(9.88459 -0.0294715 0.0659847)
(10.0802 0.0156462 0.0277485)
(10.0232 0.0166607 0.0613875)
(10.0377 -0.00228764 0.116954)
(10.0794 0.00711152 0.0872186)
(10.0749 0.0132275 -0.000210988)
(9.8079 -0.0366273 -0.0325036)
(9.82566 -0.0474291 -0.00289719)
(10.1292 0.00348838 -0.0403384)
(10.0955 -0.0202845 -0.129473)
(10.1027 -0.0493093 -0.0880393)
(10.1759 0.0660307 0.0821096)
(10.171 0.0907566 0.0390649)
(10.1957 -0.0172181 0.00280552)
(10.1562 -0.0652672 -0.154732)
(9.8712 0.065893 -0.170028)
(9.62785 -0.0457265 -0.0186217)
(9.85248 -0.0833961 0.0125096)
(10.0937 -0.0391479 0.0145337)
(10.0503 0.00773421 -0.00409647)
(10.1411 0.0664421 0.0108618)
(10.1584 0.0877172 0.0379328)
(10.0894 0.0614684 0.0790742)
(10.1022 0.0302522 0.0811556)
(10.1796 -0.0129354 -0.0303161)
(10.1177 -0.0631223 -0.0536819)
(10.0377 -0.0737582 0.0361507)
(10.0556 -0.0492396 0.0652729)
(10.1409 -0.0770213 -0.0625811)
(10.1301 -0.0933407 -0.131502)
(9.97029 -0.0525854 -0.0147375)
(9.94917 0.00795656 0.0161769)
(10.0675 0.0327607 0.13062)
(10.1073 0.0423935 0.0344543)
(10.0771 0.078902 -0.0192975)
(10.125 0.0722604 -0.00438522)
(10.191 -0.00424893 0.00515394)
(10.081 -0.0535751 -0.0654554)
(9.95222 -0.0175061 0.0579328)
(10.0133 -0.0114258 0.116092)
(10.1797 0.0269981 -0.0540432)
(10.1605 -0.00290185 -0.0721095)
(10.2528 -0.0244759 0.00731158)
(10.2444 0.0681929 -0.040129)
(10.2158 0.0552473 -0.105388)
(10.0846 -0.0485623 -0.0136837)
(10.0794 -0.106908 0.00930551)
(10.0027 -0.0901729 -0.0573651)
(9.77609 0.0786638 -0.178932)
(9.80536 0.0655774 -0.0440701)
(9.93689 0.0212065 0.0643743)
(10.0929 0.0124757 -0.0985923)
(10.1486 -0.0129251 -0.0964546)
(10.1997 -0.0153258 0.0393848)
(10.0031 0.00812012 0.100202)
(10.0455 0.048454 0.0693069)
(10.1946 0.0310565 -0.0171139)
(10.1433 -0.0565255 -0.0377117)
(10.0426 -0.139979 0.0611461)
(10.094 -0.0609295 0.0296594)
(10.1265 -0.0505595 -0.0729578)
(10.1149 -0.0505863 -0.0506686)
(10.0235 -0.0213355 0.014825)
(9.9513 0.042288 0.0498802)
(10.04 0.0670189 0.123236)
(10.1753 0.0986817 0.113384)
(10.166 0.0991301 0.12869)
(10.002 0.0619615 0.102794)
(9.97622 -0.0048579 -0.0563931)
(10.0285 -0.0386901 -0.17127)
(10.0495 -0.00190078 -0.0332368)
(10.1244 0.0116871 0.0874066)
(10.1509 -0.0575964 -0.00988332)
(10.1115 -0.0486681 -0.0400922)
(10.1365 0.00667683 0.0213222)
(10.1281 -0.0830083 -0.0602167)
(10.0695 -0.0952185 -0.0414871)
(10.1241 -0.0417154 0.0849191)
(10.121 -0.0483145 0.100857)
(9.95573 -0.0919923 -0.03825)
(9.81768 -0.0566367 -0.278933)
(9.81656 0.0764907 -0.15094)
(10.0302 0.141194 0.103777)
(9.96783 0.0474346 0.0863648)
(10.1061 -0.10175 0.145696)
(10.2805 -0.0709889 0.137829)
(10.228 0.0515198 0.0446353)
(10.0501 0.116902 0.0269881)
(9.97615 0.0500433 -0.0281814)
(10.0344 -0.024124 -0.0502498)
(10.1902 -0.0411791 -0.0161707)
(10.2261 0.0342871 -0.0622173)
(10.1335 0.0579738 -0.0683665)
(10.1078 -0.00773574 -0.04923)
(10.0568 -0.114826 -0.0216244)
(9.96591 -0.079629 0.0215189)
(10.1299 0.0481119 0.0852647)
(10.1929 0.0338863 0.0592526)
(10.1559 -0.0154252 0.058974)
(9.96059 0.0166199 -0.0254948)
(10.0172 0.0337644 -0.0857211)
(10.1407 -0.0284561 -0.0868937)
(10.0168 -0.0287487 -0.0027691)
(9.97832 0.0256477 0.026585)
(10.1103 0.100782 0.0808183)
(10.2179 0.00588412 0.0447498)
(10.2404 -0.0594644 -0.0197)
(10.0934 0.013266 0.0161639)
(10.167 0.0247461 0.0164237)
(10.175 0.0201354 -0.00358631)
(10.1494 0.00585913 0.0303531)
(9.89307 -0.114976 -0.0175802)
(9.85612 -0.086061 -0.0833927)
(9.91065 0.0574643 -0.0666146)
(9.878 0.107164 -0.0604912)
(9.95099 0.0624803 -0.00895723)
(10.0807 -0.030466 0.117637)
(10.2533 -0.0671116 0.156559)
(10.2856 0.000918264 0.0647453)
(10.1081 0.00999339 -0.0284273)
(9.95005 -0.0480824 -0.108553)
(9.99772 -0.0204982 -0.0636658)
(10.2011 0.0488664 0.0220993)
(10.2109 0.0103372 -0.00800254)
(10.093 -0.0187395 -0.0356944)
(10.0105 -0.0207548 -0.0315314)
(10.0649 -0.034789 -0.0116066)
(10.0361 0.0131133 0.0221012)
(10.096 0.0561957 0.000252609)
(10.1708 0.0088986 -0.0333147)
(10.0897 -0.145417 -0.0272881)
(10.0255 -0.0836415 0.0128816)
(10.0876 -0.00369918 -0.0138116)
(10.086 -0.0271786 -0.0242976)
(10.0798 -0.0103393 0.0231874)
(10.1312 0.00610872 0.041825)
(10.0603 0.0756138 0.00257852)
(10.0598 0.0814411 -0.00881045)
(10.1342 0.0145604 -0.00199957)
(10.1574 0.0615362 0.0192292)
(10.1256 0.0626909 -0.027629)
(10.1481 0.0152309 0.0363037)
(10.0398 -0.154695 0.151061)
(9.94284 -0.102228 0.0506845)
(9.86932 0.0342497 -0.232713)
(9.96808 -0.00566286 -0.152353)
(9.97411 0.0311317 -0.0976474)
(10.0331 0.0896405 -0.0580457)
(9.99832 0.157919 0.138142)
(10.0897 0.0490764 0.0841974)
(10.203 0.0199243 -0.0473087)
(10.1557 0.0309863 -0.0784597)
(10.0197 -0.111412 0.0490054)
(10.0198 -0.13407 0.0768184)
(10.1327 -0.0644841 -0.0221418)
(10.168 -0.0274153 -0.0112715)
(10.0559 -0.00557048 0.0838616)
(10.0294 0.0240908 0.0588345)
(10.075 0.149182 -0.0395692)
(10.0754 0.0984652 -0.0351873)
(10.1562 -0.0641994 -0.0466393)
(10.0879 -0.0769334 -0.0374962)
(10.0633 -0.116632 -0.0087197)
(10.219 -0.117714 0.0152708)
(10.1585 0.00761873 0.0302594)
(9.93353 0.105879 -0.00394508)
(9.93538 0.11996 -0.109533)
(10.0615 0.0255108 -0.121972)
(10.1339 -0.070646 -0.0127912)
(10.185 -0.00739117 0.101188)
(10.17 0.0318955 0.126793)
(10.1345 0.0570837 0.0284458)
(10.1259 0.0438829 -0.0317317)
(10.0453 -0.0344445 -0.0535746)
(10.011 -0.134582 0.127532)
(10.0616 -0.0920731 0.120423)
(10.1069 -0.0784067 -0.00809161)
(9.86722 -0.0398676 -0.133639)
(9.93259 0.00465684 -0.167427)
(10.0682 0.0576677 -0.119633)
(10.0045 0.187264 0.0795706)
(10.1034 0.107154 0.118988)
(10.2823 0.0545486 0.0310482)
(10.114 0.0894774 -0.0506932)
(10.0046 0.0638444 -0.0850783)
(9.88784 -0.0615981 0.0370931)
(9.99255 -0.181559 0.0736764)
(10.1735 -0.169698 -0.0504891)
(10.1815 0.042708 -0.044436)
(10.0978 0.0593941 0.0313103)
(10.0793 -0.0208987 0.0576605)
(9.96833 -0.0411586 0.00980794)
(10.0165 -0.014094 0.00287927)
(10.0676 -0.0649779 0.0178612)
(10.0852 -0.0887896 0.0470467)
(10.1956 0.0730453 -0.0185643)
(10.1867 0.110321 -0.0626539)
(10.1033 0.0667092 -0.0268487)
(10.1155 0.060734 0.0699272)
(9.97968 0.0332183 -0.0208629)
(9.95201 0.0113953 -0.0612625)
(10.1724 0.01363 -0.0234439)
(10.1526 0.0092328 0.0365467)
(10.0657 0.0654293 0.0365194)
(9.98929 0.0951194 -0.0533102)
(9.82487 -0.0400715 0.00873228)
(9.8737 -0.031673 0.054857)
(9.98306 -0.0853671 0.0106919)
(9.95524 -0.0903097 -0.00722145)
(9.94172 0.00169857 -0.0187276)
(9.96541 0.0513498 -0.00711554)
(9.90716 0.0790656 0.040958)
(9.91547 0.0860333 0.0584616)
(10.0711 0.0548074 0.0683717)
(10.1922 0.0406797 0.0386102)
(10.0289 0.0175157 -0.0526299)
(9.78573 0.0628323 0.000267668)
(9.84911 0.0595439 0.0599916)
(9.93647 -0.00826148 0.0600629)
(10.1591 -0.0713628 -0.0795226)
(10.1114 -0.0450631 -0.0740875)
(9.90015 0.00502811 0.0909253)
(9.87836 -0.0953084 0.0538558)
(9.97628 -0.116884 -0.0380666)
(10.0257 0.0521557 -0.0928375)
(10.0005 0.0738621 -0.0320921)
(10.0655 0.0058719 0.034846)
(10.0925 0.0185848 -0.0371799)
(10.0382 0.0236137 -0.111868)
(9.96316 0.048878 -0.0689685)
(9.89758 -0.0228995 0.0156788)
(9.94401 -0.0690328 0.0251321)
(10.0588 0.0137122 -0.0383948)
(10.0276 0.0103277 -0.0302288)
(10.0598 0.0191758 0.0461769)
(9.99391 -0.0264292 0.0708861)
(9.83519 -0.00763745 0.0749134)
(9.73997 -0.054859 0.0181536)
(9.64818 -0.035022 -0.103905)
(9.60023 0.0907268 -0.107524)
(9.61341 0.0823605 -0.0882086)
(9.574 -0.0617225 -0.0578608)
(9.54519 -0.0863427 0.103839)
(9.58938 -0.0256279 0.125096)
(9.90564 0.0762469 0.0513561)
(9.90203 0.0651581 0.074036)
(9.77716 0.0291134 0.135468)
(9.7594 0.0386235 0.0685289)
(9.75219 0.0637244 -0.0693056)
(9.80891 -0.00582545 -0.04689)
(9.79893 -0.0420884 0.0124581)
(9.63082 -0.0270665 0.0300273)
(9.53817 -0.0134765 -0.0498758)
(9.7416 0.0124858 -0.182399)
(9.76695 0.0221537 -0.143327)
(9.69191 0.042294 0.0822193)
(9.72583 0.048868 0.0854738)
(9.72413 0.0162156 0.0298925)
(9.79557 -0.0135196 0.0518405)
(9.75379 -0.0739284 0.11116)
(9.6847 -0.142901 0.127147)
(9.56237 -0.094929 0.0374811)
(9.66379 -0.0550497 -0.000303398)
(9.6532 0.0645536 0.0116957)
(9.59713 0.0589636 -0.0563405)
(9.84629 0.0607761 -0.104313)
(9.91428 -0.0489985 -0.0403702)
(9.79293 -0.0168509 0.0517621)
(9.85044 -0.0459955 0.0320905)
(9.90924 -0.0293379 -0.0541655)
(9.84703 0.0716027 -0.131507)
(9.66219 0.081107 -0.0825702)
(9.37635 -0.0166088 0.12054)
(9.41246 -0.0838744 0.0613318)
(9.63098 -0.0675604 -0.0119692)
(9.68338 -0.0332867 -0.0297967)
(9.82248 0.0118236 0.0287637)
(9.94607 -0.0233001 0.0596012)
(9.92347 -0.0332961 0.0665058)
(9.76856 -0.000397042 0.115451)
(9.74729 0.0241062 0.0525884)
(9.8734 -0.0468969 -0.0964381)
(9.86398 -0.0810389 -0.064469)
(9.73321 -0.0366948 0.00470743)
(9.71648 0.0293115 -0.09663)
(9.79543 0.0714637 -0.142373)
(9.7651 0.0591089 -0.0775122)
(9.63244 -0.00850691 0.129478)
(9.6271 -0.0324189 0.152005)
(9.71732 0.0964963 0.0164365)
(9.69761 0.114399 0.00523192)
(9.6839 0.090765 0.0344687)
(9.73098 -0.152128 -0.0322566)
(9.80015 -0.132362 -0.046898)
(9.70239 0.0108445 0.0229941)
(9.64195 0.0510775 0.0637385)
(9.86482 0.0807401 -0.00393182)
(9.94348 0.021662 -0.0608357)
(9.84081 0.00237069 -0.00652453)
(9.90699 -0.00319337 0.000649567)
(9.60924 -0.0183735 -0.0710142)
(9.67675 -0.00171672 -0.0138368)
(9.70903 0.0288697 0.00839681)
(9.64124 0.0428975 -0.0653201)
(9.37574 -0.0919835 -0.107998)
(9.4408 -0.036946 -0.0422897)
(9.64747 0.0959834 0.0470965)
(9.8646 0.0746174 0.019108)
(9.7284 0.00529353 -0.0478556)
(9.79577 -0.074298 -0.0314314)
(9.81832 -0.0880782 0.0405028)
(9.80288 -0.00213707 0.0295324)
(9.81827 0.00797693 -0.0243074)
(9.843 -0.00679338 -0.0318494)
(9.78402 -0.0710288 0.0179966)
(9.79704 -0.0503437 0.0250691)
(9.78227 0.0193121 0.00932766)
(9.8585 0.0266388 -0.0223185)
(9.89451 -0.0231301 -0.0134764)
(9.87103 -0.0362615 0.0142025)
(9.8371 0.0447884 0.0753319)
(9.91346 0.0991269 0.046442)
(9.90126 0.0523827 0.0166449)
(9.75199 0.0677842 0.109528)
(9.57499 -0.0429455 -0.00413873)
(9.67142 -0.0702692 -0.0268169)
(9.78602 -0.0516683 0.0177876)
(9.65935 -0.0355109 0.0688991)
(9.71134 -0.0147601 0.0476298)
(9.86843 0.113989 -0.0791476)
(9.99399 0.0766534 -0.0372243)
(9.77315 -0.0284199 -0.0163502)
(9.95699 0.00660683 -0.0206704)
(9.95849 -0.0274387 0.00137776)
(9.9324 -0.0900482 0.0559453)
(9.57627 -0.0963247 0.0494093)
(9.47437 0.0690252 -0.0941895)
(9.64555 0.0955716 -0.0581854)
(9.65326 -0.00773439 0.0509801)
(9.68513 0.00502504 0.037753)
(9.74354 0.00683681 0.0498679)
(9.86055 0.0339151 0.0137668)
(9.79331 0.0792557 -0.0367216)
(9.80967 0.0662022 -0.000557416)
(9.76196 0.0302432 0.000208199)
(9.75425 0.0146954 0.0290777)
(9.75216 0.0112678 0.0408876)
(9.81557 -0.0348952 -0.0727826)
(9.75039 -0.0605768 -0.0999092)
(9.75691 -0.0539883 -0.0738052)
(9.68471 -0.0544567 -0.0313154)
(9.75733 -0.0202065 -0.00856288)
(9.76716 0.0129051 0.0884783)
(9.78733 0.000382313 0.0696911)
(9.6987 -0.1239 -0.0200933)
(9.64661 -0.0999949 -0.0138124)
(9.66918 -0.0145168 -0.0301498)
(9.80118 0.0792277 -0.0852308)
(9.77582 0.044657 -0.0655007)
(9.79294 0.0290345 0.0551228)
(9.79427 0.0168217 0.136312)
(9.77948 0.0379738 0.123059)
(9.75231 -0.018684 0.0583554)
(9.87785 -0.0382129 0.0286165)
(9.81835 0.0616076 0.0330046)
(9.70076 0.0926998 -0.01078)
(9.75231 -0.0380663 -0.0286652)
(9.59552 -0.170798 -0.0131116)
(9.51569 -0.0570945 0.0317689)
(9.5241 -0.0212542 -0.041331)
(9.61532 -0.00583288 -0.0365556)
(9.62248 0.0641394 0.0289629)
(9.79747 0.0369723 0.0780578)
(9.77007 0.0161871 0.057992)
(9.66687 0.003338 0.0607801)
(9.62282 -0.0243474 -0.0448539)
(9.70477 -0.0158256 -0.0450272)
(9.75902 0.0222553 0.00125103)
(9.68237 -0.000151611 0.035935)
(9.74382 0.0389714 -0.0191021)
(9.77855 0.081659 -0.0693689)
(9.77728 -0.00658317 -0.0112598)
(9.68161 -0.0300858 0.0146893)
(9.69977 -0.029597 0.00206409)
(9.7402 -0.0516203 0.00800411)
(9.68934 -0.117858 -0.0367666)
(9.68995 -0.0625538 -0.0577791)
(9.70628 0.044244 -0.0318891)
(9.70972 0.200919 0.0174905)
(9.66048 0.129985 0.0371674)
(9.65762 -0.0159147 0.0765369)
(9.72789 -0.0379594 0.0325838)
(9.7382 -0.00857747 -0.0530109)
(9.88051 -0.0237105 -0.0244409)
(9.82988 -0.0415142 -0.00236993)
(9.797 0.102178 -0.0402646)
(9.87917 0.0576742 0.0325056)
(9.82229 -0.00976944 0.0637157)
(9.6208 -0.0236762 0.139866)
(9.41014 -0.0120841 -0.0648911)
(9.52637 -0.0529548 -0.100255)
(9.68217 -0.0100027 -0.114752)
(9.78684 0.00871254 -0.101133)
(9.75207 0.0351552 0.0154897)
(9.66479 0.0378035 0.139232)
(9.7379 0.004581 0.0910379)
(9.9268 -0.0316887 -0.0375627)
(9.87953 -0.0211492 -0.0315905)
(9.69825 -0.0287538 0.0678573)
(9.72288 -0.0494556 0.0584927)
(9.65999 -0.0302912 -0.0135339)
(9.73132 -0.01084 0.0196295)
(9.74292 0.0210481 0.00844617)
(9.74859 0.0857691 -0.0330458)
(9.70991 0.0848755 -0.0681948)
(9.7554 0.00641841 -0.00121303)
(9.81854 -0.0295434 -0.0285262)
(9.94325 -0.0562336 -0.0537522)
(10.0119 -0.0998914 0.00756651)
(9.9118 -0.0675849 0.0808304)
(9.89794 -0.00389961 0.104433)
(9.79963 0.0944802 -0.00516522)
(9.77413 0.0644168 -0.0163707)
(9.77756 -0.000906627 0.00270453)
(9.97285 -0.0620986 0.0177819)
(9.92485 -0.040171 0.0354745)
(9.77725 0.061914 -0.0070267)
(9.86473 0.12613 0.0829684)
(9.74813 0.123948 0.0352114)
(9.74803 -0.162779 0.00981024)
(9.67428 -0.217856 0.0676117)
(9.55398 -0.0678217 0.0821152)
(9.50222 0.0768266 -0.0514214)
(9.55228 0.0704063 -0.0438379)
(9.75232 0.0630042 -0.12521)
(9.80537 0.0134732 -0.0825574)
(9.75632 -0.023341 0.0559974)
(9.77081 0.0537321 0.122096)
(9.77085 0.0755515 -0.000725707)
(9.80314 0.00223253 -0.0565855)
(9.78507 -0.0175787 0.0117506)
(9.74619 -0.0175375 0.0882944)
(9.69277 -0.0966708 0.0738672)
(9.72309 -0.126861 0.0230817)
(9.72418 -0.0907858 -0.0570472)
(9.76637 0.0775833 -0.0364478)
(9.72858 0.0367056 -0.0459019)
(9.78196 -0.0437636 -0.0489955)
(9.80752 -0.040895 0.0243252)
(9.76857 -0.00739404 0.0229775)
(9.70258 0.00906209 0.0341721)
(9.76218 -0.0281863 0.0030307)
(9.72497 -0.0907755 -0.0364302)
(9.77232 -0.0312 0.0194214)
(9.63173 0.0518881 0.0264866)
(9.66458 0.0731754 0.00280087)
(9.77548 0.060921 -0.128766)
(9.97445 -0.0324595 -0.050448)
(10.0097 -0.00333935 0.0624029)
(9.86687 0.0130007 0.0248532)
(9.84595 0.0352954 0.027)
(9.58632 0.0642404 0.0870803)
(9.54055 -0.072827 0.0197737)
(9.63277 -0.103067 -0.0137897)
(9.75534 -0.0397202 -0.0217861)
(9.63559 0.0473232 -0.0574627)
(9.6903 0.0599691 -0.052074)
(9.81863 0.0647816 0.000185054)
(9.76724 0.0332516 0.0188012)
(9.79339 0.021182 0.047308)
(9.80902 0.0194569 0.00301317)
(9.70387 0.0161726 -0.0583811)
(9.79383 0.0489641 0.0193579)
(9.71731 0.0636749 0.0892948)
(9.67879 0.0397122 0.0978285)
(9.72878 -0.134279 0.0329541)
(9.77591 -0.0784018 -0.0534866)
(9.78702 -0.0207786 -0.0462203)
(9.70121 -0.0150285 0.0400663)
(9.73073 -0.0407766 0.0108744)
(9.83763 -0.0312802 -0.0419287)
(9.79876 0.0133564 -0.0187599)
(9.59683 0.0289054 0.0501259)
(9.59094 0.0339956 0.0225628)
(9.76895 -0.0489682 -0.124424)
(9.80589 -0.0657875 -0.0865825)
(9.72106 -0.0617098 -0.00559649)
(9.54116 0.0939599 0.0898498)
(9.60041 0.159596 0.0994391)
(9.75763 0.00358022 -0.0606297)
(9.83459 -0.0427844 -0.0150792)
)
;

boundaryField
{
    wall
    {
        type            fixedValue;
        value           uniform (0 0 0);
    }
    outlet
    {
        type            cyclic;
    }
    inlet
    {
        type            cyclic;
    }
    procBoundary3to2
    {
        type            processor;
        value           nonuniform List<vector> 
256
(
(9.77081 -0.0612194 -0.0462223)
(9.78116 -0.0206826 0.0145551)
(10.2016 0.055207 0.101295)
(10.1887 0.0630739 0.0831714)
(9.96231 0.0301956 -0.164561)
(9.58918 -0.0509444 -0.264783)
(9.47311 -0.0668202 0.0583917)
(9.70602 -0.0131703 0.0648618)
(9.93254 0.0193382 -0.0788828)
(9.96728 0.0167063 -0.0330743)
(9.92429 0.018652 0.0183513)
(9.96173 0.00742737 -0.0419859)
(9.98549 -0.0121985 -0.0843509)
(9.92319 0.0354008 -0.0330367)
(9.91925 0.0425787 0.0739985)
(9.95403 -0.00930408 0.0419958)
(9.98526 -0.0348928 -0.00377466)
(10.0407 0.046375 -0.0083452)
(9.98339 0.0495641 0.0230215)
(9.82525 -0.0248749 0.100693)
(9.78723 -0.00698161 0.0043096)
(9.85285 -0.00613649 -0.0478782)
(10.06 0.0403948 -0.0813258)
(10.0233 0.0492406 -0.0486679)
(10.047 0.0495278 -0.0210172)
(10.0616 -0.036111 0.00489865)
(10.0549 -0.0462935 0.038987)
(9.73343 -0.0903369 0.0984044)
(9.74834 -0.0972659 0.0908834)
(10.1898 0.0687571 0.119675)
(10.1192 0.0350571 0.109619)
(10.0342 -0.100507 -0.0206371)
(10.1944 0.0349191 -0.0207788)
(10.1893 0.201731 0.0569357)
(10.1907 0.111592 0.0882832)
(10.2061 -0.0373988 0.0609004)
(10.0957 -0.00319694 -0.0731092)
(9.59981 0.0011652 -0.215116)
(9.63634 -0.0489565 -0.124941)
(9.91917 -0.046015 0.0730244)
(10.0389 0.050252 0.0221026)
(10.0429 -0.00294588 0.00910382)
(10.0271 -0.0463042 0.0549015)
(10.0505 -0.0391559 0.0237537)
(10.1178 -0.0801022 -0.0572642)
(10.1058 -0.0434596 -0.0494363)
(9.99386 0.0376397 0.0293371)
(9.91477 -0.0350848 0.0933969)
(10.0194 -0.0152982 0.0292197)
(10.1599 0.0445014 0.00845596)
(10.0934 0.0571946 0.0686367)
(9.93572 -0.00534469 0.00169011)
(9.92478 -0.00922941 -0.0115908)
(9.97876 -0.0199322 -0.032999)
(10.1309 0.0141109 -0.0640631)
(10.0847 0.0458687 -0.0626757)
(10.0922 0.0795336 -0.0605132)
(10.0955 0.0362141 -0.0292267)
(10.0099 -0.0546215 0.020391)
(9.97018 -0.0383571 0.076862)
(10.0815 -0.00762992 0.0720369)
(10.1353 0.0532402 -0.00423734)
(10.0251 -0.0350089 0.0299228)
(10.0768 -0.115342 0.0280579)
(10.2314 0.120773 0.016915)
(10.252 0.133686 0.0417241)
(10.1492 -0.0484449 0.0929002)
(10.0991 -0.155617 0.0179705)
(10.0328 -0.0964149 -0.0375474)
(9.80194 0.106874 -0.212219)
(9.57984 0.0703618 -0.0354637)
(9.82901 -0.0194566 0.00695811)
(10.0888 -0.00321935 -0.0779169)
(9.97075 -0.0425444 -0.0542084)
(9.99036 -0.103881 0.0607305)
(10.0359 -0.0613473 0.0474321)
(10.122 0.00259269 -0.0323256)
(10.083 -0.013725 -0.0300891)
(10.0031 -0.0155121 0.0001187)
(9.99976 0.0183511 -0.0286298)
(10.1548 0.0314654 -0.0705875)
(10.1395 -0.0191838 -0.0753383)
(9.9995 -0.0898594 -0.0404981)
(9.87841 0.00966724 0.0458736)
(9.90372 -0.0166126 0.0648285)
(10.0816 0.0738261 0.00234901)
(10.1525 0.0718842 0.0537921)
(10.1093 0.0298912 0.0723932)
(10.0934 0.0201177 0.0371182)
(10.1112 0.0402295 -0.0911917)
(9.94767 -0.0180091 -0.111441)
(9.95424 -0.00708228 0.0180106)
(10.0705 0.0116587 0.0382081)
(10.1313 -0.0553734 0.0217097)
(10.0514 -0.0333035 0.113601)
(10.0943 0.0425346 0.0731129)
(10.0389 -0.0147591 -0.0348977)
(9.96035 -0.0602555 -0.00473066)
(10.1446 -0.0610078 0.0592803)
(10.1998 -0.0725409 0.036672)
(10.0766 -0.153487 -0.0527092)
(9.99876 -0.0729814 -0.113792)
(9.65546 -0.0154039 -0.0623824)
(9.68326 0.098182 0.00508155)
(9.83064 0.0291614 0.0512062)
(10.0908 -0.0651485 0.0887649)
(10.1701 -0.0624108 0.0566294)
(10.072 0.0209539 0.0209258)
(10.0858 0.167582 0.0372109)
(10.1286 0.126251 0.0329976)
(10.0456 0.0248514 -0.0333749)
(10.0236 -0.010253 -0.0466846)
(10.1066 -0.0125041 0.0268608)
(10.0958 -0.0483364 0.0288717)
(10.0841 -0.0521066 0.0120812)
(9.99514 -0.063482 0.0615637)
(9.90986 -0.0251259 0.0218201)
(10.0713 0.101912 -0.0593908)
(10.1973 0.1064 0.00972768)
(10.0622 0.0227353 0.0885281)
(10.0073 -0.00245419 0.0443792)
(10.0522 -0.00909859 -0.129696)
(10.0036 -0.0340946 -0.0791611)
(9.9906 -0.0292279 0.0326259)
(10.0592 0.0715726 0.0395713)
(10.0475 0.0344882 -0.0422167)
(10.204 -0.00678296 -0.0482174)
(10.2049 0.00087154 -0.0206277)
(10.0751 -0.110037 0.0115647)
(10.0637 0.0954272 -0.0106962)
(10.0863 0.143068 0.00759943)
(10.0995 -0.0789181 0.121535)
(9.96307 -0.158112 0.0432211)
(9.87943 -0.149038 -0.0847902)
(9.85803 -0.0428134 -0.058856)
(9.84393 0.142636 0.0183151)
(9.85647 0.0882077 0.0173311)
(9.98609 0.0893767 -0.0287852)
(10.1605 0.0635306 0.115697)
(10.2155 0.0505733 0.145106)
(10.195 0.0270201 0.0184105)
(10.02 -0.0413025 -0.0238343)
(9.91119 -0.0599306 -0.082866)
(10.0055 -0.0295339 -0.0724826)
(10.13 -0.0244061 0.039328)
(10.1036 -0.0213132 0.00766301)
(10.0356 -0.0591245 -0.0792271)
(10.0074 -0.0514936 -0.0346167)
(9.98399 0.0378894 -0.0282942)
(10.1111 0.0593864 -0.03969)
(10.1601 0.0127915 -0.0421902)
(10.0165 -0.0890441 0.0353477)
(9.99629 -0.0437253 0.0345836)
(10.0973 0.0523111 -0.0533112)
(10.0462 0.023813 -0.0463825)
(10.0032 0.0630927 -0.0764775)
(10.0922 0.146134 0.0661923)
(10.0113 0.0688067 0.0790399)
(10.03 0.0055396 -0.0259029)
(10.1722 -0.132642 -0.0181422)
(10.2501 0.0529727 -0.0451104)
(10.2167 0.0949134 -0.106493)
(10.0537 0.126346 -0.0758488)
(9.87001 -0.15322 0.0773597)
(9.92386 -0.168828 0.0971026)
(10.0306 -0.0753523 0.0850455)
(10.0507 -0.019338 0.024091)
(9.98106 0.0256926 -0.00900637)
(9.74438 0.0897298 0.01426)
(9.84706 0.083737 -0.0100505)
(10.1224 0.0283288 0.0179478)
(10.2481 0.102281 0.0576191)
(10.1478 0.123759 -0.00351901)
(9.97678 -0.0871955 0.000564712)
(9.97971 -0.0883839 0.0374118)
(10.0897 -0.0108169 0.00083118)
(10.0543 0.00418107 0.0141446)
(10.0184 0.00598371 0.0122343)
(10.0367 0.0353376 0.0185809)
(10.0149 0.0264729 0.0253962)
(10.0131 -0.0449685 0.0171716)
(10.1073 -0.0488385 0.0147386)
(10.0638 -0.0779008 -0.00151214)
(10.0528 -0.113702 -0.00683451)
(10.1453 -0.0382012 -0.0878811)
(10.0791 -0.0158349 -0.0499596)
(10.098 0.00613392 0.0162667)
(10.1096 0.0535825 0.00733079)
(10.0563 0.095964 -0.0624405)
(9.86646 -0.0285898 -0.00528127)
(9.8632 -0.0547826 0.032715)
(10.2345 -0.0097201 0.017645)
(10.1966 0.0898972 -0.0836968)
(10.1668 0.0692237 -0.107191)
(9.91937 -0.0366186 -0.0528448)
(9.86867 -0.0944165 0.0076945)
(10.0202 -0.0880345 0.107502)
(10.0804 -0.0702534 0.154444)
(10.0285 -0.0631859 0.016376)
(9.9547 -0.0811579 -0.0613186)
(9.96957 -0.0894901 0.00760917)
(9.92344 0.0345259 0.0422451)
(9.98715 0.0429814 0.0320283)
(10.2766 0.10328 0.0806839)
(10.2331 0.137595 0.109234)
(9.9112 0.0598565 -0.0716151)
(9.76367 -0.0303232 -0.170607)
(9.9002 -0.0737938 -0.108307)
(10.074 -0.0597228 -0.140588)
(10.0623 -0.0180664 -0.0848305)
(10.0272 0.0213446 0.0478331)
(10.0506 -0.0489126 0.113118)
(10.073 -0.0168645 0.0836058)
(10.0748 0.00261418 0.0566313)
(10.0062 -0.0520929 0.00642232)
(10.0356 0.00747061 -0.00281363)
(10.2098 0.00381917 0.00191598)
(10.0879 -0.0239434 0.0783126)
(10.0447 -0.0141152 0.0601281)
(10.1609 -0.0129269 -0.00210326)
(9.99472 -0.0657757 -0.0942181)
(9.91983 0.0501417 -0.0646388)
(9.93536 0.128952 0.0601386)
(10.1705 0.0978362 0.0233515)
(10.128 0.0304785 -0.0341793)
(10.1164 0.0547409 -0.069707)
(9.73583 0.000264654 -0.103266)
(9.73508 0.0241706 -0.0696039)
(9.81659 0.0383683 -0.0337883)
(9.89829 -0.0758033 0.0213857)
(9.8732 -0.0797616 -0.0318594)
(9.89714 -0.08183 0.00595243)
(9.88849 -0.0655359 0.112121)
(9.91083 0.0415871 0.133998)
(9.98342 0.0668359 0.0997898)
(10.1408 0.0466716 0.105572)
(10.0611 0.00345675 0.0784678)
(9.81271 0.0299212 -0.0448549)
(9.82889 0.0406958 -0.0259781)
(9.9333 0.0016152 -0.0456412)
(10.0262 -0.0421204 -0.207155)
(9.9618 -0.0207511 -0.168417)
(9.83844 -0.0515115 0.11963)
(9.92154 -0.0768477 0.0940475)
(10.0643 0.0301029 0.0212574)
(9.99135 0.0529604 0.0455903)
(9.96222 0.0397074 0.0688351)
(9.9988 0.0462587 -0.049041)
(9.9853 0.0358467 -0.0831851)
(9.93248 0.00646239 0.108564)
(9.96412 0.00376703 0.108302)
(10.07 -0.0359035 -0.0522094)
(9.91757 -0.0324541 -0.10972)
(9.88615 0.0135368 -0.054316)
(9.89801 0.0491484 0.012489)
(10.0701 0.00145512 -0.0161148)
)
;
    }
}


// ************************************************************************* //
