/*--------------------------------*- C++ -*----------------------------------*\
| =========                 |                                                 |
| \\      /  F ield         | OpenFOAM: The Open Source CFD Toolbox           |
|  \\    /   O peration     | Version:  2506                                  |
|   \\  /    A nd           | Website:  www.openfoam.com                      |
|    \\/     M anipulation  |                                                 |
\*---------------------------------------------------------------------------*/
FoamFile
{
    version     2.0;
    format      ascii;
    arch        "LSB;label=32;scalar=64";
    class       volVectorField;
    location    "0.05";
    object      U;
}
// * * * * * * * * * * * * * * * * * * * * * * * * * * * * * * * * * * * * * //

dimensions      [0 1 -1 0 0 0 0];

internalField   nonuniform List<vector> 
1152
(
(0.000320329 -0.00087574 0.0123758)
(0.000173343 -0.00135807 0.0218033)
(-0.000419727 -0.000877009 0.0112132)
(0.00167268 -0.00219699 0.0139647)
(-0.000649939 -0.00141889 0.0215775)
(-0.000397811 -0.00137327 0.0107002)
(-0.000187858 -0.000619114 0.0142197)
(0.000817565 -9.63597e-05 0.0117646)
(-0.000708126 -0.000661195 0.0149673)
(0.000246377 -0.00141605 0.0164)
(0.00107183 0.000274845 0.0114631)
(0.00107055 0.000230938 0.0205312)
(-0.00212852 0.000940653 0.0122861)
(0.000390363 0.000956334 0.0101114)
(0.000893473 0.00128814 0.00784532)
(0.000864131 0.000242927 0.00392087)
(-7.33742e-05 -0.00060712 0.00704148)
(-4.54965e-05 -6.8718e-05 0.0303309)
(0.00104251 -0.000208991 0.020717)
(0.000431246 -0.000933569 0.0204747)
(0.000603208 -0.00122889 0.0196543)
(0.00206933 0.00083002 0.0267077)
(0.000694718 0.000366204 0.0255169)
(0.000833485 -0.000327533 0.0186402)
(-0.000917297 0.000908328 0.0131272)
(0.0010122 0.000451131 0.0158719)
(-0.000324254 0.000790356 0.0242242)
(0.000625477 0.000902466 0.0221428)
(0.000525062 0.00033697 0.0204075)
(0.000243667 -0.000181167 0.0115118)
(0.00218771 -0.000489656 0.0346374)
(0.000299125 0.00153121 0.0295761)
(-0.00248114 0.000742353 0.0362577)
(-0.000729808 8.42532e-05 0.029274)
(0.000209505 -0.000217595 0.0245444)
(-0.000860821 0.00182865 0.0247223)
(7.85857e-05 0.000158999 0.0223199)
(-0.000575136 0.000710581 0.0233792)
(0.000751561 -0.00024175 0.0224121)
(0.000711308 0.000278488 0.0235904)
(0.000587336 -0.000341107 0.0231489)
(-0.000883629 0.00120114 0.0341087)
(-0.000484695 -0.000549046 0.0250803)
(0.00107204 -0.00125017 0.025584)
(0.00239031 -0.00056528 0.0266491)
(-4.31656e-05 -0.00118253 0.0184986)
(-0.00131248 -0.000390291 0.0226319)
(0.000657372 -4.16332e-05 0.0238939)
(-0.000886133 -0.000913137 0.0178338)
(0.000420139 -0.00205812 0.0272226)
(0.000940577 0.000387286 0.0205462)
(0.00114784 0.000691032 0.0255039)
(-0.00229401 0.0012319 0.028996)
(0.00073345 0.000890741 0.0308912)
(0.00117493 0.00115471 0.0235122)
(0.000357359 0.00114281 0.0322262)
(0.00136674 2.10264e-05 0.0172141)
(0.00087027 0.00146047 0.0228982)
(0.000620442 7.59134e-05 0.0143822)
(-0.000897366 0.000705385 0.0223325)
(0.0031715 0.00061967 0.0278625)
(0.000973598 -0.000363124 0.0316667)
(0.000489703 -0.00196933 0.0292321)
(-0.000300137 -0.00129451 0.0176408)
(0.000394828 -0.00204522 0.0203634)
(-0.000744535 -0.00146561 0.0190573)
(0.000201462 -0.00101489 0.0238265)
(0.00147064 -0.000150576 0.0243073)
(-1.13415e-05 -0.000556001 0.00912585)
(-0.000537629 -5.80753e-05 0.0159969)
(0.00129423 -2.19107e-05 0.0228644)
(0.00245976 -0.000346758 0.0253751)
(-0.000251143 -0.00083949 0.0307885)
(-0.000493024 0.00111127 0.0260692)
(-0.000444508 0.000144741 0.0336701)
(0.00113202 0.000579867 0.0309984)
(-0.00102112 9.26173e-05 0.0135495)
(8.63725e-06 0.00396829 0.037319)
(0.00044494 0.000501432 0.0171866)
(0.00101863 0.000246495 0.0455566)
(-0.000251861 -0.00240061 0.0167245)
(-7.8514e-05 -0.00116588 0.0150216)
(0.000433228 -0.00233312 0.0109476)
(-0.000344608 -0.000733198 0.0129432)
(0.000836685 -0.00309037 0.0217441)
(0.000300508 -0.00159954 0.0121788)
(0.00130964 -0.00253457 0.0134848)
(0.00119113 -0.00134296 0.0149092)
(-0.000417399 8.82018e-05 0.0145277)
(-0.00147234 -0.000889851 0.0225035)
(0.00101558 -6.86691e-05 0.0119446)
(0.00236579 0.00029832 0.00844251)
(-0.000647761 0.00102888 0.0104342)
(0.000130787 0.00105297 0.0152975)
(0.00155256 0.00211183 0.0108649)
(0.00243805 0.00338785 0.0177555)
(0.000155775 0.000548134 0.0180755)
(0.000362705 7.62023e-05 0.0152224)
(9.14711e-05 -0.000192553 0.0102223)
(-0.000331375 0.000228934 0.018413)
(0.000193737 7.0432e-05 0.00719033)
(5.06058e-05 -0.00019216 0.00894457)
(7.09803e-05 -0.000104262 0.0118606)
(2.81922e-05 0.000179207 0.0155401)
(-1.89842e-05 6.79293e-05 0.0141704)
(0.000236331 -0.000313145 0.0187969)
(0.000151586 -0.000141712 0.00862084)
(-0.000445199 0.00054008 0.0123196)
(-2.87589e-06 -0.000166224 0.00654435)
(-0.000109318 6.04371e-06 0.0138083)
(-2.2567e-05 -0.00029021 0.00802196)
(-0.000270481 -0.000261353 0.0261197)
(0.000278702 0.000337716 0.0251766)
(0.000295586 -7.89324e-05 0.0196977)
(9.60733e-05 0.000306645 0.0172076)
(0.000377623 -0.000248876 0.0231542)
(9.37906e-05 6.34359e-05 0.0174714)
(4.61697e-05 -0.00037984 0.0137217)
(-6.36105e-05 -0.000232313 0.0157958)
(-8.03143e-05 -0.000420892 0.0217312)
(-0.000242772 -7.75111e-05 0.0197822)
(2.77692e-05 -0.000520015 0.0241257)
(5.56241e-05 -0.000476019 0.0129386)
(-0.00043521 -0.000770501 0.0194684)
(-0.000165331 -0.000499053 0.0121699)
(-0.000322295 -0.000161758 0.0166641)
(-0.000357557 -0.000531978 0.0112393)
(-6.37791e-05 -0.000714018 0.0265053)
(0.000648414 0.00110209 0.0071686)
(0.000543221 0.000868035 0.00602877)
(-0.000407593 0.00108234 0.00570543)
(-0.000686742 0.000453616 0.00665429)
(0.000756704 0.000771468 0.00565504)
(0.000308007 0.000177669 0.00496259)
(-0.000691926 0.000606175 0.00517)
(-0.00118911 0.000325115 0.00653921)
(3.63367e-05 0.000455841 0.00575236)
(0.000427056 5.95513e-05 0.00617343)
(-0.000166895 0.000197504 0.00495916)
(-0.00112191 -0.000113516 0.00641718)
(0.000257518 -0.000458417 0.00500219)
(6.37198e-05 -0.000145163 0.00559443)
(-0.000830764 -0.000657727 0.00529079)
(-0.000937088 -0.000368161 0.00759323)
(0.000286466 0.00067507 0.0119592)
(0.000237234 0.000541565 0.0114699)
(-0.000126448 0.000505535 0.0114187)
(-0.00025709 8.25202e-05 0.0118749)
(0.000275212 0.000485698 0.0112388)
(8.75051e-05 0.000221924 0.0109241)
(-0.000344649 0.000269357 0.0110106)
(-0.000555771 2.92828e-05 0.0117304)
(1.15105e-05 0.00023564 0.0111435)
(4.93003e-05 5.41427e-05 0.0112387)
(-0.000263474 1.01936e-05 0.0108693)
(-0.000620315 -0.00013111 0.0116065)
(3.45522e-05 -0.000203565 0.0108065)
(-0.000127061 -0.000153361 0.0109038)
(-0.000505987 -0.000349271 0.0108903)
(-0.000585548 -0.000267671 0.0118529)
(0.000108094 0.000353608 0.0108937)
(4.4238e-05 0.000298478 0.0107254)
(-0.000117631 0.000279892 0.0107089)
(-0.000208252 0.000131896 0.0108292)
(8.29524e-05 0.000272784 0.0105992)
(-1.65356e-05 0.000180464 0.0105084)
(-0.000195107 0.000160252 0.0105565)
(-0.00028301 6.69436e-05 0.0108174)
(-9.66854e-08 0.000131699 0.0105205)
(-5.9351e-05 5.76457e-05 0.0105658)
(-0.000207644 1.34099e-05 0.0105238)
(-0.000312457 -4.01017e-05 0.0108208)
(-2.4029e-05 -6.63042e-05 0.0104242)
(-0.000130481 -8.86857e-05 0.0104794)
(-0.000282177 -0.00015319 0.0105609)
(-0.000313814 -0.00014416 0.0109102)
(4.59304e-05 0.00019322 0.0109882)
(6.23679e-06 0.000160864 0.0109392)
(-5.77291e-05 0.000136754 0.0109535)
(-9.71471e-05 6.24259e-05 0.0110153)
(2.32024e-05 0.000150037 0.0108649)
(-3.0037e-05 0.000107798 0.0108431)
(-0.000102029 7.82045e-05 0.010877)
(-0.000136684 2.64801e-05 0.0109811)
(-1.19452e-05 7.2474e-05 0.0108119)
(-6.32134e-05 3.47009e-05 0.0108287)
(-0.000130269 2.42894e-06 0.0108548)
(-0.000164566 -3.06394e-05 0.0109737)
(-3.58522e-05 -2.35722e-05 0.0107804)
(-9.86275e-05 -4.88744e-05 0.0108083)
(-0.000163493 -7.85979e-05 0.0108687)
(-0.00017877 -8.91809e-05 0.0110002)
(1.90972e-05 0.000103975 0.0110334)
(-4.0906e-06 8.52347e-05 0.0110171)
(-3.21049e-05 6.84559e-05 0.0110253)
(-5.10179e-05 3.3956e-05 0.0110472)
(3.69281e-06 8.03655e-05 0.0109772)
(-2.50253e-05 5.84393e-05 0.0109728)
(-5.57507e-05 3.84437e-05 0.0109911)
(-7.09173e-05 1.17025e-05 0.0110314)
(-1.47184e-05 3.91433e-05 0.010947)
(-4.55352e-05 1.84947e-05 0.010956)
(-7.57412e-05 -1.3893e-06 0.01098)
(-8.90575e-05 -2.11889e-05 0.0110302)
(-3.07764e-05 -9.65259e-06 0.0109353)
(-6.50917e-05 -2.66133e-05 0.0109521)
(-9.40113e-05 -4.34372e-05 0.0109875)
(-0.000101267 -5.45856e-05 0.011044)
(7.11266e-06 5.56589e-05 0.0110593)
(-5.51255e-06 4.48645e-05 0.0110536)
(-1.83668e-05 3.43151e-05 0.0110586)
(-2.73825e-05 1.73155e-05 0.0110688)
(-2.53645e-06 4.26946e-05 0.0110314)
(-1.76467e-05 3.05209e-05 0.0110314)
(-3.15288e-05 1.83353e-05 0.0110418)
(-3.87267e-05 3.94473e-06 0.0110599)
(-1.31457e-05 2.07839e-05 0.0110147)
(-2.98302e-05 8.94061e-06 0.0110208)
(-4.38429e-05 -2.96299e-06 0.0110358)
(-4.97198e-05 -1.47316e-05 0.0110597)
(-2.32616e-05 -4.79215e-06 0.0110094)
(-4.12422e-05 -1.53645e-05 0.0110201)
(-5.46399e-05 -2.55144e-05 0.0110403)
(-5.80497e-05 -3.3652e-05 0.0110681)
(1.54957e-06 2.98904e-05 0.0110754)
(-5.1005e-06 2.3594e-05 0.0110733)
(-1.1245e-05 1.71227e-05 0.0110762)
(-1.5645e-05 8.32663e-06 0.0110813)
(-4.38045e-06 2.26707e-05 0.011061)
(-1.22281e-05 1.56629e-05 0.011062)
(-1.88233e-05 8.35127e-06 0.0110678)
(-2.24082e-05 3.31387e-07 0.0110768)
(-1.07632e-05 1.08383e-05 0.0110521)
(-1.94575e-05 3.87898e-06 0.0110562)
(-2.6187e-05 -3.23579e-06 0.0110649)
(-2.89478e-05 -1.02062e-05 0.0110771)
(-1.71139e-05 -2.76539e-06 0.0110494)
(-2.62575e-05 -9.33261e-06 0.0110563)
(-3.26746e-05 -1.55586e-05 0.0110678)
(-3.42015e-05 -2.08755e-05 0.0110824)
(-9.68059e-07 1.60912e-05 0.0110849)
(-4.40954e-06 1.23427e-05 0.0110842)
(-7.42762e-06 8.39061e-06 0.0110859)
(-9.60004e-06 3.64531e-06 0.0110886)
(-4.61899e-06 1.20353e-05 0.0110773)
(-8.66642e-06 7.88645e-06 0.0110784)
(-1.18865e-05 3.4871e-06 0.0110817)
(-1.36777e-05 -1.1069e-06 0.0110865)
(-8.54085e-06 5.54428e-06 0.0110726)
(-1.29956e-05 1.378e-06 0.0110753)
(-1.62812e-05 -2.89569e-06 0.0110805)
(-1.75612e-05 -7.03554e-06 0.0110871)
(-1.25575e-05 -1.75773e-06 0.0110713)
(-1.7097e-05 -5.84973e-06 0.0110756)
(-2.01953e-05 -9.68746e-06 0.0110824)
(-2.07699e-05 -1.30173e-05 0.0110905)
(-1.97419e-06 8.67666e-06 0.0110902)
(-3.74007e-06 6.40023e-06 0.0110901)
(-5.2304e-06 3.97994e-06 0.0110911)
(-6.28445e-06 1.3098e-06 0.0110927)
(-4.23351e-06 6.39689e-06 0.0110862)
(-6.32275e-06 3.87612e-06 0.0110871)
(-7.89294e-06 1.21197e-06 0.0110891)
(-8.74683e-06 -1.48042e-06 0.0110919)
(-6.66244e-06 2.80436e-06 0.0110837)
(-8.9496e-06 2.53489e-07 0.0110856)
(-1.05306e-05 -2.33938e-06 0.0110887)
(-1.10626e-05 -4.81624e-06 0.0110925)
(-9.19195e-06 -1.21598e-06 0.0110831)
(-1.14669e-05 -3.7431e-06 0.0110859)
(-1.29095e-05 -6.1086e-06 0.01109)
(-1.29987e-05 -8.15679e-06 0.0110947)
(-2.21993e-06 4.68067e-06 0.0110931)
(-3.1191e-06 3.27593e-06 0.0110933)
(-3.84265e-06 1.7869e-06 0.011094)
(-4.32057e-06 2.37247e-07 0.011095)
(-3.62686e-06 3.39794e-06 0.011091)
(-4.70477e-06 1.83306e-06 0.0110917)
(-5.44613e-06 2.02881e-07 0.0110931)
(-5.80987e-06 -1.39424e-06 0.0110947)
(-5.13281e-06 1.40578e-06 0.0110897)
(-6.32697e-06 -1.88401e-07 0.011091)
(-7.03979e-06 -1.78307e-06 0.011093)
(-7.18862e-06 -3.27331e-06 0.0110953)
(-6.68833e-06 -9.05151e-07 0.0110894)
(-7.89526e-06 -2.43441e-06 0.0110913)
(-8.49908e-06 -3.87959e-06 0.0110939)
(-8.35652e-06 -5.12954e-06 0.0110967)
(-2.09059e-06 2.51312e-06 0.0110948)
(-2.5436e-06 1.63922e-06 0.011095)
(-2.87613e-06 7.23089e-07 0.0110955)
(-3.06072e-06 -1.8955e-07 0.0110962)
(-2.96966e-06 1.77993e-06 0.0110936)
(-3.51923e-06 8.0826e-07 0.0110942)
(-3.84336e-06 -1.87101e-07 0.0110951)
(-3.9549e-06 -1.14143e-06 0.0110962)
(-3.89716e-06 6.87662e-07 0.0110929)
(-4.51539e-06 -3.12727e-07 0.0110939)
(-4.80337e-06 -1.29289e-06 0.0110952)
(-4.77383e-06 -2.19098e-06 0.0110967)
(-4.81698e-06 -6.77895e-07 0.0110928)
(-5.50036e-06 -1.59123e-06 0.0110942)
(-5.69925e-06 -2.46393e-06 0.0110958)
(-5.476e-06 -3.21841e-06 0.0110977)
(-1.78588e-06 1.33087e-06 0.0110957)
(-2.00874e-06 7.9232e-07 0.011096)
(-2.14955e-06 2.34252e-07 0.0110964)
(-2.18953e-06 -3.04436e-07 0.0110969)
(-2.33308e-06 9.07896e-07 0.011095)
(-2.60137e-06 3.13868e-07 0.0110956)
(-2.72484e-06 -2.84901e-07 0.0110962)
(-2.71711e-06 -8.501e-07 0.011097)
(-2.89911e-06 3.09943e-07 0.0110947)
(-3.2016e-06 -3.0094e-07 0.0110955)
(-3.29413e-06 -8.91599e-07 0.0110964)
(-3.19809e-06 -1.4269e-06 0.0110974)
(-3.42377e-06 -4.87857e-07 0.0110946)
(-3.80226e-06 -1.02634e-06 0.0110956)
(-3.83361e-06 -1.54455e-06 0.0110968)
(-3.61456e-06 -1.99342e-06 0.011098)
(-1.41208e-06 6.87249e-07 0.0110962)
(-1.51649e-06 3.63673e-07 0.0110965)
(-1.56783e-06 3.32313e-08 0.0110968)
(-1.54659e-06 -2.80747e-07 0.0110972)
(-1.74775e-06 4.4939e-07 0.0110959)
(-1.86815e-06 9.42278e-08 0.0110963)
(-1.90201e-06 -2.57732e-07 0.0110968)
(-1.84794e-06 -5.85621e-07 0.0110974)
(-2.08936e-06 1.13631e-07 0.0110957)
(-2.22141e-06 -2.39829e-07 0.0110963)
(-2.23102e-06 -5.83601e-07 0.011097)
(-2.12434e-06 -8.94742e-07 0.0110977)
(-2.38244e-06 -3.28615e-07 0.0110957)
(-2.56389e-06 -6.41335e-07 0.0110965)
(-2.54345e-06 -9.43171e-07 0.0110973)
(-2.36342e-06 -1.20482e-06 0.0110981)
(-1.02501e-06 3.35772e-07 0.0110966)
(-1.07114e-06 1.49848e-07 0.0110969)
(-1.08268e-06 -3.89235e-08 0.0110971)
(-1.04253e-06 -2.14358e-07 0.0110974)
(-1.22338e-06 2.08194e-07 0.0110964)
(-1.27175e-06 6.57183e-09 0.0110968)
(-1.26916e-06 -1.91951e-07 0.0110972)
(-1.20617e-06 -3.75282e-07 0.0110976)
(-1.4195e-06 2.67134e-08 0.0110963)
(-1.46854e-06 -1.70357e-07 0.0110968)
(-1.45143e-06 -3.61919e-07 0.0110973)
(-1.35963e-06 -5.35722e-07 0.0110978)
(-1.59494e-06 -2.01006e-07 0.0110963)
(-1.65863e-06 -3.83131e-07 0.0110969)
(-1.62441e-06 -5.54777e-07 0.0110975)
(-1.48931e-06 -7.02203e-07 0.0110981)
(-6.63356e-07 1.37461e-07 0.0110968)
(-6.81584e-07 3.71077e-08 0.0110971)
(-6.77049e-07 -6.53094e-08 0.0110973)
(-6.38574e-07 -1.59266e-07 0.0110975)
(-7.72197e-07 7.39144e-08 0.0110967)
(-7.89273e-07 -3.31315e-08 0.011097)
(-7.75464e-07 -1.37855e-07 0.0110974)
(-7.23171e-07 -2.33972e-07 0.0110977)
(-8.77464e-07 -1.85161e-08 0.0110966)
(-8.91195e-07 -1.22673e-07 0.0110971)
(-8.69056e-07 -2.2234e-07 0.0110975)
(-8.0309e-07 -3.12693e-07 0.0110979)
(-9.79e-07 -1.25885e-07 0.0110967)
(-9.91582e-07 -2.26921e-07 0.0110972)
(-9.586e-07 -3.19275e-07 0.0110977)
(-8.67657e-07 -3.96717e-07 0.0110981)
(-3.98256e-07 7.0488e-09 0.0110969)
(-4.05189e-07 -4.7165e-08 0.0110972)
(-3.97304e-07 -1.01605e-07 0.0110974)
(-3.69038e-07 -1.50209e-07 0.0110976)
(-4.55385e-07 -2.68946e-08 0.0110969)
(-4.60835e-07 -8.29213e-08 0.0110972)
(-4.47544e-07 -1.3677e-07 0.0110975)
(-4.1411e-07 -1.8571e-07 0.0110978)
(-5.10809e-07 -7.45697e-08 0.0110968)
(-5.13757e-07 -1.28865e-07 0.0110972)
(-4.95033e-07 -1.79769e-07 0.0110976)
(-4.53835e-07 -2.25166e-07 0.0110979)
(-5.65334e-07 -1.26104e-07 0.0110968)
(-5.64882e-07 -1.7778e-07 0.0110973)
(-5.39523e-07 -2.24224e-07 0.0110977)
(-4.85459e-07 -2.62283e-07 0.0110981)
(0.000704552 -0.000961603 0.0155106)
(0.000959883 0.000205379 0.010988)
(0.00170176 -0.00227594 0.0175328)
(-0.000626224 -0.000421272 0.0130244)
(0.000722704 -0.000444892 0.0130718)
(0.00104373 -0.00024891 0.0106428)
(0.00133936 -0.00216939 0.0131987)
(-0.000336463 0.000849687 0.0122046)
(0.00104573 -0.000543618 0.0167487)
(0.000907254 -0.00160846 0.0144611)
(0.00227063 -0.0010691 0.0141216)
(0.00110583 -0.00155444 0.013584)
(0.000703546 -0.00252001 0.0195097)
(0.000211172 -0.000773424 0.0121232)
(0.00150159 -0.00202671 0.0154043)
(0.00115966 -0.0029729 0.0103262)
(-0.000556847 -0.000523873 0.027323)
(-0.000356794 -0.00043185 0.0265278)
(9.46271e-05 0.000657897 0.0352603)
(0.00147091 -0.000902055 0.024039)
(-0.000487131 -0.00178781 0.0197443)
(-8.89564e-05 -0.00194267 0.0326636)
(-0.000314649 0.000283944 0.0152339)
(0.000394367 -0.001613 0.0197334)
(-0.000637992 -0.00338997 0.0286213)
(0.00132354 -0.00219326 0.0248411)
(0.00030979 -0.00096092 0.02452)
(-0.00104191 -0.00311776 0.0576744)
(-0.000953174 1.60584e-05 0.0198333)
(0.00120579 -0.000909708 0.0197175)
(0.000674091 -0.000917611 0.0171583)
(-0.000178375 -0.00066292 0.0210752)
(-0.000373268 -0.000561598 0.0288987)
(-0.00104603 -0.000944898 0.0262746)
(0.000257068 0.000991128 0.0275694)
(0.0022972 -0.00154782 0.0369149)
(-0.0018849 -0.000675789 0.0284093)
(-0.00112597 0.000386045 0.0270401)
(-3.31286e-05 0.000177691 0.0267707)
(0.00175766 -0.00353093 0.0226454)
(0.000163594 -0.000771751 0.0229792)
(-0.000848136 0.000636844 0.0243456)
(-0.00364467 -0.00138135 0.0424345)
(1.63635e-05 -0.000595134 0.0151344)
(-0.000883062 -0.000107822 0.0202413)
(-8.24506e-05 -0.000825653 0.02055)
(-0.00119495 -0.00039305 0.0251684)
(-0.00122205 0.00198025 0.0246681)
(-2.72714e-05 -0.00078936 0.0323464)
(0.000338232 -0.000300628 0.0302942)
(0.000377079 -0.000523242 0.0258618)
(8.42085e-05 0.000319547 0.0428664)
(-0.000293441 0.000756129 0.0217018)
(0.000216099 0.00072901 0.0195034)
(0.000467781 -0.00141117 0.0199889)
(0.00012965 6.01716e-05 0.0203332)
(0.00118401 0.00174196 0.030295)
(-0.00300198 0.00295731 0.0393478)
(-0.000177066 -0.000989621 0.0207866)
(0.00024719 0.00125332 0.0339479)
(0.000637131 -0.000571753 0.0145046)
(-0.000946149 -0.000661164 0.0197356)
(-0.00122541 0.000459783 0.0234092)
(0.000509731 0.00124449 0.017329)
(-4.36171e-05 0.000598841 0.0342257)
(-0.00026205 -0.00057667 0.0213868)
(-0.00271602 -0.000557418 0.0400493)
(-0.00185987 0.00150027 0.02718)
(0.000349933 0.000603773 0.0204411)
(-7.26441e-05 -0.0005289 0.0162403)
(-0.000461182 2.25614e-05 0.0338984)
(-0.000874779 0.00103266 0.0140469)
(-0.000482836 0.00396583 0.0387018)
(-0.000894898 0.00127372 0.030108)
(1.26815e-05 0.00112631 0.0326554)
(-8.62933e-05 0.00100765 0.0124727)
(0.000899489 0.0008074 0.0236749)
(-0.00364169 0.000784678 0.0389312)
(-0.000270209 0.000334746 0.0170937)
(-0.000541957 0.00253147 0.0311366)
(-0.000334219 0.00125007 0.0173892)
(-0.00108515 0.00136814 0.0220207)
(-0.0013982 -0.00074073 0.0134027)
(-0.00191741 0.00147382 0.0189166)
(-0.000608887 0.00101275 0.0142132)
(-0.00115799 0.00104425 0.0106401)
(-0.00295062 0.00233795 0.0167578)
(-0.00268505 0.00397731 0.0198762)
(-0.000122118 -0.000319748 0.012877)
(0.000702063 -0.000790333 0.0123223)
(-0.00101173 0.00132256 0.00717335)
(-0.00259003 0.00242605 0.0144582)
(-0.00389062 -0.00144488 0.0337596)
(0.00162534 -0.00143304 0.015191)
(0.00143353 -0.00167331 0.01849)
(-0.00178545 0.000720261 0.0136725)
(-0.000184422 -0.000186102 0.0171833)
(-0.000140801 -0.000115752 0.0162842)
(-0.000207734 0.00119055 0.0218192)
(4.04994e-05 -3.43761e-05 0.00853317)
(-1.64261e-05 -0.000287879 0.0137736)
(8.11514e-05 -0.000112646 0.0127144)
(0.000304899 -0.00013239 0.0132953)
(0.000125791 -0.00014751 0.0132938)
(-0.000211853 -0.000387266 0.0188442)
(0.000120796 -0.000186034 0.0209163)
(0.000452709 -0.000179353 0.0177536)
(0.000372624 -0.000114182 0.0118914)
(8.59282e-05 -0.000248368 0.0209846)
(-0.000945507 -0.000371732 0.0113945)
(-0.000360932 0.00028891 0.0230132)
(0.000555509 -0.000271553 0.0197223)
(0.000255694 -5.34192e-05 0.0246211)
(0.000143118 -4.44034e-05 0.0243478)
(0.000538246 0.000366363 0.0295726)
(0.000311326 -0.00012195 0.0184381)
(0.000554094 -0.00032518 0.0208739)
(0.000433059 -0.000541985 0.0199506)
(0.000658484 -0.000309748 0.023261)
(0.000592876 -0.000433821 0.0203338)
(2.75263e-05 -0.00046867 0.0248699)
(0.000230088 -0.000245072 0.0232076)
(0.000929187 -0.00069317 0.0228387)
(0.000967822 -0.000639568 0.0197285)
(0.000333292 -5.96266e-05 0.0290454)
(-7.56751e-05 5.01251e-05 0.0203725)
(6.02738e-05 1.62939e-05 0.0228816)
(0.000921701 -0.00054408 0.0229315)
(-5.66664e-05 0.000133197 0.00726753)
(-0.000457623 9.04105e-05 0.007147)
(9.74495e-05 0.000547168 0.00792974)
(0.000158799 -9.6909e-05 0.00553935)
(0.000227661 -4.86292e-05 0.00681992)
(-0.00024265 1.4961e-05 0.0065011)
(-0.000215176 0.00061927 0.00690791)
(0.000180213 -0.000199961 0.00579148)
(-2.94488e-06 -0.000360078 0.00751437)
(6.13497e-05 4.48024e-06 0.0071589)
(-0.000103002 0.000423736 0.00695335)
(0.000186767 -0.000220594 0.00601347)
(0.00029139 0.000278711 0.00805039)
(0.000313626 0.000492464 0.00655112)
(-0.00035031 0.000726423 0.00692847)
(-9.31059e-05 -7.99949e-06 0.00661257)
(9.30192e-05 0.000121963 0.0123846)
(3.72021e-06 0.000124406 0.012236)
(0.000287282 0.000377742 0.0128269)
(0.000184718 8.09258e-05 0.0117331)
(0.000183061 0.000167743 0.0121761)
(6.59592e-05 0.000200323 0.01193)
(0.000132009 0.000495028 0.012382)
(0.000162149 4.54439e-05 0.0118086)
(0.00012075 0.000146214 0.0123377)
(0.000180134 0.000242464 0.0120278)
(0.000127152 0.000450521 0.012177)
(0.000128803 1.35277e-05 0.0118834)
(0.000189955 0.000413758 0.012423)
(0.000242706 0.000432808 0.011838)
(2.14447e-05 0.000486124 0.0119633)
(1.15138e-05 3.15517e-05 0.0119863)
(8.54664e-05 5.43021e-05 0.0113699)
(2.32693e-05 4.99339e-05 0.0111863)
(9.61691e-05 0.000135908 0.011313)
(5.29597e-05 2.31575e-05 0.0107504)
(0.000106685 0.000110325 0.0112518)
(3.23164e-05 0.000103412 0.0110569)
(2.60224e-05 0.000198694 0.0111384)
(3.43492e-05 1.04778e-05 0.0107731)
(8.92033e-05 0.000153756 0.0112184)
(5.12644e-05 0.000149434 0.0110212)
(-1.11394e-05 0.000213163 0.0110152)
(-8.26455e-06 2.16758e-05 0.0107989)
(9.50075e-05 0.000265303 0.0111339)
(5.59615e-05 0.000241267 0.0109117)
(-6.12961e-05 0.000253499 0.0108996)
(-7.86683e-05 7.69217e-05 0.0108342)
(6.92426e-05 3.50752e-05 0.0112349)
(4.47358e-05 3.64805e-05 0.0111466)
(6.42443e-05 7.16253e-05 0.011214)
(3.04073e-05 2.09955e-05 0.0110264)
(7.09509e-05 8.42915e-05 0.0111935)
(3.98885e-05 7.65584e-05 0.0111076)
(3.16958e-05 0.000109514 0.0111575)
(1.78002e-05 2.15053e-05 0.0110368)
(6.25656e-05 0.000124292 0.0111585)
(3.6274e-05 0.000108751 0.0110812)
(7.15471e-06 0.00012439 0.0111044)
(-5.10237e-06 2.95545e-05 0.0110466)
(5.49461e-05 0.000169603 0.0110986)
(2.61132e-05 0.000145912 0.0110296)
(-2.04763e-05 0.000138018 0.0110453)
(-3.71968e-05 5.05506e-05 0.0110459)
(4.55283e-05 2.13782e-05 0.0111816)
(3.43076e-05 2.2945e-05 0.0111323)
(3.48552e-05 3.52255e-05 0.011147)
(1.35652e-05 1.10052e-05 0.0110615)
(4.30305e-05 5.34289e-05 0.0111593)
(2.77448e-05 4.69153e-05 0.0111141)
(1.86571e-05 5.45932e-05 0.011123)
(6.31663e-06 1.36006e-05 0.0110636)
(3.70165e-05 7.8694e-05 0.0111305)
(2.04783e-05 6.58899e-05 0.0110932)
(3.97506e-06 6.43381e-05 0.0110962)
(-5.96643e-06 1.95495e-05 0.0110647)
(2.91664e-05 9.88131e-05 0.0110897)
(1.04612e-05 8.22395e-05 0.0110625)
(-1.15831e-05 7.12047e-05 0.0110663)
(-2.16813e-05 3.04735e-05 0.0110613)
(2.66448e-05 1.21721e-05 0.0111443)
(2.11302e-05 1.32531e-05 0.0111179)
(1.78361e-05 1.71654e-05 0.0111179)
(5.67369e-06 5.44465e-06 0.0110814)
(2.41276e-05 3.09297e-05 0.0111316)
(1.63125e-05 2.67669e-05 0.0111084)
(9.72955e-06 2.70376e-05 0.0111074)
(1.62469e-06 7.86652e-06 0.0110816)
(1.99644e-05 4.54677e-05 0.0111134)
(1.06328e-05 3.73614e-05 0.0110954)
(1.59721e-06 3.27589e-05 0.0110942)
(-4.73477e-06 1.15261e-05 0.0110808)
(1.43165e-05 5.5038e-05 0.0110892)
(3.66436e-06 4.50219e-05 0.0110777)
(-7.04315e-06 3.65062e-05 0.011079)
(-1.25605e-05 1.69648e-05 0.0110776)
(1.44635e-05 6.75899e-06 0.0111223)
(1.17335e-05 7.35667e-06 0.0111086)
(8.63169e-06 8.27368e-06 0.0111056)
(1.86281e-06 2.38446e-06 0.0110899)
(1.26568e-05 1.7391e-05 0.0111154)
(8.65607e-06 1.48865e-05 0.0111036)
(4.45773e-06 1.33956e-05 0.0111007)
(-4.22003e-07 4.11757e-06 0.0110896)
(9.91698e-06 2.5511e-05 0.0111048)
(4.91514e-06 2.06688e-05 0.0110961)
(-4.5731e-08 1.66021e-05 0.0110943)
(-3.77344e-06 6.17565e-06 0.0110885)
(6.22144e-06 3.02871e-05 0.0110913)
(4.93703e-07 2.4383e-05 0.0110861)
(-4.90634e-06 1.86477e-05 0.0110865)
(-7.8371e-06 8.89187e-06 0.0110863)
(7.28036e-06 3.69402e-06 0.0111107)
(5.94414e-06 3.92698e-06 0.0111036)
(3.77891e-06 3.84386e-06 0.0111008)
(2.84455e-08 6.70347e-07 0.0110939)
(6.09623e-06 9.64641e-06 0.0111069)
(4.06621e-06 8.10394e-06 0.0111008)
(1.5541e-06 6.544e-06 0.0110985)
(-1.26759e-06 1.7813e-06 0.0110936)
(4.33207e-06 1.41266e-05 0.011101)
(1.72546e-06 1.12315e-05 0.0110966)
(-9.97146e-07 8.30149e-06 0.0110952)
(-3.09247e-06 2.89649e-06 0.0110928)
(1.9797e-06 1.65809e-05 0.0110934)
(-1.00868e-06 1.3076e-05 0.0110911)
(-3.80631e-06 9.40477e-06 0.0110912)
(-5.31179e-06 4.29263e-06 0.0110914)
(3.25929e-06 1.977e-06 0.0111044)
(2.61375e-06 1.98084e-06 0.0111008)
(1.2622e-06 1.61798e-06 0.0110988)
(-7.8376e-07 -2.12113e-07 0.0110958)
(2.50437e-06 5.28582e-06 0.0111023)
(1.48665e-06 4.29003e-06 0.0110992)
(3.72857e-08 3.06316e-06 0.0110977)
(-1.53351e-06 4.75531e-07 0.0110955)
(1.37098e-06 7.75275e-06 0.011099)
(3.79013e-08 5.98007e-06 0.0110968)
(-1.44105e-06 4.01652e-06 0.011096)
(-2.57426e-06 1.08977e-06 0.011095)
(-1.28238e-07 9.0443e-06 0.0110948)
(-1.65884e-06 6.92589e-06 0.0110938)
(-3.10249e-06 4.62296e-06 0.0110939)
(-3.83874e-06 1.83249e-06 0.0110942)
(1.12128e-06 1.02973e-06 0.011101)
(8.19336e-07 9.12317e-07 0.0110991)
(2.86358e-08 5.19288e-07 0.011098)
(-1.05743e-06 -5.89678e-07 0.0110967)
(6.38308e-07 2.86362e-06 0.0110998)
(1.4036e-07 2.18816e-06 0.0110983)
(-6.67466e-07 1.30572e-06 0.0110974)
(-1.50413e-06 -1.67826e-07 0.0110965)
(-9.59035e-08 4.2293e-06 0.011098)
(-7.64127e-07 3.10922e-06 0.011097)
(-1.55154e-06 1.82433e-06 0.0110965)
(-2.12673e-06 1.79332e-07 0.0110962)
(-1.05918e-06 4.92178e-06 0.0110957)
(-1.83421e-06 3.61334e-06 0.0110953)
(-2.56177e-06 2.17095e-06 0.0110954)
(-2.8798e-06 5.97832e-07 0.0110957)
(6.34591e-08 5.14436e-07 0.0110992)
(-7.18297e-08 3.48619e-07 0.0110982)
(-5.09866e-07 2.1648e-09 0.0110976)
(-1.05685e-06 -6.87065e-07 0.0110971)
(-2.50322e-07 1.52897e-06 0.0110985)
(-4.87606e-07 1.05127e-06 0.0110978)
(-9.19673e-07 4.35307e-07 0.0110973)
(-1.33175e-06 -4.25747e-07 0.011097)
(-7.33441e-07 2.28654e-06 0.0110974)
(-1.06328e-06 1.56047e-06 0.011097)
(-1.4657e-06 7.27434e-07 0.0110968)
(-1.71955e-06 -2.21386e-07 0.0110968)
(-1.35698e-06 2.66309e-06 0.0110962)
(-1.74462e-06 1.8425e-06 0.0110961)
(-2.0971e-06 9.37964e-07 0.0110963)
(-2.18651e-06 3.3402e-08 0.0110966)
(-3.95968e-07 2.38731e-07 0.0110982)
(-4.53644e-07 6.77119e-08 0.0110978)
(-6.76429e-07 -2.09924e-07 0.0110975)
(-9.22921e-07 -6.4294e-07 0.0110973)
(-6.04018e-07 7.90626e-07 0.0110978)
(-7.14363e-07 4.52611e-07 0.0110975)
(-9.26061e-07 3.02682e-08 0.0110973)
(-1.09748e-06 -4.79297e-07 0.0110972)
(-9.21878e-07 1.20647e-06 0.0110972)
(-1.08223e-06 7.36856e-07 0.0110971)
(-1.27261e-06 2.02177e-07 0.0110971)
(-1.34753e-06 -3.54463e-07 0.0110971)
(-1.32562e-06 1.41816e-06 0.0110964)
(-1.51389e-06 9.02938e-07 0.0110965)
(-1.67324e-06 3.39323e-07 0.0110967)
(-1.64514e-06 -1.88962e-07 0.011097)
(-5.25753e-07 9.52124e-08 0.0110977)
(-5.48693e-07 -5.53555e-08 0.0110976)
(-6.50554e-07 -2.64888e-07 0.0110974)
(-7.35612e-07 -5.3337e-07 0.0110974)
(-6.65118e-07 3.85736e-07 0.0110975)
(-7.14314e-07 1.48631e-07 0.0110974)
(-8.06303e-07 -1.34231e-07 0.0110973)
(-8.48252e-07 -4.31495e-07 0.0110974)
(-8.72876e-07 6.08081e-07 0.0110971)
(-9.48524e-07 3.07419e-07 0.0110971)
(-1.0274e-06 -2.97541e-08 0.0110972)
(-1.01188e-06 -3.52518e-07 0.0110973)
(-1.13111e-06 7.30858e-07 0.0110967)
(-1.21826e-06 4.12616e-07 0.0110968)
(-1.28109e-06 6.85633e-08 0.011097)
(-1.20185e-06 -2.35348e-07 0.0110972)
(-4.79185e-07 2.67907e-08 0.0110975)
(-4.87218e-07 -8.97969e-08 0.0110975)
(-5.26093e-07 -2.36322e-07 0.0110975)
(-5.34921e-07 -3.95175e-07 0.0110975)
(-5.70116e-07 1.70463e-07 0.0110973)
(-5.90982e-07 1.15324e-08 0.0110974)
(-6.22396e-07 -1.68403e-07 0.0110974)
(-6.06802e-07 -3.36613e-07 0.0110975)
(-7.01412e-07 2.82773e-07 0.0110971)
(-7.35491e-07 9.72111e-08 0.0110972)
(-7.60693e-07 -1.06911e-07 0.0110973)
(-7.11555e-07 -2.89714e-07 0.0110974)
(-8.61541e-07 3.52805e-07 0.0110968)
(-8.98208e-07 1.64049e-07 0.011097)
(-9.1648e-07 -3.91131e-08 0.0110972)
(-8.30713e-07 -2.05855e-07 0.0110974)
(-3.49145e-07 -9.91136e-11 0.0110974)
(-3.51301e-07 -7.77546e-08 0.0110975)
(-3.61166e-07 -1.68121e-07 0.0110975)
(-3.45915e-07 -2.56309e-07 0.0110975)
(-4.0397e-07 6.27472e-08 0.0110973)
(-4.12278e-07 -3.36431e-08 0.0110974)
(-4.17886e-07 -1.37702e-07 0.0110975)
(-3.91225e-07 -2.27697e-07 0.0110975)
(-4.80866e-07 1.12068e-07 0.0110971)
(-4.95105e-07 6.29418e-09 0.0110973)
(-4.97438e-07 -1.07638e-07 0.0110974)
(-4.52914e-07 -2.05272e-07 0.0110975)
(-5.73331e-07 1.4476e-07 0.011097)
(-5.86557e-07 4.04441e-08 0.0110972)
(-5.85732e-07 -7.11126e-08 0.0110973)
(-5.22527e-07 -1.58785e-07 0.0110975)
(-2.23708e-07 -1.13385e-08 0.0110974)
(-2.28536e-07 -5.89791e-08 0.0110975)
(-2.32492e-07 -1.13402e-07 0.0110976)
(-2.19192e-07 -1.65246e-07 0.0110976)
(-2.53341e-07 5.27695e-09 0.0110973)
(-2.60534e-07 -4.93887e-08 0.0110975)
(-2.62976e-07 -1.07313e-07 0.0110975)
(-2.46688e-07 -1.57596e-07 0.0110976)
(-2.96154e-07 1.65261e-08 0.0110972)
(-3.04573e-07 -4.12461e-08 0.0110974)
(-3.04438e-07 -1.013e-07 0.0110975)
(-2.80962e-07 -1.5272e-07 0.0110976)
(-3.46526e-07 1.95711e-08 0.0110971)
(-3.5279e-07 -3.67844e-08 0.0110973)
(-3.49344e-07 -9.51763e-08 0.0110974)
(-3.18372e-07 -1.42324e-07 0.0110976)
(0.00174729 -0.00107783 0.0113773)
(0.00071806 -0.00240931 0.0125737)
(0.00207602 -0.00212103 0.0147738)
(0.0016608 -0.00108454 0.0108351)
(0.0011694 -0.00154939 0.0175443)
(0.00104824 -0.00102291 0.014059)
(0.00233458 -0.00116453 0.0133772)
(0.00184886 -0.00181391 0.0178474)
(0.000708515 4.75943e-05 0.00984713)
(0.00214894 0.000316116 0.0140677)
(0.00207366 0.00133259 0.0156558)
(0.000699936 0.000125147 0.0140884)
(0.00286022 0.000889769 0.01885)
(0.00121306 0.000296857 0.00750725)
(0.00522325 0.00137328 0.0228276)
(0.000641932 -0.000594353 0.0162841)
(0.000671433 -0.000847523 0.0308366)
(0.000410907 -0.000540108 0.0327004)
(0.000504102 0.000123826 0.0121394)
(0.000321393 -0.00210596 0.0463738)
(0.00100385 0.000532488 0.0228493)
(0.0011108 -0.000159764 0.0145376)
(-1.85996e-05 -4.85768e-05 0.0154573)
(-0.00119814 0.000456118 0.0284346)
(0.00128951 0.000255703 0.0209907)
(-0.000375652 0.00066633 0.0247353)
(-0.000645472 -0.00100156 0.0144606)