/*--------------------------------*- C++ -*----------------------------------*\
| =========                 |                                                 |
| \\      /  F ield         | OpenFOAM: The Open Source CFD Toolbox           |
|  \\    /   O peration     | Version:  2506                                  |
|   \\  /    A nd           | Website:  www.openfoam.com                      |
|    \\/     M anipulation  |                                                 |
\*---------------------------------------------------------------------------*/
FoamFile
{
    version     2.0;
    format      ascii;
    arch        "LSB;label=32;scalar=64";
    class       volVectorField;
    location    "0.05";
    object      Us;
}
// * * * * * * * * * * * * * * * * * * * * * * * * * * * * * * * * * * * * * //

dimensions      [0 1 -1 0 0 0 0];

internalField   nonuniform List<vector> 
1152
(
(0.000303986 -0.000254481 9.30201e-06)
(0.000185009 -5.21366e-05 0.000133683)
(6.61228e-05 -6.19751e-05 0.000145335)
(9.59422e-05 3.53531e-05 9.98965e-05)
(2.99324e-05 -7.46701e-05 0.000219566)
(-9.17991e-05 8.36711e-05 0.000201647)
(-3.1205e-05 2.24435e-05 1.06267e-05)
(6.42737e-05 6.96689e-07 9.79667e-05)
(4.02732e-05 7.21659e-06 0.000171343)
(0.000111677 0.000106956 -4.89718e-05)
(0.000155536 0.00022151 7.75525e-05)
(-0.000105336 3.67022e-05 0.000177196)
(8.49919e-05 0.000131204 4.88496e-06)
(0.000188557 1.69699e-05 -0.000307258)
(0.00017206 0.000405857 -3.24588e-05)
(0.00048803 5.77114e-05 4.34498e-05)
(2.34106e-05 -0.000377082 8.51979e-05)
(0.000360029 0.000130624 0.000330226)
(9.02186e-05 0.000475909 0.000771562)
(-0.000183595 -0.000182922 0.00106919)
(0.000476379 -0.000275962 0.0007896)
(0.000286968 0.00019463 0.000719566)
(-9.87989e-05 0.000327091 0.000382428)
(0.000147929 9.21708e-05 0.000418735)
(-0.000160583 0.000128909 0.000267595)
(0.000423923 0.000428608 0.000624131)
(-0.000301612 5.28541e-05 0.000779705)
(-0.000552205 0.000219998 0.000768513)
(0.000193941 0.0002987 0.000718003)
(-0.000163493 0.000256638 0.00027686)
(7.25308e-05 0.000706687 0.00103906)
(-0.000165195 0.000274702 0.000616409)
(-0.000684753 -0.000125638 0.00175651)
(3.34593e-06 4.17387e-05 0.000920435)
(-0.000251582 3.36511e-05 0.00187476)
(-0.000135226 3.92126e-05 0.00136854)
(0.000399027 0.0003763 0.00100758)
(2.20503e-05 8.19015e-05 0.00106495)
(-5.26465e-06 4.09116e-05 0.00142898)
(-0.000133326 0.000353297 0.00138129)
(0.000256969 0.000104466 0.000759246)
(5.86244e-05 -5.79678e-05 0.00114305)
(-0.00023668 -0.000216875 0.00169047)
(9.17022e-05 0.00014074 0.00085011)
(0.00028165 0.000235376 0.0013126)
(0.000303793 0.000102456 0.00126064)
(-2.56948e-05 -0.000141448 0.00117191)
(-0.000165042 -6.13799e-07 0.00140787)
(-1.18712e-05 1.90379e-05 0.0012341)
(-6.89864e-05 -6.59534e-05 0.00168769)
(0.000334151 3.31511e-06 0.00104525)
(0.000186916 8.81418e-05 0.00115847)
(0.000295814 0.000271198 0.00084647)
(0.000208339 0.000150474 0.00081426)
(0.000232961 2.89656e-05 0.000924385)
(1.33209e-05 0.000403405 0.00104484)
(0.000283957 0.000143341 0.000942487)
(0.00010307 0.000216312 0.00100306)
(0.000213338 5.49445e-05 0.000939636)
(0.00027988 6.78671e-05 0.00106052)
(0.00020236 0.00012998 0.001137)
(0.000150205 0.000261852 0.00133914)
(8.46333e-05 -0.000320282 0.00100598)
(-0.00025153 -0.000128795 0.00145256)
(2.5459e-05 -1.11856e-05 0.00171096)
(0.000160343 6.88496e-05 0.000990541)
(9.95031e-05 0.000169889 0.00102879)
(0.000142006 0.000303845 0.00152399)
(0.000377178 -0.000234919 0.000988032)
(-0.000136384 -9.44884e-05 0.00108998)
(0.000209319 9.37022e-05 0.00102906)
(-6.76737e-05 -2.61349e-05 0.000965877)
(0.000367595 -0.000208222 0.00117127)
(-1.17706e-05 -6.25581e-05 0.00116816)
(-4.3192e-05 2.70711e-05 0.000881297)
(0.000223527 6.48285e-06 0.00152078)
(5.14092e-05 0.000102456 0.00132292)
(0.000130804 0.000193291 0.00146799)
(8.18194e-05 -4.23864e-05 0.00106815)
(0.000185504 0.000314086 0.00136148)
(4.05022e-07 -0.000202606 0.00110693)
(0.000163309 8.17637e-06 0.00121296)
(1.0227e-05 -8.63522e-05 0.00104619)
(0.000149487 8.67564e-05 0.00102534)
(0.00022935 1.897e-05 0.00104801)
(5.74783e-05 -0.000121237 0.00120842)
(0.000266036 -7.29669e-05 0.00103801)
(9.05699e-05 -3.78274e-05 0.000971629)
(0.000188126 -0.000119253 0.00112919)
(6.60232e-05 -3.54844e-05 0.00111571)
(3.35802e-05 -3.36466e-05 0.00110522)
(6.54551e-05 2.20683e-05 0.000979237)
(5.77474e-05 -2.26959e-05 0.00115404)
(6.06121e-05 -1.70702e-05 0.00113372)
(-1.36354e-05 1.44393e-05 0.00103163)
(9.22077e-05 -1.25286e-05 0.00112588)
(7.40804e-06 0.000170306 0.000715396)
(0.000113441 -5.2273e-05 0.00106269)
(0.000148748 -0.000304307 0.00108699)
(-0.00019201 0.000162783 0.000682988)
(6.91248e-05 5.15842e-05 0.000958583)
(6.54489e-05 -8.95215e-05 0.00110772)
(0.000203173 -0.000147907 0.000954002)
(0.000259834 3.84962e-05 0.000799873)
(0.000150057 -9.95305e-05 0.00113404)
(7.96488e-05 -0.000133484 0.00119121)
(6.00053e-05 -0.000213632 0.000962735)
(-0.00026053 0.000717058 0.000793936)
(-3.43498e-05 -0.000106457 0.00115804)
(-6.26592e-05 -0.000129875 0.00112101)
(5.94088e-05 -0.00020531 0.00107035)
(0.000206267 -0.000215139 0.0010764)
(0 0 0)
(0 0 0)
(0 0 0)
(0 0 0)
(0 0 0)
(0 0 0)
(0 0 0)
(0 0 0)
(0 0 0)
(0 0 0)
(0 0 0)
(0 0 0)
(0 0 0)
(4.70134e-05 -2.59464e-05 0.00113864)
(-1.75894e-05 -0.000168223 0.00114985)
(0 0 0)
(0 0 0)
(0 0 0)
(0 0 0)
(0 0 0)
(0 0 0)
(0 0 0)
(0 0 0)
(0 0 0)
(0 0 0)
(0 0 0)
(0 0 0)
(0 0 0)
(0 0 0)
(0 0 0)
(0 0 0)
(0 0 0)
(0 0 0)
(0 0 0)
(0 0 0)
(0 0 0)
(0 0 0)
(0 0 0)
(0 0 0)
(0 0 0)
(0 0 0)
(0 0 0)
(0 0 0)
(0 0 0)
(0 0 0)
(0 0 0)
(0 0 0)
(0 0 0)
(0 0 0)
(0 0 0)
(0 0 0)
(0 0 0)
(0 0 0)
(0 0 0)
(0 0 0)
(0 0 0)
(0 0 0)
(0 0 0)
(0 0 0)
(0 0 0)
(0 0 0)
(0 0 0)
(0 0 0)
(0 0 0)
(0 0 0)
(0 0 0)
(0 0 0)
(0 0 0)
(0 0 0)
(0 0 0)
(0 0 0)
(0 0 0)
(0 0 0)
(0 0 0)
(0 0 0)
(0 0 0)
(0 0 0)
(0 0 0)
(0 0 0)
(0 0 0)
(0 0 0)
(0 0 0)
(0 0 0)
(0 0 0)
(0 0 0)
(0 0 0)
(0 0 0)
(0 0 0)
(0 0 0)
(0 0 0)
(0 0 0)
(0 0 0)
(0 0 0)
(0 0 0)
(0 0 0)
(0 0 0)
(0 0 0)
(0 0 0)
(0 0 0)
(0 0 0)
(0 0 0)
(0 0 0)
(0 0 0)
(0 0 0)
(0 0 0)
(0 0 0)
(0 0 0)
(0 0 0)
(0 0 0)
(0 0 0)
(0 0 0)
(0 0 0)
(0 0 0)
(0 0 0)
(0 0 0)
(0 0 0)
(0 0 0)
(0 0 0)
(0 0 0)
(0 0 0)
(0 0 0)
(0 0 0)
(0 0 0)
(0 0 0)
(0 0 0)
(0 0 0)
(0 0 0)
(0 0 0)
(0 0 0)
(0 0 0)
(0 0 0)
(0 0 0)
(0 0 0)
(0 0 0)
(0 0 0)
(0 0 0)
(0 0 0)
(0 0 0)
(0 0 0)
(0 0 0)
(0 0 0)
(0 0 0)
(0 0 0)
(0 0 0)
(0 0 0)
(0 0 0)
(0 0 0)
(0 0 0)
(0 0 0)
(0 0 0)
(0 0 0)
(0 0 0)
(0 0 0)
(0 0 0)
(0 0 0)
(0 0 0)
(0 0 0)
(0 0 0)
(0 0 0)
(0 0 0)
(0 0 0)
(0 0 0)
(0 0 0)
(0 0 0)
(0 0 0)
(0 0 0)
(0 0 0)
(0 0 0)
(0 0 0)
(0 0 0)
(0 0 0)
(0 0 0)
(0 0 0)
(0 0 0)
(0 0 0)
(0 0 0)
(0 0 0)
(0 0 0)
(0 0 0)
(0 0 0)
(0 0 0)
(0 0 0)
(0 0 0)
(0 0 0)
(0 0 0)
(0 0 0)
(0 0 0)
(0 0 0)
(0 0 0)
(0 0 0)
(0 0 0)
(0 0 0)
(0 0 0)
(0 0 0)
(0 0 0)
(0 0 0)
(0 0 0)
(0 0 0)
(0 0 0)
(0 0 0)
(0 0 0)
(0 0 0)
(0 0 0)
(0 0 0)
(0 0 0)
(0 0 0)
(0 0 0)
(0 0 0)
(0 0 0)
(0 0 0)
(0 0 0)
(0 0 0)
(0 0 0)
(0 0 0)
(0 0 0)
(0 0 0)
(0 0 0)
(0 0 0)
(0 0 0)
(0 0 0)
(0 0 0)
(0 0 0)
(0 0 0)
(0 0 0)
(0 0 0)
(0 0 0)
(0 0 0)
(0 0 0)
(0 0 0)
(0 0 0)
(0 0 0)
(0 0 0)
(0 0 0)
(0 0 0)
(0 0 0)
(0 0 0)
(0 0 0)
(0 0 0)
(0 0 0)
(0 0 0)
(0 0 0)
(0 0 0)
(0 0 0)
(0 0 0)
(0 0 0)
(0 0 0)
(0 0 0)
(0 0 0)
(0 0 0)
(0 0 0)
(0 0 0)
(0 0 0)
(0 0 0)
(0 0 0)
(0 0 0)
(0 0 0)
(0 0 0)
(0 0 0)
(0 0 0)
(0 0 0)
(0 0 0)
(0 0 0)
(0 0 0)
(0 0 0)
(0 0 0)
(0 0 0)
(0 0 0)
(0 0 0)
(0 0 0)
(0 0 0)
(0 0 0)
(0 0 0)
(-0.000143275 -2.89799e-05 3.70662e-05)
(9.85694e-06 5.30557e-05 -3.39264e-05)
(-0.000114185 -6.73167e-05 -1.97275e-05)
(-0.000473535 -0.000286732 0.000187853)
(6.10274e-05 6.76331e-05 5.5517e-05)
(0.000224122 0.000142497 1.97973e-05)
(-5.42036e-05 -9.03383e-05 -1.14281e-06)
(-0.000129811 7.7888e-05 7.45603e-05)
(0.00017671 -0.000279456 7.52394e-05)
(0.000310121 -0.000211736 7.4107e-05)
(0.000333561 0.00022505 0.000127723)
(0.000319137 9.76506e-05 0.000240784)
(0.000157934 -0.000237073 0.000220341)
(0.00029074 -0.000257498 0.000121888)
(0.000241073 2.45274e-05 2.66815e-05)
(8.91236e-05 0.000191906 0.000124447)
(-0.000196876 -0.000127116 0.00107084)
(-0.000141484 3.13271e-05 0.000702216)
(-4.97692e-05 -6.93315e-06 0.000361936)
(0.000425239 0.000302393 0.000573146)
(-0.000636472 -0.000501354 0.000830471)
(-0.000622672 -9.68839e-05 0.000799533)
(-0.000107086 5.99938e-05 0.000190234)
(-0.00020272 9.87717e-05 0.000686121)
(4.35713e-05 -0.000355659 0.000771007)
(-0.000293539 -0.00023654 0.000879569)
(-0.000327831 0.000389281 0.000534479)
(-0.00035198 -6.99268e-06 0.000818831)
(-5.60683e-05 -8.41943e-05 0.00077876)
(-0.000130288 0.000241574 0.000522163)
(-0.000436943 0.000240844 0.00031456)
(-0.000588098 0.000298181 0.000463648)
(0.000179591 -4.18119e-05 0.00150043)
(-8.95784e-05 3.45902e-05 0.000723888)
(-9.45467e-06 9.94597e-05 0.000760399)
(0.000299428 8.81784e-05 0.000836266)
(-1.24292e-05 0.000248694 0.00143204)
(-0.000441996 1.49363e-05 0.00125393)
(-0.000389477 -0.000293363 0.000606304)
(-0.000230486 -0.00019201 0.00060903)
(0.00014283 4.16164e-05 0.00143799)
(-0.000240189 0.000462629 0.00131401)
(-0.000624481 0.000126259 0.00160377)
(-0.000165692 0.000433408 0.000797279)
(-0.000343576 -1.23759e-05 0.00144636)
(-0.000287725 8.83065e-05 0.000857873)
(-0.000568298 -4.75674e-05 0.00135726)
(-0.000136887 0.000119998 0.000743543)
(0.000146276 7.26565e-05 0.0012802)
(4.68274e-05 -2.38922e-05 0.00113198)
(8.30748e-05 0.000103249 0.00044538)
(8.51113e-05 8.32698e-05 0.00161537)
(7.09948e-05 0.000337329 0.00140281)
(7.47362e-05 3.86762e-05 0.000646062)
(-0.000216215 4.1653e-05 0.00094967)
(0.000110777 -7.867e-06 0.000699548)
(9.42063e-05 0.000382574 0.00138718)
(1.70489e-05 -3.81091e-05 0.000958403)
(0.000208873 -4.53973e-05 0.00103954)
(9.61456e-05 4.71267e-06 0.00080994)
(5.83492e-06 0.000256457 0.001305)
(0.000105024 0.000255538 0.000947107)
(0.000143659 0.000180333 0.000977178)
(0.000113901 4.02039e-05 0.000612681)
(-0.000130737 0.000122907 0.000611649)
(-0.000276008 -5.51054e-05 0.000731271)
(-0.000299582 -8.94029e-05 0.000415715)
(-0.000167569 -0.000151802 0.00101992)
(-0.000169929 0.000141966 0.000931187)
(-8.62624e-05 4.64886e-05 0.000721449)
(-0.000103871 9.48184e-05 0.000839456)
(-0.000124236 0.000179984 0.000408979)
(0.000221238 1.58277e-05 0.00121425)
(-3.03759e-05 0.000320525 0.00102548)
(0.000109183 0.000165935 0.0013655)
(-5.25965e-05 0.000379479 0.000767753)
(-1.96388e-05 0.00028568 0.00140318)
(7.3108e-05 0.000278834 0.00106348)
(0.000133384 0.000215956 0.00100668)
(-0.000385479 0.000893305 0.00210433)
(5.66768e-05 7.8531e-05 0.000694534)
(-0.000185327 9.2085e-07 0.000616367)
(-4.87484e-06 5.38858e-05 0.000113654)
(3.91865e-05 0.000106867 1.43908e-05)
(-0.000141226 0.000146159 0.000894762)
(-6.1985e-05 7.02859e-05 0.000555289)
(5.62054e-05 0.000100543 0.000525799)
(4.72172e-05 6.69363e-05 6.77075e-05)
(-7.47994e-06 -8.00903e-08 0.000939333)
(-4.30717e-06 0.000132703 0.000847584)
(5.62731e-05 0.000243372 0.000907494)
(0.000102348 0.000156192 0.000544738)
(-1.38745e-05 -0.000460726 0.00116219)
(3.32043e-05 -5.05596e-05 0.000957807)
(4.04878e-05 8.34224e-05 0.000883915)
(0.000151162 0.000223895 0.000982118)
(-0.000156975 -0.000361406 0.000459112)
(-3.43599e-06 -0.000241999 0.000407881)
(-0.000194779 0.000902319 -0.000104445)
(6.42657e-06 5.30958e-05 -4.41766e-05)
(-0.000119063 -0.000330034 0.000849452)
(0.000148418 -5.72841e-05 0.00052695)
(0.00045406 -0.000267248 0.00035874)
(8.32525e-05 -0.000123554 7.32177e-05)
(5.56465e-06 9.50485e-05 0.00103514)
(-9.63518e-05 -5.46305e-05 0.000756089)
(0.000196667 -0.00012093 0.000502748)
(0.000239018 -0.000165732 0.000330847)
(4.2976e-05 -0.000188101 0.00114514)
(-0.00110686 -0.0004069 0.000770503)
(0.000129615 -7.66607e-05 0.000828954)
(0.000431386 7.97005e-05 0.000747761)
(0 0 0)
(0 0 0)
(0 0 0)
(0 0 0)
(0 0 0)
(0 0 0)
(0 0 0)
(0 0 0)
(0 0 0)
(0 0 0)
(0 0 0)
(0 0 0)
(0 0 0)
(0 0 0)
(0 0 0)
(0 0 0)
(0 0 0)
(0 0 0)
(0 0 0)
(0 0 0)
(0 0 0)
(0 0 0)
(0 0 0)
(0 0 0)
(0 0 0)
(0 0 0)
(0 0 0)
(0 0 0)
(0 0 0)
(0 0 0)
(0 0 0)
(0 0 0)
(0 0 0)
(0 0 0)
(0 0 0)
(0 0 0)
(0 0 0)
(0 0 0)
(0 0 0)
(0 0 0)
(0 0 0)
(0 0 0)
(0 0 0)
(0 0 0)
(0 0 0)
(0 0 0)
(0 0 0)
(0 0 0)
(0 0 0)
(0 0 0)
(0 0 0)
(0 0 0)
(0 0 0)
(0 0 0)
(0 0 0)
(0 0 0)
(0 0 0)
(0 0 0)
(0 0 0)
(0 0 0)
(0 0 0)
(0 0 0)
(0 0 0)
(0 0 0)
(0 0 0)
(0 0 0)
(0 0 0)
(0 0 0)
(0 0 0)
(0 0 0)
(0 0 0)
(0 0 0)
(0 0 0)
(0 0 0)
(0 0 0)
(0 0 0)
(0 0 0)
(0 0 0)
(0 0 0)
(0 0 0)
(0 0 0)
(0 0 0)
(0 0 0)
(0 0 0)
(0 0 0)
(0 0 0)
(0 0 0)
(0 0 0)
(0 0 0)
(0 0 0)
(0 0 0)
(0 0 0)
(0 0 0)
(0 0 0)
(0 0 0)
(0 0 0)
(0 0 0)
(0 0 0)
(0 0 0)
(0 0 0)
(0 0 0)
(0 0 0)
(0 0 0)
(0 0 0)
(0 0 0)
(0 0 0)
(0 0 0)
(0 0 0)
(0 0 0)
(0 0 0)
(0 0 0)
(0 0 0)
(0 0 0)
(0 0 0)
(0 0 0)
(0 0 0)
(0 0 0)
(0 0 0)
(0 0 0)
(0 0 0)
(0 0 0)
(0 0 0)
(0 0 0)
(0 0 0)
(0 0 0)
(0 0 0)
(0 0 0)
(0 0 0)
(0 0 0)
(0 0 0)
(0 0 0)
(0 0 0)
(0 0 0)
(0 0 0)
(0 0 0)
(0 0 0)
(0 0 0)
(0 0 0)
(0 0 0)
(0 0 0)
(0 0 0)
(0 0 0)
(0 0 0)
(0 0 0)
(0 0 0)
(0 0 0)
(0 0 0)
(0 0 0)
(0 0 0)
(0 0 0)
(0 0 0)
(0 0 0)
(0 0 0)
(0 0 0)
(0 0 0)
(0 0 0)
(0 0 0)
(0 0 0)
(0 0 0)
(0 0 0)
(0 0 0)
(0 0 0)
(0 0 0)
(0 0 0)
(0 0 0)
(0 0 0)
(0 0 0)
(0 0 0)
(0 0 0)
(0 0 0)
(0 0 0)
(0 0 0)
(0 0 0)
(0 0 0)
(0 0 0)
(0 0 0)
(0 0 0)
(0 0 0)
(0 0 0)
(0 0 0)
(0 0 0)
(0 0 0)
(0 0 0)
(0 0 0)
(0 0 0)
(0 0 0)
(0 0 0)
(0 0 0)
(0 0 0)
(0 0 0)
(0 0 0)
(0 0 0)
(0 0 0)
(0 0 0)
(0 0 0)
(0 0 0)
(0 0 0)
(0 0 0)
(0 0 0)
(0 0 0)
(0 0 0)
(0 0 0)
(0 0 0)
(0 0 0)
(0 0 0)
(0 0 0)
(0 0 0)
(0 0 0)
(0 0 0)
(0 0 0)
(0 0 0)
(0 0 0)
(0 0 0)
(0 0 0)
(0 0 0)
(0 0 0)
(0 0 0)
(0 0 0)
(0 0 0)
(0 0 0)
(0 0 0)
(0 0 0)
(0 0 0)
(0 0 0)
(0 0 0)
(0 0 0)
(0 0 0)
(0 0 0)
(0 0 0)
(0 0 0)
(0 0 0)
(0 0 0)
(0 0 0)
(0 0 0)
(0 0 0)
(0 0 0)
(0 0 0)
(0 0 0)
(0 0 0)
(0 0 0)
(0 0 0)
(0 0 0)
(0 0 0)
(0 0 0)
(0 0 0)
(0 0 0)
(0 0 0)
(0 0 0)
(0 0 0)
(0 0 0)
(0 0 0)
(0 0 0)
(0 0 0)
(0 0 0)
(0 0 0)
(0 0 0)
(0 0 0)
(0 0 0)
(0 0 0)
(0 0 0)
(0 0 0)
(0 0 0)
(0 0 0)
(0 0 0)
(0 0 0)
(0 0 0)
(0 0 0)
(0 0 0)
(0 0 0)
(0 0 0)
(0 0 0)
(0 0 0)
(2.35931e-05 -1.4976e-05 8.97332e-05)
(0.000227324 -0.000240727 0.000211501)
(5.70959e-06 -3.13205e-05 6.49773e-05)
(0.000139965 -0.000331469 7.4601e-05)
(-3.37014e-05 -0.000147867 0.000246019)
(-7.39826e-05 -4.78323e-05 0.000117579)
(3.90939e-06 -6.12957e-05 9.45664e-05)
(7.04776e-05 2.85976e-05 0.000162724)
(-0.000137025 -0.000352077 0.000264086)
(-9.22657e-05 0.000171415 9.07732e-05)
(1.5394e-05 0.00011217 -0.000106246)
(7.00533e-05 -0.000306322 -0.000291691)
(0.000346615 -0.000177043 -0.00017495)
(-2.91258e-05 -0.000118217 0.000102443)
(-0.000167341 0.000154337 3.85335e-05)
(-0.000121677 9.59455e-05 -0.000270892)
(-0.000159532 -0.00022129 0.000866939)
(0.000114987 -0.000163252 0.00129982)
(0.000106831 7.93198e-05 0.000592083)
(9.41482e-05 0.000234983 0.000499047)
(0.000162723 1.28364e-05 0.000488734)
(-2.04584e-05 -0.000171224 0.000482748)
(-0.000224109 -8.64789e-06 0.000633161)
(0.000132087 -3.75959e-05 0.000630434)
(-0.000388358 0.00013341 0.000180433)
(-0.0001259 -1.81861e-05 0.000813741)
(-0.000329433 -0.000107076 0.000572943)
(-4.03274e-05 -0.000442118 0.000467906)
(-0.000408485 0.000206989 0.000448871)
(-0.000564017 0.000137734 0.000609556)
(-0.000378123 -0.000182592 0.000667867)
(-0.000248828 2.94647e-06 0.000509088)
(-3.01948e-05 0.000731913 0.000567565)
(-9.85942e-05 0.000614863 0.00117146)
(-0.000193559 0.000161429 0.000935132)
(0.000129498 0.000338301 0.00159309)
(2.77139e-05 0.000315847 0.00122134)
(-0.000192733 0.000672669 0.000818817)
(-0.000106723 0.000227441 0.000591417)
(0.000173333 0.000722255 0.000961917)
(0.000132324 0.000405876 0.000746338)
(-0.000251685 0.000349456 0.000676821)
(-0.000125293 -9.31616e-05 0.000872605)
(1.28946e-05 -0.000900997 0.00121828)
(-0.000209884 0.000318121 0.000909306)
(-0.00022275 0.000157071 0.00117931)
(-0.000244283 0.000358164 0.000621355)
(-0.000229055 -3.03029e-05 0.000416877)
(0.000261968 0.000171339 0.00104224)
(0.000227652 0.00014546 0.000890298)
(0.000296496 0.000165477 0.000665708)
(0.000600765 0.000503014 0.0012189)
(0.000438271 0.000180404 0.00120828)
(0.000210696 0.00012846 0.000827951)
(0.000420854 -0.000163944 0.00120692)
(2.166e-05 8.47541e-05 0.00114954)
(2.63726e-05 0.000152649 0.00155557)
(0.000257095 4.797e-05 0.000718621)
(0.000153122 0.000176488 0.000727483)
(8.97267e-05 0.000409985 0.000878729)
(-0.000251816 9.70706e-05 0.00141305)
(8.5086e-05 3.59711e-05 0.000526023)
(0.000535748 0.000458793 0.00190338)
(0.000344942 0.000492242 0.00131751)
(-0.000363887 0.000135205 0.00133819)
(-6.29935e-05 0.00026976 0.000634293)
(0.000180872 0.000268684 0.000697738)
(0.000323471 0.000145794 0.00054028)
(-7.61765e-05 6.74076e-05 0.00141122)
(5.79116e-05 0.00028395 0.000812812)
(-2.43692e-05 1.30369e-05 0.00104165)
(-0.000116642 -0.000119707 0.000927766)
(2.09193e-05 0.000182783 0.000983661)
(2.8014e-05 0.000325673 0.00105724)
(7.89721e-05 0.000296475 0.000562407)
(-1.97312e-05 7.283e-06 0.000510779)
(-1.46466e-05 0.000149788 0.000913404)
(-1.958e-05 0.000107551 0.000669986)
(-0.000234841 0.000264722 0.00102847)
(-2.51955e-05 0.000186689 0.00101298)
(0.000254285 -6.46249e-05 0.000745255)
(0.000181345 0.000131305 0.000493261)
(0.000155486 4.10078e-05 0.000392928)
(0.000262649 0.00029734 0.000431595)
(0.000179001 9.83639e-05 0.000997979)
(-3.3215e-05 0.000225196 0.000949932)
(-0.000130312 0.000126871 0.000624335)
(-0.000163551 -5.22848e-05 0.000676955)
(2.06171e-05 0.000235452 0.000911288)
(-5.95226e-05 0.00031887 0.00092585)
(-6.57503e-05 0.00010081 0.000613912)
(-7.76884e-05 -0.000180642 0.000439804)
(1.66207e-05 0.000107215 0.000933891)
(6.72674e-05 0.000119257 0.000660934)
(0.000110017 0.000243508 0.000594817)
(2.78516e-05 5.05377e-05 0.000529573)
(-2.00631e-05 0.00016596 0.000447855)
(0.000267872 -0.000145826 0.000466072)
(0.00119699 0.000431194 0.000294002)
(0.000131633 4.95199e-05 0.000361215)
(8.49091e-05 0.000131108 0.00072742)
(-0.000117322 6.80314e-06 0.000604054)
(-0.000211279 -0.000253426 0.000549086)
(2.56972e-05 -0.000164242 0.000559802)
(0.000185903 7.63964e-05 0.000751957)
(0.000202342 5.87715e-05 0.000768404)
(0.000309614 6.96755e-05 0.00056508)
(-6.04517e-05 -0.000116282 0.00040819)
(0.000315568 -0.000157788 0.00108062)
(0.000466681 -0.000212233 0.000659832)
(0.000148421 9.1456e-05 0.000528037)
(4.73013e-05 0.000148826 0.0002918)
(0 0 0)
(0 0 0)
(0 0 0)
(0 0 0)
(0 0 0)
(0 0 0)
(0 0 0)
(0 0 0)
(0 0 0)
(0 0 0)
(0 0 0)
(-4.69156e-05 -0.000210337 0.000384331)
(0 0 0)
(0 0 0)
(0 0 0)
(0 0 0)
(0 0 0)
(0 0 0)
(0 0 0)
(0 0 0)
(0 0 0)
(0 0 0)
(0 0 0)
(0 0 0)
(0 0 0)
(0 0 0)
(0 0 0)
(0 0 0)
(0 0 0)
(0 0 0)
(0 0 0)
(0 0 0)
(0 0 0)
(0 0 0)
(0 0 0)
(0 0 0)
(0 0 0)
(0 0 0)
(0 0 0)
(0 0 0)
(0 0 0)
(0 0 0)
(0 0 0)
(0 0 0)
(0 0 0)
(0 0 0)
(0 0 0)
(0 0 0)
(0 0 0)
(0 0 0)
(0 0 0)
(0 0 0)
(0 0 0)
(0 0 0)
(0 0 0)
(0 0 0)
(0 0 0)
(0 0 0)
(0 0 0)
(0 0 0)
(0 0 0)
(0 0 0)
(0 0 0)
(0 0 0)
(0 0 0)
(0 0 0)
(0 0 0)
(0 0 0)
(0 0 0)
(0 0 0)
(0 0 0)
(0 0 0)
(0 0 0)
(0 0 0)
(0 0 0)
(0 0 0)
(0 0 0)
(0 0 0)
(0 0 0)
(0 0 0)
(0 0 0)
(0 0 0)
(0 0 0)
(0 0 0)
(0 0 0)
(0 0 0)
(0 0 0)
(0 0 0)
(0 0 0)
(0 0 0)
(0 0 0)
(0 0 0)
(0 0 0)
(0 0 0)
(0 0 0)
(0 0 0)
(0 0 0)
(0 0 0)
(0 0 0)
(0 0 0)
(0 0 0)
(0 0 0)
(0 0 0)
(0 0 0)
(0 0 0)
(0 0 0)
(0 0 0)
(0 0 0)
(0 0 0)
(0 0 0)
(0 0 0)
(0 0 0)
(0 0 0)
(0 0 0)
(0 0 0)
(0 0 0)
(0 0 0)
(0 0 0)
(0 0 0)
(0 0 0)
(0 0 0)
(0 0 0)
(0 0 0)
(0 0 0)
(0 0 0)
(0 0 0)
(0 0 0)
(0 0 0)
(0 0 0)
(0 0 0)
(0 0 0)
(0 0 0)
(0 0 0)
(0 0 0)
(0 0 0)
(0 0 0)
(0 0 0)
(0 0 0)
(0 0 0)
(0 0 0)
(0 0 0)
(0 0 0)
(0 0 0)
(0 0 0)
(0 0 0)
(0 0 0)
(0 0 0)
(0 0 0)
(0 0 0)
(0 0 0)
(0 0 0)
(0 0 0)
(0 0 0)
(0 0 0)
(0 0 0)
(0 0 0)
(0 0 0)
(0 0 0)
(0 0 0)
(0 0 0)
(0 0 0)
(0 0 0)
(0 0 0)
(0 0 0)
(0 0 0)
(0 0 0)
(0 0 0)
(0 0 0)
(0 0 0)
(0 0 0)
(0 0 0)
(0 0 0)
(0 0 0)
(0 0 0)
(0 0 0)
(0 0 0)
(0 0 0)
(0 0 0)
(0 0 0)
(0 0 0)
(0 0 0)
(0 0 0)
(0 0 0)
(0 0 0)
(0 0 0)
(0 0 0)
(0 0 0)
(0 0 0)
(0 0 0)
(0 0 0)
(0 0 0)
(0 0 0)
(0 0 0)
(0 0 0)
(0 0 0)
(0 0 0)
(0 0 0)
(0 0 0)
(0 0 0)
(0 0 0)
(0 0 0)
(0 0 0)
(0 0 0)
(0 0 0)
(0 0 0)
(0 0 0)
(0 0 0)
(0 0 0)
(0 0 0)
(0 0 0)
(0 0 0)
(0 0 0)
(0 0 0)
(0 0 0)
(0 0 0)
(0 0 0)
(0 0 0)
(0 0 0)
(0 0 0)
(0 0 0)
(0 0 0)
(0 0 0)
(0 0 0)
(0 0 0)
(0 0 0)
(0 0 0)
(0 0 0)
(0 0 0)
(0 0 0)
(0 0 0)
(0 0 0)
(0 0 0)
(0 0 0)
(0 0 0)
(0 0 0)
(0 0 0)
(0 0 0)
(0 0 0)
(0 0 0)
(0 0 0)
(0 0 0)
(0 0 0)
(0 0 0)
(0 0 0)
(0 0 0)
(0 0 0)
(0 0 0)
(0 0 0)
(0 0 0)
(0 0 0)
(0 0 0)
(0 0 0)
(0 0 0)
(0 0 0)
(0 0 0)
(0 0 0)
(0 0 0)
(0 0 0)
(0 0 0)
(0 0 0)
(0 0 0)
(0 0 0)
(0 0 0)
(0 0 0)
(0 0 0)
(0 0 0)
(0 0 0)
(0 0 0)
(0 0 0)
(0 0 0)
(0 0 0)
(0 0 0)
)
;

boundaryField
{
    inlet
    {
        type            zeroGradient;
    }
    outlet
    {
        type            zeroGradient;
    }
    wall
    {
        type            zeroGradient;
    }
    procBoundary1to0
    {
        type            processor;
        value           nonuniform List<vector> 
192
(
(-0.000139704 -0.00024635 -0.000118942)
(6.77446e-05 -0.000118273 5.16437e-05)
(8.03141e-05 1.9288e-05 3.52485e-05)
(0.000257535 0.000130166 3.23692e-05)
(-0.000154461 -0.000341355 0.000203056)
(0.000249118 4.52185e-05 0.000581845)
(0.00018385 3.19115e-05 0.000722632)
(0.000313779 4.4863e-05 0.000534735)
(8.31344e-05 0.000174765 0.000775914)
(0.000287742 -0.000273432 0.00130189)
(0.000180802 -0.00115734 0.00246095)
(0.000240755 9.64999e-05 0.000867983)
(-7.01364e-05 -8.09189e-05 0.00173952)
(0.00061015 -0.000694191 0.00082724)
(0.000320099 -0.000200174 0.00137013)
(7.02237e-05 0.000234704 0.0011699)
(0.000659227 -0.000216075 0.00137281)
(0.000448617 -0.000309777 0.0010737)
(0.000401 -0.000162896 0.00108074)
(0.000273254 0.000120624 0.00113118)
(0.000269898 -4.05768e-05 0.00110833)
(0.000228593 -8.32322e-06 0.00103781)
(0.000147225 -6.2715e-05 0.00103785)
(-0.00037417 0.000314479 0.0010729)
(0.000453328 -8.64405e-05 0.000856561)
(0.00398568 -0.00200415 -0.00127489)
(-3.72346e-06 -7.92637e-05 0.00105038)
(-0.00047214 -0.000192499 0.000974749)
(0 0 0)
(0 0 0)
(0 0 0)
(0 0 0)
(0 0 0)
(0 0 0)
(0 0 0)
(0 0 0)
(0 0 0)
(0 0 0)
(0 0 0)
(0 0 0)
(0 0 0)
(0 0 0)
(0 0 0)
(0 0 0)
(0 0 0)
(0 0 0)
(0 0 0)
(0 0 0)
(0 0 0)
(0 0 0)
(0 0 0)
(0 0 0)
(0 0 0)
(0 0 0)
(0 0 0)
(0 0 0)
(0 0 0)
(0 0 0)
(0 0 0)
(0 0 0)
(0 0 0)
(0 0 0)
(0 0 0)
(0 0 0)
(0 0 0)
(0 0 0)
(0 0 0)
(0 0 0)
(0 0 0)
(0 0 0)
(0 0 0)
(0 0 0)
(0 0 0)
(0 0 0)
(0 0 0)
(0 0 0)
(0 0 0)
(0 0 0)
(0 0 0)
(0 0 0)
(0 0 0)
(0 0 0)
(0 0 0)
(0 0 0)
(0 0 0)
(0 0 0)
(0 0 0)
(0 0 0)
(0 0 0)
(0 0 0)
(0 0 0)
(0 0 0)
(0 0 0)
(0 0 0)
(0 0 0)
(0 0 0)
(-0.000155497 2.73914e-05 4.22436e-05)
(5.3737e-05 0.000306129 2.81002e-05)
(0.000142379 -4.84297e-05 4.47439e-05)
(0.000141735 -4.8792e-05 0.000258303)
(-0.00018375 -0.000296675 0.00137463)
(0.000310366 -0.000421544 0.00105429)
(0.000518597 -0.000319464 0.000587445)
(0.000112533 -0.000395463 0.000481308)
(0.000214934 0.000191357 0.00148416)
(0.000290823 -1.7143e-05 0.00153322)
(8.27123e-05 -5.09981e-05 0.00164266)
(-0.000173111 0.000155263 0.00117467)
(-6.04799e-06 0.000109975 0.000855289)
(0.000168952 -2.98535e-05 0.00126928)
(-0.000172781 0.000267921 0.00117914)
(-9.90389e-05 0.000115945 0.00107231)
(-0.000277183 0.000170175 0.000741022)
(-0.000378038 -1.88101e-06 0.000927953)
(-3.05992e-05 -8.09392e-05 0.00109839)
(0.000157705 -0.000236437 0.00118582)
(-0.000122302 0.000151877 0.000583509)
(-0.000105394 -2.27411e-05 0.000775438)
(3.92925e-05 -0.00016178 0.000950992)
(0.000178487 -0.000219134 0.00102179)
(-7.3664e-05 1.29288e-05 0.000444571)
(-0.000152335 -0.000252047 0.000902445)
(-0.000157188 -0.000233799 0.00107182)
(0.000252997 -0.000726743 0.000566621)
(0 0 0)
(0 0 0)
(0 0 0)
(0 0 0)
(0 0 0)
(0 0 0)
(0 0 0)
(0 0 0)
(0 0 0)
(0 0 0)
(0 0 0)
(0 0 0)
(0 0 0)
(0 0 0)
(0 0 0)
(0 0 0)
(0 0 0)
(0 0 0)
(0 0 0)
(0 0 0)
(0 0 0)
(0 0 0)
(0 0 0)
(0 0 0)
(0 0 0)
(0 0 0)
(0 0 0)
(0 0 0)
(0 0 0)
(0 0 0)
(0 0 0)
(0 0 0)
(0 0 0)
(0 0 0)
(0 0 0)
(0 0 0)
(0 0 0)
(0 0 0)
(0 0 0)
(0 0 0)
(0 0 0)
(0 0 0)
(0 0 0)
(0 0 0)
(0 0 0)
(0 0 0)
(0 0 0)
(0 0 0)
(0 0 0)
(0 0 0)
(0 0 0)
(0 0 0)
(0 0 0)
(0 0 0)
(0 0 0)
(0 0 0)
(0 0 0)
(0 0 0)
(0 0 0)
(0 0 0)
(0 0 0)
(0 0 0)
(0 0 0)
(0 0 0)
(0 0 0)
(0 0 0)
(0 0 0)
(0 0 0)
)
;
    }
    procBoundary1to3
    {
        type            processor;
        value           nonuniform List<vector> 
192
(
(0.000139953 0.000311878 0.000125474)
(0.000294034 0.000226254 0.000206214)
(0.000525668 0.000277609 8.22466e-05)
(0.000563461 0.00036063 6.8797e-05)
(4.37632e-05 0.000130097 0.000648049)
(0.000295221 0.000451934 0.000920805)
(0.000238303 0.000432123 0.000701488)
(-4.3056e-05 0.00025497 0.000805988)
(-0.00020756 -0.000409291 0.0015644)
(0.000338614 -0.000350134 0.00129057)
(0.000209694 0.000213712 0.00089014)
(-0.000580704 0.000466264 0.000862374)
(-4.49462e-05 2.53483e-05 0.00138609)
(2.03945e-05 -0.000114956 0.00124485)
(-0.000218499 -0.000282735 0.00168493)
(-0.000358697 4.05887e-05 0.00190193)
(0.000139207 0.000141954 0.00123168)
(0.000267344 -9.74877e-07 0.00127281)
(0.000149041 3.37707e-06 0.00134272)
(-2.34478e-05 -0.000122493 0.00163098)
(7.5196e-05 -1.26815e-05 0.00126059)
(0.000379476 0.000119336 0.00126164)
(4.31908e-06 -5.16564e-05 0.00123632)
(7.53347e-05 -0.000126884 0.00129849)
(2.59087e-05 -0.000126227 0.00125799)
(6.30326e-05 -0.000259357 0.00115999)
(1.04582e-05 -0.00023664 0.00125324)
(1.5754e-05 -0.000178967 0.00131229)
(0 0 0)
(0 0 0)
(0 0 0)
(0 0 0)
(0 0 0)
(0 0 0)
(0 0 0)
(0 0 0)
(0 0 0)
(0 0 0)
(0 0 0)
(0 0 0)
(0 0 0)
(0 0 0)
(0 0 0)
(0 0 0)
(0 0 0)
(0 0 0)
(0 0 0)
(0 0 0)
(0 0 0)
(0 0 0)
(0 0 0)
(0 0 0)
(0 0 0)
(0 0 0)
(0 0 0)
(0 0 0)
(0 0 0)
(0 0 0)
(0 0 0)
(0 0 0)
(0 0 0)
(0 0 0)
(0 0 0)
(0 0 0)
(0 0 0)
(0 0 0)
(0 0 0)
(0 0 0)
(0 0 0)
(0 0 0)
(0 0 0)
(0 0 0)
(0 0 0)
(0 0 0)
(0 0 0)
(0 0 0)
(0 0 0)
(0 0 0)
(0 0 0)
(0 0 0)
(0 0 0)
(0 0 0)
(0 0 0)
(0 0 0)
(0 0 0)
(0 0 0)
(0 0 0)
(0 0 0)
(0 0 0)
(0 0 0)
(0 0 0)
(0 0 0)
(0 0 0)
(0 0 0)
(0 0 0)
(0 0 0)
(0.000262224 0.000277808 0.000377307)
(4.59463e-05 0.000270616 6.19483e-05)
(-0.000771982 0.000317802 9.47578e-05)
(-0.000812901 0.000215177 -0.000455846)
(-0.000295023 0.000298914 0.00120215)
(-9.11933e-05 0.000301348 0.000698929)
(0.000451308 0.000162731 0.0012281)
(0.00035309 9.59619e-06 0.000703639)
(-0.000540333 0.000348545 0.000852144)
(-0.000435029 0.000237035 0.000867708)
(-0.000226558 0.000441849 0.00115468)
(-8.72143e-05 0.00012579 0.000699009)
(-0.000249394 0.000314442 0.000717455)
(-0.000237715 7.6534e-05 0.00106874)
(-0.000292076 -0.000164057 0.00137055)
(8.73843e-05 -0.000137675 0.00141292)
(-0.000203976 -9.25329e-05 0.0009424)
(-0.000367476 -0.00024654 0.000979926)
(-0.000300985 -0.000124516 0.000862698)
(-2.44225e-05 -3.8929e-05 0.00113208)
(-3.84282e-05 -0.000146902 0.00145157)
(-0.00036782 3.43436e-06 0.000763704)
(-0.000368204 3.20718e-05 0.000960067)
(-0.000117664 0.00027286 0.00050463)
(-0.000668905 -0.000618923 0.00153768)
(-0.000686425 -0.000260849 0.000472032)
(0.000337105 5.92763e-05 0.000687744)
(-1.14306e-05 0.000666655 0.000610788)
(0 0 0)
(0 0 0)
(0 0 0)
(0 0 0)
(0 0 0)
(0 0 0)
(0 0 0)
(0 0 0)
(0 0 0)
(0 0 0)
(0 0 0)
(0 0 0)
(0 0 0)
(0 0 0)
(0 0 0)
(0 0 0)
(0 0 0)
(0 0 0)
(0 0 0)
(0 0 0)
(0 0 0)
(0 0 0)
(0 0 0)
(0 0 0)
(0 0 0)
(0 0 0)
(0 0 0)
(0 0 0)
(0 0 0)
(0 0 0)
(0 0 0)
(0 0 0)
(0 0 0)
(0 0 0)
(0 0 0)
(0 0 0)
(0 0 0)
(0 0 0)
(0 0 0)
(0 0 0)
(0 0 0)
(0 0 0)
(0 0 0)
(0 0 0)
(0 0 0)
(0 0 0)
(0 0 0)
(0 0 0)
(0 0 0)
(0 0 0)
(0 0 0)
(0 0 0)
(0 0 0)
(0 0 0)
(0 0 0)
(0 0 0)
(0 0 0)
(0 0 0)
(0 0 0)
(0 0 0)
(0 0 0)
(0 0 0)
(0 0 0)
(0 0 0)
(0 0 0)
(0 0 0)
(0 0 0)
(0 0 0)
)
;
    }
}


// ************************************************************************* //
