/*--------------------------------*- C++ -*----------------------------------*\
| =========                 |                                                 |
| \\      /  F ield         | OpenFOAM: The Open Source CFD Toolbox           |
|  \\    /   O peration     | Version:  2506                                  |
|   \\  /    A nd           | Website:  www.openfoam.com                      |
|    \\/     M anipulation  |                                                 |
\*---------------------------------------------------------------------------*/
FoamFile
{
    version     2.0;
    format      ascii;
    arch        "LSB;label=32;scalar=64";
    class       volScalarField;
    location    "0.06";
    object      Ksl;
}
// * * * * * * * * * * * * * * * * * * * * * * * * * * * * * * * * * * * * * //

dimensions      [1 -3 -1 0 0 0 0];

internalField   nonuniform List<scalar> 
1152
(
156008
264705
318153
163768
205085
190660
156260
294609
157256
185866
163579
347008
240001
252248
259676
156214
300652
305321
171289
174848
323990
275545
215519
223154
261304
199015
197196
210292
249849
249638
151061
400122
485895
147765
258298
251896
236233
272258
247534
492156
200356
218622
318844
263590
287258
184988
213932
280338
180379
245822
170380
187750
220428
238360
280395
294532
284167
254777
248411
166059
159357
211624
283959
565226
313388
205297
147299
301232
227937
357683
212750
235303
124147
338649
186226
280975
211146
373893
276355
213397
157105
368970
352739
236046
213551
250500
325563
363872
111840
251451
176073
210769
240428
208119
304141
582996
40130.2
65081.9
39293.1
72789.2
59950.5
46357.5
61668.5
65843.5
12896.8
24916.2
81794.5
47816.8
45977
43084.3
90272.2
22284.3
0
0
0
0
0
0
0
0
0
0
0
0
0
0
0
0
0
0
0
0
0
0
0
0
0
0
0
0
0
0
0
0
0
0
0
0
0
0
0
0
0
0
0
0
0
0
0
0
0
0
0
0
0
0
0
0
0
0
0
0
0
0
0
0
0
0
0
0
0
0
0
0
0
0
0
0
0
0
0
0
0
0
0
0
0
0
0
0
0
0
0
0
0
0
0
0
0
0
0
0
0
0
0
0
0
0
0
0
0
0
0
0
0
0
0
0
0
0
0
0
0
0
0
0
0
0
0
0
0
0
0
0
0
0
0
0
0
0
0
0
0
0
0
0
0
0
0
0
0
0
0
0
0
0
0
0
0
0
0
0
0
0
0
0
0
0
0
0
0
0
0
0
0
0
0
0
0
0
0
0
0
0
0
0
0
0
0
0
0
0
0
0
0
0
0
0
0
0
0
0
0
0
0
0
0
0
0
0
0
0
0
0
0
0
0
0
0
0
0
0
0
0
0
0
0
0
0
0
0
0
0
0
0
0
0
0
0
0
0
0
0
0
0
0
0
0
0
0
0
0
0
0
0
0
0
0
0
0
0
0
0
0
0
0
0
0
0
0
0
0
0
0
172781
282080
170670
140848
250994
163336
158650
213692
135903
178879
168037
151611
213151
169279
186637
138121
322101
99038
329054
333708
318636
302975
185527
297871
278057
183585
181948
201672
186048
280399
189330
190249
280709
322374
257038
139887
229321
270545
202040
229616
165362
182608
226413
289972
217927
255490
174910
369129
121399
265998
142413
298469
498371
198754
340628
257941
256338
314821
185557
94092.6
250741
209352
259735
155875
242415
174135
224992
370199
271827
176701
200931
297066
293644
239488
250235
285167
203794
319583
235218
199259
74629.6
327429
119230
311122
221123
282229
222684
203727
279770
176155
314318
315308
261435
245353
125066
133650
67253.2
27538.1
64306.9
62368.8
82399
58270.3
82288.1
60840.9
62274.4
24735.5
35597.4
57487.2
50068.3
50161.2
79732.7
126486
0
0
0
0
0
0
0
0
0
0
0
0
0
0
0
0
0
0
0
0
0
0
0
0
0
0
0
0
0
0
0
0
0
0
0
0
0
0
0
0
0
0
0
0
0
0
0
0
0
0
0
0
0
0
0
0
0
0
0
0
0
0
0
0
0
0
0
0
0
0
0
0
0
0
0
0
0
0
0
0
0
0
0
0
0
0
0
0
0
0
0
0
0
0
0
0
0
0
0
0
0
0
0
0
0
0
0
0
0
0
0
0
0
0
0
0
0
0
0
0
0
0
0
0
0
0
0
0
0
0
0
0
0
0
0
0
0
0
0
0
0
0
0
0
0
0
0
0
0
0
0
0
0
0
0
0
0
0
0
0
0
0
0
0
0
0
0
0
0
0
0
0
0
0
0
0
0
0
0
0
0
0
0
0
0
0
0
0
0
0
0
0
0
0
0
0
0
0
0
0
0
0
0
0
0
0
0
0
0
0
0
0
0
0
0
0
0
0
0
0
0
0
0
0
0
0
0
0
0
0
0
0
0
0
0
0
0
0
0
0
0
0
0
0
0
0
0
0
0
0
0
0
0
0
0
0
0
0
0
0
0
0
0
0
0
0
0
0
0
0
0
0
228025
137476
144234
227547
154490
193271
181879
250819
202915
138460
147019
167257
154324
196691
136365
276979
217402
197918
136974
347316
285029
219099
107655
250539
132933
140110
319024
218927
114355
286449
141452
207936
176128
249670
199002
246057
191293
187521
309112
284722
182236
197343
232182
230715
281897
237585
229269
141728
167200
103303
185195
276595
168173
293068
185909
319078
269842
227821
218598
193207
185737
250689
236478
420554
197233
220262
232272
242977
241574
207042
235664
270840
245445
211362
256864
260983
156788
474487
153985
462543
250501
196707
194397
239482
223832
302465
221937
230315
233505
190833
379908
331504
252747
192385
271984
383344
69453
71176.8
49646.7
77797.7
82365.4
48266.9
32052.8
51308.9
100159
28927.9
45102.9
41422.3
74704.3
104330
34629.3
50657.6
0
0
0
0
0
0
0
0
0
0
0
0
0
0
0
0
0
0
0
0
0
0
0
0
0
0
0
0
0
0
0
0
0
0
0
0
0
0
0
0
0
0
0
0
0
0
0
0
0
0
0
0
0
0
0
0
0
0
0
0
0
0
0
0
0
0
0
0
0
0
0
0
0
0
0
0
0
0
0
0
0
0
0
0
0
0
0
0
0
0
0
0
0
0
0
0
0
0
0
0
0
0
0
0
0
0
0
0
0
0
0
0
0
0
0
0
0
0
0
0
0
0
0
0
0
0
0
0
0
0
0
0
0
0
0
0
0
0
0
0
0
0
0
0
0
0
0
0
0
0
0
0
0
0
0
0
0
0
0
0
0
0
0
0
0
0
0
0
0
0
0
0
0
0
0
0
0
0
0
0
0
0
0
0
0
0
0
0
0
0
0
0
0
0
0
0
0
0
0
0
0
0
0
0
0
0
0
0
0
0
0
0
0
0
0
0
0
0
0
0
0
0
0
0
0
0
0
0
0
0
0
0
0
0
0
0
0
0
0
0
0
0
0
0
0
0
0
0
0
0
0
0
0
0
0
0
0
0
0
0
0
0
0
0
0
0
0
0
0
0
0
0
)
;

boundaryField
{
    inlet
    {
        type            zeroGradient;
    }
    outlet
    {
        type            zeroGradient;
    }
    wall
    {
        type            zeroGradient;
    }
    procBoundary2to0
    {
        type            processor;
        value           nonuniform List<scalar> 
192
(
236560
78652.5
207345
104973
194354
265048
257284
181651
202801
348017
307811
170954
223434
246145
332731
486069
264901
294639
454734
203778
396183
167778
193878
162963
26377
21108.2
64759
79685.2
0
0
0
0
0
0
0
0
0
0
0
0
0
0
0
0
0
0
0
0
0
0
0
0
0
0
0
0
0
0
0
0
0
0
0
0
0
0
0
0
0
0
0
0
0
0
0
0
0
0
0
0
0
0
0
0
0
0
0
0
0
0
0
0
0
0
0
0
163005
224827
283834
157582
141067
243940
342484
215531
315405
169475
180262
181792
299873
426289
271215
214992
149252
248570
258227
341437
182939
194148
215036
162320
83329.6
81614
71837.8
73280.5
0
0
0
0
0
0
0
0
0
0
0
0
0
0
0
0
0
0
0
0
0
0
0
0
0
0
0
0
0
0
0
0
0
0
0
0
0
0
0
0
0
0
0
0
0
0
0
0
0
0
0
0
0
0
0
0
0
0
0
0
0
0
0
0
0
0
0
0
)
;
    }
    procBoundary2to3
    {
        type            processor;
        value           nonuniform List<scalar> 
192
(
190748
148113
126097
243377
182508
317699
278565
197664
298048
160593
410315
215875
224166
176995
339393
172001
135320
234055
227499
329681
306659
171119
265903
94628.8
39510.7
75780.6
41861.9
61889.3
0
0
0
0
0
0
0
0
0
0
0
0
0
0
0
0
0
0
0
0
0
0
0
0
0
0
0
0
0
0
0
0
0
0
0
0
0
0
0
0
0
0
0
0
0
0
0
0
0
0
0
0
0
0
0
0
0
0
0
0
0
0
0
0
0
0
0
0
191035
199132
285075
230434
195477
210478
202841
239251
280465
194386
275890
149527
204112
477308
301204
274960
222186
188130
209518
239752
173682
351518
116564
390294
29838.3
49025.8
31199.7
43060.1
0
0
0
0
0
0
0
0
0
0
0
0
0
0
0
0
0
0
0
0
0
0
0
0
0
0
0
0
0
0
0
0
0
0
0
0
0
0
0
0
0
0
0
0
0
0
0
0
0
0
0
0
0
0
0
0
0
0
0
0
0
0
0
0
0
0
0
0
)
;
    }
}


// ************************************************************************* //
