/*--------------------------------*- C++ -*----------------------------------*\
| =========                 |                                                 |
| \\      /  F ield         | OpenFOAM: The Open Source CFD Toolbox           |
|  \\    /   O peration     | Version:  2506                                  |
|   \\  /    A nd           | Website:  www.openfoam.com                      |
|    \\/     M anipulation  |                                                 |
\*---------------------------------------------------------------------------*/
FoamFile
{
    version     2.0;
    format      ascii;
    arch        "LSB;label=32;scalar=64";
    class       surfaceScalarField;
    location    "0.06";
    object      phi;
}
// * * * * * * * * * * * * * * * * * * * * * * * * * * * * * * * * * * * * * //

dimensions      [0 3 -1 0 0 0 0];

oriented        oriented;

internalField   nonuniform List<scalar> 
3120
(
-1.10747e-09
-1.3462e-09
3.44149e-08
1.98716e-09
2.50904e-10
1.80083e-10
2.30557e-08
3.71127e-09
1.87856e-09
3.14745e-08
-3.20367e-09
4.37957e-08
1.15437e-09
4.58933e-09
2.67212e-08
1.60551e-09
2.60744e-09
3.85934e-09
3.09162e-08
-2.72695e-09
3.27101e-09
4.20858e-08
2.11724e-09
2.55278e-08
-9.06017e-10
-7.30991e-10
3.81544e-08
5.90099e-09
3.33927e-10
-1.02895e-10
3.9702e-08
-3.28836e-09
2.61259e-09
4.22625e-08
3.48021e-09
2.52888e-08
-9.25006e-10
2.62563e-08
4.44271e-09
6.31114e-09
2.22614e-09
2.59635e-08
7.51202e-09
-6.88651e-10
4.0482e-08
1.68487e-09
2.99232e-08
5.05719e-09
5.22791e-09
2.85851e-09
1.84618e-08
3.13355e-09
-2.96255e-09
-3.09095e-09
4.3879e-08
-4.1657e-09
-3.05848e-09
4.02765e-08
1.38946e-09
4.17349e-08
-1.27699e-09
1.62558e-09
2.72748e-08
1.95629e-09
-1.04354e-09
1.30863e-09
2.62831e-08
2.07664e-09
1.04782e-09
3.48593e-08
2.98255e-09
2.32308e-08
-1.71556e-10
3.04328e-09
3.52358e-08
1.67249e-09
-2.42507e-09
4.63875e-09
3.86255e-08
2.14364e-09
6.63999e-09
3.21016e-08
2.48519e-10
3.38606e-08
1.11914e-09
2.69223e-08
-1.05087e-09
2.30893e-09
-1.71715e-09
3.60061e-08
-2.56762e-09
-2.86851e-09
4.79683e-08
3.04959e-10
1.8951e-08
3.15753e-09
-2.14611e-09
-1.07536e-09
2.85969e-08
-2.96922e-09
-1.5547e-09
-9.87638e-10
4.74828e-08
-2.27358e-09
-2.15378e-09
4.52588e-08
1.14691e-09
4.14696e-08
-1.42587e-09
-1.87623e-09
3.33544e-08
-3.85292e-09
-1.90421e-09
-2.57992e-09
2.83537e-08
9.96416e-10
-1.56609e-10
2.99614e-08
2.87661e-09
1.84656e-08
-2.80235e-09
1.49079e-09
3.64077e-08
-1.73665e-09
-2.62426e-10
3.09951e-10
3.31957e-08
3.87017e-09
-2.4914e-10
2.80615e-08
-1.16126e-09
4.21057e-08
-3.959e-09
4.24822e-08
6.1489e-10
-1.0725e-08
-2.08979e-09
4.21697e-08
-7.72281e-09
4.28577e-09
3.34812e-08
7.86242e-09
1.7392e-08
2.70969e-09
-2.32102e-09
1.86214e-09
3.67774e-08
-3.19127e-09
6.95421e-09
1.04181e-09
3.63139e-08
-2.203e-09
3.14405e-10
5.88382e-08
3.36775e-09
3.42009e-08
-1.63006e-09
3.26704e-09
3.60379e-08
-2.45835e-09
2.90538e-09
-5.75593e-10
2.54357e-08
8.42663e-10
1.26659e-09
3.10719e-08
-6.24678e-10
2.71346e-08
-4.32934e-09
-6.12582e-09
5.85372e-08
-8.40732e-09
4.49625e-09
-1.75898e-09
2.55535e-08
-6.61574e-10
-4.21541e-09
3.87013e-08
-3.83345e-10
3.95298e-08
-5.08002e-09
4.99238e-08
-3.11002e-10
-8.17642e-09
1.97581e-09
2.89397e-08
4.41521e-09
2.49337e-09
2.60876e-08
2.66059e-09
2.46561e-08
-4.15046e-09
-2.08898e-09
1.76292e-09
4.08998e-08
-1.27056e-09
-7.26863e-10
1.73906e-09
2.86584e-08
1.39784e-09
3.05625e-09
4.55738e-08
2.86077e-10
2.70953e-08
-1.69901e-09
5.53202e-09
3.60204e-08
-2.0526e-09
-3.94087e-10
1.46078e-09
2.4409e-08
-2.30597e-10
3.987e-09
2.99777e-08
1.19499e-09
2.49409e-08
-4.61319e-09
-1.00628e-08
9.06557e-08
-1.19105e-08
-1.07828e-09
-1.4245e-09
2.49038e-08
-2.7372e-09
-2.35877e-09
4.6706e-08
2.40698e-09
3.25784e-08
7.44361e-10
3.50112e-08
5.94596e-09
-1.84048e-09
4.82078e-10
2.79487e-08
-1.71254e-10
2.34757e-09
2.21818e-08
-3.18447e-10
2.53138e-08
-2.10479e-09
-3.37838e-10
-6.42188e-10
4.14895e-08
-3.91651e-09
-6.78911e-10
1.48701e-09
2.40975e-08
-1.7493e-09
-4.47342e-10
4.72871e-08
8.52159e-10
2.97963e-08
2.3301e-09
4.49586e-09
2.85043e-08
4.79023e-11
-3.06398e-09
1.3811e-09
2.9909e-08
-3.52074e-10
-2.54404e-09
2.93625e-08
1.45552e-09
2.68093e-08
3.59747e-09
-5.88836e-09
9.67363e-08
7.06078e-10
-9.58724e-09
-2.7497e-09
4.22194e-08
4.65094e-09
8.70946e-10
2.90528e-08
3.02587e-09
3.56168e-08
2.03875e-09
3.79079e-08
-1.20034e-08
1.17953e-09
-3.51427e-09
3.17122e-08
-9.60206e-10
2.52566e-09
2.01823e-08
-3.16946e-09
4.46051e-08
-1.66832e-09
2.71162e-10
1.14517e-10
3.81624e-08
2.10799e-09
-2.58047e-09
-1.14639e-10
2.95615e-08
3.03428e-10
1.46644e-09
4.16506e-08
-2.53713e-10
3.35064e-08
1.35004e-10
-6.47941e-09
3.4566e-08
3.9764e-10
1.94326e-10
-1.56802e-09
3.1303e-08
8.85718e-10
-1.89534e-12
3.01404e-08
-7.29282e-10
2.82147e-08
4.48469e-09
4.01825e-09
7.52543e-08
6.49925e-09
5.85716e-10
8.82785e-10
4.36678e-08
-1.02192e-09
2.16724e-10
3.04425e-08
-2.77991e-10
3.50998e-08
1.39229e-09
4.05579e-08
-1.07558e-09
1.05055e-09
1.2381e-09
3.5239e-08
-2.48996e-09
-3.33475e-09
2.68667e-08
-1.8946e-09
4.03609e-08
2.09743e-09
-2.17369e-09
-1.57169e-09
3.59079e-08
5.22854e-09
-2.68021e-09
-7.04412e-10
3.17098e-08
-9.88838e-10
1.74919e-10
3.76412e-08
-3.08019e-10
3.44572e-08
-2.05064e-09
-5.24661e-09
3.64628e-08
3.82798e-09
-7.51341e-10
-1.88537e-09
3.11836e-08
-9.8853e-10
-4.02062e-10
3.09544e-08
-1.50625e-09
3.03511e-08
8.3426e-10
5.62539e-09
5.46875e-08
8.85933e-09
1.44166e-09
1.6328e-09
3.95417e-08
-1.04395e-09
1.14691e-09
3.13805e-08
-1.78525e-10
3.43968e-08
-1.86859e-09
4.21374e-08
2.17355e-09
3.73998e-09
-1.65471e-09
3.65411e-08
1.1619e-10
-4.01941e-09
2.93378e-08
1.04169e-09
3.52259e-08
2.93832e-09
1.27503e-09
-2.25589e-09
3.65724e-08
-4.91427e-10
-9.25147e-11
-1.1578e-09
3.47759e-08
1.39042e-11
3.64246e-11
3.59887e-08
-5.96699e-10
3.49906e-08
2.40647e-09
-5.07569e-09
3.74477e-08
-5.72372e-10
1.31162e-09
-3.73718e-09
3.48572e-08
7.61812e-14
-1.6302e-09
3.39317e-08
-2.63685e-09
3.36361e-08
3.84948e-09
2.12459e-10
4.31222e-08
2.42762e-09
3.24977e-09
-1.76493e-09
3.81683e-08
-1.11163e-10
-1.5778e-09
3.46898e-08
-1.91741e-09
3.52648e-08
1.91522e-09
3.95105e-08
6.60613e-10
2.64048e-10
2.03892e-09
3.73161e-08
-2.66366e-09
-1.64804e-09
3.43584e-08
-2.91071e-09
3.58394e-08
-1.02198e-09
1.08968e-09
-1.10553e-09
3.68555e-08
-7.29426e-10
5.12888e-10
-8.10756e-10
3.60729e-08
2.63139e-10
-4.7795e-10
3.59783e-08
-8.28507e-10
3.56636e-08
1.3476e-09
-1.80415e-09
3.73614e-08
-5.62622e-10
9.21354e-10
-1.7621e-09
3.62344e-08
6.36467e-11
-1.28972e-09
3.56009e-08
-1.74938e-09
3.54065e-08
1.44163e-09
2.86972e-10
3.89827e-08
6.06838e-10
1.36437e-09
-9.05941e-10
3.73893e-08
-1.48906e-10
-1.20263e-09
3.61161e-08
-1.59099e-09
3.61062e-08
2.84925e-10
3.81222e-08
6.04481e-10
7.86016e-10
5.33997e-10
3.7301e-08
-1.13982e-09
-9.31327e-10
3.62722e-08
-1.65045e-09
3.6546e-08
-1.31895e-09
7.77292e-10
-5.86392e-10
3.70679e-08
-5.99974e-10
5.76044e-10
-5.42458e-10
3.66865e-08
2.86826e-10
-5.22201e-10
3.64612e-08
-7.05007e-10
3.63128e-08
8.01739e-10
-8.73556e-10
3.73147e-08
-4.67959e-10
6.15189e-10
-9.48686e-10
3.6827e-08
1.32862e-10
-9.1506e-10
3.64757e-08
-1.12226e-09
3.63574e-08
7.40335e-10
-3.33543e-10
3.78248e-08
-1.22412e-10
6.3648e-10
-7.28884e-10
3.72733e-08
-3.19758e-11
-9.12057e-10
3.67817e-08
-1.11938e-09
3.67162e-08
3.57837e-10
3.76498e-08
-2.00723e-10
-1.81623e-11
3.1435e-10
3.735e-08
-7.34228e-10
-3.55226e-10
3.69703e-08
-9.40132e-10
3.70108e-08
-9.31593e-10
4.65873e-10
-2.69526e-10
3.72066e-08
-4.09658e-10
3.6851e-10
-3.17269e-10
3.70149e-08
1.64212e-10
-3.75809e-10
3.68686e-08
-4.93545e-10
3.67878e-08
4.09398e-10
-3.80412e-10
3.73145e-08
-2.98386e-10
3.11842e-10
-4.97097e-10
3.71043e-08
5.09804e-11
-5.7449e-10
3.69353e-08
-7.05289e-10
3.68746e-08
2.98912e-10
-2.26143e-10
3.74947e-08
-1.23184e-10
2.30411e-10
-4.46996e-10
3.72917e-08
-7.22112e-11
-5.95116e-10
3.71053e-08
-7.32768e-10
3.70727e-08
8.34005e-11
3.74807e-08
-1.65545e-10
2.5115e-11
3.81323e-11
3.73715e-08
-4.22953e-10
-2.47973e-10
3.72397e-08
-5.78019e-10
3.72561e-08
-6.44545e-10
2.42177e-10
-1.35538e-10
3.73017e-08
-2.22438e-10
1.88658e-10
-1.83769e-10
3.72071e-08
7.01251e-11
-2.38576e-10
3.71286e-08
-3.13751e-10
3.70883e-08
1.89409e-10
-2.04638e-10
3.73489e-08
-1.54784e-10
1.33001e-10
-2.80565e-10
3.72577e-08
-4.16672e-12
-3.47642e-10
3.71818e-08
-4.27949e-10
3.71562e-08
1.14631e-10
-1.76109e-10
3.74211e-08
-6.95236e-11
6.40924e-11
-2.82387e-10
3.73443e-08
-8.36718e-11
-3.70147e-10
3.7276e-08
-4.51198e-10
3.72681e-08
9.2752e-12
3.74399e-08
-1.56774e-10
1.2245e-11
-3.54524e-11
3.74023e-08
-2.68076e-10
-1.76934e-10
3.73621e-08
-3.50574e-10
3.73789e-08
-4.03405e-10
1.13681e-10
-7.18674e-11
3.73659e-08
-1.0977e-10
8.25048e-11
-1.0739e-10
3.73201e-08
1.69409e-11
-1.47402e-10
3.72818e-08
-1.94847e-10
3.72639e-08
7.59115e-11
-1.15983e-10
3.73872e-08
-7.01193e-11
4.17265e-11
-1.63023e-10
3.73478e-08
-3.04281e-11
-2.09053e-10
3.73159e-08
-2.58217e-10
3.73081e-08
2.91004e-11
-1.20013e-10
3.74202e-08
-2.40442e-11
-5.09968e-12
-1.75811e-10
3.73916e-08
-7.96181e-11
-2.2704e-10
3.73689e-08
-2.74424e-10
3.73724e-08
-2.73672e-11
3.74396e-08
-1.14771e-10
2.26192e-11
-6.00618e-11
3.74293e-08
-1.69577e-10
-1.31151e-10
3.74216e-08
-2.15052e-10
3.74384e-08
-2.49155e-10
4.82072e-11
-4.187e-11
3.74088e-08
-5.01714e-11
2.92724e-11
-6.55792e-11
3.73872e-08
-6.81023e-12
-9.2146e-11
3.73698e-08
-1.21782e-10
3.73632e-08
2.357e-11
-7.02937e-11
3.7419e-08
-2.67784e-11
2.28975e-12
-9.87223e-11
3.74025e-08
-3.64172e-11
-1.27849e-10
3.73906e-08
-1.57684e-10
3.73905e-08
-4.95715e-12
-8.02464e-11
3.74358e-08
-5.15476e-13
-2.71676e-11
-1.10827e-10
3.74264e-08
-6.63258e-11
-1.40507e-10
3.7421e-08
-1.68174e-10
3.74281e-08
-3.60887e-11
3.74502e-08
-8.03871e-11
2.5821e-11
-5.82289e-11
3.745e-08
-1.0891e-10
-9.54919e-11
3.7453e-08
-1.34298e-10
3.74675e-08
-1.54902e-10
1.68558e-11
-2.69367e-11
3.74369e-08
-2.03105e-11
5.20646e-12
-4.20677e-11
3.74272e-08
-1.4773e-11
-5.90137e-11
3.74201e-08
-7.73611e-11
3.74189e-08
1.28383e-12
-4.50264e-11
3.74422e-08
-6.17768e-12
-1.19276e-11
-6.2046e-11
3.7436e-08
-3.31107e-11
-7.98925e-11
3.74327e-08
-9.78903e-11
3.74356e-08
-1.58744e-11
-5.36867e-11
3.74516e-08
9.04146e-12
-2.9946e-11
-7.09518e-11
3.74497e-08
-5.11529e-11
-8.81891e-11
3.74507e-08
-1.04351e-10
3.74579e-08
-3.34677e-11
3.74613e-08
-5.52334e-11
2.42012e-11
-4.77628e-11
3.74645e-08
-7.07358e-11
-6.79029e-11
3.74702e-08
-8.50532e-11
3.74817e-08
-9.71361e-11
3.01074e-12
-1.87488e-11
3.74549e-08
-6.1643e-12
-4.12528e-12
-2.82383e-11
3.7451e-08
-1.52752e-11
-3.88767e-11
3.74487e-08
-5.02365e-11
3.74497e-08
-6.68325e-12
-2.99797e-11
3.7458e-08
2.25373e-12
-1.48582e-11
-4.02242e-11
3.74563e-08
-2.66284e-11
-5.10671e-11
3.74565e-08
-6.19375e-11
3.746e-08
-1.70443e-11
-3.61947e-11
3.74636e-08
1.15124e-11
-2.57978e-11
-4.61418e-11
3.74646e-08
-3.7519e-11
-5.62309e-11
3.74675e-08
-6.5725e-11
3.74736e-08
-2.72047e-11
3.74699e-08
-3.76881e-11
2.03692e-11
-3.6173e-11
3.74738e-08
-4.6375e-11
-4.72695e-11
3.74795e-08
-5.45434e-11
3.74881e-08
-6.15664e-11
-2.26877e-12
-1.36053e-11
3.74663e-08
-1.86041e-13
-6.58614e-12
-1.95815e-11
3.7465e-08
-1.27952e-11
-2.62856e-11
3.74648e-08
-3.33841e-11
3.74664e-08
-8.35269e-12
-2.04709e-11
3.74683e-08
5.09654e-12
-1.33429e-11
-2.66708e-11
3.74685e-08
-1.98899e-11
-3.32821e-11
3.74698e-08
-3.99152e-11
3.7473e-08
-1.46492e-11
-2.45567e-11
3.74717e-08
1.07648e-11
-2.00169e-11
-3.03819e-11
3.74736e-08
-2.65307e-11
-3.63492e-11
3.74767e-08
-4.19931e-11
3.74815e-08
-2.06291e-11
3.74757e-08
-2.56356e-11
1.60536e-11
-2.6151e-11
3.74795e-08
-3.06105e-11
-3.22992e-11
3.74843e-08
-3.53267e-11
3.74906e-08
-3.94266e-11
-3.68238e-12
-1.0004e-11
3.74733e-08
1.98871e-12
-6.26289e-12
-1.3779e-11
3.74731e-08
-9.67803e-12
-1.80267e-11
3.74736e-08
-2.24721e-11
3.74751e-08
-7.52439e-12
-1.4121e-11
3.74747e-08
5.3349e-12
-1.05445e-11
-1.78906e-11
3.74755e-08
-1.41243e-11
-2.19382e-11
3.74771e-08
-2.60205e-11
3.74796e-08
-1.13741e-11
-1.66756e-11
3.74769e-08
8.84516e-12
-1.4637e-11
-2.0127e-11
3.74789e-08
-1.82114e-11
-2.36841e-11
3.74816e-08
-2.70717e-11
3.74852e-08
-1.4948e-11
3.74794e-08
-1.73527e-11
1.20581e-11
-1.83054e-11
3.74826e-08
-2.0249e-11
-2.16679e-11
3.74864e-08
-2.29957e-11
3.7491e-08
-2.54034e-11
-3.54504e-12
-7.2531e-12
3.74776e-08
2.41751e-12
-5.08306e-12
-9.60911e-12
3.74778e-08
-6.93178e-12
-1.22621e-11
3.74785e-08
-1.49872e-11
3.74797e-08
-5.94462e-12
-9.67507e-12
3.74786e-08
4.52554e-12
-7.75982e-12
-1.19566e-11
3.74795e-08
-9.66253e-12
-1.44124e-11
3.74809e-08
-1.68988e-11
3.74829e-08
-8.2902e-12
-1.12167e-11
3.748e-08
6.69914e-12
-1.02502e-11
-1.32674e-11
3.74818e-08
-1.21549e-11
-1.53805e-11
3.7484e-08
-1.74031e-11
3.74866e-08
-1.04377e-11
3.74815e-08
-1.16219e-11
8.66344e-12
-1.24445e-11
3.74842e-08
-1.33199e-11
-1.42232e-11
3.74872e-08
-1.49183e-11
3.74905e-08
-1.63197e-11
-2.89251e-12
-5.05315e-12
3.74801e-08
2.15356e-12
-3.79055e-12
-6.47165e-12
3.74805e-08
-4.76992e-12
-8.05894e-12
3.74812e-08
-9.6519e-12
3.74822e-08
-4.33833e-12
-6.45021e-12
3.74809e-08
3.44137e-12
-5.39372e-12
-7.80198e-12
3.74818e-08
-6.37324e-12
-9.25161e-12
3.7483e-08
-1.07077e-11
3.74844e-08
-5.73901e-12
-7.35722e-12
3.74818e-08
4.76083e-12
-6.86969e-12
-8.55488e-12
3.74833e-08
-7.83715e-12
-9.78793e-12
3.74851e-08
-1.09615e-11
3.7487e-08
-7.01034e-12
3.74826e-08
-7.60809e-12
5.94899e-12
-8.16309e-12
3.74849e-08
-8.58805e-12
-9.04423e-12
3.74873e-08
-9.50236e-12
3.74896e-08
-1.03029e-11
-2.14672e-12
-3.29413e-12
3.74817e-08
1.6852e-12
-2.64495e-12
-4.09189e-12
3.74821e-08
-3.14602e-12
-4.98114e-12
3.74827e-08
-5.85565e-12
3.74835e-08
-2.96186e-12
-4.08794e-12
3.74822e-08
2.43144e-12
-3.54506e-12
-4.84763e-12
3.7483e-08
-4.03096e-12
-5.65982e-12
3.7484e-08
-6.45735e-12
3.74851e-08
-3.75594e-12
-4.60033e-12
3.74827e-08
3.19803e-12
-4.37554e-12
-5.27148e-12
3.74841e-08
-4.83661e-12
-5.9648e-12
3.74855e-08
-6.60833e-12
3.74869e-08
-4.47973e-12
3.74832e-08
-4.74711e-12
3.89843e-12
-5.11005e-12
3.74851e-08
-5.29644e-12
-5.50367e-12
3.7487e-08
-5.80519e-12
3.74888e-08
-6.2529e-12
-1.5659e-12
-1.93961e-12
3.74826e-08
1.28327e-12
-1.85158e-12
-2.35273e-12
3.7483e-08
-2.07845e-12
-2.81229e-12
3.74835e-08
-3.25995e-12
3.74841e-08
-1.9891e-12
-2.35514e-12
3.7483e-08
1.67687e-12
-2.31996e-12
-2.75204e-12
3.74837e-08
-2.53295e-12
-3.17309e-12
3.74845e-08
-3.57747e-12
3.74853e-08
-2.40725e-12
-2.61811e-12
3.74833e-08
2.08804e-12
-2.75354e-12
-2.97371e-12
3.74844e-08
-2.94343e-12
-3.33956e-12
3.74856e-08
-3.66765e-12
3.74867e-08
-2.79587e-12
3.74834e-08
-2.72971e-12
2.46882e-12
-3.14534e-12
3.74852e-08
-3.01781e-12
-3.28678e-12
3.74867e-08
-3.27424e-12
3.74881e-08
-3.50025e-12
-1.47354e-12
-1.01321e-12
1.23237e-12
-1.69501e-12
-1.21322e-12
-1.84439e-12
-1.43475e-12
-1.65659e-12
-1.67959e-12
-1.24232e-12
1.41367e-12
-1.92272e-12
-1.42475e-12
-2.06898e-12
-1.61801e-12
-1.80604e-12
-1.87495e-12
-1.3946e-12
1.59078e-12
-2.12441e-12
-1.54717e-12
-2.25965e-12
-1.70273e-12
-1.84082e-12
-2.04318e-12
-1.49332e-12
1.73066e-12
-2.2949e-12
-1.6005e-12
-2.40676e-12
-1.68392e-12
-1.75341e-12
5.00191e-09
1.51397e-09
1.89586e-08
2.309e-09
-3.41239e-09
-2.47241e-09
5.00468e-08
6.80657e-10
4.79064e-09
2.98358e-08
6.50232e-10
4.18494e-08
1.50773e-09
7.164e-09
1.5243e-08
5.45625e-09
1.2811e-09
3.3115e-09
2.98441e-08
-4.47556e-09
3.661e-09
4.82736e-08
8.95357e-09
3.12226e-08
1.59089e-10
1.7746e-09
3.39516e-08
3.3724e-09
1.85373e-09
-9.31001e-10
4.2281e-08
-1.29284e-09
8.28312e-11
5.2882e-08
5.47023e-09
5.93987e-08
-3.46552e-10
3.47582e-08
4.24997e-09
3.05615e-09
3.92093e-08
1.26349e-09
5.33326e-08
6.65123e-08
6.70182e-10
7.13401e-10
1.48523e-08
1.67179e-09
-1.9879e-10
-2.98349e-09
5.13318e-08
2.98615e-09
1.76569e-09
2.519e-08
4.61608e-10
4.6586e-08
-6.81124e-10
-9.00866e-10
1.7937e-08
-3.98631e-10
1.35124e-09
2.66407e-09
2.21642e-08
2.77512e-09
2.37164e-09
4.62438e-08
-2.62761e-09
3.42427e-08
2.44166e-10
1.39835e-09
3.13357e-08
7.24669e-11
8.02865e-10
-3.07675e-09
4.74632e-08
-6.2326e-10
4.94349e-09
5.17363e-08
-2.84546e-09
5.29403e-08
-5.31144e-10
3.69501e-08
-1.5897e-10
3.84767e-09
3.26347e-08
-3.45472e-09
6.50551e-08
5.13352e-08
-5.98496e-09
-7.83734e-09
3.4942e-08
-5.65245e-09
7.98254e-09
6.87922e-09
2.27623e-08
-6.44927e-10
-4.69099e-09
4.63709e-08
4.2706e-09
4.46645e-08
8.18706e-10
-4.087e-09
1.60805e-08
-2.71239e-09
-3.21848e-10
-3.53675e-09
3.37207e-08
4.9349e-09
3.00767e-09
3.32883e-08
1.17472e-08
3.49132e-08
1.92948e-10
-3.92652e-09
3.36479e-08
-2.66554e-09
2.47709e-09
4.32477e-09
3.73175e-08
8.28958e-09
-1.60739e-09
5.05389e-08
-4.56454e-09
8.34151e-08
2.32541e-09
3.29314e-08
-2.18559e-09
4.99023e-10
3.87943e-08
5.8707e-09
5.70116e-08
5.50919e-08
3.98821e-09
-3.64931e-09
4.16037e-08
-7.31169e-09
-5.94192e-10
-6.60742e-11
3.1826e-08
-7.40377e-09
4.92988e-10
5.5348e-08
3.57957e-09
2.29325e-08
2.5934e-09
-4.19234e-09
1.45747e-08
-5.44602e-10
-1.20093e-10
-7.50156e-09
4.38696e-08
1.8262e-10
-1.57016e-09
3.50488e-08
6.12016e-09
3.06451e-08
1.71429e-09
3.51016e-09
2.38452e-08
3.85881e-10
1.74625e-09
-1.3921e-09
3.1176e-08
5.41673e-09
-2.20985e-09
4.75081e-08
8.39273e-09
8.11527e-08
4.19941e-10
3.5897e-08
6.57901e-10
7.17387e-10
3.70903e-08
5.42633e-09
4.97298e-08
7.3371e-08
-3.36851e-09
-2.96069e-09
5.63488e-08
-2.46995e-09
5.69721e-10
-2.55921e-09
3.02757e-08
-9.33111e-11
-1.74793e-09
5.74405e-08
-1.36257e-09
1.92475e-08
-1.16171e-09
-5.13596e-09
2.11991e-08
-3.28733e-09
1.30092e-09
3.09619e-09
3.57516e-08
-3.48776e-10
-7.07198e-09
4.20225e-08
-1.17989e-08
3.67572e-08
1.94592e-09
-3.16625e-09
2.03239e-08
-3.94254e-10
-3.0743e-09
-5.12746e-09
4.44199e-08
-5.71568e-09
1.04272e-08
3.26503e-08
1.54871e-08
3.36234e-08
9.88151e-10
3.36892e-08
-1.74587e-09
2.51358e-09
3.08692e-08
-6.72417e-09
6.96908e-08
8.0417e-08
7.63834e-09
5.5166e-10
2.8901e-08
7.25449e-09
-7.18317e-09
-2.53066e-09
4.66677e-08
6.39993e-09
-1.21804e-09
4.1906e-08
-1.97439e-09
2.53856e-08
1.16997e-09
2.77049e-09
1.70542e-08
7.56183e-10
-1.63991e-09
6.0485e-09
2.99823e-08
2.98847e-09
5.24158e-09
3.09346e-08
-2.0271e-09
3.8298e-08
2.33158e-09
-6.87628e-10
2.33354e-08
-1.88504e-09
-1.07237e-09
-3.78539e-09
5.76578e-08
-1.1335e-09
-1.78461e-08
5.57991e-08
-1.54781e-08
4.08297e-08
8.34252e-10
3.43153e-08
-2.23467e-09
-9.19909e-09
3.7274e-08
-7.63752e-09
5.0834e-08
4.54396e-08
7.13393e-10
1.9563e-09
2.41203e-08
1.035e-09
1.15303e-09
2.88784e-09
4.08505e-08
1.05513e-09
6.94935e-10
3.94136e-08
-4.9435e-10
3.21741e-08
-1.00182e-10
-3.71063e-10
2.05939e-08
-1.11239e-09
-2.74257e-10
-1.37074e-09
3.44149e-08
-1.46646e-09
-1.23421e-09
3.4056e-08
-6.93418e-09
4.36289e-08
-1.23184e-09
-9.71675e-10
2.53531e-08
-1.85322e-10
3.3573e-10
2.16272e-09
5.25571e-08
3.30568e-09
-2.12527e-09
5.37196e-08
-7.49156e-09
4.17149e-08
-1.97024e-10
3.32898e-08
-2.5032e-11
-6.25771e-09
4.55112e-08
-4.86156e-09
4.87535e-08
3.24478e-08
-2.1115e-09
3.19301e-09
2.43326e-08
8.79978e-10
-2.5622e-10
2.85212e-09
3.626e-08
-7.54022e-10
3.98257e-09
3.69711e-08
2.84886e-09
3.45832e-08
-1.59366e-09
9.06422e-10
2.42987e-08
1.75538e-10
-4.57904e-10
-5.81967e-10
3.67145e-08
-2.07034e-09
1.57367e-09
3.80779e-08
3.92074e-09
4.26038e-08
-2.75997e-09
2.4455e-10
2.75731e-08
1.20186e-09
3.72456e-10
2.76759e-09
4.60761e-08
2.40661e-10
4.33721e-09
5.1088e-08
1.68751e-09
4.79611e-08
-1.26694e-09
3.35128e-08
1.28902e-09
1.12883e-10
4.69005e-08
-1.82227e-09
5.50257e-08
3.59399e-08
-2.4766e-10
2.50592e-09
2.24941e-08
2.41194e-10
1.25623e-09
-1.53043e-10
3.22454e-08
1.46257e-10
-1.00636e-09
3.61783e-08
-7.02957e-10
3.76569e-08
-4.11341e-10
1.54887e-09
2.588e-08
-2.12713e-10
5.45523e-10
-7.28072e-10
3.63336e-08
-4.82589e-10
-2.58045e-09
4.06813e-08
1.15948e-09
4.35231e-08
-1.57557e-09
5.11671e-10
2.99461e-08
2.3991e-10
9.59879e-11
1.00709e-09
4.26695e-08
3.28667e-10
-4.08945e-10
4.86855e-08
5.07392e-09
4.85054e-08
-9.52719e-10
3.45646e-08
4.1306e-10
5.3877e-10
4.64169e-08
2.16534e-09
5.29907e-08
4.71882e-08
-7.23599e-10
8.04556e-10
2.2847e-08
1.70419e-10
-2.62038e-10
-6.03553e-10
3.12476e-08
-7.33181e-10
-1.18876e-09
3.61884e-08
-9.72919e-10
3.87508e-08
-1.03304e-09
5.3968e-10
2.71007e-08
7.72162e-11
-5.70152e-10
-7.65424e-10
3.6033e-08
-8.73884e-10
-1.58903e-09
4.13867e-08
7.9903e-11
4.40478e-08
-1.41145e-09
2.86924e-10
3.13973e-08
2.13193e-10
-7.26215e-10
2.66103e-11
4.11924e-08
-5.17657e-10
-4.14744e-10
4.73036e-08
1.79059e-09
4.90608e-08
-1.22593e-09
3.57987e-08
2.79278e-10
-4.61309e-10
4.56794e-08
8.25506e-11
5.20331e-08
5.18228e-08
-1.12925e-10
1.13074e-10
2.25437e-08
1.02169e-10
-5.40325e-11
-3.88773e-10
3.08433e-08
-4.43795e-10
-6.72721e-10
3.63113e-08
-5.65859e-10
3.91605e-08
-2.32038e-10
2.44231e-10
2.71144e-08
8.70751e-11
-1.46617e-10
-2.21109e-10
3.57806e-08
-4.43447e-10
-5.60803e-10
4.15723e-08
5.32577e-12
4.44656e-08
-3.62848e-10
2.22406e-10
3.16616e-08
1.20553e-10
-2.11422e-10
7.85048e-11
4.07419e-08
-3.2691e-10
-9.32553e-11
4.69526e-08
6.96235e-10
4.96088e-08
-3.33737e-10
3.62176e-08
1.37737e-10
-9.46647e-11
4.55193e-08
-1.06462e-10
5.19525e-08
5.40001e-08
-1.67725e-10
-6.8333e-11
2.25274e-08
8.67519e-11
-1.91293e-10
-3.13037e-10
3.07572e-08
-3.79838e-10
-4.67911e-10
3.63902e-08
-4.66051e-10
3.93159e-08
-2.24094e-10
1.10495e-11
2.71746e-08
8.43355e-11
-2.36652e-10
-1.94498e-10
3.56753e-08
-3.82428e-10
-3.38445e-10
4.15892e-08
-1.82456e-10
4.46285e-08
-2.64309e-10
4.31692e-11
3.18032e-08
9.07927e-11
-2.54105e-10
-4.32424e-11
4.0581e-08
-3.32574e-10
-1.03001e-10
4.67963e-08
1.41644e-10
4.98468e-08
-2.60605e-10
3.64291e-08
9.27876e-11
-2.15191e-10
4.54311e-08
-2.44745e-10
5.18795e-08
5.48176e-08
-1.17931e-10
-9.55442e-11
2.25122e-08
7.19165e-11
-1.61571e-10
-2.04446e-10
3.07376e-08
-2.67127e-10
-2.8582e-10
3.64315e-08
-3.13289e-10
3.93798e-08
-1.38919e-10
-3.7978e-11
2.7186e-08
7.00311e-11
-1.81437e-10
-1.27142e-10
3.56411e-08
-2.7482e-10
-1.95571e-10
4.1593e-08
-1.65039e-10
4.46856e-08
-1.53068e-10
-1.49859e-12
3.18507e-08
6.94586e-11
-1.88297e-10
-4.47787e-11
4.05345e-08
-2.58176e-10
-7.44793e-11
4.67457e-08
-6.97024e-12
4.99449e-08
-1.53289e-10
3.65131e-08
6.82407e-11
-1.76527e-10
4.541e-08
-2.26978e-10
5.18558e-08
5.51155e-08
-9.22754e-11
-8.04391e-11
2.25126e-08
5.77492e-11
-1.28967e-10
-1.32752e-10
3.07379e-08
-1.86756e-10
-1.7756e-10
3.64523e-08
-2.04084e-10
3.94031e-08
-9.99293e-11
-4.43011e-11
2.71943e-08
5.57204e-11
-1.37739e-10
-8.58655e-11
3.56327e-08
-1.93904e-10
-1.21251e-10
4.15933e-08
-1.25017e-10
4.46974e-08
-1.03708e-10
-1.56326e-11
3.18724e-08
5.3646e-11
-1.39759e-10
-3.70343e-11
4.05223e-08
-1.889e-10
-5.3132e-11
4.67273e-08
-3.68767e-11
4.99697e-08
-1.03318e-10
3.65493e-08
5.19733e-11
-1.35628e-10
4.54056e-08
-1.78595e-10
5.18459e-08
5.52103e-08
-6.95733e-11
-5.94716e-11
2.25171e-08
4.44102e-11
-9.67229e-11
-8.68924e-11
3.07434e-08
-1.28943e-10
-1.12681e-10
3.64632e-08
-1.32285e-10
3.94103e-08
-7.23339e-11
-3.65767e-11
2.72013e-08
4.26765e-11
-1.01014e-10
-5.82864e-11
3.56332e-08
-1.34202e-10
-7.86282e-11
4.15928e-08
-8.91933e-11
4.46935e-08
-7.29344e-11
-1.59344e-11
3.18844e-08
4.07992e-11
-1.01566e-10
-2.77328e-11
4.05209e-08
-1.3316e-10
-3.79182e-11
4.67185e-08
-3.80859e-11
4.99669e-08
-7.23432e-11
3.65668e-08
3.94072e-11
-1.00171e-10
4.5406e-08
-1.30071e-10
5.1838e-08
5.52275e-08
-5.09949e-11
-4.18019e-11
2.25217e-08
3.31543e-11
-6.9691e-11
-5.70396e-11
3.07487e-08
-8.79231e-11
-7.23031e-11
3.64689e-08
-8.54129e-11
3.9411e-08
-5.19773e-11
-2.69166e-11
2.72069e-08
3.18238e-11
-7.19209e-11
-3.9225e-11
3.56357e-08
-9.13532e-11
-5.16219e-11
4.15918e-08
-6.11317e-11
4.46856e-08
-5.16359e-11
-1.26014e-11
3.18917e-08
3.0366e-11
-7.19794e-11
-1.95302e-11
4.05219e-08
-9.13733e-11
-2.62489e-11
4.67128e-08
-3.00218e-11
4.99558e-08
-5.10688e-11
3.65762e-08
2.93397e-11
-7.14278e-11
4.54069e-08
-9.05187e-11
5.18308e-08
5.52202e-08
-3.65287e-11
-2.87705e-11
2.25253e-08
2.42208e-11
-4.89419e-11
-3.75879e-11
3.07524e-08
-5.93335e-11
-4.67971e-11
3.64715e-08
-5.51895e-11
3.94093e-08
-3.68683e-11
-1.88772e-11
2.72108e-08
2.32486e-11
-5.01531e-11
-2.62506e-11
3.56378e-08
-6.14399e-11
-3.401e-11
4.15903e-08
-4.09631e-11
4.46777e-08
-3.635e-11
-9.09485e-12
3.18963e-08
2.21787e-11
-5.00576e-11
-1.33765e-11
4.05229e-08
-6.16356e-11
-1.78215e-11
4.67082e-08
-2.1463e-11
4.99442e-08
-3.5918e-11
3.65818e-08
2.14617e-11
-4.98354e-11
4.54075e-08
-6.14849e-11
5.18246e-08
5.52076e-08
-2.56961e-11
-1.96514e-11
2.25278e-08
1.73966e-11
-3.37607e-11
-2.48872e-11
3.07547e-08
-3.96705e-11
-3.05288e-11
3.64723e-08
-3.58079e-11
3.94067e-08
-2.58127e-11
-1.29782e-11
2.72135e-08
1.66959e-11
-3.44541e-11
-1.757e-11
3.5639e-08
-4.0938e-11
-2.25029e-11
4.15885e-08
-2.71992e-11
4.46709e-08
-2.53551e-11
-6.32393e-12
3.18993e-08
1.59277e-11
-3.43324e-11
-9.08589e-12
4.05233e-08
-4.10949e-11
-1.20366e-11
4.67043e-08
-1.47569e-11
4.99342e-08
-2.50751e-11
3.65851e-08
1.54429e-11
-3.42616e-11
4.54074e-08
-4.11469e-11
5.18192e-08
5.51957e-08
-1.77726e-11
-1.33573e-11
2.25293e-08
1.22812e-11
-2.29294e-11
-1.65064e-11
3.07558e-08
-2.62277e-11
-1.99918e-11
3.64721e-08
-2.32868e-11
3.94041e-08
-1.7816e-11
-8.84999e-12
2.7215e-08
1.17787e-11
-2.33472e-11
-1.17688e-11
3.56395e-08
-2.69927e-11
-1.49178e-11
4.15866e-08
-1.79706e-11
4.46654e-08
-1.74668e-11
-4.34357e-12
3.1901e-08
1.12361e-11
-2.32377e-11
-6.16591e-12
4.05232e-08
-2.70919e-11
-8.11699e-12
4.67009e-08
-9.97198e-12
4.99263e-08
-1.7309e-11
3.65869e-08
1.09221e-11
-2.32415e-11
4.54069e-08
-2.71989e-11
5.18147e-08
5.51862e-08
-1.20481e-11
-9.00462e-12
2.25301e-08
8.47712e-12
-1.52844e-11
-1.09014e-11
3.07562e-08
-1.70442e-11
-1.30467e-11
3.64715e-08
-1.50801e-11
3.94017e-08
-1.20722e-11
-6.00392e-12
2.72159e-08
8.12775e-12
-1.55445e-11
-7.86635e-12
3.56394e-08
-1.75068e-11
-9.84998e-12
4.15847e-08
-1.1794e-11
4.46611e-08
-1.18236e-11
-2.98161e-12
3.19018e-08
7.75762e-12
-1.54539e-11
-4.19235e-12
4.05228e-08
-1.75736e-11
-5.46237e-12
4.66981e-08
-6.69335e-12
4.99203e-08
-1.17526e-11
3.65879e-08
7.5702e-12
-1.54926e-11
4.5406e-08
-1.77017e-11
5.1811e-08
5.51788e-08
-7.93004e-12
-5.94146e-12
2.25305e-08
5.67009e-12
-9.89793e-12
-7.07112e-12
3.07562e-08
-1.07678e-11
-8.3695e-12
3.64706e-08
-9.61496e-12
3.93996e-08
-7.95314e-12
-3.99002e-12
2.72163e-08
5.43947e-12
-1.00642e-11
-5.17301e-12
3.5639e-08
-1.10569e-11
-6.40411e-12
4.15831e-08
-7.63546e-12
4.46577e-08
-7.78909e-12
-2.00967e-12
3.19022e-08
5.19661e-12
-1.00021e-11
-2.81053e-12
4.05221e-08
-1.1119e-11
-3.63571e-12
4.66958e-08
-4.45669e-12
4.99158e-08
-7.77256e-12
3.65882e-08
5.09436e-12
-1.00622e-11
4.54051e-08
-1.12575e-11
5.18081e-08
5.51733e-08
-4.98482e-12
-3.72732e-12
2.25307e-08
3.62087e-12
-6.13749e-12
-4.38622e-12
3.0756e-08
-6.52892e-12
-5.1592e-12
3.64698e-08
-5.90765e-12
3.93979e-08
-5.00853e-12
-2.50166e-12
2.72164e-08
3.47238e-12
-6.25073e-12
-3.24991e-12
3.56386e-08
-6.71439e-12
-4.00599e-12
4.15818e-08
-4.76804e-12
4.46552e-08
-4.91148e-12
-1.2701e-12
3.19023e-08
3.31511e-12
-6.21949e-12
-1.79789e-12
4.05215e-08
-6.77186e-12
-2.33157e-12
4.6694e-08
-2.87094e-12
4.99126e-08
-4.92212e-12
3.65883e-08
3.25745e-12
-6.28402e-12
4.54043e-08
-6.89828e-12
5.18059e-08
5.51695e-08
-2.99853e-12
-2.13025e-12
2.25307e-08
2.17989e-12
-3.67681e-12
-2.49923e-12
3.07559e-08
-3.84202e-12
-2.9338e-12
3.64693e-08
-3.35607e-12
3.93968e-08
-3.01295e-12
-1.42678e-12
2.72165e-08
2.08285e-12
-3.74362e-12
-1.87571e-12
3.56384e-08
-3.94913e-12
-2.31025e-12
4.1581e-08
-2.75233e-12
4.46536e-08
-2.95516e-12
-7.27401e-13
3.19024e-08
1.98509e-12
-3.72021e-12
-1.06915e-12
4.05211e-08
-3.98415e-12
-1.38281e-12
4.66928e-08
-1.70059e-12
4.99105e-08
-2.96578e-12
3.65884e-08
1.95049e-12
-3.75465e-12
4.54038e-08
-4.06156e-12
5.18046e-08
5.51672e-08
-1.94313e-12
-1.08546e-12
1.34757e-12
-2.43591e-12
-1.26598e-12
-2.62304e-12
-1.46819e-12
-1.67029e-12
-1.92309e-12
-6.9564e-13
1.2919e-12
-2.43362e-12
-9.1713e-13
-2.64047e-12
-1.13616e-12
-1.36659e-12
-1.86815e-12
-3.48621e-13
1.23635e-12
-2.38906e-12
-5.22536e-13
-2.6236e-12
-6.77223e-13
-8.43324e-13
-1.84043e-12
1.20545e-12
-2.36864e-12
-2.63035e-12
4.93952e-09
1.66888e-09
4.74097e-08
-1.28897e-09
7.01048e-10
6.35405e-08
-1.53241e-08
1.93228e-09
6.88774e-08
1.14237e-09
2.32879e-08
-4.33063e-10
5.6523e-09
4.77134e-08
1.04754e-09
5.03264e-09
4.18847e-08
-1.24838e-08
-3.48278e-09
6.12739e-08
2.47392e-09
2.29949e-08
-4.65765e-09
1.77118e-10
5.58356e-08
-1.30027e-08
-3.72325e-09
5.93474e-08
-1.06912e-08
-2.41431e-09
3.16258e-08
-2.35076e-09
2.98035e-08
-1.32363e-08
5.43966e-08
-2.70714e-09
2.16117e-08
-1.22072e-08
4.05209e-08
1.69934e-08
-9.65231e-09
-2.33097e-09
6.52796e-08
-1.58916e-09
1.75599e-10
5.28786e-08
-1.7343e-09
-2.24112e-09
6.66158e-08
1.69494e-10
2.4096e-08
-1.34819e-09
-1.47453e-09
4.82285e-08
-6.55126e-09
-2.73582e-09
4.99991e-08
-2.45783e-09
-3.50854e-09
5.84479e-08
-1.76027e-10
2.28388e-08
-6.87173e-09
-3.80219e-09
6.43263e-08
-5.0028e-09
-8.56748e-10
5.55994e-08
-1.27213e-09
8.51053e-10
2.35356e-08
2.97365e-09
2.70541e-08
3.33843e-10
5.02174e-08
-3.19444e-10
2.14807e-08
6.38563e-09
3.42682e-08
3.03334e-08
2.78763e-09
-1.30794e-09
7.44701e-08
-1.12073e-08
-6.88891e-09
8.202e-08
4.34365e-09
-3.91935e-09
5.27474e-08
-7.45865e-10
2.69607e-08
-1.0691e-08
-1.03722e-08
6.55943e-08
-5.69301e-09
-5.00471e-09
4.31168e-08
5.27943e-09
3.01249e-09
4.05435e-08
2.31973e-09
2.11998e-08
6.53673e-09
-2.13675e-10
4.72854e-08
1.03503e-08
2.37566e-09
4.44055e-08
3.71651e-09
3.13353e-10
3.28687e-08
6.40846e-10
3.07129e-08
8.48023e-09
4.03717e-08
3.26343e-09
2.64076e-08
1.05816e-08
2.45509e-08
2.51783e-08
1.74767e-09
-3.37818e-09
6.70049e-08
8.29114e-10
-2.34632e-09
8.8221e-08
4.30377e-09
2.21201e-09
4.89784e-08
1.43373e-09
3.02386e-08
3.35125e-09
3.66586e-11
5.94188e-08
4.42681e-09
1.77184e-10
3.95177e-08
3.5439e-09
1.73312e-10
4.34651e-08
7.64396e-10
2.29546e-08
5.80999e-09
5.11863e-09
3.71772e-08
6.89427e-09
1.99023e-09
4.15081e-08
5.70459e-09
2.50448e-09
3.17272e-08
-5.55842e-10
2.93304e-08
-5.33114e-09
5.08331e-08
5.63085e-09
1.78217e-08
-1.07462e-09
3.32163e-08
8.05974e-09
-1.92757e-09
1.92605e-10
5.64403e-08
1.13887e-08
4.45169e-09
6.07778e-08
6.22818e-09
7.55648e-10
5.00404e-08
1.26239e-09
3.30625e-08
7.78683e-09
3.97245e-09
4.83794e-08
5.01587e-09
3.05475e-09
4.36856e-08
6.36605e-09
6.1673e-10
4.22538e-08