/*--------------------------------*- C++ -*----------------------------------*\
| =========                 |                                                 |
| \\      /  F ield         | OpenFOAM: The Open Source CFD Toolbox           |
|  \\    /   O peration     | Version:  2506                                  |
|   \\  /    A nd           | Website:  www.openfoam.com                      |
|    \\/     M anipulation  |                                                 |
\*---------------------------------------------------------------------------*/
FoamFile
{
    version     2.0;
    format      ascii;
    arch        "LSB;label=32;scalar=64";
    class       volVectorField;
    location    "0.06";
    object      U;
}
// * * * * * * * * * * * * * * * * * * * * * * * * * * * * * * * * * * * * * //

dimensions      [0 1 -1 0 0 0 0];

internalField   nonuniform List<vector> 
1152
(
(-0.0009971 -0.00150659 0.0172381)
(1.16092e-05 -0.00132071 0.0105331)
(0.000701771 2.19494e-05 0.00742621)
(0.00121384 -0.001657 0.0158903)
(-0.000121076 0.000636871 0.0129387)
(0.00109595 0.00112884 0.0141953)
(-0.000284385 0.00149363 0.0180194)
(-0.000232245 0.00030049 0.00810103)
(-0.00176565 0.00137821 0.0186132)
(-0.000379759 0.00120764 0.0150855)
(-0.00103703 0.00169402 0.0170205)
(-0.000242741 0.00148734 0.00632094)
(-0.00289217 0.00102535 0.0108655)
(0.000424347 0.00217577 0.0100937)
(0.00073413 0.00155179 0.00954589)
(0.000927099 0.00243087 0.0173373)
(0.00066096 -0.000327683 0.0205561)
(0.00139442 0.00226635 0.0195285)
(-0.00228168 0.000901377 0.037959)
(-0.00195373 0.00126401 0.0365321)
(-0.00132623 0.00204334 0.018653)
(-0.000757184 -0.0012872 0.0225002)
(8.42068e-05 -0.000604055 0.0298402)
(0.00199989 0.00140085 0.027849)
(-0.000159074 0.00148346 0.0222161)
(-0.00108769 0.00232489 0.031263)
(0.000135784 0.00177017 0.0312722)
(-0.00104748 0.00072213 0.0307032)
(-4.72475e-05 0.000836482 0.023632)
(3.30672e-05 0.00133056 0.0244094)
(-0.00230816 0.00230649 0.0427438)
(0.00081607 0.00145819 0.0121595)
(0.000546422 0.000168317 0.0116638)
(-0.00168689 0.000937813 0.0466281)
(-0.00120216 0.000305992 0.0254589)
(-0.000610781 0.00133199 0.0262924)
(0.000679417 -0.000857024 0.0271915)
(-0.00111261 -0.000577244 0.0227025)
(-0.000143694 -0.000868145 0.0268171)
(0.000936097 0.00110779 0.0115173)
(-0.000237754 -0.000106637 0.0342389)
(-0.00092269 -0.00105123 0.0294208)
(0.00101114 4.07867e-05 0.0198262)
(0.00117484 0.000817485 0.0237131)
(0.00087236 0.00041068 0.0216332)
(-0.00245408 -0.00303908 0.034898)
(0.000923289 0.00231041 0.0306372)
(0.00194393 8.24476e-05 0.0225473)
(0.000177451 0.00230858 0.0370257)
(0.00117025 7.30276e-06 0.0257401)
(0.00161778 0.00218445 0.0412465)
(0.00134286 0.00318242 0.037325)
(0.000326076 0.00171097 0.0294957)
(0.000560831 0.000155905 0.0269596)
(0.00109475 0.000596576 0.0226184)
(-0.000484707 0.000511935 0.021851)
(0.000810523 -0.000263276 0.023414)
(-0.000191429 -0.00072319 0.0257895)
(0.0012856 -0.00117431 0.0264548)
(0.000357117 -0.000246377 0.0416233)
(0.00223739 -0.00354302 0.0443314)
(-0.000423694 0.00113065 0.0318229)
(0.00155003 -0.000973319 0.0235679)
(0.000758315 -0.00121606 0.00994661)
(-0.000161258 0.0012471 0.0195955)
(-0.00102542 -0.000955598 0.032982)
(0.000365734 -0.00275221 0.0487081)
(0.000504192 -0.00170296 0.0199554)
(-5.83027e-05 0.00163758 0.0281655)
(-0.000404497 0.000898113 0.0170739)
(-0.000271152 0.0017416 0.0307372)
(0.000253272 0.000717859 0.0272706)
(0.00326214 -0.00175168 0.0595872)
(-0.000858411 -2.42072e-05 0.0185845)
(-0.00147871 0.000496323 0.0351114)
(0.000233271 0.0011753 0.0218441)
(0.00116069 0.000317869 0.0308701)
(0.000268721 -0.000548689 0.0158349)
(0.000864011 -0.000875201 0.0219608)
(0.00337821 -0.000258985 0.0327252)
(0.00133281 -0.00221225 0.0262323)
(-0.000348531 -0.000115252 0.00981389)
(-0.000734516 -0.000103493 0.0106883)
(-0.000975051 0.00125572 0.0169581)
(0.000785748 0.000569286 0.0184906)
(-0.000622393 0.00106405 0.0154572)
(-0.000972841 -0.000663581 0.0117983)
(-0.000625777 0.00050063 0.0101774)
(0.00105948 -0.000580191 0.0369483)
(-0.00168864 -0.000303383 0.014919)
(-0.001896 -0.000627102 0.0231718)
(0.00113893 0.00218469 0.0189872)
(0.000161833 -0.00183683 0.0159421)
(-0.000665223 -0.00127009 0.0186519)
(0.000549866 -0.00033632 0.0118744)
(-0.000313774 -3.9002e-05 0.00609379)
(-0.000364498 4.78511e-05 0.0196395)
(-0.000396525 0.00024463 0.0122841)
(-0.000377743 6.18439e-05 0.0225317)
(-0.000473978 4.98327e-05 0.0146625)
(6.92858e-05 -0.000714014 0.0137971)
(-7.84184e-05 -0.000248132 0.0138423)
(0.000277852 0.000181481 0.0149281)
(0.000334376 -0.00033833 0.0135037)
(-0.000699541 -0.000425917 0.0469527)
(0.00080855 -0.000121161 0.0191004)
(-0.000120295 9.44957e-05 0.0135419)
(-0.000404387 -5.09663e-05 0.0168521)
(-8.69445e-05 0.000158204 0.0186001)
(0.000958824 -0.00024479 0.0156222)
(-0.000354447 -0.000200147 0.0107282)
(-0.000913947 0.000345861 0.0177381)
(-0.000979024 -3.02155e-05 0.024708)
(-0.000529745 0.000319586 0.0204351)
(-0.000376477 -7.39143e-05 0.0263727)
(-0.000458932 -0.000123144 0.0226921)
(-0.000806843 -0.00127935 0.0238393)
(-0.000212323 -0.000580392 0.0202195)
(-0.000194782 -5.32984e-05 0.0204762)
(-0.000400424 -0.000225451 0.0199779)
(-0.0011027 3.16615e-05 0.0371013)
(0.000934829 4.99806e-05 0.0261711)
(6.11423e-06 5.35721e-05 0.0206339)
(-0.00044417 -0.000344018 0.0232644)
(-0.000900422 0.00141012 0.0277727)
(-0.000212827 0.000245157 0.0240863)
(-0.000741535 0.000252849 0.0188872)
(-0.00084577 0.000369388 0.0240241)
(0.000122586 -0.000267868 0.00737794)
(0.00018621 9.32895e-05 0.00680938)
(-3.45404e-05 -4.86743e-05 0.00743335)
(-0.000135726 -0.00016458 0.00702725)
(0.000297311 -0.00122306 0.00768821)
(0.000629173 -0.000787282 0.00681005)
(0.000176888 -0.00012729 0.00649875)
(-0.000238606 -0.000333965 0.00643317)
(7.74777e-05 -0.000564948 0.0104101)
(0.00128494 -0.000675803 0.00818409)
(0.000396558 -0.000424137 0.00669311)
(-0.000390469 -0.000693481 0.00703919)
(0.000149582 0.000318685 0.00848052)
(0.000739268 -0.000602507 0.00759499)
(0.000106802 -0.000648219 0.00641416)
(-0.000764078 -0.000376144 0.007249)
(0.00019397 -0.000175416 0.0134883)
(0.000235459 -6.72314e-05 0.0130714)
(0.00010393 -0.000124329 0.0131268)
(-2.77086e-05 -0.00021298 0.012945)
(0.000213474 -0.000486743 0.0137103)
(0.000364681 -0.000393103 0.0131299)
(0.000143838 -0.000212561 0.0128463)
(-0.000123295 -0.000304983 0.0127481)
(5.01147e-05 -0.000188259 0.0146459)
(0.000501762 -0.000343256 0.0137446)
(0.000178136 -0.000330858 0.0130819)
(-0.000227331 -0.000467606 0.013091)
(-0.000113582 0.000226899 0.0141749)
(0.000211254 -0.000244374 0.0136936)
(1.88555e-06 -0.000378625 0.0131247)
(-0.000426248 -0.000377759 0.0132759)
(0.000170116 -0.000100774 0.012279)
(0.000191641 -8.08075e-05 0.0120964)
(0.000116564 -0.000107295 0.0120352)
(1.54639e-05 -0.000157947 0.0119629)
(0.000163597 -0.000221098 0.0123831)
(0.000212644 -0.000212476 0.0121483)
(0.000106474 -0.000186087 0.0119986)
(-4.52449e-05 -0.000230611 0.011949)
(0.000110633 -0.00016021 0.0126616)
(0.000224858 -0.000221836 0.0123739)
(9.33106e-05 -0.000242482 0.012132)
(-0.000105545 -0.0003025 0.0121161)
(5.44545e-05 -5.72547e-05 0.0124924)
(0.000127274 -0.000191676 0.0123689)
(1.95521e-05 -0.000246692 0.0121892)
(-0.00019575 -0.000270434 0.0122349)
(0.000112536 -4.82719e-05 0.0124921)
(0.000115584 -5.35537e-05 0.012403)
(7.2867e-05 -7.26311e-05 0.0123424)
(8.07293e-06 -0.000103215 0.0123049)
(9.39844e-05 -9.45912e-05 0.0125444)
(0.000105142 -0.000112433 0.0124411)
(5.30398e-05 -0.000124875 0.0123622)
(-2.85684e-05 -0.000154834 0.012333)
(5.77173e-05 -8.06375e-05 0.0126447)
(8.48081e-05 -0.000124531 0.0125352)
(2.89808e-05 -0.000154173 0.0124384)
(-6.54525e-05 -0.000190527 0.0124213)
(1.00348e-05 -4.68059e-05 0.0126311)
(3.08741e-05 -0.000113372 0.0125662)
(-1.46389e-05 -0.000154439 0.0124921)
(-0.000112058 -0.000181228 0.0124974)
(6.09854e-05 -2.31101e-05 0.0125248)
(5.92995e-05 -3.14825e-05 0.0124817)
(3.59675e-05 -4.50053e-05 0.012447)
(-1.2952e-06 -6.36362e-05 0.0124287)
(4.68874e-05 -4.74531e-05 0.0125462)
(4.66784e-05 -6.28039e-05 0.0125031)
(1.99969e-05 -7.72842e-05 0.0124678)
(-2.26933e-05 -9.66385e-05 0.0124552)
(2.71335e-05 -5.05419e-05 0.0125807)
(2.93397e-05 -7.40795e-05 0.0125427)
(1.78292e-06 -9.42322e-05 0.0125087)
(-4.42765e-05 -0.000115486 0.0125035)
(2.80105e-06 -4.3131e-05 0.0125831)
(2.51252e-06 -7.21847e-05 0.0125649)
(-2.19119e-05 -9.46541e-05 0.0125439)
(-6.83457e-05 -0.000112111 0.01255)
(2.97809e-05 -1.13697e-05 0.0125485)
(2.70996e-05 -1.83566e-05 0.0125274)
(1.4269e-05 -2.76912e-05 0.0125098)
(-6.10427e-06 -3.92843e-05 0.0125012)
(2.05055e-05 -2.56091e-05 0.0125583)
(1.74607e-05 -3.61436e-05 0.0125394)
(3.23669e-06 -4.69202e-05 0.0125239)
(-1.88393e-05 -5.91398e-05 0.0125194)
(9.10075e-06 -3.1155e-05 0.0125736)
(5.7452e-06 -4.44407e-05 0.0125591)
(-8.79882e-06 -5.70606e-05 0.0125469)
(-3.15436e-05 -6.96384e-05 0.012547)
(-4.23747e-06 -3.088e-05 0.0125806)
(-8.6511e-06 -4.54287e-05 0.0125746)
(-2.21231e-05 -5.796e-05 0.012569)
(-4.44881e-05 -6.84581e-05 0.0125749)
(1.3337e-05 -6.32375e-06 0.0125659)
(1.08823e-05 -1.13253e-05 0.0125559)
(3.68684e-06 -1.75409e-05 0.0125476)
(-7.3203e-06 -2.48074e-05 0.0125442)
(7.52636e-06 -1.50402e-05 0.0125705)
(4.40615e-06 -2.17498e-05 0.0125624)
(-3.47348e-06 -2.88404e-05 0.0125563)
(-1.50285e-05 -3.64199e-05 0.0125556)
(8.08243e-07 -1.9774e-05 0.012578)
(-2.93956e-06 -2.73814e-05 0.0125728)
(-1.0996e-05 -3.49934e-05 0.0125694)
(-2.25564e-05 -4.24441e-05 0.0125716)
(-6.60068e-06 -2.12054e-05 0.0125836)
(-1.09234e-05 -2.8903e-05 0.0125826)
(-1.86063e-05 -3.59601e-05 0.0125828)
(-2.97308e-05 -4.21088e-05 0.0125882)
(5.19847e-06 -4.13866e-06 0.0125775)
(3.29975e-06 -7.50329e-06 0.0125729)
(-8.07729e-07 -1.15427e-05 0.0125693)
(-6.7341e-06 -1.60957e-05 0.0125683)
(1.61967e-06 -9.52143e-06 0.0125798)
(-8.35305e-07 -1.36661e-05 0.0125766)
(-5.31955e-06 -1.81192e-05 0.0125746)
(-1.14547e-05 -2.27663e-05 0.0125753)
(-2.38592e-06 -1.29027e-05 0.0125838)
(-5.31092e-06 -1.73123e-05 0.0125824)
(-9.91021e-06 -2.18431e-05 0.0125822)
(-1.59447e-05 -2.6255e-05 0.0125848)
(-6.58958e-06 -1.4371e-05 0.0125878)
(-9.84568e-06 -1.86166e-05 0.0125885)
(-1.43046e-05 -2.26273e-05 0.0125903)
(-2.00071e-05 -2.61883e-05 0.0125947)
(1.44541e-06 -3.08257e-06 0.0125849)
(9.98086e-08 -5.27551e-06 0.0125829)
(-2.26864e-06 -7.85648e-06 0.0125816)
(-5.49768e-06 -1.07122e-05 0.0125817)
(-7.65744e-07 -6.37822e-06 0.0125862)
(-2.49302e-06 -8.92117e-06 0.0125851)
(-5.08423e-06 -1.16758e-05 0.0125848)
(-8.40259e-06 -1.45219e-05 0.012586)
(-3.1792e-06 -8.61015e-06 0.0125885)
(-5.20727e-06 -1.12007e-05 0.0125886)
(-7.87089e-06 -1.38984e-05 0.0125894)
(-1.10979e-05 -1.65233e-05 0.0125917)
(-5.61834e-06 -9.73219e-06 0.0125911)
(-7.83279e-06 -1.21414e-05 0.0125924)
(-1.04386e-05 -1.44449e-05 0.0125944)
(-1.34394e-05 -1.65052e-05 0.0125978)
(-1.16213e-07 -2.42882e-06 0.0125896)
(-1.00697e-06 -3.83727e-06 0.0125889)
(-2.36774e-06 -5.46539e-06 0.0125886)
(-4.21353e-06 -7.23543e-06 0.0125891)
(-1.49876e-06 -4.4237e-06 0.0125904)
(-2.64057e-06 -5.99182e-06 0.0125903)
(-4.13505e-06 -7.70165e-06 0.0125906)
(-5.98589e-06 -9.45996e-06 0.0125918)
(-2.96999e-06 -5.83378e-06 0.0125918)
(-4.29388e-06 -7.37326e-06 0.0125924)
(-5.83842e-06 -8.99162e-06 0.0125935)
(-7.60692e-06 -1.05724e-05 0.0125953)
(-4.41872e-06 -6.60095e-06 0.0125935)
(-5.84097e-06 -7.99677e-06 0.0125948)
(-7.36042e-06 -9.33413e-06 0.0125966)
(-8.9746e-06 -1.05346e-05 0.012599)
(-6.39952e-07 -1.92045e-06 0.0125925)
(-1.20633e-06 -2.81348e-06 0.0125924)
(-1.97994e-06 -3.82536e-06 0.0125925)
(-3.10582e-06 -4.88938e-06 0.012593)
(-1.51508e-06 -3.11363e-06 0.0125931)
(-2.24138e-06 -4.08487e-06 0.0125933)
(-3.09293e-06 -5.15168e-06 0.0125938)
(-4.16402e-06 -6.24275e-06 0.0125948)
(-2.42142e-06 -3.97543e-06 0.012594)
(-3.25364e-06 -4.89819e-06 0.0125947)
(-4.14127e-06 -5.87508e-06 0.0125956)
(-5.13322e-06 -6.83666e-06 0.012597)
(-3.29868e-06 -4.47038e-06 0.012595)
(-4.17793e-06 -5.29172e-06 0.0125962)
(-5.05345e-06 -6.07382e-06 0.0125976)
(-5.93608e-06 -6.77705e-06 0.0125994)
(-7.1445e-07 -1.4737e-06 0.0125943)
(-1.06959e-06 -2.03117e-06 0.0125944)
(-1.50554e-06 -2.64787e-06 0.0125946)
(-2.20564e-06 -3.26244e-06 0.012595)
(-1.26407e-06 -2.17631e-06 0.0125947)
(-1.71706e-06 -2.77295e-06 0.012595)
(-2.19414e-06 -3.43082e-06 0.0125955)
(-2.82435e-06 -4.097e-06 0.0125963)
(-1.8226e-06 -2.68904e-06 0.0125953)
(-2.3331e-06 -3.24175e-06 0.0125959)
(-2.83337e-06 -3.82794e-06 0.0125968)
(-3.39689e-06 -4.40863e-06 0.0125978)
(-2.35791e-06 -2.99966e-06 0.0125959)
(-2.88699e-06 -3.48619e-06 0.0125969)
(-3.37927e-06 -3.94215e-06 0.0125981)
(-3.86677e-06 -4.34967e-06 0.0125993)
(-6.18916e-07 -1.07245e-06 0.0125954)
(-8.37402e-07 -1.41092e-06 0.0125955)
(-1.07797e-06 -1.77702e-06 0.0125958)
(-1.48996e-06 -2.12097e-06 0.0125961)
(-9.53149e-07 -1.47503e-06 0.0125957)
(-1.22657e-06 -1.83121e-06 0.012596)
(-1.48585e-06 -2.22253e-06 0.0125965)
(-1.84913e-06 -2.61261e-06 0.012597)
(-1.29112e-06 -1.77362e-06 0.0125961)
(-1.59282e-06 -2.09841e-06 0.0125966)
(-1.86297e-06 -2.44232e-06 0.0125973)
(-2.18178e-06 -2.7812e-06 0.012598)
(-1.61313e-06 -1.96742e-06 0.0125964)
(-1.91987e-06 -2.2512e-06 0.0125973)
(-2.18315e-06 -2.51217e-06 0.0125982)
(-2.45252e-06 -2.74122e-06 0.0125991)
(-4.76119e-07 -7.23811e-07 0.0125961)
(-6.03939e-07 -9.19272e-07 0.0125962)
(-7.3123e-07 -1.12819e-06 0.0125964)
(-9.49038e-07 -1.31663e-06 0.0125967)
(-6.67819e-07 -9.45065e-07 0.0125963)
(-8.229e-07 -1.14522e-06 0.0125966)
(-9.58228e-07 -1.36444e-06 0.0125969)
(-1.15642e-06 -1.57889e-06 0.0125973)
(-8.6296e-07 -1.1153e-06 0.0125965)
(-1.02957e-06 -1.29717e-06 0.012597)
(-1.16789e-06 -1.4899e-06 0.0125975)
(-1.34451e-06 -1.67549e-06 0.012598)
(-1.05014e-06 -1.23091e-06 0.0125967)
(-1.21557e-06 -1.39064e-06 0.0125974)
(-1.34726e-06 -1.53526e-06 0.0125981)
(-1.49419e-06 -1.65797e-06 0.0125988)
(-3.57142e-07 -4.36434e-07 0.0125964)
(-4.32718e-07 -5.41225e-07 0.0125966)
(-4.9718e-07 -6.52786e-07 0.0125968)
(-5.99483e-07 -7.51958e-07 0.012597)
(-4.5814e-07 -5.49367e-07 0.0125966)
(-5.46543e-07 -6.53536e-07 0.0125968)
(-6.14548e-07 -7.66953e-07 0.0125971)
(-7.13046e-07 -8.7662e-07 0.0125975)
(-5.63029e-07 -6.38046e-07 0.0125967)
(-6.54855e-07 -7.33598e-07 0.0125971)
(-7.22488e-07 -8.34259e-07 0.0125976)
(-8.12434e-07 -9.28555e-07 0.012598)
(-6.64709e-07 -7.03555e-07 0.0125968)
(-7.54626e-07 -7.88291e-07 0.0125974)
(-8.16518e-07 -8.63063e-07 0.012598)
(-8.888e-07 -9.23735e-07 0.0125985)
(-3.41031e-07 -2.24163e-07 0.0125967)
(-4.01729e-07 -2.76879e-07 0.0125968)
(-4.48086e-07 -3.34054e-07 0.012597)
(-4.96739e-07 -3.88058e-07 0.0125971)
(-3.89124e-07 -2.88465e-07 0.0125968)
(-4.57149e-07 -3.37734e-07 0.012597)
(-5.05826e-07 -3.91188e-07 0.0125973)
(-5.53421e-07 -4.44125e-07 0.0125975)
(-4.36579e-07 -3.38125e-07 0.0125969)
(-5.07738e-07 -3.80623e-07 0.0125972)
(-5.56141e-07 -4.25367e-07 0.0125976)
(-5.99271e-07 -4.67461e-07 0.0125979)
(-4.77074e-07 -3.75814e-07 0.0125969)
(-5.51306e-07 -4.10492e-07 0.0125975)
(-5.97057e-07 -4.39593e-07 0.0125979)
(-6.30812e-07 -4.6237e-07 0.0125983)
(0.00103365 0.00206234 0.0167946)
(-0.000542152 0.0021982 0.00877462)
(-0.00134681 0.00102127 0.0161973)
(0.000930836 0.00134269 0.0221219)
(-0.0013003 0.000616079 0.0105491)
(0.000877403 -4.05388e-05 0.0163547)
(-0.00150154 0.00195374 0.0173819)
(-0.00143373 0.00171252 0.0127148)
(-0.00242942 0.00125425 0.0210464)
(0.000328283 0.000625769 0.0146209)
(0.000172165 0.000743668 0.0158508)
(-0.0026581 0.00290021 0.0189091)
(-0.00120642 -0.00084912 0.0124894)
(0.000668367 0.000126688 0.0156079)
(0.00126562 0.000396658 0.0141761)
(-0.00182946 0.00130136 0.0189568)
(-0.00038738 -0.000569015 0.0181779)
(0.000242402 -0.00242208 0.0660434)
(0.00115567 0.000744777 0.0176045)
(0.00162806 0.00159583 0.0157253)
(-0.000146436 0.000134562 0.0162941)
(-0.000167617 0.000146561 0.0174839)
(0.00128617 0.00112883 0.0316589)
(0.00194875 -0.000531968 0.0192334)
(0.000209023 7.9126e-05 0.0182911)
(0.00032014 0.000113374 0.0320964)
(-0.000528704 0.00143248 0.0335887)
(0.00215825 -0.00136807 0.0342453)
(-0.000507072 0.000174825 0.0308641)
(0.00143232 -0.00030864 0.0204028)
(0.000120845 0.00142667 0.0318828)
(0.00206935 -0.000717924 0.0332964)
(-0.00113262 -0.00206352 0.0232842)
(0.000294678 -7.39575e-05 0.0191987)
(0.00339352 0.00176661 0.0245939)
(-0.000874578 0.00209741 0.0478765)
(0.0026155 -0.00231349 0.0267472)
(-0.000322001 0.00169961 0.0231346)
(0.00149556 -0.000549067 0.0320612)
(0.000469283 0.00464034 0.0280621)
(0.00237991 -0.000994991 0.0388335)
(0.000514664 0.000200038 0.0357851)
(0.00397491 0.000808468 0.0275184)
(0.000231581 0.00133476 0.021138)
(0.00242853 0.00110425 0.0287334)
(0.000531571 0.00104914 0.0241417)
(0.0025449 0.000371686 0.0391536)
(0.0011671 -0.000851173 0.0164408)
(0.00556168 0.000488118 0.0641644)
(0.000709765 0.00107747 0.0256706)
(-0.00402422 0.000692199 0.0507135)
(0.000511326 -0.00111032 0.020794)
(0.0014568 -0.00064195 0.0117704)
(0.00211176 -0.00171742 0.0337058)
(0.00031818 -1.13878e-05 0.0177014)
(0.000593751 0.00165832 0.0240509)
(0.000984781 -0.000495033 0.0256141)
(0.00158053 -0.00115783 0.0204343)
(0.00192536 -0.000784287 0.0362555)
(0.00334983 0.00395954 0.065231)
(-0.000469221 0.000421147 0.0258177)
(0.000609659 -3.0796e-05 0.0310117)
(0.00121432 -6.98341e-05 0.0270033)
(3.45236e-05 0.00132158 0.0425793)
(9.37564e-05 0.0010542 0.0268471)
(-0.000845398 -0.00121905 0.0387778)
(0.000370435 -0.00054094 0.0291023)
(0.000488384 -0.000860613 0.0165413)
(0.0015438 -0.00186344 0.0226786)
(4.92758e-05 0.00031533 0.0384187)
(0.000764707 -0.00203386 0.0333161)
(0.000983011 -0.00361493 0.0201437)
(0.0019912 -0.00120348 0.0211886)
(0.00018618 -0.000786556 0.0276049)
(-0.00321697 -8.55482e-05 0.0258083)
(0.00160052 -0.000714834 0.020205)
(0.00128071 -4.54078e-06 0.0333553)
(0.00165919 -0.000420035 0.0187271)
(-0.00151332 0.00238107 0.0273261)
(-0.0021488 0.00363777 0.0307573)
(0.00148398 -0.00397677 0.0596882)
(5.50284e-05 -0.000846225 0.0117203)
(0.000108655 -0.00216009 0.0358706)
(0.000929185 -0.00114567 0.0117359)
(2.21432e-06 0.000633368 0.0170447)
(-0.000435465 0.000337907 0.013085)
(-7.71962e-05 0.00147114 0.0178502)
(0.00175422 -0.00116809 0.0193124)
(0.000958927 0.00106588 0.01301)
(0.000241692 0.00116745 0.0215373)
(-0.000299456 -0.000734789 0.0112987)
(0.000340893 -0.00188656 0.0130273)
(0.00112777 0.000774333 0.0138681)
(-0.000888676 -0.000901213 0.0149552)
(-0.00532398 -0.00682586 0.0324293)
(0.00398713 -0.00477539 0.0339671)
(-0.00022828 0.000120355 0.0159805)
(0.000504122 6.7985e-05 0.0270467)
(0.000384347 -0.000370336 0.0181245)
(-0.000197503 0.000208671 0.01187)
(0.00014889 0.000381868 0.011623)
(-0.000186153 0.000300453 0.0157628)
(-0.000424826 -2.394e-05 0.013346)
(-0.000350344 -8.02693e-05 0.0152837)
(-4.14193e-06 -0.000223469 0.0136988)
(-0.000366915 -0.000186739 0.0255688)
(0.000263203 -0.000317692 0.0222157)
(0.00278608 -0.00395826 0.0150502)
(-4.16467e-05 -0.000158427 0.0177638)
(-0.000220352 7.90835e-05 0.0148978)
(-0.00455315 -0.00193755 0.0132905)
(0.000350341 0.000263544 0.0111377)
(-0.00108303 0.000437105 0.0271527)
(-0.000506976 0.000281655 0.0302831)
(-0.000135784 0.000622737 0.0269232)
(-0.000642819 0.000765344 0.0215677)
(-0.000711366 0.000278269 0.0212371)
(-0.000350361 0.00011576 0.025655)
(-0.000275799 0.000511155 0.0229892)
(-0.000713285 0.000702213 0.0252331)
(-0.000821963 -0.000396501 0.0214805)
(-0.000397663 -0.000103111 0.0293178)
(0.000328608 0.000591795 0.0287802)
(-0.000637826 0.000432452 0.0260717)
(-0.000549787 -0.000389976 0.0237634)
(-8.78653e-05 0.0003628 0.0266884)
(-0.000226408 0.000442497 0.0298044)
(-0.000787135 0.000238281 0.0174258)
(-0.000362442 0.00028804 0.00783963)
(0.000242953 -0.000251174 0.00852846)
(0.000509457 -0.00034496 0.00750624)
(-0.000483376 -0.000171915 0.00695675)
(-0.000379881 0.00044542 0.00682071)
(-1.00648e-05 -3.89154e-05 0.00778942)
(0.000349035 -0.000310915 0.0070058)
(-0.000599286 -0.000103827 0.00711954)
(-0.000446759 -1.98325e-05 0.00654098)
(-0.000382005 -0.000171589 0.00835044)
(0.000562184 -0.000180329 0.00787906)
(-0.000680293 0.000680756 0.00686674)
(-0.000240624 -0.000128208 0.00661477)
(-0.000330951 3.96036e-05 0.00765838)
(0.000767943 0.000272497 0.00728119)
(-0.000275795 0.000655582 0.00496899)
(-0.000304937 0.000119851 0.0140554)
(-7.64484e-05 -0.000222759 0.0141374)
(3.8017e-05 -0.000326753 0.0136549)
(-0.000414485 -0.000277472 0.013402)
(-0.000341226 7.37899e-05 0.0137518)
(-0.000233099 -0.00020431 0.0140151)
(1.31733e-05 -0.000312817 0.0136606)
(-0.000478836 -0.000183313 0.0134822)
(-0.000356775 -9.33751e-05 0.0135853)
(-0.000390665 -0.000217246 0.01417)
(9.24686e-05 -0.000176894 0.0140539)
(-0.000508311 0.000201164 0.0134195)
(-0.000277496 -0.000162253 0.0135252)
(-0.000383069 -0.000142177 0.0139629)
(0.00022728 5.62421e-05 0.0138973)
(-0.000336812 0.00023619 0.0125941)
(-4.42968e-05 -1.85121e-05 0.0124)
(3.75078e-05 -0.000132929 0.0124898)
(1.77835e-05 -0.000190656 0.012372)
(-0.000223295 -0.000185341 0.0123406)
(-9.60834e-05 2.15347e-05 0.0122897)
(-3.9954e-05 -7.38326e-05 0.0124856)
(1.50597e-05 -0.000135032 0.0124334)
(-0.000257817 -9.0084e-05 0.0123839)
(-0.000118767 -3.96422e-06 0.0122171)
(-0.000113033 -4.79361e-05 0.0125376)
(3.35573e-05 -4.82492e-05 0.0125786)
(-0.000270455 7.61958e-05 0.0123706)
(-9.13534e-05 -3.9484e-05 0.0121757)
(-0.000115603 -3.7113e-05 0.0124828)
(8.99301e-05 3.0139e-05 0.0125387)
(-0.000215793 8.58386e-05 0.0120785)
(-3.42506e-05 -3.4936e-05 0.0126321)
(-1.65424e-05 -9.30694e-05 0.0126266)
(-3.37831e-05 -0.000128521 0.0125703)
(-0.000139069 -0.000137767 0.01256)
(-5.80274e-05 -2.24111e-05 0.0126056)
(-5.12649e-05 -6.77548e-05 0.0126387)
(-3.84206e-05 -9.3483e-05 0.0126038)
(-0.000159179 -7.84991e-05 0.0125748)
(-6.80759e-05 -2.67097e-05 0.012575)
(-7.89113e-05 -4.99733e-05 0.0126454)
(-3.27343e-05 -4.67645e-05 0.0126411)
(-0.00016621 -1.39635e-06 0.0125567)
(-6.11846e-05 -3.72116e-05 0.0125511)
(-8.34944e-05 -4.10013e-05 0.0126214)
(-1.28767e-05 -8.75875e-06 0.0126185)
(-0.000151673 1.56727e-05 0.0124449)
(-1.94182e-05 -3.42374e-05 0.0125851)
(-1.91774e-05 -5.98808e-05 0.0125915)
(-3.54925e-05 -7.90492e-05 0.0125822)
(-8.51608e-05 -8.86396e-05 0.0125897)
(-3.1104e-05 -2.4811e-05 0.0125775)
(-3.47683e-05 -4.4634e-05 0.012602)
(-4.04483e-05 -5.75614e-05 0.0126042)
(-9.66267e-05 -5.51115e-05 0.0126066)
(-3.67837e-05 -2.24628e-05 0.0125677)
(-4.67333e-05 -3.33729e-05 0.0126068)
(-4.0258e-05 -3.34883e-05 0.0126205)
(-0.000101552 -1.73183e-05 0.0126047)
(-3.5384e-05 -2.48267e-05 0.0125596)
(-5.03094e-05 -2.73086e-05 0.0126022)
(-3.46486e-05 -1.4647e-05 0.0126169)
(-9.90735e-05 -2.74683e-06 0.0125716)
(-1.55845e-05 -2.63915e-05 0.0125859)
(-1.95335e-05 -3.87795e-05 0.0125894)
(-3.05259e-05 -4.91935e-05 0.01259)
(-5.40586e-05 -5.58914e-05 0.012599)
(-2.08004e-05 -2.11777e-05 0.012585)
(-2.64963e-05 -3.04168e-05 0.0125962)
(-3.41816e-05 -3.69025e-05 0.0126027)
(-6.04035e-05 -3.74648e-05 0.0126116)
(-2.33798e-05 -1.85949e-05 0.0125822)
(-3.15507e-05 -2.36697e-05 0.0125993)
(-3.51943e-05 -2.39012e-05 0.0126104)
(-6.34895e-05 -1.77452e-05 0.0126141)
(-2.34391e-05 -1.82307e-05 0.0125796)
(-3.37148e-05 -1.92395e-05 0.0125989)
(-3.42127e-05 -1.34652e-05 0.0126109)
(-6.37981e-05 -6.58659e-06 0.0126048)
(-1.26418e-05 -1.89769e-05 0.0125879)
(-1.66397e-05 -2.53608e-05 0.0125913)
(-2.36037e-05 -3.11239e-05 0.0125949)
(-3.50647e-05 -3.53324e-05 0.0126027)
(-1.49123e-05 -1.61641e-05 0.0125884)
(-1.99201e-05 -2.08301e-05 0.0125956)
(-2.60271e-05 -2.42233e-05 0.0126024)
(-3.85449e-05 -2.51627e-05 0.0126115)
(-1.60757e-05 -1.42943e-05 0.012588)
(-2.22222e-05 -1.68076e-05 0.0125978)
(-2.70956e-05 -1.69096e-05 0.0126068)
(-4.03615e-05 -1.41776e-05 0.0126149)
(-1.63742e-05 -1.34064e-05 0.0125874)
(-2.35625e-05 -1.37202e-05 0.0125986)
(-2.74988e-05 -1.0601e-05 0.0126082)
(-4.10882e-05 -6.08174e-06 0.0126134)
(-9.9497e-06 -1.32436e-05 0.0125907)
(-1.29739e-05 -1.66646e-05 0.0125938)
(-1.72359e-05 -1.98997e-05 0.0125976)
(-2.29798e-05 -2.24202e-05 0.0126036)
(-1.09281e-05 -1.17294e-05 0.0125914)
(-1.46032e-05 -1.41856e-05 0.0125965)
(-1.87564e-05 -1.59828e-05 0.0126022)
(-2.48878e-05 -1.66642e-05 0.0126096)
(-1.14089e-05 -1.05039e-05 0.0125916)
(-1.57221e-05 -1.17615e-05 0.0125981)
(-1.95701e-05 -1.16927e-05 0.0126051)
(-2.5919e-05 -1.02221e-05 0.0126127)
(-1.16407e-05 -9.73344e-06 0.0125916)
(-1.65515e-05 -9.69877e-06 0.0125989)
(-2.0164e-05 -7.71267e-06 0.0126064)
(-2.65213e-05 -4.61093e-06 0.0126134)
(-7.55571e-06 -9.11327e-06 0.0125931)
(-9.60473e-06 -1.0993e-05 0.0125956)
(-1.2161e-05 -1.28356e-05 0.0125988)
(-1.51133e-05 -1.43174e-05 0.0126033)
(-7.96693e-06 -8.29414e-06 0.0125935)
(-1.04574e-05 -9.61039e-06 0.0125973)
(-1.30952e-05 -1.05581e-05 0.0126017)
(-1.61671e-05 -1.09476e-05 0.0126072)
(-8.13938e-06 -7.512e-06 0.0125938)
(-1.10352e-05 -8.12517e-06 0.0125984)
(-1.36528e-05 -7.95392e-06 0.0126037)
(-1.67455e-05 -7.02682e-06 0.0126096)
(-8.27858e-06 -6.96967e-06 0.012594)
(-1.15571e-05 -6.78154e-06 0.0125991)
(-1.41611e-05 -5.40326e-06 0.0126047)
(-1.71655e-05 -3.2452e-06 0.0126106)
(-5.56618e-06 -6.22549e-06 0.0125947)
(-6.87518e-06 -7.27247e-06 0.0125968)
(-8.38346e-06 -8.33819e-06 0.0125993)
(-9.93139e-06 -9.2094e-06 0.0126025)
(-5.72692e-06 -5.78445e-06 0.012595)
(-7.34376e-06 -6.49267e-06 0.0125979)
(-8.95642e-06 -6.98734e-06 0.0126012)
(-1.05209e-05 -7.17862e-06 0.0126051)
(-5.76923e-06 -5.28302e-06 0.0125953)
(-7.6607e-06 -5.56722e-06 0.0125987)
(-9.32302e-06 -5.36522e-06 0.0126025)
(-1.08462e-05 -4.72933e-06 0.0126068)
(-5.84798e-06 -4.93075e-06 0.0125955)
(-8.00033e-06 -4.70005e-06 0.0125992)
(-9.70406e-06 -3.71172e-06 0.0126033)
(-1.11254e-05 -2.21252e-06 0.0126077)
(-3.99035e-06 -4.22026e-06 0.0125958)
(-4.79634e-06 -4.80751e-06 0.0125975)
(-5.66757e-06 -5.43178e-06 0.0125994)
(-6.48926e-06 -5.94754e-06 0.0126016)
(-4.03941e-06 -3.99081e-06 0.012596)
(-5.0634e-06 -4.36877e-06 0.0125981)
(-6.02097e-06 -4.62087e-06 0.0126006)
(-6.82554e-06 -4.69995e-06 0.0126033)
(-4.03147e-06 -3.66613e-06 0.0125962)
(-5.24486e-06 -3.7853e-06 0.0125987)
(-6.25771e-06 -3.59451e-06 0.0126015)
(-7.01175e-06 -3.14758e-06 0.0126045)
(-4.07987e-06 -3.44382e-06 0.0125963)
(-5.47293e-06 -3.22576e-06 0.0125991)
(-6.53125e-06 -2.51571e-06 0.0126021)
(-7.19824e-06 -1.48446e-06 0.0126052)
(-2.77803e-06 -2.82477e-06 0.0125964)
(-3.26091e-06 -3.15503e-06 0.0125978)
(-3.74709e-06 -3.52185e-06 0.0125992)
(-4.18626e-06 -3.82618e-06 0.0126008)
(-2.78029e-06 -2.717e-06 0.0125965)
(-3.41557e-06 -2.91456e-06 0.0125982)
(-3.9649e-06 -3.03513e-06 0.0126)
(-4.37997e-06 -3.05818e-06 0.012602)
(-2.75783e-06 -2.50725e-06 0.0125966)
(-3.52073e-06 -2.54642e-06 0.0125986)
(-4.11623e-06 -2.38423e-06 0.0126007)
(-4.48969e-06 -2.07647e-06 0.0126028)
(-2.79509e-06 -2.36765e-06 0.0125967)
(-3.67838e-06 -2.18377e-06 0.0125989)
(-4.3106e-06 -1.68086e-06 0.0126011)
(-4.61708e-06 -9.85966e-07 0.0126033)
(-1.86578e-06 -1.84471e-06 0.0125967)
(-2.1436e-06 -2.02811e-06 0.0125978)
(-2.40016e-06 -2.2411e-06 0.0125989)
(-2.6356e-06 -2.42059e-06 0.0126001)
(-1.85368e-06 -1.80393e-06 0.0125968)
(-2.23339e-06 -1.90357e-06 0.0125981)
(-2.53411e-06 -1.95605e-06 0.0125995)
(-2.74845e-06 -1.9591e-06 0.0126009)
(-1.8318e-06 -1.67049e-06 0.0125968)
(-2.29584e-06 -1.67496e-06 0.0125984)
(-2.63195e-06 -1.55123e-06 0.0126)
(-2.81577e-06 -1.35149e-06 0.0126015)
(-1.86265e-06 -1.58515e-06 0.0125969)
(-2.40673e-06 -1.44294e-06 0.0125986)
(-2.77101e-06 -1.09918e-06 0.0126003)
(-2.90538e-06 -6.46106e-07 0.0126018)
(-1.19567e-06 -1.14747e-06 0.0125969)
(-1.34631e-06 -1.24691e-06 0.0125977)
(-1.4726e-06 -1.36891e-06 0.0125986)
(-1.59738e-06 -1.47408e-06 0.0125995)
(-1.18227e-06 -1.13851e-06 0.0125969)
(-1.39888e-06 -1.18869e-06 0.0125979)
(-1.55444e-06 -1.21159e-06 0.0125991)
(-1.66333e-06 -1.20987e-06 0.0126001)
(-1.16438e-06 -1.05734e-06 0.0125969)
(-1.43723e-06 -1.0546e-06 0.0125982)
(-1.61705e-06 -9.70888e-07 0.0125994)
(-1.70536e-06 -8.49051e-07 0.0126005)
(-1.18506e-06 -1.00991e-06 0.012597)
(-1.51275e-06 -9.14221e-07 0.0125984)
(-1.71302e-06 -6.91187e-07 0.0125997)
(-1.76776e-06 -4.09142e-07 0.0126008)
(-7.39429e-07 -6.61027e-07 0.0125969)
(-8.24303e-07 -7.1227e-07 0.0125977)
(-8.82385e-07 -7.75385e-07 0.0125984)
(-9.41429e-07 -8.30268e-07 0.012599)
(-7.23756e-07 -6.66336e-07 0.0125969)
(-8.50142e-07 -6.92673e-07 0.0125978)
(-9.27182e-07 -6.99399e-07 0.0125987)
(-9.75532e-07 -6.9361e-07 0.0125995)
(-7.06167e-07 -6.26017e-07 0.0125969)
(-8.67251e-07 -6.2638e-07 0.012598)
(-9.60755e-07 -5.70583e-07 0.012599)
(-9.98164e-07 -4.95716e-07 0.0125999)
(-7.14477e-07 -6.04795e-07 0.012597)
(-9.09794e-07 -5.49554e-07 0.0125981)
(-1.01614e-06 -4.11081e-07 0.0125992)
(-1.03431e-06 -2.42066e-07 0.0126001)
(-5.03244e-07 -3.66118e-07 0.012597)
(-5.74824e-07 -3.85614e-07 0.0125976)
(-6.19681e-07 -4.04156e-07 0.0125983)
(-6.4797e-07 -4.18657e-07 0.0125988)
(-4.82857e-07 -3.73471e-07 0.012597)
(-5.74713e-07 -3.8148e-07 0.0125978)
(-6.3123e-07 -3.71566e-07 0.0125985)
(-6.56173e-07 -3.53862e-07 0.0125992)
(-4.58847e-07 -3.66464e-07 0.012597)
(-5.68432e-07 -3.5996e-07 0.0125979)
(-6.37021e-07 -3.16159e-07 0.0125988)
(-6.5942e-07 -2.5869e-07 0.0125995)
(-4.46586e-07 -3.64289e-07 0.0125971)
(-5.74803e-07 -3.29078e-07 0.0125981)
(-6.54149e-07 -2.4255e-07 0.012599)
(-6.711e-07 -1.34014e-07 0.0125997)
(0.000739257 -0.000124155 0.0123741)
(0.00119403 0.00251719 0.0204944)
(-0.00477878 0.00518599 0.0192916)
(-0.00339832 0.000522461 0.0114664)
(0.000807495 0.00220838 0.0176586)
(0.000331859 0.00124014 0.0134199)
(-0.00374262 0.000311508 0.0134855)
(-0.00282295 0.00202594 0.0096676)
(0.000187763 0.0017989 0.0112103)
(-0.00387912 0.0019311 0.0188597)
(-0.00533238 -0.000280743 0.0176766)
(-0.00372415 0.00168547 0.0159115)
(-0.00392724 3.32085e-05 0.0152554)
(-0.00334033 -0.000296897 0.0123888)
(-0.00604042 -0.00131633 0.0199487)
(-0.00394301 -0.00013981 0.00936541)
(-0.00188111 0.000270013 0.027304)
(-0.0027529 -0.000395534 0.0316421)
(-0.000647716 -0.00235461 0.0456713)
(-0.00146002 -0.000113938 0.0153412)