/*--------------------------------*- C++ -*----------------------------------*\
| =========                 |                                                 |
| \\      /  F ield         | OpenFOAM: The Open Source CFD Toolbox           |
|  \\    /   O peration     | Version:  2506                                  |
|   \\  /    A nd           | Website:  www.openfoam.com                      |
|    \\/     M anipulation  |                                                 |
\*---------------------------------------------------------------------------*/
FoamFile
{
    version     2.0;
    format      ascii;
    arch        "LSB;label=32;scalar=64";
    class       volScalarField;
    location    "0.06";
    object      voidfraction;
}
// * * * * * * * * * * * * * * * * * * * * * * * * * * * * * * * * * * * * * //

dimensions      [0 0 0 0 0 0 0];

internalField   nonuniform List<scalar> 
1152
(
0.475963
0.39433
0.360096
0.45753
0.439097
0.446997
0.468063
0.38643
0.475963
0.460163
0.470697
0.38643
0.40223
0.391696
0.412763
0.468063
0.360096
0.370629
0.436463
0.44963
0.349563
0.365363
0.415396
0.412763
0.391696
0.428563
0.43383
0.412763
0.389063
0.383796
0.460163
0.328496
0.307429
0.470697
0.391696
0.39433
0.404863
0.383796
0.39433
0.296896
0.428563
0.415396
0.367996
0.38643
0.38643
0.436463
0.41803
0.375896
0.444363
0.404863
0.460163
0.439097
0.41013
0.40223
0.381163
0.373263
0.391696
0.391696
0.396963
0.44963
0.462797
0.41803
0.378529
0.291629
0.370629
0.415396
0.47333
0.365363
0.40223
0.346929
0.420663
0.40223
0.486497
0.349563
0.439097
0.381163
0.412763
0.336396
0.373263
0.41013
0.452263
0.331129
0.344296
0.399596
0.431196
0.391696
0.367996
0.339029
0.507564
0.396963
0.454897
0.420663
0.404863
0.41803
0.373263
0.310062
0.694531
0.633964
0.707698
0.641864
0.657665
0.718232
0.628698
0.626064
0.826199
0.789332
0.615531
0.691898
0.686631
0.681365
0.589197
0.781432
1
1
1
1
1
1
1
1
1
1
1
1
1
1
1
1
1
1
1
1
1
1
1
1
1
1
1
1
1
1
1
1
1
1
1
1
1
1
1
1
1
1
1
1
1
1
1
1
1
1
1
1
1
1
1
1
1
1
1
1
1
1
1
1
1
1
1
1
1
1
1
1
1
1
1
1
1
1
1
1
1
1
1
1
1
1
1
1
1
1
1
1
1
1
1
1
1
1
1
1
1
1
1
1
1
1
1
1
1
1
1
1
1
1
1
1
1
1
1
1
1
1
1
1
1
1
1
1
1
1
1
1
1
1
1
1
1
1
1
1
1
1
1
1
1
1
1
1
1
1
1
1
1
1
1
1
1
1
1
1
1
1
1
1
1
1
1
1
1
1
1
1
1
1
1
1
1
1
1
1
1
1
1
1
1
1
1
1
1
1
1
1
1
1
1
1
1
1
1
1
1
1
1
1
1
1
1
1
1
1
1
1
1
1
1
1
1
1
1
1
1
1
1
1
1
1
1
1
1
1
1
1
1
1
1
1
1
1
1
1
1
1
1
1
1
1
1
1
1
1
1
1
1
1
1
1
1
1
1
1
1
1
1
1
1
1
1
1
1
1
1
1
0.456753
0.422277
0.458621
0.488804
0.408839
0.468181
0.480053
0.429578
0.486387
0.454301
0.469308
0.491623
0.44695
0.467322
0.447343
0.497103
0.35599
0.518565
0.366586
0.34597
0.354438
0.362926
0.434944
0.361039
0.381189
0.427503
0.446051
0.42041
0.433461
0.376005
0.432097
0.430885
0.395419
0.358086
0.393655
0.473769
0.405212
0.382315
0.418325
0.407469
0.446164
0.432375
0.418565
0.372935
0.419972
0.393399
0.449249
0.334243
0.500563
0.390182
0.472155
0.378546
0.325424
0.429403
0.356596
0.387571
0.387377
0.366599
0.439708
0.539097
0.39839
0.419489
0.393983
0.468468
0.408562
0.435116
0.426138
0.333441
0.383452
0.440483
0.427821
0.365461
0.368812
0.398269
0.388964
0.374913
0.42267
0.358612
0.401606
0.432675
0.553136
0.390182
0.488396
0.366017
0.423346
0.385085
0.423073
0.420735
0.390471
0.444556
0.363593
0.359088
0.390296
0.402096
0.502609
0.484575
0.667042
0.743234
0.667052
0.651685
0.601057
0.659304
0.610634
0.66836
0.659654
0.783182
0.720911
0.639982
0.673566
0.704309
0.609329
0.529317
1
1
1
1
1
1
1
1
1
1
1
1
1
1
1
1
1
1
1
1
1
1
1
1
1
1
1
1
1
1
1
1
1
1
1
1
1
1
1
1
1
1
1
1
1
1
1
1
1
1
1
1
1
1
1
1
1
1
1
1
1
1
1
1
1
1
1
1
1
1
1
1
1
1
1
1
1
1
1
1
1
1
1
1
1
1
1
1
1
1
1
1
1
1
1
1
1
1
1
1
1
1
1
1
1
1
1
1
1
1
1
1
1
1
1
1
1
1
1
1
1
1
1
1
1
1
1
1
1
1
1
1
1
1
1
1
1
1
1
1
1
1
1
1
1
1
1
1
1
1
1
1
1
1
1
1
1
1
1
1
1
1
1
1
1
1
1
1
1
1
1
1
1
1
1
1
1
1
1
1
1
1
1
1
1
1
1
1
1
1
1
1
1
1
1
1
1
1
1
1
1
1
1
1
1
1
1
1
1
1
1
1
1
1
1
1
1
1
1
1
1
1
1
1
1
1
1
1
1
1
1
1
1
1
1
1
1
1
1
1
1
1
1
1
1
1
1
1
1
1
1
1
1
1
1
1
1
1
1
1
1
1
1
1
1
1
1
1
1
1
1
1
0.432675
0.501513
0.491485
0.41864
0.477834
0.446051
0.451563
0.401776
0.449928
0.500588
0.49311
0.464002
0.476626
0.439976
0.488628
0.404181
0.418358
0.436235
0.482641
0.348476
0.380643
0.41645
0.484802
0.382827
0.499934
0.476226
0.362926
0.40302
0.490115
0.384283
0.463241
0.421705
0.452361
0.400629
0.431789
0.393581
0.434003
0.437593
0.370841
0.374707
0.447754
0.434812
0.404474
0.409439
0.387598
0.405941
0.408839
0.474277
0.464889
0.519316
0.445055
0.378546
0.451155
0.378393
0.437318
0.363879
0.38905
0.408014
0.421093
0.425487
0.441554
0.393565
0.387079
0.334084
0.427306
0.418432
0.405258
0.396087
0.395889
0.420679
0.404079
0.380121
0.397747
0.412886
0.393394
0.383763
0.460439
0.334778
0.45236
0.31656
0.393302
0.434257
0.438422
0.413628
0.409229
0.380507
0.411202
0.40719
0.406444
0.437248
0.349076
0.370924
0.411879
0.424505
0.387079
0.351609
0.609852
0.628113
0.681625
0.609085
0.592177
0.670168
0.729343
0.658931
0.552115
0.724714
0.723011
0.723977
0.598027
0.585396
0.702606
0.680185
1
1
1
1
1
1
1
1
1
1
1
1
1
1
1
1
1
1
1
1
1
1
1
1
1
1
1
1
1
1
1
1
1
1
1
1
1
1
1
1
1
1
1
1
1
1
1
1
1
1
1
1
1
1
1
1
1
1
1
1
1
1
1
1
1
1
1
1
1
1
1
1
1
1
1
1
1
1
1
1
1
1
1
1
1
1
1
1
1
1
1
1
1
1
1
1
1
1
1
1
1
1
1
1
1
1
1
1
1
1
1
1
1
1
1
1
1
1
1
1
1
1
1
1
1
1
1
1
1
1
1
1
1
1
1
1
1
1
1
1
1
1
1
1
1
1
1
1
1
1
1
1
1
1
1
1
1
1
1
1
1
1
1
1
1
1
1
1
1
1
1
1
1
1
1
1
1
1
1
1
1
1
1
1
1
1
1
1
1
1
1
1
1
1
1
1
1
1
1
1
1
1
1
1
1
1
1
1
1
1
1
1
1
1
1
1
1
1
1
1
1
1
1
1
1
1
1
1
1
1
1
1
1
1
1
1
1
1
1
1
1
1
1
1
1
1
1
1
1
1
1
1
1
1
1
1
1
1
1
1
1
1
1
1
1
1
1
1
1
1
1
1
)
;

boundaryField
{
    inlet
    {
        type            fixedValue;
        value           uniform 1;
    }
    outlet
    {
        type            fixedValue;
        value           uniform 1;
    }
    wall
    {
        type            zeroGradient;
    }
    procBoundary2to0
    {
        type            processor;
        value           nonuniform List<scalar> 
192
(
0.436463
0.583931
0.444363
0.53653
0.431196
0.38643
0.389063
0.444363
0.428563
0.344296
0.360096
0.44963
0.415396
0.39433
0.346929
0.302162
0.381163
0.367996
0.310062
0.41803
0.328496
0.44963
0.439097
0.468063
0.776165
0.810399
0.657665
0.628698
1
1
1
1
1
1
1
1
1
1
1
1
1
1
1
1
1
1
1
1
1
1
1
1
1
1
1
1
1
1
1
1
1
1
1
1
1
1
1
1
1
1
1
1
1
1
1
1
1
1
1
1
1
1
1
1
1
1
1
1
1
1
1
1
1
1
1
1
0.486365
0.422388
0.380938
0.476275
0.480996
0.396673
0.347774
0.41864
0.361088
0.457994
0.449477
0.446204
0.362878
0.321504
0.380938
0.416134
0.475627
0.386782
0.387571
0.34597
0.450572
0.434257
0.425157
0.453722
0.581218
0.592507
0.602031
0.629132
1
1
1
1
1
1
1
1
1
1
1
1
1
1
1
1
1
1
1
1
1
1
1
1
1
1
1
1
1
1
1
1
1
1
1
1
1
1
1
1
1
1
1
1
1
1
1
1
1
1
1
1
1
1
1
1
1
1
1
1
1
1
1
1
1
1
1
1
)
;
    }
    procBoundary2to3
    {
        type            processor;
        value           nonuniform List<scalar> 
192
(
0.452263
0.486497
0.515464
0.404863
0.44173
0.365363
0.373263
0.428563
0.370629
0.454897
0.325862
0.42593
0.412763
0.44963
0.352196
0.44963
0.48913
0.41013
0.404863
0.360096
0.375896
0.460163
0.396963
0.541797
0.694531
0.623431
0.683998
0.702431
1
1
1
1
1
1
1
1
1
1
1
1
1
1
1
1
1
1
1
1
1
1
1
1
1
1
1
1
1
1
1
1
1
1
1
1
1
1
1
1
1
1
1
1
1
1
1
1
1
1
1
1
1
1
1
1
1
1
1
1
1
1
1
1
1
1
1
1
0.46124
0.438422
0.38876
0.421937
0.433675
0.420735
0.42041
0.400461
0.381052
0.429578
0.382826
0.477417
0.423652
0.299133
0.361066
0.382564
0.413628
0.427367
0.418432
0.400461
0.456228
0.352196
0.51536
0.361088
0.73939
0.672781
0.76856
0.699336
1
1
1
1
1
1
1
1
1
1
1
1
1
1
1
1
1
1
1
1
1
1
1
1
1
1
1
1
1
1
1
1
1
1
1
1
1
1
1
1
1
1
1
1
1
1
1
1
1
1
1
1
1
1
1
1
1
1
1
1
1
1
1
1
1
1
1
1
)
;
    }
}


// ************************************************************************* //
