/*--------------------------------*- C++ -*----------------------------------*\
| =========                 |                                                 |
| \\      /  F ield         | OpenFOAM: The Open Source CFD Toolbox           |
|  \\    /   O peration     | Version:  2506                                  |
|   \\  /    A nd           | Website:  www.openfoam.com                      |
|    \\/     M anipulation  |                                                 |
\*---------------------------------------------------------------------------*/
FoamFile
{
    version     2.0;
    format      ascii;
    arch        "LSB;label=32;scalar=64";
    class       volScalarField;
    location    "0.006";
    object      Ksl;
}
// * * * * * * * * * * * * * * * * * * * * * * * * * * * * * * * * * * * * * //

dimensions      [1 -3 -1 0 0 0 0];

internalField   nonuniform List<scalar> 
512
(
0
0
1.60279
0
0
0
0
0
0
0
0
0
0
0
0
0
0
0
0
0
0
0
0
0
0
0.125768
0
0
0
0
0
0
0
0
0
0
0
0
0
0
0
0
0
0
0
3.52921
0
0
0
0
0
0
0
0
0
0
0
0
0
0
0
0
0
0
0
0
0.757947
0
0
2.35986
0
0
0
0
0
0
0
0
0
0
0
3.55108
0
0
0
0
0
0
0
0
0
0
0
0
0
0
0
0
0
0
0
0
0
0
0
2.40855
0
0
0
0
0
0
0
0
0
0
0
0
0
0
0
2.39391
0
0
0
3.53506
0
0
0
0
0
0
3.49176
0
0
0
0
0
0
0
0
0
0
0
0
0.759342
3.55372
0
0
0
3.01502
0
0
0
0
0
0
0
0
0
0
0
0.75879
0
0
0
3.00763
0
1.26222
0
0
0
0
0
0
0
0
0
0
0
0
0
0
0
3.55152
0
0
0
0
0
0
0
0
0
0
0
0
0
0
0
0
0
0
0
0
0
3.55323
0
0
0
0
0
0
0
0
0
0
0
0
0
0
0
0
0
0
0
0
1.24389
0
0
0
0
0
0
0
0.0878174
0
0
0
0
0
0
0
0
0
0
0
0
0
0
0
0
1.62633
0
0
0
0.567832
5.98264
1.38604
0.910044
0.323897
11.5633
6.0035
6.7873
4.00093
3.55493
7.08648
4.05024
3.05561
6.4916
3.43383
4.04492
4.4671
13.3158
0.691839
3.6226
4.47707
7.94408
10.8372
0.0975625
3.55879
10.7746
3.57876
1.09843
7.50684
7.11634
0.175828
7.32637
3.93333
6.90023
3.13456
8.85874
4.7595
14.2318
15.1815
3.91179
9.84336
5.4301
0.901777
4.49705
7.43003
4.26604
3.80871
5.61846
10.6859
10.8126
8.87477
13.3864
5.06765
7.86298
9.69105
10.9071
10.5295
7.76196
0.555195
9.66824
11.7033
1.93917
7.72046
7.10692
8.38429
20.6831
7.48911
3.90226
7.49201
7.94422
10.8049
5.12303
1.3796
15.3601
4.2464
8.00494
5.32361
7.22384
8.34547
10.1367
3.77767
4.03443
2.07467
3.69705
4.9182
9.29653
6.54304
6.84666
4.96688
10.1185
14.0138
10.5163
0.0510781
0.0698948
18.5605
2.45486
1.44997
3.74887
3.90352
7.58939
5.3578
13.7939
7.30956
9.33931
4.38482
6.14493
0.860162
14.6993
4.04124
0.467711
6.55196
11.7284
4.00501
8.83231
7.81161
16.7933
3.90907
14.6028
5.38495
0.49082
5.45676
9.45615
5.22572
10.1831
5.90016
7.88227
8.69852
3.42817
3.16407
10.1681
7.13043
7.49951
3.86151
6.15608
14.1403
11.5984
10.1309
9.29601
19.9048
9.35761
4.39768
7.5036
9.00923
7.97134
0.349133
9.86087
7.49406
10.5552
9.64176
12.5198
10.7841
7.55027
9.93996
4.80244
9.949
10.2826
1.14325
7.58381
0.744688
13.1777
8.60105
4.79975
8.06868
4.46655
7.47127
9.61436
9.17598
6.55838
4.50242
7.44979
3.06396
0.206133
11.4961
11.4508
8.2718
16.7605
7.49123
0.452021
7.686
11.6545
0.261463
0
1.80226
3.78561
3.9147
0.627221
0
3.60907
11.5365
0.925152
9.83514
15.2213
2.83409
8.66732
13.0293
11.3241
7.74397
4.00274
7.829
7.13899
5.05665
10.9333
8.24051
4.05436
1.42042
7.54059
11.2645
10.6949
11.6428
11.3823
3.07603
4.30775
0.23493
8.49388
15.1913
9.15869
5.03848
18.1633
6.99463
1.71231
0
7.96642
2.46395
5.62802
0.0953571
0.469253
5.70176
6.0651
1.17873
5.60343
7.0832
1.55246
2.32083
12.4469
0.34866
2.67977
6.40255
1.46391
6.48746
2.88628
2.88053
2.4799
0.104962
7.30002
8.57406
3.30829
5.93279
7.68616
5.3104
4.95742
3.91639
12.4914
3.85779
4.81092
13.9926
0.358058
)
;

boundaryField
{
    wall
    {
        type            zeroGradient;
    }
    outlet
    {
        type            cyclic;
    }
    inlet
    {
        type            cyclic;
    }
    procBoundary3to2
    {
        type            processor;
        value           uniform 0;
    }
}


// ************************************************************************* //
