/*--------------------------------*- C++ -*----------------------------------*\
| =========                 |                                                 |
| \\      /  F ield         | OpenFOAM: The Open Source CFD Toolbox           |
|  \\    /   O peration     | Version:  2506                                  |
|   \\  /    A nd           | Website:  www.openfoam.com                      |
|    \\/     M anipulation  |                                                 |
\*---------------------------------------------------------------------------*/
FoamFile
{
    version     2.0;
    format      ascii;
    arch        "LSB;label=32;scalar=64";
    class       volVectorField;
    location    "0.006";
    object      U;
}
// * * * * * * * * * * * * * * * * * * * * * * * * * * * * * * * * * * * * * //

dimensions      [0 1 -1 0 0 0 0];

internalField   nonuniform List<vector> 
512
(
(9.98956 -0.0265609 0.0233371)
(9.98893 0.00197029 0.0196021)
(10.0377 -0.029921 0.013531)
(10.09 -0.00224932 -0.0197826)
(9.93517 0.006439 -0.0872283)
(9.78931 -0.0142477 -0.0794503)
(9.89026 -0.0787427 0.025001)
(9.94864 -0.0254045 0.0520875)
(9.99675 0.0441336 0.0902575)
(10.0742 0.0381524 -0.00204885)
(10.0031 0.0711772 -0.0175398)
(10.0177 0.0753622 0.0100362)
(10.0854 0.0210021 -0.0149579)
(10.0873 -0.005158 -0.024158)
(10.0598 0.0157218 -0.0194394)
(10.0144 0.015319 0.0323291)
(10.0129 -0.000460775 0.0335855)
(10.0545 0.00931872 -0.0452398)
(10.0604 0.00146865 -0.0535611)
(9.985 -0.00306698 -0.0645033)
(9.89139 0.0212103 0.0484675)
(9.88994 -0.0102429 0.0553238)
(10.0396 -0.0113595 0.00274715)
(10.0126 -0.00215045 0.00490906)
(10.0014 0.00221061 0.0491776)
(10.0366 0.0103425 0.046342)
(10.0753 0.0145732 -0.00400623)
(9.90856 -0.0145814 -0.0153527)
(9.84788 -0.0337618 -0.0037686)
(10.0274 -0.00484148 -0.0292065)
(10.0565 -0.000316277 -0.0708126)
(10.076 -0.0223251 -0.0459379)
(10.1712 0.0481782 0.0369478)
(10.1472 0.0677192 0.0167266)
(10.1594 -0.00900791 0.0125355)
(10.1271 -0.0771844 -0.0874547)
(10.0316 0.0277685 -0.136157)
(9.83372 -0.016302 -0.00964951)
(9.9176 -0.0490541 0.0278229)
(10.187 -0.0113294 0.0420177)
(10.156 -0.00401237 0.0140191)
(10.1914 0.0134903 0.0238511)
(10.1955 0.0560807 0.0602505)
(10.1434 0.0441949 0.0518181)
(10.1323 0.0234883 0.038647)
(10.1711 0.00215525 -0.0189673)
(10.1485 -0.0265435 -0.0361389)
(10.1041 -0.0514837 -0.0020596)
(10.082 -0.0372711 0.0168171)
(10.1163 -0.0409442 -0.0335853)
(10.1547 -0.0705878 -0.0649228)
(10.1203 -0.055531 -0.0169461)
(10.0298 -0.00173526 -0.0149624)
(10.0728 0.0121093 0.0551404)
(10.0993 0.0157933 0.0287469)
(10.0923 0.0284495 -0.0280713)
(10.1035 0.0330431 -0.0255942)
(10.1674 -0.0109987 0.0118728)
(10.123 -0.0367063 -0.0384325)
(10.0358 -0.00260815 0.0124308)
(10.0442 0.00656243 0.0828093)
(10.1505 0.0230295 0.00374775)
(10.1547 0.0155688 -0.033408)
(10.2024 0.00228394 -0.00542069)
(10.1655 0.0439631 -0.046097)
(10.1622 0.0570819 -0.115712)
(10.1081 0.0209287 -0.0526861)
(10.0818 -0.0517573 0.0192099)
(10.0837 -0.0686011 -0.00117544)
(9.92506 0.0536531 -0.0956417)
(9.95602 0.0635354 -0.0364118)
(10.074 0.0153146 0.097714)
(10.149 0.00318312 0.000816528)
(10.1828 -0.00519953 -0.0825018)
(10.2096 0.000721175 -0.000243073)
(10.099 0.000245623 0.0443816)
(10.0797 0.0112397 0.0317333)
(10.1992 0.00382606 -0.0239375)
(10.2017 -0.00586985 -0.0345788)
(10.1078 -0.0633125 0.0310359)
(10.117 -0.0399886 0.0405604)
(10.1296 -0.0370892 -0.0453277)
(10.1332 -0.039378 -0.0342232)
(10.0993 -0.0272094 0.0177419)
(10.0137 0.00676195 0.041364)
(10.0322 0.0202489 0.0773409)
(10.1462 0.074583 0.0589961)
(10.1354 0.0657633 0.0602017)
(10.0603 0.0282326 0.0634588)
(10.0223 -0.0249684 -0.0219916)
(10.0725 -0.0339091 -0.109085)
(10.0725 -0.0107326 -0.0665245)
(10.134 0.0100523 0.0530413)
(10.1513 -0.0357663 0.0126239)
(10.1235 -0.043638 9.87856e-05)
(10.1149 -0.007713 0.0335786)
(10.1457 -0.0618747 -0.0178875)
(10.0677 -0.0614075 -0.032314)
(10.0946 -0.0118984 0.0268402)
(10.1112 -0.0175931 0.0637043)
(10.0514 -0.0644126 0.026202)
(9.92699 -0.0303153 -0.185763)
(9.92861 0.0289682 -0.131573)
(10.1154 0.082946 0.0926113)
(10.0981 0.0492104 0.0857933)
(10.1325 -0.052696 0.0933948)
(10.2756 -0.0419183 0.0928579)
(10.2596 0.0181455 0.0470864)
(10.1328 0.0946271 0.0155722)
(10.0581 0.019137 -0.0267929)
(10.0718 -0.0128369 -0.0390677)
(10.2091 -0.0297879 3.52122e-05)
(10.219 0.0206299 -0.0272952)
(10.1566 0.0390839 -0.0463167)
(10.1571 0.0465135 -0.0585881)
(10.1213 -0.0483873 -0.0195166)
(10.0376 -0.0701527 0.0164212)
(10.1025 -0.0105976 0.0555792)
(10.1694 0.0074437 0.0188426)
(10.1416 -0.0120479 0.0173956)
(10.026 0.0159876 -0.0222988)
(10.024 0.0466481 -0.0492462)
(10.1509 -0.00733229 -0.0454761)
(10.1233 -0.0349003 -0.0300116)
(10.0259 -0.0257684 0.00724542)
(10.0674 0.0436314 0.055473)
(10.1814 0.0394104 0.0468889)
(10.2183 -0.0302825 -0.00227826)
(10.0892 0.0251631 -0.00279869)
(10.1207 0.0399191 -0.0140105)
(10.1407 0.0327617 -0.0279464)
(10.1382 0.0217066 0.00486321)
(9.99638 -0.0573939 0.0136047)
(9.95938 -0.0731382 -0.0529337)
(10.0058 -0.0083246 -0.043474)
(10.013 0.0643035 -0.0152932)
(10.0368 0.0881869 -0.0158453)
(10.144 -0.0028256 0.0590392)
(10.2704 -0.0824695 0.0990342)
(10.2539 -0.0163144 0.031385)
(10.1778 0.0289664 -0.0195325)
(10.0483 -0.028123 -0.0783408)
(10.0487 -0.0407584 -0.0530054)
(10.1926 0.00511799 -0.00041882)
(10.2158 -0.00540931 -0.0129411)
(10.1878 -0.00442008 -0.0182587)
(10.0764 0.00130228 -0.0118121)
(10.0814 -0.0183065 -0.00326978)
(10.0583 0.000785949 0.0188874)
(10.0791 0.0259376 0.0123778)
(10.1362 0.0219358 -0.0270862)
(10.102 -0.0541696 -0.0364642)
(10.073 -0.0366266 -0.000670846)
(10.1006 -0.00453413 0.0030311)
(10.1096 -0.0280028 -0.0150733)
(10.103 -0.037205 -0.0011784)
(10.1308 -0.032274 0.0393875)
(10.1291 0.0122544 0.0522143)
(10.0894 0.0657931 0.0159663)
(10.1108 0.0266418 -0.00123195)
(10.1578 0.0308865 0.0437881)
(10.1151 0.0467691 -0.044798)
(10.1266 0.0363874 -0.0321388)
(10.0599 -0.0861228 0.0877397)
(10.0227 -0.0868249 0.0958085)
(9.95996 0.0356517 -0.15282)
(9.99637 0.00963247 -0.14361)
(10.0989 0.015637 -0.022067)
(10.1431 0.0542991 -0.0134674)
(10.1044 0.093879 0.0872325)
(10.1127 0.0342344 0.0913953)
(10.1937 -0.0115656 -0.0370041)
(10.1818 0.0277205 -0.0752933)
(10.1098 -0.0299216 -0.00866226)
(10.0786 -0.11526 0.0574493)
(10.1332 -0.086449 0.00151399)
(10.1911 -0.00739351 -0.041142)
(10.1404 0.0204544 0.0155752)
(10.0699 -0.00887953 0.0703626)
(10.083 0.0674088 0.00420502)
(10.0783 0.0931714 -0.0250247)
(10.1495 -0.0142961 -0.034076)
(10.1661 -0.0383046 -0.01182)
(10.1035 -0.0603754 -0.00173882)
(10.1486 -0.0703706 0.00205266)
(10.1865 -0.0398213 0.0152185)
(10.0099 0.0535322 -0.0170761)
(9.96323 0.0857078 -0.0747559)
(10.0193 0.0581724 -0.084175)
(10.1351 -0.0432239 0.00771162)
(10.2076 -0.0399064 0.0669451)
(10.1764 0.00149358 0.0876598)
(10.1257 0.00977358 0.011121)
(10.1157 0.0182083 -0.0403399)
(10.0718 -0.0172783 -0.0766852)
(10.0604 -0.0700726 0.0507237)
(10.0922 -0.0392053 0.0789714)
(10.1385 -0.023829 0.0136466)
(10.018 -0.00980126 -0.0509179)
(10.0239 0.00696317 -0.0701053)
(10.1346 -0.00203455 -0.0843264)
(10.0953 0.0879258 0.0387628)
(10.0989 0.0831165 0.080821)
(10.2488 0.022003 0.00336821)
(10.2256 0.0244405 -0.0229896)
(10.1374 0.0371563 -0.0804737)
(10.0055 -0.0208458 0.00538997)
(10.0316 -0.103508 0.0620754)
(10.1391 -0.114859 -0.0225595)
(10.1511 0.00745168 -0.0260273)
(10.1073 0.0501625 0.0254001)
(10.1004 -0.000958638 0.0557627)
(10.0497 -0.016601 0.0194965)
(10.0649 0.00792914 -0.00735109)
(10.1061 -0.016248 -0.00870112)
(10.0857 -0.0953165 0.0172072)
(10.1446 -0.0157814 -0.0107874)
(10.1598 0.0703107 -0.0491672)
(10.122 0.0619164 -0.0541216)
(10.1269 0.0656657 0.0248792)
(10.0978 0.07828 0.0372638)
(10.0024 0.0332843 -0.00553886)
(10.1109 -0.00220463 0.0100605)
(10.1385 -0.0192864 0.0364211)
(10.0292 0.0247989 0.0440315)
(9.99983 0.0708305 -0.0408054)
(9.89965 -0.00247644 -0.0242904)
(9.90366 -0.00246458 0.0323266)
(9.98589 -0.0376376 0.0264287)
(9.98471 -0.0607909 0.0109979)
(9.98148 -0.0112017 -0.0077281)
(10.0138 0.0508123 0.00293224)
(9.97664 0.0518207 0.0361075)
(9.96243 0.0582209 0.0521243)
(10.0316 0.0487181 0.0340121)
(10.1593 0.0308209 -0.00914637)
(10.1298 0.00711014 -0.0391301)
(9.91041 0.00784441 -0.00613472)
(9.95513 0.0307294 0.0218377)
(9.99402 0.0315282 0.0759449)
(10.1227 -0.0218569 -0.0369219)
(10.0891 -0.0288818 -0.0572482)
(9.9319 -0.00449393 0.0654777)
(9.90655 -0.0452507 0.0557836)
(9.96846 -0.0820626 -0.0105095)
(10.0128 0.0187604 -0.0604944)
(9.99656 0.0556987 -0.0654634)
(10.0299 0.0151031 -0.0229278)
(10.0519 0.00373145 -0.0273594)
(10.0061 -0.00553399 -0.0679574)
(10.0037 0.0213126 -0.064247)
(9.97182 0.00685722 0.0105244)
(9.95036 -0.0232395 0.0394559)
(9.99902 0.0046981 -0.00954681)
(9.99535 -0.00602717 -0.0157338)
(10.0247 -0.00535349 0.0415541)
(9.85237 -0.047729 0.0710675)
(9.76311 -0.00177561 0.0665449)
(9.7242 -0.0137829 0.000875498)
(9.6886 -0.0560746 -0.0783874)
(9.62181 0.0330895 -0.060523)
(9.58887 0.0467512 -0.0404868)
(9.60576 -0.0232544 -0.046899)
(9.6157 -0.0514656 0.06417)
(9.62998 -0.0378469 0.100666)
(9.82546 0.0426213 0.0613379)
(9.82658 0.0734842 0.0543131)
(9.75139 0.0545537 0.081255)
(9.76578 0.0300818 0.080646)
(9.73788 0.0420623 -0.0443899)
(9.74582 0.0257839 -0.0544895)
(9.73547 -0.0184173 -0.00913009)
(9.68959 -0.0244967 0.000727578)
(9.5482 -0.025492 -0.014771)
(9.67665 -0.00639881 -0.0889651)
(9.70249 0.00104192 -0.108466)
(9.64693 0.0217068 0.0402827)
(9.65526 0.0315168 0.0602394)
(9.65238 0.0101183 0.0187599)
(9.70033 -0.00418859 0.0169553)
(9.68549 -0.0122728 0.0433305)
(9.61084 -0.0723363 0.0694567)
(9.59814 -0.0757633 0.037605)
(9.64026 -0.0842708 0.0263917)
(9.6178 0.0141704 0.0240505)
(9.55303 0.0502447 -0.0254085)
(9.70202 0.0930352 -0.0795969)
(9.79235 -0.0366393 -0.0436062)
(9.71828 -0.0403112 0.0333351)
(9.71895 -0.0426932 0.0421203)
(9.83091 -0.021209 -0.0194709)
(9.80453 0.0395268 -0.0795721)
(9.73819 0.0640253 -0.0907436)
(9.43101 -0.0223273 0.0870784)
(9.44327 -0.0564564 0.0706235)
(9.6452 -0.0396014 0.0101231)
(9.70636 -0.00809032 -0.0229525)
(9.77515 -0.000121425 0.0245257)
(9.87886 -0.0249573 0.0607562)
(9.85992 -0.0174554 0.0510617)
(9.78383 -0.00709294 0.0643743)
(9.76575 0.01293 0.0646264)
(9.82885 -0.00682271 -0.0321937)
(9.81691 -0.0297195 -0.0573332)
(9.72939 -0.011806 -0.0405251)
(9.71227 0.00368966 -0.0546625)
(9.76038 0.0352375 -0.0818962)
(9.70948 0.0439252 -0.0892692)
(9.62574 0.00886211 0.0376732)
(9.57215 -0.0408617 0.108008)
(9.62899 0.020143 0.0370059)
(9.63342 0.0566983 -0.00474954)
(9.61561 0.0683487 0.0117885)
(9.64414 -0.0716374 -0.0207926)
(9.73023 -0.0939881 -0.0398449)
(9.70551 -0.0150026 -0.00995455)
(9.61136 0.0471322 0.0488096)
(9.73576 0.07297 0.0285745)
(9.85094 0.0451141 -0.0415006)
(9.80732 0.0210938 -0.0323564)
(9.83735 0.0254995 -0.0207616)
(9.56265 0.0140935 -0.0640256)
(9.58006 0.0139154 -0.0235209)
(9.63409 0.0176931 0.0238639)
(9.61961 0.0240246 -0.0215346)
(9.47983 -0.034339 -0.0690886)
(9.48327 -0.020559 -0.0579159)
(9.65239 0.0660915 0.0289971)
(9.86597 0.0410273 0.036819)
(9.72545 -0.00262065 -0.0160611)
(9.7441 -0.0513414 -0.0483551)
(9.75531 -0.0705381 0.0301664)
(9.7668 -0.0181571 0.0291073)
(9.81086 -0.000738468 -0.0220087)
(9.82383 -0.000929873 -0.0177052)
(9.74598 -0.013182 0.0151296)
(9.75214 0.00384177 0.0187701)
(9.76354 0.0292141 0.00604823)
(9.8147 0.0199263 -0.0102163)
(9.85667 -0.0209004 -0.00255605)
(9.844 -0.0316073 0.0046664)
(9.79022 0.0205076 0.0391385)
(9.81781 0.0615152 0.0175149)
(9.80654 0.0213959 -0.00521884)
(9.77158 0.0264782 0.0507755)
(9.65099 -0.0270586 -0.00421192)
(9.63927 -0.0393735 -0.0175591)
(9.70482 -0.0306074 0.0331038)
(9.66208 -0.0258643 0.045782)
(9.66408 -0.0350943 0.0545329)
(9.69863 0.0441752 -0.0275255)
(9.86365 0.0501483 -0.0275337)
(9.71945 -0.0176701 0.00508869)
(9.82941 0.0077235 0.000309375)
(9.8673 0.00157885 -0.00667599)
(9.84051 -0.0595923 0.0309613)
(9.70164 -0.0983973 0.0487196)
(9.56673 0.0487472 -0.0438622)
(9.65666 0.0934901 -0.0299835)
(9.66163 0.0105315 0.0233222)
(9.70294 -0.031209 0.0232884)
(9.75379 -0.0213328 0.037551)
(9.84569 0.00846265 0.00933303)
(9.73965 0.0438742 -0.0182003)
(9.7578 0.049927 -0.00189222)
(9.77652 0.0358657 -0.00238823)
(9.79062 0.00274273 0.0194703)
(9.73369 7.47043e-05 0.0401237)
(9.75727 -0.0107605 -0.0298949)
(9.70129 -0.0189978 -0.0663353)
(9.70553 -0.0256486 -0.0672004)
(9.62503 -0.0421638 -0.0423375)
(9.69022 -0.0324143 -0.032507)
(9.66424 0.00944986 0.0506689)
(9.68391 0.0113797 0.0389171)
(9.67796 -0.0612592 -0.0176741)
(9.65281 -0.0432519 -0.0159814)
(9.64344 -0.0124686 0.0050213)
(9.75384 0.0338012 -0.04321)
(9.72435 0.0110304 -0.0625592)
(9.74902 0.0149324 -0.00189934)
(9.72175 0.0326779 0.113906)
(9.69082 0.0302236 0.0987148)
(9.70183 -0.0100448 0.0607684)
(9.76645 -0.0353535 -0.00267195)
(9.7556 0.00185665 0.00318815)
(9.66633 0.0521204 -0.0239938)
(9.69586 -0.00333104 -0.0226603)
(9.61066 -0.121135 0.0015322)
(9.56292 -0.07263 0.024616)
(9.55411 -0.0176622 -0.00237778)
(9.61231 0.0306505 -0.0119343)
(9.62547 0.069266 0.0173641)
(9.73394 0.0236463 0.0500951)
(9.68801 -0.0044972 0.0206392)
(9.62347 0.0166037 0.0294717)
(9.60714 -0.00265597 -0.0228132)
(9.65525 -0.0211699 -0.0303093)
(9.72271 -0.00701661 0.000414724)
(9.67265 -0.0350087 0.00898028)
(9.73069 -0.040109 0.00470545)
(9.74241 0.0536559 -0.0286864)
(9.73615 0.0380488 -0.0107834)
(9.62954 -0.0026782 0.00240229)
(9.62424 -0.0253043 -0.00344124)
(9.64436 -0.0369466 0.00427012)
(9.61004 -0.0459154 -0.0280086)
(9.61794 -0.00947353 -0.0599284)
(9.64841 0.0389622 -0.040278)
(9.66058 0.157538 0.00912821)
(9.61605 0.138679 0.0114601)
(9.6093 -0.0140143 0.0541518)
(9.70268 -0.0429586 0.0739673)
(9.68801 -0.0158221 -0.00045851)
(9.77672 -0.0167042 -0.016442)
(9.72626 -0.0245071 -0.0193982)
(9.70749 0.0797201 -0.0397913)
(9.74637 0.0618079 -0.00630463)
(9.72599 0.00983082 -0.00193031)
(9.65548 -0.0404355 0.0988874)
(9.48928 -0.0294367 -0.0330758)
(9.53792 -0.0258315 -0.0694728)
(9.71856 0.0194274 -0.0354463)
(9.77866 0.0320667 -0.0247873)
(9.7505 0.0387194 -0.0255768)
(9.66481 0.025849 0.0792779)
(9.70934 0.00247473 0.098133)
(9.8896 -0.0299353 -0.00500115)
(9.83351 -0.0116164 -0.0260848)
(9.69406 -0.0205564 0.0307529)
(9.68865 -0.0516455 0.0475027)
(9.61384 -0.0403545 -0.00939318)
(9.65215 -0.0200581 -0.0125174)
(9.76308 -0.00305322 0.00485931)
(9.7442 0.0438437 -0.00216227)
(9.64487 0.0717582 -0.0456988)
(9.68436 0.0386283 -0.0278484)
(9.78197 -0.000831534 -0.0121193)
(9.91884 -0.0185064 -0.0306529)
(9.94321 -0.0478901 0.00959477)
(9.87125 -0.0627647 0.0344692)
(9.85338 -0.0141542 0.0848813)
(9.82158 0.0570254 0.0278493)
(9.81438 0.0514636 -0.0163164)
(9.74557 0.00130367 0.0182632)
(9.87929 -0.0606799 0.0342831)
(9.86382 -0.0506422 0.02529)
(9.73683 0.0288129 -0.00680912)
(9.8423 0.0606582 0.063506)
(9.69006 0.112402 0.0228935)
(9.6656 -0.0519034 -0.00672231)
(9.62326 -0.167875 0.0194503)
(9.59591 -0.091564 0.0470873)
(9.60183 0.0931236 -0.0288152)
(9.58306 0.0622758 0.0139078)
(9.6967 0.0194047 -0.0342331)
(9.79237 0.0109269 -0.0784075)
(9.73286 -0.0205936 0.00729876)
(9.72787 0.00519973 0.0957217)
(9.74278 0.00879701 0.0495654)
(9.79746 -0.0272138 -0.0206349)
(9.78542 -0.043123 -0.0183813)
(9.72992 -0.0163454 0.0586294)
(9.68693 -0.0388654 0.0472388)
(9.68168 -0.0689327 0.0108751)
(9.66149 -0.0813804 -0.0392284)
(9.69797 0.0343508 -0.0269736)
(9.69453 0.0359972 -0.0260649)
(9.75204 0.000362002 -0.0281277)
(9.761 -0.00342414 0.00856853)
(9.72979 -0.0217015 0.00786546)
(9.66318 -0.0365525 0.0206411)
(9.6918 -0.02734 0.0124408)
(9.61158 -0.038756 -0.0187189)
(9.65024 0.00420083 0.00611957)
(9.64313 0.0432363 0.0171393)
(9.65312 0.0364093 0.0321746)
(9.70227 0.025084 -0.0855079)
(9.88514 -0.0270159 -0.0752038)
(9.90679 -0.00174803 0.0464234)
(9.76852 0.00199239 0.0280534)
(9.76207 0.0280944 0.0128856)
(9.60385 0.0430551 0.0361301)
(9.57436 -0.0191477 -0.00188224)
(9.64077 -0.0396088 -0.0226981)
(9.73175 -0.00698635 -0.0059419)
(9.65133 0.0160846 -0.0303914)
(9.67498 0.0203313 -0.0503763)
(9.80039 0.0447595 0.0092485)
(9.72806 0.0291745 0.0325114)
(9.761 0.00727234 0.0372683)
(9.78504 -0.00149046 0.00910451)
(9.70901 -0.0108996 -0.028366)
(9.76398 0.00164979 0.0105589)
(9.77765 0.024629 0.0499378)
(9.72359 0.0750726 0.0702927)
(9.71928 -0.0457268 0.0158877)
(9.73304 -0.0796106 -0.0357832)
(9.73415 -0.0214548 -0.0232674)
(9.66551 -0.0172261 0.0166525)
(9.67047 -0.0274581 0.0210558)
(9.77213 -0.00948181 -0.0148485)
(9.74827 0.00664063 -0.0222725)
(9.57998 0.00224973 0.00770213)
(9.54869 0.01692 0.0300138)
(9.6642 -0.0133766 -0.0382003)
(9.7209 -0.0247259 -0.0342509)
(9.65174 -0.0534462 -0.0246726)
(9.5182 0.04258 0.0246569)
(9.53004 0.107888 0.0596574)
(9.59905 0.0312901 -0.0108953)
(9.7497 -0.0468824 -0.00390769)
)
;

boundaryField
{
    wall
    {
        type            fixedValue;
        value           uniform (0 0 0);
    }
    outlet
    {
        type            cyclic;
    }
    inlet
    {
        type            cyclic;
    }
    procBoundary3to2
    {
        type            processor;
        value           nonuniform List<vector> 
256
(
(10.0752 -0.0278889 -0.0320973)
(9.96112 -0.0412681 -0.00773446)
(10.1753 -0.00869601 0.0624256)
(10.2282 0.0146961 0.0692784)
(10.223 0.0186666 -0.0539886)
(9.91867 -0.0314169 -0.233677)
(9.82373 -0.0323143 -0.00307241)
(9.95311 -0.0175358 0.0966984)
(10.218 0.0104623 -0.0158806)
(10.1861 0.00276108 0.00928177)
(10.117 0.0128281 0.0416686)
(10.1534 0.0158968 -0.00406946)
(10.1799 -0.00501424 -0.0615931)
(10.1276 0.0133801 -0.0483405)
(10.1107 0.0402348 0.0307724)
(10.1498 0.0150425 0.0130108)
(10.1714 -0.0365661 -0.025904)
(10.1641 0.0127367 -0.0302639)
(10.1679 0.0396771 -0.015315)
(10.0479 0.00530063 0.0478239)
(10.031 0.0210522 0.00918172)
(10.0601 -0.00140265 0.00294383)
(10.1972 0.0141783 -0.0147483)
(10.1576 0.0276005 -0.0205776)
(10.1634 0.0468771 -0.0220774)
(10.2269 -0.0186106 -0.00452377)
(10.2452 -0.0492518 0.0280663)
(10.0241 -0.0624953 0.055753)
(9.9238 -0.0919225 0.0479575)
(10.1789 0.0060376 0.0735696)
(10.2234 0.0498641 0.0877222)
(10.2535 -0.0230727 -0.000629464)
(10.325 -0.0124027 -0.031459)
(10.3425 0.135605 0.012934)
(10.3261 0.106569 0.0453265)
(10.3056 -0.0426512 0.0288982)
(10.333 -0.0199504 -0.0334709)
(10.0206 0.00813618 -0.142837)
(9.96934 -0.0235029 -0.0876631)
(10.2119 -0.056249 0.0942206)
(10.3268 0.0281469 0.0471764)
(10.2935 0.005251 0.021117)
(10.2537 -0.0371226 0.0552324)
(10.2578 -0.0276331 0.0383167)
(10.303 -0.0444509 -0.0326941)
(10.2889 -0.0438429 -0.0357883)
(10.2673 0.0312405 -0.0148068)
(10.1769 -0.00177788 0.0375715)
(10.1817 -0.0237195 0.0223056)
(10.292 0.0163776 -0.00716534)
(10.287 0.039725 0.0275084)
(10.2462 0.0166751 0.00712047)
(10.1923 0.0142006 0.0123031)
(10.1706 -0.0140136 0.00827417)
(10.2803 -0.00239881 -0.0409557)
(10.2781 0.00435079 -0.0458147)
(10.2479 0.0450226 -0.0397568)
(10.2586 0.0426446 -0.0177462)
(10.2816 -0.0424828 0.00754655)
(10.2075 -0.0437402 0.0533579)
(10.2382 -0.025624 0.0678055)
(10.3055 0.0374176 0.00545815)
(10.2321 0.00774597 0.00600746)
(10.2305 -0.0472232 0.0113854)
(10.4106 0.0469485 0.0231204)
(10.3673 0.0953446 -0.000331362)
(10.3257 0.0471771 0.0318239)
(10.29 -0.0719914 0.00242443)
(10.2775 -0.0697197 0.00279207)
(10.1248 0.0879599 -0.143253)
(9.97677 0.0500572 -0.0185816)
(10.0937 -0.0229205 0.062128)
(10.3469 -0.0363268 -0.0283315)
(10.2398 -0.00347853 -0.0416451)
(10.2167 -0.0179828 0.0390768)
(10.2609 -0.0365923 0.0404489)
(10.3298 -0.0110691 -0.0452403)
(10.2991 -0.0237947 -0.0517114)
(10.233 -0.0212438 -0.00440945)
(10.1953 0.0135861 -0.00856199)
(10.2776 0.0263767 -0.0555762)
(10.2942 0.0046123 -0.0667113)
(10.2636 -0.0532437 -0.0719144)
(10.1493 -0.00228692 0.00549641)
(10.1153 -0.0313927 0.0457581)
(10.2527 0.0193533 0.0117868)
(10.3431 0.0552682 0.0441848)
(10.2802 0.0190718 0.0478677)
(10.2625 -0.00791659 0.0307182)
(10.2806 0.0175085 -0.0496509)
(10.1799 -0.010411 -0.0672121)
(10.1676 -0.00752571 -0.00106389)
(10.2715 0.0212787 0.0412039)
(10.2985 -0.0281793 0.0152861)
(10.2246 -0.0217865 0.0525264)
(10.2467 -0.015854 0.0743926)
(10.2895 -0.0168888 -0.0129351)
(10.1847 -0.0367899 -0.0164935)
(10.2564 -0.0124517 0.013614)
(10.3465 -0.0179267 0.00117166)
(10.2963 -0.0939467 -0.0305161)
(10.2404 -0.0442655 -0.0959563)
(10.0415 0.00670289 -0.022908)
(10.0505 0.0520944 0.0569057)
(10.1173 0.0125427 0.0523145)
(10.394 -0.0338451 0.0649194)
(10.3874 -0.0121479 0.0425032)
(10.2972 0.00126667 0.0022759)
(10.2588 0.10224 -0.00121902)
(10.2676 0.0866103 0.0027167)
(10.302 0.0266459 -0.0243903)
(10.2681 -0.0150294 -0.0167159)
(10.2614 -0.0108586 0.0251377)
(10.2952 -0.015044 0.0113342)
(10.2863 -0.0138907 -0.00840845)
(10.245 -0.0227059 0.041231)
(10.1595 -0.0376201 0.0366597)
(10.2283 0.0265895 -0.0247335)
(10.3496 0.0588918 0.00527634)
(10.2796 0.0229505 0.0392008)
(10.2123 -0.00544417 0.0254453)
(10.2178 -0.0125587 -0.0883634)
(10.2476 -0.0172137 -0.0714592)
(10.2331 -0.0306174 0.0265023)
(10.2369 0.0178453 0.0402319)
(10.2134 0.0160817 -0.0225091)
(10.2873 0.00754747 -0.0363169)
(10.307 0.00950835 -0.00686676)
(10.2622 -0.0572717 0.0345837)
(10.2593 0.0515841 0.00959375)
(10.2403 0.119375 -0.00236182)
(10.2336 -0.0195248 0.0512596)
(10.2275 -0.11595 0.0472781)
(10.1364 -0.0890717 -0.0754493)
(10.1472 -0.0419261 -0.0725015)
(10.1568 0.127312 0.0456399)
(10.173 0.0561694 0.05088)
(10.2379 0.0269234 -0.0288069)
(10.4021 0.0197417 0.0393133)
(10.4011 0.0463882 0.111914)
(10.3498 0.0328347 0.0268988)
(10.2832 -0.024457 -0.0352583)
(10.1881 -0.052892 -0.0574836)
(10.2197 -0.0463333 -0.0705402)
(10.33 -0.0278776 -0.010847)
(10.3175 -0.0082115 -0.0028991)
(10.2441 -0.02799 -0.0505444)
(10.2027 -0.0358995 -0.0271845)
(10.1815 0.0199135 -0.012921)
(10.2626 0.0376792 -0.0180858)
(10.3279 0.00418229 -0.023076)
(10.2252 -0.0283808 0.00742227)
(10.1786 -0.0281185 0.023595)
(10.2416 0.0362519 -0.0146593)
(10.2593 0.0495648 -0.00855577)
(10.2144 0.0195639 -0.0516605)
(10.235 0.0486221 0.0240475)
(10.2249 0.0216148 0.0563157)
(10.2105 0.0243497 0.0202126)
(10.2989 -0.0524693 0.023044)
(10.4557 0.016696 -0.00522841)
(10.387 0.0726885 -0.0767799)
(10.2545 0.109421 -0.075282)
(10.1071 -0.0757499 0.0441893)
(10.1265 -0.121198 0.0697538)
(10.2504 -0.0542273 0.056317)
(10.3455 -0.00420761 0.00645293)
(10.2967 0.0126683 -0.00530158)
(10.0989 0.0458474 0.0330052)
(10.1202 0.0357163 0.00318858)
(10.3459 -0.0205933 -0.00769666)
(10.4122 0.0447943 0.0382296)
(10.3456 0.112336 -0.00211548)
(10.2257 -0.0125228 -0.0101549)
(10.2012 -0.0596168 0.0264417)
(10.2644 -0.0217051 0.00476094)
(10.295 -0.00342388 -0.00575384)
(10.2517 -0.0164771 0.00954132)
(10.2174 0.00498357 0.0212785)
(10.1946 0.0241706 0.0321022)
(10.1843 -0.00113166 0.0231442)
(10.2467 -0.0174412 0.0019972)
(10.3033 -0.0303747 -0.00906748)
(10.2626 -0.050317 0.017755)
(10.26 -0.00881405 -0.0280626)
(10.2644 0.00250847 -0.0573494)
(10.2814 0.00188029 -0.0407007)
(10.2649 0.0123882 -0.0211374)
(10.2409 0.0390049 -0.0263601)
(10.1959 -0.00728324 0.0265242)
(10.1102 -0.0602413 0.0574757)
(10.305 -0.0496394 0.044457)
(10.3879 0.0546683 -0.0490401)
(10.3522 0.0474784 -0.0712854)
(10.1944 -0.0112322 -0.040751)
(10.1146 -0.0733531 0.0125534)
(10.2086 -0.0649675 0.0630414)
(10.3007 -0.0298876 0.114787)
(10.2918 -0.0287816 0.0499846)
(10.2162 -0.0478297 -0.0335846)
(10.2246 -0.0534627 0.0121099)
(10.2389 0.00251817 0.0318847)
(10.2189 0.00220391 -0.000168501)
(10.3807 0.041307 0.01447)
(10.4059 0.0785512 0.0507871)
(10.2839 0.0749181 -0.0149298)
(10.0788 -0.0170487 -0.114366)
(10.0771 -0.0420123 -0.086044)
(10.222 -0.0315452 -0.0993909)
(10.2371 -0.044009 -0.0951823)
(10.2696 -0.0104808 0.012022)
(10.2754 -0.0243796 0.0846647)
(10.2988 -0.00951703 0.0678513)
(10.2999 0.0309433 0.0311912)
(10.2282 0.00496167 0.00762784)
(10.2012 0.00428837 0.00137585)
(10.3056 0.00575857 -0.013482)
(10.2934 -0.00847459 0.0174521)
(10.217 -0.0226638 0.0352857)
(10.2559 -0.0230139 0.00241428)
(10.2163 -0.0439662 -0.0443769)
(10.2 -0.00380826 -0.0453069)
(10.1639 0.08156 0.0830472)
(10.2738 0.0636392 0.0698087)
(10.2999 0.00493693 -0.0294388)
(10.2734 0.0363473 -0.0313245)
(10.0382 0.00243938 -0.0532083)
(9.98642 0.00850455 -0.0276705)
(10.0398 0.0514155 -0.00580156)
(10.0993 -0.0231451 0.0225474)
(10.0646 -0.0464132 -0.0212603)
(10.1001 -0.0516254 -0.0144982)
(10.1514 -0.0575112 0.0812892)
(10.1954 0.0163598 0.101781)
(10.2044 0.0515787 0.0369772)
(10.2566 0.032198 0.0300873)
(10.2516 -0.0109092 0.0437428)
(10.0997 -0.0043911 -0.0452858)
(10.0884 0.0276039 -0.0202143)
(10.1354 0.0314224 0.0218835)
(10.181 -0.00778624 -0.0950985)
(10.1433 -0.00966592 -0.13748)
(10.0636 -0.0356744 0.0568799)
(10.0847 -0.0592873 0.0832744)
(10.2005 0.0131709 0.0184799)
(10.2118 0.036166 0.0218735)
(10.1546 0.0421798 0.0379007)
(10.1544 0.0397013 -0.0303393)
(10.1369 0.0214775 -0.116938)
(10.0785 0.00384349 -0.00795558)
(10.0772 0.00309363 0.061821)
(10.1639 -0.0246689 -0.00644175)
(10.1285 -0.0272724 -0.0396739)
(10.1273 -0.00777849 -0.0321533)
(10.0785 0.0272314 0.0231186)
(10.1752 -0.01032 0.00309252)
)
;
    }
}


// ************************************************************************* //
