/*--------------------------------*- C++ -*----------------------------------*\
| =========                 |                                                 |
| \\      /  F ield         | OpenFOAM: The Open Source CFD Toolbox           |
|  \\    /   O peration     | Version:  2506                                  |
|   \\  /    A nd           | Website:  www.openfoam.com                      |
|    \\/     M anipulation  |                                                 |
\*---------------------------------------------------------------------------*/
FoamFile
{
    version     2.0;
    format      ascii;
    arch        "LSB;label=32;scalar=64";
    class       volVectorField;
    location    "0.006";
    object      Us;
}
// * * * * * * * * * * * * * * * * * * * * * * * * * * * * * * * * * * * * * //

dimensions      [0 1 -1 0 0 0 0];

internalField   nonuniform List<vector> 
512
(
(0 0 0)
(0 0 0)
(0.133964 -4.4247e-05 -0.0672697)
(0 0 0)
(0 0 0)
(0 0 0)
(0 0 0)
(0 0 0)
(0 0 0)
(0 0 0)
(0 0 0)
(0 0 0)
(0 0 0)
(0 0 0)
(0 0 0)
(0 0 0)
(0 0 0)
(0 0 0)
(0 0 0)
(0 0 0)
(0 0 0)
(0 0 0)
(0 0 0)
(0 0 0)
(0 0 0)
(0.27719 -0.00161289 -0.071619)
(0 0 0)
(0 0 0)
(0 0 0)
(0 0 0)
(0 0 0)
(0 0 0)
(0 0 0)
(0 0 0)
(0 0 0)
(0 0 0)
(0 0 0)
(0 0 0)
(0 0 0)
(0 0 0)
(0 0 0)
(0 0 0)
(0 0 0)
(0 0 0)
(0 0 0)
(0.272059 0.000657594 -0.120429)
(0 0 0)
(0 0 0)
(0 0 0)
(0 0 0)
(0 0 0)
(0 0 0)
(0 0 0)
(0 0 0)
(0 0 0)
(0 0 0)
(0 0 0)
(0 0 0)
(0 0 0)
(0 0 0)
(0 0 0)
(0 0 0)
(0 0 0)
(0 0 0)
(0 0 0)
(0 0 0)
(0.282296 -0.0014709 -0.109831)
(0 0 0)
(0 0 0)
(0.265682 -0.00139345 -0.179488)
(0 0 0)
(0 0 0)
(0 0 0)
(0 0 0)
(0 0 0)
(0 0 0)
(0 0 0)
(0 0 0)
(0 0 0)
(0 0 0)
(0 0 0)
(0.274756 -0.000795684 -0.10913)
(0 0 0)
(0 0 0)
(0 0 0)
(0 0 0)
(0 0 0)
(0 0 0)
(0 0 0)
(0 0 0)
(0 0 0)
(0 0 0)
(0 0 0)
(0 0 0)
(0 0 0)
(0 0 0)
(0 0 0)
(0 0 0)
(0 0 0)
(0 0 0)
(0 0 0)
(0 0 0)
(0 0 0)
(0 0 0)
(0 0 0)
(0.271135 3.9995e-05 -0.170176)
(0 0 0)
(0 0 0)
(0 0 0)
(0 0 0)
(0 0 0)
(0 0 0)
(0 0 0)
(0 0 0)
(0 0 0)
(0 0 0)
(0 0 0)
(0 0 0)
(0 0 0)
(0 0 0)
(0 0 0)
(0.274426 0.000190785 -0.171858)
(0 0 0)
(0 0 0)
(0 0 0)
(0.278804 0.0016524 -0.060764)
(0 0 0)
(0 0 0)
(0 0 0)
(0 0 0)
(0 0 0)
(0 0 0)
(0.270313 -0.00331867 -0.129366)
(0 0 0)
(0 0 0)
(0 0 0)
(0 0 0)
(0 0 0)
(0 0 0)
(0 0 0)
(0 0 0)
(0 0 0)
(0 0 0)
(0 0 0)
(0 0 0)
(0.271438 0.000161205 -0.0285148)
(0.275544 -0.000407995 -0.0580388)
(0 0 0)
(0 0 0)
(0 0 0)
(0.278165 -0.00226265 -0.153735)
(0 0 0)
(0 0 0)
(0 0 0)
(0 0 0)
(0 0 0)
(0 0 0)
(0 0 0)
(0 0 0)
(0 0 0)
(0 0 0)
(0 0 0)
(0.28104 -0.000778417 -0.0376122)
(0 0 0)
(0 0 0)
(0 0 0)
(0.270065 -0.00151917 -0.143635)
(0 0 0)
(0.270916 0.00210342 -0.19256)
(0 0 0)
(0 0 0)
(0 0 0)
(0 0 0)
(0 0 0)
(0 0 0)
(0 0 0)
(0 0 0)
(0 0 0)
(0 0 0)
(0 0 0)
(0 0 0)
(0 0 0)
(0 0 0)
(0 0 0)
(0.281092 -0.0014269 -0.108742)
(0 0 0)
(0 0 0)
(0 0 0)
(0 0 0)
(0 0 0)
(0 0 0)
(0 0 0)
(0 0 0)
(0 0 0)
(0 0 0)
(0 0 0)
(0 0 0)
(0 0 0)
(0 0 0)
(0 0 0)
(0 0 0)
(0 0 0)
(0 0 0)
(0 0 0)
(0 0 0)
(0 0 0)
(0.266004 -0.00113739 -0.0787767)
(0 0 0)
(0 0 0)
(0 0 0)
(0 0 0)
(0 0 0)
(0 0 0)
(0 0 0)
(0 0 0)
(0 0 0)
(0 0 0)
(0 0 0)
(0 0 0)
(0 0 0)
(0 0 0)
(0 0 0)
(0 0 0)
(0 0 0)
(0 0 0)
(0 0 0)
(0 0 0)
(0.259782 -0.00242386 -0.185)
(0 0 0)
(0 0 0)
(0 0 0)
(0 0 0)
(0 0 0)
(0 0 0)
(0 0 0)
(0.198235 0.00153497 -0.0832666)
(0 0 0)
(0 0 0)
(0 0 0)
(0 0 0)
(0 0 0)
(0 0 0)
(0 0 0)
(0 0 0)
(0 0 0)
(0 0 0)
(0 0 0)
(0 0 0)
(0 0 0)
(0 0 0)
(0 0 0)
(0 0 0)
(0.13357 0.000365477 -0.115794)
(0 0 0)
(0 0 0)
(0 0 0)
(0.021022 -4.7477e-05 0.181193)
(0.0992443 -0.000208546 0.0853439)
(0.0504941 -0.000247488 0.0862307)
(0.224492 -0.00552234 0.152729)
(0.012184 9.15001e-05 0.000655896)
(0.145293 0.000242004 0.106499)
(0.00287302 0.00376165 0.0740669)
(0.0790486 -0.0270998 0.0332218)
(0.144937 -0.00191907 0.0693669)
(0.0891561 0.00049647 0.154719)
(0.132864 0.000196091 0.0428055)
(0.121531 0.000133354 0.088188)
(0.0480307 0.000205459 0.0400416)
(0.119443 0.000300503 0.0960004)
(0.140022 -0.00059596 -0.0075113)
(0.105987 -0.000405649 0.0741023)
(0.0542073 0.000584342 -0.0220281)
(0.156751 6.3056e-05 0.166044)
(0.040145 7.73622e-05 0.125802)
(0.0867718 8.34178e-05 0.0173375)
(0.161271 0.000365081 -0.00894322)
(0.122527 0.000621422 0.124542)
(0.0949686 0.000559555 -0.0192276)
(0.00529996 -4.05956e-05 -3.13725e-07)
(0.0546978 -0.000372803 0.0982942)
(0.135873 -0.00106983 0.0074163)
(0.127221 -0.044652 0.0709574)
(0.0664025 0.000469573 0.255401)
(0.142257 0.000554632 0.111958)
(0.136882 0.000115787 0.0760232)
(0.0156226 8.33872e-05 0.0529204)
(0.080943 0.00103196 0.139499)
(0.0871799 -0.0344064 -0.0302137)
(0.176025 -0.00408258 0.101544)
(0.087283 -0.000201311 0.0421976)
(0.174956 0.000243009 0.122949)
(0.0950759 0.000143363 0.0707988)
(0.204209 -0.00071111 0.10643)
(0.217728 -0.00185084 0.0829494)
(0.0932764 -0.00032421 -0.0224834)
(0.0833675 -0.00990054 0.152054)
(0.0798789 0.000282134 0.0381726)
(0.00994541 -8.94394e-05 -0.0118513)
(0.179541 -0.00014358 0.137408)
(0.164973 0.000475126 0.00750835)
(0.108794 0.000328117 0.143106)
(0.129492 -0.000582089 0.104807)
(0.0891058 -0.000723488 0.0465246)
(0.12805 -0.00190782 -0.00183142)
(0.110162 -0.0252696 0.0564321)
(0.165173 -0.00479228 0.0766803)
(0.198407 -0.0796677 0.0596895)
(0.112006 0.000186638 0.0268419)
(0.204193 0.00104317 0.149187)
(0.141198 0.00171271 0.0642308)
(0.275772 0.00225855 0.069985)
(0.195319 -2.23092e-05 -0.015375)
(0.113911 -0.00569253 -0.0148093)
(-0.00322369 0.01683 -0.00377942)
(0.183447 0.00101939 0.150541)
(0.179782 0.00078738 0.0221987)
(0.13839 0.000113732 0.216424)
(0.117857 0.000116561 0.0111848)
(0.180788 0.000394426 0.0680616)
(0.183201 -0.000444658 0.231248)
(0.198551 -0.000716251 0.0324471)
(0.273297 -0.000864654 0.0730986)
(0.118491 -0.0194447 -0.00885816)
(0.271768 -0.000817397 -0.123623)
(0.248055 -0.00167921 0.00404566)
(0.129166 -0.000466448 0.0769417)
(0.054493 0.0410739 0.0204717)
(0.0693165 0.000310427 0.182028)
(0.230191 -8.48483e-05 0.116257)
(0.0821958 0.0335839 -0.0127767)
(0.083233 -2.99935e-06 -0.0192815)
(0.185392 0.000637599 0.0849648)
(0.26513 -0.0184881 0.0172286)
(0.189041 -0.000605344 0.000243791)
(0.151872 -0.000209251 0.0328392)
(0.273113 -0.00103812 -0.103934)
(0.0886107 0.0541547 0.047853)
(0.0776166 -5.67832e-06 0.120701)
(0.0537111 -7.72588e-05 -0.00144651)
(0.204289 0.00072864 0.0974134)
(0.280185 -0.131074 0.00614437)
(0.137223 0.00138839 0.139206)
(0.25796 0.00152537 0.119603)
(0.0815982 -0.0144569 0.112397)
(0.211231 -0.000803479 0.0425248)
(0.192285 -0.000702051 0.0762285)
(0.211505 0.000461923 0.139839)
(0.34831 0.0513021 -1.80976e-07)
(0.00944929 9.57557e-05 0.0845888)
(0.226552 0.00137708 0.0704268)
(0.282953 0.000965413 -0.0584443)
(0.130252 0.38828 0.165878)
(0.283842 -0.000649578 -0.113233)
(0.102462 -0.000441719 0.0538038)
(0.149982 -0.000833088 -0.0383471)
(0.0935832 0.000630226 -0.0657064)
(0.178498 -0.000527429 0.0867703)
(0.194528 5.22873e-06 0.136307)
(0.140853 0.000138831 0.051718)
(0.0738343 0.000343596 0.100565)
(0.25105 0.000201099 -0.00577173)
(0.0220938 4.24957e-05 0.00791247)
(0.203352 -0.0031286 0.00442039)
(0.0813885 0.000312971 -0.0293463)
(0.0444574 -1.38292e-06 0.324117)
(0.122905 0.000123093 0.0687997)
(0.0976248 0.0244933 0.0699099)
(0.0544359 -0.123453 -0.00775689)
(0.251272 -0.000884656 -0.0112561)
(0.124386 -0.000605279 0.0467306)
(0.161343 0.00790948 0.041121)
(0.0855728 0.000355491 0.0375024)
(0.253122 0.00109669 0.113353)
(0.103793 -0.000169364 0.114911)
(0.0497931 -0.000415711 0.327262)
(0.104442 -0.0337977 0.182181)
(0.119298 0.00395089 -0.000865745)
(0.0661968 0.00300415 0.105346)
(0.135642 -0.0159384 0.0704305)
(0.120857 0.000632656 0.0835203)
(0.145713 0.000979178 0.0275114)
(0.228637 0.000816135 0.13543)
(0.273382 -0.000932247 0.213554)
(0.0834158 0.000178881 0.0938958)
(0.112267 0.000490908 0.0291032)
(0.128558 0.00058994 0.104329)
(0.132716 -0.00130314 0.0234792)
(0.138939 -0.00156844 0.0312186)
(0.148746 -0.000807762 0.101018)
(0.169565 -0.000358467 0.0967656)
(0.227869 -3.27514e-05 0.0137869)
(0.126116 0.000472713 0.037727)
(0.230038 0.000890184 0.0460008)
(0.17143 0.0240391 0.0473553)
(0.0488852 -0.00635255 -0.0125802)
(0.109332 -5.72502e-05 0.172892)
(0.267633 -0.000287699 -0.081175)
(0.114183 -0.0105927 0.0525457)
(0.149159 0.000154207 0.159923)
(0.0221567 0.000158405 0.0053764)
(0.136989 0.000175558 0.0481163)
(0.274737 -0.000676778 0.0245812)
(0.141295 8.48565e-06 0.0623012)
(0.108693 -0.0466278 0.0615042)
(0.146473 -0.0264023 0.033017)
(0.277892 -0.00160376 -0.0888226)
(0.144452 0.0100677 0.00963891)
(0.131859 8.26262e-05 0.121904)
(0.0797792 0.0139902 0.0608733)
(0.164964 0.00738596 0.0667158)
(0.128405 0.000622347 -0.00975931)
(0.0571306 -0.000152782 0.147759)
(0.210926 0.000222881 0.151941)
(0.0896128 -8.01416e-05 0.335089)
(0.202363 -0.000197139 0.0368147)
(0.192727 0.00112345 0.0435049)
(-0.00380167 -0.0488845 -0.0107232)
(0.208799 -0.00228954 0.0154035)
(0.0857509 -0.000324111 0.129289)
(0.267398 -0.00175578 -0.0207286)
(0.152821 -0.00103985 -0.0281845)
(0.169442 -0.000699577 0.181051)
(0.121534 -0.0259097 0.12791)
(0.0790186 0.000507048 0.0478951)
(0.269228 0.00229358 0.008482)
(0.0551041 0.000527248 -0.015961)
(0.0101174 -0.000105987 -0.0483318)
(0.171304 0.000173069 0.0731201)
(0.204435 -0.000532682 -0.0179104)
(0.210126 -0.000918052 0.106879)
(0.206644 -0.00129772 -0.0148442)
(0.229048 0.0743946 0.0334371)
(-0.00894151 -0.00813428 0.0115549)
(0.187666 0.00145744 -0.0698064)
(0.134645 0.000461672 0.14482)
(-0.00546293 0.0548996 0.179921)
(0 0 0)
(0.0871187 -0.00097803 0.130691)
(0.240636 -0.00207243 0.150198)
(0.208607 -0.00111978 0.092471)
(0.0826725 -0.0540467 0.167417)
(0 0 0)
(0.13563 0.000538822 0.141245)
(0.173861 -0.0176119 0.0723538)
(0.0292809 -0.0276962 0.0263859)
(0.255338 0.000479482 0.139832)
(0.224511 0.00176321 -0.02676)
(0.0790503 0.000610809 0.0492697)
(0.274932 0.000696523 -0.0542158)
(0.139035 -0.00605124 0.123129)
(0.188943 0.0180749 0.0154873)
(0.140831 -0.00105333 0.0159386)
(0.0931803 -0.000181948 -0.0073671)
(0.181115 4.81828e-05 0.210378)
(0.1021 0.000464621 0.0753968)
(0.134888 0.000613436 0.228901)
(0.18806 0.00106228 0.0224455)
(0.182553 0.00108955 -0.00928752)
(0.0770158 -0.038229 0.0656561)
(0.0785307 0.0003597 0.0747716)
(0.178854 0.000227164 -0.0400404)
(0.118122 -0.000823057 0.0599315)
(0.198903 -0.00252523 0.0359892)
(0.203766 -0.0022862 -0.0148387)
(0.169742 0.000102861 -0.00611166)
(0.0663751 0.000806204 0.0475912)
(0.172453 0.000511226 0.184041)
(0.0163795 -0.000410453 -0.00336093)
(0.148119 -0.000894041 0.0029805)
(0.2227 -0.000682076 -0.00851706)
(0.153815 -0.000277135 0.106195)
(0.054379 -0.0151018 0.114401)
(0.205321 -0.0131046 0.0835209)
(0.19382 0.0116045 0.272556)
(0.060159 0.000256989 0.165315)
(0 0 0)
(0.104154 -0.000552769 0.0661922)
(0.0554982 -4.59938e-05 0.0631114)
(0.0350413 -0.150676 0.0408088)
(0.0236119 -0.146413 2.18431e-07)
(0.0234953 -0.00344393 0.167633)
(0.0552455 0.0332247 0.0637893)
(0.140023 -0.00153909 0.149447)
(0.0633615 -0.00038412 -0.003764)
(0.0945137 -0.000317479 -0.0405009)
(0.255427 0.000119524 -0.0224731)
(0.0151649 -0.00878285 0.00201239)
(0.0824661 -0.015476 0.0365052)
(0.232291 0.0397837 0.0521701)
(0.00627128 8.7884e-05 -0.0258802)
(0.102656 0.000796891 0.124091)
(0.12487 0.000768098 0.00937584)
(0.146271 0.0558989 0.0915407)
(0.160505 -4.49486e-05 -0.00634696)
(0.113541 -0.00140024 0.0775105)
(0.085135 -0.000832541 0.216646)
(0.0424616 1.3603e-05 0.0120386)
(0.0154357 -6.81504e-06 -0.100467)
(0.148899 0.0664672 -0.0545375)
(0.103443 -0.000399989 -0.00304672)
(0.0692883 0.0656754 0.0299789)
(0.0927697 0.000164098 0.05297)
(0.10646 0.0074774 -0.034774)
(0.154807 -0.000312717 0.246784)
(0.0727566 -0.0110512 0.0292593)
(0.0480572 0.000901614 0.0222728)
(0.131016 -0.000465465 0.0192128)
(0.160266 0.0017252 0.27794)
(0.0906948 0.000413289 -0.0388109)
(0.181341 0.0492005 0.0258104)
(0.0268343 5.77846e-06 -0.0362002)
)
;

boundaryField
{
    wall
    {
        type            zeroGradient;
    }
    outlet
    {
        type            cyclic;
    }
    inlet
    {
        type            cyclic;
    }
    procBoundary3to2
    {
        type            processor;
        value           uniform (0 0 0);
    }
}


// ************************************************************************* //
