FoamFile
{version 2.0; format ascii;class Cloud<passiveParticle>; location 0;object  positions;}
2495
(
( -4.59056e-06 -0.0133355 0.00625009 ) 0 
( -0.00749945 -0.0110445 0.00506646 ) 0 
( -0.00223937 -0.00140616 0.00136522 ) 0 
( -0.0100756 -0.0070752 0.00602806 ) 0 
( -0.0114205 -0.00691357 0.00574921 ) 0 
( -0.0110188 -4.84695e-05 0.00343284 ) 0 
( -0.00225502 -0.00266047 0.00749175 ) 0 
( -0.00571024 -0.00363141 0.0080631 ) 0 
( -0.00196839 -0.00297496 0.00189808 ) 0 
( -0.00379157 -0.0047162 0.00611283 ) 0 
( -0.0133491 -0.000157021 0.00746894 ) 0 
( -0.00163114 -0.00415287 0.00124197 ) 0 
( -0.009037 -0.00199414 0.00583807 ) 0 
( -0.0080536 -0.00112939 0.00748878 ) 0 
( -0.0037346 -0.00974739 0.00609093 ) 0 
( -1.28236e-05 -0.0030142 0.00266375 ) 0 
( -0.00186118 -0.00896997 0.00323784 ) 0 
( -0.00118998 -0.000750201 0.00585061 ) 0 
( -0.00444903 -0.00538164 0.00333942 ) 0 
( -0.00777034 -0.00872563 0.00600893 ) 0 
( -0.00389597 -0.00110632 0.000499794 ) 0 
( -0.00649557 -0.0107353 0.00571167 ) 0 
( -0.000731618 -0.00456407 0.0041957 ) 0 
( -0.00604855 -0.00683781 0.00476533 ) 0 
( -0.010153 -0.00325041 0.00328451 ) 0 
( -0.000237778 -0.00918796 0.00215614 ) 0 
( -0.00075936 -0.00713997 0.00209819 ) 0 
( -0.00630817 -0.00547359 0.00146801 ) 0 
( -0.000164846 -0.0111783 0.00505236 ) 0 
( -0.00392938 -0.00567321 0.00131166 ) 0 
( -0.00230369 -0.00645945 0.00568655 ) 0 
( -0.00545084 -0.00451647 0.00847756 ) 0 
( -0.00606856 -0.00887568 0.00546936 ) 0 
( -0.0103627 -0.00671883 0.00122634 ) 0 
( -0.00470208 -0.0098902 0.00632077 ) 0 
( -0.000660872 -0.0115095 0.00198828 ) 0 
( -0.00392829 -0.0127591 0.00597749 ) 0 
( -0.00586516 -0.00897094 0.00337027 ) 0 
( -0.00615558 -0.00733262 0.00203588 ) 0 
( -0.0110353 -0.00546665 0.00214894 ) 0 
( -0.00158914 -0.010055 0.00540976 ) 0 
( -0.0102279 -0.00746147 0.00352928 ) 0 
( -0.00263428 -0.000182545 0.00476388 ) 0 
( -0.008592 -0.000899868 0.00546075 ) 0 
( -0.00472426 -0.00222593 0.00773787 ) 0 
( -0.0117049 -0.00012395 0.00431973 ) 0 
( -0.012651 -0.000304847 0.00281819 ) 0 
( -0.00418816 -0.00464909 0.00269792 ) 0 
( -0.000584003 -0.00674842 0.00836186 ) 0 
( -0.00508394 -0.00873002 0.00572294 ) 0 
( -0.00263056 -0.0105836 0.0035153 ) 0 
( -0.00891006 -0.00942869 0.00491593 ) 0 
( -0.011279 -0.00390003 0.00498662 ) 0 
( -0.00419724 -0.0117772 0.00468628 ) 0 
( -0.00260856 -0.0130924 0.00752535 ) 0 
( -0.00323894 -0.0120704 0.0045803 ) 0 
( -0.00515997 -0.000717571 0.00728642 ) 0 
( -0.00728461 -0.00527649 0.00138141 ) 0 
( -0.00902541 -0.00730875 0.000499846 ) 0 
( -0.00205146 -0.00858842 0.00756112 ) 0 
( -0.0102898 -0.00172226 0.00791041 ) 0 
( -0.00841645 -0.00646504 0.00287491 ) 0 
( -0.00181503 -0.00586191 0.00755754 ) 0 
( -0.00157518 -0.00917396 0.00493697 ) 0 
( -0.00806884 -0.000730058 0.00107931 ) 0 
( -0.00441143 -0.000204299 0.00417719 ) 0 
( -0.00778162 -0.00341391 0.00135617 ) 0 
( -0.00487263 -0.00124666 0.00808532 ) 0 
( -0.0027189 -0.00552321 0.0072973 ) 0 
( -0.000365384 -0.0109894 0.00339678 ) 0 
( -0.0115642 -0.00462858 0.00201599 ) 0 
( -0.00562367 -0.00171361 0.00581915 ) 0 
( -0.00514249 -0.00100423 0.00465573 ) 0 
( -0.00336074 -0.00921975 0.00198498 ) 0 
( -0.00764101 -0.010947 0.000499855 ) 0 
( -0.00858232 -0.00907956 0.00783176 ) 0 
( -0.00393793 -0.00128711 0.00500494 ) 0 
( -0.000829591 -0.00584864 0.00795958 ) 0 
( -0.0109578 -0.00289777 0.000499594 ) 0 
( -0.00432157 -0.0099448 0.00514202 ) 0 
( -0.0121117 -0.00263241 0.00147187 ) 0 
( -0.00372922 -0.0123394 0.00138623 ) 0 
( -0.000232773 -8.65819e-05 0.00879753 ) 0 
( -0.000769067 -0.00902536 0.0012564 ) 0 
( -0.0043526 -0.00732375 0.00683493 ) 0 
( -0.00436768 -0.000572114 0.00669402 ) 0 
( -0.00418343 -0.00992398 0.00408209 ) 0 
( -0.00351373 -0.000570569 0.00442188 ) 0 
( -0.00222169 -0.00669602 0.00270671 ) 0 
( -0.00315944 -0.0101917 0.00427236 ) 0 
( -0.00587616 -0.00132282 0.00380439 ) 0 
( -0.00439785 -0.0106601 0.00688095 ) 0 
( -0.00563286 -0.00257974 0.0080015 ) 0 
( -0.00530707 -0.00691965 0.00124756 ) 0 
( -0.00568056 -0.0108323 0.00730879 ) 0 
( -0.00922675 -0.00310289 0.0006822 ) 0 
( -0.0120229 -0.00577896 0.00709159 ) 0 
( -0.00550464 -0.00602259 0.00308864 ) 0 
( -0.00107208 -0.00752696 0.00486217 ) 0 
( -0.0116101 -0.00659023 0.00667641 ) 0 
( -0.00853135 -0.0102688 0.00656962 ) 0 
( -0.0115114 -0.00337694 0.00118021 ) 0 
( -0.00717852 -0.00231691 0.00785094 ) 0 
( -0.00244402 -0.00357087 0.00125123 ) 0 
( -0.00687272 -0.0083592 0.00576406 ) 0 
( -9.16489e-05 -0.000657475 0.0038957 ) 0 
( -0.00488384 -0.0088862 0.00317778 ) 0 
( -0.00837727 -0.0052787 0.00478259 ) 0 
( -0.00679776 -0.00126424 0.00418775 ) 0 
( -0.00849421 -0.00800441 0.00620637 ) 0 
( -0.00926759 -0.00479992 0.00474599 ) 0 
( -0.00598244 -0.00769365 0.00422787 ) 0 
( -0.00748028 -0.00725885 0.00361085 ) 0 
( -0.0045657 -0.00709251 0.00189588 ) 0 
( -0.00508162 -0.00210812 0.00507435 ) 0 
( -0.0102467 -0.0049646 0.00437886 ) 0 
( -0.00911443 -0.00596752 0.00338988 ) 0 
( -0.00659606 -0.00150515 0.00571538 ) 0 
( -0.00928937 -0.00320157 0.00719742 ) 0 
( -0.00561104 -0.00646307 0.00799701 ) 0 
( -0.00292246 -0.0112101 0.00571777 ) 0 
( -0.0118803 -0.00328977 0.00565911 ) 0 
( -0.00114139 -0.00594387 0.00119702 ) 0 
( -0.0095426 -0.00667988 0.00394586 ) 0 
( -0.00489969 -0.0124186 0.000499647 ) 0 
( -0.00679504 -0.00853351 0.00674548 ) 0 
( -0.00630739 -0.0101633 0.00156406 ) 0 
( -0.00015057 -0.00436517 0.000499715 ) 0 
( -0.00905514 -0.00849676 0.00689435 ) 0 
( -0.0119212 -0.00409923 0.0031217 ) 0 
( -0.00689813 -0.000565956 0.00345494 ) 0 
( -0.000623781 -0.0060204 0.00442377 ) 0 
( -0.00741438 -0.00810106 0.00414693 ) 0 
( -0.00622014 -0.00581684 0.00620708 ) 0 
( -0.00887427 -0.00176841 0.00133587 ) 0 
( -0.00521136 -0.00741471 0.0063307 ) 0 
( -0.00178433 -6.22102e-05 0.00626667 ) 0 
( -0.000295345 -0.0133468 0.000499846 ) 0 
( -0.0124332 -0.000846849 0.000499621 ) 0 
( -0.0060873 -0.00287532 0.00484968 ) 0 
( -0.00286637 -0.0123383 0.00347909 ) 0 
( -0.00210866 -0.00456423 0.00541453 ) 0 
( -8.62777e-05 -0.00897639 0.000499694 ) 0 
( -0.00301632 -0.000910932 0.000933335 ) 0 
( -0.00541172 -0.00716235 0.00731069 ) 0 
( -0.00455535 -0.0108294 0.00326107 ) 0 
( -0.000670993 -0.00288211 0.00428403 ) 0 
( -0.0031324 -0.0101715 0.00218953 ) 0 
( -0.00601346 -0.00906624 0.000499732 ) 0 
( -0.0101384 -0.00347075 0.000499889 ) 0 
( -0.0100779 -0.00332154 0.00439539 ) 0 
( -0.00923346 -0.00776008 0.0028312 ) 0 
( -0.0037487 -0.00472034 0.007351 ) 0 
( -0.00725163 -0.00404566 0.00421018 ) 0 
( -0.00786748 -0.00717667 0.0045292 ) 0 
( -0.00754805 -0.00390765 0.000499787 ) 0 
( -0.00503509 -0.0116252 0.00109293 ) 0 
( -0.00484103 -0.00423645 0.00434733 ) 0 
( -0.00644775 -0.00149048 0.00300065 ) 0 
( -0.00291109 -0.0121548 0.00735259 ) 0 
( -0.00929274 -0.00212197 0.000499663 ) 0 
( -0.00301908 -0.00056656 0.00848075 ) 0 
( -0.00683362 -0.00226046 0.00510437 ) 0 
( -0.00890173 -0.00740919 0.00709606 ) 0 
( -0.00709405 -0.0103173 0.00741014 ) 0 
( -0.00202151 -0.00683794 0.0074942 ) 0 
( -0.00736117 -0.002004 0.00612192 ) 0 
( -0.00130397 -0.00285003 0.00724894 ) 0 
( -0.00690042 -0.00495985 0.00638656 ) 0 
( -0.00712784 -0.0048918 0.00366939 ) 0 
( -0.0133499 -2.86791e-05 0.00553562 ) 0 
( -0.00716219 -0.00289775 0.000499859 ) 0 
( -0.00944052 -0.00206735 0.00674981 ) 0 
( -0.0131788 -0.00213185 0.00136658 ) 0 
( -4.80129e-05 -0.010303 0.00552195 ) 0 
( -0.000841741 -0.0124672 0.00420696 ) 0 
( -0.00591323 -0.0101254 0.00419361 ) 0 
( -0.00498563 -0.00130148 0.00324284 ) 0 
( -0.00944407 -0.00413079 0.00548073 ) 0 
( -8.22984e-05 -0.00491145 0.00722799 ) 0 
( -0.0101027 -0.000740453 0.00788249 ) 0 
( -0.00226723 -0.00751973 0.005601 ) 0 
( -0.00721878 -0.0077703 0.00723308 ) 0 
( -0.00406122 -0.00732854 0.00348368 ) 0 
( -0.00545297 -0.00339218 0.00153437 ) 0 
( -0.000974198 -0.00839013 0.00711836 ) 0 
( -0.00874261 -0.00919215 0.00105369 ) 0 
( -0.00168474 -0.00557301 0.00303581 ) 0 
( -0.00257182 -0.0105309 0.000499789 ) 0 
( -0.00475938 -0.00386021 0.00877793 ) 0 
( -0.00838246 -0.0101583 0.00419067 ) 0 
( -0.00261609 -0.0100027 0.00135005 ) 0 
( -0.00307949 -0.00590673 0.00510397 ) 0 
( -0.00878918 -0.00607174 0.000499752 ) 0 
( -0.000993863 -0.00306565 0.00632317 ) 0 
( -0.00610221 -0.00250239 0.00192543 ) 0 
( -0.010135 -0.00069298 0.00502228 ) 0 
( -0.00233411 -0.00955954 0.000499547 ) 0 
( -0.00742395 -0.00658666 0.00287224 ) 0 
( -0.00256512 -0.00642703 0.00438886 ) 0 
( -0.00709126 -0.000321411 0.0044675 ) 0 
( -0.00941515 -0.00137511 0.00514988 ) 0 
( -0.0019028 -0.0122357 0.000499845 ) 0 
( -0.00639369 -0.0110474 0.00202667 ) 0 
( -0.0121339 -0.00350964 0.00195126 ) 0 
( -0.00895704 -0.0058993 0.00631211 ) 0 
( -0.00591506 -0.00328366 0.00714842 ) 0 
( -0.00658751 -0.0032566 0.00269653 ) 0 
( -0.00939764 -0.00827486 0.00049986 ) 0 
( -0.0113387 -0.00546868 0.00470869 ) 0 
( -0.00769953 -0.00104211 0.0038169 ) 0 
( -0.00261783 -0.00770979 0.00761026 ) 0 
( -0.00298506 -0.00711648 0.00498125 ) 0 
( -0.00287391 -0.0111467 0.00446398 ) 0 
( -0.00110459 -0.00491879 0.000499679 ) 0 
( -0.00242496 -0.00970909 0.00498057 ) 0 
( -0.000634153 -0.000875204 0.000499851 ) 0 
( -0.00016495 -0.00802314 0.00411779 ) 0 
( -0.0055956 -0.00950757 0.00608753 ) 0 
( -0.00684734 -0.00448395 0.000920097 ) 0 
( -0.0083322 -0.00534028 0.00108985 ) 0 
( -0.00912304 -0.00555738 0.00538737 ) 0 
( -0.012206 -0.0054073 0.000881653 ) 0 
( -0.00308333 -0.0129891 0.00420724 ) 0 
( -0.000452557 -0.00365433 0.00171377 ) 0 
( -0.00165199 -0.00400217 0.00762714 ) 0 
( -0.0013874 -0.00373921 0.00409468 ) 0 
( -0.0118036 -0.0011736 0.00677622 ) 0 
( -0.0045212 -0.00484604 0.00831401 ) 0 
( -0.00588856 -0.00536401 0.00703482 ) 0 
( -0.00165865 -0.00971468 0.00134344 ) 0 
( -0.00112561 -0.00215872 0.00502218 ) 0 
( -0.0104233 -0.00224533 0.00679279 ) 0 
( -0.00577157 -0.00431011 0.00291693 ) 0 
( -8.55799e-06 -0.00739757 0.00717928 ) 0 
( -0.00473626 -0.00343663 0.00340114 ) 0 
( -0.00451152 -0.00665876 0.00409942 ) 0 
( -0.0103604 -0.00706246 0.00216526 ) 0 
( -0.00102174 -0.0117497 0.00535936 ) 0 
( -0.00455296 -0.0072642 0.00781259 ) 0 
( -0.0100177 -0.00579935 0.00387243 ) 0 
( -0.00358106 -0.00935396 0.00464522 ) 0 
( -0.00751549 -0.00986597 0.00378317 ) 0 
( -0.00860046 -0.00863121 0.00543363 ) 0 
( -0.00902049 -0.000666405 0.00456093 ) 0 
( -0.0132761 -0.00120267 0.0044623 ) 0 
( -0.00509181 -0.0117131 0.00424403 ) 0 
( -0.00658854 -0.000602752 0.0052849 ) 0 
( -0.00409057 -0.0118312 0.000499754 ) 0 
( -0.00633123 -0.00579249 0.00782204 ) 0 
( -0.00402946 -0.00232664 0.00133764 ) 0 
( -0.00202595 -0.0103442 0.00208144 ) 0 
( -0.00475609 -0.00460199 0.00587503 ) 0 
( -0.00194713 -0.00263301 0.00874928 ) 0 
( -0.00824787 -0.0031934 0.000499713 ) 0 
( -0.00295339 -0.00658842 0.00706504 ) 0 
( -0.00270411 -0.0122748 0.00207416 ) 0 
( -0.00503817 -0.00183828 0.00410834 ) 0 
( -0.0114243 -0.00481319 0.00547932 ) 0 
( -0.00222548 -0.00562343 0.000499767 ) 0 
( -0.010883 -0.00173781 0.00390191 ) 0 
( -0.0121703 -0.00548656 0.00803646 ) 0 
( -0.00282611 -0.0112284 0.00215174 ) 0 
( -0.00479081 -0.00651442 0.00644519 ) 0 
( -0.00144064 -0.00710204 0.00320522 ) 0 
( -0.00777143 -0.00435403 0.00312152 ) 0 
( -0.00928185 -0.000963127 0.00176586 ) 0 
( -0.010801 -0.00567976 0.00552574 ) 0 
( -0.0105857 -0.00156798 0.00519786 ) 0 
( -0.00573233 -0.00747476 0.00546813 ) 0 
( -0.00309905 -0.00296807 0.00705259 ) 0 
( -0.000722122 -0.0099288 0.000830754 ) 0 
( -0.00482341 -0.0124482 0.00510109 ) 0 
( -0.00615768 -0.000752308 0.00723799 ) 0 
( -0.010088 -0.000124612 0.00306753 ) 0 
( -0.00431221 -0.00205566 0.00345544 ) 0 
( -0.00612481 -0.00564099 0.000499642 ) 0 
( -0.0132733 -0.00143009 0.000499856 ) 0 
( -0.00272194 -0.00876879 0.00480838 ) 0 
( -0.00793867 -0.00947514 0.00514751 ) 0 
( -0.00813594 -0.00405988 0.00735349 ) 0 
( -0.00248837 -0.000931673 0.00659021 ) 0 
( -0.00556799 -0.00421903 0.00540966 ) 0 
( -0.000325256 -0.00185448 0.002226 ) 0 
( -0.00340026 -0.000936374 0.00715707 ) 0 
( -0.0110214 -0.00566041 0.00372316 ) 0 
( -0.000528262 -0.00346683 0.00711721 ) 0 
( -0.00882607 -0.000156219 0.00139054 ) 0 
( -0.00327523 -0.00493988 0.0034067 ) 0 
( -0.00577627 -0.00802451 0.00303575 ) 0 
( -0.00128982 -0.00218179 0.00392827 ) 0 
( -0.00940604 -0.00947376 0.00174661 ) 0 
( -0.000935824 -0.00531125 0.00194348 ) 0 
( -0.00398256 -0.00941257 0.00314723 ) 0 
( -0.00896734 -0.001243 0.00709906 ) 0 
( -0.000416526 -0.00252558 0.0057109 ) 0 
( -0.00187488 -0.00148463 0.00602511 ) 0 
( -0.00552558 -0.0088002 0.00206794 ) 0 
( -0.00398882 -0.00642922 0.00744522 ) 0 
( -0.00912594 -0.00286213 0.00165861 ) 0 
( -0.0113934 -0.00695815 0.0014953 ) 0 
( -0.0073351 -0.00346242 0.00739466 ) 0 
( -0.0102963 -0.000182481 0.00411094 ) 0 
( -0.00429 -0.0117253 0.00361715 ) 0 
( -0.00249749 -0.00213278 0.00200169 ) 0 
( -0.00812095 -0.00178123 0.00549877 ) 0 
( -0.00846449 -0.00645408 0.00563955 ) 0 
( -0.00131009 -0.00408578 0.00504961 ) 0 
( -0.00350716 -0.00671961 0.00422556 ) 0 
( -0.0127346 -0.00398821 0.00399762 ) 0 
( -0.00584422 -0.000911156 0.00142295 ) 0 
( -0.00797986 -0.00897822 0.00428077 ) 0 
( -0.0131903 -0.00199971 0.00335676 ) 0 
( -0.00784284 -0.00193954 0.00339382 ) 0 
( -0.00444899 -0.00789639 0.0012616 ) 0 
( -0.0100102 -0.00501382 0.00182041 ) 0 
( -0.00454873 -0.0125513 0.00411763 ) 0 
( -0.0110175 -0.000893218 0.00178804 ) 0 
( -0.0115997 -0.0064603 0.00266613 ) 0 
( -0.00721575 -0.00591346 0.00618466 ) 0 
( -0.00263556 -0.00751781 0.00075576 ) 0 
( -0.00511919 -0.00150805 0.00107423 ) 0 
( -0.00352636 -0.00731522 0.00744235 ) 0 
( -0.000231265 -0.00528648 0.000879498 ) 0 
( -0.00752254 -0.000711272 0.00572644 ) 0 
( -0.00229887 -0.0122956 0.00432435 ) 0 
( -0.00617685 -0.0118351 0.00298915 ) 0 
( -0.0117603 -0.00210043 0.00358769 ) 0 
( -0.00574118 -0.00396346 0.00399985 ) 0 
( -0.00739936 -0.00121275 0.0028694 ) 0 
( -0.000163006 -0.000257675 0.00122935 ) 0 
( -0.00394473 -0.00352866 0.00275624 ) 0 
( -0.00353425 -2.21874e-05 0.00674833 ) 0 
( -0.00720523 -0.000294169 0.000750995 ) 0 
( -0.00291225 -0.0123276 0.000499676 ) 0 
( -0.00244373 -0.0037524 0.00450002 ) 0 
( -0.00190623 -0.00807828 0.00485434 ) 0 
( -0.0122374 -0.00235102 0.00530714 ) 0 
( -0.00758322 -0.00321269 0.00261577 ) 0 
( -0.00824474 -0.0105001 0.00116006 ) 0 
( -0.00899592 -0.00746197 0.00538052 ) 0 
( -0.000412164 -0.00375603 0.00470622 ) 0 
( -0.00764503 -0.00844035 0.00505886 ) 0 
( -0.00550217 -0.00827161 0.00490884 ) 0 
( -0.00657086 -0.00573196 0.00373557 ) 0 
( -0.00341358 -0.00341926 0.00459786 ) 0 
( -0.00437807 -0.0116193 0.00655202 ) 0 
( -0.00136413 -0.00179408 0.00172321 ) 0 
( -0.000428303 -0.0126256 0.00281551 ) 0 
( -0.000467657 -0.00374615 0.00368459 ) 0 
( -0.00871741 -0.00234678 0.00365693 ) 0 
( -0.00330907 -0.0112075 0.000499503 ) 0 
( -0.00717233 -0.00102363 0.00144208 ) 0 
( -0.00501526 -0.0105606 0.00411865 ) 0 
( -0.00235087 -0.00387646 0.00836405 ) 0 
( -0.00917998 -0.00581719 0.00441814 ) 0 
( -0.00719967 -0.00401966 0.00194797 ) 0 
( -0.00354867 -0.00256809 0.00218032 ) 0 
( -0.00212172 -0.00061686 0.00550609 ) 0 
( -0.0117569 -0.00416207 0.00616155 ) 0 
( -0.00581972 -0.00137637 0.00837796 ) 0 
( -0.00680156 -0.00235933 0.0033468 ) 0 
( -0.00219185 -0.0131568 0.00611219 ) 0 
( -0.00508473 -0.00147223 0.00663487 ) 0 
( -0.00528529 -0.000509049 0.00379839 ) 0 
( -0.00312247 -0.00777615 0.0066525 ) 0 
( -0.0104105 -0.00251062 0.00261816 ) 0 
( -0.00279567 -0.00688116 0.00351766 ) 0 
( -0.000897445 -0.00146807 0.00874562 ) 0 
( -0.00999044 -0.00559874 0.000499604 ) 0 
( -0.00321328 -0.00430715 0.00418378 ) 0 
( -0.0102724 -0.00711975 0.00446911 ) 0 
( -4.73408e-05 -0.00675272 0.00545813 ) 0 
( -0.0125426 -0.00457234 0.00221502 ) 0 
( -0.0103669 -0.0076845 0.00529078 ) 0 
( -0.00123552 -0.00923931 0.00211455 ) 0 
( -0.00650457 -0.00695568 0.00117808 ) 0 
( -0.0106309 -0.00807512 0.00440513 ) 0 
( -0.00831476 -0.00847831 0.000499666 ) 0 
( -0.00121884 -0.0047111 0.00585497 ) 0 
( -0.00475308 -0.00229324 0.00617047 ) 0 
( -0.00762523 -0.00495075 0.000499624 ) 0 
( -0.00105142 -0.00158034 0.00316151 ) 0 
( -0.0102125 -0.00738846 0.000499436 ) 0 
( -0.00289143 -0.00188131 0.0075241 ) 0 
( -0.000654902 -0.0127095 0.00549779 ) 0 
( -0.00647737 -0.0108705 0.00455032 ) 0 
( -0.0031804 -0.00621732 0.0016897 ) 0 
( -0.000407587 -0.00248065 0.00700563 ) 0 
( -0.0114685 -0.00329042 0.00657038 ) 0 
( -0.012833 -0.00358809 0.000499687 ) 0 
( -0.00436242 -0.00663876 0.00102845 ) 0 
( -0.00774865 -0.00908856 0.00108267 ) 0 
( -0.00521679 -0.00242286 0.00146769 ) 0 
( -0.00418572 -0.0111048 0.00118026 ) 0 
( -0.00306223 -0.007043 0.00597547 ) 0 
( -0.00613377 -0.00305618 0.00384915 ) 0 
( -0.00847653 -0.00744275 0.0013677 ) 0 
( -0.00774906 -0.00628086 0.00496196 ) 0 
( -0.00885367 -0.00160135 0.00268942 ) 0 
( -0.007128 -0.000751725 0.00747766 ) 0 
( -0.0070913 -0.00583295 0.00717373 ) 0 
( -0.00585379 -0.00729556 0.000499652 ) 0 
( -0.00741081 -0.00414823 0.0066708 ) 0 
( -0.0052986 -0.00835256 0.00391476 ) 0 
( -0.0074155 -0.00197638 0.00117035 ) 0 
( -0.00531133 -0.00538541 0.0038457 ) 0 
( -0.00998094 -0.00128196 0.00705091 ) 0 
( -0.00327408 -0.00169247 0.00150089 ) 0 
( -2.38063e-06 -0.00563787 0.00178716 ) 0 
( -0.00570008 -0.00227109 0.00340691 ) 0 
( -0.00391326 -0.0081768 0.0071148 ) 0 
( -0.00557788 -0.0108426 0.001486 ) 0 
( -0.0111513 -0.00187021 0.00282097 ) 0 
( -0.00988986 -0.00590048 0.00593697 ) 0 
( -0.00333417 -0.00421937 0.000499794 ) 0 
( -0.00106262 -0.00121791 0.00680347 ) 0 
( -0.0114834 -0.00280366 0.00223086 ) 0 
( -0.00319909 -0.00429608 0.00219525 ) 0 
( -0.0131593 -0.0019697 0.0058771 ) 0 
( -0.00952313 -0.00249982 0.00308485 ) 0 
( -0.00017001 -0.0110048 0.00622498 ) 0 
( -7.91936e-05 -0.000288096 0.00782801 ) 0 
( -0.0114905 -0.00185338 0.00155479 ) 0 
( -0.00128218 -0.00977208 0.00752501 ) 0 
( -0.00124404 -0.00405351 0.00670715 ) 0 
( -0.00507123 -0.000709162 0.00205465 ) 0 
( -0.00616876 -0.00561432 0.0047705 ) 0 
( -0.0100053 -0.00263625 0.00761904 ) 0 
( -0.0116547 -0.00180355 0.00453673 ) 0 
( -0.00483703 -0.00694382 0.00553198 ) 0 
( -0.000342014 -0.00651015 0.00143554 ) 0 
( -0.00871286 -0.000575968 0.00639902 ) 0 
( -0.00184732 -0.0023986 0.00109006 ) 0 
( -0.0115483 -0.000496336 0.00271246 ) 0 
( -0.0113561 -0.00504475 0.000499728 ) 0 
( -0.00751008 -0.00894918 0.00338296 ) 0 
( -0.00493509 -5.29346e-05 0.00600715 ) 0 
( -0.00344502 -0.00199875 0.000499833 ) 0 
( -0.00066476 -0.0114788 0.00421845 ) 0 
( -0.00358997 -0.00330805 0.00132344 ) 0 
( -0.0118044 -0.000649445 0.00516569 ) 0 
( -0.00141277 -0.00626973 0.00210251 ) 0 
( -0.00410988 -0.00428141 0.00512699 ) 0 
( -0.00211287 -0.0124877 0.00685081 ) 0 
( -0.0119279 -0.00279726 0.00446482 ) 0 
( -0.00823879 -0.000674363 0.00294316 ) 0 
( -0.000843514 -0.0118636 0.00331228 ) 0 
( -0.00147037 -0.00168526 0.00049959 ) 0 
( -0.00786013 -0.00440935 0.00130643 ) 0 
( -0.00182376 -0.0112252 0.000499664 ) 0 
( -0.00137309 -0.011062 0.00358951 ) 0 
( -0.00077049 -0.0133255 0.00364794 ) 0 
( -0.00376729 -0.00837154 0.00475662 ) 0 
( -0.0113328 -0.00505984 0.00700904 ) 0 
( -0.00476339 -0.00126955 0.00556902 ) 0 
( -0.00332689 -0.00382953 0.00659655 ) 0 
( -0.00781687 -0.000279005 0.0080264 ) 0 
( -0.0125322 -0.000542947 0.00388891 ) 0 
( -0.00988732 -0.00221999 0.00489858 ) 0 
( -0.00302006 -0.0091856 0.00566703 ) 0 
( -0.00530056 -0.00402164 0.00683328 ) 0 
( -0.00426958 -0.00891533 0.00397895 ) 0 
( -0.00512127 -0.00601356 0.00725014 ) 0 
( -0.00201716 -0.00344216 0.0068749 ) 0 
( -0.00652283 -0.00157859 0.00766645 ) 0 
( -0.00361763 -0.0104856 0.00338863 ) 0 
( -0.00428338 -0.00118613 0.00403458 ) 0 
( -0.00191653 -0.00459669 0.00440398 ) 0 
( -0.000232974 -0.00227277 0.00808772 ) 0 
( -0.0130509 -0.00277019 0.00269031 ) 0 
( -0.010366 -0.0040174 0.00757298 ) 0 
( -0.00164521 -0.0132483 0.00412636 ) 0 
( -0.00655518 -0.00756055 0.00640528 ) 0 
( -0.0083895 -0.000320056 0.00386687 ) 0 
( -0.00408473 -0.00901429 0.00545372 ) 0 
( -0.00408506 -0.00294099 0.00653681 ) 0 
( -0.00132824 -0.00214529 0.00653997 ) 0 
( -0.00450887 -0.00311801 0.00171614 ) 0 
( -0.00499468 -0.00874822 0.00122241 ) 0 
( -0.000413758 -0.0119693 0.00612513 ) 0 
( -0.00643505 -0.00409595 0.00688241 ) 0 
( -0.0109866 -0.00414393 0.00679938 ) 0 
( -0.0122096 -0.00193806 0.00727689 ) 0 
( -0.000787937 -0.0124246 0.000499847 ) 0 
( -0.00752393 -0.00260441 0.00691226 ) 0 
( -0.00480818 -0.00488291 0.00695812 ) 0 
( -0.0108515 -0.002383 0.0046833 ) 0 
( -0.0056238 -0.00330464 0.00295892 ) 0 
( -0.00219533 -0.00198066 0.00430174 ) 0 
( -0.00597119 -0.000614843 0.00307844 ) 0 
( -0.00845112 -0.00437282 0.000499844 ) 0 
( -0.00246513 -0.00301116 0.00517089 ) 0 
( -0.0029671 -0.00944804 0.00666328 ) 0 
( -0.000106697 -0.00992542 0.00312408 ) 0 
( -0.00484017 -0.011621 0.005665 ) 0 
( -0.000904906 -0.00246616 0.00880237 ) 0 
( -0.00518065 -0.00282671 0.00405734 ) 0 
( -0.00255874 -0.00199001 0.0054783 ) 0 
( -0.00798031 -0.00745134 0.000499656 ) 0 
( -0.0060478 -0.000573624 0.00444429 ) 0 
( -0.00231767 -0.0131473 0.000499847 ) 0 
( -0.0102462 -0.00497225 0.00335896 ) 0 
( -0.00838689 -0.00263455 0.00275646 ) 0 
( -0.00286071 -0.000191348 0.00602835 ) 0 
( -0.000249137 -0.0108933 0.00131724 ) 0 
( -0.00353654 -0.000735093 0.00176885 ) 0 
( -0.0125902 -0.00435939 0.00558541 ) 0 
( -0.00929911 -0.00175981 0.00421998 ) 0 
( -0.010509 -0.00573673 0.00134289 ) 0 
( -0.00962521 -0.003147 0.00528892 ) 0 
( -0.0105889 -0.00320284 0.00703758 ) 0 
( -0.00550314 -0.00437537 0.00135971 ) 0 
( -0.00731157 -0.0016373 0.00705132 ) 0 
( -0.00595051 -0.00462037 0.000499695 ) 0 
( -0.00548544 -0.000776392 0.000499624 ) 0 
( -0.00223849 -0.00954568 0.00734096 ) 0 
( -0.00224254 -0.00579671 0.00180662 ) 0 
( -0.0105091 -0.00168828 0.00145783 ) 0 
( -0.00106155 -0.00477494 0.0073748 ) 0 
( -0.003611 -0.00518434 0.000499587 ) 0 
( -0.00535728 -0.011276 0.0028635 ) 0 
( -0.0068016 -0.00786003 0.00148369 ) 0 
( -0.00607288 -0.00798739 0.00717002 ) 0 
( -0.000861491 -0.00757689 0.00768909 ) 0 
( -0.0131231 -0.00245169 0.00780331 ) 0 
( -0.00624503 -0.0098509 0.00531784 ) 0 
( -0.00119078 -0.00681907 0.00416601 ) 0 
( -0.00706486 -0.0032968 0.00357433 ) 0 
( -0.000629006 -0.00496241 0.00837634 ) 0 
( -0.0095266 -0.000285842 0.00582252 ) 0 
( -0.00447786 -0.000391593 0.00518482 ) 0 
( -0.0129506 -0.00321829 0.00650958 ) 0 
( -0.00441822 -0.000834552 0.00130789 ) 0 
( -0.00364165 -0.00212587 0.00690988 ) 0 
( -0.0123933 -0.00190472 0.000499843 ) 0 
( -0.0114846 -0.00027418 0.00647767 ) 0 
( -0.00626527 -6.14603e-05 0.000499842 ) 0 
( -0.000814388 -0.0101597 0.00379056 ) 0 
( -0.000844552 -0.00823781 0.00336217 ) 0 
( -0.00673797 -0.0115251 0.000499953 ) 0 
( -0.00371492 -0.00984643 0.00129092 ) 0 
( -0.00138199 -0.00925471 0.000499774 ) 0 
( -0.00938223 -0.00385372 0.00643954 ) 0 
( -0.00348666 -0.0128868 0.00218699 ) 0 
( -0.0108 -0.00618882 0.000499817 ) 0 
( -0.00815255 -0.00212742 0.000499859 ) 0 
( -0.00921168 -0.00328641 0.00362004 ) 0 
( -0.00521991 -0.00561829 0.00633654 ) 0 
( -0.00211152 -0.00784324 0.00318443 ) 0 
( -0.00647993 -0.0024305 0.00714469 ) 0 
( -0.00774828 -0.0107527 0.00199034 ) 0 
( -0.00232358 -0.0104806 0.00699673 ) 0 
( -0.0127521 -0.00293662 0.00363083 ) 0 
( -0.00685236 -0.0099439 0.00452873 ) 0 
( -0.00349335 -0.010676 0.00740596 ) 0 
( -0.00830642 -0.00603936 0.0039753 ) 0 
( -0.0038638 -0.00618323 0.00346095 ) 0 
( -0.0031084 -0.00107269 0.00361925 ) 0 
( -0.00710313 -0.00313419 0.00459748 ) 0 
( -0.00522439 -0.0105444 0.00572028 ) 0 
( -0.00446911 -0.00313551 0.00530863 ) 0 
( -0.00433603 -0.000308631 0.0076774 ) 0 
( -0.00565238 -0.00477892 0.00457181 ) 0 
( -0.0114799 -0.00596618 0.00140556 ) 0 
( -0.00680208 -0.00741319 0.00544764 ) 0 
( -0.00256481 -0.00299852 0.00616577 ) 0 
( -0.0106941 -0.000991748 0.000499798 ) 0 
( -0.00813574 -0.0105845 0.00332001 ) 0 
( -0.00356635 -0.0110403 0.00647713 ) 0 
( -0.00153663 -0.00816008 0.00627334 ) 0 
( -0.00313152 -0.00340927 0.00794923 ) 0 
( -0.00229669 -0.00843983 0.00396527 ) 0 
( -0.00590222 -0.0103919 0.00643923 ) 0 
( -0.010039 -0.00414915 0.00131918 ) 0 
( -0.00102198 -0.00387494 0.000499654 ) 0 
( -0.00802734 -0.0014559 0.00176549 ) 0 
( -0.00437554 -0.00335155 0.00433339 ) 0 
( -0.00106955 -0.00840964 0.00533706 ) 0 
( -0.00824396 -0.00810191 0.00208271 ) 0 
( -0.00756187 -0.00473528 0.00498147 ) 0 
( -0.0051563 -0.000165798 0.00121962 ) 0 
( -0.00101187 -9.69478e-05 0.00817082 ) 0 
( -0.00137104 -0.0032159 0.00817706 ) 0 
( -0.00206857 -0.00759288 0.00179015 ) 0 
( -0.0108847 -0.00767858 0.00614718 ) 0 
( -0.00598918 -0.00146492 0.00492175 ) 0 
( -0.00136852 -0.00717403 0.00587004 ) 0 
( -0.00174325 -0.00514637 0.00123443 ) 0 
( -0.00076677 -0.00923319 0.00341756 ) 0 
( -0.0013389 -0.0122269 0.00214766 ) 0 
( -0.00996343 -0.00410799 0.00377477 ) 0 
( -0.00357965 -0.00852045 0.00616146 ) 0 
( -0.00451267 -0.00568425 0.000499716 ) 0 
( -0.00491477 -0.00260444 0.00287612 ) 0 
( -0.00790098 -0.0107139 0.00592735 ) 0 
( -0.0054445 -0.00701398 0.00274882 ) 0 
( -0.00838696 -0.00908644 0.00198207 ) 0 
( -0.00599995 -0.00841228 0.00125565 ) 0 
( -0.0026743 -0.011454 0.00665531 ) 0 
( -0.00142432 -0.0100371 0.00651077 ) 0 
( -0.00163613 -0.0123481 0.0059186 ) 0 
( -0.0108972 -0.00390203 0.00176898 ) 0 
( -0.00473454 -0.00514982 0.00474151 ) 0 
( -3.99341e-05 -0.00939625 0.00594348 ) 0 
( -0.0024346 -0.00441694 0.00356605 ) 0 
( -0.00107685 -0.0123837 0.00675268 ) 0 
( -0.0110407 -0.003967 0.000499777 ) 0 
( -0.00291124 -0.008095 0.00159775 ) 0 
( -0.00612787 -0.00363647 0.000499681 ) 0 
( -0.00816613 -0.00808464 0.00714759 ) 0 
( -0.00962588 -0.00123601 0.0061174 ) 0 
( -0.00822163 -0.00373307 0.0043726 ) 0 
( -0.00398252 -0.00728237 0.0049015 ) 0 
( -0.0025357 -0.00565355 0.00847175 ) 0 
( -0.0101378 -0.00606514 0.00221131 ) 0 
( -0.00585028 -0.00890982 0.0068547 ) 0 
( -0.00172863 -0.0013629 0.0049687 ) 0 
( -0.00672252 -0.0115339 0.00377983 ) 0 
( -0.00654459 -0.00829869 0.00366408 ) 0 
( -0.00190821 -0.00158794 0.00719059 ) 0 
( -0.00530785 -0.0052555 0.00092765 ) 0 
( -0.00219864 -0.00155116 0.00335167 ) 0 
( -0.00757427 -0.0067334 0.00106468 ) 0 
( -0.00822908 -0.00907678 0.00689602 ) 0 
( -0.0038403 -0.0117157 0.00741014 ) 0 
( -0.000680465 -0.00936988 0.00671096 ) 0 
( -0.00379161 -0.00657777 0.00647647 ) 0 
( -0.000684619 -0.0105468 0.00694959 ) 0 
( -1.76306e-05 -0.00789168 0.000499717 ) 0 
( -0.0100737 -0.00587531 0.00486791 ) 0 
( -0.00945746 -0.00530471 0.00728736 ) 0 
( -0.0101298 -0.00325628 0.00614958 ) 0 
( -0.00554466 -0.0110023 0.000499682 ) 0 
( -0.0040022 -0.00591616 0.00455702 ) 0 
( -0.00215806 -0.000366798 0.00132998 ) 0 
( -0.0106249 -0.00315756 0.00527361 ) 0 
( -0.00249816 -0.00504109 0.00278461 ) 0 
( -0.00699578 -0.00672362 0.00672957 ) 0 
( -0.0124153 -0.00137604 0.0032544 ) 0 
( -0.0053412 -0.00780848 0.00170406 ) 0 
( -0.00957576 -0.0060928 0.00138486 ) 0 
( -0.00765474 -0.00336211 0.00609889 ) 0 
( -0.00883591 -0.00420617 0.00374111 ) 0 
( -0.0067475 -0.0105048 0.00365922 ) 0 
( -0.00530985 -0.0122486 0.00342703 ) 0 
( -0.0100762 -0.00500565 0.00536333 ) 0 
( -0.00327793 -0.00247007 0.00495514 ) 0 
( -0.00112197 -0.0116077 0.00110027 ) 0 
( -0.00585787 -0.000703085 0.00628542 ) 0 
( -0.00727344 -0.00804483 0.0030281 ) 0 
( -0.00329854 -0.00336797 0.00559291 ) 0 
( -0.00359407 -0.00466726 0.00135509 ) 0 
( -0.00242903 -0.00464442 0.000499857 ) 0 
( -0.00218462 -0.00957552 0.00605422 ) 0 
( -0.00455701 -0.00951471 0.00171577 ) 0 
( -0.0133094 -0.0009577 0.00341497 ) 0 
( -0.00832519 -0.00352535 0.00320881 ) 0 
( -0.0106528 -0.00650388 0.00728535 ) 0 
( -0.00308243 -0.00837476 0.000499689 ) 0 
( -0.0109626 -0.00383441 0.00322634 ) 0 
( -0.00762724 -0.00375759 0.00518094 ) 0 
( -0.0091714 -0.00478689 0.00282717 ) 0 
( -0.011648 -0.00102918 0.00379369 ) 0 
( -0.00627443 -0.0117837 0.00135646 ) 0 
( -0.00699041 -0.00759259 0.000499835 ) 0 
( -0.00818518 -0.00147252 0.00651266 ) 0 
( -0.00698039 -0.00899815 0.00423017 ) 0 
( -0.0103124 -0.00465222 0.000499674 ) 0 
( -0.00885295 -0.00861663 0.00317978 ) 0 
( -0.0112657 -0.00246599 0.00560826 ) 0 
( -0.00742999 -0.00123536 0.000499573 ) 0 
( -0.0109543 -0.00763064 0.00286319 ) 0 
( -0.00197345 -0.00310885 0.00358563 ) 0 
( -0.0122583 -0.00375316 0.00484803 ) 0 
( -0.000304665 -0.000522215 0.00639688 ) 0 
( -0.00317237 -0.00572401 0.00401867 ) 0 
( -0.00733 -0.00139614 0.00502379 ) 0 
( -0.00910219 -0.00481542 0.00145199 ) 0 
( -0.00778903 -0.00593703 0.000499692 ) 0 
( -0.00917535 -0.00289345 0.00625275 ) 0 
( -0.000952144 -0.00265516 0.00202073 ) 0 
( -0.00291184 -0.00600127 0.00305683 ) 0 
( -0.00810664 -0.00289069 0.00767267 ) 0 
( -0.00538794 -0.00818024 0.000499711 ) 0 
( -0.00177367 -0.000894576 0.00208725 ) 0 
( -0.000700634 -0.00967931 0.00509137 ) 0 
( -0.0088217 -0.0100203 0.000499586 ) 0 
( -0.00136291 -0.00690902 0.00133528 ) 0 
( -0.00305846 -0.00424592 0.00517904 ) 0 
( -0.00291523 -0.00505666 0.00574639 ) 0 
( -0.00308562 -0.00806513 0.00542088 ) 0 
( -0.0101404 -0.0041305 0.00274045 ) 0 
( -0.0119699 -0.00156956 0.00587146 ) 0 
( -0.00379646 -0.000640808 0.00587616 ) 0 
( -0.00515331 -0.00733633 0.00466064 ) 0 
( -0.00146894 -0.00827198 0.0022133 ) 0 
( -0.00813307 -0.00499862 0.00206657 ) 0 
( -0.00340928 -0.00696879 0.00107122 ) 0 
( -0.00225183 -0.00710556 0.00655857 ) 0 
( -0.0108748 -0.0077438 0.00115855 ) 0 
( -0.0058152 -0.0120169 0.000499734 ) 0 
( -0.00170889 -0.00465375 0.00210383 ) 0 
( -0.00713778 -0.0112819 0.0014013 ) 0 
( -0.0077363 -0.00809865 0.00122129 ) 0 
( -0.00134811 -0.00874043 0.00406495 ) 0 
( -0.011186 -0.00728683 0.00484002 ) 0 
( -0.00367797 -0.00682136 0.00271183 ) 0 
( -0.000745998 -0.00114104 0.00504421 ) 0 
( -0.00454746 -0.000193638 0.00317968 ) 0 
( -0.00445448 -0.00198526 0.000499675 ) 0 
( -0.00757281 -0.00734399 0.00185642 ) 0 
( -0.00527898 -0.00346346 0.00482217 ) 0 
( -0.00789557 -0.00593729 0.00181717 ) 0 
( -0.0108262 -0.000998725 0.00318841 ) 0 
( -0.00202796 -0.00477632 0.00711832 ) 0 