FoamFile
{version 2.0; format ascii;class vectorField; location 0;object  v;}
2495
(
( 0.00790382 -0.00208256 0.0187821 )  
( 0.00368385 -0.00249921 0.0231491 )  
( 7.7456e-06 -1.02032e-05 -2.42218e-05 )  
( 0.00104951 -0.000185323 0.0150785 )  
( 0.000657432 -0.00119955 0.0140689 )  
( -0.000647896 -0.000719459 0.0117779 )  
( 0.000482208 0.000171974 0.0178457 )  
( 0.00150999 0.00127938 0.0189599 )  
( -6.59315e-07 -4.55547e-05 -1.02669e-05 )  
( -0.00119458 -1.52921e-06 0.0205153 )  
( -8.00667e-05 -0.000933576 0.0133498 )  
( 1.02057e-05 -1.19423e-05 2.67462e-05 )  
( 0.00115194 -2.82303e-05 0.0146156 )  
( 0.00207761 -4.62054e-05 0.0179343 )  
( 6.49184e-05 -0.00121069 0.0160345 )  
( -0.000712711 -0.0013293 0.0120373 )  
( -2.11118e-05 0.00178557 0.0162025 )  
( 4.24097e-05 -0.000436099 0.0177663 )  
( 0.000145566 -0.000934175 0.0153104 )  
( 0.0013406 -5.46221e-05 0.0170674 )  
( -5.71101e-05 -7.73952e-05 1.40423e-05 )  
( -0.00221134 -0.00169136 0.0124271 )  
( 0.00154805 0.00133633 0.0130185 )  
( 0.00171921 0.00108634 0.0157206 )  
( -0.000982013 -0.00219234 0.0105578 )  
( -0.000137463 -0.000312453 -9.54107e-06 )  
( 0.000646674 5.15468e-05 -0.000476049 )  
( -3.60793e-06 -0.000117459 7.23856e-05 )  
( 0.00129942 0.00128994 0.0165473 )  
( -5.04668e-05 6.98e-05 -3.06006e-05 )  
( 0.000536507 0.00321441 0.0170761 )  
( 0.000764645 0.00253234 0.0183743 )  
( -6.88262e-05 -0.000297356 0.0143604 )  
( 3.81814e-05 3.44795e-05 4.56007e-05 )  
( -0.00123609 -6.88964e-05 0.0160538 )  
( -3.89868e-05 -0.000195704 8.77327e-05 )  
( -0.00127995 0.000561356 0.0100617 )  
( -0.00107313 -0.00099469 0.0139422 )  
( -7.68503e-05 0.000909664 0.000114955 )  
( 8.56776e-05 -3.84372e-05 0.000108948 )  
( 0.0033402 0.000646501 0.0145822 )  
( -0.0012682 -0.00221835 0.0129384 )  
( 0.000705761 -0.00108866 0.0168844 )  
( -0.00107497 0.000237732 0.0162133 )  
( 0.00146085 0.0016607 0.0180566 )  
( 0.00117847 -4.37853e-05 0.0109388 )  
( -0.000251849 0.00139309 0.0119759 )  
( -0.00206337 0.000830637 0.0130793 )  
( 0.00160079 0.00367032 0.0174432 )  
( 0.000202586 0.00255033 0.0142928 )  
( -0.000845947 -0.00217115 0.0144391 )  
( -0.00102738 -0.000585806 0.0146567 )  
( 0.00335583 0.00389538 0.0181161 )  
( -0.00174587 0.000918437 0.0157944 )  
( -0.00202437 0.000414297 0.0147726 )  
( -0.000156756 -0.00112133 0.0164509 )  
( 0.00213115 9.23605e-05 0.0166057 )  
( 4.13466e-05 -0.000336519 -1.90554e-05 )  
( 0.00101236 0.000845605 1.19639e-05 )  
( -0.00397089 0.00323157 0.017374 )  
( 0.00165848 -0.000153898 0.0158868 )  
( 0.00112694 -0.00133943 0.0132041 )  
( 0.00108255 0.00126229 0.0171101 )  
( 0.00167393 0.00128846 0.0156491 )  
( -7.23951e-05 0.000127529 -3.88617e-05 )  
( -0.000780265 -1.5508e-05 0.0113892 )  
( -6.08149e-05 1.72692e-06 5.59775e-05 )  
( 0.00189729 0.000745972 0.0187388 )  
( 0.00100158 0.00108305 0.0183931 )  
( 0.00147864 0.000911665 0.012255 )  
( 6.91903e-06 -0.000141018 -5.49726e-05 )  
( 0.000590322 -0.00107965 0.017143 )  
( -0.00098679 0.000435701 0.0151119 )  
( 0.000317343 0.000100462 0.000157464 )  
( 3.75988e-05 -5.66934e-05 2.61348e-05 )  
( 0.000921457 0.000588465 0.0153825 )  
( -0.000869174 -0.000653085 0.0152856 )  
( 4.67686e-05 0.00142563 0.0166801 )  
( -2.51819e-05 4.89351e-05 -2.83694e-05 )  
( -0.0007169 0.00605322 0.0192153 )  
( -1.36907e-05 -5.30466e-05 -7.08664e-05 )  
( 6.36855e-05 -6.33781e-05 -1.23437e-05 )  
( 0.000251272 0.000397095 0.0191914 )  
( -1.77215e-05 -3.29645e-05 7.44131e-05 )  
( -0.000548582 0.00217163 0.0160725 )  
( 0.000912536 -0.000407804 0.0149912 )  
( -0.00315117 0.00119739 0.0165371 )  
( -0.000971061 -0.000770926 0.00962729 )  
( 0.000671835 -0.00130336 0.00770313 )  
( -0.000346418 -0.0012697 0.0158279 )  
( -0.00181785 -0.000185031 0.0152247 )  
( 0.000103302 -0.00119644 0.0139343 )  
( 0.00428552 0.00582131 0.0228478 )  
( -8.8773e-06 -2.61371e-05 0.00017058 )  
( -0.00240854 0.00305599 0.0122425 )  
( -1.20045e-05 0.000290693 -0.00040414 )  
( 0.000904257 0.00109238 0.0132225 )  
( -0.00106811 -0.00249202 0.0118423 )  
( 0.00027298 0.00259374 0.0159423 )  
( 0.000481315 -0.00108088 0.0142816 )  
( 0.00208538 -0.00170428 0.0130911 )  
( -2.89633e-05 -3.70153e-05 -8.09025e-05 )  
( 0.00156089 0.00155173 0.0177165 )  
( -6.01297e-06 1.70061e-06 -4.55041e-05 )  
( 0.00057556 0.000934573 0.0158599 )  
( 0.00147613 -0.000229022 0.0133009 )  
( -0.0015467 -0.00154613 0.0136997 )  
( 0.00393122 0.00275774 0.0172698 )  
( -0.00207512 -0.000390675 0.0140038 )  
( 0.00128599 -0.00110824 0.016843 )  
( 0.00131496 -0.000278251 0.0156434 )  
( 0.000606069 3.00482e-05 0.013621 )  
( 0.00118371 -0.000213748 0.0153734 )  
( 0.000373907 0.000160879 6.27975e-05 )  
( 0.00105541 -0.000528811 0.0172514 )  
( -0.0036003 -0.000137625 0.0199532 )  
( 0.00163715 -0.000947435 0.0137313 )  
( 0.000905931 0.000438672 0.0173503 )  
( 0.00177778 0.00300969 0.0167249 )  
( 0.000412606 0.000689312 0.0154975 )  
( -0.00518067 -0.000493449 0.0175257 )  
( 0.00254352 0.000507414 0.0155514 )  
( -8.76191e-05 3.26368e-05 -3.98756e-05 )  
( -0.0022394 -0.00312232 0.00813356 )  
( 5.54865e-05 -2.24307e-05 -4.59646e-05 )  
( 0.00169387 0.00208571 0.0156802 )  
( 0.000449109 -0.000325707 -0.000638789 )  
( 2.06475e-05 -7.52297e-06 -1.40369e-05 )  
( 0.00557928 -0.00422489 0.0220428 )  
( -0.00120861 -0.00230242 0.0120795 )  
( -0.00353108 0.000526257 0.0153714 )  
( -2.65078e-05 0.00149148 0.0161797 )  
( -0.000140915 8.36909e-05 0.0173296 )  
( 0.00242881 0.00098913 0.0183488 )  
( 0.000428305 0.000504371 -0.000347773 )  
( -0.000139442 1.10421e-06 0.0159968 )  
( -0.000616337 -0.00107756 0.0178432 )  
( -8.48261e-06 5.17402e-06 7.21323e-07 )  
( 3.72399e-05 0.000151003 1.48621e-05 )  
( 0.000257548 -0.00113439 0.0157796 )  
( 0.00101932 -0.000162519 0.016096 )  
( -0.000583378 0.00221009 0.0158466 )  
( -2.91272e-05 -5.97786e-05 2.94932e-06 )  
( -5.49668e-05 9.17068e-05 -4.3464e-05 )  
( -0.000741098 -0.000813325 0.0166358 )  
( -0.00147807 -0.000270596 0.0141141 )  
( -0.000313752 -0.00141166 0.0126622 )  
( 3.0444e-05 7.63458e-05 -1.42751e-06 )  
( -9.58828e-05 -1.11815e-05 0.000423758 )  
( 4.01087e-05 7.49475e-05 -6.65189e-06 )  
( 6.74772e-05 0.000652168 0.0109731 )  
( -0.004066 -0.00212681 0.00699872 )  
( 0.000508467 0.00119533 0.0177054 )  
( 0.000617072 -0.00150344 0.0125305 )  
( 0.000918852 0.000569933 0.0152428 )  
( -2.46692e-06 -8.72735e-05 1.59738e-05 )  
( -0.000148731 -0.000108208 1.02586e-05 )  
( -0.00270346 0.000116384 0.014306 )  
( -0.00334967 0.00106481 0.0156791 )  
( -0.00379086 0.000618145 0.0169761 )  
( 0.000124692 0.000157844 -5.2678e-05 )  
( 0.00102091 0.000715827 0.0180242 )  
( 0.0016496 0.000950444 0.0159305 )  
( 0.00291015 -0.000908232 0.0167515 )  
( 0.00376198 0.000120159 0.0174297 )  
( 0.000120562 0.00142655 0.0176175 )  
( 0.00116657 0.000299975 0.017561 )  
( 0.000447592 0.000356616 0.0181763 )  
( 0.00193831 0.00142776 0.0177087 )  
( -8.10476e-05 -0.00161704 0.0118401 )  
( 0.000525706 0.00284041 0.00969412 )  
( 0.000912767 0.00108269 -2.42697e-07 )  
( 0.00307333 0.000444454 0.0154744 )  
( -5.30377e-05 1.80424e-05 -0.000128358 )  
( 0.00340121 0.000655404 0.0168823 )  
( 0.000280769 -0.0012711 0.0143529 )  
( -0.00156753 0.00212191 0.0104484 )  
( -0.00196595 -0.000626161 0.00969076 )  
( 0.00402359 0.00335974 0.0172265 )  
( 0.000758922 0.00157631 0.0171158 )  
( 0.00240823 -0.000606541 0.0149883 )  
( -0.000333508 0.0043798 0.015299 )  
( 0.00169589 0.00199277 0.0151529 )  
( -0.00105135 -0.00238068 0.0102022 )  
( 6.71813e-06 9.99187e-07 2.79169e-05 )  
( 0.00111108 0.00175383 0.0170556 )  
( -8.53992e-05 -7.76938e-05 1.08888e-05 )  
( 0.0016964 -0.000372576 0.0125226 )  
( -6.99597e-05 0.000108996 1.56293e-05 )  
( 0.00120561 0.00171908 0.0184128 )  
( -0.00216293 0.00226018 0.0146452 )  
( 0.000107594 5.16846e-05 -2.63216e-05 )  
( 0.00193471 0.000485722 0.0185543 )  
( 0.000361889 4.82467e-05 7.47323e-05 )  
( 0.00153148 -0.00259191 0.0189735 )  
( 4.50711e-05 9.33086e-05 9.05173e-05 )  
( 0.000546324 -0.000991695 0.0143713 )  
( 5.14244e-05 -1.39595e-05 -1.2842e-05 )  
( 0.00118834 -0.00197849 0.0130882 )  
( 0.00106668 0.000439929 0.0126045 )  
( -0.000490857 0.00161726 0.0157325 )  
( 0.00100315 -0.000799114 0.0140887 )  
( -0.0024756 0.000104108 -8.65295e-07 )  
( -0.000417401 0.000935949 5.80133e-05 )  
( 0.000137681 -5.23902e-05 4.04055e-05 )  
( 0.00189491 -0.000608817 0.0158243 )  
( -0.000413193 0.000791267 0.0191877 )  
( -0.000145732 -0.000976624 0.0121995 )  
( -0.00134257 0.0040334 -2.11755e-07 )  
( -0.00273319 -0.00167056 0.0173825 )  
( -0.00268312 -0.00155091 0.0141108 )  
( -0.000680152 0.00151167 0.0169604 )  
( 0.000166803 0.00358585 0.0158476 )  
( 0.000443468 -0.00125066 0.0172528 )  
( -3.52769e-05 7.66628e-05 6.87012e-06 )  
( 0.00152976 0.00226899 0.0181127 )  
( 7.24304e-05 7.13397e-05 2.68882e-05 )  
( -0.000790387 0.00036863 0.017672 )  
( 7.08514e-05 0.000983782 0.0116366 )  
( 4.24238e-05 -6.82958e-06 1.77531e-05 )  
( 8.52066e-05 -7.15997e-05 7.75083e-05 )  
( 0.00373774 0.00196763 0.0160854 )  
( 5.71118e-06 1.50193e-05 -4.25511e-06 )  
( 0.0003228 -0.000763583 0.0154986 )  
( -0.000229505 0.000129962 3.40614e-05 )  
( -0.000529726 3.42815e-06 0.0190331 )  
( -0.000407519 -0.000368599 0.0136621 )  
( 0.00320249 0.00529985 0.0149532 )  
( 0.000456114 0.00167874 0.0176479 )  
( 0.00123951 0.00369978 0.0176596 )  
( 8.23496e-05 4.23453e-05 -3.80063e-05 )  
( 0.000504053 0.00113549 0.0170905 )  
( 0.002944 0.00016924 0.0140539 )  
( -0.000477999 -0.00283019 0.0124219 )  
( 0.000233243 0.00212174 0.0166271 )  
( -0.00131593 -0.00215974 0.0161555 )  
( 0.00249103 -0.00420763 0.019844 )  
( 0.00397375 -0.00925625 -0.00339075 )  
( 0.00332221 0.000171835 0.0155453 )  
( -0.000574646 0.00204027 0.0162852 )  
( -0.000884076 -0.000597976 0.0205353 )  
( 0.000285818 0.00114385 0.0172076 )  
( -0.00151851 -0.00150367 0.0170252 )  
( 0.00231513 -0.00418703 0.0185833 )  
( -0.00269243 -0.000571728 0.0109362 )  
( 0.00312555 0.00350328 0.0128609 )  
( 0.00106519 0.00015046 0.00997561 )  
( -0.000901711 -0.000448333 0.0156029 )  
( -6.6106e-05 2.72573e-05 -1.6255e-05 )  
( 0.00135846 0.0016027 0.0166087 )  
( -7.88333e-05 2.03795e-05 1.49208e-05 )  
( 0.0055493 0.00191103 -0.0035728 )  
( -0.00288674 -0.00201436 0.026517 )  
( 0.000879934 0.000350879 0.018618 )  
( 6.48456e-06 2.08462e-06 1.49225e-05 )  
( 0.00120492 0.00348222 0.0171021 )  
( -3.41786e-05 1.24951e-05 9.645e-05 )  
( -0.000134322 -0.000848067 0.0144617 )  
( -0.000600983 0.000571495 0.0168902 )  
( -4.10421e-05 1.93556e-05 -5.71955e-06 )  
( 0.00275923 5.62316e-05 0.00980633 )  
( 0.000683054 -0.000115303 0.0136004 )  
( -7.52963e-05 0.000223773 1.91379e-05 )  
( -0.00205799 0.00174503 0.0166183 )  
( -2.79213e-05 -0.00132857 0.0132658 )  
( -0.0016365 -0.0024672 0.0111137 )  
( 0.000274358 0.000327529 -0.000168182 )  
( 0.000131417 0.000297014 0.0170652 )  
( 0.000269874 -0.000942493 0.0141405 )  
( 0.00256412 0.00176432 0.016111 )  
( 0.000640744 0.00029183 0.0180145 )  
( -3.0496e-05 -3.69509e-05 5.33361e-05 )  
( -0.00328618 0.00127517 0.0162089 )  
( 0.00208912 0.00136533 0.0172749 )  
( -0.000832605 0.000589097 0.00750937 )  
( -0.000582064 -0.000704127 0.0137507 )  
( -1.24251e-05 -8.39815e-05 2.04995e-05 )  
( -7.29734e-06 8.97553e-06 -9.7791e-06 )  
( -0.000629666 0.00202503 0.0167949 )  
( -0.00127357 0.000836664 0.0161393 )  
( 0.00192578 0.0015717 0.0175601 )  
( 0.00230468 0.000586758 0.0170086 )  
( 0.000949587 0.000906451 0.0150303 )  
( 0.00158315 0.000572862 -4.82087e-05 )  
( 0.000809494 0.00391299 0.0203739 )  
( 0.000259164 -0.00216398 0.0115917 )  
( 0.000361666 0.000154775 0.0180795 )  
( 0.000214086 0.000530933 5.93407e-05 )  
( -7.68844e-05 0.00181457 0.014059 )  
( -0.00158291 -0.00239635 0.00860648 )  
( 0.000160851 -0.00100592 0.0126808 )  
( -9.24972e-06 -0.000124848 -4.7979e-05 )  
( -8.76297e-05 5.31764e-05 -6.55803e-05 )  
( -0.00110098 -0.0035401 0.0126417 )  
( 0.00180569 0.00136219 0.018463 )  
( -0.000895767 -0.000359034 0.0184406 )  
( 0.00160834 -0.000415496 0.0164438 )  
( -0.000293998 -0.00374772 -0.000720584 )  
( 0.000470026 0.0010737 0.0171601 )  
( -0.00020824 -0.000166203 -0.000132872 )  
( -3.00484e-05 -6.84768e-07 5.92655e-05 )  
( 0.00241786 0.000859579 0.0176415 )  
( 0.00105728 0.00193924 0.010249 )  
( 0.00305202 0.000990087 0.0147392 )  
( 5.51973e-05 -4.14945e-05 -2.14886e-05 )  
( 0.00112704 0.000988154 0.0155947 )  
( 0.00200652 -0.000405057 0.0175977 )  
( 0.0023853 -0.00134266 0.0174815 )  
( 0.00109701 0.000189738 0.0146185 )  
( 0.00121107 -0.00223092 0.0145106 )  
( 2.40748e-05 0.000125165 0.000157266 )  
( -0.00351235 0.00175459 0.0166629 )  
( 0.00196033 0.00431047 0.0132981 )  
( -0.00023182 -0.00242248 0.0120668 )  
( 0.000102888 0.000533147 0.000299852 )  
( 6.77688e-05 -5.3061e-05 4.69725e-05 )  
( 0.00139189 -0.000582988 0.0110831 )  
( 6.61483e-05 6.00015e-05 0.000158021 )  
( 0.00167233 -0.00329056 0.0105657 )  
( 0.00203665 -0.000303525 0.0159151 )  
( -1.61967e-05 -4.6809e-05 -0.000163326 )  
( -2.45296e-05 -4.68366e-05 6.03126e-05 )  
( 0.00230984 0.00171817 0.015204 )  
( -0.000111355 -3.93699e-06 -4.87264e-05 )  
( 0.00321316 0.00166475 0.0160288 )  
( 0.000228 -2.00176e-05 0.0169385 )  
( -0.000255778 0.000136316 0.0103763 )  
( 0.00164865 0.00165955 0.0107802 )  
( -0.00198792 -0.00124954 0.0168134 )  
( -0.00315537 0.00180057 0.0154594 )  
( 2.68105e-05 4.91294e-05 -1.17542e-05 )  
( -0.00274333 0.00117244 0.0133724 )  
( 0.000410407 6.41709e-05 0.0171959 )  
( 0.000204698 0.000228564 -0.000402319 )  
( 2.22911e-05 -8.11908e-06 1.38276e-05 )  
( 0.00057899 -0.000117276 0.0155622 )  
( 0.000119997 0.00291588 0.0166949 )  
( 0.00492108 0.00427277 0.0123927 )  
( -0.000238528 -0.00195962 0.0104981 )  
( -5.91485e-05 -3.60346e-05 -8.94798e-05 )  
( -0.000301886 -0.00517914 0.019719 )  
( 0.00203278 0.000892268 0.0183401 )  
( 0.000796945 0.00094215 0.0174565 )  
( 0.00112042 0.000920712 0.0170562 )  
( -0.000625454 -0.00150771 0.0106511 )  
( -5.4997e-05 0.000539548 0.0144035 )  
( -0.00134364 7.98373e-05 0.0117757 )  
( 2.49722e-05 2.72375e-05 -0.000143683 )  
( -0.00263061 -0.00252928 0.0143549 )  
( -6.75003e-05 0.0016876 0.0127447 )  
( -0.000469716 -0.00225294 0.0114267 )  
( -1.1457e-05 2.25556e-05 1.83764e-05 )  
( 4.24259e-05 2.68717e-05 0.000103806 )  
( -0.000607654 0.00390726 0.0116144 )  
( 0.00141544 0.000722065 0.017871 )  
( 0.002357 -0.00153088 0.0156114 )  
( 8.67893e-05 -2.05251e-06 2.0913e-05 )  
( 0.00250723 0.00229447 -0.000780204 )  
( -0.000402 0.000356137 0.0166223 )  
( 0.00128846 0.00100032 0.0173745 )  
( 0.00168133 0.000374689 0.0179392 )  
( -0.000500038 -0.00107851 0.0133165 )  
( 0.00365579 -0.00285583 0.0208336 )  
( 0.000201005 0.000201591 0.0159192 )  
( -0.00216043 -5.512e-05 0.014604 )  
( 0.00136619 0.0020288 0.0143098 )  
( -0.000695348 -0.0028118 0.00996668 )  
( 0.00160199 0.000530365 0.0108398 )  
( 0.000519564 3.20432e-05 0.0186023 )  
( 8.78112e-06 1.86814e-05 2.5182e-06 )  
( 0.000330094 0.000348649 0.0150489 )  
( -0.000461765 -0.000859303 0.0127378 )  
( -0.000325829 0.00238119 0.0163088 )  
( -5.90784e-06 2.61395e-05 -3.6202e-06 )  
( 0.00145283 0.000113145 0.0145238 )  
( -0.000139318 3.43082e-05 5.81531e-05 )  
( 2.8029e-05 2.66382e-05 -0.00020333 )  
( 0.000695776 -0.000921421 0.015391 )  
( -3.60756e-05 7.13639e-05 8.15029e-05 )  
( 0.00102661 0.00251467 0.017113 )  
( 0.00159771 -0.000490689 0.0177229 )  
( 3.75704e-05 -9.08704e-05 3.22262e-05 )  
( 0.00171353 8.96052e-05 0.0124117 )  
( 1.23334e-05 4.884e-05 2.08087e-05 )  
( 0.0018114 -0.000225956 0.0176548 )  
( 0.00373112 0.00114951 0.0148018 )  
( 0.000803755 0.000769752 0.0118535 )  
( -0.00016048 1.99635e-05 -6.72746e-05 )  
( 0.000682743 0.000246847 0.0192292 )  
( 0.00150208 0.00251425 0.0153513 )  
( -5.99324e-06 -3.96385e-06 2.57379e-06 )  
( 0.000121617 -0.000110841 -7.18793e-06 )  
( -0.000156551 -7.42332e-05 4.74325e-05 )  
( 3.3807e-05 -1.59482e-05 2.06882e-05 )  
( -2.37016e-05 -3.26059e-05 8.55987e-05 )  
( -0.000644503 0.00358896 0.0156864 )  
( -0.000255911 -0.000670632 0.0157872 )  
( 0.000169634 -1.90244e-05 0.000104717 )  
( 0.00193104 0.000560547 0.0181343 )  
( -0.000900315 0.00226574 0.0066679 )  
( 0.00188943 0.000328156 0.0165281 )  
( 0.00193455 0.00190063 0.0165366 )  
( 8.36803e-05 -1.83898e-05 3.51233e-05 )  
( 0.00124396 0.0015506 0.0166596 )  
( -0.000675592 -0.00166555 0.014248 )  
( -0.000103311 7.8603e-05 1.25088e-05 )  
( -0.00108113 -0.00261927 0.01313 )  
( 0.0010143 -0.00095434 0.0149027 )  
( -8.05029e-05 6.61066e-05 -0.000115177 )  
( -4.73494e-06 -0.000597792 -0.000320759 )  
( -0.000314507 -0.000550431 0.0158777 )  
( 0.00121409 0.00270634 0.0146597 )  
( 5.89124e-05 -0.000732752 9.01252e-05 )  
( 0.00185089 0.000375371 0.00917536 )  
( 0.00166378 0.000602427 0.0158539 )  
( -0.000291453 0.000135979 -4.1917e-06 )  
( 0.000578716 0.000496286 0.019188 )  
( 9.13748e-05 9.66438e-05 -7.01729e-05 )  
( 5.42336e-05 0.00018079 -0.000138825 )  
( 0.00373317 0.00383065 0.0118084 )  
( 0.000180574 -0.00310549 0.010779 )  
( 0.00151914 -0.000739382 0.0168443 )  
( 0.000693056 -0.00016383 0.0196697 )  
( 0.000229385 -0.000237277 -0.000522672 )  
( 0.00116572 0.00174929 0.0159446 )  
( 0.00270055 0.00258844 0.0194243 )  
( 1.94665e-05 -1.73339e-05 -3.12811e-05 )  
( 0.0010493 0.000701721 0.018334 )  
( 0.00138047 0.00102247 0.0161378 )  
( 0.00358755 0.000974196 0.0107533 )  
( -0.000738949 0.00134882 0.0164191 )  
( -0.000189673 -0.000577873 -0.000158713 )  
( 0.000675878 -0.000432721 0.016646 )  
( 4.48706e-05 -2.53358e-05 -3.33853e-05 )  
( 0.00288021 0.000106302 0.00872123 )  
( 4.93571e-06 -6.30111e-05 -1.82896e-06 )  
( -0.0010549 -0.000295329 0.0173353 )  
( -0.00160987 2.93846e-05 0.0151741 )  
( 3.18831e-05 -1.44815e-05 -1.76196e-05 )  
( 0.00410062 -0.00113414 0.0118038 )  
( 1.73467e-06 -8.1896e-05 2.36234e-06 )  
( 0.00279307 0.00304207 0.0131971 )  
( 1.88366e-05 5.29406e-05 -2.92029e-05 )  
( -0.00103843 -0.00399112 0.0193717 )  
( -0.00305106 0.00155011 0.0170926 )  
( 0.000641578 0.000316156 0.0110188 )  
( -0.00213815 0.00392799 0.01141 )  
( 0.000688869 0.00134305 0.0112193 )  
( -5.36859e-06 1.8344e-05 -1.99254e-05 )  
( 0.000128486 -9.42554e-05 6.04685e-05 )  
( -0.000100939 6.52887e-05 -2.20617e-06 )  
( 0.00325752 0.00219619 0.0137499 )  
( 0.00156846 -0.00248275 0.0155248 )  
( -0.00255539 0.00156551 0.0170472 )  
( 0.00172913 0.00210288 0.0261945 )  
( -0.000187038 0.000299414 0.0165827 )  
( 0.000666175 0.000594076 0.0170267 )  
( 0.00210843 0.000161241 0.0169377 )  
( 0.00163105 0.000329872 0.0130374 )  
( 0.00123035 -0.000662132 0.0127847 )  
( -0.00129247 0.00161808 0.0164785 )  
( 0.000676687 0.00216412 0.0181233 )  
( -0.00121125 -0.00180796 0.0135193 )  
( -0.000206703 0.00284162 0.0163841 )  
( 0.000759506 0.000584252 0.0172505 )  
( 0.00115869 0.00122251 0.0164725 )  
( -0.000580941 -9.99913e-05 0.0133654 )  
( -0.00119411 -3.62027e-05 0.00985061 )  
( 0.00017045 -0.000394838 0.0155183 )  
( 0.00113206 -0.000446267 0.0188331 )  
( -6.90635e-05 0.00110836 0.0134412 )  
( 0.0026024 -2.09174e-05 0.0162183 )  
( 0.000422759 -2.47684e-05 0.0131014 )  
( -0.000869304 0.0011472 0.0175228 )  
( -0.00118028 7.50846e-05 0.0125256 )  
( -0.000787777 0.000587475 0.0171329 )  
( 0.000848679 -0.000492377 0.0179386 )  
( 0.00156301 0.000360264 0.0184816 )  
( 1.54087e-05 -1.97927e-05 4.42776e-05 )  
( -5.42408e-05 -0.00017799 -0.000130464 )  
( 0.00258017 -0.000809171 0.0171404 )  
( 0.00110001 0.000327605 0.0167996 )  
( 0.0011189 0.000123933 0.017304 )  
( 0.00226461 0.00416342 0.0123144 )  
( -0.00118602 0.000679109 3.794e-06 )  
( 0.00136639 0.000580009 0.0167122 )  
( -0.000394092 0.00146771 0.0184179 )  
( 7.3243e-05 -0.000301304 0.0128359 )  
( -0.000609521 -0.00278657 0.0144996 )  
( 0.000498562 -0.000120688 0.0130227 )  
( -0.0027687 0.000931667 0.0148549 )  
( 2.92666e-05 1.59154e-05 6.57943e-06 )  
( 0.00134041 -0.00174909 0.0173871 )  
( 0.00202001 0.00210481 0.0135507 )  
( 0.000806988 0.0034266 0.0137821 )  
( -0.000291613 0.00262488 0.0122939 )  
( 0.000185818 -0.000232495 0.0178965 )  
( -0.000425824 -0.000888515 0.0158074 )  
( -0.000738328 -0.00264115 0.0189632 )  
( 0.000149749 -9.95574e-05 4.47075e-05 )  
( -0.00290815 0.000857982 0.0144255 )  
( -0.00218817 0.000386141 -6.87829e-07 )  
( -0.00187773 -0.00180066 0.018927 )  
( -0.000109826 -0.00157176 0.0107024 )  
( -0.000246222 -0.000445726 0.0175886 )  
( -5.30613e-05 -0.000252332 -5.54396e-05 )  
( -6.74654e-05 0.000446174 -0.000112034 )  
( 0.0038477 -0.000355527 0.0150404 )  
( 3.56054e-05 -6.1522e-05 0.00978421 )  
( 0.000113983 -3.2474e-05 8.51444e-05 )  
( 0.000969274 0.00180153 0.0151817 )  
( 0.000193911 0.000533843 0.0180551 )  
( 3.2462e-06 -2.21069e-05 -1.25573e-05 )  
( 0.00189958 0.000571614 0.0162252 )  
( 1.7699e-05 1.36215e-05 1.83738e-05 )  
( -9.97797e-05 0.00012381 6.73744e-05 )  
( 0.00159327 0.00261054 0.0146551 )  
( -3.48776e-05 -2.9825e-06 -7.47825e-07 )  
( 0.000172981 0.000226745 2.92619e-05 )  
( 0.000708011 0.000281615 0.0173043 )  
( -4.71993e-05 4.71889e-05 -1.24482e-05 )  
( -1.30345e-05 -0.000414592 0.011022 )  
( -5.47339e-05 0.000202342 0.000322638 )  
( 0.00109349 0.00161062 0.0169112 )  
( 0.0010164 0.00171393 0.0173816 )  
( -0.000568051 0.00238188 0.010634 )  
( -0.00140156 6.61891e-06 0.015867 )  
( -0.000104006 0.00244907 0.0159112 )  
( 0.000631881 -0.00159577 0.0125797 )  
( 0.000620742 0.000489418 0.0185215 )  
( -0.00165883 -0.000173375 0.0155528 )  
( -0.000550924 4.85745e-06 0.0158339 )  
( 0.00167983 0.00424413 0.0125387 )  
( -8.02305e-05 -3.11881e-05 -4.92043e-06 )  
( 0.000199207 -0.00143566 0.0200551 )  
( -1.34217e-05 2.42216e-05 3.07932e-06 )  
( 0.00273944 0.004546 0.0129045 )  
( 2.64397e-05 0.000209145 -1.30589e-05 )  
( 0.00210589 0.00219561 0.0148677 )  
( -0.000520399 0.00289936 0.0153849 )  
( -0.000231855 8.03477e-05 -1.31112e-05 )  
( 0.000643106 -0.000112572 8.05612e-05 )  
( 1.79724e-05 1.10425e-05 -2.89526e-06 )  
( 0.00187483 0.0010229 0.0176803 )  
( -3.73129e-05 -1.04664e-05 1.30175e-05 )  
( 1.96846e-05 -3.14575e-05 4.17109e-05 )  
( 0.000828802 0.000929176 -2.43824e-07 )  
( -0.00167806 -0.00140066 0.0121788 )  
( 0.000362647 0.00305947 0.0171579 )  
( -0.000433679 -0.000992977 0.0147516 )  
( 0.00207683 0.000249571 0.0183626 )  
( 3.00275e-05 -0.000116504 -0.000216875 )  
( 8.40899e-05 0.00282672 0.0144179 )  
( 0.0015737 -0.00122738 0.0129862 )  
( -0.00347374 -0.000814566 0.0176614 )  
( -0.00115541 0.00146982 0.0134887 )  
( 0.00121553 -0.00118898 0.0133438 )  
( -0.000724049 -0.00132393 0.0145337 )  
( 0.00422229 0.000866056 0.00891933 )  
( 0.00144366 -0.00141803 0.0104763 )  
( -0.00245682 0.000760678 0.0159876 )  
( 0.00130749 0.000403212 0.0173988 )  
( 0.00205412 -0.000476032 0.0173782 )  
( 0.000124259 -0.0020241 0.0153873 )  
( 7.94583e-05 -1.55418e-05 6.82323e-05 )  
( 0.000991703 0.00144206 0.0166628 )  
( 0.000543356 0.000314716 0.0172194 )  
( 8.86991e-05 0.00022861 5.02863e-06 )  
( -0.000786523 0.000602378 0.0193704 )  
( -0.000626766 -0.00101844 0.0117109 )  
( -0.000963235 0.00327843 0.0167158 )  
( 0.00116667 0.000561914 0.0181602 )  
( -0.000404159 0.00129719 0.0165453 )  
( -0.00560848 0.00351467 0.0129291 )  
( 5.19801e-05 -3.89502e-05 7.16289e-05 )  
( 2.60724e-05 9.10773e-06 2.49307e-05 )  
( 0.000251831 0.000368027 0.000199095 )  
( -0.000577471 -0.000999338 0.0162322 )  
( -0.0013661 0.00289537 0.0165912 )  
( 5.11355e-05 -9.69676e-05 3.50683e-05 )  
( 0.000897565 0.00204915 0.0166303 )  
( 4.9799e-05 0.000160462 4.04795e-05 )  
( 0.000394968 0.000622768 0.0193377 )  
( 0.000109432 0.000328486 0.0180845 )  
( 0.000199617 5.76239e-05 -9.13999e-05 )  
( 0.00192644 -0.00132816 0.0129203 )  
( 1.19488e-05 -0.000432204 0.0166522 )  
( 0.000232204 0.00204177 0.0167976 )  
( -3.2212e-05 4.89389e-05 1.40257e-05 )  
( 0.000890161 0.0029885 0.0168276 )  
( -0.000214715 -7.79009e-05 0.00011541 )  
( -0.0017376 0.000485944 0.0132665 )  
( 1.4328e-05 0.00430496 0.014039 )  
( -3.30636e-05 -2.11453e-05 -4.59782e-05 )  
( -0.000493782 -0.00251218 0.0150871 )  
( 0.000999848 -0.001817 0.0218513 )  
( -0.00162321 -0.00320872 0.0110486 )  
( 0.000554202 -0.000143001 -0.000210478 )  
( 8.15124e-05 8.06447e-05 0.00103374 )  
( -0.00198261 -0.00273464 0.0153195 )  
( 0.00211205 0.00496289 0.0137425 )  
( 0.000920072 -0.0020125 0.0190594 )  
( -0.000106637 -0.000110201 -0.000128084 )  
( 0.00150001 0.00087587 0.0166496 )  
( 0.00152091 0.000944381 0.0163958 )  
( 0.000756282 0.000695784 0.0155221 )  
( 0.00373818 -0.000364413 0.0156074 )  
( 3.11306e-05 -3.41231e-05 6.35407e-06 )  
( 0.000256499 -9.75406e-05 -0.000391605 )  
( 9.02899e-06 5.8093e-05 4.76295e-06 )  
( 0.00280633 -0.000862199 0.0163101 )  
( -0.00024562 -0.000813917 0.0142002 )  
( 0.000541053 -0.00134255 0.0121275 )  
( -0.000460292 0.00332433 0.0156127 )  
( 0.000588185 0.00107111 0.0174811 )  
( -0.00242094 -0.00838278 -0.00180554 )  
( 0.00203024 0.00179831 0.0161748 )  
( 0.000242296 0.0010942 0.0158658 )  
( 0.000516399 -0.000293962 0.0110414 )  
( -0.000573387 -0.00224739 0.0173045 )  
( -0.000415894 0.00282125 0.018649 )  
( -2.51783e-06 -3.61635e-05 -3.80871e-05 )  
( 0.00192051 -0.000194252 0.00978088 )  
( 0.000111368 -4.34855e-05 -5.16705e-07 )  
( 0.000161967 -0.00169811 0.014521 )  
( -0.000936447 -0.00345999 0.0185699 )  
( 0.00155435 0.00178937 0.01538 )  
( -0.000508419 0.00236983 0.0167617 )  
( -0.000276369 0.00190051 0.0140317 )  
( 0.00089333 -0.000321509 -3.38287e-05 )  
( 0.00393188 0.000581883 0.0209874 )  
( 0.00114615 -0.00252643 0.016009 )  
( 0.00298452 0.00205326 0.0175754 )  
( -0.000320934 -0.000180738 -1.09825e-05 )  
( 0.00147174 -0.000611324 0.018082 )  
( 0.000181202 8.09748e-05 -3.53574e-05 )  
( 0.00101338 0.00285777 0.016902 )  
( 0.000848457 0.00135641 0.0152612 )  
( 0.000361251 0.0019247 0.017199 )  
( 0.00203668 0.00368599 0.00974171 )  
( 0.000162384 0.000332108 0.000987887 )  
( 0.000254679 0.000305096 -0.000182573 )  
( 0.00109711 0.000989671 0.0156699 )  
( -0.000988543 -0.00157181 0.0138461 )  
( -0.000440681 -0.000536882 0.0120026 )  
( 0.000466956 -0.000202153 0.00963541 )  
( -0.000815916 0.00232107 0.0195712 )  
( 0.000770477 -0.00243094 0.0179843 )  
( -0.0001163 -1.05021e-05 -5.15859e-05 )  
( 0.000484769 -0.00112274 0.0165803 )  
( 0.000615945 -0.00185909 0.017497 )  
( -0.000498096 0.00202996 0.0159321 )  
( -9.61036e-05 5.42791e-05 -1.04052e-06 )  
( -0.000383807 -5.36301e-05 -6.25891e-07 )  
( 0.000496914 0.000382844 0.0121675 )  
( 0.000555417 -0.000292722 -3.83498e-05 )  
( 0.00155629 0.00147455 0.011613 )  
( 1.12329e-05 -0.00221234 0.0108093 )  
( 8.48816e-07 0.00189403 0.0146412 )  
( -2.76649e-06 -0.000135949 5.91929e-06 )  
( -0.00102115 -0.00207529 0.00976302 )  
( 0.000109069 0.00235073 0.0149748 )  
( 0.000818755 -0.00292126 0.0142361 )  
( 0.00336564 0.00044973 0.00995854 )  
( 0.000105255 -6.86402e-05 2.59346e-05 )  
( 1.73937e-05 -0.00110738 -5.50781e-05 )  
( 0.000136053 0.000477683 0.0162673 )  
( -0.00306758 -0.00131935 0.0166194 )  
( -1.13597e-05 -2.93919e-05 2.28011e-05 )  
( -0.000370215 0.000589466 0.00967702 )  
( 0.00125949 0.00516031 0.014904 )  
( -6.7635e-05 0.000128844 1.90608e-05 )  
( 0.000466286 -0.000637509 0.0106062 )  
( -4.62967e-05 -0.000429262 0.0131421 )  
( 0.00350211 0.000359646 0.014298 )  
( 0.00168371 -0.00148716 0.0210787 )  
( 0.000549887 0.0003037 0.0119974 )  
( 0.00110718 0.000990403 0.0158223 )  
( 9.23389e-05 -8.04418e-05 8.46161e-05 )  
( 2.45138e-05 -6.5328e-05 1.01015e-05 )  
( 0.00346403 0.000323111 0.0161911 )  
( -4.19436e-05 9.90746e-05 -1.78434e-06 )  
( 0.000622205 -0.00122706 0.00779186 )  
( 0.0023461 0.000934872 0.0175045 )  
( -0.000120841 -8.1861e-05 0.000169043 )  
( 2.7208e-05 0.000104593 -3.26439e-05 )  
( 0.00211191 -0.00118439 0.0159018 )  
( 1.65542e-05 -1.62701e-05 -5.1216e-05 )  
( 8.27288e-05 3.11733e-05 -1.88178e-05 )  
( -0.00102606 0.00149092 0.0165945 )  
( -0.000653773 0.00321675 0.01916 )  
( -0.000917765 0.00527042 0.013882 )  
( -0.00126501 -0.00218556 0.00942471 )  
( 0.00698138 0.0031235 0.0134317 )  
( 0.000493898 -0.000773813 0.0147614 )  
( -0.000698701 0.00193807 0.0162722 )  
( 0.000266212 0.000151992 2.46321e-05 )  
( 0.000328335 2.00377e-05 0.00025989 )  
( 8.14643e-05 -1.70197e-05 -0.000116946 )  
( -0.00128265 0.00334833 0.0179431 )  
( 4.15333e-05 3.04895e-05 6.14842e-05 )  
( 8.13057e-05 -1.01518e-06 6.38415e-06 )  
( -0.000616816 9.33648e-05 4.88866e-05 )  
( 9.84566e-05 -7.0463e-05 -0.000180698 )  
( 0.000247988 -5.02419e-05 4.85872e-05 )  
( 0.000197712 0.0026833 0.0158544 )  
( 4.30092e-05 0.000154966 0.0150158 )  
( 0.00165999 0.000562489 0.0135343 )  
( 0.000427317 -0.00229925 0.0184133 )  
( -0.00145822 -0.00024744 0.00964359 )  
( -2.94923e-05 6.08639e-05 -2.10856e-05 )  
( 0.000643029 -1.24084e-05 -3.84188e-05 )  
( 0.0013728 0.00194908 0.0167882 )  
( 0.000142487 -7.39816e-05 0.000412681 )  
( 0.00312181 0.000574202 0.00880733 )  
( 0.00049209 0.000543178 0.0175407 )  
( -1.51663e-05 -9.7506e-06 1.15774e-05 )  
( 0.00346228 -0.000425099 0.0108923 )  
( 0.000644264 0.00116757 0.0144788 )  
( 0.00112769 0.000368764 0.0188352 )  
( 0.00174849 -0.000426008 0.0189553 )  
( 0.000811018 0.00149207 0.0177256 )  
( -0.00170679 -4.37427e-06 0.0157134 )  
( 0.00101235 0.000183743 0.0163835 )  
( 0.000987695 -0.000259202 0.0138122 )  
( 0.000411271 -0.000162576 0.0191503 )  
( 8.65038e-05 -6.31973e-05 -9.18881e-05 )  
( 1.99253e-05 0.00166719 0.0144984 )  
( 0.00146079 -0.000718991 0.0170192 )  
( 0.000221175 -0.000291569 0.0149342 )  
( -0.000127123 6.04884e-05 -8.16123e-05 )  
( 0.00133798 0.000220872 0.0185733 )  
( 5.82053e-06 -1.69697e-05 1.31833e-05 )  
( 0.00148185 0.000804813 0.0168152 )  
( -0.0011187 -0.00330073 0.0123621 )  
( 0.00313544 0.00139029 0.0147612 )  
( 0.00092991 0.000155138 0.0187062 )  
( 0.00157059 -0.0011783 0.0134359 )  