/*--------------------------------*- C++ -*----------------------------------*\
| =========                 |                                                 |
| \\      /  F ield         | OpenFOAM: The Open Source CFD Toolbox           |
|  \\    /   O peration     | Version:  2506                                  |
|   \\  /    A nd           | Website:  www.openfoam.com                      |
|    \\/     M anipulation  |                                                 |
\*---------------------------------------------------------------------------*/
FoamFile
{
    version     2.0;
    format      ascii;
    arch        "LSB;label=32;scalar=64";
    class       volScalarField;
    location    "0.02";
    object      Ksl;
}
// * * * * * * * * * * * * * * * * * * * * * * * * * * * * * * * * * * * * * //

dimensions      [1 -3 -1 0 0 0 0];

internalField   nonuniform List<scalar> 
1152
(
58441.9
99537.7
101617
123875
113692
75844.2
182638
124605
97096.6
115018
120688
72946.9
258795
84613.6
67075.1
70529
276368
277315
249439
331085
235964
307683
267931
184097
213295
184577
229544
309874
335181
485496
9.86956e+06
195203
109546
350490
195569
869197
331140
247843
165104
195730
259729
234269
231349
245906
150372
177968
125025
4.1381e+06
1.30987e+06
169122
472159
229826
271242
398116
148386
208358
193110
348073
251078
397650
8.09456e+06
182753
340279
567703
145437
260892
175842
231228
203205
356294
350710
217690
291404
139289
406276
148947
127020
1.47841e+07
90415.4
184949
1.41702e+06
176769
229389
136430
116177
387207
168149
500655
404913
176987
263501
586838
5.36019e+06
203914
419507
166290
39347.3
35790.3
68693.6
42705.1
57373.3
103963
60327.4
151196
94419.1
30178.3
97334.2
49234
104507
118365
13890.6
35134.6
0
0
0
0
0
0
0
0
0
0
0
0
267.617
0
0
0
0
0
0
0
0
0
0
0
0
0
0
0
0
0
0
0
0
0
0
0
0
0
0
0
0
0
0
0
0
0
0
0
0
0
0
0
0
0
0
0
0
0
0
0
0
0
0
0
0
0
0
0
0
0
0
0
0
0
0
0
0
0
0
0
0
0
0
0
0
0
0
0
0
0
0
0
0
0
0
0
0
0
0
0
0
0
0
0
0
0
0
0
0
0
0
0
0
0
0
0
0
0
0
0
0
0
0
0
0
0
0
0
0
0
0
0
0
0
0
0
0
0
0
0
0
0
0
0
0
0
0
0
0
0
0
0
0
0
0
0
0
0
0
0
0
0
0
0
0
0
0
0
0
0
0
0
0
0
0
0
0
0
0
0
0
0
0
0
0
0
0
0
0
0
0
0
0
0
0
0
0
0
0
0
0
0
0
0
0
0
0
0
0
0
0
0
0
0
0
0
0
0
0
0
0
0
0
0
0
0
0
0
0
0
0
0
0
0
0
0
0
0
0
0
0
0
0
0
0
0
0
0
0
0
0
0
0
0
0
0
0
0
0
0
0
0
0
0
0
0
0
0
0
0
0
0
73991
169044
172421
118600
131792
82930.1
63147.2
103314
102549
219246
83160
79978.7
92730.4
96220.6
105331
332534
238345
188882
221892
146948
269003
195559
288309
274287
188356
243362
205750
236415
184001
395893
228112
207821
319073
218134
260655
203413
241587
222027
165729
176577
211567
254792
202860
419368
6.73571e+06
153191
740646
135772
769359
177166
263190
136813
527021
222250
220977
376009
160029
284707
237548
377639
280651
963446
146968
310571
322522
186277
166085
169062
202052
221614
247681
277411
174339
320450
155179
198891
358938
135387
710853
128712
5.12361e+06
155591
302048
173320
123462
209564
189861
164157
290773
182593
226067
258213
247621
340555
230326
215922
31251.3
106075
87656.5
48118.4
37327.6
43135.8
116645
142252
38346.8
34022.3
53573.9
32468.9
24590.8
50375.3
39428.9
62650.6
0
0
0
0
0
0
0
0
0
0
0
0
0
0
0
0
0
0
0
0
0
0
0
0
0
0
0
0
0
0
0
0
0
0
0
0
0
0
0
0
0
0
0
0
0
0
0
0
0
0
0
0
0
0
0
0
0
0
0
0
0
0
0
0
0
0
0
0
0
0
0
0
0
0
0
0
0
0
0
0
0
0
0
0
0
0
0
0
0
0
0
0
0
0
0
0
0
0
0
0
0
0
0
0
0
0
0
0
0
0
0
0
0
0
0
0
0
0
0
0
0
0
0
0
0
0
0
0
0
0
0
0
0
0
0
0
0
0
0
0
0
0
0
0
0
0
0
0
0
0
0
0
0
0
0
0
0
0
0
0
0
0
0
0
0
0
0
0
0
0
0
0
0
0
0
0
0
0
0
0
0
0
0
0
0
0
0
0
0
0
0
0
0
0
0
0
0
0
0
0
0
0
0
0
0
0
0
0
0
0
0
0
0
0
0
0
0
0
0
0
0
0
0
0
0
0
0
0
0
0
0
0
0
0
0
0
0
0
0
0
0
0
0
0
0
0
0
0
0
0
0
0
0
0
0
0
0
0
0
0
0
0
0
0
0
0
0
0
0
0
0
0
76402.8
118510
111905
69851
115244
139731
512963
145875
143536
102839
82974.2
115834
255729
95393.1
84812.4
107435
1.11771e+06
133441
368160
279446
225453
412823
134562
126377
294845
146163
251477
216481
242400
1.48368e+06
261386
479813
122829
226195
366318
184687
241531
156011
522125
220251
233063
297320
142327
308104
153781
172492
323525
116081
436314
170811
494871
197860
449518
455387
128495
294220
238256
216877
1.8304e+07
124699
205224
338030
555001
3.96969e+07
385870
151353
452621
292970
181061
220556
213465
147676
223715
245728
120646
397551
245638
189143
184046
111513
2.60924e+06
241336
1.33346e+06
101502
173631
216540
113844
702687
185186
335453
221699
209593
307136
299310
399165
334248
62935.4
44506.6
70393.9
47275.9
44624.8
91779.9
49941.6
18401
80514.8
37367.9
19685.6
51693.7
39863.9
33115.4
17230.9
18901.2
0
0
0
0
0
0
0
0
0
0
0
0
0
0
0
0
0
0
0
0
0
0
0
0
0
0
0
0
0
0
0
0
0
0
0
0
0
0
0
0
0
0
0
0
0
0
0
0
0
0
0
0
0
0
0
0
0
0
0
0
0
0
0
0
0
0
0
0
0
0
0
0
0
0
0
0
0
0
0
0
0
0
0
0
0
0
0
0
0
0
0
0
0
0
0
0
0
0
0
0
0
0
0
0
0
0
0
0
0
0
0
0
0
0
0
0
0
0
0
0
0
0
0
0
0
0
0
0
0
0
0
0
0
0
0
0
0
0
0
0
0
0
0
0
0
0
0
0
0
0
0
0
0
0
0
0
0
0
0
0
0
0
0
0
0
0
0
0
0
0
0
0
0
0
0
0
0
0
0
0
0
0
0
0
0
0
0
0
0
0
0
0
0
0
0
0
0
0
0
0
0
0
0
0
0
0
0
0
0
0
0
0
0
0
0
0
0
0
0
0
0
0
0
0
0
0
0
0
0
0
0
0
0
0
0
0
0
0
0
0
0
0
0
0
0
0
0
0
0
0
0
0
0
0
0
0
0
0
0
0
0
0
0
0
0
0
0
0
0
0
0
0
)
;

boundaryField
{
    inlet
    {
        type            zeroGradient;
    }
    outlet
    {
        type            zeroGradient;
    }
    wall
    {
        type            zeroGradient;
    }
    procBoundary1to0
    {
        type            processor;
        value           nonuniform List<scalar> 
192
(
362868
158522
101610
115130
827332
229074
1.23191e+06
243910
1.60878e+07
211732
124335
1.83078e+06
155164
206199
1.28475e+07
102104
230833
322334
102452
1.1117e+07
162535
161697
181979
136646
72049.7
279728
33436.5
82826.8
0
0
0
0
0
0
0
0
0
0
0
0
0
0
0
0
0
0
0
0
0
0
0
0
0
0
0
0
0
0
0
0
0
0
0
0
0
0
0
0
0
0
0
0
0
0
0
0
0
0
0
0
0
0
0
0
0
0
0
0
0
0
0
0
0
0
0
0
254527
148405
81648.1
434795
170616
148116
321924
131889
210151
226771
364572
131194
122750
204900
206272
356805
167060
239491
298344
177121
110346
264053
151539
148390
61686.1
114394
27359.1
58836.8
0
0
0
0
0
0
0
0
0
0
0
0
0
0
0
0
0
0
0
0
0
0
0
0
0
0
0
0
0
0
0
0
0
0
0
0
0
0
0
0
0
0
0
0
0
0
0
0
0
0
0
0
0
0
0
0
0
0
0
0
0
0
0
0
0
0
0
0
)
;
    }
    procBoundary1to3
    {
        type            processor;
        value           nonuniform List<scalar> 
192
(
59933.4
171793
108577
274310
103051
349203
138668
210172
245437
234977
821805
111644
512290
502060
149914
316248
9.36673e+06
99351.6
1.16041e+06
270517
147011
182757
163671
182623
140432
93315.8
361003
64326.5
0
0
0
0
0
0
0
0
0
0
0
0
0
0
0
0
0
0
0
0
0
0
0
0
0
0
0
0
0
0
0
0
0
0
0
0
0
0
0
0
0
0
0
0
0
0
0
0
0
0
0
0
0
0
0
0
0
0
0
0
0
0
0
0
0
0
0
0
82279.8
77364.8
177666
114962
279905
326496
138687
145660
290074
609117
201371
210084
207234
175363
176063
135520
161600
509423
210501
300854
159332
170973
110395
182176
50356.7
43695.4
44404.4
93059.2
0
0
0
0
0
0
0
0
0
0
0
0
0
0
0
0
0
0
0
0
0
0
0
0
0
0
0
0
0
0
0
0
0
0
0
0
0
0
0
0
0
0
0
0
0
0
0
0
0
0
0
0
0
0
0
0
0
0
0
0
0
0
0
0
0
0
0
0
)
;
    }
}


// ************************************************************************* //
