/*--------------------------------*- C++ -*----------------------------------*\
| =========                 |                                                 |
| \\      /  F ield         | OpenFOAM: The Open Source CFD Toolbox           |
|  \\    /   O peration     | Version:  2506                                  |
|   \\  /    A nd           | Website:  www.openfoam.com                      |
|    \\/     M anipulation  |                                                 |
\*---------------------------------------------------------------------------*/
FoamFile
{
    version     2.0;
    format      ascii;
    arch        "LSB;label=32;scalar=64";
    class       volScalarField;
    location    "0.02";
    object      p;
}
// * * * * * * * * * * * * * * * * * * * * * * * * * * * * * * * * * * * * * //

dimensions      [0 2 -2 0 0 0 0];

internalField   nonuniform List<scalar> 
1152
(
8.55647
8.58716
8.5822
8.55829
8.59609
8.57988
8.60917
8.5288
8.57862
8.55921
8.53559
8.49238
8.58868
8.54505
8.48686
8.47604
7.64588
7.72627
7.61621
7.60338
7.63351
7.68926
7.41782
7.47599
7.57899
7.56559
7.51576
7.66054
7.47109
7.55469
7.56706
7.64651
5.94762
5.87918
5.90716
5.86073
5.90764
5.91323
5.80966
5.86846
5.80632
5.90878
5.8586
5.87699
5.81669
5.77761
5.82085
5.95093
4.44078
4.28257
4.27164
4.20599
4.16453
4.3017
4.35502
4.27294
4.09035
4.06864
4.24817
4.06988
3.9638
4.07107
4.0595
3.96393
2.70955
2.73195
2.70927
2.67763
2.6024
2.69796
2.83009
2.78888
2.75204
2.67117
2.69712
2.69444
2.70598
2.59213
2.64406
2.58992
1.22333
1.22209
1.29719
1.29201
1.35767
1.29081
1.28957
1.36496
1.34204
1.27426
1.25798
1.2624
1.60971
1.46829
1.15848
1.2105
1.01046
1.00942
1.01012
1.01293
1.01117
1.00674
1.01082
1.00744
1.00738
1.01304
1.00379
1.01063
1.00875
1.00323
1.00548
1.01046
1.00486
1.00482
1.0049
1.00532
1.00468
1.00438
1.00485
1.00514
1.0045
1.00484
1.00439
1.00524
1.00451
1.00451
1.0052
1.00544
1.00749
1.00752
1.00756
1.00782
1.00753
1.00745
1.00761
1.00771
1.00751
1.00764
1.00756
1.00784
1.00737
1.00735
1.0077
1.00794
1.00626
1.00629
1.00633
1.00644
1.00625
1.00626
1.00634
1.00645
1.00623
1.00629
1.00634
1.00649
1.00617
1.00621
1.00637
1.00652
1.00606
1.00609
1.00613
1.00621
1.00605
1.00609
1.00614
1.00622
1.00605
1.00609
1.00615
1.00624
1.00603
1.00608
1.00616
1.00626
1.00561
1.00564
1.00567
1.00572
1.00561
1.00564
1.00568
1.00573
1.00561
1.00564
1.00569
1.00575
1.0056
1.00564
1.00569
1.00576
1.00518
1.0052
1.00522
1.00525
1.00517
1.0052
1.00523
1.00526
1.00518
1.0052
1.00524
1.00527
1.00517
1.0052
1.00524
1.00528
1.00473
1.00475
1.00477
1.00479
1.00473
1.00475
1.00477
1.0048
1.00473
1.00476
1.00478
1.0048
1.00473
1.00476
1.00478
1.00481
1.00429
1.0043
1.00431
1.00433
1.00429
1.0043
1.00432
1.00433
1.00429
1.0043
1.00432
1.00434
1.00429
1.0043
1.00432
1.00434
1.00384
1.00385
1.00386
1.00387
1.00384
1.00385
1.00386
1.00387
1.00384
1.00385
1.00386
1.00387
1.00384
1.00385
1.00386
1.00388
1.00339
1.0034
1.0034
1.00341
1.00339
1.0034
1.0034
1.00341
1.00339
1.0034
1.00341
1.00341
1.00339
1.0034
1.00341
1.00341
1.00294
1.00294
1.00295
1.00295
1.00294
1.00294
1.00295
1.00295
1.00294
1.00294
1.00295
1.00296
1.00294
1.00294
1.00295
1.00296
1.00249
1.00249
1.00249
1.0025
1.00249
1.00249
1.00249
1.0025
1.00249
1.00249
1.0025
1.0025
1.00249
1.00249
1.0025
1.0025
1.00203
1.00204
1.00204
1.00204
1.00204
1.00204
1.00204
1.00204
1.00204
1.00204
1.00204
1.00204
1.00204
1.00204
1.00204
1.00204
1.00158
1.00159
1.00159
1.00159
1.00158
1.00159
1.00159
1.00159
1.00158
1.00159
1.00159
1.00159
1.00158
1.00159
1.00159
1.00159
1.00113
1.00113
1.00113
1.00113
1.00113
1.00113
1.00113
1.00113
1.00113
1.00113
1.00113
1.00113
1.00113
1.00113
1.00113
1.00114
1.00068
1.00068
1.00068
1.00068
1.00068
1.00068
1.00068
1.00068
1.00068
1.00068
1.00068
1.00068
1.00068
1.00068
1.00068
1.00068
1.00023
1.00023
1.00023
1.00023
1.00023
1.00023
1.00023
1.00023
1.00023
1.00023
1.00023
1.00023
1.00023
1.00023
1.00023
1.00023
8.55213
8.57891
8.52712
8.41928
8.58089
8.52866
8.47856
8.45469
8.55967
8.60271
8.50153
8.46579
8.55511
8.58722
8.55553
8.53297
7.82134
7.55221
7.53419
7.45541
7.65836
7.64572
7.67992
7.50223
7.63989
7.56955
7.65709
7.594
7.65991
7.62693
7.67237
7.4737
6.1826
5.96875
5.95553
5.89144
6.08835
6.01043
5.95576
5.93736
5.94372
5.9847
5.96109
5.96043
6.04813
5.96783
5.84907
5.91421
4.30866
4.30836
4.26502
4.31558
4.26592
4.33855
4.3676
4.35492
4.28539
4.33105
4.27918
4.22491
4.29616
4.25093
4.27944
4.25883
2.80061
2.82017
2.84775
2.8209
2.60733
2.75604
2.80601
2.72896
2.7761
2.69823
2.77945
2.72175
2.70215
2.71745
2.81334
2.72628
1.6859
1.5329
1.51077
1.36603
1.33106
1.31561
1.44537
1.38601
1.22359
1.21529
1.33286
1.27177
1.1453
1.30785
1.20914
1.32524
1.00265
1.01458
1.00884
1.01242
1.01816
1.01184
1.0067
1.00571
1.01278
1.01367
1.01109
1.01344
1.01116
1.00932
1.00821
1.01153
1.00378
1.00404
1.00443
1.00501
1.00447
1.00434
1.00463
1.00497
1.00484
1.00482
1.00494
1.00545
1.00493
1.00436
1.00489
1.00518
1.00652
1.00783
1.0075
1.00799
1.00719
1.00768
1.00738
1.00774
1.00734
1.00771
1.00751
1.00788
1.00745
1.00753
1.00747
1.0078
1.00624
1.00638
1.00622
1.00641
1.00633
1.00637
1.00625
1.0064
1.00629
1.00636
1.00629
1.00641
1.00628
1.0063
1.00629
1.00639
1.006
1.00616
1.0061
1.00626
1.00603
1.00614
1.0061
1.00624
1.00605
1.00613
1.00611
1.00623
1.00606
1.0061
1.00612
1.00621
1.00558
1.00566
1.00564
1.00572
1.00559
1.00566
1.00565
1.00572
1.0056
1.00565
1.00566
1.00572
1.00561
1.00564
1.00566
1.00571
1.00516
1.00521
1.00521
1.00526
1.00517
1.00521
1.00521
1.00526
1.00517
1.0052
1.00522
1.00526
1.00517
1.0052
1.00522
1.00525
1.00472
1.00475
1.00476
1.00479
1.00473
1.00475
1.00477
1.00479
1.00473
1.00475
1.00477
1.00479
1.00473
1.00475
1.00477
1.00479
1.00428
1.0043
1.00431
1.00433
1.00428
1.0043
1.00431
1.00433
1.00429
1.0043
1.00431
1.00433
1.00429
1.0043
1.00431
1.00433
1.00384
1.00385
1.00386
1.00387
1.00384
1.00385
1.00386
1.00387
1.00384
1.00385
1.00386
1.00387
1.00384
1.00385
1.00386
1.00387
1.00339
1.00339
1.0034
1.00341
1.00339
1.0034
1.0034
1.00341
1.00339
1.0034
1.0034
1.00341
1.00339
1.0034
1.0034
1.00341
1.00294
1.00294
1.00295
1.00295
1.00294
1.00294
1.00295
1.00295
1.00294
1.00294
1.00295
1.00295
1.00294
1.00294
1.00295
1.00295
1.00249
1.00249
1.00249
1.0025
1.00249
1.00249
1.00249
1.0025
1.00249
1.00249
1.00249
1.0025
1.00249
1.00249
1.00249
1.0025
1.00203
1.00204
1.00204
1.00204
1.00203
1.00204
1.00204
1.00204
1.00203
1.00204
1.00204
1.00204
1.00203
1.00204
1.00204
1.00204
1.00158
1.00158
1.00159
1.00159
1.00158
1.00158
1.00159
1.00159
1.00158
1.00158
1.00159
1.00159
1.00158
1.00158
1.00159
1.00159
1.00113
1.00113
1.00113
1.00113
1.00113
1.00113
1.00113
1.00113
1.00113
1.00113
1.00113
1.00113
1.00113
1.00113
1.00113
1.00113
1.00068
1.00068
1.00068
1.00068
1.00068
1.00068
1.00068
1.00068
1.00068
1.00068
1.00068
1.00068
1.00068
1.00068
1.00068
1.00068
1.00023
1.00023
1.00023
1.00023
1.00023
1.00023
1.00023
1.00023
1.00023
1.00023
1.00023
1.00023
1.00023
1.00023
1.00023
1.00023
8.48645
8.44323
8.40527
8.35714
8.5007
8.47432
8.39696
8.28104
8.49154
8.36253
8.29846
8.2847
8.52291
8.4041
8.31293
8.26928
7.42858
7.44424
7.50751
7.5399
7.42767
7.31534
7.27418
7.28446
7.41777
7.37513
7.29104
7.2536
7.304
7.40038
7.34511
6.88656
5.88486
5.90317
5.90334
5.86605
5.87551
5.82473
5.75469
5.91835
5.78156
5.77068
5.52371
5.29439
5.74567
5.63244
5.43822
5.00272
4.4255
4.28164
4.27758
4.3078
4.22378
4.23054
4.08784
4.06476
4.18747
4.15717
3.93764
3.908
4.25867
4.22023
4.04252
3.945
2.74797
2.76486
2.71583
2.54689
2.67703
2.69728
2.73745
2.75408
2.71597
2.82506
2.91176
3.02834
2.7479
2.82364
3.00589
3.44387
1.16446
1.26509
1.23561
1.27337
1.29598
1.31821
1.28929
1.13709
1.30316
1.18152
1.20983
1.21471
1.18028
1.15803
1.11289
1.24905
1.00948
1.01048
1.00764
1.01209
1.01221
1.01035
1.01608
1.01366
1.01123
1.01255
1.01699
1.01458
1.01262
1.01327
1.01526
1.02127
1.00545
1.00558
1.00545
1.00553
1.00571
1.0059
1.00627
1.00666
1.00577
1.00635
1.00708
1.0068
1.00618
1.00675
1.00765
1.00836
1.0079
1.00791
1.00791
1.00807
1.00804
1.00823
1.00855
1.00872
1.00811
1.0084
1.00883
1.00884
1.00821
1.00848
1.00895
1.00938
1.00648
1.0065
1.00652
1.00652
1.0066
1.00671
1.00684
1.00688
1.00666
1.00684
1.00702
1.00702
1.00671
1.00691
1.00713
1.00725
1.00627
1.00629
1.0063
1.00632
1.00631
1.00638
1.00643
1.00648
1.00634
1.00643
1.00651
1.00655
1.00637
1.00647
1.00657
1.00664
1.00575
1.00576
1.00576
1.00577
1.00578
1.00582
1.00585
1.00587
1.0058
1.00585
1.0059
1.00592
1.00582
1.00588
1.00593
1.00596
1.00528
1.00528
1.00529
1.00529
1.00529
1.00532
1.00533
1.00535
1.00531
1.00534
1.00536
1.00537
1.00532
1.00535
1.00538
1.0054
1.0048
1.00481
1.00481
1.00482
1.00482
1.00483
1.00484
1.00485
1.00483
1.00484
1.00486
1.00486
1.00483
1.00485
1.00487
1.00488
1.00434
1.00434
1.00434
1.00435
1.00435
1.00435
1.00436
1.00436
1.00435
1.00436
1.00437
1.00438
1.00435
1.00437
1.00438
1.00438
1.00388
1.00388
1.00388
1.00388
1.00388
1.00389
1.00389
1.00389
1.00388
1.00389
1.0039
1.0039
1.00389
1.00389
1.0039
1.0039
1.00341
1.00342
1.00342
1.00342
1.00342
1.00342
1.00342
1.00343
1.00342
1.00343
1.00343
1.00343
1.00342
1.00343
1.00343
1.00343
1.00296
1.00296
1.00296
1.00296
1.00296
1.00296
1.00296
1.00296
1.00296
1.00296
1.00297
1.00297
1.00296
1.00297
1.00297
1.00297
1.0025
1.0025
1.0025
1.0025
1.0025
1.0025
1.0025
1.00251
1.0025
1.0025
1.00251
1.00251
1.0025
1.00251
1.00251
1.00251
1.00204
1.00204
1.00205
1.00205
1.00205
1.00205
1.00205
1.00205
1.00205
1.00205
1.00205
1.00205
1.00205
1.00205
1.00205
1.00205
1.00159
1.00159
1.00159
1.00159
1.00159
1.00159
1.00159
1.00159
1.00159
1.00159
1.00159
1.00159
1.00159
1.00159
1.00159
1.00159
1.00114
1.00114
1.00114
1.00114
1.00114
1.00114
1.00114
1.00114
1.00114
1.00114
1.00114
1.00114
1.00114
1.00114
1.00114
1.00114
1.00068
1.00068
1.00068
1.00068
1.00068
1.00068
1.00068
1.00068
1.00068
1.00068
1.00068
1.00068
1.00068
1.00068
1.00068
1.00068
1.00023
1.00023
1.00023
1.00023
1.00023
1.00023
1.00023
1.00023
1.00023
1.00023
1.00023
1.00023
1.00023
1.00023
1.00023
1.00023
)
;

boundaryField
{
    inlet
    {
        type            zeroGradient;
    }
    outlet
    {
        type            fixedValue;
        value           uniform 1;
    }
    wall
    {
        type            zeroGradient;
    }
    procBoundary1to0
    {
        type            processor;
        value           nonuniform List<scalar> 
192
(
8.70583
8.68173
8.61775
8.62016
7.55986
7.45813
7.45139
7.61615
5.63498
5.78291
5.70606
5.55371
4.37239
4.30136
4.01226
4.12793
2.7343
2.74148
2.81892
2.96017
1.35528
1.44085
1.40411
1.54388
1.01077
1.00602
1.02102
1.01746
1.0049
1.00479
1.00533
1.00498
1.00753
1.00738
1.00804
1.00768
1.00626
1.00621
1.00634
1.0062
1.00605
1.00603
1.00606
1.00601
1.00559
1.00559
1.00559
1.00558
1.00516
1.00515
1.00515
1.00515
1.00472
1.00472
1.00472
1.00472
1.00428
1.00428
1.00428
1.00428
1.00383
1.00383
1.00383
1.00383
1.00338
1.00338
1.00338
1.00338
1.00293
1.00293
1.00293
1.00293
1.00248
1.00248
1.00248
1.00248
1.00203
1.00203
1.00203
1.00203
1.00158
1.00158
1.00158
1.00158
1.00113
1.00113
1.00113
1.00113
1.00068
1.00068
1.00068
1.00068
1.00023
1.00023
1.00023
1.00023
8.63739
8.57531
8.56086
8.60737
7.39784
7.48111
7.62857
7.43652
5.77666
5.97326
5.943
6.01689
4.28928
4.33941
4.3343
4.43384
2.83479
2.82622
2.7038
2.64411
1.49834
1.40522
1.20117
1.29255
1.02208
1.01057
1.01128
1.01159
1.00503
1.00467
1.00514
1.00483
1.00795
1.00744
1.00759
1.00756
1.0065
1.00637
1.00636
1.0063
1.00615
1.0061
1.00609
1.00607
1.00563
1.00562
1.00561
1.0056
1.00517
1.00517
1.00517
1.00516
1.00472
1.00472
1.00472
1.00472
1.00428
1.00428
1.00428
1.00428
1.00383
1.00383
1.00383
1.00383
1.00338
1.00338
1.00338
1.00338
1.00293
1.00293
1.00293
1.00293
1.00248
1.00248
1.00248
1.00248
1.00203
1.00203
1.00203
1.00203
1.00158
1.00158
1.00158
1.00158
1.00113
1.00113
1.00113
1.00113
1.00068
1.00068
1.00068
1.00068
1.00023
1.00023
1.00023
1.00023
)
;
    }
    procBoundary1to3
    {
        type            processor;
        value           nonuniform List<scalar> 
192
(
8.4856
8.5698
8.51102
8.54115
7.63116
7.55382
7.5213
7.33008
6.15436
5.94506
5.90143
5.90944
4.48211
3.86927
4.14571
4.41158
2.47835
2.59341
2.66196
2.61393
1.56735
1.54629
1.377
1.26646
1.00534
1.00429
0.989208
1.0107
1.00412
1.00447
1.00556
1.00562
1.0075
1.00759
1.00763
1.00789
1.00615
1.00621
1.0063
1.0065
1.00603
1.00609
1.00616
1.00626
1.0056
1.00565
1.0057
1.00576
1.00517
1.00521
1.00524
1.00528
1.00473
1.00476
1.00478
1.00481
1.00429
1.00431
1.00432
1.00434
1.00384
1.00385
1.00386
1.00388
1.00339
1.0034
1.00341
1.00342
1.00294
1.00294
1.00295
1.00296
1.00249
1.00249
1.0025
1.0025
1.00204
1.00204
1.00204
1.00204
1.00158
1.00159
1.00159
1.00159
1.00113
1.00113
1.00113
1.00114
1.00068
1.00068
1.00068
1.00068
1.00023
1.00023
1.00023
1.00023
8.46734
8.40925
8.32261
8.22643
7.55595
7.55956
7.23169
7.1408
5.78357
5.62214
5.70661
5.55184
4.20863
4.24246
4.26856
4.36257
2.66156
2.74266
2.76582
3.11052
1.29033
1.23784
1.30858
1.37226
1.01371
1.01106
1.02136
1.01317
1.00585
1.00613
1.00673
1.0066
1.0082
1.00839
1.00905
1.0089
1.00671
1.00683
1.00707
1.00703
1.00637
1.00646
1.00656
1.00659
1.00582
1.00587
1.00592
1.00594
1.00532
1.00535
1.00538
1.00539
1.00483
1.00485
1.00487
1.00488
1.00436
1.00437
1.00438
1.00438
1.00389
1.0039
1.0039
1.0039
1.00342
1.00343
1.00343
1.00343
1.00296
1.00297
1.00297
1.00297
1.0025
1.00251
1.00251
1.00251
1.00205
1.00205
1.00205
1.00205
1.00159
1.00159
1.00159
1.00159
1.00114
1.00114
1.00114
1.00114
1.00068
1.00068
1.00068
1.00068
1.00023
1.00023
1.00023
1.00023
)
;
    }
}


// ************************************************************************* //
