/*--------------------------------*- C++ -*----------------------------------*\
| =========                 |                                                 |
| \\      /  F ield         | OpenFOAM: The Open Source CFD Toolbox           |
|  \\    /   O peration     | Version:  2506                                  |
|   \\  /    A nd           | Website:  www.openfoam.com                      |
|    \\/     M anipulation  |                                                 |
\*---------------------------------------------------------------------------*/
FoamFile
{
    version     2.0;
    format      ascii;
    arch        "LSB;label=32;scalar=64";
    class       volVectorField;
    location    "0.02";
    object      stored_U;
}
// * * * * * * * * * * * * * * * * * * * * * * * * * * * * * * * * * * * * * //

dimensions      [0 1 -1 0 0 0 0];

internalField   nonuniform List<vector> 
1152
(
(0.00300423 -0.0015902 0.0171046)
(-0.000314069 -0.00010485 0.00879576)
(0.000134014 -0.00101699 0.00916531)
(0.000912207 -0.000236581 0.00710276)
(0.00109584 -0.00039509 0.0080141)
(-0.000290615 0.000111511 0.0113548)
(0.00021389 0.000159996 0.00542718)
(0.00096858 0.000493593 0.00779421)
(0.000656555 -8.76709e-05 0.00971234)
(0.000368395 0.000238925 0.00803534)
(0.00078076 0.00131292 0.00769695)
(0.000471135 0.000931958 0.0120187)
(0.00100853 0.000693873 0.00336703)
(0.00141257 -0.000126365 0.0108873)
(0.00123949 0.000658018 0.0141527)
(-0.0010745 -0.000904875 0.0129988)
(-0.00079013 0.000178326 0.00841424)
(0.000108387 -0.000208368 0.00802182)
(0.000491099 0.00115009 0.00903423)
(0.000696614 -8.29571e-05 0.00652018)
(-0.00104687 0.000284125 0.0097999)
(0.000852658 0.000622509 0.00718932)
(0.000889979 0.000425481 0.00876684)
(-5.45563e-05 -0.000402342 0.0131902)
(-0.000563172 0.000843913 0.0114173)
(0.000475043 0.000841978 0.0130723)
(-0.000483206 -0.000786627 0.0101531)
(0.000271476 -0.000490941 0.0070806)
(0.000288223 -8.43054e-05 0.00704926)
(-0.000238162 0.000107173 0.00445125)
(-6.84002e-05 6.02408e-05 0.000356083)
(0.00155728 0.0021141 0.0114388)
(-0.00295231 0.000670226 0.0301973)
(0.000154978 0.000200959 0.00833961)
(5.7614e-05 0.00011819 0.0148315)
(4.15404e-05 0.000111997 0.00322285)
(-0.000238141 0.000335544 0.00850488)
(0.000495477 -0.00016462 0.0115466)
(0.000380911 0.000202948 0.0181299)
(-0.000422211 -0.000185293 0.0150573)
(-0.000690544 0.000256795 0.0114643)
(-0.000109772 0.000527015 0.012924)
(0.000236847 -0.000210011 0.0126461)
(0.000388104 -0.000341803 0.0114664)
(-0.00182104 -0.00231192 0.0203078)
(0.000177094 -0.000104107 0.0185476)
(-0.00139436 -0.000309609 0.0278347)
(1.6546e-05 -2.04364e-05 0.000979374)
(2.21924e-05 0.000113345 0.00233971)
(0.00119273 -0.000566621 0.0173212)
(0.000169333 -0.000183563 0.00594391)
(-0.00110599 -6.85175e-05 0.0121552)
(-1.86193e-05 0.00117264 0.0102671)
(-0.000431409 0.000440763 0.00668737)
(0.000361557 -2.58067e-05 0.0204797)
(0.000835706 0.000712869 0.0138955)
(-0.000142981 0.000837615 0.0147441)
(-0.000363068 0.000380619 0.00818924)
(0.000210885 0.00121153 0.0112741)
(0.000277698 0.000770707 0.00660181)
(-1.02646e-05 -4.31772e-05 0.000811127)
(-0.000327968 0.00158939 0.0158397)
(0.000909484 0.00050359 0.00900595)
(-0.000178465 -0.000561981 0.00449045)
(-0.000103589 0.000764474 0.0210349)
(-6.20105e-05 7.85239e-05 0.0107742)
(0.00024656 -0.00011332 0.0155519)
(-0.000340136 -0.000282203 0.0119607)
(0.000152292 -0.000133057 0.0133217)
(-0.000663107 0.000221132 0.00696491)
(-0.000258333 1.88091e-05 0.00713392)
(0.000996496 -9.05004e-05 0.0120334)
(0.000411203 -0.000290368 0.00968689)
(0.000245479 0.000336694 0.0201494)
(-4.13797e-05 0.000440064 0.00652542)
(9.13119e-05 0.00173086 0.018752)
(0.00233828 0.004969 0.0200175)
(2.90053e-05 -0.000159161 0.000689838)
(0.00118749 0.00043372 0.0336891)
(-0.000454768 0.000620538 0.0147518)
(1.20437e-05 -7.47985e-05 0.00154943)
(-0.000519214 0.000251767 0.00894766)
(-0.000473419 -0.000470602 0.00717116)
(0.00142685 -0.000297579 0.0121172)
(0.00161773 -0.0011518 0.0142741)
(0.000198734 -3.00198e-05 0.00400409)
(-0.000513127 0.000303489 0.0098898)
(-6.61765e-05 9.6754e-05 0.00307228)
(0.000353107 -0.000696842 0.00402998)
(0.000659778 -0.000798786 0.00908254)
(5.93784e-05 0.000607291 0.00578402)
(-0.000102807 0.000356948 0.00267798)
(0.000277791 2.67802e-05 0.000746605)
(0.00258309 -0.00161119 0.00756509)
(0.000686903 -0.000276492 0.00437449)
(-8.0306e-05 7.57483e-05 0.00928419)
(-0.000298367 7.18675e-05 0.00913054)
(-0.00101268 -0.000237262 0.00967206)
(-0.00079242 9.04258e-05 0.00656021)
(-0.00084534 0.000308125 0.0103789)
(-0.000111687 0.000536183 0.00918682)
(0.000212657 -0.000666747 0.00336212)
(-7.04496e-05 0.000346235 0.00713689)
(0.000143637 0.000702936 0.00299672)
(-0.000402773 0.000803759 0.00547262)
(0.000180138 0.000354165 0.0139809)
(-0.000309494 -0.00020375 0.004279)
(5.96208e-05 0.000264541 0.00800705)
(1.40509e-05 0.000828799 0.00655948)
(0.00197242 -0.000857336 0.00566985)
(-0.00102909 0.000724836 0.0202163)
(-0.00018504 0.00033999 0.0102345)
(-0.000207593 0.000217605 0.0121366)
(-0.000227084 -0.000393182 0.0102)
(-0.000227526 -0.00042595 0.00956789)
(-0.00010285 -0.000248651 0.0117513)
(3.26008e-05 0.000146351 0.0124431)
(-0.000175766 -0.000410749 0.00780162)
(-0.000221939 -0.000205407 0.00900176)
(-0.00016777 -0.000133465 0.00626929)
(0.000107545 0.000224173 0.0108494)
(-0.000170743 -0.000108031 0.0131295)
(-7.61344e-05 -0.00081696 0.00953639)
(-0.000139513 -0.00033252 0.00913676)
(0.000288244 0.000293065 0.0100787)
(-0.000774608 0.000440978 0.00995358)
(-0.000799631 0.000386238 0.0163567)
(0.000406882 0.000306303 0.012458)
(0.000220493 0.000185696 0.00327815)
(0.000375193 0.000476358 0.00281588)
(0.00013206 0.000180028 0.00261428)
(3.22487e-05 0.000503383 0.00287856)
(0.00018157 -4.52406e-05 0.00294668)
(0.000392011 -0.000317861 0.00217684)
(0.000226557 -0.000293017 0.00220017)
(-2.56443e-05 3.54342e-05 0.00191363)
(0.000338825 -0.000193197 0.00308482)
(0.000197443 -0.000783129 0.00335944)
(0.000432241 -0.0010654 0.00253161)
(0.000290103 -0.000786769 0.00217946)
(-0.000142183 -0.000527675 0.00296191)
(-0.000445042 -0.000777671 0.00324735)
(0.000134627 -0.000609028 0.00380596)
(0.000597859 -0.00062142 0.00288439)
(0.000122089 0.000115369 0.00659652)
(0.000213311 0.000200132 0.00640865)
(0.000157838 5.75016e-05 0.00622633)
(9.12041e-05 8.83156e-05 0.00629058)
(0.000102045 -3.41253e-05 0.00644448)
(0.00019242 -0.00011875 0.00614817)
(0.000142682 -0.000122341 0.00605433)
(-1.49777e-06 -4.31338e-05 0.0059296)
(0.000107301 -0.000114318 0.00660367)
(0.000135675 -0.000308882 0.00662217)
(0.000218813 -0.00036203 0.00633082)
(8.45771e-05 -0.000294941 0.00612234)
(-8.65068e-05 -0.000129431 0.00661344)
(-5.45252e-05 -0.000214362 0.00679908)
(0.000139004 -0.000185266 0.00683346)
(0.000139939 -0.000248611 0.00650751)
(9.69979e-05 3.33544e-05 0.00549634)
(0.000120262 7.51778e-05 0.00543967)
(9.34454e-05 3.02789e-05 0.00535782)
(2.55946e-05 6.32699e-05 0.00534476)
(8.33265e-05 -2.66649e-05 0.00543527)
(0.000112944 -5.07093e-05 0.00536292)
(9.12725e-05 -5.42863e-05 0.00531225)
(1.36899e-05 -2.14704e-05 0.00527709)
(6.5469e-05 -7.167e-05 0.00550618)
(9.47904e-05 -0.000140577 0.00550791)
(0.000118795 -0.000150286 0.00541432)
(5.40571e-05 -0.000130178 0.0053512)
(-1.43436e-05 -6.59525e-05 0.00550404)
(3.45219e-05 -0.00010995 0.00556651)
(9.94063e-05 -0.000113844 0.0055397)
(6.51333e-05 -0.000137207 0.00546384)
(6.44587e-05 3.00438e-06 0.00567549)
(7.21467e-05 1.74273e-05 0.00565205)
(6.53215e-05 -3.41325e-06 0.00561031)
(3.71489e-05 5.05659e-07 0.0055984)
(5.69008e-05 -1.79551e-05 0.00565528)
(6.6558e-05 -2.63453e-05 0.00562896)
(5.83923e-05 -3.24375e-05 0.00559758)
(2.669e-05 -2.67716e-05 0.00558143)
(4.46462e-05 -3.53121e-05 0.00568753)
(5.84866e-05 -5.88222e-05 0.00568056)
(6.38033e-05 -6.3433e-05 0.00564095)
(3.72677e-05 -5.90815e-05 0.00561389)
(1.65758e-05 -3.19509e-05 0.00569609)
(3.86996e-05 -4.98901e-05 0.00571578)
(5.78318e-05 -5.3773e-05 0.00568954)
(3.91941e-05 -5.79235e-05 0.00566323)
(4.42105e-05 -4.64516e-06 0.00566642)
(4.48831e-05 4.96083e-07 0.00565386)
(4.02636e-05 -6.41198e-06 0.00563007)
(2.60342e-05 -3.99071e-06 0.00561232)
(4.06041e-05 -1.16553e-05 0.00566261)
(4.2642e-05 -1.48133e-05 0.00565033)
(3.78634e-05 -1.76757e-05 0.00563309)
(2.3783e-05 -1.56104e-05 0.00562102)
(3.41199e-05 -1.84385e-05 0.0056758)
(3.91917e-05 -2.64139e-05 0.00566929)
(3.91535e-05 -2.85213e-05 0.00565204)
(2.81353e-05 -2.65793e-05 0.00563887)
(2.39931e-05 -1.79247e-05 0.00568155)
(3.26644e-05 -2.46839e-05 0.0056848)
(3.75858e-05 -2.61692e-05 0.0056711)
(2.94234e-05 -2.52212e-05 0.00565951)
(3.10918e-05 -5.16456e-06 0.00566777)
(3.02313e-05 -3.40857e-06 0.00565944)
(2.70244e-05 -5.34589e-06 0.00564557)
(1.99401e-05 -4.33156e-06 0.00563027)
(2.95495e-05 -7.69643e-06 0.00566885)
(2.94331e-05 -9.03793e-06 0.00566121)
(2.64145e-05 -1.00418e-05 0.00565114)
(1.97652e-05 -9.07827e-06 0.00564172)
(2.65376e-05 -1.04735e-05 0.00567447)
(2.8037e-05 -1.33441e-05 0.00566899)
(2.69183e-05 -1.40638e-05 0.00565993)
(2.17864e-05 -1.28429e-05 0.00565155)
(2.27055e-05 -1.09108e-05 0.00567814)
(2.59145e-05 -1.33202e-05 0.00567596)
(2.68015e-05 -1.35212e-05 0.00566829)
(2.28026e-05 -1.1934e-05 0.00566081)
(2.22113e-05 -4.09121e-06 0.00567002)
(2.12103e-05 -3.39228e-06 0.00566381)
(1.89583e-05 -3.63837e-06 0.00565442)
(1.50242e-05 -3.0558e-06 0.00564041)
(2.1655e-05 -5.19673e-06 0.00567224)
(2.10809e-05 -5.67743e-06 0.00566682)
(1.90634e-05 -5.83875e-06 0.00566014)
(1.5536e-05 -5.18403e-06 0.00565203)
(2.0415e-05 -6.4581e-06 0.005675)
(2.06458e-05 -7.4732e-06 0.00567058)
(1.946e-05 -7.54271e-06 0.00566483)
(1.66415e-05 -6.664e-06 0.00565842)
(1.89147e-05 -6.99695e-06 0.00567726)
(2.00382e-05 -7.82202e-06 0.00567401)
(1.97771e-05 -7.56755e-06 0.00566888)
(1.73971e-05 -6.3067e-06 0.00566308)
(1.5988e-05 -2.97479e-06 0.00567188)
(1.51869e-05 -2.56751e-06 0.0056671)
(1.36247e-05 -2.31974e-06 0.00565992)
(1.12186e-05 -1.90419e-06 0.00564689)
(1.58959e-05 -3.59205e-06 0.00567417)
(1.53303e-05 -3.67273e-06 0.00567015)
(1.39462e-05 -3.51522e-06 0.00566524)
(1.1845e-05 -3.01206e-06 0.00565806)
(1.54602e-05 -4.26226e-06 0.00567578)
(1.53094e-05 -4.55563e-06 0.00567228)
(1.43096e-05 -4.38395e-06 0.00566817)
(1.25281e-05 -3.74018e-06 0.00566288)
(1.48976e-05 -4.69083e-06 0.00567718)
(1.52353e-05 -4.92478e-06 0.00567414)
(1.46895e-05 -4.60441e-06 0.00567034)
(1.30577e-05 -3.74859e-06 0.00566558)
(1.15489e-05 -2.12328e-06 0.00567314)
(1.09659e-05 -1.8015e-06 0.00566939)
(9.88233e-06 -1.45468e-06 0.00566344)
(8.30861e-06 -1.12929e-06 0.00565112)
(1.16514e-05 -2.53613e-06 0.00567528)
(1.1201e-05 -2.44777e-06 0.00567223)
(1.02266e-05 -2.20254e-06 0.00566839)
(8.86014e-06 -1.8079e-06 0.0056619)
(1.15592e-05 -2.94653e-06 0.00567638)
(1.13291e-05 -2.97012e-06 0.00567365)
(1.05456e-05 -2.74729e-06 0.00567051)
(9.31594e-06 -2.27953e-06 0.00566598)
(1.13786e-05 -3.26034e-06 0.00567729)
(1.14182e-05 -3.28393e-06 0.00567475)
(1.08648e-05 -3.01768e-06 0.00567181)
(9.6745e-06 -2.46733e-06 0.00566782)
(8.33892e-06 -1.51371e-06 0.00567402)
(7.92645e-06 -1.24536e-06 0.00567102)
(7.17082e-06 -9.27883e-07 0.00566582)
(6.10106e-06 -6.75273e-07 0.00565404)
(8.49813e-06 -1.81313e-06 0.00567602)
(8.16254e-06 -1.67413e-06 0.00567367)
(7.46841e-06 -1.4373e-06 0.00567052)
(6.53275e-06 -1.1369e-06 0.00566457)
(8.538e-06 -2.08904e-06 0.00567686)
(8.32257e-06 -2.02736e-06 0.00567474)
(7.72698e-06 -1.82743e-06 0.00567226)
(6.84919e-06 -1.49481e-06 0.00566829)
(8.50597e-06 -2.31835e-06 0.00567749)
(8.43662e-06 -2.27915e-06 0.00567546)
(7.9634e-06 -2.08447e-06 0.00567315)
(7.08601e-06 -1.73403e-06 0.00566974)
(5.9856e-06 -1.07676e-06 0.00567466)
(5.69707e-06 -8.6216e-07 0.00567219)
(5.17009e-06 -6.08438e-07 0.0056675)
(4.43079e-06 -4.1942e-07 0.00565612)
(6.14084e-06 -1.29964e-06 0.00567655)
(5.89691e-06 -1.16462e-06 0.00567471)
(5.40315e-06 -9.69918e-07 0.00567206)
(4.74932e-06 -7.49337e-07 0.0056665)
(6.21821e-06 -1.4956e-06 0.00567724)
(6.04098e-06 -1.41872e-06 0.0056756)
(5.59978e-06 -1.26228e-06 0.0056736)
(4.97112e-06 -1.02958e-06 0.00567005)
(6.23797e-06 -1.66338e-06 0.00567771)
(6.13898e-06 -1.61421e-06 0.00567612)
(5.76559e-06 -1.47846e-06 0.00567428)
(5.12669e-06 -1.25415e-06 0.00567132)
(4.23612e-06 -7.57403e-07 0.00567512)
(4.0363e-06 -5.94832e-07 0.00567302)
(3.67271e-06 -4.05407e-07 0.00566869)
(3.16187e-06 -2.68603e-07 0.0056576)
(4.36531e-06 -9.23222e-07 0.00567693)
(4.19036e-06 -8.11513e-07 0.00567546)
(3.84479e-06 -6.64154e-07 0.00567316)
(3.38892e-06 -5.07558e-07 0.0056679)
(4.44264e-06 -1.0652e-06 0.00567753)
(4.30528e-06 -9.9517e-07 0.00567624)
(3.98717e-06 -8.80851e-07 0.00567459)
(3.54267e-06 -7.21166e-07 0.00567135)
(4.47479e-06 -1.1851e-06 0.00567789)
(4.38079e-06 -1.14301e-06 0.00567665)
(4.09996e-06 -1.05158e-06 0.00567517)
(3.64234e-06 -9.07909e-07 0.00567253)
(2.91511e-06 -5.19438e-07 0.00567542)
(2.77916e-06 -4.01862e-07 0.00567359)
(2.5339e-06 -2.67456e-07 0.00566951)
(2.18722e-06 -1.72079e-07 0.00565863)
(3.01351e-06 -6.38118e-07 0.00567718)
(2.89065e-06 -5.53222e-07 0.00567598)
(2.65519e-06 -4.48461e-07 0.00567393)
(2.34443e-06 -3.41206e-07 0.00566889)
(3.07805e-06 -7.36251e-07 0.00567772)
(2.97553e-06 -6.81133e-07 0.0056767)
(2.75321e-06 -6.02159e-07 0.00567531)
(2.44742e-06 -4.96376e-07 0.00567229)
(3.10618e-06 -8.18496e-07 0.005678)
(3.02885e-06 -7.89484e-07 0.00567703)
(2.82691e-06 -7.3126e-07 0.00567581)
(2.50806e-06 -6.41258e-07 0.00567342)
(1.89435e-06 -3.32179e-07 0.00567562)
(1.80713e-06 -2.52018e-07 0.00567397)
(1.64952e-06 -1.62741e-07 0.00567005)
(1.42646e-06 -1.00546e-07 0.00565932)
(1.964e-06 -4.09958e-07 0.00567734)
(1.88231e-06 -3.50766e-07 0.00567632)
(1.72974e-06 -2.8095e-07 0.00567444)
(1.5293e-06 -2.11314e-07 0.00566955)
(2.01201e-06 -4.73892e-07 0.00567783)
(1.94041e-06 -4.34416e-07 0.005677)
(1.79369e-06 -3.82052e-07 0.00567578)
(1.59446e-06 -3.15291e-07 0.00567293)
(2.03268e-06 -5.25704e-07 0.00567807)
(1.97676e-06 -5.08087e-07 0.00567728)
(1.8403e-06 -4.73882e-07 0.00567625)
(1.62927e-06 -4.20156e-07 0.00567402)
(1.0948e-06 -1.50755e-07 0.00567573)
(1.0465e-06 -1.02641e-07 0.00567419)
(9.58965e-07 -5.11481e-08 0.00567038)
(8.33699e-07 -1.86656e-08 0.00565974)
(1.13752e-06 -1.9165e-07 0.00567743)
(1.09183e-06 -1.55198e-07 0.00567653)
(1.00466e-06 -1.14488e-07 0.00567475)
(8.90862e-07 -7.54133e-08 0.00566996)
(1.16759e-06 -2.2594e-07 0.00567789)
(1.12606e-06 -2.01423e-07 0.00567717)
(1.0415e-06 -1.70568e-07 0.00567607)
(9.26365e-07 -1.3353e-07 0.00567331)
(1.18108e-06 -2.52633e-07 0.0056781)
(1.14872e-06 -2.42917e-07 0.00567743)
(1.06772e-06 -2.26223e-07 0.00567651)
(9.42899e-07 -1.99317e-07 0.00567439)
(5.45816e-07 8.31983e-08 0.00567574)
(5.33298e-07 1.04177e-07 0.00567428)
(5.00172e-07 1.24918e-07 0.00567053)
(4.43167e-07 1.34893e-07 0.00565995)
(5.653e-07 8.26248e-08 0.00567745)
(5.51947e-07 9.78317e-08 0.00567661)
(5.16913e-07 1.12192e-07 0.0056749)
(4.66034e-07 1.23675e-07 0.00567017)
(5.77764e-07 7.86709e-08 0.00567791)
(5.64032e-07 8.70325e-08 0.00567726)
(5.27511e-07 9.55246e-08 0.00567622)
(4.74273e-07 1.04476e-07 0.00567352)
(5.81567e-07 7.09343e-08 0.00567812)
(5.69746e-07 7.13458e-08 0.00567751)
(5.32658e-07 7.23338e-08 0.00567665)
(4.72762e-07 7.51772e-08 0.00567459)
(0.000723691 -0.000564053 0.0112578)
(-3.57255e-05 0.000424648 0.00551012)
(0.00042499 0.000625924 0.00535889)
(0.00116063 0.000121448 0.0081042)
(0.000195259 1.59889e-05 0.00678555)
(0.00104967 -0.000158462 0.01119)
(0.000523427 0.00102077 0.0141384)
(0.000737052 -0.000446496 0.00866532)
(-0.000650802 0.000230995 0.00934761)
(1.90651e-05 -0.000171132 0.00401195)
(0.00189123 -0.000907151 0.0108743)
(0.00101147 -0.00177581 0.0117751)
(9.17007e-05 -0.000210247 0.010065)
(-9.01249e-05 0.00025883 0.00987927)
(0.000484421 -0.00106047 0.00850914)
(0.000156577 -0.000360201 0.00271379)
(-0.000656171 0.000960033 0.00903677)
(0.00130864 -0.000406859 0.0126142)
(0.000568461 -0.00068729 0.0104839)
(0.00028959 -0.000694792 0.0170115)
(-0.000744135 0.000841678 0.00838849)
(-0.000141653 -0.00012811 0.011879)
(0.000516923 -0.000379838 0.00780585)
(0.000807709 -0.000510326 0.00804281)
(0.000188592 0.000173502 0.0128589)
(-0.00022024 8.60617e-05 0.00928995)
(-0.000260071 -9.26428e-06 0.0112849)
(0.00070096 0.00075473 0.00946905)
(-0.00135614 1.12857e-05 0.0128654)
(-2.97537e-05 -0.000361845 0.00552568)
(0.000530162 0.000612618 0.0100901)
(0.000997398 0.00100007 0.011275)
(-0.00041492 0.00038834 0.00857752)
(0.000912224 -1.70706e-05 0.0131867)
(0.000114949 0.000165542 0.0109784)
(0.000404232 -0.000207531 0.0146477)
(-0.000236049 0.00121938 0.0118191)
(0.000499802 0.000124818 0.0132775)
(0.00032454 0.000164825 0.0188796)
(0.00042043 -0.000486557 0.016344)
(-0.000322611 0.000372856 0.0135823)
(-0.000277775 0.000298222 0.0111292)
(-6.25421e-05 0.000754798 0.0147655)
(6.97117e-06 0.000263953 0.00637118)
(-5.44118e-05 0.000161457 0.00065134)
(0.00111434 0.00102034 0.0200629)
(6.54334e-05 0.000211054 0.0037711)
(-0.000705851 0.00101477 0.0234418)
(2.81245e-05 7.83354e-05 0.00344944)
(0.000249711 -0.000111099 0.0166258)
(7.16896e-05 -0.000529601 0.0107498)
(-0.000186091 -0.000583051 0.0231998)
(-6.01364e-05 6.30946e-05 0.0052171)
(-0.000473003 -0.000114956 0.013153)
(-0.000125289 1.60145e-05 0.0130809)
(-0.000112111 0.000561599 0.00723328)
(-0.000140267 -0.000344011 0.0192494)
(-0.000171355 0.000441277 0.0097169)
(0.000121859 0.000764697 0.012139)
(-0.000228442 0.00043804 0.00700057)
(0.000508068 -0.000671526 0.00956189)
(-8.13366e-05 0.000197573 0.00279885)
(-0.000161382 -5.70128e-05 0.0200316)
(-0.000352978 -0.00034588 0.00912788)
(2.41678e-05 0.00058262 0.00702613)
(-0.000418201 0.000456021 0.0140546)
(-0.00021966 0.000359486 0.0160476)
(0.000390352 0.00165745 0.0161315)
(0.00018049 -1.74231e-05 0.0131204)
(-0.00116773 0.000685878 0.011988)
(-9.76465e-05 0.000645809 0.0105451)
(-0.000374966 0.000810619 0.00928969)
(-3.92497e-06 -0.000857615 0.0164622)
(-0.000214594 0.000221364 0.00831978)
(-0.000272495 6.79744e-05 0.0182563)
(-0.000108217 0.000123018 0.0141023)
(-0.00032467 0.000189308 0.00767681)
(-0.00108993 -0.000688246 0.0211183)
(-0.000195582 0.00018157 0.00369599)
(0.000615816 0.000931369 0.0231843)
(5.11032e-05 4.37892e-05 0.00033682)
(-0.000341674 0.00174847 0.0104756)
(0.000162381 0.000414413 0.00539509)
(0.00105632 0.000463449 0.0105654)
(0.000519894 0.00343004 0.0133013)
(-0.000996918 0.00196188 0.00758943)
(-0.000989883 0.00125613 0.008821)
(0.000337194 0.00157607 0.00992586)
(-4.77643e-05 0.000763453 0.00537067)
(-0.000785746 5.53986e-05 0.00861848)
(-0.00083008 0.00158828 0.00714615)
(-0.000104643 0.000539236 0.00622201)
(-0.00021884 -7.07866e-05 0.00600067)
(-0.000449581 -8.86212e-07 0.00447865)
(-0.000464908 0.00019447 0.00687195)
(-0.000138126 -0.000121524 0.00728128)
(0.004604 0.000273098 0.0243165)
(-0.00158676 -0.00151962 0.00445842)
(-0.000981637 0.000167184 0.00670951)
(-0.000303434 0.000122377 0.0111061)
(0.000231104 0.000625026 0.0129414)
(-9.46214e-05 0.000460483 0.0102949)
(-7.05375e-05 -0.000279183 0.0048296)
(-0.00045528 -0.000129928 0.00363879)
(-0.000242872 0.000261537 0.0091412)
(8.54116e-05 0.000912346 0.00983752)
(-0.000853221 0.000633826 0.0084475)
(-0.000405704 4.69392e-05 0.0123595)
(-0.000866936 -0.00113181 0.00872147)
(-0.00355021 -0.00260423 0.00534671)
(-0.000967539 0.000451997 0.00835765)
(-0.000799628 2.80701e-05 0.00763541)
(0.00102053 0.000952007 -0.00486862)
(0.00103759 4.71156e-05 0.0148977)
(-0.000221483 -4.63913e-05 0.00954969)
(-0.000286123 3.46011e-05 0.0122356)
(-0.000361032 0.00145246 0.0132338)
(0.000881958 3.51419e-05 0.0135619)
(8.66472e-05 -2.89187e-06 0.00862391)
(-0.000152701 -0.000107361 0.00841881)
(-0.000295633 0.000827657 0.0131884)
(0.000361757 0.000396875 0.0146464)
(1.75851e-05 -6.09214e-05 0.0116588)
(-7.17857e-05 -0.0002095 0.0119252)
(-0.000140956 0.000307018 0.0132666)
(-0.000131347 -0.000108807 0.01236)
(-0.000306491 -0.00016766 0.00990777)
(-0.000198419 -0.000103806 0.0117564)
(0.000237169 -0.00150261 0.00309081)
(-0.00109062 -3.26966e-05 0.00314151)
(0.00033935 1.36074e-05 0.00215869)
(-0.000469655 -5.82684e-05 0.00286815)
(-3.73594e-05 -0.00201866 0.00419454)
(-0.000128299 0.00013533 0.00319258)
(0.000549646 -0.000267223 0.00227285)
(-0.000294072 -4.30228e-05 0.00258611)
(-4.74548e-05 -0.000805021 0.00396141)
(4.93761e-05 0.000263871 0.00356213)
(0.000447633 -0.000187296 0.00293378)
(-7.0087e-06 -4.80018e-05 0.00306696)
(0.000137361 -0.000211574 0.00379823)
(0.000260632 0.000546077 0.00329107)
(0.000229255 0.000164368 0.00288193)
(-2.92325e-05 0.000229596 0.00303937)
(0.000126831 -0.000391525 0.00477475)
(-9.81416e-05 1.33551e-05 0.00670868)
(0.000237798 -4.14925e-06 0.00575008)
(-0.000123255 -7.16222e-05 0.006319)
(8.3219e-05 -0.000570096 0.00613703)
(0.000134888 4.59385e-05 0.00671124)
(0.000319172 -0.000135938 0.00595472)
(-6.30594e-05 -5.73491e-05 0.00627673)
(8.00818e-05 -0.000244915 0.00655773)
(0.000176033 0.000108034 0.00681166)
(0.000295866 -9.14929e-05 0.00628622)
(1.79714e-05 -6.64108e-06 0.00641703)
(0.00010734 -3.66484e-05 0.00672534)
(0.0002199 0.0002062 0.00669079)
(0.000240737 2.23844e-05 0.00632513)
(5.96596e-05 3.82292e-05 0.00640361)
(7.61357e-05 -0.000128814 0.00490473)
(-2.8694e-05 3.68205e-05 0.00537146)
(9.52191e-05 5.20203e-06 0.00497454)
(-7.30951e-05 -1.70769e-05 0.00515129)
(7.85439e-05 -0.000217428 0.00532602)
(4.18834e-05 5.73175e-05 0.00547391)
(0.000118206 -4.93419e-05 0.00514345)
(-6.2637e-05 8.27378e-06 0.00523548)
(8.47472e-05 -0.000138027 0.00548048)
(8.07815e-05 5.10653e-05 0.00553342)
(0.000118817 -5.5784e-05 0.00529366)
(-2.21151e-05 1.9095e-05 0.00531029)
(9.23068e-05 -4.50317e-05 0.00554087)
(0.000108423 7.49597e-05 0.0055191)
(0.000106606 -7.26399e-06 0.00535594)
(9.16111e-06 4.08005e-05 0.00533596)
(5.04142e-05 -4.8203e-05 0.00531374)
(1.72449e-05 1.64979e-05 0.00552302)
(6.68092e-05 5.91493e-06 0.00532902)
(-1.03355e-05 -5.3834e-06 0.00541855)
(5.66616e-05 -8.94329e-05 0.00551903)
(3.93873e-05 2.14672e-05 0.00561488)
(7.74208e-05 -2.28104e-05 0.00545686)
(-4.6258e-06 -5.18518e-07 0.00550719)
(6.11889e-05 -6.29178e-05 0.00562786)
(5.68822e-05 2.20392e-05 0.00566478)
(7.74041e-05 -2.41819e-05 0.00555333)
(9.22797e-06 5.68335e-06 0.00556799)
(6.45433e-05 -2.6146e-05 0.00567877)
(6.94801e-05 2.32759e-05 0.00567497)
(7.38659e-05 -1.18278e-05 0.00560351)
(2.65921e-05 3.70994e-06 0.00559561)
(3.53663e-05 -1.59595e-05 0.00539616)
(2.04814e-05 1.00326e-05 0.00546841)
(3.42797e-05 5.8666e-06 0.00536699)
(1.07037e-06 2.99755e-06 0.00537839)
(3.91737e-05 -3.36168e-05 0.00554431)
(2.83528e-05 1.0014e-05 0.00557863)
(3.93803e-05 -7.37226e-06 0.0054912)
(3.54772e-06 3.51582e-06 0.00548416)
(4.23368e-05 -2.72172e-05 0.00562455)
(3.67463e-05 7.33349e-06 0.00563376)
(4.09791e-05 -1.07631e-05 0.00557117)
(1.10161e-05 2.68626e-06 0.00555194)
(4.44326e-05 -1.45905e-05 0.00566038)
(4.31046e-05 4.57136e-06 0.00565381)
(4.1575e-05 -8.27905e-06 0.00561403)
(2.01145e-05 -3.44023e-07 0.00559027)
(2.53186e-05 -4.96908e-06 0.00543943)
(1.82844e-05 6.10974e-06 0.00545721)
(2.0811e-05 5.33135e-06 0.00540301)
(6.25081e-06 4.55617e-06 0.00539043)
(2.75303e-05 -1.27011e-05 0.00556539)
(2.15317e-05 4.25223e-06 0.00557002)
(2.33414e-05 -1.47666e-06 0.00552051)
(8.00414e-06 2.74576e-06 0.00549682)
(2.96232e-05 -1.17435e-05 0.00563171)
(2.56743e-05 1.50184e-06 0.00562829)
(2.49503e-05 -4.17828e-06 0.00559255)
(1.17772e-05 7.39892e-07 0.00556647)
(3.10075e-05 -7.99157e-06 0.00565993)
(2.90262e-05 -9.25477e-07 0.0056525)
(2.65011e-05 -4.71386e-06 0.00562996)
(1.64189e-05 -1.7237e-06 0.00560672)
(1.81102e-05 -1.25298e-06 0.00545841)
(1.44721e-05 3.85413e-06 0.00545525)
(1.34764e-05 4.36338e-06 0.00542045)
(6.66101e-06 4.35066e-06 0.00539653)
(1.94696e-05 -4.8235e-06 0.00557719)
(1.61459e-05 1.86803e-06 0.00556948)
(1.4994e-05 6.48881e-07 0.00553579)
(7.95065e-06 2.33883e-06 0.00550412)
(2.08964e-05 -5.23325e-06 0.00563761)
(1.83862e-05 -1.61838e-07 0.00562933)
(1.6435e-05 -1.3161e-06 0.00560464)
(1.00823e-05 4.41851e-07 0.00557505)
(2.19288e-05 -4.53044e-06 0.00566222)
(2.03272e-05 -1.83002e-06 0.00565493)
(1.80061e-05 -2.49925e-06 0.00563944)
(1.2703e-05 -1.32186e-06 0.00561619)
(1.29136e-05 -7.0266e-08 0.00546696)
(1.08919e-05 2.58534e-06 0.00545683)
(9.26662e-06 3.41098e-06 0.00542989)
(5.70218e-06 3.63178e-06 0.00540221)
(1.3817e-05 -1.88094e-06 0.0055834)
(1.19022e-05 1.00534e-06 0.00557176)
(1.02784e-05 1.20356e-06 0.00554444)
(6.6329e-06 1.98315e-06 0.0055102)
(1.48314e-05 -2.53308e-06 0.00564142)
(1.32478e-05 -3.75674e-07 0.00563212)
(1.14338e-05 -2.01576e-07 0.00561195)
(7.94492e-06 5.33199e-07 0.00558149)
(1.56239e-05 -2.72992e-06 0.00566441)
(1.44897e-05 -1.50138e-06 0.0056579)
(1.27242e-05 -1.27974e-06 0.00564549)
(9.58329e-06 -7.02369e-07 0.0056227)
(9.19486e-06 2.39666e-07 0.00547091)
(7.98738e-06 1.81709e-06 0.00545906)
(6.58547e-06 2.58892e-06 0.00543519)
(4.48465e-06 2.85826e-06 0.00540654)
(9.83154e-06 -7.83234e-07 0.00558661)
(8.65671e-06 6.82318e-07 0.00557429)
(7.29279e-06 1.18422e-06 0.0055495)
(5.15501e-06 1.63811e-06 0.0055147)
(1.05731e-05 -1.37e-06 0.00564369)
(9.54399e-06 -2.56393e-07 0.0056347)
(8.16417e-06 1.91178e-07 0.00561645)
(6.02353e-06 5.87529e-07 0.00558605)
(1.11865e-05 -1.74701e-06 0.00566595)
(1.04039e-05 -1.03438e-06 0.00566031)
(9.14326e-06 -6.32804e-07 0.00564939)
(7.1237e-06 -2.71867e-07 0.00562712)
(6.54141e-06 2.67352e-07 0.00547291)
(5.77632e-06 1.30179e-06 0.005461)
(4.73667e-06 1.92606e-06 0.00543844)
(3.38799e-06 2.17332e-06 0.00540973)
(7.00408e-06 -3.66519e-07 0.0055884)
(6.24627e-06 5.11568e-07 0.00557637)
(5.24096e-06 9.91805e-07 0.0055527)
(3.87165e-06 1.29968e-06 0.00551797)
(7.54979e-06 -8.21928e-07 0.00564511)
(6.86573e-06 -1.35427e-07 0.0056367)
(5.88122e-06 2.92365e-07 0.00561942)
(4.47142e-06 5.47591e-07 0.0055893)
(8.01926e-06 -1.16844e-06 0.00566703)
(7.48334e-06 -6.80895e-07 0.00566211)
(6.60068e-06 -3.04835e-07 0.00565203)
(5.23693e-06 -5.42172e-08 0.00563022)
(4.63727e-06 2.22356e-07 0.00547404)
(4.13606e-06 9.34551e-07 0.00546247)
(3.40283e-06 1.40852e-06 0.00544056)
(2.49672e-06 1.61304e-06 0.00541201)
(4.97482e-06 -1.92336e-07 0.00558951)
(4.4723e-06 3.89505e-07 0.00557791)
(3.76373e-06 7.7384e-07 0.00555484)
(2.84373e-06 9.95333e-07 0.00552031)
(5.37405e-06 -5.26054e-07 0.00564606)
(4.91372e-06 -5.99894e-08 0.00563817)
(4.22667e-06 2.82775e-07 0.00562144)
(3.26423e-06 4.58407e-07 0.0055916)
(5.72597e-06 -7.99507e-07 0.0056678)
(5.35982e-06 -4.46097e-07 0.00566342)
(4.7461e-06 -1.44737e-07 0.00565387)
(3.80294e-06 3.21305e-08 0.00563241)
(3.25242e-06 1.68315e-07 0.00547473)
(2.92025e-06 6.64066e-07 0.0054635)
(2.4149e-06 1.01025e-06 0.00544199)
(1.79679e-06 1.16796e-06 0.00541362)
(3.49513e-06 -1.07482e-07 0.00559022)
(3.1594e-06 2.92006e-07 0.00557899)
(2.67059e-06 5.77507e-07 0.00555629)
(2.04256e-06 7.36708e-07 0.00552196)
(3.78202e-06 -3.43127e-07 0.0056467)
(3.47148e-06 -1.8818e-08 0.0056392)
(2.99899e-06 2.35495e-07 0.00562284)
(2.33657e-06 3.56939e-07 0.00559323)
(4.03861e-06 -5.46721e-07 0.00566835)
(3.78837e-06 -2.91548e-07 0.00566435)
(3.36618e-06 -6.7132e-08 0.00565516)
(2.71306e-06 5.59733e-08 0.00563396)
(2.22417e-06 1.20823e-07 0.00547517)
(2.0065e-06 4.59554e-07 0.00546421)
(1.66692e-06 7.02247e-07 0.00544294)
(1.25048e-06 8.16436e-07 0.00541474)
(2.39303e-06 -5.98668e-08 0.00559069)
(2.17164e-06 2.11368e-07 0.00557974)
(1.84299e-06 4.11977e-07 0.00555728)
(1.42001e-06 5.22674e-07 0.0055231)
(2.59236e-06 -2.20544e-07 0.00564713)
(2.38567e-06 1.15158e-09 0.00563991)
(2.06846e-06 1.79332e-07 0.00562379)
(1.62064e-06 2.61893e-07 0.00559436)
(2.77289e-06 -3.65994e-07 0.00566871)
(2.60367e-06 -1.87171e-07 0.00566499)
(2.32006e-06 -2.88888e-08 0.00565604)
(1.8769e-06 5.45704e-08 0.00563504)
(1.43942e-06 8.19159e-08 0.00547545)
(1.30384e-06 3.0169e-07 0.00546468)
(1.08757e-06 4.61244e-07 0.00544357)
(8.20667e-07 5.37728e-07 0.00541548)
(1.55006e-06 -2.86684e-08 0.00559099)
(1.41109e-06 1.46185e-07 0.00558022)
(1.2015e-06 2.77164e-07 0.00555793)
(9.3127e-07 3.48904e-07 0.00552386)
(1.68042e-06 -1.31053e-07 0.00564741)
(1.5491e-06 1.18244e-08 0.00564037)
(1.34693e-06 1.27757e-07 0.00562442)
(1.06037e-06 1.81274e-07 0.00559511)
(1.79913e-06 -2.28933e-07 0.00566895)
(1.6901e-06 -1.10985e-07 0.00566541)
(1.50956e-06 -6.93451e-09 0.00565663)
(1.22496e-06 4.69561e-08 0.00563575)
(8.32059e-07 5.41373e-08 0.00547561)
(7.60688e-07 1.82917e-07 0.00546495)
(6.40855e-07 2.78434e-07 0.00544395)
(4.89443e-07 3.26744e-07 0.00541593)
(8.96386e-07 3.49981e-09 0.00559116)
(8.22134e-07 1.05174e-07 0.00558052)
(7.05606e-07 1.8203e-07 0.00555832)
(5.52895e-07 2.24901e-07 0.00552432)
(9.71513e-07 -4.56196e-08 0.00564756)
(9.00761e-07 3.58645e-08 0.00564065)
(7.88527e-07 1.02658e-07 0.0056248)
(6.2665e-07 1.35097e-07 0.00559557)
(1.03966e-06 -9.56644e-08 0.00566908)
(9.79664e-07 -2.88226e-08 0.00566566)
(8.80862e-07 3.06954e-08 0.00565698)
(7.199e-07 6.03006e-08 0.00563619)
(4.22865e-07 4.52787e-08 0.00547562)
(4.10669e-07 1.17308e-07 0.00546504)
(3.65942e-07 1.78196e-07 0.0054441)
(2.96716e-07 2.17806e-07 0.00541615)
(4.55275e-07 5.90807e-08 0.00559119)
(4.38894e-07 1.1423e-07 0.00558061)
(3.94264e-07 1.59675e-07 0.00555848)
(3.24741e-07 1.88401e-07 0.00552454)
(4.90668e-07 7.36788e-08 0.00564759)
(4.7367e-07 1.14285e-07 0.00564075)
(4.30749e-07 1.48431e-07 0.00562496)
(3.58432e-07 1.65164e-07 0.00559578)
(5.21178e-07 8.23408e-08 0.0056691)
(5.0621e-07 1.11713e-07 0.00566575)
(4.68762e-07 1.37196e-07 0.00565713)
(3.98137e-07 1.47568e-07 0.0056364)
(0.002712 -0.000373873 0.013574)
(0.00105844 -0.000801975 0.00785)
(0.00141272 -0.000620529 0.00798669)
(0.00193209 0.000389659 0.0129782)
(0.000526053 -0.000179871 0.00868872)
(0.000999282 0.000100683 0.00748517)
(0.000436545 1.69144e-05 0.0017332)
(0.00120373 -0.000537031 0.00668747)
(0.00100998 -0.000267249 0.00674968)
(0.00250374 0.000240605 0.00940929)
(0.00143399 0.000584632 0.0122408)
(1.04626e-06 -0.000254198 0.0086435)
(0.000156547 0.000109229 0.00356551)
(0.00231705 -0.000498767 0.00996918)