/*--------------------------------*- C++ -*----------------------------------*\
| =========                 |                                                 |
| \\      /  F ield         | OpenFOAM: The Open Source CFD Toolbox           |
|  \\    /   O peration     | Version:  2506                                  |
|   \\  /    A nd           | Website:  www.openfoam.com                      |
|    \\/     M anipulation  |                                                 |
\*---------------------------------------------------------------------------*/
FoamFile
{
    version     2.0;
    format      ascii;
    arch        "LSB;label=32;scalar=64";
    class       volVectorField;
    location    "0.02";
    object      U;
}
// * * * * * * * * * * * * * * * * * * * * * * * * * * * * * * * * * * * * * //

dimensions      [0 1 -1 0 0 0 0];

internalField   nonuniform List<vector> 
1152
(
(0.00322361 -0.00122039 0.0174321)
(-0.000261257 8.88174e-05 0.00893755)
(0.000262275 -0.000798041 0.0093094)
(0.00106797 -5.30049e-05 0.00718501)
(0.00118381 -0.000268822 0.00819826)
(-0.000166411 0.000396096 0.0115966)
(0.000317113 0.000239517 0.00550761)
(0.00112951 0.000623177 0.00790118)
(0.000762119 7.03508e-05 0.0100054)
(0.000451724 0.000353564 0.00817108)
(0.000865685 0.00142842 0.00763142)
(0.000741511 0.00100936 0.0121157)
(0.00108389 0.000733522 0.00338841)
(0.00148905 -0.00011148 0.0112388)
(0.00132803 0.000752736 0.0149243)
(-0.000814459 -0.000925459 0.0129383)
(-0.000719376 0.000196577 0.00848003)
(0.000111761 -0.000160288 0.00817162)
(0.000530288 0.00121504 0.0091193)
(0.000782767 -7.93849e-05 0.00684481)
(-0.00109525 0.000324428 0.0099526)
(0.000813039 0.000615203 0.00732768)
(0.000947478 0.000410165 0.00885089)
(-2.51595e-06 -0.000339439 0.0133778)
(-0.000591322 0.000907145 0.0117208)
(0.000421417 0.000927699 0.0133281)
(-0.000447389 -0.000757817 0.0103935)
(0.000403353 -0.000529482 0.00715683)
(0.000276501 -0.000117 0.00729086)
(-0.000263867 9.18325e-05 0.00458463)
(-7.14726e-06 2.68615e-05 0.000340216)
(0.00161576 0.00213671 0.0117165)
(-0.00308248 0.00173254 0.0305965)
(0.000125452 0.000241957 0.00847389)
(0.000111696 0.000262843 0.0149866)
(5.22942e-05 7.32368e-05 0.00306984)
(-0.000442479 0.000404217 0.00866657)
(0.000356372 -0.000125056 0.0116503)
(0.00033641 0.000384977 0.0183943)
(-0.000386811 -0.000125333 0.0151367)
(-0.000950034 0.000395503 0.0116827)
(-0.000282839 0.00064691 0.0131433)
(0.00014111 -5.54037e-05 0.0127984)
(0.000387631 -0.000338599 0.0115372)
(-0.00178954 -0.00273417 0.0210604)
(1.66074e-06 -0.000205677 0.0190174)
(-0.00172502 -0.000401912 0.0281247)
(9.64808e-05 4.65915e-05 0.000966538)
(2.71427e-05 6.17228e-05 0.00235819)
(0.00119456 -0.000407739 0.0174621)
(0.000182006 -0.000227826 0.005943)
(-0.0010961 -5.68663e-05 0.0124448)
(-1.40109e-05 0.00131593 0.0101781)
(-0.000502653 0.000476579 0.00670282)
(0.000304946 0.000137802 0.0204379)
(0.000883869 0.000737647 0.0137991)
(-0.000364394 0.00118006 0.0145096)
(-0.000445502 0.000688992 0.00786299)
(9.76125e-05 0.00135155 0.0113393)
(0.000312126 0.000756639 0.00649674)
(-4.80165e-05 4.68497e-05 0.000820301)
(-0.000487756 0.0014209 0.0166374)
(0.000609392 0.000509148 0.0084696)
(-0.000154481 -0.000551403 0.0045239)
(-3.75443e-05 0.000791578 0.0212774)
(-5.04581e-05 3.73563e-05 0.0109063)
(0.000296669 -0.000107362 0.0156387)
(-0.000346134 -0.000253937 0.0117818)
(0.000239377 -0.000311788 0.0133091)
(-0.000651885 0.0001062 0.00697489)
(-0.000238607 -1.07177e-05 0.00715525)
(0.000933535 -6.59484e-05 0.0120545)
(0.000530184 -0.000524934 0.00947778)
(0.000496512 0.000812297 0.0199522)
(9.30653e-06 0.000474336 0.00643823)
(-7.72819e-05 0.00171168 0.0186971)
(0.00382343 0.00302446 0.0192047)
(3.36746e-06 -0.000118011 0.000629754)
(0.000266281 0.000587489 0.0338128)
(-0.000519814 0.000508699 0.0147155)
(-3.67473e-05 -0.000111111 0.00156903)
(-0.000606084 0.000257235 0.00904753)
(-0.000506405 -0.00036378 0.00720687)
(0.00143872 -0.000228418 0.0121537)
(0.00162174 -0.00143293 0.0145877)
(0.00015174 -5.07042e-05 0.00413628)
(-0.000506842 0.000403505 0.00991589)
(1.85122e-05 0.000145662 0.00303754)
(0.000327475 -0.000694769 0.00414402)
(0.000672802 -0.00113816 0.00935742)
(0.000204534 0.000700326 0.00596033)
(-4.07453e-05 0.000368835 0.00272915)
(0.000149718 -5.06125e-05 0.000746155)
(0.00257797 -0.00139561 0.00715047)
(0.000890369 -0.000235488 0.00447135)
(4.83062e-05 -2.72914e-05 0.00947003)
(-0.000267905 -6.17703e-05 0.00885752)
(-0.000921923 -0.000155538 0.00953752)
(-0.000556328 0.000188119 0.00649277)
(-0.000808716 0.000357395 0.0102933)
(-0.000195454 0.000517487 0.0093295)
(9.66469e-05 -0.000932298 0.00333992)
(-1.99489e-05 0.000313756 0.00708602)
(0.000187871 0.000576527 0.00295423)
(-0.000361556 0.000696581 0.00563177)
(0.000318176 0.000345382 0.0141567)
(-0.000217216 -0.000243598 0.00431021)
(0.000143465 8.36023e-05 0.00799758)
(-3.6132e-05 0.000885442 0.00648516)
(0.00170002 -0.000891029 0.00576045)
(-0.000905691 0.0015727 0.0197321)
(-0.000301642 0.000132417 0.0103999)
(-0.000185126 0.000231318 0.0122287)
(-0.000230615 -0.000362105 0.0103094)
(-0.000295887 -0.000390037 0.00975549)
(-0.000203563 -0.000233449 0.0118785)
(7.63752e-05 0.000175629 0.0123741)
(-0.000188691 -0.000388685 0.00791638)
(-0.00031407 -0.000153319 0.00914155)
(-0.000297032 -0.000125214 0.00648259)
(0.000165922 0.000234635 0.0108895)
(-0.000150309 -0.000130607 0.0132016)
(-0.000157188 -0.00078615 0.00922215)
(-0.000318662 -0.000355109 0.00930095)
(0.00032971 0.00031474 0.0101506)
(-0.000776934 0.000416062 0.00976152)
(-0.000880755 0.000207591 0.0154681)
(0.000188076 0.000225901 0.0124553)
(0.000211707 0.000172815 0.00330507)
(0.000342869 0.000443262 0.00283589)
(9.19136e-05 0.000149531 0.0026355)
(-1.65137e-05 0.000465776 0.00292076)
(0.000171209 -5.57144e-05 0.00296073)
(0.000356975 -0.000320052 0.0021863)
(0.000181659 -0.00028734 0.00221841)
(-8.9436e-05 1.47035e-05 0.00195393)
(0.000360101 -0.000182338 0.00308835)
(0.00018381 -0.000735269 0.00335441)
(0.000372834 -0.00102583 0.00252021)
(0.000191912 -0.00078195 0.00224134)
(-9.53201e-05 -0.000495871 0.00296961)
(-0.000449173 -0.000736832 0.00323799)
(4.59191e-05 -0.000605906 0.00382188)
(0.000479111 -0.000608149 0.00297834)
(0.00011743 0.000116194 0.00668348)
(0.000199999 0.000194426 0.00649956)
(0.000137025 5.00467e-05 0.00632235)
(6.26081e-05 7.46498e-05 0.00639454)
(9.56975e-05 -3.17193e-05 0.00653821)
(0.000175845 -0.000116294 0.00624922)
(0.000116013 -0.000123923 0.00615865)
(-3.92567e-05 -5.43019e-05 0.00604349)
(0.000107771 -0.000106145 0.00669791)
(0.000118963 -0.000295363 0.00671358)
(0.000183576 -0.000360371 0.00642244)
(3.60761e-05 -0.000301656 0.00623937)
(-8.51125e-05 -0.000120008 0.00670188)
(-7.73197e-05 -0.00020715 0.00686672)
(9.13822e-05 -0.000187594 0.00691783)
(8.78303e-05 -0.000250298 0.00662455)
(9.01641e-05 3.37031e-05 0.0055823)
(0.000108526 7.39421e-05 0.00552554)
(7.70746e-05 2.62286e-05 0.00544509)
(5.24456e-06 5.63168e-05 0.00543626)
(7.51534e-05 -2.53965e-05 0.00552146)
(9.88409e-05 -5.00305e-05 0.00545006)
(7.11795e-05 -5.71578e-05 0.00540115)
(-1.11207e-05 -2.79759e-05 0.00537249)
(5.81196e-05 -6.81718e-05 0.00559054)
(7.89919e-05 -0.000137603 0.00559144)
(9.484e-05 -0.000151967 0.00550097)
(2.55147e-05 -0.000134475 0.00544817)
(-2.33303e-05 -6.35393e-05 0.00558516)
(1.52372e-05 -0.000110168 0.00564428)
(7.18276e-05 -0.000116237 0.00562762)
(3.56851e-05 -0.000139087 0.00556369)
(5.78137e-05 3.17354e-06 0.00576887)
(6.3196e-05 1.69585e-05 0.00574654)
(5.41648e-05 -6.06583e-06 0.00570667)
(2.42667e-05 -3.87291e-06 0.00569839)
(4.91832e-05 -1.73965e-05 0.00574873)
(5.57815e-05 -2.66515e-05 0.00572382)
(4.48397e-05 -3.49545e-05 0.00569521)
(1.12675e-05 -3.11597e-05 0.00568386)
(3.63401e-05 -3.43956e-05 0.00578006)
(4.64816e-05 -5.8644e-05 0.00577418)
(4.84047e-05 -6.51207e-05 0.00573841)
(2.00699e-05 -6.20498e-05 0.00571735)
(7.3866e-06 -3.1313e-05 0.00578712)
(2.53198e-05 -5.03377e-05 0.00580824)
(4.10714e-05 -5.50518e-05 0.0057877)
(2.13428e-05 -5.93128e-05 0.00576787)
(3.86145e-05 -4.77149e-06 0.00576138)
(3.79147e-05 2.24938e-08 0.00574995)
(3.21916e-05 -8.08523e-06 0.00572749)
(1.73525e-05 -6.51753e-06 0.0057119)
(3.40984e-05 -1.16096e-05 0.00575746)
(3.46445e-05 -1.54168e-05 0.0057466)
(2.85749e-05 -1.94242e-05 0.00573149)
(1.38286e-05 -1.8287e-05 0.0057223)
(2.71231e-05 -1.82871e-05 0.00577034)
(3.04289e-05 -2.68156e-05 0.00576533)
(2.89435e-05 -2.97731e-05 0.00575075)
(1.72835e-05 -2.84795e-05 0.00574105)
(1.63852e-05 -1.78358e-05 0.00577569)
(2.32568e-05 -2.50934e-05 0.00578064)
(2.67928e-05 -2.69859e-05 0.0057702)
(1.8192e-05 -2.62008e-05 0.00576233)
(2.65506e-05 -5.41657e-06 0.00576396)
(2.49784e-05 -3.89832e-06 0.00575662)
(2.12981e-05 -6.47379e-06 0.00574381)
(1.41497e-05 -5.98975e-06 0.00572987)
(2.4489e-05 -7.87348e-06 0.00576507)
(2.35963e-05 -9.64409e-06 0.00575862)
(2.00213e-05 -1.12666e-05 0.00575006)
(1.32437e-05 -1.08262e-05 0.00574242)
(2.10932e-05 -1.05564e-05 0.00577061)
(2.17331e-05 -1.37966e-05 0.00576644)
(2.00256e-05 -1.49568e-05 0.00575918)
(1.47757e-05 -1.40982e-05 0.00575291)
(1.69203e-05 -1.09742e-05 0.00577418)
(1.92649e-05 -1.36349e-05 0.00577344)
(1.96029e-05 -1.40469e-05 0.00576779)
(1.55494e-05 -1.25823e-05 0.00576256)
(1.86847e-05 -4.34432e-06 0.00576694)
(1.73173e-05 -3.81683e-06 0.0057615)
(1.48803e-05 -4.39722e-06 0.00575287)
(1.10734e-05 -4.13757e-06 0.00573962)
(1.78049e-05 -5.41709e-06 0.00576927)
(1.68417e-05 -6.18132e-06 0.00576476)
(1.46155e-05 -6.68622e-06 0.00575912)
(1.11739e-05 -6.33268e-06 0.00575209)
(1.63085e-05 -6.5936e-06 0.00577205)
(1.61221e-05 -7.84655e-06 0.00576864)
(1.47293e-05 -8.16644e-06 0.0057641)
(1.1998e-05 -7.50287e-06 0.00575898)
(1.46222e-05 -7.0988e-06 0.0057743)
(1.53086e-05 -8.06047e-06 0.00577215)
(1.48628e-05 -7.93188e-06 0.00576833)
(1.2597e-05 -6.75728e-06 0.0057639)
(1.33109e-05 -3.17999e-06 0.00576921)
(1.23262e-05 -2.89194e-06 0.00576501)
(1.0711e-05 -2.83118e-06 0.00575835)
(8.48491e-06 -2.61837e-06 0.0057457)
(1.30043e-05 -3.7801e-06 0.00577166)
(1.22558e-05 -4.04676e-06 0.00576831)
(1.08159e-05 -4.094e-06 0.00576411)
(8.86839e-06 -3.77378e-06 0.00575756)
(1.23929e-05 -4.3806e-06 0.00577333)
(1.20551e-05 -4.83079e-06 0.00577058)
(1.10062e-05 -4.81303e-06 0.00576728)
(9.37227e-06 -4.30662e-06 0.00576277)
(1.17031e-05 -4.75309e-06 0.00577475)
(1.18483e-05 -5.08798e-06 0.00577251)
(1.12672e-05 -4.84996e-06 0.00576958)
(9.80024e-06 -4.05475e-06 0.00576567)
(9.54356e-06 -2.26486e-06 0.00577072)
(8.87271e-06 -2.0294e-06 0.00576739)
(7.79755e-06 -1.79869e-06 0.00576177)
(6.39891e-06 -1.60795e-06 0.00574959)
(9.49809e-06 -2.66458e-06 0.00577302)
(8.96612e-06 -2.70354e-06 0.00577047)
(8.00564e-06 -2.59085e-06 0.0057671)
(6.79628e-06 -2.31565e-06 0.00576096)
(9.28168e-06 -3.02381e-06 0.00577419)
(8.9741e-06 -3.15373e-06 0.005772)
(8.20874e-06 -3.03277e-06 0.00576943)
(7.1316e-06 -2.65961e-06 0.00576537)
(9.00111e-06 -3.27904e-06 0.00577514)
(8.97389e-06 -3.38089e-06 0.00577317)
(8.44673e-06 -3.17319e-06 0.00577083)
(7.41922e-06 -2.66853e-06 0.00576737)
(6.85258e-06 -1.60246e-06 0.00577175)
(6.40261e-06 -1.39735e-06 0.00576904)
(5.68103e-06 -1.15587e-06 0.00576404)
(4.75846e-06 -9.95357e-07 0.00575225)
(6.90946e-06 -1.88979e-06 0.0057739)
(6.54095e-06 -1.8412e-06 0.00577191)
(5.88946e-06 -1.69403e-06 0.00576908)
(5.08953e-06 -1.47438e-06 0.00576329)
(6.86578e-06 -2.12777e-06 0.00577479)
(6.61732e-06 -2.13929e-06 0.00577308)
(6.06725e-06 -2.0102e-06 0.00577099)
(5.32208e-06 -1.7452e-06 0.0057673)
(6.76616e-06 -2.32426e-06 0.00577545)
(6.67011e-06 -2.33375e-06 0.00577385)
(6.24552e-06 -2.18021e-06 0.00577196)
(5.50669e-06 -1.86486e-06 0.00576888)
(4.89947e-06 -1.13379e-06 0.00577247)
(4.59984e-06 -9.62559e-07 0.0057702)
(4.11079e-06 -7.57999e-07 0.00576562)
(3.48492e-06 -6.31747e-07 0.00575411)
(4.98465e-06 -1.34639e-06 0.00577449)
(4.73305e-06 -1.2744e-06 0.00577292)
(4.28608e-06 -1.13977e-06 0.00577047)
(3.73974e-06 -9.72607e-07 0.00576497)
(5.00861e-06 -1.51197e-06 0.00577523)
(4.81978e-06 -1.48531e-06 0.00577388)
(4.42755e-06 -1.37813e-06 0.00577216)
(3.90371e-06 -1.19342e-06 0.00576876)
(4.99107e-06 -1.66911e-06 0.0057757)
(4.87501e-06 -1.64587e-06 0.00577444)
(4.55094e-06 -1.53833e-06 0.0057729)
(4.02005e-06 -1.34002e-06 0.00577014)
(3.45979e-06 -7.98603e-07 0.00577298)
(3.26209e-06 -6.63356e-07 0.00577103)
(2.92968e-06 -5.05103e-07 0.00576672)
(2.50169e-06 -4.10993e-07 0.00575543)
(3.54099e-06 -9.56378e-07 0.00577492)
(3.37232e-06 -8.86825e-07 0.00577365)
(3.06528e-06 -7.78675e-07 0.00577148)
(2.69001e-06 -6.55902e-07 0.00576619)
(3.58278e-06 -1.07493e-06 0.00577555)
(3.44915e-06 -1.03946e-06 0.00577449)
(3.17164e-06 -9.57951e-07 0.00577303)
(2.80542e-06 -8.30588e-07 0.00576987)
(3.59397e-06 -1.18861e-06 0.00577591)
(3.49494e-06 -1.16266e-06 0.00577491)
(3.25509e-06 -1.09035e-06 0.00577365)
(2.87818e-06 -9.64554e-07 0.00577114)
(2.37813e-06 -5.50044e-07 0.00577334)
(2.24948e-06 -4.49706e-07 0.00577161)
(2.02729e-06 -3.35004e-07 0.0057675)
(1.73912e-06 -2.68521e-07 0.00575637)
(2.44302e-06 -6.64402e-07 0.00577522)
(2.33279e-06 -6.06819e-07 0.00577417)
(2.12599e-06 -5.26735e-07 0.00577219)
(1.87295e-06 -4.40092e-07 0.00576707)
(2.48197e-06 -7.49368e-07 0.00577579)
(2.39352e-06 -7.16154e-07 0.00577494)
(2.20176e-06 -6.57176e-07 0.00577368)
(1.95212e-06 -5.70895e-07 0.00577068)
(2.49568e-06 -8.21108e-07 0.00577608)
(2.42878e-06 -8.03354e-07 0.00577529)
(2.25806e-06 -7.56982e-07 0.00577422)
(1.99793e-06 -6.77474e-07 0.0057719)
(1.54515e-06 -3.52051e-07 0.00577359)
(1.46515e-06 -2.83739e-07 0.005772)
(1.32443e-06 -2.07306e-07 0.00576803)
(1.14041e-06 -1.64489e-07 0.00575701)
(1.59112e-06 -4.28972e-07 0.00577543)
(1.52252e-06 -3.87082e-07 0.00577452)
(1.39056e-06 -3.32815e-07 0.00577268)
(1.22884e-06 -2.75758e-07 0.00576767)
(1.62008e-06 -4.86864e-07 0.00577596)
(1.56537e-06 -4.61157e-07 0.00577525)
(1.44083e-06 -4.2125e-07 0.00577413)
(1.28e-06 -3.65593e-07 0.00577125)
(1.62891e-06 -5.2728e-07 0.00577621)
(1.59055e-06 -5.17505e-07 0.00577555)
(1.47747e-06 -4.89676e-07 0.00577463)
(1.30805e-06 -4.41326e-07 0.00577243)
(8.99948e-07 -1.60438e-07 0.00577374)
(8.57603e-07 -1.20122e-07 0.00577224)
(7.8093e-07 -7.6845e-08 0.00576835)
(6.77433e-07 -5.5088e-08 0.0057574)
(9.28506e-07 -2.00281e-07 0.00577556)
(8.91714e-07 -1.75045e-07 0.00577474)
(8.17542e-07 -1.44209e-07 0.00577299)
(7.25713e-07 -1.13437e-07 0.00576805)
(9.45388e-07 -2.31788e-07 0.00577606)
(9.15975e-07 -2.16786e-07 0.00577545)
(8.45531e-07 -1.94509e-07 0.00577441)
(7.53303e-07 -1.64398e-07 0.00577161)
(9.49206e-07 -2.51654e-07 0.00577628)
(9.30409e-07 -2.47812e-07 0.00577572)
(8.65045e-07 -2.34508e-07 0.00577488)
(7.66636e-07 -2.1031e-07 0.00577276)
(4.86559e-07 7.61492e-08 0.00577378)
(4.76711e-07 9.45911e-08 0.00577234)
(4.46592e-07 1.12527e-07 0.0057685)
(3.961e-07 1.18766e-07 0.00575759)
(5.01411e-07 7.68429e-08 0.0057756)
(4.91154e-07 8.73981e-08 0.00577484)
(4.60069e-07 9.81841e-08 0.00577313)
(4.15345e-07 1.06747e-07 0.00576824)
(5.08769e-07 7.29752e-08 0.0057761)
(4.99214e-07 7.73145e-08 0.00577554)
(4.67634e-07 8.26896e-08 0.00577456)
(4.21271e-07 8.92064e-08 0.0057718)
(5.08608e-07 6.6607e-08 0.00577632)
(5.0177e-07 6.44716e-08 0.00577581)
(4.70196e-07 6.40225e-08 0.00577503)
(4.19075e-07 6.62647e-08 0.00577295)
(0.000860938 -0.000530941 0.011346)
(5.50598e-05 0.00046727 0.00559908)
(0.000555095 0.000713265 0.00541273)
(0.00134128 0.000236344 0.0081984)
(0.000269405 3.93997e-05 0.0068509)
(0.00123472 -0.000102684 0.0113307)
(0.0008502 0.00120246 0.014558)
(0.000905255 -0.000350745 0.00876438)
(-0.000447567 0.000355516 0.00941991)
(0.000158774 -0.000181162 0.00404058)
(0.00207724 -0.000793353 0.0107498)
(0.0013035 -0.00155646 0.0119463)
(0.000337213 -3.57382e-05 0.0101764)
(-1.91705e-05 0.000463596 0.00995461)
(0.00060283 -0.000846497 0.00867568)
(0.000249197 -0.000335032 0.00273109)
(-0.0006592 0.000948951 0.00907926)
(0.00138932 -0.000381581 0.0127715)
(0.000665153 -0.000696545 0.0106053)
(0.000447424 -0.000581576 0.017204)
(-0.000708134 0.00087432 0.00845093)
(-8.53599e-05 -0.00011821 0.0120178)
(0.000529465 -0.000331219 0.00788677)
(0.000870268 -0.000459663 0.0081071)
(0.000287634 0.000180564 0.0129663)
(-0.000144925 0.000128949 0.00938364)
(-0.000209932 8.34726e-05 0.0113712)
(0.000751597 0.00081678 0.00959557)
(-0.00133432 0.000132378 0.013176)
(-2.54967e-05 -0.000296761 0.00541356)
(0.000573705 0.000662344 0.0101545)
(0.00108802 0.0011194 0.0114097)
(-0.000406244 0.000380067 0.00861262)
(0.00096237 -2.69485e-05 0.0133632)
(0.000166678 0.000182036 0.0110781)
(0.000539567 -0.000148042 0.0147945)
(-0.000229164 0.00118752 0.0118731)
(0.000584013 0.000129237 0.0134344)
(0.000445123 0.000216754 0.019089)
(0.00057469 -0.000429858 0.016441)
(-0.000223046 0.000331177 0.0137628)
(-0.000133843 0.00032822 0.0112402)
(2.16585e-05 0.000854677 0.0148797)
(5.75002e-05 0.000206184 0.00636749)
(-1.16557e-05 8.54343e-05 0.000648151)
(0.00147928 0.00133509 0.0203356)
(9.52408e-05 0.00024098 0.00378297)
(-0.000598256 0.00119923 0.0235461)
(-5.85732e-06 3.06059e-05 0.0033995)
(0.000264959 -0.000108967 0.0167706)
(0.000151556 -0.00052354 0.0108062)
(-2.83771e-06 -0.000548327 0.0233443)
(-7.95813e-05 2.63087e-07 0.00519507)
(-0.000397059 -0.000145171 0.0132369)
(3.80766e-05 -9.65742e-07 0.0130998)
(-3.95397e-06 0.000569536 0.00732098)
(-6.60873e-05 -0.000315884 0.0194776)
(-8.21652e-05 0.000491317 0.00979286)
(0.000257137 0.000756132 0.0121759)
(-0.00014344 0.000367784 0.00699253)
(0.000580161 -0.000602064 0.00981715)
(-7.31525e-05 0.000179099 0.00282593)
(-2.83346e-05 6.78217e-05 0.020206)
(-0.000272402 -0.000361831 0.00924761)
(4.34241e-05 0.000613217 0.00710594)
(-0.000256901 0.000482732 0.0141452)
(-0.00019636 0.000391319 0.0162873)
(0.000386025 0.00177991 0.0170337)
(0.000231248 9.61647e-05 0.0130834)
(-0.00100941 0.000656521 0.0120461)
(-0.000114065 0.000650609 0.010643)
(-0.000423422 0.000896856 0.00943965)
(-1.05154e-05 -0.000769689 0.016493)
(-0.000171147 0.000164288 0.00836834)
(-0.000328861 4.50274e-05 0.0184626)
(-0.000146016 0.00014244 0.0141123)
(-0.000302349 0.000145074 0.00778596)
(-0.00106309 -0.000644578 0.0213093)
(-0.000179687 7.30705e-05 0.00372275)
(0.000686559 0.000970619 0.0232412)
(7.67171e-05 2.23262e-05 0.000278175)
(0.000460469 0.00187209 0.0109111)
(0.000256564 0.000503662 0.00549758)
(0.00108003 0.000544931 0.010155)
(0.000375389 0.00521994 0.0132277)
(-0.000915249 0.00188044 0.00782884)
(-0.000904312 0.00128381 0.00898987)
(0.000296634 0.00169609 0.0100781)
(-0.000220478 0.000742376 0.00535367)
(-0.000771684 -1.37637e-05 0.00879787)
(-0.00096606 0.00155002 0.00727641)
(-0.000270453 0.000590795 0.00624746)
(-0.000262003 -8.65715e-05 0.00597612)
(-0.000444028 -9.91665e-05 0.00450267)
(-0.000390791 0.000300801 0.00680291)
(-7.8161e-05 -4.49291e-05 0.00720919)
(0.00465128 -0.000190876 0.0282742)
(-0.00182512 -0.00164445 0.00499123)
(-0.00101587 0.000230997 0.00683935)
(-0.000170077 -5.24716e-06 0.0111218)
(0.000243832 0.000164607 0.0131981)
(-2.74742e-05 0.000378639 0.0104354)
(-6.56734e-06 3.75735e-05 0.00506079)
(-0.000393473 0.000191966 0.00371353)
(-0.000210506 0.000171597 0.00935829)
(2.40331e-05 0.000764513 0.0100655)
(-0.00087567 0.000735313 0.0085442)
(-0.000422681 6.28437e-05 0.0124763)
(-0.00080374 -0.00125411 0.00887733)
(-0.00312285 -0.00288589 0.0052213)
(-0.000834282 0.000539925 0.0083793)
(-0.000536534 -0.000132733 0.00765878)
(0.0011089 0.000769379 -0.00393786)
(0.00090912 3.20949e-06 0.0149958)
(-0.000262246 -0.000107374 0.00961258)
(-0.000337726 -4.70184e-05 0.0123048)
(-0.000257024 0.00117984 0.0137242)
(0.000822891 -5.02797e-05 0.0138)
(4.51603e-05 -0.000113385 0.00863972)
(-0.000193815 -0.00023109 0.0084913)
(-0.000246921 0.000711491 0.0135797)
(0.000331133 0.000359132 0.0148781)
(-4.32356e-05 -0.000124647 0.0117584)
(-0.000127609 -0.000277407 0.0120804)
(-0.00010228 0.000285149 0.0134144)
(-0.000154203 -0.000120673 0.0123201)
(-0.000388805 -0.000186352 0.0100358)
(-0.000274008 -0.00013062 0.0118828)
(0.000256062 -0.0014701 0.00285026)
(-0.0011038 -5.10206e-05 0.00311914)
(0.000295051 1.82384e-05 0.00216469)
(-0.000497385 -6.58006e-05 0.00289918)
(-4.33268e-05 -0.00198787 0.00411957)
(-0.000146438 0.000117177 0.00320623)
(0.000506081 -0.000250082 0.00229094)
(-0.000337973 -5.91472e-05 0.00261755)
(-5.18149e-05 -0.000804843 0.00398752)
(3.5594e-05 0.000262206 0.00360371)
(0.000411083 -0.000191991 0.00296697)
(-5.1082e-05 -7.78534e-05 0.00311327)
(0.000137822 -0.000208564 0.00382524)
(0.000241264 0.000528339 0.00328023)
(0.000188013 0.000134043 0.00290742)
(-7.55042e-05 0.000186676 0.00308221)
(0.000136158 -0.000386316 0.00486038)
(-9.91357e-05 9.6812e-06 0.00678674)
(0.000228585 -6.89421e-06 0.00585459)
(-0.000140571 -8.39232e-05 0.00642425)
(8.26549e-05 -0.00056319 0.00621481)
(0.000133554 4.27138e-05 0.00679592)
(0.000308941 -0.000139658 0.00604774)
(-8.39376e-05 -7.37699e-05 0.00637376)
(7.88105e-05 -0.000237768 0.00664687)
(0.000171431 0.000110917 0.00690013)
(0.000283306 -9.65619e-05 0.00637652)
(-2.84589e-06 -2.45775e-05 0.00651443)
(0.000106828 -2.94267e-05 0.00681176)
(0.00021104 0.000205899 0.00676973)
(0.000222674 1.36093e-05 0.00641454)
(3.69136e-05 1.83077e-05 0.00650158)
(7.56755e-05 -0.000129255 0.00499353)
(-3.52868e-05 3.41879e-05 0.00545698)
(8.67586e-05 1.8203e-06 0.00505851)
(-8.5766e-05 -2.65664e-05 0.00523952)
(7.48024e-05 -0.000218519 0.00541586)
(3.52921e-05 5.52246e-05 0.00556061)
(0.000108208 -5.38491e-05 0.00522782)
(-7.8369e-05 -1.97914e-06 0.00532311)
(8.02857e-05 -0.000137828 0.00557104)
(7.30827e-05 5.11007e-05 0.00562113)
(0.00010749 -6.09228e-05 0.00537983)
(-3.87668e-05 9.74519e-06 0.00539918)
(8.72225e-05 -4.3776e-05 0.00562818)
(9.88485e-05 7.41457e-05 0.00560343)
(9.29515e-05 -1.3911e-05 0.00544218)
(-7.94048e-06 2.91694e-05 0.00542574)
(4.7697e-05 -4.91669e-05 0.00540458)
(1.18883e-05 1.49635e-05 0.005617)
(6.14218e-05 3.06622e-06 0.00542215)
(-1.83306e-05 -1.15857e-05 0.00551704)
(5.25284e-05 -9.11587e-05 0.00561151)
(3.34548e-05 2.00106e-05 0.00570934)
(7.07748e-05 -2.68538e-05 0.00555057)
(-1.43429e-05 -7.19499e-06 0.00560603)
(5.64028e-05 -6.3887e-05 0.00572168)
(5.02075e-05 2.13345e-05 0.00575964)
(6.96044e-05 -2.81511e-05 0.00564806)
(-1.27055e-06 -1.16251e-07 0.00566676)
(5.89527e-05 -2.64612e-05 0.00577232)
(6.17625e-05 2.22054e-05 0.00576915)
(6.46762e-05 -1.64689e-05 0.00569894)
(1.5749e-05 -3.53624e-06 0.00569442)
(3.2231e-05 -1.66448e-05 0.00548784)
(1.61029e-05 8.99838e-06 0.00556313)
(3.00317e-05 3.71461e-06 0.00546086)
(-4.31115e-06 -8.58319e-07 0.00547572)
(3.52934e-05 -3.47857e-05 0.00563735)
(2.3331e-05 8.9341e-06 0.00567385)
(3.42255e-05 -1.0243e-05 0.00558604)
(-3.02139e-06 -7.28418e-07 0.00558224)
(3.79035e-05 -2.81671e-05 0.00571881)
(3.11862e-05 6.45412e-06 0.0057295)
(3.49931e-05 -1.36463e-05 0.00566698)
(3.94837e-06 -1.16875e-06 0.00565027)
(3.94449e-05 -1.52559e-05 0.00575511)
(3.69018e-05 3.42873e-06 0.00574966)
(3.47037e-05 -1.16199e-05 0.00571061)
(1.27299e-05 -5.02246e-06 0.00568884)
(2.26273e-05 -5.43996e-06 0.00553264)
(1.49873e-05 5.27363e-06 0.00555253)
(1.76299e-05 3.73166e-06 0.00549819)
(2.72686e-06 2.02792e-06 0.00548785)
(2.42654e-05 -1.35003e-05 0.00565957)
(1.76654e-05 3.29716e-06 0.00566587)
(1.95235e-05 -3.55001e-06 0.00561649)
(3.67969e-06 -2.14078e-08 0.00559487)
(2.59496e-05 -1.24795e-05 0.00572691)
(2.1375e-05 6.58437e-07 0.00572475)
(2.05545e-05 -6.22063e-06 0.00568934)
(7.08264e-06 -1.75742e-06 0.00566491)
(2.69111e-05 -8.60935e-06 0.0057558)
(2.42779e-05 -1.99286e-06 0.00574937)
(2.15225e-05 -7.07785e-06 0.0057275)
(1.14838e-05 -4.85172e-06 0.00570552)
(1.59514e-05 -1.56855e-06 0.00555256)
(1.19953e-05 3.24076e-06 0.00555067)
(1.10958e-05 3.21027e-06 0.00551607)
(4.28447e-06 2.67742e-06 0.0054935)
(1.68884e-05 -5.35312e-06 0.00567212)
(1.3226e-05 1.10754e-06 0.00566553)
(1.21327e-05 -8.09966e-07 0.00563214)
(5.01126e-06 5.03422e-07 0.00560172)
(1.80002e-05 -5.75981e-06 0.00573348)
(1.51493e-05 -9.07545e-07 0.00572608)
(1.31893e-05 -2.73682e-06 0.00570175)
(6.88973e-06 -1.21159e-06 0.00567308)
(1.87116e-05 -5.02335e-06 0.00575878)
(1.67694e-05 -2.72819e-06 0.00575223)
(1.43872e-05 -4.15247e-06 0.00573725)
(9.33536e-06 -3.42309e-06 0.00571466)
(1.12425e-05 -2.841e-07 0.00556166)
(9.0586e-06 2.12433e-06 0.00555231)
(7.51243e-06 2.59186e-06 0.00552567)
(4.08484e-06 2.49984e-06 0.00549879)
(1.1824e-05 -2.23504e-06 0.00567881)
(9.73627e-06 4.12161e-07 0.00566786)
(8.17069e-06 1.88996e-07 0.00564088)
(4.62049e-06 7.35155e-07 0.00560738)
(1.26029e-05 -2.9008e-06 0.00573771)
(1.08485e-05 -9.69695e-07 0.00572897)
(9.06339e-06 -1.18376e-06 0.0057091)
(5.74837e-06 -5.90564e-07 0.00567913)
(1.31607e-05 -3.09692e-06 0.00576137)
(1.1859e-05 -2.197e-06 0.00575539)
(1.01056e-05 -2.43763e-06 0.00574333)
(7.25465e-06 -2.13984e-06 0.00572083)
(7.92735e-06 9.23529e-08 0.00556594)
(6.64512e-06 1.476e-06 0.00555457)
(5.31189e-06 2.01148e-06 0.00553099)
(3.37162e-06 2.08422e-06 0.00550281)
(8.32016e-06 -1.02204e-06 0.00568231)
(7.06934e-06 2.39304e-07 0.00567043)
(5.76294e-06 4.80157e-07 0.00564591)
(3.76233e-06 7.82626e-07 0.00561153)
(8.88758e-06 -1.62021e-06 0.00574024)
(7.78437e-06 -6.96849e-07 0.00573161)
(6.45101e-06 -4.86856e-07 0.00571355)
(4.49656e-06 -1.78626e-07 0.00568335)
(9.33023e-06 -2.00381e-06 0.00576317)
(8.47517e-06 -1.54363e-06 0.00575789)
(7.25923e-06 -1.44284e-06 0.00574717)
(5.49777e-06 -1.26389e-06 0.00572495)
(5.59471e-06 1.65793e-07 0.00556814)
(4.80147e-06 1.05453e-06 0.00555654)
(3.82254e-06 1.52061e-06 0.00553419)
(2.61665e-06 1.64111e-06 0.00550574)
(5.87438e-06 -5.26185e-07 0.00568429)
(5.09145e-06 1.92677e-07 0.00567253)
(4.14182e-06 5.03716e-07 0.00564903)
(2.9016e-06 7.12913e-07 0.00561452)
(6.2919e-06 -9.8697e-07 0.00574184)
(5.58366e-06 -4.47118e-07 0.00573364)
(4.6514e-06 -1.73205e-07 0.00571642)
(3.40375e-06 2.8579e-08 0.00568633)
(6.63781e-06 -1.3404e-06 0.00576441)
(6.07759e-06 -1.04054e-06 0.00575972)
(5.25074e-06 -8.66686e-07 0.00574972)
(4.09592e-06 -7.36423e-07 0.00572779)
(3.94052e-06 1.51484e-07 0.0055694)
(3.43316e-06 7.5714e-07 0.00555802)
(2.75208e-06 1.12381e-06 0.00553625)
(1.96093e-06 1.24496e-06 0.00550784)
(4.1428e-06 -3.0126e-07 0.00568551)
(3.63845e-06 1.62597e-07 0.00567408)
(2.98019e-06 4.33528e-07 0.00565109)
(2.16752e-06 5.90773e-07 0.00561665)
(4.44864e-06 -6.3753e-07 0.00574289)
(3.987e-06 -2.78506e-07 0.00573511)
(3.34942e-06 -3.84931e-08 0.00571836)
(2.51735e-06 1.06392e-07 0.00568842)
(4.7129e-06 -9.16369e-07 0.00576527)
(4.34452e-06 -6.9707e-07 0.00576104)
(3.78429e-06 -5.32292e-07 0.00575146)
(3.0022e-06 -4.35007e-07 0.00572978)
(2.74997e-06 1.17444e-07 0.00557018)
(2.42013e-06 5.37462e-07 0.00555908)
(1.95702e-06 8.1058e-07 0.00553762)
(1.42652e-06 9.13316e-07 0.00550931)
(2.89505e-06 -1.86083e-07 0.00568631)
(2.56621e-06 1.29842e-07 0.00567517)
(2.11912e-06 3.38829e-07 0.00565248)
(1.57444e-06 4.57023e-07 0.00561814)
(3.11539e-06 -4.24482e-07 0.0057436)
(2.81275e-06 -1.7405e-07 0.00573615)
(2.3816e-06 1.20387e-08 0.00571969)
(1.81799e-06 1.17556e-07 0.0056899)
(3.31165e-06 -6.31258e-07 0.00576588)
(3.06907e-06 -4.67656e-07 0.00576197)
(2.69088e-06 -3.34257e-07 0.00575268)
(2.156e-06 -2.63959e-07 0.00573119)
(1.87411e-06 8.39826e-08 0.00557068)
(1.66071e-06 3.71095e-07 0.0055598)
(1.35295e-06 5.64842e-07 0.00553854)
(9.99886e-07 6.43498e-07 0.00551034)
(1.97511e-06 -1.18432e-07 0.00568684)
(1.76242e-06 9.67946e-08 0.00567593)
(1.46533e-06 2.4682e-07 0.00565342)
(1.10292e-06 3.32469e-07 0.00561919)
(2.12866e-06 -2.81871e-07 0.00574409)
(1.93247e-06 -1.08875e-07 0.00573687)
(1.64638e-06 2.53638e-08 0.0057206)
(1.26887e-06 1.00666e-07 0.00569094)
(2.26836e-06 -4.2773e-07 0.00576631)
(2.11064e-06 -3.09951e-07 0.00576262)
(1.85987e-06 -2.1101e-07 0.00575353)
(1.4991e-06 -1.62527e-07 0.00573218)
(1.21118e-06 5.67932e-08 0.00557101)
(1.07915e-06 2.43393e-07 0.00556028)
(8.84661e-07 3.72038e-07 0.00553915)
(6.60088e-07 4.27043e-07 0.00551104)
(1.27753e-06 -7.04323e-08 0.00568719)
(1.1459e-06 6.94867e-08 0.00567643)
(9.58131e-07 1.69313e-07 0.00565405)
(7.27811e-07 2.27215e-07 0.0056199)
(1.37829e-06 -1.75149e-07 0.00574442)
(1.25674e-06 -6.21102e-08 0.00573736)
(1.07599e-06 2.75762e-08 0.00572121)
(8.34883e-07 7.84571e-08 0.00569164)
(1.4706e-06 -2.70201e-07 0.00576659)
(1.37303e-06 -1.91796e-07 0.00576306)
(1.21524e-06 -1.24695e-07 0.00575409)
(9.83475e-07 -9.35353e-08 0.00573285)
(7.04662e-07 3.9965e-08 0.00557121)
(6.35991e-07 1.50376e-07 0.00556058)
(5.28918e-07 2.29338e-07 0.00553953)
(4.01559e-07 2.66406e-07 0.00551146)
(7.44217e-07 -2.09358e-08 0.0056874)
(6.74978e-07 6.18336e-08 0.00567674)
(5.71371e-07 1.22515e-07 0.00565444)
(4.41055e-07 1.58505e-07 0.00562033)
(8.03146e-07 -7.21148e-08 0.00574462)
(7.39213e-07 -5.98948e-09 0.00573765)
(6.39516e-07 4.77524e-08 0.00572159)
(5.02655e-07 7.89296e-08 0.00569207)
(8.56588e-07 -1.19296e-07 0.00576677)
(8.05467e-07 -7.39951e-08 0.00576332)
(7.1954e-07 -3.45556e-08 0.00575444)
(5.87562e-07 -1.6881e-08 0.00573326)
(3.84472e-07 4.03274e-08 0.00557124)
(3.726e-07 1.07098e-07 0.00556068)
(3.31673e-07 1.63357e-07 0.00553968)
(2.69599e-07 1.99321e-07 0.00551167)
(4.08889e-07 4.94597e-08 0.00568744)
(3.93937e-07 9.94787e-08 0.00567685)
(3.53005e-07 1.40619e-07 0.0056546)
(2.89779e-07 1.672e-07 0.00562054)
(4.3954e-07 6.24711e-08 0.00574466)
(4.24656e-07 9.90358e-08 0.00573776)
(3.85301e-07 1.29397e-07 0.00572175)
(3.19987e-07 1.46342e-07 0.00569227)
(4.65654e-07 7.07069e-08 0.00576681)
(4.53727e-07 9.38191e-08 0.00576342)
(4.20098e-07 1.13242e-07 0.00575459)
(3.57934e-07 1.20232e-07 0.00573345)
(0.00305558 -6.20754e-05 0.0137359)
(0.00127538 -0.000598257 0.00799276)
(0.00166617 -0.00039967 0.00809975)
(0.0022888 0.000769402 0.0131967)
(0.000762122 -4.18486e-05 0.00878557)
(0.00124086 0.00025909 0.00754025)
(0.000482613 4.60033e-05 0.00178456)
(0.00133662 -0.000304692 0.00687367)
(0.00129715 -0.000286699 0.00685707)
(0.00291852 0.000295176 0.00957626)
(0.00169729 0.00078965 0.0125644)
(9.4898e-05 -3.92545e-05 0.00898579)
(0.000288446 8.0179e-05 0.00367894)