/*--------------------------------*- C++ -*----------------------------------*\
| =========                 |                                                 |
| \\      /  F ield         | OpenFOAM: The Open Source CFD Toolbox           |
|  \\    /   O peration     | Version:  2506                                  |
|   \\  /    A nd           | Website:  www.openfoam.com                      |
|    \\/     M anipulation  |                                                 |
\*---------------------------------------------------------------------------*/
FoamFile
{
    version     2.0;
    format      ascii;
    arch        "LSB;label=32;scalar=64";
    class       volScalarField;
    location    "0.02";
    object      voidfraction;
}
// * * * * * * * * * * * * * * * * * * * * * * * * * * * * * * * * * * * * * //

dimensions      [0 0 0 0 0 0 0];

internalField   nonuniform List<scalar> 
1152
(
0.525997
0.47333
0.452263
0.42593
0.444363
0.460163
0.38643
0.428563
0.44963
0.436463
0.415396
0.494397
0.404863
0.446997
0.51283
0.51283
0.404863
0.378529
0.38643
0.378529
0.396963
0.383796
0.38643
0.423296
0.412763
0.42593
0.407496
0.383796
0.399596
0.360096
0.315329
0.415396
0.48123
0.381163
0.396963
0.328496
0.367996
0.383796
0.452263
0.420663
0.389063
0.399596
0.41013
0.357463
0.412763
0.44173
0.462797
0.336396
0.344296
0.423296
0.375896
0.40223
0.367996
0.357463
0.462797
0.420663
0.41013
0.367996
0.40223
0.357463
0.346929
0.431196
0.399596
0.325862
0.43383
0.407496
0.415396
0.412763
0.42593
0.349563
0.352196
0.40223
0.431196
0.446997
0.373263
0.44963
0.462797
0.291629
0.483863
0.44173
0.362729
0.407496
0.41803
0.446997
0.47333
0.375896
0.404863
0.354829
0.381163
0.43383
0.38643
0.357463
0.346929
0.389063
0.43383
0.43383
0.715598
0.736665
0.655031
0.697165
0.662931
0.633964
0.655031
0.560231
0.641864
0.739298
0.655031
0.668198
0.515464
0.554964
0.849899
0.755098
1
1
1
1
1
1
1
1
1
1
1
1
0.997367
1
1
1
1
1
1
1
1
1
1
1
1
1
1
1
1
1
1
1
1
1
1
1
1
1
1
1
1
1
1
1
1
1
1
1
1
1
1
1
1
1
1
1
1
1
1
1
1
1
1
1
1
1
1
1
1
1
1
1
1
1
1
1
1
1
1
1
1
1
1
1
1
1
1
1
1
1
1
1
1
1
1
1
1
1
1
1
1
1
1
1
1
1
1
1
1
1
1
1
1
1
1
1
1
1
1
1
1
1
1
1
1
1
1
1
1
1
1
1
1
1
1
1
1
1
1
1
1
1
1
1
1
1
1
1
1
1
1
1
1
1
1
1
1
1
1
1
1
1
1
1
1
1
1
1
1
1
1
1
1
1
1
1
1
1
1
1
1
1
1
1
1
1
1
1
1
1
1
1
1
1
1
1
1
1
1
1
1
1
1
1
1
1
1
1
1
1
1
1
1
1
1
1
1
1
1
1
1
1
1
1
1
1
1
1
1
1
1
1
1
1
1
1
1
1
1
1
1
1
1
1
1
1
1
1
1
1
1
1
1
1
1
1
1
1
1
1
1
1
1
1
1
1
1
1
1
1
1
1
0.534686
0.424475
0.428186
0.463137
0.446126
0.49468
0.539566
0.436882
0.48043
0.389834
0.487571
0.510388
0.483792
0.458621
0.473631
0.382276
0.416568
0.420663
0.415141
0.457741
0.412498
0.427022
0.408014
0.399753
0.425157
0.396957
0.421093
0.412466
0.441193
0.363879
0.390182
0.412943
0.359299
0.409229
0.399921
0.436159
0.382826
0.410107
0.437248
0.421411
0.391992
0.399331
0.407244
0.350811
0.325923
0.423431
0.351667
0.456753
0.344981
0.430192
0.415141
0.473928
0.34722
0.410107
0.415322
0.375
0.447266
0.380338
0.410014
0.358065
0.363511
0.342224
0.444744
0.395419
0.395092
0.434003
0.449928
0.444252
0.410519
0.40165
0.405578
0.387377
0.427367
0.382712
0.440483
0.426973
0.383558
0.445086
0.351667
0.465515
0.334243
0.43972
0.399921
0.438857
0.473819
0.427022
0.422631
0.427599
0.394203
0.423073
0.412784
0.405212
0.383558
0.385534
0.383763
0.3998
0.711863
0.603612
0.558638
0.681659
0.728997
0.697654
0.559056
0.563738
0.745742
0.755459
0.673153
0.735247
0.832107
0.72931
0.752863
0.649518
1
1
1
1
1
1
1
1
1
1
1
1
1
1
1
1
1
1
1
1
1
1
1
1
1
1
1
1
1
1
1
1
1
1
1
1
1
1
1
1
1
1
1
1
1
1
1
1
1
1
1
1
1
1
1
1
1
1
1
1
1
1
1
1
1
1
1
1
1
1
1
1
1
1
1
1
1
1
1
1
1
1
1
1
1
1
1
1
1
1
1
1
1
1
1
1
1
1
1
1
1
1
1
1
1
1
1
1
1
1
1
1
1
1
1
1
1
1
1
1
1
1
1
1
1
1
1
1
1
1
1
1
1
1
1
1
1
1
1
1
1
1
1
1
1
1
1
1
1
1
1
1
1
1
1
1
1
1
1
1
1
1
1
1
1
1
1
1
1
1
1
1
1
1
1
1
1
1
1
1
1
1
1
1
1
1
1
1
1
1
1
1
1
1
1
1
1
1
1
1
1
1
1
1
1
1
1
1
1
1
1
1
1
1
1
1
1
1
1
1
1
1
1
1
1
1
1
1
1
1
1
1
1
1
1
1
1
1
1
1
1
1
1
1
1
1
1
1
1
1
1
1
1
1
1
1
1
1
1
1
1
1
1
1
1
1
1
1
1
1
1
1
0.465515
0.434226
0.461634
0.525186
0.435116
0.418323
0.361727
0.460799
0.420724
0.456311
0.47988
0.464495
0.350982
0.449477
0.473819
0.448782
0.35599
0.437853
0.402847
0.411879
0.40623
0.404474
0.456737
0.493412
0.382827
0.458686
0.424908
0.407323
0.386064
0.319032
0.38876
0.375406
0.491801
0.423346
0.362624
0.428065
0.415858
0.434943
0.37878
0.406444
0.396362
0.38746
0.437593
0.395889
0.44871
0.418524
0.380848
0.479206
0.364752
0.4306
0.35953
0.42267
0.351667
0.368465
0.459173
0.406444
0.396362
0.396957
0.329764
0.487363
0.421146
0.398625
0.368979
0.361088
0.342847
0.4306
0.347154
0.390296
0.415858
0.407244
0.437248
0.443405
0.412603
0.404079
0.469308
0.397795
0.401099
0.40968
0.430301
0.486365
0.329703
0.390705
0.353342
0.498208
0.422277
0.421093
0.449429
0.382528
0.412603
0.380338
0.420679
0.388266
0.373534
0.372094
0.382826
0.389723
0.732758
0.688099
0.702971
0.727522
0.679043
0.614986
0.702789
0.832587
0.623741
0.764956
0.816055
0.7332
0.761943
0.774484
0.8734
0.813874
1
1
1
1
1
1
1
1
1
1
1
1
1
1
1
1
1
1
1
1
1
1
1
1
1
1
1
1
1
1
1
1
1
1
1
1
1
1
1
1
1
1
1
1
1
1
1
1
1
1
1
1
1
1
1
1
1
1
1
1
1
1
1
1
1
1
1
1
1
1
1
1
1
1
1
1
1
1
1
1
1
1
1
1
1
1
1
1
1
1
1
1
1
1
1
1
1
1
1
1
1
1
1
1
1
1
1
1
1
1
1
1
1
1
1
1
1
1
1
1
1
1
1
1
1
1
1
1
1
1
1
1
1
1
1
1
1
1
1
1
1
1
1
1
1
1
1
1
1
1
1
1
1
1
1
1
1
1
1
1
1
1
1
1
1
1
1
1
1
1
1
1
1
1
1
1
1
1
1
1
1
1
1
1
1
1
1
1
1
1
1
1
1
1
1
1
1
1
1
1
1
1
1
1
1
1
1
1
1
1
1
1
1
1
1
1
1
1
1
1
1
1
1
1
1
1
1
1
1
1
1
1
1
1
1
1
1
1
1
1
1
1
1
1
1
1
1
1
1
1
1
1
1
1
1
1
1
1
1
1
1
1
1
1
1
1
1
1
1
1
1
1
)
;

boundaryField
{
    inlet
    {
        type            fixedValue;
        value           uniform 1;
    }
    outlet
    {
        type            fixedValue;
        value           uniform 1;
    }
    wall
    {
        type            zeroGradient;
    }
    procBoundary1to0
    {
        type            processor;
        value           nonuniform List<scalar> 
192
(
0.383796
0.381163
0.436463
0.42593
0.304796
0.381163
0.344296
0.357463
0.312696
0.41803
0.452263
0.370629
0.44173
0.41803
0.325862
0.51283
0.407496
0.389063
0.48123
0.357463
0.446997
0.444363
0.468063
0.428563
0.618164
0.539164
0.705065
0.602364
1
1
1
1
1
1
1
1
1
1
1
1
1
1
1
1
1
1
1
1
1
1
1
1
1
1
1
1
1
1
1
1
1
1
1
1
1
1
1
1
1
1
1
1
1
1
1
1
1
1
1
1
1
1
1
1
1
1
1
1
1
1
1
1
1
1
1
1
0.391513
0.412498
0.476008
0.373534
0.423727
0.450082
0.403047
0.463745
0.434465
0.410519
0.374305
0.463745
0.495313
0.424366
0.414102
0.37604
0.450572
0.402607
0.38536
0.41864
0.493524
0.398651
0.425157
0.458734
0.663542
0.639982
0.796594
0.684261
1
1
1
1
1
1
1
1
1
1
1
1
1
1
1
1
1
1
1
1
1
1
1
1
1
1
1
1
1
1
1
1
1
1
1
1
1
1
1
1
1
1
1
1
1
1
1
1
1
1
1
1
1
1
1
1
1
1
1
1
1
1
1
1
1
1
1
1
)
;
    }
    procBoundary1to3
    {
        type            processor;
        value           nonuniform List<scalar> 
192
(
0.562864
0.412763
0.436463
0.365363
0.510197
0.396963
0.460163
0.43383
0.431196
0.367996
0.365363
0.499664
0.270562
0.344296
0.431196
0.381163
0.296896
0.510197
0.39433
0.38643
0.48913
0.44173
0.41013
0.431196
0.507564
0.549697
0.570764
0.683998
1
1
1
1
1
1
1
1
1
1
1
1
1
1
1
1
1
1
1
1
1
1
1
1
1
1
1
1
1
1
1
1
1
1
1
1
1
1
1
1
1
1
1
1
1
1
1
1
1
1
1
1
1
1
1
1
1
1
1
1
1
1
1
1
1
1
1
1
0.49131
0.473797
0.418432
0.452361
0.37604
0.356617
0.463929
0.464889
0.381052
0.343352
0.422388
0.448782
0.416134
0.436211
0.438213
0.486365
0.428663
0.361039
0.42041
0.391513
0.451216
0.429578
0.471841
0.411199
0.684261
0.721422
0.70526
0.645646
1
1
1
1
1
1
1
1
1
1
1
1
1
1
1
1
1
1
1
1
1
1
1
1
1
1
1
1
1
1
1
1
1
1
1
1
1
1
1
1
1
1
1
1
1
1
1
1
1
1
1
1
1
1
1
1
1
1
1
1
1
1
1
1
1
1
1
1
)
;
    }
}


// ************************************************************************* //
