/*--------------------------------*- C++ -*----------------------------------*\
| =========                 |                                                 |
| \\      /  F ield         | OpenFOAM: The Open Source CFD Toolbox           |
|  \\    /   O peration     | Version:  2506                                  |
|   \\  /    A nd           | Website:  www.openfoam.com                      |
|    \\/     M anipulation  |                                                 |
\*---------------------------------------------------------------------------*/
FoamFile
{
    version     2.0;
    format      ascii;
    arch        "LSB;label=32;scalar=64";
    class       volScalarField;
    location    "0.03";
    object      Ksl;
}
// * * * * * * * * * * * * * * * * * * * * * * * * * * * * * * * * * * * * * //

dimensions      [1 -3 -1 0 0 0 0];

internalField   nonuniform List<scalar> 
1152
(
167383
214931
137157
141785
80163.6
101459
142596
843498
137250
107318
128196
64772.5
106569
91670
128491
90712.7
168358
361933
205148
2.21248e+07
326974
238701
172767
210349
221247
258221
678906
149293
309911
166165
251849
407099
352243
276260
240279
102281
132859
157282
1.22148e+06
179499
283147
211050
152800
278810
115171
508598
192981
445690
170249
2.1305e+06
284366
344822
224877
264023
198539
229540
1.161e+06
278793
278346
183415
389550
227760
235519
1.75563e+06
2.70726e+06
197774
182527
119670
193579
181649
269124
400664
330173
210862
311478
146481
174647
239998
169877
587436
117724
292181
337612
1.78371e+06
236619
224175
486180
206737
276329
247587
131066
189603
103288
174561
192437
2.25937e+06
83192.7
75286
71086.7
61481.4
50026.7
67602
99983.1
94547.4
54030.4
64551
107485
74303.8
41306.6
82914.4
165058
103550
0
0
0
0
0
0
0
0
0
0
0
0
0
0
0
0
0
0
0
0
0
0
0
0
0
0
0
0
0
0
0
0
0
0
0
0
0
0
0
0
0
0
0
0
0
0
0
0
0
0
0
0
0
0
0
0
0
0
0
0
0
0
0
0
0
0
0
0
0
0
0
0
0
0
0
0
0
0
0
0
0
0
0
0
0
0
0
0
0
0
0
0
0
0
0
0
0
0
0
0
0
0
0
0
0
0
0
0
0
0
0
0
0
0
0
0
0
0
0
0
0
0
0
0
0
0
0
0
0
0
0
0
0
0
0
0
0
0
0
0
0
0
0
0
0
0
0
0
0
0
0
0
0
0
0
0
0
0
0
0
0
0
0
0
0
0
0
0
0
0
0
0
0
0
0
0
0
0
0
0
0
0
0
0
0
0
0
0
0
0
0
0
0
0
0
0
0
0
0
0
0
0
0
0
0
0
0
0
0
0
0
0
0
0
0
0
0
0
0
0
0
0
0
0
0
0
0
0
0
0
0
0
0
0
0
0
0
0
0
0
0
0
0
0
0
0
0
0
0
0
0
0
0
0
0
0
0
0
0
0
0
0
0
0
0
0
0
0
0
0
0
0
77532.1
209217
65866.2
129835
149983
121119
124797
108591
101228
101934
106000
113574
93669.6
148391
90003.7
111339
122448
185256
229619
752884
165910
626296
312216
482789
373509
125963
201470
221025
174134
260518
182579
292510
610997
188383
214779
110634
250348
199283
408431
128751
194239
390790
160585
331784
197830
162056
212697
260407
247070
327747
416658
163712
156342
145735
320280
259632
212760
167091
170848
285784
174049
402739
233779
165951
113907
202931
154786
207921
1.11271e+06
335649
285657
386348
386614
233138
136979
189570
195122
118482
438946
227940
4.75013e+06
360194
352532
701246
137171
169568
289986
108663
220516
196794
142390
1.4525e+07
165467
388376
277843
97137.1
44135.7
53286.8
48669
44751.6
55753.1
74221.5
41695.9
71297.1
79768
61548.7
39553
104086
55304.4
29116.2
61304.5
17691.6
0
0
0
0
0
0
0
0
0
0
0
0
0
0
0
0
0
0
0
0
0
0
0
0
0
0
0
0
0
0
0
0
0
0
0
0
0
0
0
0
0
0
0
0
0
0
0
0
0
0
0
0
0
0
0
0
0
0
0
0
0
0
0
0
0
0
0
0
0
0
0
0
0
0
0
0
0
0
0
0
0
0
0
0
0
0
0
0
0
0
0
0
0
0
0
0
0
0
0
0
0
0
0
0
0
0
0
0
0
0
0
0
0
0
0
0
0
0
0
0
0
0
0
0
0
0
0
0
0
0
0
0
0
0
0
0
0
0
0
0
0
0
0
0
0
0
0
0
0
0
0
0
0
0
0
0
0
0
0
0
0
0
0
0
0
0
0
0
0
0
0
0
0
0
0
0
0
0
0
0
0
0
0
0
0
0
0
0
0
0
0
0
0
0
0
0
0
0
0
0
0
0
0
0
0
0
0
0
0
0
0
0
0
0
0
0
0
0
0
0
0
0
0
0
0
0
0
0
0
0
0
0
0
0
0
0
0
0
0
0
0
0
0
0
0
0
0
0
0
0
0
0
0
0
0
0
0
0
0
0
0
0
0
0
0
0
0
0
0
0
0
0
122012
71321.5
162216
98950
202945
99289.1
128171
104568
108337
88836.3
137535
99013.3
131281
210144
69062.3
150034
408459
259998
802811
517372
156910
305471
201387
211264
118161
292718
258629
128856
204070
173492
266753
220886
167417
96141.9
275217
135783
902573
163626
215798
701744
125791
469578
192114
1.28705e+06
285141
146849
224940
276999
273383
148766
275219
201480
310082
205194
187376
457527
177618
138317
2.62715e+06
125156
171335
284435
180254
304401
148324
270027
329229
169693
211695
262034
179487
283944
261080
169337
286557
155707
184663
264932
171820
320417
217360
85032.1
344733
165462
214007
158606
196075
362630
212566
137963
253393
143772
212584
249663
399067
531668
34879.2
14997.4
45860.4
22574.8
33462.3
102709
39062.9
109354
46517.3
54338.6
44423.7
53779.9
66578.6
78218.6
46851.8
38321
0
0
0
0
0
0
0
0
0
0
0
0
0
0
0
0
0
0
0
0
0
0
0
0
0
0
0
0
0
0
0
0
0
0
0
0
0
0
0
0
0
0
0
0
0
0
0
0
0
0
0
0
0
0
0
0
0
0
0
0
0
0
0
0
0
0
0
0
0
0
0
0
0
0
0
0
0
0
0
0
0
0
0
0
0
0
0
0
0
0
0
0
0
0
0
0
0
0
0
0
0
0
0
0
0
0
0
0
0
0
0
0
0
0
0
0
0
0
0
0
0
0
0
0
0
0
0
0
0
0
0
0
0
0
0
0
0
0
0
0
0
0
0
0
0
0
0
0
0
0
0
0
0
0
0
0
0
0
0
0
0
0
0
0
0
0
0
0
0
0
0
0
0
0
0
0
0
0
0
0
0
0
0
0
0
0
0
0
0
0
0
0
0
0
0
0
0
0
0
0
0
0
0
0
0
0
0
0
0
0
0
0
0
0
0
0
0
0
0
0
0
0
0
0
0
0
0
0
0
0
0
0
0
0
0
0
0
0
0
0
0
0
0
0
0
0
0
0
0
0
0
0
0
0
0
0
0
0
0
0
0
0
0
0
0
0
0
0
0
0
0
0
)
;

boundaryField
{
    inlet
    {
        type            zeroGradient;
    }
    outlet
    {
        type            zeroGradient;
    }
    wall
    {
        type            zeroGradient;
    }
    procBoundary2to0
    {
        type            processor;
        value           nonuniform List<scalar> 
192
(
128013
58005.7
103871
118934
185574
390926
199190
244691
343582
136677
445678
1.84015e+06
554908
134433
211029
100937
119081
482248
379209
4.60072e+06
284304
177129
180066
137458
28915.2
94065
253632
76101.2
0
0
0
0
0
0
0
0
0
0
0
0
0
0
0
0
0
0
0
0
0
0
0
0
0
0
0
0
0
0
0
0
0
0
0
0
0
0
0
0
0
0
0
0
0
0
0
0
0
0
0
0
0
0
0
0
0
0
0
0
0
0
0
0
0
0
0
0
169866
187579
88067
93634.5
235470
186151
196590
219771
287674
565380
448720
163165
158773
677043
305869
211167
274975
215285
183690
285409
156366
298682
174867
161336
71880.4
45040.1
19040.5
36978.7
0
0
0
0
0
0
0
0
0
0
0
0
0
0
0
0
0
0
0
0
0
0
0
0
0
0
0
0
0
0
0
0
0
0
0
0
0
0
0
0
0
0
0
0
0
0
0
0
0
0
0
0
0
0
0
0
0
0
0
0
0
0
0
0
0
0
0
0
)
;
    }
    procBoundary2to3
    {
        type            processor;
        value           nonuniform List<scalar> 
192
(
59343
51229
310142
162839
103313
272160
5.51568e+06
146597
257290
2.03356e+06
202056
221383
465063
191491
245223
162942
6.54784e+06
226710
276590
226391
100810
115928
558991
108700
273322
81152.6
78023.7
803061
0
0
0
0
0
0
0
0
0
0
0
0
0
0
0
0
0
0
0
0
0
0
0
0
0
0
0
0
0
0
0
0
0
0
0
0
0
0
0
0
0
0
0
0
0
0
0
0
0
0
0
0
0
0
0
0
0
0
0
0
0
0
0
0
0
0
0
0
77390.5
189223
84708.6
775458
179714
169220
219569
120644
450240
852554
253209
369190
403666
251502
154524
222421
229476
136999
6.84089e+06
313412
95852.5
4.9829e+06
128421
218805
212874
38647.9
42464.8
42976.8
0
0
0
0
0
0
0
0
0
0
0
0
0
0
0
0
0
0
0
0
0
0
0
0
0
0
0
0
0
0
0
0
0
0
0
0
0
0
0
0
0
0
0
0
0
0
0
0
0
0
0
0
0
0
0
0
0
0
0
0
0
0
0
0
0
0
0
0
)
;
    }
}


// ************************************************************************* //
