/*--------------------------------*- C++ -*----------------------------------*\
| =========                 |                                                 |
| \\      /  F ield         | OpenFOAM: The Open Source CFD Toolbox           |
|  \\    /   O peration     | Version:  2506                                  |
|   \\  /    A nd           | Website:  www.openfoam.com                      |
|    \\/     M anipulation  |                                                 |
\*---------------------------------------------------------------------------*/
FoamFile
{
    version     2.0;
    format      ascii;
    arch        "LSB;label=32;scalar=64";
    class       volVectorField;
    location    "0.03";
    object      U;
}
// * * * * * * * * * * * * * * * * * * * * * * * * * * * * * * * * * * * * * //

dimensions      [0 1 -1 0 0 0 0];

internalField   nonuniform List<vector> 
1152
(
(-0.000620004 0.00046326 0.00770114)
(-3.77996e-05 -0.000226875 0.00579295)
(0.0012145 -0.000805211 0.0093743)
(0.00173308 -0.000511008 0.00929198)
(-0.00118882 0.00121792 0.016587)
(-0.00108892 0.0011395 0.0129133)
(-0.000171248 2.01602e-05 0.00883711)
(0.000260946 -0.000282583 0.0014578)
(-0.0013857 0.000625236 0.00874562)
(-0.00108531 0.000840314 0.0115898)
(0.000438287 0.00046311 0.0101361)
(-0.000312091 0.000916144 0.0192545)
(-0.000822826 0.00167213 0.0121234)
(-0.00152718 0.000554678 0.0129625)
(-0.000680901 0.000961869 0.00952148)
(5.36913e-05 -0.000856085 0.0123893)
(-0.000321586 0.000569174 0.0193323)
(7.50658e-05 0.000635374 0.00779492)
(0.00193599 0.000764245 0.0142573)
(4.42447e-05 -2.58065e-05 0.000528064)
(0.000484222 -0.000141743 0.00910586)
(-0.000136199 -0.000367375 0.01262)
(0.00037263 -0.000127984 0.0178083)
(-0.00198974 -0.00309486 0.0139709)
(6.74338e-05 0.000415463 0.0132466)
(0.000142109 -0.000577042 0.0113617)
(-0.000258642 -5.58763e-05 0.00412302)
(0.000113085 -0.00273566 0.0210918)
(-0.000452137 0.000126161 0.00961429)
(-0.00126821 0.000827761 0.01876)
(-0.000749053 -0.000933028 0.0115989)
(8.87927e-05 0.00126287 0.00692055)
(-0.000689167 0.000171651 0.0106964)
(-0.000770569 -0.000399682 0.0136361)
(-0.00102468 -0.000393448 0.0151119)
(-0.00407996 -0.00596407 0.0364646)
(-0.000326832 -0.00167424 0.0306464)
(-0.000728521 -0.000149925 0.0250528)
(-5.95729e-06 7.85804e-05 0.00290157)
(-1.87157e-05 0.00135488 0.0207403)
(-0.000532487 -0.000260846 0.0127414)
(0.000761732 -0.000204711 0.0180513)
(-0.000275982 0.000853604 0.025202)
(0.000171845 0.000494565 0.0135195)
(-0.00135064 0.000366388 0.0351075)
(3.34634e-05 0.000204259 0.00712697)
(0.000409263 -3.98894e-05 0.0201709)
(-0.000159596 0.000477085 0.00762616)
(-0.000126684 -0.00331594 0.0240153)
(7.64193e-05 -0.000110941 0.00214543)
(-0.00128169 -4.67945e-05 0.013263)
(-0.00104055 -0.000301385 0.0118255)
(-0.00129717 -0.0001888 0.0173762)
(0.000329412 -0.000164299 0.0138137)
(-0.000511136 -0.00045124 0.0192804)
(0.000361604 0.0013798 0.0172823)
(-7.35583e-05 -4.15592e-05 0.00321216)
(-0.000599592 0.000891128 0.0131807)
(0.000123439 0.000482275 0.0136861)
(0.000607431 0.00100868 0.0218286)
(-6.22917e-05 0.000610187 0.00978027)
(0.000484513 0.000634113 0.0169329)
(-0.000682971 0.0012415 0.0160719)
(-0.000130181 -0.000261323 0.00226386)
(-2.99465e-05 -0.000104039 0.00173044)
(-0.00235725 0.000232582 0.0181719)
(-0.00158718 -0.000318958 0.0210191)
(0.0040136 0.0043383 0.0333257)
(-0.000770405 -0.00043735 0.0194851)
(-0.00159266 0.000305496 0.0210605)
(-0.000463086 0.000827888 0.0131998)
(0.00096709 0.00015636 0.00909225)
(0.000134707 0.000581554 0.0105065)
(-0.000521368 0.000740645 0.0172614)
(-0.000506726 0.000674985 0.0115278)
(-0.00154276 0.000930236 0.0255313)
(0.00127208 -0.000892426 0.0228814)
(-0.00114138 -0.000238158 0.0151951)
(-0.00105828 -0.000398914 0.0216577)
(0.000138083 -7.49586e-05 0.00573867)
(-0.00255916 -0.000497689 0.0185809)
(-0.000649348 -3.91186e-06 0.00763363)
(-0.000536079 0.000294858 0.00692369)
(-0.000100507 -7.87559e-05 0.0016456)
(-0.000664105 0.000301463 0.00919045)
(-0.000878893 2.00217e-05 0.01004)
(-0.000203575 -0.000148318 0.00472873)
(-0.000594771 0.000137759 0.0114898)
(-0.000218482 -0.000151172 0.00759103)
(-0.00143459 -9.98278e-05 0.00905929)
(-0.00164189 -0.00129036 0.018189)
(0.000524575 0.00104654 0.012439)
(-0.0039031 0.000814769 0.0226545)
(-0.00192676 0.000829526 0.0131541)
(0.000482448 0.00137392 0.0116398)
(-3.13893e-05 0.000122482 0.00140893)
(-0.00016022 0.000258001 0.0075039)
(-0.00070481 0.000416543 0.00885633)
(-0.00012768 -0.000273506 0.0107512)
(0.000545777 5.55536e-05 0.0144108)
(4.88733e-05 0.00182417 0.010899)
(1.02604e-05 -4.51391e-05 0.01023)
(5.60121e-05 1.96113e-05 0.00748772)
(-0.000151369 -3.93058e-05 0.00875352)
(-0.000147558 -5.24342e-05 0.00989016)
(-6.34582e-05 -8.28873e-06 0.0107606)
(-0.000180712 8.96318e-05 0.00794919)
(-0.000720857 0.000759007 0.0115536)
(-0.00012889 -0.000275157 0.0152265)
(3.8367e-05 3.85793e-05 0.00887792)
(-5.72092e-05 0.000321212 0.00522791)
(0.000290062 0.000278382 0.00585192)
(0.0010483 0.000334616 0.0124319)
(0.000746083 1.85257e-05 0.0121039)
(0.000630333 -0.000129058 0.0124955)
(0.000642363 -0.000343941 0.0191436)
(0.000198892 0.000274968 0.0147101)
(0.000558722 -1.93292e-05 0.0142537)
(0.000403347 -0.000182281 0.0106416)
(3.07068e-05 -0.000371975 0.0139526)
(9.28739e-05 7.20458e-05 0.015643)
(0.000293472 -4.06984e-05 0.0150059)
(8.90305e-05 -0.000274582 0.0142034)
(-0.000158127 -0.000467977 0.0159617)
(-0.000107931 -7.44783e-05 0.0198838)
(0.000133004 -0.000208853 0.0142794)
(-0.000262084 -0.000353448 0.010913)
(-0.000599709 -0.000376393 0.0122884)
(0.000309864 0.000112258 0.00368607)
(0.000144767 -3.35553e-05 0.00321521)
(-0.000675624 -3.05693e-05 0.00308777)
(-0.000820345 0.000636923 0.00411246)
(-6.84446e-05 -0.000449021 0.00374837)
(0.000353094 -0.00033364 0.00334792)
(-0.000278648 -0.000167134 0.0028662)
(-0.00090064 0.000359464 0.00352704)
(0.000155668 -0.000714222 0.00393826)
(0.000347677 -0.000297135 0.00352591)
(-8.29135e-05 -0.000128562 0.0032742)
(-0.000174208 0.000323243 0.00358318)
(0.000292994 -0.000656129 0.00444902)
(0.000846975 -0.000393824 0.00345098)
(0.000228168 -0.000267611 0.00298249)
(0.000184388 -4.49494e-05 0.00308505)
(0.000183389 0.000118316 0.0084302)
(0.000118809 8.35072e-05 0.00830399)
(-0.000260801 6.61732e-05 0.00831346)
(-0.000386377 0.000241454 0.00898851)
(4.33285e-05 -7.85774e-05 0.00848737)
(0.000145777 -5.96904e-05 0.0083421)
(-0.000162726 -1.681e-05 0.00815871)
(-0.000399564 0.000163322 0.00864596)
(0.000111307 -0.000186454 0.00871443)
(0.000149173 -0.000107876 0.00849666)
(-7.15882e-05 -6.21548e-05 0.00838227)
(-0.000145111 0.000111405 0.00858399)
(4.28933e-05 -0.000138551 0.00895065)
(0.000231047 -0.000177963 0.00849638)
(1.28178e-05 -0.000189028 0.00820242)
(-1.47166e-05 -0.000132165 0.00828135)
(6.8955e-05 5.64296e-05 0.00723447)
(4.00944e-05 5.28963e-05 0.00716515)
(-0.000109202 4.56416e-05 0.00715517)
(-0.000161727 9.12756e-05 0.00737815)
(3.65083e-05 -4.63645e-05 0.0072018)
(5.00575e-05 -2.48235e-05 0.00713635)
(-7.74022e-05 1.55186e-07 0.00709044)
(-0.000157351 6.69271e-05 0.00726864)
(9.48479e-05 -0.000125155 0.00725502)
(7.94213e-05 -7.79248e-05 0.00717697)
(-2.60812e-05 -3.92894e-05 0.00714588)
(-6.58133e-05 3.22319e-05 0.00723728)
(9.99927e-05 -0.000142222 0.00727138)
(0.000122718 -0.000131307 0.00717216)
(1.87909e-05 -0.000109672 0.00711046)
(-8.73653e-06 -8.5948e-05 0.00716852)
(3.43074e-05 3.32336e-05 0.00755431)
(1.91066e-05 2.97004e-05 0.00753545)
(-3.67759e-05 2.4526e-05 0.00753749)
(-5.67574e-05 3.37832e-05 0.00761912)
(1.92511e-05 -8.20369e-06 0.00753908)
(1.82113e-05 -4.28129e-06 0.0075202)
(-2.93745e-05 2.96804e-06 0.00751306)
(-5.4397e-05 2.33141e-05 0.00758026)
(3.63678e-05 -3.96989e-05 0.00757026)
(2.88662e-05 -3.2445e-05 0.00754054)
(-1.10789e-05 -2.10697e-05 0.00752967)
(-2.34584e-05 1.77741e-06 0.00756666)
(2.02851e-05 -4.6403e-05 0.00758449)
(3.25312e-05 -5.8354e-05 0.00754816)
(1.06757e-06 -5.6807e-05 0.00752391)
(2.43277e-07 -5.2365e-05 0.00754698)
(1.89602e-05 1.65285e-05 0.00756277)
(1.20288e-05 1.3774e-05 0.00755871)
(-8.17495e-06 1.04101e-05 0.00756099)
(-1.57239e-05 1.15343e-05 0.00758992)
(1.26977e-05 -2.98212e-06 0.00755127)
(1.03668e-05 -2.12412e-06 0.00754951)
(-6.90287e-06 2.99907e-07 0.00755074)
(-1.46892e-05 6.27778e-06 0.00757557)
(1.97004e-05 -2.01101e-05 0.00755673)
(1.51551e-05 -1.75889e-05 0.00755443)
(-1.98846e-07 -1.28405e-05 0.00755448)
(-4.0735e-06 -5.30328e-06 0.00757058)
(1.41044e-05 -2.80317e-05 0.00754551)
(1.61103e-05 -3.14825e-05 0.00755192)
(4.22997e-06 -2.96291e-05 0.00755229)
(5.81966e-06 -2.83289e-05 0.00756516)
(1.14816e-05 7.63098e-06 0.00757402)
(8.70327e-06 5.63105e-06 0.00757479)
(1.72562e-06 3.79923e-06 0.00757629)
(-9.61544e-07 3.30458e-06 0.00758612)
(8.49454e-06 -1.1375e-06 0.0075671)
(7.40475e-06 -1.47935e-06 0.00756996)
(1.6145e-06 -9.15911e-07 0.00757191)
(-5.80598e-07 7.9567e-07 0.00758092)
(1.05957e-05 -9.20296e-06 0.00756544)
(8.94363e-06 -9.04644e-06 0.00757025)
(3.88694e-06 -7.46374e-06 0.00757232)
(3.26888e-06 -4.87687e-06 0.00757903)
(7.31445e-06 -1.38028e-05 0.00755195)
(8.58551e-06 -1.57928e-05 0.00756536)
(5.37544e-06 -1.48954e-05 0.00756989)
(7.52422e-06 -1.47266e-05 0.00757638)
(7.64794e-06 3.21184e-06 0.007579)
(6.7957e-06 1.90178e-06 0.00758165)
(4.52488e-06 8.69935e-07 0.00758264)
(3.59111e-06 3.73439e-07 0.00758568)
(6.13948e-06 -7.15909e-07 0.00757436)
(5.91567e-06 -1.26924e-06 0.00757892)
(4.25896e-06 -1.30545e-06 0.00758064)
(3.82748e-06 -7.76092e-07 0.0075837)
(6.54821e-06 -4.46122e-06 0.00756923)
(6.22853e-06 -4.76489e-06 0.007577)
(4.97176e-06 -4.33628e-06 0.00757981)
(5.33065e-06 -3.40979e-06 0.00758255)
(4.85542e-06 -6.99679e-06 0.00755329)
(5.80832e-06 -7.98245e-06 0.00756984)
(5.43746e-06 -7.6606e-06 0.00757605)
(7.16184e-06 -7.6113e-06 0.00757961)
(5.38281e-06 1.14905e-06 0.00758081)
(5.30993e-06 3.52146e-07 0.00758422)
(4.7244e-06 -2.29302e-07 0.00758496)
(4.45503e-06 -5.12046e-07 0.00758567)
(4.61739e-06 -5.65725e-07 0.00757733)
(4.79305e-06 -1.01783e-06 0.0075825)
(4.51232e-06 -1.17341e-06 0.00758399)
(4.59933e-06 -1.02164e-06 0.00758488)
(4.47077e-06 -2.23069e-06 0.00757078)
(4.71358e-06 -2.57839e-06 0.00757962)
(4.69438e-06 -2.5345e-06 0.00758263)
(5.21749e-06 -2.2145e-06 0.00758382)
(3.58856e-06 -3.53746e-06 0.00755367)
(4.37497e-06 -4.04651e-06 0.00757115)
(4.78827e-06 -4.01296e-06 0.00757786)
(5.99845e-06 -3.99317e-06 0.00758027)
(3.88819e-06 2.5193e-07 0.00758113)
(4.10005e-06 -2.18745e-07 0.00758494)
(4.08934e-06 -5.45623e-07 0.00758566)
(4.0575e-06 -7.00134e-07 0.00758564)
(3.50474e-06 -4.57176e-07 0.00757818)
(3.79712e-06 -7.74116e-07 0.00758361)
(3.94196e-06 -9.24052e-07 0.00758504)
(4.14029e-06 -8.9086e-07 0.00758524)
(3.27257e-06 -1.17073e-06 0.00757104)
(3.64038e-06 -1.44013e-06 0.0075803)
(3.95728e-06 -1.51123e-06 0.00758341)
(4.40461e-06 -1.40152e-06 0.00758411)
(2.77744e-06 -1.79741e-06 0.00755329)
(3.39011e-06 -2.07527e-06 0.0075711)
(3.93302e-06 -2.12898e-06 0.00757801)
(4.72417e-06 -2.15537e-06 0.0075801)
(2.85966e-06 -9.50373e-08 0.00758095)
(3.13443e-06 -3.87896e-07 0.00758501)
(3.27527e-06 -5.68622e-07 0.0075858)
(3.31945e-06 -6.43887e-07 0.00758561)
(2.63757e-06 -3.49125e-07 0.0075782)
(2.93788e-06 -5.85402e-07 0.00758382)
(3.18675e-06 -6.95343e-07 0.00758528)
(3.36302e-06 -6.9734e-07 0.00758532)
(2.4469e-06 -6.45818e-07 0.00757082)
(2.79429e-06 -8.34221e-07 0.00758029)
(3.15401e-06 -9.25253e-07 0.00758349)
(3.46941e-06 -9.0423e-07 0.00758411)
(2.15289e-06 -9.19958e-07 0.00755274)
(2.61633e-06 -1.07314e-06 0.0075707)
(3.08905e-06 -1.16685e-06 0.00757774)
(3.58443e-06 -1.20596e-06 0.00757979)
(2.11345e-06 -2.12831e-07 0.00758062)
(2.36372e-06 -3.85481e-07 0.00758484)
(2.51844e-06 -4.91499e-07 0.00758573)
(2.57379e-06 -5.32764e-07 0.00758558)
(1.98174e-06 -2.7053e-07 0.00757794)
(2.24011e-06 -4.38125e-07 0.00758369)
(2.45777e-06 -5.19152e-07 0.00758523)
(2.58825e-06 -5.3613e-07 0.0075853)
(1.84482e-06 -3.68387e-07 0.00757044)
(2.12072e-06 -5.17012e-07 0.00758006)
(2.41498e-06 -5.94896e-07 0.00758335)
(2.62275e-06 -6.107e-07 0.00758401)
(1.65958e-06 -4.78797e-07 0.0075522)
(1.98702e-06 -5.76883e-07 0.00757026)
(2.34818e-06 -6.65482e-07 0.00757739)
(2.64941e-06 -7.15677e-07 0.00757951)
(1.55254e-06 -2.28963e-07 0.00758028)
(1.75423e-06 -3.32465e-07 0.00758461)
(1.88263e-06 -3.98193e-07 0.0075856)
(1.92114e-06 -4.27434e-07 0.00758552)
(1.47187e-06 -2.17959e-07 0.00757762)
(1.67331e-06 -3.307e-07 0.00758346)
(1.83719e-06 -3.94975e-07 0.00758509)
(1.9174e-06 -4.20428e-07 0.00758523)
(1.37889e-06 -2.27757e-07 0.00757007)
(1.58219e-06 -3.38113e-07 0.00757978)
(1.78967e-06 -4.06116e-07 0.00758315)
(1.91796e-06 -4.38486e-07 0.0075839)
(1.26044e-06 -2.58921e-07 0.00755173)
(1.47826e-06 -3.32072e-07 0.00756987)
(1.72751e-06 -4.05227e-07 0.00757709)
(1.90796e-06 -4.58418e-07 0.00757931)
(1.11539e-06 -2.00435e-07 0.00757998)
(1.26621e-06 -2.65324e-07 0.00758438)
(1.36153e-06 -3.08836e-07 0.00758545)
(1.37934e-06 -3.33478e-07 0.00758544)
(1.06296e-06 -1.74691e-07 0.00757733)
(1.2099e-06 -2.51644e-07 0.00758323)
(1.3241e-06 -3.02874e-07 0.00758493)
(1.36421e-06 -3.31985e-07 0.00758514)
(9.985e-07 -1.55263e-07 0.00756976)
(1.14197e-06 -2.32651e-07 0.00757952)
(1.27925e-06 -2.89901e-07 0.00758296)
(1.35065e-06 -3.26531e-07 0.00758379)
(9.20151e-07 -1.49897e-07 0.00755137)
(1.06462e-06 -2.0512e-07 0.00756956)
(1.22467e-06 -2.63651e-07 0.00757685)
(1.32871e-06 -3.12524e-07 0.00757915)
(7.63459e-07 -1.43553e-07 0.00757973)
(8.67261e-07 -1.8387e-07 0.00758419)
(9.3148e-07 -2.129e-07 0.0075853)
(9.3539e-07 -2.32981e-07 0.00758534)
(7.29256e-07 -1.22064e-07 0.00757709)
(8.28175e-07 -1.74113e-07 0.00758304)
(9.02102e-07 -2.12339e-07 0.00758478)
(9.175e-07 -2.38823e-07 0.00758504)
(6.85196e-07 -9.82155e-08 0.00756952)
(7.79731e-07 -1.50878e-07 0.00757932)
(8.65613e-07 -1.94759e-07 0.0075828)
(9.0037e-07 -2.27045e-07 0.00758369)
(6.33418e-07 -8.36366e-08 0.00755111)
(7.24705e-07 -1.22431e-07 0.00756934)
(8.2259e-07 -1.662e-07 0.00757667)
(8.78347e-07 -2.0541e-07 0.00757904)
(4.87935e-07 -4.44434e-08 0.00757955)
(5.54116e-07 -6.61668e-08 0.00758403)
(5.94857e-07 -8.30755e-08 0.00758517)
(5.9619e-07 -9.67148e-08 0.00758525)
(4.68654e-07 -3.31592e-08 0.00757692)
(5.30234e-07 -6.37703e-08 0.00758289)
(5.75432e-07 -8.84161e-08 0.00758467)
(5.8231e-07 -1.07256e-07 0.00758496)
(4.42409e-07 -1.86209e-08 0.00756935)
(5.00359e-07 -4.92949e-08 0.00757917)
(5.50645e-07 -7.83102e-08 0.00758269)
(5.67087e-07 -1.01565e-07 0.00758362)
(4.09123e-07 -1.00929e-08 0.00755094)
(4.65907e-07 -3.28056e-08 0.00756919)
(5.21126e-07 -6.15663e-08 0.00757656)
(5.49397e-07 -8.99377e-08 0.00757897)
(3.23341e-07 9.64351e-08 0.00757941)
(3.71203e-07 8.92813e-08 0.00758392)
(4.0484e-07 8.23112e-08 0.00758509)
(4.1803e-07 7.53256e-08 0.00758519)
(3.16701e-07 9.90155e-08 0.0075768)
(3.61063e-07 8.63317e-08 0.00758279)
(3.94732e-07 7.3792e-08 0.00758459)
(4.08836e-07 6.22916e-08 0.00758492)
(3.047e-07 9.78354e-08 0.00756925)
(3.46412e-07 8.41536e-08 0.00757908)
(3.80205e-07 6.83552e-08 0.00758263)
(3.9636e-07 5.30428e-08 0.00758359)
(2.85046e-07 9.28022e-08 0.00755085)
(3.28235e-07 8.00228e-08 0.00756911)
(3.62137e-07 6.27634e-08 0.00757651)
(3.8113e-07 4.34878e-08 0.00757895)
(-0.00169565 0.00049358 0.0163805)
(-0.000520016 -0.000290425 0.00597643)
(-0.00133216 0.000327238 0.0189491)
(-0.000132499 -0.000112954 0.0114656)
(-0.00101873 -0.000288418 0.00838504)
(-0.00132974 0.000996588 0.010278)
(-0.000691327 0.000426142 0.00965617)
(-0.000277533 0.000359838 0.0134806)
(-0.000663287 0.00114958 0.0117723)
(-0.000727129 0.000799432 0.0124341)
(-0.00144888 0.00148085 0.0122459)
(-0.000157986 0.000177656 0.0111803)
(-0.00138421 0.000522921 0.0142732)
(0.000153416 -0.000435606 0.00888056)
(-0.00106785 0.000676238 0.0141954)
(-0.00082135 -0.000308487 0.0113413)
(-2.23694e-05 0.000475807 0.0262974)
(-0.00140758 0.000952654 0.0166204)
(0.00126515 -0.000127914 0.0130253)
(5.35538e-05 0.000533331 0.0038927)
(-2.95435e-05 0.00139429 0.0194819)
(-0.000299932 0.000277675 0.00458251)
(0.000310416 0.000999179 0.0090828)
(0.000287258 -0.000842387 0.00608767)
(-0.000419651 0.000130867 0.00787207)
(-0.000826026 0.00131884 0.0265584)
(-0.00074542 0.000673358 0.0163408)
(-0.000485175 -0.00141395 0.0139318)
(5.6651e-05 -0.000173392 0.0182152)
(-0.000281374 0.000519305 0.011876)
(-0.000932295 -0.000676157 0.0172964)
(0.000337128 -1.26525e-05 0.0107724)
(-0.000171635 0.00098319 0.00595517)
(0.000177755 0.00311819 0.0201837)
(0.00043028 0.000774509 0.0185359)
(-0.000878554 0.00211016 0.0353984)
(5.38093e-05 0.00243749 0.0146207)
(-1.46748e-05 0.000798059 0.0189439)
(-0.000530821 0.000311034 0.00901181)
(-0.00129985 5.17782e-05 0.0308555)
(-0.000223687 0.000232931 0.0196118)
(0.000198661 -0.000429694 0.00960007)
(0.000494535 -0.00035632 0.0256034)
(-0.000189902 0.000665237 0.0112937)
(-0.000233582 -0.000270231 0.019498)
(-0.000512069 -8.67638e-05 0.0249093)
(0.00125241 -0.000327695 0.0186082)
(-0.000993883 0.000897336 0.0146339)
(6.472e-05 0.000398386 0.01611)
(-0.000329903 -0.000405651 0.011343)
(-0.000816289 3.52138e-05 0.00875793)
(0.000720333 -0.00095716 0.0243054)
(0.000965379 -0.00238748 0.0264242)
(0.000382358 0.00106534 0.0275578)
(-0.000697723 -0.000106602 0.0114643)
(0.000943212 0.00173031 0.0150167)
(0.00078066 0.000351332 0.0180788)
(0.000229223 0.0021164 0.0244337)
(0.000855293 -0.000745109 0.0241822)
(-1.38371e-05 0.00159861 0.013541)
(0.000731645 0.000960624 0.0226102)
(-0.00035812 0.000336664 0.00927236)
(0.000367876 -0.000805237 0.016542)
(0.000517526 0.000356157 0.0255142)
(0.000256244 -0.00360696 0.035957)
(-0.000286376 -0.0017379 0.0184161)
(-0.00109359 0.000288225 0.0250557)
(0.00132188 0.00193707 0.0183572)
(-1.55158e-05 -0.000263219 0.00335041)
(0.000208409 -0.000371931 0.0103808)
(0.00117102 0.000429548 0.0124217)
(0.000213783 0.000988919 0.00963266)
(0.000121509 -0.000328652 0.00835184)
(0.000577455 0.00072137 0.0159413)
(0.00224721 2.91252e-05 0.028862)
(0.000544993 0.000957593 0.0196907)
(0.000484532 0.000480227 0.0198156)
(0.000596823 0.000975923 0.0346781)
(0.000711167 -3.49757e-06 0.0078324)
(0.000575188 0.00110549 0.0158472)
(-1.34409e-05 5.40423e-05 0.0010499)
(-0.00035333 0.000168701 0.00581816)
(-3.26997e-05 0.00115313 0.00597041)
(-0.000345231 0.000124471 0.00337842)
(-9.33608e-05 -0.00185507 0.0162226)
(0.000545106 -0.00027321 0.0133771)
(6.67334e-05 -3.45198e-05 0.00742398)
(0.000243416 0.000954724 0.0192142)
(0.000410093 -0.000650045 0.0103375)
(-0.0003205 0.000290577 0.0116076)
(0.000887138 -1.35207e-05 0.0163155)
(-8.06188e-05 3.55684e-05 0.000470473)
(0.00106064 -2.87639e-05 0.014366)
(0.000279742 0.00035649 0.0057052)
(0.000250391 0.000493373 0.00743859)
(0.00070925 0.000852179 0.0211395)
(-0.00019893 0.000328414 0.0108841)
(4.68009e-05 0.000204198 0.0103938)
(-0.000803516 -0.0012055 0.0122005)
(-5.7808e-05 -0.000185202 0.0115079)
(0.00057123 0.000343323 0.00941453)
(-0.000127754 0.000107917 0.00806454)
(-2.34149e-05 -0.000176106 0.0112998)
(0.00174374 7.77512e-05 0.007217)
(0.00351716 -0.000146298 0.00644697)
(-3.15367e-05 -0.00041003 0.0100029)
(0.000323052 6.57458e-05 0.0158328)
(0.000310359 -8.08393e-05 0.00381183)
(-3.91736e-05 -5.12867e-05 0.0120969)
(0.000347574 1.3417e-05 0.0179699)
(0.00401654 0.00142584 0.00612784)
(0.00029723 -0.000642417 0.0194754)
(-0.000279982 0.000260178 0.021798)
(-1.40659e-05 -0.000187401 0.015613)
(-0.000282154 -0.000358966 0.0149459)
(-0.000111609 -0.000187898 0.0147476)
(-0.000372282 0.0003773 0.017085)
(-0.000135695 -0.000297475 0.0142553)
(-0.000268739 -0.000260827 0.0139722)
(-0.000208102 -0.000591799 0.0153653)
(-0.000196644 -8.53562e-05 0.0128496)
(-0.000158045 -0.000676091 0.0165091)
(-0.000457964 1.67922e-05 0.0178893)
(5.59187e-05 -0.00119371 0.0166396)
(-0.000371877 -0.000354475 0.0131724)
(6.94232e-05 -0.000337723 0.0169176)
(-0.000305018 0.000303829 0.0126453)
(-0.000207146 -0.000722199 0.020117)
(0.000112676 -8.72032e-05 0.0045377)
(0.000658999 -0.000306574 0.00375413)
(0.000117638 -0.000555331 0.00368761)
(0.000184675 -0.000677247 0.00381557)
(-0.000170896 0.00029615 0.0040352)
(0.00047543 -0.00032094 0.00373815)
(-6.43876e-05 -0.000449449 0.00384032)
(-0.000347496 -0.000769641 0.00423142)
(-0.000284204 4.73951e-05 0.00344725)
(0.000207261 -0.000518616 0.00414423)
(-0.000243761 -6.04899e-05 0.00431373)
(5.93065e-05 -0.000823411 0.00500599)
(-0.000198915 -0.000144098 0.00337582)
(0.000286519 -0.000142752 0.00444828)
(-0.000362471 0.000212042 0.00348544)
(-9.8016e-05 -0.000427753 0.00574479)
(-5.22521e-05 -8.2119e-05 0.00905143)
(0.00010015 -0.000258198 0.00872361)
(-7.8184e-05 -0.000361777 0.00858093)
(-1.90427e-05 -0.000447401 0.00868262)
(-0.000170563 -1.60535e-05 0.00891379)
(1.86394e-05 -0.000272107 0.00879243)
(-0.00017722 -0.000298575 0.00869839)
(-0.000151303 -0.000466466 0.00899462)
(-0.000272312 -3.29005e-05 0.00867165)
(-8.8023e-05 -0.000245988 0.00893225)
(-0.000285875 -6.74808e-05 0.00884941)
(-4.57901e-05 -0.000364347 0.00929587)
(-0.000260735 -0.000120052 0.00852481)
(-8.67611e-05 -0.000113733 0.00896078)
(-0.000344993 2.67602e-05 0.00844751)
(-8.78588e-05 -0.000157591 0.00947743)
(5.16121e-05 -0.00011129 0.00726051)
(0.000103659 -0.000148978 0.00724537)
(-2.55944e-07 -0.000171133 0.00724783)
(-2.35654e-06 -0.000218269 0.00733759)
(3.92955e-07 -7.30194e-05 0.00719306)
(8.20806e-05 -0.000137478 0.00726765)
(-3.71346e-05 -0.000138654 0.00730255)
(-2.87113e-05 -0.000227094 0.00748201)
(-3.90913e-05 -7.51996e-05 0.00707051)
(5.38663e-05 -0.000126197 0.00726777)
(-7.87447e-05 -7.43241e-05 0.00730101)
(-6.14553e-06 -0.000192937 0.00757608)
(-6.26347e-05 -7.18448e-05 0.00691941)
(3.17024e-05 -5.18796e-05 0.00718299)
(-0.000108181 -2.61036e-05 0.00708303)
(-1.83223e-05 -8.69167e-05 0.0075507)
(-2.44013e-07 -5.15022e-05 0.00758895)
(1.87423e-05 -7.68794e-05 0.00758044)
(-1.0533e-05 -8.65333e-05 0.00756986)
(3.89487e-06 -0.000109427 0.00760707)
(-2.21717e-05 -4.38156e-05 0.00755394)
(7.47261e-06 -7.41664e-05 0.00757806)
(-2.83114e-05 -7.25753e-05 0.00757458)
(-9.68582e-07 -0.000110934 0.00765066)
(-4.48258e-05 -3.43665e-05 0.00747867)
(-7.35857e-06 -5.55394e-05 0.00754091)
(-4.93697e-05 -3.62753e-05 0.00752996)
(2.19113e-06 -8.16379e-05 0.00765286)
(-5.39006e-05 -3.63643e-05 0.00737492)
(-1.93069e-05 -2.79884e-05 0.00745654)
(-6.40404e-05 -1.52751e-05 0.0074039)
(-2.31791e-06 -3.26597e-05 0.0075881)
(4.45092e-06 -3.01375e-05 0.00752304)
(1.24237e-05 -3.81362e-05 0.00755026)
(6.59185e-07 -4.10417e-05 0.00756152)
(8.53707e-06 -5.12218e-05 0.00758369)
(-4.52072e-06 -2.66681e-05 0.00747763)
(7.97295e-06 -3.62363e-05 0.00752451)
(-6.91427e-06 -3.55961e-05 0.00754468)
(8.02671e-06 -5.23533e-05 0.00758669)
(-1.31719e-05 -2.30894e-05 0.00739964)
(2.2998e-06 -2.79176e-05 0.00746303)
(-1.60132e-05 -2.15411e-05 0.00748372)
(8.14328e-06 -3.94672e-05 0.00754846)
(-1.95358e-05 -1.95649e-05 0.00728524)
(-4.18061e-06 -1.33385e-05 0.00735253)
(-2.30347e-05 -9.68062e-06 0.00735898)
(6.21315e-06 -1.55509e-05 0.00744606)
(2.67211e-06 -1.48506e-05 0.00752537)
(7.06e-06 -1.84472e-05 0.00755279)
(3.83457e-06 -1.92916e-05 0.00756476)
(8.89066e-06 -2.39811e-05 0.00757671)
(-1.55066e-06 -1.33119e-05 0.00747884)
(4.73239e-06 -1.73822e-05 0.00751764)
(3.26412e-07 -1.70805e-05 0.00753705)
(8.8565e-06 -2.44561e-05 0.00755944)
(-5.8387e-06 -1.11144e-05 0.00740262)
(1.67326e-06 -1.30789e-05 0.00744829)
(-3.96751e-06 -1.10192e-05 0.00747036)
(8.46956e-06 -1.84743e-05 0.00750394)
(-9.19198e-06 -9.2134e-06 0.00729333)
(-2.04376e-06 -6.26744e-06 0.00733529)
(-7.6774e-06 -4.76619e-06 0.00735078)
(7.40916e-06 -7.01035e-06 0.00739184)
(2.51965e-06 -7.34263e-06 0.00752276)
(5.02897e-06 -9.02647e-06 0.00755158)
(4.72349e-06 -9.35224e-06 0.00756449)
(7.8284e-06 -1.13648e-05 0.00757225)
(4.7368e-07 -6.57353e-06 0.00747422)
(3.73841e-06 -8.39216e-06 0.00751159)
(3.01109e-06 -8.21911e-06 0.00753161)
(7.72208e-06 -1.15463e-05 0.00754609)
(-1.58298e-06 -5.32039e-06 0.00739694)
(2.10322e-06 -6.0971e-06 0.00743811)
(8.7825e-07 -5.30894e-06 0.00746189)
(7.2934e-06 -8.69355e-06 0.0074828)
(-3.3761e-06 -3.99623e-06 0.00728713)
(1.10156e-07 -2.60568e-06 0.0073224)
(-1.04328e-06 -1.93156e-06 0.00734233)
(6.65726e-06 -3.09291e-06 0.00736565)
(2.33339e-06 -3.52113e-06 0.00752133)
(3.86018e-06 -4.38565e-06 0.00755026)
(4.39324e-06 -4.67632e-06 0.00756359)
(6.28445e-06 -5.50648e-06 0.00756943)
(1.27538e-06 -3.03779e-06 0.0074719)
(3.02965e-06 -3.97273e-06 0.00750805)
(3.46535e-06 -4.02925e-06 0.00752835)
(6.13932e-06 -5.5043e-06 0.00753921)
(1.94387e-07 -2.26132e-06 0.00739416)
(2.08469e-06 -2.74127e-06 0.00743272)
(2.35565e-06 -2.48979e-06 0.00745707)
(5.80056e-06 -4.07213e-06 0.00747233)
(-8.02009e-07 -1.42149e-06 0.00728429)
(9.88858e-07 -8.88858e-07 0.00731586)
(1.34941e-06 -5.92126e-07 0.00733704)
(5.41709e-06 -1.29867e-06 0.00735276)
(2.05644e-06 -1.65027e-06 0.00752004)
(3.0427e-06 -2.12115e-06 0.00754895)
(3.66829e-06 -2.35566e-06 0.00756247)
(4.80013e-06 -2.76021e-06 0.00756767)
(1.47812e-06 -1.31194e-06 0.00747014)
(2.49455e-06 -1.80666e-06 0.00750563)
(3.11461e-06 -1.96841e-06 0.00752612)
(4.63856e-06 -2.67376e-06 0.00753558)
(8.82007e-07 -7.98867e-07 0.0073921)
(1.92239e-06 -1.1076e-06 0.00742941)
(2.50443e-06 -1.12735e-06 0.00745407)
(4.39484e-06 -1.91415e-06 0.007467)
(3.03462e-07 -2.45351e-07 0.00728213)
(1.30326e-06 -8.22533e-08 0.007312)
(1.96591e-06 -2.45824e-08 0.00733369)
(4.17521e-06 -5.01869e-07 0.00734626)
(1.71768e-06 -7.58274e-07 0.00751904)
(2.36773e-06 -1.02551e-06 0.00754795)
(2.89822e-06 -1.21367e-06 0.00756157)
(3.57636e-06 -1.42264e-06 0.00756663)
(1.38831e-06 -5.07234e-07 0.0074689)
(2.00701e-06 -7.81767e-07 0.00750407)
(2.55144e-06 -9.51284e-07 0.00752464)
(3.42576e-06 -1.32106e-06 0.00753366)
(1.03707e-06 -1.5064e-07 0.00739072)
(1.65312e-06 -3.5342e-07 0.00742741)
(2.19684e-06 -4.68976e-07 0.00745219)
(3.25111e-06 -9.02606e-07 0.00746428)
(6.86016e-07 2.33194e-07 0.0072807)
(1.29635e-06 2.47329e-07 0.00730973)
(1.90032e-06 1.90846e-07 0.00733162)
(3.12485e-06 -1.58694e-07 0.00734299)
(1.37896e-06 -3.46137e-07 0.00751827)
(1.81406e-06 -5.01063e-07 0.0075472)
(2.20398e-06 -6.44267e-07 0.00756092)
(2.60496e-06 -7.75636e-07 0.007566)
(1.17276e-06 -1.53279e-07 0.00746801)
(1.5765e-06 -3.12836e-07 0.00750305)
(1.97563e-06 -4.5838e-07 0.00752369)
(2.48051e-06 -6.79661e-07 0.00753261)
(9.50806e-07 1.07918e-07 0.00738976)
(1.34943e-06 -3.25484e-08 0.00742617)
(1.75983e-06 -1.60994e-07 0.00745102)
(2.35583e-06 -4.33625e-07 0.00746286)
(7.34133e-07 3.79181e-07 0.00727972)
(1.13915e-06 3.42247e-07 0.00730836)
(1.59083e-06 2.44841e-07 0.00733034)
(2.28029e-06 -2.45065e-08 0.0073413)
(1.06496e-06 -1.52168e-07 0.0075177)
(1.3567e-06 -2.58491e-07 0.00754666)
(1.62074e-06 -3.63756e-07 0.00756045)
(1.85522e-06 -4.55181e-07 0.00756562)
(9.26214e-07 -6.68735e-09 0.00746739)
(1.19425e-06 -1.12522e-07 0.00750238)
(1.46746e-06 -2.25593e-07 0.00752307)
(1.76112e-06 -3.70072e-07 0.00753203)
(7.81449e-07 1.82549e-07 0.00738909)
(1.0468e-06 8.22158e-08 0.0074254)
(1.33129e-06 -3.01831e-08 0.00745028)
(1.67183e-06 -2.13156e-07 0.00746209)
(6.43827e-07 3.76285e-07 0.00727903)
(9.19873e-07 3.25958e-07 0.00730753)
(1.23396e-06 2.25995e-07 0.00732954)
(1.6272e-06 2.26492e-08 0.00734042)
(7.81542e-07 -6.43944e-08 0.00751729)
(9.76527e-07 -1.42451e-07 0.00754627)
(1.1465e-06 -2.18775e-07 0.00756013)
(1.28158e-06 -2.85225e-07 0.00756538)
(6.88125e-07 4.29654e-08 0.00746694)
(8.65186e-07 -3.27751e-08 0.00750194)
(1.04309e-06 -1.1563e-07 0.00752267)
(1.21228e-06 -2.14151e-07 0.0075317)
(5.93391e-07 1.75213e-07 0.00738863)
(7.68822e-07 1.03632e-07 0.0074249)
(9.55903e-07 1.64016e-08 0.00744982)
(1.1519e-06 -1.08763e-07 0.00746168)
(5.0563e-07 3.11684e-07 0.00727856)
(6.92417e-07 2.66079e-07 0.007307)
(8.99336e-07 1.81037e-07 0.00732904)
(1.12474e-06 3.29674e-08 0.00733995)
(5.38437e-07 -2.19832e-08 0.00751701)
(6.63778e-07 -7.50406e-08 0.00754602)
(7.67718e-07 -1.28827e-07 0.00755992)
(8.42277e-07 -1.75689e-07 0.00756524)
(4.77512e-07 5.34498e-08 0.00746664)
(5.90212e-07 1.04224e-09 0.00750165)
(6.99481e-07 -5.69627e-08 0.00752242)
(7.9436e-07 -1.22758e-07 0.00753151)
(4.17647e-07 1.40828e-07 0.00738832)
(5.2901e-07 9.04729e-08 0.00742459)
(6.44622e-07 2.92035e-08 0.00744954)
(7.54876e-07 -5.40501e-08 0.00746145)
(3.63185e-07 2.31302e-07 0.00727825)
(4.84183e-07 1.94893e-07 0.00730668)
(6.12377e-07 1.31581e-07 0.00732875)
(7.38768e-07 2.95909e-08 0.0073397)
(3.5228e-07 2.49875e-08 0.00751683)
(4.28181e-07 -7.36432e-09 0.00754586)
(4.85263e-07 -4.2304e-08 0.00755979)
(5.2336e-07 -7.40808e-08 0.00756516)
(3.14904e-07 6.78153e-08 0.00746646)
(3.83238e-07 3.34935e-08 0.00750147)
(4.43547e-07 -4.6737e-09 0.00752228)
(4.92231e-07 -4.68876e-08 0.00753141)
(2.8036e-07 1.15944e-07 0.00738813)
(3.46661e-07 8.13451e-08 0.00742441)
(4.10847e-07 3.97086e-08 0.00744939)
(4.66985e-07 -1.34388e-08 0.00746134)
(2.49295e-07 1.6673e-07 0.00727805)
(3.211e-07 1.37563e-07 0.00730649)
(3.92417e-07 9.17415e-08 0.00732858)
(4.56537e-07 2.54723e-08 0.00733958)
(2.57285e-07 9.94986e-08 0.00751673)
(3.04464e-07 7.86483e-08 0.00754578)
(3.3913e-07 5.64109e-08 0.00755974)
(3.61028e-07 3.3867e-08 0.00756514)
(2.35092e-07 1.11817e-07 0.00746636)
(2.77313e-07 8.7791e-08 0.00750139)
(3.13013e-07 6.01667e-08 0.00752222)
(3.3799e-07 2.91297e-08 0.00753139)
(2.15041e-07 1.27129e-07 0.00738802)
(2.55737e-07 9.98779e-08 0.00742432)
(2.91558e-07 6.62941e-08 0.00744932)
(3.17778e-07 2.65831e-08 0.00746131)
(1.98534e-07 1.47327e-07 0.00727795)
(2.41453e-07 1.17059e-07 0.0073064)
(2.79061e-07 7.7312e-08 0.00732852)
(3.06531e-07 2.81477e-08 0.00733955)
(0.000872336 0.00173549 0.0125896)
(-0.00159362 0.00230894 0.0222458)
(-0.000797166 0.00039795 0.00793213)
(0.000432085 0.00062421 0.0143549)
(0.000260189 0.00167707 0.00642658)
(-0.000864244 0.00117748 0.0135633)
(-0.000292495 0.00154465 0.00965543)
(0.000209137 0.00173018 0.0118511)
(-0.00139128 0.00151173 0.0126119)
(-0.00321189 0.00179627 0.0137388)
(-0.000753203 0.00137789 0.00885878)
(-0.00116254 0.00134277 0.0129969)