/*--------------------------------*- C++ -*----------------------------------*\
| =========                 |                                                 |
| \\      /  F ield         | OpenFOAM: The Open Source CFD Toolbox           |
|  \\    /   O peration     | Version:  2506                                  |
|   \\  /    A nd           | Website:  www.openfoam.com                      |
|    \\/     M anipulation  |                                                 |
\*---------------------------------------------------------------------------*/
FoamFile
{
    version     2.0;
    format      ascii;
    arch        "LSB;label=32;scalar=64";
    class       volVectorField;
    location    "0.03";
    object      Us;
}
// * * * * * * * * * * * * * * * * * * * * * * * * * * * * * * * * * * * * * //

dimensions      [0 1 -1 0 0 0 0];

internalField   nonuniform List<vector> 
1152
(
(4.402e-05 5.94558e-05 8.04755e-05)
(0.000118929 5.97716e-08 8.53164e-05)
(0.000142607 -0.000342147 0.000174545)
(0.000195916 -0.000490528 0.000139126)
(1.95947e-05 4.16378e-05 9.1474e-05)
(3.3971e-05 4.60776e-06 8.48207e-05)
(7.28595e-05 -7.80152e-05 9.83499e-05)
(0.000104385 -0.000292734 0.000127058)
(-7.88751e-05 5.92621e-05 7.87164e-05)
(-3.96153e-05 2.03451e-05 6.48943e-05)
(6.64468e-06 -3.25169e-05 7.57889e-05)
(-7.89653e-05 2.08051e-06 8.77371e-05)
(0.000241873 0.000115567 -0.000100198)
(-7.68329e-05 -5.68459e-05 8.70298e-05)
(-8.02478e-05 -0.000136502 6.285e-05)
(2.42287e-05 -9.84448e-05 8.03989e-05)
(6.34403e-05 9.49585e-06 0.000348091)
(6.15534e-05 -5.62834e-05 0.000293266)
(0.000111685 -2.44191e-05 0.000364368)
(5.01811e-05 -3.40004e-05 0.000435668)
(5.9477e-05 2.25351e-05 0.000342251)
(5.05952e-05 -2.08497e-05 0.000241166)
(2.33249e-05 -3.65493e-05 0.000282442)
(4.35194e-05 -4.69607e-05 0.000321)
(-2.63544e-05 -4.21074e-05 0.000304985)
(-3.45235e-05 -9.43468e-05 0.000190059)
(-1.90676e-05 -2.02871e-05 0.000244031)
(-1.74873e-06 -9.82672e-05 0.000245163)
(-0.000103887 1.4395e-05 0.000213549)
(-0.00014142 0.000122271 0.00028987)
(-7.99237e-05 -1.22161e-05 0.000211475)
(-7.14432e-05 -8.93775e-05 0.000232564)
(0.000169161 -2.53524e-05 0.000487026)
(0.000209579 4.39024e-05 0.000699185)
(0.00013791 -7.34383e-05 0.000644294)
(-5.68595e-05 -0.000129012 0.000721025)
(0.000156363 -5.57363e-05 0.000425417)
(0.000128394 -0.000154392 0.000378291)
(8.14436e-05 -7.96449e-05 0.000410913)
(-0.000134822 -7.22359e-05 0.000458569)
(4.42872e-05 -3.6731e-05 0.000377804)
(8.74484e-05 6.87599e-06 0.000368255)
(1.58975e-06 -0.000141747 0.000407835)
(-1.23715e-05 -9.74848e-05 0.000413406)
(-0.000134664 0.000162435 0.000490249)
(-0.000116056 1.20143e-05 0.000365977)
(-8.40208e-05 -0.000136314 0.000354994)
(-0.000147373 -6.99837e-05 0.000403439)
(0.000183845 -6.79075e-05 0.000532933)
(0.000140858 -0.000102657 0.00052933)
(6.79644e-05 -0.000222815 0.000612542)
(1.61447e-05 -0.00024634 0.000841163)
(0.000215855 -0.000111969 0.000395)
(0.000144083 1.50253e-05 0.000404054)
(2.78137e-05 -0.000127221 0.000612086)
(7.05562e-05 -0.000416204 0.000545786)
(0.000125163 -9.86208e-05 0.000486871)
(2.67057e-05 -5.70535e-05 0.000458332)
(-6.71466e-05 -0.000117291 0.000556354)
(-0.00020546 -0.000290619 0.000593915)
(-4.41732e-05 -9.67837e-05 0.000622039)
(-0.000108074 -3.65545e-06 0.000500736)
(-1.1503e-05 -8.93518e-05 0.000582858)
(-0.000130078 -0.000190118 0.000526331)
(3.56154e-05 -4.12984e-05 0.000573414)
(0.000128356 -0.000101203 0.000555823)
(0.000174934 -0.000172678 0.00058093)
(0.00016338 -0.00017402 0.000611419)
(4.50107e-05 -8.14448e-05 0.000597736)
(5.45538e-05 -0.000103542 0.000594735)
(2.96293e-05 -0.000231925 0.000632011)
(1.28023e-07 -0.000311588 0.000653631)
(9.61023e-05 -0.000157177 0.000579798)
(9.6795e-05 -9.43687e-05 0.000624314)
(6.55675e-05 -0.000191905 0.000690592)
(-5.83558e-05 -0.000186927 0.000647609)
(0.000140842 8.54021e-06 0.000693022)
(6.73407e-05 -9.02785e-05 0.000683369)
(-2.53906e-05 -0.000129282 0.000623547)
(-1.37627e-05 -9.81109e-05 0.000579229)
(5.13927e-06 4.85775e-05 0.000659079)
(5.24379e-06 4.79762e-05 0.000682)
(9.26688e-05 -3.23562e-05 0.000651977)
(4.24538e-05 -0.000119491 0.0005137)
(-6.53704e-05 -5.66954e-05 0.000646565)
(6.2485e-05 -1.48981e-05 0.000653177)
(-2.29133e-06 -2.90961e-05 0.000706107)
(1.05714e-05 -8.54677e-05 0.000650189)
(-6.42066e-06 -5.2809e-07 0.000613751)
(-7.61155e-06 -6.80039e-05 0.000761298)
(-1.58767e-05 -2.40281e-05 0.000767533)
(-4.49472e-05 -5.90167e-05 0.000670867)
(6.28217e-05 -2.39241e-05 0.000637676)
(5.46976e-05 -3.56514e-05 0.000765217)
(-2.22789e-05 1.37994e-05 0.000726187)
(-4.7166e-05 -1.58418e-06 0.000663852)
(-0.00022965 0.00018497 0.000676405)
(-0.000773573 0.000516224 0.000639522)
(-0.000113079 -0.000211976 0.000587543)
(0.000187862 2.98345e-05 0.000445216)
(0.000343864 0.00198748 7.40801e-05)
(-0.000206407 -3.5227e-05 0.000720507)
(-5.78186e-05 5.64144e-05 0.000792613)
(-6.51247e-05 -3.30961e-05 0.000682717)
(-0.000131622 -5.61113e-06 0.000757809)
(-9.21756e-05 -7.43727e-05 0.000817285)
(-0.000178707 0.0001145 0.000881943)
(-0.000780371 0.000870148 0.000614664)
(-4.17248e-05 7.25993e-05 0.0006293)
(-0.000116167 4.25402e-05 0.000857993)
(-4.27082e-05 0.000334743 0.000734141)
(0.000335429 0.000266418 0.00066046)
(0 0 0)
(0 0 0)
(0 0 0)
(0 0 0)
(0 0 0)
(0 0 0)
(0 0 0)
(0 0 0)
(0 0 0)
(0 0 0)
(0 0 0)
(0 0 0)
(0 0 0)
(0 0 0)
(0 0 0)
(0 0 0)
(0 0 0)
(0 0 0)
(0 0 0)
(0 0 0)
(0 0 0)
(0 0 0)
(0 0 0)
(0 0 0)
(0 0 0)
(0 0 0)
(0 0 0)
(0 0 0)
(0 0 0)
(0 0 0)
(0 0 0)
(0 0 0)
(0 0 0)
(0 0 0)
(0 0 0)
(0 0 0)
(0 0 0)
(0 0 0)
(0 0 0)
(0 0 0)
(0 0 0)
(0 0 0)
(0 0 0)
(0 0 0)
(0 0 0)
(0 0 0)
(0 0 0)
(0 0 0)
(0 0 0)
(0 0 0)
(0 0 0)
(0 0 0)
(0 0 0)
(0 0 0)
(0 0 0)
(0 0 0)
(0 0 0)
(0 0 0)
(0 0 0)
(0 0 0)
(0 0 0)
(0 0 0)
(0 0 0)
(0 0 0)
(0 0 0)
(0 0 0)
(0 0 0)
(0 0 0)
(0 0 0)
(0 0 0)
(0 0 0)
(0 0 0)
(0 0 0)
(0 0 0)
(0 0 0)
(0 0 0)
(0 0 0)
(0 0 0)
(0 0 0)
(0 0 0)
(0 0 0)
(0 0 0)
(0 0 0)
(0 0 0)
(0 0 0)
(0 0 0)
(0 0 0)
(0 0 0)
(0 0 0)
(0 0 0)
(0 0 0)
(0 0 0)
(0 0 0)
(0 0 0)
(0 0 0)
(0 0 0)
(0 0 0)
(0 0 0)
(0 0 0)
(0 0 0)
(0 0 0)
(0 0 0)
(0 0 0)
(0 0 0)
(0 0 0)
(0 0 0)
(0 0 0)
(0 0 0)
(0 0 0)
(0 0 0)
(0 0 0)
(0 0 0)
(0 0 0)
(0 0 0)
(0 0 0)
(0 0 0)
(0 0 0)
(0 0 0)
(0 0 0)
(0 0 0)
(0 0 0)
(0 0 0)
(0 0 0)
(0 0 0)
(0 0 0)
(0 0 0)
(0 0 0)
(0 0 0)
(0 0 0)
(0 0 0)
(0 0 0)
(0 0 0)
(0 0 0)
(0 0 0)
(0 0 0)
(0 0 0)
(0 0 0)
(0 0 0)
(0 0 0)
(0 0 0)
(0 0 0)
(0 0 0)
(0 0 0)
(0 0 0)
(0 0 0)
(0 0 0)
(0 0 0)
(0 0 0)
(0 0 0)
(0 0 0)
(0 0 0)
(0 0 0)
(0 0 0)
(0 0 0)
(0 0 0)
(0 0 0)
(0 0 0)
(0 0 0)
(0 0 0)
(0 0 0)
(0 0 0)
(0 0 0)
(0 0 0)
(0 0 0)
(0 0 0)
(0 0 0)
(0 0 0)
(0 0 0)
(0 0 0)
(0 0 0)
(0 0 0)
(0 0 0)
(0 0 0)
(0 0 0)
(0 0 0)
(0 0 0)
(0 0 0)
(0 0 0)
(0 0 0)
(0 0 0)
(0 0 0)
(0 0 0)
(0 0 0)
(0 0 0)
(0 0 0)
(0 0 0)
(0 0 0)
(0 0 0)
(0 0 0)
(0 0 0)
(0 0 0)
(0 0 0)
(0 0 0)
(0 0 0)
(0 0 0)
(0 0 0)
(0 0 0)
(0 0 0)
(0 0 0)
(0 0 0)
(0 0 0)
(0 0 0)
(0 0 0)
(0 0 0)
(0 0 0)
(0 0 0)
(0 0 0)
(0 0 0)
(0 0 0)
(0 0 0)
(0 0 0)
(0 0 0)
(0 0 0)
(0 0 0)
(0 0 0)
(0 0 0)
(0 0 0)
(0 0 0)
(0 0 0)
(0 0 0)
(0 0 0)
(0 0 0)
(0 0 0)
(0 0 0)
(0 0 0)
(0 0 0)
(0 0 0)
(0 0 0)
(0 0 0)
(0 0 0)
(0 0 0)
(0 0 0)
(0 0 0)
(0 0 0)
(0 0 0)
(0 0 0)
(0 0 0)
(0 0 0)
(0 0 0)
(0 0 0)
(0 0 0)
(0 0 0)
(0 0 0)
(0 0 0)
(0 0 0)
(0 0 0)
(0 0 0)
(0 0 0)
(0 0 0)
(0 0 0)
(0 0 0)
(0 0 0)
(0 0 0)
(0 0 0)
(0 0 0)
(0 0 0)
(0 0 0)
(0 0 0)
(0 0 0)
(0 0 0)
(0 0 0)
(0 0 0)
(0 0 0)
(0 0 0)
(0 0 0)
(0 0 0)
(0 0 0)
(0 0 0)
(0 0 0)
(0 0 0)
(0 0 0)
(0 0 0)
(0.0001369 0.000410067 -0.000118436)
(-5.44058e-05 -1.59872e-05 3.59848e-05)
(-0.000213613 -0.000118735 -5.05946e-05)
(8.22994e-07 -3.71804e-05 7.08678e-05)
(-8.94682e-05 4.8215e-05 0.00011131)
(1.48699e-05 2.6574e-05 3.39747e-05)
(-7.70436e-05 -3.14084e-05 0.000134288)
(-0.000103157 -0.000237786 0.000128578)
(-2.26244e-05 3.68666e-05 6.22515e-05)
(7.93103e-05 5.49576e-06 -3.2596e-07)
(-9.20884e-05 0.000104049 0.00026246)
(-5.49099e-05 -0.000202638 6.64936e-05)
(-6.46846e-05 -2.08895e-05 2.9554e-05)
(0.000284961 0.000102962 -4.69236e-05)
(3.72508e-05 8.2559e-05 7.7831e-05)
(1.92248e-05 -9.84055e-05 3.55128e-05)
(7.53882e-05 0.000197694 0.00012547)
(4.26953e-05 0.000198435 0.000124527)
(-0.000147568 -2.2742e-05 0.000225404)
(-8.00405e-05 -0.000137861 0.000267851)
(6.4153e-05 0.000185097 0.000179993)
(-3.05413e-05 0.000267321 0.000204878)
(-1.30981e-06 4.39987e-05 0.000302583)
(1.97401e-05 -0.000150255 0.000292358)
(-0.000120153 0.000285689 0.000105606)
(-0.000119871 0.000267264 0.00012576)
(-0.000114058 3.00813e-05 0.000555799)
(-0.000156414 -0.000118572 0.000198382)
(5.08807e-05 6.05458e-05 0.000159248)
(0.000198813 0.000135792 0.000223233)
(-0.00019454 -3.52944e-05 0.000123426)
(4.70841e-05 -4.74323e-05 9.28933e-05)
(-0.000100458 0.000365995 0.000393068)
(-5.32126e-05 4.77404e-05 0.000255132)
(-0.000192142 -0.000106281 0.000397999)
(-0.000177195 -0.000119993 0.000393586)
(5.82747e-05 0.000215976 0.000355558)
(4.89733e-06 0.000217137 0.000202884)
(-0.000265781 -4.10687e-05 0.000399224)
(-0.000147205 -0.000109029 0.00037463)
(0.000105963 8.59192e-05 0.000409426)
(5.70314e-05 0.000120667 0.000399567)
(-1.90868e-05 -9.71453e-07 0.000585275)
(-9.90599e-05 -3.60961e-06 0.000337125)
(-5.14277e-05 3.55774e-05 0.000214182)
(-8.99801e-05 -4.08734e-06 0.000471281)
(0.000158984 2.17401e-05 0.000631036)
(-4.55128e-05 -6.01536e-06 0.000238003)
(-4.28492e-05 9.28116e-05 0.000581832)
(-0.000124766 -0.000131767 0.00051434)
(-0.000260397 -7.10395e-05 0.000635929)
(-7.17372e-05 4.17299e-06 0.000511369)
(7.11937e-05 -3.85205e-05 0.000502888)
(2.75937e-05 2.3387e-05 0.000585526)
(-6.20482e-05 -0.00024025 0.000349966)
(2.13701e-07 -6.59027e-05 0.000527802)
(0.000107492 -0.00017365 0.000577094)
(1.90641e-05 2.5309e-05 0.000686902)
(-6.89607e-05 -0.000137446 0.000577909)
(-7.45662e-05 -0.000150509 0.000389799)
(-4.51254e-05 -8.2606e-05 0.000286481)
(-0.000125457 -5.29065e-05 0.000418169)
(-2.4132e-05 -5.57744e-05 0.000534561)
(-0.000118149 -6.95192e-05 0.000314823)
(3.84342e-05 1.31844e-05 0.000639246)
(-8.29895e-05 -0.000121498 0.00056406)
(-2.34825e-05 -0.00013708 0.000608367)
(-7.51842e-05 -1.79767e-06 0.000593339)
(-8.09434e-05 -3.23889e-05 0.000562475)
(-2.88254e-05 -0.00010849 0.000565614)
(-8.58082e-05 -0.000109034 0.000618362)
(-9.34348e-05 -7.71564e-05 0.000574356)
(-0.000155543 -9.48763e-05 0.000506761)
(0.000123068 -0.000128126 0.000428182)
(-5.40345e-05 -4.91332e-05 0.000574032)
(-0.000107675 -0.00013392 0.000467595)
(-7.2127e-05 -7.95926e-05 0.00049918)
(8.55384e-06 -4.94579e-05 0.000401152)
(-5.54069e-05 -1.48571e-05 0.000231712)
(2.0977e-05 -5.21308e-05 0.000382346)
(3.14046e-06 6.71079e-05 0.000657732)
(-5.24444e-05 1.54083e-05 0.000649607)
(-0.000104961 -4.06482e-05 0.000683385)
(-0.000115881 3.52261e-05 0.000527106)
(-6.44037e-05 -9.96485e-05 0.000551398)
(-1.96832e-05 -6.41475e-05 0.000560757)
(-6.95773e-05 -1.89643e-05 0.000631277)
(-0.000140639 5.8002e-05 0.000593843)
(-1.3154e-05 -9.46842e-05 0.000674048)
(2.54939e-06 -0.000159657 0.000573956)
(-0.000168724 -9.85904e-05 0.000521827)
(-8.69259e-05 2.34877e-05 0.00036855)
(1.17811e-05 -2.8035e-05 0.000445372)
(0.000108775 -1.00011e-05 0.000462855)
(1.6592e-05 -0.000102115 0.000301522)
(-0.000132367 -7.86107e-05 0.000348541)
(-0.000206002 0.00013639 0.000787151)
(-0.000111955 0.00011856 0.000606268)
(-0.000841594 -0.00118412 0.000239031)
(-0.000247233 -0.000155907 0.000572324)
(0.000852509 -0.000158789 -1.21824e-05)
(-0.000227134 0.0001474 0.000607294)
(-1.40841e-05 5.35661e-05 0.000618347)
(0.00207391 0.000187321 -0.000199681)
(0.00377175 -0.000165899 -0.000910089)
(0.000134726 -0.000275774 0.000289221)
(0.000272721 9.80607e-05 0.000432577)
(0.000240513 2.75817e-05 0.000374758)
(-7.3064e-05 4.61964e-05 0.000595058)
(0.000431262 -7.93027e-05 0.000384459)
(0.0043469 0.00120955 -0.00150413)
(0.000277293 0.000120567 0.000319308)
(0 0 0)
(0 0 0)
(0 0 0)
(0 0 0)
(0 0 0)
(0 0 0)
(0 0 0)
(0 0 0)
(0 0 0)
(0 0 0)
(0 0 0)
(0 0 0)
(0 0 0)
(0 0 0)
(0 0 0)
(0 0 0)
(0 0 0)
(0 0 0)
(0 0 0)
(0 0 0)
(0 0 0)
(0 0 0)
(0 0 0)
(0 0 0)
(0 0 0)
(0 0 0)
(0 0 0)
(0 0 0)
(0 0 0)
(0 0 0)
(0 0 0)
(0 0 0)
(0 0 0)
(0 0 0)
(0 0 0)
(0 0 0)
(0 0 0)
(0 0 0)
(0 0 0)
(0 0 0)
(0 0 0)
(0 0 0)
(0 0 0)
(0 0 0)
(0 0 0)
(0 0 0)
(0 0 0)
(0 0 0)
(0 0 0)
(0 0 0)
(0 0 0)
(0 0 0)
(0 0 0)
(0 0 0)
(0 0 0)
(0 0 0)
(0 0 0)
(0 0 0)
(0 0 0)
(0 0 0)
(0 0 0)
(0 0 0)
(0 0 0)
(0 0 0)
(0 0 0)
(0 0 0)
(0 0 0)
(0 0 0)
(0 0 0)
(0 0 0)
(0 0 0)
(0 0 0)
(0 0 0)
(0 0 0)
(0 0 0)
(0 0 0)
(0 0 0)
(0 0 0)
(0 0 0)
(0 0 0)
(0 0 0)
(0 0 0)
(0 0 0)
(0 0 0)
(0 0 0)
(0 0 0)
(0 0 0)
(0 0 0)
(0 0 0)
(0 0 0)
(0 0 0)
(0 0 0)
(0 0 0)
(0 0 0)
(0 0 0)
(0 0 0)
(0 0 0)
(0 0 0)
(0 0 0)
(0 0 0)
(0 0 0)
(0 0 0)
(0 0 0)
(0 0 0)
(0 0 0)
(0 0 0)
(0 0 0)
(0 0 0)
(0 0 0)
(0 0 0)
(0 0 0)
(0 0 0)
(0 0 0)
(0 0 0)
(0 0 0)
(0 0 0)
(0 0 0)
(0 0 0)
(0 0 0)
(0 0 0)
(0 0 0)
(0 0 0)
(0 0 0)
(0 0 0)
(0 0 0)
(0 0 0)
(0 0 0)
(0 0 0)
(0 0 0)
(0 0 0)
(0 0 0)
(0 0 0)
(0 0 0)
(0 0 0)
(0 0 0)
(0 0 0)
(0 0 0)
(0 0 0)
(0 0 0)
(0 0 0)
(0 0 0)
(0 0 0)
(0 0 0)
(0 0 0)
(0 0 0)
(0 0 0)
(0 0 0)
(0 0 0)
(0 0 0)
(0 0 0)
(0 0 0)
(0 0 0)
(0 0 0)
(0 0 0)
(0 0 0)
(0 0 0)
(0 0 0)
(0 0 0)
(0 0 0)
(0 0 0)
(0 0 0)
(0 0 0)
(0 0 0)
(0 0 0)
(0 0 0)
(0 0 0)
(0 0 0)
(0 0 0)
(0 0 0)
(0 0 0)
(0 0 0)
(0 0 0)
(0 0 0)
(0 0 0)
(0 0 0)
(0 0 0)
(0 0 0)
(0 0 0)
(0 0 0)
(0 0 0)
(0 0 0)
(0 0 0)
(0 0 0)
(0 0 0)
(0 0 0)
(0 0 0)
(0 0 0)
(0 0 0)
(0 0 0)
(0 0 0)
(0 0 0)
(0 0 0)
(0 0 0)
(0 0 0)
(0 0 0)
(0 0 0)
(0 0 0)
(0 0 0)
(0 0 0)
(0 0 0)
(0 0 0)
(0 0 0)
(0 0 0)
(0 0 0)
(0 0 0)
(0 0 0)
(0 0 0)
(0 0 0)
(0 0 0)
(0 0 0)
(0 0 0)
(0 0 0)
(0 0 0)
(0 0 0)
(0 0 0)
(0 0 0)
(0 0 0)
(0 0 0)
(0 0 0)
(0 0 0)
(0 0 0)
(0 0 0)
(0 0 0)
(0 0 0)
(0 0 0)
(0 0 0)
(0 0 0)
(0 0 0)
(0 0 0)
(0 0 0)
(0 0 0)
(0 0 0)
(0 0 0)
(0 0 0)
(0 0 0)
(0 0 0)
(0 0 0)
(0 0 0)
(0 0 0)
(0 0 0)
(0 0 0)
(0 0 0)
(0 0 0)
(0 0 0)
(0 0 0)
(0 0 0)
(0 0 0)
(0 0 0)
(0 0 0)
(0 0 0)
(0 0 0)
(0 0 0)
(0 0 0)
(0 0 0)
(0 0 0)
(0 0 0)
(0 0 0)
(0 0 0)
(0 0 0)
(0 0 0)
(0 0 0)
(0 0 0)
(0 0 0)
(0 0 0)
(0 0 0)
(0 0 0)
(0 0 0)
(0 0 0)
(0 0 0)
(0 0 0)
(0 0 0)
(0 0 0)
(4.73262e-05 8.56788e-05 4.69323e-05)
(1.6053e-06 1.74216e-05 7.04074e-05)
(1.78349e-05 6.78017e-05 9.9184e-05)
(2.81356e-05 2.9144e-05 5.35931e-05)
(1.7567e-05 0.000581793 -0.000102428)
(-0.000199064 0.000167442 4.30422e-05)
(6.54448e-05 8.86427e-05 6.87826e-05)
(7.03641e-05 7.9202e-05 -5.9252e-06)
(7.68759e-05 0.000185075 1.76077e-05)
(-2.78153e-05 0.000110773 8.40761e-05)
(-0.000147066 0.000212216 1.90054e-05)
(-8.6911e-05 0.000216899 6.7762e-05)
(-8.54024e-05 -9.73568e-05 7.72601e-05)
(-0.000110054 -0.000111781 8.94988e-05)
(4.95885e-05 0.000110706 5.63292e-05)
(7.52673e-05 0.000160225 0.000122412)
(-3.29352e-05 2.81592e-05 0.000238112)
(-7.26418e-05 4.73222e-06 0.000151958)
(-6.14964e-05 0.00010864 0.000225525)
(5.51878e-05 8.99017e-05 0.000320785)
(3.44572e-07 1.67209e-05 -3.31494e-06)
(2.70947e-05 0.00016227 0.000139333)
(7.14487e-05 8.4976e-05 0.000231026)
(0.000126293 8.02021e-05 0.000209176)
(0.000103094 7.12171e-05 0.000220241)
(8.10814e-05 5.8512e-05 0.000504633)
(-3.27469e-05 0.000172735 0.000251177)
(4.82124e-05 0.000142339 0.000156703)
(-5.42805e-05 -0.000191948 -0.000113808)
(0.000125704 0.000156403 0.00038836)
(9.80853e-05 0.000206407 0.000373431)
(7.8588e-05 0.000170334 0.000310191)
(0.000150008 -0.000235484 -0.000221246)
(0.000479763 -0.000314231 0.000289828)
(-0.000110443 0.000117862 0.000496013)
(5.30994e-05 1.12233e-05 0.000424027)
(-2.0785e-06 -0.000334031 0.000230759)
(6.12591e-05 -9.0808e-05 0.000403076)
(3.33494e-05 6.50549e-05 0.000326411)
(2.53099e-05 2.54824e-05 0.000427308)
(-0.000107407 -0.00031751 0.00050577)
(-1.70861e-05 -0.000193873 0.000553363)
(6.59857e-05 -6.89535e-05 0.000416463)
(5.29067e-05 4.86424e-05 0.000398446)
(8.32203e-06 -0.000100386 0.000306313)
(0.000122419 -0.000104316 0.000445401)
(0.000228996 -8.11947e-05 0.000450967)
(2.90639e-05 3.89643e-05 0.000419836)
(-0.000140346 -0.000310455 0.000363923)
(0.000269359 -3.53232e-05 0.000532038)
(9.46885e-05 -0.000116089 0.000524897)
(0.000141592 -5.1716e-05 0.000441808)
(-0.00015964 -0.000465097 0.000334019)
(-0.000110638 -8.48917e-05 0.000502442)
(6.99971e-05 -0.000143756 0.000500493)
(0.000142651 1.16821e-05 0.000455065)
(-0.000665544 -0.000179353 0.000380322)
(9.18465e-05 -0.000250854 0.000445649)
(0.000180991 -0.000120133 0.000556628)
(0.000147242 -0.000111749 0.000554149)
(-0.000143416 -0.000248517 0.000215849)
(-4.77607e-05 -0.000193189 0.000468655)
(-3.93024e-05 -0.000101816 0.00045557)
(-1.74158e-05 -1.77533e-05 0.000486201)
(7.82838e-05 7.29857e-05 0.000395568)
(4.58323e-05 5.90166e-05 0.000525386)
(-7.29969e-07 3.35679e-05 0.000624366)
(-1.55075e-05 -9.86402e-05 0.000571188)
(-0.000142397 3.78748e-06 0.000428025)
(-8.69696e-05 0.000315357 0.000315076)
(-3.83558e-05 4.00172e-05 0.000446948)
(-2.8233e-05 -0.000127836 0.000574779)
(0.000135602 8.05437e-05 0.000493214)
(0.000195475 0.000313095 0.000511687)
(0.000143822 5.90786e-06 0.000582656)
(0.000134976 -4.90173e-05 0.000524243)
(6.70395e-05 0.000103873 0.000515308)
(-3.28714e-05 -2.58483e-05 0.000593143)
(-1.6921e-06 -4.30027e-05 0.000576334)
(0.000142411 1.82445e-05 0.000518047)
(7.49603e-05 0.000183112 0.00047167)
(-5.67095e-05 0.000333998 0.000539247)
(-8.53278e-05 8.699e-05 0.000500099)
(1.80613e-05 3.12961e-06 0.000607821)
(7.96102e-05 0.00032447 0.000718568)
(-0.00013272 0.000439291 0.00041012)
(-2.4623e-06 -1.84035e-05 0.000592244)
(-0.000194503 -1.14688e-05 0.000647505)
(0.000116318 0.000562776 0.000676897)
(-3.65219e-05 -0.000119739 0.000670124)
(0.000121362 -0.000246229 0.000612879)
(0.00010657 -8.78217e-05 0.00066195)
(-1.2618e-06 -0.000200594 0.000767561)
(-7.4235e-05 -0.000251545 0.000763792)
(0.000118022 -0.000152883 0.000756022)
(3.71427e-05 -3.5289e-05 0.000444216)
(-0.00166975 -0.00390624 -0.000886822)
(-5.52996e-05 -0.000219158 0.00013442)
(-0.00105801 -0.000291531 0.000269475)
(-0.000168248 -1.10899e-05 0.000575329)
(-0.00047513 0.000945759 0.000281209)
(4.4896e-05 0.000700192 -0.000352418)
(-0.00053785 -0.000446294 0.000585605)
(0.000662498 -0.0008965 -7.94901e-05)
(0.0012026 0.0019094 0.00249687)
(0.00026085 -0.00217194 0.000503556)
(-0.0024188 -0.00232088 0.00222238)
(4.70684e-05 -0.000108849 0.000885562)
(-0.000675764 -0.000181699 0.000611129)
(-0.000399772 -0.000648998 0.000771963)
(-0.000235946 -0.000319128 0.000619263)
(-0.000646913 -0.000118754 0.000488672)
(0 0 0)
(0 0 0)
(0 0 0)
(0 0 0)
(0 0 0)
(0 0 0)
(0 0 0)
(0 0 0)
(0 0 0)
(0 0 0)
(0 0 0)
(0 0 0)
(0 0 0)
(0 0 0)
(0 0 0)
(0 0 0)
(0 0 0)
(0 0 0)
(0 0 0)
(0 0 0)
(0 0 0)
(0 0 0)
(0 0 0)
(0 0 0)
(0 0 0)
(0 0 0)
(0 0 0)
(0 0 0)
(0 0 0)
(0 0 0)
(0 0 0)
(0 0 0)
(0 0 0)
(0 0 0)
(0 0 0)
(0 0 0)
(0 0 0)
(0 0 0)
(0 0 0)
(0 0 0)
(0 0 0)
(0 0 0)
(0 0 0)
(0 0 0)
(0 0 0)
(0 0 0)
(0 0 0)
(0 0 0)
(0 0 0)
(0 0 0)
(0 0 0)
(0 0 0)
(0 0 0)
(0 0 0)
(0 0 0)
(0 0 0)
(0 0 0)
(0 0 0)
(0 0 0)
(0 0 0)
(0 0 0)
(0 0 0)
(0 0 0)
(0 0 0)
(0 0 0)
(0 0 0)
(0 0 0)
(0 0 0)
(0 0 0)
(0 0 0)
(0 0 0)
(0 0 0)
(0 0 0)
(0 0 0)
(0 0 0)
(0 0 0)
(0 0 0)
(0 0 0)
(0 0 0)
(0 0 0)
(0 0 0)
(0 0 0)
(0 0 0)
(0 0 0)
(0 0 0)
(0 0 0)
(0 0 0)
(0 0 0)
(0 0 0)
(0 0 0)
(0 0 0)
(0 0 0)
(0 0 0)
(0 0 0)
(0 0 0)
(0 0 0)
(0 0 0)
(0 0 0)
(0 0 0)
(0 0 0)
(0 0 0)
(0 0 0)
(0 0 0)
(0 0 0)
(0 0 0)
(0 0 0)
(0 0 0)
(0 0 0)
(0 0 0)
(0 0 0)
(0 0 0)
(0 0 0)
(0 0 0)
(0 0 0)
(0 0 0)
(0 0 0)
(0 0 0)
(0 0 0)
(0 0 0)
(0 0 0)
(0 0 0)
(0 0 0)
(0 0 0)
(0 0 0)
(0 0 0)
(0 0 0)
(0 0 0)
(0 0 0)
(0 0 0)
(0 0 0)
(0 0 0)
(0 0 0)
(0 0 0)
(0 0 0)
(0 0 0)
(0 0 0)
(0 0 0)
(0 0 0)
(0 0 0)
(0 0 0)
(0 0 0)
(0 0 0)
(0 0 0)
(0 0 0)
(0 0 0)
(0 0 0)
(0 0 0)
(0 0 0)
(0 0 0)
(0 0 0)
(0 0 0)
(0 0 0)
(0 0 0)
(0 0 0)
(0 0 0)
(0 0 0)
(0 0 0)
(0 0 0)
(0 0 0)
(0 0 0)
(0 0 0)
(0 0 0)
(0 0 0)
(0 0 0)
(0 0 0)
(0 0 0)
(0 0 0)
(0 0 0)
(0 0 0)
(0 0 0)
(0 0 0)
(0 0 0)
(0 0 0)
(0 0 0)
(0 0 0)
(0 0 0)
(0 0 0)
(0 0 0)
(0 0 0)
(0 0 0)
(0 0 0)
(0 0 0)
(0 0 0)
(0 0 0)
(0 0 0)
(0 0 0)
(0 0 0)
(0 0 0)
(0 0 0)
(0 0 0)
(0 0 0)
(0 0 0)
(0 0 0)
(0 0 0)
(0 0 0)
(0 0 0)
(0 0 0)
(0 0 0)
(0 0 0)
(0 0 0)
(0 0 0)
(0 0 0)
(0 0 0)
(0 0 0)
(0 0 0)
(0 0 0)
(0 0 0)
(0 0 0)
(0 0 0)
(0 0 0)
(0 0 0)
(0 0 0)
(0 0 0)
(0 0 0)
(0 0 0)
(0 0 0)
(0 0 0)
(0 0 0)
(0 0 0)
(0 0 0)
(0 0 0)
(0 0 0)
(0 0 0)
(0 0 0)
(0 0 0)
(0 0 0)
(0 0 0)
(0 0 0)
(0 0 0)
(0 0 0)
(0 0 0)
(0 0 0)
(0 0 0)
(0 0 0)
(0 0 0)
(0 0 0)
(0 0 0)
(0 0 0)
(0 0 0)
(0 0 0)
(0 0 0)
(0 0 0)
(0 0 0)
(0 0 0)
(0 0 0)
(0 0 0)
(0 0 0)
(0 0 0)
(0 0 0)
(0 0 0)
(0 0 0)
(0 0 0)
(0 0 0)
(0 0 0)
(0 0 0)
(0 0 0)
(0 0 0)
(0 0 0)
(0 0 0)
(0 0 0)
(0 0 0)
(0 0 0)
(0 0 0)
(0 0 0)
(0 0 0)
(0 0 0)
(0 0 0)
(0 0 0)
(0 0 0)
(0 0 0)
(0 0 0)
(0 0 0)
)
;

boundaryField
{
    inlet
    {
        type            zeroGradient;
    }
    outlet
    {
        type            zeroGradient;
    }
    wall
    {
        type            zeroGradient;
    }
    procBoundary2to0
    {
        type            processor;
        value           nonuniform List<vector> 
192
(
(4.48961e-05 8.92981e-05 8.33944e-05)
(-1.48992e-05 8.16938e-05 0.000137499)
(0.000174268 6.02253e-05 0.000159614)
(0.000339139 6.08019e-05 9.85848e-05)
(7.24401e-05 0.000123838 0.000323312)
(9.37649e-05 3.45989e-05 0.000220895)
(0.000195811 -1.28567e-05 0.000283944)
(7.566e-05 8.95287e-05 0.00053704)
(0.000212489 0.00013005 0.000475169)
(7.09939e-05 0.000191162 0.000612215)
(9.33806e-06 0.000127206 0.000554607)
(-6.9629e-05 0.000331318 0.000805552)
(0.000189624 -0.000142796 0.000661201)
(0.000229599 -9.89541e-05 0.000581919)
(0.000258866 -1.27246e-05 0.000691676)
(5.8072e-05 3.43591e-05 0.000770591)
(-1.57691e-05 1.14435e-05 0.000742601)
(0.000162004 -4.68392e-06 0.000636399)
(0.00030824 7.97984e-05 0.00056478)
(0.000263771 -1.96382e-06 0.000529818)
(-3.93953e-05 3.61521e-05 0.000790746)
(-1.25372e-05 0.000119986 0.000755545)
(0.000110232 4.78429e-05 0.000574277)
(0.00012665 -1.13179e-06 0.000452014)
(-0.000328811 -3.323e-06 0.00123035)
(1.52217e-07 0.000138217 0.000755338)
(0.00034598 -0.000389754 0.000485541)
(0.000247956 0.000109584 0.000254481)
(0 0 0)
(0 0 0)
(0 0 0)
(0 0 0)
(0 0 0)
(0 0 0)
(0 0 0)
(0 0 0)
(0 0 0)
(0 0 0)
(0 0 0)
(0 0 0)
(0 0 0)
(0 0 0)
(0 0 0)
(0 0 0)
(0 0 0)
(0 0 0)
(0 0 0)
(0 0 0)
(0 0 0)
(0 0 0)
(0 0 0)
(0 0 0)
(0 0 0)
(0 0 0)
(0 0 0)
(0 0 0)
(0 0 0)
(0 0 0)
(0 0 0)
(0 0 0)
(0 0 0)
(0 0 0)
(0 0 0)
(0 0 0)
(0 0 0)
(0 0 0)
(0 0 0)
(0 0 0)
(0 0 0)
(0 0 0)
(0 0 0)
(0 0 0)
(0 0 0)
(0 0 0)
(0 0 0)
(0 0 0)
(0 0 0)
(0 0 0)
(0 0 0)
(0 0 0)
(0 0 0)
(0 0 0)
(0 0 0)
(0 0 0)
(0 0 0)
(0 0 0)
(0 0 0)
(0 0 0)
(0 0 0)
(0 0 0)
(0 0 0)
(0 0 0)
(0 0 0)
(0 0 0)
(0 0 0)
(0 0 0)
(-5.67266e-05 -3.71155e-06 6.23704e-05)
(-4.57439e-05 1.86643e-05 7.40308e-05)
(-9.52031e-05 7.42652e-05 0.000151873)
(-3.01826e-06 0.000217436 8.96385e-05)
(-0.000202057 4.12679e-05 0.000260261)
(-0.00010582 -7.17127e-05 0.000294558)
(-2.49756e-05 6.47934e-05 0.000265913)
(5.77108e-05 9.35238e-05 0.000325492)
(-2.43189e-05 0.000284469 0.000468522)
(3.14209e-05 5.20035e-05 0.000438816)
(0.00014218 9.1983e-05 0.000457594)
(0.000227792 7.32644e-05 0.000506373)
(-5.39941e-05 -0.000112246 0.000540177)
(0.000114834 0.000127166 0.000470365)
(0.000187517 0.000103896 0.000556687)
(0.000140459 4.27612e-07 0.000709781)
(0.000110546 -1.34893e-06 0.000502106)
(0.000187197 -2.8488e-05 0.000543713)
(0.000226367 6.55385e-05 0.000665806)
(7.32645e-05 1.59024e-05 0.000833446)
(6.50146e-05 2.53016e-05 0.000309632)
(6.22001e-05 0.000163287 0.000587942)
(4.60261e-05 0.000212385 0.000690753)
(9.22362e-05 8.33989e-05 0.000714128)
(2.6627e-06 -0.000425592 0.000111128)
(0.000729727 -0.0022359 0.000564204)
(-0.00226671 -0.00233722 -0.000599577)
(-0.000141435 0.000353959 0.000842831)
(0 0 0)
(0 0 0)
(0 0 0)
(0 0 0)
(0 0 0)
(0 0 0)
(0 0 0)
(0 0 0)
(0 0 0)
(0 0 0)
(0 0 0)
(0 0 0)
(0 0 0)
(0 0 0)
(0 0 0)
(0 0 0)
(0 0 0)
(0 0 0)
(0 0 0)
(0 0 0)
(0 0 0)
(0 0 0)
(0 0 0)
(0 0 0)
(0 0 0)
(0 0 0)
(0 0 0)
(0 0 0)
(0 0 0)
(0 0 0)
(0 0 0)
(0 0 0)
(0 0 0)
(0 0 0)
(0 0 0)
(0 0 0)
(0 0 0)
(0 0 0)
(0 0 0)
(0 0 0)
(0 0 0)
(0 0 0)
(0 0 0)
(0 0 0)
(0 0 0)
(0 0 0)
(0 0 0)
(0 0 0)
(0 0 0)
(0 0 0)
(0 0 0)
(0 0 0)
(0 0 0)
(0 0 0)
(0 0 0)
(0 0 0)
(0 0 0)
(0 0 0)
(0 0 0)
(0 0 0)
(0 0 0)
(0 0 0)
(0 0 0)
(0 0 0)
(0 0 0)
(0 0 0)
(0 0 0)
(0 0 0)
)
;
    }
    procBoundary2to3
    {
        type            processor;
        value           nonuniform List<vector> 
192
(
(0.000189931 0.000218665 -3.11209e-05)
(0.00017085 -4.67862e-05 0.00012678)
(7.54636e-05 -0.000161029 0.000148212)
(6.27977e-05 0.000155775 0.000143273)
(-0.000261779 -0.000387656 2.88681e-05)
(9.94583e-06 -0.00021345 0.000425694)
(-2.47578e-05 -0.000154366 0.000294506)
(1.59504e-05 -0.000138832 0.000336395)
(-0.000204002 -0.000129111 0.000930041)
(-0.000206064 -3.62144e-05 0.000607833)
(-1.49818e-05 -0.000110995 0.000438787)
(-4.79423e-05 -0.000192 0.000456067)
(-0.000161031 -0.000144845 0.000711392)
(-0.000270129 -0.000243601 0.000577835)
(-0.000208451 -0.000248008 0.000573185)
(-0.000120521 -0.000220576 0.000540107)
(-0.000136183 -0.000215588 0.000542373)
(-3.62885e-05 -0.000339298 0.000583445)
(-0.000171786 -0.000210076 0.000553572)
(-8.13948e-05 -7.65386e-05 0.000588403)
(-3.78899e-05 -0.000227382 0.000465796)
(2.20135e-05 -0.000170086 0.000505368)
(-7.29554e-05 8.28962e-07 0.000582475)
(-5.11405e-05 3.1967e-05 0.000652534)
(0.000235335 -3.9519e-05 0.00032768)
(-2.31478e-05 4.29438e-05 0.000541975)
(-0.000107821 9.75622e-05 0.000717878)
(-0.000904956 1.45198e-05 0.000487634)
(0 0 0)
(0 0 0)
(0 0 0)
(0 0 0)
(0 0 0)
(0 0 0)
(0 0 0)
(0 0 0)
(0 0 0)
(0 0 0)
(0 0 0)
(0 0 0)
(0 0 0)
(0 0 0)
(0 0 0)
(0 0 0)
(0 0 0)
(0 0 0)
(0 0 0)
(0 0 0)
(0 0 0)
(0 0 0)
(0 0 0)
(0 0 0)
(0 0 0)
(0 0 0)
(0 0 0)
(0 0 0)
(0 0 0)
(0 0 0)
(0 0 0)
(0 0 0)
(0 0 0)
(0 0 0)
(0 0 0)
(0 0 0)
(0 0 0)
(0 0 0)
(0 0 0)
(0 0 0)
(0 0 0)
(0 0 0)
(0 0 0)
(0 0 0)
(0 0 0)
(0 0 0)
(0 0 0)
(0 0 0)
(0 0 0)
(0 0 0)
(0 0 0)
(0 0 0)
(0 0 0)
(0 0 0)
(0 0 0)
(0 0 0)
(0 0 0)
(0 0 0)
(0 0 0)
(0 0 0)
(0 0 0)
(0 0 0)
(0 0 0)
(0 0 0)
(0 0 0)
(0 0 0)
(0 0 0)
(0 0 0)
(-0.000114256 -0.000278951 -2.22041e-05)
(-3.03659e-05 -2.94955e-05 3.40595e-05)
(1.80879e-05 -6.68263e-05 6.29104e-05)
(-1.31583e-05 5.75867e-06 5.60797e-05)
(-1.73633e-05 -0.000105758 0.000249245)
(-6.40549e-05 -0.000120324 0.000115922)
(-0.000115924 -0.000237881 0.000158423)
(-0.000115917 -3.77221e-05 0.000153144)
(-9.18575e-05 -0.000131058 0.000382463)
(-0.00017475 -7.70837e-05 0.000320676)
(-5.27367e-05 -2.85775e-05 0.000276508)
(-5.03542e-05 -5.90937e-06 0.000231194)
(-7.82782e-05 -7.43039e-05 0.000487624)
(-0.000139312 -7.53088e-05 0.000450149)
(-0.000166898 -5.90943e-05 0.000350777)
(-0.000198517 -4.07358e-05 0.000248079)
(-0.000113757 -2.9927e-06 0.000568457)
(-0.000128575 -1.47192e-05 0.000524236)
(-0.000123862 -2.33159e-05 0.000379959)
(-0.000164011 -2.90267e-05 0.000342512)
(-8.74516e-05 0.000159403 0.000605077)
(-0.000139824 0.000119427 0.000651691)
(-6.17355e-05 0.000256119 0.000496621)
(3.49267e-05 0.000114516 0.000347817)
(4.71274e-06 0.00014208 0.000585701)
(-8.68212e-05 -0.000137496 0.000511573)
(-0.000166815 4.76105e-05 0.000537485)
(-0.000161773 0.000149034 0.000407875)
(0 0 0)
(0 0 0)
(0 0 0)
(0 0 0)
(0 0 0)
(0 0 0)
(0 0 0)
(0 0 0)
(0 0 0)
(0 0 0)
(0 0 0)
(0 0 0)
(0 0 0)
(0 0 0)
(0 0 0)
(0 0 0)
(0 0 0)
(0 0 0)
(0 0 0)
(0 0 0)
(0 0 0)
(0 0 0)
(0 0 0)
(0 0 0)
(0 0 0)
(0 0 0)
(0 0 0)
(0 0 0)
(0 0 0)
(0 0 0)
(0 0 0)
(0 0 0)
(0 0 0)
(0 0 0)
(0 0 0)
(0 0 0)
(0 0 0)
(0 0 0)
(0 0 0)
(0 0 0)
(0 0 0)
(0 0 0)
(0 0 0)
(0 0 0)
(0 0 0)
(0 0 0)
(0 0 0)
(0 0 0)
(0 0 0)
(0 0 0)
(0 0 0)
(0 0 0)
(0 0 0)
(0 0 0)
(0 0 0)
(0 0 0)
(0 0 0)
(0 0 0)
(0 0 0)
(0 0 0)
(0 0 0)
(0 0 0)
(0 0 0)
(0 0 0)
(0 0 0)
(0 0 0)
(0 0 0)
(0 0 0)
)
;
    }
}


// ************************************************************************* //
