/*--------------------------------*- C++ -*----------------------------------*\
| =========                 |                                                 |
| \\      /  F ield         | OpenFOAM: The Open Source CFD Toolbox           |
|  \\    /   O peration     | Version:  2506                                  |
|   \\  /    A nd           | Website:  www.openfoam.com                      |
|    \\/     M anipulation  |                                                 |
\*---------------------------------------------------------------------------*/
FoamFile
{
    version     2.0;
    format      ascii;
    arch        "LSB;label=32;scalar=64";
    class       volScalarField;
    location    "0.03";
    object      voidfraction;
}
// * * * * * * * * * * * * * * * * * * * * * * * * * * * * * * * * * * * * * //

dimensions      [0 0 0 0 0 0 0];

internalField   nonuniform List<scalar> 
1152
(
0.420663
0.381163
0.407496
0.360096
0.470697
0.43383
0.420663
0.346929
0.428563
0.436463
0.423296
0.525997
0.452263
0.452263
0.43383
0.460163
0.431196
0.367996
0.407496
0.310062
0.396963
0.41013
0.423296
0.407496
0.412763
0.40223
0.354829
0.446997
0.41803
0.44173
0.391696
0.373263
0.399596
0.40223
0.399596
0.491764
0.46543
0.452263
0.341663
0.439097
0.38643
0.41803
0.44173
0.389063
0.46543
0.365363
0.415396
0.341663
0.41803
0.367996
0.391696
0.407496
0.412763
0.383796
0.415396
0.41803
0.320596
0.375896
0.391696
0.42593
0.360096
0.389063
0.396963
0.331129
0.352196
0.399596
0.428563
0.436463
0.396963
0.415396
0.38643
0.375896
0.362729
0.396963
0.38643
0.436463
0.431196
0.412763
0.439097
0.339029
0.460163
0.39433
0.381163
0.349563
0.399596
0.404863
0.346929
0.41013
0.404863
0.41013
0.460163
0.41803
0.50493
0.444363
0.412763
0.323229
0.649764
0.615531
0.599731
0.604998
0.702431
0.612898
0.570764
0.597097
0.702431
0.649764
0.562864
0.607631
0.710332
0.620798
0.510197
0.602364
1
1
1
1
1
1
1
1
1
1
1
1
1
1
1
1
1
1
1
1
1
1
1
1
1
1
1
1
1
1
1
1
1
1
1
1
1
1
1
1
1
1
1
1
1
1
1
1
1
1
1
1
1
1
1
1
1
1
1
1
1
1
1
1
1
1
1
1
1
1
1
1
1
1
1
1
1
1
1
1
1
1
1
1
1
1
1
1
1
1
1
1
1
1
1
1
1
1
1
1
1
1
1
1
1
1
1
1
1
1
1
1
1
1
1
1
1
1
1
1
1
1
1
1
1
1
1
1
1
1
1
1
1
1
1
1
1
1
1
1
1
1
1
1
1
1
1
1
1
1
1
1
1
1
1
1
1
1
1
1
1
1
1
1
1
1
1
1
1
1
1
1
1
1
1
1
1
1
1
1
1
1
1
1
1
1
1
1
1
1
1
1
1
1
1
1
1
1
1
1
1
1
1
1
1
1
1
1
1
1
1
1
1
1
1
1
1
1
1
1
1
1
1
1
1
1
1
1
1
1
1
1
1
1
1
1
1
1
1
1
1
1
1
1
1
1
1
1
1
1
1
1
1
1
1
1
1
1
1
1
1
1
1
1
1
1
1
1
1
1
1
1
0.496182
0.422277
0.537121
0.408616
0.445107
0.418323
0.449189
0.427367
0.427599
0.461609
0.448165
0.457994
0.503604
0.436883
0.487363
0.450572
0.478658
0.422277
0.409896
0.355993
0.44148
0.351846
0.363718
0.365461
0.393565
0.468918
0.429136
0.402607
0.438857
0.417315
0.43972
0.391513
0.360371
0.415858
0.404483
0.488804
0.401586
0.418323
0.370841
0.48043
0.427599
0.393397
0.439708
0.376891
0.430763
0.432534
0.424475
0.387933
0.3998
0.383763
0.366586
0.451216
0.455987
0.468181
0.392208
0.394203
0.433788
0.446992
0.448165
0.398651
0.449648
0.395573
0.411135
0.445203
0.469896
0.412649
0.442379
0.396087
0.347184
0.376775
0.380338
0.378727
0.340966
0.422631
0.460851
0.422388
0.436159
0.482541
0.369209
0.40762
0.373514
0.367715
0.366586
0.373534
0.426973
0.410014
0.396957
0.460532
0.399753
0.417758
0.458737
0.323482
0.436159
0.397747
0.393983
0.493524
0.728377
0.675833
0.658931
0.704308
0.673592
0.645454
0.731717
0.659516
0.67203
0.688172
0.674396
0.794275
0.660077
0.745619
0.71986
0.833561
1
1
1
1
1
1
1
1
1
1
1
1
1
1
1
1
1
1
1
1
1
1
1
1
1
1
1
1
1
1
1
1
1
1
1
1
1
1
1
1
1
1
1
1
1
1
1
1
1
1
1
1
1
1
1
1
1
1
1
1
1
1
1
1
1
1
1
1
1
1
1
1
1
1
1
1
1
1
1
1
1
1
1
1
1
1
1
1
1
1
1
1
1
1
1
1
1
1
1
1
1
1
1
1
1
1
1
1
1
1
1
1
1
1
1
1
1
1
1
1
1
1
1
1
1
1
1
1
1
1
1
1
1
1
1
1
1
1
1
1
1
1
1
1
1
1
1
1
1
1
1
1
1
1
1
1
1
1
1
1
1
1
1
1
1
1
1
1
1
1
1
1
1
1
1
1
1
1
1
1
1
1
1
1
1
1
1
1
1
1
1
1
1
1
1
1
1
1
1
1
1
1
1
1
1
1
1
1
1
1
1
1
1
1
1
1
1
1
1
1
1
1
1
1
1
1
1
1
1
1
1
1
1
1
1
1
1
1
1
1
1
1
1
1
1
1
1
1
1
1
1
1
1
1
1
1
1
1
1
1
1
1
1
1
1
1
1
1
1
1
1
1
0.445203
0.461951
0.376516
0.458734
0.434003
0.435479
0.401705
0.477569
0.484715
0.464045
0.440483
0.512145
0.441554
0.381189
0.503135
0.421705
0.362878
0.410519
0.33893
0.361005
0.454966
0.397422
0.411202
0.41531
0.499934
0.388525
0.404474
0.467211
0.436159
0.433788
0.405212
0.426086
0.450572
0.521294
0.40968
0.456228
0.352057
0.450279
0.41595
0.339517
0.484715
0.381216
0.398934
0.313152
0.419972
0.455446
0.408839
0.377895
0.411199
0.461951
0.40968
0.436181
0.380643
0.435479
0.425447
0.358465
0.447754
0.461609
0.346306
0.464002
0.452346
0.412129
0.4306
0.395419
0.443413
0.386782
0.367672
0.423652
0.414946
0.40165
0.420699
0.390948
0.395573
0.439684
0.390625
0.447954
0.433461
0.390471
0.416093
0.395419
0.439834
0.507447
0.387571
0.436181
0.435909
0.446051
0.411202
0.382827
0.410792
0.454301
0.401704
0.444744
0.409181
0.378095
0.350811
0.35599
0.754815
0.86351
0.803227
0.794519
0.765597
0.651139
0.72222
0.637276
0.704309
0.668683
0.723011
0.669414
0.630401
0.628713
0.698979
0.745901
1
1
1
1
1
1
1
1
1
1
1
1
1
1
1
1
1
1
1
1
1
1
1
1
1
1
1
1
1
1
1
1
1
1
1
1
1
1
1
1
1
1
1
1
1
1
1
1
1
1
1
1
1
1
1
1
1
1
1
1
1
1
1
1
1
1
1
1
1
1
1
1
1
1
1
1
1
1
1
1
1
1
1
1
1
1
1
1
1
1
1
1
1
1
1
1
1
1
1
1
1
1
1
1
1
1
1
1
1
1
1
1
1
1
1
1
1
1
1
1
1
1
1
1
1
1
1
1
1
1
1
1
1
1
1
1
1
1
1
1
1
1
1
1
1
1
1
1
1
1
1
1
1
1
1
1
1
1
1
1
1
1
1
1
1
1
1
1
1
1
1
1
1
1
1
1
1
1
1
1
1
1
1
1
1
1
1
1
1
1
1
1
1
1
1
1
1
1
1
1
1
1
1
1
1
1
1
1
1
1
1
1
1
1
1
1
1
1
1
1
1
1
1
1
1
1
1
1
1
1
1
1
1
1
1
1
1
1
1
1
1
1
1
1
1
1
1
1
1
1
1
1
1
1
1
1
1
1
1
1
1
1
1
1
1
1
1
1
1
1
1
1
)
;

boundaryField
{
    inlet
    {
        type            fixedValue;
        value           uniform 1;
    }
    outlet
    {
        type            fixedValue;
        value           uniform 1;
    }
    wall
    {
        type            zeroGradient;
    }
    procBoundary2to0
    {
        type            processor;
        value           nonuniform List<scalar> 
192
(
0.41013
0.541797
0.47333
0.42593
0.42593
0.389063
0.41803
0.357463
0.367996
0.460163
0.346929
0.370629
0.367996
0.46543
0.428563
0.51283
0.47333
0.352196
0.344296
0.357463
0.444363
0.415396
0.412763
0.431196
0.749832
0.615531
0.547064
0.599731
1
1
1
1
1
1
1
1
1
1
1
1
1
1
1
1
1
1
1
1
1
1
1
1
1
1
1
1
1
1
1
1
1
1
1
1
1
1
1
1
1
1
1
1
1
1
1
1
1
1
1
1
1
1
1
1
1
1
1
1
1
1
1
1
1
1
1
1
0.416568
0.412498
0.473797
0.466251
0.387933
0.418432
0.418524
0.408616
0.386144
0.376891
0.33893
0.446204
0.455941
0.35711
0.367672
0.411122
0.411199
0.398651
0.425157
0.396087
0.436254
0.414476
0.440633
0.441193
0.672491
0.756691
0.831969
0.759437
1
1
1
1
1
1
1
1
1
1
1
1
1
1
1
1
1
1
1
1
1
1
1
1
1
1
1
1
1
1
1
1
1
1
1
1
1
1
1
1
1
1
1
1
1
1
1
1
1
1
1
1
1
1
1
1
1
1
1
1
1
1
1
1
1
1
1
1
)
;
    }
    procBoundary2to3
    {
        type            processor;
        value           nonuniform List<scalar> 
192
(
0.562864
0.560231
0.341663
0.446997
0.510197
0.407496
0.328496
0.439097
0.431196
0.315329
0.404863
0.40223
0.270562
0.404863
0.415396
0.431196
0.296896
0.383796
0.389063
0.41013
0.533897
0.48123
0.362729
0.48123
0.462797
0.594464
0.591831
0.47333
1
1
1
1
1
1
1
1
1
1
1
1
1
1
1
1
1
1
1
1
1
1
1
1
1
1
1
1
1
1
1
1
1
1
1
1
1
1
1
1
1
1
1
1
1
1
1
1
1
1
1
1
1
1
1
1
1
1
1
1
1
1
1
1
1
1
1
1
0.463745
0.391992
0.499535
0.380775
0.428663
0.438422
0.428323
0.484575
0.358499
0.356617
0.380848
0.373616
0.363511
0.391992
0.442169
0.40404
0.421146
0.453899
0.331395
0.359299
0.513863
0.374305
0.434257
0.414778
0.53391
0.717
0.725041
0.778081
1
1
1
1
1
1
1
1
1
1
1
1
1
1
1
1
1
1
1
1
1
1
1
1
1
1
1
1
1
1
1
1
1
1
1
1
1
1
1
1
1
1
1
1
1
1
1
1
1
1
1
1
1
1
1
1
1
1
1
1
1
1
1
1
1
1
1
1
)
;
    }
}


// ************************************************************************* //
