/*--------------------------------*- C++ -*----------------------------------*\
| =========                 |                                                 |
| \\      /  F ield         | OpenFOAM: The Open Source CFD Toolbox           |
|  \\    /   O peration     | Version:  2506                                  |
|   \\  /    A nd           | Website:  www.openfoam.com                      |
|    \\/     M anipulation  |                                                 |
\*---------------------------------------------------------------------------*/
FoamFile
{
    version     2.0;
    format      ascii;
    arch        "LSB;label=32;scalar=64";
    class       surfaceScalarField;
    location    "0.006";
    object      phi;
}
// * * * * * * * * * * * * * * * * * * * * * * * * * * * * * * * * * * * * * //

dimensions      [0 3 -1 0 0 0 0];

oriented        oriented;

internalField   nonuniform List<scalar> 
1200
(
0.00148418
7.32076e-06
8.09995e-06
0.00148166
-1.56815e-07
2.67854e-06
0.00150146
-7.4837e-06
-1.23176e-05
0.0014982
4.13343e-06
-8.68989e-07
0.00147952
7.28593e-06
1.13874e-05
0.0014645
5.8072e-06
9.21394e-06
0.00148941
-1.43881e-05
-1.05235e-05
0.001496
-3.24955e-06
-3.33215e-06
0.00148596
6.33628e-06
3.70435e-06
0.00149034
-1.7639e-06
-2.62467e-06
0.00150451
-4.32764e-06
-9.84091e-06
0.00150813
1.89878e-07
-3.80709e-06
0.00150074
1.77807e-06
5.60822e-06
0.00149391
3.7405e-06
3.08855e-06
0.00149369
4.46972e-06
-4.24725e-06
0.00149352
2.24863e-06
-2.0721e-06
0.00149653
-6.90605e-07
-2.32717e-06
0.00149201
1.96823e-06
2.55728e-06
0.0014821
2.26803e-06
7.64247e-06
0.00148243
-5.155e-07
1.82812e-07
0.00148806
-5.01887e-07
-5.12855e-06
0.00149587
-1.6509e-06
-6.15478e-06
0.00150585
-6.17777e-06
-3.80554e-06
0.00152292
-3.92927e-06
-1.31376e-05
0.00154646
6.53885e-07
-2.41936e-05
0.00153315
5.58953e-06
7.71298e-06
0.0015113
5.20886e-06
1.66464e-05
0.00150931
-1.84212e-07
2.17108e-06
0.00151109
-2.19321e-06
4.1287e-07
0.00150819
-1.07821e-06
3.97589e-06
0.0015009
-1.85524e-06
9.15127e-06
2.79414e-06
4.36251e-06
0.00148721
1.06765e-05
1.22796e-05
0.00149026
-2.60819e-06
-5.98835e-07
0.00149356
-3.13464e-06
-7.65164e-06
0.00150493
2.46503e-07
-7.47876e-06
0.00150126
6.31662e-06
4.62988e-06
0.00149495
5.93817e-06
6.18565e-06
0.00148588
-6.8346e-06
1.51163e-06
0.00149593
-1.04838e-05
-2.80907e-06
0.00150154
-7.39834e-07
1.46502e-06
0.00150643
-5.43087e-06
-1.22465e-06
0.00150961
-2.04237e-07
-7.30875e-06
0.0015147
-1.31683e-08
-4.88333e-06
0.00151262
-6.62501e-07
4.51866e-06
0.00151582
3.22377e-07
2.1572e-07
0.00151785
4.97423e-06
-2.52793e-06
0.00152181
-1.8811e-06
1.69078e-07
0.00153264
-7.00762e-06
-4.51761e-06
0.00153839
-1.45069e-06
-2.32928e-06
0.00152624
8.00209e-06
6.42243e-06
0.00150354
1.62488e-05
5.9345e-06
0.00151164
-1.8748e-06
-6.72964e-06
0.00153212
-1.43624e-05
-7.76619e-06
0.00154038
-1.44346e-05
-1.67066e-09
0.00154853
-2.98102e-06
-9.10283e-06
0.00157167
-1.44225e-07
-2.23459e-05
0.00156861
4.55543e-06
4.09906e-06
0.00155883
2.67177e-06
1.23154e-05
0.00154501
8.92687e-06
4.71285e-06
0.00152985
9.07927e-06
3.88506e-06
0.00151839
4.16472e-06
6.22041e-06
0.0015128
-4.09042e-06
7.82308e-06
5.53853e-06
7.21129e-06
0.00152839
6.55731e-06
2.05813e-06
0.00150774
9.91298e-06
8.12554e-06
0.00150557
2.34001e-06
-3.30897e-06
0.00150503
5.71357e-06
-4.92531e-06
0.00149814
4.58123e-06
8.62168e-06
0.00149457
9.41202e-07
8.57307e-06
0.00149749
-8.97008e-06
-7.87452e-07
0.00151306
-1.939e-05
-6.66289e-06
0.00151369
-3.26225e-06
1.89555e-06
0.0015031
3.50213e-06
1.65364e-06
0.0015111
2.54115e-06
-1.07476e-05
0.00152775
-6.08169e-06
-1.0578e-05
0.00151678
5.88463e-06
4.42442e-06
0.00150781
8.89717e-06
3.9084e-07
0.00151623
3.94673e-07
-3.83742e-06
0.00152238
-9.67716e-06
1.64805e-06
0.00152757
-1.05611e-05
-1.64239e-06
0.00151689
8.21181e-06
1.0221e-06
0.00150638
1.64039e-05
2.10698e-06
0.00152946
2.60457e-06
-9.43212e-06
0.00154391
-8.5389e-06
-7.78772e-06
0.0015433
-8.81985e-06
-4.93744e-06
0.0015345
-9.08282e-06
3.45516e-06
0.00154542
-9.7291e-06
-4.18001e-06
0.00157147
-1.12885e-05
-1.49061e-05
0.00157838
-3.02361e-06
6.72097e-07
0.00157205
2.11245e-06
6.88878e-06
0.00154954
2.38432e-05
7.59995e-06
0.00153064
2.13782e-05
6.59637e-06
0.001522
7.72876e-06
5.0724e-06
0.00151952
-7.14951e-06
5.54016e-06
-2.92703e-06
1.66426e-06
0.00151366
2.23601e-06
4.56363e-06
0.00151399
1.40328e-05
-4.44924e-06
0.00149785
1.84942e-05
-1.4874e-08
0.00148102
1.28058e-05
9.73376e-06
0.0014749
5.98881e-06
4.71671e-06
0.00149631
-2.17071e-05
1.23972e-06
0.00151138
-1.9972e-05
-4.06686e-06
0.00150606
-1.09165e-05
-3.15454e-06
0.00149221
8.68992e-06
1.89916e-06
0.00148932
6.90099e-06
-5.09514e-07
0.00150108
-4.91426e-06
-4.30328e-06
0.00150612
-1.25504e-05
1.42723e-06
0.00151009
7.51497e-07
1.16324e-06
0.00152204
2.82035e-06
-5.87957e-06
0.0015274
-2.94301e-06
-2.01295e-06
0.0015171
-3.42392e-06
4.03834e-06
0.00151039
-3.78684e-06
-6.49452e-08
0.00151655
2.83855e-06
-7.83322e-07
0.00152425
8.45768e-06
2.4562e-07
0.00152666
1.78096e-07
1.81315e-08
0.00153194
-1.0404e-05
-3.41262e-06
0.00153727
-1.0236e-05
-3.91683e-06
0.00153395
-8.08849e-06
2.32814e-06
0.00153863
-9.57228e-06
-4.83902e-06
0.00154169
-6.70952e-06
-7.64321e-06
0.00153615
2.82643e-07
2.24275e-06
0.0015337
1.55084e-06
3.00513e-06
0.00153779
1.35316e-05
6.22041e-06
0.00153394
1.83905e-05
6.83779e-06
0.00152438
1.26909e-05
4.6022e-06
0.00151598
-5.74497e-07
1.82718e-06
-2.83313e-06
1.97963e-06
0.0014915
1.64553e-05
1.21034e-06
0.00150095
5.51317e-06
-9.30166e-07
0.00151851
-2.41904e-06
3.35254e-06
0.00151988
4.50631e-06
6.92701e-06
0.00152532
-4.64015e-06
5.18566e-06
0.00151874
-1.54745e-05
3.51867e-07
0.00151166
-9.713e-06
-3.17677e-06
0.00150334
-3.71749e-06
1.11471e-06
0.00150627
7.59958e-06
-1.84041e-06
0.00152011
4.24457e-06
-1.11828e-05
0.00152639
-4.50327e-06
-6.68898e-06
0.0015211
-8.25635e-06
9.92321e-07
0.00152166
-1.62595e-06
1.82394e-06
0.00152608
1.08703e-06
-2.6873e-06
0.00152219
4.45933e-07
4.96619e-07
0.00151483
1.90503e-06
2.03517e-06
0.00150606
2.14597e-06
2.83538e-06
0.00151265
-3.2093e-06
-5.43666e-07
0.0015185
4.05556e-06
-1.44717e-06
0.00152559
-6.86525e-06
-4.29399e-08
0.00153043
-8.60393e-06
-6.64126e-06
0.00153124
-6.59446e-06
-4.4488e-06
0.00152021
-2.65519e-06
5.59521e-06
0.00151768
-4.4292e-06
-2.61765e-06
0.0015165
5.93899e-08
-5.58588e-06
0.00150955
7.22182e-06
5.57457e-09
0.00150712
2.10756e-06
1.87575e-06
0.00152569
-5.1434e-06
1.04041e-07
0.00153244
8.08846e-06
3.55605e-06
0.00152511
1.48198e-05
5.20233e-06
0.00151904
3.14153e-07
5.17713e-06
4.94977e-06
4.33243e-06
0.00152482
1.46089e-05
-6.50458e-06
0.0015283
1.78406e-05
-1.58095e-05
0.00151884
1.08113e-06
5.95863e-06
0.00152087
-5.47539e-06
7.95316e-06
0.0015224
-8.15729e-06
1.99345e-06
0.00151151
-5.90287e-06
1.31415e-06
0.00151
-6.01397e-06
-2.18345e-06
0.00150841
-1.98376e-06
-1.47656e-07
0.00151565
2.64397e-06
-2.2865e-06
0.00152648
7.78999e-07
-7.35875e-06
0.00152838
-2.65996e-06
-3.74585e-06
0.00152035
-3.62445e-06
3.39566e-06
0.00151622
-8.90664e-07
3.39339e-06
0.00151572
2.00001e-06
-4.06849e-07
0.00151438
-1.89897e-07
1.97543e-06
0.00152397
-6.05044e-06
-1.63606e-06
0.00152223
6.75708e-06
-2.86984e-06
0.00150829
5.49557e-06
5.23222e-06
0.00150992
-1.20331e-06
3.62366e-06
0.00152688
-1.72366e-05
-6.57998e-06
0.00153622
-9.65241e-06
-8.29094e-06
0.00154175
-6.46933e-06
-5.65969e-06
0.00152804
1.36108e-06
9.69221e-06
0.0015151
3.36819e-06
5.1424e-06
0.00151982
-1.21816e-06
-3.44125e-06
0.00152477
7.35383e-06
-5.08007e-06
0.0015225
3.6712e-06
7.03639e-07
0.00151795
-1.40027e-06
8.11295e-07
0.00151787
8.30854e-06
-1.39455e-07
0.00151695
1.41956e-05
1.54309e-06
0.00150917
3.94901e-07
7.70087e-06
-7.70432e-06
5.3496e-06
0.00153495
6.08112e-06
-3.97401e-06
0.00153933
1.14311e-05
2.03577e-06
0.00152702
-5.80206e-06
1.91933e-05
0.00152853
-1.27099e-05
5.72051e-06
0.00152994
-3.15487e-06
-6.41048e-06
0.00152355
1.97846e-06
-1.49445e-06
0.00151861
-7.13667e-07
-3.62733e-07
0.00151622
-4.19923e-07
8.30071e-07
0.00152004
1.25274e-06
-2.43011e-06
0.0015274
2.3261e-07
-6.81186e-06
0.00152846
-1.18789e-06
-2.53798e-06
0.00152085
-8.37586e-07
4.83093e-06
0.00151893
-3.72902e-07
1.39748e-06
0.00152243
2.32676e-06
-3.82748e-06
0.00152373
3.20835e-07
-1.80581e-06
0.00151957
-4.32493e-06
2.43395e-06
0.00151738
4.58795e-06
4.35314e-06
0.00151465
4.30423e-06
3.92183e-06
0.00151638
-4.56452e-06
1.63431e-06
0.00150792
-1.04143e-05
1.64305e-06
0.00150923
-4.12192e-06
-6.84608e-06
0.00151466
-5.6768e-06
-6.21946e-06
0.00150099
6.09496e-06
8.93073e-06
0.00149448
8.98577e-06
8.91885e-07
0.0014977
2.75537e-06
-7.19376e-06
0.00150504
4.37638e-06
-4.35403e-06
0.00150568
2.47524e-06
5.52751e-07
0.00151412
-1.09412e-05
1.09454e-06
0.00153338
-1.00843e-05
-8.60758e-07
0.00153347
1.58374e-05
-1.73061e-06
0.00152224
1.5011e-05
-3.39153e-06
-4.09502e-06
-3.81687e-06
0.00152995
-6.07836e-06
0.00154047
9.03064e-07
0.00150555
2.91228e-05
0.00148814
4.70064e-06
0.0014994
-1.44128e-05
0.00150692
-5.54165e-06
0.00150488
1.32609e-06
0.00149739
7.06672e-06
0.00150007
-1.42774e-06
0.00150684
-6.53856e-06
0.00150742
-1.76441e-06
0.00150131
5.26985e-06
0.00149914
1.79768e-06
0.00150418
-2.71448e-06
0.00150577
-1.26494e-06
0.00149907
2.37396e-06
0.00150323
4.25725e-07
0.00150701
5.28768e-07
0.00150033
2.11187e-06
0.00148338
6.53297e-06
0.00148189
-2.62776e-06
0.0014801
-3.884e-06
0.0014827
3.48762e-06
0.00149007
1.62218e-06
0.00149539
-2.56409e-06
0.00150255
-2.78604e-06
0.00150354
1.48144e-06
0.00149098
1.62278e-06
0.00148239
-1.49316e-06
0.0014957
2.52281e-06
0.00151579
-5.07904e-06
-6.08981e-06
0.00148767
8.30647e-06
0.00149875
-7.90531e-06
0.00150026
-4.19307e-06
0.00150745
-1.40571e-07
0.00150347
3.04658e-06
0.001497
2.80395e-06
0.00149135
-5.01402e-06
0.00148901
-3.05501e-06
0.00149296
-2.24201e-06
0.00150152
-1.99744e-06
0.00151337
-1.41187e-06
0.00151205
-2.76321e-06
0.00150738
-7.49004e-07
0.00150909
-5.61404e-07
0.00151103
6.70625e-06
0.00151286
6.57125e-06
0.00151143
-7.08827e-07
0.00151625
-2.11521e-06
0.00152311
-1.75445e-06
0.00152209
2.84086e-07
0.00151455
5.25147e-06
0.00152334
-2.47138e-06
0.00153331
-4.89158e-06
0.00153476
-8.19344e-06
0.00150617
8.39305e-06
0.00150115
1.23308e-05
0.0015129
1.43973e-06
0.00152286
-2.37267e-06
0.00152549
-1.50785e-06
0.0015132
-4.90945e-07
0.00150958
-5.55617e-06
4.57312e-06
0.00153806
7.70066e-06
0.00152215
-1.28142e-06
0.0015266
-3.4162e-06
0.00152388
2.92824e-06
0.00151571
7.75273e-06
0.0015124
4.84624e-06
0.00151708
-8.24868e-06
0.00151748
-8.91117e-06
0.00151744
-2.83869e-06
0.00152392
-4.37682e-06
0.00153767
-6.13668e-06
0.00153324
-2.9636e-06
0.00152207
5.83601e-06
0.00152106
1.78055e-06
0.00153443
1.71669e-06
0.00155188
4.83446e-07
0.00154963
1.49326e-07
0.00153878
7.07267e-06
0.0015401
2.06979e-06
0.00154277
3.3902e-08
0.00152889
8.95867e-06
0.00153265
-4.68661e-06
0.00155903
-1.96285e-05
0.00155641
-6.24982e-06
0.00153206
1.33654e-05
0.00154727
1.74651e-06
0.00156429
-4.30957e-06
0.00156187
6.09791e-06
0.0015517
8.54894e-06
0.00153677
2.38406e-06
0.00153292
-9.10878e-06
9.89697e-07
0.00154093
3.34775e-06
0.0015353
8.05383e-06
0.00151614
1.21178e-05
0.00149658
1.32796e-05
0.00149837
3.39245e-06
0.00151624
-1.27858e-05
0.00152505
-1.84019e-05
0.00152272
-1.21867e-05
0.00152569
-6.87392e-06
0.00152279
-7.94545e-07
0.00150724
7.8324e-06
0.00150093
2.36197e-06
0.00151041
-2.59491e-07
0.00150912
1.52615e-06
0.00151338
-3.99243e-07
0.00152678
-5.50463e-06
0.0015369
-7.27967e-06
0.00155265
-2.21542e-06
0.00155733
6.23205e-06
0.00154112
7.08331e-06
0.00154995
-1.74817e-06
0.0015643
-1.09381e-05
0.00156314
-1.43938e-05
0.0015732
-9.24997e-06
0.00158769
-3.90885e-07
0.00158877
-2.16618e-06
0.00158545
-1.81346e-06
0.00156748
2.3156e-05
0.00155043
2.04986e-05
0.00154068
6.09521e-06
0.00153568
-8.63908e-06
-3.04583e-06
0.00152348
5.80758e-06
0.00151901
7.4442e-06
0.00151722
1.1335e-05
0.00152483
9.55045e-06
0.00152858
2.35946e-07
0.00153147
-1.93881e-05
0.00151992
-1.68044e-05
0.00151064
-9.03415e-06
0.00149032
8.92e-06
0.00148382
4.08793e-06
0.00149798
-4.5457e-06
0.00151021
-3.34925e-06
0.00151901
-1.33614e-06
0.00152064
-6.76981e-07
0.00152253
-1.66361e-06
0.00152676
-5.17264e-06
0.00152504
-4.95699e-06
0.001518
1.4666e-06
0.00152227
3.23206e-06
0.00154348
-1.5489e-06
0.00156231
-1.32877e-05
0.00155882
-7.09756e-06
0.00154584
-1.24332e-06
0.00154928
-8.90435e-06
0.00154741
-8.74534e-07
0.00153511
3.64211e-06
0.00153042
2.54529e-06
0.00155022
8.71863e-06
0.00155302
1.67875e-05
0.00154155
1.2579e-05
0.00153088
3.22262e-07
7.62936e-07
0.00151653
1.50208e-05
0.00152623
7.44938e-06
0.00153292
7.19146e-06
0.00152416
1.11524e-05
0.00153532
-1.20295e-05
0.00154527
-3.08401e-05
0.00153206
-1.40732e-05
0.00152484
-6.45548e-06
0.00153235
3.9412e-06
0.00153091
3.18368e-06
0.0015219
-2.17291e-06
0.00152228
-3.81055e-06
0.00152983
-1.78396e-06
0.00153413
-4.31903e-07
0.0015408
-2.30159e-06
0.0015392
-3.96585e-06
0.00153071
-5.61653e-07
0.00152699
1.03896e-05
0.00153843
4.13442e-06
0.00155242
-1.35811e-05
0.00155139
-1.4731e-05
0.00155178
-5.97915e-06
0.00154872
6.34888e-06
0.00153359
2.2996e-06
0.0015304
-2.49193e-06
0.00152843
3.09827e-06
0.00152644
3.22877e-06
0.00154001
-5.02986e-06
0.00154926
5.94049e-06
0.00154315
1.46835e-05
0.00153184
5.17616e-06
1.04399e-05
0.00158384
2.01032e-05
0.00154753
2.67062e-05
0.00153074
1.82444e-05
0.00154793
-9.06803e-07
0.00156675
-2.15641e-05
0.00155704
-1.79485e-05
0.00153899
-9.68425e-06
0.00152771
-4.14154e-06
0.00152835
2.9844e-06
0.00152764
2.63273e-06
0.00152597
-3.08362e-06
0.0015304
-2.61565e-06
0.00153398
-6.96167e-07
0.00154044
-1.92541e-06
0.00155504
-4.82665e-06
0.00154884
5.55617e-07
0.00153299
1.02052e-05
0.0015508
2.07744e-06
0.00156274
-1.30989e-06
0.00154264
-6.43777e-06
0.00152544
-6.06893e-06
0.00152684
-6.17281e-06
0.0015419
2.17451e-06
0.00154711
-1.05525e-06
0.00154866
-6.36853e-06
0.00153741
9.27152e-06
0.0015348
5.16222e-06
0.00153204
-1.95547e-06
0.00153176
6.46198e-06
0.00154404
8.94903e-06
0.00156896
-7.28679e-06
-6.99796e-06
0.00157785
-1.00623e-06
0.00158519
1.73135e-05
0.00158973
1.72686e-05
0.00159168
3.91496e-06
0.00157566
-1.2385e-05
0.00155736
-1.31969e-05
0.00154264
-6.70017e-06
0.00152923
2.5711e-06
0.00152861
3.30166e-06
0.00152602
1.86066e-06
0.00152472
-2.80154e-06
0.00152882
-1.93834e-06
0.00152735
1.75588e-06
0.0015225
8.6218e-07
0.00152285
-1.21603e-06
0.00152854
-1.24441e-06
0.00154204
2.63168e-06
0.00154921
1.88057e-06
0.00155306
-2.33075e-06
0.001544
-2.79426e-06
0.00153177
-2.57518e-06
0.00152581
-2.60005e-06
0.00153897
2.90311e-07
0.00153196
5.77333e-06
0.00151446
3.07386e-06
0.00151205
6.18596e-06
0.00151411
-2.55435e-07
0.00152768
-1.29247e-05
0.00155192
-1.16649e-05
0.00155052
1.402e-05
0.00153971
5.83382e-06
-1.52354e-05
0.00151111
0.00153863
0.00158743
0.0015921
0.00154465
0.0015039
0.00148946
0.00149702
0.00150281
0.00150208
0.00149985
0.00150258
0.00150629
0.00150377
0.00150404
0.00150831
0.00151557
0.00152193
0.00153181
0.00152918
0.00151684
0.0015052
0.00151267
0.00152137
0.00152186
0.00152569
0.00152088
0.00150781
0.00149934
0.00151974
0.00153023
)
;

boundaryField
{
    wall
    {
        type            calculated;
        value           uniform 0;
    }
    outlet
    {
        type            cyclic;
        value           nonuniform List<scalar> 
16
(
0.00149374
0.00150284
0.00152632
0.0015139
0.00150693
0.00151647
0.00152245
0.00151779
0.0014987
0.00153707
0.00153884
0.00152653
0.00152254
0.00159206
0.00155517
0.00151728
)
;
    }
    inlet
    {
        type            cyclic;
        value           nonuniform List<scalar> 
16
(
-0.00149374
-0.00150284
-0.00152632
-0.0015139
-0.00150693
-0.00151647
-0.00152245
-0.00151779
-0.0014987
-0.00153707
-0.00153884
-0.00152653
-0.00152254
-0.00159206
-0.00155517
-0.00151728
)
;
    }
    procBoundary0to1
    {
        type            processor;
        value           nonuniform List<scalar> 
256
(
1.08284e-05
-5.03645e-07
-9.634e-06
-7.9184e-06
1.2327e-05
1.28753e-05
1.40277e-07
2.06335e-06
1.9995e-06
-9.19417e-06
-2.02791e-05
2.78745e-07
1.10297e-05
1.93984e-06
-1.28948e-05
-1.04771e-05
-1.86492e-07
-1.45044e-07
2.53994e-06
9.18071e-07
-2.83767e-06
-1.24763e-05
-8.88804e-06
-6.39373e-06
-3.99162e-06
3.99914e-07
3.45296e-06
-5.41663e-06
-7.0858e-07
1.67641e-05
1.83195e-05
1.06725e-05
1.18942e-05
8.68534e-06
-1.28761e-05
-7.82967e-06
8.09103e-06
7.45494e-06
7.36412e-08
2.64303e-06
2.10017e-06
-5.32616e-06
-1.63334e-05
-2.474e-07
9.09525e-06
-1.11128e-06
-1.09049e-05
-1.11992e-05
-3.12074e-06
-6.65516e-07
1.2776e-06
3.50663e-06
3.45071e-06
-9.31149e-06
-1.16469e-05
-8.42564e-06
-2.96608e-06
-5.25352e-07
1.03919e-06
-1.33995e-06
4.00575e-06
1.82693e-05
1.52266e-05
6.64596e-06
4.31732e-06
4.41906e-06
3.13325e-07
4.28992e-06
1.11883e-05
8.33864e-06
5.50481e-07
-1.04965e-06
2.95265e-06
9.76525e-07
-9.16562e-06
-9.59876e-06
1.04706e-06
1.93229e-06
-5.98771e-06
-5.75484e-06
-4.33878e-06
-5.43928e-06
-6.73694e-06
-2.67488e-07
-5.90891e-06
-1.30391e-05
-6.24319e-07
-1.12331e-05
-1.56473e-05
3.51054e-06
7.70666e-06
8.5168e-06
1.16938e-05
1.11134e-05
1.00713e-05
2.544e-06
5.14985e-06
6.37848e-07
2.55358e-06
5.85263e-06
4.12233e-06
4.95125e-06
5.88537e-06
2.97785e-06
6.42568e-06
1.10004e-06
-6.07585e-06
-5.09267e-06
-6.56764e-06
-5.30162e-06
-2.63934e-06
-5.27337e-07
-6.60295e-07
2.57179e-06
-1.02662e-06
-1.25549e-05
-1.0703e-05
-4.27515e-06
2.15984e-06
-8.62366e-06
-5.2844e-06
8.72867e-06
3.33379e-06
8.58696e-07
7.7527e-06
9.58469e-06
3.53468e-06
2.52639e-06
-1.99491e-06
-1.06381e-05
8.08873e-07
1.40911e-05
6.29177e-06
1.84686e-06
7.29976e-06
5.76181e-06
-4.37228e-06
-8.8398e-06
-5.46112e-08
1.07454e-06
-5.28041e-06
-7.23083e-06
-5.53534e-06
2.43341e-06
6.92972e-06
-5.74925e-06
-1.37858e-05
-2.00441e-06
-4.16827e-06
-5.95315e-06
1.05614e-06
1.30893e-06
-7.74164e-07
2.51649e-06
3.18699e-06
2.77182e-07
5.15964e-06
9.20089e-06
1.16389e-05
3.95295e-06
-3.36121e-06
1.23902e-06
1.17032e-05
2.82077e-06
-7.29073e-06
-1.87409e-06
1.148e-05
8.82162e-06
-1.97127e-06
-6.09775e-06
-1.16448e-06
-2.23628e-06
-1.27457e-06
-5.36596e-06
-1.01041e-05
4.32059e-08
2.21909e-06
-4.26515e-06
-2.87608e-06
6.37462e-06
2.5313e-07
-6.86891e-06
-1.19487e-06
3.28352e-06
-1.11345e-06
-6.00165e-09
1.38863e-06
4.88656e-07
-3.72877e-07
-5.00921e-06
-4.74858e-06
-3.21007e-07
-5.54634e-06
4.08918e-06
1.56327e-05
-1.0524e-06
4.30105e-07
1.20562e-05
1.13725e-05
7.52385e-06
-2.12597e-06
-3.45077e-06
-1.51715e-06
5.50049e-08
4.10701e-07
-1.76229e-06
-5.76847e-06
-1.46021e-06
-1.56879e-06
-3.05371e-06
-1.19187e-06
7.05638e-06
1.88824e-06
-3.82804e-06
-2.34615e-06
1.07826e-06
8.59886e-07
1.13626e-06
3.91312e-06
-1.5015e-06
-6.97867e-06
-5.39749e-06
-5.70334e-06
-1.10394e-05
-9.19077e-07
-9.30396e-06
-2.41171e-06
3.95001e-06
2.06562e-05
2.20042e-05
9.06618e-06
2.08225e-06
-3.91413e-06
-3.9514e-06
-2.33312e-06
5.97588e-07
-1.5343e-07
6.6692e-07
-2.74782e-06
-3.13976e-06
-4.20889e-06
-3.94483e-06
-1.01058e-05
6.3672e-06
7.14579e-06
5.15402e-06
-3.69778e-06
-1.30341e-06
2.29645e-08
-4.29054e-07
6.03658e-06
1.76238e-06
-4.68547e-06
-3.85661e-06
-9.73289e-06
-8.37424e-06
)
;
    }
}


// ************************************************************************* //
