/*--------------------------------*- C++ -*----------------------------------*\
| =========                 |                                                 |
| \\      /  F ield         | OpenFOAM: The Open Source CFD Toolbox           |
|  \\    /   O peration     | Version:  2506                                  |
|   \\  /    A nd           | Website:  www.openfoam.com                      |
|    \\/     M anipulation  |                                                 |
\*---------------------------------------------------------------------------*/
FoamFile
{
    version     2.0;
    format      ascii;
    arch        "LSB;label=32;scalar=64";
    class       volVectorField;
    location    "0.006";
    object      U_0;
}
// * * * * * * * * * * * * * * * * * * * * * * * * * * * * * * * * * * * * * //

dimensions      [0 1 -1 0 0 0 0];

internalField   nonuniform List<vector> 
512
(
(10.3332 0.00586372 0.0350157)
(10.0571 -0.0529147 -0.0378505)
(9.87834 -0.0692425 -0.0779458)
(9.73712 0.0622601 0.0481957)
(9.86839 0.0903159 0.0987168)
(9.90955 0.0169289 0.0467364)
(9.74474 -0.0792753 -0.0778273)
(9.5882 -0.00365838 0.0506243)
(9.78542 0.0210312 0.106413)
(10.0467 -0.00883153 -0.0478547)
(9.96121 -0.0100655 -0.123411)
(9.7959 0.00296126 0.0144286)
(9.87637 0.00653925 0.0698167)
(10.0229 0.0113321 -0.0240039)
(9.95589 0.00632582 -0.0599841)
(9.84024 0.0299733 0.00574888)
(9.86815 0.0318164 -0.00421457)
(9.82413 0.035956 0.0395605)
(9.92404 0.00792353 0.0490322)
(10.0686 -0.0247958 0.00797938)
(10.0107 -0.027144 -0.104597)
(9.95005 -0.0200055 -0.125547)
(9.93817 -0.0346432 0.00814325)
(9.96736 -0.0218385 -0.0438153)
(9.73069 0.00562334 -0.145156)
(9.54902 0.0393227 0.0626544)
(9.70786 0.032014 0.0811848)
(9.82634 -0.00829244 0.0336673)
(9.71319 -0.0156076 0.0321347)
(9.75852 -0.0144861 0.0439145)
(9.9214 0.00377809 0.0724184)
(10.37 0.00604792 0.0354124)
(10.3419 0.0591072 0.0461671)
(10.1984 -0.0798899 -0.058696)
(9.82685 -0.0900559 -0.0727825)
(9.81975 0.0187476 -0.0199817)
(10.0334 0.151773 0.058522)
(10.0101 0.0779369 0.0486207)
(9.71853 -0.134465 0.0141416)
(9.78598 -0.0629276 0.0327864)
(9.93026 -0.00200642 0.10492)
(10.0344 -0.0706664 -0.0482169)
(9.92463 -0.0594091 -0.10689)
(9.90053 -0.00230592 -0.0082678)
(9.99586 0.0164899 0.0572505)
(10.1302 0.0424813 -0.0323505)
(10.0684 0.043885 -0.0621598)
(9.95477 0.00886683 0.0122856)
(9.97512 -0.00560898 0.000778408)
(9.89186 0.0685347 0.00468315)
(9.87845 0.0606615 0.0134563)
(10.122 0.0423082 0.0188033)
(10.1588 -0.0102593 -0.090341)
(10.0971 -0.0476365 -0.109067)
(10.0619 -0.104016 0.00839233)
(10.0732 -0.0618158 -0.0345257)
(9.86996 0.00330486 -0.131959)
(9.77313 0.0472671 0.060704)
(9.87101 0.0399063 0.0696106)
(9.79454 0.0445871 0.0425096)
(9.69565 0.0258443 0.0432037)
(9.82867 -0.00160994 0.0415708)
(10.0942 0.00309259 0.0488256)
(10.4707 0.0738817 0.0659312)
(10.3783 0.113784 0.024816)
(10.1541 0.0263632 0.0221199)
(9.88386 -0.0317171 -0.0268907)
(9.91267 -0.0226795 -0.0404988)
(10.0311 -0.000602429 0.0385498)
(9.90351 -0.033085 0.049968)
(9.73845 -0.0983539 0.0187984)
(9.82912 -0.0718342 0.0118113)
(9.91312 0.000170525 0.0829586)
(10.0249 -0.0716597 -0.0233067)
(9.98723 -0.0712542 -0.0698276)
(9.97335 -0.0813188 -0.0403157)
(10.047 0.0316057 0.0318807)
(10.0621 0.0653533 -0.0403957)
(10.0051 0.056399 -0.0814382)
(9.94939 -0.0657935 0.0151681)
(9.99928 -0.108193 0.00750023)
(9.92656 0.0128871 0.0286246)
(10.0128 0.112769 0.0302867)
(10.1616 0.0812612 -0.0367224)
(10.1154 0.0163343 -0.0843191)
(9.88993 -0.0475177 -0.0442776)
(9.94494 -0.106497 0.00715385)
(10.1209 -0.0880741 -0.0435919)
(10.0277 -0.0773405 -0.0561749)
(9.80978 -0.0275521 0.0126687)
(9.87309 0.0244628 0.0230829)
(9.78909 0.172123 0.0333502)
(9.70535 0.135898 0.035513)
(9.83732 0.0505385 0.0287945)
(10.1264 0.0347639 0.0443213)
(10.4218 0.100339 0.0316805)
(10.2783 0.0710403 0.00728655)
(10.1606 0.119228 -0.0572364)
(9.88172 0.074112 -0.0295799)
(9.94905 0.070048 0.0568562)
(10.0238 -0.0227575 0.0892856)
(9.88071 -0.0927866 0.068037)
(9.75723 -0.117884 0.0210168)
(9.82 -0.158027 0.0356162)
(9.94629 0.00511921 0.036619)
(10.0609 0.0205958 -0.0331473)
(9.97628 -0.0493392 -0.0216818)
(9.97487 -0.093204 0.0596258)
(10.1382 0.0557913 -0.014498)
(10.1309 0.0511927 -0.0582151)
(9.76819 -0.0291361 -0.0779753)
(9.79368 -0.0802702 0.0452411)
(10.0074 -0.130382 0.0872012)
(10.1836 0.0569856 -0.0060301)
(10.098 0.126527 -0.0415968)
(10.0236 0.0125608 -0.0192897)
(10.004 -0.0795361 -0.0252965)
(9.85813 -0.0766031 -0.0295834)
(9.95034 -0.0806605 -0.00411678)
(10.1616 -0.107091 -0.0252931)
(9.9129 -0.0932983 -0.0214726)
(9.82356 -0.046424 0.00171781)
(9.98048 -0.0123411 0.000498566)
(10.0277 0.195504 0.0223776)
(9.77232 0.2272 0.036551)
(9.83233 0.0954257 0.0265975)
(10.0139 0.0813225 0.0369768)
(10.3471 0.0931246 0.0274675)
(10.1982 0.176922 0.00241598)
(9.98595 0.137731 -0.0202315)
(9.96676 0.10088 -0.0154149)
(10.1192 0.105398 -0.020669)
(10.1357 0.0515956 -0.00613073)
(9.61035 -0.247587 0.00925913)
(9.66897 -0.178032 0.0340643)
(9.9245 -0.129443 0.0913985)
(10.1187 0.0623503 -0.0150179)
(10.0903 0.0702372 -0.0872706)
(9.90417 -0.0512874 -0.00448778)
(9.99422 -0.0735376 0.084015)
(10.2152 -0.0075079 -0.0274788)
(10.1785 -0.00812389 -0.071236)
(9.79354 -0.0666211 -0.0292763)
(9.84566 0.007668 0.0487781)
(10.045 0.0547345 0.0735327)
(10.1863 0.024836 -0.0287332)
(10.0897 0.04747 -0.0675124)
(9.93603 -0.0919876 -0.024959)
(9.97728 -0.100752 -0.0587413)
(9.82941 -0.089181 -0.0463589)
(9.92836 -0.0579309 0.0150637)
(10.1196 -0.081816 -0.0331157)
(9.91733 -0.0415115 -0.0107141)
(9.92689 0.0301108 0.0255683)
(10.0883 0.0180052 0.0240847)
(10.1595 0.000729867 0.0146196)
(9.82876 0.227847 0.0310139)
(9.81762 0.176789 0.0317422)
(9.88224 0.0374287 0.0272982)
(10.2375 0.118658 0.0304357)
(10.3301 0.191113 -0.0310147)
(10.0309 0.0185211 -0.103428)
(9.8256 -0.0127136 0.0147301)
(9.89632 -0.0126638 0.0251193)
(9.83606 -0.196498 0.0442031)
(9.55587 -0.231796 0.0232323)
(9.69192 -0.122424 0.0254419)
(10.0533 -0.0397979 0.0609476)
(10.1763 0.00125327 -0.0299536)
(10.1337 -0.00567687 -0.104447)
(9.88388 -0.0390021 0.0168248)
(9.99174 -0.0367223 0.0936033)
(10.2083 -0.00493715 -0.0141428)
(10.1394 -0.0125303 -0.0700451)
(9.91568 -0.0256262 0.0267033)
(9.93937 -0.0182072 0.0210987)
(10.0073 0.0634001 0.00253011)
(10.0357 0.0389043 0.00609418)
(9.96397 0.0362846 0.00430601)
(9.93966 -0.137327 -0.0563727)
(9.99848 -0.106591 -0.0848921)
(9.90928 -0.144774 -0.116343)
(9.94012 -0.0390825 -0.0216365)
(10.0668 -0.00842441 0.044289)
(10.0311 0.011809 0.0473482)
(9.87989 0.0377841 0.0225818)
(10.0221 -0.0453707 0.0492717)
(10.1502 -0.0179803 0.0223924)
(10.1218 0.09488 -0.00411357)
(9.77072 0.243027 0.0137817)
(9.83702 0.110663 0.0733814)
(10.3276 0.174624 0.0307871)
(10.139 0.13444 -0.0122948)
(9.89503 0.132696 0.013776)
(9.70991 -0.0160628 0.0792921)
(9.84174 -0.142091 0.0294195)
(9.86308 -0.128656 0.00317629)
(9.66932 -0.0392149 -0.0119869)
(9.76966 -0.0260999 0.00584261)
(10.0768 -0.00719739 0.0404681)
(10.2053 0.0200892 -0.0189699)
(10.145 0.017602 -0.0951102)
(9.87956 0.0017739 0.0159415)
(9.98668 0.000140971 0.0825694)
(10.1933 -0.00177755 -0.00819314)
(10.1676 0.0155565 -0.068167)
(9.86151 -0.039144 0.0171508)
(9.89792 -0.0918368 0.0568565)
(10.136 0.0737594 0.012721)
(10.1114 0.0835468 -0.00718225)
(9.79705 -0.0172664 -0.0263516)
(9.84956 -0.10368 -0.010447)
(9.95936 -0.0861511 -0.0693403)
(10.001 -0.151861 -0.0954699)
(10.0918 0.016887 0.00513843)
(10.1378 0.0213857 0.00872075)
(9.9042 0.00144787 -0.00494803)
(9.87397 0.0298848 0.0034608)
(10.0582 -0.0264536 0.0300658)
(10.2691 -0.0477156 0.0138999)
(10.2978 0.0469519 9.40307e-05)
(9.85518 0.214801 -0.00517792)
(9.83269 0.102077 -0.00255339)
(9.97206 0.0249125 0.000731079)
(10.1232 0.0527214 -0.0661217)
(9.87711 0.0664439 -0.0156673)
(9.48609 -0.00645033 0.130707)
(9.64509 -0.0494485 0.0892289)
(9.8496 0.00292844 -0.0293609)
(9.65161 0.0219781 -0.0420354)
(9.67206 0.00189978 -0.00154775)
(9.92708 -0.00205773 0.0269843)
(10.1561 0.0173231 -0.00994483)
(10.0623 0.0189372 -0.0669591)
(9.76423 0.00894305 0.013708)
(9.87318 0.00669007 0.0768988)
(10.0769 -0.00139796 0.00569222)
(10.0529 0.00462064 -0.0623379)
(9.76563 -0.0113432 0.0318713)
(9.8468 -0.0223053 0.080814)
(10.0824 0.0390803 -0.0132808)
(10.0661 0.038615 -0.0447072)
(9.54516 -0.0258158 -0.0323461)
(9.66867 -0.0447886 0.0198635)
(9.85576 -0.03395 -0.0412905)
(10.0168 -0.0596028 -0.0454014)
(10.0803 0.0114727 -0.0016073)
(10.0993 0.0145978 -0.0148763)
(9.66066 -0.00561128 -0.019618)
(9.67847 0.00304422 0.00324403)
(10.0969 0.0270014 0.0152175)
(10.0726 -0.0578669 0.00170505)
(10.0296 -0.093391 -0.0163112)
(9.84098 -0.00363789 0.0338637)
(9.83008 0.047337 -0.0046787)
(10.0551 0.0235039 -0.0251643)
(10.3046 0.0152439 0.0688062)
(10.1737 -0.0812798 -0.0288689)
(9.8041 -0.0546352 -0.125268)
(9.7912 0.003702 -0.027029)
(10.0631 0.0458864 0.181535)
(10.0547 0.030835 0.111924)
(9.70909 -0.013932 -0.0370158)
(9.74427 -0.00194658 0.016597)
(9.90823 -0.00582679 0.0906677)
(9.92787 -0.0123474 0.0275072)
(9.94377 -0.0114817 -0.14643)
(9.92371 -0.0088297 -0.114845)
(10.0042 -0.00211882 0.053016)
(10.039 -0.0066432 0.0258139)
(10.0045 0.0214613 -0.0965913)
(9.95921 0.0378781 -0.0533419)
(9.93808 0.0220786 -0.0405239)
(9.9618 -0.0106526 -0.0299948)
(10.0092 -0.0109824 0.014824)
(9.92435 -0.0116319 -0.0103025)
(10.0096 -0.0199917 -0.0583432)
(10.2433 -0.0346712 0.00116087)
(10.2342 -0.0244707 0.0229588)
(9.76075 -0.00791976 -0.0851151)
(9.72632 0.0359994 -0.1299)
(9.8813 0.0513883 -0.0194612)
(9.9405 0.0208538 0.0429531)
(9.8803 -0.00828317 0.013003)
(9.76828 -0.00998305 0.0595946)
(9.81243 -0.0159555 0.117107)
(10.0168 -0.0173126 0.162363)
(10.4437 0.0322537 0.130087)
(10.4394 0.0750324 0.161495)
(10.2354 -0.0735793 -0.0376771)
(9.98405 -0.0718527 -0.1449)
(10.023 -0.022445 -0.0939801)
(10.1597 0.039831 0.080639)
(10.0762 0.0230458 0.082227)
(9.80211 -0.0606062 0.0447669)
(9.84332 -0.0402379 0.061446)
(9.9823 -0.0249764 0.0972347)
(9.99684 -0.0282966 0.0321479)
(10.0782 -0.0390136 -0.144938)
(10.0641 -0.0514922 -0.110189)
(10.1205 0.00511499 0.0311046)
(10.1453 0.0024458 -0.0193435)
(10.1383 0.032776 -0.0845094)
(10.1234 0.0329474 -0.0422663)
(9.92023 0.0252717 -0.0586082)
(9.91023 0.0473891 -0.0323371)
(10.076 0.00492556 0.0253758)
(10.0549 0.017385 -0.0129594)
(10.1392 0.0826589 -0.081545)
(10.3276 -0.085193 -0.0252001)
(10.3192 -0.141744 0.0214263)
(9.94927 -0.0620154 -0.0485721)
(9.85962 0.108233 -0.124591)
(10.0175 0.0543749 -0.0346116)
(10.0461 0.0068563 0.0429065)
(9.87607 0.0208706 0.0529128)
(9.81749 0.0258333 0.0809664)
(9.9176 -0.0146561 0.119282)
(10.1896 -0.0354885 0.127479)
(10.4971 0.0672839 0.149643)
(10.4062 0.0563774 0.0792642)
(10.1645 0.0378841 0.0528894)
(9.98185 0.0261019 -0.0738113)
(10.0837 0.0605547 -0.0544318)
(10.1753 0.038086 0.0603154)
(10.0773 -0.0252058 0.0607874)
(9.84066 -0.11449 0.0398203)
(9.87895 -0.0805595 0.0532626)
(9.99222 -0.0564859 0.107138)
(9.98296 -0.0820354 0.0713865)
(10.0787 -0.0229034 -0.107243)
(10.1331 0.00475924 -0.105734)
(10.1738 0.0347824 -0.015067)
(10.1217 0.017864 -0.0827957)
(10.082 0.0152089 -0.0865983)
(9.98752 -0.026659 -0.0137863)
(10.0039 -0.0332865 -0.046219)
(10.088 0.0239878 -0.0416755)
(9.99488 0.066134 -0.0392987)
(10.0156 0.0700367 -0.0564494)
(10.1343 0.0768821 -0.118829)
(10.1895 -0.0160874 -0.0839649)
(10.1492 -0.168294 0.0516345)
(10.1892 -0.112503 -0.036033)
(10.0296 0.0222819 -0.136488)
(9.95637 -0.0587062 0.0308651)
(9.99619 -0.0320765 0.0579065)
(9.89473 0.164721 0.0942193)
(9.82594 0.133899 0.100008)
(9.94814 0.0337266 0.0798311)
(10.1994 0.0226026 0.101112)
(10.4823 0.0630822 0.0930701)
(10.3273 0.0825158 0.057606)
(10.0655 0.039843 -0.0594753)
(10.0766 0.0658519 -0.0552408)
(10.2676 0.0466396 0.037957)
(10.2795 -0.0184146 0.0352546)
(9.81101 -0.161073 0.0363985)
(9.75961 -0.102652 0.0689562)
(9.88082 -0.0736916 0.0722959)
(9.98165 -0.0274985 0.102123)
(10.0657 -0.0371114 0.0352642)
(10.1622 -0.00728889 -0.0466002)
(10.1318 0.00481174 -0.0314214)
(10.0877 0.00321986 -0.00184431)
(10.0494 -0.00239082 -0.11726)
(10.0601 -0.00413901 -0.0701728)
(9.94594 -0.031384 -0.00503518)
(10.0219 -0.0404789 -0.0018919)
(10.1081 -0.039154 0.0502788)
(10.1165 0.0320182 -0.0353737)
(10.1173 0.0365368 -0.0694389)
(10.1195 -0.0471863 -0.105383)
(9.94039 -0.0849834 -0.0438125)
(10.031 -0.0797806 0.0139312)
(10.2438 -0.108557 -0.0826499)
(9.96552 -0.051408 -0.0632445)
(9.98178 -0.0257066 0.0508259)
(10.1411 0.0176909 0.0277617)
(10.1694 0.160704 0.0592738)
(9.87788 0.210328 0.099272)
(9.92378 0.0839718 0.0710259)
(10.073 0.0592887 0.0523876)
(10.359 0.0926953 0.0751739)
(10.2725 0.154922 -0.0112965)
(10.0497 0.121138 -0.0586585)
(10.066 0.162717 0.0322449)
(10.2231 0.0317028 0.0759535)
(10.2063 -0.0694704 0.0533487)
(9.77055 -0.302464 0.0219432)
(9.71431 -0.162506 0.0456848)
(9.90867 -0.0734988 0.0671207)
(10.1023 -0.00605921 0.0321158)
(10.0903 0.00892167 -0.0779187)
(10.1046 -0.0214944 -0.0760169)
(10.1699 -0.027988 0.030116)
(10.1714 -0.0244334 0.0339376)
(10.109 -0.00834115 -0.107302)
(10.1129 -0.0134719 -0.0624425)
(9.9288 -0.0163487 -0.00370005)
(10.0353 -0.00709725 0.0500607)
(10.1554 0.0444804 0.0329746)
(10.1084 0.0203275 -0.0808693)
(10.1113 -0.0639802 -0.0406053)
(9.92637 -0.145473 -0.0863264)
(9.93979 -0.129608 -0.0849208)
(10.1341 -0.0655058 -0.000122729)
(10.1998 -0.0240417 -0.0110676)
(10.0178 0.0321735 -0.0115949)
(10.0457 0.0719487 0.0404502)
(10.1912 0.0428786 0.0366566)
(10.2073 0.0125289 0.0250322)
(9.91708 0.210428 0.0637152)
(9.90879 0.162216 0.0635821)
(10.0218 0.0756881 0.101847)
(10.2905 0.130465 0.0795247)
(10.4412 0.245233 -0.0573405)
(9.98839 0.0862791 -0.109585)
(9.94813 0.0637937 0.019576)
(10.0314 0.0368637 0.0239854)
(9.99823 -0.201927 -0.0239696)
(9.71538 -0.279876 0.0610495)
(9.70074 -0.147923 0.0716872)
(9.98466 -0.0829042 0.07426)
(10.2054 -0.018323 0.019169)
(10.1238 -0.000771146 -0.0755325)
(10.1064 -0.0337998 -0.0755519)
(10.1835 -0.023696 0.0307333)
(10.2032 -0.00342964 0.0440949)
(10.1204 -0.00931007 -0.0650534)
(10.1245 -0.0286986 -0.0346814)
(9.92325 -0.018745 -0.0239362)
(10.0316 0.0455132 -0.0183813)
(10.2094 0.0703564 -0.00638233)
(10.1391 0.0312657 -0.06061)
(9.81314 -0.090332 -0.0195721)
(9.868 -0.131331 -0.0768067)
(10.0787 -0.126221 -0.101603)
(10.3889 0.000123087 0.0335167)
(10.3609 -0.00475655 0.0355431)
(10.0247 -0.0295078 0.00237935)
(9.89909 0.0222238 0.0049665)
(10.037 -0.02844 0.0367194)
(10.1858 -0.0385034 0.0288275)
(10.1148 0.0934099 0.00560836)
(9.95612 0.208807 -0.00603374)
(9.99613 0.057223 0.0468599)
(10.4282 0.249179 0.099886)
(10.2412 0.110903 -0.051239)
(10.0377 0.204153 0.031818)
(9.84907 0.151258 0.137898)
(9.86356 -0.0881736 0.0261952)
(9.87854 -0.204758 0.00235152)
(9.82488 -0.148414 0.0928315)
(9.85077 -0.0816132 0.0819702)
(10.0763 -0.0240996 0.0655226)
(10.2539 0.0257825 0.00929689)
(10.1223 0.0354133 -0.0632325)
(10.0958 -0.000815608 -0.0547436)
(10.1893 0.00180456 0.029445)
(10.2051 0.014738 0.0299275)
(10.081 -0.00516947 -0.0554719)
(10.0243 -0.0297623 -0.0503474)
(10.095 -0.00611883 0.0168288)
(10.1654 0.0586111 0.0292086)
(10.122 0.0250098 -0.032006)
(9.99685 -0.0251745 -0.0569065)
(9.77231 -0.0451949 0.0114894)
(9.86209 -0.0413711 -0.0472344)
(10.1443 -0.0121538 -0.0622006)
(10.3821 -0.00414651 0.0296921)
(10.3569 -0.0574539 0.013617)
(9.94599 -0.0554271 -0.0317166)
(9.92697 0.00700344 -0.00977164)
(10.0762 -0.0599422 0.022196)
(10.3435 -0.0671957 0.0072431)
(10.375 0.0154235 -0.0112802)
(9.97229 0.19939 -0.0180903)
(9.9496 0.0283917 -0.0384227)
(10.0428 -0.046987 -0.0463311)
(10.0825 0.0247926 -0.0644111)
(10.0038 0.0827237 0.00275334)
(9.83313 0.0686528 0.104775)
(9.73739 -0.0144739 0.00188982)
(9.70747 -0.0387436 0.0283722)
(9.67066 -0.00316896 0.0876283)
(9.81716 -0.00426152 0.0907785)
(10.1269 0.00152589 0.0543613)
(10.165 0.014191 -0.0121013)
(9.96995 0.0277391 -0.0623276)
(9.94207 0.00654221 -0.0217731)
(10.0741 0.0034983 0.0336198)
(10.1091 0.00973055 0.0250376)
(9.98655 0.00561886 -0.0280724)
(9.90632 0.0054144 -0.0423123)
(10.0075 0.00746488 0.0148324)
(10.0583 0.01279 0.0108687)
(9.99244 -0.000206559 -0.0787968)
(9.89508 -0.0211176 -0.0672537)
(9.69526 -0.0168845 0.0347781)
(9.77197 -0.00542102 -0.000678503)
(10.0716 0.00671209 0.00866454)
(10.2839 -0.00068407 0.0207577)
(10.295 -0.00735962 -0.0006582)
(9.79556 -0.0170103 -0.0488823)
(9.81919 0.0146703 -0.0320822)
(10.1998 0.00988743 0.0174616)
(10.1578 -0.0696077 0.0113164)
(10.1069 -0.0816588 -0.00221917)
(9.93352 0.0355486 0.0594118)
(9.89138 0.0104554 -0.0798523)
(10.0159 -0.0362507 -0.082949)
)
;

boundaryField
{
    wall
    {
        type            fixedValue;
        value           uniform (0 0 0);
    }
    outlet
    {
        type            cyclic;
    }
    inlet
    {
        type            cyclic;
    }
    procBoundary0to1
    {
        type            processor;
        value           nonuniform List<vector> 
256
(
(10.1784 0.041811 0.181002)
(9.96582 -0.000642019 -0.0314523)
(9.81849 -0.0337114 -0.131609)
(9.91731 -0.0407259 -0.0771153)
(10.0858 0.0272989 0.0339849)
(9.97108 0.0491111 0.00806918)
(9.74896 -0.00940446 -0.0380047)
(9.87017 -0.017341 0.0184812)
(9.79526 -0.00648926 0.0581076)
(9.54419 -0.00273832 -0.0809082)
(9.85255 -0.00119811 -0.122043)
(10.1813 -0.00159633 0.00454582)
(10.1089 -0.0126406 0.0697179)
(9.863 -0.0311181 -0.000887407)
(9.88183 0.0167582 -0.105582)
(9.94948 0.0350036 -0.108048)
(9.96027 0.02143 -0.0211854)
(9.98672 0.0243509 -0.0325338)
(10.0467 -0.000163294 -0.03748)
(9.93841 -0.0170611 0.00472923)
(9.92273 -0.0323723 0.0302838)
(10.0971 -0.0406034 -0.12455)
(10.1231 -0.0359175 -0.123498)
(9.68882 -0.0065282 -0.0714021)
(9.69249 0.0178528 -0.00712917)
(9.91664 0.0297508 0.043354)
(9.87513 0.0289359 0.0197748)
(9.73402 0.00491328 -0.077003)
(9.85561 -0.0145226 0.0181445)
(9.89476 -0.0159436 0.151337)
(10.0139 -0.0126504 0.177302)
(10.2256 0.030191 0.19544)
(10.2963 0.0636799 0.144551)
(9.98271 0.0253038 0.123186)
(9.89781 -0.0329333 -0.0306399)
(10.0771 -0.0290949 -0.0383204)
(10.2192 0.0248583 -0.00134268)
(10.1201 0.0179335 -0.0371227)
(9.83898 -0.060245 -0.0783624)
(9.95642 -0.0434408 -0.0160183)
(9.88531 -0.0200593 0.0487013)
(9.62053 0.00281918 -0.0427233)
(9.92911 0.0337504 -0.0651121)
(10.2533 -0.0251183 -0.00261643)
(10.1748 -0.0578232 0.0601378)
(10.033 -0.0273222 -0.0240007)
(10.0766 0.0339111 -0.100233)
(10.0805 0.0389909 -0.121299)
(10.0213 0.0115106 -0.0661448)
(9.96686 0.0449639 -0.0482539)
(10.0527 0.015987 -0.0202516)
(10.0501 -0.0378878 0.0349477)
(10.0822 -0.0438618 0.0620021)
(10.2473 -0.0848736 -0.129516)
(10.2492 -0.0827392 -0.137963)
(9.82472 -0.0204826 -0.0448662)
(9.82639 0.0388253 0.0226187)
(10.0217 0.0331597 0.0138496)
(9.98224 0.0464709 0.00961253)
(9.72648 0.0969154 -0.0290004)
(9.89426 0.0331146 0.0384382)
(10.0162 -0.0581728 0.136184)
(10.1337 -0.0139404 0.153414)
(10.326 0.0528389 0.143585)
(10.3268 0.0017874 0.0902107)
(9.95172 0.0356252 0.0478357)
(9.95159 0.0652292 0.0572471)
(10.1606 0.0832018 0.0799965)
(10.2455 -0.0225191 0.0424404)
(10.0619 -0.0841755 -0.003754)
(9.81101 -0.0871579 -0.0519877)
(9.92924 -0.0926034 -0.0586187)
(9.93815 -0.0185833 0.0307662)
(9.83546 0.0161152 -0.0263665)
(9.80411 0.045023 -0.0484962)
(10.0239 -0.0142896 0.0132399)
(10.1978 -0.0487471 0.0236866)
(10.1869 -0.0116161 -0.0387731)
(10.1713 0.0380758 -0.0897651)
(10.0638 0.0192264 -0.0466538)
(10.0151 0.00938354 -0.0694255)
(10.0448 0.0514858 -0.12484)
(10.0419 0.061965 -0.0864099)
(10.0238 -0.0142948 0.0056159)
(10.0547 0.0458539 -0.0386322)
(10.1796 -0.0818187 -0.101881)
(10.2073 -0.155576 -0.0490916)
(9.94944 -0.14265 -0.0426156)
(9.88525 0.045657 -0.0259392)
(10.0123 0.0110006 0.0106561)
(10.0099 0.0365653 0.0308813)
(9.95159 0.153475 0.0188877)
(9.86268 0.131852 0.116455)
(9.90175 -0.0168678 0.152172)
(10.0478 -0.0338625 0.112352)
(10.3484 0.0197107 0.106112)
(10.2599 0.0205372 0.104102)
(9.95685 -0.000735882 0.0363473)
(9.95075 0.146498 0.0837834)
(10.2807 0.145061 0.0244379)
(10.2563 0.0380822 0.00128496)
(9.84013 -0.168663 -0.0186395)
(9.7411 -0.125097 -0.0282621)
(9.90645 -0.120517 -0.0368345)
(9.89788 -0.102651 -0.00487638)
(9.91837 -0.0331289 -0.0015041)
(10.0375 0.0151774 0.0328179)
(10.0632 0.0309308 -0.00283376)
(10.0546 -0.00512024 -0.0828812)
(10.1798 0.00603876 -0.0794788)
(10.2105 0.00669733 -0.0572574)
(10.084 -0.0136751 -0.0545152)
(10.0684 0.0500672 -0.0301384)
(10.1265 0.0224969 -0.0328194)
(10.0301 0.0275364 -0.0348647)
(9.93396 0.0374983 -0.0645514)
(9.99258 0.00707451 -0.0988699)
(10.0412 -0.0210616 -0.0539527)
(10.0933 -0.145232 0.0429222)
(10.0912 -0.134313 -0.016933)
(10.0061 0.0495472 -0.0300654)
(10.0789 -0.0122719 0.0567837)
(10.07 0.0130644 0.0634235)
(10.0402 0.121661 0.0153371)
(9.85218 0.163502 0.0797489)
(9.89326 0.0557994 0.117242)
(10.0583 0.0781498 0.0632039)
(10.2772 0.0857188 0.096189)
(10.182 0.138165 0.0314451)
(10.0023 0.0647984 -0.0306304)
(10.0788 0.0929045 0.0220064)
(10.1352 0.0954512 0.0661888)
(10.1163 0.00626618 0.00412602)
(9.80963 -0.267804 -0.0667267)
(9.75536 -0.191988 0.0119304)
(9.83626 -0.120521 0.00115667)
(9.81848 -0.0540641 -0.000988097)
(10.0183 -0.0385326 -0.0155464)
(10.2589 -0.0327747 -0.0199361)
(10.2058 0.00569268 -0.00306316)
(9.93613 0.0253651 -0.0534929)
(10.0286 0.0249068 -0.0905394)
(10.2021 -0.000114551 -0.0938655)
(10.1477 -0.00764084 -0.0376027)
(10.1059 0.010631 -0.0231267)
(9.96592 -0.00777444 -0.0921904)
(9.98539 0.00767361 -0.0814824)
(10.1177 -0.0141517 -0.0307129)
(10.0402 -0.0476827 -0.0370409)
(9.96598 -0.0761488 0.0412139)
(10.0702 -0.0660267 0.062974)
(10.1689 0.0174007 0.0129573)
(10.0426 0.046563 -0.00731288)
(10.0264 -0.00399092 0.0684751)
(10.1081 0.00399356 0.0476146)
(10.1477 -0.021438 0.00786911)
(9.90021 0.165966 0.0853328)
(9.92486 0.103903 0.0736356)
(10.05 0.0150739 0.0575813)
(10.3012 0.181364 0.118702)
(10.1638 0.221221 -0.00618844)
(10.0909 0.327031 0.034116)
(9.92825 0.15816 0.11394)
(9.96277 -0.0701432 -0.0440585)
(9.93016 -0.218031 -0.127264)
(9.8848 -0.209371 -0.0645061)
(9.78095 -0.117285 0.118188)
(9.87762 -0.0557481 0.10185)
(9.94902 0.0252816 0.0687077)
(10.0712 0.0283942 -0.0118991)
(10.1711 -0.0382095 -0.0528981)
(10.1596 -0.0267446 -0.0391294)
(10.1139 0.01766 -0.0342148)
(10.1034 0.0248611 -0.1015)
(10.0887 0.00197007 -0.122331)
(10.0612 -0.00932664 -0.00430252)
(10.0686 -0.0275708 0.0264948)
(10.0948 0.0233535 -0.0230246)
(10.0756 0.0672782 -0.00941513)
(9.90652 -0.0500705 0.0494448)
(9.87431 -0.0971282 0.0324062)
(9.94664 -0.0891801 0.104918)
(10.1975 0.0222303 0.0333181)
(10.2278 -0.00804014 -0.0321907)
(10.0847 -0.0523989 -0.116757)
(9.95017 -0.00493547 -0.0145714)
(10.0421 -0.0550118 -0.022463)
(10.1976 -0.0538786 -0.00798125)
(10.0167 0.14465 0.0215517)
(9.96132 0.169771 -0.00402945)
(10.039 -0.019484 -0.0121032)
(10.078 0.0238387 0.0463913)
(10.1551 0.101354 -0.0354171)
(10.0993 0.175705 0.0216602)
(9.93851 0.11495 0.064715)
(9.84136 -0.112664 -0.0608985)
(9.88999 -0.0922246 -0.0312764)
(9.91173 -0.0391588 0.0659655)
(9.77252 -0.0428386 0.191362)
(9.90419 -0.0274595 0.139834)
(10.0687 0.0232525 0.0704968)
(10.0908 0.0278605 -0.0451268)
(10.1105 0.00734135 -0.0579297)
(10.145 0.00309085 -0.0232621)
(10.1308 0.00668788 -0.0127785)
(10.104 0.00934276 -0.0695066)
(10.0894 -0.000833833 -0.0928699)
(10.0857 -0.0137315 -0.0239068)
(10.0821 0.000155316 -0.0243245)
(10.0565 -0.00984654 -0.0263147)
(10.0467 -0.0329746 -0.00142992)
(9.85731 -0.0432908 0.0304511)
(9.89597 -0.0159624 0.0515015)
(10.0523 -0.016659 0.0707839)
(10.245 0.0194993 0.0127462)
(10.2429 -0.0143518 -0.00982609)
(9.93226 -0.0440162 -0.0185168)
(9.9318 0.000913899 0.0100467)
(10.0919 -0.0817058 0.0240044)
(10.302 -0.0678276 -0.0257461)
(10.3203 0.0227131 -0.0410106)
(9.94486 0.204514 -0.0208166)
(9.88951 -0.0172286 -0.0373556)
(9.94757 -0.104605 -0.0794292)
(10.0599 0.0331715 -0.047567)
(9.9927 0.0610116 -0.0791315)
(9.64513 -0.0073211 -0.0629709)
(9.7033 -0.0359911 0.0131826)
(9.85386 0.019069 0.0729917)
(9.90937 0.0349155 0.11993)
(9.67479 0.00519748 0.194396)
(9.77866 -0.00495408 0.141537)
(10.0137 0.0156918 0.0463959)
(9.99519 0.0173272 -0.081757)
(9.98538 0.00748549 -0.0632163)
(10.0387 0.00751137 -0.00609516)
(10.0543 0.00509692 -0.0147747)
(10.0007 0.0114953 -0.00350567)
(9.95172 0.00615334 -0.0321702)
(9.98534 -0.0129921 -0.0613056)
(9.98896 -0.0107443 -0.059011)
(9.96212 -0.0159684 -0.0755347)
(9.91308 -0.0337116 -0.0837335)
(9.82393 -0.0101871 0.0232904)
(9.85175 0.014887 0.0595)
(9.96207 0.0135074 0.107574)
(10.0933 0.00574902 0.0279765)
(10.139 0.0170359 5.14978e-05)
(9.79979 -0.0196705 -0.00242108)
(9.84234 -0.0104151 0.00456818)
(10.2023 0.00282574 0.0632023)
(10.1555 -0.0638537 -0.000441447)
(9.99867 -0.0703433 -0.077133)
(9.91206 0.0650562 -0.0868378)
(9.79458 -0.0109767 -0.0197992)
(9.93123 -0.043085 -0.0334217)
)
;
    }
}


// ************************************************************************* //
