FoamFile
{version 2.0; format ascii;class Cloud<passiveParticle>; location 0;object  positions;}
2510
(
( 0.00589076 3.53321e-06 0.000497952 ) 0 
( 0.00232398 0.000201993 0.000499293 ) 0 
( 0.00113865 0.000120892 0.0070316 ) 0 
( 0.00902899 2.2743e-05 0.00565951 ) 0 
( 0.0092739 0.000141054 0.00469749 ) 0 
( 0.0124781 5.05985e-05 0.00049887 ) 0 
( 0.000893554 0.000654051 0.00150749 ) 0 
( 0.00682713 0.000180592 0.00180996 ) 0 
( 0.00998616 0.000157429 0.00540329 ) 0 
( 0.0091918 0.00031347 0.0105253 ) 0 
( 0.0123892 0.00020946 0.014304 ) 0 
( 0.00115547 0.000106295 0.0138375 ) 0 
( 0.00255191 0.000498262 0.0146592 ) 0 
( 0.0057356 0.00136615 0.014715 ) 0 
( 0.00664405 0.00103249 0.0144641 ) 0 
( 0.00892669 0.000260912 0.013369 ) 0 
( 0.00946005 0.000500171 0.0145977 ) 0 
( 0.0113671 8.36792e-05 0.0130132 ) 0 
( 0.0133363 0.000608518 0.00797126 ) 0 
( 0.00462274 0.000713946 0.0148069 ) 0 
( 0.00940773 0.00186352 0.0146093 ) 0 
( 0.010024 0.000403582 0.0110717 ) 0 
( 0.00790314 5.52201e-05 0.00912125 ) 0 
( 0.00726362 0.00574272 0.0152473 ) 0 
( 0.00392323 0.00829421 0.0151737 ) 0 
( 0.00829798 0.000296195 0.0148933 ) 0 
( 0.00202917 0.000786081 0.0129538 ) 0 
( 0.00214457 0.00024041 0.0137836 ) 0 
( 0.0119315 0.00105956 0.0140445 ) 0 
( 0.0114839 0.000270099 0.0147242 ) 0 
( 0.0104875 4.05768e-05 0.0144905 ) 0 
( 0.00236521 0.000172658 0.00902263 ) 0 
( 0.00346773 0.00374343 0.00260923 ) 0 
( 0.00174109 0.00543615 0.00789819 ) 0 
( 0.000226205 0.0127725 0.0056494 ) 0 
( 0.00707865 0.00504037 0.00214561 ) 0 
( 0.00678676 0.00474054 0.00527399 ) 0 
( 0.00896689 0.00551726 0.00669101 ) 0 
( 0.000331112 0.0133124 0.00352641 ) 0 
( 0.00616787 0.00339785 0.00425654 ) 0 
( 0.00548258 0.0121543 0.00461773 ) 0 
( 0.0103019 0.00530774 0.00558733 ) 0 
( 0.000906359 0.0073485 0.00446949 ) 0 
( 0.00713122 0.0103252 0.000499648 ) 0 
( 0.00635725 0.00977065 0.00163055 ) 0 
( 0.00223132 0.012295 0.00395781 ) 0 
( 0.0018865 0.00315437 0.000499008 ) 0 
( 0.00441974 0.00759708 0.00190265 ) 0 
( 0.0107332 0.00371189 0.00377408 ) 0 
( 0.0112976 0.00536377 0.00563151 ) 0 
( 0.00472752 0.0033496 0.00406146 ) 0 
( 0.00825447 0.00272577 0.00672731 ) 0 
( 0.00873974 0.00267775 0.00480759 ) 0 
( 0.00262083 0.0100658 0.00623229 ) 0 
( 0.00724312 0.00683431 0.00118834 ) 0 
( 0.00670488 0.00468649 0.00407622 ) 0 
( 0.0055093 0.00766158 0.00319889 ) 0 
( 0.00373634 0.0128166 0.00568594 ) 0 
( 0.00251769 0.00796333 0.00304976 ) 0 
( 0.0116733 0.00436773 0.00049791 ) 0 
( 0.00112871 0.00226549 0.00322851 ) 0 
( 0.00529064 0.00687414 0.00452339 ) 0 
( 0.0109975 0.00372559 0.000859147 ) 0 
( 0.00933336 0.00222479 0.0041442 ) 0 
( 0.00275314 0.00148323 0.00622939 ) 0 
( 0.00684145 0.00017708 0.00831622 ) 0 
( 0.000901903 0.00608869 0.00469323 ) 0 
( 0.00184779 0.00812909 0.0077889 ) 0 
( 0.0015492 0.00796953 0.00280348 ) 0 
( 0.00905568 0.00979101 0.00419241 ) 0 
( 0.0128477 0.00362923 0.00653908 ) 0 
( 0.00256496 0.00710023 0.00131922 ) 0 
( 0.00993346 0.00322488 0.00542006 ) 0 
( 0.00277625 0.000673644 0.0012618 ) 0 
( 0.00719001 0.00570931 0.00569039 ) 0 
( 0.00579358 0.0046909 0.0056664 ) 0 
( 0.000755093 0.000334232 0.00244503 ) 0 
( 0.00121418 0.00588601 0.00562064 ) 0 
( 0.0087426 0.00128868 0.0068475 ) 0 
( 0.00139052 0.0118892 0.0043148 ) 0 
( 0.00295536 0.0080062 0.00394751 ) 0 
( 0.00746196 0.00212408 0.00544738 ) 0 
( 0.0090084 0.00985348 0.00767005 ) 0 
( 0.012126 0.00412447 0.0022111 ) 0 
( 0.00570752 0.00823739 0.00645349 ) 0 
( 0.00292851 0.00707127 0.00286426 ) 0 
( 0.00806708 0.000568578 0.00717437 ) 0 
( 0.0100102 0.00527188 0.00311823 ) 0 
( 0.000353004 0.00376066 0.00617967 ) 0 
( 0.00274247 0.00101032 0.00534748 ) 0 
( 0.00396854 0.0101183 0.00317425 ) 0 
( 0.00357167 0.00215653 0.00194346 ) 0 
( 0.00580311 0.00507136 0.0035914 ) 0 
( 0.00827292 0.00136858 0.00773696 ) 0 
( 0.00313484 0.0124174 0.00499458 ) 0 
( 0.00134214 0.00885541 0.00321843 ) 0 
( 0.000927352 0.012347 0.00507345 ) 0 
( 0.00583734 0.00412538 0.0030774 ) 0 
( 0.0077474 0.00290303 0.00488924 ) 0 
( 0.00188742 0.00999071 0.000499524 ) 0 
( 0.0090708 0.00849445 0.00401785 ) 0 
( 0.00491399 0.00496262 0.00800126 ) 0 
( 0.00935941 6.41976e-05 0.00232572 ) 0 
( 0.00476997 0.00724291 0.00698651 ) 0 
( 0.00223683 0.00522898 0.00705565 ) 0 
( 0.0102116 0.00851844 0.00373578 ) 0 
( 0.00473702 0.00120885 0.00588617 ) 0 
( 0.00693912 0.00362599 0.00743603 ) 0 
( 0.00695021 0.00669274 0.00415112 ) 0 
( 0.000773887 0.00775185 0.00641594 ) 0 
( 0.00641129 0.00641347 0.00207486 ) 0 
( 0.000659494 0.00287661 0.00259208 ) 0 
( 0.0118744 0.00610479 0.00597123 ) 0 
( 0.000934378 0.00127589 0.00470682 ) 0 
( 0.00709357 0.0102249 0.0070987 ) 0 
( 0.00106092 0.00295033 0.00168041 ) 0 
( 0.00798419 0.0107002 0.0020529 ) 0 
( 0.00457141 0.00343025 0.005914 ) 0 
( 0.00365412 0.0114079 0.00705177 ) 0 
( 0.011103 0.00130882 0.00433034 ) 0 
( 0.000761458 0.0133285 0.000499327 ) 0 
( 0.00219018 0.000662112 0.0061044 ) 0 
( 0.000511167 0.00912627 0.00273272 ) 0 
( 0.00673331 0.000700852 0.000499459 ) 0 
( 0.00499171 0.00197244 0.00647789 ) 0 
( 0.00336831 0.0051251 0.00129147 ) 0 
( 0.00091209 0.00457699 0.00604404 ) 0 
( 0.000909128 0.00339157 0.000498852 ) 0 
( 0.011466 0.00291048 0.000499236 ) 0 
( 0.0047276 0.0115124 0.00594141 ) 0 
( 0.00320156 0.0056747 0.0071978 ) 0 
( 0.0027126 0.00115702 0.0030822 ) 0 
( 0.00840436 0.00248261 0.00132384 ) 0 
( 0.00645823 0.0066702 0.00574196 ) 0 
( 0.0122648 0.00527358 0.00369703 ) 0 
( 0.0024833 0.0113913 0.002946 ) 0 
( 0.00455459 0.00112412 0.00219294 ) 0 
( 0.00260021 0.0112106 0.000497976 ) 0 
( 0.0123502 0.00507041 0.00467195 ) 0 
( 0.000870039 0.00794614 0.00201417 ) 0 
( 0.0045616 0.00913344 0.00498409 ) 0 
( 0.00268258 0.00545137 0.00442063 ) 0 
( 0.00325098 0.00938247 0.00305056 ) 0 
( 0.00488769 0.00943449 0.00255883 ) 0 
( 0.00369367 0.00961906 0.00508016 ) 0 
( 0.00315424 0.00434537 0.001877 ) 0 
( 0.00640266 0.0107341 0.00546741 ) 0 
( 0.0110896 0.00742108 0.00478932 ) 0 
( 0.00711034 0.0010434 0.00222671 ) 0 
( 0.00704328 0.00851637 0.00383778 ) 0 
( 0.0108972 0.00532213 0.00138947 ) 0 
( 0.00942501 0.00817367 0.00489505 ) 0 
( 0.0129439 0.00327291 0.00239517 ) 0 
( 0.000432125 0.00900206 0.00372066 ) 0 
( 0.00392244 0.0127034 0.00049896 ) 0 
( 0.00874037 0.0100846 0.00226612 ) 0 
( 0.00199368 0.00909057 0.00120164 ) 0 
( 0.00613231 0.00537333 0.00457712 ) 0 
( 0.00683113 0.00382863 0.00486705 ) 0 
( 0.00791885 0.00723239 0.00206698 ) 0 
( 0.000392997 0.0106899 0.00659581 ) 0 
( 3.51674e-05 0.00172355 0.00628081 ) 0 
( 0.012432 0.00432193 0.00532884 ) 0 
( 0.0104351 0.00189557 0.00145562 ) 0 
( 0.0120005 0.000868134 0.000814994 ) 0 
( 0.0111717 0.00195602 0.000499617 ) 0 
( 0.00557466 0.000817622 0.00723678 ) 0 
( 0.00876966 0.000441002 0.00388418 ) 0 
( 0.0100055 0.00201428 0.0023494 ) 0 
( 0.0017676 0.00783935 0.00654723 ) 0 
( 0.00809754 0.00868095 0.00360158 ) 0 
( 0.00863399 0.00635442 0.00233881 ) 0 
( 0.006524 0.00279363 0.00597035 ) 0 
( 0.00597016 0.00399839 0.00149551 ) 0 
( 0.000709104 0.00313525 0.00548735 ) 0 
( 0.00860057 0.00446624 0.00507978 ) 0 
( 0.00227245 0.0123061 0.000506861 ) 0 
( 0.012215 0.00455354 0.00131436 ) 0 
( 0.00625821 0.00343252 0.00669103 ) 0 
( 0.00457733 0.00805928 0.00753043 ) 0 
( 0.00891958 0.00751858 0.00417322 ) 0 
( 0.00606918 0.00221405 0.00393892 ) 0 
( 0.000982032 0.00416608 0.00419256 ) 0 
( 0.0105054 0.00674913 0.00267457 ) 0 
( 0.00402458 0.00362538 0.00695304 ) 0 
( 0.000286795 0.00452403 0.006823 ) 0 
( 0.00359575 0.00540506 0.00366255 ) 0 
( 0.0119708 0.00117007 0.0038551 ) 0 
( 0.00220271 0.00138712 0.00440353 ) 0 
( 0.00854476 0.00898639 0.00168848 ) 0 
( 0.00314029 0.01091 0.00374318 ) 0 
( 0.00236059 0.0122296 0.00645498 ) 0 
( 0.0103876 0.00838661 0.00141753 ) 0 
( 0.00268089 0.00415586 0.00306793 ) 0 
( 0.000732235 0.0119525 0.00300172 ) 0 
( 0.00161275 0.00615696 0.00312756 ) 0 
( 0.00371254 0.00278813 0.00276607 ) 0 
( 0.00510901 0.000142723 0.00561143 ) 0 
( 0.0064497 0.000298681 0.0072664 ) 0 
( 0.0075493 0.000694841 0.00134634 ) 0 
( 0.0100046 0.00532305 0.00049902 ) 0 
( 0.00649914 0.00483213 0.00133755 ) 0 
( 0.0017771 0.0123509 0.00144949 ) 0 
( 0.00631207 0.0117653 0.00238737 ) 0 
( 0.00434186 0.00876971 0.00310671 ) 0 
( 0.00514134 0.0113767 0.00376432 ) 0 
( 0.0031606 0.0103958 0.00462116 ) 0 
( 0.00300369 0.0111339 0.00198215 ) 0 
( 0.00386876 0.00600607 0.00653142 ) 0 
( 0.00986057 0.00706903 0.00598634 ) 0 
( 0.00460033 0.00302786 0.00499943 ) 0 
( 0.00322113 0.0119926 0.000500141 ) 0 
( 0.00267837 0.00421444 0.00406611 ) 0 
( 0.00465753 0.00955895 0.00363311 ) 0 
( 0.00395207 0.00352423 0.00345552 ) 0 
( 0.00944612 0.00100732 0.00570072 ) 0 
( 0.00399112 0.0108734 0.00433528 ) 0 
( 0.00476532 0.00436114 0.000499258 ) 0 
( 0.00341902 0.00839469 0.00302522 ) 0 
( 0.003413 0.0077503 0.0022583 ) 0 
( 0.00809677 0.00523642 0.0072432 ) 0 
( 0.00738348 0.00839749 0.0067153 ) 0 
( 0.00283089 0.00237874 0.00443597 ) 0 
( 0.000242629 0.00159354 0.00751183 ) 0 
( 0.00701873 0.00831305 0.00568954 ) 0 
( 0.00925931 0.0096183 0.00515504 ) 0 
( 0.010722 0.000808583 0.00696233 ) 0 
( 0.00408073 0.00281631 0.00753666 ) 0 
( 0.0108986 0.00270812 0.00669434 ) 0 
( 0.00399251 0.0110266 0.00208066 ) 0 
( 0.00566273 0.0001466 0.00380134 ) 0 
( 0.00803374 0.00976156 0.00108604 ) 0 
( 0.00683251 0.00891271 0.00192476 ) 0 
( 0.00510888 0.00567619 0.00133829 ) 0 
( 0.00694889 0.00229378 0.00441107 ) 0 
( 0.00303235 0.00174438 0.00120944 ) 0 
( 0.000256491 0.006553 0.00408856 ) 0 
( 0.00358191 0.01196 0.00165505 ) 0 
( 0.00329001 0.00389246 0.0076619 ) 0 
( 0.0106473 0.00632845 0.00744892 ) 0 
( 0.00480451 0.00563557 0.00228947 ) 0 
( 0.00317757 0.000576194 0.00623344 ) 0 
( 0.000537603 0.00263331 0.00635099 ) 0 
( 0.0120222 0.00374092 0.0045687 ) 0 
( 0.00891325 0.00735261 0.00515925 ) 0 
( 0.00528572 0.00674856 0.00252974 ) 0 
( 0.0100654 0.00247208 0.00477768 ) 0 
( 0.00748853 0.00751397 0.000497574 ) 0 
( 0.00195488 0.00802364 0.00396357 ) 0 
( 0.0114653 6.01538e-05 0.00146105 ) 0 
( 0.00159908 0.00348062 0.00457516 ) 0 
( 0.00636671 0.00801717 0.00499208 ) 0 
( 0.0035966 0.00131014 0.00264062 ) 0 
( 0.00816405 0.0043222 0.00684586 ) 0 
( 0.0133184 0.000927047 0.00421454 ) 0 
( 0.00279208 0.0130563 0.00218216 ) 0 
( 0.010512 0.00372344 0.00477472 ) 0 
( 0.00975101 0.00430534 0.000498833 ) 0 
( 0.00442753 0.00534251 0.00721358 ) 0 
( 0.00949596 0.00883598 0.00142544 ) 0 
( 0.00672624 0.00501117 0.0062343 ) 0 
( 0.0106548 0.00628772 0.00147857 ) 0 
( 0.00440719 0.00386492 0.00152916 ) 0 
( 0.00193191 0.00704713 0.00280443 ) 0 
( 0.00301403 0.00468636 0.00496967 ) 0 
( 0.0133502 5.48007e-05 0.00136376 ) 0 
( 0.00516666 0.0035675 0.000951809 ) 0 
( 0.00604643 0.00835534 0.00219042 ) 0 
( 0.00555 0.0121417 0.00561518 ) 0 
( 0.0011114 0.00928244 0.00194954 ) 0 
( 0.00924878 0.00923045 0.00235499 ) 0 
( 0.00215081 0.0107862 0.0036665 ) 0 
( 0.00201113 0.0113065 0.00617538 ) 0 
( 0.00449485 0.0116215 0.00142769 ) 0 
( 0.00178285 0.00504829 0.00617993 ) 0 
( 0.00801036 0.00794913 0.00427741 ) 0 
( 0.00125903 0.00997447 0.00478485 ) 0 
( 0.00312106 0.00726944 0.00469367 ) 0 
( 0.00167199 0.000749001 0.00525421 ) 0 
( 0.0133502 9.25522e-05 0.00552142 ) 0 
( 0.0035028 0.000590693 0.0019439 ) 0 
( 0.0118679 0.00179624 0.00187808 ) 0 
( 0.0104424 6.10233e-05 0.00310784 ) 0 
( 0.00231499 0.000430059 0.00363995 ) 0 
( 0.00727751 0.00765546 0.00338644 ) 0 
( 0.00866812 0.00812795 0.00218541 ) 0 
( 0.0112414 0.00526188 0.00375612 ) 0 
( 0.00400681 0.0079235 0.00368232 ) 0 
( 0.00449958 0.0119635 0.00300756 ) 0 
( 0.00988472 0.000389845 0.00731235 ) 0 
( 0.00965232 0.00800872 0.00233524 ) 0 
( 0.0042923 0.00627846 0.000498578 ) 0 
( 0.00401863 0.00902636 0.00581578 ) 0 
( 0.0111442 0.00449516 0.00484265 ) 0 
( 0.01334 0.000553879 0.000498758 ) 0 
( 0.00177725 0.00547285 0.00383794 ) 0 
( 0.00795291 0.005192 0.00530689 ) 0 
( 4.07373e-05 0.00401113 0.00448977 ) 0 
( 0.00167811 0.00336559 0.00556515 ) 0 
( 0.000394889 0.00132166 0.00208348 ) 0 
( 0.00064766 0.0115577 0.000499799 ) 0 
( 0.00505144 0.00840761 0.0037404 ) 0 
( 0.010034 0.00342777 0.00308748 ) 0 
( 0.000407895 0.0121918 0.00644255 ) 0 
( 0.00862239 0.00906144 0.000499767 ) 0 
( 0.00870712 0.000452602 0.00140317 ) 0 
( 0.00222768 0.001844 0.00699947 ) 0 
( 0.00759225 0.00859117 0.00491907 ) 0 
( 0.00180712 0.0039444 0.00365728 ) 0 
( 0.00014317 0.00957699 0.00543203 ) 0 
( 0.0012529 0.00332202 0.00646882 ) 0 
( 0.00392472 0.00515185 0.00213808 ) 0 
( 0.000904159 0.000960836 0.00791217 ) 0 
( 0.00318108 0.0066328 0.00615914 ) 0 
( 0.00177453 0.0132113 0.00536056 ) 0 
( 0.00705615 0.00766381 0.00436104 ) 0 
( 0.00648684 0.000999159 0.00585331 ) 0 
( 0.00251177 0.00377814 0.00136405 ) 0 
( 0.00816896 0.00600605 0.00633079 ) 0 
( 0.00560662 0.00176222 0.0047016 ) 0 
( 0.00102371 0.0106465 0.00548519 ) 0 
( 0.00770615 0.0013101 0.00487923 ) 0 
( 0.0057352 0.00302839 0.00156986 ) 0 
( 0.00652437 0.00181639 0.00527924 ) 0 
( 0.00222107 0.0104968 0.00703991 ) 0 
( 0.00202049 0.00265652 0.00495015 ) 0 
( 0.0110494 0.00749332 0.00714124 ) 0 
( 0.00698343 0.00201049 0.00201565 ) 0 
( 6.42889e-05 0.00500597 0.00795579 ) 0 
( 0.00201271 0.00994016 0.00544036 ) 0 
( 0.00737915 0.0107428 0.00386471 ) 0 
( 0.00166497 0.00083844 0.000899055 ) 0 
( 0.0008077 0.00588276 0.000499792 ) 0 
( 0.00105016 0.00163266 0.00137857 ) 0 
( 0.00736465 0.0027627 0.00255118 ) 0 
( 0.00128002 0.0091448 0.00422953 ) 0 
( 0.00110955 0.00962962 0.0010128 ) 0 
( 0.00812798 0.0012502 0.0033337 ) 0 
( 0.00754803 0.000188831 0.00250059 ) 0 
( 0.0055446 0.00586458 0.00295653 ) 0 
( 0.0122732 0.0018606 0.00310417 ) 0 
( 0.00403502 0.00205338 0.00675595 ) 0 
( 0.00278537 0.00127773 0.00205782 ) 0 
( 0.00221599 0.00693905 0.00637526 ) 0 
( 0.0128646 0.00196015 0.00581216 ) 0 
( 0.00364844 0.011442 0.00297027 ) 0 
( 0.0112792 0.0034519 0.00536511 ) 0 
( 0.0100388 0.000303457 0.0004987 ) 0 
( 0.000185524 0.00251133 0.0038677 ) 0 
( 0.00123495 0.0107484 0.000499781 ) 0 
( 0.00182576 0.0092619 0.0061508 ) 0 
( 0.00643119 0.00119881 0.00683157 ) 0 
( 0.00728233 0.00600263 0.00234391 ) 0 
( 0.00224068 0.00897909 0.00401328 ) 0 
( 0.0120209 0.00302681 0.00380489 ) 0 
( 0.00331301 0.00936388 0.00644104 ) 0 
( 0.00105059 0.00188701 0.00678909 ) 0 
( 0.00709164 0.00694638 0.00261238 ) 0 
( 0.00727275 0.0107677 0.00287177 ) 0 
( 0.00549758 0.000926446 0.000499611 ) 0 
( 0.00289839 0.00744555 0.00565173 ) 0 
( 0.00496885 0.00759577 0.00606803 ) 0 
( 0.00586159 0.00176585 0.00602723 ) 0 
( 0.00502406 0.0123692 0.00375552 ) 0 
( 0.00355072 0.00395767 0.00102274 ) 0 
( 0.00186185 0.00735414 0.000498956 ) 0 
( 0.00722634 0.00314513 0.00660882 ) 0 
( 0.00776128 0.00171288 0.00135205 ) 0 
( 0.00275503 0.0120617 0.00225753 ) 0 
( 0.00437457 0.005147 0.00623404 ) 0 
( 0.00468646 0.00288627 0.00674437 ) 0 
( 0.0046255 0.00981392 0.000603127 ) 0 
( 0.00890562 0.00722629 0.00182595 ) 0 
( 0.00217924 0.0102433 0.0045036 ) 0 
( 0.00462682 0.00186732 0.00513966 ) 0 
( 0.00262142 0.00505286 0.00350561 ) 0 
( 0.00329352 0.0117413 0.00427608 ) 0 
( 0.0107594 0.00385656 0.00228948 ) 0 
( 0.0013648 0.00731281 0.00358245 ) 0 
( 0.00516903 0.00193093 0.00209207 ) 0 
( 0.0128916 0.0026435 0.00317033 ) 0 
( 0.00711762 0.0112953 0.000738445 ) 0 
( 0.0102196 0.00073165 0.00240065 ) 0 
( 0.0054194 0.00669631 0.00351841 ) 0 
( 0.0114138 0.00424082 0.00293955 ) 0 
( 0.00725464 0.00927857 0.00556197 ) 0 
( 0.000137655 0.00365204 0.00348293 ) 0 
( 0.00622526 0.00659919 0.000616127 ) 0 
( 0.00460096 0.00810008 0.00528712 ) 0 
( 0.00645701 0.0116284 0.00141005 ) 0 
( 0.00438616 0.00138604 0.00429711 ) 0 
( 0.00474256 0.00291636 0.00158079 ) 0 
( 0.00723343 0.00417724 0.000499658 ) 0 
( 0.00343597 0.00628513 0.0032161 ) 0 
( 0.00245769 0.00505746 0.00179594 ) 0 
( 0.0120383 0.00264002 0.00136783 ) 0 
( 0.0036685 0.00954536 0.000499036 ) 0 
( 0.00193959 0.00899785 0.00496661 ) 0 
( 0.00560582 0.0104342 0.006954 ) 0 
( 0.000853861 0.000296329 0.00490034 ) 0 
( 0.00139581 0.00351253 0.00756041 ) 0 
( 0.00355229 0.00479195 0.00688954 ) 0 
( 0.0115811 0.00442568 0.00584297 ) 0 
( 0.00337456 0.00624667 0.00421339 ) 0 
( 0.00574533 0.00186434 0.00712541 ) 0 
( 0.00226215 0.000561524 0.00765478 ) 0 
( 0.00788642 0.010744 0.00573347 ) 0 
( 0.00264365 0.00990481 0.00133204 ) 0 
( 0.00160245 0.00175265 0.000499573 ) 0 
( 0.00821085 0.00503234 0.00435557 ) 0 
( 0.00382904 0.00797413 0.00466442 ) 0 
( 0.00299959 7.10901e-06 0.00727178 ) 0 
( 0.00273101 0.00476569 0.00632082 ) 0 
( 0.0118545 0.00164534 0.00554133 ) 0 
( 0.00619829 0.00560338 0.00562746 ) 0 
( 0.00274983 0.00321698 0.00215527 ) 0 
( 0.00642329 0.00192091 0.00305109 ) 0 
( 0.00517048 0.0122227 0.0018546 ) 0 
( 0.00870673 0.00295918 0.000499451 ) 0 
( 0.00345075 0.00573838 0.000499784 ) 0 
( 0.00695175 0.00513679 0.000499721 ) 0 
( 0.000958617 0.0108394 0.0025045 ) 0 
( 0.0052249 0.00498137 0.00673222 ) 0 
( 0.00602531 0.010848 0.00211137 ) 0 
( 0.00291823 0.00482025 0.00766178 ) 0 
( 0.00182938 0.00469778 0.00300117 ) 0 
( 0.0117029 0.00519523 0.00287402 ) 0 
( 0.00489048 0.00382221 0.00317591 ) 0 
( 0.00978936 0.00265853 0.00144598 ) 0 
( 0.00205488 0.00162306 0.00138169 ) 0 
( 0.00641577 0.00750345 0.00768376 ) 0 
( 0.00867672 0.00486254 0.00599408 ) 0 
( 0.00576637 0.00547429 0.0020634 ) 0 
( 0.00411938 0.0119039 0.00525159 ) 0 
( 0.00844614 0.00587671 0.00387727 ) 0 
( 0.00931947 0.00409598 0.00137571 ) 0 
( 0.00265607 0.00935137 0.000499585 ) 0 
( 0.00954258 0.00157214 0.00341811 ) 0 
( 0.0115142 0.00431723 0.00393088 ) 0 
( 0.00431177 0.00200666 0.00259877 ) 0 
( 0.00344428 0.000691918 0.00357891 ) 0 
( 0.00540319 0.0112059 0.00138846 ) 0 
( 0.00462152 9.66825e-05 0.0075246 ) 0 
( 0.00853563 0.0102649 0.00632252 ) 0 
( 0.00652713 0.00816615 0.0013349 ) 0 
( 0.00642509 0.00807949 0.00307981 ) 0 
( 0.00238311 0.00997695 0.00291283 ) 0 
( 0.000611308 0.000987761 0.00680704 ) 0 
( 0.00822846 0.0105131 0.00300906 ) 0 
( 0.0080111 3.71971e-05 0.0033723 ) 0 
( 0.00269874 0.00924904 0.0056618 ) 0 
( 0.00485104 0.00437898 0.00577569 ) 0 
( 0.00702726 0.00839913 0.000499161 ) 0 
( 0.00395429 0.00106178 0.00663414 ) 0 
( 0.00132091 0.00704673 0.00183982 ) 0 
( 0.000989198 0.00896329 0.00660991 ) 0 
( 0.00348341 0.00264915 0.00372867 ) 0 
( 0.00434615 0.00881107 0.000499638 ) 0 
( 0.00348949 0.00747781 0.00126952 ) 0 
( 0.00971316 0.0013498 0.00660136 ) 0 
( 0.0119683 0.00358249 0.00104127 ) 0 
( 0.0113214 0.00658568 0.00529348 ) 0 
( 0.00208928 0.0122294 0.00494402 ) 0 
( 0.00662107 0.00562482 0.00374191 ) 0 
( 0.0113345 0.00128971 0.00309484 ) 0 
( 0.00656895 0.0105384 0.00441273 ) 0 
( 0.00028318 0.00242919 0.00133065 ) 0 
( 0.00440804 0.0108042 0.00657862 ) 0 
( 0.00878441 0.00181703 0.00281551 ) 0 
( 0.0131491 0.00230986 0.000656184 ) 0 
( 0.00237537 5.33693e-05 0.00506917 ) 0 
( 0.0126717 0.00420538 0.000498295 ) 0 
( 0.012805 0.00378177 0.00154699 ) 0 
( 0.00648415 0.00934148 0.00375826 ) 0 
( 0.00804124 0.00210134 0.00437097 ) 0 
( 0.00986331 0.0056804 0.00142128 ) 0 
( 0.00429054 0.00525659 0.00441822 ) 0 
( 0.00590422 0.0027482 0.000499037 ) 0 
( 0.00496233 0.0062626 0.00702595 ) 0 
( 0.00689655 0.00471365 0.00307418 ) 0 
( 0.00820201 0.00322612 0.00406007 ) 0 
( 0.0100449 0.00711434 0.00499231 ) 0 
( 0.00900472 0.00633618 0.00138455 ) 0 
( 0.0010635 0.00532219 0.00315126 ) 0 
( 0.00541435 0.00749951 0.00188304 ) 0 
( 0.00434123 0.00245769 0.00589422 ) 0 
( 0.00725445 0.0057007 0.00138945 ) 0 
( 0.00153451 0.0132617 0.00439123 ) 0 
( 0.00700121 0.011367 0.00595843 ) 0 
( 0.00499939 0.0052584 0.00532552 ) 0 
( 0.00570841 0.00458945 0.0075227 ) 0 
( 0.00642122 0.00906963 0.000922681 ) 0 
( 0.00541172 0.002426 0.00542359 ) 0 
( 0.00548809 0.011836 0.00294711 ) 0 
( 0.00157871 0.0115739 0.00337586 ) 0 
( 0.00155834 0.000636951 0.00425887 ) 0 
( 0.00958683 0.003354 0.000756973 ) 0 
( 0.0119964 0.00270433 0.00490419 ) 0 
( 0.00873407 0.00142641 0.00410768 ) 0 
( 0.0073153 0.00925758 0.0072188 ) 0 
( 0.00985988 0.00408002 0.00408947 ) 0 
( 0.0098451 0.00465617 0.00619313 ) 0 
( 0.0128201 0.00372615 0.00327627 ) 0 
( 0.0108481 0.00252583 0.00571299 ) 0 
( 0.0127417 0.00320875 0.000499522 ) 0 
( 0.0087904 0.00781057 0.00605007 ) 0 
( 0.0114884 0.000821019 0.00511186 ) 0 
( 6.80633e-05 0.0045062 0.00179281 ) 0 
( 0.00162518 0.0103871 0.00624482 ) 0 
( 0.000119406 0.00506026 0.00049974 ) 0 
( 0.00886713 0.00672677 0.00356532 ) 0 
( 0.00304798 0.0121928 0.00718028 ) 0 
( 0.000949763 0.00802434 0.00736196 ) 0 
( 0.00356724 0.0102851 0.00673246 ) 0 
( 0.00846221 0.00102967 0.00587398 ) 0 
( 0.00392597 0.00704699 0.00274874 ) 0 
( 0.00690838 0.00785281 0.00223493 ) 0 
( 0.00844155 0.0035023 0.00528559 ) 0 
( 0.0107554 0.0049779 0.00238307 ) 0 
( 0.00614476 0.00727862 0.00252874 ) 0 
( 0.00993509 0.00190324 0.00559176 ) 0 
( 0.0109054 0.00143095 0.00220439 ) 0 
( 0.0124365 0.000441876 0.00674634 ) 0 
( 8.83217e-05 0.0023523 0.0055031 ) 0 
( 0.00072823 0.0126128 0.00412049 ) 0 
( 0.0040137 0.00176851 0.00777537 ) 0 
( 0.00475686 0.00131976 0.00317738 ) 0 
( 0.00169713 0.000443603 0.00276181 ) 0 
( 0.0041794 0.00794669 0.00657048 ) 0 
( 0.00123986 0.00525134 0.00699504 ) 0 
( 0.00602993 0.000560543 0.00463337 ) 0 
( 0.0132911 0.00126232 0.00651018 ) 0 
( 0.00973372 0.00635018 0.0032386 ) 0 
( 0.00308236 0.00582327 0.00194446 ) 0 
( 0.0075064 0.00473892 0.00128733 ) 0 
( 0.00923994 0.00480305 0.00438966 ) 0 
( 0.00799711 0.00540197 0.00198751 ) 0 
( 0.00384662 0.00835403 0.00159012 ) 0 
( 0.00408798 0.0127074 0.00366089 ) 0 
( 0.010326 0.00846244 0.00721731 ) 0 
( 0.013253 0.0016072 0.00135996 ) 0 
( 0.00169881 0.00982038 0.00362396 ) 0 
( 0.00667663 0.00307994 0.00189898 ) 0 
( 0.00205349 0.00640111 0.00205291 ) 0 
( 0.00544327 0.00671255 0.00575978 ) 0 
( 0.00188401 0.0132168 0.00256591 ) 0 
( 0.000110043 0.00182996 0.00460051 ) 0 
( 0.0007532 0.00654179 0.00765207 ) 0 
( 0.0086783 0.0066047 0.00453854 ) 0 
( 0.00356199 0.00654742 0.00523925 ) 0 
( 4.16217e-05 0.000681923 0.00586186 ) 0 
( 0.00226933 0.00767207 0.00208422 ) 0 
( 0.0036125 0.0101425 0.00129923 ) 0 
( 0.00473837 0.00769086 0.00436277 ) 0 
( 0.00126202 0.00683857 0.00599323 ) 0 
( 3.45286e-05 0.000841055 0.00472174 ) 0 
( 0.000241799 0.0124716 0.000499556 ) 0 
( 0.00582986 0.00864845 0.00555035 ) 0 
( 0.000102886 0.011787 0.00555685 ) 0 
( 0.0102262 0.00360212 0.00148364 ) 0 
( 0.00142357 0.0081569 0.00479968 ) 0 
( 0.00151986 0.00972322 0.00698507 ) 0 
( 0.00203225 0.010745 0.00233424 ) 0 
( 0.0012636 0.00710416 0.00699773 ) 0 
( 0.0126266 0.000204075 0.00484116 ) 0 
( 0.0103996 0.00689348 0.00374963 ) 0 
( 0.00828232 0.00616534 0.00535017 ) 0 
( 0.00904603 0.00404322 0.0064311 ) 0 
( 0.00196823 0.000742083 0.00184677 ) 0 
( 0.000340412 0.00561185 0.00184825 ) 0 
( 0.00898214 0.00695307 0.000499791 ) 0 
( 0.000196346 0.0125634 0.00216228 ) 0 
( 0.00131691 0.00425924 0.00690066 ) 0 
( 0.00534118 0.00147406 0.00795191 ) 0 
( 0.0106512 0.0060857 0.00049953 ) 0 
( 0.00600901 0.00613221 0.00645493 ) 0 
( 0.000427154 0.0101493 0.000499423 ) 0 
( 0.0106531 0.00254633 0.00386818 ) 0 
( 0.00206543 0.0131904 0.00354759 ) 0 
( 0.0106244 0.00111285 0.000505613 ) 0 
( 0.00898215 0.00544142 0.00182692 ) 0 
( 0.00993163 0.00891052 0.00536847 ) 0 
( 0.000874109 0.00723361 0.00271525 ) 0 
( 0.00637115 0.0076233 0.00603059 ) 0 
( 0.00763054 0.00341266 0.00326149 ) 0 
( 0.00379718 0.00329517 0.004423 ) 0 
( 0.00922736 0.000475219 0.00652857 ) 0 
( 0.00209532 0.0123232 0.00296183 ) 0 
( 0.00393639 0.00612457 0.00236595 ) 0 
( 0.0123484 0.00120625 0.00477947 ) 0 
( 0.00578525 0.0100875 0.00390891 ) 0 
( 0.000375703 0.0132067 0.00675613 ) 0 
( 0.0104721 0.00589801 0.00374358 ) 0 
( 0.00421132 0.00880264 0.00410954 ) 0 
( 0.00398724 0.00787432 0.000499193 ) 0 
( 0.00278526 0.00947185 0.00469119 ) 0 
( 9.92828e-06 0.00927642 0.0064704 ) 0 
( 0.00141579 0.00567849 0.00148391 ) 0 
( 0.00749721 0.00787369 0.00142865 ) 0 
( 0.0106048 0.00811103 0.00632489 ) 0 
( 0.000186422 0.00203235 0.00299008 ) 0 
( 0.00136302 0.00244998 0.00581477 ) 0 
( 0.00893776 0.00567077 0.00478102 ) 0 
( 0.00685026 0.0083945 0.00755994 ) 0 
( 0.00423853 0.0117627 0.0039514 ) 0 
( 0.0131648 0.00221677 0.00230821 ) 0 
( 0.0099713 0.00759258 0.00318273 ) 0 
( 0.00176029 0.00480037 0.00112769 ) 0 
( 0.00665567 0.00702945 0.00683774 ) 0 
( 0.00480531 0.0114238 0.00470488 ) 0 
( 0.00822015 0.00700589 0.00588644 ) 0 
( 0.00405299 0.00697302 0.00447983 ) 0 
( 0.00601657 0.00439318 0.00473885 ) 0 
( 0.00539086 0.0027224 0.00446882 ) 0 
( 0.00335974 0.00225156 0.00602821 ) 0 
( 0.00603072 0.00821104 0.00398875 ) 0 
( 0.00491613 0.011347 0.00229036 ) 0 
( 0.00372615 0.00162971 0.000499312 ) 0 
( 0.00267659 0.000371021 0.00246262 ) 0 
( 0.00922834 0.00215595 0.000783864 ) 0 
( 0.00127307 0.0126589 0.00667979 ) 0 
( 0.00524016 0.000473241 0.00295698 ) 0 
( 0.0015256 0.00389137 0.00147102 ) 0 
( 0.00691792 0.00102077 0.00777543 ) 0 
( 0.00799088 0.00382928 0.00105174 ) 0 
( 0.00302013 0.010305 0.000498839 ) 0 
( 0.00973643 0.00804866 0.00583583 ) 0 
( 0.00839332 0.00402613 0.00305955 ) 0 
( 0.00367519 0.00452381 0.00319731 ) 0 
( 0.000238379 0.00587038 0.00540767 ) 0 
( 0.00153283 0.00678642 0.0050291 ) 0 
( 0.00286298 0.0075927 0.000499465 ) 0 
( 0.00440859 0.00484216 0.00132074 ) 0 
( 0.00515169 0.0104329 0.00600202 ) 0 
( 0.0063476 0.00719061 0.00144908 ) 0 
( 0.00395771 0.000158087 0.00116572 ) 0 
( 0.00428239 0.010842 0.00532769 ) 0 
( 0.000179223 0.0118153 0.00382345 ) 0 
( 0.0118223 0.00256196 0.00593694 ) 0 
( 0.00157703 0.00653537 0.000995754 ) 0 
( 0.000682414 0.001334 0.000498902 ) 0 
( 0.000996296 0.0133146 0.00597944 ) 0 
( 0.0126086 0.000686603 0.00158713 ) 0 
( 0.0068506 0.00188783 0.00623647 ) 0 
( 0.00442794 0.00338533 0.00240591 ) 0 
( 0.00489743 0.00271923 0.000499096 ) 0 
( 0.00800477 0.00321814 0.00186966 ) 0 
( 0.00960041 0.00252836 0.00313471 ) 0 
( 0.0130452 0.00281214 0.00151387 ) 0 
( 0.00674229 0.0115226 0.00325453 ) 0 
( 0.00917111 0.00499026 0.000939529 ) 0 
( 0.00503049 0.000181349 0.000974969 ) 0 
( 0.00934393 0.00645627 0.00526841 ) 0 
( 0.00909537 0.0031571 0.00596181 ) 0 
( 0.00977712 0.0011251 0.00143007 ) 0 
( 0.00218911 0.00628302 0.00562131 ) 0 
( 0.00229405 0.00938757 0.00211101 ) 0 
( 0.0108577 0.0077702 0.00388213 ) 0 
( 0.00755999 0.00529956 0.00364668 ) 0 
( 0.0132484 0.00164714 0.00315289 ) 0 
( 0.00717852 0.00322668 0.00413446 ) 0 
( 0.0026455 0.0118085 0.00129717 ) 0 
( 0.00762551 0.00885816 0.00131963 ) 0 
( 0.0127792 0.00202583 0.0039506 ) 0 
( 0.00318871 0.0129545 0.0065112 ) 0 
( 0.000206151 0.00462106 0.0037157 ) 0 
( 0.00953649 0.000614105 0.00313909 ) 0 
( 0.00762937 0.0109553 0.00667601 ) 0 
( 0.00818311 0.00113327 0.00204778 ) 0 
( 0.00846601 0.00459412 0.00152715 ) 0 
( 0.0053155 0.00950502 0.00552304 ) 0 
( 0.000135214 0.0040589 0.000499027 ) 0 
( 0.0034212 0.0129066 0.00294349 ) 0 
( 0.00272595 0.013069 0.00563235 ) 0 
( 0.00463642 0.000551853 0.00380643 ) 0 
( 0.00615837 0.0117692 0.00631581 ) 0 
( 0.000544419 0.00374291 0.00135971 ) 0 
( 0.00510981 0.00583519 0.00613433 ) 0 
( 0.00400671 0.0105908 0.00049904 ) 0 
( 0.00784908 0.00483454 0.00279704 ) 0 
( 0.000333966 0.0110934 0.0013514 ) 0 
( 0.00774089 0.00619768 0.0045107 ) 0 
( 0.000378852 0.0104454 0.00474893 ) 0 
( 0.00922836 0.00823562 0.000498302 ) 0 
( 0.00778305 0.00810167 0.00264879 ) 0 
( 0.00451391 0.00438092 0.00237901 ) 0 
( 0.0117836 0.00211223 0.00412695 ) 0 
( 0.00711587 0.00937861 0.00453094 ) 0 
( 0.0130207 0.00294748 0.00582872 ) 0 
( 0.00426446 0.00999463 0.00585824 ) 0 
( 0.00977263 0.00495509 0.00220183 ) 0 
( 0.00380937 0.00696513 0.00697528 ) 0 
( 0.0110853 0.00741999 0.00578835 ) 0 
( 0.00773292 0.00415896 0.00206964 ) 0 
( 0.000239057 0.00937853 0.00145596 ) 0 
( 0.00948581 0.00939435 0.00338263 ) 0 
( 0.00340444 0.0129089 0.00139503 ) 0 
( 0.000731759 0.0101984 0.00174329 ) 0 
( 0.00954017 0.00784048 0.00136 ) 0 
( 0.00203903 0.00405717 0.00618899 ) 0 
( 0.0025649 0.00224946 0.00198861 ) 0 
( 0.00644291 0.00591264 0.00732843 ) 0 
( 0.00437932 0.0126125 0.00138349 ) 0 
( 0.00602697 0.011289 0.00742002 ) 0 
( 0.00871921 0.00144152 0.00126213 ) 0 
( 0.00648099 0.00395309 0.00580887 ) 0 
( 0.00832166 0.0104409 0.00400065 ) 0 
( 0.00106332 0.00618343 0.00227353 ) 0 
( 0.00979107 0.00906988 0.000499543 ) 0 
( 0.00835882 0.00771768 0.00336983 ) 0 
( 0.0112353 0.00132148 0.00126811 ) 0 
( 0.000625411 0.00251338 0.00744158 ) 0 
( 0.00338457 0.0112369 0.00513317 ) 0 
( 0.0115504 0.00335899 0.00192503 ) 0 
( 0.00648839 0.00755682 0.000499772 ) 0 
( 0.00996515 0.00566562 0.00645817 ) 0 
( 0.000147311 0.00837597 0.00688019 ) 0 
( 0.0058759 0.010952 0.00320623 ) 0 
( 0.00627185 0.0027435 0.00500456 ) 0 
( 0.00248526 0.013114 0.00466303 ) 0 
( 0.00368884 0.00265069 0.000499792 ) 0 
( 0.0128863 0.0034946 0.00500303 ) 0 
( 0.00497744 0.0110359 0.000499785 ) 0 
( 0.00593209 0.0099202 0.00252182 ) 0 
( 0.00033282 0.00681266 0.00508819 ) 0 
( 0.00393566 0.00178837 0.00349889 ) 0 
( 0.00544163 0.00229973 0.00299905 ) 0 
( 0.00267405 0.00312378 0.00554355 ) 0 
( 0.00642879 0.00235349 0.00125298 ) 0 
( 0.00342034 0.0111668 0.00106821 ) 0 
( 0.0113744 0.00227914 0.00323036 ) 0 
( 0.00377007 0.00310759 0.00170706 ) 0 
( 0.00307526 0.00379627 0.00669148 ) 0 
( 0.00417969 0.00236039 0.00438539 ) 0 
( 0.00351563 0.00559033 0.00495449 ) 0 
( 0.0103417 0.000894949 0.00482925 ) 0 
( 0.00138763 0.0116841 0.0068592 ) 0 
( 0.0122157 0.0027779 0.00683058 ) 0 
( 0.0106511 0.00797596 0.00229025 ) 0 
( 0.0127925 0.0013899 0.00049945 ) 0 
( 0.000260955 0.0132948 0.00136426 ) 0 
( 0.00573012 0.000521733 0.00629587 ) 0 
( 0.00388148 0.000516967 0.00446069 ) 0 
( 0.00941236 0.00150902 0.00483705 ) 0 
( 0.00466383 0.0125091 0.00589693 ) 0 
( 0.00306518 0.00753834 0.00663317 ) 0 
( 0.00460834 0.00618176 0.00310379 ) 0 
( 0.00660556 0.00491616 0.00722143 ) 0 
( 0.00354099 0.00262208 0.0051167 ) 0 
( 0.00298676 0.00274273 0.00120612 ) 0 
( 6.41699e-05 0.00821053 0.000498646 ) 0 
( 0.0109829 0.00759336 0.0012995 ) 0 
( 0.00636588 0.0117347 0.00512686 ) 0 
( 0.00854102 0.00242526 0.00356904 ) 0 