FoamFile
{version 2.0; format ascii;class Cloud<passiveParticle>; location 0;object  positions;}
2497
(
( -0.002353 0.000119827 0.00185922 ) 0 
( -0.0123459 0.000648768 0.00320208 ) 0 
( -0.0123508 0.000398368 0.00223448 ) 0 
( -0.0087503 0.000189914 0.00561934 ) 0 
( -0.008491 8.72061e-05 0.00370918 ) 0 
( -0.00220656 0.000641126 0.00761033 ) 0 
( -0.00319547 0.000164693 0.00132476 ) 0 
( -0.011961 0.000114705 0.00135954 ) 0 
( -0.00428056 0.000120837 0.00598682 ) 0 
( -0.00029456 9.67133e-05 0.00286351 ) 0 
( -0.0110711 8.97741e-05 0.0064382 ) 0 
( -0.0133442 0.00041574 0.00212916 ) 0 
( -0.00587302 0.000178857 0.00338716 ) 0 
( -0.00375446 0.000121152 0.000497738 ) 0 
( -0.00831971 0.000276636 0.00271899 ) 0 
( -0.00524806 0.000405798 0.00810139 ) 0 
( -0.00938661 2.61714e-05 0.0129735 ) 0 
( -0.00485736 1.01695e-05 0.0128711 ) 0 
( -0.0110832 0.00152252 0.0141667 ) 0 
( -0.0112462 0.00325447 0.0149782 ) 0 
( -0.00775295 0.000632981 0.0142098 ) 0 
( -0.00668456 0.000213813 0.014493 ) 0 
( -0.000892527 0.000117656 0.0106519 ) 0 
( -0.00691019 4.168e-05 0.0130823 ) 0 
( -0.012734 0.000250478 0.0120491 ) 0 
( -0.010862 0.000568859 0.0139634 ) 0 
( -0.00826895 0.000493241 0.0128856 ) 0 
( -0.00593817 0.000270668 0.0131252 ) 0 
( -0.00234212 6.92486e-05 0.0115499 ) 0 
( -0.00283421 4.09969e-06 0.00898598 ) 0 
( -0.00911633 0.000991065 0.00162084 ) 0 
( -0.0011426 0.00974758 0.00123909 ) 0 
( -0.00617056 0.00410886 0.00401826 ) 0 
( -0.00541045 0.0037637 0.00697695 ) 0 
( -0.00202235 0.00568866 0.00324523 ) 0 
( -0.000618466 0.0116311 0.00749924 ) 0 
( -0.00112793 0.0120369 0.00154837 ) 0 
( -0.01251 0.00187974 0.00144 ) 0 
( -0.00650541 0.00614341 0.00475177 ) 0 
( -0.00263869 0.0109426 0.00732442 ) 0 
( -0.0120657 0.00259705 0.000498897 ) 0 
( -0.00344601 0.00875986 0.00453677 ) 0 
( -0.00999216 0.00262337 0.000499814 ) 0 
( -0.00983352 0.00765107 0.000498728 ) 0 
( -0.0105149 0.00658051 0.00290191 ) 0 
( -0.0072796 0.00430447 0.00211229 ) 0 
( -0.00428381 0.0055359 0.00335628 ) 0 
( -0.0032846 0.00544027 0.00324725 ) 0 
( -0.0108894 0.00562416 0.00118947 ) 0 
( -0.0121304 0.000987256 0.00591322 ) 0 
( -0.0075615 0.00631376 0.00620939 ) 0 
( -0.00256855 0.00165584 0.00546064 ) 0 
( -0.00390862 0.00886108 0.00541622 ) 0 
( -0.00525348 0.0043938 0.00487776 ) 0 
( -0.00548607 0.0060293 0.00217527 ) 0 
( -0.00672735 0.00932758 0.000499099 ) 0 
( -0.000372513 0.0052357 0.00436931 ) 0 
( -0.011096 0.00311412 0.000499788 ) 0 
( -0.00108288 0.0105198 0.00322432 ) 0 
( -0.00859215 0.00921715 0.00576473 ) 0 
( -0.00068735 0.00733438 0.00537742 ) 0 
( -0.00634956 0.000459868 0.00203569 ) 0 
( -0.0053328 0.0093433 0.00200576 ) 0 
( -0.0123121 0.00516208 0.0047468 ) 0 
( -0.0016675 0.00499001 0.00123967 ) 0 
( -0.00090965 0.00356455 0.0033632 ) 0 
( -0.0126554 0.004252 0.000499079 ) 0 
( -0.000865292 0.00780859 0.0038063 ) 0 
( -0.00692933 0.00974083 0.00237983 ) 0 
( -0.00550775 0.00222945 0.00734496 ) 0 
( -0.00335479 0.00945163 0.0060058 ) 0 
( -0.00172236 0.0077937 0.00665725 ) 0 
( -0.0104514 0.00319472 0.00228112 ) 0 
( -0.00364838 0.00615758 0.00498887 ) 0 
( -0.00112686 0.00437268 0.0067116 ) 0 
( -0.00134492 0.00945586 0.00330836 ) 0 
( -0.01108 0.0046622 0.00341808 ) 0 
( -0.00314531 0.00873041 0.000499243 ) 0 
( -0.000571682 0.0126871 0.00387764 ) 0 
( -0.0106308 0.00159634 0.00135301 ) 0 
( -0.0084408 0.00375172 0.00380054 ) 0 
( -0.00896239 0.00803244 0.00566604 ) 0 
( -0.0050496 0.00307682 0.000946905 ) 0 
( -0.00202032 0.00442122 0.000498106 ) 0 
( -0.00164846 0.0104514 0.00404441 ) 0 
( -0.00296935 0.00234548 0.00485889 ) 0 
( -0.00945582 0.000330549 0.00426796 ) 0 
( -0.00376403 0.0103526 0.00586493 ) 0 
( -0.00323929 0.0120381 0.00682841 ) 0 
( -0.00698196 0.00325143 0.00499003 ) 0 
( -0.00800263 0.00457671 0.00344964 ) 0 
( -0.00325497 0.00554474 0.00567813 ) 0 
( -0.0100404 0.00724135 0.00138501 ) 0 
( -0.00164823 0.00131974 0.00294173 ) 0 
( -0.00573977 0.00712199 0.00336979 ) 0 
( -0.0010495 0.00802415 0.00216984 ) 0 
( -0.0058045 0.00138606 0.00687744 ) 0 
( -0.00262175 0.00110368 0.00682909 ) 0 
( -0.000623207 0.00501609 0.0033217 ) 0 
( -0.00386044 0.00978762 0.00504731 ) 0 
( -0.00724626 0.0100243 0.0013657 ) 0 
( -0.00431075 0.0106981 0.00215944 ) 0 
( -0.00533386 0.0083556 0.00495985 ) 0 
( -0.00596451 0.0104407 0.00641071 ) 0 
( -0.0119521 0.00483608 0.00387353 ) 0 
( -0.00498331 0.00285938 0.00191915 ) 0 
( -0.00185425 0.0108092 0.00636437 ) 0 
( -0.00214858 0.00446214 0.00455175 ) 0 
( -0.00557146 0.000593515 0.00141583 ) 0 
( -0.00220807 0.000787206 0.00579845 ) 0 
( -0.00967487 0.00396779 0.00498999 ) 0 
( -0.0104257 0.00309125 0.00128725 ) 0 
( -0.00146994 0.0067597 0.0068383 ) 0 
( -0.00267278 0.00565234 0.00248683 ) 0 
( -0.00797717 0.00052195 0.00715241 ) 0 
( -0.0121221 0.00245466 0.00322275 ) 0 
( -0.00287674 0.0112477 0.00413749 ) 0 
( -0.000594731 0.0105175 0.00654671 ) 0 
( -0.00271617 0.00283152 0.00243165 ) 0 
( -0.00194813 0.00979597 0.00190223 ) 0 
( -0.00441305 0.00579645 0.00670664 ) 0 
( -0.00597386 0.0052926 0.00144277 ) 0 
( -0.00688965 0.00288692 0.00374265 ) 0 
( -0.0068153 0.00128867 0.0072433 ) 0 
( -0.0044906 0.00350825 0.00249616 ) 0 
( -0.0109136 0.00414435 0.00638607 ) 0 
( -0.0089083 0.00586409 0.00392642 ) 0 
( -0.00413455 0.00237097 0.00283453 ) 0 
( -0.00300905 0.00259011 0.00587465 ) 0 
( -0.000127989 0.00308482 0.00196392 ) 0 
( -0.00326702 0.00899876 0.00269452 ) 0 
( -0.00667887 0.0115593 0.00533927 ) 0 
( -0.00238454 0.00716136 0.00463631 ) 0 
( -0.00775253 0.00259378 0.00333226 ) 0 
( -0.0033784 0.00324002 0.00468256 ) 0 
( -0.0114801 0.000810043 0.00516318 ) 0 
( -0.00991669 0.00742298 0.00235867 ) 0 
( -0.011196 0.00430418 0.004343 ) 0 
( -0.000985966 0.00341965 0.0077302 ) 0 
( -0.00770459 0.00662956 0.00714722 ) 0 
( -0.00167954 0.000811776 0.000499107 ) 0 
( -0.0130418 0.0028602 0.00593107 ) 0 
( -0.00383966 0.00652574 0.00707718 ) 0 
( -0.000955421 0.00164856 0.00460553 ) 0 
( -7.05878e-05 0.00954794 0.00445228 ) 0 
( -0.00242992 0.00896054 0.00404481 ) 0 
( -0.000146187 0.00389415 0.00255051 ) 0 
( -0.0120202 0.00580891 0.00545114 ) 0 
( -0.00792126 0.0075358 0.0067852 ) 0 
( -0.00476438 0.00409113 0.00766588 ) 0 
( -0.0121678 0.0029 0.00144508 ) 0 
( -0.00447836 0.00349549 0.00596094 ) 0 
( -0.00381298 0.0051374 0.00715865 ) 0 
( -0.0100362 0.00201205 0.00360934 ) 0 
( -0.0106395 0.00532682 0.00568463 ) 0 
( -0.00951271 0.000683533 0.00520114 ) 0 
( -0.00610106 0.00143335 0.00131109 ) 0 
( -0.00330202 0.000789752 0.00365052 ) 0 
( -0.0076512 0.000211316 0.00807486 ) 0 
( -0.0113136 0.00708748 0.0046333 ) 0 
( -0.00338367 0.0108194 0.00339112 ) 0 
( -0.00454736 0.000520088 0.00481105 ) 0 
( -0.00509405 0.0026232 0.00309445 ) 0 
( -0.00881999 0.00626113 0.00300858 ) 0 
( -0.0044506 0.00789012 0.00693139 ) 0 
( -0.00582657 0.000668714 0.00596319 ) 0 
( -0.00554889 0.00795003 0.00207481 ) 0 
( -0.00306463 0.00693977 0.00533513 ) 0 
( -0.00283066 0.00762287 0.00602626 ) 0 
( -0.00125683 0.000378892 0.00744847 ) 0 
( -0.0128021 0.00072054 0.00134289 ) 0 
( -0.00971792 0.00630131 0.00344521 ) 0 
( -0.0119106 0.00108107 0.00160764 ) 0 
( -0.00282569 0.0108063 0.000499723 ) 0 
( -0.00439327 0.00835474 0.00462167 ) 0 
( -0.00830981 0.00450982 0.00250204 ) 0 
( -0.00171303 0.00293941 0.00347095 ) 0 
( -0.00343799 0.0129018 0.00190981 ) 0 
( -0.0036875 0.00842075 0.00729621 ) 0 
( -0.00335501 0.00953409 0.00126469 ) 0 
( -0.00512256 0.0114079 0.00126938 ) 0 
( -0.0113543 0.00126351 0.000499818 ) 0 
( -0.00325876 0.00203103 0.00214789 ) 0 
( -0.00534717 0.0102816 0.00564172 ) 0 
( -0.00230847 0.00649045 0.00128013 ) 0 
( -0.00305569 0.000276755 0.00565536 ) 0 
( -0.00965724 0.00819398 0.0029377 ) 0 
( -0.0130513 0.00275628 0.00692468 ) 0 
( -0.00520317 0.00696606 0.00248297 ) 0 
( -0.00792587 0.00544609 0.00131019 ) 0 
( -0.00655173 0.00780001 0.00592586 ) 0 
( -0.00459039 0.00767733 0.00213946 ) 0 
( -0.00596474 0.0119442 0.003186 ) 0 
( -0.00307657 0.0115477 0.00506836 ) 0 
( -0.00873968 0.00866364 0.00134504 ) 0 
( -0.0104468 0.000777323 0.00484373 ) 0 
( -0.00318693 0.0057957 0.00674315 ) 0 
( -0.00292953 0.00940013 0.00510289 ) 0 
( -0.0108955 0.00113828 0.00346637 ) 0 
( -0.00368403 0.00580282 0.000895495 ) 0 
( -0.00966801 0.00566534 0.000538247 ) 0 
( -0.0021867 0.0122801 0.00250188 ) 0 
( -0.00495961 0.0100678 0.00258224 ) 0 
( -0.00691769 0.00509522 0.0050544 ) 0 
( -0.00602785 0.000902154 0.00772203 ) 0 
( -0.00702655 0.00699061 0.00442597 ) 0 
( -0.00555942 0.00163095 0.000497597 ) 0 
( -0.00382453 0.0107476 0.000499766 ) 0 
( -0.00331239 0.00117471 0.00496334 ) 0 
( -0.00189367 0.00821468 0.00365172 ) 0 
( -8.03483e-05 0.00574907 0.0028686 ) 0 
( -0.0115476 0.00195444 0.00119943 ) 0 
( -0.0048609 0.00164073 0.00546061 ) 0 
( -0.00440597 0.00348316 0.00695711 ) 0 
( -0.00248987 0.00429079 0.00547531 ) 0 
( -0.0097787 0.00247966 0.00445224 ) 0 
( -0.00968835 0.00376412 0.00130984 ) 0 
( -0.00152945 0.0106425 0.00157395 ) 0 
( -0.00139245 0.009026 0.00615228 ) 0 
( -0.00230094 0.0107123 0.00475435 ) 0 
( -0.00213095 0.00467212 0.00649923 ) 0 
( -0.00383322 0.00417263 0.00203631 ) 0 
( -0.00409566 0.00100552 0.00555968 ) 0 
( -0.000332936 0.00679977 0.00331279 ) 0 
( -0.00746928 0.00457042 0.00116734 ) 0 
( -0.00780608 0.0108301 0.00208317 ) 0 
( -0.00846537 0.00249813 0.00680913 ) 0 
( -0.00718298 0.00208454 0.0063094 ) 0 
( -0.00623913 0.00221134 0.004146 ) 0 
( -0.00427844 0.00861861 0.00202484 ) 0 
( -0.00813518 0.00363784 0.0020473 ) 0 
( -0.0109055 0.00770331 0.00618652 ) 0 
( -0.00914477 0.00133497 0.000499829 ) 0 
( -0.00562488 0.00376331 0.000498601 ) 0 
( -0.00773021 0.00598829 0.000496822 ) 0 
( -0.00403355 0.0123227 0.00135647 ) 0 
( -0.00307528 0.0046959 0.00617566 ) 0 
( -0.00502574 0.000187211 0.000499786 ) 0 
( -0.0120768 0.0022986 0.00223739 ) 0 
( -0.00488426 0.0111826 0.00392875 ) 0 
( -0.00328262 0.000398073 0.00708045 ) 0 
( -0.0112617 0.00195583 0.00717038 ) 0 
( -0.00204663 0.00388215 0.00783443 ) 0 
( -0.00429087 0.00338937 0.00346801 ) 0 
( -0.0027036 0.0114383 0.0027161 ) 0 
( -0.00138863 0.0132784 0.00182378 ) 0 
( -0.0121436 0.00402455 0.00180396 ) 0 
( -4.39881e-06 0.00299048 0.000501663 ) 0 
( -0.00859352 0.00494584 0.00416686 ) 0 
( -0.000878428 0.00833005 0.00665344 ) 0 
( -0.00293167 0.0067929 0.00675613 ) 0 
( -0.00681006 0.00902371 0.00306602 ) 0 
( -0.00596467 0.00770133 0.00118707 ) 0 
( -2.98587e-05 0.0105238 0.0057021 ) 0 
( -0.00972194 0.00845539 0.0013425 ) 0 
( -0.00978564 0.00160831 0.00494044 ) 0 
( -0.0114857 0.00463083 0.00135941 ) 0 
( -0.00228929 0.0019634 0.00721391 ) 0 
( -6.44376e-06 0.00820582 0.00412968 ) 0 
( -0.00169236 0.00642022 0.000497738 ) 0 
( -0.00753681 0.0069704 0.000499773 ) 0 
( -0.00309413 0.00958477 0.00702526 ) 0 
( -0.00210333 0.0122462 0.0014882 ) 0 
( -0.00204497 0.0131931 0.0046975 ) 0 
( -0.00562221 0.012109 0.00538609 ) 0 
( -0.00735977 0.00498104 0.00416491 ) 0 
( -0.00279932 0.00738704 0.00132248 ) 0 
( -0.00430259 0.00586435 0.00568389 ) 0 
( -0.0123473 0.00226667 0.00417699 ) 0 
( -0.00439968 0.00301353 0.00441682 ) 0 
( -0.00106447 0.00427013 0.00267314 ) 0 
( -0.00399252 0.00976529 0.00199761 ) 0 
( -0.00623424 0.00157235 0.00844918 ) 0 
( -0.00371224 0.0128255 0.00571537 ) 0 
( -0.00669508 0.00807189 0.00334879 ) 0 
( -0.00133889 0.00279237 0.00132041 ) 0 
( -0.00445082 0.00381363 0.00501379 ) 0 
( -0.0089304 0.00353332 0.00549749 ) 0 
( -0.00480556 0.00548593 0.00761234 ) 0 
( -0.000154121 0.0120165 0.00129512 ) 0 
( -0.00171585 0.00301644 0.00828064 ) 0 
( -0.00371117 0.00293353 0.00212468 ) 0 
( -0.00017422 0.0071861 0.000498447 ) 0 
( -0.000112843 0.00996117 0.00221689 ) 0 
( -0.0085261 0.0060664 0.00637873 ) 0 
( -0.00128179 0.00929574 0.00519623 ) 0 
( -0.00586364 0.00251671 0.00507711 ) 0 
( -0.00218347 0.00343754 0.00589563 ) 0 
( -0.0101964 0.00743151 0.00331803 ) 0 
( -0.000110372 0.0108558 0.00282523 ) 0 
( -0.00101807 0.00846814 0.00307046 ) 0 
( -0.0050916 0.00506615 0.00185045 ) 0 
( -0.00168537 0.00528049 0.00421332 ) 0 
( -0.0054009 0.0103142 0.00398864 ) 0 
( -0.00140724 0.00593329 0.00491685 ) 0 
( -0.00370833 0.00394644 0.00641069 ) 0 
( -0.00984407 0.00901846 0.00713592 ) 0 
( -0.0013687 0.00753794 0.00298583 ) 0 
( -0.00612123 0.0110785 0.000500242 ) 0 
( -0.00251366 0.00443948 0.00136549 ) 0 
( -0.00711532 0.00611046 0.00396125 ) 0 
( -0.011961 0.00356687 0.000717674 ) 0 
( -0.0116747 0.00158307 0.00302815 ) 0 
( -0.00634367 0.0102385 0.00432176 ) 0 
( -0.00924188 0.000304908 0.00233492 ) 0 
( -0.00448237 0.00217283 0.00787546 ) 0 
( -0.00278381 0.0130555 0.00398622 ) 0 
( -0.00977347 0.00786328 0.00462789 ) 0 
( -0.000331856 0.00774898 0.00296265 ) 0 
( -0.0073389 0.000122818 0.00170779 ) 0 
( -0.00991813 0.00339891 0.0039475 ) 0 
( -9.78531e-05 0.000462473 0.00193342 ) 0 
( -0.00552252 0.00933051 0.00539175 ) 0 
( -0.00676809 0.0050438 0.00325045 ) 0 
( -0.00360541 0.00451366 0.0010767 ) 0 
( -0.0113139 0.00183155 0.00618066 ) 0 
( -0.00462702 0.0019886 0.000499523 ) 0 
( -0.000119332 0.000547938 0.000499389 ) 0 
( -0.00385123 0.00162352 0.00732841 ) 0 
( -0.000641921 0.00593651 0.00370893 ) 0 
( -0.00719914 0.00770881 0.00509963 ) 0 
( -0.00390698 0.00237192 0.00131647 ) 0 
( -0.00685703 0.00892745 0.00667783 ) 0 
( -0.00709548 0.00822604 0.00425067 ) 0 
( -0.00837058 0.00271019 0.00143305 ) 0 
( -0.00398449 0.00285376 0.00537603 ) 0 
( -0.000719606 0.0102035 0.00505436 ) 0 
( -0.00158954 0.0113993 0.00302513 ) 0 
( -0.0133133 0.0010074 0.00580028 ) 0 
( -0.0084068 0.00278821 0.00406112 ) 0 
( -0.00920641 0.00963478 0.00508206 ) 0 
( -0.000279761 0.0073057 0.00446541 ) 0 
( -0.00987021 0.00698955 0.00415295 ) 0 
( -0.00927507 0.00779084 0.00376685 ) 0 
( -0.011836 0.00617712 0.00147635 ) 0 
( -0.00292156 0.00978255 0.00213077 ) 0 
( -0.0108607 0.00776066 0.000499796 ) 0 
( -0.00337321 0.00638231 0.00280576 ) 0 
( -4.13125e-05 0.00127081 0.00118529 ) 0 
( -0.00471103 0.00452305 0.00570687 ) 0 
( -0.000639095 0.00165968 0.00700916 ) 0 
( -0.0116322 0.00487857 0.00596248 ) 0 
( -0.000565749 0.00506221 0.00232542 ) 0 
( -0.00405654 0.0111347 0.00641235 ) 0 
( -0.00893363 0.00685444 0.00380443 ) 0 
( -0.012707 0.00365756 0.00542923 ) 0 
( -0.0125222 0.0046315 0.00556748 ) 0 
( -0.0110436 0.00211835 0.00359143 ) 0 
( -0.00739238 0.00171517 0.00385342 ) 0 
( -0.000702692 0.00973559 0.00593634 ) 0 
( -0.00286211 0.0130407 0.000499035 ) 0 
( -0.00674072 0.00603881 0.00706269 ) 0 
( -0.00820206 0.000620975 0.00178371 ) 0 
( -0.0128323 0.00368224 0.00647555 ) 0 
( -0.00805397 0.0076446 0.00227794 ) 0 
( -0.00930131 0.00417071 0.00408667 ) 0 
( -0.00178952 0.0114826 0.0020501 ) 0 
( -0.0100161 0.00882838 0.00470539 ) 0 
( -0.00322937 0.00118137 0.00604047 ) 0 
( -0.0123259 0.00201762 0.00614392 ) 0 
( -0.0114165 0.000286094 0.00326708 ) 0 
( -0.000935685 0.00744948 0.00108808 ) 0 
( -0.00690892 0.010389 0.0060884 ) 0 
( -0.00327761 0.00771818 0.000499788 ) 0 
( -0.0108682 0.00598688 0.0063979 ) 0 
( -0.00674718 0.00440351 0.0004976 ) 0 
( -0.00149554 0.00192911 0.00381275 ) 0 
( -0.00838419 0.00848518 0.00641181 ) 0 
( -0.0100518 0.00369692 0.00587419 ) 0 
( -0.00595153 0.0068769 0.00717396 ) 0 
( -0.011824 0.00173432 0.00532736 ) 0 
( -0.00130566 0.00657231 0.00331663 ) 0 
( -0.00128656 0.00181877 0.00555218 ) 0 
( -0.00210363 0.00236115 0.00179737 ) 0 
( -0.000472572 0.00969136 0.000499096 ) 0 
( -0.00488539 0.000933678 0.0061674 ) 0 
( -0.00114711 0.00685265 0.00426328 ) 0 
( -0.000850595 0.00686637 0.00246053 ) 0 
( -0.0014832 0.0123951 0.00443933 ) 0 
( -0.00499124 0.011348 0.00669218 ) 0 
( -0.000793613 0.00128859 0.00049979 ) 0 
( -0.0108915 0.0036328 0.00366835 ) 0 
( -0.00193913 0.011648 0.00722157 ) 0 
( -0.0031744 0.00369577 0.00145497 ) 0 
( -0.00122777 0.00978185 0.00678483 ) 0 
( -0.00949452 0.0043108 0.00049756 ) 0 
( -0.0101693 0.00705275 0.00510415 ) 0 
( -0.000581536 0.00432065 0.00757807 ) 0 
( -0.011921 0.00326912 0.00241989 ) 0 
( -0.00872924 0.00600556 0.000499427 ) 0 
( -0.00873283 0.00116764 0.00252628 ) 0 
( -0.00165421 0.0115004 0.00401773 ) 0 
( -0.00648394 0.00700102 0.005265 ) 0 
( -0.0110255 0.000661243 0.00141193 ) 0 
( -0.0108636 0.0021346 0.000497352 ) 0 
( -0.00265364 0.00532785 0.00744749 ) 0 
( -0.00411128 0.0113291 0.00141286 ) 0 
( -0.0094079 0.00627917 0.00468576 ) 0 
( -0.0019226 0.00624442 0.00409808 ) 0 
( -0.0048594 0.00774085 0.00603151 ) 0 
( -0.00417759 0.00288096 0.000499679 ) 0 
( -0.00953676 0.00669608 0.000499786 ) 0 
( -0.00542965 0.0022201 0.00129394 ) 0 
( -0.00629493 0.00533745 0.000498523 ) 0 
( -0.00264848 0.00530049 0.00476228 ) 0 
( -0.00632632 0.00411339 0.00723823 ) 0 
( -0.00236464 0.00622941 0.00499488 ) 0 
( -0.0106328 0.00175562 0.00443064 ) 0 
( -0.00182488 0.00416291 0.00203369 ) 0 
( -0.00349365 0.00667039 0.00135832 ) 0 
( -0.00702101 0.0029326 0.00274286 ) 0 
( -0.00380958 0.00416308 0.00738043 ) 0 
( -0.00810236 0.0106098 0.00491713 ) 0 
( -0.000662553 0.0111635 0.00141591 ) 0 
( -0.00751196 0.00812307 0.00049743 ) 0 
( -0.00315746 0.00225235 0.00311616 ) 0 
( -0.000395572 0.00571089 0.00627458 ) 0 
( -0.00104783 0.00353672 0.00199501 ) 0 
( -0.00356055 0.0104956 0.0014438 ) 0 
( -0.00428183 0.00677867 0.00448965 ) 0 
( -0.0056175 0.00460597 0.00774149 ) 0 
( -0.0108527 0.0053971 0.00278197 ) 0 
( -0.0124932 0.00470911 0.00656275 ) 0 
( -0.0112759 0.00166144 0.00211395 ) 0 
( -0.0106128 0.00264562 0.00519114 ) 0 
( -0.00469049 0.00440663 0.00669976 ) 0 
( -0.00461575 0.00864122 0.00361916 ) 0 
( -0.00106216 0.0121382 0.00254001 ) 0 
( -0.0130975 0.00259359 0.00181466 ) 0 
( -0.0091889 0.00183946 0.0031096 ) 0 
( -0.00450412 0.00221054 0.00378641 ) 0 
( -0.00459682 0.00935193 0.00131668 ) 0 
( -0.00996819 0.00213902 0.00688635 ) 0 
( -0.00744689 0.00579527 0.00772561 ) 0 
( -0.000338452 0.0124785 0.00705185 ) 0 
( -0.00146584 0.00199723 0.00778008 ) 0 
( -0.00760204 0.00373347 0.00288757 ) 0 
( -0.00228271 0.00176876 0.000497562 ) 0 
( -0.00800088 0.00486168 0.0049861 ) 0 
( -0.00318716 0.00275083 0.000498897 ) 0 
( -0.00860033 0.00175695 0.00123744 ) 0 
( -0.0106785 0.00167572 0.00542548 ) 0 
( -0.0056293 0.00107474 0.0030175 ) 0 
( -0.00829535 0.00402856 0.00608831 ) 0 
( -0.0074418 0.00893482 0.00107622 ) 0 
( -0.00271664 0.00382631 0.00233409 ) 0 
( -0.0022038 0.00271115 0.000822004 ) 0 
( -0.0049165 0.00745264 0.0048653 ) 0 
( -0.00928159 0.00659931 0.00147363 ) 0 
( -0.0066834 0.00144104 0.000498088 ) 0 
( -0.00159328 0.0103443 0.00551864 ) 0 
( -0.00972255 0.0049473 0.00123178 ) 0 
( -0.00749904 0.000417645 0.00327119 ) 0 
( -0.0128862 0.00348856 0.00758512 ) 0 
( -0.000375089 0.00298538 0.00611516 ) 0 
( -0.0055506 0.00440675 0.00125828 ) 0 
( -0.00642978 0.00359152 0.00320315 ) 0 
( -0.0036155 0.00728787 0.00227743 ) 0 
( -0.000915349 0.00445133 0.00161671 ) 0 
( -0.0104385 0.00285028 0.00324266 ) 0 
( -0.00573247 0.00775644 0.00651872 ) 0 
( -0.00234509 0.00275278 0.00660464 ) 0 
( -0.0113767 0.000679654 0.00234988 ) 0 
( -0.00928042 0.00552341 0.00557643 ) 0 
( -0.00683321 0.0114693 0.00744806 ) 0 
( -0.00402736 0.00863568 0.00638218 ) 0 
( -0.000288058 0.00259615 0.00703198 ) 0 
( -0.000751492 0.00636427 0.00560764 ) 0 
( -0.000439639 0.00366949 0.00121502 ) 0 
( -0.00511793 0.00678046 0.00579495 ) 0 
( -0.000301999 0.00639614 0.00699509 ) 0 
( -0.00464401 0.00694772 0.00665925 ) 0 
( -0.00590493 0.00870963 0.00148859 ) 0 
( -0.00620907 0.00990282 0.00313463 ) 0 
( -0.000554866 0.00873212 0.0047771 ) 0 
( -0.00959928 0.00178962 0.00126499 ) 0 
( -0.000554708 0.00601577 0.00203179 ) 0 
( -0.00126918 0.00908643 0.00049973 ) 0 
( -8.52968e-05 0.00199444 0.000498751 ) 0 
( -0.00109897 0.00264923 0.00244741 ) 0 
( -0.00537834 0.00469118 0.00383593 ) 0 
( -0.000917824 0.0110398 0.00575907 ) 0 
( -0.0024231 0.0029702 0.00757652 ) 0 
( -0.00702368 0.0113544 0.00442443 ) 0 
( -0.00586645 0.00153854 0.00528375 ) 0 
( -0.000330043 0.0111177 0.00495665 ) 0 
( -0.0068192 0.0114784 0.00144225 ) 0 
( -0.000652535 0.0123211 0.00611777 ) 0 
( -0.00878401 0.00127786 0.00555408 ) 0 
( -0.0102986 0.00849459 0.00370167 ) 0 
( -0.00435115 0.00658106 0.00283732 ) 0 
( -0.00860179 0.00568109 0.00485923 ) 0 
( -0.0123953 0.00037699 0.000498596 ) 0 
( -0.00698694 0.00418724 0.00464116 ) 0 
( -0.00882729 0.00502923 0.000690725 ) 0 
( -0.00589713 0.00898799 0.00694707 ) 0 
( -0.00423167 0.00103299 0.000499112 ) 0 
( -0.00932498 0.00829222 0.0066871 ) 0 
( -0.000683791 0.0107027 0.00412089 ) 0 
( -0.000273855 0.00291894 0.00294204 ) 0 
( -0.0045536 0.00381801 0.000498081 ) 0 
( -0.00594914 0.0111503 0.00384517 ) 0 
( -0.00794292 0.0101031 0.00328421 ) 0 
( -0.00745092 0.00263653 0.00710053 ) 0 
( -0.00994567 0.00890117 0.0022085 ) 0 
( -4.60429e-05 0.00357348 0.00803218 ) 0 
( -0.00117984 0.00170336 0.00213643 ) 0 
( -0.00479488 0.0124596 0.000499938 ) 0 
( -0.0100771 0.00610494 0.00540743 ) 0 
( -0.00774675 0.0108444 0.00108776 ) 0 
( -0.00771557 0.00167575 0.00704896 ) 0 
( -0.00317192 0.00465375 0.00797228 ) 0 
( -0.00208697 0.00372905 0.00684718 ) 0 
( -0.0125712 0.00261561 0.00508532 ) 0 
( -0.00982764 0.00578515 0.00176376 ) 0 
( -0.00222054 0.00721287 0.0073183 ) 0 
( -0.0071246 0.00435795 0.00668911 ) 0 
( -0.00694364 0.000463097 0.00495036 ) 0 
( -0.00196937 0.0100926 0.00285608 ) 0 
( -0.00835983 0.00187372 0.00366263 ) 0 
( -0.0043327 0.00930327 0.00431248 ) 0 
( -0.00322486 0.0121805 0.00420616 ) 0 
( -0.0084245 0.00460167 0.00149988 ) 0 
( -0.00961608 0.00159052 0.00224318 ) 0 
( -0.00719322 0.000950669 0.00224942 ) 0 
( -0.00465237 0.0121449 0.00562654 ) 0 
( -0.0114514 0.00686487 0.000498433 ) 0 
( -0.00685429 0.00698493 0.00676233 ) 0 
( -0.000195931 0.00787217 0.006084 ) 0 
( -0.00183434 0.000956407 0.0020298 ) 0 
( -0.0101384 0.00144649 0.000497916 ) 0 
( -0.00799342 0.0094602 0.00172234 ) 0 
( -0.00817594 0.00311237 0.00497729 ) 0 
( -0.00822252 0.00708461 0.00308687 ) 0 
( -0.00904826 0.00866527 0.00489532 ) 0 
( -0.00424507 0.0126576 0.00258706 ) 0 
( -0.00862199 0.000562218 0.000868251 ) 0 
( -0.00712093 0.0029287 0.00049968 ) 0 
( -0.0056831 0.00755056 0.00549928 ) 0 
( -0.00739827 0.00727132 0.00597603 ) 0 
( -0.00402706 0.011835 0.00491063 ) 0 
( -0.00532762 0.00508508 0.000499852 ) 0 
( -0.00548979 0.0051942 0.00694447 ) 0 
( -0.0042585 0.00924196 0.00280531 ) 0 
( -0.00952925 0.00295686 0.00725936 ) 0 
( -0.000388261 0.00716842 0.00787183 ) 0 
( -0.000863679 0.00431311 0.000499789 ) 0 
( -0.000946131 0.000975514 0.0014873 ) 0 
( -0.00945124 0.00510925 0.00467984 ) 0 
( -0.00166128 0.00604891 0.00587616 ) 0 
( -0.00696383 0.00533265 0.0015672 ) 0 
( -0.00909805 0.00753275 0.00116562 ) 0 
( -9.11833e-06 0.00689188 0.00602044 ) 0 
( -0.00767752 0.00919205 0.00617153 ) 0 
( -0.0057664 0.00493134 0.00554555 ) 0 
( -0.00804676 0.000958807 0.00390632 ) 0 
( -0.00292914 0.013008 0.00512346 ) 0 
( -0.000559036 0.00255352 0.00475199 ) 0 
( -0.00460133 0.00577209 0.000498695 ) 0 
( -0.0100326 0.000803023 0.00127288 ) 0 
( -0.0036363 0.00185809 0.000499765 ) 0 
( -0.00591274 0.00128285 0.00431859 ) 0 
( -0.0063307 0.000527479 0.00681404 ) 0 
( -0.00036471 0.00146847 0.00539464 ) 0 
( -0.00490902 0.0013034 0.00118169 ) 0 
( -0.00820857 0.00927042 0.00701372 ) 0 
( -0.00862894 0.00348288 0.00685491 ) 0 
( -0.00830813 0.00547141 0.0022314 ) 0 
( -0.0116729 0.00147902 0.00403266 ) 0 
( -0.0066428 0.00495567 0.00602469 ) 0 
( -0.00867907 0.00647526 0.00730229 ) 0 
( -0.00538278 0.0122179 0.00242239 ) 0 
( -0.00460135 0.00193722 0.00188983 ) 0 
( -0.00495495 0.00980162 0.000498724 ) 0 
( -0.0107716 0.00437166 0.00542415 ) 0 
( -0.00152002 0.00273775 0.00443109 ) 0 
( -0.00311648 0.000993503 0.00187848 ) 0 
( -0.00729265 0.00625174 0.00135328 ) 0 
( -0.00681599 0.00889869 0.00185429 ) 0 
( -0.00892603 0.00992869 0.00333442 ) 0 
( -0.00963609 0.00113842 0.00714266 ) 0 
( -0.0124442 0.0013326 0.00465159 ) 0 
( -0.00436931 0.00480017 0.000499794 ) 0 
( -0.00637564 2.50397e-05 0.00423686 ) 0 
( -0.00500911 0.0115214 0.0048593 ) 0 
( -0.00389155 0.00394629 0.0041957 ) 0 
( -0.00761107 0.00574999 0.00474943 ) 0 
( -0.0112043 0.000973629 0.00734456 ) 0 
( -0.000767985 0.00344051 0.00434503 ) 0 
( -0.00124284 0.00578682 0.00685784 ) 0 
( -0.0124298 0.00137937 0.00240713 ) 0 
( -0.00914065 0.00323902 0.00456572 ) 0 
( -0.00526488 0.00199911 0.0063015 ) 0 
( -0.00597779 0.0109336 0.001479 ) 0 
( -0.00861931 0.00210362 0.00475766 ) 0 
( -0.0106285 0.000576259 0.000499316 ) 0 
( -0.00479597 0.0111082 0.00574244 ) 0 
( -0.0073296 0.00836282 0.00252408 ) 0 
( -0.0102709 0.00436612 0.00394373 ) 0 
( -0.0033484 0.0105727 0.00470272 ) 0 
( -0.00244678 0.00253522 0.00401689 ) 0 
( -0.00808745 0.00132015 0.000498712 ) 0 
( -0.00289658 0.00742712 0.00365288 ) 0 
( -0.00287494 0.010708 0.00557209 ) 0 
( -0.00109894 0.00234821 0.0063793 ) 0 
( -0.00670251 0.00688615 0.00348689 ) 0 
( -0.0105592 0.00817158 0.00250916 ) 0 
( -0.0079521 0.0015592 0.00202113 ) 0 
( -0.00974046 0.00358016 0.00287654 ) 0 
( -0.00618658 0.00338924 0.00625131 ) 0 
( -0.0133108 0.000912537 0.00381021 ) 0 
( -0.00192371 0.00722225 0.00375359 ) 0 
( -0.003399 0.0105168 0.00683767 ) 0 
( -0.00467097 0.000725937 0.00212373 ) 0 
( -0.00738953 0.00657783 0.00525987 ) 0 
( -0.00923821 0.00167033 0.0041037 ) 0 
( -0.0133464 0.000192765 0.00310787 ) 0 
( -0.00359197 0.000226862 0.0048144 ) 0 
( -0.00249962 0.00495732 0.00373229 ) 0 
( -0.00652589 0.00444034 0.00146944 ) 0 
( -0.00639784 0.00932239 0.00392626 ) 0 
( -2.42041e-05 0.00105616 0.00294878 ) 0 
( -0.0123341 0.00510863 0.000902096 ) 0 
( -0.00135826 0.00855838 0.00138336 ) 0 
( -0.00158516 0.00126137 0.00711391 ) 0 
( -0.00981703 0.00555094 0.00279312 ) 0 
( -0.00263593 0.000209194 0.000498825 ) 0 
( -0.00223649 0.00488231 0.00823914 ) 0 
( -0.0128612 0.00357969 0.00120888 ) 0 
( -0.0104787 0.000242363 0.00361021 ) 0 
( -0.00742945 0.00249081 0.00448471 ) 0 
( -0.0129173 0.00337131 0.00412304 ) 0 
( -0.00777838 0.0108504 0.00400331 ) 0 
( -0.0023872 0.000885778 0.00120065 ) 0 
( -0.000480929 0.00620391 0.00465885 ) 0 
( -0.00642006 0.00495729 0.00231696 ) 0 
( -0.00277139 0.00560657 0.00132194 ) 0 
( -0.00163784 0.00379751 0.00400641 ) 0 
( -0.00818307 0.00178035 0.00617375 ) 0 
( -0.00853636 0.00698594 0.000520441 ) 0 
( -0.00294481 0.00174676 0.00124379 ) 0 
( -0.00404103 0.00119911 0.00427956 ) 0 
( -0.00605691 0.0087113 0.00247685 ) 0 
( -0.00250294 0.000608933 0.00481888 ) 0 
( -0.00195536 0.00225797 0.00278041 ) 0 
( -0.00141699 0.00809764 0.000499021 ) 0 
( -0.00312715 0.00433458 0.00470779 ) 0 
( -0.000476591 0.00520888 0.00713411 ) 0 
( -0.00501916 0.0123719 0.00150597 ) 0 
( -0.00385869 0.00820539 0.00283278 ) 0 
( -0.00495978 0.0015417 0.00447111 ) 0 
( -0.00763418 0.000467475 0.000764935 ) 0 
( -0.00696919 0.0103935 0.00355865 ) 0 
( -0.00318593 0.00492386 0.00192137 ) 0 
( -0.0114195 0.00513268 0.00049905 ) 0 
( -0.000424619 0.0133445 0.00211041 ) 0 
( -0.00066679 0.0128744 0.00126357 ) 0 
( -0.0104142 0.00680182 0.00604006 ) 0 
( -0.00276724 0.00470828 0.00280219 ) 0 
( -0.00563877 0.00684655 0.00159046 ) 0 
( -0.0116556 0.00460608 0.00255873 ) 0 
( -0.00942448 0.00277099 0.00131107 ) 0 
( -0.00615981 0.00669038 0.00257328 ) 0 
( -0.00395732 0.00975654 0.000499777 ) 0 
( -0.00356242 0.00368766 0.000499776 ) 0 
( -0.0104953 0.00505578 0.00191149 ) 0 
( -0.00737558 0.00912372 0.00388433 ) 0 
( -0.0102475 0.00855931 0.00049885 ) 0 
( -0.00435791 0.00675004 0.00185254 ) 0 
( -0.00286858 0.00430976 0.0070745 ) 0 
( -0.00760605 0.00472527 0.00589445 ) 0 
( -0.00528291 0.00794047 0.000498775 ) 0 
( -0.000165758 0.0109534 0.000498065 ) 0 
( -0.00387928 0.0117812 0.00335066 ) 0 
( -0.0126203 0.00435574 0.00262647 ) 0 
( -0.00297414 0.00778721 0.00700102 ) 0 
( -0.00193326 0.00779374 0.00176276 ) 0 
( -0.0063187 0.00954617 0.00610816 ) 0 
( -0.0049228 0.005306 0.00512303 ) 0 
( -0.00337983 0.00251418 0.00745873 ) 0 
( -0.00709205 0.0113122 0.000497113 ) 0 
( -0.00114825 0.00287953 0.00549071 ) 0 
( -0.00210448 0.0123889 0.000499194 ) 0 
( -0.0127584 0.000236058 0.00610595 ) 0 
( -0.0057105 0.00347568 0.00158136 ) 0 
( -0.00477248 0.00105297 0.0035894 ) 0 
( -0.00257611 0.00651675 0.00339297 ) 0 
( -0.0068604 0.0103408 0.000499357 ) 0 
( -0.0101883 0.00232083 0.00187615 ) 0 
( -0.00604545 0.00687903 0.00615527 ) 0 
( -0.00547697 0.000252198 0.00247245 ) 0 
( -0.0122794 0.00523962 0.00301497 ) 0 
( -0.00681568 0.00231864 0.00530675 ) 0 
( -0.0010773 0.00010464 0.00634439 ) 0 
( -0.0076502 0.00350908 0.00665693 ) 0 
( -0.00385181 0.00637676 0.00368234 ) 0 
( -0.00473589 0.0103845 0.00642966 ) 0 
( -0.000219451 0.00749263 0.00200288 ) 0 
( -0.00824192 0.00862356 0.00220984 ) 0 
( -0.00608011 0.00836983 0.00407821 ) 0 
( -0.00291564 0.00663134 0.000499243 ) 0 
( -0.00682028 0.010668 0.00202508 ) 0 
( -0.00794815 0.00394761 0.00750564 ) 0 
( -0.00139245 0.00222371 0.000499722 ) 0 
( -0.00306603 0.00512444 0.00049862 ) 0 
( -0.006872 0.00396363 0.00580605 ) 0 
( -0.00889123 0.00509622 0.00639178 ) 0 
( -0.00518585 0.00504582 0.00284596 ) 0 
( -0.00379782 0.000239959 0.00211779 ) 0 
( -0.00207878 0.0122973 0.0064735 ) 0 
( -0.00222182 0.00335051 0.00160847 ) 0 
( -0.00429956 0.00776731 0.000498056 ) 0 
( -0.00662633 0.0115904 0.00633572 ) 0 
( -0.00711734 0.00415941 0.00365126 ) 0 
( -0.00928862 0.00572165 0.00706178 ) 0 
( -0.00478862 0.00593658 0.0014656 ) 0 
( -0.00195456 0.00642413 0.00257112 ) 0 
( -0.00374612 0.00433647 0.00549202 ) 0 
( -0.000975052 0.00322765 0.000498031 ) 0 
( -0.00500406 0.00987717 0.00724851 ) 0 
( -0.00410428 0.000587779 0.00300895 ) 0 
( -0.00613537 0.00241161 0.00603356 ) 0 
( -0.00456607 0.00966541 0.00574484 ) 0 
( -0.00533049 0.000481779 0.00419133 ) 0 
( -0.00254974 0.00834692 0.00120388 ) 0 
( -0.00594277 0.000534085 0.00498 ) 0 
( -0.00381895 0.0127943 0.00472225 ) 0 
( -0.000762104 0.00197295 0.00123423 ) 0 
( -0.0106863 0.00281787 0.00420892 ) 0 
( -0.00305073 0.00835007 0.00537714 ) 0 
( -0.00158312 0.000120256 0.00251625 ) 0 
( -0.00393287 0.00520104 0.00502843 ) 0 
( -0.00371454 0.000855733 0.00840759 ) 0 
( -0.0130668 0.00211481 0.00269069 ) 0 