FoamFile
{version 2.0; format ascii;class vectorField; location 0;object  v;}
2497
(
( 0.000216885 -0.00023273 0.000217622 )  
( -0.000130089 -7.22818e-05 0.000177041 )  
( 1.49302e-05 7.07358e-05 0.000129601 )  
( -0.000128558 -3.44422e-05 0.00026208 )  
( 7.36636e-05 2.57204e-05 0.00040097 )  
( 5.68639e-05 -2.42613e-05 0.000904461 )  
( 0.000145856 -0.000231311 0.000161843 )  
( -0.000115935 1.68044e-05 4.59031e-05 )  
( -5.22691e-05 0.000827325 0.00233951 )  
( 0.000115992 1.05011e-05 0.000540024 )  
( -0.000313938 0.00020658 0.000696021 )  
( -6.98598e-06 0.000130387 0.000151669 )  
( 4.33609e-05 9.2035e-05 0.000291004 )  
( 6.75149e-05 -4.74815e-05 7.43861e-05 )  
( -7.4968e-05 0.000207295 0.00032161 )  
( 0.000244989 -1.68263e-05 0.00076315 )  
( -8.22007e-05 -0.000186308 0.000336811 )  
( 3.34571e-05 2.89815e-05 0.000703732 )  
( -0.000353552 -0.000326421 -6.85174e-05 )  
( 0.00512257 0.00298327 0.00235367 )  
( -2.51674e-05 -5.07712e-05 0.000663078 )  
( -0.000119974 0.000215709 0.000739571 )  
( 0.000306323 5.95612e-06 0.000562847 )  
( -1.44907e-05 9.55628e-05 0.000741099 )  
( -3.86175e-05 0.000178996 0.000285469 )  
( 0.000523348 -0.000398182 0.000400302 )  
( -7.11765e-05 -1.33552e-05 0.000600508 )  
( 9.11466e-06 0.00016935 0.000733087 )  
( 0.000210632 -8.29778e-05 0.000523289 )  
( 0.000314383 -9.93172e-05 0.000424503 )  
( 6.25899e-05 3.24104e-05 0.000173475 )  
( 9.66096e-05 -0.000115603 0.000105752 )  
( 0.000194686 -0.00045464 0.00036719 )  
( -6.10249e-06 -4.27526e-05 0.000426388 )  
( 1.96326e-05 -8.74014e-06 0.00011756 )  
( -0.000119447 -0.000129899 0.000243791 )  
( 0.000101867 -0.000370162 -5.89924e-06 )  
( 2.9302e-05 -0.0001207 0.000135548 )  
( -8.15569e-05 0.000824471 0.00045181 )  
( -7.97667e-05 -3.82836e-05 0.000404149 )  
( 0.000618012 0.000183365 1.76265e-05 )  
( -0.000442755 0.000498799 9.42796e-05 )  
( 0.000166262 -8.4551e-05 4.45769e-06 )  
( 8.06666e-05 -1.93527e-05 2.86315e-05 )  
( 0.000417046 0.000478237 0.000207921 )  
( -0.00017418 0.000116712 4.82533e-05 )  
( -1.1937e-05 -4.67266e-05 0.000154415 )  
( -2.65477e-06 -1.20783e-05 0.000228855 )  
( 0.000204728 0.000674713 6.23563e-05 )  
( 0.00303686 -0.00291336 -0.00173315 )  
( -3.47774e-05 1.02245e-05 0.000553888 )  
( 0.000154404 -0.000142066 0.000416806 )  
( -3.07685e-05 2.87688e-05 0.000366397 )  
( 8.25126e-05 -9.14714e-05 0.000398378 )  
( -0.000119856 3.25223e-05 0.00022445 )  
( 7.54619e-05 3.10357e-05 3.33398e-05 )  
( -2.32702e-06 -0.000156083 0.000199667 )  
( -0.000409819 6.55586e-05 4.72838e-06 )  
( -3.88768e-05 -0.000187143 0.000290651 )  
( -0.000140736 -0.000166028 0.000280846 )  
( -0.00032817 -0.000287136 0.000219499 )  
( 2.69782e-05 2.6467e-05 0.000114687 )  
( -0.000209131 1.87495e-05 0.000158716 )  
( 1.03436e-06 -8.14916e-07 0.000107935 )  
( 5.95359e-05 -8.07685e-05 4.23941e-05 )  
( 6.26361e-05 -0.000145693 0.000270952 )  
( 0.000275685 0.000804776 3.83353e-05 )  
( 2.77142e-05 -0.000301824 0.000155214 )  
( -0.000492622 0.000361131 -0.000292801 )  
( 0.000240499 -0.000118809 0.000338292 )  
( -0.000480412 -0.000310967 0.000529379 )  
( -0.000151374 -4.83465e-05 0.000443326 )  
( 0.000232233 0.000357139 7.98455e-05 )  
( -6.99633e-05 0.000147621 0.000480057 )  
( 2.534e-05 -0.000261123 0.000396001 )  
( 7.48625e-05 -3.30004e-05 0.000223258 )  
( 3.8533e-05 0.00013024 0.000278308 )  
( -0.000157146 -4.58084e-06 2.39419e-05 )  
( 0.0001325 -0.000122519 0.00014275 )  
( 0.000132153 0.000220691 8.33506e-05 )  
( 0.000154511 1.6207e-05 0.00022646 )  
( 0.000204723 -0.00033182 9.26229e-05 )  
( 5.4248e-05 -4.86756e-05 4.75949e-05 )  
( 0.000110588 -7.30161e-05 2.21031e-05 )  
( -0.000134362 -8.518e-05 0.000261918 )  
( 0.000194167 -0.000218955 0.000106523 )  
( -4.48162e-05 0.000180428 0.000364688 )  
( 3.02084e-05 -0.000101538 0.000560444 )  
( 0.000178763 0.000302037 0.00147038 )  
( 7.30279e-05 -4.40968e-06 0.000411434 )  
( 8.98102e-06 6.40253e-05 2.89489e-05 )  
( 0.000703587 -0.000526898 -0.000105136 )  
( -5.70875e-05 0.000163883 0.000140164 )  
( 2.89691e-07 7.43597e-06 0.00027443 )  
( 1.00695e-06 0.000208329 3.38448e-05 )  
( -3.65721e-05 -0.000136103 3.91772e-05 )  
( 0.000145446 -0.000124838 0.000458826 )  
( 0.000316038 -1.89105e-05 0.000761326 )  
( -4.69645e-05 -0.000196317 0.000152451 )  
( 0.00023954 1.62554e-05 0.000343037 )  
( -8.51678e-06 -2.94983e-05 -1.10159e-05 )  
( 3.18488e-05 7.87401e-05 0.00044388 )  
( -1.85122e-05 0.000322045 0.000266769 )  
( 0.000345608 -8.70079e-05 0.000539872 )  
( -0.000112136 1.45134e-05 6.69363e-05 )  
( -7.93297e-05 4.41858e-05 0.000106808 )  
( -5.62516e-05 -0.000166639 0.000646109 )  
( -5.3416e-05 -3.71103e-05 0.000421974 )  
( 7.13195e-05 9.52597e-05 4.56259e-05 )  
( -9.99353e-06 -1.34366e-05 0.000866493 )  
( 0.000158337 -6.53821e-05 0.000293133 )  
( -0.000208084 0.000287124 9.28443e-05 )  
( -9.42813e-05 -0.000120009 0.000481717 )  
( -4.31147e-05 -9.06779e-05 0.000138581 )  
( 0.000295746 5.33699e-05 0.000517732 )  
( -0.000208745 -9.97194e-05 0.00013364 )  
( 0.000215372 0.000277415 0.000546288 )  
( -0.000212657 -5.31793e-05 0.000245049 )  
( -7.18759e-05 -8.71846e-05 0.000163107 )  
( 1.78692e-05 -6.3498e-05 0.000196283 )  
( -0.000222147 7.15773e-05 0.000264048 )  
( -4.89232e-05 7.66547e-05 5.07891e-05 )  
( 7.99396e-05 9.27735e-05 0.000542696 )  
( 0.000134813 -0.0001018 0.000489108 )  
( -0.000105665 -1.36752e-06 0.000181605 )  
( 7.38046e-05 -0.000311955 0.000504972 )  
( -0.000121248 0.000230338 0.000281681 )  
( 8.32654e-05 -9.9653e-05 0.000176839 )  
( -4.88712e-05 4.59001e-05 0.000433347 )  
( 0.000536992 -0.000170256 0.000190764 )  
( -2.41546e-05 5.14172e-05 4.95164e-05 )  
( -5.98159e-05 -1.72371e-06 0.000385568 )  
( -0.000156371 -9.66761e-05 0.000296299 )  
( 0.000163135 7.45797e-05 0.00018184 )  
( 6.74709e-05 -0.000129437 0.000251738 )  
( 0.00229379 -0.00125991 0.00117178 )  
( 1.57537e-06 -0.0001206 0.000224947 )  
( 0.000341802 0.000138899 0.000412538 )  
( -0.000241216 -0.000371356 0.000681012 )  
( -0.000149288 -5.73004e-05 0.000469505 )  
( -0.000206603 -0.00130679 5.54929e-06 )  
( -1.22409e-05 -4.35653e-06 0.000275591 )  
( -0.00027721 -3.99375e-06 0.000589735 )  
( -0.000134298 -7.41715e-05 0.000600705 )  
( -0.0001049 1.26657e-05 0.00025206 )  
( -0.000164455 -0.000228647 0.000609674 )  
( 0.000119596 -0.00010642 0.000182707 )  
( -0.000173879 -0.000326377 0.00052927 )  
( 7.7489e-05 2.40628e-07 0.00034713 )  
( 6.413e-05 -0.000103064 0.000471748 )  
( 3.61548e-06 0.000316568 -6.35465e-05 )  
( 0.000201291 -5.3658e-05 0.000322217 )  
( -0.000232726 3.99988e-05 0.000449477 )  
( -1.11056e-05 0.000216846 0.000169651 )  
( 0.000170842 3.21086e-05 0.000199057 )  
( -5.28225e-05 0.000263657 0.000403079 )  
( 2.7475e-05 0.000109728 0.000106825 )  
( 0.0001891 2.57414e-06 0.000377506 )  
( 0.000199978 -5.11728e-05 0.000472613 )  
( -8.71711e-05 -0.000210218 0.000218856 )  
( -0.000174867 0.000216723 0.000727999 )  
( 0.000155032 6.45866e-05 0.00049842 )  
( 0.000164119 0.000103766 0.000144031 )  
( 0.000121824 0.000272164 0.000418788 )  
( -0.000108074 -0.000184269 0.000245573 )  
( 0.00022417 -3.30871e-05 0.000495308 )  
( 5.1307e-05 0.000168659 1.57847e-06 )  
( -0.000216551 -0.000137758 0.000294121 )  
( -0.000341447 -0.000238843 0.000469249 )  
( -7.018e-05 -7.35131e-05 0.0007908 )  
( 4.92305e-05 -1.53453e-05 2.801e-06 )  
( 0.000224825 -5.22308e-05 0.000801613 )  
( 4.79532e-05 -3.56345e-05 9.03841e-05 )  
( -0.000529213 0.000727852 -2.89412e-05 )  
( -6.68036e-05 0.000263309 9.98488e-05 )  
( -1.67475e-05 0.000333433 -1.95755e-06 )  
( 4.55891e-05 -5.26699e-05 0.00030256 )  
( 8.25259e-05 -1.86051e-05 5.47301e-05 )  
( -0.000196931 -0.000185074 0.00048296 )  
( -0.000173462 7.07368e-05 0.000201441 )  
( -0.00049315 2.84236e-05 -2.03254e-05 )  
( -6.694e-06 0.000137851 3.73329e-06 )  
( 0.000197283 -3.15123e-05 0.000247947 )  
( -1.13188e-06 4.12706e-05 0.000176478 )  
( 4.71064e-06 -9.19135e-05 5.58741e-05 )  
( -2.25613e-05 -3.8513e-05 0.000618657 )  
( -4.05115e-05 -0.000105366 0.000273651 )  
( -0.00026165 -0.000475134 0.000285339 )  
( -4.75122e-05 0.000230905 0.000119225 )  
( -8.36478e-05 0.000211303 0.000221933 )  
( -0.000188947 0.000737411 0.000325967 )  
( 8.2219e-05 6.6819e-05 9.2843e-05 )  
( 0.000274456 0.000182476 0.000323851 )  
( 0.000399448 -3.71009e-05 0.000768576 )  
( -0.000240543 9.3904e-08 0.000255944 )  
( -0.000431973 0.000613274 0.000238163 )  
( -0.000103269 -9.84875e-05 0.000418547 )  
( -0.000726164 0.000591035 0.000360858 )  
( 2.05143e-05 -1.89343e-05 -0.000138284 )  
( -0.000137638 -0.000225165 -2.18793e-05 )  
( 0.000161731 1.33672e-05 -1.83195e-05 )  
( 0.000475497 0.000108455 0.000205965 )  
( -0.000228078 4.32754e-05 0.000249251 )  
( -0.000107137 6.8703e-08 0.000355141 )  
( 0.000231663 -3.31199e-05 0.000565477 )  
( 0.000228518 6.81443e-05 0.000394641 )  
( 6.54945e-05 3.19549e-05 4.35985e-05 )  
( 0.000118234 -9.90707e-05 -3.29959e-05 )  
( 0.000256966 -1.18589e-05 0.000329369 )  
( -0.000226123 -0.000129168 0.000472708 )  
( 5.14109e-05 -0.000121963 0.000198248 )  
( 5.19977e-05 0.000101471 0.000131681 )  
( 0.000296514 -9.15403e-05 0.00032148 )  
( 0.000207156 -0.000112207 0.000312027 )  
( -4.75918e-05 -9.78773e-06 0.000412443 )  
( -0.000111179 4.50598e-05 0.00034055 )  
( -0.000177191 0.000316102 0.000138986 )  
( -6.88329e-05 -4.20265e-05 7.63516e-05 )  
( -0.000205495 -8.80513e-05 0.000373486 )  
( 0.000324836 0.000382398 0.00052477 )  
( 4.95299e-05 -0.000223568 0.000467966 )  
( -5.2752e-05 -6.01574e-05 8.81991e-05 )  
( 0.000341575 -7.61334e-05 0.000466318 )  
( -6.58948e-05 -0.000170153 0.000284216 )  
( -9.891e-05 0.000217079 6.14067e-05 )  
( 9.05579e-05 0.000162271 0.000172676 )  
( 0.0002072 3.74842e-05 0.000420624 )  
( 0.000170548 -5.85283e-07 0.000406235 )  
( -5.7887e-06 -7.99826e-05 0.000418444 )  
( -3.8289e-05 0.000155157 -3.72673e-05 )  
( 9.87603e-05 0.000315182 2.84851e-05 )  
( -2.16751e-05 -6.01855e-05 0.000121469 )  
( 4.22534e-05 0.000115341 -1.6517e-05 )  
( -0.000187212 4.26016e-05 4.10088e-05 )  
( -6.36096e-05 8.49276e-05 8.27658e-05 )  
( 5.68838e-05 -3.95242e-05 0.000167017 )  
( -8.35107e-06 -0.000268528 0.000638059 )  
( -7.0822e-05 -0.000265722 -2.93631e-07 )  
( 7.28322e-05 0.000254767 2.89817e-07 )  
( -0.000316676 5.2298e-05 0.000508952 )  
( 0.000342528 -0.000138167 0.000383795 )  
( 0.00111186 -0.000120099 0.000201578 )  
( -0.000463345 -5.35472e-05 0.000452568 )  
( -7.06744e-05 -2.64162e-05 0.000188398 )  
( -0.000773536 -0.00039415 0.000335147 )  
( -4.30802e-05 -3.74363e-05 7.12708e-05 )  
( -0.000470045 0.000383138 -0.000376504 )  
( -1.87476e-05 -0.000559238 0.000169036 )  
( 7.5331e-05 7.04941e-05 0.000100089 )  
( -0.00018542 -6.57097e-05 0.000413753 )  
( -0.000184462 -0.00022298 0.000600155 )  
( 1.12731e-05 0.000406222 -0.000194876 )  
( -8.91275e-06 6.33586e-05 -1.77159e-05 )  
( -0.000192077 -0.000105158 0.00032685 )  
( 4.25901e-05 -0.000101746 3.1313e-05 )  
( -0.000481707 0.000213931 0.000661623 )  
( -1.66648e-05 0.000218299 -6.63984e-05 )  
( 0.000158198 1.32161e-06 0.00071297 )  
( -0.000100474 -0.000134141 0.000338809 )  
( 5.63639e-05 -5.02921e-05 4.23255e-05 )  
( 0.000443465 0.000126231 2.5496e-05 )  
( -0.00011973 -0.000176988 0.000530754 )  
( 0.000126238 -0.000124279 -2.57561e-05 )  
( -7.82569e-05 -5.00486e-05 -0.000330868 )  
( -9.33898e-05 -9.53751e-05 0.000544375 )  
( 8.23535e-05 6.45177e-05 0.000271354 )  
( -0.000135274 -0.000227051 -0.000231821 )  
( -0.000153837 -4.81395e-05 0.000360136 )  
( -4.32251e-05 0.000105518 0.000283328 )  
( 4.15794e-05 4.37617e-05 0.000289767 )  
( 3.27409e-05 -9.27429e-05 0.000274431 )  
( -0.000337178 -0.000110099 0.000243013 )  
( 0.000159601 -7.86833e-05 0.000482205 )  
( -6.12611e-05 -0.000116019 0.000240176 )  
( 0.000138294 0.000435068 0.000184578 )  
( -0.000214638 -0.000260607 4.12231e-05 )  
( 0.000157291 -5.80269e-05 0.00034626 )  
( 9.6821e-05 5.24904e-05 0.000233943 )  
( -6.93172e-05 0.000190436 0.000479957 )  
( -9.07387e-05 -0.000202442 -1.83862e-05 )  
( -0.000155766 -0.000405161 0.000701121 )  
( -1.54734e-05 -4.32179e-05 0.000129652 )  
( -1.60058e-05 2.04269e-05 4.1233e-05 )  
( 2.33541e-05 -9.29566e-05 0.000305171 )  
( 0.000224814 -0.000190372 0.000516713 )  
( 2.9153e-05 -0.000104482 0.000387448 )  
( 0.000192791 4.4219e-06 0.000471695 )  
( 5.46394e-07 -6.69248e-05 0.000399416 )  
( 0.00061163 0.000328519 0.000428679 )  
( -2.83293e-05 -8.15048e-05 0.000119421 )  
( -4.91804e-05 -0.000136526 0.000295946 )  
( -3.58693e-05 2.09943e-05 0.000131846 )  
( 1.77151e-06 -7.7064e-05 0.00031874 )  
( -0.000708024 0.000350424 0.000113083 )  
( -0.000455927 0.000203989 0.000315299 )  
( 0.000182493 6.25823e-05 0.000393885 )  
( -0.000113037 -0.000159692 0.000245641 )  
( -0.00016983 -0.000105111 0.000205094 )  
( 0.000105345 1.72601e-06 3.78641e-05 )  
( 3.34451e-05 -7.89334e-05 2.3777e-05 )  
( 8.70979e-05 9.5975e-05 0.000321139 )  
( -0.000285678 0.000257073 -5.23001e-06 )  
( 0.000106779 0.000178781 -0.000188984 )  
( -0.000249552 7.87558e-05 0.000497224 )  
( -7.49323e-05 6.94939e-05 0.000220189 )  
( 5.7193e-05 0.000169318 0.000576359 )  
( -0.000574537 -6.3303e-05 3.99458e-06 )  
( 5.2771e-05 0.000392711 0.000440451 )  
( 3.53952e-05 -3.99686e-05 0.00016585 )  
( 0.000121758 5.95709e-05 0.000133302 )  
( 7.80975e-05 0.000218841 0.00021419 )  
( 0.000269435 -7.1114e-05 0.000348466 )  
( 0.0002906 0.000112826 -0.000281276 )  
( 5.8519e-05 0.000563824 0.000237084 )  
( -5.86936e-05 -4.21172e-05 5.97091e-06 )  
( -3.4572e-05 -0.000134488 0.000276849 )  
( 0.000100084 -2.74613e-05 1.31972e-05 )  
( 0.000403282 -0.000723134 -6.2827e-05 )  
( -8.0596e-05 5.70654e-05 0.000461543 )  
( -0.000109004 -0.000206004 0.000227866 )  
( -9.29597e-05 9.63697e-05 0.000336272 )  
( -4.24127e-05 8.30461e-05 0.000129012 )  
( 0.000136651 0.000114975 0.000438102 )  
( 0.000151793 7.9309e-05 0.000303795 )  
( 0.000198569 -3.23455e-06 1.70756e-05 )  
( 0.000188788 -0.000150512 0.000345615 )  
( -0.000251296 -8.41481e-05 0.000282551 )  
( -0.000275368 -8.93257e-05 0.000188256 )  
( -2.45663e-05 0.000203808 0.000488716 )  
( 0.000214624 5.3085e-05 0.000320787 )  
( -0.000683032 0.000436945 0.000303942 )  
( -0.000167791 -0.000198508 0.000225196 )  
( 7.32811e-05 0.000236294 0.000613251 )  
( 0.000118204 0.000300366 0.000440247 )  
( 5.63909e-05 4.45605e-05 -1.50776e-05 )  
( 6.1305e-05 -0.000364654 0.000197522 )  
( -0.000482524 -0.000259718 -1.36135e-07 )  
( -0.000127792 7.71473e-05 0.000216261 )  
( 0.000222572 -0.00079113 6.95956e-05 )  
( 2.6637e-05 5.4402e-05 0.000411639 )  
( -0.000508438 -0.000129165 0.00057023 )  
( -0.000286155 -0.000439376 0.000528127 )  
( 4.4528e-05 -8.88269e-05 0.000128657 )  
( -3.45001e-05 -7.24397e-05 0.000623636 )  
( 4.49933e-05 0.000247061 0.000430803 )  
( 0.000402748 -0.000142758 0.000205387 )  
( -0.000112639 -0.000261137 -4.33018e-05 )  
( 9.61592e-05 -5.7862e-05 2.49951e-05 )  
( 0.000108675 9.35272e-05 0.000384079 )  
( -0.000255008 -0.000122046 0.000277983 )  
( 1.85941e-05 -2.17651e-05 2.16929e-05 )  
( -8.66246e-05 4.33497e-05 0.000584559 )  
( 2.32474e-05 -8.20776e-05 9.22119e-05 )  
( -0.000170836 -0.000769842 0.000144944 )  
( 1.46894e-06 0.000221904 0.000256583 )  
( 0.0001975 0.000157928 0.000291769 )  
( -0.000107749 -0.000163846 9.77432e-05 )  
( 0.000725525 0.000677407 0.000379276 )  
( 0.000316775 1.11427e-05 0.000686656 )  
( -0.00030085 -0.000328872 -0.00160271 )  
( -0.000178899 -0.000258489 0.000340972 )  
( -5.0078e-05 -6.37379e-06 6.60419e-05 )  
( 0.000292489 0.000568666 0.000463438 )  
( -0.000935121 0.000193177 -2.54426e-07 )  
( -5.46711e-05 -0.000528578 0.000739907 )  
( -7.3826e-05 0.000158774 4.21934e-05 )  
( 4.97598e-05 4.75209e-05 0.000451787 )  
( -2.12818e-05 -4.03897e-05 0.000419241 )  
( 0.000186559 0.000218732 0.000467626 )  
( -0.00011141 3.63966e-05 0.000767021 )  
( 0.00137174 -0.00129494 -0.000445364 )  
( -7.3029e-05 -0.000145384 0.000251702 )  
( -8.27227e-05 -0.000138521 0.000660631 )  
( -3.92566e-05 -0.000347484 0.000270214 )  
( -8.47946e-05 -0.000905152 2.59569e-05 )  
( 0.00031671 -0.000129013 0.000446463 )  
( -0.000258108 -0.000110387 0.000435456 )  
( 2.21396e-05 3.20918e-05 0.000158968 )  
( -1.27454e-05 0.000127049 8.57974e-05 )  
( 9.76345e-07 0.000314652 0.000539809 )  
( -2.75291e-05 -0.000472451 -4.71727e-06 )  
( -5.469e-05 0.000205646 0.000106985 )  
( -9.29228e-06 -4.3897e-05 0.000372937 )  
( -2.87844e-05 -3.96359e-05 7.7766e-05 )  
( -9.69223e-05 -6.31534e-05 0.000415303 )  
( 0.000115961 5.59368e-05 2.37608e-05 )  
( 0.000360538 0.000214147 0.000801062 )  
( -0.000321427 -0.00026427 0.000574157 )  
( 0.000358036 0.000294858 -0.000715672 )  
( -7.89171e-06 0.000367742 -2.21236e-05 )  
( 8.97745e-05 0.000192286 0.000164717 )  
( -0.000387825 0.000182776 0.000138673 )  
( -0.000264597 0.000588561 0.00072969 )  
( -6.31407e-05 -0.000256155 4.79187e-05 )  
( 8.74069e-05 3.03768e-05 5.00804e-05 )  
( -9.29204e-05 -4.0837e-06 0.000523102 )  
( 0.000106456 -2.06359e-05 0.000240892 )  
( 6.02534e-05 0.000291925 0.000482298 )  
( -0.000272711 -9.90289e-05 0.000450316 )  
( 0.000170792 -0.000136245 0.000122578 )  
( 9.89092e-05 -2.15512e-05 3.78191e-05 )  
( -0.00115753 -0.000217197 -5.89014e-08 )  
( 2.03943e-05 -1.41574e-05 8.90231e-05 )  
( -6.60408e-05 -1.75193e-05 1.16966e-05 )  
( -0.000406066 -0.000148681 0.000243068 )  
( 0.000153694 1.71012e-05 0.000390937 )  
( -0.00034732 -0.00013455 0.000370661 )  
( -0.000212063 6.07068e-05 0.000294659 )  
( -9.55722e-05 -4.83792e-06 0.000276377 )  
( -4.78946e-05 -0.000257482 -2.40376e-05 )  
( 4.09224e-05 5.40042e-05 -3.72196e-05 )  
( 4.8608e-05 -5.68743e-05 0.000450705 )  
( -0.00013508 -0.000222562 0.0001365 )  
( 6.27585e-05 -0.000472401 0.000213911 )  
( -0.000138828 0.000126708 4.60564e-05 )  
( 2.04063e-05 -5.9072e-05 0.000316706 )  
( 1.14079e-05 -0.00019541 0.000488499 )  
( -0.000107732 1.24525e-05 0.000153341 )  
( -4.20763e-05 -1.05267e-05 0.000670695 )  
( -0.000187381 0.000131227 0.000367087 )  
( 8.21773e-05 -5.77839e-05 0.000466984 )  
( 0.000241774 0.000265938 0.000428827 )  
( -0.000124717 -0.000438863 -1.13862e-05 )  
( 0.000177158 -0.000132492 6.17229e-05 )  
( 7.9703e-05 -2.53259e-05 -0.00014172 )  
( 0.000137838 4.13442e-05 0.000386312 )  
( -1.08151e-05 0.000395744 -4.7589e-05 )  
( -0.000184133 -7.48244e-05 -1.517e-05 )  
( 3.63737e-05 -8.79213e-06 2.19549e-05 )  
( 4.55095e-05 0.000126758 0.000225027 )  
( 0.000131343 9.87068e-05 0.000285191 )  
( 0.000137597 6.39739e-05 -0.000113375 )  
( -0.000519878 -0.000407654 0.000183948 )  
( -5.8374e-05 -0.000153716 0.000610072 )  
( -0.000220346 -7.47313e-05 0.000287176 )  
( 0.000352838 -0.000600397 0.000494141 )  
( 0.000415492 0.000319469 -0.000163008 )  
( 0.00014602 -7.1988e-05 0.000121812 )  
( 3.41079e-05 0.000100981 0.000386013 )  
( 0.000126972 -4.07837e-05 4.3926e-05 )  
( 2.31406e-06 2.75102e-05 -9.12241e-06 )  
( 0.000122722 7.33406e-05 0.000332305 )  
( 2.02702e-05 3.69172e-05 0.000201757 )  
( 8.00196e-05 -2.45096e-05 0.000378246 )  
( 0.000158743 0.000103219 0.000183685 )  
( -7.85583e-05 -7.0157e-05 0.000118715 )  
( 0.000206878 4.87894e-05 -0.000144867 )  
( -0.000175394 0.000242896 0.00028157 )  
( -0.00028216 -0.000103632 0.000642945 )  
( 5.0137e-05 9.57667e-05 2.11098e-05 )  
( -0.000197393 -2.42427e-05 0.000447127 )  
( -0.00033792 -3.48615e-06 -1.17699e-05 )  
( 5.63792e-05 7.84466e-05 0.000286976 )  
( -0.000117188 -0.000526644 0.000342007 )  
( -0.000295395 -0.000113309 0.000515674 )  
( -7.09118e-05 5.47574e-05 7.74347e-05 )  
( -1.67216e-06 -2.09771e-05 0.000177638 )  
( -0.000133586 -0.000186465 7.5121e-05 )  
( 0.000114891 -3.68238e-05 6.96939e-05 )  
( 8.75512e-06 0.000226418 -3.36731e-05 )  
( 4.25666e-05 0.000500399 -8.32739e-06 )  
( 0.000112699 -0.0001416 0.000475086 )  
( -0.000284258 -0.000122323 0.000337173 )  
( 0.000314122 -0.000145966 0.000648142 )  
( -0.000113734 -0.000120589 0.000342002 )  
( 0.000151827 -0.000127717 0.000369634 )  
( -5.68774e-06 -0.000402083 0.000402225 )  
( -0.000103673 -0.000280881 0.000378323 )  
( -4.70797e-05 -0.000302967 0.000125411 )  
( -0.000468518 0.000151215 0.000332211 )  
( -7.68828e-05 -0.000157008 0.000467736 )  
( -0.000429254 -0.00023635 0.000415121 )  
( -0.000192838 -9.62149e-05 0.000144211 )  
( 0.000438479 0.000326381 -0.000124348 )  
( -0.000109801 -0.000165821 0.000415054 )  
( 1.99547e-05 -3.12983e-06 9.86299e-05 )  
( 0.000109565 -1.12442e-05 0.000171578 )  
( -0.000461899 0.000101767 -7.6007e-06 )  
( 8.886e-05 -0.000647905 6.25484e-05 )  
( 5.85781e-06 -4.59294e-05 0.00016293 )  
( -0.000118543 8.15158e-05 0.000492298 )  
( -0.000130448 6.5565e-06 0.000230651 )  
( -2.41956e-05 -0.000260005 0.000528343 )  
( 0.000154997 -7.27262e-06 0.000287088 )  
( 0.000113706 6.777e-05 0.000490798 )  
( -7.61381e-05 -0.000131208 0.00023965 )  
( 0.000764977 0.000498399 -0.000164911 )  
( -0.000121156 -4.60648e-05 0.000175415 )  
( -0.000190336 -4.63548e-05 0.00040803 )  
( -0.000712481 -0.000928207 -0.0020873 )  
( -0.000166918 0.000104173 0.000265096 )  
( -1.76895e-05 4.78775e-05 0.000227725 )  
( 2.37411e-05 1.57223e-05 -1.28929e-05 )  
( 5.78362e-05 -3.21171e-05 0.0002643 )  
( -7.16189e-05 0.00037536 -0.000344751 )  
( 0.000184237 0.000382539 0.00037051 )  
( 0.000150283 2.94e-05 2.8911e-05 )  
( -5.8938e-07 -0.000380671 0.000555491 )  
( -5.01448e-05 -0.000281214 0.000299832 )  
( 4.31636e-05 -0.000131227 0.000209451 )  
( 1.73689e-05 2.32274e-07 2.66912e-05 )  
( 0.000242936 9.0015e-05 0.000487351 )  
( 0.000399692 0.000291734 0.000471181 )  
( 0.000215875 -1.62385e-05 0.000517798 )  
( -6.65915e-06 -0.000366495 0.0001848 )  
( -0.000274407 -0.000204938 0.000605663 )  
( 0.000198925 -0.000136869 0.000313572 )  
( 0.000890058 0.000307181 5.5386e-05 )  
( 0.000121061 0.000145608 0.000521978 )  
( -0.000128957 0.000106194 8.95243e-05 )  
( 9.1654e-05 2.85411e-05 0.000396673 )  
( -0.000217153 0.000166204 0.000547478 )  
( 0.000234862 -0.000325286 0.000487434 )  
( 6.37546e-05 0.00012103 0.000292931 )  
( -0.000195464 -6.20084e-05 0.000136527 )  
( -7.87338e-05 -0.00013704 0.000511962 )  
( 4.94149e-05 8.07792e-05 0.000494825 )  
( 0.000139282 0.000107985 0.000505129 )  
( -9.88881e-05 -4.62258e-05 0.000230678 )  
( 9.9737e-05 0.000104815 0.000260864 )  
( -9.98921e-05 0.000312549 0.000192675 )  
( -4.55096e-06 0.000245172 -3.25804e-05 )  
( -0.000564803 0.000418488 -8.2657e-05 )  
( 1.32255e-05 8.52716e-05 0.000158181 )  
( 3.57498e-05 9.74123e-05 8.83665e-05 )  
( -8.09994e-05 -0.000670815 0.00123819 )  
( 4.57149e-06 -4.872e-05 1.72231e-05 )  
( -9.13403e-05 9.03682e-05 0.000690092 )  
( -0.000132099 -0.000112641 0.000438895 )  
( 0.000266875 -0.00019841 0.000201525 )  
( 7.86144e-05 1.97826e-05 3.97702e-05 )  
( -0.000100046 -5.47903e-06 1.04779e-05 )  
( 5.26506e-05 4.74722e-05 0.000401566 )  
( 8.97535e-05 0.000262334 0.000376815 )  
( 0.000719442 0.000656578 0.000488083 )  
( -0.00013054 0.000104457 0.000379416 )  
( 7.27213e-07 -4.07528e-07 7.45373e-05 )  
( -1.66749e-06 -2.08993e-05 7.39884e-06 )  
( -0.000151021 0.000529558 0.000385443 )  
( 0.000215806 2.67856e-05 0.000429946 )  
( -6.85571e-05 0.000212291 0.00072355 )  
( -8.64386e-05 2.74893e-05 4.03422e-05 )  
( -6.27507e-05 -3.40178e-06 0.000472286 )  
( -0.000572224 -0.000115045 0.000199967 )  
( -1.55584e-05 -0.000215918 8.97744e-05 )  
( -9.85778e-05 -1.18478e-05 0.000755844 )  
( -0.000680335 0.000501587 -5.25844e-07 )  
( 0.000169472 -0.000535448 0.000310952 )  
( -0.00126317 0.000383808 0.000236812 )  
( -3.72023e-05 -0.000221104 0.000498682 )  
( -6.41597e-05 0.000120735 0.000268254 )  
( 0.000303524 -0.000623714 -0.000319799 )  
( -0.000213068 -0.00014673 0.000330678 )  
( 0.000136917 0.000183971 0.000570244 )  
( -1.67371e-05 -0.000118928 0.000301988 )  
( 5.67522e-05 5.82417e-05 0.00033946 )  
( 4.89855e-05 6.02775e-05 0.00028857 )  
( -8.79237e-05 -7.41333e-05 0.000362837 )  
( -0.000157773 7.44654e-05 5.45131e-05 )  
( 1.1262e-05 0.000105105 0.000150584 )  
( 0.000129015 -8.92512e-05 -2.39207e-05 )  
( 0.000101881 -4.17928e-05 0.00053167 )  
( 0.000256731 -4.82494e-06 0.000535273 )  
( -7.32986e-05 -9.74444e-05 0.000785803 )  
( 0.000135342 9.7288e-05 8.34214e-05 )  
( 0.000198067 8.98879e-05 0.000666221 )  
( 7.61242e-05 2.72289e-06 0.000405827 )  
( -0.000101583 0.000473619 0.00026537 )  
( 3.68099e-05 7.07475e-05 0.000265764 )  
( 2.69618e-05 2.1938e-05 0.000417286 )  
( -0.000109252 -0.000179857 0.000544341 )  
( 0.000121752 0.000122954 0.000164653 )  
( 5.79955e-05 6.19373e-05 0.000189404 )  
( 4.15574e-05 -2.57238e-05 -1.57657e-05 )  
( 8.46396e-05 -8.10616e-05 0.000507368 )  
( 0.000186789 -0.000118975 0.000333355 )  
( 0.000149279 -0.000183062 0.000200524 )  
( -0.000120209 0.000208418 0.000163617 )  
( -0.00011625 -8.76236e-05 0.000502108 )  
( 0.000402342 0.000360211 0.000128405 )  
( 1.81771e-05 -6.13905e-05 0.000484261 )  
( 0.000100797 -3.66339e-05 0.00036374 )  
( -0.000128116 2.88857e-05 4.80347e-05 )  
( 0.000101528 6.02246e-05 0.000387545 )  
( 4.61442e-07 -8.81775e-05 0.000639737 )  
( 3.91768e-05 -0.000113565 0.000168778 )  
( 2.20357e-05 8.3364e-05 0.000255558 )  
( 0.00118613 -2.72915e-05 0.00069637 )  
( -3.40105e-05 -3.6301e-05 0.000379096 )  
( -6.49576e-05 -0.000124668 0.000393654 )  
( -8.65016e-06 0.000166508 -6.40151e-05 )  
( 0.000107733 -0.000119733 0.000291081 )  
( 0.000225331 -0.000218506 0.000382813 )  
( -0.000740108 -0.000406168 9.6116e-05 )  
( 3.66721e-05 -9.19879e-06 0.000236473 )  
( -7.99397e-05 6.72243e-05 7.62813e-07 )  
( 3.15898e-05 -6.19138e-06 0.00064822 )  
( -0.000267212 -0.000255647 6.87875e-05 )  
( 9.89974e-05 1.92056e-05 0.000395668 )  
( 7.83951e-05 0.000142418 0.000344452 )  
( -2.87864e-05 5.64365e-05 0.000306738 )  
( 1.70747e-05 -6.26611e-06 2.54188e-05 )  
( -2.75005e-05 1.37297e-05 0.000251859 )  
( 0.000190003 -0.000100643 0.000443367 )  
( -0.000713028 0.000353841 0.000465744 )  
( 4.01577e-05 0.000110584 0.000286968 )  
( -0.000142372 -0.000238252 0.000439329 )  
( -7.06454e-05 -3.75272e-05 -3.32515e-06 )  
( -9.83346e-05 0.000191572 -4.09787e-05 )  
( 4.43301e-05 -5.88031e-05 0.000405993 )  
( -8.94802e-05 -1.7353e-05 0.000267897 )  
( -4.18998e-05 -0.000137285 0.000305044 )  
( -0.000123852 -0.000146173 0.000637422 )  
( 6.4152e-05 6.20158e-05 0.000220079 )  
( 1.59752e-05 6.89777e-05 0.000354163 )  
( -6.67721e-05 7.16657e-05 0.000169025 )  
( 9.62338e-05 0.000229683 0.000871115 )  
( 0.000116202 2.50991e-05 0.000488388 )  
( -0.000123615 0.000203439 0.000255627 )  
( -0.000130787 5.95953e-05 0.000108931 )  
( -0.000196947 0.000472012 -0.000120046 )  
( 0.000183449 -5.90102e-05 0.000458156 )  
( 0.000405015 0.00101529 -0.000441923 )  
( -2.94704e-05 -3.77738e-05 9.0541e-05 )  
( -0.000294407 -0.000382318 0.000544439 )  
( 1.24547e-05 0.00013519 0.000505918 )  
( 0.000117305 -0.000223714 6.10008e-05 )  
( -0.000160243 -9.19219e-06 0.000596529 )  
( 0.000277398 0.000831064 0.000187834 )  
( -0.000169872 -1.11046e-05 0.000395049 )  
( -9.12685e-05 -1.72057e-05 0.000431437 )  
( 3.05394e-05 -0.000158684 0.00013173 )  
( -0.00032551 -0.000206547 8.25292e-06 )  
( 9.38792e-05 -0.0010392 0.000277296 )  
( -0.000483763 0.000368603 0.000156195 )  
( -8.74379e-05 -5.80086e-05 0.000208326 )  
( 1.06175e-05 -0.000119023 8.37356e-05 )  
( 5.53368e-05 -9.9438e-05 0.000300669 )  
( -0.000142146 -9.95962e-05 0.000431101 )  
( 0.000500732 0.000190675 -0.000206558 )  
( 0.000114214 -0.000100749 0.000202745 )  
( 0.000164328 -8.74818e-05 0.000395391 )  
( 9.13369e-05 0.00013385 0.000215594 )  
( 0.000147774 -0.000240882 0.000719735 )  
( -8.7527e-06 -2.21821e-06 0.000293353 )  
( -1.30938e-05 2.16809e-05 2.59992e-05 )  
( -4.82669e-05 -8.03341e-05 0.000321765 )  
( -0.000168646 -0.000241874 0.00050818 )  
( 2.50537e-05 -2.96325e-05 7.74821e-05 )  
( -1.62278e-05 6.64564e-05 -2.43888e-05 )  
( 0.000143446 -6.25745e-05 0.000320999 )  
( 2.77995e-05 0.000118912 -4.70215e-06 )  
( 0.000285769 -4.29635e-05 1.55673e-05 )  
( 4.978e-05 -0.000113123 0.000178522 )  
( 0.000559418 0.000258884 -1.67242e-05 )  
( -6.71082e-05 -3.70953e-05 7.59161e-05 )  
( -5.15885e-05 -0.000126122 7.23336e-05 )  
( -0.000576952 -0.000235654 0.000536409 )  
( 0.000151428 -8.25604e-05 0.000199619 )  
( 0.00277424 0.000425763 -0.00155292 )  
( 9.98023e-05 0.00033983 0.000297318 )  
( 9.53936e-05 4.25087e-05 0.000150614 )  
( 8.56334e-05 -0.000169491 0.000169444 )  
( 7.41222e-05 4.56392e-05 -1.62565e-05 )  
( 2.7752e-05 0.00035851 -7.00865e-06 )  
( -0.000508244 0.000166174 9.75109e-05 )  
( -0.000151658 0.000577905 -7.75536e-05 )  
( 7.03492e-06 -1.5502e-05 2.92257e-05 )  
( 9.65656e-05 -1.61883e-05 0.000187908 )  
( 0.000143068 -0.000547953 0.000508604 )  
( -9.32023e-06 0.000101911 0.000456724 )  
( 4.59255e-06 5.0273e-05 1.88977e-06 )  
( -7.69324e-05 -4.39469e-05 1.82168e-05 )  
( -0.00026054 -0.000498877 6.39311e-05 )  
( 8.0257e-05 0.000240784 -0.000349636 )  
( -9.82784e-05 -0.000133905 0.00050076 )  
( 2.06187e-05 -7.47355e-05 -4.08717e-05 )  
( 0.000347174 5.64722e-05 0.000635123 )  
( -3.88064e-05 3.75597e-05 0.000473663 )  
( 0.000217344 -3.22104e-05 0.00058764 )  
( 4.06075e-05 -1.85271e-05 5.63288e-05 )  
( -0.000118059 -2.79882e-05 0.000282808 )  
( 3.17721e-06 -7.24662e-05 -8.31978e-06 )  
( 9.47267e-06 0.000222735 0.000489739 )  
( 5.30795e-05 5.42462e-06 2.33112e-05 )  
( -0.000538803 -0.000352964 -0.000148879 )  
( -1.49015e-05 -3.40113e-05 0.00016515 )  
( 3.46061e-05 -1.79302e-05 3.71521e-06 )  
( 0.000188783 0.000293223 3.45458e-05 )  
( -0.000285055 0.000284233 0.000737848 )  
( 2.43579e-05 1.00712e-05 0.000181241 )  
( 0.00011567 0.0003493 0.000262567 )  
( 0.000198844 -9.57381e-06 0.000465735 )  
( 0.000177571 9.69506e-05 0.000818211 )  
( 0.000133206 -1.23479e-05 0.000523174 )  
( -0.000191807 9.33348e-05 0.000298767 )  
( -0.000358504 3.80267e-05 0.000774452 )  
( 4.99823e-05 -4.00442e-05 0.000163097 )  
( -0.000179283 0.000195333 0.000244666 )  