FoamFile
{version 2.0; format ascii;class Cloud<passiveParticle>; location 0;object  positions;}
2495
(
( -0.0108849 -0.00401992 0.000499734 ) 0 
( -0.00506895 -0.00116985 0.000987827 ) 0 
( -0.00681699 -0.00690785 0.0030977 ) 0 
( -1.79819e-05 -0.013349 0.00534926 ) 0 
( -0.000909047 -0.00181751 0.00306688 ) 0 
( -0.0130671 -0.00246945 0.000499785 ) 0 
( -0.00938285 -0.00444438 0.000499806 ) 0 
( -0.003044 -0.0078624 0.00119601 ) 0 
( -7.32342e-05 -0.00567303 0.00477243 ) 0 
( -0.00878358 -0.00182903 0.00559473 ) 0 
( -0.00936399 -0.00378587 0.0015034 ) 0 
( -0.00920686 -0.00627856 0.00282063 ) 0 
( -0.00625165 -0.00312906 0.00277159 ) 0 
( -0.0106792 -0.00696837 0.00347261 ) 0 
( -0.0090566 -0.00166875 0.00667096 ) 0 
( -0.00385553 -0.00458488 0.00490273 ) 0 
( -0.00229871 -0.00782432 0.00700328 ) 0 
( -0.00220883 -0.00580055 0.00742816 ) 0 
( -0.0053825 -0.00772922 0.00742431 ) 0 
( -0.00256183 -0.00855126 0.00173695 ) 0 
( -0.00917891 -0.0023919 0.00415602 ) 0 
( -0.00210577 -0.00247041 0.000499714 ) 0 
( -0.0043321 -0.00828311 0.00494261 ) 0 
( -0.00418963 -0.000711256 0.000861827 ) 0 
( -0.00131138 -0.00784203 0.000499783 ) 0 
( -0.000530554 -0.00209268 0.00125997 ) 0 
( -0.00979397 -0.00778691 0.00543836 ) 0 
( -0.00867584 -0.00527687 0.00049963 ) 0 
( -0.00939508 -0.00713811 0.00700988 ) 0 
( -0.00984148 -0.00465351 0.00136526 ) 0 
( -0.0131258 -0.00240777 0.00255601 ) 0 
( -0.00596956 -0.00188187 0.000499783 ) 0 
( -0.0041064 -0.0118392 0.00555387 ) 0 
( -3.68268e-05 -0.00732204 0.00295639 ) 0 
( -0.0021102 -0.0114731 0.00305637 ) 0 
( -0.00223307 -0.00676191 0.00466789 ) 0 
( -0.000947882 -0.0131658 0.00503066 ) 0 
( -0.00130376 -0.00632624 0.00712715 ) 0 
( -0.00505355 -0.00983313 0.00272862 ) 0 
( -0.00668442 -0.000423488 0.00684667 ) 0 
( -0.00338121 -0.00472595 0.00725016 ) 0 
( -0.00404994 -0.00638981 0.000499668 ) 0 
( -0.010141 -0.00179556 0.00321127 ) 0 
( -0.0116446 -0.0011491 0.000781747 ) 0 
( -0.000780324 -0.00960393 0.00226215 ) 0 
( -0.00779953 -0.00348938 0.00207073 ) 0 
( -0.00109096 -0.00319431 0.00556899 ) 0 
( -0.00120033 -0.00822821 0.00390238 ) 0 
( -0.00841818 -0.00200526 0.00467747 ) 0 
( -0.0012469 -0.00232993 0.00405982 ) 0 
( -0.00683028 -0.00957189 0.00515177 ) 0 
( -0.000804432 -0.00380583 0.00292929 ) 0 
( -0.00728501 -0.00467025 0.00049981 ) 0 
( -0.00463156 -0.00635419 0.00606547 ) 0 
( -0.00132173 -0.0101249 0.00158872 ) 0 
( -0.0066743 -0.00106242 0.000499637 ) 0 
( -0.0112141 -0.00371259 0.00647357 ) 0 
( -0.00401244 -0.00566672 0.00124311 ) 0 
( -0.0121149 -0.00560879 0.00612031 ) 0 
( -0.00209219 -0.0107067 0.00184871 ) 0 
( -0.00621855 -0.00935848 0.00125325 ) 0 
( -0.00325966 -0.000775378 0.000499758 ) 0 
( -6.85318e-05 -0.0118435 0.00514535 ) 0 
( -0.00455602 -0.0100373 0.00109053 ) 0 
( -0.00224957 -0.00968859 0.00480845 ) 0 
( -0.00923469 -0.00562162 0.0038035 ) 0 
( -0.00618508 -0.0117043 0.00530358 ) 0 
( -0.00284159 -0.003857 0.00298473 ) 0 
( -0.00446183 -0.0125824 0.00612089 ) 0 
( -0.00874138 -0.00664422 0.00367867 ) 0 
( -0.000672353 -0.0119386 0.00167583 ) 0 
( -0.00771905 -0.00495003 0.00467333 ) 0 
( -0.00560372 -0.00219872 0.00764763 ) 0 
( -0.00730385 -0.0111734 0.00399913 ) 0 
( -0.0121905 -0.0026856 0.00220463 ) 0 
( -0.00685313 -0.0109389 0.0022402 ) 0 
( -0.00327183 -0.00648278 0.00301981 ) 0 
( -0.00532623 -0.00150436 0.0035325 ) 0 
( -0.00552197 -0.00288436 0.00192138 ) 0 
( -0.0117306 -0.00636305 0.00221199 ) 0 
( -0.00257387 -0.00495433 0.000499794 ) 0 
( -0.00288767 -0.0032988 0.00210364 ) 0 
( -0.00220392 -0.0123366 0.00557819 ) 0 
( -0.0082245 -0.0015897 0.00378779 ) 0 
( -0.0125508 -0.00454235 0.00214203 ) 0 
( -0.00294259 -0.00613899 0.00433851 ) 0 
( -0.00492683 -0.00128285 0.00544715 ) 0 
( -0.00487966 -0.00858967 0.00678904 ) 0 
( -0.00852575 -0.00300054 0.00263877 ) 0 
( -0.0105048 -0.00496694 0.00373988 ) 0 
( -0.000167268 -0.0031835 0.00340578 ) 0 
( -0.00952741 -0.0026706 0.00049981 ) 0 
( -0.00428861 -0.00515948 0.00728105 ) 0 
( -0.00449029 -0.00949125 0.00192563 ) 0 
( -0.00193412 -0.000381313 0.00766098 ) 0 
( -0.00141079 -0.00932369 0.00706053 ) 0 
( -0.0124316 -0.00169751 0.000499648 ) 0 
( -0.00469615 -0.0104731 0.00480073 ) 0 
( -0.00291055 -0.0129957 0.00296609 ) 0 
( -0.00026082 -0.00198428 0.00843485 ) 0 
( -0.00479149 -0.00164544 0.00783255 ) 0 
( -0.00495648 -0.00574383 0.00793119 ) 0 
( -0.0038712 -0.00264896 0.00749632 ) 0 
( -0.0105593 -0.0047611 0.00693718 ) 0 
( -0.0112117 -0.00554672 0.001828 ) 0 
( -0.00248501 -0.00416334 0.0047261 ) 0 
( -0.00279216 -0.0130548 0.00705987 ) 0 
( -0.00981943 -0.00663573 0.00385993 ) 0 
( -0.00748469 -0.00512848 0.00636911 ) 0 
( -0.00195398 -0.00347568 0.00423111 ) 0 
( -0.00672962 -0.00580872 0.00617105 ) 0 
( -0.00669675 -0.0065361 0.00685814 ) 0 
( -0.00151658 -0.00176817 0.00556459 ) 0 
( -0.00940058 -0.00552291 0.00114271 ) 0 
( -0.00705709 -0.0104916 0.0012843 ) 0 
( -0.00990427 -0.000761994 0.00319916 ) 0 
( -0.00947137 -0.00496941 0.00555052 ) 0 
( -0.00245419 -0.0113217 0.00719717 ) 0 
( -0.0101562 -0.00253273 0.00399251 ) 0 
( -0.00402004 -0.00359949 0.00049973 ) 0 
( -0.00220599 -0.00887409 0.00663236 ) 0 
( -0.00150909 -0.0114743 0.00385584 ) 0 
( -0.00900883 -0.00741676 0.00114316 ) 0 
( -0.0043614 -0.00611115 0.00318963 ) 0 
( -0.0104288 -0.00519631 0.00243459 ) 0 
( -0.00695722 -0.00838548 0.00121062 ) 0 
( -0.00542562 -0.00656698 0.00757086 ) 0 
( -0.0107871 -0.00786566 0.00691066 ) 0 
( -0.0120085 -0.00258771 0.0068384 ) 0 
( -0.00344285 -0.00925522 0.00580377 ) 0 
( -0.00201629 -0.0131969 0.00336582 ) 0 
( -0.00941032 -0.00157519 0.00246286 ) 0 
( -0.00617124 -0.00721922 0.00494698 ) 0 
( -0.00551931 -0.00670397 0.00432499 ) 0 
( -0.00266635 -0.0121592 0.00238341 ) 0 
( -0.000950865 -0.00508704 0.000499739 ) 0 
( -0.00959401 -0.000692618 0.00202965 ) 0 
( -0.00224933 -0.00609302 0.000499679 ) 0 
( -0.00748646 -0.00449726 0.00553841 ) 0 
( -0.00390502 -0.00663529 0.00392184 ) 0 
( -0.0110545 -0.00590646 0.00377463 ) 0 
( -0.0103976 -0.00318324 0.00573972 ) 0 
( -0.00823001 -0.0026448 0.00542659 ) 0 
( -0.0132675 -0.00148159 0.00189372 ) 0 
( -0.0047052 -0.00612124 0.00704006 ) 0 
( -0.00965864 -0.000909258 0.00640927 ) 0 
( -0.00178448 -0.000335398 0.000499762 ) 0 
( -0.00959014 -0.00329409 0.004507 ) 0 
( -0.000677693 -0.00474842 0.00785204 ) 0 
( -0.00896585 -0.00287892 0.0013642 ) 0 
( -0.0012542 -0.00878672 0.00619029 ) 0 
( -0.00141541 -0.00256961 0.0012813 ) 0 
( -0.00768311 -0.000980146 0.000499808 ) 0 
( -0.00181786 -0.00400236 0.0032459 ) 0 
( -0.00468371 -0.0124207 0.00391044 ) 0 
( -0.00270307 -0.00498872 0.00203534 ) 0 
( -0.00983356 -0.00340366 0.00233465 ) 0 
( -0.00540759 -0.000643819 0.00292276 ) 0 
( -0.00317095 -0.000735065 0.00580052 ) 0 
( -0.00493735 -7.47338e-05 0.00367659 ) 0 
( -0.00631184 -0.00346236 0.00706025 ) 0 
( -0.00114811 -0.0115426 0.000499757 ) 0 
( -0.00442508 -0.0107902 0.0062377 ) 0 
( -0.0051846 -0.00727229 0.00525732 ) 0 
( -1.21284e-06 -0.00534574 0.00333936 ) 0 
( -0.0011023 -0.00208376 0.00763931 ) 0 
( -0.00971445 -0.00146552 0.00555902 ) 0 
( -0.0113708 -0.00200898 0.00632865 ) 0 
( -0.00379497 -0.012736 0.00346122 ) 0 
( -0.00473602 -0.00605199 0.0041316 ) 0 
( -0.0032114 -0.0103761 0.00127098 ) 0 
( -0.00368466 -0.0128281 0.00445169 ) 0 
( -0.0046909 -0.00595632 0.0019182 ) 0 
( -0.0103713 -0.00518882 0.00782126 ) 0 
( -0.00575525 -0.00759496 0.00299839 ) 0 
( -0.00491706 -0.0116985 0.00622795 ) 0 
( -0.00577515 -0.0108783 0.000499663 ) 0 
( -0.011301 -0.00259838 0.00421906 ) 0 
( -0.0105444 -0.00665153 0.00556789 ) 0 
( -0.00934151 -0.00810592 0.000499689 ) 0 
( -0.00204387 -0.00623235 0.00840871 ) 0 
( -0.00300392 -0.00204649 0.00737987 ) 0 
( -0.0103596 -0.00382722 0.00158593 ) 0 
( -0.00621508 -0.00555123 0.00535309 ) 0 
( -0.0100507 -0.001155 0.00121926 ) 0 
( -0.00314189 -0.0010349 0.00363555 ) 0 
( -0.00566863 -0.0111043 0.00335617 ) 0 
( -0.00696743 -0.00222657 0.00372576 ) 0 
( -0.0115013 -0.00457219 0.00519388 ) 0 
( -0.0133181 -0.000921362 0.00466018 ) 0 
( -0.00185503 -0.0103943 0.00393011 ) 0 
( -0.00619216 -0.00392776 0.00364937 ) 0 
( -0.0109873 -0.00434064 0.00435922 ) 0 
( -0.00798554 -0.00791912 0.00739872 ) 0 
( -0.00320696 -0.00874278 0.000499772 ) 0 
( -0.0078529 -0.00453613 0.0013151 ) 0 
( -0.00670096 -0.0113129 0.0062227 ) 0 
( -0.00604579 -0.00287908 0.000499812 ) 0 
( -8.39864e-05 -0.0063058 0.00299583 ) 0 
( -0.00101142 -0.00577386 0.00611967 ) 0 
( -0.00467093 -0.0115599 0.00325451 ) 0 
( -0.00392645 -0.00166415 0.00733132 ) 0 
( -0.00897265 -0.00907556 0.00495405 ) 0 
( -0.0127336 -0.00400996 0.00131548 ) 0 
( -0.00995449 -0.00889564 0.005013 ) 0 
( -0.000931173 -0.00130148 0.00872516 ) 0 
( -0.001781 -0.00474893 0.00432397 ) 0 
( -0.000394869 -0.00251311 0.00579503 ) 0 
( -0.00760407 -0.0109727 0.00493153 ) 0 
( -0.00477552 -0.0110102 0.00116083 ) 0 
( -0.00295881 -0.00299512 0.0077155 ) 0 
( -0.00543025 -0.00769822 0.00438618 ) 0 
( -0.00713052 -0.00143107 0.00538101 ) 0 
( -0.0111375 -0.00561102 0.00633079 ) 0 
( -0.00669378 -0.0061667 0.00184769 ) 0 
( -0.00717599 -0.00792308 0.00440529 ) 0 
( -0.000331404 -0.0133456 0.007036 ) 0 
( -0.00926474 -0.00961192 0.00675871 ) 0 
( -0.00523911 -0.0103617 0.00662947 ) 0 
( -0.00375463 -0.0128099 0.00545155 ) 0 
( -0.00294684 -0.00271914 0.00567588 ) 0 
( -0.01073 -0.00097609 0.00610544 ) 0 
( -0.0088176 -0.00348897 0.00515417 ) 0 
( -0.00262173 -0.00245382 0.00264738 ) 0 
( -0.0114914 -0.00486226 0.00361511 ) 0 
( -0.0114383 -0.0020859 0.000499759 ) 0 
( -0.00588674 -0.0119465 0.00622666 ) 0 
( -0.00540743 -0.0112655 0.00189251 ) 0 
( -8.70936e-05 -0.00886567 0.000499597 ) 0 
( -0.0125019 -0.00115753 0.00133816 ) 0 
( -0.0115933 -0.00661942 0.00326605 ) 0 
( -0.00665728 -0.00776214 0.0025209 ) 0 
( -0.00431296 -0.0040891 0.00218409 ) 0 
( -0.0121431 -0.00553726 0.00401625 ) 0 
( -0.00252639 -0.00416757 0.00125332 ) 0 
( -0.00329549 -0.00491481 0.00284399 ) 0 
( -0.00779233 -0.00634256 0.000499707 ) 0 
( -0.00671764 -0.0104806 0.00683561 ) 0 
( -0.00887438 -0.00256723 0.00627027 ) 0 
( -0.00864254 -0.0064934 0.0065099 ) 0 
( -0.0021443 -0.00639597 0.00559428 ) 0 
( -0.000773119 -0.0125217 0.000499593 ) 0 
( -0.00652808 -0.00822151 0.00365154 ) 0 
( -0.00390058 -0.00312411 0.00328935 ) 0 
( -0.00264274 -0.00896925 0.00417872 ) 0 
( -1.18584e-05 -0.0111081 0.000499608 ) 0 
( -0.00310615 -0.00650592 0.000808194 ) 0 
( -0.00586269 -0.0119938 0.00722502 ) 0 
( -0.00531245 -0.0122475 0.00214233 ) 0 
( -0.00216982 -0.00113415 0.00187865 ) 0 
( -0.00101941 -0.00650414 0.00328835 ) 0 
( -0.00435884 -0.0126184 0.00168459 ) 0 
( -0.0102104 -0.00860073 0.000499823 ) 0 
( -0.00441787 -0.00904785 0.00589084 ) 0 
( -0.0107914 -0.00315228 0.000987723 ) 0 
( -0.00394507 -0.00499703 0.00198261 ) 0 
( -0.0017958 -0.00166259 0.00456387 ) 0 
( -0.0086042 -0.00900262 0.00360506 ) 0 
( -0.00734008 -0.00994077 0.000499533 ) 0 
( -0.000652722 -0.00666547 0.00641397 ) 0 
( -0.00693507 -0.00273339 0.00672976 ) 0 
( -0.0050502 -0.00814053 0.00345174 ) 0 
( -0.0061716 -0.00696223 0.00215909 ) 0 
( -0.00252035 -0.000561146 0.00113797 ) 0 
( -0.00528372 -0.00546213 0.00128246 ) 0 
( -0.00960012 -0.00693114 0.000499628 ) 0 
( -0.00292366 -0.00642335 0.00780583 ) 0 
( -0.00739779 -0.007749 0.00336838 ) 0 
( -0.00107382 -0.00084819 0.00701356 ) 0 
( -0.000160652 -0.0103246 0.00257289 ) 0 
( -0.00328892 -0.00481425 0.00124401 ) 0 
( -0.00993489 -0.00582517 0.00532103 ) 0 
( -0.00299429 -0.00129045 0.00474142 ) 0 
( -0.00392135 -0.00211994 0.00219387 ) 0 
( -0.00568122 -0.000597821 0.00417833 ) 0 
( -0.0075982 -0.00898206 0.00647483 ) 0 
( -0.00770341 -0.00607161 0.00661968 ) 0 
( -0.00151584 -0.00783506 0.00635088 ) 0 
( -0.00751155 -0.0100406 0.00725611 ) 0 
( -0.00649004 -0.00629367 0.00474216 ) 0 
( -0.000655969 -0.0125759 0.00244614 ) 0 
( -0.000145849 -0.00397897 0.00176648 ) 0 
( -0.00025021 -0.00238223 0.00399908 ) 0 
( -0.00904597 -0.00382412 0.0028724 ) 0 
( -0.00989684 -8.01547e-05 0.00590365 ) 0 
( -0.010659 -0.0040447 0.00530429 ) 0 
( -0.0102876 -0.000847604 0.0041685 ) 0 
( -0.0109728 -0.0058215 0.000499811 ) 0 
( -0.0035794 -0.00227342 0.0065944 ) 0 
( -0.00125525 -0.0132908 0.00401991 ) 0 
( -0.00818353 -0.0052487 0.00193371 ) 0 
( -0.0054742 -0.0012028 0.00714642 ) 0 
( -0.0045521 -0.0125084 0.00273721 ) 0 
( -0.0129626 -0.00278547 0.0065481 ) 0 
( -0.00322349 -0.00296219 0.000499691 ) 0 
( -0.00517317 -0.00679979 0.00215731 ) 0 
( -0.000264479 -0.00883709 0.00641667 ) 0 
( -0.00472934 -0.0107595 0.00250465 ) 0 
( -0.0101418 -0.00381428 0.00336873 ) 0 
( -0.00462275 -0.00851504 0.0014251 ) 0 
( -0.00208964 -0.0123656 0.00734131 ) 0 
( -0.0025886 -0.00928464 0.00247196 ) 0 
( -0.0117726 -0.00102754 0.00311176 ) 0 
( -0.00304408 -0.0122378 0.000499638 ) 0 
( -0.00421599 -0.00912085 0.00741681 ) 0 
( -0.00432332 -0.00171271 0.00137377 ) 0 
( -0.00809333 -0.00143098 0.00680153 ) 0 
( -0.00592352 -0.00530819 0.00381726 ) 0 
( -0.00198666 -0.0132015 0.00161532 ) 0 
( -0.00274067 -0.0104559 0.00439062 ) 0 
( -0.00481751 -0.00191774 0.00687099 ) 0 
( -0.00886231 -0.00998418 0.000499783 ) 0 
( -0.0123978 -0.00495127 0.0054224 ) 0 
( -0.00155952 -0.00917327 0.00532001 ) 0 
( -0.00555371 -0.00748006 0.00153071 ) 0 
( -0.0113333 -0.00705542 0.00503961 ) 0 
( -0.0118543 -0.00378909 0.00570915 ) 0 
( -0.00322228 -0.0112539 0.000499678 ) 0 
( -0.00761773 -0.00990069 0.0021478 ) 0 
( -0.00305888 -0.00971355 0.00365443 ) 0 
( -0.00775988 -0.00670066 0.00349282 ) 0 
( -0.0100898 -0.00729873 0.00461752 ) 0 
( -0.00244581 -0.00597617 0.00218805 ) 0 
( -0.010185 -0.00862561 0.00315682 ) 0 
( -0.00850357 -0.00938083 0.00614384 ) 0 
( -0.010611 -0.000980944 0.002029 ) 0 
( -0.00582949 -0.00828483 0.00671965 ) 0 
( -0.0115163 -0.0048167 0.00247879 ) 0 
( -0.00652277 -0.00748265 0.00128448 ) 0 
( -0.00767012 -0.00349374 0.00709694 ) 0 
( -0.00802392 -0.00258959 0.00363396 ) 0 
( -0.00256573 -0.00587207 0.0034496 ) 0 
( -0.00159263 -0.0057357 0.00363529 ) 0 
( -0.00974816 -0.00440646 0.00233302 ) 0 
( -0.00827133 -0.00740313 0.00275247 ) 0 
( -0.00304175 -0.0095385 0.00667492 ) 0 
( -0.00327096 -0.00953993 0.00471688 ) 0 
( -0.00123891 -0.00197148 0.00049976 ) 0 
( -0.00686593 -0.00370308 0.000758681 ) 0 
( -0.00597218 -0.00231334 0.00342197 ) 0 
( -0.00164047 -0.0049625 0.00628252 ) 0 
( -0.00704944 -0.00423583 0.00446878 ) 0 
( -0.0014875 -0.00353114 0.000916306 ) 0 
( -0.00285107 -0.0130421 0.00509164 ) 0 
( -0.00136391 -0.0132802 0.00239374 ) 0 
( -0.00108576 -0.00881613 0.000499536 ) 0 
( -0.0106031 -0.0064187 0.00153791 ) 0 
( -0.00622784 -0.00183332 0.00695721 ) 0 
( -0.012137 -0.00305659 0.00507102 ) 0 
( -0.0113468 -0.00290899 0.00589387 ) 0 
( -0.0106911 -0.000122667 0.00473284 ) 0 
( -0.000821447 -0.00216655 0.00495984 ) 0 
( -0.000719894 -0.0108492 0.00381619 ) 0 
( -0.00942672 -0.00333098 0.00593532 ) 0 
( -0.00491704 -0.011311 0.00529969 ) 0 
( -0.00681055 -0.00907308 0.0004997 ) 0 
( -1.99861e-05 -0.00730061 0.00509976 ) 0 
( -0.000807161 -0.00292859 0.000499729 ) 0 
( -0.0062449 -0.00731129 0.00395363 ) 0 
( -0.0115658 -0.00631953 0.00567602 ) 0 
( -7.94614e-05 -0.00559432 0.000499697 ) 0 
( -0.000194729 -0.00752488 0.00181698 ) 0 
( -0.00180664 -0.00768213 0.0031304 ) 0 
( -0.00322202 -0.00502309 0.00554041 ) 0 
( -0.00270811 -0.00525905 0.00638519 ) 0 
( -0.000648488 -0.00578722 0.00396067 ) 0 
( -0.00639088 -0.00326746 0.00608161 ) 0 
( -0.0060176 -0.0100448 0.00608839 ) 0 
( -0.00220601 -0.0114569 0.000499758 ) 0 
( -0.00170811 -0.007387 0.00408995 ) 0 
( -0.00572776 -0.00938961 0.00212392 ) 0 
( -0.009039 -0.0062421 0.00557553 ) 0 
( -0.00858614 -0.0019117 0.00752932 ) 0 
( -0.000691687 -0.0100263 0.00654932 ) 0 
( -0.00776686 -0.00285218 0.00456405 ) 0 
( -0.0047164 -0.0112289 0.00708769 ) 0 
( -0.00758826 -0.0072829 0.00505344 ) 0 
( -0.00428487 -0.011627 0.00459253 ) 0 
( -0.00938249 -0.00148584 0.00378461 ) 0 
( -0.00204442 -0.00133014 0.000499685 ) 0 
( -0.00923592 -0.00741998 0.00407051 ) 0 
( -0.0114028 -0.00204499 0.00245314 ) 0 
( -0.00607271 -0.0097568 0.0070952 ) 0 
( -0.0122966 -0.00166872 0.00649134 ) 0 
( -0.00402959 -0.00820456 0.000682451 ) 0 
( -0.00461192 -0.00539726 0.00635683 ) 0 
( -0.005552 -0.00575274 0.00463226 ) 0 
( -0.00829896 -0.00672455 0.00127251 ) 0 
( -0.00295564 -0.0130174 0.00190726 ) 0 
( -0.00765816 -0.000689131 0.00222547 ) 0 
( -0.00733603 -0.00346277 0.00389916 ) 0 
( -0.0114873 -0.001035 0.00493478 ) 0 
( -0.00533328 -0.0011274 0.00195184 ) 0 
( -0.00388983 -0.00310434 0.00202092 ) 0 
( -0.00166292 -0.00819118 0.00768208 ) 0 
( -0.00467801 -0.0056041 0.000499699 ) 0 
( -0.0108783 -5.80523e-05 0.00571369 ) 0 
( -0.00026543 -0.00427909 0.00592686 ) 0 
( -0.00238731 -0.00483615 0.00723404 ) 0 
( -0.00309034 -0.00602674 0.00539512 ) 0 
( -0.00235671 -0.00926924 0.000499709 ) 0 
( -0.0047505 -0.00377504 0.00590923 ) 0 
( -0.00863385 -0.000419515 0.00208876 ) 0 
( -0.0048834 -0.00642092 0.00105094 ) 0 
( -0.00594497 -0.0100388 0.00509114 ) 0 
( -0.002283 -0.0103101 0.00281814 ) 0 
( -0.0105063 -0.00103262 0.00512826 ) 0 
( -0.00767873 -0.00900965 0.00259735 ) 0 
( -0.0100261 -0.00764083 0.00106072 ) 0 
( -0.00129464 -0.00318272 0.0035387 ) 0 
( -0.00681111 -0.0104524 0.00563648 ) 0 
( -0.00297191 -0.0082698 0.00641301 ) 0 
( -0.00289617 -0.000589476 0.00230022 ) 0 
( -0.00141813 -0.0124595 0.00126081 ) 0 
( -0.003306 -0.00143779 0.00818295 ) 0 
( -0.00658559 -0.00606043 0.00377438 ) 0 
( -0.00152056 -0.00394084 0.00500304 ) 0 
( -0.0103743 -0.00254272 0.00496924 ) 0 
( -0.00375969 -0.00744265 0.00328708 ) 0 
( -0.00826205 -0.0104697 0.00425674 ) 0 
( -0.00229225 -0.000900257 0.00414584 ) 0 
( -0.00215465 -0.00328244 0.00826757 ) 0 
( -0.000100225 -0.00340687 0.00437842 ) 0 
( -0.0104713 -0.00234034 0.000499785 ) 0 
( -0.00405387 -0.0034526 0.00468927 ) 0 
( -0.00184541 -0.00147517 0.00690557 ) 0 
( -0.00101762 -0.00725064 0.00480055 ) 0 
( -0.00568515 -0.00373229 0.00554596 ) 0 
( -0.000432566 -0.00336967 0.00630912 ) 0 
( -0.003694 -0.00673511 0.00593856 ) 0 
( -0.00687343 -0.00887565 0.00443545 ) 0 
( -0.0124881 -0.00470848 0.00445669 ) 0 
( -0.00238505 -0.0122636 0.00142933 ) 0 
( -0.00221711 -0.00334687 0.00540516 ) 0 
( -0.00130116 -0.00658904 0.0014151 ) 0 
( -0.0125479 -0.00455811 0.000499795 ) 0 
( -0.00128046 -0.00819333 0.00536946 ) 0 
( -0.00996001 -0.00277747 0.00139751 ) 0 
( -0.00311178 -0.0102134 0.00226588 ) 0 
( -0.003839 -0.00191109 0.00354014 ) 0 
( -0.00659597 -0.0116067 0.00336014 ) 0 
( -0.0113604 -0.00489969 0.00049972 ) 0 
( -0.000475343 -0.00833751 0.00232995 ) 0 
( -0.00418972 -0.00564204 0.00548308 ) 0 
( -0.00853049 -0.00749233 0.006654 ) 0 
( -0.000688022 -0.00884759 0.00489908 ) 0 
( -0.00698534 -0.00412938 0.00674077 ) 0 
( -0.00435878 -0.00977049 0.00657948 ) 0 
( -0.00759266 -6.62057e-05 0.00662928 ) 0 
( -0.0082627 -0.00936965 0.00711482 ) 0 
( -0.0115305 -0.00400448 0.00181867 ) 0 
( -0.0017888 -0.00710425 0.00212037 ) 0 
( -0.00981064 -0.00240404 0.00595962 ) 0 
( -0.00802374 -0.00820269 0.00487605 ) 0 
( -0.00166299 -0.00923833 0.00387297 ) 0 
( -0.0104608 -0.00383145 0.00729207 ) 0 
( -0.00398477 -0.0110371 0.00384139 ) 0 
( -0.000677158 -0.0007988 0.00335681 ) 0 
( -0.00586755 -0.00656036 0.00129537 ) 0 
( -0.00614537 -0.00462623 0.0047015 ) 0 
( -0.00955268 -0.00446746 0.00674985 ) 0 
( -0.00756022 -0.00808454 0.00223685 ) 0 
( -0.00515107 -0.0116594 0.000499672 ) 0 
( -0.00379209 -0.00482493 0.00633764 ) 0 
( -0.00703488 -0.000774447 0.00138656 ) 0 
( -0.00840194 -0.0103734 0.00595769 ) 0 
( -0.0064416 -0.00173162 0.00793008 ) 0 
( -0.00270762 -0.0113202 0.00135421 ) 0 
( -0.00517916 -0.00800686 0.000767843 ) 0 
( -0.00358 -0.0113714 0.00742288 ) 0 
( -0.000346981 -0.00839029 0.00133974 ) 0 
( -0.0117001 -0.00111753 0.00590828 ) 0 
( -0.0032685 -0.000546581 0.00773137 ) 0 
( -0.0107052 -0.00422034 0.00256195 ) 0 
( -0.0109151 -0.0056307 0.00535609 ) 0 
( -0.00741093 -0.00701258 0.00211973 ) 0 
( -0.0133467 -0.000189644 0.000499832 ) 0 
( -0.00727098 -0.000312407 0.00423246 ) 0 
( -0.00881121 -0.0054126 0.0049438 ) 0 
( -0.00501003 -0.00494954 0.0020964 ) 0 
( -0.00498464 -0.00877777 0.00242247 ) 0 
( -0.00720626 -0.00174133 0.00714349 ) 0 
( -0.0128905 -0.00345367 0.000499745 ) 0 
( -0.00680338 -0.00084503 0.00821825 ) 0 
( -0.00143327 -0.0123895 0.00345559 ) 0 
( -0.00816736 -0.0073605 0.000499809 ) 0 
( -0.00332706 -0.00172331 0.0057982 ) 0 
( -0.00057019 -0.00664055 0.00209575 ) 0 
( -0.0115155 -0.00494668 0.00716348 ) 0 
( -0.00926062 -0.000540945 0.00408857 ) 0 
( -0.00276562 -0.000343954 0.00496873 ) 0 
( -0.0123859 -0.000672928 0.00648483 ) 0 
( -0.0034676 -0.00861376 0.00373922 ) 0 
( -0.00221626 -0.000215121 0.00587419 ) 0 
( -0.00703824 -0.00413699 0.00173541 ) 0 
( -0.00789504 -0.00864714 0.00143837 ) 0 
( -0.00220598 -0.000441408 0.00315399 ) 0 
( -0.00026492 -0.0090425 0.00401405 ) 0 
( -0.00759606 -0.000914742 0.00610041 ) 0 
( -0.00454024 -0.0125462 0.00489202 ) 0 
( -0.00649842 -0.0106589 0.00369244 ) 0 
( -0.000440862 -0.0059999 0.00133905 ) 0 
( -0.00605524 -0.00416244 0.00637522 ) 0 
( -0.00421206 -0.00799599 0.0039923 ) 0 
( -0.00207969 -0.0076039 0.00130451 ) 0 
( -0.00769959 -0.00258296 0.0075087 ) 0 
( -0.00723445 -0.00646247 0.00554824 ) 0 
( -0.000495182 -0.00116982 0.00224967 ) 0 
( -0.00930418 -0.00828911 0.0035771 ) 0 
( -0.00271156 -0.0130718 0.000939118 ) 0 
( -0.0121791 -0.00546769 0.00206808 ) 0 
( -0.00225415 -0.00410178 0.00221324 ) 0 
( -0.00333079 -0.00421011 0.00203985 ) 0 
( -0.00461557 -0.00147564 0.00255483 ) 0 
( -0.007678 -0.00461927 0.00364756 ) 0 
( -0.00557396 -0.00319772 0.0076838 ) 0 
( -0.00644341 -0.000320061 0.00580496 ) 0 
( -0.00718121 -0.0067365 0.00118606 ) 0 
( -0.00385611 -0.00158152 0.000499704 ) 0 
( -0.0026336 -0.0019949 0.00412987 ) 0 
( -0.00654021 -0.00268573 0.00764724 ) 0 
( -0.00339419 -0.00356076 0.00128213 ) 0 
( -0.00312422 -0.00880474 0.00734913 ) 0 
( -0.00239621 -0.00352358 0.000499701 ) 0 
( -0.00527729 -0.00522067 0.00714187 ) 0 
( -0.00693458 -0.00138517 0.00217197 ) 0 
( -0.00452572 -0.0047112 0.00563444 ) 0 
( -0.0132147 -0.00189573 0.0048601 ) 0 
( -0.0045747 -0.000175061 0.00257543 ) 0 
( -0.0108727 -0.00181814 0.00137848 ) 0 
( -0.00395812 -0.00774478 0.00211631 ) 0 
( -0.00297145 -0.00701539 0.00530288 ) 0 
( -0.000938445 -0.00447585 0.00141329 ) 0 
( -0.0121714 -0.00548493 0.000499779 ) 0 
( -0.00700006 -0.00743498 0.00654191 ) 0 
( -0.00413038 -0.00394896 0.00668097 ) 0 
( -0.00561045 -0.00601248 0.000499568 ) 0 
( -0.00678139 -0.00840534 0.00643549 ) 0 
( -0.00138833 -0.000162796 0.00365814 ) 0 
( -0.00586191 -0.0077163 0.00584487 ) 0 
( -0.00598678 -0.00045116 0.00756238 ) 0 
( -0.00574579 -0.00653008 0.00317803 ) 0 
( -0.0124032 -0.00493703 0.00315457 ) 0 
( -0.0102039 -0.00860851 0.0015103 ) 0 
( -0.00371118 -0.00554883 0.00460999 ) 0 
( -0.00378482 -0.00649446 0.00692599 ) 0 
( -0.00405224 -0.00851358 0.0027664 ) 0 
( -0.0120881 -0.00364377 0.0027314 ) 0 
( -0.00194225 -0.00589845 0.00646257 ) 0 
( -0.00789704 -0.000512503 0.00333403 ) 0 
( -0.000935701 -0.00984403 0.00348866 ) 0 
( -0.00470157 -0.00265684 0.00381519 ) 0 
( -0.0101602 -0.00568187 0.00435023 ) 0 
( -0.0080286 -0.010666 0.000499777 ) 0 
( -0.0100905 -0.00673084 0.00269283 ) 0 
( -0.00245226 -0.00941524 0.00582731 ) 0 
( -0.000461303 -0.0052351 0.00699598 ) 0 
( -0.0079154 -0.00906634 0.00538028 ) 0 
( -0.00200336 -0.00668253 0.0032857 ) 0 
( -0.00375539 -0.00764436 0.00634991 ) 0 
( -0.00115917 -0.00653126 0.00548266 ) 0 
( -0.00842974 -0.00506141 0.0059676 ) 0 
( -0.00242669 -0.00138113 0.00289269 ) 0 
( -0.000763368 -0.00275273 0.00269001 ) 0 
( -0.00927063 -0.00258571 0.00513698 ) 0 
( -0.00290651 -0.000122047 0.00397141 ) 0 
( -0.00457857 -0.00726121 0.00149896 ) 0 
( -0.00505802 -0.00303475 0.00049978 ) 0 
( -0.00374247 -0.0128149 0.00092221 ) 0 
( -0.0131737 -0.00148647 0.00310754 ) 0 
( -0.00705042 -0.00383881 0.0028433 ) 0 
( -0.00881545 -0.0021364 0.00314585 ) 0 
( -0.0109071 -0.0046296 0.00134902 ) 0 
( -0.00365792 -0.0109431 0.00552427 ) 0 
( -0.00675694 -0.00904191 0.00307009 ) 0 
( -0.0027908 -0.00515966 0.00464726 ) 0 
( -0.00990235 -0.0075291 0.00204666 ) 0 
( -7.59375e-05 -0.000157781 0.00510719 ) 0 
( -0.00781142 -0.00696793 0.0061898 ) 0 
( -0.00707649 -0.0111112 0.000499725 ) 0 
( -0.00843213 -0.0103497 0.00695657 ) 0 
( -0.0122214 -0.00242567 0.0058422 ) 0 
( -0.00778949 -0.00275742 0.00116484 ) 0 
( -0.000730064 -0.0124539 0.00417447 ) 0 
( -0.00982915 -0.00632035 0.00618325 ) 0 
( -0.00362019 -0.00855254 0.00163334 ) 0 
( -0.00477464 -0.000448911 0.00475777 ) 0 
( -0.000633735 -0.00120696 0.00516902 ) 0 
( -0.00120255 -0.00340281 0.00854735 ) 0 
( -0.00785135 -0.0054922 0.0010223 ) 0 
( -0.0052362 -0.00346687 0.00356309 ) 0 
( -0.00784109 -0.00187005 0.00593493 ) 0 
( -0.00475265 -0.00887044 0.000499578 ) 0 
( -0.00163321 -0.00684226 0.00632881 ) 0 
( -0.00444086 -0.00422196 0.00417764 ) 0 
( -0.00404241 -0.00130615 0.0064044 ) 0 
( -0.00896268 -0.00989191 0.00766973 ) 0 
( -0.00702877 -0.00567453 0.00724187 ) 0 
( -0.00688085 -0.00317161 0.0049009 ) 0 
( -0.00743789 -0.00186867 0.00453409 ) 0 
( -0.00464101 -0.00465581 0.00121469 ) 0 
( -0.000799188 -0.0133262 0.00615271 ) 0 
( -0.00852618 -0.00263598 0.000499703 ) 0 
( -0.000518215 -0.00759637 0.00675634 ) 0 
( -0.00134431 -0.00647064 0.00426622 ) 0 
( -0.00688915 -0.00315293 0.00183008 ) 0 
( -0.00990108 -0.00172055 0.00460892 ) 0 
( -0.00281748 -0.00876645 0.00515981 ) 0 
( -0.00702505 -0.00570132 0.00049972 ) 0 
( -0.00568289 -0.00594481 0.0020619 ) 0 
( -0.00802137 -0.00402163 0.0043728 ) 0 
( -0.00970334 -0.00045408 0.00498502 ) 0 
( -0.00880158 -0.00632897 0.000499805 ) 0 
( -0.00965487 -0.00673009 0.00147745 ) 0 
( -0.00126337 -0.0048114 0.00344258 ) 0 
( -0.00157656 -0.00126497 0.00796244 ) 0 
( -0.00573937 -0.00268918 0.0067866 ) 0 
( -0.0131795 -0.00211952 0.00583406 ) 0 
( -0.00433075 -0.00516085 0.00385053 ) 0 
( -0.00720125 -0.00258073 0.0056416 ) 0 
( -0.00673745 -0.00889184 0.00204442 ) 0 
( -0.00133862 -0.00162515 0.00161818 ) 0 
( -0.00593015 -0.00914692 0.00462716 ) 0 
( -0.0114133 -0.0028989 0.00314938 ) 0 
( -0.0077455 -0.00201118 0.000499717 ) 0 
( -0.000590074 -0.00302605 0.00161363 ) 0 
( -0.00543195 -0.00446114 0.00402028 ) 0 
( -0.00204092 -0.000976762 0.00524964 ) 0 
( -0.000778178 -0.00932841 0.00130098 ) 0 
( -0.00540611 -0.00201388 0.00140453 ) 0 
( -0.00571045 -0.00642606 0.00535439 ) 0 
( -0.00191838 -0.0132111 0.00477323 ) 0 
( -0.00999094 -0.00601071 0.000499796 ) 0 
( -0.0116902 -0.00644541 0.00432788 ) 0 
( -0.00178518 -0.00928696 0.00187632 ) 0 
( -0.00178052 -0.0132308 0.00694599 ) 0 
( -0.0119957 -0.00487388 0.00127138 ) 0 
( -0.00888221 -0.00696777 0.00206597 ) 0 
( -0.00168601 -0.012227 0.00219567 ) 0 
( -0.00278535 -0.0130556 0.00407701 ) 0 
( -0.00172608 -0.00246684 0.00695852 ) 0 
( -0.00024843 -0.00291089 0.00805964 ) 0 
( -0.0128867 -0.00343653 0.00337351 ) 0 
( -0.000594413 -0.0133365 0.00319571 ) 0 
( -0.00262974 -0.00285846 0.00463397 ) 0 
( -0.00792222 -0.0042285 0.00639728 ) 0 
( -0.00457004 -0.00718692 0.00446608 ) 0 
( -0.00357166 -0.00827859 0.0055991 ) 0 
( -0.0111598 -0.00324566 0.00496828 ) 0 
( -0.0103075 -0.0048363 0.000499697 ) 0 
( -0.0057392 -0.000984963 0.00605362 ) 0 
( -0.00817497 -0.00683976 0.00732304 ) 0 
( -0.0120152 -0.00581082 0.00709502 ) 0 
( -0.00311487 -0.0119383 0.00547047 ) 0 
( -0.00673952 -0.00935425 0.00612336 ) 0 
( -0.00341691 -0.00267937 0.00404375 ) 0 
( -0.00896237 -0.000922189 0.00128906 ) 0 
( -0.00395402 -0.00217531 0.0083729 ) 0 
( -0.00213037 -0.00332825 0.00726521 ) 0 
( -0.0051264 -0.0101764 0.00565344 ) 0 
( -0.00220966 -0.00822796 0.00574706 ) 0 
( -0.0086128 -0.00321617 0.00417443 ) 0 
( -0.00642309 -0.00222737 0.00234428 ) 0 
( -0.0103045 -0.00492428 0.00498692 ) 0 
( -0.00316704 -0.00569859 0.00716144 ) 0 
( -0.000720942 -0.000444137 0.00581548 ) 0 
( -0.00780966 -0.00359525 0.00525208 ) 0 
( -0.00580502 -0.00541095 0.00631382 ) 0 
( -0.010126 -0.00869972 0.00650541 ) 0 
( -0.00885413 -0.000765363 0.00318954 ) 0 
( -0.0129118 -0.00338075 0.00207166 ) 0 
( -0.0122778 -0.00312045 0.00128295 ) 0 
( -0.0063138 -0.0117583 0.000499777 ) 0 
( -0.00115037 -0.00103343 0.000834518 ) 0 
( -0.00149307 -0.0132662 0.000499729 ) 0 
( -0.0023223 -0.00298678 0.00134004 ) 0 
( -0.00810156 -0.00116085 0.0052735 ) 0 
( -0.00537178 -0.00926515 0.00622799 ) 0 
( -0.00591816 -0.00842262 0.00237377 ) 0 
( -0.00617934 -0.00398112 0.00222329 ) 0 
( -0.00477743 -0.0026287 0.00801093 ) 0 
( -0.00811465 -0.00948287 0.000935177 ) 0 
( -0.0029981 -0.0111631 0.00637292 ) 0 
( -0.00293957 -0.00428753 0.00632317 ) 0 
( -0.00548427 -0.0119286 0.00456213 ) 0 
( -0.00792417 -0.00120156 0.00777908 ) 0 
( -0.00345846 -0.000299019 0.00670564 ) 0 
( -0.000546833 -0.00805356 0.00796544 ) 0 
( -0.0125012 -0.000537075 0.00549892 ) 0 
( -0.0037803 -0.00656561 0.00491173 ) 0 
( -0.00356031 -0.00579325 0.00624638 ) 0 
( -0.00559308 -0.0121073 0.00358421 ) 0 
( -0.00838284 -0.00341075 0.00605135 ) 0 
( -0.0056484 -0.00495832 0.000499715 ) 0 
( -0.00954206 -0.00844151 0.00224104 ) 0 
( -0.00230016 -0.00662017 0.00138862 ) 0 
( -0.0054836 -0.0042364 0.00155198 ) 0 
( -0.00937753 -0.00168181 0.000499803 ) 0 
( -0.00741941 -0.00497685 0.00265488 ) 0 
( -0.0113094 -0.00527549 0.00450812 ) 0 
( -0.00838921 -0.00431898 0.000499695 ) 0 
( -0.000567048 -0.00125058 0.007776 ) 0 
( -0.00391742 -0.00404517 0.00774892 ) 0 
( -0.000111633 -0.00618359 0.00710294 ) 0 
( -0.000986405 -0.0125936 0.0071134 ) 0 
( -3.6358e-05 -0.0102374 0.005764 ) 0 
( -0.00555104 -0.00270898 0.00434016 ) 0 
( -0.009992 -0.00429547 0.00427478 ) 0 
( -0.0105942 -0.00682224 0.000499807 ) 0 
( -0.000190342 -0.00787125 0.000499614 ) 0 
( -0.010586 -0.00812747 0.00490746 ) 0 
( -0.00667506 -0.00126778 0.00626445 ) 0 
( -0.00306188 -0.00361102 0.0041233 ) 0 
( -0.0077478 -0.00796482 0.00614182 ) 0 
( -0.00804673 -0.00923181 0.0044029 ) 0 
( -0.00575215 -0.00889572 0.000499663 ) 0 
( -0.012728 -0.00401836 0.0052796 ) 0 
( -0.00737654 -0.00343045 0.00614218 ) 0 