FoamFile
{version 2.0; format ascii;class vectorField; location 0;object  v;}
2510
(
( 4.88895e-05 4.2258e-05 0.000107342 )  
( 0.00072846 -0.00032708 3.88656e-05 )  
( -0.000340935 0.00018725 0.000920524 )  
( 0.000368308 0.000253373 0.000698609 )  
( 0.000222197 0.000135555 0.000675228 )  
( 1.64976e-05 7.68523e-05 4.64439e-06 )  
( 0.000838141 -8.43282e-05 -2.60121e-05 )  
( -5.96214e-05 -0.00013425 0.000356759 )  
( 0.000613689 -0.000894567 0.000517914 )  
( -0.00013582 0.000182881 0.000680598 )  
( -9.16499e-05 -0.00029643 0.000748661 )  
( 6.26478e-05 -2.33631e-07 0.000413658 )  
( -8.72686e-05 -1.99379e-05 0.000619989 )  
( -3.4703e-05 0.000197427 0.000762734 )  
( -0.000151144 -0.000120873 0.000676281 )  
( -0.000113907 6.00726e-05 0.000902579 )  
( -0.000247523 -0.000245966 0.000944575 )  
( -7.09569e-05 -2.71986e-05 0.000892357 )  
( -6.16405e-06 -5.38068e-05 0.000777953 )  
( -8.88103e-05 -1.34413e-05 0.000736895 )  
( 0.000198347 0.000231108 0.000804612 )  
( -1.50997e-05 0.000254513 0.000724109 )  
( -0.000292772 8.55846e-05 0.000560605 )  
( -0.020161 -0.0266668 -0.0411974 )  
( 0.00674968 0.0209724 -0.0381191 )  
( -0.00237235 -4.0616e-05 0.00053558 )  
( -4.21525e-05 0.00012262 0.000568578 )  
( 1.55886e-06 0.000123614 0.000550109 )  
( -5.54798e-05 -0.000232082 0.00072273 )  
( 6.18514e-06 -4.58275e-05 0.000733363 )  
( -1.93863e-05 -6.28172e-05 0.000827068 )  
( -0.000377546 2.51887e-05 0.000478389 )  
( -0.00070275 -0.00032767 0.000755743 )  
( -0.000242241 -0.000254356 0.000519515 )  
( 0.00016799 -0.000177196 0.000320877 )  
( -0.000131072 -0.00019982 0.000427658 )  
( -7.45214e-05 -0.000291739 0.000611406 )  
( -0.000352861 4.53593e-05 0.000541855 )  
( 0.000264983 4.48927e-05 0.000157786 )  
( -2.80174e-05 -0.000174686 0.000340048 )  
( -0.000302121 0.000383596 0.000684607 )  
( -0.000202623 0.000169152 0.000645097 )  
( -4.67667e-05 -0.000681098 0.000411645 )  
( 4.57052e-05 -4.35302e-07 2.0479e-05 )  
( 0.000341966 0.000143438 0.000161211 )  
( -0.000472877 7.96561e-05 0.000241785 )  
( -3.09545e-05 0.000182915 4.43335e-05 )  
( -0.000417952 -0.000399856 0.000118505 )  
( 4.93955e-05 -0.000253189 0.00020958 )  
( -0.000124006 -9.57959e-05 0.000582772 )  
( -0.000268216 0.000172152 0.00060994 )  
( -0.000227484 1.88022e-06 0.000585614 )  
( -0.000242517 -0.000105625 0.000436727 )  
( 0.000218368 -4.90259e-05 0.000226656 )  
( -0.00012651 -0.000126471 0.00013931 )  
( 1.09394e-05 -0.000266508 0.000571846 )  
( 0.000166724 0.000568468 -0.000232847 )  
( 0.000205148 7.90069e-06 0.000370265 )  
( 1.01214e-05 -0.000120816 0.000116832 )  
( -2.60521e-05 -0.000138507 3.5e-05 )  
( -0.00018254 0.000240858 0.000588559 )  
( -0.000200688 -0.000216897 0.000329423 )  
( -0.000101295 -5.32514e-05 0.000103867 )  
( -0.000147448 -9.54875e-05 0.00044306 )  
( -0.000279716 -0.000230089 0.000690525 )  
( -0.000157318 0.000551897 0.000507689 )  
( 5.53199e-05 -0.000411192 0.00031797 )  
( -3.13418e-05 -0.000339359 0.000826653 )  
( -1.47442e-05 -0.000207615 2.32187e-05 )  
( 0.00012428 -0.000235618 0.00040122 )  
( 3.34726e-06 2.71032e-05 0.000660946 )  
( 0.00026402 0.000109704 -5.6504e-05 )  
( -0.000123357 -1.38598e-05 0.00050175 )  
( -0.000585736 -0.000139448 1.97004e-05 )  
( -0.000411511 -0.000225456 0.000499823 )  
( -0.000169014 -0.000308484 0.000427267 )  
( 0.000215785 -0.00052972 0.000155775 )  
( 0.000221519 5.55951e-05 0.00041715 )  
( -8.69488e-05 0.000128796 0.000888055 )  
( -0.000490716 -4.32768e-05 0.000300484 )  
( -4.01756e-05 -0.000127721 0.000226408 )  
( -8.74707e-05 -0.000380249 0.000273423 )  
( -2.31966e-05 -1.37055e-06 0.000316349 )  
( 1.56518e-05 -0.000103468 0.000265565 )  
( -0.000149439 -0.00032591 0.000620185 )  
( 2.32937e-05 -0.000112616 0.000144438 )  
( -0.000116129 -0.000169868 0.000865953 )  
( -9.21266e-05 -0.000141316 0.000186216 )  
( -3.67245e-05 -0.000299491 0.000661408 )  
( -0.000424867 -0.000443766 0.00110102 )  
( 1.29109e-05 0.000126286 0.000509564 )  
( -0.000167985 -0.000298909 0.000293405 )  
( -0.000290671 -0.000437499 0.000323059 )  
( -7.15073e-05 7.2838e-05 0.000594711 )  
( 0.000147438 -0.000177598 0.000451266 )  
( 0.000156093 -0.000337433 0.000266338 )  
( -0.000361861 5.67679e-05 0.000402129 )  
( 0.00018665 0.000155559 0.000134803 )  
( -0.000193047 -7.38701e-05 0.000563534 )  
( -1.76888e-05 3.1402e-05 -5.5049e-06 )  
( 1.18802e-05 4.45374e-05 0.000249227 )  
( -0.000241079 -0.000517791 0.000656084 )  
( 1.70607e-05 6.44617e-05 0.000299211 )  
( -0.000104244 -0.000124595 0.000687663 )  
( 2.09456e-05 -0.000264764 0.000748938 )  
( 8.46126e-05 2.69813e-05 0.000178277 )  
( -0.000318397 5.81508e-05 0.000624765 )  
( -0.000372117 -0.000112738 0.000733957 )  
( -0.000282558 -0.000258742 0.000262068 )  
( 8.34058e-05 -0.0002639 0.000316488 )  
( -0.000237343 -5.55639e-05 0.000314448 )  
( -0.000190505 -0.000222083 0.000156592 )  
( -1.28355e-05 -4.77012e-05 0.000338338 )  
( -0.000222104 -0.000317655 0.00112588 )  
( -0.000188262 0.000140753 0.000545429 )  
( 3.17971e-05 -0.000352654 0.000173425 )  
( -5.56191e-05 6.94892e-05 0.000359959 )  
( -0.000233022 -0.000376161 0.000675316 )  
( 0.000320826 -4.9103e-05 0.00139312 )  
( -8.22313e-05 -0.000307484 0.000256438 )  
( -7.94476e-05 -3.5231e-06 3.93389e-05 )  
( -0.000556259 -8.36777e-05 0.000997707 )  
( 0.000173687 -0.000322403 0.000196179 )  
( -0.000189767 -0.000146361 1.68736e-05 )  
( -0.00020423 -0.00023542 0.000934208 )  
( -0.0001843 -0.000346537 0.000253523 )  
( 0.000127566 -0.000396481 0.000291006 )  
( -0.000111249 -0.000245536 5.43903e-05 )  
( -5.89784e-05 -0.000330122 -5.28651e-06 )  
( -0.000153554 -0.000192913 0.000598796 )  
( -3.12555e-05 -0.000160897 0.000468411 )  
( -0.000298718 -7.50466e-05 0.000598139 )  
( -3.60821e-05 -0.000251103 6.14591e-05 )  
( -0.000267345 -0.00048024 0.00059476 )  
( 2.90647e-05 -5.39011e-06 0.000328398 )  
( 0.000268617 -0.000249034 0.000327005 )  
( -0.000343119 -0.000516885 0.000273783 )  
( -3.62993e-05 -1.58728e-05 7.15559e-05 )  
( -1.50461e-05 -0.000104806 0.000415235 )  
( 3.19186e-05 -0.000126426 0.000271791 )  
( -8.49453e-05 -0.000580523 0.00042492 )  
( 0.000182964 -0.000183467 0.000518043 )  
( -0.000109433 0.000133788 0.000199167 )  
( 0.000130673 0.000672755 0.000433893 )  
( 0.000156996 -0.000109395 0.000421183 )  
( -0.000174363 -0.000189418 0.000578621 )  
( -0.000131302 -0.000115043 0.000503215 )  
( 2.19038e-06 -0.000138844 2.88339e-06 )  
( -0.000153203 -0.000114133 0.000268808 )  
( -0.00073231 -0.000383732 -0.000264181 )  
( -1.75106e-05 -9.69479e-05 -3.97083e-05 )  
( -0.000191868 -0.00026089 0.000252431 )  
( -1.86505e-05 -0.000124947 4.9867e-05 )  
( -7.66358e-05 -0.000363573 0.00023947 )  
( -2.22017e-05 -1.56547e-05 2.7939e-05 )  
( 2.65641e-05 1.1773e-05 0.000214916 )  
( -0.000729519 0.00110646 4.37049e-05 )  
( 0.000170732 -3.43537e-05 0.000715688 )  
( -5.65594e-05 -0.00032221 0.000490116 )  
( 1.07149e-05 -2.4674e-05 0.000101849 )  
( -4.36973e-05 -0.000304355 0.000491627 )  
( -0.000293586 -0.000646848 0.00139131 )  
( -0.000149075 -0.000319744 0.000229773 )  
( -0.000342965 -0.000453176 0.000188702 )  
( -0.000170522 -8.58383e-05 0.000145847 )  
( 4.67385e-05 -0.000469446 9.53835e-05 )  
( -0.000199043 0.000149364 0.000650541 )  
( 6.02989e-05 -5.96448e-05 0.000591083 )  
( -0.000236375 -0.000573849 0.000337434 )  
( 0.000116607 -0.000330604 0.000472698 )  
( -0.000442856 -0.000647354 -2.84091e-05 )  
( -0.000270642 -9.25763e-05 0.000307736 )  
( -5.7258e-05 -0.000276458 0.000553693 )  
( -0.00017412 1.44861e-05 1.74225e-05 )  
( -0.000104431 -0.000112277 0.000465506 )  
( -0.000115287 4.53493e-05 0.000457702 )  
( 2.20063e-06 -0.000159081 6.58985e-06 )  
( -9.97598e-05 -0.000215604 0.000165843 )  
( -0.000473015 -0.000241008 0.000299399 )  
( -0.00029373 -0.000186616 0.000663336 )  
( -0.000161019 4.48933e-05 0.000397323 )  
( -7.00953e-05 0.000195855 0.000547148 )  
( -0.000273245 -0.000349604 0.000178402 )  
( -8.45358e-06 -7.65747e-05 -8.25325e-05 )  
( -0.000190929 -0.000448635 0.000786192 )  
( 0.000199847 -0.000243805 0.000659378 )  
( -0.000252822 -0.000160432 0.000382785 )  
( 0.000147012 -0.000205249 0.000478637 )  
( -2.01242e-05 -3.63417e-05 0.000671006 )  
( -0.000193599 -0.000101632 -1.33454e-05 )  
( 9.57919e-05 -0.000346662 0.00027828 )  
( -0.000375954 -0.000152667 0.000288103 )  
( -4.18926e-05 1.62104e-05 0.000107844 )  
( -0.00100292 -0.000680686 0.000387986 )  
( -5.44859e-05 -0.00049723 0.000256032 )  
( 0.0010529 -0.000600511 0.000729425 )  
( 3.40826e-06 -0.000225198 0.000530775 )  
( -0.000508278 0.00033823 0.000888988 )  
( -0.000674277 0.000253038 0.000617568 )  
( -0.000408111 -2.2947e-05 0.000121507 )  
( -6.05861e-05 -9.23225e-05 4.32361e-05 )  
( -0.00026975 2.35858e-05 -0.000293878 )  
( -7.38987e-05 3.02955e-05 -5.4895e-05 )  
( -0.000164021 1.84616e-05 0.000140625 )  
( -0.000178402 0.000657913 2.84771e-05 )  
( -5.47791e-05 -4.10577e-05 0.000351555 )  
( 0.000251327 -0.000148874 0.000646843 )  
( 0.000186206 -1.06744e-05 -4.91122e-05 )  
( 0.000191086 -0.000231083 0.000680461 )  
( -0.000327371 6.91896e-05 0.000511184 )  
( 0.000287034 -7.73205e-05 0.000676777 )  
( 3.41283e-05 -5.85273e-05 1.261e-05 )  
( 0.000825609 0.000137602 0.000443146 )  
( 3.00378e-05 8.24169e-05 0.000594684 )  
( -0.000405506 -0.000427954 0.000577341 )  
( -8.44753e-05 -6.68054e-07 0.000562844 )  
( 0.000392919 -0.00030724 0.000553535 )  
( 5.06081e-05 -3.31684e-05 5.70051e-05 )  
( -4.04906e-05 0.000114972 0.000551998 )  
( 0.000704547 -1.66194e-07 1.6424e-05 )  
( -0.000110115 2.66657e-05 0.000596565 )  
( -0.00014219 -3.34271e-05 0.000531563 )  
( -0.000395285 0.000557623 0.000584878 )  
( 9.76701e-05 -0.00026548 0.000788071 )  
( -0.000303002 -0.000298374 0.000400159 )  
( -7.6454e-05 -1.84195e-05 0.000502631 )  
( 0.000218656 -0.000256335 0.000672942 )  
( -0.000307174 -0.000367387 0.000874696 )  
( -7.07621e-05 7.00998e-05 0.00043012 )  
( 0.00017985 9.78889e-05 0.000175336 )  
( -0.000294002 -0.000142918 0.000491356 )  
( 0.000132136 -1.50292e-05 0.000100958 )  
( -0.000316403 0.000199788 5.20408e-05 )  
( -2.60304e-05 6.70983e-05 5.62467e-05 )  
( -0.000507314 -0.000121286 0.000332256 )  
( 4.51427e-05 -0.000517347 0.000194044 )  
( -1.88518e-05 -0.000512396 0.00029242 )  
( 8.89155e-05 6.62938e-05 -2.50022e-06 )  
( -0.000437534 -0.000441958 0.000810001 )  
( -0.000191666 -1.80322e-05 0.000401338 )  
( -7.20741e-05 7.84871e-07 1.06207e-05 )  
( -0.000519495 8.37574e-05 0.000489644 )  
( 0.000339166 -0.000440531 0.00123559 )  
( 0.000302819 -0.000541657 -1.1337e-05 )  
( -0.00014505 7.30567e-05 0.000368733 )  
( 0.000280374 -0.00041948 -6.42201e-05 )  
( -0.000177674 -4.45681e-05 0.000442896 )  
( -0.000223082 -9.90499e-05 7.14886e-05 )  
( 0.000100582 -5.15552e-05 0.000286535 )  
( -8.84458e-05 0.000111815 0.000205511 )  
( -0.000311869 -0.000112639 0.000812348 )  
( -0.000195101 -0.000544055 0.00040123 )  
( -0.000272927 -0.000425237 0.000389791 )  
( -0.000225775 -3.55941e-05 0.000582246 )  
( 0.00011803 -0.000504146 0.00030279 )  
( -0.000205179 -8.77328e-06 0.000325288 )  
( -4.20625e-05 6.32493e-05 0.000512883 )  
( 4.70103e-05 -0.000173481 2.12351e-05 )  
( -0.000425689 -0.000147698 0.000697001 )  
( -0.000121562 6.26199e-06 -3.5831e-05 )  
( -0.000337913 -0.000255362 0.000630449 )  
( -4.47145e-05 -9.75163e-05 2.53481e-05 )  
( 4.89462e-05 -0.000388706 0.00034163 )  
( -1.06796e-06 -0.00023224 0.000401805 )  
( 0.000415101 9.90383e-05 0.000790445 )  
( 3.78196e-05 -5.18343e-05 2.06804e-05 )  
( -6.24737e-06 -0.000199277 8.88866e-05 )  
( -5.0434e-05 -3.31649e-06 9.65209e-05 )  
( 0.000439059 -0.000104805 0.000621605 )  
( 4.94061e-05 9.61975e-05 0.000109826 )  
( -7.88593e-05 -0.000155655 -1.991e-05 )  
( -0.000180702 -8.66253e-05 0.000388323 )  
( -0.000180267 -9.6134e-05 0.000481928 )  
( 4.47552e-05 2.49918e-05 6.44845e-05 )  
( -7.2315e-05 -8.32008e-05 0.000575001 )  
( -0.000482118 -0.000152356 0.000371647 )  
( 1.17445e-05 -0.000303879 0.000294145 )  
( 0.000102566 -0.000130125 0.000218997 )  
( -0.000427208 -0.000252208 0.00109936 )  
( 5.78708e-05 -0.000478844 0.000545566 )  
( -0.000273144 -0.000704792 1.93244e-05 )  
( -0.000334726 -0.00011776 0.000590158 )  
( -0.000162859 -3.19829e-05 0.000360916 )  
( -0.000200586 5.89752e-05 0.000853124 )  
( 0.00029833 -0.000313612 0.000128048 )  
( -8.78469e-05 -2.81887e-05 0.000108017 )  
( -2.13352e-05 -0.000130628 0.000408651 )  
( 0.00019222 -0.000277151 0.00012594 )  
( -0.000117743 0.000319357 0.000309732 )  
( -6.77315e-07 4.41571e-05 0.00045714 )  
( -0.000275896 -5.34755e-07 0.000128471 )  
( -7.26177e-05 -1.58929e-05 6.11541e-05 )  
( 2.71855e-05 -6.98499e-05 0.000547013 )  
( 0.000270124 -0.000104292 1.9845e-05 )  
( 2.28894e-05 1.22148e-05 1.95348e-05 )  
( 0.000462432 -0.000613245 0.000710567 )  
( -0.000286093 -4.27244e-05 0.000414987 )  
( 0.000185546 -0.000240782 0.00174925 )  
( -0.000150563 2.03274e-05 0.000815561 )  
( -3.13296e-05 7.38767e-05 0.000511201 )  
( -0.000118038 -6.05375e-05 -1.25369e-05 )  
( -0.000195804 -9.86944e-05 -0.000301052 )  
( 0.000115665 -1.5447e-05 0.000704956 )  
( -9.53872e-06 -0.000125529 0.000417784 )  
( -7.69428e-05 0.000159348 1.46619e-05 )  
( 0.00216057 -0.000195698 -0.000231544 )  
( -0.000110884 -0.000208439 0.000755388 )  
( -0.000242201 -5.77012e-05 0.000484175 )  
( 0.000672385 -0.000101281 0.000876857 )  
( -5.9491e-05 -0.000275841 0.000364873 )  
( -0.000662915 0.000784592 0.000506552 )  
( -0.000336206 -0.000265295 0.0005804 )  
( -9.418e-06 -6.83418e-06 0.000886722 )  
( -0.000236658 -0.000334312 0.000210067 )  
( -0.000102964 -7.05894e-05 0.000105724 )  
( -0.000503021 -0.000178617 -8.03908e-05 )  
( -0.000162792 0.000151281 0.00055253 )  
( 0.000144215 -0.000129603 3.91052e-05 )  
( -8.7954e-05 -0.000254153 0.00043733 )  
( 0.000148245 0.000479619 0.000960544 )  
( 2.43575e-05 -0.00025839 0.00028069 )  
( -5.90549e-05 -4.5142e-05 0.000633673 )  
( -0.000252729 -0.000424318 0.00031231 )  
( 1.11356e-05 -4.05185e-05 0.00031389 )  
( -3.05451e-05 -0.000117873 0.000194718 )  
( -0.000343891 -0.000118408 0.000989871 )  
( -8.67292e-05 3.20878e-05 0.000225074 )  
( -0.000174526 -1.39342e-05 0.00050701 )  
( -0.000149914 -0.000202853 0.000858905 )  
( -1.52621e-05 -0.000178996 0.000325148 )  
( 0.00012847 6.23196e-06 0.000580877 )  
( 0.000803629 -8.6624e-05 -0.000147076 )  
( -0.000157683 0.0022964 -1.20634e-07 )  
( -0.000127483 0.000110911 0.000136498 )  
( -6.05009e-05 -4.00414e-05 0.000401467 )  
( -4.04692e-05 -0.000187572 8.73589e-05 )  
( 5.20428e-05 -0.000210935 -3.94303e-05 )  
( -0.000143521 -0.000139355 0.000592575 )  
( -9.98673e-05 -9.36256e-05 0.00048995 )  
( -0.000174026 -0.000383254 0.000202388 )  
( 2.3051e-06 2.53533e-05 -5.7139e-05 )  
( -0.000137128 -6.46168e-05 0.000982947 )  
( -0.000158028 -0.000319263 0.000282636 )  
( 0.000134076 -0.000261017 0.000681203 )  
( -3.22915e-05 -0.000283404 -6.97072e-06 )  
( -1.755e-05 0.000138847 0.00025455 )  
( -6.88144e-05 0.000506474 0.000283868 )  
( 7.34378e-05 -0.000223346 7.35806e-05 )  
( -0.000325321 -0.00117325 0.000790345 )  
( -0.000450873 -0.000321433 8.58692e-06 )  
( -0.000246329 -4.48517e-05 0.000480653 )  
( 1.87033e-05 0.000237338 0.000623513 )  
( -0.000275509 -0.000129487 0.00018864 )  
( 8.71558e-06 7.07562e-05 0.000160049 )  
( -9.58303e-05 -0.00014243 0.000422682 )  
( -4.40305e-05 -0.000296489 0.00036633 )  
( -0.000197153 5.36102e-05 0.000831817 )  
( -0.000424165 -0.000126203 0.000327296 )  
( -1.60043e-05 0.000428847 0.000588583 )  
( -2.25214e-05 7.69921e-05 7.14124e-06 )  
( 0.000187939 -0.000164876 0.000264745 )  
( 0.000158218 -0.000356814 0.00038038 )  
( 0.000762915 0.000738873 0.00194517 )  
( 6.79372e-05 -3.12907e-05 0.000301792 )  
( -1.10298e-05 -0.000479636 0.000410362 )  
( -6.8037e-05 -0.000218637 4.53007e-05 )  
( -0.000163561 -2.74556e-05 0.000714564 )  
( -7.85457e-05 -0.000220852 0.00012001 )  
( 5.25454e-05 -0.000124225 0.000233073 )  
( -0.00040553 -0.000101441 0.000477779 )  
( -0.000447816 -0.000244159 0.00085179 )  
( 4.59473e-05 -1.97333e-05 -0.00035555 )  
( -0.00010038 -5.63787e-08 3.01382e-05 )  
( 9.969e-05 -0.000291539 0.000290659 )  
( 0.000156742 0.000500783 0.000521285 )  
( 0.000314986 -0.000940607 0.000909648 )  
( -8.80095e-05 -0.000467541 0.000591586 )  
( 2.08776e-05 -0.000575487 7.85528e-05 )  
( 1.21613e-05 -6.12491e-05 0.000378403 )  
( -0.000346757 -0.000378824 -7.9322e-05 )  
( 0.000607622 -0.000437549 -0.000124095 )  
( -3.76188e-05 6.02879e-06 8.1219e-05 )  
( -6.51148e-05 3.10799e-05 0.000379644 )  
( 0.000518654 5.99073e-05 -7.74061e-05 )  
( -0.000267355 -0.000163658 0.000211091 )  
( -0.000321428 4.27712e-05 0.000487856 )  
( -0.000662029 -0.000532871 0.00122081 )  
( -1.34518e-05 5.27551e-05 -0.000882409 )  
( 5.55047e-05 -0.000501445 0.000240578 )  
( 1.50257e-05 2.93097e-05 0.000126227 )  
( -1.65653e-05 0.00035925 0.000703277 )  
( -0.000325749 -4.3124e-06 0.000127826 )  
( -0.000138892 -0.000268672 1.1096e-05 )  
( -0.000311657 -0.000296269 0.000165335 )  
( -1.43177e-05 -0.000150925 3.85538e-05 )  
( -0.000867382 -0.000335906 5.72363e-05 )  
( -2.32661e-05 -4.35854e-05 7.97232e-06 )  
( -1.46301e-05 0.000369422 0.000179028 )  
( -0.0010314 -0.000359809 0.000997751 )  
( -0.000360592 -0.000429385 0.00126319 )  
( -0.000377512 -0.000410261 0.000575828 )  
( -0.000216693 -0.000400087 0.000836887 )  
( 0.000101857 -0.000311553 0.000607783 )  
( -8.37484e-05 -2.72062e-05 0.000194757 )  
( -0.00015309 -0.000127557 0.000880578 )  
( -0.000188861 1.2364e-05 0.000473399 )  
( 0.000105159 -7.86969e-05 0.00025856 )  
( 0.000111171 -0.00023482 5.42258e-05 )  
( -5.41621e-05 -5.65377e-05 -1.92526e-05 )  
( -5.82839e-05 3.50866e-05 0.000401571 )  
( 8.4311e-05 -0.000101841 0.000112741 )  
( -0.000118798 0.00015648 0.000679688 )  
( -9.43848e-05 -2.18843e-05 0.000699285 )  
( 0.000260524 -0.00046507 -0.000112287 )  
( -0.000249879 -0.0002223 0.000482627 )  
( -0.000675308 -0.000126644 0.000442051 )  
( -4.51895e-05 -0.000120728 0.000708476 )  
( 3.44928e-05 1.76687e-05 -0.000104969 )  
( -0.000148718 -0.000163415 9.9308e-06 )  
( -4.3486e-05 -0.000100914 3.00202e-06 )  
( 0.000274395 -4.3342e-05 -5.43534e-06 )  
( 6.82621e-05 -0.000210467 0.000274464 )  
( -0.000575374 -0.000400671 0.000702492 )  
( 0.000228016 -6.8211e-05 -0.000134409 )  
( -0.000197393 -0.000350027 0.000799507 )  
( -7.55938e-05 -0.00105417 -0.000328055 )  
( -9.84207e-05 -0.000148039 0.000303881 )  
( 7.40039e-05 0.000371426 -2.07743e-05 )  
( -0.000415811 -0.000521111 -0.00020884 )  
( -5.63636e-05 -0.000117861 -4.78851e-05 )  
( -0.000304153 -0.000215934 0.000551537 )  
( -0.000196562 9.63924e-05 0.000417325 )  
( -0.00013055 -7.18821e-05 8.0098e-05 )  
( 0.000307673 0.000153317 0.000441314 )  
( -0.000185528 0.000100783 0.00037205 )  
( -0.000164589 -3.67102e-05 -3.4605e-05 )  
( -0.000231023 -0.000211897 1.31531e-05 )  
( -0.000110557 -3.87399e-05 0.00031294 )  
( 0.000462269 -0.000105758 0.000145632 )  
( -0.000242503 -0.000407278 0.000368828 )  
( -0.000153272 0.000238615 0.000889236 )  
( -5.41897e-05 -1.62219e-05 0.00011147 )  
( -0.000638523 -0.000336803 0.000611857 )  
( -0.000183694 1.08599e-05 0.000747617 )  
( 3.05496e-05 1.52813e-05 9.73072e-05 )  
( 0.000525636 0.000406582 0.00045266 )  
( 0.000244236 -0.000241776 0.00012802 )  
( 2.48797e-05 -0.000284471 0.000839991 )  
( -5.76955e-05 -6.65634e-05 0.000324192 )  
( 7.7586e-05 6.03134e-05 0.000459991 )  
( 1.26119e-05 -0.000219642 0.000315013 )  
( -0.000203171 -0.000388174 0.000526694 )  
( -7.20316e-05 2.79642e-05 1.32169e-05 )  
( -0.00038858 -0.000185465 0.000726019 )  
( -2.84507e-05 -0.000124694 0.000369658 )  
( -0.000294698 7.05988e-05 0.00047484 )  
( -0.000205145 -6.19251e-05 0.00052982 )  
( 0.000263438 0.000288767 1.43695e-05 )  
( 0.000490825 -0.000338711 -0.000140337 )  
( 0.000142349 -4.397e-06 0.000496462 )  
( -9.1605e-05 -0.000215304 0.000103918 )  
( -0.000270927 -0.000185787 0.000407947 )  
( -0.000510977 0.000114611 0.000280167 )  
( -0.000286075 -0.000357374 0.000352503 )  
( 0.000370429 1.65185e-05 0.000229728 )  
( -0.000220579 -0.000155304 9.4459e-05 )  
( -0.000262567 3.57475e-05 0.000109334 )  
( -0.000235394 -0.000213748 0.00040267 )  
( -0.000340451 -2.10902e-05 0.000438408 )  
( 6.15678e-07 -0.000120033 3.91851e-05 )  
( -0.000138706 -0.000759187 0.00117541 )  
( -2.90719e-06 -2.3922e-05 4.07372e-05 )  
( 1.48732e-05 -0.000109242 2.42499e-05 )  
( -7.99144e-05 0.000103246 0.000151319 )  
( -0.000233489 -4.85013e-05 0.000468432 )  
( -7.27779e-05 -0.000147338 0.000132879 )  
( 0.00027742 0.00014327 0.000447267 )  
( -0.000155504 4.10847e-05 9.36206e-05 )  
( 0.000176291 -3.88145e-05 0.000859657 )  
( -2.73496e-05 -0.00013028 0.000257672 )  
( -0.000294533 3.05095e-07 0.000553932 )  
( -0.000541732 -9.12539e-05 0.000144102 )  
( 1.09827e-06 -3.22479e-05 8.95134e-05 )  
( 0.000636332 -0.000443171 0.000372823 )  
( -0.000396158 -0.00020152 8.75464e-05 )  
( -0.000302901 -0.000344179 0.000945063 )  
( -0.000215861 -2.05089e-05 0.000198194 )  
( -5.07794e-05 4.2492e-06 0.000121763 )  
( 0.000348559 -0.000269078 0.000256391 )  
( -0.000323096 -0.000204263 0.000734535 )  
( -0.000207146 -0.000395223 0.00061266 )  
( -9.95824e-05 1.94095e-05 0.000106534 )  
( 0.00027931 0.000937963 0.000625565 )  
( -7.8415e-05 7.55703e-05 0.000421268 )  
( 0.000290818 -0.000224578 -2.27655e-05 )  
( 6.29649e-05 -0.000309484 0.00139596 )  
( -9.33805e-05 -0.000207552 -1.18241e-05 )  
( -3.52911e-05 -0.000200692 0.000448864 )  
( -0.000127331 -0.000189889 0.000593467 )  
( -0.000569553 8.27803e-06 0.000541321 )  
( 5.57304e-05 -9.86416e-05 0.000163538 )  
( -0.000278128 0.000120263 0.000492094 )  
( -7.40199e-06 -2.94293e-05 0.000107816 )  
( -0.000240075 -0.000623338 0.000527697 )  
( -5.33716e-05 -8.01961e-05 -5.17415e-06 )  
( -7.38876e-05 -0.000123103 0.000430718 )  
( -0.000381727 -0.000407463 0.000366326 )  
( 8.7246e-06 -0.000190436 0.000301181 )  
( -8.83125e-05 -0.000144553 0.00030329 )  
( -0.000103314 2.46318e-05 -2.60425e-05 )  
( -1.73028e-05 4.80676e-05 0.000290913 )  
( -0.000556466 -0.0005909 0.00046933 )  
( 0.000238958 -0.000378351 0.000325121 )  
( -0.000321273 -0.000304196 0.000806174 )  
( -4.87825e-05 -0.000145011 0.000688783 )  
( 0.000168169 -0.000151182 0.000434333 )  
( -8.07375e-05 -7.20973e-05 0.000244209 )  
( -0.000191284 1.47489e-05 0.000397361 )  
( -0.000188678 -0.000222047 -8.93237e-05 )  
( -0.000171815 -8.80652e-05 -0.000138613 )  
( -0.000230778 -3.13941e-05 0.000634798 )  
( -9.45074e-05 8.28704e-05 0.00040776 )  
( -0.000102652 -4.4646e-06 0.000378163 )  
( 0.000317816 -0.000463212 0.00114541 )  
( -0.000337179 0.000164823 0.000427593 )  
( -0.000196154 -0.000315557 0.000692011 )  
( -6.31108e-05 -0.000169832 0.000329389 )  
( 9.02589e-05 -0.00056813 0.000497205 )  
( 0.00021536 -0.000396945 0.00057951 )  
( 6.9581e-05 -0.000402712 0.000341601 )  
( -0.000859459 0.000217769 0.000617197 )  
( -3.94198e-05 -7.13907e-05 0.000161345 )  
( -0.00011538 -0.000200328 0.000250721 )  
( -0.000107987 -0.000110976 0.000254894 )  
( -0.000333187 -0.000119239 9.27813e-05 )  
( -1.44619e-05 -0.000155528 0.0004961 )  
( -0.000195608 -6.24763e-05 0.000198365 )  
( 0.000324055 -7.74739e-05 -0.00044951 )  
( 4.31243e-05 -9.83583e-05 0.000157585 )  
( -4.67179e-05 2.78547e-06 0.000318562 )  
( -4.04423e-05 -0.000140615 3.41619e-05 )  
( 0.000211842 -0.000106423 0.000195686 )  
( -0.000146462 -0.000189568 0.000316368 )  
( -0.000161257 -0.000253232 0.000316458 )  
( 0.000231185 -0.000311238 0.000648171 )  
( -0.000404595 6.04849e-05 -0.000101273 )  
( -0.000146881 -0.00020352 0.000699628 )  
( -2.74775e-06 -0.000267557 0.000394997 )  
( -5.06724e-05 4.68204e-05 0.000333546 )  
( -0.000145587 0.000184139 0.000225542 )  
( -0.000193627 -0.000175839 0.000535812 )  
( -3.57926e-05 -0.000129629 0.000110745 )  
( 3.72212e-05 3.83676e-05 6.82134e-05 )  
( 9.34605e-05 -2.72445e-05 -2.9299e-05 )  
( 0.000319537 -0.00041516 0.000822804 )  
( -0.000209051 -0.000181187 0.000874439 )  
( -3.29266e-05 6.10002e-07 3.02367e-05 )  
( 0.000128521 -0.000415743 0.000622218 )  
( -0.000145758 -0.00021968 0.00034545 )  
( -5.11272e-05 -0.000557791 0.000100467 )  
( -7.95842e-05 -0.00040617 0.00027953 )  
( -0.000232972 -6.7247e-05 0.000402623 )  
( 0.000560069 -0.000447633 0.000171737 )  
( -0.000126039 -0.000191666 0.000578079 )  
( 0.000227777 -9.16536e-05 0.000551023 )  
( -9.62161e-05 -9.21092e-05 0.000159669 )  
( -0.000303339 -0.000112689 0.000363831 )  
( -0.000222249 9.418e-05 0.000541274 )  
( -0.000477776 7.43536e-05 0.000349344 )  
( 8.21019e-05 -0.000114824 5.45528e-05 )  
( -0.00082499 0.00150409 7.46144e-06 )  
( -4.69072e-05 -7.3267e-05 0.000170924 )  
( -0.00022302 -0.000389649 0.000516714 )  
( -0.000536722 -9.53809e-05 0.000718224 )  
( -4.73467e-05 -0.000102731 1.5742e-05 )  
( 9.30738e-05 -0.000511657 0.000884975 )  
( -0.000201763 -0.00012621 0.000107736 )  
( -7.1336e-05 -0.000458613 0.000696772 )  
( -0.000266433 3.7798e-06 -9.22569e-05 )  
( 4.64581e-05 -0.000184786 0.000207202 )  
( -0.000152621 1.76513e-06 0.000207897 )  
( 5.63497e-05 -3.67569e-05 0.000173857 )  
( 0.000139843 -0.000247664 0.000267316 )  
( -4.45877e-06 -0.000428069 0.000887491 )  
( -5.61004e-05 -6.73498e-05 0.000358385 )  
( -0.00030848 -6.32277e-05 0.000612156 )  
( -0.000215507 7.29397e-05 0.00090741 )  
( -9.0498e-05 0.000140231 2.95468e-05 )  
( -0.000135509 -0.000104143 0.000210318 )  
( -8.07333e-05 -0.000875351 0.000723399 )  
( -9.40187e-05 -0.000579854 9.86823e-06 )  
( -3.23214e-05 -7.4679e-06 0.000471619 )  
( -8.50526e-05 -0.000143087 0.000310849 )  
( -9.21959e-06 -0.000208478 0.000206164 )  
( 0.000411641 -0.000132807 -4.81494e-05 )  
( 0.000178303 -0.000226487 0.000330828 )  
( -7.36919e-05 -0.000316684 0.000612667 )  
( -3.13851e-05 -0.000251861 0.000118894 )  
( -0.00023646 -0.000123683 0.00011918 )  
( -2.34814e-05 -5.20232e-05 0.000330401 )  
( -1.64574e-05 -0.000105589 0.000279041 )  
( 0.000382375 -0.000506928 0.000308909 )  
( -0.000137222 -3.64801e-05 0.000355963 )  
( -0.00034902 -0.000171543 0.000453543 )  
( -0.000132801 -0.000184259 0.00030134 )  
( 6.69682e-06 -0.00043725 -0.000305881 )  
( -0.000358056 -0.000132678 0.000161133 )  
( 2.2841e-05 -8.79685e-05 8.28619e-06 )  
( -7.39431e-05 -0.000293464 0.000612742 )  
( 9.98375e-05 -8.42628e-05 0.000428623 )  
( -7.28908e-05 -0.00010357 0.000456891 )  
( -0.000136946 0.00029836 0.00040084 )  
( -4.41092e-05 -0.000295368 0.000478897 )  
( 5.09833e-05 0.000345184 0.000378989 )  
( -0.000793855 0.000140698 0.000492529 )  
( 0.000539613 6.83407e-05 0.000531048 )  
( 0.000131243 0.0002041 0.000104345 )  
( -4.83433e-06 -0.00017387 8.09023e-05 )  
( -0.000492986 -0.000186043 0.000570401 )  
( -2.58774e-05 -8.41743e-05 8.75375e-06 )  
( -0.000123137 -7.04975e-05 0.00052581 )  
( 0.000211524 -2.81101e-06 0.000234304 )  
( 2.64113e-05 -0.000179361 -0.000101155 )  
( -0.00034186 0.00021051 0.000241445 )  
( -8.30116e-05 -0.000204032 -0.00011966 )  
( 4.02228e-05 -6.56935e-06 5.42786e-05 )  
( -9.23936e-05 7.36566e-05 0.000309571 )  
( 3.64981e-06 -0.000131268 0.00036279 )  
( -0.000425434 -0.000349556 0.000740464 )  
( 0.000277932 -0.000655132 0.000507188 )  
( -6.86113e-05 -0.00039952 0.000574372 )  
( 0.000551546 0.000528926 1.27349e-06 )  
( -0.000506053 -0.000322044 0.000402261 )  
( -0.00014131 -0.000255966 0.00063599 )  
( -4.85483e-05 2.91903e-05 0.000471426 )  
( 6.09228e-05 0.000242809 -9.84046e-05 )  
( 0.000417071 0.000119781 0.000973114 )  
( -0.000202991 7.00508e-05 0.000321701 )  
( 0.000206193 -0.000427903 -0.000166944 )  
( -9.65346e-05 -0.000252191 2.48341e-05 )  
( 3.99002e-05 -2.54388e-05 8.13376e-05 )  
( 6.68417e-05 -6.28935e-05 0.000416805 )  
( -0.000226376 -0.000451787 0.000167161 )  
( -4.05066e-05 -0.000209661 0.000710304 )  
( -2.11482e-05 -0.00025736 0.000388546 )  
( -0.00013179 -0.000202196 4.05203e-05 )  
( 0.000139709 -0.000220411 0.00015272 )  
( 4.5498e-05 1.22431e-05 0.000312423 )  
( 2.80163e-06 -8.52941e-05 -6.05257e-07 )  
( -0.000509169 0.000292485 0.00038426 )  
( -8.96121e-05 -0.000129523 -0.000220918 )  
( 0.000124623 6.81029e-05 0.000137388 )  
( -0.000331937 -0.000302191 0.00049274 )  
( 0.000349917 -0.000181535 0.00187393 )  
( -0.000338886 -9.0253e-05 0.000133252 )  
( 6.64046e-05 -4.11659e-05 0.000447225 )  
( 0.000144375 -0.000279639 9.75226e-05 )  
( -1.98037e-05 -4.85265e-05 4.72413e-05 )  
( -0.000151884 -5.51706e-05 0.000420451 )  
( 3.1061e-05 4.51195e-05 -0.000142278 )  
( -0.000282679 -0.000144686 0.000568982 )  
( -7.75397e-05 0.000177409 6.10092e-05 )  
( -0.000285067 -0.000112252 0.000137385 )  
( -8.06532e-05 -0.000635239 -9.1906e-06 )  
( -4.96558e-05 0.000560745 0.0002261 )  
( -0.000454829 -0.000518433 0.00133866 )  
( -1.19892e-05 -0.000163089 0.000535447 )  
( 0.000255697 -0.000209914 0.000345804 )  
( 8.54628e-05 3.49162e-05 0.000262805 )  
( -0.000154809 0.000246796 -0.000159585 )  
( -8.44635e-06 -0.000462044 0.000337515 )  
( -9.81612e-05 -0.000254489 4.32437e-05 )  
( -0.000174997 -7.06218e-05 0.000359748 )  
( -8.83887e-05 1.22786e-05 0.000223518 )  
( -0.000399307 0.000200791 0.000767202 )  
( 0.000708965 0.000235889 0.000554569 )  
( -8.66278e-05 -0.000351409 0.000207488 )  
( 6.97609e-06 -0.000481592 0.000964418 )  
( -3.54107e-05 1.6905e-05 2.97047e-05 )  
( -7.17797e-05 -0.000108115 0.000156664 )  
( 9.87003e-05 -0.00041728 2.95249e-05 )  
( -0.000251063 -0.000151562 0.000333042 )  
( -2.46273e-05 -0.000319013 0.000325131 )  
( 8.89248e-05 -1.1144e-05 1.18363e-05 )  
( -1.27997e-05 6.71001e-06 0.000134529 )  
( -0.000154673 -0.000247907 0.000253481 )  
( -6.55948e-05 -0.000199244 0.00047127 )  
( -6.41027e-05 -3.49378e-05 0.000228408 )  
( 4.98675e-05 -0.000261237 0.000902898 )  
( -0.000252441 -8.75199e-06 0.000753799 )  
( -0.000230664 2.89085e-05 8.79967e-05 )  
( -0.000178633 -0.000210461 0.000434197 )  
( 2.61231e-05 0.000174187 6.2183e-06 )  
( 0.000226158 -0.00012121 3.37742e-05 )  