FoamFile
{version 2.0; format ascii;class vectorField; location 0;object  v;}
2524
(
( 0.000922563 0.000490857 0.00170251 )  
( -0.00311808 -0.00132694 0.00314804 )  
( 0.000104852 -0.000191826 0.000169423 )  
( 0.0013328 0.00304309 0.00624501 )  
( 0.00150669 -0.00128599 0.00111581 )  
( 0.000116979 -7.59617e-05 -0.000515153 )  
( 0.000746433 -0.000802829 0.0029853 )  
( -0.000266452 -0.000449217 8.48033e-05 )  
( -0.000496287 0.000983551 0.00135432 )  
( 0.00070629 -0.000664389 -0.000243117 )  
( -0.000188641 0.000478149 -0.000175456 )  
( 0.000316835 0.000233992 0.00272602 )  
( -0.000571164 7.40366e-05 0.000300384 )  
( -0.00071034 -0.0013414 -0.000135905 )  
( 0.000146083 0.000102509 0.00396001 )  
( 0.0014401 0.000509959 0.00207031 )  
( -0.000149357 0.000118235 0.0019066 )  
( 0.000529523 -0.000636982 -0.00037291 )  
( 0.000470016 0.00120531 0.00213301 )  
( 0.00101296 -0.000340527 0.00286774 )  
( 0.000780965 0.000303134 0.00311402 )  
( -0.000411966 0.000777378 0.00261665 )  
( 0.000797602 -0.00158545 0.00168326 )  
( 0.00107867 -0.000615147 -0.000268586 )  
( 0.000795034 0.00092476 0.000770757 )  
( 0.0010188 0.00216518 -0.000930626 )  
( -0.000245401 4.93739e-05 0.00134957 )  
( 9.23342e-05 0.00117168 0.00161771 )  
( 0.00108281 -0.000862856 0.00254045 )  
( -2.29638e-05 0.000411271 -1.5782e-06 )  
( 0.00416136 0.0018481 -0.000188883 )  
( -0.000178463 -0.000124127 -7.49729e-06 )  
( -0.000125794 -0.000624593 0.000613295 )  
( 0.000296982 -0.000540684 0.00296985 )  
( 0.000106506 0.00035945 0.000747382 )  
( -0.000299603 -0.000484607 -5.15228e-05 )  
( -0.000114625 0.000550038 -0.000414361 )  
( 0.000202933 7.57377e-05 2.45118e-05 )  
( 0.000720763 0.000785286 0.00233088 )  
( 0.00105326 6.92411e-05 0.00219797 )  
( 0.000551845 -0.000124439 0.00339514 )  
( -2.10075e-05 -0.00118984 -4.02104e-08 )  
( 0.00127419 0.000316846 0.00319573 )  
( 0.00103104 0.000469484 0.00263061 )  
( 7.9642e-05 -3.1651e-05 7.61296e-05 )  
( 0.000262078 -0.000541764 0.00322058 )  
( 0.000385506 6.02518e-05 1.45602e-05 )  
( 0.000441393 -0.000735096 -0.000980105 )  
( 0.000133902 -0.000151587 -3.01329e-05 )  
( 0.00118803 -0.000376315 0.00218083 )  
( 0.000483498 0.00050598 -0.000260069 )  
( -0.00037878 0.000246252 9.64339e-05 )  
( -1.28e-05 -9.88166e-05 -0.000210415 )  
( -1.89378e-05 -0.000671085 -0.000440588 )  
( -0.000710645 0.000353325 -0.000352416 )  
( 0.000199934 0.000365176 -0.00093561 )  
( -0.000481471 0.00151813 0.00247662 )  
( 9.83256e-05 0.00039643 0.00113834 )  
( 0.000463336 -0.00109593 -0.000564235 )  
( 0.000928472 -0.000634098 0.0010448 )  
( 0.000966579 -0.00060817 0.00213305 )  
( 0.00117398 -0.000679551 0.00195081 )  
( 0.000614485 -0.000393108 0.000370108 )  
( -0.0013145 -0.00122705 0.00594024 )  
( -4.536e-06 0.000176672 0.00222283 )  
( -0.000355379 -0.000156597 0.00187443 )  
( 0.000440054 0.00108085 0.00196497 )  
( 0.000716846 0.000270077 0.00235609 )  
( 0.000644291 -0.00036626 -0.000539607 )  
( -0.00049056 -0.00143991 -0.00135486 )  
( 0.000133113 -0.00152225 0.00294992 )  
( 0.000233845 0.000533371 0.000628025 )  
( 7.77298e-05 -0.000176323 0.00288314 )  
( -0.000699154 0.00082151 0.00152879 )  
( -0.00016437 0.00100253 0.00246494 )  
( -0.000447292 -0.000494774 0.00371027 )  
( 0.000937855 -8.66182e-05 0.00186062 )  
( 0.00238477 0.000263449 0.00260744 )  
( 0.000904501 -0.000331748 0.00334125 )  
( 0.000537803 -0.000586893 0.0020416 )  
( 0.000719817 0.00403163 0.00213296 )  
( -0.000201162 0.000463115 -3.39717e-06 )  
( 0.000708069 0.000581926 0.00199348 )  
( 0.00206326 0.00162001 0.00443831 )  
( -0.000203978 0.000508926 8.47326e-05 )  
( 0.000936525 0.00132156 0.00185641 )  
( 0.00114127 -0.00099434 0.00474015 )  
( 0.00178226 -9.10928e-05 0.00305318 )  
( 0.00121572 0.00361809 -0.00551866 )  
( 0.00122918 0.000862159 -0.000305056 )  
( 0.000452633 0.000893117 0.0025489 )  
( 0.00302941 -0.00260147 -0.00113666 )  
( -0.000764167 0.000669554 0.00169342 )  
( -1.09032e-05 0.000927912 0.00290099 )  
( 0.00493938 -0.00112213 -0.00467651 )  
( 0.00119483 -0.000469411 0.00280292 )  
( 4.83033e-05 0.000158433 -0.000334602 )  
( -3.97899e-05 0.000434332 -0.000524493 )  
( 0.000458414 3.55249e-06 -0.000159956 )  
( 0.000192415 -0.00303296 0.00384765 )  
( 0.00085371 0.00102802 0.00149385 )  
( 0.000569064 0.00126457 0.00138014 )  
( 0.000771308 0.000307472 0.00121743 )  
( 0.0018107 0.000291881 0.00433228 )  
( 0.000283796 0.000358328 3.75462e-05 )  
( -2.77494e-05 -0.000585112 0.00229354 )  
( 0.00033653 0.000412484 0.00105186 )  
( 0.000397075 -0.000152367 0.00101747 )  
( 0.000708715 0.000254892 -0.000177035 )  
( 0.000729686 -0.000362126 5.97769e-05 )  
( 0.000874707 -0.000475508 0.000227932 )  
( -0.000197713 0.000631085 0.00360612 )  
( 7.60064e-05 3.96697e-05 0.00340901 )  
( 0.00065377 0.000146406 -0.00134454 )  
( 0.000571058 0.000224046 0.00234395 )  
( 0.000405551 0.000129008 0.00140435 )  
( 0.00107643 0.000251315 0.0016746 )  
( 0.00240008 -0.00122952 0.00206663 )  
( 0.000587854 0.00107321 0.00478662 )  
( -0.0010012 7.79546e-05 0.00320724 )  
( 0.0013906 0.00198234 0.00385106 )  
( -0.00103061 -0.000364159 0.00133487 )  
( 0.000465224 -0.00033402 0.00211426 )  
( -0.00140686 0.000251804 0.00341114 )  
( -0.000504543 -0.000241126 0.00130148 )  
( 0.000396659 -6.26383e-05 3.07406e-05 )  
( 0.000222989 -0.00132752 0.00331342 )  
( 0.000562977 -0.000427908 0.00199085 )  
( 0.000984599 0.000535912 0.000901568 )  
( 0.000546661 0.0011677 0.000954431 )  
( 0.000977083 5.82466e-05 0.00122515 )  
( 0.000141617 -0.000150884 0.000251708 )  
( -0.000918462 -0.000103692 0.00195589 )  
( -0.00110135 -0.000575247 0.00250371 )  
( 3.15055e-05 -6.63991e-05 -3.76036e-05 )  
( -9.59362e-06 0.00021391 -2.26722e-05 )  
( 0.000820674 0.000631546 0.000729603 )  
( -0.00144295 0.000111562 0.00370306 )  
( 0.00160276 -0.00068684 0.00289515 )  
( 0.00215101 0.00262463 0.00466052 )  
( 0.000260882 0.000429518 0.00250521 )  
( 0.000187161 5.16774e-05 6.95043e-05 )  
( 0.000757262 0.000460033 0.00305158 )  
( -0.000112861 0.000974431 0.00195489 )  
( -0.000926659 -0.00268661 -0.00166768 )  
( 4e-05 2.27425e-05 -1.92866e-06 )  
( 0.000928411 -0.000588504 0.0021499 )  
( 0.000167152 0.000485632 3.88908e-05 )  
( 0.000817218 0.000759209 0.00183767 )  
( 0.000246394 -0.000716214 0.00345074 )  
( 0.00227832 -0.00157117 0.00994089 )  
( -0.000364881 0.000412913 5.05907e-05 )  
( 0.00112418 0.000557982 0.00595595 )  
( 0.000963389 0.000889625 0.00227873 )  
( 0.000155535 0.000188644 -0.000100824 )  
( 0.00392396 -0.000845846 0.00654229 )  
( 0.00125091 0.00133942 0.0028627 )  
( -0.00136328 -8.38805e-05 0.00251044 )  
( 0.00180021 -0.00101817 0.00326368 )  
( 0.00261409 -0.00106205 -1.41302e-07 )  
( 0.000357916 0.000350407 -0.000101086 )  
( 0.00047404 -0.00015657 0.0016429 )  
( 0.000726253 0.000147459 0.00284551 )  
( 0.000324247 0.000121315 0.00275251 )  
( 2.00642e-05 0.0003315 0.00317041 )  
( 0.000990352 -0.000998123 -0.000817559 )  
( -0.000359533 0.00029945 0.00261517 )  
( 0.00160008 7.3055e-05 0.00120647 )  
( -0.000221212 5.0753e-06 2.0262e-05 )  
( 0.000196507 -0.00134845 0.00445447 )  
( 0.00143004 0.00146054 -0.00179702 )  
( -0.000560506 0.00149813 -0.000530647 )  
( -0.000561818 -0.000300709 0.00307486 )  
( -0.000619336 -0.000376381 0.00135579 )  
( 0.000426981 -0.000322995 0.00272418 )  
( 0.000762924 0.000483303 0.00174102 )  
( 0.000990142 -0.000250312 0.00273064 )  
( 0.00101058 0.00156684 0.000856931 )  
( -0.000176966 0.000214593 0.00230402 )  
( -0.00173313 -0.00198884 0.00381866 )  
( 5.72722e-05 -0.000119796 0.00170589 )  
( -0.000239905 0.000132475 0.0015966 )  
( -0.00181717 0.00363238 0.00635876 )  
( -0.000209318 -0.000519031 0.0016933 )  
( -0.000309859 -0.00114147 -0.000233264 )  
( -0.000246021 0.000914498 0.00462738 )  
( 0.00160579 0.000541678 0.00501034 )  
( -3.78749e-05 -0.00267184 0.00500835 )  
( 0.000652103 0.000727748 0.0021523 )  
( 0.000144963 -0.000794081 6.77539e-05 )  
( 0.0021331 -0.00111259 0.00209733 )  
( 0.000124584 -0.000310787 0.00568367 )  
( -0.00183044 4.92784e-05 0.00124287 )  
( 0.000755121 0.000993058 0.0021776 )  
( 0.00157596 -0.00123479 0.0017834 )  
( -0.000245931 -0.00136964 0.00106396 )  
( -0.000870926 0.000595863 0.000892705 )  
( 0.000319399 0.000659345 0.00124248 )  
( 0.00032792 -0.000128289 0.00104557 )  
( -0.000597687 -0.0016171 0.00687343 )  
( 0.000900002 0.000619048 0.00255724 )  
( -0.000163335 -0.00103295 0.000265395 )  
( 0.00162256 0.00196537 -0.00188102 )  
( 0.00106815 -0.000494933 0.000545963 )  
( 0.00137721 0.000368017 0.00192373 )  
( 0.000401112 -0.000530606 0.00199256 )  
( -0.000900747 -0.000230668 0.00455562 )  
( -0.000387536 8.43355e-05 -0.000286212 )  
( 0.000418131 0.00150433 0.00672845 )  
( 0.000807544 0.000256471 0.00259505 )  
( -0.00057587 -0.000321511 -2.98846e-08 )  
( 0.00106353 0.000192 0.00222983 )  
( -0.000694189 -0.00300028 0.00255673 )  
( -0.000583785 0.000450379 0.00160748 )  
( 0.000926299 0.000626493 0.00120093 )  
( 0.000239779 -0.000328671 -0.00538536 )  
( 9.87357e-05 0.000405762 0.000301354 )  
( 0.000603839 0.00156159 0.00237871 )  
( -0.000869001 -0.00028401 0.000486229 )  
( 0.000111176 -0.000546223 0.00247062 )  
( -0.000186474 0.000458309 0.00174144 )  
( 0.000359468 -0.000313354 0.00200678 )  
( -0.00214086 -0.00192031 0.0013274 )  
( 0.000967291 -0.000366016 -0.000565526 )  
( -0.0001837 0.00142004 0.00388736 )  
( 0.000497053 5.30647e-05 0.00200631 )  
( 0.000102746 0.000748575 0.00100857 )  
( -0.000220443 0.00129888 0.00329844 )  
( 0.00572265 0.00114431 -0.0026296 )  
( 0.000344139 -0.000234712 0.00237125 )  
( 0.000709549 -0.000894163 7.75596e-05 )  
( -0.00036615 0.0013436 0.00507919 )  
( 0.000554037 0.000478591 0.000831098 )  
( 0.000109666 -0.00117046 0.000936463 )  
( 0.00050658 0.000674924 0.00072115 )  
( 0.000104258 -0.000279054 -5.44402e-05 )  
( 0.00141705 -0.000688051 -0.00013868 )  
( 0.000128114 -0.000121707 6.13641e-06 )  
( -0.000517751 -0.000231741 0.00116612 )  
( 0.000154619 0.00085927 0.00185354 )  
( -9.4084e-05 -0.000288284 0.00178538 )  
( 0.000865202 0.000895972 0.00204783 )  
( 0.000826923 -0.000962688 0.00217112 )  
( -0.00475199 -0.00162146 0.00569056 )  
( 0.000265072 0.000297738 -7.081e-05 )  
( 0.00156371 0.000113773 -0.0023396 )  
( -0.000565145 -0.000299082 -0.000620822 )  
( 0.000542062 0.002146 0.00962169 )  
( -0.00196146 9.29626e-05 0.003513 )  
( 0.0011923 0.000295638 0.00356896 )  
( -7.37057e-05 0.00102953 0.00440434 )  
( -0.00111706 0.000370653 0.00299045 )  
( -0.000846845 -0.000763259 0.002034 )  
( -5.03808e-05 0.000666261 0.00155553 )  
( 0.000394774 -0.000394637 0.000140726 )  
( 0.000753278 -0.00297296 0.00683018 )  
( -0.00041332 -0.000873825 0.00033464 )  
( -0.00022102 0.00050882 0.00160675 )  
( -0.000745575 -0.000424759 -0.000324638 )  
( -0.000283097 -0.000392822 0.00649189 )  
( 0.000968392 0.000512188 0.00308974 )  
( 0.00042127 -0.00026137 0.0022687 )  
( 0.00106385 -0.000543971 -0.000261915 )  
( -0.000183549 -0.0012286 0.00176998 )  
( 0.000989356 0.000746405 0.00140819 )  
( -0.000343748 0.000713738 0.00154402 )  
( -0.00174533 -0.000437802 0.00371061 )  
( 0.000186093 -0.000367059 5.67431e-05 )  
( 0.000132752 0.000540041 0.00170937 )  
( -0.000199948 5.98609e-05 0.00213681 )  
( 0.000923763 -0.000367742 0.00247779 )  
( 0.000914105 0.000480553 0.000846221 )  
( -4.64511e-05 -0.000268658 0.00233716 )  
( -0.000452127 4.55808e-06 0.0018437 )  
( 0.000122089 -0.000771367 -6.89515e-05 )  
( 0.000868061 0.000394638 0.00168262 )  
( 0.000225455 2.01451e-05 -0.000263051 )  
( 0.000751301 0.000548725 0.00240305 )  
( 0.00143321 0.00246558 0.00491871 )  
( 0.000206794 -0.00162134 0.000724778 )  
( 0.0010252 0.000484963 -9.85959e-08 )  
( 0.000569255 -0.00068965 0.00116349 )  
( 0.00179649 -0.00137443 0.0029234 )  
( -0.000305587 -0.000659263 0.000359032 )  
( -0.000285883 -0.00129692 0.00175839 )  
( -0.00174591 0.00347502 0.00773019 )  
( -3.75392e-05 0.000839038 0.0021089 )  
( 0.000604461 0.000912195 0.00223302 )  
( 0.000760648 0.000579163 0.00148359 )  
( 0.000260089 5.25643e-05 0.00155002 )  
( 4.6381e-05 -6.14903e-05 0.000112455 )  
( -0.00119566 -0.00101946 0.00540068 )  
( 0.000855067 -0.000807852 0.00284873 )  
( 0.000948481 0.000436831 0.00110352 )  
( 0.000688138 0.00133848 0.0014933 )  
( 0.000833314 0.000289943 0.00171144 )  
( 0.000145278 0.000515549 0.00206467 )  
( 7.30555e-05 0.000555675 0.0024972 )  
( 0.000937482 0.000693493 0.00196793 )  
( 0.000229373 -7.84182e-06 0.00193625 )  
( 0.00224662 0.00212848 0.00505309 )  
( 0.000111294 0.000177844 0.00156772 )  
( -0.000662837 -0.000713036 0.0021392 )  
( -0.001005 0.00160171 0.00161605 )  
( -2.25752e-05 -9.1268e-05 0.000282242 )  
( 0.000451253 -0.000765594 -1.1404e-07 )  
( 0.00104507 0.00134935 0.00144342 )  
( -0.00023186 9.48095e-05 -0.000536566 )  
( -0.000112261 0.000702338 0.0057359 )  
( 0.00157946 -0.000260418 0.00226805 )  
( 0.000987085 0.000618909 0.00235123 )  
( 0.000115411 0.00142268 0.00346607 )  
( 0.000329696 0.000183438 -6.06862e-05 )  
( 0.000267226 -0.00131323 0.00338999 )  
( -0.00010748 -0.00186159 0.00249416 )  
( -9.65138e-05 -0.000380832 -0.000245053 )  
( 0.000549758 -0.00091139 0.00267912 )  
( 0.00110833 0.000617751 0.00203576 )  
( 0.00132609 0.00224439 -0.000478459 )  
( 0.000234556 0.000389464 0.00111019 )  
( 0.00020424 -0.000409781 0.000165635 )  
( 0.00155131 -0.00140033 -0.000140321 )  
( -0.000581424 0.000525299 0.00209685 )  
( 0.000756667 0.000653995 1.30507e-05 )  
( -0.00039497 -0.000493028 0.000746444 )  
( 0.000722484 -0.000261418 0.00236189 )  
( 0.000270229 0.000114799 0.00218187 )  
( 0.000501272 -0.000403331 0.000839517 )  
( 0.00087193 0.000912498 0.00177545 )  
( -0.00070369 -0.0030861 0.00410853 )  
( -0.000204305 -0.00137637 -0.000151141 )  
( 0.000886924 -0.000650493 0.000127977 )  
( -0.00081917 0.00017467 0.00693045 )  
( 0.00106633 0.000115431 0.00162267 )  
( 0.000306869 -0.000337546 0.00201528 )  
( 0.000460408 -0.000242502 0.00200656 )  
( 2.45842e-05 0.000975707 -0.000522116 )  
( 0.000134358 5.29698e-05 -9.21394e-05 )  
( 0.000188335 -7.46827e-05 -0.000476453 )  
( -0.000545522 8.06286e-06 0.00253923 )  
( -0.00056514 0.0002273 0.00014808 )  
( 0.00131011 -0.000849204 0.00172745 )  
( -9.73125e-05 -0.000474799 0.00291173 )  
( 0.000245454 -0.00105132 0.00129455 )  
( 0.00126015 0.00071814 0.000670114 )  
( 4.13192e-05 -0.00322274 0.00223789 )  
( 0.00058805 0.000314169 0.000184743 )  
( -0.000751908 -0.000340113 0.0022873 )  
( -2.72856e-05 -0.000788962 -0.00143911 )  
( 0.0011077 -0.000429775 0.002503 )  
( 0.000999289 0.000541262 0.00179056 )  
( -0.000384621 -0.000597946 0.00231937 )  
( 0.000933377 -0.000255454 0.000397622 )  
( 0.000717737 6.43766e-05 0.00238019 )  
( 0.000747858 0.000370139 0.0013878 )  
( -0.000706326 -0.000521283 0.00163505 )  
( -0.000494963 -0.00065938 0.000105681 )  
( -7.70719e-05 0.00535954 0.00604016 )  
( 0.000681584 0.00227301 0.00147274 )  
( 0.000730622 3.23377e-06 0.00305736 )  
( 0.00531139 -0.000153335 -0.000990739 )  
( -0.000938147 -0.00194364 0.00123119 )  
( 0.000781423 0.000668912 0.00161858 )  
( -0.0011164 0.000774336 0.00179835 )  
( 0.000828107 0.0001617 0.00195949 )  
( 0.000255559 0.000471701 0.0019913 )  
( -0.000213866 0.000950257 0.000946514 )  
( 0.00138912 -0.000216013 8.41693e-05 )  
( 0.00213301 0.000760478 0.00259512 )  
( 0.000674455 -0.000522942 -0.00083296 )  
( 0.000382444 3.31546e-05 0.00721767 )  
( 0.000217534 0.000244155 0.00162519 )  
( -8.24601e-05 0.000191568 0.00174271 )  
( 0.000196161 -0.000505422 8.28957e-06 )  
( 0.000651052 -0.00102553 -6.629e-06 )  
( 0.00103962 0.000200426 0.001246 )  
( 0.00133847 0.00316227 0.00208319 )  
( 0.00273241 0.000687857 0.00202211 )  
( 0.000225613 0.000372491 -1.57597e-05 )  
( 0.000483677 -0.000306929 0.00153641 )  
( 0.000257977 -0.000225757 0.00188458 )  
( 0.00160661 -0.000702036 0.001423 )  
( 0.000274061 0.000253253 0.00175617 )  
( 0.000976279 -0.00138085 0.00221807 )  
( -0.000629197 -0.000118959 -0.000881292 )  
( -0.00177506 -0.000135567 0.00176049 )  
( -0.00101403 -0.00152629 -0.000640132 )  
( 0.000150451 0.000467566 0.000599706 )  
( 0.000638456 -6.03066e-05 -3.74791e-05 )  
( 0.000280862 0.001712 0.00255268 )  
( -0.000786496 -0.000181244 -0.000456206 )  
( 0.000515049 0.000687414 0.00156592 )  
( 0.000952784 -0.00100309 0.00354586 )  
( 0.000141807 -0.000194858 -0.000291543 )  
( 0.00514464 0.00172617 0.00549448 )  
( -0.000728446 -7.24756e-05 -0.00019734 )  
( 0.000592124 0.000681662 -3.43315e-05 )  
( 0.0010937 0.000509168 0.00222175 )  
( 0.00071224 0.000469082 0.00332139 )  
( 0.00110127 0.000589315 0.00526261 )  
( -0.00176032 0.00147084 0.00504766 )  
( 0.000536403 0.000502017 0.00196396 )  
( 0.000974376 -0.000605661 -4.96025e-05 )  
( 0.00023109 -6.77348e-05 6.41956e-05 )  
( -5.25378e-05 0.00138456 0.00289041 )  
( 0.000127096 0.000852667 0.00156809 )  
( 0.000353039 -5.27508e-05 0.00197396 )  
( 0.000212735 0.000517514 0.00148089 )  
( 0.000391559 -0.00099433 0.00137333 )  
( -0.000868318 0.00073597 0.00213787 )  
( 0.000748547 -0.00113426 0.00105997 )  
( 0.000544814 0.000224544 -1.41919e-05 )  
( -0.000169574 -3.59574e-05 6.6722e-05 )  
( 0.000303574 0.000227447 0.00170746 )  
( -0.000118136 -0.00240247 0.00610615 )  
( 0.000107442 0.000188059 -4.79963e-05 )  
( -0.000386325 -8.49568e-05 0.00230359 )  
( 0.000675047 0.00159154 0.00209946 )  
( 0.00111917 -0.00167969 0.00293704 )  
( 0.000777453 -0.00097215 0.00150854 )  
( -0.00086847 0.000522712 -0.000590933 )  
( -0.000211529 0.00127018 0.00193008 )  
( 2.69655e-05 1.38141e-05 2.75372e-05 )  
( -0.00047014 -0.000982602 0.0100291 )  
( -0.00110858 -0.000684353 -0.000257684 )  
( 0.000272606 0.000932177 0.00595875 )  
( 0.00149205 0.000203429 0.00201406 )  
( 0.000197397 -0.000119753 -4.84177e-05 )  
( -0.000920114 0.000480936 0.00117301 )  
( 0.000839819 8.02185e-05 0.0011902 )  
( 0.000748306 -3.52169e-05 0.00210989 )  
( -0.000838476 0.000977643 0.00211156 )  
( -0.000421531 -0.000515941 0.00157147 )  
( 0.000805198 0.000533128 0.000652627 )  
( 0.000419497 0.000125472 0.000115575 )  
( 0.000246373 0.000242342 0.00196059 )  
( 0.00131226 0.000536991 0.00279323 )  
( 0.000374121 0.000401977 0.00158038 )  
( 0.000561206 -0.000150166 -0.000116929 )  
( 0.000420043 -0.000972861 0.00244944 )  
( 0.00100319 -7.54122e-05 0.0020525 )  
( 0.000510645 0.000975613 0.00380722 )  
( -0.000630807 -5.35178e-05 0.00227929 )  
( -0.00104218 -0.00107656 0.00328004 )  
( -0.000251677 -0.000216375 -0.000375123 )  
( 0.00335392 0.00509065 -0.00475137 )  
( 0.000480901 0.00110971 0.00193813 )  
( 0.0010953 0.00203384 0.00469109 )  
( 0.000509976 0.000268982 0.00349692 )  
( 0.000436538 -0.000434925 0.00160538 )  
( 0.0012987 -3.69758e-05 -0.000514448 )  
( 0.000231725 0.000390089 0.00187366 )  
( 0.00112957 0.000257458 0.00226049 )  
( 0.00182278 -0.00135267 9.40783e-08 )  
( 0.000596156 -0.000451235 0.00247219 )  
( -0.00124358 -0.000571254 0.00239533 )  
( 5.48609e-05 -0.000162878 0.000137234 )  
( 0.000677076 0.000578974 0.000638666 )  
( 0.000249968 0.000624684 0.00215498 )  
( -0.000118907 5.05078e-06 0.000181132 )  
( 0.00116563 -0.00122495 7.78721e-05 )  
( 0.00170693 -0.000909672 0.00305807 )  
( 0.000132117 -0.000693869 0.00219012 )  
( 0.000574392 0.000422577 0.0029581 )  
( 5.236e-05 0.00017428 -4.45497e-05 )  
( 0.000264414 -0.000931727 -3.23409e-05 )  
( 0.00172871 0.000818186 0.00245053 )  
( 0.00111822 0.00112045 0.00123216 )  
( -0.000759691 -0.000136468 0.00230905 )  
( 0.00120519 0.000428805 0.00164433 )  
( -0.000279316 0.000780797 0.00223209 )  
( 0.00105285 -0.000617303 0.0026947 )  
( 0.000999417 0.00109343 0.00407632 )  
( 0.000714841 0.000358683 0.00321069 )  
( -0.000454071 0.000346793 0.00154575 )  
( -5.23703e-05 -0.000105251 0.000879997 )  
( -0.000558191 -4.56056e-05 0.000869007 )  
( 0.000754122 0.00100145 0.00119391 )  
( 0.000200458 0.000931527 0.000502341 )  
( -0.00285547 -0.000856147 0.00294168 )  
( 0.000993772 -0.000422543 0.00197225 )  
( 0.00210069 -0.00102048 0.002682 )  
( -0.000707526 0.00209954 0.00512339 )  
( 5.9881e-05 -0.00011109 0.00107454 )  
( -0.000613624 0.000436705 -0.000600426 )  
( -0.000606368 -0.000472439 0.00353444 )  
( -3.37818e-05 -0.000750796 0.00343833 )  
( 0.000732967 0.000380935 0.00217295 )  
( 0.000765915 0.000185192 0.00161661 )  
( 0.000598505 0.000236099 0.00199077 )  
( 0.000541885 -0.00140673 0.00264272 )  
( -0.000442409 -0.00122152 0.00356207 )  
( 0.00110731 0.000917449 0.00171463 )  
( 0.00153567 -0.000423074 0.002759 )  
( 0.00117264 -0.00138243 0.00170661 )  
( 0.000262493 0.000544168 0.0015807 )  
( -0.00239306 0.00115283 0.002742 )  
( -0.000779275 -0.000789528 0.00240359 )  
( 0.000570747 0.000878355 0.000228629 )  
( -0.000303332 -0.000414749 -0.00141164 )  
( 0.00194684 -0.00200947 0.00322592 )  
( 0.000317984 -0.00144351 0.00368857 )  
( 0.00090884 -0.000150429 0.000612439 )  
( -0.000597003 -0.000226289 0.002669 )  
( -0.00191199 0.00164594 0.00376229 )  
( 0.000820013 -0.000651359 0.000366702 )  
( -0.000302074 0.000963683 0.00150413 )  
( -0.000845745 -0.0005734 0.000747102 )  
( 0.00189142 -0.000134164 -0.000925769 )  
( -9.22733e-05 0.000319595 -0.000404564 )  
( 0.000652397 0.00133042 0.0047921 )  
( 0.000118793 -0.000758439 0.00028874 )  
( 7.12485e-05 -0.000232921 0.0013527 )  
( -0.000288905 0.0011128 -0.000255434 )  
( -0.00154126 0.000679613 0.00245154 )  
( 2.18014e-05 0.000212816 -3.96938e-05 )  
( -0.000405446 -0.00131126 0.00237134 )  
( 0.000886565 -0.000894353 0.00237665 )  
( 0.000108138 -6.28032e-05 0.000470063 )  
( -0.00102192 -1.98692e-05 0.00471082 )  
( 0.00103432 -0.00111323 0.00350563 )  
( -0.000119349 0.000373851 -0.000290233 )  
( 0.000288315 -0.000947701 0.00198695 )  
( 0.000668058 0.00099743 0.00258775 )  
( 0.00166679 0.000635025 0.00283255 )  
( 0.000240536 0.000115617 0.00166115 )  
( 0.000436307 -0.000178117 -0.000543468 )  
( 0.00118578 0.000529354 -0.000571724 )  
( 0.00177282 -0.00133596 -1.15264e-05 )  
( 3.2112e-05 0.000319325 -0.000417219 )  
( -0.00134048 -0.00102215 -0.0013342 )  
( 0.000488006 0.000135036 0.00290501 )  
( 5.548e-05 0.000421948 -3.37939e-05 )  
( 0.00099963 0.000175779 0.00227762 )  
( 0.000372639 0.000959119 0.000428477 )  
( 0.000763255 0.00104368 0.00219963 )  
( 0.0013078 0.000665827 -9.16983e-06 )  
( -0.00374511 0.00254292 0.00607338 )  
( -0.00071635 0.00127437 0.0034514 )  
( 0.000190208 0.000355696 -1.98655e-05 )  
( -0.000888902 -0.00239283 0.0025651 )  
( 0.000837596 -0.000501123 3.47707e-05 )  
( 0.00111069 -0.000311869 0.00137676 )  
( 0.000287181 0.000134834 0.00198011 )  
( 0.000515492 0.000200832 -0.00106488 )  
( 0.00180455 -9.64674e-05 -8.39554e-06 )  
( 0.00168685 4.28336e-05 0.00284291 )  
( -0.00074737 0.000999321 0.00275948 )  
( 0.000641374 5.20702e-05 0.00282239 )  
( 0.000212235 0.000852594 0.00108453 )  
( 0.000874397 -0.000138371 0.00163668 )  
( 0.00117217 1.50274e-05 0.00269927 )  
( -0.000190878 -0.000176623 0.00159775 )  
( -6.05171e-05 0.00110594 -4.13649e-05 )  
( -0.000225098 -0.000241433 -0.000409997 )  
( 0.00171994 0.0012128 0.00195369 )  
( 0.000231773 0.00100152 0.00115648 )  
( -0.000183461 0.000612347 -3.03697e-05 )  
( 0.00100959 0.000954274 0.00182427 )  
( 0.00163443 0.00146372 0.00205836 )  
( -0.000288334 -8.07932e-05 0.0020129 )  
( 0.000903012 0.000348667 0.000103818 )  
( -0.000295442 -0.00038145 -0.000193768 )  
( 0.00185515 0.0021002 -0.0011217 )  
( 0.000513664 0.00107666 0.000492651 )  
( -0.000323224 -0.000998575 0.00226181 )  
( 0.000757895 0.000243903 0.000149779 )  
( 0.00139022 0.000922028 0.0023854 )  
( 0.00147088 0.000700302 0.00266258 )  
( 0.0012553 0.00249422 0.00415313 )  
( -0.000204715 0.000492478 -0.0010068 )  
( 0.00265177 6.76568e-05 -0.00197287 )  
( -0.000825901 0.000367049 7.74771e-05 )  
( 0.00011031 -0.000212191 0.000102244 )  
( -5.09794e-05 -0.000362036 0.000716499 )  
( -0.000263282 0.000474264 -0.000382807 )  
( -0.000431462 -0.000232711 0.00197865 )  
( 0.000480672 0.00177291 0.00427151 )  
( -0.000143157 -0.000100569 -0.000459603 )  
( 0.000280353 0.000247084 0.00192058 )  
( 3.34281e-05 -0.000130391 0.00228302 )  
( 0.000570457 0.000422414 0.0016363 )  
( 0.000691061 0.000907314 0.00281552 )  
( 0.000161247 0.000193414 -0.000366296 )  
( 0.00103206 0.000272815 0.00288195 )  
( 0.000104446 1.727e-05 0.000521629 )  
( 0.00170316 0.00036486 0.00228509 )  
( 0.00210787 -0.00240976 -0.000670661 )  
( 0.00267689 -0.000999902 0.0052933 )  
( -0.000222953 -0.000382396 0.000142428 )  
( -3.78541e-05 -0.000162984 0.0002272 )  
( -0.0010604 -0.00016039 0.00237905 )  
( 0.000591721 -0.000369723 -0.00129306 )  
( -0.000760485 -0.00108585 0.000701504 )  
( -9.62498e-05 0.000156786 0.000669698 )  
( 0.000132444 -0.000562492 -0.00113033 )  
( -0.000599166 0.000259907 0.000668999 )  
( 0.000131776 0.00187745 0.00270323 )  
( 0.000524627 -0.000302263 0.00232811 )  
( 5.25765e-05 -0.000122313 0.00192657 )  
( -0.000635319 0.00086246 0.00704021 )  
( -0.000629592 0.00069333 0.00182611 )  
( 0.000179932 -2.66072e-05 0.00218564 )  
( 0.000435177 -0.000547081 0.00223854 )  
( -0.00111702 -0.000311452 0.00697503 )  
( 6.12617e-05 -0.000728762 0.00289431 )  
( 0.00176292 0.000116479 0.000863851 )  
( -0.00073383 0.00241277 0.00627328 )  
( 0.000232791 -2.98793e-05 5.26209e-05 )  
( 6.14521e-05 0.000718738 1.71431e-05 )  
( 0.000470158 0.000526129 0.00253993 )  
( 0.000277584 -0.00188284 0.00461942 )  
( 0.000264892 -0.000121255 4.82978e-05 )  
( -7.17714e-05 0.000205302 0.00195232 )  
( 0.000585555 -0.000851422 0.00207517 )  
( -0.000331215 -0.000178119 0.000805936 )  
( 0.000580545 0.000872014 0.0013288 )  
( -0.00038671 0.000101028 0.00190531 )  
( -0.000183848 0.000188742 -0.000628125 )  
( 0.00199702 -0.000480651 4.15313e-07 )  
( -0.000674276 0.00155773 0.00369589 )  
( -4.2956e-05 0.0014977 -0.000420815 )  
( 0.000514332 -0.000736709 -0.00205966 )  
( 0.00288767 0.00430267 0.00779397 )  
( 0.0007969 -0.00113689 0.00230929 )  
( -0.000617595 -0.00192449 0.00546323 )  
( 0.000288961 -0.000449023 0.000728407 )  
( -0.000241025 -0.000323214 -0.000160384 )  
( 0.000378077 -0.000467632 0.00178737 )  
( -0.000288443 -0.000166333 0.00211136 )  
( 0.000957299 0.000609122 0.000953901 )  
( -0.000270994 0.00190364 0.00186064 )  
( -0.000343827 0.00049713 0.00214464 )  
( 0.000834578 8.9828e-05 0.000450595 )  
( 0.00092556 0.000263121 0.00271367 )  
( -0.00031193 0.000557857 0.00189799 )  
( 0.000727418 -0.00135449 0.00223395 )  
( 0.00145387 0.00130621 0.00072023 )  
( 0.000274699 -0.000399686 0.00204034 )  
( -0.000703225 -0.000303592 -0.00182184 )  
( 0.000730407 -0.000548542 -0.00159637 )  
( 0.000898021 -0.000638868 0.00325326 )  
( 1.30417e-05 1.4817e-05 9.72822e-06 )  
( 0.00207219 -0.000440633 -0.000378905 )  
( -7.30144e-05 0.00042296 0.00278999 )  
( 0.000279632 0.000694022 -0.000208058 )  
( 0.000823258 0.000395604 0.00173732 )  
( 0.000937291 0.00026609 0.00162209 )  
( 0.000456 0.000338544 0.00159549 )  
( -0.000533314 0.000604779 0.00165732 )  
( -0.000502156 0.000206958 -0.000441157 )  
( 0.000775075 0.000471616 0.00197142 )  
( 0.000865319 0.000995908 0.00132626 )  
( 0.000116617 0.000605141 -4.3004e-05 )  
( 0.000666557 -0.000803919 0.0012168 )  
( -0.000470453 -0.000187225 0.00160199 )  
( 0.000745459 0.00291553 0.00282808 )  
( -0.000149449 0.000389585 0.00123342 )  
( 0.000670891 0.00325515 0.00940314 )  
( 0.000658769 -0.000328383 -0.000315056 )  
( 6.17811e-05 -0.000411773 -0.000141277 )  
( -6.9169e-05 -0.000213058 0.00246226 )  
( 0.00202841 -0.000144715 0.00264765 )  
( -0.00201271 4.33899e-05 0.0120316 )  
( 0.000727952 -0.000730383 0.00196945 )  
( 0.000610782 -0.000303389 0.00200169 )  
( 0.00142721 -0.00137271 0.00339549 )  
( 0.00168136 0.000470289 0.00253194 )  
( 0.000872416 -0.000113488 0.00226862 )  
( 7.32958e-05 0.000150461 -4.41889e-05 )  
( 0.000721321 9.31365e-05 0.0031887 )  
( 0.000663343 -0.000135079 0.00326311 )  
( 0.000150546 -0.000396813 0.00165234 )  
( 0.000653569 0.000104627 0.00105312 )  
( 0.000188867 0.000367291 1.84401e-05 )  
( -0.00046951 -0.000221148 -9.77904e-05 )  
( 0.000480938 6.888e-05 0.00224055 )  
( 0.00251826 0.000261925 0.00311017 )  
( 0.000742003 0.000639456 3.83258e-05 )  
( 0.00304677 -0.00198798 -0.00169875 )  
( -0.000204263 0.00144818 0.00360025 )  
( 0.0010421 -0.000432076 0.00338661 )  
( 0.000427338 0.00119153 0.00349323 )  
( -0.000294702 -0.000368867 -0.000113139 )  
( -2.18328e-06 0.00107936 0.00288138 )  
( -0.000490153 0.00258853 0.00768157 )  
( -0.000246805 0.000601193 0.00265847 )  
( -0.000444262 0.000176226 0.000986354 )  
( 0.000764882 -0.000458061 -0.000354176 )  
( 0.000236457 -0.00042206 0.00367969 )  
( 0.000580047 -8.31105e-05 -0.000122437 )  
( 0.00120921 0.000638513 1.38363e-07 )  
( 0.00336585 0.000151528 0.00775086 )  
( -8.87543e-05 -0.000373683 0.000351034 )  
( 0.00192018 0.000309248 0.00269968 )  
( -0.000985844 -0.00101177 0.000606897 )  
( 0.00206282 0.000636865 0.00230646 )  
( 0.000820429 0.000287795 0.000425459 )  
( -0.000450496 0.000234754 0.00304298 )  
( -0.00226274 -0.00348658 0.00353081 )  
( -0.000138448 -0.000477711 6.43168e-05 )  
( 0.000128798 0.000558102 0.00325814 )  
( -0.000221337 -0.000536717 8.98884e-05 )  
( 0.000910608 0.000181803 0.00149716 )  
( 0.00171821 -0.000563077 0.00290495 )  
( 0.000602285 -0.00115622 0.002561 )  
( 0.00165181 0.000956372 0.00303761 )  
( -0.000450801 0.000277149 0.0010177 )  
( 0.000547342 0.000364863 0.000884487 )  
( 8.56005e-05 -0.000182274 0.00285061 )  
( -4.70412e-05 -0.000354791 0.000980258 )  
( -0.000439711 -0.00147174 0.00360376 )  
( 0.00117957 0.000879401 0.00317707 )  
( 0.00185396 0.00115216 -0.000210982 )  
( 7.2656e-05 0.000142513 0.000223925 )  
( 0.000448227 -0.0015832 0.00211798 )  
( 0.000140334 -0.000133548 -0.000100086 )  
( 0.00112171 0.000116629 0.00190433 )  
( -0.000851071 0.000682051 0.00312758 )  
( 0.00109988 -0.000108424 0.00290341 )  
( -0.000322584 -0.000107308 0.00033719 )  