/*--------------------------------*- C++ -*----------------------------------*\
| =========                 |                                                 |
| \\      /  F ield         | OpenFOAM: The Open Source CFD Toolbox           |
|  \\    /   O peration     | Version:  2506                                  |
|   \\  /    A nd           | Website:  www.openfoam.com                      |
|    \\/     M anipulation  |                                                 |
\*---------------------------------------------------------------------------*/
FoamFile
{
    version     2.0;
    format      ascii;
    arch        "LSB;label=32;scalar=64";
    class       volVectorField;
    location    "0.02";
    object      stored_U;
}
// * * * * * * * * * * * * * * * * * * * * * * * * * * * * * * * * * * * * * //

dimensions      [0 1 -1 0 0 0 0];

internalField   nonuniform List<vector> 
1152
(
(-0.00054546 0.000405102 0.00581782)
(-0.000194386 -5.66298e-05 0.00451113)
(0.000108299 -0.000201173 0.00714697)
(0.00104179 3.6521e-05 0.00751935)
(-0.00106498 0.00104066 0.0125967)
(-0.00105531 0.00109259 0.00980252)
(-0.000468384 0.000336628 0.00672583)
(0.00015359 7.40305e-05 0.00120974)
(-0.00100372 0.000460104 0.00651754)
(-0.0008969 0.000725828 0.00854601)
(0.000151964 0.000584457 0.00801349)
(-0.000748415 0.0014178 0.0143742)
(-0.000757568 0.00135223 0.00937947)
(-0.00120005 0.000624081 0.00978674)
(-0.000635768 0.000817801 0.00721864)
(-0.000161365 -0.000305909 0.00943286)
(-0.000417864 0.000558735 0.0146962)
(3.12358e-05 0.00062601 0.005842)
(0.000971686 0.00076459 0.0114023)
(5.87749e-05 1.70655e-05 0.000238339)
(0.000330272 -8.42518e-05 0.00677419)
(-6.53718e-05 -0.000222766 0.00956464)
(0.000196709 0.000196013 0.0138324)
(-0.00171914 -0.00183147 0.0111699)
(0.000197519 0.000346506 0.0099613)
(0.000199245 -0.000383786 0.0090681)
(-0.000188675 -1.07801e-05 0.00303155)
(-0.000142376 -0.00186523 0.0164523)
(-0.000131266 0.00013323 0.00674088)
(-0.000785471 0.000550987 0.013854)
(-0.00051475 -0.000808757 0.00868514)
(0.000114268 0.00103303 0.00528106)
(-0.000284036 0.000157956 0.00763329)
(-8.32554e-05 -0.000321669 0.0103664)
(0.000264311 -0.000165513 0.0117987)
(-0.00285584 -0.00417802 0.0290699)
(-0.000122537 -0.00127174 0.0231933)
(-0.00011069 -0.000272116 0.0190848)
(2.59395e-05 6.6583e-05 0.0021528)
(0.000270369 -0.00045557 0.0168866)
(-0.000243567 -0.00018248 0.00900924)
(0.000594757 -0.00026991 0.0132261)
(0.000152031 0.000133404 0.0208615)
(0.000161795 1.66913e-05 0.00764639)
(-0.000847822 -6.42031e-05 0.0263779)
(0.000198016 0.000106728 0.0060768)
(0.000497576 -0.000205959 0.0153009)
(1.55961e-05 0.000351329 0.00694081)
(0.000284517 -0.00249229 0.0180846)
(6.7016e-05 3.44512e-05 0.00161923)
(-0.000297297 -0.000242606 0.0100554)
(-0.000474704 -0.000667761 0.00801742)
(-0.000798563 -7.34722e-05 0.0131135)
(0.000533976 -0.000297191 0.010365)
(0.000166652 -0.000863251 0.0142657)
(0.000532135 0.000571249 0.0128588)
(-5.45105e-05 5.46765e-05 0.00306293)
(-0.000387121 0.000717142 0.0102519)
(0.000431166 0.00036233 0.0104082)
(0.000903786 0.000213379 0.0168487)
(2.24373e-05 0.000725842 0.00831965)
(0.000540628 0.000420861 0.0122653)
(-0.000491802 0.000825915 0.0110996)
(-3.8055e-05 -3.89313e-05 0.00185159)
(4.42164e-05 -4.76724e-05 0.00145702)
(-0.00139393 0.00019962 0.0138351)
(-0.000461056 -0.000296657 0.0151848)
(0.00593388 0.000747281 0.0230417)
(-0.000322992 -0.000210921 0.0144115)
(-0.000770391 0.000247372 0.0158012)
(-9.5724e-05 0.000611278 0.00937406)
(0.000676011 0.000155835 0.00632154)
(0.000257368 0.000603764 0.00788487)
(-0.000191252 0.000524858 0.0115112)
(-0.000302436 0.000520162 0.0084642)
(-0.000943873 0.000299677 0.0179875)
(0.00101094 -0.00050973 0.0167669)
(-0.00092454 -0.000192203 0.0120652)
(-0.00087673 -0.000409671 0.017966)
(0.000125027 4.5169e-05 0.00398389)
(-0.00179458 -0.000389942 0.0138371)
(-0.000437515 -3.42863e-05 0.00568783)
(-0.000347286 0.000125524 0.00503271)
(-0.000153598 8.99426e-05 0.00186934)
(-0.00018155 2.39797e-06 0.00634715)
(-0.00057305 -1.10262e-05 0.00722244)
(-3.6401e-06 -4.90524e-06 0.00341519)
(-0.000290899 0.000242975 0.00859356)
(-8.25397e-05 -0.00028425 0.00571695)
(-0.00121504 -9.02861e-05 0.00780183)
(-0.000920564 -0.000887072 0.013639)
(0.000306415 0.000906308 0.00950451)
(-0.00274169 -0.000940667 0.0174833)
(-0.00131406 0.000246487 0.00966163)
(0.000322813 0.000959407 0.00716053)
(1.96261e-05 0.000141375 0.00132726)
(0.000653908 -0.000360007 0.00543376)
(0.0010862 -0.000740437 0.00651437)
(0.00038734 -0.000269475 0.00765631)
(0.000612168 0.00061412 0.00985584)
(0.0013796 -0.000264046 0.00801411)
(0.000297489 3.14573e-05 0.00771994)
(0.000248299 -8.47845e-05 0.00493589)
(-7.62695e-05 0.000147559 0.00626975)
(7.50957e-05 -8.41236e-05 0.00759273)
(7.23911e-05 -5.51182e-05 0.00778502)
(0.000246126 0.000132799 0.00558855)
(-0.000639415 0.000503234 0.00843027)
(-0.000257858 -5.1483e-05 0.0123655)
(0.000250119 -0.000115947 0.00723275)
(0.000116417 -0.000370876 0.00474678)
(-0.000614689 -0.000391811 0.00465371)
(0.000756604 0.000118452 0.0111407)
(0.000535415 -0.000201896 0.00916722)
(0.000373483 -5.24613e-05 0.00962459)
(0.000481506 6.7159e-05 0.0136468)
(-0.000196393 -0.000329063 0.0114652)
(0.000157613 -0.000294783 0.0101072)
(0.000271045 -0.000122713 0.00806043)
(6.61929e-05 -0.000200716 0.011307)
(6.83982e-05 -0.000521805 0.0112773)
(0.000187528 -0.000309088 0.0112194)
(0.000145028 -0.000341685 0.0114062)
(-5.40299e-05 -0.000441723 0.012441)
(4.33921e-05 -0.000259723 0.0139271)
(0.000288448 -0.000209654 0.0104393)
(1.49838e-06 -0.000471869 0.00769394)
(-0.000422936 -0.000566097 0.009057)
(7.96023e-05 0.000178212 0.00315255)
(0.000284229 8.17541e-05 0.00248423)
(-0.00050245 -0.000157813 0.0023234)
(-0.000657497 -7.11078e-05 0.00303002)
(0.000210982 -0.000255495 0.00287589)
(0.00036294 -0.000251718 0.00223899)
(-0.000368301 -0.000201103 0.00198249)
(-0.00084303 0.000121885 0.0026397)
(0.000462058 -0.000373997 0.00279217)
(0.000214495 -0.000200531 0.0024594)
(-0.000209096 -6.22467e-05 0.00243387)
(-0.000238513 0.000265013 0.00265294)
(0.000503992 -0.000391162 0.0031531)
(0.000632972 -9.29846e-05 0.00245692)
(5.33663e-05 -0.000215446 0.00221723)
(0.000139155 -0.000172218 0.00243098)
(7.93115e-05 0.000102218 0.00655406)
(0.000139842 6.87479e-05 0.00631343)
(-0.000159258 -3.04595e-05 0.00631279)
(-0.000217299 -1.80848e-05 0.00677742)
(0.000138912 -5.09877e-05 0.00653754)
(0.000154057 -6.30081e-05 0.00622503)
(-0.000139785 -7.00593e-05 0.00617066)
(-0.000281012 1.89384e-05 0.006581)
(0.000178003 -0.000132177 0.00657294)
(0.000100471 -0.000127176 0.00636113)
(-9.28024e-05 -0.000107119 0.00638523)
(-0.000104328 -9.78427e-06 0.00657199)
(0.000118297 -0.00014802 0.00667854)
(0.000163439 -0.000149796 0.00630684)
(-3.60703e-05 -0.000207226 0.0061756)
(1.39174e-05 -0.000214445 0.00630752)
(3.37572e-05 3.86335e-05 0.0054792)
(6.16167e-05 2.80853e-05 0.00539966)
(-4.72957e-05 -1.24664e-05 0.00539312)
(-7.15036e-05 -1.92654e-05 0.00553319)
(6.90623e-05 -3.19523e-05 0.00545087)
(6.86298e-05 -2.83065e-05 0.00535279)
(-4.74245e-05 -3.21282e-05 0.00534122)
(-9.44306e-05 -7.9339e-06 0.00546972)
(8.99013e-05 -7.53219e-05 0.00547647)
(5.89128e-05 -6.86105e-05 0.00540699)
(-2.94784e-05 -5.72705e-05 0.00541364)
(-4.30048e-05 -2.39086e-05 0.005489)
(8.85837e-05 -0.000113207 0.00549434)
(8.14961e-05 -0.000105169 0.00540958)
(-6.59223e-06 -0.000109656 0.00539049)
(5.34985e-06 -0.000110073 0.00545251)
(2.50551e-05 1.5453e-05 0.00568433)
(3.41733e-05 7.65656e-06 0.00565869)
(-1.36281e-06 -9.25745e-06 0.00565711)
(-8.20402e-06 -1.70727e-05 0.00570648)
(3.37006e-05 -1.46687e-05 0.00567848)
(3.26239e-05 -1.70569e-05 0.00564423)
(-5.72019e-06 -2.14173e-05 0.0056429)
(-1.64079e-05 -1.74192e-05 0.00568993)
(3.36239e-05 -3.17861e-05 0.00569369)
(2.71048e-05 -3.66461e-05 0.00566547)
(-2.14695e-06 -3.63228e-05 0.00566673)
(-2.59889e-06 -2.72293e-05 0.00569839)
(2.34153e-05 -4.71579e-05 0.00570314)
(2.65999e-05 -5.6612e-05 0.00567205)
(2.73824e-06 -6.0713e-05 0.00566527)
(1.412e-05 -6.26805e-05 0.00569059)
(1.94607e-05 5.22349e-06 0.00568239)
(2.34421e-05 -3.31853e-07 0.00567393)
(1.39283e-05 -7.72089e-06 0.00567232)
(1.25178e-05 -1.29884e-05 0.00568772)
(2.06315e-05 -9.48066e-06 0.00568031)
(2.08336e-05 -1.2067e-05 0.00567038)
(1.03758e-05 -1.50465e-05 0.00567027)
(9.11726e-06 -1.55831e-05 0.00568594)
(1.87769e-05 -1.90371e-05 0.00568434)
(1.78774e-05 -2.20605e-05 0.00567849)
(1.03291e-05 -2.30332e-05 0.00567966)
(1.2694e-05 -2.10889e-05 0.00569165)
(1.41891e-05 -2.82809e-05 0.00568142)
(1.63822e-05 -3.25124e-05 0.00568193)
(1.10632e-05 -3.3547e-05 0.00568361)
(1.82581e-05 -3.51391e-05 0.00569371)
(1.53457e-05 8.92185e-07 0.00568485)
(1.79317e-05 -2.71763e-06 0.00568179)
(1.65168e-05 -6.39817e-06 0.0056799)
(1.72031e-05 -9.3241e-06 0.00568294)
(1.4604e-05 -6.16884e-06 0.00568406)
(1.57675e-05 -8.39529e-06 0.0056815)
(1.4296e-05 -1.03846e-05 0.0056807)
(1.55639e-05 -1.14491e-05 0.00568452)
(1.25842e-05 -1.11277e-05 0.00568464)
(1.37586e-05 -1.32807e-05 0.00568493)
(1.34263e-05 -1.44853e-05 0.00568517)
(1.63232e-05 -1.45018e-05 0.00568826)
(9.73818e-06 -1.5879e-05 0.0056797)
(1.22597e-05 -1.81776e-05 0.0056863)
(1.29546e-05 -1.90614e-05 0.00568826)
(1.80611e-05 -1.9998e-05 0.00569127)
(1.21088e-05 -8.44144e-07 0.00568558)
(1.41578e-05 -3.08511e-06 0.00568436)
(1.49562e-05 -5.08344e-06 0.00568245)
(1.6188e-05 -6.65129e-06 0.00568161)
(1.11607e-05 -4.16628e-06 0.00568503)
(1.26294e-05 -5.81782e-06 0.00568477)
(1.36044e-05 -7.14398e-06 0.0056836)
(1.53196e-05 -7.97658e-06 0.0056833)
(9.60522e-06 -6.68652e-06 0.00568382)
(1.12271e-05 -8.16002e-06 0.00568611)
(1.27748e-05 -9.1702e-06 0.00568592)
(1.53148e-05 -9.59989e-06 0.0056857)
(7.83136e-06 -9.09016e-06 0.00567682)
(1.00721e-05 -1.03325e-05 0.00568536)
(1.21023e-05 -1.11296e-05 0.00568727)
(1.56848e-05 -1.17608e-05 0.00568756)
(9.46746e-06 -1.41551e-06 0.005685)
(1.11276e-05 -2.75781e-06 0.00568453)
(1.23215e-05 -3.88071e-06 0.00568278)
(1.34718e-05 -4.72808e-06 0.00568097)
(8.71588e-06 -2.90162e-06 0.00568443)
(1.01216e-05 -4.03133e-06 0.00568494)
(1.14982e-05 -4.90834e-06 0.00568373)
(1.29786e-05 -5.47635e-06 0.00568226)
(7.63577e-06 -4.12371e-06 0.00568234)
(9.16132e-06 -5.09789e-06 0.00568527)
(1.0861e-05 -5.86654e-06 0.00568497)
(1.27853e-05 -6.30021e-06 0.00568375)
(6.49162e-06 -5.29772e-06 0.00567405)
(8.32897e-06 -5.99603e-06 0.0056831)
(1.0258e-05 -6.66353e-06 0.00568499)
(1.26926e-05 -7.13936e-06 0.00568444)
(7.30566e-06 -1.45665e-06 0.00568374)
(8.60931e-06 -2.25088e-06 0.0056837)
(9.67977e-06 -2.89026e-06 0.00568223)
(1.05766e-05 -3.35211e-06 0.00568039)
(6.78752e-06 -2.07069e-06 0.00568311)
(7.97225e-06 -2.80376e-06 0.00568398)
(9.17689e-06 -3.37645e-06 0.00568292)
(1.02837e-05 -3.7527e-06 0.00568129)
(6.06653e-06 -2.61552e-06 0.00568056)
(7.33659e-06 -3.23907e-06 0.00568373)
(8.71934e-06 -3.79215e-06 0.00568352)
(1.00696e-05 -4.14976e-06 0.00568216)
(5.35394e-06 -3.1239e-06 0.0056715)
(6.75861e-06 -3.56007e-06 0.0056807)
(8.24082e-06 -4.08154e-06 0.00568268)
(9.8444e-06 -4.45533e-06 0.00568203)
(5.55243e-06 -1.28713e-06 0.00568239)
(6.54248e-06 -1.76022e-06 0.00568268)
(7.3833e-06 -2.1302e-06 0.00568152)
(8.03025e-06 -2.38776e-06 0.00567994)
(5.21981e-06 -1.49659e-06 0.0056817)
(6.14387e-06 -1.9652e-06 0.00568281)
(7.06787e-06 -2.33968e-06 0.00568198)
(7.84779e-06 -2.59594e-06 0.00568054)
(4.75323e-06 -1.69294e-06 0.00567889)
(5.7259e-06 -2.09927e-06 0.00568222)
(6.74425e-06 -2.48764e-06 0.00568218)
(7.66035e-06 -2.76686e-06 0.005681)
(4.2781e-06 -1.8696e-06 0.00566939)
(5.32299e-06 -2.16274e-06 0.00567868)
(6.38224e-06 -2.55059e-06 0.00568081)
(7.42547e-06 -2.84471e-06 0.00568034)
(4.15105e-06 -1.05438e-06 0.00568118)
(4.88144e-06 -1.34286e-06 0.00568174)
(5.50244e-06 -1.56324e-06 0.00568088)
(5.95184e-06 -1.71325e-06 0.0056796)
(3.9428e-06 -1.08553e-06 0.00568045)
(4.62792e-06 -1.38853e-06 0.00568177)
(5.29703e-06 -1.63794e-06 0.00568117)
(5.83327e-06 -1.81827e-06 0.00568001)
(3.63731e-06 -1.11491e-06 0.00567749)
(4.34967e-06 -1.3862e-06 0.00568096)
(5.06668e-06 -1.65771e-06 0.00568113)
(5.6821e-06 -1.87118e-06 0.0056802)
(3.31224e-06 -1.13144e-06 0.00566773)
(4.06758e-06 -1.3403e-06 0.00567713)
(4.79928e-06 -1.62306e-06 0.00567944)
(5.47924e-06 -1.84901e-06 0.00567921)
(3.04331e-06 -8.20686e-07 0.0056802)
(3.56575e-06 -9.99367e-07 0.00568097)
(4.00399e-06 -1.13511e-06 0.00568035)
(4.30904e-06 -1.22624e-06 0.00567935)
(2.912e-06 -7.79744e-07 0.00567943)
(3.40156e-06 -9.80222e-07 0.00568092)
(3.86938e-06 -1.14781e-06 0.00568054)
(4.23039e-06 -1.27317e-06 0.00567963)
(2.70985e-06 -7.37821e-07 0.00567637)
(3.21317e-06 -9.23563e-07 0.00567999)
(3.70666e-06 -1.11303e-06 0.00568035)
(4.11408e-06 -1.27144e-06 0.00567967)
(2.48093e-06 -6.90063e-07 0.00566646)
(3.01465e-06 -8.41837e-07 0.00567599)
(3.51245e-06 -1.04637e-06 0.00567847)
(3.95269e-06 -1.21754e-06 0.00567848)
(2.16281e-06 -6.02677e-07 0.00567943)
(2.52392e-06 -7.12689e-07 0.00568037)
(2.82228e-06 -7.9815e-07 0.00567994)
(3.0217e-06 -8.55968e-07 0.00567916)
(2.07948e-06 -5.39993e-07 0.00567863)
(2.41694e-06 -6.73953e-07 0.00568026)
(2.73348e-06 -7.86174e-07 0.00568006)
(2.96724e-06 -8.72083e-07 0.00567936)
(1.94402e-06 -4.80194e-07 0.00567552)
(2.28881e-06 -6.0708e-07 0.00567925)
(2.62106e-06 -7.38298e-07 0.00567978)
(2.88097e-06 -8.52258e-07 0.0056793)
(1.78315e-06 -4.19709e-07 0.00566552)
(2.15086e-06 -5.26001e-07 0.00567515)
(2.48203e-06 -6.72771e-07 0.00567778)
(2.75901e-06 -8.01167e-07 0.00567799)
(1.445e-06 -4.01131e-07 0.00567888)
(1.68203e-06 -4.6596e-07 0.00567993)
(1.87343e-06 -5.17611e-07 0.00567963)
(1.99583e-06 -5.53922e-07 0.005679)
(1.3944e-06 -3.41554e-07 0.00567806)
(1.615e-06 -4.26684e-07 0.00567979)
(1.81692e-06 -4.99585e-07 0.00567971)
(1.95757e-06 -5.55616e-07 0.00567915)
(1.3077e-06 -2.89378e-07 0.00567491)
(1.5314e-06 -3.72544e-07 0.00567873)
(1.74246e-06 -4.60234e-07 0.00567937)
(1.89665e-06 -5.37106e-07 0.00567903)
(1.19942e-06 -2.40505e-07 0.00566486)
(1.43892e-06 -3.11064e-07 0.00567457)
(1.64831e-06 -4.11215e-07 0.0056773)
(1.81135e-06 -5.01359e-07 0.00567765)
(8.49574e-07 -1.87236e-07 0.00567854)
(9.87218e-07 -2.20918e-07 0.00567965)
(1.09597e-06 -2.47633e-07 0.00567943)
(1.16417e-06 -2.67188e-07 0.00567889)
(8.23685e-07 -1.47732e-07 0.00567769)
(9.51517e-07 -1.93593e-07 0.00567948)
(1.06513e-06 -2.3448e-07 0.00567948)
(1.14064e-06 -2.65794e-07 0.00567901)
(7.76544e-07 -1.1621e-07 0.00567451)
(9.04657e-07 -1.62702e-07 0.00567839)
(1.02256e-06 -2.1384e-07 0.00567911)
(1.10264e-06 -2.58363e-07 0.00567885)
(7.15108e-07 -9.0235e-08 0.00566444)
(8.50849e-07 -1.30452e-07 0.0056742)
(9.67211e-07 -1.89657e-07 0.005677)
(1.05111e-06 -2.43752e-07 0.00567743)
(4.09999e-07 9.14808e-08 0.00567835)
(4.76812e-07 8.26701e-08 0.0056795)
(5.30608e-07 7.41329e-08 0.00567933)
(5.65269e-07 6.52942e-08 0.00567885)
(4.05148e-07 1.00143e-07 0.00567751)
(4.65238e-07 8.54855e-08 0.00567933)
(5.17711e-07 6.95123e-08 0.00567937)
(5.53285e-07 5.50958e-08 0.00567896)
(3.90671e-07 1.0008e-07 0.00567433)
(4.47542e-07 8.32956e-08 0.00567823)
(4.9944e-07 6.20004e-08 0.00567899)
(5.34806e-07 4.162e-08 0.00567878)
(3.65833e-07 9.05921e-08 0.00566424)
(4.25559e-07 7.70093e-08 0.00567403)
(4.75056e-07 5.19339e-08 0.00567687)
(5.08842e-07 2.5866e-08 0.00567735)
(-0.00132098 0.000505488 0.0125916)
(-0.000375858 -0.000161997 0.00475528)
(-0.00115827 0.0004638 0.0142431)
(-0.000159405 3.42296e-05 0.0084171)
(-0.000659076 -0.000171716 0.00623706)
(-0.000936367 0.000784363 0.0076267)
(-0.000533199 0.000394887 0.00728514)
(-0.000190321 0.00044902 0.0101341)
(-0.000559355 0.000886072 0.00897404)
(-0.00063228 0.000647159 0.00998317)
(-0.00108918 0.00106741 0.00892099)
(-0.000218557 0.00028637 0.00831304)
(-0.000907332 0.000298542 0.00943955)
(-8.01873e-05 -0.000377271 0.0069981)
(-0.000909979 0.000483137 0.0106531)
(-0.00067641 -0.000121862 0.00852677)
(-4.87548e-05 0.000392823 0.0197143)
(-0.000992811 0.000640127 0.0120534)
(0.00113495 -0.000143361 0.0103237)
(0.000128543 0.000425934 0.0029943)
(-0.000174405 0.00118841 0.0146763)
(-0.000194021 3.72336e-05 0.00356325)
(0.00026742 0.000722469 0.00691771)
(0.000210912 -0.000607515 0.00444837)
(-0.000361054 8.32744e-05 0.00585631)
(-0.000576877 0.000953641 0.0189782)
(-0.00042598 0.000423298 0.0121182)
(-0.000343873 -0.000983955 0.0102349)
(-0.000125212 0.000147435 0.0150977)
(-0.000454733 0.000371519 0.00894744)
(-0.000634734 -0.000606915 0.0125757)
(0.000317089 3.65779e-05 0.00868621)
(3.85586e-05 0.000508329 0.00498262)
(0.000271451 0.0024086 0.0154648)
(0.00042072 0.000593348 0.0135716)
(-0.000564333 0.00142132 0.0263929)
(8.33161e-05 0.00176225 0.0110995)
(3.40705e-05 0.000634414 0.0142627)
(-0.000253947 0.00022559 0.00641675)
(-0.00116509 2.38971e-05 0.0232477)
(-3.78953e-05 4.90669e-05 0.0145689)
(0.000114721 -0.000286981 0.00749886)
(0.000299928 -0.000353302 0.0194753)
(-0.000153278 0.00040733 0.00861067)
(-0.000103185 -0.000319662 0.0142203)
(-0.000321547 -0.000152616 0.0191256)
(0.000736465 -0.000303623 0.0134799)
(-0.000742606 0.000629979 0.011209)
(3.75447e-05 0.000232889 0.00882224)
(-0.000322868 -0.00028133 0.00898775)
(-0.00046743 -6.30859e-05 0.00685379)
(0.000473489 -0.00083738 0.0183143)
(0.000874042 -0.00234751 0.0202828)
(0.00023572 0.000955262 0.0198605)
(-0.000576476 -5.21034e-06 0.0094203)
(0.000570543 0.00123975 0.0107571)
(0.000514165 0.000296541 0.0128481)
(0.000133152 0.00149448 0.0183175)
(0.000667434 -0.000428077 0.0179574)
(-5.6192e-05 0.0012287 0.0099424)
(0.000543107 0.00070606 0.0169585)
(-0.000173196 0.000268569 0.00713809)
(0.000209489 -0.00048758 0.0112963)
(0.000190195 0.000210289 0.0193665)
(0.00026914 -0.00280121 0.0293002)
(-0.000181428 -0.00119266 0.0115352)
(-0.000936763 0.000185115 0.0189367)
(0.000900095 0.00124028 0.0136955)
(-1.92591e-05 -0.000157783 0.00215147)
(0.000126204 -0.000274719 0.0086108)
(0.000765269 0.000365404 0.00916038)
(8.54788e-05 0.000630606 0.00722279)
(0.000152662 -0.000266828 0.00657183)
(0.000323569 0.000650425 0.0119185)
(0.0015006 0.000126107 0.0215182)
(0.000178347 0.000834691 0.0158892)
(0.000511146 0.000381096 0.0148424)
(0.000502042 0.000812177 0.026346)
(0.000652537 2.70828e-05 0.00696538)
(0.000425668 0.000895722 0.0118626)
(-5.83029e-05 -1.94511e-05 0.000974636)
(-3.07237e-05 0.000309219 0.00521927)
(7.23492e-05 0.000801083 0.00452067)
(-0.00038184 2.69663e-05 0.00329174)
(-0.000126186 -0.000100648 0.0123684)
(0.000299131 8.69704e-05 0.0086663)
(-0.00020818 -4.79898e-05 0.00609595)
(-0.000476169 0.000946734 0.0145638)
(0.000321419 -0.000299805 0.00761265)
(-0.000232353 0.00013848 0.0087054)
(0.000704553 0.000333702 0.012636)
(2.74275e-05 -5.53909e-05 0.000578496)
(0.000882003 3.25046e-05 0.0108822)
(0.000233012 0.000256944 0.00424387)
(-2.58076e-05 0.000447489 0.00508452)
(0.000460439 0.000213082 0.0159891)
(-0.00193182 0.00141252 0.0122422)
(-5.57796e-05 -8.14668e-05 0.00580599)
(0.000519222 0.00124411 0.00961523)
(4.13243e-05 0.000291367 0.00962358)
(-0.00141563 0.00176514 0.00674992)
(-0.000112703 -0.000337786 0.0069427)
(0.000150791 -0.000110579 0.00860565)
(0.00058855 -0.000716389 0.00356405)
(0.00307256 -9.44366e-05 0.00602002)
(8.15694e-05 -0.000271751 0.00751774)
(0.000237563 5.09654e-05 0.0109277)
(0.000172465 -0.00027052 0.0035879)
(-4.39752e-07 1.01247e-06 0.00907249)
(0.000295624 -2.46339e-05 0.013576)
(0.00191309 0.00121882 0.00510485)
(-7.21255e-05 -0.000247434 0.0133139)
(-4.65206e-05 -1.54e-06 0.0138846)
(6.07102e-05 -0.000244708 0.00801614)
(-0.000150694 -0.000298704 0.0110939)
(-0.000339856 -5.34911e-05 0.0130308)
(-1.27486e-05 -1.53576e-05 0.0139499)
(7.98435e-05 -0.000389057 0.0101128)
(-2.7794e-05 -0.000141544 0.012567)
(-0.000444153 -0.000336363 0.0114533)
(0.00016953 -0.000191248 0.0120765)
(0.000150598 -0.000515459 0.0125545)
(-0.000210744 6.5747e-05 0.01316)
(-9.45007e-05 -0.000811453 0.012596)
(-0.000160417 -0.000205206 0.0102992)
(0.000166294 -0.000249714 0.0129483)
(-8.9495e-05 0.000186274 0.00903934)
(-9.83126e-05 -0.000419654 0.0141288)
(0.000402244 -0.000159307 0.00321476)
(0.000404793 -0.000281265 0.00242172)
(-0.000305401 -0.00069858 0.00284896)
(-0.000114916 -0.000591708 0.00336378)
(0.000141761 4.30116e-05 0.00320562)
(0.000361413 -0.000452196 0.00280425)
(-0.000227636 -0.00034761 0.00319446)
(-0.000239926 -0.000276764 0.00326968)
(-0.000134057 8.3943e-05 0.00284805)
(0.000234866 -0.000411983 0.00319895)
(-0.000228655 0.000151739 0.00325172)
(-2.4983e-05 -0.000330686 0.00357195)
(-0.000193958 -6.64276e-05 0.00249168)
(0.000183941 -0.000133488 0.00334864)
(-0.000259845 0.000192034 0.00270112)
(-9.84064e-05 -0.000222145 0.00406863)
(3.77788e-05 -0.000122067 0.00677203)
(5.57447e-05 -0.00023726 0.00638703)
(-0.00017049 -0.000362397 0.0065078)
(-9.13936e-05 -0.00038025 0.00675316)
(-6.1555e-05 -7.22658e-05 0.00679244)
(2.52265e-05 -0.000260491 0.00654696)
(-0.000167693 -0.000225767 0.00667201)
(-9.33764e-05 -0.000238888 0.00685472)
(-0.000171299 -2.22332e-05 0.00660855)
(-3.86261e-05 -0.000183228 0.00666955)
(-0.000195184 -8.98802e-06 0.00665042)
(-2.80552e-05 -0.000173807 0.00690532)
(-0.000185324 -7.66435e-05 0.00635744)
(-7.22253e-05 -8.85488e-05 0.00663416)
(-0.000230748 2.14901e-05 0.00631698)
(-3.76717e-05 -8.72212e-05 0.00696131)
(4.48785e-05 -8.73028e-05 0.00551122)
(5.83557e-05 -0.000117609 0.0054643)
(-4.17493e-05 -0.000153415 0.00551626)
(-2.30848e-05 -0.000177608 0.00562645)
(3.59968e-06 -5.72299e-05 0.00548896)
(4.83535e-05 -0.000110075 0.00550603)
(-4.7303e-05 -0.000100347 0.00557041)
(-1.73834e-05 -0.000128205 0.00569253)
(-3.11486e-05 -4.58931e-05 0.00539095)
(2.95825e-05 -8.90263e-05 0.00550186)
(-5.92229e-05 -4.20459e-05 0.00553501)
(-1.04619e-06 -0.000104534 0.00570153)
(-4.98335e-05 -4.97722e-05 0.00523199)
(4.09789e-06 -4.32384e-05 0.00540291)
(-7.87366e-05 -1.94555e-05 0.00535438)
(-3.98527e-06 -5.1561e-05 0.00564161)
(3.43009e-06 -4.37216e-05 0.00571212)
(1.30061e-05 -6.3003e-05 0.00569851)
(-1.16464e-05 -7.45813e-05 0.00570983)
(7.21716e-06 -9.01985e-05 0.00575189)
(-1.24454e-05 -3.65196e-05 0.00568592)
(6.16394e-06 -5.82131e-05 0.00569879)
(-1.92693e-05 -5.38995e-05 0.00571479)
(9.24224e-06 -7.18692e-05 0.00577126)
(-2.82821e-05 -2.53078e-05 0.00561308)
(-3.80943e-06 -4.10556e-05 0.00565894)
(-2.91149e-05 -2.53328e-05 0.00566627)
(1.19633e-05 -4.99855e-05 0.00574643)
(-3.62544e-05 -2.62794e-05 0.00549905)
(-1.64838e-05 -2.28859e-05 0.00556186)
(-3.99885e-05 -1.20186e-05 0.00554534)
(9.64159e-06 -2.03533e-05 0.00566293)
(4.02503e-06 -2.5251e-05 0.00566914)
(1.10537e-05 -3.24694e-05 0.00568645)
(5.42618e-06 -3.63635e-05 0.00569775)
(1.66657e-05 -4.50362e-05 0.00571631)
(-2.83805e-06 -2.19065e-05 0.00563363)
(7.04494e-06 -2.93538e-05 0.00566866)
(1.66263e-07 -2.7953e-05 0.00568757)
(1.66167e-05 -3.8351e-05 0.00571733)
(-8.80357e-06 -1.68042e-05 0.00556186)
(2.2782e-06 -2.10316e-05 0.00561258)
(-5.89567e-06 -1.56579e-05 0.00563394)
(1.59622e-05 -2.68419e-05 0.00567751)
(-1.39152e-05 -1.42097e-05 0.00544766)
(-4.639e-06 -1.11359e-05 0.00550145)
(-1.21811e-05 -6.92309e-06 0.00551572)
(1.3528e-05 -1.00892e-05 0.00557261)
(4.29322e-06 -1.36278e-05 0.00566264)
(9.30094e-06 -1.69783e-05 0.0056822)
(1.0178e-05 -1.89726e-05 0.00569027)
(1.74781e-05 -2.31484e-05 0.00569791)
(5.96529e-07 -1.18631e-05 0.00562506)
(6.54465e-06 -1.52469e-05 0.00565727)
(6.92436e-06 -1.49788e-05 0.00567285)
(1.67462e-05 -2.01916e-05 0.00568799)
(-2.56859e-06 -8.74336e-06 0.00555451)
(3.55036e-06 -1.06568e-05 0.00559583)
(3.21789e-06 -8.74839e-06 0.00561666)
(1.53552e-05 -1.40955e-05 0.00564047)
(-5.65969e-06 -6.66632e-06 0.0054446)
(-6.57796e-07 -5.18528e-06 0.00548319)
(-7.84472e-07 -3.18725e-06 0.00550121)
(1.31484e-05 -4.85774e-06 0.00553009)
(4.62629e-06 -7.4503e-06 0.00565673)
(8.1863e-06 -9.04027e-06 0.00567678)
(1.04446e-05 -1.04259e-05 0.00568414)
(1.51972e-05 -1.25512e-05 0.00568737)
(2.40263e-06 -6.33314e-06 0.00561782)
(6.19499e-06 -7.9247e-06 0.00564847)
(8.34382e-06 -8.31156e-06 0.00566337)
(1.43577e-05 -1.08966e-05 0.00567188)
(5.56619e-07 -4.29338e-06 0.00554699)
(4.14051e-06 -5.23608e-06 0.00558456)
(5.99279e-06 -4.78027e-06 0.00560566)
(1.30428e-05 -7.42432e-06 0.00562015)
(-1.39385e-06 -2.69275e-06 0.00543766)
(1.53785e-06 -2.00095e-06 0.00547078)
(3.43369e-06 -1.15705e-06 0.00549038)
(1.13081e-05 -2.24514e-06 0.00550706)
(4.46425e-06 -4.04252e-06 0.00565247)
(7.04803e-06 -4.92741e-06 0.00567235)
(9.14295e-06 -5.93485e-06 0.00567947)
(1.22074e-05 -7.15206e-06 0.00568121)
(2.98599e-06 -3.24623e-06 0.00561291)
(5.57264e-06 -4.14499e-06 0.00564237)
(7.74465e-06 -4.67298e-06 0.005657)
(1.1453e-05 -6.09041e-06 0.00566296)
(1.80056e-06 -1.88233e-06 0.00554191)
(4.11354e-06 -2.41861e-06 0.00557725)
(6.18115e-06 -2.52817e-06 0.00559839)
(1.03834e-05 -4.00097e-06 0.00560905)
(5.28311e-07 -6.88245e-07 0.00543288)
(2.43747e-06 -4.10045e-07 0.00546295)
(4.50656e-06 -1.65081e-07 0.00548295)
(9.10563e-06 -9.96606e-07 0.00549459)
(3.99109e-06 -2.18411e-06 0.00564912)
(5.84133e-06 -2.71905e-06 0.00566885)
(7.45366e-06 -3.46553e-06 0.00567594)
(9.40915e-06 -4.2497e-06 0.00567734)
(2.95872e-06 -1.61102e-06 0.00560921)
(4.77442e-06 -2.1392e-06 0.00563802)
(6.47913e-06 -2.65199e-06 0.00565254)
(8.79101e-06 -3.52647e-06 0.00565771)
(2.1343e-06 -6.43217e-07 0.0055381)
(3.73363e-06 -1.0044e-06 0.0055723)
(5.41505e-06 -1.28668e-06 0.00559337)
(7.97454e-06 -2.21617e-06 0.00560269)
(1.27129e-06 2.36882e-07 0.00542924)
(2.62104e-06 3.06486e-07 0.00545778)
(4.30315e-06 2.69004e-07 0.00547779)
(7.05396e-06 -4.13879e-07 0.00548756)
(3.33237e-06 -1.17392e-06 0.00564657)
(4.6644e-06 -1.52211e-06 0.00566624)
(5.82086e-06 -2.059e-06 0.00567341)
(7.06478e-06 -2.60057e-06 0.0056749)
(2.59761e-06 -7.54631e-07 0.00560646)
(3.89664e-06 -1.08276e-06 0.00563495)
(5.1354e-06 -1.5047e-06 0.00564947)
(6.58464e-06 -2.09736e-06 0.00565454)
(2.01969e-06 -6.2642e-08 0.00553529)
(3.15882e-06 -3.11189e-07 0.00556892)
(4.39752e-06 -6.15378e-07 0.00558996)
(5.97894e-06 -1.25789e-06 0.00559894)
(1.42443e-06 5.88361e-07 0.00542653)
(2.40894e-06 5.68319e-07 0.00545433)
(3.64864e-06 4.12034e-07 0.00547428)
(5.32643e-06 -1.45819e-07 0.0054835)
(2.64832e-06 -6.31358e-07 0.00564465)
(3.59467e-06 -8.67906e-07 0.00566437)
(4.4e-06 -1.24427e-06 0.00567166)
(5.19657e-06 -1.62552e-06 0.00567335)
(2.12343e-06 -3.26404e-07 0.00560442)
(3.05031e-06 -5.35437e-07 0.0056328)
(3.92075e-06 -8.53658e-07 0.00564738)
(4.83663e-06 -1.2728e-06 0.00565259)
(1.7175e-06 1.72471e-07 0.00553322)
(2.53224e-06 2.12999e-09 0.0055666)
(3.4063e-06 -2.63303e-07 0.00558765)
(4.39563e-06 -7.27445e-07 0.00559668)
(1.30552e-06 6.5407e-07 0.00542453)
(2.0257e-06 6.02745e-07 0.005452)
(2.89865e-06 4.16818e-07 0.00547194)
(3.93749e-06 -2.79659e-08 0.00548109)
(2.01765e-06 -3.40442e-07 0.00564324)
(2.67764e-06 -5.02729e-07 0.00566303)
(3.22816e-06 -7.65878e-07 0.00567046)
(3.73866e-06 -1.03769e-06 0.00567238)
(1.6487e-06 -1.19789e-07 0.00560292)
(2.29688e-06 -2.58501e-07 0.00563131)
(2.89293e-06 -4.90717e-07 0.00564597)
(3.47551e-06 -7.90708e-07 0.00565137)
(1.36344e-06 2.37151e-07 0.00553171)
(1.9371e-06 1.15299e-07 0.00556501)
(2.5362e-06 -9.43063e-08 0.00558611)
(3.16066e-06 -4.30773e-07 0.00559528)
(1.07806e-06 5.88104e-07 0.00542307)
(1.59524e-06 5.29766e-07 0.00545042)
(2.19322e-06 3.58646e-07 0.00547038)
(2.84306e-06 1.72351e-08 0.00547963)
(1.46741e-06 -1.82348e-07 0.00564221)
(1.91615e-06 -2.9232e-07 0.00566209)
(2.28042e-06 -4.76293e-07 0.00566964)
(2.60166e-06 -6.69946e-07 0.00567174)
(1.21429e-06 -2.74888e-08 0.00560185)
(1.65545e-06 -1.2205e-07 0.00563027)
(2.04913e-06 -2.88164e-07 0.00564503)
(2.41561e-06 -4.99508e-07 0.0056506)
(1.01787e-06 2.22793e-07 0.00553063)
(1.41003e-06 1.32165e-07 0.00556392)
(1.80659e-06 -2.38315e-08 0.00558509)
(2.19805e-06 -2.60466e-07 0.00559441)
(8.23201e-07 4.70596e-07 0.00542203)
(1.18156e-06 4.15511e-07 0.00544934)
(1.57887e-06 2.77104e-07 0.00546935)
(1.98415e-06 2.85652e-08 0.00547873)
(9.95568e-07 -8.84633e-08 0.0056415)
(1.28436e-06 -1.60625e-07 0.00566144)
(1.51243e-06 -2.84505e-07 0.00566909)
(1.70338e-06 -4.15655e-07 0.00567132)
(8.31941e-07 1.2714e-08 0.0056011)
(1.11445e-06 -5.19853e-08 0.00562956)
(1.36045e-06 -1.64981e-07 0.00564441)
(1.58023e-06 -3.05947e-07 0.00565011)
(7.04245e-07 1.7565e-07 0.00552988)
(9.55503e-07 1.09803e-07 0.00556319)
(1.20357e-06 2.8326e-09 0.00558442)
(1.43885e-06 -1.54521e-07 0.00559387)
(5.77143e-07 3.39095e-07 0.00542131)
(8.097e-07 2.93866e-07 0.00544862)
(1.05912e-06 1.94286e-07 0.00546869)
(1.3022e-06 2.54775e-08 0.00547818)
(5.99437e-07 -9.08059e-09 0.00564105)
(7.62098e-07 -5.14524e-08 0.00566103)
(8.87937e-07 -1.24948e-07 0.00566874)
(9.87048e-07 -2.02789e-07 0.00567107)
(5.06616e-07 4.44758e-08 0.00560063)
(6.64792e-07 3.74178e-09 0.00562912)
(7.99942e-07 -6.493e-08 0.00564402)
(9.15513e-07 -1.48586e-07 0.00564981)
(4.33659e-07 1.31962e-07 0.00552941)
(5.7418e-07 8.80763e-08 0.00556273)
(7.10156e-07 2.24344e-08 0.00558402)
(8.33859e-07 -7.1416e-08 0.00559355)
(3.6079e-07 2.20956e-07 0.00542085)
(4.91899e-07 1.86897e-07 0.00544818)
(6.28349e-07 1.23009e-07 0.00546829)
(7.55693e-07 2.0987e-08 0.00547786)
(3.19099e-07 1.02326e-07 0.00564084)
(3.8977e-07 8.67732e-08 0.00566085)
(4.40479e-07 5.38231e-08 0.0056686)
(4.77553e-07 1.7022e-08 0.00567097)
(2.80568e-07 1.12518e-07 0.00560042)
(3.49047e-07 9.14738e-08 0.00562893)
(4.02235e-07 5.51721e-08 0.00564386)
(4.43499e-07 1.23277e-08 0.0056497)
(2.50341e-07 1.3394e-07 0.0055292)
(3.10615e-07 1.04455e-07 0.00556253)
(3.62458e-07 6.42239e-08 0.00558385)
(4.04463e-07 1.46681e-08 0.00559343)
(2.21836e-07 1.57388e-07 0.00542065)
(2.76745e-07 1.25159e-07 0.00544799)
(3.2699e-07 8.10624e-08 0.00546813)
(3.67499e-07 2.56583e-08 0.00547774)
(0.000637186 0.00158219 0.00977633)
(-0.00137615 0.00199174 0.0172082)
(-0.000672583 0.000301465 0.00616619)
(0.000241626 0.000545408 0.0107036)
(0.000195469 0.000981873 0.00492681)
(-0.00055265 0.0008533 0.010184)
(-0.000269996 0.00115088 0.00734869)
(6.24578e-05 0.00136624 0.00897511)
(-0.00105105 0.00107492 0.00964006)
(-0.00236647 0.00137857 0.0104128)