/*--------------------------------*- C++ -*----------------------------------*\
| =========                 |                                                 |
| \\      /  F ield         | OpenFOAM: The Open Source CFD Toolbox           |
|  \\    /   O peration     | Version:  2506                                  |
|   \\  /    A nd           | Website:  www.openfoam.com                      |
|    \\/     M anipulation  |                                                 |
\*---------------------------------------------------------------------------*/
FoamFile
{
    version     2.0;
    format      ascii;
    arch        "LSB;label=32;scalar=64";
    class       volVectorField;
    location    "0.02";
    object      U;
}
// * * * * * * * * * * * * * * * * * * * * * * * * * * * * * * * * * * * * * //

dimensions      [0 1 -1 0 0 0 0];

internalField   nonuniform List<vector> 
1152
(
(-0.000462715 0.00035155 0.00588326)
(-0.000152023 -0.000129207 0.00453318)
(0.000348861 -0.000307944 0.0070956)
(0.00116024 -4.38419e-05 0.00768444)
(-0.00092777 0.000936559 0.0127706)
(-0.000962376 0.000939152 0.00999286)
(-0.000348968 0.000228914 0.0068209)
(0.000156902 5.81824e-05 0.00122803)
(-0.000960178 0.000412594 0.00661532)
(-0.000796418 0.000604037 0.00865428)
(0.00026572 0.000472402 0.00811017)
(-0.000394399 0.00104045 0.0145763)
(-0.000704109 0.00128775 0.00945556)
(-0.00112998 0.000496427 0.00987081)
(-0.000555351 0.00071547 0.00728719)
(-3.57741e-05 -0.000483758 0.00953733)
(-0.000313781 0.000510313 0.0148386)
(4.17268e-05 0.000554895 0.00596965)
(0.00141988 0.000629739 0.0115389)
(1.49427e-05 3.98986e-05 0.000194428)
(0.00041825 -0.000139325 0.00683533)
(1.7506e-05 -0.000334976 0.00975006)
(0.000265928 8.68653e-05 0.0139806)
(-0.00158165 -0.00236773 0.0112379)
(0.000247888 0.000331111 0.0100425)
(0.00026232 -0.000405886 0.00916531)
(-0.000186425 -1.02784e-05 0.00305575)
(2.44189e-05 -0.00204749 0.0166682)
(-0.000102657 0.000132755 0.00694148)
(-0.00074297 0.000493574 0.0141062)
(-0.000472034 -0.000837585 0.00874023)
(6.10265e-05 0.00107855 0.00532874)
(-0.00028484 0.000137595 0.00773213)
(-2.30226e-06 -0.00038462 0.0105254)
(0.000322135 -0.00033982 0.0119841)
(-0.00257316 -0.00525495 0.0293889)
(-6.31138e-05 -0.00133547 0.023425)
(-8.94008e-05 -0.000383624 0.0192697)
(2.90585e-05 3.25028e-05 0.00217113)
(0.000387367 -0.000640357 0.0168196)
(-0.000271374 -0.000215458 0.00927949)
(0.000621122 -0.000316845 0.0133753)
(0.000210705 -2.45019e-05 0.0211176)
(0.000217146 -1.06835e-05 0.00770896)
(-0.000847561 -0.000160576 0.0265657)
(0.000199644 8.0282e-05 0.00603915)
(0.000532697 -0.00029913 0.0154603)
(1.48355e-05 0.000368326 0.0069768)
(0.000410974 -0.00258465 0.0181991)
(1.70148e-05 8.10733e-06 0.00160358)
(-0.000387253 -0.000399299 0.0100217)
(-0.000769822 -0.000859174 0.00770491)
(-0.000829092 -7.12751e-05 0.0132607)
(0.000457895 -0.000363967 0.0104282)
(8.15899e-05 -0.000941557 0.0143656)
(0.000433307 0.000453114 0.0127711)
(-0.000164374 6.21782e-05 0.00299242)
(-0.000462694 0.000711834 0.010323)
(0.000403177 0.000377732 0.0104719)
(0.000919118 0.000198185 0.0169243)
(-1.99801e-05 0.000709469 0.00842735)
(0.000507094 0.000400981 0.0123798)
(-0.000529312 0.000820151 0.0111558)
(-3.34383e-05 -2.61642e-05 0.00185597)
(9.64134e-07 -2.82068e-05 0.00145457)
(-0.00157708 0.00019423 0.0140148)
(-0.000999656 -8.96955e-05 0.0152553)
(0.00412895 0.00120864 0.0230105)
(-0.00037344 -0.000205665 0.0146452)
(-0.000875592 0.000301458 0.0159527)
(-0.000190111 0.000817761 0.00946174)
(0.000658732 0.000392387 0.00640719)
(0.00019157 0.000574465 0.00795471)
(-0.000246996 0.000581688 0.0115756)
(-0.000391529 0.000617078 0.00851714)
(-0.00101567 0.000580114 0.0181596)
(0.000991968 -0.000611408 0.0168768)
(-0.00094526 -0.000249741 0.0121627)
(-0.000900099 -0.000387412 0.0181503)
(0.000100964 0.000110694 0.00400551)
(-0.0017319 -0.00041123 0.0138907)
(-0.000349273 3.53292e-05 0.00581151)
(-0.000422062 0.000314048 0.00510859)
(-0.000260845 0.00018316 0.00184159)
(-0.000214076 0.000105146 0.00653919)
(-0.000607491 5.69306e-05 0.00736104)
(-4.36271e-05 7.6458e-05 0.00353837)
(-0.000182144 0.000319429 0.00881701)
(-3.05807e-05 -0.000265704 0.00577138)
(-0.00114081 2.16184e-05 0.00786684)
(-0.000810677 -0.00103733 0.0139739)
(0.000443928 0.000929398 0.0096638)
(-0.00283918 -0.00122655 0.017696)
(-0.00129617 0.000248918 0.00979696)
(0.000316986 0.000956623 0.00725805)
(6.43489e-05 0.000178187 0.00132777)
(0.000293761 -0.00036167 0.00554179)
(0.000905471 -0.000549714 0.00679351)
(8.22712e-05 -0.000237251 0.00806463)
(0.000633021 0.000714979 0.010053)
(0.00136273 -0.000118333 0.00802388)
(0.000259316 5.69197e-05 0.00780899)
(1.78748e-05 -0.000249718 0.00512454)
(1.93418e-05 -5.35778e-05 0.00641141)
(-3.01732e-05 -9.72471e-05 0.00778168)
(5.7113e-05 -7.98825e-05 0.00783945)
(0.000230748 0.000128747 0.00576269)
(-0.000532498 0.000416821 0.00862378)
(-0.00021302 -4.83782e-05 0.0127179)
(0.000250366 -2.63775e-05 0.00735572)
(0.000155275 -0.000441424 0.00469934)
(-0.000322512 -0.000351478 0.0046059)
(0.000725814 0.000138247 0.0110841)
(0.000498315 -0.000174897 0.0094522)
(0.000389815 -2.45293e-06 0.00998983)
(0.000555784 0.000126655 0.0137179)
(-0.000212599 -0.000275435 0.0116223)
(0.000163896 -0.000240472 0.0105554)
(0.000269595 -7.88338e-05 0.00823001)
(7.12109e-05 -0.000194 0.0111935)
(4.19302e-05 -0.000489213 0.0115362)
(0.000181125 -0.000274573 0.0113869)
(0.00012439 -0.000306653 0.0113962)
(-7.70026e-05 -0.000403281 0.0125091)
(2.72596e-05 -0.000236491 0.0141936)
(0.000290874 -0.000202186 0.010606)
(6.06956e-07 -0.000461514 0.00771812)
(-0.000428032 -0.000538207 0.00885895)
(7.08989e-05 0.000169748 0.00316383)
(0.00024843 6.00174e-05 0.00252171)
(-0.000496774 -0.000152806 0.00237923)
(-0.000621954 -4.46e-05 0.00306793)
(0.000171468 -0.000282159 0.00289895)
(0.000340145 -0.000257006 0.00229458)
(-0.000346148 -0.000192234 0.00202397)
(-0.000822301 0.00012051 0.00267531)
(0.00044102 -0.000401455 0.00283353)
(0.000216399 -0.00019135 0.00248921)
(-0.000201273 -5.34509e-05 0.00245344)
(-0.000231369 0.000261666 0.00268853)
(0.000496823 -0.000395867 0.00319661)
(0.000643494 -8.87622e-05 0.00247686)
(5.93621e-05 -0.000214463 0.00221711)
(0.000100996 -0.000171192 0.00241486)
(7.90978e-05 0.000105844 0.00663294)
(0.000133633 6.81123e-05 0.00641052)
(-0.000160127 -2.5838e-05 0.00641329)
(-0.000215771 -9.49604e-06 0.00687223)
(0.000122699 -5.15952e-05 0.0066228)
(0.000148726 -6.15383e-05 0.00633521)
(-0.000136132 -6.6224e-05 0.00626953)
(-0.000283985 1.93389e-05 0.00667258)
(0.000167905 -0.00013429 0.00667591)
(9.81083e-05 -0.000122457 0.00646564)
(-9.55023e-05 -0.000106179 0.00648018)
(-0.000111755 -1.45914e-05 0.00666539)
(0.000109151 -0.000146464 0.00678446)
(0.000160083 -0.000147287 0.00640824)
(-4.31774e-05 -0.000210159 0.00626565)
(-4.2065e-06 -0.00021987 0.00639551)
(3.10388e-05 4.18273e-05 0.00556148)
(5.64314e-05 2.98226e-05 0.0054837)
(-5.25754e-05 -1.05068e-05 0.00547626)
(-7.82289e-05 -1.70202e-05 0.00561466)
(6.14992e-05 -3.20312e-05 0.00553235)
(6.28787e-05 -2.78998e-05 0.00543839)
(-5.21411e-05 -3.13927e-05 0.00542251)
(-0.00010306 -8.44225e-06 0.00554871)
(8.47316e-05 -7.8466e-05 0.00555897)
(5.43943e-05 -6.9265e-05 0.00548977)
(-3.58605e-05 -5.87463e-05 0.0054937)
(-5.30137e-05 -2.74299e-05 0.00556923)
(8.46355e-05 -0.000116 0.00557552)
(7.70335e-05 -0.000106626 0.00549045)
(-1.45557e-05 -0.000112652 0.00547009)
(-6.86511e-06 -0.000114045 0.00553354)
(2.20266e-05 1.74855e-05 0.00577377)
(2.95834e-05 8.99261e-06 0.00574899)
(-7.203e-06 -8.27234e-06 0.00574748)
(-1.5649e-05 -1.62919e-05 0.00579703)
(2.88848e-05 -1.41506e-05 0.00576698)
(2.74719e-05 -1.67105e-05 0.00573435)
(-1.17413e-05 -2.12538e-05 0.00573253)
(-2.45934e-05 -1.76901e-05 0.00577971)
(2.94393e-05 -3.28977e-05 0.005783)
(2.21404e-05 -3.73224e-05 0.0057553)
(-8.64344e-06 -3.72988e-05 0.00575638)
(-1.11877e-05 -2.88185e-05 0.00578903)
(1.92499e-05 -4.82096e-05 0.00579272)
(2.14497e-05 -5.76114e-05 0.00576183)
(-4.31653e-06 -6.23114e-05 0.00575535)
(4.8717e-06 -6.49987e-05 0.00578235)
(1.65077e-05 6.34346e-06 0.00577366)
(1.94193e-05 4.81898e-07 0.00576574)
(8.72805e-06 -7.24483e-06 0.00576461)
(6.00552e-06 -1.27219e-05 0.00578076)
(1.7032e-05 -9.17593e-06 0.00577094)
(1.6504e-05 -1.18966e-05 0.00576191)
(4.97583e-06 -1.50323e-05 0.00576228)
(2.35878e-06 -1.57467e-05 0.00577875)
(1.53383e-05 -1.95967e-05 0.00577508)
(1.35663e-05 -2.25447e-05 0.00576997)
(4.78778e-06 -2.35968e-05 0.00577176)
(5.80002e-06 -2.1818e-05 0.0057848)
(1.08184e-05 -2.89332e-05 0.00577201)
(1.19929e-05 -3.31283e-05 0.00577338)
(5.37488e-06 -3.4316e-05 0.00577593)
(1.13002e-05 -3.62582e-05 0.00578737)
(1.26829e-05 1.50434e-06 0.0057779)
(1.45146e-05 -2.24723e-06 0.00577534)
(1.22332e-05 -6.09156e-06 0.00577403)
(1.20123e-05 -9.15703e-06 0.00577789)
(1.17213e-05 -5.98548e-06 0.00577679)
(1.22094e-05 -8.2772e-06 0.00577489)
(9.8924e-06 -1.03576e-05 0.00577473)
(1.0289e-05 -1.14855e-05 0.00577943)
(9.72716e-06 -1.13854e-05 0.00577729)
(1.01872e-05 -1.3539e-05 0.00577829)
(8.98652e-06 -1.47536e-05 0.00577926)
(1.10422e-05 -1.47772e-05 0.00578331)
(6.93304e-06 -1.61674e-05 0.00577211)
(8.67102e-06 -1.84609e-05 0.0057796)
(8.51423e-06 -1.93823e-05 0.00578243)
(1.28461e-05 -2.04335e-05 0.00578653)
(9.86622e-06 -4.99732e-07 0.00577995)
(1.13663e-05 -2.80692e-06 0.00577923)
(1.15627e-05 -4.88469e-06 0.00577786)
(1.21798e-05 -6.5137e-06 0.00577775)
(8.85042e-06 -4.06612e-06 0.0057792)
(9.78375e-06 -5.73224e-06 0.00577953)
(1.01548e-05 -7.0932e-06 0.00577897)
(1.12902e-05 -7.9424e-06 0.00577943)
(7.30608e-06 -6.82789e-06 0.00577784)
(8.38674e-06 -8.28974e-06 0.00578081)
(9.3296e-06 -9.27705e-06 0.00578129)
(1.13204e-05 -9.66629e-06 0.00578187)
(5.58963e-06 -9.22081e-06 0.00577051)
(7.2518e-06 -1.04411e-05 0.0057799)
(8.70679e-06 -1.12309e-05 0.0057826)
(1.17854e-05 -1.18825e-05 0.00578375)
(7.6616e-06 -1.21571e-06 0.00578032)
(8.9137e-06 -2.59536e-06 0.00578032)
(9.68862e-06 -3.76495e-06 0.00577906)
(1.04605e-05 -4.6544e-06 0.00577783)
(6.88895e-06 -2.85515e-06 0.00577962)
(7.89033e-06 -3.97871e-06 0.00578065)
(8.83979e-06 -4.86249e-06 0.00577997)
(9.94859e-06 -5.43213e-06 0.0057791)
(5.82558e-06 -4.2251e-06 0.00577734)
(6.9467e-06 -5.18001e-06 0.00578088)
(8.2198e-06 -5.91342e-06 0.00578116)
(9.79138e-06 -6.30143e-06 0.00578056)
(4.74017e-06 -5.36876e-06 0.00576868)
(6.1474e-06 -6.03932e-06 0.00577851)
(7.67582e-06 -6.67907e-06 0.00578107)
(9.78378e-06 -7.14463e-06 0.00578119)
(5.89672e-06 -1.34172e-06 0.00577974)
(6.89804e-06 -2.15801e-06 0.00578013)
(7.67386e-06 -2.83026e-06 0.00577907)
(8.34668e-06 -3.33451e-06 0.0057777)
(5.37287e-06 -2.05965e-06 0.00577901)
(6.25495e-06 -2.78554e-06 0.00578034)
(7.1569e-06 -3.35695e-06 0.00577971)
(8.03378e-06 -3.73252e-06 0.00577857)
(4.66326e-06 -2.70013e-06 0.00577627)
(5.63344e-06 -3.30864e-06 0.00577999)
(6.71569e-06 -3.82966e-06 0.00578026)
(7.84597e-06 -4.1487e-06 0.00577941)
(3.99098e-06 -3.1812e-06 0.00576683)
(5.08561e-06 -3.58619e-06 0.00577674)
(6.289e-06 -4.07801e-06 0.00577929)
(7.68678e-06 -4.43491e-06 0.00577917)
(4.47736e-06 -1.21829e-06 0.00577887)
(5.24707e-06 -1.70365e-06 0.00577953)
(5.88227e-06 -2.09207e-06 0.00577871)
(6.37789e-06 -2.37631e-06 0.0057775)
(4.1417e-06 -1.50192e-06 0.00577811)
(4.84469e-06 -1.96608e-06 0.00577962)
(5.55993e-06 -2.33695e-06 0.00577914)
(6.18956e-06 -2.58946e-06 0.00577809)
(3.6814e-06 -1.76469e-06 0.00577511)
(4.43826e-06 -2.15835e-06 0.00577893)
(5.2509e-06 -2.52032e-06 0.0057793)
(6.02404e-06 -2.76833e-06 0.00577852)
(3.239e-06 -1.92199e-06 0.00576522)
(4.06103e-06 -2.18448e-06 0.00577517)
(4.93067e-06 -2.54761e-06 0.00577779)
(5.83973e-06 -2.827e-06 0.00577774)
(3.33914e-06 -1.00735e-06 0.00577802)
(3.91248e-06 -1.30122e-06 0.00577889)
(4.39424e-06 -1.52656e-06 0.00577829)
(4.73088e-06 -1.68141e-06 0.0057773)
(3.1289e-06 -1.09359e-06 0.00577722)
(3.65917e-06 -1.38969e-06 0.00577888)
(4.18932e-06 -1.63132e-06 0.00577858)
(4.61987e-06 -1.80333e-06 0.0057777)
(2.83803e-06 -1.17414e-06 0.00577407)
(3.3952e-06 -1.43068e-06 0.00577799)
(3.97486e-06 -1.67797e-06 0.0057785)
(4.48997e-06 -1.86503e-06 0.00577788)
(2.53873e-06 -1.17929e-06 0.00576391)
(3.13651e-06 -1.35823e-06 0.00577392)
(3.74157e-06 -1.61999e-06 0.00577666)
(4.32762e-06 -1.83457e-06 0.00577678)
(2.43288e-06 -7.85479e-07 0.0057773)
(2.84661e-06 -9.65153e-07 0.00577834)
(3.19292e-06 -1.0986e-06 0.00577793)
(3.42154e-06 -1.18439e-06 0.00577715)
(2.30552e-06 -7.86601e-07 0.00577646)
(2.68824e-06 -9.75572e-07 0.00577826)
(3.06326e-06 -1.13141e-06 0.00577812)
(3.35291e-06 -1.24649e-06 0.00577743)
(2.12196e-06 -7.87958e-07 0.00577322)
(2.51718e-06 -9.55913e-07 0.00577723)
(2.91786e-06 -1.12144e-06 0.00577788)
(3.25627e-06 -1.25619e-06 0.00577744)
(1.91791e-06 -7.34158e-07 0.00576291)
(2.3422e-06 -8.56862e-07 0.005773)
(2.75363e-06 -1.04072e-06 0.00577585)
(3.12899e-06 -1.19938e-06 0.00577614)
(1.712e-06 -5.79983e-07 0.00577675)
(1.99795e-06 -6.89234e-07 0.00577792)
(2.23352e-06 -7.69927e-07 0.00577766)
(2.39276e-06 -8.21752e-07 0.00577705)
(1.63709e-06 -5.52077e-07 0.00577588)
(1.90098e-06 -6.71874e-07 0.00577778)
(2.1537e-06 -7.69189e-07 0.00577777)
(2.34715e-06 -8.42859e-07 0.00577724)
(1.52143e-06 -5.26958e-07 0.00577257)
(1.79187e-06 -6.3483e-07 0.00577668)
(2.05962e-06 -7.41999e-07 0.00577744)
(2.27859e-06 -8.33038e-07 0.00577715)
(1.38521e-06 -4.61205e-07 0.00576218)
(1.67742e-06 -5.41253e-07 0.00577234)
(1.94908e-06 -6.65927e-07 0.00577529)
(2.18646e-06 -7.77188e-07 0.00577573)
(1.13229e-06 -3.9159e-07 0.00577635)
(1.31642e-06 -4.55643e-07 0.00577761)
(1.46592e-06 -5.02362e-07 0.00577747)
(1.57414e-06 -5.34644e-07 0.00577699)
(1.09032e-06 -3.62065e-07 0.00577545)
(1.26073e-06 -4.34159e-07 0.00577744)
(1.42054e-06 -4.91284e-07 0.00577753)
(1.54425e-06 -5.35223e-07 0.00577712)
(1.02055e-06 -3.3302e-07 0.00577211)
(1.19459e-06 -3.9933e-07 0.00577629)
(1.36294e-06 -4.65154e-07 0.00577714)
(1.4989e-06 -5.222e-07 0.00577696)
(9.33246e-07 -2.78192e-07 0.00576167)
(1.12306e-06 -3.2723e-07 0.00577189)
(1.29357e-06 -4.0645e-07 0.00577493)
(1.43788e-06 -4.78878e-07 0.00577546)
(6.66338e-07 -1.86235e-07 0.00577609)
(7.71368e-07 -2.1872e-07 0.00577741)
(8.56566e-07 -2.42197e-07 0.00577735)
(9.2228e-07 -2.60116e-07 0.00577695)
(6.46364e-07 -1.68015e-07 0.00577518)
(7.43865e-07 -2.05611e-07 0.00577722)
(8.34565e-07 -2.34658e-07 0.00577738)
(9.05005e-07 -2.57819e-07 0.00577704)
(6.09644e-07 -1.48309e-07 0.00577182)
(7.08918e-07 -1.83823e-07 0.00577604)
(8.03216e-07 -2.19936e-07 0.00577695)
(8.77899e-07 -2.52242e-07 0.00577685)
(5.60347e-07 -1.17145e-07 0.00576135)
(6.69025e-07 -1.43439e-07 0.00577161)
(7.6386e-07 -1.88268e-07 0.0057747)
(8.41917e-07 -2.30334e-07 0.00577531)
(3.52424e-07 8.5236e-08 0.00577593)
(4.08817e-07 7.67644e-08 0.00577729)
(4.55364e-07 6.90945e-08 0.00577727)
(4.90257e-07 6.07252e-08 0.00577692)
(3.49235e-07 8.66194e-08 0.00577503)
(3.99712e-07 7.44553e-08 0.0057771)
(4.45876e-07 6.27942e-08 0.0057773)
(4.80424e-07 5.12837e-08 0.00577702)
(3.37586e-07 8.37557e-08 0.00577167)
(3.86403e-07 7.0928e-08 0.00577592)
(4.31443e-07 5.48289e-08 0.00577687)
(4.65035e-07 3.79973e-08 0.00577681)
(3.16195e-07 7.7843e-08 0.0057612)
(3.69027e-07 6.84061e-08 0.00577149)
(4.11918e-07 4.78425e-08 0.00577461)
(4.4417e-07 2.58326e-08 0.00577526)
(-0.00129246 0.00042054 0.0127262)
(-0.000371027 -0.000194609 0.00479442)
(-0.00103676 0.00032495 0.0144454)
(-0.00012956 -4.94674e-05 0.00850895)
(-0.000634355 -0.000219941 0.00632697)
(-0.000856456 0.000748531 0.00769825)
(-0.000487812 0.000344336 0.00737268)
(-0.000132617 0.000405254 0.0102425)
(-0.000503511 0.000856543 0.00914586)
(-0.000575661 0.000652593 0.0100878)
(-0.00106944 0.00106089 0.00904861)
(-0.000181927 0.000239776 0.00842517)
(-0.000846676 0.000299699 0.00965577)
(-5.2389e-05 -0.000381155 0.00707976)
(-0.000883268 0.000485726 0.0108005)
(-0.000646851 -0.000146563 0.00863418)
(1.02661e-05 0.000345566 0.0199555)
(-0.000953582 0.000596257 0.0121916)
(0.00112822 -0.00014736 0.0104393)
(9.52716e-05 0.000452494 0.00299892)
(-0.000121426 0.00113469 0.0148642)
(-0.000166775 3.50985e-05 0.00360614)
(0.000235481 0.000725651 0.00698409)
(0.000194709 -0.000622987 0.00451423)
(-0.00031307 6.73367e-05 0.00592936)
(-0.000581584 0.00093619 0.0192356)
(-0.000442015 0.000418652 0.0123087)
(-0.000344498 -0.00101918 0.0103798)
(-6.0826e-05 0.000143725 0.0153598)
(-0.000446469 0.000369097 0.0090575)
(-0.000645682 -0.00061941 0.0127343)
(0.000327541 3.15732e-05 0.00878857)
(5.78484e-05 0.000535093 0.00504494)
(0.000295507 0.00239568 0.0156171)
(0.000469204 0.000566893 0.0139027)
(-0.000501506 0.00135039 0.0267037)
(9.22149e-05 0.0017852 0.0112463)
(4.5327e-05 0.000604714 0.0144457)
(-0.000225301 0.000232197 0.006554)
(-0.00113012 -6.08982e-05 0.0235037)
(-2.62853e-05 4.62463e-05 0.0147056)
(7.85878e-05 -0.000317053 0.00760202)
(0.000292983 -0.00037714 0.0196902)
(-0.00015308 0.000422727 0.00869247)
(-9.76085e-05 -0.000323556 0.0144328)
(-0.000338548 -0.000150385 0.0194062)
(0.000725988 -0.000330841 0.0136444)
(-0.000788531 0.000636544 0.011325)
(5.7136e-05 0.000201476 0.00891048)
(-0.000336463 -0.0002973 0.00909953)
(-0.000485679 -8.85282e-05 0.00681375)
(0.000505685 -0.000937994 0.0185181)
(0.000899926 -0.00241717 0.0204795)
(0.000236281 0.000967393 0.020068)
(-0.000609254 4.00657e-06 0.00940688)
(0.000530833 0.00120781 0.0108685)
(0.000560077 0.000257004 0.0130434)
(0.000103311 0.00153815 0.0185689)
(0.000615692 -0.000454662 0.0181632)
(-0.00011028 0.00121273 0.00995771)
(0.000544848 0.000697129 0.0171982)
(-0.000190324 0.000268977 0.0072429)
(0.000172075 -0.000502789 0.0114402)
(0.000174215 0.000231105 0.019592)
(0.000257452 -0.00280596 0.0294219)
(-0.000203987 -0.00119824 0.0116599)
(-0.000988473 0.000249072 0.0192619)
(0.000863022 0.00130564 0.013877)
(1.91773e-05 -0.000145642 0.00215999)
(0.0001074 -0.000306652 0.00872272)
(0.000742841 0.000374218 0.00931907)
(2.98442e-05 0.000644847 0.00728941)
(0.000164602 -0.000329121 0.00665778)
(0.000397669 0.000642882 0.0121162)
(0.00140734 5.91133e-05 0.0219099)
(0.000210212 0.000809292 0.0160983)
(0.000485584 0.000365832 0.0150826)
(0.000485057 0.000793766 0.0267611)
(0.000635513 -8.03854e-06 0.00706061)
(0.000415003 0.000948381 0.0120485)
(7.8126e-05 -7.15645e-05 0.000992182)
(0.000169442 0.000342229 0.00531395)
(0.000166602 0.000828786 0.00456142)
(-0.000375965 7.67788e-05 0.00322174)
(-0.000237783 -2.79481e-05 0.0125233)
(0.000436183 0.000156231 0.00883185)
(-2.28348e-05 -4.75632e-06 0.00628913)
(-0.000450326 0.00143867 0.0146569)
(0.000324491 -0.000409698 0.00763152)
(-0.000148041 0.000146592 0.00883912)
(0.00106923 0.000327601 0.0128411)
(2.20627e-05 -2.30785e-05 0.000531987)
(0.000868959 -3.21378e-05 0.0109627)
(0.00021996 0.000221986 0.00430914)
(2.40526e-05 0.00044878 0.00511225)
(0.000530764 -0.000214723 0.0162126)
(-0.00174757 0.00149128 0.0128845)
(7.33218e-05 2.93906e-05 0.00586631)
(0.000706417 0.00112293 0.0097563)
(0.000330355 0.000394204 0.00952824)
(-0.00154914 0.0018327 0.00655027)
(-0.000236318 -0.00021578 0.0069283)
(0.000168836 -9.01164e-05 0.0086058)
(0.000671747 -0.000368812 0.00388912)
(0.00291123 -5.19658e-05 0.0060291)
(3.99063e-05 -0.00021883 0.00752923)
(0.000127065 8.67102e-05 0.0108762)
(0.000196369 -0.000349264 0.00442331)
(-0.000113874 4.10937e-05 0.00910918)
(0.000250965 -6.45038e-05 0.0137638)
(0.00195399 0.00128329 0.00508707)
(-5.98934e-05 -0.000211959 0.0136561)
(-6.06661e-05 2.22643e-05 0.0138463)
(4.44543e-05 -0.000253168 0.00812662)
(-0.000163696 -0.000328181 0.0111188)
(-0.000328312 -0.000149546 0.0128586)
(-5.05869e-05 1.01437e-05 0.0142158)
(4.65062e-05 -0.000412536 0.010226)
(-0.000100486 -0.000189739 0.0124817)
(-0.000460484 -0.000424956 0.0115373)
(9.81105e-05 -0.000189961 0.0123624)
(0.000109027 -0.000547648 0.0127113)
(-0.000271432 3.19321e-05 0.0132858)
(-0.000121598 -0.000847224 0.0129932)
(-0.000211376 -0.00022411 0.01059)
(0.000128585 -0.000272947 0.0131672)
(-0.000146743 0.000175131 0.0091597)
(-0.000130623 -0.000446624 0.0144294)
(0.000407754 -0.000171224 0.003236)
(0.000411245 -0.000281569 0.00244053)
(-0.000304133 -0.000705251 0.00286797)
(-0.000150209 -0.000609221 0.00335955)
(0.000157501 2.63884e-05 0.00322107)
(0.000369441 -0.000452235 0.00282013)
(-0.000237509 -0.000363086 0.00322344)
(-0.000290615 -0.000310506 0.0033343)
(-0.000113995 7.31527e-05 0.00285879)
(0.000244538 -0.000418602 0.00322082)
(-0.000247052 0.000134338 0.00329803)
(-5.67769e-05 -0.000365523 0.00365619)
(-0.000180921 -6.35386e-05 0.00250866)
(0.000196466 -0.000132799 0.00338632)
(-0.000279293 0.000188007 0.00273421)
(-0.000124509 -0.00023808 0.00416095)
(3.33686e-05 -0.00012754 0.00687471)
(4.96557e-05 -0.00024169 0.00648732)
(-0.000181068 -0.000371125 0.00660287)
(-0.000110058 -0.000391518 0.0068456)
(-6.5055e-05 -7.77247e-05 0.00689752)
(1.81158e-05 -0.000266746 0.00664638)
(-0.000182067 -0.000236187 0.00676962)
(-0.0001194 -0.000253744 0.00695838)
(-0.000175799 -2.86069e-05 0.00672045)
(-4.58998e-05 -0.000191276 0.00677071)
(-0.000211701 -1.70419e-05 0.00675476)
(-4.89531e-05 -0.000186318 0.00702166)
(-0.000190819 -8.07191e-05 0.00647541)
(-7.78371e-05 -9.22441e-05 0.00674166)
(-0.000246292 1.84395e-05 0.00641884)
(-5.67165e-05 -9.26987e-05 0.00708569)
(4.26595e-05 -9.36298e-05 0.00559094)
(5.39369e-05 -0.000122165 0.00554448)
(-5.01304e-05 -0.000159316 0.00559784)
(-3.53721e-05 -0.000184004 0.0057102)
(1.22291e-06 -6.14537e-05 0.00556813)
(4.40768e-05 -0.000114416 0.00558594)
(-5.69869e-05 -0.000106164 0.00565365)
(-3.15613e-05 -0.000135607 0.00578064)
(-3.45346e-05 -5.05583e-05 0.00547059)
(2.54649e-05 -9.418e-05 0.00558263)
(-6.91266e-05 -4.66469e-05 0.00562007)
(-1.40378e-05 -0.000110254 0.00579368)
(-5.31694e-05 -5.29796e-05 0.00531288)
(8.44782e-07 -4.55986e-05 0.00548543)
(-8.75265e-05 -2.16995e-05 0.00543844)
(-1.55255e-05 -5.4159e-05 0.00573593)
(1.19242e-07 -4.71955e-05 0.00580194)
(7.93247e-06 -6.63496e-05 0.00578845)
(-1.89456e-05 -7.80053e-05 0.00580083)
(-2.02642e-06 -9.37223e-05 0.00584466)
(-1.60554e-05 -3.89459e-05 0.00577584)
(1.27778e-06 -6.10438e-05 0.00578861)
(-2.67038e-05 -5.69429e-05 0.0058065)
(-2.29386e-07 -7.5346e-05 0.00586587)
(-3.21685e-05 -2.8024e-05 0.00570297)
(-8.50516e-06 -4.38228e-05 0.0057491)
(-3.6474e-05 -2.76881e-05 0.00575826)
(3.05473e-06 -5.24506e-05 0.00584229)
(-3.9549e-05 -2.8464e-05 0.00558995)
(-2.03524e-05 -2.45413e-05 0.00565307)
(-4.64582e-05 -1.34026e-05 0.00563727)
(1.90917e-06 -2.14742e-05 0.00575966)
(1.28075e-06 -2.75004e-05 0.00575945)
(6.92179e-06 -3.46566e-05 0.00577778)
(-2.37713e-07 -3.81658e-05 0.00579029)
(9.79802e-06 -4.68497e-05 0.00581053)
(-5.67041e-06 -2.34248e-05 0.00572345)
(3.27172e-06 -3.10805e-05 0.0057596)
(-5.33621e-06 -2.95383e-05 0.00578002)
(9.88778e-06 -3.99822e-05 0.00581201)
(-1.16297e-05 -1.86642e-05 0.00565129)
(-1.21597e-06 -2.28378e-05 0.00570318)
(-1.1054e-05 -1.71902e-05 0.00572603)
(9.70811e-06 -2.80039e-05 0.00577223)
(-1.62098e-05 -1.57676e-05 0.00553737)
(-7.50077e-06 -1.23517e-05 0.00559218)
(-1.65779e-05 -7.94734e-06 0.00560749)
(8.20886e-06 -1.06883e-05 0.00566727)
(1.9921e-06 -1.50534e-05 0.00575466)
(5.93052e-06 -1.83825e-05 0.00577521)
(5.87035e-06 -2.00373e-05 0.00578432)
(1.24178e-05 -2.39655e-05 0.00579329)
(-1.68301e-06 -1.27967e-05 0.00571652)
(3.46404e-06 -1.63179e-05 0.00574974)
(2.85675e-06 -1.58502e-05 0.00576639)
(1.19329e-05 -2.09437e-05 0.00578324)
(-4.75098e-06 -9.94488e-06 0.00564551)
(7.618e-07 -1.18382e-05 0.00568777)
(-5.62654e-07 -9.64136e-06 0.00570961)
(1.08975e-05 -1.47279e-05 0.00573524)
(-7.37501e-06 -7.74837e-06 0.00553573)
(-2.91971e-06 -6.08672e-06 0.00557509)
(-3.98294e-06 -3.87089e-06 0.00559386)
(9.36755e-06 -5.23123e-06 0.00562453)
(2.79463e-06 -8.38741e-06 0.00574993)
(5.5466e-06 -9.95234e-06 0.00577093)
(7.19655e-06 -1.10725e-05 0.00577921)
(1.14541e-05 -1.2918e-05 0.00578343)
(6.42018e-07 -6.93638e-06 0.00571039)
(3.78099e-06 -8.60407e-06 0.00574195)
(5.31556e-06 -8.84603e-06 0.00575782)
(1.08498e-05 -1.12409e-05 0.0057675)
(-1.07467e-06 -5.11632e-06 0.00563906)
(1.97312e-06 -6.03999e-06 0.00567742)
(3.20935e-06 -5.38126e-06 0.00569937)
(9.82113e-06 -7.75548e-06 0.00571511)
(-2.64941e-06 -3.46409e-06 0.00552966)
(-2.15067e-07 -2.67543e-06 0.00556343)
(1.09891e-06 -1.65222e-06 0.0055837)
(8.59397e-06 -2.47003e-06 0.0056016)
(3.03352e-06 -4.6985e-06 0.00574654)
(5.01315e-06 -5.5435e-06 0.0057673)
(6.69344e-06 -6.33911e-06 0.00577521)
(9.43166e-06 -7.31405e-06 0.0057777)
(1.63446e-06 -3.6622e-06 0.00570634)
(3.72257e-06 -4.59174e-06 0.0057366)
(5.47543e-06 -5.00756e-06 0.00575208)
(8.86845e-06 -6.24292e-06 0.00575889)
(5.65092e-07 -2.45768e-06 0.00563483)
(2.46149e-06 -2.98465e-06 0.0056708)
(4.11547e-06 -2.94026e-06 0.0056927)
(8.02311e-06 -4.17806e-06 0.00570423)
(-4.11531e-07 -1.24966e-06 0.00552564)
(1.10258e-06 -9.15159e-07 0.00555621)
(2.78387e-06 -5.25493e-07 0.00557682)
(7.12434e-06 -1.13978e-06 0.00558927)
(2.87844e-06 -2.67252e-06 0.00574387)
(4.28906e-06 -3.16023e-06 0.00576439)
(5.6092e-06 -3.73579e-06 0.00577217)
(7.35339e-06 -4.32578e-06 0.00577417)
(1.91892e-06 -1.91794e-06 0.00570331)
(3.36818e-06 -2.45479e-06 0.00573283)
(4.77998e-06 -2.86949e-06 0.00574808)
(6.88177e-06 -3.59244e-06 0.00575392)
(1.19684e-06 -1.07268e-06 0.00563169)
(2.48492e-06 -1.41223e-06 0.00566641)
(3.87819e-06 -1.57264e-06 0.00568813)
(6.23632e-06 -2.31333e-06 0.0056981)
(5.61933e-07 -1.88746e-07 0.00552258)
(1.61538e-06 -7.0285e-08 0.00555154)
(3.02693e-06 6.08282e-09 0.00557206)
(5.5981e-06 -5.07836e-07 0.00558243)
(2.48396e-06 -1.54441e-06 0.00574181)
(3.49707e-06 -1.84672e-06 0.00576222)
(4.44942e-06 -2.25274e-06 0.00577)
(5.55294e-06 -2.64864e-06 0.00577198)
(1.81061e-06 -9.87928e-07 0.00570107)
(2.84124e-06 -1.31671e-06 0.0057302)
(3.87347e-06 -1.65904e-06 0.00574535)
(5.18074e-06 -2.13462e-06 0.00575098)
(1.31322e-06 -3.8586e-07 0.00562939)
(2.22411e-06 -6.13424e-07 0.00566347)
(3.26e-06 -8.20964e-07 0.00568505)
(4.70306e-06 -1.3182e-06 0.00569456)
(8.90249e-07 2.66421e-07 0.00552033)
(1.65681e-06 2.86165e-07 0.00554848)
(2.70618e-06 2.19306e-07 0.00556887)
(4.25889e-06 -2.10337e-07 0.00557855)
(2.01654e-06 -9.07853e-07 0.00574025)
(2.73677e-06 -1.10379e-06 0.00576065)
(3.40011e-06 -1.38435e-06 0.00576849)
(4.09805e-06 -1.66119e-06 0.0057706)
(1.5399e-06 -5.00224e-07 0.0056994)
(2.27422e-06 -7.08254e-07 0.00572837)
(2.99935e-06 -9.67005e-07 0.00574352)
(3.81602e-06 -1.29977e-06 0.00574919)
(1.19377e-06 -6.82042e-08 0.00562769)
(1.84546e-06 -2.21764e-07 0.00566148)
(2.57712e-06 -4.1362e-07 0.005683)
(3.46929e-06 -7.69276e-07 0.00569246)
(9.08477e-07 4.13404e-07 0.00551867)
(1.47242e-06 3.93531e-07 0.00554645)
(2.21227e-06 2.75892e-07 0.00556676)
(3.16312e-06 -7.36165e-08 0.00557628)
(1.55761e-06 -5.42209e-07 0.0057391)
(2.06229e-06 -6.68975e-07 0.00575954)
(2.51437e-06 -8.60836e-07 0.00576746)
(2.95555e-06 -1.05522e-06 0.00576972)
(1.22418e-06 -2.44718e-07 0.00569818)
(1.7404e-06 -3.79187e-07 0.00572711)
(2.23648e-06 -5.67273e-07 0.00574229)
(2.749e-06 -8.02963e-07 0.00574808)
(9.82052e-07 6.26902e-08 0.00562646)
(1.44536e-06 -4.34068e-08 0.00566012)
(1.94703e-06 -1.98677e-07 0.00568165)
(2.50256e-06 -4.55842e-07 0.00569118)
(7.8845e-07 4.12047e-07 0.00551746)
(1.19915e-06 3.79712e-07 0.00554508)
(1.70626e-06 2.59092e-07 0.00556537)
(2.29351e-06 -1.35916e-08 0.00557493)
(1.14121e-06 -3.27121e-07 0.00573828)
(1.48752e-06 -4.0621e-07 0.00575877)
(1.78629e-06 -5.34474e-07 0.00576677)
(2.06243e-06 -6.67578e-07 0.00576916)
(9.12817e-07 -1.14334e-07 0.00569731)
(1.26921e-06 -1.99959e-07 0.00572624)
(1.59806e-06 -3.31829e-07 0.00574148)
(1.91726e-06 -4.95356e-07 0.00574739)
(7.4647e-07 1.00637e-07 0.00562559)
(1.06963e-06 2.81174e-08 0.00565921)
(1.4033e-06 -8.85445e-08 0.00568076)
(1.74747e-06 -2.70225e-07 0.00569039)
(6.17659e-07 3.45805e-07 0.00551661)
(9.08479e-07 3.14135e-07 0.00554417)
(1.24602e-06 2.1139e-07 0.00556447)
(1.6077e-06 9.64725e-09 0.0055741)
(7.76187e-07 -1.90008e-07 0.00573773)
(1.00209e-06 -2.36134e-07 0.00575825)
(1.1892e-06 -3.17507e-07 0.00576632)
(1.35561e-06 -4.03543e-07 0.00576882)
(6.28484e-07 -4.62275e-08 0.00569673)
(8.61611e-07 -9.86944e-08 0.00572567)
(1.06836e-06 -1.85568e-07 0.00574096)
(1.26002e-06 -2.92845e-07 0.00574696)
(5.20425e-07 9.48935e-08 0.005625)
(7.33222e-07 4.7951e-08 0.00565861)
(9.43651e-07 -3.24773e-08 0.0056802)
(1.14951e-06 -1.53589e-07 0.00568991)
(4.38857e-07 2.56014e-07 0.00551603)
(6.32213e-07 2.30794e-07 0.00554358)
(8.45096e-07 1.54287e-07 0.00556391)
(1.06014e-06 1.58199e-08 0.00557361)
(4.71474e-07 -7.22057e-08 0.00573738)
(6.01162e-07 -9.63243e-08 0.00575794)
(7.04706e-07 -1.42517e-07 0.00576606)
(7.93793e-07 -1.92421e-07 0.00576862)
(3.87947e-07 8.47656e-09 0.00569636)
(5.21462e-07 -2.16067e-08 0.00572533)
(6.35979e-07 -7.31902e-08 0.00574065)
(7.37995e-07 -1.36534e-07 0.00574672)
(3.2628e-07 8.55456e-08 0.00562464)
(4.48363e-07 5.61529e-08 0.00565825)
(5.64854e-07 5.95997e-09 0.00567986)
(6.73676e-07 -6.67561e-08 0.00568964)
(2.80644e-07 1.73567e-07 0.00551568)
(3.9194e-07 1.53018e-07 0.00554322)
(5.09286e-07 1.02056e-07 0.00556357)
(6.21868e-07 1.73937e-08 0.00557333)
(2.78177e-07 7.8183e-08 0.00573723)
(3.39297e-07 6.80811e-08 0.00575781)
(3.84041e-07 4.45555e-08 0.00576595)
(4.18703e-07 1.75349e-08 0.00576855)
(2.42282e-07 9.83444e-08 0.00569621)
(3.03954e-07 8.08917e-08 0.00572518)
(3.5211e-07 5.08923e-08 0.00574053)
(3.90137e-07 1.50248e-08 0.00574664)
(2.15145e-07 1.17875e-07 0.00562448)
(2.70808e-07 9.39865e-08 0.00565811)
(3.18154e-07 5.94151e-08 0.00567974)
(3.56611e-07 1.61046e-08 0.00568954)
(1.95746e-07 1.42194e-07 0.00551552)
(2.45541e-07 1.15078e-07 0.00554307)
(2.90866e-07 7.54812e-08 0.00556345)
(3.2772e-07 2.4784e-08 0.00557324)
(0.000632287 0.00154531 0.00988677)
(-0.00135307 0.00198726 0.0174203)
(-0.00065912 0.000320179 0.0062365)
(0.000359292 0.000542749 0.0108404)
(0.000215929 0.000996239 0.00499301)
(-0.000503109 0.000867431 0.0102844)
(-0.000199618 0.00115375 0.00745608)
(0.000179616 0.00134182 0.00914083)
(-0.00105228 0.00105762 0.00978168)