FoamFile
{version 2.0; format ascii;class Cloud<passiveParticle>; location 0;object  positions;}
2495
(
( -0.0108923 -0.00401483 0.000499642 ) 0 
( -0.00506714 -0.0011458 0.000998507 ) 0 
( -0.00678303 -0.00689953 0.0029394 ) 0 
( -0.000965593 -0.00189441 0.00280229 ) 0 
( -0.013061 -0.00247873 0.000499461 ) 0 
( -0.00939844 -0.00442993 0.000499408 ) 0 
( -0.00305373 -0.00787077 0.00118498 ) 0 
( -0.00010432 -0.00572602 0.00456244 ) 0 
( -0.00875922 -0.00185067 0.0053413 ) 0 
( -0.00936654 -0.00378753 0.00150094 ) 0 
( -0.00913707 -0.00626568 0.00270649 ) 0 
( -0.00625881 -0.00313375 0.00270464 ) 0 
( -0.0106336 -0.00701041 0.00324572 ) 0 
( -0.00904363 -0.00167278 0.00641165 ) 0 
( -0.00389858 -0.00459983 0.00460367 ) 0 
( -0.00229162 -0.00784106 0.00668983 ) 0 
( -0.00221315 -0.00582747 0.00715244 ) 0 
( -0.00535987 -0.00778949 0.00715437 ) 0 
( -0.00256532 -0.00855811 0.00173627 ) 0 
( -0.00915803 -0.00240026 0.00389802 ) 0 
( -0.00211582 -0.00249939 0.000499416 ) 0 
( -0.00427939 -0.00832178 0.00466991 ) 0 
( -0.0041846 -0.000692603 0.000885496 ) 0 
( -0.00132177 -0.00784228 0.000499689 ) 0 
( -0.000527444 -0.00210812 0.00126219 ) 0 
( -0.00973492 -0.00788226 0.00512521 ) 0 
( -0.00868075 -0.00528406 0.000497032 ) 0 
( -0.00945645 -0.00705909 0.00670543 ) 0 
( -0.00984787 -0.00465332 0.00136391 ) 0 
( -0.0131247 -0.00242047 0.00247625 ) 0 
( -0.00604267 -0.00188035 0.000499783 ) 0 
( -0.00408621 -0.0119024 0.00531593 ) 0 
( -0.00204567 -0.0115044 0.00278521 ) 0 
( -0.00228403 -0.00678819 0.00441308 ) 0 
( -0.000696527 -0.0130247 0.00465479 ) 0 
( -0.00131113 -0.006333 0.00682523 ) 0 
( -0.00508469 -0.00989311 0.00268196 ) 0 
( -0.00665838 -0.000351942 0.00646327 ) 0 
( -0.00335748 -0.00472639 0.00691079 ) 0 
( -0.00405009 -0.00639713 0.000499629 ) 0 
( -0.0101383 -0.00181389 0.00303166 ) 0 
( -0.0116485 -0.00115299 0.00078891 ) 0 
( -0.000784594 -0.00963569 0.00229096 ) 0 
( -0.00780391 -0.00347125 0.00208238 ) 0 
( -0.00106394 -0.00325431 0.00527364 ) 0 
( -0.00138637 -0.00829837 0.00359327 ) 0 
( -0.00836865 -0.00202579 0.00438169 ) 0 
( -0.00125658 -0.00233184 0.00375507 ) 0 
( -0.00684686 -0.0096237 0.00479869 ) 0 
( -0.000784625 -0.00385937 0.00278899 ) 0 
( -0.00728887 -0.00463189 0.000499381 ) 0 
( -0.00463345 -0.00639236 0.00575109 ) 0 
( -0.00132702 -0.0101251 0.00160499 ) 0 
( -0.00667979 -0.0010629 0.000498295 ) 0 
( -0.011225 -0.00377632 0.00626201 ) 0 
( -0.00401332 -0.00569333 0.00124113 ) 0 
( -0.0120973 -0.0056456 0.00594898 ) 0 
( -0.00208528 -0.010725 0.00185658 ) 0 
( -0.00622895 -0.00933903 0.00126071 ) 0 
( -0.00326482 -0.000749446 0.000497788 ) 0 
( -3.30992e-05 -0.0118524 0.00488251 ) 0 
( -0.00455674 -0.0100608 0.00108942 ) 0 
( -0.00217611 -0.00975651 0.00446273 ) 0 
( -0.00912542 -0.00563546 0.00349697 ) 0 
( -0.00613552 -0.0118569 0.00501181 ) 0 
( -0.00292226 -0.0039085 0.00293627 ) 0 
( -0.00446299 -0.0125842 0.005939 ) 0 
( -0.00869727 -0.00665339 0.00351389 ) 0 
( -0.000677053 -0.0119497 0.00167039 ) 0 
( -0.00761775 -0.00497858 0.00430863 ) 0 
( -0.00558726 -0.00220001 0.00733291 ) 0 
( -0.00726483 -0.0112002 0.00362954 ) 0 
( -0.0121954 -0.0026779 0.00221232 ) 0 
( -0.00683877 -0.0109768 0.00226636 ) 0 
( -0.00334253 -0.00655559 0.00280457 ) 0 
( -0.00533023 -0.00155623 0.00329786 ) 0 
( -0.00555915 -0.00289797 0.00195744 ) 0 
( -0.0117373 -0.0063651 0.00220233 ) 0 
( -0.00257421 -0.00496696 0.000499702 ) 0 
( -0.00288644 -0.00337467 0.00209146 ) 0 
( -0.00217603 -0.0122866 0.00531609 ) 0 
( -0.00821657 -0.00156151 0.00350968 ) 0 
( -0.0125414 -0.0045552 0.002142 ) 0 
( -0.00302022 -0.00623242 0.00403141 ) 0 
( -0.00490113 -0.00123265 0.00500918 ) 0 
( -0.0048519 -0.00864499 0.00648421 ) 0 
( -0.00853172 -0.00300868 0.00258457 ) 0 
( -0.0103368 -0.00479712 0.00323226 ) 0 
( -0.000107543 -0.00323466 0.00317586 ) 0 
( -0.00953175 -0.00267057 0.000499787 ) 0 
( -0.00425383 -0.00516515 0.00695804 ) 0 
( -0.00452499 -0.00953637 0.00193658 ) 0 
( -0.00189041 -0.00038547 0.00733798 ) 0 
( -0.00141162 -0.00938988 0.00675998 ) 0 
( -0.0124291 -0.00170421 0.000498206 ) 0 
( -0.00465926 -0.0105107 0.00459411 ) 0 
( -0.00290778 -0.0130304 0.00290622 ) 0 
( -0.000248923 -0.00200041 0.00811113 ) 0 
( -0.00477526 -0.00164589 0.00750798 ) 0 
( -0.00495148 -0.00580107 0.00764706 ) 0 
( -0.00384329 -0.00265599 0.00715673 ) 0 
( -0.0105604 -0.00475185 0.00665776 ) 0 
( -0.01121 -0.00556689 0.00182654 ) 0 
( -0.00262626 -0.00424736 0.00435932 ) 0 
( -0.00283147 -0.0130469 0.00683508 ) 0 
( -0.00969819 -0.00665895 0.0034717 ) 0 
( -0.00751301 -0.00511999 0.0060192 ) 0 
( -0.00204282 -0.00354219 0.00395793 ) 0 
( -0.00670825 -0.00582274 0.00586706 ) 0 
( -0.00666489 -0.00656117 0.00660272 ) 0 
( -0.00150478 -0.00175077 0.0052331 ) 0 
( -0.00940672 -0.00551946 0.00113688 ) 0 
( -0.00705089 -0.0104744 0.00127931 ) 0 
( -0.00990442 -0.000843956 0.00296757 ) 0 
( -0.00948422 -0.00497225 0.00528159 ) 0 
( -0.00248096 -0.0113856 0.0069472 ) 0 
( -0.0101411 -0.00250851 0.00375744 ) 0 
( -0.00403939 -0.00359641 0.000498574 ) 0 
( -0.00217273 -0.00895148 0.00628474 ) 0 
( -0.00131541 -0.0114471 0.00346393 ) 0 
( -0.00901171 -0.00741718 0.00113881 ) 0 
( -0.00438139 -0.0060524 0.00288276 ) 0 
( -0.0104319 -0.00516413 0.00230712 ) 0 
( -0.00695157 -0.00838951 0.00122324 ) 0 
( -0.00544196 -0.00663613 0.00728957 ) 0 
( -0.0107798 -0.00787666 0.0066195 ) 0 
( -0.0119544 -0.00269178 0.00655729 ) 0 
( -0.00342072 -0.00932057 0.00539825 ) 0 
( -0.00196358 -0.0132049 0.00318393 ) 0 
( -0.00940113 -0.00156853 0.00240422 ) 0 
( -0.00610902 -0.00724513 0.00465119 ) 0 
( -0.00540548 -0.00672548 0.00397326 ) 0 
( -0.00267279 -0.0121754 0.00239421 ) 0 
( -0.000968481 -0.00511417 0.000499399 ) 0 
( -0.00959976 -0.000665271 0.0020329 ) 0 
( -0.00225407 -0.00609192 0.000497566 ) 0 
( -0.00750956 -0.0044855 0.00522946 ) 0 
( -0.0039592 -0.00661892 0.00359065 ) 0 
( -0.0109647 -0.0058799 0.00354666 ) 0 
( -0.010405 -0.00319792 0.00548163 ) 0 
( -0.00816412 -0.00263071 0.00514959 ) 0 
( -0.0132711 -0.00146015 0.00192447 ) 0 
( -0.0047396 -0.00619875 0.0067293 ) 0 
( -0.00965276 -0.000933525 0.00613012 ) 0 
( -0.00178492 -0.000343043 0.00049892 ) 0 
( -0.00958912 -0.00327985 0.00409007 ) 0 
( -0.000666164 -0.00476907 0.00755263 ) 0 
( -0.00896782 -0.00288192 0.00136004 ) 0 
( -0.00125651 -0.00882586 0.00590623 ) 0 
( -0.00139865 -0.00259747 0.00127051 ) 0 
( -0.00770011 -0.000998541 0.000499785 ) 0 
( -0.00188684 -0.00407271 0.00312618 ) 0 
( -0.00466772 -0.0125075 0.0036936 ) 0 
( -0.00273844 -0.00503535 0.00205848 ) 0 
( -0.00984325 -0.00340583 0.00231438 ) 0 
( -0.00541911 -0.000672112 0.00284313 ) 0 
( -0.00315205 -0.000707971 0.00551655 ) 0 
( -0.00491011 -0.000123337 0.00351528 ) 0 
( -0.00628928 -0.00348257 0.00676295 ) 0 
( -0.00111373 -0.0115699 0.000499743 ) 0 
( -0.00440415 -0.0108737 0.00578272 ) 0 
( -0.00514103 -0.00728635 0.00492751 ) 0 
( -0.00107336 -0.00210924 0.00732389 ) 0 
( -0.00969159 -0.00149449 0.00530121 ) 0 
( -0.0113863 -0.00201087 0.00609536 ) 0 
( -0.00379849 -0.0127984 0.00329491 ) 0 
( -0.00472892 -0.00600634 0.00381912 ) 0 
( -0.00321325 -0.010387 0.00127057 ) 0 
( -0.00362233 -0.0128495 0.00427643 ) 0 
( -0.00467205 -0.00599758 0.00192794 ) 0 
( -0.0103651 -0.00527993 0.00748225 ) 0 
( -0.00571167 -0.00753947 0.00282428 ) 0 
( -0.00492489 -0.0117004 0.00599718 ) 0 
( -0.00578657 -0.0108913 0.000499418 ) 0 
( -0.0112601 -0.00267636 0.00398349 ) 0 
( -0.0103129 -0.00675582 0.0050957 ) 0 
( -0.00933794 -0.00811206 0.00049816 ) 0 
( -0.00198167 -0.00636083 0.00796577 ) 0 
( -0.00298032 -0.00206602 0.00705943 ) 0 
( -0.0103621 -0.0038236 0.0015712 ) 0 
( -0.0062319 -0.00554131 0.00503416 ) 0 
( -0.0100633 -0.0011401 0.00122271 ) 0 
( -0.00321086 -0.00108027 0.00344337 ) 0 
( -0.00556124 -0.0111489 0.003131 ) 0 
( -0.00695241 -0.0022184 0.0034147 ) 0 
( -0.0115176 -0.00459817 0.00496331 ) 0 
( -0.0133171 -0.000950393 0.00445862 ) 0 
( -0.00173536 -0.0103598 0.00356678 ) 0 
( -0.00621554 -0.00393123 0.00330373 ) 0 
( -0.0109767 -0.0043465 0.00416245 ) 0 
( -0.00801327 -0.00785882 0.00700675 ) 0 
( -0.00321815 -0.00875247 0.000499748 ) 0 
( -0.00786248 -0.0045429 0.00131283 ) 0 
( -0.00669883 -0.0114639 0.0057381 ) 0 
( -0.0060574 -0.00288317 0.000499138 ) 0 
( -4.32741e-05 -0.00638149 0.00293615 ) 0 
( -0.0010267 -0.00581271 0.00589044 ) 0 
( -0.00469173 -0.0116388 0.0030798 ) 0 
( -0.00389567 -0.00166612 0.00703091 ) 0 
( -0.00897757 -0.00914334 0.00461577 ) 0 
( -0.0127439 -0.0039794 0.00135302 ) 0 
( -0.0099438 -0.00890818 0.00452626 ) 0 
( -0.00090789 -0.00130946 0.00840489 ) 0 
( -0.00182159 -0.00477082 0.0040838 ) 0 
( -0.000378879 -0.0025545 0.00547529 ) 0 
( -0.00760643 -0.0109731 0.00468884 ) 0 
( -0.00477464 -0.0110324 0.00117909 ) 0 
( -0.00293311 -0.00301251 0.00739422 ) 0 
( -0.00538162 -0.00772248 0.00402059 ) 0 
( -0.00711947 -0.00145073 0.00512072 ) 0 
( -0.0110288 -0.00564818 0.00611378 ) 0 
( -0.00667764 -0.00617172 0.00183197 ) 0 
( -0.00713138 -0.00794879 0.0040727 ) 0 
( -0.000257757 -0.013348 0.0068871 ) 0 
( -0.00924761 -0.00962906 0.00645365 ) 0 
( -0.00526955 -0.0103473 0.00640742 ) 0 
( -0.00370776 -0.0128258 0.00527117 ) 0 
( -0.00295902 -0.00274561 0.00540439 ) 0 
( -0.0107721 -0.00096366 0.00580921 ) 0 
( -0.0087891 -0.0034078 0.00481067 ) 0 
( -0.00269116 -0.00248036 0.00248828 ) 0 
( -0.0113641 -0.00486491 0.00340164 ) 0 
( -0.0114535 -0.0020889 0.000499384 ) 0 
( -0.00588218 -0.0119852 0.00598361 ) 0 
( -0.00542582 -0.0112559 0.00192979 ) 0 
( -8.68279e-05 -0.00886829 0.00049811 ) 0 
( -0.0125222 -0.00116393 0.00133341 ) 0 
( -0.0115659 -0.00666969 0.00313754 ) 0 
( -0.006664 -0.00778231 0.00248861 ) 0 
( -0.00435083 -0.00410103 0.00216084 ) 0 
( -0.0121393 -0.00555604 0.0038077 ) 0 
( -0.0025031 -0.00419883 0.00124088 ) 0 
( -0.00340317 -0.00492446 0.00279428 ) 0 
( -0.0077868 -0.00635078 0.000498456 ) 0 
( -0.00669725 -0.0106356 0.00630109 ) 0 
( -0.00888688 -0.00257598 0.00601522 ) 0 
( -0.00874242 -0.00647014 0.00616837 ) 0 
( -0.00212315 -0.00638856 0.00531374 ) 0 
( -0.000773296 -0.0125204 0.000497498 ) 0 
( -0.00645715 -0.00819348 0.00337609 ) 0 
( -0.00389109 -0.00310533 0.00299426 ) 0 
( -0.00260461 -0.00904881 0.00388815 ) 0 
( -1.60014e-05 -0.0111189 0.000496116 ) 0 
( -0.00310628 -0.00650786 0.000806039 ) 0 
( -0.005861 -0.0119964 0.00705063 ) 0 
( -0.00534001 -0.0122356 0.00215809 ) 0 
( -0.00218728 -0.00117105 0.00184411 ) 0 
( -0.00100551 -0.0066089 0.00307976 ) 0 
( -0.00434989 -0.0126221 0.00169496 ) 0 
( -0.0102057 -0.0086073 0.000499937 ) 0 
( -0.00436171 -0.00911308 0.0056628 ) 0 
( -0.0107948 -0.00314478 0.000982185 ) 0 
( -0.00399785 -0.00501839 0.00197757 ) 0 
( -0.00183913 -0.00168136 0.00425895 ) 0 
( -0.00856476 -0.00906145 0.00339278 ) 0 
( -0.00732969 -0.00991815 0.000498732 ) 0 
( -0.000661293 -0.00670242 0.00616122 ) 0 
( -0.00693654 -0.00273151 0.00641155 ) 0 
( -0.00500548 -0.00814187 0.00319489 ) 0 
( -0.00618034 -0.00697912 0.00214367 ) 0 
( -0.00252432 -0.000550322 0.00113784 ) 0 
( -0.00527623 -0.00545185 0.00128063 ) 0 
( -0.00960075 -0.00692866 0.000497508 ) 0 
( -0.00295024 -0.00648319 0.00746758 ) 0 
( -0.00741018 -0.00769111 0.00314777 ) 0 
( -0.00105848 -0.000836111 0.00667719 ) 0 
( -0.000162971 -0.0103723 0.00255378 ) 0 
( -0.0032875 -0.00481805 0.00124614 ) 0 
( -0.00988617 -0.00585336 0.00503798 ) 0 
( -0.00299631 -0.00129623 0.00448951 ) 0 
( -0.00389378 -0.00210959 0.00221252 ) 0 
( -0.00565691 -0.000689358 0.00385837 ) 0 
( -0.00757191 -0.00892966 0.00611476 ) 0 
( -0.00769579 -0.0060386 0.00636696 ) 0 
( -0.00151801 -0.00787387 0.00605851 ) 0 
( -0.00747376 -0.0100401 0.00699165 ) 0 
( -0.00640871 -0.00632365 0.00440528 ) 0 
( -0.000652991 -0.0125839 0.00243938 ) 0 
( -0.000181867 -0.0040075 0.00180055 ) 0 
( -0.00026237 -0.00237807 0.0036665 ) 0 
( -0.00906185 -0.00383439 0.00276909 ) 0 
( -0.00992981 -9.13164e-05 0.00567157 ) 0 
( -0.0106309 -0.00407469 0.00505948 ) 0 
( -0.0102689 -0.000931341 0.00389387 ) 0 
( -0.0109841 -0.00581911 0.000499924 ) 0 
( -0.00355643 -0.00229525 0.00627007 ) 0 
( -0.00121527 -0.0132948 0.00384043 ) 0 
( -0.00818746 -0.00526118 0.00192473 ) 0 
( -0.00544645 -0.00115628 0.00667159 ) 0 
( -0.00456225 -0.01255 0.00270059 ) 0 
( -0.0129719 -0.00281384 0.00638967 ) 0 
( -0.00323156 -0.00300557 0.000499783 ) 0 
( -0.00518047 -0.00681658 0.00219247 ) 0 
( -0.000283016 -0.00887757 0.00612234 ) 0 
( -0.00474753 -0.010817 0.00251814 ) 0 
( -0.0101284 -0.00377383 0.00319701 ) 0 
( -0.00465044 -0.00852668 0.00146651 ) 0 
( -0.00210835 -0.0123822 0.00701881 ) 0 
( -0.00261736 -0.00935006 0.00244266 ) 0 
( -0.0117782 -0.00111094 0.0028359 ) 0 
( -0.00304788 -0.0122424 0.000497767 ) 0 
( -0.00420635 -0.00915149 0.00715179 ) 0 
( -0.00431923 -0.00171362 0.00140023 ) 0 
( -0.00808512 -0.0014275 0.00655282 ) 0 
( -0.00590719 -0.00532763 0.00356504 ) 0 
( -0.00199105 -0.0132028 0.00161158 ) 0 
( -0.00274507 -0.0104531 0.00403054 ) 0 
( -0.00478252 -0.00189295 0.00654094 ) 0 
( -0.00884558 -0.0100002 0.000499147 ) 0 
( -0.0123902 -0.00497332 0.00527057 ) 0 
( -0.00155288 -0.00924238 0.00504867 ) 0 
( -0.0055549 -0.00748054 0.00154586 ) 0 
( -0.0113491 -0.00703226 0.00478792 ) 0 
( -0.0118297 -0.00377787 0.00544173 ) 0 
( -0.00321845 -0.01126 0.000498391 ) 0 
( -0.00757069 -0.00993305 0.00215247 ) 0 
( -0.00298419 -0.00974689 0.00328299 ) 0 
( -0.00773743 -0.00669769 0.00323805 ) 0 
( -0.0100481 -0.00735241 0.00433821 ) 0 
( -0.00248506 -0.0060057 0.00215735 ) 0 
( -0.0101548 -0.00866877 0.00292993 ) 0 
( -0.00861032 -0.00938312 0.00572438 ) 0 
( -0.0106138 -0.000967418 0.00203931 ) 0 
( -0.00579365 -0.00833302 0.00632861 ) 0 
( -0.0115198 -0.00482154 0.00241583 ) 0 
( -0.00651951 -0.00749044 0.00128552 ) 0 
( -0.00768507 -0.00349972 0.00678075 ) 0 
( -0.0080002 -0.00258528 0.0033181 ) 0 
( -0.00260288 -0.00597711 0.00314949 ) 0 
( -0.00164312 -0.00585372 0.00339511 ) 0 
( -0.00975456 -0.00440135 0.00232586 ) 0 
( -0.008244 -0.00736985 0.00269945 ) 0 
( -0.00301506 -0.00949016 0.0062958 ) 0 
( -0.00320308 -0.0096505 0.00441393 ) 0 
( -0.00125651 -0.00197971 0.000498679 ) 0 
( -0.00687553 -0.00370708 0.000761792 ) 0 
( -0.00597713 -0.00231749 0.00321643 ) 0 
( -0.00167463 -0.005 0.00599672 ) 0 
( -0.00691326 -0.00418088 0.00397529 ) 0 
( -0.00147872 -0.00355037 0.000915476 ) 0 
( -0.0028146 -0.0130498 0.00488313 ) 0 
( -0.00136555 -0.0132808 0.00238562 ) 0 
( -0.0010841 -0.008813 0.000498144 ) 0 
( -0.0106129 -0.00641106 0.0015454 ) 0 
( -0.00619275 -0.0018183 0.00663681 ) 0 
( -0.0121662 -0.00303899 0.0048586 ) 0 
( -0.0113665 -0.00294124 0.0057339 ) 0 
( -0.0106748 -0.000167871 0.00449567 ) 0 
( -0.000836262 -0.00221574 0.00465379 ) 0 
( -0.000541224 -0.0108239 0.00336157 ) 0 
( -0.00941629 -0.00330325 0.00558121 ) 0 
( -0.00488776 -0.0113642 0.00505799 ) 0 
( -0.00681185 -0.00906327 0.000498539 ) 0 
( -0.000791565 -0.00295541 0.000499658 ) 0 
( -0.00619182 -0.00726735 0.00365574 ) 0 
( -0.0115457 -0.00631814 0.00545744 ) 0 
( -8.90761e-05 -0.00558974 0.000499029 ) 0 
( -0.000205147 -0.00752139 0.00181737 ) 0 
( -0.0018675 -0.00779973 0.0028725 ) 0 
( -0.00328456 -0.00508408 0.00522681 ) 0 
( -0.002777 -0.00525181 0.00607172 ) 0 
( -0.000704104 -0.00587912 0.0037796 ) 0 
( -0.00638698 -0.00328604 0.00578823 ) 0 
( -0.00603664 -0.0100765 0.00580007 ) 0 
( -0.00220816 -0.0114647 0.000498532 ) 0 
( -0.0018195 -0.00742082 0.00379526 ) 0 
( -0.00573057 -0.00937691 0.00212366 ) 0 
( -0.00897732 -0.00622055 0.0052292 ) 0 
( -0.00859115 -0.00190294 0.00727186 ) 0 
( -0.000689371 -0.0100982 0.00628076 ) 0 
( -0.00773718 -0.00282328 0.00425176 ) 0 
( -0.00474506 -0.0112532 0.00687078 ) 0 
( -0.00753586 -0.00732338 0.00476711 ) 0 
( -0.00418149 -0.011636 0.00435896 ) 0 
( -0.00934353 -0.00148799 0.0035392 ) 0 
( -0.00214137 -0.00131271 0.000499783 ) 0 
( -0.00920615 -0.00746009 0.00381188 ) 0 
( -0.0114318 -0.00207039 0.0024227 ) 0 
( -0.00604452 -0.00983208 0.00677252 ) 0 
( -0.0123041 -0.00167432 0.0062986 ) 0 
( -0.00403627 -0.00822855 0.000736117 ) 0 
( -0.0046341 -0.00544747 0.00607885 ) 0 
( -0.00554895 -0.00581526 0.00435821 ) 0 
( -0.00827724 -0.00675215 0.00127226 ) 0 
( -0.00292441 -0.0130098 0.00190873 ) 0 
( -0.00766327 -0.000679334 0.00221697 ) 0 
( -0.00734103 -0.00339334 0.00353212 ) 0 
( -0.0114727 -0.00108028 0.00470804 ) 0 
( -0.00526588 -0.00114782 0.00197754 ) 0 
( -0.00389063 -0.00308427 0.00199616 ) 0 
( -0.00167923 -0.00822321 0.00738013 ) 0 
( -0.00467695 -0.00561805 0.000498702 ) 0 
( -0.010903 -3.67267e-05 0.00545771 ) 0 
( -0.000246132 -0.00430842 0.00561801 ) 0 
( -0.00236905 -0.00487228 0.00690144 ) 0 
( -0.0030779 -0.00606621 0.00505947 ) 0 
( -0.00236587 -0.00927542 0.000499759 ) 0 
( -0.0047735 -0.00381572 0.00561187 ) 0 
( -0.00862745 -0.000447836 0.00209995 ) 0 
( -0.00488285 -0.00642586 0.00104994 ) 0 
( -0.00598075 -0.0101216 0.00476476 ) 0 
( -0.00230056 -0.0103209 0.0027445 ) 0 
( -0.0104844 -0.00107819 0.00485855 ) 0 
( -0.00767474 -0.0090436 0.00259314 ) 0 
( -0.0100229 -0.00764367 0.00105218 ) 0 
( -0.00134809 -0.0032238 0.00331474 ) 0 
( -0.00681951 -0.0104742 0.00532211 ) 0 
( -0.00293935 -0.00833548 0.00611184 ) 0 
( -0.00291887 -0.000593613 0.00227177 ) 0 
( -0.00142133 -0.0124661 0.00125334 ) 0 
( -0.00328606 -0.00144674 0.00780169 ) 0 
( -0.00656763 -0.00606961 0.00345161 ) 0 
( -0.00152947 -0.00395077 0.00471037 ) 0 
( -0.0103834 -0.00254547 0.00472578 ) 0 
( -0.00377555 -0.00742905 0.00303668 ) 0 
( -0.0082344 -0.0105118 0.00377805 ) 0 
( -0.00230684 -0.000875507 0.00390021 ) 0 
( -0.00214457 -0.00329534 0.0079537 ) 0 
( -9.66405e-05 -0.00341213 0.00415958 ) 0 
( -0.0104726 -0.00233197 0.000499295 ) 0 
( -0.00405754 -0.00347781 0.00437606 ) 0 
( -0.00181372 -0.00148261 0.00657215 ) 0 
( -0.00100586 -0.00732261 0.00457517 ) 0 
( -0.00569667 -0.00375003 0.00523702 ) 0 
( -0.000393876 -0.00339982 0.00601033 ) 0 
( -0.00371099 -0.00677035 0.005683 ) 0 
( -0.011839 -4.36156e-06 0.00580026 ) 0 
( -0.00679085 -0.00888741 0.00412619 ) 0 
( -0.0124969 -0.00469599 0.00417025 ) 0 
( -0.00238597 -0.0122714 0.0014291 ) 0 
( -0.00223765 -0.00336858 0.00510626 ) 0 
( -0.00130673 -0.00662284 0.00142756 ) 0 
( -0.0125488 -0.00455793 0.00049907 ) 0 
( -0.00127684 -0.00821327 0.00510065 ) 0 
( -0.00996166 -0.002791 0.00140522 ) 0 
( -0.00317518 -0.0102488 0.00226809 ) 0 
( -0.00384502 -0.00194665 0.00319696 ) 0 
( -0.00656012 -0.0116273 0.00306338 ) 0 
( -0.0113657 -0.00489521 0.00049967 ) 0 
( -0.000455058 -0.00834881 0.00233193 ) 0 
( -0.00420024 -0.00567418 0.00520729 ) 0 
( -0.00856028 -0.00747891 0.00626228 ) 0 
( -0.000686911 -0.008903 0.00468529 ) 0 
( -0.00700706 -0.00415854 0.00639723 ) 0 
( -0.0043409 -0.00987174 0.00631319 ) 0 
( -0.00758795 -1.93813e-05 0.0063076 ) 0 
( -0.00823189 -0.00939694 0.00670252 ) 0 
( -0.0115425 -0.00401601 0.00182534 ) 0 
( -0.0017998 -0.00713802 0.00212782 ) 0 
( -0.0098225 -0.00239569 0.00571228 ) 0 
( -0.00802997 -0.00830854 0.00432524 ) 0 
( -0.00162778 -0.00928208 0.00377474 ) 0 
( -0.0104497 -0.0038069 0.00696058 ) 0 
( -0.00400062 -0.0110868 0.00354376 ) 0 
( -0.000691381 -0.00085004 0.00309637 ) 0 
( -0.00585975 -0.00656305 0.00129265 ) 0 
( -0.00613513 -0.00461966 0.00444309 ) 0 
( -0.00952893 -0.00444731 0.00649459 ) 0 
( -0.00756707 -0.00812055 0.00223196 ) 0 
( -0.00515025 -0.011662 0.000499459 ) 0 
( -0.00382651 -0.00485884 0.00603599 ) 0 
( -0.00703446 -0.000773422 0.00138622 ) 0 
( -0.00837966 -0.010395 0.00575377 ) 0 
( -0.00642687 -0.00173199 0.00760349 ) 0 
( -0.00270574 -0.0113257 0.00135287 ) 0 
( -0.00517938 -0.00801566 0.000789218 ) 0 
( -0.00356886 -0.0114525 0.00717972 ) 0 
( -0.000327022 -0.00839102 0.00134192 ) 0 
( -0.0117469 -0.00113511 0.00566751 ) 0 
( -0.00330848 -0.000572218 0.00731765 ) 0 
( -0.0107214 -0.00422866 0.0025051 ) 0 
( -0.0108633 -0.00566774 0.00512908 ) 0 
( -0.00734534 -0.00703326 0.00212359 ) 0 
( -0.0133497 -0.00020745 0.000558467 ) 0 
( -0.00725582 -0.000348727 0.0039405 ) 0 
( -0.0088629 -0.00539925 0.00462707 ) 0 
( -0.00499269 -0.00492617 0.00208175 ) 0 
( -0.00497891 -0.00878421 0.00240849 ) 0 
( -0.00718662 -0.00182201 0.00674276 ) 0 
( -0.0128873 -0.00348561 0.000498055 ) 0 
( -0.00682391 -0.00084058 0.00781125 ) 0 
( -0.00137304 -0.0124014 0.00310888 ) 0 
( -0.0081253 -0.00736811 0.000499675 ) 0 
( -0.00331093 -0.00169414 0.00551087 ) 0 
( -0.000571488 -0.00663667 0.00210507 ) 0 
( -0.0115014 -0.00499634 0.0068838 ) 0 
( -0.00921651 -0.000569097 0.00390454 ) 0 
( -0.00278123 -0.000336783 0.00466042 ) 0 
( -0.0124009 -0.000681824 0.00627224 ) 0 
( -0.00340481 -0.00865193 0.00344178 ) 0 
( -0.00217401 -0.000183452 0.00555726 ) 0 
( -0.00705028 -0.0041299 0.0017189 ) 0 
( -0.00789334 -0.00864528 0.00144118 ) 0 
( -0.00224045 -0.000462168 0.00299319 ) 0 
( -0.000247984 -0.00912461 0.00381632 ) 0 
( -0.00760346 -0.000903035 0.005844 ) 0 
( -0.00449503 -0.0125705 0.00467605 ) 0 
( -0.00640516 -0.0107144 0.00344018 ) 0 
( -0.000436279 -0.00601641 0.00133267 ) 0 
( -0.00604203 -0.00417646 0.00608308 ) 0 
( -0.00415767 -0.0080547 0.00371536 ) 0 
( -0.00208726 -0.00761418 0.00129908 ) 0 
( -0.00770823 -0.00259987 0.00721465 ) 0 
( -0.00717467 -0.00647313 0.00526796 ) 0 
( -0.000557755 -0.00122624 0.00218049 ) 0 
( -0.00926657 -0.00836165 0.003268 ) 0 
( -0.00271702 -0.0130745 0.000936733 ) 0 
( -0.0121768 -0.00547983 0.00205295 ) 0 
( -0.00228161 -0.00416093 0.00221303 ) 0 
( -0.00336759 -0.00424781 0.00206257 ) 0 
( -0.00459994 -0.00153017 0.00261654 ) 0 
( -0.00765732 -0.00461932 0.00337657 ) 0 
( -0.00553313 -0.00319719 0.00735026 ) 0 
( -0.00643819 -0.000291649 0.00549009 ) 0 
( -0.00717507 -0.00674335 0.00118214 ) 0 
( -0.0039156 -0.00157342 0.000498222 ) 0 
( -0.00271608 -0.00199165 0.00382904 ) 0 
( -0.00652922 -0.00268488 0.00732231 ) 0 
( -0.00343052 -0.00361788 0.00128997 ) 0 
( -0.00315449 -0.00882791 0.0070591 ) 0 
( -0.00238682 -0.00354304 0.000498015 ) 0 
( -0.00525214 -0.00524879 0.00687213 ) 0 
( -0.00695782 -0.00138375 0.00217346 ) 0 
( -0.00456009 -0.00475228 0.00533787 ) 0 
( -0.0132133 -0.00191086 0.00471028 ) 0 
( -0.00458236 -0.000177631 0.00257438 ) 0 
( -0.0108767 -0.00181473 0.00137472 ) 0 
( -0.00394433 -0.00775285 0.00210754 ) 0 
( -0.00303542 -0.00706408 0.00501077 ) 0 
( -0.000943503 -0.00451973 0.00140411 ) 0 
( -0.0121735 -0.00548387 0.00049772 ) 0 
( -0.00702417 -0.00741871 0.00622607 ) 0 
( -0.00415342 -0.00398057 0.00637781 ) 0 
( -0.00560423 -0.00601361 0.000497644 ) 0 
( -0.00674452 -0.00835687 0.00602039 ) 0 
( -0.00135022 -0.000181664 0.003439 ) 0 
( -0.00579849 -0.00769728 0.00555733 ) 0 
( -0.0059878 -0.000435096 0.00719987 ) 0 
( -0.00578693 -0.00646413 0.00290513 ) 0 
( -0.0123971 -0.00495956 0.00304337 ) 0 
( -0.0102038 -0.00860951 0.00150099 ) 0 
( -0.00377277 -0.00561212 0.00430819 ) 0 
( -0.00380458 -0.0065427 0.00665004 ) 0 
( -0.00404272 -0.00856619 0.00267804 ) 0 
( -0.0120321 -0.00358991 0.00258659 ) 0 
( -0.00197154 -0.00593386 0.00618961 ) 0 
( -0.00788405 -0.000500328 0.00317443 ) 0 
( -0.000886912 -0.00985124 0.00342485 ) 0 
( -0.00462434 -0.00258474 0.00348883 ) 0 
( -0.01014 -0.0057118 0.0040834 ) 0 
( -0.00800335 -0.010657 0.00049927 ) 0 
( -0.0100263 -0.0066807 0.0025276 ) 0 
( -0.00242163 -0.00948835 0.00547742 ) 0 
( -0.000445712 -0.00527346 0.00670447 ) 0 
( -0.00784603 -0.0090676 0.00516339 ) 0 
( -0.00199143 -0.00675804 0.00303183 ) 0 
( -0.00371494 -0.00769076 0.00606848 ) 0 
( -0.00113532 -0.00658798 0.00524268 ) 0 
( -0.00842897 -0.00503426 0.00562767 ) 0 
( -0.00257317 -0.00140387 0.00274447 ) 0 
( -0.000801112 -0.00285185 0.00256608 ) 0 
( -0.00929941 -0.00255118 0.0048754 ) 0 
( -0.00295443 -0.000145214 0.00368722 ) 0 
( -0.00458017 -0.00726682 0.00149402 ) 0 
( -0.005063 -0.00300173 0.000499782 ) 0 
( -0.00374219 -0.0128168 0.000926211 ) 0 
( -0.0131044 -0.00151886 0.00290726 ) 0 
( -0.00705833 -0.00383115 0.0026729 ) 0 
( -0.00883466 -0.00214708 0.0029873 ) 0 
( -0.0109115 -0.00462831 0.00134941 ) 0 
( -0.00364045 -0.011024 0.00515499 ) 0 
( -0.00677199 -0.00908187 0.00303904 ) 0 
( -0.00285457 -0.00521974 0.00433478 ) 0 
( -0.00988718 -0.00753538 0.00203307 ) 0 
( -3.43196e-05 -0.000149092 0.00480902 ) 0 
( -0.00781849 -0.00691023 0.00589437 ) 0 
( -0.0070579 -0.0110979 0.00049898 ) 0 
( -0.00839509 -0.0103814 0.00675071 ) 0 
( -0.012216 -0.00241316 0.00563409 ) 0 
( -0.00783784 -0.00279955 0.0012006 ) 0 
( -0.000697615 -0.0124394 0.00384482 ) 0 
( -0.00985228 -0.00631865 0.00592014 ) 0 
( -0.00362945 -0.00856246 0.00161621 ) 0 
( -0.00478103 -0.000401163 0.00446694 ) 0 
( -0.000548566 -0.00112242 0.00480325 ) 0 
( -0.00119477 -0.0034131 0.00823993 ) 0 
( -0.00785025 -0.00549422 0.00100798 ) 0 
( -0.00517465 -0.00340813 0.00335073 ) 0 
( -0.00782527 -0.001864 0.00569266 ) 0 
( -0.00476007 -0.00887503 0.000498603 ) 0 
( -0.00163917 -0.00687955 0.00605522 ) 0 
( -0.00448319 -0.00422031 0.003861 ) 0 
( -0.0040518 -0.00136005 0.00609152 ) 0 
( -0.00895045 -0.00990523 0.00743038 ) 0 
( -0.00699376 -0.00570308 0.00699272 ) 0 
( -0.00686867 -0.00315577 0.00461619 ) 0 
( -0.00739716 -0.00184139 0.00424466 ) 0 
( -0.0045976 -0.0045869 0.00122978 ) 0 
( -0.000732027 -0.0133311 0.00600751 ) 0 
( -0.00852963 -0.0026309 0.000498614 ) 0 
( -0.000523446 -0.00765872 0.00648467 ) 0 
( -0.00138136 -0.00656024 0.00405123 ) 0 
( -0.00690072 -0.00314714 0.00180822 ) 0 
( -0.00990847 -0.00174219 0.00435498 ) 0 
( -0.00277312 -0.00880176 0.00484137 ) 0 
( -0.00701792 -0.0057119 0.000499437 ) 0 
( -7.07586e-06 -0.00157098 0.00299153 ) 0 
( -0.00566173 -0.00595017 0.00205665 ) 0 
( -0.00797349 -0.00396311 0.00405655 ) 0 
( -0.00967923 -0.000490839 0.00479036 ) 0 
( -0.00879665 -0.00633046 0.000499783 ) 0 
( -0.00966913 -0.00673324 0.0014732 ) 0 
( -0.00128064 -0.00486542 0.00324958 ) 0 
( -0.00155663 -0.00128487 0.00761634 ) 0 
( -0.00573878 -0.00269513 0.00647812 ) 0 
( -0.0131777 -0.00214221 0.00568066 ) 0 
( -0.00433347 -0.00514264 0.00350893 ) 0 
( -0.00718056 -0.00253971 0.0053381 ) 0 
( -0.00673336 -0.00889534 0.00205754 ) 0 
( -0.0013446 -0.00166142 0.00162421 ) 0 
( -0.00587729 -0.00919078 0.00439513 ) 0 
( -0.0114014 -0.00287306 0.00301459 ) 0 
( -0.00775229 -0.00200342 0.000499633 ) 0 
( -0.000583905 -0.00306179 0.00161354 ) 0 
( -0.005467 -0.00444331 0.00372192 ) 0 
( -0.00205977 -0.000974096 0.00493032 ) 0 
( -0.00092096 -0.00919112 0.00140771 ) 0 
( -0.00542163 -0.00199251 0.0013915 ) 0 
( -0.00568295 -0.00646513 0.00510449 ) 0 
( -0.00187526 -0.0132178 0.00458675 ) 0 
( -0.0100019 -0.0060043 0.000498665 ) 0 
( -0.0117077 -0.00641166 0.0040918 ) 0 
( -0.00179791 -0.00928715 0.00187621 ) 0 
( -0.00179904 -0.0132284 0.00658471 ) 0 
( -0.0120001 -0.00487639 0.00127244 ) 0 
( -0.00888657 -0.00697249 0.00204547 ) 0 
( -0.00169835 -0.0122218 0.00218097 ) 0 
( -0.00272769 -0.0130699 0.00388769 ) 0 
( -0.00170216 -0.0024737 0.00663836 ) 0 
( -0.000236127 -0.00292694 0.00773835 ) 0 
( -0.0128796 -0.00346786 0.00310294 ) 0 
( -0.000563268 -0.0133393 0.00308468 ) 0 
( -0.0026679 -0.00287008 0.00435178 ) 0 
( -0.00795473 -0.00422632 0.00608551 ) 0 
( -0.00452206 -0.00722922 0.00414509 ) 0 
( -0.00349316 -0.00826738 0.00528328 ) 0 
( -0.011186 -0.00324601 0.00480051 ) 0 
( -0.0103097 -0.00483999 0.000497486 ) 0 
( -0.00574814 -0.000983555 0.00569572 ) 0 
( -0.00817967 -0.00682415 0.00691495 ) 0 
( -0.0119966 -0.00586169 0.00691882 ) 0 
( -0.00309334 -0.0119066 0.00520491 ) 0 
( -0.0067334 -0.00936065 0.00575589 ) 0 
( -0.00345533 -0.00266224 0.00377437 ) 0 
( -0.00897766 -0.00092734 0.00129565 ) 0 
( -0.00393423 -0.00217329 0.00802753 ) 0 
( -0.00209451 -0.003336 0.00695695 ) 0 
( -0.00511823 -0.010213 0.00542941 ) 0 
( -0.00222041 -0.00821204 0.00542882 ) 0 
( -0.00859218 -0.00321796 0.00381606 ) 0 
( -0.00644564 -0.00222536 0.00233586 ) 0 
( -0.0103048 -0.00495282 0.00471184 ) 0 
( -0.00316591 -0.00570636 0.00687784 ) 0 
( -0.000699091 -0.000423133 0.00550189 ) 0 
( -0.00780816 -0.00354072 0.00494456 ) 0 
( -0.0057908 -0.00542695 0.00604894 ) 0 
( -0.0101009 -0.00872926 0.00619504 ) 0 
( -0.00884189 -0.000805384 0.0030083 ) 0 
( -0.0129232 -0.00335415 0.00211092 ) 0 
( -0.0122264 -0.00312614 0.00132018 ) 0 
( -0.00631284 -0.0117636 0.000499198 ) 0 
( -0.00117356 -0.00104947 0.0008529 ) 0 
( -0.00148557 -0.0132643 0.000499792 ) 0 
( -0.00228154 -0.00305573 0.00136357 ) 0 
( -0.00807929 -0.00118 0.00500992 ) 0 
( -0.00543741 -0.00930203 0.00601089 ) 0 
( -0.00590952 -0.00842527 0.00237215 ) 0 
( -0.00618933 -0.00399723 0.00220659 ) 0 
( -0.00475931 -0.00262677 0.00769425 ) 0 
( -0.0081131 -0.00947681 0.000931198 ) 0 
( -0.00281968 -0.0110987 0.00599008 ) 0 
( -0.0030104 -0.0042838 0.00598151 ) 0 
( -0.00541162 -0.0120461 0.0041769 ) 0 
( -0.00794885 -0.0011762 0.00750994 ) 0 
( -0.00345798 -0.000288525 0.00637075 ) 0 
( -0.000576633 -0.00804566 0.00760985 ) 0 
( -0.0124877 -0.000646923 0.00518412 ) 0 
( -0.00378778 -0.00657472 0.00457372 ) 0 
( -0.0035899 -0.00582627 0.0059818 ) 0 
( -0.00554535 -0.0121453 0.003191 ) 0 
( -0.0084004 -0.00340309 0.00573724 ) 0 
( -0.00564755 -0.00495065 0.000499659 ) 0 
( -0.00948482 -0.00842765 0.00222998 ) 0 
( -0.00230504 -0.00664071 0.00138814 ) 0 
( -0.00546073 -0.00419871 0.00154972 ) 0 
( -0.00937851 -0.00168197 0.000499059 ) 0 
( -0.00740494 -0.00499778 0.0024882 ) 0 
( -0.0112756 -0.00530125 0.00429748 ) 0 
( -0.00839809 -0.00432635 0.000498418 ) 0 
( -0.000541842 -0.00126864 0.00741471 ) 0 
( -0.00391632 -0.0040904 0.00744151 ) 0 
( -0.000103486 -0.00620599 0.00682347 ) 0 
( -0.000963629 -0.012644 0.00683365 ) 0 
( -2.1734e-05 -0.0102866 0.00556127 ) 0 
( -0.00548115 -0.00270554 0.00399286 ) 0 
( -0.00998668 -0.0042833 0.00404331 ) 0 
( -0.0105958 -0.00682956 0.000499788 ) 0 
( -0.000182969 -0.00787405 0.000498963 ) 0 
( -0.0105771 -0.00814759 0.00465757 ) 0 
( -0.00667149 -0.0012308 0.00598682 ) 0 
( -0.00322429 -0.00363188 0.00384707 ) 0 
( -0.00769951 -0.00799948 0.00577218 ) 0 
( -0.00807448 -0.00931676 0.00422402 ) 0 
( -0.00575853 -0.00889926 0.000498616 ) 0 
( -0.0126841 -0.00405618 0.00500249 ) 0 
( -0.00737497 -0.00342004 0.00583499 ) 0 
( -0.00561145 -0.00711858 0.000499583 ) 0 