/*--------------------------------*- C++ -*----------------------------------*\
| =========                 |                                                 |
| \\      /  F ield         | OpenFOAM: The Open Source CFD Toolbox           |
|  \\    /   O peration     | Version:  2506                                  |
|   \\  /    A nd           | Website:  www.openfoam.com                      |
|    \\/     M anipulation  |                                                 |
\*---------------------------------------------------------------------------*/
FoamFile
{
    version     2.0;
    format      ascii;
    arch        "LSB;label=32;scalar=64";
    class       volScalarField;
    location    "0.01";
    object      p;
}
// * * * * * * * * * * * * * * * * * * * * * * * * * * * * * * * * * * * * * //

dimensions      [0 2 -2 0 0 0 0];

internalField   nonuniform List<scalar> 
512
(
-0.202491
-0.455039
-0.419849
-0.361953
-0.572968
-0.687517
-0.450713
-0.159051
-0.173932
-0.354976
-0.277977
-0.230811
-0.35831
-0.281945
-0.189051
-0.218531
-0.264431
-0.101679
0.174261
0.326173
0.272898
0.137329
-0.0563833
0.0448862
0.198177
0.0729294
-0.0841811
-0.00627723
0.0916992
0.114414
0.0811588
-0.00987645
-0.248623
-0.33783
-0.249068
-0.244907
-0.598484
-0.866959
-0.503409
-0.153283
-0.169469
-0.332068
-0.346634
-0.296539
-0.353567
-0.236787
-0.101676
-0.201259
-0.203047
0.0181096
0.181983
0.191713
0.157809
0.149271
0.0664258
0.0701783
0.177856
0.117819
-0.00627678
-0.000734842
0.0606643
0.0741523
-0.0621058
-0.118432
-0.334929
-0.365597
-0.175945
-0.294861
-0.551739
-0.61676
-0.506007
-0.27107
-0.227399
-0.349126
-0.40156
-0.331911
-0.39259
-0.314596
-0.0517325
0.0128194
-0.0791526
0.0290208
0.139826
0.0816945
-0.0042036
0.115734
0.123521
0.0641073
0.10974
0.0715321
-0.0348989
0.00560899
0.0589491
0.0761024
-0.0290669
-0.186451
-0.380075
-0.505595
-0.242267
-0.145965
-0.356962
-0.604801
-0.496372
-0.335018
-0.360702
-0.408823
-0.46201
-0.447659
-0.339102
-0.0995426
0.0446669
0.0280452
-0.0676239
0.015357
0.169738
0.145396
0.0783353
0.0402842
0.0286389
0.0602481
0.0311567
-0.0646386
-0.0525984
0.0251013
0.029379
0.0691879
0.0444442
-0.104377
-0.207372
-0.298319
-0.334559
-0.338446
-0.388636
-0.426941
-0.347954
-0.379946
-0.408009
-0.429111
-0.484042
-0.470077
-0.345074
-0.0734247
-0.00256141
-0.0177513
-0.0520793
-0.00764779
0.135857
0.136171
0.0279495
0.0297923
0.0863526
0.0843281
0.0104563
0.0580483
0.124609
-0.046485
-0.187428
-0.0382996
-0.0512863
-0.153857
-0.364157
-0.252837
-0.20963
-0.174809
-0.237507
-0.424763
-0.513205
-0.446799
-0.457928
-0.548583
-0.566546
-0.414874
-0.258844
-0.14121
0.00128071
0.0471828
0.00142047
0.00696625
0.0658958
0.100177
0.131538
0.0858103
-0.0380417
-0.0657375
0.0236103
0.125701
0.207389
0.105675
-0.0754591
-0.130605
-0.0751107
-0.245963
-0.374071
-0.427872
-0.14664
0.152504
-0.0385559
-0.549779
-0.686433
-0.462478
-0.445585
-0.614611
-0.52991
-0.390862
-0.302982
-0.136884
0.0962101
0.0120038
-0.103419
0.0323534
0.134406
0.0838404
0.0544878
-0.0364454
-0.101411
-0.0611111
0.0873998
0.10658
0.149983
0.131928
-0.110382
-0.23578
-0.0790051
-0.0431752
-0.428848
-0.410848
-0.133856
0.119308
-0.0831747
-0.610978
-0.704976
-0.280469
-0.364836
-0.710822
-0.468525
-0.276673
-0.248956
-0.126376
0.00581063
-0.106551
-0.0756502
0.0843062
0.123344
0.00522637
-0.0906895
-0.148908
-0.0440692
-0.0283317
0.109134
0.358142
0.446576
0.11173
-0.243834
-0.204963
-0.0543181
-0.0954108
-0.291958
-0.493103
-0.339794
-0.212777
-0.43323
-0.505184
-0.455143
-0.215132
-0.233635
-0.504464
-0.388479
-0.260489
-0.419913
-0.312797
0.0696851
0.107339
-0.0541592
-0.1731
0.132546
0.292488
0.144863
0.00324714
-0.154742
-0.217681
-0.0555968
0.0850865
0.0709135
0.0665807
0.0500682
0.0948293
0.121412
-0.0398252
-0.287485
-0.470531
-0.305561
-0.221358
-0.408022
-0.450363
-0.466887
-0.273299
-0.297959
-0.534913
-0.468825
-0.222867
-0.222871
-0.232302
-0.048628
0.0451046
-0.103665
-0.154931
0.140134
0.228755
0.0811547
0.0276942
-0.0742914
-0.174241
-0.0224685
0.139535
0.107759
0.0641149
0.0758322
0.0670601
-0.0165731
-0.120288
-0.348452
-0.419576
-0.178815
-0.196087
-0.335651
-0.308098
-0.36259
-0.262994
-0.353609
-0.632427
-0.488584
-0.279025
-0.278143
-0.244814
-0.0335642
0.0588703
-0.0167792
-0.00494973
0.0289164
0.0103953
0.0267497
0.132529
0.077496
-0.029414
-0.0344163
0.128839
0.101694
0.00200766
0.0472008
0.0205194
-0.0857305
-0.188263
-0.410336
-0.456709
-0.13988
-0.141514
-0.242824
-0.268406
-0.274397
-0.213378
-0.36451
-0.661009
-0.710187
-0.48348
-0.154349
-0.0798601
-0.0149686
0.0337708
-0.000813416
-0.0157105
-0.0130821
0.0923704
0.187941
0.124901
-0.00704126
-0.0446467
0.0265156
0.127999
0.0905074
0.0192527
0.0714427
0.0808462
-0.104133
-0.228631
-0.357555
-0.212371
-0.119429
-0.212572
-0.335902
-0.359406
-0.375874
-0.355551
-0.455322
-0.545213
-0.461538
-0.335555
-0.234682
-0.128456
-0.0398402
-0.004704
-0.0430534
0.0281695
0.129177
0.12881
0.0294749
-0.0589544
-0.0756079
-0.0549125
0.03959
0.0994548
0.162567
0.0689589
-0.0831046
-0.0956191
-0.131827
-0.265335
-0.399415
-0.299474
-0.227652
-0.0593115
0.00182886
-0.343262
-0.665975
-0.687607
-0.471387
-0.378151
-0.329483
-0.323558
-0.336844
-0.172202
0.10639
0.081051
-0.0783805
0.0111569
-0.0473148
-0.0691621
0.0527427
0.0756625
-0.0240279
-0.0683946
0.0846763
0.217004
0.217653
0.0656862
-0.106998
-0.184865
-0.159721
-0.252558
-0.380291
-0.373224
-0.165249
0.108261
0.089478
-0.483702
-0.876436
-0.591526
-0.418254
-0.442218
-0.400888
-0.332435
-0.377939
-0.263196
0.0240652
0.0731672
-0.0716605
-0.0664
0.0190464
0.0121139
-0.00562863
-0.0174448
0.00665226
-0.0192975
0.0488
0.220877
0.243029
0.0765745
-0.148207
-0.237886
-0.0655122
-0.0596399
-0.407804
-0.496578
-0.221629
0.00685819
-0.0241859
-0.371732
-0.603594
-0.461928
-0.414498
-0.446211
-0.362318
-0.252052
-0.25672
-0.276484
-0.0851034
0.0708754
-0.011937
-0.095486
-0.0590342
-0.115697
-0.187307
-0.0952254
0.119973
0.185101
0.151982
0.20616
0.315678
0.127579
-0.177566
-0.190856
-0.13294
-0.160421
)
;

boundaryField
{
    wall
    {
        type            zeroGradient;
    }
    outlet
    {
        type            cyclic;
    }
    inlet
    {
        type            cyclic;
    }
    procBoundary1to0
    {
        type            processor;
        value           nonuniform List<scalar> 
256
(
-0.187234
-0.498718
-0.605668
-0.364632
-0.331428
-0.465697
-0.512535
-0.357186
-0.379513
-0.555886
-0.379954
-0.203259
-0.098402
-0.12868
-0.138913
-0.198994
-0.259847
-0.124444
0.170398
0.403464
0.378997
0.163644
-0.0148394
-0.0637667
0.052865
-0.0666051
-0.153511
0.0299314
0.18721
0.234662
0.125215
-0.00390896
-0.204745
-0.402072
-0.53299
-0.39816
-0.406919
-0.516669
-0.540495
-0.322216
-0.271284
-0.519294
-0.435311
-0.280764
-0.193007
-0.124994
-0.11608
-0.151397
-0.0888569
0.146298
0.157942
0.140258
0.155832
0.149755
0.0453637
-0.0139203
0.067294
0.0243626
-0.0464364
0.0534717
0.109529
0.0932676
0.0204284
-0.0553385
-0.331685
-0.31776
-0.327869
-0.371974
-0.417342
-0.424054
-0.434442
-0.289937
-0.360679
-0.590932
-0.615077
-0.433784
-0.318306
-0.154175
-0.030615
-0.00970184
0.046365
0.214439
0.24688
0.110008
-0.0133781
0.118488
0.233154
0.13281
0.081364
0.101647
0.0907722
0.0513177
0.00203568
-0.0487168
-0.125051
-0.253649
-0.343149
-0.367276
-0.319421
-0.309859
-0.359422
-0.42358
-0.281572
-0.172339
-0.441431
-0.75598
-0.464473
-0.395316
-0.418906
-0.02208
0.071455
0.039348
0.0784036
0.123885
0.0253565
-0.118587
-0.118212
0.122743
0.250406
0.125029
0.00878637
0.0909821
0.171076
0.0786758
-0.14309
-0.0961177
0.0193872
-0.162358
-0.322187
-0.542115
-0.37069
-0.147469
-0.245764
-0.446554
-0.416736
-0.420057
-0.605395
-0.618838
-0.412125
-0.396871
-0.379826
-0.138314
-0.0133766
0.0490172
0.128505
0.0982947
0.0376851
0.0433803
0.00281187
0.0798394
0.150065
0.0612722
0.0221444
0.12028
0.109173
-0.118773
-0.214532
0.00885385
0.0706625
-0.0432278
-0.232527
-0.344145
-0.19749
-0.100269
-0.311378
-0.419873
-0.376615
-0.395822
-0.613404
-0.659654
-0.372824
-0.289691
-0.349129
-0.275209
-0.114484
0.0145493
0.143148
0.196729
0.109602
0.0434949
0.0427854
0.0106742
-0.064134
-0.0918015
-0.0178063
0.145042
0.253416
0.140334
-0.109972
-0.177074
-0.0539234
-0.0275087
-0.225324
-0.223701
-0.104574
0.118814
0.0434346
-0.335153
-0.807202
-1.03511
-0.915642
-0.647239
-0.310142
-0.316921
-0.407535
-0.268363
-0.0828323
-0.00478231
0.0657129
0.0965814
0.170601
0.205408
0.109741
0.000373266
-0.137274
-0.26406
-0.0766977
0.147807
0.268666
0.172387
-0.17375
-0.285328
-0.0661102
-0.0141652
-0.350876
-0.461133
-0.175168
0.231431
0.120099
-0.421782
-0.745732
-0.725405
-0.791321
-0.658866
-0.37706
-0.306673
-0.298757
-0.146902
-0.0200231
0.0482716
0.0671555
0.0573114
0.159373
0.177632
0.0645085
-0.0266525
-0.089446
-0.380584
-0.153735
0.394812
0.541875
0.17989
-0.195283
-0.208855
-0.0670367
-0.053077
)
;
    }
    procBoundary1to2
    {
        type            processor;
        value           nonuniform List<scalar> 
256
(
-0.269787
-0.303028
-0.397308
-0.461792
-0.36718
-0.262428
-0.211009
-0.105587
-0.380097
-0.610548
-0.399258
-0.213887
-0.316963
-0.308614
-0.184472
-0.098509
0.0580246
0.173036
0.138142
0.199594
0.186615
0.143592
0.0606762
-0.191782
-0.127601
0.125957
0.140732
-0.023278
0.0558928
0.14314
-0.0454697
-0.265138
-0.102096
-0.306157
-0.384972
-0.374823
-0.483068
-0.474807
-0.262525
-0.192068
-0.463585
-0.682908
-0.423379
-0.203487
-0.231161
-0.221383
-0.0929937
-0.0143854
0.00467643
0.00710894
0.0718906
0.127343
0.13265
0.161389
0.114704
-0.0711003
-0.0862898
0.129709
0.146374
-0.039946
-0.0246684
0.0405211
-0.0639711
-0.106949
-0.290592
-0.365246
-0.170148
-0.142879
-0.456246
-0.497927
-0.279771
-0.178178
-0.463209
-0.61395
-0.386475
-0.210663
-0.274473
-0.311506
-0.144995
0.083603
-0.0188625
-0.190828
0.0649476
0.236271
0.191233
0.170442
0.142994
-0.0114404
-0.0555427
0.0263005
-0.0719884
-0.0662861
0.0994038
0.0524431
-0.100571
-0.162411
-0.449744
-0.435711
-0.191097
-0.115322
-0.325535
-0.413063
-0.238188
-0.124771
-0.374548
-0.61828
-0.629477
-0.309883
-0.116913
-0.14308
-0.0765548
0.0759892
-0.00831398
-0.136839
-0.0872564
0.114286
0.196149
0.132804
0.0336797
-0.0597263
-0.0448441
0.0591725
0.0417297
0.0291108
0.0794168
0.0419483
-0.06254
-0.24446
-0.201728
-0.234941
-0.220555
-0.174359
-0.307242
-0.501621
-0.394253
-0.266252
-0.359929
-0.533285
-0.57111
-0.305482
-0.158793
-0.236554
-0.0794918
0.0914103
0.0843435
-0.0238747
-0.0751156
0.150891
0.323399
0.180736
-0.0532926
-0.19793
-0.0643582
0.151193
0.156791
0.0303528
-0.076778
-0.234613
-0.259384
-0.270189
-0.366685
-0.283856
-0.226257
-0.0391061
0.00593916
-0.297284
-0.48193
-0.420938
-0.400919
-0.418328
-0.390892
-0.367786
-0.284599
-0.131451
0.125607
0.104099
-0.178022
-0.276826
-0.0844382
0.0592175
0.0862128
0.02803
-0.0216132
-0.0685712
-0.0561805
0.0384954
0.1258
0.132531
0.0792273
-0.0928157
-0.355335
-0.415805
-0.345349
-0.403331
-0.263168
-0.0554239
-0.0460316
-0.331082
-0.540226
-0.541513
-0.426455
-0.41859
-0.572274
-0.463066
-0.297925
-0.0365698
0.170713
0.199081
-0.0213485
-0.140872
-0.0276093
0.051408
-0.0213937
0.0425649
0.0632266
0.0033356
0.032993
0.117769
0.205615
0.10435
-0.0824114
-0.202806
-0.260308
-0.25667
-0.508663
-0.568038
-0.255521
0.067897
0.0108094
-0.291488
-0.484409
-0.505984
-0.466843
-0.361606
-0.512351
-0.511265
-0.115145
0.0105686
0.0144511
0.0235427
-0.129685
-0.136483
-0.0113874
0.0172694
-0.0814607
-0.0917066
0.0657096
0.125915
0.0827331
0.156156
0.154551
0.0248983
-0.026186
-0.0642944
-0.113992
-0.238252
)
;
    }
}


// ************************************************************************* //
