/*--------------------------------*- C++ -*----------------------------------*\
| =========                 |                                                 |
| \\      /  F ield         | OpenFOAM: The Open Source CFD Toolbox           |
|  \\    /   O peration     | Version:  2506                                  |
|   \\  /    A nd           | Website:  www.openfoam.com                      |
|    \\/     M anipulation  |                                                 |
\*---------------------------------------------------------------------------*/
FoamFile
{
    version     2.0;
    format      ascii;
    arch        "LSB;label=32;scalar=64";
    class       surfaceScalarField;
    location    "0.01";
    object      phi;
}
// * * * * * * * * * * * * * * * * * * * * * * * * * * * * * * * * * * * * * //

dimensions      [0 3 -1 0 0 0 0];

oriented        oriented;

internalField   nonuniform List<scalar> 
1200
(
0.00154399
-1.6635e-06
-6.26541e-07
0.00154216
-2.63179e-07
1.51771e-06
0.00154132
1.00599e-06
9.99354e-07
0.00154106
9.24861e-07
-1.98722e-07
0.0015382
1.35812e-06
1.32612e-06
0.00153622
2.67264e-06
2.33487e-06
0.00153804
2.20865e-06
3.8826e-07
0.00154318
-2.98981e-07
-4.00738e-06
0.00154848
-1.36328e-06
-5.55838e-06
0.00154615
-1.26766e-06
1.6477e-06
0.0015393
7.66573e-07
2.06185e-06
0.00153424
6.08297e-07
-3.61959e-07
0.0015357
-7.31464e-07
1.20964e-06
0.00153905
-7.72377e-07
4.45958e-06
0.00154134
4.73485e-07
2.71251e-06
0.00154105
3.53802e-06
-5.09059e-06
0.00153949
2.25317e-06
-4.87811e-06
0.00154054
-1.47505e-06
-1.67945e-06
0.00154326
-1.47076e-06
-1.11925e-06
0.00154627
-4.2453e-07
-2.09239e-06
0.00154591
6.14003e-07
-7.44163e-07
0.00154081
6.62782e-07
1.12048e-06
0.00153578
-1.42481e-08
9.74582e-07
0.00153669
-1.14826e-06
-1.18362e-06
0.00153811
-6.41318e-07
-1.24296e-06
0.00153549
5.85004e-07
9.75198e-07
0.00153507
5.19529e-07
1.94808e-07
0.00153652
1.7587e-07
7.12269e-07
0.00153654
1.19022e-07
-1.14564e-07
0.00153754
1.84285e-07
-1.11882e-06
0.00154063
-8.40871e-07
-9.1939e-09
-2.55106e-06
6.81432e-07
0.00156707
-4.9238e-06
-2.85911e-06
0.00156958
-2.63542e-06
-1.60828e-06
0.00157182
1.67515e-07
6.37415e-07
0.00156729
4.80633e-06
1.77528e-06
0.00156094
6.0606e-06
3.17775e-06
0.00156509
1.85841e-06
8.54463e-07
0.00157127
-2.27194e-07
-5.36968e-07
0.00157653
-3.29682e-06
-3.99794e-06
0.00158257
-5.18163e-06
-5.79931e-06
0.00157915
-2.59931e-06
2.19167e-06
0.0015696
1.54766e-06
6.21619e-06
0.0015634
3.30768e-06
4.03862e-07
0.00156405
1.67464e-06
-1.23728e-06
0.0015635
4.50112e-07
3.43673e-06
0.00156157
1.8261e-06
4.33248e-06
0.00156762
8.34271e-07
-3.87343e-06
0.00157156
9.51517e-07
-4.81586e-06
0.00157063
-3.02338e-07
-8.18272e-07
0.00157014
-7.03309e-07
7.13095e-07
0.00157087
-3.68504e-08
-4.55888e-07
0.00157232
-2.49988e-07
-8.55704e-07
0.0015718
-5.51427e-07
-3.36752e-07
0.00157029
-1.47936e-06
-5.45345e-07
0.00157026
-2.81562e-06
-9.95013e-07
0.0015704
-2.3967e-06
3.94811e-07
0.00156799
1.08232e-06
2.20935e-06
0.00156668
1.82051e-06
1.23334e-06
0.00156651
7.84465e-07
-2.13568e-08
0.00156172
2.77035e-06
1.78999e-06
0.00155796
3.58829e-06
2.53682e-06
0.00156135
-1.40278e-06
7.7581e-07
-5.40408e-06
-1.20476e-06
0.00156383
-5.76982e-06
-1.36516e-06
0.00156428
-5.05476e-06
2.03372e-07
0.00156718
-4.54086e-06
6.97898e-07
0.00156912
2.36756e-06
2.0044e-06
0.001568
7.83437e-06
3.33414e-06
0.00156727
5.92095e-06
2.50119e-06
0.00157493
6.55238e-08
-1.68432e-06
0.00157952
-2.93396e-06
-5.18304e-06
0.00157951
-2.93567e-06
-6.34241e-06
0.00157497
-3.40379e-06
2.77787e-06
0.00157079
9.62255e-07
4.41021e-06
0.00156067
9.53881e-06
1.73115e-06
0.00155334
7.19726e-06
6.1155e-07
0.00155915
-2.00463e-06
6.13087e-07
0.00156802
-3.52295e-06
3.15286e-07
0.00157396
-1.67702e-06
-3.10926e-06
0.00157703
1.63141e-06
-4.64135e-06
0.00157752
8.77543e-07
-1.73024e-06
0.00157485
-2.18938e-07
2.30703e-06
0.00157495
-1.77129e-06
1.44286e-06
0.00157707
-3.11123e-06
-1.38893e-06
0.00157597
-4.61917e-07
-3.05436e-06
0.00157413
9.24817e-08
-3.37975e-06
0.00157345
-1.66442e-06
-2.1868e-06
0.00157188
-1.68288e-06
-1.76354e-06
0.00156994
1.99973e-06
-1.14267e-06
0.00157057
1.29379e-06
1.04535e-06
0.00157148
5.30582e-07
2.64567e-06
0.00157287
3.19926e-06
4.82067e-07
0.00157223
4.69885e-06
2.49806e-06
0.00156795
2.04799e-06
5.32194e-06
-4.56713e-06
4.73746e-07
0.00156695
-9.17145e-06
-4.26528e-07
0.00157322
-8.78007e-06
2.80562e-07
0.00157228
-2.8355e-06
5.17814e-07
0.00156756
5.96669e-06
1.69452e-06
0.00157058
5.89635e-06
1.50549e-06
0.00157528
3.29311e-06
1.59494e-06
0.00157448
9.09516e-07
2.11028e-06
0.00157443
-7.71367e-07
-2.28414e-06
0.00157679
-2.87097e-06
-3.79194e-06
0.00157311
-2.91204e-06
1.18401e-06
0.00156814
8.63837e-07
5.33723e-06
0.00156893
6.38585e-06
3.89826e-06
0.00156822
6.83632e-06
2.222e-06
0.00156694
-6.94091e-08
-2.79963e-07
0.00156527
-1.74758e-06
-2.61688e-07
0.00156949
-2.44846e-06
-1.93005e-06
0.00157904
-1.66518e-06
-3.78105e-06
0.0015813
4.41527e-07
-5.90236e-07
0.001579
1.35169e-07
1.44054e-06
0.00157433
-5.77938e-07
6.00913e-07
0.00156948
-1.13599e-07
-9.1912e-07
0.00157088
-9.2862e-07
-2.93179e-06
0.00157335
-1.37011e-06
-2.02108e-06
0.00157228
-4.39833e-07
5.07696e-08
0.00156822
1.65646e-06
-4.3953e-07
0.00156949
2.53614e-06
-1.98906e-06
0.00157341
8.75306e-07
-7.06475e-07
0.00157498
2.03978e-06
-1.08759e-07
0.00157473
3.27193e-06
-1.51416e-06
0.00157475
3.91726e-06
-3.63293e-07
0.00157062
3.04521e-06
4.58162e-06
-2.4337e-06
2.32341e-06
0.00157195
-9.57e-06
4.39799e-06
0.00157113
-9.79177e-06
2.88298e-07
0.00156827
-1.07875e-06
-9.98844e-07
0.00157234
4.82216e-06
-8.58618e-07
0.00157628
5.82799e-06
3.14771e-07
0.00157773
3.62589e-06
1.52513e-06
0.00157668
2.22728e-06
2.17193e-06
0.00157683
-2.7694e-07
1.26536e-06
0.00157566
-2.58254e-06
1.15632e-07
0.00156702
5.64303e-07
1.59823e-06
0.00155931
5.63684e-06
1.94289e-06
0.00156476
2.59518e-06
-2.29799e-07
0.0015737
3.2858e-07
-1.62508e-06
0.00157125
2.56634e-06
-6.63688e-07
0.00156628
1.55692e-06
4.39461e-07
0.00156792
-1.50818e-06
-9.98282e-07
0.00157355
-2.28051e-06
-2.62657e-06
0.00157823
-1.97441e-06
-6.38338e-08
0.00157772
-1.42129e-06
1.56116e-07
0.00157402
4.26604e-08
-3.7815e-07
0.00157395
-1.53508e-06
-7.9631e-07
0.0015774
-3.59069e-06
-1.62049e-06
0.00157607
-6.72416e-07
4.89233e-08
0.00157059
3.06323e-06
2.38684e-06
0.00156841
4.27454e-06
-2.60431e-07
0.00156857
2.4726e-06
-2.84995e-07
0.00156775
1.34487e-06
6.94842e-07
0.0015681
3.21432e-07
-2.39315e-07
0.00157247
6.27619e-08
-4.4655e-06
0.00157574
1.62648e-06
-1.71468e-06
0.00157479
2.97058e-06
5.91499e-06
-1.63239e-06
7.90293e-06
0.00156866
-1.09601e-05
-1.0962e-06
0.00156583
-9.90558e-06
-2.35971e-06
0.00156376
-1.26269e-06
1.70156e-06
0.00156459
5.30858e-06
4.72684e-06
0.00156857
4.14198e-06
1.94392e-06
0.00157335
3.53002e-06
-4.36952e-06
0.00157463
3.47704e-06
-3.95306e-06
0.00157124
1.12439e-06
3.22081e-06
0.0015666
-2.47868e-06
4.19149e-06
0.00156144
1.82157e-06
1.60336e-06
0.00156398
4.31001e-06
-1.68436e-06
0.00156899
1.2097e-06
-2.47342e-06
0.00156986
5.63887e-07
-1.65772e-07
0.00157156
1.12927e-06
7.21134e-07
0.00157318
4.05513e-07
3.80453e-07
0.00157285
4.29322e-08
-2.62947e-06
0.00157336
-1.56099e-07
-3.90573e-06
0.00157521
-2.6279e-06
-1.46514e-06
0.00157512
-2.88955e-06
3.43858e-07
0.00157503
-1.25477e-06
-3.99296e-07
0.00157463
-2.13063e-06
2.98012e-07
0.0015708
-1.17828e-06
4.21048e-07
0.00156639
6.53647e-07
1.89067e-06
0.00156614
2.59184e-06
1.45946e-06
0.00156925
3.00449e-06
-1.53328e-07
0.00157416
6.75004e-07
-2.97902e-06
0.0015759
9.92698e-07
-1.57888e-06
0.00157602
3.51069e-07
-1.025e-07
0.00157302
2.14659e-06
-1.53598e-07
0.00156968
2.80548e-06
-8.85893e-08
0.00156698
4.09429e-06
-1.97383e-07
-1.70098e-06
1.89032e-07
0.00156796
-3.52963e-06
-1.76255e-06
0.00156196
-5.10536e-06
-1.36887e-06
0.00156129
-1.47259e-06
-3.36424e-07
0.00156686
1.14651e-06
1.52468e-06
0.00157409
-1.0334e-06
1.51448e-07
0.0015785
2.48598e-06
-2.79646e-06
0.00157485
4.58534e-06
3.66585e-06
0.00156866
2.52355e-06
5.22313e-06
0.00156068
1.10763e-07
2.95125e-06
0.00155999
2.26166e-06
-2.08364e-06
0.00156261
3.13566e-06
-3.56087e-06
0.00156548
3.61018e-07
-2.4693e-06
0.00156824
-6.71774e-07
4.56422e-07
0.00157016
-1.40142e-06
2.97962e-06
0.0015697
-6.01927e-07
2.19929e-06
0.00157065
3.79572e-07
-2.37158e-06
0.00157383
-6.68027e-07
-3.44751e-06
0.00157129
-7.64532e-07
-1.11867e-06
0.00156903
-1.28535e-06
-9.02001e-07
0.00157206
-3.13319e-06
-4.91494e-07
0.00157244
-2.77392e-06
1.70002e-06
0.00156758
9.04426e-07
3.72191e-06
0.00156458
8.75609e-08
3.2599e-06
0.00156388
2.10351e-06
-4.57628e-07
0.00156273
4.33347e-06
-1.45228e-06
0.00156541
2.6643e-07
-1.67447e-06
0.00156875
-5.71524e-07
-5.0257e-08
0.00156635
1.43392e-06
3.56168e-06
0.0015661
8.92394e-07
1.86039e-06
0.00157003
-1.33249e-06
-1.45819e-06
0.00157562
8.8504e-07
-4.68467e-06
7.3041e-07
-4.5088e-06
0.00153927
-2.12575e-06
0.00153122
-1.35402e-07
0.00152773
-9.90796e-07
0.00152874
2.15016e-06
0.00152761
1.79383e-06
0.00153267
1.03196e-06
0.00153975
9.06515e-07
0.00154013
4.62847e-06
0.00153495
4.51647e-06
0.00153883
-4.01969e-06
0.00154346
-4.72621e-06
0.00154449
-1.38431e-06
0.00154384
1.97919e-06
0.00154061
2.94675e-06
0.00153924
1.16234e-06
0.00154462
-4.46835e-06
0.00154797
-4.42565e-06
0.00154418
6.51522e-07
0.00153989
1.42897e-06
0.00153712
-2.64159e-07
0.00153676
3.91726e-08
0.00154011
2.69733e-06
0.00154025
2.62443e-06
0.00153961
-3.03666e-06
0.00154289
-3.51777e-06
0.00154326
-8.78129e-07
0.00154436
-3.49025e-07
0.00154879
-7.38893e-07
0.00154822
4.37891e-06
0.0015431
5.42953e-06
0.00154156
-5.54858e-07
-2.65981e-06
0.00154003
-3.08519e-06
0.00154306
2.70646e-07
0.00154606
8.53886e-07
0.00153992
3.12461e-06
0.00153202
4.50291e-06
0.00152563
4.61799e-06
0.00153281
3.44579e-06
0.00154222
-2.38423e-07
0.00154954
-2.49367e-06
0.00154769
1.42324e-06
0.00154108
4.44293e-06
0.00153205
2.7475e-06
0.00153421
-2.61119e-06
0.00154389
-3.13257e-06
0.00154791
-2.293e-06
0.00153849
1.24226e-06
0.00153055
2.80769e-06
0.00153342
-3.57286e-07
0.00153832
-9.95449e-07
0.00154123
-6.83886e-07
0.0015427
-6.86406e-07
0.00154188
4.73813e-07
0.00153967
1.3661e-06
0.00154107
-8.389e-08
0.00154447
-7.10859e-07
0.0015445
6.8049e-07
0.00154253
9.37366e-07
0.00154177
7.68843e-07
0.00154158
4.04724e-07
0.00154325
-5.43936e-07
0.00154413
-1.79305e-06
-3.96426e-06
0.00156871
-4.82146e-06
0.00156961
2.29012e-07
0.00157123
1.32167e-06
0.00156814
4.32859e-06
0.00155998
7.39173e-06
0.00155307
7.08909e-06
0.00155888
3.14985e-06
0.00156694
-3.39414e-06
0.00157035
-5.29782e-06
0.00157351
-1.47017e-06
0.00157541
2.17617e-06
0.00156797
4.3305e-06
0.00156066
2.14529e-06
0.00156702
-5.61604e-06
0.00157469
-6.41718e-06
0.00157157
3.9898e-07
0.00156822
2.70113e-06
0.00157237
-1.77846e-06
0.00157538
-6.0574e-07
0.00157368
1.76489e-06
0.00157254
2.08264e-06
0.00157311
2.48336e-06
0.00157123
2.98139e-06
0.0015712
-1.02571e-06
0.00157299
-2.52185e-06
0.00157395
-9.07034e-07
0.00157376
1.02403e-06
0.00157209
2.5719e-06
0.00156985
2.97656e-06
0.00156913
9.81513e-07
0.00156961
-3.00058e-06
-5.99382e-06
0.00156564
-4.97662e-06
0.00156876
-2.50988e-06
0.00157028
-1.09705e-06
0.00156666
5.63124e-06
0.00156127
8.69791e-06
0.00155793
8.08113e-06
0.00156446
3.74469e-07
0.00156727
-2.76896e-06
0.00156649
-3.11624e-06
0.00157048
-1.82587e-06
0.00157536
1.02268e-06
0.00157447
5.08655e-06
0.0015717
2.97501e-06
0.00157218
-5.52503e-06
0.0015726
-5.41237e-06
0.00157125
1.05834e-06
0.00156898
3.0404e-06
0.00156585
3.84059e-07
0.00156716
-4.81153e-07
0.00157118
-2.17407e-07
0.00157511
-5.82436e-07
0.00157426
1.05229e-06
0.00156741
6.18574e-06
0.00156106
3.02614e-06
0.00155871
-6.35433e-07
0.00155753
-1.14228e-06
0.00155767
-5.66215e-07
0.00156272
1.25355e-07
0.00156627
1.88965e-06
0.00156756
2.09243e-06
0.00157115
-3.71962e-06
-5.51302e-06
0.00156469
-8.20334e-06
0.00157164
-9.43217e-06
0.00157224
-1.63482e-06
0.00157155
7.40697e-06
0.00156674
1.05126e-05
0.00156609
5.65093e-06
0.00156892
-1.60082e-06
0.00156525
2.51235e-07
0.00156035
3.08551e-06
0.00156118
8.46292e-07
0.00156655
-1.60627e-06
0.00157243
-4.87983e-07
0.001572
2.34749e-06
0.00156505
-3.07947e-07
0.00156168
-2.29405e-06
0.00156378
-1.07066e-06
0.00156561
-3.8195e-07
0.00156765
-1.54654e-06
0.00157263
-3.08279e-06
0.00157674
-1.422e-06
0.00157782
-7.23564e-07
0.00157679
-4.73485e-07
0.00157783
3.12495e-06
0.00157754
4.17172e-06
0.00157253
4.02806e-06
0.00156931
3.44121e-07
0.00157051
-1.72793e-06
0.00157383
-1.57025e-06
0.00157354
1.55078e-06
0.00157011
3.83846e-06
0.0015671
7.80178e-08
-3.4737e-06
0.00156874
-7.57671e-06
0.00156756
-7.33059e-06
0.00156278
9.60859e-08
0.00156318
4.63743e-06
0.00156658
6.88048e-06
0.00157159
5.21826e-07
0.00157403
-2.30802e-06
0.00157149
4.0837e-06
0.00157024
6.50505e-06
0.00157356
1.22878e-06
0.00157293
-9.58434e-07
0.00157319
-1.85388e-06
0.00157441
1.38953e-06
0.00157192
2.61051e-06
0.00156956
1.75561e-07
0.00157302
-3.17382e-06
0.00157694
-3.5681e-06
0.0015773
-2.45334e-06
0.0015728
-1.33789e-06
0.00156848
7.21094e-07
0.00156691
9.27966e-08
0.00156921
-8.2216e-07
0.00157337
5.10825e-07
0.00157432
5.00222e-06
0.0015751
3.34298e-06
0.00157652
5.48024e-07
0.00157627
-1.11686e-07
0.00157424
-8.01688e-07
0.0015737
6.49508e-07
0.00157232
3.0935e-06
0.00156682
4.09652e-06
2.28911e-07
0.00156837
-8.19009e-06
0.00156355
-6.53627e-06
0.00156427
-9.94157e-07
0.00157042
2.77244e-06
0.00157467
5.47448e-06
0.00156964
2.58606e-06
0.0015603
3.24326e-06
0.00156239
3.64803e-06
0.00156817
3.33208e-06
0.00157221
6.18512e-07
0.00157191
-7.70927e-07
0.00156912
-8.95759e-07
0.00157056
4.53059e-07
0.0015726
2.10145e-06
0.00157118
2.74407e-06
0.00156804
6.68454e-08
0.00156461
-2.05664e-06
0.00155883
-1.46058e-06
0.00155783
-1.78812e-06
0.0015631
-2.28445e-06
0.00156709
-1.6265e-06
0.00156696
2.01246e-06
0.00156824
2.54374e-06
0.00157288
2.42764e-06
0.00157533
6.10744e-07
0.00157436
-9.21666e-07
0.00157239
7.14264e-07
0.00157018
1.92238e-06
0.00156977
3.05441e-06
0.00157157
2.46228e-06
0.00156975
2.63709e-06
-2.82541e-06
0.00157177
-4.92948e-06
0.00156408
-3.20076e-06
0.00156356
-1.90651e-06
0.00156622
8.65625e-07
0.00156411
4.50158e-06
0.0015596
4.09128e-06
0.00156446
2.36536e-06
0.00156951
2.59414e-06
0.00157206
1.33956e-06
0.00157255
-5.43673e-08
0.00156842
-4.52126e-07
0.00156393
-1.32245e-07
0.00156641
-8.50401e-07
0.00157249
-6.34509e-07
0.00157631
1.26615e-06
0.00157715
9.08979e-07
0.00157628
-5.86099e-07
0.00157364
6.3562e-07
0.00156832
1.64954e-06
0.00156605
-1.07652e-06
0.00156394
-1.65161e-06
0.0015624
2.71687e-06
0.00156155
2.21356e-06
0.0015651
-1.30702e-06
0.00156832
-2.07461e-06
0.00156834
-1.72762e-06
0.0015697
9.4496e-07
0.00157132
4.46422e-06
0.00157346
1.01461e-06
0.00157745
-3.19818e-06
0.00157994
-1.45556e-06
-8.65459e-07
0.00153456
0.00152973
0.00152609
0.00152761
0.00153056
0.00153298
0.00153708
0.00154295
0.00154695
0.00154538
0.00154065
0.00153606
0.00153649
0.00154007
0.00154483
0.00154404
0.00154016
0.00154035
0.00154235
0.00154056
0.00153785
0.00154328
0.0015482
0.00154561
0.00154247
0.00154131
0.00154329
0.00154846
0.00155142
0.00154824
0.00154543
)
;

boundaryField
{
    wall
    {
        type            calculated;
        value           uniform 0;
    }
    outlet
    {
        type            cyclic;
        value           nonuniform List<scalar> 
16
(
0.00154386
0.00156614
0.00156553
0.00156441
0.0015715
0.00156687
0.00157585
0.00154233
0.00154232
0.00156916
0.00156806
0.00156287
0.00156453
0.0015695
0.00157736
0.00154209
)
;
    }
    inlet
    {
        type            cyclic;
        value           nonuniform List<scalar> 
16
(
-0.00154386
-0.00156614
-0.00156553
-0.00156441
-0.0015715
-0.00156687
-0.00157585
-0.00154233
-0.00154232
-0.00156916
-0.00156806
-0.00156287
-0.00156453
-0.0015695
-0.00157736
-0.00154209
)
;
    }
    procBoundary1to0
    {
        type            processor;
        value           nonuniform List<scalar> 
256
(
2.15497e-06
5.76221e-07
-1.1659e-06
-4.65762e-07
1.77285e-07
-3.02567e-06
-4.4133e-06
-8.40979e-07
1.62286e-06
1.94844e-06
4.03027e-06
4.8072e-06
-1.9331e-06
-7.04077e-06
-5.47128e-06
1.83542e-06
4.18593e-06
2.11069e-06
-1.31787e-07
-4.94982e-07
4.94615e-07
3.31533e-06
4.06225e-06
1.42642e-06
4.63094e-07
1.05568e-06
-2.84888e-07
-2.34463e-06
-1.78004e-08
-7.2667e-08
-2.23433e-06
-1.36288e-06
5.18334e-06
1.47721e-06
-2.04516e-06
-1.12565e-06
-1.52659e-06
-4.18983e-06
-3.21164e-06
1.73599e-06
3.57922e-06
2.55839e-06
2.56011e-06
3.08872e-06
-1.8106e-06
-4.11556e-06
-3.74861e-06
5.19444e-07
2.1764e-06
5.7942e-07
-9.89626e-07
-6.61237e-07
2.71933e-07
2.07119e-06
3.51392e-06
2.69721e-06
1.21947e-06
-2.9981e-07
-1.22007e-06
-4.18833e-07
3.49188e-07
-2.17764e-06
-3.6032e-06
-7.35244e-07
3.91104e-06
1.76231e-06
1.11344e-06
-1.50571e-06
-3.9914e-06
-5.82807e-06
-6.27286e-06
2.31635e-07
4.1041e-06
2.56483e-06
3.61608e-07
2.15717e-06
1.1891e-06
-3.96154e-06
-3.84022e-06
-3.21827e-07
8.94347e-07
6.40831e-08
-1.25656e-07
1.89804e-07
2.1295e-06
4.06534e-06
3.64591e-06
1.72071e-06
2.61741e-06
2.16911e-06
-1.15274e-06
-3.303e-06
-2.3007e-06
-2.96403e-06
-4.49645e-06
1.11474e-06
1.28753e-06
-2.82845e-06
-1.27756e-06
-5.82898e-07
-2.57856e-06
-3.67223e-06
-2.15282e-06
1.70592e-07
1.3626e-06
2.01245e-06
-2.75092e-07
-1.52864e-06
-1.15172e-06
-3.77251e-07
1.55687e-07
-1.51615e-06
-2.47319e-06
-1.23374e-06
5.00506e-07
2.87395e-06
2.77366e-06
2.00564e-06
1.00905e-06
-2.07273e-07
1.16591e-06
1.76021e-07
-2.79248e-06
-2.97172e-06
1.69127e-06
1.13043e-06
-1.44782e-06
1.75127e-06
-4.45064e-06
1.53927e-06
2.10494e-06
-2.06402e-06
-4.19198e-06
-3.30655e-06
-2.44119e-06
-1.90978e-06
7.7219e-07
3.5636e-06
9.8692e-07
-1.42523e-06
-8.0968e-07
4.76058e-07
1.22833e-06
-1.57824e-06
-2.38756e-06
-2.2063e-06
1.91651e-06
3.45087e-06
2.29509e-06
8.26742e-07
5.83368e-07
-4.02393e-07
-1.8271e-07
1.93661e-07
-3.51873e-07
1.61089e-06
3.29991e-06
7.41472e-07
-4.88768e-06
-5.41477e-06
7.02526e-07
5.29613e-06
5.57152e-07
-6.04574e-06
-4.23398e-06
-3.15512e-07
1.41713e-06
-1.22603e-06
3.45311e-07
2.29314e-06
4.74967e-07
-1.14895e-06
-9.44115e-07
-9.82992e-07
-8.5024e-07
1.40715e-06
1.27728e-06
2.7029e-07
1.21117e-06
1.79049e-06
6.89546e-07
9.97004e-07
1.19651e-06
-7.36146e-07
-1.68782e-06
-1.36209e-07
1.93742e-07
-4.53425e-08
1.07083e-06
2.2462e-06
1.77422e-06
-1.34042e-08
2.21339e-06
2.57614e-06
1.21675e-06
-2.93406e-06
-2.2107e-06
-5.66664e-07
-1.12209e-06
-4.30619e-07
2.43693e-06
2.33299e-06
2.11883e-06
4.46601e-07
-1.98255e-06
-2.36864e-06
-7.28839e-07
1.0812e-06
7.82639e-07
1.79469e-06
1.55684e-06
-6.58382e-07
-1.43694e-06
-9.51873e-07
3.11625e-07
1.64356e-06
1.27779e-06
-5.97388e-07
-1.73092e-06
-2.24e-06
-3.63509e-07
1.67328e-06
2.2985e-06
1.85413e-06
1.65505e-06
3.08028e-06
3.01462e-06
-2.01689e-06
-1.69733e-06
-3.60363e-06
-3.39902e-06
-2.49146e-06
7.76287e-07
2.40534e-06
3.22834e-06
7.18606e-07
-2.00492e-06
-1.11695e-06
-3.93592e-07
-5.32037e-07
4.0568e-07
2.37792e-06
1.57477e-06
-9.98999e-08
-2.45533e-06
-5.14001e-06
-2.67972e-06
5.77715e-06
4.57782e-06
7.67926e-07
-1.31977e-06
-2.25718e-06
-2.91547e-06
-1.6466e-06
2.97927e-06
2.62278e-06
)
;
    }
    procBoundary1to2
    {
        type            processor;
        value           nonuniform List<scalar> 
256
(
4.75623e-06
-1.78803e-06
-2.8497e-06
2.8102e-06
4.72269e-06
4.10837e-06
-1.02329e-05
-1.3178e-05
-1.03908e-05
2.07516e-06
4.23251e-06
5.9216e-06
1.65212e-06
-2.08293e-06
9.80978e-07
3.08886e-06
2.52292e-07
-4.18502e-06
-5.02471e-06
-4.31791e-06
-1.53502e-06
1.47307e-06
1.81737e-06
-2.49865e-06
-3.93607e-06
2.6598e-07
1.22939e-06
7.0581e-07
-3.28944e-07
-2.24522e-06
8.99488e-07
6.45423e-06
-6.66589e-07
-2.47436e-06
-1.44615e-06
3.66063e-06
8.45354e-06
5.29153e-06
-6.05027e-06
-8.90322e-06
-6.40172e-06
1.9218e-06
6.58277e-06
6.26053e-06
1.31313e-06
-4.4212e-07
7.89468e-07
8.90494e-08
-1.35654e-06
-3.54632e-06
-2.68825e-06
-1.20716e-06
-2.48502e-06
-2.91289e-06
-2.79639e-07
-2.94431e-08
4.20399e-07
2.83248e-06
1.34184e-06
-1.5632e-07
1.4594e-06
1.7314e-06
1.50227e-06
1.27296e-06
1.20347e-06
-1.75131e-07
1.60015e-06
4.32288e-06
7.411e-06
4.8557e-06
-5.44214e-06
-8.61787e-06
-7.74257e-06
-8.5767e-07
6.82069e-07
1.87026e-06
2.5489e-06
3.6478e-08
-1.10168e-06
-2.41707e-06
-2.71563e-06
-7.63992e-07
8.76601e-07
-5.93952e-07
-2.65387e-06
-7.73119e-07
2.6064e-07
1.16993e-07
-1.30141e-06
2.65503e-07
2.5036e-06
3.98439e-08
-1.98434e-06
9.92976e-08
2.45327e-06
3.08335e-06
9.76726e-07
2.52589e-07
4.63152e-07
6.03306e-07
4.49968e-06
4.68011e-06
1.25122e-06
-1.63161e-06
-5.0988e-06
-2.30896e-06
2.58756e-06
3.60091e-06
3.27506e-06
1.45536e-06
-8.37388e-09
-1.90653e-06
-2.18346e-06
-7.02533e-07
-9.38178e-07
-2.3099e-06
-1.8528e-06
-3.76856e-07
4.35861e-09
-8.12831e-07
-8.549e-08
-2.60432e-07
-7.38939e-07
-1.73314e-06
-8.92185e-07
1.31847e-06
3.80009e-06
4.51288e-06
-4.36607e-07
-6.32762e-07
2.05139e-06
1.50835e-06
5.51065e-07
1.63794e-06
4.44431e-07
-3.25202e-08
-2.05017e-06
-2.10248e-06
1.92501e-06
8.71354e-07
-1.88873e-06
-1.08892e-06
3.33751e-07
-2.35479e-06
-3.36419e-06
4.87076e-07
2.90666e-06
1.8002e-06
-4.61459e-08
-3.57007e-06
-1.49239e-06
6.00568e-07
-3.52945e-07
-1.91255e-06
-6.67044e-07
1.02527e-06
-3.03197e-06
4.12272e-07
7.40345e-06
6.48302e-06
6.46151e-07
1.67184e-06
2.06394e-06
4.46411e-07
-8.97788e-07
-1.40254e-06
-1.6803e-07
1.56221e-06
1.58301e-06
-1.82154e-06
-1.57466e-06
-6.43223e-07
-6.67227e-07
-8.10245e-07
-7.69456e-07
-2.72725e-06
-1.9846e-06
3.32404e-06
1.78593e-06
-2.6555e-06
-1.97367e-06
-2.28577e-06
-1.41893e-06
-6.08788e-07
1.28336e-07
-5.40171e-07
-4.36118e-07
-6.1888e-07
-2.14029e-06
-1.26455e-06
3.08507e-06
3.49324e-06
5.64765e-07
2.98135e-06
1.09643e-06
7.69982e-07
3.23758e-06
2.04987e-07
-3.13348e-07
1.23128e-06
2.38694e-06
-1.89149e-06
2.44388e-07
1.25741e-06
-7.17482e-07
-3.70176e-07
-1.36087e-07
-4.05261e-06
-4.05601e-06
-5.69588e-07
9.82006e-07
5.68488e-07
3.83874e-06
4.55651e-06
4.44161e-06
-2.78951e-07
-1.98335e-06
-8.93905e-07
-1.63615e-06
-6.01811e-07
1.76139e-06
2.08645e-07
-3.08059e-06
-3.88527e-06
4.8221e-07
1.48855e-06
7.44647e-07
1.49381e-06
3.34476e-06
2.70859e-06
-8.27795e-07
1.34601e-06
1.86114e-06
-2.50822e-06
-4.46938e-07
3.07206e-06
7.03649e-07
-1.27026e-06
-2.32921e-06
-2.77018e-06
-1.1369e-06
1.10204e-06
1.07414e-06
4.56539e-07
1.09429e-06
-1.7083e-08
-7.93914e-08
-1.75514e-06
-2.44794e-06
-1.4493e-06
-1.38345e-06
-1.44358e-06
2.4313e-06
5.40638e-06
8.09377e-07
-1.95042e-07
)
;
    }
}


// ************************************************************************* //
