/*--------------------------------*- C++ -*----------------------------------*\
| =========                 |                                                 |
| \\      /  F ield         | OpenFOAM: The Open Source CFD Toolbox           |
|  \\    /   O peration     | Version:  2506                                  |
|   \\  /    A nd           | Website:  www.openfoam.com                      |
|    \\/     M anipulation  |                                                 |
\*---------------------------------------------------------------------------*/
FoamFile
{
    version     2.0;
    format      ascii;
    arch        "LSB;label=32;scalar=64";
    class       volVectorField;
    location    "0.01";
    object      U_0;
}
// * * * * * * * * * * * * * * * * * * * * * * * * * * * * * * * * * * * * * //

dimensions      [0 1 -1 0 0 0 0];

internalField   nonuniform List<vector> 
512
(
(9.95645 0.00343393 -0.0109752)
(9.98439 0.013033 0.0240384)
(9.96772 0.00273855 0.0158061)
(9.94008 -0.00675185 -0.0142186)
(9.93542 -0.00847033 -0.0213535)
(9.97061 0.0161857 0.00132705)
(9.95034 0.0190111 0.00369571)
(9.93255 0.00738146 -0.0123376)
(9.97471 -0.00296888 -0.00108459)
(9.99563 -0.00291923 0.00790968)
(9.92452 0.000216532 -0.03343)
(9.92499 -0.00146042 -0.0366196)
(9.98184 0.0019554 0.0404089)
(9.97876 -0.00148152 0.0673461)
(9.95487 0.00082218 0.00959274)
(9.96359 0.0147475 -0.0493177)
(9.97505 0.0208902 -0.0453851)
(9.99012 -0.00536776 0.000892266)
(9.98019 -0.0125312 -0.0039464)
(9.98772 -0.0037927 -0.0234189)
(9.97119 0.00253519 -0.021057)
(9.9288 0.00901753 -0.0257577)
(9.92761 0.00852928 -0.0293702)
(9.94151 -0.000880454 -0.0270476)
(9.91433 0.000391606 0.00750746)
(9.91353 0.00387942 0.0166766)
(9.94466 0.0038745 0.00749138)
(9.94186 0.00301937 0.00481256)
(9.91137 -0.0142246 -0.0200143)
(9.92292 -0.0166167 0.00148404)
(9.91382 -0.0109736 0.0159074)
(9.92436 -0.0059205 0.000536915)
(10.1259 -0.00848296 -0.03995)
(10.1307 0.023709 0.0174519)
(10.1231 0.0295652 0.0307857)
(10.1351 0.020261 0.0176029)
(10.1385 0.0151866 0.0150414)
(10.1473 0.00699487 0.00809737)
(10.1272 2.35872e-05 0.00146945)
(10.1225 -0.0211423 -0.0272874)
(10.1656 -0.0221712 -0.0143389)
(10.1881 -0.0108687 0.0054458)
(10.0953 0.0132165 -0.016964)
(10.0874 -0.000159888 -0.0355655)
(10.1323 -0.0190822 0.0228931)
(10.1297 -0.000966188 0.0450237)
(10.1396 0.0326207 0.0230788)
(10.1664 0.0226912 -0.0433898)
(10.1785 0.00686913 -0.0427947)
(10.1688 -0.0151794 0.00708608)
(10.131 -0.0111542 0.0138732)
(10.1243 -0.0064272 -0.00841149)
(10.1207 -0.00129558 -0.0173608)
(10.1146 -0.00327775 -0.00933258)
(10.1332 -0.00657372 -0.0276065)
(10.1457 -0.0137362 -0.0376566)
(10.1192 0.000377377 0.000469935)
(10.1063 0.016827 0.0284407)
(10.11 0.00843607 0.00695966)
(10.1103 0.00204912 -0.00635401)
(10.0537 0.0177488 -0.0052803)
(10.0688 0.00818586 0.0149292)
(10.0844 -0.0420548 0.00449997)
(10.0929 -0.0407504 -0.025485)
(10.115 -0.0463264 -0.0249908)
(10.1388 -0.0332734 -0.0139186)
(10.1192 0.00932216 -0.00652904)
(10.1306 0.0672618 0.02838)
(10.1356 0.0785565 0.0381193)
(10.1745 -0.00532073 0.0316841)
(10.1565 -0.0387864 0.0159658)
(10.1456 -0.0489699 -0.0174489)
(10.1711 -0.0484382 -0.0210869)
(10.201 0.00188955 0.0238521)
(10.171 0.0435391 0.0186012)
(10.0734 0.0456174 -0.00653506)
(10.0707 0.0126423 -0.00270694)
(10.1298 -0.00906271 0.0256508)
(10.1361 0.00600432 0.00981469)
(10.1762 0.0168198 -0.0230481)
(10.1873 0.0124479 -0.0255337)
(10.1906 -0.00230628 -0.0119271)
(10.1714 0.000853898 -0.0214851)
(10.1631 -0.00934079 -0.0207737)
(10.1366 -0.0237684 -0.0232521)
(10.1288 -0.0102701 -0.0361856)
(10.1322 -0.0159149 -0.0341476)
(10.136 -0.0352624 -0.0261201)
(10.131 -0.0253443 -0.022092)
(10.1258 0.00947061 0.0168711)
(10.1215 0.0114302 0.0238783)
(10.115 0.0203029 0.0151468)
(10.1051 0.0429031 0.0122138)
(10.1171 0.0322368 0.0391444)
(10.1075 -0.0202949 0.0370743)
(10.0968 -0.0701741 -0.0235328)
(10.155 -0.0453978 -0.00315041)
(10.1719 -0.0502068 0.0137152)
(10.1228 -0.0031102 0.0159436)
(10.0677 0.0578574 0.0247618)
(10.1296 0.0622443 0.0194362)
(10.2232 0.027681 0.0142022)
(10.1587 -0.0130152 0.00176553)
(10.1061 -0.021539 -0.00795113)
(10.1467 -0.018319 0.0149032)
(10.1502 -0.0267807 0.0187272)
(10.1279 0.0235897 0.0129219)
(10.1304 0.0720044 0.0166547)
(10.1349 0.0609735 0.0121336)
(10.1282 -0.0377915 -0.0190129)
(10.1407 -0.0409791 -0.0115564)
(10.1683 -0.0167432 -0.00666604)
(10.1878 0.0137136 -0.00256982)
(10.1903 0.0153616 0.00518312)
(10.1891 -0.00504975 0.00415602)
(10.1771 -0.00793506 -0.00208469)
(10.1411 -0.00324315 -0.010083)
(10.1229 -0.000607102 -0.02374)
(10.1172 -0.00293316 -0.0207498)
(10.1187 -0.00245492 -0.0131044)
(10.1201 0.00801154 -0.011963)
(10.1199 0.0189996 -0.00144607)
(10.1435 -0.00407368 0.0186947)
(10.1512 -0.00222455 0.0118758)
(10.1229 0.0283416 -0.0103645)
(10.1118 0.0328754 -0.00106168)
(10.101 0.0108005 0.0113853)
(10.1178 -0.0151173 -0.0165903)
(10.1458 -0.0518506 0.0182671)
(10.192 -0.0140371 0.00335368)
(10.1727 0.0120685 -0.00856121)
(10.1402 0.0120122 -0.00391432)
(10.1391 0.0208023 0.0124091)
(10.1568 0.0300036 0.0163348)
(10.1487 -0.001898 0.0176573)
(10.1354 -0.0231833 0.0132808)
(10.1399 -0.0274338 0.00719344)
(10.1101 -0.00485695 0.00545164)
(10.1046 0.0196686 0.0101458)
(10.1477 0.0218141 0.00523252)
(10.1838 0.0114056 0.00333934)
(10.1379 0.00427723 -0.00872589)
(10.118 -0.00150256 -0.0146577)
(10.1739 -0.0175491 -0.00962415)
(10.183 -0.0146918 -0.00354751)
(10.1984 -0.00176596 0.0100207)
(10.1552 -0.00488548 -0.0252464)
(10.1324 -0.00299618 -0.0369875)
(10.1435 -0.00475736 -0.0277251)
(10.1648 -0.0133774 -0.0151656)
(10.153 -0.00851117 0.00543951)
(10.148 0.00595224 0.00734802)
(10.118 0.0370054 -0.00969354)
(10.1089 0.03185 -0.00697732)
(10.1357 0.0187052 0.00707354)
(10.1496 0.0130666 -0.00705446)
(10.154 0.000803938 -0.0218155)
(10.1298 0.00993616 0.0183494)
(10.1229 0.00449019 0.04006)
(10.1097 -0.0613201 0.0294217)
(10.1348 -0.110475 -0.0347511)
(10.1444 -0.0372523 -0.0248348)
(10.1125 0.0924915 0.0507838)
(10.0959 0.113526 0.0818249)
(10.0882 0.0417848 0.00926432)
(10.1213 -0.0137259 -0.0440969)
(10.1419 -0.0197435 -0.0443338)
(10.1335 -0.0270012 0.0282301)
(10.1134 -0.0281569 0.0309865)
(10.1383 0.0434124 0.0056355)
(10.1533 0.048718 -0.0075039)
(10.1597 -0.00260661 -0.00566546)
(10.1654 -0.00250301 0.0071559)
(10.168 0.0254348 0.00594099)
(10.1614 0.0165524 -0.00618236)
(10.1592 -0.00492656 -0.0365234)
(10.165 -0.0152087 -0.0258876)
(10.1632 -0.0250671 -0.0133269)
(10.1501 -0.0101902 -0.0126288)
(10.1562 0.00764634 -0.00117087)
(10.1445 -0.0154071 0.0210317)
(10.1223 -0.0215938 0.0219468)
(10.1056 0.00123904 0.0321849)
(10.129 0.0334338 0.0142477)
(10.1216 0.0181036 -0.000265338)
(10.1464 -0.00193673 -0.0214915)
(10.1297 8.50917e-05 -0.0118656)
(10.1163 0.00230221 -0.00817458)
(10.1142 0.015716 -0.0043596)
(10.1075 0.0154942 -0.00870787)
(10.1248 0.0127942 -0.0161454)
(10.1493 -0.0624111 -0.0209596)
(10.1482 -0.0690652 -0.0327634)
(10.1418 -0.0429426 -0.0286822)
(10.0337 0.0147567 0.0251846)
(10.0208 0.0183272 0.0294874)
(10.1016 -0.00558315 -0.00913495)
(10.1685 0.0190551 -0.0111656)
(10.1605 0.0347538 0.044635)
(10.1047 0.00168976 0.0441862)
(10.089 -0.00755624 0.0302722)
(10.1457 0.0262904 -0.0186929)
(10.149 0.0188108 -0.0244619)
(10.1747 -0.00722762 -0.0154745)
(10.1707 0.00240205 0.020294)
(10.1495 -0.00506068 0.026441)
(10.1488 -0.0103118 0.00598358)
(10.1645 -0.00554795 -0.0266369)
(10.1723 -0.00570748 -0.0268233)
(10.1718 -0.00444257 -0.0267197)
(10.1579 -0.0120884 -0.0281579)
(10.1291 -0.0275786 -0.00363765)
(10.1309 -0.0288771 0.00735632)
(10.1419 0.00173291 0.0254442)
(10.1497 0.013772 0.00566806)
(10.1408 0.02396 -0.0112661)
(10.1447 0.0163824 -0.00304799)
(10.1386 0.00102794 0.0116777)
(10.1049 0.0092841 0.0147905)
(10.1059 0.00343149 0.0204173)
(10.1476 0.0129969 -0.00508439)
(10.1443 0.0130129 -0.014836)
(10.144 0.033546 -0.0184013)
(10.1596 -0.0122766 -0.0225655)
(9.9818 -0.00571013 -0.0122233)
(9.96021 0.00485132 -0.00901497)
(9.85939 -0.00214292 -0.0151115)
(9.83801 -0.00495916 -0.00682199)
(9.87866 -0.0108206 -0.00614754)
(9.97318 0.0300545 0.0309485)
(9.97411 0.0389768 0.0566205)
(9.94821 0.017453 0.0343257)
(9.96138 0.0128753 0.0135983)
(9.99082 0.0158228 -0.0246147)
(9.97807 0.0144494 -0.0250938)
(9.98209 0.0046242 -0.005231)
(9.97971 -0.00642958 0.0108957)
(9.97748 -0.0102806 0.006888)
(9.98674 -0.00806321 -0.000320165)
(9.9925 -0.00183043 -0.0206062)
(9.99241 -0.00374833 -0.023659)
(9.98614 -0.00393352 -0.0158311)
(9.96995 -0.0110008 -0.0212861)
(9.96536 -0.0285162 -0.0217888)
(9.98811 -0.0142168 0.00834855)
(9.99528 0.0130631 0.0541374)
(9.98688 -0.00358273 0.0383869)
(9.98592 0.014246 -0.0315417)
(9.99061 0.0340128 -0.0289602)
(9.92301 0.0174045 0.00380326)
(9.89977 0.0139757 0.0115991)
(10.0106 0.0127417 0.0164675)
(10.0347 -0.0210768 0.0189221)
(9.95651 -0.0256648 -0.00941456)
(9.91557 -0.0112361 -0.0310947)
(9.94676 -0.0291539 -0.0230064)
(9.94539 -0.00801436 -0.00018468)
(9.98709 0.00408386 -0.00139465)
(9.98483 0.0116194 -0.00557507)
(9.96892 0.018473 0.0457554)
(9.93897 0.0180242 0.0713876)
(9.95858 0.0163427 0.0330259)
(9.93184 0.00930017 -0.036928)
(9.9374 -0.00567366 -0.0712362)
(9.98933 -0.00432108 -0.0456035)
(10.0378 0.01414 0.0128471)
(9.93374 0.0286953 0.0406708)
(9.92718 0.012313 0.0297932)
(9.97936 -0.011288 0.00399768)
(10.0062 -0.00607299 -0.00221676)
(9.98702 0.00452767 0.00211239)
(9.89843 0.0135806 0.000202321)
(9.90469 0.00610096 -0.00305243)
(9.92307 -0.00432765 -0.00535533)
(9.92118 -0.00316486 -0.00411734)
(9.94766 -0.00374624 -0.00598667)
(9.95471 -0.00267708 0.00672944)
(9.94436 0.0022705 0.0286109)
(9.96667 -0.000667461 0.00541966)
(9.99642 0.00496807 -0.041688)
(9.98244 0.012479 -0.0268642)
(9.96306 0.0092633 0.016359)
(9.96721 0.00799981 0.0114525)
(9.95755 -0.00354657 0.00826003)
(9.95683 -0.00612586 0.00880186)
(9.9652 -0.0137908 -0.0079361)
(9.94786 -0.0203813 -0.00330244)
(9.92294 -0.0210034 -0.00283083)
(10.1262 -0.00582946 -0.0185639)
(10.1399 0.0159097 -0.0228352)
(10.1401 0.0157238 -0.019084)
(10.1178 0.0430515 0.049496)
(10.102 0.0469472 0.0602603)
(10.1226 0.0431552 0.0111665)
(10.0893 0.00754522 -0.0503161)
(10.0915 -0.0251947 -0.0687986)
(10.1519 -0.040223 -0.0607795)
(10.2074 0.0219388 0.044746)
(10.1882 0.0381922 0.0771608)
(10.0901 7.22536e-05 0.0228587)
(10.0732 -0.0194861 -0.00896315)
(10.1258 -0.0405612 0.0121539)
(10.1452 -0.034292 0.0231239)
(10.1101 0.0229519 -0.0144967)
(10.1177 0.0213811 -0.0252677)
(10.1342 -0.022097 -0.00383674)
(10.1267 -0.0173624 0.00124607)
(10.1381 -0.00754898 -0.00268955)
(10.1448 -0.00756055 -0.00768364)
(10.1353 0.0200492 -0.00298862)
(10.1512 0.0283332 -0.0106558)
(10.1658 -0.015312 -0.00750239)
(10.1427 -0.0107139 0.0108439)
(10.1253 0.0128447 0.0249126)
(10.1239 0.0118701 0.0026016)
(10.1203 0.0107076 0.0061906)
(10.1234 0.01039 0.0344103)
(10.1311 -0.0173495 0.0179459)
(10.1123 -0.0312733 0.0033779)
(10.09 -0.0401272 -0.0043759)
(10.1325 -0.0191341 0.00476874)
(10.174 0.00775524 0.0162227)
(10.1423 0.0414727 0.0358326)
(10.1105 0.0671994 0.0467084)
(10.1033 0.0760919 0.045532)
(10.1228 0.0409096 -0.00243078)
(10.1056 -0.00747109 -0.0622287)
(10.06 -0.04597 -0.0836376)
(10.0882 -0.0478814 -0.0611161)
(10.174 -0.0171944 0.01778)
(10.1452 0.0126671 0.023735)
(10.1399 0.0343611 0.0220159)
(10.1612 -0.00692592 0.0173695)
(10.1592 -0.0594648 -0.00491495)
(10.1098 -0.00612292 -0.0201487)
(10.1024 0.0361335 -0.0303987)
(10.139 0.0296143 -0.0308918)
(10.1547 -0.00817117 0.0144381)
(10.1336 -0.00643805 0.0423423)
(10.1577 0.0187041 0.012801)
(10.1768 0.0274103 -0.00116896)
(10.1453 0.0360163 -0.0033482)
(10.1334 0.0318581 -0.0135921)
(10.1367 -0.0169747 -0.0202767)
(10.1235 -0.0336565 -0.0108782)
(10.102 -0.00614013 0.00619376)
(10.0967 0.0115844 0.0136407)
(10.1008 0.0287612 -0.000639127)
(10.1096 0.0326209 -0.0132974)
(10.1289 -0.0139544 0.00809428)
(10.1111 -0.0504799 0.0236669)
(10.0962 -0.0553435 0.0115837)
(10.1609 -0.0342923 -0.0132508)
(10.2116 -0.0294198 -0.00119451)
(10.173 0.0161673 0.00731284)
(10.149 0.0500369 0.00902454)
(10.1302 0.0500828 0.03591)
(10.1187 0.0216373 0.0463416)
(10.1115 -0.0168702 0.0274401)
(10.0737 -0.00114395 -0.0417066)
(10.082 -0.0042898 -0.072382)
(10.2003 -0.00105677 0.00131984)
(10.2007 0.00405766 0.033984)
(10.1893 0.0282411 0.0358628)
(10.1775 0.00836773 0.0168435)
(10.0951 -0.0430751 0.00332044)
(10.084 -0.0273791 -0.0015286)
(10.1028 0.0131717 -0.0233687)
(10.1201 0.0108238 -0.0268709)
(10.1335 -0.00484613 -0.00656922)
(10.164 -0.000276848 -0.00397787)
(10.15 -0.00783077 5.57382e-06)
(10.1343 -0.0221323 0.00682013)
(10.1467 -0.000401546 -0.00287138)
(10.1598 0.03019 -0.00717911)
(10.1702 0.025106 0.00121886)
(10.1416 0.0125489 0.00430411)
(10.0908 -0.00315277 -0.00116077)
(10.1089 -0.0156775 -0.00770033)
(10.131 -0.00553681 -0.0187333)
(10.1238 0.0202536 -0.0117428)
(10.1238 0.0129383 0.0226585)
(10.0911 -0.0319103 0.0455293)
(10.0923 -0.0410319 0.0080803)
(10.153 -0.0602526 -0.00895246)
(10.1791 -0.0378732 -0.00277324)
(10.1394 0.0345632 0.0189905)
(10.1102 0.0586374 0.0111125)
(10.0892 0.057519 0.00264137)
(10.0973 -0.0328645 0.0123362)
(10.1242 -0.0614003 0.00819885)
(10.1109 0.0194479 -0.00456366)
(10.1097 0.0501193 -0.01286)
(10.1743 0.0118989 0.00722186)
(10.1523 -0.00787036 0.0161719)
(10.1226 -0.0167857 -0.00501337)
(10.1463 0.0129697 -0.0149117)
(10.1485 0.0156433 0.00234671)
(10.1326 -0.0132114 0.0189559)
(10.1564 -0.0196924 -0.0130939)
(10.1707 -0.0158026 -0.0198159)
(10.1838 -0.00570846 0.00676579)
(10.1419 -0.0189788 0.0213654)
(10.0981 -0.0146622 0.0231193)
(10.1046 -0.00393199 0.000682097)
(10.1183 -0.00698205 -0.0191553)
(10.1412 0.0264257 0.00234833)
(10.1443 0.0389183 0.00506561)
(10.1456 0.00885946 -0.00270704)
(10.1398 -0.0104455 0.0127358)
(10.136 -0.00287877 0.0195776)
(10.1438 -0.000224746 -0.00446313)
(10.1425 -0.00269381 -0.0408103)
(10.1191 0.0173417 0.0189909)
(10.122 0.0131404 0.0567445)
(10.1389 -0.03847 0.0312904)
(10.139 -0.0678177 0.00158771)
(10.1336 -0.0142702 0.00981629)
(10.0737 0.0566565 0.0208227)
(10.0854 0.0755699 0.0104285)
(10.1158 0.0357932 -0.0162118)
(10.1364 -0.0377249 -0.0203034)
(10.1151 -0.0259831 -0.0110826)
(10.1181 0.0455673 0.0344607)
(10.1183 0.0394826 0.0366524)
(10.1703 -0.0142852 0.0112154)
(10.1404 -0.0195057 -0.0125723)
(10.1238 -0.0129333 -0.0290729)
(10.1529 0.014599 -0.000716727)
(10.1565 0.0172516 0.00993839)
(10.1606 0.0107348 0.00397399)
(10.1675 -0.02565 -0.0134127)
(10.1591 -0.0288532 -0.014472)
(10.1295 -0.0184728 0.00989692)
(10.1072 0.00186148 -0.00542061)
(10.0925 0.014362 -0.0240416)
(10.0858 0.00401415 -0.016721)
(10.0787 0.00654015 -0.013972)
(10.1138 0.016772 0.00251989)
(10.1342 0.0291441 -0.00283056)
(10.1237 0.0183274 -0.0136935)
(10.1263 0.0166133 -0.0127959)
(10.0996 -0.00352062 0.00772893)
(10.0923 -0.0144676 0.0085084)
(10.1239 0.0213414 -0.00260867)
(10.1294 0.0281177 -0.00140732)
(10.1529 0.0216474 0.00424522)
(10.1666 -0.0370585 0.015727)
(10.1631 -0.0539047 0.0165223)
(10.129 -0.0187469 0.0188551)
(10.055 -0.00909447 -0.0210384)
(10.0357 -0.00411612 -0.0134402)
(10.0598 0.0172066 0.0074003)
(10.1267 0.040748 -0.0155559)
(10.1459 0.0469562 0.0069163)
(10.1178 0.0272836 0.0247273)
(10.1167 -0.000366402 0.0260198)
(10.1672 -0.0139003 -0.022575)
(10.1357 -0.00605379 -0.0219013)
(10.1183 0.00534673 -0.00991429)
(10.1647 0.00529232 -0.00311503)
(10.1668 0.000450773 0.00784396)
(10.1401 0.012299 -0.00138471)
(10.1433 -0.000924932 -0.0157342)
(10.1568 -0.00956136 -0.00937945)
(10.1509 -0.000221937 0.0179267)
(10.1422 -0.00877694 0.00844116)
(10.13 -0.0322156 0.000633474)
(10.1095 -0.0239161 0.0215222)
(10.0985 0.0185026 0.0360942)
(10.1082 0.0210345 0.034137)
(10.1374 -0.0109083 -0.0256836)
(10.1471 -0.0225557 -0.0220726)
(10.1275 -0.0182412 -0.00841033)
(10.1023 0.0301713 0.0132273)
(10.1284 0.042901 0.0368985)
(10.163 0.0122152 -0.0156352)
(10.1463 0.00156258 -0.0345535)
(10.1576 0.0114287 -0.0463295)
(10.1751 -0.02678 -0.0171853)
(9.91464 -0.0204217 -0.00135533)
(9.9231 -0.0117571 -0.00318392)
(9.89628 -0.0153247 -0.0110372)
(9.84905 0.017895 0.0307302)
(9.87999 0.0498043 0.0485255)
(9.9365 0.0432471 0.00535343)
(9.95738 0.0103734 -0.024128)
(9.95226 0.00293573 0.0223058)
(9.96414 0.00623646 0.0310107)
(9.96584 0.00864395 -0.0314098)
(9.9361 0.00582699 -0.0226442)
(9.932 0.00624103 0.0113466)
(9.98303 -0.00811793 0.0136336)
(9.99075 -0.00630328 0.0113809)
(10.0033 0.00956529 -0.00385639)
(9.97879 0.00350584 -0.0242295)
(9.97067 0.000828853 -0.0156383)
(9.98792 0.00967882 0.0269582)
(9.97735 0.00804844 0.0159501)
(9.97952 -0.0138622 -0.010514)
(9.99794 -0.00435357 6.21075e-05)
(9.9981 0.0260131 0.00547157)
(9.99961 0.0220442 0.00334069)
(9.98762 -0.00565595 -0.0203557)
(9.97671 -0.00117965 -0.0178188)
(9.92469 0.00627693 -0.0065484)
(9.91154 0.0160245 -0.0220546)
(10.0013 0.0259492 0.00298207)
(10.054 -0.0275672 0.0555654)
(10.022 -0.053738 0.0485512)
(9.96297 -0.0311831 -0.0408831)
(9.92774 -0.0225081 -0.0190378)
)
;

boundaryField
{
    wall
    {
        type            fixedValue;
        value           uniform (0 0 0);
    }
    outlet
    {
        type            cyclic;
    }
    inlet
    {
        type            cyclic;
    }
    procBoundary1to0
    {
        type            processor;
        value           nonuniform List<vector> 
256
(
(10.0012 0.0119631 -0.0120223)
(10.0086 0.00386935 -0.0073983)
(10.0132 -0.0129788 0.00384596)
(9.94767 -0.00414047 0.00184763)
(9.89725 0.0091754 -0.00485829)
(9.93731 0.011125 0.0457128)
(9.94678 0.0108561 0.0652432)
(9.91488 0.00158481 0.0130946)
(9.92303 -0.0009735 -0.00182533)
(9.98831 -0.00020662 -0.017632)
(9.97692 0.00424881 -0.0334559)
(9.97656 0.00739254 -0.0304811)
(9.95862 0.00445085 0.0158116)
(9.94186 0.0017841 0.0149843)
(9.933 0.00277728 -0.000613126)
(9.9492 0.012654 -0.0182901)
(9.96745 0.018295 -0.0149783)
(9.9855 -0.00905817 -0.00081324)
(9.95586 -0.0290285 0.0195922)
(9.95085 -0.0157708 0.0175837)
(9.93456 0.000138255 -0.0129596)
(9.9244 0.00073089 -0.0311673)
(9.95406 0.00388976 -0.00426319)
(9.99079 -0.00610459 0.0230727)
(9.97484 0.00412791 -0.00379466)
(9.95854 0.0180877 -0.0180064)
(9.95563 0.00939765 0.0176638)
(9.95534 0.00142016 0.0142121)
(9.93803 -0.0111578 -0.00663821)
(9.93685 -0.00713111 0.00182826)
(9.91787 -0.00143732 0.0200903)
(9.92307 -0.00349128 0.0133575)
(10.1489 -0.00636707 -0.0178478)
(10.1936 0.00312855 0.0255254)
(10.2145 0.00316701 0.0264748)
(10.1649 0.00827089 -0.0143754)
(10.1256 0.00925517 -0.0191716)
(10.1241 0.00986559 0.0229021)
(10.1146 0.0103071 0.0361784)
(10.0821 -0.0138601 8.02857e-05)
(10.1012 -0.0168415 -0.0156768)
(10.1586 -0.0143738 -0.0135689)
(10.1461 -0.00965268 -0.0141576)
(10.1436 -0.0050145 -0.00926469)
(10.1424 -0.00978093 0.017402)
(10.1339 -0.0109601 0.0120522)
(10.1282 -0.00576079 -0.00551828)
(10.126 0.00593798 -0.00400934)
(10.151 0.0155033 -0.00417884)
(10.1284 0.00301761 -0.00427605)
(10.0906 -0.00960987 0.00703049)
(10.0969 -0.0106039 0.020892)
(10.0942 0.00144321 0.00816169)
(10.1056 0.0369037 -0.026904)
(10.1294 0.0160975 -0.00790026)
(10.1636 -0.034495 0.018447)
(10.1582 -0.0104171 0.00159883)
(10.1378 0.037492 -0.0118524)
(10.1307 0.0226395 0.00898706)
(10.1398 -0.00876968 -0.00137024)
(10.124 -0.0178389 -0.00248017)
(10.0994 -0.00583476 0.027045)
(10.0834 -0.012403 0.0278724)
(10.104 -0.0159732 -0.00447681)
(10.1701 -0.0515917 -0.0310569)
(10.1974 -0.0228358 0.00969768)
(10.1977 0.00441689 0.0211044)
(10.1608 0.0503887 0.0042833)
(10.1334 0.066839 0.00214825)
(10.1354 0.0355503 0.0288002)
(10.1198 0.00735413 0.0359595)
(10.1206 -0.0441207 -0.00763591)
(10.1508 -0.0445301 -0.0187056)
(10.1848 -0.0152161 -0.017621)
(10.1497 0.00519623 -0.00319377)
(10.1532 0.00907602 -0.0204367)
(10.163 0.00694966 -0.0200272)
(10.1518 0.0139201 0.0251822)
(10.1458 0.0100239 0.0201424)
(10.1511 0.0123212 0.00984411)
(10.0991 -0.00764836 -0.00616503)
(10.083 -0.0163681 -0.00503121)
(10.0929 0.00211254 0.00755194)
(10.0962 0.0088109 0.00121792)
(10.0926 0.0139836 -0.0167297)
(10.113 0.0155955 -0.0277409)
(10.1226 -7.23902e-05 -0.0120858)
(10.1455 -0.0138684 0.00617778)
(10.1501 0.0044615 -0.0176059)
(10.1485 0.0236697 -0.0450515)
(10.1405 -0.00241036 0.00235278)
(10.1502 -0.0183878 0.0297463)
(10.1139 0.0177198 0.0346977)
(10.0865 0.0461313 0.0376382)
(10.0733 0.00763016 0.0289341)
(10.1368 -0.0313056 -0.0167046)
(10.1493 -0.0712166 -0.0125198)
(10.1743 -0.0339141 0.018474)
(10.14 0.0217983 0.0120771)
(10.1131 0.0526034 0.00941774)
(10.1397 0.0393127 0.0158981)
(10.2047 -0.00680718 0.0096193)
(10.1311 -0.04977 -0.0111669)
(10.0856 -0.0567237 -0.0174831)
(10.1228 -0.0238162 -0.0129941)
(10.2149 0.0380543 -0.00343718)
(10.195 0.0374611 -0.00317458)
(10.168 0.0232761 -0.00411657)
(10.1683 0.0159477 0.000546367)
(10.1245 -0.00221415 0.0028647)
(10.1023 -0.00848182 0.0110209)
(10.0739 -0.0155722 0.0254655)
(10.0481 -0.0202169 0.0116779)
(10.0536 -0.0194478 -0.00702521)
(10.1237 -0.0105264 -0.00277286)
(10.1283 -0.000283903 -0.00831648)
(10.1299 0.00110591 -0.0100649)
(10.1426 -0.0329332 -0.0198153)
(10.1205 -0.0257945 -0.000358414)
(10.1106 -0.00742114 0.0104678)
(10.1124 -0.00110091 -0.0127526)
(10.1065 -0.00851606 -0.0108935)
(10.1189 -0.0181555 0.0107433)
(10.1404 0.0111984 0.0160083)
(10.149 0.053302 -0.00130226)
(10.1378 0.0772283 0.0220635)
(10.1298 0.0464907 0.0218293)
(10.1495 -0.0638247 -0.0156585)
(10.1503 -0.037597 0.0208667)
(10.166 -0.0189501 -0.0175685)
(10.1187 -0.00943308 -0.0243023)
(10.0892 0.0418697 0.0280811)
(10.1189 0.0393014 0.0396428)
(10.1799 0.0023625 0.0338359)
(10.1468 -0.050843 0.0219627)
(10.1104 -0.0407775 0.0127584)
(10.1472 0.0245526 -0.0177701)
(10.1645 0.0479074 -0.0352186)
(10.1513 0.032078 -0.0155784)
(10.1592 -0.00655963 0.010423)
(10.16 -0.0150964 0.00268155)
(10.1484 -0.0189075 -0.00852371)
(10.1487 -0.0173655 -0.00263285)
(10.1479 -0.018123 0.0326253)
(10.117 -0.0132834 0.0195723)
(10.1121 0.00584171 -0.00243061)
(10.1192 0.00929389 -0.010351)
(10.1297 0.000271908 0.00744654)
(10.1394 -0.0362588 0.0117274)
(10.1355 -0.0424919 -0.0043508)
(10.1089 0.00772902 -0.0090598)
(10.1033 0.0348926 -0.000553787)
(10.0915 0.026142 0.00188248)
(10.0921 0.00546061 -0.00257592)
(10.1148 0.0180837 0.00276308)
(10.1733 0.0105414 -0.010576)
(10.1736 0.00619532 -0.0216006)
(10.126 0.034931 0.00472213)
(10.1086 0.0288055 0.0261302)
(10.1219 -0.0337138 0.0381998)
(10.1598 -0.037567 -0.00518489)
(10.2381 0.0359298 -0.0282071)
(10.2225 0.0397064 -0.0176985)
(10.1478 -0.00438405 0.0163339)
(10.1257 -0.0183342 0.015949)
(10.0974 -0.0405671 0.0202931)
(10.104 -0.0408945 0.0255268)
(10.0918 -0.0151293 0.009059)
(10.1272 0.0248503 -0.033586)
(10.1497 0.0356551 -0.0377591)
(10.1428 0.0227023 -0.00134149)
(10.1446 -0.010131 0.0155843)
(10.1615 -0.0174335 0.0131697)
(10.1799 -0.00865534 0.00845636)
(10.1715 -0.00746169 0.0120099)
(10.1645 -0.0173902 0.0136882)
(10.1145 -0.00412755 -0.0050467)
(10.1034 0.00179222 -0.00925554)
(10.1298 0.0108573 -0.00536737)
(10.1348 0.00481104 -0.00811225)
(10.1293 -0.0352115 -0.00617228)
(10.1178 -0.0359884 -0.0307264)
(10.1213 -0.010434 -0.0382429)
(10.158 0.0430554 0.0160831)
(10.1778 0.0219093 0.023146)
(10.1748 0.0107814 0.00651043)
(10.1138 0.00991 0.00713766)
(10.101 0.00111404 0.00848295)
(10.1138 0.00876529 -0.0114219)
(10.1094 0.0108632 -0.0171835)
(10.1104 0.00343339 -0.0134549)
(10.1039 -0.0595684 -0.00233934)
(10.1369 -0.0825308 -0.0268149)
(10.1468 -0.0322528 -0.0264446)
(10.115 0.0245748 0.00120993)
(10.0135 0.0644986 0.0248171)
(10.0161 0.0207949 0.00843235)
(10.074 -0.0364301 -0.00124434)
(10.1278 -0.0363091 0.0231499)
(10.1419 -0.0125769 0.0204175)
(10.1671 0.0110113 -0.0337409)
(10.162 0.0185556 -0.0368258)
(10.1483 0.00464165 -0.00818267)
(10.1593 -0.0122845 0.0174823)
(10.1775 -0.00497971 0.0245213)
(10.1858 0.00591801 0.00779295)
(10.1647 0.000130051 -0.0022229)
(10.1227 -0.0212341 0.00228308)
(10.1281 -0.0138017 0.00012922)
(10.1527 0.0133911 0.00519363)
(10.1535 0.00385475 0.00815664)
(10.1207 -0.00939427 0.010557)
(10.09 -0.0250275 0.00660911)
(10.0878 -0.0248218 -0.0215506)
(10.135 -0.00875533 -0.0139583)
(10.1591 0.0382744 0.0112153)
(10.1715 0.0254056 0.00918108)
(10.1625 0.00422817 -0.00495841)
(10.1074 0.0203297 -0.000833516)
(10.095 0.0282653 0.00429615)
(10.1406 0.00558814 -0.00679147)
(10.15 -0.00448697 -0.00895106)
(10.144 0.0211869 -0.0171329)
(10.1552 -0.0151945 -0.0215121)
(9.9905 -0.0274825 -0.0149355)
(9.9855 -0.00317732 -0.0249317)
(9.92265 0.0265391 0.00297681)
(9.84765 0.0325832 0.0282625)
(9.89021 0.0104658 0.0074966)
(9.96228 0.00475764 0.00698841)
(9.94185 0.00999737 0.0228512)
(9.94811 0.0135134 0.0354989)
(10.0273 0.00504635 -0.0181581)
(10.0311 0.00972542 -0.0386319)
(9.98542 0.00329806 -0.0131648)
(9.96827 -0.00671618 0.0249034)
(9.98319 -0.00495811 0.02806)
(9.99742 -0.000587865 0.00216717)
(9.98143 -0.00123583 -0.00338302)
(9.94232 0.000119507 0.00220524)
(9.95106 0.00163617 -0.00369013)
(9.96921 0.00462275 -0.00505773)
(9.96464 -0.000570619 -1.89535e-05)
(9.93477 -0.00462326 0.0144123)
(9.92479 -0.00830398 0.0215402)
(9.92058 -0.00341962 0.000871872)
(9.98848 -0.01195 -0.024377)
(10.0207 0.0211882 -0.00965983)
(10.0341 0.0437061 0.00860944)
(9.94129 0.0191617 0.00321326)
(9.91184 0.0152931 -0.000991081)
(9.99535 0.0159342 0.00606809)
(10.0119 -0.0120566 0.00526479)
(9.9672 -0.0320098 0.00612603)
(9.92225 -0.0212468 -0.0152605)
(9.93256 -0.0304641 -0.0235175)
)
;
    }
    procBoundary1to2
    {
        type            processor;
        value           nonuniform List<vector> 
256
(
(9.97831 -0.0136178 0.0277238)
(9.94831 -0.0160133 -0.0351628)
(9.95068 0.00480722 -0.0434185)
(9.98164 -0.0074659 0.0137629)
(9.97164 -0.00769884 0.0336805)
(9.98992 -0.00457861 -0.0110002)
(9.96236 -0.00578341 -0.114595)
(9.93745 -0.00889982 -0.104988)
(9.9784 -0.00401671 -0.0397958)
(10.0181 -0.00261178 0.0398626)
(9.96671 0.0107747 0.0508163)
(9.95674 0.0202449 0.0450859)
(9.99831 0.00604208 -0.0252902)
(9.9929 0.00350817 -0.0355117)
(9.97952 0.0152052 0.00068264)
(9.98595 0.00232564 0.0193019)
(9.99694 0.00385616 0.0141666)
(9.98651 0.0010277 -0.0239568)
(9.96936 -0.0131285 -0.0486719)
(9.94375 -0.00202221 -0.0388895)
(9.89137 0.00572968 0.00846026)
(9.8827 0.00246422 0.0217307)
(9.89543 -0.00519451 0.0010666)
(9.9858 -0.00289179 -0.0334892)
(9.97643 -0.00502953 -0.0264957)
(9.93899 -0.00461143 0.0109771)
(9.96313 -0.0052282 0.0130325)
(10.0099 0.00497398 -0.00822436)
(9.96056 0.00188702 -0.0133578)
(9.94618 -0.0108256 -0.0159181)
(9.99756 0.00789163 0.0297112)
(10.0133 0.00402658 0.0664935)
(10.0745 0.00349932 0.0120446)
(10.0759 0.0340359 -0.00134054)
(10.081 0.0648493 0.000533447)
(10.112 0.0289571 0.0206218)
(10.162 -0.0142484 0.0394939)
(10.2013 -0.01947 0.0131323)
(10.1616 -0.0232893 -0.0524197)
(10.0957 -0.0300034 -0.0496529)
(10.1396 -0.0181401 -0.00184276)
(10.1792 -0.00753526 0.0216055)
(10.1518 0.00525426 0.0260794)
(10.1534 0.00660371 0.0259625)
(10.1615 -0.00821333 -0.00403502)
(10.1293 0.0120344 -0.0210401)
(10.1171 0.0293857 -0.0174234)
(10.1395 -0.0108349 0.0109439)
(10.1515 -0.0194444 0.0172505)
(10.1714 -0.00111054 -0.0263934)
(10.175 0.00291204 -0.0304845)
(10.1388 -0.00392183 -0.0241349)
(10.1371 -0.00775454 -0.0218094)
(10.1165 -0.00839224 -0.00243738)
(10.0703 -0.00647778 0.0326489)
(10.1197 -0.0147715 0.00132702)
(10.1262 -0.0255792 -0.00515699)
(10.1068 -0.0264911 0.0116554)
(10.1247 -0.0149582 -0.00216521)
(10.1504 -0.00304757 -0.0234732)
(10.1461 0.00104577 -0.00142767)
(10.1462 -0.0022522 0.00607757)
(10.1159 -0.00348182 0.009261)
(10.0785 -0.00384083 0.0225607)
(10.1129 -0.0185525 -0.00604045)
(10.0892 0.024966 -0.000262574)
(10.0583 0.0478135 0.0183813)
(10.1325 0.00972058 0.0084345)
(10.2123 -0.00858522 0.0198241)
(10.2404 -0.00181299 0.00562709)
(10.1948 0.0126365 -0.0424226)
(10.0878 0.00123246 -0.0432508)
(10.1153 -0.019529 -0.016699)
(10.1556 -0.028609 0.0118237)
(10.115 0.0137404 0.0131234)
(10.0945 0.0370671 0.0097904)
(10.1715 0.0289614 -0.00318964)
(10.1912 0.012823 -0.0117152)
(10.1955 0.00689876 -0.00652809)
(10.0949 -0.00247671 -0.00152691)
(10.0783 -0.00457609 -0.0114759)
(10.1303 -0.00953774 -0.0128304)
(10.1204 -0.0115231 -0.00934386)
(10.1227 -0.0158181 -0.0150153)
(10.1175 -0.0288381 -0.0178964)
(10.0816 0.00476622 0.008617)
(10.0832 0.0316823 0.0228328)
(10.1189 -0.00170694 0.00784955)
(10.1225 -0.0318093 -0.0147873)
(10.1468 -0.0221192 -0.00191795)
(10.1553 0.00434332 -0.00601802)
(10.1392 0.0297726 -0.0166666)
(10.1296 0.010532 0.008851)
(10.1354 -0.0135241 0.0280546)
(10.1064 -0.0402986 0.0304363)
(10.0872 -0.0630515 0.0221502)
(10.1669 0.0401673 0.00198812)
(10.1658 -0.0167962 0.00272774)
(10.1422 -0.013692 0.00309671)
(10.128 0.0147044 0.0152025)
(10.1518 -0.00609836 0.0106575)
(10.1691 -0.0161188 -0.0192458)
(10.1551 0.000551569 -0.0247213)
(10.1575 0.00525044 0.000457569)
(10.1412 -0.0389421 0.000552774)
(10.1426 -0.0656527 0.0142545)
(10.1538 0.013059 0.0424097)
(10.153 0.0433067 0.0369835)
(10.1752 -0.00330136 0.0114099)
(10.1669 -0.0248356 -0.000675449)
(10.1072 0.0111004 -0.0149712)
(10.0926 0.032146 -0.00919744)
(10.1043 0.0278212 0.00083888)
(10.159 -0.0046523 -0.00706852)
(10.1546 -0.0175207 -0.0118627)
(10.1543 0.00520167 -0.0311091)
(10.1459 -0.00045848 -0.0256051)
(10.1248 -0.0322024 0.00488579)
(10.1416 -0.0122253 0.00738449)
(10.1474 0.00975377 -0.0164941)
(10.137 0.0146607 -0.0159328)
(10.1127 0.0162294 -0.00749234)
(10.1082 -5.40427e-05 -0.0103013)
(10.149 -0.0225614 -0.000670629)
(10.1146 -0.0302861 0.0157874)
(10.0981 -0.0443367 0.0214787)
(10.1111 -0.0520935 0.0332053)
(10.1596 0.0253412 0.0220893)
(10.1479 0.014231 -0.0116909)
(10.1357 0.0604029 -0.0100368)
(10.0928 0.0545691 0.00931307)
(10.0831 0.0381318 0.0160628)
(10.1049 0.0266177 -0.00406523)
(10.1225 -0.0265147 -0.00700014)
(10.1316 -0.0225463 -0.00378091)
(10.1714 0.0229761 0.00991398)
(10.1299 0.037395 -0.0149078)
(10.1267 0.0287978 -0.0263669)
(10.1696 -0.0207038 0.00766717)
(10.1699 -0.0309235 0.0150251)
(10.168 0.00360871 -0.0105934)
(10.1492 0.0398868 -0.0146599)