FoamFile
{version 2.0; format ascii;class Cloud<passiveParticle>; location 0;object  positions;}
2510
(
( 0.00588898 5.25689e-06 0.000499411 ) 0 
( 0.00608166 1.29359e-05 0.00555232 ) 0 
( 0.0023244 0.000196269 0.00049955 ) 0 
( 0.00113283 0.000126035 0.00712537 ) 0 
( 0.0090708 3.22793e-05 0.00574105 ) 0 
( 0.00929867 0.000115472 0.00475106 ) 0 
( 0.0124749 4.84014e-05 0.000499585 ) 0 
( 0.000878734 0.000685861 0.00149547 ) 0 
( 0.00683543 0.000162963 0.00178603 ) 0 
( 0.0100353 0.000119254 0.0054921 ) 0 
( 0.00918807 0.000318893 0.0106047 ) 0 
( 0.0123826 0.00021193 0.0143748 ) 0 
( 0.00115989 0.000111674 0.0139145 ) 0 
( 0.00255776 0.000505092 0.0147425 ) 0 
( 0.00573497 0.00136853 0.0147879 ) 0 
( 0.00664385 0.00103812 0.0145342 ) 0 
( 0.00892629 0.00026074 0.0134507 ) 0 
( 0.00946501 0.000503765 0.0146677 ) 0 
( 0.0113696 8.21307e-05 0.0130887 ) 0 
( 0.0133381 0.000577581 0.00801616 ) 0 
( 0.00463321 0.00072083 0.0148754 ) 0 
( 0.012446 1.70235e-06 0.00909538 ) 0 
( 0.00941909 0.00187091 0.0146697 ) 0 
( 0.0100236 0.00040191 0.0111473 ) 0 
( 0.00789391 4.70714e-05 0.00920519 ) 0 
( 0.0072579 0.00573947 0.0152682 ) 0 
( 0.00402929 0.00837844 0.0146483 ) 0 
( 0.00830248 0.000296028 0.0149621 ) 0 
( 0.00203038 0.000793187 0.0130366 ) 0 
( 0.00214896 0.000248984 0.0138668 ) 0 
( 0.0119351 0.00106491 0.0141028 ) 0 
( 0.0114723 0.000268955 0.0147842 ) 0 
( 0.0104876 5.95624e-05 0.014563 ) 0 
( 0.00236749 0.000171872 0.00911637 ) 0 
( 0.00346874 0.00373873 0.00261126 ) 0 
( 0.00173271 0.00543149 0.00796596 ) 0 
( 0.000205229 0.0127423 0.00570966 ) 0 
( 0.00705558 0.00503951 0.00213566 ) 0 
( 0.00680934 0.00472308 0.00534946 ) 0 
( 0.00899467 0.00551599 0.006756 ) 0 
( 0.000370698 0.0133345 0.00357159 ) 0 
( 0.00617855 0.00338737 0.0043217 ) 0 
( 0.00549136 0.012135 0.00478896 ) 0 
( 0.0103046 0.00531078 0.00565181 ) 0 
( 0.000914674 0.00731421 0.00451801 ) 0 
( 0.00713081 0.0103232 0.000499657 ) 0 
( 0.00638708 0.00978152 0.00162407 ) 0 
( 0.00229932 0.0123086 0.00410587 ) 0 
( 0.00188065 0.00315182 0.000499707 ) 0 
( 0.00442468 0.00760534 0.00185141 ) 0 
( 0.0107473 0.00372887 0.00382429 ) 0 
( 0.0113047 0.00533773 0.00568408 ) 0 
( 0.00473661 0.00333871 0.0041522 ) 0 
( 0.00824508 0.00272543 0.00679745 ) 0 
( 0.00877827 0.00265681 0.00488389 ) 0 
( 0.00261788 0.0100404 0.00629462 ) 0 
( 0.00723817 0.00683142 0.00119199 ) 0 
( 0.00674352 0.00464725 0.00415807 ) 0 
( 0.00553606 0.00768476 0.00325517 ) 0 
( 0.00373868 0.0128124 0.00579928 ) 0 
( 0.00253177 0.00798378 0.00303233 ) 0 
( 0.0116716 0.00437549 0.000499513 ) 0 
( 0.00109026 0.00228131 0.00331938 ) 0 
( 0.00530743 0.00688191 0.00459426 ) 0 
( 0.0109951 0.00372802 0.000849062 ) 0 
( 0.00934093 0.0022107 0.00418802 ) 0 
( 0.00275084 0.0014776 0.00630494 ) 0 
( 0.00681142 0.000160918 0.00847448 ) 0 
( 0.000875222 0.0060572 0.00476503 ) 0 
( 0.00184767 0.00814637 0.00788204 ) 0 
( 0.00155654 0.00796027 0.00280175 ) 0 
( 0.00906015 0.00979905 0.00428338 ) 0 
( 0.0128539 0.00360643 0.00660744 ) 0 
( 0.00256872 0.00710796 0.00130854 ) 0 
( 0.00992381 0.00320425 0.00548399 ) 0 
( 0.00275748 0.000679795 0.00126015 ) 0 
( 0.00721419 0.00570157 0.00576322 ) 0 
( 0.00581544 0.00470486 0.00573134 ) 0 
( 0.000719724 0.000361864 0.00247392 ) 0 
( 0.00117743 0.00588781 0.00570306 ) 0 
( 0.00872175 0.00129301 0.00692948 ) 0 
( 0.00143133 0.0118835 0.00439775 ) 0 
( 0.00296914 0.00801197 0.004024 ) 0 
( 0.00749371 0.00213711 0.00556827 ) 0 
( 0.00900245 0.00985791 0.00772675 ) 0 
( 0.0121137 0.0040962 0.0022057 ) 0 
( 0.00569742 0.00820229 0.0065068 ) 0 
( 0.00293319 0.00708108 0.00287079 ) 0 
( 0.00805969 0.00055372 0.00726094 ) 0 
( 0.0100165 0.00525942 0.00312494 ) 0 
( 0.000342308 0.0037303 0.00627215 ) 0 
( 0.0027291 0.00098822 0.00543321 ) 0 
( 0.00398598 0.01014 0.00322335 ) 0 
( 0.00356532 0.00216138 0.00193904 ) 0 
( 0.00579005 0.00504747 0.00361822 ) 0 
( 0.00825918 0.0013603 0.00781641 ) 0 
( 0.00315699 0.0123932 0.00509923 ) 0 
( 0.0013546 0.00886556 0.00332955 ) 0 
( 0.000905941 0.0123068 0.00514146 ) 0 
( 0.0058634 0.00415333 0.00311921 ) 0 
( 0.00777649 0.00287409 0.00495472 ) 0 
( 0.00189888 0.00999442 0.000499798 ) 0 
( 0.00906566 0.00847866 0.00408755 ) 0 
( 0.00491943 0.00495036 0.00807073 ) 0 
( 0.00938808 7.80982e-05 0.00230794 ) 0 
( 0.00476841 0.00723206 0.00706152 ) 0 
( 0.00223109 0.00522573 0.0071241 ) 0 
( 0.010243 0.00853521 0.00381415 ) 0 
( 0.00471938 0.00121798 0.00596381 ) 0 
( 0.00693736 0.00360797 0.00749285 ) 0 
( 0.00695033 0.00668107 0.00421476 ) 0 
( 0.000787081 0.00774585 0.00645902 ) 0 
( 0.0063993 0.00641868 0.00206925 ) 0 
( 0.000633593 0.00287086 0.0026324 ) 0 
( 0.0118768 0.00609359 0.00600216 ) 0 
( 0.000921634 0.00126999 0.00480549 ) 0 
( 0.00710318 0.0102262 0.00716224 ) 0 
( 0.00104889 0.00294055 0.0016869 ) 0 
( 0.00801546 0.0106759 0.00203103 ) 0 
( 0.00458603 0.00344848 0.0060135 ) 0 
( 0.00360955 0.0114111 0.0072055 ) 0 
( 0.0111353 0.00133854 0.00440558 ) 0 
( 0.000757252 0.0133288 0.00049974 ) 0 
( 0.00218576 0.000638301 0.00619618 ) 0 
( 0.000543594 0.00912358 0.00275899 ) 0 
( 0.00673471 0.000697914 0.00049966 ) 0 
( 0.00498094 0.00197748 0.00655891 ) 0 
( 0.003355 0.00513346 0.00128814 ) 0 
( 0.000892844 0.00455034 0.00611769 ) 0 
( 0.000904688 0.00339047 0.00049959 ) 0 
( 0.0114665 0.00291005 0.000499545 ) 0 
( 0.00470124 0.0115058 0.00599896 ) 0 
( 0.00318982 0.00565885 0.00726002 ) 0 
( 0.00268241 0.00114693 0.00310776 ) 0 
( 0.00841198 0.0024773 0.00132666 ) 0 
( 0.00647663 0.00662583 0.00584796 ) 0 
( 0.0122717 0.00524937 0.00374645 ) 0 
( 0.00252099 0.0114017 0.0029981 ) 0 
( 0.00453501 0.00102888 0.00218201 ) 0 
( 0.00259447 0.0112104 0.000499624 ) 0 
( 0.0123541 0.00505969 0.00472471 ) 0 
( 0.000877502 0.00793346 0.00201221 ) 0 
( 0.00454551 0.00911032 0.00502248 ) 0 
( 0.00268613 0.00548452 0.00450996 ) 0 
( 0.00325676 0.00940237 0.00308556 ) 0 
( 0.00491779 0.00946425 0.00257407 ) 0 
( 0.00370412 0.00963589 0.00514776 ) 0 
( 0.00316875 0.00433353 0.00186523 ) 0 
( 0.006409 0.0107049 0.0055718 ) 0 
( 0.0110902 0.00742296 0.00482492 ) 0 
( 0.00708734 0.00103415 0.00220682 ) 0 
( 0.00703899 0.00848263 0.0039287 ) 0 
( 0.0108951 0.00532418 0.00138808 ) 0 
( 0.00944889 0.0081682 0.00496356 ) 0 
( 0.0129419 0.00327506 0.00240538 ) 0 
( 0.000435039 0.00899456 0.00376099 ) 0 
( 0.00391603 0.0127071 0.000499934 ) 0 
( 0.00876578 0.010069 0.00229243 ) 0 
( 0.00197728 0.00915754 0.00118729 ) 0 
( 0.00616357 0.00536444 0.00466706 ) 0 
( 0.00684816 0.00381757 0.00492714 ) 0 
( 0.00791495 0.00720436 0.00206555 ) 0 
( 0.000382527 0.0106956 0.00663127 ) 0 
( 7.44314e-05 0.00170904 0.00654966 ) 0 
( 0.0124354 0.00429297 0.00536128 ) 0 
( 0.0104366 0.0018933 0.00146602 ) 0 
( 0.0119798 0.00086813 0.000786201 ) 0 
( 0.0111729 0.00195432 0.000499733 ) 0 
( 0.00558129 0.000823628 0.00730554 ) 0 
( 0.00879231 0.000434053 0.00390418 ) 0 
( 0.0100368 0.001997 0.00237671 ) 0 
( 0.00177461 0.00782985 0.00659783 ) 0 
( 0.0080598 0.00867633 0.00368358 ) 0 
( 0.00862339 0.00634306 0.00234864 ) 0 
( 0.00652873 0.00276933 0.00604658 ) 0 
( 0.00594485 0.0039838 0.0014971 ) 0 
( 0.000695379 0.00314037 0.00554617 ) 0 
( 0.00861056 0.00444663 0.00514457 ) 0 
( 0.00226421 0.0123039 0.000499746 ) 0 
( 0.0122139 0.00456237 0.00131847 ) 0 
( 0.00628039 0.0034335 0.00675156 ) 0 
( 0.00457185 0.00804552 0.00760821 ) 0 
( 0.0089364 0.00750106 0.00425371 ) 0 
( 0.0061113 0.00223655 0.00405276 ) 0 
( 0.000976747 0.004144 0.00420184 ) 0 
( 0.0104981 0.00674398 0.0026614 ) 0 
( 0.00401249 0.00360721 0.00702256 ) 0 
( 0.000252462 0.00454696 0.00696571 ) 0 
( 0.0036205 0.00538311 0.00381151 ) 0 
( 0.0120049 0.00118267 0.00393771 ) 0 
( 0.0022347 0.00134581 0.00449538 ) 0 
( 0.00854005 0.0089939 0.00170083 ) 0 
( 0.00320245 0.0108817 0.00385007 ) 0 
( 0.00232066 0.0122368 0.0065373 ) 0 
( 0.010383 0.00839163 0.00141506 ) 0 
( 0.00267141 0.00413247 0.00319269 ) 0 
( 0.000769608 0.0119712 0.00310138 ) 0 
( 0.00165813 0.0061236 0.00321004 ) 0 
( 0.00369635 0.00277423 0.0027584 ) 0 
( 0.00505371 0.000136971 0.00574419 ) 0 
( 0.00645417 0.000327315 0.00738957 ) 0 
( 0.00756026 0.000690441 0.00134275 ) 0 
( 0.00999557 0.00532719 0.000499678 ) 0 
( 0.00647769 0.00481511 0.00131646 ) 0 
( 0.00175909 0.0123535 0.00142728 ) 0 
( 0.00630595 0.011767 0.00238873 ) 0 
( 0.00434971 0.00880984 0.00309347 ) 0 
( 0.00516036 0.0113757 0.0038495 ) 0 
( 0.00317116 0.0103788 0.00471383 ) 0 
( 0.00301613 0.0111241 0.00198529 ) 0 
( 0.00388382 0.00599324 0.00662264 ) 0 
( 0.00987906 0.00706566 0.00603538 ) 0 
( 0.00461687 0.00301007 0.00511532 ) 0 
( 0.00321498 0.0119944 0.00049975 ) 0 
( 0.00271473 0.00423758 0.00421604 ) 0 
( 0.00467612 0.00958434 0.00368692 ) 0 
( 0.00393578 0.00352549 0.0034742 ) 0 
( 0.00944355 0.000996366 0.00574889 ) 0 
( 0.00401466 0.0108721 0.00450119 ) 0 
( 0.00475776 0.004352 0.000499681 ) 0 
( 0.00344524 0.00839031 0.0030166 ) 0 
( 0.00345245 0.00776341 0.00219739 ) 0 
( 0.00807168 0.00521464 0.00733591 ) 0 
( 0.0074036 0.00839048 0.00678683 ) 0 
( 0.00286582 0.00237761 0.00455012 ) 0 
( 0.000222797 0.00158217 0.00760526 ) 0 
( 0.0070377 0.00827086 0.00578414 ) 0 
( 0.00926365 0.00961293 0.00524454 ) 0 
( 0.0107248 0.000795761 0.00703965 ) 0 
( 0.00406346 0.0028035 0.00761509 ) 0 
( 0.0108909 0.00268644 0.00675678 ) 0 
( 0.00400767 0.0110454 0.00208945 ) 0 
( 0.00565695 0.000184589 0.00389604 ) 0 
( 0.0080373 0.00975398 0.00108839 ) 0 
( 0.00681564 0.0089228 0.00190443 ) 0 
( 0.00509387 0.00567257 0.00133804 ) 0 
( 0.00702702 0.00227802 0.00460548 ) 0 
( 0.00303304 0.00173028 0.00120981 ) 0 
( 0.000254434 0.00652388 0.00413525 ) 0 
( 0.00358278 0.0119614 0.0016585 ) 0 
( 0.00328851 0.00389111 0.00772475 ) 0 
( 0.0106539 0.00632159 0.00749025 ) 0 
( 0.00479972 0.00566467 0.00229707 ) 0 
( 0.00317644 0.000572971 0.00631411 ) 0 
( 0.000525012 0.00263596 0.00654408 ) 0 
( 0.0120337 0.00373606 0.00462733 ) 0 
( 0.00887607 0.00733764 0.00525693 ) 0 
( 0.00528654 0.00676381 0.00247696 ) 0 
( 0.010066 0.00244617 0.00484763 ) 0 
( 0.00750132 0.00750278 0.00049949 ) 0 
( 0.00196536 0.00801973 0.00400889 ) 0 
( 0.0114622 5.61236e-05 0.00146013 ) 0 
( 0.00159404 0.00350179 0.00465631 ) 0 
( 0.0063956 0.00801156 0.00506073 ) 0 
( 0.00360897 0.00126641 0.00263817 ) 0 
( 0.00816742 0.00431873 0.00690296 ) 0 
( 0.0133202 0.000895725 0.0042606 ) 0 
( 0.00281181 0.0130505 0.00218202 ) 0 
( 0.0105047 0.00371137 0.00484769 ) 0 
( 0.00974755 0.00430948 0.000499435 ) 0 
( 0.00442494 0.00533253 0.00729028 ) 0 
( 0.00948944 0.00883987 0.00142759 ) 0 
( 0.00672772 0.00501448 0.00630236 ) 0 
( 0.0106522 0.00628971 0.00147846 ) 0 
( 0.00440389 0.003866 0.00153318 ) 0 
( 9.6583e-06 0.00819875 0.00419188 ) 0 
( 0.00193502 0.00703324 0.0027872 ) 0 
( 0.0030468 0.00471847 0.0050493 ) 0 
( 0.01335 5.36085e-05 0.00136699 ) 0 
( 0.00515597 0.00355457 0.000952637 ) 0 
( 0.00605067 0.00834714 0.00219329 ) 0 
( 0.0055977 0.0121199 0.00578309 ) 0 
( 0.00111044 0.00930679 0.00195405 ) 0 
( 0.00928209 0.00921366 0.00233458 ) 0 
( 0.00217613 0.0108088 0.00372592 ) 0 
( 0.00197717 0.0112898 0.00625059 ) 0 
( 0.00449408 0.0116189 0.00143035 ) 0 
( 0.00175098 0.00504141 0.00626676 ) 0 
( 0.0080491 0.00794745 0.00436819 ) 0 
( 0.00125098 0.00996708 0.00484517 ) 0 
( 0.00310976 0.00726091 0.0047447 ) 0 
( 0.00167482 0.00072833 0.00534148 ) 0 
( 0.0133504 5.17064e-05 0.00562892 ) 0 
( 0.00347979 0.000557482 0.0019407 ) 0 
( 0.0119122 0.00178728 0.00185871 ) 0 
( 0.0105311 6.41498e-05 0.00312855 ) 0 
( 0.00230237 0.00042889 0.00370636 ) 0 
( 0.00732324 0.00764404 0.00346118 ) 0 
( 0.00866568 0.00813315 0.00219382 ) 0 
( 0.011244 0.00526804 0.0038062 ) 0 
( 0.00401876 0.00791949 0.00371349 ) 0 
( 0.004506 0.0120074 0.00305611 ) 0 
( 0.00987794 0.000385746 0.00737693 ) 0 
( 0.00964727 0.00800869 0.00234554 ) 0 
( 0.00428441 0.00627438 0.00049963 ) 0 
( 0.00401105 0.00900657 0.00586158 ) 0 
( 0.0112166 0.00443445 0.00498884 ) 0 
( 0.0133389 0.000551454 0.00049995 ) 0 
( 0.00176953 0.00546607 0.0039549 ) 0 
( 0.00796509 0.00517924 0.00535951 ) 0 
( 4.35996e-05 0.00402036 0.00462026 ) 0 
( 0.00166784 0.00335194 0.00564225 ) 0 
( 0.000420073 0.00135796 0.00209448 ) 0 
( 0.000663621 0.0115621 0.000499794 ) 0 
( 0.00506558 0.00841445 0.00375129 ) 0 
( 0.0100406 0.00344383 0.00317695 ) 0 
( 0.000409493 0.0121918 0.00651904 ) 0 
( 0.00861748 0.00906423 0.00049979 ) 0 
( 0.00880756 0.000448591 0.00137252 ) 0 
( 0.00222584 0.00182974 0.00707948 ) 0 
( 0.00758097 0.00859401 0.00500938 ) 0 
( 0.00183397 0.00397477 0.00371576 ) 0 
( 0.000151551 0.00955855 0.00551669 ) 0 
( 0.00127074 0.00331055 0.00660689 ) 0 
( 0.00390026 0.00517392 0.00212534 ) 0 
( 0.00089955 0.000959889 0.00799856 ) 0 
( 0.00319205 0.00661994 0.00624174 ) 0 
( 0.00178415 0.0131342 0.00547088 ) 0 
( 0.00710279 0.00763825 0.00446048 ) 0 
( 0.00650084 0.000990895 0.00592654 ) 0 
( 0.00251634 0.0037657 0.00136336 ) 0 
( 0.00818279 0.0059853 0.0064097 ) 0 
( 0.00563499 0.00178698 0.00480838 ) 0 
( 0.000936711 0.0105464 0.00560333 ) 0 
( 0.00771918 0.00130932 0.00492791 ) 0 
( 0.00571705 0.00301357 0.00157884 ) 0 
( 0.00655367 0.00183141 0.00538752 ) 0 
( 0.00221279 0.0104794 0.00709633 ) 0 
( 0.00203498 0.00264495 0.00503804 ) 0 
( 0.0110665 0.0074661 0.00722808 ) 0 
( 0.00696324 0.00200897 0.0020226 ) 0 
( 5.77528e-05 0.0050028 0.00803641 ) 0 
( 0.00202104 0.00991332 0.00548059 ) 0 
( 0.00738255 0.0107541 0.0039566 ) 0 
( 0.00167104 0.000835735 0.000904234 ) 0 
( 0.00078253 0.00588168 0.000499807 ) 0 
( 0.00105366 0.00166652 0.00136597 ) 0 
( 0.00739062 0.00277769 0.00252946 ) 0 
( 0.00128722 0.00913457 0.00429234 ) 0 
( 0.00111564 0.00963245 0.00100863 ) 0 
( 0.00811046 0.00122408 0.00338225 ) 0 
( 0.00755519 0.000204261 0.00251075 ) 0 
( 0.00553794 0.00586331 0.00296232 ) 0 
( 0.0122701 0.00185308 0.0031763 ) 0 
( 0.00403434 0.0020844 0.00686251 ) 0 
( 0.00278976 0.00127242 0.00206481 ) 0 
( 0.00221669 0.00693336 0.00644783 ) 0 
( 0.0128724 0.00194068 0.00585921 ) 0 
( 0.0036687 0.0114587 0.00305082 ) 0 
( 0.0112897 0.0034671 0.00541685 ) 0 
( 0.0100716 0.000283581 0.000499721 ) 0 
( 0.000216373 0.00247295 0.00397338 ) 0 
( 0.00123119 0.0107388 0.000499739 ) 0 
( 0.00182892 0.00928222 0.00624031 ) 0 
( 0.00647049 0.00122598 0.00695152 ) 0 
( 0.00726439 0.00599941 0.00234448 ) 0 
( 0.00224848 0.00897726 0.00406589 ) 0 
( 0.0120187 0.00303665 0.00385262 ) 0 
( 0.00330969 0.00935078 0.00650793 ) 0 
( 0.00112632 0.00181622 0.00698017 ) 0 
( 0.0070694 0.00694205 0.00261712 ) 0 
( 0.00729192 0.0107867 0.0028691 ) 0 
( 0.00550365 0.000934287 0.000499638 ) 0 
( 0.0029071 0.00741792 0.00571117 ) 0 
( 0.00498831 0.00760657 0.00613007 ) 0 
( 0.00590142 0.00173474 0.00622209 ) 0 
( 0.00502833 0.0123669 0.00384861 ) 0 
( 0.0035502 0.00395766 0.00102092 ) 0 
( 0.00186769 0.00735349 0.000499747 ) 0 
( 0.00722786 0.0031263 0.00666602 ) 0 
( 0.00776665 0.00170874 0.00135637 ) 0 
( 0.00276706 0.0120542 0.00225505 ) 0 
( 0.00437195 0.00513296 0.00631205 ) 0 
( 0.00468867 0.00289242 0.00683933 ) 0 
( 0.00463914 0.00982656 0.000499786 ) 0 
( 0.00890725 0.00722928 0.00184113 ) 0 
( 0.00219299 0.0102455 0.00455304 ) 0 
( 0.00461076 0.00189476 0.00523565 ) 0 
( 0.0026071 0.00503384 0.00362087 ) 0 
( 0.00329518 0.0117441 0.00435101 ) 0 
( 0.0107642 0.00384629 0.00228295 ) 0 
( 0.0013834 0.00728687 0.00363017 ) 0 
( 0.00515866 0.00191004 0.0020777 ) 0 
( 0.012941 0.00259454 0.00326957 ) 0 
( 0.00711859 0.0112941 0.000736695 ) 0 
( 0.0102853 0.000740018 0.00240725 ) 0 
( 0.00543765 0.00672776 0.00352784 ) 0 
( 0.0114332 0.00421633 0.00298948 ) 0 
( 0.00725057 0.00924599 0.00569465 ) 0 
( 0.000104153 0.00360587 0.00355469 ) 0 
( 0.00622057 0.00659333 0.00057497 ) 0 
( 0.00455975 0.00812314 0.00538782 ) 0 
( 0.00646319 0.0116352 0.00141017 ) 0 
( 0.00440921 0.0013986 0.00437828 ) 0 
( 0.00472104 0.00291743 0.00158875 ) 0 
( 0.00720709 0.0041648 0.000499613 ) 0 
( 0.00344398 0.00624775 0.00334138 ) 0 
( 0.00246387 0.00503977 0.00180123 ) 0 
( 0.0120552 0.00264722 0.00136892 ) 0 
( 0.00367699 0.00955426 0.000499734 ) 0 
( 0.0019577 0.00896163 0.00511327 ) 0 
( 0.00556836 0.0104081 0.0070131 ) 0 
( 0.000836702 0.000295091 0.00501047 ) 0 
( 0.00138976 0.00350195 0.00764266 ) 0 
( 0.00354578 0.00477541 0.00695596 ) 0 
( 0.0116045 0.00438736 0.00590921 ) 0 
( 0.00335632 0.00629008 0.00434167 ) 0 
( 0.00573905 0.00186049 0.00720063 ) 0 
( 0.00226287 0.000567881 0.00773078 ) 0 
( 0.00788363 0.0107303 0.00577778 ) 0 
( 0.00263619 0.00990796 0.00133686 ) 0 
( 0.00160157 0.00174737 0.000499546 ) 0 
( 0.00823147 0.00501743 0.00440946 ) 0 
( 0.00383604 0.00794899 0.00471403 ) 0 
( 0.00301434 1.43651e-05 0.00737279 ) 0 
( 0.00272137 0.00475488 0.00639071 ) 0 
( 0.0118537 0.00164957 0.00559387 ) 0 
( 0.00620091 0.0056273 0.00571372 ) 0 
( 0.00273978 0.00321673 0.00216864 ) 0 
( 0.00642087 0.0019104 0.00310396 ) 0 
( 0.00517261 0.0122298 0.00185673 ) 0 
( 0.00870166 0.0029587 0.000499633 ) 0 
( 0.00343422 0.00574326 0.000499739 ) 0 
( 0.00695846 0.0051337 0.000499735 ) 0 
( 0.000978692 0.0108526 0.00252741 ) 0 
( 0.00522336 0.00496984 0.00681019 ) 0 
( 0.00607073 0.0108449 0.00208213 ) 0 
( 0.00291389 0.00481788 0.00772963 ) 0 
( 0.00185514 0.00468772 0.00300793 ) 0 
( 0.0117042 0.00517948 0.00292084 ) 0 
( 0.00489994 0.00384304 0.0031713 ) 0 
( 0.00979444 0.00265886 0.00143522 ) 0 
( 0.00205289 0.00164025 0.00138507 ) 0 
( 0.00640526 0.00747812 0.00774445 ) 0 
( 0.00868612 0.00486674 0.006061 ) 0 
( 0.00575473 0.00548159 0.0020637 ) 0 
( 0.0040557 0.0119262 0.0053617 ) 0 
( 0.00843812 0.00585321 0.0039003 ) 0 
( 0.00929823 0.0040901 0.00136523 ) 0 
( 0.00267377 0.00936234 0.000499746 ) 0 
( 0.00955813 0.00155224 0.00346444 ) 0 
( 0.0115272 0.00432913 0.00400155 ) 0 
( 0.0043035 0.00198593 0.00259009 ) 0 
( 0.00344035 0.000702473 0.00364413 ) 0 
( 0.00540415 0.011206 0.00139413 ) 0 
( 0.00461984 8.74336e-05 0.00760528 ) 0 
( 0.0085391 0.010262 0.00637001 ) 0 
( 0.00652398 0.00816315 0.00132345 ) 0 
( 0.00644875 0.0080834 0.00308739 ) 0 
( 0.00240462 0.00999167 0.00295328 ) 0 
( 0.000614944 0.000958473 0.00692935 ) 0 
( 0.00823593 0.0105059 0.00305406 ) 0 
( 0.00270671 0.00922637 0.00572033 ) 0 
( 0.00487338 0.00439279 0.0058542 ) 0 
( 0.00704261 0.00839122 0.000499684 ) 0 
( 0.00395559 0.00106119 0.00670651 ) 0 
( 0.00131084 0.00705615 0.00180614 ) 0 
( 0.000969749 0.00893622 0.00679417 ) 0 
( 0.00348209 0.00264308 0.00379785 ) 0 
( 0.00437578 0.00883901 0.000499605 ) 0 
( 0.00351125 0.00743886 0.00125338 ) 0 
( 0.00970169 0.00133818 0.00670236 ) 0 
( 0.0119663 0.00358692 0.00103907 ) 0 
( 0.0113025 0.00657323 0.00533896 ) 0 
( 0.0020934 0.0121974 0.00507822 ) 0 
( 0.00660189 0.00561361 0.00376068 ) 0 
( 0.0113736 0.0012989 0.00317125 ) 0 
( 0.00656606 0.0105473 0.00449551 ) 0 
( 0.000272892 0.0024252 0.00132364 ) 0 
( 0.00438461 0.0107957 0.00662981 ) 0 
( 0.00880485 0.00180982 0.00282505 ) 0 
( 0.0131499 0.00230379 0.000649956 ) 0 
( 0.00236489 2.65225e-05 0.00516478 ) 0 
( 0.0126704 0.00420146 0.00049982 ) 0 
( 0.0128019 0.00378734 0.00154937 ) 0 
( 0.00646244 0.00932032 0.00381859 ) 0 
( 0.00807418 0.00208912 0.00441146 ) 0 
( 0.0098588 0.00568373 0.00142361 ) 0 
( 0.00431506 0.00526252 0.00452324 ) 0 
( 0.00588503 0.00276218 0.000499692 ) 0 
( 0.00497177 0.00625437 0.00710205 ) 0 
( 0.00690932 0.00472715 0.00312843 ) 0 
( 0.00822484 0.00320543 0.00412471 ) 0 
( 0.0100311 0.00712379 0.00504887 ) 0 
( 0.00899468 0.00634275 0.00138723 ) 0 
( 0.00108067 0.00529347 0.00319009 ) 0 
( 0.00542225 0.00753736 0.00184575 ) 0 
( 0.00432877 0.0024825 0.0059938 ) 0 
( 0.007244 0.00569339 0.00139046 ) 0 
( 0.00156129 0.0132548 0.00450326 ) 0 
( 0.00704654 0.0113389 0.00603141 ) 0 
( 0.00499616 0.00526619 0.00538341 ) 0 
( 0.0057124 0.00457777 0.00758917 ) 0 
( 0.00644554 0.00907456 0.000919332 ) 0 
( 0.00540049 0.00242794 0.0055392 ) 0 
( 0.00549009 0.0118567 0.00296014 ) 0 
( 0.00162816 0.0116021 0.0034583 ) 0 
( 0.0015427 0.000629161 0.00435464 ) 0 
( 0.00958426 0.00335569 0.000749904 ) 0 
( 0.0119979 0.00267897 0.00505487 ) 0 
( 0.0087513 0.00140454 0.00414108 ) 0 
( 0.00728628 0.00925076 0.00728249 ) 0 
( 0.00986363 0.00407183 0.00414238 ) 0 
( 0.00982237 0.00466778 0.00637548 ) 0 
( 0.0128226 0.00371401 0.00332344 ) 0 
( 0.0108341 0.0024867 0.00577921 ) 0 
( 0.0127417 0.0032041 0.000499764 ) 0 
( 0.0087934 0.00778099 0.00614966 ) 0 
( 0.0114614 0.000820452 0.00519567 ) 0 
( 6.97446e-05 0.00450979 0.00179282 ) 0 
( 0.00163265 0.0103477 0.00629302 ) 0 
( 0.000134356 0.00505056 0.000499658 ) 0 
( 0.00884813 0.00670069 0.00354913 ) 0 
( 0.00298168 0.0122039 0.00731311 ) 0 
( 0.000945968 0.00806413 0.00745862 ) 0 
( 0.00355162 0.0102624 0.00683997 ) 0 
( 0.0084644 0.00102796 0.00594891 ) 0 
( 0.00393421 0.00705858 0.00278324 ) 0 
( 0.00691888 0.00785281 0.00223282 ) 0 
( 0.00846325 0.00348047 0.00535521 ) 0 
( 0.010767 0.00495135 0.00230715 ) 0 
( 0.00613429 0.00729586 0.00250487 ) 0 
( 0.00990554 0.00188815 0.00566138 ) 0 
( 0.0109951 0.00147078 0.0022346 ) 0 
( 0.0124309 0.000441821 0.00681125 ) 0 
( 0.000104246 0.00233576 0.00559857 ) 0 
( 0.000739284 0.0126702 0.00422494 ) 0 
( 0.00401167 0.00174982 0.00786021 ) 0 
( 0.00479006 0.00131778 0.00329208 ) 0 
( 0.0016672 0.00042873 0.00278658 ) 0 
( 0.00418639 0.00792413 0.00663573 ) 0 
( 0.0012317 0.00522964 0.0071042 ) 0 
( 0.00601485 0.000589517 0.00473814 ) 0 
( 0.0132912 0.00125769 0.00653574 ) 0 
( 0.00972411 0.0063171 0.00322624 ) 0 
( 0.00307746 0.00581128 0.00196876 ) 0 
( 0.00747323 0.00472616 0.00128288 ) 0 
( 0.00925364 0.00480333 0.00444588 ) 0 
( 0.00798853 0.00536131 0.00196931 ) 0 
( 0.00387172 0.00834607 0.00146994 ) 0 
( 0.00408798 0.0127083 0.00376114 ) 0 
( 0.0103347 0.00843841 0.00729734 ) 0 
( 0.0132536 0.00160197 0.00135647 ) 0 
( 0.00172638 0.00983801 0.00373084 ) 0 
( 0.00666088 0.00305987 0.00190571 ) 0 
( 0.0020404 0.00640219 0.00200758 ) 0 
( 0.00544627 0.00670406 0.00581905 ) 0 
( 0.00191612 0.0132117 0.00259656 ) 0 
( 9.29636e-05 0.00182335 0.00472333 ) 0 
( 0.000749418 0.00655138 0.00771593 ) 0 
( 0.00869923 0.00659094 0.00459383 ) 0 
( 0.00357564 0.00655442 0.00531979 ) 0 
( 4.06829e-05 0.000677604 0.00596836 ) 0 
( 0.00225412 0.00768438 0.00206262 ) 0 
( 0.00360571 0.0101495 0.00129992 ) 0 
( 0.00474188 0.00768569 0.00438173 ) 0 
( 0.00127892 0.00682765 0.00608739 ) 0 
( 9.90791e-06 0.000836468 0.00485911 ) 0 
( 0.000245128 0.0124702 0.000499679 ) 0 
( 0.00580444 0.00861064 0.00560049 ) 0 
( 2.26828e-05 0.0117561 0.00569588 ) 0 
( 0.0102288 0.00358533 0.00147905 ) 0 
( 0.00142465 0.00815172 0.00484032 ) 0 
( 0.00154523 0.00973499 0.00708544 ) 0 
( 0.00206166 0.0107535 0.00234742 ) 0 
( 0.00126373 0.00710763 0.00706336 ) 0 
( 0.0125561 0.00016302 0.00503233 ) 0 
( 0.0103837 0.00688951 0.00378205 ) 0 
( 0.00828236 0.00612506 0.00542453 ) 0 
( 0.00904277 0.00404534 0.00650543 ) 0 
( 0.00195093 0.000767441 0.0018617 ) 0 
( 0.000344024 0.00560761 0.00185458 ) 0 
( 0.00897773 0.00695765 0.00049974 ) 0 
( 0.000169029 0.0125439 0.00215905 ) 0 
( 0.00130673 0.00424022 0.00697344 ) 0 
( 0.0053368 0.00146903 0.00802802 ) 0 
( 0.0106476 0.00608539 0.000499655 ) 0 
( 0.00599066 0.00611792 0.00655929 ) 0 
( 0.000425575 0.0101467 0.000499668 ) 0 
( 0.0106595 0.00252433 0.00394862 ) 0 
( 0.00210789 0.0131825 0.00365861 ) 0 
( 0.0106415 0.00110514 0.000499796 ) 0 
( 0.00897351 0.00542604 0.00181045 ) 0 
( 0.00993943 0.00890098 0.00543505 ) 0 
( 0.000902215 0.00720845 0.00270698 ) 0 
( 0.00636407 0.00759197 0.00607939 ) 0 
( 0.0076407 0.00342336 0.00328924 ) 0 
( 0.00379194 0.00328717 0.0044974 ) 0 
( 0.0092103 0.000470565 0.00662897 ) 0 
( 0.00215148 0.0123625 0.00307156 ) 0 
( 0.00392357 0.00613614 0.00239728 ) 0 
( 0.0123502 0.00114614 0.00487532 ) 0 
( 0.00577819 0.0101131 0.00398678 ) 0 
( 0.00034542 0.0132713 0.00690157 ) 0 
( 0.0104595 0.00588695 0.0037666 ) 0 
( 0.00422437 0.00880713 0.00412541 ) 0 
( 0.00399851 0.00787933 0.000499666 ) 0 
( 0.00280369 0.00944953 0.00475053 ) 0 
( 0.00144037 0.00566787 0.00147769 ) 0 
( 0.00751583 0.00786597 0.00143083 ) 0 
( 0.0106163 0.00809442 0.00640192 ) 0 
( 0.00017992 0.00200315 0.00301286 ) 0 
( 0.00136227 0.00244667 0.00593721 ) 0 
( 0.00897038 0.00566669 0.00486258 ) 0 
( 0.00684392 0.00837522 0.0076152 ) 0 
( 0.00426854 0.0117772 0.00412248 ) 0 
( 0.0131712 0.00217634 0.00227141 ) 0 
( 0.0099559 0.00761199 0.00321624 ) 0 
( 0.00176716 0.00478943 0.00112921 ) 0 
( 0.00665554 0.00701341 0.00689536 ) 0 
( 0.00478598 0.0113974 0.00488924 ) 0 
( 0.00822907 0.00698426 0.00593241 ) 0 
( 0.00404971 0.00698032 0.00454934 ) 0 
( 0.00603237 0.00438349 0.0048097 ) 0 
( 0.0054162 0.00273363 0.00457206 ) 0 
( 0.00336547 0.00224289 0.00611411 ) 0 
( 0.00606162 0.00824176 0.00403591 ) 0 
( 0.00493802 0.0113578 0.00228749 ) 0 
( 0.00372785 0.00161956 0.000499641 ) 0 
( 0.00263502 0.000373831 0.00247537 ) 0 
( 0.00922811 0.00215705 0.000781688 ) 0 
( 0.00125319 0.0126745 0.00675415 ) 0 
( 0.00524212 0.000469627 0.00301586 ) 0 
( 0.00152807 0.00387835 0.00146461 ) 0 
( 0.00695756 0.000995509 0.00794364 ) 0 
( 0.00798417 0.00382103 0.00104374 ) 0 
( 0.00301395 0.0103028 0.000499678 ) 0 
( 0.0097303 0.00804787 0.00592355 ) 0 
( 0.00841205 0.00402859 0.00309258 ) 0 
( 0.00361716 0.00453125 0.00327044 ) 0 
( 0.000199352 0.00588373 0.00549522 ) 0 
( 0.00150627 0.00675333 0.00511627 ) 0 
( 0.0028765 0.0076088 0.000499658 ) 0 
( 0.0044007 0.00484404 0.00132491 ) 0 
( 0.00515205 0.0104281 0.00610424 ) 0 
( 0.00633551 0.00718743 0.00143306 ) 0 
( 0.0039706 0.000174963 0.00115813 ) 0 
( 0.0042443 0.0107902 0.00547091 ) 0 
( 0.000223054 0.0118025 0.00394547 ) 0 
( 0.0118057 0.0025621 0.00602908 ) 0 
( 0.00157285 0.00653341 0.000995085 ) 0 
( 0.000700342 0.00131435 0.000499588 ) 0 
( 0.000961197 0.0133149 0.00604383 ) 0 
( 0.0126072 0.00069851 0.00154615 ) 0 
( 0.00689393 0.00188146 0.00632631 ) 0 
( 0.00440149 0.0034021 0.00241983 ) 0 
( 0.00488671 0.00270489 0.000499727 ) 0 
( 0.00799999 0.0032116 0.00186595 ) 0 
( 0.00962602 0.00253456 0.00321218 ) 0 
( 0.0130476 0.0028193 0.00150054 ) 0 
( 0.00673842 0.0115238 0.00325686 ) 0 
( 0.0091568 0.0049923 0.000928576 ) 0 
( 0.0050369 0.000195932 0.000986337 ) 0 
( 0.00934323 0.00645831 0.00534895 ) 0 
( 0.00913375 0.00311806 0.00614313 ) 0 
( 0.00978224 0.00113821 0.00142871 ) 0 
( 0.00216689 0.00627354 0.00569817 ) 0 
( 0.00229946 0.00941425 0.00213842 ) 0 
( 0.0108646 0.00775795 0.00391019 ) 0 
( 0.00755391 0.00530882 0.00373426 ) 0 
( 0.0132482 0.00164677 0.00318621 ) 0 
( 0.00720918 0.00322212 0.00420849 ) 0 
( 0.00263188 0.0118184 0.00129268 ) 0 
( 0.00762544 0.00885386 0.00132191 ) 0 
( 0.0128258 0.00181808 0.00420344 ) 0 
( 0.00321397 0.0129574 0.00663789 ) 0 
( 0.000189009 0.00457959 0.00376652 ) 0 
( 0.00961354 0.00059618 0.00313397 ) 0 
( 0.00764857 0.0109419 0.00672633 ) 0 
( 0.00818588 0.0011039 0.00203337 ) 0 
( 0.00844025 0.00458721 0.0014961 ) 0 
( 0.00529462 0.0094799 0.00557198 ) 0 
( 0.00014127 0.00404756 0.000499723 ) 0 
( 0.00341967 0.0129044 0.00296401 ) 0 
( 0.00276006 0.0130396 0.00575075 ) 0 
( 0.00464899 0.000545977 0.00391199 ) 0 
( 0.00618568 0.011818 0.00663565 ) 0 
( 0.000543 0.00374094 0.00136311 ) 0 
( 0.00510385 0.00580801 0.00621688 ) 0 
( 0.0040031 0.010598 0.000499582 ) 0 
( 0.00785647 0.00481861 0.00281839 ) 0 
( 0.000343593 0.0110952 0.00136245 ) 0 
( 0.00774098 0.00619495 0.00458683 ) 0 
( 0.00033719 0.0103912 0.00481794 ) 0 
( 0.00923892 0.00824386 0.000499634 ) 0 
( 0.00778001 0.00813121 0.00265799 ) 0 
( 0.00448714 0.00440293 0.00237257 ) 0 
( 0.0118196 0.00212564 0.00421326 ) 0 
( 0.00708727 0.00936023 0.00459824 ) 0 
( 0.0130251 0.00292819 0.00589141 ) 0 
( 0.00423424 0.00996542 0.00603595 ) 0 
( 0.00976559 0.00495903 0.00220476 ) 0 
( 0.0037925 0.00703548 0.00716228 ) 0 
( 0.0110696 0.00741565 0.00582451 ) 0 
( 0.00773672 0.00415624 0.00206105 ) 0 
( 0.000242533 0.009386 0.00145496 ) 0 
( 0.00951622 0.00936292 0.00350772 ) 0 
( 0.00340619 0.0129083 0.00139055 ) 0 
( 0.000722679 0.0102194 0.00172786 ) 0 
( 0.00953715 0.00784315 0.00136558 ) 0 
( 0.00202546 0.00404805 0.00626468 ) 0 
( 0.00257052 0.0022483 0.00198649 ) 0 
( 0.00645559 0.00590372 0.00741804 ) 0 
( 0.00438069 0.012611 0.00137992 ) 0 
( 0.00602329 0.0112631 0.00745138 ) 0 
( 0.0087243 0.00143835 0.00125998 ) 0 
( 0.00650682 0.00393072 0.00591403 ) 0 
( 0.00832608 0.0104356 0.00404747 ) 0 
( 0.00108063 0.00617084 0.00226572 ) 0 
( 0.00976643 0.00910164 0.000499816 ) 0 
( 0.00832744 0.00772471 0.0033894 ) 0 
( 0.0112357 0.00132428 0.00127349 ) 0 
( 0.000620542 0.00249631 0.00752982 ) 0 
( 0.0033554 0.0112294 0.0052062 ) 0 
( 0.0115372 0.00333559 0.00190668 ) 0 
( 0.00650258 0.00754966 0.000499771 ) 0 
( 0.00998268 0.00564128 0.00666439 ) 0 
( 0.000154298 0.00836319 0.00692658 ) 0 
( 0.00589864 0.0109695 0.00318698 ) 0 
( 0.0062785 0.0027421 0.00507894 ) 0 
( 0.0025104 0.0131044 0.00478437 ) 0 
( 0.00367695 0.0026253 0.000499777 ) 0 
( 0.0128942 0.00345942 0.00505459 ) 0 
( 0.00498543 0.0110491 0.000499771 ) 0 
( 0.00596983 0.00994879 0.00251843 ) 0 
( 0.00031579 0.00683172 0.00519919 ) 0 
( 0.00395519 0.00178939 0.00357591 ) 0 
( 0.00544276 0.00228472 0.00305203 ) 0 
( 0.00267855 0.0031302 0.00566213 ) 0 
( 0.00641914 0.0023476 0.00123625 ) 0 
( 0.00341491 0.0111711 0.00106957 ) 0 
( 0.0113793 0.00229102 0.00329531 ) 0 
( 0.00375142 0.00312937 0.00171077 ) 0 
( 0.00306897 0.00379954 0.00675364 ) 0 
( 0.00418951 0.00237034 0.00446339 ) 0 
( 0.00352626 0.00559568 0.00504078 ) 0 
( 0.0103821 0.000853706 0.00490922 ) 0 
( 0.00135534 0.0116945 0.00692441 ) 0 
( 0.0122523 0.0027123 0.0070134 ) 0 
( 0.0106606 0.00798562 0.00228565 ) 0 
( 0.0127863 0.00138469 0.000499634 ) 0 
( 0.000256922 0.0133181 0.00136536 ) 0 
( 0.00573625 0.000520122 0.00636603 ) 0 
( 0.00389216 0.000525609 0.0045682 ) 0 
( 0.00941536 0.00149574 0.00488311 ) 0 
( 0.0046813 0.0125024 0.00592166 ) 0 
( 0.00298412 0.00750236 0.00674406 ) 0 
( 0.00461371 0.00615464 0.00321061 ) 0 
( 0.00660497 0.00491355 0.00728942 ) 0 
( 0.00357342 0.00262335 0.00521268 ) 0 
( 0.00298293 0.00272896 0.00121212 ) 0 
( 6.43117e-05 0.0081962 0.000499757 ) 0 
( 0.0109814 0.00759172 0.00130121 ) 0 