/*--------------------------------*- C++ -*----------------------------------*\
| =========                 |                                                 |
| \\      /  F ield         | OpenFOAM: The Open Source CFD Toolbox           |
|  \\    /   O peration     | Version:  2506                                  |
|   \\  /    A nd           | Website:  www.openfoam.com                      |
|    \\/     M anipulation  |                                                 |
\*---------------------------------------------------------------------------*/
FoamFile
{
    version     2.0;
    format      ascii;
    arch        "LSB;label=32;scalar=64";
    class       volScalarField;
    location    "0.09";
    object      Ksl;
}
// * * * * * * * * * * * * * * * * * * * * * * * * * * * * * * * * * * * * * //

dimensions      [1 -3 -1 0 0 0 0];

internalField   nonuniform List<scalar> 
1152
(
165122
346348
149319
198708
80106.2
124889
151317
5.4223e+06
148569
143050
141237
64725.2
137819
112822
132429
118225
155291
131589
184408
1.30718e+07
499770
123885
148797
138997
150287
190942
342708
139830
97443.5
131016
165307
231258
186222
3.52262e+07
229514
113902
110092
344551
421981
152809
428236
230890
151145
220273
118619
1.59111e+06
253759
453930
284185
168744
1.31659e+06
129175
190725
179002
432956
196819
359053
266449
361412
134936
312430
191474
201450
1.48396e+07
322156
219608
182944
156755
215771
202170
250269
350622
387450
218048
398770
148042
198695
304685
163748
453820
601906
183533
251974
2.39212e+06
150222
217424
362759
190291
232343
276077
121657
187440
93685.9
162537
248633
781489
178271
81274.6
67588.6
89018.1
52529.1
95468.4
155951
138386
106674
89131.3
150950
89910.3
17760.6
75405.8
97577.8
8839.9
0
0
0
0
0
0
0
0
0
0
0
0
0
0
0
0
0
0
0
0
0
0
0
0
0
0
0
0
0
0
0
0
0
0
0
0
0
0
0
0
0
0
0
0
0
0
0
0
0
0
0
0
0
0
0
0
0
0
0
0
0
0
0
0
0
0
0
0
0
0
0
0
0
0
0
0
0
0
0
0
0
0
0
0
0
0
0
0
0
0
0
0
0
0
0
0
0
0
0
0
0
0
0
0
0
0
0
0
0
0
0
0
0
0
0
0
0
0
0
0
0
0
0
0
0
0
0
0
0
0
0
0
0
0
0
0
0
0
0
0
0
0
0
0
0
0
0
0
0
0
0
0
0
0
0
0
0
0
0
0
0
0
0
0
0
0
0
0
0
0
0
0
0
0
0
0
0
0
0
0
0
0
0
0
0
0
0
0
0
0
0
0
0
0
0
0
0
0
0
0
0
0
0
0
0
0
0
0
0
0
0
0
0
0
0
0
0
0
0
0
0
0
0
0
0
0
0
0
0
0
0
0
0
0
0
0
0
0
0
0
0
0
0
0
0
0
0
0
0
0
0
0
0
0
0
0
0
0
0
0
0
0
0
0
0
0
0
0
0
0
0
0
77986.9
244468
75249.8
301619
170779
193427
126894
140377
147070
92648.3
118358
186126
94629.1
196612
109254
103339
248323
119820
147789
139598
104163
357037
184180
357589
175508
111724
158028
127775
199635
184428
123437
397669
228667
176201
242023
133342
585238
416046
580831
175119
209301
334637
157561
421573
208809
154816
262136
150378
242888
268642
573092
138256
193442
131807
326563
319524
204941
187796
148119
303300
176270
337483
222850
281387
115839
221639
132594
271059
1.08912e+06
334964
341613
175417
414039
186385
171146
212246
210944
119143
969775
133162
1.98368e+07
207288
391165
504241
97311.2
153021
279557
101729
250132
201233
131417
6.70949e+06
145062
354341
361436
89826.3
14412.1
43343.2
51543.5
66356.8
12523.7
101103
62609.4
89876.9
134821
67734.9
44043.8
10436.3
62841.7
27532.5
124275
16612.5
0
0
0
0
0
0
0
0
0
0
0
0
0
0
0
0
0
0
0
0
0
0
0
0
0
0
0
0
0
0
0
0
0
0
0
0
0
0
0
0
0
0
0
0
0
0
0
0
0
0
0
0
0
0
0
0
0
0
0
0
0
0
0
0
0
0
0
0
0
0
0
0
0
0
0
0
0
0
0
0
0
0
0
0
0
0
0
0
0
0
0
0
0
0
0
0
0
0
0
0
0
0
0
0
0
0
0
0
0
0
0
0
0
0
0
0
0
0
0
0
0
0
0
0
0
0
0
0
0
0
0
0
0
0
0
0
0
0
0
0
0
0
0
0
0
0
0
0
0
0
0
0
0
0
0
0
0
0
0
0
0
0
0
0
0
0
0
0
0
0
0
0
0
0
0
0
0
0
0
0
0
0
0
0
0
0
0
0
0
0
0
0
0
0
0
0
0
0
0
0
0
0
0
0
0
0
0
0
0
0
0
0
0
0
0
0
0
0
0
0
0
0
0
0
0
0
0
0
0
0
0
0
0
0
0
0
0
0
0
0
0
0
0
0
0
0
0
0
0
0
0
0
0
0
0
0
0
0
0
0
0
0
0
0
0
0
0
0
0
0
0
0
114919
81072
145978
110142
198352
100751
175832
106152
141685
90179.1
195721
90852.9
113498
551618
74848.9
189028
1.31077e+06
336133
1.58708e+06
282127
128382
342501
145026
133303
101233
235263
123426
115700
157904
107157
478688
361150
175596
131858
177561
176877
315899
185078
233990
693678
121129
363722
308311
1.16189e+06
273883
163137
170797
213942
193925
145873
381588
131885
549746
163197
202779
486243
141818
159646
1.59847e+07
136315
192067
174804
215108
303811
140681
178117
367591
213354
198549
340152
167083
335683
347579
170371
383214
137431
178538
277192
155154
250573
226863
90914.6
341018
165750
337018
139025
219105
714900
206888
136558
185664
236372
228057
331314
254740
211655
43335
16892.4
93098.5
25553.1
51150.1
118589
53378.6
144978
64557.6
53587
74196.4
54555.7
81286.2
112379
53276.3
27518.3
0
0
0
0
0
0
0
0
0
0
0
0
0
0
0
0
0
0
0
0
0
0
0
0
0
0
0
0
0
0
0
0
0
0
0
0
0
0
0
0
0
0
0
0
0
0
0
0
0
0
0
0
0
0
0
0
0
0
0
0
0
0
0
0
0
0
0
0
0
0
0
0
0
0
0
0
0
0
0
0
0
0
0
0
0
0
0
0
0
0
0
0
0
0
0
0
0
0
0
0
0
0
0
0
0
0
0
0
0
0
0
0
0
0
0
0
0
0
0
0
0
0
0
0
0
0
0
0
0
0
0
0
0
0
0
0
0
0
0
0
0
0
0
0
0
0
0
0
0
0
0
0
0
0
0
0
0
0
0
0
0
0
0
0
0
0
0
0
0
0
0
0
0
0
0
0
0
0
0
0
0
0
0
0
0
0
0
0
0
0
0
0
0
0
0
0
0
0
0
0
0
0
0
0
0
0
0
0
0
0
0
0
0
0
0
0
0
0
0
0
0
0
0
0
0
0
0
0
0
0
0
0
0
0
0
0
0
0
0
0
0
0
0
0
0
0
0
0
0
0
0
0
0
0
0
0
0
0
0
0
0
0
0
0
0
0
0
0
0
0
0
0
)
;

boundaryField
{
    inlet
    {
        type            zeroGradient;
    }
    outlet
    {
        type            zeroGradient;
    }
    wall
    {
        type            zeroGradient;
    }
    procBoundary2to0
    {
        type            processor;
        value           nonuniform List<scalar> 
192
(
161715
62627.9
104100
172171
135061
199828
152496
108324
335646
176502
859052
1.09931e+06
266366
201974
179118
109481
229394
188892
486615
2.43844e+06
74017.5
1.43953e+06
214917
142756
58907.9
124988
211383
96101.8
0
0
0
0
0
0
0
0
0
0
0
0
0
0
0
0
0
0
0
0
0
0
0
0
0
0
0
0
0
0
0
0
0
0
0
0
0
0
0
0
0
0
0
0
0
0
0
0
0
0
0
0
0
0
0
0
0
0
0
0
0
0
0
0
0
0
0
0
244717
252299
72345.7
117784
136618
92678.7
189425
139537
355298
350795
1.22926e+07
171211
215784
267767
245097
198347
283910
1.06867e+07
149573
225455
219848
275484
174684
210271
97261.3
27444.7
27195.8
61559.6
0
0
0
0
0
0
0
0
0
0
0
0
0
0
0
0
0
0
0
0
0
0
0
0
0
0
0
0
0
0
0
0
0
0
0
0
0
0
0
0
0
0
0
0
0
0
0
0
0
0
0
0
0
0
0
0
0
0
0
0
0
0
0
0
0
0
0
0
)
;
    }
    procBoundary2to3
    {
        type            processor;
        value           nonuniform List<scalar> 
192
(
55341
41763.5
1.50657e+06
178690
93465.1
196120
404589
126897
455158
1.19029e+07
218373
257093
8.64576e+06
187499
378835
142020
4.39538e+06
221605
303838
211490
123846
152973
333994
97149.7
112938
87305.7
138392
184649
0
0
0
0
0
0
0
0
0
0
0
0
0
0
0
0
0
0
0
0
0
0
0
0
0
0
0
0
0
0
0
0
0
0
0
0
0
0
0
0
0
0
0
0
0
0
0
0
0
0
0
0
0
0
0
0
0
0
0
0
0
0
0
0
0
0
0
0
57049.1
202234
69371.7
1.06548e+07
744616
126523
186479
110664
231743
286452
217322
270218
1.09333e+06
244760
180332
211419
271881
189762
1.39769e+06
2.59926e+06
99540.2
9.42638e+06
104732
247014
158882
18045
72650.5
55830.8
0
0
0
0
0
0
0
0
0
0
0
0
0
0
0
0
0
0
0
0
0
0
0
0
0
0
0
0
0
0
0
0
0
0
0
0
0
0
0
0
0
0
0
0
0
0
0
0
0
0
0
0
0
0
0
0
0
0
0
0
0
0
0
0
0
0
0
0
)
;
    }
}


// ************************************************************************* //
