/*--------------------------------*- C++ -*----------------------------------*\
| =========                 |                                                 |
| \\      /  F ield         | OpenFOAM: The Open Source CFD Toolbox           |
|  \\    /   O peration     | Version:  2506                                  |
|   \\  /    A nd           | Website:  www.openfoam.com                      |
|    \\/     M anipulation  |                                                 |
\*---------------------------------------------------------------------------*/
FoamFile
{
    version     2.0;
    format      ascii;
    arch        "LSB;label=32;scalar=64";
    class       volScalarField;
    location    "0.09";
    object      p;
}
// * * * * * * * * * * * * * * * * * * * * * * * * * * * * * * * * * * * * * //

dimensions      [0 2 -2 0 0 0 0];

internalField   nonuniform List<scalar> 
1152
(
15.799
15.2055
15.5083
15.245
15.8945
15.6348
15.7979
15.622
16.0942
16.0622
16.1234
15.8946
16.141
16.1091
16.2489
16.2747
12.3502
8.95914
12.2537
12.2277
13.2394
12.3629
13.0011
13.0833
13.6915
13.4061
13.5367
13.798
13.7401
13.7072
13.8703
13.8933
12.217
12.729
12.2922
13.7695
11.9147
11.8967
12.1622
12.4758
11.8165
11.7301
11.626
11.5725
11.5241
11.6225
11.3303
10.2411
11.3199
17.1172
11.5789
10.6535
10.2494
11.4183
10.2721
10.3362
9.06592
9.41861
9.37579
9.34453
8.1445
8.33374
8.24874
8.54739
6.06607
7.25504
6.63265
6.32442
5.70241
6.34323
6.12514
6.09797
4.70078
5.24693
5.02647
5.81767
2.72505
4.19074
4.85083
6.08459
1.79875
2.1951
2.18938
2.04314
1.70334
2.11819
2.26061
2.30506
1.33667
1.77235
2.14297
2.14462
0.681968
1.35165
1.80489
0.634985
0.985154
1.02416
1.0319
1.08197
1.01688
1.011
0.993349
0.999711
1.01003
1.00633
0.993484
0.999069
1.09491
1.01574
0.990848
1.00761
0.998817
1.00095
1.00221
1.00387
1.00031
1.00103
1.00113
1.00067
1.00429
1.00203
1.00007
0.997849
1.01175
1.00465
0.999568
0.997635
1.0035
1.00486
1.00487
1.00523
1.00518
1.00533
1.00444
1.00439
1.00726
1.00652
1.00519
1.00498
1.01108
1.00849
1.0064
1.00615
1.00231
1.00296
1.00311
1.00328
1.00296
1.00323
1.003
1.00288
1.00388
1.0038
1.0033
1.00295
1.00507
1.0045
1.00372
1.00326
1.00266
1.003
1.00314
1.00325
1.00296
1.00315
1.0031
1.00306
1.00343
1.00345
1.00329
1.00307
1.00393
1.00379
1.00349
1.00319
1.00257
1.00277
1.00288
1.00294
1.00269
1.00281
1.00284
1.0028
1.00291
1.00295
1.0029
1.00278
1.00313
1.0031
1.00298
1.00281
1.00245
1.00257
1.00264
1.00269
1.00249
1.00257
1.0026
1.00258
1.0026
1.00263
1.0026
1.00254
1.0027
1.00269
1.00263
1.00253
1.00229
1.00236
1.00242
1.00245
1.0023
1.00235
1.00237
1.00237
1.00234
1.00237
1.00236
1.00233
1.00239
1.00239
1.00236
1.0023
1.00211
1.00216
1.00219
1.00222
1.00211
1.00214
1.00216
1.00216
1.00212
1.00213
1.00213
1.00212
1.00213
1.00214
1.00212
1.00209
1.00192
1.00194
1.00197
1.00199
1.0019
1.00192
1.00194
1.00194
1.0019
1.00191
1.00191
1.00191
1.0019
1.00191
1.0019
1.00188
1.00171
1.00173
1.00174
1.00175
1.00169
1.00171
1.00172
1.00172
1.00169
1.00169
1.0017
1.00169
1.00168
1.00168
1.00168
1.00167
1.00149
1.0015
1.00151
1.00152
1.00148
1.00149
1.00149
1.0015
1.00147
1.00147
1.00148
1.00148
1.00146
1.00147
1.00146
1.00146
1.00127
1.00128
1.00128
1.00129
1.00126
1.00126
1.00127
1.00127
1.00125
1.00125
1.00126
1.00126
1.00124
1.00124
1.00124
1.00124
1.00104
1.00105
1.00105
1.00106
1.00103
1.00104
1.00104
1.00104
1.00103
1.00103
1.00103
1.00103
1.00102
1.00102
1.00102
1.00102
1.00081
1.00082
1.00082
1.00082
1.00081
1.00081
1.00081
1.00081
1.0008
1.0008
1.0008
1.00081
1.0008
1.0008
1.0008
1.0008
1.00058
1.00058
1.00059
1.00059
1.00058
1.00058
1.00058
1.00058
1.00057
1.00058
1.00058
1.00058
1.00057
1.00057
1.00057
1.00057
1.00035
1.00035
1.00035
1.00035
1.00035
1.00035
1.00035
1.00035
1.00035
1.00035
1.00035
1.00035
1.00034
1.00034
1.00034
1.00034
1.00012
1.00012
1.00012
1.00012
1.00012
1.00012
1.00012
1.00012
1.00012
1.00012
1.00012
1.00012
1.00011
1.00011
1.00011
1.00011
16.2874
16.3589
16.2406
16.5062
16.343
16.6522
16.4774
16.7343
16.4525
16.4218
16.432
16.5582
16.4201
16.574
16.366
16.5642
13.983
13.8272
14.0657
13.7739
13.9637
13.963
14.1351
13.9999
13.981
14.0465
14.0519
14.1218
14.1237
13.8951
14.1216
14.1237
11.2137
11.2495
11.4052
10.8787
11.3125
10.5671
11.2848
11.064
11.0999
11.2271
11.1278
11.468
11.0099
11.1334
11.4247
11.1516
7.0983
7.60483
7.35105
7.73031
7.35959
7.37981
7.39163
7.31676
7.62329
7.3686
7.50668
7.04487
7.60213
7.33511
7.69762
7.06149
0.797324
3.37537
4.17802
4.35272
2.05316
3.94461
3.85228
2.92358
4.07463
4.16997
3.9716
2.5526
4.23366
4.2309
4.20861
3.04985
-5.33212
0.884001
1.32578
0.73225
0.115166
0.954596
0.979594
0.434768
0.898425
1.26798
1.16187
-1.45545
1.36674
1.24486
1.09771
0.841047
1.4985
1.08407
1.00431
0.98308
1.14097
1.01557
0.982582
1.02849
1.02622
0.983347
0.997843
1.1442
0.985604
0.984464
0.966036
0.99756
1.02188
1.00881
1.00086
1.00019
1.01429
1.00588
1.00051
1.00586
1.0076
0.999889
0.999034
1.00698
1.00205
0.996167
0.996776
0.998499
1.01332
1.01032
1.0078
1.00698
1.01243
1.00943
1.00753
1.00877
1.01028
1.00816
1.00706
1.01001
1.00923
1.00735
1.00519
1.00782
1.00562
1.00501
1.00418
1.00364
1.00551
1.005
1.00423
1.00414
1.00512
1.00475
1.00404
1.00435
1.00482
1.00449
1.00346
1.00392
1.00424
1.00405
1.00369
1.00337
1.00431
1.00417
1.00379
1.00356
1.00428
1.00419
1.00375
1.00364
1.0043
1.00419
1.00365
1.00362
1.00327
1.00323
1.00307
1.00288
1.00332
1.00332
1.00314
1.00297
1.00335
1.00337
1.00315
1.00301
1.00334
1.00338
1.00311
1.00301
1.00278
1.00275
1.00267
1.00255
1.00281
1.00281
1.00271
1.00259
1.00283
1.00284
1.00272
1.00261
1.00285
1.00286
1.00272
1.00262
1.00243
1.00242
1.00237
1.0023
1.00244
1.00244
1.00239
1.00231
1.00246
1.00246
1.0024
1.00232
1.00247
1.00247
1.0024
1.00232
1.00215
1.00214
1.00212
1.00208
1.00216
1.00216
1.00213
1.00208
1.00217
1.00217
1.00213
1.00208
1.00217
1.00217
1.00213
1.00208
1.00191
1.0019
1.00189
1.00187
1.00191
1.00191
1.00189
1.00186
1.00191
1.00191
1.00189
1.00186
1.00192
1.00191
1.00189
1.00186
1.00168
1.00168
1.00167
1.00166
1.00168
1.00168
1.00167
1.00165
1.00168
1.00168
1.00167
1.00165
1.00168
1.00168
1.00167
1.00164
1.00146
1.00146
1.00146
1.00145
1.00146
1.00146
1.00145
1.00144
1.00146
1.00146
1.00145
1.00144
1.00146
1.00146
1.00145
1.00143
1.00124
1.00124
1.00124
1.00123
1.00124
1.00124
1.00123
1.00123
1.00124
1.00124
1.00123
1.00122
1.00124
1.00123
1.00123
1.00122
1.00102
1.00102
1.00102
1.00102
1.00102
1.00102
1.00101
1.00101
1.00102
1.00101
1.00101
1.00101
1.00102
1.00101
1.00101
1.00101
1.0008
1.00079
1.00079
1.00079
1.00079
1.00079
1.00079
1.00079
1.00079
1.00079
1.00079
1.00079
1.00079
1.00079
1.00079
1.00079
1.00057
1.00057
1.00057
1.00057
1.00057
1.00057
1.00057
1.00057
1.00057
1.00057
1.00057
1.00056
1.00057
1.00057
1.00056
1.00056
1.00034
1.00034
1.00034
1.00034
1.00034
1.00034
1.00034
1.00034
1.00034
1.00034
1.00034
1.00034
1.00034
1.00034
1.00034
1.00034
1.00011
1.00011
1.00011
1.00011
1.00011
1.00011
1.00011
1.00011
1.00011
1.00011
1.00011
1.00011
1.00011
1.00011
1.00011
1.00011
16.8379
16.6329
16.5808
16.1629
16.5821
16.5688
16.4417
16.0828
16.1688
16.2884
16.2701
16.0918
16.3373
16.3807
16.3424
16.3581
14.0162
13.9683
13.4397
13.4222
13.999
14.0227
13.776
13.7841
13.774
13.9418
13.7415
13.827
13.9112
13.8167
13.9617
13.8106
10.932
11.0327
11.5192
11.567
11.624
11.0805
11.306
12.0241
11.2421
10.8347
9.72289
11.3312
11.1323
11.0814
10.8714
11.0811
7.72105
8.0646
9.01345
9.48711
8.0147
8.2686
8.63093
9.12503
8.43916
8.03757
8.43862
8.63935
7.87118
7.89094
7.65042
7.9006
4.61862
4.45453
4.99737
5.63737
4.71795
4.85717
5.17063
5.30324
5.36966
5.10384
5.71661
5.02909
4.82404
4.67526
4.15359
3.61261
1.47304
1.35515
1.30175
1.33301
1.41116
1.67371
1.5523
1.39492
1.58435
1.68562
1.59157
1.50934
1.68346
1.45492
1.07817
0.758244
0.988339
0.997741
0.981739
1.00316
0.991401
0.984694
0.996307
0.983074
0.985952
0.999273
0.999879
1.02267
0.984045
0.988006
1.04199
1.09037
0.986771
0.989302
0.991351
0.995294
0.990311
0.992274
0.994765
0.998353
0.993833
0.996226
0.999406
1.00265
0.999294
1.00209
1.00631
1.00992
0.999627
1.00083
1.00083
1.00243
1.00104
1.00159
1.00268
1.00376
1.00403
1.00498
1.00594
1.00684
1.0067
1.00738
1.00905
1.01032
0.999738
1.00045
1.0008
1.0016
1.00063
1.00111
1.00168
1.00228
1.00223
1.00272
1.00314
1.00353
1.00363
1.00393
1.00433
1.00463
1.00131
1.00154
1.00182
1.00224
1.00187
1.00204
1.00231
1.00263
1.00284
1.00296
1.00314
1.00327
1.00367
1.00367
1.00377
1.00382
1.0018
1.00192
1.0021
1.00232
1.0021
1.00221
1.00234
1.0025
1.00261
1.00268
1.00277
1.00283
1.003
1.00303
1.00304
1.00305
1.002
1.00207
1.00217
1.0023
1.00217
1.00222
1.00229
1.00238
1.00246
1.00249
1.00252
1.00255
1.00266
1.00266
1.00267
1.00267
1.00203
1.00207
1.00213
1.00221
1.00211
1.00214
1.00218
1.00224
1.00227
1.00229
1.0023
1.00232
1.00237
1.00237
1.00237
1.00237
1.00196
1.00198
1.00201
1.00206
1.00199
1.00201
1.00203
1.00206
1.00207
1.00208
1.00209
1.0021
1.00212
1.00213
1.00213
1.00213
1.00182
1.00183
1.00185
1.00188
1.00183
1.00184
1.00186
1.00188
1.00187
1.00188
1.00188
1.00189
1.0019
1.0019
1.0019
1.0019
1.00165
1.00166
1.00167
1.00169
1.00165
1.00165
1.00166
1.00168
1.00167
1.00167
1.00167
1.00168
1.00168
1.00168
1.00168
1.00168
1.00145
1.00146
1.00147
1.00148
1.00145
1.00145
1.00146
1.00147
1.00145
1.00146
1.00146
1.00146
1.00146
1.00146
1.00146
1.00146
1.00124
1.00125
1.00125
1.00126
1.00124
1.00124
1.00125
1.00125
1.00124
1.00124
1.00124
1.00125
1.00124
1.00124
1.00124
1.00124
1.00103
1.00103
1.00103
1.00104
1.00102
1.00102
1.00103
1.00103
1.00102
1.00102
1.00102
1.00102
1.00102
1.00102
1.00102
1.00102
1.0008
1.0008
1.00081
1.00081
1.0008
1.0008
1.0008
1.0008
1.0008
1.0008
1.0008
1.0008
1.00079
1.00079
1.0008
1.0008
1.00058
1.00058
1.00058
1.00058
1.00057
1.00057
1.00057
1.00058
1.00057
1.00057
1.00057
1.00057
1.00057
1.00057
1.00057
1.00057
1.00035
1.00035
1.00035
1.00035
1.00034
1.00034
1.00035
1.00035
1.00034
1.00034
1.00034
1.00034
1.00034
1.00034
1.00034
1.00034
1.00012
1.00012
1.00012
1.00012
1.00011
1.00012
1.00012
1.00012
1.00011
1.00011
1.00011
1.00011
1.00011
1.00011
1.00011
1.00011
)
;

boundaryField
{
    inlet
    {
        type            zeroGradient;
    }
    outlet
    {
        type            fixedValue;
        value           uniform 1;
    }
    wall
    {
        type            zeroGradient;
    }
    procBoundary2to0
    {
        type            processor;
        value           nonuniform List<scalar> 
192
(
15.744
15.3464
15.4739
15.4835
13.1363
12.7363
13.0737
12.9222
11.8602
11.4903
11.7183
11.8155
9.74013
11.2641
10.1271
9.64916
4.73935
6.11907
6.61136
7.33276
1.83124
1.85133
2.42562
2.76533
1.02248
1.02075
0.972734
1.01011
0.99674
1.00016
1.0007
1.00026
1.00354
1.0042
1.00383
1.00541
1.00209
1.00273
1.00288
1.00362
1.00251
1.00292
1.00313
1.00344
1.00249
1.00275
1.00293
1.00309
1.00242
1.00258
1.00271
1.00281
1.00229
1.00239
1.00248
1.00254
1.00213
1.00219
1.00224
1.00229
1.00193
1.00197
1.00201
1.00204
1.00173
1.00175
1.00177
1.00179
1.00151
1.00152
1.00154
1.00155
1.00128
1.00129
1.0013
1.00131
1.00105
1.00106
1.00107
1.00107
1.00082
1.00082
1.00083
1.00083
1.00059
1.00059
1.00059
1.0006
1.00035
1.00035
1.00036
1.00036
1.00012
1.00012
1.00012
1.00012
16.725
16.2685
16.0627
16.0239
13.7751
13.6421
12.9872
13.4154
11.3053
11.5966
11.9341
11.6307
7.45626
6.85601
9.83022
9.25652
4.50425
4.54968
4.94142
5.1182
1.6095
1.62304
1.36854
1.58187
0.974214
1.00451
0.99907
0.999718
0.985991
0.987517
0.989614
0.993082
0.998258
1.00031
1.00064
1.00183
0.999002
0.999844
1.00038
1.00118
1.00086
1.00115
1.00152
1.002
1.00154
1.00169
1.00191
1.00219
1.00187
1.00194
1.00207
1.00224
1.00197
1.00201
1.00209
1.00218
1.00193
1.00196
1.002
1.00206
1.00182
1.00183
1.00186
1.00189
1.00165
1.00166
1.00168
1.0017
1.00146
1.00147
1.00148
1.00149
1.00125
1.00126
1.00126
1.00127
1.00103
1.00104
1.00104
1.00105
1.00081
1.00081
1.00081
1.00082
1.00058
1.00058
1.00058
1.00058
1.00035
1.00035
1.00035
1.00035
1.00012
1.00012
1.00012
1.00012
)
;
    }
    procBoundary2to3
    {
        type            processor;
        value           nonuniform List<scalar> 
192
(
15.1067
15.2716
15.9368
16.4189
12.3731
12.7617
13.4944
13.9237
12.1076
11.303
11.2777
11.1401
11.2825
11.5578
9.2008
8.16583
3.89907
5.49158
5.25861
4.38833
2.99857
2.33641
1.82903
1.29757
1.02907
1.01279
0.980676
0.974168
1.00097
0.998601
0.996649
0.997573
1.00454
1.0038
1.00284
1.00365
1.00296
1.00245
1.00207
1.00221
1.00311
1.0028
1.00265
1.00268
1.00289
1.00268
1.00257
1.00254
1.00267
1.00253
1.00243
1.00239
1.00245
1.00235
1.00227
1.00222
1.00222
1.00215
1.00209
1.00205
1.00199
1.00194
1.00189
1.00186
1.00176
1.00172
1.00169
1.00166
1.00153
1.0015
1.00147
1.00145
1.00129
1.00127
1.00126
1.00124
1.00106
1.00105
1.00103
1.00102
1.00083
1.00081
1.00081
1.0008
1.00059
1.00058
1.00058
1.00057
1.00035
1.00035
1.00035
1.00034
1.00012
1.00012
1.00012
1.00011
16.4931
16.5392
16.2761
15.9159
14.401
14.1748
14.4698
14.6403
11.0836
11.4926
11.5847
11.984
7.73061
7.16331
7.53386
7.76481
3.16229
1.59738
2.70223
4.14919
0.581402
-2.88013
0.627194
1.05467
1.01539
1.30279
1.02587
0.983079
1.00428
1.01857
1.00498
0.997519
1.00631
1.01104
1.00773
1.00549
1.00289
1.00411
1.00322
1.00271
1.00286
1.00312
1.00295
1.00286
1.00257
1.00262
1.00259
1.00255
1.00237
1.00237
1.00236
1.00235
1.0022
1.00218
1.00217
1.00217
1.00202
1.002
1.002
1.00199
1.00184
1.00182
1.00181
1.00181
1.00164
1.00163
1.00162
1.00162
1.00144
1.00143
1.00142
1.00142
1.00123
1.00122
1.00122
1.00121
1.00101
1.00101
1.001
1.001
1.00079
1.00079
1.00078
1.00078
1.00057
1.00056
1.00056
1.00056
1.00034
1.00034
1.00034
1.00034
1.00011
1.00011
1.00011
1.00011
)
;
    }
}


// ************************************************************************* //
