/*--------------------------------*- C++ -*----------------------------------*\
| =========                 |                                                 |
| \\      /  F ield         | OpenFOAM: The Open Source CFD Toolbox           |
|  \\    /   O peration     | Version:  2506                                  |
|   \\  /    A nd           | Website:  www.openfoam.com                      |
|    \\/     M anipulation  |                                                 |
\*---------------------------------------------------------------------------*/
FoamFile
{
    version     2.0;
    format      ascii;
    arch        "LSB;label=32;scalar=64";
    class       volVectorField;
    location    "0.09";
    object      stored_U;
}
// * * * * * * * * * * * * * * * * * * * * * * * * * * * * * * * * * * * * * //

dimensions      [0 1 -1 0 0 0 0];

internalField   nonuniform List<vector> 
1152
(
(-0.000143384 -0.000744522 0.0157356)
(-0.00059049 -0.000934172 0.00757742)
(0.000219181 -0.00225573 0.0167815)
(0.00297369 -0.000962386 0.0123478)
(-0.0011431 1.25965e-05 0.0328914)
(-0.00178509 -0.00170217 0.0196193)
(0.0004152 -0.00103519 0.0162648)
(-3.59548e-05 -1.03075e-05 0.000624387)
(-0.00219401 0.000772406 0.01516)
(-0.0022747 0.00113343 0.0168485)
(0.00134332 0.00067633 0.0175759)
(0.00136458 -0.00608406 0.0378917)
(0.000927638 -7.47805e-05 0.0186128)
(-0.00465087 0.0019194 0.0178968)
(-0.00253443 0.00194203 0.0177761)
(-0.00122064 -0.00426206 0.0203765)
(0.00444825 -0.00161243 0.0382103)
(-0.00201179 0.00103916 0.0442652)
(0.00143239 -0.000494102 0.030318)
(-0.00102653 -0.000631153 0.00527836)
(0.000534489 -0.00231911 0.0134205)
(-0.00129683 -0.0117436 0.0462625)
(-0.000881884 -0.00329907 0.0366432)
(-0.0015771 -0.0136099 0.0361869)
(0.000681592 -0.00171097 0.0379067)
(-0.000790831 -0.00263196 0.0309913)
(-0.00170677 -0.000728978 0.0158489)
(-0.000717824 -0.00421633 0.0416922)
(-0.00112975 -0.00344766 0.0622632)
(-0.00392888 -0.0012607 0.04637)
(-0.00186342 -0.00340058 0.0368391)
(-0.000593698 0.000743097 0.0304241)
(-0.00423657 0.000451226 0.037938)
(-0.000149929 0.000158057 0.00847508)
(-0.006134 -0.00199379 0.0284523)
(-0.00868719 -0.00198449 0.0549889)
(0.00148605 -0.00318129 0.0627287)
(-0.00169322 -0.000799577 0.0236352)
(-0.00142374 0.00168057 0.0207084)
(0.00285647 0.0105999 0.0445566)
(-0.0013143 -0.000960159 0.0210693)
(0.000531812 -0.00100492 0.0318781)
(0.00174609 0.00525988 0.0451228)
(0.0001519 0.00694075 0.0340074)
(-0.00662665 0.00468774 0.0633814)
(-5.55963e-05 -0.00108706 0.0119582)
(0.00566594 -0.000684338 0.0311841)
(0.000529302 -0.000719125 0.020355)
(-0.00653625 -0.00280396 0.032921)
(-0.00154422 -5.80399e-05 0.0501046)
(-0.00109927 -5.98084e-05 0.0159242)
(-0.00984482 -0.00376146 0.0688138)
(-0.00465622 0.00428214 0.0460282)
(0.00103742 0.0105791 0.0480484)
(-0.00107447 0.000713328 0.0224542)
(-0.00303361 0.00495251 0.0432747)
(-0.00161859 0.00132327 0.0270618)
(-0.00178413 0.00262242 0.0329963)
(-0.00106299 0.00191311 0.0263044)
(0.00249119 0.00908424 0.0619505)
(-0.00192898 0.00292424 0.0318587)
(0.000652072 0.00352024 0.0456667)
(-0.00119833 0.00787297 0.0410233)
(-0.000531041 -0.000322596 0.0097923)
(-0.00201764 -0.00351596 0.0307949)
(-0.0030839 -0.000775209 0.0458622)
(-0.00283667 0.00323204 0.0501972)
(0.008098 0.00667492 0.0563468)
(-0.00261425 0.00331216 0.042739)
(-0.00198933 0.00446432 0.0454548)
(-0.00104996 0.00413446 0.0357949)
(0.0010662 0.0010747 0.0290016)
(-0.000319992 0.00398039 0.0257184)
(-0.000682652 0.00439813 0.0387526)
(-0.00193388 0.00067063 0.0248307)
(-0.00305418 -0.00220754 0.0583045)
(-0.00067503 0.00777323 0.0476234)
(-0.00461165 0.00234186 0.0305383)
(-0.0107869 0.000714286 0.0503703)
(0.000552608 0.000873049 0.0222629)
(-0.00179345 0.00102472 0.0174229)
(-0.00250678 -0.000649824 0.0342179)
(-0.00141597 0.00119321 0.0277692)
(-0.000558881 0.000299975 0.0116682)
(-0.00525453 0.00212379 0.0378225)
(-0.00304831 0.0016648 0.0305163)
(-0.000555476 -6.33724e-05 0.020541)
(0.000327953 -9.52658e-05 0.0331383)
(-0.000825638 0.002742 0.0261392)
(-0.00236597 0.0023635 0.0232802)
(-0.00331782 0.00320686 0.0461474)
(0.00242072 0.00955393 0.0324394)
(-0.00652684 0.038965 0.0428486)
(-0.00513331 0.0042342 0.0325408)
(0.00453897 0.0026797 0.024113)
(0.000857979 0.0015038 0.0131449)
(0.000145545 0.00135903 0.0155479)
(-0.000460661 0.000568727 0.0261622)
(-3.32796e-05 0.000441143 0.0314187)
(0.000900913 0.00154226 0.0248989)
(-0.00051693 0.00080326 0.0302584)
(0.000577444 0.000909746 0.0235455)
(0.000231934 0.000781234 0.0181492)
(0.000174737 0.000901125 0.0207232)
(2.81718e-06 -0.000129695 0.0180378)
(-0.000606414 0.00102413 0.022449)
(-0.000331542 0.000266255 0.0183191)
(0.000310353 0.000156627 0.0260143)
(0.000553021 -0.0111585 0.0277437)
(0.000478604 -6.93767e-05 0.0207651)
(-2.60335e-05 0.000234752 0.0211212)
(0.00155184 0.00175665 -0.010704)
(0.00125728 0.00104573 0.0135968)
(0.00220693 0.0013107 0.0257192)
(0.00234369 0.00112003 0.0321011)
(0.00122699 0.0016235 0.0457766)
(0.000778485 0.00190073 0.0306359)
(0.0013929 0.00137054 0.0243872)
(0.00171032 0.000301685 0.0132369)
(0.00135645 7.41817e-05 0.0233309)
(0.000118482 0.00204374 0.0264223)
(0.00041858 0.00170272 0.0245238)
(0.000841801 0.000993273 0.019892)
(0.00140125 0.000213117 0.0288267)
(-9.0286e-05 0.00226923 0.0534243)
(0.000218559 0.00185273 0.0294534)
(0.000131547 0.00190218 0.0234392)
(0.000913425 0.00182614 0.0361679)
(0.00151325 0.00100667 0.010337)
(0.000413081 0.000628196 0.0106373)
(-0.00250065 0.000309806 0.0130505)
(-0.000304972 0.00116138 0.0195746)
(0.00130893 -0.000614213 0.0111381)
(0.00196404 0.000269395 0.0098978)
(-0.000283433 0.00108407 0.00936165)
(-0.000991659 0.00291127 0.0118914)
(0.00181521 -0.00223924 0.0114938)
(0.00194362 -0.00112691 0.00983748)
(-1.6227e-05 -0.00102611 0.00863969)
(0.000189603 -0.000664826 0.00934531)
(0.00177816 -0.00303179 0.0156675)
(0.002875 -0.00201433 0.0108352)
(3.07578e-05 -0.00159321 0.00822898)
(-0.000149563 -0.00085193 0.00839587)
(0.000946874 0.000490139 0.019218)
(0.000429912 0.000392354 0.0191219)
(-0.000979751 0.000244169 0.0198802)
(-5.86982e-05 0.00057052 0.0230079)
(0.000839794 -7.29169e-05 0.0193776)
(0.000953855 0.000263229 0.0186162)
(-0.000150519 0.000649876 0.0182035)
(-0.000304811 0.00148857 0.0197501)
(0.000941266 -0.000787618 0.0200208)
(0.00104202 -0.000443973 0.0188964)
(0.000162174 -0.000318359 0.0182094)
(0.000156154 6.84849e-05 0.0189945)
(0.000664296 -0.0009139 0.0218694)
(0.00124462 -0.000839665 0.0197685)
(0.000262538 -0.00083617 0.018619)
(3.30613e-05 -0.000675273 0.0192476)
(0.000604549 0.000138741 0.0177938)
(0.000402752 0.000126653 0.0176592)
(-0.000165956 6.5881e-05 0.0178288)
(9.87814e-05 0.000136992 0.0188664)
(0.000559843 -9.55515e-05 0.0176628)
(0.000548109 3.69962e-05 0.0173376)
(5.66764e-05 0.000176188 0.0171678)
(-7.653e-06 0.000453506 0.0177462)
(0.000626249 -0.00048177 0.0178525)
(0.000619672 -0.000351804 0.0173971)
(0.000204688 -0.000278336 0.0171147)
(0.000131645 -0.000101667 0.0173737)
(0.000532609 -0.000602469 0.018273)
(0.00067003 -0.000578642 0.0176377)
(0.000253182 -0.000572521 0.0172383)
(9.64277e-05 -0.000531356 0.0174007)
(0.000382527 3.68096e-05 0.0183777)
(0.000298859 3.44791e-05 0.0182844)
(7.46093e-05 1.00636e-05 0.0182863)
(0.000131047 1.96913e-05 0.0185945)
(0.000336354 -4.05118e-05 0.0182894)
(0.000320463 -1.18988e-05 0.0181386)
(0.000123911 2.61339e-05 0.0180521)
(8.53448e-05 0.000108913 0.0182482)
(0.000347472 -0.000207395 0.0183865)
(0.000340013 -0.000192181 0.0181837)
(0.000172599 -0.000178431 0.0180536)
(0.00012393 -0.000121618 0.0181374)
(0.000256425 -0.000259357 0.0185388)
(0.000313721 -0.000304745 0.0182984)
(0.000168767 -0.000332336 0.0181377)
(0.000110801 -0.000337778 0.0181818)
(0.000239472 -2.06497e-06 0.0184372)
(0.000208189 -4.0913e-06 0.018389)
(0.000123758 -1.43621e-05 0.0183669)
(0.000121851 -1.56079e-05 0.0184482)
(0.000208575 -3.45832e-05 0.0183782)
(0.000202789 -3.27049e-05 0.0183223)
(0.000129034 -2.54988e-05 0.0182823)
(0.000103704 -4.00914e-06 0.0183364)
(0.000210531 -0.000113788 0.0183989)
(0.000207036 -0.000116081 0.0183326)
(0.000142582 -0.000115689 0.0182824)
(0.000113745 -0.000100391 0.0183035)
(0.000166091 -0.000150074 0.0184144)
(0.000185711 -0.000174407 0.0183594)
(0.000133038 -0.000190625 0.0183133)
(0.000109205 -0.000198013 0.0183271)
(0.000151145 -1.32089e-05 0.0184494)
(0.000141338 -1.6327e-05 0.0184307)
(0.000110282 -2.15543e-05 0.0184139)
(0.000100754 -2.40414e-05 0.0184285)
(0.000131932 -2.70627e-05 0.0184164)
(0.000132973 -3.20892e-05 0.0184007)
(0.000107014 -3.39294e-05 0.0183828)
(9.31995e-05 -3.04607e-05 0.018392)
(0.000129023 -6.17928e-05 0.0184133)
(0.000130757 -6.86816e-05 0.0183979)
(0.000108118 -7.29257e-05 0.0183789)
(9.5121e-05 -7.12338e-05 0.0183793)
(0.000103988 -8.14974e-05 0.0183964)
(0.000115714 -9.76916e-05 0.0183941)
(9.95808e-05 -0.000107758 0.0183825)
(9.25663e-05 -0.00011339 0.0183838)
(9.74956e-05 -1.49789e-05 0.0184505)
(9.6186e-05 -1.78514e-05 0.0184505)
(8.52586e-05 -2.09067e-05 0.018443)
(7.83111e-05 -2.30248e-05 0.0184406)
(8.64385e-05 -2.09285e-05 0.0184306)
(9.01644e-05 -2.61044e-05 0.0184356)
(8.18394e-05 -2.92533e-05 0.0184305)
(7.50758e-05 -3.00504e-05 0.0184282)
(8.23466e-05 -3.56271e-05 0.0184151)
(8.66886e-05 -4.17086e-05 0.0184244)
(7.9999e-05 -4.60923e-05 0.0184221)
(7.47889e-05 -4.76506e-05 0.018419)
(6.84585e-05 -4.58931e-05 0.0183824)
(7.73413e-05 -5.55926e-05 0.0184042)
(7.39776e-05 -6.19831e-05 0.0184095)
(7.28491e-05 -6.5562e-05 0.0184094)
(6.42558e-05 -1.35411e-05 0.018446)
(6.60483e-05 -1.5706e-05 0.0184574)
(6.28803e-05 -1.76348e-05 0.0184575)
(5.88777e-05 -1.90125e-05 0.0184531)
(5.81292e-05 -1.57803e-05 0.0184317)
(6.23599e-05 -1.96316e-05 0.0184476)
(6.05694e-05 -2.22591e-05 0.0184504)
(5.74068e-05 -2.36686e-05 0.0184473)
(5.44371e-05 -2.14985e-05 0.0184104)
(5.92867e-05 -2.59752e-05 0.0184319)
(5.84791e-05 -2.94226e-05 0.0184385)
(5.66627e-05 -3.13902e-05 0.0184368)
(4.67487e-05 -2.63914e-05 0.0183706)
(5.35786e-05 -3.23749e-05 0.0184032)
(5.44294e-05 -3.64203e-05 0.0184167)
(5.50837e-05 -3.87621e-05 0.0184183)
(4.32488e-05 -1.11694e-05 0.01844)
(4.58678e-05 -1.2708e-05 0.0184584)
(4.55701e-05 -1.39638e-05 0.0184639)
(4.35839e-05 -1.48146e-05 0.0184614)
(3.98212e-05 -1.16902e-05 0.0184277)
(4.36339e-05 -1.43069e-05 0.0184499)
(4.40539e-05 -1.62158e-05 0.0184577)
(4.27419e-05 -1.7421e-05 0.0184565)
(3.6972e-05 -1.35028e-05 0.0184035)
(4.13302e-05 -1.65784e-05 0.0184315)
(4.23901e-05 -1.90522e-05 0.0184434)
(4.20076e-05 -2.06747e-05 0.0184441)
(3.26462e-05 -1.56245e-05 0.01836)
(3.78011e-05 -1.93622e-05 0.0183983)
(3.96885e-05 -2.19747e-05 0.0184165)
(4.07242e-05 -2.35285e-05 0.0184204)
(2.95764e-05 -8.77184e-06 0.0184344)
(3.20908e-05 -9.83977e-06 0.0184572)
(3.27219e-05 -1.06738e-05 0.0184662)
(3.18743e-05 -1.12112e-05 0.0184661)
(2.75667e-05 -8.55318e-06 0.0184226)
(3.06951e-05 -1.02908e-05 0.0184486)
(3.17491e-05 -1.16149e-05 0.0184599)
(3.13605e-05 -1.24893e-05 0.0184609)
(2.5529e-05 -8.73617e-06 0.0183968)
(2.90852e-05 -1.07991e-05 0.0184286)
(3.05428e-05 -1.25138e-05 0.0184439)
(3.07254e-05 -1.37285e-05 0.0184469)
(2.30082e-05 -9.5434e-06 0.0183513)
(2.68468e-05 -1.1905e-05 0.0183928)
(2.87238e-05 -1.36197e-05 0.018414)
(2.97032e-05 -1.46681e-05 0.0184201)
(2.03902e-05 -6.66192e-06 0.0184296)
(2.2473e-05 -7.39525e-06 0.0184552)
(2.33044e-05 -7.94609e-06 0.0184667)
(2.30682e-05 -8.29586e-06 0.0184685)
(1.91579e-05 -6.18833e-06 0.0184178)
(2.15971e-05 -7.33527e-06 0.0184463)
(2.26934e-05 -8.21763e-06 0.0184599)
(2.27243e-05 -8.82375e-06 0.0184628)
(1.77545e-05 -5.76972e-06 0.018391)
(2.05062e-05 -7.14163e-06 0.0184252)
(2.18528e-05 -8.31695e-06 0.0184428)
(2.22151e-05 -9.18687e-06 0.0184477)
(1.6251e-05 -6.00041e-06 0.0183445)
(1.90535e-05 -7.50524e-06 0.018388)
(2.06184e-05 -8.63982e-06 0.0184113)
(2.14267e-05 -9.34803e-06 0.0184191)
(1.40145e-05 -4.90289e-06 0.0184259)
(1.56203e-05 -5.39076e-06 0.0184532)
(1.63909e-05 -5.75151e-06 0.0184664)
(1.64372e-05 -5.98475e-06 0.0184697)
(1.32453e-05 -4.40858e-06 0.0184138)
(1.50764e-05 -5.15066e-06 0.0184439)
(1.60076e-05 -5.72851e-06 0.0184591)
(1.62008e-05 -6.13757e-06 0.0184635)
(1.23002e-05 -3.84241e-06 0.0183865)
(1.43528e-05 -4.74708e-06 0.0184223)
(1.54384e-05 -5.53996e-06 0.0184413)
(1.58171e-05 -6.14605e-06 0.0184476)
(1.1395e-05 -3.81998e-06 0.0183394)
(1.34046e-05 -4.79555e-06 0.0183842)
(1.46036e-05 -5.54743e-06 0.0184088)
(1.52302e-05 -6.02485e-06 0.018418)
(9.45831e-06 -3.46805e-06 0.018423)
(1.06283e-05 -3.78414e-06 0.0184515)
(1.12478e-05 -4.01493e-06 0.0184659)
(1.13881e-05 -4.16496e-06 0.0184703)
(8.97651e-06 -3.04507e-06 0.0184108)
(1.02927e-05 -3.51716e-06 0.018442)
(1.10097e-05 -3.88839e-06 0.0184583)
(1.12319e-05 -4.15702e-06 0.0184637)
(8.35792e-06 -2.53588e-06 0.0183832)
(9.82497e-06 -3.11574e-06 0.0184199)
(1.06352e-05 -3.63578e-06 0.01844)
(1.09613e-05 -4.04513e-06 0.0184473)
(7.81944e-06 -2.42504e-06 0.0183356)
(9.22128e-06 -3.05172e-06 0.0183813)
(1.00839e-05 -3.53987e-06 0.0184069)
(1.05445e-05 -3.85495e-06 0.018417)
(6.09196e-06 -2.30471e-06 0.0184211)
(6.88756e-06 -2.50071e-06 0.0184503)
(7.33464e-06 -2.64137e-06 0.0184654)
(7.47335e-06 -2.7295e-06 0.0184706)
(5.79861e-06 -1.98745e-06 0.0184087)
(6.68652e-06 -2.27565e-06 0.0184406)
(7.19169e-06 -2.50441e-06 0.0184576)
(7.37796e-06 -2.67235e-06 0.0184637)
(5.41378e-06 -1.60611e-06 0.0183809)
(6.39954e-06 -1.96122e-06 0.0184182)
(6.95797e-06 -2.28538e-06 0.018439)
(7.20215e-06 -2.54781e-06 0.018447)
(5.10526e-06 -1.48674e-06 0.0183331)
(6.03187e-06 -1.87883e-06 0.0183794)
(6.61151e-06 -2.18063e-06 0.0184056)
(6.92594e-06 -2.38031e-06 0.0184163)
(3.49859e-06 -1.39652e-06 0.0184199)
(3.97497e-06 -1.50919e-06 0.0184495)
(4.2512e-06 -1.58819e-06 0.0184651)
(4.3481e-06 -1.63401e-06 0.0184707)
(3.33541e-06 -1.19447e-06 0.0184073)
(3.86335e-06 -1.35634e-06 0.0184397)
(4.17237e-06 -1.48606e-06 0.0184571)
(4.29626e-06 -1.58091e-06 0.0184637)
(3.12173e-06 -9.55466e-07 0.0183794)
(3.7041e-06 -1.15652e-06 0.0184171)
(4.04103e-06 -1.33914e-06 0.0184383)
(4.19527e-06 -1.49004e-06 0.0184467)
(2.95605e-06 -8.58105e-07 0.0183315)
(3.50001e-06 -1.08634e-06 0.0183781)
(3.84725e-06 -1.25766e-06 0.0184047)
(4.0356e-06 -1.37516e-06 0.0184158)
(1.41721e-06 -8.88312e-07 0.0184192)
(1.61687e-06 -9.54853e-07 0.0184491)
(1.73517e-06 -1.0009e-06 0.018465)
(1.7782e-06 -1.0268e-06 0.0184708)
(1.335e-06 -7.94276e-07 0.0184066)
(1.55661e-06 -8.82167e-07 0.0184392)
(1.69335e-06 -9.50107e-07 0.0184569)
(1.75359e-06 -9.97733e-07 0.0184636)
(1.23318e-06 -6.74569e-07 0.0183786)
(1.47699e-06 -7.79083e-07 0.0184165)
(1.63087e-06 -8.6786e-07 0.0184379)
(1.70879e-06 -9.38618e-07 0.0184465)
(1.14119e-06 -5.78125e-07 0.0183306)
(1.38164e-06 -6.99912e-07 0.0183774)
(1.5456e-06 -7.89818e-07 0.0184041)
(1.64283e-06 -8.53211e-07 0.0184155)
(-0.000313014 -0.00281292 0.0313859)
(0.000394984 -0.00187376 0.00972367)
(-0.00231767 -0.00323833 0.0260966)
(-0.0010426 -0.00178524 0.00823614)
(-0.00135857 -0.00226424 0.0132313)
(-0.000655851 -0.000295302 0.0124418)
(-0.000763141 -0.00115254 0.0179499)
(-0.000896655 -0.000227337 0.0185779)
(-0.000487789 -0.000759615 0.0156831)
(-0.000223091 0.00219204 0.0267223)
(-0.00191502 0.00216202 0.0200377)
(0.000354907 0.00147424 0.0126586)
(-0.00351027 -0.00145383 0.0266831)
(0.000832661 -0.00090999 0.0130042)
(-0.000309455 0.00147403 0.0218275)
(0.00791054 0.000471237 0.022477)
(-0.00089954 -0.000963033 0.025994)
(-0.00125667 -0.00254773 0.052397)
(0.00148696 -0.00243921 0.0411125)
(-0.00374032 0.000358978 0.0475732)
(-0.000458175 0.000893743 0.0592786)
(-0.000148215 -0.000979856 0.0184179)
(5.35979e-05 0.00045212 0.0318466)
(0.000581411 -0.00257809 0.0197177)
(-0.00102561 -0.00295104 0.037375)
(-0.00147231 0.00101237 0.0582699)
(-0.000583052 0.000516644 0.0409381)
(-0.00403758 -0.00219971 0.0471314)
(0.000518482 -0.00250313 0.0311559)
(-0.00161892 0.000696628 0.0366733)
(-0.00253208 -0.00160299 0.0508922)
(-0.00136276 -0.000422103 0.0171457)
(0.000280539 0.000402099 0.034537)
(-0.00153001 0.00757716 0.0435073)
(0.00238859 -0.00163542 0.0333044)
(0.00318937 -0.00659502 0.0575042)
(0.000803129 0.000627567 0.0178246)
(0.00143888 -0.000560766 0.0209105)
(0.000108292 -0.000870713 0.0173244)
(-0.000935979 -0.00539213 0.044975)
(-0.00186504 0.00283131 0.0363772)
(0.00115569 -0.00387132 0.0258865)
(-0.000994901 -0.00186957 0.0505844)
(-0.00143311 -0.00154216 0.0224395)
(-0.00182085 0.00037352 0.0379269)
(-0.00330075 -0.000116703 0.0517092)
(-0.000167125 -0.0020243 0.0309681)
(-0.00416657 0.00241954 0.0539772)
(-7.10104e-05 0.0029066 0.0385336)
(0.000192038 0.0016533 0.0341038)
(-0.000431521 4.14021e-05 0.0189599)
(-0.00320343 0.00632483 0.0598327)
(0.00233398 -0.00361038 0.0467202)
(0.000150679 0.00287114 0.0610862)
(0.000450757 -0.00218194 0.0272852)
(0.000224456 0.000777538 0.0285733)
(0.00184737 -0.00118188 0.0405669)
(0.000158992 0.000806609 0.0451879)
(0.00184635 -0.00371542 0.0578742)
(-0.000654063 0.000411691 0.0306767)
(0.00179871 0.00118374 0.0475798)
(-0.000240127 -0.000206175 0.0257494)
(0.000907893 -0.00168832 0.0375352)
(-0.00111709 -2.29174e-05 0.0337762)
(-0.0016501 0.00143967 0.0868542)
(-0.0054742 -0.00286857 0.0384808)
(-0.00612481 0.00492438 0.0611589)
(0.00276333 0.00758301 0.0315479)
(4.60598e-05 -0.00128162 0.0134123)
(-0.00186186 -0.00168555 0.0249239)
(0.00236027 0.000260389 0.0263078)
(0.00553673 0.00781346 0.0479009)
(0.00174699 -0.00230023 0.0202504)
(0.00185303 -0.000171731 0.0425325)
(0.00511051 -0.00218808 0.0482999)
(0.00334656 0.000616241 0.0404141)
(0.00209471 0.00162527 0.0375787)
(0.00123106 0.000630633 0.0685078)
(0.000443272 -0.000645984 0.0124142)
(-0.000775672 0.00158005 0.062452)
(-0.000246635 -0.000276029 0.00900101)
(-0.00895319 -0.00393943 0.0214914)
(0.000285377 0.00173049 0.0166601)
(0.000104275 -0.00079802 0.0149583)
(0.00825063 -0.0346808 0.03397)
(-0.00035257 -0.00314439 0.0355585)
(0.00129156 0.000184583 0.0201377)
(0.0155141 0.0117195 0.0399635)
(0.00267695 -0.00246423 0.022459)
(-0.000407574 0.000401828 0.0255128)
(0.00897078 0.00168654 0.035699)
(-0.000433513 -9.13002e-06 0.00688346)
(0.00398792 -0.000265293 0.0319684)
(0.000255444 0.000798836 0.0159316)
(-0.000540906 0.000383275 0.0157485)
(0.00147309 -0.0143345 0.0445099)
(0.000729056 0.0041987 -0.133197)
(0.00413871 0.00265083 0.0200428)
(0.000783442 0.00084384 0.0256108)
(0.000647338 0.00144341 0.0144097)
(-0.00119248 0.0117894 0.0129662)
(0.00147735 0.00212804 0.015218)
(0.000882005 0.000867344 0.0186563)
(-0.00097982 -0.000258922 0.0109711)
(0.0010059 0.00113323 0.0126634)
(9.71548e-05 -0.000356095 0.0212778)
(-0.000649235 0.000884561 0.0253352)
(0.00148409 -0.00195055 -0.0748322)
(0.000391829 -0.000557221 0.0237186)
(0.00175728 -0.000107312 0.0326657)
(0.000933899 0.000456819 0.0106993)
(0.000325727 0.00652747 0.0319072)
(0.000237305 0.00180831 0.0794731)
(8.45167e-05 0.00189058 0.0416668)
(0.00059747 0.00227354 0.0321729)
(0.000757552 0.00240359 0.0254032)
(0.000285974 0.00142736 0.052224)
(0.000629128 0.0015808 0.027925)
(0.000586034 0.00225398 0.027443)
(0.000982952 0.00417754 0.0328376)
(9.61883e-05 0.00120728 0.0270216)
(0.00121957 0.000382549 0.0304822)
(0.00265923 0.00162854 0.0358248)
(0.00112628 0.000374731 0.0695474)
(-4.27075e-05 0.000378565 0.0293686)
(0.00126748 5.44193e-05 0.0382542)
(0.00110431 0.000462431 0.0185527)
(0.00098366 -0.0021863 0.0480224)
(0.000881025 0.000363348 0.0167945)
(0.00288923 0.000136758 0.0125815)
(0.000969403 -0.00101512 0.0101238)
(-3.49022e-05 -0.00209212 0.00910283)
(-0.000344163 0.00237665 0.0142876)
(0.00193395 0.000976654 0.0111351)
(-0.000763077 -0.000693021 0.0104856)
(-0.00353379 -0.00388382 0.0126245)
(-0.000844924 0.00148837 0.0108301)
(0.00116951 -0.000203909 0.0109736)
(-0.00215992 0.000559541 0.0110237)
(-0.00114075 -0.00163308 0.0148643)
(-0.000533937 -9.33214e-06 0.0101768)
(0.00173045 0.000191693 0.0120808)
(-0.00134541 0.00101464 0.00864533)
(-0.000693099 0.000125025 0.0147997)
(0.000258796 6.51686e-05 0.0227258)
(0.000992349 -0.000339398 0.0209781)
(0.000258643 -0.000943596 0.0198431)
(-4.34495e-05 -0.00160761 0.0199423)
(-0.000250293 0.000585543 0.0221449)
(0.000557298 -8.86872e-06 0.0208944)
(-0.000504864 -0.0006464 0.0204329)
(-0.0012395 -0.00192239 0.0222943)
(-0.00052992 0.000482782 0.0210631)
(0.000262605 -6.43583e-05 0.0209695)
(-0.00104224 0.000142281 0.0207891)
(-0.000699014 -0.000816736 0.0242838)
(-0.000446277 -3.14139e-05 0.0206174)
(0.000413215 8.44773e-05 0.0212219)
(-0.000885116 0.000278974 0.0194062)
(-0.000549678 -0.000117935 0.0234716)
(0.000327365 -0.000273198 0.0184385)
(0.000585296 -0.00040873 0.0180275)
(0.000210748 -0.000644817 0.0177262)
(5.37437e-05 -0.000932372 0.0178686)
(0.000104092 -6.60373e-05 0.0182954)
(0.000428775 -0.000235872 0.0181016)
(-6.77763e-05 -0.000465377 0.018042)
(-0.000273263 -0.000974074 0.0188197)
(-3.65091e-05 -4.29752e-05 0.017963)
(0.000324889 -0.000153566 0.0180992)
(-0.000282142 -0.000128217 0.0180847)
(-0.000215552 -0.000543735 0.0194295)
(-0.0001003 -0.000107207 0.017649)
(0.000309329 1.00227e-05 0.0179983)
(-0.00029573 -1.10534e-06 0.017491)
(-0.000190472 -0.000170323 0.0191644)
(0.000153556 -0.000173541 0.0186442)
(0.000246752 -0.000267538 0.0184812)
(0.000118067 -0.000378706 0.0183549)
(8.5769e-05 -0.000511027 0.018423)
(5.02471e-05 -0.00011402 0.0186311)
(0.000170012 -0.000198175 0.0185527)
(-8.19504e-07 -0.000291784 0.0184986)
(-8.19151e-06 -0.000491737 0.0187826)
(-3.69173e-05 -6.439e-05 0.0185254)
(0.00010533 -0.00010052 0.0185465)
(-0.000109625 -0.000107524 0.0184838)
(-3.02546e-05 -0.000273348 0.0189824)
(-8.72296e-05 -7.17575e-05 0.0183834)
(7.12754e-05 -1.66089e-05 0.0184671)
(-0.000150296 -2.6315e-05 0.0182539)
(-4.15145e-05 -8.32295e-05 0.0188985)
(0.000112663 -0.000114427 0.0184206)
(0.000152708 -0.000154252 0.0184072)
(0.000104308 -0.000204578 0.0183859)
(9.85868e-05 -0.000263697 0.0184233)
(6.29843e-05 -9.2505e-05 0.0183811)
(0.00011568 -0.000125781 0.0184115)
(4.98998e-05 -0.000166926 0.0184213)
(6.60945e-05 -0.000248346 0.0185408)
(1.6638e-05 -6.2964e-05 0.0182897)
(8.03318e-05 -7.13224e-05 0.0183576)
(-3.45603e-06 -8.20923e-05 0.0183673)
(4.51832e-05 -0.000149653 0.0185742)
(-2.54927e-05 -4.64729e-05 0.0181379)
(4.77926e-05 -1.63199e-05 0.0182251)
(-3.73e-05 -2.61719e-05 0.0181886)
(2.79738e-05 -4.76197e-05 0.0184606)
(7.45658e-05 -6.07315e-05 0.0183713)
(9.70375e-05 -8.22404e-05 0.0183893)
(8.38985e-05 -0.000108202 0.018392)
(8.71709e-05 -0.00013612 0.0184069)
(4.81076e-05 -5.25382e-05 0.0183204)
(7.57674e-05 -6.8995e-05 0.0183556)
(5.80523e-05 -8.98433e-05 0.0183718)
(7.38994e-05 -0.000125673 0.0184209)
(2.13982e-05 -3.4267e-05 0.0182335)
(5.35266e-05 -3.91122e-05 0.0182811)
(2.99463e-05 -4.8191e-05 0.0182968)
(6.07125e-05 -7.97632e-05 0.0183817)
(-6.56787e-06 -2.26387e-05 0.0180952)
(2.92753e-05 -9.4993e-06 0.0181454)
(5.38385e-06 -1.4421e-05 0.0181452)
(4.55704e-05 -2.53378e-05 0.0182548)
(5.1929e-05 -3.10914e-05 0.0183383)
(6.64048e-05 -4.29628e-05 0.0183729)
(6.50095e-05 -5.76454e-05 0.0183877)
(6.95929e-05 -7.20311e-05 0.0183958)
(3.71522e-05 -2.77935e-05 0.0182762)
(5.36262e-05 -3.63976e-05 0.0183181)
(5.15416e-05 -4.78e-05 0.0183404)
(6.28076e-05 -6.49919e-05 0.018363)
(2.17042e-05 -1.67452e-05 0.018184)
(3.96303e-05 -1.92599e-05 0.018229)
(3.59188e-05 -2.59047e-05 0.018252)
(5.45619e-05 -4.19919e-05 0.0182896)
(3.67191e-06 -9.07046e-06 0.018044)
(2.31641e-05 -2.90843e-06 0.0180867)
(1.96084e-05 -6.14142e-06 0.0181031)
(4.3867e-05 -1.26962e-05 0.0181512)
(3.69279e-05 -1.52116e-05 0.018317)
(4.68208e-05 -2.2258e-05 0.0183587)
(4.89928e-05 -3.1163e-05 0.0183798)
(5.27866e-05 -3.93832e-05 0.0183867)
(2.80424e-05 -1.39345e-05 0.0182491)
(3.87961e-05 -1.87587e-05 0.0182931)
(4.13082e-05 -2.55441e-05 0.0183188)
(4.86899e-05 -3.45029e-05 0.0183327)
(1.85609e-05 -6.90207e-06 0.0181534)
(2.97646e-05 -8.63473e-06 0.0181964)
(3.22241e-05 -1.32901e-05 0.0182224)
(4.3385e-05 -2.20048e-05 0.0182427)
(6.86543e-06 -2.25136e-06 0.0180127)
(1.86389e-05 4.78632e-07 0.0180503)
(2.16004e-05 -1.73133e-06 0.0180723)
(3.6008e-05 -6.01692e-06 0.0180965)
(2.65706e-05 -7.09837e-06 0.0183014)
(3.34878e-05 -1.15247e-05 0.0183471)
(3.62237e-05 -1.71982e-05 0.0183718)
(3.90053e-05 -2.23e-05 0.0183798)
(2.09758e-05 -6.62809e-06 0.0182301)
(2.82851e-05 -9.51362e-06 0.0182757)
(3.15503e-05 -1.37784e-05 0.0183038)
(3.62754e-05 -1.89291e-05 0.0183156)
(1.49841e-05 -2.07767e-06 0.0181323)
(2.23711e-05 -3.32558e-06 0.0181748)
(2.59673e-05 -6.50166e-06 0.0182028)
(3.27493e-05 -1.17314e-05 0.0182174)
(7.22363e-06 6.99207e-07 0.0179909)
(1.49107e-05 1.87356e-06 0.0180267)
(1.90019e-05 3.31097e-07 0.0180511)
(2.76286e-05 -2.76735e-06 0.0180666)
(1.91352e-05 -3.14897e-06 0.0182901)
(2.40454e-05 -5.98931e-06 0.0183381)
(2.64431e-05 -9.7249e-06 0.0183652)
(2.84043e-05 -1.30737e-05 0.0183749)
(1.54862e-05 -2.98188e-06 0.0182169)
(2.05967e-05 -4.75414e-06 0.0182636)
(2.34607e-05 -7.52318e-06 0.0182935)
(2.64958e-05 -1.07413e-05 0.0183057)
(1.15831e-05 5.62806e-08 0.0181178)
(1.66522e-05 -7.87677e-07 0.0181605)
(1.9886e-05 -3.01717e-06 0.0181899)
(2.40747e-05 -6.39565e-06 0.0182034)
(6.37368e-06 1.74097e-06 0.0179762)
(1.15981e-05 2.24405e-06 0.0180113)
(1.52263e-05 1.06468e-06 0.0180371)
(2.05059e-05 -1.2174e-06 0.01805)
(1.37248e-05 -1.29777e-06 0.0182818)
(1.72184e-05 -3.12793e-06 0.0183314)
(1.90971e-05 -5.63814e-06 0.0183602)
(2.04591e-05 -7.89639e-06 0.0183714)
(1.12957e-05 -1.23236e-06 0.0182076)
(1.49048e-05 -2.32677e-06 0.0182552)
(1.71325e-05 -4.17189e-06 0.0182864)
(1.91048e-05 -6.28337e-06 0.0182997)
(8.69897e-06 8.36045e-07 0.0181078)
(1.22457e-05 2.82257e-07 0.0181508)
(1.47774e-05 -1.28238e-06 0.0181814)
(1.74156e-05 -3.56778e-06 0.0181952)
(5.16367e-06 1.87717e-06 0.017966)
(8.80478e-06 2.09806e-06 0.0180011)
(1.16209e-05 1.19621e-06 0.0180279)
(1.4912e-05 -4.91751e-07 0.0180405)
(9.73451e-06 -4.53466e-07 0.0182759)
(1.21887e-05 -1.63456e-06 0.0183265)
(1.35828e-05 -3.32866e-06 0.0183566)
(1.4524e-05 -4.86375e-06 0.0183689)
(8.10513e-06 -4.33183e-07 0.018201)
(1.06419e-05 -1.10372e-06 0.0182494)
(1.22732e-05 -2.34546e-06 0.0182816)
(1.35669e-05 -3.75606e-06 0.0182958)
(6.35308e-06 9.98321e-07 0.0181009)
(8.84477e-06 6.29144e-07 0.0181443)
(1.07054e-05 -4.61718e-07 0.0181757)
(1.23901e-05 -2.02646e-06 0.0181903)
(3.94833e-06 1.64732e-06 0.017959)
(6.50006e-06 1.73847e-06 0.0179943)
(8.56181e-06 1.06591e-06 0.0180218)
(1.06417e-05 -1.62563e-07 0.0180348)
(6.73895e-06 -8.40354e-08 0.0182717)
(8.42175e-06 -8.46285e-07 0.018323)
(9.40892e-06 -1.97116e-06 0.0183539)
(1.00474e-05 -3.00169e-06 0.0183672)
(5.65403e-06 -8.84227e-08 0.0181965)
(7.40046e-06 -4.92817e-07 0.0182454)
(8.54344e-06 -1.32032e-06 0.0182783)
(9.38658e-06 -2.26161e-06 0.0182933)
(4.48466e-06 8.88065e-07 0.0180961)
(6.20226e-06 6.52139e-07 0.0181399)
(7.50514e-06 -9.91465e-08 0.018172)
(8.58136e-06 -1.16266e-06 0.0181872)
(2.87174e-06 1.29464e-06 0.0179543)
(4.6301e-06 1.33101e-06 0.0179897)
(6.06837e-06 8.42987e-07 0.0180178)
(7.38537e-06 -2.50952e-08 0.0180314)
(4.4295e-06 5.04963e-08 0.0182689)
(5.52566e-06 -4.29147e-07 0.0183207)
(6.1857e-06 -1.14346e-06 0.0183522)
(6.59759e-06 -1.80697e-06 0.018366)
(3.73704e-06 3.62945e-08 0.0181935)
(4.87717e-06 -1.97342e-07 0.0182427)
(5.6337e-06 -7.30619e-07 0.0182761)
(6.16509e-06 -1.33791e-06 0.0182917)
(2.98985e-06 6.71549e-07 0.0180929)
(4.1151e-06 5.28511e-07 0.018137)
(4.97227e-06 3.19326e-08 0.0181695)
(5.64162e-06 -6.6165e-07 0.0181853)
(1.95474e-06 9.25291e-07 0.0179511)
(3.10887e-06 9.35972e-07 0.0179868)
(4.05316e-06 6.01703e-07 0.0180152)
(4.86603e-06 2.10069e-08 0.0180292)
(2.57784e-06 3.07193e-08 0.0182672)
(3.2115e-06 -2.47869e-07 0.0183193)
(3.6053e-06 -6.53126e-07 0.0183511)
(3.84534e-06 -1.03509e-06 0.0183653)
(2.18204e-06 3.04709e-08 0.0181916)
(2.84222e-06 -9.91596e-08 0.0182411)
(3.29042e-06 -4.06563e-07 0.0182748)
(3.59692e-06 -7.58945e-07 0.0182908)
(1.75826e-06 4.00472e-07 0.018091)
(2.41144e-06 3.22648e-07 0.0181352)
(2.91688e-06 3.19102e-08 0.018168)
(3.29958e-06 -3.71569e-07 0.0181841)
(1.1687e-06 5.60901e-07 0.0179492)
(1.84237e-06 5.65902e-07 0.017985)
(2.39827e-06 3.65026e-07 0.0180137)
(2.86148e-06 1.98236e-08 0.018028)
(9.85574e-07 -2.11752e-07 0.0182662)
(1.25044e-06 -3.4682e-07 0.0183184)
(1.43844e-06 -5.1605e-07 0.0183504)
(1.56611e-06 -6.7223e-07 0.0183648)
(8.16157e-07 -1.55461e-07 0.0181905)
(1.09068e-06 -2.20876e-07 0.0182401)
(1.30589e-06 -3.47695e-07 0.018274)
(1.47053e-06 -4.93089e-07 0.0182902)
(6.36222e-07 3.61675e-08 0.0180898)
(9.11977e-07 1.16419e-08 0.0181342)
(1.15621e-06 -9.57573e-08 0.0181671)
(1.36077e-06 -2.56724e-07 0.0181834)
(4.007e-07 1.54419e-07 0.017948)
(6.86293e-07 1.80114e-07 0.0179839)
(9.56226e-07 1.18869e-07 0.0180127)
(1.20062e-06 -1.81198e-08 0.0180272)
(0.00215848 0.000175188 0.0251126)
(0.00130826 -0.00609351 0.0345663)
(0.000357626 -0.00377763 0.0190979)
(0.00138974 -0.00207225 0.0244501)
(3.13643e-05 0.00158819 0.0118452)
(-0.000664437 0.000663641 0.0240793)
(0.00179306 0.00112244 0.0136535)
(0.00269118 0.00192591 0.0233772)
(-0.00136144 0.00243261 0.0180207)
(-0.0040017 0.00280588 0.0269967)
(-4.55269e-05 0.000826964 0.0122994)
(-0.00194718 -0.00146588 0.0281291)
(-0.00266931 -0.00199929 0.0216359)
(-0.000369058 -0.00029096 0.00413316)
(-0.00232262 -0.000611011 0.0338679)
(-0.000122018 -0.000352412 0.0120425)
(0.000369394 0.000711742 0.00703609)
(0.00154877 -0.000844488 0.019526)
(-0.00134617 -0.000892964 0.005795)
(-0.00276331 -0.00290033 0.0216775)
(-0.000226451 -0.000965428 0.0482967)
(-0.000330213 -0.00183336 0.0193474)
(-0.00197036 -0.00680741 0.0430451)
(-0.0010131 -0.00412489 0.0428033)
(-0.0050084 0.000948803 0.0638874)
(-0.00314315 -0.000302541 0.0280994)
(-0.00262978 -0.00287528 0.056297)
(-0.00148415 -0.000371647 0.0539311)
(-0.00119595 -0.00322684 0.0410648)
(-0.00272563 -8.4384e-05 0.0596256)
(-0.00142265 -0.00104328 0.0141952)
(-0.000354253 -0.000282711 0.0188782)
(-0.000897591 -0.00247176 0.0443885)
(-0.00798942 0.00342818 0.0591363)
(-0.0052736 0.00942123 0.0374798)
(-0.00385348 -0.00330116 0.038747)