/*--------------------------------*- C++ -*----------------------------------*\
| =========                 |                                                 |
| \\      /  F ield         | OpenFOAM: The Open Source CFD Toolbox           |
|  \\    /   O peration     | Version:  2506                                  |
|   \\  /    A nd           | Website:  www.openfoam.com                      |
|    \\/     M anipulation  |                                                 |
\*---------------------------------------------------------------------------*/
FoamFile
{
    version     2.0;
    format      ascii;
    arch        "LSB;label=32;scalar=64";
    class       volVectorField;
    location    "0.09";
    object      U;
}
// * * * * * * * * * * * * * * * * * * * * * * * * * * * * * * * * * * * * * //

dimensions      [0 1 -1 0 0 0 0];

internalField   nonuniform List<vector> 
1152
(
(0.00624858 -0.00103286 0.0192493)
(0.000390742 -0.00108382 0.0148093)
(-0.000765748 -0.00231399 0.0194494)
(0.00176776 -0.000555114 0.0119278)
(0.00664372 -0.00425826 0.0333811)
(0.00063873 -0.00812425 0.0244315)
(-3.74583e-05 -0.00448452 0.0168798)
(-4.19478e-05 -2.13685e-05 0.000564066)
(-0.000244828 -0.00154333 0.0150618)
(-0.000932041 -0.00291121 0.0165354)
(0.00151944 -0.00326913 0.0169657)
(0.00408629 -0.0139203 0.0368448)
(0.00222783 -0.00192416 0.0176859)
(-0.00372035 -0.00184607 0.0175904)
(-0.00184245 -0.00119441 0.0170925)
(-0.00142723 -0.00701796 0.0194341)
(0.0352953 -0.00129973 0.0309561)
(0.000345931 0.00330282 0.0267673)
(-0.0214216 0.000398918 0.0236901)
(-0.0013942 -0.000545618 0.00540579)
(0.00338475 -0.0045084 0.0119977)
(0.0023251 -0.0479999 0.0389825)
(-0.00637465 -0.0118709 0.0306051)
(0.00158912 -0.016682 0.0294071)
(0.00354731 -0.00487004 0.0341936)
(0.000257616 -0.00994437 0.0274913)
(-0.00228267 -0.00320385 0.015059)
(-0.00074428 -0.00897889 0.0382074)
(0.000434377 -0.00608245 0.0608904)
(-0.00348632 -0.00548623 0.0436088)
(-0.00186759 -0.00586179 0.0353896)
(-0.000895936 -0.000788858 0.0305291)
(-0.0087755 -0.000589714 0.0179928)
(-0.000214767 0.000136687 0.00841588)
(-0.00610549 -0.00230229 0.0135872)
(0.000908226 -0.00879501 0.0302074)
(0.00141804 0.00328782 0.0418716)
(-0.000797318 0.00273132 0.0130514)
(-0.00198495 0.00172678 0.0153506)
(0.00654918 0.0180868 0.0296862)
(-0.00203384 0.000212515 0.0197529)
(0.000556446 0.000289625 0.0250666)
(0.00148398 0.00654577 0.0365764)
(0.000983871 0.0112803 0.0287183)
(-0.00818551 0.0070395 0.0578578)
(3.64112e-05 -0.000976325 0.0115964)
(0.00662608 2.4982e-05 0.0277256)
(0.000471198 -0.000126538 0.0192451)
(-0.0307395 -0.00281855 0.030414)
(-0.00227458 -0.00108833 0.0416444)
(0.00338821 -0.000343585 0.0150982)
(0.000498362 -0.00762072 0.06906)
(-0.0153772 0.01361 0.0418831)
(0.000178447 0.0500287 0.0394723)
(0.00212339 0.0050135 0.0209916)
(-0.00906172 0.00784008 0.0420153)
(-0.00244351 0.00543467 0.0256798)
(-0.00127688 0.0117911 0.0302762)
(-0.000444606 0.00552255 0.0243138)
(0.00126325 0.0166811 0.0534455)
(-0.00262979 0.00721619 0.0328493)
(-0.00126548 0.0103819 0.0448177)
(-0.00154874 0.0114932 0.0382243)
(-0.000275396 -0.000268142 0.00972128)
(-0.00596381 -0.00326964 0.0350762)
(-0.00319023 -0.000758844 0.0690775)
(0.00493654 0.00326342 0.0566398)
(0.0192126 0.00893438 0.0591987)
(-0.00565006 0.00750875 0.0434798)
(-0.00268356 0.0116248 0.0515248)
(0.000632992 0.00703397 0.0370486)
(0.00167009 0.00142191 0.0287804)
(-0.00069863 0.00870731 0.0257685)
(-0.00197872 0.0107976 0.0392969)
(-0.00210211 0.00277853 0.0244875)
(-0.00232993 -0.000366514 0.0561989)
(-0.00277899 0.0265393 0.0446114)
(-0.0083762 0.00713232 0.0287117)
(-0.0155225 0.00593082 0.0468115)
(0.000525763 0.00230057 0.0212968)
(-0.00201817 0.00112914 0.0181462)
(-0.00261173 -0.000878712 0.0387215)
(6.24636e-05 0.00100433 0.0289273)
(-0.000386822 0.000451799 0.011733)
(-0.00599916 0.00430362 0.0385652)
(-0.0030726 0.0028983 0.0316242)
(-0.00045151 0.000263654 0.0213437)
(-0.000147785 -0.000499422 0.0332388)
(-0.00102112 0.00557042 0.0234702)
(-0.00330461 0.00414668 0.023529)
(-0.00380068 0.00527494 0.0435546)
(0.00277404 0.0107383 0.0316898)
(-0.00844149 0.114114 0.0285363)
(-0.00843364 0.00767273 0.0280927)
(0.00366698 0.00310691 0.0218952)
(0.00118094 0.00186088 0.0132964)
(0.000168641 0.00144726 0.0160958)
(-0.000571509 0.00065454 0.028085)
(-0.00122606 0.000185928 0.0317322)
(0.000787814 0.00125279 0.0245138)
(-0.000683907 0.000275698 0.0294149)
(0.000639315 0.000889101 0.02378)
(0.000395399 0.000744793 0.0180593)
(0.000324069 0.0013975 0.0199185)
(0.000325745 -0.00131296 0.014725)
(-2.07636e-05 0.000680106 0.0208288)
(-0.000154493 0.000188256 0.0175405)
(0.000394502 0.000206718 0.0240344)
(0.00389837 -0.0396115 -0.00311335)
(0.00197325 -0.00163209 0.0157297)
(0.000374832 0.00011529 0.0182982)
(0.00225986 0.00229129 -0.0214627)
(0.000418573 0.000528899 0.0135091)
(0.00161118 0.00111916 0.0273209)
(0.00179145 0.00104904 0.0338619)
(0.00131409 0.00160538 0.05168)
(0.00035663 0.00104089 0.0306248)
(0.00125359 0.00117043 0.0246949)
(0.00169853 0.000654529 0.0132581)
(0.00165655 0.000988249 0.023452)
(0.00018835 0.000329982 0.0273336)
(0.00104577 0.00110731 0.0243405)
(0.00141513 0.0011626 0.0187702)
(0.00182436 0.000656182 0.0273979)
(0.00057111 -0.00116656 0.0603984)
(0.00194271 0.000761855 0.030544)
(0.00115207 0.00168868 0.0221385)
(0.00121761 0.00140707 0.0338976)
(0.00114823 0.000734614 0.0103106)
(0.000279115 0.000466948 0.0108891)
(-0.00224639 0.000253548 0.0134043)
(-0.000187116 0.00121082 0.0198496)
(0.00107207 -0.00108558 0.0112812)
(0.00195342 1.93955e-05 0.0100884)
(-0.000119205 0.000977834 0.00951429)
(-0.000773675 0.00269723 0.0120693)
(0.00176443 -0.00295374 0.0120154)
(0.00217599 -0.00153832 0.0100846)
(0.000271465 -0.00123038 0.00867072)
(0.000516244 -0.000817886 0.00928069)
(0.00186771 -0.0037507 0.0171191)
(0.00337685 -0.00244745 0.0114217)
(0.000452619 -0.00187845 0.00831866)
(0.000271594 -0.0011594 0.00840606)
(0.00074982 0.000354207 0.019189)
(0.000325764 0.000315794 0.0191806)
(-0.000943877 0.000239475 0.0199206)
(-2.00851e-05 0.00064377 0.0228695)
(0.000706291 -0.000300556 0.0194589)
(0.000920498 0.000126217 0.0187214)
(-8.70655e-05 0.000598048 0.0182717)
(-0.000198401 0.00145415 0.0197569)
(0.000886411 -0.00108376 0.0202775)
(0.00111354 -0.000635177 0.0190867)
(0.000299693 -0.000417185 0.018291)
(0.000324642 6.00767e-06 0.0190132)
(0.000663539 -0.0011727 0.02242)
(0.00140912 -0.0010179 0.0201303)
(0.000453942 -0.000960554 0.0188073)
(0.000252936 -0.00079278 0.0193539)
(0.000495271 7.29732e-05 0.0178044)
(0.000333964 9.36285e-05 0.0177125)
(-0.000181862 7.57722e-05 0.0178882)
(0.000105914 0.000188882 0.0188856)
(0.000484613 -0.00020501 0.0177302)
(0.000518315 -3.34863e-05 0.0174242)
(7.58672e-05 0.000150081 0.0172438)
(4.31662e-05 0.000460012 0.0177922)
(0.000587754 -0.000612958 0.0179982)
(0.000634054 -0.0004422 0.01753)
(0.000265376 -0.00032802 0.0172044)
(0.000222307 -0.000121778 0.0174233)
(0.000519211 -0.000713424 0.018522)
(0.000721753 -0.00066104 0.0178394)
(0.000342059 -0.000629111 0.0173731)
(0.00021557 -0.000578234 0.0174896)
(0.000317857 8.75313e-06 0.0183946)
(0.000253624 2.54717e-05 0.0183229)
(5.59024e-05 2.4776e-05 0.0183341)
(0.000129908 6.04089e-05 0.0186351)
(0.000292431 -9.16317e-05 0.0183356)
(0.00029731 -4.17789e-05 0.0181975)
(0.000128196 2.11799e-05 0.0181088)
(0.00011056 0.000125065 0.0182928)
(0.00032559 -0.000270217 0.0184693)
(0.000340811 -0.00023436 0.0182675)
(0.000199701 -0.000198282 0.0181232)
(0.00017219 -0.000123041 0.0181849)
(0.000247169 -0.000314948 0.0186629)
(0.000333458 -0.000345384 0.0184126)
(0.000213426 -0.000357819 0.018228)
(0.000176261 -0.000352575 0.0182461)
(0.000200939 -1.27396e-05 0.0184656)
(0.000179449 -2.69193e-06 0.0184303)
(0.000108193 1.83829e-06 0.0184157)
(0.000117846 1.63907e-05 0.0184953)
(0.00018214 -5.67439e-05 0.0184199)
(0.000187145 -4.23378e-05 0.0183723)
(0.000128088 -2.09113e-05 0.0183337)
(0.000114889 1.4575e-05 0.0183816)
(0.000197566 -0.000142935 0.0184591)
(0.000204972 -0.000133613 0.0183954)
(0.000155115 -0.000120561 0.0183403)
(0.000138971 -9.35727e-05 0.0183504)
(0.000160556 -0.00017723 0.0184935)
(0.000194284 -0.000193075 0.0184367)
(0.000156215 -0.000200249 0.0183808)
(0.000145261 -0.000199547 0.0183801)
(0.000127933 -1.46756e-05 0.0184847)
(0.000122808 -1.02968e-05 0.018474)
(9.86899e-05 -6.54014e-06 0.0184621)
(9.61154e-05 2.22517e-07 0.0184775)
(0.000115577 -3.54256e-05 0.0184579)
(0.000122544 -3.28198e-05 0.0184475)
(0.000104359 -2.60371e-05 0.018431)
(9.77652e-05 -1.3836e-05 0.0184375)
(0.000121004 -7.43473e-05 0.018464)
(0.000128444 -7.42397e-05 0.0184506)
(0.000113817 -7.08849e-05 0.0184297)
(0.000108138 -6.16588e-05 0.0184244)
(0.000101279 -9.36627e-05 0.0184563)
(0.000119851 -0.00010485 0.0184537)
(0.000111925 -0.000109464 0.0184376)
(0.000112331 -0.000109497 0.0184309)
(8.33174e-05 -1.20008e-05 0.0184901)
(8.42895e-05 -1.02775e-05 0.0184952)
(7.70565e-05 -7.99968e-06 0.018491)
(7.42109e-05 -4.56121e-06 0.0184897)
(7.60514e-05 -2.22846e-05 0.0184731)
(8.31757e-05 -2.27827e-05 0.0184814)
(7.90768e-05 -2.07124e-05 0.0184777)
(7.64763e-05 -1.61393e-05 0.0184744)
(7.72337e-05 -3.98453e-05 0.0184622)
(8.46679e-05 -4.15947e-05 0.0184728)
(8.23573e-05 -4.13373e-05 0.0184699)
(8.13087e-05 -3.81846e-05 0.0184638)
(6.6984e-05 -5.03128e-05 0.0184339)
(7.93151e-05 -5.69823e-05 0.0184558)
(8.04892e-05 -5.99823e-05 0.0184588)
(8.35458e-05 -5.99409e-05 0.0184543)
(5.53993e-05 -9.04771e-06 0.0184889)
(5.83219e-05 -8.35915e-06 0.0185035)
(5.71196e-05 -7.03711e-06 0.0185058)
(5.55282e-05 -5.04647e-06 0.0185026)
(5.15265e-05 -1.39898e-05 0.0184756)
(5.76533e-05 -1.49466e-05 0.0184937)
(5.81479e-05 -1.43686e-05 0.0184975)
(5.73832e-05 -1.24683e-05 0.0184941)
(5.10634e-05 -2.16813e-05 0.0184563)
(5.76479e-05 -2.34546e-05 0.0184787)
(5.92202e-05 -2.40295e-05 0.0184852)
(5.97527e-05 -2.30605e-05 0.0184821)
(4.57711e-05 -2.70541e-05 0.0184186)
(5.4448e-05 -3.11066e-05 0.0184513)
(5.77721e-05 -3.30231e-05 0.0184637)
(6.07473e-05 -3.30747e-05 0.0184629)
(3.75637e-05 -6.57889e-06 0.0184852)
(4.07747e-05 -6.29689e-06 0.0185057)
(4.15388e-05 -5.52915e-06 0.0185126)
(4.09508e-05 -4.30758e-06 0.0185111)
(3.56609e-05 -8.79258e-06 0.0184729)
(4.04582e-05 -9.58577e-06 0.0184966)
(4.2105e-05 -9.49641e-06 0.0185052)
(4.21567e-05 -8.65431e-06 0.0185041)
(3.46875e-05 -1.19342e-05 0.0184494)
(4.005e-05 -1.33256e-05 0.0184781)
(4.23985e-05 -1.40079e-05 0.0184901)
(4.33252e-05 -1.38104e-05 0.0184902)
(3.19344e-05 -1.4614e-05 0.0184067)
(3.8106e-05 -1.71026e-05 0.0184451)
(4.13241e-05 -1.83661e-05 0.0184628)
(4.36252e-05 -1.84948e-05 0.0184655)
(2.59e-05 -4.68155e-06 0.0184811)
(2.87197e-05 -4.57814e-06 0.0185053)
(2.99392e-05 -4.13897e-06 0.0185155)
(2.98718e-05 -3.38574e-06 0.0185161)
(2.48996e-05 -5.54182e-06 0.018469)
(2.85458e-05 -6.12162e-06 0.018496)
(3.02587e-05 -6.19632e-06 0.0185079)
(3.06256e-05 -5.81606e-06 0.0185092)
(2.39805e-05 -6.62901e-06 0.0184432)
(2.81142e-05 -7.63463e-06 0.0184756)
(3.02613e-05 -8.23014e-06 0.018491)
(3.1161e-05 -8.3247e-06 0.0184938)
(2.24876e-05 -7.94304e-06 0.0183979)
(2.68794e-05 -9.49714e-06 0.0184395)
(2.94558e-05 -1.03569e-05 0.0184605)
(3.11124e-05 -1.05293e-05 0.018466)
(1.80109e-05 -3.28684e-06 0.0184775)
(2.02508e-05 -3.26873e-06 0.018504)
(2.14146e-05 -3.01897e-06 0.0185163)
(2.15919e-05 -2.5639e-06 0.0185187)
(1.74269e-05 -3.51408e-06 0.0184651)
(2.01442e-05 -3.92499e-06 0.0184943)
(2.15941e-05 -4.03138e-06 0.0185085)
(2.20353e-05 -3.87694e-06 0.0185116)
(1.67137e-05 -3.71743e-06 0.0184381)
(1.97902e-05 -4.41967e-06 0.0184727)
(2.1498e-05 -4.89403e-06 0.0184904)
(2.22462e-05 -5.07895e-06 0.0184953)
(1.58762e-05 -4.35494e-06 0.0183913)
(1.89755e-05 -5.33901e-06 0.018435)
(2.08938e-05 -5.93181e-06 0.0184582)
(2.20558e-05 -6.10546e-06 0.0184658)
(1.24838e-05 -2.27512e-06 0.0184745)
(1.4169e-05 -2.28281e-06 0.0185025)
(1.5129e-05 -2.13632e-06 0.0185163)
(1.53669e-05 -1.85829e-06 0.0185201)
(1.21195e-05 -2.23534e-06 0.0184619)
(1.41022e-05 -2.5131e-06 0.0184926)
(1.52234e-05 -2.61062e-06 0.0185082)
(1.5634e-05 -2.56238e-06 0.0185128)
(1.16062e-05 -2.09466e-06 0.0184342)
(1.38417e-05 -2.57323e-06 0.0184703)
(1.51132e-05 -2.92594e-06 0.0184895)
(1.56947e-05 -3.11316e-06 0.0184959)
(1.11304e-05 -2.38462e-06 0.0183866)
(1.32997e-05 -3.01928e-06 0.0184317)
(1.46709e-05 -3.42771e-06 0.0184564)
(1.54747e-05 -3.57937e-06 0.0184654)
(8.48615e-06 -1.53633e-06 0.0184722)
(9.69782e-06 -1.5447e-06 0.0185012)
(1.04338e-05 -1.44632e-06 0.018516)
(1.06068e-05 -1.24429e-06 0.0185207)
(8.25137e-06 -1.40035e-06 0.0184594)
(9.65281e-06 -1.58205e-06 0.0184911)
(1.04775e-05 -1.6589e-06 0.0185077)
(1.08e-05 -1.65873e-06 0.0185133)
(7.90157e-06 -1.17225e-06 0.0184314)
(9.47594e-06 -1.48298e-06 0.0184684)
(1.03838e-05 -1.72789e-06 0.0184887)
(1.08087e-05 -1.88486e-06 0.0184961)
(7.6362e-06 -1.29143e-06 0.0183834)
(9.12766e-06 -1.69603e-06 0.0184293)
(1.00741e-05 -1.96861e-06 0.018455)
(1.06169e-05 -2.08825e-06 0.0184651)
(5.49584e-06 -9.9368e-07 0.0184706)
(6.31632e-06 -9.9698e-07 0.0185002)
(6.84704e-06 -9.25548e-07 0.0185157)
(6.91969e-06 -7.53775e-07 0.0185211)
(5.34933e-06 -8.45743e-07 0.0184577)
(6.28652e-06 -9.57793e-07 0.01849)
(6.86125e-06 -1.01279e-06 0.0185073)
(7.07364e-06 -1.03345e-06 0.0185136)
(5.12666e-06 -6.39897e-07 0.0184294)
(6.17595e-06 -8.30767e-07 0.0184671)
(6.79105e-06 -9.88909e-07 0.018488)
(7.07408e-06 -1.10843e-06 0.0184961)
(4.985e-06 -6.79828e-07 0.0183812)
(5.96334e-06 -9.31684e-07 0.0184277)
(6.58672e-06 -1.10275e-06 0.018454)
(6.93401e-06 -1.19147e-06 0.0184648)
(3.17483e-06 -6.40442e-07 0.0184696)
(3.6649e-06 -6.47158e-07 0.0184996)
(4.00026e-06 -6.08019e-07 0.0185155)
(4.02059e-06 -4.83414e-07 0.0185213)
(3.09209e-06 -5.25147e-07 0.0184566)
(3.64619e-06 -5.90926e-07 0.0184893)
(4.0004e-06 -6.28061e-07 0.018507)
(4.11739e-06 -6.52636e-07 0.0185137)
(2.96406e-06 -3.8203e-07 0.0184282)
(3.58142e-06 -4.94373e-07 0.0184662)
(3.95279e-06 -5.88149e-07 0.0184876)
(4.11595e-06 -6.69086e-07 0.0184961)
(2.88858e-06 -3.79019e-07 0.0183799)
(3.46109e-06 -5.29031e-07 0.0184267)
(3.83225e-06 -6.29651e-07 0.0184534)
(4.03079e-06 -6.92588e-07 0.0184646)
(1.33427e-06 -6.36665e-07 0.018469)
(1.54038e-06 -6.6928e-07 0.0184993)
(1.68378e-06 -6.80186e-07 0.0185154)
(1.70702e-06 -6.46751e-07 0.0185214)
(1.27946e-06 -5.68307e-07 0.018456)
(1.51322e-06 -6.23604e-07 0.0184888)
(1.66814e-06 -6.6006e-07 0.0185068)
(1.72619e-06 -6.86576e-07 0.0185137)
(1.20389e-06 -4.78401e-07 0.0184275)
(1.46423e-06 -5.54935e-07 0.0184657)
(1.63209e-06 -6.15181e-07 0.0184873)
(1.71241e-06 -6.6488e-07 0.018496)
(1.1413e-06 -4.13256e-07 0.018379)
(1.39518e-06 -5.10656e-07 0.0184261)
(1.56938e-06 -5.7834e-07 0.018453)
(1.66923e-06 -6.25397e-07 0.0184644)
(7.00796e-06 -0.00500986 0.0310615)
(0.000491973 -0.00302559 0.00954234)
(-0.00307716 -0.00609504 0.0267856)
(-0.00036622 -0.00289503 0.00798702)
(-0.00113101 -0.00309089 0.0130378)
(-0.000523632 -0.000831001 0.0121342)
(-0.000704003 -0.00211435 0.0176446)
(-0.000606758 -0.00150893 0.0180735)
(-0.000147926 -0.00132859 0.0153555)
(-0.00010137 0.00138227 0.0261943)
(-0.00161778 0.00138885 0.0197645)
(0.000451299 0.000845485 0.0123484)
(-0.00331224 -0.00165645 0.0259436)
(0.000622774 -0.00115184 0.012819)
(-0.000515937 0.00114717 0.0214455)
(0.00468257 -0.000206446 0.0224046)
(-0.000890416 -0.00158983 0.0251484)
(-0.00114434 -0.00468871 0.0513635)
(0.00139529 -0.00399439 0.0402796)
(-0.00365649 -0.00165915 0.0460354)
(-0.000219147 -0.000473011 0.0584115)
(-0.000126063 -0.00135262 0.0189553)
(-6.40179e-05 -0.000411722 0.0309807)
(0.000312226 -0.00296282 0.0192241)
(-0.000818812 -0.00337298 0.0365951)
(-0.00169992 8.12545e-05 0.0573623)
(-0.000634488 -5.89038e-05 0.0403779)
(-0.00446082 -0.00281263 0.0469725)
(0.00060689 -0.00273671 0.0312756)
(-0.00156798 0.000389588 0.0357004)
(-0.0027042 -0.00168378 0.0499949)
(-0.00150951 -0.000384117 0.0167313)
(0.000138949 3.17667e-05 0.0360398)
(-0.00172072 0.00725875 0.0417618)
(0.00235886 -0.00149164 0.0323748)
(0.00268672 -0.00914559 0.0551038)
(0.000712021 0.000184761 0.0170498)
(0.00139899 -0.000867935 0.0201843)
(2.23277e-05 -0.00105728 0.0171824)
(-0.00131274 -0.00595107 0.0439635)
(-0.0014719 0.00198713 0.0370442)
(0.00113151 -0.00411644 0.0251072)
(-0.00101956 -0.00219213 0.0484318)
(-0.0014757 -0.0017544 0.0219268)
(-0.00140696 -0.000210928 0.0359587)
(-0.00329779 -0.000197599 0.0513817)
(-0.000193553 -0.00204096 0.0306551)
(-0.00419201 0.00207128 0.0532947)
(0.000145556 0.00465377 0.0458971)
(-0.00152591 0.00285039 0.0344269)
(-0.00064403 0.000697014 0.0185835)
(-0.0039564 0.0103842 0.0567503)
(0.00296098 -0.0054897 0.0507666)
(-0.0012061 0.00199075 0.0598366)
(0.000312771 -0.0019706 0.0272236)
(0.000243848 0.00125746 0.0293615)
(0.00220576 -0.0025572 0.0394317)
(0.000184446 -0.000648638 0.0427075)
(0.0026254 -0.00366403 0.0564818)
(-0.000481685 0.000120532 0.0322577)
(0.00140425 0.000674943 0.0433237)
(-7.24896e-05 -0.000728533 0.0245958)
(0.00111817 -0.00138112 0.036104)
(-0.000818921 -0.000433665 0.0322479)
(-0.00318234 0.00733676 0.111904)
(-0.0159879 -0.00694013 0.0361312)
(-0.0105928 0.00719751 0.0560142)
(0.00343204 0.0117417 0.0296703)
(0.000499849 -0.00424651 0.013464)
(-0.00484579 -0.00583364 0.0256584)
(0.00258086 0.000159039 0.0235202)
(0.0123943 0.0123561 0.0443935)
(0.00378438 -0.00633004 0.0196829)
(0.00178342 -0.0024515 0.038347)
(0.00876815 -0.00217703 0.0426808)
(0.00475412 -0.000816258 0.0421284)
(0.00279943 0.000777457 0.03371)
(0.00115495 -0.000547088 0.060342)
(0.000327572 -0.000454526 0.0117585)
(-0.000390737 -0.00387106 0.054995)
(-0.000301258 -0.000261105 0.00896919)
(-0.0281849 -0.0125646 0.0179088)
(1.43651e-05 0.00203623 0.0147202)
(0.00100166 0.000634873 0.013343)
(0.0263307 -0.105547 0.0177628)
(-0.00353493 -0.00665856 0.0260018)
(0.00216024 0.000703981 0.0172754)
(0.0374469 0.0283878 0.0271016)
(0.00452497 -0.00635879 0.0183168)
(0.000200425 -0.00284185 0.0216622)
(0.0196403 0.00198126 0.0292985)
(-0.000198185 1.52277e-05 0.00676095)
(0.00603821 -0.00295637 0.0285482)
(0.000559799 0.000138163 0.0141895)
(0.000125541 0.000264898 0.0141197)
(0.00303813 -0.0337355 0.032844)
(0.000945905 0.0076146 -0.360062)
(0.0144743 0.00806456 0.00612995)
(0.0029554 0.00150328 0.0184088)
(-0.000291318 -9.62516e-05 0.00423707)
(-0.00970726 0.0513567 -0.0456851)
(0.00239598 0.00392417 0.00846045)
(0.000762592 0.000780845 0.0103883)
(-0.0045628 -0.00217211 -0.00168444)
(0.000411269 0.00294376 0.00651581)
(0.000602175 0.00127302 0.0144708)
(-0.00340214 0.000301716 0.0153859)
(-0.00117853 0.00147422 -0.188046)
(-0.000357625 0.000827475 0.0156981)
(0.00164807 0.000645595 0.0244432)
(0.000808053 0.000415764 0.00788776)
(-0.000660237 0.013204 0.00883654)
(0.000499955 0.00189548 0.111576)
(0.00281564 0.00300581 0.0481401)
(0.00167526 0.00239512 0.031081)
(0.000343028 0.00114476 0.0231971)
(-0.000467415 0.0048515 0.0630909)
(0.00175705 0.00372725 0.029399)
(0.000528346 0.00256461 0.0250564)
(-0.0011011 0.0027969 0.0360119)
(-0.000658541 0.00348838 0.0297288)
(0.00141608 0.00237339 0.0278206)
(0.001521 0.0020212 0.0338843)
(0.000351806 0.00137267 0.0757731)
(-0.000235691 0.00134597 0.0268645)
(0.00138837 0.000866561 0.0349085)
(0.000803357 0.000733766 0.0154085)
(0.000768163 -0.00069765 0.0459159)
(0.000921685 0.000176871 0.019693)
(0.00342965 0.000296929 0.0136755)
(0.00133411 -0.0010186 0.010306)
(0.000127015 -0.00244424 0.00927744)
(-0.000479579 0.00275201 0.0160606)
(0.0022704 0.00153048 0.0118047)
(-0.00068554 -0.000485613 0.0105837)
(-0.00360447 -0.004027 0.0134565)
(-0.00105621 0.00194627 0.0117013)
(0.00131702 0.00037788 0.0109832)
(-0.00225981 0.000855206 0.0110458)
(-0.00117332 -0.00137342 0.016248)
(-0.00058852 0.000161142 0.0103967)
(0.00189731 0.000482631 0.0117219)
(-0.00138018 0.00116804 0.00841488)
(-0.000686358 0.000336237 0.0148953)
(0.00024879 -6.51296e-05 0.0234236)
(0.00117065 -0.000347926 0.0214485)
(0.000440277 -0.000966655 0.0201128)
(0.000123768 -0.00171769 0.0201711)
(-0.000307402 0.000599745 0.0227685)
(0.00068519 9.99702e-05 0.0212853)
(-0.000397444 -0.000587932 0.020675)
(-0.00115144 -0.00197274 0.0226553)
(-0.000605742 0.000532869 0.0215107)
(0.000346852 7.96178e-05 0.0211971)
(-0.000992626 0.000245247 0.0209477)
(-0.00059636 -0.00076331 0.0246364)
(-0.000482729 -2.61719e-05 0.0209236)
(0.000501893 0.000169319 0.0213271)
(-0.000833993 0.000340078 0.0194545)
(-0.000463428 -6.95432e-05 0.0236519)
(0.000312737 -0.0003625 0.0187311)
(0.00064746 -0.000443944 0.0182677)
(0.000300752 -0.000667997 0.0178949)
(0.000168051 -0.000976219 0.018001)
(7.71079e-05 -0.000113114 0.0185783)
(0.000480582 -0.00023475 0.0183356)
(3.73466e-06 -0.000457817 0.0182122)
(-0.000179213 -0.000997679 0.0189935)
(-6.93191e-05 -7.229e-05 0.0182088)
(0.000367205 -0.00012933 0.0182945)
(-0.000227687 -9.79632e-05 0.0182286)
(-0.000123135 -0.000538056 0.0196029)
(-0.000123047 -0.000128869 0.0178612)
(0.000349773 3.29237e-05 0.0181599)
(-0.000249078 2.10116e-05 0.0175992)
(-0.00011274 -0.000160866 0.0193004)
(0.00014439 -0.000228914 0.0187863)
(0.000275239 -0.000294861 0.0186134)
(0.000168071 -0.000392968 0.0184612)
(0.000156724 -0.000528187 0.0185065)
(3.69434e-05 -0.000152331 0.0187773)
(0.000196955 -0.000213593 0.0186912)
(4.47034e-05 -0.000294093 0.0186114)
(5.92538e-05 -0.000503544 0.018882)
(-5.41195e-05 -9.37217e-05 0.0186667)
(0.000130178 -0.000104231 0.0186803)
(-6.93292e-05 -9.87436e-05 0.0185909)
(3.33074e-05 -0.000275849 0.0190836)
(-0.000102829 -8.95488e-05 0.0185203)
(9.25127e-05 -1.17897e-05 0.0185935)
(-0.000115758 -1.66341e-05 0.0183522)
(1.2931e-05 -8.15334e-05 0.0189949)
(0.000108011 -0.000145681 0.0185105)
(0.000167225 -0.000169927 0.0184945)
(0.000132594 -0.00021171 0.0184617)
(0.000140261 -0.000268461 0.0184844)
(5.62591e-05 -0.00011574 0.0184752)
(0.000130133 -0.000136735 0.0185052)
(7.7939e-05 -0.000169792 0.0185021)
(0.000108601 -0.000253708 0.0186095)
(7.95562e-06 -8.16399e-05 0.0183846)
(9.40251e-05 -7.67381e-05 0.0184538)
(2.1842e-05 -7.95771e-05 0.0184477)
(8.56152e-05 -0.000152177 0.0186454)
(-3.4269e-05 -5.74685e-05 0.0182353)
(5.91092e-05 -1.55743e-05 0.0183228)
(-1.52746e-05 -2.15205e-05 0.0182685)
(6.32084e-05 -4.69894e-05 0.0185335)
(7.28891e-05 -7.66371e-05 0.0184373)
(0.00010488 -8.9876e-05 0.0184544)
(0.000100035 -0.000110558 0.0184514)
(0.000111127 -0.000135349 0.0184573)
(4.53373e-05 -6.48317e-05 0.018389)
(8.38099e-05 -7.49717e-05 0.0184248)
(7.50085e-05 -9.14921e-05 0.0184346)
(9.94255e-05 -0.000126417 0.0184748)
(1.7326e-05 -4.46429e-05 0.0183031)
(6.08719e-05 -4.24424e-05 0.0183522)
(4.60649e-05 -4.76633e-05 0.0183601)
(8.5729e-05 -8.01753e-05 0.0184377)
(-1.08019e-05 -2.84645e-05 0.0181695)
(3.51214e-05 -9.10998e-06 0.0182203)
(1.94135e-05 -1.20772e-05 0.0182107)
(6.78392e-05 -2.46778e-05 0.0183139)
(5.15653e-05 -3.8318e-05 0.0183929)
(7.07611e-05 -4.5735e-05 0.0184272)
(7.41383e-05 -5.71492e-05 0.018439)
(8.30924e-05 -6.90837e-05 0.0184417)
(3.61671e-05 -3.33248e-05 0.0183323)
(5.82598e-05 -3.87653e-05 0.0183746)
(6.15478e-05 -4.78182e-05 0.0183936)
(7.76623e-05 -6.36971e-05 0.0184103)
(2.00235e-05 -2.17658e-05 0.0182406)
(4.38604e-05 -2.07297e-05 0.0182867)
(4.57456e-05 -2.53256e-05 0.018306)
(6.94557e-05 -4.12233e-05 0.0183377)
(1.89656e-06 -1.18144e-05 0.0181059)
(2.66347e-05 -2.46705e-06 0.0181484)
(2.83632e-05 -4.63572e-06 0.0181601)
(5.73505e-05 -1.19333e-05 0.0182025)
(3.70815e-05 -1.79493e-05 0.0183664)
(4.9291e-05 -2.24773e-05 0.018408)
(5.4091e-05 -2.93205e-05 0.0184274)
(6.02638e-05 -3.58381e-05 0.0184312)
(2.78331e-05 -1.58536e-05 0.0182991)
(4.15592e-05 -1.90555e-05 0.0183434)
(4.71284e-05 -2.44975e-05 0.0183673)
(5.71554e-05 -3.24739e-05 0.0183775)
(1.79705e-05 -8.86684e-06 0.0182033)
(3.23547e-05 -8.82342e-06 0.0182471)
(3.80706e-05 -1.23814e-05 0.0182712)
(5.20176e-05 -2.08382e-05 0.0182876)
(6.31064e-06 -3.21192e-06 0.0180682)
(2.08864e-05 1.0672e-06 0.0181051)
(2.69336e-05 -6.15556e-07 0.0181243)
(4.39494e-05 -5.33351e-06 0.0181444)
(2.68979e-05 -7.63347e-06 0.0183486)
(3.48853e-05 -1.05875e-05 0.0183942)
(3.90235e-05 -1.49421e-05 0.018418)
(4.30632e-05 -1.89127e-05 0.0184243)
(2.10856e-05 -6.80959e-06 0.0182775)
(2.99605e-05 -8.81721e-06 0.0183232)
(3.48943e-05 -1.22934e-05 0.0183502)
(4.10161e-05 -1.6793e-05 0.0183599)
(1.4891e-05 -2.5353e-06 0.0181793)
(2.40152e-05 -2.84964e-06 0.0182222)
(2.94138e-05 -5.44876e-06 0.0182491)
(3.76595e-05 -1.04884e-05 0.0182614)
(7.23699e-06 5.88937e-07 0.0180435)
(1.64436e-05 2.52466e-06 0.0180781)
(2.22392e-05 1.19109e-06 0.0181007)
(3.22254e-05 -2.18219e-06 0.0181135)
(1.94923e-05 -2.67881e-06 0.0183367)
(2.48204e-05 -4.66528e-06 0.0183846)
(2.79403e-05 -7.55018e-06 0.0184113)
(3.05482e-05 -1.01596e-05 0.01842)
(1.57072e-05 -2.40037e-06 0.0182634)
(2.16128e-05 -3.69801e-06 0.0183101)
(2.53552e-05 -5.9997e-06 0.0183394)
(2.91017e-05 -8.80002e-06 0.0183504)
(1.17032e-05 2.88523e-07 0.0181637)
(1.7709e-05 -6.63296e-08 0.0182066)
(2.18994e-05 -1.98891e-06 0.0182355)
(2.68226e-05 -5.24583e-06 0.0182476)
(6.61895e-06 1.9948e-06 0.0180276)
(1.26685e-05 2.85684e-06 0.0180613)
(1.71911e-05 1.73565e-06 0.0180858)
(2.31302e-05 -7.33567e-07 0.018097)
(1.40502e-05 -4.58198e-07 0.0183285)
(1.76401e-05 -1.80358e-06 0.018378)
(1.98723e-05 -3.7629e-06 0.0184067)
(2.15541e-05 -5.54194e-06 0.0184174)
(1.15311e-05 -3.98377e-07 0.018254)
(1.55214e-05 -1.24274e-06 0.0183016)
(1.81923e-05 -2.8096e-06 0.0183325)
(2.05084e-05 -4.65705e-06 0.0183451)
(8.88857e-06 1.33188e-06 0.0181535)
(1.2929e-05 1.02849e-06 0.0181967)
(1.59467e-05 -3.77898e-07 0.018227)
(1.89283e-05 -2.58856e-06 0.01824)
(5.47316e-06 2.25366e-06 0.0180171)
(9.5548e-06 2.62624e-06 0.0180508)
(1.28154e-05 1.71219e-06 0.0180765)
(1.63932e-05 -1.04967e-07 0.018088)
(1.00043e-05 4.23239e-07 0.0183229)
(1.24214e-05 -4.83769e-07 0.0183736)
(1.39749e-05 -1.82339e-06 0.0184036)
(1.50631e-05 -3.05037e-06 0.0184157)
(8.31362e-06 3.98548e-07 0.0182477)
(1.10203e-05 -1.47978e-07 0.0182961)
(1.28639e-05 -1.22589e-06 0.0183281)
(1.43089e-05 -2.47256e-06 0.018342)
(6.54509e-06 1.53754e-06 0.0181468)
(9.28955e-06 1.29315e-06 0.0181904)
(1.13848e-05 2.78577e-07 0.0182217)
(1.32108e-05 -1.24319e-06 0.0182358)
(4.24384e-06 2.02487e-06 0.0180103)
(7.02457e-06 2.16699e-06 0.0180441)
(9.29135e-06 1.45435e-06 0.0180707)
(1.14699e-05 1.35705e-07 0.018083)
(6.9467e-06 6.67069e-07 0.0183192)
(8.55379e-06 6.22948e-08 0.0183706)
(9.60665e-06 -8.37734e-07 0.0184015)
(1.0304e-05 -1.67392e-06 0.0184146)
(5.82221e-06 6.13034e-07 0.0182436)
(7.63587e-06 2.66562e-07 0.0182925)
(8.87488e-06 -4.65197e-07 0.0183254)
(9.77347e-06 -1.30676e-06 0.0183402)
(4.64907e-06 1.36045e-06 0.0181424)
(6.49277e-06 1.18306e-06 0.0181864)
(7.90274e-06 4.66488e-07 0.0182184)
(9.02184e-06 -5.7431e-07 0.0182334)
(3.11727e-06 1.61496e-06 0.0180059)
(4.99171e-06 1.65706e-06 0.0180399)
(6.51615e-06 1.12493e-06 0.0180672)
(7.84505e-06 1.94142e-07 0.0180802)
(4.57661e-06 6.05001e-07 0.0183167)
(5.60202e-06 2.17131e-07 0.0183686)
(6.2873e-06 -3.58795e-07 0.0184001)
(6.71728e-06 -9.0546e-07 0.0184139)
(3.86027e-06 5.51446e-07 0.0182409)
(5.02291e-06 3.43317e-07 0.0182902)
(5.82071e-06 -1.34031e-07 0.0183236)
(6.36452e-06 -6.83756e-07 0.0183391)
(3.11319e-06 1.02685e-06 0.0181395)
(4.30038e-06 9.08583e-07 0.0181839)
(5.20422e-06 4.26855e-07 0.0182164)
(5.87481e-06 -2.57264e-07 0.018232)
(2.13513e-06 1.16246e-06 0.018003)
(3.34683e-06 1.16338e-06 0.0180373)
(4.32339e-06 7.92532e-07 0.018065)
(5.11714e-06 1.69424e-07 0.0180786)
(2.66656e-06 3.64911e-07 0.0183152)
(3.25409e-06 1.35749e-07 0.0183674)
(3.65795e-06 -1.93551e-07 0.0183993)
(3.90092e-06 -5.14472e-07 0.0184135)
(2.25792e-06 3.4043e-07 0.0182393)
(2.92466e-06 2.21543e-07 0.0182888)
(3.39018e-06 -5.61908e-08 0.0183226)
(3.69521e-06 -3.80137e-07 0.0183385)
(1.83434e-06 6.17612e-07 0.0181378)
(2.51721e-06 5.48762e-07 0.0181823)
(3.04194e-06 2.63429e-07 0.0182152)
(3.41582e-06 -1.38403e-07 0.0182312)
(1.27736e-06 7.0468e-07 0.0180013)
(1.97872e-06 6.99246e-07 0.0180357)
(2.54546e-06 4.74873e-07 0.0180637)
(2.98876e-06 1.04281e-07 0.0180777)
(1.03661e-06 -9.12708e-08 0.0183143)
(1.2891e-06 -2.11478e-07 0.0183667)
(1.48265e-06 -3.5836e-07 0.0183987)
(1.61037e-06 -4.97538e-07 0.0184132)
(8.59867e-07 -4.37715e-08 0.0182383)
(1.14025e-06 -1.07018e-07 0.018288)
(1.36333e-06 -2.26556e-07 0.0183219)
(1.52667e-06 -3.66109e-07 0.018338)
(6.76278e-07 1.17771e-07 0.0181368)
(9.66159e-07 9.45696e-08 0.0181814)
(1.21898e-06 -1.37827e-08 0.0182144)
(1.42023e-06 -1.78553e-07 0.0182307)
(4.46337e-07 2.09254e-07 0.0180002)
(7.4535e-07 2.30419e-07 0.0180347)
(1.02125e-06 1.59267e-07 0.0180629)
(1.25963e-06 1.06734e-08 0.018077)
(0.00280938 0.00149269 0.0236878)
(0.00410689 -0.00409372 0.0325038)
(0.00304842 -0.00226059 0.0176543)
(0.00863127 -0.00066138 0.0246329)
(0.000599509 0.0024376 0.0113764)
(0.00188978 0.00219623 0.0233963)
(0.00386651 0.00170599 0.0131318)
(0.00758354 0.00148688 0.0222136)
(-0.000751857 0.00302496 0.0176398)
(-0.00164621 0.0032357 0.0266262)
(0.00124308 0.000694356 0.012703)
(0.00102287 -0.00353078 0.0285204)
(-0.00213372 -0.00194042 0.0211179)
(-0.000281155 -0.000442226 0.00390291)
(-0.00058418 -0.00148321 0.0333796)
(0.000469275 -0.000912341 0.0124412)
(0.000384816 0.00074119 0.00736915)
(0.00181824 0.000121318 0.0187635)
(-0.000996564 -0.000594741 0.0057365)
(0.0030655 -0.00199492 0.0194731)
(0.000448945 0.00104337 0.047244)
(0.00054025 -0.000871605 0.0187925)
(0.00109202 -0.00384798 0.0415866)
(0.00397365 -0.00489451 0.0384163)
(-0.00338641 0.00172964 0.0622201)
(-0.00175967 -0.000200372 0.0284118)
(-0.000783885 -0.00293222 0.0620594)
(-0.000551973 -0.00101242 0.0519809)
(-0.00097847 -0.00305864 0.0405873)
(-0.00176101 -0.000499504 0.0590114)
(-0.00124082 -0.00140986 0.0146999)
(-0.000240535 -0.000635202 0.0180014)
(-0.000584482 -0.00136675 0.0413884)
(-0.00591318 0.00450992 0.0539589)
(-0.00535693 0.00476288 0.0334307)
(-0.00626371 -0.00331305 0.0322693)
(0.00320387 -0.00219888 0.0257797)
(0.00340973 -0.000503253 0.0379112)
(-0.00334664 0.00710978 0.0293668)