/*--------------------------------*- C++ -*----------------------------------*\
| =========                 |                                                 |
| \\      /  F ield         | OpenFOAM: The Open Source CFD Toolbox           |
|  \\    /   O peration     | Version:  2506                                  |
|   \\  /    A nd           | Website:  www.openfoam.com                      |
|    \\/     M anipulation  |                                                 |
\*---------------------------------------------------------------------------*/
FoamFile
{
    version     2.0;
    format      ascii;
    arch        "LSB;label=32;scalar=64";
    class       volScalarField;
    location    "0.09";
    object      voidfraction;
}
// * * * * * * * * * * * * * * * * * * * * * * * * * * * * * * * * * * * * * //

dimensions      [0 0 0 0 0 0 0];

internalField   nonuniform List<scalar> 
1152
(
0.42593
0.375896
0.41013
0.354829
0.470697
0.436463
0.41803
0.336396
0.431196
0.423296
0.43383
0.52863
0.454897
0.446997
0.44173
0.439097
0.460163
0.46543
0.446997
0.331129
0.42593
0.468063
0.468063
0.470697
0.460163
0.439097
0.428563
0.46543
0.518097
0.486497
0.44963
0.407496
0.45753
0.339029
0.404863
0.502297
0.475963
0.420663
0.365363
0.454897
0.407496
0.399596
0.446997
0.420663
0.475963
0.370629
0.381163
0.375896
0.396963
0.420663
0.333763
0.45753
0.428563
0.423296
0.354829
0.444363
0.365363
0.378529
0.360096
0.46543
0.370629
0.41013
0.404863
0.328496
0.370629
0.391696
0.412763
0.407496
0.383796
0.41013
0.38643
0.365363
0.354829
0.383796
0.370629
0.439097
0.420663
0.383796
0.436463
0.320596
0.396963
0.383796
0.38643
0.336396
0.420663
0.404863
0.378529
0.407496
0.399596
0.41013
0.475963
0.407496
0.475963
0.43383
0.375896
0.317962
0.583931
0.581297
0.586564
0.594464
0.670831
0.560231
0.50493
0.531264
0.649764
0.604998
0.518097
0.552331
0.697165
0.599731
0.518097
0.565497
1
1
1
1
1
1
1
1
1
1
1
1
1
1
1
1
1
1
1
1
1
1
1
1
1
1
1
1
1
1
1
1
1
1
1
1
1
1
1
1
1
1
1
1
1
1
1
1
1
1
1
1
1
1
1
1
1
1
1
1
1
1
1
1
1
1
1
1
1
1
1
1
1
1
1
1
1
1
1
1
1
1
1
1
1
1
1
1
1
1
1
1
1
1
1
1
1
1
1
1
1
1
1
1
1
1
1
1
1
1
1
1
1
1
1
1
1
1
1
1
1
1
1
1
1
1
1
1
1
1
1
1
1
1
1
1
1
1
1
1
1
1
1
1
1
1
1
1
1
1
1
1
1
1
1
1
1
1
1
1
1
1
1
1
1
1
1
1
1
1
1
1
1
1
1
1
1
1
1
1
1
1
1
1
1
1
1
1
1
1
1
1
1
1
1
1
1
1
1
1
1
1
1
1
1
1
1
1
1
1
1
1
1
1
1
1
1
1
1
1
1
1
1
1
1
1
1
1
1
1
1
1
1
1
1
1
1
1
1
1
1
1
1
1
1
1
1
1
1
1
1
1
1
1
1
1
1
1
1
1
1
1
1
1
1
1
1
1
1
1
1
1
0.496182
0.419068
0.523586
0.416134
0.44148
0.404474
0.458686
0.429578
0.424505
0.471354
0.462965
0.438213
0.506302
0.434709
0.481646
0.448782
0.430467
0.47684
0.480276
0.451216
0.488628
0.398934
0.434944
0.400836
0.449258
0.488407
0.471422
0.467885
0.444252
0.443405
0.487363
0.40762
0.417324
0.422277
0.396362
0.468757
0.358065
0.365696
0.354222
0.425157
0.433788
0.390961
0.443936
0.372935
0.42267
0.441231
0.430192
0.439834
0.408562
0.396601
0.355758
0.466251
0.412466
0.476491
0.385086
0.383149
0.424505
0.439684
0.462965
0.37887
0.436159
0.408618
0.407323
0.389723
0.456753
0.412649
0.455914
0.37604
0.347184
0.404474
0.368467
0.425157
0.350248
0.44212
0.433365
0.400629
0.436159
0.482541
0.34634
0.473837
0.334084
0.361296
0.358465
0.353487
0.416093
0.407244
0.406454
0.45611
0.378095
0.427503
0.441822
0.339307
0.460439
0.397747
0.37302
0.497103
0.697709
0.630899
0.631862
0.694285
0.630071
0.590057
0.691356
0.628563
0.650372
0.668683
0.638453
0.772516
0.641192
0.763012
0.69318
0.819243
1
1
1
1
1
1
1
1
1
1
1
1
1
1
1
1
1
1
1
1
1
1
1
1
1
1
1
1
1
1
1
1
1
1
1
1
1
1
1
1
1
1
1
1
1
1
1
1
1
1
1
1
1
1
1
1
1
1
1
1
1
1
1
1
1
1
1
1
1
1
1
1
1
1
1
1
1
1
1
1
1
1
1
1
1
1
1
1
1
1
1
1
1
1
1
1
1
1
1
1
1
1
1
1
1
1
1
1
1
1
1
1
1
1
1
1
1
1
1
1
1
1
1
1
1
1
1
1
1
1
1
1
1
1
1
1
1
1
1
1
1
1
1
1
1
1
1
1
1
1
1
1
1
1
1
1
1
1
1
1
1
1
1
1
1
1
1
1
1
1
1
1
1
1
1
1
1
1
1
1
1
1
1
1
1
1
1
1
1
1
1
1
1
1
1
1
1
1
1
1
1
1
1
1
1
1
1
1
1
1
1
1
1
1
1
1
1
1
1
1
1
1
1
1
1
1
1
1
1
1
1
1
1
1
1
1
1
1
1
1
1
1
1
1
1
1
1
1
1
1
1
1
1
1
1
1
1
1
1
1
1
1
1
1
1
1
1
1
1
1
1
1
0.450572
0.457994
0.376516
0.458734
0.435909
0.441822
0.399331
0.480276
0.478192
0.476226
0.443252
0.528193
0.463137
0.381189
0.495881
0.412943
0.380775
0.394695
0.369883
0.408616
0.474023
0.399536
0.446815
0.482983
0.515154
0.434812
0.457102
0.496098
0.463137
0.489481
0.423346
0.408562
0.423727
0.457994
0.445055
0.451216
0.403512
0.437593
0.413576
0.358465
0.493412
0.393397
0.382315
0.309943
0.428065
0.455446
0.426973
0.421705
0.436254
0.457994
0.378727
0.476275
0.353963
0.458737
0.411202
0.361172
0.476018
0.446992
0.351846
0.441535
0.441554
0.452352
0.416093
0.395419
0.470258
0.424366
0.358828
0.401099
0.414946
0.393193
0.41595
0.355758
0.365134
0.429939
0.379545
0.457583
0.436159
0.381189
0.426973
0.412943
0.411199
0.501513
0.389782
0.408616
0.405417
0.458737
0.399331
0.342224
0.399921
0.459173
0.418323
0.40623
0.403785
0.35953
0.376198
0.377895
0.733339
0.839772
0.765641
0.784496
0.737012
0.63211
0.679485
0.637276
0.660825
0.658938
0.650994
0.643738
0.600725
0.585396
0.651832
0.732758
1
1
1
1
1
1
1
1
1
1
1
1
1
1
1
1
1
1
1
1
1
1
1
1
1
1
1
1
1
1
1
1
1
1
1
1
1
1
1
1
1
1
1
1
1
1
1
1
1
1
1
1
1
1
1
1
1
1
1
1
1
1
1
1
1
1
1
1
1
1
1
1
1
1
1
1
1
1
1
1
1
1
1
1
1
1
1
1
1
1
1
1
1
1
1
1
1
1
1
1
1
1
1
1
1
1
1
1
1
1
1
1
1
1
1
1
1
1
1
1
1
1
1
1
1
1
1
1
1
1
1
1
1
1
1
1
1
1
1
1
1
1
1
1
1
1
1
1
1
1
1
1
1
1
1
1
1
1
1
1
1
1
1
1
1
1
1
1
1
1
1
1
1
1
1
1
1
1
1
1
1
1
1
1
1
1
1
1
1
1
1
1
1
1
1
1
1
1
1
1
1
1
1
1
1
1
1
1
1
1
1
1
1
1
1
1
1
1
1
1
1
1
1
1
1
1
1
1
1
1
1
1
1
1
1
1
1
1
1
1
1
1
1
1
1
1
1
1
1
1
1
1
1
1
1
1
1
1
1
1
1
1
1
1
1
1
1
1
1
1
1
1
)
;

boundaryField
{
    inlet
    {
        type            fixedValue;
        value           uniform 1;
    }
    outlet
    {
        type            fixedValue;
        value           uniform 1;
    }
    wall
    {
        type            zeroGradient;
    }
    procBoundary2to0
    {
        type            processor;
        value           nonuniform List<scalar> 
192
(
0.40223
0.53653
0.47333
0.423296
0.47333
0.462797
0.460163
0.478597
0.396963
0.43383
0.344296
0.336396
0.370629
0.428563
0.428563
0.51283
0.415396
0.39433
0.346929
0.378529
0.549697
0.362729
0.381163
0.357463
0.681365
0.589197
0.51283
0.533897
1
1
1
1
1
1
1
1
1
1
1
1
1
1
1
1
1
1
1
1
1
1
1
1
1
1
1
1
1
1
1
1
1
1
1
1
1
1
1
1
1
1
1
1
1
1
1
1
1
1
1
1
1
1
1
1
1
1
1
1
1
1
1
1
1
1
1
1
0.418358
0.414476
0.460532
0.453722
0.45773
0.521294
0.487063
0.458734
0.393302
0.384804
0.343352
0.443699
0.414778
0.376891
0.347774
0.408616
0.393302
0.339307
0.429578
0.408616
0.429096
0.424366
0.445055
0.438687
0.642066
0.71515
0.789961
0.686767
1
1
1
1
1
1
1
1
1
1
1
1
1
1
1
1
1
1
1
1
1
1
1
1
1
1
1
1
1
1
1
1
1
1
1
1
1
1
1
1
1
1
1
1
1
1
1
1
1
1
1
1
1
1
1
1
1
1
1
1
1
1
1
1
1
1
1
1
)
;
    }
    procBoundary2to3
    {
        type            processor;
        value           nonuniform List<scalar> 
192
(
0.557597
0.560231
0.344296
0.44963
0.523364
0.45753
0.41013
0.460163
0.399596
0.323229
0.407496
0.383796
0.249495
0.39433
0.383796
0.44173
0.328496
0.389063
0.389063
0.41013
0.48913
0.44963
0.38643
0.50493
0.494397
0.565497
0.53653
0.446997
1
1
1
1
1
1
1
1
1
1
1
1
1
1
1
1
1
1
1
1
1
1
1
1
1
1
1
1
1
1
1
1
1
1
1
1
1
1
1
1
1
1
1
1
1
1
1
1
1
1
1
1
1
1
1
1
1
1
1
1
1
1
1
1
1
1
1
1
0.488804
0.391992
0.503491
0.382564
0.38857
0.478219
0.463929
0.522158
0.411122
0.389782
0.412498
0.40762
0.338452
0.38536
0.398651
0.395092
0.386064
0.394203
0.319526
0.302029
0.478781
0.365461
0.422388
0.389723
0.518874
0.690469
0.711194
0.767343
1
1
1
1
1
1
1
1
1
1
1
1
1
1
1
1
1
1
1
1
1
1
1
1
1
1
1
1
1
1
1
1
1
1
1
1
1
1
1
1
1
1
1
1
1
1
1
1
1
1
1
1
1
1
1
1
1
1
1
1
1
1
1
1
1
1
1
1
)
;
    }
}


// ************************************************************************* //
