/*--------------------------------*- C++ -*----------------------------------*\
| =========                 |                                                 |
| \\      /  F ield         | OpenFOAM: The Open Source CFD Toolbox           |
|  \\    /   O peration     | Version:  2506                                  |
|   \\  /    A nd           | Website:  www.openfoam.com                      |
|    \\/     M anipulation  |                                                 |
\*---------------------------------------------------------------------------*/
FoamFile
{
    version     2.0;
    format      ascii;
    arch        "LSB;label=32;scalar=64";
    class       surfaceScalarField;
    location    "0.06";
    object      phi;
}
// * * * * * * * * * * * * * * * * * * * * * * * * * * * * * * * * * * * * * //

dimensions      [0 3 -1 0 0 0 0];

oriented        oriented;

internalField   nonuniform List<scalar> 
3120
(
1.59303e-09
4.67848e-10
3.87357e-08
1.82761e-09
-1.24409e-09
4.68083e-08
-3.3453e-09
-2.55779e-09
5.27149e-08
5.40236e-09
2.61714e-08
3.6971e-09
8.13103e-10
3.23438e-09
3.83271e-08
1.22901e-09
9.08219e-10
3.52254e-08
4.14366e-09
2.69345e-09
2.98124e-08
1.74348e-09
4.22376e-08
4.63582e-09
6.11466e-10
7.78021e-10
4.31176e-08
5.03486e-09
6.78388e-09
2.79284e-08
1.7737e-09
5.7e-10
4.39416e-08
2.19661e-09
3.41038e-08
5.01003e-09
5.51301e-09
3.30773e-08
2.15765e-09
-1.65887e-09
5.43216e-08
-3.17373e-09
5.15596e-10
3.58552e-08
1.21047e-11
4.12337e-08
-1.47068e-09
9.88224e-10
-5.25648e-10
1.0987e-09
3.69124e-08
2.86103e-09
4.58896e-09
3.7386e-08
7.50246e-09
3.13802e-09
4.08914e-08
-4.54329e-09
4.56255e-08
-3.22933e-09
2.51012e-09
-2.60908e-09
4.23052e-08
3.46418e-09
1.90495e-09
3.69554e-08
1.7662e-09
1.02558e-09
3.36229e-08
8.66103e-10
3.54657e-08
3.12865e-09
6.86408e-09
9.104e-09
2.08463e-08
2.76584e-09
4.1292e-09
2.98024e-08
9.07092e-10
3.47972e-09
4.33462e-08
2.83392e-09
3.05778e-08
2.46525e-09
5.17783e-09
4.13344e-08
8.63846e-10
-8.13133e-11
6.5273e-08
-1.56305e-09
4.30863e-10
3.472e-08
4.10269e-09
3.15935e-08
7.17416e-09
5.73095e-09
-3.08268e-09
3.92236e-09
3.37979e-08
4.70494e-09
1.21253e-09
2.22487e-08
6.16374e-09
-1.82612e-09
4.04085e-08
-3.88104e-09
6.05973e-08
-1.73492e-09
-5.0614e-09
-1.445e-09
5.67659e-08
-9.79707e-10
2.26795e-09
3.18183e-08
6.9096e-10
-6.12379e-10
3.07385e-08
3.63551e-09
2.87523e-08
-1.12156e-10
1.04888e-09
9.15565e-10
1.70998e-08
-2.46777e-09
-2.51548e-09
3.81025e-08
4.24309e-09
3.87137e-09
3.21516e-08
4.81352e-09
2.88655e-08
4.77746e-09
-3.62528e-09
4.75311e-08
3.17962e-10
4.79502e-09
4.95519e-08
4.78531e-09
3.84167e-09
3.81396e-08
1.40519e-09
3.96861e-08
-2.66668e-10
8.2955e-10
-4.14455e-09
-5.89024e-09
5.41333e-08
-1.07563e-09
-1.17218e-09
1.47937e-08
-3.70023e-09
-1.03888e-09
4.21681e-08
4.18598e-09
3.9461e-08
4.90058e-09
-1.95943e-09
3.79124e-09
4.52099e-08
-1.26408e-09
2.90135e-09
2.70494e-08
7.04597e-10
6.56574e-10
2.70744e-08
1.28811e-10
3.45293e-08
-1.01525e-09
-1.0303e-09
-3.45157e-09
2.70459e-08
-2.41191e-09
-3.12112e-09
4.55066e-08
7.30919e-10
5.57524e-09
2.40901e-08
-1.82357e-09
3.39199e-08
-2.37109e-09
-2.10461e-09
4.43841e-08
7.9625e-10
7.13786e-09
3.56167e-08
1.57161e-09
-6.46776e-09
5.9138e-08
-1.81752e-09
3.43617e-08
-4.90678e-09
1.93989e-09
8.72079e-09
1.41268e-09
4.99745e-08
-5.60787e-09
-1.54837e-09
4.17215e-08
-3.34962e-09
5.90978e-09
3.78833e-08
6.83797e-09
2.19945e-08
4.39245e-09
7.93276e-10
3.64628e-09
4.32371e-08
2.37346e-09
7.40334e-11
2.38468e-08
1.10925e-09
-2.03296e-10
3.44517e-08
-9.49922e-10
4.16624e-08
1.76402e-09
-2.20071e-09
5.49042e-09
3.04047e-08
2.51942e-09
2.45353e-09
3.84069e-08
8.92621e-10
-1.93436e-09
2.74479e-08
-5.56374e-09
4.28621e-08
-3.43579e-09
-4.48936e-09
6.52822e-08
-4.71669e-09
-2.19696e-09
3.64668e-08
-6.88981e-10
-4.78588e-09
5.60719e-08
3.72061e-09
2.38778e-08
2.05226e-09
-1.91803e-09
-3.56929e-09
-3.40562e-10
5.6377e-08
7.0954e-09
6.22471e-09
3.44024e-08
3.97531e-09
3.17227e-09
4.17097e-08
-5.09393e-10
3.47284e-08
-2.25511e-09
1.6816e-09
5.76562e-09
3.26255e-08
4.74998e-09
3.40881e-09
2.35943e-08
4.65638e-09
1.95214e-09
3.57653e-08
-2.60071e-09
5.03024e-08
-1.89213e-09
5.31278e-10
-2.37032e-09
3.80514e-08
1.94921e-09
1.16275e-09
3.9235e-08
4.39653e-11
-7.10394e-10
3.20158e-08
2.75526e-10
4.16584e-08
-1.62869e-09
7.11904e-09
3.88311e-08
4.89033e-09
4.10742e-10
4.37404e-08
5.97502e-10
3.60113e-10
5.89855e-08
-3.57343e-09
2.5943e-08
-1.61735e-09
1.87929e-10
9.51218e-10
1.758e-09
4.78004e-08
-3.01034e-10
6.86685e-10
3.50711e-08
1.67386e-09
1.3341e-09
3.67446e-08
-1.23444e-09
4.09099e-08
6.1743e-10
3.99466e-10
-8.52198e-12
3.39485e-08
-1.65931e-09
-5.27764e-10
2.68672e-08
-1.87332e-09
1.79825e-09
3.55154e-08
-2.12627e-10
4.82201e-08
-8.12925e-10
-5.90141e-10
1.89881e-11
3.7658e-08
3.8587e-10
3.05628e-10
3.74248e-08
-1.09438e-09
-1.65598e-09
3.69495e-08
4.24748e-10
4.02536e-08
-3.26804e-10
-1.59059e-09
4.01228e-08
-1.14812e-09
-2.2678e-09
4.36084e-08
1.1145e-09
1.51788e-09
5.23987e-08
1.14581e-09
3.33678e-08
-1.1737e-09
-4.30762e-09
-6.60587e-10
-1.92183e-10
4.23031e-08
-1.68325e-09
3.97276e-11
3.60684e-08
-1.12351e-09
-5.80444e-10
3.60372e-08
-1.51019e-09
3.90518e-08
6.6671e-10
-1.53508e-09
-8.39527e-10
3.42048e-08
-3.31694e-09
-1.22085e-09
2.99097e-08
-3.56618e-09
-3.19447e-10
3.55044e-08
2.06713e-09
4.0598e-08
4.78548e-10
-1.69248e-09
-2.93587e-10
3.71371e-08
-1.71851e-09
-4.41872e-11
3.62738e-08
-1.3606e-09
-2.53962e-10
3.65255e-08
3.61408e-09
3.72919e-08
5.47509e-11
-2.28981e-09
3.95113e-08
6.08291e-10
-2.34869e-09
4.14111e-08
2.21038e-09
1.66215e-09
4.4589e-08
3.54384e-09
3.5234e-08
3.20818e-09
2.02548e-10
7.61298e-10
-1.54351e-09
3.71116e-08
-2.48055e-10
-1.70449e-09
3.55124e-08
-2.41151e-09
-3.36693e-09
3.56709e-08
-1.97593e-09
3.77649e-08
-9.19769e-10
-6.01374e-10
-3.0236e-09
3.50424e-08
-2.44725e-09
-4.05749e-09
3.41097e-08
-2.78961e-09
-3.71601e-09
3.61962e-08
-1.70973e-09
3.83161e-08
-7.72644e-10
-1.08056e-09
-3.08539e-09
3.65822e-08
-1.50276e-09
-3.94375e-09
3.6583e-08
-1.20463e-09
-4.80147e-09
3.73139e-08
-2.72396e-09
3.77059e-08
-6.03653e-10
-2.2343e-09
3.80132e-08
-2.50801e-09
-2.00341e-09
3.89863e-08
-1.74996e-09
1.78577e-10
4.04004e-08
-2.79577e-09
3.78943e-08
-5.38593e-09
1.80713e-10
-2.37433e-10
-1.40266e-09
3.60835e-08
-8.9887e-10
-1.63915e-09
3.58688e-08
-1.91651e-09
-2.26331e-09
3.61215e-08
-1.59873e-09
3.72267e-08
-1.35349e-09
-8.40613e-10
-2.18544e-09
3.58809e-08
-1.66991e-09
-2.57281e-09
3.58738e-08
-1.88599e-09
-2.48856e-09
3.66383e-08
-1.55033e-09
3.75484e-08
-1.16588e-09
-1.13331e-09
-2.29139e-09
3.66739e-08
-1.37172e-09
-2.62634e-09
3.68756e-08
-1.15385e-09
-2.77557e-09
3.73839e-08
-1.91775e-09
3.77181e-08
-7.97404e-10
-1.59662e-09
3.74905e-08
-2.08032e-09
-1.3761e-09
3.79757e-08
-1.83549e-09
-3.01075e-10
3.86112e-08
-2.06028e-09
3.83221e-08
-2.55568e-09
-8.99543e-11
-3.71049e-10
-1.02652e-09
3.63957e-08
-7.78757e-10
-1.22245e-09
3.64453e-08
-1.1988e-09
-1.46196e-09
3.66746e-08
-1.28119e-09
3.72141e-08
-9.72942e-10
-6.66519e-10
-1.40792e-09
3.65289e-08
-1.0532e-09
-1.61684e-09
3.66554e-08
-1.20685e-09
-1.69276e-09
3.70234e-08
-1.47742e-09
3.74735e-08
-9.35111e-10
-8.58776e-10
-1.48172e-09
3.69629e-08
-1.07043e-09
-1.68313e-09
3.7154e-08
-1.04427e-09
-1.81501e-09
3.74805e-08
-1.71702e-09
3.77574e-08
-8.43191e-10
-1.10941e-09
3.7419e-08
-1.30703e-09
-1.16727e-09
3.77057e-08
-1.35475e-09
-9.04498e-10
3.80687e-08
-1.53479e-09
3.82045e-08
-1.84198e-09
-6.61399e-10
-3.21899e-10
-6.6705e-10
3.68129e-08
-5.60831e-10
-7.91968e-10
3.68804e-08
-7.47349e-10
-8.93701e-10
3.70372e-08
-8.52782e-10
3.73026e-08
-6.74847e-10
-4.68343e-10
-8.70557e-10
3.69468e-08
-6.71807e-10
-9.83651e-10
3.70509e-08
-7.57141e-10
-1.03386e-09
3.72493e-08
-9.67517e-10
3.74864e-08
-6.54701e-10
-5.76056e-10
-9.19429e-10
3.71877e-08
-7.04984e-10
-1.02045e-09
3.73202e-08
-7.0257e-10
-1.07002e-09
3.75148e-08
-1.0332e-09
3.77004e-08
-5.79285e-10
-6.90995e-10
3.74417e-08
-8.31032e-10
-7.41915e-10
3.76111e-08
-8.74414e-10
-6.43804e-10
3.78188e-08
-9.17786e-10
3.79709e-08
-9.83194e-10
-4.59696e-10
-2.2631e-10
-4.07407e-10
3.71011e-08
-3.57262e-10
-4.83222e-10
3.71511e-08
-4.39933e-10
-5.38641e-10
3.72468e-08
-5.43394e-10
3.73824e-08
-4.09883e-10
-3.05231e-10
-5.19552e-10
3.71933e-08
-4.14295e-10
-5.85449e-10
3.72626e-08
-4.56627e-10
-6.20448e-10
3.73739e-08
-6.09738e-10
3.75036e-08
-4.0694e-10
-3.68481e-10
-5.46789e-10
3.73286e-08
-4.43819e-10
-6.02847e-10
3.74133e-08
-4.4641e-10
-6.30491e-10
3.75279e-08
-6.24789e-10
3.76439e-08
-3.74326e-10
-4.28139e-10
3.74714e-08
-4.94349e-10
-4.67662e-10
3.75729e-08
-5.24755e-10
-4.30543e-10
3.76941e-08
-5.42411e-10
3.78031e-08
-5.6326e-10
-3.23709e-10
-1.48765e-10
-2.47827e-10
3.72734e-08
-2.17176e-10
-2.93084e-10
3.73061e-08
-2.5432e-10
-3.26061e-10
3.73621e-08
-3.38415e-10
3.74342e-08
-2.39863e-10
-1.9393e-10
-3.09657e-10
3.73307e-08
-2.50221e-10
-3.48341e-10
3.73744e-08
-2.69388e-10
-3.70868e-10
3.74382e-08
-3.72736e-10
3.75107e-08
-2.4177e-10
-2.31232e-10
-3.24537e-10
3.74081e-08
-2.70833e-10
-3.55927e-10
3.74607e-08
-2.70501e-10
-3.71194e-10
3.75283e-08
-3.70008e-10
3.75977e-08
-2.26568e-10
-2.63501e-10
3.74895e-08
-2.93898e-10
-2.8501e-10
3.75508e-08
-3.12087e-10
-2.65416e-10
3.76221e-08
-3.18402e-10
3.76901e-08
-3.19994e-10
-2.0198e-10
-9.63524e-11
-1.52823e-10
3.73711e-08
-1.314e-10
-1.80019e-10
3.73918e-08
-1.48282e-10
-2.00254e-10
3.74244e-08
-2.10691e-10
3.74639e-08
-1.40072e-10
-1.23194e-10
-1.87187e-10
3.74058e-08
-1.51551e-10
-2.10139e-10
3.7433e-08
-1.59309e-10
-2.24261e-10
3.74702e-08
-2.27883e-10
3.75113e-08
-1.42519e-10
-1.45472e-10
-1.95234e-10
3.74508e-08
-1.64987e-10
-2.13069e-10
3.74833e-08
-1.62369e-10
-2.21694e-10
3.75233e-08
-2.21372e-10
3.75642e-08
-1.35152e-10
-1.63484e-10
3.7498e-08
-1.77349e-10
-1.73322e-10
3.75354e-08
-1.87545e-10
-1.60493e-10
3.75775e-08
-1.89694e-10
3.76181e-08
-1.87105e-10
-1.22586e-10
-6.26873e-11
-9.60707e-11
3.74251e-08
-8.03738e-11
-1.1247e-10
3.74382e-08
-8.78455e-11
-1.24902e-10
3.74573e-08
-1.32107e-10
3.74796e-08
-8.24978e-11
-7.88677e-11
-1.15174e-10
3.74462e-08
-9.27626e-11
-1.28839e-10
3.74632e-08
-9.51777e-11
-1.3753e-10
3.74851e-08
-1.40469e-10
3.75089e-08
-8.43923e-11
-9.22199e-11
-1.1936e-10
3.74728e-08
-1.01207e-10
-1.29581e-10
3.7493e-08
-9.78131e-11
-1.34511e-10
3.75169e-08
-1.34338e-10
3.75409e-08
-8.06602e-11
-1.02458e-10
3.75007e-08
-1.08677e-10
-1.0607e-10
3.75236e-08
-1.14236e-10
-9.69638e-11
3.75487e-08
-1.14831e-10
3.75726e-08
-1.1197e-10
-7.3854e-11
-4.12214e-11
-6.16288e-11
3.74543e-08
-4.99993e-11
-7.15325e-11
3.74627e-08
-5.30517e-11
-7.91025e-11
3.74742e-08
-8.36679e-11
3.74872e-08
-4.93147e-11
-5.10169e-11
-7.22069e-11
3.74674e-08
-5.75577e-11
-8.03303e-11
3.74782e-08
-5.76511e-11
-8.55862e-11
3.74914e-08
-8.7534e-11
3.75053e-08
-5.05047e-11
-5.89963e-11
-7.42347e-11
3.74835e-08
-6.27242e-11
-8.00941e-11
3.74962e-08
-5.94492e-11
-8.28852e-11
3.75106e-08
-8.26862e-11
3.75247e-08
-4.84501e-11
-6.48467e-11
3.75004e-08
-6.76466e-11
-6.55037e-11
3.75145e-08
-7.0593e-11
-5.89212e-11
3.75295e-08
-7.05801e-11
3.75436e-08
-6.82836e-11
-4.45258e-11
-2.72776e-11
-4.01531e-11
3.74697e-08
-3.15607e-11
-4.61913e-11
3.74754e-08
-3.26019e-11
-5.07608e-11
3.74825e-08
-5.35136e-11
3.74902e-08
-2.99619e-11
-3.32639e-11
-4.59865e-11
3.74781e-08
-3.61318e-11
-5.0812e-11
3.74851e-08
-3.53704e-11
-5.39396e-11
3.74932e-08
-5.51021e-11
3.75016e-08
-3.05824e-11
-3.80222e-11
-4.68597e-11
3.74882e-08
-3.92275e-11
-5.02042e-11
3.74962e-08
-3.64596e-11
-5.17426e-11
3.7505e-08
-5.1504e-11
3.75134e-08
-2.93319e-11
-4.13575e-11
3.74986e-08
-4.26903e-11
-4.0765e-11
3.75074e-08
-4.41916e-11
-3.60375e-11
3.75165e-08
-4.39491e-11
3.75247e-08
-4.22626e-11
-2.69272e-11
-1.79795e-11
-2.63111e-11
3.74777e-08
-2.00342e-11
-3.00639e-11
3.74815e-08
-2.02357e-11
-3.28225e-11
3.7486e-08
-3.44463e-11
3.74908e-08
-1.84078e-11
-2.17051e-11
-2.95335e-11
3.74832e-08
-2.27984e-11
-3.24207e-11
3.74879e-08
-2.1872e-11
-3.42691e-11
3.74929e-08
-3.49183e-11
3.7498e-08
-1.86764e-11
-2.45584e-11
-2.98375e-11
3.74897e-08
-2.46356e-11
-3.17496e-11
3.74949e-08
-2.24837e-11
-3.25803e-11
3.75003e-08
-3.2334e-11
3.75053e-08
-1.78586e-11
-2.64632e-11
3.74963e-08
-2.71706e-11
-2.54654e-11
3.75019e-08
-2.79043e-11
-2.21222e-11
3.75073e-08
-2.76151e-11
3.75121e-08
-2.64242e-11
-1.62997e-11
-1.16317e-11
-1.71113e-11
3.74817e-08
-1.2595e-11
-1.94928e-11
3.74844e-08
-1.25048e-11
-2.11872e-11
3.74873e-08
-2.21561e-11
3.74904e-08
-1.13085e-11
-1.39975e-11
-1.89002e-11
3.74855e-08
-1.42966e-11
-2.06637e-11
3.74886e-08
-1.34872e-11
-2.17731e-11
3.74918e-08
-2.21303e-11
3.7495e-08
-1.14124e-11
-1.5741e-11
-1.89626e-11
3.74897e-08
-1.54018e-11
-2.00855e-11
3.74931e-08
-1.38247e-11
-2.05381e-11
3.74965e-08
-2.03168e-11
3.74995e-08
-1.08624e-11
-1.68573e-11
3.7494e-08
-1.72778e-11
-1.58505e-11
3.74976e-08
-1.76357e-11
-1.35241e-11
3.75008e-08
-1.73855e-11
3.75035e-08
-1.65699e-11
-9.80235e-12
-7.26232e-12
-1.08719e-11
3.74838e-08
-7.69691e-12
-1.23934e-11
3.74855e-08
-7.55578e-12
-1.34594e-11
3.74875e-08
-1.4062e-11
3.74895e-08
-6.84434e-12
-8.77435e-12
-1.18569e-11
3.74863e-08
-8.77057e-12
-1.29627e-11
3.74884e-08
-8.17091e-12
-1.36463e-11
3.74905e-08
-1.38506e-11
3.74925e-08
-6.88786e-12
-9.86684e-12
-1.18379e-11
3.74892e-08
-9.4527e-12
-1.25293e-11
3.74914e-08
-8.3646e-12
-1.2788e-11
3.74935e-08
-1.26105e-11
3.74953e-08
-6.52495e-12
-1.05524e-11
3.7492e-08
-1.08237e-11
-9.7054e-12
3.74943e-08
-1.10118e-11
-8.13135e-12
3.74963e-08
-1.08304e-11
3.74977e-08
-1.02909e-11
-5.79853e-12
-4.33421e-12
-6.60009e-12
3.74847e-08
-4.51953e-12
-7.54918e-12
3.74859e-08
-4.41492e-12
-8.22045e-12
3.74872e-08
-8.60482e-12
3.74885e-08
-4.03716e-12
-5.27755e-12
-7.12777e-12
3.74865e-08
-5.19713e-12
-7.82065e-12
3.74879e-08
-4.80706e-12
-8.23721e-12
3.74893e-08
-8.35422e-12
3.74906e-08
-4.05715e-12
-5.96184e-12
-7.09238e-12
3.74885e-08
-5.61284e-12
-7.52386e-12
3.749e-08
-4.91718e-12
-7.67711e-12
3.74913e-08
-7.54873e-12
3.74923e-08
-3.82813e-12
-6.38945e-12
3.74905e-08
-6.53101e-12
-5.76062e-12
3.7492e-08
-6.63431e-12
-4.75076e-12
3.74931e-08
-6.51467e-12
3.74937e-08
-6.17362e-12
-3.3497e-12
-2.61238e-12
-3.69544e-12
3.7485e-08
-2.6628e-12
-4.24152e-12
3.74859e-08
-2.57536e-12
-4.63277e-12
3.74868e-08
-4.85959e-12
3.74876e-08
-2.3747e-12
-3.15488e-12
-3.94449e-12
3.74864e-08
-3.05654e-12
-4.34073e-12
3.74874e-08
-2.80434e-12
-4.5662e-12
3.74884e-08
-4.61983e-12
3.74892e-08
-2.37868e-12
-3.54616e-12
-3.91113e-12
3.74879e-08
-3.28057e-12
-4.15179e-12
3.7489e-08
-2.85151e-12
-4.22429e-12
3.74898e-08
-4.12667e-12
3.74905e-08
-2.24849e-12
-3.785e-12
3.74894e-08
-3.62792e-12
-3.3493e-12
3.74905e-08
-3.67237e-12
-2.7298e-12
3.74911e-08
-3.59777e-12
3.74913e-08
-3.40433e-12
-1.96962e-12
-2.08527e-12
-1.87473e-12
-2.04694e-12
-2.12002e-12
-1.91286e-12
-2.29387e-12
-2.38914e-12
-1.70598e-12
-2.32849e-12
-1.971e-12
-2.22004e-12
-2.135e-12
-2.00568e-12
-2.21727e-12
-2.21538e-12
-1.69274e-12
-2.4897e-12
-1.93226e-12
-2.29992e-12
-2.01067e-12
-1.99796e-12
-2.00678e-12
-1.91707e-12
-1.60429e-12
-2.56766e-12
-1.7774e-12
-2.29317e-12
-1.75699e-12
-1.89485e-12
-1.67646e-12
-1.5384e-12
-1.44634e-12
3.5534e-09
-5.65304e-10
4.29422e-08
2.84459e-09
-3.1075e-09
3.81452e-08
2.86401e-10
-1.46021e-09
3.47685e-08
7.28219e-10
1.92563e-08
8.54885e-10
1.17922e-09
-1.74655e-09
4.44753e-08
2.54037e-09
-3.62191e-10
3.74593e-08
4.11246e-10
4.09864e-09
3.02547e-08
1.3911e-09
2.52938e-08
1.50315e-09
1.30055e-09
6.64078e-10
4.1409e-08
3.9662e-09
1.42301e-09
4.28547e-08
-7.54021e-10
2.70478e-09
4.64488e-08
7.08134e-09
2.54735e-08
3.97393e-10
1.24759e-09
4.9811e-08
4.84888e-09
4.93806e-08
1.24854e-09
5.14796e-08
4.57702e-08
2.58265e-10
2.01335e-09
5.23679e-09
3.75013e-08
3.73961e-09
7.21373e-09
2.76421e-08
4.77692e-09
-4.09453e-11
3.78747e-08
-4.94039e-09
3.91193e-08
-2.97147e-09
1.99592e-09
3.74782e-09
4.68126e-08
-1.43856e-09
7.41243e-09
4.0695e-08
9.37127e-10
5.09246e-10
2.73288e-08
3.27836e-09
1.77255e-08
2.86598e-10
3.03165e-09
7.22795e-09
4.09501e-08
-4.19774e-09
-6.15092e-09
6.36474e-08
5.7044e-10
-3.82381e-09
4.60136e-08
7.55138e-09
2.12461e-08
5.24822e-10
-2.44232e-09
6.65842e-08
-1.12806e-09
4.24661e-08
3.12291e-09
4.44462e-08
5.60067e-08
-1.5384e-10
9.25453e-10
-5.09924e-10
3.71194e-08
4.11006e-10
4.37161e-09
2.85702e-08
2.7905e-09
5.36428e-09
3.15357e-08
-3.64408e-10
4.07935e-08
1.21447e-09
5.19426e-09
3.30589e-09
3.45903e-08
2.44915e-11
-3.60949e-10
5.05974e-08
-8.52814e-10
6.12191e-09
2.74482e-08
3.26174e-09
1.22752e-08
9.70738e-10
4.46046e-09
3.13742e-09
3.07847e-08
5.05384e-09
3.70354e-09
5.89895e-08
-1.09536e-09
2.39018e-09
5.58945e-08
-1.61538e-09
2.57031e-08
-6.75286e-10
4.15755e-09
6.25121e-08
2.50583e-09
4.79609e-08
-3.21097e-09
5.25677e-08
5.08809e-08
3.2574e-10
1.84147e-10
-1.41678e-10
4.44713e-08
3.47619e-09
-8.89875e-10
2.77396e-08
-5.13729e-09
-2.07237e-10
3.85387e-08
1.05147e-08
1.62959e-08
3.93887e-09
4.44065e-10
6.42622e-10
3.5272e-08
2.60243e-09
-6.98691e-10
4.82478e-08
3.13803e-10
2.50151e-09
2.7028e-08
1.8712e-09
2.3369e-08
-2.13666e-09
2.77539e-10
-7.40592e-09
4.3962e-08
3.54286e-09
7.32137e-10
5.42934e-08
1.14563e-09
1.54947e-09
5.92438e-08
9.84207e-09
2.15692e-08
-2.69144e-09
5.04771e-09
4.58845e-08
2.53453e-09
5.14454e-08
3.30431e-09
5.35727e-08
6.87929e-08
-5.51015e-09
-9.52824e-10
-2.24056e-09
4.57974e-08
2.07752e-09
-3.15833e-09
2.71786e-08
-2.68642e-09
1.03929e-09
4.59839e-08
6.533e-09
1.14395e-08
-2.31087e-09
-3.38629e-09
4.42446e-09
3.59687e-08
3.41106e-09
1.33891e-10
3.81583e-08
4.63068e-10
-1.22256e-08
4.32409e-08
-8.89728e-09
4.48131e-08
-5.55074e-09
-8.18721e-09
-1.36945e-08
8.47957e-08
-1.73647e-09
-4.09872e-09
5.20752e-08
1.42203e-09
-2.3312e-09
4.61907e-08
-2.18336e-09
1.70849e-08
-8.07714e-10
4.89891e-10
3.64173e-08
-8.27196e-11
4.86539e-08
3.86838e-09
4.89791e-08
7.73718e-08
-4.23589e-09
1.63214e-09
-1.59034e-09
5.12139e-08
-2.85869e-09
-3.18841e-10
3.25859e-08
1.73854e-09
3.26644e-09
3.45468e-08
-7.70107e-09
1.83773e-08
8.84337e-10
2.06908e-09
-3.0226e-09
3.68322e-08
-7.24362e-10
-9.16771e-09
4.98005e-08
-1.51554e-09
-1.64741e-08
6.37728e-08
-7.93009e-09
4.38554e-08
-3.28921e-10
-2.08125e-09
1.85522e-09
8.71103e-08
-6.17354e-11
8.91804e-10
3.99961e-08
1.71678e-09
-1.15012e-08
3.9439e-08
-1.6942e-08
2.6974e-08
8.39539e-10
-3.55845e-10
5.09472e-08
-4.59963e-09
5.40768e-08
6.76733e-11
3.28546e-08
5.77109e-08
4.10856e-09
-4.93671e-10
6.86219e-10
4.67316e-08
-1.63171e-09
-2.2061e-09
3.70453e-08
1.00522e-09
-3.48245e-09
3.65386e-08
-4.39071e-09
2.32983e-08
-6.9893e-10
-1.30823e-09
-4.86998e-09
4.33389e-08
-2.15552e-09
-6.58672e-10
4.91008e-08
1.12256e-09
-2.38673e-10
5.72524e-08
2.50406e-09
3.62488e-08
1.83389e-09
2.43277e-09
5.02413e-09
7.77616e-08
5.35204e-10
-3.72834e-09
4.49635e-08
8.14631e-10
-2.88612e-09
4.18081e-08
-4.04598e-09
3.40708e-08
2.6939e-10
7.30379e-10
5.46998e-08
2.38235e-09
5.33565e-08
-4.72982e-10
3.62958e-08
5.16651e-08
6.83543e-10
-9.81113e-10
1.99458e-09
4.32538e-08
-1.22079e-09
1.76265e-09
3.77319e-08
-2.87841e-10
2.2402e-09
3.69076e-08
2.6562e-09
2.50996e-08
-1.53932e-09
-2.499e-09
-9.55875e-10
4.66719e-08
-1.70366e-09
4.70177e-09
4.53648e-08
7.56551e-10
8.66572e-09
4.83657e-08
6.28664e-09
3.37482e-08
-3.74889e-10
1.66841e-09
4.05582e-09
6.73096e-08
1.03384e-09
2.03596e-09
4.82624e-08
9.68302e-11
5.70621e-09
4.57046e-08
1.85653e-09
3.98836e-08
-1.28627e-09
2.03957e-10
5.49255e-08
1.73534e-09
5.38606e-08
-4.55137e-10
4.41928e-08
5.41807e-08
-1.11365e-09
-1.6504e-09
-1.98309e-09
4.11349e-08
-1.90581e-09
-1.63003e-09
3.78667e-08
7.73561e-10
-2.26892e-09
3.37009e-08
-5.26336e-09
2.37364e-08
2.01378e-09
-2.19504e-09
-3.28305e-09
4.69046e-08
-2.78989e-09
-4.63936e-11
4.43754e-08
4.27156e-11
2.04349e-09
4.12193e-08
-4.15931e-09
3.03743e-08
2.31329e-09
-5.68991e-10
3.30491e-09
5.7162e-08
-1.80919e-09
3.93007e-10
4.90623e-08
-1.58021e-09
2.76399e-09
4.47531e-08
-4.4623e-09
3.69222e-08
1.68378e-09
-2.31064e-09
5.65331e-08
-2.02368e-09
5.3966e-08
-2.99809e-09
4.79293e-08
4.51949e-08
1.5243e-09
-1.22459e-09
-2.00048e-09
4.01087e-08
-7.76267e-10
-1.86636e-09
3.745e-08
5.65175e-10
-2.1213e-09
3.24215e-08
-3.12412e-09
2.38874e-08
9.83447e-10
-1.41032e-09
-2.11769e-09
4.59828e-08
-1.10672e-09
-9.95802e-10
4.32019e-08
2.79409e-10
-5.71532e-10
3.82841e-08
-2.91557e-09
2.94371e-08
1.00936e-09
-9.31969e-10
5.78971e-10
5.26157e-08
-1.03498e-09
-2.7165e-10
4.84421e-08
-3.82067e-10
2.64299e-10
4.32649e-08
-2.34424e-09
3.51478e-08
8.22716e-10
-1.70258e-09
5.60545e-08
-1.29712e-09
5.32896e-08
-9.86024e-10
4.78827e-08
4.11411e-08
7.23731e-10
-1.01742e-09
-1.15362e-09
3.97553e-08
-7.98786e-10
-1.18141e-09
3.70586e-08
-1.59466e-10
-1.3627e-09
3.16107e-08
-1.83348e-09
2.3258e-08
4.61902e-10
-1.14997e-09
-8.79451e-10
4.54281e-08
-1.00144e-09
-7.08302e-10
4.25807e-08
-3.24027e-10
-7.69762e-10
3.70139e-08
-1.60296e-09
2.84185e-08
4.64676e-10
-1.07546e-09
9.63091e-11
5.11516e-08
-1.07875e-09
-1.6394e-10
4.79015e-08
-5.52918e-10
-2.22188e-10
4.21919e-08
-1.08197e-09
3.36628e-08
4.11565e-10
-1.35925e-09
5.59239e-08
-1.22236e-09
5.29892e-08
-7.55223e-10
4.71937e-08
3.89385e-08
3.65699e-10
-6.25807e-10
-7.54823e-10
3.9593e-08
-4.54484e-10
-8.08926e-10
3.68222e-08
-1.12901e-10
-8.92446e-10
3.12442e-08
-1.0345e-09
2.2991e-08
2.0576e-10
-6.9727e-10
-5.41408e-10
4.50849e-08
-5.41599e-10
-5.63123e-10
4.21796e-08
-1.70106e-10
-6.55355e-10
3.64054e-08
-9.16148e-10
2.79252e-08
2.05234e-10
-7.14335e-10
-1.10394e-10
5.0542e-08
-6.03036e-10
-2.29013e-10
4.74563e-08
-2.53636e-10
-3.18846e-10
4.15061e-08
-5.86935e-10
3.28924e-08
1.87907e-10
-8.1105e-10
5.57051e-08
-6.71444e-10
5.26208e-08
-3.27231e-10
4.65307e-08
3.78581e-08
1.6639e-10
-3.87766e-10
-4.50112e-10
3.95171e-08
-2.86312e-10
-4.92384e-10
3.66888e-08
-1.00217e-10
-5.30446e-10
3.10467e-08
-5.75339e-10
2.28081e-08
9.53007e-11
-4.28099e-10
-3.23467e-10
4.49078e-08
-3.264e-10
-3.63459e-10
4.19493e-08
-1.2255e-10
-4.16575e-10
3.60879e-08
-4.97504e-10
2.76312e-08
9.40359e-11
-4.47368e-10
-1.17371e-10
5.02704e-08
-3.55832e-10
-1.7411e-10
4.71758e-08
-1.50796e-10
-2.25814e-10
4.11106e-08
-3.08827e-10
3.2467e-08
8.63244e-11
-4.77954e-10
5.55349e-08
-3.80842e-10
5.23498e-08
-1.75712e-10
4.60999e-08
3.72979e-08
7.57918e-11
-2.37261e-10
-2.70058e-10
3.94765e-08
-1.72742e-10
-2.97652e-10
3.66101e-08
-6.49719e-11
-3.14689e-10
3.09356e-08
-3.24484e-10
2.27011e-08
4.70638e-11
-2.59016e-10
-1.98832e-10
4.4812e-08
-1.90905e-10
-2.2855e-10
4.18125e-08
-7.3363e-11
-2.55144e-10
3.5911e-08
-2.77101e-10
2.74653e-08
4.55529e-11
-2.70554e-10
-9.0491e-11
5.01319e-08
-2.03748e-10
-1.19099e-10
4.69999e-08
-8.30819e-11
-1.4507e-10
4.08803e-08
-1.69226e-10
3.2235e-08
4.14542e-11
-2.8133e-10
5.54161e-08
-2.13401e-10
5.21629e-08
-9.21274e-11
4.58338e-08
3.70009e-08
3.5858e-11
-1.45827e-10
-1.65127e-10
3.94522e-08
-1.03797e-10
-1.81427e-10
3.65622e-08
-3.9289e-11
-1.88708e-10
3.08703e-08
-1.88493e-10
2.26375e-08
2.59831e-11
-1.57111e-10
-1.25059e-10
4.47563e-08
-1.11953e-10
-1.4325e-10
4.17293e-08
-4.24078e-11
-1.55452e-10
3.58084e-08
-1.59602e-10
2.73695e-08
2.47717e-11
-1.62957e-10
-6.37469e-11
5.00527e-08
-1.17218e-10
-7.86829e-11
4.68899e-08
-4.5756e-11
-9.05157e-11
4.07442e-08
-9.64845e-11
3.21041e-08
2.23445e-11
-1.66935e-10
5.53343e-08
-1.20868e-10
5.20383e-08
-4.93773e-11
4.56719e-08
3.68362e-08
1.89602e-11
-9.04778e-11
-1.02374e-10
3.94362e-08
-6.27452e-11
-1.11617e-10
3.65318e-08
-2.3168e-11
-1.14583e-10
3.08305e-08
-1.12171e-10
2.25991e-08
1.5508e-11
-9.62043e-11
-7.93117e-11
4.47219e-08
-6.64078e-11
-8.97429e-11
4.16777e-08
-2.43325e-11
-9.50721e-11
3.57468e-08
-9.43242e-11
2.73129e-08
1.45819e-11
-9.89255e-11
-4.28272e-11
5.00039e-08
-6.84415e-11
-5.08031e-11
4.68205e-08
-2.5494e-11
-5.59949e-11
4.06622e-08
-5.66023e-11
3.2028e-08
1.30431e-11
-1.00465e-10
5.52787e-08
-6.98584e-11
5.19569e-08
-2.71841e-11
4.55733e-08
3.67416e-08
1.09086e-11
-5.6674e-11
-6.42646e-11
3.94249e-08
-3.82323e-11
-6.93972e-11
3.6512e-08
-1.35203e-11
-7.0496e-11
3.08055e-08
-6.80824e-11
2.25755e-08
9.74988e-12
-5.95277e-11
-5.0576e-11
4.46996e-08
-3.98768e-11
-5.64082e-11
4.16449e-08
-1.39544e-11
-5.86374e-11
3.57089e-08
-5.69471e-11
2.72786e-08
9.10508e-12
-6.07118e-11
-2.81506e-11
4.99724e-08
-4.06073e-11
-3.2488e-11
4.67763e-08
-1.43782e-11
-3.47337e-11
4.06119e-08
-3.40136e-11
3.19825e-08
8.09173e-12
-6.13575e-11
5.52413e-08
-4.12294e-11
5.19041e-08
-1.53407e-11
4.55125e-08
3.66854e-08
6.6251e-12
-3.57607e-11
-4.08097e-11
3.94167e-08
-2.34274e-11
-4.36149e-11
3.64986e-08
-7.82047e-12
-4.39221e-11
3.07894e-08
-4.20093e-11
2.25605e-08
6.33853e-12
-3.71462e-11
-3.24667e-11
4.46845e-08
-2.41598e-11
-3.56958e-11
4.16236e-08
-7.98616e-12
-3.65535e-11
3.56849e-08
-3.50133e-11
2.72573e-08
5.86708e-12
-3.76209e-11
-1.83834e-11
4.99514e-08
-2.43916e-11
-2.07962e-11
4.67478e-08
-8.17005e-12
-2.17441e-11
4.05804e-08
-2.08755e-11
3.19545e-08
5.18118e-12
-3.79462e-11
5.5216e-08
-2.47383e-11
5.18698e-08
-8.81737e-12
4.54744e-08
3.66512e-08
4.14536e-12
-2.26452e-11
-2.61165e-11
3.94106e-08
-1.43787e-11
-2.76357e-11
3.64894e-08
-4.45691e-12
-2.76404e-11
3.07787e-08
-2.6263e-11
2.25509e-08
4.21326e-12
-2.32984e-11
-2.09445e-11
4.46741e-08
-1.47045e-11
-2.27305e-11
4.16094e-08
-4.53488e-12
-2.30117e-11
3.56695e-08
-2.18517e-11
2.72437e-08
3.85719e-12
-2.34667e-11
-1.20019e-11
4.99371e-08
-1.47654e-11
-1.33834e-11
4.6729e-08
-4.6465e-12
-1.37704e-11
4.05603e-08
-1.30555e-11
3.19369e-08
3.38359e-12
-2.36794e-11
5.51987e-08
-1.50145e-11
5.18472e-08
-5.12428e-12
4.54502e-08
3.66298e-08
2.6629e-12
-1.43002e-11
-1.67025e-11
3.94059e-08
-8.77486e-12
-1.75327e-11
3.64829e-08
-2.4571e-12
-1.74637e-11
3.07715e-08
-1.65604e-11
2.25445e-08
2.84014e-12
-1.46042e-11
-1.35029e-11
4.46667e-08
-8.92846e-12
-1.44956e-11
4.15998e-08
-2.52387e-12
-1.45671e-11
3.56592e-08
-1.3784e-11
2.72349e-08
2.55043e-12
-1.46514e-11
-7.83363e-12
4.99272e-08
-8.94739e-12
-8.64931e-12
4.67165e-08
-2.61955e-12
-8.81188e-12
4.05471e-08
-8.31366e-12
3.19256e-08
2.22214e-12
-1.48166e-11
5.51869e-08
-9.15509e-12
5.18322e-08
-2.99024e-12
4.54345e-08
3.66161e-08
1.70173e-12
-8.89809e-12
-1.05438e-11
3.94025e-08
-5.25661e-12
-1.10157e-11
3.64784e-08
-1.2775e-12
-1.09606e-11
3.07665e-08
-1.04113e-11
2.25403e-08
1.89066e-12
-9.04512e-12
-8.61466e-12
4.46615e-08
-5.33962e-12
-9.18842e-12
4.15932e-08
-1.34686e-12
-9.19827e-12
3.56524e-08
-8.70348e-12
2.72291e-08
1.67052e-12
-9.06095e-12
-5.09045e-12
4.99204e-08
-5.3564e-12
-5.5984e-12
4.67081e-08
-1.43427e-12
-5.67798e-12
4.05385e-08
-5.34966e-12
3.19182e-08
1.43463e-12
-9.20204e-12
5.51787e-08
-5.53325e-12
5.18222e-08
-1.71611e-12
4.54242e-08
3.66072e-08
1.07073e-12
-5.36882e-12
-6.43428e-12
3.93999e-08
-3.05784e-12
-6.70917e-12
3.64752e-08
-6.35242e-13
-6.6813e-12
3.07633e-08
-6.36743e-12
2.25375e-08
1.19088e-12
-5.44361e-12
-5.32624e-12
4.46579e-08
-3.10581e-12
-5.66735e-12
4.15889e-08
-6.96086e-13
-5.67243e-12
3.5648e-08
-5.37585e-12
2.72254e-08
1.02723e-12
-5.45684e-12
-3.22403e-12
4.99158e-08
-3.12787e-12
-3.55227e-12
4.67025e-08
-7.67321e-13
-3.6086e-12
4.05329e-08
-3.4033e-12
3.19135e-08
8.73141e-13
-5.574e-12
5.51732e-08
-3.26981e-12
5.18157e-08
-9.67152e-13
4.54176e-08
3.66016e-08
6.28988e-13
-3.19199e-12
-3.63171e-12
3.93983e-08
-1.80832e-12
-3.76785e-12
3.64733e-08
-4.06714e-13
-3.74761e-12
3.07613e-08
-3.58067e-12
2.25358e-08
6.06705e-13
-3.20788e-12
-3.05571e-12
4.46556e-08
-1.82076e-12
-3.246e-12
4.15862e-08
-4.42118e-13
-3.25427e-12
3.56453e-08
-3.09456e-12
2.72232e-08
5.07862e-13
-3.20762e-12
-1.88149e-12
4.99129e-08
-1.83301e-12
-2.09074e-12
4.66992e-08
-4.84435e-13
-2.14644e-12
4.05296e-08
-2.04254e-12
3.19108e-08
4.18295e-13
-3.28444e-12
5.51699e-08
-1.92539e-12
5.18119e-08
-6.02164e-13
4.54137e-08
3.65983e-08
2.77467e-13
-2.21456e-12
-1.79931e-12
-1.42094e-12
-1.84957e-12
-5.84834e-13
-1.81017e-12
-1.68598e-12
3.98473e-14
-2.17937e-12
-1.52687e-12
-1.38227e-12
-1.6264e-12
-5.64658e-13
-1.62075e-12
-1.52125e-12
1.24082e-14
-2.14622e-12
-9.45572e-13
-1.35312e-12
-1.05723e-12
-5.53521e-13
-1.09041e-12
-1.04492e-12
-1.30268e-14
-2.15696e-12
-1.36966e-12
-5.84579e-13
-6.24157e-14
8.11277e-09
2.97233e-09
2.51764e-08
3.28374e-09
-2.53223e-09
5.38301e-08
-5.57897e-09
-4.49162e-10
5.9286e-08
5.26909e-09
3.92585e-08
1.36564e-09
-1.43242e-11
4.13794e-08
6.97054e-09
1.40733e-09
3.10423e-08
4.73833e-09
2.32008e-09
4.60993e-08
-2.8555e-09
6.51011e-08
4.53964e-09
-1.63881e-09
3.26201e-08
6.90223e-09
-1.776e-09
3.6747e-08
-9.56038e-09
-2.28238e-09
6.22956e-08
2.56139e-09
3.06156e-08
4.10356e-09
1.87256e-08
8.36393e-10
3.01165e-08
5.93335e-09
2.5197e-08
4.56534e-08
-1.36921e-09
1.98851e-09
2.15116e-08
6.09665e-09
3.62814e-09
3.93117e-08
8.8544e-09
3.61397e-09
5.89362e-08
-8.3436e-10
5.5101e-08
2.7615e-09
1.36195e-09
4.23732e-08
1.10576e-09
2.6711e-09
3.36551e-08
-3.57823e-09
7.48649e-09
4.69108e-08
7.37369e-09
5.30307e-08
4.92525e-09
2.39021e-09
2.91317e-08
1.08079e-08
8.9433e-10
3.26412e-08
1.07615e-09
9.83017e-10
7.85308e-08
1.46123e-09
3.69359e-08
2.33523e-09
2.154e-08
5.67855e-09
2.79539e-08
3.5903e-09
2.87931e-08
4.99673e-08
-2.54251e-09
-2.89772e-10
2.2214e-08
-2.07038e-09
3.52238e-09
3.31099e-08
5.30696e-09
5.2024e-09
4.15163e-08
1.91859e-09
5.93865e-08
1.47466e-09
7.51178e-09
3.29847e-08
-4.96512e-10
1.26287e-09
3.78859e-08
-5.16854e-09
2.87991e-09
5.39053e-08
6.12934e-09
4.48449e-08
-4.09424e-09
1.5385e-10
4.53611e-08
2.92511e-09
2.0837e-09
2.48009e-08
1.60793e-08
2.41726e-09
6.58393e-08
8.16299e-10
5.75323e-08
1.16704e-09
2.2571e-08
8.4382e-10
3.13314e-08
5.30721e-09
2.60716e-08
5.54788e-08
2.08865e-09
-9.65797e-10
2.74805e-08
-5.51199e-10
-1.89717e-09
4.0096e-08
-2.75013e-09
-1.70962e-09
4.84838e-08
4.54041e-10
5.554e-08
1.14019e-09
8.82961e-10
2.89805e-08
9.50443e-11
-6.1778e-10
3.76517e-08
2.46753e-09
-2.90538e-09
5.27286e-08
-1.34237e-09
4.93598e-08
-1.39107e-09
6.33303e-10
4.46305e-08
-3.19768e-09
1.23033e-09
2.4759e-08
1.03008e-08
2.54769e-09
4.68877e-08
8.22727e-10
6.59761e-08
-7.17271e-10
2.98006e-08
-1.85635e-10
2.98934e-08
7.66012e-10
2.49762e-08
5.02773e-08
-9.61399e-10
1.82249e-09
3.66927e-08
-2.76903e-09
-2.03452e-09
4.90721e-08
1.53259e-09
-1.44518e-10
5.21158e-08
-9.26652e-10
6.52582e-08
-5.50273e-09