/*--------------------------------*- C++ -*----------------------------------*\
| =========                 |                                                 |
| \\      /  F ield         | OpenFOAM: The Open Source CFD Toolbox           |
|  \\    /   O peration     | Version:  2506                                  |
|   \\  /    A nd           | Website:  www.openfoam.com                      |
|    \\/     M anipulation  |                                                 |
\*---------------------------------------------------------------------------*/
FoamFile
{
    version     2.0;
    format      ascii;
    arch        "LSB;label=32;scalar=64";
    class       volVectorField;
    location    "0.06";
    object      U;
}
// * * * * * * * * * * * * * * * * * * * * * * * * * * * * * * * * * * * * * //

dimensions      [0 1 -1 0 0 0 0];

internalField   nonuniform List<vector> 
1152
(
(0.000343876 0.00148871 0.0135766)
(0.000851507 0.00228262 0.0175584)
(-0.000957503 0.00138928 0.0261712)
(0.000782094 0.0020827 0.0127199)
(0.00181372 0.000670987 0.0200559)
(0.000697709 -0.000125858 0.0104098)
(0.00130985 0.000202142 0.0129402)
(0.00257749 0.00214342 0.0166168)
(0.00229558 0.00101125 0.0212405)
(0.00195632 0.00244814 0.012991)
(0.00173954 0.000950542 0.0142229)
(0.00174251 0.000785299 0.0157808)
(0.00230954 0.000941337 0.0102604)
(0.00130843 0.00127754 0.0129955)
(-0.000460912 0.000135938 0.0138003)
(0.00044104 0.00054774 0.0238766)
(-0.000697099 0.000591185 0.0344322)
(0.000978539 0.000820701 0.036624)
(0.00383375 9.40343e-05 0.0229867)
(0.00110889 -0.000497042 0.0186712)
(0.00133045 -0.00124212 0.018583)
(0.00194371 0.00186466 0.0358287)
(0.00163025 0.00115055 0.0233941)
(0.00122754 -0.00173813 0.0315911)
(0.00135098 0.00167936 0.0211079)
(0.00342773 0.00123339 0.0205335)
(0.000783398 0.0013243 0.0393031)
(0.00150716 0.00148944 0.0226573)
(0.00360477 0.00370158 0.033427)
(0.00117875 0.00044351 0.0528253)
(0.000172138 0.00232012 0.0295684)
(0.00132115 0.00319737 0.0129852)
(-0.00136644 -5.79601e-05 0.0227031)
(-0.000297983 -0.00252628 0.0217079)
(0.00369348 -0.000450013 0.0393907)
(0.000987856 -0.000439684 0.0494344)
(-0.000212339 0.00111136 0.0450043)
(-0.00125594 0.00124186 0.0230978)
(-0.000217723 -0.00103439 0.0330469)
(0.000374522 0.000559215 0.0255905)
(0.000501694 -0.000139189 0.0148914)
(-0.000520433 0.000277318 0.0295516)
(0.000563189 0.00106734 0.0285271)
(0.00261566 0.00257714 0.0273977)
(-1.18832e-05 0.000558877 0.0310535)
(0.000128462 0.00115411 0.0411825)
(0.00219483 0.00168051 0.0273769)
(0.00162024 0.00162425 0.0357404)
(-0.000368563 5.60702e-05 0.0304587)
(-0.00139319 -0.00135784 0.0190345)
(-0.00111451 -0.000682345 0.02467)
(0.00037542 -0.00160681 0.0390513)
(-0.00223296 -0.000246061 0.0407237)
(-0.0008625 0.000375978 0.0305899)
(-0.000212057 -0.000491716 0.0185315)
(-9.80565e-05 0.000695215 0.0238492)
(0.000265861 -9.28735e-05 0.0183956)
(-0.00132446 5.56427e-06 0.0312112)
(-0.000432137 0.00202013 0.0248498)
(-0.000255375 -0.000303727 0.022992)
(-0.00148291 -0.00121031 0.0446876)
(0.00160027 -0.000240955 0.0325492)
(0.000302174 0.00126842 0.0324556)
(-0.00163777 -0.00226656 0.0305986)
(0.00522123 0.0019061 0.0520334)
(2.5303e-05 0.000443151 0.00972957)
(-0.00416284 0.00382456 0.0412629)
(0.000886942 0.0013733 0.0225719)
(0.000539303 0.00138052 0.0276253)
(0.00094466 -0.000837213 0.015791)
(0.00126579 0.00116385 0.0269241)
(0.00107822 0.00228831 0.0319087)
(0.000482711 0.00339837 0.028305)
(0.000487429 0.000979234 0.040309)
(0.000539255 -0.000165452 0.0178836)
(-0.000897923 -0.0023589 0.0315321)
(6.76812e-05 0.000149331 0.0187169)
(-0.00202734 0.000286093 0.0245099)
(-0.00283784 0.00010762 0.0563932)
(-0.00117324 -0.000669029 0.0251284)
(-0.000824332 0.00112008 0.0125594)
(0.00160115 0.00609564 0.0334075)
(0.00246592 0.00227552 0.0132435)
(0.000862972 0.000948362 0.010414)
(-0.000588406 0.00192775 0.0250602)
(0.00170045 0.00225069 0.0169867)
(0.0027618 0.00165098 0.0180502)
(0.000990439 -0.000878742 0.0197923)
(0.000154766 0.000948115 0.0143031)
(0.000722154 0.00115114 0.0130236)
(0.000698469 0.000373331 0.0172097)
(-0.000342995 -0.000657412 0.0209486)
(-0.00233884 0.000763106 0.0423833)
(0.00126232 0.000793675 0.0208623)
(0.000192534 -0.000993626 0.0149381)
(0.000172695 -0.000334021 0.010081)
(-0.000302952 -0.000590067 0.0274644)
(1.06124e-05 9.82552e-05 0.0141628)
(9.89013e-05 -0.000396672 0.0203577)
(0.000566398 0.000648953 0.0140214)
(-8.56307e-05 0.000239328 0.0150967)
(3.87857e-06 9.48667e-05 0.0118344)
(-0.000752545 0.000615693 0.0166641)
(-0.000422253 -0.000322986 0.0227765)
(-0.000369361 -1.05759e-05 0.018235)
(4.51727e-05 -2.09992e-05 0.0181798)
(-8.71463e-05 0.00028941 0.0145313)
(-0.000257479 0.000213667 0.0188974)
(-0.00050375 -1.72131e-05 0.0147089)
(-0.000630525 0.000277816 0.0203835)
(0.000270682 -0.00020529 0.0262191)
(-0.000813348 -0.000517214 0.0114208)
(-0.00041664 -0.00042937 0.0301461)
(-0.000165451 9.20034e-05 0.0241621)
(-0.000454474 -0.000201878 0.0240331)
(-5.09478e-05 -0.000391693 0.0247603)
(-0.000408264 4.8075e-05 0.0227619)
(-0.00056636 -8.85773e-05 0.0184356)
(-0.00102407 -5.90024e-05 0.02299)
(-0.000410638 6.87905e-06 0.0259668)
(-0.000407807 -0.00025266 0.024798)
(-0.000446732 -0.000313992 0.0240478)
(-0.000428246 -0.000273901 0.0234219)
(-0.000179726 0.000779356 0.0241088)
(-0.000471301 4.36236e-05 0.02638)
(-0.000767676 0.000353472 0.0273674)
(0.00010248 0.00045074 0.0296427)
(0.000147791 0.000891035 0.0218238)
(-5.57527e-05 -0.000920454 0.00809885)
(0.000255248 -0.000688165 0.00737221)
(-0.000441174 -0.00126966 0.00760783)
(-0.000523293 -0.000483907 0.00839669)
(-0.00019523 -0.000324119 0.00708024)
(-0.000275877 -0.000557155 0.00669069)
(-0.000793346 -0.00077073 0.00768637)
(-0.000500685 -0.000419184 0.0086857)
(-0.000360387 -0.000894947 0.00761035)
(-0.000297144 -0.00115269 0.00764767)
(-0.000394261 -0.00114164 0.0079423)
(-0.000264807 -0.000496517 0.00814154)
(-0.000710405 -0.000720723 0.00807446)
(-0.000586099 -0.000713321 0.00854489)
(-0.000149257 -0.00100656 0.00922916)
(5.31159e-05 -0.00108646 0.00792812)
(-8.81038e-05 -0.000517482 0.0131999)
(-8.6682e-05 -0.000494385 0.0129934)
(-0.00040794 -0.000690796 0.0130304)
(-0.000463754 -0.000417356 0.0135298)
(-0.000207747 -0.000384105 0.0129827)
(-0.000291622 -0.000482442 0.0128922)
(-0.000502902 -0.000559148 0.0132448)
(-0.000403361 -0.000373955 0.0136648)
(-0.000307447 -0.000612459 0.013351)
(-0.000312674 -0.0007101 0.0133922)
(-0.00034296 -0.000685361 0.0135905)
(-0.000238435 -0.000410044 0.0137159)
(-0.000477361 -0.000564343 0.0137179)
(-0.000391167 -0.000576588 0.0139231)
(-0.000206565 -0.000635885 0.0142337)
(-6.84926e-06 -0.000584202 0.0140005)
(-6.58798e-05 -0.000272654 0.0120327)
(-0.000134432 -0.000306403 0.0120283)
(-0.000273827 -0.000371213 0.0121131)
(-0.000298901 -0.000305137 0.0123672)
(-0.000139755 -0.000296544 0.0120435)
(-0.000215242 -0.000350386 0.0120799)
(-0.00030901 -0.000390341 0.0122527)
(-0.00028416 -0.000342907 0.0124593)
(-0.000201749 -0.00038493 0.0122381)
(-0.000247439 -0.000438976 0.0123081)
(-0.000283435 -0.000456712 0.0124415)
(-0.000245955 -0.000403924 0.0125376)
(-0.000286029 -0.000364034 0.0124377)
(-0.000295181 -0.000398741 0.0125543)
(-0.000274001 -0.000445546 0.0127012)
(-0.000203384 -0.000475694 0.012682)
(-5.407e-05 -0.000153569 0.0123197)
(-0.00011118 -0.000183672 0.0123424)
(-0.000176211 -0.000211368 0.0124056)
(-0.000191118 -0.000200024 0.0125261)
(-9.46365e-05 -0.00019522 0.0123673)
(-0.000146447 -0.000225481 0.0124074)
(-0.000190931 -0.000244267 0.0124956)
(-0.000186467 -0.000230401 0.0126021)
(-0.000129588 -0.000235317 0.0124737)
(-0.000165968 -0.000262909 0.0125276)
(-0.000186207 -0.000273069 0.0126125)
(-0.000168284 -0.000255593 0.0126924)
(-0.000169609 -0.000228565 0.0125841)
(-0.000185908 -0.000248127 0.0126574)
(-0.000182527 -0.000262476 0.0127523)
(-0.000144561 -0.000266962 0.0128154)
(-3.99337e-05 -8.87587e-05 0.012434)
(-7.51859e-05 -0.000108294 0.0124536)
(-0.000105863 -0.000123669 0.0124934)
(-0.000112924 -0.000126214 0.0125537)
(-6.20696e-05 -0.000119547 0.0124712)
(-9.32352e-05 -0.0001374 0.0124992)
(-0.00011502 -0.00014859 0.0125468)
(-0.000113972 -0.000147392 0.012603)
(-8.17759e-05 -0.000139351 0.0125297)
(-0.000105512 -0.000154975 0.0125641)
(-0.000117092 -0.000162337 0.0126122)
(-0.000108352 -0.000158956 0.0126601)
(-0.000101942 -0.000135752 0.0125912)
(-0.000116188 -0.000147205 0.012633)
(-0.000118122 -0.000153858 0.0126838)
(-9.99942e-05 -0.000156577 0.0127264)
(-2.79056e-05 -5.3102e-05 0.0125047)
(-4.74408e-05 -6.50352e-05 0.0125181)
(-6.21014e-05 -7.43608e-05 0.0125418)
(-6.52596e-05 -7.87801e-05 0.0125736)
(-4.04802e-05 -7.22519e-05 0.0125287)
(-5.76454e-05 -8.28484e-05 0.0125467)
(-6.8191e-05 -8.97642e-05 0.012574)
(-6.7448e-05 -9.13355e-05 0.0126054)
(-5.17685e-05 -8.2618e-05 0.012562)
(-6.51728e-05 -9.15862e-05 0.0125838)
(-7.09208e-05 -9.62378e-05 0.0126125)
(-6.58745e-05 -9.58916e-05 0.0126419)
(-6.23848e-05 -8.04561e-05 0.012597)
(-7.1077e-05 -8.69126e-05 0.0126226)
(-7.21692e-05 -8.99957e-05 0.0126529)
(-6.22507e-05 -9.05271e-05 0.0126813)
(-1.91632e-05 -3.28676e-05 0.0125471)
(-2.9541e-05 -4.01129e-05 0.0125556)
(-3.66209e-05 -4.58782e-05 0.0125694)
(-3.79131e-05 -4.94009e-05 0.0125865)
(-2.65709e-05 -4.40869e-05 0.0125617)
(-3.56195e-05 -5.04416e-05 0.0125729)
(-4.06094e-05 -5.4752e-05 0.0125887)
(-3.97961e-05 -5.64299e-05 0.0126063)
(-3.31677e-05 -4.96891e-05 0.0125808)
(-4.02267e-05 -5.49089e-05 0.0125943)
(-4.27398e-05 -5.77633e-05 0.0126112)
(-3.94824e-05 -5.80287e-05 0.0126286)
(-3.89632e-05 -4.8346e-05 0.012601)
(-4.35793e-05 -5.19428e-05 0.0126165)
(-4.36333e-05 -5.34376e-05 0.0126343)
(-3.77572e-05 -5.33447e-05 0.0126515)
(-1.3083e-05 -2.08951e-05 0.0125707)
(-1.85287e-05 -2.53182e-05 0.012576)
(-2.19255e-05 -2.88802e-05 0.0125841)
(-2.23209e-05 -3.12528e-05 0.0125937)
(-1.75504e-05 -2.73514e-05 0.0125795)
(-2.22084e-05 -3.1173e-05 0.0125865)
(-2.44628e-05 -3.38371e-05 0.0125958)
(-2.36517e-05 -3.5078e-05 0.0126059)
(-2.14591e-05 -3.03974e-05 0.0125908)
(-2.50106e-05 -3.34554e-05 0.0125992)
(-2.59059e-05 -3.51806e-05 0.0126092)
(-2.36924e-05 -3.54735e-05 0.0126194)
(-2.47052e-05 -2.95117e-05 0.0126026)
(-2.69363e-05 -3.15073e-05 0.0126121)
(-2.64617e-05 -3.22502e-05 0.0126227)
(-2.27937e-05 -3.20308e-05 0.0126328)
(-8.93731e-06 -1.35884e-05 0.0125835)
(-1.17916e-05 -1.62893e-05 0.0125869)
(-1.33816e-05 -1.84731e-05 0.0125917)
(-1.33752e-05 -1.99652e-05 0.0125972)
(-1.16519e-05 -1.72916e-05 0.0125889)
(-1.40211e-05 -1.95875e-05 0.0125934)
(-1.49511e-05 -2.12114e-05 0.0125989)
(-1.42305e-05 -2.20181e-05 0.0126048)
(-1.39815e-05 -1.89337e-05 0.0125957)
(-1.57085e-05 -2.07249e-05 0.0126009)
(-1.58619e-05 -2.17492e-05 0.0126069)
(-1.43245e-05 -2.19477e-05 0.0126129)
(-1.58293e-05 -1.83147e-05 0.0126028)
(-1.6811e-05 -1.94103e-05 0.0126086)
(-1.61756e-05 -1.97702e-05 0.0126149)
(-1.38074e-05 -1.95554e-05 0.0126209)
(-6.133e-06 -9.01875e-06 0.0125904)
(-7.59166e-06 -1.06451e-05 0.0125926)
(-8.30574e-06 -1.19619e-05 0.0125956)
(-8.15389e-06 -1.28624e-05 0.0125988)
(-7.76657e-06 -1.11046e-05 0.0125938)
(-8.94481e-06 -1.24888e-05 0.0125966)
(-9.25601e-06 -1.3467e-05 0.0126)
(-8.66918e-06 -1.39556e-05 0.0126035)
(-9.14847e-06 -1.19758e-05 0.012598)
(-9.95275e-06 -1.30234e-05 0.0126013)
(-9.80521e-06 -1.36195e-05 0.0126049)
(-8.73409e-06 -1.37268e-05 0.0126085)
(-1.02058e-05 -1.15303e-05 0.0126023)
(-1.05763e-05 -1.21206e-05 0.012606)
(-9.96388e-06 -1.22786e-05 0.0126097)
(-8.40746e-06 -1.2099e-05 0.0126132)
(-4.2054e-06 -6.0558e-06 0.012594)
(-4.89705e-06 -7.01882e-06 0.0125955)
(-5.19952e-06 -7.79851e-06 0.0125973)
(-5.02583e-06 -8.32702e-06 0.0125993)
(-5.17259e-06 -7.18445e-06 0.0125962)
(-5.72682e-06 -8.02985e-06 0.0125981)
(-5.77123e-06 -8.61779e-06 0.0126002)
(-5.32577e-06 -8.9032e-06 0.0126023)
(-5.98423e-06 -7.64115e-06 0.0125988)
(-6.32975e-06 -8.25764e-06 0.012601)
(-6.09391e-06 -8.60085e-06 0.0126032)
(-5.35571e-06 -8.64743e-06 0.0126053)
(-6.58836e-06 -7.3221e-06 0.0126016)
(-6.68054e-06 -7.63454e-06 0.0126039)
(-6.16419e-06 -7.69139e-06 0.0126061)
(-5.13416e-06 -7.55126e-06 0.0126082)
(-2.82855e-06 -4.04152e-06 0.0125958)
(-3.11774e-06 -4.61231e-06 0.0125968)
(-3.23484e-06 -5.07204e-06 0.012598)
(-3.09229e-06 -5.37859e-06 0.0125993)
(-3.40159e-06 -4.62487e-06 0.0125973)
(-3.63683e-06 -5.15214e-06 0.0125985)
(-3.58441e-06 -5.51171e-06 0.0125999)
(-3.26858e-06 -5.67941e-06 0.0126012)
(-3.87865e-06 -4.86414e-06 0.012599)
(-4.00404e-06 -5.23546e-06 0.0126004)
(-3.7752e-06 -5.4359e-06 0.0126018)
(-3.27716e-06 -5.45063e-06 0.012603)
(-4.22649e-06 -4.64432e-06 0.0126008)
(-4.20552e-06 -4.81152e-06 0.0126022)
(-3.8009e-06 -4.82362e-06 0.0126036)
(-3.11987e-06 -4.71949e-06 0.0126047)
(-1.822e-06 -2.62074e-06 0.0125967)
(-1.92471e-06 -2.96713e-06 0.0125974)
(-1.96408e-06 -3.24135e-06 0.0125982)
(-1.86827e-06 -3.4204e-06 0.012599)
(-2.17057e-06 -2.91563e-06 0.0125977)
(-2.25452e-06 -3.24998e-06 0.0125986)
(-2.18384e-06 -3.47509e-06 0.0125994)
(-1.97624e-06 -3.57772e-06 0.0126002)
(-2.45623e-06 -3.04006e-06 0.0125989)
(-2.48369e-06 -3.27116e-06 0.0125998)
(-2.29968e-06 -3.39201e-06 0.0126006)
(-1.97609e-06 -3.39366e-06 0.0126014)
(-2.66015e-06 -2.89857e-06 0.0126)
(-2.60478e-06 -2.99272e-06 0.012601)
(-2.30621e-06 -2.98951e-06 0.0126018)
(-1.86438e-06 -2.91612e-06 0.0126024)
(-1.10934e-06 -1.60903e-06 0.0125972)
(-1.13978e-06 -1.82259e-06 0.0125976)
(-1.15068e-06 -1.98771e-06 0.0125981)
(-1.09602e-06 -2.09253e-06 0.0125987)
(-1.32523e-06 -1.76031e-06 0.0125979)
(-1.34661e-06 -1.96965e-06 0.0125984)
(-1.28924e-06 -2.10949e-06 0.012599)
(-1.16293e-06 -2.17319e-06 0.0125995)
(-1.49822e-06 -1.82314e-06 0.0125986)
(-1.48847e-06 -1.96725e-06 0.0125992)
(-1.35851e-06 -2.04016e-06 0.0125998)
(-1.1596e-06 -2.03732e-06 0.0126002)
(-1.61721e-06 -1.73963e-06 0.0125994)
(-1.56274e-06 -1.79392e-06 0.0126)
(-1.35837e-06 -1.7874e-06 0.0126005)
(-1.08351e-06 -1.73875e-06 0.0126008)
(-6.72846e-07 -9.03184e-07 0.0125973)
(-6.79014e-07 -1.02723e-06 0.0125977)
(-6.74111e-07 -1.12148e-06 0.012598)
(-6.40077e-07 -1.17945e-06 0.0125984)
(-7.98287e-07 -9.79897e-07 0.0125979)
(-7.98545e-07 -1.10021e-06 0.0125982)
(-7.54402e-07 -1.17911e-06 0.0125986)
(-6.77346e-07 -1.21449e-06 0.012599)
(-8.95443e-07 -1.00676e-06 0.0125984)
(-8.77662e-07 -1.08809e-06 0.0125988)
(-7.89912e-07 -1.12596e-06 0.0125992)
(-6.72198e-07 -1.11926e-06 0.0125994)
(-9.58326e-07 -9.61296e-07 0.012599)
(-9.17267e-07 -9.88776e-07 0.0125994)
(-7.84215e-07 -9.81082e-07 0.0125997)
(-6.24264e-07 -9.50331e-07 0.0125998)
(-5.30445e-07 -4.54871e-07 0.0125974)
(-5.29178e-07 -5.15106e-07 0.0125976)
(-5.06833e-07 -5.60602e-07 0.0125979)
(-4.63747e-07 -5.88143e-07 0.0125981)
(-5.89667e-07 -4.93517e-07 0.0125978)
(-5.82507e-07 -5.4593e-07 0.0125981)
(-5.41179e-07 -5.78569e-07 0.0125983)
(-4.7643e-07 -5.90246e-07 0.0125986)
(-6.31693e-07 -5.0043e-07 0.0125982)
(-6.136e-07 -5.31371e-07 0.0125985)
(-5.50634e-07 -5.41146e-07 0.0125988)
(-4.6582e-07 -5.28679e-07 0.0125989)
(-6.54248e-07 -4.73227e-07 0.0125987)
(-6.22961e-07 -4.77038e-07 0.012599)
(-5.36902e-07 -4.63297e-07 0.0125991)
(-4.33429e-07 -4.37061e-07 0.0125992)
(0.00165428 0.000397178 0.0154693)
(0.00143247 -0.00223662 0.0182798)
(0.00124196 -0.000400632 0.014714)
(0.000193555 -0.00046657 0.0156966)
(0.000611194 -0.000611792 0.0145516)
(0.000909981 -0.000709846 0.0102415)
(0.00151018 8.44358e-05 0.0144051)
(0.000703353 0.000351198 0.0152753)
(-0.000542139 -0.000297584 0.00975732)
(0.00157479 -0.000145453 0.0139086)
(0.00170517 0.00124072 0.0161769)
(0.00117891 0.00147452 0.0135654)
(-0.00110603 6.04231e-05 0.0139522)
(0.00168373 -0.000244737 0.0166974)
(0.00214131 -0.000175438 0.0211855)
(0.00146896 0.000776632 0.0145439)
(0.000648994 0.00167601 0.032712)
(0.00229165 0.0018942 0.0247515)
(0.00426101 0.000249253 0.036055)
(0.00113857 0.00121985 0.0201082)
(0.00155946 0.00200236 0.0290508)
(0.000928625 0.00423146 0.0347563)
(-8.86454e-05 6.99892e-05 0.0226047)
(0.000827783 -0.00109147 0.0250249)
(0.00295936 0.00236923 0.0308897)
(-0.000471257 -8.57778e-07 0.026919)
(-0.00197727 -0.00061288 0.0358539)
(0.00182308 0.00157692 0.0233666)
(0.00200973 0.00186641 0.0257255)
(-0.00202014 -0.000944991 0.0236075)
(0.000331637 -0.0011139 0.0227273)
(0.00236732 0.000816733 0.0415937)
(0.000555938 0.0001313 0.0239619)
(0.000656328 0.00202209 0.0226212)
(0.00141764 0.00190184 0.035702)
(0.00246815 -0.00111709 0.0698913)
(0.000547105 9.08867e-05 0.0349889)
(0.00175855 0.00105037 0.0226006)
(0.000530206 0.00276662 0.024618)
(0.000524863 0.000705335 0.0175121)
(-0.00143555 0.00139018 0.0217873)
(0.00418138 -2.28137e-05 0.049512)
(0.00137486 0.00201993 0.026932)
(-9.53692e-05 0.000994637 0.0199351)
(0.000513027 0.000506993 0.0432783)
(0.00121581 0.000152101 0.0258694)
(0.000588336 0.000334667 0.031895)
(-0.00164814 0.00011243 0.0439917)
(0.00241783 0.000250619 0.0348739)
(0.00133362 4.10356e-05 0.0283839)
(0.000376555 -3.17443e-05 0.0255091)
(-0.000468326 0.00308958 0.0291074)
(0.00088646 0.000138653 0.0116549)
(0.000723698 -0.000765355 0.047791)
(0.00122429 -8.3076e-05 0.0265912)
(0.000375846 0.00237755 0.0154287)
(0.000876898 -0.00149582 0.0199048)
(0.000630549 -0.000119435 0.0210009)
(0.00243544 0.000305751 0.0502676)
(0.000893414 0.00311245 0.0301034)
(0.000626481 -0.00218766 0.0228093)
(0.00239977 -0.000300464 0.0314123)
(0.00221754 -0.000792507 0.0370425)
(0.000753215 0.00269691 0.0296916)
(0.000728836 -0.00220063 0.0300275)
(9.57126e-05 -0.00135542 0.0200571)
(-1.96321e-05 0.00169778 0.045335)
(-0.00023011 0.00194197 0.0138317)
(8.54966e-05 0.000760612 0.0358466)
(0.000261921 -0.0011692 0.0168231)
(0.000814581 -0.00262485 0.0201339)
(-0.002891 0.000523299 0.0367615)
(0.003642 -0.001812 0.0321482)
(-0.00390376 -0.000222007 0.0462545)
(-0.00116257 -0.00403734 0.0308944)
(-0.000424157 -0.00114005 0.0135704)
(0.00059883 -0.00351234 0.0279852)
(0.000218918 -0.000857259 0.0278915)
(9.607e-05 -0.00108084 0.0302717)
(-0.000466701 -0.000123339 0.0686878)
(0.000811932 3.07922e-06 0.0226039)
(-0.000292515 0.00014737 0.0159813)
(-0.000602791 -0.000506813 0.0234119)
(5.41033e-05 -0.00208374 0.0130655)
(0.000471746 -0.000517468 0.00974475)
(6.14033e-05 -0.00303232 0.0217069)
(-0.00242027 -0.00295123 0.028001)
(-0.00276667 -0.00407458 0.0317763)
(0.00110548 -0.000123856 0.03536)
(-0.000445944 -0.00131284 0.0117447)
(-0.00151776 -0.00538398 0.0212449)
(-0.00107268 -0.00376281 0.0137052)
(0.00145947 -7.88774e-06 0.00895277)
(-0.0013656 0.000663637 0.0167707)
(-0.00259856 -0.00143594 0.0208792)
(-0.000943699 -0.00545928 0.024051)
(-0.000825564 -0.000231841 0.0226807)
(-0.00062612 -0.000181673 0.0150197)
(-1.37893e-05 -0.000212501 0.0198724)
(-0.000123201 -0.000538132 0.0142877)
(-0.000382827 -0.000408294 0.0151797)
(-0.000585662 -0.000254837 0.0206097)
(-0.000245181 -0.000217696 0.0325415)
(0.000761844 -0.000659111 0.0265812)
(0.000402034 -0.000153992 0.028726)
(0.000122628 -0.000289414 0.0161274)
(0.000367055 -0.000859145 0.0174764)
(-0.000327299 -0.000280115 0.0159674)
(-5.98482e-05 0.000636931 0.0170652)
(0.000567644 -0.00161382 0.0194438)
(0.000116868 -0.00108736 0.0126548)
(-0.0006026 -0.000145026 0.0282814)
(-0.000459688 0.000418087 0.0279353)
(-0.000216005 0.000424909 0.0248516)
(1.27587e-05 0.000544296 0.0290121)
(0.000213768 0.00073849 0.0254847)
(-0.000609426 -2.77814e-06 0.0256447)
(-0.000490599 0.000742457 0.0268606)
(0.000352701 0.000961551 0.033707)
(0.000812993 0.000776964 0.030061)
(-0.000363559 0.000169221 0.0359032)
(0.000787245 0.000658573 0.0257235)
(0.000781315 0.00143278 0.027528)
(0.000351309 0.000831532 0.0290165)
(-0.000563428 0.000646116 0.0257286)
(0.000629735 -5.98139e-05 0.0271322)
(0.000377275 0.000406995 0.0233305)
(-0.000228542 0.000339571 0.0373291)
(-0.000717178 -0.000441824 0.0083948)
(-0.000586669 -0.000363045 0.00829642)
(-0.000566694 -0.000641387 0.00931332)
(-5.82811e-05 -0.00134961 0.00875999)
(-0.000812514 -0.00070418 0.00817935)
(-0.00070873 -6.29106e-05 0.00862561)
(-0.000591114 9.19322e-05 0.0102334)
(-1.58902e-05 -0.00115864 0.00953908)
(-0.000679277 7.91361e-05 0.00971351)
(6.33452e-05 0.000137783 0.00809545)
(-0.000549618 0.000892103 0.00896871)
(-0.000387396 -0.000828934 0.00976066)
(-0.00113752 0.000680476 0.00757036)
(-0.000238204 0.000109169 0.00782695)
(-0.000944371 0.00080062 0.00795408)
(-0.000458738 -0.00028985 0.0109223)
(-0.000517741 -0.000471779 0.01402)
(-0.000383339 -0.000430526 0.0141045)
(-0.000285046 -0.000522159 0.0146059)
(-6.40607e-05 -0.000724725 0.0146298)
(-0.000590705 -0.00048821 0.0141688)
(-0.000392418 -0.000261121 0.014326)
(-0.000308292 -0.000246535 0.0150222)
(-7.86064e-05 -0.000708585 0.0150976)
(-0.000566538 -5.83605e-05 0.0146924)
(-0.000147259 -4.78552e-05 0.0142647)
(-0.000331594 0.000146866 0.0148312)
(-0.000163464 -0.000541367 0.0154916)
(-0.000751587 0.000238739 0.0139172)
(-0.000257985 6.70234e-05 0.0141381)
(-0.000471081 0.000286521 0.0145621)
(-0.000110227 -0.000214248 0.0159737)
(-0.000335834 -0.000290706 0.0126223)
(-0.000325598 -0.000292469 0.0127036)
(-0.000322324 -0.000332259 0.012885)
(-0.000205384 -0.000437207 0.012902)
(-0.000385281 -0.000221114 0.0127641)
(-0.000331859 -0.000159059 0.0128381)
(-0.000334771 -0.000164432 0.013067)
(-0.000179307 -0.000360301 0.0130885)
(-0.000394675 -1.84637e-05 0.0129574)
(-0.000266199 -7.67249e-06 0.0128675)
(-0.000334879 3.83633e-05 0.0130824)
(-0.000155616 -0.00023767 0.0132768)
(-0.000460612 9.3678e-05 0.0127227)
(-0.000299823 7.97401e-05 0.012825)
(-0.00036393 0.000164336 0.0130309)
(-9.31074e-05 -6.75437e-05 0.0134526)
(-0.000199113 -0.000189295 0.0126838)
(-0.000199253 -0.000195964 0.0127574)
(-0.000192382 -0.00020883 0.0128689)
(-0.000136682 -0.000239029 0.0129457)
(-0.000224292 -0.000133232 0.0127544)
(-0.000201198 -0.000120935 0.0128286)
(-0.000191427 -0.000130101 0.0129613)
(-0.000114408 -0.00019721 0.0130431)
(-0.000235086 -3.66176e-05 0.0128093)
(-0.000183848 -3.09097e-05 0.0128503)
(-0.000184906 -2.88108e-05 0.0129953)
(-8.63405e-05 -0.000129858 0.0131278)
(-0.000258519 2.5211e-05 0.0127333)
(-0.000189394 3.65794e-05 0.0128298)
(-0.000180672 5.89795e-05 0.0129911)
(-4.1798e-05 -3.90603e-05 0.0131926)
(-0.000118231 -0.000112669 0.0126485)
(-0.000123521 -0.000117912 0.0126925)
(-0.000120903 -0.000122222 0.0127458)
(-9.09398e-05 -0.00013279 0.0127878)
(-0.000131107 -7.76503e-05 0.0126919)
(-0.000124293 -7.54399e-05 0.012738)
(-0.000116496 -7.9325e-05 0.0127972)
(-7.3894e-05 -0.000104638 0.0128359)
(-0.000137652 -2.95128e-05 0.012719)
(-0.000117717 -2.49314e-05 0.0127608)
(-0.000107709 -2.59602e-05 0.0128272)
(-5.26997e-05 -6.55349e-05 0.0128776)
(-0.000145549 6.00285e-06 0.0127039)
(-0.000115053 1.79804e-05 0.0127612)
(-9.75019e-05 2.58401e-05 0.0128378)
(-2.55474e-05 -1.72999e-05 0.0129071)
(-7.10443e-05 -6.71506e-05 0.0126296)
(-7.48814e-05 -7.05505e-05 0.0126574)
(-7.23305e-05 -7.19833e-05 0.0126882)
(-5.53783e-05 -7.47808e-05 0.0127147)
(-7.73963e-05 -4.66348e-05 0.0126547)
(-7.49086e-05 -4.65674e-05 0.0126847)
(-6.80146e-05 -4.8118e-05 0.0127174)
(-4.41873e-05 -5.74697e-05 0.0127406)
(-8.06166e-05 -2.09644e-05 0.0126696)
(-7.13994e-05 -1.79392e-05 0.0127005)
(-6.08815e-05 -1.89321e-05 0.0127365)
(-3.06679e-05 -3.50774e-05 0.0127618)
(-8.31265e-05 5.95782e-07 0.0126691)
(-6.80788e-05 8.78077e-06 0.012705)
(-5.23594e-05 1.13672e-05 0.0127456)
(-1.47632e-05 -8.5651e-06 0.0127762)
(-4.35163e-05 -4.07057e-05 0.0126198)
(-4.5489e-05 -4.26547e-05 0.0126369)
(-4.31254e-05 -4.30634e-05 0.0126547)
(-3.31049e-05 -4.35785e-05 0.0126701)
(-4.6573e-05 -2.87997e-05 0.0126344)
(-4.51453e-05 -2.88902e-05 0.0126533)
(-3.97823e-05 -2.93422e-05 0.0126715)
(-2.60459e-05 -3.29992e-05 0.0126843)
(-4.79385e-05 -1.43116e-05 0.0126435)
(-4.28947e-05 -1.23214e-05 0.0126636)
(-3.4726e-05 -1.27629e-05 0.0126833)
(-1.77232e-05 -1.99146e-05 0.0126958)
(-4.86097e-05 -7.99328e-07 0.0126459)
(-4.02121e-05 4.29763e-06 0.012668)
(-2.87699e-05 5.16677e-06 0.0126896)
(-8.39752e-06 -4.75104e-06 0.0127032)
(-2.71074e-05 -2.50519e-05 0.0126137)
(-2.78648e-05 -2.61095e-05 0.0126242)
(-2.5884e-05 -2.61738e-05 0.0126345)
(-1.97712e-05 -2.60777e-05 0.0126434)
(-2.85522e-05 -1.8035e-05 0.0126225)
(-2.74147e-05 -1.80052e-05 0.0126341)
(-2.35196e-05 -1.80369e-05 0.0126445)
(-1.53744e-05 -1.95653e-05 0.0126515)
(-2.90438e-05 -9.50446e-06 0.0126283)
(-2.58833e-05 -8.18505e-06 0.0126408)
(-2.01379e-05 -8.31906e-06 0.0126516)
(-1.02956e-05 -1.17622e-05 0.0126579)
(-2.91212e-05 -9.43388e-07 0.0126307)
(-2.39826e-05 2.17056e-06 0.0126441)
(-1.62468e-05 2.45372e-06 0.0126557)
(-4.79058e-06 -2.81993e-06 0.012662)
(-1.71038e-05 -1.56438e-05 0.0126094)
(-1.72349e-05 -1.61961e-05 0.0126159)
(-1.56845e-05 -1.61542e-05 0.012622)
(-1.18727e-05 -1.59378e-05 0.012627)
(-1.77714e-05 -1.14067e-05 0.0126149)
(-1.6809e-05 -1.12949e-05 0.012622)
(-1.40779e-05 -1.12026e-05 0.0126279)
(-9.1363e-06 -1.18877e-05 0.0126317)
(-1.78937e-05 -6.22422e-06 0.0126186)
(-1.57616e-05 -5.34567e-06 0.0126262)
(-1.18803e-05 -5.36226e-06 0.0126323)
(-6.03466e-06 -7.1557e-06 0.0126354)
(-1.78084e-05 -7.67348e-07 0.0126204)
(-1.44919e-05 1.14208e-06 0.0126285)
(-9.41506e-06 1.21843e-06 0.0126348)
(-2.75445e-06 -1.75008e-06 0.0126378)
(-1.08835e-05 -9.8964e-06 0.0126064)
(-1.07467e-05 -1.01743e-05 0.0126104)
(-9.58492e-06 -1.01092e-05 0.012614)
(-7.17761e-06 -9.90714e-06 0.0126168)
(-1.11801e-05 -7.28305e-06 0.0126098)
(-1.03944e-05 -7.14789e-06 0.0126141)
(-8.5163e-06 -7.03934e-06 0.0126176)
(-5.46982e-06 -7.36718e-06 0.0126196)
(-1.11649e-05 -4.06251e-06 0.0126122)
(-9.6859e-06 -3.48089e-06 0.0126168)
(-7.10973e-06 -3.46338e-06 0.0126202)
(-3.56952e-06 -4.45852e-06 0.0126218)
(-1.10612e-05 -5.60711e-07 0.0126135)
(-8.86401e-06 6.18521e-07 0.0126183)
(-5.56811e-06 6.21676e-07 0.0126218)
(-1.59665e-06 -1.12165e-06 0.0126232)
(-6.94806e-06 -6.3132e-06 0.0126041)
(-6.73234e-06 -6.45032e-06 0.0126066)
(-5.88761e-06 -6.39416e-06 0.0126087)
(-4.36025e-06 -6.23782e-06 0.0126103)
(-7.07295e-06 -4.68069e-06 0.0126063)
(-6.46423e-06 -4.55737e-06 0.012609)
(-5.18916e-06 -4.46901e-06 0.0126109)
(-3.29469e-06 -4.63705e-06 0.012612)
(-7.01991e-06 -2.65255e-06 0.0126079)
(-5.99338e-06 -2.2723e-06 0.0126107)
(-4.29927e-06 -2.25318e-06 0.0126126)
(-2.12915e-06 -2.83105e-06 0.0126133)
(-6.93971e-06 -3.93408e-07 0.0126088)
(-5.47218e-06 3.38676e-07 0.0126117)
(-3.34129e-06 3.17753e-07 0.0126136)
(-9.33657e-07 -7.3524e-07 0.0126141)
(-4.41802e-06 -4.0254e-06 0.0126024)
(-4.21002e-06 -4.09705e-06 0.012604)
(-3.60852e-06 -4.06222e-06 0.0126052)
(-2.64527e-06 -3.95564e-06 0.0126061)
(-4.46667e-06 -3.00597e-06 0.0126039)
(-4.02023e-06 -2.91021e-06 0.0126055)
(-3.1641e-06 -2.85242e-06 0.0126066)
(-1.98884e-06 -2.95006e-06 0.0126071)
(-4.41382e-06 -1.72908e-06 0.0126049)
(-3.71524e-06 -1.48489e-06 0.0126066)
(-2.6113e-06 -1.4756e-06 0.0126077)
(-1.27925e-06 -1.82408e-06 0.0126079)
(-4.3601e-06 -2.71676e-07 0.0126055)
(-3.39106e-06 1.83259e-07 0.0126073)
(-2.02114e-06 1.56645e-07 0.0126083)
(-5.5184e-07 -4.90153e-07 0.0126084)
(-2.76406e-06 -2.53176e-06 0.0126012)
(-2.59654e-06 -2.57599e-06 0.0126021)
(-2.17984e-06 -2.56221e-06 0.0126028)
(-1.58603e-06 -2.49553e-06 0.0126032)
(-2.78159e-06 -1.90758e-06 0.0126021)
(-2.47245e-06 -1.84452e-06 0.0126031)
(-1.90784e-06 -1.81419e-06 0.0126037)
(-1.19332e-06 -1.875e-06 0.0126038)
(-2.74224e-06 -1.11774e-06 0.0126029)
(-2.28356e-06 -9.69096e-07 0.0126039)
(-1.5742e-06 -9.70486e-07 0.0126044)
(-7.69773e-07 -1.1799e-06 0.0126043)
(-2.7106e-06 -1.86604e-07 0.0126033)
(-2.08716e-06 9.16942e-08 0.0126044)
(-1.21421e-06 6.4515e-08 0.0126049)
(-3.28058e-07 -3.28934e-07 0.0126047)
(-1.67337e-06 -1.53679e-06 0.0126002)
(-1.55357e-06 -1.56651e-06 0.0126008)
(-1.28012e-06 -1.56471e-06 0.0126012)
(-9.29755e-07 -1.52484e-06 0.0126013)
(-1.6798e-06 -1.17141e-06 0.0126009)
(-1.47849e-06 -1.13514e-06 0.0126015)
(-1.12221e-06 -1.1226e-06 0.0126018)
(-7.05413e-07 -1.15908e-06 0.0126017)
(-1.65576e-06 -7.01272e-07 0.0126015)
(-1.36871e-06 -6.16791e-07 0.0126021)
(-9.30141e-07 -6.24724e-07 0.0126023)
(-4.61981e-07 -7.45164e-07 0.0126021)
(-1.6405e-06 -1.24276e-07 0.0126018)
(-1.25498e-06 4.03336e-08 0.0126024)
(-7.1572e-07 1.67127e-08 0.0126026)
(-1.97497e-07 -2.14136e-07 0.0126023)
(-9.84563e-07 -8.59584e-07 0.0125996)
(-9.08311e-07 -8.73225e-07 0.0126)
(-7.38562e-07 -8.72292e-07 0.0126001)
(-5.42017e-07 -8.49255e-07 0.0126001)
(-9.83008e-07 -6.64593e-07 0.0126001)
(-8.62431e-07 -6.40408e-07 0.0126005)
(-6.51111e-07 -6.32926e-07 0.0126006)
(-4.22039e-07 -6.50922e-07 0.0126004)
(-9.67875e-07 -4.04074e-07 0.0126006)
(-8.01246e-07 -3.55766e-07 0.012601)
(-5.46761e-07 -3.62002e-07 0.012601)
(-2.90087e-07 -4.25118e-07 0.0126006)
(-9.59857e-07 -7.19846e-08 0.0126008)
(-7.38439e-07 2.32567e-08 0.0126012)
(-4.24432e-07 8.84225e-09 0.0126013)
(-1.35907e-07 -1.15834e-07 0.0126008)
(-6.58078e-07 -4.20562e-07 0.0125992)
(-6.07503e-07 -4.14038e-07 0.0125994)
(-5.02493e-07 -3.99901e-07 0.0125995)
(-3.83651e-07 -3.73215e-07 0.0125994)
(-6.47551e-07 -3.23897e-07 0.0125996)
(-5.72336e-07 -2.97691e-07 0.0125999)
(-4.44608e-07 -2.81062e-07 0.0125998)
(-3.10592e-07 -2.76209e-07 0.0125996)
(-6.32397e-07 -1.92466e-07 0.0126)
(-5.31783e-07 -1.51915e-07 0.0126003)
(-3.79949e-07 -1.43694e-07 0.0126002)
(-2.32119e-07 -1.65422e-07 0.0125998)
(-6.22605e-07 -2.4528e-08 0.0126002)
(-4.91739e-07 4.21873e-08 0.0126005)
(-3.07466e-07 4.58232e-08 0.0126004)
(-1.40716e-07 -9.18544e-09 0.0125999)
(0.00279781 0.00094318 0.00906263)
(0.00340434 0.000645984 0.017854)
(-0.000813006 -0.000275094 0.00838778)
(-0.00161738 -0.000166735 0.0105549)
(0.0014149 0.00127402 0.0147384)
(0.00191783 0.000338731 0.00979708)
(0.00231078 0.000864549 0.0153816)
(0.000886869 0.000963908 0.0177775)
(0.0029417 0.000428431 0.0227764)
(0.00186823 0.00105279 0.0128108)
(-0.000586121 -0.000727528 0.0203974)
(-0.00122974 -0.000242828 0.00959341)
(0.00108466 -0.000148461 0.00843841)
(0.00198041 -0.000891698 0.0211007)
(0.00111789 9.90087e-05 0.00846695)
(0.000650656 0.00209165 0.0177854)
(-0.00191806 0.00073457 0.0209526)
(0.000505992 6.42693e-05 0.0321052)
(0.00385729 0.00387797 0.0480552)