FoamFile
{version 2.0; format ascii;class Cloud<passiveParticle>; location 0;object  positions;}
1000
(
( 0.0295805 0.0356549 0.0876284 ) 0 
( 0.0321289 0.0811182 0.099292 ) 0 
( 0.040633 0.0923146 0.0989492 ) 0 
( 0.0932102 0.00891599 0.0886948 ) 0 
( 0.00761572 0.00384238 0.099464 ) 0 
( 0.0948333 0.0400709 0.0990229 ) 0 
( 0.019291 0.0613584 0.0887283 ) 0 
( 0.0205492 0.0942624 0.0991786 ) 0 
( 0.0235173 0.0972807 0.0995002 ) 0 
( 0.0657758 0.0170124 0.0931504 ) 0 
( 0.00229696 0.0301625 0.094911 ) 0 
( 0.0213131 0.0184875 0.0906173 ) 0 
( 0.0506518 0.0566122 0.0995002 ) 0 
( 0.0183349 0.067376 0.0995002 ) 0 
( 0.0755561 0.0747268 0.0954557 ) 0 
( 0.0586402 0.0159153 0.0995002 ) 0 
( 0.0186411 0.0262128 0.0993757 ) 0 
( 0.021048 0.0696307 0.0995002 ) 0 
( 0.00620442 0.0542022 0.0990127 ) 0 
( 0.0160462 0.0794046 0.0887079 ) 0 
( 0.0839042 0.0102897 0.0892166 ) 0 
( 0.0624504 0.0128779 0.0941055 ) 0 
( 0.0997291 0.0953376 0.0892106 ) 0 
( 0.0804417 0.0519928 0.0975757 ) 0 
( 0.0303424 0.00346851 0.0995002 ) 0 
( 0.0838277 0.0728465 0.0969526 ) 0 
( 0.027926 0.0758815 0.0995002 ) 0 
( 0.0899097 0.0353173 0.099001 ) 0 
( 0.104284 0.00195719 0.0991837 ) 0 
( 0.0881089 0.0320387 0.0989819 ) 0 
( 0.0649201 0.00457067 0.0891041 ) 0 
( 0.0651282 0.0231672 0.0884366 ) 0 
( 0.0143865 0.0708521 0.099445 ) 0 
( 0.0721195 0.0582477 0.0990087 ) 0 
( 0.0733785 0.0865586 0.088783 ) 0 
( 0.0116142 0.00131146 0.0935163 ) 0 
( 0.0655037 0.0987042 0.0890287 ) 0 
( 0.0414181 0.0788835 0.0898191 ) 0 
( 0.0845497 0.0536987 0.0890844 ) 0 
( 0.0940363 0.0715923 0.0949099 ) 0 
( 0.0909787 0.024453 0.0994745 ) 0 
( 0.0272108 0.062478 0.0991634 ) 0 
( 0.049318 0.0562249 0.0994681 ) 0 
( 0.0756388 0.0866016 0.0898214 ) 0 
( 0.0755761 0.0497538 0.0903442 ) 0 
( 0.0357838 0.0489006 0.0994802 ) 0 
( 0.0624536 0.000945064 0.0994637 ) 0 
( 0.0234051 0.0852622 0.0885949 ) 0 
( 0.0768233 0.022611 0.0887208 ) 0 
( 0.0233796 0.0534709 0.0946704 ) 0 
( 0.0250382 0.034115 0.0896141 ) 0 
( 0.0227165 0.0199197 0.0995002 ) 0 
( 0.0228676 0.00471925 0.0922654 ) 0 
( 0.00766627 0.0793301 0.0995002 ) 0 
( 0.0733885 0.0970291 0.099383 ) 0 
( 0.0325452 0.0540713 0.0979344 ) 0 
( 0.0716716 0.0449744 0.099469 ) 0 
( 0.0523236 0.0320795 0.0880796 ) 0 
( 0.0828153 0.0317781 0.0922264 ) 0 
( 0.0127658 0.0786346 0.0922542 ) 0 
( 0.0323974 0.0248054 0.0902944 ) 0 
( 0.0788712 0.0286292 0.0989572 ) 0 
( 0.0243368 0.0461463 0.0881145 ) 0 
( 0.0430459 0.0643916 0.0942692 ) 0 
( 0.0892869 0.0451144 0.092022 ) 0 
( 0.0894407 0.0886984 0.0995002 ) 0 
( 0.0109221 0.083423 0.0995002 ) 0 
( 0.0546764 0.0414808 0.0990525 ) 0 
( 0.00738118 0.0278062 0.0973391 ) 0 
( 0.0536034 0.0805284 0.0890464 ) 0 
( 0.0152609 0.0255728 0.0884878 ) 0 
( 0.090473 0.0775492 0.099306 ) 0 
( 0.0423361 0.0189728 0.0968957 ) 0 
( 0.0347518 0.0600158 0.0995001 ) 0 
( 0.0825396 0.0895713 0.0885547 ) 0 
( 0.0274983 0.0218882 0.0993619 ) 0 
( 0.0685885 0.00117524 0.0958548 ) 0 
( 0.0946145 0.0827872 0.094714 ) 0 
( 0.086767 0.0705481 0.0926273 ) 0 
( 0.0875346 0.0798757 0.0994395 ) 0 
( 0.0232348 0.00148611 0.0994964 ) 0 
( 0.058043 0.0559399 0.0870062 ) 0 
( 0.0915121 0.0527231 0.0885216 ) 0 
( 0.0376986 0.0992342 0.0901931 ) 0 
( 0.041648 0.020711 0.0994694 ) 0 
( 0.0192719 0.0196152 0.0994911 ) 0 
( 0.0203482 0.0560354 0.0994662 ) 0 
( 0.0472774 0.0405479 0.0995002 ) 0 
( 0.0440527 0.0816004 0.0886861 ) 0 
( 0.0496279 0.0592274 0.0893913 ) 0 
( 0.0747426 0.0694392 0.0993172 ) 0 
( 0.0724066 0.0854048 0.0995002 ) 0 
( 0.00322084 0.0174331 0.0995002 ) 0 
( 0.0581281 0.0520211 0.0907131 ) 0 
( 0.0876189 0.0623907 0.0995002 ) 0 
( 0.088377 0.0498097 0.091813 ) 0 
( 0.0927214 0.0659857 0.0894001 ) 0 
( 0.00885285 0.017354 0.0995002 ) 0 
( 0.0960796 0.0336573 0.0990641 ) 0 
( 0.0808073 0.0722763 0.0870462 ) 0 
( 0.0649536 0.0725492 0.0888885 ) 0 
( 0.050572 0.0111319 0.0995002 ) 0 
( 0.0715369 0.0878367 0.09922 ) 0 
( 0.0660158 0.0781396 0.0995002 ) 0 
( 0.0264626 0.0553879 0.095366 ) 0 
( 0.0897632 0.0307874 0.0981033 ) 0 
( 0.0617044 0.0158205 0.0995002 ) 0 
( 0.0342009 0.0914561 0.0995002 ) 0 
( 0.0913114 0.0446801 0.0886985 ) 0 
( 0.0891318 0.0117595 0.0961263 ) 0 
( 0.0367667 0.015314 0.099469 ) 0 
( 0.00715191 0.0236697 0.0886585 ) 0 
( 0.0846463 0.0583752 0.0893749 ) 0 
( 0.00471048 0.0637993 0.0887954 ) 0 
( 0.0223087 0.00322518 0.0878534 ) 0 
( 0.0627983 0.0399861 0.0886103 ) 0 
( 0.0246443 0.0643673 0.0995002 ) 0 
( 0.0658869 0.00683381 0.0920704 ) 0 
( 0.0711404 0.0626783 0.0879984 ) 0 
( 0.0481169 0.0859407 0.0897225 ) 0 
( 0.0301768 0.0754887 0.098956 ) 0 
( 0.0172107 0.0635237 0.0886742 ) 0 
( 0.0800106 0.080999 0.0927017 ) 0 
( 0.0936823 0.025798 0.0992667 ) 0 
( 0.0252844 0.096529 0.0925165 ) 0 
( 0.0762161 0.0246678 0.0921429 ) 0 
( 0.0262464 0.0631958 0.0897515 ) 0 
( 0.0237338 0.00753375 0.0898501 ) 0 
( 0.0343045 0.00325024 0.0923893 ) 0 
( 0.0591658 0.0431881 0.099388 ) 0 
( 0.0140443 0.0322243 0.0920396 ) 0 
( 0.0979777 0.0194962 0.0886778 ) 0 
( 0.0714598 0.00717176 0.0926258 ) 0 
( 0.0799747 0.00201093 0.0885247 ) 0 
( 0.0937895 0.0840038 0.0891302 ) 0 
( 0.0383425 0.0481379 0.0887903 ) 0 
( 0.0935556 0.0299459 0.0995002 ) 0 
( 0.0402765 0.0747777 0.0995002 ) 0 
( 0.0438361 0.0934021 0.0874013 ) 0 
( 0.0662176 0.045391 0.0906672 ) 0 
( 0.0376984 0.0736046 0.091053 ) 0 
( 0.02792 0.0729571 0.0877196 ) 0 
( 0.0443987 0.0697483 0.0992925 ) 0 
( 0.0897871 0.0827393 0.0995002 ) 0 
( 0.0772916 0.0879347 0.0900171 ) 0 
( 0.0400459 0.0213968 0.0891074 ) 0 
( 0.064951 0.0326559 0.087313 ) 0 
( 0.0491606 0.052409 0.0900682 ) 0 
( 0.0302929 0.0930164 0.0923113 ) 0 
( 0.0608106 0.088171 0.0995002 ) 0 
( 0.07987 0.0258044 0.0995002 ) 0 
( 0.0104337 0.0748324 0.0920496 ) 0 
( 0.0712119 0.0928954 0.0896837 ) 0 
( 0.095647 0.079561 0.0990613 ) 0 
( 0.0632199 0.0115256 0.0888377 ) 0 
( 0.092755 0.000901793 0.0976297 ) 0 
( 0.0241061 0.0332833 0.0917176 ) 0 
( 0.0795036 0.0613428 0.0995002 ) 0 
( 0.0535633 0.0862945 0.0907345 ) 0 
( 0.0943615 0.0511406 0.0926356 ) 0 
( 0.0552341 0.0162705 0.0913313 ) 0 
( 0.0359068 0.097992 0.0964528 ) 0 
( 0.0567457 0.0710808 0.0893238 ) 0 
( 0.0948031 0.0900214 0.0995002 ) 0 
( 0.0273163 0.0834276 0.0924593 ) 0 
( 0.0693116 0.0407665 0.0995007 ) 0 
( 0.0490539 0.0846712 0.0994925 ) 0 
( 0.019112 0.0591472 0.0991816 ) 0 
( 0.0293716 0.0586094 0.0888613 ) 0 
( 0.0847168 0.0441394 0.0968521 ) 0 
( 0.0383718 0.00108556 0.0995002 ) 0 
( 0.0968589 0.0442071 0.0995002 ) 0 
( 0.0222082 0.0718565 0.0995002 ) 0 
( 0.0910621 0.0223169 0.0994647 ) 0 
( 0.0164781 0.033214 0.0962571 ) 0 
( 0.0401107 0.071605 0.0991745 ) 0 
( 0.0671592 0.0173985 0.0926532 ) 0 
( 0.07421 0.0546801 0.0913524 ) 0 
( 0.0924796 0.0355839 0.0917874 ) 0 
( 0.0411412 0.0836119 0.0995002 ) 0 
( 0.0845258 0.0160251 0.0898911 ) 0 
( 0.0731236 0.0678456 0.0995001 ) 0 
( 0.0259861 0.0923655 0.0995002 ) 0 
( 0.0265072 0.0824884 0.0899902 ) 0 
( 0.0215407 0.0329784 0.0883216 ) 0 
( 0.0740826 0.0630084 0.0906562 ) 0 
( 0.0887127 0.00988049 0.0989655 ) 0 
( 0.0400012 0.0432771 0.0889479 ) 0 
( 0.0703617 0.0357796 0.0885071 ) 0 
( 0.000555143 0.0637642 0.0991163 ) 0 
( 0.0561215 0.0700984 0.0887126 ) 0 
( 0.0393455 0.0191443 0.0933123 ) 0 
( 0.0966269 0.0613031 0.0887645 ) 0 
( 0.0291742 0.0427313 0.0897092 ) 0 
( 0.0522112 0.0835105 0.0992373 ) 0 
( 0.0411382 0.0498417 0.0995002 ) 0 
( 0.0261955 0.0869217 0.0888771 ) 0 
( 0.0109843 0.0297876 0.0978761 ) 0 
( 0.0868937 0.0650328 0.0916728 ) 0 
( 0.0884297 0.0883099 0.0995002 ) 0 
( 0.0641435 0.0138864 0.0995002 ) 0 
( 0.0451663 0.0548688 0.0995002 ) 0 
( 0.0540266 0.0462078 0.0887607 ) 0 
( 0.0442011 0.0337904 0.0990981 ) 0 
( 0.0858677 0.0593579 0.0947104 ) 0 
( 0.058124 0.0846064 0.0990235 ) 0 
( 0.0697576 0.0476352 0.0905707 ) 0 
( 0.0758173 0.00182374 0.0979186 ) 0 
( 0.0838883 0.0200717 0.0916138 ) 0 
( 0.00147184 0.0590171 0.0995002 ) 0 
( 0.0628437 0.0900493 0.0889421 ) 0 
( 0.0852841 0.0215623 0.0948105 ) 0 
( 0.0720566 0.0400196 0.0900288 ) 0 
( 0.0144719 0.068559 0.0989855 ) 0 
( 0.0284477 0.0753793 0.0949004 ) 0 
( 0.0185415 0.0305743 0.0990445 ) 0 
( 0.0139776 0.0698866 0.0994921 ) 0 
( 0.00968764 0.0497345 0.09601 ) 0 
( 0.0384442 0.0298803 0.0895916 ) 0 
( 0.0231043 0.012403 0.0994234 ) 0 
( 0.0967784 0.0877729 0.0995002 ) 0 
( 0.00582943 0.0114573 0.0994579 ) 0 
( 0.0834321 0.0423181 0.0898416 ) 0 
( 0.0488296 0.0927257 0.0938813 ) 0 
( 0.0235537 0.0635721 0.0989873 ) 0 
( 0.0149539 0.0516625 0.0995002 ) 0 
( 0.0562799 0.0261549 0.0884525 ) 0 
( 0.0346614 0.0048442 0.0870201 ) 0 
( 0.0749373 0.0032451 0.0943563 ) 0 
( 0.00676422 0.0625558 0.0894967 ) 0 
( 0.105902 0.0969868 0.097622 ) 0 
( 0.0508436 0.0386742 0.0995002 ) 0 
( 0.0153663 0.0597236 0.0991241 ) 0 
( 0.0850898 0.0324573 0.0921651 ) 0 
( 0.0862485 0.0252568 0.0995002 ) 0 
( 0.0722304 0.0174149 0.0930477 ) 0 
( 0.0771151 0.0365508 0.0908057 ) 0 
( 0.00773438 0.032469 0.089591 ) 0 
( 0.0432839 0.00255654 0.0967705 ) 0 
( 0.00288203 0.0565693 0.096521 ) 0 
( 0.0943958 0.0052161 0.0990768 ) 0 
( 0.0321657 0.0378165 0.0994978 ) 0 
( 0.0824079 0.0865044 0.0974592 ) 0 
( 0.0152024 0.055391 0.0896254 ) 0 
( 0.395906 0.00233849 0.0995002 ) 0 
( 0.0951495 0.0036882 0.0883059 ) 0 
( 0.0755613 0.0572071 0.090026 ) 0 
( 0.0236395 0.0159101 0.0923738 ) 0 
( 0.0369063 0.0319708 0.0937789 ) 0 
( 0.0748925 0.05517 0.0967884 ) 0 
( 0.0719208 0.033651 0.0930402 ) 0 
( 0.155953 0.0375555 0.0995002 ) 0 
( 0.185458 0.038644 0.0995002 ) 0 
( 0.120352 0.055468 0.0887264 ) 0 
( 0.166124 0.080629 0.088009 ) 0 
( 0.111513 0.0136174 0.0987258 ) 0 
( 0.150207 0.0521306 0.0905727 ) 0 
( 0.195387 0.0605185 0.0925217 ) 0 
( 0.132474 0.0216142 0.0990577 ) 0 
( 0.139763 0.0414618 0.0887128 ) 0 
( 0.131688 0.0589837 0.0920127 ) 0 
( 0.151202 0.0707898 0.0936742 ) 0 
( 0.138712 0.0992959 0.0974506 ) 0 
( 0.122694 0.094804 0.0992911 ) 0 
( 0.195278 0.0658764 0.0995002 ) 0 
( 0.137046 0.0704704 0.0995002 ) 0 
( 0.120217 0.0953334 0.0985098 ) 0 
( 0.13912 0.033621 0.0990333 ) 0 
( 0.188207 0.0850788 0.0886791 ) 0 
( 0.152649 0.0633163 0.0973137 ) 0 
( 0.166948 0.0213399 0.0896641 ) 0 
( 0.122461 0.0338678 0.0897483 ) 0 
( 0.145021 0.0548615 0.0969377 ) 0 
( 0.16764 0.00330588 0.094437 ) 0 
( 0.106192 0.0173464 0.0995002 ) 0 
( 0.115142 0.0875454 0.0883937 ) 0 
( 0.137043 0.0205431 0.0989602 ) 0 
( 0.158618 0.048631 0.0879393 ) 0 
( 0.148562 0.0598597 0.0993729 ) 0 
( 0.192635 0.0445249 0.0898244 ) 0 
( 0.190363 0.0636529 0.0919273 ) 0 
( 0.127157 0.0642219 0.0990999 ) 0 
( 0.18493 0.0587688 0.0913902 ) 0 
( 0.151186 0.0301636 0.0888155 ) 0 
( 0.121529 0.0485397 0.0872879 ) 0 
( 0.109379 0.0801386 0.0898813 ) 0 
( 0.104864 0.0676857 0.0995002 ) 0 
( 0.178685 0.0824343 0.0869806 ) 0 
( 0.11735 0.0894258 0.0901546 ) 0 
( 0.142808 0.0563295 0.088759 ) 0 
( 0.128587 0.0276659 0.0995003 ) 0 
( 0.10465 0.0762104 0.0990013 ) 0 
( 0.179524 0.0553424 0.0922554 ) 0 
( 0.164902 0.0984541 0.097027 ) 0 
( 0.141149 0.0452434 0.0935075 ) 0 
( 0.190054 0.0796246 0.09896 ) 0 
( 0.165955 0.060861 0.0885082 ) 0 
( 0.172572 0.0637936 0.0883805 ) 0 
( 0.101707 0.0232344 0.0995002 ) 0 
( 0.124123 0.0300645 0.0886759 ) 0 
( 0.124045 0.0888015 0.0887849 ) 0 
( 0.195134 0.0464892 0.0912525 ) 0 
( 0.107254 0.0342521 0.0970919 ) 0 
( 0.136839 0.0367699 0.0995002 ) 0 
( 0.109243 0.0560468 0.0911112 ) 0 
( 0.161383 0.0889197 0.0882907 ) 0 
( 0.14927 0.055017 0.0989775 ) 0 
( 0.103683 0.0656561 0.0989794 ) 0 
( 0.145432 0.0417386 0.0902046 ) 0 
( 0.0935276 0.0725601 0.0994757 ) 0 
( 0.1342 0.00501764 0.0885907 ) 0 
( 0.109381 0.0725342 0.0874254 ) 0 
( 0.103523 0.0618183 0.0990163 ) 0 
( 0.101025 0.0676545 0.0964398 ) 0 
( 0.150525 0.00640632 0.0977712 ) 0 
( 0.112727 0.017722 0.0939127 ) 0 
( 0.170191 0.0032993 0.0911195 ) 0 
( 0.185448 0.0896744 0.0991109 ) 0 
( 0.110194 0.0505993 0.0886723 ) 0 
( 0.116081 0.0129401 0.0991864 ) 0 
( 0.132729 0.0855552 0.0902063 ) 0 
( 0.196413 0.0721852 0.0880078 ) 0 
( 0.154208 0.00317942 0.0891409 ) 0 
( 0.141735 0.0784167 0.0888365 ) 0 
( 0.192805 0.081812 0.0948367 ) 0 
( 0.199799 0.0905893 0.092379 ) 0 
( 0.125852 0.0232559 0.0992637 ) 0 
( 0.133254 0.0663105 0.0990267 ) 0 
( 0.148436 0.00884056 0.099321 ) 0 
( 0.119852 0.0369643 0.0978325 ) 0 
( 0.128398 0.0164212 0.0995002 ) 0 
( 0.10059 0.0381263 0.0995002 ) 0 
( 0.145937 0.0397012 0.088674 ) 0 
( 0.102865 0.0578971 0.0958315 ) 0 
( 0.1946 0.0548499 0.0934861 ) 0 
( 0.177492 0.056921 0.0989896 ) 0 
( 0.170202 0.035071 0.0884427 ) 0 
( 0.131652 0.00595915 0.0932824 ) 0 
( 0.167645 0.0640431 0.0990351 ) 0 
( 0.102026 0.0131655 0.0990144 ) 0 
( 0.145948 0.0435109 0.0992344 ) 0 
( 0.161342 0.0590969 0.0938188 ) 0 
( 0.147266 0.0372584 0.0995002 ) 0 
( 0.194981 0.0444327 0.0994669 ) 0 
( 0.184756 0.0753218 0.088596 ) 0 
( 0.151386 0.021469 0.0887254 ) 0 
( 0.13215 0.0605395 0.0995009 ) 0 
( 0.143393 0.0544394 0.0993364 ) 0 
( 0.197748 0.0304945 0.0888168 ) 0 
( 0.190266 0.0411859 0.0899833 ) 0 
( 0.104682 0.0209393 0.0917542 ) 0 
( 0.175076 0.0371638 0.0881737 ) 0 
( 0.193306 0.0362513 0.0909101 ) 0 
( 0.112861 0.0468565 0.0883847 ) 0 
( 0.121272 0.0686499 0.0886405 ) 0 
( 0.155624 0.0953224 0.0992379 ) 0 
( 0.103887 0.0464501 0.0992993 ) 0 
( 0.198427 0.051073 0.0994629 ) 0 
( 0.160851 0.0703018 0.0991659 ) 0 
( 0.136808 0.0333413 0.098975 ) 0 
( 0.131635 0.0552428 0.0896202 ) 0 
( 0.177971 0.0351737 0.0990251 ) 0 
( 0.185036 0.0834992 0.0994686 ) 0 
( 0.114262 0.0124515 0.0979993 ) 0 
( 0.197736 0.0192215 0.0888531 ) 0 
( 0.172208 0.0313275 0.0978753 ) 0 
( 0.175479 0.0907108 0.0927153 ) 0 
( 0.129469 0.0927454 0.0991935 ) 0 
( 0.178231 0.0445491 0.0896408 ) 0 
( 0.190295 0.026565 0.0995002 ) 0 
( 0.19873 0.00302203 0.0995002 ) 0 
( 0.108262 0.00226061 0.0995002 ) 0 
( 0.195055 0.00881588 0.0882866 ) 0 
( 0.154983 0.0875467 0.0914271 ) 0 
( 0.193655 0.0445985 0.0992014 ) 0 
( 0.153645 0.0417791 0.0991268 ) 0 
( 0.145082 0.028898 0.0995002 ) 0 
( 0.184272 0.0793873 0.0912156 ) 0 
( 0.202224 0.0726225 0.0961049 ) 0 
( 0.16969 0.0724934 0.0893799 ) 0 
( 0.128451 0.0506775 0.0887018 ) 0 
( 0.11115 0.0956821 0.0886233 ) 0 
( 0.159763 0.0251844 0.0945849 ) 0 
( 0.162885 0.0137901 0.0993125 ) 0 
( 0.176552 0.0665941 0.0978534 ) 0 
( 0.127401 0.0469619 0.0995002 ) 0 
( 0.142581 0.0521363 0.0994697 ) 0 
( 0.125092 0.0407716 0.0925004 ) 0 
( 0.185795 0.0566923 0.0995002 ) 0 
( 0.143375 0.0366921 0.0994839 ) 0 
( 0.173967 0.0264519 0.0993746 ) 0 
( 0.200055 0.0723345 0.0884912 ) 0 
( 0.150038 0.00983626 0.0886566 ) 0 
( 0.191851 0.00447154 0.099246 ) 0 
( 0.131117 0.0038463 0.0912504 ) 0 
( 0.122631 0.0533101 0.0953584 ) 0 
( 0.152152 0.0239878 0.090633 ) 0 
( 0.124769 0.0168972 0.0995002 ) 0 
( 0.169946 0.0982769 0.0886277 ) 0 
( 0.121191 0.0895876 0.095646 ) 0 
( 0.187883 0.0209082 0.0954693 ) 0 
( 0.13602 0.0181765 0.0995002 ) 0 
( 0.131039 0.0537272 0.0956062 ) 0 
( 0.125747 0.0748386 0.0889594 ) 0 
( 0.192147 0.0207278 0.0994628 ) 0 
( 0.122012 0.0292281 0.0928329 ) 0 
( 0.183301 0.045193 0.0946617 ) 0 
( 0.137692 0.0524463 0.0890514 ) 0 
( 0.105787 0.0648414 0.0994239 ) 0 
( 0.158284 0.015529 0.0995002 ) 0 
( 0.183888 0.0904073 0.0887937 ) 0 
( 0.152823 0.00809717 0.0994628 ) 0 
( 0.131666 0.053322 0.0994904 ) 0 
( 0.108001 0.0877359 0.0990579 ) 0 
( 0.167694 0.0165871 0.0991853 ) 0 
( 0.152106 0.0810661 0.0992882 ) 0 
( 0.145959 0.023333 0.0979816 ) 0 
( 0.112699 0.0125771 0.099208 ) 0 
( 0.116222 0.0205359 0.0883521 ) 0 
( 0.18866 0.0518334 0.0981673 ) 0 
( 0.164291 0.0856778 0.0995002 ) 0 
( 0.117059 0.083929 0.0892517 ) 0 
( 0.126474 0.0814901 0.0995002 ) 0 
( 0.181225 0.085624 0.0995002 ) 0 
( 0.131822 0.0812778 0.0887118 ) 0 
( 0.143737 0.0518871 0.099298 ) 0 
( 0.17699 0.0758304 0.0903352 ) 0 
( 0.187375 0.0660849 0.0898504 ) 0 
( 0.139429 0.0244726 0.0882531 ) 0 
( 0.144168 0.0693931 0.0995002 ) 0 
( 0.106353 0.0434989 0.0967353 ) 0 
( 0.14638 0.0724796 0.0993548 ) 0 
( 0.127355 0.0932231 0.0995002 ) 0 
( 0.165281 0.069459 0.0887736 ) 0 
( 0.109309 0.0980347 0.0991087 ) 0 
( 0.117893 0.0112266 0.0992542 ) 0 
( 0.181606 0.082352 0.0995002 ) 0 
( 0.180234 0.0853246 0.0991741 ) 0 
( 0.126992 0.0406668 0.0995001 ) 0 
( 0.143992 0.00741088 0.0967069 ) 0 
( 0.173919 0.0386185 0.0987383 ) 0 
( 0.137794 0.0843434 0.0989186 ) 0 
( 0.104273 0.0599086 0.0990021 ) 0 
( 0.101256 0.0218447 0.0966347 ) 0 
( 0.192679 0.0263315 0.099045 ) 0 
( 0.110682 0.00946437 0.0904051 ) 0 
( 0.113259 0.0759086 0.0995002 ) 0 
( 0.167916 0.0785166 0.0890525 ) 0 
( 0.16438 0.0184469 0.0869943 ) 0 
( 0.113056 0.00580588 0.0932518 ) 0 
( 0.103579 0.0522509 0.0990222 ) 0 
( 0.187108 0.052573 0.0995002 ) 0 
( 0.182158 0.0323414 0.0887161 ) 0 
( 0.173697 0.0064485 0.099092 ) 0 
( 0.13741 0.0560106 0.0902708 ) 0 
( 0.198255 0.0816428 0.088622 ) 0 
( 0.158217 0.0527976 0.0990171 ) 0 
( 0.115343 0.0794535 0.0957254 ) 0 
( 0.156215 0.0696499 0.0880367 ) 0 
( 0.15411 0.0558553 0.0983169 ) 0 
( 0.191932 0.0991538 0.0995003 ) 0 
( 0.110607 0.0775134 0.0971155 ) 0 
( 0.133404 0.0321272 0.0995002 ) 0 
( 0.19199 0.0133151 0.0995002 ) 0 
( 0.113385 0.0540997 0.089486 ) 0 
( 0.117464 0.086349 0.088504 ) 0 
( 0.186429 0.0489731 0.0995002 ) 0 
( 0.136585 0.00415677 0.099364 ) 0 
( 0.114304 0.0146183 0.0995002 ) 0 
( 0.137426 0.0458787 0.0994699 ) 0 
( 0.154569 0.0978337 0.0995002 ) 0 
( 0.194428 0.0203235 0.0995002 ) 0 
( 0.178455 0.0607617 0.0968586 ) 0 
( 0.154894 0.0378827 0.0995002 ) 0 
( 0.13572 0.0954182 0.0995002 ) 0 
( 0.131498 0.0156895 0.0995002 ) 0 
( 0.156832 0.0727171 0.0899021 ) 0 
( 0.156439 0.0090678 0.0995002 ) 0 
( 0.102386 0.0413858 0.099258 ) 0 
( 0.106366 0.0392562 0.0969852 ) 0 
( 0.143471 0.0332793 0.089899 ) 0 
( 0.146314 0.0314934 0.0885116 ) 0 
( 0.194232 0.0747666 0.0886367 ) 0 
( 0.126503 0.0330811 0.0887885 ) 0 
( 0.177404 0.0719914 0.0886239 ) 0 
( 0.182197 0.0299943 0.0933591 ) 0 
( 0.138805 0.0295883 0.0995002 ) 0 
( 0.122023 0.0695561 0.0929376 ) 0 
( 0.194859 0.0280223 0.0953964 ) 0 
( 0.156913 0.000908814 0.0990546 ) 0 
( 0.149718 0.0903298 0.0878073 ) 0 
( 0.180973 0.000856677 0.0888384 ) 0 
( 0.118417 0.0311745 0.0936292 ) 0 
( 0.171128 0.0985154 0.0908909 ) 0 
( 0.186992 0.0138745 0.0995002 ) 0 
( 0.167608 0.0570244 0.0883065 ) 0 
( 0.105927 0.0152051 0.0959648 ) 0 
( 0.179171 0.0138581 0.092369 ) 0 
( 0.198657 0.0642896 0.0913922 ) 0 
( 0.184928 0.0109834 0.0913901 ) 0 
( 0.170222 0.00830841 0.0890038 ) 0 
( 0.101738 0.0286895 0.0993 ) 0 
( 0.283212 0.039452 0.0992142 ) 0 
( 0.239022 0.0961687 0.0886496 ) 0 
( 0.2994 0.0186199 0.094095 ) 0 
( 0.23905 0.052334 0.0887625 ) 0 
( 0.215837 0.0233918 0.0927192 ) 0 
( 0.206527 0.0657512 0.088836 ) 0 
( 0.28079 0.0429012 0.097538 ) 0 
( 0.269556 0.0267806 0.0886511 ) 0 
( 0.241982 0.0459473 0.0943694 ) 0 
( 0.212866 0.0659062 0.0994754 ) 0 
( 0.276718 0.0707846 0.0994664 ) 0 
( 0.281088 0.0230937 0.096316 ) 0 
( 0.227573 0.0419753 0.0912261 ) 0 
( 0.227601 0.0222323 0.0929991 ) 0 
( 0.21605 0.0570256 0.0877394 ) 0 
( 0.215451 0.0250253 0.0995002 ) 0 
( 0.265617 0.0203191 0.0919653 ) 0 
( 0.21981 0.0210357 0.0906852 ) 0 
( 0.272224 0.0130414 0.0986321 ) 0 
( 0.260362 0.0907647 0.0889479 ) 0 
( 0.270947 0.0298035 0.088641 ) 0 
( 0.244638 0.0724035 0.0905667 ) 0 
( 0.207902 0.0393405 0.0995002 ) 0 
( 0.204634 0.00314127 0.0882579 ) 0 
( 0.248329 0.0721045 0.0943785 ) 0 
( 0.290692 0.0989452 0.0993816 ) 0 
( 0.284162 0.00577018 0.0992555 ) 0 
( 0.221689 0.0948514 0.0993102 ) 0 
( 0.209202 0.087679 0.0979846 ) 0 
( 0.219816 0.0844781 0.0908905 ) 0 
( 0.215455 0.00413922 0.0975301 ) 0 
( 0.223948 0.0500675 0.088643 ) 0 
( 0.239084 0.0920594 0.0993386 ) 0 
( 0.229898 0.0957675 0.0993671 ) 0 
( 0.252215 0.0615667 0.0922586 ) 0 
( 0.269984 0.0564749 0.0936351 ) 0 
( 0.272846 0.0111786 0.088781 ) 0 
( 0.240254 0.00725319 0.0888131 ) 0 
( 0.293822 0.0882038 0.0893536 ) 0 
( 0.260015 0.0961936 0.0914127 ) 0 
( 0.2833 0.0240895 0.0919548 ) 0 
( 0.221833 0.029671 0.086977 ) 0 
( 0.245842 0.0415769 0.0883389 ) 0 
( 0.217601 0.058307 0.0991712 ) 0 
( 0.208538 0.0364592 0.0885268 ) 0 
( 0.268051 0.0049775 0.0893231 ) 0 
( 0.277652 0.0988173 0.0887364 ) 0 
( 0.279262 0.0123511 0.0991069 ) 0 
( 0.224705 0.040207 0.0886406 ) 0 
( 0.22404 0.0728749 0.0995002 ) 0 
( 0.280985 0.0136484 0.0989964 ) 0 
( 0.240881 0.0714755 0.0954469 ) 0 
( 0.263426 0.0161933 0.0888498 ) 0 
( 0.245174 0.0671144 0.0995002 ) 0 
( 0.269169 0.0605395 0.0995002 ) 0 
( 0.239176 0.0460507 0.0990969 ) 0 
( 0.286506 0.0314037 0.0995002 ) 0 
( 0.276134 0.00650547 0.0885118 ) 0 
( 0.210366 0.0548401 0.0995002 ) 0 
( 0.283174 0.0107499 0.0884885 ) 0 
( 0.225188 0.0456403 0.0994633 ) 0 
( 0.214229 0.0304165 0.0930847 ) 0 
( 0.291006 0.0518784 0.0888327 ) 0 
( 0.246512 0.0713319 0.0937412 ) 0 
( 0.217666 0.00763622 0.0904189 ) 0 
( 0.287347 0.0260665 0.0953008 ) 0 
( 0.265738 0.0334452 0.0962572 ) 0 
( 0.229029 0.0236478 0.0923466 ) 0 
( 0.29017 0.00690773 0.0995002 ) 0 
( 0.229072 0.0110827 0.0992422 ) 0 
( 0.280451 0.0844692 0.0990863 ) 0 
( 0.215451 0.0651011 0.0993146 ) 0 
( 0.290755 0.0808574 0.0968058 ) 0 
( 0.213056 0.0106397 0.0899185 ) 0 
( 0.268943 0.0914677 0.0995002 ) 0 
( 0.243252 0.0311336 0.0992687 ) 0 
( 0.239941 0.061734 0.0956158 ) 0 
( 0.234587 0.0662475 0.0887478 ) 0 
( 0.266129 0.0801197 0.0993578 ) 0 
( 0.263027 0.0760912 0.0992075 ) 0 
( 0.252569 0.0801604 0.0989773 ) 0 
( 0.263343 0.0950805 0.0901675 ) 0 
( 0.241163 0.0798337 0.0982665 ) 0 
( 0.268062 0.0536625 0.0878604 ) 0 
( 0.208227 0.073291 0.095437 ) 0 
( 0.296377 0.0885298 0.0885934 ) 0 
( 0.213225 0.0526849 0.0979453 ) 0 
( 0.260525 0.0586469 0.0994611 ) 0 
( 0.232423 0.0409233 0.0926732 ) 0 
( 0.271138 0.0826164 0.0886261 ) 0 
( 0.264181 0.0526946 0.0994787 ) 0 
( 0.206906 0.0121259 0.0995002 ) 0 
( 0.20288 0.0390543 0.0885172 ) 0 
( 0.276803 0.0846659 0.0887486 ) 0 
( 0.201946 0.0221955 0.0887611 ) 0 
( 0.255988 0.0940784 0.0886006 ) 0 
( 0.290801 0.075222 0.098938 ) 0 
( 0.213855 0.0887188 0.0995002 ) 0 
( 0.21544 0.00981983 0.0919281 ) 0 
( 0.250148 0.0185255 0.0940105 ) 0 
( 0.237039 0.0540434 0.0870498 ) 0 
( 0.249 0.0406582 0.0929942 ) 0 
( 0.21898 0.09437 0.0989706 ) 0 
( 0.298419 0.0383259 0.0984735 ) 0 
( 0.279408 0.0813017 0.0923387 ) 0 
( 0.280036 0.0214746 0.0886539 ) 0 
( 0.281768 0.00356929 0.0995002 ) 0 
( 0.218049 0.0482184 0.0911132 ) 0 
( 0.208473 0.08315 0.0904327 ) 0 
( 0.285412 0.0252946 0.0942864 ) 0 
( 0.268105 0.0430168 0.0901759 ) 0 
( 0.278623 0.0521001 0.0879467 ) 0 
( 0.252474 0.00655226 0.0888716 ) 0 
( 0.248343 0.0637749 0.0954878 ) 0 
( 0.267055 0.0849084 0.0890667 ) 0 
( 0.264491 0.0517294 0.099498 ) 0 
( 0.231997 0.0631919 0.0878407 ) 0 
( 0.279318 0.0187362 0.0995002 ) 0 
( 0.225017 0.0133968 0.0994283 ) 0 
( 0.264258 0.0896091 0.0992335 ) 0 
( 0.223748 0.0132854 0.0993867 ) 0 
( 0.222874 0.0787235 0.0995002 ) 0 
( 0.258184 0.0245432 0.0995002 ) 0 
( 0.23343 0.0504129 0.0894206 ) 0 
( 0.262526 0.0260049 0.0883975 ) 0 
( 0.284873 0.07602 0.0892606 ) 0 
( 0.252216 0.063419 0.0995002 ) 0 
( 0.207793 0.0155945 0.0995002 ) 0 
( 0.261975 0.0986831 0.099015 ) 0 
( 0.241305 0.0254912 0.0921423 ) 0 
( 0.284542 0.0941798 0.0989858 ) 0 
( 0.242814 0.0893503 0.0887331 ) 0 
( 0.22559 0.0663641 0.0989877 ) 0 
( 0.288943 0.0794366 0.0889463 ) 0 
( 0.276764 0.0500851 0.0878104 ) 0 
( 0.213084 0.0584145 0.0908983 ) 0 
( 0.211761 0.000515877 0.0990307 ) 0 
( 0.233813 0.0804183 0.0989738 ) 0 
( 0.249012 0.0306222 0.0990948 ) 0 
( 0.221994 0.00858392 0.097941 ) 0 
( 0.221893 0.0632325 0.0994965 ) 0 
( 0.258181 0.0701643 0.0994832 ) 0 
( 0.259448 0.0982732 0.0994703 ) 0 
( 0.220158 0.0762862 0.0889987 ) 0 
( 0.209524 0.0391907 0.0995002 ) 0 
( 0.207719 0.0235557 0.0995002 ) 0 
( 0.242131 0.0598013 0.0994695 ) 0 
( 0.269673 0.00799007 0.0995002 ) 0 
( 0.240085 0.0496209 0.0879461 ) 0 
( 0.297356 0.0828699 0.0995002 ) 0 
( 0.204219 0.0489256 0.0995002 ) 0 
( 0.27727 0.056788 0.0887539 ) 0 
( 0.298387 0.0959235 0.0995002 ) 0 
( 0.257407 0.0487644 0.0994657 ) 0 
( 0.261559 0.0081721 0.0890901 ) 0 
( 0.26299 0.0971136 0.0995002 ) 0 
( 0.212824 0.00408514 0.0978102 ) 0 
( 0.28102 0.0537404 0.0871244 ) 0 
( 0.257947 0.0134136 0.0892691 ) 0 
( 0.281636 0.0330712 0.0906227 ) 0 
( 0.210243 0.00973317 0.0994657 ) 0 
( 0.215912 0.030446 0.0994842 ) 0 
( 0.237614 0.0232114 0.0887008 ) 0 
( 0.246719 0.0347049 0.0995002 ) 0 
( 0.28632 0.0485012 0.0989746 ) 0 
( 0.246494 0.0620253 0.0914655 ) 0 
( 0.272868 0.0875184 0.0934181 ) 0 
( 0.297708 0.06654 0.0914453 ) 0 
( 0.24651 0.0969284 0.0991953 ) 0 
( 0.266361 0.00176557 0.0987097 ) 0 
( 0.231725 0.0271488 0.0995002 ) 0 
( 0.210638 0.0959901 0.0949698 ) 0 
( 0.262736 0.0406653 0.0887101 ) 0 
( 0.244996 0.0178684 0.0948881 ) 0 
( 0.222371 0.0909351 0.0951778 ) 0 
( 0.277257 0.0927743 0.0945903 ) 0 
( 0.279356 0.0969254 0.0886262 ) 0 
( 0.28173 0.096593 0.0906682 ) 0 
( 0.245567 0.070327 0.0995002 ) 0 
( 0.205272 0.0227525 0.0946053 ) 0 
( 0.239528 0.019149 0.0902927 ) 0 
( 0.267485 0.0525918 0.0926243 ) 0 
( 0.229259 0.00395463 0.0984331 ) 0 
( 0.20894 0.00607243 0.0889596 ) 0 
( 0.245196 0.0330575 0.0995002 ) 0 
( 0.236156 0.0858141 0.0990919 ) 0 
( 0.267933 0.0441054 0.0896561 ) 0 
( 0.224097 0.0214245 0.0989994 ) 0 
( 0.291499 0.0348709 0.0890927 ) 0 
( 0.253459 0.0175698 0.0995002 ) 0 
( 0.231815 0.0447191 0.0995002 ) 0 
( 0.209819 0.0686551 0.0995002 ) 0 
( 0.299964 0.0175649 0.0912545 ) 0 
( 0.281011 0.0770785 0.0884543 ) 0 
( 0.250165 0.0601808 0.0933811 ) 0 
( 0.244388 0.00282304 0.0914137 ) 0 
( 0.295123 0.0320053 0.0946456 ) 0 
( 0.216646 0.0220278 0.0894074 ) 0 
( 0.248546 0.0919968 0.0886849 ) 0 
( 0.239194 0.0483543 0.0892753 ) 0 
( 0.260675 0.0977206 0.0995002 ) 0 
( 0.26229 0.049632 0.093707 ) 0 
( 0.221017 0.0589329 0.0995002 ) 0 
( 0.194402 0.0380041 0.0990569 ) 0 
( 0.262777 0.0535388 0.0887186 ) 0 
( 0.218243 0.0337678 0.0995002 ) 0 
( 0.225911 0.015666 0.0995002 ) 0 
( 0.240698 0.003771 0.0992027 ) 0 
( 0.247286 0.0485819 0.0994927 ) 0 
( 0.210146 0.080277 0.0885589 ) 0 
( 0.246464 0.0216584 0.0887042 ) 0 
( 0.299929 0.0767406 0.0887859 ) 0 
( 0.249458 0.0150045 0.0993587 ) 0 
( 0.218344 0.0767613 0.0891852 ) 0 
( 0.256848 0.0512499 0.0909519 ) 0 
( 0.206632 0.0776199 0.09898 ) 0 
( 0.219407 0.00270794 0.0886797 ) 0 
( 0.251819 0.0544565 0.0994994 ) 0 
( 0.235476 0.078432 0.0995002 ) 0 
( 0.206396 0.0168298 0.0886362 ) 0 
( 0.278067 0.00398454 0.0992232 ) 0 
( 0.20423 0.0842012 0.0887078 ) 0 
( 0.206324 0.0983295 0.090786 ) 0 
( 0.226096 0.0376728 0.0991261 ) 0 
( 0.286529 0.0109941 0.0886933 ) 0 
( 0.256489 0.0391739 0.0995002 ) 0 
( 0.207545 0.00522078 0.0994691 ) 0 
( 0.278417 0.0405877 0.092935 ) 0 
( 0.219717 0.0156956 0.0995002 ) 0 
( 0.299656 0.0202229 0.0888185 ) 0 
( 0.21783 0.0846894 0.0994037 ) 0 
( 0.236604 0.0291042 0.0958327 ) 0 
( 0.275894 0.00326353 0.0919363 ) 0 
( 0.202558 0.0170861 0.098978 ) 0 
( 0.265809 0.04091 0.0926189 ) 0 
( 0.230288 0.0815765 0.0951666 ) 0 
( 0.276713 0.0074368 0.0995002 ) 0 
( 0.256317 0.027522 0.09665 ) 0 
( 0.235342 0.0566202 0.0891529 ) 0 
( 0.240814 0.0825348 0.0902985 ) 0 
( 0.294871 0.0508317 0.0894426 ) 0 
( 0.28215 0.0639959 0.0962929 ) 0 
( 0.216206 0.0941492 0.099355 ) 0 
( 0.248019 0.0461736 0.0992649 ) 0 
( 0.315559 0.0939202 0.0968535 ) 0 
( 0.240361 0.0586594 0.0995002 ) 0 
( 0.268027 0.0398218 0.0949547 ) 0 
( 0.264023 0.0108631 0.0955788 ) 0 
( 0.310682 0.0413478 0.0978685 ) 0 
( 0.393034 0.0536926 0.0894088 ) 0 
( 0.377609 0.0817632 0.0995002 ) 0 
( 0.311882 0.0240433 0.0888273 ) 0 
( 0.319842 0.0331634 0.0888843 ) 0 
( 0.311159 0.0285928 0.0990259 ) 0 
( 0.311511 0.033675 0.0993587 ) 0 
( 0.347774 0.0926694 0.0995002 ) 0 
( 0.351111 0.0702828 0.0899617 ) 0 
( 0.387321 0.0903526 0.0939188 ) 0 
( 0.318295 0.0853582 0.0994926 ) 0 
( 0.310758 0.0753882 0.0991977 ) 0 
( 0.315634 0.0846593 0.0887807 ) 0 
( 0.345026 0.0428725 0.0949185 ) 0 
( 0.335501 0.0481762 0.0960062 ) 0 
( 0.387917 0.0173663 0.0989777 ) 0 
( 0.318782 0.0467383 0.0885747 ) 0 
( 0.305128 0.0924588 0.098813 ) 0 
( 0.332087 0.0964477 0.0905198 ) 0 
( 0.391846 0.0693651 0.0908887 ) 0 
( 0.374071 0.0382578 0.0995002 ) 0 
( 0.366805 0.0109332 0.0915264 ) 0 
( 0.374038 0.0605974 0.094053 ) 0 
( 0.341632 0.00297943 0.0961404 ) 0 
( 0.380876 0.021733 0.0918586 ) 0 
( 0.382812 0.00712679 0.09924 ) 0 
( 0.331277 0.0909963 0.0994639 ) 0 
( 0.38637 0.0410756 0.0887465 ) 0 
( 0.369931 0.0155027 0.0960051 ) 0 
( 0.34677 0.0244351 0.0938816 ) 0 
( 0.340539 0.0446237 0.0995002 ) 0 
( 0.319792 0.035915 0.0952062 ) 0 
( 0.308159 0.0598129 0.0992923 ) 0 
( 0.306809 0.0173654 0.0902446 ) 0 
( 0.331029 0.0434655 0.0993747 ) 0 
( 0.395582 0.0429947 0.0936995 ) 0 
( 0.334266 0.0452772 0.0885464 ) 0 
( 0.366985 0.0399171 0.0887067 ) 0 
( 0.362969 0.0250839 0.0994636 ) 0 
( 0.34481 0.0200819 0.0929268 ) 0 
( 0.33219 0.0580463 0.0885673 ) 0 
( 0.315728 0.016174 0.0889364 ) 0 
( 0.38702 0.0928216 0.0933131 ) 0 
( 0.394833 0.0696375 0.0886128 ) 0 
( 0.349644 0.0379176 0.0989404 ) 0 
( 0.345718 0.0369893 0.0958868 ) 0 
( 0.350991 0.0120627 0.0885226 ) 0 
( 0.364065 0.0461599 0.0905007 ) 0 
( 0.355821 0.0214941 0.0884904 ) 0 
( 0.35682 0.00146703 0.0956266 ) 0 
( 0.325185 0.0503577 0.0887043 ) 0 
( 0.3268 0.0609127 0.0994945 ) 0 
( 0.377753 0.0951754 0.0943543 ) 0 
( 0.374672 0.00869574 0.0929676 ) 0 
( 0.377752 0.0972508 0.0995002 ) 0 
( 0.382557 0.0781848 0.0956718 ) 0 
( 0.37801 0.0247691 0.0995002 ) 0 
( 0.317968 0.00318284 0.0925963 ) 0 
( 0.324355 0.00778594 0.0900609 ) 0 
( 0.348461 0.0473549 0.0929856 ) 0 
( 0.376775 0.0679451 0.0955412 ) 0 
( 0.362347 0.0430476 0.0959389 ) 0 
( 0.317283 0.086261 0.0938506 ) 0 
( 0.34955 0.0273603 0.0885809 ) 0 
( 0.323339 0.0990188 0.0880425 ) 0 
( 0.379789 0.0361155 0.0995002 ) 0 
( 0.342264 0.0362559 0.0906454 ) 0 
( 0.321994 0.0975494 0.0887028 ) 0 
( 0.294117 0.0517262 0.0995002 ) 0 
( 0.327505 0.0179047 0.0989677 ) 0 
( 0.34727 0.0966968 0.0989334 ) 0 
( 0.364322 0.000875854 0.0889269 ) 0 
( 0.32698 0.0366151 0.0887532 ) 0 
( 0.323324 0.0374299 0.0994662 ) 0 
( 0.307767 0.0657558 0.0869709 ) 0 
( 0.386491 0.0328803 0.0927405 ) 0 
( 0.38902 0.0798942 0.096817 ) 0 
( 0.326255 0.0306822 0.0893911 ) 0 