FoamFile
{version 2.0; format ascii;class vectorField; location 0;object  v;}
1000
(
( 0.348996 -0.00163537 -0.0993629 )  
( 0.0181891 -0.000714643 0.0775573 )  
( 0.0569177 -0.00080928 0.350015 )  
( 0.324701 -0.00188268 -0.0667232 )  
( 0.00886855 -7.87272e-05 9.5453e-06 )  
( 0.0162567 8.32612e-05 -0.0340207 )  
( 0.35055 0.00133089 -0.0499368 )  
( 0.0493891 0.000191126 0.353879 )  
( 0.00603716 9.49454e-06 -1.54569e-08 )  
( 0.30255 -0.000490188 0.210856 )  
( 0.290744 -0.0002672 0.265344 )  
( 0.350957 -0.000576239 0.117196 )  
( 0.00583875 -0.000255276 3.30091e-08 )  
( 0.00671916 -7.78639e-05 -5.67748e-08 )  
( 0.0913837 -0.000342137 0.255982 )  
( 0.0058744 4.17159e-08 -5.11175e-08 )  
( 0.0183147 -0.000109614 -0.0923347 )  
( 0.00664562 -0.00011415 -4.49532e-08 )  
( 0.0219865 5.18856e-05 0.0271958 )  
( 0.346124 0.00170865 -0.0706171 )  
( 0.326866 -0.00266196 0.0185278 )  
( 0.123267 -9.03275e-05 0.215607 )  
( 0.110701 0.000542131 0.0198546 )  
( 0.116089 -0.00029284 0.31266 )  
( 0.00605724 -2.70836e-05 4.0855e-08 )  
( 0.148096 -0.000533753 0.294552 )  
( -0.035098 -0.0357994 -2.3374e-08 )  
( 0.0174626 0.000326224 -0.0251608 )  
( 0.187971 -0.00699587 0.123681 )  
( 0.0182135 0.000240613 -0.0204341 )  
( 0.119593 5.43878e-05 0.00984889 )  
( 0.328535 -0.00108122 -0.0668194 )  
( -0.183799 0.0148964 -0.0601939 )  
( 0.0185912 3.21657e-05 -0.00141135 )  
( 0.333068 -0.000674663 -0.0125643 )  
( 0.0309739 -5.80323e-05 0.198452 )  
( 0.0292084 -2.99219e-05 0.00900578 )  
( 0.34021 -0.00437911 0.0343067 )  
( 0.329813 0.000133919 -0.0168106 )  
( 0.287879 0.000188878 0.236133 )  
( 0.00905157 4.20542e-05 0.0136214 )  
( 0.0117404 -1.96691e-05 -0.0672782 )  
( 0.0085587 -0.000226977 -0.0106035 )  
( 0.279501 -0.000387905 0.0781997 )  
( 0.228248 -0.000170675 0.0531115 )  
( 0.0146586 -0.000195618 0.0933913 )  
( 0.00837403 4.27527e-05 0.0027714 )  
( 0.342145 0.000161713 -0.0955164 )  
( 0.324778 -0.0022565 -0.145135 )  
( 0.219444 0.00109893 0.258186 )  
( 0.347279 -0.00132523 0.0100667 )  
( 0.00645706 -8.72839e-05 5.00135e-08 )  
( 0.202034 -0.000613228 0.150773 )  
( 0.00626823 0.000141195 -3.13568e-08 )  
( 0.0180002 0.000116531 -0.0875024 )  
( 0.102695 0.000567829 0.324187 )  
( 0.00853487 0.000159101 0.0103315 )  
( 0.338786 -0.0011957 -0.146536 )  
( 0.324735 -0.00131573 0.183929 )  
( 0.315669 0.00237978 0.182779 )  
( 0.347584 -0.000830451 0.0930452 )  
( 0.0208888 7.35239e-06 0.0120184 )  
( 0.351201 -0.000668732 -0.102704 )  
( 0.284971 -0.000786067 0.247331 )  
( 0.33059 0.000135569 0.170533 )  
( -0.00425651 -0.027932 -4.07489e-08 )  
( 0.00627889 9.62825e-05 5.84796e-06 )  
( 0.0189726 -0.000138254 0.0272958 )  
( 0.135624 -0.000485249 0.308407 )  
( 0.33421 -0.00258051 0.00444879 )  
( 0.350358 -0.000154326 -0.0617545 )  
( 0.0145985 0.00013968 -0.0786781 )  
( 0.158742 0.000773376 0.293753 )  
( 0.006346 -2.10433e-05 0.000730896 )  
( 0.335183 0.000510969 -0.0590719 )  
( 0.0165895 -4.19607e-05 0.0783028 )  
( 0.0253591 3.92407e-05 0.271142 )  
( 0.312164 0.00165191 0.255119 )  
( 0.325022 -0.00109312 0.189071 )  
( 0.0223545 0.000156041 -0.0995565 )  
( 0.00978783 -4.93968e-05 -0.0250703 )  
( 0.335006 -0.00414124 -0.118876 )  
( 0.330709 0.000511993 -0.0836104 )  
( 0.0142655 -0.000127043 0.0973966 )  
( 0.00859668 0.000236737 0.00870646 )  
( 0.00978764 -0.000155359 -0.0223824 )  
( 0.0089429 0.000162433 -0.00781268 )  
( 0.00589832 -0.00011989 -2.94873e-08 )  
( 0.339652 -0.00516087 -0.0748836 )  
( 0.337296 -0.00292059 0.0399118 )  
( 0.0156924 3.02923e-07 -0.089843 )  
( 0.00608315 0.000171833 7.50601e-09 )  
( -0.0246541 0.00235753 6.33873e-05 )  
( 0.332662 -0.00362283 0.0771525 )  
( 0.00367092 7.26604e-05 -7.5526e-09 )  
( 0.195295 0.000465572 0.162996 )  
( 0.334574 5.3059e-05 0.0329806 )  
( 0.00492854 -0.105739 1.42915e-08 )  
( 0.0151965 0.000316693 -0.0350562 )  
( 0.335668 -0.00148462 -0.133688 )  
( 0.332903 -0.00234937 -0.0156603 )  
( 0.00591784 0.000149828 6.40774e-09 )  
( 0.0119392 0.000218259 -0.0713989 )  
( 0.00600394 0.000105922 7.85735e-09 )  
( 0.259575 0.00175522 0.258529 )  
( 0.0676184 0.284916 0.0790245 )  
( 0.00590904 -4.52125e-05 -5.16301e-08 )  
( 0.0855175 -0.0177908 -2.65739e-08 )  
( 0.332024 0.000700071 0.0177388 )  
( 0.0789779 -0.159558 0.0513802 )  
( 0.00860885 8.05681e-05 -0.0077207 )  
( 0.351001 0.000341738 -0.0792084 )  
( 0.330381 -0.000301374 0.0512775 )  
( 0.34898 0.00170173 -0.0132859 )  
( 0.107677 -1.62553e-05 -0.122002 )  
( 0.329994 -0.00159183 -0.137921 )  
( 0.0126468 -0.148027 -5.86608e-08 )  
( 0.26347 0.00070987 0.177051 )  
( 0.332798 -0.00198095 -0.141278 )  
( 0.336625 -0.00406412 0.0611285 )  
( 0.0606907 -0.000769671 0.366828 )  
( 0.351612 0.00116647 -0.0694932 )  
( 0.330894 0.000497916 0.195665 )  
( 0.0182416 0.000231687 0.0727623 )  
( 0.0147426 -0.105496 0.0355947 )  
( 0.190363 -0.00127134 0.144756 )  
( 0.285523 0.000393204 0.0418791 )  
( 0.228032 -0.000320392 0.0725988 )  
( 0.115328 -0.000589304 0.18672 )  
( 0.0188777 -7.07767e-05 -0.096895 )  
( 0.345195 -0.00112736 0.138733 )  
( 0.331601 -0.00115703 -0.0557155 )  
( 0.298489 3.06294e-05 0.190542 )  
( 0.053036 -0.000530323 -0.0523371 )  
( 0.337992 0.0010375 0.0247849 )  
( 0.347121 -0.00150294 -0.118413 )  
( 0.00640101 0.000219769 -6.88178e-08 )  
( 0.00588709 -0.000146616 -1.89608e-08 )  
( 0.324295 -0.00277322 -0.173734 )  
( 0.328459 -0.000958551 0.0739254 )  
( 0.257606 -0.00187905 0.101608 )  
( 0.348242 -0.000775559 -0.0274163 )  
( 0.0438265 -3.07333e-05 0.354933 )  
( 0.00652219 0.000110681 5.98515e-08 )  
( 0.300859 1.9937e-05 0.0349322 )  
( 0.346877 -6.46859e-05 0.00931954 )  
( 0.329394 -0.00146386 -0.169204 )  
( 0.33862 -0.00307494 0.0980986 )  
( 0.22142 0.285839 0.015478 )  
( 0.0061387 4.94758e-05 -4.65266e-08 )  
( 0.00606253 -2.42518e-05 -6.97637e-08 )  
( 0.276302 0.00233704 0.140663 )  
( 0.289652 -0.000869471 0.00893841 )  
( 0.0205896 0.000181886 0.0289096 )  
( 0.309021 0.000116647 -0.0309139 )  
( 0.0176084 -0.000168404 0.337686 )  
( 0.344629 -0.00132144 0.160296 )  
( 0.00619407 1.92951e-05 3.57096e-08 )  
( 0.332029 -0.00276529 0.127605 )  
( 0.330002 -0.000509291 0.171584 )  
( 0.335688 0.00105873 0.117566 )  
( 0.0541716 -2.48894e-06 0.28917 )  
( 0.33076 -0.00205791 0.0310521 )  
( 0.0063799 6.47871e-05 -4.01523e-08 )  
( 0.321251 -0.00226565 0.164764 )  
( 0.0369166 9.91115e-05 0.352674 )  
( 0.00943249 -0.000190261 -0.0243721 )  
( 0.0197217 0.000230181 0.0560159 )  
( 0.347926 0.00123457 -0.0231547 )  
( 0.15697 0.000166675 0.29471 )  
( 0.387118 -0.0112389 7.70594e-09 )  
( 0.00634474 6.55145e-05 -1.16812e-07 )  
( 0.00658706 -0.000142655 -5.7038e-08 )  
( 0.00889089 2.27906e-05 0.00450339 )  
( 0.190727 -0.000798389 0.299469 )  
( 0.0111243 -0.000136125 -0.0713709 )  
( 0.325399 -0.000749959 0.196426 )  
( 0.326201 -0.00214055 0.10986 )  
( 0.329969 0.00108554 0.130307 )  
( 0.152417 0.104689 -8.92923e-08 )  
( 0.324577 -0.00302075 0.0746416 )  
( 0.00655319 -5.4902e-05 -0.00114084 )  
( 0.00598853 -9.51692e-05 -2.22578e-08 )  
( 0.343232 -0.00147584 0.0774206 )  
( 0.348222 -0.00107054 -0.0799243 )  
( 0.271001 -0.00144037 0.112828 )  
( 0.0194779 -0.000266906 -0.00194505 )  
( 0.347922 -0.00194696 -0.00600355 )  
( 0.327291 -0.00153009 -0.116639 )  
( 0.0208761 0.00025584 0.0502281 )  
( 0.331083 -0.00208942 -0.0529228 )  
( 0.344714 0.000501699 0.214817 )  
( 0.332679 0.000400201 -0.0407287 )  
( 0.351433 -0.00128904 0.0607345 )  
( 0.0114669 4.9125e-06 -0.068624 )  
( 0.0061152 -0.000182818 -7.22502e-09 )  
( 0.305958 -0.000730898 -0.00871878 )  
( 0.106634 -0.000449881 0.322576 )  
( 0.275416 -0.000609067 0.122847 )  
( -0.0145548 -0.0155395 -4.08841e-08 )  
( 0.00577835 -0.000112657 -3.71751e-08 )  
( 0.00600813 -0.000345962 3.43483e-08 )  
( 0.335381 -0.0028272 -0.13412 )  
( -0.0389091 -0.0380264 -0.0483881 )  
( 0.192958 -0.000500022 0.239668 )  
( 0.0212691 8.86822e-05 0.0396846 )  
( 0.3284 -0.00058707 0.105933 )  
( 0.046526 -0.000334809 0.342704 )  
( 0.323444 -0.0027652 0.133964 )  
( 0.00655616 3.28102e-05 -9.60937e-08 )  
( 0.288888 -0.00189794 -0.00481672 )  
( 0.199186 -0.00164187 0.261317 )  
( 0.326879 -0.000200778 0.0782834 )  
( 0.0191204 -2.49693e-06 -0.0214799 )  
( 0.192783 -0.00153533 0.242925 )  
( 0.0153474 -0.000108087 -0.0425248 )  
( -0.0825286 -0.110449 -0.0107456 )  
( 0.156162 0.386357 0.174861 )  
( 0.345341 -0.000828833 0.0500224 )  
( 0.0208093 -9.96721e-05 -0.0933462 )  
( 0.0064167 5.41347e-05 -1.75888e-08 )  
( 0.024255 -7.20553e-05 -0.0985366 )  
( 0.330622 0.000867347 0.0780157 )  
( 0.308235 -0.00335167 0.233997 )  
( -0.0514091 -0.152559 0.0249658 )  
( 0.00650739 0.00011416 -3.97927e-08 )  
( 0.335167 -0.000519009 -0.080218 )  
( 0.164682 -0.00011992 -0.0571165 )  
( -0.330849 0.0188931 0.0210157 )  
( 0.349403 0.00142591 0.052657 )  
( 0.235548 -0.0614763 0.258731 )  
( 0.0134614 0.00567848 4.77834e-08 )  
( 0.0132653 0.00020185 -0.0498261 )  
( 0.325908 -0.0007217 0.175537 )  
( 0.00621309 3.28058e-05 -4.3982e-08 )  
( 0.317851 -0.00161249 0.207946 )  
( 0.267321 -0.000539114 0.118145 )  
( 0.351005 -0.000496132 0.0630507 )  
( 0.0774808 0.000166499 0.313855 )  
( 0.186871 -2.01278e-05 0.290192 )  
( 0.0192651 -0.000152441 0.0328591 )  
( 0.007054 -1.95515e-05 -0.0012918 )  
( 0.127009 0.000573626 0.329298 )  
( 0.350017 0.000960838 0.0548273 )  
( -0.166473 0.00507661 -4.3922e-08 )  
( 0.13418 -0.000655431 -0.094291 )  
( 0.329908 -0.00120294 0.0451958 )  
( 0.507516 -0.0170943 0.128452 )  
( 0.33269 -0.000354067 0.230858 )  
( 0.159006 -0.000283756 0.291034 )  
( 0.275761 -0.00224154 0.205915 )  
( 0.00625218 5.25458e-05 -3.77645e-09 )  
( 0.00633648 -6.73105e-05 -1.71941e-09 )  
( 0.338457 0.00109333 -0.0956298 )  
( 0.331929 0.000671782 -0.107454 )  
( 0.0432601 0.000159462 0.344635 )  
( 0.30579 0.000734509 0.109216 )  
( 0.334021 -0.000144391 0.159357 )  
( 0.0209004 -0.000174396 0.0322002 )  
( 0.340293 0.00101326 -0.0466384 )  
( 0.170197 0.177631 0.0494069 )  
( 0.275216 0.000395091 0.204451 )  
( 0.0130015 8.06779e-05 0.333289 )  
( 0.0147722 3.2492e-05 -0.0861317 )  
( 0.00649667 -2.87397e-06 -9.57256e-07 )  
( 0.00625686 3.06879e-05 1.39507e-07 )  
( 0.0766472 0.000148958 0.346461 )  
( 0.0169103 -9.387e-05 -0.024199 )  
( 0.332257 -0.00270615 -0.0338783 )  
( 0.102388 -0.000150003 0.327281 )  
( 0.337535 0.000859549 0.058033 )  
( 0.337566 -0.000430831 0.0630681 )  
( 0.152956 1.81404e-05 0.297464 )  
( 0.117306 0.000494011 0.234531 )  
( -0.134546 -0.0766284 -2.32812e-08 )  
( 0.338076 0.00197497 -0.0696441 )  
( 0.0211055 -0.00013105 0.00383223 )  
( 0.33638 0.00123535 -0.138853 )  
( 0.0177929 -7.81189e-05 -0.0914984 )  
( 0.337637 -2.47059e-05 0.067124 )  
( 0.262642 -0.000694742 0.143125 )  
( 0.012687 0.000101784 -0.0574167 )  
( 0.335847 -0.000160217 0.123905 )  
( 0.337257 0.000942253 0.0184412 )  
( 0.338405 -0.000116922 -0.158613 )  
( 0.338745 0.00175574 0.0749123 )  
( 0.00645139 0.000177904 6.13422e-06 )  
( 0.331826 -0.00129864 -0.068137 )  
( 0.338044 0.00165968 0.0514195 )  
( 0.339183 0.000631375 -0.111915 )  
( 0.00706588 -0.000128574 0.00532847 )  
( 0.0563587 0.000151376 0.350792 )  
( 0.334811 0.000161825 0.149851 )  
( 0.379483 0.170447 0.142013 )  
( 0.306888 0.00192485 0.200609 )  
( 0.020947 -0.000542371 0.00444779 )  
( 0.33373 -0.000599346 -0.0962909 )  
( 0.333905 -0.0011503 -0.0627753 )  
( 0.00654094 9.94008e-05 -2.41874e-08 )  
( 0.338707 -0.000190824 -0.142788 )  
( 0.33879 0.00211427 -0.0198586 )  
( 0.336896 0.000328677 0.11605 )  
( 0.145789 0.000619154 0.304977 )  
( -0.151129 0.0243816 -6.91363e-08 )  
( 0.333545 0.00137921 0.136148 )  
( 0.329388 0.0017924 -0.0822667 )  
( 0.0182185 -6.32471e-05 -0.0212516 )  
( 0.0204363 0.000291816 0.00269253 )  
( 0.339258 0.00214117 0.0942276 )  
( -0.118033 -0.081665 -0.0395188 )  
( 0.182074 0.00062879 -0.0328161 )  
( 0.33738 0.00254249 -0.181433 )  
( 0.0185804 0.000306303 -0.00625132 )  
( 0.184802 0.000468725 0.28442 )  
( 0.108174 0.000346606 0.325304 )  
( 0.306584 0.000180627 0.210445 )  
( 0.116574 0.000488812 0.134862 )  
( 0.0122706 -0.000185913 -0.0554392 )  
( 0.33423 0.000667063 -0.136786 )  
( 0.0199146 0.000206933 0.0612915 )  
( 0.337746 0.00290342 0.0509676 )  
( 0.338866 -0.00262574 -0.145082 )  
( 0.109394 0.000420637 0.012904 )  
( 0.337786 0.00371227 -0.0268178 )  
( 0.288559 -0.00400021 0.263362 )  
( 0.276509 -0.00300341 0.160674 )  
( 0.0135011 -0.000103712 -0.0783424 )  
( 0.0201221 8.35755e-05 0.0181849 )  
( 0.0169735 7.58314e-05 0.0810913 )  
( 0.10479 1.68187e-05 0.31901 )  
( 0.00652431 -8.50773e-05 -4.16573e-09 )  
( 0.00644058 0.000103945 9.20703e-06 )  
( 0.33932 0.00169904 -0.12625 )  
( 0.211163 0.000719441 0.290612 )  
( 0.332347 0.000480294 0.195227 )  
( 0.0208184 -4.39645e-06 0.0136641 )  
( 0.337407 0.000870979 -0.0976199 )  
( 0.3105 0.000717528 0.191557 )  
( 0.0201362 -9.01456e-05 0.0251588 )  
( 0.0184536 0.000120248 -0.00929824 )  
( 0.0333836 -0.0224556 -0.0414615 )  
( 0.235637 -0.000325101 0.231882 )  
( 0.00634514 2.12344e-05 1.51036e-08 )  
( 0.0089148 -2.80217e-05 -0.00267442 )  
( 0.335415 -0.00251986 -0.0414805 )  
( 0.336377 0.000682912 -0.1279 )  
( 0.00674486 -9.34103e-06 -0.0102833 )  
( 0.0158964 -8.52721e-05 -0.0873449 )  
( 0.338679 -0.00258749 -0.132909 )  
( 0.337009 -0.000622462 0.0765938 )  
( 0.333477 -0.000511362 0.161992 )  
( 0.313164 0.000159626 -0.113549 )  
( 0.336906 -0.00179088 0.103197 )  
( 0.335028 0.000354013 -0.114138 )  
( 0.335817 0.00289021 -0.139271 )  
( 0.0179574 8.58167e-05 0.0687951 )  
( 0.0176633 0.00018144 0.0770202 )  
( 0.00887473 3.35244e-05 -0.00551035 )  
( 0.0116526 -0.000141053 -0.0645439 )  
( 0.0200387 -0.000146137 -0.00383882 )  
( 0.340045 0.00103849 0.00671792 )  
( 0.0163471 -0.000136271 -0.0328712 )  
( 0.00899525 -0.000150581 -0.00665879 )  
( 0.0670171 0.000431118 0.324089 )  
( 0.338945 -0.00230596 0.0282081 )  
( 0.53337 -0.0700764 0.200344 )  
( 0.264474 0.000987007 0.197872 )  
( 0.0117121 0.000109279 -0.067642 )  
( 0.334643 0.000225785 0.0591493 )  
( 0.0063721 -0.000222739 9.74106e-09 )  
( 0.00603501 -2.44665e-05 2.57582e-07 )  
( 0.00638256 0.000124016 -1.52644e-07 )  
( 0.337654 -0.00117755 -0.112047 )  
( 0.330317 0.00171593 0.111828 )  
( 0.0120567 -2.69905e-05 -0.068442 )  
( 0.0202619 9.11353e-05 0.0529858 )  
( 0.00629459 -2.09393e-05 1.29787e-08 )  
( 0.334345 -0.00207885 0.103875 )  
( 0.461726 0.170073 0.0422925 )  
( 0.332529 -0.000963647 0.0389486 )  
( 0.339739 0.000567973 -0.0727801 )  
( 0.0973587 0.00051187 -0.0545793 )  
( 0.199272 0.000649756 0.230964 )  
( 0.0357522 0.000146863 0.359219 )  
( 0.106837 -0.000438183 0.340171 )  
( 0.00649722 6.18777e-05 1.02338e-06 )  
( -0.196197 0.00974104 -0.00620717 )  
( 0.280514 0.000182975 0.173207 )  
( 0.194644 0.0210734 -4.52043e-08 )  
( 0.00922223 -1.75897e-05 0.0186369 )  
( 0.0164482 -4.99087e-05 0.0851799 )  
( 0.339099 -0.00259736 -0.0675285 )  
( 0.289304 0.000566918 -0.139441 )  
( 0.0464129 -0.000212119 0.354032 )  
( 0.150136 0.000333975 0.142026 )  
( 0.182344 0.000832617 0.259621 )  
( 0.281756 0.000687187 0.115026 )  
( 0.00654234 -9.90796e-06 -1.55652e-08 )  
( 0.0426362 0.000353135 0.0273799 )  
( 0.544573 0.219594 0.103837 )  
( 0.210325 -0.00158916 0.281035 )  
( 0.00637967 -8.21455e-05 -3.62808e-09 )  
( 0.239468 0.00104718 0.260187 )  
( 0.283296 0.00261647 0.00849726 )  
( 0.00884481 -0.000224699 -0.00353895 )  
( 0.306818 -8.68153e-05 0.169554 )  
( 0.260593 0.000339385 0.23399 )  
( 0.340103 0.00104792 0.0202751 )  
( 0.0157162 0.000265053 0.0899662 )  
( 0.00617967 9.61585e-05 -5.7704e-08 )  
( 0.327165 -0.00054576 -0.117978 )  
( 0.00865124 0.000125084 -0.00393609 )  
( 0.0096826 1.76045e-05 -0.0223009 )  
( 0.021161 4.2685e-05 0.0372772 )  
( 0.0190491 4.71459e-05 0.0564743 )  
( 0.0173074 -0.00010632 0.0746316 )  
( 0.101995 -0.000206939 0.344424 )  
( 0.0102646 0.000223614 0.0577103 )  
( 0.339095 0.00100257 -0.0478676 )  
( 0.0675051 9.73687e-05 0.332176 )  
( 0.00618882 -8.5543e-05 -6.05705e-08 )  
( 0.338225 0.00209326 0.0244266 )  
( 0.006237 0.00018206 2.02778e-08 )  
( 0.00635428 -0.000157771 -1.56671e-08 )  
( 0.339546 0.0036025 -0.0654455 )  
( -0.117484 -0.0617478 -0.0814479 )  
( 0.278538 -0.00136195 0.0556557 )  
( 0.335951 -0.00131921 0.0781015 )  
( 0.33846 -0.00022187 -0.0504405 )  
( 0.00650722 -0.000116905 9.41459e-08 )  
( 0.168497 0.000658329 0.312585 )  
( 0.0169804 -0.000112608 -0.0866554 )  
( 0.00627124 6.95684e-05 -6.71866e-09 )  
( 0.333037 -0.000628898 -0.0328893 )  
( 0.0127659 3.47889e-05 -0.0565392 )  
( 0.0188628 0.000227669 0.0702602 )  
( 0.00641157 -0.000151732 -1.59887e-08 )  
( 0.0500706 -0.000334632 0.361184 )  
( 0.00670715 2.9836e-05 0.000750733 )  
( 0.16603 5.77269e-05 0.295246 )  
( 0.0435809 -6.49023e-06 0.348349 )  
( -0.117459 -0.0810634 0.181258 )  
( 0.0187494 0.000341776 -0.00881972 )  
( 0.138259 -0.000402363 0.300336 )  
( 0.0160598 -0.000344686 -0.0303885 )  
( 0.31543 0.000989958 0.101298 )  
( 0.00630692 7.71674e-05 -3.46936e-08 )  
( 0.332466 0.000119739 0.00747007 )  
( 0.339359 0.000736683 -0.109699 )  
( 0.269394 0.0011703 0.186458 )  
( 0.0196762 0.000291926 0.00967165 )  
( 0.00638127 1.14391e-05 -4.85453e-08 )  
( 0.338615 -0.00135537 -0.101077 )  
( 0.021426 -6.36523e-06 0.0523069 )  
( 0.338286 0.0011249 0.0522751 )  
( 0.337706 -0.00432243 -0.043606 )  
( 0.0175521 -4.968e-05 -0.0121523 )  
( 0.21161 0.000493137 0.266783 )  
( 0.338018 7.5468e-05 -0.139812 )  
( 0.0846583 -0.000146176 0.350714 )  
( 0.00657929 -0.000143415 -9.23497e-05 )  
( 0.108428 0.000306264 0.301151 )  
( 0.271341 0.143969 -5.43249e-08 )  
( 0.00627498 -0.000143316 -2.52432e-08 )  
( 0.334845 0.00106491 0.00416173 )  
( 0.338444 0.00195631 -0.136537 )  
( 0.00634142 1.52859e-05 -1.324e-09 )  
( 0.0173258 -1.51051e-07 -0.0909879 )  
( 0.00671955 0.000135678 -2.26853e-05 )  
( 0.00930696 4.5056e-05 -0.0131957 )  
( 0.00596842 3.38455e-05 2.55019e-07 )  
( 0.00660611 -0.000177756 -0.00160982 )  
( -0.0504957 -0.083921 0.0632053 )  
( 0.00627056 5.68388e-05 -8.44192e-09 )  
( 0.00610363 6.4684e-05 1.13347e-07 )  
( 0.00645422 -8.86988e-05 -3.96418e-09 )  
( 0.336387 0.000596457 0.0845062 )  
( 0.00616692 0.000108869 1.04306e-07 )  
( 0.0131213 0.000135839 -0.0785396 )  
( 0.151501 0.000593262 0.306196 )  
( 0.337976 -0.000376411 0.054737 )  
( 0.33741 1.63167e-06 -0.142093 )  
( 0.337145 -0.00315917 -0.0954905 )  
( 0.338923 -0.000737714 -0.0370629 )  
( 0.333845 -0.00167545 -0.0648713 )  
( 0.336214 -0.000812289 0.188937 )  
( 0.00636552 -6.33631e-05 1.28398e-08 )  
( 0.332807 0.00238596 0.177393 )  
( 0.25597 -0.00239062 0.253992 )  
( 0.014417 0.000124399 -0.0467627 )  
( 0.245496 0.00168662 -0.0730841 )  
( 0.0171219 -7.38664e-05 -0.142316 )  
( 0.334343 7.36815e-05 0.217681 )  
( 0.0346767 0.000281271 0.127208 )  
( 0.00635977 -0.000164621 5.67249e-08 )  
( 0.333084 -0.000346097 -0.0460321 )  
( 0.217179 -0.000198746 0.292189 )  
( 0.304321 -0.000985992 0.183019 )  
( 0.263345 -0.000495504 0.112334 )  
( 0.324557 -0.00126679 0.146115 )  
( 0.338719 0.000707385 -0.000919487 )  
( 0.0181014 0.000171416 0.0772091 )  
( 0.0185208 -0.000166205 0.0587388 )  
( 0.0848979 3.25303e-05 -0.110587 )  
( 0.336473 0.0031097 0.240794 )  
( 0.341465 -0.000982389 -0.112777 )  
( 0.254676 0.000191134 0.169461 )  
( 0.339057 -0.000557519 -0.130154 )  
( 0.122882 -0.000393991 0.312678 )  
( 0.345755 0.00245382 -0.0351617 )  
( 0.2496 -0.000714805 0.250104 )  
( 0.00900103 0.000131683 -0.0142331 )  
( 0.00897479 -6.36672e-05 -0.00803381 )  
( 0.196002 0.0023782 0.27936 )  
( 0.339369 -0.00160159 0.101713 )  
( 0.246134 0.000484004 0.204262 )  
( 0.338414 0.000324136 -0.0188087 )  
( 0.00632603 0.0001556 6.22652e-08 )  
( 0.338383 0.00150031 0.140626 )  
( 0.338354 0.000332643 0.116807 )  
( 0.0730666 0.000454422 0.358705 )  
( 0.314764 -0.00124911 0.0030954 )  
( 0.347622 0.00281067 -0.0632641 )  
( 0.341264 0.00165032 0.107594 )  
( -0.00997322 -0.252065 5.2686e-08 )  
( 0.106785 -0.000194844 -0.154418 )  
( 0.201077 0.000515433 0.22417 )  
( -0.130113 0.0289935 -0.0416963 )  
( 0.0183571 2.61435e-05 0.0665725 )  
( 0.0145887 5.4502e-05 -0.0808931 )  
( 0.0992003 -0.00107845 0.322989 )  
( 0.341791 -0.000768789 0.12314 )  
( 0.122703 0.000131506 0.332086 )  
( 0.339208 -0.000737804 -0.0616263 )  
( 0.207425 0.332102 -0.0261308 )  
( 0.017265 5.99815e-06 -0.0904486 )  
( 0.232447 0.000322895 0.160737 )  
( 0.34119 -0.00231637 0.226229 )  
( 0.342867 0.00175633 -0.0371296 )  
( 0.215413 7.90894e-05 -0.128207 )  
( 0.341764 0.00046158 0.0381783 )  
( 0.138126 -0.000486368 0.148436 )  
( 0.34518 0.00395387 0.171236 )  
( 0.342076 -0.000894348 -0.098959 )  
( 0.340734 -0.00122382 -0.0853791 )  
( 0.0118923 -2.73888e-05 -0.0583768 )  
( 0.33995 -0.00121107 -0.0935681 )  
( 0.231326 0.000875135 0.0330815 )  
( 0.0263697 8.54e-05 -0.0111941 )  
( 0.0200733 0.000218351 0.0388637 )  
( 0.340333 -0.0013978 -0.0877964 )  
( 0.00623093 0.000229299 1.8998e-08 )  
( 0.0217267 0.00036796 0.0202838 )  
( 0.188945 0.00117884 0.254802 )  
( 0.338864 0.00104615 -0.0225922 )  
( 0.00655265 -9.38287e-05 2.75608e-08 )  
( 0.00632168 -0.000208743 -1.16204e-08 )  
( 0.0208578 -4.35799e-05 0.0458847 )  
( 0.00637865 7.09922e-05 -3.62569e-08 )  
( 0.15667 0.000757489 -0.0841908 )  
( 0.00628816 9.29117e-05 8.40288e-08 )  
( 0.343765 0.00189908 -0.0946601 )  
( 0.00886799 -9.32884e-05 -0.00223171 )  
( 0.337414 -0.000828774 0.179806 )  
( 0.342435 -0.00298456 0.00523924 )  
( 0.26759 0.00107856 0.204174 )  
( 0.31949 0.00016321 0.0986165 )  
( 0.11927 0.00121265 0.278305 )  
( 0.308815 -0.404892 0.155321 )  
( 0.296464 0.000501066 0.154519 )  
( 0.00653886 -5.53894e-05 -8.26373e-08 )  
( 0.0126013 7.12801e-05 -0.0746374 )  
( 0.0145472 0.000192171 -0.0400964 )  
( 0.0429956 0.129344 0.0310123 )  
( 0.163064 0.000427003 0.293149 )  
( 0.31869 -0.000400122 0.0854917 )  
( 0.0744462 0.306231 3.19299e-08 )  
( 0.0136628 -0.000108252 -0.0805079 )  
( 0.139039 0.000307486 0.260775 )  
( 0.340852 0.00301793 -0.0419019 )  
( 0.0168632 -0.000128797 0.0830238 )  
( 0.0190262 -0.000279058 0.0641108 )  
( 0.0206207 -0.000437263 0.00642289 )  
( 0.14032 -0.000500443 0.0933794 )  
( 0.0846412 0.000161054 0.329663 )  
( 0.344862 -2.77061e-05 -0.129652 )  
( 0.232038 -0.00140883 0.260154 )  
( 0.342828 0.000464559 -0.105994 )  
( 0.0909505 0.000477552 0.327555 )  
( 0.00876157 -9.53843e-05 -0.000598373 )  
( 0.339491 -0.00149432 0.193696 )  
( 0.341692 -0.00187257 -0.127696 )  
( -0.0192831 -0.0542977 -0.0347739 )  
( 0.00608872 5.63658e-05 -5.5107e-08 )  
( 0.34043 -0.00114135 -0.0212185 )  
( 0.341851 -0.000640567 -0.110315 )  
( 0.337773 -0.00210071 -0.114847 )  
( 0.287017 -0.00126747 -0.0927627 )  
( 0.0592321 -0.000114489 0.349567 )  
( 0.00658628 7.24683e-05 3.29336e-08 )  
( 0.27704 -9.84312e-05 0.167835 )  
( 0.331767 0.000444515 0.214244 )  
( 0.342129 -0.000514219 -0.0480118 )  
( 0.258924 -0.000214881 0.177091 )  
( 0.0218394 3.07402e-05 0.0144896 )  
( 0.0584838 -0.000492547 0.335961 )  
( 0.340683 -0.000216922 0.183748 )  
( 0.346613 0.00353241 -0.111712 )  
( 0.0065571 -2.22941e-06 7.55788e-08 )  
( 0.337885 -0.000767262 0.104842 )  
( 0.340951 -0.00399845 0.0718474 )  
( 0.194517 0.00215045 0.247463 )  
( 0.345518 0.00141215 0.0914269 )  
( 0.345097 -0.00177692 -0.0972015 )  
( 0.180798 0.000221885 -0.0221905 )  
( 0.136907 0.000416912 0.265455 )  
( 0.340723 -0.00169027 -0.0399254 )  
( 0.0239572 -0.076381 -0.00667683 )  
( 0.340501 0.00166734 -0.115799 )  
( 0.00649981 0.000221647 -2.06817e-09 )  
( 0.068095 -0.0592348 -0.00649364 )  
( 0.0126218 -9.47252e-05 -0.0743539 )  
( -0.0432975 -0.138341 0.106666 )  
( 0.00639131 0.000213984 2.08242e-08 )  
( 0.00629886 6.1621e-05 -5.81865e-08 )  
( 0.3406 -0.00126994 0.0547587 )  
( 0.331869 0.00144956 -0.0936708 )  
( 0.34317 -0.00172597 0.0238197 )  
( -0.0420702 0.109929 -5.04018e-08 )  
( 0.00614103 8.09761e-05 -6.24931e-08 )  
( 0.018099 -8.92586e-05 -0.0169729 )  
( 0.294831 -0.000185929 0.152339 )  
( 0.0215578 0.000175841 0.0171943 )  
( 0.337081 -0.000207779 -0.0552239 )  
( 0.0182174 0.000302185 -0.0212048 )  
( 0.34281 -0.00099331 0.0041294 )  
( 0.345169 -0.000741133 -0.114181 )  
( 0.336349 0.00131839 0.0923234 )  
( 0.00889432 2.69902e-05 -0.0225498 )  
( 0.0199624 0.00045368 -0.00249301 )  
( 0.0136513 -3.92884e-05 -0.0505235 )  
( 0.102132 0.000160588 0.341091 )  
( -0.0889928 -0.162497 -0.0115046 )  
( 0.0253913 -0.000219618 -0.104015 )  
( 0.00907225 -5.15917e-05 -0.0111737 )  
( 0.340859 0.000406835 -0.004569 )  
( -0.0481352 -0.239987 -1.22593e-05 )  
( -0.00228921 -0.00710337 -6.25275e-08 )  
( 0.00900246 -3.14401e-05 -0.00880891 )  
( 0.00688393 8.02965e-05 -0.00748299 )  
( 0.341727 -0.00115648 -0.102441 )  
( 0.00640904 -4.47939e-05 1.21358e-08 )  
( 0.00641096 -3.96993e-05 5.1769e-08 )  
( 0.343583 -0.00237441 -0.0238713 )  
( 0.0063059 -1.00345e-07 4.22163e-05 )  
( 0.00896496 1.57869e-05 0.000321656 )  
( 0.221095 0.000662797 0.0245616 )  
( 0.00659472 -4.29798e-05 -2.42031e-08 )  
( 0.104864 1.0314e-05 0.319456 )  
( 0.345111 -0.0025977 -0.144247 )  
( 0.336404 0.000456715 0.02903 )  
( 0.349702 0.0030896 0.0739485 )  
( 0.00847834 0.000117394 0.00646709 )  
( 0.064194 0.0465779 0.0189491 )  
( 0.339445 -6.72405e-05 -0.0150738 )  
( 0.00646881 -3.21106e-05 2.94196e-08 )  
( 0.0203584 -0.000216892 0.00210101 )  
( 0.34046 0.000742874 0.117619 )  
( 0.225343 -0.000741684 0.221949 )  
( 0.346904 -0.00305649 0.119869 )  
( 0.0183443 -1.42722e-05 0.0556819 )  
( 0.0451846 0.000239779 0.361168 )  
( 0.0064852 4.39341e-05 7.77549e-09 )  
( 0.161705 -0.00153187 0.245344 )  
( 0.344469 0.00138106 -0.0850521 )  
( 0.222717 -0.385114 0.109636 )  
( 0.196222 -0.00031644 0.254823 )  
( 0.291601 0.000132141 0.255049 )  
( 0.106311 0.000261081 -0.0240077 )  
( 0.12487 0.000325481 0.074862 )  
( 0.00650735 -0.000125264 2.72554e-08 )  
( 0.263895 -0.00154602 0.25642 )  
( 0.338363 0.000243166 0.0955862 )  
( 0.327212 -0.00096583 0.165736 )  
( 0.0801547 9.91028e-05 0.34465 )  
( 0.233903 0.00227967 0.00387607 )  
( 0.00645151 -5.7929e-05 2.99289e-08 )  
( 0.0132442 0.000266315 -0.0495406 )  
( 0.345793 0.0014097 0.0579448 )  
( 0.0212843 0.000249405 0.0206718 )  
( 0.346402 0.00163083 0.0101793 )  
( 0.00618183 2.58552e-05 -5.96562e-08 )  
( 0.0063906 -2.77469e-05 -2.91431e-08 )  
( 0.0151912 0.136081 -2.23186e-08 )  
( 0.341188 0.00254425 0.122761 )  
( 0.342712 -0.00170882 -0.0506749 )  
( 0.217015 0.000186248 0.221246 )  
( 0.091296 0.000198681 0.150342 )  
( 0.301636 0.00192974 0.237155 )  
( 0.339266 -0.000185782 0.0375016 )  
( 0.226084 -0.000619866 -0.0857119 )  
( 0.337166 -0.00124877 0.0336343 )  
( 0.00646805 -5.08555e-05 -4.08443e-09 )  
( 0.145515 0.000342891 0.230886 )  
( 0.00644557 -3.64797e-05 -1.75099e-06 )  
( -0.248193 0.151065 0.295144 )  
( 0.343642 0.000253328 -0.0616275 )  
( -0.0188978 0.153705 -9.39024e-09 )  
( 0.00655995 0.000108427 2.27533e-08 )  
( 0.0187638 5.48882e-05 0.058603 )  
( 0.00749366 0.092545 -0.0118158 )  
( 0.341785 -0.00297552 -0.0835412 )  
( 0.337623 0.00019214 -0.087068 )  
( 0.346658 -0.00119825 -0.0351003 )  
( 0.0163339 3.76358e-05 0.0797667 )  
( 0.341065 -0.000151007 0.0204887 )  
( 0.342108 0.000264344 0.128861 )  
( 0.0194565 -0.000264458 -0.0101508 )  
( 0.0849248 0.000126089 -0.0965606 )  
( -0.172158 -0.235758 -0.00216602 )  
( 0.00628053 0.000168871 2.78335e-08 )  
( 0.337324 -0.00148497 -0.105428 )  
( 0.0125114 2.60912e-05 -0.0727126 )  
( 0.340557 -0.00435923 -0.0658264 )  
( 0.0425347 -0.000473812 0.130677 )  
( 0.0124883 1.12004e-05 -0.0590799 )  
( 0.34163 0.00203807 -0.0772988 )  
( 0.00651696 6.34902e-05 -2.63532e-08 )  
( 0.00948144 0.00125203 0.00948824 )  
( 0.266859 0.0003531 0.205928 )  
( 0.00641166 0.000173809 1.40617e-07 )  
( 0.342828 0.00267693 -0.123666 )  
( 0.0206615 0.000164714 -0.0986123 )  
( 0.199391 -3.36068e-05 0.288861 )  
( 0.115617 0.00041439 0.136917 )  
( 0.0191142 -4.25717e-05 -0.00759165 )  
( 0.28632 0.000934634 0.164685 )  
( 0.280815 0.00287409 0.27019 )  
( 0.00664742 4.86947e-05 -2.04011e-05 )  
( 0.173904 4.03254e-05 0.294088 )  
( 0.341141 -0.000283204 0.0168281 )  
( 0.336703 0.00108249 0.0563914 )  
( 0.340796 -0.00293348 0.0427361 )  
( 0.198265 -0.00210895 0.287451 )  
( 0.0174188 4.85049e-05 -0.0901794 )  
( 0.0349194 -0.0265415 0.0124371 )  
( 0.441536 -0.0636523 0.174736 )  
( 0.00656233 -7.06599e-06 8.90442e-06 )  
( 0.265286 0.00101072 0.245464 )  
( 0.125561 0.00049402 0.284588 )  
( 0.10406 -0.000773036 0.323082 )  
( 0.347898 -0.000342306 -0.00767805 )  
( 0.00686745 -8.10186e-05 -6.9522e-08 )  
( 0.315043 1.45689e-06 -0.136251 )  
( 0.334877 -0.00124885 -0.0057363 )  
( 0.0159037 -0.000211518 -0.03337 )  
( 0.0164234 -4.52653e-05 0.0838008 )  
( 0.0301737 -0.00163144 -1.21936e-07 )  
( 0.338812 0.000564503 0.0755958 )  
( 0.219332 0.000119947 0.213156 )  
( 0.0802907 -0.086518 -0.0821819 )  
( 0.0461679 -0.000281622 0.353306 )  
( 0.34763 -0.000915779 -0.135569 )  
( 0.468086 -0.090321 0.0767123 )  
( 0.133689 0.001066 0.294042 )  
( 0.0217245 4.7736e-05 0.0104939 )  
( 0.340429 0.000599495 -0.0670947 )  
( 0.0629755 -0.000142551 0.343555 )  
( 0.133454 -0.000902198 0.0657441 )  
( 0.345355 0.00228983 0.127607 )  
( 0.0066296 7.2019e-05 8.59298e-09 )  
( 0.341095 0.000711574 0.151896 )  
( 0.180353 0.000202247 0.239747 )  
( 0.0973281 0.000455611 0.278504 )  
( 0.350659 0.000751231 0.164435 )  
( 0.0188425 0.000110225 0.0625436 )  
( 0.0151189 -0.000111745 0.0948406 )  
( 0.348372 0.000893587 0.0281454 )  
( 0.217276 0.000393509 0.270223 )  
( 0.246237 0.000811971 0.208225 )  
( 0.00653903 -3.90812e-06 8.34349e-06 )  
( 0.270279 -0.000918533 0.271567 )  
( 0.0140083 0.000366427 -0.0816794 )  
( 0.342772 0.00116467 0.0938125 )  
( -0.123507 0.00935225 0.211459 )  
( 0.333725 -0.00106852 0.22217 )  
( 0.342179 0.00171728 -0.0566842 )  
( 0.345 0.0019359 -0.0481011 )  
( 0.01137 0.000109546 0.0941915 )  
( 0.33358 0.001749 0.204029 )  