# Probe 0 (3e-05 0.050001 0.050001)
# Probe 1 (0.39999 0.050001 0.050001)
# Time        0             1            
0.001         -0.329998     -0.330415    
0.002         -0.254377     -0.300152    
0.003         14.7404       22.4006      
0.004         20.6125       10.012       
0.005         5.86258       5.72428      
0.006         2.00992       2.10101      
0.007         0.584278      0.78308      
0.008         0.297453      0.391982     
0.009         -0.0118345    0.222804     
0.01          -0.201728     -0.270189    
