# Probe 0 (3e-05 0.050001 0.050001)
# Probe 1 (0.39999 0.050001 0.050001)
# Time        0             1            
0.001         (9.01306 0.000140793 0.0002063) (9.013 0.000133849 0.000199977)
0.002         (10.8245 0.000335817 -0.000609284) (10.8245 0.000248395 0.000592992)
0.003         (10.5196 -0.0565077 -0.0610401) (10.5372 -0.027732 -0.0636343)
0.004         (10.0174 0.00631695 0.025115) (10.0395 0.073566 -0.110837)
0.005         (10.0326 0.0718282 0.0129654) (10.0689 0.0914827 -0.0781158)
0.006         (10.0605 0.102572 -0.0174737) (10.0916 0.0745757 -0.0413727)
0.007         (10.0796 0.0921213 -0.0262781) (10.1089 0.0239587 -0.00696273)
0.008         (10.1118 0.0600726 -0.0215766) (10.1283 -0.0308774 0.0154743)
0.009         (10.1478 0.014231 -0.0116909) (10.1422 -0.065516 0.032872)
0.01          (10.1627 -0.0352721 0.00578149) (10.1495 -0.0636866 0.0345648)
