FoamFile
{version 2.0; format ascii;class Cloud<passiveParticle>; location 0;object  positions;}
2497
(
( -0.000126745 -0.0133205 0.00583799 ) 0 
( -0.00764939 -0.0109412 0.00468535 ) 0 
( -0.00223839 -0.00140759 0.00136491 ) 0 
( -0.0100569 -0.00707716 0.00568248 ) 0 
( -0.0114256 -0.00690474 0.00545561 ) 0 
( -0.0110041 -5.42553e-05 0.0031707 ) 0 
( -0.00227471 -0.00265339 0.00711593 ) 0 
( -0.00576621 -0.00366995 0.0076645 ) 0 
( -0.00196708 -0.00297153 0.00190167 ) 0 
( -0.00377544 -0.00470621 0.00569898 ) 0 
( -0.0133497 -0.000123017 0.00715857 ) 0 
( -0.00163054 -0.00415047 0.00124417 ) 0 
( -0.00905235 -0.00199814 0.00553817 ) 0 
( -0.00810887 -0.0011154 0.00713257 ) 0 
( -0.00373103 -0.00974202 0.00575296 ) 0 
( -1.24422e-05 -0.00299166 0.00235887 ) 0 
( -0.00187002 -0.00896047 0.00289032 ) 0 
( -0.001186 -0.00075221 0.00548922 ) 0 
( -4.56559e-05 -0.0124194 0.0044984 ) 0 
( -0.00444173 -0.0053681 0.00298591 ) 0 
( -0.0078124 -0.00871881 0.00559299 ) 0 
( -0.00389258 -0.00110476 0.000499807 ) 0 
( -0.00649425 -0.010711 0.00546447 ) 0 
( -0.000752445 -0.00458787 0.00384874 ) 0 
( -0.00605537 -0.0068294 0.00441616 ) 0 
( -0.0101429 -0.00320818 0.00298382 ) 0 
( -0.000227877 -0.0091601 0.00219871 ) 0 
( -0.000759183 -0.00712457 0.00210353 ) 0 
( -0.00630446 -0.00547022 0.00146719 ) 0 
( -0.000180528 -0.0112064 0.00468839 ) 0 
( -0.00392318 -0.00566378 0.00131146 ) 0 
( -0.00232635 -0.0065028 0.00532205 ) 0 
( -0.00548149 -0.00453359 0.00810754 ) 0 
( -0.00606936 -0.00889989 0.00515147 ) 0 
( -0.0103577 -0.00671737 0.00122584 ) 0 
( -0.00469175 -0.00989548 0.00598325 ) 0 
( -0.00066815 -0.0114948 0.00199081 ) 0 
( -0.00391323 -0.012764 0.00577601 ) 0 
( -0.00586655 -0.00893704 0.00307265 ) 0 
( -0.00624071 -0.0072765 0.00209023 ) 0 
( -0.0110345 -0.00546663 0.00214906 ) 0 
( -0.00163605 -0.0101007 0.00509393 ) 0 
( -0.0101796 -0.00744218 0.00315976 ) 0 
( -0.00262634 -0.000177221 0.00441258 ) 0 
( -0.00857954 -0.000892657 0.00515555 ) 0 
( -0.00476057 -0.00224691 0.00736148 ) 0 
( -0.0117291 -0.000112211 0.00408899 ) 0 
( -0.0125846 -0.000271415 0.0024911 ) 0 
( -0.00413328 -0.00465002 0.00236195 ) 0 
( -0.00061687 -0.00680362 0.00800058 ) 0 
( -0.00509736 -0.00875663 0.00539619 ) 0 
( -0.0026104 -0.0105652 0.00313536 ) 0 
( -0.00889365 -0.00943258 0.00460589 ) 0 
( -0.0113114 -0.0039225 0.00465269 ) 0 
( -0.004204 -0.0117912 0.00436425 ) 0 
( -0.00257903 -0.0130917 0.00721502 ) 0 
( -0.00325801 -0.0120502 0.00416949 ) 0 
( -0.00521293 -0.000709986 0.00692742 ) 0 
( -0.00728057 -0.00527113 0.00138152 ) 0 
( -0.00902518 -0.00731507 0.000499876 ) 0 
( -0.00203696 -0.00862444 0.00719904 ) 0 
( -0.010332 -0.00174782 0.00758797 ) 0 
( -0.00846587 -0.00646537 0.00247507 ) 0 
( -0.00185255 -0.00588419 0.00718917 ) 0 
( -0.00160604 -0.0092351 0.00459434 ) 0 
( -0.00807272 -0.000734305 0.00108073 ) 0 
( -0.00441106 -0.00018907 0.00384925 ) 0 
( -0.00777993 -0.00340586 0.00135746 ) 0 
( -0.00491338 -0.00125016 0.00771338 ) 0 
( -0.00275539 -0.00554909 0.00692178 ) 0 
( -0.00043307 -0.0110225 0.00307586 ) 0 
( -0.0115628 -0.00462829 0.00201546 ) 0 
( -0.00564716 -0.00169311 0.00548123 ) 0 
( -0.00515296 -0.000995876 0.00432628 ) 0 
( -0.00331626 -0.00926581 0.00199398 ) 0 
( -0.00761006 -0.0109686 0.000499866 ) 0 
( -0.00855051 -0.00906669 0.00743457 ) 0 
( -0.00396255 -0.0012695 0.00461912 ) 0 
( -0.000895546 -0.00578748 0.00746212 ) 0 
( -0.010963 -0.00289819 0.000499705 ) 0 
( -0.00427399 -0.0100238 0.00460025 ) 0 
( -0.012113 -0.00263063 0.00147391 ) 0 
( -0.00372639 -0.012343 0.00138796 ) 0 
( -0.000244835 -9.37789e-05 0.00840429 ) 0 
( -0.000775887 -0.00902159 0.00126037 ) 0 
( -0.00435976 -0.00736428 0.00649504 ) 0 
( -0.00441555 -0.000565335 0.00634228 ) 0 
( -0.00408371 -0.00985401 0.00362638 ) 0 
( -0.00351052 -0.000535648 0.00411197 ) 0 
( -0.00223218 -0.00664813 0.00243947 ) 0 
( -0.00315895 -0.0101652 0.0038802 ) 0 
( -0.00585665 -0.00130192 0.00340457 ) 0 
( -0.00440571 -0.0106631 0.00655615 ) 0 
( -0.00567573 -0.00262389 0.0076112 ) 0 
( -0.00530043 -0.00691115 0.00124864 ) 0 
( -0.00562738 -0.0108553 0.00704022 ) 0 
( -0.00920149 -0.00304978 0.000747925 ) 0 
( -0.0120209 -0.00580736 0.00685742 ) 0 
( -0.00549219 -0.00596145 0.00276561 ) 0 
( -0.00107743 -0.0075767 0.00451774 ) 0 
( -0.0116113 -0.0065881 0.00638574 ) 0 
( -0.0085478 -0.0102548 0.00628329 ) 0 
( -0.0115124 -0.00337596 0.00118491 ) 0 
( -0.00721358 -0.00232869 0.00749115 ) 0 
( -0.00244145 -0.00356564 0.00125212 ) 0 
( -0.00688642 -0.00838703 0.00541359 ) 0 
( -0.000112872 -0.000650824 0.00353853 ) 0 
( -0.00485896 -0.0088179 0.0028546 ) 0 
( -0.00840747 -0.00528086 0.00441036 ) 0 
( -0.00673928 -0.00123302 0.0038704 ) 0 
( -0.00850699 -0.00801933 0.00587637 ) 0 
( -0.00928163 -0.00479501 0.00441218 ) 0 
( -0.00600611 -0.00768443 0.00389362 ) 0 
( -0.0075119 -0.00722118 0.00326973 ) 0 
( -0.00455592 -0.00710913 0.00188612 ) 0 
( -0.00512046 -0.00209625 0.00471779 ) 0 
( -0.0102019 -0.0049272 0.00395997 ) 0 
( -0.00914872 -0.00589854 0.00296099 ) 0 
( -0.00662753 -0.00152801 0.00537521 ) 0 
( -0.00933405 -0.00323133 0.00687646 ) 0 
( -0.00561971 -0.00648223 0.00764011 ) 0 
( -0.0028705 -0.0112424 0.00538104 ) 0 
( -0.0119232 -0.00328101 0.00534834 ) 0 
( -0.0011356 -0.00594211 0.00119984 ) 0 
( -0.00951342 -0.00665921 0.00370406 ) 0 
( -0.00489924 -0.0124187 0.000499806 ) 0 
( -0.00683377 -0.00856839 0.00639546 ) 0 
( -0.00630937 -0.0101511 0.00156579 ) 0 
( -0.000150973 -0.00436721 0.000499752 ) 0 
( -0.00914637 -0.00845996 0.00650569 ) 0 
( -0.0118831 -0.00409007 0.00282308 ) 0 
( -0.00684788 -0.000586478 0.00310337 ) 0 
( -0.000623845 -0.00609371 0.00406265 ) 0 
( -0.00744975 -0.00816632 0.00370488 ) 0 
( -0.0062817 -0.00579161 0.00582295 ) 0 
( -0.00888047 -0.00176253 0.00135738 ) 0 
( -0.00521775 -0.00741336 0.00598413 ) 0 
( -0.00176805 -5.0734e-05 0.0058995 ) 0 
( -0.000295261 -0.0133443 0.000499819 ) 0 
( -0.012435 -0.000849585 0.000499513 ) 0 
( -0.00608716 -0.00282941 0.00448785 ) 0 
( -0.00288734 -0.0123465 0.00312046 ) 0 
( -0.00213189 -0.00460173 0.00501241 ) 0 
( -7.01827e-05 -0.0089514 0.000499699 ) 0 
( -0.0030145 -0.000911976 0.000937498 ) 0 
( -0.0053863 -0.00714992 0.00693366 ) 0 
( -0.00454375 -0.0108368 0.00292178 ) 0 
( -0.000677781 -0.00285383 0.00397236 ) 0 
( -0.00308305 -0.0102141 0.00221005 ) 0 
( -0.00601088 -0.00907078 0.000499881 ) 0 
( -0.0101166 -0.00343322 0.000499882 ) 0 
( -0.0100901 -0.00335816 0.00410175 ) 0 
( -0.00911658 -0.00774019 0.00255348 ) 0 
( -0.00377553 -0.00471984 0.00696715 ) 0 
( -0.00725371 -0.00401772 0.00386962 ) 0 
( -0.00789562 -0.00720714 0.00419274 ) 0 
( -0.00753056 -0.0038849 0.000499862 ) 0 
( -0.00503521 -0.0116212 0.00110933 ) 0 
( -0.00477606 -0.00426339 0.00399581 ) 0 
( -0.00636491 -0.00151781 0.00257094 ) 0 
( -0.00287718 -0.0121337 0.00703366 ) 0 
( -0.00928087 -0.00208449 0.000499718 ) 0 
( -0.00304055 -0.000577916 0.00810341 ) 0 
( -0.00687353 -0.00227307 0.00475555 ) 0 
( -0.00898029 -0.00744509 0.00675797 ) 0 
( -0.0070861 -0.0103582 0.00710725 ) 0 
( -0.00201944 -0.00686772 0.00712569 ) 0 
( -0.00739106 -0.00201618 0.00579733 ) 0 
( -0.00132623 -0.00285446 0.0068712 ) 0 
( -0.0069476 -0.00498789 0.00602266 ) 0 
( -0.00712042 -0.0048633 0.00335109 ) 0 
( -0.0133501 -4.37292e-05 0.00529264 ) 0 
( -0.00714705 -0.00292963 0.000499874 ) 0 
( -0.00950273 -0.00207564 0.00642744 ) 0 
( -0.0131787 -0.00213192 0.00136926 ) 0 
( -9.13913e-05 -0.0103321 0.00516522 ) 0 
( -0.000861749 -0.0124831 0.00383871 ) 0 
( -0.00582044 -0.0101094 0.00382407 ) 0 
( -0.004962 -0.00126768 0.00292898 ) 0 
( -0.00947913 -0.00414604 0.00514689 ) 0 
( -0.000105408 -0.00493951 0.00686216 ) 0 
( -0.0101958 -0.000757733 0.0075755 ) 0 
( -0.00226372 -0.00759085 0.00526386 ) 0 
( -0.00725751 -0.00780553 0.00689275 ) 0 
( -0.00408938 -0.00726952 0.00316043 ) 0 
( -0.0054473 -0.00338917 0.00154102 ) 0 
( -0.000981196 -0.00844559 0.00676405 ) 0 
( -0.00874059 -0.00919332 0.00105269 ) 0 
( -0.00167041 -0.00552509 0.00268424 ) 0 
( -0.00257131 -0.0105316 0.00049988 ) 0 
( -0.00478721 -0.00388069 0.00840821 ) 0 
( -0.00829696 -0.0101772 0.00389719 ) 0 
( -0.00261805 -0.0100001 0.00135107 ) 0 
( -0.00309411 -0.00591572 0.0047177 ) 0 
( -0.00879043 -0.00607593 0.000499712 ) 0 
( -0.00108392 -0.00308659 0.00592941 ) 0 
( -0.0060785 -0.00244739 0.00197118 ) 0 
( -0.0101412 -0.000666253 0.00475271 ) 0 
( -0.00233346 -0.00956026 0.000499618 ) 0 
( -0.00745378 -0.00655001 0.00253096 ) 0 
( -0.00253989 -0.00642761 0.00406154 ) 0 
( -0.00710197 -0.000334094 0.00414498 ) 0 
( -0.00941805 -0.00134868 0.00485731 ) 0 
( -0.00187744 -0.0122224 0.000499883 ) 0 
( -0.00631516 -0.0110816 0.00209079 ) 0 
( -0.0121453 -0.00350488 0.00195804 ) 0 
( -0.00892861 -0.00589363 0.00597229 ) 0 
( -0.00595983 -0.00328022 0.00674558 ) 0 
( -0.00656108 -0.00321761 0.00239673 ) 0 
( -0.00936967 -0.00832326 0.000499876 ) 0 
( -0.0113171 -0.00546931 0.00436604 ) 0 
( -0.00765205 -0.00100023 0.00352962 ) 0 
( -0.00260928 -0.00771703 0.00723604 ) 0 
( -0.00298937 -0.00714718 0.00461759 ) 0 
( -0.00292208 -0.0111107 0.0041031 ) 0 
( -0.00110116 -0.00491845 0.000499734 ) 0 
( -0.00244091 -0.00978513 0.00459179 ) 0 
( -0.00063512 -0.000876484 0.000499844 ) 0 
( -0.000162602 -0.00803273 0.00376053 ) 0 
( -0.00559894 -0.00954392 0.00575396 ) 0 
( -0.00684642 -0.0044803 0.000920962 ) 0 
( -0.00832627 -0.00533997 0.00109313 ) 0 
( -0.00912383 -0.00554286 0.0050568 ) 0 
( -0.0122063 -0.00540696 0.000881738 ) 0 
( -0.00308892 -0.0129875 0.00386094 ) 0 
( -0.00043766 -0.00365956 0.00171317 ) 0 
( -0.00165983 -0.00401156 0.00725247 ) 0 
( -0.00138272 -0.00375776 0.00373692 ) 0 
( -0.0118713 -0.00121909 0.00649547 ) 0 
( -0.00454998 -0.00487035 0.0079376 ) 0 
( -0.00593549 -0.00540255 0.00667648 ) 0 
( -0.00165547 -0.00971759 0.00134609 ) 0 
( -0.00115104 -0.00217214 0.00463694 ) 0 
( -0.0104847 -0.0022489 0.00650004 ) 0 
( -0.00575919 -0.00421911 0.00260858 ) 0 
( -2.08558e-05 -0.00742549 0.00683528 ) 0 
( -0.00467453 -0.00338234 0.00299725 ) 0 
( -0.00460862 -0.00657359 0.00365634 ) 0 
( -0.0103847 -0.00686303 0.00221461 ) 0 
( -0.00105795 -0.0117666 0.00491574 ) 0 
( -0.00455874 -0.00730145 0.00747471 ) 0 
( -0.0100183 -0.00578549 0.00348092 ) 0 
( -0.00355107 -0.00934962 0.00430582 ) 0 
( -0.00747322 -0.0097866 0.00348697 ) 0 
( -0.0086753 -0.00856762 0.00505753 ) 0 
( -0.0090048 -0.00064564 0.00427893 ) 0 
( -0.0132932 -0.0012221 0.0041306 ) 0 
( -0.00513398 -0.0117184 0.00400419 ) 0 
( -0.00658393 -0.000624445 0.00494946 ) 0 
( -0.00409012 -0.0118309 0.000499786 ) 0 
( -0.00635219 -0.00582058 0.00748332 ) 0 
( -0.00402748 -0.00233071 0.00134008 ) 0 
( -0.00210599 -0.0104741 0.00219588 ) 0 
( -0.0047232 -0.00457924 0.00540761 ) 0 
( -0.00196684 -0.00264228 0.00836729 ) 0 
( -0.00824202 -0.00318157 0.000499707 ) 0 
( -0.00299449 -0.00664329 0.00669125 ) 0 
( -0.00270392 -0.0122745 0.00207493 ) 0 
( -0.00503725 -0.00183378 0.00375651 ) 0 
( -0.0113983 -0.00482208 0.00512678 ) 0 
( -0.00221827 -0.00562139 0.000499734 ) 0 
( -0.0109379 -0.00176242 0.00362221 ) 0 
( -0.0121612 -0.00550771 0.00780106 ) 0 
( -0.00290349 -0.0112516 0.00218288 ) 0 
( -0.00479445 -0.00651132 0.00606771 ) 0 
( -0.00144224 -0.00709767 0.00287354 ) 0 
( -0.0077233 -0.00427286 0.0028074 ) 0 
( -0.00925446 -0.000968018 0.00183564 ) 0 
( -0.0108121 -0.00569497 0.00519895 ) 0 
( -0.0106286 -0.00156671 0.00491899 ) 0 
( -0.00577576 -0.00748154 0.00512059 ) 0 
( -0.00311815 -0.0029684 0.00668025 ) 0 
( -0.000719696 -0.00992776 0.000831679 ) 0 
( -0.00476363 -0.0124713 0.0048382 ) 0 
( -0.00621022 -0.000754041 0.0068808 ) 0 
( -0.0100695 -0.000152173 0.00282912 ) 0 
( -0.00429044 -0.00199542 0.00310057 ) 0 
( -0.00612051 -0.00564146 0.000499596 ) 0 
( -0.0132734 -0.00142937 0.000499864 ) 0 
( -0.00273059 -0.00875528 0.00446229 ) 0 
( -0.00790525 -0.00950232 0.00473906 ) 0 
( -0.00816353 -0.00410508 0.00699972 ) 0 
( -0.00251079 -0.000936039 0.00620348 ) 0 
( -0.00557963 -0.00419267 0.00506611 ) 0 
( -0.000354995 -0.00187068 0.00223134 ) 0 
( -0.0034614 -0.00099077 0.00664152 ) 0 
( -0.0110167 -0.00565811 0.00343029 ) 0 
( -0.000549904 -0.00347406 0.00672443 ) 0 
( -0.00884038 -0.000173905 0.00139096 ) 0 
( -0.00329416 -0.00496001 0.00306883 ) 0 
( -0.00576124 -0.00794841 0.00272313 ) 0 
( -0.00130787 -0.00217269 0.00359987 ) 0 
( -0.00940642 -0.00947341 0.00174388 ) 0 
( -0.000938636 -0.00531047 0.00194941 ) 0 
( -0.00398445 -0.00930855 0.00279075 ) 0 
( -0.0090179 -0.0012598 0.00674232 ) 0 
( -0.000408704 -0.00253218 0.00533415 ) 0 
( -0.00190831 -0.00149816 0.00563716 ) 0 
( -0.00551434 -0.00871728 0.00207371 ) 0 
( -0.00401346 -0.00646518 0.00705782 ) 0 
( -0.00913159 -0.00280183 0.00171411 ) 0 
( -0.0113921 -0.00696012 0.0015001 ) 0 
( -0.00738458 -0.0034803 0.00705179 ) 0 
( -0.0102963 -0.00016969 0.00386755 ) 0 
( -0.00434607 -0.0117706 0.00322122 ) 0 
( -0.0024994 -0.00213119 0.00200365 ) 0 
( -0.00814291 -0.00179199 0.00517758 ) 0 
( -0.0084796 -0.00644496 0.00526958 ) 0 
( -0.00134328 -0.00408431 0.00468109 ) 0 
( -0.00355114 -0.00670829 0.00391674 ) 0 
( -0.0127464 -0.00396869 0.00367567 ) 0 
( -0.0058394 -0.000915191 0.00142335 ) 0 
( -0.00799645 -0.00901758 0.00386922 ) 0 
( -0.0131882 -0.00207062 0.00305756 ) 0 
( -0.00784722 -0.00187073 0.00307533 ) 0 
( -0.00443786 -0.00788149 0.00126215 ) 0 
( -0.010011 -0.00500251 0.00181856 ) 0 
( -0.00458848 -0.0125356 0.0038184 ) 0 
( -0.0110178 -0.000901503 0.00178734 ) 0 
( -0.0116261 -0.00641127 0.00235257 ) 0 
( -0.0072741 -0.00591377 0.00581716 ) 0 
( -0.00263356 -0.00750268 0.000771912 ) 0 
( -0.00511075 -0.00150695 0.00107252 ) 0 
( -0.00356331 -0.00735678 0.00709931 ) 0 
( -0.000224275 -0.00528581 0.000887583 ) 0 
( -0.00757588 -0.000727831 0.00538598 ) 0 
( -0.00232554 -0.0123409 0.00394744 ) 0 
( -0.00615587 -0.0118461 0.00273408 ) 0 
( -0.0118211 -0.002181 0.00332261 ) 0 
( -0.00571232 -0.00392883 0.00359932 ) 0 
( -0.00732296 -0.00123911 0.00250439 ) 0 
( -0.000165133 -0.000266433 0.00122831 ) 0 
( -0.00387259 -0.00357009 0.00242168 ) 0 
( -0.00357101 -3.15749e-05 0.00638099 ) 0 
( -0.00720705 -0.000290543 0.000754049 ) 0 
( -0.00291131 -0.0123294 0.000499733 ) 0 
( -0.00245188 -0.00375493 0.00414672 ) 0 
( -0.00191618 -0.00812073 0.00449033 ) 0 
( -0.0122662 -0.00240191 0.00501784 ) 0 
( -0.00755757 -0.00316483 0.00233429 ) 0 
( -0.00824169 -0.0105026 0.00115937 ) 0 
( -0.00897895 -0.00734314 0.00497718 ) 0 
( -0.000455734 -0.00376176 0.00432746 ) 0 
( -0.0076263 -0.00844464 0.00464888 ) 0 
( -0.00551603 -0.00828681 0.0045879 ) 0 
( -0.00656289 -0.00569711 0.00343118 ) 0 
( -0.00341854 -0.00343619 0.00425606 ) 0 
( -0.00438538 -0.0116256 0.00628709 ) 0 
( -0.00136525 -0.00179631 0.00172982 ) 0 
( -0.000352739 -0.0126082 0.00246374 ) 0 
( -0.000470618 -0.00377282 0.00332749 ) 0 
( -0.00870904 -0.00229602 0.00335153 ) 0 
( -0.00330821 -0.0112075 0.00049971 ) 0 
( -0.00718599 -0.00101802 0.00144549 ) 0 
( -0.00498446 -0.0106573 0.00380111 ) 0 
( -0.00236433 -0.00388384 0.00797418 ) 0 
( -0.00920681 -0.00578996 0.00409159 ) 0 
( -0.00719704 -0.00401255 0.00194499 ) 0 
( -0.00358925 -0.002613 0.00219318 ) 0 
( -0.00211791 -0.000617024 0.00515331 ) 0 
( -0.0117806 -0.00419015 0.00580443 ) 0 
( -0.00586309 -0.00138702 0.00801592 ) 0 
( -0.00674675 -0.00235362 0.00296508 ) 0 
( -0.0022417 -0.0131596 0.0056485 ) 0 
( -0.00510995 -0.00147859 0.00629658 ) 0 
( -0.00528482 -0.000483376 0.00345861 ) 0 
( -0.00313307 -0.00781161 0.00632021 ) 0 
( -0.0104064 -0.00245617 0.0023456 ) 0 
( -0.00285538 -0.00685247 0.0032132 ) 0 
( -0.000882587 -0.0014481 0.00824937 ) 0 
( -0.00998867 -0.00559725 0.000499662 ) 0 
( -0.00321594 -0.00432306 0.00384123 ) 0 
( -0.0102391 -0.00717313 0.00416133 ) 0 
( -7.04558e-05 -0.0067983 0.00511966 ) 0 
( -0.0125415 -0.00457536 0.00221376 ) 0 
( -0.010392 -0.00771423 0.00498847 ) 0 
( -0.00123311 -0.00924677 0.00212058 ) 0 
( -0.00650132 -0.00695316 0.00118072 ) 0 
( -0.0106404 -0.00806258 0.00394299 ) 0 
( -0.00830876 -0.00848106 0.000499751 ) 0 
( -0.00125912 -0.00474408 0.00548293 ) 0 
( -0.00478238 -0.00228371 0.0058029 ) 0 
( -0.00762313 -0.00494811 0.000499576 ) 0 
( -0.00110613 -0.00156438 0.00283235 ) 0 
( -0.0102124 -0.00738885 0.000499499 ) 0 
( -0.00292334 -0.00189027 0.00715471 ) 0 
( -0.00073908 -0.0127056 0.00515967 ) 0 
( -0.00657708 -0.0109176 0.00424588 ) 0 
( -0.00317423 -0.00620453 0.00169696 ) 0 
( -0.00044391 -0.0024684 0.00660279 ) 0 
( -0.0115064 -0.00333764 0.00625527 ) 0 
( -0.0128329 -0.00358804 0.000499771 ) 0 
( -0.00435591 -0.00662964 0.00103182 ) 0 
( -0.0077464 -0.00909291 0.00108388 ) 0 
( -0.0052148 -0.00241931 0.00146826 ) 0 
( -0.00418116 -0.0111067 0.00118307 ) 0 
( -0.00306642 -0.00710795 0.00561351 ) 0 
( -0.00612349 -0.00303121 0.00344096 ) 0 
( -0.0084646 -0.00744669 0.00136988 ) 0 
( -0.00778274 -0.00628827 0.00457012 ) 0 
( -0.00880851 -0.0016491 0.00244179 ) 0 
( -0.00717728 -0.000743065 0.00713315 ) 0 
( -0.00709401 -0.00586413 0.00681486 ) 0 
( -0.00585077 -0.00728896 0.000499804 ) 0 
( -0.00743048 -0.00416276 0.0063224 ) 0 
( -0.0052905 -0.00832532 0.00361459 ) 0 
( -0.00741055 -0.00196915 0.00117401 ) 0 
( -0.00528709 -0.00533687 0.003519 ) 0 
( -0.0100177 -0.00126824 0.00673448 ) 0 
( -0.00327724 -0.0016911 0.0015061 ) 0 
( -1.45994e-06 -0.00562717 0.00180058 ) 0 
( -0.00568373 -0.00223634 0.00301316 ) 0 
( -0.00391482 -0.00824346 0.00679958 ) 0 
( -0.00556791 -0.0108165 0.00148155 ) 0 
( -0.0112027 -0.00189027 0.00255921 ) 0 
( -0.00989716 -0.00586808 0.00560072 ) 0 
( -0.00331792 -0.004216 0.000499915 ) 0 
( -0.00106487 -0.00123912 0.0064281 ) 0 
( -0.0114747 -0.00282239 0.00224832 ) 0 
( -0.00320469 -0.00430913 0.00220817 ) 0 
( -0.0131614 -0.00213921 0.00567248 ) 0 
( -0.00949703 -0.00247735 0.0027633 ) 0 
( -0.000193269 -0.0110491 0.00585428 ) 0 
( -9.62139e-05 -0.000287906 0.00743476 ) 0 
( -0.0114924 -0.00185165 0.00155998 ) 0 
( -0.00123654 -0.00983091 0.0071214 ) 0 
( -0.00131722 -0.00410899 0.00631076 ) 0 
( -0.00505936 -0.000697844 0.00205971 ) 0 
( -0.00617403 -0.00558825 0.00441879 ) 0 
( -0.0100372 -0.00265695 0.00729537 ) 0 
( -0.011695 -0.0018249 0.00427254 ) 0 
( -0.00479321 -0.00698705 0.00518582 ) 0 
( -0.00033766 -0.00649659 0.00143873 ) 0 
( -0.00874882 -0.000558314 0.00608257 ) 0 
( -0.0018486 -0.00239624 0.00109247 ) 0 
( -0.0115976 -0.000477044 0.00248601 ) 0 
( -0.0113576 -0.00504176 0.000499689 ) 0 
( -0.00749966 -0.00890928 0.00300814 ) 0 
( -0.00492278 -3.93208e-05 0.00565946 ) 0 
( -0.00344472 -0.0019987 0.000499853 ) 0 
( -0.000731699 -0.011494 0.00390545 ) 0 
( -0.00358213 -0.00329413 0.00132789 ) 0 
( -0.011852 -0.000669745 0.00490985 ) 0 
( -0.0013539 -0.00628412 0.00211369 ) 0 
( -0.00406167 -0.00420294 0.00472308 ) 0 
( -0.00214071 -0.0125429 0.00649537 ) 0 
( -0.0119312 -0.00279669 0.00416241 ) 0 
( -0.00816225 -0.000721681 0.00267114 ) 0 
( -0.000851523 -0.0119314 0.00300495 ) 0 
( -0.00147008 -0.00168535 0.000499708 ) 0 
( -0.00785757 -0.00440114 0.00130282 ) 0 
( -0.00182121 -0.011224 0.000499627 ) 0 
( -0.00143413 -0.0111501 0.00322819 ) 0 
( -0.000808264 -0.0133256 0.00324124 ) 0 
( -0.00373485 -0.00837231 0.0044096 ) 0 
( -0.0113531 -0.00510075 0.00662441 ) 0 
( -0.00477422 -0.00129313 0.00520274 ) 0 
( -0.00336293 -0.00383989 0.00623547 ) 0 
( -0.00785921 -0.000263218 0.00768425 ) 0 
( -0.012558 -0.000526722 0.00360073 ) 0 
( -0.00990479 -0.0021914 0.00462613 ) 0 
( -0.00301981 -0.00919237 0.00531388 ) 0 
( -0.00531295 -0.00404068 0.00646016 ) 0 
( -0.00425153 -0.00886376 0.00364756 ) 0 
( -0.00514415 -0.00604267 0.00687871 ) 0 
( -0.00204399 -0.00345397 0.00651733 ) 0 
( -0.00656077 -0.00157816 0.00732508 ) 0 
( -0.00360512 -0.0105158 0.003047 ) 0 
( -0.00424416 -0.00115768 0.00366529 ) 0 
( -0.00191653 -0.00459206 0.00403586 ) 0 
( -0.000260616 -0.002277 0.00769935 ) 0 
( -0.0130256 -0.00280208 0.00238505 ) 0 
( -0.0104129 -0.00403601 0.00724767 ) 0 
( -0.00164859 -0.0131956 0.00376965 ) 0 
( -0.0065648 -0.00757186 0.00601898 ) 0 
( -0.00838983 -0.000323165 0.00355955 ) 0 
( -0.00404576 -0.00902551 0.00511205 ) 0 
( -0.00412421 -0.00294277 0.00616638 ) 0 
( -0.00136327 -0.00215441 0.00615854 ) 0 
( -0.00450321 -0.00311917 0.00172926 ) 0 
( -0.00498977 -0.0087412 0.00122296 ) 0 
( -0.000449211 -0.0120149 0.00582158 ) 0 
( -0.00645053 -0.00412071 0.00651599 ) 0 
( -0.0110046 -0.00417913 0.00645495 ) 0 
( -0.0122747 -0.00199723 0.00701216 ) 0 
( -0.000772914 -0.0124233 0.000499803 ) 0 
( -0.00754307 -0.00260926 0.00658767 ) 0 
( -0.00473918 -0.00491462 0.00647979 ) 0 
( -0.010872 -0.00238634 0.00440075 ) 0 
( -0.00558476 -0.00323381 0.00261138 ) 0 
( -0.00222534 -0.00196639 0.0039394 ) 0 
( -0.00593621 -0.000596909 0.00269287 ) 0 
( -0.0084525 -0.00437077 0.000499807 ) 0 
( -0.00249487 -0.00300978 0.00481192 ) 0 
( -0.00297713 -0.0095169 0.00636981 ) 0 
( -0.000132133 -0.00998754 0.00281816 ) 0 
( -0.00483043 -0.0116416 0.00539211 ) 0 
( -0.000938045 -0.00248789 0.00840392 ) 0 
( -0.00517145 -0.00282151 0.00367742 ) 0 
( -0.00252561 -0.00195469 0.00499649 ) 0 
( -0.00797248 -0.00745364 0.000499645 ) 0 
( -0.00603287 -0.000553085 0.00411832 ) 0 
( -0.00228542 -0.0131353 0.00049989 ) 0 
( -0.010191 -0.00497408 0.00290585 ) 0 
( -0.00836613 -0.00259015 0.00245955 ) 0 
( -0.00288795 -0.000181725 0.00566641 ) 0 
( -0.000253914 -0.0108765 0.00132315 ) 0 
( -0.00353296 -0.000737125 0.0017743 ) 0 
( -0.0126175 -0.00436107 0.00522345 ) 0 
( -0.00930149 -0.00176189 0.00395433 ) 0 
( -0.0105065 -0.00573514 0.00134354 ) 0 
( -0.00964845 -0.00317477 0.00498013 ) 0 
( -0.0106255 -0.00321666 0.00671211 ) 0 
( -0.00549856 -0.00437154 0.00136187 ) 0 
( -0.00736037 -0.00163564 0.00672184 ) 0 
( -0.00595006 -0.0046173 0.000499781 ) 0 
( -0.00548278 -0.000776858 0.000499677 ) 0 
( -0.00224154 -0.0095921 0.0070429 ) 0 
( -0.00221618 -0.00580963 0.00181034 ) 0 
( -0.0105097 -0.00169804 0.00145799 ) 0 
( -0.00108288 -0.00478936 0.00700498 ) 0 
( -0.0036028 -0.00517608 0.000499575 ) 0 
( -0.00536726 -0.011261 0.00254526 ) 0 
( -0.00679637 -0.00785571 0.0014939 ) 0 
( -0.00610571 -0.00800325 0.00679514 ) 0 
( -0.000889136 -0.00761812 0.00731769 ) 0 
( -0.0131083 -0.00253027 0.00763018 ) 0 
( -0.00620369 -0.009878 0.00499445 ) 0 
( -0.00120031 -0.00687374 0.00381752 ) 0 
( -0.00708006 -0.00325196 0.0032507 ) 0 
( -0.000651213 -0.00497468 0.00799062 ) 0 
( -0.00947094 -0.000297371 0.00544014 ) 0 
( -0.0044994 -0.000406544 0.00483116 ) 0 
( -0.0129165 -0.00329848 0.0062322 ) 0 
( -0.00441279 -0.000831219 0.0013087 ) 0 
( -0.00367155 -0.0021315 0.00653676 ) 0 
( -0.0123923 -0.00190216 0.000499855 ) 0 
( -0.0115553 -0.00031833 0.00619814 ) 0 
( -0.00626861 -4.92415e-05 0.00049987 ) 0 
( -0.000864488 -0.0102073 0.00346248 ) 0 
( -0.000848403 -0.00829001 0.00303538 ) 0 
( -0.00671907 -0.0115362 0.00049993 ) 0 
( -0.00372958 -0.00984316 0.00129 ) 0 
( -0.00138126 -0.00925571 0.000499847 ) 0 
( -0.00943206 -0.00386225 0.00610716 ) 0 
( -0.00348551 -0.0128871 0.00219159 ) 0 
( -0.0107959 -0.00618765 0.000499813 ) 0 
( -0.00814493 -0.00216101 0.000499772 ) 0 
( -0.00920601 -0.00326046 0.00332927 ) 0 
( -0.00525836 -0.00562782 0.00597629 ) 0 
( -0.00213142 -0.00782279 0.00284129 ) 0 
( -0.00650797 -0.00242013 0.00678855 ) 0 
( -0.00774552 -0.0106735 0.00201051 ) 0 
( -0.00228749 -0.0105221 0.00667846 ) 0 
( -0.0127616 -0.00295494 0.00333723 ) 0 
( -0.00674695 -0.00993633 0.00415733 ) 0 
( -0.00346998 -0.010723 0.00712886 ) 0 
( -0.00830274 -0.00601998 0.00356562 ) 0 
( -0.0038588 -0.00616673 0.00313469 ) 0 
( -0.003197 -0.00109271 0.00332467 ) 0 
( -0.00712944 -0.00310231 0.0042535 ) 0 
( -0.00525572 -0.0105672 0.00537966 ) 0 
( -0.00450595 -0.003169 0.0049205 ) 0 
( -0.00438489 -0.000296723 0.0073049 ) 0 
( -0.00564282 -0.0047136 0.00421512 ) 0 
( -0.0114768 -0.00596832 0.00140578 ) 0 
( -0.00684039 -0.00745073 0.00506547 ) 0 
( -0.00258286 -0.00300112 0.00580772 ) 0 
( -0.0106954 -0.00100495 0.000499695 ) 0 
( -0.00815459 -0.0105658 0.00298709 ) 0 
( -0.00353358 -0.0110036 0.00617151 ) 0 
( -0.00153431 -0.00820601 0.00590054 ) 0 
( -0.00315984 -0.00341711 0.00757284 ) 0 
( -0.0023099 -0.00843052 0.00361522 ) 0 
( -0.00584997 -0.0104175 0.00616977 ) 0 
( -0.0100552 -0.00412509 0.00131197 ) 0 
( -0.0010221 -0.00387628 0.000499724 ) 0 
( -0.00802451 -0.00145469 0.00177245 ) 0 
( -0.004366 -0.00335292 0.00394787 ) 0 
( -0.00108237 -0.00846052 0.00498474 ) 0 
( -0.00823748 -0.00811403 0.00207906 ) 0 
( -0.00755718 -0.00474809 0.00462519 ) 0 
( -0.0051532 -0.000165301 0.00121869 ) 0 
( -0.00104607 -0.000103408 0.00777656 ) 0 
( -0.00138355 -0.00322162 0.00779909 ) 0 
( -0.00206864 -0.00759403 0.00180338 ) 0 
( -0.0109169 -0.00767542 0.0058388 ) 0 
( -0.00604069 -0.00149935 0.00456628 ) 0 
( -0.00137303 -0.00721945 0.00552466 ) 0 
( -0.0017384 -0.00514496 0.00123617 ) 0 
( -0.000799305 -0.00928811 0.00307407 ) 0 
( -0.00133349 -0.0122251 0.00214461 ) 0 
( -0.00988225 -0.00409069 0.0033834 ) 0 
( -0.00358063 -0.00859155 0.00588343 ) 0 
( -0.00450689 -0.00567338 0.000499745 ) 0 
( -0.00487942 -0.00253417 0.00249834 ) 0 
( -0.00795226 -0.0107214 0.00561239 ) 0 
( -0.00538409 -0.00690712 0.00245839 ) 0 
( -0.00842547 -0.00909548 0.00199647 ) 0 
( -0.00599221 -0.00839944 0.00125449 ) 0 
( -0.00264435 -0.0114299 0.0063366 ) 0 
( -0.00144037 -0.0101151 0.00611562 ) 0 
( -0.00166935 -0.012349 0.00552477 ) 0 
( -0.0109081 -0.00390168 0.00178349 ) 0 
( -0.00473395 -0.00517041 0.00441403 ) 0 
( -5.5854e-05 -0.00942472 0.00559129 ) 0 
( -0.00245243 -0.00443745 0.00320591 ) 0 
( -0.001136 -0.0124325 0.00641621 ) 0 
( -0.0110408 -0.00396759 0.000499772 ) 0 
( -0.0029083 -0.00811535 0.00165267 ) 0 
( -0.00612494 -0.00363278 0.00049969 ) 0 
( -0.0082153 -0.00808534 0.0068302 ) 0 
( -0.00959168 -0.00120929 0.00583198 ) 0 
( -0.00822137 -0.00372003 0.00404431 ) 0 
( -0.00399706 -0.00731734 0.00457241 ) 0 
( -0.00256575 -0.00567076 0.00809952 ) 0 
( -0.010081 -0.00591051 0.00223135 ) 0 
( -0.00589882 -0.00893364 0.00648793 ) 0 
( -0.00176126 -0.00137954 0.00461345 ) 0 
( -0.00675414 -0.0115154 0.00346405 ) 0 
( -0.00655323 -0.00823536 0.00326363 ) 0 
( -0.00190839 -0.00160952 0.00681649 ) 0 
( -0.00530585 -0.00525111 0.000927491 ) 0 
( -0.00228245 -0.00157645 0.00302048 ) 0 
( -0.00757156 -0.00673223 0.00106387 ) 0 
( -0.0082763 -0.00902865 0.0064596 ) 0 
( -0.00383438 -0.0117335 0.0071242 ) 0 
( -0.000696507 -0.0093888 0.00635811 ) 0 
( -0.00380246 -0.00663293 0.00609524 ) 0 
( -0.000696107 -0.0105893 0.00658577 ) 0 
( -2.72631e-05 -0.00788324 0.000499733 ) 0 
( -0.0101515 -0.00588869 0.00446651 ) 0 
( -0.00949146 -0.00525544 0.0069776 ) 0 
( -0.0101895 -0.0032775 0.00581455 ) 0 
( -0.00552632 -0.0109997 0.000499629 ) 0 
( -0.00404045 -0.00587693 0.00417962 ) 0 
( -0.00215502 -0.000369709 0.00133163 ) 0 
( -0.0106463 -0.00320712 0.00492511 ) 0 
( -0.00253287 -0.00508598 0.00243297 ) 0 
( -0.00701246 -0.00673293 0.00632724 ) 0 
( -0.0124223 -0.00142817 0.00302852 ) 0 
( -0.00533061 -0.00780032 0.0017049 ) 0 
( -0.00957687 -0.00610062 0.00138908 ) 0 
( -0.00770569 -0.00337196 0.00576553 ) 0 
( -0.00883474 -0.00418617 0.00339996 ) 0 
( -0.0067656 -0.0105219 0.00334708 ) 0 
( -0.00530163 -0.0122522 0.00312686 ) 0 
( -0.0100509 -0.00505265 0.00500567 ) 0 
( -0.00329661 -0.00245584 0.00458869 ) 0 
( -0.00112084 -0.0116053 0.00110257 ) 0 
( -0.00588078 -0.000681468 0.00593955 ) 0 
( -0.00731411 -0.00798988 0.00266178 ) 0 
( -0.00331583 -0.00338859 0.00524935 ) 0 
( -0.00359081 -0.0046582 0.00135458 ) 0 
( -0.00241255 -0.00464051 0.000500099 ) 0 
( -0.00220621 -0.00959042 0.00573748 ) 0 
( -0.00456402 -0.0095097 0.00172843 ) 0 
( -0.0133135 -0.000987964 0.00313565 ) 0 
( -0.00831118 -0.00347375 0.0029325 ) 0 
( -0.0106613 -0.00650767 0.00694194 ) 0 
( -0.00307392 -0.00835811 0.000499811 ) 0 
( -0.0109204 -0.00383133 0.00290003 ) 0 
( -0.00762713 -0.00376038 0.00484754 ) 0 
( -0.00921911 -0.00476865 0.00249252 ) 0 
( -0.011685 -0.00101303 0.00356122 ) 0 
( -0.00627989 -0.0117802 0.00136483 ) 0 
( -0.00698006 -0.00757627 0.000499875 ) 0 
( -0.00822161 -0.00146184 0.00616915 ) 0 
( -0.00687668 -0.00900782 0.00380991 ) 0 
( -0.0103085 -0.00464996 0.000499681 ) 0 
( -0.00881013 -0.00864474 0.00285251 ) 0 
( -0.0113029 -0.00249566 0.0052966 ) 0 
( -0.00742903 -0.00123155 0.000499491 ) 0 
( -0.0109891 -0.00758058 0.00256056 ) 0 
( -0.00198088 -0.00311568 0.00325761 ) 0 
( -0.0122833 -0.00372482 0.00452785 ) 0 
( -0.000339314 -0.000519058 0.00599871 ) 0 
( -0.00315971 -0.00572546 0.00369792 ) 0 
( -0.007321 -0.00137815 0.00467061 ) 0 
( -0.00910008 -0.00481733 0.00145037 ) 0 
( -0.00778451 -0.00593483 0.000499731 ) 0 
( -0.00922444 -0.00289986 0.00593408 ) 0 
( -0.000949942 -0.00265646 0.00202559 ) 0 
( -0.00289655 -0.00596122 0.00276159 ) 0 
( -0.00815624 -0.00290406 0.00732008 ) 0 
( -0.00537778 -0.00816995 0.000499797 ) 0 
( -0.00175014 -0.000940478 0.00210195 ) 0 
( -0.000718733 -0.00967255 0.00475166 ) 0 
( -0.00881951 -0.0100223 0.000499682 ) 0 
( -0.00136228 -0.00691139 0.00133506 ) 0 
( -0.00305847 -0.00426302 0.00483904 ) 0 
( -0.00292243 -0.00510397 0.00536204 ) 0 
( -0.00310334 -0.00811972 0.00514245 ) 0 
( -0.0100643 -0.00412305 0.00239614 ) 0 
( -0.0120965 -0.00160912 0.00560293 ) 0 
( -0.0038265 -0.000627177 0.00553705 ) 0 
( -0.00517587 -0.00734185 0.00433302 ) 0 
( -0.00146982 -0.00827934 0.0022177 ) 0 
( -0.00813413 -0.00499712 0.00205647 ) 0 
( -0.00341128 -0.00695549 0.00108087 ) 0 
( -0.00226009 -0.00716373 0.00620167 ) 0 
( -0.0108745 -0.0077444 0.00115855 ) 0 
( -0.00583329 -0.0120079 0.000499784 ) 0 
( -0.00168772 -0.00465435 0.00210591 ) 0 
( -0.00714303 -0.0112784 0.0014178 ) 0 
( -0.00772525 -0.00810266 0.00121868 ) 0 
( -0.00136097 -0.00878909 0.00373384 ) 0 
( -0.0111704 -0.00731116 0.00449797 ) 0 
( -0.00370302 -0.00679299 0.00237085 ) 0 
( -0.000755447 -0.00113039 0.00465455 ) 0 
( -0.00453318 -0.000213123 0.00285703 ) 0 
( -0.00445066 -0.00199287 0.000499706 ) 0 
( -0.00757705 -0.00734494 0.00185395 ) 0 
( -0.0053257 -0.0034734 0.00441967 ) 0 
( -0.00789572 -0.00593527 0.00180601 ) 0 
( -0.010892 -0.00102316 0.00295053 ) 0 
( -0.00204931 -0.0047851 0.00675033 ) 0 