FoamFile
{version 2.0; format ascii;class Cloud<passiveParticle>; location 0;object  positions;}
2498
(
( 0.00164171 -0.00391787 0.00610629 ) 0 
( 0.000402359 -0.00501917 0.00510356 ) 0 
( 0.0124452 -0.000896166 0.00355408 ) 0 
( 0.000120718 -0.0133497 0.00517064 ) 0 
( 0.0109753 -0.00404561 0.00459005 ) 0 
( 0.00321035 -0.00405006 0.00551759 ) 0 
( 0.00491569 -0.00361848 0.000499513 ) 0 
( 0.00526533 -0.0122674 0.00236044 ) 0 
( 0.00437521 -0.00419417 0.00701459 ) 0 
( 0.00831138 -0.00578911 0.00411005 ) 0 
( 0.00457366 -0.00146927 0.00592026 ) 0 
( 0.0102143 -0.00707297 0.00640972 ) 0 
( 0.0051188 -0.00870489 0.00498389 ) 0 
( 0.00482845 -0.0105113 0.000499651 ) 0 
( 0.00505578 -0.00527782 0.00397197 ) 0 
( 0.00910913 -0.00847995 0.00410695 ) 0 
( 0.0092267 -0.00205379 0.00049977 ) 0 
( 0.0122128 -0.00251838 0.00599406 ) 0 
( 0.00463543 -0.00602981 0.00726753 ) 0 
( 0.00224093 -0.0131608 0.00232179 ) 0 
( 0.00517395 -0.00144709 0.00147912 ) 0 
( 0.00750732 -0.00481661 0.000499662 ) 0 
( 0.00895987 -0.00419013 0.00630755 ) 0 
( 0.00400114 -0.00129375 0.00314135 ) 0 
( 0.00103657 -0.00699937 0.00550651 ) 0 
( 0.0102242 -0.00752642 0.0022147 ) 0 
( 0.000966291 -0.00329983 0.00289773 ) 0 
( 0.00376066 -0.00648016 0.00709061 ) 0 
( 0.00416426 -0.00693102 0.00614571 ) 0 
( 0.00895227 -0.00277078 0.0012993 ) 0 
( 0.000642823 -0.00978345 0.00147556 ) 0 
( 4.03574e-05 -0.00734488 0.00278188 ) 0 
( 0.00492818 -0.00381379 0.00587431 ) 0 
( 0.00923803 -0.0021222 0.00379629 ) 0 
( 0.00904597 -0.0029525 0.00327238 ) 0 
( 0.013338 -0.000566492 0.00480541 ) 0 
( 0.00626329 -0.000957679 0.000499735 ) 0 
( 0.0112707 -0.00424545 0.00201856 ) 0 
( 0.00763689 -0.0109499 0.00127674 ) 0 
( 0.00738528 -0.00747537 0.0054237 ) 0 
( 0.00018214 -0.00471553 0.0081288 ) 0 
( 0.0041131 -0.00436052 0.00606431 ) 0 
( 0.00560489 -0.0111756 0.00673879 ) 0 
( 0.00134259 -0.00864749 0.00221039 ) 0 
( 0.00761875 -0.00843991 0.00530214 ) 0 
( 0.0077272 -0.00100229 0.000499669 ) 0 
( 0.00341218 -0.00034872 0.000499793 ) 0 
( 8.86174e-05 -0.00105001 0.00561719 ) 0 
( 0.00834257 -0.00982938 0.00349155 ) 0 
( 0.00417139 -0.0051724 0.00704608 ) 0 
( 0.00456227 -0.00737494 0.00364026 ) 0 
( 0.0133228 -0.000856566 0.00667228 ) 0 
( 0.00231451 -0.0112697 0.00648006 ) 0 
( 0.00184721 -0.00553893 0.00533762 ) 0 
( 0.00757226 -0.00372498 0.000499801 ) 0 
( 0.000579537 -0.000738695 0.000499717 ) 0 
( 0.00939984 -0.00948046 0.000499563 ) 0 
( 0.00860453 -0.00904266 0.00245418 ) 0 
( 0.00314916 -0.00615714 0.0040668 ) 0 
( 0.0120389 -0.00349616 0.00582692 ) 0 
( 0.00154505 -0.00718744 0.0022314 ) 0 
( 0.00717712 -0.00114826 0.00521964 ) 0 
( 0.00793013 -0.0107395 0.00353094 ) 0 
( 0.00825445 -0.00149866 0.00571119 ) 0 
( 0.00937898 -0.00501612 0.00497701 ) 0 
( 0.00399241 -0.00120919 0.00514932 ) 0 
( 0.00888059 -0.00404247 0.00464747 ) 0 
( 0.000966411 -0.0104175 0.00696141 ) 0 
( 0.00559939 -0.00907416 0.00577931 ) 0 
( 0.00370773 -0.00354892 0.00208466 ) 0 
( 0.00244247 -0.00685337 0.000499769 ) 0 
( 0.00831822 -0.0074544 0.00049981 ) 0 
( 0.0107379 -0.00345353 0.00378674 ) 0 
( 0.00602812 -0.00263578 0.00585714 ) 0 
( 0.00700108 -0.00108788 0.00321282 ) 0 
( 0.0036335 -0.00129785 0.00667639 ) 0 
( 0.011647 -0.00466357 0.00284947 ) 0 
( 0.000448673 -0.00244484 0.00292347 ) 0 
( 0.00926348 -0.00726186 0.00616441 ) 0 
( 0.00178992 -0.00349397 0.00390461 ) 0 
( 0.00985104 -0.00425886 0.00675499 ) 0 
( 0.0072623 -0.00699231 0.000499691 ) 0 
( 0.00472109 -0.00395399 0.00206153 ) 0 
( 0.0021243 -0.0123599 0.00645479 ) 0 
( 0.00867594 -0.00887085 0.0061519 ) 0 
( 0.000505935 -0.0123408 0.0004998 ) 0 
( 0.00922645 -0.00160175 0.00550201 ) 0 
( 0.0109612 -0.00501585 0.00109735 ) 0 
( 0.00519691 -0.00520991 0.00715522 ) 0 
( 0.00332756 -0.00752907 0.0004998 ) 0 
( 0.00947964 -0.00825696 0.00500869 ) 0 
( 0.00153823 -0.0109297 0.00514229 ) 0 
( 0.00201501 -0.00505022 0.00385403 ) 0 
( 0.0011065 -0.00391981 0.00210053 ) 0 
( 0.00183591 -0.0105489 0.000499625 ) 0 
( 0.00540149 -0.00706743 0.00482309 ) 0 
( 0.0023389 -0.00516453 0.00106349 ) 0 
( 0.00727875 -0.00916294 0.00470113 ) 0 
( 0.0044663 -0.0123649 0.00138414 ) 0 
( 0.00161088 -0.00642004 0.00492842 ) 0 
( 0.00456583 -0.011476 0.000499831 ) 0 
( 0.000543735 -0.0037097 0.00742523 ) 0 
( 0.0106526 -0.00628321 0.00135504 ) 0 
( 0.0038034 -0.00291476 0.00356856 ) 0 
( 0.00137847 -0.00171688 0.00763481 ) 0 
( 0.002905 -0.00774433 0.00586187 ) 0 
( 0.0117548 -0.00441103 0.00115949 ) 0 
( 0.00579844 -0.0078006 0.00117436 ) 0 
( 0.00765411 -0.00436615 0.00514637 ) 0 
( 0.00108691 -0.0133057 0.000499825 ) 0 
( 0.00195251 -0.00598174 0.000499708 ) 0 
( 0.00655818 -0.00270818 0.00702026 ) 0 
( 0.000171156 -0.00107277 0.00415546 ) 0 
( 0.0118582 -0.00613037 0.001429 ) 0 
( 0.00432831 -0.0021476 0.00522806 ) 0 
( 0.00188762 -0.0114386 0.000952724 ) 0 
( 0.00446897 -0.00564023 0.00508283 ) 0 
( 0.0118224 -0.00620027 0.00441306 ) 0 
( 0.00656877 -0.00447241 0.000499781 ) 0 
( 0.0109556 -0.00261141 0.00682489 ) 0 
( 0.00276045 -0.00489149 0.00517689 ) 0 
( 0.00805742 -0.00994674 0.00635919 ) 0 
( 0.00508122 -0.00462111 0.00136034 ) 0 
( 0.000971228 -0.0033433 0.00465523 ) 0 
( 0.00778041 -0.00495489 0.00433562 ) 0 
( 0.00296026 -0.00699482 0.00677233 ) 0 
( 0.00832497 -0.00436119 0.000851475 ) 0 
( 0.00308818 -0.00976771 0.00202172 ) 0 
( 0.00687493 -0.00966824 0.00691953 ) 0 
( 0.007838 -0.00992863 0.00119501 ) 0 
( 0.0104034 -0.005294 0.00630746 ) 0 
( 0.00113518 -0.00878696 0.00557462 ) 0 
( 0.0042893 -0.0014428 0.00194481 ) 0 
( 0.00266626 -0.0107398 0.00462835 ) 0 
( 0.0116536 -0.00116723 0.00647537 ) 0 
( 0.00760551 -0.00936473 0.00568336 ) 0 
( 0.00699474 -0.00324845 0.00496319 ) 0 
( 0.010024 -0.00568635 0.00546997 ) 0 
( 0.013167 -0.00220345 0.00586707 ) 0 
( 0.00923444 -0.00740031 0.00228038 ) 0 
( 0.00586602 -0.0100605 0.000976341 ) 0 
( 0.00901491 -0.00672088 0.000499781 ) 0 
( 0.00380737 -0.0111044 0.00198348 ) 0 
( 0.00330445 -0.00504865 0.00652917 ) 0 
( 0.00471339 -0.00990115 0.00287249 ) 0 
( 0.009605 -0.00687736 0.00317365 ) 0 
( 0.00363434 -0.0098247 0.00294037 ) 0 
( 0.00654801 -0.00635078 0.00614986 ) 0 
( 0.0102391 -0.00260082 0.00612794 ) 0 
( 0.00431506 -0.00486375 0.0019553 ) 0 
( 0.0104769 -0.00485072 0.00196091 ) 0 
( 0.00449229 -0.00438099 0.00360874 ) 0 
( 0.00563292 -0.00045371 0.00298018 ) 0 
( 0.00213793 -0.00121394 0.00133 ) 0 
( 0.00926306 -0.00694257 0.00711185 ) 0 
( 0.00897078 -0.00123858 0.00337883 ) 0 
( 0.00617683 -0.000437297 0.00134908 ) 0 
( 0.000207732 -0.00651747 0.00779429 ) 0 
( 0.00627994 -0.0084391 0.00301116 ) 0 
( 2.83265e-05 -0.00539794 0.00322784 ) 0 
( 0.00229313 -0.00867181 0.00327933 ) 0 
( 0.00287898 -0.013036 0.00621979 ) 0 
( 0.000351684 -0.000493439 0.00207838 ) 0 
( 0.000903388 -0.00327977 0.00587005 ) 0 
( 0.00289021 -0.00975943 0.000499709 ) 0 
( 0.00384061 -0.0108139 0.00639609 ) 0 
( 0.013216 -0.00188689 0.0030691 ) 0 
( 0.0012865 -0.00516847 0.00745093 ) 0 
( 0.00598937 -0.00153907 0.00353332 ) 0 
( 0.00539355 -0.00910354 0.000499615 ) 0 
( 0.0028903 -0.0064054 0.00757682 ) 0 
( 0.0126577 -0.00424456 0.00618341 ) 0 
( 0.000774495 -0.00385794 0.000499605 ) 0 
( 0.00110597 -0.00557388 0.00461538 ) 0 
( 0.00724123 -0.00817748 0.00312033 ) 0 
( 0.00411745 -0.00205002 0.00396013 ) 0 
( 0.00653113 -0.00751575 0.00271976 ) 0 
( 0.00199894 -0.00272004 0.00157852 ) 0 
( 0.00507001 -0.00724498 0.00157467 ) 0 
( 0.000156758 -0.0055443 0.00757083 ) 0 
( 0.010565 -0.00816139 0.000499737 ) 0 
( 0.000485971 -0.0095977 0.00732871 ) 0 
( 0.0123126 -0.00189277 0.00230174 ) 0 
( 0.00167503 -0.00170764 0.0057596 ) 0 
( 0.00220832 -0.00692296 0.00153144 ) 0 
( 0.000261787 -0.00401011 0.00272926 ) 0 
( 0.000435451 -0.00418182 0.00455777 ) 0 
( 0.00370888 -0.00354179 0.00737553 ) 0 
( 0.00652698 -8.71053e-05 0.00639324 ) 0 
( 0.0104743 -0.00367877 0.0056739 ) 0 
( 0.00294535 -0.00583171 0.00149564 ) 0 
( 0.00458232 -0.00472087 0.000499664 ) 0 
( 0.0046738 -0.0114081 0.00158729 ) 0 
( 0.00325099 -0.0106513 0.00128713 ) 0 
( 0.0108543 -0.0021206 0.000499795 ) 0 
( 0.00885719 -0.00998871 0.00116809 ) 0 
( 0.00290875 -0.0122489 0.00466911 ) 0 
( 0.000980085 -0.00799138 0.00688792 ) 0 
( 0.0106977 -0.00260567 0.00432472 ) 0 
( 0.0085844 -0.00500033 0.00676738 ) 0 
( 0.0022944 -0.00895395 0.00219823 ) 0 
( 0.000889925 -0.00389864 0.00371327 ) 0 
( 0.00801499 -0.0011045 0.00382492 ) 0 
( 0.00197312 -0.0103856 0.00585957 ) 0 
( 0.0115168 -0.00343708 0.00141129 ) 0 
( 0.0028729 -0.0104627 0.00628983 ) 0 
( 0.00238501 -0.0101519 0.00126819 ) 0 
( 0.00687948 -0.00967052 0.00131406 ) 0 
( 0.00972954 -0.00450877 0.00418985 ) 0 
( 0.00711242 -0.011298 0.000499832 ) 0 
( 0.000783105 -0.00797884 0.00508777 ) 0 
( 0.010037 -0.00580433 0.0044773 ) 0 
( 0.00273098 -0.00131885 0.00454999 ) 0 
( 0.00544386 -0.000636622 0.00199921 ) 0 
( 0.00739376 -0.00638787 0.00668838 ) 0 
( 0.00765158 -0.00165868 0.00269125 ) 0 
( 0.00695994 -0.00878627 0.00177391 ) 0 
( 0.00881887 -0.00752252 0.00414718 ) 0 
( 0.00242084 -0.00418863 0.0035151 ) 0 
( 0.0100607 -0.00875882 0.00364837 ) 0 
( 0.00740028 -0.0101448 0.00509225 ) 0 
( 0.00929718 -0.00473199 0.00325866 ) 0 
( 0.00654675 -0.00605917 0.00710625 ) 0 
( 0.010221 -0.0068483 0.00738392 ) 0 
( 0.00556192 -0.00910702 0.00279528 ) 0 
( 0.00593803 -0.00287796 0.00103752 ) 0 
( 0.00517417 -0.00468771 0.00630306 ) 0 
( 0.00968698 -0.0047351 0.00589021 ) 0 
( 0.00159188 -0.00769205 0.00136358 ) 0 
( 0.00696347 -0.0016087 0.00196208 ) 0 
( 0.00466401 -0.00272195 0.00445979 ) 0 
( 0.00740577 -0.00933656 0.000499727 ) 0 
( 0.00254951 -0.00796387 0.00147884 ) 0 
( 0.00166234 -0.0132463 0.00643321 ) 0 
( 0.00585598 -0.0105613 0.00599095 ) 0 
( 0.00638743 -0.0113027 0.00542197 ) 0 
( 0.000308927 -0.0111104 0.00302406 ) 0 
( 0.00128957 -0.00332677 0.00120615 ) 0 
( 0.000815154 -0.0101547 0.00315185 ) 0 
( 0.00230427 -0.00426206 0.0045476 ) 0 
( 0.0077164 -0.00387301 0.00426497 ) 0 
( 0.0120483 -0.000384962 0.00431668 ) 0 
( 0.00183234 -0.0120665 0.0037613 ) 0 
( 0.0094387 -0.0082408 0.00600764 ) 0 
( 0.00956316 -0.000804169 0.00494104 ) 0 
( 0.00468078 -0.0104684 0.00454247 ) 0 
( 0.000670128 -0.0014245 0.00228661 ) 0 
( 0.00328441 -0.00202371 0.00824571 ) 0 
( 0.0041153 -0.00368612 0.00298932 ) 0 
( 0.0130452 -0.00280334 0.00349142 ) 0 
( 0.00267628 -0.00953164 0.00291973 ) 0 
( 0.00314211 -0.00676924 0.00120912 ) 0 
( 0.00570891 -0.0111958 0.00399482 ) 0 
( 0.00765319 -0.00029079 0.00147251 ) 0 
( 0.00512402 -0.00261502 0.000499799 ) 0 
( 0.0020082 -0.00711052 0.0031144 ) 0 
( 0.0117844 -0.000563848 0.00568896 ) 0 
( 0.00984506 -0.0078404 0.00329586 ) 0 
( 0.0080495 -0.00223628 0.00197861 ) 0 
( 0.00899583 -0.00503681 0.00127699 ) 0 
( 0.005422 -0.00317462 0.00527241 ) 0 
( 0.00173291 -0.0012537 0.00320414 ) 0 
( 0.0063768 -0.00964018 0.00605318 ) 0 
( 0.00881888 -0.00555607 0.00295502 ) 0 
( 0.000660546 -0.00292725 0.00377378 ) 0 
( 0.00783621 -0.00470788 0.00617247 ) 0 
( 0.000641581 -0.00807013 0.00102103 ) 0 
( 0.00296265 -0.00251979 0.00413824 ) 0 
( 0.00571095 -0.00343673 0.00636876 ) 0 
( 0.00482003 -0.00252463 0.00606561 ) 0 
( 0.00595315 -0.000363804 0.0078706 ) 0 
( 0.0132524 -0.00161191 0.00210774 ) 0 
( 0.00490968 -0.0026239 0.00743649 ) 0 
( 0.0130507 -0.00278937 0.000499781 ) 0 
( 0.00706046 -0.000206052 0.00555617 ) 0 
( 0.0098552 -0.00170687 0.00635874 ) 0 
( 0.00634692 -0.00732172 0.00602185 ) 0 
( 0.0101976 -0.00861592 0.00131328 ) 0 
( 0.0112548 -0.000232786 0.00245673 ) 0 
( 0.00733079 -0.0105343 0.00671474 ) 0 
( 0.00068989 -0.00272113 0.00738803 ) 0 
( 0.00462115 -0.00326825 0.00672832 ) 0 
( 0.002147 -0.00485723 0.00785341 ) 0 
( 0.0103685 -0.00840939 0.00266127 ) 0 
( 0.00306029 -0.0129915 0.000499669 ) 0 
( 0.00443779 -0.00576032 0.00255161 ) 0 
( 0.0124791 -0.000934336 0.00253125 ) 0 
( 0.0074857 -0.00924488 0.00345328 ) 0 
( 0.0013218 -0.00844161 0.00321484 ) 0 
( 0.0113671 -0.00700101 0.00141332 ) 0 
( 0.00596734 -0.00453528 0.00329004 ) 0 
( 0.00776562 -0.00230208 0.00537185 ) 0 
( 0.00684288 -0.0104995 0.00584278 ) 0 
( 0.00691685 -0.00174932 0.000499796 ) 0 
( 0.00798949 -0.00149027 0.00474709 ) 0 
( 0.00417166 -0.0126816 0.005006 ) 0 
( 0.00234466 -0.00533033 0.00211831 ) 0 
( 0.0101849 -0.00480994 0.000499801 ) 0 
( 0.00314228 -0.00603158 0.00644582 ) 0 
( 0.00307816 -0.000466581 0.00213893 ) 0 
( 0.00537846 -0.00765105 0.0024348 ) 0 
( 0.00231991 -0.00581449 0.00315262 ) 0 
( 0.00936848 -0.00666978 0.0041746 ) 0 
( 0.00432622 -0.00806098 0.001623 ) 0 
( 0.00821731 -0.00727214 0.0049057 ) 0 
( 0.000432485 -0.00484149 0.00616414 ) 0 
( 0.00117588 -0.00556012 0.00360348 ) 0 
( 0.010232 -0.00191857 0.00373118 ) 0 
( 0.00148313 -0.00319516 0.0077693 ) 0 
( 0.0132919 -0.00124497 0.00403605 ) 0 
( 0.00248579 -0.00344628 0.00585157 ) 0 
( 0.00713167 -0.00256484 0.0022036 ) 0 
( 0.00332119 -0.00572864 0.00317153 ) 0 
( 0.00189689 -0.00828429 0.00718556 ) 0 
( 0.0060933 -0.00354122 0.0046063 ) 0 
( 0.00364887 -0.00510396 0.00558342 ) 0 
( 0.00611964 -0.00257322 0.00485553 ) 0 
( 0.00764699 -0.0107842 0.00253305 ) 0 
( 0.000120461 -0.0124882 0.00568394 ) 0 
( 0.00605976 -0.0044153 0.00135838 ) 0 
( 0.00382639 -0.00020137 0.00380158 ) 0 
( 0.0130183 -0.00295859 0.0049832 ) 0 
( 0.00161777 -0.00998611 0.00372439 ) 0 
( 0.0124754 -0.00212905 0.00511156 ) 0 
( 0.000631514 -0.00650036 0.00474027 ) 0 
( 0.00448315 -0.0108127 0.00546003 ) 0 
( 0.00114298 -0.00654968 0.00333985 ) 0 
( 0.0100644 -0.00406726 0.00771241 ) 0 
( 0.0128192 -0.00372736 0.000757627 ) 0 
( 0.00958767 -0.00544902 0.00213126 ) 0 
( 0.00349747 -0.00428685 0.00349668 ) 0 
( 0.000878969 -0.0132964 0.00372598 ) 0 
( 0.00190243 -0.00942813 0.0055798 ) 0 
( 0.00701665 -0.0113574 0.00305823 ) 0 
( 0.00269199 -0.0121848 0.00565054 ) 0 
( 0.00662461 -0.00195338 0.00283732 ) 0 
( 0.00460143 -0.012532 0.00411571 ) 0 
( 0.00773138 -0.00548602 0.00695795 ) 0 
( 0.00137168 -0.00208627 0.00278441 ) 0 
( 0.00836274 -0.00437036 0.00338132 ) 0 
( 0.0126195 -0.00152798 0.00690364 ) 0 
( 0.00983403 -0.000722017 0.00306596 ) 0 
( 0.00875485 -0.0080534 0.00674385 ) 0 
( 0.00391856 -0.00354651 0.000500806 ) 0 
( 0.00394844 -0.0023977 0.000499786 ) 0 
( 0.00214711 -0.00760285 0.00649808 ) 0 
( 0.0062859 -0.00986273 0.00209534 ) 0 
( 0.00440831 -0.000436016 0.000499718 ) 0 
( 0.00545499 -0.00977092 0.00653314 ) 0 
( 0.000751512 -0.00219303 0.00825104 ) 0 
( 0.00280889 -0.00885073 0.00642585 ) 0 
( 0.00755641 -0.00204754 0.00695025 ) 0 
( 0.000498916 -0.00881419 0.0016755 ) 0 
( 0.0109913 -0.00487259 0.00549217 ) 0 
( 0.00558816 -0.00466775 0.000499776 ) 0 
( 0.000689104 -0.0116476 0.00585885 ) 0 
( 0.00921832 -0.00723289 0.00501687 ) 0 
( 0.000444752 -0.00505548 0.00407167 ) 0 
( 0.000290734 -0.00061974 0.00326838 ) 0 
( 0.0103671 -0.00839352 0.00455744 ) 0 
( 0.000340562 -0.00700218 0.000499628 ) 0 
( 0.000449047 -0.00279869 0.00132603 ) 0 
( 0.00469144 -0.00658142 0.00533653 ) 0 
( 0.0115323 -0.00121459 0.00237321 ) 0 
( 0.00331186 -0.00977925 0.00687245 ) 0 
( 0.009334 -0.00795978 0.00128309 ) 0 
( 0.0101463 -0.00524457 0.00365609 ) 0 
( 0.00870745 -0.00119965 0.000499514 ) 0 
( 0.0105495 -0.00136092 0.00452976 ) 0 
( 0.00328079 -0.0107976 0.00384169 ) 0 
( 0.000838732 -0.00168162 0.00679408 ) 0 
( 0.00359685 -0.00204144 0.00139245 ) 0 
( 9.68289e-05 -0.00459323 0.000499741 ) 0 
( 0.0038306 -0.00746326 0.00692344 ) 0 
( 0.00319194 -0.00415064 0.00134052 ) 0 
( 0.0117862 -0.0041998 0.00516295 ) 0 
( 0.00833711 -0.0104268 0.00190392 ) 0 
( 0.000830345 -0.0105288 0.00220898 ) 0 
( 2.12204e-05 -0.00736051 0.00489414 ) 0 
( 0.000743385 -0.00187131 0.00369805 ) 0 
( 0.00154003 -0.00266342 0.00538963 ) 0 
( 0.00962695 -0.00850699 0.00049953 ) 0 
( 0.000958822 -0.00751261 0.00314023 ) 0 
( 0.00415759 -0.00718577 0.00117029 ) 0 
( 0.00773016 -0.0029593 0.0065786 ) 0 
( 0.00104171 -0.00162529 0.0004997 ) 0 
( 0.00671757 -0.00390779 0.00301516 ) 0 
( 0.00937192 -0.00354686 0.00225479 ) 0 
( 0.00109695 -0.00938709 0.0044692 ) 0 
( 0.00310887 -0.00240222 0.0065928 ) 0 
( 0.00176991 -0.00159409 0.00453298 ) 0 
( 1.5232e-05 -0.00984076 0.000699461 ) 0 
( 0.0110352 -0.00385805 0.00291056 ) 0 
( 0.00245072 -0.000488569 0.00405253 ) 0 
( 0.00209129 -0.00276664 0.00456194 ) 0 
( 0.00306996 -0.0120685 0.00659928 ) 0 
( 0.00167346 -0.00752647 0.00494398 ) 0 
( 0.00518939 -0.00396207 0.00302692 ) 0 
( 0.00853432 -0.00339143 0.0004998 ) 0 
( 0.0107537 -0.00779038 0.00140864 ) 0 
( 0.00359233 -0.00655184 0.0049101 ) 0 
( 0.0113356 -0.00703359 0.00634821 ) 0 
( 0.00672436 -0.00609577 0.00440462 ) 0 
( 0.00985814 -0.00656041 0.00223483 ) 0 
( 0.0020977 -0.00803511 0.00402567 ) 0 
( 0.0121095 -0.00275215 0.00183368 ) 0 
( 0.009204 -0.00453261 0.00224508 ) 0 
( 0.00089902 -0.00574543 0.00557844 ) 0 
( 0.00345699 -0.00369497 0.00641904 ) 0 
( 0.00552973 -0.00762288 0.0039215 ) 0 
( 0.00125536 -0.00246065 0.00632636 ) 0 
( 0.0082202 -0.000850501 0.00284413 ) 0 
( 0.00677715 -0.00512798 0.00471499 ) 0 
( 0.00156799 -0.00046387 0.000499799 ) 0 
( 0.00353903 -0.0121301 0.00167501 ) 0 
( 0.00896861 -0.00159758 0.0068075 ) 0 
( 0.003073 -0.00977026 0.00389607 ) 0 
( 0.00622657 -0.00483333 0.0054957 ) 0 
( 0.00282308 -0.00240112 0.000806023 ) 0 
( 0.00681515 -0.00354997 0.00654533 ) 0 
( 0.000197797 -0.00314608 0.00222943 ) 0 
( 0.00999454 -0.00258059 0.00236644 ) 0 
( 0.00410599 -0.00635911 0.0032977 ) 0 
( 0.000763282 -0.00587964 0.00166472 ) 0 
( 0.00550791 -0.00587107 0.000499592 ) 0 
( 0.00314042 -0.00677619 0.00577864 ) 0 
( 0.0110187 -0.00421641 0.000499698 ) 0 
( 0.000192031 -0.0110637 0.00402823 ) 0 
( 0.00100845 -0.00267722 0.00049979 ) 0 
( 0.00238098 -0.00785137 0.000499745 ) 0 
( 0.0106046 -0.000391132 0.00121804 ) 0 
( 0.000828535 -0.00894929 0.00664549 ) 0 
( 0.00695204 -0.0067835 0.00218442 ) 0 
( 0.00621553 -0.0016184 0.00452378 ) 0 
( 0.00898995 -0.00986939 0.00457188 ) 0 
( 0.00509114 -0.00725508 0.00595789 ) 0 
( 0.00362415 -0.00973019 0.00117795 ) 0 
( 0.00637954 -0.0107335 0.00459987 ) 0 
( 0.00741091 -0.00285573 0.00752045 ) 0 
( 0.00201503 -0.00480677 0.00686371 ) 0 
( 0.00702442 -0.00267271 0.00593112 ) 0 
( 0.00339228 -0.00266843 0.00268917 ) 0 
( 0.000353423 -0.0133455 0.00614295 ) 0 
( 0.00697599 -0.00429277 0.00587755 ) 0 
( 0.00259394 -0.00659493 0.00487529 ) 0 
( 0.011301 -0.00308903 0.00232356 ) 0 
( 0.00643095 -0.0106183 0.0036056 ) 0 
( 0.00585813 -0.00139111 0.00250804 ) 0 
( 0.008165 -0.00371677 0.00173829 ) 0 
( 0.0117848 -0.00237201 0.00442868 ) 0 
( 0.00220668 -0.0113159 0.00307393 ) 0 
( 0.0026878 -0.00158654 0.006197 ) 0 
( 0.00354863 -0.00544736 0.00464967 ) 0 
( 0.00264199 -0.0120422 0.000499798 ) 0 
( 0.00639181 -0.0117205 0.00703026 ) 0 
( 0.00395927 -0.0117656 0.00411251 ) 0 
( 0.00395087 -0.00604787 0.00136125 ) 0 
( 0.000693524 -0.00667775 0.00235378 ) 0 
( 0.00380852 -0.00880918 0.00639071 ) 0 
( 0.00729807 -0.00384759 0.00746207 ) 0 
( 0.00547786 -0.0108758 0.00500814 ) 0 
( 0.00412099 -0.0126983 0.00226127 ) 0 
( 0.00174081 -0.00851715 0.00482589 ) 0 
( 0.00359885 -0.0089537 0.00735752 ) 0 
( 0.00357286 -0.00650089 0.00216854 ) 0 
( 0.000109069 -0.010532 0.0074624 ) 0 
( 0.00246137 -0.00200937 0.005221 ) 0 
( 0.00522621 -0.0113772 0.00583579 ) 0 
( 0.00296296 -0.000197661 0.00322561 ) 0 
( 0.0091037 -0.000882566 0.00216268 ) 0 
( 0.00157225 -0.00409079 0.0029809 ) 0 
( 0.00151691 -0.00973971 0.000992272 ) 0 
( 0.00853675 -0.0093063 0.00526277 ) 0 
( 0.00491112 -0.00935589 0.0036987 ) 0 
( 7.43398e-05 -0.000598105 0.00809433 ) 0 
( 0.00271585 -0.0110235 0.000499568 ) 0 
( 0.00236401 -0.00180039 0.00375422 ) 0 
( 0.0119926 -0.00378077 0.00318802 ) 0 
( 0.00167492 -0.00937739 0.00293295 ) 0 
( 0.0107053 -0.00151658 0.00293297 ) 0 
( 0.00142335 -0.0132613 0.00459895 ) 0 
( 0.0119241 -0.0060034 0.00538803 ) 0 
( 0.00392 -0.00172223 0.00753524 ) 0 
( 0.00591043 -0.00372021 0.000499623 ) 0 
( 0.00701795 -0.0113566 0.00200731 ) 0 
( 0.00270963 -0.0116144 0.00392224 ) 0 
( 0.00859979 -0.000715098 0.00519445 ) 0 
( 0.00607263 -0.00633748 0.00245985 ) 0 
( 0.00259569 -0.0090075 0.00499506 ) 0 
( 0.00758488 -0.0061587 0.00172723 ) 0 
( 0.00360729 -0.00449659 0.000499546 ) 0 
( 0.00129548 -0.00416852 0.00789842 ) 0 
( 0.000258691 -0.00671672 0.00145421 ) 0 
( 0.0024693 -0.00447435 0.00603753 ) 0 
( 0.000770316 -0.00920987 0.00354077 ) 0 
( 0.00628609 -0.000617361 0.00378649 ) 0 
( 0.0117186 -0.0054523 0.000499807 ) 0 
( 0.0122308 -0.00534991 0.00647325 ) 0 
( 0.0058549 -0.0119442 0.000499688 ) 0 
( 0.00172012 -0.00436241 0.00137598 ) 0 
( 0.00981371 -0.00759582 0.00430017 ) 0 
( 0.000468103 -0.00822264 0.00606085 ) 0 
( 0.00243959 -0.00939723 0.00717715 ) 0 
( 0.00606728 -0.00716335 0.00189631 ) 0 
( 0.000992571 -0.0114409 0.00179252 ) 0 
( 0.0133023 -0.00112798 0.00123189 ) 0 
( 0.00589359 -0.0070172 0.00757522 ) 0 
( 0.0114251 -0.00216154 0.00267622 ) 0 
( 0.00412519 -0.00983348 0.00206664 ) 0 
( 0.0048392 -0.00161157 0.000499629 ) 0 
( 0.00143244 -0.000829423 0.00703742 ) 0 
( 0.00400012 -0.00494301 0.00292658 ) 0 
( 0.00664682 -0.0053541 0.00626837 ) 0 
( 0.0112053 -0.00698716 0.00440046 ) 0 
( 0.000287262 -6.20654e-05 0.00117833 ) 0 
( 0.0120788 -0.00251539 0.000499801 ) 0 
( 0.00591035 -0.00331016 0.00279212 ) 0 
( 0.00100665 -0.0107104 0.00600626 ) 0 
( 0.00527528 -0.008214 0.00617266 ) 0 
( 0.00993844 -0.00702011 0.00135052 ) 0 
( 0.00621716 -0.00818624 0.00650691 ) 0 
( 0.0107906 -0.00786052 0.00615728 ) 0 
( 0.00195764 -0.0103222 0.00685725 ) 0 
( 0.00265357 -0.00197749 0.00171773 ) 0 
( 0.00185791 -0.00332326 0.00239163 ) 0 
( 0.00942647 -0.00190773 0.0018921 ) 0 
( 0.000404035 -0.0133374 0.0028062 ) 0 
( 0.0058382 -0.00697473 0.00319865 ) 0 
( 0.00501688 -0.00175876 0.00339638 ) 0 
( 0.00488109 -0.000760624 0.00528573 ) 0 
( 0.00713967 -0.00820383 0.00689849 ) 0 
( 0.0033197 -0.00953322 0.00590327 ) 0 
( 0.00777793 -0.000690486 0.00605598 ) 0 
( 0.0026506 -0.00326125 0.00682016 ) 0 
( 0.00341489 -0.00448993 0.00225424 ) 0 
( 0.00724016 -0.00301983 0.00398434 ) 0 
( 0.00486844 -0.0017566 0.00793431 ) 0 
( 0.00561265 -0.000583618 0.00615907 ) 0 
( 0.00691553 -0.000510944 0.00764282 ) 0 
( 0.0093374 -0.00251595 0.0066365 ) 0 
( 0.00536624 -0.00407482 0.00707099 ) 0 
( 0.00674027 -0.00578741 0.000499681 ) 0 
( 0.00344511 -0.011828 0.00325678 ) 0 
( 0.00323525 -0.00154338 0.000499532 ) 0 
( 0.0016469 -0.000298527 0.00348687 ) 0 
( 0.0112187 -0.00206527 0.00366364 ) 0 
( 0.00814443 -0.0105781 0.000499645 ) 0 
( 0.00279232 -0.00343308 0.00484906 ) 0 
( 0.00831382 -0.001992 0.0034371 ) 0 
( 0.00630091 -0.00361705 0.00558182 ) 0 
( 0.00950038 -0.00301535 0.00049971 ) 0 
( 0.00492103 -0.000955337 0.00678176 ) 0 
( 0.0108695 -0.00133253 0.00716119 ) 0 
( 0.00337881 -0.00163112 0.00231234 ) 0 
( 0.00278213 -0.00490265 0.00290937 ) 0 
( 0.00356232 -0.00752409 0.00514135 ) 0 
( 0.00615895 -0.00688321 0.00415965 ) 0 
( 0.00661412 -0.0106673 0.00126943 ) 0 
( 0.00488861 -0.00684419 0.00285579 ) 0 
( 0.0102182 -0.00459057 0.00289577 ) 0 
( 0.00658418 -0.0010099 0.00601305 ) 0 
( 0.0118552 -0.00366725 0.000499393 ) 0 
( 0.00476754 -0.00473719 0.00539106 ) 0 
( 0.0101685 -0.00865049 0.00656543 ) 0 
( 0.000857428 -0.0103429 0.000499787 ) 0 
( 0.00162812 -0.0062312 0.00251194 ) 0 
( 0.00764498 -0.00358463 0.00324904 ) 0 
( 0.00690907 -0.00879635 0.00612149 ) 0 
( 0.00470584 -0.000295044 0.00332582 ) 0 
( 0.00217111 -0.00702875 0.00567984 ) 0 
( 0.000244583 -0.00920046 0.0053859 ) 0 
( 0.00268916 -0.00545938 0.00720846 ) 0 
( 0.0105166 -0.00579695 0.00228155 ) 0 
( 0.00354475 -0.00928363 0.00484466 ) 0 
( 0.0122845 -0.00522695 0.00138957 ) 0 
( 0.0045871 -0.00222323 0.00124916 ) 0 
( 0.0117917 -0.00155848 0.00556588 ) 0 
( 0.00731969 -0.0044988 0.00357097 ) 0 
( 0.00147167 -0.008267 0.000499605 ) 0 
( 0.00429459 -0.00904854 0.00147038 ) 0 
( 0.0057118 -0.00682284 0.00661163 ) 0 
( 0.00699587 -0.000985481 0.00118107 ) 0 
( 0.00809752 -0.00116464 0.00703834 ) 0 
( 0.0109917 -0.00582328 0.00507359 ) 0 
( 0.0126439 -0.000340006 0.00615122 ) 0 
( 0.0073317 -0.00169705 0.00604101 ) 0 
( 0.00760637 -0.00623058 0.00354805 ) 0 
( 0.0074535 -0.00703364 0.00413617 ) 0 
( 0.00639215 -0.00935662 0.000499565 ) 0 
( 0.00387955 -0.00915936 0.00391071 ) 0 
( 0.00864022 -0.00182101 0.00128007 ) 0 
( 0.00859416 -0.000521865 0.00122552 ) 0 
( 0.00292207 -0.00584523 0.00546194 ) 0 
( 0.0129447 -0.00226189 0.00134259 ) 0 
( 0.00148167 -0.0117088 0.00685814 ) 0 
( 0.00289111 -0.00665039 0.00320688 ) 0 
( 0.00771488 -0.00607012 0.000499797 ) 0 
( 0.00183282 -0.00592586 0.00149076 ) 0 
( 0.00402268 -0.0127297 0.000565938 ) 0 
( 0.00143064 -0.00192415 0.00137086 ) 0 
( 0.000195093 -0.00460102 0.00713569 ) 0 
( 0.00125047 -0.00672212 0.00132663 ) 0 
( 0.00558857 -0.000361594 0.00469178 ) 0 
( 0.0086145 -0.00563746 0.00197956 ) 0 
( 0.00126253 -0.0112939 0.00274407 ) 0 
( 0.00696016 -0.00600962 0.00281766 ) 0 
( 0.0055224 -0.0121543 0.00421008 ) 0 
( 0.00398939 -0.00370649 0.00415038 ) 0 
( 0.011435 -0.00523125 0.00195115 ) 0 
( 0.00212424 -0.00911684 0.000499628 ) 0 
( 0.00362931 -0.00727024 0.00294045 ) 0 
( 0.000446536 -0.0107539 0.00131351 ) 0 
( 0.00363716 -0.012845 0.00687348 ) 0 
( 0.00260778 -0.00628682 0.00231943 ) 0 
( 0.00015775 -0.00728849 0.00588563 ) 0 
( 0.00203737 -0.0131759 0.00362842 ) 0 
( 0.00432932 -0.00482833 0.00449329 ) 0 
( 0.00525949 -0.00275781 0.00176189 ) 0 
( 0.00411219 -0.00988589 0.00540569 ) 0 
( 0.0110286 -0.00536589 0.00320165 ) 0 
( 0.00606659 -0.00522437 0.00401075 ) 0 
( 0.00504626 -0.0123598 0.00587508 ) 0 
( 0.00116477 -0.00238492 0.00444543 ) 0 
( 0.00327635 -0.00194473 0.00336939 ) 0 
( 0.00711499 -0.00115587 0.0068533 ) 0 
( 0.0123829 -0.00158564 0.00427572 ) 0 
( 0.00183538 -0.00357435 0.00510192 ) 0 
( 0.00128095 -0.00710518 0.00653581 ) 0 
( 0.00367185 -0.00294054 0.00470997 ) 0 
( 0.0102824 -0.00851465 0.00554634 ) 0 
( 0.00503877 -0.0063424 0.00200395 ) 0 
( 0.0132641 -0.0015149 0.00511268 ) 0 
( 0.00218883 -0.00113165 0.00762252 ) 0 
( 0.004912 -0.00626039 0.0063347 ) 0 
( 0.0055208 -0.00510056 0.00483941 ) 0 
( 0.0015966 -0.0124339 0.00516386 ) 0 
( 0.000558406 -0.00261783 0.0052054 ) 0 
( 0.00790381 -0.00824176 0.00623978 ) 0 
( 0.00828273 -0.00469801 0.00189248 ) 0 
( 0.0110281 -0.00310535 0.000499803 ) 0 
( 0.00675395 -0.00753514 0.00465056 ) 0 
( 0.00938232 -0.00644101 0.00560596 ) 0 
( 0.00169384 -0.00508951 0.00286219 ) 0 
( 0.00478327 -0.0114801 0.00461784 ) 0 
( 0.0107514 -0.000753892 0.00635431 ) 0 
( 0.00124828 -0.00976884 0.00625481 ) 0 
( 0.00197408 -0.00387564 0.00722528 ) 0 
( 0.00137403 -0.007342 0.00753782 ) 0 
( 0.011741 -0.0063538 0.00243548 ) 0 
( 0.0082988 -0.00727254 0.00590224 ) 0 
( 0.0107315 -0.00620988 0.0067372 ) 0 
( 0.00568257 -0.0120118 0.00518671 ) 0 
( 0.000256025 -0.00277481 0.00648877 ) 0 
( 0.00301227 -0.0027096 0.00757129 ) 0 
( 0.00477039 -0.00649446 0.000758634 ) 0 
( 0.00661861 -0.00891589 0.00385207 ) 0 
( 0.0117194 -0.00056464 0.000725434 ) 0 
( 0.00706897 -0.0112934 0.00762905 ) 0 
( 0.00927091 -0.00439962 0.000499653 ) 0 
( 0.00824691 -0.00726259 0.00219436 ) 0 
( 0.00761603 -0.00890662 0.0025188 ) 0 
( 0.00956793 -0.00931015 0.00249348 ) 0 
( 0.00360255 -0.00190296 0.00588091 ) 0 
( 0.00252742 -0.0008148 0.000499804 ) 0 
( 0.00868981 -0.00171132 0.0025392 ) 0 
( 0.00107858 -0.0114106 0.00372199 ) 0 
( 0.00935385 -0.00332329 0.00722639 ) 0 
( 0.00858105 -0.00550877 0.000499491 ) 0 
( 0.0123496 -0.00507075 0.00551984 ) 0 
( 0.00674092 -0.00233517 0.00131239 ) 0 
( 0.0017741 -0.00384228 0.00049969 ) 0 
( 0.00778946 -0.010842 0.00588132 ) 0 
( 0.00957022 -0.00930798 0.00703649 ) 0 
( 0.000826021 -0.00947914 0.00241429 ) 0 
( 0.000598381 -0.0133368 0.00138079 ) 0 
( 0.00789589 -0.00524002 0.00322076 ) 0 
( 0.00279651 -0.00366712 0.00776506 ) 0 
( 0.00922266 -0.00860712 0.00311668 ) 0 
( 0.000977103 -0.00623098 0.000499743 ) 0 
( 0.00313738 -0.000871906 0.00780294 ) 0 
( 0.00170475 -0.00253974 0.00361825 ) 0 
( 0.00294779 -0.00171632 0.00730215 ) 0 
( 0.0075373 -0.0100148 0.0040969 ) 0 
( 0.00385466 -0.00606883 0.0057453 ) 0 
( 0.0100629 -0.00121062 0.00222412 ) 0 
( 0.00839998 -0.00206129 0.00748671 ) 0 
( 0.00857982 -0.00918385 0.00709632 ) 0 
( 0.0107815 -0.00502329 0.00451199 ) 0 
( 0.00297762 -0.00823795 0.00234085 ) 0 
( 0.00299124 -0.0115822 0.00233118 ) 0 
( 0.00163235 -0.0122925 0.000499694 ) 0 
( 0.0121802 -0.00546492 0.00257571 ) 0 
( 0.00459736 -0.00190023 0.00682182 ) 0 
( 0.00174887 -0.0097587 0.00196464 ) 0 
( 0.00140333 -0.0132742 0.00285637 ) 0 
( 0.0116853 -0.00645589 0.000499691 ) 0 
( 0.000603652 -0.000172765 0.00410617 ) 0 
( 0.0108999 -0.00770846 0.00514431 ) 0 
( 0.00205677 -0.00920991 0.00417747 ) 0 
( 0.00619196 -0.000803271 0.00700501 ) 0 
( 0.0065031 -0.0116591 0.00120535 ) 0 
( 0.00387184 -0.00283758 0.0061154 ) 0 
( 0.00616295 -0.0118424 0.00324793 ) 0 
( 0.0109386 -0.0058989 0.00405541 ) 0 
( 0.00205921 -0.000437064 0.00243472 ) 0 
( 0.00759273 -0.00351481 0.00575878 ) 0 
( 0.0122258 -0.002734 0.00285266 ) 0 
( 0.0108347 -0.00734667 0.0030211 ) 0 
( 0.00573448 -0.00317931 0.00733437 ) 0 
( 0.00547477 -0.00220405 0.00418633 ) 0 
( 0.010079 -0.00545709 0.00126041 ) 0 
( 0.00667086 -0.00630854 0.00135042 ) 0 
( 0.00199101 -0.00286343 0.000499793 ) 0 
( 0.000900615 -0.00168191 0.00512799 ) 0 
( 0.00704436 -0.00223434 0.00468268 ) 0 
( 0.00743871 -0.0098978 0.00211122 ) 0 
( 0.00292569 -0.0057455 0.000499699 ) 0 
( 0.00539244 -0.00367094 0.0013766 ) 0 
( 0.00148777 -0.00722346 0.00400875 ) 0 
( 0.00224003 -0.00625954 0.0068113 ) 0 
( 0.00249 -0.00711523 0.00401705 ) 0 
( 0.00995916 -0.00229058 0.00113743 ) 0 
( 0.00111782 -0.000635351 0.00270676 ) 0 
( 0.00958662 -0.00587956 0.000499672 ) 0 
( 0.000995411 -0.0114433 0.000499801 ) 0 
( 0.00648534 -0.00432312 0.00412178 ) 0 
( 0.000369225 -0.00388774 0.00645703 ) 0 
( 0.00791682 -0.00270722 0.00285069 ) 0 
( 0.00873508 -0.0073798 0.00315163 ) 0 
( 0.00409402 -0.00547723 0.0037698 ) 0 
( 0.00796361 -0.00777018 0.00369213 ) 0 
( 0.00573265 -0.00309762 0.00378583 ) 0 
( 0.0101384 -0.00678932 0.00480148 ) 0 
( 0.00277813 -0.00313194 0.00205068 ) 0 
( 0.00516472 -0.00594118 0.00322322 ) 0 