FoamFile
{version 2.0; format ascii;class vectorField; location 0;object  v;}
2498
(
( -9.00929e-05 -0.000907792 0.00401359 )  
( 0.000643029 -0.000705874 0.00333916 )  
( 0.000912263 0.000862641 0.00331031 )  
( -0.00128005 0.000326338 0.00205396 )  
( 0.000592838 -0.000643994 0.00283511 )  
( 0.000189843 0.000389222 0.00517784 )  
( -1.83988e-06 0.000763781 8.22699e-05 )  
( -0.000248848 -4.65268e-05 -4.82009e-05 )  
( 0.000139632 0.00168268 0.0022682 )  
( 0.000504981 0.000273698 0.00108645 )  
( -0.000651312 1.0904e-05 0.00260683 )  
( -0.000814966 3.67583e-06 0.00256144 )  
( -0.0002228 0.00135073 0.00194513 )  
( 0.000469055 2.61551e-05 -2.33015e-05 )  
( -0.000549945 0.0018807 0.00281714 )  
( 0.00027899 0.00126437 0.00237388 )  
( -0.000604778 -0.0003273 1.11936e-05 )  
( -0.000213649 -0.000911596 0.00226329 )  
( -0.00130658 0.000663232 0.00391498 )  
( -0.00156522 -0.000239153 -0.000928967 )  
( 0.00014892 -0.000601352 -0.00051601 )  
( 4.1899e-05 2.49121e-05 5.69674e-05 )  
( -0.00123506 -0.00122998 0.00279858 )  
( -0.00243627 0.000182964 -0.000860762 )  
( 9.60711e-06 0.00050017 0.00373278 )  
( 0.000571906 0.000576973 -0.000408956 )  
( -0.00147551 0.00059064 0.00202994 )  
( -0.000856468 -3.40123e-05 0.00405594 )  
( 0.000630884 0.000664926 0.00303462 )  
( -5.6245e-06 9.72162e-05 -0.000354808 )  
( -0.000506087 -0.00065188 -0.000872267 )  
( -0.0025396 0.000107655 0.00140284 )  
( 2.24669e-06 3.47651e-05 0.00180041 )  
( 7.22551e-06 -0.00239949 0.00259802 )  
( 0.00101141 -0.00172104 0.00314653 )  
( 0.000152794 0.000998835 0.00184873 )  
( -4.8304e-05 0.000122499 -6.06922e-05 )  
( 0.000776323 0.00116497 0.000246928 )  
( 1.69492e-05 7.14129e-05 -6.63641e-06 )  
( -0.000549538 0.000374779 0.0020813 )  
( -0.000218036 -0.000421612 0.00316576 )  
( 0.000103126 6.96814e-05 0.0025862 )  
( 0.00023315 -0.000239315 0.00250727 )  
( 3.16515e-05 0.000524216 0.000475859 )  
( 0.000442162 0.000469465 0.00344358 )  
( -0.000479257 -0.000227586 2.08833e-05 )  
( -8.53859e-05 0.000392601 -7.19234e-05 )  
( -0.000214218 0.000283171 0.00458708 )  
( 0.000799029 -0.00164978 0.00277727 )  
( 0.00017754 0.0015569 0.00367568 )  
( 0.000191991 0.00229052 -0.0001929 )  
( 4.27704e-05 -0.00054053 0.00195894 )  
( -0.000944501 0.000886986 0.00162989 )  
( 0.000751005 -0.000102365 0.00308898 )  
( 0.00281362 0.000128426 -1.11406e-06 )  
( -0.000392839 -0.000299884 1.7235e-05 )  
( 0.000121696 0.000101097 1.72835e-05 )  
( 0.00117821 0.000216921 -0.00142215 )  
( 7.29608e-05 0.00141349 0.00177858 )  
( -0.00119741 0.00134164 0.00520544 )  
( -0.000290441 -8.55707e-05 -0.000114611 )  
( 0.0028349 0.00102297 0.00339513 )  
( -0.00111904 -0.000782569 0.00308523 )  
( -7.44653e-05 -0.000274888 0.00428727 )  
( 0.000100299 -0.000473549 0.00375248 )  
( -0.000542977 0.000761703 0.00280349 )  
( -0.000244853 -0.0015272 0.00278015 )  
( 0.0006112 0.000897755 0.00183152 )  
( -0.000114482 0.00064146 0.00212438 )  
( 0.00179008 -2.2352e-05 -0.000912596 )  
( -0.000354073 0.000228967 0.000121268 )  
( 0.00324329 -0.000856748 2.09868e-05 )  
( 0.00098417 0.000494563 0.0032806 )  
( 3.99663e-06 0.000156776 0.00416152 )  
( 0.00148103 0.000459372 0.00336392 )  
( -0.000330155 0.000521929 0.00354483 )  
( -2.21525e-05 0.000304026 0.00246958 )  
( -0.00114981 0.000680502 0.00396959 )  
( -0.000922995 -0.0001696 0.00245314 )  
( -0.00142766 0.000852746 0.00605065 )  
( -0.000476402 0.00104196 0.00178265 )  
( 2.94537e-05 0.000191688 -3.4639e-06 )  
( 0.000211118 0.000857393 -0.000378396 )  
( -0.00036496 -8.26714e-05 0.00210719 )  
( -0.0011409 0.000587207 0.0016278 )  
( 0.00160015 0.000115287 3.3149e-07 )  
( 0.000219554 -0.00181734 0.0055997 )  
( 0.00134261 -0.00047991 5.77527e-05 )  
( -0.000982748 0.000507635 0.00197127 )  
( 0.000934784 -0.000810026 -1.20845e-05 )  
( 0.000998645 0.000837241 0.00190411 )  
( -0.00102548 0.00142728 0.00306284 )  
( 0.00021809 0.000120832 0.0023854 )  
( -0.000444532 0.00134512 -0.00434718 )  
( -0.000125256 -0.000329341 5.96989e-05 )  
( -0.00298713 0.00103383 0.00378213 )  
( 0.000177481 0.000238744 4.80505e-05 )  
( 0.00176952 2.82791e-05 0.00320733 )  
( 0.00017609 1.57641e-05 7.53285e-05 )  
( -0.000575958 0.000266151 0.00280628 )  
( 0.000202705 7.42398e-05 2.07655e-05 )  
( -0.00090458 -0.000126149 0.00360043 )  
( 0.00580114 -0.000838094 -0.00104286 )  
( -0.00174527 0.0004894 0.00123601 )  
( -0.000685089 -0.000184651 0.00335672 )  
( 2.36001e-05 0.000210064 0.00348828 )  
( 0.000235663 0.00100731 5.43518e-05 )  
( 0.000192659 2.41733e-05 0.000106545 )  
( 0.00448629 0.000528945 0.00755248 )  
( -1.29804e-05 -4.18103e-05 1.25276e-05 )  
( -0.000376581 0.00037878 0.000105756 )  
( -0.000790963 0.000220442 0.00281814 )  
( 0.000249552 0.000562955 0.00317415 )  
( 0.000654277 0.00092824 -0.000709343 )  
( -0.000933722 0.000578907 0.00217672 )  
( 2.5938e-05 -0.000411254 -8.24866e-05 )  
( -0.000109941 0.00136746 0.0049836 )  
( 0.00042469 0.00211609 0.00465843 )  
( 0.000232996 0.000665713 -2.51591e-05 )  
( -0.00058607 0.000424174 0.00194808 )  
( -0.00194049 -0.00088122 0.00445885 )  
( 0.000474577 0.000140607 0.00290955 )  
( 0.000264198 0.00178124 -0.000117312 )  
( 0.000579241 -0.000606693 0.00334189 )  
( 8.99247e-05 0.00215963 0.00399913 )  
( 7.06489e-06 0.000736831 0.00533329 )  
( 0.00424328 0.00237468 -0.0120436 )  
( 0.000855358 0.00054952 0.00032424 )  
( -1.04855e-05 0.00137832 0.00204013 )  
( 3.40796e-05 7.57084e-05 2.61203e-05 )  
( 0.000196912 0.00123509 0.00188226 )  
( -0.00012159 0.00209128 0.00367119 )  
( 4.38041e-05 0.0027803 -0.00129917 )  
( 0.000155969 0.000383204 0.00157905 )  
( -0.0019825 -0.000479006 0.00398198 )  
( 1.75417e-05 0.000161867 0.00335897 )  
( 0.000419937 0.0026576 0.00459356 )  
( 0.000243816 0.000396258 0.00252131 )  
( -4.8598e-05 -0.000590326 0.00350087 )  
( 0.000538659 0.000524369 0.00012452 )  
( 0.00019402 -0.000253607 0.000234884 )  
( 0.00223988 -0.000330024 -1.79609e-05 )  
( -0.000324053 -0.000789957 -0.000990263 )  
( 0.00433952 -0.000352764 0.00584249 )  
( 0.000373237 -0.000645998 0.000458573 )  
( 0.000347845 0.00202347 0.0014032 )  
( -0.00151208 0.00119314 0.000325876 )  
( 0.000500831 0.000363248 0.00252861 )  
( -0.000590134 0.000602249 0.00226173 )  
( 9.45602e-05 0.00172634 -0.000385012 )  
( 0.00215064 -2.89058e-05 -0.00242599 )  
( 0.00147673 0.00322615 0.00265638 )  
( -0.00145545 0.00327643 -0.000294638 )  
( 0.000116721 0.000441266 -0.000291769 )  
( 0.000186094 -0.000826567 0.00251782 )  
( 0.00109086 -0.00117772 7.31092e-05 )  
( -0.00112987 -0.000542426 9.7197e-05 )  
( 0.00181147 0.000175591 0.00476913 )  
( 0.000868541 -4.84461e-05 4.01745e-05 )  
( -0.000610793 -1.8289e-05 0.00140571 )  
( -0.000961548 -0.000154926 0.000821835 )  
( 0.00143284 0.000455049 0.00184735 )  
( -0.00111111 0.00057725 0.00031031 )  
( -2.57257e-05 -0.000718677 0.00355042 )  
( 2.37465e-05 -0.000325119 -2.64908e-05 )  
( -0.00156062 -0.000988301 0.00903024 )  
( 8.07437e-05 0.00012786 -0.000133648 )  
( -0.00121519 0.000115145 0.00329443 )  
( 0.000511263 0.00252398 0.00053094 )  
( 0.000471106 0.000206935 4.86659e-06 )  
( 0.000770577 -0.000547258 0.00652907 )  
( 0.000241807 0.000215346 0.00455463 )  
( -8.88406e-05 0.000643536 -7.10051e-05 )  
( -0.00265327 0.000257031 0.00331122 )  
( 0.000966694 0.0018419 0.000252091 )  
( -0.00172695 -9.53998e-05 0.0024277 )  
( 0.000446854 0.000176738 0.000481468 )  
( 8.76425e-05 -7.62688e-06 -0.000309804 )  
( -3.19172e-05 0.000412787 -0.000737766 )  
( 0.000252001 -0.000212992 0.00300241 )  
( 5.33547e-05 0.000167326 -6.61108e-05 )  
( 0.00043402 0.00138945 0.00272484 )  
( 0.000189939 0.000455206 0.000599966 )  
( -0.000656442 -0.000494945 0.00497514 )  
( -0.000174324 0.000691802 0.000208764 )  
( -0.00269863 0.00130695 0.000752241 )  
( 0.000757556 -0.0004134 0.00289641 )  
( -0.00196575 -0.000117464 0.00332954 )  
( 5.75835e-05 -0.00105303 0.00358401 )  
( -0.00121386 0.000622425 0.00756594 )  
( 0.000811112 0.000793398 0.00023607 )  
( 0.000266247 0.000530049 7.19703e-06 )  
( 0.000383185 0.0002626 -0.000347954 )  
( -9.23592e-05 -0.00014103 -0.000168484 )  
( -0.000245283 0.000316801 4.25995e-05 )  
( -0.000647839 -0.000471156 -0.00111184 )  
( -0.00148262 0.000168597 0.00359461 )  
( -0.0006198 0.000572976 0.00358305 )  
( 0.000642559 0.000462309 0.00251862 )  
( -0.00063405 -0.000769748 0.00168758 )  
( 0.000170801 0.000585875 -0.000510149 )  
( -0.000759047 0.00158837 0.00251112 )  
( 0.00218687 -0.000638324 0.00389818 )  
( 0.000325507 0.00163304 0.00210131 )  
( 0.000723777 -0.000650996 0.000827731 )  
( -0.000590032 0.000887137 0.00183041 )  
( -0.000185107 -0.000326468 -0.000110596 )  
( 9.91709e-05 2.65263e-05 -0.000196447 )  
( 0.00070767 -0.000389202 0.00422601 )  
( -2.58513e-06 -2.87222e-05 -2.76936e-05 )  
( 0.000457251 0.000638126 0.00266018 )  
( -0.00105455 -0.00132424 0.00274853 )  
( -0.000940287 -0.00048442 0.00278628 )  
( -0.000684819 -0.00065989 0.000513622 )  
( -0.000296552 0.00110279 0.00183061 )  
( 0.000596501 0.000274255 0.000135774 )  
( -0.000115697 -0.000212063 0.000132785 )  
( 0.00122464 0.00212461 0.00218565 )  
( 0.000252343 0.00233584 0.00166235 )  
( 0.000445561 0.0028052 0.00307048 )  
( 0.00365243 -0.00130842 0.00375418 )  
( 0.00167437 -0.000163212 0.00150288 )  
( -0.00111721 9.89588e-05 0.00244166 )  
( 0.000359168 -0.000200774 0.00269284 )  
( 0.000186585 0.000120339 -0.000201473 )  
( -0.000256725 0.000486729 0.000180959 )  
( -0.00174041 0.00261581 0.0030023 )  
( -0.000698789 9.65121e-05 0.00208183 )  
( 0.000443723 -8.38394e-05 0.000353455 )  
( 0.00112766 0.000863327 0.000561974 )  
( -0.000700916 0.00106523 0.00308309 )  
( 9.09051e-05 7.7562e-05 1.56975e-05 )  
( -0.000611617 -0.000346802 5.23237e-05 )  
( -0.000134564 -9.99513e-05 0.00435595 )  
( 3.4296e-05 0.00521077 0.00711855 )  
( -0.000634487 0.00119581 0.0043336 )  
( -0.00392358 0.000237252 0.00342402 )  
( 0.00126398 0.00102583 0.000198864 )  
( -0.00238001 0.00208727 0.00145105 )  
( 0.00171798 0.00306494 0.00482161 )  
( 0.00145667 -0.000881359 0.00381167 )  
( 0.000188096 -0.000662129 0.00223151 )  
( -0.00206676 0.00223568 0.00166363 )  
( 9.33554e-06 -0.000752123 0.00182873 )  
( 0.00157979 -0.00235227 0.000370484 )  
( -0.00173251 -0.00116285 0.00281951 )  
( -0.00168968 0.000205295 -0.0011781 )  
( 0.000111409 6.01418e-05 0.00420454 )  
( 0.000984054 0.00222405 5.59641e-05 )  
( -0.000427692 -0.00123142 0.00450028 )  
( -0.00160004 0.00154831 0.00151281 )  
( 1.75671e-05 0.000546645 0.0003231 )  
( 0.000121508 0.000601611 0.00341965 )  
( 0.00111958 -0.000251135 -0.0015556 )  
( -0.00190573 0.00283512 5.39351e-07 )  
( -0.00209068 -0.00190662 0.000480106 )  
( 5.49699e-06 -0.000948524 0.00383213 )  
( -3.14536e-05 0.0015676 -0.000916864 )  
( 0.000677323 0.000756487 -0.000374348 )  
( 0.000804847 0.000120009 -0.000529815 )  
( -8.59129e-05 -0.000250655 0.00420543 )  
( -0.00107671 0.0010632 0.00198444 )  
( -0.00040335 0.000165079 0.00218928 )  
( 0.0032672 -0.000323441 -0.000927748 )  
( -0.00142089 0.00146169 0.0015852 )  
( -0.000906393 0.000234657 0.00225955 )  
( -0.00031039 -0.0001614 -0.0004182 )  
( 0.000104917 0.00111177 0.0042826 )  
( -0.00076108 0.000822223 0.00278804 )  
( 0.000152373 0.000508323 0.00284508 )  
( -8.04836e-05 7.49931e-05 0.00307139 )  
( 5.97107e-05 0.000288974 -0.000417777 )  
( -5.05731e-05 0.00138861 0.00386188 )  
( 0.000181158 -0.000277421 -6.26821e-05 )  
( 0.000572463 0.00150624 0.00434245 )  
( -0.00011563 0.000933813 0.00140275 )  
( -0.00155145 0.00113055 0.00201277 )  
( 0.000780678 0.000958139 -0.000358546 )  
( 0.00054791 -0.00037333 -0.00064047 )  
( -0.000518124 0.000810784 0.00175904 )  
( -0.000230114 -6.51876e-05 0.00360156 )  
( 0.00452903 0.000568886 0.00221789 )  
( -0.000919843 -0.000350125 0.00347662 )  
( 0.000531602 0.000795009 0.000238137 )  
( 1.71736e-05 3.03833e-05 -1.29904e-05 )  
( 0.000725169 0.00359146 -0.00165963 )  
( -8.53309e-06 0.000525636 0.000728468 )  
( 0.0012317 -0.000569051 -0.000682399 )  
( -0.00161548 -0.00022383 0.000106971 )  
( 0.000655244 0.00103113 0.000118805 )  
( -0.00098079 0.000723374 0.00663751 )  
( 0.000192012 0.000185002 0.00253125 )  
( -0.00038449 0.000548021 0.00174966 )  
( -0.00143617 -5.87951e-05 -3.93341e-07 )  
( 0.00195513 -0.000829795 0.00375898 )  
( 0.00145886 0.000584096 0.00231004 )  
( 0.000754433 0.00233323 -0.00101666 )  
( 0.00169709 -0.000221687 -1.29793e-06 )  
( -0.000486352 0.000496397 0.00411204 )  
( 0.00050998 0.00140121 -0.000399313 )  
( 0.00124335 -0.00182451 -0.00217855 )  
( -0.0016645 -0.00140086 -0.000234931 )  
( -0.000863527 0.00373791 0.00673388 )  
( -0.000164609 0.000119651 9.21031e-05 )  
( 0.000522186 0.00118347 0.00214011 )  
( 0.000368077 -0.000596805 0.00396378 )  
( -0.00112028 0.00136558 0.00206232 )  
( 0.00139839 -0.00100826 0.00320182 )  
( -0.000616766 -0.000377693 0.00341217 )  
( -0.00033459 0.000281699 0.00224705 )  
( -3.55579e-05 0.000185923 0.00473254 )  
( -8.12278e-05 -0.000592885 -0.000206198 )  
( -0.00130201 0.00150013 0.000347841 )  
( -7.33118e-05 5.48836e-05 0.00273111 )  
( 0.00108116 -9.87354e-05 0.00187005 )  
( -0.00112914 0.000472266 0.00319328 )  
( 5.11189e-05 2.71256e-06 0.00200492 )  
( 0.00106171 -0.000872066 0.000550902 )  
( -0.00157557 -0.000122043 0.00439499 )  
( 0.000380757 0.00215694 3.5055e-05 )  
( -0.000939205 0.000130336 0.00289398 )  
( 7.58822e-05 0.000592413 0.00124099 )  
( -0.00233244 0.000767348 0.00236925 )  
( 0.000300492 0.000529885 0.00301447 )  
( 0.000969246 0.00304825 0.00431161 )  
( -0.000686773 6.1721e-05 0.00268265 )  
( -0.00223913 0.00160241 -0.000922198 )  
( -0.000432214 -8.63981e-05 0.00193697 )  
( -8.09749e-05 -0.000221271 -0.000761911 )  
( -0.000136419 -0.00168129 -0.0013586 )  
( 0.0013702 0.00286875 0.00127074 )  
( -0.00357635 0.00278299 0.00111688 )  
( -0.00037218 0.00125761 0.0015388 )  
( 3.75869e-05 2.74497e-05 0.000963302 )  
( 0.00513309 0.00273675 0.00675091 )  
( -0.000146116 -0.000103239 -0.000605274 )  
( 0.000625191 7.85571e-05 0.00179316 )  
( -0.00125015 0.00119302 0.00272791 )  
( -0.000904198 0.000508566 0.00246822 )  
( 0.0028921 -8.31569e-05 -0.000123208 )  
( -5.04842e-05 -0.000379274 0.0021956 )  
( 0.00195572 7.73008e-05 -5.52621e-05 )  
( -0.00110935 0.000355974 0.00296295 )  
( -8.34564e-05 0.000380719 -7.70989e-06 )  
( -0.00357043 0.00401147 6.53438e-05 )  
( 0.000342637 0.000879075 0.00360669 )  
( 0.000393978 -8.40626e-05 -0.000108217 )  
( -0.000549768 -0.000938388 9.33295e-05 )  
( -0.000498593 0.000521165 0.00272475 )  
( -0.000535856 9.33462e-05 0.00382476 )  
( 0.000637294 0.000403807 0.00189552 )  
( 5.43585e-05 -0.000310479 0.00240642 )  
( -0.000530743 -0.000676392 0.00020738 )  
( 0.000204953 0.00221171 0.00277014 )  
( 0.000142815 0.00118392 -2.08045e-05 )  
( -0.00231733 0.000218653 0.00447018 )  
( 0.000176998 0.000998441 0.00285981 )  
( -0.00143609 0.000644748 0.00158775 )  
( -0.00025603 0.00104547 0.00254289 )  
( 0.00154721 0.00197393 0.00275024 )  
( 0.000126517 0.000300933 0.000174652 )  
( 0.00067479 0.000205324 0.000253261 )  
( -0.00257473 0.00107672 0.00511792 )  
( 0.000386269 -0.000349743 -0.000640123 )  
( -0.000763528 0.000560306 0.00224333 )  
( 0.00109836 0.000462058 0.000329584 )  
( 0.0010374 -3.95882e-05 0.00393176 )  
( -0.000432029 -0.000106472 5.46841e-05 )  
( 0.00149974 0.000573711 0.0017492 )  
( 0.000215138 -0.00066286 0.00167701 )  
( -0.00166255 -0.000960414 0.00353158 )  
( 0.000283324 0.000730297 -0.00226875 )  
( -0.000179247 0.000390111 -2.97425e-05 )  
( 0.000379372 0.000364657 0.00281464 )  
( 0.00105995 0.000839548 0.000166823 )  
( -0.000221559 -0.000252739 0.00676565 )  
( 9.32364e-05 0.000114456 2.55127e-05 )  
( 0.00137916 0.00373802 -0.0013687 )  
( -0.000259155 0.00104102 0.00373456 )  
( -0.00668558 0.000583018 0.00724774 )  
( 2.85709e-05 0.001094 0.00295666 )  
( 4.253e-05 9.75369e-05 1.14152e-05 )  
( -0.00219536 0.000119139 0.00109401 )  
( -0.00037155 0.000206043 2.21874e-05 )  
( 0.00012906 -0.000245637 0.00214843 )  
( 0.00152293 0.000924125 -9.07101e-05 )  
( 7.55985e-05 0.000587346 0.000773623 )  
( 0.00268841 -0.000916247 0.00205903 )  
( -0.00192938 0.0063843 0.00682083 )  
( -0.000495963 0.000176537 0.00400082 )  
( -0.000211499 -0.000943035 0.00371278 )  
( 0.00131603 -0.000540163 -0.00232686 )  
( 0.000468236 -0.000576326 0.00120787 )  
( -0.00288729 -0.00151136 0.0025304 )  
( -0.000802797 0.000665508 0.00238378 )  
( -0.000203353 0.000757712 0.00215671 )  
( -0.000692358 0.000985834 0.00255464 )  
( 0.00120921 0.0018284 0.00141693 )  
( 0.0024175 0.00353616 -1.64101e-06 )  
( 0.000561565 0.00116319 -0.000609194 )  
( -0.000804748 0.00161973 0.00393099 )  
( -0.000544334 0.000749028 0.00444943 )  
( 0.00031788 0.00155414 0.00123946 )  
( 0.00187231 0.0033435 -0.00139209 )  
( -0.00179842 0.000417411 0.00125197 )  
( -0.000291795 0.00015862 0.00110713 )  
( 0.00157874 -0.000603687 -0.00466165 )  
( 0.00109629 6.64145e-05 0.00403819 )  
( 0.00201876 0.000622247 0.00515702 )  
( 0.000598244 0.00028646 0.00368573 )  
( -0.000979594 -0.000871251 0.00330256 )  
( 0.00100691 -0.000137887 0.0009811 )  
( 0.00138107 0.00226497 0.00400436 )  
( -0.000561634 0.000380772 5.53059e-06 )  
( -0.00050976 -0.00144213 -0.000604014 )  
( -0.000137846 0.000173111 0.00167817 )  
( -0.00214033 0.00138486 0.00699936 )  
( -0.000995001 -0.000324815 0.00353699 )  
( 7.39706e-05 -0.000412796 6.36343e-05 )  
( 0.00209463 -0.00354069 0.0107318 )  
( -0.000327223 0.00118744 0.000383833 )  
( 0.00141516 -0.000295035 -0.00101445 )  
( -0.000400192 0.00234992 0.000614926 )  
( 0.000356611 -0.000135441 0.000642792 )  
( 0.000657276 0.00080777 9.62656e-05 )  
( 0.000776449 0.000154974 0.00444256 )  
( 0.000525535 -0.000369853 9.31233e-07 )  
( -0.00230355 -0.0010446 0.00394699 )  
( -7.60726e-05 0.000406099 4.36113e-05 )  
( 0.00020129 0.000223539 7.26079e-06 )  
( 0.000152279 0.000220336 -0.000365922 )  
( -0.000280991 0.000978623 0.00225639 )  
( 0.00025615 0.000205952 2.76446e-05 )  
( 2.14268e-05 0.000184752 0.00286027 )  
( 0.000731575 0.00055596 0.00262794 )  
( 0.000184929 9.75243e-05 0.00200333 )  
( 0.000283658 -0.000267587 -0.000111755 )  
( -2.86641e-06 4.91171e-05 0.00349914 )  
( -0.000306669 -0.00024748 0.00211565 )  
( -0.00109655 -0.000591754 0.00364427 )  
( 0.000146066 0.000520954 0.00281393 )  
( -0.000609526 0.000956542 0.000216639 )  
( -0.000530599 -0.000370833 0.00168977 )  
( -0.000985893 0.000426518 0.00253691 )  
( -0.000582334 0.000470643 0.00197065 )  
( 0.00130503 -0.000291096 0.000890866 )  
( 0.00207813 -0.00183973 0.00276783 )  
( -0.000558715 0.000196735 0.00172254 )  
( -0.000544794 0.00165647 0.00117343 )  
( 0.00192724 -0.000900152 0.00396418 )  
( -0.00196267 0.00304514 -0.000749048 )  
( 0.000439431 0.000418373 0.0031503 )  
( -0.000992601 0.000203191 0.00320207 )  
( 2.07172e-05 -0.000426216 5.64633e-06 )  
( -0.000427741 -0.000101636 0.000949167 )  
( 0.00140296 0.000518604 0.00349026 )  
( 0.000567569 0.000591208 3.83517e-05 )  
( -0.000555065 -0.000519201 0.000598329 )  
( 0.000109107 0.000624269 0.00214999 )  
( 0.000549824 -5.68018e-05 0.00431705 )  
( 7.66617e-05 0.00243184 0.00435944 )  
( -0.000342596 -0.000201172 -0.000327706 )  
( -0.000622396 0.000973655 0.00237369 )  
( -0.0003589 0.000670895 0.00189327 )  
( -0.00204786 -0.00136813 -0.002237 )  
( 0.000901988 0.000840452 0.00239711 )  
( -0.00076087 0.000888383 0.00387051 )  
( 0.000278599 -0.00018489 0.00255025 )  
( -0.00159734 -0.000791016 -0.000825104 )  
( 0.000275332 0.00103474 -0.000769712 )  
( -0.000908816 0.00102851 0.000566698 )  
( -0.000174049 -0.000213913 -1.2684e-05 )  
( -0.000361504 0.000707312 0.00171006 )  
( -0.000427006 -9.94312e-05 0.0031926 )  
( -0.000243966 -5.86547e-05 0.00379666 )  
( 4.19781e-06 -2.70077e-05 2.67497e-05 )  
( -0.0014933 0.000567381 0.00216057 )  
( 2.04585e-05 5.43595e-05 0.00308411 )  
( -0.00358535 0.0013393 0.00220836 )  
( 0.00194551 0.000995906 0.00216734 )  
( -0.00014175 0.00155634 0.00336973 )  
( 0.00178576 0.00350347 0.00361369 )  
( -0.000289744 0.00033247 0.00343383 )  
( 0.000191459 0.000641974 -1.18956e-05 )  
( 0.000641844 0.00033083 -0.000360699 )  
( -0.00132285 0.000584664 0.00385818 )  
( 0.00311621 -0.000341266 0.00617634 )  
( -0.000670253 0.000497353 -0.000750079 )  
( -0.000240202 0.00111362 0.00155337 )  
( 0.000458394 0.000217674 0.00026781 )  
( 0.000178698 0.000330608 1.18574e-06 )  
( -0.000514184 -7.87467e-05 0.00302382 )  
( -0.000175157 0.000308629 0.000251029 )  
( 0.000136805 -5.03424e-05 0.00474199 )  
( -0.00478845 0.00412764 0.00706676 )  
( 8.98527e-05 0.00214882 0.00402243 )  
( 0.000628025 -0.000719792 -1.23302e-06 )  
( 0.000900936 0.00177822 0.00182729 )  
( 1.77608e-05 6.02292e-05 3.04897e-05 )  
( -0.000457833 4.83023e-05 0.000159045 )  
( 0.0019884 0.00195778 0.00392091 )  
( -0.000788193 0.00162238 0.00353196 )  
( -0.000319067 0.00101507 0.00194784 )  
( 0.00147641 0.000437249 -0.000729501 )  
( -0.000391887 -0.000267469 0.000539637 )  
( -1.53853e-05 -0.000150622 -1.09722e-05 )  
( -0.000303937 0.0007592 0.00195378 )  
( 0.000485563 -7.37378e-05 0.000804671 )  
( 0.000693864 0.000195406 0.000338338 )  
( -0.00143978 0.000460589 -0.000104099 )  
( -0.000278746 -0.000589357 0.00381679 )  
( 0.00044678 0.00104368 0.00107631 )  
( -0.000101287 -0.00291233 0.00335433 )  
( -0.00108812 0.00312381 0.00625382 )  
( 0.000506608 -0.000121161 -0.000141043 )  
( 0.00241066 0.000167316 -2.52451e-06 )  
( 0.000629748 0.00171672 -0.00013087 )  
( 0.000818931 0.000624786 0.00190984 )  
( -0.000614214 0.000218359 0.00229311 )  
( 0.00182278 -0.000563905 0.000293578 )  
( -0.000359861 0.00107813 0.00159684 )  
( -0.000840727 -0.00115554 0.0122541 )  
( 0.000719619 0.00263641 0.00215286 )  
( 0.000724841 -3.30836e-05 -0.0012706 )  
( 0.000115873 0.00117587 -0.00162495 )  
( 0.00201294 -0.000679152 -0.00108478 )  
( -0.00111097 0.000966061 0.0010047 )  
( 0.0011263 0.000687425 0.00117762 )  
( -0.00128247 0.000871103 0.00027364 )  
( -0.000249139 3.78479e-05 0.00282779 )  
( 0.000608696 0.0010267 0.00291189 )  
( 6.08121e-05 -0.000319268 0.00197763 )  
( -4.93771e-05 0.000391882 0.00214894 )  
( 0.000948645 -0.000548604 0.00459112 )  
( 0.00126662 0.00131338 0.000378661 )  
( 0.00021535 -0.0001855 0.00188401 )  
( 0.00245541 0.00025276 0.00621607 )  
( -0.000727655 -0.000539409 0.00314601 )  
( 7.78117e-05 -6.70617e-05 0.00295248 )  
( 0.00192847 -0.000251878 0.00140445 )  
( 0.00028543 0.000804548 0.00319574 )  
( -0.00042441 0.000390613 6.51488e-05 )  
( 0.002272 -0.000209537 0.00481005 )  
( -0.000894629 8.51344e-05 -7.74956e-05 )  
( -0.00256577 0.00069289 0.00307094 )  
( 0.00177393 0.000602043 0.00433746 )  
( 8.66976e-05 0.000105121 -7.55635e-06 )  
( -0.000271749 0.000833178 0.00459656 )  
( 0.00118041 -0.00116527 0.00109452 )  
( -0.000425926 0.00130686 0.00312567 )  
( 0.000268735 -7.70862e-05 -5.3929e-05 )  
( 0.000232876 0.000195048 0.00301896 )  
( -0.000431067 -4.06197e-05 0.00262147 )  
( 0.000352617 0.00130968 -0.00108433 )  
( 0.000105794 0.00220364 -0.000258576 )  
( -0.000820438 0.00140262 0.00345363 )  
( 0.000691708 0.000914714 0.00197738 )  
( 0.000931873 -0.000191021 -6.54972e-06 )  
( 7.25624e-05 0.00124099 -0.00125066 )  
( 0.00193331 -0.000589299 0.00172136 )  
( 0.00144665 -0.000393271 0.00250632 )  
( -0.000210545 0.000891745 3.02439e-05 )  
( 7.08365e-07 0.00204643 0.00214087 )  
( -0.00193786 -0.00239091 0.00484267 )  
( 5.34317e-05 0.000527262 -1.13697e-05 )  
( -0.00185419 0.000277908 -0.000482874 )  
( 0.000396867 0.00134375 2.89135e-05 )  
( -0.0010748 0.000145516 0.0018903 )  
( -0.00200037 -4.11789e-05 0.00148192 )  
( -0.000183476 0.00229033 0.0044081 )  
( 0.000241331 0.00103665 0.0038386 )  
( -0.0012185 -6.95079e-05 0.00350667 )  
( 0.00288356 -0.00023449 -0.00272639 )  
( -1.69775e-05 0.00111891 0.00189686 )  
( 0.000423076 0.000895246 -0.00125145 )  
( -0.0023305 0.00113762 -5.71555e-05 )  
( 3.4687e-05 -0.00158764 0.00501941 )  
( 0.00183997 0.000726726 0.00138974 )  
( 0.000125304 0.000156899 0.000178729 )  
( 8.31611e-06 6.87018e-05 -9.03883e-05 )  
( -0.00173964 0.00167113 0.002511 )  
( -0.000270058 0.000398188 0.00024747 )  
( -0.000263167 -0.000376572 0.00263867 )  
( 0.00177291 0.00241231 0.00633356 )  
( -0.00150441 -0.000408551 0.00415914 )  
( -0.00062161 -0.000430883 0.0031398 )  
( 0.000965126 0.000560915 -0.000386161 )  
( -0.00147025 -0.000420553 0.00139547 )  
( -0.000276494 -0.000186921 -3.06825e-05 )  
( -0.000200055 0.00158361 0.00172288 )  
( 0.000705922 0.000313865 0.000484803 )  
( 0.00157456 0.000198895 -3.19173e-05 )  
( -5.07999e-05 -0.000207766 0.00390291 )  
( -6.12886e-05 -0.000356791 -9.186e-05 )  
( -0.00034695 0.000211144 0.00125674 )  
( -0.00260679 -0.000613674 -0.000617773 )  
( 0.000106514 0.000381755 -7.37027e-06 )  
( 0.000155224 0.00029433 0.000243452 )  
( 3.06527e-05 5.97363e-05 -3.48381e-05 )  
( 0.000980489 0.000538866 -0.000131613 )  
( -0.000163456 -0.000473479 0.00331033 )  
( -0.000116132 0.00022412 -0.000102917 )  
( -0.000957403 0.00189844 0.00640375 )  
( 0.000772968 0.000390741 -0.000381753 )  
( -0.00246639 0.0020098 0.000767337 )  
( 0.00128941 0.000912452 -0.0006555 )  
( 0.0004379 0.000291907 0.00128361 )  
( -0.000941054 0.00178919 0.0028244 )  
( 0.00135604 0.000508527 0.000343314 )  
( -0.000218167 -0.000367835 1.67422e-05 )  
( -0.0019137 0.000896813 -0.00256049 )  
( 0.000547556 1.67403e-05 -1.71031e-05 )  
( -0.000860488 -8.34005e-05 0.00148488 )  
( -0.0017612 -5.72887e-05 -0.00112545 )  
( -0.000479284 0.00161379 0.00347332 )  
( -0.0014842 0.00262786 0.000737843 )  
( -0.000404621 0.00172576 0.00232517 )  
( -0.000426619 0.00175069 -3.67805e-05 )  
( -0.000475813 0.000433965 0.00206719 )  
( 0.00196332 8.30025e-05 0.00566032 )  
( 0.00149469 -0.00159797 0.00509277 )  
( -0.000225469 -9.74343e-05 0.00369339 )  
( -0.000429759 -0.000656799 0.00279881 )  
( -0.00170201 -0.000241674 0.00122574 )  
( -0.000293577 -0.000428516 0.00323394 )  
( -0.000377759 0.000879286 0.00329788 )  
( -5.94094e-05 0.000234417 0.00495338 )  
( 0.000394963 0.000459215 0.00392608 )  
( -0.0020663 -0.000439461 0.00502336 )  
( 0.000693566 0.000815823 0.00240272 )  
( -0.00208238 0.000962412 -0.00198844 )  
( 0.000144555 0.000675214 0.00101575 )  
( -0.000465639 -0.000193096 0.00353035 )  
( 0.00102279 0.000587614 0.00462635 )  
( -0.000599477 0.000161936 0.00323046 )  
( -0.00209814 -0.00072827 0.00418951 )  
( -0.000148508 -0.000774305 0.00315948 )  
( -0.000323288 0.00133237 0.0032595 )  
( 0.000616287 0.000675226 -0.000251121 )  
( -0.000289265 0.000206669 -0.000109487 )  
( -0.000271436 -0.000153709 0.00197617 )  
( -7.83542e-06 0.000935803 0.00412712 )  
( -0.000783013 0.000635699 0.000801799 )  
( 0.00174032 -0.000672404 0.00595331 )  
( -0.00136982 0.000378512 0.00268378 )  
( 0.000364883 0.00136375 0.00233918 )  
( 0.000683451 -0.000730702 0.00373611 )  
( 0.000725562 -0.00215618 0.00486121 )  
( 0.00109701 0.00202519 -0.00193667 )  
( -0.000693744 0.0011976 0.00219765 )  
( 0.00013694 0.000999027 0.0124932 )  
( -0.00194278 -0.000848789 0.00176276 )  
( -0.000748581 -0.000594276 0.00401476 )  
( -0.00190653 0.000879614 0.00509309 )  
( 0.000274635 0.000643414 -0.00147394 )  
( 0.00138303 0.000405295 0.00413283 )  
( -0.000245913 -0.000189362 0.000186048 )  
( -0.000401866 -0.000136269 0.000874268 )  
( -0.000990395 -0.00235149 0.000214378 )  
( 0.000620345 -0.000408 -0.000281125 )  
( 0.00102976 -0.000912792 -0.000856228 )  
( 0.000315399 0.000291407 0.000665921 )  
( 0.000862311 -0.000511502 0.00425272 )  
( 0.000803272 -0.000743806 3.29782e-06 )  
( 0.00181903 0.000364827 -0.00132114 )  
( -0.00261764 0.0017227 0.00127544 )  
( -0.000966315 -0.000133049 0.00187974 )  
( -5.09663e-05 0.000333848 2.72255e-05 )  
( 0.00098689 0.00274652 0.00328133 )  
( 0.000925736 0.00148083 -0.000292582 )  
( 5.43088e-05 2.36159e-05 2.40078e-05 )  
( 0.00103286 0.000756904 0.00242365 )  
( 5.07234e-05 -6.07261e-05 0.00528649 )  
( -0.00189921 0.00150888 -0.00013673 )  
( 1.06376e-05 -6.73303e-05 -0.000393087 )  
( 0.00205647 0.000978737 -0.000359357 )  
( -0.00214949 -0.00163235 0.00289076 )  
( 0.000791768 0.000536958 0.00080916 )  
( -0.000174706 0.000474219 2.30034e-05 )  
( -0.00062989 0.00118465 0.00249924 )  
( -0.000961265 -0.000122107 0.0022001 )  
( -0.000295234 0.000303416 0.00396471 )  
( 0.000749757 0.00054446 0.00274658 )  
( -0.000392902 0.000826265 0.00440508 )  
( 0.00115288 -0.000652856 0.000124886 )  
( 0.000288889 -0.000518218 0.0017822 )  
( -0.000164377 0.00020739 0.00156298 )  
( -0.000222147 -0.000368934 0.00337531 )  
( 0.00031802 9.97631e-05 0.000261422 )  
( 0.00244836 0.00020074 -0.000390954 )  
( -0.000476028 -0.000263058 -5.91823e-05 )  
( 0.000961629 0.00184319 0.00132407 )  
( -0.000752388 0.000245036 0.00280108 )  
( 7.81667e-05 0.000632169 -9.07979e-05 )  
( -0.00193013 -5.17439e-05 -0.00114695 )  
( -0.000344103 -0.000622277 3.49488e-06 )  
( 4.70127e-05 0.000691051 0.00321943 )  
( -4.71703e-05 -4.04375e-05 0.00450999 )  
( -0.000670721 0.000966921 0.0018875 )  
( -0.00039173 -0.000693551 0.00332585 )  
( 8.6961e-05 0.000102422 3.51112e-05 )  
( -3.15309e-05 0.0010396 0.00361193 )  
( 7.21868e-05 4.1448e-05 0.0011578 )  
( -0.000296645 -0.000618594 0.00404824 )  
( -0.00199382 0.000337669 -0.00110171 )  
( -0.000602685 0.000205604 0.0019457 )  
( 0.000287038 0.00041945 0.00335418 )  
( 0.00146329 0.00069235 0.00287724 )  
( -0.000985151 0.000483785 0.00286877 )  
( -0.00033676 0.00120934 0.00293301 )  
( 0.0023209 -0.00244875 5.17412e-05 )  
( 0.00056758 0.00014088 -0.000111117 )  
( -0.000322545 9.39768e-05 -3.51722e-05 )  
( -0.000190842 -0.000199494 0.00391134 )  
( 0.000419368 -0.000943866 0.00215196 )  
( -0.000625715 -0.0014121 -0.000162578 )  
( -0.000377581 -0.000453635 7.43939e-05 )  
( 0.000259943 0.00187417 8.14353e-05 )  
( -0.00331889 0.00199808 0.00281275 )  
( 0.000700695 -0.00210387 0.00552717 )  