/*--------------------------------*- C++ -*----------------------------------*\
| =========                 |                                                 |
| \\      /  F ield         | OpenFOAM: The Open Source CFD Toolbox           |
|  \\    /   O peration     | Version:  2506                                  |
|   \\  /    A nd           | Website:  www.openfoam.com                      |
|    \\/     M anipulation  |                                                 |
\*---------------------------------------------------------------------------*/
FoamFile
{
    version     2.0;
    format      ascii;
    arch        "LSB;label=32;scalar=64";
    class       volScalarField;
    location    "0.09";
    object      Ksl;
}
// * * * * * * * * * * * * * * * * * * * * * * * * * * * * * * * * * * * * * //

dimensions      [1 -3 -1 0 0 0 0];

internalField   nonuniform List<scalar> 
1152
(
58653.8
192093
137709
96729.3
133216
70523.6
621858
123621
99136.1
141950
114203
85893.2
152090
146405
64263.4
51862.1
274432
112965
126808
498038
176848
209035
144459
118486
146047
145754
267896
173994
5.98728e+06
213193
9.38986e+06
349981
109642
771634
211556
1.04088e+07
431952
208787
423268
148519
242773
318545
172849
764785
138574
174491
129875
210462
277684
171326
268314
576849
304217
398597
138449
159239
159499
232107
279600
351034
3.33187e+06
278648
172451
711404
153200
355365
199122
192779
219329
301571
347013
214327
435846
176178
404945
170479
120037
2.16755e+06
104714
154675
452637
141307
282818
128041
118932
490470
161899
9.21229e+06
206315
121562
204437
418321
1.90147e+06
537039
250512
298104
66088.2
44320.6
123118
38274.8
67407.4
207659
68049.6
218027
152016
50235.1
98301.3
58170.9
147251
131679
24404.2
42163.9
0
0
0
0
0
0
0
0
0
0
0
0
1450.18
1781.99
0
0
0
0
0
0
0
0
0
0
0
0
0
0
0
0
0
0
0
0
0
0
0
0
0
0
0
0
0
0
0
0
0
0
0
0
0
0
0
0
0
0
0
0
0
0
0
0
0
0
0
0
0
0
0
0
0
0
0
0
0
0
0
0
0
0
0
0
0
0
0
0
0
0
0
0
0
0
0
0
0
0
0
0
0
0
0
0
0
0
0
0
0
0
0
0
0
0
0
0
0
0
0
0
0
0
0
0
0
0
0
0
0
0
0
0
0
0
0
0
0
0
0
0
0
0
0
0
0
0
0
0
0
0
0
0
0
0
0
0
0
0
0
0
0
0
0
0
0
0
0
0
0
0
0
0
0
0
0
0
0
0
0
0
0
0
0
0
0
0
0
0
0
0
0
0
0
0
0
0
0
0
0
0
0
0
0
0
0
0
0
0
0
0
0
0
0
0
0
0
0
0
0
0
0
0
0
0
0
0
0
0
0
0
0
0
0
0
0
0
0
0
0
0
0
0
0
0
0
0
0
0
0
0
0
0
0
0
0
0
0
0
0
0
0
0
0
0
0
0
0
0
0
0
0
0
0
0
152810
163844
307651
124561
125118
125332
69980.9
121088
144625
232754
89315.7
77188.2
88219.9
98709.6
90993.5
1.02345e+06
89676.6
152185
184893
96504.4
430354
109664
120082
538445
100815
197168
129337
144660
122253
389846
719063
128692
509914
195927
296486
275775
223277
224927
412180
133987
723231
261563
159701
523482
7.39481e+06
131660
552701
129129
446052
231388
245453
98484.8
752703
197398
185403
585279
140883
228838
230538
276182
406141
330385
253830
207859
257582
191904
198801
187722
190911
171776
340026
301277
250791
3.03494e+07
153742
253054
255743
151790
334544
150167
553738
144290
266733
109022
157016
355277
202333
139961
216895
178716
204801
306870
229621
367721
267813
3.91439e+06
72446.3
95814.3
117288
59910
44388.5
47412.1
134540
168909
46253.8
34280.2
56007.3
33128.6
42271.4
69708.7
56916.8
119867
0
0
0
0
0
0
0
0
0
0
0
0
0
0
0
0
0
0
0
0
0
0
0
0
0
0
0
0
0
0
0
0
0
0
0
0
0
0
0
0
0
0
0
0
0
0
0
0
0
0
0
0
0
0
0
0
0
0
0
0
0
0
0
0
0
0
0
0
0
0
0
0
0
0
0
0
0
0
0
0
0
0
0
0
0
0
0
0
0
0
0
0
0
0
0
0
0
0
0
0
0
0
0
0
0
0
0
0
0
0
0
0
0
0
0
0
0
0
0
0
0
0
0
0
0
0
0
0
0
0
0
0
0
0
0
0
0
0
0
0
0
0
0
0
0
0
0
0
0
0
0
0
0
0
0
0
0
0
0
0
0
0
0
0
0
0
0
0
0
0
0
0
0
0
0
0
0
0
0
0
0
0
0
0
0
0
0
0
0
0
0
0
0
0
0
0
0
0
0
0
0
0
0
0
0
0
0
0
0
0
0
0
0
0
0
0
0
0
0
0
0
0
0
0
0
0
0
0
0
0
0
0
0
0
0
0
0
0
0
0
0
0
0
0
0
0
0
0
0
0
0
0
0
0
0
0
0
0
0
0
0
0
0
0
0
0
0
0
0
0
0
0
80736.6
82865.2
167602
75779
138831
175565
1.17242e+06
171189
151578
137676
99795.5
124255
191864
155032
108627
97896.7
873495
201170
167771
145116
188275
194487
136393
110120
169366
122349
189062
176631
675380
406626
144658
387216
119280
206762
1.98438e+06
232442
223528
283167
160127
259185
262168
346990
170885
348893
133367
217309
314287
109575
372386
218231
578750
172728
354593
259361
141748
261809
243089
237120
2.88875e+06
156528
235067
199724
6.28315e+06
1.10598e+07
306370
163877
266929
583273
207768
205852
213840
153244
235547
230632
123956
327715
287979
184502
185611
101134
462423
142897
1.2656e+07
132242
147171
714917
90954.6
799579
189086
270945
321656
277026
226084
243256
192908
257243
71859.3
74324
196790
62162.7
60316.4
114054
60547.2
26677.6
99701.1
49137.8
25113.4
76102
72325.5
53339.7
23284.1
20657.6
0
0
0
0
0
0
0
0
0
0
0
0
0
0
0
0
0
0
0
0
0
0
0
0
0
0
0
0
0
0
0
0
0
0
0
0
0
0
0
0
0
0
0
0
0
0
0
0
0
0
0
0
0
0
0
0
0
0
0
0
0
0
0
0
0
0
0
0
0
0
0
0
0
0
0
0
0
0
0
0
0
0
0
0
0
0
0
0
0
0
0
0
0
0
0
0
0
0
0
0
0
0
0
0
0
0
0
0
0
0
0
0
0
0
0
0
0
0
0
0
0
0
0
0
0
0
0
0
0
0
0
0
0
0
0
0
0
0
0
0
0
0
0
0
0
0
0
0
0
0
0
0
0
0
0
0
0
0
0
0
0
0
0
0
0
0
0
0
0
0
0
0
0
0
0
0
0
0
0
0
0
0
0
0
0
0
0
0
0
0
0
0
0
0
0
0
0
0
0
0
0
0
0
0
0
0
0
0
0
0
0
0
0
0
0
0
0
0
0
0
0
0
0
0
0
0
0
0
0
0
0
0
0
0
0
0
0
0
0
0
0
0
0
0
0
0
0
0
0
0
0
0
0
0
0
0
0
0
0
0
0
0
0
0
0
0
0
0
0
0
0
0
)
;

boundaryField
{
    inlet
    {
        type            zeroGradient;
    }
    outlet
    {
        type            zeroGradient;
    }
    wall
    {
        type            zeroGradient;
    }
    procBoundary1to0
    {
        type            processor;
        value           nonuniform List<scalar> 
192
(
741821
130660
153240
172171
252774
207328
236562
108324
1.17683e+07
202196
146224
1.09931e+06
229952
190612
7.20795e+06
109481
207099
405804
128043
2.43844e+06
193676
124235
142734
142756
88948.6
542343
41406.9
96101.8
0
0
0
0
0
0
0
0
0
0
0
0
0
0
0
0
0
0
0
0
0
0
0
0
0
0
0
0
0
0
0
0
0
0
0
0
0
0
0
0
0
0
0
0
0
0
0
0
0
0
0
0
0
0
0
0
0
0
0
0
0
0
0
0
0
0
0
0
126913
243521
82740.1
505551
335273
83926.4
4.43085e+07
284783
130846
310851
247587
160365
148428
177660
174279
203852
176983
247845
347294
206820
139391
243865
131133
183156
79384.9
82157.3
26595.9
60348.8
0
0
0
0
0
0
0
0
0
0
0
0
0
0
0
0
0
0
0
0
0
0
0
0
0
0
0
0
0
0
0
0
0
0
0
0
0
0
0
0
0
0
0
0
0
0
0
0
0
0
0
0
0
0
0
0
0
0
0
0
0
0
0
0
0
0
0
0
)
;
    }
    procBoundary1to3
    {
        type            processor;
        value           nonuniform List<scalar> 
192
(
55341
149276
126728
1.74304e+06
93465.1
267936
104465
167969
455158
261576
317958
144206
8.64576e+06
265402
228217
200660
4.39538e+06
101637
447510
1.19608e+06
123846
203102
199481
137557
112938
94613.7
130136
85838.8
0
608.737
0
0
0
0
0
0
0
0
0
0
0
0
0
0
0
0
0
0
0
0
0
0
0
0
0
0
0
0
0
0
0
0
0
0
0
0
0
0
0
0
0
0
0
0
0
0
0
0
0
0
0
0
0
0
0
0
0
0
0
0
0
0
0
0
0
0
92452.7
77645.9
224950
203991
117664
238325
124640
121912
323429
556835
268131
339409
165858
247509
131308
152411
219998
291559
368511
241246
153117
177300
106118
250939
68488.4
53783.4
93225.3
91763.3
0
0
0
0
0
0
0
0
0
0
0
0
0
0
0
0
0
0
0
0
0
0
0
0
0
0
0
0
0
0
0
0
0
0
0
0
0
0
0
0
0
0
0
0
0
0
0
0
0
0
0
0
0
0
0
0
0
0
0
0
0
0
0
0
0
0
0
0
)
;
    }
}


// ************************************************************************* //
