/*--------------------------------*- C++ -*----------------------------------*\
| =========                 |                                                 |
| \\      /  F ield         | OpenFOAM: The Open Source CFD Toolbox           |
|  \\    /   O peration     | Version:  2506                                  |
|   \\  /    A nd           | Website:  www.openfoam.com                      |
|    \\/     M anipulation  |                                                 |
\*---------------------------------------------------------------------------*/
FoamFile
{
    version     2.0;
    format      ascii;
    arch        "LSB;label=32;scalar=64";
    class       surfaceScalarField;
    location    "0.09";
    object      phi;
}
// * * * * * * * * * * * * * * * * * * * * * * * * * * * * * * * * * * * * * //

dimensions      [0 3 -1 0 0 0 0];

oriented        oriented;

internalField   nonuniform List<scalar> 
3120
(
-9.60863e-09
-2.0435e-08
7.24873e-08
3.61023e-08
-5.73641e-09
-7.93217e-09
5.09416e-08
6.96037e-09
-7.72302e-09
-4.69649e-09
5.14919e-08
8.00003e-09
-8.01827e-10
4.20959e-08
5.48322e-09
-1.23948e-09
-1.45233e-09
3.27148e-09
4.08163e-08
-8.99301e-09
-4.0849e-09
5.85901e-08
2.10081e-09
3.28513e-09
3.42988e-08
8.62071e-10
5.89086e-08
-4.64093e-09
-5.67123e-09
1.01708e-08
5.78285e-08
-2.8987e-09
2.68754e-09
4.49155e-08
-4.09889e-09
2.26157e-08
3.57807e-08
6.0313e-09
5.3349e-08
-8.79375e-09
-9.57759e-09
5.18223e-08
8.87014e-09
3.46498e-08
-3.89811e-08
1.36498e-07
6.54455e-08
-2.84753e-08
-3.88906e-09
-1.11333e-09
4.07833e-08
2.47182e-08
-6.64453e-09
-8.47621e-09
5.17107e-08
1.04625e-08
3.12381e-09
2.39667e-09
4.60014e-08
-6.67456e-09
-2.37343e-09
4.50274e-08
1.18223e-09
1.38351e-09
-5.32388e-09
9.44615e-09
3.01532e-08
3.85404e-09
5.9965e-09
3.49394e-08
-2.87302e-09
2.30056e-09
4.1122e-08
-6.79112e-09
5.81728e-08
2.28047e-09
-1.16444e-08
2.91429e-08
4.30256e-08
-3.55701e-09
3.93821e-09
3.88865e-08
-9.39175e-09
1.19689e-08
3.19471e-08
-3.11204e-09
3.30075e-08
7.27066e-09
-2.26271e-08
1.13198e-07
-2.53861e-08
3.43216e-08
-1.64577e-08
1.67038e-07
2.92797e-08
7.12136e-09
7.00124e-09
1.00437e-08
6.39821e-08
-6.07888e-08
1.53623e-09
3.12932e-09
4.57664e-08
8.27999e-09
1.23728e-10
2.59902e-09
3.97732e-08
5.04171e-09
2.75072e-08
4.72816e-08
-2.9287e-08
-3.50712e-10
5.92762e-10
7.45022e-09
2.70578e-08
2.84499e-09
1.38096e-09
3.44355e-08
-4.46256e-09
-4.66142e-09
5.569e-08
-2.57455e-10
7.09461e-08
1.05288e-08
-7.31089e-09
-1.37662e-08
4.54804e-08
-2.08873e-09
-1.18499e-09
3.62303e-08
-3.33229e-10
-2.21413e-08
4.76715e-08
2.71603e-09
2.43339e-08
5.36687e-09
-1.09567e-10
1.03191e-07
-1.89172e-08
4.77452e-08
2.43283e-08
8.92123e-08
3.63861e-08
1.74042e-08
1.53016e-08
8.15203e-09
5.73195e-08
2.26528e-09
4.46662e-09
-1.32316e-09
4.30758e-08
1.48488e-08
-8.94379e-10
-5.59587e-09
4.07846e-08
9.94543e-09
3.11568e-12
4.17628e-08
5.76099e-09
-1.13968e-09
7.32644e-10
2.50524e-09
3.92949e-08
3.71994e-09
2.75823e-09
2.73668e-08
4.59932e-09
-5.57027e-09
5.4785e-08
6.2688e-09
6.66267e-08
2.6531e-09
3.79639e-09
2.02181e-09
4.09065e-08
-2.03544e-09
-2.18508e-09
4.70054e-08
7.45139e-09
-1.15717e-10
3.273e-08
-1.3873e-09
4.2626e-08
-3.18459e-09
1.3589e-09
1.20407e-07
1.71956e-09
3.87603e-08
5.61661e-09
8.33448e-08
4.85875e-08
-3.75933e-09
3.54218e-09
4.49943e-09
4.97064e-08
2.98121e-09
6.4603e-09
1.39017e-09
4.82534e-08
-9.48592e-09
1.21237e-08
-2.40889e-09
3.56387e-08
1.89132e-09
4.72944e-09
4.95698e-08
2.29776e-09
-2.71043e-09
7.36762e-11
-1.18692e-08
6.42231e-08
1.42151e-09
1.53917e-09
2.587e-08
1.42525e-08
3.80531e-10
3.91646e-08
-1.81151e-08
1.14986e-07
-1.12619e-08
1.52413e-08
-5.85841e-10
4.07367e-08
1.45049e-09
-5.08972e-09
6.74252e-08
4.71241e-09
-4.64217e-09
3.44908e-08
-7.17334e-09
4.08491e-08
-4.45246e-09
1.15254e-08
9.0276e-08
1.00863e-08
2.26383e-08
8.68161e-09
7.90699e-08
5.23898e-08
-4.9457e-09
1.35407e-09
-7.79693e-09
5.54985e-08
3.80331e-09
-7.85176e-10
-2.54449e-09
6.08198e-08
-7.88265e-09
4.37579e-09
1.08042e-09
2.89935e-08
4.03804e-10
-2.07543e-09
5.40756e-08
2.94562e-09
-1.00022e-09
4.12199e-09
-5.8661e-09
6.57316e-08
2.71634e-09
-7.13685e-11
2.48025e-08
-7.88037e-11
4.05808e-10
4.26343e-08
3.50735e-10
1.19507e-07
-7.02607e-09
1.01814e-08
-1.08775e-08
3.77477e-08
6.009e-09
1.21809e-09
7.03081e-08
2.88225e-09
3.25919e-09
3.47642e-08
7.27735e-11
4.63313e-08
-2.32208e-09
5.99219e-09
6.40524e-08
4.01274e-09
3.52833e-08
6.87151e-10
9.36532e-08
6.07015e-08
-1.11356e-09
-1.97628e-09
-8.36394e-10
5.67327e-08
2.2186e-10
1.68491e-09
4.36074e-09
5.77575e-08
-4.95975e-09
-6.41283e-09
-2.4128e-09
4.31543e-08
-3.65021e-09
-1.12074e-08
6.14959e-08
-1.51194e-09
-1.11399e-09
3.30311e-09
3.70912e-09
5.44379e-08
-2.0315e-09
-3.65852e-09
3.81564e-08
-6.07166e-09
1.24548e-09
4.30161e-08
6.7902e-09
8.6403e-08
9.03447e-09
-1.54524e-09
4.69882e-10
4.86171e-08
3.73409e-09
5.1733e-09
5.61969e-08
-2.28792e-10
-2.85886e-09
4.28314e-08
1.10001e-10
4.60308e-08
6.75188e-09
2.31242e-09
6.29087e-08
-5.53378e-09
4.89833e-08
3.68495e-09
7.37595e-08
5.8717e-08
3.62105e-09
-2.93138e-11
-6.23778e-09
6.01529e-08
2.71828e-09
4.731e-09
-1.25916e-09
5.69047e-08
-2.64828e-09
3.63573e-09
-9.98916e-10
4.55968e-08
-3.48058e-10
-5.03819e-09
6.19654e-08
2.89425e-09
5.31018e-09
8.99827e-09
1.51161e-11
5.05308e-08
5.60957e-09
2.52762e-09
3.77582e-08
-1.20819e-09
4.93994e-09
4.38947e-08
1.39042e-08
4.89179e-08
1.73343e-08
6.2479e-09
8.64062e-10
4.47311e-08
8.34598e-09
1.66736e-09
5.4959e-08
4.70813e-09
4.91791e-09
4.64911e-08
8.79657e-09
4.81952e-08
7.65112e-09
5.83376e-09
3.97761e-08
8.93316e-09
3.80764e-08
8.23685e-09
6.7828e-08
6.09647e-08
5.04577e-09
-2.83261e-10
8.03855e-09
5.60735e-08
-5.76469e-09
2.11811e-09
9.54003e-09
5.45904e-08
-9.62721e-09
-1.78628e-09
4.47155e-09
5.04663e-08
-5.43699e-09
7.23501e-09
5.52746e-08
-5.58275e-09
3.25214e-09
-3.50065e-09
2.32029e-09
5.18288e-08
-3.88084e-09
-5.71678e-11
4.77353e-08
-4.22047e-09
-1.03382e-10
4.8809e-08
2.32934e-09
5.08134e-08
-1.21075e-09
1.90698e-09
-1.31638e-09
5.14869e-08
1.13651e-09
1.91318e-09
5.3759e-08
-6.97449e-10
-2.56682e-09
5.07883e-08
1.66118e-11
5.0973e-08
-1.16273e-09
2.53851e-09
4.9071e-08
-6.9154e-09
4.98691e-08
-2.45299e-09
5.84229e-08
5.6402e-08
-1.74808e-09
1.26042e-09
2.80715e-09
5.4707e-08
-2.30212e-09
2.06398e-09
3.31168e-09
5.41312e-08
-3.65625e-09
2.96175e-10
1.30537e-09
5.24741e-08
-1.54567e-09
2.16726e-09
5.38305e-08
-1.5154e-09
1.08813e-09
4.25581e-10
1.08353e-09
5.27203e-08
-1.65188e-10
-1.98223e-10
5.18358e-08
-1.30412e-09
-4.12979e-10
5.1666e-08
4.88704e-10
5.24923e-08
-1.30479e-09
1.89374e-09
9.88963e-11
5.34416e-08
1.17932e-09
5.74214e-10
5.37008e-08
3.31224e-11
-1.24069e-09
5.27621e-08
-2.75388e-10
5.27862e-08
-1.01616e-09
1.15901e-09
5.24729e-08
-1.9381e-09
5.30117e-08
-9.93578e-10
5.50099e-08
5.46981e-08
-1.55118e-09
7.27771e-10
1.48879e-09
5.4617e-08
-1.34206e-09
7.65981e-10
1.54946e-09
5.4352e-08
-1.80873e-09
-3.44036e-10
8.96816e-10
5.36376e-08
-9.50617e-10
1.22472e-09
5.39285e-08
-1.32129e-09
-3.45733e-10
4.94934e-10
5.10732e-10
5.38078e-08
4.05996e-11
2.13079e-10
5.36262e-08
-8.17044e-10
6.26797e-11
5.33575e-08
4.85472e-10
5.36283e-08
-1.21403e-09
9.43004e-10
1.61873e-10
5.42438e-08
4.13684e-10
2.41052e-10
5.4202e-08
-3.29309e-10
-2.65423e-10
5.3833e-08
5.66904e-11
5.38058e-08
-9.2029e-10
5.24446e-10
5.38666e-08
-4.92202e-10
5.40848e-08
-7.24326e-10
5.44839e-08
5.44701e-08
-1.26553e-09
5.89583e-10
7.00821e-10
5.46948e-08
-6.91134e-10
5.68693e-10
6.61369e-10
5.45253e-08
-8.14005e-10
6.44453e-11
3.88567e-10
5.4171e-08
-4.17938e-10
3.94867e-10
5.41751e-08
-4.83861e-10
-9.32741e-11
4.60746e-10
2.64496e-10
5.44327e-08
2.44428e-10
1.81806e-10
5.43219e-08
-2.36923e-10
9.05595e-11
5.41367e-08
1.9515e-10
5.4163e-08
-5.72e-10
5.78943e-10
1.59532e-10
5.46047e-08
2.93607e-10
1.45214e-10
5.45239e-08
-1.29044e-10
9.88251e-12
5.43362e-08
9.16523e-11
5.4285e-08
-5.04981e-10
3.99984e-10
5.44639e-08
-5.60526e-12
5.4509e-08
-3.08525e-10
5.45347e-08
5.45182e-08
-7.19193e-10
4.18956e-10
3.44038e-10
5.47814e-08
-3.51052e-10
3.46567e-10
3.2915e-10
5.4662e-08
-3.93581e-10
6.22759e-11
2.39304e-10
5.44619e-08
-2.45955e-10
2.34181e-10
5.43653e-08
-2.92807e-10
-6.92531e-11
3.71531e-10
1.74387e-10
5.47275e-08
2.30522e-10
1.52112e-10
5.46399e-08
-2.85216e-11
1.24981e-10
5.451e-08
1.59594e-10
5.44478e-08
-2.38765e-10
4.00182e-10
1.25848e-10
5.47987e-08
2.36327e-10
1.16144e-10
5.47236e-08
4.29407e-12
8.65016e-11
5.46066e-08
1.22865e-10
5.45346e-08
-2.08611e-10
3.36082e-10
5.47525e-08
1.48596e-10
5.47271e-08
-6.16641e-11
5.4675e-08
5.46231e-08
-3.06749e-10
3.02851e-10
1.76804e-10
5.48388e-08
-1.82526e-10
2.43116e-10
1.73819e-10
5.4748e-08
-2.00082e-10
1.01688e-10
1.43654e-10
5.46076e-08
-1.4789e-10
1.34289e-10
5.44719e-08
-1.59179e-10
2.00837e-11
2.89924e-10
1.09584e-10
5.48676e-08
2.02241e-10
1.07517e-10
5.47939e-08
6.37881e-11
1.0201e-10
5.46902e-08
1.1328e-10
5.45886e-08
-5.58165e-11
2.97975e-10
7.90207e-11
5.49111e-08
2.01674e-10
8.05478e-11
5.48469e-08
7.17089e-11
8.23902e-11
5.47563e-08
1.00753e-10
5.46641e-08
-4.52432e-11
2.81951e-10
5.49039e-08
1.80884e-10
5.48567e-08
5.74342e-11
5.47878e-08
5.47086e-08
-8.20325e-11
2.21132e-10
9.52154e-11
5.48742e-08
-9.78619e-11
1.79206e-10
9.85596e-11
5.48e-08
-1.08484e-10
1.06351e-10
8.8059e-11
5.46838e-08
-9.12518e-11
8.49374e-11
5.4536e-08
-9.37913e-11
5.13769e-11
2.21694e-10
6.58326e-11
5.49388e-08
1.68321e-10
7.06579e-11
5.48754e-08
9.25387e-11
7.20337e-11
5.47823e-08
7.82309e-11
5.46644e-08
2.38583e-11
2.27325e-10
4.38163e-11
5.49796e-08
1.70688e-10
5.10428e-11
5.49233e-08
9.73437e-11
5.92403e-11
5.48426e-08
7.18041e-11
5.4739e-08
2.91049e-11
2.29497e-10
5.4988e-08
1.71154e-10
5.49382e-08
9.81708e-11
5.4867e-08
5.47725e-08
1.8483e-11
1.63464e-10
5.01181e-11
5.48966e-08
-5.24125e-11
1.36098e-10
5.55572e-11
5.48325e-08
-6.05312e-11
9.6221e-11
5.43529e-11
5.47269e-08
-5.72977e-11
5.54652e-11
5.45755e-08
-5.98023e-11
6.15004e-11
1.67913e-10
3.67061e-11
5.49766e-08
1.35389e-10
4.29598e-11
5.49209e-08
9.21563e-11
4.684e-11
5.48335e-08
5.19681e-11
5.47096e-08
5.10258e-11
1.73776e-10
2.20442e-11
5.5021e-08
1.39479e-10
2.98508e-11
5.49709e-08
9.67569e-11
3.76717e-11
5.48948e-08
4.72294e-11
5.47861e-08
5.47934e-11
1.79886e-10
5.50369e-08
1.44953e-10
5.49901e-08
1.01445e-10
5.49198e-08
5.48186e-08
5.44636e-11
1.21369e-10
2.61681e-11
5.49107e-08
-2.80081e-11
1.0379e-10
3.165e-11
5.48533e-08
-3.46566e-11
7.99312e-11
3.40007e-11
5.47533e-08
-3.62173e-11
3.66311e-11
5.46008e-08
-4.00452e-11
5.84974e-11
1.26347e-10
1.92235e-11
5.49979e-08
1.06256e-10
2.49916e-11
5.4948e-08
8.03598e-11
2.94886e-11
5.48644e-08
3.40339e-11
5.47385e-08
5.46579e-11
1.3175e-10
9.88087e-12
5.5046e-08
1.10593e-10
1.63244e-11
5.50011e-08
8.44331e-11
2.26942e-11
5.49281e-08
2.94631e-11
5.48175e-08
5.79381e-11
1.37494e-10
5.50658e-08
1.16075e-10
5.50231e-08
8.9328e-11
5.4955e-08
5.48515e-08
6.03736e-11
8.99302e-11
1.34015e-11
5.49197e-08
-1.48357e-11
7.87492e-11
1.8031e-11
5.48668e-08
-2.01711e-11
6.40708e-11
2.11028e-11
5.47703e-08
-2.3126e-11
2.40871e-11
5.46183e-08
-2.70508e-11
5.00118e-11
9.4413e-11
9.40547e-12
5.50105e-08
8.18047e-11
1.40465e-11
5.49649e-08
6.56144e-11
1.79853e-11
5.48841e-08
2.16817e-11
5.47583e-08
4.88002e-11
9.87983e-11
3.52948e-12
5.5061e-08
8.55718e-11
8.32853e-12
5.50202e-08
6.89952e-11
1.30633e-11
5.49498e-08
1.77103e-11
5.48393e-08
5.14861e-11
1.03231e-10
5.50827e-08
8.98444e-11
5.5044e-08
7.28023e-11
5.49784e-08
5.48751e-08
5.41049e-11
6.62252e-11
6.57321e-12
5.49254e-08
-7.72374e-12
5.9045e-11
1.02069e-11
5.48758e-08
-1.18399e-11
4.96858e-11
1.3041e-11
5.47817e-08
-1.48532e-11
1.57246e-11
5.46307e-08
-1.82503e-11
4.02171e-11
6.98166e-11
4.08468e-12
5.50182e-08
6.18001e-11
7.62082e-12
5.49757e-08
5.13633e-11
1.07207e-11
5.48972e-08
1.35265e-11
5.47721e-08
4.01371e-11
7.31052e-11
5.11923e-13
5.50699e-08
6.47246e-11
3.8732e-12
5.50324e-08
5.39441e-11
7.16632e-12
5.49643e-08
1.02689e-11
5.48545e-08
4.21284e-11
7.62777e-11
5.50927e-08
6.7828e-11
5.50574e-08
5.67644e-11
5.49941e-08
5.48916e-08
4.41667e-11
4.80731e-11
2.92973e-12
5.49292e-08
-3.86066e-12
4.34702e-11
5.63962e-12
5.48818e-08
-6.92252e-12
3.73792e-11
7.96058e-12
5.47896e-08
-9.48633e-12
1.01071e-11
5.46396e-08
-1.21797e-11
3.09084e-11
5.07523e-11
1.40534e-12
5.50229e-08
4.56714e-11
3.85571e-12
5.49828e-08
3.88155e-11
6.20976e-12
5.49061e-08
8.27732e-12
5.47819e-08
3.10978e-11
5.31652e-11
-8.82547e-13
5.50754e-08
4.78486e-11
1.39675e-12
5.50403e-08
4.07478e-11
3.67521e-12
5.4974e-08
5.73951e-12
5.48653e-08
3.26399e-11
5.53381e-11
5.50988e-08
4.99878e-11
5.5066e-08
4.27155e-11
5.50046e-08
5.49033e-08
3.41219e-11
3.39574e-11
1.08526e-12
5.49317e-08
-1.76901e-12
3.10509e-11
2.94727e-12
5.48859e-08
-3.93725e-12
2.70888e-11
4.70918e-12
5.4795e-08
-5.92077e-12
6.32413e-12
5.46458e-08
-7.92772e-12
2.26759e-11
3.59013e-11
9.05493e-14
5.50259e-08
3.26864e-11
1.77994e-12
5.49875e-08
2.82015e-11
3.38735e-12
5.49121e-08
4.91278e-12
5.47887e-08
2.2895e-11
3.75386e-11
-1.30138e-12
5.50789e-08
3.4263e-11
2.00386e-13
5.50455e-08
2.95586e-11
1.68129e-12
5.49806e-08
3.08065e-12
5.48728e-08
2.40193e-11
3.89732e-11
5.51026e-08
3.56557e-11
5.50716e-08
3.08782e-11
5.50117e-08
5.49113e-08
2.50708e-11
2.27489e-11
1.51825e-13
5.49334e-08
-6.23638e-13
2.0955e-11
1.3772e-12
5.48886e-08
-2.0825e-12
1.84531e-11
2.58496e-12
5.47986e-08
-3.49011e-12
3.72913e-12
5.46501e-08
-4.88646e-12
1.55465e-11
2.40726e-11
-4.66525e-13
5.50279e-08
2.21134e-11
6.07097e-13
5.49906e-08
1.92229e-11
1.68351e-12
5.4916e-08
2.70866e-12
5.47933e-08
1.57071e-11
2.51064e-11
-1.20528e-12
5.50812e-08
2.31615e-11
-2.85762e-13
5.5049e-08
2.01614e-11
6.11732e-13
5.49849e-08
1.4856e-12
5.48777e-08
1.6506e-11
2.59899e-11
5.5105e-08
2.40006e-11
5.50752e-08
2.09738e-11
5.50163e-08
5.49167e-08
1.71923e-11
1.35473e-11
-4.61212e-13
5.49345e-08
1.20811e-13
1.25044e-11
2.95189e-13
5.48904e-08
-7.68088e-13
1.10616e-11
1.01661e-12
5.48008e-08
-1.64492e-12
1.70338e-12
5.46527e-08
-2.47776e-12
9.31693e-12
1.43313e-11
-8.25187e-13
5.50292e-08
1.32183e-11
-2.05947e-13
5.49925e-08
1.15294e-11
4.39086e-13
5.49184e-08
1.04055e-12
5.47961e-08
9.43182e-12
1.49189e-11
-1.15494e-12
5.50826e-08
1.3823e-11
-6.55515e-13
5.5051e-08
1.20876e-11
-1.70058e-13
5.49875e-08
3.17252e-13
5.48807e-08
9.91975e-12
1.53924e-11
5.51064e-08
1.42684e-11
5.50773e-08
1.25278e-11
5.5019e-08
5.49198e-08
1.03152e-11
5.80433e-12
-1.67999e-12
1.31007e-12
5.25011e-12
-1.32768e-12
9.06359e-13
4.52955e-12
-9.70941e-13
4.8457e-13
-6.08053e-13
5.15801e-14
3.66501e-12
6.12025e-12
-2.01348e-12
5.554e-12
-1.73819e-12
4.76611e-12
-1.43112e-12
-1.10524e-12
3.81308e-12
6.36614e-12
-2.23383e-12
5.82383e-12
-2.03601e-12
5.03523e-12
-1.80812e-12
-1.54439e-12
4.07662e-12
6.54614e-12
6.02288e-12
5.25623e-12
4.30872e-12
-8.0233e-09
1.05843e-10
9.3598e-08
-3.44826e-09
7.24001e-09
6.29887e-08
2.24058e-09
2.26463e-08
3.69661e-08
-1.18938e-08
7.00146e-08
-3.06781e-09
-8.62501e-09
2.10608e-08
4.6562e-08
-7.23035e-09
-8.50729e-09
8.14678e-08
-8.9089e-09
-8.34544e-09
9.11834e-08
1.39274e-09
2.49101e-08
-1.47137e-09
-1.96644e-08
-2.90309e-08
7.98624e-08
-9.51965e-10
-2.6677e-09
3.57107e-08
-7.95567e-09
-1.41565e-08
6.4047e-08
-1.3715e-08
5.41934e-08
-7.97806e-09
-2.42342e-08
8.46095e-08
-8.77627e-09
4.10091e-08
-3.58401e-09
3.23388e-08
2.34351e-08
-3.06843e-09
-1.61618e-09
2.3399e-08
6.71937e-08
-2.35923e-09
2.56186e-09
6.26932e-08
-1.87113e-10
-1.02316e-08
4.44275e-08
-2.94752e-09
7.48838e-08
-5.09773e-09
-8.52703e-09
3.24149e-08
3.04568e-08
-1.12652e-08
1.24571e-08
7.43108e-08
5.14542e-09
4.95934e-09
5.95818e-08
-8.30451e-09
3.60867e-08
-6.74208e-10
-2.29561e-08
-1.7985e-08
4.45671e-08
-1.2593e-08
-1.17271e-09
3.89774e-08
-2.43983e-09
-2.29016e-09
6.11433e-08
1.20433e-08
3.29378e-08
-1.53208e-09
-1.7321e-08
1.47196e-07
-4.15126e-09
3.71292e-08
7.15176e-09
1.2071e-08
4.2924e-08
8.88378e-10
9.50292e-09
1.41061e-08
3.25572e-08
2.12227e-09
4.50911e-09
6.68252e-08
1.55352e-09
-8.02337e-10
4.66125e-08
-1.70781e-09
8.10139e-08
-2.26669e-09
5.18869e-09
2.20528e-09
4.53361e-08
-7.5613e-11
1.10729e-08
7.30113e-08
3.86135e-09
7.23308e-09
4.76094e-08
-1.89882e-09
4.19904e-08
-1.85136e-09
8.08086e-09
9.34883e-09
6.93071e-08
-4.33227e-09
-1.12826e-08
7.3746e-08
8.60128e-10
4.52585e-09
5.86582e-08
1.21563e-08
1.96738e-08
6.89726e-11
2.84586e-08
5.95298e-08
3.96057e-09
5.86246e-08
1.52363e-09
2.40755e-08
3.59823e-08
-8.66534e-09
5.40513e-09
2.07433e-09
3.61199e-08
-2.37656e-09
2.06163e-08
5.45858e-08
-7.17244e-09
5.5017e-09
4.70865e-08
-8.59915e-09
8.33062e-08
-1.13493e-09
1.04336e-08
1.87226e-09
4.64138e-08
-1.29638e-08
5.90252e-08
5.79999e-08
-4.42622e-09
6.19386e-09
3.83797e-08
5.34787e-09
2.22661e-08
1.3511e-09
7.51891e-08
-2.39925e-08
5.61356e-08
-3.96516e-08
-5.67449e-08
3.04357e-07
-5.77697e-09
-1.36595e-08
4.46369e-08
-4.34669e-09
2.37678e-08
-1.76386e-10
9.61748e-09
3.43853e-08
-3.26478e-09
2.96108e-08
-5.98316e-09
2.30798e-08
3.51941e-08
-3.78058e-09
7.05938e-09
6.1661e-09
3.17613e-08
-8.71798e-09
2.76857e-08
4.25657e-08
-3.25306e-09
7.70752e-09
3.47213e-08
1.60839e-08
6.20833e-08
3.7634e-09
1.94979e-08
-1.33122e-08
5.67338e-08
-1.24732e-08
9.61034e-08
2.15533e-08
-5.29375e-10
8.21617e-09
2.59272e-08
3.83808e-09
3.04792e-08
3.50334e-09
3.33204e-09
-4.17819e-09
4.21605e-08
-3.98861e-08
4.73973e-08
3.96281e-07
-4.0183e-09
-1.35029e-08
3.04881e-08
5.04991e-09
1.82952e-08
2.42459e-10
-9.60747e-09
4.25114e-08
1.40391e-08
4.38756e-08
5.01874e-09
2.04887e-08
5.05606e-08
-3.00017e-09
-4.26516e-09
-9.56974e-10
4.23388e-08
-1.38549e-09
2.41407e-09
3.79272e-08
1.68924e-09
2.64258e-09
2.85344e-08
4.50463e-09
5.01555e-08
1.06088e-08
-2.60776e-09
-2.54104e-09
6.21021e-08
-2.92519e-10
-4.589e-08
6.75421e-08
9.26618e-10
2.3852e-09
2.49655e-08
1.76804e-08
2.07435e-08
-2.51356e-09
-3.62158e-08
1.70233e-09
6.71544e-08
3.14136e-08
3.53819e-08
2.4738e-07
3.73217e-09
9.7483e-09
5.08065e-08
3.92887e-09
4.12017e-08
-5.42283e-09
-7.19184e-09
5.74242e-08
5.23168e-09
5.89514e-08
-1.98151e-09
3.7854e-08
5.74459e-08
-1.99231e-09
1.74726e-09
-8.23187e-09
4.85864e-08
-4.87592e-10
-1.17678e-08
5.15864e-08
-1.66115e-09
-1.43475e-09
3.29602e-08
2.72716e-09
4.87244e-08
-1.74149e-09
-4.60561e-09
-1.24084e-08
7.08018e-08
2.22638e-09
-3.74945e-08
8.64367e-08
-1.87287e-09
-6.84416e-09
3.44741e-08
-9.25054e-09
3.50889e-08
-4.24054e-09
-2.65717e-08
2.89947e-10
7.97151e-08
1.97964e-08
2.43263e-08
1.39191e-07
1.22124e-09
5.13946e-09
5.7398e-08
-7.25531e-09
4.37922e-08
-3.36448e-09
-7.21212e-09
6.2051e-08
4.70676e-09
6.6399e-08
-2.38597e-09
4.64359e-08
4.68966e-08
-6.03819e-10
-3.42006e-09
-1.22895e-08
6.03763e-08
5.61262e-10
-1.82848e-08
6.58898e-08
-3.71626e-10
-1.18808e-08
4.57738e-08
-1.06042e-08
6.06305e-08
-1.67355e-09
-6.78731e-09
-1.52642e-08
7.60144e-08
3.64664e-09
-2.23166e-08
8.00344e-08
2.88974e-11
-1.18438e-08
3.80547e-08
-1.21228e-08
4.04968e-08
-3.86052e-09
-1.14813e-08
-4.60696e-09
7.57123e-08
9.83943e-09
6.66986e-09
8.88834e-08
2.35361e-09
-1.56495e-09
5.46049e-08
-8.88692e-09
4.45032e-08
-1.59305e-09
-4.95424e-09
6.15246e-08
5.41499e-09
6.00508e-08
2.40159e-09
4.75363e-08
4.17234e-08
1.58246e-09
-6.0931e-10
-9.65247e-09
7.28955e-08
5.02233e-10
-6.10211e-09
7.08801e-08
-3.99812e-09
-4.51378e-09
5.47878e-08
4.14334e-09
5.36603e-08
-1.17124e-09
-9.928e-10
-7.74181e-09
7.44653e-08
4.75683e-09
-3.80111e-09
7.19835e-08
-2.43519e-09
-9.90388e-09
5.06366e-08
-1.84427e-09
4.54201e-08
-1.37094e-09
-9.98363e-10
2.37885e-09
7.02189e-08
5.5913e-09
9.15034e-09
6.93422e-08
-2.5876e-10
-4.0546e-10
5.09562e-08
7.21076e-10
4.08545e-08
8.24451e-10
-5.00913e-10
5.96131e-08
3.29185e-09
5.57807e-08
7.13122e-10
4.42722e-08
3.44259e-08
3.14905e-09
1.43949e-09
-4.18732e-09
7.73815e-08
1.56073e-09
-2.98338e-09
7.3742e-08
-1.34572e-09
-2.99343e-09
6.06875e-08
-1.89851e-10
5.36132e-08
-1.1088e-09
1.11966e-09
-2.93817e-09
7.26638e-08
2.80254e-09
-1.349e-09
6.8666e-08
-6.83023e-10
-3.85069e-09
5.49794e-08
-8.34325e-10
4.61975e-08
-8.15993e-10
1.19368e-09
9.27855e-10
6.67955e-08
3.18744e-09
3.14239e-09
6.28569e-08
2.66267e-10
-4.75494e-10
5.05021e-08
3.43009e-10
3.99203e-08
2.30334e-11
1.21646e-09
5.81617e-08
2.57101e-09
5.39119e-08
8.03569e-10
4.40182e-08
3.31789e-08
8.78258e-10
8.93402e-10
-8.1538e-10
7.85581e-08
6.55132e-10
-1.24718e-10
7.41048e-08
-8.64693e-10
-5.89511e-10
6.27969e-08
7.81791e-10
5.24287e-08
-4.61873e-10
7.6423e-10
-6.19354e-10
7.25225e-08
1.0256e-09
2.84908e-10
6.7995e-08
-6.34348e-10
-9.26041e-10
5.6976e-08
6.10428e-10
4.59965e-08
-2.61645e-10
7.92838e-10
7.65231e-10
6.56916e-08
1.20066e-09
1.53825e-09
6.11957e-08
-2.58546e-10
1.21266e-10
5.09141e-08
8.90771e-10
3.93619e-08
1.9711e-11
7.7779e-10
5.77411e-08
1.07207e-09
5.33469e-08
9.46992e-11
4.4166e-08
3.25584e-08
2.84777e-10
7.15699e-10
-3.3296e-10
7.89722e-08
6.5212e-10
-4.61748e-11
7.42145e-08
-1.83816e-10
-3.73507e-10
6.40064e-08
1.40427e-10
5.23117e-08
-2.06995e-10
6.61341e-10
-9.26918e-11
7.22921e-08
7.66466e-10
2.56488e-10
6.75873e-08
-7.74099e-11
-2.84342e-10
5.77311e-08
2.76701e-10
4.58739e-08
-9.0668e-11
6.67866e-10
4.67016e-10
6.51798e-08
8.23514e-10
7.12676e-10
6.05839e-08
9.129e-11
1.26704e-10
5.12355e-08
4.17315e-10
3.92905e-08
2.22858e-11
6.63657e-10
5.75545e-08
7.64278e-10
5.31448e-08
2.17055e-10
4.44219e-08
3.25815e-08
1.27583e-10
4.34901e-10
-4.79772e-11
7.9082e-08
3.65802e-10
7.67936e-11
7.42069e-08
-5.52173e-11
-7.23387e-11
6.45e-08
1.462e-10
5.21857e-08
-7.51533e-11
4.24999e-10
6.24398e-11
7.22269e-08
4.20091e-10
1.9814e-10
6.74711e-08
7.5321e-12
-2.63655e-11
5.80981e-08
2.11103e-10
4.58282e-08
-1.11884e-11
4.43395e-10
2.66766e-10
6.50228e-08
4.43238e-10
3.57418e-10
6.04249e-08
8.48019e-11
1.24673e-10
5.14432e-08
2.69146e-10
3.92808e-08
3.68678e-11
4.50426e-10
5.75215e-08
4.27354e-10
5.31317e-08
1.39611e-10
4.45885e-08
3.26144e-08
8.34322e-11
2.79843e-10
9.14579e-12
7.9107e-08
2.36944e-10
5.60967e-11
7.41939e-08
3.2382e-11
-1.79259e-11
6.47228e-08
6.28318e-11
5.21706e-08
-1.49639e-11
2.88919e-10
6.91398e-11
7.22042e-08
2.63962e-10
1.14858e-10
6.74378e-08
6.68967e-11
1.78117e-11
5.82601e-08
1.10233e-10
4.5826e-08
2.23965e-11
3.04056e-10
1.51511e-10
6.49769e-08
2.72133e-10
1.79662e-10
6.03923e-08
9.0351e-11
8.83871e-11
5.15548e-08
1.42798e-10
3.9295e-08
4.40627e-11
3.13949e-10
5.75244e-08
2.71436e-10
5.3154e-08
1.18503e-10
4.46822e-08
3.26491e-08
6.79297e-11
1.87024e-10
1.65218e-11
7.91142e-08
1.53091e-10
3.32301e-11
7.41949e-08
4.71672e-11
1.25124e-12
6.48278e-08
3.1732e-11
5.21752e-08
1.13121e-11
2.00451e-10
4.97685e-11
7.21949e-08
1.71883e-10
6.4608e-11
6.74355e-08
6.81252e-11
2.61053e-11
5.83397e-08
5.68213e-11
4.58358e-08
3.39486e-11
2.12773e-10
8.48432e-11
6.49652e-08
1.79192e-10
9.44763e-11
6.03964e-08
8.45834e-11
6.15102e-11
5.16145e-08
7.73666e-11
3.93142e-08
4.53822e-11
2.22274e-10
5.7534e-08
1.84295e-10
5.31783e-08
1.03599e-10
4.47336e-08
3.26747e-08
6.22612e-11
1.29427e-10
1.26144e-11
7.91166e-08
1.04063e-10
1.82946e-11
7.42023e-08
4.70051e-11
4.94226e-12
6.48804e-08
1.4537e-11
5.21887e-08
1.93936e-11
1.42167e-10
3.0522e-11
7.21922e-08
1.18465e-10
3.55688e-11
6.74425e-08
6.30937e-11
2.03905e-11
5.83803e-08
2.98163e-11
4.58499e-08
3.44743e-11
1.51832e-10
4.61291e-11
6.49647e-08
1.25233e-10
5.09648e-11
6.0408e-08
7.31915e-11
3.9883e-11
5.16476e-08
4.485e-11
3.93311e-08
4.18788e-11
1.5978e-10
5.75435e-08
1.3129e-10
5.31977e-08
8.46777e-11
4.47633e-08
3.2693e-08
5.2123e-11
9.15506e-11
7.8029e-12
7.91189e-08
7.32868e-11
9.78749e-12
7.42111e-08
4.07119e-11
4.08884e-12
6.49093e-08
6.96672e-12
5.22029e-08
1.99878e-11
1.02288e-10
1.71763e-11
7.21927e-08
8.44619e-11
1.93864e-11
6.74512e-08
5.25906e-11
1.33122e-11
5.84036e-08
1.65377e-11
4.5863e-08
3.05695e-11
1.09676e-10
2.46488e-11
6.49675e-08
9.04833e-11
2.80576e-11
6.0419e-08
5.90966e-11
2.49939e-11
5.16678e-08
2.733e-11
3.93444e-08
3.55645e-11
1.16049e-10
5.75512e-08
9.58618e-11
5.32117e-08
6.6824e-11
4.47817e-08
3.2706e-08
4.17671e-11
6.56212e-11
4.28457e-12
7.91215e-08
5.27024e-11
5.04831e-12
7.42192e-08
3.27138e-11
2.50038e-12
6.49271e-08
3.29581e-12
5.22153e-08
1.74823e-11
7.39932e-11
9.1979e-12
7.21946e-08
6.14405e-11
1.03784e-11
6.74589e-08
4.15295e-11
8.03514e-12
5.84185e-08
9.26751e-12
4.58739e-08
2.52138e-11
7.97919e-11
1.2946e-11
6.49709e-08
6.61997e-11
1.5543e-11
6.04277e-08
4.59363e-11
1.54351e-11
5.16811e-08
1.70208e-11
3.93547e-08
2.83548e-11
8.47838e-11
5.75569e-08
7.06157e-11
5.32217e-08
5.12595e-11
4.47939e-08
3.27154e-08
3.23427e-11
4.71431e-11
2.15922e-12
7.91242e-08
3.81779e-11
2.43086e-12
7.4226e-08
2.51996e-11
1.29538e-12
6.49391e-08
1.3978e-12
5.22251e-08
1.43172e-11
5.36264e-11
4.6749e-12
7.21967e-08
4.47615e-11
5.37181e-12
6.74651e-08
3.16088e-11
4.60539e-12
5.84287e-08
5.25787e-12
4.58825e-08
1.95496e-11
5.80252e-11
6.59167e-12
6.49739e-08
4.84146e-11
8.58269e-12
6.04345e-08
3.46692e-11
9.45735e-12
5.16904e-08
1.07407e-11
3.93625e-08
2.17271e-11
6.18081e-11
5.75609e-08
5.18662e-11
5.32287e-08
3.84765e-11
4.48023e-08
3.27222e-08
2.44318e-11
3.36755e-11
9.59243e-13
7.91266e-08
2.74494e-11
1.05263e-12
7.42314e-08
1.87705e-11
5.60914e-13
6.49475e-08
4.94502e-13
5.22326e-08
1.09642e-11
3.85215e-11
2.18911e-12
7.21987e-08
3.23179e-11
2.64065e-12
6.747e-08
2.33862e-11
2.51629e-12
5.8436e-08
2.93445e-12
4.5889e-08
1.46096e-11
4.17937e-11
3.14999e-12
6.49763e-08
3.50502e-11
4.66961e-12
6.04394e-08
2.55858e-11
5.70614e-12
5.1697e-08
6.76019e-12
3.93683e-08
1.61204e-11
4.45641e-11
5.75639e-08
3.76242e-11
5.32337e-08
2.82533e-11
4.48082e-08
3.27272e-08
1.79565e-11
2.35435e-11
3.24622e-13
7.91286e-08
1.92916e-11
3.53114e-13
7.42354e-08
1.34707e-11
1.627e-13
6.49533e-08
7.86782e-14
5.22381e-08
7.97493e-12
2.70347e-11
8.55749e-13
7.22003e-08
2.27737e-11
1.1665e-12
6.74737e-08
1.67191e-11
1.27438e-12
5.84411e-08
1.58168e-12
4.58938e-08
1.04746e-11
2.93705e-11
1.30908e-12
6.49781e-08
2.47351e-11
2.39824e-12
6.04431e-08
1.82492e-11
3.33927e-12
5.17016e-08
4.16421e-12
3.93725e-08
1.15065e-11
3.13571e-11
5.75659e-08
2.65744e-11
5.32372e-08
2.00945e-11
4.48123e-08
3.27307e-08
1.27337e-11
1.56824e-11
1.48544e-15
7.91301e-08
1.28966e-11
1.77068e-14
7.42383e-08
9.11312e-12
-3.66891e-14
6.49573e-08
-9.92865e-14
5.2242e-08
5.42457e-12
1.80307e-11
1.62301e-13
7.22016e-08
1.52289e-11
3.87289e-13
6.74763e-08
1.12689e-11
5.46833e-13
5.84445e-08
7.80131e-13
4.58972e-08
7.04886e-12
1.96006e-11
3.08428e-13
6.49795e-08
1.65427e-11
1.09379e-12
6.04456e-08
1.22679e-11
1.81444e-12
5.17047e-08
2.42726e-12
3.93754e-08
7.71547e-12
2.09387e-11
5.75674e-08
1.77762e-11
5.32396e-08
1.3477e-11
4.48151e-08
3.27331e-08
8.49971e-12
9.36573e-12
-2.00331e-13
7.91312e-08
7.69101e-12
-1.78362e-13
7.42403e-08
5.44577e-12
-1.8705e-13
6.49597e-08
-2.21804e-13
5.22444e-08
3.2133e-12
1.07129e-11
-2.46492e-13
7.22026e-08
9.02599e-12
-9.86046e-14
6.7478e-08
6.66931e-12
3.84841e-14
5.84467e-08
2.00245e-13
4.58992e-08
4.1257e-12
1.16218e-11
-2.65345e-13
6.49805e-08
9.77958e-12
2.17791e-13
6.04472e-08
7.23768e-12
6.90014e-13
5.17067e-08
1.10406e-12
3.93773e-08
4.49139e-12
1.24092e-11
5.75684e-08
1.04793e-11
5.32411e-08
7.87507e-12
4.48168e-08
3.27347e-08
4.91749e-12
4.08181e-12
-5.19719e-13
3.13205e-12
-4.88079e-13
2.02964e-12
-4.48927e-13
-4.08541e-13
1.04849e-12
4.56198e-12
-9.58112e-13
3.59108e-12
-8.72647e-13
2.43247e-12
-7.51388e-13
-5.82265e-13
1.33476e-12
4.87314e-12
-1.22414e-12
3.83046e-12
-1.00906e-12
2.59081e-12
-7.50863e-13
-4.64139e-13
1.42407e-12
5.15804e-12
4.07373e-12
2.80694e-12
1.543e-12
5.73468e-09
-6.5369e-09
2.87688e-08
5.49112e-09
-7.22767e-09
3.79902e-08
1.74327e-08
-1.8282e-09
3.41782e-08
-5.64246e-09
7.07728e-08
2.46758e-10
-1.56698e-09
3.46278e-08
4.56574e-09
1.76197e-09
3.66986e-08
1.12164e-08
3.48678e-09
4.68342e-08
-3.37001e-09
7.42467e-08
3.75849e-09
-3.27966e-09
4.16282e-08
4.61846e-09
-6.8869e-09
6.63164e-08
2.44005e-09
5.57878e-10
7.39348e-08
1.94966e-09
7.37912e-08
-7.60127e-10
2.14873e-08
1.69069e-08
3.42419e-08
6.38589e-09
8.81177e-08
9.46151e-08
-2.44253e-09
7.73103e-10
3.27101e-08
3.50109e-09
2.82697e-09
2.76875e-08
-7.44998e-09
5.40565e-09
3.90494e-08
8.35874e-09
5.03024e-08
4.63169e-09
1.31433e-09
3.17353e-08
1.0337e-08
-1.4385e-10
3.39641e-08
-3.75404e-09
-4.72332e-10
6.68032e-08
5.15114e-09
7.3163e-08
6.25535e-09
6.76789e-09
3.71899e-08
9.22251e-09
3.09659e-09
6.01088e-08
2.59363e-09
6.43218e-09
7.36591e-08
1.38574e-08
6.82653e-08
2.59222e-09
4.71037e-08
9.46959e-09
3.78813e-08
2.63107e-08
8.65839e-08
1.55041e-07
-6.13675e-09
-5.83818e-09
3.5669e-08
-9.83788e-09
1.80836e-10
3.12768e-08
4.26021e-09
8.91429e-09
1.41856e-08
2.21332e-09
5.08446e-08
4.75303e-09
2.30663e-09
2.93662e-08
3.72463e-09
1.73825e-09
3.34351e-08
-1.04023e-08
1.68872e-08
7.29572e-08
1.606e-08
4.94686e-08
2.84614e-09
6.98837e-09
3.50289e-08
2.06815e-08
8.70238e-09
3.53092e-08
1.49594e-08
1.7857e-08
7.84113e-08
5.17768e-08
4.87501e-08
2.25023e-08
5.76697e-08
3.19537e-08
4.25773e-08
8.11374e-08
7.14621e-08
3.55472e-07
1.06929e-08
2.32517e-09
1.77307e-08
3.70302e-09
4.29553e-10
3.76607e-08
-5.33408e-09
6.32567e-11
2.45106e-08
1.68482e-09
4.36432e-08
3.38611e-09
-2.13748e-11
3.09798e-08
1.12582e-09
-1.13342e-09
3.72583e-08
5.64103e-09
9.74971e-09
5.87556e-08
5.51188e-09
5.03329e-08
8.39097e-10
-5.43598e-09
3.64198e-08
-1.03717e-09
-6.51857e-10
3.67039e-08
-8.74256e-09
2.22909e-10
9.56435e-08
1.88936e-08
2.91696e-08
8.35186e-09
3.8048e-08
8.24528e-09
4.2431e-08
-5.88474e-10
1.16899e-07
4.22769e-07
2.79315e-09
-2.52981e-09
1.17567e-08
1.83423e-08
-9.46461e-09
3.18186e-08
-1.34728e-08
-1.23374e-08
7.21665e-08
-6.90901e-09
4.19065e-08
-1.10583e-08
-8.99371e-09
3.72401e-08
-3.37774e-09
-1.07837e-08
3.08968e-08
-1.14709e-08
-2.58742e-08
8.03855e-08
-1.84392e-08
5.08206e-08
-1.1831e-08
-4.99722e-09
3.98018e-08
-2.49194e-08
-7.58787e-09
4.65966e-08
-1.67642e-08
-3.1022e-08
9.26361e-08
-5.57925e-08
5.0207e-08
-1.15285e-08
3.73719e-08
-4.68927e-08
6.11939e-08
-9.25468e-08
1.08315e-07
2.18183e-07
-1.19434e-08
-2.3605e-09
2.30681e-08
-1.5927e-08
1.48789e-09
2.88914e-08
-4.18308e-08
-1.49186e-08
1.10475e-07
-2.56917e-09
1.42228e-08
-1.20007e-09
-3.17077e-09
3.22244e-08
1.12714e-09
-3.26186e-11
3.00901e-08
1.62963e-08
2.45881e-09
4.78389e-08
-2.42811e-09
6.7334e-08
4.90972e-09
1.31212e-09