/*--------------------------------*- C++ -*----------------------------------*\
| =========                 |                                                 |
| \\      /  F ield         | OpenFOAM: The Open Source CFD Toolbox           |
|  \\    /   O peration     | Version:  2506                                  |
|   \\  /    A nd           | Website:  www.openfoam.com                      |
|    \\/     M anipulation  |                                                 |
\*---------------------------------------------------------------------------*/
FoamFile
{
    version     2.0;
    format      ascii;
    arch        "LSB;label=32;scalar=64";
    class       volVectorField;
    location    "0.09";
    object      U;
}
// * * * * * * * * * * * * * * * * * * * * * * * * * * * * * * * * * * * * * //

dimensions      [0 1 -1 0 0 0 0];

internalField   nonuniform List<vector> 
1152
(
(0.00848282 -0.0180962 0.0408257)
(-0.00265141 -0.00247926 0.0115034)
(-0.00391935 -0.00375761 0.0159329)
(-0.00251608 -0.00337582 0.0250842)
(0.00212309 -0.00233591 0.0164625)
(-0.00513373 -0.00450423 0.0304717)
(-7.62871e-05 -0.000114593 0.00310467)
(-0.00060729 0.0002822 0.018298)
(-0.000703397 0.00520988 0.0236979)
(-0.00199165 -7.50907e-05 0.0150599)
(-0.00203691 0.00542408 0.0183241)
(-0.00446569 0.00163563 0.0245794)
(-0.00298171 0.00456033 0.0163758)
(-0.0015422 0.00256112 0.0149336)
(-0.00399909 0.004595 0.0407902)
(-0.0229776 -0.00539426 0.0386348)
(-0.00532864 -0.00340342 0.0161643)
(-0.00293424 -0.00835492 0.0461672)
(-0.000578814 0.00204192 0.0428905)
(0.00116217 0.00067491 0.012969)
(-0.00399235 0.00177699 0.0284201)
(-0.000796218 0.000309071 0.0259459)
(0.00104442 0.00148493 0.0408558)
(0.000264956 -0.00431627 0.0477919)
(-0.00593408 0.00879966 0.0394484)
(-0.00429947 0.00314058 0.0366848)
(-0.00319895 0.00272492 0.0196628)
(-0.000946146 -0.00312601 0.0300642)
(-0.000915806 0.000938205 0.00612191)
(-0.0042612 0.00338384 0.022555)
(-0.00170464 0.000177938 0.00387)
(-0.00109142 0.00174246 0.0147866)
(-0.00190981 0.00877523 0.0528205)
(0.00039097 0.000262907 0.015574)
(0.00239252 -0.00270461 0.0317177)
(-0.000138242 0.00146056 0.00880993)
(-0.00110151 0.00344343 0.020367)
(0.00172707 0.00119341 0.03279)
(-0.00019927 0.000188903 0.0212176)
(0.00243131 -0.00479602 0.0467594)
(-0.00853841 0.000159547 0.0289652)
(-0.00264595 0.000215748 0.0259078)
(-0.00100541 -0.00725493 0.0381702)
(0.0011979 0.000866206 0.0147993)
(-4.43719e-05 -0.00884049 0.0380443)
(-0.00405295 0.00117303 0.0395049)
(0.00251202 -0.00218858 0.0507569)
(0.00835765 0.00142981 0.0352434)
(0.00872523 0.0016882 0.0302174)
(0.0077104 -0.00790719 0.0445301)
(0.000792417 -0.00385884 0.0306824)
(-0.0007616 -0.000212373 0.0175722)
(0.00221012 0.00354453 0.0276833)
(0.000463497 0.000980391 0.0228542)
(0.00324175 -0.0049414 0.0567906)
(0.00261287 0.00203769 0.0564942)
(0.00524867 -0.00152995 0.041447)
(3.53087e-05 0.000248278 0.0343247)
(0.0022846 -0.000740768 0.0320929)
(0.00112008 0.000350737 0.025367)
(0.000266029 -0.000322878 0.0117195)
(0.00147954 0.00139407 0.029055)
(0.00393645 0.000482416 0.0501311)
(-0.000324871 -0.000774045 0.0171644)
(0.00267505 0.000416883 0.0547321)
(0.0023268 0.00230781 0.0247017)
(0.00589845 -0.00278088 0.0357162)
(0.00289618 0.00048399 0.0389669)
(0.0037963 -0.00403059 0.0360878)
(0.000586184 0.000950762 0.0265147)
(0.00346118 -0.000226504 0.0235581)
(0.0028967 -0.00305796 0.0350675)
(0.00593816 -0.00251507 0.0220258)
(0.00747799 -0.00261791 0.0431305)
(0.000839965 -0.000359182 0.0229935)
(0.00097684 -0.00823467 0.0435662)
(0.0204882 0.0219264 0.0566692)
(0.000294935 -0.00016729 0.0128703)
(0.00849189 -0.00159834 0.0772261)
(-0.000288387 -0.000607526 0.0498285)
(0.000893294 -0.00142123 0.0170443)
(0.000305833 0.00215969 0.0338206)
(0.000389592 0.000111904 0.0193597)
(0.00214967 -0.00428718 0.0296299)
(0.00409551 -0.00554933 0.043754)
(0.000744077 -0.000283595 0.0156463)
(0.00187217 0.000444243 0.0292827)
(-0.000182141 4.00975e-05 0.00867632)
(0.00246296 -0.00717117 0.0312846)
(0.0060904 0.000458987 0.0419212)
(0.00244319 0.00120799 0.025435)
(0.000209482 0.000316406 0.0151187)
(0.00123606 -0.000300359 0.0120308)
(0.00348949 -0.00118196 0.0160894)
(0.00197904 -0.00142713 0.0244219)
(-5.37143e-05 -0.00106349 0.0201505)
(-0.000323677 -0.000400659 0.0235939)
(2.9139e-05 0.00287018 0.0302863)
(-0.000352295 -0.000529355 0.0156121)
(-0.00151021 -0.0026986 0.0269265)
(0.000140932 0.0010418 0.0302531)
(0.00015015 -3.86486e-05 0.0135018)
(-0.00256984 1.84803e-06 0.0222282)
(0.000106421 -8.71552e-05 0.0116319)
(0.000436058 0.000591841 0.0190705)
(0.000364741 0.000198481 0.0331304)
(0.000393434 -0.000379984 0.0181615)
(0.000865667 0.00213692 0.0195065)
(0.00058965 0.000204147 0.0239334)
(0.000498069 0.00058151 0.0169486)
(-0.00151188 0.00131538 0.0401868)
(0.00139303 0.000600231 0.0253469)
(0.00035952 -0.00179323 0.0363359)
(0.000585514 -0.000104772 0.0344042)
(0.000958141 -0.000387917 0.0229232)
(0.00129265 -0.00111834 0.0378942)
(0.00429618 -0.000566961 0.0314073)
(0.00155444 0.000423743 0.0109005)
(3.15828e-05 0.000759085 0.0248672)
(0.00190213 0.00100453 0.0318804)
(0.00163062 0.000272624 0.0213793)
(0.00195406 0.000466035 0.0336675)
(0.00158128 0.0010388 0.0241877)
(0.00145316 0.00305941 0.0281333)
(5.83431e-05 0.0012693 0.0194231)
(0.00203431 0.00104801 0.010072)
(0.00228631 0.00196967 0.0405326)
(0.00185947 0.00224238 0.0362652)
(-0.000808394 0.00223033 0.0133464)
(0.000713306 0.00292839 0.0129203)
(-0.000160536 0.00166662 0.0112979)
(-0.000230178 0.00214001 0.0131236)
(-0.00230021 0.00113449 0.0129871)
(-0.000343306 0.000864734 0.0109892)
(-0.00120794 0.000598826 0.0110669)
(-0.000706922 0.00129541 0.0121473)
(0.00120106 0.000108682 0.0120983)
(0.000168594 -0.00010489 0.0129183)
(0.000102656 -0.000862487 0.0115221)
(-0.000191466 -0.000187471 0.0112307)
(0.00230893 -0.00129404 0.012197)
(-0.00134482 0.000632223 0.0120478)
(-0.00135443 0.000266998 0.015074)
(-4.20436e-05 0.000631609 0.0133479)
(0.000115931 0.000843774 0.0200465)
(0.000600429 0.00108406 0.0199076)
(0.000200695 0.000529659 0.0191435)
(1.22464e-05 0.000617814 0.019977)
(-0.000198426 0.000411794 0.0187219)
(0.000211728 0.000300906 0.0184846)
(-0.000239325 0.000120001 0.0186284)
(-0.000341719 0.000366197 0.0191681)
(0.000814002 0.000174862 0.0191851)
(0.000290359 -9.79063e-05 0.019566)
(0.000166179 -0.000439234 0.0191338)
(-0.000110671 -0.000197854 0.0192791)
(0.000991852 -0.000311419 0.0187213)
(-0.000436508 0.000220695 0.0190581)
(-0.000405889 7.43084e-05 0.0203751)
(-0.000134257 0.000266832 0.020294)
(0.000176567 0.000444656 0.0180653)
(0.000246636 0.000502981 0.0179083)
(4.90794e-05 0.0003087 0.0175024)
(-0.000172193 0.000387903 0.0176766)
(0.000130876 0.000216491 0.0176689)
(0.000100181 0.000194552 0.0174871)
(-9.49734e-05 0.000123258 0.0173822)
(-0.00028851 0.000221639 0.017512)
(0.000382877 7.61954e-05 0.0178614)
(0.000133126 -3.65515e-06 0.0178595)
(2.74949e-05 -0.000104086 0.0176215)
(-0.000159444 -1.75967e-05 0.0176124)
(0.000392559 -8.84746e-05 0.0176028)
(-0.000108525 4.96069e-05 0.0177305)
(-0.000149376 2.90843e-05 0.0180109)
(-0.000197934 0.000129832 0.0179767)
(0.000162841 0.000209762 0.0183947)
(0.000163353 0.000212511 0.0183329)
(7.61353e-05 0.000121987 0.0181749)
(-4.46075e-05 0.000121399 0.0182287)
(0.000147694 0.000111967 0.0182419)
(9.64177e-05 9.99872e-05 0.0181919)
(7.26907e-06 6.02237e-05 0.0181276)
(-0.000120123 7.50832e-05 0.0181766)
(0.000209199 4.75964e-05 0.0183232)
(9.94038e-05 1.96493e-05 0.018302)
(2.90347e-05 -1.44949e-05 0.0182117)
(-8.64559e-05 3.32165e-06 0.0182085)
(0.000194247 -8.5802e-06 0.0182326)
(1.76495e-05 2.58787e-05 0.0182748)
(-3.08638e-05 2.87025e-05 0.0183202)
(-0.000116964 7.44717e-05 0.0183249)
(0.000119652 0.000100373 0.0184056)
(0.00010266 9.96068e-05 0.0183607)
(5.31491e-05 6.65614e-05 0.0182724)
(-1.98747e-05 6.69672e-05 0.0182472)
(0.00011459 6.39007e-05 0.0183617)
(7.88979e-05 5.96269e-05 0.0183307)
(2.87564e-05 4.54901e-05 0.018281)
(-4.65318e-05 4.88417e-05 0.0182698)
(0.000129609 3.4992e-05 0.0183953)
(7.79674e-05 2.644e-05 0.0183699)
(3.30441e-05 1.71467e-05 0.0183213)
(-3.35012e-05 2.30732e-05 0.0183018)
(0.000120779 1.14283e-05 0.0183645)
(5.26527e-05 2.18516e-05 0.0183655)
(1.47434e-05 2.78326e-05 0.018354)
(-4.50893e-05 4.99454e-05 0.0183445)
(8.51918e-05 4.93568e-05 0.0184224)
(7.11996e-05 4.92204e-05 0.0183891)
(4.46627e-05 3.67474e-05 0.0183349)
(4.41204e-06 3.45016e-05 0.0182946)
(8.47685e-05 3.62338e-05 0.0184208)
(6.34456e-05 3.544e-05 0.0183952)
(3.5157e-05 3.05748e-05 0.0183577)
(-6.7035e-06 3.04309e-05 0.018329)
(8.89891e-05 2.2743e-05 0.0184376)
(6.2856e-05 2.13619e-05 0.0184148)
(3.60929e-05 1.97389e-05 0.0183811)
(-1.32728e-06 2.21329e-05 0.0183536)
(8.68944e-05 1.05448e-05 0.0184284)
(5.69071e-05 1.57656e-05 0.0184155)
(3.17919e-05 2.11598e-05 0.0183935)
(-3.87979e-06 3.25293e-05 0.0183713)
(6.10613e-05 2.4951e-05 0.0184371)
(5.14905e-05 2.56064e-05 0.0184103)
(3.636e-05 2.13313e-05 0.0183684)
(1.37064e-05 1.98827e-05 0.0183201)
(6.22725e-05 2.00372e-05 0.0184538)
(4.98765e-05 2.09424e-05 0.0184314)
(3.34532e-05 1.99641e-05 0.0183989)
(9.60975e-06 2.02279e-05 0.0183614)
(6.44381e-05 1.3481e-05 0.0184671)
(5.03431e-05 1.44806e-05 0.0184471)
(3.42667e-05 1.5212e-05 0.0184187)
(1.27657e-05 1.70022e-05 0.0183854)
(6.52289e-05 6.14692e-06 0.0184672)
(5.02263e-05 9.726e-06 0.0184506)
(3.44754e-05 1.39092e-05 0.0184266)
(1.37193e-05 2.0222e-05 0.0183968)
(4.43078e-05 1.28472e-05 0.0184463)
(3.82074e-05 1.38272e-05 0.0184235)
(2.9257e-05 1.267e-05 0.0183867)
(1.60775e-05 1.22857e-05 0.0183361)
(4.58865e-05 1.08056e-05 0.0184709)
(3.858e-05 1.22404e-05 0.0184512)
(2.88073e-05 1.2716e-05 0.0184211)
(1.47851e-05 1.34439e-05 0.0183801)
(4.76566e-05 7.26999e-06 0.018485)
(3.96723e-05 8.8442e-06 0.0184672)
(2.98584e-05 1.0202e-05 0.018441)
(1.69641e-05 1.17879e-05 0.018405)
(4.91681e-05 2.73631e-06 0.0184891)
(4.09694e-05 5.3617e-06 0.0184727)
(3.1189e-05 8.3424e-06 0.0184487)
(1.88641e-05 1.2086e-05 0.0184154)
(3.24043e-05 6.62142e-06 0.0184519)
(2.85752e-05 7.59742e-06 0.0184317)
(2.31845e-05 7.58825e-06 0.0183974)
(1.51638e-05 7.89937e-06 0.0183462)
(3.3898e-05 5.647e-06 0.0184801)
(2.94955e-05 7.05362e-06 0.0184625)
(2.35613e-05 7.94751e-06 0.0184339)
(1.48939e-05 8.79337e-06 0.0183917)
(3.53884e-05 3.60407e-06 0.0184956)
(3.06642e-05 5.07493e-06 0.0184797)
(2.46027e-05 6.38856e-06 0.0184546)
(1.65436e-05 7.6861e-06 0.0184176)
(3.68222e-05 8.01502e-07 0.0185016)
(3.20357e-05 2.67401e-06 0.0184865)
(2.59218e-05 4.71569e-06 0.0184631)
(1.83241e-05 6.97723e-06 0.0184285)
(2.3762e-05 3.35481e-06 0.0184555)
(2.13614e-05 4.19076e-06 0.0184371)
(1.80088e-05 4.55774e-06 0.0184042)
(1.29013e-05 5.1008e-06 0.0183529)
(2.50067e-05 2.83008e-06 0.0184855)
(2.23039e-05 4.00026e-06 0.0184695)
(1.8603e-05 4.89379e-06 0.0184419)
(1.30571e-05 5.68501e-06 0.0183995)
(2.618e-05 1.61079e-06 0.018502)
(2.33055e-05 2.76699e-06 0.0184876)
(1.94879e-05 3.82837e-06 0.0184635)
(1.4287e-05 4.81682e-06 0.0184263)
(2.73049e-05 -1.50741e-07 0.018509)
(2.43871e-05 1.129e-06 0.0184953)
(2.05098e-05 2.48642e-06 0.0184728)
(1.56549e-05 3.89231e-06 0.0184379)
(1.73515e-05 1.63671e-06 0.0184578)
(1.5841e-05 2.29791e-06 0.0184407)
(1.37105e-05 2.73499e-06 0.0184087)
(1.03703e-05 3.27374e-06 0.0183577)
(1.83228e-05 1.32967e-06 0.0184887)
(1.66412e-05 2.23007e-06 0.0184739)
(1.42848e-05 2.97911e-06 0.0184472)
(1.06227e-05 3.63387e-06 0.018405)
(1.91935e-05 5.63135e-07 0.0185058)
(1.74136e-05 1.40764e-06 0.0184927)
(1.49693e-05 2.20484e-06 0.0184694)
(1.15257e-05 2.92966e-06 0.0184324)
(1.99979e-05 -5.41308e-07 0.0185133)
(1.81967e-05 3.09674e-07 0.0185009)
(1.571e-05 1.19661e-06 0.0184792)
(1.25023e-05 2.07889e-06 0.0184445)
(1.25153e-05 7.39705e-07 0.0184593)
(1.15674e-05 1.23122e-06 0.018443)
(1.01958e-05 1.62009e-06 0.0184118)
(7.97524e-06 2.06831e-06 0.0183612)
(1.32401e-05 5.37719e-07 0.0184906)
(1.21858e-05 1.20185e-06 0.0184768)
(1.06656e-05 1.7822e-06 0.0184507)
(8.20684e-06 2.28441e-06 0.0184088)
(1.38733e-05 3.71643e-08 0.0185081)
(1.27597e-05 6.3559e-07 0.018496)
(1.11736e-05 1.20938e-06 0.0184734)
(8.85921e-06 1.72946e-06 0.0184366)
(1.44348e-05 -6.56125e-07 0.0185159)
(1.32989e-05 -8.51065e-08 0.0185044)
(1.16898e-05 4.8827e-07 0.0184835)
(9.54189e-06 1.04739e-06 0.0184492)
(8.79946e-06 2.71125e-07 0.0184603)
(8.21214e-06 6.21571e-07 0.0184447)
(7.33065e-06 9.28143e-07 0.0184139)
(5.85745e-06 1.271e-06 0.0183636)
(9.32478e-06 1.3409e-07 0.0184919)
(8.66689e-06 6.00805e-07 0.0184787)
(7.68448e-06 1.02823e-06 0.0184531)
(6.0367e-06 1.3965e-06 0.0184115)
(9.77478e-06 -1.81006e-07 0.0185096)
(9.07037e-06 2.20591e-07 0.0184981)
(8.0518e-06 6.16943e-07 0.018476)
(6.49916e-06 9.78466e-07 0.0184397)
(1.01863e-05 -6.60214e-07 0.0185175)
(9.42389e-06 -2.48944e-07 0.0185068)
(8.39256e-06 1.23816e-07 0.0184864)
(6.96081e-06 4.77745e-07 0.0184525)
(5.87202e-06 3.15469e-08 0.018461)
(5.52082e-06 2.69542e-07 0.0184458)
(4.96925e-06 4.9326e-07 0.0184154)
(4.02778e-06 7.36546e-07 0.0183654)
(6.22877e-06 -5.69141e-08 0.0184927)
(5.83659e-06 2.51793e-07 0.01848)
(5.21812e-06 5.46937e-07 0.0184548)
(4.15154e-06 8.00767e-07 0.0184134)
(6.53668e-06 -2.33178e-07 0.0185105)
(6.09939e-06 1.74713e-08 0.0184995)
(5.46608e-06 2.71777e-07 0.0184778)
(4.46328e-06 5.09597e-07 0.0184417)
(6.8491e-06 -5.91773e-07 0.0185185)
(6.31342e-06 -2.9143e-07 0.0185083)
(5.67511e-06 -4.97974e-08 0.0184883)
(4.75562e-06 1.70811e-07 0.0184547)
(3.48458e-06 -1.13883e-07 0.0184614)
(3.29157e-06 3.29081e-08 0.0184465)
(2.97098e-06 1.77451e-07 0.0184163)
(2.43005e-06 3.2706e-07 0.0183665)
(3.69211e-06 -1.74387e-07 0.0184932)
(3.48253e-06 8.08634e-09 0.0184808)
(3.123e-06 1.87459e-07 0.0184558)
(2.50477e-06 3.43584e-07 0.0184146)
(3.87403e-06 -2.63883e-07 0.0185111)
(3.63375e-06 -1.23752e-07 0.0185004)
(3.26956e-06 2.06266e-08 0.018479)
(2.68672e-06 1.60898e-07 0.018443)
(4.08199e-06 -4.9926e-07 0.0185191)
(3.7476e-06 -3.15176e-07 0.0185092)
(3.38252e-06 -1.73437e-07 0.0184895)
(2.85015e-06 -4.54664e-08 0.0184561)
(1.50367e-06 -3.93188e-07 0.0184618)
(1.39826e-06 -3.217e-07 0.018447)
(1.23148e-06 -2.45144e-07 0.0184169)
(9.86118e-07 -1.56369e-07 0.0183672)
(1.5799e-06 -4.72212e-07 0.0184936)
(1.47751e-06 -3.92408e-07 0.0184813)
(1.30244e-06 -3.08577e-07 0.0184564)
(1.03577e-06 -2.23735e-07 0.0184154)
(1.64511e-06 -5.43345e-07 0.0185115)
(1.54277e-06 -4.83958e-07 0.0185009)
(1.37114e-06 -4.16051e-07 0.0184796)
(1.12028e-06 -3.41377e-07 0.0184438)
(1.72315e-06 -6.46432e-07 0.0185194)
(1.58996e-06 -5.81211e-07 0.0185097)
(1.42493e-06 -5.18868e-07 0.0184902)
(1.19675e-06 -4.52253e-07 0.0184569)
(-0.000669216 -0.000303874 0.0131489)
(-0.00399358 0.000334645 0.014189)
(-0.000847251 0.00103717 0.0072651)
(0.00191357 -0.00209305 0.0190147)
(-0.00757723 0.00429029 0.0177065)
(-0.00361256 -0.00138834 0.0190029)
(-0.00820094 0.00220051 0.033828)
(-0.00158873 -0.00327749 0.0179521)
(-0.0188362 -0.00103709 0.0169746)
(-0.00384721 -0.00197425 0.0101385)
(-0.000864115 -0.00515673 0.0261346)
(-0.00435083 -0.00625364 0.0321225)
(-0.00782478 -0.0161512 0.0302201)
(-0.00790585 -0.00391916 0.0250951)
(-0.00334793 -0.00665666 0.0242529)
(0.000351859 -0.00109469 0.00195721)
(-0.00539971 0.00619644 0.0490741)
(-0.0003795 0.000252431 0.0391511)
(0.000232144 -0.00153317 0.0330071)
(-0.00199238 -0.00234124 0.067143)
(-0.00324625 0.00375612 0.0143364)
(-0.00724316 0.00221741 0.0539839)
(-0.00021475 -0.00100196 0.0497954)
(0.00157843 -0.000948817 0.0116016)
(-0.0030268 0.00464456 0.0433534)
(-0.00788768 0.000341152 0.0313537)
(-0.00536207 -0.00257653 0.0469483)
(-0.000802987 -0.000778633 0.0412502)
(0.00964246 -0.014341 0.031645)
(-0.00430908 -0.00144305 0.0134504)
(-0.000524717 0.00143297 0.00847188)
(0.00174318 0.00261879 0.0481452)
(-0.000709406 0.00289771 0.0158017)
(0.00561607 0.00193542 0.0368252)
(0.00133265 0.000436343 0.0254668)
(-0.00044044 -0.0007934 0.0287992)
(0.00435257 0.00385188 0.0303469)
(0.000681707 0.00404528 0.0368105)
(0.0010615 0.00141816 0.0213343)
(-0.000677759 -0.00403299 0.0495862)
(0.00719942 0.000930351 0.0131725)
(0.00304538 0.0012692 0.0389152)
(-0.00328752 0.00226371 0.04863)
(7.18989e-06 0.00172698 0.0180521)
(-0.000430257 0.00215858 0.00934892)
(0.0168104 -0.0085101 0.0529406)
(0.00075211 0.000566365 0.0172524)
(-0.00249782 -0.00355322 0.054741)
(0.00267552 0.00042041 0.0184456)
(0.000372312 0.00394424 0.0321339)
(-0.00148157 0.000711998 0.0312915)
(-0.00257756 -0.00511073 0.0788323)
(0.00220186 0.00117408 0.0145002)
(-0.00238901 0.0193733 0.0426721)
(-0.00855718 0.000375364 0.0411921)
(-0.000419315 0.000769401 0.0178239)
(0.0407141 -0.00679604 0.0544474)
(0.00370766 -0.0062756 0.0354537)
(-0.0167255 -0.00690155 0.0353039)
(-0.0027616 0.000498148 0.0275908)
(0.00428881 -0.00305623 0.0233457)
(0.00625671 -0.0162575 0.0226756)
(-2.50057e-05 -0.00620601 0.0296121)
(-0.0038535 -0.00596334 0.0358986)
(0.00348144 0.00149298 0.02474)
(-0.00102662 0.00438774 0.0281982)
(-0.00465923 0.000292147 0.0294303)
(-0.00195169 0.00502996 0.0371183)
(0.00899259 -0.00119144 0.0336897)
(-0.000268371 0.00490897 0.0283606)
(-0.00413154 0.00159997 0.0183368)
(-0.0012992 0.00403687 0.022984)
(0.00623604 -0.00293458 0.0279249)
(-0.000418926 0.00103712 0.00781355)
(-0.00692934 -0.00518123 0.0356424)
(-0.00219907 0.00143814 0.0264322)
(-0.00190233 -0.00214662 0.0341823)
(0.00681646 -0.0163639 0.038905)
(0.00481152 -0.00111912 0.0214721)
(0.00163109 0.00147357 0.0465895)
(-0.000214655 0.000219702 0.00891668)
(-0.00230251 0.000330173 0.0192215)
(-0.000668216 -0.000150135 0.0146894)
(0.00423617 0.00474423 0.0382621)
(-0.000715492 -0.00131736 0.0240478)
(0.0011063 -0.00630824 0.00916828)
(-0.00058104 0.00113339 0.0179637)
(0.000848123 0.00923745 0.0265909)
(-0.0111553 -0.00140238 0.0220712)
(-0.00138751 -0.00135159 0.0164971)
(0.0112445 0.00658807 0.0179482)
(-0.00207978 0.0026325 0.0146329)
(-0.00256732 -0.00142522 0.0233777)
(-0.00189775 0.00804074 0.0180964)
(0.00192859 0.00250145 0.0174209)
(-0.00108238 7.77495e-05 0.00837253)
(0.0013048 -0.000930612 0.011408)
(0.000549404 -0.000963524 0.0133394)
(-0.00107475 -0.00021895 0.0119451)
(-0.000871218 0.000230193 0.0218059)
(-0.000505149 -0.00283547 0.0221028)
(0.00179422 -0.00618923 0.0263624)
(-0.0006048 -0.00175498 0.0124453)
(-0.00120491 -0.000925657 0.0112301)
(-0.00431764 -0.00254701 0.0259482)
(4.83979e-05 -0.000326071 0.105362)
(0.00412037 0.000393639 0.0272901)
(0.00156575 -0.00422879 0.0250372)
(-0.00235438 4.47306e-05 0.0237248)
(-0.000969205 0.00325894 0.0285534)
(0.000196496 0.00188611 0.0219393)
(-0.000868747 -0.000464882 0.0112159)
(-0.00114969 -0.00116828 0.0234609)
(0.000211314 -0.00153684 0.0288938)
(0.000374578 -0.00104008 0.0214119)
(-0.000153344 -0.00129738 0.0376858)
(-0.00159987 -0.00290108 0.0345691)
(0.000703734 -0.00393521 0.0427027)
(0.00159029 -0.00205042 0.0183031)
(0.0001311 -0.00282301 0.0248818)
(-0.0021337 -0.00225488 0.0386882)
(0.000346896 -0.00121861 0.0611776)
(0.00257157 -0.000843179 0.0361837)
(0.00100623 -0.00236866 0.0370268)
(-0.00101974 -0.00069684 0.0340985)
(6.50757e-05 0.0013185 0.0384003)
(0.00113716 0.000176755 0.034202)
(0.00106563 -0.00104524 0.0434638)
(5.54062e-05 -0.00103974 0.0099546)
(0.00037489 -0.000443209 0.00985467)
(-0.000437336 -0.00055048 0.0084956)
(-0.00130918 -8.51618e-05 0.0117631)
(-0.000623628 -0.00205923 0.0125705)
(0.00125249 -0.00105443 0.0130825)
(0.000964246 -0.00133723 0.00925684)
(-0.00109262 -0.000363633 0.0110412)
(-0.000299936 -0.000535261 0.0140544)
(0.000769015 0.000738053 0.0160927)
(0.00128894 -0.00116106 0.0123796)
(4.55879e-05 -0.000539738 0.0128417)
(-0.000413991 0.001068 0.0134817)
(0.00018405 0.00247891 0.013854)
(1.13848e-05 0.000810194 0.0127488)
(-4.39118e-05 0.000864827 0.013997)
(0.000474842 -0.000413213 0.0192529)
(0.000646953 -0.000126543 0.0199429)
(9.26396e-05 -0.000310732 0.0182506)
(-0.000498865 -0.000315219 0.0206748)
(0.000157477 -0.00084406 0.0203545)
(0.000909559 -0.000377972 0.020904)
(0.000591975 -0.000643411 0.0185571)
(-0.000340064 -0.000308067 0.0202754)
(0.000209727 -0.000162369 0.021065)
(0.00073993 0.000353864 0.0216887)
(0.0006944 -0.000416521 0.0197518)
(-5.09666e-05 -0.000137992 0.0206009)
(0.000152429 0.000453447 0.0205222)
(0.000490309 0.000946133 0.0207465)
(0.000338229 0.00025036 0.0198702)
(2.43618e-05 0.000317836 0.020627)
(0.000323788 -7.05962e-05 0.0174406)
(0.000296615 7.29301e-05 0.0175429)
(-3.71949e-05 -9.8052e-05 0.016686)
(-0.000320989 -0.00011268 0.0175717)
(0.000202874 -0.000182421 0.0179714)
(0.000356534 4.56988e-05 0.0180326)
(0.000100411 -0.000161022 0.0170345)
(-0.000311057 7.71776e-06 0.0176584)
(0.00020775 2.25043e-05 0.0183104)
(0.000319192 0.00023731 0.0183495)
(0.000157807 -9.42099e-05 0.0174917)
(-0.000206849 0.000100782 0.0177832)
(0.000175435 0.000277666 0.0181778)
(0.0002297 0.000451413 0.0181327)
(7.35939e-05 0.00016318 0.0176266)
(-0.000155172 0.000300957 0.0178008)
(0.000227932 -1.97563e-05 0.0180632)
(0.000218546 5.40518e-05 0.018129)
(7.13783e-05 -2.37322e-05 0.0177504)
(-9.82791e-05 -5.19745e-05 0.0181604)
(0.000186864 -4.9226e-05 0.0182903)
(0.000230778 5.57781e-05 0.0183217)
(0.000119415 -4.82289e-05 0.017933)
(-8.62782e-05 5.27473e-06 0.0182375)
(0.000180991 4.80722e-05 0.0184577)
(0.000214414 0.000139674 0.018458)
(0.000131984 7.38586e-07 0.018126)
(-5.85207e-05 6.72129e-05 0.018291)
(0.000167431 0.000151577 0.0184443)
(0.000180069 0.000211366 0.0184163)
(0.000106458 8.83628e-05 0.018207)
(-2.90304e-05 0.000133253 0.018293)
(0.00013805 3.84273e-06 0.0180572)
(0.000119657 3.93457e-05 0.0180539)
(4.22851e-05 3.17323e-06 0.017843)
(-4.41107e-05 -1.32163e-05 0.0179579)
(0.000128091 3.43653e-06 0.0182449)
(0.000124391 5.12864e-05 0.0182257)
(5.99211e-05 4.23812e-06 0.0180222)
(-3.96939e-05 2.45119e-05 0.0180893)
(0.000126308 4.0657e-05 0.0183682)
(0.000121751 7.85659e-05 0.018333)
(6.6698e-05 2.25619e-05 0.0181584)
(-2.50686e-05 5.04673e-05 0.0181718)
(0.000120997 8.00458e-05 0.0184038)
(0.000110925 0.000102429 0.0183617)
(6.26986e-05 5.62023e-05 0.0182398)
(-7.20136e-06 8.18841e-05 0.0182198)
(8.67773e-05 6.80973e-06 0.018067)
(7.34228e-05 2.46387e-05 0.01805)
(3.6329e-05 1.05462e-05 0.0179414)
(-9.44778e-06 1.37836e-07 0.0179674)
(8.55019e-05 1.13782e-05 0.0182305)
(7.64939e-05 3.3213e-05 0.0182035)
(4.42487e-05 1.37113e-05 0.0180982)
(-4.71216e-06 1.97764e-05 0.0180982)
(8.57518e-05 2.70141e-05 0.0183386)
(7.67414e-05 4.2753e-05 0.018304)
(4.79629e-05 2.1846e-05 0.0182118)
(3.2482e-06 3.14931e-05 0.0181873)
(8.4832e-05 4.28329e-05 0.0183956)
(7.43494e-05 5.21303e-05 0.0183602)
(4.83298e-05 3.65399e-05 0.0182892)
(1.37032e-05 4.72383e-05 0.0182486)
(5.5646e-05 5.62507e-06 0.0180697)
(4.68633e-05 1.52114e-05 0.0180463)
(2.79571e-05 1.08271e-05 0.0179786)
(3.82434e-06 5.78763e-06 0.0179627)
(5.74296e-05 9.73761e-06 0.0182267)
(4.99038e-05 2.06169e-05 0.0181976)
(3.30377e-05 1.4342e-05 0.0181299)
(8.59304e-06 1.61259e-05 0.0180979)
(5.88826e-05 1.66798e-05 0.018332)
(5.14439e-05 2.42923e-05 0.0183001)
(3.57949e-05 1.76964e-05 0.0182384)
(1.36618e-05 2.10183e-05 0.0181936)
(5.9824e-05 2.33567e-05 0.0183982)
(5.20033e-05 2.84975e-05 0.0183681)
(3.75042e-05 2.44231e-05 0.018316)
(1.98627e-05 2.96593e-05 0.0182638)
(3.71623e-05 4.00698e-06 0.0180705)
(3.15451e-05 9.72333e-06 0.0180468)
(2.13523e-05 9.14106e-06 0.0179979)
(7.91252e-06 6.72013e-06 0.0179667)
(3.96134e-05 6.73688e-06 0.0182256)
(3.44147e-05 1.29295e-05 0.018198)
(2.5061e-05 1.17802e-05 0.0181466)
(1.21049e-05 1.22724e-05 0.0181027)
(4.1349e-05 9.88094e-06 0.0183309)
(3.62492e-05 1.43184e-05 0.0183025)
(2.73553e-05 1.28876e-05 0.0182533)
(1.55819e-05 1.43265e-05 0.0182016)
(4.28293e-05 1.27706e-05 0.0184014)
(3.75634e-05 1.63554e-05 0.0183752)
(2.91616e-05 1.62209e-05 0.0183312)
(1.96416e-05 1.95863e-05 0.0182752)
(2.56497e-05 2.73328e-06 0.0180707)
(2.20252e-05 6.44271e-06 0.0180482)
(1.60901e-05 7.10467e-06 0.0180078)
(8.1117e-06 6.12074e-06 0.0179712)
(2.79234e-05 4.34061e-06 0.0182252)
(2.45165e-05 8.32109e-06 0.0181997)
(1.89915e-05 8.88725e-06 0.0181554)
(1.1542e-05 9.28333e-06 0.0181076)
(2.95799e-05 5.72912e-06 0.0183311)
(2.62305e-05 8.71743e-06 0.0183055)
(2.09193e-05 9.05114e-06 0.0182617)
(1.41422e-05 1.00226e-05 0.018208)
(3.10259e-05 7.00295e-06 0.0184039)
(2.76179e-05 9.71243e-06 0.0183805)
(2.25215e-05 1.08032e-05 0.0183401)
(1.70332e-05 1.33932e-05 0.0182833)
(1.80789e-05 1.83349e-06 0.0180711)
(1.5717e-05 4.39439e-06 0.01805)
(1.20465e-05 5.33455e-06 0.0180136)
(7.05117e-06 5.07012e-06 0.0179756)
(1.99865e-05 2.72195e-06 0.0182253)
(1.77673e-05 5.46548e-06 0.0182016)
(1.43254e-05 6.47995e-06 0.0181607)
(9.74703e-06 6.9169e-06 0.0181122)
(2.13838e-05 3.2991e-06 0.0183319)
(1.92162e-05 5.42515e-06 0.0183083)
(1.59052e-05 6.27505e-06 0.0182671)
(1.17165e-05 7.06024e-06 0.0182132)
(2.26062e-05 3.84464e-06 0.0184059)
(2.04254e-05 5.91517e-06 0.0183843)
(1.72348e-05 7.24508e-06 0.0183458)
(1.38289e-05 9.23462e-06 0.0182892)
(1.2866e-05 1.23268e-06 0.0180716)
(1.13021e-05 3.03673e-06 0.0180517)
(8.92978e-06 3.93149e-06 0.0180174)
(5.67138e-06 3.96405e-06 0.0179793)
(1.43734e-05 1.69785e-06 0.0182257)
(1.29213e-05 3.63611e-06 0.0182033)
(1.06957e-05 4.65084e-06 0.0181643)
(7.73762e-06 5.07533e-06 0.0181158)
(1.54823e-05 1.89059e-06 0.0183327)
(1.40767e-05 3.4304e-06 0.0183104)
(1.19543e-05 4.32823e-06 0.0182708)
(9.22241e-06 4.97979e-06 0.0182172)
(1.64481e-05 2.09926e-06 0.0184073)
(1.50498e-05 3.6601e-06 0.018387)
(1.30147e-05 4.88167e-06 0.0183498)
(1.07878e-05 6.37889e-06 0.0182935)
(9.12643e-06 8.27341e-07 0.0180721)
(8.08681e-06 2.10402e-06 0.018053)
(6.5157e-06 2.84464e-06 0.01802)
(4.33775e-06 2.98147e-06 0.0179822)
(1.02709e-05 1.0534e-06 0.0182262)
(9.3195e-06 2.43288e-06 0.0182047)
(7.85055e-06 3.2885e-06 0.0181669)
(5.87842e-06 3.6548e-06 0.0181187)
(1.1115e-05 1.06864e-06 0.0183334)
(1.02049e-05 2.1815e-06 0.0183121)
(8.81613e-06 2.95636e-06 0.0182735)
(6.97971e-06 3.47535e-06 0.0182202)
(1.18376e-05 1.12177e-06 0.0184084)
(1.09505e-05 2.27071e-06 0.018389)
(9.63385e-06 3.27097e-06 0.0183526)
(8.12818e-06 4.3704e-06 0.0182966)
(6.34826e-06 5.46165e-07 0.0180725)
(5.6649e-06 1.43652e-06 0.0180541)
(4.62307e-06 2.0018e-06 0.0180219)
(3.1621e-06 2.14769e-06 0.0179843)
(7.17967e-06 6.40564e-07 0.0182266)
(6.56506e-06 1.6077e-06 0.0182058)
(5.59406e-06 2.26613e-06 0.0181687)
(4.26985e-06 2.55224e-06 0.0181209)
(7.79312e-06 5.8121e-07 0.0183339)
(7.21362e-06 1.37155e-06 0.0183133)
(6.30366e-06 1.97499e-06 0.0182754)
(5.06237e-06 2.36509e-06 0.0182225)
(8.31285e-06 5.67825e-07 0.0184091)
(7.7611e-06 1.38752e-06 0.0183904)
(6.90626e-06 2.1459e-06 0.0183545)
(5.88172e-06 2.926e-06 0.018299)
(4.21347e-06 3.4434e-07 0.0180729)
(3.78016e-06 9.38372e-07 0.0180549)
(3.10939e-06 1.33583e-06 0.0180232)
(2.16001e-06 1.45279e-06 0.0179859)
(4.77613e-06 3.67188e-07 0.0182269)
(4.39361e-06 1.01458e-06 0.0182066)
(3.77002e-06 1.47914e-06 0.01817)
(2.90745e-06 1.68229e-06 0.0181224)
(5.19125e-06 2.88092e-07 0.0183343)
(4.83699e-06 8.22774e-07 0.0183142)
(4.2567e-06 1.25138e-06 0.0182767)
(3.44358e-06 1.52465e-06 0.0182241)
(5.5446e-06 2.49251e-07 0.0184096)
(5.21266e-06 8.03174e-07 0.0183914)
(4.67184e-06 1.33325e-06 0.0183559)
(3.99719e-06 1.85764e-06 0.0183006)
(2.51519e-06 1.89077e-07 0.0180731)
(2.25878e-06 5.44067e-07 0.0180554)
(1.86058e-06 7.86332e-07 0.018024)
(1.29829e-06 8.57491e-07 0.0179869)
(2.84103e-06 1.6602e-07 0.0182272)
(2.61932e-06 5.50774e-07 0.0182071)
(2.25193e-06 8.33888e-07 0.0181708)
(1.74059e-06 9.55494e-07 0.0181234)
(3.08353e-06 8.85843e-08 0.0183346)
(2.88119e-06 4.10465e-07 0.0183148)
(2.54108e-06 6.72754e-07 0.0182775)
(2.0578e-06 8.4009e-07 0.0182251)
(3.29266e-06 3.59954e-08 0.01841)
(3.10544e-06 3.67788e-07 0.018392)
(2.79137e-06 6.89992e-07 0.0183567)
(2.38819e-06 9.99923e-07 0.0183016)
(1.13113e-06 5.02787e-08 0.0180734)
(9.6213e-07 1.99714e-07 0.0180559)
(7.39054e-07 2.81136e-07 0.0180246)
(4.74199e-07 2.79596e-07 0.0179876)
(1.25506e-06 -4.81674e-08 0.0182274)
(1.10821e-06 1.11563e-07 0.0182076)
(9.03686e-07 2.1732e-07 0.0181714)
(6.59699e-07 2.52515e-07 0.0181241)
(1.34657e-06 -1.67596e-07 0.0183349)
(1.2165e-06 -3.127e-08 0.0183152)
(1.03028e-06 7.77044e-08 0.0182781)
(8.0109e-07 1.47825e-07 0.0182258)
(1.42867e-06 -2.68705e-07 0.0184103)
(1.31434e-06 -1.29194e-07 0.0183925)
(1.14393e-06 9.03898e-09 0.0183573)
(9.45306e-07 1.45513e-07 0.0183023)
(-0.000634622 -0.00594358 0.0312695)
(0.000657632 -0.00754616 0.0271261)
(0.00156716 -0.00366794 0.0129047)
(0.00160286 -0.00603749 0.0304827)
(-0.00186276 -0.00173385 0.0174545)
(0.000473747 -0.000980896 0.013853)
(0.00117569 -0.000416611 0.00200818)
(0.00221773 -0.00306594 0.0144804)
(-0.00106577 -0.00154628 0.016034)
(0.00199342 -0.00237232 0.0176517)
(0.00219813 0.00124001 0.027309)
(8.09065e-05 -0.000397596 0.0226862)
(-0.00276898 -6.01765e-05 0.0122337)
(0.00274115 -0.00164204 0.0161434)
(0.00595478 -0.00229203 0.0268919)
(0.00110897 -0.00104257 0.0385694)
(0.000413203 0.000949291 0.00710863)
(-0.000734356 0.000995646 0.0269054)
(0.000191337 0.00170784 0.0338179)
(-0.00121427 0.00211182 0.0411539)
(0.00116225 -0.000699613 0.0307399)
(0.00366497 -0.000231276 0.0320081)
(0.00249486 0.000517676 0.0485034)
(0.00131397 0.00477524 0.0567687)
(0.00393744 0.00279899 0.0348252)
(0.00380163 0.00031683 0.0520913)
(0.00230203 0.00107311 0.0382706)
(0.00155456 0.00703369 0.0426733)
(0.00278218 -1.88034e-05 0.0108333)
(0.00241197 -0.00129197 0.0168293)
(0.0112838 -0.000296704 0.0567287)
(0.0025043 0.000350709 0.0255549)
(-0.00269654 -0.0053855 0.0587642)
(-0.00490677 0.00222034 0.0345811)
(0.000245071 0.00120303 0.00928298)
(0.00148304 -0.00110683 0.0315374)
(0.00333515 -0.0014502 0.0328153)
(0.00147325 0.000127061 0.0266009)
(0.00208278 0.0101876 0.0455054)
(0.00141059 0.00828183 0.0300238)
(0.00361962 0.00153543 0.0278271)
(0.00365549 0.00229206 0.0221098)
(0.0138953 0.00957127 0.0420815)
(0.00404089 0.0105104 0.0223362)
(0.0140827 -0.00161667 0.0489949)
(0.0139338 -0.000319652 0.031694)
(0.0136602 -0.00221962 0.0257556)
(0.0265981 -0.00586738 0.073781)
(0.00160262 -0.00027095 0.0237454)