/*--------------------------------*- C++ -*----------------------------------*\
| =========                 |                                                 |
| \\      /  F ield         | OpenFOAM: The Open Source CFD Toolbox           |
|  \\    /   O peration     | Version:  2506                                  |
|   \\  /    A nd           | Website:  www.openfoam.com                      |
|    \\/     M anipulation  |                                                 |
\*---------------------------------------------------------------------------*/
FoamFile
{
    version     2.0;
    format      ascii;
    arch        "LSB;label=32;scalar=64";
    class       volVectorField;
    location    "0.09";
    object      Us;
}
// * * * * * * * * * * * * * * * * * * * * * * * * * * * * * * * * * * * * * //

dimensions      [0 1 -1 0 0 0 0];

internalField   nonuniform List<vector> 
1152
(
(-0.000596746 -9.47828e-06 0.000116051)
(-0.000543326 -0.000272669 -0.000111436)
(-0.000884933 0.000138042 -0.000487838)
(-0.000296795 9.06495e-05 -0.000334106)
(-0.000432002 0.000179748 0.000237019)
(-0.000188465 -0.000247728 0.000287557)
(0.000263803 0.000200723 -0.000266649)
(0.000416696 0.000792015 -0.000118781)
(-0.000553909 0.00109183 0.000430716)
(-0.000223302 -8.35638e-05 0.000109426)
(-0.00074131 0.000563495 -8.94336e-05)
(-0.000376652 0.000635123 -0.000126235)
(-0.000643331 -0.000149546 0.000225406)
(-0.000609928 0.000624058 0.000411961)
(-0.000784175 0.00127072 0.00055378)
(-0.000902352 0.000234382 0.000245224)
(-0.00193739 0.00169844 0.00331427)
(-0.00155871 0.0007733 0.00687965)
(-0.000166994 0.00213527 0.00613855)
(0.00114321 0.00175288 0.00405618)
(-0.00168485 0.0016282 0.00525303)
(-0.00103116 0.00175303 0.00538521)
(0.000814107 0.00224429 0.00829016)
(0.00120873 0.00144245 0.00793375)
(-0.00159814 0.00167613 0.00776421)
(-0.00226836 0.00187261 0.00670139)
(-0.00171452 0.00114219 0.00417089)
(-0.000332661 0.000555722 0.00464263)
(-0.000819247 0.000784943 0.0056643)
(-0.00182007 0.000977263 0.00410615)
(-0.00164563 0.000169781 0.00362325)
(-0.000528506 0.00102394 0.00327825)
(-0.000513398 0.00168196 0.0106015)
(-0.000449778 0.00140473 0.0098822)
(-3.0251e-05 0.00173109 0.00883215)
(-0.000196696 0.00158889 0.00839775)
(-0.000604436 0.00166363 0.0109604)
(-0.000247773 0.0019549 0.0110109)
(-0.000204073 0.00128069 0.0100737)
(0.000519818 0.00105594 0.00945618)
(-0.0010824 0.00115379 0.0121533)
(-0.000748599 0.00112877 0.0119642)
(-0.000389522 0.000754534 0.0105663)
(0.000412408 0.000876853 0.00887541)
(-0.000654484 0.000424553 0.0117079)
(-0.000253641 0.000925904 0.0118765)
(-0.000400565 -4.64362e-05 0.0113472)
(0.000310957 0.000204588 0.010094)
(-0.000121661 0.00143111 0.00986701)
(-0.000639172 0.00133179 0.010191)
(-0.000608575 0.00121497 0.00896291)
(-0.0007126 0.00104837 0.0082691)
(-7.50015e-05 0.00168547 0.0103178)
(-0.000540394 0.00138133 0.0101265)
(-0.000904537 0.000326595 0.0100861)
(-0.000543647 0.000667518 0.0094882)
(-0.000192408 0.000998103 0.0107641)
(-0.000456125 0.000935318 0.0107522)
(-0.000432333 0.00046798 0.0107347)
(-0.000572405 0.000344071 0.0092359)
(-0.000102062 0.000546819 0.0104124)
(-0.000106055 -6.95562e-06 0.010601)
(-0.00029964 -0.000134296 0.0103662)
(-0.000657953 0.000314566 0.00979033)
(0.000394834 0.000812482 0.0103864)
(0.000309897 0.00111792 0.00900203)
(-0.000668507 0.000975724 0.00888647)
(-0.000605627 0.00044813 0.00894545)
(0.000385095 0.000576468 0.0101445)
(-3.52179e-05 0.000853474 0.00946776)
(-0.000588705 0.000694843 0.00917662)
(-0.000417495 0.000566866 0.00902508)
(0.000171124 0.000299932 0.0101027)
(-0.000452939 0.000368522 0.0104421)
(-0.000307791 0.000199041 0.0101344)
(-0.00016169 2.19056e-05 0.0091423)
(-0.000221855 0.000199778 0.0108458)
(-0.000208341 -0.000182211 0.0105203)
(0.000246138 -0.000105704 0.0102051)
(-0.000265656 2.31383e-05 0.00973815)
(0.00028652 0.000190503 0.00935984)
(-2.58338e-06 0.000486099 0.00865455)
(-0.000402603 0.000681831 0.00875042)
(-0.00049978 -8.51895e-06 0.00827593)
(-0.000449966 0.000110676 0.00942599)
(-0.000108674 0.000163573 0.0088293)
(0.000115996 0.000262735 0.00893835)
(-0.00020082 3.84278e-05 0.00848194)
(-0.000124132 -0.000461659 0.0101782)
(7.77903e-05 -0.000140216 0.0097547)
(0.000115379 -5.71279e-06 0.00923334)
(0.000154308 -8.6582e-05 0.00870293)
(0.000600386 0.000216128 0.00957845)
(0.000264556 0.000100498 0.0100926)
(0.000209271 -0.000173533 0.00994232)
(0.000258326 4.86142e-05 0.00893434)
(0.000285423 -0.000269006 0.00811549)
(-0.00063868 -0.000376462 0.00832942)
(-0.000396466 -0.000814558 0.00845666)
(-0.00178914 -0.000745664 0.00763396)
(-0.00023527 0.000671779 0.00920349)
(8.08408e-05 -0.000108012 0.00840521)
(0.000215093 -0.000142249 0.00883085)
(-3.77237e-05 -0.000184809 0.00844201)
(0.000141697 0.000433325 0.00884971)
(0.000185559 4.87968e-05 0.00863708)
(0.00020901 -0.000434504 0.00895549)
(0.000803784 -0.000456435 0.00815408)
(0.000319811 0.000442422 0.00943872)
(0.000566011 0.000357699 0.0090158)
(0.000868631 0.000607968 0.00888573)
(0.000508539 -0.000200278 0.0084313)
(0 0 0)
(0 0 0)
(0 0 0)
(0 0 0)
(0 0 0)
(0 0 0)
(0 0 0)
(0 0 0)
(0 0 0)
(0 0 0)
(0 0 0)
(0 0 0)
(0.000634369 -0.000585574 0.00893603)
(0.000634369 -0.000585574 0.00893603)
(0 0 0)
(0 0 0)
(0 0 0)
(0 0 0)
(0 0 0)
(0 0 0)
(0 0 0)
(0 0 0)
(0 0 0)
(0 0 0)
(0 0 0)
(0 0 0)
(0 0 0)
(0 0 0)
(0 0 0)
(0 0 0)
(0 0 0)
(0 0 0)
(0 0 0)
(0 0 0)
(0 0 0)
(0 0 0)
(0 0 0)
(0 0 0)
(0 0 0)
(0 0 0)
(0 0 0)
(0 0 0)
(0 0 0)
(0 0 0)
(0 0 0)
(0 0 0)
(0 0 0)
(0 0 0)
(0 0 0)
(0 0 0)
(0 0 0)
(0 0 0)
(0 0 0)
(0 0 0)
(0 0 0)
(0 0 0)
(0 0 0)
(0 0 0)
(0 0 0)
(0 0 0)
(0 0 0)
(0 0 0)
(0 0 0)
(0 0 0)
(0 0 0)
(0 0 0)
(0 0 0)
(0 0 0)
(0 0 0)
(0 0 0)
(0 0 0)
(0 0 0)
(0 0 0)
(0 0 0)
(0 0 0)
(0 0 0)
(0 0 0)
(0 0 0)
(0 0 0)
(0 0 0)
(0 0 0)
(0 0 0)
(0 0 0)
(0 0 0)
(0 0 0)
(0 0 0)
(0 0 0)
(0 0 0)
(0 0 0)
(0 0 0)
(0 0 0)
(0 0 0)
(0 0 0)
(0 0 0)
(0 0 0)
(0 0 0)
(0 0 0)
(0 0 0)
(0 0 0)
(0 0 0)
(0 0 0)
(0 0 0)
(0 0 0)
(0 0 0)
(0 0 0)
(0 0 0)
(0 0 0)
(0 0 0)
(0 0 0)
(0 0 0)
(0 0 0)
(0 0 0)
(0 0 0)
(0 0 0)
(0 0 0)
(0 0 0)
(0 0 0)
(0 0 0)
(0 0 0)
(0 0 0)
(0 0 0)
(0 0 0)
(0 0 0)
(0 0 0)
(0 0 0)
(0 0 0)
(0 0 0)
(0 0 0)
(0 0 0)
(0 0 0)
(0 0 0)
(0 0 0)
(0 0 0)
(0 0 0)
(0 0 0)
(0 0 0)
(0 0 0)
(0 0 0)
(0 0 0)
(0 0 0)
(0 0 0)
(0 0 0)
(0 0 0)
(0 0 0)
(0 0 0)
(0 0 0)
(0 0 0)
(0 0 0)
(0 0 0)
(0 0 0)
(0 0 0)
(0 0 0)
(0 0 0)
(0 0 0)
(0 0 0)
(0 0 0)
(0 0 0)
(0 0 0)
(0 0 0)
(0 0 0)
(0 0 0)
(0 0 0)
(0 0 0)
(0 0 0)
(0 0 0)
(0 0 0)
(0 0 0)
(0 0 0)
(0 0 0)
(0 0 0)
(0 0 0)
(0 0 0)
(0 0 0)
(0 0 0)
(0 0 0)
(0 0 0)
(0 0 0)
(0 0 0)
(0 0 0)
(0 0 0)
(0 0 0)
(0 0 0)
(0 0 0)
(0 0 0)
(0 0 0)
(0 0 0)
(0 0 0)
(0 0 0)
(0 0 0)
(0 0 0)
(0 0 0)
(0 0 0)
(0 0 0)
(0 0 0)
(0 0 0)
(0 0 0)
(0 0 0)
(0 0 0)
(0 0 0)
(0 0 0)
(0 0 0)
(0 0 0)
(0 0 0)
(0 0 0)
(0 0 0)
(0 0 0)
(0 0 0)
(0 0 0)
(0 0 0)
(0 0 0)
(0 0 0)
(0 0 0)
(0 0 0)
(0 0 0)
(0 0 0)
(0 0 0)
(0 0 0)
(0 0 0)
(0 0 0)
(0 0 0)
(0 0 0)
(0 0 0)
(0 0 0)
(0 0 0)
(0 0 0)
(0 0 0)
(0 0 0)
(0 0 0)
(0 0 0)
(0 0 0)
(0 0 0)
(0 0 0)
(0 0 0)
(0 0 0)
(0 0 0)
(0 0 0)
(0 0 0)
(0 0 0)
(0 0 0)
(0 0 0)
(0 0 0)
(0 0 0)
(0 0 0)
(0 0 0)
(0 0 0)
(0 0 0)
(0 0 0)
(0 0 0)
(0 0 0)
(0 0 0)
(0 0 0)
(0 0 0)
(0 0 0)
(0 0 0)
(0 0 0)
(0 0 0)
(0 0 0)
(0 0 0)
(0 0 0)
(0 0 0)
(0 0 0)
(0 0 0)
(0 0 0)
(0 0 0)
(0 0 0)
(0 0 0)
(0 0 0)
(0 0 0)
(0 0 0)
(0 0 0)
(0 0 0)
(0 0 0)
(0.00038902 0.000185312 -0.000105346)
(1.42316e-05 4.36752e-05 -3.26816e-05)
(7.24588e-05 1.15173e-05 -6.66283e-05)
(0.000147729 -3.33428e-05 0.000104637)
(-0.000208354 0.000112712 -0.000119211)
(7.10425e-05 0.000117101 -9.87104e-05)
(0.000163615 -1.17415e-05 -9.87172e-06)
(-0.000110273 -0.000230259 -0.000196537)
(-0.000232147 0.000140662 5.17332e-05)
(0.00022166 -9.11787e-05 6.14005e-05)
(7.73421e-05 -2.41715e-05 -0.000101798)
(0.000142881 -5.66036e-05 -0.000140047)
(-0.000139706 -0.000309567 9.00301e-05)
(3.91389e-05 -0.000528364 -0.000195648)
(6.37241e-05 -2.67566e-05 -0.000344394)
(0.000587785 -0.000373077 -0.000208866)
(-0.00262546 0.0021604 0.00442104)
(0.0010639 0.000905073 0.00642746)
(0.0013101 0.000446612 0.00531524)
(0.00146375 -0.000192899 0.00914278)
(-0.00182714 0.00119933 0.00520587)
(-0.000420899 0.00180654 0.00694987)
(0.00192522 0.00117328 0.00749145)
(0.00152402 -0.000314619 0.00272142)
(-0.00104509 0.00209487 0.00764087)
(-0.001308 0.00150223 0.00585418)
(0.000409298 0.000865555 0.00674613)
(0.000708559 0.000351851 0.00592711)
(-0.00203832 0.000888608 0.00557068)
(-0.00144187 0.00107438 0.00265367)
(-3.78621e-05 0.00188593 0.00237576)
(0.00127248 0.000915339 0.00712908)
(-0.00119852 0.00137431 0.00657614)
(0.00120844 0.000898925 0.00686991)
(0.000805016 0.000818689 0.00694081)
(6.60887e-06 0.000303294 0.00788272)
(-0.00123802 0.0016061 0.00880144)
(-0.000284237 0.00188126 0.00770388)
(0.00106517 0.00131806 0.0076311)
(0.000231133 0.00121648 0.00762567)
(-0.000309334 0.00242266 0.00814652)
(0.000181908 0.00211752 0.00757912)
(4.61484e-05 0.00177021 0.00733337)
(0.000396543 0.00175241 0.00792365)
(-0.000678787 0.00222441 0.00893236)
(0.000708165 0.00163858 0.00957991)
(8.19249e-05 0.00185056 0.00778631)
(-0.000397567 0.00158319 0.00795199)
(0.000314542 -0.000137194 0.00571519)
(-0.000286392 0.000177828 0.00570837)
(0.00117807 0.00115704 0.00665847)
(0.000267148 9.56074e-05 0.0085735)
(-0.000286718 0.000951162 0.00732535)
(-0.000644888 0.000645685 0.00757544)
(0.000110213 0.0008466 0.00696313)
(0.000425155 0.000827788 0.00819427)
(0.000295132 0.00210482 0.00781445)
(-0.000351202 0.00119627 0.00755835)
(-0.000252198 0.000780482 0.00788485)
(0.000388922 0.00165866 0.00747867)
(-0.000299224 0.000801612 0.0103612)
(-0.00019757 0.000626594 0.00902729)
(0.000387809 0.00126358 0.00880289)
(-0.000496445 0.0015664 0.00756438)
(-0.000545378 0.000405679 0.00515797)
(-0.000357865 -0.000154053 0.00473994)
(-0.000570624 5.01641e-05 0.005706)
(-0.000221859 0.000775372 0.00919933)
(-0.000727857 0.00104985 0.00680919)
(-0.000169868 0.0012436 0.00649379)
(-0.000516549 0.000797328 0.00608174)
(-0.00092913 0.000668306 0.00801879)
(-0.000136426 0.000939885 0.00855115)
(-0.000459457 0.00112707 0.00783038)
(-0.00118506 0.000877414 0.00708245)
(-0.00107638 0.00096149 0.00663311)
(-0.000193287 0.000657175 0.010049)
(-0.000297714 0.000986852 0.00856477)
(-0.000792815 0.000915385 0.00820347)
(-0.00108472 0.00107014 0.00804438)
(-0.000450726 0.000469791 0.00427467)
(0.000578288 0.000436717 0.00281624)
(-0.000621936 -0.000549319 0.00476773)
(-0.000331186 0.000430643 0.00599666)
(8.79401e-05 0.000236298 0.00646644)
(0.000559721 0.000762891 0.00547572)
(-0.000511529 0.000845305 0.00582289)
(-0.00141017 0.000708357 0.00674687)
(0.000260107 -0.000254968 0.00839341)
(-0.000608808 0.000578407 0.00814615)
(-0.000969663 0.000775454 0.0070822)
(-0.00185913 0.000218091 0.00726558)
(-0.000177234 -0.000191194 0.00903419)
(-0.000721538 0.000529554 0.00857739)
(-0.000970745 0.000584351 0.00795737)
(-0.00112536 0.000100806 0.00784487)
(0.00147924 -0.000519662 0.00323581)
(0.000185388 -5.89935e-05 0.00357114)
(-0.00132361 -4.08735e-05 0.00340668)
(-0.000712028 -9.88762e-05 0.00399312)
(0.00128956 -0.00107477 0.00552958)
(2.34549e-05 9.50952e-05 0.00455644)
(-0.00158168 -0.00127958 0.00572181)
(-0.00102729 -0.000131908 0.00634073)
(0.000539506 -0.00150417 0.00801406)
(-3.89226e-05 -0.00021645 0.00686223)
(-0.000549017 0.00018713 0.00739084)
(-0.00128501 -0.000106888 0.00832864)
(2.07962e-05 -0.000729365 0.00843826)
(-0.000400131 -0.00106132 0.00789652)
(-0.000594629 0.00028672 0.00777283)
(-0.00129597 -0.000315312 0.00814912)
(0 0 0)
(0 0 0)
(0 0 0)
(0 0 0)
(0 0 0)
(0 0 0)
(0 0 0)
(0 0 0)
(0 0 0)
(0 0 0)
(0 0 0)
(0 0 0)
(0 0 0)
(0 0 0)
(0 0 0)
(0 0 0)
(0 0 0)
(0 0 0)
(0 0 0)
(0 0 0)
(0 0 0)
(0 0 0)
(0 0 0)
(0 0 0)
(0 0 0)
(0 0 0)
(0 0 0)
(0 0 0)
(0 0 0)
(0 0 0)
(0 0 0)
(0 0 0)
(0 0 0)
(0 0 0)
(0 0 0)
(0 0 0)
(0 0 0)
(0 0 0)
(0 0 0)
(0 0 0)
(0 0 0)
(0 0 0)
(0 0 0)
(0 0 0)
(0 0 0)
(0 0 0)
(0 0 0)
(0 0 0)
(0 0 0)
(0 0 0)
(0 0 0)
(0 0 0)
(0 0 0)
(0 0 0)
(0 0 0)
(0 0 0)
(0 0 0)
(0 0 0)
(0 0 0)
(0 0 0)
(0 0 0)
(0 0 0)
(0 0 0)
(0 0 0)
(0 0 0)
(0 0 0)
(0 0 0)
(0 0 0)
(0 0 0)
(0 0 0)
(0 0 0)
(0 0 0)
(0 0 0)
(0 0 0)
(0 0 0)
(0 0 0)
(0 0 0)
(0 0 0)
(0 0 0)
(0 0 0)
(0 0 0)
(0 0 0)
(0 0 0)
(0 0 0)
(0 0 0)
(0 0 0)
(0 0 0)
(0 0 0)
(0 0 0)
(0 0 0)
(0 0 0)
(0 0 0)
(0 0 0)
(0 0 0)
(0 0 0)
(0 0 0)
(0 0 0)
(0 0 0)
(0 0 0)
(0 0 0)
(0 0 0)
(0 0 0)
(0 0 0)
(0 0 0)
(0 0 0)
(0 0 0)
(0 0 0)
(0 0 0)
(0 0 0)
(0 0 0)
(0 0 0)
(0 0 0)
(0 0 0)
(0 0 0)
(0 0 0)
(0 0 0)
(0 0 0)
(0 0 0)
(0 0 0)
(0 0 0)
(0 0 0)
(0 0 0)
(0 0 0)
(0 0 0)
(0 0 0)
(0 0 0)
(0 0 0)
(0 0 0)
(0 0 0)
(0 0 0)
(0 0 0)
(0 0 0)
(0 0 0)
(0 0 0)
(0 0 0)
(0 0 0)
(0 0 0)
(0 0 0)
(0 0 0)
(0 0 0)
(0 0 0)
(0 0 0)
(0 0 0)
(0 0 0)
(0 0 0)
(0 0 0)
(0 0 0)
(0 0 0)
(0 0 0)
(0 0 0)
(0 0 0)
(0 0 0)
(0 0 0)
(0 0 0)
(0 0 0)
(0 0 0)
(0 0 0)
(0 0 0)
(0 0 0)
(0 0 0)
(0 0 0)
(0 0 0)
(0 0 0)
(0 0 0)
(0 0 0)
(0 0 0)
(0 0 0)
(0 0 0)
(0 0 0)
(0 0 0)
(0 0 0)
(0 0 0)
(0 0 0)
(0 0 0)
(0 0 0)
(0 0 0)
(0 0 0)
(0 0 0)
(0 0 0)
(0 0 0)
(0 0 0)
(0 0 0)
(0 0 0)
(0 0 0)
(0 0 0)
(0 0 0)
(0 0 0)
(0 0 0)
(0 0 0)
(0 0 0)
(0 0 0)
(0 0 0)
(0 0 0)
(0 0 0)
(0 0 0)
(0 0 0)
(0 0 0)
(0 0 0)
(0 0 0)
(0 0 0)
(0 0 0)
(0 0 0)
(0 0 0)
(0 0 0)
(0 0 0)
(0 0 0)
(0 0 0)
(0 0 0)
(0 0 0)
(0 0 0)
(0 0 0)
(0 0 0)
(0 0 0)
(0 0 0)
(0 0 0)
(0 0 0)
(0 0 0)
(0 0 0)
(0 0 0)
(0 0 0)
(0 0 0)
(0 0 0)
(0 0 0)
(0 0 0)
(0 0 0)
(0 0 0)
(0 0 0)
(0 0 0)
(0 0 0)
(0 0 0)
(0 0 0)
(0 0 0)
(0 0 0)
(0 0 0)
(0 0 0)
(0 0 0)
(0 0 0)
(0 0 0)
(0 0 0)
(0 0 0)
(0 0 0)
(0 0 0)
(0 0 0)
(0 0 0)
(0 0 0)
(0 0 0)
(0 0 0)
(0 0 0)
(0 0 0)
(0 0 0)
(0 0 0)
(0 0 0)
(0 0 0)
(0 0 0)
(0 0 0)
(0 0 0)
(0 0 0)
(0 0 0)
(0 0 0)
(0 0 0)
(0 0 0)
(0 0 0)
(0 0 0)
(0 0 0)
(0 0 0)
(0 0 0)
(0 0 0)
(0 0 0)
(0 0 0)
(0 0 0)
(0 0 0)
(0 0 0)
(0.000744554 -0.000345614 -0.00017829)
(0.00155014 -0.000466131 -0.000435807)
(0.00112002 -2.81458e-05 -0.000138542)
(0.000643481 -0.000454758 4.17575e-05)
(0.000711101 7.40012e-05 2.28492e-05)
(0.00144382 6.55915e-06 -0.000554135)
(0.000931481 -0.000159495 8.13932e-05)
(0.000296999 -0.000261781 0.000218228)
(-0.000221192 0.000198093 -8.02301e-05)
(0.00071123 -0.000342619 -0.000502744)
(0.000973072 0.00015291 0.000411666)
(0.000184057 0.000368643 0.000536073)
(-0.000329698 0.0001358 -0.000231367)
(0.000559142 -0.000260131 -0.000667575)
(0.000857965 -0.000145324 -6.13426e-05)
(9.06169e-05 -7.86634e-05 0.0006656)
(0.0011928 0.00127562 0.00184156)
(0.000430313 0.000885669 0.00311859)
(0.00107128 0.000969546 0.0054598)
(0.000678239 0.0010691 0.00591526)
(0.000472193 0.000638717 0.00511932)
(0.00124752 3.85263e-05 0.00582234)
(0.000706016 -0.00038548 0.00681074)
(0.00103906 0.00153829 0.00781895)
(0.000996914 0.00103525 0.0061336)
(0.000312144 -0.000211921 0.00562561)
(0.000409571 0.000273697 0.00563264)
(0.000121544 0.00117734 0.00506728)
(0.00153808 0.000425907 0.00400198)
(0.00161796 -0.00018009 0.00414483)
(-0.000115724 0.00105319 0.00533222)
(-0.000518614 0.000398445 0.00446704)
(-0.000219073 0.00102307 0.00877601)
(-6.11003e-05 0.00105339 0.00784022)
(0.000399376 0.00117944 0.00696248)
(0.000572042 0.00119893 0.00763996)
(-0.0002582 0.000281741 0.00851334)
(-0.00051963 0.000394336 0.008075)
(-0.000209183 0.00097576 0.00871952)
(0.000828631 0.00202447 0.00869573)
(-0.000690032 0.000844298 0.00861723)
(-0.00114302 0.00119319 0.00782805)
(-0.00119814 -0.000145694 0.00800161)
(-0.000101245 0.00154405 0.00747713)
(-0.000145196 0.00103557 0.0096004)
(-0.00069822 0.000616996 0.008301)
(-0.000193527 3.72612e-05 0.00793538)
(-0.000889555 0.000801231 0.00686198)
(-6.47801e-06 0.00109526 0.00854032)
(0.00053571 0.000273113 0.00816683)
(0.000733564 0.000693614 0.00759283)
(-0.000417439 7.53441e-05 0.00818094)
(-0.000486044 0.000763041 0.00876656)
(-0.000106609 0.00131489 0.0087401)
(0.000601704 0.00150926 0.00926392)
(0.00114457 0.00131556 0.00836322)
(-0.000566515 -2.27563e-05 0.0091268)
(-0.000925654 0.000119517 0.00905088)
(-0.00114104 0.00060462 0.00887929)
(-0.000782549 0.00068135 0.00796644)
(-0.000496773 -0.000195547 0.00989553)
(-0.000727782 -0.000575017 0.00933303)
(-0.000722075 -0.000627751 0.00900987)
(-0.000388007 -0.000408429 0.00845004)
(-0.000507341 0.000353555 0.00788999)
(-0.000474032 0.000342011 0.00721945)
(-0.000963982 0.000644367 0.00639163)
(0.000320746 0.00112159 0.00708795)
(-0.000286166 0.000358386 0.00870635)
(-0.000370254 0.000502031 0.00831431)
(-0.000659089 0.00113883 0.00723793)
(-1.68512e-05 0.000323424 0.00583555)
(-9.52863e-05 0.000181552 0.00902412)
(-0.000147844 0.000312494 0.00955204)
(-0.000652582 0.00104931 0.00823423)
(-0.000174703 4.97537e-05 0.00729446)
(-0.000150218 -0.000207677 0.00933255)
(-0.0002995 -0.000920629 0.00971027)
(-2.38224e-05 -0.000283554 0.0101704)
(-0.000620216 -0.000509367 0.0126575)
(-0.000752325 -0.000191533 0.00756509)
(-0.00114892 3.07695e-05 0.00708356)
(-0.00107621 0.000456922 0.00614079)
(-0.000324524 0.000193099 0.00598894)
(-0.000506001 -0.000412569 0.0083041)
(-5.55257e-05 -0.000634227 0.00799024)
(7.09058e-05 -0.000220986 0.00685107)
(-0.000428098 -0.000471085 0.00359782)
(-1.65542e-05 -0.00038014 0.00852436)
(-3.75723e-05 -0.000631575 0.0086914)
(0.000413673 -0.000482985 0.0079003)
(-8.54468e-05 -8.85593e-05 0.00500713)
(6.79323e-05 6.70317e-05 0.00866576)
(-0.000176009 -0.000113468 0.00858501)
(-0.000579072 0.000126839 0.00846922)
(-0.000377241 -0.000483672 0.00714445)
(-0.00178552 -0.00187598 0.00678535)
(-0.00134034 -0.00201461 0.00707349)
(-0.0014212 -0.00128795 0.00593658)
(-0.0011408 -0.00110078 0.00441338)
(-0.000231415 -0.000962774 0.00796484)
(0.000188052 -0.00178268 0.00682391)
(-0.000132464 -0.00176056 0.00619752)
(-0.00100028 -0.00187279 0.00204596)
(0.00278016 0.00182549 0.00595098)
(0.00103515 -0.000383883 0.00750335)
(-9.40834e-05 -0.000997214 0.00623472)
(-0.000370201 -0.00067434 0.00314977)
(0.000806694 -6.54119e-05 0.00760508)
(0.000449968 0.000991145 0.00812762)
(-0.000723714 -0.000662632 0.00794753)
(-0.000320743 -0.00131934 0.00538082)
(0 0 0)
(0 0 0)
(0 0 0)
(0 0 0)
(0 0 0)
(0 0 0)
(0 0 0)
(0 0 0)
(0 0 0)
(0 0 0)
(0 0 0)
(0 0 0)
(0 0 0)
(0 0 0)
(0 0 0)
(0 0 0)
(0 0 0)
(0 0 0)
(0 0 0)
(0 0 0)
(0 0 0)
(0 0 0)
(0 0 0)
(0 0 0)
(0 0 0)
(0 0 0)
(0 0 0)
(0 0 0)
(0 0 0)
(0 0 0)
(0 0 0)
(0 0 0)
(0 0 0)
(0 0 0)
(0 0 0)
(0 0 0)
(0 0 0)
(0 0 0)
(0 0 0)
(0 0 0)
(0 0 0)
(0 0 0)
(0 0 0)
(0 0 0)
(0 0 0)
(0 0 0)
(0 0 0)
(0 0 0)
(0 0 0)
(0 0 0)
(0 0 0)
(0 0 0)
(0 0 0)
(0 0 0)
(0 0 0)
(0 0 0)
(0 0 0)
(0 0 0)
(0 0 0)
(0 0 0)
(0 0 0)
(0 0 0)
(0 0 0)
(0 0 0)
(0 0 0)
(0 0 0)
(0 0 0)
(0 0 0)
(0 0 0)
(0 0 0)
(0 0 0)
(0 0 0)
(0 0 0)
(0 0 0)
(0 0 0)
(0 0 0)
(0 0 0)
(0 0 0)
(0 0 0)
(0 0 0)
(0 0 0)
(0 0 0)
(0 0 0)
(0 0 0)
(0 0 0)
(0 0 0)
(0 0 0)
(0 0 0)
(0 0 0)
(0 0 0)
(0 0 0)
(0 0 0)
(0 0 0)
(0 0 0)
(0 0 0)
(0 0 0)
(0 0 0)
(0 0 0)
(0 0 0)
(0 0 0)
(0 0 0)
(0 0 0)
(0 0 0)
(0 0 0)
(0 0 0)
(0 0 0)
(0 0 0)
(0 0 0)
(0 0 0)
(0 0 0)
(0 0 0)
(0 0 0)
(0 0 0)
(0 0 0)
(0 0 0)
(0 0 0)
(0 0 0)
(0 0 0)
(0 0 0)
(0 0 0)
(0 0 0)
(0 0 0)
(0 0 0)
(0 0 0)
(0 0 0)
(0 0 0)
(0 0 0)
(0 0 0)
(0 0 0)
(0 0 0)
(0 0 0)
(0 0 0)
(0 0 0)
(0 0 0)
(0 0 0)
(0 0 0)
(0 0 0)
(0 0 0)
(0 0 0)
(0 0 0)
(0 0 0)
(0 0 0)
(0 0 0)
(0 0 0)
(0 0 0)
(0 0 0)
(0 0 0)
(0 0 0)
(0 0 0)
(0 0 0)
(0 0 0)
(0 0 0)
(0 0 0)
(0 0 0)
(0 0 0)
(0 0 0)
(0 0 0)
(0 0 0)
(0 0 0)
(0 0 0)
(0 0 0)
(0 0 0)
(0 0 0)
(0 0 0)
(0 0 0)
(0 0 0)
(0 0 0)
(0 0 0)
(0 0 0)
(0 0 0)
(0 0 0)
(0 0 0)
(0 0 0)
(0 0 0)
(0 0 0)
(0 0 0)
(0 0 0)
(0 0 0)
(0 0 0)
(0 0 0)
(0 0 0)
(0 0 0)
(0 0 0)
(0 0 0)
(0 0 0)
(0 0 0)
(0 0 0)
(0 0 0)
(0 0 0)
(0 0 0)
(0 0 0)
(0 0 0)
(0 0 0)
(0 0 0)
(0 0 0)
(0 0 0)
(0 0 0)
(0 0 0)
(0 0 0)
(0 0 0)
(0 0 0)
(0 0 0)
(0 0 0)
(0 0 0)
(0 0 0)
(0 0 0)
(0 0 0)
(0 0 0)
(0 0 0)
(0 0 0)
(0 0 0)
(0 0 0)
(0 0 0)
(0 0 0)
(0 0 0)
(0 0 0)
(0 0 0)
(0 0 0)
(0 0 0)
(0 0 0)
(0 0 0)
(0 0 0)
(0 0 0)
(0 0 0)
(0 0 0)
(0 0 0)
(0 0 0)
(0 0 0)
(0 0 0)
(0 0 0)
(0 0 0)
(0 0 0)
(0 0 0)
(0 0 0)
(0 0 0)
(0 0 0)
(0 0 0)
(0 0 0)
(0 0 0)
(0 0 0)
(0 0 0)
(0 0 0)
(0 0 0)
(0 0 0)
(0 0 0)
(0 0 0)
(0 0 0)
(0 0 0)
(0 0 0)
(0 0 0)
(0 0 0)
(0 0 0)
(0 0 0)
(0 0 0)
(0 0 0)
(0 0 0)
(0 0 0)
(0 0 0)
(0 0 0)
(0 0 0)
(0 0 0)
(0 0 0)
(0 0 0)
(0 0 0)
(0 0 0)
(0 0 0)
(0 0 0)
(0 0 0)
(0 0 0)
(0 0 0)
(0 0 0)
(0 0 0)
)
;

boundaryField
{
    inlet
    {
        type            zeroGradient;
    }
    outlet
    {
        type            zeroGradient;
    }
    wall
    {
        type            zeroGradient;
    }
    procBoundary1to0
    {
        type            processor;
        value           nonuniform List<vector> 
192
(
(-0.00017282 0.000105064 -1.77495e-05)
(6.91725e-05 0.000193674 -5.97919e-05)
(-0.000129304 0.000853013 0.000459569)
(0.000292325 0.000377779 7.02003e-05)
(0.000344217 0.00185669 0.00520188)
(0.000404586 0.00161659 0.0070158)
(0.00061317 0.00177649 0.00913539)
(0.000653053 0.000469311 0.0103646)
(1.56486e-05 0.00169177 0.00918395)
(-0.000522545 0.00140422 0.0116392)
(-0.000186657 0.00101093 0.0121615)
(-0.00117908 -9.3307e-06 0.0127198)
(-2.27243e-05 0.00126577 0.0105742)
(-0.000877909 0.0014752 0.0113498)
(-0.000741153 0.000736432 0.0111199)
(-0.00109904 0.000437947 0.0118292)
(0.000260201 0.000652038 0.00957133)
(0.000337754 0.000517514 0.00990846)
(1.5694e-05 0.000541878 0.0104276)
(-0.000500292 -6.83186e-05 0.0105569)
(0.000219534 -3.62396e-05 0.0097525)
(-0.000493272 0.000169597 0.00973731)
(-0.000327198 0.00016914 0.0101097)
(2.38119e-05 0.00036895 0.0105502)
(-0.000380092 -0.00119807 0.00864408)
(-0.000330248 -0.000289652 0.00945663)
(5.36694e-05 -0.000172742 0.00930409)
(0.000804015 0.000755813 0.00941565)
(0 0 0)
(0 0 0)
(0 0 0)
(0 0 0)
(0 0 0)
(0 0 0)
(0 0 0)
(0 0 0)
(0 0 0)
(0 0 0)
(0 0 0)
(0 0 0)
(0 0 0)
(0 0 0)
(0 0 0)
(0 0 0)
(0 0 0)
(0 0 0)
(0 0 0)
(0 0 0)
(0 0 0)
(0 0 0)
(0 0 0)
(0 0 0)
(0 0 0)
(0 0 0)
(0 0 0)
(0 0 0)
(0 0 0)
(0 0 0)
(0 0 0)
(0 0 0)
(0 0 0)
(0 0 0)
(0 0 0)
(0 0 0)
(0 0 0)
(0 0 0)
(0 0 0)
(0 0 0)
(0 0 0)
(0 0 0)
(0 0 0)
(0 0 0)
(0 0 0)
(0 0 0)
(0 0 0)
(0 0 0)
(0 0 0)
(0 0 0)
(0 0 0)
(0 0 0)
(0 0 0)
(0 0 0)
(0 0 0)
(0 0 0)
(0 0 0)
(0 0 0)
(0 0 0)
(0 0 0)
(0 0 0)
(0 0 0)
(0 0 0)
(0 0 0)
(0 0 0)
(0 0 0)
(0 0 0)
(0 0 0)
(-3.83931e-06 2.16057e-05 -6.0622e-05)
(-0.000166341 0.000189819 0.000188804)
(0.000713292 -0.0008165 -0.000665625)
(-0.000218655 -2.95158e-05 -5.98158e-05)
(-0.00168694 -0.000331576 0.00611417)
(-0.00256892 -0.000229471 0.0100139)
(-0.000379784 0.00127642 0.00435814)
(-0.00052637 0.00157533 0.00638463)
(-0.00247731 -0.000236544 0.00846837)
(-0.00215216 0.000967993 0.00946298)
(-0.000424688 0.00149407 0.00943438)
(-0.000663368 0.00161949 0.00929396)
(0.000558605 0.000364811 0.00823509)
(0.000344092 0.00154086 0.00837799)
(0.000443533 0.00129162 0.0091368)
(9.0946e-05 0.00162736 0.0106024)
(-0.000895964 -0.000217505 0.00660291)
(-0.000249041 0.00101336 0.00773555)
(-0.000796952 0.000645551 0.00969945)
(-7.34394e-05 0.000637965 0.00980265)
(-0.00134831 0.00147386 0.00608233)
(-0.000186297 0.000419781 0.00705054)
(2.56909e-06 0.000463133 0.00876527)
(8.17088e-05 0.000156253 0.00895938)
(0.00062175 -0.00060525 0.0051383)
(0.000464308 -0.00067951 0.00705152)
(0.000300176 -0.000867593 0.00881572)
(0.000171376 -0.000842692 0.00874156)
(0 0 0)
(0 0 0)
(0 0 0)
(0 0 0)
(0 0 0)
(0 0 0)
(0 0 0)
(0 0 0)
(0 0 0)
(0 0 0)
(0 0 0)
(0 0 0)
(0 0 0)
(0 0 0)
(0 0 0)
(0 0 0)
(0 0 0)
(0 0 0)
(0 0 0)
(0 0 0)
(0 0 0)
(0 0 0)
(0 0 0)
(0 0 0)
(0 0 0)
(0 0 0)
(0 0 0)
(0 0 0)
(0 0 0)
(0 0 0)
(0 0 0)
(0 0 0)
(0 0 0)
(0 0 0)
(0 0 0)
(0 0 0)
(0 0 0)
(0 0 0)
(0 0 0)
(0 0 0)
(0 0 0)
(0 0 0)
(0 0 0)
(0 0 0)
(0 0 0)
(0 0 0)
(0 0 0)
(0 0 0)
(0 0 0)
(0 0 0)
(0 0 0)
(0 0 0)
(0 0 0)
(0 0 0)
(0 0 0)
(0 0 0)
(0 0 0)
(0 0 0)
(0 0 0)
(0 0 0)
(0 0 0)
(0 0 0)
(0 0 0)
(0 0 0)
(0 0 0)
(0 0 0)
(0 0 0)
(0 0 0)
)
;
    }
    procBoundary1to3
    {
        type            processor;
        value           nonuniform List<vector> 
192
(
(-0.000594699 0.000587793 0.000162149)
(-0.000329293 6.45801e-05 0.000607201)
(-0.000666833 -0.000787254 0.000156558)
(3.51443e-05 -0.000329436 -5.85924e-05)
(-0.00483336 -0.00206806 0.00638119)
(-0.00171343 -0.00048452 0.00628211)
(-0.000450499 -0.00128896 0.00820163)
(-0.00159168 -0.00027813 0.00736855)
(-0.000491227 0.00033278 0.0105899)
(-0.000979703 -0.000605469 0.0101366)
(-0.000246049 -0.000338897 0.0102756)
(-0.000110223 0.000552096 0.0104913)
(-0.000494053 -0.000377445 0.010363)
(-0.000215785 -0.000240051 0.0101577)
(-0.000509 -0.00029479 0.0105441)
(-0.000126842 0.000365822 0.0104704)
(-0.000241523 -0.000252828 0.0100746)
(0.000430471 -0.000251263 0.0106027)
(0.000129615 -0.000313811 0.0102518)
(-0.000310907 -0.000128659 0.00932926)
(3.82017e-05 -8.20956e-05 0.00965079)
(0.000209863 -0.000263422 0.00948031)
(-2.81854e-06 -8.06087e-05 0.00910722)
(-6.02773e-05 -0.000160216 0.00853867)
(0.00104601 0.000729423 0.00879406)
(0.000430354 0.000220363 0.00893498)
(0.000539387 0.000397208 0.00845531)
(-9.17805e-05 0.000221691 0.00828614)
(0 0 0)
(0.000803061 0.00078402 0.00857107)
(0 0 0)
(0 0 0)
(0 0 0)
(0 0 0)
(0 0 0)
(0 0 0)
(0 0 0)
(0 0 0)
(0 0 0)
(0 0 0)
(0 0 0)
(0 0 0)
(0 0 0)
(0 0 0)
(0 0 0)
(0 0 0)
(0 0 0)
(0 0 0)
(0 0 0)
(0 0 0)
(0 0 0)
(0 0 0)
(0 0 0)
(0 0 0)
(0 0 0)
(0 0 0)
(0 0 0)
(0 0 0)
(0 0 0)
(0 0 0)
(0 0 0)
(0 0 0)
(0 0 0)
(0 0 0)
(0 0 0)
(0 0 0)
(0 0 0)
(0 0 0)
(0 0 0)
(0 0 0)
(0 0 0)
(0 0 0)
(0 0 0)
(0 0 0)
(0 0 0)
(0 0 0)
(0 0 0)
(0 0 0)
(0 0 0)
(0 0 0)
(0 0 0)
(0 0 0)
(0 0 0)
(0 0 0)
(0 0 0)
(0 0 0)
(0 0 0)
(0 0 0)
(0 0 0)
(0 0 0)
(0 0 0)
(0 0 0)
(0 0 0)
(0 0 0)
(0 0 0)
(0 0 0)
(1.9018e-07 -0.000128712 0.000178444)
(0.000345652 0.000253024 0.000318807)
(1.8227e-05 -0.000174312 9.80423e-05)
(1.94678e-06 -0.000341765 -4.28947e-05)
(-0.0012338 -0.00116767 0.00669259)
(0.00122506 -0.000692813 0.00392099)
(0.000681937 -0.0010179 0.00604653)
(8.83803e-05 -0.00119491 0.00507662)
(0.000501896 -0.000378448 0.00879471)
(0.000395664 -0.00014888 0.00863066)
(0.000116501 0.000734361 0.00837834)
(-1.89395e-05 -0.00154371 0.00861434)
(-0.000200145 4.61516e-05 0.0099417)
(-0.000423252 -0.000660315 0.00961514)
(-0.00066048 -0.00171274 0.0090836)
(-0.000597312 -0.00143072 0.00840388)
(-0.000300712 -0.000515555 0.00895271)
(-1.40072e-05 -0.000921889 0.00883359)
(-6.17101e-05 -0.00106456 0.00868129)
(0.000157695 -0.00114686 0.00690855)
(-0.00010849 0.000163865 0.00857402)
(-0.000175111 -0.000243933 0.00836588)
(0.000377365 -0.000100703 0.0073981)
(0.000320754 -0.000747289 0.00553618)
(0.000281953 2.14472e-05 0.00793878)
(0.000691813 7.97965e-05 0.00818001)
(0.000775519 -0.000145304 0.00726446)
(-0.000188982 0.000296011 0.00564373)
(0 0 0)
(0 0 0)
(0 0 0)
(0 0 0)
(0 0 0)
(0 0 0)
(0 0 0)
(0 0 0)
(0 0 0)
(0 0 0)
(0 0 0)
(0 0 0)
(0 0 0)
(0 0 0)
(0 0 0)
(0 0 0)
(0 0 0)
(0 0 0)
(0 0 0)
(0 0 0)
(0 0 0)
(0 0 0)
(0 0 0)
(0 0 0)
(0 0 0)
(0 0 0)
(0 0 0)
(0 0 0)
(0 0 0)
(0 0 0)
(0 0 0)
(0 0 0)
(0 0 0)
(0 0 0)
(0 0 0)
(0 0 0)
(0 0 0)
(0 0 0)
(0 0 0)
(0 0 0)
(0 0 0)
(0 0 0)
(0 0 0)
(0 0 0)
(0 0 0)
(0 0 0)
(0 0 0)
(0 0 0)
(0 0 0)
(0 0 0)
(0 0 0)
(0 0 0)
(0 0 0)
(0 0 0)
(0 0 0)
(0 0 0)
(0 0 0)
(0 0 0)
(0 0 0)
(0 0 0)
(0 0 0)
(0 0 0)
(0 0 0)
(0 0 0)
(0 0 0)
(0 0 0)
(0 0 0)
(0 0 0)
)
;
    }
}


// ************************************************************************* //
