/*--------------------------------*- C++ -*----------------------------------*\
| =========                 |                                                 |
| \\      /  F ield         | OpenFOAM: The Open Source CFD Toolbox           |
|  \\    /   O peration     | Version:  2506                                  |
|   \\  /    A nd           | Website:  www.openfoam.com                      |
|    \\/     M anipulation  |                                                 |
\*---------------------------------------------------------------------------*/
FoamFile
{
    version     2.0;
    format      ascii;
    arch        "LSB;label=32;scalar=64";
    class       volScalarField;
    location    "0.07";
    object      Ksl;
}
// * * * * * * * * * * * * * * * * * * * * * * * * * * * * * * * * * * * * * //

dimensions      [1 -3 -1 0 0 0 0];

internalField   nonuniform List<scalar> 
1152
(
174088
140346
98041.3
220399
151936
313385
210556
189278
119231
199919
205163
181302
252717
217563
160827
140766
173453
154701
224836
351708
254060
184786
258927
178606
272546
255638
145552
254319
190930
112142
214888
301276
298571
337921
192275
141622
164643
292422
218993
275006
388365
217575
259236
245730
183810
159370
256082
225032
236838
241651
286080
170915
185978
234528
371709
260061
283901
212570
250434
282394
182073
208057
219396
177327
137009
764955
192275
268431
211557
321281
208327
243720
267192
196457
374327
219521
309610
263179
159640
238196
226436
124353
252732
353841
175880
272790
207613
169820
270456
259061
250312
192772
99631.5
189715
297769
356062
51259.3
100435
57210.9
24783.7
86356
86049.8
49934.9
21379
43201.5
36086.8
40147.7
30141.9
68179.7
30820.8
26716.6
45004
0
0
0
0
0
0
0
0
0
0
0
0
0
0
0
0
0
0
0
0
0
0
0
0
0
0
0
0
0
0
0
0
0
0
0
0
0
0
0
0
0
0
0
0
0
0
0
0
0
0
0
0
0
0
0
0
0
0
0
0
0
0
0
0
0
0
0
0
0
0
0
0
0
0
0
0
0
0
0
0
0
0
0
0
0
0
0
0
0
0
0
0
0
0
0
0
0
0
0
0
0
0
0
0
0
0
0
0
0
0
0
0
0
0
0
0
0
0
0
0
0
0
0
0
0
0
0
0
0
0
0
0
0
0
0
0
0
0
0
0
0
0
0
0
0
0
0
0
0
0
0
0
0
0
0
0
0
0
0
0
0
0
0
0
0
0
0
0
0
0
0
0
0
0
0
0
0
0
0
0
0
0
0
0
0
0
0
0
0
0
0
0
0
0
0
0
0
0
0
0
0
0
0
0
0
0
0
0
0
0
0
0
0
0
0
0
0
0
0
0
0
0
0
0
0
0
0
0
0
0
0
0
0
0
0
0
0
0
0
0
0
0
0
0
0
0
0
0
0
0
0
0
0
0
0
0
0
0
0
0
0
0
0
0
0
0
0
0
0
0
0
0
169839
157543
210196
162474
177496
254686
199199
189290
293054
223369
169959
204300
223119
201442
144387
207078
295748
230702
210442
312625
191941
148321
250529
241746
182566
215880
183698
256213
256410
221928
254666
159139
312469
259264
220641
83027.4
288137
320392
271579
337988
324578
128611
212153
265528
180371
245218
204429
163556
214058
279871
249499
288039
414770
143145
233973
358943
294263
274001
162730
218992
270406
211640
175168
148468
200143
252914
150043
388340
200568
326603
301721
175540
207777
148382
209286
253495
240075
254575
212386
102668
190868
274798
164190
312724
342323
212972
150348
134552
117725
362339
186530
301446
435152
221133
189859
176166
31422.8
37823.2
46320.9
59286.1
54221.7
28045
20218.4
36795.1
49394
60016
57246.1
52663.2
40893
44831.5
115903
50322.7
0
0
0
0
0
0
0
0
0
0
0
0
0
0
0
0
0
0
0
0
0
0
0
0
0
0
0
0
0
0
0
0
0
0
0
0
0
0
0
0
0
0
0
0
0
0
0
0
0
0
0
0
0
0
0
0
0
0
0
0
0
0
0
0
0
0
0
0
0
0
0
0
0
0
0
0
0
0
0
0
0
0
0
0
0
0
0
0
0
0
0
0
0
0
0
0
0
0
0
0
0
0
0
0
0
0
0
0
0
0
0
0
0
0
0
0
0
0
0
0
0
0
0
0
0
0
0
0
0
0
0
0
0
0
0
0
0
0
0
0
0
0
0
0
0
0
0
0
0
0
0
0
0
0
0
0
0
0
0
0
0
0
0
0
0
0
0
0
0
0
0
0
0
0
0
0
0
0
0
0
0
0
0
0
0
0
0
0
0
0
0
0
0
0
0
0
0
0
0
0
0
0
0
0
0
0
0
0
0
0
0
0
0
0
0
0
0
0
0
0
0
0
0
0
0
0
0
0
0
0
0
0
0
0
0
0
0
0
0
0
0
0
0
0
0
0
0
0
0
0
0
0
0
0
0
0
0
0
0
0
0
0
0
0
0
0
0
0
0
0
0
0
236092
148666
283969
238568
162541
225678
189794
149584
128284
208952
156864
259319
329431
144880
303089
173929
261485
167545
116308
230979
202779
251080
195754
164525
339382
176439
158506
245808
211985
247162
205107
182780
333435
267369
393653
183493
219872
274536
220573
265064
166057
299140
102683
239065
296720
170748
290780
175088
262085
266455
184384
306931
274776
193409
193527
188255
146142
253170
224903
154953
201058
205962
225229
168533
317837
219682
290147
183538
267418
276647
262159
265591
243758
389900
175788
176421
202972
181532
401702
236491
160682
196770
174438
186489
172471
273962
145042
169325
147337
283069
202138
292961
289395
247679
253712
172143
28785.5
38206
49428.2
46510.7
20376.3
74284
21123.8
27652.1
43500.7
42255.7
35151.2
36834.1
12805.9
91457.8
47340.1
44574.5
0
0
0
0
0
0
0
0
0
0
0
0
0
0
0
0
0
0
0
0
0
0
0
0
0
0
0
0
0
0
0
0
0
0
0
0
0
0
0
0
0
0
0
0
0
0
0
0
0
0
0
0
0
0
0
0
0
0
0
0
0
0
0
0
0
0
0
0
0
0
0
0
0
0
0
0
0
0
0
0
0
0
0
0
0
0
0
0
0
0
0
0
0
0
0
0
0
0
0
0
0
0
0
0
0
0
0
0
0
0
0
0
0
0
0
0
0
0
0
0
0
0
0
0
0
0
0
0
0
0
0
0
0
0
0
0
0
0
0
0
0
0
0
0
0
0
0
0
0
0
0
0
0
0
0
0
0
0
0
0
0
0
0
0
0
0
0
0
0
0
0
0
0
0
0
0
0
0
0
0
0
0
0
0
0
0
0
0
0
0
0
0
0
0
0
0
0
0
0
0
0
0
0
0
0
0
0
0
0
0
0
0
0
0
0
0
0
0
0
0
0
0
0
0
0
0
0
0
0
0
0
0
0
0
0
0
0
0
0
0
0
0
0
0
0
0
0
0
0
0
0
0
0
0
0
0
0
0
0
0
0
0
0
0
0
0
0
0
0
0
0
0
)
;

boundaryField
{
    inlet
    {
        type            zeroGradient;
    }
    outlet
    {
        type            zeroGradient;
    }
    wall
    {
        type            zeroGradient;
    }
    procBoundary3to1
    {
        type            processor;
        value           nonuniform List<scalar> 
192
(
185515
254526
257734
309662
260734
287980
175192
181862
184836
379821
200358
227697
224432
183569
242161
374702
365755
133428
277061
139474
303470
238354
291606
172512
209408
96083
150896
36612.2
0
1343.41
1048.33
0
0
0
0
0
0
0
0
0
0
0
0
0
0
0
0
0
0
0
0
0
0
0
0
0
0
0
0
0
0
0
0
0
0
0
0
0
0
0
0
0
0
0
0
0
0
0
0
0
0
0
0
0
0
0
0
0
0
0
0
0
0
0
0
0
141241
288305
113731
146018
203432
250416
240760
161697
185766
165134
199965
328977
194890
441849
153203
208540
169102
162280
215187
200798
324762
278464
350001
312031
72829.6
26815.4
69689.7
48763.7
0
0
0
0
0
0
0
0
0
0
0
0
0
0
0
0
0
0
0
0
0
0
0
0
0
0
0
0
0
0
0
0
0
0
0
0
0
0
0
0
0
0
0
0
0
0
0
0
0
0
0
0
0
0
0
0
0
0
0
0
0
0
0
0
0
0
0
0
)
;
    }
    procBoundary3to2
    {
        type            processor;
        value           nonuniform List<scalar> 
192
(
164117
218518
404988
153903
175599
202864
200194
401001
251154
526549
289192
261368
173535
314981
187911
506599
347015
222032
293637
222053
222596
306670
209121
570245
79429.1
85039.7
51934.1
31941.9
0
0
0
0
0
0
0
0
0
0
0
0
0
0
0
0
0
0
0
0
0
0
0
0
0
0
0
0
0
0
0
0
0
0
0
0
0
0
0
0
0
0
0
0
0
0
0
0
0
0
0
0
0
0
0
0
0
0
0
0
0
0
0
0
0
0
0
0
148136
201782
152100
144220
229342
288547
209279
172600
128876
153126
271294
275376
306957
276115
102333
156841
353524
252867
304346
189916
391866
226553
318213
140993
68636.4
62906.1
40441.6
126828
0
0
0
0
0
0
0
0
0
0
0
0
0
0
0
0
0
0
0
0
0
0
0
0
0
0
0
0
0
0
0
0
0
0
0
0
0
0
0
0
0
0
0
0
0
0
0
0
0
0
0
0
0
0
0
0
0
0
0
0
0
0
0
0
0
0
0
0
)
;
    }
}


// ************************************************************************* //
