/*--------------------------------*- C++ -*----------------------------------*\
| =========                 |                                                 |
| \\      /  F ield         | OpenFOAM: The Open Source CFD Toolbox           |
|  \\    /   O peration     | Version:  2506                                  |
|   \\  /    A nd           | Website:  www.openfoam.com                      |
|    \\/     M anipulation  |                                                 |
\*---------------------------------------------------------------------------*/
FoamFile
{
    version     2.0;
    format      ascii;
    arch        "LSB;label=32;scalar=64";
    class       volVectorField;
    location    "0.07";
    object      U;
}
// * * * * * * * * * * * * * * * * * * * * * * * * * * * * * * * * * * * * * //

dimensions      [0 1 -1 0 0 0 0];

internalField   nonuniform List<vector> 
1152
(
(0.000260242 0.00167547 0.0160539)
(0.000532924 0.00155522 0.019748)
(-0.00323599 0.00109739 0.0313076)
(-0.000681901 0.00207743 0.0132156)
(-5.44632e-05 0.000502829 0.0204772)
(-6.64462e-05 -0.000136981 0.00848991)
(0.00110428 0.000201196 0.0132058)
(0.00152091 0.00141232 0.0165963)
(0.0026722 0.000245169 0.0247278)
(0.00206213 0.00313773 0.0150615)
(0.000989511 0.000855425 0.0138852)
(0.000536093 0.000597429 0.0169899)
(0.00245489 0.000107333 0.0104603)
(0.00126421 0.000995421 0.012499)
(-0.00133616 -0.000886603 0.0184166)
(-0.000994089 0.00023208 0.0226935)
(-0.000694382 -0.000475517 0.0403037)
(0.000147891 0.000593408 0.0446386)
(0.00567084 -0.00039873 0.0305392)
(0.00184658 -0.00106143 0.0195787)
(0.00173763 -0.00204317 0.0287383)
(0.00155581 0.00132349 0.0390612)
(0.00220141 0.00168613 0.0272903)
(0.00178639 -0.00193598 0.0419658)
(0.001146 0.00153853 0.0253864)
(0.00275308 0.000676514 0.0268818)
(0.0011175 0.000826981 0.0481612)
(0.00121511 0.00208227 0.0276095)
(0.00384893 0.00311902 0.0384423)
(-0.000561042 -0.000281902 0.0632003)
(-0.000419145 0.00170095 0.0342472)
(0.00218004 0.005669 0.0230717)
(-0.000564917 0.00051154 0.0265177)
(5.3599e-05 -0.00155559 0.0229905)
(0.00381112 0.00035761 0.0416527)
(0.00213288 0.000556991 0.053423)
(0.00122003 0.00188029 0.0478765)
(-0.000876684 0.00125732 0.025754)
(0.000295934 -0.000507337 0.0347384)
(0.00109121 0.00104311 0.0286122)
(0.000587714 0.000295083 0.0196445)
(-0.00082542 2.37075e-05 0.0346654)
(0.00073979 0.00151512 0.0294871)
(0.00296136 0.00352201 0.0303591)
(0.00033421 0.00130491 0.0417795)
(0.000365189 0.000697204 0.0470245)
(0.00275911 0.00268745 0.0301136)
(0.00199472 0.00209518 0.0336062)
(0.000551464 0.000914619 0.0339673)
(-0.00198349 -0.0018872 0.0353381)
(-0.00143085 0.000500397 0.028397)
(0.000702574 -0.0016722 0.0463724)
(-0.00160965 -0.00152593 0.0437557)
(-2.78994e-05 -0.000317356 0.0344546)
(6.47369e-05 0.000245836 0.0219533)
(-0.000808208 0.00109069 0.031972)
(0.000134469 -0.000852888 0.027702)
(-0.00076169 -0.000926477 0.0379463)
(0.000190033 0.00125778 0.0322939)
(-8.88834e-05 0.000510735 0.0286566)
(-0.000703262 -3.18086e-05 0.0471485)
(0.00161558 0.000224262 0.0399387)
(0.000983373 0.00190951 0.0366423)
(-0.00118813 -0.00397654 0.0439787)
(0.00514614 0.00136801 0.0569131)
(0.000128059 0.000108981 0.0114661)
(-0.00278113 0.002808 0.0403383)
(0.0013724 0.00144257 0.0304676)
(0.000229637 0.000644944 0.03652)
(0.000888071 -0.00104605 0.0235502)
(0.00259336 0.000443675 0.0382927)
(0.000706884 0.00185033 0.0337112)
(-0.000235174 0.00239163 0.0290726)
(-0.000134572 0.000107549 0.0410518)
(0.000900268 -0.000736939 0.0217319)
(-0.000295884 -0.00274107 0.0371244)
(-2.94997e-05 -0.000398702 0.0252732)
(-0.00246768 -0.000184788 0.0307501)
(-0.00255813 4.24554e-05 0.0514082)
(-0.000836117 -0.000630615 0.0350043)
(-0.00124422 0.00115396 0.0225564)
(0.00265796 0.00574632 0.0375696)
(0.00349373 0.0021588 0.0200628)
(0.000997165 0.00109049 0.0156186)
(0.000343318 0.00329505 0.0293755)
(0.00162085 0.00215225 0.0189256)
(0.00275278 0.00250575 0.0240915)
(0.00165633 -0.00111531 0.0280162)
(0.000323937 0.00115135 0.0187332)
(0.0011036 0.000979737 0.0197435)
(0.00062711 0.00108366 0.0198209)
(-0.000684696 0.0001214 0.0256993)
(-0.00304362 -0.000214851 0.0462785)
(0.0018242 0.00034889 0.0253468)
(0.000517406 -0.00130207 0.0173363)
(0.00045518 -0.000286133 0.0158869)
(-0.000201637 -0.00111897 0.029163)
(-2.66074e-05 -0.000241258 0.0176256)
(-0.000449879 -0.00117699 0.0212031)
(-0.000231501 0.000523796 0.014197)
(-0.000379119 0.000130851 0.0185031)
(-0.000237002 -0.000212516 0.0159511)
(-0.000824209 0.000337159 0.0191845)
(-0.000717528 0.000355759 0.0219656)
(-0.000135511 -8.38071e-05 0.0195316)
(0.000360663 -0.000519623 0.0192764)
(-0.000389006 0.000326745 0.0147244)
(-0.000381225 0.000551898 0.0195291)
(-0.000236787 -0.000208732 0.0173825)
(-0.000448207 -0.00022849 0.0212488)
(0.00025996 -0.000300288 0.0204092)
(-0.000147478 0.000292756 0.01302)
(-0.000966665 0.000413977 0.0299648)
(-0.000470438 0.00135301 0.0206655)
(-0.00011534 0.00138341 0.0233854)
(0.000383008 0.000531855 0.0280558)
(-0.000647314 0.000731777 0.021774)
(-0.00054288 0.000991517 0.017867)
(-0.000625081 0.000947645 0.024609)
(-0.000154537 0.000744184 0.0290269)
(-0.000408888 0.000477065 0.0255039)
(-0.000399975 0.000610041 0.0266068)
(-0.000381303 0.000665658 0.0249095)
(-0.000163338 0.00111494 0.0266152)
(-0.000391788 0.000743517 0.0265031)
(-0.000495567 0.000837011 0.0295026)
(-0.000106232 0.000887704 0.0306221)
(-6.54997e-05 0.00112313 0.0236794)
(1.21377e-06 -0.00129214 0.0106722)
(9.77778e-05 -0.0012654 0.00982811)
(-0.000958237 -0.00182577 0.0101385)
(-0.00101406 -0.000829013 0.0111419)
(-0.000335051 -0.000528917 0.00956837)
(-0.000503146 -0.000971276 0.0092438)
(-0.00108048 -0.00106095 0.0102609)
(-0.000757112 -0.000523775 0.0111926)
(-0.000603109 -0.000965791 0.00999792)
(-0.000523547 -0.00122908 0.0103048)
(-0.000565867 -0.00108846 0.0104507)
(-0.000410788 -0.000415387 0.0106141)
(-0.000871913 -0.000731258 0.0104402)
(-0.000680711 -0.000625022 0.0110388)
(-0.000245238 -0.000825112 0.0115256)
(-3.35374e-05 -0.000879103 0.0103283)
(-8.79716e-05 -0.000719421 0.0148538)
(-0.000169857 -0.00077058 0.0145504)
(-0.000648213 -0.000993158 0.0147132)
(-0.000732842 -0.000617078 0.015489)
(-0.000294827 -0.000511382 0.0147799)
(-0.000418131 -0.00069455 0.0147404)
(-0.000672715 -0.000742699 0.0151777)
(-0.000572446 -0.000470481 0.0157212)
(-0.000445607 -0.000688596 0.0152421)
(-0.00044438 -0.000800468 0.0154232)
(-0.000452993 -0.000731885 0.0156456)
(-0.000339655 -0.000407785 0.015827)
(-0.000601872 -0.000589108 0.0156928)
(-0.000485452 -0.000566193 0.0160002)
(-0.000268246 -0.000581936 0.0162986)
(-5.2918e-05 -0.0005097 0.0161003)
(-8.54238e-05 -0.000365806 0.0138979)
(-0.000193386 -0.00043008 0.0138741)
(-0.00039269 -0.000509799 0.0140064)
(-0.000440138 -0.000415973 0.0143752)
(-0.000196366 -0.000375658 0.0139696)
(-0.000293786 -0.000458775 0.0140329)
(-0.000411358 -0.000495543 0.0142484)
(-0.000392582 -0.000418185 0.0145203)
(-0.000281424 -0.000443067 0.0142123)
(-0.00033136 -0.000505146 0.0143373)
(-0.000365567 -0.000509821 0.0144979)
(-0.000326232 -0.000433974 0.0146294)
(-0.000367995 -0.000392223 0.014449)
(-0.000369568 -0.000418953 0.0146148)
(-0.00033635 -0.0004478 0.0147785)
(-0.000258994 -0.00046626 0.0147794)
(-7.66034e-05 -0.000197907 0.0141781)
(-0.000154509 -0.000244015 0.0142033)
(-0.000244755 -0.000280397 0.0142905)
(-0.000271245 -0.000264087 0.0144605)
(-0.000135149 -0.000241694 0.0142558)
(-0.000200454 -0.000284809 0.0143122)
(-0.000257859 -0.000305957 0.0144252)
(-0.000257661 -0.000284086 0.0145673)
(-0.000182335 -0.000273698 0.0143885)
(-0.000225053 -0.000307002 0.0144675)
(-0.000248579 -0.000314913 0.0145738)
(-0.00023053 -0.000290414 0.0146789)
(-0.000227015 -0.000252202 0.0145182)
(-0.000243711 -0.000271357 0.0146165)
(-0.000238087 -0.000279689 0.0147288)
(-0.000197952 -0.000282389 0.0148114)
(-6.08337e-05 -0.000109906 0.0143313)
(-0.000106973 -0.000137822 0.0143564)
(-0.0001486 -0.000158422 0.01441)
(-0.000160628 -0.000161679 0.0144936)
(-9.19177e-05 -0.000144417 0.0143833)
(-0.000130897 -0.000168615 0.0144218)
(-0.000159112 -0.000182217 0.0144843)
(-0.000159739 -0.000179384 0.0145605)
(-0.000118048 -0.000161516 0.0144555)
(-0.00014646 -0.000180473 0.0145036)
(-0.00016054 -0.000187751 0.0145665)
(-0.000150981 -0.000181926 0.0146315)
(-0.000141415 -0.000151515 0.0145271)
(-0.000157572 -0.000163909 0.0145836)
(-0.00015938 -0.000168546 0.0146483)
(-0.000138746 -0.00016918 0.0147063)
(-4.49946e-05 -6.30885e-05 0.014419)
(-7.03039e-05 -7.96286e-05 0.0144371)
(-8.96015e-05 -9.22691e-05 0.0144694)
(-9.44024e-05 -9.83442e-05 0.0145135)
(-6.22573e-05 -8.5219e-05 0.0144502)
(-8.37759e-05 -9.91135e-05 0.0144752)
(-9.72823e-05 -0.000107841 0.0145119)
(-9.66824e-05 -0.000109665 0.0145549)
(-7.69637e-05 -9.47745e-05 0.0144906)
(-9.3295e-05 -0.000105639 0.0145209)
(-0.0001004 -0.000110761 0.0145591)
(-9.42178e-05 -0.000109837 0.0145993)
(-8.94549e-05 -8.98216e-05 0.0145312)
(-9.97807e-05 -9.71115e-05 0.0145658)
(-0.000101055 -9.96641e-05 0.0146053)
(-8.91539e-05 -9.91108e-05 0.0146438)
(-3.22393e-05 -3.75136e-05 0.0144703)
(-4.57836e-05 -4.74431e-05 0.0144824)
(-5.46899e-05 -5.53066e-05 0.0145016)
(-5.61964e-05 -6.02324e-05 0.0145257)
(-4.22721e-05 -5.08907e-05 0.0144884)
(-5.36824e-05 -5.89953e-05 0.0145044)
(-5.98551e-05 -6.44869e-05 0.0145261)
(-5.85276e-05 -6.67196e-05 0.0145507)
(-5.07607e-05 -5.62909e-05 0.0145112)
(-5.94429e-05 -6.25526e-05 0.0145302)
(-6.24591e-05 -6.58445e-05 0.0145533)
(-5.80119e-05 -6.60496e-05 0.0145775)
(-5.7607e-05 -5.37242e-05 0.0145343)
(-6.32092e-05 -5.7881e-05 0.0145557)
(-6.32238e-05 -5.92757e-05 0.0145797)
(-5.57157e-05 -5.85507e-05 0.0146035)
(-2.28939e-05 -2.31101e-05 0.0144988)
(-3.0014e-05 -2.9111e-05 0.0145069)
(-3.40346e-05 -3.39748e-05 0.0145184)
(-3.41211e-05 -3.73163e-05 0.0145321)
(-2.88641e-05 -3.0951e-05 0.0145094)
(-3.47347e-05 -3.57332e-05 0.0145197)
(-3.73397e-05 -3.91255e-05 0.0145328)
(-3.58303e-05 -4.08222e-05 0.0145472)
(-3.38403e-05 -3.39907e-05 0.0145226)
(-3.8197e-05 -3.76141e-05 0.0145346)
(-3.91344e-05 -3.96375e-05 0.0145487)
(-3.58455e-05 -3.99808e-05 0.0145632)
(-3.76588e-05 -3.25703e-05 0.014536)
(-4.03669e-05 -3.49092e-05 0.0145494)
(-3.96784e-05 -3.56563e-05 0.014564)
(-3.47149e-05 -3.504e-05 0.0145785)
(-1.63083e-05 -1.47585e-05 0.0145145)
(-1.995e-05 -1.83673e-05 0.0145199)
(-2.16746e-05 -2.133e-05 0.0145269)
(-2.12165e-05 -2.34309e-05 0.0145349)
(-1.98711e-05 -1.92237e-05 0.0145208)
(-2.27888e-05 -2.20641e-05 0.0145275)
(-2.37179e-05 -2.41233e-05 0.0145355)
(-2.23238e-05 -2.52373e-05 0.014544)
(-2.27921e-05 -2.09099e-05 0.0145285)
(-2.48518e-05 -2.30048e-05 0.0145362)
(-2.48535e-05 -2.42079e-05 0.0145449)
(-2.24284e-05 -2.44628e-05 0.0145536)
(-2.49321e-05 -2.00537e-05 0.0145365)
(-2.60813e-05 -2.13546e-05 0.0145449)
(-2.51751e-05 -2.17356e-05 0.0145539)
(-2.18194e-05 -2.12662e-05 0.0145627)
(-1.16961e-05 -9.74452e-06 0.0145231)
(-1.349e-05 -1.18855e-05 0.0145267)
(-1.41378e-05 -1.36533e-05 0.0145311)
(-1.35253e-05 -1.49143e-05 0.0145359)
(-1.38012e-05 -1.22171e-05 0.0145269)
(-1.51837e-05 -1.38957e-05 0.0145313)
(-1.53593e-05 -1.51169e-05 0.0145363)
(-1.4188e-05 -1.57887e-05 0.0145415)
(-1.54981e-05 -1.31168e-05 0.0145316)
(-1.63919e-05 -1.43126e-05 0.0145365)
(-1.60342e-05 -1.49991e-05 0.0145419)
(-1.42581e-05 -1.51406e-05 0.0145473)
(-1.66858e-05 -1.25472e-05 0.0145363)
(-1.7064e-05 -1.32523e-05 0.0145418)
(-1.619e-05 -1.34209e-05 0.0145474)
(-1.38876e-05 -1.30684e-05 0.0145527)
(-8.41602e-06 -6.58845e-06 0.0145278)
(-9.25593e-06 -7.83837e-06 0.0145302)
(-9.40378e-06 -8.8713e-06 0.0145331)
(-8.80264e-06 -9.60326e-06 0.0145361)
(-9.63948e-06 -7.92966e-06 0.0145302)
(-1.02456e-05 -8.90256e-06 0.0145331)
(-1.01087e-05 -9.60452e-06 0.0145363)
(-9.17349e-06 -9.98245e-06 0.0145396)
(-1.06071e-05 -8.37494e-06 0.014533)
(-1.09325e-05 -9.0383e-06 0.0145363)
(-1.04847e-05 -9.4081e-06 0.0145397)
(-9.1926e-06 -9.46299e-06 0.0145431)
(-1.12503e-05 -7.96228e-06 0.014536)
(-1.12776e-05 -8.32498e-06 0.0145395)
(-1.05335e-05 -8.37282e-06 0.014543)
(-8.93937e-06 -8.10535e-06 0.0145463)
(-6.00822e-06 -4.48084e-06 0.0145302)
(-6.36588e-06 -5.20387e-06 0.014532)
(-6.29802e-06 -5.79911e-06 0.0145339)
(-5.78318e-06 -6.21489e-06 0.0145359)
(-6.70925e-06 -5.19869e-06 0.0145318)
(-6.93343e-06 -5.75069e-06 0.0145338)
(-6.69493e-06 -6.14317e-06 0.014536)
(-5.98052e-06 -6.34452e-06 0.0145381)
(-7.25003e-06 -5.39703e-06 0.0145336)
(-7.3114e-06 -5.75241e-06 0.0145359)
(-6.89091e-06 -5.9381e-06 0.0145381)
(-5.96526e-06 -5.94193e-06 0.0145402)
(-7.58635e-06 -5.09115e-06 0.0145355)
(-7.47317e-06 -5.26263e-06 0.0145378)
(-6.88114e-06 -5.24896e-06 0.0145401)
(-5.78101e-06 -5.04588e-06 0.0145422)
(-4.17376e-06 -2.98819e-06 0.0145315)
(-4.29317e-06 -3.41022e-06 0.0145328)
(-4.15903e-06 -3.75311e-06 0.0145342)
(-3.76439e-06 -3.98764e-06 0.0145356)
(-4.57578e-06 -3.36631e-06 0.0145326)
(-4.62111e-06 -3.6806e-06 0.014534)
(-4.38393e-06 -3.89986e-06 0.0145355)
(-3.86831e-06 -4.0054e-06 0.014537)
(-4.87509e-06 -3.44783e-06 0.0145338)
(-4.82718e-06 -3.63574e-06 0.0145354)
(-4.48169e-06 -3.72413e-06 0.0145369)
(-3.83965e-06 -3.70674e-06 0.0145383)
(-5.04498e-06 -3.23377e-06 0.014535)
(-4.89583e-06 -3.3067e-06 0.0145367)
(-4.44913e-06 -3.27099e-06 0.0145382)
(-3.70268e-06 -3.12451e-06 0.0145395)
(-2.74713e-06 -1.8939e-06 0.0145321)
(-2.75866e-06 -2.14456e-06 0.0145331)
(-2.63446e-06 -2.34304e-06 0.0145342)
(-2.36513e-06 -2.47511e-06 0.0145352)
(-2.98068e-06 -2.08606e-06 0.0145329)
(-2.95424e-06 -2.2708e-06 0.014534)
(-2.76594e-06 -2.39684e-06 0.0145351)
(-2.42156e-06 -2.4538e-06 0.0145361)
(-3.1465e-06 -2.122e-06 0.0145338)
(-3.06943e-06 -2.22399e-06 0.0145349)
(-2.81477e-06 -2.26599e-06 0.014536)
(-2.39378e-06 -2.24554e-06 0.014537)
(-3.23028e-06 -1.98847e-06 0.0145346)
(-3.09677e-06 -2.01612e-06 0.0145358)
(-2.78106e-06 -1.98034e-06 0.0145369)
(-2.29605e-06 -1.88171e-06 0.0145378)
(-1.66023e-06 -1.10267e-06 0.0145324)
(-1.63721e-06 -1.24717e-06 0.0145333)
(-1.54923e-06 -1.35784e-06 0.0145341)
(-1.38614e-06 -1.42928e-06 0.0145348)
(-1.79262e-06 -1.19359e-06 0.014533)
(-1.75203e-06 -1.30108e-06 0.0145339)
(-1.62434e-06 -1.3723e-06 0.0145348)
(-1.41566e-06 -1.4026e-06 0.0145355)
(-1.88164e-06 -1.21038e-06 0.0145337)
(-1.81556e-06 -1.26545e-06 0.0145346)
(-1.64791e-06 -1.28488e-06 0.0145354)
(-1.39468e-06 -1.26837e-06 0.0145362)
(-1.92138e-06 -1.13661e-06 0.0145343)
(-1.82573e-06 -1.14456e-06 0.0145352)
(-1.62197e-06 -1.11739e-06 0.014536)
(-1.33155e-06 -1.05724e-06 0.0145367)
(-9.21224e-07 -6.05732e-07 0.0145326)
(-9.05326e-07 -6.78196e-07 0.0145333)
(-8.52212e-07 -7.32135e-07 0.0145339)
(-7.59271e-07 -7.65351e-07 0.0145346)
(-9.87826e-07 -6.49327e-07 0.0145331)
(-9.61117e-07 -7.01607e-07 0.0145338)
(-8.85694e-07 -7.33521e-07 0.0145345)
(-7.67288e-07 -7.4301e-07 0.0145351)
(-1.03069e-06 -6.53247e-07 0.0145336)
(-9.89036e-07 -6.76902e-07 0.0145343)
(-8.90635e-07 -6.80048e-07 0.014535)
(-7.47313e-07 -6.6234e-07 0.0145356)
(-1.04782e-06 -6.10783e-07 0.0145341)
(-9.88523e-07 -6.06957e-07 0.0145348)
(-8.67958e-07 -5.83305e-07 0.0145354)
(-7.03334e-07 -5.41494e-07 0.014536)
(0.000560753 0.00108373 0.0179206)
(0.000942411 -0.00168777 0.0190309)
(0.000965358 -0.000780156 0.0141893)
(0.000485417 -0.000561136 0.0213683)
(0.000209764 6.20579e-05 0.0151425)
(-0.000185564 -0.000700615 0.0108956)
(0.00039011 0.000483178 0.0151376)
(0.000477941 7.47656e-05 0.0169786)
(-0.0012655 -0.00112574 0.00946834)
(0.000947177 -0.00111697 0.0145055)
(0.00136392 0.00181924 0.0186996)
(0.00048485 0.00196342 0.0150788)
(-0.00196163 -0.000695158 0.0148464)
(0.0015374 -0.00052546 0.0155997)
(0.00221027 0.000207155 0.0214557)
(0.000977426 0.00101497 0.0157406)
(0.000519666 0.000279312 0.0232901)
(0.0032723 0.00118305 0.0290772)
(0.00461304 0.000927922 0.0342272)
(0.00179441 0.00183552 0.0216429)
(0.000409477 0.00164171 0.035721)
(0.00242312 0.00456558 0.0476575)
(0.000864811 0.000981174 0.0280428)
(0.00153666 -0.00108471 0.0284336)
(0.00270536 0.00200947 0.0382853)
(-0.000494223 0.000392778 0.0325893)
(-0.000659501 0.000110935 0.0382916)
(0.00127072 0.00206527 0.0273254)
(0.00195988 0.000721604 0.0269575)
(-0.000802058 -0.00181894 0.031609)
(0.00124011 -0.000691001 0.0267396)
(0.0028182 0.00121762 0.0469069)
(0.000954897 -0.000231393 0.0241146)
(0.0010344 0.00186249 0.0276917)
(0.00197243 0.00196276 0.0337384)
(0.00297531 -0.00112503 0.0834561)
(0.00126709 -0.00150724 0.0257276)
(0.00221134 0.000288377 0.021866)
(0.000746983 0.00193224 0.0266927)
(0.00087784 0.00203235 0.0215591)
(0.000216751 0.00131651 0.0218861)
(0.00515955 0.000100448 0.0567931)
(0.00280791 0.00169935 0.0347918)
(0.00124405 0.0026571 0.0282777)
(0.000891751 0.000946369 0.0387946)
(0.00163691 -8.60654e-05 0.0279912)
(0.00221428 0.000306622 0.0356978)
(-3.68878e-05 0.00111549 0.0464506)
(0.0046992 0.00168133 0.0374571)
(0.00124033 0.000113255 0.0279817)
(-0.000795062 0.000933264 0.031831)
(-0.00114019 0.00196304 0.0264013)
(0.00223537 -0.000633002 0.0187908)
(7.10636e-06 -0.00166381 0.0537262)
(0.00158418 -0.000777645 0.0324366)
(0.000712435 0.00387827 0.0206372)
(0.00141867 -0.00228087 0.0254359)
(0.000370906 -0.00144218 0.0262344)
(0.00298553 -0.000754343 0.0464959)
(0.000393405 0.00239822 0.032862)
(0.00220638 -0.00214056 0.0278077)
(0.00218797 -0.000762993 0.0339822)
(0.00195686 -0.00100522 0.0412748)
(0.000626852 0.00300043 0.0511785)
(0.00167604 -0.00309518 0.0397803)
(-0.0001464 -0.00211187 0.0315544)
(3.17431e-05 0.00194534 0.0525956)
(-0.00055543 0.00153204 0.0211612)
(0.000620927 0.000266364 0.0379199)
(0.000649864 -0.00166027 0.0239405)
(0.00107358 -0.00246407 0.0250921)
(-0.00303041 -0.000654281 0.0425167)
(0.00406327 -0.00214677 0.0358935)
(-0.00242741 -7.23212e-05 0.0522718)
(-0.000831705 -0.00373138 0.0356784)
(-0.0017174 -0.0027319 0.0293937)
(0.00104001 -0.00344445 0.0314048)
(0.000191491 -0.000711449 0.0291353)
(-0.000903746 -0.000408798 0.0335195)
(-0.00126821 -0.0015817 0.074014)
(0.000383307 -0.000872662 0.0255531)
(-0.000453528 1.28179e-05 0.0181691)
(-0.00116542 -0.00115698 0.0289043)
(0.00131217 -0.00249502 0.0168252)
(0.000369576 -0.00148579 0.0142438)
(-5.07481e-05 -0.00334748 0.0235169)
(-0.00268713 -0.00224471 0.0306737)
(-0.00236422 -0.0041818 0.0363535)
(-0.000687054 0.000873334 0.0397346)
(-0.000149491 -0.00216419 0.0140221)
(-0.00236347 -0.00599588 0.0253312)
(-0.00104974 -0.00436851 0.0163781)
(0.00125082 0.00057653 0.0111177)
(-0.00194602 0.000520937 0.0207535)
(-0.00438805 -0.00127055 0.0251919)
(-0.00175067 -0.00544607 0.0269201)
(-0.00135578 -0.00118404 0.023724)
(-0.000493062 -0.00076477 0.0163448)
(0.000449848 -0.000951501 0.0206186)
(0.00031886 -0.000332768 0.0152604)
(-0.000636239 -7.18098e-05 0.0172185)
(-0.000838961 -0.00124917 0.0194927)
(-0.000451238 -0.00086984 0.0321044)
(-0.00026481 -0.000596882 0.0273679)
(0.00105334 -0.00540177 0.0161551)
(0.000249787 -0.000838128 0.0195453)
(0.000120676 -0.000650953 0.0215502)
(-0.000833261 8.87367e-05 0.0209096)
(-8.31552e-05 0.000502874 0.0186885)
(9.53627e-05 -0.0001036 0.0201493)
(-0.000401606 5.38254e-05 0.0138344)
(-0.00128313 0.000246517 0.0300046)
(-0.000467948 0.00104192 0.0298631)
(-0.000360957 0.000809876 0.0272352)
(-0.000156056 0.000744939 0.0306712)
(1.43219e-05 0.0010433 0.0266102)
(-0.000432273 0.00149145 0.0297824)
(-0.00070056 0.00106329 0.0284531)
(7.9903e-06 0.00100655 0.0357666)
(0.00043441 0.00105666 0.0323745)
(-9.11316e-05 0.000263136 0.0380703)
(-0.000428155 0.00100186 0.0268924)
(0.000311761 0.00135809 0.0286069)
(0.00024624 0.00110053 0.0326172)
(-0.000357546 -7.52006e-06 0.0260719)
(-0.000120068 0.000307246 0.0276672)
(-3.676e-05 0.000585652 0.0202297)
(-0.000295287 0.000613867 0.039648)
(-0.000857868 -0.000417966 0.0107011)
(-0.000621925 -0.000202663 0.0107073)
(-0.00058732 -0.000390062 0.0116624)
(-0.000156153 -0.00114025 0.0110624)
(-0.000829924 -0.000391713 0.010564)
(-0.00063124 0.000158715 0.0107914)
(-0.000616105 0.000489447 0.0123784)
(-0.000192762 -0.000974684 0.0118381)
(-0.000424873 0.000403937 0.0108967)
(6.38726e-05 0.000388481 0.0100827)
(-0.000561335 0.00145071 0.0108714)
(-0.000627776 -0.000541878 0.0121222)
(-0.000871127 0.000726149 0.00892983)
(-0.000127807 0.0002019 0.00961762)
(-0.00104358 0.00116891 0.00930302)
(-0.000823627 6.56528e-05 0.0130489)
(-0.000622465 -0.000446075 0.01605)
(-0.000439298 -0.000358334 0.0161854)
(-0.000315924 -0.000387234 0.0166661)
(-0.000118188 -0.000623478 0.0167225)
(-0.000645351 -0.000358592 0.016254)
(-0.000405522 -0.000150229 0.0163641)
(-0.00033398 -3.79127e-05 0.0170145)
(-0.00016329 -0.000614094 0.0172083)
(-0.000534316 9.24479e-05 0.0165555)
(-0.000161862 6.88075e-05 0.0162258)
(-0.000364601 0.000405353 0.0166618)
(-0.000288036 -0.000418651 0.0176232)
(-0.000716538 0.000279957 0.0156729)
(-0.000242844 0.000105386 0.0159894)
(-0.000552029 0.00044537 0.0161439)
(-0.000273555 -7.57125e-05 0.0180673)
(-0.000411563 -0.000286686 0.0146524)
(-0.000385576 -0.000272287 0.0147701)
(-0.000372281 -0.000280033 0.0149611)
(-0.000260748 -0.000397726 0.015007)
(-0.000443575 -0.000178465 0.0148007)
(-0.000375685 -0.00011455 0.0148956)
(-0.000380511 -7.70879e-05 0.0151241)
(-0.000241978 -0.000315906 0.0152099)
(-0.000428996 3.66325e-05 0.0149264)
(-0.000303923 4.67977e-05 0.0148959)
(-0.000384587 0.000146983 0.015085)
(-0.000228616 -0.000181401 0.0154155)
(-0.000491246 0.000114954 0.0146487)
(-0.000328234 0.000105291 0.0148166)
(-0.000433575 0.000238972 0.0149598)
(-0.000172786 -6.72416e-06 0.0155943)
(-0.000254982 -0.00019362 0.0146264)
(-0.000252896 -0.000194514 0.0147225)
(-0.000244012 -0.000194288 0.0148477)
(-0.000186657 -0.000230259 0.0149485)
(-0.000275511 -0.000120822 0.0146964)
(-0.000249345 -0.000104361 0.0147918)
(-0.00024152 -9.75368e-05 0.0149356)
(-0.000163917 -0.000182749 0.0150551)
(-0.000280171 -1.50147e-05 0.0147308)
(-0.00022844 -5.37257e-06 0.0148028)
(-0.000235338 1.64531e-05 0.0149536)
(-0.000134868 -0.000106173 0.015148)
(-0.000299859 3.71112e-05 0.0146394)
(-0.000231156 5.40916e-05 0.0147671)
(-0.000235384 9.6529e-05 0.0149268)
(-8.60135e-05 -1.02222e-05 0.0152161)
(-0.00015836 -0.000119141 0.0145897)
(-0.000163697 -0.000121511 0.0146486)
(-0.000160097 -0.00011996 0.0147149)
(-0.000126945 -0.000131446 0.0147735)
(-0.000169889 -7.61776e-05 0.0146337)
(-0.000162238 -7.08795e-05 0.0146952)
(-0.000154186 -6.85431e-05 0.0147673)
(-0.000107709 -0.000100085 0.0148284)
(-0.000174398 -2.25774e-05 0.0146546)
(-0.000153384 -1.40651e-05 0.014714)
(-0.000144074 -7.47119e-06 0.0147935)
(-8.32742e-05 -5.51281e-05 0.0148756)
(-0.000180586 1.14357e-05 0.0146324)
(-0.000148802 2.81394e-05 0.0147086)
(-0.000132911 4.44956e-05 0.0147975)
(-5.04931e-05 -2.8415e-06 0.014908)
(-9.87802e-05 -7.17666e-05 0.0145672)
(-0.000103234 -7.34667e-05 0.0146043)
(-0.000100122 -7.20512e-05 0.014644)
(-8.02469e-05 -7.48131e-05 0.0146808)
(-0.000104741 -4.73688e-05 0.0145935)
(-0.000102206 -4.51757e-05 0.0146335)
(-9.45391e-05 -4.39252e-05 0.0146753)
(-6.69169e-05 -5.55971e-05 0.0147107)
(-0.000107028 -1.8662e-05 0.0146072)
(-9.72157e-05 -1.26039e-05 0.0146487)
(-8.57663e-05 -1.00881e-05 0.0146945)
(-5.03715e-05 -2.94196e-05 0.0147352)
(-0.000108352 3.23397e-06 0.0146047)
(-9.20719e-05 1.49184e-05 0.0146516)
(-7.51494e-05 2.1632e-05 0.0147022)
(-2.99636e-05 -2.49614e-07 0.0147513)
(-6.25673e-05 -4.35713e-05 0.0145552)
(-6.49645e-05 -4.44141e-05 0.0145784)
(-6.20293e-05 -4.32358e-05 0.0146023)
(-4.96376e-05 -4.34342e-05 0.0146243)
(-6.54219e-05 -2.97059e-05 0.0145709)
(-6.39707e-05 -2.83855e-05 0.0145963)
(-5.76774e-05 -2.73705e-05 0.014621)
(-4.0954e-05 -3.18313e-05 0.014641)
(-6.618e-05 -1.34834e-05 0.01458)
(-6.06551e-05 -9.38774e-06 0.014607)
(-5.11925e-05 -8.0058e-06 0.0146335)
(-3.04033e-05 -1.63916e-05 0.0146543)
(-6.59257e-05 6.24416e-07 0.014582)
(-5.65186e-05 8.11795e-06 0.0146111)
(-4.33102e-05 1.11374e-05 0.0146397)
(-1.79176e-05 3.64635e-07 0.0146629)
(-4.02594e-05 -2.67323e-05 0.0145483)
(-4.11763e-05 -2.70213e-05 0.0145628)
(-3.86241e-05 -2.60966e-05 0.0145774)
(-3.07087e-05 -2.56682e-05 0.0145904)
(-4.15245e-05 -1.87018e-05 0.014558)
(-4.02608e-05 -1.7724e-05 0.0145739)
(-3.54891e-05 -1.68793e-05 0.0145887)
(-2.51594e-05 -1.86547e-05 0.0146001)
(-4.15512e-05 -9.1572e-06 0.014564)
(-3.79477e-05 -6.41127e-06 0.0145811)
(-3.10077e-05 -5.47994e-06 0.0145965)
(-1.85387e-05 -9.40775e-06 0.0146076)
(-4.09064e-05 -1.03096e-07 0.0145665)
(-3.49533e-05 4.61226e-06 0.0145844)
(-2.56296e-05 6.10987e-06 0.0146008)
(-1.089e-05 4.54406e-07 0.0146123)
(-2.6279e-05 -1.65834e-05 0.0145439)
(-2.63997e-05 -1.65846e-05 0.014553)
(-2.43418e-05 -1.58827e-05 0.0145619)
(-1.91919e-05 -1.54005e-05 0.0145697)
(-2.67735e-05 -1.18019e-05 0.0145498)
(-2.5624e-05 -1.10369e-05 0.0145598)
(-2.21607e-05 -1.03712e-05 0.0145687)
(-1.56456e-05 -1.11173e-05 0.0145753)
(-2.65243e-05 -6.01373e-06 0.0145538)
(-2.39997e-05 -4.15807e-06 0.0145645)
(-1.91534e-05 -3.49003e-06 0.0145736)
(-1.14884e-05 -5.48448e-06 0.0145797)
(-2.58814e-05 -2.24794e-07 0.0145558)
(-2.19253e-05 2.76132e-06 0.0145669)
(-1.56072e-05 3.58163e-06 0.0145764)
(-6.76631e-06 4.35143e-07 0.0145824)
(-1.73658e-05 -1.04067e-05 0.0145409)
(-1.71362e-05 -1.02777e-05 0.0145467)
(-1.55544e-05 -9.74836e-06 0.0145522)
(-1.21523e-05 -9.34801e-06 0.0145569)
(-1.75016e-05 -7.47845e-06 0.0145446)
(-1.65137e-05 -6.87779e-06 0.0145509)
(-1.40561e-05 -6.37057e-06 0.0145563)
(-9.86949e-06 -6.69895e-06 0.0145602)
(-1.7187e-05 -3.88764e-06 0.0145472)
(-1.53753e-05 -2.61676e-06 0.0145539)
(-1.20603e-05 -2.12948e-06 0.0145594)
(-7.24197e-06 -3.21436e-06 0.0145628)
(-1.66532e-05 -1.86222e-07 0.0145486)
(-1.39635e-05 1.73263e-06 0.0145555)
(-9.75126e-06 2.2242e-06 0.0145611)
(-4.29924e-06 3.9387e-07 0.0145644)
(-1.15745e-05 -6.59673e-06 0.0145388)
(-1.12333e-05 -6.42258e-06 0.0145425)
(-1.00548e-05 -6.0236e-06 0.014546)
(-7.78418e-06 -5.72e-06 0.0145489)
(-1.15539e-05 -4.76142e-06 0.0145411)
(-1.07523e-05 -4.29578e-06 0.0145452)
(-9.03146e-06 -3.91725e-06 0.0145485)
(-6.30549e-06 -4.06366e-06 0.0145509)
(-1.12606e-05 -2.49719e-06 0.0145428)
(-9.95926e-06 -1.61901e-06 0.0145471)
(-7.71373e-06 -1.26419e-06 0.0145504)
(-4.63447e-06 -1.88384e-06 0.0145524)
(-1.08497e-05 -1.25184e-07 0.0145438)
(-9.00686e-06 1.1251e-06 0.0145482)
(-6.2172e-06 1.44043e-06 0.0145515)
(-2.78548e-06 3.43002e-07 0.0145534)
(-7.72315e-06 -4.20519e-06 0.0145373)
(-7.38389e-06 -4.03171e-06 0.0145398)
(-6.52547e-06 -3.73639e-06 0.014542)
(-5.01125e-06 -3.51645e-06 0.0145438)
(-7.64507e-06 -3.04068e-06 0.0145388)
(-7.02481e-06 -2.68866e-06 0.0145415)
(-5.83529e-06 -2.41322e-06 0.0145436)
(-4.0549e-06 -2.47922e-06 0.014545)
(-7.40381e-06 -1.60067e-06 0.0145399)
(-6.47976e-06 -9.95279e-07 0.0145427)
(-4.97276e-06 -7.41737e-07 0.0145448)
(-2.99181e-06 -1.10568e-06 0.014546)
(-7.1012e-06 -7.82145e-08 0.0145406)
(-5.84393e-06 7.41599e-07 0.0145434)
(-4.00777e-06 9.51017e-07 0.0145455)
(-1.82584e-06 2.83158e-07 0.0145465)
(-5.08953e-06 -2.66763e-06 0.0145362)
(-4.80258e-06 -2.51981e-06 0.0145379)
(-4.1954e-06 -2.3092e-06 0.0145394)
(-3.19772e-06 -2.15953e-06 0.0145405)
(-5.00291e-06 -1.9338e-06 0.0145373)
(-4.54553e-06 -1.67828e-06 0.014539)
(-3.73977e-06 -1.48477e-06 0.0145404)
(-2.58945e-06 -1.51236e-06 0.0145413)
(-4.82074e-06 -1.02159e-06 0.014538)
(-4.1802e-06 -6.12694e-07 0.0145399)
(-3.18508e-06 -4.38016e-07 0.0145412)
(-1.92201e-06 -6.51151e-07 0.0145419)
(-4.60728e-06 -4.91749e-08 0.0145385)
(-3.76386e-06 4.83362e-07 0.0145403)
(-2.57047e-06 6.21662e-07 0.0145416)
(-1.19177e-06 2.16877e-07 0.0145422)
(-3.23578e-06 -1.64588e-06 0.0145355)
(-3.02061e-06 -1.53548e-06 0.0145367)
(-2.6112e-06 -1.39433e-06 0.0145377)
(-1.97822e-06 -1.29859e-06 0.0145384)
(-3.16387e-06 -1.19969e-06 0.0145362)
(-2.84749e-06 -1.02546e-06 0.0145375)
(-2.32318e-06 -8.96885e-07 0.0145384)
(-1.6061e-06 -9.05796e-07 0.0145389)
(-3.03822e-06 -6.3771e-07 0.0145368)
(-2.61393e-06 -3.7371e-07 0.014538)
(-1.97989e-06 -2.6026e-07 0.0145389)
(-1.20103e-06 -3.80734e-07 0.0145393)
(-2.89706e-06 -3.15439e-08 0.0145371)
(-2.3525e-06 3.03057e-07 0.0145384)
(-1.60106e-06 3.90573e-07 0.0145392)
(-7.55502e-07 1.51836e-07 0.0145395)
(-1.91483e-06 -9.48074e-07 0.014535)
(-1.77405e-06 -8.7612e-07 0.0145359)
(-1.51965e-06 -7.90524e-07 0.0145366)
(-1.14882e-06 -7.3383e-07 0.0145372)
(-1.86546e-06 -6.96452e-07 0.0145355)
(-1.66751e-06 -5.8742e-07 0.0145365)
(-1.35142e-06 -5.0833e-07 0.0145371)
(-9.37112e-07 -5.09325e-07 0.0145375)
(-1.78888e-06 -3.73307e-07 0.014536)
(-1.53059e-06 -2.15361e-07 0.0145369)
(-1.1544e-06 -1.47182e-07 0.0145375)
(-7.07579e-07 -2.10587e-07 0.0145378)
(-1.70613e-06 -1.85522e-08 0.0145362)
(-1.38031e-06 1.78478e-07 0.0145371)
(-9.37024e-07 2.30043e-07 0.0145377)
(-4.52174e-07 9.83771e-08 0.0145379)
(-1.04137e-06 -5.15247e-07 0.0145346)
(-9.56242e-07 -4.76272e-07 0.0145353)
(-8.0864e-07 -4.28554e-07 0.0145359)
(-6.14444e-07 -3.84992e-07 0.0145363)
(-1.01552e-06 -3.80863e-07 0.0145351)
(-8.97844e-07 -3.2084e-07 0.0145358)
(-7.16832e-07 -2.76365e-07 0.0145363)
(-5.00448e-07 -2.65473e-07 0.0145366)
(-9.79605e-07 -2.0691e-07 0.0145354)
(-8.27869e-07 -1.21792e-07 0.0145362)
(-6.13255e-07 -8.60335e-08 0.0145366)
(-3.78484e-07 -1.11741e-07 0.0145368)
(-9.43814e-07 -1.00188e-08 0.0145356)
(-7.53276e-07 9.781e-08 0.0145364)
(-5.00107e-07 1.22184e-07 0.0145368)
(-2.44096e-07 5.53115e-08 0.0145369)
(0.00185091 -7.53878e-06 0.0122132)
(0.00496449 -4.26009e-05 0.0196251)
(-0.000777764 -4.42841e-05 0.00931597)
(-0.00186618 -9.41495e-05 0.0112175)
(0.000282808 0.000998933 0.0183112)
(0.00217426 -0.000423838 0.012074)
(0.0025159 -0.000162164 0.0147296)
(0.00152182 0.000137199 0.0191521)
(0.00279872 -0.000847688 0.0248971)
(0.00171015 0.000473611 0.0143971)
(-0.000120317 -0.00192683 0.0213035)
(-0.00140918 -0.000888415 0.0111786)
(0.00151724 -0.000538222 0.00789094)
(0.00179992 -0.00149953 0.0224342)
(0.000839026 -0.000226377 0.0096298)
(0.000396396 0.00138399 0.0184844)
(-0.00112518 -0.000303625 0.026229)
(0.00053201 -0.00113653 0.0404092)
(0.00367257 0.00597651 0.0595078)
(0.00118375 0.0023074 0.0290868)
(0.00193764 0.00238811 0.0359255)