/*--------------------------------*- C++ -*----------------------------------*\
| =========                 |                                                 |
| \\      /  F ield         | OpenFOAM: The Open Source CFD Toolbox           |
|  \\    /   O peration     | Version:  2506                                  |
|   \\  /    A nd           | Website:  www.openfoam.com                      |
|    \\/     M anipulation  |                                                 |
\*---------------------------------------------------------------------------*/
FoamFile
{
    version     2.0;
    format      ascii;
    arch        "LSB;label=32;scalar=64";
    class       volVectorField;
    location    "0.07";
    object      Us;
}
// * * * * * * * * * * * * * * * * * * * * * * * * * * * * * * * * * * * * * //

dimensions      [0 1 -1 0 0 0 0];

internalField   nonuniform List<vector> 
1152
(
(0.000325715 0.00137202 5.67022e-05)
(0.000109601 0.000324705 -0.000143944)
(-0.00039299 0.00169095 5.61002e-06)
(0.00020292 0.00141559 -0.000930597)
(0.000224425 0.00103359 0.000568945)
(0.000129671 0.000335621 6.7339e-06)
(0.000276338 0.000338037 -0.000210792)
(0.000498735 0.000532048 0.000527959)
(0.000915174 0.000963163 7.38875e-05)
(0.00158988 0.00100233 0.000294908)
(0.000530229 -0.000361715 -2.35178e-05)
(0.00032336 0.000382046 0.000470514)
(0.000868266 0.000424467 -0.000416114)
(0.000169526 0.000462882 0.000142495)
(6.35933e-06 -0.000278105 3.89423e-05)
(0.000323448 0.000436805 0.000141563)
(0.000119148 -0.000253533 0.00643115)
(0.000827363 0.000255978 0.00696104)
(0.00255246 0.000189646 0.00636621)
(0.000848969 -0.000628088 0.0058357)
(0.00121571 -0.00121735 0.00720925)
(0.000862186 -0.000390911 0.00787115)
(0.00180267 0.00044493 0.00709146)
(0.00143108 0.000534836 0.00840445)
(0.000939547 0.000652426 0.00659239)
(0.000972904 -0.000254424 0.00520598)
(0.00117778 0.000262371 0.0073305)
(0.000616668 0.00198407 0.0062976)
(0.0021882 0.00140758 0.00726164)
(0.000135224 -0.000669526 0.00678421)
(7.39737e-05 0.000567026 0.00726787)
(0.000992366 0.00291168 0.00532025)
(7.61978e-05 0.000477676 0.00655615)
(-0.000176003 -0.000323857 0.00678794)
(0.000845427 0.000806484 0.00682571)
(0.000545485 0.000736796 0.00663632)
(0.000104037 0.000734159 0.00631062)
(-0.000350237 0.000155998 0.00644503)
(-4.58779e-05 7.80275e-05 0.00678152)
(0.000158922 0.00103267 0.00686105)
(0.000623274 0.000284162 0.00588818)
(0.000178445 0.000232233 0.00604426)
(3.82179e-05 0.000476856 0.00708612)
(-9.24685e-06 0.00126857 0.006081)
(0.00136401 0.000326958 0.00629209)
(-0.00038136 0.000319012 0.00618427)
(0.000163126 0.000595909 0.0066457)
(0.000328428 0.000914236 0.00635734)
(0.000154073 7.93772e-05 0.00636819)
(-0.000334902 -0.000507363 0.00766026)
(-0.000587606 0.000151121 0.00690414)
(-0.000199422 0.00031739 0.00645508)
(3.87405e-06 -0.000309238 0.00640448)
(-0.000190933 -0.000209326 0.00688378)
(-1.49473e-05 0.00015363 0.00654337)
(-0.000553945 4.53492e-05 0.00702322)
(0.000433199 -0.000426901 0.00622349)
(5.49486e-05 -7.94971e-05 0.00665682)
(-1.49138e-05 0.000581265 0.00654144)
(-6.37271e-06 0.000647132 0.00714415)
(0.000249844 -0.000213111 0.00607153)
(-0.000101797 -0.000217913 0.00640974)
(0.000173302 0.000144953 0.00663088)
(0.000288343 -0.000205938 0.00730469)
(-1.30691e-06 -0.000132325 0.00636372)
(5.23162e-05 -3.76279e-05 0.00640994)
(0.000124446 0.000167264 0.00646036)
(3.24358e-05 0.000164533 0.00650936)
(-0.000130371 -0.000119848 0.00651674)
(-0.000112408 3.01867e-05 0.00636998)
(0.000332061 0.000117223 0.00678525)
(-9.10529e-06 8.25099e-05 0.00694656)
(-0.000344033 -0.00011514 0.0063605)
(-0.000148055 -0.000803903 0.00689148)
(0.000245199 -3.96813e-05 0.00656758)
(0.000152702 0.000341318 0.0071705)
(-0.0002305 -0.000683914 0.00632178)
(-0.000123974 -0.000554122 0.00652268)
(0.0001485 -0.000731617 0.00658482)
(5.57766e-05 -0.00010423 0.00743362)
(-0.000180045 -1.91039e-05 0.00626702)
(-2.70548e-05 -0.000181526 0.00639942)
(-9.86888e-05 -0.000163172 0.00655148)
(-2.40017e-05 -0.000153731 0.0067299)
(-0.000196675 -0.000139388 0.006468)
(0.000125615 -0.000222478 0.00658644)
(2.48115e-05 -5.38916e-05 0.00669819)
(-0.000176803 -0.000125765 0.00680647)
(-0.00027112 -0.00013267 0.00641841)
(0.000251293 -0.000485128 0.00656097)
(0.000249681 9.19366e-05 0.00635776)
(9.7988e-05 4.49708e-05 0.00671247)
(-0.00048856 -0.000638953 0.00634681)
(8.27668e-06 -0.000133714 0.00610891)
(9.92147e-05 -0.000260232 0.00638824)
(9.21449e-05 0.000126385 0.00704865)
(-0.000211831 -0.000215852 0.00630025)
(-0.000174079 -0.000237786 0.006347)
(-0.000184367 -8.11752e-05 0.00640373)
(-7.80921e-05 -0.000154053 0.00666723)
(-0.000417485 -5.27472e-05 0.00617375)
(-0.000145738 -0.000114205 0.00652844)
(-0.000313978 0.000146604 0.00641962)
(-0.00045054 -2.535e-06 0.00660718)
(7.78303e-06 7.20781e-05 0.00629546)
(0.000215376 0.000106724 0.00613501)
(-0.000450052 0.000554349 0.00662234)
(-0.000275413 9.18584e-05 0.00674743)
(-0.000223624 -0.000127588 0.00627511)
(-0.000102777 -0.000294529 0.00616264)
(-0.000185873 0.000104926 0.00659495)
(-0.000172715 0.00028115 0.0064446)
(0 0 0)
(0 0 0)
(0 0 0)
(0 0 0)
(0 0 0)
(0 0 0)
(0 0 0)
(0 0 0)
(0 0 0)
(0 0 0)
(0 0 0)
(0 0 0)
(0 0 0)
(0 0 0)
(0 0 0)
(0 0 0)
(0 0 0)
(0 0 0)
(0 0 0)
(0 0 0)
(0 0 0)
(0 0 0)
(0 0 0)
(0 0 0)
(0 0 0)
(0 0 0)
(0 0 0)
(0 0 0)
(0 0 0)
(0 0 0)
(0 0 0)
(0 0 0)
(0 0 0)
(0 0 0)
(0 0 0)
(0 0 0)
(0 0 0)
(0 0 0)
(0 0 0)
(0 0 0)
(0 0 0)
(0 0 0)
(0 0 0)
(0 0 0)
(0 0 0)
(0 0 0)
(0 0 0)
(0 0 0)
(0 0 0)
(0 0 0)
(0 0 0)
(0 0 0)
(0 0 0)
(0 0 0)
(0 0 0)
(0 0 0)
(0 0 0)
(0 0 0)
(0 0 0)
(0 0 0)
(0 0 0)
(0 0 0)
(0 0 0)
(0 0 0)
(0 0 0)
(0 0 0)
(0 0 0)
(0 0 0)
(0 0 0)
(0 0 0)
(0 0 0)
(0 0 0)
(0 0 0)
(0 0 0)
(0 0 0)
(0 0 0)
(0 0 0)
(0 0 0)
(0 0 0)
(0 0 0)
(0 0 0)
(0 0 0)
(0 0 0)
(0 0 0)
(0 0 0)
(0 0 0)
(0 0 0)
(0 0 0)
(0 0 0)
(0 0 0)
(0 0 0)
(0 0 0)
(0 0 0)
(0 0 0)
(0 0 0)
(0 0 0)
(0 0 0)
(0 0 0)
(0 0 0)
(0 0 0)
(0 0 0)
(0 0 0)
(0 0 0)
(0 0 0)
(0 0 0)
(0 0 0)
(0 0 0)
(0 0 0)
(0 0 0)
(0 0 0)
(0 0 0)
(0 0 0)
(0 0 0)
(0 0 0)
(0 0 0)
(0 0 0)
(0 0 0)
(0 0 0)
(0 0 0)
(0 0 0)
(0 0 0)
(0 0 0)
(0 0 0)
(0 0 0)
(0 0 0)
(0 0 0)
(0 0 0)
(0 0 0)
(0 0 0)
(0 0 0)
(0 0 0)
(0 0 0)
(0 0 0)
(0 0 0)
(0 0 0)
(0 0 0)
(0 0 0)
(0 0 0)
(0 0 0)
(0 0 0)
(0 0 0)
(0 0 0)
(0 0 0)
(0 0 0)
(0 0 0)
(0 0 0)
(0 0 0)
(0 0 0)
(0 0 0)
(0 0 0)
(0 0 0)
(0 0 0)
(0 0 0)
(0 0 0)
(0 0 0)
(0 0 0)
(0 0 0)
(0 0 0)
(0 0 0)
(0 0 0)
(0 0 0)
(0 0 0)
(0 0 0)
(0 0 0)
(0 0 0)
(0 0 0)
(0 0 0)
(0 0 0)
(0 0 0)
(0 0 0)
(0 0 0)
(0 0 0)
(0 0 0)
(0 0 0)
(0 0 0)
(0 0 0)
(0 0 0)
(0 0 0)
(0 0 0)
(0 0 0)
(0 0 0)
(0 0 0)
(0 0 0)
(0 0 0)
(0 0 0)
(0 0 0)
(0 0 0)
(0 0 0)
(0 0 0)
(0 0 0)
(0 0 0)
(0 0 0)
(0 0 0)
(0 0 0)
(0 0 0)
(0 0 0)
(0 0 0)
(0 0 0)
(0 0 0)
(0 0 0)
(0 0 0)
(0 0 0)
(0 0 0)
(0 0 0)
(0 0 0)
(0 0 0)
(0 0 0)
(0 0 0)
(0 0 0)
(0 0 0)
(0 0 0)
(0 0 0)
(0 0 0)
(0 0 0)
(0 0 0)
(0 0 0)
(0 0 0)
(0 0 0)
(0 0 0)
(0 0 0)
(0 0 0)
(0 0 0)
(0 0 0)
(0 0 0)
(0 0 0)
(0 0 0)
(0 0 0)
(0 0 0)
(0 0 0)
(0 0 0)
(0 0 0)
(0 0 0)
(0 0 0)
(0 0 0)
(0 0 0)
(0 0 0)
(0 0 0)
(0 0 0)
(0 0 0)
(0 0 0)
(0 0 0)
(0 0 0)
(0 0 0)
(0 0 0)
(0 0 0)
(0 0 0)
(0 0 0)
(0 0 0)
(0 0 0)
(0 0 0)
(0 0 0)
(0 0 0)
(0 0 0)
(0 0 0)
(0 0 0)
(0 0 0)
(0 0 0)
(0 0 0)
(0 0 0)
(0 0 0)
(0 0 0)
(0 0 0)
(0 0 0)
(0 0 0)
(0 0 0)
(0 0 0)
(0 0 0)
(0 0 0)
(0 0 0)
(0 0 0)
(0 0 0)
(0 0 0)
(7.23678e-05 0.000806158 0.0002652)
(0.00027462 0.000395958 -4.75494e-05)
(0.00126527 0.000310758 -0.000358464)
(0.000561558 1.8e-05 -0.000445584)
(0.000256519 0.00103425 -0.00156938)
(9.24901e-06 0.000158426 -0.000174955)
(0.00010538 -7.46721e-05 -4.05504e-05)
(-0.000119065 0.00046359 -0.000137446)
(-0.000288977 -0.000248633 -0.000130423)
(-4.99649e-06 -9.8458e-05 -3.21343e-05)
(-0.000149202 0.000398233 -6.61877e-05)
(-4.10978e-05 0.000459211 -0.000142898)
(-0.000238232 -0.000320573 0.000172179)
(-2.01711e-05 -3.70947e-05 -0.000314416)
(-3.20095e-05 0.000392909 -0.00100141)
(0.000203053 -0.000126843 0.000252639)
(0.00107336 0.000679078 0.00596102)
(0.00169897 0.00121874 0.00489474)
(0.00172695 0.00163539 0.00665527)
(0.0014603 0.00174907 0.00543915)
(0.000767688 -6.88301e-05 0.00610589)
(0.000480831 0.000729334 0.00421439)
(0.000507981 0.000803739 0.00538194)
(0.00120103 0.000933644 0.00541983)
(0.000447788 0.00019352 0.00501552)
(-0.000898122 5.94633e-05 0.00460907)
(-0.000183274 -0.000169021 0.00397933)
(-0.000137759 0.000889526 0.00487693)
(0.00130256 0.000120688 0.00487041)
(-0.000210294 -0.000750121 0.00477961)
(0.000628074 -0.000100476 0.00408043)
(0.000352208 0.000474027 0.00466199)
(0.0010192 0.000277857 0.00622512)
(0.00041746 7.1831e-06 0.00507148)
(-2.03892e-05 0.000774608 0.00547625)
(0.000205141 0.00106436 0.00526474)
(0.000881259 -0.00112234 0.00600761)
(0.000599998 -0.00041315 0.00482635)
(3.9604e-06 0.000673584 0.0055037)
(0.000415836 0.00107994 0.005545)
(0.000986076 0.000348429 0.00544266)
(0.00104264 -3.75365e-05 0.00448328)
(0.000865835 0.000304889 0.00525312)
(0.000652526 0.0007821 0.00651912)
(0.000681573 3.38382e-05 0.00448643)
(5.6066e-05 2.20534e-05 0.00399583)
(0.000522588 -0.000231854 0.00426163)
(0.000149325 -0.000218943 0.00430076)
(0.000999496 -0.000250415 0.00663645)
(0.000755958 -0.000626796 0.00627097)
(0.00089483 4.14568e-05 0.00672496)
(-0.000612973 -0.00122249 0.00646215)
(0.00132464 -0.000737931 0.00614822)
(0.000774702 -0.000803301 0.00550299)
(0.000725294 4.94921e-07 0.00576725)
(0.000129234 0.000422047 0.00565885)
(0.00101504 -0.000722119 0.00519581)
(0.000317237 -0.0011303 0.00503814)
(0.000665852 -0.000299121 0.00628349)
(-0.000235151 0.000145087 0.00560099)
(0.00213799 -0.000639039 0.00643093)
(0.000571416 -0.000590854 0.00479854)
(-0.000459101 -0.000177844 0.00519839)
(-0.000288332 0.000284208 0.00615493)
(0.000291622 -0.000220776 0.00639087)
(9.00165e-05 -0.00012217 0.00684902)
(-9.27924e-05 -0.000690219 0.00607382)
(1.09109e-06 -0.000481365 0.00640315)
(0.000469967 -0.00053189 0.00589368)
(0.000331175 -0.000574097 0.00604679)
(8.87527e-05 -0.000647363 0.00590834)
(-3.93083e-06 -0.000516427 0.00610171)
(0.000254522 -0.000596534 0.00556513)
(0.000252822 -0.000914991 0.00503607)
(7.54893e-05 -0.00037108 0.00599372)
(-0.000324171 -0.000495955 0.00584737)
(0.000578219 -0.00124119 0.00428214)
(0.000338732 -0.000588836 0.00482382)
(-0.000659855 0.00030824 0.0052141)
(-0.00073949 -0.000373888 0.00533841)
(-0.00014866 -0.00090921 0.00625591)
(-0.000174701 -0.000467976 0.00576755)
(-0.000494577 -0.000471463 0.00561795)
(0.000573881 -0.000134268 0.00645369)
(-0.000350563 -0.000428584 0.00553376)
(-0.00025407 -0.000980929 0.00565331)
(0.000193715 -0.000557722 0.00508895)
(0.000423156 -0.000725717 0.00625015)
(3.95702e-05 2.08573e-05 0.00449617)
(-3.16305e-05 -0.00125294 0.00498371)
(-0.000480061 -0.000666392 0.00411092)
(-1.1836e-05 -0.00138905 0.00510084)
(0.000178351 -0.000123848 0.00356473)
(5.6805e-05 -0.000510602 0.0035916)
(-0.00114279 0.000468579 0.00338993)
(-0.000707297 -0.000331984 0.00362795)
(-0.00103799 -0.00102203 0.00563533)
(-0.000668997 -0.000779588 0.00532821)
(0.000557147 -0.000620164 0.00560247)
(0.000447518 0.000293839 0.00617132)
(-0.000543427 0.000339395 0.0050638)
(-0.000306696 -0.00148081 0.00572984)
(6.84631e-05 -0.000971718 0.00496528)
(-0.000749425 0.00050189 0.00556981)
(0.000923608 -0.00558699 -0.00562143)
(4.90727e-05 -0.000800179 0.00506559)
(2.43652e-05 -0.00129847 0.00453668)
(-0.000710847 0.000499397 0.00423848)
(2.21687e-05 -0.000104812 0.00397114)
(3.17253e-05 2.97974e-05 0.00248204)
(-0.000382577 -0.000142193 0.00306921)
(-0.000753633 0.000618971 0.00158471)
(0 0 0)
(0 0 0)
(0 0 0)
(0 0 0)
(0 0 0)
(0 0 0)
(0 0 0)
(0 0 0)
(0 0 0)
(0 0 0)
(0 0 0)
(0 0 0)
(0 0 0)
(0 0 0)
(0 0 0)
(0 0 0)
(0 0 0)
(0 0 0)
(0 0 0)
(0 0 0)
(0 0 0)
(0 0 0)
(0 0 0)
(0 0 0)
(0 0 0)
(0 0 0)
(0 0 0)
(0 0 0)
(0 0 0)
(0 0 0)
(0 0 0)
(0 0 0)
(0 0 0)
(0 0 0)
(0 0 0)
(0 0 0)
(0 0 0)
(0 0 0)
(0 0 0)
(0 0 0)
(0 0 0)
(0 0 0)
(0 0 0)
(0 0 0)
(0 0 0)
(0 0 0)
(0 0 0)
(0 0 0)
(0 0 0)
(0 0 0)
(0 0 0)
(0 0 0)
(0 0 0)
(0 0 0)
(0 0 0)
(0 0 0)
(0 0 0)
(0 0 0)
(0 0 0)
(0 0 0)
(0 0 0)
(0 0 0)
(0 0 0)
(0 0 0)
(0 0 0)
(0 0 0)
(0 0 0)
(0 0 0)
(0 0 0)
(0 0 0)
(0 0 0)
(0 0 0)
(0 0 0)
(0 0 0)
(0 0 0)
(0 0 0)
(0 0 0)
(0 0 0)
(0 0 0)
(0 0 0)
(0 0 0)
(0 0 0)
(0 0 0)
(0 0 0)
(0 0 0)
(0 0 0)
(0 0 0)
(0 0 0)
(0 0 0)
(0 0 0)
(0 0 0)
(0 0 0)
(0 0 0)
(0 0 0)
(0 0 0)
(0 0 0)
(0 0 0)
(0 0 0)
(0 0 0)
(0 0 0)
(0 0 0)
(0 0 0)
(0 0 0)
(0 0 0)
(0 0 0)
(0 0 0)
(0 0 0)
(0 0 0)
(0 0 0)
(0 0 0)
(0 0 0)
(0 0 0)
(0 0 0)
(0 0 0)
(0 0 0)
(0 0 0)
(0 0 0)
(0 0 0)
(0 0 0)
(0 0 0)
(0 0 0)
(0 0 0)
(0 0 0)
(0 0 0)
(0 0 0)
(0 0 0)
(0 0 0)
(0 0 0)
(0 0 0)
(0 0 0)
(0 0 0)
(0 0 0)
(0 0 0)
(0 0 0)
(0 0 0)
(0 0 0)
(0 0 0)
(0 0 0)
(0 0 0)
(0 0 0)
(0 0 0)
(0 0 0)
(0 0 0)
(0 0 0)
(0 0 0)
(0 0 0)
(0 0 0)
(0 0 0)
(0 0 0)
(0 0 0)
(0 0 0)
(0 0 0)
(0 0 0)
(0 0 0)
(0 0 0)
(0 0 0)
(0 0 0)
(0 0 0)
(0 0 0)
(0 0 0)
(0 0 0)
(0 0 0)
(0 0 0)
(0 0 0)
(0 0 0)
(0 0 0)
(0 0 0)
(0 0 0)
(0 0 0)
(0 0 0)
(0 0 0)
(0 0 0)
(0 0 0)
(0 0 0)
(0 0 0)
(0 0 0)
(0 0 0)
(0 0 0)
(0 0 0)
(0 0 0)
(0 0 0)
(0 0 0)
(0 0 0)
(0 0 0)
(0 0 0)
(0 0 0)
(0 0 0)
(0 0 0)
(0 0 0)
(0 0 0)
(0 0 0)
(0 0 0)
(0 0 0)
(0 0 0)
(0 0 0)
(0 0 0)
(0 0 0)
(0 0 0)
(0 0 0)
(0 0 0)
(0 0 0)
(0 0 0)
(0 0 0)
(0 0 0)
(0 0 0)
(0 0 0)
(0 0 0)
(0 0 0)
(0 0 0)
(0 0 0)
(0 0 0)
(0 0 0)
(0 0 0)
(0 0 0)
(0 0 0)
(0 0 0)
(0 0 0)
(0 0 0)
(0 0 0)
(0 0 0)
(0 0 0)
(0 0 0)
(0 0 0)
(0 0 0)
(0 0 0)
(0 0 0)
(0 0 0)
(0 0 0)
(0 0 0)
(0 0 0)
(0 0 0)
(0 0 0)
(0 0 0)
(0 0 0)
(0 0 0)
(0 0 0)
(0 0 0)
(0 0 0)
(0 0 0)
(0 0 0)
(0 0 0)
(0 0 0)
(0 0 0)
(0 0 0)
(0 0 0)
(0 0 0)
(0 0 0)
(0 0 0)
(0 0 0)
(0 0 0)
(0 0 0)
(0 0 0)
(0 0 0)
(0 0 0)
(0 0 0)
(0 0 0)
(0 0 0)
(0 0 0)
(0 0 0)
(0 0 0)
(0 0 0)
(0 0 0)
(0 0 0)
(0 0 0)
(0 0 0)
(0 0 0)
(0 0 0)
(0 0 0)
(0 0 0)
(0 0 0)
(0 0 0)
(0 0 0)
(0.000140356 -0.000101321 0.000156416)
(0.000558955 -0.000502772 6.30564e-05)
(-0.000255437 0.000285007 0.000565579)
(-0.000396023 0.000131767 -0.000329014)
(0.000440437 -0.000245947 -0.000192591)
(0.00115905 -0.000193396 -0.000378294)
(0.000115556 -3.91173e-05 -0.000244136)
(-9.09376e-05 9.23157e-05 -0.000196817)
(0.000804054 -0.000408567 -0.000400656)
(0.00037632 -7.90087e-05 0.000125607)
(0.000269928 -0.00012088 0.000146047)
(-0.000482124 0.000338552 -0.000331249)
(0.00124287 -0.000340336 -0.000415396)
(0.000899726 -0.000427581 -0.000478956)
(0.000105202 0.000213455 7.17232e-05)
(-0.000319911 0.000142396 6.10507e-05)
(-7.03502e-05 8.50426e-05 0.00587683)
(-0.000153519 5.51813e-05 0.00591597)
(0.00142377 0.00358337 0.00717077)
(0.000640773 0.00150482 0.00563254)
(0.00127609 0.00207037 0.0080973)
(0.000345936 0.00221571 0.00664177)
(-0.000362593 0.00190336 0.00665034)
(-0.000762168 0.00191939 0.00544409)
(0.000497711 0.00144535 0.00373014)
(-8.03546e-05 0.00127664 0.00517452)
(0.000182943 0.00103284 0.00548145)
(-0.000589286 0.00148947 0.004481)
(0.000995867 0.00207069 0.00637729)
(0.000818044 0.00155264 0.00468697)
(0.000275876 0.00192565 0.00438413)
(-0.000387351 0.000652897 0.00533084)
(-0.000285929 0.00145189 0.00583043)
(-0.000476402 0.000885587 0.00631201)
(-0.000848034 0.000851191 0.0067136)
(-0.000548857 0.00140993 0.00530021)
(-0.000713827 0.000809097 0.00658501)
(-0.000864962 0.000905731 0.00590395)
(-0.00117191 0.000921196 0.00705676)
(-0.000610973 0.000638882 0.00510979)
(-0.000868873 0.000745913 0.00608453)
(-0.000592404 0.000859025 0.0063393)
(-0.000734578 0.000590474 0.00545421)
(-0.000513841 0.00100526 0.00405535)
(-0.000297254 0.000196296 0.00672657)
(0.000320655 0.000981481 0.00627942)
(8.05872e-05 0.0004508 0.00524253)
(-9.74693e-05 0.000232977 0.00482238)
(-0.000323647 0.000823398 0.00635969)
(-0.00031474 0.000572113 0.00621662)
(-0.000711751 0.000598577 0.00605553)
(-7.9061e-05 8.56198e-05 0.00495205)
(-0.00102193 0.000130574 0.00731971)
(-0.000828225 0.000702538 0.00649483)
(-0.00103152 7.66233e-05 0.00613734)
(-0.000181853 -0.000927272 0.00591307)
(-0.000649337 0.000234959 0.00676653)
(-0.000698339 0.000457352 0.00625424)
(-0.000145782 0.000636152 0.00572131)
(-0.000994157 0.0003852 0.00524807)
(-0.000165064 0.000293723 0.00584852)
(-0.00101823 0.000538336 0.00556714)
(-0.000607276 0.000344493 0.00567604)
(0.000338149 -0.000225818 0.00593423)
(-0.000175187 0.000185434 0.00640281)
(-0.000559669 0.000543619 0.0062035)
(-0.000627611 0.000483272 0.00565435)
(0.000147117 -0.000310351 0.0053074)
(-0.000626655 0.000301244 0.00694116)
(-0.000388605 0.00104195 0.00644696)
(-5.72957e-05 0.000717428 0.00565875)
(0.000174173 -0.000370851 0.00548244)
(-4.31928e-05 0.000249332 0.00749401)
(3.32813e-05 0.000222937 0.00629924)
(-3.62894e-05 0.000286263 0.00440762)
(9.48348e-05 -0.000100944 0.00425457)
(0.000400348 0.000435279 0.00724772)
(0.000216762 0.000414584 0.00669947)
(-0.000194512 2.92264e-05 0.00488687)
(-1.35342e-05 -0.000140723 0.00401982)
(-0.000259208 -9.11391e-05 0.00673424)
(-0.000563904 0.00101713 0.00615396)
(-0.000736755 0.000926745 0.00537204)
(-0.000279017 0.000301727 0.00456431)
(-0.000336251 -3.65125e-05 0.00685711)
(8.53238e-06 0.000176692 0.00621451)
(-0.000298153 0.000302652 0.00502319)
(-0.000138467 0.000555083 0.00395051)
(0.000427532 1.32821e-05 0.00723043)
(0.00087428 -0.000281455 0.00676279)
(0.000126782 0.00022884 0.00527185)
(-0.000370591 0.000395049 0.003849)
(-8.56245e-05 -0.000519632 0.00693929)
(-0.00017302 -0.0007065 0.00626867)
(-0.000342904 -6.94265e-05 0.00433814)
(-0.00020371 2.63673e-05 0.0027864)
(-0.000547241 -0.000274385 0.00682249)
(0.00106209 0.000920142 0.00550348)
(0.00108213 0.000531643 0.00466304)
(-0.000285073 0.00100394 0.00454437)
(-0.000508578 -0.00019343 0.00659041)
(-0.000145201 -7.68705e-05 0.00624654)
(0.000194674 0.000429369 0.00518239)
(0.00317533 0.000675304 0.00288772)
(-2.07582e-05 -9.03057e-05 0.00651464)
(0.000748169 0.00017468 0.00627757)
(0.000861027 0.000463589 0.00475142)
(-0.000248709 0.000595773 0.00425574)
(0.000586548 -0.000536852 0.00676901)
(0.00090733 0.000609371 0.00588548)
(0.000234621 0.000221474 0.00399294)
(-0.000220377 -6.98875e-05 0.00329452)
(0 0 0)
(0 0 0)
(0 0 0)
(0 0 0)
(0 0 0)
(0 0 0)
(0 0 0)
(0 0 0)
(0 0 0)
(0 0 0)
(0 0 0)
(0 0 0)
(0 0 0)
(0 0 0)
(0 0 0)
(0 0 0)
(0 0 0)
(0 0 0)
(0 0 0)
(0 0 0)
(0 0 0)
(0 0 0)
(0 0 0)
(0 0 0)
(0 0 0)
(0 0 0)
(0 0 0)
(0 0 0)
(0 0 0)
(0 0 0)
(0 0 0)
(0 0 0)
(0 0 0)
(0 0 0)
(0 0 0)
(0 0 0)
(0 0 0)
(0 0 0)
(0 0 0)
(0 0 0)
(0 0 0)
(0 0 0)
(0 0 0)
(0 0 0)
(0 0 0)
(0 0 0)
(0 0 0)
(0 0 0)
(0 0 0)
(0 0 0)
(0 0 0)
(0 0 0)
(0 0 0)
(0 0 0)
(0 0 0)
(0 0 0)
(0 0 0)
(0 0 0)
(0 0 0)
(0 0 0)
(0 0 0)
(0 0 0)
(0 0 0)
(0 0 0)
(0 0 0)
(0 0 0)
(0 0 0)
(0 0 0)
(0 0 0)
(0 0 0)
(0 0 0)
(0 0 0)
(0 0 0)
(0 0 0)
(0 0 0)
(0 0 0)
(0 0 0)
(0 0 0)
(0 0 0)
(0 0 0)
(0 0 0)
(0 0 0)
(0 0 0)
(0 0 0)
(0 0 0)
(0 0 0)
(0 0 0)
(0 0 0)
(0 0 0)
(0 0 0)
(0 0 0)
(0 0 0)
(0 0 0)
(0 0 0)
(0 0 0)
(0 0 0)
(0 0 0)
(0 0 0)
(0 0 0)
(0 0 0)
(0 0 0)
(0 0 0)
(0 0 0)
(0 0 0)
(0 0 0)
(0 0 0)
(0 0 0)
(0 0 0)
(0 0 0)
(0 0 0)
(0 0 0)
(0 0 0)
(0 0 0)
(0 0 0)
(0 0 0)
(0 0 0)
(0 0 0)
(0 0 0)
(0 0 0)
(0 0 0)
(0 0 0)
(0 0 0)
(0 0 0)
(0 0 0)
(0 0 0)
(0 0 0)
(0 0 0)
(0 0 0)
(0 0 0)
(0 0 0)
(0 0 0)
(0 0 0)
(0 0 0)
(0 0 0)
(0 0 0)
(0 0 0)
(0 0 0)
(0 0 0)
(0 0 0)
(0 0 0)
(0 0 0)
(0 0 0)
(0 0 0)
(0 0 0)
(0 0 0)
(0 0 0)
(0 0 0)
(0 0 0)
(0 0 0)
(0 0 0)
(0 0 0)
(0 0 0)
(0 0 0)
(0 0 0)
(0 0 0)
(0 0 0)
(0 0 0)
(0 0 0)
(0 0 0)
(0 0 0)
(0 0 0)
(0 0 0)
(0 0 0)
(0 0 0)
(0 0 0)
(0 0 0)
(0 0 0)
(0 0 0)
(0 0 0)
(0 0 0)
(0 0 0)
(0 0 0)
(0 0 0)
(0 0 0)
(0 0 0)
(0 0 0)
(0 0 0)
(0 0 0)
(0 0 0)
(0 0 0)
(0 0 0)
(0 0 0)
(0 0 0)
(0 0 0)
(0 0 0)
(0 0 0)
(0 0 0)
(0 0 0)
(0 0 0)
(0 0 0)
(0 0 0)
(0 0 0)
(0 0 0)
(0 0 0)
(0 0 0)
(0 0 0)
(0 0 0)
(0 0 0)
(0 0 0)
(0 0 0)
(0 0 0)
(0 0 0)
(0 0 0)
(0 0 0)
(0 0 0)
(0 0 0)
(0 0 0)
(0 0 0)
(0 0 0)
(0 0 0)
(0 0 0)
(0 0 0)
(0 0 0)
(0 0 0)
(0 0 0)
(0 0 0)
(0 0 0)
(0 0 0)
(0 0 0)
(0 0 0)
(0 0 0)
(0 0 0)
(0 0 0)
(0 0 0)
(0 0 0)
(0 0 0)
(0 0 0)
(0 0 0)
(0 0 0)
(0 0 0)
(0 0 0)
(0 0 0)
(0 0 0)
(0 0 0)
(0 0 0)
(0 0 0)
(0 0 0)
(0 0 0)
(0 0 0)
(0 0 0)
(0 0 0)
(0 0 0)
(0 0 0)
(0 0 0)
(0 0 0)
(0 0 0)
(0 0 0)
(0 0 0)
(0 0 0)
(0 0 0)
(0 0 0)
(0 0 0)
(0 0 0)
(0 0 0)
(0 0 0)
(0 0 0)
(0 0 0)
(0 0 0)
(0 0 0)
(0 0 0)
(0 0 0)
(0 0 0)
(0 0 0)
(0 0 0)
(0 0 0)
(0 0 0)
(0 0 0)
(0 0 0)
(0 0 0)
(0 0 0)
(0 0 0)
(0 0 0)
)
;

boundaryField
{
    inlet
    {
        type            zeroGradient;
    }
    outlet
    {
        type            zeroGradient;
    }
    wall
    {
        type            zeroGradient;
    }
    procBoundary3to1
    {
        type            processor;
        value           nonuniform List<vector> 
192
(
(3.52759e-05 0.000953807 -0.000156259)
(0.000594229 0.00084456 -0.000444578)
(0.000833549 0.00224058 -0.000749681)
(0.00131675 0.000592028 0.000196021)
(0.000599594 0.000602148 0.00714992)
(0.0015272 -0.000283643 0.0066357)
(0.00159783 -0.00010228 0.0080439)
(0.000182905 0.0015944 0.00722217)
(0.000294625 0.000199052 0.00695606)
(0.000878445 -0.000249284 0.00647399)
(0.000331235 -0.00017725 0.00646121)
(0.000305126 0.000954276 0.00679779)
(0.000301123 4.46014e-05 0.00620387)
(0.000529997 0.000390337 0.00634058)
(0.000334494 0.000324492 0.00637109)
(7.04463e-05 0.000497494 0.00688941)
(-3.79325e-05 -8.37435e-05 0.00615561)
(0.000164161 7.83384e-05 0.00633134)
(0.000293032 9.50664e-05 0.0064462)
(0.000187058 0.000489888 0.00647553)
(-8.42367e-05 4.11878e-05 0.00610602)
(-8.80982e-05 -3.92861e-05 0.00617361)
(-7.19446e-05 -1.06963e-05 0.00628076)
(-8.22878e-05 -4.49799e-05 0.00639246)
(-0.00010733 -0.000233087 0.00613769)
(-0.000124789 -0.000121011 0.00625424)
(-5.52192e-05 -0.000159669 0.00613345)
(-0.000164129 1.34768e-05 0.00638502)
(0 0 0)
(-0.000287113 -0.000178397 0.00621848)
(0.000135318 -0.000181805 0.00612728)
(0 0 0)
(0 0 0)
(0 0 0)
(0 0 0)
(0 0 0)
(0 0 0)
(0 0 0)
(0 0 0)
(0 0 0)
(0 0 0)
(0 0 0)
(0 0 0)
(0 0 0)
(0 0 0)
(0 0 0)
(0 0 0)
(0 0 0)
(0 0 0)
(0 0 0)
(0 0 0)
(0 0 0)
(0 0 0)
(0 0 0)
(0 0 0)
(0 0 0)
(0 0 0)
(0 0 0)
(0 0 0)
(0 0 0)
(0 0 0)
(0 0 0)
(0 0 0)
(0 0 0)
(0 0 0)
(0 0 0)
(0 0 0)
(0 0 0)
(0 0 0)
(0 0 0)
(0 0 0)
(0 0 0)
(0 0 0)
(0 0 0)
(0 0 0)
(0 0 0)
(0 0 0)
(0 0 0)
(0 0 0)
(0 0 0)
(0 0 0)
(0 0 0)
(0 0 0)
(0 0 0)
(0 0 0)
(0 0 0)
(0 0 0)
(0 0 0)
(0 0 0)
(0 0 0)
(0 0 0)
(0 0 0)
(0 0 0)
(0 0 0)
(0 0 0)
(0 0 0)
(0.000811007 -0.000388175 -3.95594e-05)
(0.000826265 -0.000453969 5.19553e-05)
(0.000757173 -0.000177741 0.000109435)
(-2.09868e-06 -7.61551e-05 -0.000223774)
(0.000949085 0.000818553 0.00674902)
(-0.000116301 0.000817123 0.00589091)
(-0.000482563 0.000962587 0.00547539)
(0.000542171 0.00144868 0.00548062)
(-6.95922e-05 0.00137215 0.00653777)
(0.000104605 0.000961168 0.00653423)
(-0.000360499 0.000651381 0.00673338)
(-3.51003e-05 0.000590126 0.00433158)
(-0.00125053 0.0011937 0.00684458)
(-0.00112869 0.000428588 0.00574195)
(-0.00116267 0.000338535 0.00575939)
(0.000177839 0.000958017 0.00434664)
(-0.000120225 0.000321481 0.00635959)
(-0.000289798 0.000797341 0.00626484)
(-0.000522585 0.00122769 0.0057629)
(-0.000208878 0.000744383 0.00442096)
(-2.35965e-05 0.000319452 0.00634172)
(-0.000133929 0.00122519 0.00603964)
(0.000212464 0.000929586 0.00509701)
(-0.000119682 0.00031339 0.00376703)
(8.28155e-05 0.000368877 0.00649977)
(0.000690951 0.000349202 0.00552601)
(0.000629503 0.000403058 0.00499396)
(0.00012578 0.000541034 0.0035663)
(0 0 0)
(0 0 0)
(0 0 0)
(0 0 0)
(0 0 0)
(0 0 0)
(0 0 0)
(0 0 0)
(0 0 0)
(0 0 0)
(0 0 0)
(0 0 0)
(0 0 0)
(0 0 0)
(0 0 0)
(0 0 0)
(0 0 0)
(0 0 0)
(0 0 0)
(0 0 0)
(0 0 0)
(0 0 0)
(0 0 0)
(0 0 0)
(0 0 0)
(0 0 0)
(0 0 0)
(0 0 0)
(0 0 0)
(0 0 0)
(0 0 0)
(0 0 0)
(0 0 0)
(0 0 0)
(0 0 0)
(0 0 0)
(0 0 0)
(0 0 0)
(0 0 0)
(0 0 0)
(0 0 0)
(0 0 0)
(0 0 0)
(0 0 0)
(0 0 0)
(0 0 0)
(0 0 0)
(0 0 0)
(0 0 0)
(0 0 0)
(0 0 0)
(0 0 0)
(0 0 0)
(0 0 0)
(0 0 0)
(0 0 0)
(0 0 0)
(0 0 0)
(0 0 0)
(0 0 0)
(0 0 0)
(0 0 0)
(0 0 0)
(0 0 0)
(0 0 0)
(0 0 0)
(0 0 0)
(0 0 0)
)
;
    }
    procBoundary3to2
    {
        type            processor;
        value           nonuniform List<vector> 
192
(
(0.000118037 0.000859168 -0.00028595)
(-0.00051287 0.00171581 0.000102226)
(-0.00121599 0.00164313 -0.000778809)
(0.000944014 0.000801073 -0.000823248)
(-0.000435709 -0.000334166 0.00647819)
(0.000913638 0.000556524 0.00656374)
(-0.000664571 0.00155248 0.00738116)
(0.00148871 0.00229786 0.004351)
(2.88693e-05 0.000336421 0.00692398)
(0.000803014 0.000513877 0.00622151)
(0.000732246 0.000681473 0.00562786)
(0.00124972 0.000356216 0.00523701)
(2.19939e-05 0.000224519 0.0066144)
(-3.7429e-05 0.000196774 0.00708413)
(0.000310713 -0.000138936 0.00601558)
(0.000356725 -0.000432571 0.00564657)
(-4.38426e-05 -0.000324192 0.00632057)
(-0.000283608 5.83677e-05 0.00646005)
(-0.000266415 -0.000427027 0.00599104)
(4.7869e-05 -0.000819509 0.0060437)
(-0.000188559 -0.00025329 0.0062697)
(-0.000198478 -0.000279502 0.00625589)
(-0.000514407 -0.000382963 0.00618513)
(-0.000687099 -0.000447344 0.00603533)
(-0.000202179 -0.000278181 0.00628699)
(-0.000429038 -0.000206374 0.0062077)
(-0.000206169 8.93293e-05 0.00623676)
(-0.000546283 -0.000100006 0.00583721)
(0 0 0)
(0 0 0)
(0 0 0)
(0 0 0)
(0 0 0)
(0 0 0)
(0 0 0)
(0 0 0)
(0 0 0)
(0 0 0)
(0 0 0)
(0 0 0)
(0 0 0)
(0 0 0)
(0 0 0)
(0 0 0)
(0 0 0)
(0 0 0)
(0 0 0)
(0 0 0)
(0 0 0)
(0 0 0)
(0 0 0)
(0 0 0)
(0 0 0)
(0 0 0)
(0 0 0)
(0 0 0)
(0 0 0)
(0 0 0)
(0 0 0)
(0 0 0)
(0 0 0)
(0 0 0)
(0 0 0)
(0 0 0)
(0 0 0)
(0 0 0)
(0 0 0)
(0 0 0)
(0 0 0)
(0 0 0)
(0 0 0)
(0 0 0)
(0 0 0)
(0 0 0)
(0 0 0)
(0 0 0)
(0 0 0)
(0 0 0)
(0 0 0)
(0 0 0)
(0 0 0)
(0 0 0)
(0 0 0)
(0 0 0)
(0 0 0)
(0 0 0)
(0 0 0)
(0 0 0)
(0 0 0)
(0 0 0)
(0 0 0)
(0 0 0)
(0 0 0)
(0 0 0)
(0 0 0)
(0 0 0)
(0.000291741 0.00035585 0.000206555)
(-0.000376104 -0.000151604 -2.45166e-05)
(-0.000456318 -0.000195799 0.000313362)
(0.000246021 0.000886443 -0.00069592)
(0.000880616 0.00228179 0.00574946)
(0.00082271 -0.000207748 0.0063971)
(0.000238732 -0.000539924 0.00666584)
(0.000603471 0.000235277 0.00483437)
(0.000896157 -0.000429489 0.00607217)
(0.000632463 -0.000695715 0.00732172)
(0.00116705 -4.36896e-05 0.0062502)
(0.00140735 -8.33273e-05 0.00615152)
(0.000271341 -0.000476878 0.00569084)
(0.00116777 -0.00016697 0.00674327)
(0.000743143 -0.000170027 0.00574047)
(0.00107194 0.000148616 0.00502728)
(7.63351e-05 -0.000688267 0.00587231)
(0.000462974 -0.00115311 0.00625191)
(0.000289947 -0.000797807 0.00424783)
(-0.000975788 -0.000568435 0.00502422)
(-0.00036792 -0.000589522 0.00595392)
(0.000133125 -0.000475642 0.00564678)
(1.79894e-05 -0.000343639 0.00468608)
(0.000152183 -0.00032319 0.00347403)
(-0.000249636 -0.000121576 0.00563875)
(-0.000509871 -0.000267574 0.00558444)
(0.00433189 -0.00218834 0.00100418)
(0.0002106 -4.36646e-05 0.00262603)
(0 0 0)
(0 0 0)
(0 0 0)
(0 0 0)
(0 0 0)
(0 0 0)
(0 0 0)
(0 0 0)
(0 0 0)
(0 0 0)
(0 0 0)
(0 0 0)
(0 0 0)
(0 0 0)
(0 0 0)
(0 0 0)
(0 0 0)
(0 0 0)
(0 0 0)
(0 0 0)
(0 0 0)
(0 0 0)
(0 0 0)
(0 0 0)
(0 0 0)
(0 0 0)
(0 0 0)
(0 0 0)
(0 0 0)
(0 0 0)
(0 0 0)
(0 0 0)
(0 0 0)
(0 0 0)
(0 0 0)
(0 0 0)
(0 0 0)
(0 0 0)
(0 0 0)
(0 0 0)
(0 0 0)
(0 0 0)
(0 0 0)
(0 0 0)
(0 0 0)
(0 0 0)
(0 0 0)
(0 0 0)
(0 0 0)
(0 0 0)
(0 0 0)
(0 0 0)
(0 0 0)
(0 0 0)
(0 0 0)
(0 0 0)
(0 0 0)
(0 0 0)
(0 0 0)
(0 0 0)
(0 0 0)
(0 0 0)
(0 0 0)
(0 0 0)
(0 0 0)
(0 0 0)
(0 0 0)
(0 0 0)
)
;
    }
}


// ************************************************************************* //
