/*--------------------------------*- C++ -*----------------------------------*\
| =========                 |                                                 |
| \\      /  F ield         | OpenFOAM: The Open Source CFD Toolbox           |
|  \\    /   O peration     | Version:  2506                                  |
|   \\  /    A nd           | Website:  www.openfoam.com                      |
|    \\/     M anipulation  |                                                 |
\*---------------------------------------------------------------------------*/
FoamFile
{
    version     2.0;
    format      ascii;
    arch        "LSB;label=32;scalar=64";
    class       surfaceScalarField;
    location    "0.006";
    object      phi;
}
// * * * * * * * * * * * * * * * * * * * * * * * * * * * * * * * * * * * * * //

dimensions      [0 3 -1 0 0 0 0];

oriented        oriented;

internalField   nonuniform List<scalar> 
1200
(
0.00149715
4.37837e-06
1.56612e-05
0.00150577
2.03781e-06
-1.11627e-05
0.00151179
-4.15482e-06
-1.15003e-05
0.00150372
-1.67916e-06
1.8272e-06
0.00149886
4.49165e-06
1.27046e-05
0.00149778
5.69121e-06
8.25948e-06
0.00151456
-5.5702e-06
-1.10729e-05
0.0015304
-5.27033e-06
-8.50069e-06
0.00153361
-2.3628e-06
1.15169e-06
0.00152277
4.38043e-07
1.20931e-06
0.0015019
3.5285e-06
-2.94525e-06
0.0015001
-8.94184e-07
2.9782e-06
0.00150742
-3.73973e-06
7.44425e-06
0.00151282
-2.97379e-06
-4.81359e-07
0.00151097
5.66063e-06
-1.67009e-05
0.00150812
5.69267e-06
-1.33229e-05
0.00150163
-2.7999e-07
6.58529e-06
0.00149517
-1.04586e-06
7.35453e-06
0.00150081
-2.40885e-06
-6.92371e-07
0.00150659
-1.0594e-06
-3.79633e-06
0.00150174
2.24492e-07
1.78572e-06
0.00150841
-3.36302e-06
-1.57876e-05
0.00151876
-3.90257e-06
-1.53266e-05
0.00152689
-2.30583e-06
-1.22274e-05
0.00151618
2.36973e-06
4.35238e-06
0.00150544
5.13663e-06
6.00835e-06
0.00150391
2.54713e-06
2.42726e-06
0.00149515
3.97191e-06
-6.28025e-07
0.00148277
3.59933e-06
8.07383e-06
0.00148987
-3.6245e-06
1.3287e-05
0.00150811
-4.64465e-06
4.72939e-06
3.8922e-06
8.52866e-06
0.00153935
3.82222e-06
5.53047e-06
0.00154407
5.53679e-06
4.66922e-07
0.00152036
5.60704e-06
1.06963e-06
0.00149828
7.30762e-06
5.26333e-06
0.00150423
6.43348e-07
5.98807e-06
0.00152071
-4.95544e-06
1.61896e-06
0.00154035
-1.11403e-05
-1.39943e-05
0.00155569
-7.57624e-06
-1.03862e-05
0.00155176
-9.57066e-07
4.62645e-06
0.00153628
4.67656e-06
5.91197e-06
0.00151729
6.82529e-06
-6.39075e-07
0.00152481
-5.44949e-06
-3.21176e-06
0.00152456
-5.47312e-06
1.10765e-05
0.00151525
-6.70834e-07
5.89251e-06
0.0015191
7.16693e-06
-1.6258e-05
0.00152728
3.33445e-06
-1.7017e-05
0.00152578
-6.6876e-07
-1.23646e-06
0.0015153
4.0005e-06
4.76483e-06
0.00150557
5.08932e-06
3.51491e-06
0.00151405
-4.40772e-06
-1.627e-06
0.00152192
-4.62841e-06
4.29333e-07
0.00153266
-8.591e-06
-1.48161e-05
0.0015393
-9.51854e-06
-1.26714e-05
0.00154498
-8.21409e-06
-8.19702e-06
0.00153421
4.06448e-06
6.10424e-06
0.00153604
2.1709e-06
6.13184e-07
0.00153692
4.68879e-06
-1.97911e-06
0.00151564
1.97639e-05
4.14735e-06
0.00149932
1.31195e-05
1.07966e-05
0.00150926
-7.66843e-06
1.23739e-05
0.00152479
-1.4165e-05
9.22178e-06
-1.36951e-06
4.26916e-06
0.00154028
-8.57427e-08
1.64942e-06
0.0015431
4.57212e-06
2.56549e-06
0.00152295
1.93702e-05
6.6986e-06
0.0015029
1.95279e-05
1.21208e-05
0.00150514
4.82176e-06
4.77022e-06
0.00151995
-1.26585e-05
1.2274e-06
0.00154012
-1.60118e-05
-1.47462e-05
0.00156323
-1.49353e-05
-1.67994e-05
0.00156701
-7.80987e-06
6.02619e-06
0.00156175
4.57248e-06
6.33697e-06
0.00154848
1.0674e-05
2.61133e-07
0.00152638
4.34542e-06
2.70494e-06
0.00152902
-7.91504e-06
8.45596e-07
0.00153611
-3.68293e-06
-2.14616e-06
0.00154346
4.89833e-06
-1.10656e-05
0.00154302
1.347e-06
-3.33172e-06
0.00153774
2.15858e-06
-1.88179e-06
0.00153666
5.81863e-06
-6.18011e-06
0.0015308
6.83991e-06
-2.63041e-06
0.00152972
-4.49459e-06
9.07315e-07
0.00152257
-2.44349e-06
-9.47815e-07
0.00152433
-9.10376e-06
-1.42826e-05
0.00155165
-2.10353e-05
-1.64298e-05
0.00155257
-1.29678e-05
-7.39893e-06
0.00152769
1.22235e-05
1.0677e-06
0.00152684
4.5864e-06
1.94908e-06
0.00153901
1.36446e-06
-1.13655e-06
0.00155764
1.15156e-05
-1.87157e-06
0.0015571
1.48568e-05
1.04968e-05
0.00153675
1.9627e-06
2.18378e-05
0.00152936
-8.61524e-06
1.19062e-05
-4.18763e-06
1.02201e-06
0.00152351
6.31387e-07
8.66895e-06
0.00152473
1.10494e-06
2.87592e-06
0.00153454
8.43272e-06
3.68484e-06
0.00153494
1.90985e-05
5.88298e-06
0.00152494
1.12528e-05
7.68848e-06
0.00153885
-2.04362e-05
-1.17602e-06
0.00154856
-1.31606e-05
-6.67826e-06
0.00155511
-1.31001e-05
-5.41021e-06
0.00156206
-1.1571e-05
3.23794e-06
0.00156786
-5.16827e-06
5.04287e-06
0.00155954
6.55597e-06
6.36407e-06
0.00154986
6.97311e-06
1.95469e-06
0.00154251
-1.21329e-06
-5.91393e-06
0.00153696
-1.37424e-06
-2.06618e-06
0.00154071
-7.31254e-07
-7.56972e-07
0.00155018
-1.06018e-06
-7.59313e-06
0.00155271
6.35326e-06
-7.3837e-06
0.00156745
-1.75106e-07
-6.16971e-06
0.00157594
-4.27753e-07
-2.24744e-06
0.00155013
5.29321e-06
3.4647e-06
0.00154072
-1.79111e-06
-1.94745e-06
0.00154506
-7.72838e-06
-9.98761e-06
0.00153771
-6.67865e-06
-4.84575e-06
0.0015281
-4.55395e-06
-7.42992e-06
0.00153421
5.82271e-06
-4.99721e-06
0.00154103
-8.94063e-07
7.39168e-06
0.0015371
5.14196e-07
8.1107e-06
0.00154425
7.20577e-06
-1.97533e-06
0.00155074
1.23289e-05
3.78612e-06
0.00153971
9.19137e-06
1.33917e-05
0.00152954
1.82715e-06
3.2562e-06
-4.56964e-07
5.96146e-07
0.00155513
1.93385e-05
4.9223e-06
0.0015086
3.25058e-05
4.49305e-06
0.00150161
1.61833e-05
4.43855e-08
0.00153052
4.03131e-06
2.47644e-07
0.00156082
-7.20949e-06
-5.5386e-06
0.00156727
-1.66599e-05
-8.38612e-06
0.00157225
-1.28948e-05
2.0615e-06
0.00156785
-1.01663e-05
7.22427e-06
0.00154465
-2.41286e-07
7.50062e-06
0.00152827
1.91989e-06
4.47418e-07
0.00154975
-5.67735e-06
-9.30003e-06
0.00156247
-1.29956e-06
-3.37282e-06
0.00155008
7.03509e-06
-1.14269e-06
0.00153553
7.12623e-06
-1.17479e-06
0.00153505
-1.9672e-06
-3.82473e-06
0.00154214
-3.93076e-06
-1.78117e-06
0.00155781
-3.49423e-06
1.10273e-06
0.0015532
7.05363e-07
-2.012e-06
0.00153512
6.617e-06
-2.75525e-06
0.00154745
-5.61443e-06
-3.4242e-06
0.00155635
-8.5647e-06
-6.2976e-06
0.00154184
-2.87905e-06
3.70915e-06
0.00153024
2.85136e-06
3.12156e-06
0.00152684
5.06859e-06
-4.90739e-06
0.00153385
1.73416e-06
-3.6986e-06
0.00152503
1.89595e-06
8.54881e-06
0.00152044
2.33094e-06
5.96179e-06
0.0015425
-9.01252e-06
-5.57291e-06
0.0015509
5.09058e-06
4.00475e-06
0.00155253
6.497e-06
1.02601e-05
0.00157433
-1.15346e-05
3.20753e-06
-5.20004e-06
2.26574e-06
0.00155495
5.92995e-06
-1.4083e-06
0.0015427
3.68852e-05
9.11034e-06
0.00152788
2.816e-05
1.45428e-05
0.0015539
-1.29214e-05
-6.24459e-06
0.00157798
-1.86619e-05
-1.99219e-05
0.00158015
-1.0779e-05
-9.92032e-06
0.00156737
-7.44209e-06
1.88081e-05
0.00155128
-6.97318e-06
2.17101e-05
0.00153193
2.88797e-06
1.42551e-05
0.00152298
7.1573e-06
-2.38685e-06
0.00152951
-1.93424e-06
-1.14364e-05
0.00152971
-1.92642e-06
-1.81078e-06
0.00153184
3.06562e-07
3.32675e-06
0.00153163
1.9364e-06
3.07178e-08
0.00152497
8.5406e-07
-6.26441e-06
0.00152402
1.01164e-06
-3.94528e-06
0.00152252
-2.65916e-06
2.87571e-06
0.00152609
-3.62117e-06
-3.50812e-06
0.00154101
-3.41405e-07
-1.08386e-05
0.00154791
-4.36243e-06
-1.76978e-06
0.00154458
-4.90153e-06
-8.35227e-08
0.00153045
-2.08743e-06
6.46526e-06
0.00151588
5.69933e-06
1.05319e-05
0.00152639
5.22489e-07
-2.68198e-06
0.00154918
-5.68809e-06
-1.6475e-05
0.00154652
4.39034e-06
1.52257e-07
0.00154871
-1.53159e-06
3.05893e-06
0.00154444
-4.66852e-06
4.22316e-07
0.00153585
1.1372e-05
1.93476e-06
0.00152829
1.11939e-05
-2.14483e-06
0.00152525
-9.60264e-06
-3.64847e-06
-2.04366e-05
-3.32058e-06
0.00152562
8.21009e-07
-4.3074e-06
0.00155726
9.28554e-06
4.47965e-08
0.00159214
9.23438e-06
-3.23297e-07
0.00158796
-3.61015e-06
-6.18253e-06
0.0015775
-1.13871e-06
-6.62977e-06
0.001571
2.24141e-06
5.53567e-06
0.00155198
-1.88592e-06
2.48338e-05
0.00153514
-3.40079e-06
2.07972e-05
0.00151906
4.55263e-06
1.22885e-05
0.00152857
4.36762e-06
-1.01707e-05
0.0015412
-2.26609e-06
-1.38213e-05
0.00154253
-2.97016e-06
-2.29737e-07
0.00153661
6.83642e-08
6.57438e-06
0.00153305
5.3717e-07
3.19699e-06
0.00153625
-1.97175e-06
-6.14323e-06
0.00154147
-2.34993e-06
-3.32785e-06
0.00153536
-6.1899e-07
2.50777e-06
0.00152775
-8.97963e-07
1.83539e-06
0.00153562
-4.10701e-06
-5.29798e-06
0.00154167
-2.83266e-06
-5.30365e-07
0.00153502
1.68589e-06
1.9582e-06
0.00152813
-2.77454e-06
3.74947e-06
0.00153572
-5.56628e-07
-3.68033e-06
0.0015346
6.81723e-06
-4.10278e-06
0.00152592
5.07215e-06
-1.21817e-06
0.00152302
4.87994e-06
3.55005e-06
0.00151882
-1.88942e-06
8.46478e-06
0.00152765
-1.3934e-05
-1.06053e-06
0.00155086
-1.008e-05
-8.73624e-06
0.0015477
2.01091e-05
-1.11593e-05
0.0015348
1.42092e-06
-3.82104e-06
-1.52206e-05
-3.20435e-06
0.00149443
-7.68703e-06
0.00150758
-1.31733e-05
0.00151381
5.95579e-07
0.00150567
8.47786e-06
0.00152291
2.2828e-06
0.00154314
4.00699e-06
0.00152898
2.1345e-05
0.00150835
1.93159e-05
0.00150502
3.96403e-06
0.00151868
-1.32426e-05
0.00152315
-9.06892e-06
0.00151729
3.48933e-06
0.00151224
4.95988e-06
0.00150902
4.423e-06
0.00151222
-7.92083e-06
0.00151645
-9.71987e-06
0.00150975
1.87815e-06
0.00150275
2.15759e-06
0.00150013
-1.15989e-05
0.00150715
-3.47731e-06
0.00151256
3.41938e-06
0.00150911
5.82867e-06
0.00150572
-8.65386e-07
0.00151548
-4.24537e-06
0.0015199
6.75971e-07
0.00152572
-1.37006e-06
0.00152139
8.47196e-06
0.00149623
1.2994e-05
0.00148545
-3.98819e-06
0.00151893
-1.72306e-05
0.00151387
-3.25221e-06
3.44145e-06
0.00153513
2.70961e-06
0.00153067
4.83282e-07
0.00150424
7.19431e-06
0.00147425
1.09634e-05
0.00147231
5.93502e-06
0.00149308
4.25462e-06
0.00151747
-7.4682e-06
0.0015347
-7.03235e-06
0.00153357
-2.62327e-07
0.00151958
5.68313e-06
0.00150616
3.72344e-06
0.00152267
-7.03286e-06
0.00154479
-4.05188e-06
0.00155611
-3.86634e-06
0.00152936
2.66659e-06
0.00150278
5.09566e-06
0.00151241
-5.23859e-07
0.00152727
-4.04371e-06
0.00152926
-4.83173e-06
0.00152304
-6.65499e-07
0.00151125
3.12172e-06
0.0015077
1.19082e-06
0.00152487
-1.91828e-06
0.00153206
-1.33455e-06
0.00152426
4.53091e-06
0.00152736
3.62744e-07
0.00152669
9.75397e-07
0.00150622
3.4866e-06
0.00150059
-2.77678e-07
0.00151264
-4.57847e-06
0.00151382
-4.22635e-06
1.22363e-06
0.0015418
2.8e-06
0.00154612
2.48527e-06
0.00151856
1.88657e-05
0.00149415
1.78239e-05
0.00148735
6.60906e-06
0.00150691
2.3669e-06
0.00152871
-1.42917e-05
0.0015501
-2.02007e-05
0.00155701
-3.8813e-06
0.00156339
-1.21243e-06
0.00155671
3.96571e-06
0.00154332
1.9306e-06
0.00157055
-1.18564e-05
0.00158741
-1.24304e-05
0.00155573
8.80385e-06
0.00152389
1.4332e-05
0.00153089
-1.74815e-06
0.00153955
-5.17512e-06
0.00153853
-8.49583e-07
0.00153665
1.57605e-06
0.00153422
2.50311e-06
0.00151865
2.3177e-06
0.00152176
-4.51802e-06
0.00153352
-5.73304e-06
0.00153572
2.67478e-06
0.00153459
3.07026e-06
0.0015295
5.42422e-06
0.00151431
1.11204e-05
0.00151333
3.02767e-06
0.00152369
-6.69658e-06
0.00152891
-6.30735e-06
1.39345e-07
0.00152567
4.35097e-06
0.00151468
6.11033e-06
0.00150966
1.36807e-05
0.00151723
1.40107e-05
0.00151188
9.22986e-06
0.00154059
-8.37545e-06
0.00154683
-1.50587e-05
0.00153685
-1.37556e-05
0.00155086
-1.0727e-05
0.00155282
2.75401e-06
0.00154889
9.11907e-06
0.00155707
-3.23147e-06
0.00156283
-1.54753e-05
0.00155219
-4.66726e-06
0.00153683
1.22357e-05
0.00155761
2.56439e-06
0.00155512
-5.23263e-08
0.00152795
7.05434e-06
0.00151482
5.20918e-06
0.00152115
-3.06051e-06
0.00152036
7.20048e-07
0.00151136
3.12482e-06
0.00150872
-5.67829e-06
0.00150988
-6.08665e-06
0.00151633
-1.00692e-06
0.00151609
3.16868e-06
0.00151748
4.05941e-06
0.00150985
1.42589e-05
0.00151156
4.65879e-06
0.00152374
-6.78007e-06
0.00152508
-6.67932e-06
-7.96434e-07
0.00154059
-4.08698e-07
0.0015349
1.09051e-05
0.00153096
1.74567e-05
0.00152776
1.54779e-05
0.00154357
-4.84352e-06
0.00155835
-2.40657e-05
0.0015435
-6.99988e-06
0.00153344
2.65806e-06
0.00153252
1.90357e-06
0.00153817
-1.56756e-06
0.00155588
-5.40114e-06
0.00155225
8.19764e-07
0.00152952
-1.38603e-06
0.00153048
-8.94683e-06
0.0015508
-5.49955e-06
0.00155311
1.9055e-07
0.00154013
7.07302e-06
0.0015349
5.80724e-06
0.00153611
4.89452e-06
0.00154541
-3.61306e-06
0.00154679
-7.3065e-07
0.00154442
-3.31126e-07
0.00153583
1.21669e-06
0.00152563
-2.50238e-06
0.00152353
-3.98392e-06
0.0015339
-1.82537e-06
0.0015501
-3.46192e-06
0.00156043
4.46945e-06
0.00154348
1.64251e-05
0.0015325
2.43819e-06
0.00152901
-5.12606e-06
-1.34794e-06
0.0015593
8.57443e-06
0.00154018
2.61748e-05
0.00152784
2.3423e-05
0.00154165
3.06315e-06
0.00156888
-3.44463e-05
0.00156384
-2.77637e-05
0.00154688
5.11124e-06
0.00154715
1.29858e-05
0.00156593
9.93259e-07
0.00156349
-2.95098e-06
0.00155408
-1.10449e-05
0.00156341
-6.98401e-06
0.00155403
3.15248e-06
0.00152667
3.77856e-06
0.00151969
-2.708e-06
0.00152952
-5.01696e-06
0.00153935
1.08839e-07
0.00153922
2.03349e-06
0.00153218
7.51742e-06
0.00152757
1.22371e-06
0.00153211
-2.60405e-06
0.00153436
8.08633e-07
0.00153435
3.13223e-06
0.0015335
-3.52945e-06
0.00152561
8.82269e-07
0.00152786
2.35376e-06
0.00153314
1.647e-07
0.00154798
-5.32172e-06
0.00155467
8.24021e-06
0.00153945
9.71019e-06
0.00154438
-1.033e-05
-5.66337e-06
0.00153567
7.05824e-06
0.0015599
1.38734e-05
0.00159295
7.03587e-06
0.00159573
-3.47374e-06
0.00154516
-5.79396e-06
0.00150228
-1.94587e-06
0.0015111
6.19235e-06
0.00154096
-7.28824e-08
0.00155885
-3.00169e-06
0.00154875
-2.55554e-06
0.00152445
-1.80795e-06
0.00151637
4.43345e-09
0.00151309
3.84606e-06
0.00150764
8.63463e-06
0.00150928
1.05318e-06
0.00151354
-7.66506e-06
0.00151699
-2.34754e-06
0.0015168
1.57167e-06
0.00152012
1.56047e-06
0.00153221
-6.62491e-06
0.00153343
-1.48425e-06
0.0015362
1.37434e-06
0.00154968
-3.0776e-06
0.00155547
-6.34914e-06
0.00154579
1.71253e-06
0.00153688
7.61904e-06
0.00153212
1.37656e-07
0.00153108
-4.38968e-06
0.00153361
8.18518e-06
0.00153198
1.10951e-05
0.00152904
-1.084e-05
-1.07566e-05
0.00153533
-5.2634e-07
0.00156321
-1.27486e-06
0.00158481
-7.73847e-07
0.00155898
1.01189e-05
0.00153297
6.6248e-06
0.00153129
3.88613e-06
0.00155061
4.22371e-06
0.00156369
2.3328e-08
0.00156926
-7.07602e-07
0.0015518
-1.03045e-06
0.00153058
1.68553e-06
0.0015262
2.09899e-06
0.00153148
2.97921e-07
0.00152374
7.33174e-06
0.00151817
5.07098e-06
0.00151952
-5.61911e-06
0.00151946
-3.80328e-06
0.00152281
-2.75014e-06
0.001537
-8.65065e-06
0.00153313
-2.87647e-06
0.00152536
3.90876e-06
0.0015209
4.50225e-06
0.0015255
-5.30113e-06
0.00153013
-2.21365e-06
0.00152872
3.02593e-06
0.00153468
7.2057e-06
0.00152099
7.09749e-06
0.00151556
-1.12433e-05
0.00154311
-1.30709e-05
0.00155821
8.93138e-06
0.00154286
-1.22437e-07
-6.97406e-06
0.00149977
0.00149229
0.00149329
0.00150665
0.0015137
0.00152329
0.0015392
0.00155178
0.00155503
0.00153729
0.00152357
0.0015233
0.00152301
0.00153853
0.00153939
0.00152271
0.00151798
0.00151801
0.00151063
0.00150864
0.0015194
0.00153035
0.00151954
0.00151184
0.00151687
0.00152769
0.0015323
0.00151425
0.00150234
0.00151854
0.00151749
)
;

boundaryField
{
    wall
    {
        type            calculated;
        value           uniform 0;
    }
    outlet
    {
        type            cyclic;
        value           nonuniform List<scalar> 
16
(
0.00150636
0.00153243
0.0015337
0.00152774
0.00158076
0.00154349
0.00152175
0.00148684
0.00151811
0.00153026
0.00152725
0.00153268
0.00156007
0.00153387
0.00152885
0.0015069
)
;
    }
    inlet
    {
        type            cyclic;
        value           nonuniform List<scalar> 
16
(
-0.00150636
-0.00153243
-0.0015337
-0.00152774
-0.00158076
-0.00154349
-0.00152175
-0.00148684
-0.00151811
-0.00153026
-0.00152725
-0.00153268
-0.00156007
-0.00153387
-0.00152885
-0.0015069
)
;
    }
    procBoundary1to0
    {
        type            processor;
        value           nonuniform List<scalar> 
256
(
-1.08284e-05
5.03645e-07
9.634e-06
7.9184e-06
-1.2327e-05
-1.28753e-05
-1.40277e-07
-2.06335e-06
-1.9995e-06
9.19417e-06
2.02791e-05
-2.78745e-07
-1.10297e-05
-1.93984e-06
1.28948e-05
1.04771e-05
1.86492e-07
1.45044e-07
-2.53994e-06
-9.18071e-07
2.83767e-06
1.24763e-05
8.88804e-06
6.39373e-06
3.99162e-06
-3.99914e-07
-3.45296e-06
5.41663e-06
7.0858e-07
-1.67641e-05
-1.83195e-05
-1.06725e-05
-1.18942e-05
-8.68534e-06
1.28761e-05
7.82967e-06
-8.09103e-06
-7.45494e-06
-7.36412e-08
-2.64303e-06
-2.10017e-06
5.32616e-06
1.63334e-05
2.474e-07
-9.09525e-06
1.11128e-06
1.09049e-05
1.11992e-05
3.12074e-06
6.65516e-07
-1.2776e-06
-3.50663e-06
-3.45071e-06
9.31149e-06
1.16469e-05
8.42564e-06
2.96608e-06
5.25352e-07
-1.03919e-06
1.33995e-06
-4.00575e-06
-1.82693e-05
-1.52266e-05
-6.64596e-06
-4.31732e-06
-4.41906e-06
-3.13325e-07
-4.28992e-06
-1.11883e-05
-8.33864e-06
-5.50481e-07
1.04965e-06
-2.95265e-06
-9.76525e-07
9.16562e-06
9.59876e-06
-1.04706e-06
-1.93229e-06
5.98771e-06
5.75484e-06
4.33878e-06
5.43928e-06
6.73694e-06
2.67488e-07
5.90891e-06
1.30391e-05
6.24319e-07
1.12331e-05
1.56473e-05
-3.51054e-06
-7.70666e-06
-8.5168e-06
-1.16938e-05
-1.11134e-05
-1.00713e-05
-2.544e-06
-5.14985e-06
-6.37848e-07
-2.55358e-06
-5.85263e-06
-4.12233e-06
-4.95125e-06
-5.88537e-06
-2.97785e-06
-6.42568e-06
-1.10004e-06
6.07585e-06
5.09267e-06
6.56764e-06
5.30162e-06
2.63934e-06
5.27337e-07
6.60295e-07
-2.57179e-06
1.02662e-06
1.25549e-05
1.0703e-05
4.27515e-06
-2.15984e-06
8.62366e-06
5.2844e-06
-8.72867e-06
-3.33379e-06
-8.58696e-07
-7.7527e-06
-9.58469e-06
-3.53468e-06
-2.52639e-06
1.99491e-06
1.06381e-05
-8.08873e-07
-1.40911e-05
-6.29177e-06
-1.84686e-06
-7.29976e-06
-5.76181e-06
4.37228e-06
8.8398e-06
5.46112e-08
-1.07454e-06
5.28041e-06
7.23083e-06
5.53534e-06
-2.43341e-06
-6.92972e-06
5.74925e-06
1.37858e-05
2.00441e-06
4.16827e-06
5.95315e-06
-1.05614e-06
-1.30893e-06
7.74164e-07
-2.51649e-06
-3.18699e-06
-2.77182e-07
-5.15964e-06
-9.20089e-06
-1.16389e-05
-3.95295e-06
3.36121e-06
-1.23902e-06
-1.17032e-05
-2.82077e-06
7.29073e-06
1.87409e-06
-1.148e-05
-8.82162e-06
1.97127e-06
6.09775e-06
1.16448e-06
2.23628e-06
1.27457e-06
5.36596e-06
1.01041e-05
-4.32059e-08
-2.21909e-06
4.26515e-06
2.87608e-06
-6.37462e-06
-2.5313e-07
6.86891e-06
1.19487e-06
-3.28352e-06
1.11345e-06
6.00165e-09
-1.38863e-06
-4.88656e-07
3.72877e-07
5.00921e-06
4.74858e-06
3.21007e-07
5.54634e-06
-4.08918e-06
-1.56327e-05
1.0524e-06
-4.30105e-07
-1.20562e-05
-1.13725e-05
-7.52385e-06
2.12597e-06
3.45077e-06
1.51715e-06
-5.50049e-08
-4.10701e-07
1.76229e-06
5.76847e-06
1.46021e-06
1.56879e-06
3.05371e-06
1.19187e-06
-7.05638e-06
-1.88824e-06
3.82804e-06
2.34615e-06
-1.07826e-06
-8.59886e-07
-1.13626e-06
-3.91312e-06
1.5015e-06
6.97867e-06
5.39749e-06
5.70334e-06
1.10394e-05
9.19077e-07
9.30396e-06
2.41171e-06
-3.95001e-06
-2.06562e-05
-2.20042e-05
-9.06618e-06
-2.08225e-06
3.91413e-06
3.9514e-06
2.33312e-06
-5.97588e-07
1.5343e-07
-6.6692e-07
2.74782e-06
3.13976e-06
4.20889e-06
3.94483e-06
1.01058e-05
-6.3672e-06
-7.14579e-06
-5.15402e-06
3.69778e-06
1.30341e-06
-2.29645e-08
4.29054e-07
-6.03658e-06
-1.76238e-06
4.68547e-06
3.85661e-06
9.73289e-06
8.37424e-06
)
;
    }
    procBoundary1to2
    {
        type            processor;
        value           nonuniform List<scalar> 
256
(
-4.06656e-06
-7.18129e-06
7.72996e-06
2.08593e-05
8.70825e-06
-1.67644e-05
-2.79974e-05
-1.86936e-05
2.53753e-06
9.51628e-06
6.75277e-06
-6.49587e-06
-1.06289e-05
-7.93588e-06
7.38445e-06
8.16758e-06
-2.5267e-06
-3.46221e-06
2.15153e-06
3.08638e-06
1.0453e-05
-1.3422e-05
-3.05755e-05
-1.80924e-05
7.62177e-06
2.54874e-06
2.12671e-06
1.63491e-05
1.39804e-05
5.81946e-06
7.77463e-06
3.011e-06
-6.09375e-06
-5.85934e-06
1.69592e-05
2.28074e-05
1.21222e-05
-1.60591e-05
-2.89653e-05
-1.86132e-05
1.33834e-06
6.42979e-06
5.79128e-06
1.21729e-06
-8.34951e-06
-2.40355e-06
9.28788e-06
5.58249e-06
-7.01071e-06
-2.76211e-06
5.57224e-07
-1.99077e-06
3.47306e-06
-3.71448e-07
-1.31792e-05
-1.55573e-05
5.76095e-06
-9.67181e-07
-1.33833e-06
1.17017e-05
8.46945e-06
4.1359e-06
6.07919e-06
4.00498e-06
1.67908e-06
9.93313e-06
1.69051e-05
8.36025e-06
7.50098e-06
-1.67467e-05
-2.02137e-05
-1.3269e-05
-1.13126e-06
4.08216e-07
-9.61613e-07
-3.17488e-07
-1.29385e-06
7.32595e-07
8.65762e-07
-1.23487e-05
-1.08838e-06
8.7624e-06
4.44154e-06
-7.84171e-07
1.62203e-06
-6.093e-06
-1.26216e-05
-8.21427e-06
-1.70029e-06
2.09167e-06
-1.15573e-06
2.61384e-06
7.15808e-06
9.74017e-06
1.094e-05
-2.12595e-07
5.51366e-06
3.7737e-06
3.84925e-06
7.61552e-06
5.95029e-06
-2.64699e-07
1.19053e-07
-1.17695e-05
-8.46577e-06
3.70492e-06
3.18022e-06
1.52868e-06
2.73431e-06
1.24502e-06
-3.33629e-06
-7.53313e-06
-1.52798e-06
3.06085e-07
-3.14417e-06
-5.2775e-06
-1.87728e-06
-4.16354e-06
-3.15191e-06
-8.13993e-07
8.36284e-08
2.01746e-06
-5.70283e-07
-2.51954e-06
8.97529e-06
1.51549e-05
5.19176e-06
-2.52505e-06
-3.2995e-06
8.34829e-06
6.41287e-06
-1.14073e-06
-3.16426e-06
3.46367e-07
6.91612e-06
-3.38052e-06
-1.03631e-05
4.2671e-06
5.75003e-06
-4.89205e-06
3.69956e-06
1.34576e-05
3.6359e-07
-6.40445e-06
-1.76171e-06
1.89496e-06
1.65987e-06
-3.65424e-06
-8.9639e-06
3.19309e-07
1.21156e-06
-3.02597e-06
-6.73517e-07
2.12239e-06
-2.9511e-06
-1.06237e-05
5.49971e-06
1.82111e-05
3.47928e-06
-9.10064e-06
-1.6929e-06
-2.81448e-06
-2.11568e-06
-2.49459e-06
1.99502e-06
7.14299e-06
8.91399e-06
4.90011e-06
3.6649e-07
7.31465e-06
3.62737e-06
-7.2155e-07
5.91367e-06
6.29776e-07
-1.16643e-05
-5.56164e-06
1.88685e-06
-2.86477e-06
-8.20171e-06
-6.00522e-06
-2.42059e-06
3.12827e-06
3.25976e-06
-5.65544e-06
-7.62424e-06
3.79552e-06
7.84383e-06
5.37116e-07
-5.46008e-07
-1.89218e-06
-2.06415e-07
-3.05723e-06
-3.20246e-06
-1.26855e-05
-1.41189e-05
6.05407e-06
6.96645e-06
1.38412e-06
7.47842e-06
7.62082e-06
4.42925e-06
5.76119e-06
3.90092e-06
2.06294e-06
4.84105e-06
1.22349e-05
-4.59179e-06
-6.71894e-06
4.02369e-06
2.80382e-06
-9.27282e-06
-4.14883e-07
4.33584e-06
5.08081e-06
-6.0497e-06
-1.28693e-05
-1.12328e-06
-1.99399e-06
1.51924e-05
1.12216e-05
-1.50309e-05
-2.40974e-05
8.17044e-07
7.02283e-06
-1.08317e-06
-6.96447e-06
-1.1848e-06
5.24415e-06
1.85504e-06
-1.69533e-06
9.66163e-06
6.74988e-06
9.04239e-09
3.46557e-06
6.33526e-06
5.86039e-06
5.55129e-06
-3.76366e-06
-3.71656e-06
1.34632e-06
2.80302e-06
-6.19098e-07
-1.2875e-05
-4.36398e-06
-3.4257e-06
-6.23582e-07
4.64749e-06
1.23355e-06
-1.32704e-06
-4.98307e-06
1.0959e-05
1.97994e-05
-5.14415e-06
-2.45008e-05
-2.32034e-06
7.05195e-06
)
;
    }
}


// ************************************************************************* //
