/*--------------------------------*- C++ -*----------------------------------*\
| =========                 |                                                 |
| \\      /  F ield         | OpenFOAM: The Open Source CFD Toolbox           |
|  \\    /   O peration     | Version:  2506                                  |
|   \\  /    A nd           | Website:  www.openfoam.com                      |
|    \\/     M anipulation  |                                                 |
\*---------------------------------------------------------------------------*/
FoamFile
{
    version     2.0;
    format      ascii;
    arch        "LSB;label=32;scalar=64";
    class       volScalarField;
    location    "0.004";
    object      Ksl;
}
// * * * * * * * * * * * * * * * * * * * * * * * * * * * * * * * * * * * * * //

dimensions      [1 -3 -1 0 0 0 0];

internalField   nonuniform List<scalar> 
512
(
0
0
1.42857
0
0
0
0
0
0
0
0
0
0
0
0
0
0
0
0
0
0
0
0
0
0
0
0
0
0
0
0
0
0
0
0
0
0
0
0
0
0
0
0
0
0
2.37479
0
0
0
0
0
0
0
0
0
0
0
0
0
0
0
0
0
0
0
0
0
0
0
0.127159
0
0
0
0
0
0
0
0
0
0
0
2.43772
0
0
0
0
0
0
0
0
0
0
0
0
0
0
0
0
0
0
0
0
0
0
0
0.633567
0
0
0
0
0
0
0
0
0
0
0
0
0
0
0
0.764056
0
0
0
2.99369
0
0
0
0
0
0
2.42645
0
0
0
0
0
0
0
0
0
0
0
0
0.128757
3.01453
0
0
0
1.30518
0
0
0
0
0
0
0
0
0
0
0
0.133314
0
0
0
2.38485
0
0
0
0
0
0
0
0
0
0
0
0
0
0
0
0
0
2.49352
0
0
0
0
0
0
0
0
0
0
0
0
0
0
0
0
0
0
0
0
0
2.82124
0
0
0
0
0
0
0
0
0
0
0
0
0
0
0
0
0
0
0
0
0
0
0
0
0
0
0
0
0
0
0
0
0
0
0
0
0
0
0
0
0
0
0
0
0
1.17722
0
0
0
0.795992
6.3558
1.83709
0.875123
1.37945
10.2135
6.03055
6.52796
5.83501
1.70957
7.28183
5.26695
2.66929
6.55749
3.77749
4.29585
6.98479
12.0863
0.968374
3.55359
4.46225
8.48223
11.4729
0.0988453
6.44302
9.12291
3.6984
1.21624
7.24888
7.54569
0.204848
7.99793
4.11749
7.55126
3.38067
9.68131
5.24107
14.6732
15.2764
3.89709
11.7379
4.4984
0.882777
4.80227
7.3889
5.59353
4.92959
4.77392
10.8508
11.0349
9.80956
14.2914
4.73467
7.57548
10.5614
11.5102
10.8307
7.96855
0.541329
10.098
12.4695
2.45159
8.08699
7.37325
9.8026
22.4406
9.34764
3.28369
7.63779
10.4407
10.7192
5.13107
1.78049
15.723
4.18424
7.97982
5.49296
8.08718
7.59066
10.711
3.76896
5.2697
2.31316
3.65875
5.64967
9.19869
7.24748
7.25622
5.45538
10.8228
14.3414
10.9601
0.0557506
0.0766073
22.4153
0.133587
1.68928
3.90739
5.48546
6.64323
7.9778
12.6571
6.85408
9.24901
7.48721
6.38838
0.28138
14.7514
4.04386
0.601312
6.72365
11.7203
4.01347
8.80993
7.90805
17.4218
5.62281
13.9379
6.1021
0.657781
6.32317
11.4784
5.6558
11.0036
6.5908
8.70144
9.43682
3.79704
3.73858
10.8577
8.25254
7.73873
5.11007
8.79988
12.4072
11.4676
11.0905
8.65307
21.7657
9.56869
3.83835
7.36621
9.10363
8.25488
2.52991
8.54022
8.24149
11.722
10.5516
11.7564
12.9315
7.73738
10.9052
6.25006
11.1005
9.28227
1.53173
8.10048
1.12807
14.019
9.12619
4.97041
9.75703
3.98489
7.57946
10.0945
10.6237
7.06307
6.19251
8.30828
2.08168
0.318104
11.5334
11.2355
8.69043
16.8928
7.72088
0.50679
7.81242
12.8223
0.484061
0
2.29331
3.96042
5.22589
0.95369
0
3.871
11.7083
1.02095
10.5267
15.7678
4.24853
7.84985
13.8266
11.6289
7.90521
5.14113
7.57135
7.83243
5.51765
11.4128
8.03088
4.19418
1.432
7.29446
13.1802
9.89765
11.8754
11.7087
3.59708
4.7078
0.228983
8.79105
15.3926
10.1755
5.60547
19.054
8.25226
1.80802
0
8.53198
3.00249
6.23472
0.0974651
0.680838
5.88549
7.87805
3.08329
4.12501
6.95777
1.60359
2.40961
13.0861
0.305974
2.81888
6.24162
3.24186
4.81553
3.23234
3.12384
2.9108
0.239298
7.55863
8.65017
3.44789
6.31202
7.97994
6.37872
5.21148
4.28129
12.5877
4.99797
5.1007
15.4547
0.328158
)
;

boundaryField
{
    wall
    {
        type            zeroGradient;
    }
    outlet
    {
        type            cyclic;
    }
    inlet
    {
        type            cyclic;
    }
    procBoundary3to2
    {
        type            processor;
        value           uniform 0;
    }
}


// ************************************************************************* //
