/*--------------------------------*- C++ -*----------------------------------*\
| =========                 |                                                 |
| \\      /  F ield         | OpenFOAM: The Open Source CFD Toolbox           |
|  \\    /   O peration     | Version:  2506                                  |
|   \\  /    A nd           | Website:  www.openfoam.com                      |
|    \\/     M anipulation  |                                                 |
\*---------------------------------------------------------------------------*/
FoamFile
{
    version     2.0;
    format      ascii;
    arch        "LSB;label=32;scalar=64";
    class       volScalarField;
    location    "0.004";
    object      p;
}
// * * * * * * * * * * * * * * * * * * * * * * * * * * * * * * * * * * * * * //

dimensions      [0 2 -2 0 0 0 0];

internalField   nonuniform List<scalar> 
512
(
12.6057
20.4355
28.0347
40.1948
51.2911
56.8644
55.7262
44.1757
25.7053
15.8929
10.1897
2.24787
-6.6039
-10.9612
-11.535
-14.6586
-19.6963
-23.1423
-24.4981
-25.1121
-26.7985
-28.823
-23.6678
-17.9631
-12.739
-5.44544
-1.87475
-4.11351
-9.90287
-7.06745
0.231544
5.51879
12.3384
21.0994
30.3519
41.7904
51.2952
54.5681
50.0997
37.338
25.0415
17.99
11.6608
3.15444
-5.09695
-10.9897
-12.0453
-15.7572
-21.1726
-23.5122
-22.1131
-25.8139
-31.2263
-27.5836
-19.9128
-14.7644
-10.5657
-5.46555
-2.04267
-3.96938
-8.72176
-6.56215
-1.12289
4.17546
11.5173
20.9827
31.3204
40.7422
47.622
51.1951
47.6936
34.5888
23.9604
16.7226
10.7189
4.21742
-2.31364
-8.77035
-12.5621
-16.7574
-21.7063
-24.6357
-25.4393
-27.7273
-29.3816
-24.7421
-17.7775
-11.6129
-5.595
-1.44336
-1.5201
-5.2139
-8.85843
-6.18623
-0.000330952
3.98618
12.8725
19.736
27.8171
36.3607
43.7903
47.5086
44.033
34.6793
24.4626
15.2855
7.87906
3.49818
0.0496447
-4.08802
-10.743
-18.4941
-22.8815
-25.8899
-27.4227
-27.7849
-26.3162
-21.7708
-16.295
-9.50275
-4.00618
-1.49442
-1.54924
-4.15259
-5.87603
-3.34295
0.172615
5.98578
12.5663
17.794
25.4578
33.9851
40.3893
43.0185
42.0811
36.1926
25.6459
15.6468
8.8479
4.02287
1.11846
-2.55408
-10.64
-17.5808
-21.2172
-26.0221
-29.5065
-27.2895
-23.5943
-18.8362
-15.1129
-11.0596
-8.00636
-5.37532
-2.21042
-1.29144
0.218795
1.02454
2.24842
7.51352
13.5814
18.5704
26.287
33.1641
36.9805
39.0651
39.6468
35.0239
26.6704
19.8628
13.6724
7.74381
2.27263
-5.41507
-13.8733
-18.9616
-22.5477
-26.109
-26.7807
-24.1483
-21.6968
-18.2226
-17.4436
-19.16
-14.1308
-7.97561
-1.66108
1.96388
3.19916
2.82528
4.87261
8.91864
15.8888
20.5409
27.6681
31.609
32.1746
33.8958
35.4234
33.1466
28.6554
24.422
19.8897
14.4344
6.57839
-5.48788
-16.7319
-24.2684
-26.9644
-25.594
-22.0891
-19.5723
-19.6998
-21.321
-23.0924
-22.935
-16.9247
-7.9138
-2.30976
0.82445
2.64729
3.87594
8.44743
13.5602
19.1133
23.9267
28.5309
28.6724
28.374
29.8314
30.5387
31.1795
30.6186
28.8529
23.6319
17.1392
10.8073
1.16926
-16.6349
-30.7636
-31.7622
-26.8432
-20.2224
-18.6926
-22.4591
-25.0551
-25.7659
-22.9938
-16.4181
-6.65219
-1.06174
-0.225281
-0.0198757
4.13953
11.7284
16.6983
12.6241
24.3142
33.0326
40.4983
46.2832
48.9076
47.2809
38.9331
24.9724
14.6527
9.44093
5.25722
-3.01314
-9.87101
-11.697
-11.0877
-14.5247
-22.979
-27.7087
-28.033
-26.642
-25.1427
-22.135
-17.3065
-8.39238
2.27942
1.73186
-8.79833
-11.6467
-7.85077
-3.08684
2.19613
14.1212
23.1688
30.9626
38.6679
46.0886
50.5392
45.9724
33.3315
22.2471
15.4899
9.98595
4.60107
-1.20861
-7.77041
-11.6923
-13.4043
-16.5827
-22.9336
-26.8902
-27.803
-26.229
-23.1947
-18.2691
-12.5661
-6.77446
-2.58787
-3.64652
-6.20954
-9.51107
-8.6771
-3.04969
4.51831
14.3763
24.6323
29.9219
37.4434
46.0158
48.755
42.3165
30.5351
22.2323
15.8831
9.76077
4.89684
-0.0148934
-6.19806
-11.9647
-16.5505
-21.3515
-24.586
-25.7432
-26.6149
-25.5788
-20.9674
-14.84
-8.93202
-1.62844
-0.68644
-7.10869
-7.75432
-7.19062
-7.03165
-2.21414
3.72013
12.4419
20.4346
27.7392
36.5641
45.4545
45.3735
37.4308
29.7306
24.2885
16.6779
10.2472
5.4806
0.313683
-4.86194
-10.5018
-18.0708
-23.3016
-26.4405
-27.0966
-26.4299
-24.2417
-19.0826
-13.4266
-7.11525
-3.07597
-5.06181
-5.97356
-5.54484
-5.17604
-2.7468
2.7531
6.91077
11.0506
20.1875
29.5411
36.0892
40.5351
41.1245
36.9525
29.2718
22.8836
18.4074
12.0318
7.56818
3.61622
-4.55597
-12.454
-16.5506
-20.1234
-26.4853
-29.0865
-26.3271
-22.4543
-18.8459
-15.563
-12.2461
-8.80598
-5.58302
-1.74347
-0.61184
-1.88457
0.0552077
4.28813
6.69042
12.7827
19.4304
29.985
37.1785
39.5355
37.1872
31.1258
25.1154
22.5569
23.252
18.445
10.1317
1.70379
-5.68978
-13.1706
-17.9823
-19.7958
-22.8257
-26.4718
-24.8982
-21.6885
-20.2327
-20.8067
-18.1572
-12.4779
-4.94948
2.40282
2.94702
-1.94951
-0.866941
5.2654
9.62383
16.753
22.2829
29.0743
34.3056
35.9275
33.3701
27.7432
25.4638
24.632
24.8177
22.8143
16.9626
6.37077
-4.32351
-15.1605
-22.5221
-25.844
-24.2985
-20.7181
-19.8338
-22.3033
-23.2329
-22.2808
-19.425
-13.59
-5.78125
1.23759
1.93785
-1.86388
0.385562
5.37475
11.0875
16.7811
23.1808
30.6317
31.6127
28.9334
27.792
27.925
28.2478
27.3294
26.6684
25.0305
20.8372
12.0741
0.56877
-15.8877
-30.134
-30.6773
-26.2022
-19.626
-17.7254
-22.6622
-26.4637
-23.4093
-17.16
-12.5619
-7.37802
-3.03239
-1.3159
0.297499
1.58914
7.04475
12.4931
)
;

boundaryField
{
    wall
    {
        type            zeroGradient;
    }
    outlet
    {
        type            cyclic;
    }
    inlet
    {
        type            cyclic;
    }
    procBoundary3to2
    {
        type            processor;
        value           nonuniform List<scalar> 
256
(
14.8473
18.1848
26.8862
40.3666
53.5249
61.9304
62.1197
48.8182
29.2872
20.2997
14.3405
4.0681
-6.82431
-11.4639
-13.1142
-19.5324
-25.4376
-26.6587
-27.4117
-27.9136
-29.5705
-29.1239
-21.2813
-17.0076
-14.017
-7.88606
-2.1049
-2.94866
-12.2607
-10.6563
-1.91264
7.93861
10.9831
19.2283
30.2622
43.1553
53.9963
59.8195
58.6079
45.574
28.1906
19.6917
14.5706
4.25925
-6.90726
-12.996
-14.5741
-18.7104
-24.3206
-25.3836
-24.8217
-28.5837
-34.4598
-29.5133
-19.4433
-15.0461
-11.5926
-5.37348
-0.652712
-3.00176
-10.0133
-8.73781
-2.00451
2.64059
10.6761
18.051
30.5427
42.5284
49.4076
55.6051
56.8681
45.0797
26.2432
17.9045
13.1033
2.09317
-7.70327
-11.6019
-14.2601
-19.2227
-23.0745
-25.4538
-26.7008
-28.9485
-32.564
-27.1548
-18.9796
-13.4777
-8.37241
-2.09221
1.18101
-2.69426
-9.68262
-7.82667
-0.841337
4.61138
16.3656
19.9811
25.7231
34.126
42.0665
49.806
53.0151
45.4226
29.8196
13.1349
5.79898
-0.17882
-4.04856
-6.76015
-11.4178
-18.189
-22.0992
-26.8496
-30.626
-29.9473
-27.2509
-23.0049
-16.9417
-10.7857
-5.89562
-0.468081
1.84754
-3.33759
-6.65832
-5.17856
-0.829965
8.90357
15.619
18.8347
23.6722
31.8839
38.9037
43.6104
45.4687
43.8215
33.0121
13.8053
4.74593
0.193566
-2.59636
-3.95997
-8.52638
-17.2024
-24.1788
-29.8478
-31.4615
-28.3923
-23.8626
-18.239
-13.7915
-10.5028
-8.69849
-4.54301
-1.90332
-2.48843
2.23881
2.71839
1.27981
8.3002
13.2241
18.8929
26.8869
32.9538
35.4696
38.1123
40.8273
41.3189
35.5441
21.0674
8.54793
3.7383
0.215679
-5.47288
-12.53
-19.3107
-24.7359
-29.8653
-28.7694
-25.4859
-22.7258
-17.7081
-15.3339
-17.7964
-14.9884
-10.5787
-8.33917
-1.64065
8.36406
10.9515
6.29675
8.04042
17.0557
22.6863
29.4543
32.2786
32.8197
34.8808
37.25
38.8274
35.5994
24.9524
13.7496
8.43456
2.01872
-6.94214
-15.7093
-22.6932
-26.0719
-25.6293
-23.4683
-21.1875
-22.4568
-23.668
-22.2801
-23.7197
-20.1088
-14.3538
-10.0105
-1.31102
8.25844
12.2077
12.2858
13.7351
21.9537
25.9271
31.4371
32.4672
30.8009
32.2328
32.7699
33.1813
32.6674
27.1463
18.0271
11.9544
6.76152
-2.77596
-16.3601
-26.584
-28.1559
-24.0921
-21.0434
-22.7457
-24.9531
-25.7227
-28.8318
-28.0367
-21.8659
-14.9225
-9.74586
-1.95513
7.26121
11.0402
15.8937
19.6226
)
;
    }
}


// ************************************************************************* //
