/*--------------------------------*- C++ -*----------------------------------*\
| =========                 |                                                 |
| \\      /  F ield         | OpenFOAM: The Open Source CFD Toolbox           |
|  \\    /   O peration     | Version:  2506                                  |
|   \\  /    A nd           | Website:  www.openfoam.com                      |
|    \\/     M anipulation  |                                                 |
\*---------------------------------------------------------------------------*/
FoamFile
{
    version     2.0;
    format      ascii;
    arch        "LSB;label=32;scalar=64";
    class       volVectorField;
    location    "0.004";
    object      U_0;
}
// * * * * * * * * * * * * * * * * * * * * * * * * * * * * * * * * * * * * * //

dimensions      [0 1 -1 0 0 0 0];

internalField   nonuniform List<vector> 
512
(
(10.3597 -0.00775726 0.0726424)
(10.6662 0.0929726 0.369784)
(10.7072 0.0817638 0.16684)
(10.4941 0.106109 -0.172919)
(10.0096 -0.0308533 -0.453024)
(9.90933 -0.206227 -0.446927)
(9.42555 -0.293412 -0.285714)
(8.93195 -0.00618174 -0.0675389)
(9.49284 0.140616 -0.161353)
(9.74451 0.0867308 -0.288268)
(9.66016 0.118596 0.0346849)
(9.69326 0.0639587 0.144677)
(9.85204 -0.0139801 0.0428775)
(9.97225 0.00850138 -0.00485327)
(9.8906 0.0137998 0.102201)
(9.75789 -0.0306479 0.349292)
(9.91409 -0.043189 0.243267)
(10.0354 0.0409594 -0.0868894)
(9.90687 0.0240453 -0.129343)
(9.68029 -0.095437 -0.00682028)
(9.62835 -0.154001 0.174442)
(10.2599 0.08371 0.132264)
(10.4044 0.142879 -0.0104531)
(10.2498 0.0900078 0.159319)
(10.3932 0.0249596 0.318425)
(10.3099 0.00193746 0.255186)
(9.90737 -0.0146644 -0.0272224)
(9.59563 -0.0571078 -0.182217)
(10.0936 0.0132488 0.0730668)
(10.5014 0.0111554 -0.024358)
(10.4916 -0.0750905 -0.255985)
(10.3334 -0.0588739 -0.108341)
(10.6282 0.0542103 0.155799)
(10.7369 0.11547 0.0985343)
(10.7052 0.0126957 -0.0743056)
(10.4722 -0.0187977 -0.309032)
(9.81769 -0.0279893 -0.281793)
(9.59696 -0.256039 -0.228195)
(9.56061 -0.302412 -0.32337)
(9.50159 -0.208795 -0.286927)
(9.65536 0.0994035 -0.104398)
(9.82688 0.117484 -0.0916562)
(9.75999 0.095782 -0.0817664)
(9.60074 0.084056 0.177509)
(9.85367 0.0528114 0.168278)
(10.0215 -0.000224528 0.0359185)
(9.95154 -0.112823 0.00238579)
(9.69468 -0.103119 0.312015)
(10.0398 -0.0830291 0.179137)
(10.1985 -0.142021 -0.0937343)
(9.90532 -0.118173 -0.224397)
(9.42629 -0.0931351 0.138608)
(10.0137 0.0591824 0.354646)
(10.4774 0.158296 0.217496)
(10.4974 0.20085 0.0149824)
(10.1817 0.313305 0.0686174)
(10.3425 0.198158 0.146045)
(10.3212 -0.00486656 0.0103993)
(9.95712 -0.0875939 -0.101317)
(9.76542 -0.0368838 0.0775154)
(10.1385 0.0596729 0.0301725)
(10.4254 0.0555325 -0.153157)
(10.4564 -0.0248713 -0.036905)
(10.5168 -0.0333074 0.135744)
(10.6588 0.0478661 0.0921686)
(10.6696 -0.0431651 0.0784288)
(10.5666 -0.209907 -0.0206567)
(10.5122 -0.271509 -0.14644)
(9.9098 -0.173061 -0.263763)
(9.6393 -0.0310861 -0.353028)
(9.34537 -0.103098 -0.372809)
(9.54173 -0.0962191 -0.259933)
(9.80002 -0.0245906 -0.178949)
(9.86626 -0.0892342 -0.0861399)
(9.71774 -0.0839515 0.0557768)
(9.66462 0.0700412 0.184036)
(9.83578 0.222161 0.236849)
(9.88547 0.162685 0.0777066)
(9.80026 -0.196594 0.0528946)
(9.80242 -0.233993 0.157152)
(9.95451 0.0222992 -0.0218283)
(10.0318 -0.130811 -0.0988494)
(9.99791 -0.171953 -0.00305475)
(9.82952 -0.0146493 0.104066)
(10.0828 0.2436 0.278599)
(10.4717 0.194338 0.266198)
(10.5476 0.193337 0.225309)
(10.2866 0.249259 0.288149)
(10.1071 0.178435 0.178787)
(10.1135 0.0219398 -0.221273)
(9.94656 -0.0305794 -0.40815)
(9.87701 0.0647269 0.112388)
(10.1751 0.080846 0.140861)
(10.4459 -0.00555601 -0.0935041)
(10.4095 0.00314346 -0.120884)
(10.5002 0.111678 0.104509)
(10.4153 -0.072245 -0.171659)
(10.5109 -0.204908 0.0927654)
(10.5824 -0.159911 0.167989)
(10.4266 -0.226551 0.102387)
(10.0064 -0.257394 -0.17224)
(9.7577 -0.205243 -0.464243)
(9.52557 0.0805573 -0.361812)
(9.59364 0.128067 -0.15242)
(9.62564 -0.0387205 0.0104966)
(9.77646 -0.171074 0.242512)
(9.9261 -0.039297 0.154346)
(9.94766 0.126271 0.118225)
(9.80668 0.215428 0.12848)
(9.67368 0.159465 -0.00875876)
(9.68268 -0.0425924 -0.0354126)
(9.93522 -0.0094919 -0.0326332)
(10.0338 0.0684719 -0.10186)
(9.92095 -0.00774126 -0.0345593)
(9.97145 -0.232997 0.0826772)
(9.9841 -0.173975 0.0612575)
(10.1741 0.213037 0.154947)
(10.4636 0.264986 0.205607)
(10.4896 0.0805311 0.152708)
(10.2327 -0.0149257 0.115526)
(10.1309 -0.0442761 -0.0343884)
(10.2013 -0.0834071 -0.245527)
(9.9814 -0.0585253 -0.265011)
(9.71274 0.1186 0.0984961)
(10.1037 0.388991 0.121553)
(10.4106 0.192569 0.107895)
(10.5594 -0.0209856 0.0830892)
(10.5099 0.0100074 -0.129436)
(10.417 -0.0285302 -0.0459981)
(10.5868 -0.00780312 0.10494)
(10.5594 -0.0390817 0.148777)
(10.2959 -0.146014 0.093659)
(9.97388 -0.272373 -0.0561274)
(9.9343 -0.22027 -0.164779)
(9.74057 0.0615106 -0.296121)
(9.41011 0.158058 -0.438039)
(9.53761 -0.0154874 -0.0310561)
(9.84436 0.0501852 0.269395)
(10.0279 0.110604 0.308795)
(9.97415 0.108488 0.178284)
(9.8174 0.0290717 0.0220796)
(9.61299 -0.0809607 -0.14366)
(9.71542 0.010336 -0.0138403)
(9.94425 0.0654479 0.099168)
(9.956 -0.0196931 0.0469615)
(9.69176 -0.0913378 -0.00874777)
(9.98759 -0.0066865 0.0276391)
(10.2571 0.0644684 0.0422362)
(10.3163 0.143433 0.0563039)
(10.3436 0.172879 -0.0189608)
(10.2999 -0.186896 -0.0830428)
(10.2035 -0.448237 -0.0553764)
(10.0294 -0.243124 0.0509925)
(10.1492 -0.0365549 -0.0763752)
(10.2006 0.0209092 0.00754109)
(10.243 0.182139 0.102444)
(10.2327 0.261851 -0.0842111)
(9.9033 0.258967 -0.13771)
(10.3374 0.0918412 0.0770128)
(10.4887 0.0499703 -0.0475444)
(10.4298 0.143011 -0.0844385)
(10.5119 0.108832 0.0158797)
(10.3934 -0.0811294 0.217361)
(10.158 -0.243951 0.185363)
(10.0304 -0.204372 -0.0393185)
(10.038 -0.160519 -0.257642)
(9.97097 -0.194695 -0.330564)
(9.46094 -0.0122988 -0.581561)
(9.58179 0.268351 -0.0683762)
(9.81007 0.292802 0.256896)
(9.96491 0.248757 0.234167)
(9.91163 0.348269 0.0183872)
(9.60976 -0.000190346 0.0372778)
(9.59417 -0.246176 0.0924037)
(9.80274 -0.189696 0.00511168)
(9.90717 -0.186903 -0.0154047)
(9.90061 -0.142511 0.226195)
(9.89255 0.0130904 0.277838)
(10.1255 0.360295 -0.0457175)
(10.1805 0.366205 -0.0589846)
(10.235 -0.0399454 0.0273989)
(10.2551 -0.193862 -0.112672)
(9.85343 -0.297913 -0.206753)
(10.1648 -0.416801 0.077146)
(10.4683 -0.19044 0.10167)
(10.403 0.0812138 0.173213)
(10.1771 0.116779 0.271666)
(10.0665 0.121313 -0.180911)
(10.1552 -0.00477565 -0.353592)
(10.224 -0.0148588 -0.162543)
(10.3587 0.218848 0.176921)
(10.3927 0.192822 0.107678)
(10.3686 0.25078 0.000774174)
(10.3659 0.107405 -0.0595156)
(10.2278 -0.117912 0.0460332)
(10.1118 -0.298581 0.240687)
(10.102 -0.272651 0.0833922)
(10.0347 -0.230058 -0.137274)
(9.87536 -0.209627 -0.448583)
(9.83041 -0.113829 -0.562317)
(9.76143 0.298484 -0.139579)
(9.84025 0.350462 0.179269)
(10.0416 0.283082 0.355365)
(9.99997 0.328729 0.150011)
(9.2501 0.355431 -0.0814588)
(9.33394 0.00871657 0.0647435)
(9.64302 -0.236976 0.0770182)
(9.96956 -0.425225 0.0274666)
(10.1677 -0.243001 -0.052877)
(10.242 0.0764113 0.0216134)
(10.1678 0.191487 0.128136)
(9.98136 0.0119609 0.059042)
(9.79984 -0.0802108 -0.00796379)
(10.0211 -0.212663 0.0193314)
(10.0511 -0.278493 0.0261712)
(10.3848 -0.0106556 0.160904)
(10.5734 0.085745 0.110783)
(10.4809 0.124406 0.132729)
(10.1889 0.0165478 0.329945)
(10.146 -0.0305606 0.134761)
(9.90701 -0.108162 -0.428109)
(10.3153 0.0733493 -0.319629)
(10.5094 0.195799 -0.151794)
(10.3695 0.206946 0.0318367)
(10.3249 0.185469 -0.143095)
(10.0211 0.0734302 -0.0840732)
(9.91955 -0.086301 0.0253903)
(9.99438 -0.138138 -0.000879011)
(10.0389 -0.161591 -0.0529911)
(10.0267 -0.136772 -0.104501)
(9.99751 -0.0656508 -0.116358)
(9.96654 0.00866116 -0.123509)
(9.87012 0.119754 -0.0608189)
(9.81706 0.173576 0.0560438)
(9.95703 0.116171 0.285375)
(9.91494 0.111987 0.196804)
(9.36697 0.122793 -0.070792)
(9.1108 0.239774 0.0999003)
(8.99867 0.0217431 0.167487)
(9.85524 -0.28919 -0.145117)
(10.3355 -0.187145 -0.195749)
(10.2988 -0.0208095 -0.0526603)
(10.0081 0.0148393 0.154862)
(9.83024 -0.150316 0.146256)
(9.97112 -0.0710892 -0.0699704)
(9.97177 0.0495664 -0.115903)
(10.0729 -0.0313537 0.277984)
(10.3633 -0.00298897 0.264726)
(10.5417 0.0441284 0.102764)
(10.4453 0.0638281 0.0251668)
(9.91947 0.0815519 0.210067)
(9.84423 -0.156259 0.0525913)
(10.2028 -0.113123 -0.17325)
(10.4402 0.0647183 -0.249385)
(10.4623 0.107355 -0.252187)
(10.3484 0.117439 -0.0815423)
(10.5119 -0.00109805 0.07532)
(10.4531 -0.0716679 0.177485)
(10.2608 -0.107059 0.139369)
(9.94732 0.0627107 -0.216261)
(9.90851 0.129997 -0.246606)
(9.7067 0.00469411 -0.253525)
(9.4122 -0.162645 -0.141571)
(9.14811 -0.216594 0.0375108)
(9.34091 0.0587118 0.0377933)
(9.71952 0.115466 -0.0415795)
(9.7463 0.00748674 0.110432)
(9.50751 -0.0221574 0.244745)
(9.44044 0.126043 0.00766831)
(9.75011 0.0705801 -0.101631)
(9.96443 -0.0752253 -0.00711162)
(9.77727 -0.106017 0.163211)
(9.32299 -0.0527631 0.187005)
(9.4826 0.0460053 -0.247784)
(9.84397 0.0357972 -0.266321)
(9.8848 0.0366965 -0.0582199)
(9.8296 0.0653468 0.136151)
(9.97547 0.0959248 0.14004)
(10.0319 0.090967 0.0496019)
(10.2756 0.0252192 0.131378)
(10.2888 -0.119322 0.251697)
(10.0746 -0.267993 0.299264)
(9.20023 -0.138934 0.0169408)
(9.52917 0.175103 -0.174423)
(9.82383 0.105807 -0.0290425)
(10.1938 -0.0122826 -0.108135)
(10.4362 0.0304167 -0.172274)
(10.4491 0.0324746 -0.0519061)
(10.4388 0.0305042 0.0544421)
(10.428 -0.0679096 0.0181791)
(10.3509 -0.0650267 -0.084183)
(10.1547 0.0408969 -0.188133)
(9.86352 0.0296094 -0.0898152)
(9.51182 -0.0802991 0.0247896)
(9.17195 -0.242813 -0.120071)
(9.3484 -0.212571 -0.151419)
(9.5132 -0.042821 -0.0601256)
(9.71447 0.0722495 -0.0179255)
(9.75148 -0.0420095 0.0105425)
(9.65908 -0.0400072 0.14669)
(9.50835 0.0986952 0.24025)
(9.64299 0.0895405 -0.0794665)
(9.86225 -0.0999603 -0.117198)
(9.81679 -0.229059 0.0836195)
(9.52527 -0.18341 0.198307)
(9.58838 0.0980384 -0.259174)
(9.83821 0.0994435 -0.236242)
(9.86802 0.02407 0.0866225)
(9.8301 0.00869702 0.334321)
(10.0694 0.207508 0.133636)
(10.1493 0.324769 0.00304232)
(10.094 0.337365 0.0736033)
(10.072 0.0485595 0.115324)
(9.9824 -0.349364 0.00794262)
(9.79871 -0.238547 -0.0563387)
(9.62 0.159348 0.0445769)
(9.80714 0.167694 0.0170754)
(10.23 0.01744 -0.110142)
(10.4283 0.0256012 -0.0520253)
(10.4366 0.0691945 0.0512454)
(10.3993 -0.0912476 0.077041)
(10.2326 -0.119585 -0.0170412)
(10.3215 -0.0928066 -0.00495273)
(10.0381 0.0272468 -0.122123)
(9.82116 -0.0506774 -0.135232)
(9.43387 -0.269687 -0.140978)
(9.26651 -0.190457 -0.114009)
(9.37552 0.0730327 -0.014211)
(9.6292 0.0718325 -0.0698609)
(9.65851 0.0067255 -0.0670877)
(9.69104 -0.0764684 -0.015152)
(9.63451 -0.0345792 0.0683234)
(9.61418 0.0787705 0.0849276)
(9.60647 0.0883302 0.00424263)
(9.68394 -0.0376326 -0.00155298)
(9.6844 -0.233627 0.036441)
(9.75508 -0.197118 0.0370978)
(9.80554 -0.0220163 -0.00704528)
(9.90749 0.0116136 -0.0456492)
(9.93641 -0.0239199 0.026481)
(10.048 0.0400017 0.144418)
(10.275 0.199309 0.169435)
(10.368 0.247407 0.126104)
(10.1924 0.193552 0.12374)
(9.75604 0.0802628 0.194544)
(9.48224 -0.183263 -0.0625052)
(9.86612 -0.133756 -0.198416)
(9.96115 0.00856247 0.0104445)
(9.68493 0.117593 0.191128)
(10.1892 0.266792 -0.15975)
(10.4096 0.238498 -0.141308)
(10.5208 0.0615848 0.0434337)
(10.338 -0.117498 -0.0965382)
(10.5506 -0.0891934 -0.0165213)
(10.4925 -0.0783378 0.0456549)
(10.2051 -0.132778 0.0711028)
(9.60359 -0.151261 -0.00829781)
(9.39492 -0.0751972 -0.238461)
(9.546 -0.0819896 -0.126686)
(9.52927 -0.0505685 -0.00821782)
(9.51306 0.0984799 0.0229068)
(9.50351 0.0444118 0.0922289)
(9.73773 0.115653 0.00160946)
(9.7408 0.15793 -0.00139474)
(9.67002 0.119342 0.0486152)
(9.54007 0.0321975 -0.0133889)
(9.5095 0.0214669 0.038116)
(9.58546 -0.00121007 -0.00310573)
(9.77279 -0.0628219 -0.128217)
(9.84835 -0.131252 -0.0851969)
(9.89148 -0.116265 -0.0152814)
(9.90035 -0.0213594 0.0272031)
(10.101 0.0751065 0.114084)
(10.1879 0.0549678 0.185324)
(10.16 -0.0586984 0.11982)
(9.92543 -0.28327 -0.0152859)
(9.79913 -0.286662 0.00991841)
(9.79405 0.0892286 -0.19925)
(9.94822 0.259361 -0.18504)
(9.90162 0.179907 0.0291198)
(9.9952 0.132349 0.128074)
(10.205 0.200775 0.142368)
(10.2276 0.204557 0.171139)
(10.1102 -0.0626919 -0.0131011)
(10.3516 0.0463083 0.0415825)
(10.3756 0.120852 0.106532)
(10.2291 0.114861 0.0492996)
(10.0012 -0.168629 -0.0143664)
(9.78361 -0.303283 4.48391e-05)
(9.58114 -0.153483 -0.0278819)
(9.38315 -0.140174 -0.23348)
(9.50171 -0.121378 -0.16207)
(9.60027 0.0720913 0.0582692)
(9.71198 0.176609 0.144004)
(9.658 0.15636 0.11324)
(9.57948 0.0542634 0.105692)
(9.4479 0.00780855 -0.0471812)
(9.48423 0.0471023 -0.0814478)
(9.59729 -0.0173071 0.0497733)
(9.61826 0.0246531 0.0963905)
(9.61489 0.21758 -0.118708)
(9.71445 0.0711528 -0.0851119)
(9.95527 -0.0708099 0.0390093)
(10.0464 -0.00244888 0.0505583)
(10.04 0.0391527 0.0347275)
(10.0129 -0.156416 -0.0062354)
(9.98569 -0.342898 -0.0555275)
(9.98985 -0.277306 -0.0793193)
(9.95088 -0.0270604 -0.00574946)
(10.0213 0.211171 0.0419701)
(9.98194 0.238155 0.0698423)
(9.81037 0.138336 0.111395)
(9.88231 0.016556 -0.148909)
(10.0917 0.0301479 -0.0963504)
(10.2708 0.0177307 0.0542519)
(10.2375 -0.00239892 0.0117432)
(10.3478 0.209688 -0.0171913)
(10.5127 0.0448015 0.112229)
(10.3271 -0.0749893 0.226047)
(9.58398 0.00813261 0.143444)
(9.53678 -0.166413 -0.146539)
(9.5976 -0.291341 -0.168056)
(9.55609 -0.215381 -0.353344)
(9.7527 -0.04344 -0.230455)
(9.82108 0.0948492 0.0955715)
(9.69179 0.200247 0.244829)
(9.56419 0.250103 0.0324623)
(9.67745 0.144836 -0.0682198)
(9.61209 0.0258901 0.0300063)
(9.42324 -0.0165545 0.127881)
(9.55596 -0.118674 -0.00445954)
(9.73134 -0.144786 0.00914624)
(9.79272 -0.126195 0.116425)
(9.48717 0.139956 0.0817871)
(9.84053 0.308842 -0.111688)
(10.0505 0.129797 -0.0549704)
(10.0298 -0.0519036 0.0548261)
(9.9386 -0.189534 -0.14257)
(10.0779 -0.238624 -0.101562)
(10.2881 -0.211631 0.103712)
(10.3235 -0.124879 0.16553)
(10.2443 0.0271862 0.114668)
(9.93455 0.217865 0.0139219)
(9.77548 0.124838 0.015801)
(9.97625 -0.0996446 -0.122816)
(10.284 -0.0427647 -0.0663756)
(10.2369 0.0434822 0.0525203)
(10.0789 0.218427 -0.0304032)
(10.1825 0.277467 0.120131)
(10.1559 -0.00922386 0.0196035)
(10.1322 -0.251387 0.0719168)
(9.96656 -0.321113 0.185282)
(9.55905 -0.14019 0.0967165)
(9.34929 -0.134114 -0.133262)
(9.6548 0.0114541 -0.327788)
(9.87054 0.101012 -0.251627)
(9.9285 0.0635096 -0.0496157)
(9.85691 0.107873 0.10649)
(9.73234 0.290669 0.145788)
(9.45689 0.399153 -0.0705805)
(9.35034 0.148928 -0.0538443)
(9.39421 0.0872371 0.118331)
(9.46554 -0.120074 0.129681)
(9.54971 -0.398713 0.109694)
(9.85084 -0.363392 -0.013281)
(9.99507 -0.039724 -0.0376559)
(9.99827 0.284277 0.00715326)
(9.67666 0.119936 -0.0880279)
(9.85783 -0.178118 -0.0631601)
(9.95645 -0.202578 0.0179509)
(9.97703 0.0427888 0.0586204)
(10.0282 0.0719231 0.119936)
(10.2788 -0.163258 0.00150971)
(10.2803 -0.185025 0.0122982)
(10.1329 -0.0915736 0.183836)
(9.42455 0.0489273 0.0474562)
(9.84015 0.176351 -0.23398)
(10.2477 0.0451243 -0.150546)
(10.4647 -0.00704309 -0.0605063)
(10.3565 0.163846 0.0487246)
(10.2534 0.0260301 -0.0316009)
(10.1105 0.0817179 0.0515365)
(9.89511 0.049235 0.15034)
(9.65205 -0.26973 0.0604906)
(9.74344 -0.258903 -0.0328877)
(9.80242 -0.0584401 -0.0769933)
(9.82009 0.118234 -0.104606)
(9.85399 0.12757 -0.107072)
(9.86022 0.0707584 -0.0797004)
(9.82946 0.0519928 0.00449987)
(9.77297 0.0940466 0.0992579)
(9.55705 0.131097 -0.0215853)
(9.28054 0.150962 -0.074622)
(9.26475 0.213645 0.0867908)
(8.88756 0.0432237 0.206103)
(9.58135 -0.330593 0.0471304)
(10.0656 -0.22978 -0.0111481)
(10.1921 -0.054545 -0.0708549)
(10.0078 -0.00155107 0.00436278)
(9.6758 0.0351892 0.107206)
(9.67282 -0.0577575 -0.0631131)
(9.9896 -0.075399 -0.080201)
(10.0907 0.0458265 0.119382)
(9.97018 0.106346 0.247249)
(10.0553 -0.0329137 -0.097952)
(10.1657 -0.132932 -0.200883)
(10.0786 -0.176876 -0.044252)
(9.85458 -0.00890619 0.10796)
(9.749 0.224858 0.177969)
(10.0391 0.0908684 -0.124441)
(10.2479 -0.0108235 -0.190653)
(10.3531 0.00966848 -0.0725594)
)
;

boundaryField
{
    wall
    {
        type            fixedValue;
        value           uniform (0 0 0);
    }
    outlet
    {
        type            cyclic;
    }
    inlet
    {
        type            cyclic;
    }
    procBoundary3to2
    {
        type            processor;
        value           nonuniform List<vector> 
256
(
(10.1005 -0.121018 -0.116778)
(10.8084 0.194394 -0.0358884)
(11.0819 0.172131 -0.0180511)
(10.8207 0.108046 -0.0834097)
(10.2621 -0.0139373 -0.329994)
(9.82227 -0.155648 -0.283116)
(9.51293 -0.13031 -0.0991923)
(9.2989 -0.0239687 -0.192548)
(9.6028 -0.00128847 -0.356349)
(9.86221 -0.00410404 -0.242899)
(9.7977 0.0295536 -0.13966)
(9.7265 -0.00265109 -0.146438)
(9.81038 -0.0141015 -0.125234)
(9.97383 0.0469857 0.0496751)
(9.97803 -0.00599291 0.235483)
(9.82202 -0.0620522 0.246562)
(10.1069 0.0334764 0.112636)
(10.2156 0.114562 0.192061)
(9.99196 0.0459448 0.393595)
(9.91444 -0.0957637 0.336474)
(9.91607 -0.146144 0.102025)
(10.4564 0.0461995 -0.28243)
(10.5505 0.0986395 -0.383289)
(10.2711 0.096923 -0.183253)
(10.448 0.049398 -0.0171867)
(10.476 0.0165842 0.061216)
(10.0879 -0.0355981 0.115461)
(9.51334 -0.120542 0.155584)
(10.1824 0.116115 0.270006)
(10.7412 0.120619 0.369855)
(10.8109 -0.0510463 0.38885)
(10.3708 -0.298853 0.0367278)
(10.7627 0.0764948 -0.00387881)
(10.9411 0.227245 0.0599532)
(10.9907 0.0792921 0.0572598)
(10.7932 -0.0281336 -0.0293998)
(10.1046 -0.117011 -0.275056)
(9.74374 -0.173674 -0.427052)
(9.66658 -0.177742 -0.354983)
(9.46913 -0.0926133 -0.191465)
(9.69831 -0.00630141 -0.1314)
(9.9172 -0.0831277 -0.0914973)
(9.85429 -0.0763001 -0.0102124)
(9.74578 -0.0730112 -0.0616683)
(9.93022 -0.153224 -0.121442)
(10.0714 0.048038 -0.010357)
(9.945 0.0196951 0.256582)
(9.87167 -0.0704604 0.244556)
(10.297 0.121462 0.0176915)
(10.3639 0.0886198 0.114682)
(9.92548 0.0102745 0.34175)
(9.7718 -0.0884054 0.197851)
(10.0732 -0.0936898 0.00926366)
(10.6755 0.0649914 -0.0583724)
(10.7317 0.0880994 -0.152647)
(10.2587 0.196285 -0.13801)
(10.4346 0.20978 -0.0591254)
(10.4563 0.120883 -0.020774)
(10.0725 -0.0074622 0.0234648)
(9.88928 -0.0129014 0.0284653)
(10.2851 0.134951 0.103107)
(10.5475 0.148204 0.265133)
(10.3758 -0.174637 0.416963)
(10.5567 -0.162413 0.0879247)
(10.7238 0.233596 -0.0659479)
(10.7578 -0.00609274 0.126618)
(10.8298 -0.322896 0.0921213)
(10.8138 -0.420021 -0.0306199)
(10.1763 -0.275054 -0.261341)
(9.88084 -0.033298 -0.336034)
(9.64993 -0.0252573 -0.295238)
(9.51154 -0.0677845 -0.370416)
(9.6628 -0.0244495 -0.239203)
(9.8638 -0.316021 -0.0225879)
(9.88013 -0.348984 0.0249577)
(9.69184 -0.0487911 0.0416638)
(10.0127 0.116528 0.0760533)
(10.1152 0.163287 0.102759)
(9.87115 0.0809333 0.109063)
(10.0355 0.0568961 -0.0465011)
(10.1929 0.0711233 -0.0908743)
(10.1531 -0.16523 -0.0391708)
(9.91873 -0.200995 0.207253)
(9.82075 0.0248123 0.274561)
(10.2382 0.227688 0.144026)
(10.6002 0.210147 0.0425998)
(10.6117 0.125298 0.0444513)
(10.393 0.162547 0.132689)
(10.433 0.18224 0.0283171)
(10.337 0.107276 -0.188429)
(9.98878 0.00476992 -0.210302)
(9.90165 0.0184932 -0.0459363)
(10.1874 0.0973334 0.051741)
(10.5021 -0.00596176 0.313237)
(10.5454 5.03529e-05 0.458571)
(10.66 0.34551 -0.0337621)
(10.261 0.117177 -0.207336)
(10.4432 -0.175349 0.0318137)
(10.7578 -0.265862 0.163725)
(10.7413 -0.386575 0.0816037)
(10.3462 -0.366739 -0.125836)
(10.1138 -0.283762 -0.216926)
(9.70045 -0.150572 -0.339041)
(9.46344 0.126974 -0.308155)
(9.32672 0.092242 -0.084193)
(9.76291 -0.295058 0.0278202)
(10.0211 -0.193622 0.0598688)
(10.0462 0.107743 0.159277)
(10.0522 0.32097 0.198952)
(9.98422 0.236115 0.123808)
(9.78611 0.0994065 -0.00263518)
(9.97366 0.00614419 -0.0647938)
(10.0847 -0.0435291 0.0304517)
(9.96617 -0.247911 0.121809)
(10.0742 -0.162949 0.135842)
(10.1634 -0.0140591 0.169551)
(10.3386 0.308116 0.0256556)
(10.5395 0.382232 -0.0572486)
(10.5249 0.179037 0.0936376)
(10.3551 0.0614809 0.197875)
(10.4206 -0.0353709 -0.0150317)
(10.3896 -0.0730278 -0.173466)
(9.92429 -0.145544 -0.16623)
(9.96025 0.158294 0.028395)
(10.2372 0.389296 0.0629156)
(10.5459 0.184825 0.047758)
(10.7535 0.020961 0.0417569)
(10.7502 0.11687 -0.0833045)
(10.4482 -0.0537164 -0.192008)
(10.4619 0.210438 -0.134947)
(10.5976 0.0618104 0.152326)
(10.5563 -0.216609 0.249245)
(10.2717 -0.410923 -0.0300692)
(10.2042 -0.477296 -0.0919571)
(9.87218 -0.101886 -0.205044)
(9.70514 0.134662 -0.25498)
(9.26603 0.272789 -0.256836)
(9.67164 0.154782 0.0603388)
(10.0862 0.0747815 0.236668)
(10.1975 0.148657 0.228815)
(10.0612 0.109399 0.107322)
(9.90451 -0.0483814 0.0220836)
(9.70019 -0.0757999 -0.124012)
(9.86054 0.000811912 0.071874)
(9.94916 -0.0885685 0.251968)
(10.0242 -0.128191 0.0494305)
(10.1803 -0.00965523 -0.0217076)
(10.3355 0.0823903 0.0593627)
(10.4315 0.157689 0.0143273)
(10.4996 0.193715 -0.0567475)
(10.3681 -0.0364537 -0.0309693)
(10.1802 -0.324255 0.0963012)
(10.3744 -0.130335 0.0121083)
(10.435 -0.172523 -0.0843958)
(10.1161 -0.324827 -0.0700507)
(10.3198 0.393417 0.0114257)
(10.438 0.56947 0.070422)
(10.0429 0.338737 0.0599267)
(10.5312 -0.105088 -0.112827)
(10.7714 -0.233633 -0.123417)
(10.7173 0.164194 -0.211615)
(10.5058 0.20454 -0.178863)
(10.3361 0.109376 -0.00205818)
(10.2412 -0.265665 0.143528)
(10.2784 -0.292468 0.118603)
(10.2836 -0.218941 0.0508749)
(10.0928 -0.116022 -0.106383)
(9.91046 -0.0239729 -0.181419)
(9.53797 0.194625 -0.213801)
(9.47819 0.355508 0.00203267)
(10.0839 0.236537 0.176973)
(10.2307 0.335852 0.166966)
(9.86239 0.0736925 0.0790884)
(9.7485 -0.249827 0.048048)
(9.87091 -0.208865 -0.056099)
(9.95832 -0.0881392 0.0188128)
(9.87179 -0.020066 0.189769)
(10.0923 0.147874 0.0883274)
(10.2958 0.189155 0.0717741)
(10.3394 0.142117 0.106983)
(10.3966 -0.0740723 0.108589)
(10.4318 -0.167682 0.103524)
(10.0359 -0.350863 -0.0287929)
(10.3147 -0.40758 -0.2361)
(10.5366 -0.262306 -0.164421)
(10.2741 -0.224722 0.287574)
(10.4861 -0.0809339 0.355852)
(10.661 0.181587 0.0896472)
(10.3851 0.186957 -0.344954)
(9.89152 0.1133 -0.352717)
(10.3313 0.253763 -0.0596375)
(10.6996 0.135815 -0.0412547)
(10.6503 0.319678 -0.267472)
(10.3273 0.129203 -0.260794)
(10.1413 -0.00923765 -0.0872885)
(10.2319 -0.117057 0.0568411)
(10.3115 -0.200825 0.0937272)
(10.2955 -0.220223 0.0813511)
(10.131 -0.26741 -0.213479)
(10.0654 -0.286189 -0.235834)
(9.73408 -0.0394047 -0.096176)
(9.47945 0.280771 0.0792064)
(10.1335 0.332456 0.257844)
(10.274 0.319755 0.295357)
(9.65573 0.235384 0.1997)
(9.54543 0.0115032 -0.101208)
(9.73768 -0.136324 -0.215241)
(10.0972 -0.227359 -0.175498)
(10.1925 -0.10781 -0.136246)
(10.1844 0.219844 0.0514662)
(10.2017 0.159002 0.207208)
(10.1699 -0.0679308 0.288976)
(10.1368 -0.0282822 0.241694)
(10.2074 -0.23427 0.129303)
(10.148 -0.434571 -0.0395099)
(10.4125 -0.154373 -0.0989111)
(10.5347 -0.150754 0.188349)
(10.4117 -0.112695 0.513024)
(10.5473 -0.0277198 0.3125)
(10.6175 -0.0489377 0.0370179)
(10.3544 -0.0744062 -0.361336)
(10.2136 0.184515 -0.461591)
(10.3464 0.375989 -0.206409)
(10.6172 0.325863 -0.053467)
(10.596 0.173015 -0.240683)
(10.1824 0.102818 -0.321193)
(9.9867 0.0275958 -0.2227)
(10.0042 0.0421626 -0.150509)
(10.1214 -0.117574 -0.0995235)
(10.1528 -0.185727 -0.0977542)
(10.0874 -0.189475 -0.0936708)
(10.0587 -0.207406 -0.0470734)
(9.84484 -0.034758 0.0997386)
(9.72435 0.135897 0.212972)
(10.0673 0.189773 0.300789)
(10.1286 0.119122 0.338727)
(9.59744 0.100528 0.204474)
(9.40059 0.159368 0.0765805)
(9.4341 -0.0014105 -0.178138)
(10.0454 -0.148967 -0.440794)
(10.3283 -0.0987498 -0.396172)
(10.1251 0.0343068 0.0662614)
(9.95917 -0.0111646 0.249443)
(10.1665 -0.0963833 0.197407)
(10.2466 0.0358329 0.186923)
(9.93663 0.0161631 0.169361)
(10.1587 -0.14673 0.0761348)
(10.4152 -0.0483451 0.045713)
(10.4882 -0.0137381 0.383081)
(10.3685 -0.0228521 0.633683)
(10.4604 -0.0299863 0.288057)
(10.5442 -0.0636316 -0.0901044)
(10.4116 -0.058486 -0.415883)
(10.3214 0.0707553 -0.351211)
(10.4068 0.131086 -0.18803)
(10.5788 0.14393 -0.129294)
)
;
    }
}


// ************************************************************************* //
