/*--------------------------------*- C++ -*----------------------------------*\
| =========                 |                                                 |
| \\      /  F ield         | OpenFOAM: The Open Source CFD Toolbox           |
|  \\    /   O peration     | Version:  2506                                  |
|   \\  /    A nd           | Website:  www.openfoam.com                      |
|    \\/     M anipulation  |                                                 |
\*---------------------------------------------------------------------------*/
FoamFile
{
    version     2.0;
    format      ascii;
    arch        "LSB;label=32;scalar=64";
    class       volVectorField;
    location    "0.004";
    object      Us;
}
// * * * * * * * * * * * * * * * * * * * * * * * * * * * * * * * * * * * * * //

dimensions      [0 1 -1 0 0 0 0];

internalField   nonuniform List<vector> 
512
(
(0 0 0)
(0 0 0)
(0.066371 -9.08163e-06 -0.0880815)
(0 0 0)
(0 0 0)
(0 0 0)
(0 0 0)
(0 0 0)
(0 0 0)
(0 0 0)
(0 0 0)
(0 0 0)
(0 0 0)
(0 0 0)
(0 0 0)
(0 0 0)
(0 0 0)
(0 0 0)
(0 0 0)
(0 0 0)
(0 0 0)
(0 0 0)
(0 0 0)
(0 0 0)
(0 0 0)
(0 0 0)
(0 0 0)
(0 0 0)
(0 0 0)
(0 0 0)
(0 0 0)
(0 0 0)
(0 0 0)
(0 0 0)
(0 0 0)
(0 0 0)
(0 0 0)
(0 0 0)
(0 0 0)
(0 0 0)
(0 0 0)
(0 0 0)
(0 0 0)
(0 0 0)
(0 0 0)
(0.139137 4.75141e-06 -0.142245)
(0 0 0)
(0 0 0)
(0 0 0)
(0 0 0)
(0 0 0)
(0 0 0)
(0 0 0)
(0 0 0)
(0 0 0)
(0 0 0)
(0 0 0)
(0 0 0)
(0 0 0)
(0 0 0)
(0 0 0)
(0 0 0)
(0 0 0)
(0 0 0)
(0 0 0)
(0 0 0)
(0 0 0)
(0 0 0)
(0 0 0)
(0.139328 3.2897e-05 -0.198876)
(0 0 0)
(0 0 0)
(0 0 0)
(0 0 0)
(0 0 0)
(0 0 0)
(0 0 0)
(0 0 0)
(0 0 0)
(0 0 0)
(0 0 0)
(0.139378 -3.98397e-05 -0.129306)
(0 0 0)
(0 0 0)
(0 0 0)
(0 0 0)
(0 0 0)
(0 0 0)
(0 0 0)
(0 0 0)
(0 0 0)
(0 0 0)
(0 0 0)
(0 0 0)
(0 0 0)
(0 0 0)
(0 0 0)
(0 0 0)
(0 0 0)
(0 0 0)
(0 0 0)
(0 0 0)
(0 0 0)
(0 0 0)
(0 0 0)
(0.139265 -5.70694e-06 -0.194329)
(0 0 0)
(0 0 0)
(0 0 0)
(0 0 0)
(0 0 0)
(0 0 0)
(0 0 0)
(0 0 0)
(0 0 0)
(0 0 0)
(0 0 0)
(0 0 0)
(0 0 0)
(0 0 0)
(0 0 0)
(0.139408 5.65862e-07 -0.191503)
(0 0 0)
(0 0 0)
(0 0 0)
(0.139179 1.91073e-05 -0.0821816)
(0 0 0)
(0 0 0)
(0 0 0)
(0 0 0)
(0 0 0)
(0 0 0)
(0.139333 4.06498e-05 -0.150143)
(0 0 0)
(0 0 0)
(0 0 0)
(0 0 0)
(0 0 0)
(0 0 0)
(0 0 0)
(0 0 0)
(0 0 0)
(0 0 0)
(0 0 0)
(0 0 0)
(0.139209 4.34436e-05 -0.0481717)
(0.139457 1.67415e-05 -0.078667)
(0 0 0)
(0 0 0)
(0 0 0)
(0.139145 -5.77302e-05 -0.176606)
(0 0 0)
(0 0 0)
(0 0 0)
(0 0 0)
(0 0 0)
(0 0 0)
(0 0 0)
(0 0 0)
(0 0 0)
(0 0 0)
(0 0 0)
(0.139469 -5.11268e-05 -0.0595185)
(0 0 0)
(0 0 0)
(0 0 0)
(0.139367 5.70709e-06 -0.161595)
(0 0 0)
(0 0 0)
(0 0 0)
(0 0 0)
(0 0 0)
(0 0 0)
(0 0 0)
(0 0 0)
(0 0 0)
(0 0 0)
(0 0 0)
(0 0 0)
(0 0 0)
(0 0 0)
(0 0 0)
(0 0 0)
(0 0 0)
(0.139508 4.13916e-06 -0.13127)
(0 0 0)
(0 0 0)
(0 0 0)
(0 0 0)
(0 0 0)
(0 0 0)
(0 0 0)
(0 0 0)
(0 0 0)
(0 0 0)
(0 0 0)
(0 0 0)
(0 0 0)
(0 0 0)
(0 0 0)
(0 0 0)
(0 0 0)
(0 0 0)
(0 0 0)
(0 0 0)
(0 0 0)
(0.139031 2.94617e-05 -0.100914)
(0 0 0)
(0 0 0)
(0 0 0)
(0 0 0)
(0 0 0)
(0 0 0)
(0 0 0)
(0 0 0)
(0 0 0)
(0 0 0)
(0 0 0)
(0 0 0)
(0 0 0)
(0 0 0)
(0 0 0)
(0 0 0)
(0 0 0)
(0 0 0)
(0 0 0)
(0 0 0)
(0 0 0)
(0 0 0)
(0 0 0)
(0 0 0)
(0 0 0)
(0 0 0)
(0 0 0)
(0 0 0)
(0 0 0)
(0 0 0)
(0 0 0)
(0 0 0)
(0 0 0)
(0 0 0)
(0 0 0)
(0 0 0)
(0 0 0)
(0 0 0)
(0 0 0)
(0 0 0)
(0 0 0)
(0 0 0)
(0 0 0)
(0 0 0)
(0 0 0)
(0.0681581 2.25789e-05 -0.136759)
(0 0 0)
(0 0 0)
(0 0 0)
(0.0121955 -4.71629e-06 0.20305)
(0.0490421 -3.21835e-06 0.0655624)
(0.134457 -0.00336322 0.0449951)
(0.0546816 -0.000735106 0.27042)
(0.024861 2.65296e-06 -0.0151994)
(0.0742722 2.58543e-06 0.0999274)
(-0.0556997 0.00492084 0.0544132)
(0.0417569 -0.0252325 0.0132711)
(0.102307 -0.00194412 0.0737383)
(0.0289513 3.17504e-06 0.13011)
(0.0694345 1.72822e-05 0.139824)
(0.0701626 8.74056e-07 0.0543478)
(0.021925 -7.27852e-07 0.0568912)
(0.0607795 -5.65883e-06 0.0776937)
(0.0727208 1.42156e-06 -0.0267949)
(0.0558598 1.48491e-05 0.0602803)
(0.0380917 0.000567081 -0.024307)
(0.0798429 -2.22402e-05 0.154586)
(0.0233892 -1.36424e-05 0.124667)
(0.0438557 8.56498e-06 -0.002094)
(0.0819229 5.1466e-05 -0.0300408)
(0.0621194 4.24373e-05 0.105019)
(0.0475291 -1.08664e-05 -0.0355352)
(0.00256017 -8.52052e-06 3.97532e-08)
(0.0375887 -5.9604e-06 0.0707174)
(0.0630784 -2.10705e-05 -0.00295585)
(0.0869452 -0.0443659 0.0652976)
(0.0366479 -8.97255e-07 0.228221)
(0.0717071 3.17013e-05 0.0949188)
(0.0688654 -1.46763e-05 0.0580918)
(0.00778483 -6.85983e-07 0.0336669)
(0.022958 0.00104371 0.129237)
(0.0371634 -0.0346044 -0.0402908)
(0.113032 -0.00386357 0.0871592)
(0.0440139 2.61856e-06 0.0669392)
(0.0888325 8.95012e-06 0.106033)
(0.0496036 7.13313e-06 0.0686274)
(0.110258 1.28054e-05 0.0888002)
(0.116685 3.7859e-06 0.0655626)
(0.0482948 -0.00361256 -0.0405669)
(0.0399679 -0.0095442 0.140925)
(0.0355406 -3.90277e-06 0.015476)
(0.00559211 2.41322e-06 0.0550342)
(0.0953642 5.5912e-06 0.117819)
(0.0846682 2.31049e-05 -0.00384389)
(0.0647921 -2.98752e-06 0.0969614)
(0.0707413 4.63004e-07 0.122968)
(0.0419555 2.90196e-05 0.0454016)
(0.0655689 -0.00114775 -0.0157242)
(0.0550552 -0.0262265 0.0405185)
(0.0906308 -0.00298467 0.0617053)
(0.09882 -0.078592 0.053573)
(0.0538496 3.7061e-05 -0.00460508)
(0.102942 9.45686e-05 0.142655)
(0.0716488 2.99873e-06 0.0484996)
(0.138909 -9.11784e-05 0.050393)
(0.0977771 -4.38502e-05 -0.0372732)
(0.0432435 -0.00430923 -0.0299968)
(-0.00935722 0.0171259 -0.0169403)
(0.0962004 6.13184e-05 0.137401)
(0.0943631 4.58821e-05 0.0947004)
(0.0743371 -6.60667e-05 0.199724)
(0.058155 5.50427e-06 0.0255264)
(0.0892485 3.28758e-05 0.0489173)
(0.0976857 -5.9033e-06 0.213503)
(0.0998384 -3.09895e-05 0.0719562)
(0.137148 -2.20149e-05 0.0381881)
(0.0347247 -0.0214259 -0.0337825)
(0.139095 1.36575e-05 -0.143133)
(0.133819 3.6541e-05 -0.0520887)
(0.0685146 -4.02471e-06 0.0653656)
(0.0291212 0.0410585 0.00388686)
(0.0392019 -2.06623e-06 0.164098)
(0.120092 -2.28649e-05 0.0981954)
(0.0617763 0.0342567 -0.0184084)
(0.0369139 0.000718359 -0.0303817)
(0.0968476 3.73155e-05 0.0685791)
(0.193292 -0.0179221 -0.0101583)
(0.0947263 -3.29441e-05 -0.0105747)
(0.0577428 0.00990575 0.031772)
(0.13924 3.85247e-05 -0.124692)
(0.0562604 0.0502532 0.0246729)
(0.0408986 -2.83104e-05 0.11141)
(0.0280814 -6.24179e-06 0.0809259)
(0.106313 5.01438e-05 0.0696478)
(0.169068 -0.137215 -0.013032)
(0.0693295 1.7845e-05 0.126445)
(0.132414 -3.44554e-05 0.0973752)
(0.0509188 -0.00162908 0.102045)
(0.111103 -5.15104e-05 0.0245788)
(0.0944338 -2.39118e-05 0.0726049)
(0.116115 2.13683e-05 0.104415)
(0.33574 0.0496357 0.0021794)
(0.00485592 -2.05399e-06 0.0653823)
(0.115036 3.20384e-05 0.0440535)
(0.139029 2.36462e-05 -0.0787388)
(0.0696961 0.392522 0.148048)
(0.13931 -2.57795e-05 -0.135267)
(0.0596164 -2.12381e-05 0.014875)
(0.067915 -2.45748e-06 -0.0395643)
(0.0623016 0.00118301 0.00666311)
(0.0896004 1.32723e-05 0.0944958)
(0.105028 -1.55412e-06 0.130596)
(0.073611 -8.47933e-06 0.0373377)
(0.0519961 3.0528e-06 0.139806)
(0.128754 -1.6935e-05 -0.0106429)
(0.00381564 -1.41512e-06 0.0276062)
(0.106565 -0.00417414 -0.00711414)
(0.0419971 -9.37815e-07 -0.040772)
(0.0251513 -6.43759e-06 0.306505)
(0.0647117 2.87162e-06 0.0596885)
(0.0439449 0.017733 0.0603534)
(0.0190799 -0.123511 -0.00947267)
(0.128174 -1.22645e-05 -0.0203313)
(0.0633882 -2.4178e-05 0.0534279)
(0.0837298 0.00834836 0.0216053)
(0.0523469 1.30496e-05 0.0432393)
(0.126785 3.77579e-05 0.110349)
(0.0538662 6.93007e-06 0.0958143)
(0.0280057 -1.17946e-05 0.309862)
(0.0321747 -0.045065 0.154677)
(0.0726415 0.00337414 -0.0279373)
(0.0159094 0.00223191 0.09188)
(0.0917429 -0.0165997 0.0560872)
(0.0633781 -4.73772e-06 0.0707831)
(0.0755424 2.16026e-05 0.00631737)
(0.115894 -1.55678e-05 0.116235)
(0.140787 -7.41896e-05 0.196806)
(0.0440307 6.90292e-06 0.0809299)
(0.0559738 5.2067e-06 0.0302918)
(0.0665056 9.43917e-06 0.0929745)
(0.0682174 2.53388e-05 0.0403783)
(0.0809099 2.5411e-05 -0.000785599)
(0.0885299 -0.000186689 0.0768191)
(0.0854643 7.18024e-06 0.0878935)
(0.119154 1.33196e-05 -0.00194926)
(0.0682269 -5.12214e-07 0.0164575)
(0.117759 7.92798e-07 0.0288256)
(0.0800173 0.0225126 0.025324)
(-0.00505784 -0.00588841 0.107053)
(0.0525259 -5.78939e-05 0.162634)
(0.139083 -4.74056e-05 -0.101325)
(0.060485 -0.0106888 0.0398232)
(0.0781384 1.54864e-05 0.173111)
(0.0565916 2.7502e-05 0.0258557)
(0.0650813 2.21052e-05 0.0273773)
(0.139304 1.6299e-05 -0.00152374)
(0.0733149 1.8317e-05 0.0742545)
(0.0405675 -0.0467017 0.0500919)
(0.0702962 -0.0273562 0.0288695)
(0.138974 -4.82803e-05 -0.119306)
(0.0524481 0.0118328 -0.00322423)
(0.0692954 2.96074e-05 0.181125)
(0.0342375 0.0122438 0.0329621)
(0.0951876 0.00628458 0.044993)
(0.0608857 -1.9371e-05 -0.0190874)
(0.0322593 -2.48892e-05 0.139389)
(0.107531 -3.61544e-05 0.13452)
(0.0511452 -5.23099e-05 0.318073)
(0.101521 -3.17866e-05 0.021387)
(0.0960723 1.68077e-05 0.0241093)
(-0.0240341 -0.0491487 -0.017992)
(0.10602 -0.00155971 -0.000831717)
(0.0411947 1.47244e-05 0.117631)
(0.139173 7.30193e-05 -0.0397162)
(0.0809949 2.194e-05 0.0581615)
(0.0926395 1.15222e-06 0.160583)
(0.0442807 -0.0260713 0.112608)
(0.0488537 -1.80149e-06 0.0155437)
(0.13614 5.84805e-05 -0.0152277)
(0.0209387 1.4923e-05 -0.0315243)
(0.00836294 -1.02737e-05 0.177088)
(0.0892048 -6.84855e-05 0.0542373)
(0.10646 -4.6069e-05 -0.0385313)
(0.111317 -6.23161e-06 0.0871814)
(0.106563 3.75502e-06 -0.0320805)
(0.161763 0.0767305 0.0213821)
(-0.0123938 -0.00833085 0.0268219)
(0.0950955 5.04151e-05 -0.0899937)
(0.0698407 8.34325e-06 0.1327)
(-0.0126051 0.0552829 0.171109)
(0 0 0)
(0.0483873 -4.26608e-05 0.174675)
(0.120706 5.04737e-06 0.131321)
(0.110484 1.25781e-06 0.036262)
(0.0675707 -0.0544642 0.158518)
(0 0 0)
(0.0714523 5.80977e-06 0.120434)
(0.0821084 -0.0178206 0.0543045)
(0.00562889 -0.0278877 0.0195878)
(0.128902 1.21541e-05 0.121476)
(0.111825 4.65504e-05 -0.0431761)
(0.0492623 -7.00091e-07 0.0546869)
(0.138942 -3.44153e-05 -0.1102)
(0.0681189 -0.00515929 0.107057)
(0.110296 0.0202547 -0.0008953)
(0.0730498 2.16145e-05 -0.00399742)
(0.0546696 9.47658e-06 -0.0076775)
(0.0874954 5.68532e-07 0.221275)
(0.0565528 -1.47946e-05 0.1303)
(0.0714339 -2.29859e-05 0.211091)
(0.0971582 -1.33505e-07 0.00622739)
(0.0944578 3.22592e-05 -0.026605)
(0.000158635 -0.0411931 0.0480417)
(0.0413658 1.62276e-06 0.0559538)
(0.0936772 -4.77938e-06 -0.0542246)
(0.0668946 1.36454e-05 0.0539641)
(0.10071 -4.55143e-06 0.0227759)
(0.103357 -4.23363e-05 -0.0346583)
(0.0875773 1.42745e-05 0.082992)
(0.0352674 9.25023e-06 0.033637)
(0.0913384 -5.78901e-05 0.166249)
(0.00796865 -1.93119e-05 -0.0229875)
(0.0754209 -1.46464e-05 -0.0170883)
(0.112263 -1.03149e-05 -0.0285349)
(0.0798672 7.19863e-06 0.0897689)
(0.0229151 -0.0148731 0.0994106)
(0.10707 -0.0123708 0.0697166)
(0.12143 0.0114099 0.253899)
(0.0327772 1.43561e-05 0.14561)
(0 0 0)
(0.0524082 -0.000750224 0.0541736)
(0.0290531 3.2444e-05 0.0590045)
(-0.000896383 -0.147214 0.0393608)
(0.021118 -0.146932 2.30197e-08)
(0.0137788 -0.00182048 0.161075)
(0.0149937 0.0328278 0.0514084)
(0.0798584 -8.87285e-06 0.0998559)
(0.0593205 5.44644e-06 -0.0164933)
(0.0403002 4.14123e-07 0.0508981)
(0.130686 8.27493e-06 -0.0405366)
(0.00477835 -0.00890987 -0.00181837)
(0.0602544 -0.015927 0.0174444)
(0.151963 0.0393814 0.118694)
(0.0032096 2.12033e-06 -0.0325715)
(0.0545692 -3.17895e-06 0.101336)
(0.0657271 9.34572e-06 -0.00465688)
(0.126901 0.0469973 0.0879552)
(0.0779796 2.3113e-05 -0.0763821)
(0.0604835 -1.61429e-05 0.0785209)
(0.0435349 -1.58352e-05 0.199754)
(0.0242031 -5.79646e-06 0.184935)
(0.0146866 -1.26497e-05 0.346844)
(0.0962967 0.066836 -0.075123)
(0.0526963 -1.39236e-06 0.00119939)
(0.0427161 0.0661142 0.0169668)
(0.047162 8.22333e-06 0.0335822)
(0.0359121 0.00741272 0.0197085)
(0.0813446 -7.59519e-07 0.23008)
(0.0702322 -0.0131001 0.0175077)
(-0.0105752 0.00301856 -0.00231751)
(0.0680902 -0.000267992 -0.000606562)
(0.0840793 4.64885e-05 0.207398)
(0.046056 2.32404e-06 -0.0485935)
(0.119901 0.0495692 0.0101709)
(-0.000777904 -0.0573582 -0.0493016)
)
;

boundaryField
{
    wall
    {
        type            zeroGradient;
    }
    outlet
    {
        type            cyclic;
    }
    inlet
    {
        type            cyclic;
    }
    procBoundary3to2
    {
        type            processor;
        value           uniform (0 0 0);
    }
}


// ************************************************************************* //
