/*--------------------------------*- C++ -*----------------------------------*\
| =========                 |                                                 |
| \\      /  F ield         | OpenFOAM: The Open Source CFD Toolbox           |
|  \\    /   O peration     | Version:  2506                                  |
|   \\  /    A nd           | Website:  www.openfoam.com                      |
|    \\/     M anipulation  |                                                 |
\*---------------------------------------------------------------------------*/
FoamFile
{
    version     2.0;
    format      ascii;
    arch        "LSB;label=32;scalar=64";
    class       surfaceScalarField;
    location    "0.003";
    object      phi;
}
// * * * * * * * * * * * * * * * * * * * * * * * * * * * * * * * * * * * * * //

dimensions      [0 3 -1 0 0 0 0];

oriented        oriented;

internalField   nonuniform List<scalar> 
1200
(
0.00243091
1.0775e-05
1.81655e-05
0.00239748
2.88105e-05
5.46178e-05
0.00237678
1.83255e-05
1.75448e-05
0.00238867
1.84569e-05
-5.82327e-05
0.00239735
-1.37049e-05
-6.41509e-05
0.00251559
-8.07112e-05
-7.72992e-05
0.00258044
-6.30043e-05
-3.61741e-05
0.00246241
2.14086e-05
3.78528e-05
0.00236131
3.63149e-05
4.98863e-06
0.00232117
1.7286e-05
-2.89274e-05
0.00221564
3.57834e-05
3.99715e-05
0.00214405
9.89385e-06
5.54594e-05
0.00216874
-8.79065e-06
-7.43553e-06
0.00221763
7.25743e-06
-2.98427e-05
0.0022401
4.78229e-06
5.65418e-06
0.0022487
-1.54187e-05
6.15463e-05
0.002286
-1.34148e-05
2.53111e-05
0.00236438
1.89405e-05
-7.59165e-05
0.00247457
-9.34587e-06
-6.63505e-05
0.00255583
-6.20695e-05
2.85423e-06
0.00252717
-2.53058e-05
6.0957e-05
0.00244982
3.79393e-05
3.72713e-05
0.00239319
3.53069e-05
3.48845e-06
0.00232696
2.16181e-05
4.0994e-05
0.00225959
1.08188e-05
7.11778e-05
0.00220379
5.21957e-06
6.16506e-05
0.00223075
-7.37958e-06
-2.30248e-05
0.00230721
-1.70876e-05
-5.64274e-05
0.00232543
7.36865e-06
3.72228e-06
0.00236612
3.94375e-06
-2.64914e-05
0.00241796
-2.49155e-05
-4.56533e-05
-1.15885e-05
-8.78925e-07
0.00228194
1.01632e-05
1.69705e-05
0.0023043
1.56677e-05
5.67176e-06
0.00237076
-2.56769e-05
-2.4976e-05
0.00243909
-3.00683e-05
-5.46115e-05
0.00238914
-7.32447e-06
-1.48253e-05
0.0022372
1.07451e-06
2.1503e-06
0.00219327
-4.10217e-05
-4.44894e-05
0.00230055
-6.63396e-05
-4.76267e-05
0.0023257
2.02918e-06
-9.55194e-06
0.00229679
1.90376e-05
-3.70487e-06
0.00234931
-1.38292e-05
-4.28065e-06
0.00230808
5.72084e-06
5.17875e-05
0.00221664
2.66359e-05
5.10104e-05
0.00227236
3.13474e-06
-2.99276e-05
0.00240671
-3.98706e-05
-3.5868e-05
0.00241406
-2.19606e-05
5.1167e-05
0.00239743
-1.3356e-05
3.60988e-05
0.00256489
-5.4848e-05
-8.01263e-05
0.0026719
-1.79487e-05
-7.11679e-05
0.00253466
3.30344e-05
5.51939e-05
0.00237424
3.8009e-05
0.000103654
0.00238666
1.58939e-05
2.97963e-05
0.00239466
3.52515e-05
-5.96604e-06
0.00231422
7.27504e-05
2.3709e-05
0.00226194
3.93728e-05
3.08051e-05
0.00229292
-1.65386e-05
-7.60232e-06
0.00231772
-1.74731e-05
-2.09032e-05
0.00227554
8.42449e-06
2.15884e-05
0.00226401
1.58423e-05
3.97992e-06
0.00227558
1.12999e-05
-3.67001e-05
0.00226407
1.05616e-05
-9.38257e-06
1.07431e-06
1.98718e-05
0.00238468
-4.15304e-06
1.62957e-05
0.0024677
-4.22637e-05
-7.74439e-06
0.0024832
-3.35138e-05
-5.50286e-06
0.00251068
-4.03055e-05
-3.15993e-05
0.00252132
-2.97951e-05
-3.55279e-05
0.00250762
-1.80233e-05
-3.85448e-05
0.00240843
-1.26269e-06
-2.44456e-05
0.00224845
2.81699e-05
-6.68078e-06
0.00225952
3.07363e-07
-2.9978e-05
0.00236057
-4.60463e-05
-2.4105e-05
0.0023732
-1.04369e-05
1.74623e-06
0.00236534
3.07934e-05
2.37028e-05
0.00236541
4.21588e-05
2.56512e-05
0.00234369
2.95486e-05
2.12729e-06
0.00234217
-2.2938e-05
1.32061e-06
0.00236224
-2.96148e-05
1.57599e-05
0.00228525
2.43324e-05
1.31299e-05
0.00219145
1.23196e-05
-7.34333e-06
0.0022544
-3.62717e-05
-1.77595e-05
0.00234746
-2.37281e-05
8.49784e-06
0.00233279
3.14329e-05
5.23794e-05
0.00228575
3.80764e-05
4.80721e-05
0.00229456
2.45149e-05
3.03168e-05
0.00235088
6.70855e-06
4.40835e-05
0.00234578
9.8853e-06
4.31095e-05
0.00231981
2.08455e-05
-4.58007e-05
0.00233159
1.69729e-06
-6.99283e-05
0.00230154
-4.3305e-06
3.81657e-05
0.00228054
5.88303e-06
3.60526e-05
0.0023623
8.26996e-07
-5.4512e-05
0.00242885
4.2758e-06
-3.45294e-05
2.5101e-05
3.22784e-05
0.00231861
-1.85787e-05
-3.39405e-05
0.00232066
-1.53597e-05
2.91016e-06
0.00229831
-4.84901e-06
1.9764e-05
0.00226839
-2.87579e-05
2.22213e-05
0.00229038
-5.64386e-05
-2.47191e-05
0.00230567
-3.2346e-05
-7.27842e-05
0.00221178
2.79844e-05
-2.3257e-05
0.00218965
1.21421e-05
-6.54675e-07
0.00224826
-2.75995e-05
-4.70668e-06
0.00223151
-6.37128e-06
2.68679e-05
0.00223442
1.08004e-05
4.34444e-06
0.00227318
1.38033e-05
3.37009e-06
0.00229889
2.39027e-05
1.63293e-05
0.00230829
1.41475e-05
-2.9289e-07
0.00224837
3.1053e-06
1.37444e-05
0.00220462
1.7659e-05
-5.19856e-06
0.00227512
1.77672e-06
-4.11028e-05
0.00236913
-3.8088e-05
-2.10101e-05
0.0023866
-3.83307e-05
5.36437e-06
0.00237117
-8.69989e-06
1.13903e-05
0.00233072
4.15814e-05
3.79957e-05
0.00227912
4.36959e-05
5.08257e-05
0.00232158
-8.19615e-06
1.57498e-05
0.00238329
-1.7407e-05
-4.77146e-06
0.00242774
-3.05739e-05
-5.12821e-06
0.00252794
-4.78176e-05
-5.7952e-05
0.0025855
-1.02534e-05
-5.61526e-05
0.0025052
5.90262e-05
2.59951e-05
0.00234351
0.000110521
4.35722e-05
0.00226421
4.09782e-05
3.46055e-05
0.00226252
-2.64243e-05
3.15496e-05
-8.1648e-06
-1.48235e-05
0.0023497
1.78968e-05
1.12731e-05
0.0022942
1.87418e-05
2.71467e-05
0.00232646
-1.07005e-05
6.82239e-06
0.00235511
-2.80936e-05
-2.56293e-06
0.0023055
-3.1685e-05
4.71155e-06
0.00230678
-3.21247e-05
-2.45112e-05
0.00238003
-9.17994e-07
-7.10327e-05
0.00233211
1.65454e-05
-3.73626e-05
0.00221366
2.40723e-05
2.87742e-05
0.0021932
3.4138e-05
3.56891e-05
0.00220472
2.23536e-05
3.01433e-05
0.00220181
2.10243e-05
2.29423e-05
0.0022628
-1.2879e-05
-1.2498e-05
0.00229636
-2.51774e-05
-1.71542e-05
0.00225734
1.69776e-06
1.95572e-05
0.00229813
-6.10519e-06
1.02808e-05
0.0024097
-2.34875e-05
-3.88576e-05
0.002392
5.64197e-06
-1.34738e-05
0.00227032
4.37365e-05
2.30746e-05
0.00221693
3.48662e-05
1.09153e-05
0.00225732
7.03966e-06
6.42453e-06
0.00228904
9.07204e-06
-3.16487e-06
0.00234924
-6.17136e-05
-1.76308e-05
0.00250226
-0.000120933
-2.71414e-05
0.00249688
-3.29178e-05
1.00654e-05
0.00234851
3.78702e-05
1.73525e-05
0.00230256
2.07831e-05
1.20094e-05
0.00237819
-3.91356e-06
1.29586e-05
0.00255287
-1.77411e-05
-4.49903e-05
0.0025834
2.95139e-05
-2.08455e-05
0.00247762
4.84293e-05
2.82406e-05
1.87598e-05
-2.48061e-07
0.00231655
2.34737e-05
1.10473e-06
0.00226093
1.34634e-05
3.29942e-05
0.00222419
-1.65061e-05
5.46346e-05
0.00227696
-4.84626e-05
1.16175e-05
0.0023302
-3.07536e-05
-4.09793e-05
0.00235996
-2.74056e-05
-5.33137e-05
0.00250233
-5.85204e-05
-9.69012e-05
0.00247814
-8.76857e-06
-5.02638e-05
0.00232043
5.94578e-05
4.86931e-05
0.0023088
4.70801e-05
5.07171e-05
0.00234681
5.00116e-05
7.19321e-07
0.00232635
7.24924e-05
-1.70958e-05
0.00226967
1.50261e-05
1.86113e-05
0.00226104
-5.1283e-05
3.37228e-05
0.0023225
-4.4748e-05
-7.15708e-06
0.00236203
-4.56775e-05
-8.58195e-08
0.00235112
-2.2198e-05
4.1082e-05
0.00237954
1.9928e-05
1.5073e-05
0.0024091
6.23672e-05
-3.53368e-05
0.00239978
4.63527e-05
-8.22456e-06
0.00243514
-3.38206e-05
1.07144e-05
0.00256276
-7.60208e-05
-4.23219e-05
0.00254552
-3.05005e-05
-2.57829e-05
0.00235687
-1.33305e-06
4.59861e-05
0.00225612
-6.84611e-06
4.15721e-05
0.00230826
3.21195e-06
1.56908e-05
0.00237626
7.47093e-06
8.83572e-06
0.00229767
4.00105e-05
-8.78838e-07
0.00225772
4.19086e-07
-4.29181e-05
0.00232295
-2.06518e-05
-2.21929e-05
0.00235601
3.36027e-05
2.01548e-05
3.56461e-05
-2.9359e-06
0.00234345
5.15323e-05
3.42243e-05
0.0023252
1.2708e-05
-3.02092e-06
0.00232262
-2.99262e-05
1.50608e-05
0.00227279
-3.85417e-05
5.69344e-05
0.002292
-4.59691e-05
6.92899e-06
0.00235873
-3.69234e-05
-6.00663e-05
0.00236153
-1.04922e-05
-9.26245e-05
0.00233779
-5.66667e-06
-6.52616e-05
0.00231626
3.65083e-05
-3.41662e-07
0.00232979
5.44044e-05
2.83246e-05
0.00238693
3.22382e-05
3.55893e-05
0.00248043
3.38172e-05
-1.80717e-05
0.00243098
7.3099e-05
-1.15582e-05
0.00225142
5.67039e-05
4.80508e-05
0.00220247
-3.89771e-05
3.16154e-05
0.0022182
-8.85896e-05
1.62893e-05
0.00222421
-3.89753e-05
-8.81811e-06
0.00227429
4.10914e-06
-1.18759e-05
0.0023801
-2.63108e-06
5.52129e-07
0.00252794
-4.04099e-05
-2.58723e-05
0.00251488
3.45515e-06
-1.15397e-05
0.00239213
1.86135e-05
1.98627e-05
0.00238874
-2.74232e-05
1.2173e-05
0.00237439
-8.56745e-07
3.17741e-05
0.00237419
1.60052e-05
-1.04791e-06
0.00240378
2.18849e-05
2.91019e-07
0.00240028
2.16084e-06
5.96144e-05
0.00250494
-5.38343e-05
3.8484e-07
0.00254286
-2.40716e-05
-7.15453e-05
0.00246086
3.69831e-05
-3.28766e-05
0.00246732
2.83626e-05
-2.09276e-05
3.14254e-05
2.00152e-05
0.00245898
-4.34323e-06
0.00241176
1.6699e-05
0.00230904
3.86595e-05
0.00224763
8.61723e-06
0.0022163
-1.59577e-05
0.00219082
-2.22028e-05
0.00220222
-2.81124e-05
0.00221308
-2.74999e-05
0.002269
-1.7867e-05
0.00235487
3.52391e-07
0.00240123
3.64655e-05
0.00249369
-7.77758e-06
0.00261225
-2.7717e-05
0.00260145
5.57541e-05
0.00247326
6.96667e-05
0.002325
3.16603e-06
0.00224143
-1.58215e-05
0.00229113
-2.74811e-05
0.00233459
6.27912e-06
0.00227339
3.34778e-05
0.00228225
-1.91336e-05
0.00235566
-3.0287e-05
0.0023127
5.13467e-05
0.00226656
5.7202e-05
0.00237002
-3.39008e-05
0.0025419
-6.05363e-05
0.00258038
1.38369e-05
0.00241724
5.97639e-05
0.00229094
2.58262e-05
0.00235404
-5.24174e-05
0.00242713
-5.89798e-05
-4.39068e-06
0.00225905
-9.85705e-07
0.00233349
-1.9841e-05
0.00236884
-1.78016e-05
0.00228888
2.17058e-05
0.00219218
3.25525e-05
0.00212137
-6.53701e-06
0.00214608
-6.08966e-05
0.00222837
-4.44465e-05
0.0022123
2.1034e-05
0.0021567
2.6672e-05
0.00220352
-6.89305e-06
0.00225727
1.69087e-06
0.00221278
3.70462e-05
0.00217383
9.09361e-06
0.00220646
-2.69702e-05
0.00229289
-2.48997e-05
0.00232941
-1.1207e-05
0.00224003
1.33524e-05
0.00216432
9.34287e-06
0.00215695
1.02314e-05
0.00220321
1.47085e-05
0.00221523
2.52035e-05
0.0021941
2.46126e-05
0.00222816
6.93894e-06
0.00232684
-2.75214e-05
0.00245326
-6.47607e-05
0.00243926
-9.06317e-06
0.002335
4.78183e-05
0.0023299
8.78541e-06
0.00230607
-2.67993e-06
0.00224762
1.27975e-05
6.78594e-06
0.0022452
1.28963e-05
0.00223889
-7.8805e-06
0.00220956
-1.34597e-05
0.00218158
-4.97524e-06
0.00221671
-1.74119e-05
0.00224126
-2.9016e-05
0.00215568
-1.98575e-05
0.00208574
-2.21257e-05
0.00211256
-1.54168e-05
0.00213303
2.49277e-06
0.0021301
-8.24274e-06
0.0021997
-1.61489e-05
0.00228702
7.46984e-07
0.00224628
1.98837e-05
0.00218939
-5.97798e-06
0.00226084
-4.51894e-05
0.00231735
-3.16018e-05
0.00223658
1.3951e-05
0.00215963
1.50974e-05
0.0022324
-7.37477e-06
0.00235501
-4.2373e-06
0.00237419
3.57583e-05
0.00232025
7.25629e-05
0.00225388
9.69922e-05
0.00222371
3.34807e-05
0.00222631
-7.49557e-05
0.00225785
-6.14989e-05
0.00230615
2.10298e-05
0.00227908
3.97652e-05
0.00224109
-1.41174e-06
0.00223929
5.20883e-06
2.38281e-05
0.00240876
-4.75271e-05
0.00241678
-2.37203e-05
0.00240454
-6.74227e-06
0.00235464
1.33393e-05
0.00231782
-1.60572e-05
0.00229834
-4.80402e-05
0.00226642
-1.2416e-05
0.00220056
3.70487e-05
0.00213029
2.48602e-05
0.00211316
-4.54722e-06
0.00211961
-1.29388e-05
0.00211287
1.43049e-05
0.00210662
3.26381e-05
0.00211935
9.29012e-06
0.00212354
-8.84639e-06
0.00212711
-3.30183e-05
0.00213715
-2.84819e-05
0.00215341
-9.65941e-06
0.00216144
-1.07015e-05
0.002164
-1.45185e-06
0.00219801
1.41128e-05
0.00225009
3.17649e-05
0.00234511
7.81859e-06
0.0025366
-5.0454e-05
0.00265068
-3.75279e-05
0.00251252
1.73634e-05
0.00235879
2.22484e-05
0.00242151
-3.5817e-06
0.00248017
1.71638e-05
0.0023448
7.94428e-05
0.00225251
6.29374e-05
-2.35737e-05
0.00228499
1.48596e-05
0.00226286
1.35121e-06
0.0022886
-1.27206e-05
0.0023699
-4.57266e-05
0.00234756
-1.84319e-05
0.00220753
1.91231e-05
0.0022004
-2.85822e-05
0.00227982
-4.30374e-05
0.00229783
2.07739e-06
0.00230149
1.86767e-05
0.00224339
4.95049e-05
0.00223002
3.10587e-05
0.00229245
-1.34534e-05
0.00230232
-8.79667e-07
0.00228903
1.816e-05
0.00222266
2.80696e-05
0.00215087
2.20844e-06
0.00214511
-2.48951e-05
0.00215415
-1.44019e-05
0.00216371
3.77533e-07
0.00220566
1.01417e-05
0.0023048
-1.66073e-05
0.0023669
-3.85592e-05
0.00234749
-3.58257e-05
0.00232453
-1.97596e-05
0.00225495
2.90213e-05
0.00216589
5.51366e-05
0.00214459
4.36787e-05
0.00219501
1.03061e-05
0.00232037
-1.13175e-05
0.00242747
-1.26624e-05
7.68881e-06
0.00223377
7.50224e-06
0.00222679
3.54715e-05
0.00218024
4.06104e-05
0.00215833
-2.63848e-05
0.00222261
-7.79967e-05
0.00226837
-5.11824e-05
0.0021847
-1.60017e-05
0.00210808
-3.77704e-06
0.00211077
2.81544e-05
0.00212694
3.81933e-05
0.00221086
-4.28894e-06
0.0022768
-1.20005e-05
0.00222667
2.41406e-05
0.00218856
2.01262e-05
0.00225378
-2.75238e-05
0.00230221
-1.0155e-05
0.00221235
5.31982e-05
0.00215221
2.17677e-05
0.00217699
-1.61026e-05
0.00217516
1.30917e-05
0.00218022
1.14941e-05
0.00220244
-4.20088e-05
0.002205
-5.86656e-05
0.00218071
-3.86808e-05
0.00216475
6.1906e-06
0.00218114
2.99698e-05
0.00223914
9.13145e-06
0.00229641
-6.16954e-07
0.00226471
-3.00442e-06
0.00221284
1.96698e-05
0.00220667
2.17241e-05
-1.05208e-06
0.00225604
5.41639e-05
0.00236017
-3.5659e-05
0.00251449
-5.90691e-05
0.00247752
2.21095e-05
0.00232893
2.96368e-05
0.00228107
-5.66601e-05
0.0022126
-4.45226e-05
0.00215742
1.09942e-06
0.00223032
3.951e-06
0.00229584
2.33972e-05
0.00221651
7.57709e-05
0.00213029
5.71125e-05
0.00218695
-1.39281e-05
0.00226359
-2.27593e-05
0.00223087
-1.9952e-06
0.00225409
-3.34285e-05
0.0024277
-7.93372e-05
0.00244271
2.18241e-05
0.00228741
0.000103911
0.0022846
7.59841e-06
0.00234878
-4.19789e-05
0.00227865
-1.41983e-05
0.00220658
-1.23954e-05
0.00223304
-1.9181e-05
0.00232157
-4.07642e-05
0.00237929
-1.20692e-05
0.00234508
5.21779e-05
0.00233025
1.33073e-05
0.00231211
-2.78134e-05
0.00232616
-1.65688e-05
0.00236381
4.157e-06
5.82639e-05
0.00238082
1.76375e-05
0.00231024
3.19534e-05
0.00228326
-1.70887e-05
0.00245781
-9.54938e-05
0.00255922
-6.49151e-05
0.00242932
1.31823e-05
0.00225014
4.194e-05
0.00215949
2.64359e-05
0.00215119
1.18679e-05
0.00219176
1.11452e-05
0.0022773
2.58339e-05
0.00226613
5.02076e-05
0.00219245
4.81877e-05
0.00217074
4.7025e-05
0.00223355
-3.32244e-05
0.00231514
-9.8736e-05
0.00226637
-3.93605e-05
0.00228743
-1.11474e-05
0.00239302
-1.13179e-06
0.00235245
2.22409e-05
0.0023146
-1.56628e-05
0.00235145
-3.11758e-05
0.0023299
2.13602e-05
0.00231441
2.80408e-05
0.00228933
-1.67594e-05
0.00232153
-4.40246e-05
0.00248864
-5.54427e-05
0.00248439
1.79152e-05
0.00230642
7.86196e-05
0.00223936
1.75876e-05
0.00223504
-1.24563e-05
3.228e-06
0.00224341
0.00229206
0.0023136
0.00222668
0.00214581
0.00213676
0.00215061
0.00214954
0.00214354
0.00215495
0.00221725
0.00225967
0.00228014
0.00238289
0.00241937
0.00232379
0.00226858
0.00222992
0.00223507
0.00229077
0.00225597
0.00219448
0.00226718
0.00235242
0.00230167
0.00219711
0.00215549
0.00223317
0.00233756
0.00230274
0.00223127
)
;

boundaryField
{
    wall
    {
        type            calculated;
        value           nonuniform List<scalar> 
384
(
7.64365e-09
-5.98005e-09
1.48838e-07
1.12351e-08
1.68007e-08
5.70978e-09
1.52255e-08
-8.64214e-18
1.49774e-08
2.56808e-08
7.77341e-08
-2.40361e-08
1.01968e-08
-4.18676e-09
-5.46118e-08
5.77403e-09
4.06478e-09
8.25894e-09
1.54012e-08
1.17708e-09
3.44638e-08
-8.544e-10
6.00755e-08
1.51062e-08
1.38143e-08
5.32019e-08
-7.21218e-09
-1.43747e-08
1.14254e-08
8.38379e-08
-5.72515e-09
4.21798e-08
1.00659e-09
1.48482e-08
-6.70213e-08
-1.52502e-09
-6.77744e-09
-2.171e-08
6.27681e-08
-3.06863e-09
4.64745e-08
7.07308e-08
-4.1654e-08
7.62906e-08
3.75887e-08
2.89327e-08
-1.33655e-09
2.83897e-08
1.20922e-08
5.14334e-08
3.941e-08
3.89329e-08
5.77346e-08
9.22555e-08
9.19201e-08
-1.54578e-08
1.09452e-09
-1.6595e-09
-1.34898e-09
1.57849e-08
-5.47664e-09
3.35598e-08
4.41034e-08
-2.6437e-10
2.26053e-08
7.39267e-08
1.36648e-08
6.38309e-08
3.03183e-09
3.06309e-09
5.12331e-08
7.8858e-10
9.39321e-09
2.68422e-09
6.28282e-08
-1.49033e-08
8.05278e-09
-1.22078e-08
-7.15954e-10
6.43884e-08
4.25155e-08
2.05166e-09
-4.68876e-09
3.67361e-10
1.51045e-08
-4.5035e-09
-1.34129e-08
1.56336e-09
1.46586e-08
2.40312e-08
-1.27529e-08
-1.10438e-08
5.87885e-08
3.13669e-09
1.01195e-08
1.55671e-08
8.1059e-09
-4.6689e-09
1.50464e-08
-1.1134e-08
3.61569e-08
2.06712e-08
3.67944e-09
-4.4767e-09
1.95536e-08
2.64161e-08
-7.35131e-09
1.14154e-08
-4.18897e-08
-3.23862e-08
-2.34082e-08
1.86288e-08
-6.26314e-09
2.59064e-08
-6.84489e-09
2.22805e-08
1.54459e-08
4.06069e-08
3.0274e-08
-3.92141e-08
1.20491e-08
8.76347e-09
1.81823e-08
8.59129e-08
8.02187e-08
-3.15985e-08
1.09889e-08
1.29394e-08
1.87106e-09
-1.54909e-08
-2.23073e-08
-2.47246e-09
5.59183e-09
6.44981e-09
-3.03917e-08
2.97696e-08
1.04062e-07
4.12026e-08
4.43727e-09
-1.17556e-08
5.16149e-09
7.87857e-10
3.89935e-08
2.71943e-08
1.74917e-08
2.47765e-08
1.12067e-08
1.60091e-08
-6.09206e-09
-4.3471e-08
5.7934e-09
5.00015e-09
-1.8628e-09
2.79234e-08
1.23954e-08
9.07202e-09
3.36933e-08
7.36659e-08
5.22867e-08
-1.29701e-08
-8.30122e-09
-3.24383e-09
1.49306e-08
8.78061e-09
1.79031e-08
5.73137e-09
-3.47681e-10
-3.49432e-09
3.83713e-08
5.96302e-08
-8.91578e-09
6.054e-08
1.2734e-08
0
-1.38249e-08
1.78247e-08
6.95657e-09
2.27682e-08
3.90558e-08
3.09267e-08
-8.10735e-08
1.80444e-08
-3.3819e-08
6.64182e-09
-6.22714e-18
2.47532e-08
3.78319e-08
1.24041e-08
-3.41974e-09
2.09287e-08
4.43636e-08
8.59895e-09
1.89535e-08
-2.19599e-08
4.34788e-08
5.64032e-08
8.33833e-08
6.00558e-09
2.70072e-08
8.2958e-08
-5.79799e-09
-1.45428e-08
3.49395e-08
-2.4778e-08
6.38527e-09
9.71487e-09
4.90722e-08
5.86681e-09
2.07691e-08
-5.82195e-10
5.2295e-08
2.15329e-08
1.46261e-08
-8.28681e-10
1.20124e-07
1.44754e-08
1.61215e-08
7.82552e-08
5.72704e-08
2.54594e-08
-8.69268e-09
2.55052e-08
2.47478e-08
-5.67461e-09
3.44663e-08
6.23284e-08
8.18141e-12
1.89118e-08
1.28051e-08
2.65368e-08
0
6.00011e-08
2.00063e-08
2.17207e-08
2.47807e-10
-1.63209e-09
4.41942e-08
1.64233e-09
1.8156e-08
-1.56803e-08
2.11645e-10
6.7265e-09
3.40979e-08
5.75087e-08
1.73698e-08
6.76049e-08
7.74177e-09
1.02034e-09
4.6171e-08
1.24046e-08
0
4.71265e-08
8.48629e-09
-4.58777e-08
9.29903e-09
-7.64022e-10
0
1.16226e-15
0
6.30821e-16
-2.13246e-15
3.95657e-10
0
-2.3066e-15
0
-3.04092e-15
0
-2.19332e-14
0
-1.33394e-09
0
7.08076e-09
0
6.56699e-10
0
-1.9343e-15
0
2.02836e-14
0
1.81423e-14
0
5.56194e-15
0
8.13156e-15
0
-3.09107e-15
0
-3.16123e-15
0
-2.87614e-10
0
9.15938e-14
0
3.08447e-15
0
-9.65334e-15
0
-3.21713e-14
0
-2.26344e-14
0
-1.93392e-14
0
-2.96216e-17
0
2.19092e-14
0
2.95412e-14
0
1.47614e-08
0
-5.17703e-15
0
-3.64072e-14
0
-1.32889e-14
0
-6.34781e-17
0
-3.8302e-10
0
-9.00433e-10
0
-6.7344e-11
0
1.09938e-08
0
3.53741e-14
0
1.36239e-14
0
1.36566e-14
0
-1.25868e-14
0
-6.17105e-10
0
-1.62879e-09
0
2.33472e-08
0
3.65721e-16
0
-4.27265e-15
0
1.11529e-14
0
1.0376e-08
0
3.42073e-14
0
2.4365e-14
0
2.84185e-14
0
1.71942e-14
0
2.84699e-16
0
2.94126e-08
0
-2.34814e-15
0
1.03198e-08
0
4.94377e-14
0
3.34881e-09
0
1.88557e-14
0
-3.00872e-09
0
6.09401e-10
0
-1.37818e-10
7.66868e-15
6.48478e-14
0
2.31162e-14
0
3.27722e-08
0
-1.32966e-09
)
;
    }
    outlet
    {
        type            cyclic;
        value           nonuniform List<scalar> 
16
(
0.0024195
0.00227123
0.00238011
0.00228228
0.00242569
0.0023562
0.00243881
0.00244016
0.00223991
0.00224211
0.00233219
0.00238133
0.00221516
0.0023016
0.00231008
0.00223011
)
;
    }
    inlet
    {
        type            cyclic;
        value           nonuniform List<scalar> 
16
(
-0.0024195
-0.00227123
-0.00238011
-0.00228228
-0.00242569
-0.0023562
-0.00243881
-0.00244016
-0.00223991
-0.00224211
-0.00233219
-0.00238133
-0.00221516
-0.0023016
-0.00231008
-0.00223011
)
;
    }
    procBoundary3to2
    {
        type            processor;
        value           nonuniform List<scalar> 
256
(
-4.03428e-05
-4.99974e-05
-1.51712e-05
2.78834e-05
6.91785e-05
3.97716e-05
3.432e-05
5.87703e-05
5.9796e-05
5.17834e-05
2.9775e-05
6.24135e-06
-8.47201e-06
-2.62955e-05
-3.29084e-05
-5.47344e-05
-4.91891e-05
-2.14099e-05
-3.44953e-05
-2.20398e-05
-6.9873e-06
2.13086e-06
1.78404e-05
3.61909e-06
-1.46321e-05
-1.10653e-05
3.44768e-06
-2.94928e-06
-2.9315e-05
-1.814e-05
1.87338e-05
1.09188e-05
-2.70595e-05
-1.48965e-05
2.52089e-06
3.48047e-05
5.83993e-05
6.79993e-05
6.6444e-05
2.8088e-05
1.86949e-05
3.08578e-05
1.37868e-06
-6.38503e-06
5.0005e-06
-2.16671e-05
-5.38312e-05
-5.19815e-05
-1.95264e-05
-1.35383e-05
-2.72408e-05
-1.30559e-05
-6.55471e-06
-2.01726e-05
-1.97203e-06
5.59509e-06
-7.08275e-06
-1.61883e-06
6.20199e-06
-4.92165e-06
-9.18621e-07
1.77674e-05
-1.45868e-05
-3.96951e-05
-6.54327e-06
-1.7346e-05
-2.1596e-06
1.43532e-05
4.7357e-05
7.13436e-05
8.38831e-05
7.21468e-05
2.06285e-05
-1.1854e-05
-1.77701e-05
-4.09146e-05
-4.12516e-05
-6.82165e-06
-1.67237e-05
-2.81842e-05
2.61721e-05
3.3984e-05
-2.68687e-05
-4.47967e-05
-3.11363e-05
-2.3212e-05
-2.83885e-05
-3.43684e-05
-8.51585e-06
3.43878e-05
3.89713e-05
4.64175e-06
-5.09339e-06
-1.6772e-05
-2.5734e-05
-7.57239e-06
1.20342e-05
-3.18646e-05
-2.60773e-05
-3.84303e-06
2.93709e-05
7.18175e-05
8.79004e-05
3.88061e-05
-2.59913e-05
-4.97952e-05
-2.84922e-05
-2.51385e-05
-2.37864e-05
6.29615e-06
2.01323e-05
1.6779e-06
-6.8422e-06
-2.25891e-05
-2.0774e-05
-1.09911e-05
-7.69588e-06
-4.84226e-06
-2.5497e-05
-3.28305e-05
1.13691e-06
2.64202e-05
1.05461e-05
-9.05979e-06
1.34877e-05
4.54369e-06
8.31893e-07
2.83325e-05
2.82403e-05
-5.74792e-06
-3.32341e-05
-2.67439e-05
2.01418e-05
2.30091e-05
2.66849e-05
8.0877e-05
3.80091e-05
-5.57441e-05
-5.32157e-05
-2.72536e-05
-1.17064e-05
2.29172e-05
2.08727e-05
-2.73045e-05
-4.74462e-05
-1.25609e-05
1.65419e-05
-1.09353e-06
-1.22729e-05
6.06564e-06
1.09548e-05
-2.23599e-05
-2.33489e-06
4.53241e-05
2.90733e-06
-2.56545e-05
-1.42452e-06
1.78267e-06
2.68489e-06
2.52533e-05
3.29681e-05
2.79063e-05
-1.20859e-05
-4.40233e-05
-1.31866e-05
1.88384e-05
1.21253e-05
9.97732e-05
7.363e-05
-5.20306e-05
-6.63838e-05
-1.39105e-05
1.01561e-05
1.01705e-06
-7.85347e-06
1.22349e-07
-3.14637e-05
-5.77756e-05
-1.2856e-05
6.06533e-06
-5.21865e-06
-2.09362e-07
1.18139e-05
2.30676e-05
3.31044e-05
-3.31757e-05
-6.35175e-05
3.55434e-05
6.47043e-05
7.13209e-06
-3.83861e-05
-1.41487e-05
3.30716e-05
2.20346e-05
9.32833e-07
-1.70212e-05
-1.09233e-05
2.85438e-06
4.17973e-05
8.59008e-05
4.48193e-05
-4.91851e-05
-7.49536e-05
-3.67512e-05
2.93458e-06
2.35244e-05
1.15603e-05
1.08975e-05
1.95847e-05
-2.23884e-05
-4.13647e-05
-3.52055e-05
-1.26691e-05
8.25071e-06
-1.18664e-05
-1.78911e-05
-2.16033e-05
-4.85612e-05
-5.07991e-05
-1.12068e-05
5.81198e-05
5.72431e-05
1.97052e-05
1.27186e-05
3.70543e-05
4.32315e-05
3.41341e-05
1.42458e-05
1.32023e-06
1.07585e-05
6.22299e-06
1.09761e-05
-1.54816e-06
-3.18125e-05
-5.05961e-05
-5.08619e-05
-1.77474e-05
1.17517e-05
1.95525e-05
5.65026e-05
6.04186e-05
-1.81182e-05
-5.2361e-05
-1.26969e-05
1.37365e-05
-2.45088e-05
-3.58128e-05
-1.19198e-05
-5.355e-05
-8.94638e-05
-5.0155e-05
4.95404e-05
7.63994e-05
2.6306e-05
1.42476e-05
2.27904e-05
)
;
    }
}


// ************************************************************************* //
