/*--------------------------------*- C++ -*----------------------------------*\
| =========                 |                                                 |
| \\      /  F ield         | OpenFOAM: The Open Source CFD Toolbox           |
|  \\    /   O peration     | Version:  2506                                  |
|   \\  /    A nd           | Website:  www.openfoam.com                      |
|    \\/     M anipulation  |                                                 |
\*---------------------------------------------------------------------------*/
FoamFile
{
    version     2.0;
    format      ascii;
    arch        "LSB;label=32;scalar=64";
    class       volScalarField;
    location    "0.003";
    object      voidfraction;
}
// * * * * * * * * * * * * * * * * * * * * * * * * * * * * * * * * * * * * * //

dimensions      [0 0 0 0 0 0 0];

internalField   nonuniform List<scalar> 
512
(
1
1
0.999824
1
1
1
1
1
1
1
1
1
1
1
1
1
1
1
1
1
1
1
1
1
1
1
1
1
1
1
1
1
1
1
1
1
1
1
1
1
1
1
1
1
1
0.999908
1
1
1
1
1
1
1
1
1
1
1
1
1
1
1
1
1
1
1
1
1
1
1
1
1
1
1
1
1
1
1
1
1
1
1
0.999824
1
1
1
1
1
1
1
1
1
1
1
1
1
1
1
1
1
1
1
1
1
1
1
1
1
1
1
1
1
1
1
1
1
1
1
1
1
1
1
0.999991
1
1
1
0.999824
1
1
1
1
1
1
0.999908
1
1
1
1
1
1
1
1
1
1
1
1
0.999991
0.999824
1
1
1
0.999945
1
1
1
1
1
1
1
1
1
1
1
0.999991
1
1
1
0.999908
1
1
1
1
1
1
1
1
1
1
1
1
1
1
1
1
1
0.999824
1
1
1
1
1
1
1
1
1
1
1
1
1
1
1
1
1
1
1
1
1
0.999824
1
1
1
1
1
1
1
1
1
1
1
1
1
1
1
1
1
1
1
1
1
1
1
1
1
1
1
1
1
1
1
1
1
1
1
1
1
1
1
1
1
1
1
1
1
0.999824
1
1
1
0.999196
0.998752
0.999103
0.999732
0.999371
0.998743
0.998928
0.998484
0.999002
0.999381
0.998928
0.999177
0.998678
0.998928
0.999464
0.999196
0.998096
0.998428
0.999464
0.999196
0.999464
0.99866
0.99768
0.999732
0.998197
0.998586
0.999196
0.999658
0.999011
0.998928
0.999732
0.99866
0.999196
0.998835
0.999251
0.998928
0.998946
0.99865
0.99865
0.999103
0.997818
0.998724
0.998373
0.999464
0.999122
0.999039
0.999288
0.998835
0.998382
0.998086
0.998872
0.99866
0.999103
0.999288
0.998549
0.999196
0.998928
0.998918
0.999205
0.998928
0.99865
0.999639
0.998669
0.999205
0.998928
0.997855
0.999307
0.999556
0.999464
0.999196
0.998401
0.998123
0.999464
0.99866
0.998752
0.99804
0.999427
0.998937
0.999196
0.998484
0.999732
0.998928
0.999408
0.99866
0.999464
0.999196
0.998955
0.999455
0.998928
0.999011
0.998493
0.999039
0.999723
0.999834
0.998105
1
0.999732
0.999732
0.999113
0.999076
0.99866
0.998567
0.999297
0.998724
0.998401
0.999455
0.999288
0.998549
0.999029
0.999723
0.998928
0.998567
0.998928
0.999316
0.998761
0.997865
0.998937
0.998928
0.998835
0.999732
0.998928
0.998031
0.998928
0.997643
0.998928
0.998835
0.999196
0.999732
0.999103
0.998123
0.998752
0.998872
0.999288
0.998891
0.998567
0.99902
0.998299
0.999288
0.997855
0.997855
0.999196
0.999464
0.998401
0.998918
0.999482
0.998743
0.999381
0.998392
0.998641
0.998392
0.999076
0.999196
0.998392
0.998946
0.998484
0.998586
0.999455
0.999251
0.999732
0.99866
0.999076
0.997597
0.999103
0.998974
0.999464
0.998724
0.998724
0.99914
0.99866
0.99939
0.999057
0.999464
0.99866
0.998928
0.999187
0.99841
0.998918
0.998937
0.999196
0.998123
0.999464
1
0.999464
0.999676
0.999538
0.999455
0.999991
0.999455
0.998854
0.999501
0.999196
0.99866
0.99914
0.999464
0.998133
0.998604
0.998928
0.999011
0.999168
0.998549
0.999177
0.998817
0.999159
0.999464
0.999639
0.999196
0.997865
0.999085
0.998872
0.99866
0.998928
0.999464
0.999732
0.998835
0.99866
0.998715
0.998225
0.998123
0.998807
0.999408
1
0.998401
0.998928
0.998567
0.999732
0.999455
0.998613
0.998983
0.999473
0.998928
0.999473
0.998678
0.998946
0.998484
0.999196
0.999464
0.99902
0.998983
0.999408
0.999464
0.999251
0.99866
0.999732
0.99866
0.998392
0.998752
0.99866
0.998928
0.999196
0.998123
0.998586
0.998105
0.999371
0.998918
0.997587
0.999556
)
;

boundaryField
{
    wall
    {
        type            zeroGradient;
    }
    outlet
    {
        type            cyclic;
    }
    inlet
    {
        type            cyclic;
    }
    procBoundary3to2
    {
        type            processor;
        value           uniform 1;
    }
}


// ************************************************************************* //
