/*--------------------------------*- C++ -*----------------------------------*\
| =========                 |                                                 |
| \\      /  F ield         | OpenFOAM: The Open Source CFD Toolbox           |
|  \\    /   O peration     | Version:  2506                                  |
|   \\  /    A nd           | Website:  www.openfoam.com                      |
|    \\/     M anipulation  |                                                 |
\*---------------------------------------------------------------------------*/
FoamFile
{
    version     2.0;
    format      ascii;
    arch        "LSB;label=32;scalar=64";
    class       surfaceScalarField;
    location    "0.09";
    object      phi;
}
// * * * * * * * * * * * * * * * * * * * * * * * * * * * * * * * * * * * * * //

dimensions      [0 3 -1 0 0 0 0];

oriented        oriented;

internalField   nonuniform List<scalar> 
3120
(
8.05639e-10
-8.93894e-10
5.28189e-08
2.27246e-09
-9.09515e-10
-4.78262e-09
-6.71452e-10
6.62922e-08
-5.7021e-09
-7.68618e-10
3.12384e-09
3.95426e-08
7.31728e-09
-1.53508e-11
5.10563e-08
-9.07011e-10
-2.76157e-10
-3.00448e-09
6.30528e-08
-6.64297e-09
-3.37174e-09
-2.70069e-09
6.12979e-08
-4.71407e-09
-8.99574e-09
6.77151e-08
-2.1571e-09
4.65827e-08
7.16351e-10
1.82068e-10
5.92152e-08
-7.88487e-09
-4.34835e-09
5.25328e-09
5.15805e-08
1.40808e-09
4.42247e-09
3.49054e-08
1.02603e-08
4.09394e-08
6.6218e-09
5.46217e-08
-3.15732e-09
-8.20057e-09
8.93522e-08
5.18133e-09
4.80462e-08
7.75068e-08
2.17132e-09
-2.87584e-09
4.63307e-08
6.17295e-10
6.57542e-09
8.62812e-11
-2.43922e-09
6.79344e-08
2.88212e-09
-1.67854e-10
-1.42192e-09
3.89773e-08
2.24132e-09
-1.9699e-09
5.42224e-08
2.73963e-09
-2.54236e-09
-4.79355e-09
6.19968e-08
5.51607e-09
-3.02847e-09
1.67573e-09
5.7669e-08
1.76736e-09
2.04999e-09
5.94474e-08
1.23706e-09
4.68598e-08
2.09078e-09
-1.27647e-09
5.15886e-08
2.01874e-09
-1.32867e-09
-1.28471e-08
6.95228e-08
9.82226e-10
-2.15503e-09
3.67995e-08
-3.4243e-09
4.79173e-08
-9.54268e-09
5.87856e-08
5.18033e-09
7.45455e-09
4.81701e-08
3.33106e-09
4.32377e-08
7.20118e-08
-4.79187e-10
-3.61541e-09
5.98985e-08
-6.11775e-09
-3.35543e-09
3.87945e-09
-1.86231e-10
6.68504e-08
-3.08841e-09
4.10225e-09
5.22714e-10
4.74897e-08
-9.25796e-09
-1.16514e-09
7.16807e-08
-8.97171e-09
3.59923e-09
2.10837e-09
4.58143e-08
6.85945e-09
1.63078e-09
-3.46538e-09
6.29166e-08
1.96492e-09
-1.03072e-09
6.06667e-08
3.5535e-10
4.53935e-08
7.28856e-10
-1.37131e-09
5.48548e-08
-5.15337e-10
2.55748e-09
-5.45233e-09
6.96811e-08
2.83574e-09
-3.0053e-09
3.84959e-08
-6.42872e-09
5.55088e-08
-1.77309e-09
5.5804e-08
6.89021e-10
6.41386e-10
3.60132e-08
4.11918e-09
3.29645e-08
5.90041e-08
-3.03975e-09
1.22463e-09
6.40551e-08
4.52703e-10
-2.79423e-09
3.46696e-09
-1.98747e-10
6.12114e-08
-6.69016e-10
3.18657e-09
4.3921e-09
4.73019e-08
-3.92384e-09
1.37791e-08
7.64754e-08
-1.14208e-08
-2.8741e-10
-1.13467e-09
5.2978e-08
-4.51691e-09
9.13434e-09
-2.64248e-09
5.59386e-08
5.93521e-09
-4.24208e-09
7.25e-08
-8.13209e-09
8.22804e-08
-5.99364e-10
-1.7691e-09
6.04956e-08
-4.407e-09
4.39089e-09
3.3802e-09
5.86682e-08
1.25665e-09
2.69851e-10
3.71182e-08
-4.89949e-09
4.95706e-08
5.45733e-09
5.23103e-08
-7.06799e-09
1.64214e-09
4.35076e-08
-1.60869e-09
3.2405e-08
3.74792e-08
4.00733e-10
2.95376e-09
5.66761e-08
-8.42847e-11
4.10882e-09
9.38794e-10
-1.95385e-09
5.62775e-08
6.3497e-09
6.04106e-10
7.81876e-11
4.5884e-08
1.67438e-09
1.80691e-09
7.47038e-08
-2.46286e-09
-3.04454e-09
-7.18673e-10
7.02426e-08
-1.05477e-08
4.6943e-09
2.35758e-09
4.38884e-08
1.81753e-09
3.11898e-09
7.2336e-08
5.46846e-09
8.04342e-08
-2.35407e-10
-1.44719e-09
6.22013e-08
-7.41735e-10
3.53197e-09
6.99704e-09
5.02613e-08
1.28973e-09
3.02238e-09
3.9457e-08
5.39031e-09
5.39674e-08
7.25652e-09
4.0737e-08
-1.08283e-09
1.98106e-09
6.1866e-08
2.48767e-09
4.50713e-08
5.96416e-08
1.14978e-09
-8.91284e-09
6.65366e-08
-8.53821e-10
-1.24363e-09
-2.13495e-09
-2.09255e-10
6.11655e-08
-1.39402e-09
-7.94604e-09
-1.3814e-08
6.26267e-08
2.8824e-09
-1.57874e-08
6.02268e-08
1.50431e-08
8.5995e-09
6.9252e-09
4.41738e-08
1.63127e-09
-1.44999e-08
-8.2566e-10
6.76041e-08
-2.34082e-09
6.70586e-09
3.9657e-08
4.74544e-09
5.3417e-08
1.032e-09
7.45658e-09
6.45886e-08
-3.95071e-09
-5.00791e-09
3.16565e-09
5.23099e-08
-5.8794e-09
5.18453e-09
4.18498e-08
7.57308e-09
4.79105e-08
-3.81885e-09
7.10653e-08
-9.93142e-09
-8.49106e-09
7.1935e-08
-9.71572e-09
5.47231e-08
6.32834e-08
-6.99386e-10
1.58683e-09
6.37348e-08
-1.29424e-10
2.04388e-09
6.82383e-10
-1.84189e-09
6.1124e-08
5.01629e-10
1.24449e-09
2.98092e-09
5.85499e-08
5.33827e-10
-6.41074e-10
6.21002e-08
1.64637e-09
-3.6181e-09
-4.92184e-09
5.75309e-08
-3.2303e-09
4.36374e-09
3.95335e-10
5.73851e-08
-1.56323e-09
-8.11055e-10
4.93759e-08
5.77259e-10
5.06701e-08
1.43923e-09
-1.21058e-09
5.69649e-08
2.47323e-09
1.24622e-09
-3.47726e-09
5.63755e-08
-5.22757e-10
-1.34335e-09
4.4151e-08
-1.29954e-09
5.04869e-08
-9.07691e-11
6.5046e-08
2.97494e-09
2.57472e-09
6.1179e-08
-1.60417e-09
5.75164e-08
5.50401e-08
-6.88244e-09
-1.10941e-08
6.42599e-08
5.62875e-09
1.18221e-08
-8.50959e-09
-1.20322e-08
6.34763e-08
1.13072e-08
-8.04396e-09
-1.62261e-08
5.9727e-08
1.45831e-08
-1.74791e-08
6.27426e-08
1.71658e-08
-9.18942e-09
-5.92775e-09
5.46665e-08
6.88723e-09
-1.36304e-08
-5.57522e-09
5.53691e-08
-9.85987e-09
-5.00968e-09
3.43896e-08
-9.267e-09
4.65266e-08
-1.00456e-08
-4.00021e-09
5.87245e-08
6.35826e-09
-1.30572e-08
-7.00209e-10
5.45124e-08
-1.4996e-08
1.18611e-09
3.9894e-08
2.48818e-09
4.18697e-08
-6.95999e-09
6.21267e-08
5.40335e-09
-1.04718e-08
6.2626e-08
-1.14225e-08
5.76224e-08
4.34141e-08
2.72892e-09
5.31194e-09
6.0193e-08
-1.16458e-09
-2.80936e-09
4.7893e-09
6.06209e-09
5.88832e-08
-3.52898e-09
3.45803e-09
9.57281e-09
5.64743e-08
-4.98863e-09
9.0503e-09
5.60515e-08
-4.19481e-09
2.312e-09
1.02806e-09
5.42574e-08
2.3812e-09
8.02512e-09
1.18327e-09
5.45351e-08
4.52559e-09
7.86467e-10
4.66756e-08
2.50729e-09
4.77941e-08
2.08395e-09
-4.85576e-10
5.53145e-08
2.8397e-09
6.92485e-09
-1.8493e-09
5.27037e-08
5.18847e-09
-4.90442e-09
4.73215e-08
-3.37e-09
4.5652e-08
-5.25272e-10
5.61096e-08
5.77788e-09
4.3764e-09
5.61093e-08
6.47691e-09
5.27869e-08
4.79448e-08
1.7693e-09
3.88417e-09
5.71756e-08
-1.97432e-10
-2.43841e-09
3.22877e-09
4.33259e-09
5.62803e-08
-3.18841e-09
3.1614e-09
5.85773e-09
5.48476e-08
-4.16335e-09
6.26658e-09
5.39204e-08
-4.41502e-09
1.64208e-09
1.41606e-09
5.44256e-08
6.5831e-10
4.58966e-09
2.00093e-09
5.39199e-08
3.90019e-09
1.84883e-09
5.13742e-08
2.69772e-09
5.02889e-08
2.10701e-09
1.19864e-10
5.3961e-08
5.43183e-10
4.36307e-09
-4.19358e-10
5.28689e-08
4.29798e-09
-1.44216e-09
5.06782e-08
-1.22893e-09
4.90088e-08
9.7191e-10
5.40256e-08
1.60823e-09
3.54714e-09
5.36157e-08
4.59366e-09
5.18745e-08
4.95837e-08
1.48515e-09
2.6672e-09
5.57578e-08
-5.31528e-10
-2.20279e-09
2.1763e-09
2.78394e-09
5.52136e-08
-2.40768e-09
2.2029e-09
3.19604e-09
5.44007e-08
-2.77533e-09
3.45581e-09
5.37122e-08
-3.02113e-09
1.38041e-09
1.46491e-09
5.44108e-08
-1.62904e-10
2.49363e-09
1.63925e-09
5.39521e-08
2.5027e-09
1.64661e-09
5.29156e-08
1.80588e-09
5.20681e-08
1.53446e-09
4.06524e-10
5.38766e-08
-3.91315e-10
2.45771e-09
2.5813e-10
5.33277e-08
2.53166e-09
-4.89052e-11
5.2301e-08
-2.31791e-10
5.13257e-08
1.21208e-09
5.37895e-08
-2.04405e-10
2.13898e-09
5.33822e-08
2.38165e-09
5.24806e-08
5.13992e-08
9.33647e-10
1.61376e-09
5.50838e-08
-4.08312e-10
-1.46474e-09
1.27916e-09
1.67623e-09
5.47686e-08
-1.57616e-09
1.29579e-09
1.80244e-09
5.43286e-08
-1.74636e-09
1.89653e-09
5.39186e-08
-1.88605e-09
9.35593e-10
1.03443e-09
5.44001e-08
-3.45254e-10
1.37013e-09
1.08366e-09
5.41107e-08
1.39142e-09
1.08405e-09
5.36137e-08
1.07079e-09
5.31428e-08
1.00182e-09
3.71348e-10
5.40513e-08
-5.13136e-10
1.36499e-09
3.14135e-10
5.37346e-08
1.34538e-09
1.72198e-10
5.32334e-08
-4.3528e-12
5.27368e-08
9.05358e-10
5.39551e-08
-4.90178e-10
1.20931e-09
5.36698e-08
1.16369e-09
5.32116e-08
5.27254e-08
5.5552e-10
9.41211e-10
5.47777e-08
-2.83958e-10
-9.06486e-10
7.18339e-10
9.70589e-10
5.45982e-08
-9.62858e-10
7.12768e-10
1.00697e-09
5.43629e-08
-1.03546e-09
1.01968e-09
5.41368e-08
-1.08923e-09
5.66857e-10
6.40232e-10
5.44231e-08
-2.88918e-10
7.39755e-10
6.56138e-10
5.42524e-08
7.20411e-10
6.38471e-10
5.40017e-08
5.89436e-10
5.37581e-08
5.92957e-10
2.60832e-10
5.42187e-08
-3.80885e-10
7.1987e-10
2.27361e-10
5.40366e-08
6.62478e-10
1.44179e-10
5.37851e-08
2.12422e-11
5.35427e-08
5.51341e-10
5.41479e-08
-3.86176e-10
6.31552e-10
5.39734e-08
5.34126e-10
5.37416e-08
5.35221e-08
3.12493e-10
5.29604e-10
5.46383e-08
-1.74117e-10
-5.28676e-10
3.88218e-10
5.4117e-10
5.45382e-08
-5.57012e-10
3.77323e-10
5.46383e-10
5.44129e-08
-5.85543e-10
5.33021e-10
5.4292e-08
-5.99011e-10
3.20716e-10
3.70561e-10
5.44524e-08
-1.91243e-10
3.88127e-10
3.71203e-10
5.43548e-08
3.60588e-10
3.496e-10
5.42259e-08
3.03984e-10
5.41023e-08
3.28062e-10
1.60122e-10
5.43364e-08
-2.35434e-10
3.66651e-10
1.34769e-10
5.42343e-08
3.12553e-10
8.13e-11
5.41071e-08
1.29668e-12
5.39901e-08
3.0197e-10
5.42902e-08
-2.36751e-10
3.11704e-10
5.41914e-08
2.30849e-10
5.40753e-08
5.39757e-08
1.68878e-10
2.89857e-10
5.45756e-08
-9.91795e-11
-2.96908e-10
2.03813e-10
2.92928e-10
5.45206e-08
-3.10277e-10
1.94122e-10
2.88417e-10
5.44541e-08
-3.20062e-10
2.70984e-10
5.43905e-08
-3.18698e-10
1.7275e-10
2.04672e-10
5.44774e-08
-1.1268e-10
1.97851e-10
1.99641e-10
5.44229e-08
1.75138e-10
1.80597e-10
5.43562e-08
1.46258e-10
5.42942e-08
1.71767e-10
8.8671e-11
5.44127e-08
-1.32186e-10
1.7952e-10
6.91788e-11
5.4357e-08
1.4025e-10
3.38758e-11
5.42927e-08
-1.69587e-11
5.42368e-08
1.52986e-10
5.43846e-08
-1.29309e-10
1.43967e-10
5.43314e-08
8.90218e-11
5.42743e-08
5.42296e-08
8.79854e-11
1.54148e-10
5.45484e-08
-5.3391e-11
-1.6158e-10
1.037e-10
1.5347e-10
5.45186e-08
-1.67156e-10
9.64472e-11
1.46955e-10
5.44836e-08
-1.69213e-10
1.32139e-10
5.44506e-08
-1.63717e-10
8.87052e-11
1.07768e-10
5.44964e-08
-6.13319e-11
9.6994e-11
1.01515e-10
5.44668e-08
8.10099e-11
8.67395e-11
5.44325e-08
6.28707e-11
5.44017e-08
8.47388e-11
4.36075e-11
5.4461e-08
-6.87993e-11
8.28266e-11
2.91059e-11
5.44313e-08
5.708e-11
5.64035e-12
5.43993e-08
-2.65373e-11
5.43732e-08
7.097e-11
5.44449e-08
-6.42533e-11
5.94911e-11
5.44174e-08
2.47185e-11
5.43901e-08
5.4371e-08
4.38762e-11
7.91279e-11
5.45377e-08
-2.71191e-11
-8.52323e-11
5.05176e-11
7.70423e-11
5.45219e-08
-8.68863e-11
4.53624e-11
7.10571e-11
5.45038e-08
-8.5977e-11
6.00133e-11
5.4487e-08
-8.02868e-11
4.28871e-11
5.33049e-11
5.45104e-08
-3.09192e-11
4.46589e-11
4.76078e-11
5.44947e-08
3.40879e-11
3.68647e-11
5.44774e-08
2.07962e-11
5.44625e-08
3.84284e-11
1.74399e-11
5.44914e-08
-3.28732e-11
3.43061e-11
7.02939e-12
5.44762e-08
1.81523e-11
-8.4285e-12
5.44607e-08
-2.88185e-11
5.4449e-08
2.85114e-11
5.44828e-08
-2.83013e-11
1.89588e-11
5.44692e-08
-2.20678e-12
5.44569e-08
5.44498e-08
2.04451e-11
3.85298e-11
5.45347e-08
-1.2665e-11
-4.32185e-11
2.28618e-11
3.6178e-11
5.45266e-08
-4.30798e-11
1.92611e-11
3.13902e-11
5.45175e-08
-4.12827e-11
2.36501e-11
5.45092e-08
-3.65977e-11
1.8798e-11
2.37578e-11
5.45205e-08
-1.40069e-11
1.82248e-11
1.91566e-11
5.45125e-08
1.144e-11
1.16117e-11
5.45042e-08
1.13261e-12
5.44973e-08
1.48132e-11
3.43058e-12
5.45108e-08
-1.36794e-11
1.09116e-11
-3.86432e-12
5.45033e-08
1.01836e-12
-1.39642e-11
5.44962e-08
-2.67229e-11
5.44915e-08
7.86329e-12
5.45066e-08
-9.77655e-12
9.29796e-13
5.45003e-08
-1.17097e-11
5.44953e-08
5.44935e-08
8.32925e-12
1.71081e-11
5.4535e-08
-5.055e-12
-2.06145e-11
8.89517e-12
1.49612e-11
5.4531e-08
-1.98314e-11
6.40349e-12
1.13577e-11
5.45268e-08
-1.79931e-11
6.08033e-12
5.45229e-08
-1.44461e-11
6.64827e-12
8.42086e-12
5.45279e-08
-5.15417e-12
5.41287e-12
4.88409e-12
5.45241e-08
1.10584e-12
-3.06142e-13
5.45203e-08
-7.08042e-12
5.45175e-08
3.48438e-12
-3.30853e-12
5.45232e-08
-4.04769e-12
3.75225e-13
-8.3535e-12
5.45199e-08
-5.63848e-12
-1.49048e-11
5.4517e-08
-2.28087e-11
5.45156e-08
-1.32451e-12
5.45216e-08
-9.67373e-13
-6.09495e-12
5.45191e-08
-1.35234e-11
5.45176e-08
5.45179e-08
2.4469e-12
6.20058e-12
5.45366e-08
-1.3315e-12
-8.82791e-12
2.21492e-12
4.45348e-12
5.45349e-08
-7.90248e-12
4.76711e-13
1.86002e-12
5.45331e-08
-6.3487e-12
-1.68905e-12
5.45317e-08
-3.79022e-12
9.42287e-13
9.72199e-13
5.45334e-08
-8.80787e-13
-3.06065e-13
-1.63859e-12
5.45318e-08
-3.07389e-12
-5.15567e-12
5.45304e-08
-9.52685e-12
5.45296e-08
-1.45264e-12
-5.92481e-12
5.45314e-08
3.60235e-13
-3.74905e-12
-9.36434e-12
5.45302e-08
-7.4268e-12
-1.36097e-11
5.45295e-08
-1.85091e-11
5.45295e-08
-4.76184e-12
5.45312e-08
2.68737e-12
-7.94281e-12
5.45306e-08
-1.2311e-11
5.45307e-08
5.45319e-08
-2.01441e-13
1.0268e-12
5.45386e-08
3.00221e-13
-3.00567e-12
-6.54389e-13
-2.63996e-13
5.45381e-08
-2.17065e-12
-1.86883e-12
-2.07087e-12
5.45376e-08
-9.59839e-13
-4.42549e-12
5.45373e-08
8.19687e-13
-1.40249e-12
-2.1317e-12
5.45374e-08
9.05509e-13
-2.42313e-12
-3.97747e-12
5.4537e-08
-4.21183e-12
-6.32796e-12
5.45368e-08
-9.14164e-12
5.4537e-08
-3.1392e-12
-6.23133e-12
5.4537e-08
2.01937e-12
-4.73374e-12
-8.53919e-12
5.45369e-08
-7.01188e-12
-1.12789e-11
5.45371e-08
-1.43387e-11
5.45379e-08
-5.36882e-12
5.45376e-08
3.73576e-12
-7.44259e-12
5.45379e-08
-1.00604e-11
5.45388e-08
5.45402e-08
-1.14415e-12
-9.00722e-13
5.45404e-08
8.85151e-13
-5.283e-13
-1.59334e-12
-1.86516e-12
5.45405e-08
2.31307e-13
-2.41834e-12
-3.06235e-12
5.45407e-08
1.08674e-12
-4.56654e-12
5.4541e-08
2.27147e-12
-2.03018e-12
-2.83491e-12
5.45403e-08
1.4675e-12
-2.77201e-12
-4.08488e-12
5.45405e-08
-3.91498e-12
-5.60136e-12
5.45409e-08
-7.36838e-12
5.45416e-08
-3.22295e-12
-5.26035e-12
5.45407e-08
2.32397e-12
-4.26786e-12
-6.74984e-12
5.45411e-08
-5.67166e-12
-8.47271e-12
5.45419e-08
-1.03638e-11
5.4543e-08
-4.66486e-12
5.45418e-08
3.52194e-12
-5.97294e-12
5.45425e-08
-7.55465e-12
5.45437e-08
5.45452e-08
-1.36669e-12
-1.227e-12
5.45418e-08
1.03268e-12
3.53211e-13
-1.715e-12
-1.84783e-12
5.45421e-08
8.53215e-13
-2.23463e-12
-2.58644e-12
5.45426e-08
1.41277e-12
-3.48455e-12
5.45432e-08
2.1434e-12
-1.94655e-12
-2.32764e-12
5.45422e-08
1.49047e-12
-2.44463e-12
-3.10318e-12
5.45426e-08
-3.12868e-12
-4.01165e-12
5.45433e-08
-5.04775e-12
5.45442e-08
-2.69086e-12
-3.67907e-12
5.4543e-08
2.07445e-12
-3.34216e-12
-4.5687e-12
5.45437e-08
-4.15801e-12
-5.57847e-12
5.45446e-08
-6.67971e-12
5.45458e-08
-3.55184e-12
5.45443e-08
2.82835e-12
-4.3415e-12
5.45452e-08
-5.2541e-12
5.45464e-08
5.4548e-08
-1.45928e-12
-8.9686e-13
1.16597e-12
3.91529e-13
-1.75967e-12
-1.29464e-12
7.28293e-13
-2.09136e-12
-1.74481e-12
1.09987e-12
-2.25788e-12
1.53964e-12
-1.83315e-12
-1.52139e-12
1.4674e-12
-2.20467e-12
-1.98318e-12
-2.60125e-12
-2.49907e-12
-3.06457e-12
-2.27431e-12
-2.23557e-12
1.83905e-12
-2.7135e-12
-2.73816e-12
-3.16338e-12
-3.28857e-12
-3.8787e-12
-2.75853e-12
2.27247e-12
-3.25709e-12
-3.75054e-12
6.22031e-10
-8.27351e-10
5.29252e-08
3.5998e-10
-6.91103e-10
3.32516e-09
4.61257e-08
-9.97655e-10
-2.69105e-09
-3.71263e-09
4.70989e-08
-1.92726e-09
-6.72706e-09
4.06093e-08
-1.3159e-09
8.94724e-09
-2.43785e-09
5.90859e-08
-1.1824e-08
-8.35987e-09
9.07452e-08
-5.7162e-09
-4.67334e-09
4.63647e-08
-1.48182e-09
2.75656e-08
-6.46551e-09
1.9369e-09
7.77782e-08
6.90356e-10
-4.25134e-10
5.35199e-08
-6.49275e-09
-5.15508e-09
6.8036e-08
4.43204e-09
3.39832e-08
-1.2735e-08
9.97431e-08
-3.43049e-09
5.27544e-08
7.58555e-09
3.19359e-08
6.87388e-08
-9.93302e-09
-1.35116e-09
6.33174e-08
1.20587e-12
-2.51806e-09
3.30769e-09
3.48951e-08
5.07979e-10
4.21759e-09
3.90346e-10
3.66533e-08
3.31958e-09
-2.54717e-10
4.20097e-08
3.6892e-09
-7.34626e-10
-2.2301e-09
5.99305e-08
-3.61328e-09
-1.98027e-09
9.89118e-08
4.86515e-10
-6.10428e-09
4.87595e-08
-4.61029e-09
3.79237e-08
2.14353e-09
-2.17335e-09
7.67748e-08
-6.31144e-09
-7.82078e-11
6.00727e-08
1.62768e-09
3.31296e-09
5.06796e-08
-5.99109e-10
3.36184e-08
9.45601e-09
8.055e-08
2.15956e-09
6.05335e-08
-5.7693e-09
4.69131e-08
6.64271e-08
5.38077e-09
2.1218e-09
5.59391e-08
3.6387e-09
6.31363e-09
-2.92162e-09
3.52174e-08
1.66643e-09
-2.26643e-09
-1.16876e-09
4.63451e-08
5.70035e-11
5.48918e-09
2.64702e-08
1.6662e-09
-8.55431e-09
-3.6956e-10
7.23781e-08
1.25426e-08
8.42609e-09
6.64671e-08
6.91509e-09
1.85077e-09
5.13675e-08
-1.00135e-09
5.81888e-08
1.36875e-08
1.69905e-09
6.21573e-08
3.8062e-09
7.10665e-11
7.83091e-08
3.54227e-10
-1.66876e-09
5.76511e-08
-1.7133e-09
3.41693e-08
1.32928e-08
5.67101e-08
3.48061e-09
6.0394e-08
-3.71928e-09
6.16484e-08
5.88584e-08
6.41452e-09
-1.69633e-09
5.37939e-08
-7.48734e-10
2.04692e-09
-3.70729e-09
4.45397e-08
-1.24743e-09
-3.30334e-10
-6.15223e-09
5.43945e-08
4.80088e-10
-6.36345e-10
2.78976e-08
-6.68758e-10
6.26067e-09
3.68914e-09
6.04939e-08
1.14679e-09
-2.86284e-09
7.07365e-08
9.11421e-09
-6.48068e-10
3.78959e-08
-2.72379e-09
6.48735e-08
-6.0641e-09
3.32321e-09
6.89658e-08
4.27036e-09
-8.79928e-10
6.59917e-08
3.00031e-09
-2.62916e-09
6.09023e-08
-2.85711e-09
3.28959e-08
-5.74534e-09
7.81142e-08
1.88658e-09
5.30574e-08
2.51057e-09
5.69061e-08
4.82607e-08
-2.0538e-08
-1.18279e-08
9.27239e-08
-5.35859e-09
-6.43123e-09
-9.1138e-09
4.09535e-08
-1.40676e-09
4.59112e-09
-4.04916e-09
4.43791e-08
3.04227e-09
-6.54639e-09
3.70835e-08
1.8674e-09
2.22162e-09
-1.44514e-10
4.73599e-08
2.89431e-09
-1.64164e-09
6.25917e-08
5.5168e-09
2.0878e-09
2.91365e-08
3.88937e-09
4.94069e-08
4.89194e-10
1.40056e-09
6.84807e-08
6.46924e-09
1.79173e-09
5.65783e-08
4.19709e-09
7.34559e-10
6.45276e-08
-7.95451e-10
4.10361e-08
4.90418e-09
9.06131e-08
3.41361e-09
7.09597e-08
4.46262e-09
6.02381e-08
5.16699e-08
2.89555e-08
-4.73457e-09
6.04711e-08
1.14403e-08
1.0054e-08
-2.36563e-09
6.04589e-08
1.76173e-09
2.00413e-09
-3.3301e-09
5.90014e-08
-3.24234e-09
-3.02894e-09
4.17836e-08
-5.20943e-10
4.0661e-09
-4.18406e-09
4.29222e-08
7.43631e-09
-1.07622e-09
5.79321e-08
1.98545e-09
-4.64452e-09
3.59018e-08
-1.09089e-09
5.10855e-08
1.29423e-08
2.38868e-09
4.95458e-08
6.16196e-09
-3.35434e-09
6.56368e-08
8.92396e-09
-4.64476e-10
5.75856e-08
-1.87374e-09
4.67922e-08
2.38102e-09
9.62638e-08
1.1666e-08
5.73924e-08
6.66413e-09
6.39854e-08
4.81882e-08
8.0052e-11
-5.06607e-10
5.43172e-08
2.70747e-09
-3.76248e-10
-5.0912e-10
5.77741e-08
3.65033e-09
8.5976e-10
1.61604e-09
5.31366e-08
3.01277e-09
2.83757e-10
4.10963e-08
1.13368e-09
-2.99537e-10
1.48859e-09
4.15811e-08
4.88821e-09
7.263e-10
5.15089e-08
-2.01823e-09
-1.68626e-09
4.61106e-08
1.20608e-09
4.49147e-08
-8.98667e-10
-4.77463e-10
5.1948e-08
2.50351e-10
2.60535e-09
6.26087e-08
-4.97674e-10
4.05824e-10
5.62415e-08
1.05937e-09
4.89145e-08
8.94665e-09
8.13453e-08
-5.16815e-09
7.76308e-08
-9.31868e-10
6.27019e-08
5.06955e-08
-7.13692e-09
-4.63757e-09
6.45865e-08
1.50521e-09
-7.72723e-09
-5.35047e-09
6.14257e-08
2.2893e-09
-5.91757e-09
-5.48422e-09
5.41037e-08
2.70699e-09
-5.61981e-09
4.38004e-08
2.62602e-09
-6.0796e-09
-2.62292e-09
4.5646e-08
-6.309e-09
-4.52899e-09
5.09169e-08
-6.41899e-09
-6.07892e-09
4.68157e-08
-4.59098e-09
4.4354e-08
-9.98508e-09
-1.98965e-09
6.12996e-08
-8.68947e-09
-5.70039e-09
6.24839e-08
-5.3169e-09
-6.20256e-09
5.29925e-08
-4.30113e-09
4.96658e-08
-1.03933e-08
8.11243e-08
-7.47564e-09
6.14977e-08
-3.4587e-09
4.81092e-08
4.71917e-08
-2.71317e-09
8.40631e-09
6.10645e-08
-2.17119e-09
-1.85994e-09
7.89294e-09
5.41809e-08
-1.50107e-09
-2.45362e-10
7.42893e-09
4.60829e-08
-1.02283e-09
6.12692e-09
3.71411e-08
-8.77906e-10
-5.55102e-09
2.18786e-09
5.7415e-08
-5.31833e-09
3.02607e-09
5.55512e-08
-4.35881e-09
3.82658e-09
4.94589e-08
3.79167e-09
4.47117e-08
-3.42124e-09
-1.53414e-09
6.84425e-08
-2.27473e-09
-1.5423e-10
6.45174e-08
-3.06444e-09
1.10927e-09
5.64996e-08
2.67385e-09
5.05591e-08
1.16069e-09
8.03683e-08
-1.04866e-09
6.78159e-08
-4.54684e-09
5.78625e-08
5.20899e-08
-2.39378e-10
4.79648e-09
5.80094e-08
-1.50181e-09
1.20539e-10
4.48365e-09
5.06067e-08
-1.2689e-09
3.3591e-10
4.10317e-09
4.28366e-08
-1.07224e-09
3.38566e-09
3.49258e-08
-1.03205e-09
-2.29647e-09
1.48587e-09
6.30219e-08
-1.87178e-09
1.91682e-09
5.76934e-08
-1.77092e-09
2.24657e-09
5.12153e-08
2.30411e-09
4.46807e-08
-1.10178e-09
-1.02379e-09
7.20537e-08
-3.91704e-10
-2.81768e-10
6.60058e-08
-5.98831e-10
3.22955e-10
5.86305e-08
1.13724e-09
5.16707e-08
1.23668e-09
7.96251e-08
5.64123e-10
7.07211e-08
-8.19203e-10
6.22692e-08
5.4997e-08
2.69035e-10
2.7523e-09
5.58516e-08
-8.63436e-10
5.16595e-10
2.61353e-09
4.85614e-08
-8.15401e-10
6.02544e-10
2.36618e-09
4.11412e-08
-7.56754e-10
1.99293e-09
3.37321e-08
-7.28267e-10
-7.56308e-10
1.34308e-09
6.51874e-08
-5.71884e-10
1.48979e-09
5.86329e-08
-3.17207e-10
1.58186e-09
5.17455e-08
1.50995e-09
4.46838e-08
-3.75385e-10
-2.137e-10
7.39856e-08
4.07697e-12
8.44269e-11
6.70314e-08
1.57417e-10
3.9699e-10
5.96621e-08
6.25689e-10
5.23216e-08
3.73348e-10
7.97775e-08
3.81886e-10
7.17851e-08
2.12007e-10
6.38431e-08
5.6213e-08
3.19487e-10
1.41867e-09
5.46099e-08
-4.96306e-10
5.02834e-10
1.35769e-09
4.75117e-08
-4.91212e-10
5.22777e-10
1.22835e-09
4.0365e-08
-4.72181e-10
1.05888e-09
3.32386e-08
-4.51251e-10
-1.46352e-10
8.63306e-10
6.58889e-08
-1.32374e-11
9.14242e-10
5.89432e-08
1.67249e-10
9.20538e-10
5.1873e-08
8.50769e-10
4.4714e-08
-1.54179e-11
5.5631e-11
7.48085e-08
1.96718e-10
2.07949e-10
6.75254e-08
3.58741e-10
3.12002e-10
6.01087e-08
3.57889e-10
5.26604e-08
1.91505e-10
7.99282e-08
3.3882e-10
7.21874e-08
4.11722e-10
6.44278e-08
5.67437e-08
2.22185e-10
7.35083e-10
5.39411e-08
-2.88482e-10
3.4054e-10
7.11269e-10
4.69708e-08
-2.88819e-10
3.54663e-10
6.50776e-10
3.99797e-08
-2.79702e-10
5.71672e-10
3.30011e-08
-2.63909e-10
1.824e-11
5.25781e-10
6.60798e-08
1.17486e-10
5.44853e-10
5.90102e-08
2.1786e-10
5.35215e-10
5.18882e-08
4.88602e-10
4.47258e-08
5.37654e-11
1.46375e-10
7.51339e-08
1.82401e-10
1.96846e-10
6.77447e-08
2.93995e-10
2.28835e-10
6.03034e-08
2.28095e-10
5.2834e-08
1.17626e-10
8.00412e-08
2.33162e-10
7.23686e-08
3.17182e-10
6.46769e-08
5.69911e-08
1.34424e-10
3.8007e-10
5.35923e-08
-1.6581e-10
2.05621e-10
3.71348e-10
4.66945e-08
-1.66255e-10
2.15609e-10
3.43613e-10
3.97866e-08
-1.60719e-10
3.06677e-10
3.28853e-08
-1.4987e-10
4.50892e-11
3.07047e-10
6.61075e-08
1.09798e-10
3.13993e-10
5.90028e-08
1.6298e-10
3.04265e-10
5.18744e-08
2.7615e-10
4.47279e-08
4.95483e-11
1.28667e-10
7.52626e-08
1.25328e-10
1.45817e-10
6.78371e-08
1.91201e-10
1.52803e-10
6.0389e-08
1.41908e-10
5.2924e-08
6.57948e-11
8.01154e-08
1.36698e-10
7.24612e-08
1.95552e-10
6.47941e-08
5.71199e-08
7.64088e-11
1.96721e-10
5.34128e-08
-9.36575e-11
1.17089e-10
1.93695e-10
4.65538e-08
-9.37359e-11
1.23154e-10
1.8102e-10
3.96897e-08
-9.02737e-11
1.63718e-10
3.28288e-08
-8.34669e-11
3.76624e-11
1.73141e-10
6.60933e-08
7.61107e-11
1.75687e-10
5.89824e-08
1.0292e-10
1.68837e-10
5.18599e-08
1.5256e-10
4.47293e-08
3.47583e-11
8.89734e-11
7.5312e-08
7.70422e-11
9.41334e-11
6.78764e-08
1.12141e-10
9.30344e-11
6.04298e-08
8.23244e-11
5.29743e-08
3.55756e-11
8.01614e-08
7.52325e-11
7.25129e-08
1.08984e-10
6.48563e-08
5.71936e-08
4.16147e-11
1.0179e-10
5.33213e-08
-5.19192e-11
6.38505e-11
1.0075e-10
4.64827e-08
-5.17995e-11
6.70377e-11
9.47774e-11
3.96413e-08
-4.96712e-11
8.64766e-11
3.28016e-08
-4.56343e-11
2.45838e-11
9.48878e-11
6.60756e-08
4.60028e-11
9.56963e-11
5.89661e-08
5.88718e-11
9.12415e-11
5.18506e-08
8.18011e-11
4.47316e-08
2.09941e-11
5.40112e-11
7.53319e-08
4.34008e-11
5.50402e-11
6.78947e-08
6.07342e-11
5.20788e-11
6.04518e-08
4.37829e-11
5.30045e-08
1.83868e-11
8.01906e-08
3.87857e-11
7.25443e-08
5.577e-11
6.48933e-08
5.72387e-08
2.17567e-11
5.25312e-11
5.32753e-08
-2.83447e-11
3.33533e-11
5.20988e-11
4.64473e-08
-2.8156e-11
3.47572e-11
4.90874e-11
3.96177e-08
-2.68519e-11
4.49022e-11
3.27889e-08
-2.4508e-11
1.40265e-11
5.06159e-11
6.60635e-08
2.51898e-11
5.06596e-11
5.89565e-08
3.09718e-11
4.77133e-11
5.18463e-08
4.20717e-11
4.47347e-08
1.11593e-11
2.97301e-11
7.53417e-08
2.22582e-11
2.93905e-11
6.79051e-08
3.01592e-11
2.64643e-11
6.04654e-08
2.04678e-11
5.30236e-08
8.49232e-12
8.02103e-08
1.79819e-11
7.2565e-08
2.55008e-11
6.49171e-08
5.72673e-08
1.07943e-11
2.68826e-11
5.3253e-08
-1.52823e-11
1.64589e-11
2.65946e-11
4.64302e-08
-1.50784e-11
1.68733e-11
2.49125e-11
3.96067e-08
-1.42604e-11
2.26447e-11
3.27836e-08
-1.28915e-11
7.09898e-12
2.60809e-11
6.60573e-08
1.24193e-11
2.57876e-11
5.89521e-08
1.47206e-11
2.37463e-11
5.18454e-08
2.02264e-11
4.4738e-08
5.02531e-12
1.46886e-11
7.53481e-08
9.96869e-12
1.39232e-11
6.79122e-08
1.31423e-11
1.14789e-11
6.04747e-08
7.24696e-12
5.30363e-08
2.99926e-12
8.02243e-08
6.67802e-12
7.25793e-08
9.39225e-12
6.4933e-08
5.72859e-08
4.92837e-12
1.35071e-11
5.32427e-08
-8.13246e-12
7.38682e-12
1.32378e-11
4.64226e-08
-7.93494e-12
7.3024e-12
1.21747e-11
3.96022e-08
-7.39722e-12
1.08517e-11
3.27819e-08
-6.5772e-12
2.9723e-12
1.27658e-11
6.60551e-08
5.15797e-12
1.23193e-11
5.89511e-08
5.78453e-12
1.08568e-11
5.18463e-08
8.53924e-12
4.47412e-08
1.6249e-12
6.04122e-12
7.53534e-08
3.34167e-12
5.22739e-12
6.79179e-08
4.2586e-12
3.30935e-12
6.04816e-08
3.39391e-13
5.30449e-08
2.08122e-13
8.02345e-08
9.71451e-13
7.25896e-08
1.42771e-12
6.4944e-08
5.72982e-08
1.86735e-12
6.5698e-12
5.32386e-08
-4.25495e-12
2.70566e-12
6.28015e-12
4.64198e-08
-4.07905e-12
2.40604e-12
5.56067e-12
3.96007e-08
-3.70412e-12
4.70154e-12
3.27818e-08
-3.17975e-12
8.35345e-13
5.70534e-12
6.60553e-08
1.41823e-12
5.24559e-12
5.89518e-08
1.33901e-12
4.15946e-12
5.1848e-08
2.62078e-12
4.47441e-08
-9.5727e-14
1.46254e-12
7.53579e-08
7.06872e-14
7.41783e-13
6.79225e-08
-2.87379e-14
-7.12777e-13
6.04868e-08
-2.7897e-12
5.30511e-08
-1.05059e-12
8.02423e-08
-1.58267e-12
7.25972e-08
-2.06026e-12
6.49519e-08
5.73065e-08
4.00674e-13
3.01172e-12
5.32374e-08
-2.18607e-12
4.59787e-13
2.75125e-12
4.64191e-08
-2.02702e-12
9.72684e-14
2.24659e-12
3.96008e-08
-1.76133e-12
1.7041e-12
3.27824e-08
-1.40745e-12
-2.12351e-13
2.15349e-12
6.60566e-08
-3.53929e-13
1.74498e-12
5.89533e-08
-7.31182e-13
9.48956e-13
5.18499e-08
-9.09945e-14
4.47465e-08
-8.26098e-13
-6.28635e-13
7.53618e-08
-1.2995e-12
-1.21091e-12
6.79264e-08
-1.76725e-12
-2.29087e-12
6.04909e-08
-3.72462e-12
5.30555e-08
-1.45921e-12
8.02481e-08
-2.4253e-12
7.26028e-08
-3.17733e-12
6.49575e-08
5.73122e-08
-2.3654e-13
1.28425e-12
5.32376e-08
-1.11363e-12
-4.89525e-13
1.08058e-12
4.64195e-08
-9.84581e-13
-8.48654e-13
7.44654e-13
3.96014e-08
-7.93746e-13
3.74751e-13
3.27832e-08
-5.49247e-13
-5.95399e-13
5.56291e-13
6.60581e-08
-9.95306e-13
2.34353e-13
5.89549e-08
-1.41575e-12
-3.2427e-13
5.18517e-08
-9.99806e-13
4.47485e-08
-9.87765e-13
-1.27026e-12
7.53649e-08
-1.62483e-12
-1.69535e-12
6.79294e-08
-2.14452e-12
-2.4527e-12
6.04939e-08
-3.40238e-12
5.30586e-08
-1.38632e-12
8.02524e-08
-2.36248e-12
7.26069e-08
-3.07563e-12
6.49615e-08
5.73161e-08
-4.19478e-13
5.82907e-13
5.32381e-08
-6.20721e-13
-7.6811e-13
4.46627e-13
4.64201e-08
-5.37231e-13
-1.06735e-12
2.34824e-13
3.9602e-08
-4.21092e-13
3.49815e-15
3.2784e-08
-2.85415e-13
-6.29028e-13
5.18192e-14
6.60595e-08
-1.0739e-12
-1.71193e-13
5.89562e-08
-1.43699e-12
-5.2601e-13
5.1853e-08
-9.36633e-13
4.47499e-08
-8.65974e-13
-1.092e-12
7.53671e-08
-1.46802e-12
-1.37245e-12
6.79315e-08
-1.90693e-12
-1.85076e-12
6.0496e-08
-2.43052e-12
5.30606e-08
-1.09782e-12
8.02554e-08
-1.91255e-12
7.26097e-08
-2.47571e-12
6.49641e-08
5.73186e-08
-4.68195e-13
4.43913e-13
-4.79699e-13
-8.45458e-13
3.53511e-13
-4.39196e-13
-1.10198e-12
2.2972e-13
-3.86133e-13
9.67044e-14
-3.27698e-13
-6.01092e-13
8.64359e-14
-1.05325e-12
-5.92658e-14
-1.3613e-12
-2.71774e-13
-5.14258e-13
-7.51599e-13
-6.31129e-13
-1.30254e-12
-8.11867e-13
-1.66871e-12
-1.0923e-12
-1.428e-12
-8.95659e-13
-1.559e-12
-2.00403e-12
-2.91657e-09
-2.53255e-09
6.00383e-08
9.78539e-10
1.48276e-09
5.97044e-08
2.92896e-09
3.21941e-09
6.94617e-08
-6.41559e-09
9.67943e-08
-1.43156e-09
-1.36229e-09
4.48772e-08
2.13768e-09
-6.32761e-09
6.4179e-08
1.71442e-09
-3.89684e-09
7.44792e-08
-1.04963e-08
9.19778e-08
-3.61856e-09
-4.31813e-09
4.39508e-08
3.2686e-09
-4.55652e-10
3.86585e-08
-3.4666e-10
1.82914e-09
5.75326e-08
-3.34893e-09
5.74633e-08
-1.72987e-09
2.71187e-08
5.83857e-09
3.04258e-08
-6.17625e-09
7.41637e-08
4.12579e-08
-1.23098e-09
-2.64949e-09
6.33782e-08
2.63316e-09
-2.65028e-09
5.92286e-08
5.83619e-09
-4.00301e-09
6.99173e-08
-1.31427e-08
1.19946e-07
-2.97761e-09
-1.31477e-09
4.70281e-08
-4.37361e-10
-8.37068e-10
5.98256e-08
-9.17482e-10
-6.56485e-09
7.75211e-08
5.29796e-09
6.70266e-08
2.32014e-10
-4.01043e-09
4.9734e-08
-2.34651e-09
-4.89366e-09
4.52936e-08
1.60788e-09
-3.1411e-09
5.01545e-08
3.41749e-09
6.1818e-08
9.55012e-10
3.24179e-08
-1.20694e-10
2.949e-08
5.00564e-09
6.81376e-08
5.82547e-08
1.42968e-09
-3.05647e-09
6.89384e-08
-3.44526e-09
-2.59e-09
6.57412e-08
2.24015e-09
-1.87214e-09
6.62139e-08
1.71884e-08
9.67171e-08
3.99228e-10
2.32914e-09
4.29097e-08
-4.04096e-09
-1.99638e-10
6.18754e-08
5.27072e-09
-4.72466e-10
6.68098e-08
-2.91631e-10
8.68883e-08
-6.30894e-10
2.50524e-09
5.02458e-08
-3.46565e-09
4.88457e-09
4.30441e-08
2.6945e-09
4.10607e-09
3.94158e-08
4.90707e-09
5.55217e-08
-7.16868e-10
3.39508e-08
-3.73226e-09
3.43015e-08
5.14472e-09
5.41088e-08
6.23574e-08
-1.68009e-09
3.34794e-09
6.70243e-08
3.22835e-10
4.83869e-09
5.9229e-08
-7.68147e-09
2.24613e-09
7.07888e-08
1.38969e-08
6.63406e-08
-1.35648e-09
7.85069e-09
3.8516e-08
-4.55704e-10
7.38695e-09
5.84264e-08
-9.4713e-09
2.38672e-09
7.56848e-08
9.51905e-09
7.96787e-08
1.52867e-09
-1.42865e-09
5.84766e-08
-3.87562e-10
-1.51671e-09
5.3864e-08
-2.7821e-09
3.09094e-10
4.3888e-08
3.91138e-09
5.15308e-08
3.31152e-10
2.8728e-08
3.58864e-10
3.20881e-08
-1.51744e-09
5.23703e-08
4.88723e-08
1.35828e-09
2.88131e-09
5.82607e-08
1.97223e-09
-6.62702e-10
5.8305e-08
-2.77064e-09
3.70172e-09
7.45827e-08
-7.59797e-09
7.31117e-08
1.47167e-10
8.20361e-09
3.16398e-08
1.83578e-09
9.05406e-09
4.7021e-08
-1.06578e-08
6.61195e-09
8.52682e-08
6.48908e-09
4.69471e-08
1.11264e-09
-3.01063e-09
7.16205e-08
-2.95492e-10
6.44483e-09
5.78814e-08
-3.17848e-09
1.16964e-09
5.22133e-08
1.21009e-09
4.96794e-08
4.5788e-09
2.71148e-08
-1.52952e-09
5.09909e-08
-3.14076e-09
5.68256e-08
3.75963e-08
1.58091e-09
8.71135e-10
6.84592e-08
-2.39653e-09
6.45535e-09
5.56232e-08
6.55824e-11
1.13058e-08
6.41437e-08
6.9203e-09