/*--------------------------------*- C++ -*----------------------------------*\
| =========                 |                                                 |
| \\      /  F ield         | OpenFOAM: The Open Source CFD Toolbox           |
|  \\    /   O peration     | Version:  2506                                  |
|   \\  /    A nd           | Website:  www.openfoam.com                      |
|    \\/     M anipulation  |                                                 |
\*---------------------------------------------------------------------------*/
FoamFile
{
    version     2.0;
    format      ascii;
    arch        "LSB;label=32;scalar=64";
    class       volVectorField;
    location    "0.09";
    object      U;
}
// * * * * * * * * * * * * * * * * * * * * * * * * * * * * * * * * * * * * * //

dimensions      [0 1 -1 0 0 0 0];

internalField   nonuniform List<vector> 
1152
(
(-0.000787333 0.000128372 0.0193012)
(-0.00103238 0.00183749 0.0179889)
(-0.00128837 -0.000999249 0.0153931)
(0.000326063 0.000376504 0.0142309)
(0.00225391 -0.000951661 0.0143058)
(-0.000963432 -0.00110927 0.0208241)
(-0.00228326 -0.00230729 0.0241332)
(-8.08095e-05 -0.000648301 0.015352)
(0.00312465 -0.000693745 0.0197544)
(-0.00125816 5.83093e-05 0.0124632)
(-0.00076319 -0.000292541 0.0111389)
(0.00110553 0.00099177 0.0129011)
(0.00152153 -0.000798647 0.0147298)
(-0.000607602 -0.00330331 0.034521)
(-5.77608e-05 0.000575779 0.0145661)
(0.000450429 0.00243981 0.0259043)
(0.000119128 -0.00248851 0.0378232)
(0.000801475 -0.00214569 0.0560642)
(0.000383812 -0.00070174 0.0299)
(-0.00235348 -0.00204951 0.0493095)
(-0.00287509 -0.00209356 0.057612)
(-0.00162988 0.000757466 0.0448392)
(-6.37701e-05 0.000456229 0.0465925)
(-0.000289163 0.000593699 0.0401317)
(-0.000489353 -0.00148006 0.0455755)
(4.09231e-05 -0.00347161 0.0497588)
(0.000408531 -0.000291626 0.0343219)
(-0.000183975 -0.000717475 0.0375261)
(-0.00430866 -0.00102004 0.049329)
(-0.000675784 -0.000380709 0.0437171)
(0.00371003 0.000916098 0.0405228)
(0.00113645 -5.3075e-05 0.0511922)
(0.00186699 -0.00052436 0.0364829)
(0.000722636 0.000489441 0.042935)
(0.00268839 0.00326077 0.037214)
(0.000649607 0.00195771 0.0322656)
(-0.000450693 -0.000313608 0.0299354)
(0.00144708 -0.00128056 0.0438991)
(0.00137239 -0.000373283 0.0446726)
(0.00123779 -0.000148556 0.0381477)
(0.000447081 0.000166609 0.0341204)
(0.000910586 -0.00337794 0.0562827)
(0.0012571 -0.00141982 0.0316651)
(0.00180285 -0.00152312 0.0414974)
(-0.00101649 0.0007005 0.0401117)
(8.9792e-05 0.000181673 0.0265976)
(0.000935263 4.11563e-05 0.0298751)
(0.00407499 -0.00102283 0.0540497)
(-0.00189691 0.000794173 0.054375)
(0.000401542 -0.000104393 0.0555189)
(0.00172807 0.00219478 0.0398717)
(-0.00107551 0.00928281 0.0705886)
(0.00100941 0.000357081 0.0437165)
(0.00261643 -0.00103324 0.0504056)
(0.00478066 -0.000156186 0.045666)
(-0.000436023 0.000155681 0.0344403)
(0.00118333 -0.000986965 0.0512303)
(0.00151335 0.000673617 0.0414915)
(0.00168485 -0.00103751 0.0358815)
(0.00154565 -0.005555 0.0460301)
(0.00426552 0.000421739 0.0458621)
(0.00214355 0.000894516 0.0387652)
(-9.89658e-05 0.000884437 0.0313216)
(0.000827623 2.64276e-05 0.0295728)
(9.79647e-05 -0.000472064 0.0472464)
(0.000131928 -0.00386607 0.0420233)
(0.000573987 -0.00082387 0.0408424)
(0.00118294 0.00118276 0.0388742)
(0.0013426 0.000748833 0.0433607)
(0.000109899 0.000199939 0.0409163)
(0.00208398 0.00120314 0.0618309)
(0.000323624 0.0026318 0.0765108)
(0.000161278 -0.000731669 0.0447409)
(0.00127802 0.00353806 0.0523287)
(0.00127075 0.00164944 0.0322258)
(-0.000173139 0.00258312 0.0346377)
(0.00279613 0.00119994 0.0427494)
(0.00318818 -5.80328e-05 0.0385106)
(0.00148821 -0.000118933 0.0315282)
(-0.00188231 -0.000214781 0.0358629)
(0.000418148 -0.00120233 0.030309)
(-0.000382498 0.00041555 0.0340914)
(-0.0017678 -0.00382747 0.0275435)
(-8.8853e-05 -0.0134777 0.0494965)
(0.00270421 -0.00119409 0.0441931)
(-0.00158081 -0.000631848 0.0256717)
(-0.00708122 -0.00292916 0.037723)
(0.000373386 -0.00122265 0.0257105)
(0.001914 0.00518024 0.0372688)
(-0.000997725 0.000275598 0.0227141)
(-0.00352259 0.00308492 0.0308514)
(-0.00302705 0.00386738 0.0409159)
(0.00152502 0.000118301 0.0220632)
(-0.00471577 0.000487199 0.0391398)
(-0.00414653 0.00057788 0.0337701)
(-0.00671887 0.00286519 0.0439535)
(-0.000387576 0.000132685 0.0269625)
(0.000178079 -0.000513532 0.0263805)
(0.000362139 0.000904203 0.0271812)
(0.000237976 -0.000540376 0.0286849)
(0.000161794 -0.000567094 0.0226037)
(0.000422085 -9.30397e-05 0.0263305)
(-0.00012878 0.000106439 0.0224476)
(-0.000298921 2.78343e-05 0.0294932)
(-2.55988e-05 -0.00158554 0.0294177)
(0.000594414 -0.000626072 0.0229369)
(-2.15274e-05 -0.000531113 0.0242581)
(-0.000373949 1.19309e-05 0.0255845)
(-0.000721848 0.0002024 0.0168348)
(0.0005271 0.000302741 0.0290163)
(-5.31248e-05 -0.000330392 0.0273335)
(0.00107466 0.000129367 0.0312242)
(-0.00171704 -0.00303211 0.0290287)
(-0.00199426 -0.0031604 0.0279228)
(-0.00208345 -0.00404665 0.0248814)
(-0.00216259 -0.00457011 0.0241342)
(-0.00214016 -0.00218978 0.0116184)
(-0.00286487 -0.00225915 0.0234503)
(-0.0029865 -0.00276965 -0.00543646)
(-0.00311609 -0.00355392 0.00789849)
(-0.00207361 -0.0013306 0.026446)
(-0.00286297 -0.000751166 0.0155592)
(-0.00360464 -0.00028342 0.000719144)
(-0.00464787 -0.000693857 0.00129522)
(-0.0015372 -0.000274337 0.0288676)
(-0.00212339 0.000148598 0.0278709)
(-0.00309979 0.000545032 0.0181177)
(-0.00512461 0.00121412 0.0135298)
(0.000705117 0.00126724 0.0185668)
(0.00098915 0.00141744 0.0184296)
(0.00106542 0.00217472 0.0182629)
(0.00102649 0.00199469 0.0187073)
(1.08929e-05 0.00093023 0.0167186)
(0.00145451 0.00109065 0.0178238)
(0.0015742 0.00148537 0.0157319)
(0.0017531 0.00169523 0.0168914)
(-0.000205019 -0.00012225 0.0177058)
(0.00130467 -0.000257262 0.017022)
(0.00156505 -0.000830806 0.0159352)
(0.00205286 -0.000213775 0.0163757)
(-0.000981437 -3.11661e-05 0.0182794)
(0.000618337 -0.000450921 0.0185699)
(0.00149561 -0.00116701 0.017834)
(0.00342021 -0.00132975 0.0169499)
(0.000308774 0.000913807 0.0200746)
(0.000668799 0.00108468 0.0196076)
(0.000840576 0.00144948 0.0188982)
(0.000825027 0.00154115 0.0185316)
(0.000114099 0.000759378 0.0187818)
(0.000868075 0.000906921 0.0184814)
(0.00110711 0.0011095 0.0171372)
(0.00116854 0.001275 0.0167609)
(0.000114026 0.00012827 0.0185667)
(0.000892375 0.000109219 0.0180734)
(0.00113875 -4.58464e-05 0.0169603)
(0.00131751 0.000148718 0.0162242)
(-0.000195981 -6.69143e-05 0.0186156)
(0.000626346 -0.000223425 0.0184675)
(0.00109812 -0.000532318 0.0176673)
(0.00169777 -0.000682135 0.0165314)
(0.000288844 0.000685299 0.0188455)
(0.000490172 0.000727293 0.0186395)
(0.000576733 0.000838927 0.0182825)
(0.000535032 0.000906605 0.0180078)
(0.000206189 0.000572427 0.0182329)
(0.000526954 0.000614824 0.0180576)
(0.00065784 0.0006743 0.0175234)
(0.000647685 0.00073064 0.0171921)
(0.000219736 0.000220939 0.0180528)
(0.000537103 0.000216079 0.0178049)
(0.000660307 0.000175856 0.0173021)
(0.000660722 0.000192141 0.0168752)
(0.000132661 -1.54208e-05 0.0180407)
(0.000449075 -6.25962e-05 0.0178914)
(0.000606255 -0.000177479 0.0174736)
(0.00064586 -0.0002909 0.0169499)
(0.000185843 0.000424097 0.0185883)
(0.000294133 0.000445738 0.0184505)
(0.000339122 0.000485868 0.0182544)
(0.000307891 0.000516703 0.0180789)
(0.000169149 0.000360059 0.0182737)
(0.000307447 0.000375354 0.0181536)
(0.000364783 0.000393375 0.0179198)
(0.00033675 0.000405093 0.0177159)
(0.000188479 0.000174981 0.0181314)
(0.000314362 0.000174502 0.0179912)
(0.00035915 0.00015598 0.0177601)
(0.00032002 0.000135797 0.017538)
(0.00016857 9.46259e-06 0.0180976)
(0.000281025 -9.5541e-06 0.0179797)
(0.0003178 -6.22061e-05 0.0177718)
(0.000265768 -0.000133767 0.0175425)
(0.000114902 0.000252089 0.0184443)
(0.000168877 0.000262124 0.0183672)
(0.000188511 0.000276135 0.0182628)
(0.00016647 0.000284566 0.018163)
(0.000113857 0.000211894 0.0182858)
(0.00017303 0.000218224 0.018213)
(0.000193137 0.000221183 0.0180991)
(0.000166774 0.000217135 0.0179891)
(0.000124867 0.000114252 0.0181996)
(0.000173107 0.000112662 0.0181203)
(0.000183645 0.000100139 0.0180054)
(0.000146977 7.90431e-05 0.0178933)
(0.000118798 1.54573e-05 0.0181717)
(0.000156489 3.3981e-06 0.0180968)
(0.000156472 -2.51354e-05 0.0179911)
(0.000108644 -6.68302e-05 0.0178868)
(6.63434e-05 0.000143504 0.0183779)
(9.27758e-05 0.000148023 0.0183344)
(0.000100844 0.000152069 0.0182786)
(8.693e-05 0.000151814 0.0182246)
(6.84761e-05 0.000119684 0.018295)
(9.36852e-05 0.00012148 0.0182526)
(9.91243e-05 0.000119572 0.0181944)
(8.04138e-05 0.000112246 0.018138)
(7.33384e-05 6.78439e-05 0.0182448)
(9.15833e-05 6.51029e-05 0.0182)
(9.04451e-05 5.57554e-05 0.018142)
(6.49337e-05 3.9961e-05 0.0180876)
(6.96222e-05 1.1886e-05 0.0182257)
(8.13212e-05 2.94534e-06 0.0181823)
(7.31492e-05 -1.41797e-05 0.0181291)
(4.11808e-05 -3.85028e-05 0.0180815)
(3.65175e-05 7.9268e-05 0.0183479)
(4.93305e-05 8.10708e-05 0.0183238)
(5.24303e-05 8.15127e-05 0.0182942)
(4.41665e-05 7.8887e-05 0.0182656)
(3.83448e-05 6.54836e-05 0.0183042)
(4.89827e-05 6.53419e-05 0.0182804)
(4.94458e-05 6.2402e-05 0.0182503)
(3.76304e-05 5.58594e-05 0.0182219)
(3.99406e-05 3.77072e-05 0.018276)
(4.64123e-05 3.47922e-05 0.0182513)
(4.2748e-05 2.797e-05 0.018222)
(2.68692e-05 1.71682e-05 0.0181959)
(3.69302e-05 6.49655e-06 0.018264)
(3.95422e-05 -3.04045e-08 0.0182403)
(3.17214e-05 -1.0754e-05 0.018214)
(1.2355e-05 -2.52258e-05 0.0181925)
(1.92813e-05 4.25775e-05 0.0183347)
(2.53921e-05 4.30736e-05 0.0183216)
(2.63978e-05 4.23545e-05 0.0183059)
(2.15946e-05 3.96149e-05 0.018291)
(2.02534e-05 3.46351e-05 0.0183116)
(2.45878e-05 3.38045e-05 0.0182985)
(2.36661e-05 3.11148e-05 0.018283)
(1.65723e-05 2.61984e-05 0.0182688)
(2.03443e-05 1.9567e-05 0.018296)
(2.22408e-05 1.70197e-05 0.0182828)
(1.88545e-05 1.21992e-05 0.0182681)
(9.43554e-06 5.05746e-06 0.0182557)
(1.78929e-05 2.18083e-06 0.018289)
(1.7545e-05 -2.43737e-06 0.0182765)
(1.17769e-05 -9.25891e-06 0.0182638)
(5.6069e-07 -1.8013e-05 0.0182543)
(9.71623e-06 2.21762e-05 0.0183292)
(1.25367e-05 2.2076e-05 0.0183222)
(1.26824e-05 2.11087e-05 0.018314)
(9.87607e-06 1.88859e-05 0.0183063)
(1.00372e-05 1.75383e-05 0.018317)
(1.16454e-05 1.65745e-05 0.01831)
(1.0542e-05 1.44526e-05 0.0183021)
(6.35322e-06 1.10125e-05 0.0182951)
(9.55018e-06 9.22239e-06 0.0183086)
(9.74778e-06 7.21012e-06 0.0183017)
(7.21631e-06 3.89261e-06 0.0182944)
(1.71443e-06 -7.43987e-07 0.0182888)
(7.64931e-06 -5.34199e-07 0.0183047)
(6.54922e-06 -3.72139e-06 0.0182984)
(2.67013e-06 -8.09878e-06 0.0182925)
(-3.7553e-06 -1.34707e-05 0.0182887)
(4.5656e-06 1.10702e-05 0.0183273)
(5.78846e-06 1.07466e-05 0.0183237)
(5.61237e-06 9.85807e-06 0.0183195)
(3.93999e-06 8.22181e-06 0.0183156)
(4.52596e-06 8.29555e-06 0.0183209)
(4.98136e-06 7.42542e-06 0.0183173)
(4.04596e-06 5.85823e-06 0.0183134)
(1.56706e-06 3.53353e-06 0.0183101)
(3.90264e-06 3.6075e-06 0.0183165)
(3.54454e-06 2.10706e-06 0.0183131)
(1.79459e-06 -1.33138e-07 0.0183096)
(-1.41893e-06 -3.09721e-06 0.0183072)
(2.49299e-06 -1.92901e-06 0.0183145)
(1.3889e-06 -4.09563e-06 0.0183116)
(-1.09935e-06 -6.91265e-06 0.018309)
(-4.82834e-06 -1.02577e-05 0.0183078)
(1.88533e-06 5.15646e-06 0.0183271)
(2.35029e-06 4.79287e-06 0.0183252)
(2.08089e-06 4.07726e-06 0.0183232)
(1.06532e-06 2.91928e-06 0.0183214)
(1.68742e-06 3.45156e-06 0.0183238)
(1.68724e-06 2.73788e-06 0.018322)
(9.71982e-07 1.62304e-06 0.0183202)
(-5.00696e-07 8.03321e-08 0.0183188)
(1.11025e-06 7.43845e-07 0.0183216)
(6.36883e-07 -3.42284e-07 0.01832)
(-5.2868e-07 -1.83674e-06 0.0183185)
(-2.40784e-06 -3.70749e-06 0.0183176)
(9.50506e-08 -2.43224e-06 0.0183207)
(-8.03328e-07 -3.8869e-06 0.0183195)
(-2.35586e-06 -5.69944e-06 0.0183185)
(-4.55115e-06 -7.80697e-06 0.0183184)
(5.60596e-07 2.10604e-06 0.0183275)
(6.78938e-07 1.77783e-06 0.0183266)
(4.14478e-07 1.23395e-06 0.0183257)
(-2.12651e-07 4.38662e-07 0.018325)
(3.26538e-07 1.02916e-06 0.0183259)
(1.61849e-07 4.78773e-07 0.0183251)
(-3.5663e-07 -2.99346e-07 0.0183244)
(-1.22457e-06 -1.31391e-06 0.0183239)
(-1.50756e-07 -5.71782e-07 0.0183249)
(-5.8526e-07 -1.34022e-06 0.0183243)
(-1.34993e-06 -2.33003e-06 0.0183238)
(-2.43136e-06 -3.51056e-06 0.0183236)
(-8.69733e-07 -2.39863e-06 0.0183247)
(-1.54261e-06 -3.36339e-06 0.0183243)
(-2.50441e-06 -4.52267e-06 0.0183241)
(-3.77365e-06 -5.84853e-06 0.0183244)
(-3.57153e-08 6.25032e-07 0.0183281)
(-5.88821e-08 3.56616e-07 0.0183278)
(-2.81892e-07 -3.4687e-08 0.0183275)
(-6.65009e-07 -5.71387e-07 0.0183273)
(-2.50833e-07 -6.54797e-08 0.0183275)
(-4.44463e-07 -4.72373e-07 0.0183272)
(-8.05256e-07 -1.00187e-06 0.018327)
(-1.30667e-06 -1.66286e-06 0.0183269)
(-6.16475e-07 -1.0281e-06 0.0183272)
(-9.60922e-07 -1.55701e-06 0.018327)
(-1.45689e-06 -2.20642e-06 0.018327)
(-2.05754e-06 -2.95446e-06 0.0183271)
(-1.11565e-06 -2.06795e-06 0.0183273)
(-1.5908e-06 -2.69649e-06 0.0183273)
(-2.18946e-06 -3.42667e-06 0.0183275)
(-2.87872e-06 -4.24267e-06 0.0183279)
(-2.53954e-07 -5.94588e-09 0.0183288)
(-3.24872e-07 -2.04293e-07 0.0183288)
(-4.89082e-07 -4.68617e-07 0.0183287)
(-7.17183e-07 -8.16782e-07 0.0183288)
(-4.2784e-07 -4.40809e-07 0.0183286)
(-5.89195e-07 -7.19917e-07 0.0183286)
(-8.29705e-07 -1.06507e-06 0.0183287)
(-1.11217e-06 -1.48309e-06 0.0183289)
(-6.87476e-07 -1.0088e-06 0.0183287)
(-9.31473e-07 -1.35767e-06 0.0183287)
(-1.24437e-06 -1.7708e-06 0.0183289)
(-1.56456e-06 -2.23723e-06 0.0183293)
(-1.01897e-06 -1.58686e-06 0.018329)
(-1.33237e-06 -1.98283e-06 0.0183292)
(-1.70174e-06 -2.42809e-06 0.0183295)
(-2.04509e-06 -2.90866e-06 0.01833)
(-3.07857e-07 -1.75665e-07 0.0183293)
(-3.80319e-07 -3.11378e-07 0.0183294)
(-4.91011e-07 -4.78001e-07 0.0183296)
(-6.22519e-07 -6.8817e-07 0.0183297)
(-4.31638e-07 -4.34138e-07 0.0183294)
(-5.47743e-07 -6.10167e-07 0.0183295)
(-6.97816e-07 -8.19638e-07 0.0183297)
(-8.52951e-07 -1.06644e-06 0.01833)
(-5.98687e-07 -7.52294e-07 0.0183296)
(-7.56438e-07 -9.64366e-07 0.0183298)
(-9.43229e-07 -1.20866e-06 0.0183301)
(-1.11052e-06 -1.48145e-06 0.0183305)
(-8.00412e-07 -1.06076e-06 0.01833)
(-9.93085e-07 -1.29379e-06 0.0183303)
(-1.21071e-06 -1.54881e-06 0.0183307)
(-1.3742e-06 -1.81357e-06 0.0183313)
(-3.36027e-07 -1.53588e-07 0.0183298)
(-4.03021e-07 -2.44104e-07 0.0183299)
(-4.83498e-07 -3.48406e-07 0.0183301)
(-5.65764e-07 -4.69619e-07 0.0183303)
(-4.18955e-07 -2.9757e-07 0.01833)
(-5.07555e-07 -4.06354e-07 0.0183301)
(-6.05049e-07 -5.29385e-07 0.0183304)
(-6.97371e-07 -6.66987e-07 0.0183307)
(-5.20396e-07 -4.70903e-07 0.0183303)
(-6.2841e-07 -5.93765e-07 0.0183305)
(-7.41487e-07 -7.29632e-07 0.0183308)
(-8.39318e-07 -8.77176e-07 0.0183312)
(-6.34319e-07 -6.42189e-07 0.0183308)
(-7.59194e-07 -7.7204e-07 0.0183311)
(-8.85827e-07 -9.10719e-07 0.0183315)
(-9.80273e-07 -1.0513e-06 0.0183319)
(0.000251079 -0.000196302 0.0113619)
(-0.00126331 0.0020658 0.0213135)
(-0.00062116 -0.00189122 0.0240137)
(-0.000396207 -0.003073 0.0167213)
(0.00253251 -0.000395261 0.0158929)
(-0.000462132 -0.00210623 0.00913872)
(-0.00427754 -0.00337233 0.0147825)
(0.000776769 -0.00218725 0.0102578)
(-0.000982225 -0.000495399 0.0133201)
(-0.000315898 -0.00335444 0.0164871)
(-0.000991781 -0.00434934 0.0255131)
(0.000267773 0.000395602 0.012191)
(-0.00267992 -0.000666584 0.01945)
(-0.00271862 0.00169719 0.0145777)
(0.000371402 0.00231101 0.0103791)
(0.00336613 0.000845875 0.0214098)
(-0.00140226 -0.00146122 0.0521634)
(-0.0027486 -0.00108552 0.0346592)
(0.00127085 -0.000296719 0.0421325)
(0.00120608 -0.000809434 0.0597894)
(0.000642944 -0.00146264 0.039873)
(-0.00176872 -7.58959e-05 0.0842809)
(0.000815828 -0.00246796 0.0425842)
(-0.000941463 -0.0022784 0.0341643)
(0.00116461 -0.00114503 0.0516159)
(-0.00110723 -0.000654752 0.0326265)
(-0.000858306 -0.00073355 0.0349984)
(0.000257087 -0.00237018 0.0326411)
(0.00224542 0.00337778 0.0518394)
(0.00246312 0.000366271 0.0320264)
(-0.000792886 0.000983174 0.0245125)
(-0.00337552 0.000498371 0.048108)
(0.00223439 0.000936609 0.0486263)
(0.00332696 -0.000860088 0.035153)
(0.00102493 0.000418004 0.0371712)
(0.000718424 0.00208587 0.0425007)
(-0.00199695 -0.000154341 0.04061)
(0.000899338 0.0014832 0.0366517)
(0.00468313 0.00195472 0.0387325)
(-0.000944418 0.00196207 0.0422355)
(0.002173 0.000548261 0.035007)
(0.00338935 0.00453141 0.0456768)
(0.000636151 0.000654045 0.0383156)
(0.000479101 -0.000357369 0.028166)
(0.0021666 0.00420461 0.0294038)
(0.00489103 0.00440934 0.0434908)
(-0.000556228 -0.00416729 0.0424089)
(-0.00106327 -1.77373e-06 0.046908)
(0.00118508 0.0011829 0.0331117)
(0.00214357 0.000718007 0.0328131)
(0.000809201 -0.00266547 0.0565918)
(3.85163e-05 0.000885207 0.0256359)
(0.00110112 0.000159533 0.047249)
(0.00288757 -0.00183473 0.0513614)
(0.00275858 -0.00129773 0.0430589)
(0.00461485 -0.00106344 0.0620998)
(-0.00189835 0.00283788 0.0341133)
(-3.48705e-05 -0.00135638 0.047527)
(0.00179528 -0.000578182 0.0452735)
(0.00199186 -0.000606368 0.0346992)
(-0.00163026 -0.00143453 0.0316519)
(-0.000363942 -0.000457403 0.0251357)
(0.00123865 -0.000549074 0.038773)
(0.00287954 -0.000288236 0.0386164)
(-0.00269896 -0.00546671 0.0457293)
(-0.00411418 -0.00534795 0.0489715)
(0.000423154 -0.00370217 0.0607826)
(0.00175003 -0.00171528 0.0506847)
(0.00242812 -0.00369162 0.0328388)
(0.00291516 -0.00349449 0.0526099)
(0.00166314 0.000831947 0.0241523)
(0.00544981 0.000944713 0.0578333)
(-0.000211552 0.00152145 0.0456636)
(0.00189027 0.000499277 0.035465)
(0.00294838 0.00185823 0.0415347)
(0.00104541 0.000890602 0.0272176)
(0.00181296 -0.00440764 0.0532346)
(0.00149383 -0.00351257 0.0403647)
(0.00221034 -0.000570125 0.0395797)
(0.00162571 -0.000554936 0.0381667)
(0.0121996 -0.00226531 0.0636287)
(0.00532868 0.00107796 0.0241326)
(0.00294503 0.000386721 0.0223322)
(0.00105171 -0.00122354 0.0313926)
(0.00140312 -0.00115094 0.0267185)
(0.00336309 -2.90092e-05 0.029331)
(0.00304332 -0.0018334 0.0260255)
(0.000572008 -0.000835897 0.0240391)
(0.00333538 -0.000520097 0.0267988)
(0.00415575 -0.000422029 0.0308722)
(0.00456346 -0.00120366 0.0379987)
(0.0032207 -0.000431944 0.0327055)
(0.00071215 -3.10341e-05 0.0274138)
(0.00364065 -0.000610855 0.0356238)
(0.00393534 0.000635138 0.0332735)
(0.00627143 -0.000690673 0.0334881)
(-1.93282e-06 -0.00166393 0.0168199)
(0.00145108 -0.000957603 0.0334503)
(-1.80083e-06 0.0002377 0.0305517)
(0.000303808 -0.000517513 0.0290898)
(-0.000300619 0.000541901 0.0193867)
(0.000379388 0.000734461 0.0273259)
(0.00122712 -0.000221246 0.021374)
(-0.000284318 6.7038e-05 0.0272158)
(-0.000496472 0.00102496 0.0177715)
(-0.000454028 0.0008131 0.0274641)
(0.000414193 0.000178529 0.0270935)
(-0.000994663 0.000380942 0.024834)
(0.00205824 0.000671231 0.0321734)
(-4.38541e-05 8.72604e-05 0.0218903)
(-0.00150297 -0.000721705 0.0270512)
(-0.000294215 0.000573575 0.0240457)
(0.000135727 -0.00143463 0.033)
(-0.000563183 -0.00221597 0.0365394)
(-0.000841299 -0.00242064 0.0391658)
(-0.000993899 -0.00260544 0.036076)
(-1.39799e-05 -0.0012212 0.00743695)
(-0.000616749 -0.00196845 0.018181)
(-0.000849221 -0.00234916 0.00903196)
(-0.00125772 -0.0022362 0.0232088)
(-0.000656168 -0.00123696 0.0163277)
(-0.00155479 -0.0020306 0.0195462)
(-0.00118404 -0.00231582 0.0143075)
(-0.00121069 -0.00163735 0.0160489)
(-0.00102359 0.000971659 0.0234192)
(-0.00180051 -7.27522e-05 0.00241352)
(-0.00133842 -0.000524424 0.0083291)
(-0.000763173 -0.0004226 0.00860498)
(-0.00162879 0.00184705 0.0182691)
(-0.00136204 0.00149904 0.0190778)
(-0.000707673 0.00153697 0.0194695)
(-0.000104974 0.00149093 0.0192064)
(-0.00154473 0.00166954 0.0130783)
(-0.00185513 0.00151914 0.0151066)
(-0.00159468 0.00168747 0.0152817)
(-0.00113206 0.00152986 0.0169106)
(-0.00029793 -0.00042978 0.0142989)
(-0.000628596 0.000166714 0.0156232)
(-0.000561907 0.000602074 0.0153985)
(-0.000918178 0.000660172 0.0159546)
(0.000179248 -0.000614602 0.0174157)
(0.000134162 -0.000637265 0.0161102)
(-0.000484981 -0.00059123 0.0155662)
(-0.00143261 0.000127918 0.0152994)
(-0.000887309 0.00118296 0.0211044)
(-0.000636503 0.00111915 0.0211708)
(-0.00029966 0.00111318 0.0209794)
(-8.48617e-05 0.0010456 0.0205329)
(-0.000817174 0.00107077 0.0175832)
(-0.000877332 0.000993944 0.0182366)
(-0.000681351 0.00102792 0.0185051)
(-0.000442307 0.000939314 0.0187605)
(-8.91429e-05 -0.000223074 0.0176461)
(-0.000178964 0.000112227 0.0180589)
(-0.000107712 0.000352648 0.0179801)
(-0.000254479 0.000405043 0.0181243)
(0.000162271 -0.000494427 0.0186515)
(0.000230969 -0.000429898 0.0181377)
(1.5465e-05 -0.000341028 0.0176526)
(-0.000416521 -2.41334e-05 0.0177325)
(-0.000465633 0.00069244 0.0194465)
(-0.000298798 0.00072143 0.019395)
(-0.000105421 0.000737895 0.0192282)
(3.58424e-05 0.00071981 0.0189935)
(-0.000444247 0.000708291 0.0178451)
(-0.000423478 0.000679414 0.018074)
(-0.000276496 0.00068072 0.0181688)
(-9.79888e-05 0.000634132 0.0182227)
(-6.61896e-05 3.59931e-05 0.0178279)
(-8.05633e-05 0.000161182 0.0179694)
(-6.21669e-06 0.000263565 0.017936)
(1.67746e-05 0.000293873 0.0179475)
(5.18507e-05 -0.00021845 0.0182073)
(9.09451e-05 -0.000170805 0.0180067)
(7.70639e-05 -0.00011429 0.0178099)
(-1.04888e-06 -1.31746e-05 0.0177973)
(-0.000223502 0.000364369 0.0189606)
(-0.000121533 0.000404836 0.0189134)
(-1.77511e-05 0.000425012 0.0188139)
(5.64331e-05 0.0004248 0.018683)
(-0.000215969 0.000394727 0.0182212)
(-0.000174289 0.000391054 0.0182967)
(-8.11059e-05 0.000389505 0.018323)
(1.96363e-05 0.000369715 0.0183095)
(-3.3939e-05 8.22471e-05 0.0181164)
(-1.80442e-05 0.000131261 0.018169)
(3.66584e-05 0.000172997 0.0181617)
(8.42831e-05 0.000185415 0.0181446)
(2.02652e-05 -7.27353e-05 0.0182136)
(5.33655e-05 -4.94095e-05 0.0181658)
(8.09203e-05 -2.33344e-05 0.0181078)
(9.3418e-05 7.5862e-06 0.0180772)
(-0.000112117 0.000192144 0.0186545)
(-5.37989e-05 0.000221624 0.0186231)
(3.65444e-06 0.000238567 0.018567)
(4.63942e-05 0.000243828 0.0184968)
(-0.000105957 0.000214207 0.0183246)
(-7.27135e-05 0.000218878 0.018345)
(-1.79736e-05 0.000220523 0.0183439)
(3.84446e-05 0.000213016 0.0183199)
(-1.9569e-05 7.43466e-05 0.0182503)
(-5.57683e-07 9.48587e-05 0.0182639)
(3.49956e-05 0.000111656 0.0182555)
(7.13877e-05 0.000115757 0.0182331)
(9.1017e-06 -1.35537e-05 0.0182667)
(3.21996e-05 -3.06203e-06 0.0182513)
(5.71555e-05 8.01628e-06 0.0182264)
(7.95238e-05 1.69819e-05 0.0181994)
(-5.71572e-05 0.000100926 0.0184942)
(-2.49222e-05 0.000119258 0.0184765)
(6.58881e-06 0.000130696 0.0184463)
(3.05765e-05 0.000135643 0.0184086)
(-5.23228e-05 0.000114374 0.0183431)
(-3.05268e-05 0.000119667 0.0183469)
(1.69639e-07 0.000122026 0.0183399)
(3.05765e-05 0.000119391 0.0183204)
(-1.18384e-05 5.34645e-05 0.0182954)
(2.33804e-06 6.22375e-05 0.018297)
(2.39263e-05 6.87207e-05 0.0182891)
(4.62992e-05 6.92363e-05 0.0182716)
(3.7474e-06 5.68326e-06 0.0182907)
(1.75755e-05 9.94922e-06 0.0182836)
(3.39945e-05 1.38535e-05 0.0182703)
(5.01558e-05 1.52538e-05 0.0182514)
(-2.94448e-05 5.29513e-05 0.0184113)
(-1.19857e-05 6.35535e-05 0.0184017)
(5.05582e-06 7.04895e-05 0.0183857)
(1.80976e-05 7.38319e-05 0.0183654)
(-2.60549e-05 6.04805e-05 0.0183412)
(-1.29769e-05 6.4423e-05 0.0183405)
(3.72496e-06 6.63497e-05 0.018334)
(1.95022e-05 6.53886e-05 0.0183208)
(-6.93155e-06 3.3973e-05 0.0183125)
(2.15886e-06 3.7814e-05 0.0183112)
(1.44932e-05 4.0139e-05 0.0183052)
(2.67574e-05 3.94075e-05 0.0182934)
(1.49848e-06 8.50034e-06 0.0183038)
(9.27965e-06 1.00242e-05 0.0183001)
(1.87473e-05 1.08952e-05 0.0182927)
(2.79747e-05 9.94426e-06 0.0182809)
(-1.5262e-05 2.77063e-05 0.0183691)
(-5.97781e-06 3.35438e-05 0.018364)
(3.08281e-06 3.74304e-05 0.0183554)
(9.95654e-06 3.93177e-05 0.0183445)
(-1.30814e-05 3.17122e-05 0.018336)
(-5.69413e-06 3.41739e-05 0.0183345)
(3.14277e-06 3.53755e-05 0.0183298)
(1.10451e-05 3.48789e-05 0.0183216)
(-3.92131e-06 1.99344e-05 0.0183194)
(1.36437e-06 2.15978e-05 0.018318)
(8.01293e-06 2.22556e-05 0.0183138)
(1.42134e-05 2.12303e-05 0.0183064)
(5.84659e-07 6.3936e-06 0.0183122)
(4.69427e-06 6.75895e-06 0.0183101)
(9.6318e-06 6.4982e-06 0.0183059)
(1.41931e-05 5.04645e-06 0.0182989)
(-7.95358e-06 1.44376e-05 0.0183477)
(-3.11609e-06 1.75069e-05 0.018345)
(1.60582e-06 1.95228e-05 0.0183404)
(5.1098e-06 2.04114e-05 0.0183346)
(-6.61685e-06 1.64581e-05 0.0183318)
(-2.65827e-06 1.78084e-05 0.0183306)
(1.87138e-06 1.83932e-05 0.0183276)
(5.6604e-06 1.79794e-05 0.0183227)
(-2.16546e-06 1.09946e-05 0.0183225)
(6.46546e-07 1.16415e-05 0.0183214)
(4.01119e-06 1.16264e-05 0.0183188)
(6.89518e-06 1.06444e-05 0.0183144)
(1.90311e-07 3.68125e-06 0.0183177)
(2.15369e-06 3.58662e-06 0.0183165)
(4.46215e-06 2.98782e-06 0.018314)
(6.40748e-06 1.64084e-06 0.0183101)
(-4.16146e-06 7.46457e-06 0.0183371)
(-1.71156e-06 8.98475e-06 0.0183357)
(6.81402e-07 9.92159e-06 0.0183333)
(2.38499e-06 1.02157e-05 0.0183302)
(-3.3533e-06 8.39071e-06 0.0183293)
(-1.3575e-06 9.02901e-06 0.0183285)
(8.60303e-07 9.20189e-06 0.0183268)
(2.54969e-06 8.792e-06 0.0183241)
(-1.16488e-06 5.67928e-06 0.0183243)
(1.74982e-07 5.84017e-06 0.0183236)
(1.73047e-06 5.56863e-06 0.018322)
(2.90438e-06 4.73164e-06 0.0183196)
(1.31935e-08 1.59213e-06 0.0183214)
(7.86269e-07 1.34594e-06 0.0183207)
(1.68795e-06 7.26309e-07 0.0183194)
(2.31377e-06 -3.55838e-07 0.0183173)
(-2.17819e-06 3.80193e-06 0.0183321)
(-9.9259e-07 4.48357e-06 0.0183313)
(1.67947e-07 4.83074e-06 0.0183301)
(9.31874e-07 4.814e-06 0.0183285)
(-1.68693e-06 4.1459e-06 0.0183283)
(-7.68192e-07 4.36937e-06 0.0183278)
(2.38817e-07 4.31065e-06 0.0183269)
(8.88753e-07 3.91444e-06 0.0183254)
(-6.0884e-07 2.67214e-06 0.0183257)
(-8.26721e-08 2.60895e-06 0.0183253)
(5.25845e-07 2.26749e-06 0.0183244)
(8.69734e-07 1.58987e-06 0.0183231)
(-6.00234e-08 2.92165e-07 0.0183241)
(9.82005e-08 2.39608e-08 0.0183238)
(3.02224e-07 -5.09665e-07 0.0183231)
(3.24384e-07 -1.3263e-06 0.018322)
(-1.13427e-06 1.88639e-06 0.0183299)
(-6.03261e-07 2.13075e-06 0.0183296)
(-9.13829e-08 2.17944e-06 0.018329)
(2.10514e-07 2.01913e-06 0.0183282)
(-8.37026e-07 1.9346e-06 0.0183281)
(-4.78418e-07 1.9406e-06 0.0183279)
(-9.12528e-08 1.77536e-06 0.0183274)
(7.58241e-08 1.41975e-06 0.0183267)
(-3.06029e-07 1.05492e-06 0.0183269)
(-1.96457e-07 9.0673e-07 0.0183266)
(-5.41336e-08 5.7583e-07 0.0183262)
(-7.76774e-08 5.35888e-08 0.0183256)
(-8.37743e-08 -3.80539e-07 0.0183262)
(-2.10209e-07 -6.18302e-07 0.018326)
(-3.16281e-07 -1.04206e-06 0.0183257)
(-5.28586e-07 -1.63676e-06 0.0183252)
(-5.89714e-07 8.92175e-07 0.0183292)
(-3.86965e-07 9.27642e-07 0.018329)
(-1.98748e-07 8.49627e-07 0.0183288)
(-1.11477e-07 6.51869e-07 0.0183284)
(-4.04444e-07 8.14604e-07 0.0183284)
(-3.21704e-07 7.27811e-07 0.0183283)
(-2.29186e-07 5.36032e-07 0.0183281)
(-2.61819e-07 2.41621e-07 0.0183278)
(-1.47901e-07 2.55269e-07 0.0183279)
(-2.25594e-07 9.37909e-08 0.0183278)
(-2.86802e-07 -1.87367e-07 0.0183276)
(-4.42157e-07 -5.75711e-07 0.0183274)
(-8.31099e-08 -6.27156e-07 0.0183277)
(-3.10711e-07 -8.16771e-07 0.0183276)
(-5.23889e-07 -1.13484e-06 0.0183275)
(-7.91553e-07 -1.55533e-06 0.0183274)
(-3.08895e-07 3.99321e-07 0.0183291)
(-2.61087e-07 3.51431e-07 0.018329)
(-2.24508e-07 2.40094e-07 0.018329)
(-2.20062e-07 6.30501e-08 0.0183289)
(-1.9263e-07 2.89828e-07 0.0183288)
(-2.2684e-07 1.82122e-07 0.0183288)
(-2.57785e-07 1.1784e-08 0.0183287)
(-3.56439e-07 -2.10354e-07 0.0183287)
(-7.13906e-08 -7.00752e-08 0.0183287)
(-2.0816e-07 -2.08886e-07 0.0183287)
(-3.34469e-07 -4.24336e-07 0.0183287)
(-5.10683e-07 -6.9713e-07 0.0183286)
(-7.12414e-08 -6.099e-07 0.0183288)
(-3.01291e-07 -7.48978e-07 0.0183288)
(-5.18665e-07 -9.72626e-07 0.0183288)
(-7.61295e-07 -1.25628e-06 0.0183289)
(-1.79401e-07 1.88142e-07 0.0183292)
(-1.95046e-07 1.23441e-07 0.0183293)
(-2.18188e-07 2.5483e-08 0.0183293)
(-2.45666e-07 -1.03556e-07 0.0183293)
(-1.04776e-07 9.47798e-08 0.0183292)
(-1.73599e-07 2.16545e-09 0.0183292)
(-2.41755e-07 -1.24952e-07 0.0183293)
(-3.44562e-07 -2.75826e-07 0.0183293)
(-4.39488e-08 -1.28817e-07 0.0183294)
(-1.76839e-07 -2.30877e-07 0.0183294)
(-3.02904e-07 -3.77932e-07 0.0183294)
(-4.54651e-07 -5.53843e-07 0.0183295)
(-5.75101e-08 -4.5073e-07 0.0183296)
(-2.46063e-07 -5.42783e-07 0.0183297)
(-4.25104e-07 -6.8579e-07 0.0183297)
(-6.15514e-07 -8.62017e-07 0.0183298)
(-1.466e-07 1.32114e-07 0.0183295)
(-1.8604e-07 7.35898e-08 0.0183295)
(-2.27088e-07 9.90609e-10 0.0183296)
(-2.69742e-07 -8.38707e-08 0.0183297)
(-9.24354e-08 6.97614e-08 0.0183296)
(-1.6833e-07 -3.53092e-09 0.0183296)
(-2.42733e-07 -9.30482e-08 0.0183297)
(-3.30725e-07 -1.9354e-07 0.0183298)
(-5.02489e-08 -7.0308e-08 0.0183299)
(-1.68808e-07 -1.44205e-07 0.0183299)
(-2.8193e-07 -2.40139e-07 0.01833)
(-4.04151e-07 -3.50221e-07 0.0183301)
(-5.53239e-08 -2.74766e-07 0.0183303)
(-2.0898e-07 -3.34687e-07 0.0183303)
(-3.53433e-07 -4.21715e-07 0.0183304)
(-4.99529e-07 -5.25941e-07 0.0183305)
(-0.00108928 -0.000185748 0.0155908)
(-0.00050135 0.000638177 0.018578)
(0.00152116 0.000418866 0.0115231)
(-0.00183548 -0.0010799 0.0121907)
(-0.000793235 3.86103e-06 0.0133693)
(-0.000215979 -0.00122138 0.0178409)
(0.00101125 -0.000282161 0.0133137)
(-0.00522899 -0.00436457 0.0271499)
(-0.00364947 -0.000767266 0.0147382)
(-0.000382965 -0.00112662 0.0103449)
(0.000976948 -0.00094253 0.0150892)
(-0.000513841 -0.00225663 0.0107176)
(-0.000986395 -0.000632803 0.0131591)
(0.000824749 0.00104895 0.0133078)
(-0.000791241 -0.0017721 0.0181656)
(-0.00010467 -0.000476931 0.00728692)
(-0.00161884 0.000249264 0.0550831)
(0.000987068 -0.000551165 0.0344816)
(0.00207796 -0.00115626 0.0476599)
(0.000334662 -0.00338231 0.0613475)
(-0.00116398 -0.000324048 0.0494108)
(-0.0016524 2.06687e-05 0.0482525)
(-0.00126829 -0.00199641 0.0547826)
(0.00308636 -0.000502147 0.0394726)
(0.00106135 -0.00172374 0.0561995)
(-0.00167484 -0.00165206 0.0408489)
(-0.000851031 -0.00199804 0.0436274)
(0.000458895 0.00204997 0.0491987)
(0.000608397 -0.00338039 0.0411005)
(-0.000604243 -0.00162007 0.0316668)
(0.00130018 -0.00147311 0.0640582)
(-0.000460777 0.000189726 0.0449521)
(0.0014404 -0.00244692 0.0403008)
(-0.000941932 -0.000860217 0.0454858)
(-0.00140868 0.000312063 0.0346349)
(0.00586144 0.00406971 0.0565125)
(0.00106654 -0.000576469 0.0370225)