/*--------------------------------*- C++ -*----------------------------------*\
| =========                 |                                                 |
| \\      /  F ield         | OpenFOAM: The Open Source CFD Toolbox           |
|  \\    /   O peration     | Version:  2506                                  |
|   \\  /    A nd           | Website:  www.openfoam.com                      |
|    \\/     M anipulation  |                                                 |
\*---------------------------------------------------------------------------*/
FoamFile
{
    version     2.0;
    format      ascii;
    arch        "LSB;label=32;scalar=64";
    class       volVectorField;
    location    "0.09";
    object      Us;
}
// * * * * * * * * * * * * * * * * * * * * * * * * * * * * * * * * * * * * * //

dimensions      [0 1 -1 0 0 0 0];

internalField   nonuniform List<vector> 
1152
(
(-5.70703e-05 -3.19726e-05 -2.21681e-05)
(0.0003777 0.000385438 6.12062e-05)
(0.00025523 0.000147549 -5.53774e-05)
(-8.32064e-05 -4.23364e-05 -4.03937e-05)
(-0.000153432 -5.84323e-05 -4.64589e-05)
(-0.000421467 0.000159366 0.000712928)
(-0.000113559 5.63989e-05 3.45855e-05)
(-8.41553e-05 4.11329e-05 1.22336e-05)
(0.000128954 0.000268844 0.000379776)
(6.41822e-05 2.07437e-05 0.000108592)
(0.000131685 4.74289e-05 -2.63385e-05)
(0.000140321 7.79437e-06 0.000186701)
(6.44179e-05 -4.63804e-05 7.25228e-05)
(-0.000133811 -0.000115444 -2.71671e-05)
(4.56017e-05 -7.19686e-05 0.000278719)
(2.32658e-05 -4.03107e-05 -9.57479e-06)
(0.000309674 -0.00157007 0.0123482)
(0.000978521 -0.00130491 0.0133293)
(0.00027598 -8.76485e-05 0.0123505)
(-0.00203409 -0.000123042 0.0133834)
(-0.00085088 -0.00112918 0.0135513)
(-0.000805276 0.000853571 0.0134726)
(0.000208958 0.000789814 0.0126037)
(0.000315526 0.00126626 0.013332)
(-0.00085641 -0.000762862 0.0146277)
(-0.000225044 -0.000452975 0.0141442)
(0.000762955 4.73255e-05 0.0124547)
(0.000302567 -9.4696e-05 0.0117567)
(-0.00101412 -0.000106852 0.0139027)
(-3.95659e-05 -0.000242422 0.013457)
(0.00219969 0.000551814 0.012123)
(0.000823733 1.62415e-05 0.0135129)
(0.00112528 0.000502658 0.0131756)
(0.000314766 0.000374266 0.0145057)
(0.000879834 0.00179086 0.014298)
(0.000764308 0.00183248 0.0139405)
(0.000448911 0.000195261 0.013742)
(-0.000286861 -0.000550063 0.0155306)
(0.000889797 0.00118272 0.0151293)
(0.00100304 0.00157088 0.0148516)
(0.00121101 -0.000163421 0.0139339)
(0.00132025 0.000384691 0.0143514)
(0.000825887 0.000387792 0.0146174)
(0.00100566 0.000571342 0.0151266)
(0.000948996 0.00048454 0.0137327)
(0.000813083 9.52139e-06 0.0143067)
(0.000563519 0.000153551 0.0143505)
(0.000517881 0.000392621 0.0152843)
(-0.000841653 0.000914407 0.0141664)
(0.000242653 0.000429765 0.0146892)
(0.000951961 0.000593414 0.0146991)
(0.000965099 0.00125078 0.0144895)
(0.00110443 0.00128318 0.0140561)
(0.000930817 0.000452087 0.0148332)
(0.00103796 0.000620193 0.0146031)
(0.000953031 0.000852313 0.0147691)
(0.00128953 0.000823788 0.0146747)
(0.00120474 0.000602568 0.0145116)
(0.000940507 0.000330044 0.0147784)
(0.000796042 0.000406583 0.0153348)
(0.00180272 0.000197427 0.0142723)
(0.00150066 0.000273204 0.0150202)
(0.00106963 0.000388494 0.0152988)
(0.000543253 -1.13814e-05 0.0156574)
(0.000797786 0.000219312 0.0139145)
(2.8753e-05 -0.000504406 0.0142325)
(0.000493615 0.000295804 0.014778)
(0.000598686 0.000622473 0.0147674)
(0.00068087 0.000557776 0.0141479)
(0.000682573 0.0003266 0.0145033)
(0.000580146 0.000278757 0.0149631)
(0.000519632 0.000497723 0.0152264)
(0.000731156 0.000496143 0.0144653)
(0.00076561 0.000443535 0.0148203)
(0.000634437 0.000321549 0.0153537)
(0.000582207 0.000228844 0.0155337)
(0.000896732 0.000366119 0.014794)
(0.00109577 0.000187564 0.015363)
(0.000595234 0.000396136 0.0153106)
(2.25891e-05 6.9258e-05 0.0159167)
(0.000208218 -0.000147482 0.014107)
(0.000240633 0.000433088 0.014401)
(2.53612e-05 -5.90665e-05 0.0146922)
(-0.000248654 -0.000492315 0.0151529)
(0.00046503 -0.000230309 0.0138868)
(0.000223608 -0.000270444 0.014467)
(0.000182787 9.0804e-06 0.0150818)
(6.86522e-05 3.46264e-05 0.0152371)
(0.000423088 9.76545e-05 0.0145086)
(5.58067e-05 4.88974e-05 0.0146268)
(7.26502e-05 -6.31271e-06 0.0152768)
(-2.01312e-05 0.000251474 0.0156273)
(0.000522194 0.000203372 0.0147317)
(0.000317115 9.06703e-05 0.0152719)
(0.000156553 0.000161209 0.0155133)
(7.02607e-05 2.06016e-05 0.0157085)
(-0.000856997 -0.000598235 0.0138173)
(8.16409e-05 -0.000141645 0.0144928)
(0.000302303 -0.000215227 0.0146368)
(0.000501474 -0.000680294 0.0143827)
(0.000169549 -0.000527386 0.0143073)
(-0.000201957 -0.000254619 0.0144585)
(-0.000231886 -4.83251e-05 0.0149224)
(-8.2472e-05 -0.000190523 0.0144437)
(0.000182729 -0.000547672 0.0140855)
(7.36792e-06 -0.000638259 0.0146259)
(-0.000222513 -0.000132909 0.0151381)
(-0.00017076 0.000190738 0.0154946)
(0.000552182 -2.1345e-05 0.0148963)
(-0.000122714 -0.000264748 0.0152885)
(-2.97272e-05 0.000185152 0.0154982)
(-0.000218192 0.000335266 0.0154905)
(0 0 0)
(0 0 0)
(0 0 0)
(0 0 0)
(0 0 0)
(0 0 0)
(0 0 0)
(0 0 0)
(0 0 0)
(0 0 0)
(0 0 0)
(0 0 0)
(0 0 0)
(0 0 0)
(0 0 0)
(0 0 0)
(0 0 0)
(0 0 0)
(0 0 0)
(0 0 0)
(0 0 0)
(0 0 0)
(0 0 0)
(0 0 0)
(0 0 0)
(0 0 0)
(0 0 0)
(0 0 0)
(0 0 0)
(0 0 0)
(0 0 0)
(0 0 0)
(0 0 0)
(0 0 0)
(0 0 0)
(0 0 0)
(0 0 0)
(0 0 0)
(0 0 0)
(0 0 0)
(0 0 0)
(0 0 0)
(0 0 0)
(0 0 0)
(0 0 0)
(0 0 0)
(0 0 0)
(0 0 0)
(0 0 0)
(0 0 0)
(0 0 0)
(0 0 0)
(0 0 0)
(0 0 0)
(0 0 0)
(0 0 0)
(0 0 0)
(0 0 0)
(0 0 0)
(0 0 0)
(0 0 0)
(0 0 0)
(0 0 0)
(0 0 0)
(0 0 0)
(0 0 0)
(0 0 0)
(0 0 0)
(0 0 0)
(0 0 0)
(0 0 0)
(0 0 0)
(0 0 0)
(0 0 0)
(0 0 0)
(0 0 0)
(0 0 0)
(0 0 0)
(0 0 0)
(0 0 0)
(0 0 0)
(0 0 0)
(0 0 0)
(0 0 0)
(0 0 0)
(0 0 0)
(0 0 0)
(0 0 0)
(0 0 0)
(0 0 0)
(0 0 0)
(0 0 0)
(0 0 0)
(0 0 0)
(0 0 0)
(0 0 0)
(0 0 0)
(0 0 0)
(0 0 0)
(0 0 0)
(0 0 0)
(0 0 0)
(0 0 0)
(0 0 0)
(0 0 0)
(0 0 0)
(0 0 0)
(0 0 0)
(0 0 0)
(0 0 0)
(0 0 0)
(0 0 0)
(0 0 0)
(0 0 0)
(0 0 0)
(0 0 0)
(0 0 0)
(0 0 0)
(0 0 0)
(0 0 0)
(0 0 0)
(0 0 0)
(0 0 0)
(0 0 0)
(0 0 0)
(0 0 0)
(0 0 0)
(0 0 0)
(0 0 0)
(0 0 0)
(0 0 0)
(0 0 0)
(0 0 0)
(0 0 0)
(0 0 0)
(0 0 0)
(0 0 0)
(0 0 0)
(0 0 0)
(0 0 0)
(0 0 0)
(0 0 0)
(0 0 0)
(0 0 0)
(0 0 0)
(0 0 0)
(0 0 0)
(0 0 0)
(0 0 0)
(0 0 0)
(0 0 0)
(0 0 0)
(0 0 0)
(0 0 0)
(0 0 0)
(0 0 0)
(0 0 0)
(0 0 0)
(0 0 0)
(0 0 0)
(0 0 0)
(0 0 0)
(0 0 0)
(0 0 0)
(0 0 0)
(0 0 0)
(0 0 0)
(0 0 0)
(0 0 0)
(0 0 0)
(0 0 0)
(0 0 0)
(0 0 0)
(0 0 0)
(0 0 0)
(0 0 0)
(0 0 0)
(0 0 0)
(0 0 0)
(0 0 0)
(0 0 0)
(0 0 0)
(0 0 0)
(0 0 0)
(0 0 0)
(0 0 0)
(0 0 0)
(0 0 0)
(0 0 0)
(0 0 0)
(0 0 0)
(0 0 0)
(0 0 0)
(0 0 0)
(0 0 0)
(0 0 0)
(0 0 0)
(0 0 0)
(0 0 0)
(0 0 0)
(0 0 0)
(0 0 0)
(0 0 0)
(0 0 0)
(0 0 0)
(0 0 0)
(0 0 0)
(0 0 0)
(0 0 0)
(0 0 0)
(0 0 0)
(0 0 0)
(0 0 0)
(0 0 0)
(0 0 0)
(0 0 0)
(0 0 0)
(0 0 0)
(0 0 0)
(0 0 0)
(0 0 0)
(0 0 0)
(0 0 0)
(0 0 0)
(0 0 0)
(0 0 0)
(0 0 0)
(0 0 0)
(0 0 0)
(0 0 0)
(0 0 0)
(0 0 0)
(0 0 0)
(0 0 0)
(0 0 0)
(0 0 0)
(0 0 0)
(0 0 0)
(0 0 0)
(0 0 0)
(0 0 0)
(0 0 0)
(0 0 0)
(0 0 0)
(0 0 0)
(0 0 0)
(0 0 0)
(0 0 0)
(0 0 0)
(0 0 0)
(0 0 0)
(0 0 0)
(0 0 0)
(0 0 0)
(0 0 0)
(0 0 0)
(0 0 0)
(0 0 0)
(0 0 0)
(0 0 0)
(0 0 0)
(0 0 0)
(0 0 0)
(0 0 0)
(0 0 0)
(0 0 0)
(0 0 0)
(0 0 0)
(0 0 0)
(0 0 0)
(0 0 0)
(0 0 0)
(-8.21948e-05 5.71631e-05 0.000102509)
(-0.000529839 0.000317563 0.000438366)
(-3.33639e-05 0.000159771 6.77516e-05)
(4.2439e-05 -9.07442e-05 0.000253667)
(6.0479e-05 -0.000268116 0.000299067)
(-0.000198284 -0.000486839 -8.01291e-05)
(0.000105232 0.000156446 9.14577e-06)
(-2.36728e-05 -0.000144113 0.000308716)
(5.22893e-06 -2.55369e-05 0.000215649)
(9.65632e-05 5.26395e-05 0.000324015)
(3.83814e-05 -0.000250974 9.74564e-05)
(-0.00025984 -7.79625e-05 0.000563857)
(0.000362351 0.000439786 3.9002e-05)
(0.000188699 0.000338449 5.04545e-05)
(-4.76841e-05 0.000370703 -0.000280799)
(0.000328536 -0.000271261 0.000235301)
(-0.000375146 -1.28952e-05 0.0114462)
(-0.00174434 -0.000430694 0.0111731)
(0.000933505 -0.000338574 0.0137057)
(0.000994829 -0.0015367 0.0145627)
(0.000312297 -0.00118813 0.0122019)
(-0.00128636 -0.0011127 0.0125602)
(0.000667819 -0.00140457 0.0126714)
(-0.000412138 -0.00186114 0.0127238)
(0.000500477 -0.000242721 0.0123951)
(-9.42754e-05 -0.000437631 0.0116163)
(-0.000104212 -0.000952592 0.0120496)
(-0.000294882 -0.00192169 0.0122298)
(0.000417406 0.000864584 0.0103611)
(0.00125477 0.000363476 0.00979949)
(-0.000301993 0.000423097 0.00965455)
(-0.000804207 3.96992e-05 0.0123996)
(0.000902144 0.00109244 0.0128975)
(0.00126009 -0.000402449 0.0150301)
(0.000687321 9.97522e-05 0.0144394)
(0.00118778 0.000964038 0.0151286)
(0.000102064 0.000940547 0.0132214)
(0.000524329 0.000349326 0.0136855)
(0.000508245 0.000149711 0.0130361)
(0.000858301 0.00104315 0.0134026)
(0.000253166 0.00077135 0.0126277)
(0.000988094 0.00134329 0.012715)
(0.00117205 0.000302607 0.0125496)
(0.00102403 0.000531545 0.0129006)
(0.000809309 0.00242168 0.011116)
(0.00173099 0.000514364 0.0114096)
(0.000128078 -0.000736077 0.0120836)
(0.00077394 -0.000217901 0.0128916)
(-6.02566e-05 0.00136299 0.0116744)
(0.00114973 0.000976904 0.0127552)
(0.00122229 0.000744889 0.0137023)
(0.00048054 0.00126192 0.0132383)
(-6.32244e-05 -7.44256e-05 0.0115156)
(0.00129886 0.000564195 0.013177)
(0.00122688 0.000738895 0.0132876)
(0.000797903 0.00163158 0.01342)
(-0.000360372 0.00173624 0.010639)
(0.00152879 0.000204742 0.0120291)
(0.00118933 0.000618369 0.0131651)
(0.00110652 0.000966798 0.0140174)
(0.000771324 -9.1367e-07 0.0098733)
(0.00157518 -0.000181107 0.0108174)
(0.00187349 -0.000235001 0.0136229)
(0.00191356 -0.000347391 0.0141599)
(0.000626403 -3.88511e-05 0.0113705)
(0.00165025 0.00127484 0.0124912)
(0.00138982 0.00170094 0.0129631)
(0.00102599 0.000934796 0.0130807)
(0.000763929 -0.000738501 0.00986394)
(0.00103701 0.000256382 0.0127031)
(0.00122216 0.00115977 0.013439)
(0.00105497 0.000550508 0.0138217)
(0.00014948 0.00149558 0.0104756)
(0.00108205 0.000187897 0.01268)
(0.000580612 0.00112352 0.0142983)
(0.000630488 0.000563468 0.0142307)
(0.00148077 -0.00089743 0.00862786)
(0.00115232 0.000276876 0.0112012)
(0.00136948 0.00107676 0.0137395)
(0.00103041 0.000274654 0.0144213)
(0.00138696 -1.32456e-05 0.0101642)
(0.00110699 0.000395987 0.0122585)
(0.000922356 -0.000261593 0.0121478)
(0.000429363 -0.00033901 0.013177)
(-5.12074e-06 0.000165751 0.00969607)
(0.000126882 -1.11014e-05 0.0128225)
(0.000311028 -0.000851269 0.0131852)
(0.000171006 -0.00018142 0.0136419)
(0.000528131 -0.000943664 0.00738233)
(0.000280602 -0.00030063 0.0117451)
(0.000402396 -0.000214809 0.0134342)
(0.000212918 1.04128e-05 0.0143538)
(0.000894441 -0.000358298 0.0064779)
(0.00119113 -0.000230976 0.0114923)
(0.000464988 0.000631865 0.0135302)
(0.000758153 0.000364214 0.0144035)
(8.30331e-05 -0.00189633 0.00433793)
(0.00170489 -0.000850171 0.0127573)
(0.000743022 -0.00102561 0.0128847)
(-0.000669032 -0.000564097 0.012858)
(-0.000148544 0.000525734 0.00840482)
(0.000127441 0.000541761 0.0114945)
(0.00147668 -0.000409033 0.0135105)
(0.000200545 -0.000139857 0.0135497)
(-0.000570997 0.00135435 0.00508461)
(-0.00046961 9.53944e-05 0.0113201)
(0.000300715 0.000352039 0.0135823)
(-0.000689635 7.16784e-05 0.013887)
(-0.000168102 -0.000304629 0.0056227)
(-0.000564192 5.6688e-05 0.0107284)
(-0.000729617 -0.000492488 0.0124336)
(6.82739e-05 0.000313811 0.0139995)
(0 0 0)
(0 0 0)
(0 0 0)
(0 0 0)
(0 0 0)
(0 0 0)
(0 0 0)
(0 0 0)
(0 0 0)
(0 0 0)
(0 0 0)
(0 0 0)
(1.53723e-18 -2.95642e-18 -6.69126e-18)
(-0.00132408 -0.000563387 0.0120525)
(-0.00132408 -0.000563387 0.0120525)
(0 0 0)
(0 0 0)
(0 0 0)
(0 0 0)
(0 0 0)
(0 0 0)
(0 0 0)
(0 0 0)
(0 0 0)
(0 0 0)
(0 0 0)
(0 0 0)
(0 0 0)
(0 0 0)
(0 0 0)
(0 0 0)
(0 0 0)
(0 0 0)
(0 0 0)
(0 0 0)
(0 0 0)
(0 0 0)
(0 0 0)
(0 0 0)
(0 0 0)
(0 0 0)
(0 0 0)
(0 0 0)
(0 0 0)
(0 0 0)
(0 0 0)
(0 0 0)
(0 0 0)
(0 0 0)
(0 0 0)
(0 0 0)
(0 0 0)
(0 0 0)
(0 0 0)
(0 0 0)
(0 0 0)
(0 0 0)
(0 0 0)
(0 0 0)
(0 0 0)
(0 0 0)
(0 0 0)
(0 0 0)
(0 0 0)
(0 0 0)
(0 0 0)
(0 0 0)
(0 0 0)
(0 0 0)
(0 0 0)
(0 0 0)
(0 0 0)
(0 0 0)
(0 0 0)
(0 0 0)
(0 0 0)
(0 0 0)
(0 0 0)
(0 0 0)
(0 0 0)
(0 0 0)
(0 0 0)
(0 0 0)
(0 0 0)
(0 0 0)
(0 0 0)
(0 0 0)
(0 0 0)
(0 0 0)
(0 0 0)
(0 0 0)
(0 0 0)
(0 0 0)
(0 0 0)
(0 0 0)
(0 0 0)
(0 0 0)
(0 0 0)
(0 0 0)
(0 0 0)
(0 0 0)
(0 0 0)
(0 0 0)
(0 0 0)
(0 0 0)
(0 0 0)
(0 0 0)
(0 0 0)
(0 0 0)
(0 0 0)
(0 0 0)
(0 0 0)
(0 0 0)
(0 0 0)
(0 0 0)
(0 0 0)
(0 0 0)
(0 0 0)
(0 0 0)
(0 0 0)
(0 0 0)
(0 0 0)
(0 0 0)
(0 0 0)
(0 0 0)
(0 0 0)
(0 0 0)
(0 0 0)
(0 0 0)
(0 0 0)
(0 0 0)
(0 0 0)
(0 0 0)
(0 0 0)
(0 0 0)
(0 0 0)
(0 0 0)
(0 0 0)
(0 0 0)
(0 0 0)
(0 0 0)
(0 0 0)
(0 0 0)
(0 0 0)
(0 0 0)
(0 0 0)
(0 0 0)
(0 0 0)
(0 0 0)
(0 0 0)
(0 0 0)
(0 0 0)
(0 0 0)
(0 0 0)
(0 0 0)
(0 0 0)
(0 0 0)
(0 0 0)
(0 0 0)
(0 0 0)
(0 0 0)
(0 0 0)
(0 0 0)
(0 0 0)
(0 0 0)
(0 0 0)
(0 0 0)
(0 0 0)
(0 0 0)
(0 0 0)
(0 0 0)
(0 0 0)
(0 0 0)
(0 0 0)
(0 0 0)
(0 0 0)
(0 0 0)
(0 0 0)
(0 0 0)
(0 0 0)
(0 0 0)
(0 0 0)
(0 0 0)
(0 0 0)
(0 0 0)
(0 0 0)
(0 0 0)
(0 0 0)
(0 0 0)
(0 0 0)
(0 0 0)
(0 0 0)
(0 0 0)
(0 0 0)
(0 0 0)
(0 0 0)
(0 0 0)
(0 0 0)
(0 0 0)
(0 0 0)
(0 0 0)
(0 0 0)
(0 0 0)
(0 0 0)
(0 0 0)
(0 0 0)
(0 0 0)
(0 0 0)
(0 0 0)
(0 0 0)
(0 0 0)
(0 0 0)
(0 0 0)
(0 0 0)
(0 0 0)
(0 0 0)
(0 0 0)
(0 0 0)
(0 0 0)
(0 0 0)
(0 0 0)
(0 0 0)
(0 0 0)
(0 0 0)
(0 0 0)
(0 0 0)
(0 0 0)
(0 0 0)
(0 0 0)
(0 0 0)
(0 0 0)
(0 0 0)
(0 0 0)
(0 0 0)
(0 0 0)
(0 0 0)
(0 0 0)
(0 0 0)
(0 0 0)
(0 0 0)
(0 0 0)
(0 0 0)
(0 0 0)
(0 0 0)
(0 0 0)
(0 0 0)
(0 0 0)
(0 0 0)
(0 0 0)
(0 0 0)
(0 0 0)
(0 0 0)
(0 0 0)
(0 0 0)
(0 0 0)
(0 0 0)
(0 0 0)
(0 0 0)
(0 0 0)
(0 0 0)
(0 0 0)
(0 0 0)
(0 0 0)
(0 0 0)
(0 0 0)
(0 0 0)
(0 0 0)
(0 0 0)
(0 0 0)
(0 0 0)
(0 0 0)
(0 0 0)
(0.000109249 -4.79884e-06 0.000422966)
(0.000170707 -0.000138835 -0.000112748)
(0.000366156 5.37342e-05 -0.000153051)
(-0.000578334 -0.000393871 -6.95201e-05)
(0.000318724 0.000443605 -0.00019606)
(4.30896e-05 -0.000142579 0.00045347)
(0.000236212 -0.000152038 -0.000142665)
(2.03056e-05 -9.92047e-05 -6.95257e-06)
(-0.00155586 -0.000343382 -9.04251e-06)
(3.69479e-05 -0.000442716 -2.50709e-05)
(0.000470487 -0.00041212 -0.00013361)
(5.09649e-06 -0.000195767 -8.43989e-05)
(0.000600024 -0.000632175 -0.000359624)
(7.66939e-05 -1.63429e-05 -0.00011924)
(0.000186412 -0.000233792 0.000114907)
(0.000192909 -0.00011475 -1.4705e-05)
(-0.00125119 0.000789268 0.0124646)
(0.00109839 -0.000268402 0.0104065)
(0.000964771 -0.000418684 0.0104883)
(0.000923521 0.000357133 0.0124403)
(-0.000928968 0.000736159 0.0140362)
(-0.00149795 0.0001029 0.0133556)
(-0.000567484 -0.00030784 0.0123039)
(0.00190376 0.000868718 0.0128809)
(0.000556222 4.72092e-05 0.0142114)
(-0.00113395 -0.00137464 0.0118881)
(-0.000760289 -0.00102139 0.01275)
(0.000257313 0.00110642 0.0126486)
(0.000854135 -0.00197254 0.0127724)
(-0.00020624 -0.00113893 0.0127097)
(-0.000292525 -0.000219171 0.0151318)
(-8.78473e-05 0.000966221 0.012177)
(0.00119949 -0.000837501 0.0118948)
(0.00082846 -0.000843801 0.01146)
(-0.000680307 0.000252525 0.0118189)
(0.00185738 0.00106941 0.0147083)
(0.00109175 0.000622367 0.0132186)
(-0.000430043 0.000560194 0.0123826)
(-0.000804157 -0.000624733 0.0142928)
(0.000824143 0.00198266 0.0140636)
(0.0014303 0.00089172 0.0151801)
(-0.000178252 0.00148266 0.0128538)
(-0.000103504 0.00152094 0.0130284)
(0.00112511 0.00142432 0.0137381)
(0.0012487 0.000699909 0.0144237)
(-1.72084e-05 0.00255067 0.013141)
(0.000432974 0.00222338 0.0131001)
(0.000799763 0.00174025 0.0135717)
(-0.000401232 0.000562182 0.0110624)
(0.000240516 2.57486e-05 0.0106845)
(-0.000590452 -0.00033186 0.0115189)
(-0.000972395 1.50096e-05 0.0121624)
(-2.07945e-05 0.00121924 0.0114213)
(0.000102145 0.0012089 0.0113023)
(-7.0658e-05 0.00139804 0.0105337)
(-0.000648009 0.00160997 0.0121985)
(0.00235359 0.00181681 0.0146155)
(0.00140301 0.00134893 0.0122778)
(0.000604726 0.00115844 0.0118421)
(0.00037072 0.00140873 0.0135005)
(0.00107724 0.00155819 0.0141455)
(0.000827718 0.000930011 0.0128278)
(0.000762055 0.00108286 0.0139846)
(0.000479795 0.00145048 0.013773)
(0.00114621 -0.00051963 0.00895444)
(0.00078945 -0.000850317 0.00946983)
(0.000781111 0.000891963 0.012007)
(-0.000496674 0.00067665 0.00995791)
(0.00129214 0.000328272 0.0113948)
(0.000715654 0.00019897 0.0102351)
(0.000340001 0.00169337 0.0119532)
(8.3318e-05 0.000676609 0.0116383)
(0.00172862 0.000425558 0.0123372)
(0.000633615 0.000187145 0.0118072)
(-0.000327828 0.000776339 0.0121661)
(0.000752771 0.000676186 0.0130692)
(0.00142228 0.000462924 0.0134546)
(0.000805192 0.000348616 0.0131483)
(0.000227969 0.000985543 0.0144302)
(0.000392624 0.000939463 0.0141195)
(0.000941569 -0.000191778 0.00818952)
(-0.000586534 0.00021798 0.00848846)
(-0.000423755 0.00148776 0.0105373)
(-0.00070535 -1.30411e-06 0.00876771)
(0.00189135 0.000194275 0.0107511)
(0.000578081 0.000336034 0.0103412)
(0.000956146 0.00179655 0.0108497)
(0.00103377 -0.000697358 0.0118083)
(0.00122606 -0.000276723 0.0119914)
(0.00089449 0.000402118 0.0123259)
(0.0012242 0.0011907 0.012472)
(0.00161957 -0.000969633 0.0129434)
(0.000472985 -0.000160304 0.013369)
(0.000148007 0.000525936 0.013975)
(0.000334874 0.000432774 0.0142686)
(0.000320154 -0.00032411 0.0142376)
(0.00188615 -0.000779077 0.00821296)
(-0.000691229 8.72607e-05 0.00828368)
(-0.000292585 -0.000154986 0.00660756)
(0.000482733 -0.00140067 0.00820056)
(0.000669264 -0.00228609 0.0102297)
(0.000795352 -0.000854316 0.0105514)
(0.000931798 -0.000658149 0.00901631)
(0.00203877 -0.0031289 0.0109183)
(0.000235514 -0.00125341 0.0123783)
(0.000544481 -0.000218988 0.0128344)
(0.000658093 0.00022851 0.0117182)
(0.000160362 -0.00191839 0.0120956)
(-0.00082877 -0.000296943 0.0133822)
(0.000140851 0.000225774 0.013946)
(-0.000537108 -0.00024184 0.0138494)
(0.000426444 -0.000718613 0.0135947)
(0 0 0)
(0 0 0)
(0 0 0)
(0 0 0)
(0 0 0)
(0 0 0)
(0 0 0)
(0 0 0)
(0 0 0)
(0 0 0)
(0 0 0)
(0 0 0)
(0 0 0)
(0 0 0)
(0 0 0)
(0 0 0)
(0 0 0)
(0 0 0)
(0 0 0)
(0 0 0)
(0 0 0)
(0 0 0)
(0 0 0)
(0 0 0)
(0 0 0)
(0 0 0)
(0 0 0)
(0 0 0)
(0 0 0)
(0 0 0)
(0 0 0)
(0 0 0)
(0 0 0)
(0 0 0)
(0 0 0)
(0 0 0)
(0 0 0)
(0 0 0)
(0 0 0)
(0 0 0)
(0 0 0)
(0 0 0)
(0 0 0)
(0 0 0)
(0 0 0)
(0 0 0)
(0 0 0)
(0 0 0)
(0 0 0)
(0 0 0)
(0 0 0)
(0 0 0)
(0 0 0)
(0 0 0)
(0 0 0)
(0 0 0)
(0 0 0)
(0 0 0)
(0 0 0)
(0 0 0)
(0 0 0)
(0 0 0)
(0 0 0)
(0 0 0)
(0 0 0)
(0 0 0)
(0 0 0)
(0 0 0)
(0 0 0)
(0 0 0)
(0 0 0)
(0 0 0)
(0 0 0)
(0 0 0)
(0 0 0)
(0 0 0)
(0 0 0)
(0 0 0)
(0 0 0)
(0 0 0)
(0 0 0)
(0 0 0)
(0 0 0)
(0 0 0)
(0 0 0)
(0 0 0)
(0 0 0)
(0 0 0)
(0 0 0)
(0 0 0)
(0 0 0)
(0 0 0)
(0 0 0)
(0 0 0)
(0 0 0)
(0 0 0)
(0 0 0)
(0 0 0)
(0 0 0)
(0 0 0)
(0 0 0)
(0 0 0)
(0 0 0)
(0 0 0)
(0 0 0)
(0 0 0)
(0 0 0)
(0 0 0)
(0 0 0)
(0 0 0)
(0 0 0)
(0 0 0)
(0 0 0)
(0 0 0)
(0 0 0)
(0 0 0)
(0 0 0)
(0 0 0)
(0 0 0)
(0 0 0)
(0 0 0)
(0 0 0)
(0 0 0)
(0 0 0)
(0 0 0)
(0 0 0)
(0 0 0)
(0 0 0)
(0 0 0)
(0 0 0)
(0 0 0)
(0 0 0)
(0 0 0)
(0 0 0)
(0 0 0)
(0 0 0)
(0 0 0)
(0 0 0)
(0 0 0)
(0 0 0)
(0 0 0)
(0 0 0)
(0 0 0)
(0 0 0)
(0 0 0)
(0 0 0)
(0 0 0)
(0 0 0)
(0 0 0)
(0 0 0)
(0 0 0)
(0 0 0)
(0 0 0)
(0 0 0)
(0 0 0)
(0 0 0)
(0 0 0)
(0 0 0)
(0 0 0)
(0 0 0)
(0 0 0)
(0 0 0)
(0 0 0)
(0 0 0)
(0 0 0)
(0 0 0)
(0 0 0)
(0 0 0)
(0 0 0)
(0 0 0)
(0 0 0)
(0 0 0)
(0 0 0)
(0 0 0)
(0 0 0)
(0 0 0)
(0 0 0)
(0 0 0)
(0 0 0)
(0 0 0)
(0 0 0)
(0 0 0)
(0 0 0)
(0 0 0)
(0 0 0)
(0 0 0)
(0 0 0)
(0 0 0)
(0 0 0)
(0 0 0)
(0 0 0)
(0 0 0)
(0 0 0)
(0 0 0)
(0 0 0)
(0 0 0)
(0 0 0)
(0 0 0)
(0 0 0)
(0 0 0)
(0 0 0)
(0 0 0)
(0 0 0)
(0 0 0)
(0 0 0)
(0 0 0)
(0 0 0)
(0 0 0)
(0 0 0)
(0 0 0)
(0 0 0)
(0 0 0)
(0 0 0)
(0 0 0)
(0 0 0)
(0 0 0)
(0 0 0)
(0 0 0)
(0 0 0)
(0 0 0)
(0 0 0)
(0 0 0)
(0 0 0)
(0 0 0)
(0 0 0)
(0 0 0)
(0 0 0)
(0 0 0)
(0 0 0)
(0 0 0)
(0 0 0)
(0 0 0)
(0 0 0)
(0 0 0)
(0 0 0)
(0 0 0)
(0 0 0)
(0 0 0)
(0 0 0)
(0 0 0)
(0 0 0)
(0 0 0)
(0 0 0)
(0 0 0)
(0 0 0)
(0 0 0)
(0 0 0)
(0 0 0)
(0 0 0)
(0 0 0)
(0 0 0)
(0 0 0)
(0 0 0)
(0 0 0)
(0 0 0)
(0 0 0)
(0 0 0)
(0 0 0)
(0 0 0)
(0 0 0)
(0 0 0)
(0 0 0)
(0 0 0)
(0 0 0)
(0 0 0)
(0 0 0)
(0 0 0)
(0 0 0)
(0 0 0)
(0 0 0)
(0 0 0)
(0 0 0)
)
;

boundaryField
{
    inlet
    {
        type            zeroGradient;
    }
    outlet
    {
        type            zeroGradient;
    }
    wall
    {
        type            zeroGradient;
    }
    procBoundary0to1
    {
        type            processor;
        value           nonuniform List<vector> 
192
(
(-0.000192864 -9.59426e-05 0.000118778)
(0.000312228 -0.000312353 -0.000421362)
(2.33237e-05 7.97914e-05 -7.52578e-05)
(-0.000135615 -3.67015e-05 9.43788e-06)
(-0.000112841 0.000271743 0.00889366)
(0.00135679 0.000944829 0.0115598)
(0.000247723 0.000899838 0.0135921)
(0.00116745 0.000936715 0.014009)
(0.000642517 0.00177708 0.0133233)
(0.000962099 0.00163593 0.0152354)
(0.000702936 0.000989255 0.0147614)
(0.000588661 0.000483215 0.014511)
(0.00078942 0.00138489 0.014322)
(0.000786679 0.00101154 0.0150839)
(0.000864286 0.000663869 0.0155169)
(0.000399718 0.000253079 0.0156443)
(0.000360986 0.00045476 0.0149728)
(0.000172696 0.000428647 0.0153733)
(0.000417757 0.000202627 0.0157186)
(0.000297177 0.000139141 0.0156953)
(0.000257382 -0.000635823 0.014742)
(-0.000154654 -0.000104 0.015461)
(-0.000301765 0.000311153 0.0154323)
(-2.51204e-05 0.000106836 0.0157911)
(-0.000480879 -0.000540791 0.014743)
(-0.000532128 -0.000354007 0.0151642)
(-0.000307878 0.000145602 0.0154839)
(-0.000410254 0.000266925 0.0157142)
(0 0 0)
(0 0 0)
(0 0 0)
(0 0 0)
(0 0 0)
(0 0 0)
(0 0 0)
(0 0 0)
(0 0 0)
(0 0 0)
(0 0 0)
(0 0 0)
(0 0 0)
(0 0 0)
(0 0 0)
(0 0 0)
(0 0 0)
(0 0 0)
(0 0 0)
(0 0 0)
(0 0 0)
(0 0 0)
(0 0 0)
(0 0 0)
(0 0 0)
(0 0 0)
(0 0 0)
(0 0 0)
(0 0 0)
(0 0 0)
(0 0 0)
(0 0 0)
(0 0 0)
(0 0 0)
(0 0 0)
(0 0 0)
(0 0 0)
(0 0 0)
(0 0 0)
(0 0 0)
(0 0 0)
(0 0 0)
(0 0 0)
(0 0 0)
(0 0 0)
(0 0 0)
(0 0 0)
(0 0 0)
(0 0 0)
(0 0 0)
(0 0 0)
(0 0 0)
(0 0 0)
(0 0 0)
(0 0 0)
(0 0 0)
(0 0 0)
(0 0 0)
(0 0 0)
(0 0 0)
(0 0 0)
(0 0 0)
(0 0 0)
(0 0 0)
(0 0 0)
(0 0 0)
(0 0 0)
(0 0 0)
(-4.24026e-05 0.000300884 -0.000149543)
(-0.000321241 0.000405454 0.000205416)
(0.000220447 0.00113571 -0.000128577)
(9.62253e-05 0.000437389 -0.000181675)
(0.000308794 -1.25126e-05 0.01119)
(-0.00124727 -0.000439411 0.0121243)
(0.000430692 -0.000479158 0.0116013)
(0.000271953 -0.00176318 0.0125424)
(0.00170779 0.000153432 0.0127381)
(0.000710415 0.000534564 0.0144444)
(0.00109388 -8.27395e-06 0.0136075)
(0.000289928 0.00139586 0.0128789)
(0.000703341 1.01805e-05 0.0110679)
(0.000520158 0.00139184 0.0130548)
(0.000769497 0.00144632 0.0135115)
(0.000345622 0.00124352 0.013474)
(-0.000322562 0.000145701 0.00986222)
(0.00022728 0.000967671 0.0123528)
(0.000486611 0.00110818 0.0140878)
(0.000274365 0.00117252 0.0139302)
(0.0011682 0.000597036 0.00983773)
(-3.6498e-06 -0.000820401 0.0129922)
(0.000970874 0.000112039 0.0140369)
(-0.000262371 -0.000395884 0.0145951)
(0.000414199 0.000590962 0.0106074)
(0.00092536 0.00145948 0.0133575)
(0.00143201 -0.00164222 0.0137443)
(0.000213117 -0.000802033 0.0146292)
(0 0 0)
(0 0 0)
(0 0 0)
(0 0 0)
(0 0 0)
(0 0 0)
(0 0 0)
(0 0 0)
(0 0 0)
(0 0 0)
(0 0 0)
(0 0 0)
(0 0 0)
(0 0 0)
(0 0 0)
(0 0 0)
(0 0 0)
(0 0 0)
(0 0 0)
(0 0 0)
(0 0 0)
(0 0 0)
(0 0 0)
(0 0 0)
(0 0 0)
(0 0 0)
(0 0 0)
(0 0 0)
(0 0 0)
(0 0 0)
(0 0 0)
(0 0 0)
(0 0 0)
(0 0 0)
(0 0 0)
(0 0 0)
(0 0 0)
(0 0 0)
(0 0 0)
(0 0 0)
(0 0 0)
(0 0 0)
(0 0 0)
(0 0 0)
(0 0 0)
(0 0 0)
(0 0 0)
(0 0 0)
(0 0 0)
(0 0 0)
(0 0 0)
(0 0 0)
(0 0 0)
(0 0 0)
(0 0 0)
(0 0 0)
(0 0 0)
(0 0 0)
(0 0 0)
(0 0 0)
(0 0 0)
(0 0 0)
(0 0 0)
(0 0 0)
(0 0 0)
(0 0 0)
(0 0 0)
(0 0 0)
)
;
    }
    procBoundary0to2
    {
        type            processor;
        value           nonuniform List<vector> 
192
(
(-0.000153588 -1.507e-05 -4.97453e-05)
(0.000840018 -0.0011546 -0.000120705)
(0.000393402 -4.11988e-05 0.000307517)
(-2.5235e-05 1.59802e-05 -0.000239421)
(0.00124232 0.00150835 0.0136696)
(0.00149296 0.0014665 0.0122935)
(0.00096275 0.000513864 0.0135134)
(0.000432783 -0.000964286 0.0138855)
(0.000918934 0.000778701 0.0127886)
(0.000782595 -0.000864764 0.0143469)
(-0.000384446 -0.000248947 0.0154751)
(-0.00013412 -6.69567e-06 0.0149896)
(0.00153385 0.000179377 0.0141858)
(0.00121712 0.00021329 0.0151667)
(0.00100053 0.000144585 0.0151431)
(0.000626209 -0.000157507 0.0151538)
(0.00102111 -6.84696e-06 0.0146227)
(0.000693955 -0.000208433 0.0153369)
(0.000646391 0.000212243 0.0153933)
(0.000257941 -0.000107469 0.0156329)
(0.00089822 -0.00010658 0.0148912)
(0.00055764 -0.000108394 0.0156456)
(0.000363412 0.000267515 0.015585)
(-9.17319e-06 0.000213715 0.015655)
(0.000497453 0.000503621 0.0150588)
(0.000150573 0.000462886 0.01558)
(6.95451e-05 0.000347369 0.0154419)
(-0.000202746 0.000386305 0.0153608)
(0 0 0)
(0 0 0)
(0 0 0)
(0 0 0)
(0 0 0)
(0 0 0)
(0 0 0)
(0 0 0)
(0 0 0)
(0 0 0)
(0 0 0)
(0 0 0)
(0 0 0)
(0 0 0)
(0 0 0)
(0 0 0)
(0 0 0)
(0 0 0)
(0 0 0)
(0 0 0)
(0 0 0)
(0 0 0)
(0 0 0)
(0 0 0)
(0 0 0)
(0 0 0)
(0 0 0)
(0 0 0)
(0 0 0)
(0 0 0)
(0 0 0)
(0 0 0)
(0 0 0)
(0 0 0)
(0 0 0)
(0 0 0)
(0 0 0)
(0 0 0)
(0 0 0)
(0 0 0)
(0 0 0)
(0 0 0)
(0 0 0)
(0 0 0)
(0 0 0)
(0 0 0)
(0 0 0)
(0 0 0)
(0 0 0)
(0 0 0)
(0 0 0)
(0 0 0)
(0 0 0)
(0 0 0)
(0 0 0)
(0 0 0)
(0 0 0)
(0 0 0)
(0 0 0)
(0 0 0)
(0 0 0)
(0 0 0)
(0 0 0)
(0 0 0)
(0 0 0)
(0 0 0)
(0 0 0)
(0 0 0)
(5.20041e-05 -8.79868e-05 0.000692944)
(0.000548783 -8.87516e-05 0.00041113)
(-8.80673e-05 0.000350228 0.000397521)
(-0.000555057 0.000277665 -0.000328379)
(-0.000343638 -0.00059299 0.0107805)
(-0.000568725 -0.000363696 0.0145465)
(2.29769e-05 0.000465638 0.013875)
(-0.0003651 0.000569228 0.0101948)
(-0.000757877 0.000872744 0.0135975)
(-0.00038294 -0.000676811 0.0126585)
(0.00111855 -0.00116065 0.0127401)
(0.00205491 0.000158549 0.0128032)
(-0.000262142 -0.00261307 0.0126295)
(0.00267867 -0.000103576 0.0139304)
(0.00285884 -0.000424102 0.0126995)
(0.00222256 -0.000459091 0.0138348)
(2.84794e-06 0.000189916 0.00862242)
(0.00187973 -0.000190796 0.0132671)
(0.00219296 0.000643007 0.0143705)
(0.00145945 -6.36617e-05 0.01454)
(0.000508567 -0.000876116 0.0082977)
(0.000914259 -0.00025616 0.0118176)
(0.000473077 0.000545151 0.0139787)
(0.000986746 0.000316698 0.0145683)
(-0.000284009 0.000487234 0.00745823)
(0.00081455 -0.000924037 0.0109903)
(0.000293404 -0.000365512 0.0133735)
(-0.000131235 -0.000422206 0.0142249)
(-0.00378836 0.00345408 0.00767394)
(0 0 0)
(0 0 0)
(0 0 0)
(0 0 0)
(0 0 0)
(0 0 0)
(0 0 0)
(0 0 0)
(0 0 0)
(0 0 0)
(0 0 0)
(0 0 0)
(0 0 0)
(0 0 0)
(0 0 0)
(0 0 0)
(0 0 0)
(0 0 0)
(0 0 0)
(0 0 0)
(0 0 0)
(0 0 0)
(0 0 0)
(0 0 0)
(0 0 0)
(0 0 0)
(0 0 0)
(0 0 0)
(0 0 0)
(0 0 0)
(0 0 0)
(0 0 0)
(0 0 0)
(0 0 0)
(0 0 0)
(0 0 0)
(0 0 0)
(0 0 0)
(0 0 0)
(0 0 0)
(0 0 0)
(0 0 0)
(0 0 0)
(0 0 0)
(0 0 0)
(0 0 0)
(0 0 0)
(0 0 0)
(0 0 0)
(0 0 0)
(0 0 0)
(0 0 0)
(0 0 0)
(0 0 0)
(0 0 0)
(0 0 0)
(0 0 0)
(0 0 0)
(0 0 0)
(0 0 0)
(0 0 0)
(0 0 0)
(0 0 0)
(0 0 0)
(0 0 0)
(0 0 0)
(0 0 0)
)
;
    }
}


// ************************************************************************* //
