/*--------------------------------*- C++ -*----------------------------------*\
| =========                 |                                                 |
| \\      /  F ield         | OpenFOAM: The Open Source CFD Toolbox           |
|  \\    /   O peration     | Version:  2506                                  |
|   \\  /    A nd           | Website:  www.openfoam.com                      |
|    \\/     M anipulation  |                                                 |
\*---------------------------------------------------------------------------*/
FoamFile
{
    version     2.0;
    format      ascii;
    arch        "LSB;label=32;scalar=64";
    class       volScalarField;
    location    "0.09";
    object      voidfraction;
}
// * * * * * * * * * * * * * * * * * * * * * * * * * * * * * * * * * * * * * //

dimensions      [0 0 0 0 0 0 0];

internalField   nonuniform List<scalar> 
1152
(
0.49703
0.494397
0.468063
0.44963
0.46543
0.51283
0.523364
0.46543
0.49703
0.446997
0.420663
0.444363
0.470697
0.589197
0.470697
0.539164
0.446997
0.49703
0.404863
0.460163
0.507564
0.468063
0.462797
0.439097
0.460163
0.475963
0.407496
0.436463
0.478597
0.470697
0.46543
0.491764
0.40223
0.423296
0.396963
0.375896
0.367996
0.423296
0.420663
0.389063
0.396963
0.470697
0.367996
0.415396
0.41803
0.328496
0.349563
0.46543
0.439097
0.446997
0.40223
0.483863
0.407496
0.43383
0.415396
0.367996
0.43383
0.40223
0.367996
0.41013
0.420663
0.370629
0.328496
0.315329
0.420663
0.391696
0.39433
0.396963
0.407496
0.396963
0.47333
0.518097
0.40223
0.42593
0.346929
0.370629
0.381163
0.375896
0.341663
0.360096
0.40223
0.412763
0.383796
0.47333
0.46543
0.354829
0.431196
0.370629
0.43383
0.336396
0.39433
0.454897
0.320596
0.44963
0.423296
0.478597
0.747198
0.707698
0.657665
0.620798
0.578664
0.705065
0.468063
0.525997
0.662931
0.626064
0.52863
0.507564
0.715598
0.749832
0.623431
0.578664
1
1
1
1
1
1
1
1
1
1
1
1
1
1
1
1
1
1
1
1
1
1
1
1
1
1
1
1
1
1
1
1
1
1
1
1
1
1
1
1
1
1
1
1
1
1
1
1
1
1
1
1
1
1
1
1
1
1
1
1
1
1
1
1
1
1
1
1
1
1
1
1
1
1
1
1
1
1
1
1
1
1
1
1
1
1
1
1
1
1
1
1
1
1
1
1
1
1
1
1
1
1
1
1
1
1
1
1
1
1
1
1
1
1
1
1
1
1
1
1
1
1
1
1
1
1
1
1
1
1
1
1
1
1
1
1
1
1
1
1
1
1
1
1
1
1
1
1
1
1
1
1
1
1
1
1
1
1
1
1
1
1
1
1
1
1
1
1
1
1
1
1
1
1
1
1
1
1
1
1
1
1
1
1
1
1
1
1
1
1
1
1
1
1
1
1
1
1
1
1
1
1
1
1
1
1
1
1
1
1
1
1
1
1
1
1
1
1
1
1
1
1
1
1
1
1
1
1
1
1
1
1
1
1
1
1
1
1
1
1
1
1
1
1
1
1
1
1
1
1
1
1
1
1
1
1
1
1
1
1
1
1
1
1
1
1
1
1
1
1
1
1
0.433461
0.504951
0.528522
0.483039
0.473844
0.420195
0.457102
0.40623
0.449249
0.462965
0.527537
0.434258
0.507841
0.448104
0.405258
0.496322
0.503604
0.439976
0.45236
0.504944
0.447754
0.549311
0.454332
0.422277
0.491174
0.412222
0.413576
0.399069
0.502472
0.412498
0.365461
0.476275
0.449648
0.384283
0.405212
0.412943
0.432534
0.405578
0.432173
0.428697
0.3997
0.448165
0.418325
0.374707
0.370037
0.446126
0.447266
0.456228
0.363318
0.365718
0.437853
0.320941
0.432534
0.434812
0.415554
0.451164
0.388266
0.439708
0.425447
0.374707
0.373616
0.339307
0.391992
0.38857
0.433461
0.439976
0.448733
0.434848
0.386876
0.437248
0.307528
0.451164
0.443532
0.388964
0.394583
0.317862
0.472048
0.412498
0.391992
0.37604
0.560258
0.375
0.368945
0.408562
0.397747
0.400705
0.360156
0.364505
0.411135
0.407993
0.439692
0.418017
0.421937
0.440191
0.425157
0.413628
0.58184
0.634901
0.70986
0.728377
0.510805
0.576109
0.570667
0.62769
0.504514
0.570795
0.567898
0.580431
0.609852
0.513382
0.577711
0.591544
1
1
1
1
1
1
1
1
1
1
1
1
1
0.996044
0.991156
1
1
1
1
1
1
1
1
1
1
1
1
1
1
1
1
1
1
1
1
1
1
1
1
1
1
1
1
1
1
1
1
1
1
1
1
1
1
1
1
1
1
1
1
1
1
1
1
1
1
1
1
1
1
1
1
1
1
1
1
1
1
1
1
1
1
1
1
1
1
1
1
1
1
1
1
1
1
1
1
1
1
1
1
1
1
1
1
1
1
1
1
1
1
1
1
1
1
1
1
1
1
1
1
1
1
1
1
1
1
1
1
1
1
1
1
1
1
1
1
1
1
1
1
1
1
1
1
1
1
1
1
1
1
1
1
1
1
1
1
1
1
1
1
1
1
1
1
1
1
1
1
1
1
1
1
1
1
1
1
1
1
1
1
1
1
1
1
1
1
1
1
1
1
1
1
1
1
1
1
1
1
1
1
1
1
1
1
1
1
1
1
1
1
1
1
1
1
1
1
1
1
1
1
1
1
1
1
1
1
1
1
1
1
1
1
1
1
1
1
1
1
1
1
1
1
1
1
1
1
1
1
1
1
1
1
1
1
1
1
1
1
1
1
1
1
1
1
1
1
1
1
1
1
1
1
1
0.473928
0.486889
0.428286
0.438044
0.455446
0.490843
0.454508
0.541076
0.459614
0.412784
0.465808
0.418524
0.452372
0.444744
0.499224
0.363511
0.498208
0.432534
0.477835
0.520369
0.47401
0.476226
0.498908
0.444148
0.488628
0.451562
0.468182
0.471586
0.447991
0.40623
0.520879
0.453722
0.428065
0.44558
0.407323
0.493524
0.405941
0.412886
0.420679
0.416454
0.44148
0.412784
0.368467
0.378727
0.439229
0.390182
0.393655
0.443699
0.465835
0.395573
0.395889
0.375406
0.409035
0.434812
0.395307
0.475798
0.426973
0.351846
0.356596
0.414102
0.391038
0.380553
0.423431
0.41864
0.42267
0.423838
0.418757
0.396882
0.390471
0.405578
0.456622
0.351176
0.477748
0.451562
0.38746
0.327875
0.404181
0.345248
0.380121
0.361005
0.44695
0.395573
0.420663
0.423727
0.368812
0.369035
0.420679
0.341285
0.488628
0.385085
0.401705
0.396414
0.386657
0.473631
0.434258
0.335946
0.684357
0.676045
0.624574
0.652804
0.603961
0.768565
0.714568
0.752735
0.608311
0.714702
0.658117
0.688258
0.627613
0.714348
0.713069
0.686767
1
1
1
1
1
1
1
1
1
1
1
1
1
1
1
1
1
1
1
1
1
1
1
1
1
1
1
1
1
1
1
1
1
1
1
1
1
1
1
1
1
1
1
1
1
1
1
1
1
1
1
1
1
1
1
1
1
1
1
1
1
1
1
1
1
1
1
1
1
1
1
1
1
1
1
1
1
1
1
1
1
1
1
1
1
1
1
1
1
1
1
1
1
1
1
1
1
1
1
1
1
1
1
1
1
1
1
1
1
1
1
1
1
1
1
1
1
1
1
1
1
1
1
1
1
1
1
1
1
1
1
1
1
1
1
1
1
1
1
1
1
1
1
1
1
1
1
1
1
1
1
1
1
1
1
1
1
1
1
1
1
1
1
1
1
1
1
1
1
1
1
1
1
1
1
1
1
1
1
1
1
1
1
1
1
1
1
1
1
1
1
1
1
1
1
1
1
1
1
1
1
1
1
1
1
1
1
1
1
1
1
1
1
1
1
1
1
1
1
1
1
1
1
1
1
1
1
1
1
1
1
1
1
1
1
1
1
1
1
1
1
1
1
1
1
1
1
1
1
1
1
1
1
1
1
1
1
1
1
1
1
1
1
1
1
1
1
1
1
1
1
1
)
;

boundaryField
{
    inlet
    {
        type            fixedValue;
        value           uniform 1;
    }
    outlet
    {
        type            fixedValue;
        value           uniform 1;
    }
    wall
    {
        type            zeroGradient;
    }
    procBoundary0to1
    {
        type            processor;
        value           nonuniform List<scalar> 
192
(
0.518097
0.53653
0.478597
0.499664
0.339029
0.43383
0.436463
0.444363
0.439097
0.39433
0.357463
0.396963
0.344296
0.41803
0.415396
0.43383
0.396963
0.294262
0.415396
0.373263
0.349563
0.431196
0.396963
0.349563
0.652398
0.47333
0.515464
0.38643
1
1
1
1
1
1
1
1
1
1
1
1
1
1
1
1
1
1
1
1
1
1
1
1
1
1
1
1
1
1
1
1
1
1
1
1
1
1
1
1
1
1
1
1
1
1
1
1
1
1
1
1
1
1
1
1
1
1
1
1
1
1
1
1
1
1
1
1
0.464889
0.38876
0.487063
0.496322
0.414778
0.404585
0.449477
0.481286
0.391513
0.471841
0.405258
0.338452
0.436254
0.365023
0.414102
0.381052
0.430885
0.428323
0.462742
0.37604
0.418358
0.422388
0.416313
0.488804
0.629539
0.65185
0.661727
0.654191
1
1
1
1
1
1
1
1
1
1
1
1
1
1
1
1
1
1
1
1
1
1
1
1
1
1
1
1
1
1
1
1
1
1
1
1
1
1
1
1
1
1
1
1
1
1
1
1
1
1
1
1
1
1
1
1
1
1
1
1
1
1
1
1
1
1
1
1
)
;
    }
    procBoundary0to2
    {
        type            processor;
        value           nonuniform List<scalar> 
192
(
0.499664
0.399596
0.349563
0.46543
0.428563
0.45753
0.48913
0.478597
0.304796
0.431196
0.40223
0.428563
0.40223
0.428563
0.452263
0.428563
0.352196
0.399596
0.47333
0.381163
0.454897
0.333763
0.381163
0.420663
0.636598
0.589197
0.597097
0.549697
1
1
1
1
1
1
1
1
1
1
1
1
1
1
1
1
1
1
1
1
1
1
1
1
1
1
1
1
1
1
1
1
1
1
1
1
1
1
1
1
1
1
1
1
1
1
1
1
1
1
1
1
1
1
1
1
1
1
1
1
1
1
1
1
1
1
1
1
0.450572
0.521294
0.493696
0.436181
0.429096
0.467885
0.573289
0.38857
0.479206
0.382826
0.372094
0.386064
0.438044
0.558879
0.467164
0.411122
0.421937
0.418432
0.40968
0.381052
0.40762
0.424366
0.442844
0.416134
0.504262
0.580638
0.608664
0.548945
0.99821
1
1
1
1
1
1
1
1
1
1
1
1
1
1
1
1
1
1
1
1
1
1
1
1
1
1
1
1
1
1
1
1
1
1
1
1
1
1
1
1
1
1
1
1
1
1
1
1
1
1
1
1
1
1
1
1
1
1
1
1
1
1
1
1
1
1
1
)
;
    }
}


// ************************************************************************* //
