/*--------------------------------*- C++ -*----------------------------------*\
| =========                 |                                                 |
| \\      /  F ield         | OpenFOAM: The Open Source CFD Toolbox           |
|  \\    /   O peration     | Version:  2506                                  |
|   \\  /    A nd           | Website:  www.openfoam.com                      |
|    \\/     M anipulation  |                                                 |
\*---------------------------------------------------------------------------*/
FoamFile
{
    version     2.0;
    format      ascii;
    arch        "LSB;label=32;scalar=64";
    class       volScalarField;
    location    "0.1";
    object      p;
}
// * * * * * * * * * * * * * * * * * * * * * * * * * * * * * * * * * * * * * //

dimensions      [0 2 -2 0 0 0 0];

internalField   nonuniform List<scalar> 
1152
(
17.2391
17.2976
17.3472
17.4509
17.3899
17.2114
16.8475
17.2254
17.2748
17.3655
17.2578
17.1812
17.1692
17.2981
16.8645
16.8832
15.0256
14.9935
15.0906
15.198
14.9834
15.0969
15.2036
15.0838
14.3878
14.8792
14.7838
15.07
13.9037
14.9479
14.3446
15.0764
12.8893
12.9927
12.8674
12.4055
12.8743
12.9127
12.7736
12.6302
12.1152
12.7135
12.8478
12.7296
13.5808
12.9688
13.6331
12.2373
9.70651
9.23
8.68061
8.26866
9.21327
9.22245
8.82681
8.32609
8.90265
8.64636
8.84282
8.0717
8.73353
8.21912
8.64378
7.44894
5.59945
5.35318
4.78924
3.54628
5.34106
5.36239
4.87061
3.71219
7.04757
5.66506
5.24805
4.72755
8.3359
6.97038
5.61195
5.22995
1.75504
1.66391
1.72872
1.4791
2.18746
2.05976
1.8362
1.99618
2.56156
2.25002
1.873
1.58977
3.83176
2.57007
1.95097
2.18855
1.01784
1.01168
1.00272
1.04878
1.04974
0.982524
1.01787
1.13274
1.00595
1.03367
1.01055
1.04177
0.958269
1.01323
1.0517
1.05586
0.993458
0.996784
1.00175
1.00787
0.99451
0.998951
1.00387
1.01398
0.996437
0.999557
1.00277
1.00649
0.999555
1.00226
1.00446
1.00671
1.00331
1.00354
1.00475
1.00737
1.00386
1.00294
1.00496
1.00693
1.00371
1.00461
1.00551
1.00684
1.00003
1.00272
1.00568
1.00693
1.00159
1.00182
1.00225
1.00286
1.00182
1.00183
1.00242
1.00285
1.00199
1.0023
1.00252
1.00278
1.0003
1.00136
1.00223
1.00253
1.00085
1.00115
1.00144
1.00173
1.00086
1.00115
1.00146
1.00167
1.00087
1.00116
1.00138
1.00153
1.00026
1.00071
1.00107
1.00126
1.00041
1.00061
1.00079
1.00094
1.00037
1.00058
1.00076
1.00088
1.00028
1.00048
1.00064
1.00074
0.999972
1.0002
1.00039
1.00052
1.00016
1.00029
1.00041
1.0005
1.0001
1.00023
1.00035
1.00043
0.999991
1.00012
1.00023
1.00031
0.999787
0.999924
1.00005
1.00013
1.00001
1.0001
1.00017
1.00024
0.999943
1.00003
1.00011
1.00017
0.999845
0.999932
1.00001
1.00007
0.9997
0.999787
0.999868
0.999934
0.999914
0.999973
1.00003
1.00007
0.999856
0.999916
0.999969
1.00001
0.999775
0.999834
0.999888
0.999934
0.999667
0.999726
0.999782
0.999831
0.999862
0.999902
0.999938
0.999968
0.999813
0.999853
0.999891
0.999922
0.999748
0.999789
0.999827
0.99986
0.999667
0.999708
0.999748
0.999784
0.999837
0.999864
0.999889
0.99991
0.999797
0.999825
0.999851
0.999873
0.999747
0.999775
0.999803
0.999826
0.999687
0.999716
0.999744
0.99977
0.999831
0.99985
0.999867
0.999882
0.9998
0.99982
0.999838
0.999854
0.999762
0.999782
0.999801
0.999818
0.999718
0.999738
0.999758
0.999777
0.99984
0.999853
0.999865
0.999874
0.999816
0.99983
0.999842
0.999853
0.999787
0.999802
0.999815
0.999827
0.999755
0.999769
0.999784
0.999797
0.999858
0.999867
0.999875
0.999882
0.99984
0.99985
0.999859
0.999866
0.999819
0.999829
0.999839
0.999847
0.999795
0.999806
0.999816
0.999826
0.999883
0.999889
0.999895
0.9999
0.99987
0.999877
0.999883
0.999888
0.999855
0.999863
0.999869
0.999875
0.999839
0.999846
0.999853
0.99986
0.999913
0.999918
0.999921
0.999924
0.999905
0.999909
0.999913
0.999917
0.999895
0.9999
0.999904
0.999908
0.999884
0.999889
0.999893
0.999898
0.999947
0.999949
0.999951
0.999953
0.999942
0.999944
0.999947
0.999949
0.999936
0.999939
0.999941
0.999943
0.99993
0.999933
0.999935
0.999938
0.999982
0.999983
0.999984
0.999984
0.999981
0.999981
0.999982
0.999983
0.999979
0.99998
0.99998
0.999981
0.999977
0.999977
0.999978
0.999979
17.1099
17.33
17.4804
17.2413
17.2814
17.213
17.204
17.3596
17.0218
17.5227
17.2666
17.3173
17.1949
17.4504
17.4138
17.4412
14.8966
14.9029
15.0017
14.9392
14.7406
14.9127
15.1466
14.9478
13.9549
14.7299
15.1159
15.1446
14.7729
14.8386
15.1978
15.0579
13.1451
12.8865
12.6028
12.1455
12.4767
12.8429
12.9029
12.2895
13.0036
12.7132
12.8009
12.5864
13.3424
12.708
12.538
12.4532
9.66932
9.26484
8.65704
8.6571
9.68208
9.40532
8.84124
8.77173
11.2448
9.77002
8.91155
8.16724
10.3334
9.42101
8.76072
8.12323
5.51613
5.21109
5.3407
4.96667
5.36402
5.49896
5.10652
4.20364
6.31173
5.38826
4.76268
3.79005
5.60339
5.31238
4.59422
3.01529
1.62457
2.10459
2.07793
1.69265
1.71715
1.66423
1.95536
1.6192
1.36405
1.48332
1.63179
1.21062
1.35024
1.64513
1.42901
0.50335
0.989109
0.991375
0.988955
0.999167
1.00223
1.0017
0.969078
1.00519
0.998333
0.993334
1.01568
1.06371
1.00186
1.00076
1.02247
1.2365
0.990248
0.991393
0.994567
0.997283
0.990988
0.992717
0.997048
1.00046
0.992213
0.994498
0.999548
1.00558
0.993005
0.99595
1.00158
1.01194
0.999344
1.00082
1.00185
1.00499
1.00001
1.00132
1.00217
1.00527
1.0006
1.00178
1.00373
1.00662
1.00156
1.00253
1.00446
1.00727
0.999101
0.999858
1.00055
1.00161
0.999522
1.00023
1.00085
1.00185
1.00003
1.00066
1.0014
1.00219
1.00068
1.00116
1.00179
1.00245
0.999961
1.00048
1.00095
1.00159
1.00008
1.00056
1.00101
1.00158
1.00032
1.00076
1.00116
1.00163
1.00058
1.00094
1.00129
1.00165
1.00008
1.00038
1.00063
1.00093
1.00014
1.00044
1.00067
1.00094
1.00024
1.00051
1.00072
1.00094
1.00034
1.00056
1.00075
1.00092
1.00008
1.00027
1.00042
1.00058
1.00011
1.00029
1.00043
1.00057
1.00014
1.00031
1.00043
1.00056
1.00016
1.00031
1.00042
1.00053
1.00004
1.00016
1.00024
1.00032
1.00004
1.00016
1.00024
1.00031
1.00005
1.00015
1.00023
1.0003
1.00004
1.00013
1.0002
1.00027
0.999985
1.00006
1.00011
1.00015
0.999983
1.00005
1.0001
1.00014
0.999973
1.00004
1.00009
1.00013
0.999951
1.00001
1.00006
1.0001
0.999939
0.999984
1.00001
1.00003
0.999933
0.999978
1.00001
1.00003
0.99992
0.999963
0.999994
1.00001
0.999897
0.999937
0.99997
0.999996
0.999906
0.999935
0.999953
0.999962
0.999901
0.999929
0.999948
0.999957
0.999888
0.999916
0.999935
0.999947
0.999867
0.999894
0.999916
0.999932
0.999889
0.999908
0.999919
0.999922
0.999884
0.999903
0.999914
0.999918
0.999873
0.999892
0.999904
0.99991
0.999856
0.999874
0.999889
0.999899
0.999886
0.999898
0.999904
0.999905
0.999882
0.999894
0.999901
0.999902
0.999873
0.999885
0.999893
0.999896
0.999859
0.999871
0.999881
0.999888
0.999893
0.999901
0.999905
0.999904
0.99989
0.999898
0.999902
0.999902
0.999883
0.999891
0.999896
0.999898
0.999872
0.999881
0.999887
0.999892
0.999909
0.999914
0.999916
0.999915
0.999906
0.999912
0.999914
0.999914
0.999901
0.999907
0.99991
0.999911
0.999894
0.999899
0.999904
0.999907
0.999931
0.999934
0.999935
0.999934
0.999929
0.999932
0.999934
0.999933
0.999926
0.999929
0.999931
0.999932
0.99992
0.999924
0.999927
0.999929
0.999957
0.999959
0.999959
0.999959
0.999956
0.999958
0.999958
0.999958
0.999954
0.999956
0.999957
0.999957
0.999951
0.999953
0.999955
0.999955
0.999985
0.999986
0.999986
0.999986
0.999985
0.999986
0.999986
0.999986
0.999984
0.999985
0.999985
0.999985
0.999983
0.999984
0.999985
0.999985
17.463
17.3991
17.3646
17.1902
17.5056
17.4916
17.1656
17.1498
17.5683
17.5662
17.5948
17.6533
17.5165
17.7923
17.7441
17.8173
15.1246
15.0496
14.7367
15.0254
15.004
15.0137
14.9745
14.9649
15.0042
15.0729
15.0816
15.1073
14.8486
15.0709
15.1118
14.7462
12.358
12.5337
13.4485
12.7615
12.3764
12.5079
12.6034
12.9186
12.3108
12.4595
12.1078
11.7018
11.9605
11.7692
11.6802
11.3402
8.5496
8.51295
8.71584
8.75734
8.45319
8.38202
8.46127
8.45167
8.33453
8.37569
8.28177
8.47286
8.27618
8.29695
7.47073
8.95859
4.10087
4.16575
3.95056
4.12967
4.35502
4.59937
4.55727
4.78589
4.80619
5.07258
5.27582
5.63147
5.11439
5.27989
5.72733
6.02351
1.15219
1.017
-0.298436
0.840721
1.693
1.40525
1.3144
0.85725
1.72183
1.38138
1.23972
1.39906
1.90916
1.48599
1.29723
1.49518
1.00443
1.0035
1.10512
0.997617
1.02948
0.994186
1.01079
1.0138
1.00054
0.999181
1.00355
0.994436
1.00749
1.00319
0.998241
0.996791
1.00508
1.00278
0.997267
0.99634
1.005
1.00041
0.996204
0.993784
1.0021
0.997763
0.994773
0.992994
1.00247
0.997467
0.993687
0.99138
1.00665
1.00625
1.0059
1.00559
1.00584
1.00458
1.00472
1.00487
1.00504
1.00375
1.00298
1.00209
1.00468
1.00325
1.00229
1.00184
1.00244
1.00217
1.00196
1.00158
1.00244
1.00199
1.00178
1.0015
1.00216
1.00162
1.00118
1.00062
1.00181
1.00125
1.00078
1.0004
1.00176
1.00174
1.00173
1.00172
1.00163
1.00156
1.00151
1.00149
1.0014
1.00123
1.00107
1.00094
1.00112
1.00094
1.00078
1.00068
1.00098
1.001
1.00101
1.00101
1.00091
1.00093
1.00093
1.00093
1.00074
1.00072
1.00068
1.00063
1.00053
1.00051
1.00047
1.00045
1.00055
1.00059
1.00061
1.00062
1.00048
1.00052
1.00055
1.00056
1.00035
1.00038
1.00038
1.00037
1.00018
1.00021
1.00022
1.00022
1.00028
1.00031
1.00033
1.00034
1.00022
1.00026
1.00028
1.00029
1.00012
1.00015
1.00017
1.00017
0.999984
1.00002
1.00004
1.00005
1.0001
1.00012
1.00014
1.00015
1.00005
1.00008
1.0001
1.00011
0.999973
1.00001
1.00003
1.00003
0.999873
0.999907
0.99993
0.99994
0.99999
1.00001
1.00002
1.00003
0.99995
0.999975
0.999992
0.999999
0.999891
0.999918
0.999934
0.999941
0.999816
0.999842
0.99986
0.999869
0.999925
0.99994
0.999949
0.999954
0.999894
0.999913
0.999925
0.99993
0.999849
0.99987
0.999883
0.999888
0.999793
0.999813
0.999827
0.999833
0.999893
0.999903
0.99991
0.999913
0.999868
0.999882
0.999891
0.999895
0.999835
0.99985
0.99986
0.999863
0.999794
0.999808
0.999818
0.999823
0.999882
0.99989
0.999895
0.999897
0.999864
0.999874
0.99988
0.999882
0.999839
0.99985
0.999857
0.99986
0.999809
0.99982
0.999827
0.99983
0.999887
0.999893
0.999896
0.999898
0.999874
0.999881
0.999885
0.999887
0.999856
0.999863
0.999868
0.99987
0.999834
0.999842
0.999847
0.999849
0.999903
0.999907
0.999909
0.999911
0.999893
0.999898
0.999901
0.999902
0.999881
0.999886
0.99989
0.999891
0.999866
0.999871
0.999874
0.999876
0.999926
0.999929
0.99993
0.999931
0.99992
0.999923
0.999925
0.999926
0.999911
0.999915
0.999917
0.999918
0.999902
0.999905
0.999907
0.999908
0.999954
0.999955
0.999956
0.999957
0.99995
0.999952
0.999953
0.999954
0.999946
0.999947
0.999949
0.999949
0.99994
0.999942
0.999943
0.999944
0.999984
0.999985
0.999985
0.999985
0.999983
0.999984
0.999984
0.999984
0.999982
0.999982
0.999983
0.999983
0.99998
0.99998
0.999981
0.999981
)
;

boundaryField
{
    inlet
    {
        type            zeroGradient;
    }
    outlet
    {
        type            fixedValue;
        value           uniform 1;
    }
    wall
    {
        type            zeroGradient;
    }
    procBoundary1to0
    {
        type            processor;
        value           nonuniform List<scalar> 
192
(
17.9154
17.8032
17.5502
17.4091
14.9639
15.0282
14.6879
14.8629
12.0111
12.3498
11.6177
12.8323
9.62
9.21081
9.35474
10.3884
5.74702
6.29097
7.36989
7.56394
2.13574
2.68687
2.70262
3.0378
1.01284
1.10148
1.07895
0.997146
0.991632
0.994733
0.994745
0.998209
1.00222
0.999537
1.00485
1.00062
1.00106
1.00134
1.00197
1.00037
1.00049
1.00045
1.00064
1.00011
1.00019
1.00013
1.0001
0.999821
1.00003
0.999961
0.99987
0.99968
0.999921
0.999855
0.999762
0.999622
0.999856
0.999798
0.999718
0.999611
0.999821
0.999772
0.999708
0.999628
0.999809
0.999768
0.999718
0.999659
0.999811
0.99978
0.999742
0.999697
0.999826
0.999801
0.999773
0.99974
0.999848
0.99983
0.999809
0.999785
0.999876
0.999864
0.999849
0.999832
0.999909
0.9999
0.99989
0.99988
0.999944
0.999939
0.999934
0.999927
0.999981
0.99998
0.999978
0.999976
17.5991
17.2053
17.2565
17.7135
14.9439
14.8656
14.6081
14.9162
12.3769
13.0028
13.0371
12.2998
9.17781
9.44579
9.85721
9.44117
5.56382
5.5385
5.30194
5.4466
2.25901
2.0103
1.62414
1.83146
1.00212
0.973568
1.0051
0.999794
0.989315
0.990352
0.991342
0.991748
0.999303
0.998581
1.00012
1.00044
0.998812
0.998919
0.999625
1.00018
0.999694
0.999724
1.00001
1.00025
0.999874
0.999915
1.00003
1.00013
0.999941
0.999958
0.999996
1.00002
0.999942
0.999945
0.999951
0.999947
0.999918
0.999915
0.999908
0.99989
0.999892
0.999887
0.999875
0.999855
0.999874
0.999868
0.999857
0.999838
0.999867
0.999862
0.999851
0.999835
0.99987
0.999866
0.999857
0.999844
0.999882
0.999879
0.999872
0.999862
0.999901
0.999899
0.999894
0.999887
0.999926
0.999924
0.999921
0.999916
0.999954
0.999953
0.999951
0.999948
0.999985
0.999984
0.999984
0.999983
)
;
    }
    procBoundary1to3
    {
        type            processor;
        value           nonuniform List<scalar> 
192
(
17.2327
17.5006
17.4018
16.0388
15.1098
15.0955
15.1238
15.7913
13.125
13.026
13.0183
12.2692
11.9674
8.7812
7.95161
5.04332
5.41118
5.76779
5.54635
5.03858
3.43152
2.99097
2.65608
3.79648
1.00478
0.998007
1.02829
1.12693
0.995221
1.00016
1.0036
1.00904
1.00067
1.00164
1.00406
1.00682
1.00009
1.0007
1.00132
1.00202
0.999805
1.00022
1.00055
1.0008
0.999607
0.999838
1.00003
1.00017
0.99953
0.999667
0.999792
0.99989
0.999518
0.999605
0.999689
0.99976
0.999536
0.999595
0.999654
0.999707
0.999573
0.999614
0.999656
0.999694
0.999618
0.999648
0.999677
0.999705
0.999668
0.999689
0.99971
0.99973
0.999719
0.999734
0.999749
0.999764
0.99977
0.999781
0.999792
0.999802
0.999821
0.999829
0.999836
0.999843
0.999873
0.999877
0.999882
0.999887
0.999924
0.999926
0.999929
0.999932
0.999974
0.999975
0.999976
0.999977
17.0943
17.4391
17.6364
17.8341
15.3939
15.5791
15.1416
15.0917
12.1604
11.6455
12.2742
12.1172
7.71783
8.40654
8.56851
8.82651
4.9915
5.18147
4.88504
5.84078
2.18189
1.75079
1.84701
1.89097
1.03896
1.00917
1.00461
0.985263
1.00302
0.997366
0.994172
0.992516
1.0046
1.00264
1.00104
0.999658
1.00121
1.0006
0.999949
0.999346
1.00062
1.0004
1.00016
1
1.00016
1.00011
1.00004
0.999978
0.999922
0.999928
0.999922
0.999912
0.999802
0.999816
0.999832
0.99984
0.999744
0.999765
0.999777
0.999786
0.999724
0.999744
0.999757
0.999764
0.999728
0.999743
0.999754
0.999761
0.999747
0.999758
0.999767
0.999772
0.999775
0.999784
0.99979
0.999794
0.99981
0.999816
0.999821
0.999823
0.999849
0.999853
0.999856
0.999858
0.999891
0.999893
0.999895
0.999897
0.999934
0.999935
0.999936
0.999937
0.999978
0.999978
0.999979
0.999979
)
;
    }
}


// ************************************************************************* //
