/*--------------------------------*- C++ -*----------------------------------*\
| =========                 |                                                 |
| \\      /  F ield         | OpenFOAM: The Open Source CFD Toolbox           |
|  \\    /   O peration     | Version:  2506                                  |
|   \\  /    A nd           | Website:  www.openfoam.com                      |
|    \\/     M anipulation  |                                                 |
\*---------------------------------------------------------------------------*/
FoamFile
{
    version     2.0;
    format      ascii;
    arch        "LSB;label=32;scalar=64";
    class       volVectorField;
    location    "0.1";
    object      stored_U;
}
// * * * * * * * * * * * * * * * * * * * * * * * * * * * * * * * * * * * * * //

dimensions      [0 1 -1 0 0 0 0];

internalField   nonuniform List<vector> 
1152
(
(0.0149462 -0.00743959 0.0412917)
(-0.00122842 0.000967253 0.0107111)
(-0.00232482 0.00421131 0.0111697)
(-0.00305073 0.00167885 0.0269133)
(0.00597433 -0.00199146 0.0167209)
(0.0107699 -0.00458626 0.0285866)
(4.0806e-05 0.00029264 0.000207126)
(-0.00638354 0.00166969 0.0134677)
(0.00258511 -0.0012254 0.0291267)
(-0.000325499 -0.0027184 0.0166755)
(-8.24121e-05 -0.00222674 0.0149388)
(-0.00394561 0.00201215 0.0244482)
(-6.38468e-05 0.000543846 0.0121626)
(0.002974 -0.00081535 0.0180342)
(0.00532892 -0.0008867 0.0396509)
(-0.0146634 0.00735267 0.0402729)
(-0.00641371 0.00113274 0.0516575)
(-0.00442653 -0.00334163 0.064667)
(-0.00442053 0.00213939 0.0519712)
(-0.000331967 0.00147996 0.014137)
(-0.0024126 0.00583475 0.0396969)
(-0.00429628 0.00230336 0.042731)
(-0.000447754 0.00612956 0.0470181)
(0.00387923 0.00413395 0.0684318)
(-0.00369378 0.00854693 0.0514849)
(-0.00526251 0.00306529 0.036025)
(-0.00437266 0.00675989 0.033176)
(-0.00311198 0.00041842 0.0420461)
(-0.000741431 0.00227375 0.00700109)
(-0.0038368 -0.000401486 0.028319)
(-0.0025131 0.000279319 0.00331079)
(-0.00251005 -0.00115178 0.0227088)
(-0.0343882 0.00631872 0.0659492)
(-0.00127669 0.000419874 0.0231356)
(0.00188845 -0.000319378 0.0366416)
(0.00154076 0.000605678 0.0234359)
(-0.00216439 0.00361195 0.0269327)
(-0.00170618 0.00365354 0.040469)
(0.000552662 0.00180787 0.0418442)
(0.00164465 -0.000327303 0.0368326)
(-0.00335451 0.00313152 0.0279243)
(-0.00487654 0.00358141 0.0346342)
(-0.00237055 -0.00102237 0.0378541)
(0.000513121 0.00238485 0.0301909)
(-0.00263427 -0.00350339 0.0472495)
(-0.00829919 -0.00128266 0.0613454)
(0.00102557 -0.00207394 0.054863)
(0.00711473 0.00179754 0.0444098)
(0.00609374 0.00380383 0.0371358)
(0.00582775 0.00118798 0.0563918)
(0.00205822 0.000584625 0.0357107)
(-0.000498647 0.000472739 0.0250956)
(-0.000508366 0.00518967 0.03226)
(-0.000530296 0.00402036 0.0325816)
(0.00206418 0.000267764 0.0507821)
(0.00134792 0.00292669 0.0680991)
(0.000622305 0.00902404 0.0600933)
(-0.00207652 0.00365592 0.034692)
(-4.984e-05 0.00197655 0.0382492)
(-4.55095e-05 0.00185814 0.0263163)
(-0.000182122 0.000667954 0.0163167)
(-0.00285617 -0.000300424 0.0337359)
(0.00304798 0.00436468 0.0701391)
(-0.000578547 0.00060216 0.0152505)
(0.00390158 0.00333255 0.0707258)
(0.00193685 0.00142001 0.0361703)
(0.0062094 -0.000888332 0.0547598)
(0.000189754 -0.00115431 0.0337105)
(0.00194686 -0.000402539 0.0247049)
(-0.000460382 0.000922123 0.0317658)
(0.000888372 0.000132467 0.0394244)
(0.00136209 -0.00270848 0.0421693)
(0.00674997 -0.00784668 0.0378717)
(0.0092089 -0.00675945 0.0594108)
(0.00042589 0.000260524 0.0295095)
(0.00115696 -0.000156133 0.0540585)
(0.00680682 0.0300243 0.0583962)
(-0.000104517 0.000794832 0.0154321)
(0.00985548 -0.000389487 0.0680626)
(0.00216963 0.00269879 0.0525108)
(0.00122673 -0.00090882 0.0206822)
(-0.000572142 -0.00264746 0.0373467)
(-0.000607545 -0.00111498 0.0218998)
(0.00751282 -0.00732115 0.0468581)
(0.00589541 -0.00746781 0.0473854)
(0.00107776 -0.00208247 0.0267192)
(0.000803007 0.000274908 0.0335773)
(-0.000193064 0.000497436 0.0119184)
(0.0023271 -0.00782504 0.0347024)
(0.00734361 -0.00265004 0.0478217)
(0.00344526 0.000712923 0.0300291)
(0.000310617 0.000325582 0.0171462)
(0.00108678 -0.00277602 0.0233986)
(0.00431143 -0.000840896 0.0217576)
(0.00370795 -0.00404737 0.0395991)
(0.000339765 -0.00693651 0.0406552)
(0.00151825 -0.00150036 0.0295428)
(0.000893732 -0.000116163 0.0343106)
(-0.000968766 -0.000871619 0.0210519)
(0.00023431 0.00168897 0.0340507)
(0.00414323 0.00158811 0.0385256)
(-0.000233782 0.00039627 0.0184595)
(-5.37893e-05 -0.000452329 0.0270676)
(-0.000214272 0.000527021 0.016462)
(0.000542405 0.00200163 0.0260684)
(0.00115427 0.000278947 0.0392827)
(0.00136473 -0.000439512 0.0256715)
(0.000802078 -0.000362044 0.024584)
(0.000892017 0.000595463 0.0257184)
(-0.000134643 0.000981678 0.0291472)
(0.000332744 0.000814778 0.0494127)
(0.00197815 0.00036192 0.036528)
(0.0036455 -0.00679497 0.041448)
(0.00283325 -0.00519844 0.0360255)
(0.00259317 -0.00340461 0.0212484)
(0.00331181 -0.00279299 0.0380328)
(0.0116445 -0.00232895 0.0300806)
(0.00535945 -0.00193996 0.00875171)
(0.0031635 -0.00140228 0.0240534)
(0.00309223 -0.0011332 0.0192685)
(0.00431318 0.000798774 0.0210491)
(0.00395655 -0.000516682 0.0405629)
(0.00354551 -0.000372578 0.0313219)
(0.00318551 0.00131661 0.033526)
(0.00192792 0.00152764 -0.00425708)
(0.00386593 -0.000119354 0.0176129)
(0.00476126 0.000307039 0.0497545)
(0.00383293 0.000518783 0.0474598)
(-0.00268866 0.00413121 0.0171698)
(-0.000136082 0.00279106 0.0158548)
(-0.00148797 0.00119849 0.0132475)
(-0.00227271 0.00169755 0.0150403)
(-0.00901402 0.00109629 0.0168028)
(-0.00281312 3.27094e-05 0.0143252)
(-0.00270102 -0.000498016 0.013847)
(-0.00123741 0.00043692 0.0140143)
(-0.0016875 -0.000831819 0.0160229)
(-0.00172764 -0.00138937 0.0169646)
(-0.00116229 -0.00234758 0.0153323)
(-2.19533e-05 -0.00209707 0.0147196)
(-0.000423017 -0.00160566 0.0162403)
(-0.00434595 0.000271341 0.0163238)
(-0.00345321 -0.000308299 0.0189022)
(0.000174846 -0.00173115 0.0178241)
(-0.000502775 0.00134175 0.0204655)
(0.000146764 0.00105676 0.0205491)
(-0.000431503 0.000296795 0.0201231)
(-0.00078295 0.000238578 0.0215191)
(-0.00122839 0.000333247 0.0176407)
(-0.000681065 -5.01409e-05 0.0185951)
(-0.00100886 -0.000354159 0.0195078)
(-0.000670279 -8.03158e-05 0.0204331)
(-0.000165965 -0.000336829 0.0194474)
(-0.000574981 -0.000720404 0.0204844)
(-0.000563652 -0.00112105 0.0207014)
(-0.000260246 -0.00105452 0.0212088)
(-1.35549e-05 -0.000739743 0.0187189)
(-0.00152853 -0.00021367 0.0199511)
(-0.00144214 -0.000322624 0.0221008)
(-0.000347467 -0.000677465 0.0228419)
(-0.000136265 0.00058577 0.0194957)
(-8.47768e-05 0.000483895 0.0194077)
(-0.000376406 0.000185798 0.0191514)
(-0.000676708 0.000195358 0.0195135)
(-0.000352345 0.000126483 0.0187269)
(-0.000379362 1.90448e-05 0.0188117)
(-0.000576844 -0.00011604 0.0190074)
(-0.000612862 -1.98214e-06 0.0193053)
(-8.7427e-05 -0.000284614 0.0192694)
(-0.000358121 -0.000359408 0.0194906)
(-0.000455569 -0.000475414 0.0195091)
(-0.00042878 -0.000430021 0.019673)
(-6.81947e-05 -0.000428831 0.0190345)
(-0.000605141 -0.000294699 0.0194121)
(-0.00070097 -0.000288352 0.0200139)
(-0.000493612 -0.00030422 0.0202882)
(-1.20812e-05 0.000222044 0.0198597)
(-5.80001e-05 0.000178092 0.019849)
(-0.000191335 3.15739e-05 0.0197839)
(-0.000348727 3.32359e-06 0.0199529)
(-9.13862e-05 2.13946e-05 0.0196109)
(-0.000178478 -1.72613e-05 0.0196635)
(-0.000291362 -9.17323e-05 0.019738)
(-0.000368792 -7.04237e-05 0.0198946)
(-4.02147e-05 -0.000170956 0.0197926)
(-0.000189556 -0.000194791 0.0198777)
(-0.000274454 -0.000239961 0.0199266)
(-0.000311357 -0.000226543 0.02003)
(-5.49773e-05 -0.000241093 0.019793)
(-0.000268628 -0.000209611 0.0199244)
(-0.000350527 -0.000198349 0.02012)
(-0.00035181 -0.000168351 0.020265)
(1.40688e-05 6.48625e-05 0.0199951)
(-3.56793e-05 4.98239e-05 0.0199893)
(-0.000109523 -1.23288e-05 0.0199528)
(-0.000197124 -2.53562e-05 0.0199929)
(-1.51659e-05 -1.76558e-05 0.0199316)
(-8.30816e-05 -3.26364e-05 0.0199543)
(-0.000151377 -6.70436e-05 0.019974)
(-0.000209719 -6.18157e-05 0.0200276)
(-1.33133e-05 -0.000100765 0.020006)
(-9.45266e-05 -0.000111704 0.0200368)
(-0.000152037 -0.000129171 0.0200622)
(-0.000188715 -0.000123413 0.0201045)
(-2.90947e-05 -0.000143504 0.0200318)
(-0.000122139 -0.000135849 0.0200826)
(-0.000175889 -0.000127832 0.0201476)
(-0.000205314 -0.000104418 0.0202077)
(1.52844e-05 5.88104e-06 0.0200842)
(-1.92745e-05 1.55247e-07 0.0200759)
(-5.99354e-05 -2.67453e-05 0.0200492)
(-0.000105041 -3.49758e-05 0.0200462)
(2.48234e-06 -3.04998e-05 0.020087)
(-3.89798e-05 -3.74407e-05 0.0200907)
(-7.83343e-05 -5.27371e-05 0.0200893)
(-0.000113262 -5.25689e-05 0.0200976)
(-1.82489e-06 -6.91757e-05 0.0201263)
(-4.58772e-05 -7.39608e-05 0.0201346)
(-8.05844e-05 -8.05716e-05 0.0201407)
(-0.000105363 -7.75784e-05 0.0201486)
(-1.04717e-05 -9.54558e-05 0.0201501)
(-5.51713e-05 -9.2499e-05 0.0201672)
(-8.73778e-05 -8.69087e-05 0.0201863)
(-0.0001105 -7.23948e-05 0.0202019)
(1.16661e-05 -1.42026e-05 0.0201432)
(-1.00219e-05 -1.63086e-05 0.020132)
(-3.2773e-05 -2.76846e-05 0.0201059)
(-5.61837e-05 -3.22641e-05 0.0200791)
(6.22891e-06 -3.23896e-05 0.0201695)
(-1.79616e-05 -3.5247e-05 0.0201646)
(-4.07493e-05 -4.16472e-05 0.0201521)
(-6.02458e-05 -4.2044e-05 0.0201359)
(3.15482e-06 -5.19419e-05 0.0201989)
(-2.11865e-05 -5.3797e-05 0.0201974)
(-4.17761e-05 -5.57389e-05 0.0201909)
(-5.66268e-05 -5.34975e-05 0.0201781)
(-5.01774e-07 -6.80121e-05 0.0202196)
(-2.37316e-05 -6.63169e-05 0.0202219)
(-4.26097e-05 -6.22306e-05 0.0202206)
(-5.69307e-05 -5.33327e-05 0.020212)
(8.5021e-06 -1.91621e-05 0.0201793)
(-4.61114e-06 -1.98977e-05 0.0201664)
(-1.77765e-05 -2.43878e-05 0.0201393)
(-3.00709e-05 -2.69437e-05 0.0201004)
(6.19145e-06 -2.94301e-05 0.020214)
(-7.76077e-06 -3.05667e-05 0.0202051)
(-2.10262e-05 -3.28447e-05 0.0201867)
(-3.17994e-05 -3.29761e-05 0.0201576)
(4.73133e-06 -4.03216e-05 0.0202406)
(-8.88739e-06 -4.07632e-05 0.0202343)
(-2.11053e-05 -4.09194e-05 0.0202205)
(-2.97348e-05 -3.89417e-05 0.0201962)
(3.50213e-06 -5.01283e-05 0.0202588)
(-9.15111e-06 -4.88083e-05 0.0202544)
(-2.00882e-05 -4.59673e-05 0.0202434)
(-2.8415e-05 -4.02909e-05 0.0202219)
(6.16711e-06 -1.84537e-05 0.0202016)
(-1.61255e-06 -1.85549e-05 0.0201877)
(-9.53911e-06 -2.00234e-05 0.0201592)
(-1.62644e-05 -2.1446e-05 0.0201142)
(5.27052e-06 -2.48376e-05 0.0202391)
(-2.71941e-06 -2.51374e-05 0.0202283)
(-1.07352e-05 -2.5813e-05 0.0202065)
(-1.6818e-05 -2.54263e-05 0.0201708)
(4.75134e-06 -3.13204e-05 0.0202646)
(-3.02362e-06 -3.12032e-05 0.020256)
(-1.02729e-05 -3.08243e-05 0.0202381)
(-1.52725e-05 -2.89811e-05 0.0202075)
(4.53312e-06 -3.73399e-05 0.0202809)
(-2.56568e-06 -3.63006e-05 0.0202735)
(-8.93265e-06 -3.43039e-05 0.0202576)
(-1.37513e-05 -3.06592e-05 0.0202294)
(4.52193e-06 -1.57795e-05 0.0202158)
(-1.78364e-07 -1.56086e-05 0.0202014)
(-5.04178e-06 -1.59504e-05 0.0201718)
(-8.82609e-06 -1.65681e-05 0.0201236)
(4.24416e-06 -2.00271e-05 0.020254)
(-4.912e-07 -1.99708e-05 0.0202424)
(-5.2911e-06 -1.99348e-05 0.0202185)
(-8.75428e-06 -1.9352e-05 0.0201795)
(4.14774e-06 -2.40873e-05 0.0202787)
(-3.38681e-07 -2.37969e-05 0.0202691)
(-4.6821e-06 -2.32e-05 0.020249)
(-7.64461e-06 -2.17386e-05 0.0202149)
(4.27112e-06 -2.77877e-05 0.0202936)
(2.21951e-07 -2.70091e-05 0.0202849)
(-3.48086e-06 -2.5632e-05 0.0202665)
(-6.2905e-06 -2.32279e-05 0.0202346)
(3.30611e-06 -1.26807e-05 0.0202249)
(4.29086e-07 -1.24201e-05 0.0202103)
(-2.53924e-06 -1.22958e-05 0.02018)
(-4.71198e-06 -1.25563e-05 0.0201301)
(3.28976e-06 -1.56024e-05 0.0202631)
(4.90952e-07 -1.54084e-05 0.0202511)
(-2.4747e-06 -1.51298e-05 0.0202263)
(-4.44698e-06 -1.45429e-05 0.0201852)
(3.35423e-06 -1.823e-05 0.0202872)
(7.39188e-07 -1.791e-05 0.020277)
(-1.85063e-06 -1.73711e-05 0.0202557)
(-3.64659e-06 -1.61942e-05 0.0202198)
(3.55488e-06 -2.04918e-05 0.0203009)
(1.24501e-06 -1.99351e-05 0.0202916)
(-9.30902e-07 -1.89879e-05 0.0202719)
(-2.59805e-06 -1.74157e-05 0.0202382)
(2.39957e-06 -9.7347e-06 0.020231)
(6.42534e-07 -9.47053e-06 0.0202162)
(-1.21626e-06 -9.21406e-06 0.0201856)
(-2.49549e-06 -9.26865e-06 0.0201347)
(2.48142e-06 -1.17622e-05 0.0202689)
(8.05598e-07 -1.15376e-05 0.0202567)
(-1.02805e-06 -1.12442e-05 0.0202313)
(-2.20671e-06 -1.0713e-05 0.0201892)
(2.59388e-06 -1.34993e-05 0.0202924)
(1.05016e-06 -1.32172e-05 0.020282)
(-5.2052e-07 -1.27777e-05 0.02026)
(-1.59143e-06 -1.19089e-05 0.020223)
(2.7663e-06 -1.48739e-05 0.0203051)
(1.4573e-06 -1.44972e-05 0.0202956)
(1.5477e-07 -1.38459e-05 0.0202753)
(-8.43531e-07 -1.28033e-05 0.0202406)
(1.72371e-06 -7.12789e-06 0.0202349)
(6.35352e-07 -6.90077e-06 0.0202202)
(-5.4188e-07 -6.65555e-06 0.0201893)
(-1.29065e-06 -6.5946e-06 0.0201378)
(1.82078e-06 -8.523e-06 0.0202725)
(7.96687e-07 -8.32837e-06 0.0202603)
(-3.14422e-07 -8.0651e-06 0.0202345)
(-1.0415e-06 -7.62755e-06 0.0201919)
(1.93025e-06 -9.67463e-06 0.0202955)
(1.01695e-06 -9.44995e-06 0.020285)
(6.4673e-08 -9.10579e-06 0.0202628)
(-6.02156e-07 -8.50174e-06 0.0202252)
(2.05735e-06 -1.04986e-05 0.0203076)
(1.31743e-06 -1.02472e-05 0.020298)
(5.43417e-07 -9.80905e-06 0.0202774)
(-6.8386e-08 -9.12225e-06 0.0202421)
(1.2136e-06 -4.87705e-06 0.0202374)
(5.50817e-07 -4.70418e-06 0.0202227)
(-1.68339e-07 -4.50786e-06 0.0201917)
(-6.01482e-07 -4.41956e-06 0.02014)
(1.29722e-06 -5.80036e-06 0.0202748)
(6.82869e-07 -5.65059e-06 0.0202625)
(2.1366e-08 -5.44597e-06 0.0202367)
(-4.1464e-07 -5.1232e-06 0.0201937)
(1.38717e-06 -6.54092e-06 0.0202974)
(8.52254e-07 -6.37134e-06 0.0202869)
(2.90528e-07 -6.12356e-06 0.0202645)
(-1.20266e-07 -5.72392e-06 0.0202266)
(1.47765e-06 -7.01694e-06 0.020309)
(1.06694e-06 -6.8503e-06 0.0202994)
(6.05519e-07 -6.56473e-06 0.0202787)
(2.28691e-07 -6.13348e-06 0.0202432)
(8.65986e-07 -2.96256e-06 0.020239)
(4.90899e-07 -2.84604e-06 0.0202243)
(8.93324e-08 -2.71313e-06 0.0201932)
(-1.64432e-07 -2.63801e-06 0.0201413)
(9.25242e-07 -3.51494e-06 0.0202761)
(5.8051e-07 -3.41318e-06 0.0202639)
(2.09835e-07 -3.27678e-06 0.020238)
(-4.43967e-08 -3.07842e-06 0.0201948)
(9.88198e-07 -3.94637e-06 0.0202985)
(6.9165e-07 -3.8349e-06 0.020288)
(3.74268e-07 -3.67903e-06 0.0202656)
(1.27081e-07 -3.44167e-06 0.0202275)
(1.04554e-06 -4.20345e-06 0.0203098)
(8.24394e-07 -4.10251e-06 0.0203002)
(5.60242e-07 -3.93471e-06 0.0202794)
(3.31262e-07 -3.68639e-06 0.0202438)
(7.55428e-07 -1.54716e-06 0.0202399)
(5.56052e-07 -1.47253e-06 0.0202252)
(3.41648e-07 -1.38211e-06 0.0201941)
(1.62374e-07 -1.30009e-06 0.0201422)
(7.95663e-07 -1.82457e-06 0.0202769)
(6.14808e-07 -1.75987e-06 0.0202647)
(4.14888e-07 -1.67304e-06 0.0202388)
(2.41647e-07 -1.56082e-06 0.0201956)
(8.3476e-07 -2.03578e-06 0.0202991)
(6.78609e-07 -1.97361e-06 0.0202887)
(5.01908e-07 -1.88638e-06 0.0202663)
(3.40426e-07 -1.76453e-06 0.0202282)
(8.675e-07 -2.16414e-06 0.0203103)
(7.46162e-07 -2.11059e-06 0.0203007)
(5.95367e-07 -2.02427e-06 0.0202799)
(4.46416e-07 -1.9013e-06 0.0202443)
(0.00121404 -0.00138522 0.0127978)
(-0.00209891 0.000329097 0.0124692)
(-0.000262577 0.00106328 0.00564806)
(0.00309548 -0.00108044 0.022902)
(-0.00227024 0.000481215 0.0194294)
(0.00037086 -0.00217309 0.0181865)
(-0.0051037 0.00354438 0.0338334)
(-0.00084661 -0.00259307 0.0180215)
(-0.00727719 -0.000590907 0.0210861)
(-0.00113684 -0.00144243 0.0100424)
(0.00347087 -0.00394958 0.0258238)
(-0.00218246 -0.00599522 0.0326537)
(0.00101513 -0.00453372 0.0215766)
(-0.00383923 0.0022789 0.0277186)
(-5.5327e-05 -0.00305893 0.0265853)
(0.000173732 -0.000607502 0.00192524)
(-0.00340421 0.00255048 0.063124)
(0.000256963 -0.000204233 0.0486049)
(0.000509557 -0.00143476 0.041275)
(0.00138677 -0.00098678 0.062035)
(-0.00318512 0.00293506 0.0204489)
(-0.00508016 0.000546168 0.062028)
(0.00033216 -0.00123132 0.0570293)
(0.00269283 -0.0020419 0.0263374)
(-0.0005316 -0.000617433 0.0561)
(-0.00513123 0.000466498 0.027647)
(-0.00483327 -0.00195749 0.0563367)
(0.000864813 -0.000325859 0.0444542)
(0.00351494 -0.00749312 0.0556065)
(-0.002643 0.000394748 0.00864384)
(-0.00126922 0.00212495 0.0116186)
(0.00129515 0.000632864 0.042907)
(-0.00364926 0.00503001 0.0303304)
(0.00487848 0.00221042 0.0400617)
(0.00220209 0.000302901 0.0210105)
(0.0014907 -0.00169821 0.0454076)
(-0.000334129 0.00306919 0.0307443)
(-0.00154105 0.00272584 0.0370593)
(0.00157033 0.00114476 0.0156911)
(0.00396835 -0.0050649 0.0531909)
(-0.0003207 0.00306852 0.0100724)
(0.00117116 0.00274607 0.0269709)
(-0.000835463 0.00602268 0.0465794)
(0.00117839 0.00152047 0.0226154)
(-0.00403023 0.00673811 0.0341614)
(0.00573523 -0.000263044 0.0558752)
(0.000227794 0.00215816 0.0276757)
(0.000667259 0.00515485 0.0586657)
(-0.000684182 0.000749323 0.0311032)
(0.0035376 0.000795809 0.0390972)
(0.00307435 -0.000275938 0.042896)
(0.000794571 -0.00224035 0.0855212)
(-0.000586544 0.000263618 0.0177363)
(0.00222011 -0.00102211 0.0563663)
(0.00244387 -0.000615509 0.0515566)
(-0.000568392 0.00320048 0.0369965)
(0.00274889 -0.00268473 0.0685799)
(0.00244943 0.000979876 0.0362804)
(0.00370367 0.00234822 0.0418971)
(8.90874e-05 0.00278207 0.0248674)
(-0.000717143 0.00189581 0.0190432)
(0.00157054 0.0011587 0.0260738)
(0.00316023 0.00292063 0.0383053)
(0.00077814 0.000268563 0.0440387)
(-0.000394653 0.00117376 0.0276069)
(-0.000924914 -0.00196252 0.0409043)
(-0.00104613 0.00190708 0.0446097)
(0.000671125 0.0110358 0.0583836)
(-0.00157471 -0.00243311 0.0478451)
(-0.00102173 -2.5185e-05 0.0391459)
(0.00214735 0.00392173 0.0315369)
(-0.000746539 0.00312169 0.0166429)
(-0.00118101 -0.000299176 0.039478)
(0.000578634 0.00195191 0.0239014)
(0.00145802 0.00395474 0.0468563)
(0.00274111 0.00334622 0.0523239)
(-0.000469898 0.00327689 0.0470745)
(0.00179646 0.00149731 0.0621115)
(0.000994489 0.00175943 0.0311205)
(0.0028336 0.00544317 0.072457)
(-0.00102717 0.000258876 0.0174417)
(-0.00559846 0.0045061 0.0392681)
(0.000129929 0.000547291 0.0160094)
(0.00526591 0.00616338 0.0388588)
(0.000933382 0.00288909 0.0388804)
(-0.00356106 0.00364381 0.0242983)
(-0.00296004 0.00415428 0.0338227)
(0.00921454 0.0200315 0.0451834)
(-0.000105936 0.00106447 0.0264105)
(-0.0027728 0.000325681 0.0291367)
(-0.00213922 0.00581252 0.0309545)
(-0.000707685 0.00265703 0.0145678)
(0.000120437 -0.00295418 0.0280669)
(-0.000990636 -0.00100203 0.025884)
(-0.000294039 0.000207353 0.0208886)
(-0.00114372 0.000553318 0.0102463)
(0.00115275 -0.000895196 0.018814)
(0.000143284 -0.000369835 0.0178743)
(0.000143372 -0.000642353 0.0188141)
(-0.000101545 0.00133903 0.0290818)
(3.42919e-05 -0.00143839 0.0325617)
(-4.47034e-05 -0.000131841 0.0279516)
(-0.000612687 -0.001342 0.0134511)
(-0.000853915 -0.000939991 0.0119564)
(0.00078934 -0.000698451 0.0255942)
(0.000146393 -0.000300624 0.0236414)
(-0.00028877 -0.00210706 0.0284283)
(0.00156445 -0.0038658 0.0293709)
(0.000327119 -0.00150227 0.0286471)
(-0.000110321 -0.00129866 0.025382)
(-0.00100712 -0.000806657 0.0220707)
(-0.000368691 -0.000351322 0.0167458)
(0.00085583 -0.000741851 0.0287729)
(0.00062838 -0.000619569 0.0304185)
(-1.71567e-05 -0.000801069 0.022889)
(0.000885241 -4.29858e-05 0.0396553)
(0.000777975 -0.00194875 0.0396381)
(0.000945897 -0.00172659 0.0371087)
(0.000403103 -0.00166554 0.012024)
(0.00184262 -0.00116228 0.0334936)
(0.00130079 -0.00285252 0.0364917)
(0.00123922 -0.00261639 0.0337202)
(0.000562679 -0.00224567 0.0308079)
(0.00210202 -0.00240627 0.0415009)
(0.00203052 -0.00408519 0.0378426)
(0.00182375 -0.00389158 0.0325582)
(0.000910782 -0.00274322 0.0296275)
(0.0020186 -0.00209499 0.0441034)
(0.000217434 -0.000527151 0.0123971)
(0.000517615 -0.000154231 0.011576)
(-0.00155498 -0.000826165 0.00993711)
(-0.00352442 -0.00219804 0.0135603)
(-0.000405527 -0.000735063 0.0150664)
(0.00108216 -0.000129359 0.0139896)
(-0.00101032 -0.00140042 0.0103453)
(-0.00416815 -0.00220455 0.0135614)
(0.000145415 0.000232071 0.0161811)
(0.000512033 0.000601956 0.015501)
(-0.00100508 -0.00125976 0.0133349)
(-0.00328057 -0.00114808 0.014859)
(-0.000487639 0.00137278 0.0167424)
(0.000227675 0.00126008 0.0154524)
(-0.00135828 0.000222884 0.0140286)
(-0.00248295 0.00019542 0.0155716)
(0.000352499 -0.000333613 0.0208956)
(0.00059715 -0.000146732 0.0208992)
(-0.000339524 -0.000492568 0.0195585)
(-0.00128746 -0.00106379 0.0225823)
(0.000123428 -0.000629824 0.0218065)
(0.000803484 -0.000359412 0.021625)
(-2.88389e-05 -0.000842078 0.019811)
(-0.00135559 -0.00108566 0.0224304)
(0.000237197 -5.32748e-05 0.0221101)
(0.000578176 0.000148523 0.0219778)
(-3.57585e-06 -0.000626132 0.0207862)
(-0.00113273 -0.000663409 0.022377)
(3.83631e-05 0.000524217 0.0215543)
(0.000329364 0.000558735 0.0213506)
(-0.000195379 -5.27116e-05 0.0207811)
(-0.000873813 -0.000264092 0.0220281)
(0.000205221 -6.28512e-05 0.0190867)
(0.000210203 1.7877e-05 0.0189901)
(-0.000318831 -0.000238895 0.0182312)
(-0.000774304 -0.000496938 0.0193212)
(0.000108743 -0.000153731 0.019607)
(0.000242269 -3.1318e-05 0.0194526)
(-0.000231905 -0.000316988 0.0186019)
(-0.000833592 -0.000369936 0.0194577)
(0.000116759 5.87265e-05 0.0198972)
(0.000160498 0.000143129 0.0197428)
(-0.000200472 -0.000239325 0.0190667)
(-0.000752378 -0.000205804 0.0195285)
(3.1887e-05 0.000336172 0.0197506)
(2.02822e-05 0.000343353 0.0196013)
(-0.000274512 8.44075e-08 0.0192139)
(-0.000658531 -2.20943e-05 0.019501)
(0.000139994 -2.77239e-05 0.0196264)
(0.000136628 1.57581e-05 0.0196421)
(-0.000104073 -0.000117335 0.0193086)
(-0.000349617 -0.000254257 0.0198794)
(0.000100343 -6.28897e-05 0.019852)
(0.000129494 -3.36737e-06 0.0198341)
(-7.68229e-05 -0.0001603 0.0195052)
(-0.000369603 -0.000197058 0.0199559)
(8.64922e-05 4.03899e-05 0.0200079)
(8.42285e-05 7.86789e-05 0.019975)
(-7.99848e-05 -0.000110931 0.019709)
(-0.000356517 -0.000115259 0.0199857)
(4.74566e-05 0.000157841 0.0199639)
(1.28033e-05 0.000155792 0.0199357)
(-0.000117768 -2.50933e-05 0.0197946)
(-0.00032423 -5.16916e-05 0.0199665)
(7.66531e-05 -8.17133e-06 0.0196787)
(5.4751e-05 1.15062e-05 0.019684)
(-6.37706e-05 -5.85687e-05 0.0194906)
(-0.000186337 -0.000127181 0.0197092)
(6.14723e-05 -2.04307e-05 0.0198646)
(4.64174e-05 7.79788e-06 0.0198539)
(-5.6441e-05 -7.5165e-05 0.0196758)
(-0.000198812 -9.37676e-05 0.0198342)
(5.24162e-05 1.62414e-05 0.0199874)
(2.59984e-05 3.43026e-05 0.0199664)
(-6.07926e-05 -5.90609e-05 0.0198219)
(-0.000193888 -6.21498e-05 0.0199069)
(3.56612e-05 5.51319e-05 0.0200119)
(-4.39201e-06 5.47906e-05 0.0199952)
(-7.69368e-05 -2.97678e-05 0.0199095)
(-0.000179859 -3.82479e-05 0.0199465)
(4.2274e-05 -3.46175e-06 0.0197233)
(2.16445e-05 4.96468e-06 0.0197263)
(-3.42355e-05 -3.09136e-05 0.0196256)
(-9.45836e-05 -6.74072e-05 0.0197147)
(3.58182e-05 -1.06956e-05 0.0198882)
(1.57226e-05 1.84358e-06 0.0198808)
(-3.3432e-05 -4.13134e-05 0.0197872)
(-0.000100974 -5.44365e-05 0.019843)
(3.09205e-05 -4.8874e-07 0.0200011)
(6.39166e-06 7.22018e-06 0.0199868)
(-3.75723e-05 -3.77799e-05 0.0199094)
(-0.000100241 -4.2909e-05 0.019929)
(2.39779e-05 9.07132e-06 0.0200582)
(-5.85217e-06 8.70874e-06 0.0200447)
(-4.48084e-05 -3.02054e-05 0.0199936)
(-9.44282e-05 -3.51915e-05 0.0199882)
(2.34321e-05 -2.46189e-06 0.0197556)
(7.18259e-06 6.9344e-07 0.0197507)
(-2.09627e-05 -1.79022e-05 0.0196902)
(-5.07072e-05 -3.76704e-05 0.0197122)
(2.06072e-05 -8.46838e-06 0.0199143)
(4.11696e-06 -3.27374e-06 0.019903)
(-2.11359e-05 -2.50755e-05 0.0198444)
(-5.36496e-05 -3.3303e-05 0.0198465)
(1.83541e-05 -8.08026e-06 0.0200261)
(1.6383e-07 -4.92057e-06 0.0200108)
(-2.33117e-05 -2.64616e-05 0.0199594)
(-5.33356e-05 -3.03278e-05 0.0199422)
(1.54894e-05 -8.48578e-06 0.0200979)
(-4.37341e-06 -9.03043e-06 0.0200832)
(-2.61784e-05 -2.68455e-05 0.0200438)
(-5.0225e-05 -2.91846e-05 0.0200131)
(1.35462e-05 -2.073e-06 0.0197789)
(1.84674e-06 -1.15348e-06 0.0197687)
(-1.32421e-05 -1.1114e-05 0.0197268)
(-2.82983e-05 -2.23394e-05 0.019719)
(1.22608e-05 -7.43405e-06 0.0199359)
(4.35818e-07 -5.53181e-06 0.0199213)
(-1.33075e-05 -1.65887e-05 0.0198777)
(-2.9309e-05 -2.18592e-05 0.0198555)
(1.12941e-05 -1.03877e-05 0.0200481)
(-1.05116e-06 -9.30905e-06 0.0200313)
(-1.41761e-05 -1.94847e-05 0.01999)
(-2.88563e-05 -2.22389e-05 0.0199553)
(1.0135e-05 -1.38683e-05 0.020126)
(-2.45592e-06 -1.43521e-05 0.02011)
(-1.49966e-05 -2.23296e-05 0.0200745)
(-2.68637e-05 -2.34933e-05 0.0200314)
(8.19235e-06 -1.76093e-06 0.0197956)
(4.96878e-08 -1.71909e-06 0.0197822)
(-8.64436e-06 -7.25404e-06 0.0197482)
(-1.65498e-05 -1.39104e-05 0.0197262)
(7.58495e-06 -6.41399e-06 0.0199521)
(-4.65868e-07 -5.89743e-06 0.0199353)
(-8.47708e-06 -1.1512e-05 0.0198977)
(-1.66665e-05 -1.4933e-05 0.0198637)
(7.22664e-06 -1.01091e-05 0.0200647)
(-8.34847e-07 -9.84467e-06 0.0200467)
(-8.57308e-06 -1.45884e-05 0.020009)
(-1.60204e-05 -1.64554e-05 0.0199655)
(6.80501e-06 -1.40708e-05 0.0201451)
(-1.02277e-06 -1.44191e-05 0.0201283)
(-8.51324e-06 -1.7844e-05 0.0200936)
(-1.45846e-05 -1.84651e-05 0.020044)
(5.15354e-06 -1.4621e-06 0.0198077)
(-3.93303e-07 -1.68382e-06 0.0197927)
(-5.69671e-06 -4.8904e-06 0.0197618)
(-1.00818e-05 -9.01207e-06 0.019733)
(4.86302e-06 -5.32851e-06 0.019964)
(-4.83153e-07 -5.30586e-06 0.0199461)
(-5.39067e-06 -8.22707e-06 0.0199106)
(-9.82809e-06 -1.04576e-05 0.0198708)
(4.78538e-06 -8.76568e-06 0.0200768)
(-3.99648e-07 -8.74963e-06 0.0200582)
(-5.13201e-06 -1.0982e-05 0.0200215)
(-9.12948e-06 -1.21796e-05 0.0199735)
(4.69757e-06 -1.23121e-05 0.0201582)
(-1.73494e-07 -1.2503e-05 0.0201409)
(-4.75772e-06 -1.39663e-05 0.0201061)
(-8.02586e-06 -1.42277e-05 0.0200531)
(3.33651e-06 -1.17429e-06 0.0198164)
(-4.07525e-07 -1.42108e-06 0.0198006)
(-3.77356e-06 -3.35517e-06 0.0197707)
(-6.3521e-06 -5.99585e-06 0.0197386)
(3.20258e-06 -4.25755e-06 0.0199727)
(-3.18853e-07 -4.36305e-06 0.0199542)
(-3.43191e-06 -5.94103e-06 0.0199192)
(-6.01044e-06 -7.40161e-06 0.0198765)
(3.2468e-06 -7.12455e-06 0.0200855)
(-8.21768e-08 -7.15003e-06 0.0200666)
(-3.05047e-06 -8.21701e-06 0.0200299)
(-5.36586e-06 -8.92564e-06 0.0199796)
(3.29708e-06 -1.00216e-05 0.0201671)
(2.46133e-07 -1.00987e-05 0.0201496)
(-2.58773e-06 -1.06988e-05 0.0201144)
(-4.44005e-06 -1.06706e-05 0.0200597)
(2.20342e-06 -9.0687e-07 0.0198226)
(-3.08205e-07 -1.10582e-06 0.0198065)
(-2.49069e-06 -2.3083e-06 0.0197768)
(-4.07924e-06 -4.02971e-06 0.019743)
(2.14813e-06 -3.27246e-06 0.0199788)
(-1.66658e-07 -3.37887e-06 0.0199601)
(-2.1744e-06 -4.26559e-06 0.0199251)
(-3.74727e-06 -5.21689e-06 0.0198809)
(2.2333e-06 -5.51503e-06 0.0200917)
(9.09847e-08 -5.52448e-06 0.0200726)
(-1.80037e-06 -6.03913e-06 0.0200357)
(-3.22869e-06 -6.46805e-06 0.0199842)
(2.32841e-06 -7.75375e-06 0.0201732)
(4.06964e-07 -7.76141e-06 0.0201556)
(-1.37173e-06 -7.9637e-06 0.0201201)
(-2.47142e-06 -7.83659e-06 0.0200644)
(1.46959e-06 -6.64661e-07 0.019827)
(-1.89786e-07 -8.02778e-07 0.0198107)
(-1.60966e-06 -1.55974e-06 0.019781)
(-2.61776e-06 -2.68281e-06 0.0197463)
(1.45289e-06 -2.39536e-06 0.0199832)
(-5.47411e-08 -2.47141e-06 0.0199644)
(-1.35138e-06 -2.98697e-06 0.0199292)
(-2.3414e-06 -3.59875e-06 0.0198841)
(1.54079e-06 -4.05388e-06 0.0200959)
(1.66041e-07 -4.04471e-06 0.0200768)
(-1.04043e-06 -4.29769e-06 0.0200398)
(-1.94066e-06 -4.54806e-06 0.0199875)
(1.63634e-06 -5.70028e-06 0.0201774)
(4.22847e-07 -5.66931e-06 0.0201597)
(-6.97918e-07 -5.71839e-06 0.020124)
(-1.36446e-06 -5.57213e-06 0.0200677)
(9.89403e-07 -4.50596e-07 0.01983)
(-6.86535e-08 -5.32188e-07 0.0198137)
(-9.6876e-07 -9.92896e-07 0.0197838)
(-1.60547e-06 -1.69858e-06 0.0197487)
(9.89373e-07 -1.63342e-06 0.0199861)
(3.77352e-08 -1.67526e-06 0.0199673)
(-7.77973e-07 -1.96947e-06 0.019932)
(-1.40049e-06 -2.34569e-06 0.0198864)
(1.06106e-06 -2.77381e-06 0.0200988)
(2.02966e-07 -2.7532e-06 0.0200796)
(-5.47342e-07 -2.87223e-06 0.0200424)
(-1.11402e-06 -3.00688e-06 0.0199898)
(1.13848e-06 -3.90489e-06 0.0201801)
(3.89027e-07 -3.8631e-06 0.0201625)
(-2.97199e-07 -3.85234e-06 0.0201266)
(-7.00601e-07 -3.71284e-06 0.02007)
(7.0001e-07 -2.6713e-07 0.0198318)
(8.11015e-08 -2.94085e-07 0.0198155)
(-4.48102e-07 -5.37842e-07 0.0197856)
(-8.35557e-07 -9.34754e-07 0.0197501)
(7.08856e-07 -9.88023e-07 0.0199879)
(1.56988e-07 -9.9418e-07 0.0199691)
(-3.17904e-07 -1.13794e-06 0.0199337)
(-6.94186e-07 -1.34373e-06 0.0198878)
(7.59517e-07 -1.68158e-06 0.0201006)
(2.65745e-07 -1.65125e-06 0.0200814)
(-1.66138e-07 -1.69087e-06 0.0200441)
(-5.13023e-07 -1.75411e-06 0.0199912)
(8.12902e-07 -2.3701e-06 0.0201817)
(3.86261e-07 -2.32678e-06 0.0201641)
(-1.71259e-09 -2.29359e-06 0.0201282)
(-2.48235e-07 -2.18481e-06 0.0200714)
(6.08066e-07 -1.17998e-07 0.019833)
(2.69096e-07 -9.20715e-08 0.0198167)
(-3.79143e-08 -1.83582e-07 0.0197868)
(-2.70647e-07 -3.61469e-07 0.0197513)
(6.35086e-07 -5.02504e-07 0.0199891)
(3.32187e-07 -4.67615e-07 0.0199702)
(5.28093e-08 -5.0749e-07 0.0199349)
(-1.76347e-07 -5.9233e-07 0.0198889)
(6.7616e-07 -8.79878e-07 0.0201016)
(4.09296e-07 -8.3206e-07 0.0200825)
(1.58331e-07 -8.17647e-07 0.0200453)
(-5.73197e-08 -8.2385e-07 0.0199923)
(7.16257e-07 -1.23858e-06 0.0201828)
(4.88252e-07 -1.18715e-06 0.0201652)
(2.65903e-07 -1.13529e-06 0.0201293)
(8.69185e-08 -1.0522e-06 0.0200725)
(0.000650163 -0.00258725 0.0289625)
(0.00195671 -0.00413939 0.0278755)
(0.0031469 -0.000582996 0.014684)
(0.00432598 -0.00104495 0.0289195)
(-0.00342184 -0.00121505 0.0187937)
(0.00318114 -0.00127201 0.0140946)
(0.000457871 -0.000211967 0.000553385)
(0.000133196 -0.00288956 0.0113745)
(-0.00301896 -0.000659086 0.0137285)
(-0.000832445 -0.00252865 0.0164908)
(-0.00224177 -0.00485047 0.0257555)
(-0.00166401 -0.00389321 0.0205434)
(-0.00168357 0.000884989 0.00317535)
(-0.000418899 0.000121495 0.0171954)
(0.000694677 -0.000563375 0.0235058)
(-0.000287449 -0.000907787 0.0294439)
(0.00120428 0.00151768 0.0172799)
(0.0023301 0.00100983 0.0318497)
(0.000579055 0.000591903 0.0322903)
(-0.00140274 0.002492 0.0499093)
(0.000671957 0.00165585 0.0322973)
(-0.000111086 0.00117673 0.0441241)
(0.000648925 -0.00106602 0.0600179)
(0.00180459 0.00146233 0.0681353)
(0.00124299 0.00328449 0.0417187)
(-0.000992964 0.00064381 0.0604629)
(-0.000787634 -0.000287752 0.0399807)
(0.000489272 0.00368411 0.0447572)
(0.00120754 -0.00137372 0.0270572)
(0.000102424 -0.00131552 0.01819)
(0.00338757 0.000948389 0.04724)