/*--------------------------------*- C++ -*----------------------------------*\
| =========                 |                                                 |
| \\      /  F ield         | OpenFOAM: The Open Source CFD Toolbox           |
|  \\    /   O peration     | Version:  2506                                  |
|   \\  /    A nd           | Website:  www.openfoam.com                      |
|    \\/     M anipulation  |                                                 |
\*---------------------------------------------------------------------------*/
FoamFile
{
    version     2.0;
    format      ascii;
    arch        "LSB;label=32;scalar=64";
    class       volVectorField;
    location    "0.1";
    object      U;
}
// * * * * * * * * * * * * * * * * * * * * * * * * * * * * * * * * * * * * * //

dimensions      [0 1 -1 0 0 0 0];

internalField   nonuniform List<vector> 
1152
(
(0.0143758 -0.00494423 0.039622)
(-0.0010291 0.00124322 0.0102649)
(-0.00197279 0.00448324 0.0106647)
(-0.00251378 0.00318069 0.0260576)
(0.00562145 -0.000150606 0.0163216)
(0.00953131 -0.00175354 0.0273237)
(-8.20543e-05 0.000167697 0.000104171)
(-0.00605246 0.00277994 0.0131249)
(0.00205801 0.00330789 0.0307456)
(-0.000503833 -0.000811603 0.0162807)
(0.00040147 4.54298e-05 0.0142537)
(-0.00529022 0.00511254 0.0223526)
(-3.62807e-05 0.000547392 0.0134048)
(0.00188698 -0.000548763 0.01691)
(0.00720113 -0.00219409 0.0394533)
(-0.0160723 0.024506 0.0339953)
(-0.00325128 0.000348758 0.0484342)
(-0.0038705 -0.00320027 0.0604962)
(-0.00411869 0.00258697 0.0512131)
(-0.000190204 0.00160117 0.0136902)
(-0.00241965 0.00893807 0.0366109)
(-0.00465998 0.00368021 0.0405909)
(-0.000481281 0.0069473 0.0440933)
(0.00411322 0.00513588 0.0684207)
(-0.00421507 0.0124104 0.0478064)
(-0.0070073 0.0042735 0.0331138)
(-0.00462515 0.00834095 0.0303272)
(-0.00347427 0.00093116 0.0403413)
(-0.000846275 0.00182716 0.0072566)
(-0.00501678 -0.000581762 0.0246436)
(-0.00251374 -6.72326e-05 0.00327229)
(-0.00357596 -0.00363172 0.0215037)
(-0.014755 0.00846549 0.0650815)
(-0.000660008 0.000859871 0.0223748)
(0.0024699 1.8682e-05 0.0358434)
(0.00131859 0.00083815 0.0236034)
(-0.00280379 0.00503626 0.0263403)
(-0.000936986 0.00414258 0.0383494)
(0.000712836 0.00173133 0.0420836)
(0.00128185 0.000525945 0.0345599)
(-0.00418879 0.00105895 0.0243909)
(-0.00514317 0.00259904 0.0333317)
(-0.0013914 -0.00257596 0.0360379)
(0.00112223 0.00327658 0.0310899)
(-0.00167287 -0.00572392 0.0413266)
(-0.0020006 -0.00166954 0.0605754)
(0.00555522 -0.000909924 0.0516169)
(0.00984839 0.0033275 0.046838)
(0.00181197 0.00622792 0.0376346)
(0.00666562 0.00247558 0.0551132)
(0.00331478 0.000715124 0.0356018)
(-0.00030006 0.000562026 0.0279395)
(-0.00052233 0.00446118 0.030905)
(0.00054187 0.00360502 0.0320561)
(0.00435224 9.20493e-05 0.0499008)
(0.002417 0.00255161 0.0722076)
(0.0061263 0.00718591 0.0575576)
(-0.000580437 0.00495309 0.0333088)
(0.00139369 0.0018682 0.0375185)
(1.57682e-05 0.00251677 0.0253615)
(-0.000346608 -0.000184475 0.0163303)
(-0.000677121 -0.000224452 0.0309596)
(0.00599602 0.00786205 0.0671937)
(-0.000590628 0.00123995 0.0149823)
(0.00450798 0.00309981 0.0668475)
(0.00372463 0.000793816 0.0343833)
(0.0125654 -0.00242913 0.0516962)
(0.00182684 -0.00287398 0.0306596)
(0.00227938 -0.0010785 0.0228079)
(0.00147978 -0.000490589 0.030394)
(0.00694308 -0.00175021 0.0364159)
(0.00204316 -0.00592248 0.0393526)
(0.00668392 -0.0102481 0.0322933)
(0.0149168 -0.0131371 0.05573)
(0.00229623 -0.0016514 0.0280854)
(0.00301042 -0.0103453 0.0492788)
(0.00698654 0.0195279 0.0563942)
(0.000545164 0.000352903 0.0154863)
(0.0161172 -0.00210461 0.0611923)
(0.00379886 -0.00193977 0.0428995)
(0.00108224 -0.00108732 0.0202821)
(-0.000257349 -0.0029616 0.0354772)
(-0.000162083 -0.00112543 0.0202143)
(0.00807181 -0.0200438 0.0357271)
(0.00612639 -0.00802525 0.0458879)
(0.00146009 -0.00243536 0.0260475)
(0.000635861 -0.000806316 0.0299198)
(-3.89202e-05 0.000312985 0.0118229)
(0.00308793 -0.00811596 0.0369672)
(0.00723301 -0.00458675 0.047854)
(0.00363743 -0.000268225 0.0293258)
(0.000447566 -0.000147454 0.0165112)
(0.00134271 -0.00134138 0.0255869)
(0.00440614 -0.000718694 0.0228276)
(0.00336433 -0.00547271 0.0396163)
(0.000454178 -0.017909 0.0397364)
(0.00123598 -0.001194 0.0282213)
(0.000408205 -0.000107176 0.0318017)
(-0.00143267 -0.000674365 0.0193271)
(-0.000243148 0.00513794 0.0278114)
(0.00338163 0.00142857 0.0375995)
(-1.19726e-05 0.000381706 0.0180741)
(-0.00258998 -0.000399089 0.0248487)
(-0.000432251 0.000581525 0.0164775)
(0.000602604 0.00200345 0.0258811)
(0.000684152 -0.000263823 0.0389074)
(0.000859309 -0.000434298 0.0247318)
(0.000766732 0.00160549 0.0234856)
(0.000566974 0.000928139 0.026582)
(-0.0009673 0.00133599 0.0320297)
(-0.000938345 7.40666e-05 0.0513861)
(0.00175888 -0.00173747 0.0410878)
(0.00280051 -0.00674543 0.0414561)
(0.00161936 -0.00533383 0.0355959)
(0.000928266 -0.00360937 0.0220379)
(0.00280911 -0.00269375 0.0413172)
(0.00979078 -0.00266743 0.0321516)
(0.00383532 -0.00230442 0.00925872)
(0.00105315 -0.00154543 0.0251573)
(0.00300991 -0.000888093 0.0324565)
(0.00344317 0.000198235 0.0220765)
(0.00293835 -0.000934819 0.0412245)
(0.002483 -0.000428383 0.0321899)
(0.00325318 0.00207916 0.0366042)
(0.00130506 0.00163633 -0.00389586)
(0.00287508 -3.93734e-05 0.0193835)
(0.0038206 0.000213826 0.0522484)
(0.0039724 0.000172939 0.0514542)
(-0.00271686 0.00356023 0.0167287)
(-0.000426984 0.00247601 0.0157023)
(-0.0019685 0.00101064 0.0136076)
(-0.00235243 0.00159748 0.0160537)
(-0.00844503 0.000941587 0.0161765)
(-0.00286693 -0.000114643 0.0141716)
(-0.00307987 -0.000591982 0.0143341)
(-0.00127234 0.000460169 0.0155234)
(-0.00164481 -0.000419007 0.0157382)
(-0.00195309 -0.00129033 0.0170574)
(-0.00146628 -0.00228589 0.0158358)
(5.36559e-05 -0.00193928 0.0156212)
(-0.000761719 -0.00111453 0.01608)
(-0.00475342 0.000558891 0.0166031)
(-0.00376731 -0.000128409 0.0196021)
(0.000282706 -0.0015852 0.0188684)
(-0.000614625 0.00117556 0.0205782)
(-2.26574e-06 0.000921586 0.0206799)
(-0.000599015 0.000200906 0.0203966)
(-0.000811772 0.000173855 0.0219618)
(-0.00131475 0.000267252 0.0179494)
(-0.000790826 -0.000105849 0.0188007)
(-0.00113571 -0.000380326 0.0198335)
(-0.000673183 -7.36488e-05 0.0209021)
(-0.000262843 -0.000167607 0.019655)
(-0.000683927 -0.000631005 0.0207164)
(-0.000666272 -0.00105302 0.0210543)
(-0.000228917 -0.000974679 0.0216517)
(-0.000191523 -0.000463889 0.0187987)
(-0.0017418 -1.14886e-05 0.0201487)
(-0.00157856 -0.000162531 0.0224418)
(-0.000309546 -0.000549444 0.0232644)
(-0.000228942 0.000540761 0.0196177)
(-0.000179124 0.000440398 0.0195481)
(-0.000461118 0.00015414 0.0193446)
(-0.000710705 0.000175593 0.0197462)
(-0.000446894 0.00012076 0.018895)
(-0.000466084 1.71876e-05 0.0189879)
(-0.000645865 -0.000106573 0.019223)
(-0.00062963 1.9821e-05 0.0195516)
(-0.000172448 -0.000201889 0.0194518)
(-0.000437556 -0.000291177 0.0196845)
(-0.000515496 -0.000410697 0.0197387)
(-0.000434446 -0.000363508 0.0199205)
(-0.000164291 -0.000273225 0.0191254)
(-0.000708978 -0.000161231 0.0195656)
(-0.000772272 -0.000167169 0.0202224)
(-0.000498375 -0.000196506 0.0205198)
(-7.30026e-05 0.000215528 0.0199262)
(-0.00011696 0.000172081 0.0199338)
(-0.000241473 2.99368e-05 0.0198936)
(-0.000377591 7.18081e-06 0.0200781)
(-0.000153238 3.91817e-05 0.0196924)
(-0.000234461 1.93725e-06 0.0197636)
(-0.000335176 -6.81414e-05 0.019858)
(-0.000390053 -4.23253e-05 0.0200251)
(-9.73747e-05 -0.000113304 0.0198815)
(-0.000243121 -0.000138969 0.0199823)
(-0.000315453 -0.000184444 0.020049)
(-0.000329237 -0.000171307 0.0201594)
(-0.000112219 -0.000142949 0.0198483)
(-0.000327036 -0.000117214 0.0200076)
(-0.000394665 -0.000110087 0.020226)
(-0.000369971 -8.55726e-05 0.0203798)
(-2.45191e-05 7.35705e-05 0.0200363)
(-7.28242e-05 5.89922e-05 0.0200427)
(-0.00014118 -1.48033e-06 0.0200196)
(-0.00021917 -1.25857e-05 0.0200677)
(-5.4045e-05 6.7281e-06 0.019978)
(-0.00011948 -7.91734e-06 0.0200129)
(-0.000181027 -4.09746e-05 0.020044)
(-0.000229468 -3.43701e-05 0.0201034)
(-5.05991e-05 -5.57693e-05 0.0200516)
(-0.000130188 -6.67681e-05 0.0200937)
(-0.000180927 -8.43359e-05 0.0201295)
(-0.000207617 -7.91243e-05 0.0201765)
(-6.49949e-05 -7.68047e-05 0.0200619)
(-0.000158838 -7.02775e-05 0.0201263)
(-0.000206192 -6.39404e-05 0.0202029)
(-0.000224853 -4.32296e-05 0.0202685)
(-9.90436e-06 1.93595e-05 0.0201097)
(-4.3589e-05 1.3954e-05 0.0201091)
(-8.09513e-05 -1.24722e-05 0.02009)
(-0.000121354 -2.03069e-05 0.0200921)
(-2.2968e-05 -6.97811e-06 0.020113)
(-6.32334e-05 -1.3813e-05 0.0201243)
(-9.89147e-05 -2.89072e-05 0.0201299)
(-0.000129328 -2.85823e-05 0.0201424)
(-2.66746e-05 -3.38245e-05 0.0201489)
(-7.00007e-05 -3.84395e-05 0.0201647)
(-0.000101239 -4.52719e-05 0.0201773)
(-0.000121554 -4.2971e-05 0.020189)
(-3.4574e-05 -4.79956e-05 0.020163)
(-7.95529e-05 -4.51922e-05 0.020188)
(-0.000108858 -4.04191e-05 0.0202139)
(-0.000127167 -2.75153e-05 0.0202336)
(-5.35037e-06 -4.52414e-07 0.020158)
(-2.63312e-05 -2.42261e-06 0.0201518)
(-4.69904e-05 -1.38605e-05 0.0201304)
(-6.78989e-05 -1.86712e-05 0.0201071)
(-1.08888e-05 -1.21156e-05 0.020183)
(-3.44572e-05 -1.50144e-05 0.0201831)
(-5.51157e-05 -2.16241e-05 0.020175)
(-7.24747e-05 -2.23459e-05 0.0201619)
(-1.37852e-05 -2.44467e-05 0.0202088)
(-3.78112e-05 -2.62449e-05 0.0202121)
(-5.65222e-05 -2.85284e-05 0.0202099)
(-6.93029e-05 -2.70058e-05 0.0202001)
(-1.71246e-05 -3.35152e-05 0.0202226)
(-4.05496e-05 -3.183e-05 0.0202297)
(-5.80107e-05 -2.82978e-05 0.0202328)
(-7.00031e-05 -2.05218e-05 0.0202273)
(-3.14961e-06 -6.94913e-06 0.0201868)
(-1.56962e-05 -7.67306e-06 0.0201772)
(-2.74633e-05 -1.24479e-05 0.0201531)
(-3.83341e-05 -1.54275e-05 0.0201166)
(-5.59199e-06 -1.28846e-05 0.0202197)
(-1.91324e-05 -1.41471e-05 0.0202141)
(-3.10781e-05 -1.67808e-05 0.0201986)
(-4.07586e-05 -1.73699e-05 0.0201718)
(-7.03669e-06 -1.92397e-05 0.020243)
(-2.04899e-05 -1.97362e-05 0.0202399)
(-3.15948e-05 -2.0239e-05 0.020229)
(-3.91834e-05 -1.89272e-05 0.020207)
(-8.16195e-06 -2.48289e-05 0.0202561)
(-2.09414e-05 -2.35807e-05 0.0202548)
(-3.11243e-05 -2.1154e-05 0.0202468)
(-3.82076e-05 -1.63307e-05 0.0202276)
(-1.91156e-06 -8.32845e-06 0.020204)
(-9.2386e-06 -8.49786e-06 0.0201923)
(-1.61664e-05 -1.03094e-05 0.0201658)
(-2.20101e-05 -1.21479e-05 0.0201224)
(-2.96766e-06 -1.17902e-05 0.0202397)
(-1.06518e-05 -1.22535e-05 0.0202312)
(-1.77424e-05 -1.32646e-05 0.0202113)
(-2.32201e-05 -1.3355e-05 0.0201772)
(-3.54044e-06 -1.53798e-05 0.0202624)
(-1.11701e-05 -1.53434e-05 0.020256)
(-1.77016e-05 -1.52628e-05 0.0202402)
(-2.21359e-05 -1.40125e-05 0.0202112)
(-3.76162e-06 -1.87593e-05 0.0202749)
(-1.08849e-05 -1.7816e-05 0.0202697)
(-1.68065e-05 -1.61674e-05 0.0202558)
(-2.08993e-05 -1.31718e-05 0.0202292)
(-1.12504e-06 -7.737e-06 0.0202146)
(-5.45029e-06 -7.65945e-06 0.0202017)
(-9.5821e-06 -8.30887e-06 0.0201734)
(-1.27978e-05 -9.30784e-06 0.0201263)
(-1.5534e-06 -9.98109e-06 0.0202512)
(-6.02517e-06 -1.00784e-05 0.0202411)
(-1.01848e-05 -1.03475e-05 0.0202186)
(-1.32962e-05 -1.01893e-05 0.0201806)
(-1.72536e-06 -1.21552e-05 0.0202738)
(-6.08321e-06 -1.19565e-05 0.0202656)
(-9.94278e-06 -1.1629e-05 0.0202468)
(-1.25646e-05 -1.06437e-05 0.0202139)
(-1.65604e-06 -1.41705e-05 0.0202857)
(-5.67683e-06 -1.35019e-05 0.0202785)
(-9.10103e-06 -1.24089e-05 0.0202615)
(-1.14508e-05 -1.05035e-05 0.0202308)
(-6.46532e-07 -6.47941e-06 0.0202212)
(-3.22274e-06 -6.3263e-06 0.0202075)
(-5.66983e-06 -6.46389e-06 0.0201781)
(-7.47536e-06 -7.02682e-06 0.0201289)
(-7.97652e-07 -8.01113e-06 0.0202581)
(-3.39403e-06 -7.96494e-06 0.0202471)
(-5.88897e-06 -7.9471e-06 0.0202232)
(-7.66036e-06 -7.70551e-06 0.0201828)
(-8.0908e-07 -9.38418e-06 0.0202804)
(-3.33077e-06 -9.16762e-06 0.0202713)
(-5.58077e-06 -8.85689e-06 0.0202509)
(-7.15312e-06 -8.0701e-06 0.0202157)
(-6.68435e-07 -1.05996e-05 0.020292)
(-2.97381e-06 -1.01342e-05 0.0202837)
(-4.94962e-06 -9.40802e-06 0.0202649)
(-6.3021e-06 -8.21221e-06 0.020232)
(-3.53042e-07 -5.09365e-06 0.0202253)
(-1.88513e-06 -4.93749e-06 0.0202113)
(-3.36942e-06 -4.88231e-06 0.0201812)
(-4.41146e-06 -5.18015e-06 0.0201307)
(-3.90268e-07 -6.15363e-06 0.0202622)
(-1.90918e-06 -6.06529e-06 0.0202508)
(-3.40274e-06 -5.97812e-06 0.020226)
(-4.45936e-06 -5.71954e-06 0.0201843)
(-3.40742e-07 -7.03903e-06 0.0202844)
(-1.82682e-06 -6.85919e-06 0.0202747)
(-3.14799e-06 -6.61894e-06 0.0202534)
(-4.07186e-06 -6.0463e-06 0.0202169)
(-2.07325e-07 -7.79656e-06 0.0202955)
(-1.56039e-06 -7.47861e-06 0.0202867)
(-2.70568e-06 -6.9962e-06 0.020267)
(-3.47888e-06 -6.2301e-06 0.0202328)
(-1.57544e-07 -3.78721e-06 0.020228)
(-1.08048e-06 -3.64855e-06 0.0202138)
(-1.99107e-06 -3.56177e-06 0.0201832)
(-2.5929e-06 -3.69056e-06 0.020132)
(-1.50181e-07 -4.51936e-06 0.0202648)
(-1.06707e-06 -4.43572e-06 0.0202531)
(-1.943e-06 -4.33419e-06 0.0202277)
(-2.57758e-06 -4.10096e-06 0.0201854)
(-9.4004e-08 -5.09402e-06 0.0202867)
(-9.76382e-07 -4.96409e-06 0.0202768)
(-1.7474e-06 -4.77163e-06 0.020255)
(-2.30692e-06 -4.38446e-06 0.0202177)
(1.42433e-08 -5.57229e-06 0.0202975)
(-7.93776e-07 -5.357e-06 0.0202884)
(-1.44712e-06 -5.03821e-06 0.0202683)
(-1.89506e-06 -4.55006e-06 0.0202334)
(-1.41557e-09 -2.63179e-06 0.0202296)
(-5.52611e-07 -2.52435e-06 0.0202153)
(-1.09466e-06 -2.44148e-06 0.0201845)
(-1.43836e-06 -2.48929e-06 0.020133)
(1.66419e-08 -3.12255e-06 0.0202663)
(-5.2477e-07 -3.05582e-06 0.0202545)
(-1.0309e-06 -2.96245e-06 0.0202289)
(-1.40504e-06 -2.78229e-06 0.0201861)
(6.48365e-08 -3.48732e-06 0.0202881)
(-4.48597e-07 -3.39349e-06 0.020278)
(-8.87386e-07 -3.25264e-06 0.0202559)
(-1.22477e-06 -2.99951e-06 0.0202183)
(1.47247e-07 -3.77892e-06 0.0202987)
(-3.24065e-07 -3.63666e-06 0.0202894)
(-6.95895e-07 -3.43083e-06 0.0202691)
(-9.60561e-07 -3.13091e-06 0.0202338)
(1.85485e-07 -1.67267e-06 0.0202306)
(-1.23572e-07 -1.59648e-06 0.0202162)
(-4.23219e-07 -1.53133e-06 0.0201853)
(-6.27144e-07 -1.53765e-06 0.0201335)
(2.05122e-07 -1.97905e-06 0.0202672)
(-9.49171e-08 -1.92845e-06 0.0202553)
(-3.76352e-07 -1.85652e-06 0.0202296)
(-5.95128e-07 -1.74148e-06 0.0201866)
(2.40216e-07 -2.19877e-06 0.0202889)
(-4.0311e-08 -2.13573e-06 0.0202787)
(-2.8468e-07 -2.0429e-06 0.0202565)
(-4.89134e-07 -1.89024e-06 0.0202187)
(2.9382e-07 -2.36498e-06 0.0202993)
(3.70507e-08 -2.28035e-06 0.02029)
(-1.7134e-07 -2.15814e-06 0.0202695)
(-3.35169e-07 -1.98558e-06 0.0202341)
(5.28318e-07 -1.12896e-06 0.0202313)
(3.51447e-07 -1.06766e-06 0.0202169)
(1.6743e-07 -9.99892e-07 0.020186)
(3.86872e-09 -9.46631e-07 0.0201341)
(5.55037e-07 -1.32623e-06 0.0202678)
(3.89291e-07 -1.2787e-06 0.0202559)
(2.17142e-07 -1.21346e-06 0.0202302)
(5.54541e-08 -1.12641e-06 0.0201871)
(5.83771e-07 -1.4702e-06 0.0202894)
(4.34394e-07 -1.42426e-06 0.0202792)
(2.81436e-07 -1.35719e-06 0.020257)
(1.3365e-07 -1.26157e-06 0.020219)
(6.15218e-07 -1.56928e-06 0.0202997)
(4.83974e-07 -1.52227e-06 0.0202904)
(3.51824e-07 -1.45064e-06 0.0202699)
(2.2419e-07 -1.35199e-06 0.0202344)
(0.0018813 -0.00126181 0.0125029)
(-0.00177367 0.000404404 0.0117884)
(-0.000310215 0.000986498 0.00543677)
(0.00342068 -0.000554224 0.0221307)
(-0.000485069 0.000779831 0.0196795)
(0.00079359 -0.00176268 0.0178455)
(-0.00461254 0.00395536 0.0331591)
(-0.000518043 -0.00201923 0.017481)
(-0.00324261 0.000115448 0.025632)
(-0.000976251 -0.0014783 0.0102265)
(0.00368711 -0.00331144 0.0250393)
(-0.00144276 -0.00428449 0.0319537)
(0.00287988 -0.00362179 0.0221544)
(-0.00372312 0.00270938 0.0276173)
(0.000555546 -0.00206676 0.0256994)
(0.000284086 -0.000505337 0.00187171)
(-0.00252255 0.0041559 0.0623223)
(0.000184934 0.000260142 0.0474977)
(0.000739604 -0.00127922 0.0407586)
(0.0025236 7.12425e-05 0.0597544)
(-0.00275641 0.00462505 0.0205683)
(-0.00632677 0.00241908 0.0605377)
(0.000430979 -0.000835727 0.0536469)
(0.00376643 -0.00122263 0.0262869)
(-0.00263215 0.000194248 0.0538458)
(-0.0073675 0.00028302 0.0260515)
(-0.00559518 -0.00215119 0.0547878)
(0.00186727 -0.000336728 0.042373)
(0.000921584 -0.0147328 0.0509224)
(-0.00263075 1.23879e-05 0.00761842)
(-0.00134903 0.00197022 0.0112343)
(0.00175002 0.000922205 0.0456325)
(-0.00399422 0.00586919 0.0300964)
(0.00410883 0.00193557 0.0367055)
(0.0020596 0.000169357 0.0199069)
(0.00133119 -0.00162237 0.0432641)
(-0.00107157 0.00254729 0.0271227)
(-0.00263559 0.00231378 0.0362505)
(0.00119815 0.000944881 0.0156737)
(0.00226058 -0.00697664 0.0507053)
(-0.000112107 0.00270489 0.00977421)
(0.000874182 0.00256936 0.0248215)
(-0.000141653 0.00575909 0.0446946)
(0.00105312 0.00112457 0.0233711)
(-0.0030122 0.00468485 0.0294341)
(0.00813272 0.000578604 0.0520956)
(0.000650463 0.00226077 0.0262364)
(0.00045359 0.00481645 0.0522825)
(-9.14163e-05 -3.57232e-05 0.0300461)
(0.0042339 0.000454239 0.0373733)
(0.00382661 -0.000102481 0.0414237)
(0.000420283 -0.00166887 0.0824662)
(-0.000382032 -0.000800296 0.0172081)
(0.0054518 -0.00254809 0.0512076)
(0.00384976 0.000533958 0.0493679)
(-0.000947597 0.00444735 0.0372922)
(0.0011072 -0.0032139 0.0617342)
(0.0070126 0.00204035 0.0347264)
(0.00611167 0.00424049 0.0413644)
(7.56262e-05 0.00411413 0.0247945)
(-0.00108123 0.00340365 0.0194931)
(0.00330303 0.00270951 0.0258351)
(0.00553757 0.0043805 0.0387619)
(0.00132038 0.00142499 0.0484162)
(-0.000432402 0.00120537 0.026443)
(-8.08159e-05 -0.00148692 0.0389197)
(4.94731e-05 0.00287357 0.0418741)
(-0.000198836 0.0136474 0.0557981)
(-0.00110083 -0.00335169 0.0480021)
(0.000322026 0.00052242 0.0374392)
(0.00286873 0.00592582 0.0302555)
(-0.000776251 0.00420984 0.0162181)
(-0.00119179 -2.04066e-06 0.0415656)
(0.00215277 0.00257418 0.0253956)
(0.00533911 0.00849743 0.0436837)
(0.000723552 0.0154122 0.0484308)
(0.00012376 0.00447443 0.0438605)
(0.00667681 0.00330438 0.058273)
(0.00557355 0.00394122 0.0297313)
(0.00567503 0.00903686 0.0709737)
(-0.000686992 0.000198064 0.0169325)
(-0.00449586 0.00426565 0.0365404)
(0.00036307 0.000384347 0.0145178)
(0.005434 0.00665629 0.0348917)
(0.0013239 0.00303711 0.0403161)
(-0.00253946 0.00398625 0.0234695)
(-0.0023688 0.0045387 0.0311969)
(0.00983746 0.0224921 0.0393294)
(0.00016493 0.00155857 0.0263647)
(-0.00202954 0.00094341 0.0271416)
(-0.000859265 0.00550098 0.0270429)
(-0.00104349 0.00470457 0.0125249)
(0.000302303 -0.0023393 0.0274507)
(-0.000898388 -0.000809442 0.0245883)
(0.00179745 0.00115997 0.0187918)
(-0.00114281 0.000578153 0.0100934)
(0.00101784 -0.00082649 0.0179285)
(0.000370489 -0.000452569 0.016298)
(0.000139203 -0.000838926 0.0165546)
(0.000513768 0.000589479 0.024443)
(0.000197103 -0.00131371 0.0308921)
(0.000144513 -0.000299826 0.0259469)
(-0.000691683 -0.00149909 0.0126071)
(-0.000825545 -0.00161032 0.0102836)
(0.000708957 -0.000477534 0.0248847)
(-0.0002165 -0.000415594 0.0218628)
(-0.00128095 -0.00334927 0.0251339)
(0.00377217 -0.0144085 0.0208769)
(0.000234923 -0.0011721 0.0261844)
(-0.000559742 -0.00115968 0.023666)
(-0.00514037 -0.00282738 0.0197784)
(-0.000672761 -0.000702296 0.00595675)
(0.000653875 -0.000828714 0.0277253)
(0.000280842 -0.000860362 0.0291304)
(-0.000356217 -0.0013087 0.0212608)
(0.000966603 -0.000639243 0.0382382)
(0.000532346 -0.00221091 0.0387767)
(0.000402655 -0.00228881 0.0360368)
(-0.00010327 -0.00273846 0.0104013)
(0.00226967 -0.0027273 0.0339805)
(0.000898544 -0.00312278 0.0359231)
(0.00043338 -0.00325021 0.03253)
(-0.000471414 -0.00354472 0.0312537)
(0.00228473 -0.00483462 0.0464332)
(0.00138494 -0.00426737 0.0373018)
(0.000665343 -0.0043808 0.032181)
(-0.000990198 -0.00397883 0.0315353)
(0.0015288 -0.00312583 0.0629074)
(9.67e-05 -0.000603362 0.0119573)
(0.000295332 -0.000274119 0.0112104)
(-0.00181253 -0.00104306 0.00973552)
(-0.00362172 -0.00238314 0.0136694)
(-0.000606071 -0.000924743 0.0146533)
(0.000809218 -0.000366026 0.013662)
(-0.00129129 -0.00185507 0.0102837)
(-0.00411528 -0.00261713 0.013976)
(-3.01728e-05 -6.57395e-05 0.0158161)
(0.00015414 0.000219099 0.0152099)
(-0.0014345 -0.00183487 0.01356)
(-0.00328891 -0.0017001 0.0158104)
(-0.000712767 0.000928285 0.016383)
(-0.00016901 0.000793334 0.0153216)
(-0.00188734 -0.000271615 0.0144503)
(-0.00266454 -0.000189259 0.0172056)
(0.000254713 -0.00037967 0.0206972)
(0.000459971 -0.00021511 0.0207632)
(-0.000483278 -0.000593031 0.019537)
(-0.00136095 -0.00114541 0.0227183)
(1.14275e-06 -0.000745048 0.0216335)
(0.000650451 -0.000495 0.0215139)
(-0.000182539 -0.00102784 0.01984)
(-0.00140971 -0.00123202 0.0226329)
(0.000120298 -0.000227122 0.021991)
(0.000410039 -4.89878e-05 0.021904)
(-0.000181042 -0.000844393 0.0209288)
(-0.00119314 -0.000837647 0.0227151)
(-9.21568e-05 0.000316214 0.0215292)
(0.000163766 0.000339288 0.0213895)
(-0.000379283 -0.000261049 0.0210106)
(-0.000959012 -0.000426558 0.0224572)
(0.000135609 -8.61132e-05 0.0190313)
(0.00012569 -1.85362e-05 0.0189738)
(-0.000402213 -0.000287555 0.0182845)
(-0.000824349 -0.000537685 0.019444)
(2.82603e-05 -0.00021119 0.0195683)
(0.000149919 -0.000100845 0.0194524)
(-0.000321458 -0.00039459 0.0186767)
(-0.000884348 -0.000427051 0.0196011)
(3.43259e-05 -2.13622e-05 0.0198984)
(6.55939e-05 5.32083e-05 0.0197754)
(-0.000292232 -0.000323507 0.019183)
(-0.000803818 -0.000265456 0.0197056)
(-5.6773e-05 0.000255708 0.0198112)
(-7.32012e-05 0.000253946 0.0196915)
(-0.000363132 -8.0898e-05 0.0193687)
(-0.00071224 -8.46105e-05 0.0197076)
(9.36884e-05 -3.88931e-05 0.0196142)
(8.62904e-05 -2.86522e-06 0.0196551)
(-0.000150316 -0.000140498 0.0193631)
(-0.00037724 -0.000273611 0.0199699)
(4.75944e-05 -8.85518e-05 0.0198462)
(7.39421e-05 -3.52877e-05 0.0198534)
(-0.000127824 -0.00019242 0.0195662)
(-0.000401193 -0.000219608 0.0200502)
(3.14567e-05 8.0575e-06 0.0200233)
(2.7363e-05 4.2564e-05 0.0200127)
(-0.00013181 -0.000142168 0.0197854)
(-0.000389375 -0.000134891 0.020089)
(-1.02842e-05 0.000130306 0.0200067)
(-4.43105e-05 0.00012381 0.0199984)
(-0.00016886 -5.39088e-05 0.0198861)
(-0.000357618 -7.18662e-05 0.0200781)
(4.66874e-05 -1.31877e-05 0.0196871)
(2.46358e-05 2.3778e-06 0.0197087)
(-8.96248e-05 -6.96015e-05 0.0195384)
(-0.000201455 -0.000135696 0.019776)
(2.73967e-05 -3.02817e-05 0.0198739)
(1.25129e-05 -5.47579e-06 0.0198796)
(-8.60335e-05 -8.75692e-05 0.0197237)
(-0.000217249 -0.000100997 0.0198987)
(1.63347e-05 6.04229e-06 0.0200068)
(-9.23279e-06 2.21966e-05 0.0200005)
(-9.15847e-05 -6.84013e-05 0.0198754)
(-0.000213702 -6.54588e-05 0.019974)
(-1.77287e-06 5.00144e-05 0.0200433)
(-4.04566e-05 4.74308e-05 0.0200394)
(-0.000108249 -3.61272e-05 0.0199686)
(-0.000200229 -3.98421e-05 0.0200161)
(2.27617e-05 -5.37207e-06 0.0197375)
(3.43269e-06 7.33764e-07 0.0197509)
(-4.88542e-05 -3.59602e-05 0.0196633)
(-0.000102655 -7.06613e-05 0.0197633)
(1.34678e-05 -1.30027e-05 0.0199005)
(-5.31794e-06 -2.35773e-06 0.0199034)
(-5.09451e-05 -4.51052e-05 0.0198219)
(-0.000111851 -5.51272e-05 0.0198866)
(7.12465e-06 -7.78054e-07 0.0200181)
(-1.60622e-05 5.93638e-06 0.0200131)
(-5.65343e-05 -3.80334e-05 0.0199462)
(-0.000112354 -3.95824e-05 0.0199734)
(-7.1222e-07 1.33498e-05 0.0200801)
(-2.92982e-05 1.16833e-05 0.0200747)
(-6.48878e-05 -2.72892e-05 0.0200321)
(-0.00010716 -2.95102e-05 0.0200328)
(1.0645e-05 -2.90837e-06 0.0197696)
(-4.03652e-06 -1.1039e-06 0.0197715)
(-2.92851e-05 -2.00259e-05 0.0197185)
(-5.48665e-05 -3.84146e-05 0.0197474)
(5.81689e-06 -7.54193e-06 0.019925)
(-9.23508e-06 -3.44264e-06 0.0199202)
(-3.16863e-05 -2.50697e-05 0.0198682)
(-5.98933e-05 -3.13301e-05 0.0198752)
(2.50389e-06 -4.47904e-06 0.0200387)
(-1.44251e-05 -1.97648e-06 0.0200293)
(-3.52981e-05 -2.31452e-05 0.0199838)
(-6.06613e-05 -2.48849e-05 0.0199709)
(-1.10144e-06 -1.02984e-06 0.020112)
(-1.98904e-05 -2.52682e-06 0.0201026)
(-3.93107e-05 -2.0738e-05 0.0200682)
(-5.8183e-05 -2.13965e-05 0.0200414)
(5.06603e-06 -1.89076e-06 0.0197905)
(-5.17731e-06 -1.78089e-06 0.0197847)
(-1.80134e-05 -1.17972e-05 0.0197474)
(-3.03014e-05 -2.19611e-05 0.0197442)
(2.34853e-06 -5.36248e-06 0.0199433)
(-8.15826e-06 -4.14428e-06 0.0199327)
(-1.97534e-05 -1.50724e-05 0.0198929)
(-3.2822e-05 -1.90605e-05 0.0198733)
(5.74378e-07 -5.73512e-06 0.020056)
(-1.06597e-05 -5.10633e-06 0.020043)
(-2.18411e-05 -1.51944e-05 0.0200052)
(-3.32594e-05 -1.66341e-05 0.0199729)
(-1.15167e-06 -6.09968e-06 0.0201341)
(-1.28547e-05 -7.27632e-06 0.0201215)
(-2.36904e-05 -1.57488e-05 0.0200891)
(-3.18121e-05 -1.57958e-05 0.0200483)
(2.49705e-06 -1.35342e-06 0.019804)
(-4.40307e-06 -1.80282e-06 0.0197936)
(-1.1381e-05 -7.27565e-06 0.0197627)
(-1.7403e-05 -1.31067e-05 0.0197441)
(8.64587e-07 -4.15141e-06 0.0199558)
(-6.06627e-06 -4.07559e-06 0.0199416)
(-1.2448e-05 -9.58743e-06 0.0199062)
(-1.85896e-05 -1.21264e-05 0.0198735)
(-1.05384e-07 -5.62e-06 0.0200684)
(-7.23722e-06 -5.68506e-06 0.0200529)
(-1.35203e-05 -1.04495e-05 0.0200173)
(-1.86453e-05 -1.14688e-05 0.0199752)
(-9.70208e-07 -7.13294e-06 0.0201485)
(-8.07056e-06 -7.99743e-06 0.0201339)
(-1.43102e-05 -1.18915e-05 0.0201012)
(-1.76317e-05 -1.1706e-05 0.020053)
(1.29359e-06 -1.01499e-06 0.0198132)
(-3.24528e-06 -1.54006e-06 0.0198002)
(-7.26407e-06 -4.6394e-06 0.0197715)
(-1.03455e-05 -8.12197e-06 0.0197455)
(2.70457e-07 -3.27265e-06 0.0199645)
(-4.16724e-06 -3.54219e-06 0.0199482)
(-7.85648e-06 -6.37166e-06 0.019914)
(-1.0842e-05 -7.98169e-06 0.0198748)
(-2.65433e-07 -4.9005e-06 0.0200771)
(-4.69906e-06 -5.13144e-06 0.0200601)
(-8.3519e-06 -7.41292e-06 0.0200247)
(-1.06803e-05 -8.05288e-06 0.0199775)
(-6.99807e-07 -6.56345e-06 0.020158)
(-4.98196e-06 -7.14578e-06 0.0201422)
(-8.64618e-06 -8.99251e-06 0.0201086)
(-9.88862e-06 -8.65655e-06 0.0200565)
(7.0983e-07 -7.67692e-07 0.0198194)
(-2.24725e-06 -1.20484e-06 0.019805)
(-4.6688e-06 -3.02603e-06 0.0197769)
(-6.3383e-06 -5.18025e-06 0.0197472)
(5.44191e-08 -2.54611e-06 0.0199704)
(-2.75754e-06 -2.84871e-06 0.0199531)
(-4.97457e-06 -4.3491e-06 0.0199188)
(-6.51512e-06 -5.36884e-06 0.0198763)
(-2.40213e-07 -3.99989e-06 0.0200831)
(-2.98337e-06 -4.20929e-06 0.0200652)
(-5.16343e-06 -5.32998e-06 0.0200293)
(-6.27206e-06 -5.67273e-06 0.0199794)
(-4.56302e-07 -5.47296e-06 0.0201642)
(-3.04502e-06 -5.84907e-06 0.0201477)
(-5.21602e-06 -6.74609e-06 0.0201133)
(-5.59038e-06 -6.30299e-06 0.0200591)
(4.20668e-07 -5.72191e-07 0.0198236)
(-1.49891e-06 -8.92194e-07 0.0198086)
(-3.00103e-06 -1.99587e-06 0.0197803)
(-3.95794e-06 -3.3566e-06 0.0197488)
(-2.9901e-09 -1.93047e-06 0.0199745)
(-1.78345e-06 -2.17254e-06 0.0199565)
(-3.14472e-06 -2.99928e-06 0.0199219)
(-3.98204e-06 -3.63886e-06 0.0198777)
(-1.65083e-07 -3.10683e-06 0.0200872)
(-1.86728e-06 -3.25432e-06 0.0200688)
(-3.19151e-06 -3.81807e-06 0.0200324)
(-3.75375e-06 -3.99996e-06 0.019981)
(-2.70785e-07 -4.2927e-06 0.0201683)
(-1.84362e-06 -4.52643e-06 0.0201514)
(-3.14801e-06 -4.95437e-06 0.0201164)
(-3.18795e-06 -4.5399e-06 0.020061)
(2.7956e-07 -4.11534e-07 0.0198264)
(-9.53547e-07 -6.26498e-07 0.0198111)
(-1.89764e-06 -1.30525e-06 0.0197826)
(-2.47266e-06 -2.16825e-06 0.0197501)
(8.15341e-09 -1.40611e-06 0.0199773)
(-1.11305e-06 -1.5749e-06 0.0199589)
(-1.95623e-06 -2.0459e-06 0.019924)
(-2.43778e-06 -2.44014e-06 0.0198789)
(-8.02662e-08 -2.29365e-06 0.0200899)
(-1.13605e-06 -2.38545e-06 0.0200713)
(-1.94386e-06 -2.67495e-06 0.0200345)
(-2.24259e-06 -2.75819e-06 0.0199823)
(-1.3015e-07 -3.18521e-06 0.020171)
(-1.08899e-06 -3.32013e-06 0.0201539)
(-1.87501e-06 -3.52782e-06 0.0201185)
(-1.80661e-06 -3.18859e-06 0.0200623)
(2.33558e-07 -2.77129e-07 0.0198283)
(-5.37214e-07 -4.05195e-07 0.0198128)
(-1.12453e-06 -8.10115e-07 0.0197842)
(-1.48073e-06 -1.34021e-06 0.0197511)
(6.73918e-08 -9.63794e-07 0.0199791)
(-6.21932e-07 -1.06499e-06 0.0199606)
(-1.13821e-06 -1.32844e-06 0.0199254)
(-1.42785e-06 -1.55673e-06 0.0198797)
(2.07154e-08 -1.58516e-06 0.0200917)
(-6.19301e-07 -1.6322e-06 0.0200729)
(-1.10503e-06 -1.77455e-06 0.0200359)
(-1.27786e-06 -1.79781e-06 0.0199832)
(5.83476e-10 -2.20657e-06 0.0201727)
(-5.725e-07 -2.27554e-06 0.0201555)
(-1.03573e-06 -2.37101e-06 0.0201198)
(-9.61871e-07 -2.11149e-06 0.0200633)
(2.82286e-07 -1.66053e-07 0.0198295)
(-1.69877e-07 -2.17713e-07 0.0198139)
(-5.23378e-07 -4.28976e-07 0.0197852)
(-7.54205e-07 -7.25339e-07 0.0197518)
(1.97215e-07 -6.02136e-07 0.0199802)
(-2.01179e-07 -6.41572e-07 0.0199616)
(-5.07491e-07 -7.68588e-07 0.0199263)
(-6.96397e-07 -8.87792e-07 0.0198803)
(1.79689e-07 -9.98373e-07 0.0200928)
(-1.85581e-07 -1.0071e-06 0.0200739)
(-4.67517e-07 -1.05967e-06 0.0200368)
(-5.92193e-07 -1.05543e-06 0.0199838)
(1.772e-07 -1.39347e-06 0.0201738)
(-1.43896e-07 -1.41382e-06 0.0201565)
(-4.04593e-07 -1.44107e-06 0.0201207)
(-3.83632e-07 -1.26438e-06 0.020064)
(4.70139e-07 -8.47316e-08 0.0198303)
(1.84974e-07 -6.75907e-08 0.0198147)
(-6.61407e-08 -1.50155e-07 0.019786)
(-2.4797e-07 -2.96929e-07 0.0197525)
(4.6488e-07 -3.76865e-07 0.019981)
(2.11976e-07 -3.5372e-07 0.0199624)
(-1.36463e-08 -3.90038e-07 0.0199271)
(-1.80875e-07 -4.46984e-07 0.019881)
(4.82808e-07 -6.5854e-07 0.0200936)
(2.57876e-07 -6.24408e-07 0.0200747)
(5.46616e-08 -6.15355e-07 0.0200375)
(-8.76596e-08 -5.97829e-07 0.0199845)
(5.04298e-07 -9.22892e-07 0.0201745)
(3.11098e-07 -8.92827e-07 0.0201572)
(1.29457e-07 -8.60407e-07 0.0201214)
(3.8368e-08 -7.55373e-07 0.0200646)
(0.00117496 -0.00176553 0.0278068)
(0.00227582 -0.00342 0.0277963)
(0.00315712 -0.000277846 0.0148063)
(0.00434807 -0.00121532 0.0294616)
(-0.0037416 -0.000623765 0.0183056)
(0.00311861 -0.00107392 0.0123585)
(0.00044378 -0.00024857 0.000282132)
(-0.000316026 -0.00245087 0.0100809)
(-0.00401815 0.000246186 0.0131026)
(-0.00151972 -0.00250892 0.0167033)
(-0.00271169 -0.00521206 0.0243755)
(-0.00181522 -0.00407328 0.0205672)
(-0.00207203 0.000842688 0.00261832)
(-0.00221277 0.000653467 0.0162686)
(-0.000305209 -0.000346018 0.023448)
(-0.000689572 -0.00147369 0.0291996)
(0.00212833 0.00152593 0.018912)
(0.00551255 -9.32707e-05 0.0311906)
(0.000903714 0.000441187 0.0278233)
(-0.00332826 0.00392021 0.0467245)
(0.000809651 0.00160948 0.0320473)
(-8.3971e-05 0.000535101 0.0445988)
(-0.000554861 -0.00363713 0.0610399)
(0.00125444 0.000515356 0.0651155)
(0.00085529 0.00341878 0.0401105)
(-0.0014297 0.000487423 0.0583841)
(-0.00101748 -0.000444793 0.0387112)
(0.000248003 0.00345752 0.0434114)