/*--------------------------------*- C++ -*----------------------------------*\
| =========                 |                                                 |
| \\      /  F ield         | OpenFOAM: The Open Source CFD Toolbox           |
|  \\    /   O peration     | Version:  2506                                  |
|   \\  /    A nd           | Website:  www.openfoam.com                      |
|    \\/     M anipulation  |                                                 |
\*---------------------------------------------------------------------------*/
FoamFile
{
    version     2.0;
    format      ascii;
    arch        "LSB;label=32;scalar=64";
    class       volVectorField;
    location    "0.1";
    object      Us;
}
// * * * * * * * * * * * * * * * * * * * * * * * * * * * * * * * * * * * * * //

dimensions      [0 1 -1 0 0 0 0];

internalField   nonuniform List<vector> 
1152
(
(-0.000188241 1.17469e-05 9.74487e-05)
(-0.000436751 -0.000174857 -1.73079e-05)
(-0.000913156 0.000617046 -0.000893657)
(-0.000583114 9.88168e-05 -0.000246576)
(0.000305319 0.000259205 -6.8577e-05)
(0.000153368 -0.000269592 -1.70449e-05)
(-8.02252e-05 0.000150263 -0.00013828)
(-0.000398243 0.000645725 -0.00011762)
(-0.000559784 0.000692394 0.000822372)
(-0.000700449 3.45443e-05 -0.000134334)
(-0.000962146 0.000333903 4.48966e-05)
(-0.000882169 0.000682033 -3.32478e-05)
(-0.000671024 0.000356887 -0.000400101)
(-0.00107131 0.000761453 -0.000226949)
(-0.00105923 0.000532428 4.29025e-06)
(-0.000935159 5.92868e-05 0.000333901)
(-0.0026126 0.00314374 0.00415317)
(-0.00282207 0.000840975 0.0105062)
(-0.00140326 0.00253159 0.00674174)
(-0.000153234 0.00177336 0.00362534)
(-0.00183974 0.00368382 0.00739649)
(-0.00244101 0.00259721 0.00703904)
(-0.000613214 0.00371505 0.0108355)
(0.000611793 0.00308231 0.00958284)
(-0.00236868 0.00197472 0.00916235)
(-0.00417162 0.00322326 0.00703213)
(-0.00320832 0.00196906 0.00519173)
(-0.00130592 0.000868656 0.00637658)
(-0.000840106 0.00187947 0.00705927)
(-0.00236697 0.000742346 0.00452663)
(-0.00250182 -3.56343e-05 0.00304425)
(-0.000923342 8.75929e-05 0.00283237)
(-0.000188227 0.00255394 0.0129249)
(-0.000697205 0.00133674 0.0128514)
(-0.000449631 0.0014166 0.0116989)
(2.78447e-05 0.00124331 0.0107798)
(-0.00115236 0.00278221 0.0135525)
(-0.00147587 0.00257295 0.0131402)
(-0.00102637 0.00160483 0.0125845)
(-0.000625296 0.0019775 0.0120661)
(-0.00160726 0.00270016 0.0145176)
(-0.00198666 0.00281759 0.0130406)
(-0.00127656 0.00190996 0.0122931)
(-0.000855648 0.00188804 0.0122038)
(-0.000688508 0.00111581 0.0143121)
(-0.00113157 0.00117778 0.0143557)
(-0.00078976 0.000705555 0.0126372)
(-9.72111e-05 0.000630832 0.0124503)
(2.67811e-05 0.00149585 0.0141516)
(-0.000692482 0.0010489 0.0137784)
(-0.000390807 0.000934183 0.0120842)
(-0.000433533 0.00117858 0.0111611)
(-0.000494912 0.00202486 0.0138692)
(-0.00068757 0.00171162 0.0137467)
(-0.0010747 0.00107754 0.0133563)
(-0.000723212 0.000775585 0.0127719)
(-0.00131829 0.00176911 0.0153993)
(-0.000767307 0.00141228 0.0143792)
(-0.000987155 0.00109264 0.0135171)
(-0.00101103 0.000724802 0.0129807)
(-0.000728409 0.000352191 0.0156354)
(-0.000963749 0.000253922 0.0148562)
(-0.000638141 0.000263603 0.0141988)
(-0.000728865 0.00011627 0.0130195)
(0.00112863 0.000810252 0.014829)
(0.000605198 0.000978633 0.0121791)
(-0.000511752 -0.000286583 0.0128996)
(-6.50606e-05 0.000117303 0.0122156)
(0.000821075 0.00119325 0.0144864)
(2.0861e-05 0.000471659 0.0133819)
(-0.000180181 0.000228992 0.0130933)
(-0.000344737 0.000499851 0.0128834)
(0.000606071 0.000338877 0.0151144)
(-8.43659e-05 0.000191252 0.0146343)
(-0.00027824 0.00037214 0.0135724)
(-0.000175626 0.000458635 0.0127263)
(0.000389298 0.000530711 0.01529)
(0.000140844 0.000367149 0.0148533)
(0.000330653 0.000552365 0.014011)
(0.000162073 0.000165551 0.0129706)
(0.000106315 0.000632915 0.0131776)
(-0.000446438 9.13539e-05 0.0113054)
(-0.000697791 0.000165299 0.011974)
(-3.28819e-05 0.000432866 0.011867)
(-0.000174766 5.88706e-05 0.0133513)
(-3.69804e-05 6.52955e-05 0.0119538)
(0.000235883 2.72419e-05 0.0122255)
(-6.1518e-05 0.000327433 0.0115814)
(0.000805084 0.000242248 0.0139694)
(0.000396332 0.0003517 0.0134876)
(0.000253377 0.000297814 0.0129534)
(0.000228289 0.000143191 0.0123479)
(0.000343842 0.00053242 0.013728)
(0.000679146 0.000753828 0.0139712)
(0.00043085 0.000421753 0.0135339)
(8.43937e-05 0.000414252 0.0126381)
(0.00113313 0.000250388 0.0114416)
(-0.000276955 -0.000715328 0.0118449)
(-0.000934661 -0.000760449 0.0110392)
(-0.0008868 2.7043e-05 0.0117442)
(-0.000195295 0.00115648 0.0123014)
(-0.00026817 0.000567131 0.0114056)
(9.20665e-05 -0.000238548 0.0117355)
(-0.000454626 0.000539579 0.0119779)
(8.81472e-05 0.00100736 0.0125166)
(0.000693408 0.000508551 0.0117458)
(0.000958118 0.000175087 0.0122238)
(0.000471411 1.87323e-05 0.0122027)
(0.000660559 0.000924909 0.0122888)
(0.000443958 0.000809058 0.0125443)
(0.000829086 0.000852145 0.012683)
(0.000295117 0.000610795 0.0125028)
(0 0 0)
(0 0 0)
(0 0 0)
(0 0 0)
(0 0 0)
(0 0 0)
(0 0 0)
(0 0 0)
(0 0 0)
(0 0 0)
(0 0 0)
(0 0 0)
(0.0013299 0.000985628 0.0115959)
(0.0013299 0.000985628 0.0115959)
(0 0 0)
(0 0 0)
(0 0 0)
(0 0 0)
(0 0 0)
(0 0 0)
(0 0 0)
(0 0 0)
(0 0 0)
(0 0 0)
(0 0 0)
(0 0 0)
(0 0 0)
(0 0 0)
(0 0 0)
(0 0 0)
(0 0 0)
(0 0 0)
(0 0 0)
(0 0 0)
(0 0 0)
(0 0 0)
(0 0 0)
(0 0 0)
(0 0 0)
(0 0 0)
(0 0 0)
(0 0 0)
(0 0 0)
(0 0 0)
(0 0 0)
(0 0 0)
(0 0 0)
(0 0 0)
(0 0 0)
(0 0 0)
(0 0 0)
(0 0 0)
(0 0 0)
(0 0 0)
(0 0 0)
(0 0 0)
(0 0 0)
(0 0 0)
(0 0 0)
(0 0 0)
(0 0 0)
(0 0 0)
(0 0 0)
(0 0 0)
(0 0 0)
(0 0 0)
(0 0 0)
(0 0 0)
(0 0 0)
(0 0 0)
(0 0 0)
(0 0 0)
(0 0 0)
(0 0 0)
(0 0 0)
(0 0 0)
(0 0 0)
(0 0 0)
(0 0 0)
(0 0 0)
(0 0 0)
(0 0 0)
(0 0 0)
(0 0 0)
(0 0 0)
(0 0 0)
(0 0 0)
(0 0 0)
(0 0 0)
(0 0 0)
(0 0 0)
(0 0 0)
(0 0 0)
(0 0 0)
(0 0 0)
(0 0 0)
(0 0 0)
(0 0 0)
(0 0 0)
(0 0 0)
(0 0 0)
(0 0 0)
(0 0 0)
(0 0 0)
(0 0 0)
(0 0 0)
(0 0 0)
(0 0 0)
(0 0 0)
(0 0 0)
(0 0 0)
(0 0 0)
(0 0 0)
(0 0 0)
(0 0 0)
(0 0 0)
(0 0 0)
(0 0 0)
(0 0 0)
(0 0 0)
(0 0 0)
(0 0 0)
(0 0 0)
(0 0 0)
(0 0 0)
(0 0 0)
(0 0 0)
(0 0 0)
(0 0 0)
(0 0 0)
(0 0 0)
(0 0 0)
(0 0 0)
(0 0 0)
(0 0 0)
(0 0 0)
(0 0 0)
(0 0 0)
(0 0 0)
(0 0 0)
(0 0 0)
(0 0 0)
(0 0 0)
(0 0 0)
(0 0 0)
(0 0 0)
(0 0 0)
(0 0 0)
(0 0 0)
(0 0 0)
(0 0 0)
(0 0 0)
(0 0 0)
(0 0 0)
(0 0 0)
(0 0 0)
(0 0 0)
(0 0 0)
(0 0 0)
(0 0 0)
(0 0 0)
(0 0 0)
(0 0 0)
(0 0 0)
(0 0 0)
(0 0 0)
(0 0 0)
(0 0 0)
(0 0 0)
(0 0 0)
(0 0 0)
(0 0 0)
(0 0 0)
(0 0 0)
(0 0 0)
(0 0 0)
(0 0 0)
(0 0 0)
(0 0 0)
(0 0 0)
(0 0 0)
(0 0 0)
(0 0 0)
(0 0 0)
(0 0 0)
(0 0 0)
(0 0 0)
(0 0 0)
(0 0 0)
(0 0 0)
(0 0 0)
(0 0 0)
(0 0 0)
(0 0 0)
(0 0 0)
(0 0 0)
(0 0 0)
(0 0 0)
(0 0 0)
(0 0 0)
(0 0 0)
(0 0 0)
(0 0 0)
(0 0 0)
(0 0 0)
(0 0 0)
(0 0 0)
(0 0 0)
(0 0 0)
(0 0 0)
(0 0 0)
(0 0 0)
(0 0 0)
(0 0 0)
(0 0 0)
(0 0 0)
(0 0 0)
(0 0 0)
(0 0 0)
(0 0 0)
(0 0 0)
(0 0 0)
(0 0 0)
(0 0 0)
(0 0 0)
(0 0 0)
(0 0 0)
(0 0 0)
(0 0 0)
(0 0 0)
(0 0 0)
(0 0 0)
(0 0 0)
(0 0 0)
(0 0 0)
(0 0 0)
(0 0 0)
(0 0 0)
(0 0 0)
(0 0 0)
(0 0 0)
(0 0 0)
(0 0 0)
(0 0 0)
(0 0 0)
(0 0 0)
(0 0 0)
(0 0 0)
(0 0 0)
(0 0 0)
(0 0 0)
(0 0 0)
(0 0 0)
(0 0 0)
(0 0 0)
(0 0 0)
(0 0 0)
(0 0 0)
(0 0 0)
(0 0 0)
(0 0 0)
(0 0 0)
(0 0 0)
(0 0 0)
(0 0 0)
(0 0 0)
(0 0 0)
(0 0 0)
(0 0 0)
(0 0 0)
(0 0 0)
(0 0 0)
(0.000390386 0.000187172 -0.000293173)
(5.41264e-05 -2.33225e-05 -0.000395887)
(-3.95092e-05 1.14676e-05 -1.92403e-05)
(0.000104768 -4.36505e-05 8.21952e-05)
(-0.000270221 -3.66537e-05 -0.000288359)
(-2.05528e-05 0.000122098 -0.000174683)
(-0.000120104 -0.000162777 -5.6625e-05)
(-0.000134492 -0.000379202 -0.000134366)
(-0.000440325 -0.000324382 -0.000241323)
(-0.0001314 -0.000177882 -4.57602e-05)
(0.000187637 -0.000198972 0.000111174)
(0.0001068 -0.000363845 -5.34141e-05)
(-0.000139504 -0.00033566 -0.000121347)
(-0.000548414 -0.000143071 -0.000250047)
(-0.000137096 -0.000139871 -0.000601697)
(0.000280997 -0.000224986 -0.000174128)
(-0.00272019 0.00149701 0.00523766)
(0.000947589 0.000643673 0.0083205)
(0.000427659 0.000183368 0.00695572)
(0.00252292 0.000504257 0.00959097)
(-0.00238121 0.0010178 0.00606873)
(-0.00142096 0.00099005 0.00960799)
(0.000313953 0.000884887 0.00850465)
(0.00152726 -0.0006367 0.0029087)
(-0.00116476 0.00129477 0.00687666)
(-0.00190176 0.000848792 0.00568982)
(-0.000822846 0.000248013 0.0080306)
(0.000676229 0.000850809 0.00789223)
(-0.000871057 0.00097839 0.00775265)
(-0.00205127 0.000611784 0.00204847)
(-0.000798157 0.00207091 0.00213672)
(0.00111261 0.00081276 0.00667003)
(-0.00185826 0.00229552 0.00917566)
(0.00189622 0.00112523 0.00978327)
(0.000656324 0.000453922 0.00866495)
(0.000226288 0.000407969 0.00834423)
(-0.00151701 0.00191405 0.0110161)
(-0.000487321 0.00151678 0.0106709)
(0.000573113 0.000991403 0.00930011)
(0.000428497 0.000935537 0.00926589)
(-0.000152792 0.00281798 0.00950001)
(0.000257552 0.0019122 0.0098736)
(-2.62803e-05 0.00202436 0.00968154)
(0.000154458 0.00139072 0.0105329)
(-0.0010204 0.00384019 0.0125495)
(0.000708604 0.00198819 0.0117871)
(5.54832e-05 0.00198881 0.0105167)
(-0.000376385 0.00161317 0.0101003)
(0.000169063 -0.000158679 0.0087756)
(0.000843941 0.000353831 0.00909171)
(0.000838121 0.000321877 0.00836509)
(-0.000236336 0.00080059 0.00947262)
(-0.000515681 0.000918018 0.0111086)
(0.000389639 8.9382e-05 0.0104639)
(-0.000194272 0.00152307 0.00876076)
(-0.000137344 0.00133456 0.0100915)
(-0.00010847 0.00256863 0.0111043)
(-0.00162929 0.000501051 0.0102021)
(-0.000526705 0.00105656 0.0097916)
(6.67014e-06 0.00156943 0.00960856)
(-0.00104879 0.00171503 0.0136425)
(-0.000325288 0.000459658 0.0117636)
(0.000175261 0.000786599 0.0111468)
(-0.000600198 0.00163365 0.00970963)
(-0.00110965 0.000667205 0.00807355)
(-0.00121197 0.000194706 0.00754626)
(-1.23288e-05 0.000528263 0.00709586)
(-0.000327271 0.00148969 0.0097289)
(-0.00156325 0.0015949 0.00996231)
(-0.000762938 0.00117322 0.00885174)
(9.49785e-05 0.00131603 0.00762527)
(-0.00065345 0.00178982 0.00987286)
(-0.000971564 0.000812364 0.0114041)
(-0.000874058 0.00143814 0.0102595)
(-0.00145451 0.00116726 0.0086848)
(1.37449e-06 0.000919645 0.00902448)
(-0.000299071 0.000878332 0.0128881)
(-0.000380462 0.00110273 0.0116608)
(-0.00124794 0.000681221 0.0108874)
(-0.000348151 0.000476468 0.010009)
(-0.00104295 0.00060544 0.00668785)
(-0.000167711 0.000225221 0.00449782)
(-0.000108841 -0.000308831 0.00583167)
(0.000366047 0.00126017 0.00730904)
(-0.000980152 0.000643677 0.00941918)
(-0.00107124 0.00124681 0.00806315)
(-0.000998688 0.000366397 0.00775153)
(-0.00115378 0.00112749 0.00844609)
(-0.000195381 0.000155733 0.0111549)
(-0.000814369 0.00105681 0.0105476)
(-0.000912419 0.000620006 0.00892995)
(-0.000978012 0.000887602 0.00847144)
(-0.000500527 -0.000522475 0.0122707)
(-0.000595137 -5.41558e-05 0.0112203)
(-0.000976174 -0.000118035 0.0108713)
(-0.00116506 0.000568446 0.00996659)
(0.000808301 -0.000522422 0.00629809)
(0.000370505 -0.000330771 0.00421722)
(0.000331736 -0.00113078 0.0047041)
(0.000676361 0.000799234 0.00438462)
(0.00101802 -0.000928034 0.00908574)
(-0.000716409 -0.000522411 0.00590775)
(-0.000744913 -0.00128953 0.00787484)
(-0.000564806 -0.000331768 0.00605345)
(0.000254573 -0.000437938 0.0115171)
(0.000149064 -0.000313024 0.0100771)
(-0.00037377 -0.000798317 0.00953638)
(-0.000379109 -0.000372139 0.00911521)
(0.000233426 -8.98766e-05 0.0115827)
(-0.00016816 -0.000468556 0.0105084)
(-0.000270865 -0.000562085 0.0100873)
(-0.000832319 -0.000210357 0.010134)
(0 0 0)
(0 0 0)
(0 0 0)
(0 0 0)
(0 0 0)
(0 0 0)
(0 0 0)
(0 0 0)
(0 0 0)
(0 0 0)
(0 0 0)
(0 0 0)
(0 0 0)
(0 0 0)
(0 0 0)
(0 0 0)
(0 0 0)
(0 0 0)
(0 0 0)
(0 0 0)
(0 0 0)
(0 0 0)
(0 0 0)
(0 0 0)
(0 0 0)
(0 0 0)
(0 0 0)
(0 0 0)
(0 0 0)
(0 0 0)
(0 0 0)
(0 0 0)
(0 0 0)
(0 0 0)
(0 0 0)
(0 0 0)
(0 0 0)
(0 0 0)
(0 0 0)
(0 0 0)
(0 0 0)
(0 0 0)
(0 0 0)
(0 0 0)
(0 0 0)
(0 0 0)
(0 0 0)
(0 0 0)
(0 0 0)
(0 0 0)
(0 0 0)
(0 0 0)
(0 0 0)
(0 0 0)
(0 0 0)
(0 0 0)
(0 0 0)
(0 0 0)
(0 0 0)
(0 0 0)
(0 0 0)
(0 0 0)
(0 0 0)
(0 0 0)
(0 0 0)
(0 0 0)
(0 0 0)
(0 0 0)
(0 0 0)
(0 0 0)
(0 0 0)
(0 0 0)
(0 0 0)
(0 0 0)
(0 0 0)
(0 0 0)
(0 0 0)
(0 0 0)
(0 0 0)
(0 0 0)
(0 0 0)
(0 0 0)
(0 0 0)
(0 0 0)
(0 0 0)
(0 0 0)
(0 0 0)
(0 0 0)
(0 0 0)
(0 0 0)
(0 0 0)
(0 0 0)
(0 0 0)
(0 0 0)
(0 0 0)
(0 0 0)
(0 0 0)
(0 0 0)
(0 0 0)
(0 0 0)
(0 0 0)
(0 0 0)
(0 0 0)
(0 0 0)
(0 0 0)
(0 0 0)
(0 0 0)
(0 0 0)
(0 0 0)
(0 0 0)
(0 0 0)
(0 0 0)
(0 0 0)
(0 0 0)
(0 0 0)
(0 0 0)
(0 0 0)
(0 0 0)
(0 0 0)
(0 0 0)
(0 0 0)
(0 0 0)
(0 0 0)
(0 0 0)
(0 0 0)
(0 0 0)
(0 0 0)
(0 0 0)
(0 0 0)
(0 0 0)
(0 0 0)
(0 0 0)
(0 0 0)
(0 0 0)
(0 0 0)
(0 0 0)
(0 0 0)
(0 0 0)
(0 0 0)
(0 0 0)
(0 0 0)
(0 0 0)
(0 0 0)
(0 0 0)
(0 0 0)
(0 0 0)
(0 0 0)
(0 0 0)
(0 0 0)
(0 0 0)
(0 0 0)
(0 0 0)
(0 0 0)
(0 0 0)
(0 0 0)
(0 0 0)
(0 0 0)
(0 0 0)
(0 0 0)
(0 0 0)
(0 0 0)
(0 0 0)
(0 0 0)
(0 0 0)
(0 0 0)
(0 0 0)
(0 0 0)
(0 0 0)
(0 0 0)
(0 0 0)
(0 0 0)
(0 0 0)
(0 0 0)
(0 0 0)
(0 0 0)
(0 0 0)
(0 0 0)
(0 0 0)
(0 0 0)
(0 0 0)
(0 0 0)
(0 0 0)
(0 0 0)
(0 0 0)
(0 0 0)
(0 0 0)
(0 0 0)
(0 0 0)
(0 0 0)
(0 0 0)
(0 0 0)
(0 0 0)
(0 0 0)
(0 0 0)
(0 0 0)
(0 0 0)
(0 0 0)
(0 0 0)
(0 0 0)
(0 0 0)
(0 0 0)
(0 0 0)
(0 0 0)
(0 0 0)
(0 0 0)
(0 0 0)
(0 0 0)
(0 0 0)
(0 0 0)
(0 0 0)
(0 0 0)
(0 0 0)
(0 0 0)
(0 0 0)
(0 0 0)
(0 0 0)
(0 0 0)
(0 0 0)
(0 0 0)
(0 0 0)
(0 0 0)
(0 0 0)
(0 0 0)
(0 0 0)
(0 0 0)
(0 0 0)
(0 0 0)
(0 0 0)
(0 0 0)
(0 0 0)
(0 0 0)
(0 0 0)
(0 0 0)
(0 0 0)
(0 0 0)
(0 0 0)
(0 0 0)
(0 0 0)
(0 0 0)
(0 0 0)
(0 0 0)
(0 0 0)
(0 0 0)
(0 0 0)
(0 0 0)
(0 0 0)
(0 0 0)
(0 0 0)
(0 0 0)
(0 0 0)
(0 0 0)
(0 0 0)
(0 0 0)
(0 0 0)
(0 0 0)
(0 0 0)
(0 0 0)
(0 0 0)
(0 0 0)
(0 0 0)
(0 0 0)
(0 0 0)
(0 0 0)
(0 0 0)
(0 0 0)
(0 0 0)
(0 0 0)
(0 0 0)
(0 0 0)
(0 0 0)
(0 0 0)
(0 0 0)
(0.000414394 -0.000342367 -5.61019e-06)
(0.00136227 -0.000652521 -0.000249352)
(0.000551694 -8.90722e-05 0.000244965)
(-6.22884e-05 0.000274453 -7.01735e-05)
(-0.000606051 0.000409988 -0.000520372)
(0.000592859 0.000754021 -0.00086851)
(0.000303569 -0.000119774 -0.000383059)
(0.000158984 -0.000389913 -0.000370054)
(-0.00144852 0.00031132 -1.31147e-05)
(-0.000874395 -0.000341039 0.000124785)
(-0.000131178 -0.000182989 -5.0381e-05)
(3.37863e-05 0.000365475 6.6424e-05)
(-0.000912968 0.000241034 -4.1113e-05)
(-0.00031136 -0.000227394 -0.000256843)
(0.000172077 -5.71029e-05 0.000206815)
(0.000366506 -0.000124563 0.000710558)
(0.00111701 0.00131562 0.00219067)
(0.000848261 0.000971474 0.00373657)
(0.000628446 0.000534625 0.00577137)
(0.000651938 0.0014685 0.00812513)
(-3.71368e-05 0.000907357 0.00645118)
(-0.000433462 0.000878362 0.00798623)
(0.000144058 1.06819e-05 0.00742061)
(0.00123126 0.0015549 0.00976515)
(0.000774563 0.00214442 0.00781905)
(-0.000232442 0.000943444 0.00829493)
(-0.000563208 0.00020788 0.00812086)
(0.000374171 0.0021849 0.008751)
(0.000688759 -8.25267e-05 0.00487092)
(0.00060441 -0.000250621 0.00561229)
(0.000105359 0.000883393 0.00941556)
(0.000282684 0.001037 0.00877689)
(-0.000422097 0.000716803 0.0115742)
(-0.000226878 0.00118976 0.00969443)
(-0.000178472 0.00081563 0.00877579)
(0.000655885 -1.71067e-05 0.0094642)
(-0.000959867 0.000510835 0.0109608)
(-0.000867042 0.00136441 0.0106139)
(-0.000615725 0.00130916 0.0111581)
(0.000528718 0.00167444 0.0142318)
(-0.00120315 0.00107391 0.0112541)
(-0.000655536 0.00234754 0.0109281)
(-0.000532769 0.00115608 0.0111286)
(-6.95227e-05 0.000959805 0.0099625)
(-0.000484854 0.000279612 0.0113211)
(-0.000510641 0.00122934 0.0102816)
(-0.000330601 0.000818082 0.0105741)
(-0.000542397 0.000650011 0.0113071)
(-0.000522566 0.000755368 0.0113332)
(0.000240331 0.000645872 0.00961099)
(0.000311137 0.000328126 0.00860804)
(-0.00109872 -0.000626454 0.0134085)
(-0.000724667 0.000637454 0.0117979)
(-0.000488078 0.000976104 0.0106701)
(0.000284908 0.000639691 0.010277)
(0.00122041 0.000258353 0.0123923)
(-0.000705198 -0.00019599 0.0123319)
(-0.000415743 0.000971157 0.0115156)
(-0.000345412 0.00129453 0.0104272)
(0.000600811 0.00122152 0.0121373)
(-0.000903917 -0.000209902 0.0124422)
(-0.00114721 0.000317893 0.0115318)
(-0.00147797 2.01167e-06 0.0106919)
(-0.00109056 -0.000430066 0.0094812)
(5.46116e-05 1.00178e-05 0.0110084)
(0.000477564 0.000204908 0.00909404)
(0.000133944 0.00066332 0.00802161)
(0.000501019 7.18082e-05 0.00922717)
(0.000135493 0.000445597 0.0118123)
(6.26354e-06 0.000926341 0.0106044)
(-0.000396742 0.00146329 0.00857377)
(0.000311485 0.00107624 0.00855331)
(0.000516553 0.000163279 0.0124981)
(0.000321322 0.000245009 0.0123342)
(-0.000163346 0.00163312 0.0104202)
(-3.26033e-05 0.00208379 0.0105633)
(-0.000409251 -5.63893e-05 0.0126405)
(-0.00099934 -0.000958893 0.0124827)
(-0.000275005 0.000118566 0.0116073)
(-0.000268516 0.00169599 0.0141508)
(-0.000756915 0.000563751 0.0105987)
(-0.000560247 0.000171413 0.00885821)
(-0.000297032 0.00107073 0.00785982)
(-0.000492179 0.00167858 0.0074731)
(-1.88775e-05 -0.000603962 0.0114878)
(0.000154045 -0.00027314 0.0111423)
(0.000685906 0.000229082 0.00907103)
(0.000493712 0.000474161 0.00567308)
(8.83121e-05 -0.000132818 0.0119828)
(0.000119493 -0.000107544 0.0118207)
(0.000230593 0.0004553 0.0105626)
(-4.57735e-05 0.000803115 0.00840779)
(-8.23659e-05 0.000450861 0.012596)
(-0.000545772 -9.50131e-05 0.0122497)
(-0.000567429 0.000588219 0.0116701)
(-0.000912528 0.000689259 0.00977744)
(-0.000530194 0.000923884 0.0103813)
(-0.00104414 0.000324284 0.00923194)
(-0.00118257 0.000832564 0.00685102)
(-0.000209788 7.14167e-07 0.00449162)
(-0.00120492 0.000465004 0.0113152)
(-0.000978915 -0.00132565 0.0103819)
(-0.00107588 -0.000593134 0.00960917)
(-0.000518844 0.000793642 0.00666617)
(-0.000145778 0.00030008 0.0104848)
(-0.000404957 -0.000748104 0.0110667)
(0.00120575 -0.000585927 0.0103365)
(0.000819699 0.000670579 0.00661132)
(0.000145994 0.000393807 0.0119591)
(-0.000229814 0.000338644 0.0120668)
(-0.000576603 0.000254953 0.0118088)
(0.00125062 -0.000410186 0.00831399)
(0 0 0)
(0 0 0)
(0 0 0)
(0 0 0)
(0 0 0)
(0 0 0)
(0 0 0)
(0 0 0)
(0 0 0)
(0 0 0)
(0 0 0)
(0 0 0)
(0 0 0)
(0 0 0)
(0 0 0)
(0 0 0)
(0 0 0)
(0 0 0)
(0 0 0)
(0 0 0)
(0 0 0)
(0 0 0)
(0 0 0)
(0 0 0)
(0 0 0)
(0 0 0)
(0 0 0)
(0 0 0)
(0 0 0)
(0 0 0)
(0 0 0)
(0 0 0)
(0 0 0)
(0 0 0)
(0 0 0)
(0 0 0)
(0 0 0)
(0 0 0)
(0 0 0)
(0 0 0)
(0 0 0)
(0 0 0)
(0 0 0)
(0 0 0)
(0 0 0)
(0 0 0)
(0 0 0)
(0 0 0)
(0 0 0)
(0 0 0)
(0 0 0)
(0 0 0)
(0 0 0)
(0 0 0)
(0 0 0)
(0 0 0)
(0 0 0)
(0 0 0)
(0 0 0)
(0 0 0)
(0 0 0)
(0 0 0)
(0 0 0)
(0 0 0)
(0 0 0)
(0 0 0)
(0 0 0)
(0 0 0)
(0 0 0)
(0 0 0)
(0 0 0)
(0 0 0)
(0 0 0)
(0 0 0)
(0 0 0)
(0 0 0)
(0 0 0)
(0 0 0)
(0 0 0)
(0 0 0)
(0 0 0)
(0 0 0)
(0 0 0)
(0 0 0)
(0 0 0)
(0 0 0)
(0 0 0)
(0 0 0)
(0 0 0)
(0 0 0)
(0 0 0)
(0 0 0)
(0 0 0)
(0 0 0)
(0 0 0)
(0 0 0)
(0 0 0)
(0 0 0)
(0 0 0)
(0 0 0)
(0 0 0)
(0 0 0)
(0 0 0)
(0 0 0)
(0 0 0)
(0 0 0)
(0 0 0)
(0 0 0)
(0 0 0)
(0 0 0)
(0 0 0)
(0 0 0)
(0 0 0)
(0 0 0)
(0 0 0)
(0 0 0)
(0 0 0)
(0 0 0)
(0 0 0)
(0 0 0)
(0 0 0)
(0 0 0)
(0 0 0)
(0 0 0)
(0 0 0)
(0 0 0)
(0 0 0)
(0 0 0)
(0 0 0)
(0 0 0)
(0 0 0)
(0 0 0)
(0 0 0)
(0 0 0)
(0 0 0)
(0 0 0)
(0 0 0)
(0 0 0)
(0 0 0)
(0 0 0)
(0 0 0)
(0 0 0)
(0 0 0)
(0 0 0)
(0 0 0)
(0 0 0)
(0 0 0)
(0 0 0)
(0 0 0)
(0 0 0)
(0 0 0)
(0 0 0)
(0 0 0)
(0 0 0)
(0 0 0)
(0 0 0)
(0 0 0)
(0 0 0)
(0 0 0)
(0 0 0)
(0 0 0)
(0 0 0)
(0 0 0)
(0 0 0)
(0 0 0)
(0 0 0)
(0 0 0)
(0 0 0)
(0 0 0)
(0 0 0)
(0 0 0)
(0 0 0)
(0 0 0)
(0 0 0)
(0 0 0)
(0 0 0)
(0 0 0)
(0 0 0)
(0 0 0)
(0 0 0)
(0 0 0)
(0 0 0)
(0 0 0)
(0 0 0)
(0 0 0)
(0 0 0)
(0 0 0)
(0 0 0)
(0 0 0)
(0 0 0)
(0 0 0)
(0 0 0)
(0 0 0)
(0 0 0)
(0 0 0)
(0 0 0)
(0 0 0)
(0 0 0)
(0 0 0)
(0 0 0)
(0 0 0)
(0 0 0)
(0 0 0)
(0 0 0)
(0 0 0)
(0 0 0)
(0 0 0)
(0 0 0)
(0 0 0)
(0 0 0)
(0 0 0)
(0 0 0)
(0 0 0)
(0 0 0)
(0 0 0)
(0 0 0)
(0 0 0)
(0 0 0)
(0 0 0)
(0 0 0)
(0 0 0)
(0 0 0)
(0 0 0)
(0 0 0)
(0 0 0)
(0 0 0)
(0 0 0)
(0 0 0)
(0 0 0)
(0 0 0)
(0 0 0)
(0 0 0)
(0 0 0)
(0 0 0)
(0 0 0)
(0 0 0)
(0 0 0)
(0 0 0)
(0 0 0)
(0 0 0)
(0 0 0)
(0 0 0)
(0 0 0)
(0 0 0)
(0 0 0)
(0 0 0)
(0 0 0)
(0 0 0)
(0 0 0)
(0 0 0)
(0 0 0)
(0 0 0)
(0 0 0)
(0 0 0)
(0 0 0)
(0 0 0)
(0 0 0)
(0 0 0)
(0 0 0)
(0 0 0)
(0 0 0)
(0 0 0)
(0 0 0)
(0 0 0)
(0 0 0)
(0 0 0)
(0 0 0)
(0 0 0)
(0 0 0)
(0 0 0)
(0 0 0)
(0 0 0)
)
;

boundaryField
{
    inlet
    {
        type            zeroGradient;
    }
    outlet
    {
        type            zeroGradient;
    }
    wall
    {
        type            zeroGradient;
    }
    procBoundary1to0
    {
        type            processor;
        value           nonuniform List<vector> 
192
(
(-7.57597e-05 0.000650315 -0.000516019)
(0.00035954 0.000607829 -0.000109069)
(-0.000525324 0.000243904 0.000452731)
(0.000269461 -4.82657e-05 0.000394131)
(0.000639636 0.00434739 0.00542463)
(0.00167342 0.00423781 0.00884356)
(0.000881425 0.00197286 0.0127225)
(-0.000340231 -7.67499e-05 0.0115114)
(0.000580995 0.00357518 0.0115673)
(-0.000395695 0.00278163 0.0137611)
(-0.000387014 0.00242717 0.0149776)
(-0.00129574 0.000773565 0.0149868)
(0.000532287 0.00207505 0.0143045)
(-0.000456633 0.00184413 0.0155833)
(-0.000948183 0.00121553 0.0160624)
(-0.000856579 0.000337305 0.0159415)
(0.000486796 0.00123875 0.0139267)
(4.99297e-05 0.00132462 0.0146164)
(-0.000625286 0.00108672 0.0165283)
(-0.00107914 0.000223678 0.0155277)
(0.000620959 0.00046574 0.013442)
(-0.000216466 0.000579335 0.0131719)
(0.00016894 0.000445487 0.0141542)
(-0.000287409 0.00044273 0.013958)
(0.000916352 -9.51685e-05 0.0123495)
(-0.000312928 0.000279965 0.0123053)
(0.000243284 0.000417078 0.012329)
(0.000740905 0.00210653 0.012667)
(0 0 0)
(-0.000213065 0.00154365 0.0121945)
(0 0 0)
(-0.000250305 0.00171244 0.0127099)
(0 0 0)
(0 0 0)
(0 0 0)
(0 0 0)
(0 0 0)
(0 0 0)
(0 0 0)
(0 0 0)
(0 0 0)
(0 0 0)
(0 0 0)
(0 0 0)
(0 0 0)
(0 0 0)
(0 0 0)
(0 0 0)
(0 0 0)
(0 0 0)
(0 0 0)
(0 0 0)
(0 0 0)
(0 0 0)
(0 0 0)
(0 0 0)
(0 0 0)
(0 0 0)
(0 0 0)
(0 0 0)
(0 0 0)
(0 0 0)
(0 0 0)
(0 0 0)
(0 0 0)
(0 0 0)
(0 0 0)
(0 0 0)
(0 0 0)
(0 0 0)
(0 0 0)
(0 0 0)
(0 0 0)
(0 0 0)
(0 0 0)
(0 0 0)
(0 0 0)
(0 0 0)
(0 0 0)
(0 0 0)
(0 0 0)
(0 0 0)
(0 0 0)
(0 0 0)
(0 0 0)
(0 0 0)
(0 0 0)
(0 0 0)
(0 0 0)
(0 0 0)
(0 0 0)
(0 0 0)
(0 0 0)
(0 0 0)
(0 0 0)
(0 0 0)
(0.000233981 9.70038e-05 -0.000234958)
(-8.91529e-05 3.93773e-05 -0.000216836)
(0.000452016 7.5328e-05 -0.000408587)
(1.45739e-05 -0.00024776 -0.000561776)
(-0.00162368 -8.24176e-05 0.00616508)
(-0.00112497 -0.000804653 0.00929425)
(0.000260833 0.00102622 0.00305263)
(9.52604e-05 0.00264706 0.00491888)
(-0.00371424 -0.000464359 0.0116879)
(-0.0022245 -0.000170588 0.0130205)
(-0.00037059 0.00289254 0.012998)
(0.00042577 0.00418044 0.0109535)
(0.00113962 0.000115825 0.0120449)
(-0.000427682 0.00143445 0.0119801)
(0.000468751 0.00172443 0.0132723)
(7.80172e-05 0.00262738 0.0146527)
(-0.00176553 0.000107192 0.0101503)
(-0.000842382 0.00136646 0.0109922)
(-0.00077621 0.00121214 0.0122462)
(0.000542659 0.00149571 0.0134423)
(-0.00157643 0.00170613 0.0100252)
(0.000153892 0.000949641 0.0103145)
(0.00011808 0.00123104 0.0124458)
(0.000641 0.000461193 0.013065)
(0.000146692 -0.000737516 0.0075237)
(0.000318938 -0.000354467 0.00994146)
(0.000493194 0.000145959 0.0123232)
(0.000442777 -0.000378221 0.0125202)
(0 0 0)
(0 0 0)
(0 0 0)
(0 0 0)
(0 0 0)
(0 0 0)
(0 0 0)
(0 0 0)
(0 0 0)
(0 0 0)
(0 0 0)
(0 0 0)
(0 0 0)
(0 0 0)
(0 0 0)
(0 0 0)
(0 0 0)
(0 0 0)
(0 0 0)
(0 0 0)
(0 0 0)
(0 0 0)
(0 0 0)
(0 0 0)
(0 0 0)
(0 0 0)
(0 0 0)
(0 0 0)
(0 0 0)
(0 0 0)
(0 0 0)
(0 0 0)
(0 0 0)
(0 0 0)
(0 0 0)
(0 0 0)
(0 0 0)
(0 0 0)
(0 0 0)
(0 0 0)
(0 0 0)
(0 0 0)
(0 0 0)
(0 0 0)
(0 0 0)
(0 0 0)
(0 0 0)
(0 0 0)
(0 0 0)
(0 0 0)
(0 0 0)
(0 0 0)
(0 0 0)
(0 0 0)
(0 0 0)
(0 0 0)
(0 0 0)
(0 0 0)
(0 0 0)
(0 0 0)
(0 0 0)
(0 0 0)
(0 0 0)
(0 0 0)
(0 0 0)
(0 0 0)
(0 0 0)
(0 0 0)
)
;
    }
    procBoundary1to3
    {
        type            processor;
        value           nonuniform List<vector> 
192
(
(-0.00033941 0.000276734 0.000304651)
(-0.000484871 -4.30898e-05 5.83644e-05)
(-0.000665334 -0.000492855 -0.000274739)
(-0.000666931 0.000229277 -0.000899352)
(-0.00330007 -0.00170828 0.00505069)
(-0.0027871 -0.00128012 0.00743237)
(-0.00218552 -0.000923095 0.0100375)
(-0.00251186 -0.000213076 0.0090059)
(-0.001297 0.000932575 0.0138181)
(-0.00171968 -0.000242084 0.0127788)
(-0.000865693 0.000329775 0.0128162)
(7.8667e-05 0.000446491 0.0135774)
(-0.000616342 -0.000407791 0.0145395)
(-0.000359542 -0.000353854 0.0135862)
(-0.000510605 -0.000365519 0.0133549)
(-0.00031573 0.000611938 0.0136548)
(7.25166e-06 -0.000468203 0.013858)
(-0.000174939 -0.000135287 0.0138333)
(-0.000350783 0.000103752 0.0136055)
(0.000119113 0.00037626 0.0127628)
(0.000266276 0.000268359 0.013497)
(0.000401146 0.00041786 0.0134199)
(0.000239669 0.000910747 0.0130165)
(-9.23176e-05 0.000310297 0.0122017)
(0.00141306 0.00134587 0.0118604)
(0.000645418 0.00105101 0.0121683)
(0.000907974 0.0010519 0.012152)
(0.000186679 0.00120227 0.01204)
(0 0 0)
(0.00129768 0.00193329 0.0123146)
(0 0 0)
(0 0 0)
(0 0 0)
(0 0 0)
(0 0 0)
(0 0 0)
(0 0 0)
(0 0 0)
(0 0 0)
(0 0 0)
(0 0 0)
(0 0 0)
(0 0 0)
(0 0 0)
(0 0 0)
(0 0 0)
(0 0 0)
(0 0 0)
(0 0 0)
(0 0 0)
(0 0 0)
(0 0 0)
(0 0 0)
(0 0 0)
(0 0 0)
(0 0 0)
(0 0 0)
(0 0 0)
(0 0 0)
(0 0 0)
(0 0 0)
(0 0 0)
(0 0 0)
(0 0 0)
(0 0 0)
(0 0 0)
(0 0 0)
(0 0 0)
(0 0 0)
(0 0 0)
(0 0 0)
(0 0 0)
(0 0 0)
(0 0 0)
(0 0 0)
(0 0 0)
(0 0 0)
(0 0 0)
(0 0 0)
(0 0 0)
(0 0 0)
(0 0 0)
(0 0 0)
(0 0 0)
(0 0 0)
(0 0 0)
(0 0 0)
(0 0 0)
(0 0 0)
(0 0 0)
(0 0 0)
(0 0 0)
(0 0 0)
(0 0 0)
(0 0 0)
(0 0 0)
(-0.000196462 0.000156415 0.000183538)
(-0.000290776 0.000269914 0.00029554)
(0.00013548 -0.000134705 2.6192e-05)
(0.00023873 -0.000434511 0.00022457)
(-0.00171146 -0.00139604 0.00893284)
(0.000698683 -0.00089266 0.00568144)
(0.00140698 0.000413247 0.00881354)
(0.000372985 -0.00141546 0.00889756)
(0.000383052 -0.000541106 0.0113632)
(0.000392657 -0.000799118 0.0102355)
(0.000318656 0.000888898 0.0110503)
(-0.000155404 -0.00184253 0.0110787)
(-0.000404049 6.14109e-06 0.0123658)
(-0.000550056 -0.000479587 0.0117573)
(-0.00106281 -0.000498445 0.011615)
(-0.000760141 -0.00190577 0.010756)
(-0.000202461 -0.000116271 0.0123408)
(-9.45241e-05 -0.000568288 0.0121074)
(-0.000133605 -0.000923261 0.0113601)
(-2.73389e-05 -0.00123237 0.00830127)
(-9.30526e-05 0.00050953 0.0124607)
(0.000277195 -0.000154366 0.0115565)
(0.000607752 -0.000801153 0.0116074)
(-0.000191148 5.2621e-05 0.00891005)
(-0.000210766 0.00101479 0.0120088)
(0.000444512 0.000880256 0.0111274)
(-9.37466e-05 0.000461512 0.011483)
(-3.0552e-05 0.00136082 0.00927342)
(0 0 0)
(0 0 0)
(0 0 0)
(0 0 0)
(0 0 0)
(0 0 0)
(0 0 0)
(0 0 0)
(0 0 0)
(0 0 0)
(0 0 0)
(0 0 0)
(0 0 0)
(0 0 0)
(0 0 0)
(0 0 0)
(0 0 0)
(0 0 0)
(0 0 0)
(0 0 0)
(0 0 0)
(0 0 0)
(0 0 0)
(0 0 0)
(0 0 0)
(0 0 0)
(0 0 0)
(0 0 0)
(0 0 0)
(0 0 0)
(0 0 0)
(0 0 0)
(0 0 0)
(0 0 0)
(0 0 0)
(0 0 0)
(0 0 0)
(0 0 0)
(0 0 0)
(0 0 0)
(0 0 0)
(0 0 0)
(0 0 0)
(0 0 0)
(0 0 0)
(0 0 0)
(0 0 0)
(0 0 0)
(0 0 0)
(0 0 0)
(0 0 0)
(0 0 0)
(0 0 0)
(0 0 0)
(0 0 0)
(0 0 0)
(0 0 0)
(0 0 0)
(0 0 0)
(0 0 0)
(0 0 0)
(0 0 0)
(0 0 0)
(0 0 0)
(0 0 0)
(0 0 0)
(0 0 0)
(0 0 0)
)
;
    }
}


// ************************************************************************* //
