/*--------------------------------*- C++ -*----------------------------------*\
| =========                 |                                                 |
| \\      /  F ield         | OpenFOAM: The Open Source CFD Toolbox           |
|  \\    /   O peration     | Version:  2506                                  |
|   \\  /    A nd           | Website:  www.openfoam.com                      |
|    \\/     M anipulation  |                                                 |
\*---------------------------------------------------------------------------*/
FoamFile
{
    version     2.0;
    format      ascii;
    arch        "LSB;label=32;scalar=64";
    class       volScalarField;
    location    "0.1";
    object      voidfraction;
}
// * * * * * * * * * * * * * * * * * * * * * * * * * * * * * * * * * * * * * //

dimensions      [0 0 0 0 0 0 0];

internalField   nonuniform List<scalar> 
1152
(
0.523364
0.446997
0.436463
0.452263
0.44173
0.45753
0.373263
0.444363
0.454897
0.428563
0.404863
0.460163
0.415396
0.428563
0.502297
0.50493
0.531264
0.507564
0.50493
0.420663
0.47333
0.502297
0.494397
0.523364
0.462797
0.44963
0.45753
0.491764
0.336396
0.44963
0.375896
0.454897
0.48913
0.39433
0.396963
0.373263
0.389063
0.407496
0.431196
0.39433
0.346929
0.396963
0.415396
0.381163
0.407496
0.44963
0.46543
0.412763
0.396963
0.420663
0.38643
0.391696
0.349563
0.357463
0.415396
0.44173
0.486497
0.370629
0.391696
0.333763
0.346929
0.389063
0.44173
0.331129
0.43383
0.396963
0.423296
0.373263
0.333763
0.354829
0.381163
0.41803
0.367996
0.439097
0.362729
0.43383
0.460163
0.352196
0.446997
0.431196
0.367996
0.423296
0.381163
0.462797
0.462797
0.407496
0.40223
0.336396
0.396963
0.462797
0.40223
0.352196
0.354829
0.339029
0.446997
0.44963
0.649764
0.670831
0.573397
0.657665
0.623431
0.541797
0.586564
0.49703
0.552331
0.628698
0.604998
0.636598
0.420663
0.562864
0.715598
0.673465
1
1
1
1
1
1
1
1
1
1
1
1
0.986833
0.997367
1
1
1
1
1
1
1
1
1
1
1
1
1
1
1
1
1
1
1
1
1
1
1
1
1
1
1
1
1
1
1
1
1
1
1
1
1
1
1
1
1
1
1
1
1
1
1
1
1
1
1
1
1
1
1
1
1
1
1
1
1
1
1
1
1
1
1
1
1
1
1
1
1
1
1
1
1
1
1
1
1
1
1
1
1
1
1
1
1
1
1
1
1
1
1
1
1
1
1
1
1
1
1
1
1
1
1
1
1
1
1
1
1
1
1
1
1
1
1
1
1
1
1
1
1
1
1
1
1
1
1
1
1
1
1
1
1
1
1
1
1
1
1
1
1
1
1
1
1
1
1
1
1
1
1
1
1
1
1
1
1
1
1
1
1
1
1
1
1
1
1
1
1
1
1
1
1
1
1
1
1
1
1
1
1
1
1
1
1
1
1
1
1
1
1
1
1
1
1
1
1
1
1
1
1
1
1
1
1
1
1
1
1
1
1
1
1
1
1
1
1
1
1
1
1
1
1
1
1
1
1
1
1
1
1
1
1
1
1
1
1
1
1
1
1
1
1
1
1
1
1
1
1
1
1
1
1
1
0.45952
0.434003
0.412967
0.484719
0.450082
0.481994
0.539566
0.424505
0.467164
0.396957
0.490341
0.528522
0.481286
0.458621
0.483259
0.395419
0.552583
0.504514
0.476018
0.498208
0.461951
0.513709
0.512769
0.461634
0.522438
0.430195
0.50973
0.470494
0.526392
0.396362
0.425487
0.478658
0.446992
0.424475
0.376005
0.460439
0.392716
0.435479
0.376344
0.449258
0.334508
0.413576
0.437713
0.379825
0.413628
0.4505
0.386972
0.421705
0.386144
0.395889
0.436883
0.511697
0.353154
0.424908
0.429939
0.402847
0.460531
0.392208
0.407244
0.347184
0.34597
0.366586
0.393391
0.408562
0.366457
0.416852
0.44558
0.455043
0.414476
0.391079
0.405578
0.337872
0.372094
0.368467
0.415554
0.44148
0.37604
0.423431
0.377343
0.469896
0.387933
0.460683
0.382528
0.463137
0.465907
0.399536
0.434812
0.45854
0.369883
0.382712
0.412784
0.365318
0.383558
0.385534
0.361296
0.351609
0.681439
0.557874
0.541244
0.662774
0.679544
0.676511
0.500588
0.529703
0.752375
0.679485
0.642684
0.698979
0.761943
0.637276
0.679043
0.596946
1
1
1
1
1
1
1
1
1
1
1
1
1
1
1
1
1
1
1
1
1
1
1
1
1
1
1
1
1
1
1
1
1
1
1
1
1
1
1
1
1
1
1
1
1
1
1
1
1
1
1
1
1
1
1
1
1
1
1
1
1
1
1
1
1
1
1
1
1
1
1
1
1
1
1
1
1
1
1
1
1
1
1
1
1
1
1
1
1
1
1
1
1
1
1
1
1
1
1
1
1
1
1
1
1
1
1
1
1
1
1
1
1
1
1
1
1
1
1
1
1
1
1
1
1
1
1
1
1
1
1
1
1
1
1
1
1
1
1
1
1
1
1
1
1
1
1
1
1
1
1
1
1
1
1
1
1
1
1
1
1
1
1
1
1
1
1
1
1
1
1
1
1
1
1
1
1
1
1
1
1
1
1
1
1
1
1
1
1
1
1
1
1
1
1
1
1
1
1
1
1
1
1
1
1
1
1
1
1
1
1
1
1
1
1
1
1
1
1
1
1
1
1
1
1
1
1
1
1
1
1
1
1
1
1
1
1
1
1
1
1
1
1
1
1
1
1
1
1
1
1
1
1
1
1
1
1
1
1
1
1
1
1
1
1
1
1
1
1
1
1
1
0.474277
0.466867
0.424505
0.525186
0.451164
0.429403
0.359291
0.454276
0.428845
0.449189
0.462965
0.468306
0.338452
0.416313
0.459973
0.45952
0.447991
0.459614
0.477104
0.500906
0.451164
0.479261
0.539566
0.545593
0.447793
0.501421
0.462965
0.441626
0.441193
0.403047
0.442169
0.40583
0.434848
0.412466
0.331684
0.425368
0.457583
0.393394
0.408014
0.415141
0.396362
0.380338
0.418565
0.371115
0.441193
0.391992
0.368979
0.482786
0.391038
0.45236
0.350248
0.419972
0.335619
0.415554
0.456737
0.406444
0.399069
0.406454
0.359364
0.454966
0.408616
0.411891
0.351176
0.40583
0.320941
0.412466
0.353342
0.382203
0.438325
0.412784
0.417758
0.436883
0.393655
0.389834
0.450279
0.407323
0.383558
0.418524
0.42041
0.448782
0.347228
0.437853
0.303837
0.452346
0.431906
0.351846
0.47379
0.369483
0.401776
0.399331
0.388964
0.369209
0.406111
0.369883
0.402607
0.409409
0.671423
0.611937
0.653466
0.700544
0.592385
0.567897
0.641885
0.804322
0.566896
0.72222
0.777997
0.677934
0.629132
0.69268
0.80021
0.769133
1
1
1
1
1
1
1
1
1
1
1
1
1
1
1
1
1
1
1
1
1
1
1
1
1
1
1
1
1
1
1
1
1
1
1
1
1
1
1
1
1
1
1
1
1
1
1
1
1
1
1
1
1
1
1
1
1
1
1
1
1
1
1
1
1
1
1
1
1
1
1
1
1
1
1
1
1
1
1
1
1
1
1
1
1
1
1
1
1
1
1
1
1
1
1
1
1
1
1
1
1
1
1
1
1
1
1
1
1
1
1
1
1
1
1
1
1
1
1
1
1
1
1
1
1
1
1
1
1
1
1
1
1
1
1
1
1
1
1
1
1
1
1
1
1
1
1
1
1
1
1
1
1
1
1
1
1
1
1
1
1
1
1
1
1
1
1
1
1
1
1
1
1
1
1
1
1
1
1
1
1
1
1
1
1
1
1
1
1
1
1
1
1
1
1
1
1
1
1
1
1
1
1
1
1
1
1
1
1
1
1
1
1
1
1
1
1
1
1
1
1
1
1
1
1
1
1
1
1
1
1
1
1
1
1
1
1
1
1
1
1
1
1
1
1
1
1
1
1
1
1
1
1
1
1
1
1
1
1
1
1
1
1
1
1
1
1
1
1
1
1
1
)
;

boundaryField
{
    inlet
    {
        type            fixedValue;
        value           uniform 1;
    }
    outlet
    {
        type            fixedValue;
        value           uniform 1;
    }
    wall
    {
        type            zeroGradient;
    }
    procBoundary1to0
    {
        type            processor;
        value           nonuniform List<scalar> 
192
(
0.349563
0.407496
0.436463
0.420663
0.325862
0.420663
0.404863
0.48913
0.317962
0.396963
0.46543
0.360096
0.423296
0.428563
0.349563
0.48913
0.399596
0.454897
0.49703
0.412763
0.415396
0.44173
0.428563
0.428563
0.53653
0.499664
0.633964
0.507564
1
0.997367
1
0.997367
1
1
1
1
1
1
1
1
1
1
1
1
1
1
1
1
1
1
1
1
1
1
1
1
1
1
1
1
1
1
1
1
1
1
1
1
1
1
1
1
1
1
1
1
1
1
1
1
1
1
1
1
1
1
1
1
1
1
1
1
1
1
1
1
0.445203
0.42041
0.473797
0.38857
0.441623
0.554922
0.369883
0.38857
0.438044
0.410519
0.411891
0.37604
0.45773
0.416454
0.418524
0.421146
0.446992
0.400629
0.367672
0.426158
0.450572
0.406563
0.460532
0.441193
0.579428
0.564813
0.688258
0.624121
1
1
1
1
1
1
1
1
1
1
1
1
1
1
1
1
1
1
1
1
1
1
1
1
1
1
1
1
1
1
1
1
1
1
1
1
1
1
1
1
1
1
1
1
1
1
1
1
1
1
1
1
1
1
1
1
1
1
1
1
1
1
1
1
1
1
1
1
)
;
    }
    procBoundary1to3
    {
        type            processor;
        value           nonuniform List<scalar> 
192
(
0.591831
0.40223
0.396963
0.346929
0.518097
0.48913
0.50493
0.515464
0.486497
0.346929
0.396963
0.41803
0.257395
0.391696
0.423296
0.41803
0.341663
0.47333
0.41803
0.312696
0.483863
0.454897
0.404863
0.44173
0.454897
0.470697
0.557597
0.626064
1
0.9842
1
1
1
1
1
1
1
1
1
1
1
1
1
1
1
1
1
1
1
1
1
1
1
1
1
1
1
1
1
1
1
1
1
1
1
1
1
1
1
1
1
1
1
1
1
1
1
1
1
1
1
1
1
1
1
1
1
1
1
1
1
1
1
1
1
1
0.516369
0.535703
0.418432
0.436254
0.493816
0.422946
0.501513
0.482786
0.398593
0.325664
0.400629
0.429096
0.453722
0.438422
0.450082
0.46131
0.368523
0.407469
0.367001
0.386144
0.456228
0.418524
0.495579
0.416568
0.614097
0.64625
0.64196
0.604483
1
1
1
1
1
1
1
1
1
1
1
1
1
1
1
1
1
1
1
1
1
1
1
1
1
1
1
1
1
1
1
1
1
1
1
1
1
1
1
1
1
1
1
1
1
1
1
1
1
1
1
1
1
1
1
1
1
1
1
1
1
1
1
1
1
1
1
1
)
;
    }
}


// ************************************************************************* //
