/*--------------------------------*- C++ -*----------------------------------*\
| =========                 |                                                 |
| \\      /  F ield         | OpenFOAM: The Open Source CFD Toolbox           |
|  \\    /   O peration     | Version:  2506                                  |
|   \\  /    A nd           | Website:  www.openfoam.com                      |
|    \\/     M anipulation  |                                                 |
\*---------------------------------------------------------------------------*/
FoamFile
{
    version     2.0;
    format      ascii;
    arch        "LSB;label=32;scalar=64";
    class       volScalarField;
    location    "0.06";
    object      Ksl;
}
// * * * * * * * * * * * * * * * * * * * * * * * * * * * * * * * * * * * * * //

dimensions      [1 -3 -1 0 0 0 0];

internalField   nonuniform List<scalar> 
1152
(
157308
214481
198372
140014
189851
134600
162456
201130
196178
282033
232781
205787
236560
78652.5
207345
104973
259370
150608
313895
199232
204001
273429
193250
259273
206442
181641
278599
355553
194354
265048
257284
181651
168373
199540
256726
247934
273871
261144
221932
293808
268966
157942
256968
139356
202801
348017
307811
170954
155054
188428
178826
179326
261369
233857
238231
240576
185370
280324
279450
247419
223434
246145
332731
486069
195647
344028
257743
173497
162608
254389
144588
123209
235788
227370
298246
255122
264901
294639
454734
203778
225630
242079
207697
287345
171038
257671
185225
284206
201835
286278
296557
177451
396183
167778
193878
162963
27408
40303.2
36315.2
42251
56108.6
29600.2
114787
63806.4
40331.4
58797.7
67754
81765.6
26377
21108.2
64759
79685.2
0
0
0
0
0
0
0
0
0
0
0
0
0
0
0
0
0
0
0
0
0
0
0
0
0
0
0
0
0
0
0
0
0
0
0
0
0
0
0
0
0
0
0
0
0
0
0
0
0
0
0
0
0
0
0
0
0
0
0
0
0
0
0
0
0
0
0
0
0
0
0
0
0
0
0
0
0
0
0
0
0
0
0
0
0
0
0
0
0
0
0
0
0
0
0
0
0
0
0
0
0
0
0
0
0
0
0
0
0
0
0
0
0
0
0
0
0
0
0
0
0
0
0
0
0
0
0
0
0
0
0
0
0
0
0
0
0
0
0
0
0
0
0
0
0
0
0
0
0
0
0
0
0
0
0
0
0
0
0
0
0
0
0
0
0
0
0
0
0
0
0
0
0
0
0
0
0
0
0
0
0
0
0
0
0
0
0
0
0
0
0
0
0
0
0
0
0
0
0
0
0
0
0
0
0
0
0
0
0
0
0
0
0
0
0
0
0
0
0
0
0
0
0
0
0
0
0
0
0
0
0
0
0
0
0
0
0
0
0
0
0
0
0
0
0
0
0
0
0
0
0
0
0
0
0
0
0
0
0
0
0
0
0
0
0
0
0
0
0
0
0
0
229845
143155
160701
219400
162121
239824
190001
281412
200372
191916
132245
238964
163005
224827
283834
157582
170335
240091
215792
104397
243269
118490
228409
352599
194514
267326
277752
302440
141067
243940
342484
215531
215223
203692
243643
220303
184438
341394
214505
144558
259618
161546
246281
265563
315405
169475
180262
181792
228307
304246
152225
365816
214624
171191
270916
167838
221653
189531
200256
333744
299873
426289
271215
214992
202262
152444
181129
263880
234654
169651
439995
193423
190288
291203
266202
413357
149252
248570
258227
341437
68958.6
237957
260848
160062
238473
267809
250334
270975
211504
182940
198310
205969
182939
194148
215036
162320
88190.6
35308.7
21509.3
25785.8
101598
71995.2
78473.5
51815.8
121937
62384.8
77224
63579.2
83329.6
81614
71837.8
73280.5
0
0
0
0
0
0
0
0
0
0
0
0
0
0
0
0
0
0
0
0
0
0
0
0
0
0
0
0
0
0
0
0
0
0
0
0
0
0
0
0
0
0
0
0
0
0
0
0
0
0
0
0
0
0
0
0
0
0
0
0
0
0
0
0
0
0
0
0
0
0
0
0
0
0
0
0
0
0
0
0
0
0
0
0
0
0
0
0
0
0
0
0
0
0
0
0
0
0
0
0
0
0
0
0
0
0
0
0
0
0
0
0
0
0
0
0
0
0
0
0
0
0
0
0
0
0
0
0
0
0
0
0
0
0
0
0
0
0
0
0
0
0
0
0
0
0
0
0
0
0
0
0
0
0
0
0
0
0
0
0
0
0
0
0
0
0
0
0
0
0
0
0
0
0
0
0
0
0
0
0
0
0
0
0
0
0
0
0
0
0
0
0
0
0
0
0
0
0
0
0
0
0
0
0
0
0
0
0
0
0
0
0
0
0
0
0
0
0
0
0
0
0
0
0
0
0
0
0
0
0
0
0
0
0
0
0
0
0
0
0
0
0
0
0
0
0
0
0
0
0
0
0
0
0
0
0
0
0
0
0
0
0
0
0
0
0
0
0
0
0
0
0
164026
178811
247310
224293
149951
166214
176688
196323
179582
272418
177267
226771
170077
237344
137883
302265
154847
237932
197842
224394
278915
168862
198380
205545
176159
256888
249605
229830
290650
299695
169168
216554
246252
146977
269476
182018
277685
229644
172475
245289
190273
172140
277295
227588
368541
292830
208747
244532
151049
273484
231845
263576
190911
149517
272916
140040
209478
324651
316245
248693
282231
209932
188495
199590
217523
198167
224922
208373
291478
267801
145797
278964
150241
182836
262456
386204
234784
268666
315437
272248
186104
242863
241011
203411
349063
239800
208594
226166
126830
336074
238316
269615
287903
167262
149669
323681
35036.9
39980.7
54752.6
48985.9
72201.2
35773.9
28806.4
27922
65807.4
25977
42926.5
37194.2
48950.5
16618.6
39061.9
40131.1
0
0
0
0
0
0
0
0
0
0
0
0
0
0
0
0
0
0
0
0
0
0
0
0
0
0
0
0
0
0
0
0
0
0
0
0
0
0
0
0
0
0
0
0
0
0
0
0
0
0
0
0
0
0
0
0
0
0
0
0
0
0
0
0
0
0
0
0
0
0
0
0
0
0
0
0
0
0
0
0
0
0
0
0
0
0
0
0
0
0
0
0
0
0
0
0
0
0
0
0
0
0
0
0
0
0
0
0
0
0
0
0
0
0
0
0
0
0
0
0
0
0
0
0
0
0
0
0
0
0
0
0
0
0
0
0
0
0
0
0
0
0
0
0
0
0
0
0
0
0
0
0
0
0
0
0
0
0
0
0
0
0
0
0
0
0
0
0
0
0
0
0
0
0
0
0
0
0
0
0
0
0
0
0
0
0
0
0
0
0
0
0
0
0
0
0
0
0
0
0
0
0
0
0
0
0
0
0
0
0
0
0
0
0
0
0
0
0
0
0
0
0
0
0
0
0
0
0
0
0
0
0
0
0
0
0
0
0
0
0
0
0
0
0
0
0
0
0
0
0
0
0
0
0
0
0
0
0
0
0
0
0
0
0
0
0
0
0
0
0
0
0
)
;

boundaryField
{
    inlet
    {
        type            zeroGradient;
    }
    outlet
    {
        type            zeroGradient;
    }
    wall
    {
        type            zeroGradient;
    }
    procBoundary0to1
    {
        type            processor;
        value           nonuniform List<scalar> 
192
(
211536
121225
180349
207898
561545
250848
304752
241156
167959
260272
280520
226613
337387
204382
299419
202497
267935
454722
173509
371411
201722
173051
251584
310709
47269.8
154925
89171.6
165631
0
0
0
0
0
0
0
0
0
0
0
0
0
0
0
0
0
0
0
0
0
0
0
0
0
0
0
0
0
0
0
0
0
0
0
0
0
0
0
0
0
0
0
0
0
0
0
0
0
0
0
0
0
0
0
0
0
0
0
0
0
0
0
0
0
0
0
0
173998
209425
160443
124758
208218
259033
178484
262201
198229
199596
257500
290509
187909
234545
220573
363209
174305
284971
160314
198284
190102
231545
256243
127323
55893.6
49548.5
42090
38821.7
0
0
0
0
0
0
0
0
0
0
0
0
0
0
0
0
0
0
0
0
0
0
0
0
0
0
0
0
0
0
0
0
0
0
0
0
0
0
0
0
0
0
0
0
0
0
0
0
0
0
0
0
0
0
0
0
0
0
0
0
0
0
0
0
0
0
0
0
)
;
    }
    procBoundary0to2
    {
        type            processor;
        value           nonuniform List<scalar> 
192
(
156008
264705
318153
163768
300652
305321
171289
174848
485895
147765
258298
251896
180379
245822
170380
187750
313388
205297
147299
301232
157105
368970
352739
236046
40130.2
65081.9
39293.1
72789.2
0
0
0
0
0
0
0
0
0
0
0
0
0
0
0
0
0
0
0
0
0
0
0
0
0
0
0
0
0
0
0
0
0
0
0
0
0
0
0
0
0
0
0
0
0
0
0
0
0
0
0
0
0
0
0
0
0
0
0
0
0
0
0
0
0
0
0
0
228025
137476
144234
227547
217402
197918
136974
347316
176128
249670
199002
246057
167200
103303
185195
276595
197233
220262
232272
242977
250501
196707
194397
239482
69453
71176.8
49646.7
77797.7
0
0
0
0
0
0
0
0
0
0
0
0
0
0
0
0
0
0
0
0
0
0
0
0
0
0
0
0
0
0
0
0
0
0
0
0
0
0
0
0
0
0
0
0
0
0
0
0
0
0
0
0
0
0
0
0
0
0
0
0
0
0
0
0
0
0
0
0
)
;
    }
}


// ************************************************************************* //
