/*--------------------------------*- C++ -*----------------------------------*\
| =========                 |                                                 |
| \\      /  F ield         | OpenFOAM: The Open Source CFD Toolbox           |
|  \\    /   O peration     | Version:  2506                                  |
|   \\  /    A nd           | Website:  www.openfoam.com                      |
|    \\/     M anipulation  |                                                 |
\*---------------------------------------------------------------------------*/
FoamFile
{
    version     2.0;
    format      ascii;
    arch        "LSB;label=32;scalar=64";
    class       volScalarField;
    location    "0.06";
    object      voidfraction;
}
// * * * * * * * * * * * * * * * * * * * * * * * * * * * * * * * * * * * * * //

dimensions      [0 0 0 0 0 0 0];

internalField   nonuniform List<scalar> 
1152
(
0.48123
0.454897
0.44963
0.494397
0.44963
0.50493
0.48123
0.446997
0.462797
0.41013
0.407496
0.43383
0.436463
0.583931
0.444363
0.53653
0.389063
0.46543
0.378529
0.420663
0.42593
0.391696
0.42593
0.38643
0.420663
0.439097
0.373263
0.344296
0.431196
0.38643
0.389063
0.444363
0.452263
0.436463
0.396963
0.396963
0.38643
0.389063
0.412763
0.370629
0.39433
0.462797
0.389063
0.48123
0.428563
0.344296
0.360096
0.44963
0.460163
0.436463
0.446997
0.44963
0.39433
0.407496
0.40223
0.404863
0.43383
0.381163
0.375896
0.399596
0.415396
0.39433
0.346929
0.302162
0.428563
0.349563
0.389063
0.452263
0.462797
0.389063
0.46543
0.502297
0.399596
0.404863
0.365363
0.391696
0.381163
0.367996
0.310062
0.41803
0.41803
0.41013
0.415396
0.381163
0.454897
0.38643
0.431196
0.375896
0.428563
0.383796
0.375896
0.44173
0.328496
0.44963
0.439097
0.468063
0.786699
0.770899
0.712965
0.694531
0.641864
0.760365
0.523364
0.623431
0.715598
0.676098
0.618164
0.578664
0.776165
0.810399
0.657665
0.628698
1
1
1
1
1
1
1
1
1
1
1
1
1
1
1
1
1
1
1
1
1
1
1
1
1
1
1
1
1
1
1
1
1
1
1
1
1
1
1
1
1
1
1
1
1
1
1
1
1
1
1
1
1
1
1
1
1
1
1
1
1
1
1
1
1
1
1
1
1
1
1
1
1
1
1
1
1
1
1
1
1
1
1
1
1
1
1
1
1
1
1
1
1
1
1
1
1
1
1
1
1
1
1
1
1
1
1
1
1
1
1
1
1
1
1
1
1
1
1
1
1
1
1
1
1
1
1
1
1
1
1
1
1
1
1
1
1
1
1
1
1
1
1
1
1
1
1
1
1
1
1
1
1
1
1
1
1
1
1
1
1
1
1
1
1
1
1
1
1
1
1
1
1
1
1
1
1
1
1
1
1
1
1
1
1
1
1
1
1
1
1
1
1
1
1
1
1
1
1
1
1
1
1
1
1
1
1
1
1
1
1
1
1
1
1
1
1
1
1
1
1
1
1
1
1
1
1
1
1
1
1
1
1
1
1
1
1
1
1
1
1
1
1
1
1
1
1
1
1
1
1
1
1
1
1
1
1
1
1
1
1
1
1
1
1
1
1
1
1
1
1
1
0.42267
0.483292
0.477748
0.456753
0.47167
0.408014
0.448792
0.383763
0.441626
0.443936
0.503795
0.412603
0.486365
0.422388
0.380938
0.476275
0.449648
0.405941
0.423346
0.509325
0.406444
0.481099
0.407244
0.354876
0.434003
0.393193
0.377963
0.366586
0.480996
0.396673
0.347774
0.41864
0.42267
0.424505
0.408839
0.421705
0.436883
0.373908
0.421093
0.473631
0.392077
0.460851
0.401705
0.393655
0.361088
0.457994
0.449477
0.446204
0.406483
0.381189
0.455987
0.342847
0.423838
0.451865
0.385085
0.435116
0.418757
0.439708
0.425447
0.353052
0.362878
0.321504
0.380938
0.416134
0.433461
0.452352
0.437853
0.386657
0.406444
0.44212
0.310298
0.425487
0.428286
0.380507
0.382712
0.325983
0.475627
0.386782
0.387571
0.34597
0.584538
0.399753
0.405212
0.447991
0.402096
0.390961
0.393394
0.386972
0.420663
0.439708
0.442066
0.420724
0.450572
0.434257
0.425157
0.453722
0.595329
0.706065
0.775141
0.759044
0.547767
0.617523
0.606676
0.650157
0.531194
0.619424
0.627253
0.64269
0.581218
0.592507
0.602031
0.629132
1
1
1
1
1
1
1
1
1
1
1
1
1
1
1
1
1
1
1
1
1
1
1
1
1
1
1
1
1
1
1
1
1
1
1
1
1
1
1
1
1
1
1
1
1
1
1
1
1
1
1
1
1
1
1
1
1
1
1
1
1
1
1
1
1
1
1
1
1
1
1
1
1
1
1
1
1
1
1
1
1
1
1
1
1
1
1
1
1
1
1
1
1
1
1
1
1
1
1
1
1
1
1
1
1
1
1
1
1
1
1
1
1
1
1
1
1
1
1
1
1
1
1
1
1
1
1
1
1
1
1
1
1
1
1
1
1
1
1
1
1
1
1
1
1
1
1
1
1
1
1
1
1
1
1
1
1
1
1
1
1
1
1
1
1
1
1
1
1
1
1
1
1
1
1
1
1
1
1
1
1
1
1
1
1
1
1
1
1
1
1
1
1
1
1
1
1
1
1
1
1
1
1
1
1
1
1
1
1
1
1
1
1
1
1
1
1
1
1
1
1
1
1
1
1
1
1
1
1
1
1
1
1
1
1
1
1
1
1
1
1
1
1
1
1
1
1
1
1
1
1
1
1
1
1
1
1
1
1
1
1
1
1
1
1
1
1
1
1
1
1
1
0.482022
0.460799
0.409229
0.420147
0.483292
0.476226
0.452394
0.45206
0.459614
0.385085
0.458686
0.411891
0.461134
0.422277
0.496517
0.368523
0.460439
0.40427
0.418757
0.40583
0.381189
0.451865
0.424908
0.416454
0.434226
0.387855
0.396957
0.405258
0.373514
0.374134
0.453207
0.411122
0.403785
0.478193
0.390172
0.439834
0.381189
0.417758
0.450279
0.414476
0.4306
0.440483
0.382712
0.396414
0.364752
0.367715
0.423431
0.401099
0.473928
0.391225
0.405417
0.391513
0.439976
0.466482
0.38685
0.477776
0.4306
0.362926
0.363718
0.400836
0.386657
0.415858
0.436965
0.428663
0.411879
0.426012
0.414946
0.421937
0.378095
0.395833
0.477765
0.376891
0.463241
0.432173
0.382712
0.330086
0.412943
0.380553
0.361172
0.373534
0.438857
0.402096
0.409229
0.425516
0.365718
0.405578
0.427022
0.410519
0.492255
0.379545
0.411202
0.378727
0.386657
0.441535
0.464034
0.358499
0.711335
0.719528
0.664594
0.683229
0.647277
0.807544
0.746283
0.786363
0.644578
0.778409
0.707975
0.772274
0.675804
0.807426
0.748259
0.746908
1
1
1
1
1
1
1
1
1
1
1
1
1
1
1
1
1
1
1
1
1
1
1
1
1
1
1
1
1
1
1
1
1
1
1
1
1
1
1
1
1
1
1
1
1
1
1
1
1
1
1
1
1
1
1
1
1
1
1
1
1
1
1
1
1
1
1
1
1
1
1
1
1
1
1
1
1
1
1
1
1
1
1
1
1
1
1
1
1
1
1
1
1
1
1
1
1
1
1
1
1
1
1
1
1
1
1
1
1
1
1
1
1
1
1
1
1
1
1
1
1
1
1
1
1
1
1
1
1
1
1
1
1
1
1
1
1
1
1
1
1
1
1
1
1
1
1
1
1
1
1
1
1
1
1
1
1
1
1
1
1
1
1
1
1
1
1
1
1
1
1
1
1
1
1
1
1
1
1
1
1
1
1
1
1
1
1
1
1
1
1
1
1
1
1
1
1
1
1
1
1
1
1
1
1
1
1
1
1
1
1
1
1
1
1
1
1
1
1
1
1
1
1
1
1
1
1
1
1
1
1
1
1
1
1
1
1
1
1
1
1
1
1
1
1
1
1
1
1
1
1
1
1
1
1
1
1
1
1
1
1
1
1
1
1
1
1
1
1
1
1
1
)
;

boundaryField
{
    inlet
    {
        type            fixedValue;
        value           uniform 1;
    }
    outlet
    {
        type            fixedValue;
        value           uniform 1;
    }
    wall
    {
        type            zeroGradient;
    }
    procBoundary0to1
    {
        type            processor;
        value           nonuniform List<scalar> 
192
(
0.431196
0.515464
0.454897
0.43383
0.286362
0.383796
0.362729
0.389063
0.44173
0.391696
0.373263
0.407496
0.354829
0.420663
0.367996
0.423296
0.381163
0.307429
0.44173
0.341663
0.444363
0.446997
0.404863
0.360096
0.676098
0.499664
0.568131
0.483863
1
1
1
1
1
1
1
1
1
1
1
1
1
1
1
1
1
1
1
1
1
1
1
1
1
1
1
1
1
1
1
1
1
1
1
1
1
1
1
1
1
1
1
1
1
1
1
1
1
1
1
1
1
1
1
1
1
1
1
1
1
1
1
1
1
1
1
1
0.455941
0.432279
0.473797
0.511357
0.418358
0.386782
0.431789
0.37604
0.434465
0.428323
0.389782
0.366017
0.443413
0.408541
0.416313
0.338452
0.446992
0.372935
0.464953
0.433675
0.441623
0.406563
0.414102
0.486298
0.659963
0.697347
0.697102
0.714332
1
1
1
1
1
1
1
1
1
1
1
1
1
1
1
1
1
1
1
1
1
1
1
1
1
1
1
1
1
1
1
1
1
1
1
1
1
1
1
1
1
1
1
1
1
1
1
1
1
1
1
1
1
1
1
1
1
1
1
1
1
1
1
1
1
1
1
1
)
;
    }
    procBoundary0to2
    {
        type            processor;
        value           nonuniform List<scalar> 
192
(
0.475963
0.39433
0.360096
0.45753
0.360096
0.370629
0.436463
0.44963
0.307429
0.470697
0.391696
0.39433
0.444363
0.404863
0.460163
0.439097
0.370629
0.415396
0.47333
0.365363
0.452263
0.331129
0.344296
0.399596
0.694531
0.633964
0.707698
0.641864
1
1
1
1
1
1
1
1
1
1
1
1
1
1
1
1
1
1
1
1
1
1
1
1
1
1
1
1
1
1
1
1
1
1
1
1
1
1
1
1
1
1
1
1
1
1
1
1
1
1
1
1
1
1
1
1
1
1
1
1
1
1
1
1
1
1
1
1
0.432675
0.501513
0.491485
0.41864
0.418358
0.436235
0.482641
0.348476
0.452361
0.400629
0.431789
0.393581
0.464889
0.519316
0.445055
0.378546
0.427306
0.418432
0.405258
0.396087
0.393302
0.434257
0.438422
0.413628
0.609852
0.628113
0.681625
0.609085
1
1
1
1
1
1
1
1
1
1
1
1
1
1
1
1
1
1
1
1
1
1
1
1
1
1
1
1
1
1
1
1
1
1
1
1
1
1
1
1
1
1
1
1
1
1
1
1
1
1
1
1
1
1
1
1
1
1
1
1
1
1
1
1
1
1
1
1
)
;
    }
}


// ************************************************************************* //
