/*--------------------------------*- C++ -*----------------------------------*\
| =========                 |                                                 |
| \\      /  F ield         | OpenFOAM: The Open Source CFD Toolbox           |
|  \\    /   O peration     | Version:  2506                                  |
|   \\  /    A nd           | Website:  www.openfoam.com                      |
|    \\/     M anipulation  |                                                 |
\*---------------------------------------------------------------------------*/
FoamFile
{
    version     2.0;
    format      ascii;
    arch        "LSB;label=32;scalar=64";
    class       volVectorField;
    location    "0.09";
    object      U;
}
// * * * * * * * * * * * * * * * * * * * * * * * * * * * * * * * * * * * * * //

dimensions      [0 1 -1 0 0 0 0];

internalField   nonuniform List<vector> 
1152
(
(0.00222321 0.00118545 0.0132861)
(0.00408161 0.0036682 0.0142048)
(0.000469719 -0.0061734 0.0247093)
(0.000340991 -0.00159248 0.00357319)
(0.00240881 0.00224166 0.0162906)
(0.00146182 0.00364453 0.0162827)
(-0.000659466 0.00109719 0.00922877)
(0.00289305 0.00136143 0.0182225)
(0.00566963 0.00439469 0.0167275)
(0.00247454 0.00369889 0.0116938)
(-0.00463734 0.0123429 0.0313553)
(-0.000481561 0.00529343 0.0170273)
(0.00425467 0.00176499 0.0141621)
(0.00506371 0.00815863 0.0467469)
(-0.00190757 0.0019163 0.0238719)
(0.00048442 0.00450479 0.013776)
(0.000295206 0.00183291 0.0474409)
(0.00135724 0.00146497 0.0470181)
(0.0141984 0.00754931 0.0432992)
(0.00177494 0.00463986 0.0204861)
(0.000252405 0.00209014 0.0296365)
(0.0040051 0.00404522 0.0498237)
(0.00350616 0.00155653 0.0159599)
(-0.000157456 -0.00112152 0.0273274)
(0.000790035 0.00498 0.0332826)
(-0.000861213 0.0124091 0.053655)
(0.00340907 0.0039618 0.0355817)
(0.00152733 0.00383164 0.0315043)
(0.00523237 0.0122794 0.0374294)
(-0.000410048 0.0298171 0.0238795)
(-0.000608651 0.0109734 0.0319951)
(0.0051537 0.0110571 0.0457737)
(-0.00569065 0.000779396 0.0218915)
(-0.00121499 0.000313125 0.0182677)
(0.00129848 0.00327481 0.0208092)
(3.08587e-05 0.00179211 0.0093208)
(-0.00170704 1.93664e-05 0.0189726)
(-0.000287324 0.000478789 0.0218138)
(0.00578132 0.00670226 0.0386209)
(-0.00188165 0.00979987 0.0311145)
(-0.00228503 -0.00338061 0.0311628)
(0.00175227 0.00326329 0.0301736)
(0.0058345 -0.000191073 0.0201968)
(0.00152761 -0.00403995 0.0396286)
(-0.000190277 -0.00233144 0.0205634)
(0.00033015 -0.00504383 0.0194184)
(-0.000798677 -0.00111224 0.0130881)
(-0.00119686 -0.00344586 0.0149212)
(0.00324857 -0.00145415 0.0333158)
(-0.00667935 -0.0010884 0.0543925)
(-0.00521225 3.04686e-05 0.0255884)
(-0.000191566 0.0014903 0.034737)
(0.00232282 -0.00412859 0.0438871)
(-0.00195325 -0.00352393 0.0318164)
(-0.00353513 -0.0016679 0.0457483)
(0.00198876 0.00991681 0.0386469)
(-0.00407708 -0.00471455 0.0308196)
(-0.00202817 -0.00951837 0.0307716)
(0.00229981 -0.00432223 0.0272287)
(-0.000619086 0.000645528 0.0113959)
(-0.00778007 -0.0101817 0.0335033)
(-0.00304062 -0.0448985 0.037)
(0.00972516 -0.0148035 0.0385096)
(0.016075 -0.0220778 0.0579178)
(0.00171909 -0.00777697 0.032729)
(-0.000170918 -0.00206786 0.0240758)
(-0.000629096 -0.000824801 0.0182279)
(-0.00286324 -0.00318592 0.0437669)
(0.000402571 -0.00229935 0.0459551)
(-0.00365006 -0.00095245 0.0457176)
(-0.00280758 -0.00888931 0.0398025)
(0.00191158 -0.00448009 0.0228977)
(-0.00028265 0.00235479 0.0410758)
(-0.00524793 -0.0040481 0.0332897)
(-0.0092744 -0.00478341 0.0353847)
(0.00292146 -0.0169829 0.0613485)
(-0.00574346 -0.0058471 0.042973)
(-0.0120315 -0.0134535 0.054156)
(-0.00333144 -0.000905461 0.0234046)
(-0.000233817 0.000313201 0.0128956)
(-0.000447033 0.00137299 0.0188992)
(-0.00186172 -0.00219386 0.0297131)
(-0.00315969 -0.00699031 0.0315874)
(-0.000386772 -0.00466066 0.0305165)
(-0.00257398 -0.00107757 0.0252976)
(-0.00416661 -0.00333501 0.0293788)
(-0.00278488 -0.00227388 0.0295188)
(-0.000187888 -0.00434323 0.0479596)
(-0.00109833 -0.0015151 0.0237689)
(-0.00714666 -0.001919 0.0513347)
(-0.00108789 -0.000995408 0.0186916)
(-0.0016925 -0.00485226 0.0530316)
(-0.00568103 -0.00445309 0.070523)
(-0.000790877 -0.000274498 0.0138016)
(-0.00476923 -0.000789225 0.0323656)
(-0.00576812 0.00217424 0.0453462)
(7.85277e-05 0.00383296 0.017549)
(-0.00032114 -0.000342791 0.0224877)
(-0.000266203 -0.000187805 0.0207225)
(-0.000675079 -0.000986336 0.0212036)
(-0.000607223 -0.000838553 0.024515)
(-5.08014e-05 -0.000830824 0.026944)
(3.79649e-05 -0.000507228 0.0207412)
(-0.000403086 -0.000408412 0.0119916)
(-0.000146287 -0.000452671 0.027716)
(-0.000356873 -0.00094058 0.0249587)
(-0.000105594 0.000319928 0.0208928)
(-0.000124712 -0.000710869 0.0545179)
(0.000118299 0.00183678 0.0315759)
(0.00159109 -0.000181959 0.0186133)
(0.000890195 -0.000388032 0.017453)
(0.000203618 0.000352942 0.0309687)
(-0.000219566 0.0017586 0.0309894)
(-0.000585348 -0.00137574 0.0318489)
(-0.00173268 -0.00209132 0.0280673)
(-0.000517763 -0.0059884 0.0250847)
(-0.000616872 -0.000854011 0.0352477)
(-0.00135594 -0.00117712 0.0330231)
(-0.00530754 -0.00086862 0.0163044)
(-0.000452142 -0.000858545 -0.0140073)
(-0.000611092 -0.000706036 0.0401359)
(-0.000505883 -0.000571309 0.0342953)
(-0.00148579 0.00128482 0.0228037)
(-0.000363454 0.00553877 0.0502266)
(-0.000515483 -0.000666464 0.0412996)
(0.000821465 -0.000130934 0.0272652)
(0.00144405 0.00123676 0.0109915)
(-0.00106772 0.00291656 0.0451207)
(0.000847043 0.00101485 0.0127509)
(0.00109758 0.0017523 0.0127947)
(0.00155118 0.00366476 0.0119067)
(-2.62722e-05 0.00465886 0.0119032)
(0.00161696 -0.000543217 0.0139905)
(0.00319038 0.000123145 0.0132344)
(0.00422999 0.000711829 0.0110389)
(-0.000235291 -0.00121361 0.0111789)
(0.00122609 6.19476e-05 0.0142449)
(0.00231665 0.000241473 0.0128597)
(0.000167316 -0.000551674 0.0119206)
(0.000343415 -0.00453954 0.0166828)
(0.00164271 0.00141084 0.0137201)
(0.00257272 0.000686032 0.0116828)
(-0.000701941 -0.000560384 0.011483)
(0.000395713 -0.00162027 0.0171939)
(0.000197312 -0.000181766 0.0206506)
(0.000403086 0.00042428 0.0205261)
(0.000506116 0.00111062 0.0198091)
(0.000153464 0.00135908 0.0192437)
(0.000687406 -0.00038342 0.0208789)
(0.00120153 9.85887e-06 0.0200181)
(0.00123854 0.000240859 0.0182376)
(0.000119824 -0.000425655 0.0166252)
(0.00069917 6.08947e-05 0.0210018)
(0.000964143 0.000210832 0.0201599)
(7.60008e-06 3.15799e-05 0.019247)
(0.000281751 -0.00132553 0.0207095)
(0.000900254 0.000531054 0.0204364)
(0.00113029 0.000380672 0.0193661)
(-0.00032855 -4.27456e-05 0.01886)
(0.000223558 -0.000518854 0.0212146)
(0.000321407 2.20701e-05 0.0181977)
(0.000366662 0.000257875 0.0182397)
(0.000333919 0.000471952 0.0180609)
(0.000216224 0.000505217 0.0179843)
(0.000469303 -6.09996e-05 0.018339)
(0.000612125 8.43533e-05 0.0180943)
(0.000490733 0.000157432 0.0176077)
(0.000220747 -3.51364e-05 0.0173188)
(0.000484968 9.9701e-05 0.0184024)
(0.000536523 0.000143367 0.0181534)
(0.000175111 8.68482e-05 0.0178914)
(0.000245812 -0.000296148 0.0184213)
(0.000510946 0.000181211 0.0181452)
(0.000565812 0.000153526 0.0177956)
(2.56006e-05 1.94753e-05 0.0175776)
(0.000181371 -0.000170381 0.0184168)
(0.000169389 -3.6879e-05 0.0185617)
(0.000203703 9.48298e-05 0.0185501)
(0.000193629 0.000188219 0.0184623)
(0.000169266 0.000212968 0.0184332)
(0.000254496 -4.39195e-05 0.0185826)
(0.000305755 3.91497e-05 0.0184776)
(0.000245775 8.16169e-05 0.0183023)
(0.000177056 3.98721e-05 0.0182591)
(0.000292438 4.31064e-05 0.0186009)
(0.00030154 7.10568e-05 0.0184959)
(0.000172133 6.1898e-05 0.0183834)
(0.00018213 -4.09248e-05 0.018527)
(0.000295516 5.33967e-05 0.0184701)
(0.000305457 6.22449e-05 0.0183402)
(0.000113735 2.67537e-05 0.0182372)
(0.000146732 -3.3693e-05 0.0184943)
(0.00012979 -8.07573e-06 0.0184583)
(0.000140837 4.62815e-05 0.0184797)
(0.000132606 8.21981e-05 0.0184558)
(0.000124876 9.78734e-05 0.0184471)
(0.000159732 -1.11845e-05 0.0184981)
(0.00017695 2.64358e-05 0.018473)
(0.000151905 4.73365e-05 0.0184155)
(0.000130126 4.23257e-05 0.0184021)
(0.000183376 2.37985e-05 0.0185279)
(0.000184544 3.79511e-05 0.018493)
(0.000137847 3.87461e-05 0.0184468)
(0.000132716 1.30795e-05 0.018476)
(0.000178966 1.37521e-05 0.018474)
(0.000182707 2.38283e-05 0.018432)
(0.000118161 1.83412e-05 0.0183879)
(0.00011852 2.90507e-06 0.0184559)
(8.88354e-05 -4.45058e-06 0.0184317)
(9.55479e-05 2.09281e-05 0.0184576)
(9.29591e-05 3.68443e-05 0.0184549)
(8.96292e-05 4.69139e-05 0.0184508)
(0.000102404 -4.9083e-06 0.0184711)
(0.000110553 1.39414e-05 0.0184752)
(0.000102524 2.54024e-05 0.0184576)
(9.41904e-05 2.85099e-05 0.0184497)
(0.00011721 9.22588e-06 0.0184987)
(0.000119321 1.75803e-05 0.0184933)
(0.000102965 2.0359e-05 0.018475)
(9.67424e-05 1.6077e-05 0.018476)
(0.000114381 8.75805e-07 0.0184805)
(0.000118115 7.16091e-06 0.0184725)
(9.73818e-05 7.89311e-06 0.0184548)
(9.32332e-05 6.28651e-06 0.0184678)
(6.22877e-05 -3.52625e-06 0.0184141)
(6.64028e-05 9.00819e-06 0.0184468)
(6.62999e-05 1.67225e-05 0.0184558)
(6.47897e-05 2.29695e-05 0.0184554)
(6.88899e-05 -3.73908e-06 0.0184581)
(7.36312e-05 5.98269e-06 0.0184768)
(7.17685e-05 1.24629e-05 0.0184769)
(6.82636e-05 1.63268e-05 0.0184726)
(7.73961e-05 1.2689e-06 0.0184862)
(7.98009e-05 6.13788e-06 0.0184962)
(7.47972e-05 9.18712e-06 0.0184921)
(7.08823e-05 1.02696e-05 0.0184883)
(7.60484e-05 -3.85064e-06 0.0184859)
(8.03187e-05 -3.02433e-07 0.0184937)
(7.45305e-05 1.72249e-06 0.0184894)
(7.12594e-05 3.10752e-06 0.0184883)
(4.38697e-05 -3.76013e-06 0.0184028)
(4.68242e-05 2.962e-06 0.0184401)
(4.7665e-05 7.35532e-06 0.0184558)
(4.699e-05 1.12522e-05 0.0184585)
(4.75395e-05 -3.96972e-06 0.0184493)
(5.09346e-05 1.32251e-06 0.0184755)
(5.12448e-05 5.26496e-06 0.0184843)
(4.96757e-05 8.39864e-06 0.0184835)
(5.22543e-05 -2.20648e-06 0.0184778)
(5.48441e-05 7.05703e-07 0.0184965)
(5.39945e-05 3.12714e-06 0.0185009)
(5.19435e-05 5.07335e-06 0.0184982)
(5.19163e-05 -4.95573e-06 0.018486)
(5.589e-05 -2.97014e-06 0.0185023)
(5.51233e-05 -1.234e-06 0.0185052)
(5.33242e-05 4.87589e-07 0.0185024)
(3.11164e-05 -3.76639e-06 0.0183948)
(3.33769e-05 1.27661e-07 0.0184353)
(3.44404e-05 2.84237e-06 0.0184551)
(3.41929e-05 5.32519e-06 0.0184604)
(3.33266e-05 -3.98016e-06 0.0184427)
(3.59359e-05 -9.44551e-07 0.0184733)
(3.6881e-05 1.57137e-06 0.0184869)
(3.6235e-05 3.8561e-06 0.0184889)
(3.59516e-05 -3.30523e-06 0.0184716)
(3.83838e-05 -1.4989e-06 0.0184956)
(3.89279e-05 2.49299e-07 0.0185049)
(3.80231e-05 1.94244e-06 0.0185047)
(3.60563e-05 -4.62613e-06 0.0184833)
(3.93941e-05 -3.49387e-06 0.0185047)
(4.0151e-05 -2.23995e-06 0.0185121)
(3.93944e-05 -8.15637e-07 0.0185109)
(2.21056e-05 -3.43063e-06 0.0183892)
(2.39245e-05 -1.08323e-06 0.0184319)
(2.49058e-05 6.95586e-07 0.0184543)
(2.48925e-05 2.33164e-06 0.0184616)
(2.35414e-05 -3.60543e-06 0.0184378)
(2.55768e-05 -1.80368e-06 0.0184711)
(2.65981e-05 -1.42107e-07 0.0184876)
(2.64152e-05 1.4768e-06 0.0184918)
(2.50563e-05 -3.27946e-06 0.0184668)
(2.71328e-05 -2.1342e-06 0.0184941)
(2.80452e-05 -9.13406e-07 0.0185066)
(2.77516e-05 3.63365e-07 0.0185086)
(2.52773e-05 -3.82974e-06 0.0184798)
(2.79317e-05 -3.1623e-06 0.0185045)
(2.90349e-05 -2.30268e-06 0.0185149)
(2.88521e-05 -1.27597e-06 0.0185158)
(1.57042e-05 -2.9076e-06 0.0183852)
(1.71144e-05 -1.42802e-06 0.0184294)
(1.79447e-05 -2.34093e-07 0.0184535)
(1.80445e-05 8.63052e-07 0.0184623)
(1.66539e-05 -3.037e-06 0.018434)
(1.82135e-05 -1.92465e-06 0.0184691)
(1.91154e-05 -8.07707e-07 0.0184875)
(1.91545e-05 3.28938e-07 0.0184933)
(1.75482e-05 -2.82498e-06 0.0184631)
(1.92191e-05 -2.08588e-06 0.0184925)
(2.01296e-05 -1.24282e-06 0.018507)
(2.0124e-05 -3.30352e-07 0.0185107)
(1.77854e-05 -2.98957e-06 0.0184766)
(1.98065e-05 -2.58196e-06 0.0185033)
(2.08486e-05 -2.01762e-06 0.0185158)
(2.09149e-05 -1.32002e-06 0.0185184)
(1.10624e-05 -2.33214e-06 0.0183822)
(1.21128e-05 -1.37222e-06 0.0184276)
(1.27713e-05 -5.691e-07 0.0184528)
(1.29193e-05 1.65953e-07 0.0184627)
(1.16924e-05 -2.42043e-06 0.0184311)
(1.28489e-05 -1.71922e-06 0.0184675)
(1.35769e-05 -9.72035e-07 0.0184872)
(1.37168e-05 -1.92305e-07 0.0184942)
(1.22354e-05 -2.27137e-06 0.0184602)
(1.34978e-05 -1.79581e-06 0.018491)
(1.42623e-05 -1.22579e-06 0.0185069)
(1.43967e-05 -6.0013e-07 0.0185118)
(1.24133e-05 -2.25244e-06 0.0184738)
(1.39084e-05 -2.00192e-06 0.0185019)
(1.47642e-05 -1.62822e-06 0.0185158)
(1.49529e-05 -1.15712e-06 0.0185197)
(7.60935e-06 -1.76871e-06 0.0183802)
(8.36407e-06 -1.15028e-06 0.0184263)
(8.85683e-06 -6.22573e-07 0.0184523)
(9.0151e-06 -1.45107e-07 0.0184629)
(8.02352e-06 -1.83615e-06 0.0184291)
(8.84701e-06 -1.39676e-06 0.0184662)
(9.39225e-06 -9.09447e-07 0.0184868)
(9.56929e-06 -3.97763e-07 0.0184946)
(8.35265e-06 -1.72729e-06 0.0184581)
(9.25804e-06 -1.43034e-06 0.0184898)
(9.83605e-06 -1.06368e-06 0.0185066)
(1.00393e-05 -6.68558e-07 0.0185124)
(8.46568e-06 -1.63364e-06 0.0184717)
(9.52277e-06 -1.47818e-06 0.0185007)
(1.01509e-05 -1.22784e-06 0.0185156)
(1.04351e-05 -8.97461e-07 0.0185204)
(4.97913e-06 -1.25698e-06 0.0183788)
(5.48847e-06 -8.74547e-07 0.0184254)
(5.83028e-06 -5.445e-07 0.0184519)
(5.96976e-06 -2.51321e-07 0.0184631)
(5.23741e-06 -1.30715e-06 0.0184276)
(5.78908e-06 -1.04311e-06 0.0184654)
(6.16495e-06 -7.41729e-07 0.0184865)
(6.33013e-06 -4.28995e-07 0.0184949)
(5.42878e-06 -1.23137e-06 0.0184566)
(6.03669e-06 -1.05725e-06 0.018489)
(6.43266e-06 -8.39276e-07 0.0185064)
(6.64182e-06 -6.21584e-07 0.0185128)
(5.48948e-06 -1.12548e-06 0.0184702)
(6.19048e-06 -1.03258e-06 0.0184999)
(6.59952e-06 -8.69356e-07 0.0185154)
(6.92535e-06 -6.30405e-07 0.0185209)
(2.91891e-06 -8.33671e-07 0.0183779)
(3.22197e-06 -6.25129e-07 0.0184248)
(3.42797e-06 -4.41414e-07 0.0184517)
(3.52132e-06 -2.79238e-07 0.0184632)
(3.05805e-06 -8.70449e-07 0.0184268)
(3.38634e-06 -7.29889e-07 0.0184648)
(3.61246e-06 -5.64597e-07 0.0184863)
(3.72356e-06 -3.94778e-07 0.0184951)
(3.1556e-06 -8.2708e-07 0.0184557)
(3.51822e-06 -7.38608e-07 0.0184884)
(3.75448e-06 -6.25586e-07 0.0185062)
(3.90106e-06 -5.2654e-07 0.0185131)
(3.18008e-06 -7.4933e-07 0.0184693)
(3.59453e-06 -7.06125e-07 0.0184993)
(3.82401e-06 -6.18552e-07 0.0185153)
(4.07793e-06 -4.68572e-07 0.0185212)
(1.31531e-06 -6.4841e-07 0.0183775)
(1.4431e-06 -5.85507e-07 0.0184246)
(1.51977e-06 -5.21111e-07 0.0184517)
(1.5401e-06 -4.58273e-07 0.0184634)
(1.35446e-06 -7.0261e-07 0.0184263)
(1.49351e-06 -6.63701e-07 0.0184646)
(1.58109e-06 -6.10107e-07 0.0184863)
(1.6088e-06 -5.48794e-07 0.0184953)
(1.3743e-06 -7.0742e-07 0.0184553)
(1.52965e-06 -6.93277e-07 0.0184882)
(1.62547e-06 -6.63821e-07 0.0185062)
(1.66584e-06 -6.37195e-07 0.0185133)
(1.36399e-06 -6.86637e-07 0.0184688)
(1.54225e-06 -6.97433e-07 0.0184991)
(1.63651e-06 -6.87556e-07 0.0185153)
(1.72352e-06 -6.44787e-07 0.0185214)
(0.00196931 -0.00289145 0.0169896)
(-0.000579256 -0.000497449 0.0166166)
(-0.0027232 -0.000125918 0.0258202)
(-0.000573598 0.0013615 0.0172118)
(0.00315587 0.000543609 0.0157582)
(0.00559437 0.00178442 0.023882)
(0.00259425 0.00114123 0.0267855)
(0.00163944 0.00228892 0.0345463)
(0.00125265 0.00116024 0.0183636)
(0.00320635 0.00396457 0.0324621)
(0.000417958 0.00305377 0.0181981)
(0.00147992 0.0016799 0.010933)
(0.0024666 -0.000371623 0.0109252)
(0.00311936 -0.000431986 0.00942592)
(0.00280734 -0.00283253 0.0419514)
(0.00207808 0.0013669 0.0218272)
(-0.00217079 0.000699959 0.0459277)
(-0.00504701 0.000376114 0.0597544)
(-0.000827683 6.47703e-05 0.0322045)
(-0.000108369 0.00117446 0.0304111)
(-0.000770587 -8.02827e-05 0.0195713)
(-0.00250387 -0.00174327 0.0502686)
(-0.00160446 0.000628177 0.0160508)
(-0.00088094 0.00181547 0.0412102)
(-0.00057508 0.00104242 0.0371916)
(0.000689699 0.00161893 0.0241701)
(0.00154605 0.0069924 0.0376285)
(-0.000250154 0.00300833 0.0392431)
(0.00126954 0.000539637 0.0451689)
(0.0135564 0.00206662 0.0630997)
(0.00087488 0.0029283 0.0290443)
(-0.00384836 0.00175935 0.0382454)
(-0.0043124 0.00498126 0.059888)
(-0.000154227 0.00135732 0.015163)
(0.00707318 0.003253 0.0270691)
(-0.00121853 0.00114095 0.0242254)
(-0.00226984 0.00116759 0.033226)
(-0.00310944 0.00278246 0.0468091)
(-0.000115931 -0.000425959 0.0411845)
(0.00347395 -0.0129907 0.0542435)
(0.00106591 -0.000559643 0.0360881)
(0.0011273 -0.00191778 0.0401867)
(-0.00153672 -0.00435323 0.0294024)
(-0.00137862 -0.00151079 0.0200499)
(-0.00107867 0.00133735 0.0214455)
(-0.000960636 0.000555404 0.0243433)
(-9.15022e-06 0.000873739 0.00881269)
(0.000946787 -7.09614e-05 0.0339396)
(-0.00102013 0.000941602 0.0248043)
(0.00015258 -0.000505506 0.0440162)
(-0.00533684 -0.0027068 0.0348994)
(0.000138655 0.000878321 0.00993209)
(-0.00119786 0.00259236 0.00929078)
(0.000797158 0.0033294 0.055706)
(-0.000555332 0.00010931 0.0188688)
(-0.00186994 0.00485562 0.0476298)
(-0.00229723 0.0040172 0.027994)
(-0.00531619 0.00589224 0.0398939)
(-0.00251072 -0.00919148 0.0441575)
(-0.00131907 -0.00105509 0.0248872)
(0.00245199 0.000600112 0.0359549)
(-0.0100451 -0.00073372 0.0304688)
(-0.010498 -0.00257102 0.0330793)
(0.0015421 -0.00601309 0.0413546)
(0.000535022 -0.00324643 0.0642562)
(0.00123349 0.000949743 0.0202872)
(0.00244892 -0.000575748 0.0333099)
(0.00322957 -0.00227426 0.0232808)
(-0.000347335 0.00186178 0.029265)
(0.000817121 0.00203623 0.0407177)
(-0.000360741 -0.00121753 0.0452897)
(-0.000436205 0.000369873 0.0397827)
(-0.00219259 0.00414877 0.0529701)
(-0.00291469 0.00187825 0.0427901)
(-0.000782386 -0.000570404 0.0409287)
(0.000747433 -0.000266377 0.0498681)
(-0.000117944 -0.000347769 0.0271075)
(0.000479667 0.000118518 0.00977234)
(-0.00539836 -0.000428114 0.0635474)
(0.000942033 -0.0033556 0.0422963)
(0.00293776 0.00321936 0.023828)
(0.00231132 0.00174117 0.0149903)
(0.0026908 0.00219993 0.0311805)
(-0.000103642 0.00314291 0.036459)
(0.000390657 0.000713466 0.0171535)
(0.00348395 0.00336892 0.038363)
(0.00302937 0.000637977 0.0257)
(0.000308533 0.00077219 0.0285782)
(0.00247453 0.000648535 0.0239833)
(0.00183816 0.000500533 0.0228332)
(0.00127217 0.000761597 0.0250075)
(0.00135633 0.000307331 0.0219662)
(3.64238e-05 0.000152219 0.022622)
(0.00212064 -0.000841997 0.0216157)
(0.00132311 0.00171991 0.0320782)
(-0.00217142 0.0011401 0.029906)
(-0.000340576 0.00075546 0.0276029)
(-0.000318866 0.000747875 0.0163005)
(-0.000922983 -0.000622439 0.0248645)
(-0.00323708 0.00358196 0.0251348)
(-0.000824835 0.00134683 0.0139129)
(0.00106839 0.00114337 0.0252426)
(0.00108603 0.00160559 0.0258831)
(-0.000882922 0.00113938 0.0266741)
(0.00024264 -0.000178694 0.0264344)
(0.000198351 -0.00342326 0.0259419)
(0.000315918 -0.000779829 0.0188628)
(-0.000221691 0.000813114 0.0224485)
(-0.000328656 -3.47829e-06 0.0165519)
(-0.00107317 -0.00114743 0.049001)
(0.00155338 0.000674815 0.0350341)
(0.000733935 0.00100832 0.024589)
(-0.000266916 -0.00034338 0.0327892)
(-0.000841235 -0.000886983 0.0256199)
(-0.00127605 -0.000777534 0.031706)
(-0.00160266 0.000540452 0.0347336)
(-0.000524925 -0.00107312 0.0214081)
(-0.00114272 -0.00173468 0.0326781)
(-0.00112268 -0.000729076 0.0365439)
(-0.000945276 -0.00045729 0.0369721)
(-0.000435505 -0.00125575 0.0381777)
(0.000160475 -0.00208359 0.0394116)
(0.000281458 -0.0010602 0.0293709)
(-0.000897405 -0.000380775 0.034111)
(-0.00137229 -0.000686898 0.0263329)
(-0.00130067 -0.00181116 0.0482538)
(0.000830346 -0.0010848 0.0407291)
(-0.000132704 -0.000994382 0.03453)
(0.000468137 -4.98042e-05 0.0109642)
(0.000173553 -0.000488069 0.010653)
(-0.000528846 -0.000646091 0.0118469)
(-0.000108252 6.84052e-05 0.0128869)
(-0.000153805 -0.00156007 0.00967756)
(-0.000625032 -0.00203898 0.0118581)
(-0.000274401 -0.00108747 0.0133797)
(0.000466852 -0.000408169 0.0141359)
(0.000314461 -0.000663353 0.0126319)
(0.000975545 -0.00108217 0.0137564)
(0.00113822 -0.000406189 0.0131819)
(0.000626278 0.000157445 0.0137204)
(-0.00105515 -0.000432958 0.0103058)
(-0.000651213 -0.000857161 0.0136695)
(0.00126315 0.000348249 0.0139445)
(0.00110312 0.000713349 0.0133052)
(0.000200776 -0.000399094 0.0201326)
(1.08746e-05 -0.000636539 0.0200537)
(-0.000115981 -0.000682269 0.0204795)
(-2.48542e-05 -0.000490834 0.0208135)
(8.3234e-05 -0.00108593 0.0193816)
(-0.00020554 -0.00130923 0.0202413)
(6.96517e-06 -0.000953803 0.020891)
(0.000310252 -0.00058348 0.0211227)
(4.98694e-05 -0.000452243 0.0212762)
(0.000254891 -0.000574342 0.0215064)
(0.000571254 -0.000319199 0.0212588)
(0.000543437 -6.06399e-05 0.0211354)
(-0.000395067 -0.000399221 0.0197883)
(-0.000341149 -0.000485119 0.0210969)
(0.000451486 1.63339e-05 0.0210858)
(0.00065105 0.000262542 0.020691)
(0.000132387 -0.000102393 0.0175004)
(0.000127928 -0.000144585 0.017687)
(0.000101939 -0.00018003 0.0179271)
(0.00017596 -0.000116393 0.0181277)
(0.000109295 -0.00037659 0.0173937)
(4.43247e-05 -0.000420024 0.0178599)
(9.76627e-05 -0.000312988 0.0181985)
(0.000265517 -0.000156377 0.0183615)
(9.49769e-05 -8.36143e-05 0.0182655)
(0.000231524 -0.000100567 0.0185389)
(0.000339574 -2.87385e-05 0.018534)
(0.00040377 6.21148e-05 0.0184846)
(-5.56635e-05 -0.000182004 0.0176545)
(-2.49512e-06 -0.000179687 0.0182533)
(0.000228182 -1.04025e-05 0.0183791)
(0.000378918 9.90532e-05 0.018288)
(7.66883e-05 -0.000103644 0.0182512)
(7.51888e-05 -0.000122384 0.0183657)
(9.33773e-05 -0.000124752 0.018477)
(0.00011995 -9.91534e-05 0.0185549)
(7.86304e-05 -0.000239435 0.0181556)
(5.73569e-05 -0.000246123 0.0183619)
(0.000107104 -0.000192789 0.0185261)
(0.000179557 -0.000115252 0.0186057)
(5.15183e-05 -5.98409e-05 0.0185236)
(0.000128362 -5.66183e-05 0.0186464)
(0.000212001 -2.61483e-05 0.01868)
(0.000262268 1.296e-05 0.0186609)
(-1.43681e-05 -0.000108429 0.018174)
(2.49938e-05 -9.66342e-05 0.0184199)
(0.000143267 -3.51434e-05 0.018529)
(0.000235317 1.54044e-05 0.0185318)
(5.24816e-05 -4.83954e-05 0.0180931)
(6.77292e-05 -4.77092e-05 0.0182365)
(8.48118e-05 -4.88181e-05 0.0183415)
(0.00010107 -3.9085e-05 0.0184164)
(5.06859e-05 -0.000107944 0.0181038)
(5.73381e-05 -0.000104389 0.0182844)
(8.54664e-05 -8.08279e-05 0.0184094)
(0.00012224 -4.54821e-05 0.0184814)
(3.46703e-05 -1.80951e-05 0.0183209)
(8.83999e-05 -1.44627e-05 0.0184618)
(0.000135629 -3.96403e-06 0.0185267)
(0.000166065 1.04955e-05 0.0185428)
(4.59528e-06 -5.1985e-05 0.0181551)
(3.75539e-05 -4.60356e-05 0.018348)
(9.60752e-05 -2.44311e-05 0.0184513)
(0.000146602 -3.65641e-06 0.0184857)
(3.5366e-05 -3.24782e-05 0.0180888)
(4.73606e-05 -2.87047e-05 0.0182235)
(6.14135e-05 -2.69805e-05 0.0183191)
(7.1707e-05 -2.17994e-05 0.0183868)
(3.30074e-05 -5.83888e-05 0.0181079)
(4.3235e-05 -5.25094e-05 0.018263)
(6.17543e-05 -3.97386e-05 0.0183704)
(8.16755e-05 -2.23908e-05 0.0184388)
(2.28713e-05 -1.06322e-05 0.0182257)
(5.73609e-05 -6.8638e-06 0.0183652)
(8.57335e-05 -2.76839e-06 0.0184452)
(0.000104544 2.71479e-06 0.0184854)
(7.4829e-06 -2.64697e-05 0.0181477)
(3.13659e-05 -2.32966e-05 0.0183132)
(6.3885e-05 -1.55063e-05 0.0184138)
(9.39707e-05 -7.16568e-06 0.0184654)
(2.50482e-05 -2.2088e-05 0.0180592)
(3.44603e-05 -1.84237e-05 0.0181955)
(4.45999e-05 -1.68555e-05 0.0182925)
(5.131e-05 -1.41846e-05 0.0183623)
(2.16965e-05 -3.31944e-05 0.0180911)
(3.13592e-05 -2.85403e-05 0.0182408)
(4.40033e-05 -2.1623e-05 0.0183449)
(5.57096e-05 -1.29202e-05 0.0184155)
(1.52944e-05 -8.97588e-06 0.0181672)
(3.73965e-05 -6.24039e-06 0.0183109)
(5.53847e-05 -4.43455e-06 0.0184015)
(6.77117e-05 -2.08732e-06 0.0184565)
(6.69183e-06 -1.52661e-05 0.0181369)
(2.36411e-05 -1.36247e-05 0.0182943)
(4.37746e-05 -1.08223e-05 0.0183958)
(6.23837e-05 -7.53271e-06 0.0184565)
(1.80654e-05 -1.6212e-05 0.0180403)
(2.47526e-05 -1.35234e-05 0.018177)
(3.18995e-05 -1.23147e-05 0.0182752)
(3.64984e-05 -1.08224e-05 0.0183468)
(1.48321e-05 -2.08693e-05 0.0180765)
(2.24512e-05 -1.75339e-05 0.0182243)
(3.11896e-05 -1.36052e-05 0.018328)
(3.85148e-05 -9.01242e-06 0.0184008)
(1.05768e-05 -8.57424e-06 0.0181307)
(2.47388e-05 -6.61019e-06 0.0182777)
(3.64586e-05 -5.54489e-06 0.018375)
(4.47851e-05 -4.18984e-06 0.0184387)
(5.36502e-06 -1.01794e-05 0.0181252)
(1.74043e-05 -9.18569e-06 0.0182802)
(3.06577e-05 -8.13518e-06 0.0183829)
(4.25818e-05 -6.69711e-06 0.0184486)
(1.31856e-05 -1.21254e-05 0.0180264)
(1.78408e-05 -1.02921e-05 0.0181634)
(2.281e-05 -9.50083e-06 0.0182628)
(2.60181e-05 -8.64059e-06 0.018336)
(1.04089e-05 -1.39828e-05 0.0180644)
(1.60348e-05 -1.17176e-05 0.0182117)
(2.21077e-05 -9.43708e-06 0.0183159)
(2.69257e-05 -6.87784e-06 0.0183905)
(7.45041e-06 -7.68817e-06 0.0181075)
(1.66212e-05 -6.25384e-06 0.0182567)
(2.44316e-05 -5.50099e-06 0.0183579)
(3.02155e-05 -4.58444e-06 0.0184268)
(4.16371e-06 -7.3397e-06 0.0181145)
(1.26784e-05 -6.64872e-06 0.0182687)
(2.16024e-05 -6.17589e-06 0.0183724)
(2.95137e-05 -5.46951e-06 0.0184411)
(9.63721e-06 -9.09223e-06 0.0180169)
(1.28647e-05 -7.87412e-06 0.0181541)
(1.63212e-05 -7.36788e-06 0.0182542)
(1.85214e-05 -6.86723e-06 0.0183285)
(7.43006e-06 -9.77946e-06 0.0180554)
(1.14828e-05 -8.25352e-06 0.0182025)
(1.57078e-05 -6.89612e-06 0.0183073)
(1.89395e-05 -5.39968e-06 0.0183832)
(5.29072e-06 -6.4227e-06 0.0180927)
(1.13303e-05 -5.37446e-06 0.0182431)
(1.66458e-05 -4.81435e-06 0.0183468)
(2.07141e-05 -4.15474e-06 0.0184187)
(3.14322e-06 -5.39561e-06 0.0181055)
(9.16217e-06 -4.87529e-06 0.0182594)
(1.52598e-05 -4.63126e-06 0.0183641)
(2.06229e-05 -4.28533e-06 0.0184347)
(6.99989e-06 -6.74042e-06 0.0180104)
(9.23014e-06 -5.93263e-06 0.0181476)
(1.16327e-05 -5.61524e-06 0.0182482)
(1.31731e-05 -5.33499e-06 0.0183232)
(5.32136e-06 -6.94702e-06 0.0180487)
(8.20145e-06 -5.91713e-06 0.0181958)
(1.11333e-05 -5.08404e-06 0.0183011)
(1.33278e-05 -4.17543e-06 0.0183779)
(3.75816e-06 -5.09349e-06 0.018083)
(7.79521e-06 -4.33383e-06 0.0182341)
(1.14531e-05 -3.92818e-06 0.0183392)
(1.43145e-05 -3.44871e-06 0.0184129)
(2.32172e-06 -3.96606e-06 0.0180983)
(6.55417e-06 -3.57477e-06 0.0182521)
(1.0756e-05 -3.45981e-06 0.0183575)
(1.44616e-05 -3.26837e-06 0.0184296)
(5.02062e-06 -4.9104e-06 0.018006)
(6.55359e-06 -4.37813e-06 0.018143)
(8.20804e-06 -4.18506e-06 0.018244)
(9.28777e-06 -4.03467e-06 0.0183194)
(3.7858e-06 -4.9395e-06 0.0180439)
(5.80003e-06 -4.24555e-06 0.0181909)
(7.81831e-06 -3.72808e-06 0.0182966)
(9.31538e-06 -3.15879e-06 0.0183741)
(2.6501e-06 -3.8642e-06 0.0180766)
(5.36093e-06 -3.32951e-06 0.018228)
(7.87452e-06 -3.04072e-06 0.0183339)
(9.8844e-06 -2.69833e-06 0.0184087)
(1.67255e-06 -2.88719e-06 0.0180929)
(4.62287e-06 -2.60161e-06 0.0182467)
(7.51178e-06 -2.54031e-06 0.0183526)
(1.00616e-05 -2.42589e-06 0.0184256)
(3.50664e-06 -3.46952e-06 0.0180029)
(4.5417e-06 -3.12589e-06 0.01814)
(5.65816e-06 -3.01335e-06 0.0182411)
(6.39634e-06 -2.93578e-06 0.0183168)
(2.63246e-06 -3.44898e-06 0.0180406)
(4.00531e-06 -2.99258e-06 0.0181875)
(5.36557e-06 -2.67147e-06 0.0182935)
(6.37348e-06 -2.31376e-06 0.0183713)
(1.82525e-06 -2.80106e-06 0.0180723)
(3.62559e-06 -2.43694e-06 0.0182238)
(5.32563e-06 -2.24038e-06 0.0183303)
(6.70447e-06 -2.00673e-06 0.0184058)
(1.16342e-06 -2.04807e-06 0.0180889)
(3.16874e-06 -1.84301e-06 0.0182427)
(5.11874e-06 -1.80967e-06 0.0183491)
(6.84408e-06 -1.7424e-06 0.0184226)
(2.32591e-06 -2.32418e-06 0.0180009)
(2.99123e-06 -2.11301e-06 0.0181379)
(3.70771e-06 -2.0508e-06 0.0182392)
(4.18994e-06 -2.01249e-06 0.018315)
(1.74085e-06 -2.29825e-06 0.0180383)
(2.62902e-06 -2.01271e-06 0.0181852)
(3.5029e-06 -1.81963e-06 0.0182913)
(4.15405e-06 -1.60201e-06 0.0183695)
(1.19736e-06 -1.90567e-06 0.0180695)
(2.34428e-06 -1.67217e-06 0.0182211)
(3.43992e-06 -1.54827e-06 0.0183279)
(4.33969e-06 -1.40028e-06 0.0184038)
(7.64859e-07 -1.37742e-06 0.0180862)
(2.06022e-06 -1.24209e-06 0.01824)
(3.31463e-06 -1.22541e-06 0.0183466)
(4.42887e-06 -1.18827e-06 0.0184206)
(1.39537e-06 -1.41405e-06 0.0179997)
(1.77492e-06 -1.30163e-06 0.0181366)
(2.18229e-06 -1.27282e-06 0.018238)
(2.46327e-06 -1.25649e-06 0.018314)
(1.04149e-06 -1.39819e-06 0.0180368)
(1.55401e-06 -1.24333e-06 0.0181838)
(2.05472e-06 -1.1422e-06 0.01829)
(2.43169e-06 -1.02684e-06 0.0183683)
(7.10504e-07 -1.17855e-06 0.0180678)
(1.36753e-06 -1.05183e-06 0.0182195)
(1.9977e-06 -9.88403e-07 0.0183264)
(2.52104e-06 -9.11336e-07 0.0184026)
(4.50762e-07 -8.56812e-07 0.0180845)
(1.19907e-06 -7.8604e-07 0.0182383)
(1.92006e-06 -7.85428e-07 0.0183451)
(2.56279e-06 -7.73589e-07 0.0184193)
(7.20546e-07 -7.80632e-07 0.0179991)
(8.7167e-07 -7.63793e-07 0.018136)
(1.0297e-06 -7.72058e-07 0.0182374)
(1.14216e-06 -7.82569e-07 0.0183134)
(5.4079e-07 -8.07717e-07 0.0180361)
(7.52855e-07 -7.73562e-07 0.018183)
(9.57276e-07 -7.57989e-07 0.0182893)
(1.11412e-06 -7.38442e-07 0.0183677)
(3.60867e-07 -7.36006e-07 0.0180669)
(6.36323e-07 -7.14007e-07 0.0182186)
(9.00657e-07 -7.16379e-07 0.0183257)
(1.12052e-06 -7.13566e-07 0.0184019)
(2.10005e-07 -6.03105e-07 0.0180835)
(5.27733e-07 -6.06657e-07 0.0182374)
(8.35744e-07 -6.38863e-07 0.0183442)
(1.10762e-06 -6.65064e-07 0.0184186)
(-0.00229042 -0.00423805 0.0238092)
(0.000756806 -0.000512325 0.00726906)
(0.00653761 7.35614e-05 0.016519)
(0.00643454 0.00799426 0.018831)
(-0.000868205 -0.00258856 0.0139179)
(0.00588929 -0.0020009 0.0231075)
(0.0116627 0.0026555 0.0120774)
(0.0032486 0.0104055 0.00742596)
(0.0010798 -0.000299718 0.0134014)
(0.00796227 -0.00307139 0.01424)
(0.0241384 -0.00378871 0.00753301)
(0.0106276 -0.0125159 0.00597158)
(0.00165852 0.000697212 0.0218574)
(0.00297311 0.000505544 0.00772547)
(0.00919549 -0.0062964 0.0105537)
(0.00102227 -0.00697712 0.00136693)
(0.000290341 0.00204967 0.0568842)
(-0.000689782 -0.00036745 0.0486553)
(0.00384334 0.0013153 0.0307854)
(5.97612e-05 0.00051561 0.0176472)
(0.000299013 0.00317733 0.0170306)
(-0.000269177 -0.00012447 0.0256769)
(0.00776253 -0.00578609 0.0335636)
(0.0082232 -0.000416343 0.0437364)
(-0.000593319 0.00102324 0.0408932)
(-0.00453403 0.00232699 0.0316519)
(0.00883376 -0.00310929 0.029389)
(-0.000337279 0.00123335 0.00429438)
(-0.000431322 -0.00111428 0.0341607)
(-0.00113128 0.00232712 0.0336729)
(-0.00127157 0.00983072 0.0393022)
(0.00466752 0.001024 0.013352)
(0.000936678 0.00340193 0.0334832)
(0.000537847 0.00329745 0.034257)
(-0.000313784 -0.000949868 0.0201495)
(-0.00603114 -0.0111745 0.04627)
(0.000319362 0.00223989 0.0211712)
(-0.00461092 0.00180351 0.0487471)
(-0.00571081 -0.00649829 0.0337661)