/*--------------------------------*- C++ -*----------------------------------*\
| =========                 |                                                 |
| \\      /  F ield         | OpenFOAM: The Open Source CFD Toolbox           |
|  \\    /   O peration     | Version:  2506                                  |
|   \\  /    A nd           | Website:  www.openfoam.com                      |
|    \\/     M anipulation  |                                                 |
\*---------------------------------------------------------------------------*/
FoamFile
{
    version     2.0;
    format      ascii;
    arch        "LSB;label=32;scalar=64";
    class       volVectorField;
    location    "0.09";
    object      Us;
}
// * * * * * * * * * * * * * * * * * * * * * * * * * * * * * * * * * * * * * //

dimensions      [0 1 -1 0 0 0 0];

internalField   nonuniform List<vector> 
1152
(
(-0.000587706 0.000327888 0.000116193)
(-4.50762e-05 0.000920418 -0.000238904)
(0.000456539 0.000207071 -0.000183047)
(-0.00017282 0.000105064 -1.77495e-05)
(-0.000500986 3.07673e-06 0.000122081)
(-2.43472e-05 2.15815e-05 -0.000110249)
(-4.07011e-05 0.000490981 -7.67285e-05)
(6.91725e-05 0.000193674 -5.97919e-05)
(-0.000151244 5.60922e-06 3.03231e-05)
(-1.20761e-05 -5.66562e-05 0.000129334)
(-9.07986e-05 0.00117602 0.000144561)
(-0.000129304 0.000853013 0.000459569)
(-0.000354155 4.67664e-05 -2.45062e-05)
(-0.000588244 0.000108749 7.40816e-05)
(-0.000325362 0.000101829 0.000222238)
(0.000292325 0.000377779 7.02003e-05)
(-0.000856551 0.00077597 0.00945958)
(0.000240909 0.000628924 0.00981269)
(0.00122137 0.00209446 0.00810143)
(0.000344217 0.00185669 0.00520188)
(-0.000658999 0.000666554 0.00844174)
(0.000354537 -3.34348e-05 0.00741486)
(0.00269885 0.00109594 0.00558744)
(0.000404586 0.00161659 0.0070158)
(-0.000943809 0.000553719 0.00727663)
(-0.00068444 2.55291e-05 0.00853993)
(0.000875335 0.00113013 0.00795588)
(0.00061317 0.00177649 0.00913539)
(-0.000862764 0.00119319 0.00754214)
(-0.000771052 0.00132807 0.00421062)
(0.00072469 0.000580372 0.00708881)
(0.000653053 0.000469311 0.0103646)
(-0.00056326 0.00102198 0.00944117)
(0.000233307 0.000826502 0.0100497)
(0.000298063 0.00120405 0.0100092)
(1.56486e-05 0.00169177 0.00918395)
(2.131e-05 0.000871126 0.00999238)
(0.000241961 0.000971335 0.0104704)
(0.00125284 0.00123563 0.0110989)
(-0.000522545 0.00140422 0.0116392)
(-0.000421912 0.000588693 0.0110328)
(-0.000594971 0.00124459 0.0114104)
(0.000129803 0.000937341 0.0108586)
(-0.000186657 0.00101093 0.0121615)
(-0.000646614 -0.000427568 0.0116885)
(-0.000646087 0.00100907 0.0105623)
(-0.000418773 7.36802e-05 0.0104969)
(-0.00117908 -9.3307e-06 0.0127198)
(-0.000149268 0.00184809 0.00938739)
(0.000283602 0.00110704 0.00939787)
(-0.000183477 0.00122176 0.00999648)
(-2.27243e-05 0.00126577 0.0105742)
(0.000697782 0.000824525 0.0105058)
(0.000243065 0.000885266 0.010563)
(-8.46292e-05 0.00136809 0.010799)
(-0.000877909 0.0014752 0.0113498)
(0.000262279 0.000468185 0.0115307)
(-0.000153565 0.000518615 0.0115467)
(-0.000198492 0.000742192 0.0113293)
(-0.000741153 0.000736432 0.0111199)
(0.000123565 -0.000295417 0.0119152)
(-0.000663616 9.5771e-06 0.011981)
(-0.000922022 0.000299684 0.0116589)
(-0.00109904 0.000437947 0.0118292)
(-6.02849e-05 0.00142412 0.00993863)
(-8.74381e-05 0.00106085 0.00997943)
(0.000112429 0.00117716 0.00971697)
(0.000260201 0.000652038 0.00957133)
(0.0001766 0.000908176 0.0110904)
(3.39814e-05 0.000733509 0.0105966)
(0.000336319 0.000980843 0.0104497)
(0.000337754 0.000517514 0.00990846)
(-0.000332431 0.000856393 0.0111944)
(-0.000338864 6.043e-05 0.0112807)
(0.000310551 -0.000114253 0.011316)
(1.5694e-05 0.000541878 0.0104276)
(-0.000600586 -0.000200038 0.011972)
(-0.000769017 -0.000108951 0.0118737)
(-0.000823633 -0.000119051 0.0114697)
(-0.000500292 -6.83186e-05 0.0105569)
(1.7099e-05 0.000173471 0.00960142)
(0.000465837 0.000159274 0.0097641)
(0.000349174 0.000109287 0.00979139)
(0.000219534 -3.62396e-05 0.0097525)
(6.20218e-05 0.000114593 0.010471)
(0.000156534 -0.000512426 0.0103423)
(2.00052e-05 0.000169173 0.0102846)
(-0.000493272 0.000169597 0.00973731)
(0.00117169 0.000373201 0.0115282)
(-8.10087e-05 -0.000346766 0.010588)
(-0.000294791 -0.000225168 0.0104741)
(-0.000327198 0.00016914 0.0101097)
(0.000103442 0.00107753 0.0113779)
(-0.000353085 -7.38756e-05 0.0109888)
(-7.41235e-05 -0.000110819 0.0107269)
(2.38119e-05 0.00036895 0.0105502)
(-0.0002072 -0.000371525 0.00969602)
(-0.00011254 -0.000591514 0.00954643)
(-2.63948e-05 -0.000747099 0.0089865)
(-0.000380092 -0.00119807 0.00864408)
(-0.000375144 -0.000119211 0.00953614)
(5.82421e-05 -0.000375973 0.00973603)
(-7.85348e-05 -0.000561544 0.00991916)
(-0.000330248 -0.000289652 0.00945663)
(0.000472965 0.000498311 0.0105741)
(-0.000601766 -0.000620983 0.009283)
(0.000409636 -5.90121e-06 0.0103409)
(5.36694e-05 -0.000172742 0.00930409)
(0.000695384 0.00117547 0.0106887)
(0.000967166 -2.37756e-05 0.00984374)
(0.000831 -0.000140634 0.0098929)
(0.000804015 0.000755813 0.00941565)
(0 0 0)
(0 0 0)
(0 0 0)
(0 0 0)
(0 0 0)
(0 0 0)
(0 0 0)
(0 0 0)
(0 0 0)
(0 0 0)
(0 0 0)
(0 0 0)
(0 0 0)
(0 0 0)
(0 0 0)
(0 0 0)
(0 0 0)
(0 0 0)
(0 0 0)
(0 0 0)
(0 0 0)
(0 0 0)
(0 0 0)
(0 0 0)
(0 0 0)
(0 0 0)
(0 0 0)
(0 0 0)
(0 0 0)
(0 0 0)
(0 0 0)
(0 0 0)
(0 0 0)
(0 0 0)
(0 0 0)
(0 0 0)
(0 0 0)
(0 0 0)
(0 0 0)
(0 0 0)
(0 0 0)
(0 0 0)
(0 0 0)
(0 0 0)
(0 0 0)
(0 0 0)
(0 0 0)
(0 0 0)
(0 0 0)
(0 0 0)
(0 0 0)
(0 0 0)
(0 0 0)
(0 0 0)
(0 0 0)
(0 0 0)
(0 0 0)
(0 0 0)
(0 0 0)
(0 0 0)
(0 0 0)
(0 0 0)
(0 0 0)
(0 0 0)
(0 0 0)
(0 0 0)
(0 0 0)
(0 0 0)
(0 0 0)
(0 0 0)
(0 0 0)
(0 0 0)
(0 0 0)
(0 0 0)
(0 0 0)
(0 0 0)
(0 0 0)
(0 0 0)
(0 0 0)
(0 0 0)
(0 0 0)
(0 0 0)
(0 0 0)
(0 0 0)
(0 0 0)
(0 0 0)
(0 0 0)
(0 0 0)
(0 0 0)
(0 0 0)
(0 0 0)
(0 0 0)
(0 0 0)
(0 0 0)
(0 0 0)
(0 0 0)
(0 0 0)
(0 0 0)
(0 0 0)
(0 0 0)
(0 0 0)
(0 0 0)
(0 0 0)
(0 0 0)
(0 0 0)
(0 0 0)
(0 0 0)
(0 0 0)
(0 0 0)
(0 0 0)
(0 0 0)
(0 0 0)
(0 0 0)
(0 0 0)
(0 0 0)
(0 0 0)
(0 0 0)
(0 0 0)
(0 0 0)
(0 0 0)
(0 0 0)
(0 0 0)
(0 0 0)
(0 0 0)
(0 0 0)
(0 0 0)
(0 0 0)
(0 0 0)
(0 0 0)
(0 0 0)
(0 0 0)
(0 0 0)
(0 0 0)
(0 0 0)
(0 0 0)
(0 0 0)
(0 0 0)
(0 0 0)
(0 0 0)
(0 0 0)
(0 0 0)
(0 0 0)
(0 0 0)
(0 0 0)
(0 0 0)
(0 0 0)
(0 0 0)
(0 0 0)
(0 0 0)
(0 0 0)
(0 0 0)
(0 0 0)
(0 0 0)
(0 0 0)
(0 0 0)
(0 0 0)
(0 0 0)
(0 0 0)
(0 0 0)
(0 0 0)
(0 0 0)
(0 0 0)
(0 0 0)
(0 0 0)
(0 0 0)
(0 0 0)
(0 0 0)
(0 0 0)
(0 0 0)
(0 0 0)
(0 0 0)
(0 0 0)
(0 0 0)
(0 0 0)
(0 0 0)
(0 0 0)
(0 0 0)
(0 0 0)
(0 0 0)
(0 0 0)
(0 0 0)
(0 0 0)
(0 0 0)
(0 0 0)
(0 0 0)
(0 0 0)
(0 0 0)
(0 0 0)
(0 0 0)
(0 0 0)
(0 0 0)
(0 0 0)
(0 0 0)
(0 0 0)
(0 0 0)
(0 0 0)
(0 0 0)
(0 0 0)
(0 0 0)
(0 0 0)
(0 0 0)
(0 0 0)
(0 0 0)
(0 0 0)
(0 0 0)
(0 0 0)
(0 0 0)
(0 0 0)
(0 0 0)
(0 0 0)
(0 0 0)
(0 0 0)
(0 0 0)
(0 0 0)
(0 0 0)
(0 0 0)
(0 0 0)
(0 0 0)
(0 0 0)
(0 0 0)
(0 0 0)
(0 0 0)
(0 0 0)
(0 0 0)
(0 0 0)
(0 0 0)
(0 0 0)
(0 0 0)
(0 0 0)
(0 0 0)
(0 0 0)
(0 0 0)
(0 0 0)
(0 0 0)
(0 0 0)
(0 0 0)
(0 0 0)
(0 0 0)
(0 0 0)
(0 0 0)
(0 0 0)
(0 0 0)
(0 0 0)
(0 0 0)
(0 0 0)
(0 0 0)
(0 0 0)
(0 0 0)
(0 0 0)
(0 0 0)
(0 0 0)
(0 0 0)
(0 0 0)
(0 0 0)
(0 0 0)
(0 0 0)
(0 0 0)
(0 0 0)
(0 0 0)
(0 0 0)
(0 0 0)
(0 0 0)
(0 0 0)
(0 0 0)
(0 0 0)
(0 0 0)
(0 0 0)
(0 0 0)
(0 0 0)
(0 0 0)
(0 0 0)
(0 0 0)
(-0.000164672 0.000177829 0.000188325)
(-0.000222324 0.000237148 0.000184912)
(-0.000899322 0.000519061 5.49425e-05)
(-0.000601509 0.00042344 0.000166279)
(-2.94677e-05 0.000201052 6.0992e-06)
(-7.73852e-05 9.67806e-05 0.000436807)
(-0.000272932 0.000233942 -1.32851e-05)
(-0.000291342 0.000174165 0.000362871)
(1.48654e-05 0.000272747 -0.0002766)
(-8.63478e-06 0.000226095 0.000103714)
(-0.000179891 0.000233929 0.000130226)
(-8.90564e-05 0.000283736 -1.09798e-05)
(0.000206271 0.000269269 -7.8807e-05)
(8.63973e-06 8.91643e-05 -6.19962e-05)
(-0.000423244 0.000172496 -0.000139023)
(-0.000444644 9.82036e-05 -7.71333e-05)
(-0.000764194 0.000821409 0.00681243)
(-0.00211567 0.00160822 0.00816541)
(-0.00146687 0.000664238 0.00616206)
(-0.000970254 0.000803643 0.00749396)
(-0.000743312 0.000329322 0.00606141)
(-0.00195066 -0.000270078 0.0093591)
(-0.0016332 0.000196823 0.00684835)
(-0.00176736 8.37862e-05 0.0089859)
(-0.000206221 0.000875566 0.00584511)
(-0.000396369 0.00067496 0.00642588)
(-0.00034919 0.000807689 0.00810468)
(-0.000950644 8.36092e-05 0.00941647)
(0.000125641 0.000942956 0.00568191)
(0.00120001 0.000903038 0.00635718)
(-0.000363744 0.00127726 0.00596677)
(-0.00110442 0.000265589 0.00687079)
(-0.000597232 0.0011677 0.0105125)
(-0.000892402 0.00080649 0.00947327)
(0.000230221 0.000665315 0.00993479)
(-0.000423964 0.000984297 0.00901645)
(-0.000450991 0.000954471 0.0078402)
(5.40429e-06 0.000989843 0.00949985)
(0.000129214 0.00037652 0.0101495)
(-0.000280403 0.000532781 0.0100745)
(-0.00014743 0.00117119 0.00687582)
(0.000139525 0.00105224 0.00856981)
(0.000355029 -0.000133935 0.0100702)
(-9.6837e-05 -3.34157e-05 0.0100724)
(-0.000214197 0.000968974 0.00620149)
(0.000923504 0.000717526 0.00815771)
(-1.26766e-05 0.000904605 0.00861932)
(-0.000291242 0.000180093 0.0103446)
(-0.00137431 0.00245866 0.00837359)
(-0.000454452 0.00180456 0.0092702)
(0.000186167 0.000601296 0.0102918)
(0.000128931 0.000928558 0.00972087)
(-0.00125097 0.00247681 0.00776909)
(0.000156027 0.00130035 0.0100307)
(0.000279793 0.000667571 0.00926773)
(0.000355098 0.00118312 0.00996772)
(-0.000429639 0.00152167 0.00687914)
(0.000167012 -8.94578e-05 0.0101264)
(7.77469e-06 0.0007354 0.0104417)
(7.71318e-05 0.000558182 0.0108357)
(-0.000736997 0.000520138 0.00754348)
(-0.000189623 0.000233518 0.0088796)
(-0.000637011 0.000400423 0.0114285)
(-0.00033004 -0.000256514 0.0121075)
(0.000178521 0.000523409 0.0079312)
(1.52426e-05 0.00139785 0.00872625)
(0.000668831 0.00128829 0.00865345)
(0.000100818 0.0010952 0.00947264)
(-0.000537062 0.00100926 0.00786321)
(-0.000105408 0.000600717 0.00925577)
(-0.000234388 0.00048035 0.00987427)
(0.000603423 0.000578315 0.0117028)
(4.32152e-05 0.00123574 0.00807212)
(3.00456e-05 0.000392195 0.00950372)
(0.000493831 9.4389e-05 0.0121804)
(0.000612627 0.000123418 0.0118369)
(9.31608e-05 -0.000351638 0.00946208)
(0.000521936 9.92985e-05 0.00940936)
(-0.000478185 -0.000105744 0.0110142)
(-0.000115773 -0.000203588 0.0121069)
(0.00113483 0.000234487 0.00664126)
(0.00105632 0.000586178 0.00733543)
(0.0010217 0.000987964 0.00829455)
(0.000427069 0.000202324 0.00964256)
(0.000548517 -0.000237271 0.00605236)
(0.00106762 0.000443605 0.00904003)
(0.000678577 0.000177061 0.00958572)
(0.000151646 0.00099274 0.0100181)
(0.00104383 0.000280307 0.00672307)
(0.0016688 0.000702358 0.00892568)
(0.00196642 0.000928464 0.0101586)
(0.00140939 0.001502 0.0113588)
(9.27549e-05 0.000105134 0.00769226)
(0.000886084 -0.000572213 0.00973956)
(0.000835619 0.000850177 0.0102004)
(0.000445164 0.000919945 0.0111666)
(-0.000801654 0.000302743 0.00571498)
(-0.000222937 0.00082088 0.00804816)
(0.000632271 -0.000649447 0.00878568)
(0.000197165 -0.000246814 0.00945599)
(-0.000500237 0.00152264 0.00463064)
(0.00183546 0.00185426 0.00833017)
(0.00166571 0.000991088 0.0101795)
(-0.000724957 0.00104944 0.00969997)
(0.000228787 -0.000311368 0.00580693)
(-0.0013561 -0.00295071 0.00713463)
(0.00041018 -0.000786207 0.009632)
(0.000903093 0.000839036 0.0103726)
(0.000375422 -3.25276e-05 0.00722314)
(0.000745943 -0.000994825 0.00963633)
(0.000354292 0.000671023 0.00984641)
(0.00138146 0.00121124 0.0100596)
(0 0 0)
(0 0 0)
(0 0 0)
(0 0 0)
(0 0 0)
(0 0 0)
(0 0 0)
(0 0 0)
(0 0 0)
(0 0 0)
(0 0 0)
(0 0 0)
(0 0 0)
(0 0 0)
(0 0 0)
(0 0 0)
(0 0 0)
(0 0 0)
(0 0 0)
(0 0 0)
(0 0 0)
(0 0 0)
(0 0 0)
(0 0 0)
(0 0 0)
(0 0 0)
(0 0 0)
(0 0 0)
(0 0 0)
(0 0 0)
(0 0 0)
(0 0 0)
(0 0 0)
(0 0 0)
(0 0 0)
(0 0 0)
(0 0 0)
(0 0 0)
(0 0 0)
(0 0 0)
(0 0 0)
(0 0 0)
(0 0 0)
(0 0 0)
(0 0 0)
(0 0 0)
(0 0 0)
(0 0 0)
(0 0 0)
(0 0 0)
(0 0 0)
(0 0 0)
(0 0 0)
(0 0 0)
(0 0 0)
(0 0 0)
(0 0 0)
(0 0 0)
(0 0 0)
(0 0 0)
(0 0 0)
(0 0 0)
(0 0 0)
(0 0 0)
(0 0 0)
(0 0 0)
(0 0 0)
(0 0 0)
(0 0 0)
(0 0 0)
(0 0 0)
(0 0 0)
(0 0 0)
(0 0 0)
(0 0 0)
(0 0 0)
(0 0 0)
(0 0 0)
(0 0 0)
(0 0 0)
(0 0 0)
(0 0 0)
(0 0 0)
(0 0 0)
(0 0 0)
(0 0 0)
(0 0 0)
(0 0 0)
(0 0 0)
(0 0 0)
(0 0 0)
(0 0 0)
(0 0 0)
(0 0 0)
(0 0 0)
(0 0 0)
(0 0 0)
(0 0 0)
(0 0 0)
(0 0 0)
(0 0 0)
(0 0 0)
(0 0 0)
(0 0 0)
(0 0 0)
(0 0 0)
(0 0 0)
(0 0 0)
(0 0 0)
(0 0 0)
(0 0 0)
(0 0 0)
(0 0 0)
(0 0 0)
(0 0 0)
(0 0 0)
(0 0 0)
(0 0 0)
(0 0 0)
(0 0 0)
(0 0 0)
(0 0 0)
(0 0 0)
(0 0 0)
(0 0 0)
(0 0 0)
(0 0 0)
(0 0 0)
(0 0 0)
(0 0 0)
(0 0 0)
(0 0 0)
(0 0 0)
(0 0 0)
(0 0 0)
(0 0 0)
(0 0 0)
(0 0 0)
(0 0 0)
(0 0 0)
(0 0 0)
(0 0 0)
(0 0 0)
(0 0 0)
(0 0 0)
(0 0 0)
(0 0 0)
(0 0 0)
(0 0 0)
(0 0 0)
(0 0 0)
(0 0 0)
(0 0 0)
(0 0 0)
(0 0 0)
(0 0 0)
(0 0 0)
(0 0 0)
(0 0 0)
(0 0 0)
(0 0 0)
(0 0 0)
(0 0 0)
(0 0 0)
(0 0 0)
(0 0 0)
(0 0 0)
(0 0 0)
(0 0 0)
(0 0 0)
(0 0 0)
(0 0 0)
(0 0 0)
(0 0 0)
(0 0 0)
(0 0 0)
(0 0 0)
(0 0 0)
(0 0 0)
(0 0 0)
(0 0 0)
(0 0 0)
(0 0 0)
(0 0 0)
(0 0 0)
(0 0 0)
(0 0 0)
(0 0 0)
(0 0 0)
(0 0 0)
(0 0 0)
(0 0 0)
(0 0 0)
(0 0 0)
(0 0 0)
(0 0 0)
(0 0 0)
(0 0 0)
(0 0 0)
(0 0 0)
(0 0 0)
(0 0 0)
(0 0 0)
(0 0 0)
(0 0 0)
(0 0 0)
(0 0 0)
(0 0 0)
(0 0 0)
(0 0 0)
(0 0 0)
(0 0 0)
(0 0 0)
(0 0 0)
(0 0 0)
(0 0 0)
(0 0 0)
(0 0 0)
(0 0 0)
(0 0 0)
(0 0 0)
(0 0 0)
(0 0 0)
(0 0 0)
(0 0 0)
(0 0 0)
(0 0 0)
(0 0 0)
(0 0 0)
(0 0 0)
(0 0 0)
(0 0 0)
(0 0 0)
(0 0 0)
(0 0 0)
(0 0 0)
(0 0 0)
(0 0 0)
(0 0 0)
(0 0 0)
(0 0 0)
(0 0 0)
(0 0 0)
(0 0 0)
(0 0 0)
(0 0 0)
(0 0 0)
(0 0 0)
(0 0 0)
(0 0 0)
(0 0 0)
(0 0 0)
(0 0 0)
(0 0 0)
(0 0 0)
(0 0 0)
(0 0 0)
(0 0 0)
(0 0 0)
(0 0 0)
(0 0 0)
(0 0 0)
(0 0 0)
(0 0 0)
(0 0 0)
(0 0 0)
(0 0 0)
(0 0 0)
(0 0 0)
(0 0 0)
(0 0 0)
(0 0 0)
(-0.000544315 0.000353508 -2.3822e-05)
(-0.000264019 -0.000214862 -0.000334864)
(-0.000155035 0.000171463 -0.000191086)
(-3.83931e-06 2.16057e-05 -6.0622e-05)
(-0.000331287 0.000182417 -8.33292e-05)
(-0.000337484 8.82024e-05 -0.000330412)
(0.000357406 0.000510354 -0.000146129)
(-0.000166341 0.000189819 0.000188804)
(-0.000243736 0.000211066 -1.60658e-05)
(0.000251116 0.000226246 -0.000600861)
(2.74448e-05 0.000356925 9.08712e-05)
(0.000713292 -0.0008165 -0.000665625)
(-0.000308319 0.000406929 -4.18943e-05)
(2.63521e-05 0.00099212 -0.00055985)
(-0.000225931 0.000325048 3.42476e-06)
(-0.000218655 -2.95158e-05 -5.98158e-05)
(-0.00138571 0.00191576 0.00994078)
(-0.00217024 0.00110823 0.00815741)
(-0.000680258 0.00160049 0.00631562)
(-0.00168694 -0.000331576 0.00611417)
(-0.0003975 0.00266341 0.00501344)
(-0.00108034 0.00146603 0.00486107)
(0.000416414 0.0011741 0.0071909)
(-0.00256892 -0.000229471 0.0100139)
(-0.00134543 0.00100861 0.00736433)
(-0.00113761 0.00140446 0.00669729)
(-0.000884566 0.00194312 0.00776819)
(-0.000379784 0.00127642 0.00435814)
(-0.00100171 5.88614e-05 0.00721947)
(-0.000589729 0.0013836 0.00873171)
(0.000941448 0.0025412 0.00942585)
(-0.00052637 0.00157533 0.00638463)
(-0.000281561 0.00102156 0.00925884)
(-0.00104245 0.00205195 0.00933765)
(-0.000951283 0.000514331 0.0082895)
(-0.00247731 -0.000236544 0.00846837)
(-0.000593409 0.00146701 0.0100093)
(-0.000855483 0.00139677 0.00864834)
(-0.000837149 0.000930988 0.00934005)
(-0.00215216 0.000967993 0.00946298)
(-0.00136411 0.000925675 0.0120213)
(-0.000732428 0.00157114 0.00902595)
(-0.000496086 0.00154715 0.010108)
(-0.000424688 0.00149407 0.00943438)
(-0.00137979 0.000764724 0.0103005)
(-0.00116674 0.0012009 0.0102532)
(0.00044409 0.00132915 0.00959061)
(-0.000663368 0.00161949 0.00929396)
(-0.000902553 0.00115406 0.00880294)
(-0.000374944 0.00087866 0.00652449)
(-0.000455709 0.00114234 0.00723261)
(0.000558605 0.000364811 0.00823509)
(-5.52222e-05 0.000221656 0.0116595)
(0.000670007 0.00142305 0.00825012)
(0.000556572 0.00187092 0.00829469)
(0.000344092 0.00154086 0.00837799)
(0.00101667 0.000280031 0.0126471)
(0.000616324 0.00189371 0.00915286)
(0.000435087 0.00194067 0.00898454)
(0.000443533 0.00129162 0.0091368)
(0.000234548 0.00214721 0.00990146)
(-0.000270546 0.00205208 0.00915422)
(-9.02457e-05 0.00118857 0.0097231)
(9.0946e-05 0.00162736 0.0106024)
(0.000119348 0.00052123 0.00759773)
(-7.35517e-05 0.000145765 0.00549085)
(-0.000321459 0.000392669 0.00717142)
(-0.000895964 -0.000217505 0.00660291)
(0.000244918 0.000812349 0.00812799)
(0.000118926 0.00114169 0.00748924)
(-0.000421346 0.000972209 0.00760236)
(-0.000249041 0.00101336 0.00773555)
(0.000661047 0.00138947 0.00842393)
(-2.0784e-05 0.00125609 0.00846128)
(-4.13208e-05 0.00112417 0.00891464)
(-0.000796952 0.000645551 0.00969945)
(0.0002143 0.00154995 0.00938794)
(-0.000186022 0.00135524 0.00983674)
(-9.73873e-05 0.00119238 0.00945496)
(-7.34394e-05 0.000637965 0.00980265)
(0.000319345 -5.93409e-05 0.00628956)
(-0.000363752 0.000331508 0.00645779)
(-0.000440937 0.000771486 0.00559595)
(-0.00134831 0.00147386 0.00608233)
(0.000192173 0.000524293 0.00814397)
(-0.000840763 0.000812261 0.00713828)
(-0.000651813 0.000800286 0.00698929)
(-0.000186297 0.000419781 0.00705054)
(2.36181e-05 0.000472313 0.00833559)
(-0.000193589 0.000239169 0.00814081)
(6.6038e-05 0.000317839 0.00852902)
(2.56909e-06 0.000463133 0.00876527)
(0.000272485 0.00011973 0.00867513)
(-9.71301e-05 -0.000306766 0.00947954)
(-0.000153596 0.000107013 0.00915208)
(8.17088e-05 0.000156253 0.00895938)
(0.000457668 0.000224388 0.00637114)
(-0.000694319 0.000902701 0.00620817)
(6.02036e-05 -0.00102334 0.00353352)
(0.00062175 -0.00060525 0.0051383)
(0.000455133 0.00036151 0.00789939)
(0.000595895 0.0007448 0.00682581)
(0.000406776 -0.00112615 0.00647004)
(0.000464308 -0.00067951 0.00705152)
(7.79275e-05 -6.6238e-05 0.00896031)
(0.00109249 0.00117572 0.00771083)
(0.000507505 -0.000737067 0.00798)
(0.000300176 -0.000867593 0.00881572)
(-0.000148491 -7.86122e-05 0.00923487)
(-4.12697e-05 0.000254098 0.00932464)
(4.55861e-05 -0.000875238 0.00848483)
(0.000171376 -0.000842692 0.00874156)
(0 0 0)
(0 0 0)
(0 0 0)
(0 0 0)
(0 0 0)
(0 0 0)
(-0.000905152 -0.00139855 0.00523811)
(0 0 0)
(0 0 0)
(0 0 0)
(0 0 0)
(0 0 0)
(0 0 0)
(0 0 0)
(0 0 0)
(0 0 0)
(0 0 0)
(0 0 0)
(0 0 0)
(0 0 0)
(0 0 0)
(0 0 0)
(0 0 0)
(0 0 0)
(0 0 0)
(0 0 0)
(0 0 0)
(0 0 0)
(0 0 0)
(0 0 0)
(0 0 0)
(0 0 0)
(0 0 0)
(0 0 0)
(0 0 0)
(0 0 0)
(0 0 0)
(0 0 0)
(0 0 0)
(0 0 0)
(0 0 0)
(0 0 0)
(0 0 0)
(0 0 0)
(0 0 0)
(0 0 0)
(0 0 0)
(0 0 0)
(0 0 0)
(0 0 0)
(0 0 0)
(0 0 0)
(0 0 0)
(0 0 0)
(0 0 0)
(0 0 0)
(0 0 0)
(0 0 0)
(0 0 0)
(0 0 0)
(0 0 0)
(0 0 0)
(0 0 0)
(0 0 0)
(0 0 0)
(0 0 0)
(0 0 0)
(0 0 0)
(0 0 0)
(0 0 0)
(0 0 0)
(0 0 0)
(0 0 0)
(0 0 0)
(0 0 0)
(0 0 0)
(0 0 0)
(0 0 0)
(0 0 0)
(0 0 0)
(0 0 0)
(0 0 0)
(0 0 0)
(0 0 0)
(0 0 0)
(0 0 0)
(0 0 0)
(0 0 0)
(0 0 0)
(0 0 0)
(0 0 0)
(0 0 0)
(0 0 0)
(0 0 0)
(0 0 0)
(0 0 0)
(0 0 0)
(0 0 0)
(0 0 0)
(0 0 0)
(0 0 0)
(0 0 0)
(0 0 0)
(0 0 0)
(0 0 0)
(0 0 0)
(0 0 0)
(0 0 0)
(0 0 0)
(0 0 0)
(0 0 0)
(0 0 0)
(0 0 0)
(0 0 0)
(0 0 0)
(0 0 0)
(0 0 0)
(0 0 0)
(0 0 0)
(0 0 0)
(0 0 0)
(0 0 0)
(0 0 0)
(0 0 0)
(0 0 0)
(0 0 0)
(0 0 0)
(0 0 0)
(0 0 0)
(0 0 0)
(0 0 0)
(0 0 0)
(0 0 0)
(0 0 0)
(0 0 0)
(0 0 0)
(0 0 0)
(0 0 0)
(0 0 0)
(0 0 0)
(0 0 0)
(0 0 0)
(0 0 0)
(0 0 0)
(0 0 0)
(0 0 0)
(0 0 0)
(0 0 0)
(0 0 0)
(0 0 0)
(0 0 0)
(0 0 0)
(0 0 0)
(0 0 0)
(0 0 0)
(0 0 0)
(0 0 0)
(0 0 0)
(0 0 0)
(0 0 0)
(0 0 0)
(0 0 0)
(0 0 0)
(0 0 0)
(0 0 0)
(0 0 0)
(0 0 0)
(0 0 0)
(0 0 0)
(0 0 0)
(0 0 0)
(0 0 0)
(0 0 0)
(0 0 0)
(0 0 0)
(0 0 0)
(0 0 0)
(0 0 0)
(0 0 0)
(0 0 0)
(0 0 0)
(0 0 0)
(0 0 0)
(0 0 0)
(0 0 0)
(0 0 0)
(0 0 0)
(0 0 0)
(0 0 0)
(0 0 0)
(0 0 0)
(0 0 0)
(0 0 0)
(0 0 0)
(0 0 0)
(0 0 0)
(0 0 0)
(0 0 0)
(0 0 0)
(0 0 0)
(0 0 0)
(0 0 0)
(0 0 0)
(0 0 0)
(0 0 0)
(0 0 0)
(0 0 0)
(0 0 0)
(0 0 0)
(0 0 0)
(0 0 0)
(0 0 0)
(0 0 0)
(0 0 0)
(0 0 0)
(0 0 0)
(0 0 0)
(0 0 0)
(0 0 0)
(0 0 0)
(0 0 0)
(0 0 0)
(0 0 0)
(0 0 0)
(0 0 0)
(0 0 0)
(0 0 0)
(0 0 0)
(0 0 0)
(0 0 0)
(0 0 0)
(0 0 0)
(0 0 0)
(0 0 0)
(0 0 0)
(0 0 0)
(0 0 0)
(0 0 0)
(0 0 0)
(0 0 0)
(0 0 0)
(0 0 0)
(0 0 0)
(0 0 0)
(0 0 0)
(0 0 0)
(0 0 0)
(0 0 0)
(0 0 0)
(0 0 0)
(0 0 0)
(0 0 0)
(0 0 0)
(0 0 0)
(0 0 0)
(0 0 0)
(0 0 0)
(0 0 0)
(0 0 0)
(0 0 0)
(0 0 0)
(0 0 0)
(0 0 0)
(0 0 0)
(0 0 0)
(0 0 0)
(0 0 0)
(0 0 0)
(0 0 0)
(0 0 0)
(0 0 0)
(0 0 0)
)
;

boundaryField
{
    inlet
    {
        type            zeroGradient;
    }
    outlet
    {
        type            zeroGradient;
    }
    wall
    {
        type            zeroGradient;
    }
    procBoundary0to1
    {
        type            processor;
        value           nonuniform List<vector> 
192
(
(-0.000596746 -9.47828e-06 0.000116051)
(-0.000432002 0.000179748 0.000237019)
(-0.000553909 0.00109183 0.000430716)
(-0.000643331 -0.000149546 0.000225406)
(-0.00193739 0.00169844 0.00331427)
(-0.00168485 0.0016282 0.00525303)
(-0.00159814 0.00167613 0.00776421)
(-0.000819247 0.000784943 0.0056643)
(-0.000513398 0.00168196 0.0106015)
(-0.000604436 0.00166363 0.0109604)
(-0.0010824 0.00115379 0.0121533)
(-0.000654484 0.000424553 0.0117079)
(-0.000121661 0.00143111 0.00986701)
(-7.50015e-05 0.00168547 0.0103178)
(-0.000192408 0.000998103 0.0107641)
(-0.000102062 0.000546819 0.0104124)
(0.000394834 0.000812482 0.0103864)
(0.000385095 0.000576468 0.0101445)
(0.000171124 0.000299932 0.0101027)
(-0.000221855 0.000199778 0.0108458)
(0.00028652 0.000190503 0.00935984)
(-0.000449966 0.000110676 0.00942599)
(-0.000124132 -0.000461659 0.0101782)
(0.000600386 0.000216128 0.00957845)
(0.000285423 -0.000269006 0.00811549)
(-0.00023527 0.000671779 0.00920349)
(0.000141697 0.000433325 0.00884971)
(0.000319811 0.000442422 0.00943872)
(0 0 0)
(0 0 0)
(0 0 0)
(0.000634369 -0.000585574 0.00893603)
(0 0 0)
(0 0 0)
(0 0 0)
(0 0 0)
(0 0 0)
(0 0 0)
(0 0 0)
(0 0 0)
(0 0 0)
(0 0 0)
(0 0 0)
(0 0 0)
(0 0 0)
(0 0 0)
(0 0 0)
(0 0 0)
(0 0 0)
(0 0 0)
(0 0 0)
(0 0 0)
(0 0 0)
(0 0 0)
(0 0 0)
(0 0 0)
(0 0 0)
(0 0 0)
(0 0 0)
(0 0 0)
(0 0 0)
(0 0 0)
(0 0 0)
(0 0 0)
(0 0 0)
(0 0 0)
(0 0 0)
(0 0 0)
(0 0 0)
(0 0 0)
(0 0 0)
(0 0 0)
(0 0 0)
(0 0 0)
(0 0 0)
(0 0 0)
(0 0 0)
(0 0 0)
(0 0 0)
(0 0 0)
(0 0 0)
(0 0 0)
(0 0 0)
(0 0 0)
(0 0 0)
(0 0 0)
(0 0 0)
(0 0 0)
(0 0 0)
(0 0 0)
(0 0 0)
(0 0 0)
(0 0 0)
(0 0 0)
(0 0 0)
(0 0 0)
(0.00038902 0.000185312 -0.000105346)
(-0.000208354 0.000112712 -0.000119211)
(-0.000232147 0.000140662 5.17332e-05)
(-0.000139706 -0.000309567 9.00301e-05)
(-0.00262546 0.0021604 0.00442104)
(-0.00182714 0.00119933 0.00520587)
(-0.00104509 0.00209487 0.00764087)
(-0.00203832 0.000888608 0.00557068)
(-0.00119852 0.00137431 0.00657614)
(-0.00123802 0.0016061 0.00880144)
(-0.000309334 0.00242266 0.00814652)
(-0.000678787 0.00222441 0.00893236)
(0.000314542 -0.000137194 0.00571519)
(-0.000286718 0.000951162 0.00732535)
(0.000295132 0.00210482 0.00781445)
(-0.000299224 0.000801612 0.0103612)
(-0.000545378 0.000405679 0.00515797)
(-0.000727857 0.00104985 0.00680919)
(-0.000136426 0.000939885 0.00855115)
(-0.000193287 0.000657175 0.010049)
(-0.000450726 0.000469791 0.00427467)
(8.79401e-05 0.000236298 0.00646644)
(0.000260107 -0.000254968 0.00839341)
(-0.000177234 -0.000191194 0.00903419)
(0.00147924 -0.000519662 0.00323581)
(0.00128956 -0.00107477 0.00552958)
(0.000539506 -0.00150417 0.00801406)
(2.07962e-05 -0.000729365 0.00843826)
(0 0 0)
(0 0 0)
(0 0 0)
(0 0 0)
(0 0 0)
(0 0 0)
(0 0 0)
(0 0 0)
(0 0 0)
(0 0 0)
(0 0 0)
(0 0 0)
(0 0 0)
(0 0 0)
(0 0 0)
(0 0 0)
(0 0 0)
(0 0 0)
(0 0 0)
(0 0 0)
(0 0 0)
(0 0 0)
(0 0 0)
(0 0 0)
(0 0 0)
(0 0 0)
(0 0 0)
(0 0 0)
(0 0 0)
(0 0 0)
(0 0 0)
(0 0 0)
(0 0 0)
(0 0 0)
(0 0 0)
(0 0 0)
(0 0 0)
(0 0 0)
(0 0 0)
(0 0 0)
(0 0 0)
(0 0 0)
(0 0 0)
(0 0 0)
(0 0 0)
(0 0 0)
(0 0 0)
(0 0 0)
(0 0 0)
(0 0 0)
(0 0 0)
(0 0 0)
(0 0 0)
(0 0 0)
(0 0 0)
(0 0 0)
(0 0 0)
(0 0 0)
(0 0 0)
(0 0 0)
(0 0 0)
(0 0 0)
(0 0 0)
(0 0 0)
(0 0 0)
(0 0 0)
(0 0 0)
(0 0 0)
)
;
    }
    procBoundary0to2
    {
        type            processor;
        value           nonuniform List<vector> 
192
(
(-0.000587907 9.81499e-05 0.000103058)
(-0.00050728 -0.000197789 0.000206562)
(-0.00048473 0.000231429 0.000205973)
(-0.00029702 0.000154392 0.000150321)
(-0.00093928 -0.000420985 0.00756305)
(-0.000502072 -0.000286094 0.00652767)
(0.000310796 -6.33826e-05 0.00646068)
(-0.001385 -0.000533541 0.00532192)
(-0.000797942 -0.000255228 0.0114611)
(-0.000212592 0.000148039 0.00858577)
(-0.000800918 -4.56419e-05 0.0104565)
(-0.000560894 -0.00111127 0.0130107)
(-0.000615137 -0.000768829 0.0116643)
(-0.000417215 -3.58048e-05 0.011708)
(-0.00133617 -0.000235785 0.0119598)
(-0.00183793 -0.000879938 0.0121891)
(-0.000654067 -6.16847e-05 0.0113772)
(-0.000266248 0.000398205 0.0122743)
(-0.000786385 8.92765e-05 0.0110592)
(-0.000674812 -0.000180785 0.0109484)
(-0.000369929 0.000888912 0.0108395)
(-0.000254759 0.000717499 0.0106812)
(-0.000562536 0.000267919 0.0103106)
(-5.74053e-05 0.000263174 0.0101208)
(0.000376407 0.00140609 0.010344)
(0.000353827 0.000468726 0.00988878)
(-3.52424e-05 0.000646591 0.00959938)
(0.000719718 0.00103896 0.00934345)
(0 0 0)
(0 0 0)
(0 0 0)
(0 0 0)
(0 0 0)
(0 0 0)
(0 0 0)
(0 0 0)
(0 0 0)
(0 0 0)
(0 0 0)
(0 0 0)
(0 0 0)
(0 0 0)
(0 0 0)
(0 0 0)
(0 0 0)
(0 0 0)
(0 0 0)
(0 0 0)
(0 0 0)
(0 0 0)
(0 0 0)
(0 0 0)
(0 0 0)
(0 0 0)
(0 0 0)
(0 0 0)
(0 0 0)
(0 0 0)
(0 0 0)
(0 0 0)
(0 0 0)
(0 0 0)
(0 0 0)
(0 0 0)
(0 0 0)
(0 0 0)
(0 0 0)
(0 0 0)
(0 0 0)
(0 0 0)
(0 0 0)
(0 0 0)
(0 0 0)
(0 0 0)
(0 0 0)
(0 0 0)
(0 0 0)
(0 0 0)
(0 0 0)
(0 0 0)
(0 0 0)
(0 0 0)
(0 0 0)
(0 0 0)
(0 0 0)
(0 0 0)
(0 0 0)
(0 0 0)
(0 0 0)
(0 0 0)
(0 0 0)
(0 0 0)
(0 0 0)
(0 0 0)
(0 0 0)
(0 0 0)
(0.000339831 0.000752942 -0.000379437)
(-1.00049e-05 0.000128331 -0.000108854)
(-0.000410392 0.000298256 -4.87259e-05)
(-0.000360379 0.00033014 -3.90213e-05)
(0.000343528 0.000873116 0.00363538)
(-8.85064e-05 0.00123329 0.00445215)
(-0.00135734 -0.000128391 0.003164)
(-0.000943886 -0.000531817 0.0049305)
(0.000595251 5.87153e-05 0.00831302)
(0.000115377 0.000334802 0.00926152)
(-0.00148867 0.000517754 0.00918565)
(-0.000983178 -0.000662552 0.0102008)
(0.000516951 -0.00102079 0.00800918)
(-0.000355428 -0.000324588 0.00960496)
(-0.000159842 -0.000510152 0.0103286)
(1.57397e-05 -0.000591104 0.0108661)
(-0.000239301 -0.000762142 0.0082098)
(-0.000249883 3.92668e-05 0.00974291)
(-0.000215552 -0.000358459 0.010763)
(5.64043e-05 1.077e-05 0.0109082)
(-0.000651568 -0.000149401 0.00722955)
(-0.000563864 -0.000100771 0.00907238)
(-0.000433351 0.00044707 0.00963464)
(-0.000147064 0.000820234 0.0102991)
(-0.000700077 6.31418e-05 0.00534741)
(-0.000965458 0.000858468 0.00889549)
(-0.00165883 0.000410741 0.00902433)
(1.90095e-05 0.00100148 0.00990155)
(0 0 0)
(0 0 0)
(0 0 0)
(0 0 0)
(0 0 0)
(0 0 0)
(0 0 0)
(0 0 0)
(0 0 0)
(0 0 0)
(0 0 0)
(0 0 0)
(0 0 0)
(0 0 0)
(0 0 0)
(0 0 0)
(0 0 0)
(0 0 0)
(0 0 0)
(0 0 0)
(0 0 0)
(0 0 0)
(0 0 0)
(0 0 0)
(0 0 0)
(0 0 0)
(0 0 0)
(0 0 0)
(0 0 0)
(0 0 0)
(0 0 0)
(0 0 0)
(0 0 0)
(0 0 0)
(0 0 0)
(0 0 0)
(0 0 0)
(0 0 0)
(0 0 0)
(0 0 0)
(0 0 0)
(0 0 0)
(0 0 0)
(0 0 0)
(0 0 0)
(0 0 0)
(0 0 0)
(0 0 0)
(0 0 0)
(0 0 0)
(0 0 0)
(0 0 0)
(0 0 0)
(0 0 0)
(0 0 0)
(0 0 0)
(0 0 0)
(0 0 0)
(0 0 0)
(0 0 0)
(0 0 0)
(0 0 0)
(0 0 0)
(0 0 0)
(0 0 0)
(0 0 0)
(0 0 0)
(0 0 0)
)
;
    }
}


// ************************************************************************* //
