/*--------------------------------*- C++ -*----------------------------------*\
| =========                 |                                                 |
| \\      /  F ield         | OpenFOAM: The Open Source CFD Toolbox           |
|  \\    /   O peration     | Version:  2506                                  |
|   \\  /    A nd           | Website:  www.openfoam.com                      |
|    \\/     M anipulation  |                                                 |
\*---------------------------------------------------------------------------*/
FoamFile
{
    version     2.0;
    format      ascii;
    arch        "LSB;label=32;scalar=64";
    class       volScalarField;
    location    "0.008";
    object      p;
}
// * * * * * * * * * * * * * * * * * * * * * * * * * * * * * * * * * * * * * //

dimensions      [0 2 -2 0 0 0 0];

internalField   nonuniform List<scalar> 
512
(
0.353875
0.462654
0.442695
0.0968429
-0.536402
-0.914511
-0.328413
0.154581
-0.0437323
-0.186133
-0.243164
-0.703488
-0.786458
-0.188907
0.183827
0.277529
0.252955
0.0349382
0.0793337
0.268393
0.54124
0.614561
0.532945
0.599966
0.663409
0.251069
-0.0912807
0.100764
-0.0047875
-0.284435
0.126175
0.468116
0.305305
0.47298
0.580866
-0.0127951
-0.837787
-0.906013
-0.19597
0.300073
0.0942639
-0.316325
-0.362156
-0.7032
-0.777159
-0.146306
0.152255
0.135874
0.274857
0.199053
0.0670481
0.211373
0.585383
0.580959
0.361542
0.452841
0.631015
0.332663
0.11353
0.323965
0.237265
-0.17862
-0.059686
0.307264
0.027151
0.437287
0.420946
-0.0315852
-0.521395
-0.737731
-0.124605
0.267449
-0.00920865
-0.43729
-0.363381
-0.288485
-0.71525
-0.813993
-0.171243
0.415642
0.5575
0.277717
0.0764629
0.253443
0.367649
0.228274
0.215116
0.412959
0.602804
0.257214
0.157196
0.395716
0.424089
0.2643
0.166278
0.0592215
-0.0773442
0.164366
0.246158
0.110119
-0.148674
-0.28144
-0.039603
-0.0791212
-0.459311
-0.652272
-0.530819
-0.469642
-0.393672
-0.406025
-0.131417
0.310646
0.460364
0.370836
0.39317
0.629476
0.46392
0.139633
0.0748644
0.063132
0.263524
0.316157
0.141187
0.296263
0.499841
0.504815
0.377968
0.0619406
0.22968
0.25349
0.0250989
-0.0512937
0.0731748
0.173411
-0.0839626
-0.328146
-0.535392
-0.830228
-0.907745
-0.618696
-0.0878554
0.132105
0.0241615
-0.122059
0.225684
0.540589
0.508683
0.341591
0.285632
0.268859
0.130459
0.0181821
0.226476
0.437356
0.239512
0.137113
0.409804
0.472502
0.404343
0.262628
0.162911
0.280094
0.289257
0.434587
0.209033
-0.0534755
-0.352776
-0.640587
-0.929196
-1.13237
-0.979485
-0.533079
-0.260416
-0.0858238
0.1807
0.360367
0.264687
0.259896
0.443586
0.594428
0.408203
0.321001
0.122645
-0.21002
0.266433
0.6496
0.397812
0.187309
0.245086
0.499727
0.527904
0.131261
0.0196054
0.132136
0.672898
1.02204
0.324515
-0.398898
-0.683888
-0.733163
-1.13982
-1.26819
-0.674218
-0.494572
-0.561556
-0.089326
0.364302
0.508236
0.362105
0.166615
0.240516
0.574182
0.502127
0.12949
-0.136004
-0.0100371
0.660718
0.685893
0.400179
-0.00958969
-0.0700592
0.582117
0.699537
0.163959
-0.374895
0.0583742
0.852933
0.96909
0.114917
-0.616655
-0.498392
-0.51633
-1.06887
-1.28174
-0.766571
-0.540318
-0.454091
0.118594
0.394784
0.365371
0.259998
0.081099
0.276799
0.671394
0.323118
-0.00979573
-0.0667569
-0.00113342
0.620875
1.08932
0.595235
-0.148155
-0.0479627
0.504346
0.782113
0.230413
0.467574
0.631068
0.467957
-0.151549
-0.509595
-0.844376
-0.381837
0.0860282
-0.0488976
-0.242998
-0.335806
-0.81217
-0.774186
-0.031649
0.615909
0.55033
-0.14439
-0.0868725
0.346743
0.440198
0.525437
0.596343
0.216365
0.0091393
0.33768
0.342733
0.210931
0.245158
-0.0593244
-0.216587
0.186185
0.549422
0.168572
0.410427
0.509548
-0.0167719
-0.447144
-0.744132
-0.310638
0.164338
-0.184196
-0.638628
-0.424015
-0.375927
-0.593417
-0.215502
0.452555
0.455349
-0.0888461
-0.188486
0.129246
0.448225
0.640655
0.689888
0.156321
-0.178325
0.319887
0.529892
0.318363
0.334275
0.0404894
-0.246443
0.264949
0.518992
0.0339469
0.217891
0.373285
0.216147
-0.110872
-0.35453
0.110297
0.160486
-0.557754
-0.867709
-0.552155
-0.450592
-0.594427
-0.175614
0.310173
0.474411
0.343057
0.100762
0.00604724
0.125376
0.438861
0.548368
0.271596
0.0850047
0.144716
0.209557
0.292477
0.39219
0.202444
0.0284229
0.368566
0.336315
-0.196491
0.107039
0.253653
0.26822
0.0649761
0.180001
0.314104
-0.0178366
-0.814522
-1.20261
-0.740896
-0.297923
-0.259671
-0.322044
-0.0263291
0.412269
0.488291
0.18314
-0.10287
0.259814
0.517428
0.467561
0.201217
-0.0813938
0.0827068
0.319544
0.27086
0.435026
0.599538
0.481784
0.321419
0.0569465
0.176399
0.185168
0.0653175
0.279306
0.204833
0.096496
-0.0812373
-0.404747
-0.793486
-0.932773
-0.58737
-0.25648
-0.305522
-0.147081
0.0527473
0.08638
0.391826
0.398307
0.281408
0.278633
0.233224
0.128909
0.00520832
0.0744056
0.252993
0.321046
0.424183
0.464176
0.367042
0.430995
0.360331
0.154443
0.10468
0.122151
0.337714
0.800431
0.663897
-0.0957156
-0.853961
-0.856441
-0.604788
-0.588426
-0.610844
-0.653756
-0.744849
-0.222756
0.224573
0.309599
0.622417
0.420793
0.289257
0.443878
0.343879
0.087866
-0.164343
0.00907823
0.442887
0.554785
0.483594
0.301987
0.0988039
0.334629
0.407815
0.0969376
-0.067717
0.00358651
0.558279
0.995948
0.539078
-0.438394
-1.12371
-0.642727
-0.378417
-0.645295
-0.81576
-0.938512
-0.8343
-0.0680716
0.324869
0.402722
0.321724
0.168896
0.389563
0.653617
0.367691
0.026501
-0.0668378
-0.0804804
0.42025
0.737205
0.691747
0.197581
-0.222039
0.39849
0.70181
0.225426
-0.15996
-0.202581
0.330261
0.624952
0.184008
-0.185601
-0.327758
-0.423917
-0.539955
-0.8061
-0.75904
-0.664558
-0.625009
0.0458964
0.476319
0.485319
0.155433
0.0303585
0.339841
0.394972
-0.0857525
-0.101436
0.228526
0.205474
0.398235
0.889618
0.755509
0.109824
-0.00919624
0.518068
0.559662
0.194516
)
;

boundaryField
{
    wall
    {
        type            zeroGradient;
    }
    outlet
    {
        type            cyclic;
    }
    inlet
    {
        type            cyclic;
    }
    procBoundary1to0
    {
        type            processor;
        value           nonuniform List<scalar> 
256
(
-0.177837
0.119617
0.571057
0.488643
-0.015314
-0.586283
-0.354395
-0.0448076
-0.281019
-0.761371
-0.521181
-0.229695
-0.455513
-0.285639
0.242533
0.518404
0.539128
0.126238
-0.061176
0.325394
0.635521
0.586811
0.400965
0.567048
0.614291
0.0650302
-0.115175
0.0479172
0.171602
0.178771
0.325798
0.195386
-0.0513096
0.265088
0.412436
0.232842
-0.257842
-0.525532
-0.234124
0.0329604
-0.265549
-0.799774
-0.694384
-0.377489
-0.470323
-0.349713
0.091345
0.609574
0.707676
0.401867
0.110691
0.0458451
0.36333
0.371485
0.230308
0.465037
0.590831
0.301616
0.253073
0.335532
0.250144
0.0349789
0.00859213
-0.0875074
0.0479067
0.307811
0.320947
0.115764
-0.320113
-0.523605
-0.121655
-0.0497724
-0.486916
-0.710477
-0.53642
-0.431612
-0.413854
-0.358311
0.15215
0.509389
0.539497
0.398668
0.3146
0.507207
0.414797
0.200111
0.317703
0.417193
0.489976
0.519325
0.451926
0.455657
0.322878
0.145313
-0.143932
-0.30381
0.0623109
0.248307
0.112422
-0.00210572
-0.139675
-0.0519957
0.164939
0.0875499
-0.562802
-1.36296
-0.87197
-0.273637
-0.277239
-0.22569
0.108752
0.352495
0.588026
0.501839
0.0566067
0.247915
0.463181
0.288478
0.245248
0.185742
0.282111
0.419345
0.306099
0.228709
0.370683
0.407311
0.164397
-0.122345
-0.109829
0.0865601
0.101372
0.0628236
0.0783984
0.173641
-0.0661561
-0.646599
-1.10547
-0.814184
-0.249367
-0.359604
-0.442272
0.0299604
0.313635
0.268844
0.193194
0.115282
0.343567
0.500437
0.434979
0.280947
0.129094
-0.0604576
0.23924
0.602522
0.356024
-0.0303232
0.265441
0.514257
0.569669
0.218824
0.264336
0.247892
0.361445
0.314263
0.260929
0.312857
-0.0938991
-1.03719
-1.7139
-1.09517
-0.489065
-0.329288
-0.209731
0.142088
0.316236
0.268836
0.28883
0.185497
0.318707
0.650559
0.369246
-0.0209329
-0.212389
-0.206403
0.418751
0.727255
0.588963
0.228013
0.0158965
0.294628
0.654737
0.390033
0.20537
0.246734
0.638147
0.837061
0.503688
-0.0789359
-0.698069
-1.54579
-2.0396
-1.1424
-0.413052
-0.302654
-0.392926
0.0239752
0.395307
0.416921
0.299713
0.104481
0.314258
0.731052
0.575644
0.121211
-0.421023
-0.240824
0.635776
0.649191
0.421335
0.0521153
-0.017024
0.607401
0.661178
0.352189
-0.176352
-0.102318
0.634682
1.1884
0.791887
-0.298705
-0.903792
-1.48831
-1.65686
-1.00322
-0.427445
-0.362722
-0.414461
0.046645
0.503804
0.50444
0.263187
0.0465938
0.253616
0.706039
0.617112
0.0524023
-0.611187
-0.397187
0.665383
1.17839
0.61396
-0.083239
0.110849
0.515831
0.672838
0.380338
)
;
    }
    procBoundary1to2
    {
        type            processor;
        value           nonuniform List<scalar> 
256
(
0.296931
0.556904
0.159507
-0.44831
-0.199108
0.114424
0.253164
-0.163782
-0.704808
-0.604682
-0.352448
-0.459192
-0.545007
-0.1573
0.00128711
0.132526
0.346132
0.414416
0.675193
0.587282
0.506287
0.762287
0.414681
-0.297829
-0.155848
0.147369
0.149193
0.352666
0.516565
0.243437
-0.117879
-0.0963329
0.290892
0.235742
0.0756113
-0.20828
-0.279456
0.0199032
0.196612
-0.19499
-0.901278
-0.785041
-0.538425
-0.433098
-0.315354
-0.0366648
0.293576
0.424322
0.273959
0.0990248
0.261632
0.417458
0.491441
0.73834
0.317095
-0.238895
0.00661422
0.298832
0.275795
0.369923
0.196714
0.0984146
0.266324
0.424508
-0.165091
0.0631241
0.436366
0.127911
-0.24003
0.0738208
0.286564
-0.17457
-1.011
-0.774748
-0.341484
-0.330099
-0.599324
-0.158919
0.565321
0.769304
0.193962
-0.211708
0.0745786
0.507554
0.539285
0.566748
0.187399
-0.251317
0.0201362
0.105437
0.141188
0.414036
0.322005
0.312751
0.570821
0.365805
-0.0725289
-0.0918222
0.282841
0.37825
-0.0605245
-0.0642557
0.303523
0.0161903
-0.791054
-1.15265
-0.886994
-0.176819
0.0376432
-0.0680884
0.121014
0.501597
0.27356
-0.155885
0.0731982
0.299784
0.349455
0.305054
0.0518767
-0.186009
-0.122042
0.165232
0.414672
0.55555
0.454114
0.514565
0.46597
0.165098
0.297453
0.0854752
0.0916342
0.309429
0.0340213
-0.337971
-0.180978
-0.169692
-0.523671
-1.09204
-0.923849
-0.238146
-0.0673609
-0.0849891
0.220659
0.526405
0.39738
0.139947
0.292808
0.401175
0.27199
0.0867208
0.0759198
0.181002
0.186763
0.123689
0.353295
0.540271
0.234941
0.0565204
0.255942
0.391982
0.089606
0.0552789
0.450098
0.891988
0.452287
-0.347897
-0.622206
-0.634736
-0.518186
-0.65201
-0.773351
-0.542514
-0.278633
0.115219
0.260922
0.286858
0.364467
0.261172
0.316043
0.303512
0.15414
-0.0284924
-0.182178
0.178061
0.373515
0.125226
0.446303
0.684622
0.473768
0.350628
0.115489
-0.0650359
-0.0655199
0.0149485
0.492263
0.515999
0.223005
-0.332568
-0.730917
-0.667431
-0.359002
-0.470703
-0.957534
-1.20472
-0.411532
0.3192
0.692408
0.756721
0.312657
0.282565
0.604516
0.434823
0.0532142
-0.142968
-0.0756092
-0.107213
-0.106569
0.471051
0.745467
0.512112
0.16268
0.211376
0.257347
0.145348
-0.132134
-0.17528
0.449668
0.613306
0.305229
0.0255951
-0.358297
-0.522339
-0.351311
-0.588962
-1.07475
-1.11265
-0.380858
0.260906
0.494766
0.36586
-0.00933213
0.42399
0.810994
0.389231
-0.18745
-0.356895
-0.307127
0.0463929
0.461888
0.754979
0.681178
0.460519
0.186205
0.196513
0.269749
0.251074
)
;
    }
}


// ************************************************************************* //
