/*--------------------------------*- C++ -*----------------------------------*\
| =========                 |                                                 |
| \\      /  F ield         | OpenFOAM: The Open Source CFD Toolbox           |
|  \\    /   O peration     | Version:  2506                                  |
|   \\  /    A nd           | Website:  www.openfoam.com                      |
|    \\/     M anipulation  |                                                 |
\*---------------------------------------------------------------------------*/
FoamFile
{
    version     2.0;
    format      ascii;
    arch        "LSB;label=32;scalar=64";
    class       surfaceScalarField;
    location    "0.008";
    object      phi;
}
// * * * * * * * * * * * * * * * * * * * * * * * * * * * * * * * * * * * * * //

dimensions      [0 3 -1 0 0 0 0];

oriented        oriented;

internalField   nonuniform List<scalar> 
1200
(
0.00152599
1.53024e-06
2.44167e-06
0.00152218
4.08901e-06
2.74145e-06
0.00152387
1.42828e-06
-3.56216e-06
0.00151846
7.259e-08
3.36464e-06
0.00151205
2.24988e-06
6.0682e-06
0.00151373
3.52344e-06
4.70844e-06
0.00152209
-1.66101e-07
-2.98112e-06
0.00153019
-3.14026e-06
-7.46648e-06
0.00153396
-3.45452e-06
-1.48944e-06
0.00152679
-2.67937e-07
2.69422e-06
0.00151434
2.51067e-06
-2.07039e-07
0.00151267
-1.96973e-07
5.13846e-07
0.00151572
-1.06439e-06
4.82633e-06
0.00151841
-1.30567e-06
4.44634e-06
0.00151973
3.45301e-06
-7.87527e-06
0.00151958
4.55118e-06
-8.50156e-06
0.00151542
1.68703e-06
-1.95041e-07
0.00151664
-2.77053e-06
3.06065e-06
0.00152078
-2.44701e-06
-3.46893e-07
0.00152456
-6.61069e-07
-3.02397e-06
0.00152223
-5.01831e-07
1.64409e-07
0.00151741
-1.22303e-06
-2.61796e-07
0.00151645
-4.73576e-07
-3.45228e-06
0.00152043
-1.02684e-06
-5.80707e-06
0.00151641
1.10749e-06
1.18115e-06
0.00150966
2.0611e-06
3.32453e-06
0.001511
6.34149e-07
8.95593e-07
0.00151095
4.65514e-07
-7.12265e-07
0.00150811
1.54195e-06
-5.62122e-07
0.00151329
-1.33081e-06
2.17152e-06
0.00152417
-5.03455e-06
8.38764e-07
-3.34392e-06
-2.15929e-06
0.00154465
-5.46684e-07
-2.00592e-06
0.00155243
8.0837e-07
1.86266e-06
0.00154527
7.21841e-06
1.41372e-06
0.00153043
7.80609e-06
5.46942e-06
0.00152684
5.09197e-06
3.63681e-06
0.00154017
-2.72001e-06
4.738e-07
0.00155229
-5.7971e-06
-4.54188e-06
0.00155966
-6.65216e-06
-8.00562e-06
0.00156183
-5.44513e-06
-3.60074e-06
0.00154947
8.47234e-07
8.28621e-06
0.00153609
5.222e-06
4.00005e-06
0.00153678
8.94087e-07
-2.85087e-06
0.00154037
-1.67791e-06
2.73823e-06
0.00153309
1.87631e-06
7.68548e-06
0.00152971
7.12959e-06
-2.21657e-06
0.00154061
2.18437e-06
-1.04713e-05
0.00154455
-4.69209e-07
-3.78321e-06
0.00154091
-1.36363e-06
3.90027e-06
0.00153709
1.339e-06
1.26898e-06
0.00154217
-1.79573e-06
-2.40998e-06
0.00154561
-3.07253e-06
-1.61685e-06
0.00154319
-1.18061e-06
-1.23225e-06
0.00154264
-2.63805e-06
-3.23357e-06
0.00154588
-5.98472e-06
-3.1756e-06
0.00154263
-2.38181e-07
4.23545e-06
0.00153835
3.22097e-06
3.69785e-06
0.0015409
2.41668e-06
-2.31099e-06
0.00153591
5.32798e-06
-4.19995e-07
0.0015269
6.45246e-06
4.86235e-06
0.00152875
7.90277e-08
4.88622e-06
0.00153962
-1.04945e-05
2.89511e-08
-7.92128e-06
-3.58952e-06
0.00154232
-5.66026e-06
-1.45212e-06
0.00154658
-4.3876e-06
1.65185e-06
0.00154239
8.02499e-06
4.80785e-06
0.0015358
1.25715e-05
5.77776e-06
0.00153214
1.1257e-05
4.93439e-06
0.00154226
-3.23257e-06
-3.60321e-07
0.0015578
-1.07432e-05
-8.00455e-06
0.00156378
-7.90413e-06
-9.29668e-06
0.0015591
-3.89026e-06
-1.83217e-06
0.00155128
5.15336e-07
8.40698e-06
0.00154129
1.01366e-05
3.52415e-06
0.00152065
1.20326e-05
2.08612e-06
0.00151788
8.8669e-08
6.09778e-07
0.00153702
-8.42227e-06
-2.93454e-07
0.00155164
-8.50698e-07
-5.06817e-06
0.00155466
2.13611e-06
-4.20051e-06
0.00155214
2.67439e-06
-2.82445e-06
0.00154741
1.33787e-06
4.16832e-07
0.00154776
-9.32001e-07
3.34136e-07
0.00154993
-4.33377e-06
-1.55621e-06
0.00155001
-4.20569e-06
-1.79182e-06
0.00154734
-1.005e-06
-4.79035e-06
0.00155285
-3.92862e-06
-6.93512e-06
0.00155315
-3.06145e-06
-6.34642e-06
0.00154486
2.09198e-06
-5.02048e-07
0.00153911
3.26779e-06
3.87602e-06
0.00154573
1.9253e-07
1.5097e-06
0.00155312
3.39767e-06
-1.36307e-06
0.001554
7.36084e-06
2.22541e-06
0.00154531
4.68103e-06
1.13117e-05
0.00153944
-5.52185e-06
4.6924e-06
-9.70309e-06
-3.72097e-06
0.001547
-7.05591e-06
-4.10942e-07
0.00154656
-2.09194e-06
8.85935e-07
0.00154643
7.19346e-06
3.71864e-06
0.0015481
1.15893e-05
3.31272e-06
0.0015506
8.20004e-06
4.785e-06
0.00154935
2.2047e-07
3.3417e-06
0.00154747
-5.96261e-06
-2.89448e-06
0.00155098
-6.19103e-06
-6.68363e-06
0.00155763
-7.13559e-06
-2.25495e-06
0.0015529
-1.97652e-06
6.78614e-06
0.00154506
9.21569e-06
6.33127e-06
0.0015462
7.56358e-06
3.14786e-06
0.00154429
2.14388e-06
8.4568e-08
0.00154174
-5.2358e-06
-1.6964e-06
0.00154866
-3.30946e-06
-2.51489e-06
0.00155753
-1.55865e-07
-3.81234e-06
0.00156232
2.58126e-06
-4.34113e-06
0.00156369
6.57066e-07
-1.15118e-06
0.00156143
-1.13485e-06
1.67768e-06
0.00155105
1.05188e-06
1.48405e-06
0.00154386
-8.36706e-08
-4.33886e-07
0.00154757
-2.07925e-06
-5.19368e-06
0.00155119
-3.24215e-06
-4.35775e-06
0.00154977
7.94608e-08
-3.23555e-06
0.00154642
4.23619e-06
-1.96522e-06
0.00154591
3.9743e-06
4.07547e-07
0.00154701
4.11119e-07
2.32091e-06
0.00155106
1.67285e-06
-1.49429e-06
0.00155545
4.04074e-06
-9.73336e-07
0.00155229
5.94072e-06
6.29176e-06
0.00154494
-1.79173e-06
5.08366e-06
-1.039e-05
-4.35383e-06
0.0015591
-1.01009e-05
-3.44485e-07
0.00154517
7.95448e-06
9.51613e-07
0.00153799
1.20017e-05
1.2527e-06
0.0015446
1.10468e-05
2.73419e-07
0.00155565
1.68283e-06
6.54897e-07
0.00156044
-6.40219e-07
8.76777e-07
0.00156156
-4.9232e-06
1.93921e-06
0.00155912
-5.66911e-06
2.72311e-06
0.00154867
-3.71465e-06
1.99494e-06
0.0015366
5.55568e-06
5.23299e-07
0.00154504
4.62266e-06
-1.40826e-06
0.00155596
-8.19455e-08
-1.55575e-06
0.00155227
2.26971e-06
9.73115e-07
0.00153598
5.71959e-06
7.97644e-07
0.00153323
1.97861e-07
-8.85759e-07
0.00154644
-5.01339e-06
-3.79355e-06
0.001557
-3.38047e-06
-1.12676e-06
0.00155394
-9.53736e-07
2.46475e-06
0.00154657
-5.18112e-09
-2.73367e-07
0.00154896
-1.0872e-06
-1.62969e-06
0.00155632
-4.68051e-06
-3.27092e-06
0.00155698
-3.52084e-06
-1.67891e-06
0.0015515
-5.42781e-07
2.86543e-06
0.00154467
6.81586e-06
-3.51482e-07
0.00154524
5.17181e-06
-3.09981e-06
0.00154536
2.20773e-06
1.90327e-06
0.00154351
1.49233e-06
3.13721e-06
0.00154688
-4.63454e-07
-3.17956e-06
0.00155075
1.95159e-06
-5.29782e-06
0.00155375
2.70624e-06
5.4918e-06
0.0015542
-2.4295e-06
7.7092e-06
-1.21745e-05
3.32587e-06
0.00154656
-1.49224e-05
-3.29623e-06
0.00154195
8.54586e-06
2.47185e-06
0.00153581
1.5847e-05
7.82177e-06
0.00153939
1.00819e-05
6.76975e-06
0.00155512
-3.65792e-06
-1.06204e-05
0.0015632
-1.61167e-06
-8.4952e-06
0.00155792
-1.30883e-07
2.67512e-06
0.00154363
-4.13174e-06
1.45884e-05
0.00152966
-1.34055e-06
8.85337e-06
0.00152576
8.88944e-06
-1.53897e-06
0.00153756
1.83775e-06
-8.01513e-06
0.00154196
-1.6703e-06
-2.80641e-06
0.00153813
1.53317e-06
5.19364e-06
0.00154178
1.58401e-06
1.73817e-06
0.00154447
-6.49444e-07
-2.69637e-06
0.00154292
-1.22955e-06
-5.23076e-06
0.00154435
-2.82939e-06
-2.75306e-06
0.00154566
-3.02937e-06
-8.55164e-07
0.00154678
-1.53546e-07
-2.9415e-06
0.00155021
-1.1381e-06
-2.16988e-06
0.00155232
-5.1009e-06
9.68129e-07
0.00154368
-1.24163e-06
2.984e-06
0.00153026
5.11597e-06
6.65441e-06
0.00153709
3.67364e-06
2.85829e-08
0.00154943
-6.82075e-08
-5.75635e-06
0.00155222
1.64007e-06
-4.22824e-06
0.00155119
2.58487e-06
5.33592e-07
0.00155001
3.42998e-07
8.04744e-07
0.00154443
4.54669e-06
6.30934e-07
0.00154171
2.35765e-06
-1.03822e-06
0.00153898
5.71601e-08
-2.74795e-06
-1.4181e-05
-3.06485e-06
0.00152816
-4.77593e-06
-1.61737e-06
0.00153363
1.07017e-06
-7.56736e-07
0.00154961
4.34968e-06
8.03286e-08
0.0015628
1.71903e-06
-2.53332e-07
0.00156239
-1.80533e-07
-2.9949e-06
0.00155993
4.79312e-06
-1.03552e-06
0.00155003
3.49043e-06
1.30597e-05
0.00153811
-1.38304e-06
1.23061e-05
0.00152739
1.18347e-06
5.27151e-06
0.00153838
3.40957e-06
-9.89532e-06
0.00154377
2.44918e-06
-7.70447e-06
0.00154376
-5.87156e-07
-8.03137e-07
0.00154426
-1.0798e-06
5.32819e-06
0.00154549
-1.53933e-06
5.08604e-06
0.00154661
-1.86643e-06
-8.86299e-07
0.00154479
-9.42916e-07
-2.28361e-06
0.0015415
-6.09989e-07
-1.30919e-06
0.00153784
-8.23663e-07
7.62966e-07
0.00154331
-3.22931e-06
-2.17001e-06
0.00155102
-5.71943e-06
-5.88627e-07
0.00154761
-1.36319e-06
2.12394e-06
0.00153753
2.23407e-06
5.1398e-06
0.00153891
2.85153e-07
1.11478e-06
0.00154057
4.93753e-06
-3.34408e-06
0.00153876
4.88328e-06
-1.94575e-06
0.00153931
6.56319e-07
9.76901e-07
0.00153834
2.90173e-06
2.25082e-06
0.00153663
-1.17321e-07
3.58018e-06
0.00154607
-5.18065e-06
-2.7948e-06
0.00154898
1.57775e-06
-5.76039e-06
0.00154998
2.37358e-06
-7.26006e-06
-7.40512e-06
-3.39513e-06
0.00151052
-1.41752e-06
0.00150676
-5.73397e-07
0.00151054
-7.2412e-07
0.001512
3.00502e-06
0.00151283
3.28524e-06
0.00152509
2.53197e-06
0.00152687
7.59026e-06
0.00151631
1.06182e-05
0.00151129
2.19384e-06
0.00152101
-1.04527e-05
0.00152881
-5.91145e-06
0.00152877
1.56869e-06
0.00152627
3.14276e-06
0.00152346
1.93365e-06
0.00152476
-3.44026e-06
0.00152822
-6.03723e-06
0.00152598
-1.42329e-06
0.00151967
4.13848e-06
0.00151421
-1.32081e-06
0.00151081
-3.07811e-06
0.00151216
2.99975e-06
0.00151395
5.56835e-06
0.00151092
6.71774e-07
0.00151651
-5.9373e-06
0.00152248
-1.63913e-06
0.00152385
2.73468e-07
0.00152949
-1.25379e-06
0.00152831
4.3097e-06
0.00151873
5.6448e-06
0.00152131
-3.32107e-06
0.00152458
-7.29888e-06
-1.68087e-06
0.00152535
2.07972e-06
0.00152775
3.27171e-06
0.00152275
2.45079e-06
0.00150736
6.43333e-06
0.00149839
6.38296e-06
0.00150588
5.44414e-06
0.00152414
-6.7322e-08
0.00153587
-4.13224e-06
0.0015391
-4.19513e-06
0.00152827
5.34368e-06
0.00151604
4.52332e-06
0.00151777
-3.13587e-06
0.00153021
-3.58539e-06
0.00153924
-2.71806e-06
0.00152789
6.8136e-07
0.00151103
4.30126e-06
0.0015105
1.17729e-06
0.00152122
-1.97156e-06
0.00152678
-1.58811e-06
0.00152837
-2.05206e-06
0.00152499
-5.56151e-07
0.00151991
2.26514e-06
0.0015247
1.97369e-06
0.00152855
-6.50827e-07
0.00152876
1.19339e-06
0.00152627
1.20452e-06
0.00152399
1.24671e-06
0.00152143
5.76603e-07
0.00152041
1.01997e-07
0.0015257
-2.73876e-06
0.00152543
-5.34735e-06
-5.68229e-06
0.00154328
8.34843e-07
0.00154721
3.42782e-06
0.00153977
9.83e-06
0.00152824
1.03296e-05
0.00151938
8.50038e-06
0.00152518
4.46838e-06
0.00154402
-5.85446e-06
0.00155255
-9.49413e-06
0.00155052
-5.38361e-06
0.00155459
9.58242e-07
0.00154984
4.55918e-06
0.00153691
3.59399e-06
0.00154499
-6.02335e-06
0.00156293
-1.08972e-05
0.00155852
1.20116e-06
0.00154226
8.06093e-06
0.00154017
1.64671e-06
0.00155207
-5.6831e-06
0.00155621
-2.2026e-06
0.00155069
2.9934e-06
0.00154676
3.78599e-06
0.00153886
6.41286e-06
0.00153478
2.33273e-06
0.00154447
-7.76271e-06
0.00155143
-2.51148e-06
0.00154642
5.57037e-06
0.00154246
4.30822e-06
0.00153952
4.07406e-06
0.00153671
3.84137e-06
0.00154374
-6.39302e-06
0.00154574
-8.43941e-06
-7.6526e-06
0.00153957
-6.85485e-07
0.00154029
7.64322e-07
0.00153889
8.74695e-06
0.00153444
1.19939e-05
0.00152748
1.17341e-05
0.00153899
-1.73472e-06
0.00154762
-7.43334e-06
0.00154553
-6.27729e-06
0.00154524
-5.09479e-06
0.00155144
5.06013e-07
0.00155259
5.21756e-06
0.00155216
4.65921e-06
0.00155347
-7.55325e-06
0.00155091
-7.55007e-06
0.0015468
3.88437e-06
0.00155134
4.66726e-06
0.00155085
2.79972e-06
0.00154175
-1.41181e-07
0.00153583
1.09273e-06
0.00154015
-3.57784e-07
0.0015442
-1.0773e-06
0.00154074
3.97344e-06
0.00153372
3.00422e-06
0.00152151
9.05836e-07
0.00152483
-2.36672e-06
0.00153321
-8.83575e-07
0.00153703
1.03629e-06
0.00153676
4.2193e-06
0.00153714
4.42782e-06
0.00154489
-6.58549e-06
0.0015457
-8.94263e-06
-6.14414e-06
0.00154672
-9.13325e-06
0.00154692
-9.50659e-07
0.00154404
1.36216e-05
0.00154329
1.32835e-05
0.00154557
6.88175e-06
0.00155036
-7.09623e-06
0.00154968
-9.19553e-06
0.00153818
4.2527e-06
0.00153301
4.15591e-06
0.0015372
6.00626e-07
0.00154301
-1.39159e-06
0.0015464
4.73307e-07
0.00154011
-5.80731e-07
0.00153753
-5.80846e-06
0.00154436
-3.13005e-06
0.00154791
8.31382e-07
0.00154509
1.95839e-06
0.00154348
-8.97378e-08
0.001552
-1.51562e-06
0.00155941
-1.94805e-06
0.00155885
-1.48339e-06
0.00155569
1.11753e-06
0.00155034
4.8847e-06
0.00154668
3.38041e-06
0.00154437
-1.31967e-06
0.00154489
-1.54809e-06
0.0015506
-9.01866e-07
0.00155545
2.85206e-07
0.00155085
4.89889e-06
0.00154089
3.27683e-06
0.00153483
-3.6668e-06
-1.06089e-05
0.00154625
-8.91435e-06
0.0015392
5.52471e-06
0.00153811
1.09148e-05
0.00153757
1.17555e-05
0.00154871
-3.55773e-06
0.00155397
-1.30181e-05
0.00155167
-6.3957e-06
0.00154697
1.2286e-05
0.00155272
5.55398e-06
0.00155563
-2.56701e-06
0.00155327
-4.02747e-06
0.00155336
-1.07937e-06
0.00155219
5.12873e-06
0.00154219
3.42458e-06
0.00153826
-1.43061e-06
0.00154585
-6.51717e-06
0.00155255
-3.83778e-06
0.00155261
-6.58754e-07
0.00154754
1.15868e-06
0.00154264
2.72671e-08
0.00154347
-2.56433e-06
0.00154665
-1.01774e-06
0.00154927
5.49557e-06
0.00154864
5.67552e-06
0.0015471
1.56194e-07
0.00154664
5.75721e-07
0.00154739
7.01808e-09
0.00154948
-1.52185e-06
0.00155071
2.26028e-06
0.00154544
5.68552e-06
0.00154212
2.97379e-07
-8.30822e-06
0.0015384
-8.71743e-06
0.00154169
3.33673e-06
0.00155478
5.22823e-06
0.00156716
7.15498e-06
0.00155292
1.27973e-06
0.0015277
-6.5127e-07
0.001516
4.61917e-06
0.00153471
4.13341e-06
0.00154863
-6.71366e-07
0.00154771
-2.14495e-06
0.00153688
-8.19943e-07
0.00153293
8.30643e-07
0.0015421
1.94116e-06
0.00154779
6.46267e-07
0.00154481
1.68792e-06
0.00153806
-2.57089e-06
0.00153406
-2.39066e-06
0.00152935
-4.07283e-07
0.00153016
-3.66398e-07
0.00153619
-3.49689e-06
0.00154013
-3.39872e-06
0.00154318
2.38033e-06
0.00155234
3.02372e-06
0.00155697
1.28621e-06
0.00155348
-7.76819e-07
0.00154911
1.89499e-06
0.0015448
2.35733e-06
0.00154288
1.29781e-06
0.00154439
3.73581e-06
0.00154828
2.44433e-06
0.00154378
-2.15426e-06
-1.05641e-05
0.00153736
-5.30062e-06
0.00154091
-3.79679e-07
0.00155241
-6.65118e-07
0.00155311
3.94688e-06
0.00153821
6.51307e-06
0.00152976
4.71384e-06
0.00154399
2.42789e-06
0.00155597
7.87796e-07
0.00155689
6.11565e-07
0.00154725
-5.2917e-08
0.00153721
4.41306e-07
0.00153429
6.02927e-07
0.00154241
-9.86496e-07
0.00154516
1.38453e-07
0.00154541
2.43968e-06
0.00154828
-1.99966e-06
0.00154749
-1.58928e-06
0.00154577
4.71167e-07
0.00154615
-1.49622e-06
0.00154348
-3.55934e-06
0.0015362
5.07772e-07
0.00152975
6.89674e-06
0.00153089
1.55701e-06
0.00153962
-3.82767e-06
0.00154084
-2.39516e-06
0.0015432
9.31404e-07
0.00154007
8.07689e-06
0.00153603
4.16152e-06
0.00154687
-7.46198e-06
0.00155715
-4.46479e-06
0.00155587
-7.93613e-07
-5.02513e-06
0.0015048
0.00150401
0.00150286
0.00150697
0.00151243
0.0015191
0.00152559
0.0015326
0.00153584
0.0015299
0.00152332
0.00152042
0.00152213
0.00152654
0.00152903
0.00152157
0.00151567
0.00151819
0.00151866
0.00151184
0.00151524
0.0015292
0.00152926
0.00152071
0.00152003
0.0015253
0.00153527
0.00153775
0.00152876
0.00152181
0.00151931
)
;

boundaryField
{
    wall
    {
        type            calculated;
        value           uniform 0;
    }
    outlet
    {
        type            cyclic;
        value           nonuniform List<scalar> 
16
(
0.00153048
0.00154299
0.00153882
0.00154492
0.00155675
0.00154246
0.00154158
0.00151526
0.00152346
0.00154225
0.00153943
0.00153616
0.0015428
0.00154148
0.00154509
0.00151217
)
;
    }
    inlet
    {
        type            cyclic;
        value           nonuniform List<scalar> 
16
(
-0.00153048
-0.00154299
-0.00153882
-0.00154492
-0.00155675
-0.00154246
-0.00154158
-0.00151526
-0.00152346
-0.00154225
-0.00153943
-0.00153616
-0.0015428
-0.00154148
-0.00154509
-0.00151217
)
;
    }
    procBoundary1to0
    {
        type            processor;
        value           nonuniform List<scalar> 
256
(
5.18058e-07
-3.02377e-06
4.48842e-07
1.97002e-06
-1.91234e-06
-9.90633e-06
-5.21541e-06
2.50929e-06
1.16946e-06
4.74161e-06
1.01492e-05
1.35347e-06
-6.81144e-06
-5.82628e-06
3.10006e-06
4.10081e-06
2.66162e-06
-1.50624e-06
-1.34567e-06
-9.54731e-08
2.66371e-06
6.30884e-06
4.88868e-06
2.84726e-06
1.73471e-06
1.36149e-06
-2.86768e-06
2.9833e-07
1.86171e-06
-6.02127e-06
-6.68472e-06
-8.05117e-07
2.41968e-06
-6.35433e-06
-4.5775e-08
1.63255e-06
-2.8842e-06
-7.56308e-06
-1.94604e-06
4.14721e-06
3.42209e-06
2.95543e-06
6.66825e-06
1.07246e-06
-5.71523e-06
-3.58315e-06
1.91927e-06
1.93519e-06
2.0012e-06
-1.67162e-06
-1.2275e-06
-1.54116e-06
7.4483e-07
3.615e-06
5.94837e-06
4.88661e-06
3.67243e-07
-5.84594e-07
-2.01572e-06
5.42747e-07
-7.59986e-07
-8.14442e-06
-5.44351e-06
4.79985e-06
3.07045e-06
-7.23994e-07
-1.4175e-06
-3.95144e-06
-7.44789e-06
-9.24184e-06
-2.59084e-06
4.56845e-06
4.95809e-06
-2.58083e-07
1.55287e-06
7.419e-06
3.9029e-07
-8.54881e-06
-1.56907e-06
1.22474e-06
2.20954e-06
1.60338e-06
1.58699e-06
1.93191e-06
2.84554e-06
7.28142e-06
2.71887e-06
3.11354e-06
6.46617e-06
1.82489e-06
-5.90161e-06
-4.0963e-06
-4.01105e-06
-7.22437e-06
-3.80217e-06
6.1249e-06
-2.69884e-07
-2.74843e-06
-2.75724e-06
-3.99718e-06
-4.22674e-06
-5.54949e-06
-7.37181e-10
1.45496e-06
-1.15094e-06
4.40933e-07
2.42635e-06
1.81965e-07
-2.22875e-07
1.05707e-06
-1.9453e-06
-2.77135e-06
-3.54654e-07
4.65061e-07
7.80561e-07
3.50977e-06
3.50142e-06
2.56562e-06
4.32387e-08
1.51837e-06
3.16832e-06
-5.9889e-07
-3.64126e-06
-8.29733e-07
-1.01091e-07
-4.38917e-06
-1.4666e-06
5.06472e-06
1.04003e-06
2.92617e-06
1.12033e-06
-6.33847e-06
-5.18809e-06
-4.81073e-06
-4.09815e-06
-8.01796e-07
5.03115e-06
4.01686e-06
-2.43924e-06
-1.71293e-06
2.5867e-06
4.53742e-06
1.2995e-07
-4.55865e-06
-3.47203e-06
2.19954e-06
6.5219e-06
1.37198e-06
5.06908e-07
2.46091e-06
-8.4817e-08
4.48589e-07
1.59602e-06
-2.63385e-07
-2.35961e-06
1.93779e-06
3.52113e-06
-5.25547e-06
-7.51954e-06
-4.09228e-06
4.01854e-06
1.54039e-06
-5.52561e-06
-9.38778e-06
2.31403e-07
1.38626e-06
-2.18579e-06
-1.83323e-06
2.74068e-06
2.10712e-06
-1.00177e-06
-5.43806e-09
-6.29565e-07
-1.24803e-06
8.58371e-07
2.99334e-06
7.74953e-07
1.61229e-06
1.97676e-06
-1.21519e-06
-2.65336e-06
3.3788e-06
1.09982e-06
-3.71566e-06
-1.33799e-06
2.00084e-06
-5.93908e-07
-4.29834e-07
2.35423e-06
4.10827e-06
2.98464e-06
1.59835e-06
4.88647e-06
2.76153e-06
-4.5564e-06
-4.57623e-06
-7.57183e-08
-2.90675e-06
-6.78052e-06
-3.13429e-06
2.92025e-06
4.39423e-06
1.7005e-06
-2.6897e-07
-3.21996e-06
-3.19066e-06
9.80823e-07
3.81719e-06
2.38214e-06
6.94055e-07
-2.25274e-07
-2.54233e-06
-2.44867e-06
1.4565e-06
2.33998e-06
4.20534e-07
-1.1918e-06
-5.48281e-07
-1.5971e-06
-1.41147e-06
3.08093e-06
3.63422e-06
3.94075e-06
5.02312e-06
1.38079e-06
5.40918e-06
1.29465e-06
-2.7503e-06
-4.29879e-06
-9.99806e-06
-5.87606e-06
-1.43938e-06
4.00481e-06
4.14271e-06
5.62418e-07
-2.11409e-06
-1.72278e-06
-6.6501e-07
2.69567e-07
1.63487e-06
3.0581e-06
1.3513e-06
3.54696e-06
7.54669e-07
-5.70392e-06
-5.13342e-06
2.64361e-06
5.28454e-06
5.61155e-07
-9.87372e-07
-1.48983e-06
-3.24528e-06
-1.24807e-06
2.32408e-06
6.39487e-06
3.59832e-06
)
;
    }
    procBoundary1to2
    {
        type            processor;
        value           nonuniform List<scalar> 
256
(
-1.5225e-06
-2.93424e-06
-1.01231e-06
1.23225e-05
8.65853e-06
-8.22595e-06
-2.11733e-05
-1.5071e-05
-5.19606e-07
8.17983e-06
7.50477e-06
1.91246e-06
-4.02997e-06
-1.8651e-06
2.79901e-06
4.05198e-06
-8.34562e-07
-5.69478e-06
-4.31848e-06
-2.56188e-06
4.1037e-06
2.55138e-06
-1.02145e-05
-9.00195e-06
-2.25408e-07
4.60545e-06
1.93607e-06
1.26523e-06
3.62077e-07
-3.85005e-07
6.45232e-06
5.49272e-06
-1.79243e-06
-2.22184e-06
1.46673e-06
1.31016e-05
1.03801e-05
-4.34535e-06
-1.75989e-05
-1.1166e-05
-3.85437e-07
8.59584e-06
8.71756e-06
3.34756e-06
-2.90184e-06
-2.07154e-06
1.67392e-06
2.03002e-06
-2.17199e-06
-4.28066e-06
-2.26269e-06
-1.9281e-06
-2.03436e-06
2.52428e-06
4.79622e-07
-5.74643e-06
9.78628e-07
4.34043e-06
-1.40666e-06
-9.86023e-07
3.9403e-06
1.50206e-06
1.1277e-06
1.87345e-06
-7.30435e-08
3.59512e-06
7.28915e-06
8.56744e-06
8.66145e-06
-5.6653e-06
-1.5059e-05
-1.04237e-05
-1.83333e-06
2.65953e-06
1.72111e-06
1.44982e-06
8.24481e-07
-1.07378e-06
-3.64036e-06
-5.35039e-06
-3.49216e-06
3.97632e-06
2.96558e-06
-2.52578e-06
-9.86481e-07
1.11458e-06
-5.89984e-07
-2.80327e-06
-3.96709e-06
1.94692e-06
9.65108e-07
-1.23543e-06
1.25294e-06
3.75991e-06
4.38036e-06
1.04317e-06
-2.51846e-06
2.3989e-06
1.72115e-06
2.77599e-06
7.36094e-06
3.90792e-06
-4.51216e-07
-5.71622e-06
-6.33526e-06
2.504e-06
7.12774e-06
3.94892e-06
-6.00114e-07
-8.55109e-07
-2.3333e-06
-3.5215e-06
-6.84951e-07
4.06669e-07
-4.22729e-06
-4.33672e-06
5.32973e-07
8.18354e-07
-8.93454e-07
-2.04857e-06
-7.01475e-07
5.52406e-07
-1.45007e-06
-2.41307e-06
3.15773e-06
6.39291e-06
5.86239e-06
-1.21914e-06
-4.00957e-06
1.52674e-06
5.04594e-06
2.33757e-06
-4.55707e-08
1.53963e-06
1.44484e-06
-6.16412e-07
-5.15273e-06
7.82842e-07
3.58673e-06
-8.62275e-08
-3.56687e-06
1.55664e-06
1.35234e-06
-4.04089e-06
-2.0228e-06
2.96699e-06
2.1237e-06
1.29073e-06
-3.01133e-06
-2.72613e-06
-3.66896e-07
-2.02122e-06
-3.02831e-06
2.35803e-07
1.4827e-06
-3.46585e-06
-3.89103e-06
8.35368e-06
7.06446e-06
3.4538e-07
-4.13949e-07
1.36732e-06
4.18419e-07
-1.00531e-06
-1.22201e-06
4.36407e-06
3.36113e-06
4.02396e-06
1.15603e-06
-1.03445e-06
-3.97592e-07
-7.60694e-07
-7.95706e-07
-1.1661e-06
-2.83805e-06
-2.4228e-06
-2.05031e-07
3.60276e-06
-2.22786e-06
-4.67006e-06
-2.13685e-06
-3.4629e-06
-3.54073e-08
-2.17302e-07
-1.33327e-06
-1.17415e-06
2.49007e-06
-9.44059e-08
-2.34927e-06
-1.68976e-06
4.19765e-06
1.49684e-06
2.69666e-06
-5.87241e-07
-5.5313e-06
2.25723e-06
6.66637e-06
2.04976e-06
1.02083e-06
3.68089e-06
3.06627e-06
-2.34951e-06
1.07209e-06
2.34427e-06
1.35571e-07
2.84915e-06
-1.88598e-06
-5.73006e-06
-1.31593e-06
1.60058e-06
-1.42514e-06
2.15053e-06
5.49987e-06
7.06806e-06
1.44512e-06
-6.96286e-06
-1.5451e-06
-4.24036e-07
-3.3942e-07
4.7642e-06
-2.44195e-06
-9.13219e-06
-7.34128e-06
1.84675e-06
6.46449e-07
-1.61178e-07
-2.37901e-07
2.83667e-06
4.34078e-06
5.7641e-07
3.53122e-06
4.39368e-06
-4.36677e-07
-4.56809e-06
1.11333e-06
5.07197e-06
4.42656e-07
-2.33771e-06
-3.48203e-06
-5.81047e-07
2.89104e-06
2.08435e-06
-3.28948e-06
1.84248e-07
1.09969e-07
-1.49629e-06
2.17361e-06
-1.21434e-06
-3.35661e-06
-4.06252e-06
-3.15168e-06
5.98755e-06
7.17269e-06
-8.28035e-07
-5.59396e-06
4.35304e-07
)
;
    }
}


// ************************************************************************* //
