/*--------------------------------*- C++ -*----------------------------------*\
| =========                 |                                                 |
| \\      /  F ield         | OpenFOAM: The Open Source CFD Toolbox           |
|  \\    /   O peration     | Version:  2506                                  |
|   \\  /    A nd           | Website:  www.openfoam.com                      |
|    \\/     M anipulation  |                                                 |
\*---------------------------------------------------------------------------*/
FoamFile
{
    version     2.0;
    format      ascii;
    arch        "LSB;label=32;scalar=64";
    class       volScalarField;
    location    "0.09";
    object      Ksl;
}
// * * * * * * * * * * * * * * * * * * * * * * * * * * * * * * * * * * * * * //

dimensions      [1 -3 -1 0 0 0 0];

internalField   nonuniform List<scalar> 
1152
(
129836
264164
365340
160239
162734
266920
122797
164215
136664
147439
173333
270178
229480
254498
167676
148510
197790
177880
127572
145960
206392
166072
148672
201340
208005
118278
185806
156473
148675
169773
118255
203238
515808
197872
239561
212617
202513
253535
250451
235901
286801
276616
355322
390701
279898
148911
198945
378841
217966
198246
178587
198289
192097
320385
213465
298042
239289
251217
206968
176576
185915
308435
246504
287362
325600
246524
142813
283747
353491
284149
243920
235198
133019
307780
222968
216059
212747
338818
300164
184132
164715
356912
259613
210666
166132
266613
317951
367419
150574
266678
174861
219821
217059
279662
367838
460263
58613.4
77688.4
72325.5
97860.2
117245
70604.8
105781
98346.5
25015.6
43308.9
94463.3
75856.9
58884
78527.3
113121
49355
0
0
0
0
0
0
0
0
0
0
0
0
0
0
0
0
0
0
0
0
0
0
0
0
0
0
0
0
0
0
0
0
0
0
0
0
0
0
0
0
0
0
0
0
0
0
0
0
0
0
0
0
0
0
0
0
0
0
0
0
0
0
0
0
0
0
0
0
0
0
0
0
0
0
0
0
0
0
0
0
0
0
0
0
0
0
0
0
0
0
0
0
0
0
0
0
0
0
0
0
0
0
0
0
0
0
0
0
0
0
0
0
0
0
0
0
0
0
0
0
0
0
0
0
0
0
0
0
0
0
0
0
0
0
0
0
0
0
0
0
0
0
0
0
0
0
0
0
0
0
0
0
0
0
0
0
0
0
0
0
0
0
0
0
0
0
0
0
0
0
0
0
0
0
0
0
0
0
0
0
0
0
0
0
0
0
0
0
0
0
0
0
0
0
0
0
0
0
0
0
0
0
0
0
0
0
0
0
0
0
0
0
0
0
0
0
0
0
0
0
0
0
0
0
0
0
0
0
0
0
0
0
0
0
0
0
0
0
0
0
0
0
0
0
0
0
0
0
0
0
0
0
0
0
0
0
0
0
0
0
0
0
0
0
0
0
0
0
0
0
0
0
132433
208093
190952
139252
239955
144493
125636
199560
139436
155774
156017
162222
183080
160198
205049
141128
358762
113945
189904
182646
216974
223535
162634
241473
204289
132369
132205
164742
132301
185637
131366
149821
280083
237682
458440
123889
308685
274357
170786
182799
154431
193841
234832
256308
239119
334104
162473
182847
162800
309990
150917
234460
294308
179355
302139
302893
283126
275693
186249
144432
257631
157107
365920
163697
257597
181211
160272
374733
277266
199104
211280
285598
283589
239585
250277
295241
229852
338362
228346
176968
86123.9
282546
124237
447890
286040
224564
204228
165344
244187
196314
289711
351338
202521
205148
133791
156817
151273
66775.5
62592.3
80154.1
92344.3
81800.8
85208.8
82886.6
63432.1
28290.3
73182
84129.8
61715
59730.8
76082.8
137896
0
0
0
0
0
0
0
0
0
0
0
0
0
0
0
384.342
0
0
0
0
0
0
0
0
0
0
0
0
0
0
0
0
0
0
0
0
0
0
0
0
0
0
0
0
0
0
0
0
0
0
0
0
0
0
0
0
0
0
0
0
0
0
0
0
0
0
0
0
0
0
0
0
0
0
0
0
0
0
0
0
0
0
0
0
0
0
0
0
0
0
0
0
0
0
0
0
0
0
0
0
0
0
0
0
0
0
0
0
0
0
0
0
0
0
0
0
0
0
0
0
0
0
0
0
0
0
0
0
0
0
0
0
0
0
0
0
0
0
0
0
0
0
0
0
0
0
0
0
0
0
0
0
0
0
0
0
0
0
0
0
0
0
0
0
0
0
0
0
0
0
0
0
0
0
0
0
0
0
0
0
0
0
0
0
0
0
0
0
0
0
0
0
0
0
0
0
0
0
0
0
0
0
0
0
0
0
0
0
0
0
0
0
0
0
0
0
0
0
0
0
0
0
0
0
0
0
0
0
0
0
0
0
0
0
0
0
0
0
0
0
0
0
0
0
0
0
0
0
0
0
0
0
0
0
0
0
0
0
0
0
0
0
0
0
0
0
0
0
0
0
0
0
204647
118551
144847
201483
152063
179863
182569
206171
170373
123953
143730
144138
139414
230252
134754
201123
211171
151130
77613.1
271711
217514
208285
90444.1
209986
114465
144592
267503
130271
82977.8
154731
86489.4
116320
149371
295543
299870
245582
173222
161756
222965
332108
155105
197384
228471
203196
224714
294491
267924
157922
197574
80139.9
159302
226268
189432
321067
202392
297581
229305
210754
211760
251944
189899
184400
306972
247910
209508
216495
230022
264913
250390
231993
230308
221525
292624
171529
245151
275746
175579
559742
141006
507554
232591
198725
179406
218409
246457
321433
204662
259291
268944
196017
358594
204123
184722
168692
327883
449596
134163
82591.2
74979.5
129637
99280.8
65679.1
64782.8
85297
116996
31789.8
64972.4
97548.9
97566.3
116107
44611.6
101071
523.979
0
0
0
0
0
0
0
0
0
0
0
0
0
0
0
0
0
0
0
0
0
0
0
0
0
0
0
0
0
0
0
0
0
0
0
0
0
0
0
0
0
0
0
0
0
0
0
0
0
0
0
0
0
0
0
0
0
0
0
0
0
0
0
0
0
0
0
0
0
0
0
0
0
0
0
0
0
0
0
0
0
0
0
0
0
0
0
0
0
0
0
0
0
0
0
0
0
0
0
0
0
0
0
0
0
0
0
0
0
0
0
0
0
0
0
0
0
0
0
0
0
0
0
0
0
0
0
0
0
0
0
0
0
0
0
0
0
0
0
0
0
0
0
0
0
0
0
0
0
0
0
0
0
0
0
0
0
0
0
0
0
0
0
0
0
0
0
0
0
0
0
0
0
0
0
0
0
0
0
0
0
0
0
0
0
0
0
0
0
0
0
0
0
0
0
0
0
0
0
0
0
0
0
0
0
0
0
0
0
0
0
0
0
0
0
0
0
0
0
0
0
0
0
0
0
0
0
0
0
0
0
0
0
0
0
0
0
0
0
0
0
0
0
0
0
0
0
0
0
0
0
0
0
0
0
0
0
0
0
0
0
0
0
0
0
0
0
0
0
0
0
)
;

boundaryField
{
    inlet
    {
        type            zeroGradient;
    }
    outlet
    {
        type            zeroGradient;
    }
    wall
    {
        type            zeroGradient;
    }
    procBoundary2to0
    {
        type            processor;
        value           nonuniform List<scalar> 
192
(
170907
75650.2
171035
102462
147439
157855
168868
135960
215898
391373
320298
157809
218144
280885
374440
418688
251867
283439
351524
304300
441667
169545
206257
140681
37497.4
36451.3
78920.9
82077.4
0
0
0
0
0
0
0
0
0
0
0
0
0
0
0
0
0
0
0
0
0
0
0
0
0
0
0
0
0
0
0
0
0
0
0
0
0
0
0
0
0
0
0
0
0
0
0
0
0
0
0
0
0
0
0
0
0
0
0
0
0
0
0
0
0
0
0
0
134738
188156
249760
132547
124589
218355
299950
150427
296185
179702
185381
172079
280571
372083
243601
258736
151813
221984
253246
274726
210507
191010
222875
217013
67943.8
140930
89054.9
100746
-5.97129e-13
2489.82
5351.62
0
0
0
0
0
0
0
0
0
0
0
0
0
0
0
0
0
0
0
0
0
0
0
0
0
0
0
0
0
0
0
0
0
0
0
0
0
0
0
0
0
0
0
0
0
0
0
0
0
0
0
0
0
0
0
0
0
0
0
0
0
0
0
0
0
)
;
    }
    procBoundary2to3
    {
        type            processor;
        value           nonuniform List<scalar> 
192
(
208190
112052
104702
253693
155635
186998
203289
122049
261513
336258
267813
172157
278819
248993
402486
272760
133726
224231
220610
317777
218520
164718
306763
143677
67625.2
88769.2
70344.4
55157
0
0
0
0
0
0
0
0
0
0
0
0
0
0
0
0
0
0
0
0
0
0
0
0
0
0
0
0
0
0
0
0
0
0
0
0
0
0
0
0
0
0
0
0
0
0
0
0
0
0
0
0
0
0
0
0
0
0
0
0
0
0
0
0
0
0
0
0
144265
187713
173925
179390
194122
141290
159571
221952
369892
313781
280662
224979
219820
397116
292897
264880
175255
180423
179459
263983
156550
356698
138986
367353
55417.4
76906.8
38502.7
54489.3
0
0
0
0
0
0
0
0
0
0
0
0
0
0
0
0
0
0
0
0
0
0
0
0
0
0
0
0
0
0
0
0
0
0
0
0
0
0
0
0
0
0
0
0
0
0
0
0
0
0
0
0
0
0
0
0
0
0
0
0
0
0
0
0
0
0
0
0
)
;
    }
}


// ************************************************************************* //
