/*--------------------------------*- C++ -*----------------------------------*\
| =========                 |                                                 |
| \\      /  F ield         | OpenFOAM: The Open Source CFD Toolbox           |
|  \\    /   O peration     | Version:  2506                                  |
|   \\  /    A nd           | Website:  www.openfoam.com                      |
|    \\/     M anipulation  |                                                 |
\*---------------------------------------------------------------------------*/
FoamFile
{
    version     2.0;
    format      ascii;
    arch        "LSB;label=32;scalar=64";
    class       surfaceScalarField;
    location    "0.09";
    object      phi;
}
// * * * * * * * * * * * * * * * * * * * * * * * * * * * * * * * * * * * * * //

dimensions      [0 3 -1 0 0 0 0];

oriented        oriented;

internalField   nonuniform List<scalar> 
3120
(
-3.21085e-10
-2.27331e-09
5.42377e-08
-1.16755e-09
9.9803e-10
-1.40241e-09
3.86945e-08
3.05163e-09
2.18292e-09
4.87724e-08
-1.45542e-09
5.58693e-08
4.5671e-10
4.1779e-09
4.7925e-08
-3.47067e-10
5.47314e-09
6.02087e-09
4.08914e-08
-1.4712e-09
-2.72471e-09
6.57297e-08
-6.06354e-10
4.47822e-08
2.8221e-09
-1.71845e-09
5.11311e-08
5.18053e-09
-3.4147e-09
-4.19409e-09
6.85575e-08
-7.74449e-10
1.65685e-09
4.78277e-08
7.33963e-10
4.29902e-08
-5.90184e-10
4.61018e-08
-7.24893e-10
7.65463e-09
4.52162e-09
4.06142e-08
3.2862e-09
-1.86528e-09
6.56932e-08
-3.53823e-09
4.83491e-08
2.87195e-10
6.71783e-09
5.49768e-09
3.81914e-08
2.75283e-09
2.08208e-09
1.23091e-09
5.34371e-08
-5.35146e-10
-4.59074e-09
6.27574e-08
-1.81416e-09
6.03125e-08
1.30642e-09
1.34929e-09
4.90171e-08
1.74988e-09
-2.69579e-09
-1.4494e-09
4.75739e-08
1.21468e-09
4.80608e-10
5.67479e-08
1.54149e-09
4.51941e-08
1.85865e-09
5.47621e-09
4.0246e-08
4.89954e-09
-2.86601e-10
7.33261e-09
6.19207e-08
1.07486e-09
3.66713e-09
4.32797e-08
1.13329e-09
4.91525e-08
4.19062e-09
4.92909e-08
-2.72427e-09
8.207e-10
-2.95729e-09
5.84681e-08
-3.37333e-09
-1.63073e-09
6.71154e-08
9.18399e-10
3.56431e-08
7.13966e-09
1.06516e-09
2.33145e-09
3.89526e-08
-1.46348e-09
-1.19418e-09
-3.4802e-09
6.34669e-08
-1.02771e-09
-8.19284e-10
6.72004e-08
8.23725e-10
6.40703e-08
-3.6421e-09
-1.82429e-09
6.02091e-08
-3.39415e-09
2.08615e-09
-3.34419e-09
4.17097e-08
2.46652e-09
4.4421e-10
5.51041e-08
1.2158e-09
4.72083e-08
-2.58848e-09
-2.60852e-09
4.72507e-08
-3.63194e-09
5.62448e-09
3.54578e-09
4.68178e-08
2.26291e-09
-2.50286e-09
4.95884e-08
-1.04464e-09
5.49082e-08
-7.23598e-10
5.62489e-08
1.78445e-09
-1.06274e-08
1.52379e-09
6.19565e-08
-2.18998e-09
3.33224e-09
5.63427e-08
6.46134e-09
3.602e-08
4.98271e-09
1.84373e-09
-7.0218e-12
4.62723e-08
-5.82112e-09
7.72674e-09
2.08405e-10
5.70764e-08
-2.87922e-09
-1.5526e-09
8.3439e-08
2.18516e-09
5.52225e-08
1.85231e-09
7.75686e-09
5.25089e-08
-1.91603e-09
4.0369e-09
5.54066e-10
3.91794e-08
2.31716e-09
1.80559e-09
5.34656e-08
2.42489e-09
4.57331e-08
-4.91482e-09
-8.11721e-09
7.81581e-08
-1.01185e-08
4.94007e-09
-6.21864e-09
4.37356e-08
4.66326e-09
-5.52512e-09
5.71959e-08
-1.71294e-09
6.29694e-08
-6.98598e-09
6.39984e-08
6.58213e-10
-9.53896e-09
5.89316e-09
3.70811e-08
5.77765e-09
6.5099e-09
4.44186e-08
5.78225e-09
5.42102e-08
-1.00049e-08
-2.61882e-09
2.86798e-11
5.88513e-08
-6.03651e-09
2.42331e-09
2.52112e-09
4.34273e-08
4.24787e-09
-4.70953e-10
7.19348e-08
-4.49112e-10
4.93571e-08
1.787e-10
1.30892e-09
5.6607e-08
-5.55702e-09
-1.67545e-09
1.97077e-10
4.33576e-08
3.14704e-09
3.28742e-09
4.48847e-08
3.25669e-10
4.22063e-08
-1.96943e-09
-7.77118e-09
9.80083e-08
-8.80069e-09
2.09286e-11
-1.41946e-09
4.33618e-08
2.97004e-10
-2.42477e-09
6.2632e-08
2.69484e-10
5.76197e-08
1.71626e-09
5.53557e-08
4.76599e-09
-5.61073e-09
-2.24954e-10
3.78327e-08
-2.29884e-10
3.9393e-09
3.45295e-08
3.30013e-09
5.32228e-08
-3.85451e-09
3.66767e-09
-3.54524e-09
5.92606e-08
-9.65312e-09
-4.00683e-09
9.71747e-11
4.87734e-08
-7.20423e-10
2.2026e-09
6.32031e-08
3.39654e-09
5.01061e-08
6.47323e-09
6.60987e-09
4.26832e-08
-2.70452e-09
-3.26122e-09
2.22124e-09
5.0968e-08
8.38533e-11
-3.93641e-10
4.41359e-08
1.36599e-09
4.76291e-08
6.2751e-09
-4.73552e-09
1.08191e-07
-5.11231e-09
-1.02735e-08
-2.01059e-09
6.41422e-08
2.75857e-09
2.02087e-09
4.71855e-08
5.44265e-09
5.46418e-08
3.76606e-09
6.08226e-08
-1.51349e-08
1.16641e-09
-1.93892e-09
4.62773e-08
-4.75022e-09
2.5321e-09
3.90861e-08
-7.00684e-09
6.98603e-08
-8.75576e-10
2.3451e-09
3.44305e-09
5.32125e-08
2.18436e-09
-1.16028e-09
5.04039e-10
5.63879e-08
6.42255e-10
2.40436e-09
5.90384e-08
1.32451e-09
5.52975e-08
-1.58623e-09
-8.44569e-09
5.58812e-08
2.76834e-10
1.17521e-09
-6.61889e-10
4.93724e-08
-6.93048e-10
6.88415e-10
4.77202e-08
8.39068e-10
4.87547e-08
3.39784e-09
5.91462e-09
7.9314e-08
1.11186e-08
1.65862e-09
5.81507e-09
5.94044e-08
-1.92488e-09
1.39821e-09
5.00592e-08
-2.36928e-10
5.49658e-08
7.97811e-10
5.75339e-08
4.76801e-09
3.63768e-09
6.70402e-11
5.12985e-08
1.52463e-09
-4.58572e-09
4.86104e-08
-3.47323e-09
6.19412e-08
3.23027e-09
-7.2748e-09
1.07191e-09
5.40611e-08
5.82947e-09
-1.01051e-08
1.52943e-09
5.90528e-08
-9.71496e-09
2.19278e-09
5.84873e-08
5.93692e-09
5.49869e-08
-6.91519e-09
3.62967e-09
5.02061e-08
1.00329e-08
-9.00116e-09
3.95101e-09
4.90374e-08
-6.00496e-09
4.80841e-09
4.211e-08
7.49336e-09
4.34459e-08
-7.00126e-09
6.97459e-09
7.23386e-08
1.06318e-08
-7.69211e-09
7.23207e-09
5.68146e-08
-3.48661e-09
6.75372e-09
4.39097e-08
6.95135e-09
5.10627e-08
-7.4123e-09
5.78247e-08
5.53072e-09
8.5651e-09
-8.67164e-09
5.22969e-08
7.49337e-09
-4.03183e-09
4.23452e-08
8.37961e-09
5.30195e-08
9.11252e-09
-1.40333e-09
-1.48367e-09
5.40796e-08
3.14757e-09
1.78987e-09
6.61379e-10
5.49639e-08
2.36443e-09
1.5945e-09
5.41487e-08
-1.67731e-09
5.13781e-08
1.61005e-09
-5.6186e-09
5.29889e-08
-2.58087e-10
2.83322e-09
-2.94901e-09
5.14242e-08
2.20153e-11
-1.75855e-09
4.82739e-08
-4.41036e-09
4.8098e-08
3.95986e-09
2.24444e-10
6.12932e-08
1.24268e-09
3.96778e-09
-1.42454e-09
5.52826e-08
-1.24594e-09
-2.09449e-09
4.94596e-08
-2.74018e-09
5.1508e-08
2.27253e-09
5.65138e-08
3.80647e-10
-1.11771e-09
1.99509e-09
5.3586e-08
-2.43542e-09
-3.42233e-09
4.91321e-08
-3.46373e-09
5.31477e-08
-5.54471e-10
7.01358e-10
-1.11744e-09
5.38941e-08
2.26506e-10
2.08052e-09
-4.8656e-10
5.35724e-08
2.60286e-09
-5.6165e-10
5.26138e-08
-2.31001e-09
5.10982e-08
1.66956e-09
-2.9631e-09
5.39759e-08
-8.1059e-10
2.16232e-09
-2.35043e-09
5.27957e-08
6.88843e-10
-2.16357e-09
5.13493e-08
-3.68739e-09
5.09216e-08
2.30837e-09
-3.36902e-10
5.64574e-08
-9.8282e-11
2.36794e-09
-1.42028e-09
5.42937e-08
-4.29848e-10
-2.06178e-09
5.21561e-08
-2.91671e-09
5.24518e-08
1.15183e-09
5.53327e-08
-7.49302e-11
-2.32087e-10
1.04613e-09
5.4118e-08
-1.84565e-09
-1.84351e-09
5.25235e-08
-2.56292e-09
5.34947e-08
-1.53965e-09
1.08903e-09
-9.12512e-10
5.39042e-08
-5.49303e-10
1.5411e-09
-7.98404e-10
5.34875e-08
1.46895e-09
-1.02814e-09
5.28224e-08
-1.91887e-09
5.21116e-08
1.20796e-09
-1.56993e-09
5.41526e-08
-7.26634e-10
1.29051e-09
-1.57601e-09
5.34917e-08
5.71163e-10
-1.73738e-09
5.2779e-08
-2.48099e-09
5.24561e-08
1.2133e-09
-8.12654e-10
5.49369e-08
-4.49373e-10
1.11626e-09
-1.30545e-09
5.4121e-08
-8.08382e-11
-1.67927e-09
5.3296e-08
-2.18333e-09
5.32573e-08
7.20671e-10
5.48079e-08
-6.66337e-10
-3.41587e-10
5.28049e-10
5.42883e-08
-1.28213e-09
-7.39356e-10
5.3684e-08
-1.57167e-09
5.38933e-08
-1.44088e-09
8.23163e-10
-5.79209e-10
5.40428e-08
-5.90878e-10
9.35308e-10
-6.49894e-10
5.37504e-08
7.34639e-10
-8.62418e-10
5.33765e-08
-1.29536e-09
5.30443e-08
7.40197e-10
-8.40331e-10
5.42081e-08
-5.34066e-10
7.01876e-10
-9.88545e-10
5.38694e-08
2.94645e-10
-1.19594e-09
5.35209e-08
-1.58363e-09
5.33444e-08
5.91269e-10
-6.47457e-10
5.45215e-08
-3.6822e-10
4.77135e-10
-9.34285e-10
5.41813e-08
-7.93939e-11
-1.18703e-09
5.38442e-08
-1.48123e-09
5.37946e-08
3.07271e-10
5.45799e-08
-5.45123e-10
-1.81108e-10
1.52385e-10
5.43592e-08
-8.49734e-10
-4.22851e-10
5.41194e-08
-1.04687e-09
5.41823e-08
-1.12741e-09
4.89499e-10
-3.37052e-10
5.41906e-08
-3.9754e-10
4.8851e-10
-4.23556e-10
5.40186e-08
3.22146e-10
-5.69375e-10
5.38241e-08
-7.92722e-10
5.36704e-08
3.95342e-10
-4.86319e-10
5.42841e-08
-3.21849e-10
3.34299e-10
-6.08966e-10
5.41161e-08
9.49057e-11
-7.58632e-10
5.39503e-08
-9.67182e-10
5.38663e-08
2.71838e-10
-4.53976e-10
5.44301e-08
-2.12735e-10
1.76577e-10
-6.14544e-10
5.42822e-08
-1.10714e-10
-7.71381e-10
5.41445e-08
-9.39725e-10
5.41228e-08
1.09131e-10
5.45047e-08
-4.05396e-10
-8.24717e-11
5.35115e-13
5.44117e-08
-5.58384e-10
-2.94924e-10
5.43232e-08
-6.79716e-10
5.43561e-08
-7.65508e-10
2.56511e-10
-1.9678e-10
5.4308e-08
-2.24874e-10
2.30084e-10
-2.63237e-10
5.42147e-08
1.1884e-10
-3.55205e-10
5.41181e-08
-4.76247e-10
5.40498e-08
1.86577e-10
-2.90011e-10
5.43591e-08
-1.68389e-10
1.34628e-10
-3.72259e-10
5.42771e-08
-3.16369e-12
-4.67667e-10
5.42011e-08
-5.82392e-10
5.41671e-08
1.03604e-10
-3.00736e-10
5.44346e-08
-9.7375e-11
3.53424e-11
-3.92172e-10
5.43702e-08
-1.18194e-10
-4.85493e-10
5.4316e-08
-5.80609e-10
5.43141e-08
9.44688e-12
5.4492e-08
-2.7874e-10
-1.88121e-11
-6.39997e-11
5.44551e-08
-3.62183e-10
-2.19269e-10
5.44275e-08
-4.34555e-10
5.44536e-08
-4.9334e-10
1.21197e-10
-1.19816e-10
5.43917e-08
-1.14329e-10
9.51341e-11
-1.64693e-10
5.43436e-08
2.63477e-11
-2.21315e-10
5.42976e-08
-2.89567e-10
5.42693e-08
7.49181e-11
-1.78394e-10
5.44197e-08
-7.68612e-11
3.67884e-11
-2.30288e-10
5.4381e-08
-4.2209e-11
-2.88729e-10
5.43482e-08
-3.53294e-10
5.43381e-08
2.28539e-11
-1.96695e-10
5.44613e-08
-3.12298e-11
-2.26054e-11
-2.49516e-10
5.44348e-08
-1.07252e-10
-3.0414e-10
5.44162e-08
-3.58208e-10
5.44233e-08
-3.22771e-11
5.45006e-08
-1.87769e-10
1.47818e-11
-8.03349e-11
5.44886e-08
-2.3495e-10
-1.64005e-10
5.44847e-08
-2.77665e-10
5.45069e-08
-3.13802e-10
4.93951e-11
-7.70451e-11
5.44479e-08
-5.15687e-11
2.94355e-11
-1.05953e-10
5.44244e-08
-1.13796e-11
-1.40699e-10
5.44038e-08
-1.80246e-10
5.43937e-08
2.02095e-11
-1.13961e-10
5.44638e-08
-2.7215e-11
-5.70879e-12
-1.45564e-10
5.44467e-08
-5.1138e-11
-1.80664e-10
5.44343e-08
-2.17815e-10
5.44344e-08
-1.21432e-11
-1.28961e-10
5.44882e-08
3.58897e-13
-4.15064e-11
-1.60039e-10
5.44787e-08
-8.86456e-11
-1.91954e-10
5.44749e-08
-2.22883e-10
5.44847e-08
-4.4405e-11
5.45138e-08
-1.25982e-10
2.82257e-11
-7.50433e-11
5.45124e-08
-1.53255e-10
-1.21001e-10
5.45171e-08
-1.78224e-10
5.45352e-08
-1.99459e-10
1.41326e-11
-5.24073e-11
5.44846e-08
-1.86508e-11
2.59445e-13
-7.05476e-11
5.44739e-08
-2.37428e-11
-9.17721e-11
5.44656e-08
-1.15142e-10
5.44635e-08
-4.23014e-12
-7.50312e-11
5.44942e-08
-3.47356e-12
-2.11978e-11
-9.43204e-11
5.44876e-08
-4.72263e-11
-1.1531e-10
5.44844e-08
-1.36959e-10
5.44882e-08
-2.39115e-11
-8.56298e-11
5.45091e-08
1.37529e-11
-4.26063e-11
-1.04008e-10
5.45072e-08
-6.91338e-11
-1.22693e-10
5.45092e-08
-1.40499e-10
5.45185e-08
-4.3045e-11
5.45257e-08
-8.48107e-11
3.04101e-11
-6.22475e-11
5.45285e-08
-1.00762e-10
-8.77851e-11
5.45354e-08
-1.15237e-10
5.45495e-08
-1.2744e-10
-1.65236e-12
-3.70534e-11
5.45082e-08
-2.89136e-12
-1.0974e-11
-4.83975e-11
5.45039e-08
-2.50639e-11
-6.13463e-11
5.45015e-08
-7.5262e-11
5.45026e-08
-1.30982e-11
-5.07293e-11
5.45144e-08
6.6892e-12
-2.40405e-11
-6.24972e-11
5.45128e-08
-3.905e-11
-7.50709e-11
5.45134e-08
-8.77596e-11
5.4518e-08
-2.514e-11
-5.76245e-11
5.45239e-08
1.7417e-11
-3.68803e-11
-6.85428e-11
5.45251e-08
-5.19229e-11
-7.9502e-11
5.4529e-08
-8.97802e-11
5.45368e-08
-3.65584e-11
5.45348e-08
-5.73824e-11
2.73867e-11
-4.84514e-11
5.45388e-08
-6.67747e-11
-6.27375e-11
5.45455e-08
-7.51168e-11
5.45562e-08
-8.20312e-11
-7.57521e-12
-2.67412e-11
5.45232e-08
3.74687e-12
-1.37206e-11
-3.38278e-11
5.45221e-08
-2.20738e-11
-4.17184e-11
5.45222e-08
-5.00068e-11
5.45244e-08
-1.47151e-11
-3.49024e-11
5.45276e-08
9.88672e-12
-2.16739e-11
-4.20721e-11
5.45281e-08
-3.04093e-11
-4.96018e-11
5.45302e-08
-5.70281e-11
5.45345e-08
-2.20791e-11
-3.91372e-11
5.45339e-08
1.65468e-11
-2.93813e-11
-4.56339e-11
5.45362e-08
-3.79675e-11
-5.20518e-11
5.45402e-08
-5.79582e-11
5.45465e-08
-2.89152e-11
5.45412e-08
-3.89272e-11
2.25126e-11
-3.62082e-11
5.45452e-08
-4.44699e-11
-4.42267e-11
5.4551e-08
-4.92431e-11
5.45589e-08
-5.30997e-11
-8.80544e-12
-1.93052e-11
5.45329e-08
5.85607e-12
-1.27739e-11
-2.37035e-11
5.45332e-08
-1.7768e-11
-2.84928e-11
5.45344e-08
-3.3403e-11
5.45369e-08
-1.32353e-11
-2.40986e-11
5.45362e-08
9.76445e-12
-1.7601e-11
-2.84393e-11
5.45375e-08
-2.27112e-11
-3.29218e-11
5.45399e-08
-3.72386e-11
5.45437e-08
-1.77136e-11
-2.65823e-11
5.45406e-08
1.38823e-11
-2.22053e-11
-3.04262e-11
5.45431e-08
-2.71218e-11
-3.41551e-11
5.45467e-08
-3.75081e-11
5.45516e-08
-2.1793e-11
5.45456e-08
-2.62968e-11
1.74272e-11
-2.62136e-11
5.45492e-08
-2.95545e-11
-3.07114e-11
5.45539e-08
-3.22516e-11
5.45597e-08
-3.43525e-11
-7.9353e-12
-1.36159e-11
5.45392e-08
5.78399e-12
-1.04171e-11
-1.63059e-11
5.45402e-08
-1.33807e-11
-1.91857e-11
5.45417e-08
-2.20683e-11
5.45441e-08
-1.06456e-11
-1.6387e-11
5.45418e-08
8.2417e-12
-1.33224e-11
-1.89732e-11
5.45434e-08
-1.62867e-11
-2.16045e-11
5.45458e-08
-2.40885e-11
5.45489e-08
-1.33282e-11
-1.7785e-11
5.4545e-08
1.07482e-11
-1.60375e-11
-2.00211e-11
5.45474e-08
-1.8836e-11
-2.21516e-11
5.45505e-08
-2.40205e-11
5.45543e-08
-1.57289e-11
5.45486e-08
-1.74686e-11
1.28143e-11
-1.8359e-11
5.45517e-08
-1.93548e-11
-2.08639e-11
5.45554e-08
-2.08463e-11
5.45599e-08
-2.19511e-11
-6.24709e-12
-9.12794e-12
5.45434e-08
4.77985e-12
-7.73014e-12
-1.07217e-11
5.45445e-08
-9.4266e-12
-1.24095e-11
5.45462e-08
-1.4071e-11
5.45483e-08
-7.85488e-12
-1.06923e-11
5.45454e-08
6.27481e-12
-9.43701e-12
-1.21848e-11
5.45471e-08
-1.11044e-11
-1.36841e-11
5.45492e-08
-1.50845e-11
5.45519e-08
-9.41355e-12
-1.14469e-11
5.45479e-08
7.75027e-12
-1.09931e-11
-1.27036e-11
5.45501e-08
-1.25483e-11
-1.38814e-11
5.45527e-08
-1.48928e-11
5.45558e-08
-1.07828e-11
5.45506e-08
-1.11695e-11
8.91394e-12
-1.22986e-11
5.45532e-08
-1.22235e-11
-1.3665e-11
5.45563e-08
-1.30167e-11
5.45598e-08
-1.35671e-11
-4.47137e-12
-5.62223e-12
5.45459e-08
3.55487e-12
-5.32292e-12
-6.50785e-12
5.45471e-08
-6.22821e-12
-7.43884e-12
5.45487e-08
-8.34944e-12
5.45506e-08
-5.36832e-12
-6.46527e-12
5.45476e-08
4.40655e-12
-6.26844e-12
-7.27232e-12
5.45492e-08
-7.15005e-12
-8.07412e-12
5.45512e-08
-8.82113e-12
5.45535e-08
-6.22016e-12
-6.86097e-12
5.45497e-08
5.22434e-12
-7.10866e-12
-7.51491e-12
5.45516e-08
-7.92525e-12
-8.12086e-12
5.4554e-08
-8.63387e-12
5.45566e-08
-6.94859e-12
5.45519e-08
-6.67003e-12
5.85091e-12
-7.79758e-12
5.45542e-08
-7.21185e-12
-8.50762e-12
5.45568e-08
-7.5971e-12
5.45597e-08
-7.84139e-12
-3.26424e-12
-3.3532e-12
2.69754e-12
-3.79057e-12
-3.81952e-12
-4.26069e-12
-4.30385e-12
-4.77567e-12
-3.74183e-12
-3.80132e-12
3.15147e-12
-4.28579e-12
-4.20589e-12
-4.7408e-12
-4.6048e-12
-4.97369e-12
-4.179e-12
-4.01841e-12
3.57379e-12
-4.71208e-12
-4.3234e-12
-5.13011e-12
-4.60344e-12
-4.8363e-12
-4.53389e-12
-3.92929e-12
3.89574e-12
-5.04869e-12
-4.15426e-12
-5.41275e-12
-4.30491e-12
-4.38625e-12
2.35442e-09
-2.49917e-09
2.66421e-08
5.84208e-09
-1.73165e-09
-1.25828e-09
5.26141e-08
1.06059e-09
4.03815e-09
4.22077e-08
-5.16241e-09
6.12136e-08
9.78217e-10
5.42839e-09
2.38513e-08
7.03682e-09
1.96244e-09
4.61879e-09
4.3824e-08
-7.4893e-09
3.58218e-09
6.98848e-08
4.81129e-09
4.43805e-08
3.67131e-10
5.36515e-09
4.26287e-08
3.5751e-09
1.74243e-09
-2.92362e-09
6.48548e-08
-4.32051e-09
-4.60951e-10
7.72322e-08
5.14299e-09
7.15752e-08
-1.85748e-09
5.48423e-08
6.01883e-09
2.61129e-09
5.80084e-08
-9.61731e-10
7.67595e-08
9.23253e-08
2.5869e-09
1.5087e-09
1.7232e-08
2.59022e-09
7.41597e-10
-3.43845e-09
5.45246e-08
3.04916e-09
-3.27816e-10
4.11464e-08
2.46382e-09
7.3361e-08
-1.55017e-10
8.22702e-10
2.39621e-08
7.30292e-10
2.7992e-09
1.91679e-09
3.55146e-08
3.90937e-09
3.20854e-09
6.52383e-08
-1.43151e-09
5.42562e-08
5.83548e-11
1.48622e-10
4.28319e-08
4.12468e-10
3.48931e-09
-2.04804e-09
6.53886e-08
1.69336e-09
7.35523e-09
7.48815e-08
1.0326e-09
7.13735e-08
4.23352e-10
5.29545e-08
1.9317e-09
9.34166e-09
4.78556e-08
1.99368e-09
9.11133e-08
9.50406e-08
-2.23234e-09
-6.30934e-09
3.47301e-08
-7.17192e-09
7.39416e-09
6.92163e-09
3.57865e-08
3.00676e-10
-4.21991e-09
5.89211e-08
1.17632e-09
7.96842e-08
3.54752e-09
-6.26345e-09
2.44695e-08
-4.1008e-09
-3.95348e-11
-5.36181e-09
5.13851e-08
3.87983e-09
-2.58669e-09
5.96857e-08
4.52712e-09
5.96071e-08
2.67016e-09
-1.03969e-08
4.72868e-08
-2.99157e-09
2.00659e-09
7.33531e-09
5.33551e-08
7.56289e-09
-4.65312e-09
7.13917e-08
-4.41043e-09
8.86361e-08
4.71805e-09
4.28328e-08
-3.00201e-09
-2.41133e-09
6.27618e-08
1.21391e-08
7.38642e-08
1.00936e-07
4.1503e-09
-4.29834e-09
4.14227e-08
-5.88637e-09
2.65172e-09
-9.27636e-10
4.39904e-08
-8.92269e-09
-6.33386e-09
8.26116e-08
-4.20419e-10
4.61908e-08
2.99403e-09
-9.32615e-09
2.72949e-08
-7.91688e-10
-7.69216e-10
-6.9658e-09
6.11865e-08
6.54953e-11
-3.30761e-09
5.58248e-08
2.87484e-09
4.97675e-08
2.98741e-09
1.89689e-09
3.28299e-08
2.46481e-10
1.11322e-09
2.23314e-10
4.80402e-08
4.10668e-09
-6.42955e-09
7.15201e-08
-4.93009e-10
8.40965e-08
1.62176e-09
4.47624e-08
-2.56282e-11
-2.20269e-09
6.78891e-08
5.12211e-09
6.20418e-08
1.05385e-07
-3.66475e-09
-8.76705e-09
6.21943e-08
-3.57376e-09
1.99526e-11
-5.42483e-09
4.55006e-08
-1.99169e-09
1.77255e-09
8.61509e-08
2.46656e-09
2.88455e-08
-6.02282e-10
-3.20709e-09
2.55258e-08
-3.18856e-09
3.53565e-09
2.89876e-10
5.13339e-08
3.55249e-09
-5.88979e-09
6.34703e-08
-1.34371e-08
6.68114e-08
1.14586e-09
-2.33486e-09
3.18816e-08
-1.06983e-09
-1.05945e-09
-6.98239e-09
5.75178e-08
-2.26629e-09
1.36905e-08
5.31466e-08
6.09707e-09
4.78009e-08
-1.07804e-09
4.71091e-08
-2.92559e-09
5.98868e-09
5.30547e-08
-7.06891e-09
8.89364e-08
9.87894e-08
2.07505e-09
2.96301e-09
3.33832e-08
8.63815e-09
-4.95062e-09
-1.86084e-09
4.96369e-08
9.80657e-09
6.32392e-10
6.37544e-08
-7.46046e-09
4.99726e-08
6.07696e-11
1.30461e-09
2.67112e-08
4.12253e-10
-1.4732e-09
8.86167e-09
4.21453e-08
2.82688e-09
3.01394e-09
5.67886e-08
2.31674e-10
5.87853e-08
2.12074e-09
-5.01137e-09
3.91135e-08
-3.03662e-09
-2.64303e-09
-9.3822e-09
8.05254e-08
1.23917e-09
-1.22206e-08
6.4499e-08
-1.82267e-08
6.4337e-08
1.03489e-09
4.64283e-08
-4.28871e-09
-8.6898e-09
5.59774e-08
-7.64084e-09
7.71499e-08
6.036e-08
-2.87511e-10
1.60254e-09
3.69986e-08
-1.62368e-10
-1.08017e-09
5.40354e-09
4.65507e-08
-1.02869e-09
1.32899e-09
5.89008e-08
-1.39336e-09
5.6523e-08
-2.52766e-09
-2.11883e-10
3.2786e-08
-1.73261e-09
-3.70068e-09
-4.33739e-10
4.91557e-08
-2.90176e-09
7.98721e-10
5.65199e-08
-3.15482e-09
5.90551e-08
-2.0511e-09
-8.59309e-10
4.20809e-08
-2.68858e-10
-2.47093e-11
7.91319e-09
7.01521e-08
-2.11329e-09
8.10304e-10
6.65759e-08
6.19562e-10
6.11692e-08
-2.45128e-10
4.72962e-08
-8.59837e-10
-7.09704e-10
6.33956e-08
2.16695e-09
7.47137e-08
6.56332e-08
-1.08265e-09
1.13086e-08
3.1059e-08
1.24431e-09
-4.06916e-09
1.01007e-08
4.69299e-08
-2.13181e-09
1.05459e-08
5.47972e-08
6.87466e-09
5.52284e-08
-1.79963e-09
8.90979e-09
3.63823e-08
6.02346e-10
-4.53391e-09
7.9842e-09
5.40069e-08
-4.16187e-09
7.77686e-09
5.89171e-08
1.78975e-09
5.81532e-08
-2.37239e-09
6.62539e-09
4.59923e-08
7.45642e-10
-3.85962e-09
8.57136e-09
7.10526e-08
-4.54296e-09
3.91564e-09
7.11206e-08
-1.0502e-08
6.46005e-08
-1.95721e-09
5.52519e-08
6.26932e-10
-5.19363e-09
7.52036e-08
-8.70751e-09
8.21432e-08
3.82078e-08
-1.74635e-10
-2.58683e-10
3.21684e-08
-2.95359e-10
2.75446e-10
-1.81419e-09
4.5859e-08
-9.50987e-10
-5.35322e-10
5.30954e-08
3.47346e-09
5.57493e-08
-4.74887e-10
-1.73213e-09
3.86866e-08
-3.55545e-10
1.58732e-09
-3.11586e-09
5.32468e-08
9.04388e-10
-5.14416e-10
5.95793e-08
5.75384e-09
6.16783e-08
-1.22892e-09
-1.2622e-09
4.62064e-08
5.45438e-10
2.93477e-09
-2.97348e-10
6.40705e-08
3.56678e-09
3.18839e-10
6.96556e-08
1.14971e-08
6.78256e-08
-7.99306e-10
5.36027e-08
1.18667e-09
3.36345e-09
7.07437e-08
7.69691e-09
7.81289e-08
6.38127e-08
-5.31438e-10
-5.15313e-10
3.30604e-08
7.98841e-11
-1.5613e-10
-1.58159e-09
4.52203e-08
-1.05448e-09
-1.24639e-09
5.26777e-08
4.09765e-10
5.66189e-08
-7.95611e-10
-8.61482e-10
3.97725e-08
5.64033e-11
2.15209e-10
-2.02313e-09
5.26781e-08
-2.20277e-10
-1.42406e-09
6.01927e-08
1.89133e-09
6.35911e-08
-1.17125e-09
-5.52785e-10
4.66331e-08
4.36564e-10
6.69272e-10
-6.0627e-10
6.08134e-08
8.43493e-10
-4.91671e-10
6.85491e-08
4.06534e-09
7.03357e-08
-1.10551e-09
5.3485e-08
6.7087e-10
1.02384e-09
6.80082e-08
2.5577e-09
7.61033e-08
7.43826e-08
-1.3636e-10
-5.41607e-10
3.29148e-08
1.57144e-10
-6.74295e-11
-1.01944e-09
4.48893e-08
-7.4443e-10
-1.01401e-09
5.27976e-08
-4.51804e-10
5.70408e-08
-2.56235e-10
-4.13368e-10
3.97339e-08
1.66883e-10
5.78085e-11
-8.97925e-10
5.22431e-08
-3.86398e-10
-8.26189e-10
6.04493e-08
4.22282e-10
6.45318e-08
-3.98198e-10
-2.03243e-10
4.65545e-08
2.6732e-10
1.79762e-10
-3.48423e-10
5.96862e-08
-3.94867e-11
-2.88395e-10
6.82305e-08
1.17937e-09
7.1782e-08
-4.19627e-10
5.33661e-08
3.35691e-10
3.32023e-10
6.69081e-08
4.44045e-10
7.57028e-08
7.82299e-08
-1.78947e-10
-4.49322e-10
3.28416e-08
1.56141e-10
-2.11075e-10
-7.07905e-10
4.47799e-08
-6.01597e-10
-7.87114e-10
5.29285e-08
-6.57306e-10
5.72188e-08
-2.37595e-10
-3.16303e-10
3.96793e-08
1.59293e-10
-1.78507e-10
-5.40063e-10
5.20165e-08
-4.80446e-10
-5.46887e-10
6.0511e-08
-1.65317e-10
6.48954e-08
-2.88094e-10
-1.57427e-10
4.65028e-08
1.8125e-10
-1.35561e-10
-2.61178e-10
5.92549e-08
-3.16483e-10
-2.24654e-10
6.80891e-08
2.46579e-10
7.24171e-08
-3.09649e-10
5.33186e-08
1.99952e-10
-9.20034e-11
6.64293e-08
-1.68263e-10
7.55544e-08
7.96627e-08
-1.64107e-10
-3.3123e-10
3.27977e-08
1.3355e-10
-2.25216e-10
-4.63371e-10
4.4746e-08
-4.44078e-10
-5.35341e-10
5.3003e-08
-5.40058e-10
5.7302e-08
-1.87802e-10
-2.29077e-10
3.96339e-08
1.30956e-10
-2.1892e-10
-3.36806e-10
5.19212e-08
-4.12825e-10
-3.6159e-10
6.0531e-08
-2.64588e-10
6.50207e-08
-2.04412e-10
-1.15118e-10
4.64612e-08
1.32237e-10
-2.02515e-10
-1.71756e-10
5.90879e-08
-3.52842e-10
-1.61457e-10
6.80392e-08
-1.94036e-11
7.26564e-08
-2.15494e-10
5.32834e-08
1.35768e-10
-1.89018e-10
6.62311e-08
-2.97268e-10
7.55011e-08
8.01895e-08
-1.41627e-10
-2.28114e-10
3.27804e-08
1.07999e-10
-1.98156e-10
-2.99472e-10
4.47398e-08
-3.19171e-10
-3.51523e-10
5.30409e-08
-3.82557e-10
5.73384e-08
-1.50223e-10
-1.58966e-10
3.96109e-08
1.04001e-10
-1.98374e-10
-2.14103e-10
5.1884e-08
-3.16208e-10
-2.39411e-10
6.05366e-08
-2.27879e-10
6.50527e-08
-1.54721e-10
-8.13521e-11
4.64376e-08
1.00968e-10
-1.92165e-10
-1.10716e-10
5.9022e-08
-2.96918e-10
-1.13419e-10
6.80179e-08
-7.601e-11
7.27262e-08
-1.59298e-10
5.3261e-08
1.00479e-10
-1.88593e-10
6.61496e-08
-2.79333e-10
7.54784e-08
8.03585e-08
-1.15451e-10
-1.53518e-10
3.2777e-08
8.43877e-11
-1.59387e-10
-1.94541e-10
4.47433e-08
-2.26897e-10
-2.29836e-10
5.30606e-08
-2.58022e-10
5.73519e-08
-1.18548e-10
-1.07702e-10
3.96028e-08
8.08565e-11
-1.61121e-10
-1.38899e-10
5.18711e-08
-2.30505e-10
-1.60049e-10
6.05362e-08
-1.70334e-10
6.50511e-08
-1.18962e-10
-5.5706e-11
4.64271e-08
7.75642e-11
-1.5876e-10
-7.25091e-11
5.89954e-08
-2.251e-10
-7.95163e-11
6.80037e-08
-7.48521e-11
7.27311e-08
-1.20613e-10
5.32497e-08
7.62997e-11
-1.58223e-10
6.61147e-08
-2.20189e-10
7.54609e-08
8.03922e-08
-8.9959e-11
-1.02317e-10
3.27788e-08
6.43024e-11
-1.21595e-10
-1.26984e-10
4.47487e-08
-1.59678e-10
-1.50114e-10
5.30707e-08
-1.70378e-10
5.73548e-08
-9.09887e-11
-7.17818e-11
3.96016e-08
6.16162e-11
-1.23222e-10
-9.08647e-11
5.18673e-08
-1.63537e-10
-1.06857e-10
6.05334e-08
-1.19591e-10
6.50394e-08
-9.02182e-11
-3.72259e-11
4.6424e-08
5.89516e-11
-1.22223e-10
-4.77057e-11
5.89844e-08
-1.62301e-10
-5.48826e-11
6.79919e-08
-5.87635e-11
7.27151e-08
-9.06436e-11
5.32455e-08
5.77736e-11
-1.22305e-10
6.60987e-08
-1.61071e-10
7.54448e-08
8.0381e-08
-6.78756e-11
-6.82009e-11
3.27818e-08
4.80631e-11
-8.97407e-11
-8.33685e-11
4.47533e-08
-1.11405e-10
-9.81694e-11
5.30755e-08
-1.11547e-10
5.73532e-08
-6.80838e-11
-4.76137e-11
3.9603e-08
4.61346e-11
-9.08446e-11
-5.97282e-11
5.18667e-08
-1.14154e-10
-7.10544e-11
6.05297e-08
-8.12941e-11
6.50264e-08
-6.70819e-11
-2.46156e-11
4.64242e-08
4.41579e-11
-9.02699e-11
-3.14463e-11
5.89794e-08
-1.13942e-10
-3.72856e-11
6.79819e-08
-4.2189e-11
7.26955e-08
-6.7024e-11
5.32449e-08
4.32416e-11
-9.03711e-11
6.60907e-08
-1.13689e-10
7.5431e-08
8.03591e-08
-5.00376e-11
-4.56481e-11
3.27847e-08
3.53627e-11
-6.47882e-11
-5.50701e-11
4.47565e-08
-7.71654e-11
-6.43973e-11
5.30774e-08
-7.28955e-11
5.73499e-08
-4.99207e-11
-3.16314e-11
3.9605e-08
3.40167e-11
-6.54107e-11
-3.94306e-11
5.18669e-08
-7.88546e-11
-4.71394e-11
6.05261e-08
-5.438e-11
6.50151e-08
-4.89873e-11
-1.62437e-11
4.64254e-08
3.26018e-11
-6.49633e-11
-2.07712e-11
5.89769e-08
-7.87814e-11
-2.50787e-11
6.79738e-08
-2.9078e-11
7.26782e-08
-4.87645e-11
5.32456e-08
3.1934e-11
-6.49668e-11
6.60862e-08
-7.87108e-11
7.54197e-08
8.03382e-08
-3.6185e-11
-3.06447e-11
3.27868e-08
2.56276e-11
-4.59725e-11
-3.651e-11
4.47585e-08
-5.30472e-11
-4.23191e-11
5.30778e-08
-4.76085e-11
5.73463e-08
-3.59554e-11
-2.10572e-11
3.96068e-08
2.47072e-11
-4.62594e-11
-2.60797e-11
5.18671e-08
-5.3995e-11
-3.11932e-11
6.05229e-08
-3.60363e-11
6.5006e-08
-3.51708e-11
-1.07184e-11
4.64269e-08
2.37132e-11
-4.58692e-11
-1.37199e-11
5.89755e-08
-5.38826e-11
-1.67378e-11
6.79676e-08
-1.96092e-11
7.26647e-08
-3.49171e-11
5.32468e-08
2.32414e-11
-4.5799e-11
6.60835e-08
-5.38138e-11
7.54111e-08
8.03214e-08
-2.56521e-11
-2.04997e-11
3.27884e-08
1.82345e-11
-3.20516e-11
-2.41385e-11
4.47598e-08
-3.60836e-11
-2.77095e-11
5.30776e-08
-3.09492e-11
5.73432e-08
-2.54077e-11
-1.39696e-11
3.96083e-08
1.76205e-11
-3.21375e-11
-1.71753e-11
5.18672e-08
-3.65716e-11
-2.04994e-11
6.05203e-08
-2.364e-11
6.49993e-08
-2.4783e-11
-7.04112e-12
4.64281e-08
1.69341e-11
-3.18021e-11
-9.00843e-12
5.89746e-08
-3.64242e-11
-1.10557e-11
6.79629e-08
-1.30012e-11
7.26547e-08
-2.45536e-11
5.3248e-08
1.66095e-11
-3.1702e-11
6.60817e-08
-3.6341e-11
7.54048e-08
8.0309e-08
-1.77025e-11
-1.34892e-11
3.27896e-08
1.26264e-11
-2.18085e-11
-1.57223e-11
4.47606e-08
-2.40922e-11
-1.7875e-11
5.30772e-08
-1.9818e-11
5.73409e-08
-1.74886e-11
-9.11911e-12
3.96094e-08
1.22299e-11
-2.17922e-11
-1.11278e-11
5.18673e-08
-2.4316e-11
-1.32412e-11
6.05185e-08
-1.52239e-11
6.49945e-08
-1.70154e-11
-4.54855e-12
4.64292e-08
1.17687e-11
-2.15222e-11
-5.8082e-12
5.8974e-08
-2.41679e-11
-7.15942e-12
6.79596e-08
-8.42628e-12
7.26478e-08
-1.68307e-11
5.3249e-08
1.15529e-11
-2.14251e-11
6.60806e-08
-2.4086e-11
7.54004e-08
8.03003e-08
-1.17087e-11
-8.54408e-12
3.27904e-08
8.37277e-12
-1.42654e-11
-9.87495e-12
4.47611e-08
-1.55443e-11
-1.11282e-11
5.30769e-08
-1.22524e-11
5.73393e-08
-1.15439e-11
-5.73012e-12
3.96102e-08
8.12631e-12
-1.42122e-11
-6.94519e-12
5.18674e-08
-1.56295e-11
-8.24091e-12
6.05173e-08
-9.44587e-12
6.49914e-08
-1.12087e-11
-2.82647e-12
4.643e-08
7.829e-12
-1.40141e-11
-3.59991e-12
5.89738e-08
-1.55073e-11
-4.45701e-12
6.79575e-08
-5.24577e-12
7.26434e-08
-1.10717e-11
5.32498e-08
7.68808e-12
-1.39368e-11
6.608e-08
-1.54409e-11
7.53975e-08
8.02947e-08
-7.28399e-12
-5.0513e-12
3.2791e-08
5.22145e-12
-8.82117e-12
-5.78713e-12
4.47615e-08
-9.52826e-12
-6.46814e-12
5.30768e-08
-7.07384e-12
5.73384e-08
-7.16988e-12
-3.35311e-12
3.96108e-08
5.06992e-12
-8.76611e-12
-4.04341e-12
5.18676e-08
-9.5478e-12
-4.78248e-12
6.05165e-08
-5.46458e-12
6.49896e-08
-6.95532e-12
-1.63532e-12
4.64306e-08
4.8878e-12
-8.63418e-12
-2.08264e-12
5.89737e-08
-9.46155e-12
-2.58527e-12
6.79563e-08
-3.04146e-12
7.26407e-08
-6.85671e-12
5.32504e-08
4.79128e-12
-8.57508e-12
6.60797e-08
-9.41462e-12
7.53958e-08
8.02914e-08
-4.53448e-12
-2.91042e-12
3.2656e-12
-5.51051e-12
-3.28632e-12
-5.93501e-12
-3.64482e-12
-3.95902e-12
-4.45307e-12
-1.89164e-12
3.16203e-12
-5.46599e-12
-2.27909e-12
-5.93033e-12
-2.68892e-12
-3.06853e-12
-4.32844e-12
-9.08498e-13
3.04847e-12
-5.38392e-12
-1.16747e-12
-5.87893e-12
-1.45379e-12
-1.72367e-12
-4.24046e-12
2.96234e-12
-5.3287e-12
-5.84967e-12
1.50835e-08
2.51942e-10
6.34628e-08
1.16202e-08
-5.18634e-09
9.20895e-08
-1.87238e-08
-3.26049e-09
1.14878e-07
-2.9571e-10
3.40526e-08
2.42591e-09
7.66315e-09
6.63313e-08
7.19928e-09
6.34587e-09
5.13683e-08
-1.2027e-08
-3.44005e-09
8.045e-08
4.58706e-09
3.53148e-08
-6.46328e-09
3.33648e-09
7.7101e-08
-8.09378e-09
-1.48027e-11
6.66693e-08
-3.5386e-09
3.74561e-09
3.95589e-08
-3.11938e-10
5.11266e-08
-1.63137e-08
7.8578e-08
1.01128e-09
3.23235e-08
-1.07871e-08
6.22582e-08
3.49904e-08
-1.17852e-08
-4.1877e-09
8.77532e-08
-2.82072e-09
5.68869e-10
8.19953e-08
-2.45183e-09
-1.2617e-10
1.109e-07
-7.03439e-11
3.55475e-08
-2.05535e-09
-6.23692e-09
7.0952e-08
-1.00175e-08
-5.18144e-09
6.50807e-08
-6.34009e-09
-6.81213e-09
8.34586e-08
-1.48807e-09
3.21423e-08
-1.0685e-08
-6.03034e-09
8.74056e-08
-6.63804e-09
-1.4857e-09
5.89267e-08
-4.19038e-09
-1.45629e-09
3.17554e-08
1.78139e-09
4.85663e-08
-2.87723e-09
7.6215e-08
-6.18085e-09
3.45539e-08
1.43816e-09
5.39132e-08
4.16209e-08
1.0439e-08
-5.08294e-09
9.45966e-08
-1.66717e-08
-1.34382e-08
1.32567e-07
1.00269e-08
9.59506e-11
7.4901e-08
-1.25991e-09
4.81961e-08
-8.18012e-09
-1.26407e-08
8.26084e-08
-1.40237e-08
-7.23745e-09
6.47236e-08
5.05108e-09
2.11071e-09
6.23691e-08
-1.10495e-09
3.36443e-08
1.06331e-08
-5.61228e-09
7.2264e-08
5.81032e-09
-1.77091e-09
5.8283e-08
-2.68163e-09
-5.34759e-09
4.77056e-08
-1.217e-09
4.23648e-08
1.19984e-08
5.89184e-08
-6.24069e-10
4.24139e-08
1.55662e-08
2.82745e-08
3.81709e-08
1.41709e-08
-7.21055e-09
7.70471e-08
9.94745e-09
-7.15839e-09
1.42773e-07
8.33631e-09
2.26963e-10
7.77743e-08
2.56566e-09
5.13288e-08
5.77034e-09
-3.48585e-09
7.32005e-08
9.93841e-09
1.95868e-09
5.14384e-08
9.10999e-09
1.63059e-09
6.17939e-08
-1.47108e-09
4.4875e-08
1.73642e-08
4.88555e-09
5.2166e-08
7.81758e-09
2.25355e-09
6.75348e-08
4.9674e-09
3.0885e-09
4.90979e-08
-7.64148e-10
3.65067e-08
3.91907e-09
6.16764e-08
1.14674e-08
3.73656e-08
-8.69819e-10
4.29086e-08
2.11116e-08
-8.90248e-09
8.44347e-10
7.29952e-08
2.11898e-08
9.8168e-09
8.82444e-08
1.11138e-08
5.27766e-09
7.89263e-08
3.0208e-09
5.25604e-08
8.64249e-09
2.71153e-09
6.26982e-08
8.49243e-09
4.39763e-09
5.70077e-08
9.35608e-09
5.32335e-10