/*--------------------------------*- C++ -*----------------------------------*\
| =========                 |                                                 |
| \\      /  F ield         | OpenFOAM: The Open Source CFD Toolbox           |
|  \\    /   O peration     | Version:  2506                                  |
|   \\  /    A nd           | Website:  www.openfoam.com                      |
|    \\/     M anipulation  |                                                 |
\*---------------------------------------------------------------------------*/
FoamFile
{
    version     2.0;
    format      ascii;
    arch        "LSB;label=32;scalar=64";
    class       volVectorField;
    location    "0.09";
    object      U;
}
// * * * * * * * * * * * * * * * * * * * * * * * * * * * * * * * * * * * * * //

dimensions      [0 1 -1 0 0 0 0];

internalField   nonuniform List<vector> 
1152
(
(0.000129651 -0.00179571 0.0203397)
(0.000709565 -0.00241105 0.00870411)
(0.000796527 -8.01663e-05 0.00587965)
(0.000726097 -0.00129572 0.0153146)
(9.97322e-05 0.000505168 0.0170485)
(0.00142798 0.00100859 0.00872538)
(0.00138207 0.000200274 0.0213892)
(0.000118629 -0.000205253 0.0141935)
(-0.000593549 0.000738993 0.0195236)
(-0.000392896 0.000759279 0.0167415)
(-0.00102449 -0.000241781 0.0151054)
(0.000675551 -0.000113258 0.00783849)
(-0.00229919 -0.000502396 0.0107388)
(0.000893119 -0.000211845 0.00933411)
(0.00126881 -0.000519863 0.0152828)
(0.000908816 0.000326011 0.0182036)
(0.0010589 0.00191548 0.0384896)
(0.00276617 0.00393106 0.0417251)
(0.000344745 0.00103169 0.0564423)
(-0.000325774 -0.000151579 0.0495628)
(0.000128295 0.00191901 0.037774)
(-1.88047e-05 5.13647e-06 0.0438962)
(-0.00064217 -0.00140338 0.0495293)
(-0.000782438 -0.000233407 0.0380138)
(-0.000542139 0.00206502 0.0350402)
(0.000896697 0.00130006 0.0576463)
(3.24908e-05 0.000834301 0.0414196)
(-0.00156749 0.000802045 0.048608)
(0.00147433 9.38983e-05 0.0472417)
(0.00101095 0.00130444 0.0421022)
(-0.00191931 0.00167775 0.0588437)
(0.000262913 0.00244349 0.0353832)
(0.000683876 0.00119913 0.0212014)
(2.82226e-05 0.000574534 0.044241)
(-0.000947835 0.00120388 0.0395205)
(-0.00103682 0.00103705 0.0431242)
(-0.000185882 0.000668294 0.0428609)
(-0.000242009 -0.00193643 0.0354066)
(0.00150774 -0.000106076 0.0376781)
(0.000970726 0.000793477 0.0390163)
(0.00018422 -0.0018163 0.0333962)
(0.00152018 -0.000488415 0.0335025)
(0.00247322 -0.000456237 0.0281929)
(0.000696298 -5.95656e-05 0.0260473)
(0.00186187 -0.000185463 0.032017)
(-7.69495e-05 0.000827975 0.0531802)
(0.00163443 0.00186292 0.0423237)
(0.000567252 -0.000137034 0.0263983)
(0.00224008 0.00111326 0.0452648)
(0.00259306 -5.55247e-05 0.0501014)
(0.00142522 0.00114448 0.0566826)
(0.00293058 0.00377591 0.0515813)
(0.000960164 0.00266487 0.0512334)
(0.00170625 0.000223857 0.0337493)
(0.00221166 0.000200788 0.0468274)
(0.00185616 0.000853075 0.0364248)
(0.00164252 -6.23386e-05 0.0426558)
(-7.04958e-05 -0.00199984 0.041962)
(0.00292688 -0.00125431 0.048839)
(0.00154327 0.000544689 0.055768)
(0.000120474 -0.00278458 0.0537431)
(0.000352219 -6.3895e-05 0.0339373)
(0.00436503 -0.000377471 0.0421267)
(0.000910754 -0.00312512 0.0363931)
(0.00119241 0.00119751 0.0329304)
(-0.00065521 -0.00127565 0.0432269)
(0.00244209 -0.00481149 0.0673866)
(0.001369 -0.00253418 0.0371538)
(0.00149395 -7.32416e-05 0.0313999)
(-0.000344761 0.000744084 0.0378231)
(0.000173165 0.00100547 0.0425356)
(0.00287451 6.20127e-05 0.04316)
(0.00243632 -0.00185294 0.0724554)
(2.26127e-05 -0.000442506 0.0356338)
(3.3329e-05 6.66108e-05 0.0440123)
(0.00177879 0.000262365 0.0459154)
(0.00318052 0.000210359 0.0456938)
(0.00047677 -0.000612251 0.0331433)
(0.000903926 -0.000153295 0.0348551)
(0.00515152 -0.00165709 0.0552593)
(0.00468001 -0.00530206 0.0405926)
(-0.000363153 -0.000392291 0.0251219)
(-0.00188236 2.14769e-05 0.0302599)
(-0.00120554 0.00190538 0.0349419)
(0.00339331 0.000576442 0.0404312)
(0.000128489 0.000736905 0.029023)
(-0.00107327 0.000692551 0.0264052)
(-0.000380532 0.00109372 0.0247145)
(0.0040433 0.000353804 0.0430975)
(-0.00113088 6.44019e-05 0.0288847)
(-0.00299154 0.000842664 0.0395013)
(0.00139767 0.00319279 0.0338608)
(0.00079838 -0.00234559 0.0319204)
(0.00010389 -0.00192347 0.0272044)
(0.000839952 -0.000870725 0.024185)
(-0.000313416 0.000481832 0.0214283)
(6.2003e-05 0.00123781 0.0284842)
(0.000141647 0.000785203 0.0230088)
(-4.92737e-05 0.000625402 0.0317552)
(-0.00054843 0.000727466 0.0272864)
(-0.000405787 0.000179025 0.0222101)
(3.96908e-05 2.60296e-05 0.0234539)
(9.39466e-05 0.000518174 0.0240992)
(-0.000500379 0.000576751 0.0246894)
(-0.00238068 -0.00138753 0.0435495)
(0.0011641 0.000916624 0.0232722)
(-0.000402313 0.000732275 0.02564)
(-0.00071632 0.000181413 0.0274532)
(-0.000774768 0.00175664 0.0292219)
(0.000358368 0.000983336 0.0216321)
(-0.000675101 -0.000302213 0.0215713)
(-0.000855833 0.000672907 0.0203244)
(-0.00166429 0.000311826 0.0209471)
(-0.00213466 0.000391073 0.02011)
(-0.00259657 0.000561793 0.0229216)
(-0.00320499 0.00152846 0.0137555)
(-0.00217049 0.00043375 0.00877304)
(-0.00195502 0.000554784 0.0131184)
(-0.00197491 0.000804384 0.00473046)
(-0.00121056 0.00170185 0.00671595)
(-0.00242592 0.00123247 0.0392918)
(-0.00169308 0.00138342 0.02467)
(-0.00158088 0.00142473 0.0083646)
(-0.00035035 0.00174775 0.0159474)
(-0.00212535 0.00167307 0.0247199)
(-0.00199218 0.00196682 0.0159986)
(-0.0017944 0.00197319 0.00574485)
(-8.74444e-05 0.00203592 0.0227847)
(-0.000833498 7.96163e-05 0.0171599)
(0.000104163 0.000372679 0.0178051)
(0.000649702 0.000201263 0.0181713)
(0.00104726 -0.000665066 0.0173741)
(4.04251e-05 -0.00117752 0.0164805)
(0.000727231 -0.000296428 0.0163177)
(0.000437919 0.000131436 0.0156417)
(-0.000305453 -0.000511841 0.0158689)
(0.000143474 -0.000708677 0.0198881)
(0.00138764 -0.000617039 0.0176328)
(0.000376914 -0.000579763 0.0154959)
(-0.000775637 -0.00110233 0.0166239)
(0.000361666 0.000443805 0.0173858)
(0.000831865 -0.000447285 0.01639)
(-0.000115073 -0.000824011 0.014947)
(-0.0013673 -0.000502785 0.0170003)
(-9.55026e-05 -0.000124085 0.0184625)
(0.000400581 -3.26794e-06 0.0184059)
(0.000649468 -0.000152617 0.017997)
(0.000732087 -0.00066509 0.017351)
(0.000240153 -0.000638638 0.0185404)
(0.000581816 -0.00036178 0.0179758)
(0.000410649 -0.000254982 0.0172815)
(-2.50437e-05 -0.000690737 0.0171032)
(0.000190733 -0.000434984 0.0197971)
(0.00077407 -0.00051877 0.018672)
(0.000293998 -0.000578409 0.0176322)
(-0.000415465 -0.000912418 0.0177977)
(9.83214e-05 0.00012367 0.0192155)
(0.000428858 -0.000390745 0.0185646)
(-1.84174e-05 -0.000629471 0.0177581)
(-0.00079342 -0.000598176 0.0182326)
(0.000168785 -0.00015967 0.0180668)
(0.000358089 -0.00014288 0.0179207)
(0.000412032 -0.000238863 0.0176445)
(0.000323286 -0.00046999 0.0173095)
(0.000234272 -0.000359717 0.0181318)
(0.000361602 -0.000318577 0.0178317)
(0.00026552 -0.000346607 0.0174947)
(2.36328e-05 -0.000555486 0.0173692)
(0.000204714 -0.000320617 0.018579)
(0.000366452 -0.000385328 0.0181507)
(0.000161367 -0.000452616 0.0177268)
(-0.000185667 -0.000621022 0.0177435)
(0.000137319 -0.000159764 0.0184046)
(0.000222618 -0.00033427 0.0181706)
(1.40503e-05 -0.000433217 0.0178595)
(-0.000369657 -0.00047796 0.0180121)
(0.000173173 -0.000107889 0.018133)
(0.000236314 -0.000122467 0.0180123)
(0.000227909 -0.000182558 0.0178482)
(0.000136043 -0.000292625 0.0176919)
(0.000164519 -0.000197502 0.0181966)
(0.000202887 -0.000219859 0.0180423)
(0.000141676 -0.000267919 0.0178811)
(2.40139e-06 -0.00037314 0.0178031)
(0.000129264 -0.000196457 0.0183611)
(0.000161956 -0.000252508 0.0181914)
(6.66003e-05 -0.000312589 0.0180221)
(-0.000106918 -0.000402749 0.0180038)
(6.94685e-05 -0.000149667 0.0183667)
(8.53602e-05 -0.000234197 0.0182554)
(-1.47417e-05 -0.000293981 0.018132)
(-0.000199692 -0.000340719 0.0181671)
(0.000113509 -6.09738e-05 0.0181915)
(0.000131016 -7.88514e-05 0.0181169)
(0.000110884 -0.00011511 0.0180292)
(4.70188e-05 -0.000170796 0.017956)
(9.54025e-05 -0.000111835 0.0182308)
(0.000101532 -0.000137647 0.0181547)
(6.23926e-05 -0.000174481 0.0180777)
(-1.71508e-05 -0.000230046 0.0180374)
(6.81311e-05 -0.000123523 0.0182987)
(6.7764e-05 -0.000160194 0.0182283)
(1.63079e-05 -0.000199989 0.018161)
(-7.37441e-05 -0.000249205 0.0181492)
(3.11842e-05 -0.000112205 0.0183243)
(2.4266e-05 -0.000154582 0.0182798)
(-2.90089e-05 -0.000190318 0.0182347)
(-0.000121676 -0.000222116 0.0182479)
(6.28438e-05 -3.42845e-05 0.0182345)
(6.54033e-05 -4.84509e-05 0.0181929)
(4.83428e-05 -7.05308e-05 0.0181482)
(9.11024e-06 -0.000100426 0.0181151)
(4.8235e-05 -6.52469e-05 0.0182567)
(4.50461e-05 -8.42621e-05 0.0182188)
(2.05743e-05 -0.000108186 0.0181827)
(-2.39654e-05 -0.000138564 0.0181651)
(2.98319e-05 -7.74245e-05 0.0182903)
(2.24283e-05 -9.98872e-05 0.0182593)
(-6.63933e-06 -0.000124343 0.018232)
(-5.40999e-05 -0.000151581 0.0182288)
(7.94233e-06 -7.65731e-05 0.0183129)
(-2.42033e-06 -9.95189e-05 0.0182944)
(-3.2208e-05 -0.000120422 0.0182786)
(-7.9594e-05 -0.00013964 0.0182881)
(3.12189e-05 -2.05973e-05 0.0182675)
(2.93677e-05 -3.04575e-05 0.0182457)
(1.74673e-05 -4.39721e-05 0.0182241)
(-5.5401e-06 -6.07831e-05 0.0182099)
(2.12519e-05 -3.95902e-05 0.0182797)
(1.62964e-05 -5.20735e-05 0.0182615)
(1.2654e-06 -6.68739e-05 0.0182454)
(-2.35213e-05 -8.39995e-05 0.0182392)
(9.52478e-06 -4.90427e-05 0.0182979)
(2.1097e-06 -6.25512e-05 0.0182846)
(-1.4702e-05 -7.7176e-05 0.0182744)
(-4.00798e-05 -9.2524e-05 0.0182758)
(-3.42102e-06 -5.0891e-05 0.0183138)
(-1.22415e-05 -6.38279e-05 0.018307)
(-2.9305e-05 -7.60004e-05 0.0183032)
(-5.40306e-05 -8.72245e-05 0.0183112)
(1.36547e-05 -1.35382e-05 0.0182904)
(1.10115e-05 -2.00576e-05 0.0182795)
(3.32157e-06 -2.8371e-05 0.0182695)
(-9.91744e-06 -3.81094e-05 0.018264)
(7.21817e-06 -2.51425e-05 0.0182972)
(2.82944e-06 -3.29649e-05 0.0182889)
(-6.28837e-06 -4.19634e-05 0.0182824)
(-2.00664e-05 -5.18499e-05 0.0182813)
(-1.16517e-07 -3.16645e-05 0.0183076)
(-5.80586e-06 -3.97318e-05 0.0183024)
(-1.56763e-05 -4.83851e-05 0.0182995)
(-2.94083e-05 -5.71714e-05 0.0183026)
(-7.77017e-06 -3.3689e-05 0.0183181)
(-1.41982e-05 -4.11665e-05 0.0183164)
(-2.41032e-05 -4.8244e-05 0.0183172)
(-3.72055e-05 -5.4719e-05 0.0183239)
(4.6706e-06 -9.64431e-06 0.0183054)
(2.33498e-06 -1.38541e-05 0.0183003)
(-2.48201e-06 -1.89952e-05 0.018296)
(-9.99179e-06 -2.47674e-05 0.0182944)
(5.75687e-07 -1.66487e-05 0.0183094)
(-2.72247e-06 -2.14841e-05 0.018306)
(-8.2366e-06 -2.69225e-05 0.0183038)
(-1.58996e-05 -3.27179e-05 0.0183047)
(-3.96471e-06 -2.08727e-05 0.0183156)
(-7.95443e-06 -2.57069e-05 0.0183141)
(-1.37847e-05 -3.08219e-05 0.0183142)
(-2.12745e-05 -3.59067e-05 0.0183175)
(-8.51075e-06 -2.24461e-05 0.0183224)
(-1.29034e-05 -2.68209e-05 0.0183229)
(-1.8689e-05 -3.09325e-05 0.0183251)
(-2.5701e-05 -3.46503e-05 0.0183304)
(4.51724e-07 -7.21075e-06 0.0183151)
(-1.34008e-06 -9.91325e-06 0.0183129)
(-4.33082e-06 -1.31087e-05 0.0183114)
(-8.51206e-06 -1.66103e-05 0.0183114)
(-2.14225e-06 -1.13935e-05 0.0183176)
(-4.46028e-06 -1.43759e-05 0.0183165)
(-7.79094e-06 -1.76623e-05 0.0183163)
(-1.20414e-05 -2.10814e-05 0.0183178)
(-4.94805e-06 -1.40287e-05 0.0183215)
(-7.63203e-06 -1.69334e-05 0.0183216)
(-1.10851e-05 -1.99638e-05 0.0183227)
(-1.51821e-05 -2.2922e-05 0.0183256)
(-7.66349e-06 -1.50872e-05 0.0183259)
(-1.0568e-05 -1.7665e-05 0.0183272)
(-1.39548e-05 -2.00518e-05 0.0183295)
(-1.7724e-05 -2.21781e-05 0.0183336)
(-1.27733e-06 -5.48743e-06 0.0183213)
(-2.56749e-06 -7.21327e-06 0.0183205)
(-4.4255e-06 -9.20457e-06 0.0183203)
(-6.70523e-06 -1.13657e-05 0.0183209)
(-2.91805e-06 -7.95798e-06 0.018323)
(-4.49162e-06 -9.79572e-06 0.0183229)
(-6.50625e-06 -1.17809e-05 0.0183235)
(-8.8441e-06 -1.37968e-05 0.018325)
(-4.65126e-06 -9.55519e-06 0.0183255)
(-6.41424e-06 -1.13014e-05 0.0183262)
(-8.46281e-06 -1.30963e-05 0.0183276)
(-1.06963e-05 -1.48138e-05 0.0183299)
(-6.27726e-06 -1.02032e-05 0.0183285)
(-8.15973e-06 -1.17258e-05 0.0183299)
(-1.01417e-05 -1.31058e-05 0.018332)
(-1.21643e-05 -1.43106e-05 0.018335)
(-1.77282e-06 -4.14189e-06 0.0183253)
(-2.66955e-06 -5.23403e-06 0.0183252)
(-3.82088e-06 -6.46713e-06 0.0183255)
(-5.04999e-06 -7.79705e-06 0.0183263)
(-2.80709e-06 -5.57956e-06 0.0183265)
(-3.85117e-06 -6.70541e-06 0.0183269)
(-5.06753e-06 -7.89901e-06 0.0183277)
(-6.33675e-06 -9.08085e-06 0.018329)
(-3.87275e-06 -6.52286e-06 0.0183282)
(-5.0103e-06 -7.56665e-06 0.0183291)
(-6.22336e-06 -8.62288e-06 0.0183304)
(-7.42708e-06 -9.61149e-06 0.0183322)
(-4.84255e-06 -6.88974e-06 0.0183302)
(-6.04372e-06 -7.78425e-06 0.0183315)
(-7.19881e-06 -8.5742e-06 0.0183332)
(-8.2728e-06 -9.24511e-06 0.0183355)
(-1.69369e-06 -3.02915e-06 0.0183278)
(-2.29455e-06 -3.70921e-06 0.0183281)
(-2.99457e-06 -4.45959e-06 0.0183286)
(-3.66218e-06 -5.25466e-06 0.0183294)
(-2.33745e-06 -3.84478e-06 0.0183288)
(-3.01197e-06 -4.52418e-06 0.0183293)
(-3.73608e-06 -5.23355e-06 0.0183301)
(-4.41428e-06 -5.92085e-06 0.0183312)
(-2.9829e-06 -4.38852e-06 0.01833)
(-3.70094e-06 -5.00264e-06 0.0183308)
(-4.4111e-06 -5.61503e-06 0.018332)
(-5.04648e-06 -6.17639e-06 0.0183334)
(-3.55263e-06 -4.58162e-06 0.0183314)
(-4.30449e-06 -5.09868e-06 0.0183325)
(-4.96977e-06 -5.54238e-06 0.0183339)
(-5.52723e-06 -5.90662e-06 0.0183356)
(-1.37468e-06 -2.09011e-06 0.0183295)
(-1.75721e-06 -2.50096e-06 0.0183299)
(-2.16524e-06 -2.94315e-06 0.0183304)
(-2.53125e-06 -3.39565e-06 0.0183312)
(-1.76306e-06 -2.53433e-06 0.0183303)
(-2.18073e-06 -2.93156e-06 0.0183308)
(-2.59792e-06 -3.34176e-06 0.0183316)
(-2.95278e-06 -3.7347e-06 0.0183325)
(-2.14179e-06 -2.83857e-06 0.0183312)
(-2.57838e-06 -3.18841e-06 0.018332)
(-2.98255e-06 -3.53274e-06 0.0183329)
(-3.30767e-06 -3.84369e-06 0.018334)
(-2.46601e-06 -2.9331e-06 0.0183322)
(-2.92042e-06 -3.22197e-06 0.0183332)
(-3.2938e-06 -3.46256e-06 0.0183343)
(-3.5727e-06 -3.65283e-06 0.0183356)
(-1.00636e-06 -1.31361e-06 0.0183306)
(-1.23547e-06 -1.54702e-06 0.018331)
(-1.46028e-06 -1.79302e-06 0.0183315)
(-1.65547e-06 -2.03431e-06 0.0183322)
(-1.22615e-06 -1.54326e-06 0.0183312)
(-1.47085e-06 -1.76114e-06 0.0183317)
(-1.69957e-06 -1.98413e-06 0.0183324)
(-1.87948e-06 -2.19757e-06 0.0183332)
(-1.43529e-06 -1.70657e-06 0.0183319)
(-1.68692e-06 -1.89245e-06 0.0183326)
(-1.90676e-06 -2.07362e-06 0.0183335)
(-2.06661e-06 -2.23595e-06 0.0183344)
(-1.60904e-06 -1.75058e-06 0.0183328)
(-1.86835e-06 -1.90046e-06 0.0183336)
(-2.07022e-06 -2.02114e-06 0.0183345)
(-2.20343e-06 -2.11282e-06 0.0183355)
(-7.50013e-07 -7.87433e-07 0.0183313)
(-8.91869e-07 -9.13064e-07 0.0183317)
(-1.01929e-06 -1.04399e-06 0.0183322)
(-1.12177e-06 -1.16992e-06 0.0183327)
(-8.66619e-07 -9.12462e-07 0.0183318)
(-1.01612e-06 -1.02443e-06 0.0183323)
(-1.14437e-06 -1.13816e-06 0.0183329)
(-1.2373e-06 -1.24657e-06 0.0183336)
(-9.74007e-07 -1.00054e-06 0.0183324)
(-1.12638e-06 -1.09065e-06 0.0183331)
(-1.24926e-06 -1.17794e-06 0.0183338)
(-1.32905e-06 -1.25555e-06 0.0183346)
(-1.05971e-06 -1.02295e-06 0.0183331)
(-1.21512e-06 -1.09065e-06 0.0183338)
(-1.32919e-06 -1.14358e-06 0.0183346)
(-1.39287e-06 -1.18155e-06 0.0183355)
(-0.00081476 -0.00176045 0.021274)
(-0.000152124 0.000989546 0.0117)
(-0.000476875 -0.000324054 0.0137564)
(0.00120193 -0.00143773 0.0210029)
(-0.00163587 -0.000454302 0.0107223)
(0.000632098 0.000853541 0.0185779)
(-0.00247212 0.00190192 0.0222989)
(-0.00116357 -0.000111608 0.0138173)
(-0.00272428 0.00138224 0.0199472)
(0.000463328 0.000493863 0.0171321)
(-0.000687284 0.000458276 0.0167984)
(-0.00256492 0.00169545 0.0170967)
(-0.0025479 -0.00106799 0.0142334)
(0.000505885 -0.000575716 0.0166524)
(0.000549808 6.79926e-05 0.0117979)
(-0.00317703 0.00103985 0.0198644)
(9.10449e-05 -0.000276022 0.0225039)
(0.00217062 -0.00158416 0.0621593)
(0.000947835 0.000153963 0.0399018)
(-0.000752038 0.00329028 0.0407999)
(-0.00071316 0.000568542 0.0320666)
(0.00135242 -0.000190016 0.0318786)
(0.00232098 0.000736451 0.0440947)
(0.000286479 0.000319303 0.031196)
(-0.000472448 0.000224853 0.0333101)
(0.00131323 0.000571393 0.0511012)
(0.00105292 0.00231978 0.0527167)
(6.83972e-05 -0.000381025 0.0459193)
(-0.0013086 -0.00101793 0.0496734)
(0.00392319 0.00126462 0.0389963)
(0.00328092 0.0025401 0.0522248)
(2.35058e-05 0.000162725 0.0491197)
(0.00263481 -0.00123648 0.0311772)
(0.00215208 0.00144015 0.0361891)
(0.00227987 0.000787363 0.0246381)
(-0.00238235 0.00262776 0.0637159)
(0.00513379 -0.00128481 0.0270712)
(0.00203767 0.00113094 0.0319331)
(0.0010726 -0.00231467 0.048375)
(-0.00128006 0.00196758 0.0447988)
(0.00490734 -0.00236942 0.0494614)
(0.00107558 0.00160898 0.0415674)
(0.00324776 -0.000776695 0.0362214)
(0.00204981 -0.000200184 0.0347898)
(0.00470225 0.00106154 0.0342188)
(0.000603412 0.0013984 0.023875)
(0.00231508 -0.00123087 0.0489763)
(0.00494081 -0.000510421 0.0454328)
(0.00539789 0.00100106 0.059799)
(0.00186875 0.00180986 0.03306)
(-0.00288807 -0.000753917 0.0623651)
(0.0032403 -0.00396625 0.0429772)
(0.00440654 -0.00330698 0.0320682)
(0.00131118 -0.00193742 0.0517656)
(0.000850339 -0.00122305 0.0338086)
(0.00255495 -0.000140183 0.0347151)
(0.00200513 -0.000937122 0.0337804)
(0.00239936 -0.000447365 0.0356022)
(0.00199242 -0.00271734 0.0508532)
(0.00565577 0.00117864 0.0608205)
(0.000255945 0.000437798 0.0356347)
(-0.000555778 0.000156196 0.0561918)
(0.00112208 -0.00116848 0.0275609)
(0.00306773 -0.000216297 0.0537117)
(0.00224742 -0.000727002 0.0378387)
(-0.000777303 -0.00205416 0.0524715)
(-0.00128145 0.00150295 0.0597697)
(0.0012381 -0.000277396 0.0301446)
(0.00232776 -0.00272428 0.0323678)
(0.00140467 -0.000878633 0.0469628)
(0.00291693 -0.000540723 0.0465703)
(0.00175029 -0.00260366 0.0361128)
(0.00207319 -0.000419728 0.0317418)
(0.00139865 -0.00226543 0.038715)
(-0.00185092 0.00100472 0.0397785)
(0.00271323 -0.00317326 0.0330485)
(0.000250479 8.20569e-05 0.0386289)
(0.00167701 -2.33034e-05 0.027831)
(0.000214361 0.00385818 0.0418734)
(-0.000429734 0.00189599 0.048523)
(-0.0021157 -0.00460603 0.0662439)
(-1.71654e-05 -0.00208033 0.0265637)
(0.00364514 -0.00264287 0.0494048)
(0.000285234 -0.00100868 0.0213526)
(-0.000220607 0.000178293 0.0217238)
(-0.00153235 0.00153596 0.0288365)
(7.23743e-05 0.00129905 0.0343202)
(0.00242582 -0.00256548 0.0390441)
(0.00172939 8.85581e-05 0.0243018)
(-0.000127668 3.73871e-05 0.0298236)
(0.0004852 -0.00120225 0.0253231)
(0.00120713 -0.00245823 0.0236715)
(0.00244868 0.000505042 0.0280137)
(-0.000908017 -0.00265368 0.029253)
(-0.00528143 -0.00485649 0.0414436)
(0.00480117 -0.00546091 0.0390321)
(-0.000802423 0.00104545 0.0200456)
(-0.000100041 0.00130302 0.0274441)
(-0.0011835 -0.000791502 0.0323254)
(-0.000622602 0.000387002 0.0197909)
(-0.00108177 0.000336856 0.020382)
(-0.00232481 0.000880744 0.0226325)
(-0.00176767 -7.68226e-05 0.0257456)
(-0.000599519 -0.00118004 0.0257535)
(-1.42317e-05 -0.000667141 0.0228125)
(-0.000589972 0.000300396 0.0308826)
(-0.00103125 0.000519416 0.0245584)
(-0.000870658 -0.00040831 0.0236662)
(0.000342043 -2.73692e-05 0.0229058)
(-0.000961079 0.000270287 0.0212736)
(0.000919602 0.000118608 0.0254837)
(-4.1599e-05 2.66187e-05 0.0201779)
(-0.00172472 0.00188151 0.01383)
(-0.0016201 0.00207479 0.0252537)
(-0.0016154 0.00221243 0.0271072)
(-0.000162721 0.00201945 0.0157673)
(-0.00170233 0.00186673 0.0184122)
(-0.001769 0.00166181 0.0229667)
(-0.0017922 0.00180365 0.0184855)
(-0.000307021 0.00103415 0.0143204)
(-0.00142741 0.00101357 0.0250963)
(-0.00157224 0.00116914 0.0355607)
(-0.00157783 0.000864009 0.0239626)
(-1.36701e-05 -0.00096347 0.0138899)
(-0.000753304 0.000176271 0.0278954)
(-0.00126567 0.00034625 0.0301693)
(-0.00226492 -0.000250245 0.0279345)
(-0.000124982 -0.00170049 -0.00815491)
(-5.7047e-05 4.03116e-06 0.0158489)
(0.000194356 -0.000483463 0.0170514)
(0.000220069 -0.000413955 0.0169053)
(-0.000962926 0.000401577 0.0160899)
(-4.54504e-05 -0.000215375 0.0153791)
(0.000270017 -0.000496453 0.0165508)
(0.000718729 0.000103063 0.0159295)
(-0.000655723 0.000934084 0.0156429)
(-0.000299515 -0.000539111 0.0155254)
(0.000189068 -0.000292694 0.0177323)
(0.00140172 0.000258595 0.0167478)
(-0.000572605 0.00175475 0.0157164)
(-0.000373186 -0.000436371 0.0155778)
(0.000142177 0.000132808 0.0169954)
(0.00205305 0.000524905 0.0171143)
(4.71731e-05 0.00125628 0.0141358)
(-0.000118555 -0.000104563 0.019026)
(7.31332e-05 -0.000415426 0.0190743)
(6.53416e-05 -0.000442419 0.0185972)
(-0.000705482 -0.000102584 0.0184413)
(-0.000161907 -0.000206269 0.0189557)
(2.28197e-05 -0.000406519 0.0192484)
(0.000302523 -0.000227709 0.0186495)
(-0.000554698 0.000214146 0.018196)
(-0.000287134 -0.000329643 0.0190435)
(-7.79672e-05 -0.000317542 0.0197481)
(0.000595352 -7.46687e-05 0.0190316)
(-0.000483383 0.000618939 0.0179169)
(-0.000341909 -0.000318598 0.0191012)
(-0.000144669 -0.000120887 0.019687)
(0.000876113 0.000170263 0.0190549)
(-0.000192104 0.000480718 0.0166908)
(1.46143e-05 -0.000149198 0.0183414)
(0.000100811 -0.000266844 0.0183723)
(1.79737e-05 -0.000304023 0.0181796)
(-0.000391465 -0.00022362 0.0181734)
(-4.95553e-05 -0.000125859 0.0183054)
(4.84876e-05 -0.000202478 0.0184723)
(9.87528e-05 -0.000179801 0.0182673)
(-0.000357374 -2.15765e-05 0.0180932)
(-0.000113616 -0.000131838 0.0183038)
(-1.77901e-05 -0.000137139 0.01864)
(0.000197387 -6.73021e-05 0.01843)
(-0.000315443 0.000169745 0.0179668)
(-0.000142656 -0.000130484 0.0183001)
(-5.80089e-05 -6.41206e-05 0.0186477)
(0.000294042 4.89796e-05 0.0184423)
(-0.000212653 0.000141175 0.0175139)
(2.98612e-06 -0.000122999 0.0183866)
(2.52167e-05 -0.000184851 0.0183577)
(-3.79586e-05 -0.000220298 0.0182649)
(-0.000236164 -0.000216118 0.0182704)
(-3.54427e-05 -0.000100131 0.0183876)
(-7.54452e-06 -0.000140253 0.0184137)
(-1.84568e-05 -0.000144194 0.0183206)
(-0.000239438 -9.4187e-05 0.0182616)
(-6.6778e-05 -8.77846e-05 0.0183818)
(-3.96382e-05 -9.71821e-05 0.0184638)
(1.08961e-05 -7.02935e-05 0.0183745)
(-0.000225509 1.24526e-05 0.0182071)
(-8.56479e-05 -8.02796e-05 0.0183733)
(-6.29872e-05 -5.79896e-05 0.0184686)
(4.18506e-05 -9.2236e-06 0.0183725)
(-0.000192318 2.67845e-05 0.0180523)
(-5.72209e-06 -9.15632e-05 0.0183462)
(-6.84284e-06 -0.000123274 0.0183336)
(-4.96656e-05 -0.000147693 0.0183038)
(-0.000147393 -0.000158689 0.018318)
(-2.60612e-05 -7.41208e-05 0.0183533)
(-2.48956e-05 -9.45306e-05 0.0183661)
(-4.92069e-05 -0.000102173 0.0183407)
(-0.000156181 -8.97852e-05 0.0183366)
(-4.19146e-05 -6.03704e-05 0.018354)
(-4.13138e-05 -6.70914e-05 0.0183888)
(-4.22907e-05 -5.80415e-05 0.0183648)
(-0.000154995 -2.91566e-05 0.0183231)
(-5.34314e-05 -5.16354e-05 0.0183522)
(-5.48894e-05 -4.39599e-05 0.0183962)
(-3.48441e-05 -2.33977e-05 0.0183673)
(-0.000147316 -6.00778e-06 0.0182747)
(-1.24896e-05 -6.38457e-05 0.0183303)
(-1.95933e-05 -8.12666e-05 0.0183259)
(-4.61989e-05 -9.65475e-05 0.0183189)
(-9.52908e-05 -0.000106623 0.0183332)
(-2.25402e-05 -5.29885e-05 0.0183374)
(-2.9302e-05 -6.38681e-05 0.018345)
(-4.9802e-05 -6.99129e-05 0.0183423)
(-0.000102596 -6.80959e-05 0.0183535)
(-3.05971e-05 -4.31374e-05 0.0183403)
(-3.78536e-05 -4.69971e-05 0.0183572)
(-4.98584e-05 -4.39148e-05 0.018356)
(-0.00010461 -3.27644e-05 0.0183554)
(-3.73596e-05 -3.61145e-05 0.018341)
(-4.562e-05 -3.28847e-05 0.0183628)
(-4.96979e-05 -2.313e-05 0.0183599)
(-0.000104002 -1.23573e-05 0.0183429)
(-1.48803e-05 -4.36856e-05 0.0183258)
(-2.20198e-05 -5.36388e-05 0.018326)
(-3.80676e-05 -6.28719e-05 0.0183274)
(-6.31767e-05 -6.96848e-05 0.0183395)
(-1.98248e-05 -3.74121e-05 0.0183309)
(-2.73362e-05 -4.35135e-05 0.0183373)
(-4.15586e-05 -4.74976e-05 0.0183422)
(-6.80377e-05 -4.79636e-05 0.0183554)
(-2.38794e-05 -3.11158e-05 0.0183337)
(-3.1935e-05 -3.33133e-05 0.0183445)
(-4.31751e-05 -3.20236e-05 0.0183509)
(-7.01046e-05 -2.68082e-05 0.0183613)
(-2.77596e-05 -2.62853e-05 0.018335)
(-3.64549e-05 -2.45374e-05 0.0183482)
(-4.47765e-05 -1.8945e-05 0.0183545)
(-7.10059e-05 -1.12852e-05 0.0183599)
(-1.42715e-05 -2.96793e-05 0.018326)
(-1.98573e-05 -3.55081e-05 0.0183281)
(-2.94091e-05 -4.09672e-05 0.0183321)
(-4.24453e-05 -4.51163e-05 0.0183417)
(-1.67021e-05 -2.61479e-05 0.0183293)
(-2.28224e-05 -2.96634e-05 0.018335)
(-3.19501e-05 -3.20428e-05 0.0183416)
(-4.54149e-05 -3.26117e-05 0.018353)
(-1.87164e-05 -2.23173e-05 0.0183314)
(-2.53585e-05 -2.35136e-05 0.0183395)
(-3.34925e-05 -2.26917e-05 0.0183474)
(-4.68793e-05 -1.96782e-05 0.0183588)
(-2.08902e-05 -1.9261e-05 0.0183325)
(-2.80232e-05 -1.8033e-05 0.018342)
(-3.50706e-05 -1.42499e-05 0.0183504)
(-4.78156e-05 -8.65391e-06 0.0183605)
(-1.22326e-05 -2.01657e-05 0.0183275)
(-1.62054e-05 -2.36133e-05 0.0183302)
(-2.18497e-05 -2.67813e-05 0.0183344)
(-2.86876e-05 -2.91804e-05 0.0183416)
(-1.34245e-05 -1.81863e-05 0.0183295)
(-1.78758e-05 -2.02017e-05 0.0183344)
(-2.35164e-05 -2.15007e-05 0.0183405)
(-3.04304e-05 -2.17779e-05 0.0183493)
(-1.44035e-05 -1.5892e-05 0.0183309)
(-1.92902e-05 -1.6462e-05 0.0183372)
(-2.4641e-05 -1.57466e-05 0.0183445)
(-3.13402e-05 -1.37249e-05 0.0183539)
(-1.55984e-05 -1.40357e-05 0.0183317)
(-2.0869e-05 -1.30272e-05 0.018339)
(-2.58351e-05 -1.02643e-05 0.0183467)
(-3.20204e-05 -6.1808e-06 0.0183561)
(-9.80687e-06 -1.37327e-05 0.0183292)
(-1.25059e-05 -1.57786e-05 0.0183318)
(-1.58231e-05 -1.75876e-05 0.0183354)
(-1.9425e-05 -1.89297e-05 0.0183407)
(-1.03864e-05 -1.26195e-05 0.0183304)
(-1.34511e-05 -1.37482e-05 0.0183343)
(-1.68643e-05 -1.4388e-05 0.0183393)
(-2.04265e-05 -1.44241e-05 0.0183458)
(-1.0844e-05 -1.12435e-05 0.0183313)
(-1.42421e-05 -1.14412e-05 0.0183362)
(-1.76032e-05 -1.0785e-05 0.018342)
(-2.09555e-05 -9.33273e-06 0.0183492)
(-1.14911e-05 -1.01366e-05 0.0183318)
(-1.51802e-05 -9.27645e-06 0.0183373)
(-1.84196e-05 -7.21101e-06 0.0183436)
(-2.13953e-05 -4.26841e-06 0.018351)
(-7.51318e-06 -9.35418e-06 0.0183306)
(-9.30017e-06 -1.05671e-05 0.0183328)
(-1.12388e-05 -1.15822e-05 0.0183357)
(-1.31309e-05 -1.23106e-05 0.0183395)
(-7.79027e-06 -8.72626e-06 0.0183313)
(-9.83415e-06 -9.33288e-06 0.0183344)
(-1.18712e-05 -9.60029e-06 0.0183383)
(-1.36988e-05 -9.50671e-06 0.0183429)
(-7.98837e-06 -7.89338e-06 0.0183318)
(-1.02742e-05 -7.88873e-06 0.0183356)
(-1.23318e-05 -7.31394e-06 0.0183401)
(-1.39944e-05 -6.25414e-06 0.0183453)
(-8.33325e-06 -7.23852e-06 0.0183322)
(-1.08314e-05 -6.51801e-06 0.0183364)
(-1.28638e-05 -4.98193e-06 0.0183412)
(-1.42653e-05 -2.89322e-06 0.0183466)
(-5.55043e-06 -6.33193e-06 0.0183316)
(-6.7124e-06 -7.04842e-06 0.0183334)
(-7.83596e-06 -7.60459e-06 0.0183357)
(-8.81758e-06 -7.9849e-06 0.0183385)
(-5.67867e-06 -5.98038e-06 0.018332)
(-7.01103e-06 -6.28711e-06 0.0183345)
(-8.21149e-06 -6.36045e-06 0.0183374)
(-9.13515e-06 -6.21949e-06 0.0183407)
(-5.75044e-06 -5.47355e-06 0.0183323)
(-7.25203e-06 -5.3755e-06 0.0183352)
(-8.48887e-06 -4.90224e-06 0.0183386)
(-9.29554e-06 -4.13661e-06 0.0183424)
(-5.9301e-06 -5.09012e-06 0.0183326)
(-7.58113e-06 -4.50937e-06 0.0183358)
(-8.82571e-06 -3.38832e-06 0.0183394)
(-9.45865e-06 -1.93146e-06 0.0183433)
(-3.95011e-06 -4.20805e-06 0.0183324)
(-4.69079e-06 -4.62707e-06 0.0183338)
(-5.33289e-06 -4.92126e-06 0.0183356)
(-5.82877e-06 -5.10905e-06 0.0183376)
(-4.00514e-06 -4.01625e-06 0.0183326)
(-4.85413e-06 -4.15823e-06 0.0183345)
(-5.54977e-06 -4.14233e-06 0.0183367)
(-6.00288e-06 -4.00158e-06 0.0183391)
(-4.0187e-06 -3.71128e-06 0.0183328)
(-4.98221e-06 -3.58648e-06 0.018335)
(-5.71169e-06 -3.22093e-06 0.0183376)
(-6.08755e-06 -2.68179e-06 0.0183403)
(-4.10834e-06 -3.49274e-06 0.0183329)
(-5.1733e-06 -3.04764e-06 0.0183354)
(-5.91951e-06 -2.25441e-06 0.0183381)
(-6.18441e-06 -1.26263e-06 0.018341)
(-2.67922e-06 -2.6909e-06 0.0183329)
(-3.13608e-06 -2.92816e-06 0.0183341)
(-3.49401e-06 -3.07506e-06 0.0183355)
(-3.734e-06 -3.15953e-06 0.018337)
(-2.69789e-06 -2.59227e-06 0.018333)
(-3.22155e-06 -2.64845e-06 0.0183345)
(-3.61407e-06 -2.60169e-06 0.0183362)
(-3.82603e-06 -2.48417e-06 0.0183381)
(-2.68724e-06 -2.41656e-06 0.0183331)
(-3.28584e-06 -2.30218e-06 0.0183349)
(-3.70501e-06 -2.0388e-06 0.0183369)
(-3.8693e-06 -1.67479e-06 0.0183389)
(-2.7266e-06 -2.29843e-06 0.0183332)
(-3.39198e-06 -1.98001e-06 0.0183351)
(-3.82844e-06 -1.44484e-06 0.0183373)
(-3.92604e-06 -7.95499e-07 0.0183394)
(-1.7123e-06 -1.61237e-06 0.0183333)
(-1.98045e-06 -1.73307e-06 0.0183342)
(-2.17343e-06 -1.79724e-06 0.0183354)
(-2.28372e-06 -1.8268e-06 0.0183366)
(-1.71095e-06 -1.56754e-06 0.0183334)
(-2.01985e-06 -1.58051e-06 0.0183346)
(-2.23442e-06 -1.53056e-06 0.018336)
(-2.32817e-06 -1.44149e-06 0.0183374)
(-1.69105e-06 -1.47681e-06 0.0183334)
(-2.04728e-06 -1.38938e-06 0.0183348)
(-2.2813e-06 -1.21239e-06 0.0183364)
(-2.34871e-06 -9.78708e-07 0.018338)
(-1.69949e-06 -1.41879e-06 0.0183335)
(-2.0993e-06 -1.21154e-06 0.018335)
(-2.34886e-06 -8.73808e-07 0.0183367)
(-2.38048e-06 -4.71755e-07 0.0183384)
(-1.10511e-06 -9.59634e-07 0.0183336)
(-1.26632e-06 -1.00432e-06 0.0183344)
(-1.37797e-06 -1.02366e-06 0.0183353)
(-1.42899e-06 -1.02457e-06 0.0183363)
(-1.09188e-06 -9.34371e-07 0.0183336)
(-1.28032e-06 -9.26776e-07 0.0183346)
(-1.40674e-06 -8.8273e-07 0.0183358)
(-1.44882e-06 -8.15091e-07 0.018337)
(-1.0688e-06 -8.9478e-07 0.0183336)
(-1.28823e-06 -8.32965e-07 0.0183348)
(-1.42988e-06 -7.14401e-07 0.0183361)
(-1.45942e-06 -5.61968e-07 0.0183374)
(-1.05378e-06 -8.65846e-07 0.0183337)
(-1.30652e-06 -7.38741e-07 0.018335)
(-1.46417e-06 -5.2945e-07 0.0183364)
(-1.47826e-06 -2.79218e-07 0.0183377)
(0.00167768 -0.000972373 0.0149052)
(0.00605498 0.000995762 0.0235144)
(-0.00333944 0.00477757 0.0168573)
(-0.0036974 -0.000125008 0.0124913)
(0.00147747 0.00227401 0.0192272)
(0.00226418 -0.000255296 0.0149279)
(-0.00207533 -0.00127612 0.0132124)
(-0.00248102 0.00167906 0.0123754)
(0.000345032 0.00312706 0.0140084)
(-0.00219415 0.00355993 0.020927)
(-0.00205945 0.000499712 0.0183745)
(-0.00163725 0.0030122 0.0184323)
(-0.00474767 0.00140045 0.0160444)
(-0.00239357 0.000477557 0.00938129)
(-0.00393029 -0.000375632 0.018298)
(-0.00501214 -0.000128187 0.011919)
(-0.00203191 0.000494685 0.0360083)
(-0.0032654 0.000285384 0.0535559)
(-0.00104394 -0.00100381 0.0836328)
(-0.00131147 0.00071446 0.0271708)
(-0.00060572 -0.00265012 0.031873)
(-0.00231422 -0.000637921 0.0330239)
(-0.00491613 -0.00187528 0.0691461)