FoamFile
{version 2.0; format ascii;class Cloud<passiveParticle>; location 0;object  positions;}
2496
(
( -0.010885 -0.00401988 0.000499731 ) 0 
( -0.00506979 -0.00116909 0.000988432 ) 0 
( -0.00680552 -0.0069116 0.00304033 ) 0 
( -0.000942027 -0.00184903 0.00292686 ) 0 
( -0.0130667 -0.00247027 0.000499828 ) 0 
( -0.00938397 -0.00444845 0.000499779 ) 0 
( -0.00304218 -0.00786471 0.00119668 ) 0 
( -9.02865e-05 -0.00569797 0.00469133 ) 0 
( -0.00878412 -0.00183473 0.0055094 ) 0 
( -0.00936434 -0.00378662 0.00150392 ) 0 
( -0.00919037 -0.00627925 0.00277406 ) 0 
( -0.00625539 -0.00314375 0.00274715 ) 0 
( -0.0106709 -0.00697935 0.00337684 ) 0 
( -0.00905099 -0.0016676 0.00656846 ) 0 
( -0.00386718 -0.00459584 0.00479073 ) 0 
( -0.00230161 -0.00783621 0.00688114 ) 0 
( -0.00221321 -0.00581198 0.00731817 ) 0 
( -0.00538275 -0.00774969 0.00732839 ) 0 
( -0.00256191 -0.00855475 0.00173788 ) 0 
( -0.00917008 -0.00240815 0.00406004 ) 0 
( -0.00211816 -0.00248427 0.000499782 ) 0 
( -0.00431631 -0.00830178 0.00482719 ) 0 
( -0.0041896 -0.000712287 0.000862403 ) 0 
( -0.00131175 -0.00784069 0.000499758 ) 0 
( -0.000530756 -0.0020938 0.00126062 ) 0 
( -0.00978507 -0.00781728 0.0053215 ) 0 
( -0.00867542 -0.00527948 0.00049961 ) 0 
( -0.00941833 -0.00711473 0.0068888 ) 0 
( -0.00984224 -0.00465386 0.001365 ) 0 
( -0.0131294 -0.00241576 0.00251465 ) 0 
( -0.00596901 -0.00188033 0.000499761 ) 0 
( -0.00409206 -0.0118516 0.00546065 ) 0 
( -1.04826e-05 -0.0073208 0.00289236 ) 0 
( -0.00210457 -0.0114793 0.00296291 ) 0 
( -0.00226314 -0.00678258 0.00457719 ) 0 
( -0.000831116 -0.0131028 0.00488437 ) 0 
( -0.00131143 -0.00633814 0.00701643 ) 0 
( -0.00505773 -0.00984648 0.00272333 ) 0 
( -0.00665535 -0.000396083 0.00668014 ) 0 
( -0.00336855 -0.00472859 0.00712646 ) 0 
( -0.00405188 -0.00639507 0.000499708 ) 0 
( -0.0101559 -0.00179966 0.00315849 ) 0 
( -0.0116453 -0.00114952 0.000782886 ) 0 
( -0.000810967 -0.00962711 0.00228881 ) 0 
( -0.00779819 -0.00349951 0.0020719 ) 0 
( -0.0010896 -0.00321365 0.00546111 ) 0 
( -0.00124126 -0.00826326 0.00383715 ) 0 
( -0.00841239 -0.00200895 0.00457626 ) 0 
( -0.00125135 -0.00234094 0.00394805 ) 0 
( -0.00681567 -0.00958807 0.00502354 ) 0 
( -0.000799611 -0.0038203 0.00286036 ) 0 
( -0.00728814 -0.00467059 0.000499813 ) 0 
( -0.00463011 -0.00636663 0.00595729 ) 0 
( -0.00132159 -0.0101238 0.00158732 ) 0 
( -0.00667457 -0.00106241 0.000499608 ) 0 
( -0.0112207 -0.00374069 0.0063848 ) 0 
( -0.00401398 -0.00567728 0.00124282 ) 0 
( -0.0121072 -0.0056254 0.00605105 ) 0 
( -0.00209253 -0.0107073 0.00184882 ) 0 
( -0.00621898 -0.00935305 0.00125445 ) 0 
( -0.00325678 -0.000761212 0.000499751 ) 0 
( -5.25825e-05 -0.0118495 0.00504219 ) 0 
( -0.00455671 -0.0100386 0.00109113 ) 0 
( -0.00222185 -0.00970318 0.00466646 ) 0 
( -0.0092097 -0.00564361 0.00370777 ) 0 
( -0.00617228 -0.0117541 0.00521814 ) 0 
( -0.00287047 -0.00386946 0.00297278 ) 0 
( -0.00444776 -0.0125875 0.00603646 ) 0 
( -0.00872763 -0.00666155 0.00360869 ) 0 
( -0.000673606 -0.0119407 0.0016774 ) 0 
( -0.00768461 -0.00495296 0.00455922 ) 0 
( -0.00559966 -0.00220405 0.00752259 ) 0 
( -0.00728291 -0.0111828 0.00390595 ) 0 
( -0.0121913 -0.0026876 0.00220313 ) 0 
( -0.00684392 -0.0109461 0.00225167 ) 0 
( -0.00330973 -0.0065281 0.00293735 ) 0 
( -0.00532395 -0.00153941 0.00345261 ) 0 
( -0.00552362 -0.00290202 0.00193962 ) 0 
( -0.0117353 -0.00636291 0.00221279 ) 0 
( -0.00257334 -0.00496 0.000499798 ) 0 
( -0.00288215 -0.00332798 0.00210297 ) 0 
( -0.00219274 -0.0123401 0.00547318 ) 0 
( -0.00820483 -0.00158654 0.00369389 ) 0 
( -0.0125504 -0.00455028 0.00214573 ) 0 
( -0.00298818 -0.0061891 0.00422767 ) 0 
( -0.00491961 -0.00129926 0.00532293 ) 0 
( -0.00487459 -0.00861018 0.00668236 ) 0 
( -0.00852363 -0.00302741 0.00259827 ) 0 
( -0.0104761 -0.00496509 0.00362145 ) 0 
( -0.000146522 -0.00321033 0.00331101 ) 0 
( -0.00952842 -0.00267078 0.00049981 ) 0 
( -0.00428331 -0.00514976 0.00716078 ) 0 
( -0.00450594 -0.00950825 0.00193733 ) 0 
( -0.0019191 -0.000386996 0.00753038 ) 0 
( -0.00141688 -0.00934514 0.00694407 ) 0 
( -0.0124326 -0.00169691 0.000499597 ) 0 
( -0.00468796 -0.0104935 0.00471134 ) 0 
( -0.00291107 -0.0130097 0.00294975 ) 0 
( -0.000257224 -0.0019913 0.00830886 ) 0 
( -0.00478893 -0.00164857 0.00770654 ) 0 
( -0.00496068 -0.00575373 0.00783216 ) 0 
( -0.00386369 -0.00265349 0.00736215 ) 0 
( -0.0105545 -0.00477648 0.00684601 ) 0 
( -0.0112087 -0.00555733 0.00183245 ) 0 
( -0.0025216 -0.00418855 0.00461725 ) 0 
( -0.00279369 -0.0130543 0.00696299 ) 0 
( -0.00978883 -0.00665452 0.00371775 ) 0 
( -0.00750383 -0.0051334 0.00623826 ) 0 
( -0.00198215 -0.00350575 0.00412116 ) 0 
( -0.00673358 -0.00581027 0.00607985 ) 0 
( -0.00669262 -0.00654271 0.00675902 ) 0 
( -0.00151025 -0.00177329 0.00544705 ) 0 
( -0.00940122 -0.00552324 0.00114235 ) 0 
( -0.00704944 -0.0104882 0.00128427 ) 0 
( -0.00993935 -0.000775304 0.0031468 ) 0 
( -0.00948436 -0.00497339 0.00543707 ) 0 
( -0.0024672 -0.011346 0.00711703 ) 0 
( -0.0101494 -0.00254667 0.00390086 ) 0 
( -0.00402401 -0.00360422 0.000499795 ) 0 
( -0.00220457 -0.00890932 0.00650718 ) 0 
( -0.00147574 -0.0114589 0.00374051 ) 0 
( -0.00900853 -0.007417 0.00114286 ) 0 
( -0.00437237 -0.0061201 0.00307754 ) 0 
( -0.0104374 -0.0051911 0.00237759 ) 0 
( -0.00695781 -0.00838314 0.00121083 ) 0 
( -0.00543255 -0.00658924 0.00746372 ) 0 
( -0.0107867 -0.00786603 0.00678896 ) 0 
( -0.0119827 -0.00263587 0.00673207 ) 0 
( -0.00341929 -0.00929207 0.00566986 ) 0 
( -0.00200598 -0.0131985 0.00333963 ) 0 
( -0.00940563 -0.00157332 0.00245993 ) 0 
( -0.00615534 -0.00722918 0.00483775 ) 0 
( -0.00549552 -0.00671565 0.00419835 ) 0 
( -0.00266881 -0.0121654 0.00238927 ) 0 
( -0.000954899 -0.00509223 0.000499763 ) 0 
( -0.00959093 -0.000687648 0.00203433 ) 0 
( -0.00225149 -0.00609396 0.000499715 ) 0 
( -0.00749364 -0.00450041 0.00543022 ) 0 
( -0.0039254 -0.00664281 0.00380555 ) 0 
( -0.0110358 -0.00589948 0.00366914 ) 0 
( -0.0104116 -0.00319037 0.00564409 ) 0 
( -0.00821869 -0.00264072 0.00532682 ) 0 
( -0.0132685 -0.00147116 0.00191747 ) 0 
( -0.00471458 -0.00613585 0.00693608 ) 0 
( -0.00965495 -0.000914407 0.00630906 ) 0 
( -0.00178334 -0.000333357 0.000499791 ) 0 
( -0.00958793 -0.00329239 0.004365 ) 0 
( -0.000673076 -0.00476109 0.00773951 ) 0 
( -0.00896559 -0.0028804 0.00136367 ) 0 
( -0.00125954 -0.0088042 0.00608332 ) 0 
( -0.00140996 -0.002573 0.00127914 ) 0 
( -0.0076829 -0.000978169 0.000499816 ) 0 
( -0.00183878 -0.00403296 0.00319664 ) 0 
( -0.00467491 -0.0124438 0.00380691 ) 0 
( -0.00270986 -0.00499636 0.00203915 ) 0 
( -0.00983935 -0.00341131 0.0023314 ) 0 
( -0.00540501 -0.000669818 0.00287243 ) 0 
( -0.00317174 -0.000726888 0.00571555 ) 0 
( -0.00492228 -9.69416e-05 0.00361923 ) 0 
( -0.00630993 -0.00347206 0.00694512 ) 0 
( -0.0011406 -0.0115477 0.000499758 ) 0 
( -0.00443001 -0.0107964 0.00615794 ) 0 
( -0.0051735 -0.00728031 0.00512306 ) 0 
( -0.00109361 -0.00209404 0.00751649 ) 0 
( -0.00971533 -0.00147159 0.00547883 ) 0 
( -0.0113694 -0.00201659 0.00623764 ) 0 
( -0.00379913 -0.0127568 0.00337042 ) 0 
( -0.00472564 -0.00605634 0.00402035 ) 0 
( -0.00321214 -0.0103784 0.0012706 ) 0 
( -0.00367167 -0.0128301 0.00436002 ) 0 
( -0.00469294 -0.00596846 0.00191676 ) 0 
( -0.010367 -0.0051982 0.00773286 ) 0 
( -0.00574779 -0.00759413 0.00292367 ) 0 
( -0.0049125 -0.0117081 0.00613773 ) 0 
( -0.00577578 -0.0108798 0.000499686 ) 0 
( -0.0112991 -0.0026184 0.00413282 ) 0 
( -0.0105107 -0.00670566 0.00545464 ) 0 
( -0.00934134 -0.0081063 0.000499689 ) 0 
( -0.00202588 -0.006275 0.00828548 ) 0 
( -0.00299527 -0.00205498 0.00725685 ) 0 
( -0.01036 -0.00382726 0.00158555 ) 0 
( -0.00621685 -0.00556389 0.00525961 ) 0 
( -0.0100511 -0.0011552 0.00121907 ) 0 
( -0.00315708 -0.00104729 0.00356734 ) 0 
( -0.00564004 -0.0111112 0.0032553 ) 0 
( -0.00696117 -0.00223583 0.00361246 ) 0 
( -0.0115006 -0.00459214 0.00510264 ) 0 
( -0.0133176 -0.000932106 0.00458936 ) 0 
( -0.00184539 -0.0103839 0.00381633 ) 0 
( -0.00619899 -0.00394136 0.00353749 ) 0 
( -0.0109842 -0.0043554 0.00427984 ) 0 
( -0.00800909 -0.00791746 0.00726752 ) 0 
( -0.00320745 -0.00874425 0.000499783 ) 0 
( -0.00785402 -0.00453852 0.00131529 ) 0 
( -0.00666706 -0.0113456 0.00606322 ) 0 
( -0.00604654 -0.00287872 0.000499802 ) 0 
( -7.61912e-05 -0.00632725 0.00299745 ) 0 
( -0.00101189 -0.00579335 0.00603693 ) 0 
( -0.00467331 -0.0115799 0.00318258 ) 0 
( -0.00391502 -0.00166506 0.00722109 ) 0 
( -0.00895827 -0.00909325 0.00484541 ) 0 
( -0.0127331 -0.00401152 0.00131662 ) 0 
( -0.00994106 -0.00891017 0.00486775 ) 0 
( -0.000924604 -0.00130632 0.00859976 ) 0 
( -0.00180142 -0.00476503 0.00422991 ) 0 
( -0.000388144 -0.00253219 0.00566991 ) 0 
( -0.00760137 -0.0109749 0.00483059 ) 0 
( -0.004775 -0.0110117 0.00116255 ) 0 
( -0.00295326 -0.00300006 0.00758715 ) 0 
( -0.00542493 -0.00771132 0.00425661 ) 0 
( -0.00713295 -0.00143004 0.00527826 ) 0 
( -0.0111247 -0.00563643 0.00623596 ) 0 
( -0.00669208 -0.00616855 0.00184876 ) 0 
( -0.00715875 -0.00793871 0.00430513 ) 0 
( -0.000303937 -0.0133466 0.00697454 ) 0 
( -0.00924999 -0.00962218 0.00667016 ) 0 
( -0.0052383 -0.0103496 0.00654087 ) 0 
( -0.00374809 -0.0128071 0.00535679 ) 0 
( -0.00295419 -0.00273464 0.00556726 ) 0 
( -0.0107319 -0.000981658 0.00601339 ) 0 
( -0.00881372 -0.00346385 0.00502687 ) 0 
( -0.0026372 -0.00247482 0.00259888 ) 0 
( -0.0114659 -0.0048612 0.00352462 ) 0 
( -0.0114397 -0.0020861 0.000499745 ) 0 
( -0.00587988 -0.0119606 0.00615167 ) 0 
( -0.00540174 -0.0112566 0.00190212 ) 0 
( -8.62998e-05 -0.00886596 0.000499602 ) 0 
( -0.0125171 -0.00115747 0.00133711 ) 0 
( -0.0115919 -0.00662217 0.00322261 ) 0 
( -0.00665767 -0.00776644 0.0025081 ) 0 
( -0.00432535 -0.00410409 0.00218306 ) 0 
( -0.0121443 -0.00554419 0.00392154 ) 0 
( -0.00252443 -0.00417433 0.00125361 ) 0 
( -0.00333418 -0.00492662 0.00282774 ) 0 
( -0.00779007 -0.00634439 0.000499569 ) 0 
( -0.00669586 -0.0105184 0.00672996 ) 0 
( -0.00888813 -0.00257256 0.0061762 ) 0 
( -0.00867659 -0.00647641 0.00639047 ) 0 
( -0.00213982 -0.00640131 0.00549337 ) 0 
( -0.000773153 -0.0125224 0.000499595 ) 0 
( -0.00650147 -0.00821857 0.00352005 ) 0 
( -0.00389204 -0.00312965 0.0031726 ) 0 
( -0.00263249 -0.00900579 0.004056 ) 0 
( -1.16372e-05 -0.0111086 0.000499651 ) 0 
( -0.00310771 -0.00650796 0.000808317 ) 0 
( -0.00584641 -0.0120018 0.00715 ) 0 
( -0.00533411 -0.0122381 0.00215641 ) 0 
( -0.00218117 -0.00114967 0.00187409 ) 0 
( -0.00102591 -0.00655609 0.00321141 ) 0 
( -0.00435899 -0.0126183 0.00168823 ) 0 
( -0.0102103 -0.00860089 0.000499828 ) 0 
( -0.00438947 -0.00909051 0.00580549 ) 0 
( -0.0107917 -0.00315222 0.000987554 ) 0 
( -0.00394821 -0.00500848 0.00198327 ) 0 
( -0.00179429 -0.00166778 0.00445041 ) 0 
( -0.00859232 -0.00902262 0.0035155 ) 0 
( -0.00733997 -0.00994111 0.000499574 ) 0 
( -0.000660543 -0.00668756 0.00631372 ) 0 
( -0.00694152 -0.00272824 0.00659931 ) 0 
( -0.00503409 -0.00815648 0.0033413 ) 0 
( -0.00616867 -0.00696654 0.00215993 ) 0 
( -0.00251697 -0.000558228 0.00114099 ) 0 
( -0.00528317 -0.00546086 0.0012829 ) 0 
( -0.00960105 -0.00693159 0.000499686 ) 0 
( -0.00293437 -0.00643936 0.00769056 ) 0 
( -0.00739283 -0.00775444 0.00326917 ) 0 
( -0.00108108 -0.000844665 0.00689176 ) 0 
( -0.000166227 -0.0103345 0.00257899 ) 0 
( -0.00329177 -0.00481533 0.0012465 ) 0 
( -0.00993176 -0.0058391 0.00521325 ) 0 
( -0.0029879 -0.00129349 0.0046549 ) 0 
( -0.0039238 -0.00212219 0.00219248 ) 0 
( -0.00567244 -0.000625562 0.00406699 ) 0 
( -0.00758201 -0.00896117 0.00635004 ) 0 
( -0.00770715 -0.00607065 0.00652119 ) 0 
( -0.00152218 -0.00785261 0.00624136 ) 0 
( -0.0074973 -0.0100556 0.00716506 ) 0 
( -0.00647326 -0.00630274 0.00463653 ) 0 
( -0.000671974 -0.012567 0.00245698 ) 0 
( -0.000166463 -0.00397379 0.00177843 ) 0 
( -0.000254336 -0.00238418 0.00386619 ) 0 
( -0.00905189 -0.00385884 0.00281108 ) 0 
( -0.00990458 -8.38802e-05 0.0058117 ) 0 
( -0.0106637 -0.00405622 0.0052121 ) 0 
( -0.0103128 -0.000870141 0.00407733 ) 0 
( -0.0109735 -0.00582155 0.000499786 ) 0 
( -0.00357452 -0.00228302 0.00647398 ) 0 
( -0.00122956 -0.0132926 0.00396631 ) 0 
( -0.00818314 -0.00525191 0.00193373 ) 0 
( -0.00546021 -0.00120232 0.00701173 ) 0 
( -0.00455934 -0.0125261 0.00271948 ) 0 
( -0.012972 -0.00280798 0.00648695 ) 0 
( -0.00323062 -0.00297894 0.000499736 ) 0 
( -0.00516222 -0.00681375 0.00217267 ) 0 
( -0.000283022 -0.00885872 0.00629171 ) 0 
( -0.00473736 -0.0107741 0.00251687 ) 0 
( -0.0101534 -0.00382515 0.00329097 ) 0 
( -0.00463339 -0.00852067 0.00144227 ) 0 
( -0.00209016 -0.0123827 0.00722749 ) 0 
( -0.00260165 -0.00929916 0.0024756 ) 0 
( -0.0118245 -0.00104805 0.00302236 ) 0 
( -0.00304608 -0.0122382 0.000499677 ) 0 
( -0.00421084 -0.00914256 0.00731128 ) 0 
( -0.00432855 -0.00172041 0.00137093 ) 0 
( -0.00808931 -0.0014254 0.00669684 ) 0 
( -0.00591429 -0.00532449 0.00371784 ) 0 
( -0.00198719 -0.0132015 0.0016153 ) 0 
( -0.00274057 -0.0104597 0.0042684 ) 0 
( -0.00481472 -0.00191775 0.00674402 ) 0 
( -0.00886193 -0.00998455 0.000499801 ) 0 
( -0.0123926 -0.00496483 0.00535723 ) 0 
( -0.0015526 -0.00920038 0.00521336 ) 0 
( -0.00555558 -0.00748446 0.001541 ) 0 
( -0.011336 -0.00705135 0.00494125 ) 0 
( -0.0118372 -0.00379236 0.0055994 ) 0 
( -0.00322248 -0.0112541 0.000499679 ) 0 
( -0.00760013 -0.00991219 0.00215097 ) 0 
( -0.00305513 -0.0097271 0.00350736 ) 0 
( -0.00775137 -0.00670611 0.00339696 ) 0 
( -0.0100917 -0.00730944 0.00451648 ) 0 
( -0.00247078 -0.00599223 0.00217375 ) 0 
( -0.0101721 -0.00864428 0.00308559 ) 0 
( -0.00853295 -0.00939008 0.00599483 ) 0 
( -0.0106128 -0.00098268 0.00202815 ) 0 
( -0.00582183 -0.00829688 0.00661596 ) 0 
( -0.0115228 -0.00482115 0.00245983 ) 0 
( -0.00652276 -0.00748424 0.00128734 ) 0 
( -0.00767182 -0.00349303 0.00697712 ) 0 
( -0.00800676 -0.00261935 0.00351507 ) 0 
( -0.00258207 -0.00591512 0.00335467 ) 0 
( -0.0016124 -0.00577695 0.00355735 ) 0 
( -0.00975504 -0.00442085 0.00233519 ) 0 
( -0.00824664 -0.00739646 0.00272445 ) 0 
( -0.00305552 -0.00954879 0.00656523 ) 0 
( -0.0032526 -0.00956096 0.00461032 ) 0 
( -0.00124191 -0.00196972 0.000499717 ) 0 
( -0.00686695 -0.00370428 0.000759095 ) 0 
( -0.0059635 -0.00233399 0.0033313 ) 0 
( -0.00165055 -0.0049818 0.00617274 ) 0 
( -0.00703068 -0.00422817 0.00434242 ) 0 
( -0.001488 -0.00353304 0.000916922 ) 0 
( -0.00284064 -0.0130392 0.00500681 ) 0 
( -0.0013713 -0.0132794 0.00239924 ) 0 
( -0.00108477 -0.00881462 0.000499668 ) 0 
( -0.0106041 -0.00641756 0.00154008 ) 0 
( -0.00621577 -0.00183143 0.0068292 ) 0 
( -0.0121433 -0.00305797 0.00499385 ) 0 
( -0.0113591 -0.00292585 0.00582245 ) 0 
( -0.0106898 -0.000136372 0.00464251 ) 0 
( -0.000824562 -0.00217858 0.00484259 ) 0 
( -0.000690354 -0.0108403 0.00364621 ) 0 
( -0.00943496 -0.00332506 0.00580987 ) 0 
( -0.00490836 -0.0113308 0.00521173 ) 0 
( -0.0068107 -0.00907053 0.000499698 ) 0 
( -0.000802901 -0.00293613 0.000499768 ) 0 
( -0.00624244 -0.00730896 0.00384479 ) 0 
( -0.0115642 -0.00632928 0.00559386 ) 0 
( -8.1794e-05 -0.00559474 0.000499718 ) 0 
( -0.000195902 -0.00752621 0.00181829 ) 0 
( -0.00181629 -0.00772765 0.00305496 ) 0 
( -0.00323584 -0.00504909 0.0054218 ) 0 
( -0.00271679 -0.00527164 0.00627622 ) 0 
( -0.000669352 -0.00583223 0.00388568 ) 0 
( -0.00638992 -0.0032738 0.00596849 ) 0 
( -0.00601814 -0.0100552 0.00598921 ) 0 
( -0.00220668 -0.0114572 0.000499685 ) 0 
( -0.00173421 -0.00740858 0.00400052 ) 0 
( -0.00572707 -0.00938675 0.00212434 ) 0 
( -0.00904366 -0.00624044 0.00547069 ) 0 
( -0.00858547 -0.00190297 0.0074214 ) 0 
( -0.000693025 -0.0100545 0.00645399 ) 0 
( -0.00776639 -0.00284576 0.00445894 ) 0 
( -0.00473436 -0.0112377 0.00700177 ) 0 
( -0.00758344 -0.00730927 0.00495571 ) 0 
( -0.00426533 -0.0116323 0.00450057 ) 0 
( -0.00938822 -0.00149303 0.00372104 ) 0 
( -0.00204511 -0.00132957 0.000499783 ) 0 
( -0.00923335 -0.00745103 0.00395604 ) 0 
( -0.0114353 -0.00206121 0.00242927 ) 0 
( -0.00606907 -0.00978759 0.00699927 ) 0 
( -0.0122911 -0.00167703 0.0064235 ) 0 
( -0.00402865 -0.00821309 0.000707825 ) 0 
( -0.00461914 -0.00541164 0.00625352 ) 0 
( -0.00554583 -0.00577421 0.00453142 ) 0 
( -0.00828226 -0.00674236 0.00127354 ) 0 
( -0.00294422 -0.0130203 0.0019121 ) 0 
( -0.00764898 -0.000686231 0.00222178 ) 0 
( -0.00734017 -0.00345233 0.00378751 ) 0 
( -0.011493 -0.00103978 0.00485808 ) 0 
( -0.0053332 -0.00112781 0.00195218 ) 0 
( -0.00389157 -0.00310621 0.00201732 ) 0 
( -0.00167249 -0.00820876 0.00756317 ) 0 
( -0.00467921 -0.00560774 0.000499692 ) 0 
( -0.0108844 -4.14258e-05 0.00561872 ) 0 
( -0.000261166 -0.00429603 0.00580965 ) 0 
( -0.00237593 -0.00484677 0.00711467 ) 0 
( -0.00308414 -0.00604899 0.00527685 ) 0 
( -0.00235682 -0.00927028 0.000499706 ) 0 
( -0.00476295 -0.00378731 0.00579736 ) 0 
( -0.00862755 -0.000426555 0.00209533 ) 0 
( -0.00488556 -0.00642939 0.00105047 ) 0 
( -0.00592821 -0.0100519 0.00499341 ) 0 
( -0.00229788 -0.010308 0.00280753 ) 0 
( -0.0105098 -0.00105095 0.00504094 ) 0 
( -0.00766543 -0.0090215 0.00260071 ) 0 
( -0.010026 -0.00764159 0.00106103 ) 0 
( -0.00133081 -0.00319252 0.00342958 ) 0 
( -0.00680702 -0.0104545 0.00552267 ) 0 
( -0.00296509 -0.00829795 0.00628893 ) 0 
( -0.00289972 -0.000590976 0.00229075 ) 0 
( -0.00141919 -0.0124596 0.0012599 ) 0 
( -0.00329079 -0.00143631 0.00803633 ) 0 
( -0.0065812 -0.00606904 0.00367029 ) 0 
( -0.00152475 -0.00395241 0.00489314 ) 0 
( -0.0103814 -0.00255404 0.00487344 ) 0 
( -0.00376905 -0.00747351 0.00315734 ) 0 
( -0.00825006 -0.0104911 0.00402925 ) 0 
( -0.00229473 -0.000897698 0.00405259 ) 0 
( -0.00215179 -0.00329135 0.00814722 ) 0 
( -0.000101958 -0.00342399 0.00428876 ) 0 
( -0.0104725 -0.00233995 0.000499713 ) 0 
( -0.00405879 -0.00346729 0.00457096 ) 0 
( -0.00184054 -0.00148521 0.0067787 ) 0 
( -0.00101542 -0.0072864 0.00473025 ) 0 
( -0.00569104 -0.00374198 0.00542804 ) 0 
( -0.000423476 -0.00338476 0.00619091 ) 0 
( -0.00371167 -0.0067546 0.00584157 ) 0 
( -0.00683934 -0.00888623 0.00431163 ) 0 
( -0.0124872 -0.00471598 0.00439343 ) 0 
( -0.00238487 -0.0122644 0.00143062 ) 0 
( -0.00222685 -0.00336403 0.00529401 ) 0 
( -0.00130309 -0.00659522 0.00141771 ) 0 
( -0.0125479 -0.00455791 0.000499785 ) 0 
( -0.00128343 -0.00821767 0.00527236 ) 0 
( -0.0099596 -0.0027788 0.001397 ) 0 
( -0.00315189 -0.0102302 0.00228922 ) 0 
( -0.00384411 -0.00194125 0.00341341 ) 0 
( -0.0065892 -0.0116106 0.00324445 ) 0 
( -0.0113605 -0.00489955 0.000499705 ) 0 
( -0.000477094 -0.00833572 0.00233355 ) 0 
( -0.00419275 -0.00565081 0.00537636 ) 0 
( -0.00856717 -0.00749108 0.00652066 ) 0 
( -0.000689986 -0.00888074 0.00481631 ) 0 
( -0.00698969 -0.00413151 0.00662179 ) 0 
( -0.00435951 -0.0098081 0.0065013 ) 0 
( -0.00757669 -5.05239e-05 0.0065032 ) 0 
( -0.00826184 -0.00937224 0.00695711 ) 0 
( -0.0115446 -0.00402061 0.00182284 ) 0 
( -0.00178249 -0.00711401 0.00212549 ) 0 
( -0.00982192 -0.00240303 0.00586152 ) 0 
( -0.00801523 -0.00828204 0.00469818 ) 0 
( -0.00166107 -0.00926369 0.00387763 ) 0 
( -0.0104434 -0.00383498 0.00716367 ) 0 
( -0.00399239 -0.0110483 0.00373606 ) 0 
( -0.000673276 -0.000803523 0.00325487 ) 0 
( -0.00586599 -0.00656641 0.0012949 ) 0 
( -0.00613548 -0.0046314 0.00460197 ) 0 
( -0.00954904 -0.00446409 0.00665535 ) 0 
( -0.00756126 -0.00809666 0.00223514 ) 0 
( -0.00514991 -0.0116595 0.000499687 ) 0 
( -0.00379829 -0.00484172 0.00622201 ) 0 
( -0.00703577 -0.000774913 0.00138641 ) 0 
( -0.0083957 -0.0103793 0.00588309 ) 0 
( -0.00643653 -0.00173363 0.00780211 ) 0 
( -0.00270774 -0.0113212 0.00135423 ) 0 
( -0.00517986 -0.00801055 0.000778186 ) 0 
( -0.00357007 -0.0114138 0.00733644 ) 0 
( -0.000345227 -0.00839189 0.00134082 ) 0 
( -0.0117045 -0.00112493 0.00583141 ) 0 
( -0.00326471 -0.000553983 0.00756666 ) 0 
( -0.0107161 -0.00423331 0.00254281 ) 0 
( -0.0109121 -0.00564773 0.00525906 ) 0 
( -0.00741218 -0.00701408 0.00212335 ) 0 
( -0.0133458 -0.000188249 0.000499806 ) 0 
( -0.00726919 -0.000320661 0.00412524 ) 0 
( -0.00884267 -0.00542216 0.00481524 ) 0 
( -0.00500073 -0.00495125 0.00209608 ) 0 
( -0.00498482 -0.00877767 0.00243595 ) 0 
( -0.00719987 -0.00177142 0.00699437 ) 0 
( -0.0128923 -0.00345573 0.00049983 ) 0 
( -0.00680982 -0.00084233 0.00805888 ) 0 
( -0.00141833 -0.0123902 0.00337521 ) 0 
( -0.00813743 -0.00736052 0.000499809 ) 0 
( -0.00332658 -0.00171607 0.00568762 ) 0 
( -0.000571599 -0.00664129 0.00209824 ) 0 
( -0.0115133 -0.00496613 0.00705626 ) 0 
( -0.00924038 -0.000553246 0.00402896 ) 0 
( -0.00276824 -0.000344694 0.00488153 ) 0 
( -0.0123929 -0.000682796 0.00640577 ) 0 
( -0.00344926 -0.00863473 0.00361276 ) 0 
( -0.00220131 -0.000214097 0.00575785 ) 0 
( -0.00703864 -0.00413906 0.00173374 ) 0 
( -0.00789487 -0.00864747 0.00143874 ) 0 
( -0.00221411 -0.000453981 0.00310586 ) 0 
( -0.000251877 -0.00907056 0.00393778 ) 0 
( -0.00759891 -0.000910446 0.00599409 ) 0 
( -0.00453204 -0.0125528 0.0047906 ) 0 
( -0.00647647 -0.0106806 0.00359411 ) 0 
( -0.000439312 -0.0060043 0.00133888 ) 0 
( -0.00605769 -0.00417016 0.00626191 ) 0 
( -0.00419751 -0.00802471 0.00387349 ) 0 
( -0.00207944 -0.007605 0.00130426 ) 0 
( -0.00769393 -0.00258064 0.00738514 ) 0 
( -0.00723227 -0.00648307 0.00545382 ) 0 
( -0.000527858 -0.00119625 0.00221816 ) 0 
( -0.00930159 -0.00831728 0.00346141 ) 0 
( -0.00271345 -0.0130716 0.000940529 ) 0 
( -0.012176 -0.00547454 0.00207179 ) 0 
( -0.00226388 -0.00411816 0.0022174 ) 0 
( -0.00333858 -0.00421846 0.0020475 ) 0 
( -0.00461189 -0.00149124 0.00255132 ) 0 
( -0.00767564 -0.00462572 0.00355185 ) 0 
( -0.00556411 -0.00320278 0.00755987 ) 0 
( -0.00644412 -0.000315625 0.00568687 ) 0 
( -0.00718027 -0.00673765 0.00118726 ) 0 
( -0.00385764 -0.00158295 0.000499715 ) 0 
( -0.00264259 -0.00199855 0.00403543 ) 0 
( -0.00654432 -0.00268539 0.00751588 ) 0 
( -0.00339982 -0.0035756 0.00128404 ) 0 
( -0.00313418 -0.00881427 0.00723905 ) 0 
( -0.00239656 -0.00353022 0.000499718 ) 0 
( -0.00527274 -0.00522857 0.00704079 ) 0 
( -0.00693568 -0.00138573 0.00217174 ) 0 
( -0.00453742 -0.00472441 0.00552872 ) 0 
( -0.0132132 -0.00190737 0.00480485 ) 0 
( -0.00457195 -0.000187302 0.00256946 ) 0 
( -0.0108749 -0.00181566 0.00137922 ) 0 
( -0.0039556 -0.00774956 0.00211597 ) 0 
( -0.00299814 -0.00704305 0.0052032 ) 0 
( -0.000944472 -0.0044846 0.00141141 ) 0 
( -0.0121712 -0.00548516 0.000499751 ) 0 
( -0.0070027 -0.00742648 0.00640925 ) 0 
( -0.00413304 -0.00396533 0.0065672 ) 0 
( -0.00561065 -0.00601672 0.000499647 ) 0 
( -0.00676169 -0.00838904 0.00628738 ) 0 
( -0.0013761 -0.000164897 0.00356863 ) 0 
( -0.00583908 -0.00771056 0.00573261 ) 0 
( -0.00598921 -0.000451533 0.00742356 ) 0 
( -0.00575126 -0.00653327 0.00305002 ) 0 
( -0.0124009 -0.00494374 0.00310337 ) 0 
( -0.0102043 -0.008608 0.00150822 ) 0 
( -0.00372852 -0.00557196 0.0044942 ) 0 
( -0.00379617 -0.00651374 0.00682015 ) 0 
( -0.00405202 -0.00854066 0.0027391 ) 0 
( -0.0120853 -0.00364784 0.00267098 ) 0 
( -0.00195153 -0.00591753 0.006355 ) 0 
( -0.00787162 -0.000503614 0.0032652 ) 0 
( -0.000941922 -0.00986145 0.00349806 ) 0 
( -0.00469232 -0.00264922 0.00368947 ) 0 
( -0.0101678 -0.00569475 0.00425242 ) 0 
( -0.00802827 -0.0106664 0.000499773 ) 0 
( -0.0100764 -0.00671535 0.00261599 ) 0 
( -0.00242897 -0.00943069 0.00568414 ) 0 
( -0.000453024 -0.00525664 0.00688348 ) 0 
( -0.00788885 -0.00907032 0.00530018 ) 0 
( -0.00201258 -0.00672127 0.00318813 ) 0 
( -0.00375699 -0.00766351 0.00625561 ) 0 
( -0.00115528 -0.00656183 0.00540821 ) 0 
( -0.00845007 -0.00506062 0.00585761 ) 0 
( -0.00247097 -0.00138583 0.00284861 ) 0 
( -0.000791758 -0.00279905 0.0026026 ) 0 
( -0.00928304 -0.00258095 0.0050384 ) 0 
( -0.0029138 -0.00012962 0.00388193 ) 0 
( -0.00458009 -0.00726917 0.00149903 ) 0 
( -0.00505868 -0.00303347 0.00049977 ) 0 
( -0.0037428 -0.0128148 0.000925705 ) 0 
( -0.0131555 -0.001493 0.00302518 ) 0 
( -0.00705379 -0.00385083 0.00277064 ) 0 
( -0.00881329 -0.00216349 0.00308038 ) 0 
( -0.0109082 -0.00462942 0.00134943 ) 0 
( -0.00364245 -0.0109595 0.00541969 ) 0 
( -0.00675234 -0.00906185 0.00304016 ) 0 
( -0.00280501 -0.00518955 0.00453002 ) 0 
( -0.00989948 -0.00753249 0.00204693 ) 0 
( -6.26811e-05 -0.000153369 0.00499789 ) 0 
( -0.00783139 -0.00696534 0.00609277 ) 0 
( -0.00707006 -0.0111077 0.000499714 ) 0 
( -0.00842527 -0.0103558 0.00688178 ) 0 
( -0.0122227 -0.00242556 0.00576412 ) 0 
( -0.00780164 -0.00276903 0.00117593 ) 0 
( -0.000705325 -0.0124488 0.00408126 ) 0 
( -0.00983099 -0.00632476 0.00608129 ) 0 
( -0.00361516 -0.00855721 0.00163459 ) 0 
( -0.00476144 -0.000429994 0.00467269 ) 0 
( -0.000598918 -0.001184 0.00503754 ) 0 
( -0.00119931 -0.00341027 0.00842633 ) 0 
( -0.00785081 -0.00549438 0.00102227 ) 0 
( -0.00523621 -0.00346331 0.00348543 ) 0 
( -0.00783906 -0.00186783 0.00583498 ) 0 
( -0.00475261 -0.00887047 0.000499588 ) 0 
( -0.00164188 -0.00685996 0.00622954 ) 0 
( -0.0044532 -0.00423426 0.0040638 ) 0 
( -0.00404566 -0.00132623 0.00628862 ) 0 
( -0.00896203 -0.0098949 0.00758788 ) 0 
( -0.00702692 -0.00568232 0.00714252 ) 0 
( -0.00686886 -0.00316977 0.00479968 ) 0 
( -0.00743403 -0.001864 0.00442927 ) 0 
( -0.00462609 -0.00463499 0.00122457 ) 0 
( -0.000771771 -0.0133278 0.00609125 ) 0 
( -0.00852596 -0.00263593 0.000499652 ) 0 
( -0.00051854 -0.00761986 0.00664579 ) 0 
( -0.00135541 -0.00650439 0.00419823 ) 0 
( -0.006892 -0.00315451 0.00182738 ) 0 
( -0.00992158 -0.00173137 0.00453555 ) 0 
( -0.00281906 -0.00877041 0.00504238 ) 0 
( -0.00702393 -0.00570199 0.000499793 ) 0 
( -0.00568264 -0.00594846 0.00205932 ) 0 
( -0.00801914 -0.00401203 0.00426259 ) 0 
( -0.00970311 -0.000474199 0.00491347 ) 0 
( -0.0087983 -0.00633536 0.000499798 ) 0 
( -0.00965779 -0.00673453 0.00147823 ) 0 
( -0.0012869 -0.00484986 0.00336818 ) 0 
( -0.00156573 -0.00127175 0.00783347 ) 0 
( -0.00574041 -0.00269927 0.00666536 ) 0 
( -0.0131786 -0.00213345 0.00577814 ) 0 
( -0.00433794 -0.00517583 0.00374565 ) 0 
( -0.00720154 -0.00257611 0.00553223 ) 0 
( -0.0067453 -0.00888858 0.00204702 ) 0 
( -0.00134516 -0.00163163 0.00161141 ) 0 
( -0.00590487 -0.00916401 0.00453399 ) 0 
( -0.0114247 -0.00290991 0.00308363 ) 0 
( -0.00774615 -0.00201011 0.000499678 ) 0 
( -0.000584338 -0.0030285 0.00161186 ) 0 
( -0.00543387 -0.00446819 0.00390801 ) 0 
( -0.00203758 -0.000979039 0.00513508 ) 0 
( -0.000842394 -0.0092784 0.00135175 ) 0 
( -0.00540917 -0.00201306 0.00140323 ) 0 
( -0.00570289 -0.00644292 0.00525847 ) 0 
( -0.00190489 -0.0132134 0.00470037 ) 0 
( -0.00999178 -0.0060112 0.000499805 ) 0 
( -0.0116936 -0.00644044 0.0042326 ) 0 
( -0.00178694 -0.00928751 0.00187757 ) 0 
( -0.00176051 -0.0132277 0.00680642 ) 0 
( -0.0119956 -0.00487423 0.00127151 ) 0 
( -0.00888211 -0.00696906 0.00206403 ) 0 
( -0.00169006 -0.0122333 0.00219553 ) 0 
( -0.00276921 -0.0130593 0.00399525 ) 0 
( -0.00171731 -0.00247579 0.00683499 ) 0 
( -0.000247011 -0.00291846 0.00793526 ) 0 
( -0.0128832 -0.00348527 0.00329351 ) 0 
( -0.00057937 -0.0133374 0.00318966 ) 0 
( -0.00264043 -0.00286782 0.00452967 ) 0 
( -0.00792797 -0.00422052 0.00628612 ) 0 
( -0.00455381 -0.0072135 0.00433903 ) 0 
( -0.00356453 -0.00827566 0.00548875 ) 0 
( -0.0111624 -0.00324877 0.00489684 ) 0 
( -0.0103085 -0.00483671 0.000499647 ) 0 
( -0.00574017 -0.000986748 0.00591859 ) 0 
( -0.00820925 -0.00686405 0.00721244 ) 0 
( -0.0120076 -0.00583466 0.00702336 ) 0 
( -0.00309855 -0.0119276 0.00537903 ) 0 
( -0.00672539 -0.00934907 0.0060107 ) 0 
( -0.00342615 -0.00268325 0.00393843 ) 0 
( -0.00896572 -0.000924268 0.00129074 ) 0 
( -0.00394944 -0.00218042 0.00824074 ) 0 
( -0.00212246 -0.00333655 0.00714455 ) 0 
( -0.00511676 -0.010188 0.00556168 ) 0 
( -0.00221771 -0.00822761 0.00562825 ) 0 
( -0.00860287 -0.00323171 0.00403678 ) 0 
( -0.00642453 -0.00222755 0.0023451 ) 0 
( -0.0103177 -0.0049356 0.0048856 ) 0 
( -0.00317187 -0.00570625 0.00705337 ) 0 
( -0.000717991 -0.000438355 0.00569787 ) 0 
( -0.00781901 -0.00357694 0.00514025 ) 0 
( -0.00580438 -0.00541723 0.00621537 ) 0 
( -0.0101171 -0.0087105 0.00638348 ) 0 
( -0.00882873 -0.00077657 0.00314139 ) 0 
( -0.0129177 -0.0033694 0.00209331 ) 0 
( -0.0122766 -0.00312255 0.00128378 ) 0 
( -0.0063125 -0.0117614 0.000499772 ) 0 
( -0.00115148 -0.0010321 0.000835007 ) 0 
( -0.0014942 -0.0132662 0.00049976 ) 0 
( -0.00230616 -0.00301095 0.0013494 ) 0 
( -0.00811538 -0.00116718 0.0051772 ) 0 
( -0.00537865 -0.00928543 0.00613538 ) 0 
( -0.00592171 -0.00843197 0.00238403 ) 0 
( -0.00618129 -0.00400092 0.00222948 ) 0 
( -0.00477323 -0.00263125 0.00788826 ) 0 
( -0.00811441 -0.00948296 0.000935166 ) 0 
( -0.00294991 -0.0111505 0.00626325 ) 0 
( -0.00294413 -0.00430027 0.00620901 ) 0 
( -0.00546203 -0.0119682 0.00445239 ) 0 
( -0.00792353 -0.00119573 0.00766868 ) 0 
( -0.0034592 -0.000304898 0.0065859 ) 0 
( -0.000562333 -0.00805845 0.00783591 ) 0 
( -0.0124946 -0.000562051 0.00541852 ) 0 
( -0.00378226 -0.00657665 0.00479309 ) 0 
( -0.0035696 -0.0058116 0.00614176 ) 0 
( -0.00556893 -0.0121202 0.00344656 ) 0 
( -0.0084011 -0.00341211 0.00593622 ) 0 
( -0.00565013 -0.00495909 0.000499758 ) 0 
( -0.00953569 -0.00844518 0.00223376 ) 0 
( -0.00230215 -0.00662224 0.00138929 ) 0 
( -0.00547615 -0.00422686 0.00155726 ) 0 
( -0.00937757 -0.0016819 0.000499725 ) 0 
( -0.00741532 -0.00498746 0.00258412 ) 0 
( -0.0113112 -0.00529182 0.00441393 ) 0 
( -0.00839002 -0.00432116 0.000499722 ) 0 
( -0.000558892 -0.00125835 0.0076386 ) 0 
( -0.00392102 -0.00406519 0.00763043 ) 0 
( -0.000115689 -0.00619728 0.00699381 ) 0 
( -0.000987807 -0.01261 0.00701113 ) 0 
( -2.0369e-05 -0.0102591 0.00567199 ) 0 
( -0.00554 -0.00272165 0.00421496 ) 0 
( -0.00999073 -0.00429595 0.00418419 ) 0 
( -0.0105951 -0.00682316 0.000499806 ) 0 
( -0.000189443 -0.00787147 0.000499678 ) 0 
( -0.010574 -0.00813928 0.00479681 ) 0 
( -0.00667435 -0.00125722 0.00615115 ) 0 
( -0.00310946 -0.00362756 0.00403131 ) 0 
( -0.007753 -0.00795923 0.00601706 ) 0 
( -0.00805576 -0.00928033 0.00433667 ) 0 
( -0.00575243 -0.00889211 0.00049973 ) 0 
( -0.0127261 -0.00403391 0.00520963 ) 0 
( -0.007376 -0.00342898 0.00602426 ) 0 
( -0.00559848 -0.00711229 0.000499809 ) 0 
( -0.00196435 -0.0112648 0.00610454 ) 0 