FoamFile
{version 2.0; format ascii;class vectorField; location 0;object  v;}
2496
(
( -2.26072e-05 6.41436e-05 -6.00146e-07 )  
( -0.00055986 -9.47698e-05 -5.68305e-06 )  
( -0.00128383 4.2524e-05 0.00558144 )  
( 0.00371131 0.00350177 0.0138261 )  
( 0.00010295 0.0007658 -2.38603e-07 )  
( -0.000447256 0.000140988 -7.17072e-06 )  
( -0.000510596 -0.000124569 -4.96339e-05 )  
( 0.00113628 0.00108696 0.00739008 )  
( -0.000404066 0.00043103 0.00874621 )  
( -0.000136543 0.000218953 0.000224256 )  
( -0.00188519 -6.73823e-06 0.00503245 )  
( 6.57828e-05 0.000436771 0.00283155 )  
( -0.000895594 0.00153697 0.00841018 )  
( -0.000190473 0.000237494 0.00995473 )  
( -0.000308828 0.00052931 0.0109446 )  
( -0.000593379 0.00117107 0.0119403 )  
( -2.78638e-05 0.000952871 0.00959575 )  
( -0.00118891 0.0011777 0.0088512 )  
( -1.33533e-05 0.000126989 -1.62111e-05 )  
( -0.00129131 0.000839933 0.00885473 )  
( 0.000862687 0.00139937 -6.39236e-05 )  
( -0.00140446 0.00153917 0.00976987 )  
( -0.000577948 5.00203e-05 -0.000224076 )  
( -3.20496e-05 -0.000348485 -4.38833e-06 )  
( -0.000377205 0.0003345 4.15719e-05 )  
( -0.00144789 0.00168396 0.00909218 )  
( -0.000382884 0.000275004 1.22002e-05 )  
( 0.000224808 -0.00100963 0.0106717 )  
( -7.59839e-05 0.000177756 5.62963e-05 )  
( -4.81991e-05 0.00110526 0.00359675 )  
( -0.000429983 2.73095e-05 4.46928e-05 )  
( -0.000977526 0.00117884 0.00816812 )  
( -0.00354021 0.00167484 0.00641329 )  
( -0.0013776 0.001259 0.00869119 )  
( 0.000541656 0.00120379 0.00879324 )  
( -0.0100549 -0.00548001 0.0122985 )  
( 7.18423e-05 0.000941485 0.0109963 )  
( -0.000197278 0.0016988 0.00191293 )  
( -0.00190766 -0.00199866 0.0140474 )  
( -0.00102093 -0.000258713 0.0114073 )  
( -7.51627e-05 0.000664798 1.1737e-05 )  
( -6.57673e-05 0.000798237 0.00670869 )  
( -2.41867e-05 0.000165721 -0.000272474 )  
( 0.000875093 -0.000175726 -0.000486016 )  
( -0.000671541 0.000520843 8.9995e-05 )  
( 0.000760968 0.00168102 0.010545 )  
( 0.00617275 0.00175064 0.0122835 )  
( -0.00127369 0.000601364 0.00912035 )  
( -0.000659101 0.00134429 0.0104494 )  
( -0.00112817 0.0022134 0.012236 )  
( -0.00140005 0.00103528 0.00537228 )  
( 1.08573e-05 -0.00034331 2.14073e-07 )  
( 0.000558247 0.000502015 0.0111292 )  
( -1.69127e-06 -0.000327943 -0.000454899 )  
( -0.000242406 -2.35743e-05 -1.45251e-05 )  
( -0.000423345 0.00164826 0.00787336 )  
( -0.000301274 0.00104053 5.08917e-06 )  
( -0.000544219 0.00104362 0.00559623 )  
( 7.63939e-05 7.87321e-06 -9.7296e-05 )  
( -8.96993e-05 -0.000198474 -8.50707e-05 )  
( -0.000634922 -0.000959405 -6.72357e-05 )  
( -0.000753265 0.000612846 0.00745845 )  
( -3.75292e-05 0.000219807 -0.000114971 )  
( -0.00294609 0.000905046 0.012608 )  
( -0.00285406 0.00210909 0.0102804 )  
( -0.00271769 0.00457805 0.00639361 )  
( 0.00226311 0.000858769 0.00147974 )  
( -0.0017233 0.00043966 0.00638511 )  
( -0.00107492 0.000519239 0.00704795 )  
( -1.26132e-05 -3.344e-05 -0.00012928 )  
( -0.00368695 0.000244127 0.010649 )  
( 0.0001319 0.0001593 0.011744 )  
( -0.00205972 -0.000278404 0.00846293 )  
( -7.95899e-05 9.10594e-05 0.000245081 )  
( -0.00141683 0.000835349 -0.000973064 )  
( 0.00213082 0.00297866 0.00691124 )  
( -0.000272949 0.0018193 0.00787696 )  
( 0.000206767 0.00074565 -0.00105505 )  
( 0.000324269 -0.000183684 -6.98797e-05 )  
( -0.000103532 -3.68314e-05 -1.13729e-05 )  
( -0.000399939 0.00192377 0.000482237 )  
( -0.00093734 -0.000423131 0.00913349 )  
( -0.000620793 -0.000357883 0.0086585 )  
( -0.000175888 0.000689083 0.000413702 )  
( 0.00201526 0.00306543 0.00954846 )  
( -0.00133532 0.00156382 0.0116736 )  
( 0.000151678 0.00149824 0.00934078 )  
( -0.000509849 0.00096215 0.00322381 )  
( -0.00494152 -0.00362475 0.0174097 )  
( -0.00116948 0.0018084 0.00675437 )  
( -6.37655e-05 -0.000100206 4.6776e-06 )  
( -0.000165733 -0.000611223 0.00971631 )  
( 0.000936601 0.00089873 -0.000707497 )  
( -0.00122295 6.62548e-06 0.0106969 )  
( 0.000414974 0.00222222 0.00970783 )  
( -2.28419e-06 -0.000101576 -2.45402e-05 )  
( -0.00105636 0.00184097 0.00842555 )  
( 0.000346457 0.00145665 0.00227519 )  
( -0.000526433 0.000804473 0.0105518 )  
( 0.000155105 0.000152889 0.0113276 )  
( 0.000443624 0.000110721 0.00850715 )  
( -0.000613921 0.00129104 0.0125897 )  
( -7.30568e-05 0.00146233 0.00893175 )  
( -0.000463021 0.00126176 -0.000316096 )  
( 0.00347531 0.0022884 0.0108399 )  
( 0.000592172 0.000562914 0.0090404 )  
( -0.00157029 0.00130487 0.0108559 )  
( 0.000456753 0.00190076 0.010321 )  
( 0.00251691 0.00238529 0.00901952 )  
( 0.000154757 0.000938955 0.00864648 )  
( -0.0015289 0.00131212 0.00924185 )  
( -0.000682663 -0.000437993 0.0123703 )  
( -0.00022658 9.22447e-05 4.23358e-05 )  
( -0.000904805 -0.000145367 -7.10071e-06 )  
( 0.00199303 0.00262826 0.00692467 )  
( 0.000492046 0.000528324 0.00996372 )  
( 0.00187987 0.0024455 0.00728635 )  
( 0.000190559 -4.27541e-05 0.00872656 )  
( 0.000423767 0.000329725 4.9262e-05 )  
( -0.000666966 0.00249379 0.00990396 )  
( -0.00335597 -0.000915947 0.0113598 )  
( -0.000163051 0.000124996 8.28829e-05 )  
( 0.000228119 0.000858173 0.0107325 )  
( -0.000237432 -0.00120096 0.00572851 )  
( -0.000300311 -3.36887e-05 -3.01578e-05 )  
( 0.00032252 0.00141583 0.00921771 )  
( -0.00104565 0.000938665 0.00889918 )  
( -0.00115253 0.00550599 0.00983867 )  
( 7.23836e-05 0.00283772 0.0116522 )  
( -0.00083066 1.516e-05 0.00353356 )  
( -0.000948523 0.000292004 0.000488714 )  
( -0.000995547 0.00102421 0.00923701 )  
( -0.00256813 0.00125905 0.0125863 )  
( 0.000410685 0.000850172 -0.000335485 )  
( -3.67337e-05 7.8177e-05 -7.0679e-05 )  
( -0.00101093 -0.000372298 -0.000319857 )  
( -8.99148e-05 -4.94547e-05 -1.67532e-05 )  
( 8.98676e-05 0.000221001 0.00983479 )  
( 0.00180806 0.00061697 0.0118637 )  
( -0.00265143 -0.00103682 0.00856112 )  
( 0.000869989 0.000929235 0.00866334 )  
( -0.00119636 0.000401907 0.00913813 )  
( 0.000275185 -0.00032572 -0.00136022 )  
( 0.000889165 0.00177835 0.00962046 )  
( 0.000313988 0.000614687 0.00961875 )  
( -0.000592138 -6.55931e-05 -6.32556e-05 )  
( -0.00132202 -0.000679946 0.0168047 )  
( 0.000106871 0.00251641 0.010737 )  
( -0.000230084 0.00027851 9.85813e-05 )  
( -0.000450579 0.00167222 0.00950467 )  
( -0.000680897 0.00086292 0.000646708 )  
( -0.000420562 -0.00020738 9.64333e-06 )  
( 0.00209728 0.00238311 0.00470156 )  
( -0.000868158 0.00246868 0.0103409 )  
( 2.6373e-05 0.000705987 -0.000246677 )  
( 1.5219e-05 0.000545789 0.000317048 )  
( -0.000724313 0.00126671 0.00418882 )  
( -0.000916352 -0.000395765 0.00946254 )  
( -0.0012882 0.00052212 0.00584828 )  
( 0.000883332 0.00118569 0.0105135 )  
( -0.00131252 0.000504373 0.000239495 )  
( 0.000685853 0.00104724 0.00753408 )  
( -0.000635682 0.000684703 0.0122299 )  
( -0.000604687 0.00110806 0.010715 )  
( -0.000104177 0.000827472 0.00822058 )  
( 0.0013429 0.000872709 0.00893419 )  
( -0.000236986 0.00223442 0.00775858 )  
( -0.00158753 -0.000904035 0.0114843 )  
( -0.000232165 0.000245579 -7.95828e-05 )  
( -0.00201452 0.00047573 0.00838982 )  
( -0.000875288 0.00173343 -0.000249461 )  
( -6.1792e-05 0.00143247 0.0089595 )  
( -0.000946747 -0.00064376 0.00659243 )  
( -0.000949792 0.000811392 0.00798759 )  
( 6.75164e-05 0.000392567 4.46683e-05 )  
( -0.000246536 0.00188818 0.00843231 )  
( -0.00298747 0.00494275 0.00992142 )  
( -5.38491e-05 0.000135514 -2.4154e-05 )  
( -0.00156903 0.00273396 0.0121387 )  
( -0.000791203 0.000949021 0.0110551 )  
( -9.65243e-05 0.000144425 0.000240791 )  
( 0.000604759 0.00160115 0.00890742 )  
( -0.000103149 0.000226585 -1.01992e-05 )  
( 0.000516966 0.000382762 0.00644346 )  
( -0.00399005 0.00066276 0.00861517 )  
( -0.00115603 -1.55049e-05 0.0136277 )  
( 4.3887e-05 0.00119906 0.00775113 )  
( 3.05239e-05 0.000863036 0.00511381 )  
( -0.00387297 -0.000632227 0.012056 )  
( -0.000225844 0.0011722 0.00996141 )  
( -0.0011602 0.00149352 0.00737256 )  
( 0.00060432 -0.00133794 0.0127182 )  
( 9.48412e-05 0.000113057 -9.78233e-06 )  
( -0.000243301 0.000333603 6.68311e-05 )  
( 0.00167673 0.00528365 0.0200477 )  
( -7.70119e-05 -0.000154813 -1.61047e-06 )  
( -0.00068593 0.00247798 0.00114562 )  
( 0.000129011 0.00234089 0.0078491 )  
( -0.000167038 0.0025302 0.00742285 )  
( -0.000706375 0.000746311 0.00987374 )  
( -0.000952243 0.00152592 0.00940425 )  
( -9.90084e-05 0.000352376 -0.00125862 )  
( -0.0010603 0.000981297 0.0124538 )  
( -0.000404309 0.000666516 0.0103289 )  
( 0.0011757 0.000855872 0.0083165 )  
( 3.11652e-05 0.00203944 0.0132982 )  
( -0.000395296 0.000411616 0.00903937 )  
( -0.000324024 0.000261821 -7.84381e-05 )  
( -0.000338562 0.000894616 0.0112416 )  
( -0.00118667 0.00131733 0.0120616 )  
( -0.000546598 0.000308556 0.00962632 )  
( -0.00102029 0.00126338 0.00801895 )  
( -0.00039079 0.000448035 0.000172362 )  
( -0.00252453 0.000818628 0.00949483 )  
( -0.00145226 0.000136181 0.00552209 )  
( -0.00101372 0.00110206 0.00839226 )  
( -0.000830688 -0.00137767 0.00780765 )  
( 0.000133483 0.000993277 0.00847648 )  
( 0.000525883 0.00134186 0.0106639 )  
( 0.000864761 -0.000847748 0.00844742 )  
( 0.000675946 -0.00170053 0.0105602 )  
( -8.96152e-05 0.000481126 0.00503809 )  
( -0.0036503 0.000733228 0.00827357 )  
( 0.00035599 0.00027398 6.43556e-06 )  
( -0.000960426 0.00036722 0.0052309 )  
( -0.000861396 -0.00049357 -0.000783741 )  
( -8.04388e-05 1.26571e-05 -5.8005e-05 )  
( 0.000675931 0.00039453 -0.000372238 )  
( -0.00045293 0.000843712 0.00422309 )  
( -8.59284e-05 0.000637736 0.0011583 )  
( 0.0010596 0.0011445 0.000523852 )  
( -0.000399311 0.000871746 0.00740204 )  
( -0.000610573 0.000321418 -6.16677e-05 )  
( 0.0037265 0.000586389 0.00238581 )  
( -0.000445443 0.000336357 2.44232e-06 )  
( -0.00117532 0.00444866 0.0161146 )  
( 0.000665673 0.000667381 0.00898375 )  
( 0.00354499 -0.00218817 0.0125932 )  
( -0.00133661 -6.7585e-06 0.00959446 )  
( -0.000140436 -0.000290378 -2.1379e-05 )  
( -0.00286813 -0.000630583 0.0100004 )  
( -0.00210549 -0.000534658 0.00887977 )  
( -0.000615465 0.00322389 0.0105658 )  
( -4.59807e-05 -3.29714e-05 -4.87028e-05 )  
( -5.09395e-05 2.08811e-05 8.00185e-05 )  
( -0.000995029 0.000555332 0.00548526 )  
( 0.000997367 -0.00040577 -0.000797348 )  
( 0.000736918 0.00131171 0.000369824 )  
( 0.00104261 0.00366637 0.010132 )  
( -1.04113e-06 9.08844e-05 -3.00398e-05 )  
( 5.1989e-05 -5.46948e-05 -2.47186e-06 )  
( -0.000783284 0.0034826 0.00608731 )  
( -3.95925e-05 0.000104762 7.73442e-05 )  
( 0.00107353 0.00119293 -0.000363349 )  
( 0.000209515 0.000974821 0.0120843 )  
( -0.00188572 0.00245522 0.00859259 )  
( -0.000197776 9.33783e-05 -4.80848e-05 )  
( -0.000119892 0.00304321 0.0100409 )  
( 0.0004677 -4.97909e-05 0.0118326 )  
( -0.00194995 0.000536394 0.00994646 )  
( -0.000407892 0.000884551 0.000418434 )  
( -0.000579814 -0.000579235 -0.000418986 )  
( -0.000538746 -0.000618721 -4.31474e-05 )  
( 3.54614e-05 6.49254e-07 7.98754e-08 )  
( 0.000162618 0.000957977 0.010245 )  
( -0.000656326 5.48236e-05 0.00796808 )  
( 0.00182537 -0.000969513 0.0148434 )  
( 0.00101167 0.000334842 0.00284863 )  
( -0.000504799 -3.36257e-05 -0.000137733 )  
( -0.000330001 0.000870143 0.00954004 )  
( -0.00031324 0.000229158 0.00900408 )  
( -0.00037639 -0.000363674 0.000169071 )  
( -0.00120384 0.00307567 0.0111491 )  
( -0.000944716 0.000319353 0.00965049 )  
( 0.000136591 0.000906312 0.00916099 )  
( -0.00104471 0.00086735 0.0114245 )  
( 0.00109272 -0.00168084 0.0110498 )  
( -0.00158329 0.00110828 0.0101069 )  
( 0.000866016 -0.000554168 -0.000683049 )  
( 0.00121312 2.77142e-05 -0.000704917 )  
( -0.000429169 0.000797546 0.0116116 )  
( -7.20657e-05 0.00105738 0.00486273 )  
( 0.00122425 0.000123798 0.00836099 )  
( -0.000459873 0.00150797 0.00867191 )  
( 0.00159319 0.00155237 0.00912759 )  
( -6.92727e-05 1.26206e-05 -2.56143e-05 )  
( -0.00139582 0.00183504 0.0134162 )  
( -0.00193055 0.000159718 0.0054446 )  
( -6.24189e-05 0.000368856 0.00032281 )  
( 0.000332232 -0.00264289 0.0113692 )  
( 0.000314182 0.00177998 0.00185753 )  
( 0.00104096 0.00138827 0.00574589 )  
( 0.00036755 0.00115111 1.71002e-05 )  
( -0.00103379 0.00130333 -0.000923469 )  
( -0.000684365 0.00183493 0.0113879 )  
( 0.00012228 0.00184109 -4.31309e-05 )  
( -0.000216436 -0.000218096 0.00761923 )  
( 0.00172712 -0.000746587 -0.00329521 )  
( 0.000783949 0.0025076 0.0099242 )  
( 0.000658627 0.00241788 0.000312939 )  
( 0.00284755 0.00113736 0.00799535 )  
( 1.24116e-05 2.20325e-05 -3.11259e-05 )  
( 0.00102699 0.00168071 0.00862255 )  
( -0.000278423 0.000444758 8.48389e-05 )  
( 0.000387615 -0.00120515 0.00973161 )  
( -0.00169156 0.00081871 0.0096105 )  
( -0.000221014 6.75964e-05 5.49797e-05 )  
( 0.000175679 -9.95334e-05 0.0110713 )  
( -0.000678182 4.56461e-05 0.0115846 )  
( -0.000178031 0.000108061 1.15545e-05 )  
( -0.000205684 0.00090237 0.00590462 )  
( -0.00118522 0.00122185 0.00992136 )  
( -0.000140166 0.000561659 -0.000786043 )  
( 0.000442884 -0.00104241 0.00923716 )  
( -0.000821204 0.00101327 0.00786879 )  
( -0.000170751 5.98424e-05 1.04862e-05 )  
( -0.00135386 0.000994759 -0.00032408 )  
( -0.00101865 0.0010917 0.013265 )  
( -0.000767578 0.000937616 0.0078398 )  
( -0.00108246 0.00112045 0.0084985 )  
( 0.00121157 0.00107113 0.00177896 )  
( -0.000568703 0.00148585 0.00572284 )  
( 0.00184136 0.00253638 0.01091 )  
( -0.000181889 -5.83081e-05 2.86582e-05 )  
( -0.000306724 0.000495259 0.00913741 )  
( -0.000178841 0.000184697 0.00215779 )  
( -0.00044453 0.000205713 -5.5713e-05 )  
( 0.000359833 0.000206015 0.0099046 )  
( -0.000984542 0.00101868 0.0110715 )  
( 0.00052696 0.0032822 0.00782304 )  
( 0.000850786 0.00176559 0.00714793 )  
( -0.000237222 0.000156572 0.000367017 )  
( -0.00237828 -0.000643683 0.00152958 )  
( 0.00127408 0.000503697 0.0105216 )  
( -0.00127735 0.00170685 0.00906477 )  
( -2.31701e-05 0.000157072 8.08463e-05 )  
( -0.000208343 -1.40637e-05 -6.9461e-06 )  
( -0.000867412 0.000675183 0.00845882 )  
( 0.00180082 0.00144119 0.0110609 )  
( -0.00341164 7.03397e-05 0.0114603 )  
( -0.000155446 -9.45504e-05 -2.71193e-06 )  
( -0.000910137 -0.00161636 0.0082868 )  
( 0.000187715 7.04627e-05 -0.000431197 )  
( -1.42527e-05 -0.000172798 -3.92957e-05 )  
( -7.49157e-05 0.000147576 6.60656e-05 )  
( -0.000779416 -0.00111646 0.0124311 )  
( 0.00170918 0.00249172 0.00791574 )  
( 0.000647297 0.00137863 0.00747693 )  
( 0.000967307 0.0021778 0.0080892 )  
( 0.000499594 0.0012758 0.0130668 )  
( -0.00311234 -0.000204413 0.0157879 )  
( 0.000616544 -0.000294253 0.0106756 )  
( -0.000835654 0.00121161 0.00791381 )  
( -0.000111124 -3.72187e-05 -1.8801e-05 )  
( -0.000756952 0.000638838 -0.00010058 )  
( -0.00107126 -0.00106782 0.00957342 )  
( -0.000300654 0.000369386 0.00727161 )  
( -0.000147002 -8.3502e-05 -8.24864e-06 )  
( -0.000158038 -0.000124005 3.93039e-05 )  
( 0.00036197 0.0028906 0.00819112 )  
( 0.00199853 0.00256232 0.012167 )  
( 0.000355794 0.000614219 0.0111853 )  
( 0.000472309 0.00218576 0.00616648 )  
( -2.80031e-06 0.000888248 0.0104693 )  
( -0.000263894 0.00134933 0.00800644 )  
( -0.000136472 -0.000168097 -7.42389e-05 )  
( 0.00252437 1.49159e-05 0.0108036 )  
( -0.000138844 0.00014864 -6.50872e-05 )  
( 0.000447173 -0.000488104 0.00903942 )  
( -0.000454528 0.00014979 0.0100177 )  
( 0.000642295 0.00108358 0.00900918 )  
( -0.000182955 -0.0017514 0.0101644 )  
( 0.00176602 0.000484446 0.00773561 )  
( -0.000594888 0.00259312 0.00884206 )  
( -0.00251358 0.00122471 0.00813026 )  
( -0.00137045 0.000753147 0.00846098 )  
( -0.000325908 0.000275222 -0.000113606 )  
( -0.000620388 0.00134731 0.00932631 )  
( 0.000697066 0.00178851 0.00132493 )  
( -0.000889681 0.0052732 0.0132689 )  
( -0.000155053 -0.000464266 0.00601491 )  
( 3.79277e-05 0.00156343 -0.00385514 )  
( 0.000155232 0.00126193 0.00904809 )  
( -0.00144714 0.00213149 0.0100328 )  
( -0.00130031 0.00138084 2.25997e-05 )  
( -0.00104605 -2.7024e-05 -0.000300449 )  
( -0.000534666 -7.69959e-05 0.000105691 )  
( -0.000947581 -0.00187963 0.0114283 )  
( 0.00141104 0.0012321 0.00713842 )  
( -0.000820198 0.001228 -8.36489e-05 )  
( -0.000316415 -0.00069455 0.000858168 )  
( 0.000502698 0.00175524 0.0115684 )  
( -0.000328274 0.000249923 -1.4268e-05 )  
( 0.00103644 -0.000599806 0.00843268 )  
( -0.00129101 0.000604086 0.0121244 )  
( -0.000937611 0.000990236 0.0119313 )  
( -0.000517272 0.00157472 0.0118527 )  
( 6.15685e-05 3.37167e-05 -1.19068e-05 )  
( 0.000164302 0.00114478 0.0101078 )  
( -0.00150784 0.000768001 -0.000997371 )  
( -0.000112058 0.000895159 1.2399e-05 )  
( -0.00107172 0.000743534 0.00787667 )  
( 0.000384565 0.000500646 0.00290765 )  
( 0.00152786 0.00073025 0.00815971 )  
( -0.00068118 0.00102834 -0.000300136 )  
( -6.44841e-05 3.25114e-05 -4.30505e-05 )  
( 0.00199704 0.00171068 0.00845968 )  
( -0.00117819 0.000979388 0.00939151 )  
( -0.000209515 0.00270361 0.00913331 )  
( -0.000386246 0.000462841 0.00224645 )  
( -8.47479e-05 -8.28793e-05 -5.35518e-05 )  
( -0.000366999 -0.000388208 0.0117014 )  
( -0.000386629 0.00104396 0.00999219 )  
( 0.00049274 0.00119126 0.0119801 )  
( 0.000483421 0.000944126 0.00878786 )  
( 0.00100863 0.00261129 0.0109109 )  
( -0.00123952 0.00107843 0.019659 )  
( -0.00029563 2.04057e-05 0.00871254 )  
( -5.87832e-05 0.00134402 0.00996642 )  
( 7.32533e-05 0.00140386 0.00851405 )  
( 0.000280667 -5.57423e-05 3.08292e-05 )  
( -0.000899573 0.000878406 0.010444 )  
( -0.000114811 0.00136303 0.0114081 )  
( -0.000132854 0.0022931 0.00562678 )  
( -3.35921e-05 0.000726042 0.0103548 )  
( -0.00149568 0.00150445 0.0117077 )  
( 0.000251002 0.00183823 0.00905416 )  
( -0.00259331 0.000882604 0.0110112 )  
( -0.000412768 5.97556e-06 0.00609947 )  
( -4.54868e-05 0.000150409 -0.000154583 )  
( 0.00083508 0.00196305 0.0107308 )  
( 0.000107637 2.60226e-05 7.98158e-05 )  
( 0.000119496 -0.000198243 9.3273e-06 )  
( 0.00142559 0.000247174 0.00877113 )  
( -0.000226076 0.000269954 0.000187009 )  
( 0.0024204 0.00156319 8.74594e-05 )  
( -0.000106627 0.00169961 0.0112543 )  
( -0.000915358 0.000568857 0.0110776 )  
( -4.59725e-06 3.2724e-05 -4.40093e-05 )  
( -0.000535368 3.55548e-05 -0.000732126 )  
( -4.34829e-05 -0.000148369 0.00978077 )  
( 0.000232499 0.000628023 0.0101176 )  
( 0.000351749 0.000206652 0.00746906 )  
( 0.000415621 0.000464027 0.00984434 )  
( -0.000378931 0.00361171 0.00646911 )  
( -0.000726635 -0.000902749 0.0114851 )  
( -0.000136176 0.0013832 0.0116955 )  
( 0.000185345 0.00101572 -0.000624608 )  
( -0.000440023 0.000292333 -4.00121e-05 )  
( 0.00036199 -0.000665168 0.00830388 )  
( -0.00106955 0.00675397 0.0157335 )  
( -0.00103705 0.00271448 0.00324995 )  
( -0.000424043 0.000449741 0.0112357 )  
( 0.000275841 0.00198186 0.00948275 )  
( 0.000742252 -0.00058454 0.0116954 )  
( -0.000758996 0.000483077 3.49691e-05 )  
( -0.00116586 0.000573774 0.0091537 )  
( -0.000726611 0.000674818 0.00893587 )  
( -0.000110688 0.00120488 0.000189422 )  
( -0.000267126 9.07804e-05 4.00077e-05 )  
( 0.000497135 0.00128583 0.0110644 )  
( -0.000260505 -4.16753e-05 -1.71303e-06 )  
( -0.000797816 0.00105089 0.00787526 )  
( 0.000191877 0.000418899 0.011754 )  
( -6.65325e-05 0.000171789 -3.70041e-05 )  
( -8.27094e-05 0.000705798 -0.000835204 )  
( -0.000834461 0.00391904 0.0075522 )  
( -0.000136341 8.54316e-06 1.96568e-06 )  
( 0.000974663 -0.000314099 0.00675572 )  
( 0.000131715 0.00118982 0.0140455 )  
( 0.000132106 0.000366089 0.00220047 )  
( -0.000617234 0.000565593 0.00796667 )  
( -0.000649612 0.000516408 -3.91394e-05 )  
( 0.000185064 0.00044234 -7.59116e-05 )  
( -0.00100682 0.00077109 0.0104434 )  
( 0.00126135 4.5214e-05 0.011262 )  
( -0.000924934 -1.23318e-05 0.000181012 )  
( -0.000150391 0.000657693 0.000339764 )  
( -0.00018467 0.001125 0.0135206 )  
( 0.000580858 0.000222767 -8.56776e-06 )  
( 0.00117167 0.000247562 0.013645 )  
( -0.000914106 -0.000192442 0.00910106 )  
( -0.00208402 0.000238513 2.54664e-07 )  
( -0.000934982 -0.000960479 0.0105653 )  
( -0.000263437 -0.000415592 -0.000427723 )  
( -0.000566899 0.00229029 0.00825105 )  
( -0.00225068 0.00144347 0.00646023 )  
( -0.000122808 0.000182037 0.00905457 )  
( 0.000563647 -0.000407413 0.00626065 )  
( -0.00168822 0.00128266 0.010735 )  
( -0.000802079 -0.000283506 0.0117451 )  
( -0.000291567 0.000218668 0.000465904 )  
( -0.000360525 0.000173323 -0.000112623 )  
( 0.00121855 0.00171671 0.00659716 )  
( -0.000126963 0.00122323 0.00691806 )  
( 0.000365003 -0.000196912 0.0103158 )  
( -0.000660471 0.00103511 0.00984592 )  
( -0.00335058 0.00190338 0.00859408 )  
( -0.000159765 -6.32357e-05 -3.7524e-06 )  
( 0.000674019 0.00111459 0.0104945 )  
( -0.00143633 0.00212507 0.00948959 )  
( -0.000190652 -0.000338896 -8.94779e-05 )  
( 0.000522442 -0.000330888 0.0106983 )  
( -0.00148786 0.00138414 0.00874411 )  
( 0.00328396 0.00399446 0.00311494 )  
( -0.000943142 0.00171223 0.00890896 )  
( -4.67569e-05 1.40372e-05 -2.44303e-05 )  
( -0.000361211 0.000671465 -3.55187e-05 )  
( 0.000737722 0.00102955 -0.000459906 )  
( 0.00133925 0.000894608 -0.000322106 )  
( -0.000727257 0.000134631 5.7943e-05 )  
( -0.00147632 0.000210659 0.00962592 )  
( -0.000197999 0.000202019 0.0115782 )  
( -0.000626748 -0.000523848 0.011539 )  
( -0.000384852 0.000377131 0.000138865 )  
( -0.00021756 -4.69932e-05 -1.1692e-06 )  
( 0.000836379 0.000435479 0.009451 )  
( 0.000927931 0.000499981 0.0115348 )  
( 0.000561895 0.00119084 4.74045e-05 )  
( 5.57026e-05 0.00202702 0.0086386 )  
( -9.32684e-05 0.000472428 2.12937e-05 )  
( -0.00013037 0.000286945 0.00898155 )  
( -8.24339e-06 0.000308875 0.000140852 )  
( 0.000349263 0.000477036 0.00988297 )  
( -0.000119727 0.000742121 0.00415142 )  
( -0.000864556 0.00049166 0.00117981 )  
( -1.90243e-05 -0.000246017 -0.000126341 )  
( -0.000484721 0.000510389 0.000424215 )  
( 0.000877791 0.00176172 0.00958605 )  
( 0.000128534 0.000284052 0.000376689 )  
( -3.0561e-05 1.79873e-05 2.31983e-05 )  
( -0.00102901 -0.000316867 0.012576 )  
( 0.000338664 0.00126774 0.0105843 )  
( -0.000411558 0.000430433 3.81959e-05 )  
( -0.00152781 -0.000583489 0.0131777 )  
( 9.62044e-05 0.000104244 0.00958621 )  
( -0.00180769 -0.000301258 0.0101709 )  
( 0.000768437 0.000118396 0.0114614 )  
( 0.000247627 -0.000221161 0.0110917 )  
( -0.000302351 0.000841994 0.00408411 )  
( -7.35525e-05 0.000106716 0.000444232 )  
( 0.000934461 0.00146593 0.010446 )  
( 0.00117753 0.00302625 0.0080204 )  
( -0.000532254 0.00286035 0.00384604 )  
( -0.00113776 -0.000264144 0.00588318 )  
( 0.00103667 0.00149712 0.00942666 )  
( -0.00214091 -0.00058303 0.00641227 )  
( -0.0010298 0.000802047 0.00281195 )  
( -0.00168572 -0.00210568 0.0106883 )  
( -0.000288703 0.00146454 0.00976416 )  
( -0.000167762 0.000119735 -2.34505e-05 )  
( -0.00165637 -0.000945981 0.00647555 )  
( -0.000338926 0.00056356 0.0101535 )  
( -0.00032598 0.000882732 0.0122544 )  
( -0.00111584 0.000656407 0.00761497 )  
( 0.00111807 0.00214833 0.0106899 )  
( -0.0016639 0.00192047 0.00910739 )  
( -0.000879102 0.000729001 0.00779967 )  
( 0.000720935 0.000226534 0.0104722 )  
( 0.00438949 0.000863666 0.00553721 )  
( 0.00159573 0.00332103 0.00579402 )  
( 0.000964932 -0.00140679 0.00879111 )  
( -0.000561878 0.000181394 0.00797168 )  
( -3.3968e-05 0.000944342 -4.10479e-05 )  
( -8.53271e-05 -9.51335e-05 -5.22556e-05 )  
( -6.88099e-05 5.41437e-05 -0.000103173 )  
( -0.00145274 0.000668486 0.00638482 )  
( -0.000164294 0.000277051 0.00711111 )  
( -0.000358069 0.00114414 0.00606164 )  
( -4.16423e-05 0.000218276 -5.97764e-05 )  
( -0.000905814 0.000942426 0.010286 )  
( -0.000550402 0.00194704 0.00197445 )  
( 0.0010539 0.0020618 0.0116163 )  
( -0.000381723 0.000772277 -0.000109057 )  
( -0.00150836 -0.000619781 0.0118237 )  
( 0.000374471 0.000241148 0.00930843 )  
( -0.000626823 -0.00024571 1.91746e-05 )  
( -0.00172761 0.00167893 0.00782265 )  
( -0.000231506 -2.77148e-05 0.00791301 )  
( 0.000527267 0.00092409 -0.00064491 )  
( -0.00187439 -0.000343955 0.00966718 )  
( 4.80233e-05 0.000851945 0.00937348 )  
( -0.000884839 0.00039077 0.00027197 )  
( -0.00188717 -0.000592789 0.00878784 )  
( -0.00425221 -0.00249717 0.0138809 )  
( -0.000692179 0.000177109 0.0111265 )  
( -0.000454859 0.000255677 0.000156415 )  
( -0.000666253 -0.0024232 0.00773286 )  
( -0.000642986 0.000154108 0.00940905 )  
( -0.000138691 0.000336661 6.12436e-05 )  
( 0.000454403 0.00125868 0.00982318 )  
( -0.000993176 0.000260217 0.00973497 )  
( -0.000145144 0.00181822 0.0114667 )  
( -0.00105182 0.000942728 0.00863332 )  
( -0.000573451 0.00143365 0.0096522 )  
( -0.00188319 0.000562644 0.00929006 )  
( -0.00103822 0.000221936 0.0100221 )  
( -0.00154105 -0.00183893 -0.000745923 )  
( -0.00216422 2.46933e-05 0.00581959 )  
( -0.00013336 9.63483e-05 4.54366e-06 )  
( -0.000457139 0.00329671 0.0105971 )  
( 0.00100189 0.00147313 0.00603672 )  
( -7.59452e-06 0.000208148 0.00095617 )  
( 0.00115933 0.00088271 0.00789894 )  
( -0.00187765 0.000839872 0.011877 )  
( -0.000441011 0.000322785 1.58107e-05 )  
( -0.000970274 -0.00019914 0.000510368 )  
( -0.0022068 -0.00094602 0.0101709 )  
( -0.000103677 0.00261601 0.00703232 )  
( -0.000345026 0.000600713 -8.10295e-06 )  
( 7.26629e-05 0.000442478 -9.49862e-05 )  
( 0.00152777 0.00176173 0.00644673 )  
( -0.00157671 0.000266266 0.0109924 )  
( 0.00151416 0.00107762 0.0109425 )  
( -9.6032e-05 7.97836e-05 0.00424098 )  
( -0.000640304 -0.000671098 0.00925804 )  
( -0.000456016 0.000226923 0.0100644 )  
( 0.000326396 -3.36723e-05 -0.000221717 )  
( -8.79267e-05 0.000757792 0.000489748 )  
( -0.00202375 0.00142872 0.00914338 )  
( -0.000214779 0.000222412 0.00593101 )  
( -0.000149964 1.72869e-05 3.20352e-05 )  
( -0.000743449 0.000315848 0.000538772 )  
( -0.000486578 6.14826e-05 0.00991179 )  
( -0.00157791 0.000218082 0.0107823 )  
( 0.00650816 -0.0052742 -0.00460546 )  
( -0.000167276 -0.000261081 4.23781e-05 )  
( -0.00115016 0.000916963 0.00938066 )  
( -0.00100066 0.000288875 0.0074966 )  
( -0.00013775 -7.44815e-05 5.55085e-05 )  
( 0.00028594 -0.000550422 0.00822354 )  
( -0.000115838 -0.000218446 -5.12398e-05 )  
( -0.00219017 0.00106936 0.0101706 )  
( -0.000217627 0.000476681 -0.000336335 )  
( -0.000159399 0.000331203 0.000227657 )  
( 0.000445228 0.000441121 -7.04454e-05 )  
( -0.00237878 0.00041569 0.00768213 )  
( -0.000800324 0.00131502 0.0110786 )  
( -0.000619225 0.000788951 0.0111103 )  
( 0.000402072 0.00480165 0.00790489 )  
( -0.00147904 -3.79061e-05 0.00233918 )  
( 0.00139509 0.000735759 0.00998991 )  
( 6.98879e-05 -0.000186398 0.00988548 )  
( -0.00122361 0.0019625 0.011438 )  
( -0.00136402 0.00029356 0.0119025 )  
( -0.000584933 0.000365233 0.00732972 )  
( -4.08668e-05 5.41467e-05 2.51114e-05 )  
( -0.000590305 -0.000123404 0.0123288 )  
( -0.000930381 0.00162722 0.00993595 )  
( -0.00114685 0.00241508 0.00576405 )  
( -0.00123938 -0.00124702 0.00840357 )  
( -0.00118201 0.000765453 0.00790984 )  
( -0.000531092 -0.000571104 0.0106505 )  
( -0.000240441 0.000348436 2.34234e-05 )  
( 0.000590996 0.000498481 0.0114202 )  
( -0.00072813 0.000637553 0.0109201 )  
( -0.00136807 0.00198203 0.00846936 )  
( 0.0017273 3.88864e-05 0.0101538 )  
( -0.000514116 0.00201647 0.0139349 )  
( -0.000104731 0.000402957 0.000208943 )  
( 0.000332954 0.00123806 0.0102592 )  
( 0.000153785 0.000128442 0.00961943 )  
( -0.000345982 0.000527474 0.0130595 )  
( 0.000492939 -0.00218624 0.0100692 )  
( -0.000406215 0.000525465 0.00940531 )  
( -0.00121115 0.00128397 0.011545 )  
( -0.000869725 0.0014533 0.00558108 )  
( 0.000281307 -0.000782148 -0.00189064 )  
( -0.000259656 0.000490301 -0.000344574 )  
( -0.000370318 0.000250768 -3.21098e-05 )  
( -0.000349746 0.000232489 -3.80008e-06 )  
( 1.34076e-05 -3.80423e-06 1.16804e-06 )  
( -0.00125823 0.00191668 -0.00062812 )  
( 0.00055113 0.00125575 0.0100157 )  
( 0.0018162 0.00167986 0.00876504 )  
( -0.000143517 0.000763786 -0.000217646 )  
( -0.0002743 0.000988027 0.000308151 )  
( -5.01052e-05 0.000351154 0.0113016 )  
( -0.000171998 2.05587e-05 4.74792e-05 )  
( -0.00553767 -0.00211931 0.0099712 )  
( 0.00301351 0.000840634 0.0114552 )  
( -0.0029518 0.00392789 0.0101992 )  
( -0.000379148 -0.000241145 0.0105237 )  
( -0.000145324 0.000428266 0.0109418 )  
( 0.000443643 0.000981819 0.0122271 )  
( -0.00116859 0.00335601 0.0070273 )  
( -0.000192731 0.00106744 0.0118368 )  
( 0.000490506 0.00147531 0.00963381 )  
( -0.00227338 0.00131076 0.0156783 )  
( 0.000866732 0.000455423 0.00994095 )  
( -0.000449917 -0.000240842 4.09701e-05 )  
( -0.000875241 0.000709036 0.00106199 )  
( 0.000100894 -0.000141551 -0.000100407 )  
( -0.000858061 -0.000786768 -0.000414945 )  
( -0.000213508 8.61249e-05 -5.5248e-05 )  
( -0.00107014 0.000451667 0.00678441 )  
( -0.000423377 0.00124357 0.00756951 )  
( -0.000114693 0.000100694 -3.81016e-05 )  
( -0.000303732 0.000651259 0.012744 )  
( 0.000442911 0.00145494 0.0104241 )  
( 0.000335915 0.00188398 0.0100945 )  
( -0.000373045 0.00202934 0.0091478 )  
( -0.000925443 0.0015468 0.00687722 )  
( -0.00192265 0.000776455 0.0106118 )  
( -0.00080999 -0.000853696 0.0104907 )  
( 0.000101057 0.00018522 1.3379e-05 )  
( 2.54114e-05 -0.000118559 5.21056e-06 )  
( -0.000619598 0.00108057 0.00891774 )  
( -0.000296927 -0.00149465 0.0119265 )  
( 0.00471381 0.00107091 0.00892357 )  
( -0.000484943 -0.000275383 0.00887576 )  
( 0.000688036 0.00450137 0.00577626 )  
( -0.000171864 7.44378e-05 -1.14284e-05 )  
( -0.000151316 0.00115527 0.00651539 )  
( 8.26984e-05 -5.79831e-05 0.00971167 )  
( 0.000315561 0.00074228 1.07952e-06 )  
( -0.00499248 -0.00115979 0.0150237 )  
( -0.000268722 0.000312065 -8.93327e-05 )  
( 0.00167381 0.000266968 0.0075934 )  
( -5.96606e-05 -0.000141927 1.54519e-05 )  
( -0.00114516 0.000617147 0.000607674 )  
( 0.000956632 -0.000969221 0.00742391 )  
( 0.000387975 0.000582196 0.0112451 )  
( 0.000244568 0.00339993 0.00449295 )  
( -0.000654075 0.000754388 -1.33551e-05 )  
( -0.000296079 -7.2549e-05 6.81949e-05 )  
( -0.00295735 0.000443989 0.0127031 )  