ITEM: TIMESTEP
10000
ITEM: NUMBER OF ATOMS
1000
ITEM: BOX BOUNDS pp ff ff
0 0.4
0 0.1
0 0.1
ITEM: ATOMS id type type x y z vx vy vz fx fy fz f_dragforce[1] f_dragforce[2] f_dragforce[3] radius 
228 1 1 0.0342479 0.00484432 0.0876718 0 0 -0.128561 0 0 1.0273e-05 0 0 0 0.0005 
449 1 1 0.163534 0.0184453 0.0880263 0 0 -0.18396 0 0 1.0273e-05 0 0 0 0.0005 
1 1 1 0.0287104 0.0356584 0.0885847 0 0 -0.172955 0 0 1.0273e-05 0 0 0 0.0005 
285 1 1 0.120685 0.0485395 0.0886817 0 0 -0.236891 0 0 1.0273e-05 0 0 0 0.0005 
134 1 1 0.0798419 0.00201192 0.0891369 0 0 -0.122403 0 0 1.0273e-05 0 0 0 0.0005 
115 1 1 0.0220386 0.00322524 0.0889679 0 0 -0.195381 0 0 1.0273e-05 0 0 0 0.0005 
246 1 1 0.0948119 0.00368946 0.0892235 0 0 -0.166896 0 0 1.0273e-05 0 0 0 0.0005 
323 1 1 0.153936 0.00317859 0.0892922 0 0 -0.0561516 0 0 1.0273e-05 0 0 0 0.0005 
31 1 1 0.0646222 0.00457085 0.0892699 0 0 -0.0578346 0 0 1.0273e-05 0 0 0 0.0005 
311 1 1 0.133742 0.00501677 0.0890727 0 0 -0.104229 0 0 1.0273e-05 0 0 0 0.0005 
501 1 1 0.169376 0.0083073 0.0892475 0 0 -0.0693554 0 0 1.0273e-05 0 0 0 0.0005 
4 1 1 0.0923906 0.00891957 0.0894203 0 0 -0.139419 0 0 1.0273e-05 0 0 0 0.0005 
373 1 1 0.194211 0.00881811 0.0893446 0 0 -0.188293 0 0 1.0273e-05 0 0 0 0.0005 
21 1 1 0.0830791 0.0102947 0.0893206 0 0 -0.048881 0 0 1.0273e-05 0 0 0 0.0005 
155 1 1 0.0624449 0.011526 0.0892862 0 0 -0.0983651 0 0 1.0273e-05 0 0 0 0.0005 
132 1 1 0.0971452 0.0194986 0.0893148 0 0 -0.126182 0 0 1.0273e-05 0 0 0 0.0005 
365 1 1 0.196889 0.0192257 0.0889018 0 0 -0.0418873 0 0 1.0273e-05 0 0 0 0.0005 
419 1 1 0.115376 0.020534 0.0889365 0 0 -0.118827 0 0 1.0273e-05 0 0 0 0.0005 
146 1 1 0.0391814 0.0213972 0.0892714 0 0 -0.0574595 0 0 1.0273e-05 0 0 0 0.0005 
32 1 1 0.064296 0.0231697 0.089151 0 0 -0.137326 0 0 1.0273e-05 0 0 0 0.0005 
429 1 1 0.138587 0.0244728 0.0888664 0 0 -0.123559 0 0 1.0273e-05 0 0 0 0.0005 
71 1 1 0.0143884 0.0255734 0.0891749 0 0 -0.134003 0 0 1.0273e-05 0 0 0 0.0005 
227 1 1 0.0554368 0.0261564 0.0892563 0 0 -0.15001 0 0 1.0273e-05 0 0 0 0.0005 
219 1 1 0.0375814 0.0298821 0.0894725 0 0 -0.0168138 0 0 1.0273e-05 0 0 0 0.0005 
284 1 1 0.150344 0.0301615 0.0889368 0 0 -0.052428 0 0 1.0273e-05 0 0 0 0.0005 
238 1 1 0.00686217 0.0324704 0.0893846 0 0 -0.00458229 0 0 1.0273e-05 0 0 0 0.0005 
58 1 1 0.0514745 0.032082 0.0893623 0 0 -0.219573 0 0 1.0273e-05 0 0 0 0.0005 
185 1 1 0.0206719 0.0329809 0.0891338 0 0 -0.151967 0 0 1.0273e-05 0 0 0 0.0005 
147 1 1 0.0641181 0.0326592 0.0887492 0 0 -0.241437 0 0 1.0273e-05 0 0 0 0.0005 
484 1 1 0.125658 0.0330824 0.0892993 0 0 -0.108393 0 0 1.0273e-05 0 0 0 0.0005 
337 1 1 0.16936 0.0350692 0.0893849 0 0 -0.170843 0 0 1.0273e-05 0 0 0 0.0005 
352 1 1 0.174299 0.0371635 0.0892284 0 0 -0.187006 0 0 1.0273e-05 0 0 0 0.0005 
260 1 1 0.138915 0.0414598 0.0892951 0 0 -0.118932 0 0 1.0273e-05 0 0 0 0.0005 
188 1 1 0.0391351 0.0432808 0.0892403 0 0 -0.0769415 0 0 1.0273e-05 0 0 0 0.0005 
109 1 1 0.0904769 0.0446793 0.0888131 0 0 -0.0506472 0 0 1.0273e-05 0 0 0 0.0005 
369 1 1 0.177393 0.0445486 0.0894604 0 0 -0.00817355 0 0 1.0273e-05 0 0 0 0.0005 
63 1 1 0.0234632 0.0461479 0.0890968 0 0 -0.17684 0 0 1.0273e-05 0 0 0 0.0005 
354 1 1 0.112022 0.0468558 0.0894541 0 0 -0.189632 0 0 1.0273e-05 0 0 0 0.0005 
278 1 1 0.157776 0.0486288 0.0891772 0 0 -0.213704 0 0 1.0273e-05 0 0 0 0.0005 
492 1 1 0.180931 0.000856838 0.090085 0 0 -0.213544 0 0 1.0273e-05 0 0 0 0.0005 
128 1 1 0.0231694 0.00753439 0.0895813 0 0 0.00417189 0 0 1.0273e-05 0 0 0 0.0005 
446 1 1 0.109895 0.00946238 0.0899272 0 0 0.0348455 0 0 1.0273e-05 0 0 0 0.0005 
393 1 1 0.149301 0.00983526 0.0899082 0 0 -0.216052 0 0 1.0273e-05 0 0 0 0.0005 
181 1 1 0.0837042 0.0160309 0.0895964 0 0 0.00876211 0 0 1.0273e-05 0 0 0 0.0005 
12 1 1 0.020439 0.0184885 0.0900244 0 0 0.0514282 0 0 1.0273e-05 0 0 0 0.0005 
346 1 1 0.150546 0.0214674 0.0898992 0 0 -0.205074 0 0 1.0273e-05 0 0 0 0.0005 
271 1 1 0.166105 0.0213381 0.089493 0 0 -0.0095475 0 0 1.0273e-05 0 0 0 0.0005 
49 1 1 0.0759994 0.0226156 0.0899958 0 0 -0.218459 0 0 1.0273e-05 0 0 0 0.0005 
112 1 1 0.00627855 0.0236693 0.0894743 0 0 -0.152791 0 0 1.0273e-05 0 0 0 0.0005 
397 1 1 0.15145 0.0239862 0.0900658 0 0 0.0471461 0 0 1.0273e-05 0 0 0 0.0005 
61 1 1 0.03153 0.0248071 0.0898655 0 0 0.0280715 0 0 1.0273e-05 0 0 0 0.0005 
300 1 1 0.123278 0.0300649 0.0899414 0 0 -0.217613 0 0 1.0273e-05 0 0 0 0.0005 
349 1 1 0.196902 0.0304993 0.090017 0 0 -0.208441 0 0 1.0273e-05 0 0 0 0.0005 
482 1 1 0.145471 0.0314929 0.0897829 0 0 -0.21901 0 0 1.0273e-05 0 0 0 0.0005 
453 1 1 0.181313 0.032344 0.089682 0 0 -0.174226 0 0 1.0273e-05 0 0 0 0.0005 
481 1 1 0.142627 0.0332794 0.0897587 0 0 -0.0144071 0 0 1.0273e-05 0 0 0 0.0005 
272 1 1 0.121618 0.0338686 0.0895385 0 0 -0.00387707 0 0 1.0273e-05 0 0 0 0.0005 
51 1 1 0.0241705 0.0341179 0.0897841 0 0 -0.058974 0 0 1.0273e-05 0 0 0 0.0005 
189 1 1 0.0695327 0.035783 0.0895665 0 0 -0.186827 0 0 1.0273e-05 0 0 0 0.0005 
237 1 1 0.0764406 0.0365524 0.0901911 0 0 0.0552951 0 0 1.0273e-05 0 0 0 0.0005 
116 1 1 0.0619647 0.0399894 0.0898255 0 0 -0.209532 0 0 1.0273e-05 0 0 0 0.0005 
213 1 1 0.0712287 0.0400209 0.0896915 0 0 0.0155523 0 0 1.0273e-05 0 0 0 0.0005 
333 1 1 0.145091 0.0396979 0.089826 0 0 -0.201464 0 0 1.0273e-05 0 0 0 0.0005 
350 1 1 0.189424 0.0411871 0.0896802 0 0 0.00951227 0 0 1.0273e-05 0 0 0 0.0005 
223 1 1 0.0825991 0.0423176 0.0895155 0 0 0.013529 0 0 1.0273e-05 0 0 0 0.0005 
309 1 1 0.144585 0.0417346 0.0897748 0 0 0.0277887 0 0 1.0273e-05 0 0 0 0.0005 
194 1 1 0.0283003 0.0427339 0.0895218 0 0 -0.00742998 0 0 1.0273e-05 0 0 0 0.0005 
280 1 1 0.191792 0.0445249 0.0895885 0 0 -0.000191909 0 0 1.0273e-05 0 0 0 0.0005 
203 1 1 0.053183 0.046213 0.0899633 0 0 -0.20837 0 0 1.0273e-05 0 0 0 0.0005 
207 1 1 0.0689265 0.047637 0.0900394 0 0 0.0434877 0 0 1.0273e-05 0 0 0 0.0005 
136 1 1 0.0374813 0.0481409 0.0898884 0 0 -0.193713 0 0 1.0273e-05 0 0 0 0.0005 
45 1 1 0.0750015 0.0497546 0.0901961 0 0 -0.0122764 0 0 1.0273e-05 0 0 0 0.0005 
317 1 1 0.1699 0.00329854 0.0903995 0 0 0.0697135 0 0 1.0273e-05 0 0 0 0.0005 
395 1 1 0.130743 0.00384598 0.0904879 0 0 0.0754731 0 0 1.0273e-05 0 0 0 0.0005 
500 1 1 0.184097 0.0109859 0.0905868 0 0 0.0819571 0 0 1.0273e-05 0 0 0 0.0005 
161 1 1 0.054389 0.0162691 0.0907192 0 0 0.0550029 0 0 1.0273e-05 0 0 0 0.0005 
209 1 1 0.0830678 0.0200772 0.0908949 0 0 0.0701915 0 0 1.0273e-05 0 0 0 0.0005 
351 1 1 0.103845 0.0209402 0.0908327 0 0 0.0994221 0 0 1.0273e-05 0 0 0 0.0005 
157 1 1 0.0232423 0.0332863 0.0908099 0 0 0.097238 0 0 1.0273e-05 0 0 0 0.0005 
353 1 1 0.192464 0.0362547 0.0904165 0 0 0.0370879 0 0 1.0273e-05 0 0 0 0.0005 
140 1 1 0.0653862 0.0453935 0.0903645 0 0 0.0103841 0 0 1.0273e-05 0 0 0 0.0005 
302 1 1 0.194291 0.0464886 0.0906661 0 0 0.0505885 0 0 1.0273e-05 0 0 0 0.0005 
96 1 1 0.087883 0.0498091 0.0908884 0 0 0.0996563 0 0 1.0273e-05 0 0 0 0.0005 
129 1 1 0.0340158 0.00325132 0.0913061 0 0 0.121809 0 0 1.0273e-05 0 0 0 0.0005 
53 1 1 0.0223719 0.00472051 0.0914401 0 0 0.0845208 0 0 1.0273e-05 0 0 0 0.0005 
118 1 1 0.0652351 0.00683316 0.0910338 0 0 0.116437 0 0 1.0273e-05 0 0 0 0.0005 
133 1 1 0.070721 0.00717237 0.0914914 0 0 0.130712 0 0 1.0273e-05 0 0 0 0.0005 
498 1 1 0.178409 0.01386 0.0912955 0 0 0.121375 0 0 1.0273e-05 0 0 0 0.0005 
248 1 1 0.0213745 0.0160288 0.0917011 0.220148 -0.0170125 0.0629194 0 0 1.0273e-05 0 0 0 0.0005 
177 1 1 0.0663305 0.0174003 0.091494 0 0 0.133616 0 0 1.0273e-05 0 0 0 0.0005 
126 1 1 0.0757318 0.0246705 0.0913489 0 0 0.0807463 0 0 1.0273e-05 0 0 0 0.0005 
59 1 1 0.0819915 0.0317811 0.091146 0 0 0.122596 0 0 1.0273e-05 0 0 0 0.0005 
131 1 1 0.013181 0.0322268 0.0912866 0 0 0.0747865 0 0 1.0273e-05 0 0 0 0.0005 
234 1 1 0.0842644 0.0324593 0.0911467 0 0 0.113535 0 0 1.0273e-05 0 0 0 0.0005 
179 1 1 0.0916485 0.0355825 0.0910988 0 0 0.0655094 0 0 1.0273e-05 0 0 0 0.0005 
388 1 1 0.124379 0.0407712 0.0915093 0 0 0.108934 0 0 1.0273e-05 0 0 0 0.0005 
65 1 1 0.0884539 0.0451147 0.0910412 0 0 0.108017 0 0 1.0273e-05 0 0 0 0.0005 
36 1 1 0.0115369 0.00131155 0.0923567 0 0 0.132342 0 0 1.0273e-05 0 0 0 0.0005 
450 1 1 0.112394 0.00580366 0.0921673 0 0 0.122495 0 0 1.0273e-05 0 0 0 0.0005 
338 1 1 0.13088 0.00595841 0.0921655 0 0 0.126884 0 0 1.0273e-05 0 0 0 0.0005 
10 1 1 0.0649918 0.0170136 0.091887 0 0 0.148718 0 0 1.0273e-05 0 0 0 0.0005 
236 1 1 0.0714118 0.0174182 0.0918079 0 0 0.145231 0 0 1.0273e-05 0 0 0 0.0005 
192 1 1 0.0384851 0.0191438 0.0920021 0 0 0.156178 0 0 1.0273e-05 0 0 0 0.0005 
406 1 1 0.121231 0.0292283 0.0918583 0 0 0.107004 0 0 1.0273e-05 0 0 0 0.0005 
486 1 1 0.181355 0.029996 0.0922467 0 0 0.126894 0 0 1.0273e-05 0 0 0 0.0005 
493 1 1 0.117578 0.0311744 0.0923068 0 0 0.157545 0 0 1.0273e-05 0 0 0 0.0005 
249 1 1 0.0360583 0.0319718 0.0923677 0 0 0.170205 0 0 1.0273e-05 0 0 0 0.0005 
251 1 1 0.0712045 0.0336555 0.091798 0 0 0.146135 0 0 1.0273e-05 0 0 0 0.0005 
295 1 1 0.140367 0.0452398 0.0923151 0 0 0.138308 0 0 1.0273e-05 0 0 0 0.0005 
274 1 1 0.167347 0.00330511 0.0930082 0 0 0.171981 0 0 1.0273e-05 0 0 0 0.0005 
22 1 1 0.0621296 0.0128783 0.0928098 0 0 0.152931 0 0 1.0273e-05 0 0 0 0.0005 
316 1 1 0.111943 0.0177215 0.0926492 0 0 0.148712 0 0 1.0273e-05 0 0 0 0.0005 
212 1 1 0.0847636 0.0215657 0.0931881 0 0 0.20041 0 0 1.0273e-05 0 0 0 0.0005 
383 1 1 0.159245 0.0251828 0.0931871 0 0 0.167376 0 0 1.0273e-05 0 0 0 0.0005 
401 1 1 0.18734 0.0209113 0.0937042 0 0 0.220925 0 0 1.0273e-05 0 0 0 0.0005 
489 1 1 0.194183 0.028027 0.0938274 0 0 0.192581 0 0 1.0273e-05 0 0 0 0.0005 
11 1 1 0.00156662 0.0301633 0.0932598 0 0 0.204339 0 0 1.0273e-05 0 0 0 0.0005 
407 1 1 0.182629 0.0451924 0.093236 0 0 0.171864 0 0 1.0273e-05 0 0 0 0.0005 
77 1 1 0.0685251 0.00117523 0.094179 0 0 0.206756 0 0 1.0273e-05 0 0 0 0.0005 
229 1 1 0.0778135 0.00310841 0.0944457 -0.455929 0.0198825 -0.0470038 0 0 1.0273e-05 0 0 0 0.0005 
497 1 1 0.105344 0.0152054 0.0941229 0 0 0.232081 0 0 1.0273e-05 0 0 0 0.0005 
175 1 1 0.0159775 0.0332158 0.094362 0 0 0.239667 0 0 1.0273e-05 0 0 0 0.0005 
156 1 1 0.0927114 0.00090215 0.0954881 0 0 0.273454 0 0 1.0273e-05 0 0 0 0.0005 
239 1 1 0.0430893 0.00255608 0.0947811 0 0 0.2526 0 0 1.0273e-05 0 0 0 0.0005 
440 1 1 0.143542 0.00741092 0.0948575 0 0 0.23231 0 0 1.0273e-05 0 0 0 0.0005 
73 1 1 0.0419063 0.0189716 0.0950393 0 0 0.23421 0 0 1.0273e-05 0 0 0 0.0005 
444 1 1 0.100894 0.0218455 0.0947388 0 0 0.239466 0 0 1.0273e-05 0 0 0 0.0005 
69 1 1 0.00701064 0.0278073 0.0953901 0 0 0.24695 0 0 1.0273e-05 0 0 0 0.0005 
303 1 1 0.106856 0.034251 0.0951643 0 0 0.244082 0 0 1.0273e-05 0 0 0 0.0005 
480 1 1 0.105952 0.0392549 0.0950501 0 0 0.245107 0 0 1.0273e-05 0 0 0 0.0005 
431 1 1 0.105893 0.0434974 0.0947541 0 0 0.251826 0 0 1.0273e-05 0 0 0 0.0005 
170 1 1 0.0842889 0.0441397 0.0949944 0 0 0.23414 0 0 1.0273e-05 0 0 0 0.0005 
218 1 1 0.00925932 0.0469831 0.0950072 0.00567194 0.39736 0.11053 0 0 1.0273e-05 0 0 0 0.0005 
208 1 1 0.0757007 0.00182443 0.0957333 0 0 0.280326 0 0 1.0273e-05 0 0 0 0.0005 
315 1 1 0.150224 0.00640563 0.0957066 0 0 0.263361 0 0 1.0273e-05 0 0 0 0.0005 
364 1 1 0.114084 0.0124507 0.0959446 0 0 0.261686 0 0 1.0273e-05 0 0 0 0.0005 
110 1 1 0.0889607 0.0128878 0.0960042 -0.00594964 -0.162385 -0.0167065 0 0 1.0273e-05 0 0 0 0.0005 
417 1 1 0.145673 0.0233333 0.095782 0 0 0.282761 0 0 1.0273e-05 0 0 0 0.0005 
198 1 1 0.0106878 0.0297887 0.0958283 0 0 0.261034 0 0 1.0273e-05 0 0 0 0.0005 
330 1 1 0.11956 0.0369642 0.0958097 0 0 0.257458 0 0 1.0273e-05 0 0 0 0.0005 
394 1 1 0.191712 0.00447203 0.0969842 0 0 0.291224 0 0 1.0273e-05 0 0 0 0.0005 
256 1 1 0.111395 0.013617 0.0965286 0 0 0.281966 0 0 1.0273e-05 0 0 0 0.0005 
366 1 1 0.168777 0.0318251 0.0966966 0.463762 -0.0717656 0.135531 0 0 1.0273e-05 0 0 0 0.0005 
441 1 1 0.173799 0.0386185 0.0965152 0 0 0.285662 0 0 1.0273e-05 0 0 0 0.0005 
468 1 1 0.136521 0.0041568 0.0976857 0 0 0.309699 0 0 1.0273e-05 0 0 0 0.0005 
222 1 1 0.00573044 0.0114574 0.0973308 0 0 0.310343 0 0 1.0273e-05 0 0 0 0.0005 
220 1 1 0.0230209 0.0124033 0.0974949 0 0 0.305481 0 0 1.0273e-05 0 0 0 0.0005 
384 1 1 0.162784 0.0137896 0.0970144 0 0 0.296351 0 0 1.0273e-05 0 0 0 0.0005 
17 1 1 0.0185712 0.0262131 0.0976246 0 0 0.312585 0 0 1.0273e-05 0 0 0 0.0005 
706 1 1 0.196364 0.0369332 0.0972095 -0.302992 0.15434 0.231714 0 0 1.0273e-05 0 0 0 0.0005 
166 1 1 0.0691938 0.0407666 0.0971572 0 0 0.303102 0 0 1.0273e-05 0 0 0 0.0005 
130 1 1 0.059091 0.0431884 0.0974824 0 0 0.326899 0 0 1.0273e-05 0 0 0 0.0005 
327 1 1 0.125812 0.0232561 0.0980648 0 0 0.320321 0 0 1.0273e-05 0 0 0 0.0005 
106 1 1 0.0895427 0.0287718 0.0977862 0.0106317 0.290175 0.0112923 0 0 1.0273e-05 0 0 0 0.0005 
479 1 1 0.102347 0.0413855 0.0980689 0 0 0.323628 0 0 1.0273e-05 0 0 0 0.0005 
375 1 1 0.193624 0.0445985 0.0983419 0 0 0.332109 0 0 1.0273e-05 0 0 0 0.0005 
81 1 1 0.0231988 0.00148629 0.0990801 0 0 0.0314638 0 0 1.0273e-05 0 0 0 0.0005 
47 1 1 0.0624324 0.000944971 0.0992061 0 0 0.0607248 0 0 1.0273e-05 0 0 0 0.0005 
490 1 1 0.156881 0.000908526 0.0991603 0 0 0.355307 0 0 1.0273e-05 0 0 0 0.0005 
29 1 1 0.103059 0.00200746 0.0985526 0.166872 -0.00727711 0.0563656 0 0 1.0273e-05 0 0 0 0.0005 
5 1 1 0.0075923 0.0038425 0.0992044 0 0 0.0535249 0 0 1.0273e-05 0 0 0 0.0005 
241 1 1 0.0943479 0.00521651 0.0990872 0 0 -0.0358724 0 0 1.0273e-05 0 0 0 0.0005 
454 1 1 0.173642 0.00644855 0.0989633 0 0 -0.0157899 0 0 1.0273e-05 0 0 0 0.0005 
412 1 1 0.1528 0.00809685 0.0991607 0 0 0.0564875 0 0 1.0273e-05 0 0 0 0.0005 
329 1 1 0.148391 0.00884039 0.0989911 0 0 0.0130276 0 0 1.0273e-05 0 0 0 0.0005 
187 1 1 0.088666 0.00988114 0.0992218 0 0 -0.0712187 0 0 1.0273e-05 0 0 0 0.0005 
436 1 1 0.117844 0.0112261 0.0989996 0 0 0.00226719 0 0 1.0273e-05 0 0 0 0.0005 
418 1 1 0.112674 0.0125767 0.0990422 0 0 -0.0105185 0 0 1.0273e-05 0 0 0 0.0005 
320 1 1 0.11603 0.0129397 0.0989951 0 0 -0.00685387 0 0 1.0273e-05 0 0 0 0.0005 
111 1 1 0.0367416 0.0153139 0.099158 0 0 0.0460611 0 0 1.0273e-05 0 0 0 0.0005 
415 1 1 0.167645 0.0165869 0.0990277 0 0 -0.0116648 0 0 1.0273e-05 0 0 0 0.0005 
86 1 1 0.0192372 0.0196156 0.0991 0 0 0.0317944 0 0 1.0273e-05 0 0 0 0.0005 
277 1 1 0.136992 0.0205434 0.0991752 0 0 -0.0652708 0 0 1.0273e-05 0 0 0 0.0005 
405 1 1 0.192124 0.0207285 0.0991781 0 0 0.0532903 0 0 1.0273e-05 0 0 0 0.0005 
76 1 1 0.0274541 0.0218883 0.0990501 0 0 0.010505 0 0 1.0273e-05 0 0 0 0.0005 
259 1 1 0.132422 0.0216145 0.0990722 0 0 -0.0364322 0 0 1.0273e-05 0 0 0 0.0005 
174 1 1 0.0910408 0.022317 0.0992298 0 0 0.0585014 0 0 1.0273e-05 0 0 0 0.0005 
124 1 1 0.0936351 0.0257977 0.0989946 0 0 0.00476197 0 0 1.0273e-05 0 0 0 0.0005 
391 1 1 0.173923 0.026452 0.0990146 0 0 0.0174126 0 0 1.0273e-05 0 0 0 0.0005 
62 1 1 0.0788201 0.0286294 0.0991135 0 0 -0.0567948 0 0 1.0273e-05 0 0 0 0.0005 
502 1 1 0.101691 0.0286892 0.0989962 0 0 0.0093453 0 0 1.0273e-05 0 0 0 0.0005 
204 1 1 0.0445381 0.0340591 0.0990008 -0.0525256 -0.038534 0.336683 0 0 1.0273e-05 0 0 0 0.0005 
360 1 1 0.13676 0.0333415 0.0992437 0 0 -0.0729617 0 0 1.0273e-05 0 0 0 0.0005 
68 1 1 0.0546285 0.0414812 0.0991012 0 0 -0.0413346 0 0 1.0273e-05 0 0 0 0.0005 
376 1 1 0.153593 0.0417789 0.0989943 0 0 -0.015307 0 0 1.0273e-05 0 0 0 0.0005 
341 1 1 0.145462 0.0439821 0.0987854 0.140917 -0.144473 0.267664 0 0 1.0273e-05 0 0 0 0.0005 
344 1 1 0.194957 0.0444327 0.0991859 0 0 0.0498876 0 0 1.0273e-05 0 0 0 0.0005 
470 1 1 0.137398 0.0458785 0.0991207 0 0 0.0463343 0 0 1.0273e-05 0 0 0 0.0005 
357 1 1 0.10384 0.0464496 0.0989972 0 0 0.00908102 0 0 1.0273e-05 0 0 0 0.0005 
46 1 1 0.035744 0.048901 0.0990626 0 0 0.0256642 0 0 1.0273e-05 0 0 0 0.0005 
171 1 1 0.0356723 0.00116477 0.0995002 0.385144 -0.011363 0.000296228 -5.33588e-08 1.57426e-09 -1.41234e-06 0 0 0 0.0005 
372 1 1 0.108247 0.00226036 0.0995002 0 0 -2.69545e-06 0 0 -1.48519e-08 0 0 0 0.0005 
371 1 1 0.198715 0.00302211 0.0995002 0 0 4.22894e-09 0 0 -6.51251e-11 0 0 0 0.0005 
25 1 1 0.0303269 0.0034686 0.0995002 0 0 -2.35801e-13 0 0 1.69407e-21 0 0 0 0.0005 
478 1 1 0.156423 0.00906751 0.0995002 0 0 -2.35801e-13 0 0 0 0 0 0 0.0005 
102 1 1 0.050557 0.0111316 0.0994983 0 0 0.00243807 0 0 1.0273e-05 0 0 0 0.0005 
340 1 1 0.101982 0.0131654 0.0993216 0 0 -0.0784843 0 0 1.0273e-05 0 0 0 0.0005 
464 1 1 0.191974 0.0133155 0.0995002 0 0 -2.35805e-13 0 0 2.71051e-20 0 0 0 0.0005 
201 1 1 0.0641289 0.0138866 0.0995002 0 0 -1.14645e-12 0 0 2.64247e-14 0 0 0 0.0005 
495 1 1 0.186976 0.0138749 0.0995002 0 0 -2.35801e-13 0 0 0 0 0 0 0.0005 
469 1 1 0.114287 0.014618 0.0994698 0 0 -0.0069461 0 0 1.0273e-05 0 0 0 0.0005 
107 1 1 0.0616895 0.0158206 0.0995002 0 0 -4.05898e-13 0 0 0 0 0 0 0.0005 
476 1 1 0.131482 0.0156897 0.0995002 0 0 -1.46226e-13 0 0 4.41187e-16 0 0 0 0.0005 
410 1 1 0.158268 0.0155287 0.0995002 0 0 1.42749e-09 0 0 -1.13195e-12 0 0 0 0.0005 
16 1 1 0.0586253 0.0159152 0.0995001 0 0 0.000565113 0 0 4.55429e-06 0 0 0 0.0005 
331 1 1 0.128382 0.0164214 0.0995002 0 0 -4.05898e-13 0 0 0 0 0 0 0.0005 
93 1 1 0.00342237 0.0174161 0.0994673 -0.0315979 0.00244181 -0.010084 0 0 1.0273e-05 0 0 0 0.0005 
398 1 1 0.124753 0.0168972 0.0995002 0 0 -2.6913e-05 0 0 7.71035e-08 0 0 0 0.0005 
98 1 1 0.00884701 0.0180978 0.0995002 -0.00152274 -0.106679 5.45726e-05 3.81646e-11 2.67371e-09 -6.12037e-07 0 0 0 0.0005 
275 1 1 0.107171 0.0178866 0.0995002 -0.142738 -0.0775307 2.43299e-10 1.57332e-14 8.54559e-15 -2.76863e-12 0 0 0 0.0005 
402 1 1 0.136004 0.0181767 0.0995002 0 0 -2.35801e-13 0 0 0 0 0 0 0.0005 
52 1 1 0.0227001 0.0199199 0.0995002 0 0 1.24197e-10 0 0 1.59305e-11 0 0 0 0.0005 
472 1 1 0.194408 0.020324 0.0994818 0 0 -0.0199304 0 0 1.0273e-05 0 0 0 0.0005 
85 1 1 0.0416267 0.0207105 0.0992488 0 0 0.0630126 0 0 1.0273e-05 0 0 0 0.0005 
299 1 1 0.101691 0.0232342 0.0995002 0 0 -2.35801e-13 0 0 0 0 0 0 0.0005 
41 1 1 0.0909576 0.0244531 0.0992851 0 0 0.0671527 0 0 1.0273e-05 0 0 0 0.0005 
235 1 1 0.0862334 0.0252568 0.0995002 0 0 9.43348e-06 0 0 -1.00208e-08 0 0 0 0.0005 
151 1 1 0.0798552 0.0258046 0.0995002 0 0 -6.57036e-14 0 0 0 0 0 0 0.0005 
445 1 1 0.192642 0.0263324 0.0995013 0 0 -0.109394 0 0 0.000797101 0 0 0 0.0005 
370 1 1 0.190279 0.0265656 0.0995002 0 0 -3.38365e-06 0 0 1.26309e-07 0 0 0 0.0005 
291 1 1 0.128567 0.0276661 0.0995006 0 0 -0.0293931 0 0 0.000171354 0 0 0 0.0005 
377 1 1 0.145066 0.0288981 0.0995002 0 0 6.52186e-08 0 0 -5.54214e-10 0 0 0 0.0005 
137 1 1 0.0935402 0.0299455 0.0995002 0 0 9.47917e-09 0 0 -5.47366e-11 0 0 0 0.0005 
487 1 1 0.138789 0.0295884 0.0995002 0 0 1.26955e-10 0 0 -5.92502e-13 0 0 0 0.0005 
216 1 1 0.018506 0.0305747 0.0992864 0 0 0.352432 0 0 1.0273e-05 0 0 0 0.0005 
463 1 1 0.131522 0.0311134 0.0995002 0.267755 0.145436 4.44587e-13 1.9048e-18 7.18476e-19 0 0 0 0 0.0005 
30 1 1 0.0880664 0.0320384 0.0993679 0 0 -0.0898338 0 0 1.0273e-05 0 0 0 0.0005 
99 1 1 0.0960453 0.0336567 0.0993836 0 0 0.351668 0 0 1.0273e-05 0 0 0 0.0005 
268 1 1 0.139081 0.0336211 0.0994461 0 0 -0.0936917 0 0 1.0273e-05 0 0 0 0.0005 
28 1 1 0.0898694 0.0353168 0.0994205 0 0 -0.0946458 0 0 1.0273e-05 0 0 0 0.0005 
362 1 1 0.177934 0.0351739 0.0994985 0 0 -0.102373 0 0 1.0273e-05 0 0 0 0.0005 
304 1 1 0.137933 0.036598 0.0995002 -0.159359 0.0246603 -2.35801e-13 -9.45132e-19 -1.33347e-19 3.38813e-21 0 0 0 0.0005 
390 1 1 0.143353 0.036692 0.0993172 0 0 0.0716573 0 0 1.0273e-05 0 0 0 0.0005 
242 1 1 0.0321436 0.0378166 0.0994596 0 0 0.0875428 0 0 1.0273e-05 0 0 0 0.0005 
343 1 1 0.14725 0.0372582 0.0995002 0 0 -2.35801e-13 0 0 0 0 0 0 0.0005 
252 1 1 0.155937 0.0375554 0.0995002 0 0 2.55939e-10 0 0 -6.57786e-12 0 0 0 0.0005 
232 1 1 0.050774 0.0386339 0.0995002 0.00792441 0.00581354 -4.05898e-13 2.97622e-20 2.93496e-20 0 0 0 0 0.0005 
332 1 1 0.100573 0.038126 0.0994691 0 0 -0.00424086 0 0 1.0273e-05 0 0 0 0.0005 
474 1 1 0.154878 0.0378825 0.0995002 0 0 -2.3682e-07 0 0 -2.32061e-09 0 0 0 0.0005 
253 1 1 0.185443 0.0386442 0.0995002 0 0 1.31624e-09 0 0 -2.05539e-13 0 0 0 0.0005 
6 1 1 0.0947962 0.0400707 0.0995058 0 0 -0.134849 0 0 0.000365785 0 0 0 0.0005 
88 1 1 0.0472625 0.0405482 0.0995002 0 0 -3.56906e-10 0 0 1.94209e-12 0 0 0 0.0005 
439 1 1 0.126973 0.0406667 0.099485 0 0 -0.0193551 0 0 1.0273e-05 0 0 0 0.0005 
172 1 1 0.0968432 0.0442069 0.0994804 0 0 0.0180296 0 0 1.0273e-05 0 0 0 0.0005 
57 1 1 0.0716514 0.0449743 0.0992568 0 0 0.067825 0 0 1.0273e-05 0 0 0 0.0005 
386 1 1 0.127384 0.0469617 0.0994659 0 0 0.00691014 0 0 1.0273e-05 0 0 0 0.0005 
467 1 1 0.186413 0.048973 0.0995002 0 0 1.06819e-08 0 0 4.17043e-11 0 0 0 0.0005 
196 1 1 0.0411227 0.0498421 0.0995002 0 0 -2.36166e-13 0 0 2.00577e-18 0 0 0 0.0005 
288 1 1 0.177853 0.0824369 0.0877205 0 0 -0.141901 0 0 1.0273e-05 0 0 0 0.0005 
82 1 1 0.0571997 0.0559475 0.088096 0 0 -0.191932 0 0 1.0273e-05 0 0 0 0.0005 
100 1 1 0.079965 0.0722799 0.0882235 0 0 -0.203619 0 0 1.0273e-05 0 0 0 0.0005 
142 1 1 0.0270526 0.0729589 0.0881685 0 0 -0.0998754 0 0 1.0273e-05 0 0 0 0.0005 
491 1 1 0.149098 0.0903263 0.0885698 0 0 -0.144511 0 0 1.0273e-05 0 0 0 0.0005 
399 1 1 0.16984 0.0982761 0.0886771 0 0 -0.041539 0 0 1.0273e-05 0 0 0 0.0005 
83 1 1 0.0906796 0.0527227 0.0893527 0 0 -0.154006 0 0 1.0273e-05 0 0 0 0.0005 
408 1 1 0.136845 0.0524438 0.0891594 0 0 -0.0504384 0 0 1.0273e-05 0 0 0 0.0005 
39 1 1 0.0837183 0.0536989 0.0894347 0 0 -0.0842377 0 0 1.0273e-05 0 0 0 0.0005 
496 1 1 0.166773 0.0570248 0.0888715 0 0 -0.115797 0 0 1.0273e-05 0 0 0 0.0005 
169 1 1 0.0285035 0.0586076 0.0892755 0 0 -0.0946841 0 0 1.0273e-05 0 0 0 0.0005 
113 1 1 0.0838138 0.0583762 0.0892341 0 0 -0.0129447 0 0 1.0273e-05 0 0 0 0.0005 
90 1 1 0.0487808 0.0592328 0.0893495 0 0 -0.0282591 0 0 1.0273e-05 0 0 0 0.0005 
7 1 1 0.0184186 0.0613562 0.0893356 0 0 -0.122644 0 0 1.0273e-05 0 0 0 0.0005 
193 1 1 0.0957911 0.0613028 0.0892885 0 0 -0.109567 0 0 1.0273e-05 0 0 0 0.0005 
297 1 1 0.165119 0.060862 0.089438 0 0 -0.168885 0 0 1.0273e-05 0 0 0 0.0005 
230 1 1 0.00589412 0.062553 0.0893646 0 0 -0.0152377 0 0 1.0273e-05 0 0 0 0.0005 
119 1 1 0.0703018 0.0626824 0.0892391 0 0 -0.213296 0 0 1.0273e-05 0 0 0 0.0005 
122 1 1 0.0163363 0.0635218 0.089421 0 0 -0.142809 0 0 1.0273e-05 0 0 0 0.0005 
114 1 1 0.00384148 0.063796 0.0891347 0 0 -0.08348 0 0 1.0273e-05 0 0 0 0.0005 
298 1 1 0.171736 0.0637956 0.0890764 0 0 -0.135258 0 0 1.0273e-05 0 0 0 0.0005 
97 1 1 0.0918823 0.0659859 0.0893876 0 0 -0.0314275 0 0 1.0273e-05 0 0 0 0.0005 
459 1 1 0.155374 0.0696498 0.0892792 0 0 -0.214317 0 0 1.0273e-05 0 0 0 0.0005 
434 1 1 0.164448 0.0694601 0.0892565 0 0 -0.104486 0 0 1.0273e-05 0 0 0 0.0005 
191 1 1 0.0552847 0.0701025 0.089329 0 0 -0.123268 0 0 1.0273e-05 0 0 0 0.0005 
163 1 1 0.0559095 0.071085 0.0893392 0 0 -0.0362124 0 0 1.0273e-05 0 0 0 0.0005 
101 1 1 0.0641145 0.0725542 0.0892332 0 0 -0.0837172 0 0 1.0273e-05 0 0 0 0.0005 
312 1 1 0.108536 0.0725293 0.0889721 0 0 -0.258608 0 0 1.0273e-05 0 0 0 0.0005 
380 1 1 0.168857 0.0724951 0.0893516 0 0 -0.0305769 0 0 1.0273e-05 0 0 0 0.0005 
485 1 1 0.176568 0.0719945 0.0893375 0 0 -0.137897 0 0 1.0273e-05 0 0 0 0.0005 
322 1 1 0.195566 0.0721903 0.089292 0 0 -0.220473 0 0 1.0273e-05 0 0 0 0.0005 
392 1 1 0.199207 0.0723396 0.0892213 0 0 -0.140292 0 0 1.0273e-05 0 0 0 0.0005 
404 1 1 0.125048 0.0748332 0.089156 0 0 -0.0634582 0 0 1.0273e-05 0 0 0 0.0005 
345 1 1 0.183916 0.0753267 0.089143 0 0 -0.113819 0 0 1.0273e-05 0 0 0 0.0005 
324 1 1 0.140892 0.0784088 0.0892735 0 0 -0.0976991 0 0 1.0273e-05 0 0 0 0.0005 
448 1 1 0.167084 0.0785162 0.0892459 0 0 -0.0625827 0 0 1.0273e-05 0 0 0 0.0005 
20 1 1 0.0151829 0.0794021 0.0894581 0 0 -0.143002 0 0 1.0273e-05 0 0 0 0.0005 
70 1 1 0.0527626 0.0805332 0.089268 0 0 -0.0668377 0 0 1.0273e-05 0 0 0 0.0005 
255 1 1 0.165293 0.0806276 0.0890231 0 0 -0.18136 0 0 1.0273e-05 0 0 0 0.0005 
425 1 1 0.130974 0.0812704 0.0894434 0 0 -0.14127 0 0 1.0273e-05 0 0 0 0.0005 
456 1 1 0.197411 0.0816514 0.0891824 0 0 -0.115706 0 0 1.0273e-05 0 0 0 0.0005 
135 1 1 0.0929425 0.0840022 0.0891751 0 0 -0.0397234 0 0 1.0273e-05 0 0 0 0.0005 
422 1 1 0.116213 0.0839248 0.0893285 0 0 -0.0458522 0 0 1.0273e-05 0 0 0 0.0005 
269 1 1 0.187373 0.0850846 0.0891744 0 0 -0.106436 0 0 1.0273e-05 0 0 0 0.0005 
197 1 1 0.025441 0.0869233 0.0891847 0 0 -0.07895 0 0 1.0273e-05 0 0 0 0.0005 
35 1 1 0.0725404 0.0865603 0.0891057 0 0 -0.0804545 0 0 1.0273e-05 0 0 0 0.0005 
276 1 1 0.114297 0.0875416 0.0891397 0 0 -0.142569 0 0 1.0273e-05 0 0 0 0.0005 
301 1 1 0.123198 0.0887974 0.0891814 0 0 -0.0923082 0 0 1.0273e-05 0 0 0 0.0005 
306 1 1 0.160557 0.088916 0.0891191 0 0 -0.154169 0 0 1.0273e-05 0 0 0 0.0005 
211 1 1 0.0621164 0.090053 0.0892182 0 0 -0.0741396 0 0 1.0273e-05 0 0 0 0.0005 
75 1 1 0.0816975 0.0895706 0.0892084 0 0 -0.128305 0 0 1.0273e-05 0 0 0 0.0005 
139 1 1 0.0430293 0.0934076 0.0888934 0 0 -0.250617 0 0 1.0273e-05 0 0 0 0.0005 
23 1 1 0.0994523 0.0953367 0.0893093 0 0 -0.0484064 0 0 1.0273e-05 0 0 0 0.0005 
382 1 1 0.110906 0.0956812 0.0892535 0 0 -0.125195 0 0 1.0273e-05 0 0 0 0.0005 
37 1 1 0.065431 0.0987042 0.089206 0 0 -0.0597772 0 0 1.0273e-05 0 0 0 0.0005 
319 1 1 0.109356 0.0505981 0.089904 0 0 -0.213145 0 0 1.0273e-05 0 0 0 0.0005 
381 1 1 0.127605 0.0506759 0.0894793 0 0 -0.147548 0 0 1.0273e-05 0 0 0 0.0005 
257 1 1 0.149435 0.0521292 0.0900373 0 0 0.0429915 0 0 1.0273e-05 0 0 0 0.0005 
148 1 1 0.0483104 0.0524148 0.0896082 0 0 0.0323693 0 0 1.0273e-05 0 0 0 0.0005 
465 1 1 0.112546 0.0540977 0.0897107 0 0 -0.06739 0 0 1.0273e-05 0 0 0 0.0005 
361 1 1 0.130788 0.05524 0.0898296 0 0 -0.0653275 0 0 1.0273e-05 0 0 0 0.0005 
244 1 1 0.0143307 0.0553893 0.0894796 0 0 -0.0133797 0 0 1.0273e-05 0 0 0 0.0005 
254 1 1 0.119507 0.0554654 0.0896711 0 0 -0.171959 0 0 1.0273e-05 0 0 0 0.0005 
455 1 1 0.136565 0.0560079 0.0901491 0 0 -0.0171513 0 0 1.0273e-05 0 0 0 0.0005 
290 1 1 0.141962 0.056328 0.0898143 0 0 -0.187734 0 0 1.0273e-05 0 0 0 0.0005 
247 1 1 0.0747282 0.0572098 0.0899325 0 0 -0.0200379 0 0 1.0273e-05 0 0 0 0.0005 
127 1 1 0.0255407 0.0631954 0.0897026 0 0 -0.0276956 0 0 1.0273e-05 0 0 0 0.0005 
186 1 1 0.0733839 0.0630116 0.0900803 0 0 0.0497016 0 0 1.0273e-05 0 0 0 0.0005 
428 1 1 0.186533 0.0660874 0.0895372 0 0 0.0109378 0 0 1.0273e-05 0 0 0 0.0005 
355 1 1 0.12043 0.0686441 0.0899025 0 0 -0.218157 0 0 1.0273e-05 0 0 0 0.0005 
477 1 1 0.155993 0.0727157 0.0895388 0 0 0.0182905 0 0 1.0273e-05 0 0 0 0.0005 
483 1 1 0.193388 0.0747728 0.0895684 0 0 -0.169501 0 0 1.0273e-05 0 0 0 0.0005 
427 1 1 0.1763 0.075833 0.0901872 0 0 -0.0131988 0 0 1.0273e-05 0 0 0 0.0005 
38 1 1 0.0405652 0.0788911 0.089832 0 0 -0.0369608 0 0 1.0273e-05 0 0 0 0.0005 
286 1 1 0.108531 0.0801351 0.0895865 0 0 0.00839557 0 0 1.0273e-05 0 0 0 0.0005 
89 1 1 0.0432011 0.0816094 0.0894836 0 0 -0.150754 0 0 1.0273e-05 0 0 0 0.0005 
184 1 1 0.025649 0.0824913 0.0896822 0 0 0.0101208 0 0 1.0273e-05 0 0 0 0.0005 
48 1 1 0.0225493 0.0852625 0.089524 0 0 -0.168957 0 0 1.0273e-05 0 0 0 0.0005 
321 1 1 0.131885 0.0855492 0.0900976 0 0 -0.0191965 0 0 1.0273e-05 0 0 0 0.0005 
120 1 1 0.0472711 0.085948 0.0895383 0 0 -0.0081375 0 0 1.0273e-05 0 0 0 0.0005 
159 1 1 0.0527272 0.0862997 0.0900714 0 0 0.0614064 0 0 1.0273e-05 0 0 0 0.0005 
466 1 1 0.116617 0.0863451 0.089732 0 0 -0.212541 0 0 1.0273e-05 0 0 0 0.0005 
44 1 1 0.0749323 0.0866027 0.0894953 0 0 0.0134766 0 0 1.0273e-05 0 0 0 0.0005 
145 1 1 0.0765448 0.087935 0.0899995 0 0 -0.0311565 0 0 1.0273e-05 0 0 0 0.0005 
289 1 1 0.116504 0.0894226 0.0900339 0 0 -0.0170363 0 0 1.0273e-05 0 0 0 0.0005 
411 1 1 0.183066 0.090409 0.0898937 0 0 -0.19419 0 0 1.0273e-05 0 0 0 0.0005 
153 1 1 0.0704762 0.092897 0.0898573 0 0 -0.0591242 0 0 1.0273e-05 0 0 0 0.0005 
84 1 1 0.0376628 0.0992345 0.0897474 0 0 0.0296669 0 0 1.0273e-05 0 0 0 0.0005 
94 1 1 0.0572888 0.0520277 0.0903993 0 0 0.0113733 0 0 1.0273e-05 0 0 0 0.0005 
178 1 1 0.0733952 0.0546899 0.0907997 -0.00235411 -0.00106491 0.0463004 0 0 1.0273e-05 0 0 0 0.0005 
305 1 1 0.108405 0.0560444 0.0903882 0 0 0.0699905 0 0 1.0273e-05 0 0 0 0.0005 
283 1 1 0.184088 0.0587693 0.0907493 0 0 0.0583268 0 0 1.0273e-05 0 0 0 0.0005 
499 1 1 0.197987 0.0642907 0.0908341 0 0 0.0463107 0 0 1.0273e-05 0 0 0 0.0005 
141 1 1 0.0370485 0.0736081 0.0905812 0 0 0.0333758 0 0 1.0273e-05 0 0 0 0.0005 
378 1 1 0.183434 0.0793914 0.0907251 0 0 0.0363016 0 0 1.0273e-05 0 0 0 0.0005 
374 1 1 0.154155 0.0875429 0.0908635 0 0 0.0475605 0 0 1.0273e-05 0 0 0 0.0005 
494 1 1 0.171042 0.0985148 0.0902347 0 0 0.0599552 0 0 1.0273e-05 0 0 0 0.0005 
160 1 1 0.0935295 0.0511419 0.0916463 0 0 0.109283 0 0 1.0273e-05 0 0 0 0.0005 
293 1 1 0.178685 0.0553423 0.0914267 0 0 0.0856291 0 0 1.0273e-05 0 0 0 0.0005 
258 1 1 0.194548 0.0605188 0.0916286 0 0 0.0947667 0 0 1.0273e-05 0 0 0 0.0005 
281 1 1 0.189705 0.0636543 0.0911494 0 0 0.0781279 0 0 1.0273e-05 0 0 0 0.0005 
199 1 1 0.0861941 0.0650345 0.0910203 0 0 0.0610842 0 0 1.0273e-05 0 0 0 0.0005 
79 1 1 0.0859386 0.0705507 0.0914947 0 0 0.130931 0 0 1.0273e-05 0 0 0 0.0005 
152 1 1 0.00972659 0.0748281 0.0912894 0 0 0.0755911 0 0 1.0273e-05 0 0 0 0.0005 
60 1 1 0.011964 0.0786306 0.0911943 0 0 0.118957 0 0 1.0273e-05 0 0 0 0.0005 
123 1 1 0.0791742 0.0809988 0.0915263 0 0 0.13701 0 0 1.0273e-05 0 0 0 0.0005 
165 1 1 0.0264999 0.0834319 0.091526 0 0 0.10069 0 0 1.0273e-05 0 0 0 0.0005 
367 1 1 0.174802 0.090709 0.0915524 0 0 0.133524 0 0 1.0273e-05 0 0 0 0.0005 
326 1 1 0.199095 0.0905956 0.0914768 0 0 0.0961784 0 0 1.0273e-05 0 0 0 0.0005 
335 1 1 0.193762 0.0548488 0.0923381 0 0 0.131641 0 0 1.0273e-05 0 0 0 0.0005 
261 1 1 0.132063 0.0577185 0.0919125 -0.178289 0.182788 -0.0203032 0 0 1.0273e-05 0 0 0 0.0005 
342 1 1 0.160734 0.0590974 0.0924029 0 0 0.170583 0 0 1.0273e-05 0 0 0 0.0005 
488 1 1 0.121186 0.0695508 0.0919301 0 0 0.110699 0 0 1.0273e-05 0 0 0 0.0005 
262 1 1 0.150501 0.0707887 0.092453 0 0 0.142509 0 0 1.0273e-05 0 0 0 0.0005 
149 1 1 0.0302701 0.0909729 0.0924552 -0.120205 0.295993 -0.0556883 0 0 1.0273e-05 0 0 0 0.0005 
224 1 1 0.0480331 0.0927323 0.0924529 0 0 0.172389 0 0 1.0273e-05 0 0 0 0.0005 
50 1 1 0.0228151 0.053469 0.0930749 0 0 0.196136 0 0 1.0273e-05 0 0 0 0.0005 
64 1 1 0.0423195 0.064393 0.0927522 0 0 0.184907 0 0 1.0273e-05 0 0 0 0.0005 