/*--------------------------------*- C++ -*----------------------------------*\
| =========                 |                                                 |
| \\      /  F ield         | OpenFOAM: The Open Source CFD Toolbox           |
|  \\    /   O peration     | Version:  2506                                  |
|   \\  /    A nd           | Website:  www.openfoam.com                      |
|    \\/     M anipulation  |                                                 |
\*---------------------------------------------------------------------------*/
FoamFile
{
    version     2.0;
    format      ascii;
    arch        "LSB;label=32;scalar=64";
    class       volScalarField;
    location    "0.002";
    object      p;
}
// * * * * * * * * * * * * * * * * * * * * * * * * * * * * * * * * * * * * * //

dimensions      [0 2 -2 0 0 0 0];

internalField   nonuniform List<scalar> 
512
(
-0.242716
-0.306934
-0.312846
-0.274001
-0.247886
-0.235737
-0.23586
-0.243187
-0.251875
-0.256897
-0.256251
-0.251356
-0.245092
-0.240942
-0.241949
-0.249379
-0.261847
-0.275279
-0.285633
-0.292748
-0.299881
-0.310169
-0.323761
-0.337506
-0.348833
-0.356084
-0.356257
-0.347453
-0.330481
-0.30667
-0.277067
-0.241063
-0.24766
-0.298547
-0.302126
-0.267115
-0.244318
-0.234273
-0.235504
-0.243182
-0.251911
-0.25704
-0.256531
-0.251822
-0.245811
-0.242005
-0.243487
-0.251242
-0.263494
-0.276325
-0.286381
-0.293655
-0.300675
-0.310101
-0.322381
-0.334948
-0.345682
-0.353109
-0.354256
-0.347096
-0.332142
-0.310483
-0.282568
-0.246798
-0.259748
-0.277931
-0.276325
-0.254917
-0.238479
-0.2321
-0.235354
-0.243717
-0.252262
-0.257152
-0.256782
-0.252563
-0.247132
-0.2438
-0.245965
-0.254446
-0.266397
-0.278011
-0.287312
-0.294561
-0.301287
-0.309506
-0.319962
-0.330822
-0.340508
-0.347987
-0.350639
-0.346072
-0.334233
-0.316126
-0.292644
-0.266258
-0.267242
-0.264584
-0.257131
-0.243369
-0.232787
-0.230262
-0.235761
-0.244996
-0.253363
-0.257736
-0.257191
-0.253265
-0.248273
-0.245537
-0.248814
-0.258304
-0.269902
-0.28
-0.288122
-0.294955
-0.301061
-0.307796
-0.316308
-0.325674
-0.334636
-0.342246
-0.346245
-0.344331
-0.335954
-0.321542
-0.301953
-0.280414
-0.270898
-0.257872
-0.246368
-0.235648
-0.229042
-0.2295
-0.237005
-0.247308
-0.255533
-0.259121
-0.257885
-0.253422
-0.248285
-0.246376
-0.251345
-0.262145
-0.273543
-0.282199
-0.288792
-0.294491
-0.299347
-0.304477
-0.311588
-0.320284
-0.329025
-0.336536
-0.341149
-0.341659
-0.337102
-0.326104
-0.308981
-0.288815
-0.273848
-0.255463
-0.241195
-0.231411
-0.227091
-0.229566
-0.238616
-0.25
-0.258439
-0.261548
-0.259323
-0.253418
-0.247419
-0.246091
-0.252757
-0.265106
-0.276739
-0.284371
-0.28917
-0.29283
-0.295961
-0.299913
-0.306545
-0.315236
-0.323612
-0.330167
-0.334438
-0.3376
-0.338335
-0.331278
-0.315511
-0.295013
-0.276855
-0.255215
-0.23914
-0.229488
-0.226196
-0.229767
-0.239806
-0.252133
-0.2611
-0.264097
-0.261084
-0.253902
-0.246973
-0.245581
-0.253169
-0.266768
-0.278741
-0.285662
-0.288799
-0.29021
-0.291702
-0.295161
-0.302187
-0.311261
-0.318748
-0.323031
-0.324942
-0.331438
-0.341582
-0.339721
-0.323258
-0.300846
-0.279187
-0.255618
-0.238431
-0.228612
-0.225743
-0.229861
-0.240324
-0.2532
-0.262714
-0.265805
-0.262353
-0.254501
-0.247193
-0.24588
-0.253566
-0.267104
-0.27908
-0.285755
-0.28793
-0.288032
-0.28877
-0.292354
-0.299875
-0.308994
-0.315337
-0.316431
-0.309978
-0.319194
-0.349565
-0.355009
-0.331829
-0.305517
-0.247752
-0.274268
-0.270124
-0.236947
-0.212858
-0.206169
-0.21693
-0.236626
-0.255917
-0.265578
-0.262829
-0.252101
-0.238412
-0.227725
-0.225643
-0.235427
-0.25561
-0.276999
-0.288869
-0.291515
-0.29462
-0.3067
-0.328123
-0.349564
-0.366843
-0.380428
-0.383903
-0.3737
-0.35451
-0.329723
-0.298458
-0.259599
-0.256007
-0.263815
-0.256464
-0.230793
-0.210246
-0.205561
-0.217114
-0.236514
-0.255623
-0.265875
-0.263426
-0.252808
-0.239368
-0.229347
-0.228538
-0.239154
-0.258719
-0.278506
-0.290028
-0.29421
-0.297879
-0.307892
-0.325908
-0.344402
-0.360379
-0.374323
-0.379437
-0.371833
-0.35524
-0.332586
-0.304191
-0.271699
-0.261293
-0.253518
-0.242302
-0.222563
-0.206715
-0.205505
-0.219223
-0.238559
-0.255796
-0.264935
-0.263003
-0.25392
-0.242024
-0.232318
-0.232442
-0.245428
-0.264391
-0.280597
-0.29083
-0.296527
-0.300879
-0.308892
-0.323076
-0.337671
-0.350685
-0.363833
-0.371718
-0.368423
-0.355586
-0.336749
-0.312231
-0.283021
-0.263958
-0.245774
-0.23068
-0.215166
-0.204408
-0.206825
-0.2226
-0.241958
-0.257531
-0.264892
-0.262692
-0.25504
-0.24421
-0.234833
-0.237098
-0.252939
-0.270975
-0.282965
-0.291109
-0.297903
-0.302703
-0.308151
-0.317928
-0.329397
-0.341028
-0.354062
-0.363842
-0.364197
-0.355418
-0.340307
-0.318476
-0.290317
-0.265431
-0.241066
-0.223515
-0.211243
-0.204799
-0.2096
-0.227189
-0.247811
-0.261831
-0.266402
-0.262768
-0.254065
-0.242474
-0.234918
-0.241683
-0.26081
-0.278011
-0.28634
-0.2918
-0.297962
-0.301308
-0.303463
-0.310426
-0.321592
-0.334042
-0.346808
-0.356008
-0.358778
-0.354696
-0.342313
-0.321403
-0.294232
-0.268603
-0.240223
-0.220394
-0.209512
-0.206164
-0.212856
-0.231869
-0.254038
-0.267876
-0.271326
-0.265535
-0.252351
-0.237781
-0.231835
-0.243372
-0.266734
-0.284677
-0.291181
-0.293154
-0.295165
-0.295351
-0.295591
-0.302459
-0.315146
-0.32795
-0.33849
-0.345447
-0.350974
-0.354225
-0.346406
-0.326364
-0.299389
-0.272988
-0.240986
-0.219607
-0.209422
-0.207244
-0.214761
-0.234565
-0.258201
-0.273114
-0.276614
-0.26931
-0.252822
-0.23558
-0.228462
-0.242246
-0.270021
-0.289096
-0.294385
-0.293002
-0.289275
-0.285775
-0.285903
-0.295481
-0.311241
-0.322953
-0.328787
-0.330817
-0.341126
-0.359046
-0.357776
-0.335937
-0.306957
-0.27707
-0.242124
-0.219122
-0.208683
-0.207348
-0.21588
-0.23552
-0.259551
-0.276157
-0.280416
-0.272141
-0.254046
-0.236238
-0.229925
-0.243234
-0.269219
-0.288311
-0.294038
-0.290709
-0.283629
-0.278806
-0.280729
-0.292789
-0.309363
-0.319224
-0.32035
-0.309504
-0.323327
-0.371
-0.378881
-0.347214
-0.31419
)
;

boundaryField
{
    wall
    {
        type            zeroGradient;
    }
    outlet
    {
        type            cyclic;
    }
    inlet
    {
        type            cyclic;
    }
    procBoundary1to0
    {
        type            processor;
        value           nonuniform List<scalar> 
256
(
-0.253291
-0.343635
-0.348456
-0.305329
-0.272614
-0.254565
-0.247989
-0.248413
-0.251466
-0.253737
-0.253634
-0.251512
-0.248938
-0.247946
-0.250229
-0.256366
-0.265476
-0.275577
-0.284867
-0.293053
-0.301197
-0.310409
-0.320621
-0.330406
-0.338029
-0.341747
-0.339482
-0.329495
-0.311058
-0.284127
-0.252934
-0.237221
-0.248883
-0.331875
-0.339347
-0.295964
-0.267621
-0.252273
-0.247099
-0.248175
-0.25148
-0.253861
-0.253854
-0.251857
-0.249447
-0.248653
-0.251155
-0.257424
-0.266437
-0.276263
-0.285312
-0.293347
-0.301247
-0.309988
-0.3196
-0.328877
-0.336294
-0.340272
-0.338887
-0.330583
-0.314791
-0.291614
-0.261813
-0.231078
-0.2502
-0.306935
-0.314005
-0.281044
-0.259692
-0.248547
-0.245702
-0.247898
-0.251614
-0.25412
-0.254228
-0.252441
-0.250314
-0.249849
-0.252734
-0.259272
-0.268127
-0.277419
-0.285956
-0.293618
-0.301035
-0.308999
-0.317668
-0.32615
-0.333212
-0.337539
-0.337452
-0.331508
-0.319128
-0.300387
-0.275612
-0.243768
-0.265029
-0.281688
-0.281336
-0.264427
-0.251088
-0.244565
-0.244373
-0.247904
-0.252095
-0.25466
-0.254763
-0.253081
-0.251192
-0.251129
-0.254567
-0.2615
-0.270181
-0.278782
-0.286558
-0.293581
-0.300271
-0.307268
-0.314892
-0.322576
-0.329309
-0.33397
-0.33518
-0.331707
-0.322855
-0.308436
-0.289214
-0.268365
-0.27282
-0.269366
-0.262811
-0.252385
-0.244377
-0.241493
-0.243635
-0.24848
-0.25312
-0.255612
-0.255485
-0.253604
-0.251738
-0.252089
-0.25623
-0.26368
-0.27225
-0.280138
-0.286967
-0.293048
-0.298767
-0.30475
-0.311484
-0.318572
-0.325012
-0.329778
-0.331945
-0.330894
-0.325723
-0.31523
-0.299932
-0.283347
-0.27665
-0.264784
-0.254393
-0.245502
-0.240133
-0.239548
-0.243427
-0.249442
-0.254564
-0.256978
-0.256458
-0.254075
-0.251963
-0.252587
-0.25739
-0.265407
-0.273985
-0.281263
-0.287067
-0.291974
-0.296614
-0.301745
-0.307899
-0.314574
-0.320538
-0.324817
-0.32722
-0.328703
-0.328149
-0.321508
-0.308119
-0.291697
-0.279336
-0.263484
-0.250879
-0.242089
-0.237786
-0.238369
-0.243394
-0.250454
-0.256075
-0.25841
-0.257496
-0.254595
-0.252154
-0.252836
-0.258035
-0.266472
-0.275086
-0.281901
-0.286809
-0.290615
-0.294336
-0.298924
-0.30482
-0.311177
-0.316303
-0.319051
-0.319853
-0.324139
-0.331391
-0.329462
-0.315743
-0.297526
-0.281115
-0.263355
-0.249643
-0.240669
-0.236651
-0.237545
-0.243198
-0.251247
-0.257278
-0.259421
-0.258211
-0.254994
-0.252365
-0.253059
-0.258369
-0.266889
-0.275477
-0.282051
-0.286445
-0.289615
-0.292856
-0.297238
-0.303054
-0.309125
-0.313277
-0.313441
-0.307124
-0.313499
-0.33821
-0.343231
-0.323699
-0.301593
)
;
    }
    procBoundary1to2
    {
        type            processor;
        value           nonuniform List<scalar> 
256
(
-0.251466
-0.24102
-0.228187
-0.195613
-0.162254
-0.15932
-0.188631
-0.230435
-0.269769
-0.286283
-0.276722
-0.255045
-0.227729
-0.204246
-0.194491
-0.207304
-0.245122
-0.286727
-0.300129
-0.287107
-0.277148
-0.292756
-0.33472
-0.370969
-0.39508
-0.421101
-0.42982
-0.410965
-0.383604
-0.356567
-0.321785
-0.281655
-0.253385
-0.236877
-0.221406
-0.19011
-0.160409
-0.159571
-0.188598
-0.227766
-0.267621
-0.288564
-0.279439
-0.25615
-0.22776
-0.206115
-0.201085
-0.215515
-0.251218
-0.288381
-0.301355
-0.295637
-0.289001
-0.297909
-0.329604
-0.357962
-0.38041
-0.408861
-0.420698
-0.407221
-0.384916
-0.359238
-0.327649
-0.288918
-0.253527
-0.229937
-0.213152
-0.184512
-0.158444
-0.162227
-0.195946
-0.233972
-0.265741
-0.28279
-0.276193
-0.258028
-0.235142
-0.211445
-0.205241
-0.229135
-0.264255
-0.288891
-0.299407
-0.300763
-0.297978
-0.303874
-0.328121
-0.347666
-0.360745
-0.384315
-0.40422
-0.401191
-0.383523
-0.363757
-0.338379
-0.297582
-0.254568
-0.220676
-0.199759
-0.178289
-0.159836
-0.168384
-0.204538
-0.240174
-0.267237
-0.279964
-0.273208
-0.262033
-0.24255
-0.214887
-0.211823
-0.244956
-0.277649
-0.288781
-0.295059
-0.304159
-0.306904
-0.308136
-0.320226
-0.332515
-0.343387
-0.366685
-0.390881
-0.394422
-0.381806
-0.36742
-0.34471
-0.302611
-0.254377
-0.213959
-0.191134
-0.178563
-0.168143
-0.176286
-0.214139
-0.254459
-0.275749
-0.278419
-0.270002
-0.258286
-0.235516
-0.212296
-0.22251
-0.263273
-0.291716
-0.291898
-0.293478
-0.307097
-0.309005
-0.300825
-0.305554
-0.320297
-0.337883
-0.361751
-0.380046
-0.385151
-0.380369
-0.365
-0.33811
-0.300152
-0.260112
-0.215133
-0.188215
-0.178288
-0.175364
-0.185087
-0.223871
-0.268404
-0.288449
-0.289928
-0.278086
-0.250424
-0.216974
-0.200388
-0.224934
-0.276357
-0.306303
-0.304164
-0.298623
-0.302394
-0.298282
-0.286462
-0.29162
-0.312468
-0.333524
-0.351791
-0.36188
-0.36863
-0.375934
-0.366534
-0.339589
-0.305246
-0.267731
-0.216014
-0.188525
-0.181875
-0.179449
-0.188164
-0.227167
-0.275744
-0.298668
-0.301364
-0.287597
-0.251674
-0.211162
-0.185549
-0.21517
-0.286077
-0.318451
-0.313337
-0.301668
-0.287842
-0.273606
-0.262721
-0.278382
-0.313313
-0.331836
-0.33711
-0.335027
-0.351085
-0.38858
-0.386748
-0.354149
-0.318455
-0.27709
-0.218051
-0.18673
-0.17882
-0.179101
-0.191836
-0.227225
-0.274624
-0.304932
-0.311304
-0.294508
-0.254468
-0.214409
-0.195715
-0.221138
-0.277452
-0.310153
-0.31102
-0.295024
-0.27131
-0.255022
-0.253809
-0.278553
-0.314617
-0.328152
-0.327838
-0.32438
-0.346285
-0.391862
-0.393041
-0.366234
-0.334249
)
;
    }
}


// ************************************************************************* //
