/*--------------------------------*- C++ -*----------------------------------*\
| =========                 |                                                 |
| \\      /  F ield         | OpenFOAM: The Open Source CFD Toolbox           |
|  \\    /   O peration     | Version:  2506                                  |
|   \\  /    A nd           | Website:  www.openfoam.com                      |
|    \\/     M anipulation  |                                                 |
\*---------------------------------------------------------------------------*/
FoamFile
{
    version     2.0;
    format      ascii;
    arch        "LSB;label=32;scalar=64";
    class       volVectorField;
    location    "0.002";
    object      U_0;
}
// * * * * * * * * * * * * * * * * * * * * * * * * * * * * * * * * * * * * * //

dimensions      [0 1 -1 0 0 0 0];

internalField   nonuniform List<vector> 
512
(
(8.99581 0.000344838 0.002206)
(8.99641 0.000238408 0.00136752)
(8.99647 0.000138423 0.000762772)
(8.99636 7.76822e-05 0.000431883)
(8.99625 4.4245e-05 0.000258123)
(8.99615 2.59805e-05 0.00016615)
(8.99608 1.57442e-05 0.000116416)
(8.99603 9.78008e-06 8.88066e-05)
(8.99599 6.18111e-06 7.2645e-05)
(8.99595 3.94954e-06 6.18153e-05)
(8.99593 2.58269e-06 5.37627e-05)
(8.9959 1.78459e-06 4.73829e-05)
(8.99588 1.31781e-06 4.24597e-05)
(8.99587 1.04591e-06 3.89678e-05)
(8.99585 8.98797e-07 3.71971e-05)
(8.99583 7.9478e-07 3.73887e-05)
(8.99582 7.04407e-07 3.93186e-05)
(8.9958 7.08593e-07 4.21246e-05)
(8.99578 9.33539e-07 4.38799e-05)
(8.99576 1.35695e-06 4.42952e-05)
(8.99574 1.86732e-06 4.48194e-05)
(8.99572 2.48183e-06 4.68675e-05)
(8.9957 3.34312e-06 5.11269e-05)
(8.99567 4.6673e-06 5.81852e-05)
(8.99564 6.79063e-06 6.93451e-05)
(8.9956 1.02492e-05 8.76453e-05)
(8.99554 1.60407e-05 0.000118291)
(8.99547 2.61059e-05 0.000170375)
(8.99538 4.4208e-05 0.000262924)
(8.99526 7.75374e-05 0.000435587)
(8.99515 0.000138257 0.000765039)
(8.99521 0.000238298 0.00136854)
(9.01304 0.000689532 0.00122299)
(9.01344 0.000514285 0.000912901)
(9.01354 0.000322612 0.000581881)
(9.0135 0.000192624 0.000360016)
(9.01342 0.000114835 0.000228311)
(9.01335 6.96417e-05 0.000153084)
(9.0133 4.31471e-05 0.000110388)
(9.01325 2.72021e-05 8.58377e-05)
(9.01321 1.73718e-05 7.10466e-05)
(9.01318 1.12419e-05 6.07385e-05)
(9.01316 7.47664e-06 5.29519e-05)
(9.01313 5.25688e-06 4.6869e-05)
(9.01311 3.93578e-06 4.2176e-05)
(9.0131 3.1324e-06 3.88645e-05)
(9.01308 2.66655e-06 3.72948e-05)
(9.01306 2.36947e-06 3.75129e-05)
(9.01305 2.13912e-06 3.92327e-05)
(9.01303 2.15041e-06 4.18425e-05)
(9.01301 2.71344e-06 4.3846e-05)
(9.01299 3.79876e-06 4.47885e-05)
(9.01297 5.18598e-06 4.55641e-05)
(9.01295 6.92959e-06 4.75169e-05)
(9.01293 9.40308e-06 5.1463e-05)
(9.0129 1.3183e-05 5.79859e-05)
(9.01287 1.91182e-05 6.83343e-05)
(9.01284 2.85418e-05 8.51351e-05)
(9.01279 4.39462e-05 0.000112585)
(9.01273 6.99115e-05 0.000157517)
(9.01266 0.000114664 0.000233091)
(9.01258 0.000192196 0.000363494)
(9.01254 0.000322167 0.00058386)
(9.01264 0.000514007 0.000913707)
(9.01306 0.00060885 0.000652216)
(9.01329 0.000505793 0.000548239)
(9.01339 0.000354813 0.00039572)
(9.0134 0.000231882 0.000271247)
(9.01337 0.000147998 0.00018634)
(9.01333 9.43469e-05 0.000132953)
(9.01329 6.05776e-05 0.000100459)
(9.01325 3.91845e-05 8.05903e-05)
(9.01322 2.55311e-05 6.79444e-05)
(9.01319 1.68811e-05 5.87297e-05)
(9.01317 1.15223e-05 5.1632e-05)
(9.01315 8.27618e-06 4.62206e-05)
(9.01313 6.25034e-06 4.20382e-05)
(9.01311 4.96491e-06 3.89936e-05)
(9.0131 4.19829e-06 3.75765e-05)
(9.01308 3.76034e-06 3.78484e-05)
(9.01307 3.49529e-06 3.92803e-05)
(9.01305 3.53328e-06 4.15491e-05)
(9.01303 4.18569e-06 4.37992e-05)
(9.01301 5.52974e-06 4.53316e-05)
(9.01299 7.44377e-06 4.64313e-05)
(9.01297 1.00114e-05 4.82785e-05)
(9.01295 1.37119e-05 5.1831e-05)
(9.01293 1.93333e-05 5.76722e-05)
(9.0129 2.78998e-05 6.68226e-05)
(9.01287 4.09879e-05 8.10603e-05)
(9.01283 6.15269e-05 0.000103308)
(9.01279 9.44608e-05 0.000137598)
(9.01275 0.000147524 0.000190957)
(9.01271 0.00023114 0.00027435)
(9.01272 0.000354127 0.000397366)
(9.01282 0.000505393 0.000548848)
(9.01306 0.000450619 0.000366283)
(9.0132 0.000399992 0.00032998)
(9.01328 0.000306553 0.000262768)
(9.01331 0.000217202 0.000197996)
(9.0133 0.000148101 0.000147797)
(9.01328 9.93936e-05 0.000113114)
(9.01326 6.63794e-05 9.02026e-05)
(9.01323 4.42868e-05 7.50171e-05)
(9.01321 2.96137e-05 6.4648e-05)
(9.01318 2.00638e-05 5.67628e-05)
(9.01316 1.39935e-05 5.07362e-05)
(9.01314 1.01501e-05 4.61843e-05)
(9.01313 7.62958e-06 4.24255e-05)
(9.01311 5.99101e-06 3.95604e-05)
(9.0131 5.04676e-06 3.82569e-05)
(9.01308 4.583e-06 3.85582e-05)
(9.01307 4.42669e-06 3.97848e-05)
(9.01305 4.56076e-06 4.17394e-05)
(9.01303 5.15513e-06 4.38793e-05)
(9.01301 6.43125e-06 4.56428e-05)
(9.01299 8.43233e-06 4.70265e-05)
(9.01297 1.13296e-05 4.88233e-05)
(9.01296 1.56378e-05 5.19758e-05)
(9.01293 2.21569e-05 5.72513e-05)
(9.01291 3.18046e-05 6.52266e-05)
(9.01289 4.59655e-05 7.66777e-05)
(9.01286 6.71225e-05 9.34258e-05)
(9.01283 9.91744e-05 0.000117429)
(9.01281 0.000147248 0.000151821)
(9.0128 0.000216119 0.000200483)
(9.01283 0.000305601 0.00026394)
(9.01291 0.00039945 0.000330355)
(9.01306 0.000311481 0.000222832)
(9.01315 0.000287063 0.000209442)
(9.01321 0.000234089 0.000179981)
(9.01324 0.000176611 0.000147207)
(9.01325 0.000127217 0.000118614)
(9.01325 8.92949e-05 9.70761e-05)
(9.01323 6.18616e-05 8.16626e-05)
(9.01322 4.25953e-05 7.04332e-05)
(9.0132 2.92867e-05 6.20564e-05)
(9.01318 2.02848e-05 5.54594e-05)
(9.01316 1.42764e-05 5.04168e-05)
(9.01314 1.02643e-05 4.6529e-05)
(9.01312 7.5963e-06 4.29746e-05)
(9.01311 5.89816e-06 4.0045e-05)
(9.01309 4.97413e-06 3.88056e-05)
(9.01308 4.62198e-06 3.92139e-05)
(9.01307 4.67497e-06 4.05143e-05)
(9.01305 4.96003e-06 4.23762e-05)
(9.01303 5.48513e-06 4.42781e-05)
(9.01301 6.48945e-06 4.60384e-05)
(9.013 8.20046e-06 4.73721e-05)
(9.01298 1.09483e-05 4.89245e-05)
(9.01296 1.5212e-05 5.17421e-05)
(9.01294 2.15903e-05 5.66904e-05)
(9.01292 3.07738e-05 6.38177e-05)
(9.0129 4.38053e-05 7.29738e-05)
(9.01289 6.23496e-05 8.50017e-05)
(9.01287 8.89009e-05 0.000100773)
(9.01286 0.000126186 0.00012167)
(9.01287 0.0001754 0.000148665)
(9.0129 0.000233092 0.000180231)
(9.01297 0.000286523 0.000209275)
(9.01306 0.00020184 0.00014978)
(9.01312 0.000189834 0.00014466)
(9.01317 0.000161087 0.000131742)
(9.0132 0.000126993 0.000115312)
(9.01322 9.52984e-05 9.91659e-05)
(9.01322 6.92732e-05 8.59217e-05)
(9.01321 4.94376e-05 7.57283e-05)
(9.0132 3.4995e-05 6.75974e-05)
(9.01319 2.47035e-05 6.08674e-05)
(9.01317 1.74293e-05 5.51353e-05)
(9.01315 1.22788e-05 5.04736e-05)
(9.01314 8.67048e-06 4.66166e-05)
(9.01312 6.2997e-06 4.30553e-05)
(9.01311 4.90092e-06 4.01441e-05)
(9.01309 4.20668e-06 3.89989e-05)
(9.01308 4.05466e-06 3.96038e-05)
(9.01307 4.27537e-06 4.12753e-05)
(9.01305 4.62631e-06 4.33521e-05)
(9.01303 4.99279e-06 4.5155e-05)
(9.01302 5.57129e-06 4.6602e-05)
(9.013 6.79997e-06 4.75575e-05)
(9.01298 9.07255e-06 4.88603e-05)
(9.01297 1.26942e-05 5.15975e-05)
(9.01295 1.80195e-05 5.63838e-05)
(9.01293 2.5484e-05 6.28764e-05)
(9.01292 3.5759e-05 7.05008e-05)
(9.01291 4.98202e-05 7.91538e-05)
(9.0129 6.89815e-05 8.90993e-05)
(9.0129 9.44748e-05 0.000101188)
(9.01291 0.000126088 0.000115737)
(9.01294 0.000160439 0.00013132)
(9.01299 0.000189537 0.000144216)
(9.01304 0.000113425 0.000113785)
(9.01309 0.000107772 0.000111642)
(9.01313 9.35486e-05 0.000105688)
(9.01316 7.5756e-05 9.70227e-05)
(9.01318 5.8369e-05 8.75684e-05)
(9.01318 4.34314e-05 7.9105e-05)
(9.01318 3.16063e-05 7.20953e-05)
(9.01317 2.28095e-05 6.61223e-05)
(9.01316 1.64455e-05 6.07142e-05)
(9.01315 1.17995e-05 5.55155e-05)
(9.01313 8.33662e-06 5.07713e-05)
(9.01312 5.82158e-06 4.65856e-05)
(9.0131 4.19456e-06 4.28826e-05)
(9.01309 3.32387e-06 4.01399e-05)
(9.01308 2.94806e-06 3.92191e-05)
(9.01306 2.93904e-06 4.02249e-05)
(9.01305 3.16566e-06 4.23552e-05)
(9.01303 3.40821e-06 4.47066e-05)
(9.01302 3.53459e-06 4.62588e-05)
(9.013 3.73347e-06 4.69885e-05)
(9.01298 4.46468e-06 4.74531e-05)
(9.01297 6.0015e-06 4.86965e-05)
(9.01295 8.43482e-06 5.15404e-05)
(9.01294 1.19552e-05 5.6446e-05)
(9.01293 1.67909e-05 6.27097e-05)
(9.01291 2.32675e-05 6.93423e-05)
(9.0129 3.19211e-05 7.59077e-05)
(9.0129 4.33226e-05 8.21746e-05)
(9.0129 5.79422e-05 8.90926e-05)
(9.01292 7.53259e-05 9.71046e-05)
(9.01295 9.33181e-05 0.000105239)
(9.01299 0.000107709 0.000111345)
(8.99581 3.66016e-05 9.88449e-05)
(8.99585 3.49246e-05 9.76667e-05)
(8.99589 3.06212e-05 9.41853e-05)
(8.99592 2.51118e-05 8.86163e-05)
(8.99594 1.9593e-05 8.20071e-05)
(8.99594 1.47452e-05 7.57098e-05)
(8.99594 1.08254e-05 7.00837e-05)
(8.99594 7.88539e-06 6.52111e-05)
(8.99593 5.75539e-06 6.06773e-05)
(8.99591 4.17998e-06 5.59177e-05)
(8.9959 2.96917e-06 5.11022e-05)
(8.99589 2.06917e-06 4.66339e-05)
(8.99587 1.49392e-06 4.28431e-05)
(8.99586 1.20851e-06 4.03273e-05)
(8.99585 1.09929e-06 3.96409e-05)
(8.99583 1.10899e-06 4.08621e-05)
(8.99582 1.19913e-06 4.32766e-05)
(8.9958 1.27267e-06 4.56861e-05)
(8.99579 1.2776e-06 4.68624e-05)
(8.99577 1.30833e-06 4.70248e-05)
(8.99575 1.55797e-06 4.72765e-05)
(8.99574 2.1113e-06 4.86426e-05)
(8.99572 2.96684e-06 5.15665e-05)
(8.99571 4.18676e-06 5.64894e-05)
(8.9957 5.84825e-06 6.26079e-05)
(8.99569 8.04367e-06 6.86529e-05)
(8.99568 1.09494e-05 7.41794e-05)
(8.99568 1.47227e-05 7.87416e-05)
(8.99568 1.94733e-05 8.33856e-05)
(8.9957 2.50001e-05 8.86583e-05)
(8.99573 3.05878e-05 9.39474e-05)
(8.99577 3.49305e-05 9.75562e-05)
(8.99581 0.000130868 0.00105385)
(8.99607 0.000107031 0.000839891)
(8.99616 7.39883e-05 0.000578474)
(8.99616 4.79183e-05 0.000384188)
(8.99613 3.04726e-05 0.000257965)
(8.99608 1.94369e-05 0.000181736)
(8.99604 1.25346e-05 0.000136938)
(8.99601 8.10301e-06 0.000111128)
(8.99597 5.21794e-06 9.58092e-05)
(8.99594 3.22538e-06 8.38488e-05)
(8.99592 1.97918e-06 7.38894e-05)
(8.9959 1.36652e-06 6.49846e-05)
(8.99588 1.04793e-06 5.78504e-05)
(8.99586 8.98262e-07 5.23885e-05)
(8.99585 9.06039e-07 4.94107e-05)
(8.99584 8.22221e-07 4.99895e-05)
(8.99582 5.64148e-07 5.40874e-05)
(8.9958 4.05297e-07 6.05764e-05)
(8.99578 8.19494e-07 6.31185e-05)
(8.99576 1.65425e-06 6.13232e-05)
(8.99574 2.35367e-06 5.9922e-05)
(8.99572 2.89774e-06 6.18684e-05)
(8.9957 3.54607e-06 6.72486e-05)
(8.99568 4.52516e-06 7.58092e-05)
(8.99565 6.18292e-06 8.80532e-05)
(8.99562 8.85309e-06 0.000107732)
(8.99559 1.30344e-05 0.000140012)
(8.99554 1.9711e-05 0.000189662)
(8.9955 3.04236e-05 0.000266878)
(8.99546 4.76107e-05 0.000390193)
(8.99545 7.36109e-05 0.000581824)
(8.99555 0.00010676 0.000841314)
(9.01304 0.000299259 0.000768788)
(9.01324 0.000253882 0.000655131)
(9.01333 0.000183611 0.000482137)
(9.01335 0.000123679 0.000336888)
(9.01333 8.1134e-05 0.000234819)
(9.0133 5.30249e-05 0.000170171)
(9.01326 3.4777e-05 0.000131151)
(9.01323 2.26772e-05 0.000108082)
(9.0132 1.46214e-05 9.42092e-05)
(9.01317 9.28704e-06 8.2208e-05)
(9.01315 6.0138e-06 7.21186e-05)
(9.01313 4.40935e-06 6.36727e-05)
(9.01311 3.57855e-06 5.68223e-05)
(9.01309 3.06743e-06 5.16685e-05)
(9.01308 2.85501e-06 4.94763e-05)
(9.01307 2.62245e-06 5.01598e-05)
(9.01305 2.00158e-06 5.35048e-05)
(9.01303 1.57726e-06 5.91553e-05)
(9.01301 2.52465e-06 6.2528e-05)
(9.01299 4.4791e-06 6.26542e-05)
(9.01297 6.30165e-06 6.19255e-05)
(9.01296 7.90949e-06 6.35018e-05)
(9.01294 9.93037e-06 6.81654e-05)
(9.01291 1.2979e-05 7.55963e-05)
(9.01289 1.78239e-05 8.67314e-05)
(9.01286 2.51042e-05 0.000105104)
(9.01283 3.62313e-05 0.000134662)
(9.01279 5.36068e-05 0.000178747)
(9.01275 8.08556e-05 0.00024379)
(9.01273 0.000122842 0.000342305)
(9.01274 0.000182742 0.000484633)
(9.01284 0.000253317 0.000655825)
(9.01306 0.000322535 0.000511184)
(9.0132 0.000287177 0.000459123)
(9.01328 0.00022158 0.00036297)
(9.01331 0.000158353 0.000270788)
(9.0133 0.000109161 0.000199296)
(9.01329 7.42493e-05 0.000151381)
(9.01326 5.01089e-05 0.000121239)
(9.01323 3.33433e-05 0.000102167)
(9.01321 2.18685e-05 8.99333e-05)
(9.01318 1.44764e-05 7.89168e-05)
(9.01316 1.01456e-05 6.9349e-05)
(9.01314 7.89615e-06 6.22032e-05)
(9.01312 6.47214e-06 5.65689e-05)
(9.01311 5.45643e-06 5.18465e-05)
(9.0131 4.85644e-06 4.98548e-05)
(9.01308 4.4799e-06 5.09231e-05)
(9.01307 3.83201e-06 5.33292e-05)
(9.01305 3.35286e-06 5.75801e-05)
(9.01303 4.10856e-06 6.19802e-05)
(9.01301 6.08643e-06 6.41466e-05)
(9.01299 8.48202e-06 6.4249e-05)
(9.01297 1.09792e-05 6.54791e-05)
(9.01296 1.41989e-05 6.9524e-05)
(9.01294 1.91561e-05 7.6035e-05)
(9.01291 2.65222e-05 8.61507e-05)
(9.01289 3.67661e-05 0.000101819)
(9.01286 5.17404e-05 0.000126306)
(9.01283 7.42694e-05 0.000160799)
(9.01281 0.000108187 0.000208175)
(9.0128 0.000156967 0.000275484)
(9.01283 0.000220388 0.000364975)
(9.01291 0.000286515 0.000459519)
(9.01306 0.000277309 0.000335888)
(9.01316 0.000255665 0.000312987)
(9.01322 0.00020881 0.000264098)
(9.01325 0.000158042 0.000210818)
(9.01326 0.000114545 0.00016552)
(9.01325 8.11814e-05 0.0001335)
(9.01324 5.66788e-05 0.000111601)
(9.01322 3.88942e-05 9.6225e-05)
(9.0132 2.63125e-05 8.5608e-05)
(9.01318 1.81695e-05 7.58371e-05)
(9.01316 1.33658e-05 6.81996e-05)
(9.01314 1.05212e-05 6.29483e-05)
(9.01312 8.36189e-06 5.78601e-05)
(9.01311 6.72844e-06 5.33514e-05)
(9.01309 5.88106e-06 5.15454e-05)
(9.01308 5.5031e-06 5.27005e-05)
(9.01307 5.23935e-06 5.44305e-05)
(9.01305 5.05813e-06 5.76354e-05)
(9.01303 5.37396e-06 6.1473e-05)
(9.01301 6.84395e-06 6.41993e-05)
(9.013 9.06444e-06 6.54953e-05)
(9.01298 1.17965e-05 6.69641e-05)
(9.01296 1.56639e-05 7.02039e-05)
(9.01294 2.1796e-05 7.63689e-05)
(9.01292 3.05118e-05 8.58011e-05)
(9.0129 4.19911e-05 9.83658e-05)
(9.01288 5.77052e-05 0.000117077)
(9.01286 8.0246e-05 0.000141664)
(9.01285 0.000112608 0.000173177)
(9.01286 0.00015585 0.000214595)
(9.01289 0.000206911 0.000265626)
(9.01296 0.000254595 0.000313334)
(9.01306 0.000213174 0.000227833)
(9.01313 0.000200863 0.000219019)
(9.01318 0.000171127 0.000196355)
(9.01321 0.000135759 0.000167196)
(9.01323 0.000102689 0.000139303)
(9.01323 7.54185e-05 0.00011879)
(9.01322 5.44936e-05 0.000103873)
(9.0132 3.88601e-05 9.17642e-05)
(9.01319 2.73707e-05 8.22827e-05)
(9.01317 1.95119e-05 7.41432e-05)
(9.01315 1.42866e-05 6.8431e-05)
(9.01314 1.06617e-05 6.47346e-05)
(9.01312 8.05735e-06 5.96953e-05)
(9.01311 6.25511e-06 5.42788e-05)
(9.01309 5.40667e-06 5.25489e-05)
(9.01308 5.24571e-06 5.39248e-05)
(9.01307 5.62795e-06 5.58865e-05)
(9.01305 6.01256e-06 5.88262e-05)
(9.01303 6.2946e-06 6.16137e-05)
(9.01302 7.1035e-06 6.47234e-05)
(9.013 8.53155e-06 6.6116e-05)
(9.01298 1.09562e-05 6.69341e-05)
(9.01297 1.50119e-05 6.94336e-05)
(9.01295 2.12557e-05 7.59114e-05)
(9.01293 2.98034e-05 8.54938e-05)
(9.01292 4.09026e-05 9.59454e-05)
(9.0129 5.50883e-05 0.000109227)
(9.01289 7.41949e-05 0.000125156)
(9.01289 0.000100237 0.000144818)
(9.0129 0.000133104 0.000168779)
(9.01293 0.000169016 0.000195439)
(9.01298 0.000199754 0.000217752)
(9.01306 0.000148862 0.0001652)
(9.01311 0.000141732 0.000162374)
(9.01316 0.000123899 0.000153376)
(9.01319 0.000101522 0.000138784)
(9.0132 7.94531e-05 0.000122054)
(9.01321 6.01066e-05 0.000108955)
(9.0132 4.46628e-05 9.92182e-05)
(9.01319 3.30566e-05 9.0377e-05)
(9.01318 2.43607e-05 8.22166e-05)
(9.01316 1.77819e-05 7.47304e-05)
(9.01315 1.2657e-05 6.91667e-05)
(9.01313 8.70831e-06 6.48125e-05)
(9.01312 6.17285e-06 5.95566e-05)
(9.01311 4.8866e-06 5.40089e-05)
(9.01309 4.38867e-06 5.2268e-05)
(9.01308 4.6487e-06 5.37488e-05)
(9.01307 5.48593e-06 5.68656e-05)
(9.01305 6.22531e-06 6.05838e-05)
(9.01303 6.35926e-06 6.34237e-05)
(9.01302 6.18106e-06 6.5987e-05)
(9.013 6.78643e-06 6.63707e-05)
(9.01298 8.88219e-06 6.65845e-05)
(9.01297 1.26125e-05 6.9366e-05)
(9.01296 1.80744e-05 7.6039e-05)
(9.01294 2.52264e-05 8.51789e-05)
(9.01293 3.42727e-05 9.50115e-05)
(9.01292 4.54088e-05 0.000104697)
(9.01291 5.93897e-05 0.00011408)
(9.01291 7.75448e-05 0.000124791)
(9.01293 9.9676e-05 0.000137661)
(9.01296 0.000122817 0.000150982)
(9.013 0.000141401 0.00016066)
(9.01304 8.79674e-05 0.000133059)
(9.01309 8.40772e-05 0.000132066)
(9.01313 7.43685e-05 0.000128846)
(9.01315 6.20188e-05 0.000121226)
(9.01317 4.95856e-05 0.000111529)
(9.01318 3.82776e-05 0.000103076)
(9.01318 2.88218e-05 9.6496e-05)
(9.01317 2.18385e-05 9.03865e-05)
(9.01316 1.67697e-05 8.40556e-05)
(9.01314 1.26499e-05 7.67937e-05)
(9.01313 8.94056e-06 7.00984e-05)
(9.01311 5.88462e-06 6.42744e-05)
(9.0131 4.05091e-06 5.84363e-05)
(9.01309 3.47674e-06 5.35067e-05)
(9.01308 3.41941e-06 5.21115e-05)
(9.01307 3.8472e-06 5.47465e-05)
(9.01305 4.62839e-06 5.91238e-05)
(9.01304 5.13581e-06 6.39295e-05)
(9.01302 4.79663e-06 6.62801e-05)
(9.013 4.01917e-06 6.63975e-05)
(9.01298 4.25449e-06 6.53887e-05)
(9.01297 5.90231e-06 6.58277e-05)
(9.01296 8.53168e-06 6.92209e-05)
(9.01295 1.22597e-05 7.69633e-05)
(9.01293 1.70251e-05 8.67094e-05)
(9.01292 2.26935e-05 9.58285e-05)
(9.01291 2.96765e-05 0.000103607)
(9.0129 3.80943e-05 0.000108292)
(9.01291 4.87258e-05 0.000113121)
(9.01293 6.13735e-05 0.000119838)
(9.01296 7.43555e-05 0.000127036)
(9.01299 8.43145e-05 0.000131353)
(8.99581 2.91148e-05 0.000119603)
(8.99585 2.78689e-05 0.000119173)
(8.99589 2.47433e-05 0.000117575)
(8.99591 2.0807e-05 0.000112929)
(8.99593 1.67756e-05 0.000106132)
(8.99594 1.30694e-05 0.000100005)
(8.99594 9.84032e-06 9.41583e-05)
(8.99593 7.51687e-06 8.94669e-05)
(8.99592 5.93226e-06 8.50052e-05)
(8.99591 4.6251e-06 7.87637e-05)
(8.99589 3.31532e-06 7.14953e-05)
(8.99588 2.17006e-06 6.44896e-05)
(8.99587 1.51501e-06 5.8318e-05)
(8.99586 1.40406e-06 5.43546e-05)
(8.99585 1.46381e-06 5.36085e-05)
(8.99584 1.62078e-06 5.65274e-05)
(8.99582 1.92564e-06 6.17888e-05)
(8.9958 2.04585e-06 6.67527e-05)
(8.99579 1.76144e-06 6.77257e-05)
(8.99577 1.35924e-06 6.59252e-05)
(8.99575 1.46914e-06 6.4675e-05)
(8.99574 2.14726e-06 6.60551e-05)
(8.99573 3.08173e-06 6.97009e-05)
(8.99572 4.34724e-06 7.75649e-05)
(8.99571 5.97147e-06 8.74346e-05)
(8.99569 7.84743e-06 9.56451e-05)
(8.99568 1.01945e-05 0.000102341)
(8.99568 1.30272e-05 0.000105003)
(8.99569 1.65652e-05 0.000107509)
(8.9957 2.06877e-05 0.000111632)
(8.99573 2.48993e-05 0.000116893)
(8.99577 2.80306e-05 0.000119187)
)
;

boundaryField
{
    wall
    {
        type            fixedValue;
        value           uniform (0 0 0);
    }
    outlet
    {
        type            cyclic;
    }
    inlet
    {
        type            cyclic;
    }
    procBoundary1to0
    {
        type            processor;
        value           nonuniform List<vector> 
256
(
(0.0343511 0.0011181 0.0060151)
(0.0360502 0.000564273 0.00212246)
(0.0356396 0.000256342 0.000855928)
(0.0352085 0.000120613 0.00039508)
(0.0349339 6.07795e-05 0.000206738)
(0.0347674 3.28215e-05 0.000121679)
(0.0346628 1.8785e-05 8.00042e-05)
(0.0345929 1.12419e-05 5.81711e-05)
(0.0345429 6.95553e-06 4.58823e-05)
(0.0345048 4.42071e-06 3.8199e-05)
(0.0344745 2.89322e-06 3.28761e-05)
(0.0344495 1.97128e-06 2.89294e-05)
(0.0344281 1.41317e-06 2.60024e-05)
(0.0344094 1.07661e-06 2.40053e-05)
(0.0343921 8.79912e-07 2.29976e-05)
(0.0343755 7.69866e-07 2.30006e-05)
(0.0343587 7.25616e-07 2.38387e-05)
(0.0343409 7.68352e-07 2.50819e-05)
(0.0343221 9.37745e-07 2.60962e-05)
(0.0343023 1.24601e-06 2.67535e-05)
(0.0342815 1.69497e-06 2.75402e-05)
(0.0342591 2.33831e-06 2.91001e-05)
(0.0342338 3.30813e-06 3.19699e-05)
(0.0342039 4.83611e-06 3.67694e-05)
(0.0341664 7.32659e-06 4.46377e-05)
(0.0341166 1.15313e-05 5.7887e-05)
(0.034046 1.89676e-05 8.10502e-05)
(0.03394 3.2895e-05 0.00012377)
(0.0337717 6.07606e-05 0.00020913)
(0.0334954 0.000120538 0.000397056)
(0.0330633 0.000256257 0.000857217)
(0.0326522 0.000564218 0.00212307)
(0.0430281 0.00185727 0.00188339)
(0.0438686 0.00107579 0.00110138)
(0.0438753 0.000552125 0.000576919)
(0.0436915 0.000285143 0.000309175)
(0.0435241 0.000153412 0.000176992)
(0.0434031 8.65406e-05 0.000110203)
(0.0433187 5.09569e-05 7.51518e-05)
(0.0432584 3.10637e-05 5.59398e-05)
(0.0432133 1.94613e-05 4.47586e-05)
(0.0431779 1.24912e-05 3.75599e-05)
(0.0431492 8.24777e-06 3.24877e-05)
(0.0431251 5.66269e-06 2.87211e-05)
(0.0431043 4.08168e-06 2.5923e-05)
(0.0430858 3.11673e-06 2.4015e-05)
(0.0430688 2.54725e-06 2.30725e-05)
(0.0430523 2.23472e-06 2.30842e-05)
(0.0430356 2.11556e-06 2.38664e-05)
(0.043018 2.23384e-06 2.50649e-05)
(0.0429994 2.68977e-06 2.61518e-05)
(0.0429798 3.52783e-06 2.69555e-05)
(0.0429594 4.7759e-06 2.78209e-05)
(0.0429374 6.58859e-06 2.93399e-05)
(0.042913 9.3245e-06 3.20549e-05)
(0.0428845 1.36037e-05 3.65536e-05)
(0.0428496 2.04793e-05 4.38554e-05)
(0.0428046 3.18572e-05 5.59145e-05)
(0.0427437 5.14414e-05 7.6362e-05)
(0.0426579 8.671e-05 0.000112368)
(0.0425351 0.000153327 0.00017936)
(0.0423662 0.000284914 0.000311058)
(0.0421814 0.000551883 0.000578099)
(0.0421877 0.00107564 0.00110192)
(0.0430447 0.00117924 0.000715756)
(0.0434417 0.000870098 0.000539953)
(0.0435448 0.000540693 0.000347451)
(0.0435049 0.000320374 0.000216696)
(0.0434298 0.000189675 0.000138456)
(0.0433591 0.00011422 9.33453e-05)
(0.0433013 7.02946e-05 6.7379e-05)
(0.0432553 4.41639e-05 5.21165e-05)
(0.0432181 2.82672e-05 4.27154e-05)
(0.0431873 1.84522e-05 3.63841e-05)
(0.0431613 1.23613e-05 3.18096e-05)
(0.0431389 8.58096e-06 2.84008e-05)
(0.0431191 6.22266e-06 2.58466e-05)
(0.0431013 4.76057e-06 2.40802e-05)
(0.0430847 3.89438e-06 2.32157e-05)
(0.0430686 3.43471e-06 2.32416e-05)
(0.0430521 3.28001e-06 2.39422e-05)
(0.0430349 3.456e-06 2.5056e-05)
(0.0430167 4.07531e-06 2.62079e-05)
(0.0429977 5.23224e-06 2.7178e-05)
(0.0429778 7.01968e-06 2.81389e-05)
(0.0429569 9.67293e-06 2.95923e-05)
(0.042934 1.36861e-05 3.20724e-05)
(0.0429082 1.98908e-05 3.61082e-05)
(0.0428777 2.96299e-05 4.24923e-05)
(0.0428405 4.52236e-05 5.26016e-05)
(0.0427937 7.08994e-05 6.88687e-05)
(0.0427345 0.000114357 9.55747e-05)
(0.0426622 0.000189457 0.000140724)
(0.0425857 0.000319979 0.000218393)
(0.042545 0.000540308 0.000348456)
(0.0426477 0.000869867 0.000540385)
(0.0430448 0.000706691 0.000326278)
(0.0432466 0.00059446 0.000280199)
(0.0433421 0.000424548 0.000208892)
(0.043357 0.000282081 0.000148172)
(0.0433345 0.00018227 0.000105213)
(0.0433002 0.000117058 7.7158e-05)
(0.0432652 7.54749e-05 5.93638e-05)
(0.0432329 4.90512e-05 4.80065e-05)
(0.0432041 3.22005e-05 4.04975e-05)
(0.0431786 2.14398e-05 3.51695e-05)
(0.0431558 1.45809e-05 3.12267e-05)
(0.0431354 1.02128e-05 2.82472e-05)
(0.043117 7.42544e-06 2.59366e-05)
(0.0431 5.67708e-06 2.42928e-05)
(0.043084 4.65194e-06 2.34976e-05)
(0.0430682 4.13764e-06 2.35438e-05)
(0.0430521 4.00542e-06 2.41887e-05)
(0.0430353 4.231e-06 2.52152e-05)
(0.0430177 4.89503e-06 2.63442e-05)
(0.0429993 6.1372e-06 2.73818e-05)
(0.0429803 8.12364e-06 2.83956e-05)
(0.0429606 1.11505e-05 2.97707e-05)
(0.0429398 1.57528e-05 3.2004e-05)
(0.042917 2.27778e-05 3.55749e-05)
(0.0428915 3.35166e-05 4.09892e-05)
(0.0428624 5.00776e-05 4.90179e-05)
(0.0428294 7.60111e-05 6.10616e-05)
(0.042793 0.000117071 7.92961e-05)
(0.0427572 0.000181895 0.00010722)
(0.0427335 0.000281534 0.000149561)
(0.0427478 0.000424045 0.00020964)
(0.0428431 0.000594167 0.00028049)
(0.043045 0.000429676 0.000174303)
(0.0431596 0.000386183 0.00016016)
(0.0432325 0.000302152 0.000132372)
(0.0432626 0.000218442 0.000104152)
(0.0432648 0.00015132 8.11495e-05)
(0.0432523 0.00010261 6.43602e-05)
(0.0432333 6.89678e-05 5.26651e-05)
(0.043212 4.62798e-05 4.45062e-05)
(0.0431905 3.11512e-05 3.86515e-05)
(0.0431697 2.11394e-05 3.42475e-05)
(0.0431501 1.45492e-05 3.08753e-05)
(0.0431317 1.02293e-05 2.82423e-05)
(0.0431146 7.42753e-06 2.60941e-05)
(0.0430986 5.67145e-06 2.45098e-05)
(0.0430832 4.66467e-06 2.3772e-05)
(0.0430679 4.20011e-06 2.38746e-05)
(0.0430522 4.13744e-06 2.45496e-05)
(0.0430358 4.3999e-06 2.5548e-05)
(0.0430186 5.0189e-06 2.66101e-05)
(0.0430009 6.14426e-06 2.76126e-05)
(0.0429829 8.00061e-06 2.85702e-05)
(0.0429645 1.09192e-05 2.98177e-05)
(0.0429457 1.53901e-05 3.18372e-05)
(0.042926 2.21231e-05 3.50401e-05)
(0.042905 3.21535e-05 3.96437e-05)
(0.042883 4.70794e-05 4.59026e-05)
(0.0428607 6.93602e-05 5.44597e-05)
(0.0428404 0.000102525 6.62878e-05)
(0.0428266 0.000150869 8.276e-05)
(0.0428279 0.000217849 0.000105101)
(0.0428576 0.000301635 0.00013275)
(0.0429304 0.000385892 0.000160242)
(0.0430451 0.000257908 0.000107955)
(0.0431191 0.000239533 0.000102962)
(0.0431744 0.000198191 9.14281e-05)
(0.0432062 0.000151706 7.79502e-05)
(0.0432186 0.000110499 6.553e-05)
(0.0432178 7.80773e-05 5.55043e-05)
(0.0432088 5.42298e-05 4.78753e-05)
(0.0431951 3.73674e-05 4.20577e-05)
(0.043179 2.57027e-05 3.74877e-05)
(0.0431619 1.77257e-05 3.377e-05)
(0.0431449 1.23025e-05 3.07378e-05)
(0.0431283 8.6516e-06 2.82423e-05)
(0.0431124 6.2648e-06 2.61555e-05)
(0.0430972 4.79157e-06 2.46215e-05)
(0.0430825 3.97507e-06 2.39567e-05)
(0.0430677 3.63763e-06 2.41647e-05)
(0.0430523 3.64487e-06 2.49647e-05)
(0.0430362 3.89484e-06 2.60185e-05)
(0.0430194 4.37847e-06 2.70192e-05)
(0.0430023 5.23079e-06 2.7883e-05)
(0.0429851 6.70535e-06 2.86857e-05)
(0.042968 9.1101e-06 2.98038e-05)
(0.0429509 1.28141e-05 3.16972e-05)
(0.0429338 1.83187e-05 3.4658e-05)
(0.0429164 2.63342e-05 3.8671e-05)
(0.0428996 3.7904e-05 4.36496e-05)
(0.0428848 5.45026e-05 4.97181e-05)
(0.0428745 7.7988e-05 5.72307e-05)
(0.0428725 0.000110121 6.67464e-05)
(0.0428843 0.000151236 7.84877e-05)
(0.0429159 0.000197808 9.15109e-05)
(0.0429711 0.00023933 0.000102906)
(0.0430287 0.000138712 7.78342e-05)
(0.0430834 0.000130882 7.57865e-05)
(0.0431281 0.000111744 7.05005e-05)
(0.0431584 8.85447e-05 6.35514e-05)
(0.0431747 6.6587e-05 5.64256e-05)
(0.0431795 4.83442e-05 5.01167e-05)
(0.0431761 3.4332e-05 4.49021e-05)
(0.0431669 2.40997e-05 4.0603e-05)
(0.0431543 1.68435e-05 3.69299e-05)
(0.0431398 1.17602e-05 3.3657e-05)
(0.0431245 8.21389e-06 3.07586e-05)
(0.0431092 5.77774e-06 2.8248e-05)
(0.0430942 4.18072e-06 2.61557e-05)
(0.0430798 3.21588e-06 2.46889e-05)
(0.0430655 2.70106e-06 2.41296e-05)
(0.0430511 2.51028e-06 2.44884e-05)
(0.0430359 2.54383e-06 2.54453e-05)
(0.04302 2.71383e-06 2.65693e-05)
(0.0430035 2.9991e-06 2.74691e-05)
(0.0429867 3.50594e-06 2.81045e-05)
(0.0429702 4.44468e-06 2.87239e-05)
(0.0429541 6.02667e-06 2.97672e-05)
(0.0429384 8.46372e-06 3.16233e-05)
(0.042923 1.20458e-05 3.44837e-05)
(0.0429081 1.71735e-05 3.81562e-05)
(0.0428946 2.44098e-05 4.23218e-05)
(0.0428843 3.45086e-05 4.68416e-05)
(0.0428795 4.8301e-05 5.17637e-05)
(0.0428834 6.63686e-05 5.74244e-05)
(0.0428991 8.82822e-05 6.38928e-05)
(0.0429292 0.000111548 7.04919e-05)
(0.0429739 0.000130787 7.57199e-05)
(0.0343518 4.38654e-05 6.57998e-05)
(0.0343986 4.16566e-05 6.4673e-05)
(0.0344385 3.60655e-05 6.15593e-05)
(0.0344674 2.90435e-05 5.71077e-05)
(0.0344848 2.21797e-05 5.21699e-05)
(0.0344919 1.63196e-05 4.74957e-05)
(0.0344909 1.17177e-05 4.33832e-05)
(0.0344839 8.30309e-06 3.98338e-05)
(0.034473 5.85292e-06 3.66538e-05)
(0.0344597 4.11571e-06 3.36362e-05)
(0.0344453 2.88639e-06 3.07911e-05)
(0.0344307 2.03225e-06 2.824e-05)
(0.0344163 1.47218e-06 2.61382e-05)
(0.0344023 1.13909e-06 2.47372e-05)
(0.0343883 9.65743e-07 2.42656e-05)
(0.0343741 9.05027e-07 2.472e-05)
(0.0343591 9.2111e-07 2.57727e-05)
(0.0343433 9.7843e-07 2.69157e-05)
(0.0343269 1.06782e-06 2.77052e-05)
(0.0343104 1.23267e-06 2.81653e-05)
(0.0342943 1.55507e-06 2.86822e-05)
(0.0342787 2.10793e-06 2.97129e-05)
(0.0342637 2.95672e-06 3.15627e-05)
(0.0342492 4.1955e-06 3.43729e-05)
(0.0342356 5.95332e-06 3.78728e-05)
(0.0342238 8.40534e-06 4.16233e-05)
(0.0342155 1.17806e-05 4.5395e-05)
(0.0342132 1.63092e-05 4.91197e-05)
(0.0342194 2.21124e-05 5.30908e-05)
(0.0342363 2.89642e-05 5.73958e-05)
(0.0342651 3.60108e-05 6.15666e-05)
(0.034305 4.16323e-05 6.46389e-05)
)
;
    }
    procBoundary1to2
    {
        type            processor;
        value           nonuniform List<vector> 
256
(
(0.0343575 5.77533e-05 0.000616222)
(0.0344856 5.20374e-05 0.000546246)
(0.0345624 4.09764e-05 0.000424632)
(0.0345915 2.96459e-05 0.000316488)
(0.0345928 2.06045e-05 0.000231449)
(0.0345812 1.40671e-05 0.000177796)
(0.0345621 9.69551e-06 0.000144513)
(0.0345389 6.5208e-06 0.000126214)
(0.0345113 4.39739e-06 0.000117396)
(0.0344828 2.14796e-06 0.000105686)
(0.0344578 6.70235e-07 9.48758e-05)
(0.0344371 3.48028e-07 8.22531e-05)
(0.0344205 1.78629e-07 7.27073e-05)
(0.0344071 2.2538e-07 6.41448e-05)
(0.0343973 8.69469e-07 5.80976e-05)
(0.0343891 8.69023e-07 5.90006e-05)
(0.034379 1.78694e-08 6.71574e-05)
(0.0343598 -8.28836e-07 8.4511e-05)
(0.0343321 2.2181e-07 8.74056e-05)
(0.0343082 2.57021e-06 7.67514e-05)
(0.0342917 3.75581e-06 6.97983e-05)
(0.0342775 3.99659e-06 7.19278e-05)
(0.034261 4.13101e-06 7.94034e-05)
(0.0342411 4.3091e-06 9.01043e-05)
(0.03422 5.30014e-06 0.000100814)
(0.0341995 7.41537e-06 0.000118047)
(0.0341763 1.04224e-05 0.000149971)
(0.0341494 1.48268e-05 0.000192651)
(0.0341272 2.06087e-05 0.000248321)
(0.0341226 2.8902e-05 0.000325143)
(0.0341515 3.99493e-05 0.000429199)
(0.0342291 5.11953e-05 0.000548304)
(0.0430353 0.000144843 0.000511815)
(0.043146 0.000131905 0.000466874)
(0.0432173 0.000105998 0.000376649)
(0.0432485 7.84877e-05 0.000288736)
(0.0432546 5.56715e-05 0.000215817)
(0.0432477 3.89379e-05 0.000168507)
(0.0432319 2.71861e-05 0.000139826)
(0.0432109 1.80279e-05 0.000123783)
(0.0431841 1.1312e-05 0.000117985)
(0.0431563 6.14904e-06 0.000103255)
(0.0431332 2.79442e-06 9.05007e-05)
(0.0431137 2.3507e-06 7.8917e-05)
(0.0430974 2.54309e-06 6.88862e-05)
(0.0430849 2.48967e-06 6.0509e-05)
(0.043075 3.01564e-06 5.83781e-05)
(0.0430652 3.20681e-06 5.9459e-05)
(0.0430543 1.27681e-06 6.4968e-05)
(0.0430369 -9.62366e-07 7.87808e-05)
(0.0430124 1.45374e-06 8.42917e-05)
(0.0429886 6.50431e-06 8.10988e-05)
(0.04297 9.39788e-06 7.55531e-05)
(0.0429547 1.04215e-05 7.59463e-05)
(0.042938 1.15494e-05 8.15322e-05)
(0.042919 1.32634e-05 8.87063e-05)
(0.0428997 1.70468e-05 9.69861e-05)
(0.0428813 2.24219e-05 0.000114348)
(0.0428603 2.9972e-05 0.000144947)
(0.0428362 4.0684e-05 0.000185685)
(0.0428178 5.54485e-05 0.000233054)
(0.0428185 7.67385e-05 0.000295592)
(0.0428504 0.0001042 0.000378179)
(0.0429236 0.000130597 0.000465914)