/*--------------------------------*- C++ -*----------------------------------*\
| =========                 |                                                 |
| \\      /  F ield         | OpenFOAM: The Open Source CFD Toolbox           |
|  \\    /   O peration     | Version:  2506                                  |
|   \\  /    A nd           | Website:  www.openfoam.com                      |
|    \\/     M anipulation  |                                                 |
\*---------------------------------------------------------------------------*/
FoamFile
{
    version     2.0;
    format      ascii;
    arch        "LSB;label=32;scalar=64";
    class       volScalarField;
    location    "0.002";
    object      Ksl;
}
// * * * * * * * * * * * * * * * * * * * * * * * * * * * * * * * * * * * * * //

dimensions      [1 -3 -1 0 0 0 0];

internalField   nonuniform List<scalar> 
512
(
0
0
1.11542
0
0
0
0
0
0
0
0
0
0
0
0
0
0
0
0
0
0
0
0
0
0
0
0
0
0
0
0
0
0
0
0
0
0
0
0
0
0
0
0
0
0
1.21689
0
0
0
0
0
0
0
0
0
0
0
0
0
0
0
0
0
0
0
0
0
0
0
0
0
0
0
0
0
0
0
0
0
0
0
1.21845
0
0
0
0
0
0
0
0
0
0
0
0
0
0
0
0
0
0
0
0
0
0
0
0
0
0
0
0
0
0
0
0
0
0
0
0
0
0
0
0
0
0
0
2.31221
0
0
0
0
0
0
0.731078
0
0
0
0
0
0
0
0
0
0
0
0
0
2.3177
0
0
0
0
0
0
0
0
0
0
0
0
0
0
0
0
0
0
0
0.121868
0
0
0
0
0
0
0
0
0
0
0
0
0
0
0
0
0
1.21854
0
0
0
0
0
0
0
0
0
0
0
0
0
0
0
0
0
0
0
0
0
2.31066
0
0
0
0
0
0
0
0
0
0
0
0
0
0
0
0
0
0
0
0
0
0
0
0
0
0
0
0
0
0
0
0
0
0
0
0
0
0
0
0
0
0
0
0
0
0.603597
0
0
0
1.05751
5.9181
1.95496
0.829746
2.35478
8.4576
5.90816
5.96799
5.55236
1.74929
7.2156
5.91131
2.72683
6.26015
3.72135
4.40777
7.83912
11.7085
1.45528
3.39652
4.20391
8.02566
10.9407
0.0968329
6.77657
8.57308
3.66981
1.2801
6.70846
7.10103
0.210666
6.65595
3.74656
7.05552
3.16075
9.23395
5.07813
14.2728
15.0947
4.3979
12.4133
4.30923
1.04396
4.95931
7.12741
6.56733
5.22826
4.39124
10.4417
10.6286
9.51989
13.7387
4.95142
6.94027
10.0667
10.6254
9.93804
7.4172
0.492662
9.95661
12.3586
2.66855
7.44846
6.77953
7.39157
20.6276
9.04118
2.42102
7.07744
10.276
10.5234
4.99955
2.13145
15.5136
3.96926
7.86061
5.2897
7.87311
7.23462
11.1577
3.53552
6.13703
2.3989
3.73869
5.49435
8.26092
7.07428
6.87704
5.47649
10.6037
13.5921
10.7335
0.0526069
0.0828977
21.0356
0
1.67429
3.53708
6.10705
4.91211
7.93557
12.319
7.11393
8.97649
8.41571
6.62536
0.308301
14.2856
3.93459
0.713297
6.72318
11.0844
3.84611
8.3336
7.53278
16.6815
5.38881
13.0385
6.1401
0.769162
6.71531
11.5084
5.67852
10.9327
6.64082
8.63763
8.98805
3.52778
2.31364
10.1326
8.14083
7.3736
6.45384
9.86844
11.4969
11.1178
11.3904
7.96136
21.0462
10.1715
4.12784
7.07952
8.84014
8.11972
3.39141
7.51485
8.19234
11.3969
9.9489
10.8547
12.9301
7.16912
10.8692
6.29176
11.997
7.64349
1.82252
7.7425
1.42221
12.3835
8.34756
4.60516
9.20442
4.29293
7.08224
9.94721
12.8765
7.09777
6.39219
7.88456
1.90112
0.540863
11.5747
10.8634
8.72919
16.5138
7.426
0.541955
7.25881
12.7984
0.727249
0
2.60879
3.72129
5.94447
1.22953
0.104977
3.77064
10.7848
1.15098
9.93127
13.9421
4.20652
7.18516
13.3238
10.9684
7.5882
5.70844
6.87773
7.98813
5.74266
11.0287
7.57989
4.07206
1.43026
7.18462
14.6559
8.55396
11.115
11.3022
3.71438
4.76033
0.205465
8.4053
14.3238
10.0031
5.56102
17.7981
8.45061
1.94182
0
8.44918
3.17527
6.10363
0.0395112
0.896479
5.49125
7.90127
3.0734
4.25906
6.5417
1.56077
2.21731
13.0997
0.40366
2.80332
6.1823
3.93098
4.25636
3.12653
3.22334
3.35368
0.458698
7.34071
8.15046
3.57068
6.1518
7.4413
6.40109
4.99577
4.4057
11.6656
5.74769
4.85475
14.4005
0.384015
)
;

boundaryField
{
    wall
    {
        type            zeroGradient;
    }
    outlet
    {
        type            cyclic;
    }
    inlet
    {
        type            cyclic;
    }
    procBoundary3to2
    {
        type            processor;
        value           uniform 0;
    }
}


// ************************************************************************* //
