FoamFile
{version 2.0; format ascii;class vectorField; location 0;object  v;}
2499
(
( -8.96515e-05 -4.50636e-05 -5.20702e-06 )  
( -0.000101392 -0.000104688 0.000104804 )  
( -1.43063e-05 -5.53959e-05 6.44852e-05 )  
( -2.21721e-05 -1.87401e-06 6.43763e-05 )  
( -4.1044e-05 -2.52395e-05 8.68418e-05 )  
( -2.96549e-05 -0.000215471 0.000146018 )  
( 5.03067e-06 -6.12832e-05 2.51851e-05 )  
( -8.5621e-06 -1.07366e-05 -9.40155e-06 )  
( -4.08908e-05 -5.47484e-05 0.000147944 )  
( -1.9269e-05 -1.51853e-05 0.000101756 )  
( 1.35577e-05 -0.000100451 5.1132e-05 )  
( 1.68913e-05 -2.0593e-05 0.000136629 )  
( -3.10897e-05 5.99988e-05 0.000138429 )  
( 5.53547e-05 -4.36951e-05 1.13325e-05 )  
( 5.43032e-05 2.50875e-06 0.000100511 )  
( -3.13611e-05 -3.06109e-05 8.17249e-05 )  
( 5.16095e-05 -3.20702e-05 -6.31138e-07 )  
( -2.18968e-05 4.50534e-05 0.000144622 )  
( -6.48805e-05 2.68787e-06 0.000283382 )  
( -1.04797e-05 1.00197e-06 -9.54887e-07 )  
( 2.07823e-05 -4.45706e-05 -6.7439e-06 )  
( -5.6328e-05 -3.05775e-05 1.46714e-05 )  
( -2.7283e-05 -2.88186e-05 0.000161192 )  
( -1.46626e-05 -5.93242e-05 7.16773e-07 )  
( -0.000118236 -0.000106033 0.000150333 )  
( -1.36527e-05 -1.13742e-05 1.98934e-05 )  
( 4.43385e-06 8.40616e-06 5.30144e-06 )  
( -5.77725e-05 -1.06112e-05 0.000183399 )  
( 8.74486e-06 -3.26649e-05 0.000180584 )  
( 7.04392e-06 -3.43224e-05 5.3967e-05 )  
( -3.76419e-05 3.67786e-05 5.13051e-05 )  
( -0.000114042 -9.2796e-05 0.000103905 )  
( -4.53651e-05 -6.27195e-05 0.000146429 )  
( -2.99168e-05 -4.13334e-05 0.000201349 )  
( -1.50186e-05 -3.57863e-06 0.000110605 )  
( -9.06472e-06 1.40533e-05 1.45066e-05 )  
( -1.31729e-05 -8.9964e-05 1.42937e-05 )  
( -2.97815e-05 1.20931e-05 2.3404e-05 )  
( -2.33179e-05 -1.49117e-05 2.18141e-05 )  
( -3.45739e-05 -1.72715e-05 0.000129779 )  
( -0.000136273 -5.8246e-05 0.000107666 )  
( -7.7554e-05 -4.32715e-05 0.000131117 )  
( -7.20762e-05 -8.5493e-05 0.000159848 )  
( -1.51254e-05 -2.62903e-06 9.77247e-05 )  
( -2.46503e-05 -1.03341e-05 0.000132678 )  
( -8.26929e-06 -3.16886e-05 1.34871e-06 )  
( 4.40686e-05 0.000161102 -5.51402e-07 )  
( -9.9221e-05 -7.00723e-05 -0.000217528 )  
( -3.2614e-05 -4.52781e-05 3.70605e-05 )  
( -6.8015e-05 -4.25289e-05 0.000120106 )  
( -3.72846e-05 3.64428e-05 0.000146746 )  
( 1.86931e-06 -3.4166e-05 7.74172e-05 )  
( 5.42566e-05 1.6267e-05 5.5995e-05 )  
( -9.1341e-05 -9.00216e-05 9.38939e-05 )  
( 0.00133474 0.000916502 -2.06523e-07 )  
( 5.2259e-05 8.13315e-05 -2.11106e-06 )  
( 5.30159e-06 -9.60394e-07 1.95202e-06 )  
( -1.44202e-05 -1.51086e-05 9.11738e-05 )  
( -8.07478e-05 3.12319e-05 4.40004e-05 )  
( 8.64415e-06 -3.35924e-05 0.000169186 )  
( -7.54737e-05 -1.87476e-05 7.14456e-05 )  
( 3.72993e-05 -5.66427e-05 0.000142706 )  
( -3.69405e-05 -3.52845e-05 9.34465e-06 )  
( 4.05149e-05 -3.19233e-05 0.000127353 )  
( -2.27358e-05 -4.19716e-05 0.000131613 )  
( -1.36609e-05 -8.14352e-05 5.28631e-05 )  
( -8.56684e-07 -4.24853e-05 0.000148334 )  
( -2.36021e-05 -9.09041e-05 3.5243e-05 )  
( 1.86642e-05 1.08717e-06 9.35095e-05 )  
( -0.000140884 4.46267e-05 0.00014709 )  
( -0.00012785 -9.30947e-05 3.46356e-05 )  
( 6.65141e-06 -2.17422e-06 1.49294e-05 )  
( -3.58164e-05 -4.3084e-05 8.57957e-05 )  
( 4.11853e-05 -9.36203e-05 0.00012036 )  
( 4.11514e-05 -4.84782e-05 8.17174e-05 )  
( 5.97614e-05 -5.29847e-05 6.1151e-05 )  
( -3.06498e-05 1.68523e-05 4.2004e-05 )  
( -5.68542e-05 -2.56165e-05 -6.50311e-05 )  
( 3.75844e-05 1.42041e-05 0.000110672 )  
( 4.71823e-05 -5.71003e-05 1.83904e-05 )  
( -2.40286e-05 -4.32896e-05 0.000156789 )  
( -6.7286e-06 -3.00513e-06 1.95858e-05 )  
( -5.07808e-05 -7.21099e-05 4.03081e-05 )  
( 0.000111915 -2.53826e-06 7.0196e-05 )  
( -8.92861e-05 7.58105e-05 7.8466e-05 )  
( -2.74866e-05 0.000724088 -1.32254e-07 )  
( -5.47312e-05 0.000140294 0.000193435 )  
( -1.99343e-05 1.08533e-05 2.51657e-05 )  
( 3.72337e-06 -1.95429e-05 0.000181084 )  
( -5.00716e-05 0.00222439 -1.83549e-07 )  
( -8.75297e-05 0.000129533 6.89272e-05 )  
( 8.47485e-05 -3.62038e-05 5.14503e-05 )  
( -4.16234e-05 -9.82081e-05 4.13148e-06 )  
( -3.6494e-06 -4.83115e-05 6.89155e-05 )  
( -1.2133e-05 3.78251e-05 -6.39616e-06 )  
( 8.84659e-05 3.13655e-05 0.000170183 )  
( 8.39401e-05 9.3141e-05 -0.000147022 )  
( 5.49475e-05 -2.03263e-05 6.61094e-05 )  
( -6.5726e-06 1.68642e-05 3.99958e-05 )  
( -0.000105182 -0.000155798 7.55654e-05 )  
( 0.000120838 7.14373e-05 -2.24e-05 )  
( -0.000152638 -1.32706e-05 2.24559e-05 )  
( -9.5456e-06 1.2513e-05 2.38007e-05 )  
( 6.51581e-06 -0.000161237 1.30465e-06 )  
( -0.000145855 -3.63223e-05 -0.000175376 )  
( -5.68493e-05 1.9046e-05 8.30385e-05 )  
( -6.85384e-06 -1.01251e-05 4.13754e-05 )  
( 1.82512e-05 -4.52156e-05 3.08891e-05 )  
( -3.94846e-05 5.92108e-05 0.00013062 )  
( 7.82803e-05 -3.16701e-05 1.18179e-05 )  
( -5.27875e-05 -3.51698e-05 -3.29738e-06 )  
( -2.78781e-05 -7.80369e-05 0.000174124 )  
( -6.99326e-05 -2.88327e-05 4.58059e-05 )  
( 4.33775e-06 1.40603e-05 0.000324601 )  
( 6.1945e-06 -0.000126769 9.03843e-05 )  
( 9.38533e-06 5.31201e-05 1.29117e-05 )  
( 7.20019e-05 -3.11373e-05 0.000144226 )  
( 1.26201e-05 2.15267e-05 6.36454e-05 )  
( -8.43106e-05 -0.00010782 -2.26247e-05 )  
( 1.64998e-05 -4.13691e-05 0.000171581 )  
( -5.03436e-05 -0.000119778 0.000210654 )  
( -6.11112e-05 -0.000104527 -1.28234e-05 )  
( -2.96643e-05 -6.93532e-05 4.20599e-05 )  
( -5.99199e-05 -0.000123577 -8.63562e-06 )  
( 1.61087e-05 2.62131e-05 0.000136691 )  
( -0.00012105 2.98828e-05 0.000126556 )  
( -8.09773e-05 4.92857e-05 -2.10042e-05 )  
( -2.6508e-05 4.0633e-05 1.94552e-05 )  
( -1.89515e-05 -6.51034e-05 8.32232e-05 )  
( -4.70594e-05 -2.4434e-05 1.77712e-05 )  
( 1.44559e-05 -1.72089e-05 0.000116162 )  
( -2.58161e-05 -6.21357e-05 0.000172722 )  
( -2.98675e-06 -0.000227556 -1.43278e-05 )  
( 1.59637e-05 1.77837e-05 3.4673e-05 )  
( 3.52918e-06 -0.00018377 0.000217051 )  
( 2.53439e-05 -3.28417e-05 6.3332e-06 )  
( -8.28906e-06 5.0913e-06 0.000133265 )  
( 2.33753e-05 -2.72798e-05 0.000108372 )  
( -2.16457e-05 4.83069e-05 0.00010929 )  
( -5.61069e-06 -6.00757e-06 5.45683e-05 )  
( -7.06381e-05 1.15244e-05 -1.69777e-05 )  
( -1.96765e-06 -4.39844e-06 1.89777e-05 )  
( 2.89711e-05 1.78711e-05 -1.86981e-05 )  
( -0.00014687 -4.11365e-05 1.2928e-05 )  
( -2.3695e-05 -3.16968e-07 7.91094e-05 )  
( -6.19606e-06 1.4139e-06 7.7107e-05 )  
( 4.50346e-05 5.7093e-05 0.0001365 )  
( -1.56837e-06 -4.00948e-05 0.000167016 )  
( -6.19341e-05 -9.27376e-05 0.000190932 )  
( -1.6174e-05 -8.38972e-05 2.45937e-05 )  
( -4.84988e-06 -1.67031e-05 4.7029e-05 )  
( 3.62929e-05 -4.86299e-07 5.15631e-05 )  
( -1.26862e-05 -3.51371e-05 9.70709e-06 )  
( -2.64227e-05 -1.20055e-05 -3.64116e-06 )  
( -1.21648e-05 2.06261e-06 0.000134729 )  
( 2.95928e-05 -2.21138e-05 0.00016006 )  
( 4.87461e-05 -2.09193e-05 2.68427e-05 )  
( -3.35349e-05 -0.000151096 0.000177516 )  
( -9.30619e-06 2.92864e-06 8.8563e-05 )  
( -6.14947e-05 -0.000114 8.38126e-05 )  
( 7.94182e-05 -0.000189029 0.000106122 )  
( -3.89831e-05 3.00817e-05 8.33538e-05 )  
( 3.19334e-06 -7.8512e-06 2.78951e-05 )  
( -1.56389e-05 -0.000122383 -4.80776e-05 )  
( -0.00011815 -7.99315e-05 -2.65776e-06 )  
( -2.10463e-05 2.46642e-05 5.19146e-07 )  
( 8.20604e-05 -6.24399e-05 0.000120335 )  
( 1.06821e-05 -4.74121e-06 2.61735e-05 )  
( -8.67041e-05 -5.48604e-05 0.000161717 )  
( 2.30196e-05 -4.37743e-05 9.95311e-05 )  
( -3.65574e-05 -3.91011e-05 1.20656e-05 )  
( -0.000114484 -0.000115797 4.94196e-05 )  
( -8.3882e-06 -2.94579e-05 0.000116931 )  
( -1.46275e-05 5.39147e-06 3.01076e-05 )  
( -2.54743e-05 -0.000225684 3.28648e-05 )  
( -3.01261e-07 -1.05532e-05 6.08121e-05 )  
( 3.83252e-05 -0.000148379 -5.20217e-05 )  
( -2.88141e-05 -1.60674e-05 6.16549e-05 )  
( -6.63468e-05 -4.09265e-05 -9.7312e-05 )  
( -3.22149e-05 -3.27322e-05 -2.25939e-05 )  
( -8.18495e-05 -6.34831e-05 0.000127539 )  
( 3.15156e-06 5.50166e-06 6.65083e-06 )  
( 4.83048e-05 -0.000177283 6.59549e-05 )  
( -2.74178e-05 -4.82444e-06 5.82499e-05 )  
( -5.04263e-05 1.92577e-05 -1.46915e-06 )  
( -8.37516e-05 3.39928e-05 9.67969e-05 )  
( 1.54241e-05 -6.97105e-05 0.000113772 )  
( -4.98511e-05 -0.00015406 1.52971e-05 )  
( -1.95461e-05 -3.61018e-05 9.96662e-05 )  
( 5.74426e-05 -4.9528e-05 0.000110994 )  
( -1.62437e-06 -1.22952e-05 0.000143205 )  
( -1.57354e-05 4.09826e-05 3.62948e-05 )  
( -1.72387e-05 1.01068e-05 1.2343e-05 )  
( -2.71188e-05 3.87686e-05 1.04146e-05 )  
( 7.75162e-06 -2.86747e-05 -4.4662e-05 )  
( 0.00109234 -1.51015e-05 -1.88134e-07 )  
( -4.35978e-06 2.28174e-06 5.2993e-06 )  
( -3.2044e-05 -1.94246e-06 3.60244e-05 )  
( -6.27612e-05 -0.00010411 0.000198054 )  
( -2.75657e-05 -6.47289e-05 0.000159705 )  
( 3.29556e-07 -6.51936e-05 0.000117305 )  
( -3.27728e-06 -3.96933e-06 3.58117e-05 )  
( -5.69473e-06 4.43328e-06 3.94679e-05 )  
( 1.33342e-05 -2.47817e-05 0.000106339 )  
( 9.29309e-05 -4.82888e-05 8.80809e-05 )  
( -2.88374e-05 -1.91358e-05 3.6679e-05 )  
( 9.60617e-05 -6.77558e-05 5.37155e-05 )  
( -4.56706e-05 -0.000120591 -0.000118867 )  
( -4.34703e-05 -7.8151e-06 3.84121e-05 )  
( 6.01086e-06 -5.35506e-05 0.000130163 )  
( 7.74136e-07 -3.75073e-07 3.91338e-06 )  
( -0.000137824 -0.000137775 0.000187671 )  
( 7.10862e-06 -2.85279e-05 9.74347e-05 )  
( 3.8717e-06 -7.05159e-05 1.36977e-05 )  
( 3.23652e-05 -8.89007e-05 1.63623e-05 )  
( -5.24355e-05 -3.3349e-05 0.000157946 )  
( 1.46159e-05 -3.93887e-05 8.33066e-05 )  
( 1.82035e-05 1.58618e-05 1.4751e-05 )  
( -2.02542e-05 -3.09211e-05 0.000105317 )  
( 6.97809e-05 -0.000104262 0.000102513 )  
( 1.46656e-05 3.0985e-05 4.42237e-05 )  
( -7.17536e-05 -9.63726e-06 3.01982e-05 )  
( 3.84377e-06 -4.04713e-05 0.000117932 )  
( -4.61869e-05 1.10242e-05 0.000168674 )  
( -2.56726e-06 -0.00017723 0.000176206 )  
( -1.1372e-05 8.12886e-06 3.02474e-05 )  
( 8.64636e-05 3.39482e-05 -3.36005e-05 )  
( -2.81768e-05 -7.05023e-05 0.000140421 )  
( -5.87412e-06 3.17938e-06 0.000138638 )  
( -4.43464e-05 1.76758e-06 3.61794e-05 )  
( -2.58506e-05 -1.07159e-05 8.96354e-05 )  
( 1.46852e-05 -9.82546e-05 0.000110328 )  
( 3.71087e-05 -2.96712e-06 9.63244e-06 )  
( 0.000239556 0.000183505 -3.30151e-05 )  
( 6.90295e-05 4.84595e-06 -4.41671e-05 )  
( -4.58286e-05 -0.000119279 5.25862e-06 )  
( -2.43695e-05 -9.63486e-05 7.64896e-05 )  
( -4.40151e-05 1.99676e-05 9.3115e-05 )  
( -3.16519e-06 -2.55088e-05 4.63117e-05 )  
( -3.55089e-05 1.8859e-06 3.30305e-05 )  
( -3.18911e-05 -0.000124676 7.96695e-05 )  
( -7.323e-05 -2.8297e-06 8.19339e-05 )  
( 7.5626e-05 -5.02697e-05 0.000140576 )  
( 0.0001071 0.00016706 1.44611e-05 )  
( -4.37327e-05 9.52462e-06 7.90885e-05 )  
( 4.10645e-05 -8.41618e-06 0.000187127 )  
( -6.2927e-06 -9.5022e-05 0.000120813 )  
( -5.77198e-06 -0.000126335 1.36693e-05 )  
( -0.000129322 3.62082e-05 -7.14109e-05 )  
( -9.56444e-05 6.30935e-05 0.000158723 )  
( 1.65529e-06 4.6801e-06 4.30214e-05 )  
( 1.44968e-05 5.54828e-05 7.96584e-05 )  
( -0.00010926 3.74699e-05 2.99716e-05 )  
( -5.34897e-05 5.13222e-05 0.000166507 )  
( 3.47609e-05 -9.47156e-05 3.96266e-05 )  
( 6.06762e-05 6.59073e-06 -1.99069e-06 )  
( -2.74538e-05 -0.000216713 8.03214e-05 )  
( 8.19711e-05 -8.20421e-05 0.000269967 )  
( 4.11328e-07 3.17712e-06 7.31741e-05 )  
( 2.6464e-05 -2.44439e-05 6.21762e-05 )  
( -5.24155e-06 -8.72451e-05 2.56695e-05 )  
( -1.94565e-05 -5.87288e-05 0.000134167 )  
( -1.12436e-05 -4.39365e-05 2.22294e-05 )  
( 4.21312e-05 -5.36206e-06 3.194e-05 )  
( 1.62774e-05 -4.04322e-05 8.95824e-05 )  
( 1.16332e-05 -2.312e-05 -9.94941e-06 )  
( -2.98128e-05 -6.59704e-05 0.000174254 )  
( -5.94607e-05 -3.33647e-06 3.15445e-05 )  
( -4.04504e-05 -2.01165e-05 8.22792e-05 )  
( -5.40677e-05 -4.4227e-05 0.00014823 )  
( -2.41026e-05 -7.38672e-05 0.000100454 )  
( -4.68045e-05 -7.12215e-06 1.1987e-06 )  
( -1.42584e-05 -1.03554e-05 2.7945e-05 )  
( -5.32744e-05 -8.18868e-05 6.28148e-05 )  
( 1.81811e-05 9.63432e-06 8.37303e-06 )  
( 8.75459e-05 -6.56985e-05 0.000132732 )  
( 2.76277e-05 -2.83493e-05 0.00020968 )  
( 4.17393e-05 -3.92288e-05 0.000118515 )  
( 4.06124e-06 4.52376e-06 8.41897e-06 )  
( -6.2095e-06 -7.58411e-05 0.000117694 )  
( -6.51896e-05 -0.00010557 5.01066e-05 )  
( -0.000143311 -1.80211e-05 -4.67163e-05 )  
( 3.06019e-05 -4.31858e-05 0.00018031 )  
( -1.21794e-05 -4.99442e-05 0.000132502 )  
( -7.14168e-06 -3.32278e-06 3.29881e-05 )  
( -8.33238e-06 1.22067e-05 9.43645e-06 )  
( -2.49103e-06 -4.92592e-05 7.33523e-05 )  
( 1.32452e-05 -7.36576e-06 5.55235e-05 )  
( -4.69472e-05 -2.78357e-05 4.71931e-05 )  
( -8.57181e-05 -9.72171e-05 0.000139836 )  
( -9.1608e-06 2.0663e-05 2.24914e-05 )  
( 2.50746e-05 2.94464e-06 9.30978e-05 )  
( 2.31248e-05 -3.63312e-05 0.000130502 )  
( -5.80871e-05 -4.80913e-05 3.22696e-05 )  
( 0.000128887 -6.01627e-05 -4.05857e-07 )  
( 2.6713e-05 -1.58589e-05 0.000125084 )  
( -2.82775e-05 2.05794e-05 -1.96707e-05 )  
( -4.93848e-05 4.99197e-05 -1.7959e-05 )  
( -4.90602e-05 4.55826e-05 6.82876e-06 )  
( -4.85451e-05 -3.93527e-05 0.000118331 )  
( 2.85315e-05 -3.95955e-07 -3.38813e-05 )  
( -8.47187e-05 -1.34772e-05 -2.25271e-06 )  
( -4.02702e-05 -9.43833e-05 0.000122874 )  
( 5.43585e-06 -3.39896e-05 0.000111857 )  
( 1.66737e-05 2.38083e-05 3.33053e-05 )  
( -9.05765e-06 -2.35251e-05 0.000138701 )  
( -0.000140602 -0.000121417 0.000180015 )  
( -4.23004e-05 -0.000130636 3.56363e-05 )  
( -2.91696e-05 -5.42551e-05 0.000171435 )  
( -0.000125801 -9.29185e-05 -2.49023e-05 )  
( -1.83057e-05 -1.68153e-05 4.31867e-05 )  
( -4.40838e-05 -0.000125449 1.99385e-06 )  
( -9.48174e-06 -4.42254e-05 1.54099e-05 )  
( -6.68162e-06 -3.73277e-05 8.24459e-05 )  
( -2.06434e-06 -7.1821e-05 0.000149747 )  
( 3.08127e-05 -8.08787e-05 0.000146838 )  
( 8.65251e-06 -6.92274e-05 7.20293e-05 )  
( -1.99001e-06 -6.94709e-05 0.0001049 )  
( -1.67389e-05 -5.81187e-06 4.20696e-06 )  
( -6.60885e-05 -7.07987e-05 0.000145843 )  
( -1.06285e-05 -0.000101427 1.72395e-05 )  
( 3.75331e-06 -5.73839e-05 3.3659e-05 )  
( 7.47778e-06 -5.82019e-06 8.765e-05 )  
( -2.29328e-05 1.67571e-05 3.92708e-05 )  
( -1.78359e-05 -3.22203e-05 0.000101052 )  
( -0.000141899 -0.000120594 0.000127535 )  
( -2.29958e-05 -3.18886e-05 0.000144712 )  
( -3.44759e-05 -0.000106342 -7.06843e-06 )  
( 4.14934e-06 1.00023e-05 0.000121327 )  
( 5.30421e-06 2.57723e-05 1.59841e-05 )  
( -2.03428e-05 -7.85273e-06 4.21656e-05 )  
( -3.84693e-05 -2.51465e-05 0.000104539 )  
( -1.99623e-05 -5.43854e-07 1.42504e-05 )  
( 3.36979e-05 -4.67705e-06 7.79069e-05 )  
( 6.55421e-06 4.88178e-08 4.19352e-05 )  
( 0.000138664 4.9135e-05 9.97385e-05 )  
( 4.94421e-05 -5.55645e-05 7.82662e-05 )  
( 3.02087e-05 2.44155e-05 5.71145e-06 )  
( 7.05393e-06 -4.16308e-05 7.53553e-05 )  
( 6.37631e-07 -3.45628e-05 1.93955e-05 )  
( 3.28753e-05 -5.81856e-05 9.31236e-05 )  
( -4.23717e-05 5.57422e-05 0.000209847 )  
( 1.86769e-06 -2.73962e-05 0.000125913 )  
( -3.73604e-05 -5.92907e-05 0.000135173 )  
( -8.84654e-06 -4.30848e-05 3.35046e-05 )  
( 0.00218868 0.000884182 -1.36526e-07 )  
( -1.82424e-05 -9.33362e-05 0.000178324 )  
( -4.57486e-05 6.5591e-06 5.08106e-05 )  
( 1.45108e-05 -7.451e-05 8.79342e-06 )  
( -8.8332e-05 1.12387e-05 0.000194371 )  
( -2.08172e-05 -1.10869e-05 -7.14577e-05 )  
( 5.44026e-05 -5.73612e-05 0.000155147 )  
( -8.34901e-06 -1.15524e-05 0.000180193 )  
( 2.85693e-06 8.80883e-05 9.97292e-05 )  
( 2.98147e-05 2.45358e-05 8.55011e-05 )  
( -7.03239e-06 -9.50897e-05 1.72849e-05 )  
( 0.000171886 -0.000156408 0.000112356 )  
( -1.528e-05 5.59762e-07 0.000114152 )  
( -9.17457e-05 -0.000235631 0.000143746 )  
( -7.316e-05 -8.69278e-05 5.96828e-05 )  
( -1.58696e-05 2.4624e-05 8.51439e-05 )  
( -6.25214e-05 -3.61592e-06 7.87984e-06 )  
( -3.55227e-05 -6.77364e-06 4.1275e-05 )  
( 7.6125e-05 -6.07365e-06 0.000199106 )  
( 3.27912e-05 -3.83731e-05 3.30104e-05 )  
( -2.80421e-05 -1.59417e-05 0.000203641 )  
( -1.61216e-05 -1.42157e-05 3.43186e-05 )  
( -1.77328e-05 -3.34183e-05 8.29024e-05 )  
( -1.07496e-05 -6.68026e-05 3.30113e-05 )  
( 1.49389e-05 1.15334e-05 0.000192441 )  
( 4.739e-05 9.93475e-05 6.17445e-05 )  
( -0.000203216 -5.34255e-05 -0.000123193 )  
( -4.4671e-05 -3.74939e-05 3.74682e-08 )  
( 1.02776e-05 -6.00586e-05 3.47047e-06 )  
( 3.81399e-05 5.84276e-06 0.000221163 )  
( 3.68358e-05 -2.76409e-05 2.98403e-05 )  
( -5.74875e-05 -9.319e-05 5.69937e-05 )  
( -3.75184e-06 8.0393e-06 1.66443e-05 )  
( 1.26132e-05 3.34351e-05 2.27888e-05 )  
( -0.000103015 -8.57397e-05 0.000157093 )  
( 0.000657832 -0.000239119 -0.000256203 )  
( -6.8168e-05 -9.6705e-05 6.27009e-05 )  
( -6.28044e-06 1.51538e-06 9.93964e-06 )  
( -7.66499e-05 -0.000103487 5.99511e-05 )  
( -7.90643e-05 2.75627e-05 3.58405e-05 )  
( -7.22259e-06 -2.12308e-05 0.000204398 )  
( 3.32775e-05 7.66981e-05 -2.54624e-05 )  
( 4.77854e-05 -1.34641e-05 0.00010052 )  
( 8.11027e-05 1.51118e-06 0.000133926 )  
( 3.14467e-05 -0.000160263 6.97686e-05 )  
( -4.17585e-05 -1.79531e-05 9.99318e-05 )  
( 4.7986e-06 -9.75911e-05 5.07505e-05 )  
( 1.92946e-05 -1.94254e-05 -4.52292e-06 )  
( -2.98324e-05 -3.68355e-05 6.54192e-05 )  
( -6.02557e-05 -5.91939e-05 3.79979e-05 )  
( -7.42455e-06 -8.59208e-05 0.000111273 )  
( 6.19491e-05 6.72128e-05 0.000219344 )  
( -0.000166456 -5.71438e-05 8.18173e-05 )  
( 3.25172e-05 -1.72518e-05 1.97021e-05 )  
( 0.000880007 0.000352135 -1.97801e-07 )  
( -2.24383e-06 4.9623e-06 1.47837e-05 )  
( -7.00884e-05 8.76625e-05 9.82749e-05 )  
( 1.39511e-06 -1.46701e-05 7.57646e-05 )  
( -5.44581e-06 -3.07401e-05 0.00010484 )  
( -5.11959e-05 -4.36449e-06 4.08351e-05 )  
( 0.000143675 -8.5835e-05 0.000185371 )  
( -3.43173e-05 -5.93973e-06 4.5045e-05 )  
( 1.16497e-05 7.68364e-06 7.19773e-05 )  
( -9.73698e-05 -9.53427e-05 0.000137815 )  
( -0.000104147 -2.94478e-05 7.95742e-05 )  
( -2.8508e-05 1.13097e-05 0.000110623 )  
( -0.000167376 -7.43718e-05 -1.98584e-06 )  
( 4.812e-05 -3.504e-05 9.51529e-05 )  
( 2.70866e-05 -9.15438e-05 0.00017494 )  
( 0.000366418 0.000321249 -2.35567e-07 )  
( -1.82327e-05 -1.07004e-05 -3.38175e-05 )  
( 1.82158e-06 -2.27902e-05 0.000147657 )  
( -4.87443e-05 4.4231e-05 0.000119216 )  
( 4.2981e-05 -1.9225e-05 0.000158636 )  
( -1.8747e-05 -5.69321e-05 -1.11764e-05 )  
( 1.26166e-06 -5.95067e-06 0.000165902 )  
( -7.56261e-05 -0.000126983 1.96646e-05 )  
( -1.58277e-05 -1.90775e-05 0.000109105 )  
( -1.21636e-05 1.56528e-06 0.000113278 )  
( -1.79731e-05 -3.49637e-05 1.8135e-05 )  
( -3.08068e-05 -3.2836e-05 4.73713e-06 )  
( -0.000121532 1.76922e-05 8.25488e-05 )  
( -2.75607e-05 1.22254e-05 1.51611e-05 )  
( -1.08615e-05 -4.71132e-05 0.000124179 )  
( -1.42172e-05 -4.62373e-05 1.14589e-05 )  
( 6.89235e-05 -9.93541e-05 -2.83998e-05 )  
( -1.43224e-05 -3.34071e-05 4.83644e-05 )  
( 9.40375e-06 -0.000120417 0.000117243 )  
( -3.89093e-05 -1.46118e-05 3.10771e-05 )  
( 1.10865e-06 -8.41284e-05 0.000118404 )  
( -1.2284e-06 -1.63022e-05 -0.000164974 )  
( 3.87416e-05 -2.85527e-05 0.000202698 )  
( -3.39316e-05 1.69965e-05 2.42807e-05 )  
( -2.96846e-05 1.25617e-05 8.79207e-05 )  
( -4.86028e-05 -7.60677e-05 0.00019409 )  
( -0.000160304 -9.31218e-05 0.000162011 )  
( 4.75477e-05 -6.57113e-05 0.000144577 )  
( 1.25238e-05 -3.87911e-05 2.19389e-05 )  
( 4.48759e-06 -1.8591e-05 5.93194e-05 )  
( 5.83952e-06 6.11513e-06 0.000202346 )  
( -7.85648e-05 2.52436e-05 2.73657e-05 )  
( -3.60367e-06 -3.92726e-05 7.2267e-05 )  
( -9.59943e-05 5.78581e-05 7.36806e-05 )  
( -1.90596e-05 -8.5723e-05 1.3977e-05 )  
( -3.36657e-06 -3.2087e-05 6.27391e-05 )  
( -5.903e-06 -2.70087e-05 0.000168216 )  
( 2.79163e-05 4.60107e-05 6.88051e-05 )  
( -0.000123584 -5.12748e-05 8.10513e-05 )  
( 3.87324e-05 -3.96796e-06 2.36725e-05 )  
( 8.78079e-05 0.000297285 -1.4784e-07 )  
( 1.39116e-05 -3.51297e-05 8.10474e-06 )  
( 5.08881e-05 6.90037e-05 8.63697e-05 )  
( -1.18079e-05 6.18308e-06 -1.29313e-06 )  
( -0.000100677 -9.78256e-05 9.07201e-05 )  
( -1.66623e-05 -2.28323e-05 0.000150449 )  
( -2.39159e-05 -7.93473e-05 0.000196908 )  
( -4.4099e-05 -0.000139635 7.37574e-05 )  
( -4.94191e-05 -1.25109e-05 3.31053e-05 )  
( -8.61741e-05 -4.11682e-05 0.000108291 )  
( 4.36306e-05 2.70713e-05 0.000202047 )  
( -3.852e-05 3.79449e-06 5.32214e-05 )  
( 5.92288e-06 -7.64972e-05 0.000111323 )  
( -6.81218e-05 -6.42311e-05 3.59679e-05 )  
( -6.8183e-05 -9.90178e-05 0.000149703 )  
( -2.36832e-05 -1.18605e-05 6.9534e-05 )  
( -4.7271e-06 1.75037e-06 2.15914e-06 )  
( 8.95146e-05 -2.55475e-05 5.41337e-05 )  
( -2.73929e-05 2.04096e-05 4.08622e-05 )  
( 5.4697e-05 5.48335e-05 6.58103e-05 )  
( -5.11982e-05 3.24273e-05 8.40681e-05 )  
( -0.000128875 5.17946e-05 -0.000161254 )  
( -1.10318e-05 -8.76782e-06 4.62752e-06 )  
( -2.8097e-05 -7.50125e-05 9.7992e-06 )  
( -2.82739e-05 -1.70245e-05 7.85601e-05 )  
( -1.60725e-05 8.2815e-06 1.99641e-05 )  
( -4.29668e-05 -6.45134e-05 0.000122291 )  
( -1.79743e-05 -2.72675e-05 1.32642e-05 )  
( -8.50733e-07 1.10105e-05 3.28472e-05 )  
( -0.000102137 -1.70119e-05 9.79168e-06 )  
( 1.29287e-05 1.00588e-05 -2.5661e-07 )  
( -4.94784e-06 6.3566e-06 -6.32844e-06 )  
( 0.000107146 5.12942e-05 4.46167e-05 )  
( 2.52158e-05 2.04387e-06 0.000154773 )  
( -1.07149e-05 -1.07518e-05 8.71711e-05 )  
( -2.69774e-07 2.82793e-05 5.16084e-05 )  
( -2.45379e-05 -1.28979e-05 2.06203e-05 )  
( -3.38869e-06 -2.99856e-05 6.70229e-06 )  
( -0.00017073 -3.0658e-05 6.32953e-05 )  
( -3.72141e-05 -2.97914e-05 3.58076e-05 )  
( -8.25376e-05 -0.00010433 0.000162383 )  
( -0.00010972 -6.91493e-05 9.15172e-05 )  
( 4.226e-05 -3.04271e-05 9.21176e-05 )  
( -0.000126134 -0.00174757 -2.37452e-07 )  
( 1.13444e-05 5.95166e-06 8.57006e-05 )  
( -4.58454e-06 5.94016e-06 -5.01739e-06 )  
( -5.68844e-05 6.53531e-06 4.93572e-05 )  
( -7.10279e-06 -4.99861e-05 8.23063e-05 )  
( -7.87482e-05 -0.000115754 0.000162786 )  
( -7.88517e-06 -1.36698e-05 0.000163869 )  
( -2.05993e-05 6.29267e-06 5.00436e-05 )  
( 6.76347e-06 3.87145e-05 3.97094e-05 )  
( -9.28081e-06 -6.73353e-06 1.58074e-05 )  
( 1.62136e-05 -2.46179e-05 0.000249005 )  
( -1.36052e-05 -4.00872e-05 0.000114925 )  
( -1.98979e-05 2.07751e-05 6.0075e-05 )  
( -5.79748e-06 -3.66498e-05 5.5173e-06 )  
( -0.000151661 -3.80666e-05 -0.000128653 )  
( 3.26856e-05 -2.16936e-05 6.2595e-05 )  
( -2.32658e-05 -4.9235e-05 0.000178458 )  
( -9.10319e-06 1.2534e-05 6.60037e-05 )  
( -5.39597e-05 -9.09449e-05 -4.84366e-05 )  
( -0.00090402 0.000200171 -1.67627e-07 )  
( 8.02707e-05 -5.04984e-05 7.38719e-05 )  
( 0.000222182 -0.000195601 9.34227e-05 )  
( 6.73345e-05 -2.79572e-05 0.000232352 )  
( -4.26338e-05 4.54566e-06 2.11046e-05 )  
( 9.33566e-05 -2.34407e-05 0.000174264 )  
( 8.84055e-06 -1.60311e-06 6.52045e-05 )  
( 1.28128e-05 -4.29663e-05 0.000126101 )  
( -6.02872e-05 -3.38086e-05 -5.80396e-05 )  
( -2.62429e-05 6.3169e-06 -1.17829e-05 )  
( -2.29212e-05 -3.36605e-05 9.62838e-05 )  
( 7.19169e-06 2.74386e-06 2.0157e-05 )  
( -4.89175e-06 -9.96064e-06 0.000115865 )  
( 1.79448e-05 -0.000101377 5.62102e-05 )  
( -7.96528e-06 -0.0001047 8.17757e-06 )  
( -4.11131e-05 -5.32099e-05 0.000226371 )  
( 3.05918e-05 -6.92852e-05 0.000165574 )  
( 5.15523e-05 -6.89222e-05 0.000186351 )  
( -0.000111342 -4.73944e-05 7.67906e-06 )  
( 5.39547e-05 -2.98904e-05 4.9375e-05 )  
( 1.68934e-05 3.52223e-05 0.000122707 )  
( -9.30648e-05 -4.89311e-05 3.25049e-05 )  
( 9.11196e-05 -0.000152507 0.000122928 )  
( -2.75829e-05 1.08726e-05 0.000162558 )  
( 3.76187e-05 -5.26563e-05 0.000179415 )  
( -3.66949e-05 -4.89709e-05 0.000130037 )  
( -3.63101e-05 2.56893e-05 8.02102e-06 )  
( 0.000114433 2.00691e-05 6.68554e-05 )  
( -7.98673e-05 -4.32302e-05 -3.49422e-06 )  
( -5.96707e-05 -6.67102e-05 3.00801e-05 )  
( -3.6309e-05 -7.16089e-05 0.000138119 )  
( -2.77668e-05 -2.38909e-05 9.01536e-06 )  
( -1.51593e-05 -0.000175039 0.000161883 )  
( 2.30247e-05 -1.50285e-05 0.000109487 )  
( -2.76256e-05 3.04968e-05 0.000167659 )  
( -7.19538e-05 -8.04919e-05 5.69981e-06 )  
( 5.66223e-06 -8.88596e-05 5.82184e-05 )  
( 6.18972e-05 -4.88424e-05 0.000172408 )  
( -5.82184e-05 -0.000152656 -7.70689e-05 )  
( -6.45929e-06 -5.60359e-05 5.95363e-06 )  
( -4.639e-05 0.00012473 0.000125603 )  
( -8.48162e-06 -1.2342e-05 0.000108954 )  
( -3.44502e-05 2.9606e-05 -2.42806e-05 )  
( -2.02624e-05 -7.53786e-06 0.000125319 )  
( -1.45358e-05 -3.63984e-05 6.42059e-05 )  
( 1.69372e-05 -6.26317e-05 0.000114079 )  
( -5.2873e-06 -9.74114e-06 2.09699e-05 )  
( 7.27334e-06 -5.94379e-05 0.000115808 )  
( -6.80672e-05 -5.24373e-05 8.17953e-05 )  
( 6.78772e-07 2.40848e-05 6.94012e-07 )  
( -4.18473e-05 9.22698e-05 5.70078e-05 )  
( 8.69168e-05 -7.93089e-05 6.03013e-06 )  
( 6.06369e-05 -2.65957e-05 0.000121551 )  
( -2.45516e-05 -9.10957e-05 5.6937e-06 )  
( -0.000124859 7.41912e-06 2.26724e-05 )  
( -8.96351e-06 -0.000150219 0.00016737 )  
( -7.70938e-05 -4.17262e-05 0.00012373 )  
( -1.35486e-05 1.14934e-06 5.14842e-05 )  
( 7.33776e-05 0.000133345 0.000177998 )  
( 1.04387e-05 3.01173e-05 0.000190685 )  
( 3.67417e-05 -5.13144e-05 7.82076e-06 )  
( 1.14175e-05 -9.15219e-05 0.000223228 )  
( 5.45609e-05 -3.46701e-05 6.11243e-05 )  
( -2.27236e-05 2.73308e-05 1.65328e-05 )  
( -1.56857e-05 1.00888e-05 3.76275e-05 )  
( 2.05211e-05 2.57073e-06 0.000227194 )  
( 1.59055e-05 -4.21829e-05 2.71532e-05 )  
( 1.32577e-05 -2.89954e-05 0.000159926 )  
( -4.97762e-06 -3.99145e-05 2.51757e-05 )  
( -4.40094e-05 -2.87149e-05 0.000147923 )  
( 3.20901e-05 -7.92963e-05 0.000140661 )  
( -1.11799e-05 -2.23898e-05 8.56749e-05 )  
( -4.73986e-06 -1.19787e-05 0.000110616 )  
( -3.69564e-06 6.03038e-06 1.3141e-05 )  
( -5.426e-05 3.82872e-05 8.39377e-05 )  
( -5.68257e-05 -5.61604e-05 8.65261e-05 )  
( 4.27026e-05 -5.3504e-05 5.63807e-05 )  
( -1.63094e-05 -2.90468e-05 5.76859e-05 )  
( -0.00339783 0.000659149 -0.000234807 )  
( -2.8702e-05 -6.41089e-05 -4.18908e-05 )  
( -8.23576e-05 -5.20587e-06 3.77808e-05 )  
( -2.40727e-05 -9.29591e-07 1.0612e-05 )  
( -4.52722e-05 6.7855e-06 -1.23915e-05 )  
( -2.46584e-07 4.51676e-06 3.00671e-05 )  
( -6.78218e-05 -4.10517e-05 -0.000100257 )  
( -0.000204254 2.81197e-05 0.000111106 )  
( -5.21411e-05 1.74356e-06 -2.29397e-05 )  
( 7.47989e-05 -0.000117793 6.65279e-05 )  
( -7.68555e-06 -6.26893e-05 7.62889e-05 )  
( -1.43853e-05 9.57264e-06 8.84469e-05 )  
( -2.02433e-06 -2.84546e-05 7.39553e-05 )  
( 5.25338e-06 -1.3293e-07 4.92606e-05 )  
( -3.93641e-05 -9.08858e-05 0.00010345 )  
( -3.92262e-05 2.75105e-06 4.94766e-05 )  
( -3.65696e-05 1.70598e-05 7.18494e-06 )  
( -9.57631e-05 -1.85561e-05 4.53313e-05 )  
( -2.02762e-05 6.12874e-05 1.89267e-05 )  
( 0.000104129 3.27282e-05 3.14599e-05 )  
( -4.74491e-05 2.12051e-05 3.96982e-05 )  
( -7.33522e-05 -9.05441e-05 0.000175375 )  
( 7.91195e-06 -5.10209e-06 -9.49377e-06 )  
( 6.71998e-05 -2.88334e-05 7.38999e-05 )  
( -5.505e-06 -8.76187e-05 6.19328e-05 )  
( 2.38458e-05 -1.02285e-05 0.000115028 )  
( -1.88111e-05 -4.8282e-06 4.96836e-05 )  
( 4.95891e-05 2.01736e-05 0.000110943 )  
( -0.000127101 -7.82728e-05 0.000111809 )  
( -8.25761e-06 -0.000109955 6.27051e-05 )  
( 9.11463e-06 -7.30823e-05 6.4176e-05 )  
( 1.06006e-05 -3.524e-05 0.000126516 )  
( -9.0712e-06 -1.91412e-05 0.000101392 )  
( -6.36089e-05 -8.24205e-05 2.60188e-05 )  
( -4.16474e-05 -0.000117821 0.000207241 )  
( -4.29752e-05 -7.32634e-05 8.25963e-05 )  
( -3.73527e-05 -2.63744e-05 9.85051e-05 )  
( 1.70109e-05 -7.75093e-05 0.000103036 )  
( -1.31137e-05 8.14468e-06 4.99247e-05 )  
( -0.000194955 1.60208e-05 -3.25554e-05 )  
( 6.74774e-05 -5.20251e-05 7.26016e-05 )  
( 5.95732e-05 -2.02426e-05 0.000123222 )  
( 0.000171649 -4.86597e-05 -9.08086e-05 )  
( -8.45837e-05 -6.54288e-05 6.16288e-06 )  
( -9.31794e-05 1.89671e-05 0.000129692 )  
( 3.3428e-05 -4.42118e-05 2.51299e-05 )  
( 0.0020356 0.000542705 -2.22062e-07 )  
( -5.61883e-06 -1.52981e-05 9.8279e-05 )  
( -1.2369e-05 7.99511e-06 0.000123541 )  
( -2.60633e-05 -4.72335e-05 6.20847e-05 )  
( 8.80638e-05 -7.22271e-05 4.45465e-05 )  
( 9.57452e-05 -4.1287e-05 0.000138348 )  
( 1.91721e-05 -8.31616e-05 3.31764e-05 )  
( -0.000143123 -2.0932e-05 8.0206e-05 )  
( -0.000104708 -6.73523e-05 0.000203823 )  
( -1.65238e-05 1.32361e-06 6.06683e-05 )  
( 5.14821e-05 -0.000150464 0.00013619 )  
( 2.10772e-05 3.02513e-05 6.03725e-05 )  
( -0.000175172 -1.83827e-05 8.75673e-05 )  
( -0.000215826 -7.29639e-05 -3.82101e-05 )  
( -5.97191e-05 -5.67817e-05 2.76078e-06 )  
( -0.000121896 -0.000164161 -0.000426811 )  
( -4.41777e-05 -2.41024e-05 8.74836e-05 )  
( -4.63697e-06 1.47751e-06 2.12307e-05 )  
( -3.3845e-05 3.66036e-05 1.60583e-05 )  
( -2.20314e-05 -4.04783e-05 2.09147e-05 )  
( -1.7348e-05 -1.21916e-05 6.48803e-05 )  
( -2.24297e-05 -6.51696e-06 4.70928e-05 )  
( -1.28926e-05 -3.79165e-06 6.28278e-05 )  
( -8.88882e-06 1.36231e-05 1.90681e-05 )  
( 2.858e-05 1.30501e-05 1.51358e-05 )  
( -9.38894e-06 8.98377e-06 8.56616e-05 )  
( -4.23899e-06 -9.77481e-06 8.03691e-05 )  
( 6.54009e-05 -4.75822e-05 0.000179451 )  
( -2.78927e-06 -3.63883e-05 3.37759e-06 )  
( -1.00524e-05 7.52466e-06 8.899e-05 )  
( 3.89933e-05 3.32592e-05 4.03273e-05 )  
( -1.32426e-05 -4.0117e-05 1.80187e-05 )  
( -7.8555e-05 -7.8096e-05 6.28612e-05 )  
( -1.4104e-05 -8.93592e-05 7.28678e-05 )  
( -6.39597e-05 2.64902e-05 7.02985e-05 )  
( 1.14438e-05 1.6918e-05 -3.40841e-06 )  
( 9.24021e-06 -6.52462e-05 6.33484e-05 )  
( -3.78509e-06 -8.87839e-05 9.19523e-05 )  
( -1.84954e-05 2.19032e-05 6.42242e-05 )  
( 0.000368838 -0.000241541 -2.51649e-07 )  
( -3.81758e-05 5.81368e-06 -6.96525e-06 )  
( -6.27191e-05 -6.46949e-05 -7.68367e-07 )  
( -0.000135152 1.50568e-05 4.96994e-05 )  
( -7.37862e-05 -7.15211e-05 1.43109e-05 )  
( -8.86472e-06 -4.38412e-05 0.000108704 )  
( -1.25802e-05 -2.01707e-05 8.68717e-05 )  
( -7.42235e-06 -3.79601e-05 0.000144527 )  
( 1.45406e-05 -5.39672e-05 2.96737e-05 )  
( -3.26526e-05 6.11811e-06 9.82382e-05 )  
( 3.28248e-08 3.04763e-05 3.67167e-05 )  
( 6.62409e-06 6.83179e-06 7.25474e-05 )  
( 1.48894e-05 3.9512e-05 3.56034e-06 )  
( -1.9802e-05 2.0364e-06 4.42137e-05 )  
( -5.45081e-05 -5.2315e-05 8.01384e-05 )  