FoamFile
{version 2.0; format ascii;class vectorField; location 0;object  v;}
2466
(
( -0.000152908 2.11414e-05 0.00433553 )  
( 0.000603961 -0.000325046 0.00478285 )  
( -0.000647081 0.000225466 0.00288624 )  
( 0.000843702 -0.000667285 0.00317092 )  
( 0.000756918 0.00205817 -5.89923e-08 )  
( -0.000226708 0.000658481 0.00269343 )  
( 0.000623825 0.000969125 0.00216255 )  
( -0.000137432 -0.000539846 0.00207913 )  
( 0.00121966 0.00136461 0.002449 )  
( 0.000208434 0.000156188 0.00181559 )  
( -0.000616854 0.00183895 0.0014062 )  
( -0.000778884 0.00179711 -0.0017868 )  
( 0.0016752 8.50907e-05 -5.60185e-05 )  
( 0.000304515 -0.000110287 0.00258021 )  
( -0.00033597 1.31022e-05 0.00106534 )  
( 3.05904e-05 -0.00215392 0.00512747 )  
( 0.00106263 -0.00166363 -0.00124527 )  
( 0.000516018 0.00107421 0.00259546 )  
( -0.000612643 0.000557352 0.00317012 )  
( 0.000197537 -2.54468e-05 -3.08624e-05 )  
( 0.000414959 0.000778461 0.00262114 )  
( 0.000391896 0.00199527 0.0021409 )  
( 0.000589623 0.00113672 0.00276582 )  
( 0.000199011 0.000197202 0.0023489 )  
( -4.78927e-05 4.85401e-05 0.00352945 )  
( 0.000521875 -0.00312663 0.00553596 )  
( 2.44567e-05 5.91352e-05 -0.00186986 )  
( 0.00225584 0.00109717 0.0035834 )  
( -0.00117183 -0.00144382 0.00519308 )  
( 0.000695117 -0.00116007 0.00454541 )  
( 0.000112112 0.000762386 -2.5188e-05 )  
( 0.000137686 5.52062e-05 -4.35883e-05 )  
( 0.00100076 -0.0025642 0.00584325 )  
( -0.000286425 2.45472e-05 0.00244582 )  
( -0.000853229 0.000616838 0.00167601 )  
( -6.54656e-05 0.000983465 0.00185403 )  
( -0.000791393 8.22442e-05 0.00253111 )  
( -0.000358559 0.000756452 0.00268148 )  
( 5.7197e-05 -0.000471031 0.00333207 )  
( -5.2781e-05 8.70157e-05 -0.000865178 )  
( -0.000102863 0.000835352 0.00128773 )  
( -0.000192537 0.00136998 0.00249477 )  
( 0.000467551 0.000100489 0.00273621 )  
( 0.000475057 0.000249334 0.00133868 )  
( -0.000296898 0.000166441 0.00213212 )  
( -0.0018823 0.00162066 0.00165384 )  
( 0.000433801 0.00160054 0.00297946 )  
( -5.35643e-05 0.000178289 0.00213601 )  
( 0.000936365 -0.000291538 0.00252795 )  
( -0.000477347 0.00115975 0.00370104 )  
( 0.000806143 0.00071928 0.00162048 )  
( 0.00058177 -0.00107391 -0.00132973 )  
( -0.000735554 0.000864842 0.00322179 )  
( -0.000189584 0.00109113 0.00151068 )  
( 0.000290879 0.000679352 0.000106774 )  
( -0.000202732 -0.000935179 0.00234455 )  
( -0.000425957 -0.00159383 0.00455191 )  
( -0.000523605 0.00113074 -0.000409438 )  
( -0.00175339 0.000717911 0.00229444 )  
( 0.00194961 -0.000143285 -0.000286767 )  
( 0.000992424 -0.00051075 0.00237852 )  
( -4.08328e-05 -0.000225886 -5.00359e-05 )  
( 0.00152172 0.00171956 0.00795948 )  
( 0.000355468 -0.000605258 0.000911812 )  
( 0.000303672 0.000321374 -6.64704e-05 )  
( -0.000561197 -0.000495666 0.00247562 )  
( 0.00223592 0.000601011 0.000410343 )  
( -0.000305662 -0.000494688 -5.2809e-05 )  
( 7.12816e-05 7.3427e-05 0.0022451 )  
( 0.000346704 -0.000349481 0.00215013 )  
( 0.000346001 0.000166587 0.00239839 )  
( -0.000537323 0.000512655 -4.02711e-05 )  
( 0.000537263 0.000155343 0.00288601 )  
( 0.00363065 0.00267341 0.00609495 )  
( 0.000181715 0.000973713 -6.38289e-06 )  
( 0.000381608 -0.000465048 0.000422432 )  
( 0.00110715 -0.0012502 0.0042802 )  
( 0.00133645 -0.000169285 0.000126476 )  
( 0.00107045 0.000360823 0.00288549 )  
( 0.000227775 0.00191397 0.00226338 )  
( -0.000936335 -0.000612009 0.00288711 )  
( -4.86394e-05 0.0018139 8.4496e-06 )  
( 6.15572e-05 0.00108714 0.00264268 )  
( 0.000904148 -0.00177863 -0.00154374 )  
( 0.000882432 -0.000118537 0.00302102 )  
( -0.001479 0.00157543 0.00310687 )  
( -0.0011229 -0.000989701 0.00414019 )  
( -0.000316258 0.00096382 0.00302924 )  
( -3.99568e-05 -0.000445805 -0.00078886 )  
( 0.000224782 -0.00038707 0.000471118 )  
( 0.00146802 -6.98686e-05 0.00366885 )  
( 0.000313402 0.000158578 -6.02319e-05 )  
( 0.000442154 0.000953711 0.00223575 )  
( 0.000257662 0.000886269 0.00446943 )  
( 0.000297873 -6.30354e-05 0.00191498 )  
( -8.99266e-05 -1.54738e-05 0.000291504 )  
( -1.72191e-05 0.000683766 -0.000520819 )  
( 0.000734742 0.000471342 0.00218199 )  
( 0.000724428 -0.000319695 0.00282258 )  
( -0.000715472 -0.000285149 0.00230339 )  
( -6.16734e-05 0.000543039 0.00191048 )  
( 0.000399843 0.00030457 -7.71579e-05 )  
( -0.00115477 0.000160615 0.0023139 )  
( 0.00235835 0.00309581 0.00272288 )  
( -0.000271491 0.000236123 -0.000102393 )  
( 0.000222708 -0.000436886 0.00451169 )  
( -0.000231357 0.000427499 0.0018762 )  
( 0.000767669 0.000869076 0.00340049 )  
( -0.000161495 -0.000677985 0.00357609 )  
( -7.23577e-05 0.000154915 0.00280817 )  
( -0.000509533 0.00055214 0.00133969 )  
( 0.0018088 0.00226642 0.00482846 )  
( 0.00318088 0.00157484 0.00538647 )  
( 0.00209169 -0.000486148 -0.00231236 )  
( 0.000916994 -0.000805293 0.000122213 )  
( 0.00178418 -0.000957682 2.04681e-05 )  
( 2.5849e-05 0.000307882 0.002616 )  
( 0.000347717 0.000356792 -0.000103784 )  
( -0.000128161 0.000355673 0.00229293 )  
( 0.00078251 0.000797731 -0.000338533 )  
( -0.000757037 0.000231615 0.000878157 )  
( -0.000346379 0.0020315 0.00221549 )  
( -3.30376e-06 -0.000603121 0.002228 )  
( 0.00138032 -0.000421746 0.00216811 )  
( 6.82304e-06 0.000267814 0.00188111 )  
( 0.00115875 -0.000490496 -2.84039e-05 )  
( 0.000843308 -0.00215655 0.0030803 )  
( -0.000491669 0.000952722 0.00207313 )  
( 0.00553246 -8.59628e-05 0.00464591 )  
( -0.000123155 1.83137e-05 0.00140683 )  
( 0.00132365 0.000530376 -9.42147e-05 )  
( -0.00119281 -0.00227492 0.00410125 )  
( -0.000481159 0.000220276 0.00237144 )  
( 0.00260298 0.000774526 0.00195137 )  
( 0.000747557 0.000590277 0.00195749 )  
( 0.00128478 0.000371767 -0.00259744 )  
( 0.00135303 0.000748695 0.0039301 )  
( 0.000102514 0.00101738 0.0018511 )  
( -0.000432039 0.000470453 0.00191879 )  
( 0.001137 0.000441374 0.00386484 )  
( 0.00189804 -0.000287985 0.00283643 )  
( 0.000845672 -3.56647e-05 0.00166668 )  
( 0.00186298 0.00176701 0.00388644 )  
( 0.00141087 -0.000638103 -0.000193664 )  
( 0.00117073 -0.00054157 -0.000431266 )  
( -0.000262417 -0.000612309 0.00198051 )  
( -0.00024554 -2.84925e-05 0.000181521 )  
( 0.00104122 0.000227465 -0.000222287 )  
( -0.000286872 0.00139981 0.00123115 )  
( 0.00116592 -0.000147616 0.00267475 )  
( -9.46065e-05 1.62001e-05 6.20656e-05 )  
( 0.000621107 0.00112639 0.00201419 )  
( 0.000500918 -0.000259181 0.0025556 )  
( -0.000777673 0.000128793 0.00222118 )  
( -0.000832945 0.000432407 0.00140241 )  
( 0.000462381 0.000515145 0.00288918 )  
( 0.000144084 0.00102856 0.000885066 )  
( -0.000859215 -0.000411313 0.00302661 )  
( -0.000653935 0.000760643 -0.000486363 )  
( -0.00107413 -0.000213725 0.00202467 )  
( 0.000595732 0.000828863 0.00267256 )  
( 0.000178087 -4.03167e-05 0.00213012 )  
( 0.00234853 -0.000164608 0.00944687 )  
( -0.0011508 0.000717443 0.0013121 )  
( 0.00102994 -7.35884e-05 0.000256763 )  
( 0.0019018 0.000960116 0.00219141 )  
( -0.00132184 -7.76841e-05 0.0100677 )  
( 0.00104789 0.000174859 0.00152147 )  
( 0.000436593 0.000478299 7.34783e-05 )  
( -0.000419439 -0.00183447 0.0039133 )  
( 0.00126348 0.00202176 0.00492086 )  
( 0.00157999 -0.000209059 -0.00011433 )  
( -0.000407126 0.000139305 0.00252096 )  
( 0.0004087 -0.000799342 8.8147e-05 )  
( 0.00258613 0.00101795 -0.000198711 )  
( 0.00105793 0.00120933 0.00403081 )  
( -0.000232101 0.00024814 0.00264783 )  
( 0.0012083 0.000203655 0.00162305 )  
( 0.000271826 0.000282906 0.0026996 )  
( 0.000209946 0.000503113 0.00207988 )  
( 0.000467906 -0.000262117 -0.000382226 )  
( 0.000329368 0.000709075 0.00278435 )  
( 0.00100283 0.0012349 -0.000907372 )  
( -0.00254377 0.00141473 0.00532824 )  
( 0.00103898 0.00169962 0.00388372 )  
( -0.00106942 -0.000722693 0.0038416 )  
( -0.000905907 -0.000892962 0.00253348 )  
( 0.000918337 0.000535355 0.00183499 )  
( 0.00171765 -0.000700379 -0.000261194 )  
( -0.000940477 -0.000777362 0.00431269 )  
( 0.000686 0.000527557 0.00256933 )  
( 0.00080932 0.00187491 0.00252931 )  
( 0.000751184 0.000793302 0.00514575 )  
( 0.000984508 -0.000505834 0.00342159 )  
( -0.000246243 -0.000217291 0.0026276 )  
( 0.000132917 -0.000637417 -0.000461761 )  
( -0.000114028 0.000293078 0.00207764 )  
( 0.00129229 0.000713213 0.00177889 )  
( 0.000314651 -8.54906e-05 0.000970918 )  
( 0.000166103 -0.000476172 7.26983e-05 )  
( -0.000367984 8.83088e-05 -7.74266e-05 )  
( -6.35334e-05 0.000342061 0.00124551 )  
( 0.000396608 -0.000920158 0.00198314 )  
( -0.000291364 2.24959e-05 -0.000408551 )  
( 0.000500757 0.000190923 0.00147679 )  
( -0.000422639 -0.000265696 -0.000130901 )  
( 0.00154669 -0.00129302 0.0172072 )  
( 0.000176125 0.000911355 0.0054151 )  
( 0.000216363 -0.000531133 -0.000103146 )  
( -0.00123869 0.000902382 0.00398842 )  
( -0.0001636 0.00127608 -0.000669616 )  
( 0.00295439 -0.00267402 0.0197821 )  
( 0.000627699 0.000230479 -5.44756e-05 )  
( -8.08214e-05 -0.00043644 0.00233579 )  
( 0.00072204 0.00059096 0.001488 )  
( -0.00124054 0.000634751 0.00210832 )  
( 0.000490163 0.000491933 -2.50105e-05 )  
( -0.000111955 0.000322465 0.0022254 )  
( 0.0031887 -0.000188598 0.00379286 )  
( -2.9962e-05 -0.00318352 0.00271573 )  
( 0.00043698 -0.00035439 -0.00042331 )  
( 0.00103274 0.00287361 -0.000452458 )  
( 0.000417784 0.00124029 0.00179372 )  
( -0.000574351 0.000899097 0.000622359 )  
( 0.00189091 0.00202705 0.00428705 )  
( 0.000364805 -0.000344493 7.52035e-05 )  
( 0.00252698 0.00245742 0.0123592 )  
( -0.000456851 0.00143031 0.00244303 )  
( 3.3646e-05 0.000243335 1.82112e-05 )  
( -0.000258141 0.000558125 0.00179202 )  
( -0.000136559 -0.00104272 0.00244064 )  
( 0.000187312 2.78649e-06 -0.000162442 )  
( 0.00147147 0.00107864 0.00124565 )  
( 0.000425878 -0.00104245 -0.000546193 )  
( 0.00118772 -0.000147432 0.00123264 )  
( -0.000243803 0.0013382 0.00171472 )  
( 0.000463732 0.0018832 0.00251156 )  
( -0.000755641 0.000235807 0.000146831 )  
( -0.00119472 -7.22644e-05 0.00248321 )  
( 0.00206416 -0.00100384 0.000107233 )  
( 0.000651055 0.00236548 0.000697419 )  
( -0.0052903 0.00277934 -0.00412167 )  
( 0.000753789 -0.000267506 -5.07445e-05 )  
( 0.000995173 -0.000114472 -0.000159938 )  
( -0.00135354 -0.000973925 0.000115572 )  
( 0.000489993 0.000269059 -3.59663e-05 )  
( 0.000988123 -0.000144711 0.00640615 )  
( 0.000213139 0.000828645 0.00228747 )  
( -7.74619e-05 0.000751716 0.00150235 )  
( 4.10874e-05 -0.0003682 -0.000171525 )  
( -3.07242e-09 -0.000732392 0.00312511 )  
( 6.36687e-05 0.000451452 0.0019757 )  
( -0.00209921 0.00275076 0.00592878 )  
( 3.30601e-06 -0.00025588 -2.69082e-05 )  
( -0.000487453 3.78304e-05 0.00382651 )  
( -0.000419808 0.000134923 0.00257807 )  
( -0.000752509 0.000160922 0.00164023 )  
( -0.000637479 0.000458385 1.96712e-05 )  
( 0.00100628 -0.00111065 0.00335217 )  
( -0.00051175 0.000720159 0.000975498 )  
( 0.00154135 0.000712231 0.00215701 )  
( 1.7279e-05 -3.55119e-05 -3.20399e-05 )  
( -0.00110497 0.000866961 0.00193195 )  
( 0.00207769 0.00171349 0.00668469 )  
( 0.000404444 0.000260526 -7.18598e-05 )  
( -0.000900411 -0.00172308 0.00268546 )  
( 0.000754947 0.000902218 0.00134015 )  
( 0.000786084 0.000623149 0.000492879 )  
( -0.00100685 0.00050656 0.00289229 )  
( -0.000457494 0.00107422 0.00178892 )  
( -0.000370315 6.62057e-05 -0.00026554 )  
( 9.2905e-05 -3.09768e-05 -0.000336633 )  
( -0.00108469 0.00131478 0.00236777 )  
( -0.000227366 0.000187935 -2.78451e-05 )  
( 0.000599635 0.000531622 -0.000331947 )  
( 0.00025551 2.66634e-05 0.00161546 )  
( 8.05711e-05 -0.00396319 0.00961735 )  
( 0.000442756 0.00164094 -1.04724e-05 )  
( -0.000627305 0.000389688 2.07944e-07 )  
( 0.00103639 -0.000845037 0.00249779 )  
( 0.00013813 0.000406472 1.00123e-05 )  
( -0.000134851 2.48694e-05 1.74404e-05 )  
( -0.000358739 0.00200185 0.00305839 )  
( -0.000390031 0.00127672 0.00175733 )  
( -0.000205443 0.000538394 -0.000281592 )  
( -0.000644148 -0.000452542 0.00216428 )  
( -0.000171324 -7.97144e-05 0.00191956 )  
( 0.000688285 0.00131936 0.00333471 )  
( -0.000609983 -0.0010506 0.00161346 )  
( 0.000324424 -0.000147997 0.00228732 )  
( 0.000637579 -0.00052746 -0.000214772 )  
( 9.81216e-05 -0.000423751 0.00249569 )  
( 0.00166012 0.000763027 -0.000877746 )  
( 0.00169077 0.00233123 0.0053467 )  
( 0.000602872 0.00161237 0.00143924 )  
( 0.000347891 0.000570775 0.00293324 )  
( -0.000307629 0.000400429 0.0023142 )  
( -0.00135405 -0.00177088 0.00320474 )  
( -0.00124792 -0.00622888 0.00572293 )  
( 0.000802421 0.00254357 0.000656381 )  
( -0.00131723 -0.00341232 0.00410586 )  
( 0.00031859 0.000223026 0.000611765 )  
( -0.000256257 0.000595542 0.00205341 )  
( -0.000560118 0.000386823 0.00313204 )  
( 0.000819236 0.000401847 0.000499319 )  
( 0.00024659 0.000465156 -7.36531e-05 )  
( -7.50286e-05 -0.00115631 -0.000146757 )  
( 2.33764e-05 6.18633e-06 -0.000610638 )  
( 0.00125763 -0.00163946 0.00339099 )  
( 0.000901984 0.000316335 0.00266244 )  
( -8.18884e-05 -6.48939e-05 0.00237224 )  
( 0.00210591 -0.000828107 0.000908092 )  
( 0.000400133 0.000558686 4.12283e-05 )  
( 0.00170428 0.00120009 0.00107302 )  
( 0.00061465 0.00082206 0.0016999 )  
( 0.000348644 0.000459171 0.00128294 )  
( -0.000820481 0.000400722 0.00219197 )  
( -0.000105688 -0.000237758 0.00204391 )  
( 0.00120146 -0.000481596 0.00361945 )  
( 1.28999e-05 0.000389617 0.000968225 )  
( 0.000997487 0.000293299 0.00262618 )  
( -0.000216725 0.000545394 0.00501949 )  
( -0.000843723 0.000757166 0.00152144 )  
( 0.000133731 0.000515615 0.00162385 )  
( 0.000757133 0.000530345 0.00276292 )  
( -0.000260892 -0.00030223 0.00131973 )  
( 0.000604363 -0.000454275 0.00224048 )  
( 0.00267423 0.00158016 0.00370286 )  
( -0.000161882 9.45222e-05 0.00261442 )  
( -0.000279464 0.000492063 1.05246e-06 )  
( -5.52506e-05 -0.000188131 0.00353791 )  
( 0.000118559 5.52289e-05 -0.000152349 )  
( -0.000165424 0.00114035 0.0017702 )  
( 0.00114141 -0.000127216 2.29693e-05 )  
( 0.000495697 -0.000175093 0.00217503 )  
( 0.00129217 -0.000902031 2.18441e-05 )  
( 0.00014672 0.000451868 0.00203535 )  
( -0.000428216 0.000847752 0.00134418 )  
( -0.000453577 -0.000163426 -7.86793e-06 )  
( 0.000481525 -0.00165638 0.00202896 )  
( 0.00156306 0.00151865 -0.00116917 )  
( -0.00281446 0.00316602 0.00925464 )  
( -1.45663e-05 0.000451933 0.0001375 )  
( -0.000887898 -0.00132144 -0.000651689 )  
( 0.000371289 0.00180053 0.00492468 )  
( 0.000143122 0.00111457 -2.43441e-05 )  
( 0.000678411 0.000295907 0.00319345 )  
( 0.000559482 -0.000703301 0.000893416 )  
( 0.0018532 5.56832e-05 0.00404612 )  
( -8.39925e-05 -0.000583591 0.00272641 )  
( -0.00105933 0.000684454 0.00491633 )  
( -4.14374e-05 0.00087756 0.00160647 )  
( 0.000727136 -0.000139018 -1.218e-05 )  
( 0.00134678 -0.000395525 0.0024449 )  
( 0.000390694 -0.000832551 -0.00171233 )  
( -0.000562632 -0.000147924 0.000974812 )  
( 0.000379961 -0.000195424 0.00204107 )  
( 0.000237707 0.000127387 -0.000119601 )  
( -0.00243726 0.00038999 0.00854522 )  
( -0.000647806 0.000136467 0.00213442 )  
( 0.000205365 0.000278094 -0.00020039 )  
( -0.000207684 0.00153577 0.00339914 )  
( 0.000438813 -0.00041272 0.00151808 )  
( 0.00114605 4.54581e-06 0.00021024 )  
( 0.00221476 0.00016954 0.00202941 )  
( 0.000691145 -0.000406541 0.000579477 )  
( -0.00176761 -0.00152135 0.00403935 )  
( 0.001922 0.000658377 0.00435484 )  
( -0.000841929 0.000814499 0.00362958 )  
( 0.000732955 0.000761751 -7.67951e-05 )  
( 0.000363171 -4.60606e-05 0.00147961 )  
( -0.000538821 -0.000127201 2.89077e-05 )  
( 0.000393521 0.000820299 0.00160594 )  
( 0.00132809 -0.000249917 0.00268093 )  
( 0.000567094 0.000802452 -0.000716909 )  
( -0.000455513 0.00117107 0.00194542 )  
( -3.15205e-05 0.00115909 0.00186837 )  
( 0.00121343 8.95657e-05 0.00192253 )  
( -0.00117268 -0.00130132 0.00200163 )  
( 0.00148252 -0.000273947 0.00551747 )  
( -0.000591991 0.000132979 0.0030253 )  
( 0.000351415 0.000167575 0.000333308 )  
( 0.000893692 1.69772e-06 -0.00296025 )  
( -0.000241285 -8.23328e-05 0.00202969 )  
( 0.000541362 -0.000504352 -0.000496472 )  
( 0.000760225 0.00273491 0.0034374 )  
( -0.000230537 -0.00269465 0.00445501 )  
( -5.71233e-05 0.000269302 0.00278317 )  
( 0.00112685 0.000258203 0.00598405 )  
( 0.000174247 0.000792756 0.00195945 )  
( 0.00106591 -0.000365577 -0.000151183 )  
( -5.04258e-05 0.00148865 0.00241938 )  
( -0.00135664 0.000606319 0.00245174 )  
( -0.000247714 0.000980541 0.0028032 )  
( -0.00108215 0.000120989 0.0042397 )  
( -0.000672237 0.000160588 0.00235575 )  
( 0.000502012 -6.47825e-05 0.000583284 )  
( -0.000647445 -0.000472739 -0.000894946 )  
( -0.000366674 0.00108414 0.00274808 )  
( 0.000335044 5.79862e-05 0.00186175 )  
( 5.42189e-05 0.000735746 0.00276609 )  
( 0.000364676 -0.000241036 -5.14693e-06 )  
( 5.30932e-05 -0.000187519 0.00267442 )  
( 0.000105921 0.00076618 0.00189308 )  
( 0.00160179 0.000897983 0.00200233 )  
( 0.000348644 0.00193682 0.00131496 )  
( -0.00168818 0.00330703 0.00692598 )  
( -7.13627e-05 0.000247785 0.00242162 )  
( 0.000873134 0.000814711 0.00337195 )  
( 0.000768088 0.000281975 0.00210895 )  
( 0.000503803 0.000253768 0.00299196 )  
( -0.000849733 -0.000778856 0.00323264 )  
( 0.000182329 -3.17306e-05 0.00186588 )  
( -0.0012553 0.000752172 0.0029407 )  
( -0.00102839 0.000877855 0.00330905 )  
( 0.000402042 2.92661e-05 -7.78898e-05 )  
( -0.00164019 0.00174277 0.00384925 )  
( 0.000937432 -0.000326272 0.00217907 )  
( 0.000561663 0.000199781 0.000376438 )  
( 0.00207448 0.00206899 -0.000903356 )  
( 0.00201299 0.000857344 0.00441811 )  
( -0.00103732 0.000315994 0.00349103 )  
( -4.2473e-05 -0.000444803 0.00212726 )  
( -3.43156e-05 0.00133941 0.00141517 )  
( 0.000663057 -7.05251e-05 0.0029978 )  
( -5.18687e-05 -0.000333835 -0.000322581 )  
( 0.000646117 0.000908445 0.00219449 )  
( 0.00168477 0.0014626 0.00159062 )  
( -0.000699105 0.00152788 0.00264296 )  
( 0.000605924 0.000492764 0.000139334 )  
( -0.00216297 -0.00150725 -0.000201032 )  
( 5.34937e-05 0.00019974 0.000615446 )  
( 0.00157446 -0.00069491 0.00302949 )  
( 0.00121088 -0.000478096 -0.000945971 )  
( 0.000608658 -0.000556373 0.000700554 )  
( 0.000461338 0.00180165 0.00270078 )  
( -0.000311219 0.000946434 0.00256195 )  
( 0.000654452 -0.00123018 0.003282 )  
( -0.000508786 0.000809218 0.00334792 )  
( 0.00186017 0.000191191 0.0016997 )  
( -0.000654537 0.000544857 0.00245675 )  
( 0.00295572 0.00196965 0.00369028 )  
( 1.04689e-05 -0.000269357 0.00225212 )  
( 0.000121101 0.000681113 0.00268176 )  
( -1.98827e-05 -0.000139765 6.59543e-05 )  
( -6.94118e-05 0.000407449 0.00192131 )  
( 0.000569887 -0.000627757 -1.23599e-05 )  
( 0.00121804 -0.000890856 0.00364234 )  
( 0.000544822 -0.00111493 0.00623522 )  
( -0.00118784 -5.67175e-05 0.00386022 )  
( 0.000467348 0.000140865 0.000142446 )  
( -0.000856061 -0.000147344 0.002644 )  
( 0.00112425 -0.0003236 0.00355223 )  
( 0.00073596 0.000320312 0.00137216 )  
( -0.000139997 -0.00122815 0.00437659 )  
( -9.5064e-05 0.000128129 0.00240053 )  
( 0.000307679 0.000186257 0.0022025 )  
( 0.000579053 -0.00146709 -0.000435959 )  
( 0.000404264 -0.000462577 0.000609351 )  
( 0.00210985 -0.000882485 0.00332636 )  
( 0.000139184 -0.000689113 -0.00116676 )  
( 0.000167062 -0.000415401 -1.73777e-06 )  
( -0.00026103 0.00241508 0.0031919 )  
( 3.5513e-06 -7.08412e-06 0.00132431 )  
( -0.000773954 0.000108815 0.00189813 )  
( 0.000908122 1.69174e-05 0.000528002 )  
( 0.00026887 -0.000172699 0.00203325 )  
( 0.0010405 0.00123541 0.00464781 )  
( 0.000103778 -0.000125023 -5.93158e-05 )  
( 5.76965e-05 0.000836537 0.00283869 )  
( 0.000183332 4.1008e-05 -0.000215623 )  
( 0.000608529 0.00127007 -0.000624427 )  
( 2.851e-05 0.00103664 0.00134338 )  
( -7.90909e-05 -0.00011425 0.000486975 )  
( 7.68439e-05 0.000377338 1.57533e-05 )  
( -2.40465e-05 0.000210028 0.00452891 )  
( 0.00106756 -0.00134814 0.00376429 )  
( 0.000352367 8.90018e-05 -4.34885e-05 )  
( 0.00023723 -0.000147698 -0.000108758 )  
( 0.000265825 0.000162023 2.44445e-05 )  
( -0.000824006 0.000809091 0.0025564 )  
( -9.98311e-05 -0.000618369 0.00222992 )  
( -0.000672208 0.000395465 0.00144108 )  
( 0.00149422 0.000445044 -0.00047205 )  
( -0.000191854 0.000730804 0.00282292 )  
( 0.00161226 -0.000220978 0.00147112 )  
( 0.000148964 9.40268e-05 -0.000104033 )  
( 0.000955689 0.000383916 0.000100167 )  
( 0.00197399 -0.000329507 0.00795373 )  
( 4.53615e-05 0.00018632 0.000804474 )  
( 0.0010128 -0.000990604 0.00397268 )  
( 0.000183687 0.00167209 0.00337204 )  
( -0.000661411 0.000131622 -0.000656248 )  
( 0.00457119 -0.000672739 0.00654408 )  
( -0.000532996 0.00259442 0.00148425 )  
( 0.00104414 0.000745364 -2.40464e-05 )  
( 0.00139733 -0.000196625 0.000634621 )  
( 0.000650612 0.000993087 0.00339593 )  
( 0.00210875 -0.000498957 0.00248463 )  
( 0.00169964 -0.000355834 0.00313384 )  
( 0.000237864 5.9325e-05 0.00219403 )  
( 0.00133068 0.00152013 0.000191391 )  
( -1.72445e-05 0.000524024 0.00253727 )  
( 0.00158264 0.00177222 0.00426344 )  
( -7.21484e-05 0.00114292 0.00333885 )  
( 0.000973058 0.000360529 0.00389023 )  
( -0.000933965 -0.000150046 0.00148814 )  
( -2.23951e-05 -0.000551298 0.00155901 )  
( -0.000250904 0.00128301 0.00258794 )  
( 7.08731e-05 -0.000135001 -2.05227e-05 )  
( 0.000434945 -0.000103341 0.000530868 )  
( -0.000131122 -0.000958489 0.000213034 )  
( 0.00408657 -0.00231539 0.00528404 )  
( 0.00103019 -0.00290532 0.00703273 )  
( 0.00203108 0.00245145 0.00466815 )  
( 0.000882883 -0.000217979 0.00304645 )  
( 0.00316221 0.0015891 0.00381426 )  
( 0.00131845 -0.000228674 0.0029754 )  
( -0.00193956 0.000370847 0.00114389 )  
( -0.00013739 -1.57723e-05 0.00189546 )  
( 0.00101031 0.000512145 0.00254387 )  
( -0.000177987 -0.000304244 0.00318143 )  
( -0.000976232 -0.000193885 0.00191924 )  
( -0.000632363 0.00147554 0.00187246 )  
( 0.00102063 0.000214188 -0.000148824 )  
( 0.000210386 0.00135599 -0.000548365 )  
( 0.000800422 0.000399709 0.00177975 )  
( 0.000202544 4.26721e-05 -0.000320461 )  
( -0.000133322 0.000623915 4.90514e-06 )  
( 0.00026459 0.00153194 0.00187081 )  
( 0.00110947 -0.000436759 0.00287833 )  
( 0.000731984 0.00183601 0.00293426 )  
( -6.94211e-06 -3.1864e-05 7.23167e-06 )  
( 0.000271843 -0.000611288 -0.0012263 )  
( -0.000217661 0.000362468 0.00203381 )  
( 0.000314736 0.00034987 0.00246766 )  
( -0.000103413 0.000511315 0.00311407 )  
( 0.00111935 0.002006 0.00389662 )  
( -0.00117376 -0.000715079 0.00310251 )  
( 0.000719098 0.00167019 7.67352e-05 )  
( -9.26597e-05 -0.000508165 0.00366487 )  
( 0.000321077 -0.000356757 -0.000371152 )  
( -0.000158431 -0.000100442 -8.99524e-06 )  
( 0.000165651 0.00019405 -8.23228e-05 )  
( 0.00296371 -0.000915772 -0.000128772 )  
( -0.000149717 1.16527e-05 0.00451265 )  
( -0.000756355 -0.000107915 1.82518e-05 )  
( 0.00356864 -0.00242141 -0.0014212 )  
( 0.000525287 0.00211609 0.00285764 )  
( 0.000395324 5.29595e-05 0.00254114 )  
( 0.00139801 -0.000273291 0.00249594 )  
( 0.00214324 -0.000399083 0.00365672 )  
( -0.000274328 0.000233038 0.00270056 )  
( 0.00107359 0.00239653 0.00684187 )  
( 0.0013611 0.000168459 6.46917e-05 )  
( -0.00085067 0.00118672 0.0028422 )  
( -9.11731e-05 -0.000576248 0.00185396 )  
( -0.0004362 -0.000137823 0.00293578 )  
( -0.000543059 -0.000308021 -0.000727776 )  
( 0.000120623 -0.00144399 9.25794e-06 )  
( 0.000247739 0.00022809 0.000219126 )  
( 0.000312524 -0.000495968 -0.000294996 )  
( 0.000124626 -2.92927e-05 -5.6079e-06 )  
( 0.000348752 -0.000165701 -7.47314e-06 )  
( -0.0002312 0.000599496 0.00112711 )  
( -0.000127199 -0.000217654 -1.54659e-05 )  
( 0.00105525 -0.00178294 0.0103316 )  
( 0.000361246 -0.000556347 -0.00113891 )  
( 0.000599545 -0.00111409 0.00426675 )  
( -0.000435364 0.000657486 0.00217012 )  
( -0.000584517 -0.00132082 0.00249021 )  
( -0.000341481 -0.00111567 -0.00112067 )  
( 0.00162026 0.000847215 2.93381e-07 )  
( -9.25845e-05 0.00207753 -0.00243597 )  
( -0.000192779 0.000929659 0.00186384 )  
( 0.000319164 0.000162816 0.000995612 )  
( 1.50544e-06 0.000288625 -4.59301e-05 )  
( -0.000833118 -0.000107451 0.00353261 )  
( 0.000596917 -0.000365036 5.50371e-05 )  
( 0.000168217 4.31181e-05 0.00211357 )  
( 0.000121564 -0.000223647 0.000780586 )  
( 0.000282468 0.00161692 0.00240056 )  
( -0.000215858 0.000156574 -0.000233125 )  
( 0.000531616 0.000871 0.00153181 )  
( -0.000631509 0.000405066 0.00274861 )  
( 0.000867688 0.000720783 0.00165394 )  
( 0.0017047 0.000442733 0.00143448 )  
( 0.000915433 0.00129816 0.00152292 )  
( 0.00292668 -0.000598228 0.0062025 )  
( 0.000345369 -0.000151849 1.14052e-07 )  
( -0.000286609 0.000806107 0.00322785 )  
( -0.000400616 7.34513e-05 0.00521218 )  
( 0.00234789 0.000821533 0.00746283 )  
( 0.00184474 0.00180201 0.00399051 )  
( 4.43527e-05 0.00141313 0.00395077 )  
( -0.000497933 0.000492126 0.000552223 )  
( 0.000178114 0.000647788 0.00634356 )  
( -0.000463226 0.000589926 0.00307632 )  
( 0.000141981 -0.00172678 0.000497334 )  
( 0.00106709 -0.000424521 0.00238445 )  
( 6.64714e-05 -0.000219026 -2.68911e-05 )  
( 0.00159012 -0.00150907 -2.38383e-05 )  
( 0.000926136 0.000423268 0.00133862 )  
( -0.00113815 0.00275018 0.00460745 )  
( 0.000539265 0.00040135 0.00253068 )  
( 6.32144e-05 0.00121829 0.00271993 )  
( -0.000664389 0.00074977 0.0027437 )  
( -0.000381118 0.0005404 0.000620873 )  
( -8.96823e-05 -0.001652 -0.000388411 )  
( 0.000229066 -3.27883e-05 0.00257719 )  
( 0.000255039 0.000249786 6.00269e-05 )  
( 2.76862e-05 -0.000584865 0.00365365 )  
( 0.00039777 -0.000240896 0.00244645 )  
( -9.89839e-06 0.00043626 0.00168434 )  
( -0.000393444 0.00135531 0.00285692 )  
( 0.000418171 0.000157155 0.000706592 )  
( 0.00081099 -0.000252342 0.000225913 )  
( 0.000382127 -0.000378163 -0.000145891 )  
( 0.000226447 0.000588706 0.00222872 )  
( -0.000313373 -0.000492346 0.00257586 )  
( -0.00268905 0.00204886 0.00433927 )  
( 0.000591285 0.00131193 0.00189963 )  
( 0.000838312 0.00111151 0.000841179 )  
( -0.000248544 0.000422541 0.00203674 )  
( 0.000920096 5.05887e-05 0.00200005 )  
( -0.00117682 0.00139464 0.00209981 )  
( 0.0010432 -0.00107882 0.00206101 )  
( 0.00090544 0.00109049 5.5586e-05 )  
( -9.84853e-05 -0.000263816 0.0037181 )  
( 0.000374159 3.45995e-06 0.000508327 )  
( 0.00104878 0.000926094 0.00237082 )  
( 0.000416822 -0.000412836 0.00147984 )  
( 0.000365991 -0.000512413 0.00126348 )  
( -0.000574307 0.000186494 -0.000273847 )  
( 0.00270039 0.00315814 0.00439019 )  
( -0.00228447 0.00205347 0.00538748 )  
( -0.000118153 0.00181495 0.00703014 )  
( -0.00219615 0.000974595 0.00445941 )  
( 0.000144603 1.58322e-05 0.0034493 )  
( 0.0015389 0.00289817 -0.000696102 )  
( 0.000375283 4.89537e-06 0.00342324 )  
( 9.70786e-05 0.00038678 7.04191e-05 )  
( 0.000869427 0.00155059 0.00346273 )  
( -0.000414578 0.00127415 -3.67345e-05 )  
( 0.00196683 0.00196864 0.00314286 )  
( 0.000209331 0.00224175 0.00173633 )  
( 0.000813965 -0.00090628 0.00238014 )  
( -6.91444e-05 -0.000176118 -0.000179828 )  
( 0.00102606 0.000272307 -1.31683e-07 )  
( 0.000224237 0.00094879 0.0019 )  
( 0.00103319 -0.0015261 0.00260246 )  
( 0.000871106 0.000840677 0.00171837 )  
( 0.00019578 -0.000156379 -6.93292e-05 )  
( -0.00020567 0.00128815 0.00264884 )  
( -0.000449898 -7.76448e-05 0.00162785 )  
( 0.00165651 0.00197996 5.68207e-05 )  
( 8.23727e-05 0.000391782 0.00199654 )  
( -0.000135628 0.000557202 0.00201942 )  
( 0.000664088 0.00115185 0.0035005 )  
( -0.000517372 0.000413986 0.00103616 )  
( -0.000185758 0.00187219 -9.09843e-05 )  
( -0.0013685 0.00175455 0.000826728 )  
( 0.000959647 0.00271749 0.00482941 )  
( -0.000709663 -0.00184896 0.00535173 )  
( -0.00116431 -0.00178435 -0.00266686 )  
( 3.65408e-05 0.000819463 0.00197308 )  
( 0.00207914 0.000200637 0.000243212 )  
( 0.000203917 -0.000627296 -3.20461e-05 )  
( 0.000151197 0.000558935 0.00237627 )  
( -0.000343723 -0.00149406 0.00313279 )  
( 0.000963781 0.000832485 -0.000801139 )  
( 0.000288294 -0.000817449 0.00251186 )  
( 0.000638654 0.00114735 0.00129447 )  
( 0.00053067 0.000988686 0.00279953 )  
( 0.00342107 0.000745907 -0.00351297 )  
( 0.00177183 -0.000365655 -0.00106351 )  
( -0.00131364 1.95478e-05 0.00149584 )  
( 0.000501416 0.00118996 0.001054 )  
( -0.00152067 0.00212901 0.00218364 )  
( 0.000195162 2.82715e-05 3.15066e-05 )  
( 0.000152074 -0.00125239 0.00318581 )  
( -0.000189102 0.00118224 -0.00088432 )  
( 0.000712002 0.00140859 0.00192023 )  
( 0.001809 0.000398607 -0.00230788 )  
( 0.000199261 -0.000445092 0.00149241 )  
( 0.00178353 0.00175135 0.00327349 )  
( -0.000161782 0.000186931 0.0017315 )  
( 0.000742996 -0.00163156 0.00297884 )  
( -8.65908e-05 0.00140152 0.00273497 )  
( 0.00245427 -0.000467589 0.00563379 )  
( -0.00189493 -0.000406202 0.00359632 )  
( 0.00256163 -0.00104142 1.42246e-05 )  
( 0.000707952 0.000435976 -3.06227e-05 )  
( -0.000553308 -0.000111859 0.00287968 )  
( -0.000466227 -0.00090896 0.00271095 )  
( -0.000157553 0.000487588 0.00134668 )  
( 9.23866e-05 -0.000604307 -0.000476446 )  
( -0.000355192 -0.00148353 -0.00104499 )  
( 0.000276099 0.000130564 1.72878e-06 )  
( 0.000392734 -7.68853e-05 -3.06916e-05 )  
( -0.00186811 -0.00357149 0.00954455 )  
( -0.000776143 -0.000107331 -0.000491822 )  
( 0.00207777 0.000755415 0.00576662 )  
( 0.000384507 0.000147895 -0.00130819 )  
( 0.00142911 0.00197531 0.00070668 )  
( 0.00107867 -3.08763e-05 0.00180618 )  
( 7.66763e-05 0.00134675 -0.000548668 )  
( 7.07375e-05 0.000705386 0.00194413 )  
( 0.000568439 -0.00175175 -0.000233727 )  
( -0.000157473 0.000225434 0.00236219 )  
( 0.00215328 0.00108541 0.00252141 )  
( 0.00154285 0.000748786 0.00248443 )  
( 0.00100747 -0.000733257 0.00134503 )  
( 0.00189657 -0.00095709 0.00367528 )  
( 1.40881e-05 0.000269219 0.00176318 )  
( -0.000236214 -0.000380464 0.00203159 )  
( 5.90428e-05 0.00048834 -4.18222e-05 )  
( -0.000652317 0.00078656 0.00342844 )  
( -0.000957141 -0.00033223 0.00319623 )  
( 0.000196301 0.00116045 0.00280098 )  
( 0.000704589 0.000435424 -0.000168814 )  
( -0.000185804 0.000204547 0.000290794 )  