/*--------------------------------*- C++ -*----------------------------------*\
| =========                 |                                                 |
| \\      /  F ield         | OpenFOAM: The Open Source CFD Toolbox           |
|  \\    /   O peration     | Version:  2506                                  |
|   \\  /    A nd           | Website:  www.openfoam.com                      |
|    \\/     M anipulation  |                                                 |
\*---------------------------------------------------------------------------*/
FoamFile
{
    version     2.0;
    format      ascii;
    arch        "LSB;label=32;scalar=64";
    class       volScalarField;
    location    "0.007";
    object      Ksl;
}
// * * * * * * * * * * * * * * * * * * * * * * * * * * * * * * * * * * * * * //

dimensions      [1 -3 -1 0 0 0 0];

internalField   nonuniform List<scalar> 
512
(
0
0.0363565
1.59875
0
0
0
0
0
0
0
0
0
0
0
0
0
0
0
0
0
0
0
0
0
0
0.124568
0
0
0
0
0
0
0
0
0
0
0
0
0
0
0
0
0
0
0
3.64446
0
0
0
0
0
0
0
0
0
0
0
0
0
0
0
0
0
0
0
0
1.24367
0
0
2.3581
0
0
0
0
0
0
0
0
0
0
0
3.65378
0
0
0
0
0
0
0
0
0
0
0
0
0
0
0
0
0
0
0
0
0
0
0
2.39495
0
0
0.124674
0
0
0
0
0
0
0.124299
0
0
0.247281
0
0
2.88351
0
0
0
3.63843
0
0
0
0
0
0
3.6043
0
0
0
0
0
0
0
0
0
0
0
0
0.750367
3.51344
0
0
0.124345
4.10155
0
0
0
0
0
0
0
0
0
0
0
1.24901
0
0
0
3.51218
0
2.3803
0
0
0
0
0
0
0
0
0
0.12534
0
0
0
0
0
3.65929
0
0
0
0
0
0
0
0
0
0
0
0
0
0
0
0
0
0
0
0
0
3.65513
0
0
0
0
0
0
0
0
0
0
0
0
0
0
0
0
0
0
0
0
2.35857
0
0
0
0
0
0
0
0.50889
0
0
0
0
0
0
0
0
0
0
0
0
0
0
0
0
1.62243
0
0
0
0.536077
5.92547
1.31823
0.907838
0.204947
12.6901
5.21602
6.79355
3.88033
3.67631
6.92239
2.40192
4.22134
6.43089
3.19874
3.92223
3.96492
13.1352
0.571951
3.67675
4.54534
7.66731
10.6988
0.0971918
3.07721
10.7943
3.57958
1.09203
7.64442
6.82223
0.254674
7.09975
3.88526
6.7501
3.07806
8.5807
4.52707
14.0847
15.1298
3.90494
7.55365
7.12178
0.911896
4.31962
7.40614
3.98799
3.45501
5.83406
10.6018
10.6764
7.13575
13.7932
6.02319
7.68827
9.2449
9.32348
11.6889
7.69509
0.559646
9.32424
11.4334
1.7184
7.62348
7.08244
7.85032
18.0516
9.00115
3.87839
7.51491
7.87082
10.8357
5.07433
1.17597
15.0302
4.22243
7.9705
5.18196
5.64628
9.56746
9.86532
3.76541
3.76878
1.95235
3.75451
2.54697
11.3998
5.97504
6.88304
4.77784
9.81313
13.7446
10.1765
0.180393
0.0634216
16.9137
3.59949
1.24092
3.73822
3.83641
7.52532
4.33692
14.6309
7.29111
9.341
2.84155
5.93026
2.09921
14.5369
3.89265
0.289079
6.53299
11.5767
3.97694
8.52432
7.95755
16.4871
1.4388
16.6375
4.91307
0.40189
5.07538
8.72329
5.12245
9.76989
5.09392
8.21309
8.43283
3.30562
3.0306
9.95056
6.70126
7.30826
3.85764
5.3896
14.4494
11.6136
9.87483
9.19359
16.6917
10.5291
5.57435
7.52299
8.83023
7.37663
0.0967008
9.90899
7.4708
9.22437
8.30723
14.4516
9.53899
7.50005
8.58838
4.24976
11.007
10.1765
0.97035
7.34375
0.58192
12.9424
8.38574
4.77048
6.38841
5.52889
7.46753
9.48479
8.26346
6.3247
3.12727
7.43048
3.15561
0.231068
11.2993
11.4236
6.93105
15.6254
9.40898
0.444771
7.52407
11.1439
0.202743
0
1.59173
3.73088
3.74604
0.491629
0
3.75612
11.4592
0.826083
9.54342
15.1163
0.912772
10.4541
12.8364
11.0918
7.69876
3.86055
7.69958
6.87321
4.83544
10.7224
8.2128
3.95338
1.39067
7.5466
10.9396
10.5464
11.5313
11.331
2.83259
4.13613
0.233519
8.3488
15.1239
7.63819
5.92335
17.9586
6.22364
1.50173
0
7.75975
2.23283
5.38039
0.0959743
0.368346
5.6646
4.65496
0.20313
6.4679
7.20036
1.50902
2.20953
12.0438
0.36695
1.97274
6.384
1.20489
6.58522
2.30341
3.22538
2.40538
0.127366
7.18303
8.48575
3.22753
5.7568
7.61286
4.77033
4.92048
3.77174
12.3774
3.49136
4.73233
12.5249
1.33996
)
;

boundaryField
{
    wall
    {
        type            zeroGradient;
    }
    outlet
    {
        type            cyclic;
    }
    inlet
    {
        type            cyclic;
    }
    procBoundary3to2
    {
        type            processor;
        value           uniform 0;
    }
}


// ************************************************************************* //
