/*--------------------------------*- C++ -*----------------------------------*\
| =========                 |                                                 |
| \\      /  F ield         | OpenFOAM: The Open Source CFD Toolbox           |
|  \\    /   O peration     | Version:  2506                                  |
|   \\  /    A nd           | Website:  www.openfoam.com                      |
|    \\/     M anipulation  |                                                 |
\*---------------------------------------------------------------------------*/
FoamFile
{
    version     2.0;
    format      ascii;
    arch        "LSB;label=32;scalar=64";
    class       volScalarField;
    location    "0.007";
    object      p;
}
// * * * * * * * * * * * * * * * * * * * * * * * * * * * * * * * * * * * * * //

dimensions      [0 2 -2 0 0 0 0];

internalField   nonuniform List<scalar> 
512
(
0.70184
0.769281
0.439059
0.381739
1.16809
1.22471
0.390699
-0.65311
-1.73172
-1.74576
-1.08016
-0.392284
-0.207381
-0.225421
0.330433
0.53965
0.547732
0.595313
0.504169
0.865022
1.02239
0.706496
0.436666
0.281695
0.460532
0.533723
0.576221
1.07712
1.28009
0.66799
0.154786
0.420973
0.733969
0.491509
0.376401
0.475669
0.874938
1.15654
0.0164717
-1.31002
-1.43487
-1.17716
-0.949826
-0.208819
0.208399
0.277782
0.304496
0.37835
0.652134
0.811874
0.456095
0.603542
0.818517
0.813108
0.579638
0.184138
0.207856
0.434106
0.69508
1.06626
0.998564
0.585495
0.266863
0.524828
0.769016
0.794117
0.885568
0.484434
0.515225
1.01704
0.404841
-0.725549
-1.52714
-1.60632
-0.863082
0.0933672
0.149445
-0.237256
-0.347722
0.275826
0.617544
0.332951
0.350548
0.544466
0.758158
0.741438
0.456699
0.616571
1.03712
0.74611
0.288741
0.400696
0.778588
0.847197
0.491576
0.596686
0.475332
0.71627
0.550365
0.255868
0.457925
0.770103
0.264176
-0.44863
-1.00641
-1.3626
-1.08324
0.0636608
0.37392
-0.0169265
-0.284356
-0.210527
0.377824
0.745747
0.764774
0.757262
0.873657
0.624573
0.239277
0.601787
0.999179
0.680672
0.275026
0.627563
1.05492
1.07178
0.429099
-0.0406593
0.848935
0.651764
0.378018
0.684463
0.926655
0.721829
0.173453
-0.617138
-1.12147
-1.25618
-1.28916
-0.385318
0.187602
0.0820248
0.174026
0.215376
0.166609
0.483758
0.778089
0.759286
0.716501
0.445473
0.231189
0.635336
0.774433
0.607052
0.674558
0.797571
0.684151
0.498561
0.549337
0.758857
0.695957
0.373345
0.5934
0.816256
0.698001
0.590234
0.205327
-0.808861
-1.29678
-0.825434
-0.719368
-0.739764
-0.213075
0.297368
0.316005
0.135313
0.145104
0.58143
0.805281
0.842978
0.919121
0.575633
0.0322615
0.36808
0.842595
0.603621
0.7638
0.902618
0.817545
0.539137
0.255683
0.757451
0.560344
0.407411
0.447272
0.560098
0.132472
0.00570789
0.256502
-0.435058
-0.890877
-0.592182
-0.667632
-0.777571
-0.13278
0.550364
0.404185
-0.32452
-0.383834
0.207137
0.432034
0.824284
1.18413
0.979168
0.487193
0.47771
0.47314
0.171743
0.724357
1.10328
0.89538
0.804913
0.726825
0.672175
0.332896
0.366785
0.709394
0.675717
0.19263
-0.174108
-0.314844
-0.489379
-0.467341
-0.397123
-0.551211
-0.761177
-0.0925674
0.836087
0.567933
-0.202694
-0.522145
0.066717
0.551686
0.878591
0.791665
0.541054
0.534934
0.674307
0.291772
0.40622
1.09883
1.2089
0.902832
0.743684
0.877095
0.699498
0.156446
1.08922
0.683021
0.150317
0.511042
0.587981
0.242578
-0.380579
-1.13093
-1.31784
-1.21047
-0.326464
0.524925
0.440649
0.220102
0.386121
0.402305
0.330685
0.172437
0.329329
0.538063
0.798223
0.687317
0.685874
1.17674
0.881386
0.665356
1.21732
1.35227
0.744464
0.274265
-0.137692
0.537711
0.322223
0.450593
0.280029
0.270747
0.929685
0.798758
-0.198081
-1.21229
-1.9663
-1.52891
0.0695419
0.702379
0.420762
0.371852
0.483128
0.563733
0.255922
0.0273479
0.574712
0.904584
1.02713
0.893055
0.353118
0.515439
0.491162
0.411091
0.761173
0.991816
0.859179
0.467232
0.588123
0.798044
0.899878
0.420167
0.149194
0.586689
0.989855
0.477629
-0.943161
-1.67654
-1.39636
-0.984031
-0.208364
0.32274
-0.188834
-0.619042
0.171451
0.744393
0.50505
0.269103
0.230387
0.759438
0.995975
0.821075
1.07948
1.3667
1.23073
0.339042
-0.152392
0.60662
1.20039
0.788913
0.424779
0.712276
0.368103
0.24536
0.560514
0.964316
1.03939
0.319608
-0.291635
-0.860933
-1.41002
-1.34536
-0.280867
0.167921
-0.0707414
-0.294445
0.0321145
0.64598
0.700491
0.602583
0.497947
0.638394
0.720176
0.657337
0.945314
0.827165
0.183961
-0.13268
0.303701
0.597038
0.841466
1.35401
1.21102
0.771801
0.693186
0.362118
0.401009
0.811401
1.00852
0.389076
-0.816488
-1.49554
-1.21814
-0.409396
-0.0930702
0.140707
0.102716
-0.313121
-0.015446
0.376943
0.424964
0.826883
0.967299
0.639488
0.393087
0.539359
0.791639
0.330099
0.0979994
0.771046
0.568429
0.173177
0.617208
1.07708
1.01131
0.56477
0.310328
0.578355
0.863664
1.22075
0.679522
-0.887399
-1.78253
-1.27104
-0.477224
-0.453097
-0.402525
0.139177
0.316311
0.351303
0.608331
0.367567
0.201101
0.805266
1.17968
1.11774
0.471851
-0.599908
-0.312948
0.585891
1.03874
1.05037
0.732645
0.418784
0.745088
1.43353
1.25055
0.903335
1.00496
0.784865
0.641383
0.333561
-0.0108668
-0.111983
-0.560714
-1.07263
-0.980824
-0.60357
-0.454556
-0.166775
0.440459
0.646328
0.541564
0.0728449
-0.0542093
0.360007
0.777574
1.02072
0.953779
0.552258
0.289973
0.48051
0.663487
0.603578
0.556491
0.969911
1.02434
0.314796
0.309334
0.373579
0.842519
1.19018
0.797111
-0.0333349
-0.603979
-0.510834
-0.507862
-0.707801
-0.408355
-0.392396
-0.543834
-0.0791329
0.526608
0.235451
0.275372
0.523217
-0.056023
0.0238989
0.858779
0.850707
0.531187
0.652707
0.615174
0.545872
0.419817
0.360221
0.906252
1.215
1.35641
0.973765
0.230738
)
;

boundaryField
{
    wall
    {
        type            zeroGradient;
    }
    outlet
    {
        type            cyclic;
    }
    inlet
    {
        type            cyclic;
    }
    procBoundary3to2
    {
        type            processor;
        value           nonuniform List<scalar> 
256
(
0.785867
0.640251
0.0579758
-0.0264904
0.71247
1.29729
0.893801
-0.527695
-1.79755
-1.55863
-0.721001
-0.370377
-0.470441
0.00653456
0.631887
0.457479
0.380325
0.509467
0.382501
0.789877
0.956393
0.68838
0.186496
0.14039
0.40455
0.469735
0.432531
0.994751
1.41109
0.85477
0.298306
0.481266
0.599752
0.27685
0.0593247
0.312556
0.842262
1.30477
0.779133
-0.82642
-1.71971
-1.38128
-0.890602
-0.554258
-0.326326
0.142609
0.547128
0.724867
0.784062
0.512416
0.456457
0.88909
0.883267
0.74987
0.403162
0.16396
0.426681
0.809557
0.659515
0.604937
0.818316
0.68968
0.554487
0.589284
0.203005
0.452433
0.886579
0.662507
0.577461
1.07194
0.945237
-0.478231
-1.75895
-1.35539
-0.666508
-0.58125
-0.584631
-0.0400576
0.0443941
0.235915
0.481884
0.395778
0.697782
1.05464
1.02341
0.645519
0.10408
0.106741
0.344111
0.442037
0.720462
0.920868
0.896526
0.903185
0.960077
0.661989
0.657408
0.877373
0.668961
0.0654065
0.227518
0.804464
0.9693
0.132625
-1.07071
-1.72128
-1.59495
-0.754646
-0.29859
0.0351674
0.132239
0.2509
0.660671
0.73491
0.835181
0.986864
0.950848
0.495198
0.123958
0.403515
0.522204
0.526153
0.565861
0.644988
0.870549
0.967658
0.736818
0.56094
0.62698
0.620795
0.606871
0.644833
0.531316
0.379213
0.134063
-0.428746
-0.908725
-1.0704
-1.00817
-0.932903
-0.128797
0.239841
0.431022
0.593245
0.410617
0.40506
0.874559
0.871845
0.72438
0.418768
0.164225
0.634269
0.788977
0.59821
0.4854
0.854601
0.92841
0.605585
0.66958
0.712911
-0.153252
-0.107217
0.770472
1.30869
0.724231
-0.109501
-0.644219
-0.650502
-0.256456
-0.36618
-0.926724
-1.1666
-0.263718
0.523336
0.461908
0.359885
0.391196
0.634403
0.663548
0.476352
0.765486
0.576236
0.00540628
0.355353
0.782853
0.624485
0.93055
1.15206
1.14366
1.06191
0.882148
0.592511
0.0556393
-0.192408
0.841456
1.3554
0.362604
-0.519902
-0.621439
-0.496847
-0.566002
-0.662738
-0.902952
-0.949368
-0.586146
0.626817
1.1802
0.669863
0.517455
0.538226
0.683956
0.580923
0.469948
0.261672
0.245992
0.30155
0.325727
0.634265
0.820632
1.15823
1.29987
1.02558
0.787581
0.801653
-0.114946
-0.354638
1.08367
1.36127
0.269089
-0.446806
-0.612938
-0.488336
-0.7009
-1.08308
-1.05906
-0.746623
-0.322694
0.706663
0.919437
0.47956
0.404493
0.410361
0.667267
0.628916
0.228137
0.0378528
0.553806
1.07507
0.808656
0.825545
0.871671
1.22367
1.43038
0.999855
0.927677
0.966275
)
;
    }
}


// ************************************************************************* //
