/*--------------------------------*- C++ -*----------------------------------*\
| =========                 |                                                 |
| \\      /  F ield         | OpenFOAM: The Open Source CFD Toolbox           |
|  \\    /   O peration     | Version:  2506                                  |
|   \\  /    A nd           | Website:  www.openfoam.com                      |
|    \\/     M anipulation  |                                                 |
\*---------------------------------------------------------------------------*/
FoamFile
{
    version     2.0;
    format      ascii;
    arch        "LSB;label=32;scalar=64";
    class       surfaceScalarField;
    location    "0.007";
    object      phi;
}
// * * * * * * * * * * * * * * * * * * * * * * * * * * * * * * * * * * * * * //

dimensions      [0 3 -1 0 0 0 0];

oriented        oriented;

internalField   nonuniform List<scalar> 
1200
(
0.00151969
8.99644e-07
9.90357e-06
0.00150914
5.71307e-06
3.05479e-06
0.00150944
-5.99083e-07
-7.37204e-07
0.00152233
-7.88281e-06
-4.31369e-06
0.00151751
4.38659e-07
-3.03857e-06
0.00150545
-7.11821e-07
-1.67552e-06
0.00150588
-2.34625e-06
-1.87816e-06
0.00151465
6.76858e-07
3.08856e-07
0.00151717
-1.37126e-06
6.64864e-06
0.00152039
-2.45378e-06
5.14242e-06
0.00151822
3.99821e-06
4.57714e-06
0.00151033
6.84256e-06
4.12248e-06
0.00150224
2.64431e-06
5.03043e-07
0.00150846
-2.65548e-06
-7.93774e-06
0.00151453
-7.98446e-07
-5.19725e-06
0.00151568
-8.12108e-07
-3.54397e-07
0.00151486
-3.39889e-06
2.37562e-06
0.00151199
-3.97266e-06
3.06224e-07
0.00151239
-5.40406e-06
-2.68382e-06
0.00151788
-3.20082e-06
-6.1295e-06
0.00151272
2.5405e-06
5.43968e-06
0.00151238
-1.46115e-07
5.55151e-06
0.0015125
-1.44268e-06
1.27484e-06
0.00151206
1.21095e-06
-2.31713e-06
0.00151063
4.08579e-06
-2.19083e-06
0.00150908
7.10245e-07
2.16494e-06
0.00150875
-1.92592e-06
2.1893e-06
0.00151012
-9.76652e-07
8.3468e-07
0.00151171
7.56487e-07
1.59906e-06
0.0015169
2.08325e-06
-2.42792e-06
0.00152632
1.33967e-06
-7.32299e-06
-3.14311e-07
-4.51025e-06
0.00154828
3.14307e-06
2.87938e-06
0.00154197
4.40173e-06
6.45861e-06
0.00153748
2.92832e-06
2.11057e-06
0.00153548
-6.73782e-06
-2.92623e-06
0.00153764
-2.21927e-06
-8.92092e-06
0.00152522
2.55451e-06
2.06003e-06
0.00152141
-2.16624e-07
1.11289e-06
0.0015371
-2.48071e-06
-1.07381e-06
0.00154065
1.70933e-07
-1.32565e-06
0.00153018
2.02817e-06
8.49631e-06
0.00152983
1.67449e-06
1.27259e-05
0.0015374
1.14212e-06
5.81664e-06
0.00153297
3.14792e-06
2.45787e-06
0.00151914
3.76841e-06
3.41109e-06
0.00151011
4.59727e-06
3.04073e-07
0.0015198
-3.20673e-06
-5.24226e-06
0.00152599
-4.35844e-06
-3.75863e-06
0.00151781
-1.34165e-06
5.12336e-07
0.00151797
-5.38459e-06
-3.67905e-06
0.00152977
-7.71098e-06
-7.22515e-06
0.00153925
-1.90124e-06
-5.02044e-06
0.00153855
3.11102e-08
4.06859e-06
0.00152608
6.33333e-06
4.64035e-06
0.00152378
1.55194e-06
-3.10294e-06
0.00152996
-1.28242e-06
-4.06739e-06
0.0015379
-5.2682e-06
-1.38394e-06
0.00153776
-1.84139e-06
-2.50563e-06
0.0015347
2.0527e-06
-1.78183e-06
0.0015333
2.61708e-06
7.46818e-06
0.00153745
-1.62553e-06
5.06404e-06
0.00154935
-3.5276e-06
-5.49865e-06
-1.45179e-06
-4.15776e-06
0.00154191
5.50918e-07
-2.1238e-06
0.00154643
6.51037e-07
-1.17908e-05
0.0015449
5.5013e-06
-8.05461e-06
0.00153525
-3.00858e-07
4.62052e-06
0.00153962
-5.52044e-06
1.11602e-06
0.00153756
9.02517e-07
-4.82648e-06
0.00153782
6.48471e-06
-1.0551e-05
0.00153959
2.9084e-06
5.59217e-06
0.00153219
1.11655e-06
1.00587e-05
0.00153909
-4.03038e-06
-5.46954e-06
0.00154757
-6.12725e-07
-4.87615e-06
0.00154341
-5.43507e-07
5.42923e-06
0.00153464
2.47155e-06
3.73732e-06
0.00153681
1.70756e-07
-3.74518e-06
0.00154047
-4.85267e-07
-1.50172e-06
0.00153493
-4.2257e-07
3.01648e-06
0.00152732
-3.68857e-07
3.26421e-06
0.00152859
-3.08342e-06
-2.92001e-06
0.00152111
-7.74184e-07
-2.77545e-06
0.00151679
-4.8767e-06
2.37645e-06
0.00152479
-5.12371e-06
2.55904e-06
0.00152881
-2.66616e-06
3.22904e-06
0.00153162
4.72058e-06
1.93272e-06
0.00153156
3.855e-06
-3.67084e-07
0.00152454
3.76211e-06
2.10644e-06
0.00151626
2.3162e-06
-3.07196e-06
0.0015155
-1.56378e-06
-5.887e-06
0.00152072
-5.7247e-06
-1.52916e-06
0.00152984
-5.07874e-06
3.99187e-06
0.00153112
-2.67692e-06
3.15587e-06
0.00153352
1.41248e-06
-3.32441e-07
1.69929e-06
2.24714e-06
0.00152433
-4.21807e-06
-6.79951e-07
0.00152147
-4.41154e-07
1.31667e-06
0.00152171
3.00128e-06
1.88671e-06
0.00151984
-7.4334e-07
3.07873e-06
0.00152189
-9.98191e-06
4.04811e-06
0.00152565
-6.06648e-06
-1.07552e-05
0.00153743
-2.76526e-06
-1.17501e-05
0.00154698
4.97115e-06
7.3944e-07
0.0015426
1.09415e-05
4.63553e-06
0.00153495
3.03382e-06
8.06583e-06
0.00153541
-4.37753e-06
7.85877e-06
0.00153
-2.17677e-06
7.58742e-06
0.00151549
9.56045e-06
4.10416e-06
0.00151418
1.33861e-06
-1.29148e-06
0.00152048
-6.13523e-06
-1.68041e-06
0.00152841
-6.96104e-06
5.19293e-07
0.00153343
3.22481e-07
-3.3773e-06
0.00152897
4.16855e-06
-3.53127e-06
0.00152339
5.71132e-06
-6.2394e-06
0.00152464
7.64358e-08
-5.57921e-06
0.00152879
-3.37533e-06
-1.28894e-06
0.00152645
-1.37552e-06
3.22594e-06
0.00153016
1.1426e-06
1.97766e-07
0.00154043
-2.44535e-06
-2.14411e-06
0.00154259
2.58978e-07
-1.66407e-06
0.00153088
3.80815e-06
1.35077e-06
0.00152507
-3.29053e-06
-3.96058e-07
0.00152567
-5.48689e-06
-3.68688e-06
0.00152558
-4.16061e-06
-8.7591e-07
0.00151124
1.07922e-06
1.19226e-05
0.00150698
5.30568e-06
4.98262e-06
-2.78826e-06
-1.82222e-06
0.00153368
3.20007e-06
-1.25743e-06
0.0015293
6.94341e-06
-2.39545e-06
0.00153136
5.01872e-06
-4.95698e-06
0.00153245
-9.29075e-07
-1.05423e-06
0.00152637
-4.55587e-06
3.23349e-06
0.00152096
-4.19987e-06
-2.91602e-06
0.00151648
-2.89413e-06
-4.78984e-06
0.00151756
5.92544e-06
-4.40621e-07
0.00151765
1.32827e-05
2.54115e-06
0.00151534
5.24957e-06
2.96076e-06
0.00152723
-6.72713e-06
8.9741e-07
0.00152964
-2.48008e-06
2.27909e-06
0.00153299
8.65609e-06
-1.94098e-07
0.00153456
2.07551e-07
-5.34404e-06
0.00153515
-1.0028e-05
-1.79555e-06
0.00153579
-1.13775e-05
8.95738e-08
0.00153741
-2.96605e-06
-1.69779e-06
0.00153903
6.49687e-07
-1.27266e-06
0.00154419
-9.68398e-07
-1.61028e-06
0.00154433
2.55792e-07
-1.88053e-06
0.00153675
3.36336e-06
8.05103e-07
0.00153119
2.31348e-06
2.01226e-06
0.00153203
1.93192e-06
-4.87627e-06
0.00153676
-1.83184e-06
-8.46132e-06
0.00154449
-5.2105e-06
-2.42635e-06
0.00155093
-5.9172e-06
3.606e-06
0.00154867
-2.1084e-06
-7.11413e-07
0.00153727
6.06132e-07
1.99019e-06
0.00152283
8.43483e-08
1.20656e-05
0.00152689
-2.74885e-06
8.32868e-06
0.00153638
2.76145e-06
-3.29496e-07
1.60055e-06
-2.77064e-06
0.00153202
-1.57918e-07
4.09853e-06
0.0015269
2.99376e-06
-3.29292e-06
0.00152703
3.58186e-06
-6.80336e-06
0.00153314
-4.23777e-06
4.02522e-06
0.00153955
-2.67774e-06
4.34191e-06
0.00153237
3.30839e-06
-5.75536e-06
0.00151502
1.08707e-06
-4.53044e-06
0.00151497
-1.17879e-06
3.3129e-06
0.00154154
-8.77933e-07
-3.78443e-06
0.00154838
4.06023e-06
4.14346e-06
0.00152867
6.72968e-06
9.49587e-06
0.0015235
1.27456e-06
1.48124e-06
0.00153299
1.79763e-06
-7.41049e-06
0.00153095
2.72539e-06
-4.45527e-06
0.00152756
-5.37609e-06
3.84315e-06
0.00153019
-8.57605e-06
-5.67018e-07
0.00153736
-4.42536e-06
-7.51636e-06
0.0015339
1.79127e-06
4.99005e-07
0.00152611
3.41873e-06
6.85768e-06
0.00152834
2.73869e-06
-1.55985e-06
0.00153361
4.15869e-06
-5.89826e-06
0.0015356
9.17093e-07
-2.0736e-06
0.00153691
-3.45697e-06
1.60959e-06
0.00154178
-1.04671e-05
4.99829e-06
0.0015417
-6.64478e-06
2.35736e-06
0.00152788
2.80865e-06
2.5261e-06
0.00151407
6.36374e-06
1.57132e-06
0.00150864
6.62563e-06
-4.73243e-06
0.00149622
1.00817e-05
-1.71926e-06
0.00149547
1.69436e-06
7.32396e-07
0.0015196
-5.5514e-06
-1.82449e-06
-3.011e-06
1.41789e-06
0.00153083
5.62518e-07
3.6536e-06
0.00152128
4.66458e-06
-4.42674e-06
0.00152873
-4.85019e-07
-1.05541e-05
0.0015355
-2.77036e-06
-2.16935e-06
0.0015419
-2.281e-06
4.05298e-06
0.00154975
-2.61984e-06
2.78554e-06
0.00154659
1.15361e-06
3.54253e-06
0.00153578
5.24605e-06
-1.55984e-07
0.00154038
-5.02971e-07
-7.59554e-06
0.00154282
2.01475e-06
1.09123e-07
0.00153578
6.75021e-06
9.85771e-06
0.00152626
4.85132e-06
5.08627e-06
0.00152414
1.68576e-06
7.25188e-07
0.00152969
-1.21492e-07
-5.7446e-06
0.0015232
1.73736e-07
-2.15187e-06
0.00152214
-4.2095e-06
2.80926e-07
0.00152432
-4.44575e-06
-1.99011e-06
0.00152714
-3.12906e-06
-2.80529e-06
0.00152688
2.38271e-06
9.36569e-08
0.00153221
-7.88118e-07
2.94676e-06
0.0015407
-2.3218e-06
1.43831e-06
0.00153671
3.0092e-06
4.32822e-08
0.00152927
3.28664e-06
-1.33209e-06
0.00152068
-5.92244e-06
3.05209e-06
0.00151561
-4.65833e-06
1.38319e-06
0.00152324
5.2066e-07
-5.66039e-06
0.00153031
1.86368e-06
-4.30719e-06
0.00152706
6.63663e-06
3.37818e-06
0.00152948
7.39402e-06
5.38985e-06
0.00153054
4.68325e-06
-3.77937e-06
0.00153286
-1.11083e-07
-1.54032e-06
-3.26049e-06
7.10011e-06
0.0015134
7.1196e-06
0.00151259
-3.43615e-06
0.00151279
-4.62469e-06
0.00151421
-7.81478e-07
0.00151306
1.66837e-06
0.00150743
4.45659e-06
0.00150535
6.00339e-07
0.00151085
-1.88553e-06
0.00150808
4.60941e-06
0.00150689
7.56368e-06
0.00150954
5.92024e-06
0.00151523
-1.49373e-06
0.00151788
-2.95738e-06
0.00151286
3.3812e-07
0.00150945
2.31821e-06
0.00151496
5.11669e-06
0.00152022
-4.25081e-06
0.00151598
-5.62725e-06
0.00151249
5.41427e-06
0.00151214
5.76369e-06
0.00150865
2.00924e-06
0.0015077
-1.37877e-06
0.00151416
-6.99414e-06
0.00151249
-5.67559e-06
0.00150186
-1.93283e-06
0.00149718
-3.46992e-06
0.00149607
-7.1795e-07
0.00150371
-1.14309e-06
0.00151685
-1.22664e-07
0.00152199
-2.10566e-08
0.00152328
-2.67049e-07
5.66929e-06
0.00144602
-9.59676e-06
0.00144905
2.17351e-08
0.00144798
3.25099e-07
0.00144772
-4.05798e-06
0.00144116
3.5174e-06
0.00143964
-2.37155e-07
0.00144482
-7.08307e-06
0.00145255
-7.46173e-06
0.00146237
-3.18714e-06
0.00146105
6.41972e-06
0.00145819
7.42034e-06
0.00146053
1.76044e-06
0.00146068
3.4338e-07
0.00144965
3.0579e-06
0.00144163
2.81697e-06
0.0014418
-5.46261e-07
0.00144808
-3.89177e-06
0.00145075
-2.50173e-06
0.00144719
8.66248e-07
0.00144144
-3.80782e-07
0.0014467
1.75846e-07
0.00145465
-2.46151e-06
0.00145802
-2.09169e-06
0.00144971
5.99415e-06
0.00143731
1.01928e-05
0.00143951
-4.37868e-08
0.00144875
-7.07733e-06
0.00145883
-9.25724e-06
0.00145875
1.61744e-06
0.00144792
8.3632e-06
0.0014296
1.09991e-05
-1.50541e-06
0.00144292
-2.02868e-06
0.00145526
-5.87776e-06
0.00145822
-5.26788e-07
0.0014485
2.64944e-06
0.00143973
3.34949e-06
0.00144274
-1.27923e-06
0.00143836
-1.67121e-06
0.0014233
6.53622e-06
0.00141155
7.14281e-06
0.00142966
-3.22851e-06
0.00146023
-1.04172e-05
0.00147159
-3.82065e-06
0.00147598
-1.59487e-06
0.00147816
4.24826e-06
0.00147369
7.56462e-06
0.00146561
2.27507e-06
0.00145765
3.06195e-07
0.0014547
9.14275e-07
0.00145051
1.3448e-06
0.00143864
4.21525e-06
0.00143258
1.20471e-06
0.00143613
-2.02272e-06
0.00143595
2.68684e-06
0.00143966
-8.6741e-07
0.00144597
-1.88384e-07
0.0014541
-9.55371e-06
0.001452
-7.48376e-06
0.00144092
-4.45507e-08
0.00144609
3.88538e-06
0.00145976
-2.61866e-07
0.00146138
3.87206e-06
8.07654e-06
0.0014706
2.11918e-06
0.00144676
6.13281e-06
0.00143433
3.80015e-06
0.00144586
-4.2601e-06
0.00145997
-9.59021e-06
0.00145413
-2.75062e-07
0.00143599
5.86603e-06
0.00144603
2.08318e-06
0.00146869
-5.47206e-06
0.00146204
-2.16245e-06
0.00144763
-8.7888e-07
0.001452
-2.7578e-06
0.0014531
1.00936e-06
0.00145212
1.46877e-06
0.00145969
-1.50125e-06
0.00146367
1.29061e-06
0.00146518
2.0802e-06
0.0014622
9.54872e-07
0.00146208
-1.32537e-06
0.00147412
-5.4427e-06
0.00148232
-4.46898e-06
0.00148204
1.49189e-06
0.0014821
4.51555e-06
0.00148016
6.51642e-07
0.00148006
1.99263e-06
0.00146222
5.17324e-06
0.00144648
2.2944e-06
0.00144937
-4.54444e-06
0.00145948
-2.23008e-06
0.00146026
2.10986e-06
0.00146415
-4.23553e-07
-2.497e-06
0.00145405
-5.2898e-06
0.00146547
-3.9487e-06
0.00146804
3.10553e-06
0.00146635
5.26246e-07
0.00147089
-1.00675e-05
0.00146612
-6.32942e-06
0.0014593
8.78812e-07
0.00145337
8.70976e-06
0.00144252
9.9908e-06
0.00144923
-7.74945e-07
0.00146312
-6.92098e-06
0.001467
9.43161e-07
0.00146876
3.36252e-06
0.00146698
1.94902e-06
0.00146438
-6.10943e-07
0.0014696
-3.45925e-06
0.00147192
-3.62279e-06
0.001466
3.34582e-06
0.00145692
1.49845e-06
0.00144916
-3.30237e-06
0.00144787
-4.47633e-06
0.00145371
-1.20673e-06
0.00145917
-7.81064e-07
0.00146013
-2.46002e-06
0.00145732
3.06859e-06
0.00145476
9.08328e-06
0.0014524
4.22715e-06
0.00144319
9.33886e-07
0.00143912
9.47451e-07
0.00145098
2.14006e-06
0.00145208
3.39233e-06
3.80595e-07
0.00146132
5.0148e-06
0.00144788
7.0759e-06
0.00144334
2.63754e-06
0.00144766
-4.85528e-06
0.00145434
-1.35273e-05
0.0014525
-7.43778e-06
0.00144091
7.56013e-06
0.00143542
1.37432e-05
0.00144034
7.5805e-06
0.00144189
6.03004e-07
0.0014351
7.29668e-07
0.00143677
1.56195e-06
0.00143995
-6.5929e-08
0.00143967
-3.08116e-06
0.00144789
-1.06646e-05
0.00145629
-1.18284e-05
0.001459
-8.03064e-06
0.00146011
9.339e-07
0.00145583
4.14637e-06
0.00144597
4.64162e-06
0.00144208
1.69894e-07
0.00144454
-1.67865e-06
0.00143299
5.93339e-06
0.00141646
5.60109e-06
0.0014215
-4.48186e-06
0.00143327
9.03635e-07
0.00142864
8.10777e-06
0.00142723
4.3271e-06
0.00144274
-2.50088e-06
0.00145875
-5.60584e-06
0.00147156
-9.75769e-06
-3.75703e-06
0.00146011
3.57444e-06
0.00145755
6.34677e-06
0.00144881
4.5748e-06
0.0014553
-7.36137e-06
0.00145254
-6.42034e-06
0.00143234
7.01062e-06
0.00143391
1.35412e-06
0.001454
-3.06289e-06
0.00145529
2.48529e-06
0.00145589
4.14535e-06
0.00146522
8.90173e-07
0.00147066
-2.3922e-06
0.00146453
-1.39815e-06
0.00146058
-3.58368e-06
0.00146106
-7.35815e-06
0.00145294
-4.27652e-06
0.00144099
-3.61502e-06
0.00144704
-4.60923e-06
0.00145648
1.58957e-06
0.00145019
9.26742e-06
0.00143661
7.85625e-06
0.00143389
-1.03065e-06
0.00145262
-1.12094e-05
0.00147524
-1.2061e-05
0.00147797
-4.876e-06
0.0014834
-2.00632e-06
0.00148773
5.3483e-06
0.00148009
7.25846e-06
0.00147677
-9.44984e-07
0.00147578
-3.89108e-06
0.00146301
1.11337e-06
6.08381e-06
0.00146758
6.49167e-06
0.00145793
1.15737e-05
0.00144873
3.11434e-06
0.0014495
-1.03071e-05
0.00145512
-7.99941e-06
0.00145562
9.30384e-06
0.00145304
7.4074e-06
0.00144642
3.38671e-06
0.00144118
5.15652e-08
0.00144801
-2.59049e-06
0.00146036
-1.60221e-06
0.00146386
-8.31483e-07
0.00146755
-4.36358e-06
0.00146406
-5.832e-06
0.00145399
5.23539e-07
0.00144371
6.24399e-06
0.00144273
-4.61711e-06
0.00144478
-9.47118e-06
0.00144808
-1.62633e-06
0.00146001
2.3339e-07
0.00146824
1.06552e-06
0.00146427
2.96759e-06
0.00145235
-6.23113e-07
0.0014496
-6.31211e-06
0.00144941
-3.33142e-06
0.00144289
-1.19054e-06
0.00144279
1.03525e-06
0.00145574
-2.33491e-06
0.00145985
3.39604e-07
0.0014489
3.24245e-06
0.00144952
-1.05244e-06
-4.15656e-06
0.0014473
0.00145543
0.00145388
0.00144274
0.00143641
0.00145018
0.00145819
0.00145969
0.00146435
0.00146926
0.00147358
0.00147123
0.00146391
0.0014584
0.00146124
0.00147259
0.00146368
0.00144857
0.00145236
0.00145835
0.00146142
0.001463
0.00145536
0.00144338
0.00143804
0.00143337
0.00143368
0.00143018
0.00143032
0.00143356
0.00143217
)
;

boundaryField
{
    wall
    {
        type            calculated;
        value           nonuniform List<scalar> 
384
(
1.1411e-09
-7.66633e-09
1.0283e-07
1.47847e-08
1.6435e-08
2.83354e-08
1.16783e-09
-5.96402e-16
1.58299e-09
1.89226e-08
4.367e-08
-2.61239e-08
2.14792e-08
-3.99958e-09
8.97461e-10
4.11321e-09
9.80379e-09
9.27461e-09
4.31009e-08
1.26052e-08
4.31821e-08
5.08382e-09
1.06922e-07
2.51834e-08
9.12395e-09
8.0086e-08
2.022e-10
-1.46588e-08
1.25823e-08
4.27105e-08
-5.17132e-10
5.66988e-08
7.18776e-11
2.11249e-08
-4.76266e-08
-1.47867e-08
8.45861e-09
-4.33293e-09
1.16738e-08
-2.10776e-12
8.537e-08
9.11787e-08
5.81013e-09
6.98768e-08
3.24236e-08
-1.14782e-08
-1.12767e-09
-1.19838e-08
2.73418e-08
7.59449e-08
4.88727e-08
5.59072e-08
1.21833e-07
1.15248e-07
6.98838e-08
-4.95994e-09
1.95335e-08
-3.21039e-09
9.56579e-09
3.51828e-08
1.95282e-08
2.88891e-08
1.26362e-08
3.16847e-10
1.88509e-08
8.87443e-08
1.43369e-08
2.75087e-08
3.03839e-08
1.25925e-08
7.35892e-08
5.5934e-09
3.92883e-08
3.31898e-08
1.11748e-07
-2.92257e-08
2.79276e-08
7.86266e-09
2.05774e-08
3.96099e-08
2.31596e-08
-4.05286e-10
-1.79475e-09
4.19219e-09
3.78848e-08
-1.53536e-09
-3.49705e-11
-5.28395e-10
1.79526e-08
3.65329e-08
-5.70474e-09
1.08055e-08
-3.66868e-09
-5.52948e-10
1.79852e-08
2.04533e-08
7.80803e-09
7.56597e-09
2.85459e-08
-5.49804e-09
5.2614e-08
5.45319e-08
7.26097e-09
4.98514e-09
4.31602e-08
3.94803e-08
1.82068e-08
7.48724e-09
-3.40014e-08
-6.45154e-09
-1.35602e-08
7.60444e-09
3.95731e-10
2.08381e-08
-2.60909e-09
2.876e-08
3.28761e-08
5.32932e-08
4.56855e-08
3.72532e-09
2.05919e-08
2.2267e-08
2.0361e-08
4.9514e-08
6.64476e-08
3.70098e-09
3.53954e-08
9.33805e-09
-7.03094e-09
3.22225e-09
-2.23885e-08
-1.24194e-09
4.39423e-16
1.5395e-08
-4.52297e-09
4.55115e-08
1.38227e-07
4.59127e-08
1.40551e-08
2.8049e-10
2.99929e-08
3.90888e-11
5.82763e-09
3.02394e-09
4.93904e-09
3.34454e-08
1.6887e-08
2.1937e-08
1.40873e-08
-2.60172e-08
9.86343e-09
-6.39475e-10
6.33713e-09
4.01889e-08
1.0197e-09
3.61413e-08
3.51517e-08
9.83249e-08
5.08724e-08
-1.76103e-08
3.44964e-10
1.87701e-08
2.68726e-08
4.62467e-09
5.44429e-08
-6.6946e-10
9.21097e-11
2.31521e-09
6.19857e-08
7.79894e-08
-7.53185e-10
9.09236e-08
1.99581e-08
0
6.58541e-09
6.10513e-09
-6.78585e-09
4.24115e-08
4.29408e-08
3.407e-08
-3.90938e-08
1.7683e-08
1.23534e-09
1.99765e-08
-4.43399e-16
4.58329e-08
5.3304e-08
7.31102e-09
7.8441e-09
3.78388e-08
6.00798e-08
-1.39909e-08
1.87291e-08
1.72325e-09
2.89427e-08
6.70176e-08
8.21533e-08
2.4029e-08
3.06816e-08
7.78781e-08
1.06922e-08
-3.60137e-09
3.28029e-08
6.22405e-09
1.82147e-08
5.31725e-09
3.52194e-08
1.1475e-08
1.54592e-08
-1.02512e-10
7.45092e-08
3.03317e-08
4.07807e-08
0
1.11746e-07
9.0552e-09
1.53552e-08
9.31783e-08
8.16038e-08
3.83165e-08
-9.36789e-10
-2.22481e-08
1.63346e-08
1.97395e-08
5.90746e-08
2.34293e-08
-1.41171e-11
2.34214e-08
9.33408e-09
5.06925e-08
0
7.22525e-08
3.66734e-08
2.47308e-08
3.18506e-10
2.7744e-08
6.30631e-08
8.1584e-10
3.24027e-08
-1.01907e-08
9.83007e-10
8.2041e-09
8.15349e-08
6.73523e-08
1.06607e-08
7.87419e-08
9.23224e-09
2.47591e-08
7.20811e-08
3.32861e-08
-9.98715e-09
4.89436e-08
3.05296e-08
-1.88098e-08
1.55884e-08
9.61932e-10
0
2.38458e-12
3.11981e-14
8.70538e-11
1.17295e-11
3.23636e-11
0
3.21882e-10
0
-1.35763e-12
0
-1.80134e-09
0
-2.58399e-10
0
1.2271e-08
0
4.83003e-10
0
-1.41094e-10
0
-1.85488e-10
0
-1.79959e-11
0
-5.95909e-11
0
-1.72715e-10
0
1.3966e-10
0
1.20336e-10
0
-1.70144e-10
0
-1.03696e-11
0
-3.11662e-12
0
-2.61104e-11
0
-1.28711e-10
0
-3.36751e-10
0
-3.63347e-10
0
2.97197e-13
0
7.33645e-11
1.50331e-11
9.10399e-10
0
9.37488e-09
0
-2.26938e-11
0
-3.18377e-10
0
-1.23619e-10
0
-1.77715e-12
0
-4.40132e-10
0
-8.98915e-10
0
-8.16677e-11
0
1.19398e-08
-3.65489e-10
-4.91984e-10
0
-2.02612e-13
0
-2.01309e-10
0
1.03765e-10
0
-7.34501e-10
0
-1.85299e-09
0
2.54387e-08
0
1.90238e-12
5.44172e-11
9.49855e-11
0
2.87027e-10
0
4.38629e-09
0
3.88972e-11
0
-1.85195e-10
0
-2.38177e-10
0
-3.39281e-12
0
4.24072e-14
0
2.62835e-08
0
-2.41532e-10
0
1.13276e-08
0
6.27625e-11
0
3.82389e-09
0
-8.35311e-11
0
-3.12393e-09
0
-8.04049e-11
0
-4.00678e-10
4.08267e-11
5.06533e-10
0
1.77242e-10
0
3.7204e-08
0
2.46696e-09
)
;
    }
    outlet
    {
        type            cyclic;
        value           nonuniform List<scalar> 
16
(
0.00153087
0.00155487
0.00153786
0.0015177
0.0015382
0.00153156
0.00153718
0.00152055
0.00142652
0.0014476
0.00147698
0.00144733
0.0014729
0.0014546
0.00146685
0.00143368
)
;
    }
    inlet
    {
        type            cyclic;
        value           nonuniform List<scalar> 
16
(
-0.00153087
-0.00155487
-0.00153786
-0.0015177
-0.0015382
-0.00153156
-0.00153718
-0.00152055
-0.00142652
-0.0014476
-0.00147698
-0.00144733
-0.0014729
-0.0014546
-0.00146685
-0.00143368
)
;
    }
    procBoundary3to2
    {
        type            processor;
        value           nonuniform List<scalar> 
256
(
3.79241e-07
1.7832e-06
1.03664e-06
-7.01257e-07
7.42656e-06
1.44466e-05
3.7951e-06
-9.75949e-06
-7.79939e-06
-5.90981e-06
-6.39968e-06
-3.07786e-06
4.94134e-06
4.37355e-06
-6.93244e-08
1.69935e-08
1.83756e-06
6.54332e-06
7.68035e-06
3.84094e-06
-2.81425e-06
-5.06933e-06
4.9549e-08
1.54845e-06
-4.68028e-07
-1.32634e-06
6.40506e-08
-1.22099e-06
-3.95289e-06
-4.84441e-06
-3.4307e-06
2.71432e-07
1.45989e-06
1.16802e-06
-1.14719e-06
3.78023e-06
9.41743e-06
7.09078e-06
5.68151e-07
-1.14549e-05
-3.76924e-06
-2.50705e-06
-1.005e-05
-7.68709e-06
1.46382e-06
3.99855e-06
3.33433e-06
-2.05706e-06
-1.46817e-06
5.03551e-06
3.49518e-06
-6.21461e-08
-2.31711e-08
-3.53772e-06
4.78206e-08
5.06839e-06
3.25107e-06
-5.77619e-07
2.55803e-06
1.8133e-06
-7.92515e-06
-5.50362e-06
-1.53506e-06
-2.22933e-07
6.62872e-07
1.10204e-05
7.0089e-06
-1.4033e-06
-2.18257e-06
8.54042e-06
3.58495e-06
-1.275e-05
-3.60476e-06
4.62985e-06
-1.31701e-06
4.16023e-07
5.71014e-06
5.1707e-06
2.92404e-06
-2.62674e-07
3.57058e-07
3.39589e-06
5.64344e-06
-8.94288e-07
-7.33387e-06
-4.55126e-06
-3.13129e-06
-1.87707e-06
-1.2462e-07
3.75953e-06
6.37018e-06
4.09137e-06
-5.42337e-06
-3.38012e-06
-7.00294e-06
-9.7398e-06
-1.18477e-06
2.64309e-06
3.69173e-07
-7.63286e-07
-1.63997e-06
1.39616e-05
9.22201e-06
-1.23519e-05
-1.00761e-05
-7.47991e-06
-4.55853e-06
-5.46376e-07
3.31702e-06
1.43783e-06
1.0297e-06
-1.90887e-06
-2.34024e-06
7.38233e-07
5.34024e-06
-6.28982e-07
-4.60346e-06
-2.17724e-06
-3.27472e-07
-1.83288e-06
3.00697e-06
8.87269e-06
7.92625e-06
2.85716e-06
4.14348e-08
-1.33414e-06
-4.61548e-06
-4.41205e-06
-1.64743e-06
-6.05723e-07
8.74931e-07
1.50584e-07
-2.5743e-06
6.45966e-06
9.39213e-06
-1.58463e-06
-4.97216e-06
-2.86625e-06
-1.04473e-05
-4.38601e-06
-2.2422e-06
4.89718e-06
5.10643e-06
3.67997e-06
3.36707e-06
3.17281e-06
3.12951e-06
1.56393e-06
3.22466e-08
-1.43309e-07
3.24697e-06
3.11718e-06
1.69374e-07
-3.23185e-07
1.79466e-06
3.31321e-06
-1.87222e-06
-8.55676e-06
-6.61357e-06
-3.43743e-06
-1.19987e-06
1.23669e-05
8.10202e-06
-6.82127e-06
-1.26267e-05
5.42433e-06
1.78941e-05
3.84158e-06
-8.62482e-06
-9.79468e-06
-3.23741e-06
-6.73065e-08
4.77929e-06
3.97854e-06
-5.10729e-06
-4.86668e-06
1.80557e-06
1.81985e-06
-3.4518e-06
-3.15436e-06
-1.63284e-07
1.47492e-06
2.4674e-06
-1.23345e-06
-8.4279e-07
2.57469e-06
3.76605e-06
4.14506e-06
4.14277e-06
-4.43108e-06
-1.39887e-05
-8.77091e-06
1.97122e-06
1.23108e-05
7.16834e-06
-6.06183e-06
-1.08506e-05
-4.70876e-06
-4.48612e-07
4.53727e-06
2.62247e-06
-5.03966e-07
-2.83849e-06
8.6103e-07
1.50137e-06
3.04716e-06
3.08579e-06
-3.58995e-06
-1.68432e-07
4.91021e-06
1.2018e-06
-4.74985e-06
-3.44993e-06
1.8527e-06
2.03227e-06
9.92645e-07
1.69886e-06
3.21742e-07
1.73446e-06
-1.38314e-07
-5.12449e-06
-2.62996e-07
-6.22756e-06
-1.11664e-05
5.94178e-07
8.90593e-06
3.94707e-06
-3.41108e-06
-2.80512e-06
-1.43727e-06
2.62806e-06
1.63338e-06
-2.34125e-06
-4.35928e-06
-1.82144e-06
6.4963e-07
1.99428e-06
4.56434e-06
1.26559e-06
-1.48415e-05
-5.4543e-06
6.74188e-06
4.61998e-07
-6.20403e-06
-8.37874e-07
5.33041e-06
3.82907e-06
1.41583e-06
7.90624e-06
8.67494e-06
3.69058e-06
1.35746e-07
-5.61776e-06
-4.42867e-07
-1.12917e-06
-6.20132e-06
)
;
    }
}


// ************************************************************************* //
