/*--------------------------------*- C++ -*----------------------------------*\
| =========                 |                                                 |
| \\      /  F ield         | OpenFOAM: The Open Source CFD Toolbox           |
|  \\    /   O peration     | Version:  2506                                  |
|   \\  /    A nd           | Website:  www.openfoam.com                      |
|    \\/     M anipulation  |                                                 |
\*---------------------------------------------------------------------------*/
FoamFile
{
    version     2.0;
    format      ascii;
    arch        "LSB;label=32;scalar=64";
    class       surfaceScalarField;
    location    "0.07";
    object      phi;
}
// * * * * * * * * * * * * * * * * * * * * * * * * * * * * * * * * * * * * * //

dimensions      [0 3 -1 0 0 0 0];

oriented        oriented;

internalField   nonuniform List<scalar> 
3120
(
4.37676e-09
1.18788e-09
3.51692e-08
1.57711e-09
1.46297e-09
2.2219e-09
3.31248e-09
4.58687e-08
-3.63931e-09
-7.73912e-09
-4.3912e-09
6.15019e-08
-3.39623e-09
2.95892e-09
1.13599e-08
9.00845e-10
6.09503e-09
-4.23119e-10
3.7829e-08
1.47838e-09
-5.6635e-09
1.3883e-09
5.71606e-08
3.78236e-10
1.17909e-08
2.08687e-08
6.5135e-09
3.36747e-08
6.50579e-09
3.0432e-09
3.57717e-08
-3.24687e-09
3.68333e-10
2.9889e-09
4.59434e-08
-4.56021e-09
1.01484e-09
5.90383e-08
4.16481e-09
3.34347e-08
1.44592e-08
3.45638e-08
-2.32842e-09
-2.49967e-09
7.63729e-08
-3.42516e-10
4.6775e-08
3.55632e-08
2.27666e-09
-1.27497e-09
2.92033e-08
4.27047e-10
4.53714e-09
-5.32274e-10
-2.72363e-09
4.36251e-08
7.77621e-09
5.43955e-09
7.78022e-09
4.40934e-08
3.65653e-09
2.91229e-09
2.01874e-08
-4.75513e-10
3.09273e-09
-1.18928e-09
3.30027e-08
1.64787e-09
1.2288e-08
1.61816e-09
4.36236e-08
2.7231e-09
-5.22439e-09
4.34382e-08
3.11306e-09
4.36292e-08
3.3102e-09
1.37582e-11
3.14045e-08
-1.46054e-10
9.52204e-10
-6.39683e-09
5.63164e-08
1.4162e-08
-2.4707e-09
4.30748e-08
-1.8217e-09
5.87063e-08
-7.23971e-10
3.25166e-08
-2.27589e-09
3.73019e-09
6.03302e-08
8.65439e-09
3.15803e-08
2.60018e-08
-5.10246e-09
1.30412e-09
2.71357e-08
1.00645e-08
-4.19854e-09
-9.14826e-10
-9.33732e-10
4.29185e-08
-2.54729e-09
1.08263e-08
1.24371e-08
1.58997e-08
4.01557e-09
-1.5643e-08
9.17127e-08
-1.23214e-08
-2.42903e-09
-5.97397e-09
4.90841e-08
-6.37425e-09
1.39549e-08
-2.19967e-10
2.6526e-08
2.12077e-08
9.67289e-10
4.76552e-08
2.83842e-08
3.23361e-08
-4.69865e-09
-6.96637e-10
2.89996e-08
1.82629e-09
8.29481e-09
1.35782e-08
2.95248e-08
3.29903e-08
-3.0495e-09
2.23962e-08
-1.8123e-08
1.5228e-07
5.20878e-09
2.47066e-08
1.29761e-09
1.56104e-09
8.91128e-08
7.24659e-09
3.09428e-08
4.19754e-08
-3.83125e-09
4.77378e-09
2.84108e-08
5.25397e-09
-7.47154e-09
-3.93249e-09
7.18395e-09
4.31914e-08
-7.35566e-09
-7.86851e-09
2.4154e-09
1.80946e-08
-6.74305e-10
1.33603e-08
5.75668e-08
9.98787e-09
4.11834e-10
1.74015e-09
5.76021e-08
-5.89621e-09
-7.54253e-09
-1.33449e-09
4.29988e-08
-2.68325e-09
3.04289e-09
4.21684e-08
-9.6727e-10
3.61146e-08
-1.82488e-09
1.48665e-10
2.9842e-08
2.57394e-09
-2.31072e-09
-6.10527e-09
3.47814e-08
-2.94985e-09
1.71895e-09
2.43593e-08
-4.57138e-09
1.63684e-07
-1.37893e-08
4.89704e-08
-2.27135e-09
5.06265e-09
5.57318e-08
1.12184e-08
2.69731e-08
7.28989e-08
1.06098e-09
1.05928e-09
2.72822e-08
1.33452e-09
-2.32619e-09
1.51015e-09
-6.28045e-10
4.32134e-08
1.56905e-10
-6.90285e-09
-8.39492e-09
3.73606e-08
-2.45809e-09
-3.76597e-09
4.21639e-08
8.50246e-09
-3.16164e-10
5.46953e-09
5.02872e-08
3.22081e-09
-8.79351e-09
2.98872e-09
4.78594e-08
-4.09927e-09
-9.87074e-09
3.895e-08
-3.13991e-08
5.27339e-08
-4.80034e-09
2.36446e-09
3.6771e-08
9.76471e-10
-1.7828e-08
-5.39815e-09
5.61959e-08
-2.73236e-08
3.02095e-09
2.09632e-08
-1.3793e-08
1.046e-07
-1.4221e-08
5.89424e-08
4.35966e-09
-1.66476e-09
3.86431e-08
-8.58294e-09
3.33854e-08
3.23399e-08
-4.25533e-09
-8.85721e-10
3.02098e-08
1.17805e-09
1.03536e-09
-4.48053e-09
-2.07943e-09
4.71566e-08
-1.63859e-09
-2.99497e-09
-5.43078e-09
3.96966e-08
1.60925e-09
-8.50205e-09
3.73733e-08
5.12065e-09
-6.62537e-09
-9.39702e-10
5.27607e-08
4.20583e-09
-5.66274e-09
-2.93998e-09
4.77573e-08
-5.44318e-09
1.3725e-09
3.19272e-08
-6.19079e-10
2.83682e-08
-7.87459e-09
-3.60244e-09
4.61065e-08
1.20177e-09
-1.08466e-09
-3.69415e-09
5.01602e-08
-7.32317e-09
-2.42084e-09
3.09951e-08
1.95985e-09
9.42226e-08
-7.64296e-09
6.12467e-08
6.65064e-09
-4.14755e-09
3.05769e-08
-1.80209e-09
2.37964e-08
4.41125e-08
-2.58692e-09
-3.47887e-09
4.04788e-08
-5.00034e-10
-3.70306e-09
1.28614e-10
-1.85412e-09
4.82389e-08
-1.94361e-09
3.46923e-11
-8.13738e-10
3.96169e-08
9.87497e-10
-1.56807e-09
3.77414e-08
7.81628e-10
-9.50708e-10
-3.79396e-10
5.06249e-08
-1.29515e-11
7.31655e-10
-1.38914e-09
4.56101e-08
2.68911e-10
1.69544e-10
3.14071e-08
-6.78142e-09
3.67759e-08
-1.44106e-09
-5.21543e-10
4.74502e-08
2.39626e-10
7.09622e-10
1.40797e-09
4.52127e-08
-5.17045e-09
1.85749e-09
3.51874e-08
4.8007e-09
7.40556e-08
1.52167e-09
5.27885e-08
2.33464e-09
3.98553e-10
3.21475e-08
-1.0413e-09
2.60918e-08
4.84751e-08
2.3012e-09
-5.03597e-09
4.40533e-08
-5.42e-09
4.58007e-09
1.67604e-09
-3.0201e-09
4.85624e-08
3.32143e-09
-1.2084e-10
-2.0964e-09
4.08004e-08
2.70966e-09
-4.33196e-09
3.9787e-08
2.63761e-09
4.45532e-09
-1.62381e-09
4.76061e-08
-4.84883e-09
2.42508e-09
-1.27947e-09
4.58997e-08
-1.21815e-09
-1.09825e-09
3.40521e-08
-2.96758e-09
3.39097e-08
3.44072e-09
2.34677e-10
4.68658e-08
-4.71458e-09
1.50412e-09
7.23298e-10
4.51467e-08
-2.13532e-09
5.74717e-10
3.71537e-08
1.23825e-09
6.48073e-08
4.47191e-09
4.81919e-08
-2.34554e-09
2.40931e-09
3.32571e-08
-5.05696e-10
2.76368e-08
5.42931e-08
1.09561e-09
3.9183e-10
4.43444e-08
-1.43952e-09
-3.39193e-10
2.66982e-09
1.43019e-09
4.55588e-08
-8.03433e-13
-1.25439e-10
2.18251e-09
4.24836e-08
-1.0705e-09
-1.24437e-09
4.26431e-08
-1.7209e-09
2.26858e-09
2.88334e-10
4.54439e-08
-2.91144e-12
3.97595e-09
1.1502e-09
4.44724e-08
-6.26219e-10
5.38281e-10
4.02981e-08
-8.37954e-09
4.14272e-08
6.88444e-10
1.49654e-09
4.4852e-08
1.17146e-10
-7.87496e-10
3.82459e-09
4.3948e-08
-5.53125e-09
1.02214e-09
4.14138e-08
-3.79331e-09
5.07017e-08
3.49052e-09
4.40679e-08
1.9453e-10
-2.97526e-10
3.94234e-08
-6.72672e-09
3.7357e-08
4.72942e-08
3.53921e-10
-9.40738e-10
4.36364e-08
-2.24155e-10
1.51885e-09
1.04526e-09
6.86422e-11
4.39642e-08
8.34892e-10
4.27349e-11
5.34765e-10
4.28987e-08
5.28424e-11
-4.8157e-10
4.32239e-08
-5.31555e-10
1.09006e-09
-1.65617e-10
4.38134e-08
-2.3442e-10
1.56157e-09
5.50092e-10
4.35197e-08
-2.01448e-10
4.0343e-10
4.21926e-08
-2.46086e-09
4.29893e-08
7.76956e-10
9.60072e-10
4.36219e-08
-6.72545e-10
-2.06264e-11
1.89741e-09
4.33984e-08
-1.95169e-09
1.11812e-09
4.26302e-08
-6.46478e-10
4.56792e-08
1.69305e-09
4.2888e-08
-5.0996e-10
2.50841e-10
4.1693e-08
-2.49962e-09
4.10384e-08
4.45335e-08
5.53165e-10
2.13636e-10
4.3333e-08
-5.77299e-10
1.13887e-10
6.89205e-10
4.00909e-10
4.34488e-08
-2.13425e-11
1.99361e-10
4.23005e-10
4.30958e-08
-1.30105e-10
-3.64497e-14
4.32825e-08
-3.23672e-10
5.06655e-10
3.3526e-10
4.33731e-08
-1.8781e-10
6.59548e-10
4.47116e-10
4.33208e-08
2.57767e-11
3.6286e-10
4.28866e-08
-5.34126e-10
4.3237e-08
4.0423e-10
6.80108e-10
4.33036e-08
-4.30763e-10
8.40276e-11
9.22742e-10
4.32429e-08
-6.3003e-10
7.01687e-10
4.30054e-08
9.41009e-11
4.40248e-08
4.99397e-10
4.28681e-08
-1.7679e-10
2.76003e-11
4.25813e-08
-9.00054e-10
4.23885e-08
4.3584e-08
1.83337e-10
2.08144e-11
4.30986e-08
-1.68365e-10
1.98506e-10
2.72492e-10
1.74273e-10
4.32023e-08
-1.66445e-11
1.2459e-10
1.91586e-10
4.31076e-08
-5.54426e-11
7.60643e-11
4.32037e-08
-1.87618e-10
1.87088e-10
1.46072e-10
4.31498e-08
-8.89731e-11
2.51176e-10
2.42654e-10
4.31885e-08
4.66939e-11
2.10436e-10
4.30722e-08
-7.46602e-11
4.32155e-08
2.22731e-10
3.49956e-10
4.31553e-08
-2.78368e-10
1.00136e-10
4.40883e-10
4.31672e-08
-1.73572e-10
3.8439e-10
4.31049e-08
1.6835e-10
4.34478e-08
1.97407e-10
4.29507e-08
-1.24196e-10
2.67005e-11
4.29159e-08
-3.01652e-10
4.2874e-08
4.32887e-08
1.47071e-10
8.28195e-11
4.30026e-08
-1.5701e-10
2.30691e-11
1.72033e-10
1.32042e-10
4.31043e-08
-5.87627e-11
1.10554e-10
1.14155e-10
4.31057e-08
-5.06727e-11
8.45145e-11
4.31531e-08
-1.14186e-10
1.1905e-10
1.24639e-10
4.30752e-08
-8.60776e-11
1.39786e-10
1.57676e-10
4.31423e-08
6.26381e-11
1.32127e-10
4.31314e-08
3.90053e-11
4.31914e-08
1.46585e-10
1.99487e-10
4.31132e-08
-1.79353e-10
9.537e-11
2.23745e-10
4.31523e-08
-1.58197e-11
1.96885e-10
4.31514e-08
1.24673e-10
4.32649e-08
1.01422e-10
4.30271e-08
-7.99994e-11
4.0576e-11
4.30599e-08
-8.49606e-11
4.30664e-08
4.32132e-08
8.64824e-11
5.69405e-11
4.29506e-08
-8.91686e-11
-2.14166e-12
9.95631e-11
7.74055e-11
4.30593e-08
-4.5195e-11
7.70218e-11
6.72295e-11
4.30969e-08
-3.58142e-11
5.86148e-11
4.31276e-08
-6.51259e-11
7.18113e-11
7.21031e-11
4.30449e-08
-5.65041e-11
7.96782e-11
8.77578e-11
4.31242e-08
5.33921e-11
7.47789e-11
4.31502e-08
4.51092e-11
4.31785e-08
8.85119e-11
1.06399e-10
4.30965e-08
-1.06108e-10
6.7259e-11
1.09734e-10
4.31516e-08
2.23715e-11
9.83855e-11
4.31726e-08
6.89686e-11
4.32128e-08
6.06981e-11
4.30702e-08
-5.10125e-11
3.79511e-11
4.31232e-08
-1.08255e-11
4.31468e-08
4.31989e-08
5.33258e-11
3.5908e-11
4.29242e-08
-5.36793e-11
-8.97386e-12
6.00494e-11
4.45165e-11
4.30377e-08
-2.93681e-11
5.18697e-11
3.80042e-11
4.30906e-08
-2.34172e-11
3.49178e-11
4.31171e-08
-3.59925e-11
4.54699e-11
4.19682e-11
4.30311e-08
-3.75546e-11
4.96595e-11
4.81945e-11
4.31166e-08
4.02093e-11
4.21081e-11
4.31556e-08
3.08947e-11
4.31754e-08
5.42319e-11
5.69076e-11
4.30898e-08
-6.24938e-11
4.49422e-11
5.47498e-11
4.31543e-08
2.76145e-11
4.7542e-11
4.31845e-08
3.55565e-11
4.32044e-08
4.05819e-11
4.3094e-08
-3.48016e-11
3.23461e-11
4.31538e-08
1.28051e-11
4.31824e-08
4.32052e-08
3.31962e-11
2.04079e-11
4.29102e-08
-3.21629e-11
-7.3019e-12
3.70239e-11
2.42734e-11
4.3027e-08
-1.70739e-11
3.35706e-11
2.1105e-11
4.30871e-08
-1.39752e-11
1.93061e-11
4.31132e-08
-1.95776e-11
2.9466e-11
2.27904e-11
4.30243e-08
-2.48147e-11
3.19859e-11
2.5488e-11
4.31131e-08
2.8549e-11
2.26389e-11
4.31577e-08
1.78184e-11
4.31763e-08
3.40026e-11
2.81895e-11
4.30875e-08
-3.71223e-11
3.01119e-11
2.64642e-11
4.31572e-08
2.30428e-11
2.26683e-11
4.31915e-08
1.73881e-11
4.32067e-08
2.74427e-11
4.31057e-08
-2.40732e-11
2.45114e-11
4.31689e-08
1.64045e-11
4.31997e-08
4.32145e-08
2.11943e-11
1.09152e-11
4.29027e-08
-1.98257e-11
-4.48563e-12
2.34654e-11
1.28792e-11
4.30216e-08
-9.35056e-12
2.22537e-11
1.13281e-11
4.30853e-08
-8.00834e-12
1.0325e-11
4.31123e-08
-1.0294e-11
1.94069e-11
1.19653e-11
4.30207e-08
-1.66134e-11
2.11964e-11
1.30292e-11
4.31115e-08
1.98389e-11
1.17446e-11
4.31589e-08
9.52857e-12
4.31781e-08
2.1796e-11
1.37133e-11
4.30865e-08
-2.24341e-11
2.04227e-11
1.2552e-11
4.31592e-08
1.73197e-11
1.06487e-11
4.31957e-08
8.11556e-12
4.32103e-08
1.85355e-11
4.31112e-08
-1.64184e-11
1.76804e-11
4.31765e-08
1.41907e-11
4.32085e-08
4.32214e-08
1.37415e-11
5.42258e-12
4.28984e-08
-1.2385e-11
-2.22936e-12
1.5233e-11
6.59585e-12
4.30186e-08
-4.84948e-12
1.48765e-11
5.88059e-12
4.30844e-08
-4.36869e-12
5.3355e-12
4.31124e-08
-5.275e-12
1.2723e-11
6.05347e-12
4.30188e-08
-1.12082e-11
1.41243e-11
6.41435e-12
4.31107e-08
1.36911e-11
5.84476e-12
4.31597e-08
4.78435e-12
4.31797e-08
1.39732e-11
6.54192e-12
4.30861e-08
-1.38283e-11
1.38119e-11
5.68296e-12
4.31604e-08
1.24946e-11
4.76095e-12
4.31983e-08
3.49077e-12
4.32132e-08
1.26818e-11
4.31139e-08
-1.11195e-11
1.25378e-11
4.31804e-08
1.09706e-11
4.32132e-08
4.3226e-08
8.87126e-12
2.5173e-12
4.28961e-08
-7.86625e-12
-9.01023e-13
1.00172e-11
3.16636e-12
4.30171e-08
-2.40743e-12
1.0029e-11
2.87725e-12
4.3084e-08
-2.21447e-12
2.60497e-12
4.31129e-08
-2.60719e-12
8.68018e-12
3.02395e-12
4.30176e-08
-7.71437e-12
9.57081e-12
3.01945e-12
4.31104e-08
9.46544e-12
2.72919e-12
4.31603e-08
2.17486e-12
4.3181e-08
9.30724e-12
2.92122e-12
4.30857e-08
-8.67836e-12
9.40873e-12
2.46932e-12
4.31611e-08
8.84714e-12
1.91987e-12
4.31998e-08
1.17197e-12
4.32153e-08
8.5598e-12
4.3115e-08
-7.49506e-12
8.71818e-12
4.31824e-08
8.03283e-12
4.32159e-08
4.32289e-08
5.91778e-12
1.04049e-12
4.28948e-08
-5.12694e-12
-2.08606e-13
6.70902e-12
1.35885e-12
4.30164e-08
-1.0326e-12
6.81289e-12
1.31656e-12
4.3084e-08
-1.00291e-12
1.182e-12
4.31133e-08
-1.21225e-12
5.93266e-12
1.30208e-12
4.3017e-08
-5.22415e-12
6.5227e-12
1.32874e-12
4.31102e-08
6.5488e-12
1.20156e-12
4.31608e-08
8.77765e-13
4.31819e-08
6.16831e-12
1.29689e-12
4.30855e-08
-5.69477e-12
6.41354e-12
9.75534e-13
4.31615e-08
6.22457e-12
6.53658e-13
4.32009e-08
2.25352e-13
4.32167e-08
5.78611e-12
4.31155e-08
-5.01075e-12
6.04128e-12
4.31834e-08
5.76629e-12
4.32175e-08
4.32309e-08
3.96691e-12
3.24974e-13
4.2894e-08
-3.38905e-12
1.25431e-13
4.47836e-12
5.60506e-13
4.3016e-08
-3.42008e-13
4.60562e-12
5.46545e-13
4.3084e-08
-3.82322e-13
5.21912e-13
4.31137e-08
-5.4093e-13
4.0144e-12
5.3834e-13
4.30166e-08
-3.54735e-12
4.44432e-12
5.46374e-13
4.31102e-08
4.51957e-12
4.80055e-13
4.31611e-08
3.59985e-13
4.31825e-08
4.10854e-12
4.9271e-13
4.30853e-08
-3.64122e-12
4.40407e-12
3.50502e-13
4.31618e-08
4.37537e-12
2.02564e-13
4.32014e-08
1.44053e-14
4.32176e-08
3.96191e-12
4.31157e-08
-3.38718e-12
4.24003e-12
4.3184e-08
4.16758e-12
4.32183e-08
4.32319e-08
2.6533e-12
2.83331e-14
4.28936e-08
-2.24697e-12
2.48349e-13
2.97878e-12
1.94621e-13
4.30157e-08
-6.69396e-14
3.07645e-12
2.37083e-13
4.30839e-08
-1.19524e-13
2.73712e-13
4.31139e-08
-2.6635e-13
2.72342e-12
1.98285e-13
4.30163e-08
-2.41349e-12
3.01439e-12
2.1483e-13
4.31101e-08
3.09267e-12
2.39334e-13
4.31612e-08
2.35846e-13
4.31828e-08
2.79047e-12
1.89141e-13
4.30851e-08
-2.40919e-12
3.04094e-12
1.52699e-13
4.31618e-08
3.08377e-12
1.33195e-13
4.32017e-08
1.16501e-13
4.3218e-08
2.76887e-12
4.31157e-08
-2.33366e-12
3.01423e-12
4.31841e-08
3.04446e-12
4.32186e-08
4.32323e-08
1.84092e-12
-4.5434e-14
4.28932e-08
-1.57912e-12
2.3558e-13
2.06909e-12
7.13916e-14
4.30155e-08
1.60676e-14
2.154e-12
1.35933e-13
4.30839e-08
-4.95946e-14
2.06954e-13
4.3114e-08
-1.70696e-13
1.8934e-12
7.72503e-14
4.3016e-08
-1.67922e-12
2.12819e-12
1.01429e-13
4.31099e-08
2.2118e-12
1.69e-13
4.31612e-08
2.28102e-13
4.3183e-08
2.00518e-12
1.2713e-13
4.30849e-08
-1.74143e-12
2.19758e-12
1.22131e-13
4.31617e-08
2.2655e-12
1.56441e-13
4.32017e-08
2.15929e-13
4.32181e-08
2.03549e-12
4.31155e-08
-1.70752e-12
2.22943e-12
4.31841e-08
2.2992e-12
4.32187e-08
4.32324e-08
1.65711e-12
-4.19302e-15
-1.37405e-12
1.57423e-13
1.85489e-12
9.33671e-14
1.18042e-14
1.96384e-12
1.87403e-13
-1.04719e-13
2.81225e-13
-2.24775e-13
1.74698e-12
1.02112e-13
-1.44899e-12
1.94005e-12
1.67115e-13
2.04441e-12
2.39713e-13
3.14059e-13
1.82491e-12
1.84595e-13
-1.53368e-12
2.01571e-12
2.18224e-13
2.11415e-12
2.59695e-13
3.33107e-13
1.87134e-12
-1.58074e-12
2.06106e-12
2.16484e-12
-9.90754e-09
-8.55294e-09
6.38557e-08
-3.69206e-09
-8.54584e-09
-3.20553e-09
4.24864e-08
-3.74415e-09
-5.55852e-09
-1.74325e-09
3.28001e-08
-2.27468e-09
1.96245e-09
2.05001e-08
-2.86211e-10
1.56881e-08
2.73589e-09
2.57525e-08
-2.7689e-10
-1.73389e-09
6.16903e-08
4.33514e-09
-2.82197e-09
3.80409e-08
-5.0027e-09
4.89352e-08
2.75124e-09
-4.3634e-09
6.29608e-08
-3.20899e-09
-2.65266e-09
6.08322e-08
1.463e-09
4.26083e-09
3.67264e-08
3.54445e-09
3.15306e-08
6.90401e-09
4.49537e-08
9.20103e-09
4.99618e-08
1.47208e-09
7.17664e-08
5.16824e-08
-8.63778e-09
6.91196e-09
6.75095e-08
-3.6743e-09
-6.46805e-09
3.62953e-09
3.81992e-08
-1.51208e-09
3.55229e-09
-8.34223e-11
1.87539e-08
4.10925e-09
-6.53352e-11
2.31291e-08
1.41566e-09
-1.34293e-08
-3.15468e-09
4.82682e-08
-9.58949e-09
-4.25248e-09
6.57325e-08
1.87392e-09
-5.64e-10
2.70581e-08
-2.56842e-09
5.49601e-08
-8.00617e-09
-1.3645e-09
6.76401e-08
1.90067e-09
2.4225e-09
4.42504e-08
2.24246e-10
-2.97748e-09
4.08163e-08
-2.23546e-09
3.12759e-08
-2.94846e-09
4.2874e-08
-6.87891e-09
5.05243e-08
3.46458e-09
4.99112e-08
4.86678e-08
4.50927e-09
1.07246e-08
5.14118e-08
1.81521e-09
9.42981e-09
6.19814e-09
2.62179e-08
8.62615e-10
1.24252e-08
-8.19205e-10
2.2198e-08
-5.62033e-09
-1.13685e-08
6.3284e-08
-6.29678e-09
-9.1651e-09
-2.93639e-09
6.89796e-08
-3.83748e-10
1.74161e-09
6.14077e-08
4.84172e-09
-5.61883e-10
2.15753e-08
-6.47361e-09
4.85326e-08
4.17086e-09
1.78359e-10
5.93914e-08
-1.55553e-09
-6.3275e-09
5.80459e-08
-3.78966e-09
-8.46603e-09
5.09546e-08
-1.23588e-09
2.40748e-08
-6.16963e-09
4.54702e-08
-2.08713e-11
2.37634e-08
6.02569e-09
2.85261e-08
5.00687e-08
-1.13073e-08
-3.39889e-09
6.39112e-08
1.96104e-09
-1.21946e-08
4.37146e-09
2.20401e-08
6.936e-10
-3.98982e-08
8.41914e-09
3.88703e-08
2.61214e-09
6.91573e-09
2.33542e-08
-1.63009e-09
1.85937e-08
5.84282e-09
4.09792e-08
5.96842e-09
1.08864e-08
6.7518e-08
-1.45944e-11
5.85482e-09
3.01226e-08
7.79676e-09
4.17408e-08
-6.43338e-09
1.61464e-09
7.00837e-08
5.41356e-09
4.47077e-09
5.26146e-08
1.88736e-09
2.27764e-09
5.8058e-08
-4.66782e-09
4.10007e-08
-8.36664e-10
5.19363e-08
-1.42795e-11
3.34554e-08
-7.16331e-09
4.40402e-08
3.94086e-08
-6.23564e-10
2.78536e-09
6.0164e-08
2.49468e-09
4.15132e-09
1.26635e-09
1.50107e-08
9.88182e-10
5.53084e-09
3.82912e-09
3.48189e-08
-1.15719e-09
3.8721e-10
3.1983e-08
-2.15067e-09
-4.95525e-09
3.33751e-09
4.49083e-08
9.94542e-09
5.87292e-09
4.80107e-08
1.95362e-10
2.57733e-09
4.11245e-08
4.26255e-09
4.12816e-08
5.89444e-09
4.2013e-09
6.38875e-08
-1.25185e-09
2.7127e-09
6.29211e-08
-6.07473e-11
7.56137e-09
5.18829e-08
5.07967e-09
4.10993e-08
4.15608e-09
5.59566e-08
1.26006e-09
3.85828e-08
-2.17279e-09
5.90515e-08
4.80771e-08
7.38169e-09
9.99706e-10
5.39986e-08
-2.1908e-09
1.2363e-09
-2.47468e-10
2.34849e-08
-2.08136e-09
2.69762e-10
2.08179e-09
3.68445e-08
-3.14084e-09
3.08146e-09
3.28475e-08
-2.49809e-09
9.61472e-09
3.60317e-09
3.2651e-08
4.28048e-09
2.94454e-09
5.0153e-08
8.29997e-12
1.0819e-09
4.63966e-08
2.43773e-10
4.83335e-08
6.78905e-09
-2.33709e-09
6.38606e-08
3.71965e-09
-9.68336e-10
6.99034e-08
-9.35357e-11
-1.15717e-09
5.79351e-08
-1.25857e-09
4.37099e-08
7.84114e-09
4.38019e-08
2.75905e-09
4.27612e-08
-7.22299e-09
6.78774e-08
4.51014e-08
3.59878e-09
5.97784e-10
4.79442e-08
6.33986e-10
-2.00575e-09
-1.20958e-09
3.03004e-08
-1.31335e-12
-1.06525e-09
4.99091e-11
3.55509e-08
3.03327e-10
8.623e-10
3.27263e-08
-2.30607e-09
-2.17034e-09
2.00101e-10
3.54399e-08
-9.43682e-11
-1.3627e-09
4.82301e-08
-1.09745e-09
-6.62602e-10
4.8112e-08
1.22893e-09
4.68566e-08
-4.22195e-09
1.57761e-09
6.60725e-08
-4.98391e-09
-1.85553e-09
7.11582e-08
-2.53135e-10
1.01218e-09
5.15295e-08
1.13132e-09
4.3794e-08
-1.75345e-10
4.68473e-08
-4.3537e-09
4.87283e-08
-1.42162e-09
6.35152e-08
4.62651e-08
1.94763e-10
-3.7934e-09
4.76482e-08
3.8946e-09
-1.82018e-09
-5.70368e-09
3.43705e-08
3.64826e-09
1.49304e-09
-5.0103e-09
3.28794e-08
4.36866e-09
-4.80915e-09
2.95615e-08
4.04752e-09
-5.49803e-09
-3.8336e-09
4.09782e-08
-2.38668e-09
-5.54628e-09
4.49613e-08
1.17892e-09
-3.4554e-09
4.2991e-08
-1.57415e-09
3.99518e-08
-1.84013e-09
4.63439e-10
6.36156e-08
5.37618e-09
-8.7196e-11
5.8483e-08
5.11442e-09
-1.77466e-11
4.83537e-08
2.84246e-10
4.23354e-08
-4.44472e-09
5.10222e-08
-4.80533e-09
4.95901e-08
2.91852e-09
5.20157e-08
4.60496e-08
3.14072e-09
1.25775e-09
4.26543e-08
5.9537e-10
2.08058e-11
2.11928e-10
3.66303e-08
6.47907e-10
-3.17254e-10
6.26264e-10
3.18951e-08
6.95792e-10
7.7576e-10
2.68183e-08
2.10844e-10
-3.97264e-09
-5.56993e-10
4.67657e-08
-3.73805e-09
-7.68356e-10
4.57071e-08
-2.44415e-09
3.88551e-10
4.19345e-08
1.13314e-09
3.71473e-08
1.70504e-09
1.83259e-10
6.11703e-08
2.52742e-09
3.87849e-10
5.65045e-08
8.01406e-10
1.48356e-09
4.89847e-08
1.52115e-09
4.28658e-08
-2.21447e-09
5.67743e-08
-3.51341e-09
5.43991e-08
-1.62508e-09
5.12942e-08
4.55874e-08
-1.59316e-10
-5.29936e-10
4.26084e-08
7.35141e-10
-3.04231e-10
-7.84968e-10
3.6711e-08
8.4908e-10
-1.24741e-10
-8.05156e-10
3.16727e-08
8.47912e-10
-7.60113e-10
2.65191e-08
7.10669e-10
-2.44053e-09
-1.29364e-09
4.997e-08
-1.68188e-09
-1.41538e-09
4.55789e-08
-6.40051e-10
-9.82267e-10
4.10697e-08
-4.80297e-10
3.59931e-08
1.72819e-10
-2.86662e-10
5.99905e-08
1.25099e-09
-1.43764e-10
5.41547e-08
9.85867e-10
2.02061e-10
4.80655e-08
4.11389e-10
4.22875e-08
-1.6969e-09
5.97998e-08
-1.22452e-09
5.51088e-08
-1.54251e-10
5.03751e-08
4.48725e-08
6.31108e-10
2.25612e-10
4.15409e-08
2.10739e-10
3.96298e-10
1.51207e-10
3.65098e-08
2.84854e-10
3.6316e-10
1.45456e-10
3.1262e-08
2.98324e-10
1.08633e-10
2.59471e-08
2.49365e-10
-3.36653e-10
9.96254e-12
5.05224e-08
-4.8919e-10
-1.46641e-11
4.58974e-08
-2.22686e-10
1.23117e-10
4.08255e-08
2.24667e-10
3.54666e-08
6.22619e-10
1.60926e-10
5.92169e-08
7.03431e-10
2.42546e-10
5.38167e-08
5.28932e-10
4.03198e-10
4.79599e-08
5.2006e-10
4.20903e-08
-2.59453e-10
6.09572e-08
-3.65808e-10
5.6052e-08
-1.31047e-10
5.06886e-08
4.49872e-08
6.39016e-11
-1.66519e-11
4.13744e-08
1.1936e-10
1.59931e-10
-2.0199e-11
3.62862e-08
1.47895e-10
1.78654e-10
-2.72185e-11
3.11147e-08
1.55821e-10
-3.43413e-11
2.58533e-08
1.38657e-10
-2.65901e-10
-9.47373e-11
5.08665e-08
-1.76158e-10
-9.3984e-11
4.58816e-08
-2.2342e-11
-4.85948e-11
4.06932e-08
1.20884e-11
3.5309e-08
1.98847e-10
1.27109e-10
5.87963e-08
3.78365e-10
1.63785e-10
5.33795e-08
3.59463e-10
2.14727e-10
4.77156e-08
2.4497e-10
4.19386e-08
-2.04981e-10
6.1526e-08
-1.25899e-10
5.63118e-08
1.54976e-11
5.07926e-08
4.50438e-08
1.24186e-10
3.06643e-11
4.11634e-08
5.62969e-11
1.57145e-10
3.22101e-11
3.61523e-08
6.8855e-11
1.61118e-10
2.90336e-11
3.10085e-08
7.33437e-11
2.21781e-11
2.57703e-08
6.50327e-11
-4.3119e-11
2.54034e-11
5.0915e-08
-1.7783e-11
1.95833e-11
4.58691e-08
4.09414e-11
3.23237e-11
4.06314e-08
4.87701e-11
3.52373e-08
1.5222e-10
1.45932e-10
5.85235e-08
2.29649e-10
1.5664e-10
5.3165e-08
2.25258e-10
1.66362e-10
4.7586e-08
1.66761e-10
4.18665e-08
-5.971e-11
6.17856e-08
-2.30084e-11
5.64653e-08
3.66297e-11
5.08849e-08
4.51071e-08
5.99136e-11
1.56067e-11
4.10582e-08
2.98145e-11
9.00958e-11
1.93872e-11
3.60686e-08
3.43553e-11
9.53599e-11
1.96702e-11
3.09478e-08
3.58625e-11
1.65805e-11
2.57285e-08
3.15522e-11
-8.38159e-12
1.9283e-11
5.09198e-08
1.1739e-11
1.92827e-11
4.58492e-08
4.00274e-11
2.49042e-11
4.05979e-08
3.28723e-11
3.52046e-08
8.80321e-11
9.6148e-11
5.83586e-08
1.30053e-10
1.00986e-10
5.30413e-08
1.29877e-10
1.00911e-10
4.75101e-08
9.49555e-11
4.18282e-08
-1.94572e-11
6.19016e-08
1.108e-12
5.65399e-08
3.13194e-11
5.09352e-08
4.51441e-08
3.74481e-11
8.75835e-12
4.09955e-08
1.64765e-11
5.49915e-11
1.18163e-11
3.60212e-08
1.81294e-11
5.82006e-11
1.19169e-11
3.09142e-08
1.86234e-11
1.03535e-11
2.57064e-08
1.64515e-11
3.68167e-12
1.36164e-11
5.09112e-08
1.77928e-11
1.33902e-11
4.58335e-08
3.16728e-11
1.62758e-11
4.05798e-08
2.02643e-11
3.51889e-08
4.99121e-11
5.57571e-11
5.82665e-08
7.38814e-11
5.7341e-11
5.29732e-08
7.54588e-11
5.64241e-11
4.74683e-08
5.36785e-11
4.18077e-08
-4.60161e-12
6.19532e-08
7.66433e-12
5.65749e-08
2.40816e-11
5.09602e-08
4.5165e-08
2.13521e-11
3.56249e-12
4.09608e-08
9.85418e-12
3.1871e-11
5.76714e-12
3.59946e-08
1.03864e-11
3.40472e-11
6.06334e-12
3.08956e-08
1.04837e-11
4.5788e-12
2.56945e-08
9.38791e-12
5.75025e-12
7.46429e-12
5.09015e-08
1.47373e-11
7.71683e-12
4.58226e-08
2.23395e-11
9.14524e-12
4.05692e-08
1.06209e-11
3.51805e-08
2.84383e-11
3.03121e-11
5.82151e-08
4.13455e-11
3.25927e-11
5.29353e-08
4.27576e-11
3.07497e-11
4.74452e-08
2.65436e-11
4.17974e-08
1.72511e-13
6.19757e-08
8.84232e-12
5.65911e-08
1.86726e-11
5.0972e-08
4.51748e-08
1.23237e-11
6.13063e-13
4.09415e-08
6.45544e-12
1.85458e-11
1.94205e-12
3.598e-08
6.49737e-12
2.02847e-11
2.03693e-12
3.08854e-08
6.48371e-12
1.22099e-12
2.56879e-08
5.95722e-12
4.82242e-12
3.33553e-12
5.0894e-08
1.05121e-11
3.30295e-12
4.58155e-08
1.50778e-11
3.82306e-12
4.05628e-08
4.48564e-12
3.51758e-08
1.57587e-11
1.60341e-11
5.81866e-08
2.31348e-11
1.63051e-11
5.29148e-08
2.45993e-11
1.46964e-11
4.74329e-08
1.22448e-11
4.1792e-08
2.15083e-12
6.19845e-08
7.82891e-12
5.65973e-08
1.3498e-11
5.09765e-08
4.51789e-08
7.10269e-12
-7.31906e-13
4.09306e-08
4.45928e-12
1.08699e-11
1.36621e-13
3.59718e-08
4.31393e-12
1.2185e-11
2.42604e-13
3.08797e-08
4.265e-12
-3.05373e-13
2.56843e-08
4.02822e-12
3.54618e-12
1.05158e-12
5.08886e-08
7.29451e-12
9.75864e-13
4.58108e-08
1.02872e-11
1.11137e-12
4.05589e-08
1.5736e-12
3.51732e-08
8.80116e-12
7.58323e-12
5.81712e-08
1.31947e-11
7.40945e-12
5.29039e-08
1.44788e-11
6.40342e-12
4.74263e-08
5.2648e-12
4.17891e-08
2.3979e-12
6.19868e-08
6.10991e-12
5.65988e-08
9.44464e-12
5.09776e-08
4.51804e-08
4.06226e-12
-1.20929e-12
4.09247e-08
3.16686e-12
6.40715e-12
-6.95432e-13
3.59673e-08
2.95899e-12
7.44206e-12
-5.97091e-13
3.08765e-08
2.91427e-12
-8.75653e-13
2.56822e-08
2.85484e-12
2.53101e-12
-1.33238e-14
5.08849e-08
4.99808e-12
-3.03978e-14
4.58077e-08
6.81596e-12
6.64853e-14
4.05564e-08
2.13325e-13
3.51715e-08
5.04906e-12
3.35748e-12
5.81627e-08
7.75844e-12
3.21107e-12
5.28979e-08
8.80109e-12
2.79777e-12
4.74225e-08
2.31002e-12
4.17873e-08
1.9777e-12
6.19865e-08
4.33725e-12
5.65986e-08
6.35768e-12
5.09776e-08
4.51808e-08
2.31399e-12
-1.10003e-12
4.09213e-08
2.24562e-12
3.75642e-12
-8.00587e-13
3.59648e-08
2.04926e-12
4.61219e-12
-7.94906e-13
3.08747e-08
2.01217e-12
-9.23381e-13
2.56811e-08
2.0454e-12
1.7659e-12
-4.30018e-13
5.08825e-08
3.36721e-12
-3.95704e-13
4.58058e-08
4.4788e-12
-3.42042e-13
4.05549e-08
-3.07406e-13
3.51705e-08
2.82093e-12
1.57492e-12
5.81579e-08
4.58209e-12
1.40345e-12
5.28944e-08
5.52351e-12
1.04681e-12
4.74203e-08
7.98697e-13
4.17862e-08
1.47027e-12
6.19856e-08
3.01108e-12
5.6598e-08
4.27346e-12
5.09772e-08
4.51808e-08
1.39231e-12
-9.4211e-13
4.09194e-08
1.57753e-12
2.32346e-12
-7.40078e-13
3.59634e-08
1.42227e-12
2.8625e-12
-6.74266e-13
3.08737e-08
1.42612e-12
-8.53236e-13
2.56804e-08
1.47188e-12
1.20872e-12
-4.91388e-13
5.0881e-08
2.23986e-12
-4.66269e-13
4.58047e-08
2.97886e-12
-4.6643e-13
4.05541e-08
-4.78975e-13
3.51699e-08
1.63511e-12
6.49448e-13
5.81552e-08
2.75535e-12
4.76517e-13
5.28924e-08
3.41995e-12
2.56247e-13
4.7419e-08
1.57167e-13
4.17856e-08
1.02986e-12
6.19847e-08
2.04552e-12
5.65974e-08
2.87372e-12
5.09767e-08
4.51807e-08
8.76424e-13
-7.48813e-13
4.09183e-08
1.09344e-12
1.47555e-12
-6.31224e-13
3.59626e-08
9.94165e-13
1.85133e-12
-5.7549e-13
3.08731e-08
1.01366e-12
-6.76928e-13
2.568e-08
1.04736e-12
8.23992e-13
-4.25788e-13
5.08801e-08
1.51405e-12
-4.26054e-13
4.5804e-08
1.98661e-12
-4.49719e-13
4.05535e-08
-4.4604e-13
3.51696e-08
9.819e-13
2.22788e-13
5.81537e-08
1.72054e-12
1.01186e-13
5.28914e-08
2.16528e-12
-2.64317e-14
4.74183e-08
-7.41653e-14
4.17852e-08
7.23931e-13
6.19841e-08
1.41197e-12
5.65969e-08
1.99003e-12
5.09764e-08
4.51805e-08
6.1253e-13
-5.69645e-13
4.09176e-08
7.65233e-13
1.0065e-12
-5.09929e-13
3.59621e-08
7.1562e-13
1.30589e-12
-4.83435e-13
3.08727e-08
7.27505e-13
-5.39298e-13
2.56797e-08
7.59785e-13
6.0271e-13
-3.31431e-13
5.08794e-08
1.09155e-12
-3.40024e-13
4.58035e-08
1.40416e-12
-3.61629e-13
4.05531e-08
-3.55746e-13
3.51693e-08
6.65067e-13
6.06447e-14
5.81528e-08
1.19095e-12
-3.56329e-15
5.28907e-08
1.55333e-12
-8.36953e-14
4.74178e-08
-9.74011e-14
4.17849e-08
5.44084e-13
6.19835e-08
1.06171e-12
5.65965e-08
1.48432e-12
5.09761e-08
4.51802e-08
5.05587e-13
-5.16489e-13
6.07479e-13
9.0143e-13
-5.06527e-13
6.0257e-13
1.16281e-12
-5.01573e-13
6.19397e-13
-5.19435e-13
6.38515e-13
5.2751e-13
-3.05988e-13
9.76393e-13
-3.08443e-13
1.24397e-12
-3.18862e-13
-3.24646e-13
5.72562e-13
8.97852e-15
1.05574e-12
-1.73264e-15
1.3611e-12
-2.7074e-14
-4.51069e-14
5.52955e-13
1.05053e-12
1.40338e-12
1.30112e-10
-8.27589e-09
4.61811e-08
-2.45817e-09
-1.46203e-09
5.6604e-08
-4.6768e-11
4.91131e-09
5.01034e-08
3.89406e-09
5.45819e-08
1.82414e-09
1.69548e-09
2.09448e-08
-6.03884e-10
3.6024e-10
4.76085e-08
4.83786e-10
3.54937e-09
5.4088e-08
2.45361e-09
5.93827e-08
1.48721e-09
6.45774e-10
2.89849e-08
1.30668e-09
-3.61751e-09
4.55706e-08
3.58222e-11
-6.98234e-10
5.40652e-08
-2.67706e-09
5.40436e-08
-8.28027e-10
2.88719e-08
2.53049e-09
2.48466e-08
-6.87521e-10
4.17312e-08
3.7398e-08
2.0977e-09
4.21565e-09
3.65452e-08
-5.22085e-09
3.64964e-09
6.16094e-08
2.40064e-09
9.1132e-09
3.46354e-08
-4.2664e-09
7.70228e-08
5.79028e-10
7.3326e-09
1.57368e-08
-6.22131e-10
1.10182e-08
4.14411e-08
-2.42024e-09
9.70231e-10
6.40291e-08
-7.60594e-09
7.08697e-08
2.74416e-09
-1.23229e-08
5.00056e-08
-9.04317e-09
-8.56019e-09
7.69363e-08
-6.75998e-09
-1.36744e-09
5.41196e-08
1.33179e-08
2.75333e-08
4.5317e-09
1.79701e-08
-1.94194e-09
3.05363e-08
5.43872e-09
3.66396e-08
5.55444e-08
-1.89573e-09
6.37944e-10
4.04752e-08
2.03425e-09
1.89796e-08
4.17783e-08
-7.70638e-10
-5.65285e-09
4.22357e-08
-7.06618e-09
8.93467e-08
3.23617e-09
-5.48948e-09
1.94906e-08
-7.45002e-09
1.9271e-08
5.18359e-08
-1.15224e-09
2.72709e-09
4.93514e-08
6.87678e-09
5.90599e-08
-3.10215e-08
7.41038e-09
6.25069e-08
-1.8226e-08
9.73325e-09
7.36785e-08
2.64744e-09
-3.17485e-09
3.91481e-08
-5.42227e-09
4.02141e-08
-3.20094e-09
1.80862e-08
1.5908e-09
3.29305e-08
7.6542e-11
3.89946e-08
3.97192e-08
-1.54386e-09
-1.13389e-08
5.40813e-08
2.94495e-09
1.43278e-09
3.61177e-08
2.98871e-09
-2.93808e-09
4.61265e-08
-7.43733e-09
1.02215e-07
2.1163e-09
-1.36904e-08
2.04194e-08
3.61416e-10
-1.91213e-08
7.41449e-08
1.49505e-09
-1.17566e-09
4.64554e-08
-2.27178e-09
5.27429e-08
-1.36988e-09
1.35184e-08
3.92801e-08
3.5833e-09
6.9799e-09
4.26241e-08
2.33737e-09
2.03265e-09
3.71857e-08
-5.15494e-09
4.41784e-08
-3.47864e-09
2.59817e-08
7.94046e-10
2.82821e-08
-7.06092e-10
4.18531e-08
5.27338e-08
2.99504e-09
4.06732e-09
4.93026e-08
-5.27294e-10
-4.55834e-09
4.39046e-08
1.92401e-10
-1.88967e-09
4.67451e-08
-1.85284e-10
9.67755e-08
-4.333e-10
-3.05406e-09
2.89623e-08
-1.34994e-09
1.14218e-09
6.9361e-08
1.00394e-09
-8.51307e-10
4.30631e-08
1.61598e-09
4.54727e-08
6.71023e-10
6.843e-09
2.75548e-08
-1.35706e-09
6.70156e-09
3.90928e-08
2.7433e-09
4.33529e-09
2.78988e-08
-1.34625e-09
5.22688e-08
9.8494e-10
2.73629e-08
-1.70149e-09
3.7827e-08
3.19655e-10
4.17092e-08
6.14943e-08
1.85623e-09
1.38376e-08
3.16986e-08
3.385e-09
-6.29945e-09
4.78769e-08
-4.20307e-09
-9.6195e-10
5.51691e-08
1.19765e-08
8.09394e-08
-5.13229e-09
9.01068e-09
3.68401e-08
3.9825e-09
1.44745e-08
3.94722e-08
1.51659e-09
5.52592e-09
3.90412e-08
1.10721e-08
4.25116e-08
-3.27875e-09