/*--------------------------------*- C++ -*----------------------------------*\
| =========                 |                                                 |
| \\      /  F ield         | OpenFOAM: The Open Source CFD Toolbox           |
|  \\    /   O peration     | Version:  2506                                  |
|   \\  /    A nd           | Website:  www.openfoam.com                      |
|    \\/     M anipulation  |                                                 |
\*---------------------------------------------------------------------------*/
FoamFile
{
    version     2.0;
    format      ascii;
    arch        "LSB;label=32;scalar=64";
    class       volVectorField;
    location    "0.07";
    object      stored_U;
}
// * * * * * * * * * * * * * * * * * * * * * * * * * * * * * * * * * * * * * //

dimensions      [0 1 -1 0 0 0 0];

internalField   nonuniform List<vector> 
1152
(
(5.88932e-05 8.101e-05 0.0176959)
(0.000891122 0.0020642 0.016547)
(-0.00393057 -0.00138695 0.0237955)
(3.63199e-05 -0.000146101 0.006069)
(0.000208126 0.000103967 0.0159367)
(-0.00163162 0.00131252 0.0205702)
(-0.00188597 0.00104067 0.0136651)
(0.00116647 0.00211781 0.0156784)
(0.00255175 0.000900312 0.0184977)
(0.000352358 0.000328782 0.00791322)
(-0.00396111 0.00453682 0.0256865)
(-0.000232504 0.00264752 0.0197924)
(0.000875143 0.0005682 0.0151009)
(0.000327182 -0.00441834 0.0455275)
(-0.00340601 -0.00152771 0.0220677)
(0.000317124 0.00155925 0.0174449)
(-0.000262934 -0.00163989 0.0255465)
(0.000212227 -0.00374953 0.0405171)
(0.00121917 0.00146305 0.0454879)
(-0.000228629 0.000493299 0.0107016)
(-0.000818659 -0.00082244 0.0361032)
(0.00375706 -0.000437494 0.0456525)
(0.00197521 9.47287e-05 0.00850878)
(-0.00242796 0.000667245 0.0276548)
(-0.000316149 -0.000332171 0.0215808)
(-0.00161758 -0.00257896 0.0525931)
(0.0029214 -0.00405486 0.0396479)
(0.000548632 -0.000487911 0.0100617)
(-0.000859304 0.00245597 0.0303442)
(-6.67805e-05 0.000904569 0.011192)
(0.00151942 0.0022362 0.0306035)
(0.00167794 0.00211598 0.0235434)
(-0.0035593 0.00191944 0.0220716)
(-0.00281582 -0.00120259 0.0261421)
(0.00398211 -0.000430142 0.0151212)
(7.89969e-05 -5.88984e-05 0.00304739)
(-0.000771655 -0.00052002 0.00877528)
(-0.000494131 -5.12435e-05 0.0121192)
(0.00899097 0.00272412 0.0521901)
(-0.000825721 -0.00523915 0.0337724)
(-0.00299721 -0.00282501 0.0323144)
(-0.000366093 0.00305726 0.0288334)
(0.00226739 -0.000445811 0.0128461)
(0.00347346 0.0007377 0.0563059)
(-0.000175535 0.000215009 0.0200562)
(0.00178623 0.0021985 0.0686605)
(0.000929227 -0.00121125 0.01802)
(0.000192901 -0.00241291 0.0169304)
(0.0038392 0.00324067 0.0285455)
(-0.00364666 0.00528424 0.0452793)
(-0.00096209 0.00129542 0.0164527)
(-0.0014205 -0.00107112 0.0378788)
(0.00345479 0.00240954 0.0593111)
(-0.00231158 0.00132134 0.0309177)
(-0.00283413 0.00222716 0.0320533)
(0.00349476 0.00815634 0.0445906)
(-0.00118661 9.2826e-05 0.0164545)
(-0.000861236 -0.000984558 0.0191098)
(0.000393241 0.00170666 0.0299556)
(3.21043e-05 -7.79391e-05 0.00392024)
(-0.00113191 -0.00208181 0.022063)
(-0.0021413 0.00570566 0.065356)
(0.00320975 0.00141625 0.0359495)
(0.00537645 3.25711e-07 0.0527115)
(-0.000935375 0.000981056 0.0228778)
(0.00142264 0.000373936 0.0254003)
(-0.000774484 -0.000231824 0.0170349)
(-0.00160148 -0.000104877 0.0348448)
(-0.000568429 0.00175185 0.0263054)
(-0.000553728 0.0017777 0.0414618)
(-0.00055341 -0.0029048 0.0368153)
(0.000572737 -0.000678959 0.0101473)
(-0.000268696 0.00245595 0.0340749)
(-0.00356161 -0.00161946 0.0377388)
(-0.00172837 -0.000134423 0.0229536)
(0.00229103 -0.00013704 0.0617877)
(-0.00682511 0.00279775 0.0499886)
(-0.00136007 -0.000447496 0.0106356)
(-5.52977e-05 0.00142623 0.0160976)
(-0.000766348 0.000261764 0.00354926)
(-0.00104659 -0.000229356 0.0158573)
(-0.00255322 -0.000118939 0.0268742)
(-0.0015371 -0.00176651 0.0271629)
(0.00197992 -0.0014353 0.0206138)
(-0.00349894 -0.00060383 0.0304412)
(-0.00278049 -0.000889918 0.0203171)
(-0.00164922 0.000427615 0.0171114)
(0.00153374 -9.29242e-05 0.0379209)
(-0.00166259 -0.000938962 0.0170798)
(-0.00194774 -0.00162949 0.0301428)
(-0.000412462 -5.10976e-05 0.0065916)
(-0.00139642 0.00288318 0.0300737)
(-0.00309301 -0.00216429 0.0252113)
(-0.00239463 -0.000557569 0.0300509)
(0.00124601 7.6733e-06 0.0239278)
(-0.000905687 0.00472575 0.0119374)
(-9.03488e-05 -0.000611435 0.0146058)
(-0.000282306 -0.000435287 0.0221004)
(0.000128479 -0.000219439 0.0167843)
(-9.48016e-05 0.000368001 0.0177252)
(0.000122023 -0.000703151 0.0245217)
(0.000342792 -0.0005213 0.0220528)
(0.000739724 0.000222284 0.0148805)
(-0.000321632 -0.000309927 0.00653573)
(0.000216387 -0.000307508 0.0208241)
(0.000449352 0.000265133 0.0219454)
(0.000375809 0.000737025 0.0118468)
(5.13779e-05 -0.000971657 0.0352543)
(0.000530192 0.000812183 0.0282442)
(0.00050349 0.000349707 0.0130033)
(0.000129933 0.000189288 0.00931976)
(0.00116454 -0.00353407 0.0162246)
(0.00147714 -0.000745044 0.0278883)
(0.00090867 -0.000572307 0.0319095)
(0.000438591 -0.000305845 0.0263619)
(-0.000225676 -0.000471583 0.0256505)
(0.00166309 -0.00101595 0.0305208)
(0.00147176 -0.000630961 0.0296379)
(0.000376035 -0.000366666 0.0207121)
(-0.000127885 -0.000809399 0.0175291)
(0.00141475 -0.000241069 0.0301714)
(0.00134684 -0.000246881 0.0298915)
(0.000106934 -0.000381906 0.0226219)
(0.000221811 -0.000421311 0.0430483)
(0.00110738 6.37023e-05 0.0321403)
(0.00122812 -0.000224653 0.0212863)
(0.000364432 -0.00079965 0.0157429)
(-0.0004933 -0.00219495 0.0356735)
(0.000511105 0.000484604 0.00807555)
(0.000664688 0.000485105 0.00834733)
(0.00048947 0.000714271 0.00700401)
(-0.000384211 0.00065883 0.00676662)
(0.00043435 -0.000197552 0.00865182)
(0.001183 3.44683e-05 0.00799076)
(0.00055128 9.45065e-06 0.00622471)
(-0.000656588 -0.00157238 0.00652075)
(8.31349e-05 0.000124768 0.00838926)
(0.000731416 0.000550423 0.00762124)
(-0.00119845 0.000276618 0.00646632)
(-0.000247195 -0.00144425 0.0098184)
(0.000490716 0.000224056 0.00826779)
(0.00125113 0.000396251 0.00601194)
(-0.00149085 -0.000616148 0.00523513)
(-0.000202426 -0.00185882 0.00840436)
(8.75048e-05 -0.000286756 0.0168155)
(0.000272881 -3.77503e-05 0.0169963)
(0.000159996 0.000139905 0.0163902)
(-0.000130876 0.000154071 0.0165087)
(0.000197833 -0.000260213 0.016858)
(0.000506608 -5.98109e-05 0.0167071)
(0.000164576 -4.47676e-05 0.0159341)
(-0.000212572 -0.000600283 0.0162577)
(0.000209887 3.88037e-05 0.0167426)
(0.000401074 0.000238391 0.0166582)
(-0.000435165 0.000162983 0.0161969)
(-0.000177429 -0.00039736 0.0178716)
(0.000356379 0.000114913 0.0164777)
(0.000575816 0.000234079 0.0158185)
(-0.000505604 -5.09423e-05 0.0154112)
(-0.000240919 -0.000369439 0.0173199)
(0.000167713 1.33383e-05 0.013864)
(0.000187269 5.19259e-05 0.0139397)
(8.72089e-05 7.06347e-05 0.0137352)
(-1.20602e-05 6.73917e-05 0.0138327)
(0.000111027 -5.6366e-06 0.0139546)
(0.000203858 3.41015e-05 0.0138917)
(5.73506e-05 1.77018e-05 0.0136302)
(-5.31687e-05 -0.000175912 0.0137982)
(0.000121463 7.01818e-05 0.0139546)
(0.000161701 0.000118553 0.013896)
(-0.000151956 8.15509e-05 0.0137265)
(-8.9038e-05 -0.000111439 0.0143036)
(0.000124949 3.34142e-05 0.0137948)
(0.000185921 8.42808e-05 0.0135789)
(-0.000194227 1.40197e-05 0.0134229)
(-0.000138613 -6.62029e-05 0.0140575)
(4.45554e-05 -4.82847e-05 0.0144064)
(6.09026e-05 -1.15206e-06 0.0144178)
(2.51797e-05 9.83522e-06 0.014346)
(1.51018e-06 1.97999e-05 0.0143879)
(3.40679e-05 -2.56839e-05 0.0144068)
(6.65052e-05 6.34727e-06 0.0143961)
(1.21238e-05 2.90754e-06 0.0143153)
(-1.72431e-05 -5.70265e-05 0.0143818)
(6.77505e-05 1.94426e-05 0.0143998)
(6.50989e-05 4.03502e-05 0.0143899)
(-5.24141e-05 2.76916e-05 0.0143398)
(-4.52994e-05 -4.11752e-05 0.0145352)
(5.52669e-05 4.26583e-06 0.0143184)
(6.28424e-05 2.76445e-05 0.0142767)
(-7.97133e-05 1.32285e-05 0.0142359)
(-7.38467e-05 -1.14103e-05 0.0144547)
(3.55489e-05 -1.45832e-05 0.0143128)
(3.42234e-05 7.16115e-07 0.0143493)
(1.44204e-05 -1.04366e-06 0.014341)
(4.16694e-06 3.58073e-06 0.0143665)
(2.11043e-05 -7.65984e-06 0.014344)
(2.9042e-05 3.68372e-06 0.0143636)
(5.15974e-06 -1.11255e-06 0.014349)
(-6.90946e-06 -2.06053e-05 0.0143797)
(3.92057e-05 7.28156e-06 0.0143628)
(2.96954e-05 1.27847e-05 0.0143714)
(-1.56458e-05 5.45343e-06 0.0143625)
(-2.22497e-05 -1.92168e-05 0.0144308)
(2.62459e-05 -5.86926e-06 0.0143333)
(2.25552e-05 2.94632e-06 0.0143358)
(-3.05732e-05 -5.58527e-07 0.0143311)
(-3.71484e-05 -9.52303e-06 0.0144118)
(1.76205e-05 -1.05328e-05 0.0143086)
(1.53993e-05 -3.64484e-06 0.0143436)
(6.1913e-06 -5.93494e-06 0.0143531)
(1.07158e-06 -3.79682e-06 0.014368)
(1.02401e-05 -7.72751e-06 0.0143419)
(1.17014e-05 -2.87105e-06 0.0143668)
(1.46053e-06 -5.71207e-06 0.0143725)
(-4.94205e-06 -1.19367e-05 0.0143875)
(1.97102e-05 -2.85937e-06 0.0143631)
(1.26352e-05 -1.53699e-06 0.0143792)
(-5.21618e-06 -5.16037e-06 0.0143843)
(-1.21142e-05 -1.35053e-05 0.0144088)
(1.20417e-05 -1.09442e-05 0.0143564)
(7.9742e-06 -7.90898e-06 0.0143709)
(-1.18859e-05 -9.04165e-06 0.0143773)
(-1.90563e-05 -1.23535e-05 0.0144078)
(8.81829e-06 -8.16825e-06 0.0143078)
(6.96395e-06 -5.59086e-06 0.0143458)
(2.20011e-06 -7.1552e-06 0.0143633)
(-1.1161e-06 -6.30798e-06 0.014375)
(4.8147e-06 -7.85998e-06 0.0143458)
(4.72957e-06 -5.94122e-06 0.0143742)
(-2.26875e-07 -7.48666e-06 0.0143872)
(-4.32567e-06 -9.79432e-06 0.014397)
(9.45893e-06 -7.02197e-06 0.0143691)
(5.2907e-06 -6.9036e-06 0.0143899)
(-2.58753e-06 -8.65455e-06 0.0144002)
(-7.62569e-06 -1.16688e-05 0.0144115)
(5.41163e-06 -1.19897e-05 0.0143731)
(2.72123e-06 -1.11531e-05 0.0143923)
(-5.44563e-06 -1.16463e-05 0.0144024)
(-1.06775e-05 -1.28358e-05 0.0144154)
(4.13535e-06 -6.88445e-06 0.01431)
(2.90838e-06 -6.03585e-06 0.0143495)
(2.15369e-07 -6.93559e-06 0.0143702)
(-2.0899e-06 -6.65281e-06 0.0143809)
(1.98152e-06 -7.41799e-06 0.0143502)
(1.65143e-06 -6.7126e-06 0.0143801)
(-1.07433e-06 -7.54176e-06 0.0143958)
(-3.80274e-06 -8.56916e-06 0.0144041)
(4.2031e-06 -7.88586e-06 0.0143743)
(1.90272e-06 -8.06914e-06 0.0143975)
(-2.02961e-06 -8.93116e-06 0.0144097)
(-5.33574e-06 -1.01407e-05 0.0144172)
(2.16805e-06 -1.09141e-05 0.0143828)
(5.43031e-07 -1.08195e-05 0.014404)
(-3.28997e-06 -1.11167e-05 0.0144152)
(-6.64281e-06 -1.15758e-05 0.0144228)
(1.83613e-06 -5.69046e-06 0.0143125)
(1.01301e-06 -5.54599e-06 0.0143527)
(-6.52554e-07 -6.0559e-06 0.0143748)
(-2.26299e-06 -5.97997e-06 0.0143853)
(6.00654e-07 -6.39933e-06 0.0143536)
(2.83117e-07 -6.22253e-06 0.0143844)
(-1.37056e-06 -6.6978e-06 0.0144011)
(-3.18366e-06 -7.21991e-06 0.014409)
(1.57418e-06 -7.18066e-06 0.0143779)
(3.30342e-07 -7.42294e-06 0.0144024)
(-1.82179e-06 -7.88244e-06 0.0144155)
(-3.91336e-06 -8.41251e-06 0.0144219)
(5.76026e-07 -9.07157e-06 0.0143882)
(-4.02353e-07 -9.211e-06 0.0144104)
(-2.4055e-06 -9.41067e-06 0.014422)
(-4.47037e-06 -9.59534e-06 0.0144279)
(6.86882e-07 -4.5754e-06 0.0143148)
(1.33356e-07 -4.67659e-06 0.0143555)
(-9.46664e-07 -4.96777e-06 0.0143781)
(-2.05145e-06 -4.95382e-06 0.0143886)
(-5.13482e-08 -5.22378e-06 0.0143564)
(-2.98652e-07 -5.24537e-06 0.0143875)
(-1.35855e-06 -5.53365e-06 0.0144046)
(-2.55214e-06 -5.82432e-06 0.0144124)
(3.44279e-07 -5.95849e-06 0.0143805)
(-3.45579e-07 -6.17563e-06 0.0144057)
(-1.60717e-06 -6.44397e-06 0.0144191)
(-2.91128e-06 -6.7025e-06 0.0144252)
(-1.53484e-07 -7.1232e-06 0.0143915)
(-7.55394e-07 -7.32097e-06 0.0144141)
(-1.8994e-06 -7.4701e-06 0.0144258)
(-3.15135e-06 -7.54732e-06 0.0144312)
(1.63557e-07 -3.5581e-06 0.0143166)
(-2.17922e-07 -3.72632e-06 0.0143575)
(-9.39629e-07 -3.90107e-06 0.0143805)
(-1.69444e-06 -3.90284e-06 0.0143909)
(-3.27213e-07 -4.07838e-06 0.0143583)
(-5.01172e-07 -4.16772e-06 0.0143897)
(-1.1919e-06 -4.35875e-06 0.014407)
(-1.97621e-06 -4.53735e-06 0.0144147)
(-1.94666e-07 -4.68223e-06 0.0143823)
(-5.74773e-07 -4.85463e-06 0.0144079)
(-1.35079e-06 -5.02954e-06 0.0144214)
(-2.16257e-06 -5.17786e-06 0.0144274)
(-4.19957e-07 -5.4089e-06 0.0143934)
(-8.24094e-07 -5.5921e-06 0.0144163)
(-1.51901e-06 -5.70469e-06 0.0144281)
(-2.27426e-06 -5.74002e-06 0.0144333)
(-6.24275e-08 -2.68836e-06 0.0143181)
(-3.1642e-07 -2.83884e-06 0.0143591)
(-7.96375e-07 -2.94828e-06 0.0143821)
(-1.31129e-06 -2.95093e-06 0.0143926)
(-3.80738e-07 -3.06804e-06 0.0143597)
(-4.98028e-07 -3.16891e-06 0.0143912)
(-9.59077e-07 -3.30335e-06 0.0144086)
(-1.47918e-06 -3.41813e-06 0.0144163)
(-3.62997e-07 -3.53148e-06 0.0143835)
(-5.87365e-07 -3.66896e-06 0.0144092)
(-1.06812e-06 -3.78704e-06 0.0144228)
(-1.58736e-06 -3.87869e-06 0.0144288)
(-4.70475e-07 -4.00665e-06 0.0143945)
(-7.35988e-07 -4.15032e-06 0.0144176)
(-1.16949e-06 -4.23448e-06 0.0144294)
(-1.6407e-06 -4.25997e-06 0.0144345)
(-1.25723e-07 -1.94641e-06 0.0143191)
(-2.89767e-07 -2.0609e-06 0.0143602)
(-6.06349e-07 -2.12789e-06 0.0143833)
(-9.47216e-07 -2.1248e-06 0.0143937)
(-3.31223e-07 -2.21695e-06 0.0143607)
(-4.06796e-07 -2.30332e-06 0.0143922)
(-7.04333e-07 -2.39013e-06 0.0144096)
(-1.04693e-06 -2.46083e-06 0.0144173)
(-3.51739e-07 -2.55054e-06 0.0143843)
(-4.79699e-07 -2.64971e-06 0.0144101)
(-7.76648e-07 -2.72695e-06 0.0144238)
(-1.11669e-06 -2.78043e-06 0.0144297)
(-4.05848e-07 -2.85909e-06 0.0143953)
(-5.71073e-07 -2.96717e-06 0.0144183)
(-8.34766e-07 -3.0326e-06 0.0144302)
(-1.15157e-06 -3.06046e-06 0.0144352)
(-9.8614e-08 -1.30969e-06 0.0143198)
(-1.92101e-07 -1.38357e-06 0.0143609)
(-3.87468e-07 -1.42046e-06 0.014384)
(-5.98764e-07 -1.41285e-06 0.0143944)
(-2.19778e-07 -1.48986e-06 0.0143613)
(-2.62647e-07 -1.54954e-06 0.0143929)
(-4.42905e-07 -1.60153e-06 0.0144103)
(-6.55316e-07 -1.639e-06 0.0144179)
(-2.4447e-07 -1.71098e-06 0.0143849)
(-3.11423e-07 -1.77591e-06 0.0144107)
(-4.8444e-07 -1.82209e-06 0.0144243)
(-6.96882e-07 -1.84811e-06 0.0144302)
(-2.72468e-07 -1.90254e-06 0.0143957)
(-3.65397e-07 -1.97713e-06 0.0144188)
(-5.1457e-07 -2.024e-06 0.0144306)
(-7.23148e-07 -2.05083e-06 0.0144356)
(1.55666e-08 -7.52895e-07 0.0143202)
(-1.99209e-08 -7.89967e-07 0.0143613)
(-1.17326e-07 -8.03011e-07 0.0143844)
(-2.25982e-07 -7.90571e-07 0.0143948)
(-4.41727e-08 -8.515e-07 0.0143617)
(-5.35912e-08 -8.82685e-07 0.0143933)
(-1.41332e-07 -9.06331e-07 0.0144107)
(-2.49935e-07 -9.19719e-07 0.0144183)
(-5.72302e-08 -9.72886e-07 0.0143852)
(-7.75322e-08 -1.0078e-06 0.014411)
(-1.58907e-07 -1.03009e-06 0.0144247)
(-2.68455e-07 -1.03895e-06 0.0144305)
(-6.89416e-08 -1.07518e-06 0.0143959)
(-1.04779e-07 -1.11761e-06 0.014419)
(-1.71869e-07 -1.14324e-06 0.0144309)
(-2.82235e-07 -1.15869e-06 0.0144358)
(2.44605e-07 -2.50161e-07 0.0143202)
(2.76707e-07 -2.43405e-07 0.0143614)
(2.75592e-07 -2.27955e-07 0.0143846)
(2.56318e-07 -2.04937e-07 0.014395)
(2.44471e-07 -2.63192e-07 0.0143617)
(2.83233e-07 -2.58217e-07 0.0143934)
(2.83542e-07 -2.51153e-07 0.0144108)
(2.62898e-07 -2.40394e-07 0.0144184)
(2.54889e-07 -2.84627e-07 0.0143852)
(2.88729e-07 -2.86759e-07 0.0144111)
(2.90294e-07 -2.84485e-07 0.0144248)
(2.68649e-07 -2.76521e-07 0.0144306)
(2.60577e-07 -3.0513e-07 0.014396)
(2.8815e-07 -3.14618e-07 0.0144191)
(2.94516e-07 -3.17719e-07 0.014431)
(2.70847e-07 -3.19609e-07 0.0144359)
(-0.000998078 -0.00383161 0.0194557)
(-0.00466361 -0.00142034 0.021141)
(-0.00501562 -0.00110818 0.027048)
(-0.00249283 0.000325021 0.0155924)
(0.00257348 -0.00014692 0.0137677)
(0.00426235 0.000378993 0.0233339)
(0.000254334 -0.00134483 0.0219565)
(-0.000440321 -0.00104996 0.0308987)
(3.17974e-05 -0.000323279 0.0160785)
(-0.000319585 -0.000958943 0.0290717)
(-0.000826364 0.000668859 0.0210674)
(0.000592802 0.000131597 0.0119527)
(0.00154505 0.000526025 0.0127856)
(0.00230799 0.000423024 0.0101625)
(0.00189045 -0.00121487 0.0244984)
(-0.000599608 0.000982048 0.0241582)
(-0.00486054 0.00372064 0.0571721)
(-0.00472647 7.47454e-05 0.0365143)
(0.000739618 -0.00157634 0.018626)
(0.000306461 -0.000309204 0.0286923)
(-0.00128916 0.000148735 0.00986579)
(-0.00675677 -0.00345859 0.0450353)
(-0.00129357 -0.000359797 0.023484)
(-0.000585569 -0.000355839 0.0299934)
(-0.00156955 -0.00304562 0.0408253)
(-0.000642125 -0.000936186 0.0196337)
(0.000650673 -0.000894753 0.0151959)
(-0.000609279 -0.00154234 0.0322845)
(-0.000663178 0.00168129 0.0267039)
(-0.00253453 0.00542017 0.0399801)
(-0.00133153 0.00243644 0.0422344)
(0.000966773 0.000774283 0.0309713)
(0.000423178 0.00259746 0.0408252)
(0.00276938 0.00332545 0.0296151)
(0.00403354 0.00131288 0.0210648)
(-0.000395655 0.00077408 0.0227843)
(-0.00348406 0.00227107 0.0422362)
(-0.00322115 0.00257454 0.0392184)
(0.000434006 0.000411332 0.0206488)
(0.00522886 -0.00491884 0.0593561)
(0.000929161 -0.000773796 0.0331824)
(0.00105832 -0.00271346 0.0334786)
(-0.00152769 -0.00477277 0.0429534)
(-0.000963016 -0.000984284 0.0170317)
(-0.00216711 0.00089279 0.020722)
(-0.000270179 0.00031722 0.0104204)
(0.000217226 0.000458604 0.0104291)
(0.00217129 0.00163182 0.038652)
(-0.000693032 -0.0040885 0.0366316)
(-0.00297893 -0.000827664 0.0224822)
(-0.0057458 0.000692073 0.0405493)
(-0.000275304 -0.000619455 0.00383463)
(-4.47944e-05 0.000153341 0.00400684)
(0.00527358 0.00818482 0.053546)
(0.000246258 0.00393121 0.0214573)
(-0.000925632 0.00736593 0.0351445)
(-0.00238403 0.0041183 0.0341426)
(-0.00134118 0.00454718 0.0443408)
(0.00146425 0.0033535 0.0303011)
(-0.000778055 0.000817922 0.0250471)
(-0.000212135 -0.00107138 0.0296082)
(-0.000383113 -0.00064082 0.0154917)
(-0.00172648 -0.00198146 0.0295113)
(-0.00104379 -0.00327214 0.0395426)
(0.00037044 0.00046994 0.0626188)
(0.000897928 0.000676296 0.0216311)
(0.00437704 0.00448225 0.0397005)
(0.000214499 0.000656885 0.0112364)
(-0.00149228 0.00103585 0.0277238)
(0.000387385 0.00324383 0.0404143)
(0.00180557 0.00265235 0.0289722)
(2.48974e-07 0.000891034 0.0433748)
(0.000932717 0.00314523 0.0460861)
(0.000242639 0.0022188 0.0187052)
(-0.000750898 0.00369706 0.0514661)
(0.000186565 0.00340725 0.043657)
(0.000894539 -0.000158136 0.0270416)
(0.00118462 0.00137871 0.027318)
(-0.000429397 -4.33215e-05 0.0341643)
(-0.000974332 0.000641264 0.0192325)
(0.00143113 0.0021046 0.0163454)
(0.000758315 0.000837078 0.00539465)
(-0.000267563 0.00242892 0.023267)
(-0.000169126 0.00163839 0.0375578)
(0.00143073 0.00270446 0.0217292)
(0.00234363 0.00161559 0.0186877)
(0.00120675 0.00142669 0.0237918)
(-0.00104572 0.000413993 0.0222796)
(0.000795566 0.000561916 0.0147845)
(0.00188573 0.00145814 0.0334832)
(0.000358608 9.10942e-05 0.00554067)
(-0.000487846 -0.000171475 0.013518)
(0.0020314 -0.000306949 0.0221762)
(0.00175247 -0.000180731 0.0142919)
(-0.000319701 -0.000405403 0.0260491)
(-0.00373912 -0.000692793 0.0304771)
(0.000632921 0.000190834 0.0291231)
(0.000480093 -5.78195e-05 0.012015)
(-0.000204688 -0.000158152 0.0247469)
(-8.77659e-05 0.000722619 0.0267334)
(-0.000129768 0.000112052 0.012632)
(-0.000273571 -0.000433968 0.0223972)
(0.00018524 -0.000687447 0.0229872)
(5.85974e-05 0.000297513 0.027817)
(-0.000239597 0.000263923 0.0231364)
(-0.00097389 -0.000819354 0.02858)
(-0.000422211 2.53795e-05 0.0122845)
(0.000309475 0.000203966 0.019247)
(0.000147216 -7.99071e-05 0.0140061)
(-0.000102714 -0.00135016 0.0145007)
(-0.00074638 0.000436476 0.0278791)
(-8.44309e-05 0.000153763 0.0197537)
(0.00100842 -0.00109245 0.0318685)
(0.000767945 -0.00166061 0.0254019)
(0.000498644 -0.0019425 0.029142)
(0.00122508 -0.00136275 0.0315302)
(0.000153231 -0.0016914 0.0214715)
(-6.04713e-05 -0.00246161 0.0272835)
(0.000319164 -0.00154394 0.0288427)
(0.00109917 -0.00081589 0.0310526)
(-0.000328867 -0.000326669 0.0296805)
(0.000328562 -0.000213041 0.0300302)
(0.00157984 -0.00017648 0.0281549)
(0.00138883 0.000265475 0.0276683)
(-0.000483367 2.19218e-05 0.0225725)
(-0.00116962 -0.000696946 0.023957)
(7.90831e-05 0.000156537 0.0280268)
(0.000980875 -0.00037073 0.0280518)
(0.000198173 0.000538908 0.00830199)
(0.00027462 0.000313875 0.00760938)
(-0.000159547 -3.30931e-05 0.00820087)
(0.000171424 0.000188144 0.00866161)
(-0.0003887 -0.000272536 0.00640761)
(-0.000641703 -0.000643745 0.00771185)
(-0.000623452 -0.000236381 0.0084618)
(-0.000194662 0.000111766 0.00893331)
(0.000213807 6.10489e-05 0.00863274)
(0.000508835 0.000292349 0.00903519)
(0.000464263 0.000313833 0.00835907)
(5.96994e-05 0.000404182 0.008252)
(-0.000199623 -0.000510933 0.00654091)
(-0.000553201 -0.000706527 0.00731338)
(-0.000430504 -8.57763e-05 0.00832451)
(-0.000264997 -0.000232015 0.00815913)
(0.000123841 -0.000138578 0.0169646)
(0.000123834 -0.000276058 0.0167405)
(8.26725e-05 -0.000364258 0.0168657)
(0.000119324 -0.000338144 0.0169781)
(-6.41967e-05 -0.000507936 0.0156418)
(-0.000235671 -0.000671202 0.0161663)
(-0.00011825 -0.000497024 0.0165751)
(5.31343e-05 -0.000319971 0.0168406)
(4.71324e-05 -0.000150235 0.0167012)
(0.000179408 -8.094e-05 0.0167181)
(0.00033209 -2.29206e-05 0.0165633)
(0.000237128 3.1128e-05 0.016606)
(-0.00016741 -0.000373647 0.01542)
(-0.000296939 -0.00040758 0.0157585)
(-8.3521e-05 -0.000152732 0.0161479)
(7.27865e-05 -9.28271e-05 0.0163274)
(3.50176e-05 8.42509e-05 0.0135833)
(0.00010344 7.43982e-05 0.0136571)
(9.19674e-05 2.61734e-05 0.0137566)
(0.00013475 1.77539e-05 0.0138443)
(-2.11792e-05 -6.26863e-05 0.0132803)
(-6.19007e-05 -9.63548e-05 0.0135928)
(-6.71774e-05 -5.66925e-05 0.0138117)
(2.13698e-05 -4.47993e-06 0.0139329)
(6.31042e-05 4.82228e-05 0.0138628)
(0.000152691 7.51242e-05 0.0140052)
(0.000155976 8.1724e-05 0.0139782)
(0.000129897 8.40349e-05 0.0139628)
(-2.31659e-05 -0.000145615 0.0132564)
(-5.21301e-05 -0.000148231 0.0135424)
(-3.79757e-05 -7.37727e-05 0.0137301)
(2.08097e-05 -3.35393e-05 0.013795)
(1.86354e-05 -1.14241e-05 0.0142654)
(3.96935e-05 -1.90223e-05 0.0143189)
(5.4466e-05 -2.59064e-05 0.0143737)
(6.07074e-05 -3.15643e-05 0.0144088)
(1.87831e-06 -8.3869e-05 0.0140438)
(-2.04666e-05 -9.44896e-05 0.0141868)
(-5.04233e-06 -7.20186e-05 0.0143118)
(2.6266e-05 -4.62369e-05 0.0143879)
(2.24046e-05 9.03018e-06 0.0142799)
(6.6188e-05 1.55947e-05 0.0143531)
(9.27021e-05 1.91931e-05 0.0143806)
(8.97268e-05 1.69745e-05 0.0143975)
(-2.41063e-05 -6.43563e-05 0.0139462)
(-3.27458e-05 -6.49854e-05 0.0140929)
(-5.52319e-06 -4.12731e-05 0.0142182)
(2.4873e-05 -2.20007e-05 0.014294)
(1.28015e-05 4.59958e-06 0.0140374)
(3.10772e-05 5.99511e-06 0.0141373)
(3.76523e-05 2.40108e-06 0.0142142)
(4.31846e-05 -1.30896e-06 0.0142704)
(2.97189e-06 -2.73595e-05 0.0139833)
(2.19285e-07 -3.07119e-05 0.0141228)
(5.12786e-06 -2.31936e-05 0.0142305)
(2.00817e-05 -1.38228e-05 0.0143027)
(1.26972e-05 1.56778e-05 0.0141366)
(3.95314e-05 1.53859e-05 0.0142464)
(5.21719e-05 1.34977e-05 0.0143089)
(5.32847e-05 9.19204e-06 0.0143444)
(-9.03602e-06 -2.40035e-05 0.0139811)
(-8.75931e-06 -2.63051e-05 0.0141297)
(2.89201e-06 -2.04324e-05 0.0142364)
(1.67355e-05 -1.4304e-05 0.014303)
(7.86178e-06 -1.46122e-06 0.0140261)
(1.61874e-05 -9.88603e-08 0.0141254)
(1.98914e-05 -4.43263e-07 0.0142046)
(2.30289e-05 -1.45143e-06 0.0142631)
(3.68525e-06 -1.66585e-05 0.0140076)
(3.05368e-06 -1.75515e-05 0.0141312)
(5.30478e-06 -1.41083e-05 0.0142285)
(1.30247e-05 -1.01391e-05 0.0142975)
(7.25135e-06 5.77043e-06 0.0140925)
(2.14007e-05 4.72357e-06 0.0142064)
(2.76121e-05 2.53494e-06 0.0142843)
(2.88604e-05 -7.36487e-07 0.0143338)
(-3.58366e-06 -1.26372e-05 0.0140221)
(-2.81463e-06 -1.5177e-05 0.0141575)
(2.53279e-06 -1.43589e-05 0.0142565)
(9.442e-06 -1.31901e-05 0.0143213)
(5.18989e-06 -2.2024e-06 0.0140037)
(9.45817e-06 -1.52382e-06 0.0141087)
(1.09073e-05 -1.56359e-06 0.0141928)
(1.25557e-05 -1.87486e-06 0.0142563)
(2.91609e-06 -1.02104e-05 0.0140119)
(3.10687e-06 -1.09919e-05 0.0141333)
(4.0721e-06 -9.75506e-06 0.0142289)
(8.15015e-06 -8.4001e-06 0.0142983)
(4.27538e-06 5.39417e-08 0.0140683)
(1.16004e-05 -1.29157e-06 0.0141878)
(1.45468e-05 -3.08536e-06 0.0142744)
(1.53745e-05 -5.34314e-06 0.0143325)
(-1.44763e-06 -8.85311e-06 0.0140422)
(-8.37347e-07 -1.11347e-05 0.0141735)
(1.79038e-06 -1.17754e-05 0.0142706)
(5.15717e-06 -1.21883e-05 0.0143351)
(3.54574e-06 -2.69496e-06 0.013996)
(5.42155e-06 -2.59255e-06 0.0141034)
(5.7129e-06 -2.55758e-06 0.0141899)
(6.58605e-06 -2.50276e-06 0.0142557)
(2.35736e-06 -7.17009e-06 0.0140155)
(2.51264e-06 -7.92843e-06 0.0141365)
(2.80051e-06 -7.60988e-06 0.0142314)
(4.97844e-06 -7.27971e-06 0.0143012)
(2.68227e-06 -2.65761e-06 0.014057)
(6.34915e-06 -3.91074e-06 0.0141799)
(7.59535e-06 -5.20272e-06 0.0142711)
(8.07411e-06 -6.71127e-06 0.0143338)
(-5.25101e-07 -7.04099e-06 0.0140525)
(-1.51801e-07 -8.88796e-06 0.0141826)
(1.08269e-06 -9.7716e-06 0.0142788)
(2.64675e-06 -1.05411e-05 0.0143433)
(2.50634e-06 -2.56722e-06 0.0139926)
(3.20434e-06 -2.73358e-06 0.0141017)
(3.02166e-06 -2.72366e-06 0.0141895)
(3.49756e-06 -2.58351e-06 0.0142567)
(1.80168e-06 -5.14004e-06 0.0140179)
(1.84187e-06 -5.82407e-06 0.014139)
(1.79671e-06 -5.89586e-06 0.0142338)
(2.99861e-06 -5.99686e-06 0.0143038)
(1.73461e-06 -3.37367e-06 0.0140518)
(3.50516e-06 -4.40901e-06 0.0141768)
(3.90796e-06 -5.32993e-06 0.0142703)
(4.14356e-06 -6.34773e-06 0.0143353)
(-1.2446e-07 -5.66609e-06 0.0140576)
(4.64306e-08 -7.08643e-06 0.0141875)
(5.42843e-07 -7.88114e-06 0.0142833)
(1.21061e-06 -8.61542e-06 0.014348)
(1.7987e-06 -2.20169e-06 0.0139918)
(1.95174e-06 -2.46122e-06 0.0141019)
(1.61226e-06 -2.48603e-06 0.0141904)
(1.84317e-06 -2.34866e-06 0.0142582)
(1.35175e-06 -3.74721e-06 0.0140198)
(1.30709e-06 -4.33655e-06 0.0141412)
(1.12914e-06 -4.55266e-06 0.0142359)
(1.79661e-06 -4.79429e-06 0.0143061)
(1.1415e-06 -3.18739e-06 0.0140498)
(1.95469e-06 -3.99633e-06 0.0141759)
(1.9937e-06 -4.65467e-06 0.0142706)
(2.09678e-06 -5.36352e-06 0.0143369)
(2.50879e-08 -4.44052e-06 0.0140604)
(5.86524e-08 -5.49731e-06 0.0141902)
(1.83107e-07 -6.12761e-06 0.0142859)
(4.24794e-07 -6.71914e-06 0.0143508)
(1.28848e-06 -1.75465e-06 0.013992)
(1.21493e-06 -2.01078e-06 0.0141028)
(8.61169e-07 -2.0505e-06 0.0141915)
(9.6368e-07 -1.94341e-06 0.0142597)
(9.9534e-07 -2.71371e-06 0.0140212)
(9.14303e-07 -3.18537e-06 0.0141428)
(6.92451e-07 -3.42481e-06 0.0142376)
(1.05212e-06 -3.68488e-06 0.0143078)
(7.71194e-07 -2.6726e-06 0.0140492)
(1.12442e-06 -3.30061e-06 0.014176)
(1.01428e-06 -3.78501e-06 0.0142712)
(1.02369e-06 -4.28041e-06 0.0143381)
(5.48734e-08 -3.39196e-06 0.0140619)
(1.31212e-08 -4.16821e-06 0.0141918)
(-1.81015e-09 -4.65089e-06 0.0142874)
(6.91419e-08 -5.10325e-06 0.0143524)
(9.17656e-07 -1.34396e-06 0.0139926)
(7.69543e-07 -1.56523e-06 0.0141037)
(4.60669e-07 -1.60844e-06 0.0141926)
(4.96795e-07 -1.53266e-06 0.0142609)
(7.21996e-07 -1.94157e-06 0.0140222)
(6.35948e-07 -2.30192e-06 0.014144)
(4.26799e-07 -2.52229e-06 0.0142388)
(6.20388e-07 -2.75839e-06 0.014309)
(5.20246e-07 -2.09402e-06 0.0140492)
(6.44118e-07 -2.56377e-06 0.0141763)
(4.87437e-07 -2.91121e-06 0.0142719)
(4.79583e-07 -3.25466e-06 0.0143391)
(6.16472e-08 -2.53146e-06 0.0140628)
(-6.2749e-10 -3.09619e-06 0.0141928)
(-7.3956e-08 -3.44724e-06 0.0142884)
(-8.84303e-08 -3.77399e-06 0.0143535)
(6.42311e-07 -9.7683e-07 0.0139931)
(4.99291e-07 -1.14991e-06 0.0141045)
(2.53294e-07 -1.19487e-06 0.0141934)
(2.53861e-07 -1.14543e-06 0.0142618)
(5.07458e-07 -1.36013e-06 0.014023)
(4.31322e-07 -1.62655e-06 0.0141449)
(2.65878e-07 -1.8041e-06 0.0142397)
(3.76696e-07 -1.99005e-06 0.0143099)
(3.47468e-07 -1.54438e-06 0.0140493)
(3.73792e-07 -1.87856e-06 0.0141767)
(2.29926e-07 -2.12e-06 0.0142724)
(2.18531e-07 -2.35863e-06 0.0143398)
(5.34859e-08 -1.81534e-06 0.0140633)
(-8.1306e-09 -2.21311e-06 0.0141934)
(-9.37574e-08 -2.4613e-06 0.0142891)
(-1.32253e-07 -2.69297e-06 0.0143541)
(4.3141e-07 -6.64567e-07 0.0139935)
(3.25506e-07 -7.83369e-07 0.014105)
(1.57533e-07 -8.17483e-07 0.014194)
(1.46659e-07 -7.87997e-07 0.0142624)
(3.40631e-07 -9.02899e-07 0.0140235)
(2.88156e-07 -1.08293e-06 0.0141455)
(1.73558e-07 -1.20901e-06 0.0142403)
(2.43599e-07 -1.34061e-06 0.0143105)
(2.25707e-07 -1.05046e-06 0.0140495)
(2.24782e-07 -1.27178e-06 0.0141771)
(1.2206e-07 -1.42943e-06 0.0142728)
(1.17441e-07 -1.58412e-06 0.0143402)
(4.17317e-08 -1.21008e-06 0.0140637)
(-3.84585e-10 -1.47276e-06 0.0141938)
(-6.53541e-08 -1.63853e-06 0.0142895)
(-9.66522e-08 -1.79219e-06 0.0143546)
(2.78752e-07 -4.10526e-07 0.0139938)
(2.26517e-07 -4.71577e-07 0.0141054)
(1.39592e-07 -4.85631e-07 0.0141944)
(1.38681e-07 -4.63629e-07 0.0142628)
(2.15133e-07 -5.31098e-07 0.0140238)
(2.01662e-07 -6.28008e-07 0.0141459)
(1.48943e-07 -6.97443e-07 0.0142406)
(2.02869e-07 -7.7098e-07 0.0143109)
(1.39454e-07 -6.10207e-07 0.0140497)
(1.54023e-07 -7.32154e-07 0.0141773)
(1.11496e-07 -8.18352e-07 0.0142731)
(1.27943e-07 -9.02887e-07 0.0143405)
(3.62211e-08 -6.81615e-07 0.0140638)
(3.41411e-08 -8.29693e-07 0.014194)
(1.41855e-08 -9.2402e-07 0.0142897)
(1.35954e-08 -1.01192e-06 0.0143548)
(1.87655e-07 -2.26135e-07 0.0139938)
(2.04494e-07 -2.24525e-07 0.0141054)
(2.12196e-07 -2.04198e-07 0.0141945)
(2.43672e-07 -1.73836e-07 0.0142629)
(1.29872e-07 -2.36346e-07 0.0140238)
(1.76235e-07 -2.47072e-07 0.0141459)
(2.12231e-07 -2.47734e-07 0.0142406)
(2.7967e-07 -2.53157e-07 0.0143109)
(8.02615e-08 -2.18314e-07 0.0140496)
(1.48352e-07 -2.4248e-07 0.0141772)
(2.00525e-07 -2.55913e-07 0.0142731)
(2.65313e-07 -2.71835e-07 0.0143405)
(3.97033e-08 -1.91692e-07 0.0140638)
(1.08633e-07 -2.33699e-07 0.014194)
(1.73366e-07 -2.60312e-07 0.0142896)
(2.36138e-07 -2.86871e-07 0.0143548)
(-0.00286302 -0.000249849 0.0215086)
(-0.000718254 4.8933e-05 0.0105405)
(-0.000727692 0.00137985 0.0195813)
(0.000651533 0.000275808 0.00706258)
(-0.00185746 -0.000116716 0.0174054)
(-0.000128397 -0.000752465 0.0245488)
(0.000273928 0.00106082 0.0152233)
(0.0001287 0.00133985 0.0148317)
(-0.000558971 0.000857832 0.0190311)
(0.00032627 -0.00142106 0.0232146)
(0.00013958 8.81697e-05 0.0192847)
(0.000197357 -0.0015704 0.0267889)
(-0.00125884 0.000389443 0.0236547)
(-0.000278931 0.000346328 0.0141293)
(5.02528e-05 2.3509e-05 0.0203412)
(9.75244e-05 -0.000535014 0.0034384)
(2.40125e-05 0.00146653 0.0322552)
(-0.00155441 0.000959106 0.0489984)
(0.000103223 0.00155546 0.0178486)
(-0.0042879 -0.000955854 0.0452428)
(0.000718754 0.00136005 0.00788172)
(0.000550921 0.00148057 0.0227471)
(0.000505751 0.00189463 0.0390626)
(-0.00488314 -0.00417637 0.0428172)
(0.00185392 -0.0011359 0.0271772)
(-0.00158656 0.00129246 0.0259861)
(-0.00458324 0.000857073 0.0387782)