/*--------------------------------*- C++ -*----------------------------------*\
| =========                 |                                                 |
| \\      /  F ield         | OpenFOAM: The Open Source CFD Toolbox           |
|  \\    /   O peration     | Version:  2506                                  |
|   \\  /    A nd           | Website:  www.openfoam.com                      |
|    \\/     M anipulation  |                                                 |
\*---------------------------------------------------------------------------*/
FoamFile
{
    version     2.0;
    format      ascii;
    arch        "LSB;label=32;scalar=64";
    class       volScalarField;
    location    "0.05";
    object      Ksl;
}
// * * * * * * * * * * * * * * * * * * * * * * * * * * * * * * * * * * * * * //

dimensions      [1 -3 -1 0 0 0 0];

internalField   nonuniform List<scalar> 
1152
(
49342.2
176576
121087
397911
46589.5
137187
113346
119370
403288
109977
114409
105833
150958
150766
153662
94581.2
103369
309599
133548
228412
304904
223846
301268
218331
1.03981e+07
138367
300374
284884
146777
346757
107495
6.62551e+06
371268
259370
747384
104461
320112
205014
219404
400492
229585
209881
279526
226869
230448
296483
335094
139907
458170
333809
149100
424391
202554
258039
326284
265208
238365
226799
245344
199798
159905
285918
157650
186167
8.14443e+06
108760
3.78973e+06
234052
242176
479495
130169
220629
312673
192091
272696
149611
196264
341077
444888
123378
98313.4
211996
156996
199881
121999
185251
336487
236646
381678
378630
226472
209512
124407
714745
129015
198846
955170
82856.1
264909
63213.4
84319.6
52207.9
33317.7
23451.4
82015.5
99472.9
71060.2
31057.9
782123
44210.3
137774
56012.5
0
0
0
0
0
0
0
0
0
0
0
0
0
0
0
0
0
0
0
0
0
0
0
0
0
0
0
0
0
0
0
0
0
0
0
0
0
0
0
0
0
0
0
0
0
0
0
0
0
0
0
0
0
0
0
0
0
0
0
0
0
0
0
0
0
0
0
0
0
0
0
0
0
0
0
0
0
0
0
0
0
0
0
0
0
0
0
0
0
0
0
0
0
0
0
0
0
0
0
0
0
0
0
0
0
0
0
0
0
0
0
0
0
0
0
0
0
0
0
0
0
0
0
0
0
0
0
0
0
0
0
0
0
0
0
0
0
0
0
0
0
0
0
0
0
0
0
0
0
0
0
0
0
0
0
0
0
0
0
0
0
0
0
0
0
0
0
0
0
0
0
0
0
0
0
0
0
0
0
0
0
0
0
0
0
0
0
0
0
0
0
0
0
0
0
0
0
0
0
0
0
0
0
0
0
0
0
0
0
0
0
0
0
0
0
0
0
0
0
0
0
0
0
0
0
0
0
0
0
0
0
0
0
0
0
0
0
0
0
0
0
0
0
0
0
0
0
0
0
0
0
0
0
0
0
0
0
0
0
0
0
0
0
0
0
0
0
0
0
0
0
0
78106.2
129241
69120.5
111424
180467
208660
97712.5
118062
85457.4
93525.9
103443
80479.7
777354
213924
103494
113313
177117
320707
180757
190188
169561
217706
950177
261903
234015
188281
150461
151533
116213
149779
283134
128089
445889
214416
251360
1.76527e+07
778735
166699
275088
127203
226005
443034
136401
266677
376913
183972
255524
143354
429290
167553
410674
262379
248231
293717
194773
167457
161053
199913
235979
309350
225663
270575
258864
176000
230360
136697
234548
550286
137251
397355
276575
189483
1.59445e+07
130725
136666
327008
283583
256828
274882
165974
96192.7
293277
194213
985414
5.97454e+06
167550
281737
203824
133231
220450
193346
288697
252403
204236
172168
237299
264549
57131.3
62839.8
60172.8
45523.4
85973.5
63763
62506.3
33440.1
28397.8
42489.7
51241.4
46330.8
42321.2
49064.3
46127.9
0
0
0
0
0
0
0
0
0
0
0
0
0
0
0
0
0
0
0
0
0
0
0
0
0
0
0
0
0
0
0
0
0
0
0
0
0
0
0
0
0
0
0
0
0
0
0
0
0
0
0
0
0
0
0
0
0
0
0
0
0
0
0
0
0
0
0
0
0
0
0
0
0
0
0
0
0
0
0
0
0
0
0
0
0
0
0
0
0
0
0
0
0
0
0
0
0
0
0
0
0
0
0
0
0
0
0
0
0
0
0
0
0
0
0
0
0
0
0
0
0
0
0
0
0
0
0
0
0
0
0
0
0
0
0
0
0
0
0
0
0
0
0
0
0
0
0
0
0
0
0
0
0
0
0
0
0
0
0
0
0
0
0
0
0
0
0
0
0
0
0
0
0
0
0
0
0
0
0
0
0
0
0
0
0
0
0
0
0
0
0
0
0
0
0
0
0
0
0
0
0
0
0
0
0
0
0
0
0
0
0
0
0
0
0
0
0
0
0
0
0
0
0
0
0
0
0
0
0
0
0
0
0
0
0
0
0
0
0
0
0
0
0
0
0
0
0
0
0
0
0
0
0
0
0
0
0
0
0
0
0
0
0
0
0
0
0
0
0
0
0
0
83188.2
76274.9
174071
117112
129866
85577.9
151478
133182
378810
109406
100247
98857.5
70479.7
163000
91003.5
112155
281188
293903
135467
138579
340783
409137
154211
230879
175805
302002
365949
211598
210025
1.91108e+06
222942
149075
276894
639137
193687
145893
197134
125923
283793
260135
383150
172960
257591
178675
109572
368117
252039
227012
216199
180775
180257
179699
418508
275840
240372
161074
243563
175087
252791
136345
370502
468950
283518
252069
163693
279650
219952
224881
347200
196634
174576
337530
535215
169942
472855
198693
141806
142504
199753
261637
154762
256970
104570
179383
201614
226295
219610
152639
468442
136339
189235
170830
563248
2.15362e+06
289599
163777
48492.1
42278.1
52625.8
101292
52317.9
70843.4
17679.6
48938.9
66295.2
42283
81716.9
102799
65181.1
98237.6
67817.2
117223
0
0
0
0
0
0
0
0
0
0
0
0
0
0
0
0
0
0
0
0
0
0
0
0
0
0
0
0
0
0
0
0
0
0
0
0
0
0
0
0
0
0
0
0
0
0
0
0
0
0
0
0
0
0
0
0
0
0
0
0
0
0
0
0
0
0
0
0
0
0
0
0
0
0
0
0
0
0
0
0
0
0
0
0
0
0
0
0
0
0
0
0
0
0
0
0
0
0
0
0
0
0
0
0
0
0
0
0
0
0
0
0
0
0
0
0
0
0
0
0
0
0
0
0
0
0
0
0
0
0
0
0
0
0
0
0
0
0
0
0
0
0
0
0
0
0
0
0
0
0
0
0
0
0
0
0
0
0
0
0
0
0
0
0
0
0
0
0
0
0
0
0
0
0
0
0
0
0
0
0
0
0
0
0
0
0
0
0
0
0
0
0
0
0
0
0
0
0
0
0
0
0
0
0
0
0
0
0
0
0
0
0
0
0
0
0
0
0
0
0
0
0
0
0
0
0
0
0
0
0
0
0
0
0
0
0
0
0
0
0
0
0
0
0
0
0
0
0
0
0
0
0
0
0
0
0
0
0
0
0
0
0
0
0
0
0
0
0
0
0
0
0
)
;

boundaryField
{
    inlet
    {
        type            zeroGradient;
    }
    outlet
    {
        type            zeroGradient;
    }
    wall
    {
        type            zeroGradient;
    }
    procBoundary3to1
    {
        type            processor;
        value           nonuniform List<scalar> 
192
(
236030
82741.7
61781.2
72094.3
249625
725684
4.83162e+07
193185
163305
162239
131971
9.48997e+06
6.50872e+06
197195
218838
350292
124031
9.06675e+06
107471
216645
321035
223734
259299
155704
98695.5
92221.6
16379.7
36948.1
233.926
0
0
0
0
0
0
0
0
0
0
0
0
0
0
0
0
0
0
0
0
0
0
0
0
0
0
0
0
0
0
0
0
0
0
0
0
0
0
0
0
0
0
0
0
0
0
0
0
0
0
0
0
0
0
0
0
0
0
0
0
0
0
0
0
0
0
0
211737
92018.3
85560.6
95785.8
260526
1.35658e+06
190948
393673
149670
177730
217976
102241
222108
355709
2.32162e+06
1.65721e+07
258183
180721
156046
98375.8
281347
179484
336125
228726
55606.1
44707.1
16342.3
17720.7
0
0
0
0
0
0
0
0
0
0
0
0
0
0
0
0
0
0
0
0
0
0
0
0
0
0
0
0
0
0
0
0
0
0
0
0
0
0
0
0
0
0
0
0
0
0
0
0
0
0
0
0
0
0
0
0
0
0
0
0
0
0
0
0
0
0
0
0
)
;
    }
    procBoundary3to2
    {
        type            processor;
        value           nonuniform List<scalar> 
192
(
125233
996188
66162.3
92881.3
4.22315e+07
168340
160912
397226
147280
171565
246581
319325
157502
204864
182960
5.56605e+06
149472
365197
124860
475427
1.8844e+06
193462
361111
4.63138e+06
65100.6
95198.8
67659.4
118992
0
0
0
0
0
0
0
0
0
0
0
0
0
0
0
0
0
0
0
0
0
0
0
0
0
0
0
0
0
0
0
0
0
0
0
0
0
0
0
0
0
0
0
0
0
0
0
0
0
0
0
0
0
0
0
0
0
0
0
0
0
0
0
0
0
0
0
0
136009
110845
110316
113154
702702
393014
222683
285965
127668
132885
335706
250381
159451
275118
301553
169502
206334
396121
179971
229841
794345
105137
4.96596e+06
97634.6
45008.6
79640.3
53998.9
19848.5
0
0
0
0
0
0
0
0
0
0
0
0
0
0
0
0
0
0
0
0
0
0
0
0
0
0
0
0
0
0
0
0
0
0
0
0
0
0
0
0
0
0
0
0
0
0
0
0
0
0
0
0
0
0
0
0
0
0
0
0
0
0
0
0
0
0
0
0
)
;
    }
}


// ************************************************************************* //
