/*--------------------------------*- C++ -*----------------------------------*\
| =========                 |                                                 |
| \\      /  F ield         | OpenFOAM: The Open Source CFD Toolbox           |
|  \\    /   O peration     | Version:  2506                                  |
|   \\  /    A nd           | Website:  www.openfoam.com                      |
|    \\/     M anipulation  |                                                 |
\*---------------------------------------------------------------------------*/
FoamFile
{
    version     2.0;
    format      ascii;
    arch        "LSB;label=32;scalar=64";
    class       volScalarField;
    location    "0.05";
    object      p;
}
// * * * * * * * * * * * * * * * * * * * * * * * * * * * * * * * * * * * * * //

dimensions      [0 2 -2 0 0 0 0];

internalField   nonuniform List<scalar> 
1152
(
15.0309
15.1409
14.9172
15.1511
15.1705
15.268
15.2493
15.2586
15.412
15.3071
15.3351
15.2872
15.3787
15.4227
15.2159
15.2016
13.5972
13.3841
13.0583
12.7886
13.9658
13.4749
13.3573
13.3269
13.3427
13.4695
13.4792
13.4426
13.3618
13.447
13.4268
13.3211
11.5453
10.9369
10.9406
10.595
10.831
10.7663
10.5879
10.494
10.6448
10.7399
10.4815
10.2961
10.5531
10.5024
10.6776
10.4218
7.89678
7.15509
7.51558
7.92377
7.6802
7.6457
7.24269
7.30611
7.61967
7.56396
7.38223
7.25282
7.41362
7.43805
7.4535
7.39328
3.96756
4.3851
4.4256
4.17656
4.30911
4.37951
4.38784
4.29947
4.69255
4.67347
4.49643
4.48911
4.43152
4.60004
4.49238
4.58774
2.14824
2.06822
1.79348
1.5238
1.93311
1.6574
1.49697
1.27714
1.79791
1.7384
1.62277
1.47932
1.9512
1.46576
1.82045
1.82957
0.995796
1.01088
0.998405
1.00964
1.01524
1.01382
1.01848
1.01381
1.0072
1.00742
1.01863
1.0192
1.00407
1.01852
1.01844
1.02145
1.00407
1.00276
1.00205
1.00065
1.00335
1.00335
1.0033
1.00241
1.00416
1.00442
1.00414
1.00357
1.00618
1.00581
1.00409
1.00427
1.00791
1.0077
1.00655
1.00583
1.00909
1.0088
1.00821
1.00714
1.00941
1.00915
1.00879
1.00821
1.00944
1.00977
1.00953
1.00921
1.00611
1.00563
1.00494
1.00423
1.00651
1.0061
1.0056
1.00495
1.00679
1.00643
1.00601
1.00552
1.00705
1.00684
1.00644
1.00604
1.00613
1.00573
1.00525
1.00473
1.00636
1.00601
1.0056
1.00514
1.00659
1.00628
1.00592
1.00554
1.00681
1.00656
1.00625
1.00592
1.00566
1.00535
1.00501
1.00466
1.0058
1.00552
1.00521
1.00489
1.00596
1.00571
1.00543
1.00514
1.00611
1.0059
1.00565
1.00539
1.00521
1.00499
1.00474
1.0045
1.00531
1.0051
1.00487
1.00465
1.00542
1.00523
1.00502
1.00481
1.00552
1.00535
1.00516
1.00498
1.00477
1.0046
1.00443
1.00426
1.00484
1.00468
1.00452
1.00435
1.00491
1.00476
1.00461
1.00446
1.00498
1.00485
1.00471
1.00457
1.00432
1.0042
1.00407
1.00396
1.00437
1.00425
1.00413
1.00402
1.00442
1.00431
1.0042
1.00409
1.00447
1.00437
1.00427
1.00416
1.00387
1.00378
1.00369
1.00361
1.0039
1.00382
1.00373
1.00365
1.00394
1.00386
1.00378
1.0037
1.00397
1.0039
1.00382
1.00375
1.00342
1.00335
1.00329
1.00323
1.00344
1.00338
1.00332
1.00326
1.00347
1.00341
1.00335
1.00329
1.00349
1.00344
1.00338
1.00333
1.00296
1.00292
1.00287
1.00283
1.00298
1.00294
1.00289
1.00285
1.003
1.00296
1.00291
1.00287
1.00302
1.00297
1.00293
1.0029
1.00251
1.00248
1.00244
1.00241
1.00252
1.00249
1.00246
1.00243
1.00253
1.0025
1.00247
1.00244
1.00255
1.00252
1.00249
1.00246
1.00205
1.00203
1.00201
1.00199
1.00206
1.00204
1.00202
1.002
1.00207
1.00205
1.00203
1.00201
1.00208
1.00206
1.00204
1.00202
1.0016
1.00158
1.00157
1.00155
1.0016
1.00159
1.00157
1.00156
1.00161
1.00159
1.00158
1.00157
1.00161
1.0016
1.00159
1.00157
1.00114
1.00113
1.00112
1.00111
1.00115
1.00114
1.00113
1.00112
1.00115
1.00114
1.00113
1.00112
1.00115
1.00114
1.00113
1.00113
1.00069
1.00068
1.00067
1.00067
1.00069
1.00068
1.00068
1.00067
1.00069
1.00068
1.00068
1.00067
1.00069
1.00069
1.00068
1.00068
1.00023
1.00023
1.00022
1.00022
1.00023
1.00023
1.00023
1.00022
1.00023
1.00023
1.00023
1.00022
1.00023
1.00023
1.00023
1.00023
15.3359
15.3877
15.1783
15.1472
15.3956
15.4038
15.2035
15.0813
15.2686
15.227
15.0767
14.9498
15.3307
15.2449
15.0855
14.9011
13.5557
13.369
13.5346
13.227
13.4028
13.1669
13.4091
13.0769
13.4767
13.3596
13.2136
13.2026
13.2508
13.1599
13.3302
13.1246
10.6375
10.2782
10.5843
10.3207
10.4879
10.3781
10.2939
10.2329
10.2428
10.435
10.4881
10.5329
10.8214
10.7047
10.5082
10.6138
7.14995
7.18855
7.37586
7.59638
6.77892
7.34186
7.4465
7.63969
6.81999
6.9892
7.4255
7.65742
7.06524
7.42359
7.50308
7.71115
4.03662
4.42914
4.38971
4.68292
4.09097
4.2589
4.55415
4.72289
3.95508
4.33203
4.44024
4.65498
4.05495
4.23505
4.34584
4.71244
1.83353
1.74197
1.70014
1.45153
1.41563
1.59862
1.6172
1.62822
1.49647
1.4662
1.60355
1.50469
1.3257
1.38298
1.51727
1.59174
1.01725
1.02202
1.0139
1.01603
1.03905
1.01585
1.01574
1.01546
1.0238
1.02596
1.02229
1.01514
1.01445
1.0192
1.02009
1.0198
1.00665
1.00626
1.00504
1.00459
1.00741
1.00622
1.00506
1.00462
1.00747
1.00738
1.00614
1.00502
1.00739
1.00715
1.00623
1.00521
1.0104
1.01054
1.01008
1.00967
1.01136
1.01091
1.01041
1.00978
1.01131
1.01146
1.01084
1.00993
1.01093
1.01133
1.01094
1.01016
1.00741
1.00722
1.00678
1.0063
1.00777
1.00747
1.00698
1.0064
1.00788
1.00775
1.0072
1.00649
1.00777
1.00773
1.00722
1.00649
1.00703
1.00682
1.00652
1.00623
1.00722
1.007
1.00665
1.00628
1.00734
1.00714
1.00676
1.00634
1.00737
1.00722
1.00685
1.00641
1.00625
1.00606
1.00581
1.00555
1.00638
1.00617
1.00589
1.00558
1.00646
1.00626
1.00596
1.00561
1.00648
1.0063
1.00599
1.00562
1.00562
1.00546
1.00527
1.00509
1.0057
1.00553
1.00533
1.00511
1.00576
1.00559
1.00537
1.00512
1.00578
1.00562
1.0054
1.00514
1.00505
1.00492
1.00478
1.00464
1.0051
1.00497
1.00481
1.00465
1.00514
1.005
1.00484
1.00466
1.00516
1.00503
1.00486
1.00467
1.00452
1.00442
1.00431
1.00421
1.00455
1.00445
1.00433
1.00421
1.00457
1.00447
1.00435
1.00422
1.00459
1.00449
1.00436
1.00422
1.00401
1.00393
1.00385
1.00378
1.00403
1.00395
1.00387
1.00378
1.00405
1.00397
1.00388
1.00378
1.00406
1.00398
1.00388
1.00378
1.00351
1.00346
1.0034
1.00335
1.00353
1.00347
1.00341
1.00335
1.00354
1.00348
1.00341
1.00335
1.00355
1.00349
1.00342
1.00335
1.00303
1.00299
1.00295
1.00291
1.00304
1.003
1.00295
1.00291
1.00305
1.003
1.00296
1.00291
1.00305
1.00301
1.00296
1.00291
1.00256
1.00253
1.0025
1.00247
1.00256
1.00253
1.0025
1.00247
1.00257
1.00254
1.0025
1.00247
1.00257
1.00254
1.0025
1.00247
1.00209
1.00206
1.00204
1.00202
1.00209
1.00207
1.00205
1.00202
1.00209
1.00207
1.00205
1.00202
1.0021
1.00207
1.00205
1.00202
1.00162
1.0016
1.00159
1.00158
1.00162
1.00161
1.00159
1.00158
1.00163
1.00161
1.00159
1.00158
1.00163
1.00161
1.00159
1.00158
1.00116
1.00115
1.00114
1.00113
1.00116
1.00115
1.00114
1.00113
1.00116
1.00115
1.00114
1.00113
1.00116
1.00115
1.00114
1.00113
1.00069
1.00069
1.00068
1.00068
1.00069
1.00069
1.00068
1.00068
1.00069
1.00069
1.00068
1.00068
1.00069
1.00069
1.00068
1.00068
1.00023
1.00023
1.00023
1.00023
1.00023
1.00023
1.00023
1.00023
1.00023
1.00023
1.00023
1.00023
1.00023
1.00023
1.00023
1.00023
15.0949
15.0195
14.889
14.7222
15.2263
15.0944
15.0284
15.0128
15.3157
15.1883
15.1126
15.0247
15.1554
15.1843
15.0487
14.9772
13.3482
13.3977
12.8396
12.6562
13.1825
12.9639
12.9478
12.9104
13.1474
13.0965
13.2165
13.1058
13.1797
13.3057
13.3152
13.2519
10.3103
9.97702
10.1156
9.95537
10.3032
10.1582
10.2105
9.89089
10.3269
10.0774
10.0388
9.93632
10.4118
10.3263
10.4722
10.582
7.27506
7.19662
7.2272
7.34997
7.55553
7.52113
7.24574
7.32888
7.43698
7.37384
7.4172
7.41906
7.51601
7.21651
7.38397
7.51225
4.21162
4.37223
4.21075
4.60391
4.18311
4.34892
4.32491
4.46148
4.57696
4.47395
4.52314
4.77805
4.61774
4.60288
4.58772
4.53232
1.53688
1.40651
1.5566
1.66909
1.38147
1.50791
1.29046
1.49291
1.39913
1.62532
1.69453
1.93651
1.82757
1.92383
1.82113
1.94402
1.01118
1.00302
0.999028
0.97775
1.00786
1.00587
1.0117
1.00605
1.00896
1.01831
1.01196
1.0162
1.01622
1.01401
1.01586
1.0162
0.998227
0.995068
0.99169
0.988654
1.00051
0.998934
0.998412
0.996568
1.00223
1.00169
1.00084
0.999999
1.0035
1.00332
1.00342
1.00327
1.00457
1.003
1.00159
1.00035
1.00587
1.00499
1.00444
1.00382
1.00733
1.00715
1.00685
1.00677
1.00865
1.00862
1.00862
1.00867
1.00346
1.00266
1.00198
1.00143
1.0042
1.00367
1.00329
1.00292
1.00496
1.00471
1.00449
1.00426
1.00561
1.00556
1.00552
1.00542
1.00422
1.00374
1.00336
1.00314
1.00469
1.00435
1.0041
1.00394
1.00521
1.00504
1.00491
1.00484
1.00572
1.00569
1.00567
1.00567
1.00431
1.00402
1.0038
1.00366
1.00459
1.00438
1.00421
1.0041
1.00491
1.00479
1.00469
1.00462
1.00521
1.00518
1.00515
1.00512
1.00427
1.00408
1.00394
1.00386
1.00445
1.0043
1.0042
1.00413
1.00465
1.00457
1.0045
1.00446
1.00486
1.00483
1.00481
1.0048
1.0041
1.00398
1.00388
1.00383
1.00422
1.00412
1.00405
1.004
1.00435
1.00429
1.00424
1.00421
1.00448
1.00446
1.00445
1.00444
1.00385
1.00376
1.0037
1.00367
1.00392
1.00385
1.00381
1.00378
1.00401
1.00397
1.00393
1.00391
1.0041
1.00408
1.00407
1.00406
1.00353
1.00347
1.00343
1.00341
1.00358
1.00354
1.0035
1.00348
1.00364
1.00361
1.00359
1.00357
1.0037
1.00369
1.00368
1.00367
1.00318
1.00314
1.00311
1.00309
1.00321
1.00318
1.00315
1.00314
1.00325
1.00323
1.00321
1.0032
1.00329
1.00328
1.00328
1.00327
1.00279
1.00276
1.00274
1.00273
1.00282
1.00279
1.00278
1.00277
1.00284
1.00283
1.00282
1.00281
1.00287
1.00287
1.00286
1.00286
1.00239
1.00237
1.00235
1.00235
1.0024
1.00239
1.00238
1.00237
1.00242
1.00241
1.0024
1.0024
1.00244
1.00244
1.00243
1.00243
1.00197
1.00196
1.00195
1.00194
1.00198
1.00197
1.00196
1.00196
1.00199
1.00198
1.00198
1.00198
1.00201
1.002
1.002
1.002
1.00154
1.00153
1.00152
1.00152
1.00155
1.00154
1.00153
1.00153
1.00156
1.00155
1.00155
1.00154
1.00157
1.00156
1.00156
1.00156
1.0011
1.0011
1.00109
1.00109
1.00111
1.0011
1.0011
1.0011
1.00111
1.00111
1.00111
1.00111
1.00112
1.00112
1.00112
1.00112
1.00066
1.00066
1.00066
1.00066
1.00067
1.00066
1.00066
1.00066
1.00067
1.00067
1.00067
1.00067
1.00067
1.00067
1.00067
1.00067
1.00022
1.00022
1.00022
1.00022
1.00022
1.00022
1.00022
1.00022
1.00022
1.00022
1.00022
1.00022
1.00022
1.00022
1.00022
1.00022
)
;

boundaryField
{
    inlet
    {
        type            zeroGradient;
    }
    outlet
    {
        type            fixedValue;
        value           uniform 1;
    }
    wall
    {
        type            zeroGradient;
    }
    procBoundary3to1
    {
        type            processor;
        value           nonuniform List<scalar> 
192
(
15.2597
15.0369
14.6193
14.8681
13.5132
13.6537
13.6592
13.1189
10.9445
11.0765
12.1275
11.0619
7.65637
7.60532
7.68973
7.38323
4.7601
4.69386
4.44639
4.21277
2.13691
1.79893
1.39453
1.43044
1.00593
1.00285
1.0212
1.0124
1.00303
1.00176
1.00258
0.999964
1.00772
1.00747
1.00693
1.0055
1.00593
1.00543
1.00481
1.00397
1.00599
1.00556
1.00507
1.00452
1.00555
1.00523
1.00487
1.0045
1.00514
1.0049
1.00465
1.00439
1.00471
1.00454
1.00436
1.00419
1.00428
1.00416
1.00403
1.00391
1.00384
1.00375
1.00366
1.00357
1.0034
1.00333
1.00327
1.00321
1.00295
1.0029
1.00286
1.00281
1.0025
1.00247
1.00243
1.0024
1.00205
1.00202
1.002
1.00198
1.00159
1.00158
1.00156
1.00155
1.00114
1.00113
1.00112
1.00111
1.00068
1.00068
1.00067
1.00067
1.00023
1.00023
1.00022
1.00022
15.1317
14.9971
14.8424
14.789
12.8337
13.1903
12.9974
12.4393
10.2191
10.048
9.8826
9.37068
7.48386
7.20709
6.83742
7.23163
4.37026
4.298
4.46105
4.78351
1.44611
1.40441
1.15435
1.28867
1.00487
1.00062
0.987112
0.975226
0.996627
0.992687
0.988923
0.98629
1.00369
1.00192
1.00044
1.00011
1.003
1.00214
1.00148
1.00116
1.00393
1.0034
1.00301
1.00284
1.00413
1.00381
1.00357
1.00345
1.00415
1.00394
1.00379
1.00372
1.00402
1.00389
1.00379
1.00374
1.00379
1.0037
1.00364
1.0036
1.0035
1.00343
1.00339
1.00337
1.00315
1.00311
1.00308
1.00306
1.00278
1.00275
1.00273
1.00271
1.00238
1.00236
1.00234
1.00233
1.00196
1.00195
1.00194
1.00193
1.00154
1.00153
1.00152
1.00152
1.0011
1.0011
1.00109
1.00109
1.00066
1.00066
1.00066
1.00066
1.00022
1.00022
1.00022
1.00022
)
;
    }
    procBoundary3to2
    {
        type            processor;
        value           nonuniform List<scalar> 
192
(
15.0413
15.3709
15.3258
15.4093
13.0128
13.4343
13.7209
13.7047
11.5094
10.9793
10.7133
10.5364
8.00199
7.92062
7.5531
7.64666
5.07418
4.81925
4.76307
4.59976
1.86662
1.8755
1.94618
1.5323
1.01756
1.01301
1.02051
1.01746
1.00393
1.00422
1.00502
1.00579
1.00947
1.00953
1.01027
1.01037
1.00676
1.0069
1.0072
1.00739
1.00653
1.00669
1.00689
1.00706
1.00594
1.00606
1.00619
1.00631
1.00542
1.0055
1.0056
1.00568
1.00492
1.00498
1.00505
1.00511
1.00444
1.00448
1.00452
1.00456
1.00396
1.00398
1.00402
1.00405
1.00348
1.0035
1.00352
1.00354
1.00301
1.00303
1.00304
1.00306
1.00254
1.00255
1.00256
1.00257
1.00208
1.00209
1.00209
1.0021
1.00161
1.00162
1.00162
1.00163
1.00115
1.00116
1.00116
1.00116
1.00069
1.00069
1.00069
1.0007
1.00023
1.00023
1.00023
1.00023
15.4483
15.4292
15.3553
15.3745
13.1376
13.1882
13.5062
13.4449
10.3182
10.3324
10.3049
10.0513
7.62044
7.60909
7.01473
7.0366
4.58829
3.91864
4.06067
3.77147
1.46802
1.57401
1.28635
1.29314
1.01934
1.0094
1.00116
1.01092
1.00636
1.00664
1.00776
1.00788
1.01087
1.01109
1.01175
1.01154
1.00763
1.00775
1.00788
1.00786
1.00727
1.00743
1.00756
1.00761
1.00646
1.00657
1.00665
1.00668
1.00578
1.00586
1.00591
1.00594
1.00517
1.00523
1.00526
1.00528
1.00461
1.00464
1.00467
1.00468
1.00408
1.0041
1.00412
1.00413
1.00357
1.00358
1.00359
1.0036
1.00307
1.00308
1.00309
1.00309
1.00258
1.00259
1.0026
1.0026
1.00211
1.00211
1.00212
1.00212
1.00163
1.00164
1.00164
1.00164
1.00116
1.00117
1.00117
1.00117
1.0007
1.0007
1.0007
1.0007
1.00023
1.00023
1.00023
1.00023
)
;
    }
}


// ************************************************************************* //
