/*--------------------------------*- C++ -*----------------------------------*\
| =========                 |                                                 |
| \\      /  F ield         | OpenFOAM: The Open Source CFD Toolbox           |
|  \\    /   O peration     | Version:  2506                                  |
|   \\  /    A nd           | Website:  www.openfoam.com                      |
|    \\/     M anipulation  |                                                 |
\*---------------------------------------------------------------------------*/
FoamFile
{
    version     2.0;
    format      ascii;
    arch        "LSB;label=32;scalar=64";
    class       volVectorField;
    location    "0.05";
    object      U;
}
// * * * * * * * * * * * * * * * * * * * * * * * * * * * * * * * * * * * * * //

dimensions      [0 1 -1 0 0 0 0];

internalField   nonuniform List<vector> 
1152
(
(-0.00416254 0.00283592 0.0360214)
(0.000201818 -0.0016485 0.0092188)
(-0.000172446 -0.00614713 0.0138663)
(-0.000511317 -0.00111255 0.00445246)
(0.0035666 -0.0133373 0.0310009)
(-0.000618232 -0.00175306 0.0122126)
(-0.000148334 -0.00466254 0.0158404)
(0.000273751 -0.00170888 0.0157506)
(0.000171049 -0.000794194 0.00408616)
(0.00111948 -0.00204289 0.0161286)
(0.000223119 0.000101565 0.0148081)
(-9.15379e-05 0.000340875 0.0176882)
(-9.48524e-05 0.000436203 0.0131114)
(0.00137087 -0.000792213 0.0121565)
(0.0017982 0.00133529 0.0116253)
(0.000907388 0.00197326 0.0201205)
(-0.00664087 -0.00707365 0.0370089)
(0.00171198 0.000526165 0.0125491)
(0.0057936 0.00258604 0.0309424)
(-0.0016533 -0.00143798 0.0187084)
(0.000117197 0.000850238 0.0133341)
(0.00348081 -0.00010102 0.0185527)
(0.000411066 -0.00172549 0.0137202)
(0.000895703 -0.0038197 0.0193548)
(0.000152298 -0.000234259 0.00120798)
(-0.00101618 0.000136869 0.0331852)
(0.000191936 -0.000130951 0.0145489)
(0.00171376 -0.000400764 0.0147775)
(0.00237119 -0.00236919 0.0320129)
(-5.40849e-05 5.10826e-05 0.0131487)
(0.00168024 -0.00104069 0.0443499)
(-5.86625e-05 -0.000250645 0.000930925)
(0.00138506 -0.000394771 0.0146903)
(0.00228372 0.000673619 0.0204192)
(0.00060046 0.00208574 0.0070333)
(0.00903637 0.00682813 0.052487)
(0.000639088 0.00295657 0.0168677)
(0.00140978 0.000303757 0.0267534)
(0.00138007 0.00177496 0.0241858)
(0.000862947 0.000344921 0.0130554)
(0.000362593 0.00119372 0.0228605)
(0.000438155 0.000988051 0.0263644)
(0.0016389 -0.000616146 0.0187485)
(0.000856195 -4.44061e-05 0.0239558)
(0.000542503 -0.000328842 0.0231081)
(-0.000494584 0.00169105 0.0174765)
(0.000100624 -0.000130157 0.0161905)
(0.00253778 -0.000397709 0.0421084)
(0.00149046 -0.000459963 0.0113715)
(0.00108068 -0.000212607 0.0169681)
(-0.00688958 0.00352741 0.0420397)
(0.000512754 -5.01183e-05 0.0129379)
(0.00137057 0.00112425 0.0293341)
(0.0019315 -0.00195863 0.0211633)
(0.00101155 0.000181532 0.0169713)
(-0.00141903 0.00265964 0.0197172)
(-0.000281309 0.00103199 0.0236153)
(0.000856244 0.000744954 0.0245783)
(0.0014599 -0.00171538 0.022594)
(-0.000483886 -0.000660943 0.0282984)
(0.00153404 0.00342046 0.0368983)
(-0.000334046 0.00134555 0.0190761)
(0.000266159 -8.61416e-05 0.0380872)
(-0.000723585 -0.00287938 0.0313721)
(-9.50905e-05 -5.2864e-05 0.00132621)
(-0.0061784 0.0040301 0.0503692)
(-0.000239903 -9.65625e-05 0.00236637)
(0.000712703 -0.000542556 0.0240675)
(0.00193293 -0.00337123 0.0202754)
(-0.000262144 -0.000774943 0.0108028)
(0.00049736 -0.000645451 0.0440009)
(0.000884166 -0.00173362 0.0248315)
(0.000147882 -0.000427698 0.0164462)
(0.00104974 -0.0014052 0.0269444)
(0.000669336 -0.000368665 0.0193285)
(-0.000815949 -0.0026648 0.0391657)
(-2.14269e-05 0.00413621 0.0267172)
(-0.0003517 0.000783344 0.0144257)
(-0.000184178 0.00023466 0.0112637)
(-0.00159075 -0.00271514 0.0479239)
(-0.00339663 0.00297714 0.0349879)
(0.00194806 0.000840876 0.016157)
(0.00383124 -0.00072948 0.0204126)
(0.00131563 0.00102493 0.0158155)
(0.00254601 0.00406918 0.0289064)
(0.00268331 0.00220353 0.0172698)
(0.00101102 0.000693758 0.00963712)
(0.000313871 0.000314544 0.013036)
(0.00035614 0.000176631 0.00846608)
(0.000284868 0.000625924 0.00826591)
(0.00119888 -0.00155088 0.014182)
(0.00122344 -0.00303793 0.0154751)
(0.000614118 -0.000154262 0.0283127)
(4.42949e-05 0.000101066 0.00467041)
(-0.0037454 -0.000491313 0.0266462)
(-9.67526e-05 0.000846605 0.0176319)
(-2.47693e-05 -4.73625e-05 0.00227349)
(0.00059752 -0.000431387 0.0161563)
(-0.000197243 0.000417884 0.00488926)
(-0.00071683 1.58739e-05 0.013321)
(-0.000642933 -0.00075579 0.0145436)
(-0.000526599 0.000171072 0.0191568)
(-0.000280709 -0.000692369 0.0235909)
(0.000570142 -0.000500067 0.0207673)
(-3.05652e-06 0.00035526 0.0131979)
(-0.000703622 0.000314063 0.0105663)
(-0.000413627 0.00014744 0.0135235)
(0.000477219 -0.000210074 0.0245634)
(-0.000371092 0.000385629 0.00227905)
(-0.000807491 -0.000681682 0.0158946)
(-8.67317e-06 -0.004945 0.00286059)
(2.68026e-05 0.000383871 0.0203326)
(0.000101532 -0.000174362 0.0140993)
(-0.000291188 -0.000371368 0.020856)
(-0.00111809 0.000905113 0.0132199)
(-0.000960561 0.00018646 0.0202124)
(-0.000557293 0.000157517 0.0265732)
(-0.00121867 -7.1228e-05 0.0266532)
(-0.001368 7.90441e-05 0.0258974)
(-0.00039969 -0.000134343 0.0236865)
(-0.000133737 -0.000658531 0.0193866)
(-0.000739671 -0.000192749 0.0178207)
(-0.00135523 0.00132079 0.0229223)
(-0.000752829 0.000982467 0.0267787)
(-0.000420299 -0.000321943 0.00733973)
(0.000787027 -0.000319922 0.0177619)
(-0.000264397 -2.93025e-05 0.0210636)
(-0.0010744 0.000443755 0.0271624)
(0.000331754 -0.00049599 0.00555725)
(-0.000269039 -0.000178936 0.00547425)
(-0.000388882 0.000219227 0.00494031)
(-0.00105378 -0.000110515 0.00559911)
(-0.000656105 -0.000212054 0.00595492)
(-0.000722532 5.67873e-05 0.00625087)
(-0.000541864 -0.000694123 0.0065083)
(-0.000216719 -0.000803488 0.00662205)
(6.34141e-05 0.00102152 0.00440567)
(-0.000927521 0.000748596 0.00437827)
(-0.00145542 0.000425639 0.00543823)
(-0.000878502 -0.00031384 0.00677587)
(-0.00024343 -0.000233786 0.00296251)
(-0.00133663 -0.000365726 0.00391256)
(-0.00161006 -0.000166154 0.00418577)
(-0.00100473 -0.000181189 0.00602992)
(2.6267e-05 3.78396e-05 0.0126095)
(-0.00018903 6.10723e-05 0.0128657)
(-0.000248884 9.55627e-05 0.0124859)
(-0.000474205 -4.32278e-05 0.012783)
(-0.000331714 0.000116971 0.0129644)
(-0.000419963 0.000170136 0.0132341)
(-0.0003997 -8.7726e-05 0.0132755)
(-0.000248272 -0.000166328 0.0132786)
(-0.000109629 0.000419718 0.0123305)
(-0.00047844 0.000411471 0.012506)
(-0.000688322 0.000363751 0.0129338)
(-0.000410629 0.00017236 0.0134362)
(-0.000147003 -0.000147355 0.0116147)
(-0.0005 -9.13242e-05 0.0121901)
(-0.000635557 9.31885e-05 0.0126356)
(-0.000267343 0.000201107 0.0132697)
(-3.43743e-05 5.06638e-05 0.0107011)
(-0.000104199 3.60173e-05 0.0108038)
(-0.000128617 1.1058e-05 0.0107175)
(-0.000202586 -4.23209e-05 0.0108112)
(-0.000148298 5.44449e-05 0.0107327)
(-0.000198215 5.87124e-05 0.0108642)
(-0.000204173 -3.43448e-05 0.0109226)
(-0.00016563 -8.01618e-05 0.0109596)
(-7.98776e-05 0.00010029 0.0105027)
(-0.000224788 0.00011279 0.0105997)
(-0.000307146 8.96294e-05 0.0107412)
(-0.000235208 1.89341e-05 0.0108957)
(-6.35402e-05 -0.000141241 0.010298)
(-0.000218011 -0.000102788 0.0104515)
(-0.000293201 -4.95075e-05 0.0105518)
(-0.000205085 -5.74147e-05 0.0106837)
(-2.85254e-05 2.81188e-05 0.0111765)
(-5.358e-05 1.82864e-05 0.0112202)
(-6.51174e-05 4.52284e-06 0.0112027)
(-8.97691e-05 -8.30269e-06 0.0112342)
(-6.12767e-05 1.86017e-05 0.0111737)
(-8.17711e-05 2.12907e-05 0.0112315)
(-8.4342e-05 1.56131e-06 0.0112606)
(-7.34718e-05 -1.14584e-06 0.0112824)
(-3.52501e-05 7.99773e-06 0.0111062)
(-7.9342e-05 2.7252e-05 0.0111527)
(-9.78677e-05 3.95579e-05 0.0112033)
(-6.74369e-05 4.48114e-05 0.0112549)
(-1.04084e-05 -9.75186e-05 0.011056)
(-5.1415e-05 -6.38982e-05 0.0111072)
(-6.13987e-05 -2.14296e-05 0.0111403)
(-1.69471e-05 1.24441e-05 0.0111771)
(-1.54132e-05 1.04647e-05 0.0111906)
(-2.65348e-05 6.08311e-06 0.0112086)
(-3.32423e-05 1.27765e-06 0.011207)
(-4.22425e-05 -1.97297e-07 0.0112152)
(-2.34247e-05 3.1332e-07 0.0111836)
(-3.32279e-05 2.76739e-06 0.011207)
(-3.63909e-05 1.3582e-06 0.0112162)
(-3.50862e-05 4.79571e-06 0.0112191)
(-1.18126e-05 -1.57947e-05 0.0111621)
(-2.6394e-05 -3.03261e-06 0.0111782)
(-3.25455e-05 8.31945e-06 0.0111865)
(-2.44958e-05 1.81682e-05 0.0111865)
(4.62024e-06 -6.05426e-05 0.0111477)
(-7.57363e-06 -4.27881e-05 0.0111561)
(-1.09971e-05 -2.23003e-05 0.0111456)
(-1.27081e-07 -5.82962e-06 0.0111222)
(-6.37166e-06 2.175e-06 0.0112106)
(-1.18983e-05 1.1088e-06 0.0112172)
(-1.61761e-05 2.75303e-07 0.0112172)
(-2.01772e-05 1.70568e-06 0.0112146)
(-7.35171e-06 -5.0244e-06 0.0112062)
(-1.22499e-05 -2.48601e-06 0.0112143)
(-1.49515e-05 -1.06549e-08 0.0112154)
(-1.5823e-05 4.34369e-06 0.0112095)
(-1.40091e-06 -1.58167e-05 0.0111982)
(-6.56208e-06 -8.39788e-06 0.0112021)
(-8.92555e-06 -2.53251e-07 0.0111988)
(-7.20704e-06 8.09786e-06 0.0111859)
(7.73518e-06 -3.51331e-05 0.0111908)
(4.55782e-06 -2.60879e-05 0.0111876)
(3.89595e-06 -1.46781e-05 0.011172)
(6.84193e-06 -4.58732e-06 0.0111425)
(-1.7891e-06 -9.59051e-07 0.0112242)
(-5.01126e-06 -8.19559e-07 0.0112258)
(-7.67683e-06 -4.0595e-07 0.0112237)
(-9.89062e-06 1.16387e-06 0.0112157)
(-1.28676e-06 -5.49467e-06 0.0112215)
(-4.04312e-06 -3.50103e-06 0.0112229)
(-6.0295e-06 -1.1466e-06 0.0112197)
(-7.20962e-06 2.01207e-06 0.0112085)
(1.88059e-06 -1.15221e-05 0.0112168)
(-3.39181e-07 -7.44844e-06 0.0112151)
(-1.79635e-06 -2.61598e-06 0.0112072)
(-2.01527e-06 2.46015e-06 0.0111886)
(6.6263e-06 -2.01143e-05 0.0112084)
(5.59319e-06 -1.56605e-05 0.0112016)
(5.06072e-06 -9.81974e-06 0.0111845)
(5.11898e-06 -4.37269e-06 0.0111521)
(1.95855e-07 -1.78517e-06 0.011232)
(-1.74688e-06 -1.39024e-06 0.0112315)
(-3.39748e-06 -7.79805e-07 0.0112277)
(-4.69237e-06 3.61643e-07 0.011217)
(7.94633e-07 -4.45304e-06 0.0112301)
(-8.02162e-07 -3.13664e-06 0.0112289)
(-2.1236e-06 -1.51816e-06 0.0112235)
(-3.04984e-06 4.56834e-07 0.0112098)
(2.49151e-06 -7.66359e-06 0.0112258)
(1.34687e-06 -5.43026e-06 0.0112223)
(3.8416e-07 -2.72128e-06 0.0112125)
(-1.35855e-07 1.24135e-07 0.011192)
(4.92592e-06 -1.15733e-05 0.0112158)
(4.4942e-06 -9.35281e-06 0.0112083)
(3.98663e-06 -6.41436e-06 0.0111911)
(3.48507e-06 -3.46408e-06 0.0111587)
(9.03499e-07 -1.75509e-06 0.0112364)
(-2.88234e-07 -1.40848e-06 0.011235)
(-1.29469e-06 -9.1337e-07 0.0112301)
(-2.07564e-06 -1.72185e-07 0.011218)
(1.33858e-06 -3.2902e-06 0.0112348)
(3.84417e-07 -2.4812e-06 0.0112325)
(-4.58704e-07 -1.47701e-06 0.011226)
(-1.07338e-06 -3.09832e-07 0.011211)
(2.24191e-06 -4.95122e-06 0.0112302)
(1.59087e-06 -3.73759e-06 0.011226)
(9.52496e-07 -2.24967e-06 0.0112156)
(5.2304e-07 -7.01838e-07 0.0111943)
(3.48688e-06 -6.74459e-06 0.0112188)
(3.25711e-06 -5.62168e-06 0.0112113)
(2.83822e-06 -4.17988e-06 0.0111944)
(2.34412e-06 -2.60945e-06 0.0111621)
(1.02461e-06 -1.47194e-06 0.0112389)
(3.10804e-07 -1.21916e-06 0.0112371)
(-3.06592e-07 -8.77867e-07 0.0112317)
(-7.94194e-07 -4.14203e-07 0.0112188)
(1.30692e-06 -2.32585e-06 0.0112373)
(7.38296e-07 -1.84966e-06 0.0112347)
(2.08622e-07 -1.25334e-06 0.0112277)
(-1.81225e-07 -5.77826e-07 0.011212)
(1.78719e-06 -3.16979e-06 0.0112323)
(1.40737e-06 -2.51567e-06 0.011228)
(9.91459e-07 -1.70107e-06 0.0112174)
(7.01083e-07 -8.62296e-07 0.0111958)
(2.42912e-06 -3.99538e-06 0.0112201)
(2.29131e-06 -3.45776e-06 0.0112129)
(1.98711e-06 -2.73489e-06 0.0111962)
(1.61872e-06 -1.89197e-06 0.0111641)
(8.87092e-07 -1.16716e-06 0.0112403)
(5.03157e-07 -9.85364e-07 0.0112383)
(1.10053e-07 -7.58144e-07 0.0112326)
(-1.97225e-07 -4.7217e-07 0.0112194)
(1.0748e-06 -1.58589e-06 0.0112386)
(7.50559e-07 -1.32559e-06 0.0112359)
(4.15214e-07 -9.83332e-07 0.0112287)
(1.72626e-07 -5.97894e-07 0.0112127)
(1.33541e-06 -2.01947e-06 0.0112334)
(1.11283e-06 -1.67258e-06 0.0112291)
(8.44034e-07 -1.23081e-06 0.0112184)
(6.63951e-07 -7.78045e-07 0.0111967)
(1.67616e-06 -2.40357e-06 0.0112207)
(1.58241e-06 -2.15593e-06 0.0112136)
(1.37136e-06 -1.79998e-06 0.0111971)
(1.12153e-06 -1.34653e-06 0.0111651)
(6.72956e-07 -8.93314e-07 0.0112412)
(4.98418e-07 -7.61802e-07 0.011239)
(2.44582e-07 -6.10021e-07 0.0112332)
(4.95507e-08 -4.35188e-07 0.0112198)
(8.04525e-07 -1.05325e-06 0.0112394)
(6.30243e-07 -9.22205e-07 0.0112366)
(4.1838e-07 -7.3264e-07 0.0112293)
(2.69877e-07 -5.16216e-07 0.0112132)
(9.51173e-07 -1.27679e-06 0.011234)
(8.19868e-07 -1.09921e-06 0.0112296)
(6.49787e-07 -8.6387e-07 0.011219)
(5.4568e-07 -6.2162e-07 0.0111972)
(1.13049e-06 -1.45879e-06 0.011221)
(1.06627e-06 -1.35333e-06 0.011214)
(9.27225e-07 -1.18377e-06 0.0111976)
(7.70818e-07 -9.38759e-07 0.0111657)
(4.79561e-07 -6.48147e-07 0.0112416)
(4.06246e-07 -5.56696e-07 0.0112395)
(2.48213e-07 -4.59167e-07 0.0112336)
(1.26767e-07 -3.51712e-07 0.0112201)
(5.69137e-07 -6.88345e-07 0.0112398)
(4.75622e-07 -6.23074e-07 0.0112369)
(3.45716e-07 -5.20053e-07 0.0112296)
(2.57596e-07 -3.99562e-07 0.0112135)
(6.52675e-07 -7.96525e-07 0.0112342)
(5.73388e-07 -7.07925e-07 0.0112299)
(4.6899e-07 -5.84096e-07 0.0112193)
(4.13069e-07 -4.56502e-07 0.0111975)
(7.4647e-07 -8.79328e-07 0.011221)
(7.00802e-07 -8.42245e-07 0.0112141)
(6.13323e-07 -7.6508e-07 0.0111978)
(5.22069e-07 -6.32617e-07 0.011166)
(3.43621e-07 -4.24746e-07 0.0112418)
(3.04166e-07 -3.66325e-07 0.0112397)
(2.12348e-07 -3.07085e-07 0.0112338)
(1.39066e-07 -2.43455e-07 0.0112203)
(3.99342e-07 -4.30259e-07 0.0112399)
(3.44853e-07 -3.9395e-07 0.0112371)
(2.67667e-07 -3.37035e-07 0.0112298)
(2.15858e-07 -2.707e-07 0.0112137)
(4.45321e-07 -4.74807e-07 0.0112343)
(3.95937e-07 -4.30422e-07 0.0112301)
(3.32815e-07 -3.66241e-07 0.0112194)
(3.02396e-07 -3.00524e-07 0.0111977)
(4.92456e-07 -5.084e-07 0.011221)
(4.60484e-07 -5.00118e-07 0.0112142)
(4.05894e-07 -4.6786e-07 0.0111979)
(3.53558e-07 -3.98309e-07 0.0111662)
(2.94714e-07 -2.21603e-07 0.0112419)
(2.64701e-07 -1.90183e-07 0.0112398)
(2.12463e-07 -1.58726e-07 0.0112339)
(1.64657e-07 -1.2507e-07 0.0112204)
(3.22961e-07 -2.2679e-07 0.01124)
(2.88564e-07 -2.06633e-07 0.0112372)
(2.42272e-07 -1.77505e-07 0.0112299)
(2.05849e-07 -1.43767e-07 0.0112138)
(3.441e-07 -2.42292e-07 0.0112344)
(3.12825e-07 -2.22549e-07 0.0112301)
(2.73073e-07 -1.9329e-07 0.0112195)
(2.49321e-07 -1.63275e-07 0.0111978)
(3.62801e-07 -2.55868e-07 0.011221)
(3.41215e-07 -2.59265e-07 0.0112142)
(3.05304e-07 -2.49708e-07 0.011198)
(2.70458e-07 -2.17571e-07 0.0111663)
(3.9054e-07 -9.54208e-08 0.011242)
(3.66669e-07 -8.59602e-08 0.0112399)
(3.28277e-07 -7.50878e-08 0.011234)
(2.80339e-07 -6.23968e-08 0.0112205)
(3.96368e-07 -1.05972e-07 0.01124)
(3.74036e-07 -1.02043e-07 0.0112373)
(3.37654e-07 -9.46198e-08 0.01123)
(2.93484e-07 -8.54223e-08 0.0112139)
(3.96741e-07 -1.13741e-07 0.0112344)
(3.7729e-07 -1.14107e-07 0.0112302)
(3.42967e-07 -1.10811e-07 0.0112196)
(3.03684e-07 -1.07543e-07 0.0111979)
(3.93313e-07 -1.20092e-07 0.011221)
(3.78737e-07 -1.32809e-07 0.0112142)
(3.45323e-07 -1.40678e-07 0.0111981)
(3.01705e-07 -1.38918e-07 0.0111664)
(0.0009486 -0.000770506 0.022492)
(0.00120001 -0.000400161 0.0134626)
(0.00532564 -0.00147045 0.0259628)
(0.000661853 0.00167016 0.0166977)
(0.000369521 0.000405684 0.00953137)
(0.00101251 0.000679504 0.00916133)
(0.00392745 0.000253349 0.0169132)
(0.00156231 0.00281566 0.0156828)
(0.00192348 0.000827629 0.0225814)
(0.0024038 0.00157578 0.0192294)
(0.00322244 0.000614693 0.0181545)
(0.00291126 0.00400055 0.0225139)
(-9.02372e-05 -1.24099e-05 0.00238056)
(0.000707994 -0.000320442 0.00859324)
(0.0028357 -0.00136077 0.0177666)
(0.00152574 0.000325499 0.0167396)
(-0.00118325 -0.000517664 0.0251842)
(0.000219588 0.000838962 0.0132024)
(0.000799178 -0.000430783 0.024929)
(0.00282574 0.000525055 0.0233103)
(0.000235987 0.000112311 0.0277003)
(0.00030316 0.00018198 0.0210946)
(0.000210213 0.000327984 0.0044331)
(0.000962481 -0.000203137 0.0166294)
(0.000981188 0.000552044 0.0201384)
(0.00166862 -0.000247495 0.0245713)
(0.00117678 0.000339286 0.0309903)
(-0.000586566 -0.000449956 0.0293065)
(0.00284647 0.00260944 0.0416266)
(0.000185805 0.00194264 0.0311893)
(-0.00045915 -0.000553789 0.0151661)
(0.00134674 0.00074171 0.0361777)
(0.000276123 -3.02616e-05 0.011721)
(8.17428e-05 0.000327244 0.0260208)
(-2.67807e-05 0.00192312 0.0203501)
(3.07736e-05 -0.000343029 0.000841303)
(-5.54363e-06 0.000344949 0.00709629)
(0.00120803 -0.00180514 0.0333437)
(0.000431213 -0.000260588 0.020026)
(-0.00157591 -0.00328645 0.0438904)
(-0.000715209 -0.00192511 0.0254837)
(-0.000647766 -0.000882511 0.0128189)
(-0.00163044 -0.00249217 0.0430259)
(-0.00124524 -0.0025393 0.0196795)
(-0.00144088 -0.00170275 0.0140897)
(0.00111038 -0.00197469 0.0301655)
(0.000424928 -0.000384757 0.0213294)
(-0.00120709 -0.000726594 0.0386717)
(0.00088262 0.00191481 0.0133531)
(-0.00210419 0.000837809 0.0345154)
(-0.00123764 0.000166512 0.0130051)
(-0.00101017 -0.00111853 0.018704)
(0.00123695 0.00151165 0.0227886)
(-0.00214271 0.00116824 0.01878)
(-0.0016879 -2.39285e-05 0.0283198)
(6.98714e-05 -0.0021858 0.0341622)
(-0.000350691 -0.00224918 0.03777)
(-0.00293328 -5.57433e-06 0.0294121)
(-0.00297448 0.000427625 0.0244337)
(-0.000643483 -0.000740055 0.0171921)
(-0.00244417 -0.000966075 0.0270399)
(-0.00182035 -0.00156416 0.0211751)
(-0.001193 2.99192e-05 0.0212741)
(-0.000842294 -0.000533433 0.032662)
(0.000828564 0.00208189 0.0222362)
(-0.00370692 0.00412382 0.0406626)
(-0.00144809 0.000100672 0.0217218)
(-0.000667836 -0.000351565 0.0093092)
(-0.00247545 0.000902392 0.0392272)
(-0.00117274 0.000673362 0.0131905)
(-0.00168302 0.000332575 0.0189844)
(-0.000379223 0.000224711 0.0284288)
(8.10387e-05 -0.000172122 0.00121698)
(-0.0031667 0.00109891 0.043673)
(-0.00139684 0.00313341 0.0434558)
(-0.000469389 8.78948e-05 0.0164078)
(-0.00150044 -0.000366854 0.0168484)
(-0.000859079 0.000813638 0.0200452)
(-0.00125795 0.00109523 0.019325)
(-0.0016274 -0.000138503 0.0347987)
(-0.00379926 0.00861959 0.0353111)
(0.000487887 -0.000420073 0.0112378)
(0.00158847 0.000636746 0.0162183)
(-0.00012217 0.000286374 0.00352168)
(-0.000142354 0.000246931 0.00139796)
(-0.00110312 0.00247251 0.0182797)
(3.59036e-05 0.000644222 0.0105003)
(-0.000982383 0.000617294 0.0163374)
(-0.00111358 0.000947171 0.021638)
(-6.91111e-05 0.0014764 0.0146165)
(-3.57569e-05 0.00084299 0.0169074)
(-0.000490823 0.000713821 0.0111038)
(-0.000265129 0.000812202 0.0109813)
(-0.000596594 0.000683331 0.0145672)
(-0.000912881 0.00116925 0.0183945)
(-0.00150595 0.000431144 0.0139105)
(8.6043e-05 -2.31577e-05 0.00464174)
(4.53107e-05 0.000322778 0.0177059)
(0.000609059 1.67944e-05 0.012815)
(0.000318064 -0.000192738 0.0116012)
(-0.000217714 0.000323559 0.0144423)
(-1.93077e-05 6.87179e-05 0.00903046)
(0.000992035 -0.00115143 0.0090069)
(-0.00170614 -0.00198328 0.0135764)
(-0.00110548 0.00199881 0.0228941)
(-0.000287731 6.90244e-05 0.0258811)
(-0.000117714 9.10658e-05 0.0209624)
(-0.000186512 -9.66884e-05 0.0152631)
(-0.00040036 0.00072637 0.0117013)
(-0.000334266 0.000317903 0.0145913)
(-0.000201243 0.000126112 0.0159082)
(-0.00110643 -0.00114885 0.018815)
(-0.000409429 0.000160735 0.0159543)
(0.000584485 0.000467807 0.0209809)
(-0.000118807 -0.000185 0.0197183)
(-0.000766243 0.000101582 0.0224223)
(-0.00065888 3.32992e-05 0.0321881)
(0.000768828 -0.000549676 0.0207221)
(-0.000341126 -0.000621297 0.0215349)
(-0.000766219 -0.000205811 0.0214978)
(-0.00228691 0.000616287 0.028389)
(0.000162949 -0.000652471 0.026901)
(0.000122674 -0.000741273 0.0256663)
(-0.000229886 -0.000345975 0.0215962)
(-0.000254507 0.000248809 0.0178237)
(0.000331759 0.00011907 0.0203503)
(0.000228797 -8.59537e-05 0.0230752)
(4.0045e-05 -0.000260455 0.0239076)
(0.000193768 -0.00222856 0.00412364)
(-0.000623257 -0.000968676 0.00447661)
(-0.000974324 -0.000580728 0.00431171)
(-0.000771082 -0.000271974 0.00508362)
(0.000968471 -0.00186062 0.00708772)
(0.000273312 -0.00122026 0.00508379)
(-0.000631169 -0.0008424 0.00468178)
(-0.000549441 -0.000449235 0.00471814)
(0.0018533 0.000345916 0.00704914)
(0.000403463 -0.000369153 0.00641253)
(-0.00010229 -0.00050439 0.00552525)
(-0.000317886 -0.000556968 0.00469144)
(0.00191159 0.000563334 0.00530617)
(8.53268e-05 0.00030514 0.00527573)
(-0.00019941 8.84319e-05 0.00514987)
(-0.000127009 -0.000277018 0.00487633)
(3.61663e-05 -0.000939243 0.0124179)
(-0.000172699 -0.000537234 0.0126524)
(-0.000259998 -0.000259814 0.0127405)
(-0.000110841 -1.1489e-05 0.0130076)
(0.000278931 -0.000851332 0.0138228)
(0.000201461 -0.00065556 0.0131444)
(4.66902e-06 -0.000421356 0.0129494)
(4.38791e-05 -0.000142042 0.0128686)
(0.000536535 4.99412e-07 0.0140599)
(0.000362659 -0.000215537 0.0135874)
(0.000319845 -0.000240944 0.0131402)
(0.000225226 -0.00016488 0.0127716)
(0.000765164 0.000154805 0.0131523)
(0.000335556 3.79192e-05 0.0130448)
(0.000349951 -9.41583e-05 0.0129131)
(0.000280475 -0.000182864 0.0127268)
(2.35307e-05 -0.000428132 0.0105583)
(-0.000104222 -0.000282014 0.0105972)
(-0.000176844 -0.000145863 0.0105366)
(-0.000102952 -9.76432e-05 0.0105036)
(0.000142974 -0.000407304 0.0109917)
(4.99655e-05 -0.000306951 0.0107753)
(-4.72459e-05 -0.000174905 0.0105469)
(-2.0743e-05 -0.000101947 0.0103586)
(0.000275315 -0.000142269 0.0110635)
(0.000142468 -0.00018628 0.0108778)
(7.31657e-05 -0.000154065 0.0105192)
(3.98869e-05 -0.000136552 0.0102003)
(0.000366503 -2.02879e-05 0.0107085)
(0.000158854 -6.98334e-05 0.0106054)
(0.000124521 -9.80479e-05 0.0103098)
(9.31401e-05 -0.000127441 0.0100225)
(3.70681e-05 -0.000208051 0.0111524)
(8.27148e-06 -0.000144854 0.0111643)
(7.31344e-06 -7.38366e-05 0.0111415)
(3.55309e-05 -2.70185e-05 0.0111328)
(9.35838e-05 -0.000197438 0.0112799)
(7.83326e-05 -0.00015338 0.0112117)
(7.26325e-05 -8.8376e-05 0.0111166)
(7.37915e-05 -4.07412e-05 0.0110563)
(0.000153007 -8.46155e-05 0.0112802)
(0.000129799 -9.40726e-05 0.0112006)
(0.000132029 -7.39691e-05 0.0110522)
(0.000104636 -5.13174e-05 0.0109541)
(0.000194467 -1.95157e-05 0.0111255)
(0.000148779 -5.00255e-05 0.011075)
(0.000156686 -7.24829e-05 0.010934)
(0.000113754 -7.40471e-05 0.010841)
(2.67153e-05 -9.98834e-05 0.0111756)
(1.82396e-05 -7.41027e-05 0.0111624)
(1.77607e-05 -4.03274e-05 0.0111209)
(2.634e-05 -2.13733e-05 0.0110653)
(5.29985e-05 -9.60867e-05 0.0111974)
(4.77294e-05 -7.73395e-05 0.0111516)
(4.63292e-05 -4.50116e-05 0.01107)
(4.21853e-05 -2.70071e-05 0.010989)
(7.83216e-05 -5.46955e-05 0.0111522)
(7.11768e-05 -5.68302e-05 0.0110943)
(7.00449e-05 -4.37297e-05 0.0109838)
(5.15108e-05 -3.51646e-05 0.0108859)
(9.61439e-05 -1.90838e-05 0.0110136)
(8.29522e-05 -3.48588e-05 0.0109632)
(8.24438e-05 -4.4252e-05 0.0108485)
(5.65595e-05 -4.42626e-05 0.010755)
(1.81762e-05 -4.95653e-05 0.0111887)
(1.70962e-05 -3.84198e-05 0.0111743)
(1.79144e-05 -2.1873e-05 0.0111421)
(1.9627e-05 -1.12725e-05 0.011095)
(2.98794e-05 -4.69925e-05 0.0111673)
(2.97786e-05 -3.91604e-05 0.011139)
(3.09589e-05 -2.41873e-05 0.0110866)
(2.70217e-05 -1.45957e-05 0.0110286)
(4.11364e-05 -3.03018e-05 0.0111007)
(4.06573e-05 -3.06576e-05 0.0110651)
(4.16501e-05 -2.34347e-05 0.0109987)
(3.10827e-05 -1.79947e-05 0.0109363)
(4.93762e-05 -1.21419e-05 0.0109729)
(4.79981e-05 -2.04967e-05 0.0109403)
(4.82406e-05 -2.53067e-05 0.0108726)
(3.30194e-05 -2.39846e-05 0.0108169)
(1.15381e-05 -2.5661e-05 0.0111927)
(1.16512e-05 -2.03253e-05 0.0111788)
(1.17455e-05 -1.23725e-05 0.0111497)
(1.12942e-05 -6.98439e-06 0.0111044)
(1.68406e-05 -2.38339e-05 0.0111543)
(1.74047e-05 -2.05546e-05 0.0111327)
(1.75796e-05 -1.35242e-05 0.0110916)
(1.45817e-05 -8.76129e-06 0.0110399)
(2.18115e-05 -1.60292e-05 0.011077)
(2.24125e-05 -1.65591e-05 0.0110509)
(2.2606e-05 -1.28887e-05 0.0110021)
(1.6145e-05 -1.03033e-05 0.0109499)
(2.58813e-05 -6.80063e-06 0.0109489)
(2.65346e-05 -1.13961e-05 0.0109241)
(2.59325e-05 -1.37675e-05 0.0108759)
(1.716e-05 -1.31152e-05 0.0108313)
(7.26718e-06 -1.36686e-05 0.0111937)
(7.45125e-06 -1.10634e-05 0.011181)
(7.2735e-06 -7.14617e-06 0.0111543)
(6.53339e-06 -4.34564e-06 0.0111109)
(9.66807e-06 -1.25785e-05 0.0111481)
(1.01894e-05 -1.10532e-05 0.0111299)
(1.00045e-05 -7.76655e-06 0.011095)
(8.10662e-06 -5.31839e-06 0.0110475)
(1.19498e-05 -8.62855e-06 0.0110656)
(1.26667e-05 -9.03524e-06 0.0110446)
(1.24439e-05 -7.28439e-06 0.0110051)
(8.90607e-06 -5.82261e-06 0.0109587)
(1.39877e-05 -3.7431e-06 0.0109358)
(1.49471e-05 -6.44211e-06 0.0109162)
(1.43587e-05 -7.75716e-06 0.010879)
(9.56893e-06 -7.33714e-06 0.0108414)
(4.63595e-06 -7.48739e-06 0.0111937)
(4.70621e-06 -6.2085e-06 0.0111817)
(4.44075e-06 -4.23467e-06 0.0111566)
(3.84488e-06 -2.79876e-06 0.0111141)
(5.69369e-06 -6.81338e-06 0.0111447)
(6.02297e-06 -6.15752e-06 0.0111284)
(5.76981e-06 -4.5995e-06 0.0110966)
(4.629e-06 -3.38306e-06 0.0110511)
(6.78198e-06 -4.74706e-06 0.0110598)
(7.30734e-06 -4.92276e-06 0.0110412)
(6.98938e-06 -4.19665e-06 0.0110064)
(5.05111e-06 -3.47428e-06 0.0109628)
(7.91526e-06 -2.13311e-06 0.0109288)
(8.63934e-06 -3.61385e-06 0.0109119)
(8.06735e-06 -4.4365e-06 0.0108804)
(5.50236e-06 -4.29102e-06 0.0108458)
(2.9735e-06 -4.20499e-06 0.0111934)
(3.0077e-06 -3.55042e-06 0.011182)
(2.79608e-06 -2.56935e-06 0.0111577)
(2.35822e-06 -1.82744e-06 0.0111159)
(3.46567e-06 -3.77802e-06 0.0111428)
(3.64421e-06 -3.49578e-06 0.0111276)
(3.40997e-06 -2.78187e-06 0.0110974)
(2.75957e-06 -2.19986e-06 0.0110531)
(3.98917e-06 -2.63334e-06 0.0110566)
(4.31722e-06 -2.75487e-06 0.0110395)
(4.05647e-06 -2.47055e-06 0.0110071)
(2.99616e-06 -2.14222e-06 0.0109649)
(4.65799e-06 -1.21817e-06 0.010925)
(5.11203e-06 -2.07151e-06 0.0109096)
(4.68699e-06 -2.60832e-06 0.010881)
(3.30312e-06 -2.61114e-06 0.0108481)
(1.92436e-06 -2.41183e-06 0.0111932)
(1.93461e-06 -2.07891e-06 0.0111822)
(1.7814e-06 -1.58645e-06 0.0111583)
(1.4844e-06 -1.20284e-06 0.0111168)
(2.14588e-06 -2.14234e-06 0.0111418)
(2.23661e-06 -2.03259e-06 0.0111272)
(2.06141e-06 -1.71702e-06 0.0110978)
(1.69822e-06 -1.45217e-06 0.011054)
(2.4092e-06 -1.48245e-06 0.0110549)
(2.60019e-06 -1.57684e-06 0.0110386)
(2.41469e-06 -1.48281e-06 0.0110074)
(1.83733e-06 -1.35439e-06 0.010966)
(2.82679e-06 -6.99872e-07 0.0109229)
(3.08747e-06 -1.2209e-06 0.0109083)
(2.80091e-06 -1.5733e-06 0.0108813)
(2.04857e-06 -1.63844e-06 0.0108492)
(1.24886e-06 -1.40548e-06 0.011193)
(1.23859e-06 -1.2369e-06 0.0111822)
(1.13658e-06 -9.86573e-07 0.0111586)
(9.46705e-07 -7.87185e-07 0.0111173)
(1.33581e-06 -1.23299e-06 0.0111411)
(1.37808e-06 -1.20347e-06 0.0111269)
(1.26281e-06 -1.07186e-06 0.011098)
(1.06618e-06 -9.60447e-07 0.0110546)
(1.47476e-06 -8.54314e-07 0.0110539)
(1.5775e-06 -9.2058e-07 0.0110381)
(1.46213e-06 -9.00894e-07 0.0110075)
(1.15219e-06 -8.64865e-07 0.0109665)
(1.74984e-06 -4.16793e-07 0.0109217)
(1.888e-06 -7.36279e-07 0.0109076)
(1.70931e-06 -9.67025e-07 0.0108814)
(1.298e-06 -1.04599e-06 0.0108498)
(7.97764e-07 -8.21103e-07 0.0111928)
(7.82663e-07 -7.35061e-07 0.0111822)
(7.20699e-07 -6.07312e-07 0.0111587)
(6.03973e-07 -5.0429e-07 0.0111176)
(8.35612e-07 -7.16119e-07 0.0111407)
(8.46524e-07 -7.1554e-07 0.0111267)
(7.75365e-07 -6.66592e-07 0.0110981)
(6.71766e-07 -6.26706e-07 0.0110548)
(9.10158e-07 -4.97683e-07 0.0110533)
(9.57071e-07 -5.44128e-07 0.0110378)
(8.89302e-07 -5.48674e-07 0.0110076)
(7.25313e-07 -5.49612e-07 0.0109668)
(1.087e-06 -2.50852e-07 0.010921)
(1.15671e-06 -4.50411e-07 0.0109072)
(1.0505e-06 -5.98355e-07 0.0108814)
(8.24203e-07 -6.67573e-07 0.0108501)
(5.13204e-07 -4.62475e-07 0.0111926)
(4.96971e-07 -4.20566e-07 0.0111821)
(4.58941e-07 -3.57505e-07 0.0111588)
(3.8712e-07 -3.06914e-07 0.0111177)
(5.27019e-07 -4.04071e-07 0.0111404)
(5.22992e-07 -4.14266e-07 0.0111265)
(4.7868e-07 -4.01231e-07 0.0110981)
(4.22009e-07 -3.92376e-07 0.011055)
(5.65976e-07 -2.83389e-07 0.0110529)
(5.81331e-07 -3.1741e-07 0.0110376)
(5.40138e-07 -3.29454e-07 0.0110076)
(4.51269e-07 -3.40914e-07 0.010967)
(6.72565e-07 -1.48222e-07 0.0109205)
(7.03217e-07 -2.72622e-07 0.010907)
(6.39583e-07 -3.66004e-07 0.0108814)
(5.13307e-07 -4.16846e-07 0.0108503)
(3.66513e-07 -2.30662e-07 0.0111925)
(3.52709e-07 -2.1688e-07 0.0111821)
(3.26293e-07 -1.9244e-07 0.0111588)
(2.76609e-07 -1.71799e-07 0.0111178)
(3.65774e-07 -2.05942e-07 0.0111402)
(3.56702e-07 -2.23027e-07 0.0111265)
(3.25909e-07 -2.28033e-07 0.0110981)
(2.85415e-07 -2.31027e-07 0.011055)
(3.79978e-07 -1.49835e-07 0.0110527)
(3.79234e-07 -1.79665e-07 0.0110374)
(3.4923e-07 -1.96605e-07 0.0110076)
(2.91698e-07 -2.08183e-07 0.010967)
(4.34651e-07 -8.45176e-08 0.0109203)
(4.40962e-07 -1.63539e-07 0.0109069)
(3.9778e-07 -2.2321e-07 0.0108814)
(3.18982e-07 -2.55156e-07 0.0108504)
(3.82631e-07 -1.12005e-07 0.0111925)
(3.7056e-07 -1.23632e-07 0.0111821)
(3.40545e-07 -1.30238e-07 0.0111589)
(2.91216e-07 -1.35422e-07 0.0111179)
(3.68997e-07 -1.03677e-07 0.0111402)
(3.57192e-07 -1.32624e-07 0.0111264)
(3.2283e-07 -1.52969e-07 0.0110981)
(2.75862e-07 -1.67264e-07 0.0110551)
(3.61306e-07 -8.18729e-08 0.0110526)
(3.51017e-07 -1.21375e-07 0.0110374)
(3.13857e-07 -1.49819e-07 0.0110076)
(2.55748e-07 -1.65631e-07 0.0109671)
(3.71258e-07 -5.34012e-08 0.0109202)
(3.61045e-07 -1.1703e-07 0.0109068)
(3.15116e-07 -1.65171e-07 0.0108814)
(2.45861e-07 -1.90279e-07 0.0108505)
(0.00317597 -0.00142523 0.0217644)
(0.00475982 -0.00148947 0.0216695)
(0.00255399 -0.000871434 0.0109849)
(0.0021319 -0.00172651 0.0174743)
(0.002317 -0.00202787 0.0144412)
(0.00400985 -0.00199328 0.0236306)
(0.00139851 -0.00179312 0.0129573)
(0.000503054 -0.00219935 0.0147524)
(0.000158022 -0.000114605 0.0045216)
(0.00291985 -0.000536048 0.0173485)
(0.00227726 0.000497855 0.017701)
(0.00119267 0.000627487 0.0198533)
(-0.00146033 0.00253834 0.028274)
(0.00057399 0.000967411 0.0103658)
(0.00276151 0.00340427 0.0187217)
(0.000368785 0.00149188 0.0164227)
(-0.00249095 -0.00154964 0.0142691)
(0.00190564 0.000616046 0.0140068)
(0.00799612 0.000664466 0.0365862)
(0.0022399 -0.00401395 0.0353808)
(0.00108834 0.00038861 0.0120075)
(0.000565697 0.000734339 0.0106507)
(0.00122242 -0.0024731 0.0311936)
(0.000606502 -0.00167302 0.0202335)
(0.00280332 -0.000205187 0.0260466)
(3.20169e-05 -0.00110945 0.014295)
(0.00015326 -0.000891314 0.0114968)
(0.00118795 -0.00104874 0.0218257)
(-0.000260438 -0.00114557 0.021259)