/*--------------------------------*- C++ -*----------------------------------*\
| =========                 |                                                 |
| \\      /  F ield         | OpenFOAM: The Open Source CFD Toolbox           |
|  \\    /   O peration     | Version:  2506                                  |
|   \\  /    A nd           | Website:  www.openfoam.com                      |
|    \\/     M anipulation  |                                                 |
\*---------------------------------------------------------------------------*/
FoamFile
{
    version     2.0;
    format      ascii;
    arch        "LSB;label=32;scalar=64";
    class       volVectorField;
    location    "0.05";
    object      Us;
}
// * * * * * * * * * * * * * * * * * * * * * * * * * * * * * * * * * * * * * //

dimensions      [0 1 -1 0 0 0 0];

internalField   nonuniform List<vector> 
1152
(
(-2.16393e-05 0.000211467 0.000249464)
(-0.000528381 -0.000140896 0.000168433)
(-0.000135908 -0.00022122 3.31113e-05)
(-8.73014e-05 -0.000159407 3.21927e-05)
(-7.85239e-05 -0.000134843 0.000334948)
(5.52062e-05 -0.000231992 9.32846e-05)
(-0.00031853 -0.000235868 0.000274707)
(-0.000186333 -0.000252298 0.000129062)
(0.000112698 -0.000281694 0.000227287)
(0.000185839 -0.000219669 0.000178205)
(-5.57562e-05 -0.000261255 0.000304067)
(-0.000500442 -0.000377799 8.9881e-06)
(-4.54994e-05 -0.000155406 0.000164337)
(1.3503e-06 -0.000140274 0.00014011)
(-0.000143086 -3.81958e-06 0.0001524)
(-0.000260425 -0.000195215 0.000200084)
(-0.000115219 -0.000684153 0.00105523)
(-0.000242402 -0.000114585 0.000802072)
(-9.17757e-05 -0.000334823 0.000935777)
(-0.0001901 -0.000364819 0.000105224)
(0.000257571 -6.73588e-05 0.000725468)
(0.000260723 0.000392888 0.000543832)
(-0.000157867 -0.000163113 0.000629408)
(-0.000108108 -0.000365428 0.000449508)
(0.000129267 -0.00028956 0.000878996)
(0.000200687 -6.04424e-05 0.000791255)
(7.72694e-05 0.000138805 0.000692072)
(0.000257837 -0.000413749 0.000186447)
(9.55922e-05 -0.000524912 0.000878442)
(0.000148717 -0.000290003 0.000729895)
(-4.49104e-05 -0.000151461 0.000712073)
(-0.000103108 -0.000287539 0.000374864)
(-0.000391835 -0.000713471 0.00182967)
(-0.00024068 -0.00053354 0.00140401)
(8.8457e-05 -0.000171902 0.000854108)
(0.000292132 -0.000671786 0.000959887)
(-8.8216e-05 2.0693e-05 0.00153052)
(-3.88437e-05 -0.000762751 0.00183866)
(-4.76936e-05 -0.000478239 0.000859148)
(5.14427e-05 -0.000458393 0.000760694)
(0.000455661 -0.000216403 0.00113928)
(-0.000525591 -0.000499918 0.00104862)
(-0.000110334 -0.000250062 0.000838738)
(6.78947e-05 -0.000362848 0.00064645)
(0.000345642 -0.000353369 0.000604055)
(-4.74538e-05 -3.73175e-05 0.000830409)
(-0.000181053 0.00018254 0.00110829)
(5.83435e-06 -0.000385941 0.000797708)
(-2.2937e-05 -0.000414975 0.00126734)
(-0.00014528 -6.80007e-05 0.00139045)
(-0.000432342 -0.000126738 0.000825824)
(-8.65059e-05 -0.000242278 0.00100576)
(-0.000264016 -0.000464365 0.00113677)
(9.60169e-05 -0.000245479 0.00127959)
(-0.000171731 -0.000265339 0.000815285)
(-0.000132247 -2.33214e-05 0.000968945)
(-0.000255004 -0.000318976 0.000997185)
(-0.00040939 -0.00032208 0.000814267)
(-3.75089e-05 -0.000696455 0.00118444)
(-2.80451e-05 -7.45972e-05 0.000852898)
(-0.000129428 -0.000230719 0.00104612)
(-0.000180384 -0.000246834 0.000682663)
(-0.000122067 -0.000187136 0.000931196)
(-8.96173e-05 -9.12811e-05 0.00105605)
(-0.000165433 -9.92507e-05 0.000883231)
(-0.00023542 7.99622e-06 0.0010194)
(-0.00029909 -0.00011361 0.00114073)
(-0.000297921 -0.00013489 0.00107417)
(-3.89658e-05 -0.000142127 0.00106454)
(-8.97347e-05 -0.000137047 0.000863142)
(-0.000293505 0.000100322 0.000881076)
(-0.00021704 -8.51287e-05 0.000880191)
(-0.000178553 8.45486e-06 0.000808397)
(-0.000137616 -6.8478e-05 0.000756616)
(-0.000120495 8.65124e-05 0.000899402)
(-1.73341e-05 -0.00011037 0.000888065)
(-3.02993e-05 2.26219e-05 0.000951497)
(-0.000167974 2.01418e-05 0.000825124)
(-0.00021464 -5.26525e-05 0.00104722)
(-0.000127262 -0.000239322 0.0010059)
(-0.000334624 -0.000229872 0.000815989)
(-0.000174891 -6.37405e-06 0.00105248)
(-0.000259561 3.56689e-05 0.00113461)
(-0.00027031 7.98704e-05 0.00110404)
(8.37138e-05 3.25676e-05 0.00083324)
(-0.000146113 7.62354e-05 0.00093262)
(-0.000282798 0.000115829 0.00104422)
(-0.000233126 9.73036e-05 0.00100806)
(-0.000221265 0.000224343 0.000790928)
(-0.000187994 0.000115742 0.000916169)
(-0.000111098 7.50221e-05 0.00105899)
(-7.90611e-05 3.46347e-05 0.000942141)
(-9.29887e-05 0.000202687 0.000965859)
(-0.000134168 0.00011929 0.000994515)
(-0.000195332 0.000119291 0.0010789)
(-5.44763e-05 1.63722e-05 0.00088457)
(-3.27757e-05 -3.61777e-05 0.00104587)
(0.00068937 -0.00021974 0.000973135)
(-0.000201379 0.000408272 0.00109558)
(-0.000278594 1.69294e-05 0.00108136)
(-0.000705888 -0.000599158 0.000172847)
(-0.000508036 5.75483e-05 0.00106151)
(-0.00032956 0.000414639 0.00111454)
(-0.000169634 0.000120131 0.00093146)
(-0.000274231 0.000135722 0.000885885)
(-0.000246802 0.000599911 0.00121146)
(-0.000117264 0.000162065 0.00118851)
(-9.51678e-05 0.000222907 0.000892831)
(-0.000368272 0.000407918 0.00102193)
(-0.000208829 7.7085e-06 0.00025584)
(2.54512e-05 -0.0050574 -0.00498262)
(-6.61828e-05 0.000286131 0.000745383)
(0 0 0)
(0 0 0)
(0 0 0)
(0 0 0)
(0 0 0)
(0 0 0)
(0 0 0)
(0 0 0)
(0 0 0)
(0 0 0)
(0 0 0)
(0 0 0)
(0 0 0)
(0 0 0)
(0 0 0)
(0 0 0)
(0 0 0)
(0 0 0)
(0 0 0)
(0 0 0)
(0 0 0)
(0 0 0)
(0 0 0)
(0 0 0)
(0 0 0)
(0 0 0)
(0 0 0)
(0 0 0)
(0 0 0)
(0 0 0)
(0 0 0)
(0 0 0)
(0 0 0)
(0 0 0)
(0 0 0)
(0 0 0)
(0 0 0)
(0 0 0)
(0 0 0)
(0 0 0)
(0 0 0)
(0 0 0)
(0 0 0)
(0 0 0)
(0 0 0)
(0 0 0)
(0 0 0)
(0 0 0)
(0 0 0)
(0 0 0)
(0 0 0)
(0 0 0)
(0 0 0)
(0 0 0)
(0 0 0)
(0 0 0)
(0 0 0)
(0 0 0)
(0 0 0)
(0 0 0)
(0 0 0)
(0 0 0)
(0 0 0)
(0 0 0)
(0 0 0)
(0 0 0)
(0 0 0)
(0 0 0)
(0 0 0)
(0 0 0)
(0 0 0)
(0 0 0)
(0 0 0)
(0 0 0)
(0 0 0)
(0 0 0)
(0 0 0)
(0 0 0)
(0 0 0)
(0 0 0)
(0 0 0)
(0 0 0)
(0 0 0)
(0 0 0)
(0 0 0)
(0 0 0)
(0 0 0)
(0 0 0)
(0 0 0)
(0 0 0)
(0 0 0)
(0 0 0)
(0 0 0)
(0 0 0)
(0 0 0)
(0 0 0)
(0 0 0)
(0 0 0)
(0 0 0)
(0 0 0)
(0 0 0)
(0 0 0)
(0 0 0)
(0 0 0)
(0 0 0)
(0 0 0)
(0 0 0)
(0 0 0)
(0 0 0)
(0 0 0)
(0 0 0)
(0 0 0)
(0 0 0)
(0 0 0)
(0 0 0)
(0 0 0)
(0 0 0)
(0 0 0)
(0 0 0)
(0 0 0)
(0 0 0)
(0 0 0)
(0 0 0)
(0 0 0)
(0 0 0)
(0 0 0)
(0 0 0)
(0 0 0)
(0 0 0)
(0 0 0)
(0 0 0)
(0 0 0)
(0 0 0)
(0 0 0)
(0 0 0)
(0 0 0)
(0 0 0)
(0 0 0)
(0 0 0)
(0 0 0)
(0 0 0)
(0 0 0)
(0 0 0)
(0 0 0)
(0 0 0)
(0 0 0)
(0 0 0)
(0 0 0)
(0 0 0)
(0 0 0)
(0 0 0)
(0 0 0)
(0 0 0)
(0 0 0)
(0 0 0)
(0 0 0)
(0 0 0)
(0 0 0)
(0 0 0)
(0 0 0)
(0 0 0)
(0 0 0)
(0 0 0)
(0 0 0)
(0 0 0)
(0 0 0)
(0 0 0)
(0 0 0)
(0 0 0)
(0 0 0)
(0 0 0)
(0 0 0)
(0 0 0)
(0 0 0)
(0 0 0)
(0 0 0)
(0 0 0)
(0 0 0)
(0 0 0)
(0 0 0)
(0 0 0)
(0 0 0)
(0 0 0)
(0 0 0)
(0 0 0)
(0 0 0)
(0 0 0)
(0 0 0)
(0 0 0)
(0 0 0)
(0 0 0)
(0 0 0)
(0 0 0)
(0 0 0)
(0 0 0)
(0 0 0)
(0 0 0)
(0 0 0)
(0 0 0)
(0 0 0)
(0 0 0)
(0 0 0)
(0 0 0)
(0 0 0)
(0 0 0)
(0 0 0)
(0 0 0)
(0 0 0)
(0 0 0)
(0 0 0)
(0 0 0)
(0 0 0)
(0 0 0)
(0 0 0)
(0 0 0)
(0 0 0)
(0 0 0)
(0 0 0)
(0 0 0)
(0 0 0)
(0 0 0)
(0 0 0)
(0 0 0)
(0 0 0)
(0 0 0)
(0 0 0)
(0 0 0)
(0 0 0)
(0 0 0)
(0 0 0)
(0 0 0)
(0 0 0)
(0 0 0)
(0 0 0)
(0 0 0)
(0 0 0)
(0 0 0)
(0 0 0)
(0 0 0)
(0 0 0)
(0 0 0)
(0 0 0)
(0 0 0)
(0 0 0)
(0 0 0)
(0 0 0)
(0 0 0)
(0 0 0)
(0 0 0)
(0 0 0)
(0 0 0)
(0 0 0)
(0 0 0)
(0 0 0)
(0 0 0)
(0 0 0)
(0 0 0)
(0 0 0)
(0 0 0)
(0 0 0)
(0 0 0)
(0 0 0)
(0 0 0)
(0 0 0)
(0 0 0)
(0 0 0)
(0 0 0)
(0 0 0)
(0 0 0)
(0 0 0)
(0 0 0)
(0 0 0)
(-0.000186471 -0.000463438 -0.000169598)
(-6.84356e-05 -7.80837e-05 2.38017e-05)
(0.00016322 0.000211982 -0.000184887)
(-7.29367e-05 -0.000152337 7.71248e-05)
(0.000160296 -6.33528e-05 8.60246e-05)
(4.54272e-06 -9.18423e-06 0.000112463)
(1.04481e-05 -1.76087e-06 9.15824e-05)
(-0.000157807 -0.000151552 7.94434e-05)
(0.000179362 -7.16515e-05 0.000211521)
(3.13586e-05 -7.97271e-05 0.000145023)
(8.84058e-05 -4.40127e-06 0.000183474)
(-0.000106691 0.000128609 0.000146363)
(-0.000210612 8.05241e-05 0.000135809)
(-0.000156988 -1.4747e-05 2.93816e-05)
(-6.55232e-05 3.02422e-05 0.000195954)
(-0.000146396 7.89886e-05 0.000282048)
(0.000318907 -0.00018608 0.000422499)
(1.45137e-05 -0.000256136 0.000227587)
(-0.000170369 -9.8338e-05 9.92783e-05)
(0.000161102 -0.000485429 0.000224939)
(0.000115879 -0.000201757 0.000403443)
(0.00031345 4.6834e-05 0.000528704)
(6.27654e-05 -1.84983e-05 0.000434045)
(0.000387744 -0.000235246 0.00048659)
(0.000326401 -0.000238507 0.000438765)
(0.000253143 -7.02239e-05 0.000671549)
(-1.22889e-05 -2.72135e-05 0.000580376)
(-0.000165097 -0.000279754 -1.1669e-05)
(0.000241772 5.16862e-05 0.00061766)
(8.66672e-05 -7.15499e-05 0.000468934)
(-0.00025734 9.99612e-05 0.00065043)
(-0.000293469 -8.9083e-06 0.000534624)
(0.000192314 -9.91996e-05 0.000527105)
(-0.000293885 -0.000440465 0.000942824)
(3.62512e-05 7.98291e-06 0.000660661)
(1.71463e-05 -0.000353022 0.000606298)
(2.14164e-05 -0.000175952 0.00045212)
(0.000143908 -0.000297894 0.000879592)
(-1.42685e-05 -0.000489665 0.000849734)
(0.000155152 -0.000202097 0.000703167)
(-8.4003e-05 -0.000190702 0.000597412)
(-9.49332e-06 -0.000111746 0.0013112)
(-0.000279014 -0.000398811 0.00124596)
(-0.000112287 -0.000167746 0.000727959)
(-2.58069e-05 -3.62316e-05 0.000706698)
(0.000159759 0.000240555 0.000892948)
(0.000111755 -0.000231915 0.000994496)
(-0.000176126 3.7464e-05 0.000469206)
(-0.000142627 0.000356465 0.00144549)
(-0.000443298 -0.000143994 0.00137366)
(-0.000234721 -0.00022445 0.00103571)
(-0.000218639 -6.21199e-05 0.000867463)
(0.000102974 -0.000243003 0.000770433)
(-0.000164772 -0.000106381 0.00081533)
(-0.000210305 -0.000317281 0.00131344)
(-0.000338924 -0.00023449 0.000916045)
(-0.000383825 -5.96286e-05 0.00113938)
(1.70506e-05 -2.22442e-05 0.00132492)
(-0.000321792 -0.000179216 0.000804248)
(-0.000297876 -0.000231855 0.000801238)
(-0.00103729 8.34332e-05 0.00100948)
(-0.000158463 3.90478e-05 0.00113815)
(-0.000269217 4.54112e-05 0.000524914)
(-0.000209817 4.79574e-05 0.000457317)
(-1.07774e-05 0.000117669 0.00113082)
(-0.000574257 0.000214461 0.00130661)
(-0.000258895 5.79964e-06 0.00112355)
(-0.000170196 -0.00024076 0.000939239)
(0.000102587 -4.88363e-05 0.00098691)
(-0.000118142 0.000132593 0.000996756)
(-0.000162496 -5.43956e-05 0.000855112)
(-0.000106238 -8.41375e-05 0.000829743)
(9.27647e-05 -0.000176167 0.000980931)
(0.000355144 0.000121884 0.000956204)
(-9.58517e-05 -0.000152809 0.00111522)
(-7.91422e-06 -0.000141542 0.00068263)
(-0.000295434 -7.29064e-05 0.000609138)
(-0.000130684 0.00022433 0.000330697)
(-0.000258597 9.74175e-05 0.000627759)
(-9.66831e-05 -9.7306e-06 0.0005251)
(-2.81904e-05 0.00036096 0.000894112)
(-8.09782e-05 0.000113229 0.000947193)
(-5.9512e-05 -1.91213e-05 0.000817726)
(-5.34697e-05 2.21965e-05 0.000842778)
(-0.000140696 0.000183619 0.000978231)
(-0.000179418 0.000146241 0.000796845)
(5.06078e-05 0.000164346 0.000144026)
(-9.64947e-05 0.000101194 0.000726418)
(8.0313e-05 3.21528e-05 0.000795574)
(9.70805e-05 6.44364e-05 0.000783258)
(-7.05099e-05 0.000116653 0.000528416)
(-0.000176253 8.81629e-05 0.000588488)
(-4.60825e-05 1.73133e-05 0.000304581)
(8.34511e-06 4.31717e-06 0.000484463)
(-0.000238102 0.00013051 0.00050336)
(-0.000210262 8.97296e-05 0.000378747)
(0.000105831 0.000162893 0.000962241)
(-9.93734e-05 0.000307747 0.00049605)
(0.000395595 1.00438e-05 -0.00223682)
(0.00057422 -0.000608837 0.000337905)
(6.09271e-06 0.000583208 0.000892964)
(-0.000566593 0.000232062 -0.00075494)
(0.001113 -0.000894653 -0.00569334)
(-0.00185999 -0.0020939 -0.000146099)
(-0.00012933 0.000362526 0.00054189)
(-0.000362721 0.000201226 0.000696842)
(-0.000430345 0.000492497 0.000177686)
(-0.000191547 0.00021309 0.000419637)
(-0.000170165 0.000372528 0.000210882)
(-0.000261591 -5.37683e-05 0.000461376)
(-0.000234976 3.9535e-05 0.000237276)
(-0.00112186 -0.00094139 8.79522e-05)
(0 0 0)
(0 0 0)
(0 0 0)
(0 0 0)
(0 0 0)
(0 0 0)
(0 0 0)
(0 0 0)
(0 0 0)
(0 0 0)
(0 0 0)
(0 0 0)
(0 0 0)
(0 0 0)
(0 0 0)
(0 0 0)
(0 0 0)
(0 0 0)
(0 0 0)
(0 0 0)
(0 0 0)
(0 0 0)
(0 0 0)
(0 0 0)
(0 0 0)
(0 0 0)
(0 0 0)
(0 0 0)
(0 0 0)
(0 0 0)
(0 0 0)
(0 0 0)
(0 0 0)
(0 0 0)
(0 0 0)
(0 0 0)
(0 0 0)
(0 0 0)
(0 0 0)
(0 0 0)
(0 0 0)
(0 0 0)
(0 0 0)
(0 0 0)
(0 0 0)
(0 0 0)
(0 0 0)
(0 0 0)
(0 0 0)
(0 0 0)
(0 0 0)
(0 0 0)
(0 0 0)
(0 0 0)
(0 0 0)
(0 0 0)
(0 0 0)
(0 0 0)
(0 0 0)
(0 0 0)
(0 0 0)
(0 0 0)
(0 0 0)
(0 0 0)
(0 0 0)
(0 0 0)
(0 0 0)
(0 0 0)
(0 0 0)
(0 0 0)
(0 0 0)
(0 0 0)
(0 0 0)
(0 0 0)
(0 0 0)
(0 0 0)
(0 0 0)
(0 0 0)
(0 0 0)
(0 0 0)
(0 0 0)
(0 0 0)
(0 0 0)
(0 0 0)
(0 0 0)
(0 0 0)
(0 0 0)
(0 0 0)
(0 0 0)
(0 0 0)
(0 0 0)
(0 0 0)
(0 0 0)
(0 0 0)
(0 0 0)
(0 0 0)
(0 0 0)
(0 0 0)
(0 0 0)
(0 0 0)
(0 0 0)
(0 0 0)
(0 0 0)
(0 0 0)
(0 0 0)
(0 0 0)
(0 0 0)
(0 0 0)
(0 0 0)
(0 0 0)
(0 0 0)
(0 0 0)
(0 0 0)
(0 0 0)
(0 0 0)
(0 0 0)
(0 0 0)
(0 0 0)
(0 0 0)
(0 0 0)
(0 0 0)
(0 0 0)
(0 0 0)
(0 0 0)
(0 0 0)
(0 0 0)
(0 0 0)
(0 0 0)
(0 0 0)
(0 0 0)
(0 0 0)
(0 0 0)
(0 0 0)
(0 0 0)
(0 0 0)
(0 0 0)
(0 0 0)
(0 0 0)
(0 0 0)
(0 0 0)
(0 0 0)
(0 0 0)
(0 0 0)
(0 0 0)
(0 0 0)
(0 0 0)
(0 0 0)
(0 0 0)
(0 0 0)
(0 0 0)
(0 0 0)
(0 0 0)
(0 0 0)
(0 0 0)
(0 0 0)
(0 0 0)
(0 0 0)
(0 0 0)
(0 0 0)
(0 0 0)
(0 0 0)
(0 0 0)
(0 0 0)
(0 0 0)
(0 0 0)
(0 0 0)
(0 0 0)
(0 0 0)
(0 0 0)
(0 0 0)
(0 0 0)
(0 0 0)
(0 0 0)
(0 0 0)
(0 0 0)
(0 0 0)
(0 0 0)
(0 0 0)
(0 0 0)
(0 0 0)
(0 0 0)
(0 0 0)
(0 0 0)
(0 0 0)
(0 0 0)
(0 0 0)
(0 0 0)
(0 0 0)
(0 0 0)
(0 0 0)
(0 0 0)
(0 0 0)
(0 0 0)
(0 0 0)
(0 0 0)
(0 0 0)
(0 0 0)
(0 0 0)
(0 0 0)
(0 0 0)
(0 0 0)
(0 0 0)
(0 0 0)
(0 0 0)
(0 0 0)
(0 0 0)
(0 0 0)
(0 0 0)
(0 0 0)
(0 0 0)
(0 0 0)
(0 0 0)
(0 0 0)
(0 0 0)
(0 0 0)
(0 0 0)
(0 0 0)
(0 0 0)
(0 0 0)
(0 0 0)
(0 0 0)
(0 0 0)
(0 0 0)
(0 0 0)
(0 0 0)
(0 0 0)
(0 0 0)
(0 0 0)
(0 0 0)
(0 0 0)
(0 0 0)
(0 0 0)
(0 0 0)
(0 0 0)
(0 0 0)
(0 0 0)
(0 0 0)
(0 0 0)
(0 0 0)
(0 0 0)
(0 0 0)
(0 0 0)
(0 0 0)
(0 0 0)
(0 0 0)
(0 0 0)
(0 0 0)
(0 0 0)
(0 0 0)
(0 0 0)
(0 0 0)
(0 0 0)
(0 0 0)
(0 0 0)
(0 0 0)
(0 0 0)
(0 0 0)
(0 0 0)
(0 0 0)
(0 0 0)
(0 0 0)
(0 0 0)
(0 0 0)
(0 0 0)
(0 0 0)
(0 0 0)
(0 0 0)
(0 0 0)
(0 0 0)
(0 0 0)
(0 0 0)
(0 0 0)
(9.23852e-05 -0.000138379 0.000174819)
(0.000215213 -0.000150836 5.15282e-05)
(0.000232971 -3.85653e-05 0.000200439)
(-0.000113862 -8.69728e-05 -3.99942e-05)
(6.77366e-05 -0.000221107 0.000178279)
(0.000127756 -0.000219329 6.67036e-05)
(0.000306324 -0.000465047 -5.71075e-05)
(-1.77279e-05 -0.00014792 -9.36231e-06)
(-0.000108202 -0.000310264 -2.84807e-05)
(-0.000161095 -0.000168575 -2.49367e-05)
(-0.000165872 9.96892e-05 1.70047e-05)
(-8.6203e-05 8.77907e-05 7.31623e-05)
(-0.000168389 -0.000344442 2.19512e-05)
(-0.00019954 -1.66387e-05 0.000222383)
(-0.000258385 0.000197819 0.00016989)
(-0.000241075 0.000142699 0.000103579)
(-0.000210079 -0.000241863 0.000359673)
(8.09897e-05 -0.000141356 0.000366816)
(0.000188531 3.45214e-05 0.000614304)
(0.000113218 -0.000521966 0.000396322)
(-5.41629e-05 -0.000279893 0.000501196)
(-6.91856e-05 -4.52186e-05 0.000535758)
(-2.6927e-05 -9.37954e-05 0.000433673)
(3.73643e-05 -6.79299e-05 0.000196621)
(7.31293e-05 -0.000301314 0.000365136)
(-0.000116735 -4.23728e-06 0.000560651)
(-0.000130439 -0.000139997 0.000520127)
(-1.2708e-05 -4.02006e-05 0.000291926)
(-0.000350519 -0.00045037 0.000251432)
(-0.000325281 -1.18719e-05 0.000618978)
(-0.000336808 -6.93556e-05 0.000604737)
(-0.000120852 -1.32092e-05 0.000341396)
(-4.08807e-05 -0.000245485 0.00074552)
(0.000170144 -0.000257305 0.000987069)
(-3.91842e-05 -0.000126483 0.000846002)
(-5.54253e-05 -0.000298529 0.000886219)
(0.000109933 -0.000482788 0.00076257)
(9.3184e-05 -0.000689413 0.0018099)
(0.000116605 -0.000190924 0.000672955)
(0.000106106 -0.000274986 0.000758335)
(-3.4746e-05 -0.000178006 0.000644634)
(-1.39755e-05 -0.000164279 0.000819974)
(9.37536e-05 -7.45758e-05 0.000897466)
(0.000232905 -0.000265735 0.000746946)
(-0.000220505 -0.000239734 0.000764785)
(-9.75632e-05 -0.000563093 0.000879649)
(-3.84107e-05 0.000110685 0.000856281)
(-0.000167714 0.000186805 0.000410774)
(-6.81801e-05 -0.000140451 0.00114271)
(-0.000237457 5.10446e-05 0.000985072)
(-0.000293617 -0.000366214 0.00128126)
(0.000137389 -0.000560128 0.000834815)
(-0.000149947 1.00247e-05 0.000928976)
(-5.29164e-05 -0.000171363 0.00100164)
(-0.000101029 -0.000205679 0.000672891)
(-1.35004e-05 -0.000347313 0.00114684)
(1.52389e-05 -0.000131521 0.000752839)
(8.36525e-06 -0.000110067 0.000816736)
(-2.01154e-05 -8.80204e-05 0.000915631)
(0.000187108 -0.000150533 0.000567309)
(-5.22714e-05 -0.000171998 0.000958033)
(-0.000164706 -0.000134513 0.00109713)
(-0.000123186 -0.000101623 0.00096242)
(-0.00024036 -6.10112e-05 0.00119925)
(-9.32396e-05 -6.78395e-05 0.00100444)
(-3.92894e-05 -2.28191e-05 0.00102439)
(-8.0991e-05 2.27899e-05 0.00129129)
(-1.83358e-05 0.000148792 0.00101409)
(-0.00013097 -0.000170178 0.0008804)
(-9.77497e-05 -0.000254554 0.000924747)
(-2.6482e-05 -0.000261889 0.00128309)
(-3.57517e-05 -2.14165e-05 0.000702534)
(4.82001e-05 -6.16436e-05 0.000827612)
(7.11604e-05 -0.0002949 0.00104141)
(-6.10528e-05 -0.000133435 0.00083965)
(-0.000167999 -3.29452e-05 0.000482665)
(-1.84022e-05 -9.36446e-05 0.000975809)
(-1.68496e-05 -5.59268e-05 0.0011656)
(-1.76562e-05 -2.56551e-05 0.000670144)
(-0.00017452 0.000145025 0.000694033)
(-0.00018735 7.58977e-05 0.00109922)
(-0.000148779 0.000116374 0.00109399)
(5.10398e-05 -1.4311e-05 0.00114964)
(-8.72258e-05 1.82213e-05 0.000906518)
(-0.00016937 6.7397e-06 0.000947707)
(-3.63681e-05 5.50874e-05 0.000865355)
(3.84815e-05 -9.07388e-05 0.000875409)
(-7.27831e-05 -0.000140378 0.0010893)
(-2.83362e-05 -5.02372e-05 0.000893594)
(-0.000204189 -6.64837e-07 0.000821527)
(-0.000177632 -8.33496e-05 0.000687304)
(8.21174e-05 -0.000158567 0.000429459)
(-0.000104383 0.000117684 0.000825044)
(-7.73498e-05 0.000166352 0.000683259)
(-1.1094e-06 0.000112183 0.000644837)
(1.68217e-05 -8.78543e-05 0.000505375)
(-0.000156915 0.00016538 0.00101123)
(-6.04411e-05 0.000115478 0.00109106)
(-0.000210571 -9.66946e-05 0.00119141)
(-0.00011618 -0.000185279 0.000895715)
(-0.000108251 3.4098e-05 0.000949469)
(-1.14093e-06 6.08239e-06 0.000915816)
(-0.000126476 0.000570877 0.00115616)
(-0.000648313 0.000346486 0.00138566)
(8.19704e-06 0.000139384 0.000841533)
(-0.000415641 0.000143149 0.000695305)
(0.000839237 -0.00125605 -0.000183711)
(-0.00216718 0.00177071 -0.00424673)
(0.000420548 0.000513707 0.000462023)
(-3.91904e-05 0.000265241 0.000790978)
(-1.66571e-05 0.000144959 0.000627143)
(-0.000511514 -0.000530125 0.00018844)
(0 0 0)
(0 0 0)
(0 0 0)
(0 0 0)
(0 0 0)
(0 0 0)
(0 0 0)
(0 0 0)
(0 0 0)
(0 0 0)
(0 0 0)
(0 0 0)
(0 0 0)
(0 0 0)
(0 0 0)
(0 0 0)
(0 0 0)
(0 0 0)
(0 0 0)
(0 0 0)
(0 0 0)
(0 0 0)
(0 0 0)
(0 0 0)
(0 0 0)
(0 0 0)
(0 0 0)
(0 0 0)
(0 0 0)
(0 0 0)
(0 0 0)
(0 0 0)
(0 0 0)
(0 0 0)
(0 0 0)
(0 0 0)
(0 0 0)
(0 0 0)
(0 0 0)
(0 0 0)
(0 0 0)
(0 0 0)
(0 0 0)
(0 0 0)
(0 0 0)
(0 0 0)
(0 0 0)
(0 0 0)
(0 0 0)
(0 0 0)
(0 0 0)
(0 0 0)
(0 0 0)
(0 0 0)
(0 0 0)
(0 0 0)
(0 0 0)
(0 0 0)
(0 0 0)
(0 0 0)
(0 0 0)
(0 0 0)
(0 0 0)
(0 0 0)
(0 0 0)
(0 0 0)
(0 0 0)
(0 0 0)
(0 0 0)
(0 0 0)
(0 0 0)
(0 0 0)
(0 0 0)
(0 0 0)
(0 0 0)
(0 0 0)
(0 0 0)
(0 0 0)
(0 0 0)
(0 0 0)
(0 0 0)
(0 0 0)
(0 0 0)
(0 0 0)
(0 0 0)
(0 0 0)
(0 0 0)
(0 0 0)
(0 0 0)
(0 0 0)
(0 0 0)
(0 0 0)
(0 0 0)
(0 0 0)
(0 0 0)
(0 0 0)
(0 0 0)
(0 0 0)
(0 0 0)
(0 0 0)
(0 0 0)
(0 0 0)
(0 0 0)
(0 0 0)
(0 0 0)
(0 0 0)
(0 0 0)
(0 0 0)
(0 0 0)
(0 0 0)
(0 0 0)
(0 0 0)
(0 0 0)
(0 0 0)
(0 0 0)
(0 0 0)
(0 0 0)
(0 0 0)
(0 0 0)
(0 0 0)
(0 0 0)
(0 0 0)
(0 0 0)
(0 0 0)
(0 0 0)
(0 0 0)
(0 0 0)
(0 0 0)
(0 0 0)
(0 0 0)
(0 0 0)
(0 0 0)
(0 0 0)
(0 0 0)
(0 0 0)
(0 0 0)
(0 0 0)
(0 0 0)
(0 0 0)
(0 0 0)
(0 0 0)
(0 0 0)
(0 0 0)
(0 0 0)
(0 0 0)
(0 0 0)
(0 0 0)
(0 0 0)
(0 0 0)
(0 0 0)
(0 0 0)
(0 0 0)
(0 0 0)
(0 0 0)
(0 0 0)
(0 0 0)
(0 0 0)
(0 0 0)
(0 0 0)
(0 0 0)
(0 0 0)
(0 0 0)
(0 0 0)
(0 0 0)
(0 0 0)
(0 0 0)
(0 0 0)
(0 0 0)
(0 0 0)
(0 0 0)
(0 0 0)
(0 0 0)
(0 0 0)
(0 0 0)
(0 0 0)
(0 0 0)
(0 0 0)
(0 0 0)
(0 0 0)
(0 0 0)
(0 0 0)
(0 0 0)
(0 0 0)
(0 0 0)
(0 0 0)
(0 0 0)
(0 0 0)
(0 0 0)
(0 0 0)
(0 0 0)
(0 0 0)
(0 0 0)
(0 0 0)
(0 0 0)
(0 0 0)
(0 0 0)
(0 0 0)
(0 0 0)
(0 0 0)
(0 0 0)
(0 0 0)
(0 0 0)
(0 0 0)
(0 0 0)
(0 0 0)
(0 0 0)
(0 0 0)
(0 0 0)
(0 0 0)
(0 0 0)
(0 0 0)
(0 0 0)
(0 0 0)
(0 0 0)
(0 0 0)
(0 0 0)
(0 0 0)
(0 0 0)
(0 0 0)
(0 0 0)
(0 0 0)
(0 0 0)
(0 0 0)
(0 0 0)
(0 0 0)
(0 0 0)
(0 0 0)
(0 0 0)
(0 0 0)
(0 0 0)
(0 0 0)
(0 0 0)
(0 0 0)
(0 0 0)
(0 0 0)
(0 0 0)
(0 0 0)
(0 0 0)
(0 0 0)
(0 0 0)
(0 0 0)
(0 0 0)
(0 0 0)
(0 0 0)
(0 0 0)
(0 0 0)
(0 0 0)
(0 0 0)
(0 0 0)
(0 0 0)
(0 0 0)
(0 0 0)
(0 0 0)
(0 0 0)
(0 0 0)
(0 0 0)
(0 0 0)
(0 0 0)
(0 0 0)
(0 0 0)
(0 0 0)
(0 0 0)
(0 0 0)
(0 0 0)
(0 0 0)
(0 0 0)
(0 0 0)
(0 0 0)
(0 0 0)
(0 0 0)
(0 0 0)
(0 0 0)
)
;

boundaryField
{
    inlet
    {
        type            zeroGradient;
    }
    outlet
    {
        type            zeroGradient;
    }
    wall
    {
        type            zeroGradient;
    }
    procBoundary3to1
    {
        type            processor;
        value           nonuniform List<vector> 
192
(
(-0.000219439 0.000168009 0.000256394)
(4.53148e-05 -0.000129521 0.000126704)
(-0.000107717 0.000281437 1.73e-05)
(-0.000101188 -0.000438194 0.000191494)
(-5.64133e-05 -1.70537e-05 0.000700863)
(-0.000204992 -0.000182384 0.000546674)
(-0.000332595 -8.53714e-05 0.000924858)
(-0.000201793 -0.000144021 0.000912935)
(-0.000233618 -0.000222415 0.000981079)
(-0.000212952 -0.000375529 0.00191744)
(-0.000924845 -0.000295029 0.00177795)
(-0.000289174 0.000111047 0.00110627)
(-1.15121e-05 0.000212834 0.00084977)
(-0.0012514 0.000463785 0.0020599)
(-0.000440515 0.000141854 0.00120356)
(-0.000261661 -0.000253915 0.00108422)
(-0.00015129 8.7589e-06 0.000887059)
(-0.000131081 0.00018398 0.00102856)
(-0.000208946 -0.000190371 0.00111544)
(-0.000339682 2.92552e-05 0.00109795)
(-0.000123051 -5.12859e-05 0.00105235)
(-0.000150318 -2.46374e-05 0.00101029)
(-0.000229854 -0.00011139 0.00119525)
(-0.000251762 2.51205e-05 0.00115324)
(-9.62394e-05 -7.34003e-06 0.00103792)
(0.00309896 -0.00422091 -0.00166592)
(0.00153471 -0.0018922 -0.00027879)
(-4.4709e-05 -2.68062e-05 0.00120455)
(-2.48801e-06 -7.2632e-05 0.00111527)
(0 0 0)
(0 0 0)
(0 0 0)
(0 0 0)
(0 0 0)
(0 0 0)
(0 0 0)
(0 0 0)
(0 0 0)
(0 0 0)
(0 0 0)
(0 0 0)
(0 0 0)
(0 0 0)
(0 0 0)
(0 0 0)
(0 0 0)
(0 0 0)
(0 0 0)
(0 0 0)
(0 0 0)
(0 0 0)
(0 0 0)
(0 0 0)
(0 0 0)
(0 0 0)
(0 0 0)
(0 0 0)
(0 0 0)
(0 0 0)
(0 0 0)
(0 0 0)
(0 0 0)
(0 0 0)
(0 0 0)
(0 0 0)
(0 0 0)
(0 0 0)
(0 0 0)
(0 0 0)
(0 0 0)
(0 0 0)
(0 0 0)
(0 0 0)
(0 0 0)
(0 0 0)
(0 0 0)
(0 0 0)
(0 0 0)
(0 0 0)
(0 0 0)
(0 0 0)
(0 0 0)
(0 0 0)
(0 0 0)
(0 0 0)
(0 0 0)
(0 0 0)
(0 0 0)
(0 0 0)
(0 0 0)
(0 0 0)
(0 0 0)
(0 0 0)
(0 0 0)
(0 0 0)
(0 0 0)
(-6.10135e-05 -9.42654e-05 7.08387e-05)
(-8.73256e-05 -0.000128793 0.000234691)
(-2.53698e-05 -0.000174658 0.00013893)
(7.32748e-05 3.79825e-05 -1.50799e-05)
(-0.00023032 -0.000155192 0.000594431)
(7.50268e-05 -0.000159612 0.000824884)
(0.000114055 0.000196135 0.00051828)
(0.000192672 0.000209511 0.000427698)
(-0.000226312 0.000206058 0.000846994)
(-0.000150148 7.44024e-06 0.00130359)
(3.938e-05 -6.5273e-05 0.00100073)
(4.47651e-05 0.00012557 0.00128943)
(-9.77255e-05 -0.00019283 0.00124885)
(-0.000216865 -0.000255192 0.00111432)
(9.14559e-05 -2.88029e-05 0.00105705)
(-4.56628e-05 1.0074e-05 0.00129495)
(-0.000199573 1.97291e-06 0.00114516)
(-0.000178906 0.000119536 0.00109148)
(-0.00012463 0.000262243 0.00123549)
(-0.000101291 0.000253237 0.00102907)
(-0.000151209 2.11961e-05 0.0012173)
(-0.000197166 -1.47008e-05 0.00107812)
(-0.000417161 7.03129e-05 0.00128946)
(-0.000288302 7.69901e-05 0.000924956)
(0.00277457 0.00237918 -0.0012546)
(-0.000122941 4.4748e-05 0.000967432)
(-0.00111343 -0.000571588 0.00165606)
(0.00375332 -0.00263088 -0.000726804)
(0 0 0)
(0 0 0)
(0 0 0)
(0 0 0)
(0 0 0)
(0 0 0)
(0 0 0)
(0 0 0)
(0 0 0)
(0 0 0)
(0 0 0)
(0 0 0)
(0 0 0)
(0 0 0)
(0 0 0)
(0 0 0)
(0 0 0)
(0 0 0)
(0 0 0)
(0 0 0)
(0 0 0)
(0 0 0)
(0 0 0)
(0 0 0)
(0 0 0)
(0 0 0)
(0 0 0)
(0 0 0)
(0 0 0)
(0 0 0)
(0 0 0)
(0 0 0)
(0 0 0)
(0 0 0)
(0 0 0)
(0 0 0)
(0 0 0)
(0 0 0)
(0 0 0)
(0 0 0)
(0 0 0)
(0 0 0)
(0 0 0)
(0 0 0)
(0 0 0)
(0 0 0)
(0 0 0)
(0 0 0)
(0 0 0)
(0 0 0)
(0 0 0)
(0 0 0)
(0 0 0)
(0 0 0)
(0 0 0)
(0 0 0)
(0 0 0)
(0 0 0)
(0 0 0)
(0 0 0)
(0 0 0)
(0 0 0)
(0 0 0)
(0 0 0)
(0 0 0)
(0 0 0)
(0 0 0)
(0 0 0)
)
;
    }
    procBoundary3to2
    {
        type            processor;
        value           nonuniform List<vector> 
192
(
(2.86949e-05 0.000190073 0.000339326)
(0.000229769 -0.000199283 0.000178714)
(-0.000101007 0.000118568 9.79777e-05)
(0.000158324 -0.000449964 0.000123528)
(-0.000282583 -6.62311e-05 0.00081963)
(-6.01152e-05 0.000203487 0.000771199)
(7.28431e-05 0.0001984 0.00058709)
(-4.1259e-05 -0.000172345 0.000679526)
(-0.000143484 -0.000383888 0.001552)
(0.000342869 -0.0004997 0.00162987)
(4.85714e-05 -0.000172531 0.00163633)
(0.00024763 0.000125431 0.00120497)
(-0.000246777 -0.000718974 0.00174867)
(-1.59061e-05 -0.000406293 0.00272227)
(7.4933e-05 -0.000157911 0.00110912)
(4.26284e-05 7.50078e-05 0.0011422)
(-0.000236996 -2.96946e-05 0.00108822)
(-5.82085e-05 3.15696e-05 0.00121279)
(7.10832e-05 1.30869e-05 0.00118164)
(2.97122e-05 8.18603e-05 0.00130033)
(-0.000220555 -2.14595e-05 0.00103928)
(-1.83227e-05 8.29074e-05 0.00103761)
(-0.000183462 2.35723e-05 0.000986024)
(-6.49339e-05 8.35269e-05 0.00105034)
(-0.000122485 0.000213674 0.00109138)
(-0.0003761 0.000298162 0.000991535)
(-0.0001914 0.000209249 0.000932496)
(-8.86746e-05 8.60375e-05 0.00109098)
(0 0 0)
(0 0 0)
(0 0 0)
(0 0 0)
(0 0 0)
(0 0 0)
(0 0 0)
(0 0 0)
(0 0 0)
(0 0 0)
(0 0 0)
(0 0 0)
(0 0 0)
(0 0 0)
(0 0 0)
(0 0 0)
(0 0 0)
(0 0 0)
(0 0 0)
(0 0 0)
(0 0 0)
(0 0 0)
(0 0 0)
(0 0 0)
(0 0 0)
(0 0 0)
(0 0 0)
(0 0 0)
(0 0 0)
(0 0 0)
(0 0 0)
(0 0 0)
(0 0 0)
(0 0 0)
(0 0 0)
(0 0 0)
(0 0 0)
(0 0 0)
(0 0 0)
(0 0 0)
(0 0 0)
(0 0 0)
(0 0 0)
(0 0 0)
(0 0 0)
(0 0 0)
(0 0 0)
(0 0 0)
(0 0 0)
(0 0 0)
(0 0 0)
(0 0 0)
(0 0 0)
(0 0 0)
(0 0 0)
(0 0 0)
(0 0 0)
(0 0 0)
(0 0 0)
(0 0 0)
(0 0 0)
(0 0 0)
(0 0 0)
(0 0 0)
(0 0 0)
(0 0 0)
(0 0 0)
(0 0 0)
(1.47783e-05 -0.000226887 0.000242829)
(9.79059e-05 -0.000268295 0.000127238)
(-1.35263e-05 -0.000181757 9.57872e-05)
(-3.12944e-05 -8.95724e-05 5.79781e-05)
(-8.26706e-06 -0.000349416 0.000685674)
(-5.42259e-05 -0.000218746 0.000254927)
(-0.000260051 -0.000315759 0.000298802)
(0.00035696 -0.000207025 0.000278101)
(-4.41021e-05 8.72329e-05 0.000691467)
(-4.16577e-05 -0.00017016 0.000518105)
(-5.073e-05 -0.000189458 0.000733755)
(0.000295616 9.88033e-05 0.000597551)
(0.00013769 -7.41934e-05 0.000811349)
(0.000482878 8.78474e-05 0.00101917)
(-3.56063e-05 -0.000273841 0.000634173)
(-0.000163732 -0.000137334 0.00176863)
(-7.42365e-05 3.71952e-05 0.000886911)
(6.42556e-05 -7.18548e-05 0.000822159)
(0.000107989 -0.000164896 0.000907241)
(8.55488e-05 6.9308e-06 0.000456562)
(-2.14889e-05 0.000125462 0.00101106)
(-8.59262e-05 -6.42845e-05 0.00083002)
(-8.14532e-05 -0.000110656 0.000652783)
(-0.00022943 -0.000133965 0.000457832)
(7.80249e-05 0.000126743 0.00107634)
(-1.88682e-05 0.00016674 0.000506273)
(-0.000420017 9.20223e-05 0.000534726)
(-0.000746369 0.000141668 0.000377447)
(0 0 0)
(0 0 0)
(0 0 0)
(0 0 0)
(0 0 0)
(0 0 0)
(0 0 0)
(0 0 0)
(0 0 0)
(0 0 0)
(0 0 0)
(0 0 0)
(0 0 0)
(0 0 0)
(0 0 0)
(0 0 0)
(0 0 0)
(0 0 0)
(0 0 0)
(0 0 0)
(0 0 0)
(0 0 0)
(0 0 0)
(0 0 0)
(0 0 0)
(0 0 0)
(0 0 0)
(0 0 0)
(0 0 0)
(0 0 0)
(0 0 0)
(0 0 0)
(0 0 0)
(0 0 0)
(0 0 0)
(0 0 0)
(0 0 0)
(0 0 0)
(0 0 0)
(0 0 0)
(0 0 0)
(0 0 0)
(0 0 0)
(0 0 0)
(0 0 0)
(0 0 0)
(0 0 0)
(0 0 0)
(0 0 0)
(0 0 0)
(0 0 0)
(0 0 0)
(0 0 0)
(0 0 0)
(0 0 0)
(0 0 0)
(0 0 0)
(0 0 0)
(0 0 0)
(0 0 0)
(0 0 0)
(0 0 0)
(0 0 0)
(0 0 0)
(0 0 0)
(0 0 0)
(0 0 0)
(0 0 0)
)
;
    }
}


// ************************************************************************* //
