/*--------------------------------*- C++ -*----------------------------------*\
| =========                 |                                                 |
| \\      /  F ield         | OpenFOAM: The Open Source CFD Toolbox           |
|  \\    /   O peration     | Version:  2506                                  |
|   \\  /    A nd           | Website:  www.openfoam.com                      |
|    \\/     M anipulation  |                                                 |
\*---------------------------------------------------------------------------*/
FoamFile
{
    version     2.0;
    format      ascii;
    arch        "LSB;label=32;scalar=64";
    class       volScalarField;
    location    "0.05";
    object      voidfraction;
}
// * * * * * * * * * * * * * * * * * * * * * * * * * * * * * * * * * * * * * //

dimensions      [0 0 0 0 0 0 0];

internalField   nonuniform List<scalar> 
1152
(
0.573397
0.415396
0.415396
0.339029
0.560231
0.42593
0.431196
0.446997
0.341663
0.44173
0.412763
0.470697
0.446997
0.423296
0.452263
0.46543
0.499664
0.396963
0.462797
0.428563
0.407496
0.412763
0.389063
0.399596
0.328496
0.454897
0.39433
0.383796
0.439097
0.40223
0.48123
0.352196
0.38643
0.365363
0.381163
0.515464
0.360096
0.404863
0.38643
0.375896
0.40223
0.415396
0.378529
0.39433
0.40223
0.378529
0.389063
0.452263
0.281096
0.365363
0.439097
0.362729
0.404863
0.370629
0.391696
0.370629
0.41803
0.41013
0.404863
0.436463
0.43383
0.41013
0.439097
0.446997
0.286362
0.494397
0.370629
0.389063
0.373263
0.365363
0.454897
0.404863
0.38643
0.399596
0.40223
0.460163
0.428563
0.357463
0.370629
0.483863
0.533897
0.436463
0.41013
0.428563
0.48123
0.415396
0.39433
0.399596
0.365363
0.349563
0.39433
0.404863
0.460163
0.336396
0.44173
0.431196
0.462797
0.549697
0.570764
0.683998
0.594464
0.670831
0.726132
0.815666
0.589197
0.591831
0.657665
0.744565
0.47333
0.712965
0.597097
0.626064
1
1
1
1
1
1
1
1
1
1
1
1
1
1
1
1
1
1
1
1
1
1
1
1
1
1
1
1
1
1
1
1
1
1
1
1
1
1
1
1
1
1
1
1
1
1
1
1
1
1
1
1
1
1
1
1
1
1
1
1
1
1
1
1
1
1
1
1
1
1
1
1
1
1
1
1
1
1
1
1
1
1
1
1
1
1
1
1
1
1
1
1
1
1
1
1
1
1
1
1
1
1
1
1
1
1
1
1
1
1
1
1
1
1
1
1
1
1
1
1
1
1
1
1
1
1
1
1
1
1
1
1
1
1
1
1
1
1
1
1
1
1
1
1
1
1
1
1
1
1
1
1
1
1
1
1
1
1
1
1
1
1
1
1
1
1
1
1
1
1
1
1
1
1
1
1
1
1
1
1
1
1
1
1
1
1
1
1
1
1
1
1
1
1
1
1
1
1
1
1
1
1
1
1
1
1
1
1
1
1
1
1
1
1
1
1
1
1
1
1
1
1
1
1
1
1
1
1
1
1
1
1
1
1
1
1
1
1
1
1
1
1
1
1
1
1
1
1
1
1
1
1
1
1
1
1
1
1
1
1
1
1
1
1
1
1
1
1
1
1
1
1
0.463745
0.396362
0.515355
0.44361
0.391992
0.38746
0.423863
0.423346
0.497557
0.443936
0.461609
0.480198
0.382564
0.403512
0.480367
0.484719
0.431169
0.374707
0.451164
0.421705
0.436211
0.411202
0.354616
0.401586
0.422388
0.433365
0.461609
0.464728
0.489944
0.468306
0.412967
0.492813
0.358499
0.401776
0.370924
0.334084
0.358828
0.430195
0.407244
0.470494
0.390738
0.367821
0.456737
0.418317
0.375406
0.434003
0.410792
0.468532
0.355993
0.439672
0.364505
0.382276
0.394203
0.396957
0.423863
0.470494
0.434257
0.424908
0.425067
0.396659
0.400461
0.38636
0.402096
0.444252
0.421146
0.458621
0.393391
0.342847
0.453899
0.38746
0.396164
0.401586
0.323482
0.469308
0.461609
0.384283
0.370037
0.38636
0.395573
0.430763
0.511357
0.40719
0.409439
0.329703
0.374305
0.418325
0.379545
0.397959
0.438213
0.424908
0.427503
0.384283
0.40762
0.41304
0.428186
0.401087
0.53391
0.631862
0.634109
0.697709
0.717
0.650995
0.698082
0.637325
0.71515
0.758969
0.700353
0.709159
0.774502
0.740823
0.702135
0.695148
1
1
1
1
1
1
1
1
1
1
1
1
1
1
1
1
1
1
1
1
1
1
1
1
1
1
1
1
1
1
1
1
1
1
1
1
1
1
1
1
1
1
1
1
1
1
1
1
1
1
1
1
1
1
1
1
1
1
1
1
1
1
1
1
1
1
1
1
1
1
1
1
1
1
1
1
1
1
1
1
1
1
1
1
1
1
1
1
1
1
1
1
1
1
1
1
1
1
1
1
1
1
1
1
1
1
1
1
1
1
1
1
1
1
1
1
1
1
1
1
1
1
1
1
1
1
1
1
1
1
1
1
1
1
1
1
1
1
1
1
1
1
1
1
1
1
1
1
1
1
1
1
1
1
1
1
1
1
1
1
1
1
1
1
1
1
1
1
1
1
1
1
1
1
1
1
1
1
1
1
1
1
1
1
1
1
1
1
1
1
1
1
1
1
1
1
1
1
1
1
1
1
1
1
1
1
1
1
1
1
1
1
1
1
1
1
1
1
1
1
1
1
1
1
1
1
1
1
1
1
1
1
1
1
1
1
1
1
1
1
1
1
1
1
1
1
1
1
1
1
1
1
1
1
1
1
1
1
1
1
1
1
1
1
1
1
1
1
1
1
1
1
0.478781
0.469375
0.418432
0.452361
0.418017
0.439692
0.435479
0.430192
0.361296
0.421093
0.432375
0.47167
0.474277
0.401586
0.452352
0.490115
0.37604
0.365461
0.467885
0.463099
0.366586
0.385086
0.454508
0.414946
0.419068
0.374005
0.364163
0.412967
0.430467
0.339931
0.418317
0.473928
0.391075
0.341141
0.42041
0.448782
0.420724
0.472931
0.407993
0.407323
0.380553
0.432173
0.390961
0.436883
0.483039
0.358065
0.384283
0.419972
0.406111
0.438422
0.438213
0.482786
0.353052
0.406454
0.412222
0.456872
0.40302
0.443252
0.417758
0.489063
0.395419
0.365318
0.384283
0.403785
0.431169
0.391992
0.414476
0.398671
0.334103
0.41595
0.420679
0.376832
0.342038
0.434943
0.366599
0.419489
0.456753
0.455987
0.418317
0.403785
0.453722
0.407469
0.475798
0.411199
0.404483
0.411202
0.424908
0.441626
0.351667
0.440483
0.412886
0.43036
0.364752
0.339931
0.381189
0.444252
0.674238
0.723633
0.695369
0.642066
0.72931
0.686607
0.841427
0.714143
0.711139
0.687003
0.634576
0.591251
0.588184
0.543029
0.600867
0.549467
1
1
1
1
1
1
1
1
1
1
1
1
1
1
1
1
1
1
1
1
1
1
1
1
1
1
1
1
1
1
1
1
1
1
1
1
1
1
1
1
1
1
1
1
1
1
1
1
1
1
1
1
1
1
1
1
1
1
1
1
1
1
1
1
1
1
1
1
1
1
1
1
1
1
1
1
1
1
1
1
1
1
1
1
1
1
1
1
1
1
1
1
1
1
1
1
1
1
1
1
1
1
1
1
1
1
1
1
1
1
1
1
1
1
1
1
1
1
1
1
1
1
1
1
1
1
1
1
1
1
1
1
1
1
1
1
1
1
1
1
1
1
1
1
1
1
1
1
1
1
1
1
1
1
1
1
1
1
1
1
1
1
1
1
1
1
1
1
1
1
1
1
1
1
1
1
1
1
1
1
1
1
1
1
1
1
1
1
1
1
1
1
1
1
1
1
1
1
1
1
1
1
1
1
1
1
1
1
1
1
1
1
1
1
1
1
1
1
1
1
1
1
1
1
1
1
1
1
1
1
1
1
1
1
1
1
1
1
1
1
1
1
1
1
1
1
1
1
1
1
1
1
1
1
1
1
1
1
1
1
1
1
1
1
1
1
1
1
1
1
1
1
)
;

boundaryField
{
    inlet
    {
        type            fixedValue;
        value           uniform 1;
    }
    outlet
    {
        type            fixedValue;
        value           uniform 1;
    }
    wall
    {
        type            zeroGradient;
    }
    procBoundary3to1
    {
        type            processor;
        value           nonuniform List<scalar> 
192
(
0.404863
0.446997
0.531264
0.49703
0.412763
0.357463
0.325862
0.41013
0.40223
0.44173
0.452263
0.328496
0.341663
0.423296
0.431196
0.349563
0.452263
0.296896
0.45753
0.415396
0.415396
0.383796
0.436463
0.436463
0.515464
0.589197
0.831466
0.752465
0.997367
1
1
1
1
1
1
1
1
1
1
1
1
1
1
1
1
1
1
1
1
1
1
1
1
1
1
1
1
1
1
1
1
1
1
1
1
1
1
1
1
1
1
1
1
1
1
1
1
1
1
1
1
1
1
1
1
1
1
1
1
1
1
1
1
1
1
1
0.350982
0.451688
0.467885
0.448782
0.381052
0.345563
0.404585
0.366457
0.451216
0.396414
0.386782
0.479206
0.421146
0.396414
0.368979
0.364668
0.38857
0.414102
0.422388
0.482786
0.386064
0.40968
0.382826
0.387933
0.716838
0.728055
0.8734
0.813874
1
1
1
1
1
1
1
1
1
1
1
1
1
1
1
1
1
1
1
1
1
1
1
1
1
1
1
1
1
1
1
1
1
1
1
1
1
1
1
1
1
1
1
1
1
1
1
1
1
1
1
1
1
1
1
1
1
1
1
1
1
1
1
1
1
1
1
1
)
;
    }
    procBoundary3to2
    {
        type            processor;
        value           nonuniform List<scalar> 
192
(
0.357463
0.339029
0.525997
0.454897
0.317962
0.431196
0.428563
0.381163
0.47333
0.439097
0.39433
0.365363
0.452263
0.420663
0.43383
0.325862
0.412763
0.378529
0.45753
0.344296
0.339029
0.404863
0.38643
0.317962
0.604998
0.597097
0.604998
0.602364
1
1
1
1
1
1
1
1
1
1
1
1
1
1
1
1
1
1
1
1
1
1
1
1
1
1
1
1
1
1
1
1
1
1
1
1
1
1
1
1
1
1
1
1
1
1
1
1
1
1
1
1
1
1
1
1
1
1
1
1
1
1
1
1
1
1
1
1
0.408616
0.427367
0.461951
0.446992
0.355993
0.389782
0.402607
0.395092
0.466251
0.469375
0.37887
0.395092
0.453722
0.378727
0.400629
0.438044
0.398593
0.376516
0.42041
0.40762
0.371029
0.471586
0.329416
0.493524
0.70932
0.64625
0.788341
0.833561
1
1
1
1
1
1
1
1
1
1
1
1
1
1
1
1
1
1
1
1
1
1
1
1
1
1
1
1
1
1
1
1
1
1
1
1
1
1
1
1
1
1
1
1
1
1
1
1
1
1
1
1
1
1
1
1
1
1
1
1
1
1
1
1
1
1
1
1
)
;
    }
}


// ************************************************************************* //
