FoamFile
{version 2.0; format ascii;class vectorField; location 0;object  v;}
2494
(
( 0.000166359 8.19555e-05 -9.70527e-07 )  
( 0.000132916 0.000113462 0.000274107 )  
( -8.38214e-05 4.21763e-05 0.000257091 )  
( -0.000235985 0.000406091 0.000571877 )  
( -0.000446376 0.000890307 -8.76018e-06 )  
( 0.000835094 -0.00183689 2.27088e-05 )  
( 6.37603e-05 -7.04749e-05 -1.22632e-06 )  
( 4.38984e-05 0.000295592 0.000583481 )  
( 0.000228865 0.000267916 0.000573825 )  
( 2.8737e-06 0.000206679 0.000102722 )  
( -0.000189645 0.000249523 0.00047685 )  
( 0.000169892 -0.000152208 0.000211879 )  
( -0.000147228 -0.000157629 0.000241506 )  
( 7.44663e-05 -9.30882e-05 0.000601066 )  
( 4.02155e-05 -0.000887262 -0.000210311 )  
( -6.17118e-05 0.000134245 0.000450143 )  
( 0.00015587 0.000231288 0.000578713 )  
( 0.000182316 0.00061218 0.000743395 )  
( 0.000108252 3.17786e-05 0.000123896 )  
( 0.000191805 9.22263e-05 0.000355085 )  
( 0.00136083 0.000489095 0.000160622 )  
( -0.000101607 2.13315e-05 0.000258632 )  
( 0.000259719 -7.89017e-05 0.000162146 )  
( 4.6036e-05 5.85585e-05 -1.4605e-05 )  
( -8.66657e-05 0.000281188 6.56037e-05 )  
( 3.00887e-05 -0.000121346 0.000727802 )  
( 0.000125076 0.000145286 6.59253e-05 )  
( 0.000260953 -0.000577178 0.000634165 )  
( 7.16488e-05 0.000212316 0.000145536 )  
( 5.89157e-05 -0.000178213 0.00011683 )  
( 0.00110358 0.000138026 -8.39936e-08 )  
( 0.000140831 -1.9986e-05 0.0001206 )  
( -8.73902e-05 0.000213364 0.00031282 )  
( 0.000457203 0.000412471 0.00041808 )  
( 0.000240706 -4.45437e-05 -1.56246e-05 )  
( 5.21342e-05 0.000732217 0.000443651 )  
( 0.000112521 0.000148645 0.000203395 )  
( 0.000473302 3.91618e-05 0.000536296 )  
( -0.00023957 0.000166052 0.000776905 )  
( -0.00011469 0.000103617 3.87101e-06 )  
( 0.000145575 0.000351921 -0.000100261 )  
( 0.000137093 0.000194796 4.1727e-05 )  
( 1.02131e-06 0.000120029 0.000257587 )  
( 0.000277267 -5.65796e-05 0.000693324 )  
( -0.00022552 0.000710251 0.000819653 )  
( -0.000101487 0.000179552 0.000169654 )  
( -8.35719e-05 0.000183699 0.000793171 )  
( -3.00719e-05 -9.22484e-06 0.00110598 )  
( -1.02033e-07 -2.7519e-05 0.000270697 )  
( -7.24905e-05 0.000480567 0.000421641 )  
( -7.06285e-05 -0.000159571 6.12416e-06 )  
( -0.000122445 -0.00016432 0.000223981 )  
( 0.000243218 8.633e-05 0.000283087 )  
( 0.000126913 -5.66158e-06 4.34124e-05 )  
( -6.10548e-05 9.03074e-05 0.000176217 )  
( -0.000104644 0.000322312 6.22799e-05 )  
( 8.15361e-05 0.000243401 0.000108629 )  
( 3.75189e-06 0.000241481 3.84002e-07 )  
( 0.00039738 -0.000230086 -0.000257864 )  
( 0.000176378 3.55954e-06 9.90662e-05 )  
( 6.52029e-05 0.000143316 0.000242283 )  
( -0.000148965 -4.4577e-05 4.30238e-05 )  
( 0.00058605 -0.000405459 4.95666e-05 )  
( -3.62155e-05 -0.0011412 -0.000422293 )  
( -0.000115912 0.000116971 0.000449603 )  
( 0.000434599 0.000876356 0.000531883 )  
( 0.000175346 -1.90458e-05 0.000218692 )  
( -0.00041922 -5.1509e-05 0.000503186 )  
( 4.69311e-06 0.000126069 0.000157829 )  
( -0.000960869 -0.000941218 3.07297e-05 )  
( 9.52133e-05 3.50295e-05 0.000723402 )  
( -7.36403e-05 0.00014528 0.000234319 )  
( 0.000238076 0.000349798 0.000142056 )  
( -5.26679e-05 0.000293913 0.000341087 )  
( 6.52259e-05 0.000250762 4.78174e-05 )  
( 0.000105947 -0.000133489 0.000358982 )  
( -9.72941e-05 5.75493e-05 0.000251015 )  
( 6.44934e-05 -1.71847e-05 0.000147418 )  
( -4.93571e-05 -5.51472e-05 -1.05675e-06 )  
( -2.37149e-05 0.000302778 4.34883e-05 )  
( -7.98202e-06 -9.65658e-05 0.00045676 )  
( 0.000576315 0.000196628 0.000945658 )  
( -0.000140072 -6.22852e-06 -8.23394e-05 )  
( 0.000260396 0.00017601 0.000289827 )  
( -0.00106312 0.000827829 0.000855633 )  
( 0.000182596 0.00060932 0.000937628 )  
( 0.000254579 0.000186721 0.000438692 )  
( -0.00106951 -0.000352467 0.00051711 )  
( -0.000264886 0.000544436 0.000574168 )  
( -3.28412e-05 -0.00019088 -4.99691e-08 )  
( -0.000256939 4.91582e-05 0.000788066 )  
( 6.37605e-05 3.39018e-05 4.15393e-05 )  
( 0.000100092 6.49905e-05 0.00075261 )  
( -0.000102999 -2.41913e-05 0.000393143 )  
( 0.000155508 0.000328602 2.92858e-06 )  
( -7.60036e-05 8.86495e-05 0.000228843 )  
( 0.000125422 2.37912e-05 0.000170586 )  
( 5.2374e-05 0.000261616 0.000824743 )  
( 0.000141119 -3.04802e-05 0.000775989 )  
( 2.97989e-05 0.000243703 0.000491265 )  
( 0.000255749 -0.000277847 0.000537923 )  
( 0.000118038 0.000176889 0.000291475 )  
( 9.17253e-05 3.94777e-05 8.16129e-05 )  
( 0.000119871 0.000233979 0.000810998 )  
( 0.000207295 5.01913e-07 0.000246833 )  
( -0.00140376 -9.99182e-05 0.000788344 )  
( -0.000252247 -0.000163006 0.000794946 )  
( 7.20988e-05 -2.44919e-05 0.000430261 )  
( 0.000285852 -0.000111007 0.000456871 )  
( -0.0002563 -9.63708e-05 0.000511983 )  
( -0.000127497 -1.62193e-05 0.000912235 )  
( 7.74401e-05 0.000128868 0.000163263 )  
( 0.000131852 -0.000531409 8.98094e-05 )  
( 1.34296e-05 0.000373927 0.000589376 )  
( -0.000169184 0.000242387 0.000233373 )  
( 8.59695e-05 8.35807e-05 0.00033868 )  
( 0.000177215 4.4871e-05 0.0001693 )  
( -8.01783e-05 0.000124997 1.59808e-05 )  
( -0.000181004 4.23202e-05 0.000415936 )  
( -5.76949e-05 0.000534437 0.000349125 )  
( 5.96138e-05 -0.000127792 3.69328e-05 )  
( 0.000104984 -2.16975e-05 0.000156867 )  
( 4.46145e-05 0.000190575 0.00014794 )  
( 9.39505e-06 8.88139e-05 -0.000472902 )  
( 3.98993e-05 2.51462e-05 0.000597841 )  
( -0.000104748 0.000116773 0.000477876 )  
( 1.66344e-05 -7.38323e-05 0.000485595 )  
( 0.000312631 0.000150247 5.12635e-05 )  
( 0.000123306 3.43277e-05 9.09633e-05 )  
( 0.00064644 0.000246276 0.000456477 )  
( -8.32353e-06 0.000237816 0.000271382 )  
( -0.000640069 0.000111728 0.000406322 )  
( 5.14203e-05 -9.90009e-06 0.0003757 )  
( -1.19115e-05 6.52243e-05 -1.82606e-05 )  
( 6.90403e-06 0.000223798 0.000567662 )  
( -3.14038e-05 3.98868e-05 4.32125e-05 )  
( 0.000259046 -0.000289346 0.000850605 )  
( -3.288e-06 0.000113709 0.000365847 )  
( 1.63114e-06 -0.000100497 0.000176284 )  
( 1.90036e-05 0.000234227 0.000354113 )  
( -7.24702e-05 0.000128384 0.000767237 )  
( 2.37855e-05 2.9182e-05 -2.3395e-05 )  
( 1.41552e-05 -7.86954e-05 0.000433011 )  
( 0.000332296 0.00011512 0.000540299 )  
( 0.000145199 -3.34903e-05 3.75228e-05 )  
( 0.00020803 2.76737e-05 0.000151943 )  
( -5.72079e-05 0.000385025 0.000840653 )  
( -8.02064e-05 0.000199832 7.06006e-05 )  
( -0.000108932 3.86601e-05 0.000513512 )  
( -8.3029e-05 7.69371e-05 -1.73374e-06 )  
( 0.000210201 0.000226635 -3.09713e-08 )  
( 0.00031049 0.000357579 0.000158904 )  
( 8.00442e-05 8.8543e-05 0.000139508 )  
( -1.02679e-05 8.47362e-05 0.00015332 )  
( -1.58603e-05 0.00036873 0.00021371 )  
( 1.45046e-05 -5.2094e-05 0.000428283 )  
( 5.3701e-05 -1.03763e-05 -2.2023e-05 )  
( -6.50179e-05 -4.05292e-05 0.000279687 )  
( 2.33929e-05 0.000143521 0.000659469 )  
( -0.000296994 0.000431982 1.54515e-05 )  
( -0.000214681 -0.000315956 0.000659975 )  
( -5.7332e-05 0.000150522 0.000439457 )  
( -3.14443e-05 0.000160728 0.000753599 )  
( 0.000295527 0.000388605 0.000466541 )  
( 0.000221336 2.45676e-05 0.000400921 )  
( 2.52577e-05 1.53079e-06 1.85769e-05 )  
( -0.000593978 1.35727e-07 -0.000128803 )  
( 0.000312566 -2.39605e-05 3.64483e-05 )  
( -5.52216e-05 -2.81976e-06 7.73519e-05 )  
( 6.69307e-05 0.000191792 0.000153411 )  
( 8.07488e-05 0.00016181 0.000320798 )  
( -0.000100523 -2.86849e-05 0.000248247 )  
( 0.000141491 -2.82642e-05 0.000416669 )  
( 0.000165126 2.65744e-05 2.19645e-05 )  
( -2.72874e-05 0.000188552 0.00022493 )  
( -0.000447305 0.000405162 0.00153725 )  
( -7.85852e-05 4.26619e-05 1.65007e-05 )  
( 0.000153199 0.000440331 0.000762177 )  
( 8.5079e-05 0.000384232 0.000909257 )  
( 3.56282e-07 0.000231087 0.000176118 )  
( 4.08369e-05 0.000243354 0.000537893 )  
( 0.000107017 -0.000339062 -8.65326e-05 )  
( 5.39548e-05 -0.000432963 0.000374652 )  
( -0.000182529 -7.16362e-05 0.00030311 )  
( 0.000208224 8.76258e-05 -9.40792e-05 )  
( 0.000109075 0.000164573 0.000162244 )  
( 5.84286e-05 -0.000323239 0.000222005 )  
( 2.34976e-05 0.000274788 0.000178558 )  
( 0.000189159 -0.000180049 0.000196555 )  
( 0.000223327 -5.80135e-05 0.000188391 )  
( -1.97761e-05 -0.000291176 0.000427152 )  
( 0.00018852 0.000267691 2.76297e-05 )  
( -5.49615e-05 0.000193784 -1.67611e-05 )  
( -0.000165523 0.000208969 0.000345744 )  
( -0.000287915 7.25675e-07 6.21688e-05 )  
( -7.97313e-05 0.000757481 0.000307534 )  
( -6.71996e-05 0.00032015 0.000454061 )  
( 2.93857e-05 8.81107e-05 0.000263707 )  
( -0.000114232 -0.000229609 0.000801412 )  
( 0.000232433 -1.93721e-06 0.000147868 )  
( -0.000138275 0.000441421 0.000169946 )  
( 0.000158967 -0.000159266 0.00049004 )  
( 1.72973e-06 0.000110517 0.000623586 )  
( -0.000220977 -0.000168834 0.000527375 )  
( -1.58192e-05 0.000413691 0.00101641 )  
( -1.1317e-05 4.97628e-05 0.000202187 )  
( -3.21961e-05 -0.000118598 0.000112868 )  
( 3.85078e-06 0.000259564 0.000667357 )  
( -1.8743e-05 0.000120513 0.000231824 )  
( 0.000198622 0.000149941 0.000630174 )  
( 5.35213e-05 -4.26451e-05 0.000289686 )  
( -0.00019114 0.000149284 0.000266375 )  
( -0.000160637 -0.000326887 0.000257079 )  
( 1.61585e-05 -5.1824e-05 0.000183075 )  
( 0.000114276 -0.00018722 0.000418452 )  
( 0.000361889 0.000127975 0.000517487 )  
( 9.28776e-05 -4.33544e-05 0.000126908 )  
( 5.95951e-05 0.000106172 0.000602966 )  
( 0.000224764 -0.000275534 0.000557717 )  
( 0.000338142 6.60134e-06 0.000557933 )  
( 0.000344465 3.70692e-05 0.00063585 )  
( -0.000223212 0.000203283 0.000122264 )  
( 0.000344401 0.000253573 -2.0058e-05 )  
( 0.000162185 -7.22056e-05 -0.000293936 )  
( 0.000500313 -8.06215e-05 -0.00013101 )  
( 2.32392e-05 0.000241186 2.81994e-05 )  
( 0.000188321 0.0001049 0.000177753 )  
( -4.91381e-05 0.000108671 0.000243704 )  
( -1.07982e-05 7.30681e-05 1.6908e-05 )  
( 2.77278e-05 4.14389e-05 0.00019333 )  
( 4.37529e-05 2.41131e-05 -1.09429e-05 )  
( -0.000350787 -8.46946e-05 0.00025306 )  
( 0.000100975 0.000198738 0.000325077 )  
( 7.50101e-05 2.65069e-05 6.09146e-05 )  
( 0.000202396 -0.00010168 0.000536111 )  
( 0.000226771 -3.61171e-07 0.000414769 )  
( 0.000480309 7.13055e-05 0.000433639 )  
( 0.000181491 0.000417034 0.000465209 )  
( 6.87542e-05 4.62613e-05 3.83241e-05 )  
( -0.000175265 0.00023739 9.9463e-05 )  
( 8.64096e-05 0.000204425 0.000337956 )  
( 0.000107844 0.000153112 8.75299e-05 )  
( 0.000192177 0.000236426 7.0105e-05 )  
( -8.55177e-05 -3.61988e-07 6.66156e-05 )  
( 0.000196623 -4.80406e-05 0.000318544 )  
( -2.88402e-05 2.75125e-05 3.71017e-05 )  
( -8.4496e-05 0.00012815 0.000544643 )  
( 4.20475e-05 0.000427089 0.000338609 )  
( 1.95742e-05 -2.5013e-05 3.50253e-05 )  
( -0.00024553 0.000320661 -3.12211e-05 )  
( 0.000317055 0.000172806 0.000155933 )  
( -0.000320403 8.06987e-06 0.000109609 )  
( 2.0431e-05 3.37954e-05 0.000378576 )  
( 0.000567678 2.74152e-05 0.000477403 )  
( 2.08863e-08 4.94836e-05 0.000383978 )  
( -0.000357418 -0.000921441 -1.58159e-05 )  
( -0.000191696 0.000290615 0.000491866 )  
( 0.000245432 9.10815e-05 0.000701196 )  
( -0.000122831 -6.94356e-05 0.000348868 )  
( -4.94382e-05 0.000242875 0.000367413 )  
( 0.00019301 -5.71616e-05 0.000148799 )  
( -0.000174668 -7.28857e-05 0.000109668 )  
( 0.000341207 0.000105908 4.20614e-05 )  
( 0.000425221 0.000646739 0.00110702 )  
( 0.000144413 -0.000346012 0.00023154 )  
( -4.83717e-05 9.60774e-05 0.000928416 )  
( -0.000212252 -5.3539e-05 0.000645537 )  
( -0.000377339 -3.47547e-05 0.000162033 )  
( -9.06076e-05 0.000180151 0.000175802 )  
( -4.96876e-05 -7.52854e-05 0.000454508 )  
( -3.87727e-05 8.71073e-05 0.000362013 )  
( -0.000136227 7.4227e-05 0.000509609 )  
( 0.000321731 -0.000475872 0.000217483 )  
( 0.000234826 -0.00042268 0.000310595 )  
( -4.58356e-05 0.000166476 0.000434807 )  
( 0.00021516 -0.000363953 0.000617341 )  
( -0.000325491 0.00034285 0.000691047 )  
( 3.67609e-05 0.000130991 0.000253124 )  
( -3.03991e-05 0.000450734 0.000320623 )  
( -3.44783e-06 0.000492526 0.000821361 )  
( 1.98066e-05 0.000215508 0.000632629 )  
( 0.000470484 5.75325e-05 0.000304985 )  
( 5.87911e-05 0.000215392 0.000223444 )  
( -0.000480819 0.000394549 0.000407257 )  
( 0.00010063 1.00555e-05 6.19668e-05 )  
( 0.000106441 0.000373921 0.000830065 )  
( 2.59701e-05 1.32478e-05 0.000224604 )  
( -0.000156055 0.000285878 7.53348e-05 )  
( 7.22846e-05 0.0004262 0.000670173 )  
( -2.08873e-05 6.69588e-05 0.00010019 )  
( -0.00017043 -0.000314251 0.000337173 )  
( -0.000127927 -0.000190301 2.04598e-05 )  
( 0.000170017 0.000121713 0.000121274 )  
( -4.27794e-05 0.000173128 0.000631926 )  
( 4.1199e-05 7.11137e-05 0.00017166 )  
( 4.88823e-05 -0.000106295 0.000111093 )  
( 0.00016334 0.000164082 -1.02052e-05 )  
( 0.000261944 -3.87665e-05 0.000433211 )  
( 0.000116011 0.000225857 0.000410137 )  
( -0.000231899 0.000459325 0.000552095 )  
( 4.08108e-05 4.21304e-05 3.7676e-05 )  
( 3.07501e-05 0.000248812 0.000642777 )  
( 0.000139499 5.39517e-05 0.000202096 )  
( 0.000116582 5.63732e-05 0.000573613 )  
( 4.38179e-05 -0.000137823 0.000237672 )  
( 2.223e-05 2.04689e-05 -3.06924e-07 )  
( 0.000161109 -0.000455045 0.000470213 )  
( 7.17521e-05 0.000658248 0.00059205 )  
( -0.000364317 0.000367764 4.58814e-05 )  
( -2.68427e-05 0.000186223 -3.54399e-05 )  
( 3.28282e-05 0.000177268 0.00029101 )  
( -7.25806e-05 -0.000145853 0.000555112 )  
( 1.66736e-05 -3.62798e-05 0.000374732 )  
( -0.000195617 5.20658e-05 0.000183378 )  
( 1.79991e-05 7.18121e-05 2.87042e-05 )  
( -1.27851e-06 -4.34647e-06 0.000265131 )  
( -0.000106868 2.23518e-05 0.000291666 )  
( -5.26517e-05 0.000202231 0.000334554 )  
( -4.07408e-07 0.000808492 0.00134199 )  
( -9.63245e-05 0.000193837 0.000161395 )  
( -5.76633e-05 3.25801e-05 0.000478501 )  
( 0.000128314 -0.000165577 0.000500735 )  
( 0.000238208 0.000457272 -0.000136253 )  
( -0.000391616 -0.000489334 9.48753e-05 )  
( 3.71673e-05 0.00010816 2.61349e-06 )  
( -0.000148114 1.68393e-05 0.000597342 )  
( 0.000117522 6.55029e-05 0.000779446 )  
( 0.000600719 -0.000371596 0.000421725 )  
( 7.67199e-05 0.000141832 0.000210411 )  
( 8.60911e-06 0.000368939 0.000417811 )  
( 6.78965e-05 0.000317584 0.000167343 )  
( 0.000337578 -5.87429e-05 0.000205409 )  
( -9.37044e-06 -0.000416074 0.000103569 )  
( 0.000187092 0.000119377 0.000174584 )  
( 0.000318137 -2.85018e-06 3.54527e-05 )  
( -1.71627e-05 -1.86204e-05 2.17776e-05 )  
( 0.000283553 -9.22477e-05 0.000364089 )  
( 0.000441055 0.000359201 0.000635536 )  
( -0.000202557 -0.000240085 0.000362923 )  
( -0.000269521 0.00047983 0.000215106 )  
( 0.000418505 -0.000119251 0.000751792 )  
( 6.7439e-05 2.82533e-05 9.24924e-07 )  
( 1.54975e-05 7.97816e-05 7.412e-05 )  
( 0.000345174 -0.00010961 -0.000572618 )  
( 0.000276679 0.00010691 0.000648041 )  
( 6.92008e-05 0.000135622 0.000203324 )  
( -4.34465e-05 6.84904e-05 7.95528e-05 )  
( -0.000527334 -3.69084e-05 0.000476019 )  
( -1.71561e-05 0.000163888 0.00102128 )  
( 0.00015287 0.00033479 0.000395015 )  
( 6.07849e-05 3.45026e-05 0.000470197 )  
( 0.000131571 9.53534e-05 0.000457576 )  
( 3.3177e-05 -0.000252997 -5.10085e-06 )  
( -0.000137455 0.000169568 3.83496e-05 )  
( -4.27004e-05 0.00017014 0.000290279 )  
( -3.62289e-05 -0.000161833 0.000465595 )  
( 6.85422e-06 2.10062e-05 1.33527e-05 )  
( 7.58585e-06 0.000223183 0.000368444 )  
( 8.9777e-05 0.000402906 0.000343616 )  
( 7.92364e-05 0.000574767 0.000323048 )  
( 0.000173747 5.42269e-05 0.000616723 )  
( 0.000428592 0.000280796 0.000179538 )  
( 0.000286113 0.000123434 0.000659935 )  
( 0.000440859 -0.000176747 0.000732483 )  
( 4.25603e-05 0.000129739 4.44236e-05 )  
( 0.000369279 0.000448692 0.000287462 )  
( 6.80778e-05 -0.000115971 -3.58447e-05 )  
( -9.997e-05 0.000185656 0.000633951 )  
( 7.31722e-05 -2.3029e-05 0.000648536 )  
( 7.56998e-05 0.000250462 0.000397938 )  
( -0.000320698 -0.000342494 0.000776059 )  
( -8.99381e-05 6.69781e-05 0.000472211 )  
( -0.000282341 -0.00047285 0.000251909 )  
( -0.000501916 -0.000923098 -6.80965e-05 )  
( 7.63332e-05 8.35785e-05 0.000310101 )  
( 0.000685745 0.000375517 -7.09396e-05 )  
( -0.000709368 4.65522e-05 0.000344829 )  
( 0.000461916 0.000142296 0.000132181 )  
( 7.72927e-05 -0.000291973 0.000503079 )  
( 8.18246e-05 -0.000169228 0.000526793 )  
( 0.00011759 0.00018902 2.76355e-05 )  
( 5.97458e-06 0.000110877 0.000594387 )  
( -7.78253e-05 0.000164661 0.000449844 )  
( 0.000205538 -0.000291562 0.000166294 )  
( 5.75401e-05 3.19075e-06 0.000136115 )  
( -5.89928e-05 -0.000339724 0.000229765 )  
( 9.19445e-05 7.78322e-05 0.000648138 )  
( 0.000104313 5.55517e-05 0.000520022 )  
( -0.000290015 0.000171402 0.000195542 )  
( 2.63056e-05 3.41312e-05 0.000317025 )  
( -0.000148324 0.000138562 0.0005567 )  
( -0.000135724 0.000245119 3.1781e-05 )  
( 0.000320696 -0.000255568 0.000787561 )  
( -0.000225231 0.000401963 0.00102416 )  
( -0.000188294 0.000428947 0.000634351 )  
( -0.000275411 0.000394858 0.000657866 )  
( 0.000186622 -0.00020205 -8.61134e-07 )  
( 3.91223e-05 0.000308191 0.000679759 )  
( 4.38719e-05 0.000360933 0.000240349 )  
( -0.000119084 0.000184046 9.5562e-05 )  
( 0.000330035 0.000317894 0.000704506 )  
( 0.000107474 0.000181245 9.94269e-05 )  
( 0.000117969 3.77907e-05 0.000497308 )  
( 0.000132649 1.07911e-05 0.000340022 )  
( 3.86588e-05 0.000255021 9.25556e-05 )  
( -0.000190704 0.000372282 0.000407933 )  
( -1.83676e-05 0.000205099 0.000653735 )  
( -8.29143e-05 0.000258249 0.000350585 )  
( 2.95583e-05 -0.000134852 0.000552916 )  
( 3.70388e-05 7.26235e-05 6.99866e-05 )  
( 0.000919782 -1.10907e-05 0.000106363 )  
( -0.000103714 -4.5967e-05 0.000501548 )  
( -0.000106463 -5.78074e-05 0.00057766 )  
( -0.000325836 -2.48154e-05 9.62076e-05 )  
( -8.82716e-05 0.000123733 0.000224326 )  
( 9.55933e-05 -2.7355e-05 0.000303678 )  
( 0.000202789 -2.47156e-06 0.00076433 )  
( 2.36529e-05 0.000280092 0.000649345 )  
( -0.000118826 -4.6225e-05 0.000110813 )  
( -0.000348969 -0.000103356 -2.89853e-05 )  
( 8.59111e-05 -0.000126941 0.000293363 )  
( 2.17577e-05 0.000279182 0.000744249 )  
( 0.000367297 0.000389374 0.000355026 )  
( 3.96699e-05 -5.18972e-05 0.000361173 )  
( -0.000126529 0.00041429 0.000976087 )  
( 5.70485e-05 0.000217414 0.00022373 )  
( 0.00011232 -0.000328264 0.000292084 )  
( -2.38188e-05 0.000191414 0.000491714 )  
( 4.16142e-05 -5.09041e-05 0.000130373 )  
( 2.603e-05 4.56202e-05 3.37317e-05 )  
( 4.11089e-05 7.82208e-05 0.0006549 )  
( 6.66522e-05 0.000260296 0.000276391 )  
( -1.4277e-05 2.65384e-05 2.97126e-06 )  
( -7.26109e-05 0.000205355 0.000437903 )  
( -0.000189668 -5.01665e-05 4.43631e-05 )  
( -4.45768e-05 -8.71475e-06 0.000343132 )  
( 0.000186597 0.000187701 0.000481116 )  
( -7.49403e-05 3.79951e-06 0.000308778 )  
( 0.000167401 5.09288e-05 2.4982e-05 )  
( -0.000234427 -0.00015908 0.000125466 )  
( 0.000245681 0.000370403 0.000413716 )  
( 0.000366111 0.000467709 0.000456923 )  
( 1.97572e-05 0.000328901 0.000294331 )  
( 2.44159e-05 -8.55285e-05 0.000705106 )  
( -2.8479e-05 3.15082e-05 -6.33052e-05 )  
( 0.000373954 5.891e-05 0.000618733 )  
( 0.000113722 5.61161e-05 0.000510082 )  
( -3.84353e-05 0.000185452 1.1246e-05 )  
( 3.15112e-06 0.000151145 0.000163361 )  
( 0.000212723 0.000337552 0.000379527 )  
( -6.68324e-05 -0.000429603 0.000353232 )  
( 0.000128663 9.02538e-05 0.000210639 )  
( 8.27925e-05 0.000164362 0.000466476 )  
( 0.000151212 -7.90741e-05 0.000338856 )  
( 0.000179375 0.000410831 0.000406408 )  
( 8.44089e-06 -0.000178422 0.000146271 )  
( -4.92859e-05 7.76446e-05 0.000251813 )  
( -0.000208949 0.000116086 0.000460914 )  
( -1.51242e-05 -4.9889e-05 6.27376e-05 )  
( 4.05231e-05 -2.05941e-05 -3.26599e-05 )  
( 0.000306893 0.000280475 0.000631112 )  
( 1.37207e-05 -0.000176377 7.11529e-05 )  
( -7.66234e-05 0.000112743 0.00049511 )  
( 7.65586e-05 2.1877e-05 0.000695552 )  
( -2.61315e-05 -3.40287e-06 7.86681e-05 )  
( 7.9814e-06 0.000124788 7.87416e-05 )  
( -0.000542365 -0.000115253 0.000379438 )  
( 6.28729e-05 0.000347667 6.5804e-05 )  
( 0.000138497 -0.000107976 0.000529305 )  
( 0.00129899 0.000136244 0.000410758 )  
( -2.91101e-05 0.000207261 5.72263e-05 )  
( -0.000168969 -3.90636e-05 0.000265852 )  
( -0.00126745 0.000321339 1.52458e-06 )  
( 1.57468e-06 -2.4595e-06 8.30275e-07 )  
( -0.000232153 0.000737824 0.00129992 )  
( 9.20899e-06 8.55048e-05 0.000412099 )  
( -8.97429e-05 -6.31271e-06 9.67296e-05 )  
( -5.38898e-05 1.50563e-06 8.08968e-05 )  
( 0.000214911 0.000134575 0.000582979 )  
( -0.000118367 0.000354933 4.47027e-05 )  
( 0.000188378 8.63681e-05 0.000688692 )  
( -0.000116975 -0.000591386 0.000180664 )  
( 0.000439431 -0.000123745 1.67514e-05 )  
( -8.13301e-05 4.23336e-05 0.00048315 )  
( 0.000173987 0.00031742 0.000210072 )  
( -3.55745e-06 4.64534e-05 0.000173123 )  
( -3.37721e-05 0.000148265 0.000302487 )  
( -0.000142929 -7.60858e-05 0.000314331 )  
( 0.000135154 -0.00012308 0.000486826 )  
( -0.000131202 8.2195e-05 0.000396491 )  
( -0.000179125 -4.11853e-05 0.000834044 )  
( -9.20797e-05 0.000101416 0.000287792 )  
( 0.000245128 -0.000190787 2.59497e-05 )  
( 1.89999e-05 -0.000233065 0.00061719 )  
( 0.000173285 0.000344494 0.000344361 )  
( 0.000484414 2.17683e-05 0.000657471 )  
( 2.39365e-05 0.000136811 0.000217742 )  
( -0.000170517 -9.18327e-05 0.000484647 )  
( -6.78855e-05 0.00033267 0.000100613 )  
( -0.000134309 -5.95611e-05 0.000775247 )  
( -6.44971e-05 0.000252373 0.000299748 )  
( -3.49644e-06 0.000139754 0.000138364 )  
( 9.55944e-05 5.72911e-05 0.000765188 )  
( -0.000194836 6.49892e-06 0.000455256 )  
( -0.000324769 0.000205471 0.000267584 )  
( -2.19389e-05 -6.05026e-07 0.000478964 )  
( 3.14468e-05 3.76032e-05 5.04471e-05 )  
( 5.20779e-05 1.60855e-05 -6.13807e-06 )  
( -0.00016742 0.000197448 0.000265467 )  
( 8.01542e-05 9.02608e-05 0.000156326 )  
( -7.36286e-05 0.000218891 5.42542e-05 )  
( -2.94149e-05 0.000111516 0.000466317 )  
( 3.41972e-05 5.36949e-05 0.000656042 )  
( 0.000417447 0.000259574 0.00045606 )  
( 6.9008e-05 -3.24335e-05 0.000125623 )  
( 4.04748e-05 -0.000150964 0.000103195 )  
( 0.00044299 2.67582e-05 0.000541204 )  
( -0.00021345 -4.71334e-05 0.000939348 )  
( -0.000117193 -2.51454e-05 0.000118653 )  
( -4.05262e-05 0.000395368 0.000566355 )  
( -0.00023288 -0.000176578 6.06586e-05 )  
( -0.0001593 -2.43661e-05 0.000326206 )  
( 7.17288e-05 -0.000264869 7.03094e-05 )  
( 0.000125221 0.000363557 0.000438818 )  
( -2.16782e-05 -0.000217298 0.000375255 )  
( 0.000170093 7.82695e-05 0.000316042 )  
( -0.000239947 -5.65814e-05 -1.04401e-05 )  
( 0.000149054 -5.35039e-05 0.000236493 )  
( 0.000413221 0.000422265 0.000411163 )  
( 6.9343e-05 0.000321256 0.000166558 )  
( 3.94835e-05 9.09179e-05 6.3703e-05 )  
( 7.18084e-05 -0.000733679 -0.000213335 )  
( 8.51146e-05 0.000224686 0.000667042 )  
( -0.000247392 5.72676e-06 4.55563e-05 )  
( -0.000873562 -0.000894153 0.00144316 )  
( -0.000410321 -9.64204e-05 0.000232322 )  
( 1.32532e-05 0.000151967 0.000545485 )  
( 0.000402812 5.16054e-06 0.000710342 )  
( 0.000638152 -0.000129201 0.00029115 )  
( 8.74367e-06 5.74434e-05 -7.27343e-05 )  
( 0.000135552 -7.48661e-05 -6.82736e-05 )  
( 0.000429076 0.000116756 0.00042695 )  
( 0.0001742 0.000399684 0.000217958 )  
( -5.24837e-05 -4.94606e-05 0.000253292 )  
( -0.000359545 6.80876e-05 -0.000118672 )  
( -4.71832e-05 0.000458367 0.000473591 )  
( -0.000331873 3.02797e-05 0.000142507 )  
( 0.00011649 4.974e-05 0.000209586 )  
( 8.13776e-05 0.000151429 0.000248117 )  
( 1.99743e-05 0.000114502 0.000130418 )  
( -0.000918822 -0.000431544 6.8455e-07 )  
( -2.91971e-05 -4.3861e-05 0.000258081 )  
( -3.28181e-05 0.000268297 0.000250035 )  
( -8.85798e-05 0.000471533 0.000723052 )  
( -0.000117031 -3.55678e-05 0.000309548 )  
( 4.419e-05 9.37456e-05 0.000233496 )  
( -6.44128e-05 0.000189582 0.000298605 )  
( 0.000339516 0.000337152 0.000443521 )  
( -5.67761e-05 0.000267371 0.00101739 )  
( 0.000408292 -0.000138722 0.000403563 )  
( -6.4055e-05 0.00050033 0.000558937 )  
( 0.000212569 -8.36133e-05 0.000400024 )  
( 6.40488e-05 -0.000208951 0.000320611 )  
( -9.18882e-05 0.000133173 7.2529e-05 )  
( 8.43873e-06 0.000173939 -1.36543e-07 )  
( 7.05974e-06 2.62385e-05 1.15383e-05 )  
( -0.000294879 -0.00014022 3.37814e-05 )  
( -6.45755e-05 0.000277482 0.000176657 )  
( 0.000669797 0.000316909 0.000583584 )  
( 6.58337e-05 0.000196254 9.03253e-05 )  
( 0.000169396 3.73276e-05 0.000163234 )  
( 5.2666e-05 -0.000168886 -0.000731344 )  
( 0.000376381 0.000231628 0.000483742 )  
( 0.00020051 -1.53558e-05 0.0001688 )  
( -0.000246449 -0.000219379 0.00092337 )  
( -2.59241e-05 -0.000485279 0.000416968 )  
( -0.00029294 -0.000443608 3.74384e-05 )  
( -4.64022e-05 3.3154e-05 0.000531894 )  
( 6.35532e-05 -0.000199057 0.000487926 )  
( 0.00177175 0.00175021 -0.00152551 )  
( -0.000130521 0.000222194 5.30629e-05 )  
( -0.000210652 0.000144792 0.000241617 )  
( 0.00013715 -9.63414e-05 0.000180686 )  
( 0.000377658 0.000257567 0.000378052 )  
( 4.68521e-05 6.11521e-05 0.000859845 )  
( 7.49093e-06 0.000212672 0.000633855 )  
( -2.40487e-05 -4.51826e-05 0.000241774 )  
( -0.000860201 0.000859642 7.16624e-05 )  
( 0.000196144 3.1099e-05 0.000678763 )  
( 7.43168e-05 0.00018604 -3.79788e-06 )  
( -0.000251294 0.000344697 0.000443743 )  
( -6.55983e-05 -3.00633e-05 0.000187629 )  
( -5.72693e-05 0.000305164 0.000341113 )  
( 0.000166646 1.12696e-05 0.000671234 )  
( -7.14416e-05 0.000110871 0.000419128 )  
( 0.000224748 0.000218916 0.000233732 )  
( -2.25113e-06 -5.55555e-05 0.000645816 )  
( -0.000103954 8.05102e-06 6.08189e-05 )  
( 0.00045601 4.78223e-05 -0.000184284 )  
( -3.73239e-06 1.37428e-05 3.0052e-05 )  
( -0.000155024 0.000502929 0.000368289 )  
( 0.000358987 0.000441983 0.000356128 )  
( 0.000331428 5.3816e-05 0.000925289 )  
( 0.000151124 -0.000346996 0.000664815 )  
( 0.000174597 0.000162772 3.61482e-05 )  
( -0.000222348 0.000282653 1.36544e-08 )  
( -0.000457345 -0.000270256 0.000803788 )  
( 4.16133e-05 -0.00010578 0.000233008 )  
( -5.31359e-05 -6.7869e-05 0.000730337 )  
( -0.000193071 0.000357158 2.31541e-05 )  
( 4.11587e-05 -0.000150611 -3.00583e-05 )  
( 0.000332815 9.00054e-05 9.8419e-05 )  
( -0.000747833 0.000204335 0.000118573 )  
( 0.000100544 0.000156453 0.000779598 )  
( 1.1352e-05 3.63476e-05 0.000716458 )  
( 5.67776e-05 -0.000112332 0.000378156 )  
( -0.000127534 -7.14572e-05 0.000156105 )  
( 0.000246857 0.000182428 0.000354594 )  
( 0.000117354 -0.000233735 -0.00075318 )  
( 4.64087e-05 0.000477172 0.000413036 )  
( -2.57864e-05 0.000110327 0.000409339 )  
( 0.000397475 5.73837e-05 9.91506e-05 )  
( 0.0002831 -0.000227752 4.70548e-06 )  
( -9.51769e-05 0.000378578 0.000561772 )  
( 0.000159509 -0.000239982 0.000292001 )  
( -0.000164268 0.000198083 0.000244757 )  
( 0.00013375 0.000232957 0.000197319 )  
( 4.10257e-05 8.24309e-05 0.000136197 )  
( 5.76059e-06 0.000170316 0.000498906 )  
( 0.000528481 -3.53389e-05 0.00074166 )  
( 0.000139573 7.89484e-05 4.43637e-05 )  
( 0.000115525 9.23851e-05 0.000333332 )  
( 5.09999e-05 6.42069e-05 0.000145957 )  
( 6.17089e-05 -2.21848e-05 0.000335021 )  
( 7.25513e-05 0.000268666 -6.79649e-05 )  
( 0.000200621 8.41671e-05 0.000377955 )  
( 0.000104384 -0.000263949 0.000183988 )  
( 1.75386e-05 -2.99353e-06 0.000198864 )  
( -9.20892e-05 0.000289703 0.000777195 )  
( 0.00012668 0.00027777 0.00086994 )  
( -0.000207122 -0.00014429 9.07365e-05 )  
( 1.66685e-05 1.9898e-05 0.000163417 )  
( 0.000205392 0.000147498 0.000433583 )  
( 0.000232348 3.62566e-05 0.00078431 )  
( -8.07708e-05 0.000173754 0.000398062 )  
( -7.21807e-05 7.19416e-05 0.000307833 )  
( 0.000101643 -9.44966e-05 9.40442e-05 )  
( -0.000862214 0.000361092 3.31836e-05 )  
( 0.000447122 0.000340691 0.000623207 )  
( 0.000282742 0.000309139 0.000711709 )  
( 4.19189e-06 1.56981e-05 0.00017126 )  
( 9.89453e-05 -8.74804e-05 0.000490916 )  
( -2.52335e-05 -0.000579349 0.000469068 )  
( 0.000240823 0.000192488 0.000356057 )  
( -0.00010605 -5.53091e-05 2.99252e-06 )  
( -4.11362e-06 6.36782e-05 0.000790341 )  
( -0.000143101 5.42354e-05 0.00065342 )  
( 0.000469929 0.00019503 0.000498042 )  
( -0.000120032 0.000186368 0.000279154 )  
( 6.09102e-05 -3.73171e-05 0.000471062 )  
( 0.00031176 -4.70523e-05 0.000316097 )  
( -0.000230712 5.15368e-05 0.000172331 )  
( 0.000108942 0.000165978 0.000524819 )  
( -0.000195241 -0.000106336 0.000898008 )  
( 0.000383517 0.000348785 0.000534631 )  
( 6.07497e-05 -3.13713e-05 0.000295702 )  
( 0.000103866 0.000255204 0.000735346 )  
( 0.000306025 -0.000261079 6.06777e-05 )  
( -7.06003e-05 0.000554966 0.000203535 )  
( -0.000310868 0.000558105 9.99072e-05 )  
( 2.9576e-08 -3.47718e-05 1.05138e-06 )  
( 0.000278199 5.05944e-05 5.72884e-05 )  
( -0.000434343 -0.000215665 -7.54346e-06 )  
( -0.000214937 0.000189346 -0.000254124 )  
( -0.000461538 0.000132594 0.00113952 )  
( 0.000555277 0.000570968 0.000491792 )  
( -0.000133946 -0.00011473 -0.000148107 )  
( 0.000101329 -0.000136828 8.02691e-05 )  
( 4.15397e-06 6.49766e-06 0.000793473 )  
( 0.000117344 -0.000122177 3.36167e-05 )  
( -3.00771e-05 -4.62353e-06 0.000549859 )  
( 0.000343861 0.00022417 0.000875268 )  
( -2.73115e-05 -4.10284e-05 0.000202043 )  
( 0.000178245 1.65102e-05 0.00054892 )  
( 0.000139762 -0.000593313 0.000426522 )  
( -0.000159196 0.000185621 0.000553963 )  
( 0.000310039 -0.000114721 0.00147489 )  
( 0.000119555 6.7414e-05 0.000380558 )  
( 4.5592e-05 0.000184981 0.000531345 )  
( 0.000107486 -6.27664e-05 0.000192747 )  
( 0.00029226 -5.95321e-05 0.000588131 )  
( -0.000294127 -0.000178267 7.00402e-06 )  
( -2.82266e-05 -0.000105551 0.000432462 )  
( -2.27386e-05 0.000159963 0.000181303 )  
( 3.56957e-05 0.000200339 0.000210085 )  
( 0.000384371 -6.76288e-05 3.79618e-07 )  
( -1.04481e-05 0.000691613 0.000205936 )  
( -6.57383e-06 2.85948e-05 0.000167717 )  
( -2.08833e-05 0.000199998 -1.63696e-05 )  
( -8.72467e-06 0.000125032 0.000912534 )  
( -2.18278e-05 0.000276515 0.000811675 )  
( -0.000308194 0.000196781 0.000696699 )  
( 0.000150507 3.75391e-05 0.00027241 )  
( 7.39667e-05 0.000228212 0.000460088 )  