/*--------------------------------*- C++ -*----------------------------------*\
| =========                 |                                                 |
| \\      /  F ield         | OpenFOAM: The Open Source CFD Toolbox           |
|  \\    /   O peration     | Version:  2506                                  |
|   \\  /    A nd           | Website:  www.openfoam.com                      |
|    \\/     M anipulation  |                                                 |
\*---------------------------------------------------------------------------*/
FoamFile
{
    version     2.0;
    format      ascii;
    arch        "LSB;label=32;scalar=64";
    class       volScalarField;
    location    "0.02";
    object      Ksl;
}
// * * * * * * * * * * * * * * * * * * * * * * * * * * * * * * * * * * * * * //

dimensions      [1 -3 -1 0 0 0 0];

internalField   nonuniform List<scalar> 
1152
(
205703
113488
99461.1
362868
134060
122404
155793
158522
93151.4
138809
97297.4
101610
130511
58554
105867
115130
240461
171404
132599
827332
170651
160670
759245
229074
277565
169395
131628
1.23191e+06
188528
381473
192262
243910
352691
258737
458277
1.60878e+07
568375
404553
162313
211732
213168
223599
518771
124335
335883
138988
467845
1.83078e+06
272897
134745
354902
155164
123832
277375
181668
206199
458395
269060
262064
1.28475e+07
555953
133045
205282
102104
242004
492272
414275
230833
284204
190348
191429
322334
238512
173399
571699
102452
117346
516163
395166
1.1117e+07
410055
117706
152144
162535
181505
191475
236322
161697
178650
162089
351297
181979
312277
178083
183185
136646
47840.8
46986.9
61834.7
72049.7
30885.5
45723.1
86782.5
279728
45719.8
51683.6
112363
33436.5
28336.2
91875.6
225873
82826.8
0
0
0
0
0
0
0
0
0
0
0
0
0
0
0
0
0
0
0
0
0
0
0
0
0
0
0
0
0
0
0
0
0
0
0
0
0
0
0
0
0
0
0
0
0
0
0
0
0
0
0
0
0
0
0
0
0
0
0
0
0
0
0
0
0
0
0
0
0
0
0
0
0
0
0
0
0
0
0
0
0
0
0
0
0
0
0
0
0
0
0
0
0
0
0
0
0
0
0
0
0
0
0
0
0
0
0
0
0
0
0
0
0
0
0
0
0
0
0
0
0
0
0
0
0
0
0
0
0
0
0
0
0
0
0
0
0
0
0
0
0
0
0
0
0
0
0
0
0
0
0
0
0
0
0
0
0
0
0
0
0
0
0
0
0
0
0
0
0
0
0
0
0
0
0
0
0
0
0
0
0
0
0
0
0
0
0
0
0
0
0
0
0
0
0
0
0
0
0
0
0
0
0
0
0
0
0
0
0
0
0
0
0
0
0
0
0
0
0
0
0
0
0
0
0
0
0
0
0
0
0
0
0
0
0
0
0
0
0
0
0
0
0
0
0
0
0
0
0
0
0
0
0
0
0
0
0
0
0
0
0
0
0
0
0
0
0
0
0
0
0
0
121579
102258
90906.5
104953
184213
108392
96997.4
79003.5
144269
81754.3
113652
236179
170828
198952
89979.6
91792.9
148233
207698
251823
362487
459334
156942
267452
268250
182691
323488
330511
227536
252566
182841
193926
222473
138380
196127
364766
195482
155801
198798
274731
126706
228722
202499
173008
488594
299099
581786
482182
165289
287986
312046
194770
8.56831e+06
1.09063e+06
144851
295744
204276
185546
188102
195306
240824
224195
616964
306002
206012
117342
365464
163527
394573
279806
187683
303341
196161
144666
326911
172649
217885
264559
217847
187122
358457
284877
469577
201333
117495
245944
192280
166976
169769
241017
143068
379420
170750
170946
297421
180011
134553
39559.4
56225.8
28933.9
29830
95059.6
28202.1
35416
19963.9
28416.5
12847.6
26984.1
36315.9
73358.7
52959.2
20623.8
50551.5
0
0
0
0
0
0
0
0
0
0
0
0
0
0
0
0
0
0
0
0
0
0
0
0
0
0
0
0
0
0
0
0
0
0
0
0
0
0
0
0
0
0
0
0
0
0
0
0
0
0
0
0
0
0
0
0
0
0
0
0
0
0
0
0
0
0
0
0
0
0
0
0
0
0
0
0
0
0
0
0
0
0
0
0
0
0
0
0
0
0
0
0
0
0
0
0
0
0
0
0
0
0
0
0
0
0
0
0
0
0
0
0
0
0
0
0
0
0
0
0
0
0
0
0
0
0
0
0
0
0
0
0
0
0
0
0
0
0
0
0
0
0
0
0
0
0
0
0
0
0
0
0
0
0
0
0
0
0
0
0
0
0
0
0
0
0
0
0
0
0
0
0
0
0
0
0
0
0
0
0
0
0
0
0
0
0
0
0
0
0
0
0
0
0
0
0
0
0
0
0
0
0
0
0
0
0
0
0
0
0
0
0
0
0
0
0
0
0
0
0
0
0
0
0
0
0
0
0
0
0
0
0
0
0
0
0
0
0
0
0
0
0
0
0
0
0
0
0
0
0
0
0
0
0
0
0
0
0
0
0
0
0
0
0
0
0
0
0
0
0
0
0
96657.8
208997
117595
254527
130715
79519.8
131757
148405
139354
140521
116893
81648.1
123204
129169
122918
434795
151233
170244
310875
170616
636210
327755
190829
148116
300665
188096
160626
321924
160723
348801
312294
131889
216660
407699
219470
210151
358192
116420
223541
226771
98362.3
5.2932e+06
202567
364572
443988
132002
260751
131194
148680
222041
298022
122750
416608
174733
216479
204900
375009
248769
292735
206272
153886
785700
207074
356805
164418
320874
225645
167060
361066
143210
229573
239491
188252
185121
254024
298344
299536
175578
197162
177121
176270
150918
207281
110346
167825
154724
196544
264053
216014
172475
316889
151539
571502
206533
239747
148390
96202.6
77218.1
80861.4
61686.1
62960.1
247641
70962.4
114394
57558.2
40453.1
49206.8
27359.1
66431.1
36452.6
44137.6
58836.8
0
0
412.066
0
0
0
0
0
0
0
0
0
0
0
0
0
0
0
0
0
0
0
0
0
0
0
0
0
0
0
0
0
0
0
0
0
0
0
0
0
0
0
0
0
0
0
0
0
0
0
0
0
0
0
0
0
0
0
0
0
0
0
0
0
0
0
0
0
0
0
0
0
0
0
0
0
0
0
0
0
0
0
0
0
0
0
0
0
0
0
0
0
0
0
0
0
0
0
0
0
0
0
0
0
0
0
0
0
0
0
0
0
0
0
0
0
0
0
0
0
0
0
0
0
0
0
0
0
0
0
0
0
0
0
0
0
0
0
0
0
0
0
0
0
0
0
0
0
0
0
0
0
0
0
0
0
0
0
0
0
0
0
0
0
0
0
0
0
0
0
0
0
0
0
0
0
0
0
0
0
0
0
0
0
0
0
0
0
0
0
0
0
0
0
0
0
0
0
0
0
0
0
0
0
0
0
0
0
0
0
0
0
0
0
0
0
0
0
0
0
0
0
0
0
0
0
0
0
0
0
0
0
0
0
0
0
0
0
0
0
0
0
0
0
0
0
0
0
0
0
0
0
0
0
0
0
0
0
0
0
0
0
0
0
0
0
0
0
0
0
0
0
)
;

boundaryField
{
    inlet
    {
        type            zeroGradient;
    }
    outlet
    {
        type            zeroGradient;
    }
    wall
    {
        type            zeroGradient;
    }
    procBoundary0to1
    {
        type            processor;
        value           nonuniform List<scalar> 
192
(
58441.9
113692
97096.6
258795
276368
235964
213295
335181
109546
331140
259729
150372
1.30987e+06
271242
193110
8.09456e+06
145437
203205
291404
127020
1.41702e+06
116177
404913
5.36019e+06
39347.3
57373.3
94419.1
104507
0
0
0
267.617
0
0
0
0
0
0
0
0
0
0
0
0
0
0
0
0
0
0
0
0
0
0
0
0
0
0
0
0
0
0
0
0
0
0
0
0
0
0
0
0
0
0
0
0
0
0
0
0
0
0
0
0
0
0
0
0
0
0
0
0
0
0
0
0
73991
131792
102549
92730.4
238345
269003
188356
184001
319073
241587
211567
6.73571e+06
769359
527021
160029
280651
322522
202052
174339
358938
5.12361e+06
123462
290773
247621
31251.3
37327.6
38346.8
24590.8
0
0
0
0
0
0
0
0
0
0
0
0
0
0
0
0
0
0
0
0
0
0
0
0
0
0
0
0
0
0
0
0
0
0
0
0
0
0
0
0
0
0
0
0
0
0
0
0
0
0
0
0
0
0
0
0
0
0
0
0
0
0
0
0
0
0
0
0
)
;
    }
    procBoundary0to2
    {
        type            processor;
        value           nonuniform List<scalar> 
192
(
167191
209664
139243
137566
167464
364651
205426
1.60972e+07
367402
273553
238221
104563
168573
2.17107e+06
277516
366259
2.37151e+06
192022
181431
121081
118427
288101
334624
1.07465e+06
85648.9
76439.7
70380.7
64575.2
0
0
0
0
0
0
0
0
0
0
0
0
0
0
0
0
0
0
0
0
0
0
0
0
0
0
0
0
0
0
0
0
0
0
0
0
0
0
0
0
0
0
0
0
0
0
0
0
0
0
0
0
0
0
0
0
0
0
0
0
0
0
0
0
0
0
0
0
119912
70382.8
159452
101393
385885
274021
1.10278e+06
552177
164039
93707.3
241023
131278
177505
152226
269981
229906
151907
269793
334749
155548
201623
85714.8
330932
170117
34319
14963.6
42013.9
21662.2
0
0
0
0
0
0
0
0
0
0
0
0
0
0
0
0
0
0
0
0
0
0
0
0
0
0
0
0
0
0
0
0
0
0
0
0
0
0
0
0
0
0
0
0
0
0
0
0
0
0
0
0
0
0
0
0
0
0
0
0
0
0
0
0
0
0
0
0
)
;
    }
}


// ************************************************************************* //
