/*--------------------------------*- C++ -*----------------------------------*\
| =========                 |                                                 |
| \\      /  F ield         | OpenFOAM: The Open Source CFD Toolbox           |
|  \\    /   O peration     | Version:  2506                                  |
|   \\  /    A nd           | Website:  www.openfoam.com                      |
|    \\/     M anipulation  |                                                 |
\*---------------------------------------------------------------------------*/
FoamFile
{
    version     2.0;
    format      ascii;
    arch        "LSB;label=32;scalar=64";
    class       volVectorField;
    location    "0.02";
    object      stored_U;
}
// * * * * * * * * * * * * * * * * * * * * * * * * * * * * * * * * * * * * * //

dimensions      [0 1 -1 0 0 0 0];

internalField   nonuniform List<vector> 
1152
(
(-0.000121849 5.51342e-06 0.00461208)
(0.000536385 0.000401548 0.0087005)
(-0.00164498 -0.000798842 0.00965595)
(0.00010147 -0.000202659 0.00266302)
(-0.000257789 0.000371112 0.00711637)
(-0.000786315 3.52111e-06 0.00797222)
(-0.000758789 7.94439e-05 0.00612698)
(0.000396988 0.000547439 0.00628087)
(0.000851391 0.000135509 0.0103869)
(-0.000203965 0.000639769 0.00673775)
(-0.000909032 0.00134127 0.00974008)
(-0.000325663 0.000704707 0.0104197)
(5.69912e-05 6.89179e-05 0.00671235)
(-0.000194544 -0.00161423 0.0166989)
(-0.00103758 -0.000855479 0.00882399)
(-0.000204674 2.12005e-05 0.00789295)
(-5.43594e-05 -0.000566619 0.00990503)
(-0.000627551 -0.0013355 0.0147952)
(8.72815e-05 0.000159189 0.0182877)
(-4.50697e-05 9.77834e-05 0.00263978)
(-0.000740501 -0.000762625 0.0150708)
(0.000607744 -0.000268457 0.0151629)
(0.000192702 7.33948e-05 0.0029338)
(-0.00072801 0.000378598 0.0101114)
(-0.000295438 -4.43035e-06 0.0082979)
(0.000112784 -0.000715855 0.0144001)
(0.00106296 -0.00164482 0.0191059)
(5.36063e-05 -3.15939e-05 0.00187234)
(-0.000930914 0.000816861 0.0124898)
(-0.000164682 0.000304461 0.00587278)
(0.000251272 0.000700543 0.0124669)
(0.000673355 0.000725402 0.00953431)
(-6.92324e-05 0.000362655 0.00713141)
(-0.00113368 -0.000341486 0.0107893)
(0.000621666 0.000208162 0.00555914)
(-3.06539e-05 0.000138288 0.000431603)
(-0.000233536 -0.00010933 0.00467779)
(-0.000166491 -0.000157183 0.00650819)
(0.00138781 0.000837795 0.0181964)
(-0.000236107 -0.000749531 0.0137687)
(-0.000897067 -0.00109352 0.0134892)
(-0.000362597 0.000858809 0.0132408)
(0.00052738 6.22803e-05 0.00534604)
(0.00202454 0.00284339 0.0263788)
(0.000108771 0.000212752 0.00848675)
(0.000792399 0.000723474 0.0235803)
(0.000556166 0.000314275 0.00556248)
(2.65583e-06 -8.73232e-06 0.00180045)
(0.000487553 0.000721001 0.0103551)
(-0.000110854 0.00146188 0.023841)
(-5.9127e-05 1.87844e-05 0.00819629)
(-0.000866686 0.000680869 0.0182337)
(0.00131654 0.000946964 0.0252525)
(-0.000235217 0.000381319 0.0107682)
(-0.000433545 0.000251071 0.016589)
(0.000817871 0.00160419 0.0141874)
(-0.000124404 0.000419323 0.00599933)
(-0.000262874 -0.000448634 0.0109696)
(0.000702038 0.000254814 0.0108653)
(-6.80647e-05 5.51905e-05 0.000632288)
(-3.80397e-05 -0.000201596 0.00524112)
(-0.00190687 -0.00020687 0.0234825)
(0.00113674 0.000179964 0.0143408)
(0.00316536 -0.00368172 0.029674)
(-0.000815063 0.000177383 0.0107027)
(0.000377904 -5.88659e-06 0.0053607)
(-0.000113942 -0.000207832 0.0061121)
(-0.000620579 -0.000453798 0.0120494)
(-0.000240093 0.000809369 0.00976579)
(0.000136423 0.000184939 0.0146474)
(-0.000151824 -0.0011839 0.0143652)
(0.000588807 -0.000117299 0.00798375)
(-0.00028751 0.000924019 0.0115906)
(-0.00144563 -0.00075102 0.0163963)
(-0.000215749 -9.30293e-05 0.00450557)
(0.000650119 -0.0020589 0.0280229)
(-0.00293194 -0.000144688 0.0250588)
(-0.000411395 -9.5343e-05 0.00497298)
(-0.000167845 -7.65864e-05 0.0058287)
(7.18029e-06 -2.16255e-06 0.00074026)
(-0.000147639 0.000252702 0.00380309)
(-0.00131874 -0.000337913 0.0148099)
(-0.000840246 -0.00123345 0.0104741)
(0.000364094 -0.00111641 0.0105876)
(-0.000770286 -0.000258264 0.00924408)
(-0.00129888 -0.000290904 0.00859445)
(-0.000849128 -0.000342532 0.00711291)
(8.19574e-05 -0.000231787 0.0106331)
(-0.000862263 -0.000496646 0.00898685)
(-0.00083087 -0.00057179 0.0103009)
(-0.000259569 -0.000301043 0.00450713)
(8.47216e-06 -0.000332516 0.0101277)
(-0.000516291 -0.000175699 0.0054398)
(-0.00138621 -0.000285784 0.00946633)
(-0.00081638 -0.00045254 0.00934859)
(-0.00130602 -0.000836528 0.0132859)
(0.000162225 -5.32431e-05 0.00587927)
(-5.39575e-05 1.89997e-05 0.00868255)
(0.000151358 4.01887e-05 0.00730961)
(2.59271e-05 0.00012207 0.00693224)
(0.000117296 -5.96926e-05 0.0095258)
(0.000182016 0.000206948 0.00913783)
(0.000188264 -7.90451e-05 0.00618746)
(-9.96496e-05 0.000208154 0.00223886)
(-0.000134354 9.47266e-05 0.00823056)
(0.000164289 0.000202645 0.00911855)
(6.00313e-05 -2.6069e-05 0.00453235)
(0.000146324 -0.000308161 0.0172276)
(0.000354507 0.000104708 0.0132976)
(6.67028e-05 0.00014979 0.00555647)
(0.000368369 -0.000690739 0.00274302)
(0.000516853 0.00070261 0.00726943)
(0.00023881 -0.000819293 0.0106687)
(-0.000115724 -0.000278177 0.0131656)
(-8.03411e-05 6.73134e-05 0.011132)
(-0.000239037 0.000130963 0.0108272)
(0.000295495 -0.000613766 0.0124861)
(0.000337236 -0.000240217 0.012328)
(0.000129951 -1.22952e-05 0.00893209)
(-2.90631e-05 -0.000316805 0.00700416)
(0.000385289 -0.000252418 0.0126661)
(0.000415456 6.04944e-05 0.0127266)
(-0.000148421 0.000163075 0.00892806)
(6.51826e-05 0.0001774 0.0168696)
(0.000478182 -0.000106928 0.015519)
(0.000735881 -8.09548e-06 0.0102949)
(0.000373456 5.60898e-05 0.00622515)
(0.000212576 0.000620029 0.0130919)
(0.000423464 0.000344958 0.00320724)
(0.000417736 0.000361184 0.00338911)
(0.00036463 0.000454335 0.00287942)
(3.1788e-05 0.000557837 0.00288566)
(0.000117568 0.000155782 0.00326334)
(0.000613292 0.000223216 0.00301312)
(0.000479518 0.000214598 0.00234482)
(-0.000101989 -0.000346851 0.00236245)
(-0.000108675 -5.16321e-05 0.00333656)
(0.000490863 0.000265498 0.00295515)
(-0.000176717 0.000178395 0.00235245)
(-0.000173824 -0.000369557 0.00358367)
(8.67611e-05 0.000139072 0.00370938)
(0.000829767 0.000344185 0.00262874)
(-0.000136602 5.40777e-07 0.00195899)
(-0.000420207 4.32405e-05 0.0029224)
(0.000202986 1.36861e-05 0.00689865)
(0.000202311 7.22307e-05 0.00686965)
(0.000132904 0.000151406 0.00654647)
(2.12268e-05 0.000216024 0.00655961)
(0.000155594 4.79848e-05 0.00673874)
(0.000279951 8.68035e-05 0.0066218)
(0.000169221 7.49624e-05 0.00625718)
(-1.36934e-05 -9.12521e-05 0.00627113)
(0.000108761 2.50465e-05 0.00670776)
(0.000240802 0.000103115 0.00659636)
(-3.74567e-05 6.02692e-05 0.00631194)
(-7.88795e-05 -0.000108564 0.00682127)
(0.000118793 9.93674e-05 0.00679029)
(0.000313353 0.000128869 0.00640496)
(-3.84638e-05 1.62359e-05 0.0061147)
(-0.000179202 1.24372e-05 0.00660544)
(0.000195795 8.59631e-05 0.00557865)
(0.00017757 6.44944e-05 0.00555777)
(0.000116889 6.82422e-05 0.00546653)
(7.29075e-05 8.04549e-05 0.00549332)
(0.000136534 9.77675e-05 0.00554823)
(0.000168309 7.32736e-05 0.00549233)
(0.000109406 4.43464e-05 0.00538133)
(4.93213e-05 -1.80365e-05 0.00540472)
(8.95363e-05 7.28996e-05 0.00555104)
(0.000128217 6.63198e-05 0.00549001)
(2.83325e-05 2.90133e-05 0.0054055)
(3.38148e-06 -4.13858e-05 0.00555407)
(6.60357e-05 7.26962e-05 0.00554416)
(0.000123725 6.07551e-05 0.00542496)
(2.3425e-06 9.77145e-06 0.00533935)
(-5.00993e-05 -1.35682e-05 0.00548138)
(8.94577e-05 1.14043e-05 0.00578171)
(8.73984e-05 9.74713e-06 0.00574427)
(6.54643e-05 1.54736e-05 0.00569611)
(5.61239e-05 2.27966e-05 0.0056937)
(7.30522e-05 3.34918e-05 0.0057485)
(8.44002e-05 2.37769e-05 0.00571144)
(6.3158e-05 1.21745e-05 0.00566234)
(4.63843e-05 -6.41028e-06 0.00566228)
(5.59506e-05 3.45012e-05 0.00573032)
(6.72341e-05 2.54884e-05 0.00569968)
(3.60694e-05 8.1513e-06 0.005666)
(2.63339e-05 -1.8159e-05 0.00570427)
(4.26534e-05 3.48672e-05 0.00570851)
(5.78366e-05 2.3294e-05 0.00566964)
(1.94971e-05 2.626e-06 0.00564171)
(3.07879e-06 -1.36926e-05 0.00568702)
(5.59953e-05 5.16195e-06 0.00571121)
(5.48156e-05 1.1928e-06 0.00570057)
(4.5614e-05 1.49792e-06 0.00568376)
(4.27799e-05 3.53466e-06 0.00567986)
(4.61194e-05 1.5932e-05 0.0057091)
(5.05792e-05 8.75316e-06 0.00569413)
(4.30304e-05 2.3936e-06 0.00567507)
(3.80797e-05 -4.66006e-06 0.00567113)
(3.67671e-05 1.76348e-05 0.00570356)
(4.15325e-05 1.01125e-05 0.00568997)
(3.24544e-05 9.89161e-07 0.00567656)
(2.88334e-05 -9.73055e-06 0.00568303)
(2.87958e-05 1.62267e-05 0.00569253)
(3.37724e-05 8.09536e-06 0.00567873)
(2.31801e-05 -1.6312e-06 0.00566842)
(1.87256e-05 -1.02314e-05 0.00568034)
(3.34775e-05 -2.18727e-07 0.00569255)
(3.45207e-05 -2.09503e-06 0.0056897)
(3.17499e-05 -2.4768e-06 0.00568183)
(3.10892e-05 -2.10597e-06 0.00567682)
(2.90772e-05 5.52324e-06 0.005697)
(3.2132e-05 1.80471e-06 0.00569009)
(3.02401e-05 -1.37309e-06 0.00568082)
(2.90419e-05 -4.38203e-06 0.00567569)
(2.44441e-05 7.2575e-06 0.00569494)
(2.7667e-05 2.79367e-06 0.00568828)
(2.57191e-05 -1.78509e-06 0.00568111)
(2.48967e-05 -6.42069e-06 0.00567934)
(2.01648e-05 6.42484e-06 0.0056896)
(2.30088e-05 1.60208e-06 0.0056839)
(2.09917e-05 -3.23618e-06 0.00567884)
(2.03955e-05 -7.48237e-06 0.00567985)
(2.1133e-05 -1.88515e-06 0.00568103)
(2.2763e-05 -2.72984e-06 0.00568361)
(2.23923e-05 -3.05587e-06 0.00568017)
(2.24284e-05 -3.06288e-06 0.00567609)
(1.90958e-05 9.72347e-07 0.00568909)
(2.15754e-05 -8.83915e-07 0.00568674)
(2.16458e-05 -2.4452e-06 0.00568174)
(2.15954e-05 -3.7904e-06 0.00567735)
(1.68076e-05 2.15864e-06 0.00568975)
(1.93344e-05 -2.73147e-07 0.00568659)
(1.95883e-05 -2.57069e-06 0.00568217)
(1.97897e-05 -4.67585e-06 0.00567898)
(1.46327e-05 1.75852e-06 0.00568774)
(1.68161e-05 -9.35771e-07 0.00568512)
(1.72262e-05 -3.40773e-06 0.00568182)
(1.77418e-05 -5.4999e-06 0.00567992)
(1.39003e-05 -2.27033e-06 0.0056745)
(1.54896e-05 -2.55947e-06 0.00568003)
(1.59174e-05 -2.72261e-06 0.00567896)
(1.61671e-05 -2.73658e-06 0.00567606)
(1.29794e-05 -8.90676e-07 0.00568402)
(1.49706e-05 -1.75825e-06 0.00568416)
(1.56145e-05 -2.49125e-06 0.0056813)
(1.59085e-05 -3.07483e-06 0.00567795)
(1.18794e-05 -1.24523e-07 0.00568616)
(1.38682e-05 -1.41268e-06 0.00568489)
(1.46715e-05 -2.55197e-06 0.00568197)
(1.51517e-05 -3.51735e-06 0.00567902)
(1.07624e-05 -2.60715e-07 0.00568586)
(1.25397e-05 -1.73958e-06 0.00568463)
(1.35033e-05 -3.01702e-06 0.0056822)
(1.42253e-05 -4.04918e-06 0.00567984)
(9.45351e-06 -2.1343e-06 0.00567045)
(1.07717e-05 -2.16902e-06 0.00567766)
(1.13737e-05 -2.20874e-06 0.00567799)
(1.16621e-05 -2.16858e-06 0.00567609)
(9.04299e-06 -1.48733e-06 0.00568057)
(1.05907e-05 -1.86228e-06 0.00568213)
(1.13006e-05 -2.18073e-06 0.00568053)
(1.16537e-05 -2.40649e-06 0.00567808)
(8.52492e-06 -9.99053e-07 0.00568347)
(1.00588e-05 -1.67108e-06 0.0056833)
(1.08793e-05 -2.23162e-06 0.00568132)
(1.13698e-05 -2.66939e-06 0.00567894)
(7.96546e-06 -9.9738e-07 0.00568398)
(9.36587e-06 -1.80527e-06 0.00568354)
(1.03007e-05 -2.47058e-06 0.00568172)
(1.09588e-05 -2.98079e-06 0.0056796)
(6.5634e-06 -1.81528e-06 0.00566788)
(7.58382e-06 -1.74789e-06 0.00567607)
(8.13572e-06 -1.72029e-06 0.00567729)
(8.39967e-06 -1.64433e-06 0.00567615)
(6.39203e-06 -1.52037e-06 0.00567823)
(7.55704e-06 -1.66105e-06 0.00568064)
(8.16925e-06 -1.77683e-06 0.00567985)
(8.48531e-06 -1.83597e-06 0.00567811)
(6.15808e-06 -1.21162e-06 0.00568148)
(7.31205e-06 -1.55585e-06 0.005682)
(7.99631e-06 -1.8254e-06 0.00568067)
(8.40919e-06 -2.01557e-06 0.00567885)
(5.88826e-06 -1.14814e-06 0.00568237)
(6.95447e-06 -1.59388e-06 0.00568244)
(7.71015e-06 -1.94134e-06 0.0056811)
(8.23626e-06 -2.19204e-06 0.00567937)
(4.60107e-06 -1.4584e-06 0.00566621)
(5.36031e-06 -1.35992e-06 0.00567501)
(5.80084e-06 -1.30297e-06 0.0056768)
(6.01591e-06 -1.21569e-06 0.00567622)
(4.54282e-06 -1.32982e-06 0.00567663)
(5.39703e-06 -1.36305e-06 0.00567958)
(5.87509e-06 -1.38366e-06 0.00567934)
(6.12605e-06 -1.37061e-06 0.00567811)
(4.44765e-06 -1.13032e-06 0.00568002)
(5.29532e-06 -1.30276e-06 0.005681)
(5.81852e-06 -1.42706e-06 0.00568014)
(6.13281e-06 -1.50207e-06 0.00567877)
(4.32328e-06 -1.04932e-06 0.00568106)
(5.11124e-06 -1.29955e-06 0.0056815)
(5.67714e-06 -1.48353e-06 0.00568054)
(6.068e-06 -1.6063e-06 0.00567919)
(3.21779e-06 -1.12052e-06 0.0056651)
(3.76493e-06 -1.02313e-06 0.00567428)
(4.09282e-06 -9.59159e-07 0.00567647)
(4.25448e-06 -8.7639e-07 0.00567628)
(3.21245e-06 -1.07003e-06 0.00567551)
(3.82147e-06 -1.05762e-06 0.00567883)
(4.17455e-06 -1.03872e-06 0.00567896)
(4.35841e-06 -9.99262e-07 0.00567811)
(3.18457e-06 -9.39458e-07 0.00567895)
(3.78845e-06 -1.02181e-06 0.00568025)
(4.16896e-06 -1.07343e-06 0.00567972)
(4.3932e-06 -1.09508e-06 0.0056787)
(3.13247e-06 -8.62821e-07 0.00568005)
(3.6967e-06 -1.00407e-06 0.00568075)
(4.10272e-06 -1.10162e-06 0.00568008)
(4.37406e-06 -1.16312e-06 0.00567905)
(2.20672e-06 -8.18363e-07 0.00566434)
(2.58473e-06 -7.37887e-07 0.00567377)
(2.81428e-06 -6.80537e-07 0.00567623)
(2.92833e-06 -6.10827e-07 0.00567631)
(2.22343e-06 -8.08068e-07 0.00567473)
(2.6395e-06 -7.81447e-07 0.00567829)
(2.88706e-06 -7.48992e-07 0.00567867)
(3.01444e-06 -7.03297e-07 0.00567809)
(2.22466e-06 -7.24403e-07 0.00567818)
(2.63859e-06 -7.60069e-07 0.00567969)
(2.90465e-06 -7.72436e-07 0.0056794)
(3.05516e-06 -7.67314e-07 0.00567863)
(2.20744e-06 -6.58846e-07 0.00567929)
(2.5985e-06 -7.3579e-07 0.00568018)
(2.88102e-06 -7.85449e-07 0.00567972)
(3.05572e-06 -8.14401e-07 0.00567892)
(1.43515e-06 -5.50945e-07 0.00566384)
(1.67928e-06 -4.92779e-07 0.00567342)
(1.82936e-06 -4.4851e-07 0.00567605)
(1.90388e-06 -3.96265e-07 0.00567632)
(1.45641e-06 -5.58943e-07 0.0056742)
(1.72262e-06 -5.32725e-07 0.00567791)
(1.88574e-06 -4.99893e-07 0.00567846)
(1.96841e-06 -4.60122e-07 0.00567806)
(1.46732e-06 -5.08522e-07 0.00567764)
(1.73498e-06 -5.19884e-07 0.00567929)
(1.90987e-06 -5.13845e-07 0.00567916)
(2.00415e-06 -4.98924e-07 0.00567856)
(1.4656e-06 -4.56556e-07 0.00567875)
(1.72214e-06 -4.95093e-07 0.00567976)
(1.90757e-06 -5.17631e-07 0.00567945)
(2.01166e-06 -5.29221e-07 0.0056788)
(8.24708e-07 -2.87412e-07 0.00566352)
(9.64746e-07 -2.51634e-07 0.0056732)
(1.05442e-06 -2.22659e-07 0.00567593)
(1.10012e-06 -1.89025e-07 0.00567632)
(8.41271e-07 -2.95141e-07 0.00567387)
(9.94565e-07 -2.746e-07 0.00567767)
(1.09162e-06 -2.49693e-07 0.00567833)
(1.14029e-06 -2.23221e-07 0.00567803)
(8.52985e-07 -2.63641e-07 0.0056773)
(1.00826e-06 -2.63459e-07 0.00567904)
(1.11037e-06 -2.54216e-07 0.00567901)
(1.16414e-06 -2.42574e-07 0.00567851)
(8.57746e-07 -2.27233e-07 0.00567841)
(1.00666e-06 -2.44134e-07 0.0056795)
(1.11299e-06 -2.52814e-07 0.00567927)
(1.17047e-06 -2.57171e-07 0.00567873)
(3.66892e-07 -8.39881e-10 0.0056633)
(4.43406e-07 2.3998e-08 0.00567303)
(5.0027e-07 4.45982e-08 0.00567582)
(5.35851e-07 6.39216e-08 0.00567627)
(3.83192e-07 1.92577e-08 0.00567365)
(4.65341e-07 3.76175e-08 0.0056775)
(5.22383e-07 5.39534e-08 0.00567822)
(5.56339e-07 6.82473e-08 0.00567799)
(3.97598e-07 5.06508e-08 0.0056771)
(4.77089e-07 5.83746e-08 0.00567888)
(5.33113e-07 6.59318e-08 0.0056789)
(5.67492e-07 7.20562e-08 0.00567847)
(4.07036e-07 7.4396e-08 0.00567821)
(4.81113e-07 7.33015e-08 0.00567935)
(5.36155e-07 7.30458e-08 0.00567917)
(5.70061e-07 7.17464e-08 0.00567868)
(0.00012272 -0.00156103 0.00907863)
(-0.00115568 -0.000788628 0.00960311)
(-0.0017205 -0.000466791 0.0107305)
(-0.00173868 5.49229e-05 0.00943356)
(0.000934153 -0.000153834 0.00606974)
(0.00143453 1.27379e-05 0.00967492)
(-2.62914e-05 -0.000723627 0.0100887)
(-0.000343629 -0.00108106 0.013327)
(0.000181941 -0.000109781 0.00752512)
(-1.96034e-05 -0.000651271 0.0123102)
(-0.000737008 -0.000108389 0.00858185)
(0.000115116 7.47851e-05 0.00378258)
(0.000505165 0.000398411 0.00631606)
(0.000637699 0.000496212 0.00491213)
(0.000503068 6.56398e-05 0.0105142)
(-0.00046644 0.000976999 0.0109247)
(-0.00140795 0.000398887 0.0169065)
(-0.00147835 -0.000588136 0.011431)
(3.72968e-06 -0.00082416 0.00890866)
(0.000297793 6.53321e-05 0.00607852)
(-0.000342858 -0.00027 0.00494475)
(-0.00195217 -0.00154994 0.016)
(-0.00026509 3.87847e-05 0.00863398)
(-0.000108963 6.10424e-05 0.00894841)
(-0.000455452 -0.00088665 0.0139126)
(8.464e-06 -0.000364177 0.0071507)
(0.000153229 -0.000244176 0.00701374)
(-0.000640855 -0.000228626 0.0105378)
(-6.18096e-05 0.000450202 0.00954069)
(-0.00107339 0.00156086 0.0131526)
(-0.000212147 0.000616262 0.012189)
(0.0002921 0.000488054 0.0105557)
(0.000360319 0.000312804 0.0222741)
(0.000643228 0.000676239 0.0143562)
(0.000248016 0.000292666 0.00739993)
(-0.00027821 0.000454437 0.0142175)
(-9.13525e-05 0.00129053 0.0178108)
(-4.47962e-05 0.00111429 0.0145872)
(7.21145e-06 0.000492619 0.0102532)
(0.000560933 0.000419388 0.0254689)
(5.91363e-05 0.000608272 0.0126999)
(0.000133121 -0.000294863 0.0146681)
(-0.000733726 -0.000668513 0.0174321)
(-0.000408992 -0.000113335 0.00560009)
(-0.00071834 0.000220847 0.00931142)
(-0.000366723 6.53108e-05 0.00490278)
(0.00015568 9.27639e-05 0.00552353)
(-0.000340814 0.000352091 0.0188757)
(-0.000108675 -0.000536906 0.0100234)
(0.000129098 6.04337e-05 0.00890932)
(-0.000941129 0.00063528 0.0145907)
(3.73789e-05 7.96505e-06 0.000620949)
(0.000127105 0.000188978 0.00231817)
(0.00110666 0.00175102 0.021209)
(-6.8929e-05 0.000384793 0.00971843)
(-0.000181589 0.00131532 0.0147863)
(-0.00118632 0.00127599 0.0157496)
(-0.000934514 0.00112348 0.0158121)
(3.77707e-05 0.00133287 0.0150309)
(-0.000213679 0.000302392 0.0120487)
(9.44176e-05 -0.000435635 0.0127975)
(4.92939e-05 -0.00022907 0.0045435)
(-0.000643371 -0.00031024 0.00914413)
(9.58892e-05 -0.000626895 0.0146967)
(-0.000329155 0.000968078 0.026592)
(0.000507831 0.00014756 0.00711838)
(0.00210788 0.00133278 0.0178575)
(-0.000358262 0.000438148 0.00664938)
(-0.000388359 1.57218e-05 0.00978109)
(0.000105615 0.000765297 0.0154961)
(0.000498687 0.000242904 0.00899539)
(-0.000725554 -6.18864e-05 0.014811)
(0.000295673 0.000860186 0.0202482)
(-8.03942e-05 0.000691142 0.00836093)
(0.000246683 0.000896573 0.0167575)
(0.000509022 0.000716462 0.0127296)
(0.000279858 0.000146597 0.00990951)
(0.000408319 0.000525778 0.0119296)
(-0.00014046 0.000190736 0.0148416)
(-0.000199095 -4.38675e-05 0.00780213)
(0.000420293 0.000634284 0.00586643)
(0.000210371 0.000582615 0.00321637)
(-0.000298324 0.00101607 0.00813423)
(-5.32575e-05 0.000907332 0.0136724)
(0.000608386 0.000928553 0.00600221)
(0.00102578 0.00124529 0.00832875)
(0.000149357 0.00069537 0.00954789)
(6.58881e-06 0.000121484 0.00979831)
(0.000405681 0.000525618 0.00634301)
(0.000631138 0.000391382 0.0110058)
(-0.000199824 0.000147399 0.00403218)
(-0.000612632 -0.00027341 0.00927838)
(0.000644472 9.24671e-05 0.0088779)
(0.000610112 -0.000109641 0.00493267)
(5.30296e-05 -0.00011418 0.00846827)
(-0.000823871 4.84919e-05 0.0117509)
(7.36557e-05 -0.000465824 0.0121946)
(-0.00233325 4.64707e-05 0.00560552)
(-0.000564766 8.12302e-05 0.0108832)
(0.00070043 4.66699e-05 0.00998017)
(0.00143161 0.00402738 -0.00107771)
(-7.26132e-05 -0.000498575 0.0111232)
(0.00162653 -0.00781541 0.00705247)
(0.00185291 -0.00249912 0.0115579)
(0.000971172 -0.00014476 0.0108183)
(0.00140921 0.000810369 0.0134868)
(0.000219218 -0.0015087 0.0078877)
(0.000759302 -0.000113229 0.00852377)
(-2.60891e-05 -0.000492339 0.00549319)
(0.00372875 -0.00234987 0.00520127)
(-0.000628279 -0.00193209 0.0110055)
(0.00103003 0.00180035 0.00585978)
(0.000103106 -0.000405594 0.0161681)
(-6.41759e-05 -0.00116582 0.0143484)
(-7.39615e-05 -0.00109315 0.0143428)
(0.000339706 -0.00101236 0.0130532)
(-0.000373344 -0.00146251 0.0143986)
(-0.000546513 -0.0020905 0.0161855)
(-9.27228e-05 -0.00177953 0.0113343)
(6.56136e-05 -0.00103586 0.0106462)
(-2.52389e-05 -0.00102647 0.0128596)
(0.000490915 -0.000517518 0.0127409)
(0.00115524 -0.000850217 0.00808456)
(0.000657816 -0.000311236 0.00837992)
(-0.000246467 -0.00085584 0.00751189)
(-0.000144528 -0.00124442 0.00964837)
(0.000402795 -0.000959418 0.00967372)
(0.000804791 -0.000790775 0.0106488)
(0.000217447 0.000177745 0.00388835)
(0.000490676 0.000340353 0.0038015)
(0.000520544 0.000546829 0.00380624)
(0.000518457 0.000547358 0.00360641)
(-0.000291209 0.00055337 0.00297744)
(0.000165575 0.000601615 0.00381843)
(0.000327872 0.000812622 0.00329807)
(-2.00438e-05 0.000575824 0.00328243)
(-0.000168433 0.000805882 0.00378406)
(0.000255665 0.000862539 0.00420478)
(0.000249239 0.000541454 0.00327779)
(-0.000318665 0.000217655 0.00318966)
(-0.00025181 0.000439287 0.00287317)
(-0.000291872 0.000352969 0.00303779)
(-0.000286348 0.000170234 0.00297758)
(-0.000566494 -7.51817e-06 0.00298891)
(0.000120466 -0.000100759 0.00739961)
(0.000200935 -7.39017e-05 0.00737684)
(0.000260241 3.28017e-05 0.00727419)
(0.000254109 6.82962e-05 0.00708713)
(-7.92998e-05 4.69504e-05 0.00695322)
(6.98292e-05 7.03546e-05 0.00711044)
(0.000209732 0.000190512 0.00684716)
(0.000139319 0.000145116 0.00672502)
(-7.18588e-05 0.000211469 0.00664546)
(9.09057e-05 0.000257704 0.00678782)
(0.000192909 0.000212995 0.00649932)
(5.29825e-05 0.000124304 0.00654465)
(-9.51306e-05 0.000274802 0.00606805)
(-6.06314e-05 0.00027035 0.00623784)
(1.76969e-05 0.000209027 0.0062537)
(-7.31125e-05 0.00013068 0.00644146)
(6.16289e-05 1.23577e-05 0.00549605)
(0.000130108 5.20858e-05 0.0056016)
(0.000160554 8.69861e-05 0.00563567)
(0.000177243 0.000103981 0.00561772)
(-3.24443e-05 0.00013667 0.00545201)
(5.20658e-05 0.000158501 0.00561056)
(9.70189e-05 0.000182381 0.00559002)
(0.000103042 0.00015684 0.00556376)
(-2.68957e-05 0.00017576 0.00546285)
(4.39475e-05 0.000189582 0.00561448)
(7.19417e-05 0.000173677 0.00555565)
(5.22648e-05 0.00013117 0.00554472)
(-1.44453e-05 0.000196229 0.00530129)
(1.37721e-05 0.000189483 0.00544291)
(1.78914e-05 0.000156794 0.00545476)
(-5.76545e-06 0.000114479 0.00548171)
(3.2685e-05 -2.14052e-05 0.00567989)
(5.6448e-05 -8.37434e-06 0.0057668)
(7.7887e-05 9.24649e-06 0.00580707)
(8.56548e-05 1.82664e-05 0.00580742)
(-7.91857e-06 3.74548e-05 0.00564251)
(2.61847e-05 4.55726e-05 0.00574322)
(5.5637e-05 5.58356e-05 0.00577048)
(6.53648e-05 5.00321e-05 0.00576629)
(-1.35699e-05 6.81234e-05 0.00559819)
(1.51859e-05 7.21955e-05 0.00570807)
(3.95821e-05 6.95078e-05 0.00572924)
(4.43004e-05 5.48384e-05 0.00573467)
(-6.75654e-06 9.51609e-05 0.00552613)
(8.95622e-06 8.9338e-05 0.00563173)
(2.04328e-05 7.49538e-05 0.00566957)
(2.04303e-05 5.55058e-05 0.0056916)
(1.94498e-05 -9.32971e-06 0.00551159)
(3.42903e-05 -2.59613e-06 0.00561683)
(4.50104e-05 3.54642e-06 0.00567808)
(5.14399e-05 7.13864e-06 0.00570483)
(-1.1154e-06 2.01769e-05 0.00553081)
(1.79327e-05 2.32778e-05 0.00564219)
(3.2333e-05 2.5918e-05 0.00569437)
(4.07729e-05 2.38233e-05 0.0057103)
(-4.95619e-06 3.45261e-05 0.00552812)
(1.0456e-05 3.46001e-05 0.00564431)
(2.35911e-05 3.30041e-05 0.0056913)
(3.08813e-05 2.70441e-05 0.0057047)
(-1.02188e-06 4.75986e-05 0.00550895)
(8.76944e-06 4.27209e-05 0.00562273)
(1.595e-05 3.56538e-05 0.00567107)
(2.01584e-05 2.64404e-05 0.00568824)
(1.1689e-05 -7.61587e-06 0.00547569)
(1.96453e-05 -4.61447e-06 0.00558058)
(2.60854e-05 -1.67181e-06 0.00564599)
(3.05271e-05 1.40444e-07 0.00567921)
(1.55865e-06 7.02341e-06 0.00549912)
(1.20709e-05 8.36709e-06 0.00560996)
(2.02603e-05 9.45677e-06 0.00566923)
(2.61442e-05 8.88801e-06 0.00569267)
(-1.33982e-06 1.57682e-05 0.00550648)
(7.62627e-06 1.51578e-05 0.00562084)
(1.53226e-05 1.41565e-05 0.00567515)
(2.09989e-05 1.16453e-05 0.00569325)
(4.16195e-07 2.28345e-05 0.00550282)
(6.63587e-06 1.96226e-05 0.00561674)
(1.17326e-05 1.59478e-05 0.00566907)
(1.58839e-05 1.15095e-05 0.00568674)
(7.53051e-06 -5.5078e-06 0.005451)
(1.2316e-05 -4.17179e-06 0.00555771)
(1.62272e-05 -2.84303e-06 0.00562603)
(1.92295e-05 -1.99337e-06 0.00566298)
(2.11914e-06 1.73822e-06 0.00547852)
(8.39924e-06 2.17541e-06 0.00559091)
(1.33174e-05 2.60979e-06 0.00565366)
(1.72987e-05 2.4914e-06 0.00568108)
(1.20851e-07 6.79526e-06 0.00549306)
(5.75068e-06 6.06973e-06 0.00560767)
(1.0546e-05 5.4217e-06 0.00566476)
(1.45744e-05 4.26997e-06 0.00568569)
(7.63614e-07 1.06354e-05 0.00549665)
(4.95624e-06 8.56395e-06 0.00561134)
(8.59295e-06 6.54867e-06 0.00566553)
(1.1891e-05 4.35605e-06 0.00568425)
(5.08748e-06 -4.1012e-06 0.00543845)
(8.07786e-06 -3.51852e-06 0.00554587)
(1.0564e-05 -2.90206e-06 0.0056155)
(1.26268e-05 -2.49953e-06 0.00565413)
(2.0524e-06 -4.7422e-07 0.00546684)
(5.97222e-06 -4.03036e-07 0.00558009)
(9.0594e-06 -2.35581e-07 0.00564449)
(1.1792e-05 -2.11763e-07 0.00567395)
(6.72414e-07 2.49332e-06 0.00548483)
(4.3659e-06 1.85972e-06 0.00559977)
(7.47606e-06 1.43838e-06 0.00565813)
(1.03151e-05 9.25635e-07 0.00568061)
(7.80434e-07 4.69909e-06 0.00549187)
(3.70667e-06 3.33629e-06 0.00560702)
(6.35037e-06 2.20859e-06 0.00566206)
(8.82255e-06 1.10365e-06 0.00568161)
(3.56108e-06 -3.07935e-06 0.00543124)
(5.49543e-06 -2.8378e-06 0.00553908)
(7.12744e-06 -2.55317e-06 0.00560938)
(8.57061e-06 -2.36133e-06 0.00564885)
(1.76402e-06 -1.23655e-06 0.00545979)
(4.30675e-06 -1.30515e-06 0.00557353)
(6.31567e-06 -1.24651e-06 0.00563879)
(8.21643e-06 -1.18197e-06 0.00566933)
(7.95115e-07 5.23168e-07 0.00547945)
(3.29681e-06 3.14494e-08 0.00559462)
(5.39612e-06 -2.40955e-07 0.00565364)
(7.40172e-06 -4.73585e-07 0.005677)
(6.96547e-07 1.86854e-06 0.00548818)
(2.7845e-06 9.6497e-07 0.00560354)
(4.6903e-06 3.00619e-07 0.00565903)
(6.52045e-06 -2.73309e-07 0.00567913)
(2.54691e-06 -2.3164e-06 0.00542696)
(3.83097e-06 -2.22851e-06 0.00553503)
(4.92484e-06 -2.09988e-06 0.0056057)
(5.93911e-06 -2.00667e-06 0.00564561)
(1.43197e-06 -1.36758e-06 0.00545544)
(3.1268e-06 -1.47148e-06 0.00556945)
(4.46892e-06 -1.45709e-06 0.00563517)
(5.80538e-06 -1.39002e-06 0.00566629)
(7.47186e-07 -3.02312e-07 0.00547583)
(2.47767e-06 -6.67468e-07 0.00559116)
(3.92142e-06 -8.52629e-07 0.00565055)
(5.34316e-06 -9.50106e-07 0.00567443)
(5.77415e-07 5.63323e-07 0.0054854)
(2.07662e-06 -4.94554e-08 0.00560086)
(3.45981e-06 -4.56913e-07 0.00565661)
(4.81329e-06 -7.61617e-07 0.00567708)
(1.83708e-06 -1.73067e-06 0.00542431)
(2.70839e-06 -1.70885e-06 0.00553251)
(3.45484e-06 -1.65321e-06 0.00560339)
(4.16313e-06 -1.60844e-06 0.00564354)
(1.11768e-06 -1.2351e-06 0.00545265)
(2.26953e-06 -1.33442e-06 0.00556682)
(3.18718e-06 -1.34047e-06 0.0056328)
(4.12858e-06 -1.28352e-06 0.00566426)
(6.31272e-07 -5.79998e-07 0.00547335)
(1.83707e-06 -8.44772e-07 0.00558878)
(2.84539e-06 -9.68346e-07 0.00564839)
(3.86023e-06 -1.00275e-06 0.00567258)
(4.57244e-07 2.80071e-09 0.0054833)
(1.5415e-06 -4.17227e-07 0.00559882)
(2.54453e-06 -6.74157e-07 0.00565474)
(3.53232e-06 -8.39983e-07 0.00567547)
(1.32026e-06 -1.27304e-06 0.00542261)
(1.91862e-06 -1.27627e-06 0.0055309)
(2.43296e-06 -1.2545e-06 0.00560191)
(2.91949e-06 -1.23417e-06 0.00564219)
(8.43253e-07 -1.0122e-06 0.00545083)
(1.63198e-06 -1.09499e-06 0.00556509)
(2.26851e-06 -1.10715e-06 0.00563122)
(2.92962e-06 -1.06448e-06 0.00566288)
(4.99395e-07 -6.05738e-07 0.00547162)
(1.3405e-06 -7.92197e-07 0.00558711)
(2.04743e-06 -8.74139e-07 0.00564686)
(2.76825e-06 -8.81323e-07 0.00567125)
(3.49914e-07 -2.02919e-07 0.00548176)
(1.12834e-06 -4.91143e-07 0.0055973)
(1.85071e-06 -6.56311e-07 0.00565333)
(2.56423e-06 -7.4712e-07 0.00567423)
(9.285e-07 -9.0915e-07 0.00542152)
(1.33588e-06 -9.19575e-07 0.00552985)
(1.68717e-06 -9.12209e-07 0.00560092)
(2.01291e-06 -9.0298e-07 0.00564128)
(6.11893e-07 -7.72491e-07 0.00544962)
(1.14658e-06 -8.36254e-07 0.00556394)
(1.58436e-06 -8.48903e-07 0.00563016)
(2.04035e-06 -8.19851e-07 0.00566193)
(3.72385e-07 -5.20824e-07 0.00547043)
(9.49593e-07 -6.49763e-07 0.00558596)
(1.43855e-06 -7.03152e-07 0.0056458)
(1.94108e-06 -7.00429e-07 0.00567031)
(2.55393e-07 -2.43672e-07 0.00548064)
(8.0159e-07 -4.36973e-07 0.0055962)
(1.31157e-06 -5.42662e-07 0.0056523)
(1.81366e-06 -5.93769e-07 0.00567331)
(6.15534e-07 -6.08116e-07 0.0054208)
(8.80677e-07 -6.18087e-07 0.00552917)
(1.11089e-06 -6.15576e-07 0.00560028)
(1.31866e-06 -6.10604e-07 0.00564068)
(4.13611e-07 -5.38948e-07 0.00544884)
(7.59875e-07 -5.82807e-07 0.00556319)
(1.0482e-06 -5.92466e-07 0.00562946)
(1.34763e-06 -5.74462e-07 0.0056613)
(2.56692e-07 -3.86945e-07 0.00546963)
(6.3303e-07 -4.7074e-07 0.00558519)
(9.54187e-07 -5.03513e-07 0.00564508)
(1.28673e-06 -4.9953e-07 0.00566967)
(1.73348e-07 -2.03161e-07 0.00547987)
(5.35966e-07 -3.26734e-07 0.00559544)
(8.75291e-07 -3.91055e-07 0.00565159)
(1.20787e-06 -4.2015e-07 0.00567267)
(3.46929e-07 -3.36879e-07 0.00542038)
(5.01967e-07 -3.38641e-07 0.00552876)
(6.37535e-07 -3.33295e-07 0.0055999)
(7.58817e-07 -3.2617e-07 0.00564031)
(2.34069e-07 -2.98126e-07 0.00544836)
(4.35035e-07 -3.19396e-07 0.00556273)
(6.03272e-07 -3.21054e-07 0.00562904)
(7.79431e-07 -3.08136e-07 0.00566091)
(1.46933e-07 -2.10667e-07 0.00546914)
(3.66503e-07 -2.54964e-07 0.00558472)
(5.53053e-07 -2.69198e-07 0.00564464)
(7.47757e-07 -2.63148e-07 0.00566927)
(1.00626e-07 -1.00036e-07 0.00547939)
(3.1361e-07 -1.66882e-07 0.00559497)
(5.12519e-07 -1.98695e-07 0.00565115)
(7.0705e-07 -2.10787e-07 0.00567227)
(1.06485e-07 -8.33246e-08 0.00542008)
(1.85888e-07 -7.12898e-08 0.00552848)
(2.58054e-07 -4.92258e-08 0.00559963)
(3.24402e-07 -2.78641e-08 0.00564006)
(6.19291e-08 -4.14605e-08 0.00544805)
(1.6283e-07 -3.75958e-08 0.00556244)
(2.52032e-07 -1.97224e-08 0.00562876)
(3.42099e-07 2.21517e-09 0.00566065)
(3.57587e-08 2.06295e-08 0.00546885)
(1.44072e-07 1.43381e-08 0.00558443)
(2.4112e-07 2.41622e-08 0.00564437)
(3.39011e-07 3.98331e-08 0.00566903)
(3.51859e-08 8.42239e-08 0.00547912)
(1.379e-07 6.73263e-08 0.00559471)
(2.36362e-07 6.73109e-08 0.0056509)
(3.3139e-07 7.26176e-08 0.00567205)
(-0.00168767 -0.000700058 0.0108221)
(-0.000301563 0.000365973 0.00493241)
(-0.000365278 0.000366059 0.00905525)
(0.000179804 0.000288052 0.00415064)
(-0.000846007 -0.000956544 0.00721894)
(-0.000243841 -5.62231e-05 0.013545)
(-3.86375e-05 0.000427187 0.00755764)
(-3.33786e-06 0.00058689 0.00664951)
(-0.000285925 -0.000224671 0.00786545)
(8.7533e-05 -0.000877205 0.0069839)
(0.00028264 -0.000495067 0.00845685)
(-9.45909e-06 -0.000579677 0.011626)
(-0.000289221 -0.000446658 0.00837418)
(-0.000175686 -8.18441e-05 0.00793914)