/*--------------------------------*- C++ -*----------------------------------*\
| =========                 |                                                 |
| \\      /  F ield         | OpenFOAM: The Open Source CFD Toolbox           |
|  \\    /   O peration     | Version:  2506                                  |
|   \\  /    A nd           | Website:  www.openfoam.com                      |
|    \\/     M anipulation  |                                                 |
\*---------------------------------------------------------------------------*/
FoamFile
{
    version     2.0;
    format      ascii;
    arch        "LSB;label=32;scalar=64";
    class       volVectorField;
    location    "0.02";
    object      U;
}
// * * * * * * * * * * * * * * * * * * * * * * * * * * * * * * * * * * * * * //

dimensions      [0 1 -1 0 0 0 0];

internalField   nonuniform List<vector> 
1152
(
(-6.30018e-05 1.65277e-05 0.00473906)
(0.000678858 0.000509061 0.00884197)
(-0.00148109 -0.00060124 0.00979565)
(0.000176614 -0.00017711 0.00270634)
(-0.00014834 0.000443985 0.00723948)
(-0.000689478 7.45989e-05 0.00810597)
(-0.000647847 0.000156493 0.00624013)
(0.000482738 0.000652418 0.00640134)
(0.00104905 0.000205684 0.0105026)
(-1.48308e-05 0.000538284 0.00684192)
(-0.000671704 0.00141166 0.00990371)
(-0.000194291 0.000786749 0.0107702)
(0.00019268 2.88613e-05 0.00677954)
(0.000170265 -0.00177122 0.0168998)
(-0.000860484 -0.000917905 0.00894786)
(-4.78815e-05 8.64541e-05 0.00805264)
(-4.94453e-06 -0.000572865 0.00982036)
(-0.000549555 -0.00126274 0.0150743)
(0.000106591 0.000435982 0.0186855)
(-3.70415e-05 7.59244e-05 0.00263938)
(-0.000665311 -0.000763647 0.0153778)
(0.000753788 -0.000201012 0.0155232)
(0.000213854 7.07771e-05 0.00296627)
(-0.000644841 0.000567707 0.0105776)
(-0.000170265 4.57541e-06 0.00838097)
(0.000307117 -0.000696814 0.0146552)
(0.0015154 -0.00160688 0.0195999)
(3.4759e-05 -7.97374e-05 0.00191221)
(-0.000843424 0.000811935 0.0126594)
(-0.000133267 0.000257252 0.00593722)
(0.000517182 0.000587507 0.012665)
(0.000799625 0.000851583 0.0098116)
(-6.56809e-05 0.000392704 0.00722263)
(-0.00107654 -0.000293225 0.0109281)
(0.000715704 0.000248045 0.00556965)
(-3.65273e-06 2.51081e-05 0.000447013)
(-0.000257687 -0.000117492 0.00470944)
(-8.42965e-05 -0.000139746 0.00656713)
(0.00205991 0.00110952 0.0184205)
(-0.000190529 -0.000400135 0.0138168)
(-0.000826049 -0.00110086 0.0136342)
(-0.000129867 0.000836202 0.0133318)
(0.000698223 -3.51969e-05 0.0053677)
(0.00235231 0.00253281 0.0272082)
(0.00012772 0.00022279 0.00859153)
(0.00102224 0.000619599 0.0239219)
(0.000688956 0.000186879 0.00565387)
(6.14891e-05 -0.000118573 0.00180533)
(0.00060872 0.000767165 0.0103789)
(6.21577e-05 0.00162626 0.0240236)
(-1.41508e-05 9.89312e-06 0.00823625)
(-0.000694 0.00100898 0.0182962)
(0.0014483 0.00105154 0.0254571)
(-0.000174387 0.000384465 0.0107832)
(-0.000268269 0.000289194 0.0164626)
(0.000990555 0.0020525 0.0137848)
(-0.000165792 0.000420956 0.00603191)
(-0.000231073 -0.000491685 0.011254)
(0.00108499 0.000267354 0.0107485)
(-4.63822e-05 5.60303e-05 0.000593822)
(-3.56182e-05 -0.000139271 0.00528026)
(-0.00165813 -0.000220945 0.0235967)
(0.00147244 5.42948e-05 0.0142077)
(0.00423303 -0.00504081 0.0285909)
(-0.000817559 0.000257112 0.0108354)
(0.000348823 -1.97625e-05 0.00534496)
(-0.000141087 -0.000262981 0.00613536)
(-0.000569043 -0.000575099 0.0120784)
(-0.000254801 0.000887589 0.00990033)
(0.000115558 0.000156723 0.0147875)
(-0.000228458 -0.001383 0.014564)
(0.00060329 -0.000369608 0.00800991)
(-0.000235538 0.000945656 0.0117804)
(-0.00154769 -0.000772596 0.0163085)
(-0.000362167 -0.000190211 0.00450908)
(0.000763679 -0.00290421 0.0269448)
(-0.00288286 -0.000271539 0.0254277)
(-0.000553293 -0.000116118 0.00505012)
(-0.000464563 -0.000104214 0.0057848)
(-0.000115654 5.20205e-05 0.000764532)
(-0.000309634 0.000286349 0.00384561)
(-0.0013491 -0.00035082 0.0149058)
(-0.000836483 -0.00134538 0.0105669)
(0.000459233 -0.00125397 0.0107552)
(-0.000774279 -0.000276653 0.00935939)
(-0.00130332 -0.000348936 0.00869198)
(-0.00088648 -0.000387425 0.00714082)
(7.38488e-05 -0.00038375 0.0108552)
(-0.000879493 -0.000376632 0.00918384)
(-0.000999467 -0.000568168 0.0107219)
(-0.000316621 -0.000339126 0.00470187)
(-3.62428e-05 -0.00074643 0.0105075)
(-0.000590968 -0.000126365 0.00559716)
(-0.0015422 -0.000211308 0.00981269)
(-0.00123176 -0.000458596 0.00968504)
(-0.00126427 -0.000801889 0.0136181)
(0.000255514 -0.000138373 0.0059528)
(-6.84464e-05 -4.67246e-05 0.00877898)
(5.10503e-05 -5.42286e-05 0.00736121)
(-0.000166363 3.06152e-05 0.00706362)
(0.00011785 -6.56691e-05 0.00955082)
(0.000157981 0.000155569 0.00922857)
(6.22768e-05 2.56372e-05 0.00624398)
(-0.000477632 -4.8305e-06 0.00232609)
(-0.000222928 0.000136882 0.0081372)
(8.75706e-05 0.000154764 0.00920796)
(-4.37036e-06 7.96195e-05 0.00477206)
(4.52315e-05 -0.00051536 0.0178506)
(0.000112491 0.000277827 0.0133714)
(0.000243755 -3.9403e-05 0.00568359)
(0.000492625 -0.000502114 0.00295602)
(0.000418102 0.000631633 0.00839933)
(0.000248996 -0.000843091 0.0108025)
(-0.000114185 -0.000273577 0.0132682)
(-7.90829e-05 6.87992e-05 0.0113354)
(-0.000226884 0.000132584 0.0110153)
(0.000317792 -0.000602661 0.0127705)
(0.00034084 -0.00022889 0.0125412)
(0.000140828 -2.33475e-05 0.00920056)
(-9.9148e-07 -0.000322341 0.0072603)
(0.000390816 -0.000240294 0.0126782)
(0.00038994 6.8953e-05 0.0127931)
(-0.000160526 0.000136876 0.00906925)
(0.000118699 0.000136927 0.0173583)
(0.000529146 -9.20549e-05 0.0153729)
(0.000698893 -2.716e-07 0.0102738)
(0.000339564 5.80048e-05 0.00650979)
(0.000281153 0.000652542 0.0137429)
(0.000429949 0.000345309 0.00325262)
(0.000412306 0.000359117 0.00343542)
(0.00036548 0.000442974 0.00293052)
(4.36802e-05 0.000535594 0.0029329)
(0.000116511 0.000172578 0.00333167)
(0.000599984 0.000227777 0.00307802)
(0.000475079 0.000209657 0.0023986)
(-9.10733e-05 -0.000376006 0.00239908)
(-0.000128139 -2.34124e-05 0.00338491)
(0.000460618 0.000277987 0.0030155)
(-0.000209218 0.00018514 0.00241474)
(-0.000165143 -0.000376813 0.00365912)
(8.37989e-05 0.000147974 0.00375279)
(0.000793844 0.000337309 0.00267365)
(-0.00016066 4.34355e-06 0.00202681)
(-0.000403926 7.53845e-05 0.00300864)
(0.000201126 1.31835e-05 0.0069976)
(0.000198826 7.44755e-05 0.00696706)
(0.000131088 0.000153782 0.0066466)
(2.18618e-05 0.00021684 0.006653)
(0.000153786 5.46711e-05 0.0068414)
(0.000276739 9.27361e-05 0.00672553)
(0.000166735 8.00473e-05 0.00636249)
(-1.40333e-05 -9.31459e-05 0.00637178)
(0.000103274 3.59231e-05 0.00679607)
(0.000234864 0.00011207 0.00669276)
(-4.69304e-05 6.91707e-05 0.00641601)
(-8.02055e-05 -0.00010217 0.00693791)
(0.000116282 0.000105788 0.00687223)
(0.000307878 0.000133225 0.00649807)
(-4.34145e-05 2.27659e-05 0.00621579)
(-0.000179835 2.56443e-05 0.00671599)
(0.000194056 8.86059e-05 0.00566882)
(0.000175014 6.76033e-05 0.00564785)
(0.000114108 7.09024e-05 0.00555668)
(6.96267e-05 8.2102e-05 0.00558158)
(0.000134426 0.000102898 0.00563919)
(0.000165234 7.78181e-05 0.00558288)
(0.000105586 4.83702e-05 0.00547115)
(4.46685e-05 -1.67856e-05 0.00549341)
(8.61345e-05 7.90625e-05 0.0056376)
(0.000124291 7.15005e-05 0.00557694)
(2.23005e-05 3.40056e-05 0.00549282)
(-2.50493e-06 -3.75141e-05 0.00564455)
(6.26959e-05 7.71457e-05 0.00562836)
(0.000119425 6.43269e-05 0.0055099)
(-2.75322e-06 1.30409e-05 0.00542382)
(-5.61572e-05 -9.2043e-06 0.00556677)
(8.73781e-05 1.33349e-05 0.00587569)
(8.44875e-05 1.17937e-05 0.00583849)
(6.18096e-05 1.72196e-05 0.00579031)
(5.14868e-05 2.40854e-05 0.00578744)
(7.07905e-05 3.65286e-05 0.00584214)
(8.11121e-05 2.65278e-05 0.00580525)
(5.89073e-05 1.44636e-05 0.00575609)
(4.09244e-05 -5.08577e-06 0.00575601)
(5.32212e-05 3.77761e-05 0.00582215)
(6.34714e-05 2.83545e-05 0.00579185)
(3.09901e-05 1.06328e-05 0.00575806)
(1.99904e-05 -1.64994e-05 0.00579768)
(3.96624e-05 3.74516e-05 0.00579895)
(5.37625e-05 2.54993e-05 0.0057607)
(1.40485e-05 4.37055e-06 0.00573261)
(-3.9284e-06 -1.2249e-05 0.00577842)
(5.40917e-05 6.64871e-06 0.00580462)
(5.20784e-05 2.4986e-06 0.00579453)
(4.20213e-05 2.57072e-06 0.00577801)
(3.83891e-05 4.24289e-06 0.00577443)
(4.39478e-05 1.78864e-05 0.00580234)
(4.75547e-05 1.04098e-05 0.00578776)
(3.90799e-05 3.50821e-06 0.00576897)
(3.29573e-05 -3.8943e-06 0.00576544)
(3.42416e-05 1.95332e-05 0.00579609)
(3.79101e-05 1.17252e-05 0.00578288)
(2.7971e-05 2.21806e-06 0.00576975)
(2.33707e-05 -9.03589e-06 0.00577695)
(2.59958e-05 1.77805e-05 0.00578435)
(3.00743e-05 9.42937e-06 0.00577098)
(1.83216e-05 -4.93246e-07 0.00576098)
(1.25232e-05 -9.62291e-06 0.00577364)
(3.1587e-05 6.56212e-07 0.00578667)
(3.19808e-05 -1.40519e-06 0.0057844)
(2.85955e-05 -2.0013e-06 0.00577696)
(2.73143e-05 -1.89691e-06 0.0057725)
(2.70244e-05 6.67702e-06 0.00579106)
(2.93364e-05 2.75367e-06 0.00578462)
(2.67429e-05 -7.42992e-07 0.00577571)
(2.47941e-05 -4.10023e-06 0.00577114)
(2.21576e-05 8.33513e-06 0.0057887)
(2.45802e-05 3.67559e-06 0.0057825)
(2.18938e-05 -1.17632e-06 0.00577586)
(2.03114e-05 -6.15082e-06 0.00577464)
(1.76572e-05 7.3091e-06 0.00578297)
(1.97462e-05 2.33412e-06 0.00577772)
(1.68862e-05 -2.69378e-06 0.0057731)
(1.54552e-05 -7.21371e-06 0.00577486)
(1.94683e-05 -1.35775e-06 0.0057757)
(2.05839e-05 -2.38252e-06 0.00577893)
(1.97559e-05 -2.86752e-06 0.005776)
(1.93545e-05 -3.05814e-06 0.00577244)
(1.72932e-05 1.6697e-06 0.0057839)
(1.9196e-05 -3.42441e-07 0.00578207)
(1.87608e-05 -2.11788e-06 0.00577753)
(1.8215e-05 -3.72265e-06 0.0057737)
(1.48406e-05 2.79414e-06 0.00578448)
(1.6773e-05 2.25094e-07 0.00578179)
(1.64745e-05 -2.26481e-06 0.00577787)
(1.61645e-05 -4.60783e-06 0.00577527)
(1.24994e-05 2.27832e-06 0.00578229)
(1.41089e-05 -5.22464e-07 0.00578014)
(1.39134e-05 -3.12602e-06 0.00577735)
(1.39208e-05 -5.37125e-06 0.00577612)
(1.25071e-05 -1.93508e-06 0.00576969)
(1.37031e-05 -2.37856e-06 0.00577588)
(1.37934e-05 -2.65239e-06 0.00577532)
(1.37462e-05 -2.78685e-06 0.0057729)
(1.14771e-05 -4.43111e-07 0.00577947)
(1.30352e-05 -1.42678e-06 0.00578013)
(1.33192e-05 -2.30831e-06 0.00577773)
(1.32811e-05 -3.06373e-06 0.00577487)
(1.02579e-05 2.71604e-07 0.00578165)
(1.18098e-05 -1.10663e-06 0.00578084)
(1.22239e-05 -2.37424e-06 0.00577837)
(1.23569e-05 -3.49016e-06 0.00577596)
(9.03556e-06 5.48824e-08 0.00578129)
(1.03874e-05 -1.496e-06 0.00578051)
(1.09309e-05 -2.86249e-06 0.00577855)
(1.13019e-05 -3.99399e-06 0.00577678)
(8.32975e-06 -1.90343e-06 0.00576609)
(9.35367e-06 -2.05989e-06 0.00577394)
(9.70859e-06 -2.17696e-06 0.00577474)
(9.79996e-06 -2.21519e-06 0.00577326)
(7.83903e-06 -1.17989e-06 0.00577654)
(9.06382e-06 -1.63881e-06 0.00577859)
(9.5186e-06 -2.05859e-06 0.0057774)
(9.65202e-06 -2.39332e-06 0.00577537)
(7.23735e-06 -7.3335e-07 0.00577954)
(8.45094e-06 -1.46464e-06 0.00577979)
(9.00129e-06 -2.10616e-06 0.0057782)
(9.25466e-06 -2.62908e-06 0.00577627)
(6.60698e-06 -7.93696e-07 0.00578005)
(7.70008e-06 -1.64852e-06 0.00578001)
(8.35399e-06 -2.37418e-06 0.00577858)
(8.75451e-06 -2.9541e-06 0.00577693)
(5.68388e-06 -1.6445e-06 0.00576389)
(6.48627e-06 -1.67099e-06 0.00577269)
(6.86104e-06 -1.69849e-06 0.00577433)
(6.99472e-06 -1.6751e-06 0.00577355)
(5.45527e-06 -1.29882e-06 0.0057746)
(6.38046e-06 -1.49987e-06 0.00577747)
(6.81252e-06 -1.6863e-06 0.00577703)
(6.98612e-06 -1.81934e-06 0.00577562)
(5.16195e-06 -1.0234e-06 0.00577798)
(6.08046e-06 -1.40826e-06 0.00577888)
(6.57497e-06 -1.73245e-06 0.00577788)
(6.83519e-06 -1.97654e-06 0.0057764)
(4.84248e-06 -1.00895e-06 0.00577889)
(5.68362e-06 -1.48298e-06 0.00577931)
(6.24587e-06 -1.86868e-06 0.00577829)
(6.60552e-06 -2.16243e-06 0.00577692)
(3.93024e-06 -1.32757e-06 0.00576251)
(4.52874e-06 -1.30223e-06 0.00577188)
(4.84445e-06 -1.28625e-06 0.00577406)
(4.97353e-06 -1.23612e-06 0.00577378)
(3.82914e-06 -1.16652e-06 0.00577329)
(4.50701e-06 -1.24408e-06 0.00577667)
(4.85832e-06 -1.31662e-06 0.00577673)
(5.01825e-06 -1.35843e-06 0.00577578)
(3.68952e-06 -9.93485e-07 0.00577684)
(4.36543e-06 -1.19582e-06 0.00577815)
(4.75374e-06 -1.36102e-06 0.00577756)
(4.97523e-06 -1.47807e-06 0.00577646)
(3.5296e-06 -9.50528e-07 0.00577792)
(4.15118e-06 -1.21873e-06 0.00577866)
(4.57817e-06 -1.42572e-06 0.00577795)
(4.87791e-06 -1.57006e-06 0.00577688)
(2.71797e-06 -1.02069e-06 0.00576163)
(3.14845e-06 -9.80265e-07 0.00577135)
(3.38923e-06 -9.48265e-07 0.00577388)
(3.49556e-06 -8.92996e-07 0.00577395)
(2.67736e-06 -9.47659e-07 0.00577242)
(3.16068e-06 -9.69153e-07 0.00577612)
(3.42508e-06 -9.90152e-07 0.00577651)
(3.55222e-06 -9.92092e-07 0.00577589)
(2.61373e-06 -8.37992e-07 0.00577602)
(3.09672e-06 -9.44118e-07 0.00577762)
(3.38289e-06 -1.02749e-06 0.00577731)
(3.55154e-06 -1.08294e-06 0.0057765)
(2.53513e-06 -7.91619e-07 0.00577717)
(2.98093e-06 -9.46614e-07 0.00577813)
(3.28822e-06 -1.05917e-06 0.00577767)
(3.51228e-06 -1.13149e-06 0.00577685)
(1.84529e-06 -7.44054e-07 0.00576106)
(2.14263e-06 -7.05478e-07 0.005771)
(2.31383e-06 -6.73056e-07 0.00577377)
(2.39401e-06 -6.24303e-07 0.00577407)
(1.83228e-06 -7.13358e-07 0.00577183)
(2.16426e-06 -7.12544e-07 0.00577575)
(2.35143e-06 -7.11952e-07 0.00577636)
(2.44449e-06 -6.98512e-07 0.00577597)
(1.80457e-06 -6.43549e-07 0.00577545)
(2.1378e-06 -6.99319e-07 0.00577723)
(2.33923e-06 -7.3899e-07 0.00577713)
(2.45679e-06 -7.62363e-07 0.00577653)
(1.76682e-06 -6.04714e-07 0.00577661)
(2.07621e-06 -6.94443e-07 0.00577774)
(2.28996e-06 -7.57408e-07 0.00577746)
(2.43927e-06 -7.96971e-07 0.00577683)
(1.18993e-06 -4.97346e-07 0.0057607)
(1.38301e-06 -4.66978e-07 0.00577078)
(1.49606e-06 -4.41054e-07 0.00577371)
(1.5516e-06 -4.0424e-07 0.00577417)
(1.18824e-06 -4.846e-07 0.00577145)
(1.40295e-06 -4.76989e-07 0.0057755)
(1.52632e-06 -4.69839e-07 0.00577626)
(1.58925e-06 -4.54172e-07 0.00577602)
(1.17742e-06 -4.40809e-07 0.00577506)
(1.39371e-06 -4.69273e-07 0.00577697)
(1.52621e-06 -4.87176e-07 0.00577701)
(1.60233e-06 -4.94809e-07 0.00577655)
(1.16048e-06 -4.13277e-07 0.00577622)
(1.36163e-06 -4.6397e-07 0.00577746)
(1.50189e-06 -4.99284e-07 0.0057773)
(1.5929e-06 -5.22328e-07 0.0057768)
(6.82218e-07 -2.54242e-07 0.00576048)
(7.95064e-07 -2.33525e-07 0.00577065)
(8.6387e-07 -2.15801e-07 0.00577367)
(9.00201e-07 -1.92153e-07 0.00577422)
(6.8482e-07 -2.44494e-07 0.00577121)
(8.10356e-07 -2.35778e-07 0.00577535)
(8.84392e-07 -2.28039e-07 0.0057762)
(9.24153e-07 -2.15975e-07 0.00577605)
(6.83379e-07 -2.15246e-07 0.00577481)
(8.09134e-07 -2.27432e-07 0.0057768)
(8.87914e-07 -2.34129e-07 0.00577692)
(9.33661e-07 -2.35085e-07 0.00577656)
(6.78467e-07 -1.97738e-07 0.00577597)
(7.94262e-07 -2.22705e-07 0.00577727)
(8.77363e-07 -2.4039e-07 0.00577719)
(9.28428e-07 -2.52899e-07 0.00577678)
(3.2308e-07 6.20736e-09 0.0057603)
(3.9158e-07 2.65077e-08 0.00577052)
(4.4135e-07 4.29353e-08 0.00577359)
(4.73976e-07 5.89373e-08 0.0057742)
(3.3498e-07 3.32246e-08 0.00577103)
(4.08132e-07 4.69407e-08 0.00577522)
(4.57941e-07 5.76564e-08 0.00577612)
(4.89513e-07 6.74638e-08 0.00577603)
(3.44771e-07 6.35529e-08 0.00577464)
(4.14807e-07 6.66056e-08 0.00577667)
(4.63969e-07 6.89917e-08 0.00577685)
(4.9604e-07 7.14133e-08 0.00577654)
(3.50941e-07 7.95831e-08 0.0057758)
(4.14165e-07 7.57837e-08 0.00577715)
(4.62902e-07 7.22927e-08 0.00577712)
(4.94498e-07 6.80376e-08 0.00577676)
(0.000129051 -0.00158303 0.00917108)
(-0.00115552 -0.000802034 0.00974222)
(-0.00167806 -0.000484255 0.0109022)
(-0.00168684 7.36534e-05 0.00959855)
(0.000937201 -0.00013648 0.0061402)
(0.00147036 4.56068e-05 0.0098168)
(5.32826e-05 -0.000715321 0.010231)
(-0.000190001 -0.00101632 0.0135276)
(0.000202119 -0.000119787 0.00764476)
(5.91299e-05 -0.000656181 0.0124757)
(-0.000611387 -9.99323e-05 0.00871786)
(0.000175008 0.000100129 0.00407639)
(0.000528244 0.000420538 0.00639861)
(0.000672962 0.000518465 0.0049879)
(0.000634425 6.37429e-05 0.0106182)
(-0.000281638 0.000981032 0.0110821)
(-0.00143895 0.00041943 0.0171291)
(-0.00149705 -0.000591607 0.0115935)
(1.49982e-05 -0.000813396 0.00907063)
(0.000309301 2.62798e-05 0.00614435)
(-0.000325142 -0.000270256 0.00501858)
(-0.00196003 -0.00157152 0.0162665)
(-0.000279884 6.67757e-05 0.00876242)
(-4.62584e-05 6.73418e-05 0.00906151)
(-0.000476322 -0.000879075 0.0140907)
(-5.26576e-07 -0.000378323 0.00725557)
(0.000153336 -0.000198211 0.00711044)
(-0.000542042 -0.000192157 0.0102843)
(-8.91332e-05 0.000494974 0.00969754)
(-0.00103495 0.00157999 0.0133243)
(-0.0001814 0.000642217 0.0123419)
(0.000341563 0.000562586 0.010702)
(0.000319695 0.000355562 0.0225794)
(0.000636047 0.000677336 0.0145704)
(0.000287773 0.000289965 0.00750527)
(-0.000254171 0.000504729 0.0143612)
(-0.000102391 0.0012988 0.0180277)
(-3.02327e-05 0.0011354 0.0147926)
(4.17097e-05 0.000507569 0.0103416)
(0.000655001 0.000489406 0.0257076)
(4.89419e-05 0.00060343 0.0129162)
(0.000157872 -0.000297765 0.0147953)
(-0.000641143 -0.00064409 0.0176258)
(-0.000405811 -0.000110517 0.00565248)
(-0.00071853 0.000224692 0.00942786)
(-0.000353029 4.139e-05 0.00497584)
(0.000154421 9.52262e-05 0.00559126)
(-0.000219496 0.000317116 0.0191673)
(-7.93682e-05 -0.00061325 0.0101906)
(0.000121338 -1.22612e-05 0.00902409)
(-0.000994255 0.000620734 0.0147796)
(3.70355e-05 -1.02493e-05 0.000610608)
(9.28031e-05 0.000241985 0.00232394)
(0.00114511 0.0017864 0.0214157)
(-2.67416e-05 0.000373459 0.00978756)
(-0.000141287 0.00142225 0.014868)
(-0.00121095 0.00130313 0.0158841)
(-0.000916238 0.00111466 0.015965)
(8.03033e-05 0.0013159 0.0151367)
(-0.000180945 0.000303199 0.0121227)
(9.78155e-05 -0.000410801 0.0129816)
(2.74814e-05 -0.000213858 0.00461978)
(-0.000700307 -0.000347531 0.00921411)
(0.000156547 -0.000649109 0.0148826)
(-0.000377513 0.00104125 0.0269054)
(0.000516246 0.000196757 0.00722823)
(0.0021357 0.00134107 0.0179417)
(-0.000358038 0.000396978 0.00669415)
(-0.000412257 9.13094e-05 0.00973623)
(8.98978e-05 0.00075253 0.0157423)
(0.000523059 0.000206482 0.00907857)
(-0.000769382 -7.5349e-05 0.0149412)
(0.000331499 0.000854461 0.0204774)
(-6.79668e-05 0.000638986 0.00839179)
(0.000267105 0.000843588 0.0169285)
(0.000532124 0.000726917 0.0128909)
(0.000237076 0.000181619 0.00997938)
(0.000314209 0.000617434 0.012035)
(-0.000210926 0.000102692 0.0149566)
(-0.000226563 -0.000108623 0.00791653)
(0.000373874 0.000696023 0.00591211)
(0.000217361 0.00057902 0.00324888)
(-0.00020925 0.000862222 0.00814943)
(-3.60733e-05 0.00084449 0.0138266)
(0.000784149 0.00102107 0.00609684)
(0.00144603 0.0012415 0.00863911)
(0.000421574 0.000626316 0.00972799)
(-4.10614e-05 7.34374e-05 0.0100016)
(0.000470382 0.000505611 0.00635546)
(0.000706044 0.00032333 0.0111646)
(-0.000234089 5.70231e-05 0.00393615)
(-0.000682696 -0.000200563 0.0094175)
(0.000571467 6.22603e-05 0.00910043)
(0.000493062 6.5773e-06 0.00497757)
(-6.48873e-06 -0.000109955 0.00841402)
(-0.000929156 8.78428e-05 0.0115748)
(-4.57277e-05 -0.00043307 0.012472)
(-0.00239537 0.000401177 0.00571083)
(-0.000576965 7.10603e-05 0.0110242)
(0.000816469 -0.000111421 0.0102941)
(0.00161887 0.00412874 -0.00148381)
(2.92844e-05 -0.00034536 0.0112201)
(0.00301088 -0.00766189 0.00743781)
(0.00189175 -0.0024714 0.0117354)
(0.0010856 -0.000209309 0.0109923)
(0.00135184 0.000631427 0.0136268)
(-8.16164e-05 -0.0014996 0.00791699)
(0.000540505 9.28338e-05 0.0084714)
(-2.17182e-05 -0.000512948 0.00562661)
(0.00365384 -0.00218572 0.00523848)
(-0.000600527 -0.00188176 0.0111973)
(0.000631282 0.00137894 0.00717008)
(6.5507e-05 -0.000340511 0.0160939)
(-0.000108692 -0.00112064 0.0144916)
(-0.000114385 -0.00112126 0.0147054)
(0.000342267 -0.00104705 0.0133772)
(-0.000431618 -0.00146298 0.0146166)
(-0.000685177 -0.00214175 0.0162397)
(-0.000137673 -0.00181995 0.0116574)
(7.62132e-05 -0.00104163 0.011155)
(8.90062e-06 -0.00110404 0.0132797)
(0.000501286 -0.000548737 0.0129679)
(0.00113417 -0.000857589 0.00815637)
(0.000659729 -0.000335608 0.00830493)
(-0.00021855 -0.000838474 0.00779787)
(-0.000129551 -0.00121678 0.00992215)
(0.00034396 -0.000917311 0.0100437)
(0.000784648 -0.000712869 0.0106232)
(0.00021114 0.000160182 0.00393903)
(0.000468784 0.000319205 0.00384763)
(0.000508747 0.000532815 0.00386166)
(0.000526667 0.000542052 0.00366333)
(-0.000276687 0.000536402 0.00295667)
(0.000178632 0.000593924 0.00383839)
(0.000341485 0.000816526 0.00335943)
(-1.05662e-05 0.000599218 0.00334731)
(-0.000154997 0.000835128 0.00383197)
(0.000287476 0.000883943 0.00423369)
(0.000287716 0.000552683 0.00329646)
(-0.000302482 0.000231709 0.00320402)
(-0.00026517 0.000433881 0.00286618)
(-0.000308643 0.000327249 0.00304613)
(-0.000274576 0.000157335 0.00302297)
(-0.000531316 -2.04587e-05 0.00306871)
(0.000118606 -0.000102865 0.00750123)
(0.000197044 -7.8396e-05 0.00748038)
(0.000258144 2.95082e-05 0.00737993)
(0.000253144 6.77697e-05 0.00719093)
(-8.05419e-05 4.13318e-05 0.00706998)
(6.71409e-05 6.73334e-05 0.00722555)
(0.000211849 0.000192744 0.00695888)
(0.000139776 0.000153041 0.00682936)
(-6.87249e-05 0.000223455 0.00676897)
(9.89304e-05 0.000269838 0.00689593)
(0.000202938 0.000222572 0.00659517)
(5.49422e-05 0.00013347 0.00662472)
(-0.00010129 0.000276811 0.00614692)
(-6.96666e-05 0.000266355 0.00633094)
(1.71898e-05 0.000209279 0.00635396)
(-6.93984e-05 0.000128994 0.00653479)
(6.04417e-05 1.37912e-05 0.00558605)
(0.000128647 5.37785e-05 0.0056917)
(0.000159199 8.92499e-05 0.00572621)
(0.00017484 0.000107301 0.00570819)
(-3.37941e-05 0.000138714 0.00554219)
(5.0596e-05 0.000161658 0.00570348)
(9.66136e-05 0.000186917 0.00568317)
(0.00010121 0.000162553 0.00565508)
(-2.70457e-05 0.00018437 0.00555933)
(4.53674e-05 0.000197826 0.00570718)
(7.34472e-05 0.00018071 0.005645)
(5.07138e-05 0.000137292 0.00562961)
(-1.77683e-05 0.000199027 0.00538081)
(8.71611e-06 0.000190736 0.00552706)
(1.52798e-05 0.000159462 0.00554137)
(-7.5482e-06 0.000116856 0.00556696)
(3.17053e-05 -2.01131e-05 0.00577383)
(5.50118e-05 -6.60975e-06 0.00586035)
(7.63278e-05 1.13414e-05 0.00590072)
(8.30918e-05 2.08071e-05 0.00590114)
(-8.97304e-06 3.93382e-05 0.00573548)
(2.47162e-05 4.80528e-05 0.00583668)
(5.4341e-05 5.87886e-05 0.00586415)
(6.30542e-05 5.32427e-05 0.00585971)
(-1.4102e-05 7.22173e-05 0.00569192)
(1.47859e-05 7.6303e-05 0.00580074)
(3.90093e-05 7.32844e-05 0.00582125)
(4.23248e-05 5.82498e-05 0.00582586)
(-8.31355e-06 9.73362e-05 0.00561231)
(6.50629e-06 9.13484e-05 0.00572004)
(1.86007e-05 7.73331e-05 0.00575939)
(1.82694e-05 5.77508e-05 0.00578191)
(1.86114e-05 -8.0174e-06 0.00560381)
(3.30822e-05 -8.57665e-07 0.00570907)
(4.35369e-05 5.40288e-06 0.00577064)
(4.91185e-05 9.20246e-06 0.00579774)
(-2.009e-06 2.19487e-05 0.00562233)
(1.65902e-05 2.53737e-05 0.00573408)
(3.08552e-05 2.81115e-05 0.00578675)
(3.857e-05 2.5971e-05 0.00580307)
(-5.45369e-06 3.68271e-05 0.00561971)
(9.63639e-06 3.70657e-05 0.00573588)
(2.23891e-05 3.53255e-05 0.00578315)
(2.88116e-05 2.91465e-05 0.00579677)
(-1.6844e-06 4.91426e-05 0.00559768)
(7.44418e-06 4.43993e-05 0.00571253)
(1.43691e-05 3.73386e-05 0.00576187)
(1.80095e-05 2.80324e-05 0.00577969)
(1.09411e-05 -6.67739e-06 0.00556838)
(1.84568e-05 -3.41529e-06 0.00567333)
(2.46285e-05 -4.125e-07 0.00573911)
(2.83764e-05 1.51716e-06 0.00577277)
(8.98012e-07 8.21902e-06 0.00559115)
(1.09212e-05 9.74498e-06 0.00570228)
(1.88635e-05 1.08223e-05 0.00576214)
(2.4159e-05 1.01712e-05 0.00578616)
(-1.76788e-06 1.70843e-05 0.00559826)
(6.72767e-06 1.66086e-05 0.00571286)
(1.4039e-05 1.55355e-05 0.0057678)
(1.90885e-05 1.28875e-05 0.0057865)
(3.04499e-08 2.37971e-05 0.00559345)
(5.69047e-06 2.07204e-05 0.00570795)
(1.03442e-05 1.70174e-05 0.0057612)
(1.39262e-05 1.25061e-05 0.00577962)
(6.90398e-06 -4.7915e-06 0.00554378)
(1.12864e-05 -3.29489e-06 0.0056507)
(1.4945e-05 -1.95204e-06 0.00571948)
(1.73969e-05 -1.03787e-06 0.00575698)
(1.60789e-06 2.58622e-06 0.00557098)
(7.44156e-06 3.1212e-06 0.0056837)
(1.21003e-05 3.50727e-06 0.00574712)
(1.56092e-05 3.30072e-06 0.00577525)
(-2.27135e-07 7.61726e-06 0.00558533)
(4.94402e-06 6.97801e-06 0.00570031)
(9.38234e-06 6.27636e-06 0.00575819)
(1.29194e-05 5.03458e-06 0.00577985)
(4.90311e-07 1.12299e-05 0.00558844)
(4.20413e-06 9.25114e-06 0.00570363)
(7.41567e-06 7.22032e-06 0.00575873)
(1.022e-05 4.96961e-06 0.00577824)
(4.57816e-06 -3.55923e-06 0.00553158)
(7.22351e-06 -2.87726e-06 0.00563927)
(9.48998e-06 -2.25841e-06 0.0057094)
(1.11217e-05 -1.81448e-06 0.00574863)
(1.65396e-06 1.36941e-07 0.00555979)
(5.1934e-06 2.62492e-07 0.00567341)
(8.05036e-06 3.7991e-07 0.00573852)
(1.04087e-05 3.28942e-07 0.00576873)
(3.94984e-07 3.03818e-06 0.00557767)
(3.69192e-06 2.45806e-06 0.00569306)
(6.49846e-06 1.99491e-06 0.00575225)
(8.94996e-06 1.41223e-06 0.00577551)
(5.71782e-07 5.07164e-06 0.0055845)
(3.10161e-06 3.77292e-06 0.00570015)
(5.37942e-06 2.63263e-06 0.00575611)
(7.45596e-06 1.48079e-06 0.00577647)
(3.1543e-06 -2.66358e-06 0.00552473)
(4.8105e-06 -2.3559e-06 0.00563288)
(6.26861e-06 -2.07531e-06 0.00570371)
(7.37265e-06 -1.8552e-06 0.0057438)
(1.45284e-06 -7.84894e-07 0.0055532)
(3.68472e-06 -8.17332e-07 0.00566734)
(5.50854e-06 -8.07011e-07 0.00573332)
(7.12119e-06 -8.04548e-07 0.00576463)
(5.83898e-07 9.00904e-07 0.00557281)
(2.75698e-06 4.36968e-07 0.00568847)
(4.60217e-06 1.33041e-07 0.00574834)
(6.3148e-06 -1.4349e-07 0.00577249)
(5.3014e-07 2.10851e-06 0.00558145)
(2.30417e-06 1.24546e-06 0.00569736)
(3.93006e-06 5.7514e-07 0.00575376)
(5.44789e-06 -3.00931e-08 0.00577465)
(2.22725e-06 -1.99789e-06 0.0055208)
(3.29529e-06 -1.86453e-06 0.00562921)
(4.25796e-06 -1.73952e-06 0.0057004)
(5.01092e-06 -1.62658e-06 0.00574094)
(1.18986e-06 -1.03001e-06 0.00554924)
(2.64201e-06 -1.11521e-06 0.00566368)
(3.84183e-06 -1.13623e-06 0.00573013)
(4.96041e-06 -1.11719e-06 0.00576202)
(5.77774e-07 -3.56882e-08 0.00556963)
(2.05335e-06 -3.7837e-07 0.00568548)
(3.30711e-06 -5.83178e-07 0.00574572)
(4.50384e-06 -7.15302e-07 0.00577037)
(4.54363e-07 7.2434e-07 0.00557918)
(1.71025e-06 1.47172e-07 0.00569521)
(2.87074e-06 -2.71433e-07 0.00575186)
(3.984e-06 -5.96516e-07 0.00577309)
(1.58947e-06 -1.48893e-06 0.00551843)
(2.29331e-06 -1.43518e-06 0.00562701)
(2.94112e-06 -1.38207e-06 0.0056984)
(3.45627e-06 -1.32233e-06 0.00573917)
(9.32714e-07 -9.84066e-07 0.00554679)
(1.89637e-06 -1.07058e-06 0.00566141)
(2.70392e-06 -1.10177e-06 0.0057281)
(3.48483e-06 -1.08081e-06 0.00576031)
(5.03233e-07 -3.82887e-07 0.00556752)
(1.51455e-06 -6.32088e-07 0.00568349)
(2.37492e-06 -7.71177e-07 0.00574393)
(3.2199e-06 -8.31741e-07 0.00576888)
(3.62562e-07 1.15603e-07 0.0055775)
(1.25832e-06 -2.81798e-07 0.00569359)
(2.0911e-06 -5.44889e-07 0.00575039)
(2.90073e-06 -7.23096e-07 0.00577185)
(1.13052e-06 -1.09129e-06 0.00551698)
(1.59843e-06 -1.07234e-06 0.00562565)
(2.03725e-06 -1.05198e-06 0.00569717)
(2.38754e-06 -1.01948e-06 0.00573806)
(7.03061e-07 -8.23844e-07 0.00554523)
(1.34769e-06 -8.97201e-07 0.00565996)
(1.89738e-06 -9.26314e-07 0.0057268)
(2.44061e-06 -9.09065e-07 0.0057592)
(4.02934e-07 -4.57769e-07 0.00556609)
(1.09714e-06 -6.33181e-07 0.00568213)
(1.68929e-06 -7.26375e-07 0.00574271)
(2.28189e-06 -7.53293e-07 0.00576783)
(2.78147e-07 -1.21881e-07 0.00557626)
(9.13216e-07 -3.94335e-07 0.0056924)
(1.50448e-06 -5.63437e-07 0.0057493)
(2.0842e-06 -6.62724e-07 0.00577091)
(7.86103e-07 -7.73675e-07 0.00551607)
(1.0949e-06 -7.68684e-07 0.00562481)
(1.3884e-06 -7.61983e-07 0.00569639)
(1.62096e-06 -7.43557e-07 0.00573735)
(5.07761e-07 -6.30519e-07 0.00554423)
(9.35412e-07 -6.86088e-07 0.00565903)
(1.30475e-06 -7.09557e-07 0.00572596)
(1.67351e-06 -6.97052e-07 0.00575846)
(3.01435e-07 -4.07589e-07 0.00556513)
(7.70678e-07 -5.2767e-07 0.00568122)
(1.17185e-06 -5.88788e-07 0.00574187)
(1.57729e-06 -5.99252e-07 0.00576711)
(2.03218e-07 -1.836e-07 0.00557539)
(6.43757e-07 -3.65945e-07 0.00569155)
(1.05417e-06 -4.74431e-07 0.00574851)
(1.45566e-06 -5.30696e-07 0.00577022)
(5.14999e-07 -5.11568e-07 0.0055155)
(7.10982e-07 -5.10338e-07 0.00562428)
(8.99026e-07 -5.0812e-07 0.0056959)
(1.04554e-06 -4.96966e-07 0.00573691)
(3.40584e-07 -4.35392e-07 0.0055436)
(6.13015e-07 -4.71971e-07 0.00565844)
(8.50449e-07 -4.87863e-07 0.00572542)
(1.08714e-06 -4.78773e-07 0.00575798)
(2.07171e-07 -3.0233e-07 0.00556449)
(5.09679e-07 -3.78656e-07 0.00568061)
(7.68555e-07 -4.15904e-07 0.00574131)
(1.0309e-06 -4.18676e-07 0.00576663)
(1.38175e-07 -1.59121e-07 0.00557478)
(4.28532e-07 -2.74835e-07 0.00569096)
(6.97517e-07 -3.41259e-07 0.00574797)
(9.58786e-07 -3.72434e-07 0.00576974)
(2.86927e-07 -2.77664e-07 0.00551517)
(4.02283e-07 -2.72297e-07 0.00562397)
(5.11756e-07 -2.67354e-07 0.00569561)
(5.96451e-07 -2.56983e-07 0.00573664)
(1.89981e-07 -2.33404e-07 0.00554322)
(3.48685e-07 -2.49649e-07 0.00565808)
(4.86455e-07 -2.54598e-07 0.00572509)
(6.23625e-07 -2.45406e-07 0.00575768)
(1.16984e-07 -1.56368e-07 0.0055641)
(2.93803e-07 -1.95346e-07 0.00568023)
(4.44212e-07 -2.11735e-07 0.00574096)
(5.9675e-07 -2.08499e-07 0.00576632)
(8.02074e-08 -7.20472e-08 0.00557439)
(2.51564e-07 -1.33676e-07 0.00569058)
(4.08938e-07 -1.66628e-07 0.00574761)
(5.6145e-07 -1.79477e-07 0.00576943)
(8.90326e-08 -6.54685e-08 0.00551491)
(1.5611e-07 -5.09996e-08 0.00562373)
(2.2037e-07 -2.99756e-08 0.00569539)
(2.72906e-07 -8.24655e-09 0.00573643)
(4.89064e-08 -2.18542e-08 0.00554295)
(1.36364e-07 -1.64956e-08 0.00565783)
(2.16059e-07 -5.59572e-10 0.00572486)
(2.93047e-07 1.95993e-08 0.00575747)
(2.71217e-08 3.64212e-08 0.00556384)
(1.21856e-07 3.12533e-08 0.00567999)
(2.07395e-07 3.97457e-08 0.00574074)
(2.91749e-07 5.44396e-08 0.00576611)
(2.88987e-08 9.09378e-08 0.00557415)
(1.18661e-07 7.48546e-08 0.00569035)
(2.04347e-07 7.37498e-08 0.00574739)
(2.86323e-07 7.85918e-08 0.00576923)
(-0.00169972 -0.000676677 0.0109616)
(-0.000305956 0.000392272 0.00499005)
(-0.000313492 0.000382136 0.0092099)
(0.000202185 0.000302287 0.00419928)
(-0.000850428 -0.000947768 0.00736654)
(-0.000188246 9.74752e-06 0.0137172)
(1.04584e-05 0.000475552 0.00766587)
(7.37057e-05 0.000669989 0.00667525)
(-0.000303293 -0.000196356 0.00813236)
(0.000122 -0.000850781 0.00707546)
(0.000317085 -0.000391442 0.00853677)
(0.000149412 -0.000440736 0.0117219)
(-0.000277731 -0.000386379 0.0084594)
(-0.000122512 -3.52037e-06 0.00808424)
(0.000202334 -0.000261076 0.00796579)