/*--------------------------------*- C++ -*----------------------------------*\
| =========                 |                                                 |
| \\      /  F ield         | OpenFOAM: The Open Source CFD Toolbox           |
|  \\    /   O peration     | Version:  2506                                  |
|   \\  /    A nd           | Website:  www.openfoam.com                      |
|    \\/     M anipulation  |                                                 |
\*---------------------------------------------------------------------------*/
FoamFile
{
    version     2.0;
    format      ascii;
    arch        "LSB;label=32;scalar=64";
    class       volVectorField;
    location    "0.02";
    object      Us;
}
// * * * * * * * * * * * * * * * * * * * * * * * * * * * * * * * * * * * * * //

dimensions      [0 1 -1 0 0 0 0];

internalField   nonuniform List<vector> 
1152
(
(5.56865e-05 0.000110265 5.94717e-05)
(2.93049e-05 9.44557e-05 6.20509e-05)
(1.06987e-05 4.02677e-05 3.93873e-05)
(8.23676e-05 5.30391e-05 5.37427e-05)
(-3.12097e-06 2.43149e-06 0.000136009)
(3.99225e-06 -4.83349e-05 5.89292e-05)
(-1.38371e-05 -1.48449e-05 2.2732e-05)
(-1.43454e-05 5.80574e-05 1.75598e-05)
(7.38598e-05 1.11937e-05 5.08332e-05)
(-0.000320287 0.000226771 8.89598e-05)
(-0.000142408 0.000229397 3.52914e-05)
(-6.50938e-06 3.79306e-05 -7.17957e-06)
(3.2516e-05 -1.52661e-05 7.3066e-06)
(-2.01945e-05 -2.71599e-05 -9.81718e-06)
(-5.09264e-05 -6.59326e-05 3.02825e-05)
(3.27145e-05 2.14258e-05 1.94852e-05)
(8.14051e-05 9.71055e-05 0.000175912)
(3.05689e-05 1.84858e-05 0.000169395)
(3.58553e-05 4.8162e-05 0.000162912)
(7.18184e-06 9.82984e-05 0.000173942)
(7.53515e-05 5.75087e-05 0.000257073)
(4.46968e-05 2.86073e-05 0.000154896)
(1.88047e-05 7.5282e-05 0.000136719)
(6.17144e-06 5.11719e-05 0.000146884)
(4.0225e-05 6.49899e-05 0.000174468)
(5.86485e-05 7.50309e-06 0.000129803)
(7.3326e-05 5.49736e-05 0.000131083)
(1.05652e-05 4.77349e-05 0.000136416)
(-1.87656e-06 5.04087e-05 0.000130755)
(3.76146e-05 1.52424e-05 6.29223e-05)
(2.52242e-05 2.54735e-05 3.35337e-05)
(1.71372e-06 5.41511e-05 8.39922e-05)
(2.94868e-05 -8.49285e-06 0.000271279)
(-2.63145e-06 1.0784e-06 0.000263243)
(-7.01069e-06 -1.18071e-05 0.000271592)
(-1.67596e-05 1.18389e-05 0.000311534)
(5.40059e-05 7.6667e-06 0.000279501)
(5.23182e-05 3.87177e-05 0.000264726)
(2.74568e-05 2.50622e-05 0.000275602)
(-4.31216e-06 1.38403e-05 0.000294849)
(2.17386e-06 9.9729e-06 0.000252764)
(1.97054e-05 -2.53293e-07 0.000267486)
(1.02931e-05 4.94036e-05 0.000240548)
(-4.15573e-05 0.000116953 0.000307203)
(1.68626e-05 4.085e-05 0.000266006)
(-4.53499e-05 5.05206e-05 0.000199479)
(-3.48791e-05 3.34185e-05 0.000228586)
(3.07168e-06 6.33284e-06 0.000261704)
(2.53084e-05 4.57466e-05 0.000393787)
(-4.5608e-07 -2.61332e-05 0.000422961)
(-5.40921e-05 -5.69082e-05 0.000408344)
(-4.79841e-05 -5.9495e-05 0.000455074)
(-2.26252e-05 1.8616e-05 0.000369035)
(-5.32967e-05 -1.76929e-05 0.00039834)
(-7.38563e-05 -4.28877e-05 0.000436853)
(-1.25527e-05 -3.57154e-05 0.000399813)
(-4.89312e-05 -2.28657e-05 0.000375484)
(-6.90479e-05 -5.94859e-05 0.000426323)
(-8.51968e-05 -1.87107e-05 0.000445)
(-6.30256e-05 4.33098e-05 0.000433347)
(4.48224e-05 1.48135e-05 0.000374259)
(-6.66817e-06 1.31853e-05 0.000438937)
(-1.38874e-05 -1.38547e-05 0.000402039)
(-6.96803e-05 9.76467e-05 0.000492632)
(-5.85134e-05 5.97782e-05 0.000434816)
(-5.83448e-05 3.29746e-06 0.000466982)
(-7.62565e-05 -8.60104e-05 0.000490928)
(-5.65756e-05 -8.39863e-05 0.000514854)
(-0.000102629 7.86281e-05 0.000511442)
(-6.76681e-05 -2.35175e-05 0.000493598)
(-7.91124e-05 -7.23125e-05 0.000498974)
(-7.57007e-05 -7.87916e-05 0.000491623)
(3.16257e-05 -2.02073e-05 0.000521446)
(-2.82281e-05 1.69014e-06 0.000490613)
(-0.000113072 -2.02806e-05 0.000499954)
(-0.00010824 -3.65711e-05 0.000503178)
(4.99912e-06 3.60653e-05 0.000520888)
(-3.39192e-05 5.79676e-05 0.000559021)
(-0.000133516 4.70938e-05 0.000516497)
(-0.000133226 6.05957e-05 0.000582366)
(-0.000121399 0.000119746 0.000428574)
(4.80423e-06 -1.58404e-05 0.000432499)
(-5.06979e-06 -0.000135323 0.000453132)
(-3.59279e-05 -8.40611e-05 0.000491356)
(-3.26932e-05 8.14779e-05 0.000478803)
(1.59854e-05 2.0961e-05 0.000499837)
(-3.58105e-05 -6.69132e-05 0.000490594)
(-0.00010596 -7.75376e-07 0.00052818)
(9.15679e-05 8.36545e-05 0.000598559)
(3.75303e-05 0.000141821 0.00059919)
(-4.06278e-05 -8.33948e-06 0.000493149)
(-0.000107216 -3.37991e-07 0.000479328)
(3.37053e-05 0.000210397 0.000577971)
(0.000135189 9.68108e-05 0.000637388)
(-2.99499e-05 4.18619e-05 0.000500612)
(-0.000152607 -8.52855e-06 0.000482354)
(0.000104738 8.14532e-05 0.000312848)
(3.74904e-05 -8.80653e-05 0.000511931)
(1.77405e-05 -9.65073e-05 0.00049758)
(-0.000211884 -0.000114767 0.000549648)
(-6.84072e-06 6.81878e-05 0.000225123)
(5.0932e-05 0.00015644 0.00043229)
(-6.49474e-05 -1.71796e-05 0.000571875)
(-0.000491167 4.3536e-05 0.00046324)
(3.52419e-05 0.000109362 0.000397976)
(5.76025e-06 7.79242e-06 0.000470465)
(0.000136051 4.12018e-05 0.000638972)
(-3.0469e-05 4.74966e-05 0.000416113)
(-1.80721e-05 0.000226705 0.000481874)
(0.00017449 -8.31668e-05 0.000534508)
(0.000566709 -0.000463966 0.000407139)
(0.000444239 0.000434788 1.80137e-05)
(0 0 0)
(0 0 0)
(0 0 0)
(0 0 0)
(0 0 0)
(0 0 0)
(0 0 0)
(0 0 0)
(0 0 0)
(0 0 0)
(0 0 0)
(0 0 0)
(0 0 0)
(0 0 0)
(0 0 0)
(0 0 0)
(0 0 0)
(0 0 0)
(0 0 0)
(0 0 0)
(0 0 0)
(0 0 0)
(0 0 0)
(0 0 0)
(0 0 0)
(0 0 0)
(0 0 0)
(0 0 0)
(0 0 0)
(0 0 0)
(0 0 0)
(0 0 0)
(0 0 0)
(0 0 0)
(0 0 0)
(0 0 0)
(0 0 0)
(0 0 0)
(0 0 0)
(0 0 0)
(0 0 0)
(0 0 0)
(0 0 0)
(0 0 0)
(0 0 0)
(0 0 0)
(0 0 0)
(0 0 0)
(0 0 0)
(0 0 0)
(0 0 0)
(0 0 0)
(0 0 0)
(0 0 0)
(0 0 0)
(0 0 0)
(0 0 0)
(0 0 0)
(0 0 0)
(0 0 0)
(0 0 0)
(0 0 0)
(0 0 0)
(0 0 0)
(0 0 0)
(0 0 0)
(0 0 0)
(0 0 0)
(0 0 0)
(0 0 0)
(0 0 0)
(0 0 0)
(0 0 0)
(0 0 0)
(0 0 0)
(0 0 0)
(0 0 0)
(0 0 0)
(0 0 0)
(0 0 0)
(0 0 0)
(0 0 0)
(0 0 0)
(0 0 0)
(0 0 0)
(0 0 0)
(0 0 0)
(0 0 0)
(0 0 0)
(0 0 0)
(0 0 0)
(0 0 0)
(0 0 0)
(0 0 0)
(0 0 0)
(0 0 0)
(0 0 0)
(0 0 0)
(0 0 0)
(0 0 0)
(0 0 0)
(0 0 0)
(0 0 0)
(0 0 0)
(0 0 0)
(0 0 0)
(0 0 0)
(0 0 0)
(0 0 0)
(0 0 0)
(0 0 0)
(0 0 0)
(0 0 0)
(0 0 0)
(0 0 0)
(0 0 0)
(0 0 0)
(0 0 0)
(0 0 0)
(0 0 0)
(0 0 0)
(0 0 0)
(0 0 0)
(0 0 0)
(0 0 0)
(0 0 0)
(0 0 0)
(0 0 0)
(0 0 0)
(0 0 0)
(0 0 0)
(0 0 0)
(0 0 0)
(0 0 0)
(0 0 0)
(0 0 0)
(0 0 0)
(0 0 0)
(0 0 0)
(0 0 0)
(0 0 0)
(0 0 0)
(0 0 0)
(0 0 0)
(0 0 0)
(0 0 0)
(0 0 0)
(0 0 0)
(0 0 0)
(0 0 0)
(0 0 0)
(0 0 0)
(0 0 0)
(0 0 0)
(0 0 0)
(0 0 0)
(0 0 0)
(0 0 0)
(0 0 0)
(0 0 0)
(0 0 0)
(0 0 0)
(0 0 0)
(0 0 0)
(0 0 0)
(0 0 0)
(0 0 0)
(0 0 0)
(0 0 0)
(0 0 0)
(0 0 0)
(0 0 0)
(0 0 0)
(0 0 0)
(0 0 0)
(0 0 0)
(0 0 0)
(0 0 0)
(0 0 0)
(0 0 0)
(0 0 0)
(0 0 0)
(0 0 0)
(0 0 0)
(0 0 0)
(0 0 0)
(0 0 0)
(0 0 0)
(0 0 0)
(0 0 0)
(0 0 0)
(0 0 0)
(0 0 0)
(0 0 0)
(0 0 0)
(0 0 0)
(0 0 0)
(0 0 0)
(0 0 0)
(0 0 0)
(0 0 0)
(0 0 0)
(0 0 0)
(0 0 0)
(0 0 0)
(0 0 0)
(0 0 0)
(0 0 0)
(0 0 0)
(0 0 0)
(0 0 0)
(0 0 0)
(0 0 0)
(0 0 0)
(0 0 0)
(0 0 0)
(0 0 0)
(0 0 0)
(0 0 0)
(0 0 0)
(0 0 0)
(0 0 0)
(0 0 0)
(0 0 0)
(0 0 0)
(0 0 0)
(0 0 0)
(0 0 0)
(0 0 0)
(0 0 0)
(0 0 0)
(0 0 0)
(0 0 0)
(0 0 0)
(0 0 0)
(0 0 0)
(0 0 0)
(0 0 0)
(0 0 0)
(0 0 0)
(0 0 0)
(0 0 0)
(0 0 0)
(0 0 0)
(0 0 0)
(0 0 0)
(0 0 0)
(0 0 0)
(0 0 0)
(0 0 0)
(0 0 0)
(0 0 0)
(0 0 0)
(0 0 0)
(0 0 0)
(0 0 0)
(0 0 0)
(0 0 0)
(0 0 0)
(0 0 0)
(0 0 0)
(0 0 0)
(0 0 0)
(0 0 0)
(0 0 0)
(0 0 0)
(0 0 0)
(0 0 0)
(0 0 0)
(0 0 0)
(0 0 0)
(0 0 0)
(1.64048e-05 -1.36193e-05 8.08159e-05)
(4.93194e-05 -3.46013e-05 8.63183e-05)
(-8.96426e-05 -6.90796e-05 5.81376e-05)
(9.95046e-06 3.60742e-05 7.24925e-05)
(2.83767e-05 -8.77196e-06 1.62769e-05)
(4.14287e-05 2.33586e-05 4.50606e-05)
(5.79525e-05 3.02355e-05 4.361e-05)
(9.3062e-05 2.42911e-05 9.76052e-05)
(1.15547e-05 1.83541e-05 5.24335e-05)
(2.10018e-05 1.67537e-05 3.93054e-05)
(1.55973e-05 2.99471e-05 4.11221e-05)
(6.64407e-05 7.61692e-05 4.7262e-05)
(-9.62364e-07 1.69273e-05 5.22655e-05)
(-6.79503e-06 8.94917e-07 5.68927e-05)
(2.20787e-05 -1.47153e-05 5.34227e-05)
(-4.2418e-06 9.52332e-05 4.12627e-05)
(2.61155e-05 -1.47562e-05 0.000152126)
(3.27655e-05 -1.67472e-05 0.000196803)
(1.51754e-05 8.03685e-06 0.000205276)
(3.76874e-05 6.08159e-05 0.000197926)
(2.3116e-05 3.64979e-05 0.000123889)
(6.80643e-05 2.74395e-05 0.000112023)
(8.48881e-05 1.21616e-05 0.000126073)
(7.70588e-05 6.80823e-05 0.000224419)
(4.0158e-05 5.99469e-05 0.000110279)
(0.000104449 -0.00016085 3.60852e-05)
(9.76609e-06 3.29776e-05 0.000172774)
(2.73854e-05 7.89073e-05 0.000207488)
(5.48146e-05 1.73127e-05 0.000163764)
(2.99821e-05 -3.84804e-05 0.000134525)
(3.11009e-05 2.01382e-05 0.000132175)
(6.73525e-05 9.11491e-05 0.000153998)
(1.75061e-05 -3.138e-05 0.000245661)
(-3.08765e-06 1.74968e-05 0.000309702)
(5.98732e-05 -6.52169e-06 0.000222224)
(-1.39532e-05 6.51962e-07 0.000263658)
(2.91151e-05 2.61613e-05 0.000113808)
(6.77054e-05 5.34445e-05 0.000186832)
(0.000116328 1.03023e-05 0.000212373)
(9.13234e-05 2.2523e-05 0.000299997)
(5.39369e-05 4.94558e-05 0.000147794)
(9.32169e-05 5.35705e-05 0.000218105)
(5.50031e-05 4.4075e-05 0.000210044)
(3.51345e-05 2.6973e-05 0.000236564)
(9.85106e-06 1.02094e-05 0.000190048)
(1.93655e-05 3.07653e-05 0.000209724)
(2.98707e-05 4.98326e-05 0.000228004)
(5.25287e-05 8.77399e-05 0.00029715)
(-5.7407e-06 2.52617e-05 0.000350069)
(1.27457e-05 -5.62652e-05 0.000326631)
(4.56339e-05 -4.69327e-05 0.000335399)
(4.83318e-05 -1.24361e-05 0.000358654)
(1.41399e-06 4.42271e-05 0.000110991)
(3.6088e-05 4.92562e-05 0.000230432)
(7.35764e-05 1.40525e-05 0.00024846)
(6.15942e-05 -4.14545e-06 0.000293317)
(1.01425e-05 -9.01148e-06 0.000197851)
(3.54728e-05 5.83105e-05 0.000248343)
(8.1131e-05 4.84323e-05 0.000265934)
(4.02785e-05 5.76562e-05 0.000312419)
(2.37297e-06 1.4034e-05 0.000245029)
(8.76507e-06 2.44879e-05 0.000313535)
(-5.08559e-06 4.28541e-05 0.000268923)
(4.49802e-05 8.04681e-05 0.000398257)
(0.000111103 3.83193e-05 0.000353962)
(0.000142629 7.59337e-05 0.000416723)
(9.8834e-05 5.27579e-05 0.00029846)
(8.12177e-06 6.08958e-05 0.000340223)
(3.77407e-05 -2.61009e-05 0.000104038)
(2.48288e-05 -9.25779e-08 0.000241434)
(9.88039e-05 8.33211e-06 0.000299481)
(1.90389e-06 4.4924e-05 0.000425308)
(-1.01192e-05 2.93295e-05 0.000215737)
(5.91262e-05 4.72938e-06 0.000256146)
(0.000113283 4.68671e-05 0.000289207)
(3.61745e-05 8.64272e-05 0.0005045)
(7.5942e-06 7.86391e-05 0.000258966)
(4.36252e-05 0.000117927 0.000349706)
(8.05507e-05 -4.27525e-05 0.000377931)
(3.05374e-05 -1.17686e-05 0.00048441)
(-1.49072e-05 7.22467e-05 0.000262915)
(4.12543e-05 4.95194e-05 0.000297196)
(3.08092e-05 4.83101e-05 0.000237854)
(-9.14966e-05 0.000136343 0.00038434)
(-4.40395e-06 0.000149777 0.000150528)
(0.000142068 8.40888e-05 0.000422585)
(0.000280088 8.36213e-05 0.000595942)
(5.38996e-07 0.000102526 0.000579446)
(0.000116334 0.000107392 0.000138782)
(4.3213e-05 0.000182167 0.000355931)
(2.33454e-05 3.51222e-05 0.000372173)
(2.69448e-05 0.000177897 0.000543446)
(-0.000103967 0.000133611 0.000282061)
(-0.000130367 0.000174448 0.000282595)
(2.28294e-07 -1.14243e-05 0.000266143)
(-3.50771e-05 0.00018713 0.000105675)
(-0.000165545 -0.000395871 3.85292e-05)
(-0.0022271 0.000523799 -0.000289291)
(-4.64875e-05 0.000130182 -7.18033e-05)
(7.23651e-05 0.00013549 0.000418636)
(0.00170503 0.00427226 -0.00719402)
(-0.000218938 -0.000164038 0.000329284)
(0.00395131 -0.00848067 -0.000713961)
(0.00269418 -0.00344624 -0.00154803)
(0.00105845 -0.000489026 -0.000251845)
(-0.000113431 3.14691e-05 0.000143581)
(-0.000971349 -0.00148247 -4.62211e-05)
(0.000754351 -5.95685e-05 0.00046736)
(1.58361e-05 -0.000517104 8.15984e-05)
(0.00385142 -0.00213122 -0.00081405)
(-0.00120101 -0.00180383 -0.000189389)
(0.000482839 0.00149005 0.000856442)
(0 0 0)
(0 0 0)
(0 0 0)
(0 0 0)
(0 0 0)
(0 0 0)
(0 0 0)
(0 0 0)
(0 0 0)
(0 0 0)
(0 0 0)
(0 0 0)
(0 0 0)
(0 0 0)
(0 0 0)
(0 0 0)
(0 0 0)
(0 0 0)
(0 0 0)
(0 0 0)
(0 0 0)
(0 0 0)
(0 0 0)
(0 0 0)
(0 0 0)
(0 0 0)
(0 0 0)
(0 0 0)
(0 0 0)
(0 0 0)
(0 0 0)
(0 0 0)
(0 0 0)
(0 0 0)
(0 0 0)
(0 0 0)
(0 0 0)
(0 0 0)
(0 0 0)
(0 0 0)
(0 0 0)
(0 0 0)
(0 0 0)
(0 0 0)
(0 0 0)
(0 0 0)
(0 0 0)
(0 0 0)
(0 0 0)
(0 0 0)
(0 0 0)
(0 0 0)
(0 0 0)
(0 0 0)
(0 0 0)
(0 0 0)
(0 0 0)
(0 0 0)
(0 0 0)
(0 0 0)
(0 0 0)
(0 0 0)
(0 0 0)
(0 0 0)
(0 0 0)
(0 0 0)
(0 0 0)
(0 0 0)
(0 0 0)
(0 0 0)
(0 0 0)
(0 0 0)
(0 0 0)
(0 0 0)
(0 0 0)
(0 0 0)
(0 0 0)
(0 0 0)
(0 0 0)
(0 0 0)
(0 0 0)
(0 0 0)
(0 0 0)
(0 0 0)
(0 0 0)
(0 0 0)
(0 0 0)
(0 0 0)
(0 0 0)
(0 0 0)
(0 0 0)
(0 0 0)
(0 0 0)
(0 0 0)
(0 0 0)
(0 0 0)
(0 0 0)
(0 0 0)
(0 0 0)
(0 0 0)
(0 0 0)
(0 0 0)
(0 0 0)
(0 0 0)
(0 0 0)
(0 0 0)
(0 0 0)
(0 0 0)
(0 0 0)
(0 0 0)
(0 0 0)
(0 0 0)
(0 0 0)
(0 0 0)
(0 0 0)
(0 0 0)
(0 0 0)
(0 0 0)
(0 0 0)
(0 0 0)
(0 0 0)
(0 0 0)
(0 0 0)
(0 0 0)
(0 0 0)
(0 0 0)
(0 0 0)
(0 0 0)
(0 0 0)
(0 0 0)
(0 0 0)
(0 0 0)
(0 0 0)
(0 0 0)
(0 0 0)
(0 0 0)
(0 0 0)
(0 0 0)
(0 0 0)
(0 0 0)
(0 0 0)
(0 0 0)
(0 0 0)
(0 0 0)
(0 0 0)
(0 0 0)
(0 0 0)
(0 0 0)
(0 0 0)
(0 0 0)
(0 0 0)
(0 0 0)
(0 0 0)
(0 0 0)
(0 0 0)
(0 0 0)
(0 0 0)
(0 0 0)
(0 0 0)
(0 0 0)
(0 0 0)
(0 0 0)
(0 0 0)
(0 0 0)
(0 0 0)
(0 0 0)
(0 0 0)
(0 0 0)
(0 0 0)
(0 0 0)
(0 0 0)
(0 0 0)
(0 0 0)
(0 0 0)
(0 0 0)
(0 0 0)
(0 0 0)
(0 0 0)
(0 0 0)
(0 0 0)
(0 0 0)
(0 0 0)
(0 0 0)
(0 0 0)
(0 0 0)
(0 0 0)
(0 0 0)
(0 0 0)
(0 0 0)
(0 0 0)
(0 0 0)
(0 0 0)
(0 0 0)
(0 0 0)
(0 0 0)
(0 0 0)
(0 0 0)
(0 0 0)
(0 0 0)
(0 0 0)
(0 0 0)
(0 0 0)
(0 0 0)
(0 0 0)
(0 0 0)
(0 0 0)
(0 0 0)
(0 0 0)
(0 0 0)
(0 0 0)
(0 0 0)
(0 0 0)
(0 0 0)
(0 0 0)
(0 0 0)
(0 0 0)
(0 0 0)
(0 0 0)
(0 0 0)
(0 0 0)
(0 0 0)
(0 0 0)
(0 0 0)
(0 0 0)
(0 0 0)
(0 0 0)
(0 0 0)
(0 0 0)
(0 0 0)
(0 0 0)
(0 0 0)
(0 0 0)
(0 0 0)
(0 0 0)
(0 0 0)
(0 0 0)
(0 0 0)
(0 0 0)
(0 0 0)
(0 0 0)
(0 0 0)
(0 0 0)
(0 0 0)
(0 0 0)
(0 0 0)
(0 0 0)
(0 0 0)
(0 0 0)
(0 0 0)
(0 0 0)
(0 0 0)
(0 0 0)
(0 0 0)
(0 0 0)
(0 0 0)
(0 0 0)
(0 0 0)
(0 0 0)
(0 0 0)
(0 0 0)
(0 0 0)
(0 0 0)
(0 0 0)
(0 0 0)
(0 0 0)
(0 0 0)
(0 0 0)
(0 0 0)
(0 0 0)
(0 0 0)
(0 0 0)
(0 0 0)
(1.03658e-05 1.52111e-05 4.18499e-05)
(2.12271e-05 3.98304e-05 3.39648e-05)
(1.43796e-05 1.73081e-05 5.46549e-05)
(8.52127e-06 2.29008e-05 4.55181e-05)
(-1.60078e-05 5.50225e-05 0.000100613)
(5.17372e-05 8.79963e-05 3.41752e-05)
(2.28993e-05 4.50823e-05 3.77143e-05)
(5.10867e-06 6.25195e-05 6.88526e-05)
(5.79532e-05 7.38544e-05 0.000113632)
(0.000116842 -0.000118213 4.47655e-05)
(7.20424e-05 6.9026e-05 4.18827e-05)
(4.85945e-05 8.37646e-05 5.59116e-05)
(9.74685e-05 7.93368e-05 5.09182e-05)
(8.31769e-05 -1.64813e-05 7.48249e-05)
(8.62646e-05 4.1694e-05 7.9549e-05)
(7.85571e-05 8.10956e-05 4.06354e-05)
(-2.2975e-05 -4.97714e-05 0.000121213)
(-1.20651e-05 3.37899e-05 6.27632e-05)
(-1.49195e-05 -1.82129e-05 0.00010793)
(-1.38701e-05 1.35931e-05 0.000150721)
(7.43734e-05 3.33139e-05 0.00022794)
(5.25614e-05 3.09235e-05 0.000113283)
(2.35583e-05 3.04289e-05 0.000126583)
(4.08162e-05 4.39973e-05 0.000177968)
(7.768e-05 3.83849e-05 0.000216645)
(7.10302e-06 4.01558e-06 0.000162202)
(3.48317e-05 4.20559e-05 0.000137869)
(5.06108e-05 6.37972e-05 0.000180235)
(4.9422e-05 2.33747e-05 0.000155715)
(3.6383e-05 1.18717e-05 0.000157992)
(5.40733e-05 4.71377e-05 0.000151291)
(4.25478e-05 0.000105682 0.000134314)
(0.000179656 -0.000131924 0.000510393)
(2.36365e-05 5.98234e-05 0.00012799)
(3.63649e-05 1.10978e-05 0.000183132)
(-3.74875e-05 4.35408e-05 0.000190191)
(1.40815e-05 -4.63103e-05 0.000452525)
(0.000112649 9.14796e-05 0.000221398)
(5.54787e-05 6.04931e-05 0.000235865)
(-1.29296e-05 4.27883e-05 0.000261854)
(-8.22647e-05 -3.19471e-05 0.000381323)
(-4.23438e-05 -4.95493e-06 0.00027003)
(4.93464e-06 5.31678e-05 0.000169906)
(8.84946e-06 7.96401e-05 0.000288253)
(-2.60987e-05 -7.02014e-06 0.000289618)
(-2.55631e-05 7.24777e-06 0.000283509)
(-8.45473e-06 4.06883e-06 0.000224397)
(9.67015e-06 3.42435e-05 0.00028679)
(3.58325e-05 -3.04621e-05 0.000387733)
(-2.08844e-05 1.54374e-05 0.000239903)
(-2.28883e-05 2.39469e-05 0.000301118)
(-7.24528e-05 -8.06277e-05 0.00028895)
(-4.31058e-05 -2.91073e-05 0.000388113)
(-2.73362e-05 1.20766e-05 0.000327798)
(5.31718e-06 4.89536e-05 0.00032253)
(-4.10225e-06 -0.0001062 0.000273734)
(5.77845e-05 -3.22564e-05 0.00041337)
(-2.74966e-05 4.53398e-06 0.000370856)
(-1.01238e-05 1.32583e-05 0.000373605)
(-3.29929e-05 -2.10054e-05 0.000367109)
(8.15548e-06 2.59889e-05 0.000426538)
(-5.52999e-06 1.62169e-05 0.000443671)
(2.0866e-06 -3.96084e-05 0.000415455)
(-1.59944e-05 -4.14741e-05 0.000476236)
(5.36837e-06 -5.19757e-06 0.000351734)
(0.000144622 -4.37273e-05 0.000356808)
(6.2048e-05 2.80295e-05 0.000350848)
(0.000116477 -2.54352e-05 0.00029937)
(3.61816e-05 -0.000103882 0.000480472)
(3.8937e-05 -1.94541e-05 0.000461591)
(2.66276e-05 4.61231e-06 0.000463714)
(-9.63769e-06 -7.64785e-05 0.000305152)
(5.84778e-06 -9.77854e-05 0.000472642)
(-2.861e-05 -3.25107e-05 0.000454873)
(-8.3115e-06 -5.49041e-05 0.000424691)
(-6.16217e-05 -7.41064e-05 0.000370276)
(4.77496e-06 -1.57695e-05 0.000458881)
(-5.34483e-05 -4.96759e-05 0.000479993)
(-3.75703e-05 -6.51002e-05 0.000475562)
(-6.66559e-05 -5.33353e-05 0.000487248)
(9.63277e-05 -1.67178e-05 0.000317228)
(6.82493e-05 -0.000104832 0.000297705)
(0.000139281 -2.21807e-05 0.000298368)
(0.000192499 -3.64534e-05 0.000159903)
(0.00010852 7.01002e-06 0.000560722)
(0.000135748 -3.00525e-05 0.000407121)
(7.3866e-05 -1.86585e-05 0.000454016)
(5.51342e-05 -0.000137978 0.000277504)
(1.88561e-05 8.47873e-05 0.000533411)
(6.97855e-05 7.11055e-05 0.00042136)
(5.24952e-05 -4.88283e-05 0.000442208)
(-5.82071e-05 -0.000100076 0.000342905)
(-2.93253e-05 0.000106066 0.000470111)
(-8.54357e-05 8.26633e-05 0.000473476)
(1.04443e-05 -0.000130337 0.000424941)
(-3.05227e-05 -7.95442e-05 0.000442226)
(-0.000214466 0.000556366 -1.8724e-05)
(-9.49599e-06 0.000245296 0.000189563)
(0.00173245 0.000103905 0.00022284)
(0.00128105 -0.000272906 -0.000539521)
(-0.00329223 0.00355789 -0.00483702)
(-0.00240554 0.00194523 -0.00367012)
(0.000373674 0.000297365 0.000316721)
(0.000647769 -0.00222539 -0.000377014)
(-4.29135e-05 -0.000927528 -0.00042503)
(0.000305673 6.41689e-05 0.00015847)
(-0.000100967 0.000267114 0.000306518)
(-0.000998164 0.000447132 0.00019032)
(-2.79278e-05 -0.000582861 -0.000115174)
(0.000139286 0.000399142 0.000579775)
(-0.000100209 -8.72724e-05 0.000457447)
(3.8419e-06 -8.37497e-05 0.000435616)
(0 0 0)
(0 0 0)
(0.00842241 2.5464e-05 -0.000269106)
(0 0 0)
(0 0 0)
(0 0 0)
(0 0 0)
(0 0 0)
(0 0 0)
(0 0 0)
(0 0 0)
(0 0 0)
(0 0 0)
(0 0 0)
(0 0 0)
(0 0 0)
(0 0 0)
(0 0 0)
(0 0 0)
(0 0 0)
(0 0 0)
(0 0 0)
(0 0 0)
(0 0 0)
(0 0 0)
(0 0 0)
(0 0 0)
(0 0 0)
(0 0 0)
(0 0 0)
(0 0 0)
(0 0 0)
(0 0 0)
(0 0 0)
(0 0 0)
(0 0 0)
(0 0 0)
(0 0 0)
(0 0 0)
(0 0 0)
(0 0 0)
(0 0 0)
(0 0 0)
(0 0 0)
(0 0 0)
(0 0 0)
(0 0 0)
(0 0 0)
(0 0 0)
(0 0 0)
(0 0 0)
(0 0 0)
(0 0 0)
(0 0 0)
(0 0 0)
(0 0 0)
(0 0 0)
(0 0 0)
(0 0 0)
(0 0 0)
(0 0 0)
(0 0 0)
(0 0 0)
(0 0 0)
(0 0 0)
(0 0 0)
(0 0 0)
(0 0 0)
(0 0 0)
(0 0 0)
(0 0 0)
(0 0 0)
(0 0 0)
(0 0 0)
(0 0 0)
(0 0 0)
(0 0 0)
(0 0 0)
(0 0 0)
(0 0 0)
(0 0 0)
(0 0 0)
(0 0 0)
(0 0 0)
(0 0 0)
(0 0 0)
(0 0 0)
(0 0 0)
(0 0 0)
(0 0 0)
(0 0 0)
(0 0 0)
(0 0 0)
(0 0 0)
(0 0 0)
(0 0 0)
(0 0 0)
(0 0 0)
(0 0 0)
(0 0 0)
(0 0 0)
(0 0 0)
(0 0 0)
(0 0 0)
(0 0 0)
(0 0 0)
(0 0 0)
(0 0 0)
(0 0 0)
(0 0 0)
(0 0 0)
(0 0 0)
(0 0 0)
(0 0 0)
(0 0 0)
(0 0 0)
(0 0 0)
(0 0 0)
(0 0 0)
(0 0 0)
(0 0 0)
(0 0 0)
(0 0 0)
(0 0 0)
(0 0 0)
(0 0 0)
(0 0 0)
(0 0 0)
(0 0 0)
(0 0 0)
(0 0 0)
(0 0 0)
(0 0 0)
(0 0 0)
(0 0 0)
(0 0 0)
(0 0 0)
(0 0 0)
(0 0 0)
(0 0 0)
(0 0 0)
(0 0 0)
(0 0 0)
(0 0 0)
(0 0 0)
(0 0 0)
(0 0 0)
(0 0 0)
(0 0 0)
(0 0 0)
(0 0 0)
(0 0 0)
(0 0 0)
(0 0 0)
(0 0 0)
(0 0 0)
(0 0 0)
(0 0 0)
(0 0 0)
(0 0 0)
(0 0 0)
(0 0 0)
(0 0 0)
(0 0 0)
(0 0 0)
(0 0 0)
(0 0 0)
(0 0 0)
(0 0 0)
(0 0 0)
(0 0 0)
(0 0 0)
(0 0 0)
(0 0 0)
(0 0 0)
(0 0 0)
(0 0 0)
(0 0 0)
(0 0 0)
(0 0 0)
(0 0 0)
(0 0 0)
(0 0 0)
(0 0 0)
(0 0 0)
(0 0 0)
(0 0 0)
(0 0 0)
(0 0 0)
(0 0 0)
(0 0 0)
(0 0 0)
(0 0 0)
(0 0 0)
(0 0 0)
(0 0 0)
(0 0 0)
(0 0 0)
(0 0 0)
(0 0 0)
(0 0 0)
(0 0 0)
(0 0 0)
(0 0 0)
(0 0 0)
(0 0 0)
(0 0 0)
(0 0 0)
(0 0 0)
(0 0 0)
(0 0 0)
(0 0 0)
(0 0 0)
(0 0 0)
(0 0 0)
(0 0 0)
(0 0 0)
(0 0 0)
(0 0 0)
(0 0 0)
(0 0 0)
(0 0 0)
(0 0 0)
(0 0 0)
(0 0 0)
(0 0 0)
(0 0 0)
(0 0 0)
(0 0 0)
(0 0 0)
(0 0 0)
(0 0 0)
(0 0 0)
(0 0 0)
(0 0 0)
(0 0 0)
(0 0 0)
(0 0 0)
(0 0 0)
(0 0 0)
(0 0 0)
(0 0 0)
(0 0 0)
(0 0 0)
(0 0 0)
(0 0 0)
(0 0 0)
(0 0 0)
(0 0 0)
(0 0 0)
(0 0 0)
(0 0 0)
(0 0 0)
(0 0 0)
(0 0 0)
(0 0 0)
(0 0 0)
(0 0 0)
(0 0 0)
(0 0 0)
(0 0 0)
(0 0 0)
(0 0 0)
(0 0 0)
(0 0 0)
(0 0 0)
(0 0 0)
(0 0 0)
(0 0 0)
(0 0 0)
(0 0 0)
(0 0 0)
)
;

boundaryField
{
    inlet
    {
        type            zeroGradient;
    }
    outlet
    {
        type            zeroGradient;
    }
    wall
    {
        type            zeroGradient;
    }
    procBoundary0to1
    {
        type            processor;
        value           nonuniform List<vector> 
192
(
(0.000276778 -0.00012618 4.86707e-05)
(5.44475e-05 -2.42222e-05 3.54365e-05)
(-1.18557e-05 -2.64917e-05 3.79479e-05)
(0.000751582 0.000321376 -0.000443928)
(-1.26919e-05 8.4804e-05 0.00017319)
(2.6045e-05 -6.88559e-07 0.000146639)
(4.63782e-05 1.41426e-06 0.000105751)
(6.72292e-05 6.54367e-05 0.000107981)
(-1.41681e-05 5.43585e-05 0.000343122)
(-2.56422e-05 -4.96389e-05 0.00028299)
(-8.0922e-05 5.03933e-06 0.000329313)
(-1.8215e-05 -6.71079e-06 0.000291487)
(-4.0907e-05 -3.93148e-05 0.00049977)
(-1.2671e-05 -5.60739e-05 0.000446182)
(-2.85911e-05 -3.64058e-05 0.000467079)
(-5.52311e-05 9.57103e-05 0.000528857)
(-5.33178e-05 -6.25062e-05 0.000558751)
(-2.13143e-05 -6.30105e-05 0.000550639)
(-0.000101649 -9.05562e-05 0.00061415)
(7.71187e-05 2.10066e-05 0.000675336)
(-0.000136074 4.64383e-05 0.000617646)
(-0.0001338 -6.74467e-05 0.000624261)
(-2.75557e-05 -6.95621e-06 0.000569729)
(0.000135273 -8.53947e-06 0.00050593)
(-0.00031999 -0.000111174 0.000153699)
(-0.000199283 0.000432217 0.000578372)
(-0.000519352 0.000644596 0.000573543)
(-0.000249872 0.000869251 6.13912e-06)
(0 0 0)
(0 0 0)
(0 0 0)
(0.00203561 -0.00158387 0.000707028)
(0 0 0)
(0 0 0)
(0 0 0)
(0 0 0)
(0 0 0)
(0 0 0)
(0 0 0)
(0 0 0)
(0 0 0)
(0 0 0)
(0 0 0)
(0 0 0)
(0 0 0)
(0 0 0)
(0 0 0)
(0 0 0)
(0 0 0)
(0 0 0)
(0 0 0)
(0 0 0)
(0 0 0)
(0 0 0)
(0 0 0)
(0 0 0)
(0 0 0)
(0 0 0)
(0 0 0)
(0 0 0)
(0 0 0)
(0 0 0)
(0 0 0)
(0 0 0)
(0 0 0)
(0 0 0)
(0 0 0)
(0 0 0)
(0 0 0)
(0 0 0)
(0 0 0)
(0 0 0)
(0 0 0)
(0 0 0)
(0 0 0)
(0 0 0)
(0 0 0)
(0 0 0)
(0 0 0)
(0 0 0)
(0 0 0)
(0 0 0)
(0 0 0)
(0 0 0)
(0 0 0)
(0 0 0)
(0 0 0)
(0 0 0)
(0 0 0)
(0 0 0)
(0 0 0)
(0 0 0)
(0 0 0)
(0 0 0)
(0 0 0)
(0 0 0)
(1.04835e-05 8.96859e-05 -1.8315e-06)
(-6.48206e-05 7.50912e-05 6.4453e-05)
(3.59102e-05 8.33775e-05 0.00010851)
(7.93084e-05 1.04474e-05 8.9643e-05)
(-4.05418e-05 1.08771e-05 9.00488e-05)
(-9.13047e-05 3.13558e-05 0.000149073)
(-1.49262e-05 0.000126309 0.000173241)
(-7.98531e-05 0.000161866 0.000162794)
(5.63761e-05 1.10208e-05 2.65734e-05)
(-1.80585e-05 4.67553e-05 0.00021456)
(-5.65912e-06 8.44801e-05 0.000298338)
(-1.83504e-05 8.5811e-05 0.000292223)
(1.51642e-05 -2.44567e-05 0.000102325)
(-7.9089e-05 -3.51179e-05 0.000206717)
(-0.0001057 -1.98338e-05 0.000332987)
(-6.69175e-05 -6.48357e-05 0.000425427)
(6.20922e-05 -5.09551e-05 0.000130265)
(-5.43381e-05 -2.95985e-05 0.000152105)
(-9.09607e-05 -8.47278e-05 0.0002396)
(-7.90717e-05 -7.00776e-05 0.000457768)
(8.69361e-05 -4.64816e-05 2.16046e-05)
(2.64272e-05 7.28005e-05 3.84137e-05)
(-0.00014127 -9.6771e-06 0.000146295)
(-0.000202545 -2.66533e-05 0.000288324)
(0.00439233 0.000602878 -0.00275285)
(0.000210745 0.00052248 -0.00060373)
(-5.64358e-05 -0.000257876 0.000142401)
(-0.000965795 -0.0016535 -0.00128476)
(0 0 0)
(0 0 0)
(0 0 0)
(0 0 0)
(0 0 0)
(0 0 0)
(0 0 0)
(0 0 0)
(0 0 0)
(0 0 0)
(0 0 0)
(0 0 0)
(0 0 0)
(0 0 0)
(0 0 0)
(0 0 0)
(0 0 0)
(0 0 0)
(0 0 0)
(0 0 0)
(0 0 0)
(0 0 0)
(0 0 0)
(0 0 0)
(0 0 0)
(0 0 0)
(0 0 0)
(0 0 0)
(0 0 0)
(0 0 0)
(0 0 0)
(0 0 0)
(0 0 0)
(0 0 0)
(0 0 0)
(0 0 0)
(0 0 0)
(0 0 0)
(0 0 0)
(0 0 0)
(0 0 0)
(0 0 0)
(0 0 0)
(0 0 0)
(0 0 0)
(0 0 0)
(0 0 0)
(0 0 0)
(0 0 0)
(0 0 0)
(0 0 0)
(0 0 0)
(0 0 0)
(0 0 0)
(0 0 0)
(0 0 0)
(0 0 0)
(0 0 0)
(0 0 0)
(0 0 0)
(0 0 0)
(0 0 0)
(0 0 0)
(0 0 0)
(0 0 0)
(0 0 0)
(0 0 0)
(0 0 0)
)
;
    }
    procBoundary0to2
    {
        type            processor;
        value           nonuniform List<vector> 
192
(
(2.49587e-05 -6.12735e-06 2.54378e-05)
(4.39014e-05 -6.27856e-06 1.84323e-05)
(5.12543e-05 -1.17928e-06 3.41829e-05)
(8.28706e-05 -5.75116e-05 3.62259e-05)
(8.76449e-05 9.54236e-06 0.000135859)
(2.53567e-05 1.10496e-05 0.000115492)
(3.89031e-06 2.77893e-05 8.73335e-05)
(2.12048e-05 3.17785e-05 8.08847e-05)
(9.0046e-05 7.86182e-06 0.000279787)
(5.64904e-05 0.000105919 0.000244091)
(2.7765e-05 6.09084e-05 0.000282822)
(-1.71323e-05 -1.80585e-05 0.000221978)
(3.98044e-05 5.16966e-05 0.000386911)
(-8.85046e-06 4.95616e-05 0.000432571)
(-0.000121487 3.7084e-05 0.000493784)
(-0.00020958 0.000133331 0.000450631)
(4.93979e-05 3.87705e-05 0.000463367)
(-7.66317e-05 5.54133e-05 0.000542261)
(-5.84393e-05 0.000103565 0.000538856)
(-0.000131111 0.00013168 0.000577639)
(0.000161056 3.89342e-05 0.00037583)
(0.000148154 9.75911e-05 0.000582811)
(1.14404e-05 0.000105055 0.000494665)
(-0.000130879 8.93332e-05 0.000492007)
(0.00025813 -0.000388248 0.000517034)
(0.00100593 -0.000401937 0.000631183)
(4.99439e-05 -0.000216707 0.000341152)
(0.000441816 0.000467166 0.00025922)
(0 0 0)
(0 0 0)
(0 0 0)
(0 0 0)
(0 0 0)
(0 0 0)
(0 0 0)
(0 0 0)
(0 0 0)
(0 0 0)
(0 0 0)
(0 0 0)
(0 0 0)
(0 0 0)
(0 0 0)
(0 0 0)
(0 0 0)
(0 0 0)
(0 0 0)
(0 0 0)
(0 0 0)
(0 0 0)
(0 0 0)
(0 0 0)
(0 0 0)
(0 0 0)
(0 0 0)
(0 0 0)
(0 0 0)
(0 0 0)
(0 0 0)
(0 0 0)
(0 0 0)
(0 0 0)
(0 0 0)
(0 0 0)
(0 0 0)
(0 0 0)
(0 0 0)
(0 0 0)
(0 0 0)
(0 0 0)
(0 0 0)
(0 0 0)
(0 0 0)
(0 0 0)
(0 0 0)
(0 0 0)
(0 0 0)
(0 0 0)
(0 0 0)
(0 0 0)
(0 0 0)
(0 0 0)
(0 0 0)
(0 0 0)
(0 0 0)
(0 0 0)
(0 0 0)
(0 0 0)
(0 0 0)
(0 0 0)
(0 0 0)
(0 0 0)
(0 0 0)
(0 0 0)
(0 0 0)
(0 0 0)
(1.4291e-05 3.14106e-05 1.80432e-05)
(2.64585e-06 -5.09095e-05 3.46508e-05)
(-6.02584e-06 -5.98505e-06 4.03504e-05)
(-2.57885e-06 -1.64349e-05 2.20919e-05)
(3.31236e-06 -3.96037e-05 4.51631e-05)
(4.30608e-05 -1.43461e-05 0.000105138)
(1.12522e-05 3.55978e-05 0.000105745)
(2.07677e-05 2.59802e-05 0.000126194)
(-2.85838e-05 -0.000147702 -0.000225556)
(-5.60093e-05 -3.5222e-05 0.00020172)
(4.56667e-05 -3.46587e-05 0.000206755)
(6.98729e-05 6.25805e-05 0.000237316)
(-2.18568e-06 3.11358e-05 0.000146549)
(3.73411e-05 5.40802e-05 0.000306978)
(6.68732e-05 -2.6871e-06 0.000322978)
(6.27562e-05 5.98075e-05 0.000353871)
(3.1146e-05 2.40448e-05 0.000243662)
(-3.30894e-05 -5.02037e-05 0.000313931)
(1.61432e-05 -4.79014e-05 0.000299473)
(4.80103e-05 9.66679e-05 0.000353565)
(-4.91596e-05 5.72818e-05 0.000223981)
(-6.8503e-05 -3.13792e-05 0.000243304)
(-0.000151486 -2.20181e-05 0.000188277)
(3.13043e-05 -8.56889e-05 4.93795e-05)
(-0.000860309 -0.00319547 -0.000692672)
(-0.0002746 0.000188956 -0.000164854)
(0.000740793 0.000119876 0.000218358)
(-6.62953e-05 -0.000386713 6.99002e-05)
(0 0 0)
(0 0 0)
(0 0 0)
(0 0 0)
(0 0 0)
(0 0 0)
(0 0 0)
(0 0 0)
(0 0 0)
(0 0 0)
(0 0 0)
(0 0 0)
(0 0 0)
(0 0 0)
(0 0 0)
(0 0 0)
(0 0 0)
(0 0 0)
(0 0 0)
(0 0 0)
(0 0 0)
(0 0 0)
(0 0 0)
(0 0 0)
(0 0 0)
(0 0 0)
(0 0 0)
(0 0 0)
(0 0 0)
(0 0 0)
(0 0 0)
(0 0 0)
(0 0 0)
(0 0 0)
(0 0 0)
(0 0 0)
(0 0 0)
(0 0 0)
(0 0 0)
(0 0 0)
(0 0 0)
(0 0 0)
(0 0 0)
(0 0 0)
(0 0 0)
(0 0 0)
(0 0 0)
(0 0 0)
(0 0 0)
(0 0 0)
(0 0 0)
(0 0 0)
(0 0 0)
(0 0 0)
(0 0 0)
(0 0 0)
(0 0 0)
(0 0 0)
(0 0 0)
(0 0 0)
(0 0 0)
(0 0 0)
(0 0 0)
(0 0 0)
(0 0 0)
(0 0 0)
(0 0 0)
(0 0 0)
)
;
    }
}


// ************************************************************************* //
