FoamFile
{version 2.0; format ascii;class Cloud<passiveParticle>; location 0;object  positions;}
2499
(
( 0.00164915 -0.00391078 0.00604504 ) 0 
( 0.000400239 -0.00501868 0.00504939 ) 0 
( 0.0124374 -0.000908319 0.00351322 ) 0 
( 0.000115197 -0.0133512 0.00513461 ) 0 
( 0.0109637 -0.00402893 0.00454461 ) 0 
( 0.00321143 -0.00406071 0.00545809 ) 0 
( 0.00491471 -0.00362954 0.0004979 ) 0 
( 0.00527044 -0.0122661 0.00235063 ) 0 
( 0.00437406 -0.00420718 0.006964 ) 0 
( 0.00831737 -0.00579799 0.00409067 ) 0 
( 0.00456701 -0.00147788 0.00586098 ) 0 
( 0.01021 -0.00706841 0.0063752 ) 0 
( 0.00511655 -0.00873952 0.00494949 ) 0 
( 0.00482115 -0.0105105 0.00049903 ) 0 
( 0.00505713 -0.00529901 0.00393969 ) 0 
( 0.00911418 -0.00848853 0.00408608 ) 0 
( 0.00922722 -0.00205256 0.000499046 ) 0 
( 0.0122166 -0.00250932 0.00595724 ) 0 
( 0.00464003 -0.00604251 0.00719793 ) 0 
( 0.00224881 -0.0131612 0.00232069 ) 0 
( 0.00516796 -0.00144186 0.00148218 ) 0 
( 0.00751733 -0.00480827 0.000498169 ) 0 
( 0.00896905 -0.00419186 0.00627842 ) 0 
( 0.00401618 -0.0012938 0.00312013 ) 0 
( 0.00104144 -0.00702517 0.0054567 ) 0 
( 0.0102238 -0.00752766 0.00221469 ) 0 
( 0.000973639 -0.00332109 0.00285774 ) 0 
( 0.00376432 -0.00648581 0.0070153 ) 0 
( 0.00415678 -0.00696088 0.00609165 ) 0 
( 0.00894354 -0.00277278 0.00129731 ) 0 
( 0.000649369 -0.00979212 0.00146749 ) 0 
( 7.40653e-05 -0.00736176 0.00276172 ) 0 
( 0.00493638 -0.00381491 0.00583298 ) 0 
( 0.00923892 -0.00211936 0.00375224 ) 0 
( 0.00903209 -0.00294843 0.00323437 ) 0 
( 0.0133389 -0.000569076 0.00476927 ) 0 
( 0.00627133 -0.000956006 0.000498768 ) 0 
( 0.0112692 -0.00425154 0.00200308 ) 0 
( 0.00763941 -0.0109482 0.00128139 ) 0 
( 0.00738757 -0.00748258 0.00539281 ) 0 
( 0.000185904 -0.00471344 0.00806729 ) 0 
( 0.00411945 -0.00436039 0.00601061 ) 0 
( 0.00560456 -0.0111587 0.00670402 ) 0 
( 0.00136287 -0.00869745 0.00221495 ) 0 
( 0.0076143 -0.00844642 0.00526469 ) 0 
( 0.00773068 -0.000997975 0.000499423 ) 0 
( 0.0033982 -0.000340918 0.000499779 ) 0 
( 9.15464e-05 -0.00103062 0.00557028 ) 0 
( 0.00833565 -0.00981932 0.00347046 ) 0 
( 0.00416901 -0.00518367 0.00700131 ) 0 
( 0.00456087 -0.00740042 0.00363917 ) 0 
( 0.0133233 -0.000862449 0.00662397 ) 0 
( 0.00228781 -0.0112801 0.00644478 ) 0 
( 0.00183652 -0.00554437 0.00528589 ) 0 
( 0.0074415 -0.0037522 0.000499779 ) 0 
( 0.000570145 -0.000750717 0.000499384 ) 0 
( 0.0094022 -0.0094797 0.00049911 ) 0 
( 0.00860818 -0.00904197 0.00245425 ) 0 
( 0.00315792 -0.0061808 0.00404569 ) 0 
( 0.0120517 -0.00349588 0.00578084 ) 0 
( 0.00155243 -0.00720759 0.00223414 ) 0 
( 0.0071836 -0.00115097 0.00517062 ) 0 
( 0.00793672 -0.0107356 0.00347241 ) 0 
( 0.00824377 -0.00149757 0.00566145 ) 0 
( 0.00937815 -0.00501317 0.00493962 ) 0 
( 0.00398915 -0.00119391 0.00509621 ) 0 
( 0.00889178 -0.00404585 0.0046058 ) 0 
( 0.000961853 -0.0104252 0.00693701 ) 0 
( 0.0055945 -0.00909294 0.0057509 ) 0 
( 0.00367989 -0.00357272 0.00208766 ) 0 
( 0.00244147 -0.00685686 0.000499673 ) 0 
( 0.00826979 -0.00744703 0.000499253 ) 0 
( 0.0107195 -0.00344659 0.00374543 ) 0 
( 0.00603239 -0.0026409 0.00580822 ) 0 
( 0.00698957 -0.00109586 0.00318698 ) 0 
( 0.00380059 -0.00123782 0.00645653 ) 0 
( 0.0116474 -0.00466885 0.00282496 ) 0 
( 0.000461256 -0.00246348 0.0028921 ) 0 
( 0.00925819 -0.00727059 0.00613328 ) 0 
( 0.00179468 -0.00350264 0.00381775 ) 0 
( 0.00985897 -0.00426839 0.00672188 ) 0 
( 0.00726422 -0.0069962 0.000498048 ) 0 
( 0.00472491 -0.00397258 0.00206145 ) 0 
( 0.00212455 -0.0123605 0.00643526 ) 0 
( 0.00869501 -0.00888397 0.00612388 ) 0 
( 0.00046276 -0.012359 0.000499779 ) 0 
( 0.00921907 -0.00161364 0.00540741 ) 0 
( 0.0109592 -0.00502094 0.00108967 ) 0 
( 0.00520059 -0.00521936 0.00711551 ) 0 
( 0.00334658 -0.00756922 0.000499779 ) 0 
( 0.00945983 -0.00825474 0.0049921 ) 0 
( 0.00153612 -0.0109499 0.00509676 ) 0 
( 0.00201824 -0.00507802 0.00382388 ) 0 
( 0.00111536 -0.0039432 0.00208872 ) 0 
( 0.001827 -0.0105545 0.000498882 ) 0 
( 0.0054288 -0.00709784 0.00478889 ) 0 
( 0.00233016 -0.00516943 0.00106159 ) 0 
( 0.00726815 -0.00916996 0.00467007 ) 0 
( 0.00445748 -0.0123531 0.00138757 ) 0 
( 0.00161146 -0.00641686 0.00485249 ) 0 
( 0.00456675 -0.0114788 0.000499879 ) 0 
( 0.000555491 -0.00371934 0.0073657 ) 0 
( 0.0106354 -0.00626325 0.00136188 ) 0 
( 0.00380168 -0.00292707 0.00355545 ) 0 
( 0.00138971 -0.00172625 0.00757061 ) 0 
( 0.00291031 -0.00775264 0.00581334 ) 0 
( 0.0117564 -0.00442422 0.00114794 ) 0 
( 0.00580122 -0.00781492 0.00116538 ) 0 
( 0.00761625 -0.00436825 0.0050695 ) 0 
( 0.00109033 -0.0133052 0.000499508 ) 0 
( 0.00193886 -0.00599286 0.000499262 ) 0 
( 0.00655674 -0.00270506 0.00697785 ) 0 
( 0.000173918 -0.00108381 0.00411042 ) 0 
( 0.0118555 -0.00613797 0.0014555 ) 0 
( 0.00434347 -0.00215669 0.00516192 ) 0 
( 0.0018789 -0.0114358 0.000965659 ) 0 
( 0.00447816 -0.00566046 0.00502949 ) 0 
( 0.0118124 -0.00622354 0.00437542 ) 0 
( 0.00657433 -0.00448183 0.000498339 ) 0 
( 0.0109605 -0.00262374 0.0067902 ) 0 
( 0.00277971 -0.00489623 0.00510978 ) 0 
( 0.00805631 -0.00995135 0.00632549 ) 0 
( 0.00507468 -0.00464215 0.00136164 ) 0 
( 0.000974706 -0.00335471 0.00460061 ) 0 
( 0.00778174 -0.00497952 0.00429585 ) 0 
( 0.00292292 -0.00702657 0.00666376 ) 0 
( 0.00831654 -0.0043715 0.000906578 ) 0 
( 0.00309291 -0.00978273 0.00200721 ) 0 
( 0.0068703 -0.00969098 0.00688371 ) 0 
( 0.00784293 -0.00993045 0.00119322 ) 0 
( 0.0103994 -0.00529537 0.00627479 ) 0 
( 0.00114041 -0.0088022 0.00553347 ) 0 
( 0.00429698 -0.00148507 0.00197108 ) 0 
( 0.00266985 -0.0107565 0.00461092 ) 0 
( 0.0116757 -0.00117469 0.00639676 ) 0 
( 0.00762671 -0.00938386 0.00561163 ) 0 
( 0.00698929 -0.00328045 0.00488737 ) 0 
( 0.0100024 -0.00568159 0.00544526 ) 0 
( 0.0131682 -0.00219687 0.00580567 ) 0 
( 0.00923372 -0.00740935 0.0022661 ) 0 
( 0.00588116 -0.0100608 0.000990514 ) 0 
( 0.00896934 -0.00670176 0.000497677 ) 0 
( 0.00380337 -0.0111059 0.00198291 ) 0 
( 0.00328186 -0.00504679 0.00645865 ) 0 
( 0.00472555 -0.00989653 0.00286115 ) 0 
( 0.00960834 -0.00689326 0.00316842 ) 0 
( 0.00365312 -0.00986097 0.00294542 ) 0 
( 0.00654903 -0.00635317 0.00610203 ) 0 
( 0.0102612 -0.00259968 0.00607533 ) 0 
( 0.00431012 -0.00487684 0.00196254 ) 0 
( 0.0104805 -0.00486357 0.00194971 ) 0 
( 0.00447812 -0.0044067 0.00358431 ) 0 
( 0.00564164 -0.000501111 0.00297184 ) 0 
( 0.00214066 -0.00121354 0.00132414 ) 0 
( 0.0092512 -0.00694851 0.00707922 ) 0 
( 0.0089735 -0.00123859 0.00336219 ) 0 
( 0.00618658 -0.00042869 0.00134492 ) 0 
( 0.000208045 -0.00651902 0.00771611 ) 0 
( 0.00626902 -0.00843759 0.00299363 ) 0 
( 3.76268e-05 -0.00541891 0.00320325 ) 0 
( 0.00608612 -1.47999e-05 0.00543507 ) 0 
( 0.00229892 -0.00870023 0.00323506 ) 0 
( 0.00287588 -0.0130376 0.00621567 ) 0 
( 0.000362659 -0.000504535 0.00206879 ) 0 
( 0.000910883 -0.00327817 0.00581595 ) 0 
( 0.00290325 -0.00975523 0.000499446 ) 0 
( 0.00384242 -0.0108099 0.00634017 ) 0 
( 0.0132172 -0.00187899 0.00306506 ) 0 
( 0.00130206 -0.00519079 0.00738209 ) 0 
( 0.00599362 -0.00155908 0.00350358 ) 0 
( 0.00538405 -0.00911843 0.000498176 ) 0 
( 0.00288762 -0.00639943 0.00748686 ) 0 
( 0.0126583 -0.00424336 0.00614485 ) 0 
( 0.000777902 -0.00386726 0.000496812 ) 0 
( 0.00114213 -0.00558061 0.00456859 ) 0 
( 0.00723033 -0.00819511 0.0031143 ) 0 
( 0.00411036 -0.00205446 0.00392946 ) 0 
( 0.00653074 -0.00751807 0.00270601 ) 0 
( 0.0019961 -0.00272493 0.00158066 ) 0 
( 0.00508031 -0.00725817 0.00157503 ) 0 
( 0.000170798 -0.00553979 0.00750877 ) 0 
( 0.0105668 -0.00816029 0.000499042 ) 0 
( 0.000481593 -0.00960991 0.00729233 ) 0 
( 0.0123122 -0.00189592 0.00228671 ) 0 
( 0.00167014 -0.00169653 0.00568935 ) 0 
( 0.00221299 -0.00693548 0.00153556 ) 0 
( 0.000283871 -0.00402793 0.00270702 ) 0 
( 0.000432363 -0.00418657 0.00449949 ) 0 
( 0.00371733 -0.0035419 0.00731608 ) 0 
( 0.00652927 -7.82819e-05 0.0063278 ) 0 
( 0.0104819 -0.00367591 0.00561249 ) 0 
( 0.00293892 -0.00583748 0.00148772 ) 0 
( 0.00457688 -0.0047337 0.000499574 ) 0 
( 0.00468128 -0.011402 0.00159751 ) 0 
( 0.00324987 -0.0106568 0.0012843 ) 0 
( 0.0107557 -0.00210043 0.000499779 ) 0 
( 0.00886284 -0.00998389 0.00117122 ) 0 
( 0.00291994 -0.0122792 0.00463714 ) 0 
( 0.000988688 -0.00800208 0.00685035 ) 0 
( 0.0106776 -0.00260609 0.00428504 ) 0 
( 0.00859001 -0.00500222 0.00673367 ) 0 
( 0.0023211 -0.00897715 0.00219638 ) 0 
( 0.000901099 -0.00392089 0.00365758 ) 0 
( 0.0080109 -0.00109646 0.00377923 ) 0 
( 0.00196444 -0.0104097 0.00581948 ) 0 
( 0.0115164 -0.0034398 0.00140096 ) 0 
( 0.00286794 -0.0104636 0.00624421 ) 0 
( 0.00239497 -0.0101412 0.00126863 ) 0 
( 0.00688494 -0.00967811 0.00130928 ) 0 
( 0.00971505 -0.00450133 0.00414966 ) 0 
( 0.00712123 -0.0112929 0.000499002 ) 0 
( 0.000796182 -0.0079991 0.00504791 ) 0 
( 0.0100417 -0.0057896 0.00445417 ) 0 
( 0.00273736 -0.00131159 0.00450574 ) 0 
( 0.00545429 -0.000629882 0.00198997 ) 0 
( 0.00739274 -0.00639119 0.00664136 ) 0 
( 0.00764475 -0.00166572 0.00268665 ) 0 
( 0.00696667 -0.00879246 0.00176559 ) 0 
( 0.00881218 -0.00753776 0.00411634 ) 0 
( 0.00241514 -0.00421936 0.00350126 ) 0 
( 0.0100408 -0.00879941 0.00365358 ) 0 
( 0.00735912 -0.010152 0.00503064 ) 0 
( 0.00929052 -0.00474658 0.00322975 ) 0 
( 0.00654604 -0.0060643 0.00705876 ) 0 
( 0.010208 -0.00684176 0.00734805 ) 0 
( 0.00555237 -0.00910947 0.00280687 ) 0 
( 0.00595423 -0.00290475 0.0010477 ) 0 
( 0.00518397 -0.00470374 0.00626226 ) 0 
( 0.00969153 -0.00473198 0.00584701 ) 0 
( 0.00159105 -0.00769844 0.0013637 ) 0 
( 0.00697025 -0.00161552 0.00195087 ) 0 
( 0.00467142 -0.00272733 0.00440953 ) 0 
( 0.00741012 -0.00933184 0.000498323 ) 0 
( 0.00255 -0.00796155 0.00147648 ) 0 
( 0.00166612 -0.0132468 0.00640473 ) 0 
( 0.00584988 -0.0105996 0.00585518 ) 0 
( 0.00639954 -0.0112988 0.00538045 ) 0 
( 0.000362528 -0.0111024 0.00298788 ) 0 
( 0.00128731 -0.00332738 0.00120339 ) 0 
( 0.000829093 -0.0102165 0.00313641 ) 0 
( 0.00228943 -0.00428201 0.00449054 ) 0 
( 0.00770608 -0.00387334 0.00420551 ) 0 
( 0.0120406 -0.000366424 0.00425334 ) 0 
( 0.00185271 -0.0121195 0.00375016 ) 0 
( 0.00944566 -0.00824071 0.00598946 ) 0 
( 0.00956268 -0.000789248 0.00491316 ) 0 
( 0.00470219 -0.0104709 0.00451958 ) 0 
( 0.000679938 -0.00142964 0.0022806 ) 0 
( 0.00327855 -0.00202896 0.00816715 ) 0 
( 0.00408518 -0.00370846 0.00298856 ) 0 
( 0.013049 -0.00278817 0.00344488 ) 0 
( 0.00270248 -0.00955737 0.00291393 ) 0 
( 0.003142 -0.00677409 0.00120794 ) 0 
( 0.00570767 -0.0112116 0.00394669 ) 0 
( 0.00765127 -0.000289284 0.0014902 ) 0 
( 0.00516395 -0.00263262 0.000499284 ) 0 
( 0.00203575 -0.00712466 0.0031051 ) 0 
( 0.0117865 -0.000546587 0.00562741 ) 0 
( 0.00985593 -0.00785274 0.00329863 ) 0 
( 0.00803917 -0.00224432 0.0019742 ) 0 
( 0.00900292 -0.00503802 0.00127234 ) 0 
( 0.00542974 -0.00317726 0.00521918 ) 0 
( 0.00173322 -0.001261 0.00319385 ) 0 
( 0.00637391 -0.00965498 0.00601839 ) 0 
( 0.00880377 -0.00557162 0.00294836 ) 0 
( 0.000680039 -0.00294947 0.00373638 ) 0 
( 0.00783896 -0.00471099 0.00614489 ) 0 
( 0.000642298 -0.00806807 0.00102918 ) 0 
( 0.00297269 -0.0025326 0.00408084 ) 0 
( 0.00571974 -0.00343719 0.00632438 ) 0 
( 0.00481943 -0.00253724 0.00601609 ) 0 
( 0.00595702 -0.000365512 0.00781467 ) 0 
( 0.0132528 -0.00162007 0.00210034 ) 0 
( 0.0049104 -0.00263314 0.00737952 ) 0 
( 0.0130509 -0.00278754 0.000499556 ) 0 
( 0.00706348 -0.000214512 0.00549547 ) 0 
( 0.00985225 -0.00171887 0.0063137 ) 0 
( 0.00642862 -0.0073314 0.00593597 ) 0 
( 0.0101937 -0.00862092 0.00131517 ) 0 
( 0.0112515 -0.000225101 0.00245627 ) 0 
( 0.00733619 -0.0105492 0.00667329 ) 0 
( 0.000701658 -0.00271867 0.00732308 ) 0 
( 0.00458719 -0.00328947 0.00663136 ) 0 
( 0.00215013 -0.00486374 0.00779764 ) 0 
( 0.0103661 -0.00841614 0.00264932 ) 0 
( 0.00306406 -0.0129931 0.000498691 ) 0 
( 0.00442521 -0.00581126 0.00255327 ) 0 
( 0.0124791 -0.000934905 0.00250251 ) 0 
( 0.00749551 -0.00925035 0.00343604 ) 0 
( 0.00133231 -0.00845149 0.00318282 ) 0 
( 0.0113644 -0.00700699 0.0014121 ) 0 
( 0.00597647 -0.00455644 0.00322713 ) 0 
( 0.00776807 -0.00230684 0.00531933 ) 0 
( 0.00684287 -0.0105098 0.00580621 ) 0 
( 0.00692024 -0.00175237 0.000499778 ) 0 
( 0.00798793 -0.00150677 0.00469692 ) 0 
( 0.00416431 -0.0126844 0.00498108 ) 0 
( 0.00233779 -0.00535589 0.00212213 ) 0 
( 0.0101712 -0.0048149 0.000499552 ) 0 
( 0.00314375 -0.00603305 0.00637749 ) 0 
( 0.00307549 -0.000484694 0.00212485 ) 0 
( 0.00536754 -0.00765209 0.0024468 ) 0 
( 0.00233237 -0.00581918 0.0031495 ) 0 
( 0.00937728 -0.0067135 0.00412388 ) 0 
( 0.00433736 -0.00807358 0.00162674 ) 0 
( 0.0082056 -0.00727053 0.00486207 ) 0 
( 0.000442733 -0.00484668 0.00609918 ) 0 
( 0.00119112 -0.00557779 0.00357086 ) 0 
( 0.0102165 -0.00191536 0.00370272 ) 0 
( 0.00148853 -0.0031948 0.00771311 ) 0 
( 0.0132898 -0.00126833 0.00397999 ) 0 
( 0.00249518 -0.00344523 0.00578645 ) 0 
( 0.00712361 -0.00256544 0.00221658 ) 0 
( 0.00332978 -0.00575044 0.00315381 ) 0 
( 0.00190115 -0.00828281 0.00714544 ) 0 
( 0.00608321 -0.00354153 0.00455607 ) 0 
( 0.00367494 -0.00512274 0.00554375 ) 0 
( 0.00612018 -0.00257854 0.00481602 ) 0 
( 0.0076425 -0.0107742 0.00251894 ) 0 
( 0.000117318 -0.0124872 0.00563627 ) 0 
( 0.0060546 -0.0044434 0.00134882 ) 0 
( 0.00383547 -0.000207983 0.00375412 ) 0 
( 0.0130179 -0.00296581 0.00496531 ) 0 
( 0.00162584 -0.0100292 0.0037036 ) 0 
( 0.0124786 -0.00213226 0.00506986 ) 0 
( 0.000637366 -0.00655285 0.00467406 ) 0 
( 0.0044958 -0.0108234 0.00543064 ) 0 
( 0.00117317 -0.00655246 0.00332764 ) 0 
( 0.0100764 -0.00407146 0.00767564 ) 0 
( 0.0128219 -0.00372486 0.000760154 ) 0 
( 0.00958104 -0.00544226 0.00213821 ) 0 
( 0.00347225 -0.00432188 0.00348336 ) 0 
( 0.000901718 -0.0133198 0.00371116 ) 0 
( 0.00190323 -0.00944556 0.00556049 ) 0 
( 0.00701308 -0.0113601 0.00302725 ) 0 
( 0.0026426 -0.0122177 0.00559411 ) 0 
( 0.00662395 -0.00195396 0.0028291 ) 0 
( 0.00459604 -0.0125358 0.00409442 ) 0 
( 0.00774474 -0.00549962 0.00692423 ) 0 
( 0.00137095 -0.00207815 0.00274851 ) 0 
( 0.00833912 -0.00439072 0.00336431 ) 0 
( 0.0126266 -0.00154573 0.00683583 ) 0 
( 0.00982281 -0.000720226 0.0030484 ) 0 
( 0.00875871 -0.00806356 0.00669376 ) 0 
( 0.00391982 -0.00355165 0.00049881 ) 0 
( 0.00397747 -0.00254148 0.00049978 ) 0 
( 0.00214609 -0.00761562 0.006442 ) 0 
( 0.00630109 -0.00986824 0.00209546 ) 0 
( 0.00440602 -0.000442429 0.000498032 ) 0 
( 0.00546721 -0.00976946 0.00648069 ) 0 
( 0.000755766 -0.00219875 0.00818183 ) 0 
( 0.00280523 -0.00887144 0.00638864 ) 0 
( 0.00755769 -0.00204247 0.00689975 ) 0 
( 0.000512776 -0.00882124 0.00167396 ) 0 
( 0.0109966 -0.00487392 0.00544331 ) 0 
( 0.00557825 -0.00469649 0.000499671 ) 0 
( 0.00069793 -0.0116847 0.00577233 ) 0 
( 0.00919624 -0.00723876 0.00498821 ) 0 
( 0.000465672 -0.00507138 0.00403654 ) 0 
( 0.000275457 -0.000638613 0.003221 ) 0 
( 0.0103525 -0.00842119 0.00452428 ) 0 
( 0.000340422 -0.00700138 0.000498908 ) 0 
( 0.000440274 -0.00280905 0.0013191 ) 0 
( 0.00471255 -0.00659908 0.00527636 ) 0 
( 0.0115261 -0.00120618 0.0023681 ) 0 
( 0.00330668 -0.00979587 0.00684549 ) 0 
( 0.00932976 -0.00796139 0.0012757 ) 0 
( 0.010135 -0.0052413 0.00362524 ) 0 
( 0.00870913 -0.00119857 0.000496973 ) 0 
( 0.0105447 -0.00137992 0.00448688 ) 0 
( 0.00327432 -0.0108084 0.00381794 ) 0 
( 0.000846396 -0.00167907 0.00673322 ) 0 
( 0.00359761 -0.00206654 0.00143668 ) 0 
( 0.000101389 -0.00460335 0.000499618 ) 0 
( 0.00380928 -0.00747354 0.00687548 ) 0 
( 0.0031812 -0.00416462 0.00133688 ) 0 
( 0.0117693 -0.00421601 0.00510664 ) 0 
( 0.00834234 -0.0104254 0.00190004 ) 0 
( 0.000824976 -0.0105604 0.00220247 ) 0 
( 3.07567e-05 -0.00738585 0.00485764 ) 0 
( 0.000813695 -0.00188584 0.00362627 ) 0 
( 0.00154625 -0.00267364 0.00533663 ) 0 
( 0.00962988 -0.00850814 0.000497681 ) 0 
( 0.000991251 -0.00751424 0.00312803 ) 0 
( 0.00416627 -0.00720004 0.0011756 ) 0 
( 0.00773049 -0.00295472 0.00653303 ) 0 
( 0.00103694 -0.00163449 0.000499546 ) 0 
( 0.00671426 -0.00391556 0.00301697 ) 0 
( 0.00934925 -0.00354299 0.00221381 ) 0 
( 0.00111037 -0.00946757 0.0043658 ) 0 
( 0.00311329 -0.00241485 0.00652711 ) 0 
( 0.00178423 -0.00160704 0.00448804 ) 0 
( 6.3449e-06 -0.00984019 0.00070712 ) 0 
( 0.0110312 -0.00385688 0.00288949 ) 0 
( 0.00247868 -0.000468274 0.0040357 ) 0 
( 0.00210584 -0.00277174 0.00451521 ) 0 
( 0.00307063 -0.0120716 0.00657416 ) 0 
( 0.00167547 -0.00755131 0.00489043 ) 0 
( 0.00517894 -0.00399745 0.00300527 ) 0 
( 0.00845292 -0.00346372 0.000499779 ) 0 
( 0.0107516 -0.00779694 0.00141076 ) 0 
( 0.00359227 -0.00657278 0.00485615 ) 0 
( 0.0113422 -0.00704192 0.00631793 ) 0 
( 0.00671857 -0.00610859 0.00438384 ) 0 
( 0.00984866 -0.00659317 0.00224599 ) 0 
( 0.0021206 -0.00806734 0.00398776 ) 0 
( 0.0121081 -0.00275839 0.00182816 ) 0 
( 0.00919189 -0.00452921 0.00225527 ) 0 
( 0.000890309 -0.00574296 0.00552933 ) 0 
( 0.00345038 -0.00370816 0.00636209 ) 0 
( 0.00553068 -0.00763257 0.00389097 ) 0 
( 0.00126247 -0.0024602 0.00627044 ) 0 
( 0.00822031 -0.000854863 0.00283287 ) 0 
( 0.00679922 -0.00514315 0.00463077 ) 0 
( 0.00154029 -0.000497094 0.000499779 ) 0 
( 0.00354695 -0.0120946 0.00170893 ) 0 
( 0.0089623 -0.0016101 0.00675241 ) 0 
( 0.00309043 -0.00979037 0.00381552 ) 0 
( 0.0062368 -0.00483278 0.00544859 ) 0 
( 0.0028193 -0.00240414 0.000806137 ) 0 
( 0.00677962 -0.00349493 0.0063978 ) 0 
( 0.000200128 -0.0031577 0.00222385 ) 0 
( 0.00998756 -0.00257502 0.00235032 ) 0 
( 0.00411019 -0.00639517 0.0032994 ) 0 
( 0.000769068 -0.00588369 0.00166525 ) 0 
( 0.00549865 -0.00588653 0.000497973 ) 0 
( 0.00313115 -0.00678282 0.00571694 ) 0 
( 0.0110125 -0.00421975 0.000496568 ) 0 
( 0.000232946 -0.0110579 0.00397813 ) 0 
( 0.00100407 -0.00267623 0.000499589 ) 0 
( 0.002369 -0.00785378 0.000499384 ) 0 
( 0.0106099 -0.000398032 0.00122504 ) 0 
( 0.000832108 -0.00896163 0.00661767 ) 0 
( 0.00695333 -0.00678463 0.00217782 ) 0 
( 0.00621965 -0.00162539 0.0044746 ) 0 
( 0.00898414 -0.009875 0.00447266 ) 0 
( 0.00508948 -0.00727083 0.00591217 ) 0 
( 0.00364144 -0.00974616 0.0011725 ) 0 
( 0.00638247 -0.0107358 0.00455458 ) 0 
( 0.00741212 -0.00285021 0.00747331 ) 0 
( 0.0020267 -0.00481069 0.0068075 ) 0 
( 0.007028 -0.00267738 0.00587856 ) 0 
( 0.00340096 -0.00268649 0.00267459 ) 0 
( 0.000360942 -0.0133453 0.00610236 ) 0 
( 0.0069828 -0.00429952 0.00584005 ) 0 
( 0.00259447 -0.00659047 0.0047999 ) 0 
( 0.0112966 -0.00308817 0.00230985 ) 0 
( 0.00641471 -0.0106217 0.00356213 ) 0 
( 0.00586454 -0.00139877 0.00247982 ) 0 
( 0.00816821 -0.00372346 0.00171661 ) 0 
( 0.0117683 -0.00237536 0.0043888 ) 0 
( 0.00222421 -0.0113555 0.00307801 ) 0 
( 0.00268275 -0.00160134 0.006138 ) 0 
( 0.003571 -0.00547425 0.0046158 ) 0 
( 0.00262467 -0.0120601 0.000499779 ) 0 
( 0.0063933 -0.0117199 0.00701086 ) 0 
( 0.00395146 -0.011774 0.00407754 ) 0 
( 0.00395484 -0.00606929 0.00135756 ) 0 
( 0.000706937 -0.00668766 0.00234856 ) 0 
( 0.00380478 -0.00883044 0.00636462 ) 0 
( 0.00729032 -0.0038373 0.00737284 ) 0 
( 0.00548682 -0.0108988 0.00496767 ) 0 
( 0.00413553 -0.0126948 0.00226965 ) 0 
( 0.00174427 -0.00854257 0.00478155 ) 0 
( 0.00359957 -0.00897289 0.00733043 ) 0 
( 0.00361042 -0.00649949 0.0022706 ) 0 
( 9.67236e-05 -0.0105385 0.00742038 ) 0 
( 0.00247163 -0.00200187 0.00517764 ) 0 
( 0.00523186 -0.0113815 0.00580533 ) 0 
( 0.00298911 -0.000188076 0.00322328 ) 0 
( 0.00911173 -0.000892766 0.00216637 ) 0 
( 0.00158561 -0.00411132 0.00295454 ) 0 
( 0.00152394 -0.00974053 0.000990192 ) 0 
( 0.00854922 -0.00931019 0.00523414 ) 0 
( 0.00491247 -0.00935672 0.00367843 ) 0 
( 7.62093e-05 -0.000605711 0.00803033 ) 0 
( 0.00270499 -0.0110309 0.000497878 ) 0 
( 0.00238405 -0.00180969 0.00371569 ) 0 
( 0.0119889 -0.00378625 0.00316225 ) 0 
( 0.00171122 -0.00943677 0.00290432 ) 0 
( 0.0106924 -0.00152777 0.0029135 ) 0 
( 0.00141905 -0.0132751 0.00456385 ) 0 
( 0.0119163 -0.00602385 0.00535179 ) 0 
( 0.00392448 -0.00172513 0.00746725 ) 0 
( 0.00590743 -0.00373837 0.000499141 ) 0 
( 0.00702435 -0.011354 0.00199216 ) 0 
( 0.0027205 -0.0116441 0.00389399 ) 0 
( 0.0085865 -0.000731431 0.0051194 ) 0 
( 0.00608688 -0.0063578 0.00245829 ) 0 
( 0.00259456 -0.00903353 0.00497026 ) 0 
( 0.00757793 -0.00616018 0.00171346 ) 0 
( 0.00360417 -0.00449948 0.000497193 ) 0 
( 0.0013028 -0.00417826 0.00784559 ) 0 
( 0.000262832 -0.0067181 0.00145366 ) 0 
( 0.00246525 -0.00448172 0.00597154 ) 0 
( 0.000806726 -0.00926301 0.00343572 ) 0 
( 0.0062879 -0.0006327 0.00372778 ) 0 
( 0.0116661 -0.00542817 0.000499781 ) 0 
( 0.0122281 -0.00535787 0.00643742 ) 0 
( 0.00585434 -0.0119436 0.000496881 ) 0 
( 0.00172251 -0.0043616 0.00137528 ) 0 
( 0.00979792 -0.00761022 0.00426649 ) 0 
( 0.000478781 -0.00823988 0.00602586 ) 0 
( 0.00243275 -0.0094134 0.00714235 ) 0 
( 0.0060556 -0.00718146 0.00189415 ) 0 
( 0.000997091 -0.0114416 0.0017674 ) 0 
( 0.0132994 -0.00112741 0.00123055 ) 0 
( 0.00590245 -0.00702613 0.00753018 ) 0 
( 0.0114221 -0.00215887 0.00265362 ) 0 
( 0.00412717 -0.00984044 0.00206551 ) 0 
( 0.00486345 -0.00162542 0.000498578 ) 0 
( 0.00144227 -0.000832897 0.00698519 ) 0 
( 0.00399183 -0.00496036 0.00291232 ) 0 
( 0.00665777 -0.00536272 0.00618454 ) 0 
( 0.0112137 -0.00702348 0.00436681 ) 0 
( 0.000278198 -6.65627e-05 0.00117436 ) 0 
( 0.0120277 -0.00253843 0.000499779 ) 0 
( 0.0058939 -0.0033378 0.00278442 ) 0 
( 0.000986878 -0.0107332 0.0059037 ) 0 
( 0.00528112 -0.00822562 0.00613225 ) 0 
( 0.00993439 -0.00702308 0.00134862 ) 0 
( 0.00624055 -0.0081916 0.00640907 ) 0 
( 0.0108156 -0.00782781 0.005997 ) 0 
( 0.00194941 -0.0103401 0.00681518 ) 0 
( 0.00265068 -0.00198829 0.00174721 ) 0 
( 0.00185202 -0.00333624 0.00238237 ) 0 
( 0.00941701 -0.00189771 0.00188897 ) 0 
( 0.000418453 -0.0133445 0.00280079 ) 0 
( 0.00582705 -0.00699517 0.00318211 ) 0 
( 0.00502804 -0.00177379 0.00336765 ) 0 
( 0.00487948 -0.000760289 0.00522285 ) 0 
( 0.00714802 -0.00823753 0.00684296 ) 0 
( 0.0033229 -0.00955465 0.00587739 ) 0 
( 0.00777437 -0.000689821 0.00601132 ) 0 
( 0.00264654 -0.00326745 0.00675779 ) 0 
( 0.00339524 -0.00451711 0.00224552 ) 0 
( 0.00723549 -0.00303107 0.00394361 ) 0 
( 0.00485015 -0.00175026 0.00784456 ) 0 
( 0.00561462 -0.000584211 0.00610659 ) 0 
( 0.00691854 -0.000521564 0.00758694 ) 0 
( 0.00933455 -0.00252565 0.00659521 ) 0 
( 0.00536209 -0.00406826 0.00701156 ) 0 
( 0.00675642 -0.00579711 0.000497886 ) 0 
( 0.00343681 -0.0118264 0.00322256 ) 0 
( 0.00326167 -0.00156269 0.000498299 ) 0 
( 0.0016614 -0.000307668 0.00348268 ) 0 
( 0.0112005 -0.0020718 0.00362334 ) 0 
( 0.00814056 -0.0105812 0.00049805 ) 0 
( 0.00279557 -0.00344054 0.00479382 ) 0 
( 0.00830672 -0.00198028 0.00341686 ) 0 
( 0.00629801 -0.00360894 0.00552897 ) 0 
( 0.0094937 -0.00301567 0.000499845 ) 0 
( 0.0049281 -0.000961461 0.00672657 ) 0 
( 0.0108676 -0.00133131 0.00712874 ) 0 
( 0.00339169 -0.00168441 0.00234562 ) 0 
( 0.00278176 -0.00493747 0.00291202 ) 0 
( 0.00354383 -0.00755233 0.00505096 ) 0 
( 0.00615799 -0.00689597 0.00413549 ) 0 
( 0.00662441 -0.010669 0.00126746 ) 0 
( 0.0048902 -0.00686753 0.00286216 ) 0 
( 0.0102089 -0.00459319 0.00286991 ) 0 
( 0.00659351 -0.00101592 0.00596619 ) 0 
( 0.0118613 -0.00367602 0.00049652 ) 0 
( 0.00477724 -0.00476404 0.00535459 ) 0 
( 0.0101877 -0.00862927 0.00653333 ) 0 
( 0.000848916 -0.0103477 0.000497455 ) 0 
( 0.00166112 -0.00621605 0.00252367 ) 0 
( 0.00764828 -0.00362305 0.00323818 ) 0 
( 0.00692974 -0.00882588 0.00606125 ) 0 
( 0.00471543 -0.000306425 0.00329128 ) 0 
( 0.00217292 -0.00703745 0.00558876 ) 0 
( 0.00024917 -0.00921301 0.00534355 ) 0 
( 0.00270093 -0.00545853 0.00715992 ) 0 
( 0.0105007 -0.00580105 0.00229662 ) 0 
( 0.00353268 -0.00933134 0.00480207 ) 0 
( 0.0122815 -0.00523601 0.00139742 ) 0 
( 0.00462218 -0.0022442 0.00124363 ) 0 
( 0.0117879 -0.00153216 0.00546989 ) 0 
( 0.00731562 -0.00451421 0.00354557 ) 0 
( 0.00146345 -0.00827676 0.000498593 ) 0 
( 0.00430214 -0.00905931 0.00146849 ) 0 
( 0.00573936 -0.00685302 0.00654639 ) 0 
( 0.00700056 -0.000981569 0.00118044 ) 0 
( 0.00810715 -0.00114863 0.0069833 ) 0 
( 0.0109809 -0.00583067 0.00503094 ) 0 
( 0.0126611 -0.000337122 0.00609184 ) 0 
( 0.00732267 -0.00171072 0.00598676 ) 0 
( 0.00760972 -0.00623277 0.00353723 ) 0 
( 0.00746641 -0.0070378 0.0041108 ) 0 
( 0.00639937 -0.00936316 0.00049732 ) 0 
( 0.00387805 -0.00917754 0.00387518 ) 0 
( 0.00863549 -0.00182283 0.00127255 ) 0 
( 0.00858407 -0.000521936 0.00121798 ) 0 
( 0.00296392 -0.00584905 0.00535998 ) 0 
( 0.0130815 -0.00228479 0.00136326 ) 0 
( 0.00148101 -0.0117158 0.00684299 ) 0 
( 0.00291912 -0.00665962 0.00320397 ) 0 
( 0.00771609 -0.00607659 0.000498626 ) 0 
( 0.00182379 -0.00593478 0.00149003 ) 0 
( 0.00402476 -0.0127291 0.000569403 ) 0 
( 0.00142633 -0.00193144 0.00137075 ) 0 
( 0.000199013 -0.00460749 0.0070735 ) 0 
( 0.0012541 -0.00674133 0.00133539 ) 0 
( 0.00559271 -0.000391586 0.00462898 ) 0 
( 0.00861497 -0.00563625 0.00197047 ) 0 
( 0.00129598 -0.0113296 0.00271234 ) 0 
( 0.00695416 -0.00601611 0.00281678 ) 0 
( 0.00551492 -0.0121592 0.00419663 ) 0 
( 0.00400689 -0.00371662 0.00412913 ) 0 
( 0.0114382 -0.00523397 0.00193954 ) 0 
( 0.00213077 -0.00912137 0.000497887 ) 0 
( 0.00365869 -0.00728631 0.00296595 ) 0 
( 0.000435158 -0.0107557 0.00130739 ) 0 
( 0.00363939 -0.012845 0.0068501 ) 0 
( 0.0026343 -0.00629083 0.00232145 ) 0 
( 0.000164164 -0.0073108 0.00584506 ) 0 
( 0.00205173 -0.0131921 0.00361856 ) 0 
( 0.00433513 -0.00485045 0.0044651 ) 0 
( 0.00526736 -0.00279144 0.00177513 ) 0 
( 0.00411164 -0.00990514 0.00537887 ) 0 
( 0.0110144 -0.00536283 0.00316597 ) 0 
( 0.00606516 -0.00523089 0.00395875 ) 0 
( 0.00505283 -0.0123603 0.00585843 ) 0 
( 0.00118558 -0.00239986 0.00439911 ) 0 
( 0.00329678 -0.00194945 0.00333799 ) 0 
( 0.0071237 -0.00114858 0.00680296 ) 0 
( 0.0123803 -0.00160262 0.0042287 ) 0 
( 0.0018391 -0.00358389 0.00504591 ) 0 
( 0.00128799 -0.00710609 0.00646739 ) 0 
( 0.00369154 -0.00292731 0.00465213 ) 0 
( 0.0102791 -0.00852008 0.0055158 ) 0 
( 0.00506106 -0.00636303 0.00201738 ) 0 
( 0.0132644 -0.00151535 0.0050806 ) 0 
( 0.00220308 -0.00114646 0.00755182 ) 0 
( 0.00488614 -0.00629144 0.0062293 ) 0 
( 0.00553202 -0.00509931 0.00479397 ) 0 
( 0.00160942 -0.0124567 0.00510522 ) 0 
( 0.000565707 -0.0026211 0.00514958 ) 0 
( 0.00791303 -0.0082676 0.00620118 ) 0 
( 0.00828117 -0.00470053 0.00188062 ) 0 
( 0.0109801 -0.00319952 0.00049978 ) 0 
( 0.00676074 -0.00753007 0.00461836 ) 0 
( 0.00938242 -0.00645238 0.00557541 ) 0 
( 0.001706 -0.00509846 0.00285368 ) 0 
( 0.00477726 -0.0114675 0.00455085 ) 0 
( 0.0107522 -0.000763919 0.0063145 ) 0 
( 0.00123896 -0.00978503 0.00622356 ) 0 
( 0.00197308 -0.00388008 0.00716816 ) 0 
( 0.00136681 -0.00732045 0.00747394 ) 0 
( 0.011736 -0.00636394 0.00244002 ) 0 
( 0.00829777 -0.00729101 0.00585665 ) 0 
( 0.0107355 -0.00623709 0.00656512 ) 0 
( 0.00568364 -0.012006 0.00516848 ) 0 
( 0.000276297 -0.00277325 0.00640056 ) 0 
( 0.00307623 -0.00272661 0.00748035 ) 0 
( 0.00477399 -0.00650717 0.000791789 ) 0 
( 0.00662029 -0.0089244 0.00379295 ) 0 
( 0.0117237 -0.000562115 0.00072171 ) 0 
( 0.00706889 -0.0112939 0.00761084 ) 0 
( 0.00923924 -0.00445117 0.000499152 ) 0 
( 0.00824801 -0.00726391 0.00219054 ) 0 
( 0.00762106 -0.00890586 0.00250875 ) 0 
( 0.00956999 -0.00931157 0.00248145 ) 0 
( 0.00356852 -0.00188932 0.0057344 ) 0 
( 0.00250004 -0.000780797 0.000498908 ) 0 
( 0.00867425 -0.00171169 0.00253008 ) 0 
( 0.00110906 -0.0114543 0.00368514 ) 0 
( 0.00936684 -0.00333043 0.00718685 ) 0 
( 0.00859006 -0.00551564 0.000498471 ) 0 
( 0.0123439 -0.00508801 0.00548241 ) 0 
( 0.00674131 -0.00235131 0.00131647 ) 0 
( 0.0017752 -0.003841 0.000498103 ) 0 
( 0.00778174 -0.0108489 0.00582981 ) 0 
( 0.00956781 -0.00931024 0.00692234 ) 0 
( 0.000849773 -0.0095324 0.00240943 ) 0 
( 0.000598021 -0.0133395 0.00136869 ) 0 
( 0.00791901 -0.00529677 0.00332293 ) 0 
( 0.00280995 -0.00366107 0.00771653 ) 0 
( 0.00923071 -0.00860724 0.00310249 ) 0 
( 0.000951362 -0.00620786 0.000499781 ) 0 
( 0.00321377 -0.00087105 0.00768333 ) 0 
( 0.0017178 -0.00253887 0.00356468 ) 0 
( 0.0029533 -0.00172308 0.00722991 ) 0 
( 0.0075364 -0.0100307 0.00405607 ) 0 
( 0.00387341 -0.00608951 0.00569782 ) 0 
( 0.0100595 -0.00120493 0.00221153 ) 0 
( 0.00839618 -0.00205883 0.00744182 ) 0 
( 0.00858458 -0.00918812 0.00706756 ) 0 
( 0.0107845 -0.0050228 0.00447792 ) 0 
( 0.00298275 -0.00824204 0.00233286 ) 0 
( 0.00291349 -0.0116055 0.00239922 ) 0 
( 0.00165043 -0.0122883 0.000498122 ) 0 
( 0.0121767 -0.00547593 0.00256688 ) 0 
( 0.00460995 -0.00190724 0.00676262 ) 0 
( 0.00175299 -0.00976429 0.00196119 ) 0 
( 0.00141345 -0.0132759 0.00285523 ) 0 
( 0.0116955 -0.00642888 0.000499783 ) 0 
( 0.000612705 -0.00018703 0.00404604 ) 0 
( 0.0108883 -0.00772454 0.00500108 ) 0 
( 0.00206145 -0.00925186 0.00415343 ) 0 
( 0.00620179 -0.00079189 0.00694493 ) 0 
( 0.00650622 -0.0116585 0.00119578 ) 0 
( 0.00387427 -0.00285778 0.00605578 ) 0 
( 0.00615884 -0.0118455 0.00320888 ) 0 
( 0.0109359 -0.00589993 0.00402395 ) 0 
( 0.00208384 -0.000429201 0.00246028 ) 0 
( 0.00759846 -0.00352351 0.00572446 ) 0 
( 0.0122077 -0.0027528 0.00282312 ) 0 
( 0.0108155 -0.00735796 0.00300107 ) 0 
( 0.00573787 -0.00318506 0.00728953 ) 0 
( 0.00548328 -0.00221201 0.00414041 ) 0 
( 0.0100593 -0.00545272 0.00126102 ) 0 
( 0.00665513 -0.0063037 0.00135378 ) 0 
( 0.00198599 -0.00286359 0.000499812 ) 0 
( 0.000907964 -0.0016885 0.00504341 ) 0 
( 0.00704112 -0.00224289 0.00463607 ) 0 
( 0.0074474 -0.00988266 0.00211021 ) 0 
( 0.00292129 -0.00574446 0.000496531 ) 0 
( 0.00539285 -0.00369574 0.00137098 ) 0 
( 0.00151614 -0.00725609 0.00394901 ) 0 
( 0.00223564 -0.00624721 0.00673525 ) 0 
( 0.00252414 -0.00715375 0.00397693 ) 0 
( 0.00996076 -0.00227806 0.00113884 ) 0 
( 0.00112769 -0.000625989 0.00270044 ) 0 
( 0.00957793 -0.00588418 0.000499191 ) 0 
( 0.000986895 -0.0114816 0.000499779 ) 0 
( 0.00648084 -0.00430526 0.00405151 ) 0 
( 0.000382603 -0.00389507 0.00639698 ) 0 
( 0.00788586 -0.00270521 0.00284807 ) 0 
( 0.00874103 -0.00738869 0.00313286 ) 0 
( 0.00409753 -0.00550111 0.00374538 ) 0 
( 0.00795568 -0.00778641 0.00366611 ) 0 
( 0.00572805 -0.00309325 0.00373791 ) 0 
( 0.0101363 -0.00681313 0.00476559 ) 0 