/*--------------------------------*- C++ -*----------------------------------*\
| =========                 |                                                 |
| \\      /  F ield         | OpenFOAM: The Open Source CFD Toolbox           |
|  \\    /   O peration     | Version:  2506                                  |
|   \\  /    A nd           | Website:  www.openfoam.com                      |
|    \\/     M anipulation  |                                                 |
\*---------------------------------------------------------------------------*/
FoamFile
{
    version     2.0;
    format      ascii;
    arch        "LSB;label=32;scalar=64";
    class       volScalarField;
    location    "0.004";
    object      p;
}
// * * * * * * * * * * * * * * * * * * * * * * * * * * * * * * * * * * * * * //

dimensions      [0 2 -2 0 0 0 0];

internalField   nonuniform List<scalar> 
512
(
3.88764
30.3414
48.568
52.1369
60.7654
70.2428
64.8312
45.6115
35.0134
32.535
25.4174
9.28474
-3.71549
-6.40995
-9.52506
-17.0354
-22.5975
-31.7428
-41.0516
-46.3638
-42.0417
-27.3867
-10.0704
3.7128
5.71119
-5.43791
-8.58646
-10.5306
-17.6742
-31.5986
-34.0659
-19.3996
6.40175
30.4318
46.4085
48.9175
57.0103
67.8764
64.1579
44.8091
33.9194
31.156
24.2602
8.87965
-2.35856
-5.5026
-11.6432
-18.2827
-22.3239
-29.6434
-35.7092
-42.9606
-42.5557
-28.9803
-12.2303
1.13076
3.63667
-6.26562
-8.40324
-8.87717
-15.0011
-28.0028
-30.9336
-16.1675
10.3635
29.9292
40.5312
43.4765
52.6282
64.7555
62.3266
44.2841
32.8053
27.9731
20.9984
9.50711
-1.05738
-5.80906
-13.4121
-18.1286
-21.0383
-28.5445
-33.0249
-38.5497
-39.8883
-28.258
-14.1088
-4.44171
-0.942849
-5.83335
-8.3428
-10.62
-12.092
-18.2685
-23.4202
-11.0074
16.7169
29.9373
33.3546
37.7385
48.7481
59.1477
58.2689
44.707
34.3554
26.3373
15.8003
6.45813
0.109087
-5.30558
-14.2871
-18.3951
-21.4326
-29.3655
-31.977
-33.8737
-33.6834
-24.5708
-15.8474
-11.0241
-6.21484
-6.182
-10.01
-12.3959
-7.66248
-8.44032
-14.2599
-3.31
21.7804
31.26
31.47
32.4973
41.6322
50.9075
52.119
44.0743
34.8145
26.0179
13.1159
3.34672
-0.126883
-4.6069
-12.7039
-18.8536
-25.2505
-27.5883
-28.5039
-33.4497
-30.8345
-26.0065
-23.1667
-16.7001
-8.11005
-6.42267
-13.4158
-13.9442
-1.26505
3.65217
-4.81654
3.81604
21.0959
28.4135
32.251
34.0871
39.7266
45.4393
46.7924
41.6549
32.7712
25.3617
15.2513
4.58456
-2.0983
-6.65681
-12.1742
-17.4769
-23.1725
-27.7011
-30.4581
-30.0718
-31.3584
-33.5797
-28.2066
-18.7119
-11.4834
-14.6515
-20.5287
-11.2943
7.79285
17.3136
12.5464
12.5918
22.7009
25.4622
31.9201
37.5987
39.1029
41.665
43.7176
39.3174
30.9602
25.1002
16.5895
5.88148
-2.40842
-7.62343
-12.0329
-16.4743
-22.3329
-26.9884
-29.9351
-29.5707
-34.0985
-39.0959
-31.4926
-19.3574
-16.7495
-26.6437
-25.5439
-11.0046
9.68955
27.2643
31.9492
23.4518
24.953
26.4248
35.0686
39.7417
35.3501
37.4595
41.3508
37.5375
29.6149
25.0677
17.554
6.46678
-2.14846
-7.48536
-11.2994
-15.7527
-21.833
-26.0913
-28.8242
-30.3422
-37.6406
-40.9662
-31.6466
-21.1808
-24.7281
-34.322
-26.6074
-8.57724
11.15
32.2678
42.8031
31.8886
8.95928
30.8517
45.2855
47.0068
55.3196
67.4214
64.7471
45.9909
33.593
30.7839
23.7281
5.886
-8.14669
-9.22813
-10.1397
-17.0589
-24.4442
-32.2031
-40.2162
-42.5658
-37.3694
-24.6392
-10.9132
-0.517246
0.667303
-6.97547
-4.6457
-4.29179
-16.8816
-30.7718
-27.4028
-11.5255
10.6241
30.3423
42.747
44.5282
52.5952
65.1712
63.9608
45.991
31.6397
27.2696
21.3951
7.66357
-6.53848
-9.37036
-10.7077
-16.5818
-22.3342
-28.4314
-36.8097
-42.1176
-38.7077
-26.8055
-13.4315
-3.46682
-1.30062
-5.75457
-2.74268
-2.24051
-13.869
-27.6057
-25.6323
-9.94066
14.7214
30.0854
36.0055
39.8908
48.4228
59.2857
61.4446
48.6923
31.0712
24.6442
18.596
4.87051
-5.50895
-8.43973
-12.8738
-18.7441
-19.891
-23.9665
-33.7257
-41.2495
-38.9883
-26.8916
-13.4206
-6.75572
-5.38547
-3.58293
-0.508369
-2.83549
-10.5328
-20.3818
-19.7089
-5.21548
18.4011
28.1954
30.5506
35.4807
43.2847
52.7874
57.7125
48.8088
33.1753
21.7335
11.2761
2.91103
-1.77632
-8.09506
-16.1534
-18.7659
-21.0449
-27.3714
-33.2591
-38.17
-33.6374
-22.715
-13.5107
-8.35996
-6.85665
-4.72549
-3.49499
-4.82994
-5.34823
-9.06478
-10.0812
1.7813
20.6924
26.7898
29.0511
31.8182
39.5046
46.919
51.0571
46.0562
32.3971
22.1376
11.795
0.519822
-2.16055
-4.6913
-12.2448
-20.2637
-27.8973
-30.0559
-31.3158
-33.3324
-28.5065
-20.4202
-17.5284
-13.1898
-7.86295
-7.4581
-9.06141
-7.95115
1.24741
6.30518
-0.182924
7.13572
20.0822
22.8648
28.079
35.1559
40.4728
43.3918
44.0265
41.1634
31.796
23.7921
16.1283
4.72173
-2.81227
-7.93595
-12.5964
-20.2182
-27.6391
-29.7394
-29.4869
-28.9882
-28.7191
-27.8725
-24.322
-16.5577
-11.1971
-15.5643
-18.7277
-8.66104
10.2704
19.7175
14.2774
13.5433
21.6138
25.1165
30.8934
36.8282
38.7057
38.1082
39.5025
38.8356
32.1023
25.7205
18.2427
6.54626
-3.50274
-10.0985
-12.4457
-16.5651
-23.9966
-28.3036
-28.4472
-27.3659
-31.2938
-34.0829
-27.9362
-19.399
-18.9958
-26.7214
-22.6457
-8.11105
11.055
26.7692
29.3939
21.2028
25.1985
31.4636
35.0542
34.4759
35.3743
36.403
36.7511
36.3253
31.9037
26.3414
18.1277
6.61392
-2.33934
-9.89022
-11.3776
-14.1756
-22.9374
-26.1842
-26.625
-28.4281
-35.4745
-36.4288
-28.9281
-23.0608
-27.2333
-32.8583
-23.3201
-6.70988
11.7114
29.6635
35.7044
26.1653
)
;

boundaryField
{
    wall
    {
        type            zeroGradient;
    }
    outlet
    {
        type            cyclic;
    }
    inlet
    {
        type            cyclic;
    }
    procBoundary1to0
    {
        type            processor;
        value           nonuniform List<scalar> 
256
(
0.371655
29.6361
52.0857
58.8666
63.4225
70.9203
66.3854
48.9115
34.4609
29.1567
23.3679
12.0275
1.03219
-4.6268
-9.4199
-16.6671
-24.3334
-31.7722
-35.5353
-39.1348
-41.5292
-30.6315
-12.9495
1.24435
4.58178
-4.8705
-10.9186
-15.4112
-19.277
-29.3587
-37.1713
-24.2765
2.23099
28.2797
48.64
54.8076
62.4356
71.1748
65.583
47.1505
33.9811
28.6907
21.9304
10.5289
0.995059
-4.15989
-10.3064
-18.5272
-24.1594
-28.4614
-32.2709
-37.2606
-40.7017
-30.4588
-14.2121
-2.33395
0.943095
-7.1004
-11.0135
-13.0344
-16.1699
-25.8486
-33.4701
-21.3429
5.36891
27.3736
43.9089
50.0869
58.9339
68.8942
63.9325
45.4951
33.4984
27.6226
20.1701
8.24595
-0.571765
-3.7087
-10.1447
-17.5343
-23.5492
-28.9757
-29.771
-33.2448
-38.4171
-27.5334
-14.9256
-10.6477
-6.22709
-6.0692
-10.3215
-12.3507
-12.365
-19.1394
-26.5016
-15.3901
11.6703
27.7579
35.9981
42.3282
53.7335
64.4241
60.995
44.0107
34.5243
27.5686
15.449
3.53878
-1.52695
-2.91298
-9.78058
-16.9532
-22.4946
-27.2429
-28.2494
-32.9453
-34.3551
-24.7331
-17.7453
-16.9017
-7.92349
-4.2681
-13.7056
-15.9156
-8.86521
-9.61107
-17.1431
-7.96878
18.5193
30.3925
34.3891
38.062
47.8353
56.1435
54.7525
42.2376
33.0649
26.2482
14.3249
2.67572
-1.38146
-2.94033
-9.93725
-16.7485
-21.9637
-26.5923
-27.6821
-31.2084
-31.7319
-28.753
-25.0222
-18.367
-9.2387
-7.05304
-16.2794
-17.0868
-3.51903
1.06025
-6.65365
0.526774
22.4498
33.4215
37.2858
35.5491
42.2674
48.9251
47.474
39.1508
31.3093
25.4793
14.797
3.10339
-1.61552
-3.86403
-10.8775
-17.1956
-21.3349
-27.4915
-28.4255
-27.8444
-32.8913
-37.6067
-31.4913
-20.2663
-11.7832
-14.3221
-21.2772
-13.2358
4.71268
11.8059
6.32333
9.9399
24.9484
32.0589
36.316
38.966
41.0539
44.2942
43.5866
35.6751
29.2014
26.0062
16.5496
3.88629
-1.84773
-4.41513
-10.6617
-18.0436
-23.1773
-26.1385
-27.4675
-28.3242
-36.046
-42.8815
-34.2245
-19.977
-15.2973
-25.7432
-26.4118
-12.8965
7.26983
24.6945
29.0251
20.7296
29.5335
30.587
36.5052
40.5047
39.851
41.7057
39.7991
30.7423
26.7208
26.9056
19.1682
4.97166
-2.23952
-4.87401
-11.3505
-18.6486
-23.0653
-24.8795
-26.8499
-29.3236
-38.5739
-45.2935
-35.5834
-21.3152
-21.609
-33.0264
-27.0742
-9.60542
9.57333
28.97
38.7779
32.1557
)
;
    }
    procBoundary1to2
    {
        type            processor;
        value           nonuniform List<scalar> 
256
(
14.1436
25.4748
33.5933
42.2123
53.3955
64.7264
65.2894
50.5851
31.2725
25.4801
20.7711
5.79945
-6.07154
-9.33641
-15.4294
-23.2342
-27.4716
-30.9943
-34.3405
-35.8856
-35.04
-25.5676
-12.7781
-9.30497
-9.66698
-7.04653
-2.39354
-5.24129
-16.5904
-19.8586
-13.3497
-0.861998
12.8472
22.4259
32.2483
43.1519
53.0412
62.153
63.2934
50.1008
30.2834
22.3343
16.8772
5.39485
-5.5809
-11.2082
-15.0975
-20.8133
-24.9631
-27.2248
-32.0582
-36.0861
-35.6693
-28.3731
-16.4129
-10.5492
-8.98491
-4.78955
0.58947
-1.17873
-11.6877
-19.6476
-14.6317
-2.29568
14.7394
21.2067
30.1855
40.8484
48.7769
57.443
60.7375
49.0663
28.8233
20.7044
15.9463
3.48598
-8.52192
-13.5728
-15.2168
-18.5327
-21.0215
-25.0536
-31.6924
-35.2256
-34.9142
-27.1854
-17.0939
-12.1869
-8.70185
-1.5913
3.88972
0.631418
-9.20984
-16.7371
-11.1184
1.40347
19.3732
23.9414
26.375
32.7799
41.312
50.443
55.9937
49.9245
33.4591
16.7762
7.10967
-1.4866
-5.24649
-8.72466
-13.893
-17.5682
-21.6679
-28.7433
-32.9149
-33.4391
-30.0886
-22.5014
-15.2434
-11.298
-8.08928
-1.93617
2.4498
0.941885
-6.55162
-8.33399
-3.69048
7.47275
20.6125
22.9462
26.0435
30.387
37.2321
42.5869
47.8747
48.5135
37.4057
16.6887
3.94338
-1.06272
-4.48442
-6.66169
-10.2188
-17.1314
-27.1673
-32.0205
-32.4068
-30.7799
-25.9599
-18.1955
-13.5301
-10.9284
-10.4406
-6.18805
-2.23169
-2.3596
2.50026
2.8086
-0.554828
10.012
16.4619
22.9436
28.3959
32.5145
36.716
39.6005
41.1222
43.8428
37.7922
19.8154
9.05335
3.49961
-2.69394
-6.86942
-10.6186
-19.6292
-28.1594
-30.7653
-29.7401
-27.809
-25.2638
-21.6001
-17.6187
-13.6221
-12.3368
-16.0818
-14.7323
-5.39936
10.3871
17.8629
11.1452
9.87612
19.1934
28.0286
32.5819
31.8308
34.6749
37.5409
37.607
40.3591
37.5176
24.5429
13.2291
6.48594
-2.1914
-10.3905
-13.3714
-18.94
-26.9945
-27.0678
-24.7398
-24.8127
-26.8441
-28.4018
-23.9871
-18.9414
-21.2216
-23.0381
-17.3424
-5.19239
10.4473
22.0447
20.9156
15.3601
24.4673
32.5958
34.7611
30.8815
33.9488
36.8116
32.8778
34.6392
35.3759
27.0573
15.1156
7.50098
0.796158
-6.62951
-12.6785
-19.3627
-26.7458
-24.9668
-21.4837
-25.0687
-30.6026
-29.4996
-28.7376
-28.7431
-27.9647
-23.9938
-15.9104
-4.54594
9.7823
21.1926
23.9991
20.9378
)
;
    }
}


// ************************************************************************* //
