/*--------------------------------*- C++ -*----------------------------------*\
| =========                 |                                                 |
| \\      /  F ield         | OpenFOAM: The Open Source CFD Toolbox           |
|  \\    /   O peration     | Version:  2506                                  |
|   \\  /    A nd           | Website:  www.openfoam.com                      |
|    \\/     M anipulation  |                                                 |
\*---------------------------------------------------------------------------*/
FoamFile
{
    version     2.0;
    format      ascii;
    arch        "LSB;label=32;scalar=64";
    class       surfaceScalarField;
    location    "0.004";
    object      phi;
}
// * * * * * * * * * * * * * * * * * * * * * * * * * * * * * * * * * * * * * //

dimensions      [0 3 -1 0 0 0 0];

oriented        oriented;

internalField   nonuniform List<scalar> 
1200
(
0.00172587
9.88064e-06
4.24394e-05
0.00174193
-5.31815e-06
-2.4151e-05
0.0017738
-1.67061e-05
-3.95613e-05
0.00178095
-7.22228e-06
-5.46324e-06
0.00177874
6.1601e-06
1.56422e-05
0.00178535
2.79769e-06
1.93486e-06
0.00181327
-1.13328e-05
-1.76746e-05
0.00184935
-7.4398e-06
-1.16411e-05
0.00187065
-3.50741e-06
-9.42281e-07
0.00186121
-5.50424e-06
-7.36497e-06
0.00183254
-1.50083e-06
-1.09671e-05
0.00181677
-8.54904e-07
-4.16949e-06
0.00183496
-8.71127e-06
5.33843e-06
0.0018469
-9.50091e-06
-5.64646e-06
0.00183931
8.67487e-06
-2.81084e-05
0.00182536
1.19658e-05
-2.22975e-05
0.0017994
9.36206e-06
3.41668e-06
0.0017649
1.3651e-05
9.75246e-06
0.00175624
1.97899e-06
3.56906e-06
0.00176282
-4.94695e-06
6.98916e-06
0.00177378
-7.63406e-06
-2.72264e-06
0.00181132
-9.21724e-06
-4.37396e-05
0.00185222
-1.0809e-05
-4.18702e-05
0.00186391
-5.4424e-06
-1.78878e-05
0.00184899
3.97149e-06
-1.54046e-06
0.00182953
8.87814e-06
7.22961e-06
0.00181898
9.52048e-06
5.23195e-06
0.00181114
5.16812e-06
4.38504e-06
0.00179708
1.82017e-06
2.70683e-05
0.00179846
3.40587e-06
3.57139e-05
0.00179154
1.04161e-05
5.23357e-05
1.69939e-05
6.55611e-05
0.00180828
1.35288e-05
3.18306e-05
0.00180295
5.82984e-06
-1.17164e-05
0.00178177
-1.1748e-05
-1.8249e-05
0.00176006
-5.55544e-06
3.85501e-06
0.00176909
-1.98505e-06
8.08009e-06
0.00180035
-1.46854e-05
-8.05718e-06
0.00183242
-2.05279e-05
-2.25869e-05
0.00187713
-1.57675e-05
-1.59244e-05
0.00189262
-5.59924e-06
5.07459e-06
0.00187184
-2.3528e-06
-2.89202e-06
0.00184404
-8.33512e-07
-1.03015e-05
0.00184618
-1.13017e-05
-6.39919e-06
0.0018445
-9.72403e-06
9.25786e-06
0.00182377
-1.46948e-06
-1.18838e-06
0.00183424
4.78353e-06
-2.91273e-05
0.00184562
4.14902e-06
-2.79346e-05
0.00184456
3.89876e-06
-8.93624e-06
0.00184329
1.18458e-05
-1.21925e-06
0.00182022
1.15113e-05
8.71189e-06
0.00179655
3.24787e-06
1.8562e-05
0.00177601
4.4187e-06
7.51016e-06
0.00181466
-1.87835e-05
-4.94213e-05
0.00186878
-3.32834e-05
-4.28172e-05
0.00188567
-2.52195e-05
-5.0766e-06
0.00186754
5.39098e-06
3.77725e-06
0.00186653
2.05864e-06
2.02916e-06
0.00186167
1.40736e-05
9.08859e-06
0.00183982
3.25578e-05
4.25614e-06
0.00181068
2.60478e-05
2.22112e-05
0.00181166
2.22722e-06
4.0513e-05
0.00180504
1.36011e-05
5.11989e-05
1.55782e-05
4.4731e-05
0.00182267
5.59257e-06
2.62814e-05
0.00183599
8.14952e-07
-4.26246e-06
0.00177931
1.48599e-05
7.60369e-06
0.00174939
8.46403e-06
1.40343e-05
0.00176596
-1.33875e-05
-6.39707e-07
0.00180072
-3.52812e-05
-1.17552e-05
0.00182653
-2.92217e-05
-1.4595e-05
0.00188521
-2.87256e-05
-2.71976e-05
0.00192735
-2.64857e-05
-3.17828e-06
0.00193627
-1.45973e-05
-4.97259e-06
0.00191367
3.9664e-06
-5.40685e-06
0.00187911
2.31783e-06
9.32466e-06
0.0018664
-5.60847e-06
3.2861e-07
0.00186026
-8.9165e-07
-1.60397e-05
0.00186952
2.56001e-06
-2.76819e-05
0.0018683
3.92527e-07
-1.29275e-05
0.00185977
3.12903e-06
-2.95243e-06
0.00186268
1.40158e-05
-2.12584e-05
0.00184006
2.18881e-05
-7.02672e-06
0.00181138
1.19366e-05
9.47824e-06
0.00178031
1.41107e-05
-3.20296e-06
0.00180778
-2.64874e-05
-3.67228e-05
0.00187985
-6.20065e-05
-3.28873e-05
0.00189411
-4.32439e-05
-1.22856e-05
0.00186371
8.29144e-06
4.97371e-07
0.00186015
-2.98596e-06
1.63951e-05
0.00186302
1.07442e-05
1.90016e-05
0.00189196
2.79612e-05
5.40248e-06
0.00189219
3.64799e-05
1.95107e-05
0.00185722
2.09312e-05
4.55695e-05
0.00183744
2.95348e-05
3.96133e-05
3.03045e-05
4.12432e-05
0.00180054
4.83178e-06
3.07105e-05
0.00178927
-1.8314e-06
2.17614e-06
0.00175599
2.64315e-05
7.23723e-06
0.00174631
1.7473e-05
-8.57911e-06
0.0017853
-3.16024e-05
-1.94244e-05
0.00183962
-6.44033e-05
-2.22994e-05
0.00187004
-3.52934e-05
-8.67275e-06
0.00190069
-2.99575e-05
-1.52314e-05
0.00190641
-2.16659e-05
3.8475e-07
0.00190447
-1.23047e-05
-4.61715e-06
0.00190332
-4.5453e-06
-4.86052e-06
0.00189159
7.58583e-06
-2.8287e-06
0.00188208
7.84092e-07
-1.07465e-05
0.00186988
1.29817e-07
-1.57575e-05
0.00187075
-3.90909e-06
-1.76974e-05
0.00187334
-9.90505e-07
-1.50651e-05
0.0018736
1.51869e-05
-6.26721e-06
0.00191824
-2.89482e-06
-2.07298e-05
0.00195234
9.04322e-07
-2.33912e-05
0.00191785
1.69252e-05
-1.93288e-06
0.00191133
-4.8696e-06
-6.84439e-06
0.00191195
-2.96676e-05
-1.02868e-06
0.001882
-2.68837e-05
6.81153e-06
0.00186016
-1.41043e-05
-1.57584e-05
0.00186683
-1.34422e-06
-4.4955e-06
0.00187253
-1.82314e-05
3.1167e-05
0.00186571
-1.97233e-06
3.35228e-05
0.00188404
1.80234e-05
1.08037e-05
0.00188608
4.98345e-05
9.50525e-06
0.00185843
4.37659e-05
2.37923e-05
0.00182686
5.91284e-05
2.69885e-05
4.43362e-05
3.98057e-05
0.00188583
4.41904e-05
5.47501e-06
0.00183347
3.26027e-05
4.83953e-08
0.00185102
1.65673e-05
-1.10124e-06
0.00189214
-7.80857e-06
-1.11902e-05
0.00191112
-4.04214e-05
-2.81406e-05
0.00191567
-5.95014e-05
-2.31892e-05
0.00193409
-3.58522e-05
6.25252e-06
0.00192631
-1.56776e-05
9.43701e-06
0.0018834
-3.09133e-06
2.04833e-05
0.00185803
-1.85222e-06
-1.90876e-06
0.00187966
-1.15228e-05
-2.65722e-05
0.00191016
-7.27753e-06
-1.20278e-05
0.00189824
8.76179e-06
-6.45036e-06
0.00187921
9.00891e-06
-1.64689e-05
0.00186314
3.07073e-06
-1.48136e-05
0.00186608
-2.18442e-06
-1.18298e-05
0.00192308
-8.25397e-06
-2.19132e-05
0.00190939
1.16446e-05
-9.6339e-06
0.0018692
2.00576e-05
-5.98847e-06
0.0019005
-2.03807e-05
-8.26745e-06
0.00190709
-2.92784e-05
1.0438e-05
0.00186024
-1.54941e-05
3.22568e-05
0.00182742
-1.00165e-05
2.02047e-05
0.00183179
-7.97488e-06
2.19649e-07
0.00185584
-1.32266e-05
-5.26876e-06
0.00185217
-1.97308e-05
1.86772e-05
0.00186648
-1.85156e-05
1.42609e-05
0.00189836
-5.56407e-06
3.36504e-06
0.00189523
5.66328e-05
1.72314e-05
0.00189116
5.10583e-05
1.58114e-05
0.00193824
3.12105e-05
1.76596e-05
5.15696e-05
2.29589e-05
0.00192667
3.2486e-05
-9.9176e-06
0.00189114
4.39769e-05
8.96474e-06
0.00188091
2.38857e-05
1.02014e-05
0.00190927
-2.37457e-05
-2.39548e-05
0.00192798
-4.08173e-05
-3.17049e-05
0.00192413
-3.6397e-05
-1.01569e-05
0.00191477
-2.80251e-05
2.42142e-05
0.00189502
-9.1931e-06
3.30771e-05
0.00186713
7.89696e-08
2.88606e-05
0.00185035
3.68999e-06
-4.65489e-06
0.00184934
2.70277e-07
-2.51808e-05
0.00185325
-2.0089e-06
-3.34799e-06
0.00186097
1.58394e-06
-5.30518e-06
0.00186378
3.76099e-06
-2.08729e-05
0.00185333
3.38849e-06
-1.72942e-05
0.0018479
1.77686e-06
-2.66489e-06
0.00184656
2.67764e-06
-6.33099e-06
0.00185271
2.02603e-06
-9.78602e-06
0.00187515
-8.78415e-07
-1.59813e-05
0.00187784
-1.36815e-05
-3.66335e-06
0.00187073
-2.39173e-05
8.02238e-06
0.00184616
-1.77733e-05
3.53437e-05
0.0018092
1.09284e-06
2.46505e-05
0.00182456
-1.47372e-05
-9.11572e-06
0.00186634
-3.18005e-05
-2.47696e-05
0.00186384
-1.75892e-05
9.05009e-06
0.00188434
-3.25672e-05
2.86029e-06
0.00187809
3.44751e-07
5.92371e-06
0.00186401
6.5296e-05
1.05849e-05
0.00184719
6.72724e-05
6.54487e-06
0.00187848
9.78537e-06
7.06394e-06
2.13655e-05
-4.90866e-06
0.00189428
2.24248e-05
-1.45101e-05
0.0019329
1.8795e-05
-2.96125e-06
0.00198192
-6.61357e-06
-1.79899e-06
0.00198502
-1.38486e-05
-1.38932e-05
0.00196783
1.63782e-06
-1.86258e-05
0.00194342
-6.41011e-07
8.06969e-06
0.00190933
-1.23595e-05
4.23863e-05
0.00188231
-5.0357e-06
4.16788e-05
0.00186016
2.50789e-06
2.6588e-05
0.00185553
5.06442e-06
-8.25661e-06
0.0018692
2.06126e-06
-2.45388e-05
0.00186844
3.43603e-06
-3.93875e-07
0.00185762
3.63366e-06
4.8725e-06
0.00185171
4.60855e-06
-1.38737e-05
0.00185036
6.82292e-08
-1.43969e-05
0.00186379
-3.3322e-06
-5.90604e-06
0.00186514
-1.10139e-06
-9.53492e-07
0.00185594
-2.9582e-06
-1.27047e-06
0.00186007
-1.01744e-05
-5.66349e-06
0.00185768
-1.90698e-06
-3.96805e-06
0.00183258
-3.35858e-07
1.54598e-05
0.00181793
-6.04765e-06
1.70805e-05
0.00182195
-3.05879e-06
3.17769e-06
0.00182033
-1.04522e-05
-8.78069e-06
0.0018064
-1.72489e-05
-1.00715e-05
0.00179501
-9.04536e-06
7.83438e-06
0.0017747
-1.81728e-05
1.64638e-05
0.00179435
-1.66111e-05
1.39579e-06
0.00186485
5.55887e-06
-1.41255e-05
0.00189767
4.92952e-05
-1.52054e-05
0.0018822
2.37022e-05
-3.82414e-06
5.32258e-06
-1.18165e-05
0.00184614
-1.74391e-05
0.00188137
-1.81297e-05
0.00187257
-1.35359e-06
0.00183474
2.08394e-05
0.00187176
-6.32886e-06
0.00190704
3.19673e-06
0.00188182
4.67733e-05
0.00185374
3.80989e-05
0.00183901
1.46786e-05
0.00183654
-1.44806e-05
0.00185484
-2.18032e-05
0.0018596
3.32961e-06
0.00185178
7.80964e-06
0.00184005
7.08833e-06
0.00183974
-1.10103e-05
0.00185326
-1.60111e-05
0.00184815
-4.95841e-06
0.00183393
-1.07989e-05
0.00182074
-1.57431e-05
0.00182308
-1.56873e-06
0.00183381
1.24904e-05
0.00183578
2.1922e-05
0.00183129
6.9304e-06
0.00181713
-1.27474e-05
0.0017881
-6.44617e-06
0.00176929
1.51045e-05
0.0017387
3.11733e-05
0.00172304
2.47512e-06
0.00174801
-2.46597e-05
0.0018205
-2.51584e-05
0.00183864
-9.95903e-06
-9.43985e-06
0.00184661
9.01654e-06
0.00184803
6.01868e-06
0.00178494
1.729e-06
0.00174299
3.82797e-06
0.0017502
3.55063e-06
0.00178619
-7.05408e-06
0.0018081
-1.5255e-05
0.00184248
-1.05735e-05
0.00185978
-1.21793e-06
0.00185708
4.023e-06
0.00184072
5.86723e-06
0.00185403
-9.71288e-06
0.00189279
-9.15733e-06
0.00191867
-1.99319e-06
0.00189067
-1.88437e-06
0.00184698
3.62524e-06
0.00183738
5.33965e-06
0.00181864
3.30924e-06
0.00180417
1.70119e-06
0.00179593
1.66928e-06
0.00178965
-5.50418e-06
0.00181107
-1.5275e-05
0.00184204
-5.45791e-06
0.001867
1.30809e-06
0.00187048
2.58696e-06
0.00188186
2.22977e-06
0.00185247
1.13951e-05
0.0018016
1.00862e-05
0.00178906
3.31874e-06
0.00179282
6.53722e-07
0.0017816
6.23361e-06
6.61056e-06
0.0018687
2.46137e-06
0.00189012
-9.41569e-06
0.00181055
2.21455e-05
0.00175449
1.24607e-05
0.00176061
-6.76001e-06
0.00179637
-1.75072e-05
0.00181036
-2.03456e-05
0.00185287
-3.08913e-05
0.00189685
-1.23158e-05
0.00192986
-1.23519e-05
0.00192399
-7.41663e-06
0.00190094
1.62605e-06
0.00192901
-8.24467e-06
0.00195515
-1.20239e-05
0.00191448
4.50754e-06
0.00186249
2.17169e-05
0.00185516
2.38033e-06
0.00183712
-4.77618e-06
0.00182483
5.14371e-06
0.00183828
-3.40556e-06
0.00182761
2.29177e-06
0.00180479
-2.3857e-06
0.00181997
-1.32624e-05
0.00186655
-1.77035e-05
0.0018829
-1.62624e-06
0.00188851
4.36746e-06
0.00185846
2.15152e-05
0.00180576
2.65412e-05
0.00179018
1.42396e-05
0.00179502
6.38506e-06
0.00178185
1.48999e-05
1.84282e-05
0.00183495
2.2675e-06
0.00183401
-1.02674e-05
0.00182373
1.29778e-05
0.00180964
6.85581e-06
0.00181448
-1.61204e-05
0.00185935
-4.13201e-05
0.00187366
-3.04891e-05
0.00185052
-2.25605e-05
0.00187787
-2.83814e-05
0.00188553
-1.01318e-05
0.00186417
1.37026e-05
0.00189806
-1.1119e-05
0.00193322
-2.31145e-05
0.001906
2.13363e-07
0.00187084
1.53591e-05
0.00190718
-7.67629e-06
0.00190217
-3.1917e-06
0.00183083
2.193e-05
0.00179936
9.94881e-06
0.00179937
-4.29755e-06
0.00177824
1.82893e-05
0.00177126
1.30991e-05
0.00179022
-1.90353e-05
0.0018087
-2.96043e-05
0.00181668
-8.08516e-06
0.0018215
1.02524e-06
0.00182957
1.09512e-05
0.00181284
2.7109e-05
0.00180597
2.02301e-05
0.00180483
2.0224e-05
0.00178495
3.61991e-05
2.78261e-05
0.00186645
1.35757e-06
0.00187962
3.022e-06
0.00189885
6.37064e-06
0.00189236
-5.46238e-06
0.00189863
-3.65726e-05
0.00189789
-5.07215e-05
0.00186861
-1.88112e-05
0.00184039
-3.41911e-06
0.00183637
-2.1554e-06
0.0018519
-1.05568e-05
0.00189977
-1.96855e-05
0.00188878
4.46643e-06
0.00183928
1.20089e-05
0.00182753
-1.17863e-05
0.00184739
-1.41015e-05
0.00186694
-1.11005e-05
0.00186097
3.51527e-08
0.00184513
1.03359e-05
0.00180448
1.80941e-05
0.00176979
1.88405e-05
0.00178048
9.21924e-06
0.00183938
-2.09147e-05
0.00185626
-1.49813e-05
0.00181013
-5.28301e-06
0.0017819
1.37887e-06
0.00181251
-1.76108e-05
0.00187196
-2.66649e-05
0.0019066
1.31873e-05
0.00187356
5.04836e-05
0.00185427
2.96953e-05
0.00183698
5.05346e-05
3.14308e-05
0.0019378
3.22947e-05
0.00189974
4.6217e-05
0.00188852
3.25499e-05
0.0019177
-2.80395e-05
0.00193166
-6.96717e-05
0.00190634
-5.13548e-05
0.00188156
-1.22558e-05
0.00186728
8.33403e-06
0.00190199
1.58783e-06
0.00190476
5.33614e-06
0.00188782
-1.26703e-05
0.00191015
-1.58991e-05
0.00189173
5.4894e-06
0.0018228
6.66059e-06
0.00178059
6.52275e-06
0.00176558
9.17017e-06
0.00174709
7.38028e-06
0.001735
1.38417e-05
0.00171907
2.8026e-05
0.001733
4.26609e-06
0.00177783
-1.82961e-05
0.00180018
-2.24015e-05
0.00182338
-1.96377e-05
0.00184689
-2.46537e-05
0.00185489
-1.6552e-05
0.00187277
-3.07888e-05
0.00188793
-3.34614e-05
0.00191871
-8.41664e-07
0.00191378
6.43706e-05
0.00188743
3.87997e-05
0.00192467
1.4512e-05
3.12051e-05
0.00190815
2.71458e-05
0.00195607
2.41295e-05
0.00200406
1.08166e-05
0.0019738
-1.99964e-05
0.0019025
-2.47588e-05
0.00184438
-8.33553e-06
0.00183882
-7.49733e-06
0.00185958
-5.31992e-06
0.00189783
-3.54292e-06
0.00189154
1.3664e-06
0.00184734
-6.19846e-07
0.00182238
-7.92783e-07
0.00179454
1.08158e-05
0.00176952
1.2632e-05
0.00177564
6.00877e-07
0.00179491
9.46349e-07
0.0017994
9.36082e-06
0.0018218
9.04057e-06
0.00185095
4.58388e-06
0.00185215
-7.9533e-06
0.00184599
-1.85826e-05
0.00185323
-2.71138e-05
0.00185464
-1.67148e-05
0.00186813
-2.23257e-05
0.00186536
-1.78678e-05
0.0018252
-5.02322e-06
0.00179543
-1.60141e-05
0.00180645
-8.59653e-06
0.00184326
4.06544e-05
0.00184519
4.73396e-05
0.00187389
6.1078e-06
1.26293e-05
0.00189675
1.8911e-05
0.00193112
1.00209e-05
0.00196603
-1.72841e-06
0.00191787
1.39169e-05
0.00186864
1.08072e-05
0.00187158
-1.90024e-06
0.00188732
-8.90423e-06
0.00189899
-6.60521e-06
0.00191947
-1.32129e-06
0.00190215
2.42306e-06
0.00186126
8.56378e-06
0.00183473
9.81108e-06
0.00181145
1.30887e-05
0.00178226
2.14078e-05
0.00178158
1.30343e-06
0.00179884
-9.12685e-06
0.00179914
2.58963e-06
0.00182694
-9.72381e-06
0.00186767
-2.25991e-05
0.00185842
-4.43089e-06
0.00183795
2.32231e-06
0.00181747
-4.9265e-06
0.00181997
-1.7031e-05
0.0018301
-1.69656e-05
0.00181814
-6.45001e-06
0.00180813
-1.06192e-06
0.00176808
-9.13578e-06
0.00177776
-2.2061e-05
0.001846
-6.34653e-06
0.00188251
3.29144e-05
0.00187417
2.58601e-05
-3.57824e-06
0.00181824
0.00181949
0.00182358
0.00185064
0.00186335
0.00187555
0.00189514
0.00190392
0.00191826
0.00190028
0.00187516
0.00186439
0.0018594
0.0018922
0.00188773
0.00186489
0.00186352
0.00185048
0.0018351
0.00183916
0.00185183
0.00184744
0.00184245
0.001824
0.00178893
0.00176382
0.00174002
0.00171519
0.00173013
0.00180148
0.00182071
)
;

boundaryField
{
    wall
    {
        type            calculated;
        value           uniform 0;
    }
    outlet
    {
        type            cyclic;
        value           nonuniform List<scalar> 
16
(
0.00176053
0.00180781
0.00181444
0.00180956
0.00193698
0.00192756
0.00188741
0.00182638
0.00180248
0.00180021
0.00180366
0.00185056
0.00195693
0.00190649
0.00189322
0.00181007
)
;
    }
    inlet
    {
        type            cyclic;
        value           nonuniform List<scalar> 
16
(
-0.00176053
-0.00180781
-0.00181444
-0.00180956
-0.00193698
-0.00192756
-0.00188741
-0.00182638
-0.00180248
-0.00180021
-0.00180366
-0.00185056
-0.00195693
-0.00190649
-0.00189322
-0.00181007
)
;
    }
    procBoundary1to0
    {
        type            processor;
        value           nonuniform List<scalar> 
256
(
-1.76609e-05
1.34092e-05
2.43984e-05
5.53466e-06
-1.95859e-05
-1.13462e-05
1.08495e-06
-1.69929e-05
-1.68541e-05
2.2309e-05
4.11424e-05
2.07939e-05
-1.48234e-05
3.21419e-06
2.70183e-05
2.42885e-05
1.3173e-05
1.10976e-05
3.11571e-06
-8.62723e-06
-5.98824e-07
1.54134e-05
1.17825e-05
1.16412e-05
1.24934e-05
3.34908e-06
-4.20574e-06
-1.71047e-06
-1.48289e-05
-4.04994e-05
-5.58309e-05
-5.15505e-05
-3.59422e-05
5.89208e-06
3.44712e-05
1.61949e-05
-8.96713e-06
-5.71903e-06
-2.87565e-07
-2.04643e-05
-1.84659e-05
2.05147e-05
3.74326e-05
1.47135e-05
-6.56931e-06
1.38931e-05
2.2542e-05
2.4371e-05
1.54616e-05
4.2992e-06
4.8248e-06
-3.091e-06
9.78154e-07
2.0342e-05
1.11647e-05
7.96363e-06
1.29377e-05
5.79915e-06
-8.78666e-06
-9.78859e-06
-1.72998e-05
-4.03155e-05
-4.77612e-05
-4.60926e-05
-2.65756e-05
-4.03556e-06
2.24625e-05
1.8636e-06
-4.51918e-06
-2.4123e-06
-2.52395e-06
-1.85231e-05
-1.80734e-05
8.29284e-06
2.32119e-05
1.16107e-05
8.27328e-06
2.15946e-05
2.06484e-05
1.7906e-05
1.22463e-05
1.61786e-05
1.92717e-05
1.05188e-05
2.45787e-05
1.695e-05
-1.04538e-05
1.60441e-05
2.7005e-05
-7.79057e-06
-1.85371e-05
-2.97516e-05
-3.01664e-05
-2.93105e-05
-3.57648e-05
-3.29705e-05
-2.09262e-05
1.17333e-05
1.44697e-05
9.25697e-06
-1.34977e-06
-2.90623e-06
-1.56738e-05
-1.41866e-05
-1.09264e-05
4.27304e-06
1.45216e-05
9.28328e-06
1.38646e-05
2.69437e-05
2.32959e-05
1.3851e-05
-6.04364e-06
-6.9994e-06
1.02724e-05
3.14318e-05
3.2347e-05
3.58762e-06
-1.19821e-05
8.4581e-06
7.4586e-06
-2.1617e-05
-1.3985e-05
-1.92009e-05
-2.48956e-05
-1.89846e-05
-2.50131e-05
-3.65326e-05
6.31649e-06
1.78772e-05
-6.58604e-06
-4.64366e-06
1.79734e-05
1.37369e-05
-2.41073e-05
-1.59439e-05
3.85621e-06
1.68303e-05
1.19201e-05
-3.60765e-06
1.03888e-05
2.66206e-05
2.39002e-05
1.00893e-05
-1.16479e-05
8.78379e-06
2.702e-05
1.42784e-05
7.37623e-06
4.25978e-07
-4.24969e-06
-1.07268e-05
-6.89504e-06
-1.35128e-05
-1.20283e-05
-1.16481e-05
-2.09068e-05
-1.90314e-05
-3.68175e-05
-2.8937e-05
2.25146e-05
1.51894e-05
-7.2938e-06
1.15357e-05
1.33893e-05
-9.09383e-06
-2.26835e-05
-1.98075e-05
-4.14669e-06
1.58904e-05
1.44057e-05
-5.83269e-06
4.76229e-06
2.33119e-05
2.74272e-05
4.12978e-06
-3.26112e-06
1.32554e-05
1.44821e-05
-5.72922e-06
-6.27456e-06
-8.49366e-06
1.20294e-06
5.18666e-07
1.56369e-06
-8.69959e-06
-9.30678e-06
-5.5851e-06
-5.16554e-06
-5.93423e-06
-1.69318e-05
-1.39679e-05
1.77045e-05
-1.04789e-05
-1.67268e-05
9.01724e-07
-6.64334e-06
-1.94153e-05
-2.39576e-05
-1.88142e-05
-6.86842e-06
1.15135e-05
9.07572e-06
-4.29364e-06
3.89811e-06
1.89404e-05
1.90652e-05
-2.41535e-06
3.37671e-06
1.54625e-05
1.08249e-05
-5.41604e-06
-1.39442e-05
-1.41482e-05
-3.05142e-06
6.11572e-06
9.45558e-06
-4.9946e-06
-1.05432e-05
-4.09728e-06
3.36982e-06
3.58583e-07
5.37504e-06
2.26534e-05
2.01079e-05
1.69134e-06
3.54699e-06
3.14286e-06
-2.90557e-05
-3.91189e-05
-3.39102e-05
-1.50599e-05
2.55658e-06
2.2018e-05
5.56475e-06
-4.65327e-06
3.64462e-06
9.25378e-06
1.13837e-05
-8.39716e-07
8.97104e-06
2.20591e-05
1.87562e-05
-2.67742e-06
-2.35597e-05
-2.99338e-05
-5.50299e-06
1.64555e-05
1.8229e-05
-5.34546e-06
-1.87487e-05
-3.42948e-06
5.24781e-06
1.96041e-06
1.55306e-05
2.70141e-05
)
;
    }
    procBoundary1to2
    {
        type            processor;
        value           nonuniform List<scalar> 
256
(
-1.07103e-05
-3.15858e-05
2.17925e-05
3.26652e-05
4.87624e-06
-2.69987e-05
-2.43253e-05
-3.54559e-05
-1.70202e-05
-8.68971e-06
-4.75342e-07
-7.76126e-06
-2.42691e-05
-2.95267e-05
1.76957e-06
1.77653e-05
7.68424e-06
2.51777e-05
1.63407e-05
1.35624e-05
9.05935e-06
-4.98869e-05
-6.73783e-05
-4.41587e-05
-7.60428e-06
-6.38082e-06
2.32215e-05
4.5169e-05
3.62896e-05
3.13048e-05
5.73186e-05
3.80736e-05
-3.0104e-05
-1.77011e-05
4.09009e-05
5.12812e-05
1.2273e-05
-3.33631e-05
-3.14843e-05
-3.81233e-05
-2.78101e-05
-1.9522e-05
8.84985e-06
5.30992e-06
-1.9724e-05
-1.72995e-05
5.15668e-06
5.96016e-06
1.35362e-06
2.49122e-05
1.7555e-05
1.0186e-05
1.03853e-05
-3.94868e-05
-5.01923e-05
-3.26522e-05
-8.36116e-06
-5.71389e-06
2.90161e-05
4.04987e-05
2.68732e-05
2.99386e-05
5.5703e-05
1.45598e-05
-4.81804e-06
-2.4726e-06
2.70513e-05
3.37337e-05
3.872e-06
-3.28084e-05
-1.87646e-05
-1.23854e-05
-1.44621e-05
-1.48484e-05
-5.17356e-06
-1.18191e-05
-1.99554e-05
-1.0596e-06
-3.37573e-06
-1.98745e-05
7.63417e-06
2.33756e-05
1.96389e-05
1.03525e-05
1.93445e-06
-4.52291e-05
-4.60737e-05
-1.88704e-05
-1.01625e-06
1.49186e-05
2.14935e-05
2.15573e-05
2.0397e-05
3.28641e-05
3.81949e-05
1.31433e-05
1.57286e-05
-2.42784e-05
-5.38961e-06
1.02281e-05
-5.23791e-06
-1.21574e-05
8.92749e-06
-6.15157e-06
-2.18199e-05
-1.97252e-05
-1.93445e-05
-7.41949e-06
3.62553e-06
7.99856e-06
-8.09816e-06
-3.11878e-05
-3.53081e-06
6.70963e-06
9.11073e-06
9.62099e-06
-8.46751e-06
-2.59113e-05
-1.41223e-05
6.0464e-06
1.42754e-05
1.91932e-05
1.16826e-05
-9.91747e-06
1.22955e-05
3.36142e-05
2.99438e-05
2.26151e-05
-6.32748e-06
-5.09029e-06
-1.60556e-05
-1.77979e-05
-8.9959e-06
2.76345e-06
2.44765e-05
1.19613e-05
-1.79649e-05
-2.05786e-05
-1.6642e-05
-1.39982e-05
1.84966e-05
3.40077e-05
6.7773e-06
-1.70954e-05
-1.07654e-05
-1.05176e-06
8.67694e-09
-7.62275e-06
-6.87843e-06
1.14016e-05
1.65575e-06
-3.91375e-06
4.65825e-06
1.39707e-05
5.90308e-06
-1.3385e-05
8.26927e-06
3.30557e-05
1.64417e-05
-9.07565e-06
-6.4275e-06
-1.68648e-05
-1.60507e-05
-1.73942e-06
-5.31643e-06
4.93847e-06
2.50219e-05
2.59706e-05
-4.25865e-06
5.6026e-06
6.96925e-06
6.50231e-06
1.7212e-05
-1.82272e-06
-1.74949e-05
-1.37074e-05
-1.28048e-05
-2.73894e-05
-2.16837e-05
7.35627e-06
1.44652e-05
3.2819e-05
2.03138e-05
-2.49347e-05
-2.06767e-05
2.34361e-05
1.51846e-05
2.66507e-06
-2.51562e-06
-3.92521e-06
-1.32275e-05
-1.89392e-05
-9.80422e-06
-2.32149e-05
-2.41672e-05
3.50415e-07
-4.9593e-06
-1.30566e-06
2.80548e-05
3.12943e-05
3.87997e-06
8.01198e-06
7.17165e-06
1.55254e-05
2.5883e-05
6.54254e-06
-1.44187e-05
-1.31003e-05
5.5226e-06
-1.03108e-05
-1.92067e-05
1.7597e-06
1.50276e-05
1.53698e-05
9.92424e-07
-2.42702e-05
-9.53246e-06
1.38924e-05
4.96313e-05
5.18296e-06
-3.53673e-05
-3.72912e-05
-1.52332e-05
-1.46657e-05
-6.69326e-06
-9.36488e-06
-7.1739e-06
7.69649e-06
-8.2262e-06
-1.09062e-05
1.82802e-05
2.2709e-05
-9.75312e-07
5.91985e-06
1.1883e-05
2.39053e-05
2.58889e-05
-4.29939e-06
-5.24279e-06
-2.29455e-06
-1.00238e-06
-7.47874e-06
-2.29581e-05
-1.00604e-05
2.14213e-06
2.13805e-05
-5.10478e-06
-1.12659e-05
2.2172e-05
3.91523e-05
4.58415e-05
5.24422e-06
-4.59456e-05
-6.35924e-05
-3.32852e-06
-2.38336e-06
)
;
    }
}


// ************************************************************************* //
