/*--------------------------------*- C++ -*----------------------------------*\
| =========                 |                                                 |
| \\      /  F ield         | OpenFOAM: The Open Source CFD Toolbox           |
|  \\    /   O peration     | Version:  2506                                  |
|   \\  /    A nd           | Website:  www.openfoam.com                      |
|    \\/     M anipulation  |                                                 |
\*---------------------------------------------------------------------------*/
FoamFile
{
    version     2.0;
    format      ascii;
    arch        "LSB;label=32;scalar=64";
    class       volVectorField;
    location    "0.004";
    object      U_0;
}
// * * * * * * * * * * * * * * * * * * * * * * * * * * * * * * * * * * * * * //

dimensions      [0 1 -1 0 0 0 0];

internalField   nonuniform List<vector> 
512
(
(11.2044 0.0680789 0.223007)
(10.8191 -0.0272906 -0.107067)
(10.4609 -0.103209 -0.321375)
(10.6885 -0.073121 -0.189016)
(10.6887 -0.0475613 -0.0877935)
(9.66926 -0.036893 -0.10396)
(9.06391 -0.0470957 -0.0906194)
(9.17566 -0.041677 0.00637625)
(9.41449 -0.0259528 -0.00217487)
(9.58828 -0.0242765 -0.132207)
(9.63598 -0.0278444 -0.154544)
(9.61956 -0.0225736 -0.0719483)
(9.66416 -0.00948638 -0.0724361)
(9.73228 0.00290916 -0.163631)
(9.71228 0.00935725 -0.189131)
(9.66449 0.0191584 -0.107176)
(9.60858 0.022589 0.010711)
(9.58017 0.0867568 -0.0544431)
(9.81449 0.106608 -0.143856)
(9.90003 0.0266484 0.0123816)
(10.8046 -0.076694 0.0827668)
(11.077 -0.0867724 -0.0357852)
(10.5832 -0.0695671 -0.0954993)
(9.77607 -0.0385769 -0.105379)
(9.58406 -0.0105479 -0.0710137)
(9.72352 0.0208202 0.0558762)
(9.71871 0.035512 0.166223)
(9.57119 0.0418712 0.186945)
(9.52924 0.0514358 0.188896)
(9.58174 0.0783141 0.298288)
(10.9431 0.098467 0.500573)
(11.4442 0.113111 0.534593)
(11.1748 0.173987 0.323597)
(10.6708 -0.0607954 0.0252495)
(10.4338 -0.276776 -0.235869)
(10.8248 -0.18051 -0.242025)
(10.8106 -0.131285 -0.191715)
(9.71952 -0.138421 -0.161608)
(9.11502 -0.136645 -0.0822889)
(9.25451 -0.105921 0.0091844)
(9.48636 -0.0686074 -0.012442)
(9.64146 -0.0610234 -0.128259)
(9.69312 -0.0678195 -0.128471)
(9.69326 -0.0626797 -0.0560235)
(9.74496 -0.0312473 -0.089773)
(9.80672 0.00170876 -0.183452)
(9.78418 0.0138422 -0.18581)
(9.73995 0.035896 -0.0845683)
(9.71797 0.0616293 0.0121017)
(9.73391 0.146628 -0.020556)
(9.80227 0.196689 -0.115781)
(9.76389 0.100334 -0.00139658)
(10.7858 -0.040936 -0.000105648)
(11.1088 -0.14198 -0.118914)
(10.681 -0.205139 -0.0952597)
(9.89332 -0.169191 -0.0504356)
(9.70307 -0.0625692 -0.0287746)
(9.82723 0.047895 0.110356)
(9.79558 0.0934774 0.214907)
(9.6534 0.123685 0.21586)
(9.6282 0.155391 0.18748)
(9.65257 0.251449 0.268634)
(11.0094 0.296457 0.399262)
(11.4938 0.252066 0.424468)
(11.1199 0.2101 0.289462)
(10.3811 -0.0299101 0.0569582)
(10.4176 -0.309159 -0.156852)
(10.8927 -0.195565 -0.168615)
(10.7941 -0.234215 -0.22726)
(9.67742 -0.292781 -0.21051)
(9.16278 -0.227835 -0.0757422)
(9.30754 -0.141727 0.010842)
(9.51387 -0.0852627 -0.0168696)
(9.64419 -0.0761336 -0.108582)
(9.68989 -0.0876221 -0.102821)
(9.71161 -0.0834633 -0.0660739)
(9.78396 -0.0397394 -0.136112)
(9.83302 -0.000810457 -0.219832)
(9.80214 0.00639324 -0.184215)
(9.77118 0.0225759 -0.0311679)
(9.77061 0.0437816 0.0322683)
(9.78297 0.106514 -0.0535374)
(9.7974 0.125225 -0.1257)
(9.78334 0.199938 -0.122709)
(10.5938 0.197588 -0.13649)
(10.9059 -0.0784522 -0.0944071)
(10.6182 -0.339658 0.0288126)
(10.0127 -0.310201 0.0279484)
(9.87808 -0.110222 -0.0565202)
(9.94341 0.015828 0.187701)
(9.85071 0.0743116 0.336441)
(9.72203 0.16956 0.24674)
(9.73187 0.277671 0.178406)
(9.76562 0.40914 0.228095)
(10.8356 0.469316 0.317848)
(11.3916 0.349419 0.379247)
(10.9968 0.200033 0.22351)
(10.0157 -0.0138574 -0.0299606)
(10.5044 -0.036076 -0.056096)
(10.8441 -0.146815 -0.168029)
(10.5758 -0.427474 -0.304053)
(9.67253 -0.528598 -0.232775)
(9.32264 -0.348058 -0.0327851)
(9.41756 -0.1866 0.0312958)
(9.55204 -0.0883607 -0.036377)
(9.63918 -0.0536013 -0.12413)
(9.68589 -0.06661 -0.0930431)
(9.74123 -0.0665459 -0.0738875)
(9.82771 -0.0194998 -0.167075)
(9.85295 0.0127689 -0.229851)
(9.80766 0.0120048 -0.192504)
(9.77743 -0.0117032 -0.0241068)
(9.802 -0.0236651 0.0300811)
(9.84426 0.0488235 -0.0808055)
(9.88302 0.116441 -0.179069)
(10.0134 0.138331 -0.244669)
(10.2826 0.210405 -0.120598)
(10.5015 -0.123615 0.136877)
(10.4665 -0.481995 0.233064)
(10.2303 -0.261233 0.0810684)
(10.0752 -0.0108464 -0.0668161)
(10.0255 -0.0699561 0.199879)
(9.94971 -0.0491929 0.346001)
(9.89242 0.198861 0.209863)
(9.89594 0.422685 0.148431)
(9.86129 0.595709 0.200714)
(10.7361 0.636413 0.321198)
(11.2114 0.428313 0.378164)
(10.8284 0.1539 -0.0216642)
(10.2772 -0.0053892 -0.172661)
(10.2364 0.146506 0.0181726)
(10.4128 -0.0437418 -0.104659)
(10.2095 -0.517714 -0.314495)
(9.83265 -0.624004 -0.226995)
(9.61943 -0.388702 0.0208277)
(9.60488 -0.184881 0.0900108)
(9.64677 -0.0734048 -0.0377225)
(9.66589 -0.0129675 -0.143555)
(9.67692 -0.0108069 -0.109373)
(9.7587 -0.0109893 -0.0622117)
(9.86327 0.00476401 -0.122171)
(9.86456 0.00571757 -0.185424)
(9.77769 0.0106458 -0.10834)
(9.7355 -0.00333119 -0.0814171)
(9.83119 -0.00672693 -0.190666)
(9.92993 0.0524419 -0.171551)
(9.92772 0.0823971 -0.173729)
(9.98624 0.0214344 -0.1057)
(10.0656 -0.103831 0.116084)
(10.2228 -0.376449 0.337132)
(10.5777 -0.306313 0.244904)
(10.5639 -0.102568 0.100279)
(10.0445 -0.0404384 0.0404888)
(9.89041 -0.252604 0.121556)
(10.1253 -0.309942 0.175872)
(10.2358 0.177634 0.150609)
(10.1517 0.65212 0.167564)
(10.0292 0.785305 0.219221)
(10.4258 0.78045 0.332455)
(10.8853 0.48805 0.244811)
(10.6067 0.1806 -0.162594)
(10.2981 0.0544397 -0.215941)
(10.1327 0.0419166 -0.137049)
(10.1336 -0.147813 -0.146663)
(10.0611 -0.359111 -0.152974)
(9.91604 -0.377372 -0.0369953)
(9.77913 -0.25694 0.142652)
(9.72579 -0.136081 0.155557)
(9.72383 -0.0397598 -0.0173467)
(9.70172 0.0190808 -0.118531)
(9.68782 0.0301173 -0.0539199)
(9.75681 0.0326354 0.00950482)
(9.84441 0.0112857 -0.120022)
(9.8588 -0.0226542 -0.233235)
(9.79865 0.00101738 -0.0825539)
(9.76002 0.0426834 -0.0233313)
(9.85772 0.0650955 -0.154644)
(9.93363 0.0672191 -0.118709)
(9.85212 0.0147792 -0.020606)
(9.80586 -0.0753151 0.0236772)
(9.85575 -0.268075 0.155692)
(10.3617 -0.368813 0.37606)
(10.7341 -0.100911 0.148454)
(10.5556 -0.0888564 -0.044104)
(9.833 -0.279823 -0.07494)
(9.67892 -0.503091 0.0209633)
(10.559 -0.378924 0.0314504)
(10.8948 0.0762194 0.0899024)
(10.5084 0.652951 0.172545)
(10.0651 0.872248 0.212909)
(10.1024 0.791335 0.255806)
(10.4934 0.514733 0.0937698)
(10.3802 0.214783 -0.103508)
(10.202 0.0876936 -0.0763262)
(10.0489 0.0170933 -0.0831995)
(10.0058 -0.0777219 -0.088096)
(9.97939 -0.170722 -0.0721357)
(9.93431 -0.2007 0.0175267)
(9.86039 -0.179523 0.188195)
(9.82192 -0.115898 0.195568)
(9.80182 -0.0176586 -0.0100145)
(9.73566 0.0417513 -0.113779)
(9.68964 0.0425396 -0.0264361)
(9.74047 0.0366648 0.0470348)
(9.80915 0.0335919 -0.0983093)
(9.84857 0.0184297 -0.23361)
(9.83801 0.0030996 -0.0683813)
(9.80012 0.0148423 0.0514701)
(9.85739 0.0436765 -0.0561629)
(9.88027 0.0272206 -0.0879538)
(9.77119 -0.032117 -0.0102836)
(9.68406 -0.0741292 0.0669117)
(9.71193 -0.194577 0.203756)
(10.5844 -0.144352 0.274779)
(10.8278 -0.0217462 0.123206)
(10.2849 -0.159045 -0.0887184)
(9.56025 -0.415438 -0.127684)
(9.74105 -0.539438 0.0280834)
(10.9851 -0.157131 0.121845)
(11.316 0.0485988 0.085461)
(10.9249 0.250082 0.0513732)
(10.0864 0.582496 0.0367402)
(9.86491 0.658453 -0.0267112)
(10.1855 0.439069 -0.119585)
(10.2067 0.113237 -0.156029)
(10.0477 0.062094 0.0228393)
(9.9115 0.0169451 -0.0108424)
(9.88929 -0.0176169 -0.0547143)
(9.88207 -0.0440725 -0.0203476)
(9.85107 -0.0591457 0.0666213)
(9.80807 -0.0713074 0.212245)
(9.83184 -0.0555704 0.252103)
(9.82521 -0.00546903 -0.0366692)
(9.70567 0.0239825 -0.186669)
(9.62703 0.0205967 -0.0475406)
(9.69168 0.0161962 0.0624473)
(9.7715 0.0279138 -0.0326535)
(9.77363 0.0354328 -0.115867)
(9.73831 0.00295257 -0.0275526)
(9.74465 -0.0136295 0.0261914)
(9.81467 0.00353163 -0.0734303)
(9.80213 0.000794612 -0.122715)
(9.68213 -0.0182136 -0.0326311)
(9.59257 -0.0327628 0.0728801)
(9.70203 -0.0549024 0.221607)
(10.5311 -0.0120682 0.324829)
(10.7296 0.00738054 0.137163)
(9.99782 -0.085208 -0.169681)
(9.22239 -0.264292 -0.159681)
(10.2902 -0.186053 0.0965222)
(10.9892 -0.00627207 0.115307)
(11.1976 -0.0160372 0.0250017)
(10.8927 0.0293331 -0.014893)
(10.4334 0.181705 -0.0149877)
(9.80198 0.255306 -0.0641716)
(9.94932 0.168072 -0.284741)
(11.0417 0.0585407 0.199686)
(10.4359 0.0254294 -0.274944)
(10.2628 -0.0388109 -0.217694)
(10.7626 -0.0497311 0.00243027)
(10.7573 -0.0578162 -0.095049)
(9.70922 -0.0713654 -0.202122)
(9.11393 -0.0575414 -0.129489)
(9.20206 -0.0383341 -0.0911247)
(9.40408 -0.0319256 -0.114749)
(9.56551 -0.0332292 -0.115715)
(9.62994 -0.0211412 -0.108065)
(9.6259 -0.0119664 -0.109971)
(9.65067 -0.0125886 -0.122171)
(9.69759 -0.00574014 -0.12776)
(9.72116 0.0095174 -0.15433)
(9.75293 0.0315573 -0.159393)
(9.68641 0.0308737 0.0190143)
(9.55973 0.0807063 0.170848)
(9.89171 0.0925798 0.164787)
(10.039 0.0211166 0.23542)
(10.5687 -0.073952 0.0476218)
(10.8421 -0.117223 -0.27273)
(10.577 -0.075605 -0.357796)
(9.88134 -0.0168749 -0.304288)
(9.74354 0.00897218 -0.290477)
(9.89238 0.0540222 0.0242041)
(9.78226 0.0699572 0.256725)
(9.60043 0.068767 0.25802)
(9.6445 0.0537291 0.143349)
(9.71032 0.0445844 0.387948)
(10.9743 0.0308787 0.74932)
(11.3776 0.0370757 0.608475)
(11.1443 0.128302 0.0945333)
(10.3507 -0.0193348 -0.269689)
(10.2131 -0.101521 -0.139527)
(10.8093 -0.0844439 0.126733)
(10.7859 -0.176084 -0.0300756)
(9.75956 -0.232398 -0.251869)
(9.21184 -0.158444 -0.16975)
(9.28775 -0.0970389 -0.0915507)
(9.46379 -0.0703096 -0.133648)
(9.63116 -0.0697891 -0.176946)
(9.70655 -0.0718372 -0.0993076)
(9.69001 -0.0733935 -0.0638004)
(9.71283 -0.0527816 -0.107272)
(9.77525 -0.0197937 -0.125293)
(9.81181 0.0128658 -0.157645)
(9.83915 0.0818003 -0.171373)
(9.78553 0.0818706 0.031995)
(9.7043 0.133532 0.183117)
(9.85692 0.1601 0.147456)
(9.94969 0.0224568 0.197558)
(10.452 -0.0970219 0.109041)
(10.8905 -0.15192 -0.326022)
(10.7722 -0.147654 -0.374485)
(10.0322 -0.106858 -0.232554)
(9.86446 -0.0882237 -0.224347)
(10.0118 0.122138 0.097278)
(9.8534 0.219137 0.320994)
(9.64372 0.175097 0.291189)
(9.67597 0.151031 0.241632)
(9.72237 0.180521 0.442612)
(11.0202 0.178918 0.519654)
(11.4421 0.168797 0.319018)
(10.9799 0.131664 0.0989738)
(10.2425 -0.128781 -0.259547)
(10.2791 -0.149723 -0.124365)
(10.6945 -0.0998894 0.171956)
(10.5784 -0.30227 -0.0596712)
(9.81052 -0.384783 -0.265267)
(9.36324 -0.232909 -0.116382)
(9.36286 -0.121752 -0.0517248)
(9.48601 -0.0834284 -0.110317)
(9.619 -0.0995975 -0.146738)
(9.68176 -0.119683 -0.117768)
(9.70003 -0.122488 -0.154187)
(9.76029 -0.0647918 -0.186335)
(9.81873 -0.0077902 -0.149685)
(9.87444 -0.0105157 -0.179781)
(9.88578 0.0356126 -0.0630622)
(9.7869 0.0446676 0.109557)
(9.72054 0.086785 0.119012)
(9.80275 0.107787 0.0378633)
(9.84924 -0.0533275 0.126056)
(10.4615 0.117111 0.0214492)
(10.8341 0.127393 -0.255562)
(10.6767 -0.0498092 -0.280986)
(9.98419 -0.219557 -0.261563)
(10.1062 -0.112521 -0.0584063)
(10.2441 0.0632289 0.238082)
(9.86066 0.163729 0.402187)
(9.60285 0.160191 0.289145)
(9.70997 0.227124 0.223228)
(9.75882 0.382733 0.328862)
(10.9859 0.44383 0.38822)
(11.3587 0.327995 0.314347)
(10.7297 0.0161632 0.0728512)
(10.2002 -0.134679 -0.191386)
(10.3147 -0.126909 -0.102126)
(10.5441 -0.174242 -0.0245073)
(10.3436 -0.418693 -0.237199)
(9.88609 -0.463523 -0.206887)
(9.54927 -0.268833 -0.000531279)
(9.45068 -0.110849 0.0239364)
(9.48601 -0.0632658 -0.117471)
(9.59353 -0.0874604 -0.267639)
(9.68607 -0.120827 -0.186512)
(9.74699 -0.0770274 -0.136593)
(9.82027 0.0265529 -0.175777)
(9.81337 0.0721503 -0.116132)
(9.8516 0.0274221 -0.0963423)
(9.88952 -0.0873335 -0.0793928)
(9.83012 -0.21305 -0.0195918)
(9.76975 -0.039358 -0.000377703)
(9.63011 0.0277186 -0.0274393)
(10.1867 0.194166 0.0300494)
(10.5902 0.296867 0.0242897)
(10.6578 0.183715 -0.00122877)
(10.3039 -0.190981 -0.0175567)
(9.95373 -0.120637 -0.124756)
(10.2485 0.000493254 0.0668795)
(10.3394 -0.128476 0.289798)
(9.91115 -0.148485 0.38907)
(9.73161 0.143116 0.193932)
(9.89622 0.385835 0.0170256)
(9.95465 0.604066 0.204673)
(10.8046 0.639682 0.425727)
(11.1301 0.380309 0.397623)
(10.6261 0.00957832 -0.0747277)
(10.3158 0.00217294 -0.175504)
(10.2452 0.0105935 -0.147956)
(10.3228 -0.185992 -0.233224)
(10.236 -0.416554 -0.234676)
(9.99668 -0.428754 -0.129935)
(9.73539 -0.245528 0.103627)
(9.56404 -0.0901643 0.184119)
(9.50846 -0.0246391 -0.00661138)
(9.56218 0.00304017 -0.239708)
(9.69672 0.00269174 -0.351656)
(9.84523 0.0603554 -0.207013)
(9.88286 0.0511311 -0.0257019)
(9.83947 -0.0119216 0.0364438)
(9.72434 0.0755177 0.0299839)
(9.58136 -0.0527714 -0.059297)
(9.88916 -0.105715 -0.130111)
(9.96276 0.00683561 -0.108535)
(10.0026 0.211371 -0.0763913)
(10.1889 0.208216 -0.0136876)
(10.376 -0.0283071 0.161315)
(10.3578 -0.272817 0.340263)
(10.3191 -0.302463 0.277464)
(10.2858 -0.133567 0.0327957)
(10.081 -0.00106929 -0.084096)
(10.0163 -0.347413 0.137391)
(10.1461 -0.560414 0.260485)
(10.2176 0.0798734 0.157412)
(10.2081 0.685398 0.124207)
(10.1732 0.769284 0.151554)
(10.2958 0.680866 0.189704)
(10.6174 0.303588 0.147221)
(10.5561 0.193342 -0.0946698)
(10.2934 0.155054 -0.0201044)
(10.126 0.0538319 -0.0758207)
(10.1137 -0.109118 -0.124869)
(10.1016 -0.277697 -0.158471)
(10.0565 -0.317043 -0.150514)
(9.88765 -0.204432 0.122279)
(9.67152 -0.0850368 0.265507)
(9.57998 -0.00675711 0.0855424)
(9.62142 0.063163 -0.166094)
(9.73711 0.104379 -0.212924)
(9.79915 0.12765 -0.000405669)
(9.75745 0.0223332 0.0337218)
(9.83006 -0.088236 -0.105554)
(9.84723 -0.0266279 -0.0594463)
(9.66205 0.132287 -0.0643634)
(9.90384 0.204382 -0.171214)
(10.0817 0.15016 -0.148516)
(9.92952 0.117098 -0.0682139)
(9.85095 0.0539019 0.090779)
(10.0927 -0.27659 0.255974)
(10.3332 -0.501403 0.44781)
(10.4956 -0.26754 0.249146)
(10.3615 -0.178742 -0.0371364)
(9.87165 -0.288399 -0.0670496)
(9.68595 -0.602907 0.119678)
(10.7118 -0.334021 0.0927492)
(10.981 0.0735152 0.0760653)
(10.5441 0.557795 0.0765526)
(9.98934 0.725768 0.0563482)
(9.96159 0.550474 -0.0360258)
(10.3697 0.292236 -0.175635)
(10.4889 0.238277 -0.0811883)
(10.176 0.250234 0.107704)
(9.97963 0.101486 -0.00927179)
(9.98976 -0.0345406 -0.141204)
(10.0345 -0.110995 -0.163092)
(10.0709 -0.155082 -0.0676021)
(9.96636 -0.168656 0.16008)
(9.75883 -0.117724 0.26755)
(9.65903 -0.0271839 0.124075)
(9.67348 0.0468687 -0.0984438)
(9.75067 0.0855387 -0.158916)
(9.77308 0.0888775 0.0791071)
(9.66199 0.0990399 0.104239)
(9.81436 0.0638447 -0.0983071)
(9.92625 0.00208151 -0.115333)
(9.82919 0.0448086 -0.0813813)
(9.86102 0.13927 -0.0441994)
(9.9396 0.0461979 -0.020145)
(9.84442 -0.0600559 0.0318905)
(9.76681 -0.0647419 0.136843)
(9.82551 -0.16573 0.273547)
(10.4582 -0.21422 0.276826)
(10.6275 -0.163002 0.0722071)
(10.2158 -0.216947 -0.118285)
(9.62399 -0.390003 -0.0666168)
(9.96628 -0.40489 0.18956)
(10.949 -0.0978927 0.250459)
(11.2158 -0.0196897 0.0489964)
(10.8727 0.0947548 -0.124053)
(10.0213 0.410779 -0.180565)
(9.77824 0.491599 -0.20077)
(10.2424 0.231681 -0.34365)
(10.4918 0.125217 -0.0118653)
(10.0268 0.143174 0.144575)
(9.76485 0.0705662 0.0262487)
(9.85406 0.0137006 -0.0748931)
(9.93223 -0.00962591 -0.0796191)
(9.95003 -0.0288405 -0.00860847)
(9.86367 -0.075256 0.0900303)
(9.75146 -0.0766633 0.131623)
(9.68982 -0.0282676 0.0594727)
(9.67999 0.0117352 -0.0774109)
(9.72789 0.0347012 -0.105894)
(9.74519 0.0405655 0.120129)
(9.68493 0.0656695 0.163271)
(9.70001 0.11118 -0.0134658)
(9.7669 0.0175613 -0.119864)
(9.77172 -0.0332657 -0.114872)
(9.80513 0.00673591 -0.0575567)
(9.83219 -0.0191117 -0.0250284)
(9.76561 -0.045104 0.0395069)
(9.70424 -0.043189 0.112897)
(9.83806 -0.0493347 0.267043)
(10.3496 -0.00879179 0.288174)
(10.4576 -0.0398231 -0.0170975)
(10.0146 -0.127066 -0.309996)
(9.46952 -0.217758 0.0383149)
(10.3344 -0.12895 0.440332)
(10.8835 -0.00481922 0.330741)
(11.0643 -0.0629115 -0.00134856)
(10.8196 -0.0298262 -0.2609)
(10.3508 0.119821 -0.41336)
(9.67073 0.193676 -0.395716)
(10.2189 0.0789783 -0.205894)
)
;

boundaryField
{
    wall
    {
        type            fixedValue;
        value           uniform (0 0 0);
    }
    outlet
    {
        type            cyclic;
    }
    inlet
    {
        type            cyclic;
    }
    procBoundary1to0
    {
        type            processor;
        value           nonuniform List<vector> 
256
(
(11.5809 -0.00734258 0.117141)
(11.1718 -0.11033 0.0034251)
(10.5472 -0.13071 -0.365346)
(10.6155 -0.000688484 -0.111038)
(10.6943 0.042919 0.232533)
(9.9061 -0.0138071 0.0545269)
(9.19147 -0.0662259 -0.120645)
(9.28588 -0.0414209 0.0962989)
(9.71985 -0.0215303 0.30589)
(9.89483 -0.0370287 -0.141652)
(9.74679 -0.0474502 -0.338962)
(9.72095 -0.0281381 -0.0748188)
(9.91976 0.00481847 0.0797504)
(9.99105 0.0142693 -0.175117)
(9.83993 0.00622748 -0.273798)
(9.74192 0.00832462 -0.130355)
(9.79205 0.0292294 0.026434)
(9.9236 0.0581977 -0.000462433)
(10.0009 0.0538715 -0.251186)
(9.88458 0.0333357 -0.376547)
(10.8366 0.0058997 -0.144174)
(11.1614 -0.0312659 0.0992321)
(10.7734 -0.0724366 0.219784)
(9.99509 -0.068425 0.115897)
(9.74549 -0.0324632 0.0215893)
(9.82829 -0.000901603 0.0419032)
(9.82842 0.0211882 0.103676)
(9.7061 0.0401182 0.134711)
(9.68073 0.0550486 0.13168)
(9.66572 0.0742575 0.159273)
(11.0012 0.132803 0.330562)
(11.6269 0.124549 0.314058)
(11.4623 0.0758185 0.178144)
(11.0908 -0.167623 -0.0920413)
(10.7946 -0.2839 -0.283399)
(10.7855 -0.101125 -0.164094)
(10.7649 -0.0273956 -0.0389448)
(9.86637 -0.121067 -0.0248627)
(9.21621 -0.173584 -0.0161145)
(9.38258 -0.101786 0.141124)
(9.7785 -0.0555539 0.270996)
(9.92433 -0.093206 -0.119815)
(9.81155 -0.123734 -0.266392)
(9.82856 -0.079546 -0.0223371)
(10.0174 0.0109105 0.0528479)
(10.0483 0.0365135 -0.215105)
(9.89003 0.00779679 -0.280076)
(9.8205 0.00527045 -0.116378)
(9.89703 0.0591711 0.0129459)
(10.0061 0.144449 -0.0161471)
(10.0232 0.127999 -0.167353)
(9.91153 0.16104 -0.348396)
(10.8143 0.109415 -0.251417)
(11.1223 -0.0838217 -0.00419399)
(10.7864 -0.261928 0.210621)
(10.1041 -0.237581 0.175984)
(9.87828 -0.103944 0.0686415)
(9.94051 -0.0101412 0.0745104)
(9.92515 0.0488388 0.122997)
(9.81146 0.115606 0.140982)
(9.77728 0.169943 0.132334)
(9.77182 0.250043 0.160208)
(11.0611 0.347914 0.316955)
(11.58 0.325095 0.36541)
(11.3271 0.242615 0.238764)
(10.8853 -0.0764265 -0.0094002)
(10.6837 -0.368565 -0.287441)
(10.8857 -0.167777 -0.2103)
(10.811 -0.160093 -0.116)
(9.82892 -0.284057 -0.0500893)
(9.26594 -0.27015 0.01314)
(9.46236 -0.143864 0.140929)
(9.7826 -0.0595689 0.213182)
(9.88209 -0.103706 -0.0850473)
(9.81648 -0.155101 -0.146174)
(9.91117 -0.10454 0.098402)
(10.091 0.012466 -0.00513812)
(10.0438 0.0396929 -0.30994)
(9.86484 -0.00552751 -0.301314)
(9.84905 -0.0251219 -0.065741)
(9.98649 0.0272371 0.0440897)
(10.07 0.147321 -0.09486)
(10.052 0.178601 -0.224552)
(10.0737 0.180856 -0.256751)
(10.4941 0.239723 -0.285873)
(10.8286 -0.117751 -0.0355494)
(10.7302 -0.398408 0.192924)
(10.3023 -0.328709 0.181376)
(10.0619 -0.124957 0.0874913)
(10.0468 -0.0255944 0.116629)
(10.0101 0.0440879 0.157431)
(9.92302 0.173194 0.149729)
(9.88607 0.282833 0.122627)
(9.85618 0.44237 0.168499)
(10.9871 0.505721 0.282236)
(11.4903 0.38375 0.282409)
(11.2007 0.337959 0.203063)
(10.5465 0.0686376 -0.0657242)
(10.7316 -0.265666 -0.286128)
(10.9733 -0.215882 -0.165393)
(10.6296 -0.327093 -0.0987707)
(9.72564 -0.452648 -0.0428772)
(9.40221 -0.369529 0.0514368)
(9.60742 -0.190011 0.14087)
(9.81865 -0.0424257 0.114212)
(9.8289 -0.0524571 -0.072995)
(9.81081 -0.114315 -0.0366952)
(9.99633 -0.080628 0.231963)
(10.1616 0.00852114 -0.0650376)
(10.0304 0.0180695 -0.393044)
(9.82531 -0.0183987 -0.304165)
(9.85337 -0.0290577 -0.0004912)
(10.0696 0.0014371 0.174893)
(10.1699 0.0891499 -0.151208)
(10.0927 0.128572 -0.34841)
(10.1022 0.0876384 -0.247212)
(10.3035 0.024636 -0.106446)
(10.5545 -0.209263 0.0141057)
(10.6436 -0.414755 0.102546)
(10.4634 -0.217297 0.101134)
(10.2083 -0.02506 0.0806529)
(10.1168 -0.0550892 0.124492)
(10.1245 -0.0117692 0.157105)
(10.0994 0.2251 0.140253)
(10.0662 0.427396 0.119166)
(10.0195 0.575326 0.147346)
(10.7544 0.62937 0.235722)
(11.3505 0.469196 0.277371)
(11.1318 0.422902 0.0771763)
(10.2372 0.227721 -0.0619336)
(10.544 0.0322308 -0.098289)
(10.7655 -0.234317 -0.207201)
(10.4436 -0.553942 -0.2306)
(9.77478 -0.603093 -0.0770567)
(9.59829 -0.410145 0.129373)
(9.80523 -0.214345 0.269573)
(9.92014 -0.0436871 -0.0171083)
(9.81026 -0.00208743 -0.186355)
(9.78827 -0.0374276 -0.00111834)
(10.034 -0.0240861 0.270767)
(10.1897 0.00717184 -0.100273)
(10.0169 -0.0164108 -0.39331)
(9.81771 -0.0378819 -0.254546)
(9.86886 -0.00299221 0.0171263)
(10.1048 0.0373217 0.159385)
(10.1988 0.0486115 -0.183258)
(10.0614 0.00764286 -0.340888)
(10.0078 -0.0692676 -0.177812)
(10.12 -0.197235 -0.0108199)
(10.4084 -0.499291 -0.00283785)
(10.7479 -0.280001 0.00222511)
(10.6979 -0.0217762 0.11323)
(10.203 0.0182348 0.162759)
(10.047 -0.183988 0.133252)
(10.2944 -0.235124 0.1239)
(10.3952 0.214867 0.109312)
(10.2755 0.650262 0.126931)
(10.0929 0.760959 0.163443)
(10.6466 0.704534 0.258833)
(11.1957 0.586889 0.23585)
(10.9394 0.28787 -0.187142)
(10.3497 0.0309904 -0.262146)
(10.2177 0.143098 -0.155168)
(10.3131 -0.126041 -0.139104)
(10.1693 -0.520053 -0.0892171)
(9.93912 -0.561596 0.0232317)
(9.87284 -0.371161 0.196953)
(10.0088 -0.190641 0.327681)
(10.0309 -0.0346648 -0.0505211)
(9.8351 0.0333682 -0.221145)
(9.78876 0.0214421 0.0141832)
(10.0409 0.0178056 0.275253)
(10.1693 0.0042885 -0.123124)
(9.98533 -0.0405342 -0.370133)
(9.83868 -0.0626995 -0.178339)
(9.92856 -0.00475762 0.0536338)
(10.1212 0.0761756 0.0853233)
(10.1403 0.0544608 -0.166377)
(9.96753 -0.0523731 -0.244944)
(9.84315 -0.11857 -0.10653)
(9.79606 -0.35568 -0.017361)
(10.6832 -0.383555 0.0111436)
(10.9723 -0.129808 0.0473729)
(10.693 -0.0179909 0.112648)
(9.92199 -0.165332 0.0989685)
(9.79575 -0.43404 0.0839051)
(10.6692 -0.342068 0.105431)
(10.9963 0.0897572 0.0915998)
(10.5801 0.647091 0.0798019)
(10.0025 0.943864 0.179907)
(10.5384 0.919763 0.336742)
(11.0015 0.672418 0.126444)
(10.6222 0.234398 -0.163472)
(10.3321 0.0100741 -0.174515)
(10.1692 -0.0263008 -0.0897913)
(10.1575 -0.12825 -0.0577325)
(10.0999 -0.245686 -0.0181888)
(9.9875 -0.254229 0.0625272)
(9.96658 -0.233926 0.224274)
(10.1361 -0.216356 0.343381)
(10.1439 -0.0106426 -0.054316)
(9.86617 0.114879 -0.230855)
(9.77261 0.0798108 0.0155071)
(10.0167 0.0380827 0.251855)
(10.1314 0.00141417 -0.129437)
(9.9498 -0.0355764 -0.330818)
(9.85335 -0.0555125 -0.0631169)
(10.0077 -0.0154539 0.203345)
(10.1638 0.0663184 0.00754895)
(10.0702 0.04968 -0.250921)
(9.84457 -0.0494644 -0.218498)
(9.737 -0.118964 -0.0557516)
(9.71894 -0.222768 0.0452172)
(10.8128 -0.180319 0.105886)
(11.074 -0.0754428 0.111508)
(10.5503 -0.122169 0.0251891)
(9.67692 -0.306151 -0.040875)
(9.77403 -0.501513 0.0375352)
(11.0602 -0.160016 0.0629309)
(11.3994 0.0531699 0.060537)
(11.0489 0.28495 0.0700807)
(10.2606 0.632814 0.0951892)
(10.1192 0.793218 0.119418)
(10.5009 0.615671 0.0104119)
(10.3452 0.147022 -0.256819)
(10.1138 0.0437231 -0.151081)
(10.0432 0.00963883 -0.0655592)
(10.0308 -0.019733 -0.0418739)
(9.98225 -0.0614188 0.00979901)
(9.88587 -0.0730842 0.0819539)
(9.86824 -0.117224 0.289814)
(10.1954 -0.109645 0.308222)
(10.2574 -0.0044452 -0.0528996)
(9.8457 0.0789832 -0.248637)
(9.65799 0.054058 0.00315477)
(9.91133 0.0235709 0.226764)
(10.0399 0.00208282 -0.100585)
(9.87203 -0.0121126 -0.248615)
(9.80306 -0.019425 0.00177456)
(9.99553 -0.00673572 0.26225)
(10.1307 0.0234126 -0.0592981)
(9.96814 0.0156777 -0.317398)
(9.72281 -0.022524 -0.207589)
(9.63418 -0.0438831 -0.0237243)
(9.65834 -0.0729641 0.123218)
(10.8043 -0.0531904 0.237034)
(11.014 -0.0303495 0.153802)
(10.3591 -0.0603091 -0.0742163)
(9.30189 -0.198176 -0.191197)
(10.2709 -0.170979 -0.014497)
(11.0222 -0.0050805 0.0306808)
(11.2827 -0.0143897 0.0477037)
(10.9554 0.0308681 0.109873)
(10.5297 0.176118 0.178285)
(10.19 0.266174 0.099359)
(10.3065 0.240605 -0.126168)
)
;
    }
    procBoundary1to2
    {
        type            processor;
        value           nonuniform List<vector> 
256
(
(10.5376 -0.0514309 -0.163556)
(10.7047 0.00243459 -0.443388)
(10.9408 -0.0149545 -0.249166)
(10.7948 0.049197 0.144491)
(10.4804 0.00497502 -0.0784785)
(9.87445 -0.0869301 -0.272627)
(9.41434 -0.0857105 -0.110589)
(9.38441 -0.0403884 -0.108317)
(9.5681 -0.0449865 -0.236104)
(9.77205 -0.0853794 -0.125045)
(9.8188 -0.0185979 -0.0629884)
(9.78259 0.0238213 -0.125582)
(9.81989 0.00540443 -0.135724)
(9.87737 0.00546374 -0.130013)
(9.85233 -0.00366528 0.0138184)
(10.0062 0.0156868 0.00534861)
(10.0969 0.0353323 -0.0824599)
(9.87396 0.0903038 0.24603)
(9.97397 0.0920493 0.42142)
(10.0914 0.0226381 0.381419)
(10.3843 -0.0771994 -0.00104683)
(10.6947 -0.131645 -0.41238)
(10.6798 -0.0686674 -0.502549)
(10.0383 0.0257314 -0.479802)
(10.2361 0.0668887 -0.231828)
(10.4388 0.0925956 -0.0158692)
(9.95223 0.0831671 0.303083)
(9.52357 0.102332 0.302798)
(10.0264 0.166339 0.287256)
(10.4958 0.0742789 0.575594)
(10.8975 -0.11322 0.791167)
(10.8988 -0.157739 0.447352)
(10.8662 0.0498445 -0.284927)
(10.8071 -0.058338 -0.23451)
(11.0056 -0.124863 0.0313577)
(10.9138 -0.0352844 0.305401)
(10.3888 -0.101969 -0.0378921)
(9.82201 -0.201437 -0.384114)
(9.52545 -0.123609 -0.196138)
(9.48676 -0.0623059 -0.100074)
(9.5956 -0.0592097 -0.208239)
(9.83919 -0.0931674 -0.083684)
(9.91841 -0.0856054 -0.0205535)
(9.85823 -0.105237 -0.1155)
(9.87065 -0.0924463 -0.148025)
(9.93008 -0.0260569 -0.0601611)
(9.90252 -0.0153723 -0.00131183)
(10.1106 0.150317 -0.0762602)
(10.2136 0.151683 -0.122001)
(10.0109 0.0689614 0.268264)
(9.95111 0.0825675 0.412122)
(10.0604 0.00230551 0.22444)
(10.1991 -0.0687826 0.0468551)
(10.8301 -0.139131 -0.295124)
(10.9226 -0.142821 -0.377145)
(10.1926 -0.0983047 -0.331103)
(10.3236 0.141015 -0.201779)
(10.5246 0.266965 -0.035717)
(10.0756 0.2441 0.221395)
(9.77417 0.164653 0.221832)
(9.97275 0.22969 0.121108)
(10.1636 0.197102 0.580462)
(10.8173 -0.063517 0.754007)
(11.0921 -0.0411399 0.196141)
(10.6323 0.265333 -0.233719)
(10.6077 -0.0893035 -0.140116)
(10.9211 -0.300389 0.0623551)
(10.9578 -0.367437 0.194295)
(10.2842 -0.346968 -0.108377)
(9.84283 -0.219703 -0.225169)
(9.61459 -0.0678251 -0.112691)
(9.50515 -0.0241484 -0.127236)
(9.60455 -0.0682373 -0.157638)
(9.81295 -0.166886 -0.136127)
(9.86355 -0.175529 -0.0720684)
(9.82024 -0.162228 -0.130175)
(9.94082 -0.105487 -0.234876)
(9.96156 0.00845862 -0.0437548)
(10.0661 0.0899421 -0.0197346)
(10.1901 0.117226 -0.140062)
(10.1179 -0.023272 -0.034994)
(9.89597 -0.0978924 0.198937)
(9.9526 -0.0233085 0.255398)
(10.0304 0.0154419 0.236944)
(10.2775 0.175973 0.103743)
(10.7236 0.169876 -0.225418)
(10.7194 -0.0342594 -0.321281)
(10.372 -0.027211 -0.111269)
(10.519 0.118971 -0.00242543)
(10.5366 0.171573 0.0435323)
(10.0063 0.153237 0.112921)
(9.72411 0.0789604 0.100347)
(9.9249 0.0247542 0.0918907)
(10.1113 0.205173 0.467907)
(10.9425 0.375469 0.532413)
(11.1568 0.392249 0.20417)
(10.5332 0.00543837 -0.0256866)
(10.125 0.125548 -0.308868)
(10.7042 -0.241718 -0.110301)
(10.8735 -0.520281 -0.0111183)
(10.482 -0.524623 -0.0660433)
(10.103 -0.399839 -0.00605254)
(9.7436 -0.146985 0.0331133)
(9.4964 0.0679179 -0.0460617)
(9.45584 0.0325203 -0.148407)
(9.7371 -0.186763 -0.31572)
(9.93372 -0.325422 -0.250513)
(9.9179 -0.106762 -0.0399624)
(9.98593 0.189152 0.041229)
(10.0151 0.255554 0.142633)
(9.94181 0.121777 0.0327136)
(9.97695 -0.0552528 -0.101544)
(9.97816 -0.228337 0.0213707)
(9.93444 -0.164595 0.0280118)
(10.0822 -0.00549621 0.143594)
(10.1662 0.0362511 0.30888)
(10.4611 0.337108 0.00558025)
(10.5579 0.408074 -0.195444)
(10.4324 0.124061 -0.110864)
(10.3786 0.0372975 0.0279022)
(10.5429 -0.0293108 0.0768776)
(10.4941 -0.178506 0.0779559)
(9.99648 -0.223511 0.0754727)
(9.62128 0.0147172 -0.0746215)
(10.1933 0.431084 0.0899451)
(10.42 0.535263 0.2198)
(10.9058 0.385094 0.310361)
(11.0217 0.236846 0.232054)
(10.6968 -0.0565077 -0.0610401)
(10.4013 0.168108 -0.214367)
(10.3722 0.254663 -0.119577)
(10.5336 -0.287921 -0.0171282)
(10.5372 -0.522323 -0.0403792)
(10.2335 -0.465464 -0.0169679)
(10.0389 -0.257207 -0.0232522)
(9.67109 0.0563614 0.0620746)
(9.43006 0.141143 0.0236041)
(9.45008 0.0487286 -0.33133)
(9.94943 0.0225855 -0.183445)
(10.1599 0.151292 0.0172716)
(10.1306 0.149564 0.0997655)
(9.97949 0.00880371 0.151022)
(9.78969 0.0406966 0.0433321)
(9.72284 -0.0211858 0.00791735)
(9.99424 -0.141606 0.100527)
(10.0544 -0.098144 -0.00493738)
(10.1585 0.0602599 0.0217479)
(10.3387 0.0972966 0.0908988)
(10.539 0.0765683 0.0257085)
(10.5635 0.0704322 0.0245168)
(10.3238 -0.022744 0.0896569)
(10.2241 -0.00482721 -0.00164038)
(10.362 -0.183236 -0.0577472)
(10.401 -0.448033 0.115569)
(10.2987 -0.591547 0.213977)
(10.2696 0.0466408 -0.0577799)
(10.3546 0.696836 0.0597386)
(10.3492 0.633697 0.146968)
(10.4484 0.374988 -0.0883088)
(10.7144 -0.027732 -0.0636343)
(10.9034 0.200511 -0.19958)
(10.4315 0.318594 -0.125124)
(10.1755 0.166064 0.0193424)
(10.214 -0.0345174 -0.0366526)
(10.2581 -0.302657 -0.0705254)
(10.3742 -0.321291 0.0115532)
(10.3223 -0.22936 0.0241395)
(9.83657 -0.0397886 0.158036)
(9.47413 0.0989988 0.155173)
(9.59247 0.156053 -0.096474)
(10.0222 0.242734 -0.17809)
(10.1514 0.335773 0.0248717)
(9.91367 0.122217 0.143631)
(9.89957 -0.16387 0.0679129)
(9.96584 -0.149635 -0.0705462)
(9.79592 0.023371 0.0012887)
(9.98284 0.153502 0.0213248)
(10.1278 0.142808 -0.186385)
(10.1942 0.128966 -0.0464292)
(10.217 0.121764 0.119185)
(10.4167 -0.246644 0.252354)
(10.4981 -0.418368 0.364946)
(10.3912 -0.327804 0.141052)
(10.2888 -0.221291 -0.254086)
(10.1932 -0.208728 -0.0971461)
(10.0135 -0.571751 0.38074)
(10.7284 -0.295491 0.301079)
(10.9317 0.0690721 0.0857269)
(10.6218 0.385662 -0.105649)
(10.0494 0.489785 -0.203786)
(10.0493 0.314789 -0.316908)
(10.7129 0.0766928 -0.261194)
(10.9172 0.338008 -0.178381)