/*--------------------------------*- C++ -*----------------------------------*\
| =========                 |                                                 |
| \\      /  F ield         | OpenFOAM: The Open Source CFD Toolbox           |
|  \\    /   O peration     | Version:  2506                                  |
|   \\  /    A nd           | Website:  www.openfoam.com                      |
|    \\/     M anipulation  |                                                 |
\*---------------------------------------------------------------------------*/
FoamFile
{
    version     2.0;
    format      ascii;
    arch        "LSB;label=32;scalar=64";
    class       volScalarField;
    location    "0.07";
    object      Ksl;
}
// * * * * * * * * * * * * * * * * * * * * * * * * * * * * * * * * * * * * * //

dimensions      [1 -3 -1 0 0 0 0];

internalField   nonuniform List<scalar> 
1152
(
127263
471109
150405
223925
76827.3
115007
138619
1.42476e+06
174657
104132
115732
64537
119309
108139
123225
98892.6
235517
181722
182826
2.45653e+07
320617
175052
190614
179733
180416
252151
749126
169045
289995
154640
213538
312046
152686
1.29038e+06
216811
123485
119875
209129
406708
136259
470689
208909
142297
244478
108019
640262
203868
389600
209349
8.76268e+06
331245
144881
237777
170547
518086
215764
1.00341e+06
251666
268261
211717
295716
233739
222267
921665
2.28206e+06
208989
205583
117564
181934
241554
244306
401205
320971
236783
331097
113330
168041
249552
168337
2.23765e+06
117417
259208
292900
5.47452e+06
223378
169457
475889
162731
263957
262610
120218
392000
110859
162946
192435
5.43188e+06
108966
83695.2
63284.2
16947.1
48271.7
87492.9
128657
117442
60883.8
75332.5
140887
64843.5
39860.9
96162.6
119825
263811
0
0
0
0
0
0
0
0
0
0
0
0
0
0
0
0
0
0
0
0
0
0
0
0
0
0
0
0
0
0
0
0
0
0
0
0
0
0
0
0
0
0
0
0
0
0
0
0
0
0
0
0
0
0
0
0
0
0
0
0
0
0
0
0
0
0
0
0
0
0
0
0
0
0
0
0
0
0
0
0
0
0
0
0
0
0
0
0
0
0
0
0
0
0
0
0
0
0
0
0
0
0
0
0
0
0
0
0
0
0
0
0
0
0
0
0
0
0
0
0
0
0
0
0
0
0
0
0
0
0
0
0
0
0
0
0
0
0
0
0
0
0
0
0
0
0
0
0
0
0
0
0
0
0
0
0
0
0
0
0
0
0
0
0
0
0
0
0
0
0
0
0
0
0
0
0
0
0
0
0
0
0
0
0
0
0
0
0
0
0
0
0
0
0
0
0
0
0
0
0
0
0
0
0
0
0
0
0
0
0
0
0
0
0
0
0
0
0
0
0
0
0
0
0
0
0
0
0
0
0
0
0
0
0
0
0
0
0
0
0
0
0
0
0
0
0
0
0
0
0
0
0
0
0
0
0
0
0
0
0
0
0
0
0
0
0
0
0
0
0
0
0
87339.1
254589
64497.5
162395
120177
122173
133177
119980
111926
101222
112777
116896
96934.6
152743
95862.5
116095
99133.1
150472
199522
797777
160098
1.53921e+06
291449
271108
297326
119019
176590
221746
148106
253944
161349
295678
496032
183309
216067
136418
229664
225166
441887
129410
220619
271884
165131
294821
194452
173438
213204
262844
374844
266200
476953
166079
221721
140330
392390
252246
222752
184698
141435
376174
161092
442975
203980
166787
111494
272328
162950
190331
662225
292187
247104
438168
325260
223863
156972
155582
201978
123445
724443
236981
1.75093e+07
347231
254901
1.18688e+06
128753
159998
320007
83494.2
340278
180248
133247
9.20922e+06
155565
330195
254555
74312.3
258314
49687.6
54733.7
54970.3
70662.8
85818.9
40899
28279.9
73620.5
62031
32311.8
11104.6
53411
29342.1
69347.9
7171.46
0
0
0
0
0
0
0
0
0
0
0
0
0
0
0
0
0
0
0
0
0
0
0
0
0
0
0
0
0
0
0
0
0
0
0
0
0
0
0
0
0
0
0
0
0
0
0
0
0
0
0
0
0
0
0
0
0
0
0
0
0
0
0
0
0
0
0
0
0
0
0
0
0
0
0
0
0
0
0
0
0
0
0
0
0
0
0
0
0
0
0
0
0
0
0
0
0
0
0
0
0
0
0
0
0
0
0
0
0
0
0
0
0
0
0
0
0
0
0
0
0
0
0
0
0
0
0
0
0
0
0
0
0
0
0
0
0
0
0
0
0
0
0
0
0
0
0
0
0
0
0
0
0
0
0
0
0
0
0
0
0
0
0
0
0
0
0
0
0
0
0
0
0
0
0
0
0
0
0
0
0
0
0
0
0
0
0
0
0
0
0
0
0
0
0
0
0
0
0
0
0
0
0
0
0
0
0
0
0
0
0
0
0
0
0
0
0
0
0
0
0
0
0
0
0
0
0
0
0
0
0
0
0
0
0
0
0
0
0
0
0
0
0
0
0
0
0
0
0
0
0
0
0
0
0
0
0
0
0
0
0
0
0
0
0
0
0
0
0
0
0
0
112914
73226
151366
105565
307159
93896
131078
109814
99539.2
87633.3
176489
86089
128184
292989
71549.8
152456
379181
445658
1.4199e+06
724346
137516
383723
187807
205346
120487
221858
236068
114317
234178
130556
337286
246461
155399
110083
211754
157523
1.15954e+06
150214
215071
743714
105426
2.87095e+06
219233
1.22568e+06
358371
169309
160612
252145
170601
187347
302016
188186
383570
187024
229158
403238
170880
149196
5.557e+06
109019
174053
255454
181270
285235
155844
225353
300968
189972
227171
204331
176336
255112
238531
189676
383021
219109
173583
210795
183238
221420
189207
95149.5
428257
142728
224756
175177
214719
632661
223647
128517
185423
128861
265869
440949
287154
614242
35877.5
15639.9
57772
22657.8
41064.3
76261.5
44808.8
106151
49655.3
55212.3
67426.9
57330.9
67056.2
74089.4
52312.1
36885.6
0
0
0
0
0
0
0
0
0
0
0
0
0
0
0
0
0
0
0
0
0
0
0
0
0
0
0
0
0
0
0
0
0
0
0
0
0
0
0
0
0
0
0
0
0
0
0
0
0
0
0
0
0
0
0
0
0
0
0
0
0
0
0
0
0
0
0
0
0
0
0
0
0
0
0
0
0
0
0
0
0
0
0
0
0
0
0
0
0
0
0
0
0
0
0
0
0
0
0
0
0
0
0
0
0
0
0
0
0
0
0
0
0
0
0
0
0
0
0
0
0
0
0
0
0
0
0
0
0
0
0
0
0
0
0
0
0
0
0
0
0
0
0
0
0
0
0
0
0
0
0
0
0
0
0
0
0
0
0
0
0
0
0
0
0
0
0
0
0
0
0
0
0
0
0
0
0
0
0
0
0
0
0
0
0
0
0
0
0
0
0
0
0
0
0
0
0
0
0
0
0
0
0
0
0
0
0
0
0
0
0
0
0
0
0
0
0
0
0
0
0
0
0
0
0
0
0
0
0
0
0
0
0
0
0
0
0
0
0
0
0
0
0
0
0
0
0
0
0
0
0
0
0
0
0
0
0
0
0
0
0
0
0
0
0
0
0
0
0
0
0
0
)
;

boundaryField
{
    inlet
    {
        type            zeroGradient;
    }
    outlet
    {
        type            zeroGradient;
    }
    wall
    {
        type            zeroGradient;
    }
    procBoundary2to0
    {
        type            processor;
        value           nonuniform List<scalar> 
192
(
136995
51641.7
100947
125695
187644
541626
190364
245620
388859
113995
434964
512353
346608
118172
206649
129593
138651
715126
390070
7.61784e+06
174548
150624
171525
345074
38684.8
113137
175012
66115.2
0
0
0
0
0
0
0
0
0
0
0
0
0
0
0
0
0
0
0
0
0
0
0
0
0
0
0
0
0
0
0
0
0
0
0
0
0
0
0
0
0
0
0
0
0
0
0
0
0
0
0
0
0
0
0
0
0
0
0
0
0
0
0
0
0
0
0
0
194597
223656
94320.9
98833.5
221610
143567
133292
181054
331880
698000
778159
185050
239796
484071
254058
191831
244380
241186
204448
394376
171948
280651
150871
133968
75401.1
50588.3
19341
44279.5
0
0
0
0
0
0
0
0
0
0
0
0
0
0
0
0
0
0
0
0
0
0
0
0
0
0
0
0
0
0
0
0
0
0
0
0
0
0
0
0
0
0
0
0
0
0
0
0
0
0
0
0
0
0
0
0
0
0
0
0
0
0
0
0
0
0
0
0
)
;
    }
    procBoundary2to3
    {
        type            processor;
        value           nonuniform List<scalar> 
192
(
52492.5
55128.6
354922
139789
114997
132592
1.19701e+07
141756
954722
2.69179e+06
203629
224639
858399
146468
271892
162787
7.7987e+06
410444
325711
186795
127058
106365
490101
126499
315100
98783.7
85324.4
510350
0
0
0
0
0
0
0
0
0
0
0
0
0
0
0
0
0
0
0
0
0
0
0
0
0
0
0
0
0
0
0
0
0
0
0
0
0
0
0
0
0
0
0
0
0
0
0
0
0
0
0
0
0
0
0
0
0
0
0
0
0
0
0
0
0
0
0
0
76564.4
155287
89951.4
1.34215e+06
184105
176932
248057
109599
498156
560666
206571
325300
272757
283964
172269
228572
265760
125954
2.38167e+07
283570
99122
1.09604e+07
124370
258203
535980
137154
21731.2
30742.4
0
0
0
0
0
0
0
0
0
0
0
0
0
0
0
0
0
0
0
0
0
0
0
0
0
0
0
0
0
0
0
0
0
0
0
0
0
0
0
0
0
0
0
0
0
0
0
0
0
0
0
0
0
0
0
0
0
0
0
0
0
0
0
0
0
0
0
0
)
;
    }
}


// ************************************************************************* //
