/*--------------------------------*- C++ -*----------------------------------*\
| =========                 |                                                 |
| \\      /  F ield         | OpenFOAM: The Open Source CFD Toolbox           |
|  \\    /   O peration     | Version:  2506                                  |
|   \\  /    A nd           | Website:  www.openfoam.com                      |
|    \\/     M anipulation  |                                                 |
\*---------------------------------------------------------------------------*/
FoamFile
{
    version     2.0;
    format      ascii;
    arch        "LSB;label=32;scalar=64";
    class       volVectorField;
    location    "0.07";
    object      stored_U;
}
// * * * * * * * * * * * * * * * * * * * * * * * * * * * * * * * * * * * * * //

dimensions      [0 1 -1 0 0 0 0];

internalField   nonuniform List<vector> 
1152
(
(4.17673e-05 0.00135167 0.019164)
(-0.000349931 -0.000639103 0.00467981)
(4.82215e-05 -0.000651854 0.0152254)
(0.00174054 0.00103619 0.00998277)
(-0.0007683 0.00263875 0.0318305)
(-0.00155756 0.00171728 0.0201517)
(-0.000387376 0.000998489 0.0167353)
(0.000402865 -8.8667e-07 0.00129511)
(-0.00194239 0.000900336 0.012037)
(-0.00138324 0.00150393 0.0204516)
(0.000692382 0.00174784 0.0200871)
(-0.000604152 0.00221969 0.0367731)
(-0.00117874 0.00319311 0.0195384)
(-0.00172053 0.00149932 0.0201222)
(-0.00125857 0.00216596 0.0177275)
(0.00134494 -0.00239104 0.0218112)
(0.000211636 0.000846164 0.0245907)
(8.21315e-05 0.00208875 0.0298244)
(0.00378369 0.00211675 0.0306266)
(-0.000451037 -0.000238076 0.00218336)
(0.0008624 -0.0010514 0.0169038)
(0.000310339 -0.00094334 0.0321895)
(0.00298576 -0.000210782 0.0286802)
(-0.00199279 -0.0053696 0.0321935)
(0.000341808 0.00153889 0.0294217)
(-5.09723e-05 -0.000869762 0.021203)
(-0.000241784 -0.00042976 0.00637368)
(0.00129529 -0.00507203 0.0332953)
(-0.00110912 0.00104219 0.019976)
(-0.00368428 0.00250669 0.0368363)
(-0.00105397 -0.00265796 0.024971)
(0.00180233 0.00226968 0.0164962)
(-0.00406318 3.4675e-05 0.0460479)
(-1.92412e-05 -0.000271752 0.00771118)
(-0.000872409 -0.00134476 0.0321427)
(-0.00874823 -0.00632604 0.0615443)
(0.000620247 -0.00402071 0.0585931)
(-0.00090325 0.000927098 0.0336539)
(-0.000783687 0.000893827 0.0167576)
(-0.000234883 0.00236019 0.0524855)
(-0.00141478 -0.000726441 0.014647)
(0.00161604 -0.000862197 0.0327592)
(-0.000716547 0.00208293 0.0459754)
(-0.000989283 -0.000383678 0.029036)
(-0.00313097 -0.002444 0.0657143)
(-0.000170139 -0.000636294 0.0123563)
(0.000422899 -0.000764302 0.0343011)
(-5.84401e-05 0.000697028 0.0166949)
(0.00400728 -0.00374656 0.0355613)
(-0.000704791 -0.000186065 0.00401881)
(-0.00165881 9.81735e-05 0.0231391)
(-0.000764166 -0.00578496 0.0630171)
(-8.94703e-05 0.000746743 0.0305336)
(0.00293917 -0.00501356 0.0420166)
(-0.000994778 -0.00100073 0.0143667)
(-0.00207787 -0.000942486 0.0380877)
(-0.000313374 -0.000276481 0.00828875)
(-0.00037005 0.000290858 0.0272232)
(0.001297 4.52817e-05 0.0273061)
(0.00054311 0.000983191 0.0341246)
(0.000710442 0.00278342 0.0251469)
(0.00168234 0.000362894 0.0310816)
(-0.000953015 0.00239121 0.03182)
(-0.000110875 -0.000510876 0.00805013)
(-0.000590032 -0.000429705 0.00574285)
(-0.00103369 0.00175811 0.0286376)
(0.00757349 0.0017046 0.0314685)
(0.0124807 0.00418138 0.0680555)
(2.76803e-05 -0.000955512 0.0371886)
(0.000258211 0.00117974 0.0266188)
(0.00148678 -0.000403379 0.0257857)
(0.000458267 -0.00343036 0.0177404)
(0.000464771 0.00268025 0.0203695)
(-0.000600649 0.00175913 0.0264816)
(-0.000791705 -0.000203021 0.0201454)
(-0.0042272 -0.00358488 0.058134)
(0.00160211 0.00744986 0.0429141)
(-0.00276021 0.00115502 0.0254916)
(-0.00247355 4.24722e-05 0.0381607)
(5.38792e-06 -2.24397e-05 0.00458671)
(-0.00455554 0.000238231 0.0330193)
(0.000190516 0.000118491 0.0167444)
(0.0050957 6.23508e-05 0.012475)
(-3.25464e-05 0.000401434 0.00301501)
(-0.00176114 0.00150061 0.0187397)
(-0.00237131 0.000498458 0.0239226)
(-0.000424691 -0.000350704 0.00906717)
(-0.000125014 -0.0111851 0.0211163)
(-0.000532518 0.000558041 0.0147514)
(-0.00233919 0.000650534 0.0151567)
(-0.0026402 -0.000176556 0.0334744)
(0.000736285 0.00215377 0.0107353)
(-0.00569717 0.0103086 0.0326194)
(-0.00324547 0.00216886 0.0227531)
(0.00275583 0.00250545 0.019574)
(0.000385806 0.000445705 0.00287093)
(0.000372898 0.000758222 0.0134848)
(8.21086e-05 0.000424548 0.0159766)
(-0.00414861 0.000468468 0.0159098)
(0.00145987 0.000548885 -0.00612381)
(-0.000282767 0.000457 0.0217935)
(0.000380543 0.000623355 0.0156421)
(7.75156e-05 0.000811181 0.0111287)
(-9.97625e-05 0.00294872 0.0123335)
(0.000175818 8.97941e-05 0.0159902)
(0.000123882 0.000360686 0.0164966)
(-5.165e-05 0.000525745 0.0112786)
(0.00018148 0.000634975 0.0225641)
(0.000413089 -0.00614556 0.0226349)
(-0.000277268 -2.75437e-05 0.0132434)
(-5.76885e-05 0.000520901 0.0117003)
(0.00041076 0.000561571 0.00465591)
(0.00145237 0.000517642 0.0253358)
(0.000498568 0.000242246 0.0225847)
(-0.00186627 4.83394e-05 0.0298912)
(0.000350689 1.03416e-05 0.0827458)
(0.000523417 0.000661206 0.0268687)
(0.000728132 0.000599197 0.0231006)
(2.95564e-05 0.000586602 0.0176545)
(6.1517e-05 0.0022663 0.0309653)
(0.000294006 0.000318815 0.0265841)
(0.000287804 0.000461347 0.024111)
(-0.000233801 0.000111343 0.0225)
(6.05853e-06 -7.28974e-06 0.028544)
(0.000114631 -0.00143573 0.0400467)
(0.000195212 -0.000121926 0.0239882)
(-0.000604952 -0.000102998 0.0178011)
(-0.000812168 -0.000160921 0.0140942)
(0.00059146 0.000281298 0.00711936)
(-0.000183821 8.21508e-05 0.00599355)
(-0.00349261 -0.000142968 0.00696719)
(0.000353148 0.000295375 0.0136023)
(0.000130573 -0.000229345 0.00685913)
(0.000737596 0.000202531 0.00578669)
(-0.00135547 0.000938056 0.00508526)
(-0.00103637 0.00335634 0.00743718)
(0.000626529 -0.00146265 0.00730227)
(0.000863149 -0.000342977 0.00606681)
(-0.000425509 0.000116324 0.00536791)
(7.12717e-06 0.00181804 0.0062559)
(0.000983034 -0.00241473 0.0095689)
(0.00207801 -0.00118041 0.00638067)
(0.000683664 -0.000792143 0.00475918)
(0.000221166 -0.000205439 0.0041763)
(0.0004658 0.000159474 0.0162117)
(0.000178778 0.00012413 0.0159348)
(-0.00107613 4.5811e-05 0.0163777)
(-3.76071e-05 0.000192831 0.0190989)
(0.00024878 -3.20049e-05 0.0160173)
(0.000395972 0.00010342 0.0156205)
(-0.000492018 0.000337598 0.0153468)
(-0.000460062 0.00111553 0.0168238)
(0.000363571 -0.000516438 0.0164595)
(0.00046921 -0.000209885 0.0158441)
(-0.000130636 -4.49093e-05 0.0154868)
(-7.4867e-05 0.000573164 0.0160123)
(0.000248813 -0.000694428 0.0173741)
(0.000746261 -0.000558771 0.0159967)
(0.000210789 -0.000548312 0.0151425)
(2.06451e-05 -0.000366684 0.0149746)
(0.000208832 -3.69373e-06 0.0137183)
(0.000112807 2.28688e-05 0.0135805)
(-0.000325518 1.25304e-05 0.0136538)
(-8.0067e-05 6.39911e-05 0.0144843)
(0.00015136 -0.000120905 0.0135607)
(0.000168619 -3.85305e-05 0.013396)
(-0.000182957 5.52036e-05 0.0132901)
(-0.000191373 0.000298122 0.0138013)
(0.000247171 -0.000378894 0.0136917)
(0.000251511 -0.00023605 0.013454)
(-2.48963e-05 -0.000132286 0.0133055)
(-5.22233e-05 0.000103847 0.0135102)
(0.000248623 -0.00048641 0.0138758)
(0.000360654 -0.000411753 0.0134907)
(0.000113622 -0.000370964 0.013224)
(8.07891e-06 -0.000292241 0.0132267)
(0.00010841 -1.55606e-05 0.0143148)
(6.219e-05 8.2584e-07 0.0142775)
(-0.000101746 2.03448e-06 0.0142898)
(-6.00238e-05 2.16546e-05 0.0145518)
(7.43731e-05 -6.49553e-05 0.0142543)
(6.62669e-05 -4.1677e-05 0.0142045)
(-7.1755e-05 -1.14666e-05 0.0141745)
(-8.64718e-05 6.42582e-05 0.0143584)
(0.000107606 -0.000168737 0.014331)
(9.9832e-05 -0.000136957 0.014241)
(-1.199e-05 -0.000101595 0.0141825)
(-3.49465e-05 -2.0375e-05 0.0142652)
(6.33801e-05 -0.00020225 0.014416)
(0.000109792 -0.000213948 0.0142825)
(2.51744e-05 -0.000212147 0.0141834)
(-6.6322e-06 -0.00019435 0.0141962)
(5.50886e-05 -2.15752e-05 0.0143377)
(3.03324e-05 -1.41874e-05 0.0143334)
(-3.23399e-05 -1.17922e-05 0.0143382)
(-3.45728e-05 -4.2596e-06 0.0144261)
(3.74928e-05 -4.9851e-05 0.0143036)
(2.73395e-05 -4.24847e-05 0.014301)
(-2.59e-05 -3.06778e-05 0.0142998)
(-3.87362e-05 -5.93667e-06 0.0143692)
(5.53582e-05 -0.000102132 0.0143206)
(4.41372e-05 -9.05344e-05 0.0143087)
(-1.81895e-06 -7.51547e-05 0.0142987)
(-1.82472e-05 -4.70292e-05 0.0143366)
(3.62521e-05 -0.000123847 0.0143201)
(4.48719e-05 -0.000126629 0.0143131)
(9.6384e-06 -0.000123954 0.0142994)
(-3.63773e-06 -0.000120164 0.0143191)
(2.63098e-05 -2.04256e-05 0.0143614)
(1.32574e-05 -1.80492e-05 0.0143704)
(-1.09526e-05 -1.67904e-05 0.0143777)
(-1.87119e-05 -1.43363e-05 0.014409)
(1.71761e-05 -3.51577e-05 0.0143437)
(1.01912e-05 -3.38477e-05 0.014357)
(-9.70934e-06 -2.9659e-05 0.0143648)
(-1.85006e-05 -2.17257e-05 0.0143923)
(2.45798e-05 -5.96597e-05 0.0143438)
(1.72026e-05 -5.67688e-05 0.014356)
(-7.90956e-07 -5.10842e-05 0.0143615)
(-9.64308e-06 -4.18827e-05 0.0143793)
(1.34417e-05 -6.87676e-05 0.0143266)
(1.51714e-05 -7.20602e-05 0.014348)
(2.22452e-06 -7.1553e-05 0.0143562)
(-2.29041e-06 -7.1528e-05 0.0143706)
(1.21097e-05 -1.76014e-05 0.0143773)
(5.36651e-06 -1.70155e-05 0.0143936)
(-4.6168e-06 -1.65652e-05 0.0144033)
(-1.05689e-05 -1.56721e-05 0.0144162)
(7.56423e-06 -2.50863e-05 0.0143659)
(3.46157e-06 -2.53597e-05 0.0143864)
(-4.50114e-06 -2.40154e-05 0.0143978)
(-9.78712e-06 -2.12731e-05 0.0144105)
(1.06269e-05 -3.64576e-05 0.0143559)
(6.09766e-06 -3.61038e-05 0.0143794)
(-1.10693e-06 -3.41557e-05 0.0143921)
(-5.59018e-06 -3.08771e-05 0.014403)
(4.89499e-06 -3.99903e-05 0.0143281)
(4.43901e-06 -4.19311e-05 0.014362)
(-3.17418e-07 -4.22873e-05 0.0143797)
(-1.80577e-06 -4.2582e-05 0.0143916)
(5.25743e-06 -1.42319e-05 0.0143862)
(1.69495e-06 -1.42672e-05 0.014406)
(-2.86317e-06 -1.41506e-05 0.0144168)
(-6.49263e-06 -1.37421e-05 0.0144242)
(2.9977e-06 -1.79946e-05 0.0143771)
(6.24066e-07 -1.85689e-05 0.0144006)
(-2.8466e-06 -1.81653e-05 0.0144133)
(-5.81893e-06 -1.70293e-05 0.0144213)
(4.18544e-06 -2.30025e-05 0.0143618)
(1.51391e-06 -2.3312e-05 0.01439)
(-1.47613e-06 -2.27625e-05 0.0144055)
(-3.71462e-06 -2.14261e-05 0.0144141)
(1.21423e-06 -2.39337e-05 0.0143285)
(3.97507e-07 -2.50975e-05 0.014367)
(-1.31768e-06 -2.56268e-05 0.0143881)
(-1.76392e-06 -2.58098e-05 0.014399)
(1.9725e-06 -1.10241e-05 0.0143909)
(3.67424e-08 -1.12208e-05 0.0144124)
(-2.21458e-06 -1.12366e-05 0.0144238)
(-4.31184e-06 -1.1031e-05 0.0144296)
(8.99416e-07 -1.28818e-05 0.0143824)
(-5.57802e-07 -1.33706e-05 0.0144072)
(-2.21921e-06 -1.33039e-05 0.0144205)
(-3.8586e-06 -1.27767e-05 0.0144271)
(1.35594e-06 -1.50336e-05 0.0143641)
(-3.25814e-07 -1.54204e-05 0.0143944)
(-1.65144e-06 -1.53124e-05 0.014411)
(-2.76733e-06 -1.46782e-05 0.0144189)
(-2.17114e-07 -1.48883e-05 0.0143278)
(-9.76473e-07 -1.55728e-05 0.014368)
(-1.58998e-06 -1.5986e-05 0.0143904)
(-1.70831e-06 -1.60802e-05 0.014401)
(4.56129e-07 -8.28925e-06 0.0143935)
(-6.48097e-07 -8.5126e-06 0.0144159)
(-1.82726e-06 -8.57044e-06 0.0144275)
(-3.04763e-06 -8.45269e-06 0.0144328)
(-2.79375e-08 -9.24277e-06 0.0143849)
(-9.81532e-07 -9.59526e-06 0.0144104)
(-1.82781e-06 -9.61421e-06 0.0144238)
(-2.74656e-06 -9.34485e-06 0.01443)
(1.1609e-07 -1.00748e-05 0.0143649)
(-9.58471e-07 -1.03862e-05 0.014396)
(-1.57453e-06 -1.03971e-05 0.0144131)
(-2.15539e-06 -1.00711e-05 0.0144209)
(-7.15744e-07 -9.46645e-06 0.0143269)
(-1.32056e-06 -9.89021e-06 0.0143677)
(-1.53809e-06 -1.0225e-05 0.0143907)
(-1.56985e-06 -1.03042e-05 0.0144012)
(-1.75453e-07 -6.11662e-06 0.0143949)
(-8.36541e-07 -6.30614e-06 0.0144177)
(-1.49103e-06 -6.36568e-06 0.0144294)
(-2.22347e-06 -6.29102e-06 0.0144346)
(-3.86402e-07 -6.60193e-06 0.0143861)
(-1.03087e-06 -6.84828e-06 0.0144118)
(-1.49175e-06 -6.88848e-06 0.0144254)
(-2.0245e-06 -6.74221e-06 0.0144314)
(-3.58808e-07 -6.86066e-06 0.0143651)
(-1.07388e-06 -7.08249e-06 0.0143965)
(-1.37474e-06 -7.11988e-06 0.0144139)
(-1.68713e-06 -6.94752e-06 0.0144216)
(-7.94201e-07 -6.18987e-06 0.014326)
(-1.26553e-06 -6.43872e-06 0.0143671)
(-1.35159e-06 -6.6775e-06 0.0143902)
(-1.36019e-06 -6.75932e-06 0.0144007)
(-3.81814e-07 -4.42202e-06 0.0143957)
(-7.91029e-07 -4.57227e-06 0.0144186)
(-1.17149e-06 -4.62774e-06 0.0144305)
(-1.60627e-06 -4.58905e-06 0.0144355)
(-4.66881e-07 -4.66165e-06 0.0143866)
(-9.1145e-07 -4.83262e-06 0.0144124)
(-1.17653e-06 -4.87603e-06 0.0144261)
(-1.48829e-06 -4.7989e-06 0.014432)
(-4.7225e-07 -4.69488e-06 0.014365)
(-9.68491e-07 -4.84854e-06 0.0143966)
(-1.12699e-06 -4.88888e-06 0.014414)
(-1.29525e-06 -4.79781e-06 0.0144217)
(-7.18641e-07 -4.10394e-06 0.0143252)
(-1.07157e-06 -4.25493e-06 0.0143665)
(-1.1115e-06 -4.42747e-06 0.0143897)
(-1.10641e-06 -4.4985e-06 0.0144001)
(-3.79501e-07 -3.10137e-06 0.0143961)
(-6.36629e-07 -3.21476e-06 0.0144192)
(-8.65324e-07 -3.26603e-06 0.014431)
(-1.10387e-06 -3.26226e-06 0.0144361)
(-4.12988e-07 -3.21473e-06 0.0143868)
(-7.14857e-07 -3.33186e-06 0.0144127)
(-8.75085e-07 -3.37117e-06 0.0144264)
(-1.04884e-06 -3.33408e-06 0.0144322)
(-4.24175e-07 -3.17487e-06 0.0143648)
(-7.66626e-07 -3.28179e-06 0.0143965)
(-8.58427e-07 -3.31468e-06 0.0144139)
(-9.43608e-07 -3.26594e-06 0.0144216)
(-5.72501e-07 -2.70739e-06 0.0143247)
(-8.23605e-07 -2.80127e-06 0.014366)
(-8.44108e-07 -2.92139e-06 0.0143892)
(-8.32372e-07 -2.97796e-06 0.0143996)
(-2.67538e-07 -2.04416e-06 0.0143964)
(-4.21665e-07 -2.12389e-06 0.0144195)
(-5.54856e-07 -2.16489e-06 0.0144314)
(-6.71914e-07 -2.17989e-06 0.0144364)
(-2.80548e-07 -2.09762e-06 0.0143869)
(-4.72101e-07 -2.17644e-06 0.0144128)
(-5.65477e-07 -2.20479e-06 0.0144265)
(-6.5261e-07 -2.18945e-06 0.0144324)
(-2.93441e-07 -2.04153e-06 0.0143647)
(-5.10681e-07 -2.11257e-06 0.0143964)
(-5.6089e-07 -2.13861e-06 0.0144138)
(-5.99386e-07 -2.11357e-06 0.0144215)
(-3.78755e-07 -1.7118e-06 0.0143244)
(-5.45078e-07 -1.76493e-06 0.0143656)
(-5.53761e-07 -1.84489e-06 0.0143888)
(-5.36525e-07 -1.88658e-06 0.0143993)
(-6.84155e-08 -1.15114e-06 0.0143966)
(-1.37811e-07 -1.19845e-06 0.0144197)
(-1.97524e-07 -1.22295e-06 0.0144315)
(-2.47785e-07 -1.2375e-06 0.0144365)
(-7.4022e-08 -1.17393e-06 0.014387)
(-1.67077e-07 -1.22175e-06 0.0144129)
(-2.07239e-07 -1.24058e-06 0.0144266)
(-2.42416e-07 -1.23837e-06 0.0144324)
(-8.44965e-08 -1.12795e-06 0.0143646)
(-1.92171e-07 -1.17084e-06 0.0143963)
(-2.0892e-07 -1.19032e-06 0.0144138)
(-2.19728e-07 -1.18222e-06 0.0144214)
(-1.30643e-07 -9.3058e-07 0.0143242)
(-2.12183e-07 -9.61138e-07 0.0143654)
(-2.08884e-07 -1.0104e-06 0.0143887)
(-1.91958e-07 -1.04045e-06 0.0143991)
(2.65069e-07 -3.21524e-07 0.0143966)
(2.82135e-07 -3.38621e-07 0.0144197)
(2.87557e-07 -3.47063e-07 0.0144316)
(2.80014e-07 -3.5428e-07 0.0144366)
(2.60653e-07 -3.21352e-07 0.0143869)
(2.69629e-07 -3.45232e-07 0.0144129)
(2.8199e-07 -3.58096e-07 0.0144266)
(2.82167e-07 -3.62367e-07 0.0144324)
(2.49616e-07 -2.97175e-07 0.0143645)
(2.54258e-07 -3.25019e-07 0.0143963)
(2.74806e-07 -3.43318e-07 0.0144137)
(2.82312e-07 -3.5119e-07 0.0144214)
(2.21516e-07 -2.26303e-07 0.014324)
(2.36294e-07 -2.53476e-07 0.0143653)
(2.63725e-07 -2.8703e-07 0.0143885)
(2.80604e-07 -3.12542e-07 0.014399)
(-0.0020729 0.00150213 0.0266769)
(-0.000610156 -0.000585623 0.00899243)
(-0.00212758 -0.000656847 0.0355245)
(0.000231976 -0.000318668 0.015296)
(-0.0018677 -0.00109161 0.0187095)
(-0.00192485 0.00124198 0.0183667)
(-0.000436147 0.000698217 0.0162724)
(0.000673479 0.00161134 0.0212207)
(-0.00103492 0.00156279 0.0188901)
(-0.000481782 0.00121182 0.0226361)
(-0.00167327 0.00256635 0.0204659)
(0.000996951 0.000409081 0.0182655)
(-0.00273227 0.000932294 0.0234254)
(0.000290839 -0.00103932 0.0155429)
(-0.00109357 0.000905215 0.024089)
(0.000328888 -0.00098816 0.019901)
(0.000517911 -0.000710173 0.0592855)
(-0.00359148 0.00123964 0.0389329)
(0.00228256 -0.000452391 0.0270367)
(0.000763409 0.000494282 0.00652782)
(0.000250477 0.0016095 0.034937)
(-0.000784543 0.000309783 0.00376808)
(0.001182 0.00317397 0.0177899)
(0.000945513 -0.00183263 0.021336)
(-0.00102774 0.000311413 0.0184125)
(-0.000617165 0.00208009 0.0491708)
(0.000137433 0.00174902 0.0345536)
(-0.000419765 -0.00251215 0.0247103)
(0.000750158 0.000271918 0.0386082)
(-0.00105429 0.000401958 0.0211529)
(-0.00074985 -0.00120783 0.0359292)
(0.00087622 -0.00023605 0.0190163)
(-0.000365777 0.00115937 0.0162661)
(0.00255828 0.00670738 0.0386851)
(0.00256538 0.000648135 0.0329299)
(0.00131483 0.00145087 0.0490675)
(0.000900926 0.00474057 0.0301203)
(0.00153035 0.00221456 0.0315112)
(0.000399124 0.00104376 0.0159044)
(-0.00199808 -0.00176036 0.0548953)
(9.92413e-05 0.00125486 0.03187)
(0.001655 -0.000934262 0.0268101)
(0.00210386 0.000234997 0.0447001)
(-0.00197098 0.00191336 0.0252347)
(6.75207e-05 -0.000169653 0.0363654)
(0.000676107 0.0007215 0.0433491)
(0.00280905 -0.000698366 0.0325442)
(-0.00166958 0.00197192 0.0264245)
(0.00053335 0.000131831 0.0202106)
(-0.000366274 -0.00124062 0.0269534)
(0.000335601 0.000111353 0.0145347)
(0.00175104 -0.00146681 0.0437058)
(0.00303326 -0.00492456 0.0340355)
(0.00235331 0.0017654 0.0517715)
(-0.00024302 -0.000521789 0.018118)
(0.0025375 0.00190825 0.0293464)
(0.00193039 5.41613e-05 0.0303511)
(0.00139307 0.00235257 0.040245)
(0.00510061 -0.00206924 0.053477)
(0.000647139 0.00159926 0.0197255)
(0.00203655 0.0012266 0.044601)
(-1.99478e-05 0.000652147 0.0164616)
(0.00217175 -0.00147874 0.035447)
(-0.000341483 -0.000446113 0.0480833)
(-0.000121571 -0.000397806 0.0657145)
(-0.00322643 -0.00402948 0.0236031)
(-0.00253997 0.000448741 0.0407639)
(0.00274895 0.00685496 0.0348727)
(0.00155452 -0.00263192 0.00990042)
(-0.000690597 -0.00280997 0.0217083)
(0.00474489 0.000269628 0.0258264)
(0.0019761 0.00292745 0.0156763)
(0.00327832 -0.00401517 0.0190033)
(0.00218567 0.000798417 0.0294989)
(0.00944349 -0.00153804 0.0445238)
(0.00477065 0.000658743 0.0489224)
(0.00239847 0.000835792 0.0341487)
(0.000591586 0.00145558 0.0569305)
(0.00198394 0.000196487 0.00927855)
(0.0016324 -0.000625858 0.0273846)
(0.00031691 -7.88222e-05 0.00216703)
(-0.00163943 -0.00043477 0.010048)
(0.00118641 0.00299966 0.0135004)
(-0.000184472 0.000666713 0.00452705)
(0.00193854 -0.00885376 0.0249399)
(0.00132858 -0.000788338 0.0237719)
(0.00197989 0.000896764 0.0110965)
(0.00260043 0.0265557 0.0304347)
(0.00130317 -0.00070645 0.0113554)
(2.08229e-05 0.00051351 0.0214211)
(0.013545 0.00188844 0.0246266)
(-6.18161e-05 5.95168e-05 0.00150813)
(0.00296382 -0.000403325 0.0260877)
(0.000731487 0.000773048 0.0114065)
(0.00110217 0.000805319 0.0136146)
(0.00291341 -0.0236941 0.0332356)
(0.000377771 0.00193488 0.00170453)
(0.00426024 0.00246388 0.0173966)
(0.000805197 0.000385526 0.0180543)
(0.000996533 -0.000406776 0.011232)
(-0.00054834 0.00554493 0.0109255)
(0.000611966 0.000842917 0.0118131)
(1.13412e-05 -0.000429358 0.0146006)
(-0.00160709 -0.0023299 0.00478114)
(0.000287441 0.000671022 0.012622)
(-0.000252277 -0.000328868 0.0165127)
(-0.00184302 -0.000125371 0.0176426)
(-0.000719511 -0.000289733 -0.154148)
(0.000336774 -0.000135409 0.0207013)
(0.00168559 -0.000814755 0.0293142)
(0.000130215 0.000945149 0.00819558)
(-0.000413416 0.00602451 0.012725)
(-0.000263235 0.000866232 0.0614605)
(0.000915117 0.000574181 0.030788)
(-0.000320868 -0.000325588 0.0255341)
(-0.00043046 -0.000617799 0.0242125)
(-0.00081027 0.00221249 0.0362526)
(-6.5702e-05 0.000326106 0.0251206)
(-0.000767593 -0.000299659 0.0264264)
(-0.00116421 -0.00175592 0.0339901)
(-0.000675888 0.000591735 0.025908)
(-0.000131175 -0.000596638 0.0286747)
(-0.00148526 5.39823e-05 0.0313743)
(-0.000779097 -0.00125269 0.0504527)
(-0.000549589 -0.000184143 0.0282226)
(0.000313857 -0.000379589 0.0324598)
(-0.000663865 0.000358116 0.0187745)
(-0.000648015 0.000107035 0.035202)
(0.000393945 -0.000310043 0.0113157)
(0.00198203 -0.000438641 0.00777527)
(0.000428372 -0.00154178 0.00664295)
(-1.29215e-05 -0.00266494 0.0064491)
(-0.000363472 0.00100781 0.00884406)
(0.00116834 -3.32538e-05 0.0071784)
(-0.00064156 -0.000903217 0.00752031)
(-0.00168079 -0.00259386 0.00882249)
(-0.000524487 0.000150522 0.00720338)
(0.000830595 -0.000513744 0.00765704)
(-0.00128868 0.000343614 0.00827715)
(-0.000807792 -0.000923732 0.011687)
(-0.000390362 -0.000396832 0.0071422)
(0.00131825 0.000162665 0.00851577)
(-0.0006625 0.000747962 0.00641091)
(-0.000595142 0.000119679 0.0108873)
(-2.46554e-05 -0.000295099 0.0180445)
(0.000506803 -0.000565717 0.0168403)
(1.36497e-05 -0.00101554 0.0162374)
(-6.22658e-05 -0.00145408 0.0162666)
(-0.000337628 2.30717e-05 0.0176342)
(0.000185432 -0.000413708 0.0169057)
(-0.000437995 -0.000745938 0.0168003)
(-0.000538176 -0.00146308 0.0177244)
(-0.000514572 -6.97407e-05 0.0171675)
(3.48785e-06 -0.000351581 0.0171402)
(-0.000794722 -8.38109e-05 0.017073)
(-0.000368798 -0.000703795 0.0188774)
(-0.000488883 -0.000255679 0.0170633)
(0.000121511 -6.25272e-05 0.0173319)
(-0.000698005 0.000135201 0.0161404)
(-0.000304134 -0.000113749 0.0185114)
(0.000125334 -0.000385908 0.014005)
(0.000310805 -0.000422119 0.0137788)
(6.31833e-05 -0.00054689 0.0136524)
(-8.84711e-07 -0.000710508 0.0137419)
(-4.93324e-06 -0.000244984 0.013902)
(0.000221468 -0.000318728 0.0138677)
(-9.49169e-05 -0.000421283 0.0139271)
(-0.000112888 -0.000716364 0.0143634)
(-9.07663e-05 -0.000232955 0.0137306)
(0.000166084 -0.000253308 0.0139287)
(-0.000235961 -0.000193041 0.0140129)
(-9.52778e-05 -0.000462616 0.0148341)
(-0.000147238 -0.00019425 0.0135587)
(0.000157948 -5.87169e-05 0.0138796)
(-0.000251602 -4.70414e-05 0.0136186)
(-7.81804e-05 -0.000150282 0.0147321)
(6.04141e-06 -0.000216844 0.0144942)
(7.46611e-05 -0.000254071 0.0144091)
(-5.27427e-06 -0.000298473 0.014346)
(-5.08217e-06 -0.000367496 0.0143911)
(-5.30237e-05 -0.00017066 0.014482)
(3.42376e-05 -0.000211356 0.0144579)
(-7.17224e-05 -0.000244882 0.0144407)
(-3.12218e-05 -0.000365137 0.0146142)
(-0.0001071 -0.000135819 0.0144188)
(-2.62389e-06 -0.000142084 0.0144624)
(-0.00014222 -0.00012216 0.0144373)
(-3.58663e-05 -0.000230817 0.0147637)
(-0.000131933 -0.000112588 0.0143357)
(-1.68101e-05 -5.1518e-05 0.0144164)
(-0.00016679 -4.29588e-05 0.0142835)
(-3.36266e-05 -7.47401e-05 0.0147286)
(7.72425e-06 -0.000137919 0.0143134)
(3.55e-05 -0.000147097 0.0143377)
(-1.18521e-06 -0.000158379 0.0143435)
(1.52967e-06 -0.000186158 0.0143837)
(-1.90932e-05 -0.000113132 0.0142711)
(1.99232e-05 -0.000125017 0.0143282)
(-2.75678e-05 -0.000134808 0.014355)
(-3.31336e-06 -0.000184897 0.0144505)
(-4.40452e-05 -9.50629e-05 0.0141947)
(3.63164e-06 -8.89739e-05 0.0142792)
(-5.82105e-05 -8.19688e-05 0.0143051)
(-6.57646e-06 -0.000126412 0.0144656)
(-6.16926e-05 -6.88861e-05 0.0140821)
(-8.25548e-06 -3.43443e-05 0.0141769)
(-7.34169e-05 -3.31371e-05 0.0141665)
(-6.47193e-06 -4.40307e-05 0.0143797)
(-1.38367e-06 -7.92705e-05 0.0142993)
(1.11235e-05 -8.26927e-05 0.014336)
(-2.0892e-06 -8.52777e-05 0.0143541)
(1.80819e-06 -9.65352e-05 0.0143798)
(-1.45244e-05 -6.49213e-05 0.0142484)
(4.05191e-06 -7.00997e-05 0.0142987)
(-1.30601e-05 -7.23201e-05 0.014325)
(1.61305e-06 -9.34036e-05 0.0143753)
(-2.77019e-05 -5.41032e-05 0.0141712)
(-4.71033e-06 -5.07054e-05 0.0142297)
(-2.67293e-05 -4.74396e-05 0.0142542)
(3.18862e-07 -6.5908e-05 0.0143319)
(-3.62918e-05 -3.85001e-05 0.0140657)
(-1.2086e-05 -2.14844e-05 0.0141219)
(-3.50539e-05 -1.96846e-05 0.0141308)
(3.74393e-07 -2.34273e-05 0.0142278)
(-3.09335e-06 -4.67462e-05 0.0142863)
(2.60248e-06 -4.74416e-05 0.0143311)
(-1.96757e-06 -4.79346e-05 0.0143563)
(8.82615e-07 -5.16703e-05 0.0143754)
(-9.37317e-06 -3.76774e-05 0.014227)
(-8.82199e-07 -3.97549e-05 0.0142779)
(-6.52225e-06 -3.9984e-05 0.014308)
(1.73588e-06 -4.83889e-05 0.0143394)
(-1.58394e-05 -3.16017e-05 0.0141443)
(-5.19015e-06 -2.92651e-05 0.0141966)
(-1.25955e-05 -2.68534e-05 0.0142256)
(1.43235e-06 -3.4412e-05 0.0142691)
(-1.98123e-05 -2.15217e-05 0.0140353)
(-8.74324e-06 -1.26516e-05 0.0140815)
(-1.63158e-05 -1.07766e-05 0.0141021)
(1.89329e-06 -1.21247e-05 0.0141527)
(-3.35591e-06 -2.83519e-05 0.0142797)
(-5.26579e-07 -2.81033e-05 0.0143268)
(-1.86935e-06 -2.80135e-05 0.0143548)
(-1.20124e-07 -2.88203e-05 0.0143707)
(-6.44676e-06 -2.21644e-05 0.0142163)
(-2.42495e-06 -2.29342e-05 0.0142655)
(-3.76187e-06 -2.29785e-05 0.0142975)
(7.68818e-07 -2.59678e-05 0.0143201)
(-9.66409e-06 -1.84992e-05 0.014131)
(-4.72595e-06 -1.70835e-05 0.014178)
(-6.47058e-06 -1.56588e-05 0.0142091)
(9.4799e-07 -1.83456e-05 0.0142371)
(-1.12464e-05 -1.21062e-05 0.0140208)
(-6.31998e-06 -7.50795e-06 0.0140595)
(-7.94193e-06 -6.01887e-06 0.014084)
(1.65868e-06 -6.32189e-06 0.0141137)
(-2.9526e-06 -1.77621e-05 0.0142752)
(-1.43797e-06 -1.72284e-05 0.0143231)
(-1.72362e-06 -1.69432e-05 0.0143522)
(-7.38241e-07 -1.68007e-05 0.0143669)
(-4.50554e-06 -1.34038e-05 0.0142096)
(-2.50351e-06 -1.36206e-05 0.0142577)
(-2.49662e-06 -1.36232e-05 0.0142904)
(-5.39895e-08 -1.45423e-05 0.0143092)
(-6.08516e-06 -1.1142e-05 0.0141227)
(-3.74857e-06 -1.02098e-05 0.0141669)
(-3.69332e-06 -9.35836e-06 0.0141988)
(2.55252e-07 -1.01285e-05 0.01422)
(-6.5456e-06 -6.9804e-06 0.0140116)
(-4.35301e-06 -4.48242e-06 0.0140465)
(-4.12537e-06 -3.43828e-06 0.0140726)
(9.96229e-07 -3.39666e-06 0.014093)
(-2.37679e-06 -1.14488e-05 0.0142723)
(-1.58678e-06 -1.0909e-05 0.0143205)
(-1.57229e-06 -1.05951e-05 0.0143498)
(-1.0036e-06 -1.0224e-05 0.014364)
(-3.1772e-06 -8.38306e-06 0.0142056)
(-2.15591e-06 -8.39269e-06 0.0142529)
(-1.85326e-06 -8.32995e-06 0.0142856)
(-5.15291e-07 -8.51755e-06 0.0143029)
(-3.98349e-06 -6.87914e-06 0.0141177)
(-2.83394e-06 -6.28589e-06 0.0141603)
(-2.36564e-06 -5.72925e-06 0.0141923)
(-2.22147e-07 -5.82593e-06 0.0142107)
(-3.95898e-06 -4.12227e-06 0.0140062)
(-2.98072e-06 -2.72891e-06 0.0140389)
(-2.35417e-06 -2.01889e-06 0.0140654)
(4.29722e-07 -1.90078e-06 0.014082)
(-1.85423e-06 -7.52525e-06 0.0142703)
(-1.40647e-06 -7.08291e-06 0.0143185)
(-1.34703e-06 -6.81596e-06 0.0143479)
(-1.02779e-06 -6.45218e-06 0.014362)
(-2.27488e-06 -5.34454e-06 0.0142029)
(-1.74124e-06 -5.32382e-06 0.0142498)
(-1.43556e-06 -5.24708e-06 0.0142824)
(-6.7885e-07 -5.19854e-06 0.0142991)
(-2.67637e-06 -4.38341e-06 0.0141146)
(-2.09916e-06 -3.98577e-06 0.0141563)
(-1.6425e-06 -3.5936e-06 0.0141881)
(-4.43344e-07 -3.48766e-06 0.0142054)
(-2.48243e-06 -2.52586e-06 0.0140028)
(-2.04345e-06 -1.70174e-06 0.0140344)
(-1.46848e-06 -1.22332e-06 0.0140608)
(8.18869e-08 -1.1102e-06 0.0140758)
(-1.40907e-06 -5.02006e-06 0.014269)
(-1.15056e-06 -4.66917e-06 0.014317)
(-1.09959e-06 -4.45075e-06 0.0143465)
(-9.03619e-07 -4.16196e-06 0.0143605)
(-1.6317e-06 -3.47414e-06 0.0142012)
(-1.33551e-06 -3.43644e-06 0.0142478)
(-1.11058e-06 -3.35654e-06 0.0142803)
(-6.7061e-07 -3.25763e-06 0.0142968)
(-1.83412e-06 -2.84525e-06 0.0141126)
(-1.52417e-06 -2.56799e-06 0.0141538)
(-1.17969e-06 -2.2913e-06 0.0141854)
(-4.88147e-07 -2.14642e-06 0.0142023)
(-1.60307e-06 -1.58503e-06 0.0140007)
(-1.40076e-06 -1.07465e-06 0.0140317)
(-9.75479e-07 -7.56738e-07 0.0140578)
(-8.95219e-08 -6.69317e-07 0.0140722)
(-1.02125e-06 -3.32681e-06 0.0142681)
(-8.67023e-07 -3.0605e-06 0.0143161)
(-8.35148e-07 -2.89755e-06 0.0143455)
(-7.10354e-07 -2.68517e-06 0.0143595)
(-1.14115e-06 -2.25083e-06 0.0142001)
(-9.68915e-07 -2.21113e-06 0.0142465)
(-8.18306e-07 -2.14301e-06 0.0142789)
(-5.53708e-07 -2.04866e-06 0.0142953)
(-1.24158e-06 -1.84076e-06 0.0141114)
(-1.06708e-06 -1.64425e-06 0.0141523)
(-8.31393e-07 -1.44942e-06 0.0141837)
(-4.23356e-07 -1.32482e-06 0.0142004)
(-1.03353e-06 -9.99292e-07 0.0139994)
(-9.35979e-07 -6.7193e-07 0.01403)
(-6.50142e-07 -4.64521e-07 0.014056)
(-1.34472e-07 -4.0456e-07 0.0140702)
(-6.63369e-07 -2.10377e-06 0.0142675)
(-5.64299e-07 -1.91604e-06 0.0143155)
(-5.46351e-07 -1.80486e-06 0.0143449)
(-4.67138e-07 -1.66508e-06 0.0143589)
(-7.3021e-07 -1.38614e-06 0.0141995)
(-6.22268e-07 -1.3543e-06 0.0142458)
(-5.27362e-07 -1.30842e-06 0.0142781)
(-3.68936e-07 -1.24228e-06 0.0142944)
(-7.79779e-07 -1.12823e-06 0.0141107)
(-6.72851e-07 -9.9987e-07 0.0141514)
(-5.22843e-07 -8.75896e-07 0.0141827)
(-2.84244e-07 -7.88851e-07 0.0141993)
(-6.24128e-07 -5.95225e-07 0.0139987)
(-5.68415e-07 -3.94407e-07 0.014029)
(-3.86202e-07 -2.69353e-07 0.0140549)
(-8.95349e-08 -2.34576e-07 0.014069)
(-2.94566e-07 -1.13852e-06 0.0142672)
(-2.23528e-07 -1.03348e-06 0.0143152)
(-2.07262e-07 -9.76212e-07 0.0143446)
(-1.59725e-07 -9.04228e-07 0.0143586)
(-3.35461e-07 -7.20408e-07 0.0141991)
(-2.60795e-07 -7.05562e-07 0.0142454)
(-1.99343e-07 -6.89157e-07 0.0142777)
(-1.10451e-07 -6.61052e-07 0.014294)
(-3.64181e-07 -5.74189e-07 0.0141103)
(-2.90346e-07 -5.05142e-07 0.0141509)
(-1.97754e-07 -4.47611e-07 0.0141822)
(-6.65966e-08 -4.10137e-07 0.0141987)
(-2.75703e-07 -2.72939e-07 0.0139983)
(-2.29637e-07 -1.69496e-07 0.0140285)
(-1.18105e-07 -1.15222e-07 0.0140543)
(4.25521e-08 -1.12821e-07 0.0140683)
(1.51935e-07 -2.83331e-07 0.014267)
(2.17595e-07 -2.69314e-07 0.014315)
(2.50377e-07 -2.74008e-07 0.0143444)
(2.78977e-07 -2.72433e-07 0.0143584)
(1.15262e-07 -1.29617e-07 0.0141989)
(1.83682e-07 -1.47083e-07 0.0142451)
(2.36567e-07 -1.70957e-07 0.0142774)
(2.82147e-07 -1.93025e-07 0.0142937)
(8.09402e-08 -6.82434e-08 0.01411)
(1.52011e-07 -6.55089e-08 0.0141506)
(2.20005e-07 -8.0305e-08 0.0141819)
(2.83884e-07 -1.08075e-07 0.0141984)
(8.9218e-08 4.54536e-08 0.013998)
(1.53363e-07 5.7455e-08 0.0140282)
(2.31358e-07 3.80422e-08 0.014054)
(3.08407e-07 -8.83147e-09 0.014068)
(0.00136211 0.00383412 0.0246992)
(-0.00183196 0.00304643 0.0380458)
(-0.000821578 3.47e-05 0.0153639)
(0.00225158 0.0012745 0.0234412)
(-2.15324e-05 0.00115425 0.0072694)
(-0.0010091 0.00348236 0.0258865)
(2.88758e-05 0.00355229 0.0167891)
(0.00173614 0.00450289 0.0204492)
(-0.00248109 0.00364015 0.0251698)
(-0.00589282 0.00497573 0.0251607)
(-0.000821788 0.00277526 0.0119774)
(-0.00145978 0.00329645 0.0285604)
(-0.00111571 -0.0014627 0.0175556)
(-1.33422e-05 -0.000179566 0.00718465)
(-8.60416e-05 0.0017263 0.0331414)
(-0.000844668 0.000919884 0.0142039)
(7.78967e-05 0.00107647 0.0149498)
(-0.000678579 0.00171146 0.0127271)
(-0.00089545 0.000914006 0.004133)
(-0.000396989 0.00016793 0.00702411)
(-0.000832303 0.000676087 0.0419869)
(-0.0016545 -0.00047766 0.0143113)
(-0.00396842 0.000155225 0.0276481)
(-0.00159249 -2.82468e-05 0.026352)