/*--------------------------------*- C++ -*----------------------------------*\
| =========                 |                                                 |
| \\      /  F ield         | OpenFOAM: The Open Source CFD Toolbox           |
|  \\    /   O peration     | Version:  2506                                  |
|   \\  /    A nd           | Website:  www.openfoam.com                      |
|    \\/     M anipulation  |                                                 |
\*---------------------------------------------------------------------------*/
FoamFile
{
    version     2.0;
    format      ascii;
    arch        "LSB;label=32;scalar=64";
    class       volVectorField;
    location    "0.07";
    object      U;
}
// * * * * * * * * * * * * * * * * * * * * * * * * * * * * * * * * * * * * * //

dimensions      [0 1 -1 0 0 0 0];

internalField   nonuniform List<vector> 
1152
(
(0.00149052 0.000461534 0.0191816)
(0.00030045 -0.000842123 0.00458632)
(0.0030662 -0.00156791 0.0156385)
(0.00277889 0.000414715 0.0101554)
(0.000765122 0.00154424 0.0317459)
(-8.07484e-05 0.000774857 0.0197374)
(0.00136104 -0.000354969 0.0166022)
(0.000470056 -0.000304604 0.00135498)
(-0.00112947 0.000357587 0.0120574)
(0.000214252 0.00066722 0.0211173)
(0.00214998 0.000506261 0.0204127)
(0.00164938 -0.00108987 0.0376169)
(-0.000327989 0.00265062 0.0192727)
(-0.000725894 0.000442592 0.0190155)
(-2.73711e-05 0.000983858 0.017792)
(0.00218033 -0.00433058 0.0220165)
(0.000847512 0.000413817 0.0240516)
(0.00164748 0.00148344 0.0291895)
(0.00644796 0.00120507 0.0281867)
(-0.000521274 -8.60705e-05 0.00216269)
(0.00115945 -0.00137161 0.0165177)
(0.00166982 -0.00205619 0.0317451)
(0.00489922 -0.00116396 0.0270677)
(-0.000634315 -0.00747673 0.0293961)
(0.000553903 0.000979685 0.0289578)
(0.000720686 -0.00143303 0.0205188)
(0.000148022 -0.000797709 0.00586816)
(0.00352443 -0.00682469 0.0312621)
(-0.000826403 0.000787463 0.0198664)
(-0.00277842 0.00214523 0.0362052)
(-0.000154932 -0.00355813 0.0247795)
(0.00266308 0.00146071 0.0158465)
(-0.0040563 -0.0003923 0.0452617)
(-4.22168e-05 -0.000341061 0.00718096)
(-0.00388149 -0.00273028 0.0294106)
(0.00102254 -0.0185091 0.051322)
(0.000884465 -0.00456364 0.0583901)
(-0.00135979 0.000505652 0.0323246)
(-0.0013184 0.00117658 0.0165252)
(-0.00041612 0.0066385 0.0458193)
(-0.00143192 -0.000897428 0.01437)
(0.001308 -0.00121937 0.031697)
(-0.00133073 0.00249516 0.0465398)
(-0.00213593 0.000352241 0.0274949)
(-0.00303962 -0.00274028 0.0642645)
(-8.58186e-05 -0.000599699 0.0124742)
(0.000735414 -0.000459665 0.0332277)
(0.000126 0.00110721 0.0159177)
(0.00406527 -0.00355396 0.0347082)
(-0.00040579 -0.000450592 0.00418341)
(-0.00320744 -0.000249849 0.021347)
(0.000700778 -0.00740154 0.0548558)
(-1.33288e-05 0.000304925 0.0299415)
(0.00167671 -0.00616377 0.0400534)
(-0.00127076 -0.000771486 0.0135365)
(-0.00185659 0.000303093 0.0364697)
(-0.000266324 -0.000345378 0.00820312)
(-0.000872258 -0.00011591 0.0269539)
(0.000727517 0.000427608 0.0255017)
(0.00048391 0.0019877 0.0331357)
(0.000714537 0.00232606 0.0246733)
(0.00157676 -2.3283e-05 0.0293896)
(-0.000688534 0.00256099 0.0300062)
(-0.000128208 -0.000414814 0.00821275)
(-0.0005781 -0.000470645 0.00597157)
(-0.00462 0.00167506 0.0267796)
(0.000651777 0.00275156 0.0326997)
(0.00424823 0.0228954 0.0679596)
(-0.00108517 -0.00151861 0.0379928)
(-0.00113506 0.00261471 0.0259566)
(-0.000443102 0.00239999 0.0260163)
(0.000676887 0.000225729 0.0170355)
(0.000363607 0.00191255 0.0203902)
(-0.000689936 0.00188475 0.0264607)
(-0.00111386 0.000553552 0.0203086)
(-0.00402312 0.00225909 0.0590974)
(0.00235433 0.00368048 0.0422103)
(-0.00182588 0.000604379 0.0256572)
(-0.00228318 0.000373055 0.0381758)
(4.30532e-05 0.000153117 0.00463598)
(-0.00537557 0.000275156 0.0341146)
(8.052e-05 0.000153229 0.0182564)
(0.00361503 0.00037161 0.015395)
(-5.72818e-05 2.40964e-05 0.00322193)
(-0.00197701 0.00126148 0.0184918)
(-0.00265178 0.000568016 0.025521)
(-0.000191388 -0.000444824 0.0098521)
(-0.00100206 -0.0088095 0.026254)
(-0.000736496 -0.000385804 0.0152223)
(-0.00232039 0.000471434 0.0160612)
(-0.00263487 -0.000218686 0.0347072)
(0.000651837 0.00171138 0.0115366)
(-0.00614809 -0.0103965 0.035732)
(-0.00206135 0.00233026 0.0245334)
(0.00283758 0.00261942 0.0203285)
(0.000258118 0.000325708 0.00300651)
(0.000298862 0.000758374 0.0136774)
(8.493e-05 0.000566849 0.0167436)
(-0.00141046 0.000809049 0.0188766)
(0.000707615 0.00204891 -0.00365696)
(-0.000394878 0.000540474 0.022759)
(0.000353845 0.000619872 0.0161374)
(0.000140363 0.00066241 0.0119534)
(-0.000242934 0.00104399 0.0125803)
(-6.3994e-05 0.000732722 0.0173549)
(-8.1762e-06 0.00057798 0.0173441)
(-0.000105651 0.000430283 0.0119525)
(-3.73471e-05 0.000520774 0.0237592)
(-0.000173897 0.000722578 0.0295271)
(-0.000703925 0.000414454 0.0140662)
(-8.62745e-05 0.000523013 0.0124161)
(0.000388806 0.00057846 0.00438172)
(0.00134064 0.000858842 0.0254023)
(0.000702406 0.000656519 0.0228017)
(-0.00139765 0.000632944 0.0297897)
(-3.12378e-05 0.000753791 0.0776006)
(0.000434928 0.00112724 0.0271781)
(0.000790203 0.000964868 0.0231264)
(0.000170576 0.000618266 0.0173352)
(-0.000217653 0.00196438 0.0302124)
(0.000101117 0.00111467 0.0267953)
(5.66465e-05 0.000934594 0.0241509)
(-0.000437062 0.000189039 0.0222914)
(-0.000187731 -0.000175899 0.0283534)
(-0.000197731 -0.000344416 0.0393243)
(-0.00045776 0.000398354 0.0236971)
(-0.0011008 0.00013284 0.0176387)
(-0.00103719 8.67488e-05 0.01347)
(0.000500906 0.000528877 0.00728538)
(-0.000290206 0.000353001 0.006165)
(-0.003808 0.00015861 0.00704629)
(0.000339318 0.000609347 0.01374)
(7.33907e-05 3.86676e-05 0.00695317)
(0.000702911 0.000494349 0.00586547)
(-0.00147284 0.00124902 0.00511256)
(-0.00107024 0.00386152 0.0074777)
(0.000565936 -0.00121734 0.00725228)
(0.000798469 -0.000110632 0.00607928)
(-0.000528051 0.000306186 0.00543566)
(-4.54823e-05 0.00205663 0.00639826)
(0.000921003 -0.0023266 0.00921937)
(0.00198259 -0.00100267 0.00623298)
(0.000572006 -0.000609353 0.0048044)
(0.000174932 3.2346e-05 0.00433443)
(0.00041428 0.000314377 0.0163524)
(0.00012269 0.000288278 0.0160997)
(-0.00116236 0.000216439 0.0165908)
(-5.99842e-06 0.000367574 0.0195312)
(0.000212741 0.000136286 0.0160975)
(0.000372767 0.000288477 0.015703)
(-0.000537123 0.000534584 0.0154449)
(-0.000456928 0.00134953 0.0170019)
(0.000330486 -0.000374695 0.0164818)
(0.000441114 -6.10522e-05 0.015877)
(-0.000168251 9.7737e-05 0.0155439)
(-8.07557e-05 0.000738295 0.0161167)
(0.000226148 -0.000597683 0.0173478)
(0.000721844 -0.000439884 0.0159838)
(0.00018154 -0.000422152 0.0151691)
(9.89492e-06 -0.000227641 0.0150324)
(0.000181577 9.79273e-05 0.0138434)
(9.1982e-05 0.000128851 0.0137215)
(-0.000339498 0.000117575 0.0138191)
(-4.55561e-05 0.000166026 0.0147002)
(0.000131696 -1.10503e-05 0.0136471)
(0.000160573 8.11776e-05 0.0134897)
(-0.000189178 0.000179114 0.0133944)
(-0.000176295 0.000426238 0.013936)
(0.000232259 -0.000285192 0.0137455)
(0.000244292 -0.000136381 0.0135143)
(-3.07118e-05 -3.39134e-05 0.0133792)
(-4.444e-05 0.000203578 0.0136013)
(0.000240678 -0.000415732 0.0139051)
(0.000356418 -0.000331031 0.0135243)
(0.00010727 -0.000289387 0.0132701)
(8.81282e-06 -0.000210946 0.0132817)
(9.81506e-05 5.32428e-05 0.0144325)
(5.98755e-05 7.11833e-05 0.0144053)
(-9.29756e-05 7.09145e-05 0.0144276)
(-3.1674e-05 8.54912e-05 0.0147001)
(6.63872e-05 7.79414e-06 0.0143467)
(6.87469e-05 3.59245e-05 0.0143024)
(-6.33516e-05 6.58551e-05 0.0142777)
(-6.91664e-05 0.000138418 0.01447)
(0.000101664 -0.000105247 0.0144024)
(0.000101822 -7.04103e-05 0.0143164)
(-6.83572e-06 -3.70526e-05 0.0142633)
(-2.24276e-05 4.04981e-05 0.0143514)
(6.18434e-05 -0.000151897 0.014471)
(0.000112905 -0.00016022 0.0143397)
(2.77815e-05 -0.000159177 0.0142455)
(1.37466e-06 -0.000142979 0.0142625)
(5.41843e-05 2.55784e-05 0.0144478)
(3.60961e-05 3.36815e-05 0.014449)
(-1.96029e-05 3.48699e-05 0.014456)
(-1.33268e-05 4.01659e-05 0.0145443)
(3.70416e-05 -1.66344e-06 0.0143975)
(3.40046e-05 7.52901e-06 0.0143982)
(-1.40438e-05 1.79703e-05 0.0143978)
(-2.20087e-05 4.03555e-05 0.0144683)
(5.55451e-05 -5.86033e-05 0.0144005)
(5.02283e-05 -4.5535e-05 0.0143909)
(7.10068e-06 -3.17482e-05 0.0143827)
(-4.79738e-06 -7.12166e-06 0.0144219)
(3.89197e-05 -8.88534e-05 0.0143888)
(5.12075e-05 -9.02165e-05 0.0143832)
(1.63361e-05 -8.82871e-05 0.0143711)
(6.81151e-06 -8.58784e-05 0.0143931)
(2.9563e-05 1.24643e-05 0.0144654)
(2.07973e-05 1.52143e-05 0.0144765)
(8.38232e-07 1.5728e-05 0.0144833)
(-2.074e-06 1.66356e-05 0.0145133)
(2.03179e-05 -2.34554e-06 0.0144379)
(1.78514e-05 -4.88359e-07 0.0144526)
(1.10932e-06 2.88208e-06 0.0144598)
(-4.20298e-06 9.13643e-06 0.0144862)
(2.77741e-05 -2.94773e-05 0.0144286)
(2.4414e-05 -2.6129e-05 0.0144416)
(8.46225e-06 -2.13557e-05 0.0144473)
(2.49578e-06 -1.4167e-05 0.0144648)
(1.79765e-05 -4.4406e-05 0.0144037)
(2.22688e-05 -4.69664e-05 0.0144255)
(1.00923e-05 -4.69061e-05 0.0144339)
(7.85487e-06 -4.78379e-05 0.0144489)
(1.66137e-05 5.72969e-06 0.0144775)
(1.26494e-05 6.42194e-06 0.0144942)
(5.33098e-06 6.44436e-06 0.014503)
(2.29033e-06 6.36598e-06 0.0145143)
(1.1873e-05 -2.20486e-06 0.0144598)
(1.06923e-05 -2.33145e-06 0.0144804)
(4.79328e-06 -1.4513e-06 0.014491)
(1.75016e-06 2.49663e-07 0.0145024)
(1.48048e-05 -1.52749e-05 0.0144435)
(1.30406e-05 -1.48499e-05 0.014467)
(7.32181e-06 -1.3433e-05 0.0144792)
(4.57465e-06 -1.12831e-05 0.0144892)
(9.82318e-06 -2.28696e-05 0.0144103)
(1.11498e-05 -2.43839e-05 0.014444)
(7.31124e-06 -2.49426e-05 0.0144612)
(7.05192e-06 -2.59118e-05 0.0144728)
(9.70944e-06 2.38805e-06 0.014484)
(8.01688e-06 2.39744e-06 0.0145036)
(5.2133e-06 2.28879e-06 0.0145134)
(3.29276e-06 2.14828e-06 0.0145194)
(7.26777e-06 -1.76873e-06 0.0144706)
(6.86272e-06 -2.33762e-06 0.0144937)
(4.80892e-06 -2.20332e-06 0.0145056)
(3.21474e-06 -1.71867e-06 0.0145123)
(8.31819e-06 -7.95146e-06 0.014451)
(7.5632e-06 -8.33962e-06 0.0144788)
(5.67646e-06 -8.07132e-06 0.0144936)
(4.46274e-06 -7.42788e-06 0.0145011)
(5.72062e-06 -1.17807e-05 0.0144138)
(6.239e-06 -1.26305e-05 0.0144519)
(5.36543e-06 -1.3267e-05 0.0144724)
(5.56661e-06 -1.38929e-05 0.0144825)
(5.85234e-06 9.06251e-07 0.014487)
(5.21033e-06 7.04396e-07 0.0145082)
(4.14852e-06 5.96139e-07 0.0145186)
(3.07894e-06 5.11655e-07 0.0145232)
(4.62522e-06 -1.23566e-06 0.0144755)
(4.5369e-06 -1.77762e-06 0.0144999)
(3.90156e-06 -1.85103e-06 0.0145123)
(3.09304e-06 -1.72766e-06 0.0145178)
(5.00758e-06 -4.32188e-06 0.0144542)
(4.65116e-06 -4.66575e-06 0.014484)
(4.16767e-06 -4.75017e-06 0.0144999)
(3.6496e-06 -4.56498e-06 0.0145068)
(3.63895e-06 -6.18771e-06 0.0144151)
(3.944e-06 -6.59684e-06 0.0144549)
(3.89293e-06 -7.08495e-06 0.0144766)
(4.14652e-06 -7.46127e-06 0.0144863)
(3.61888e-06 2.67593e-07 0.0144885)
(3.4291e-06 9.71439e-08 0.0145105)
(3.05093e-06 -3.92424e-09 0.0145213)
(2.51058e-06 -5.29167e-08 0.0145257)
(3.03325e-06 -8.72303e-07 0.0144777)
(3.0862e-06 -1.20079e-06 0.0145028)
(2.9044e-06 -1.30492e-06 0.0145156)
(2.53208e-06 -1.28235e-06 0.0145208)
(3.12236e-06 -2.34069e-06 0.0144555)
(3.05602e-06 -2.61084e-06 0.0144863)
(2.9724e-06 -2.73602e-06 0.0145027)
(2.77824e-06 -2.69365e-06 0.0145097)
(2.44288e-06 -3.141e-06 0.0144155)
(2.65732e-06 -3.41459e-06 0.014456)
(2.79969e-06 -3.76722e-06 0.0144783)
(2.99056e-06 -4.00517e-06 0.014488)
(2.29602e-06 3.1148e-08 0.0144892)
(2.28495e-06 -8.13495e-08 0.0145116)
(2.16458e-06 -1.52675e-07 0.0145228)
(1.91046e-06 -1.77195e-07 0.0145271)
(2.03053e-06 -5.61559e-07 0.0144787)
(2.1116e-06 -7.59026e-07 0.0145041)
(2.08822e-06 -8.39816e-07 0.0145171)
(1.93091e-06 -8.40535e-07 0.0145224)
(2.02668e-06 -1.25453e-06 0.0144561)
(2.05524e-06 -1.43844e-06 0.0144872)
(2.09401e-06 -1.54029e-06 0.014504)
(2.04129e-06 -1.54544e-06 0.0145111)
(1.70133e-06 -1.56995e-06 0.0144155)
(1.83911e-06 -1.73948e-06 0.0144563)
(1.98932e-06 -1.97303e-06 0.0144789)
(2.11877e-06 -2.14124e-06 0.0144887)
(1.48244e-06 -2.73442e-08 0.0144894)
(1.5383e-06 -9.90294e-08 0.0145122)
(1.5262e-06 -1.47138e-07 0.0145236)
(1.41056e-06 -1.59411e-07 0.014528)
(1.37241e-06 -3.21654e-07 0.0144791)
(1.44862e-06 -4.39707e-07 0.0145047)
(1.48043e-06 -5.01208e-07 0.0145179)
(1.41974e-06 -5.15535e-07 0.0145233)
(1.35365e-06 -6.48318e-07 0.0144563)
(1.39539e-06 -7.69043e-07 0.0144876)
(1.46174e-06 -8.4691e-07 0.0145046)
(1.46353e-06 -8.71396e-07 0.0145118)
(1.1859e-06 -7.46348e-07 0.0144154)
(1.27636e-06 -8.55984e-07 0.0144563)
(1.39459e-06 -1.01856e-06 0.0144791)
(1.48175e-06 -1.14245e-06 0.014489)
(9.81949e-07 -2.38162e-08 0.0144896)
(1.05195e-06 -7.03392e-08 0.0145125)
(1.07715e-06 -1.07712e-07 0.014524)
(1.0348e-06 -1.24331e-07 0.0145285)
(9.35021e-07 -1.57098e-07 0.0144793)
(1.00092e-06 -2.30337e-07 0.014505)
(1.04196e-06 -2.79652e-07 0.0145183)
(1.02309e-06 -3.02914e-07 0.0145238)
(9.20064e-07 -3.11453e-07 0.0144563)
(9.55749e-07 -3.95865e-07 0.0144878)
(1.01414e-06 -4.54906e-07 0.0145049)
(1.03054e-06 -4.84543e-07 0.0145121)
(8.23959e-07 -3.18993e-07 0.0144152)
(8.8359e-07 -3.97267e-07 0.0144563)
(9.70018e-07 -5.13681e-07 0.0144792)
(1.02496e-06 -6.07092e-07 0.0144892)
(6.69185e-07 -3.44738e-09 0.0144896)
(7.31502e-07 -3.60545e-08 0.0145126)
(7.60435e-07 -6.57243e-08 0.0145242)
(7.58738e-07 -8.89204e-08 0.0145288)
(6.46242e-07 -5.76456e-08 0.0144793)
(6.99544e-07 -1.07838e-07 0.0145051)
(7.34132e-07 -1.4368e-07 0.0145185)
(7.34557e-07 -1.65593e-07 0.014524)
(6.30239e-07 -1.26842e-07 0.0144562)
(6.63609e-07 -1.86791e-07 0.0144878)
(7.09979e-07 -2.32589e-07 0.014505)
(7.25345e-07 -2.57955e-07 0.0145123)
(5.78135e-07 -1.10864e-07 0.0144151)
(6.14799e-07 -1.63182e-07 0.0144562)
(6.76771e-07 -2.45986e-07 0.0144791)
(7.11579e-07 -3.13486e-07 0.0144892)
(4.84786e-07 1.96965e-08 0.0144896)
(5.37681e-07 -2.59902e-09 0.0145126)
(5.64059e-07 -2.07125e-08 0.0145242)
(5.77187e-07 -3.9964e-08 0.0145289)
(4.71081e-07 1.53547e-09 0.0144793)
(5.17808e-07 -3.33109e-08 0.0145051)
(5.47837e-07 -5.62934e-08 0.0145186)
(5.57108e-07 -7.17331e-08 0.0145241)
(4.56866e-07 -2.54961e-08 0.0144562)
(4.92188e-07 -6.48901e-08 0.0144878)
(5.3108e-07 -9.68888e-08 0.014505)
(5.44924e-07 -1.15551e-07 0.0145123)
(4.31521e-07 -1.16907e-08 0.014415)
(4.62004e-07 -4.28953e-08 0.0144561)
(5.07582e-07 -9.68424e-08 0.0144791)
(5.29177e-07 -1.41776e-07 0.0144892)
(4.47518e-07 6.03256e-08 0.0144895)
(5.03469e-07 5.13849e-08 0.0145126)
(5.34645e-07 4.45732e-08 0.0145242)
(5.47449e-07 3.61647e-08 0.0145289)
(4.40489e-07 6.22802e-08 0.0144792)
(4.938e-07 4.24145e-08 0.0145051)
(5.27465e-07 2.81389e-08 0.0145186)
(5.41332e-07 1.89477e-08 0.0145241)
(4.28907e-07 6.13328e-08 0.0144561)
(4.78345e-07 3.49625e-08 0.0144877)
(5.15704e-07 1.27349e-08 0.014505)
(5.30464e-07 -3.65526e-09 0.0145124)
(4.10559e-07 7.41518e-08 0.0144149)
(4.57652e-07 4.528e-08 0.014456)
(4.97124e-07 9.51107e-09 0.0144791)
(5.14636e-07 -2.11936e-08 0.0144892)
(-0.00141603 0.00117301 0.0262946)
(-0.000287053 -0.000788562 0.00892601)
(-0.00056964 -0.00198048 0.0345702)
(0.000593905 -0.00105635 0.0151521)
(-0.00146413 -0.00130605 0.018417)
(-0.00151566 0.000974194 0.0182498)
(-9.48659e-05 0.000221279 0.0159875)
(0.000978267 0.00107682 0.021307)
(-0.000727867 0.00151522 0.0186002)
(-0.000215429 0.00125178 0.0222142)
(-0.00137366 0.00224736 0.0202222)
(0.00126311 -4.3682e-06 0.0183483)
(-0.00238839 0.00110021 0.0232025)
(0.000421698 -0.000960414 0.0150851)
(-0.000841059 0.000911423 0.0236287)
(0.000692167 -0.00107888 0.0198483)
(0.00123011 -0.00125076 0.0578686)
(-0.00288769 0.000678624 0.0378127)
(0.00282912 -0.0008906 0.0269979)
(0.000871851 0.000284524 0.00638739)
(0.000582057 0.00131556 0.0356629)
(-0.000731417 0.000275748 0.0037161)
(0.001418 0.00292582 0.0174727)
(0.00111791 -0.00208281 0.0204699)
(-0.000904168 0.000101262 0.0185562)
(-5.68073e-05 0.00144153 0.0497583)
(0.00056942 0.00156927 0.0342087)
(3.72545e-05 -0.00251165 0.0246518)
(0.000456003 9.83804e-06 0.03827)
(-0.000755057 0.000321409 0.0226326)
(-0.000249019 -0.00116624 0.0359862)
(0.00101858 -0.000250795 0.0190617)
(-0.000514093 0.00107532 0.015437)
(0.00276945 0.00675988 0.0375397)
(0.00278733 0.000971632 0.0320605)
(0.00171393 0.00217158 0.0483387)
(0.000684301 0.00458887 0.0292686)
(0.00198896 0.00178739 0.0307864)
(0.000891885 0.00125738 0.0161089)
(-0.00109666 -0.00116761 0.0535964)
(-0.000199967 0.00122207 0.0307885)
(0.00183807 -0.00109697 0.0255144)
(0.00302123 0.000243546 0.043708)
(-0.00125921 0.0020934 0.0253931)
(-0.000227546 -0.000333597 0.0355935)
(0.000852671 0.000800315 0.0406827)
(0.00304381 -0.000802119 0.032041)
(-0.00125349 0.00195849 0.0259029)
(0.000574186 0.000499163 0.0190696)
(-3.04248e-05 -0.000789751 0.0260513)
(0.000266398 -0.000176397 0.0145781)
(0.00237868 -0.000635038 0.0419179)
(0.00317961 -0.00431141 0.0330166)
(0.0027708 0.0022978 0.0508041)
(6.69614e-05 -0.000366585 0.0175068)
(0.00322184 0.00230132 0.0285858)
(0.00208629 0.000398405 0.0307498)
(0.00147469 0.00290036 0.0389955)
(0.00575691 -0.00160437 0.0529062)
(0.0021397 0.00177767 0.0189775)
(0.00243472 0.00152998 0.0444591)
(-4.24515e-05 0.000754218 0.016274)
(0.00256731 -0.00119047 0.0341941)
(0.00152634 -0.000300056 0.0476183)
(0.000601918 -0.00114874 0.0552615)
(-0.00159356 -0.00313655 0.0235165)
(-0.00162365 0.000860023 0.0403491)
(0.00270842 0.00643819 0.0341967)
(0.00139075 -0.00173512 0.0101054)
(6.65313e-05 -0.0012709 0.021626)
(0.00445384 0.000531182 0.0254776)
(0.00216498 0.00202926 0.0152272)
(0.0027604 -0.00275136 0.0189298)
(0.00231679 0.00147957 0.0290893)
(0.006744 -0.00131242 0.0436933)
(0.00735115 0.00180866 0.0411752)
(0.0024196 0.00117553 0.0335136)
(0.000998056 0.0019577 0.0561767)
(0.00196903 0.00023362 0.00924679)
(0.00269546 0.00161662 0.0260395)
(0.000135958 -0.00011122 0.00234663)
(0.00207526 0.0015538 0.0107918)
(0.000662305 0.00294264 0.0143699)
(-0.000400295 0.000385377 0.00466265)
(-0.002544 0.00885351 0.0284031)
(0.00280603 0.000189915 0.0247626)
(0.00121343 0.000898676 0.011961)
(-0.00533917 0.00865814 0.0361622)
(0.000510952 0.000615872 0.0120403)
(0.000157527 0.00164151 0.021912)
(0.00500875 0.0010664 0.0282278)
(9.07799e-06 8.24273e-05 0.00158959)
(0.00232935 0.000406248 0.0265617)
(0.000787198 0.00094955 0.0113995)
(0.000659149 0.000794267 0.0143447)
(0.00167153 -0.00615437 0.0393294)
(0.000386434 0.00058832 0.0101191)
(0.000165354 0.000204102 0.0192489)
(-2.47923e-08 2.02136e-05 0.0194756)
(0.00155066 -0.000876176 0.0139549)
(0.000653812 0.000268289 0.0171119)
(-0.00019349 -3.71524e-05 0.0136786)
(-0.00067004 -0.000842745 0.0178752)
(0.000227137 -0.00398826 0.0189517)
(0.000610637 -0.000450368 0.0151009)
(-0.000568034 -0.000805032 0.0176345)
(-0.00273578 -0.000344531 0.0241206)
(-0.00129408 -0.00143804 -0.0781165)
(0.000371246 -0.000361535 0.0219611)
(0.00128996 -0.00104862 0.0300035)
(-0.000516807 0.000763039 0.00997039)
(-0.00125843 0.00756893 0.0271501)
(-0.000411489 0.000808547 0.0525238)
(7.4134e-05 0.000252829 0.0298283)
(-0.000745737 -0.000184044 0.0260478)
(-0.000536331 0.00031379 0.0250355)
(-0.000663568 0.00119264 0.0340836)
(-0.000365255 -0.000206099 0.0250844)
(-0.000516879 -1.07162e-06 0.0277828)
(-0.00110357 0.00136413 0.0372392)
(-0.000486637 -8.5076e-05 0.0256481)
(-1.53547e-05 -0.000973489 0.0291326)
(0.000708432 0.000152954 0.0335051)
(-0.000864791 -0.00152616 0.056009)
(-0.00054891 -0.000419167 0.0283644)
(0.000236809 -0.000569031 0.0330104)
(-0.00042695 3.64392e-05 0.0204416)
(-0.000693807 -0.00242994 0.0394747)
(0.00037542 -0.000165681 0.0106795)
(0.0019846 -0.000324721 0.00754066)
(0.000389754 -0.00139799 0.00665663)
(-5.14144e-05 -0.00242343 0.00650202)
(-0.000396303 0.00115635 0.00847209)
(0.00115781 -1.06348e-05 0.00705226)
(-0.000613728 -0.00080546 0.00749901)
(-0.00179879 -0.00224218 0.00856677)
(-0.000527494 0.000172512 0.00706016)
(0.000862685 -0.000553839 0.00767251)
(-0.00106659 0.000357044 0.00818112)
(-0.000932221 -0.000933228 0.00968953)
(-0.000406007 -0.000399879 0.0071104)
(0.00131976 0.00012362 0.0086234)
(-0.000607795 0.000707479 0.00653287)
(-0.000711677 -0.000109922 0.0108689)
(-1.49121e-05 -0.000191309 0.0180514)
(0.000504663 -0.000479645 0.0168129)
(-1.47342e-06 -0.000922063 0.0162269)
(-8.16147e-05 -0.0013545 0.016257)
(-0.000335658 0.000105815 0.0175917)
(0.000187231 -0.000360668 0.016874)
(-0.000444151 -0.000685714 0.0167691)
(-0.000585359 -0.00138877 0.0176648)
(-0.000510232 -2.05357e-05 0.0171246)
(1.22273e-05 -0.000324701 0.0171239)
(-0.000779927 -5.80701e-05 0.017029)
(-0.000423823 -0.000677425 0.018658)
(-0.000481455 -0.000235437 0.017034)
(0.00012963 -5.51708e-05 0.0173476)
(-0.000690652 0.000137001 0.0161372)
(-0.000355209 -0.000123255 0.0184796)
(0.000139195 -0.000314158 0.0140269)
(0.000313614 -0.000359678 0.0137954)
(5.9142e-05 -0.000485974 0.0136748)
(-5.96544e-06 -0.000651354 0.0137694)
(5.97207e-06 -0.000189695 0.0139117)
(0.000226866 -0.000275131 0.0138769)
(-9.76341e-05 -0.000379784 0.0139363)
(-0.000128611 -0.000676995 0.0143772)
(-7.87584e-05 -0.00019379 0.0137335)
(0.00017438 -0.000224704 0.0139349)
(-0.000234686 -0.00016974 0.0140151)
(-0.000113736 -0.000441408 0.0148297)
(-0.000133358 -0.000174614 0.0135655)
(0.000168566 -4.65414e-05 0.0138921)
(-0.000249074 -4.05403e-05 0.0136273)
(-9.6116e-05 -0.000145867 0.0147425)
(1.79802e-05 -0.000166706 0.0145413)
(7.911e-05 -0.000210428 0.0144536)
(-2.20126e-06 -0.000257573 0.0143936)
(-7.20086e-07 -0.000328016 0.0144425)
(-4.12389e-05 -0.000133274 0.0145227)
(4.02111e-05 -0.000178927 0.0144958)
(-6.92323e-05 -0.000215503 0.0144792)
(-3.17658e-05 -0.000338767 0.0146575)
(-9.46104e-05 -0.000107649 0.014455)
(5.46229e-06 -0.000119739 0.0144959)
(-0.000139014 -0.000104134 0.0144703)
(-3.84255e-05 -0.000215247 0.0148009)
(-0.000119239 -9.73391e-05 0.0143741)
(-7.09626e-06 -4.15008e-05 0.0144516)
(-0.000162794 -3.70249e-05 0.0143176)
(-3.67753e-05 -7.00257e-05 0.0147673)
(1.86848e-05 -0.000102071 0.0143756)
(4.20256e-05 -0.000116175 0.0143993)
(5.44805e-06 -0.000129827 0.0144063)
(9.5862e-06 -0.000158794 0.0144481)
(-8.40962e-06 -8.69681e-05 0.0143295)
(2.69804e-05 -0.000101706 0.0143844)
(-2.17214e-05 -0.000114123 0.0144115)
(2.08161e-06 -0.000165931 0.014509)
(-3.28329e-05 -7.46961e-05 0.0142502)
(1.17869e-05 -7.23489e-05 0.0143318)
(-5.23904e-05 -6.86385e-05 0.0143574)
(-2.65553e-06 -0.000115014 0.0145202)
(-5.09196e-05 -5.7189e-05 0.0141388)
(6.48121e-07 -2.64441e-05 0.01423)
(-6.76478e-05 -2.81605e-05 0.0142188)
(-3.61023e-06 -4.03616e-05 0.0144345)
(8.36429e-06 -5.35081e-05 0.0143718)
(1.83202e-05 -6.05053e-05 0.0144078)
(5.46219e-06 -6.48951e-05 0.0144258)
(1.03691e-05 -7.73304e-05 0.0144517)
(-5.10789e-06 -4.6109e-05 0.0143182)
(1.1379e-05 -5.33344e-05 0.0143666)
(-6.11853e-06 -5.74244e-05 0.0143925)
(8.58019e-06 -7.98419e-05 0.0144429)
(-1.81224e-05 -3.90876e-05 0.0142391)
(3.14352e-06 -3.83899e-05 0.014295)
(-2.00076e-05 -3.75249e-05 0.0143188)
(6.1951e-06 -5.766e-05 0.0143967)
(-2.74355e-05 -2.95204e-05 0.0141342)
(-4.12683e-06 -1.53166e-05 0.0141872)
(-2.87608e-05 -1.56845e-05 0.0141952)
(5.18552e-06 -2.06346e-05 0.0142925)
(5.18982e-06 -2.81869e-05 0.0143653)
(9.45345e-06 -3.13767e-05 0.0144092)
(5.24515e-06 -3.30794e-05 0.0144338)
(8.65793e-06 -3.8116e-05 0.0144523)
(-1.37103e-06 -2.41005e-05 0.0143042)
(6.02477e-06 -2.75617e-05 0.0143534)
(1.6408e-07 -2.90899e-05 0.0143826)
(8.407e-06 -3.86562e-05 0.0144132)
(-7.89293e-06 -2.04874e-05 0.0142202)
(1.91351e-06 -2.00673e-05 0.0142702)
(-6.16403e-06 -1.94982e-05 0.0142982)
(7.31507e-06 -2.83812e-05 0.0143409)
(-1.26716e-05 -1.4643e-05 0.0141113)
(-1.87337e-06 -7.83022e-06 0.0141549)
(-1.04201e-05 -7.6345e-06 0.0141743)
(6.84347e-06 -1.00089e-05 0.0142242)
(3.41617e-06 -1.48952e-05 0.0143628)
(5.43806e-06 -1.6337e-05 0.014409)
(4.42195e-06 -1.71505e-05 0.0144361)
(6.46348e-06 -1.90663e-05 0.0144512)
(1.57088e-07 -1.22919e-05 0.0142983)
(3.57208e-06 -1.40263e-05 0.0143459)
(2.10078e-06 -1.49463e-05 0.0143768)
(6.55622e-06 -1.89204e-05 0.0143983)
(-3.21307e-06 -1.02544e-05 0.014212)
(1.34828e-06 -1.02252e-05 0.0142571)
(-8.58135e-07 -1.01259e-05 0.0142869)
(6.12896e-06 -1.39456e-05 0.0143139)
(-5.57127e-06 -6.85421e-06 0.0141017)
(-5.89668e-07 -3.77206e-06 0.0141382)
(-2.85626e-06 -3.54943e-06 0.0141615)
(6.05029e-06 -4.74699e-06 0.0141902)
(2.44615e-06 -7.85308e-06 0.014361)
(3.50731e-06 -8.60141e-06 0.014408)
(3.47211e-06 -8.99551e-06 0.0144362)
(4.61274e-06 -9.69326e-06 0.01445)
(7.75785e-07 -6.18116e-06 0.0142946)
(2.44101e-06 -7.08413e-06 0.0143414)
(2.37742e-06 -7.70701e-06 0.0143729)
(4.71965e-06 -9.38147e-06 0.0143908)
(-9.63637e-07 -5.02073e-06 0.0142069)
(1.21346e-06 -5.0964e-06 0.0142496)
(9.64155e-07 -5.21515e-06 0.0142802)
(4.5659e-06 -6.88654e-06 0.0143005)
(-2.10332e-06 -2.99047e-06 0.0140957)
(2.59707e-07 -1.61664e-06 0.0141288)
(6.85197e-08 -1.52805e-06 0.0141536)
(4.66453e-06 -2.21553e-06 0.0141731)
(1.83648e-06 -4.12843e-06 0.0143599)
(2.3763e-06 -4.5661e-06 0.0144072)
(2.57993e-06 -4.75989e-06 0.0144358)
(3.21145e-06 -5.00396e-06 0.0144492)
(9.53646e-07 -3.06633e-06 0.0142925)
(1.78241e-06 -3.57458e-06 0.0143388)
(2.05572e-06 -3.96958e-06 0.0143705)
(3.28721e-06 -4.71917e-06 0.0143869)
(8.88337e-09 -2.3413e-06 0.0142041)
(1.09431e-06 -2.47446e-06 0.0142455)
(1.3677e-06 -2.64165e-06 0.0142763)
(3.23278e-06 -3.4231e-06 0.0142938)
(-5.29825e-07 -1.114e-06 0.0140923)
(6.37679e-07 -5.49218e-07 0.0141236)
(9.95417e-07 -5.62367e-07 0.0141489)
(3.37922e-06 -1.01248e-06 0.0141647)
(1.37728e-06 -2.13238e-06 0.014359)
(1.66803e-06 -2.42126e-06 0.0144065)
(1.86945e-06 -2.52803e-06 0.0144353)
(2.21762e-06 -2.61152e-06 0.0144487)
(8.9495e-07 -1.44688e-06 0.0142912)
(1.31243e-06 -1.77506e-06 0.0143372)
(1.60341e-06 -2.03663e-06 0.014369)
(2.26114e-06 -2.40125e-06 0.0143849)
(3.78169e-07 -1.02572e-06 0.0142024)
(9.33313e-07 -1.1585e-06 0.0142431)
(1.25986e-06 -1.30933e-06 0.014274)
(2.23825e-06 -1.71321e-06 0.0142905)
(1.23257e-07 -2.74355e-07 0.0140903)
(7.32116e-07 -6.34132e-08 0.0141207)
(1.12977e-06 -1.29287e-07 0.0141462)
(2.37691e-06 -4.47872e-07 0.0141605)
(1.01208e-06 -1.07857e-06 0.0143585)
(1.16329e-06 -1.27528e-06 0.014406)
(1.31754e-06 -1.33349e-06 0.0144349)
(1.51777e-06 -1.37052e-06 0.0144484)
(7.44538e-07 -6.43476e-07 0.0142904)
(9.59013e-07 -8.5548e-07 0.0143362)
(1.17643e-06 -1.02591e-06 0.014368)
(1.53239e-06 -1.22783e-06 0.0143839)
(4.54995e-07 -3.96996e-07 0.0142014)
(7.51043e-07 -5.07754e-07 0.0142418)
(1.00384e-06 -6.32365e-07 0.0142726)
(1.52526e-06 -8.60397e-07 0.0142888)
(3.37562e-07 7.02971e-08 0.014089)
(6.72656e-07 1.28753e-07 0.0141191)
(9.76871e-07 4.46407e-08 0.0141445)
(1.63761e-06 -1.86897e-07 0.0141583)
(7.30431e-07 -5.19992e-07 0.0143581)
(8.0493e-07 -6.58968e-07 0.0144057)
(9.12019e-07 -6.98129e-07 0.0144347)
(1.02938e-06 -7.21225e-07 0.0144482)
(5.78067e-07 -2.54731e-07 0.0142898)
(6.86685e-07 -3.93803e-07 0.0143356)
(8.33206e-07 -5.06829e-07 0.0143675)
(1.0312e-06 -6.28526e-07 0.0143833)
(4.1614e-07 -1.13717e-07 0.0142007)
(5.74271e-07 -1.96883e-07 0.014241)
(7.44465e-07 -2.89906e-07 0.0142718)
(1.0268e-06 -4.29747e-07 0.0142879)
(3.64511e-07 1.79264e-07 0.0140883)
(5.53646e-07 1.78473e-07 0.0141182)
(7.56752e-07 9.88005e-08 0.0141436)
(1.1116e-06 -6.82134e-08 0.0141572)
(5.23851e-07 -2.24692e-07 0.0143578)
(5.6383e-07 -3.2102e-07 0.0144054)
(6.34573e-07 -3.50562e-07 0.0144345)
(7.0225e-07 -3.71859e-07 0.0144481)
(4.3379e-07 -6.59619e-08 0.0142895)
(4.93028e-07 -1.57364e-07 0.0143353)
(5.8654e-07 -2.34579e-07 0.0143671)
(6.96212e-07 -3.14907e-07 0.014383)
(3.43941e-07 1.23237e-08 0.0142003)
(4.32672e-07 -4.96388e-08 0.0142405)
(5.39105e-07 -1.18833e-07 0.0142713)
(6.90939e-07 -2.08879e-07 0.0142874)
(3.19011e-07 1.90452e-07 0.0140878)
(4.30968e-07 1.67532e-07 0.0141176)
(5.59523e-07 1.00428e-07 0.014143)
(7.49099e-07 -1.6705e-08 0.0141566)
(3.96682e-07 -6.13773e-08 0.0143576)
(4.30715e-07 -1.22175e-07 0.0144053)
(4.78273e-07 -1.48835e-07 0.0144344)
(5.15559e-07 -1.71297e-07 0.014448)
(3.42399e-07 3.20487e-08 0.0142893)
(3.85532e-07 -2.67078e-08 0.014335)
(4.4609e-07 -8.23597e-08 0.0143669)
(5.03726e-07 -1.39324e-07 0.0143828)
(2.89615e-07 7.52192e-08 0.0142001)
(3.49875e-07 3.18196e-08 0.0142402)
(4.17498e-07 -2.22153e-08 0.0142711)
(4.95711e-07 -8.77074e-08 0.0142872)
(2.70678e-07 1.77392e-07 0.0140876)
(3.46916e-07 1.49856e-07 0.0141173)
(4.2786e-07 9.33317e-08 0.0141427)
(5.27248e-07 7.17066e-09 0.0141563)
(3.81118e-07 7.12092e-08 0.0143574)
(4.30539e-07 2.56405e-08 0.0144052)
(4.73015e-07 -7.23914e-09 0.0144343)
(4.97802e-07 -3.66378e-08 0.014448)
(3.36491e-07 1.12896e-07 0.0142891)
(3.93952e-07 7.08763e-08 0.0143349)
(4.45993e-07 2.33791e-08 0.0143668)
(4.81183e-07 -2.64172e-08 0.0143828)
(2.95401e-07 1.40752e-07 0.0141999)
(3.60514e-07 1.05811e-07 0.01424)
(4.19879e-07 5.49458e-08 0.0142709)
(4.66411e-07 -6.3391e-09 0.014287)
(2.69026e-07 1.91562e-07 0.0140873)
(3.41398e-07 1.59978e-07 0.0141171)
(4.09024e-07 1.04613e-07 0.0141426)
(4.66291e-07 2.87753e-08 0.0141562)
(0.0014365 0.00350292 0.0242301)
(-0.000770329 0.00243627 0.0352531)
(0.000142214 -0.000266773 0.0149656)
(0.00360861 0.000708495 0.0231823)
(3.01169e-05 0.00126232 0.00714144)
(-0.000167764 0.00369931 0.0254047)
(0.000590259 0.00338289 0.0164698)
(0.00243601 0.00392823 0.0202652)
(-0.00232654 0.00381329 0.0251236)
(-0.00544324 0.00497108 0.025234)
(-0.000540563 0.00247748 0.011777)
(-0.0004893 0.00236894 0.0279286)
(-0.00094367 -0.00138223 0.0172998)
(0.000143064 -0.000142742 0.00702832)
(0.00065759 0.00144563 0.0328221)
(-0.00044223 0.000669542 0.0140771)
(-0.000448294 0.00102563 0.0151907)
(-0.000356577 0.00163613 0.0126998)
(-0.00058901 0.000831186 0.00410302)
(-0.000167359 7.78971e-05 0.00687663)
(-0.00057777 0.000867255 0.0419397)
(-0.00156757 8.3361e-05 0.014304)
(-0.0035066 0.000171428 0.0300583)
(-0.00083112 -0.00044655 0.0258983)
(-0.00446786 0.000985169 0.04969)
(-0.00331161 0.00114962 0.0248991)
(-0.00297114 7.42621e-05 0.0230559)
(-0.000981849 0.00307297 0.0526828)
(-0.000117512 -0.00146115 0.0251368)
(-0.00170666 0.000788867 0.0436662)
(-0.00113131 0.000364333 0.0156644)
(0.00131172 0.0013785 0.0226471)
(-0.00166925 -0.00288333 0.0457908)
(-0.0023537 0.00609807 0.0639963)