/*--------------------------------*- C++ -*----------------------------------*\
| =========                 |                                                 |
| \\      /  F ield         | OpenFOAM: The Open Source CFD Toolbox           |
|  \\    /   O peration     | Version:  2506                                  |
|   \\  /    A nd           | Website:  www.openfoam.com                      |
|    \\/     M anipulation  |                                                 |
\*---------------------------------------------------------------------------*/
FoamFile
{
    version     2.0;
    format      ascii;
    arch        "LSB;label=32;scalar=64";
    class       volVectorField;
    location    "0.07";
    object      Us;
}
// * * * * * * * * * * * * * * * * * * * * * * * * * * * * * * * * * * * * * //

dimensions      [0 1 -1 0 0 0 0];

internalField   nonuniform List<vector> 
1152
(
(0.000132192 0.000141665 -0.000173022)
(-0.000139234 -0.000427858 -5.95449e-05)
(-9.1288e-05 -0.00041637 -5.05571e-05)
(0.000218038 0.000237819 -0.000215138)
(-0.000430643 -2.09474e-05 -0.000172484)
(-0.000198242 4.24662e-06 -5.08495e-05)
(-0.000128528 -0.000141356 -0.000224781)
(0.00011759 -0.000220085 -0.000199759)
(-0.000440826 -2.03322e-05 -0.000300374)
(-0.000610776 -0.000124577 -0.000789406)
(-0.000421787 -6.1352e-05 -0.00101445)
(-6.48777e-06 0.000363282 -0.000258177)
(-0.000535592 0.000351829 -0.000574223)
(-0.000816853 0.00047707 -0.000777986)
(-0.00038436 0.000226375 -0.000357445)
(0.0006668 -0.000703416 -0.000334304)
(-0.000115257 0.000101192 0.0022277)
(0.000422066 -2.85776e-05 0.00234697)
(0.00122727 -0.00030047 0.00264916)
(-0.000529388 -9.65011e-05 0.00203996)
(-3.46758e-05 -0.000431718 0.00122465)
(0.000157986 -0.000453895 0.00183707)
(0.00051574 -0.000187128 0.00184525)
(0.00040753 -0.00124074 0.00247343)
(-0.000265132 0.000147434 0.00147033)
(-0.000634603 -0.000884815 0.00113378)
(-1.56915e-05 -0.00047924 9.42102e-05)
(0.000504569 -0.00124864 0.00251587)
(-0.000988429 0.000866777 0.00256623)
(-0.00165123 0.00105029 0.00273819)
(-0.000395606 -0.000881391 0.00134302)
(0.000788554 0.000145044 0.000730542)
(0.000179839 -0.000551282 0.00385693)
(0.000312685 -0.000197633 0.00313246)
(-0.000533935 -5.71067e-05 0.00390134)
(-0.000639043 -0.000871685 0.00446496)
(-0.000186682 -0.000985606 0.00429057)
(0.000225453 -0.000644569 0.0032891)
(-0.000700548 6.96829e-07 0.00342273)
(-0.000178491 -0.000968141 0.0041139)
(-0.0011205 -0.00065848 0.00309243)
(-0.0002825 -0.000499658 0.00316657)
(-0.000935279 -0.000647862 0.00323014)
(-0.000791393 -0.00117807 0.00339288)
(-0.00118852 -9.98521e-05 0.00377003)
(-0.000363569 -0.000655813 0.00373975)
(-0.00054849 -0.000510416 0.00364926)
(-1.73219e-05 -0.000174011 0.00274673)
(-0.000244315 -0.000411244 0.00367742)
(-0.000439853 -0.000493016 0.00352557)
(-0.000373732 -0.000159795 0.00407831)
(-0.000419446 -0.000643325 0.00411702)
(-0.000486517 -0.0009057 0.00332749)
(-0.000272257 -0.00108452 0.00388352)
(-0.000295604 -0.000282676 0.0034767)
(-0.00114386 -0.00156603 0.00650394)
(-0.000363986 -0.00047787 0.00270395)
(0.000165951 -0.000405898 0.00293533)
(-7.40583e-05 -0.00043343 0.00355375)
(-0.000624099 -0.000611301 0.00289736)
(-0.000159633 -0.000327401 0.00309604)
(-5.09147e-05 -0.00065168 0.00313521)
(-1.10499e-05 -0.000829119 0.00247014)
(-0.000224045 -0.000371339 0.00229037)
(-0.000223882 -0.000384568 0.00359988)
(-0.000179468 -7.52458e-05 0.00345251)
(-0.000205539 -0.000232862 0.0034543)
(-3.73675e-05 -0.000540001 0.00350359)
(-8.6357e-05 -6.0933e-05 0.00326021)
(-0.000190994 -0.000181247 0.00310925)
(-3.40995e-05 -3.52591e-05 0.0029398)
(-5.70531e-05 -0.000437615 0.00320235)
(-0.000263733 0.000273423 0.00306593)
(-0.000189614 -0.000199259 0.0028595)
(-0.000323292 -0.000480207 0.0033084)
(-0.000294121 -0.000444501 0.00287272)
(0.000245276 -7.36691e-05 0.00308557)
(5.53552e-05 -0.000283645 0.00262464)
(-0.000169242 -0.000378867 0.00253616)
(3.11704e-05 2.72795e-05 0.00245724)
(1.16383e-05 0.000215268 0.00364279)
(0.000112018 0.00010702 0.00315482)
(-7.24969e-05 4.91064e-05 0.0030776)
(7.95823e-05 -1.19021e-05 0.00267506)
(-6.63247e-05 0.000207284 0.00318901)
(-0.000101898 0.00023688 0.00306089)
(1.06165e-05 0.000210413 0.00279662)
(0.000195817 8.91472e-06 0.00255953)
(-0.000208112 0.000192886 0.00278205)
(-6.46499e-05 0.000316851 0.00280685)
(2.69394e-05 0.00011587 0.00259404)
(5.28669e-05 4.43942e-05 0.00259212)
(-0.000116954 0.000118411 0.00251362)
(-4.90276e-06 0.000265694 0.00238367)
(2.86954e-05 0.000113259 0.00256679)
(0.000260538 0.000217494 0.00248838)
(0.000214717 0.000645147 0.00362696)
(6.30936e-05 0.000556382 0.00326582)
(-0.00029811 0.000734667 0.0029809)
(0.000330291 0.000657348 0.00258105)
(-0.000124877 0.000557555 0.00307668)
(4.06722e-06 0.000596528 0.00299964)
(-1.86744e-06 0.000650257 0.00301637)
(2.11987e-05 0.000619513 0.00247996)
(-0.000120949 0.000662505 0.00273986)
(-5.12814e-05 0.000423818 0.00252263)
(-5.15148e-05 0.000483207 0.00275227)
(-0.000143143 0.000461067 0.00274705)
(-0.000176815 0.000574387 0.00226087)
(-0.00087896 0.000281569 0.0022065)
(-0.000166435 0.000602961 0.00252386)
(0.000268425 0.000601293 0.00229409)
(0 0 0)
(0 0 0)
(0 0 0)
(0 0 0)
(0 0 0)
(0 0 0)
(0 0 0)
(0 0 0)
(0 0 0)
(0 0 0)
(0 0 0)
(0 0 0)
(0 0 0)
(0 0 0)
(0 0 0)
(0 0 0)
(0 0 0)
(0 0 0)
(0 0 0)
(0 0 0)
(0 0 0)
(0 0 0)
(0 0 0)
(0 0 0)
(0 0 0)
(0 0 0)
(0 0 0)
(0 0 0)
(0 0 0)
(0 0 0)
(0 0 0)
(0 0 0)
(0 0 0)
(0 0 0)
(0 0 0)
(0 0 0)
(0 0 0)
(0 0 0)
(0 0 0)
(0 0 0)
(0 0 0)
(0 0 0)
(0 0 0)
(0 0 0)
(0 0 0)
(0 0 0)
(0 0 0)
(0 0 0)
(0 0 0)
(0 0 0)
(0 0 0)
(0 0 0)
(0 0 0)
(0 0 0)
(0 0 0)
(0 0 0)
(0 0 0)
(0 0 0)
(0 0 0)
(0 0 0)
(0 0 0)
(0 0 0)
(0 0 0)
(0 0 0)
(0 0 0)
(0 0 0)
(0 0 0)
(0 0 0)
(0 0 0)
(0 0 0)
(0 0 0)
(0 0 0)
(0 0 0)
(0 0 0)
(0 0 0)
(0 0 0)
(0 0 0)
(0 0 0)
(0 0 0)
(0 0 0)
(0 0 0)
(0 0 0)
(0 0 0)
(0 0 0)
(0 0 0)
(0 0 0)
(0 0 0)
(0 0 0)
(0 0 0)
(0 0 0)
(0 0 0)
(0 0 0)
(0 0 0)
(0 0 0)
(0 0 0)
(0 0 0)
(0 0 0)
(0 0 0)
(0 0 0)
(0 0 0)
(0 0 0)
(0 0 0)
(0 0 0)
(0 0 0)
(0 0 0)
(0 0 0)
(0 0 0)
(0 0 0)
(0 0 0)
(0 0 0)
(0 0 0)
(0 0 0)
(0 0 0)
(0 0 0)
(0 0 0)
(0 0 0)
(0 0 0)
(0 0 0)
(0 0 0)
(0 0 0)
(0 0 0)
(0 0 0)
(0 0 0)
(0 0 0)
(0 0 0)
(0 0 0)
(0 0 0)
(0 0 0)
(0 0 0)
(0 0 0)
(0 0 0)
(0 0 0)
(0 0 0)
(0 0 0)
(0 0 0)
(0 0 0)
(0 0 0)
(0 0 0)
(0 0 0)
(0 0 0)
(0 0 0)
(0 0 0)
(0 0 0)
(0 0 0)
(0 0 0)
(0 0 0)
(0 0 0)
(0 0 0)
(0 0 0)
(0 0 0)
(0 0 0)
(0 0 0)
(0 0 0)
(0 0 0)
(0 0 0)
(0 0 0)
(0 0 0)
(0 0 0)
(0 0 0)
(0 0 0)
(0 0 0)
(0 0 0)
(0 0 0)
(0 0 0)
(0 0 0)
(0 0 0)
(0 0 0)
(0 0 0)
(0 0 0)
(0 0 0)
(0 0 0)
(0 0 0)
(0 0 0)
(0 0 0)
(0 0 0)
(0 0 0)
(0 0 0)
(0 0 0)
(0 0 0)
(0 0 0)
(0 0 0)
(0 0 0)
(0 0 0)
(0 0 0)
(0 0 0)
(0 0 0)
(0 0 0)
(0 0 0)
(0 0 0)
(0 0 0)
(0 0 0)
(0 0 0)
(0 0 0)
(0 0 0)
(0 0 0)
(0 0 0)
(0 0 0)
(0 0 0)
(0 0 0)
(0 0 0)
(0 0 0)
(0 0 0)
(0 0 0)
(0 0 0)
(0 0 0)
(0 0 0)
(0 0 0)
(0 0 0)
(0 0 0)
(0 0 0)
(0 0 0)
(0 0 0)
(0 0 0)
(0 0 0)
(0 0 0)
(0 0 0)
(0 0 0)
(0 0 0)
(0 0 0)
(0 0 0)
(0 0 0)
(0 0 0)
(0 0 0)
(0 0 0)
(0 0 0)
(0 0 0)
(0 0 0)
(0 0 0)
(0 0 0)
(0 0 0)
(0 0 0)
(0 0 0)
(0 0 0)
(0 0 0)
(0 0 0)
(0 0 0)
(0 0 0)
(0 0 0)
(0 0 0)
(0 0 0)
(0 0 0)
(0 0 0)
(0 0 0)
(0 0 0)
(0 0 0)
(0 0 0)
(0 0 0)
(0 0 0)
(0 0 0)
(0 0 0)
(0 0 0)
(0 0 0)
(0 0 0)
(0 0 0)
(0 0 0)
(0 0 0)
(0 0 0)
(0 0 0)
(0 0 0)
(0 0 0)
(0 0 0)
(0 0 0)
(0 0 0)
(0 0 0)
(0 0 0)
(0 0 0)
(0 0 0)
(0 0 0)
(0 0 0)
(0 0 0)
(0 0 0)
(0 0 0)
(-0.000493367 0.00023695 -0.000267)
(-0.000238409 -8.36946e-06 6.63432e-05)
(0.000695912 -0.000555223 -0.00112157)
(0.000312905 -0.000197288 -0.000343289)
(-0.000329061 0.000122466 8.39575e-05)
(-0.000159062 -3.45661e-05 -0.000174457)
(-0.000251115 -2.77274e-05 -0.000371894)
(0.000371548 -0.000131809 -0.000277755)
(-0.000387704 -7.57624e-05 6.30279e-05)
(-0.000113428 5.59204e-05 4.38257e-05)
(-0.000378329 0.000124079 -1.4734e-05)
(0.000258987 -0.000128517 -0.00173163)
(-0.000476356 -0.000361314 -0.000910904)
(-7.92673e-06 7.97436e-05 -5.89547e-05)
(-0.00024844 -0.000162829 -0.000172189)
(2.33615e-05 -0.000255237 -0.000262408)
(-0.000298385 0.000852576 0.00424303)
(-0.00100203 0.000262446 0.0025736)
(0.00062947 -0.000362729 0.00177102)
(0.000532356 -0.000297556 0.000491069)
(-0.000101167 0.000781441 0.0022482)
(-0.000696307 0.000331303 0.000750764)
(0.000506159 0.00155258 0.00111651)
(3.75169e-05 -0.000676438 0.00196065)
(-0.000653399 0.0004054 0.00184652)
(-0.000570227 0.000476438 0.00259076)
(0.000456915 0.000769543 0.00318311)
(-0.000245031 -0.000811753 0.0011622)
(5.23747e-05 0.000116734 0.00211871)
(-0.000576458 -0.000235188 0.0018772)
(-0.000271886 -0.000377953 0.002798)
(0.000143053 -0.000315185 0.000729425)
(-0.00054629 0.000718729 0.00376574)
(0.000979896 0.00105507 0.00470543)
(0.000716455 -0.000513429 0.00313486)
(0.000518281 -0.000806041 0.00203039)
(4.78138e-05 0.000512169 0.00381035)
(0.00062067 0.000839897 0.00442978)
(0.00107178 0.000543297 0.00292863)
(-0.000789984 -0.000482203 0.0029321)
(0.000282447 9.64022e-05 0.0038353)
(0.000465195 0.00023189 0.00335427)
(0.00119674 0.000262589 0.00364894)
(-0.00148437 0.000672517 0.00421776)
(3.28539e-05 -0.000208418 0.00338743)
(0.000479707 0.000347248 0.00332846)
(0.000254865 -0.000322754 0.00216732)
(7.51069e-05 0.000126122 0.00161005)
(8.58546e-05 4.2907e-05 0.00242123)
(0.000256279 -0.000390546 0.00267896)
(0.000280635 -0.000679737 0.00266706)
(0.0005357 -0.000447555 0.00261123)
(0.000971662 -0.0011436 0.003198)
(0.000533485 -0.000595579 0.00252075)
(0.000310392 -0.00028895 0.00252207)
(5.95077e-05 -0.00106263 0.00293278)
(0.000597373 -0.000469684 0.00232329)
(0.000748776 -0.000354742 0.00256227)
(0.000771635 0.000172599 0.00312507)
(9.01489e-05 -0.000550861 0.00194722)
(0.000105036 -0.000410015 0.00282072)
(0.000136065 -2.28516e-05 0.00272042)
(0.000712786 7.69594e-05 0.00289252)
(-0.00172555 -0.000431855 0.00501241)
(0.000253514 -0.000291679 0.00252275)
(-0.000274865 -0.000683314 0.00271841)
(-0.000642167 -0.000469877 0.00341832)
(0.00014681 -0.000149176 0.00226047)
(0.000691892 7.55069e-05 0.00233559)
(0.000155806 3.25191e-06 0.002877)
(0.000270662 2.50087e-05 0.0023401)
(0.000631794 -0.000213841 0.00206102)
(0.000705329 -0.000686487 0.00261172)
(0.0010998 0.000219825 0.00177882)
(0.000382479 0.000233431 0.00231148)
(-6.68795e-05 -0.000192336 0.00183508)
(0.000484612 -0.000172476 0.00171774)
(-0.000106752 0.000721541 0.00145696)
(0.00081212 0.000322171 0.00190472)
(-0.000246679 -0.00019196 0.00206198)
(0.000137915 -0.000114056 0.00220074)
(0.000281924 0.00023113 0.00205937)
(5.73977e-05 0.000116767 0.00194401)
(-0.000246303 0.000417126 0.00204677)
(0.000459304 0.000210373 0.00205771)
(0.000405351 -9.33474e-06 0.0022176)
(0.000489445 0.000157229 0.00213406)
(4.50158e-05 4.57885e-05 0.00204143)
(0.000417254 0.000260214 0.00197247)
(0.000168252 -8.75989e-05 0.00178814)
(0.000199624 -6.38277e-05 0.00196515)
(2.68619e-05 5.55308e-05 0.00136064)
(0.000147539 0.000198321 0.0012115)
(0.0002379 9.72249e-05 0.00099986)
(1.33149e-05 -4.19308e-05 0.00159854)
(-5.19263e-05 -0.000149621 0.00154849)
(0.000405478 0.000357575 0.00209274)
(0.000629902 0.00033833 0.0020062)
(0.000339494 0.000634328 0.00230688)
(0.000191631 0.000542739 0.00217841)
(0.000640584 0.000513131 0.00189562)
(9.56842e-05 0.000388664 0.00183421)
(0.000425347 0.000310359 0.00210002)
(-0.000153244 0.000591799 0.00219326)
(0.000509766 0.000260449 0.00185366)
(-0.000143177 -6.94103e-05 0.00145373)
(0.00061376 8.81835e-05 0.0021922)
(0.000448079 0.000364488 0.0011762)
(0.000276011 0.000185485 0.00146702)
(0.00125182 -0.000803183 0.000639355)
(0.000137805 0.000398293 0.00097029)
(0.000446164 0.000469991 0.00100623)
(0 0 0)
(0 0 0)
(0 0 0)
(0 0 0)
(0 0 0)
(0 0 0)
(0 0 0)
(0 0 0)
(0 0 0)
(0 0 0)
(0 0 0)
(0 0 0)
(0 0 0)
(0 0 0)
(0 0 0)
(0 0 0)
(0 0 0)
(0 0 0)
(0 0 0)
(0 0 0)
(0 0 0)
(0 0 0)
(0 0 0)
(0 0 0)
(0 0 0)
(0 0 0)
(0 0 0)
(0 0 0)
(0 0 0)
(0 0 0)
(0 0 0)
(0 0 0)
(0 0 0)
(0 0 0)
(0 0 0)
(0 0 0)
(0 0 0)
(0 0 0)
(0 0 0)
(0 0 0)
(0 0 0)
(0 0 0)
(0 0 0)
(0 0 0)
(0 0 0)
(0 0 0)
(0 0 0)
(0 0 0)
(0 0 0)
(0 0 0)
(0 0 0)
(0 0 0)
(0 0 0)
(0 0 0)
(0 0 0)
(0 0 0)
(0 0 0)
(0 0 0)
(0 0 0)
(0 0 0)
(0 0 0)
(0 0 0)
(0 0 0)
(0 0 0)
(0 0 0)
(0 0 0)
(0 0 0)
(0 0 0)
(0 0 0)
(0 0 0)
(0 0 0)
(0 0 0)
(0 0 0)
(0 0 0)
(0 0 0)
(0 0 0)
(0 0 0)
(0 0 0)
(0 0 0)
(0 0 0)
(0 0 0)
(0 0 0)
(0 0 0)
(0 0 0)
(0 0 0)
(0 0 0)
(0 0 0)
(0 0 0)
(0 0 0)
(0 0 0)
(0 0 0)
(0 0 0)
(0 0 0)
(0 0 0)
(0 0 0)
(0 0 0)
(0 0 0)
(0 0 0)
(0 0 0)
(0 0 0)
(0 0 0)
(0 0 0)
(0 0 0)
(0 0 0)
(0 0 0)
(0 0 0)
(0 0 0)
(0 0 0)
(0 0 0)
(0 0 0)
(0 0 0)
(0 0 0)
(0 0 0)
(0 0 0)
(0 0 0)
(0 0 0)
(0 0 0)
(0 0 0)
(0 0 0)
(0 0 0)
(0 0 0)
(0 0 0)
(0 0 0)
(0 0 0)
(0 0 0)
(0 0 0)
(0 0 0)
(0 0 0)
(0 0 0)
(0 0 0)
(0 0 0)
(0 0 0)
(0 0 0)
(0 0 0)
(0 0 0)
(0 0 0)
(0 0 0)
(0 0 0)
(0 0 0)
(0 0 0)
(0 0 0)
(0 0 0)
(0 0 0)
(0 0 0)
(0 0 0)
(0 0 0)
(0 0 0)
(0 0 0)
(0 0 0)
(0 0 0)
(0 0 0)
(0 0 0)
(0 0 0)
(0 0 0)
(0 0 0)
(0 0 0)
(0 0 0)
(0 0 0)
(0 0 0)
(0 0 0)
(0 0 0)
(0 0 0)
(0 0 0)
(0 0 0)
(0 0 0)
(0 0 0)
(0 0 0)
(0 0 0)
(0 0 0)
(0 0 0)
(0 0 0)
(0 0 0)
(0 0 0)
(0 0 0)
(0 0 0)
(0 0 0)
(0 0 0)
(0 0 0)
(0 0 0)
(0 0 0)
(0 0 0)
(0 0 0)
(0 0 0)
(0 0 0)
(0 0 0)
(0 0 0)
(0 0 0)
(0 0 0)
(0 0 0)
(0 0 0)
(0 0 0)
(0 0 0)
(0 0 0)
(0 0 0)
(0 0 0)
(0 0 0)
(0 0 0)
(0 0 0)
(0 0 0)
(0 0 0)
(0 0 0)
(0 0 0)
(0 0 0)
(0 0 0)
(0 0 0)
(0 0 0)
(0 0 0)
(0 0 0)
(0 0 0)
(0 0 0)
(0 0 0)
(0 0 0)
(0 0 0)
(0 0 0)
(0 0 0)
(0 0 0)
(0 0 0)
(0 0 0)
(0 0 0)
(0 0 0)
(0 0 0)
(0 0 0)
(0 0 0)
(0 0 0)
(0 0 0)
(0 0 0)
(0 0 0)
(0 0 0)
(0 0 0)
(0 0 0)
(0 0 0)
(0 0 0)
(0 0 0)
(0 0 0)
(0 0 0)
(0 0 0)
(0 0 0)
(0 0 0)
(0 0 0)
(0 0 0)
(0 0 0)
(0 0 0)
(0 0 0)
(0 0 0)
(0 0 0)
(0 0 0)
(0 0 0)
(0 0 0)
(0 0 0)
(0 0 0)
(0 0 0)
(0 0 0)
(0 0 0)
(0 0 0)
(0 0 0)
(0 0 0)
(0 0 0)
(0 0 0)
(0 0 0)
(0 0 0)
(0 0 0)
(0 0 0)
(0 0 0)
(0 0 0)
(0 0 0)
(0 0 0)
(0 0 0)
(0 0 0)
(0 0 0)
(0 0 0)
(0 0 0)
(0 0 0)
(0.000214837 0.000356706 -0.000213404)
(8.9098e-05 0.000181191 -0.000103625)
(-0.000206925 7.8858e-05 -0.000158069)
(-0.000140124 0.000377635 -0.000903426)
(-0.000406182 -0.00037439 -0.000660625)
(-0.000592829 -0.000143456 -0.000176446)
(-0.000629689 0.00047099 -0.000231062)
(-0.00061058 0.000640471 -0.000321861)
(-0.000198862 0.000289284 0.000198687)
(-0.000678918 0.000566257 -0.000367746)
(-0.000559039 0.000669144 -0.000870606)
(-0.000446437 0.000537319 0.00010116)
(-0.000286297 -0.000552665 -0.000600057)
(0.000190023 2.10552e-05 -0.000195893)
(0.000280461 -6.6137e-05 -0.000238463)
(-0.000261301 0.000315346 0.000108537)
(-0.000272484 0.000634939 0.00163948)
(-0.000167038 0.0013081 0.00143438)
(-0.000568721 0.000705096 0.000885813)
(-0.00036793 0.000201851 0.000436444)
(-0.000111729 -0.000553341 0.00277771)
(-0.00106043 3.15262e-06 0.00136532)
(-0.00162112 1.74848e-05 0.00141594)
(-0.000933034 0.000269925 0.00183153)
(-0.000608333 -0.000491057 0.00368014)
(-0.00177674 -2.82742e-05 0.00172495)
(-0.00198833 -6.80433e-05 0.00167341)
(-0.000674067 0.000435712 0.00320603)
(1.87615e-06 -0.00018075 0.0031831)
(0.000476283 -6.95335e-05 0.00157073)
(-6.39978e-05 1.93056e-05 0.00118024)
(-0.000212506 0.000815981 0.00190647)
(0.000196298 -7.77596e-05 0.00313779)
(0.000478432 0.000591526 0.0037297)
(-0.000801431 -1.39656e-05 0.0037248)
(-0.000781315 -0.000765193 0.00337091)
(0.000255426 -0.0010727 0.0032711)
(0.000966462 -0.000366032 0.00315838)
(0.000385125 -0.000638488 0.00277154)
(-0.000246664 -0.000497417 0.00321704)
(0.000790161 0.000550728 0.00719461)
(-0.000734534 -0.000476968 0.00439863)
(-0.000813052 -0.000309588 0.00318669)
(-0.0013691 -0.000344958 0.00315852)
(0.00019929 0.000507363 0.00261985)
(0.000270859 0.000289302 0.00279888)
(-0.000389055 -0.000175538 0.00275119)
(-0.00151299 -0.000396934 0.00332935)
(0.000142282 -0.000584528 0.00301097)
(0.000387402 -0.000413124 0.00365801)
(0.000199768 -0.000860675 0.00354342)
(-0.0003045 -0.000335117 0.00352913)
(-3.24783e-07 -0.000596793 0.00271392)
(-0.000716706 -0.000153563 0.00412048)
(0.000204012 -0.000623285 0.00304077)
(9.8749e-05 -0.000504823 0.00315851)
(0.000604588 -0.000563236 0.00584121)
(0.00115781 -0.00102709 0.00436479)
(0.00057773 -0.000454639 0.00255711)
(-6.69154e-05 -0.000891312 0.00337875)
(0.000222981 -0.00019811 0.00204129)
(0.000193311 0.000539133 0.00257368)
(0.000306258 -7.0392e-06 0.002588)
(0.00020638 -6.81237e-05 0.00244479)
(0.000227973 -0.000249943 0.00369853)
(0.000756743 8.62105e-05 0.00366086)
(0.000180669 9.55164e-06 0.0037348)
(0.000159861 -2.25714e-05 0.00377116)
(0.000192875 1.83895e-05 0.002472)
(0.000167253 -0.000607383 0.00353999)
(0.000339549 0.000629806 0.00313345)
(0.000109804 -0.000331086 0.00304543)
(0.000220708 -8.69764e-05 0.00353707)
(0.000646582 -0.000240519 0.00283394)
(0.000319621 1.30033e-05 0.0021367)
(-0.000103456 7.10354e-05 0.00271493)
(0.000542102 0.000104346 0.00257492)
(0.000489053 0.000548935 0.00395194)
(0.000577712 0.00022409 0.00225014)
(0.000239884 0.000312479 0.00246567)
(-0.000147156 -2.19842e-05 0.00268515)
(-0.000235075 0.000194483 0.00324268)
(-0.000116996 0.00034321 0.0033938)
(-3.47081e-05 2.60897e-05 0.00359984)
(-0.000209065 8.65237e-05 0.0013277)
(-0.00040265 0.000131097 0.00272297)
(2.97944e-05 0.000333161 0.002817)
(-9.24441e-05 0.000202042 0.00310048)
(0.000443794 0.000528301 0.0014727)
(0.000427004 0.000112132 0.0017989)
(6.48264e-05 0.000175083 0.00226893)
(-4.3053e-05 0.000252645 0.00267131)
(0.000320698 0.000196144 0.00144783)
(0.000332078 0.000359554 0.00202868)
(0.000383416 0.000508898 0.00214753)
(-7.89089e-05 0.000213511 0.0022311)
(-0.000557331 -0.00053373 0.00174479)
(-0.0003266 0.000506004 0.00284162)
(-0.00105334 0.000362203 0.00281644)
(-0.000613999 0.00056052 0.00301493)
(-0.00212124 0.000455373 -0.0009535)
(-0.000753391 0.000698763 0.00161828)
(-0.000230485 0.000451753 0.00248112)
(-0.000143543 0.000351695 0.00303667)
(-0.000666678 0.000201462 0.000754095)
(-0.00331598 -0.00146011 -0.000469093)
(-0.000486614 0.000214879 0.00224234)
(-0.000296508 0.000353892 0.00252761)
(0.000109903 0.000256116 0.00134577)
(6.38757e-05 -3.36674e-05 0.00175459)
(8.68084e-05 0.000456554 0.00198829)
(3.43798e-05 0.000714907 0.00228256)
(0 0 0)
(0 0 0)
(0 0 0)
(0 0 0)
(0 0 0)
(0 0 0)
(0 0 0)
(0 0 0)
(0 0 0)
(0 0 0)
(0 0 0)
(0 0 0)
(0 0 0)
(0 0 0)
(0 0 0)
(0 0 0)
(0 0 0)
(0 0 0)
(0 0 0)
(0 0 0)
(0 0 0)
(0 0 0)
(0 0 0)
(0 0 0)
(0 0 0)
(0 0 0)
(0 0 0)
(0 0 0)
(0 0 0)
(0 0 0)
(0 0 0)
(0 0 0)
(0 0 0)
(0 0 0)
(0 0 0)
(0 0 0)
(0 0 0)
(0 0 0)
(0 0 0)
(0 0 0)
(0 0 0)
(0 0 0)
(0 0 0)
(0 0 0)
(0 0 0)
(0 0 0)
(0 0 0)
(0 0 0)
(0 0 0)
(0 0 0)
(0 0 0)
(0 0 0)
(0 0 0)
(0 0 0)
(0 0 0)
(0 0 0)
(0 0 0)
(0 0 0)
(0 0 0)
(0 0 0)
(0 0 0)
(0 0 0)
(0 0 0)
(0 0 0)
(0 0 0)
(0 0 0)
(0 0 0)
(0 0 0)
(0 0 0)
(0 0 0)
(0 0 0)
(0 0 0)
(0 0 0)
(0 0 0)
(0 0 0)
(0 0 0)
(0 0 0)
(0 0 0)
(0 0 0)
(0 0 0)
(0 0 0)
(0 0 0)
(0 0 0)
(0 0 0)
(0 0 0)
(0 0 0)
(0 0 0)
(0 0 0)
(0 0 0)
(0 0 0)
(0 0 0)
(0 0 0)
(0 0 0)
(0 0 0)
(0 0 0)
(0 0 0)
(0 0 0)
(0 0 0)
(0 0 0)
(0 0 0)
(0 0 0)
(0 0 0)
(0 0 0)
(0 0 0)
(0 0 0)
(0 0 0)
(0 0 0)
(0 0 0)
(0 0 0)
(0 0 0)
(0 0 0)
(0 0 0)
(0 0 0)
(0 0 0)
(0 0 0)
(0 0 0)
(0 0 0)
(0 0 0)
(0 0 0)
(0 0 0)
(0 0 0)
(0 0 0)
(0 0 0)
(0 0 0)
(0 0 0)
(0 0 0)
(0 0 0)
(0 0 0)
(0 0 0)
(0 0 0)
(0 0 0)
(0 0 0)
(0 0 0)
(0 0 0)
(0 0 0)
(0 0 0)
(0 0 0)
(0 0 0)
(0 0 0)
(0 0 0)
(0 0 0)
(0 0 0)
(0 0 0)
(0 0 0)
(0 0 0)
(0 0 0)
(0 0 0)
(0 0 0)
(0 0 0)
(0 0 0)
(0 0 0)
(0 0 0)
(0 0 0)
(0 0 0)
(0 0 0)
(0 0 0)
(0 0 0)
(0 0 0)
(0 0 0)
(0 0 0)
(0 0 0)
(0 0 0)
(0 0 0)
(0 0 0)
(0 0 0)
(0 0 0)
(0 0 0)
(0 0 0)
(0 0 0)
(0 0 0)
(0 0 0)
(0 0 0)
(0 0 0)
(0 0 0)
(0 0 0)
(0 0 0)
(0 0 0)
(0 0 0)
(0 0 0)
(0 0 0)
(0 0 0)
(0 0 0)
(0 0 0)
(0 0 0)
(0 0 0)
(0 0 0)
(0 0 0)
(0 0 0)
(0 0 0)
(0 0 0)
(0 0 0)
(0 0 0)
(0 0 0)
(0 0 0)
(0 0 0)
(0 0 0)
(0 0 0)
(0 0 0)
(0 0 0)
(0 0 0)
(0 0 0)
(0 0 0)
(0 0 0)
(0 0 0)
(0 0 0)
(0 0 0)
(0 0 0)
(0 0 0)
(0 0 0)
(0 0 0)
(0 0 0)
(0 0 0)
(0 0 0)
(0 0 0)
(0 0 0)
(0 0 0)
(0 0 0)
(0 0 0)
(0 0 0)
(0 0 0)
(0 0 0)
(0 0 0)
(0 0 0)
(0 0 0)
(0 0 0)
(0 0 0)
(0 0 0)
(0 0 0)
(0 0 0)
(0 0 0)
(0 0 0)
(0 0 0)
(0 0 0)
(0 0 0)
(0 0 0)
(0 0 0)
(0 0 0)
(0 0 0)
(0 0 0)
(0 0 0)
(0 0 0)
(0 0 0)
(0 0 0)
(0 0 0)
(0 0 0)
(0 0 0)
(0 0 0)
(0 0 0)
(0 0 0)
(0 0 0)
(0 0 0)
(0 0 0)
(0 0 0)
(0 0 0)
(0 0 0)
(0 0 0)
(0 0 0)
(0 0 0)
(0 0 0)
(0 0 0)
(0 0 0)
(0 0 0)
(0 0 0)
(0 0 0)
(0 0 0)
(0 0 0)
(0 0 0)
(0 0 0)
(0 0 0)
(0 0 0)
(0 0 0)
(0 0 0)
)
;

boundaryField
{
    inlet
    {
        type            zeroGradient;
    }
    outlet
    {
        type            zeroGradient;
    }
    wall
    {
        type            zeroGradient;
    }
    procBoundary2to0
    {
        type            processor;
        value           nonuniform List<vector> 
192
(
(-0.000378737 -0.000314276 -0.000710668)
(-0.000877958 -0.000759306 -0.0022457)
(0.000148796 -0.000812331 4.94843e-05)
(0.0004554 -3.02283e-05 -0.000646372)
(0.000141123 0.000538253 0.00279829)
(0.000523383 0.000554522 0.00179184)
(0.00104584 7.88002e-05 0.00362284)
(-8.73031e-06 0.000558243 0.00308435)
(-0.000377444 -0.000612195 0.00471943)
(0.000337477 -0.000782914 0.00488482)
(-4.92509e-05 -0.0008525 0.00472613)
(-0.000411588 -0.000758712 0.004307)
(-0.000682136 -0.00032963 0.00411451)
(-0.000765933 -0.000258587 0.00446169)
(-0.000323578 -0.000243885 0.00417874)
(-0.000162142 -0.000173123 0.00362552)
(-0.000625392 -0.000288329 0.00393404)
(-0.000373506 -0.000233203 0.00376746)
(-0.000395029 -0.000365569 0.00364707)
(-0.000269761 -0.00018071 0.00325953)
(-3.63559e-06 0.000233061 0.00385451)
(-0.000163411 -6.971e-05 0.00365321)
(2.95974e-05 0.000354644 0.00335923)
(-0.000108669 0.000175698 0.00291162)
(-0.000133888 0.000579017 0.00385598)
(-0.000155399 0.000195444 0.00324384)
(5.14577e-06 0.000327029 0.00335016)
(0.000153389 0.000624741 0.00282331)
(0 0 0)
(0 0 0)
(0 0 0)
(0 0 0)
(0 0 0)
(0 0 0)
(0 0 0)
(0 0 0)
(0 0 0)
(0 0 0)
(0 0 0)
(0 0 0)
(0 0 0)
(0 0 0)
(0 0 0)
(0 0 0)
(0 0 0)
(0 0 0)
(0 0 0)
(0 0 0)
(0 0 0)
(0 0 0)
(0 0 0)
(0 0 0)
(0 0 0)
(0 0 0)
(0 0 0)
(0 0 0)
(0 0 0)
(0 0 0)
(0 0 0)
(0 0 0)
(0 0 0)
(0 0 0)
(0 0 0)
(0 0 0)
(0 0 0)
(0 0 0)
(0 0 0)
(0 0 0)
(0 0 0)
(0 0 0)
(0 0 0)
(0 0 0)
(0 0 0)
(0 0 0)
(0 0 0)
(0 0 0)
(0 0 0)
(0 0 0)
(0 0 0)
(0 0 0)
(0 0 0)
(0 0 0)
(0 0 0)
(0 0 0)
(0 0 0)
(0 0 0)
(0 0 0)
(0 0 0)
(0 0 0)
(0 0 0)
(0 0 0)
(0 0 0)
(0 0 0)
(0 0 0)
(0 0 0)
(0 0 0)
(-6.38935e-05 0.00020259 -0.000572395)
(0.000191028 -0.000112993 -0.000201384)
(0.00044051 -0.000672307 -0.000187876)
(0.000110126 -0.000164858 -0.000124188)
(-0.000501637 0.0010122 0.00223243)
(-0.000509304 0.00184998 0.00289463)
(-0.000674066 0.00102146 0.00347518)
(0.000153498 7.95492e-05 0.00251965)
(-0.000215284 0.000366527 0.00324943)
(0.000680879 0.000285425 0.00327542)
(-0.000261164 0.000331126 0.0033735)
(-0.0005813 -0.00011343 0.00342614)
(-9.80749e-05 -0.000320436 0.00272996)
(-0.000310768 9.17752e-05 0.00310249)
(-5.38929e-05 -0.000278701 0.00421309)
(-0.000266526 -0.000493722 0.00411042)
(0.000444993 -0.000272918 0.00256297)
(0.000499689 0.000440816 0.00330483)
(0.00042019 -0.000124702 0.003676)
(-0.000262303 0.000544039 0.00433915)
(2.46289e-05 -6.39378e-05 0.00224414)
(0.000304489 -1.11407e-05 0.00323483)
(0.00041377 -0.000379494 0.00335313)
(-0.000462565 -0.000136626 0.00410726)
(-5.48095e-06 2.20401e-05 0.00227381)
(9.18315e-05 -0.00131669 0.00300084)
(-0.000423167 -0.000472605 0.00338707)
(-0.000291185 0.000363435 0.00332667)
(0 0 0)
(0 0 0)
(0 0 0)
(0 0 0)
(0 0 0)
(0 0 0)
(0 0 0)
(0 0 0)
(0 0 0)
(0 0 0)
(0 0 0)
(0 0 0)
(0 0 0)
(0 0 0)
(0 0 0)
(0 0 0)
(0 0 0)
(0 0 0)
(0 0 0)
(0 0 0)
(0 0 0)
(0 0 0)
(0 0 0)
(0 0 0)
(0 0 0)
(0 0 0)
(0 0 0)
(0 0 0)
(0 0 0)
(0 0 0)
(0 0 0)
(0 0 0)
(0 0 0)
(0 0 0)
(0 0 0)
(0 0 0)
(0 0 0)
(0 0 0)
(0 0 0)
(0 0 0)
(0 0 0)
(0 0 0)
(0 0 0)
(0 0 0)
(0 0 0)
(0 0 0)
(0 0 0)
(0 0 0)
(0 0 0)
(0 0 0)
(0 0 0)
(0 0 0)
(0 0 0)
(0 0 0)
(0 0 0)
(0 0 0)
(0 0 0)
(0 0 0)
(0 0 0)
(0 0 0)
(0 0 0)
(0 0 0)
(0 0 0)
(0 0 0)
(0 0 0)
(0 0 0)
(0 0 0)
(0 0 0)
)
;
    }
    procBoundary2to3
    {
        type            processor;
        value           nonuniform List<vector> 
192
(
(-1.23708e-05 0.000475298 -0.000344076)
(-0.000757527 -0.000157653 -0.000213787)
(0.000361805 -0.000304644 -3.31307e-05)
(0.000215413 -0.000332224 -0.000221074)
(-0.00148743 -0.000113649 0.00236555)
(-0.000702592 -0.000347051 0.00303593)
(0.000261393 -0.000846446 0.00127757)
(0.000993103 -0.00159353 0.00245978)
(8.87135e-05 -0.000182516 0.00442037)
(0.000558706 -0.00117209 0.00394928)
(-0.000521006 -0.000625602 0.00350812)
(-0.000468604 -0.000562503 0.00393338)
(0.00010607 -0.000399344 0.00359236)
(0.000255788 -0.000902604 0.00326814)
(-0.000420134 -0.000653183 0.00284486)
(0.000157378 -0.000632374 0.00266007)
(8.25066e-05 -0.000470389 0.0028592)
(0.000187956 -0.000507492 0.00277264)
(8.78582e-05 -0.000269434 0.00250954)
(0.000138524 -0.000184146 0.00225579)
(-4.05025e-05 2.84281e-05 0.00254224)
(0.000226807 0.000310919 0.0027134)
(0.000177138 0.000503364 0.00240839)
(0.000346621 0.000429704 0.00237636)
(0.000553965 0.000614706 0.00230887)
(9.76642e-05 0.00088826 0.00227043)
(0.000285624 0.000647909 0.00265873)
(0.000173618 0.000438527 0.00247358)
(0 0 0)
(0 0 0)
(0 0 0)
(0 0 0)
(0 0 0)
(0 0 0)
(0 0 0)
(0 0 0)
(0 0 0)
(0 0 0)
(0 0 0)
(0 0 0)
(0 0 0)
(0 0 0)
(0 0 0)
(0 0 0)
(0 0 0)
(0 0 0)
(0 0 0)
(0 0 0)
(0 0 0)
(0 0 0)
(0 0 0)
(0 0 0)
(0 0 0)
(0 0 0)
(0 0 0)
(0 0 0)
(0 0 0)
(0 0 0)
(0 0 0)
(0 0 0)
(0 0 0)
(0 0 0)
(0 0 0)
(0 0 0)
(0 0 0)
(0 0 0)
(0 0 0)
(0 0 0)
(0 0 0)
(0 0 0)
(0 0 0)
(0 0 0)
(0 0 0)
(0 0 0)
(0 0 0)
(0 0 0)
(0 0 0)
(0 0 0)
(0 0 0)
(0 0 0)
(0 0 0)
(0 0 0)
(0 0 0)
(0 0 0)
(0 0 0)
(0 0 0)
(0 0 0)
(0 0 0)
(0 0 0)
(0 0 0)
(0 0 0)
(0 0 0)
(0 0 0)
(0 0 0)
(0 0 0)
(0 0 0)
(0.000259258 0.000106869 -0.000467018)
(-1.96401e-05 0.000352713 -5.96509e-05)
(0.000377004 0.000247839 -0.000450535)
(2.94599e-06 0.000214378 -0.000727443)
(0.000369113 -0.000881844 0.0010078)
(0.000435502 0.00027163 0.00259452)
(0.00128302 0.000266353 0.00347368)
(0.00220552 0.000782989 0.00460782)
(0.000493029 -0.000759653 0.00218686)
(0.000203533 -0.000801469 0.00423806)
(-0.00217686 -0.00160115 0.00452298)
(-0.00100206 -0.00114152 0.00442629)
(-0.000461763 0.000535223 0.00439682)
(0.000182003 -0.00083194 0.00220422)
(2.53746e-05 -0.000287302 0.00131053)
(-0.0003892 -0.00053444 0.00299411)
(0.000158991 -4.26867e-06 0.00316373)
(0.000499703 7.73193e-05 0.00214378)
(-0.000387129 -0.000396268 0.00145744)
(-0.000229535 -0.000218902 0.00113963)
(-0.000135422 0.00057354 0.00267407)
(-0.000177065 0.000338977 0.00186768)
(-0.000243447 0.000291056 0.0016265)
(-5.7153e-05 -5.69771e-05 0.000633329)
(0.000106974 0.000393726 0.00241613)
(1.21038e-05 0.000571547 0.00211433)
(-0.000217602 0.000564437 0.00191411)
(0.000541995 0.000348357 0.000760949)
(0 0 0)
(0 0 0)
(0 0 0)
(0 0 0)
(0 0 0)
(0 0 0)
(0 0 0)
(0 0 0)
(0 0 0)
(0 0 0)
(0 0 0)
(0 0 0)
(0 0 0)
(0 0 0)
(0 0 0)
(0 0 0)
(0 0 0)
(0 0 0)
(0 0 0)
(0 0 0)
(0 0 0)
(0 0 0)
(0 0 0)
(0 0 0)
(0 0 0)
(0 0 0)
(0 0 0)
(0 0 0)
(0 0 0)
(0 0 0)
(0 0 0)
(0 0 0)
(0 0 0)
(0 0 0)
(0 0 0)
(0 0 0)
(0 0 0)
(0 0 0)
(0 0 0)
(0 0 0)
(0 0 0)
(0 0 0)
(0 0 0)
(0 0 0)
(0 0 0)
(0 0 0)
(0 0 0)
(0 0 0)
(0 0 0)
(0 0 0)
(0 0 0)
(0 0 0)
(0 0 0)
(0 0 0)
(0 0 0)
(0 0 0)
(0 0 0)
(0 0 0)
(0 0 0)
(0 0 0)
(0 0 0)
(0 0 0)
(0 0 0)
(0 0 0)
(0 0 0)
(0 0 0)
(0 0 0)
(0 0 0)
)
;
    }
}


// ************************************************************************* //
