/*--------------------------------*- C++ -*----------------------------------*\
| =========                 |                                                 |
| \\      /  F ield         | OpenFOAM: The Open Source CFD Toolbox           |
|  \\    /   O peration     | Version:  2506                                  |
|   \\  /    A nd           | Website:  www.openfoam.com                      |
|    \\/     M anipulation  |                                                 |
\*---------------------------------------------------------------------------*/
FoamFile
{
    version     2.0;
    format      ascii;
    arch        "LSB;label=32;scalar=64";
    class       volScalarField;
    location    "0.1";
    object      Ksl;
}
// * * * * * * * * * * * * * * * * * * * * * * * * * * * * * * * * * * * * * //

dimensions      [1 -3 -1 0 0 0 0];

internalField   nonuniform List<scalar> 
1152
(
129004
82467.4
148973
163205
101405
176703
141692
235072
152122
143020
250386
103358
134747
221582
183230
270081
319460
109215
233607
134980
122904
140926
127038
126994
150247
167753
102162
158466
139160
126847
154757
88740.3
218347
147413
246689
250737
203832
201575
238236
262709
345832
217964
246276
243464
213912
346380
188087
319621
394428
325112
256394
235379
206651
279626
196900
240113
250549
297041
258835
235055
229169
168593
198693
263701
191293
245426
259631
214682
405117
234912
255428
213039
234417
196147
267814
176341
227721
155993
342809
174952
361415
196249
266773
263363
247383
412430
208755
214542
255260
218582
209540
339362
384407
185633
279024
149834
86062.8
168381
120979
72468.3
153984
185319
215114
113586
145423
113307
303623
146432
373125
156941
160827
110409
0
0
0
0
982.838
154.989
485.517
0
123.294
109.582
498.7
0
43.0844
1992.18
2687.31
0
0
0
0
0
0
0
0
0
0
0
0
0
0
0
0
0
0
0
0
0
0
0
0
0
0
0
0
0
0
0
0
0
0
0
0
0
0
0
0
0
0
0
0
0
0
0
0
0
0
0
0
0
0
0
0
0
0
0
0
0
0
0
0
0
0
0
0
0
0
0
0
0
0
0
0
0
0
0
0
0
0
0
0
0
0
0
0
0
0
0
0
0
0
0
0
0
0
0
0
0
0
0
0
0
0
0
0
0
0
0
0
0
0
0
0
0
0
0
0
0
0
0
0
0
0
0
0
0
0
0
0
0
0
0
0
0
0
0
0
0
0
0
0
0
0
0
0
0
0
0
0
0
0
0
0
0
0
0
0
0
0
0
0
0
0
0
0
0
0
0
0
0
0
0
0
0
0
0
0
0
0
0
0
0
0
0
0
0
0
0
0
0
0
0
0
0
0
0
0
0
0
0
0
0
0
0
0
0
0
0
0
0
0
0
0
0
0
0
0
0
0
0
0
0
0
0
0
0
0
0
0
0
0
0
0
0
0
0
0
0
0
0
0
0
0
0
0
0
0
0
0
0
0
0
0
0
165415
207161
106432
218644
242486
209452
162576
145102
142884
140047
166546
144414
138124
181399
165915
215036
156916
112494
105414
142494
195949
95497.9
189161
141172
143782
149717
119263
62845.8
105660
123326
153906
151352
259568
201581
225219
173932
136890
234466
304387
261561
219717
190107
170530
248228
364504
351818
217089
220919
213169
284360
224277
143803
250872
214545
230004
246625
198462
181726
258648
185723
229000
185477
240909
253693
210323
201984
151114
188614
216779
350295
163995
240033
141821
163338
203943
390993
372267
224221
350749
228249
221233
190211
278368
190735
178928
252010
246783
218771
215638
285949
275737
306819
155902
213869
242049
186465
67318.1
89446.8
68494
156604
74631.3
74566.7
168299
125537
66549.9
68583.3
38744.5
160978
63317
115214
57067.8
51917.7
0
0
0
0
0
0
0
0
0
0
0
0
0
0
0
0
0
0
0
0
0
0
0
0
0
0
0
0
0
0
0
0
0
0
0
0
0
0
0
0
0
0
0
0
0
0
0
0
0
0
0
0
0
0
0
0
0
0
0
0
0
0
0
0
0
0
0
0
0
0
0
0
0
0
0
0
0
0
0
0
0
0
0
0
0
0
0
0
0
0
0
0
0
0
0
0
0
0
0
0
0
0
0
0
0
0
0
0
0
0
0
0
0
0
0
0
0
0
0
0
0
0
0
0
0
0
0
0
0
0
0
0
0
0
0
0
0
0
0
0
0
0
0
0
0
0
0
0
0
0
0
0
0
0
0
0
0
0
0
0
0
0
0
0
0
0
0
0
0
0
0
0
0
0
0
0
0
0
0
0
0
0
0
0
0
0
0
0
0
0
0
0
0
0
0
0
0
0
0
0
0
0
0
0
0
0
0
0
0
0
0
0
0
0
0
0
0
0
0
0
0
0
0
0
0
0
0
0
0
0
0
0
0
0
0
0
0
0
0
0
0
0
0
0
0
0
0
0
0
0
0
0
0
0
0
0
0
0
0
0
0
0
0
0
0
0
0
0
0
0
0
0
185648
216263
172977
215113
128821
176958
145761
129573
194573
147826
142860
122266
153881
217012
118805
109486
59501
99401.5
157733
75986.1
109290
222958
210504
127307
182781
145886
166746
170627
89140.1
114365
157593
133547
329992
209324
256406
210315
188871
325774
166631
252782
171750
206348
289531
259285
251313
158918
191414
280131
202176
297920
323349
181023
293981
218584
196796
161795
224210
221580
216401
206295
316797
331918
199428
217119
228650
306509
229534
166881
317495
289198
231633
219797
322731
256385
215354
194056
180085
180798
165379
295216
208623
354808
231356
191113
107124
186483
160497
192795
214314
303401
263239
175284
419383
268007
301226
282267
111582
125835
132578
121706
68923.8
66169.3
102604
141648
58572.8
64426.4
50657.1
222389
114317
61877.1
91404
96763.6
0
0
0
0
0
0
0
200.574
0
0
0
46350.2
0
0
0
0
0
0
0
0
0
0
0
0
0
0
0
0
0
0
0
0
0
0
0
0
0
0
0
0
0
0
0
0
0
0
0
0
0
0
0
0
0
0
0
0
0
0
0
0
0
0
0
0
0
0
0
0
0
0
0
0
0
0
0
0
0
0
0
0
0
0
0
0
0
0
0
0
0
0
0
0
0
0
0
0
0
0
0
0
0
0
0
0
0
0
0
0
0
0
0
0
0
0
0
0
0
0
0
0
0
0
0
0
0
0
0
0
0
0
0
0
0
0
0
0
0
0
0
0
0
0
0
0
0
0
0
0
0
0
0
0
0
0
0
0
0
0
0
0
0
0
0
0
0
0
0
0
0
0
0
0
0
0
0
0
0
0
0
0
0
0
0
0
0
0
0
0
0
0
0
0
0
0
0
0
0
0
0
0
0
0
0
0
0
0
0
0
0
0
0
0
0
0
0
0
0
0
0
0
0
0
0
0
0
0
0
0
0
0
0
0
0
0
0
0
0
0
0
0
0
0
0
0
0
0
0
0
0
0
0
0
0
0
0
0
0
0
0
0
0
0
0
0
0
0
0
0
0
0
0
0
)
;

boundaryField
{
    inlet
    {
        type            zeroGradient;
    }
    outlet
    {
        type            zeroGradient;
    }
    wall
    {
        type            zeroGradient;
    }
    procBoundary1to0
    {
        type            processor;
        value           nonuniform List<scalar> 
192
(
176731
164149
184365
102973
111493
148395
168083
127799
261792
312400
204367
161026
178997
328970
272521
379840
268815
120256
276346
313355
111906
304416
164601
149299
93594.9
146251
252156
106049
0
149.461
86.7656
600.652
0
0
0
0
0
0
0
0
0
0
0
0
0
0
0
0
0
0
0
0
0
0
0
0
0
0
0
0
0
0
0
0
0
0
0
0
0
0
0
0
0
0
0
0
0
0
0
0
0
0
0
0
0
0
0
0
0
0
0
0
0
0
0
0
195065
100499
229181
311663
80883.7
146611
121278
147998
169965
226274
256876
205597
281297
246360
180244
215480
156311
275828
419304
305763
272144
358514
245144
398268
70251.2
60648.7
93048.9
55874.1
0
0
0
0
0
0
0
0
0
0
0
0
0
0
0
0
0
0
0
0
0
0
0
0
0
0
0
0
0
0
0
0
0
0
0
0
0
0
0
0
0
0
0
0
0
0
0
0
0
0
0
0
0
0
0
0
0
0
0
0
0
0
0
0
0
0
0
0
)
;
    }
    procBoundary1to3
    {
        type            processor;
        value           nonuniform List<scalar> 
192
(
200970
209065
122342
231476
110627
60107.2
193063
202957
215659
399057
196617
114495
335668
253314
248684
176079
156945
490420
161476
414211
196684
186179
241837
231837
90736.4
120383
120074
61806.8
0
362.571
0
0
0
0
0
0
0
0
0
0
0
0
0
0
0
0
0
0
0
0
0
0
0
0
0
0
0
0
0
0
0
0
0
0
0
0
0
0
0
0
0
0
0
0
0
0
0
0
0
0
0
0
0
0
0
0
0
0
0
0
0
0
0
0
0
0
197550
158106
207146
227835
149836
134723
92061.5
146193
315566
283433
245964
159386
276147
225559
221095
290452
265903
208210
308741
193606
152140
161211
183723
168661
54713.1
60223.1
87893.6
60771.1
0
0
0
0
0
0
0
0
0
0
0
0
0
0
0
0
0
0
0
0
0
0
0
0
0
0
0
0
0
0
0
0
0
0
0
0
0
0
0
0
0
0
0
0
0
0
0
0
0
0
0
0
0
0
0
0
0
0
0
0
0
0
0
0
0
0
0
0
)
;
    }
}


// ************************************************************************* //
