/*--------------------------------*- C++ -*----------------------------------*\
| =========                 |                                                 |
| \\      /  F ield         | OpenFOAM: The Open Source CFD Toolbox           |
|  \\    /   O peration     | Version:  2506                                  |
|   \\  /    A nd           | Website:  www.openfoam.com                      |
|    \\/     M anipulation  |                                                 |
\*---------------------------------------------------------------------------*/
FoamFile
{
    version     2.0;
    format      ascii;
    arch        "LSB;label=32;scalar=64";
    class       volScalarField;
    location    "0.1";
    object      voidfraction;
}
// * * * * * * * * * * * * * * * * * * * * * * * * * * * * * * * * * * * * * //

dimensions      [0 0 0 0 0 0 0];

internalField   nonuniform List<scalar> 
1152
(
0.51283
0.562864
0.483863
0.468063
0.541797
0.460163
0.483863
0.420663
0.48123
0.486497
0.41013
0.515464
0.49703
0.420663
0.444363
0.383796
0.38643
0.52073
0.41803
0.48123
0.49703
0.486497
0.50493
0.49703
0.47333
0.462797
0.523364
0.475963
0.486497
0.486497
0.470697
0.544431
0.415396
0.470697
0.40223
0.38643
0.43383
0.431196
0.396963
0.399596
0.360096
0.415396
0.41013
0.399596
0.415396
0.341663
0.439097
0.362729
0.331129
0.354829
0.391696
0.396963
0.423296
0.378529
0.431196
0.396963
0.39433
0.370629
0.383796
0.40223
0.40223
0.446997
0.43383
0.389063
0.428563
0.391696
0.38643
0.415396
0.323229
0.399596
0.39433
0.41803
0.40223
0.43383
0.389063
0.446997
0.407496
0.46543
0.344296
0.446997
0.373263
0.431196
0.381163
0.381163
0.381163
0.315329
0.41013
0.415396
0.389063
0.423296
0.420663
0.354829
0.325862
0.436463
0.375896
0.47333
0.583931
0.50493
0.52073
0.610264
0.48123
0.446997
0.45753
0.544431
0.483863
0.525997
0.389063
0.491764
0.354829
0.468063
0.468063
0.554964
1
1
1
1
0.9684
0.994733
0.981567
1
0.997367
0.997367
0.965766
1
0.9921
0.9526
0.942066
1
1
1
1
1
1
1
1
1
1
1
1
1
1
1
1
1
1
1
1
1
1
1
1
1
1
1
1
1
1
1
1
1
1
1
1
1
1
1
1
1
1
1
1
1
1
1
1
1
1
1
1
1
1
1
1
1
1
1
1
1
1
1
1
1
1
1
1
1
1
1
1
1
1
1
1
1
1
1
1
1
1
1
1
1
1
1
1
1
1
1
1
1
1
1
1
1
1
1
1
1
1
1
1
1
1
1
1
1
1
1
1
1
1
1
1
1
1
1
1
1
1
1
1
1
1
1
1
1
1
1
1
1
1
1
1
1
1
1
1
1
1
1
1
1
1
1
1
1
1
1
1
1
1
1
1
1
1
1
1
1
1
1
1
1
1
1
1
1
1
1
1
1
1
1
1
1
1
1
1
1
1
1
1
1
1
1
1
1
1
1
1
1
1
1
1
1
1
1
1
1
1
1
1
1
1
1
1
1
1
1
1
1
1
1
1
1
1
1
1
1
1
1
1
1
1
1
1
1
1
1
1
1
1
1
1
1
1
1
1
1
1
1
1
1
1
1
1
1
1
1
1
1
1
1
1
1
0.463099
0.430192
0.534722
0.42267
0.402607
0.431251
0.47379
0.483292
0.484852
0.487176
0.465412
0.481374
0.496322
0.453207
0.460792
0.421705
0.45952
0.508326
0.528199
0.47123
0.436235
0.543309
0.444556
0.498763
0.469375
0.475305
0.50696
0.593804
0.516369
0.48569
0.464002
0.504944
0.398671
0.432097
0.417315
0.449648
0.487666
0.414336
0.366599
0.378095
0.414102
0.442066
0.448792
0.401586
0.340958
0.355758
0.40623
0.421705
0.423727
0.376832
0.410792
0.468532
0.396673
0.41645
0.408014
0.405941
0.436211
0.444441
0.390625
0.434226
0.398593
0.436965
0.396601
0.408562
0.420147
0.430192
0.473844
0.444252
0.418432
0.346678
0.459173
0.399753
0.48043
0.449189
0.412784
0.332677
0.358499
0.412603
0.342038
0.395419
0.416568
0.443532
0.38905
0.436159
0.446126
0.395307
0.398269
0.421411
0.411891
0.375589
0.379545
0.372572
0.458734
0.426138
0.40302
0.447991
0.609852
0.607423
0.599948
0.484719
0.594485
0.608853
0.503024
0.517327
0.619719
0.653369
0.695312
0.524895
0.624121
0.542534
0.70472
0.645137
1
1
1
1
1
1
1
1
1
1
1
1
1
1
1
1
1
1
1
1
1
1
1
1
1
1
1
1
1
1
1
1
1
1
1
1
1
1
1
1
1
1
1
1
1
1
1
1
1
1
1
1
1
1
1
1
1
1
1
1
1
1
1
1
1
1
1
1
1
1
1
1
1
1
1
1
1
1
1
1
1
1
1
1
1
1
1
1
1
1
1
1
1
1
1
1
1
1
1
1
1
1
1
1
1
1
1
1
1
1
1
1
1
1
1
1
1
1
1
1
1
1
1
1
1
1
1
1
1
1
1
1
1
1
1
1
1
1
1
1
1
1
1
1
1
1
1
1
1
1
1
1
1
1
1
1
1
1
1
1
1
1
1
1
1
1
1
1
1
1
1
1
1
1
1
1
1
1
1
1
1
1
1
1
1
1
1
1
1
1
1
1
1
1
1
1
1
1
1
1
1
1
1
1
1
1
1
1
1
1
1
1
1
1
1
1
1
1
1
1
1
1
1
1
1
1
1
1
1
1
1
1
1
1
1
1
1
1
1
1
1
1
1
1
1
1
1
1
1
1
1
1
1
1
1
1
1
1
1
1
1
1
1
1
1
1
1
1
1
1
1
1
0.452372
0.423346
0.455446
0.425368
0.505726
0.459872
0.485971
0.506457
0.442379
0.482428
0.492566
0.515949
0.473769
0.427367
0.519316
0.538266
0.588184
0.535776
0.47401
0.55756
0.515355
0.421093
0.444556
0.499934
0.455914
0.480053
0.462965
0.460683
0.551451
0.52686
0.473819
0.497103
0.373514
0.426973
0.393565
0.42267
0.425487
0.365696
0.44212
0.410792
0.447793
0.427821
0.376278
0.392077
0.403605
0.467164
0.440191
0.380775
0.426086
0.376198
0.365718
0.438857
0.374134
0.407244
0.429939
0.460799
0.41531
0.411202
0.418565
0.422569
0.355993
0.354407
0.428323
0.420147
0.412943
0.365318
0.405941
0.457741
0.364505
0.376775
0.403142
0.417315
0.353052
0.389834
0.418565
0.435909
0.44871
0.431789
0.45206
0.366457
0.421705
0.347184
0.412129
0.438857
0.518565
0.426633
0.456737
0.432534
0.41531
0.377963
0.38685
0.451155
0.325923
0.380938
0.355132
0.382564
0.531231
0.517642
0.514233
0.530582
0.602013
0.603906
0.556619
0.504283
0.680586
0.655743
0.678625
0.458777
0.528898
0.688258
0.576682
0.572269
1
1
1
1
1
1
1
0.997826
1
1
1
0.969509
1
1
1
1
1
1
1
1
1
1
1
1
1
1
1
1
1
1
1
1
1
1
1
1
1
1
1
1
1
1
1
1
1
1
1
1
1
1
1
1
1
1
1
1
1
1
1
1
1
1
1
1
1
1
1
1
1
1
1
1
1
1
1
1
1
1
1
1
1
1
1
1
1
1
1
1
1
1
1
1
1
1
1
1
1
1
1
1
1
1
1
1
1
1
1
1
1
1
1
1
1
1
1
1
1
1
1
1
1
1
1
1
1
1
1
1
1
1
1
1
1
1
1
1
1
1
1
1
1
1
1
1
1
1
1
1
1
1
1
1
1
1
1
1
1
1
1
1
1
1
1
1
1
1
1
1
1
1
1
1
1
1
1
1
1
1
1
1
1
1
1
1
1
1
1
1
1
1
1
1
1
1
1
1
1
1
1
1
1
1
1
1
1
1
1
1
1
1
1
1
1
1
1
1
1
1
1
1
1
1
1
1
1
1
1
1
1
1
1
1
1
1
1
1
1
1
1
1
1
1
1
1
1
1
1
1
1
1
1
1
1
1
1
1
1
1
1
1
1
1
1
1
1
1
1
1
1
1
1
1
)
;

boundaryField
{
    inlet
    {
        type            fixedValue;
        value           uniform 1;
    }
    outlet
    {
        type            fixedValue;
        value           uniform 1;
    }
    wall
    {
        type            zeroGradient;
    }
    procBoundary1to0
    {
        type            processor;
        value           nonuniform List<scalar> 
192
(
0.452263
0.468063
0.452263
0.539164
0.518097
0.48123
0.45753
0.50493
0.41013
0.360096
0.428563
0.45753
0.428563
0.354829
0.378529
0.331129
0.404863
0.510197
0.381163
0.357463
0.494397
0.375896
0.462797
0.470697
0.562864
0.491764
0.46543
0.541797
1
0.997367
0.997367
0.9921
1
1
1
1
1
1
1
1
1
1
1
1
1
1
1
1
1
1
1
1
1
1
1
1
1
1
1
1
1
1
1
1
1
1
1
1
1
1
1
1
1
1
1
1
1
1
1
1
1
1
1
1
1
1
1
1
1
1
1
1
1
1
1
1
0.438044
0.539097
0.411891
0.363511
0.5669
0.485688
0.500328
0.463745
0.454151
0.414476
0.391992
0.428663
0.378985
0.398651
0.431789
0.426158
0.46131
0.368979
0.312399
0.355993
0.398671
0.339307
0.38536
0.335946
0.606273
0.699325
0.641828
0.664214
1
1
1
1
1
1
1
1
1
1
1
1
1
1
1
1
1
1
1
1
1
1
1
1
1
1
1
1
1
1
1
1
1
1
1
1
1
1
1
1
1
1
1
1
1
1
1
1
1
1
1
1
1
1
1
1
1
1
1
1
1
1
1
1
1
1
1
1
)
;
    }
    procBoundary1to3
    {
        type            processor;
        value           nonuniform List<scalar> 
192
(
0.431196
0.436463
0.510197
0.41013
0.518097
0.591831
0.460163
0.420663
0.412763
0.336396
0.431196
0.51283
0.349563
0.38643
0.396963
0.44173
0.46543
0.299529
0.439097
0.317962
0.436463
0.431196
0.399596
0.41803
0.568131
0.515464
0.523364
0.668198
1
0.994733
1
1
1
1
1
1
1
1
1
1
1
1
1
1
1
1
1
1
1
1
1
1
1
1
1
1
1
1
1
1
1
1
1
1
1
1
1
1
1
1
1
1
1
1
1
1
1
1
1
1
1
1
1
1
1
1
1
1
1
1
1
1
1
1
1
1
0.438687
0.469375
0.428323
0.411199
0.476275
0.487063
0.554922
0.484575
0.366017
0.376516
0.406563
0.464889
0.378546
0.407469
0.410519
0.371826
0.386064
0.422946
0.368979
0.434465
0.473769
0.45611
0.444148
0.463099
0.646673
0.641828
0.594485
0.631328
1
1
1
1
1
1
1
1
1
1
1
1
1
1
1
1
1
1
1
1
1
1
1
1
1
1
1
1
1
1
1
1
1
1
1
1
1
1
1
1
1
1
1
1
1
1
1
1
1
1
1
1
1
1
1
1
1
1
1
1
1
1
1
1
1
1
1
1
)
;
    }
}


// ************************************************************************* //
