/*--------------------------------*- C++ -*----------------------------------*\
| =========                 |                                                 |
| \\      /  F ield         | OpenFOAM: The Open Source CFD Toolbox           |
|  \\    /   O peration     | Version:  2506                                  |
|   \\  /    A nd           | Website:  www.openfoam.com                      |
|    \\/     M anipulation  |                                                 |
\*---------------------------------------------------------------------------*/
FoamFile
{
    version     2.0;
    format      ascii;
    arch        "LSB;label=32;scalar=64";
    class       volScalarField;
    location    "0.1";
    object      Ksl;
}
// * * * * * * * * * * * * * * * * * * * * * * * * * * * * * * * * * * * * * //

dimensions      [1 -3 -1 0 0 0 0];

internalField   nonuniform List<scalar> 
1152
(
200970
209065
122342
231476
110698
164295
231093
113676
76427
196619
208054
136244
291183
222237
140453
89845.1
110627
60107.2
193063
202957
139867
126660
117716
159126
144826
133396
94339.3
166153
106035
72240.9
109067
192286
215659
399057
196617
114495
329088
249562
181308
284481
308080
254884
284616
252807
140212
170675
257915
232035
335668
253314
248684
176079
254831
233721
315902
302846
357844
199528
233341
279991
476955
212672
179890
207067
156945
490420
161476
414211
190118
367384
264109
242272
233874
214108
374143
197179
243457
342357
191460
234511
196684
186179
241837
231837
217530
243857
197752
224678
219383
252788
313784
205990
173149
248881
216929
287626
90736.4
120383
120074
61806.8
96304.9
210495
72108.5
34757
119501
75920.6
86076.1
77967.7
78821
60816.1
60408.4
81519.1
0
362.571
0
0
0
0
0
0
0
0
0
0
0
0
0
0
0
0
0
0
0
0
0
0
0
0
0
0
0
0
0
0
0
0
0
0
0
0
0
0
0
0
0
0
0
0
0
0
0
0
0
0
0
0
0
0
0
0
0
0
0
0
0
0
0
0
0
0
0
0
0
0
0
0
0
0
0
0
0
0
0
0
0
0
0
0
0
0
0
0
0
0
0
0
0
0
0
0
0
0
0
0
0
0
0
0
0
0
0
0
0
0
0
0
0
0
0
0
0
0
0
0
0
0
0
0
0
0
0
0
0
0
0
0
0
0
0
0
0
0
0
0
0
0
0
0
0
0
0
0
0
0
0
0
0
0
0
0
0
0
0
0
0
0
0
0
0
0
0
0
0
0
0
0
0
0
0
0
0
0
0
0
0
0
0
0
0
0
0
0
0
0
0
0
0
0
0
0
0
0
0
0
0
0
0
0
0
0
0
0
0
0
0
0
0
0
0
0
0
0
0
0
0
0
0
0
0
0
0
0
0
0
0
0
0
0
0
0
0
0
0
0
0
0
0
0
0
0
0
0
0
0
0
0
0
0
0
0
0
0
0
0
0
0
0
0
0
0
0
0
0
0
126616
154234
142962
224618
190335
244369
182126
158048
162179
223875
126397
202911
155941
160776
150783
163355
152236
132742
157712
377236
103476
100826
161297
194155
118107
128897
149012
140043
205181
157603
170714
127445
258998
279055
242133
142379
367645
262312
225484
255882
315258
179081
200802
364155
222084
236935
203735
167483
212823
292027
231392
213195
317142
163889
320499
319533
387392
236580
179539
232473
299374
197293
128354
208230
259236
167020
152949
413919
229831
271147
240383
258232
183941
202106
261218
187014
241185
232075
182348
124035
229095
251232
196407
207083
317671
347351
197832
187565
138212
261714
153094
293178
351639
251060
150953
170318
78882.4
39055.3
63537.4
73167.7
99904.3
71887.5
57880.2
37344.8
41625
121315
58957.4
117572
51166.1
74077
170989
67591.6
0
0
0
0
0
0
0
0
0
0
0
0
0
0
0
0
0
0
0
0
0
0
0
0
0
0
0
0
0
0
0
0
0
0
0
0
0
0
0
0
0
0
0
0
0
0
0
0
0
0
0
0
0
0
0
0
0
0
0
0
0
0
0
0
0
0
0
0
0
0
0
0
0
0
0
0
0
0
0
0
0
0
0
0
0
0
0
0
0
0
0
0
0
0
0
0
0
0
0
0
0
0
0
0
0
0
0
0
0
0
0
0
0
0
0
0
0
0
0
0
0
0
0
0
0
0
0
0
0
0
0
0
0
0
0
0
0
0
0
0
0
0
0
0
0
0
0
0
0
0
0
0
0
0
0
0
0
0
0
0
0
0
0
0
0
0
0
0
0
0
0
0
0
0
0
0
0
0
0
0
0
0
0
0
0
0
0
0
0
0
0
0
0
0
0
0
0
0
0
0
0
0
0
0
0
0
0
0
0
0
0
0
0
0
0
0
0
0
0
0
0
0
0
0
0
0
0
0
0
0
0
0
0
0
0
0
0
0
0
0
0
0
0
0
0
0
0
0
0
0
0
0
0
0
0
0
0
0
0
0
0
0
0
0
0
0
0
0
0
0
0
0
197550
158106
207146
227835
146320
196924
210088
124416
129799
197897
145485
215858
214373
187747
214160
178916
149836
134723
92061.5
146193
102914
129500
117995
94061.9
282938
107100
98194.9
193295
169514
104597
165254
137473
315566
283433
245964
159386
294058
308963
212491
256649
148279
307068
151271
174998
307142
163917
311920
221590
276147
225559
221095
290452
218348
249150
167156
178929
162019
207814
152081
173101
250105
240961
228845
143420
265903
208210
308741
193606
293916
269298
239763
272731
206207
361066
214188
197543
115956
202724
402355
184967
152140
161211
183723
168661
184305
267820
182205
248692
152359
315993
170668
276014
289358
486440
255659
178984
54713.1
60223.1
87893.6
60771.1
132388
46777.9
45198.9
44784.6
45719.4
61697.1
60686.4
71324
48290.6
95990.7
117353
56374.4
0
0
0
0
0
0
0
0
0
0
0
0
0
0
0
0
0
0
0
0
0
0
0
0
0
0
0
0
0
0
0
0
0
0
0
0
0
0
0
0
0
0
0
0
0
0
0
0
0
0
0
0
0
0
0
0
0
0
0
0
0
0
0
0
0
0
0
0
0
0
0
0
0
0
0
0
0
0
0
0
0
0
0
0
0
0
0
0
0
0
0
0
0
0
0
0
0
0
0
0
0
0
0
0
0
0
0
0
0
0
0
0
0
0
0
0
0
0
0
0
0
0
0
0
0
0
0
0
0
0
0
0
0
0
0
0
0
0
0
0
0
0
0
0
0
0
0
0
0
0
0
0
0
0
0
0
0
0
0
0
0
0
0
0
0
0
0
0
0
0
0
0
0
0
0
0
0
0
0
0
0
0
0
0
0
0
0
0
0
0
0
0
0
0
0
0
0
0
0
0
0
0
0
0
0
0
0
0
0
0
0
0
0
0
0
0
0
0
0
0
0
0
0
0
0
0
0
0
0
0
0
0
0
0
0
0
0
0
0
0
0
0
0
0
0
0
0
0
0
0
0
0
0
0
0
0
0
0
0
0
0
0
0
0
0
0
0
0
0
0
0
0
)
;

boundaryField
{
    inlet
    {
        type            zeroGradient;
    }
    outlet
    {
        type            zeroGradient;
    }
    wall
    {
        type            zeroGradient;
    }
    procBoundary3to1
    {
        type            processor;
        value           nonuniform List<scalar> 
192
(
134747
221582
183230
270081
139160
126847
154757
88740.3
213912
346380
188087
319621
229169
168593
198693
263701
227721
155993
342809
174952
384407
185633
279024
149834
373125
156941
160827
110409
43.0844
1992.18
2687.31
0
0
0
0
0
0
0
0
0
0
0
0
0
0
0
0
0
0
0
0
0
0
0
0
0
0
0
0
0
0
0
0
0
0
0
0
0
0
0
0
0
0
0
0
0
0
0
0
0
0
0
0
0
0
0
0
0
0
0
0
0
0
0
0
0
153881
217012
118805
109486
89140.1
114365
157593
133547
251313
158918
191414
280131
316797
331918
199428
217119
180085
180798
165379
295216
419383
268007
301226
282267
114317
61877.1
91404
96763.6
0
0
0
0
0
0
0
0
0
0
0
0
0
0
0
0
0
0
0
0
0
0
0
0
0
0
0
0
0
0
0
0
0
0
0
0
0
0
0
0
0
0
0
0
0
0
0
0
0
0
0
0
0
0
0
0
0
0
0
0
0
0
0
0
0
0
0
0
)
;
    }
    procBoundary3to2
    {
        type            processor;
        value           nonuniform List<scalar> 
192
(
164535
165629
257430
152358
93401.8
187756
136413
162770
278060
213471
314932
380171
170143
228785
170416
235717
249764
282318
259309
197219
251800
345233
239046
362312
137403
142991
82611.8
61674.2
0
0
0
0
0
0
0
0
0
0
0
0
0
0
0
0
0
0
0
0
0
0
0
0
0
0
0
0
0
0
0
0
0
0
0
0
0
0
0
0
0
0
0
0
0
0
0
0
0
0
0
0
0
0
0
0
0
0
0
0
0
0
0
0
0
0
0
0
138110
215584
152832
141845
157242
210880
147582
107429
157375
199676
230360
247295
241006
255322
111978
134008
235206
315488
225179
217715
382063
150250
336884
147951
83496.9
133278
102523
150835
0
0
0
1221.93
0
0
0
0
0
0
0
0
0
0
0
0
0
0
0
0
0
0
0
0
0
0
0
0
0
0
0
0
0
0
0
0
0
0
0
0
0
0
0
0
0
0
0
0
0
0
0
0
0
0
0
0
0
0
0
0
0
0
0
0
0
0
0
0
)
;
    }
}


// ************************************************************************* //
