/*--------------------------------*- C++ -*----------------------------------*\
| =========                 |                                                 |
| \\      /  F ield         | OpenFOAM: The Open Source CFD Toolbox           |
|  \\    /   O peration     | Version:  2506                                  |
|   \\  /    A nd           | Website:  www.openfoam.com                      |
|    \\/     M anipulation  |                                                 |
\*---------------------------------------------------------------------------*/
FoamFile
{
    version     2.0;
    format      ascii;
    arch        "LSB;label=32;scalar=64";
    class       surfaceScalarField;
    location    "0.1";
    object      phi;
}
// * * * * * * * * * * * * * * * * * * * * * * * * * * * * * * * * * * * * * //

dimensions      [0 3 -1 0 0 0 0];

oriented        oriented;

internalField   nonuniform List<scalar> 
3120
(
4.78456e-09
-2.48816e-10
5.64079e-08
-1.55718e-08
-6.88301e-09
9.51149e-08
-8.77135e-09
2.03364e-10
5.38988e-08
7.60322e-09
3.57201e-08
2.35596e-09
-6.28729e-10
2.09131e-09
6.48401e-08
-3.10394e-09
-7.66079e-10
5.55389e-08
4.24487e-10
2.76689e-09
5.32492e-08
-1.23558e-09
6.49247e-08
3.67958e-09
-2.38531e-09
-5.89542e-09
8.05706e-08
1.57876e-09
4.48359e-09
5.01008e-08
-4.14742e-09
-2.27765e-10
6.89094e-08
1.29025e-10
5.48091e-08
-6.52036e-10
4.33132e-09
5.72454e-08
-3.38499e-09
-5.29514e-09
8.1937e-08
-7.98756e-09
-8.22255e-09
7.14948e-08
-9.18044e-09
7.11699e-08
-1.42677e-08
-5.64827e-09
3.08177e-09
-6.11258e-09
6.11979e-08
7.37415e-09
4.41793e-10
8.91805e-08
1.10121e-08
7.77564e-10
4.64258e-08
-9.63581e-09
6.41089e-08
-4.60603e-10
9.1532e-09
-2.17953e-09
4.92249e-08
8.40261e-09
1.79688e-09
5.49343e-08
-1.5239e-10
-5.55479e-10
6.31372e-08
-2.59138e-10
4.99673e-08
5.42825e-09
1.10468e-08
1.4591e-08
4.51232e-08
5.45925e-09
3.59039e-09
5.38948e-08
2.30659e-09
1.32076e-09
7.01857e-08
1.48703e-09
4.90456e-08
6.3238e-09
3.28608e-09
7.50298e-08
-2.74012e-09
-2.42299e-09
9.26321e-08
-1.39576e-09
-2.39431e-09
7.05217e-08
2.26512e-09
4.9286e-08
9.658e-09
1.13186e-08
-6.85371e-09
1.72802e-09
5.58887e-08
1.87446e-08
6.83502e-09
4.78925e-08
7.68429e-09
-5.0334e-09
6.19599e-08
-5.20394e-09
1.00238e-07
-6.92147e-09
2.18586e-10
-1.19991e-10
4.74062e-08
4.04858e-09
1.2026e-09
5.67367e-08
3.16246e-09
-3.22901e-09
6.22189e-08
3.72386e-09
4.59357e-08
-1.73381e-09
2.40617e-09
1.72341e-09
3.86242e-08
4.59102e-10
-3.33518e-09
6.03796e-08
9.03416e-09
5.09148e-09
5.32901e-08
4.46191e-09
4.97676e-08
7.57407e-09
-2.32909e-09
6.88386e-08
5.24069e-09
8.22278e-09
7.46254e-08
4.11966e-09
1.08891e-08
6.72611e-08
5.68572e-09
5.93463e-08
4.58136e-09
7.09263e-10
-3.6036e-09
6.59556e-10
6.81317e-08
-1.09385e-09
-1.50159e-09
4.26877e-08
-7.76714e-09
-2.13724e-09
7.25005e-08
8.92249e-09
6.37459e-08
8.75248e-09
-5.87309e-09
-1.43305e-09
6.13984e-08
-1.95655e-09
1.93533e-09
4.93832e-08
2.66823e-09
3.91303e-09
5.15438e-08
3.5919e-09
5.30555e-08
8.79021e-10
-1.39229e-09
-5.67018e-09
4.77434e-08
4.3348e-10
-5.92885e-09
6.6418e-08
5.25318e-09
4.76254e-09
4.76209e-08
-5.26495e-10
6.24416e-08
-3.30245e-09
5.63933e-09
4.71283e-08
5.46966e-09
1.15459e-08
5.46217e-08
8.16823e-09
2.72312e-09
7.47667e-08
6.07973e-09
6.16925e-08
-4.87581e-09
4.72628e-09
1.53371e-09
1.19959e-09
7.80244e-08
-2.29347e-09
-5.61587e-10
5.2737e-08
-7.4562e-10
6.72046e-09
6.90958e-08
5.11229e-09
5.09673e-08
5.0045e-09
-4.8176e-10
3.11054e-09
6.67374e-08
2.64511e-09
-5.35078e-10
4.62298e-08
1.81739e-09
-2.15643e-09
6.12484e-08
-1.39796e-09
6.17869e-08
-4.03765e-10
-3.57849e-09
2.18688e-09
5.90073e-08
5.62913e-10
-1.6123e-11
6.17576e-08
4.41917e-09
1.83364e-10
4.14248e-08
-4.52527e-09
7.27339e-08
-2.74579e-09
-3.74156e-09
6.68342e-08
-4.30304e-09
2.95779e-10
4.9906e-08
6.62195e-10
-5.76405e-10
7.30485e-08
2.77365e-09
5.60363e-08
5.60584e-10
-6.10826e-12
1.27048e-09
4.71305e-09
7.49952e-08
1.93516e-09
4.42997e-09
5.82222e-08
1.04686e-08
9.85791e-09
5.3791e-08
6.10683e-09
7.55828e-08
-1.39095e-09
1.37078e-09
4.12182e-09
6.41007e-08
7.60143e-09
5.26768e-09
3.91615e-08
9.06654e-09
4.92948e-09
6.47117e-08
-6.0077e-09
8.87804e-08
-5.81247e-09
3.69455e-09
4.87642e-09
5.23962e-08
4.07666e-09
3.78916e-09
6.2854e-08
-2.56971e-09
-2.31851e-09
5.53192e-08
-6.95623e-11
6.30407e-08
1.18532e-09
4.7903e-09
5.92791e-08
1.84144e-09
-5.12337e-09
6.45356e-08
-9.26742e-10
-1.332e-09
7.28535e-08
-5.91481e-09
5.7774e-08
-1.62603e-09
-1.51325e-09
4.05501e-09
1.71544e-09
5.43468e-08
-2.76151e-09
-8.32944e-10
6.33685e-08
-2.81339e-09
-1.76903e-09
5.18391e-08
-2.52062e-09
7.21116e-08
2.96219e-09
2.12637e-09
1.19054e-09
5.96336e-08
-4.87514e-09
-4.39533e-09
4.97255e-08
-3.7849e-09
2.37631e-09
5.94763e-08
5.29621e-10
7.10267e-08
1.09187e-08
-3.54218e-09
-3.32402e-09
6.04081e-08
-3.36099e-10
-1.78007e-09
5.70327e-08
-8.59869e-10
-1.55192e-09
5.97711e-08
-2.04262e-09
6.60459e-08
-1.29281e-09
-3.5683e-09
6.16146e-08
-2.00118e-09
-3.23852e-09
6.81114e-08
-5.68579e-09
1.04293e-09
7.2447e-08
-5.42683e-09
6.43831e-08
-3.25162e-09
-4.35721e-09
6.16564e-11
4.88072e-08
6.15584e-08
3.24375e-08
3.92518e-08
2.45408e-08
3.56389e-08
3.65203e-08
5.30681e-08
2.34038e-08
8.15638e-08
2.80892e-08
5.24889e-10
3.49166e-08
6.62466e-08
2.35662e-08
3.97356e-08
2.6201e-08
2.37906e-08
2.76889e-08
6.80835e-08
1.84876e-08
8.0098e-08
1.96354e-08
4.53271e-09
2.5772e-08
6.39445e-08
1.07296e-08
2.49702e-08
6.56012e-08
1.61954e-08
2.06838e-08
6.131e-08
1.46534e-08
7.02997e-08
1.57751e-08
4.23332e-09
7.25717e-08
1.41467e-08
5.38784e-09
7.78527e-08
1.4075e-08
1.03122e-08
7.51975e-08
1.30088e-08
6.85077e-08
1.10847e-08
9.75563e-09
1.16731e-09
-3.0396e-08
4.65568e-08
-1.82355e-08
-2.23673e-08
4.20442e-08
-2.59012e-08
-2.46279e-08
4.77697e-08
-1.06336e-08
6.2168e-08
-1.36297e-08
1.70412e-09
-1.69612e-08
5.3353e-08
-1.67153e-08
-2.40995e-08
4.63526e-08
-1.58327e-08
-1.42708e-08
5.68438e-08
-5.50128e-09
6.65338e-08
-7.40163e-09
-1.91972e-09
-1.01383e-08
5.84042e-08
-6.47672e-09
-1.29337e-08
5.89925e-08
-8.89416e-09
-1.04811e-08
5.99377e-08
-3.90108e-09
6.4966e-08
-5.16121e-09
-4.36855e-09
6.41861e-08
-2.68423e-09
-3.79759e-09
6.72761e-08
-2.92796e-09
-3.15834e-09
6.79758e-08
-3.89895e-09
6.61604e-08
-2.83209e-09
-1.8804e-09
-8.67564e-10
-1.08665e-08
5.05554e-08
-7.53165e-09
-9.52616e-09
5.04522e-08
-1.2028e-08
-1.09574e-08
5.25504e-08
-7.29772e-09
5.89361e-08
-9.40911e-09
-1.73002e-09
-9.70046e-09
5.4381e-08
-7.71038e-09
-1.11092e-08
5.3916e-08
-9.82753e-09
-9.08059e-09
5.7084e-08
-5.34858e-09
6.15957e-08
-6.83887e-09
-2.87276e-09
-7.61788e-09
5.80314e-08
-5.0711e-09
-8.67986e-09
5.87617e-08
-6.75042e-09
-7.65127e-09
6.01875e-08
-4.33623e-09
6.27062e-08
-5.5035e-09
-4.00272e-09
6.0944e-08
-3.83597e-09
-3.97586e-09
6.25271e-08
-3.95781e-09
-3.62743e-09
6.36898e-08
-3.71357e-09
6.414e-08
-2.81505e-09
-3.12817e-09
-1.20697e-09
-5.97689e-09
5.42385e-08
-4.19951e-09
-6.0463e-09
5.45862e-08
-6.67678e-09
-6.42727e-09
5.57091e-08
-5.03506e-09
5.86413e-08
-6.0275e-09
-1.82883e-09
-5.94061e-09
5.63135e-08
-4.24291e-09
-6.36823e-09
5.66523e-08
-5.71968e-09
-5.92891e-09
5.80624e-08
-4.46644e-09
6.02478e-08
-4.94057e-09
-2.29773e-09
-4.88312e-09
5.83807e-08
-3.61638e-09
-5.26699e-09
5.89789e-08
-4.48312e-09
-4.8927e-09
6.00177e-08
-3.66368e-09
6.14478e-08
-4.02817e-09
-2.7322e-09
5.99748e-08
-3.12006e-09
-3.196e-09
6.08462e-08
-3.1223e-09
-3.28564e-09
6.174e-08
-2.85328e-09
6.25384e-08
-2.44006e-09
-2.90808e-09
-9.58538e-10
-3.23687e-09
5.67286e-08
-2.45037e-09
-3.48188e-09
5.69753e-08
-3.69615e-09
-3.62625e-09
5.76416e-08
-3.14863e-09
5.90156e-08
-3.60557e-09
-1.31827e-09
-3.46049e-09
5.77811e-08
-2.53341e-09
-3.70277e-09
5.80882e-08
-3.33491e-09
-3.59351e-09
5.88309e-08
-3.03075e-09
5.99465e-08
-3.15172e-09
-1.57144e-09
-3.02997e-09
5.88758e-08
-2.37087e-09
-3.20373e-09
5.92791e-08
-2.83629e-09
-3.03898e-09
5.99282e-08
-2.54509e-09
6.07674e-08
-2.64204e-09
-1.76884e-09
5.97681e-08
-2.19707e-09
-2.19324e-09
6.02653e-08
-2.19842e-09
-2.3456e-09
6.0854e-08
-2.00077e-09
6.14727e-08
-1.74808e-09
-2.0774e-09
-6.61828e-10
-1.71831e-09
5.81772e-08
-1.42883e-09
-1.90438e-09
5.83333e-08
-2.02505e-09
-1.99425e-09
5.87212e-08
-1.85903e-09
5.93901e-08
-2.04907e-09
-8.71177e-10
-1.94782e-09
5.87076e-08
-1.50687e-09
-2.0946e-09
5.8914e-08
-1.91918e-09
-2.07873e-09
5.93275e-08
-1.87221e-09
5.99141e-08
-1.87396e-09
-1.02042e-09
-1.80475e-09
5.92854e-08
-1.47706e-09
-1.89615e-09
5.95372e-08
-1.72806e-09
-1.82731e-09
5.99274e-08
-1.61794e-09
6.04155e-08
-1.63086e-09
-1.12085e-09
5.97854e-08
-1.41086e-09
-1.40768e-09
6.00741e-08
-1.41827e-09
-1.51718e-09
6.04402e-08
-1.30437e-09
6.08471e-08
-1.15631e-09
-1.35374e-09
-4.38183e-10
-9.21821e-10
5.89825e-08
-8.33678e-10
-1.04124e-09
5.90802e-08
-1.11823e-09
-1.10453e-09
5.9302e-08
-1.08074e-09
5.96418e-08
-1.14757e-09
-5.61857e-10
-1.09139e-09
5.92538e-08
-8.93764e-10
-1.17879e-09
5.93835e-08
-1.10045e-09
-1.18934e-09
5.96188e-08
-1.11697e-09
5.99352e-08
-1.08544e-09
-6.49228e-10
-1.05562e-09
5.95626e-08
-9.00583e-10
-1.10671e-09
5.97163e-08
-1.03067e-09
-1.07986e-09
5.99476e-08
-9.87913e-10
6.02293e-08
-9.73996e-10
-7.03666e-10
5.9844e-08
-8.6912e-10
-8.75476e-10
6.00148e-08
-8.75676e-10
-9.37753e-10
6.02366e-08
-8.14323e-10
6.04867e-08
-7.28709e-10
-8.37044e-10
-2.87189e-10
-5.06998e-10
5.9423e-08
-4.89646e-10
-5.79343e-10
5.94848e-08
-6.26933e-10
-6.23027e-10
5.96111e-08
-6.29623e-10
5.979e-08
-6.43956e-10
-3.59903e-10
-6.17415e-10
5.95653e-08
-5.32123e-10
-6.6914e-10
5.96457e-08
-6.33859e-10
-6.83612e-10
5.97811e-08
-6.5953e-10
5.99552e-08
-6.24078e-10
-4.11162e-10
-6.16393e-10
5.97331e-08
-5.45459e-10
-6.45498e-10
5.9827e-08
-6.09513e-10
-6.35563e-10
5.99635e-08
-5.93137e-10
6.01255e-08
-5.72462e-10
-4.4172e-10
5.98928e-08
-5.27104e-10
-5.37032e-10
5.99955e-08
-5.3089e-10
-5.66883e-10
6.01284e-08
-4.97655e-10
6.02774e-08
-4.47997e-10
-5.0313e-10
-1.87824e-10
-2.86438e-10
5.96633e-08
-2.90922e-10
-3.29729e-10
5.97025e-08
-3.57275e-10
-3.58692e-10
5.97748e-08
-3.7023e-10
5.98717e-08
-3.64179e-10
-2.30879e-10
-3.54528e-10
5.97397e-08
-3.19288e-10
-3.85139e-10
5.97898e-08
-3.68115e-10
-3.97117e-10
5.98684e-08
-3.8991e-10
5.99657e-08
-3.59089e-10
-2.61165e-10
-3.61982e-10
5.98325e-08
-3.30839e-10
-3.78695e-10
5.98904e-08
-3.60264e-10
-3.75285e-10
5.9971e-08
-3.54721e-10
6.00643e-08
-3.34559e-10
-2.78661e-10
5.9924e-08
-3.18304e-10
-3.28432e-10
5.99866e-08
-3.20002e-10
-3.39836e-10
6.00661e-08
-3.01608e-10
6.01539e-08
-2.7275e-10
-2.98461e-10
-1.23479e-10
-1.66668e-10
5.9794e-08
-1.75634e-10
-1.92506e-10
5.9819e-08
-2.07276e-10
-2.11011e-10
5.9861e-08
-2.20639e-10
5.99148e-08
-2.08425e-10
-1.49109e-10
-2.07361e-10
5.98361e-08
-1.93807e-10
-2.25476e-10
5.98676e-08
-2.16241e-10
-2.33946e-10
5.99138e-08
-2.32326e-10
5.99691e-08
-2.0795e-10
-1.67069e-10
-2.14788e-10
5.98884e-08
-2.02083e-10
-2.24386e-10
5.99245e-08
-2.14107e-10
-2.23343e-10
5.99724e-08
-2.129e-10
6.00266e-08
-1.95858e-10
-1.77153e-10
5.99414e-08
-1.92651e-10
-2.01668e-10
5.99802e-08
-1.93151e-10
-2.03879e-10
6.00279e-08
-1.82703e-10
6.00796e-08
-1.65868e-10
-1.76495e-10
-8.19909e-11
-1.00053e-10
5.9865e-08
-1.08039e-10
-1.15364e-10
5.98812e-08
-1.22621e-10
-1.26817e-10
5.99061e-08
-1.33475e-10
5.99366e-08
-1.21115e-10
-9.71873e-11
-1.23808e-10
5.98889e-08
-1.19297e-10
-1.34458e-10
5.9909e-08
-1.28805e-10
-1.3996e-10
5.99366e-08
-1.39944e-10
5.99686e-08
-1.21704e-10
-1.07782e-10
-1.29121e-10
5.99191e-08
-1.24701e-10
-1.34572e-10
5.99419e-08
-1.28444e-10
-1.34275e-10
5.99707e-08
-1.28705e-10
6.00025e-08
-1.15445e-10
-1.13555e-10
5.99502e-08
-1.17297e-10
-1.24793e-10
5.99746e-08
-1.17199e-10
-1.23063e-10
6.00035e-08
-1.11089e-10
6.00341e-08
-1.01194e-10
-1.04733e-10
-5.49452e-11
-6.17794e-11
5.99035e-08
-6.76712e-11
-7.07618e-11
5.99143e-08
-7.39463e-11
-7.76644e-11
5.99294e-08
-8.18758e-11
5.99473e-08
-7.15504e-11
-6.38719e-11
-7.53922e-11
5.99177e-08
-7.4456e-11
-8.15771e-11
5.99307e-08
-7.78419e-11
-8.49539e-11
5.99476e-08
-8.52333e-11
5.99664e-08
-7.21322e-11
-7.00479e-11
-7.86459e-11
5.99355e-08
-7.77793e-11
-8.16792e-11
5.99502e-08
-7.78977e-11
-8.15553e-11
5.99678e-08
-7.84319e-11
5.99867e-08
-6.87061e-11
-7.33003e-11
5.99542e-08
-7.19178e-11
-7.7899e-11
5.99697e-08
-7.15739e-11
-7.49165e-11
5.99875e-08
-6.79001e-11
6.00058e-08
-6.20242e-11
-6.25961e-11
-3.69092e-11
-3.88612e-11
5.99245e-08
-4.29265e-11
-4.41053e-11
5.99318e-08
-4.52792e-11
-4.81904e-11
5.99414e-08
-5.07211e-11
5.99521e-08
-4.28884e-11
-4.21279e-11
-4.65648e-11
5.99333e-08
-4.69402e-11
-5.01198e-11
5.9942e-08
-4.76021e-11
-5.21119e-11
5.99525e-08
-5.23296e-11
5.99639e-08
-4.32487e-11
-4.5689e-11
-4.83649e-11
5.99442e-08
-4.89011e-11
-5.00113e-11
5.99538e-08
-4.7675e-11
-4.98985e-11
5.99649e-08
-4.80634e-11
5.99764e-08
-4.12637e-11
-4.74858e-11
5.99556e-08
-4.43248e-11
-4.89438e-11
5.99657e-08
-4.39194e-11
-4.59402e-11
5.99769e-08
-4.16515e-11
5.99881e-08
-3.81195e-11
-3.76697e-11
-2.4589e-11
-2.45616e-11
5.99359e-08
-2.72942e-11
-2.76086e-11
5.99411e-08
-2.79024e-11
-2.99849e-11
5.99473e-08
-3.14454e-11
5.99541e-08
-2.59038e-11
-2.76248e-11
-2.88657e-11
5.99416e-08
-2.96273e-11
-3.08842e-11
5.99476e-08
-2.92267e-11
-3.2015e-11
5.99545e-08
-3.21156e-11
5.99617e-08
-2.60651e-11
-2.96524e-11
-2.97794e-11
5.99485e-08
-3.07393e-11
-3.06392e-11
5.99551e-08
-2.92328e-11
-3.05082e-11
5.99623e-08
-2.93853e-11
5.99696e-08
-2.48559e-11
-3.06156e-11
5.99558e-08
-2.72806e-11
-3.07093e-11
5.99626e-08
-2.68931e-11
-2.81789e-11
5.99699e-08
-2.54609e-11
5.99771e-08
-2.33169e-11
-2.26842e-11
-1.60076e-11
-1.53326e-11
5.99418e-08
-1.7109e-11
-1.70418e-11
5.99457e-08
-1.702e-11
-1.83641e-11
5.99501e-08
-1.91549e-11
5.99547e-08
-1.55168e-11
-1.77127e-11
-1.76454e-11
5.99458e-08
-1.84041e-11
-1.87427e-11
5.99502e-08
-1.77204e-11
-1.93384e-11
5.9955e-08
-1.93447e-11
5.99599e-08
-1.554e-11
-1.88199e-11
-1.80429e-11
5.99505e-08
-1.89886e-11
-1.8451e-11
5.99553e-08
-1.76648e-11
-1.83066e-11
5.99603e-08
-1.76011e-11
5.99653e-08
-1.47807e-11
-1.9301e-11
5.99554e-08
-1.64869e-11
-1.89115e-11
5.99604e-08
-1.61495e-11
-1.70052e-11
5.99655e-08
-1.52373e-11
5.99703e-08
-1.3939e-11
-1.34542e-11
-1.00011e-11
-9.26596e-12
5.99445e-08
-1.03397e-11
-1.01492e-11
5.99477e-08
-1.00279e-11
-1.08189e-11
5.99512e-08
-1.12024e-11
5.99547e-08
-8.97712e-12
-1.08834e-11
-1.03712e-11
5.99476e-08
-1.09903e-11
-1.09113e-11
5.99512e-08
-1.0349e-11
-1.11858e-11
5.99549e-08
-1.11492e-11
5.99585e-08
-8.92397e-12
-1.14348e-11
-1.04578e-11
5.99512e-08
-1.12589e-11
-1.0614e-11
5.9955e-08
-1.02701e-11
-1.04828e-11
5.99588e-08
-1.00592e-11
5.99625e-08
-8.46295e-12
-1.16467e-11
5.99549e-08
-9.49139e-12
-1.11753e-11
5.99588e-08
-9.22729e-12
-9.87528e-12
5.99627e-08
-8.67273e-12
5.99663e-08
-7.92727e-12
-7.69475e-12
-6.33037e-12
-5.73325e-12
-6.32424e-12
-6.16483e-12
-5.96536e-12
-6.46536e-12
-6.61138e-12
-5.23113e-12
-6.76194e-12
-6.11149e-12
-6.61017e-12
-6.34774e-12
-6.06589e-12
-6.43752e-12
-6.35964e-12
-5.12383e-12
-7.01058e-12
-5.99144e-12
-6.69762e-12
-6.01336e-12
-5.96016e-12
-5.87798e-12
-5.5769e-12
-4.79989e-12
-7.07891e-12
-5.36084e-12
-6.59591e-12
-5.1508e-12
-5.67658e-12
-4.77314e-12
-4.27752e-12
-4.30806e-12
2.56399e-09
-1.90344e-09
6.30885e-08
-1.76754e-09
-2.05787e-09
5.65602e-08
-2.52903e-09
-5.4643e-09
4.59054e-08
-8.23079e-10
1.64884e-08
2.3402e-09
-8.66753e-10
-4.94731e-09
7.70053e-08
-2.85483e-09
-4.48125e-09
7.03133e-08
-1.29217e-09
2.22863e-09
4.69796e-08
2.26334e-09
3.46792e-08
4.03506e-09
-2.60282e-09
-1.09823e-08
8.40661e-08
6.73567e-10
-3.59333e-09
6.86579e-08
-1.75449e-09
-4.10832e-09
7.22026e-08
5.18388e-09
4.5244e-08
3.97324e-10
-1.04592e-09
6.76788e-08
1.03459e-09
7.54407e-08
1.66855e-09
6.696e-08
6.45546e-08
-3.21287e-10
4.03523e-09
1.33714e-09
5.22845e-08
2.96159e-09
4.63694e-09
5.1601e-08
4.726e-09
3.79655e-09
4.26095e-08
-2.9073e-10
3.14117e-08
-2.48608e-10
5.89937e-09
-7.86296e-10
7.00304e-08
1.77903e-09
2.19933e-09
7.68711e-08
1.84778e-09
4.23938e-10
5.02834e-08
3.31224e-09
3.06876e-08
2.23639e-09
6.81101e-09
-9.06924e-10
7.45595e-08
2.26293e-09
-6.38744e-09
8.17927e-08
3.77091e-09
3.18953e-09
6.79289e-08
5.47787e-09
4.49415e-08
1.9077e-09
4.71523e-09
6.23547e-08
4.96951e-09
7.14411e-08
4.08405e-09
7.07695e-08
7.13377e-08
2.52885e-09
5.75164e-10
-6.94176e-09
5.93288e-08
6.66288e-09
3.29771e-09
4.63352e-08
6.26445e-09
2.18873e-09
4.65049e-08
-1.76949e-09
4.59793e-08
-1.95226e-09
6.16961e-09
2.62987e-09
4.56312e-08
5.57555e-09
4.89065e-09
7.58722e-08
1.75762e-09
9.14027e-09
4.71497e-08
2.76e-10
3.22589e-08
-1.85922e-09
9.36608e-09
1.19484e-08
4.97044e-08
1.00987e-08
6.3725e-09
7.95782e-08
-1.04614e-09
1.39054e-08
7.43086e-08
6.08866e-09
3.86096e-08
-5.2691e-10
5.54754e-09
6.86127e-08
8.75762e-09
7.76816e-08
-4.51923e-09
9.77656e-08
7.19661e-08
7.88233e-10
5.55123e-09
4.14448e-09
5.98172e-08
2.82083e-09
-4.83884e-09
6.20727e-08
-4.7631e-09
-3.28412e-09
6.34527e-08
2.8986e-09
2.99268e-08
3.51498e-09
-4.60592e-10
2.42626e-10
5.5031e-08
3.28412e-09
-2.93344e-09
7.02221e-08
4.19154e-10
5.42309e-10
4.61882e-08
5.48121e-09
3.23276e-08
-2.23226e-09
-7.39257e-10
-5.61948e-09
7.20407e-08
3.60037e-09
8.9388e-10
7.14112e-08
3.88745e-09
5.98972e-09
6.8574e-08
2.34377e-09
5.0477e-08
-4.8425e-09
3.41229e-09
6.49547e-08
5.75596e-09
7.64635e-08
3.78169e-09
1.06076e-07
8.33831e-08
-6.24514e-09
1.80382e-09
-8.64305e-10
5.96367e-08
2.79583e-09
-1.02093e-08
7.19521e-08
-1.56156e-09
1.0219e-09
6.95618e-08
7.52342e-10
3.04494e-08
-2.27595e-09
-2.35558e-09
2.68014e-09
5.5817e-08
6.29765e-09
2.56808e-10
5.11028e-08
2.86742e-10
-6.97915e-09
6.02001e-08
-9.35013e-09
4.49732e-08
-2.25635e-09
-6.60573e-09
-1.36959e-08
1.15296e-07
1.46976e-09
-7.5485e-09
7.1141e-08
-2.21208e-10
-1.20678e-08
7.53536e-08
-5.36061e-09
4.7833e-08
-1.56673e-09
-1.33442e-09
6.32961e-08
2.26975e-10
6.96329e-08
4.10879e-09
9.36608e-08
8.8045e-08
-4.75937e-09
2.89238e-09
-4.74326e-09
6.38732e-08
-6.63231e-09
-2.73792e-09
8.3288e-08
3.13265e-09
-2.09634e-09
5.59784e-08
-2.1078e-09
3.39445e-08
1.19376e-10
2.70394e-09
-2.64101e-09
5.72005e-08
-3.72718e-09
-1.41962e-08
6.89921e-08
3.71663e-09
-1.94928e-08
7.01528e-08
-2.11193e-08
6.70524e-08
6.4892e-10
-3.09823e-09
5.58122e-09
1.18623e-07
7.8285e-10
-2.20961e-09
5.52734e-08
2.0406e-10
-3.05674e-08
8.70069e-08
-1.63077e-08
4.12035e-08
2.02192e-09
-4.04092e-09
9.01104e-08
-8.70312e-09
7.38919e-08
1.89768e-09
5.49942e-08
7.40607e-08
5.88223e-09
-8.15239e-09
1.31129e-09
6.7273e-08
4.53119e-10
-1.55123e-09
7.0548e-08
2.76062e-09
-1.19297e-08
6.01738e-08
-8.76822e-09
4.22593e-08
-3.77043e-11
-2.27438e-09
-6.99282e-09
6.66766e-08
-1.4427e-10
-3.47744e-09
6.87884e-08
2.35985e-09
-1.39374e-08
6.96563e-08
6.83434e-09
4.91188e-08
4.69104e-09
8.27774e-09
2.89936e-09
9.91237e-08
-2.14276e-09
-2.24467e-09
6.44612e-08
1.09006e-09
8.59404e-11
6.97509e-08
-6.29968e-09
5.48488e-08
5.78807e-10
9.49153e-09
8.27022e-08
6.57356e-09
6.64866e-08
-3.87694e-09
6.41708e-08
6.38803e-08
-1.95131e-09
2.37991e-09
1.18166e-08
7.07799e-08
1.92396e-09
1.07875e-08
7.42924e-08
1.71102e-09
6.7562e-09
6.66407e-08
1.08863e-08
4.4786e-08
-6.17257e-10
2.95242e-09
7.21647e-09
7.41673e-08
2.62663e-09
9.28471e-09
7.06169e-08
2.99242e-09
1.53466e-10
7.58942e-08
1.03238e-08
5.29143e-08
-2.40222e-10
5.62926e-09
4.93326e-09
1.03168e-07
1.54005e-09
7.30759e-09
7.05283e-08
4.56731e-09
-4.0227e-09
7.09008e-08
7.1127e-09
6.24338e-08
1.9396e-10
7.5409e-09
9.60894e-08
4.15287e-10
8.09206e-08
5.72866e-09
5.48356e-08
7.60354e-08
6.86435e-10
-4.70482e-09
-2.13696e-13
6.73368e-08
-3.7837e-09
3.6882e-09
6.67556e-08
-1.23016e-09
1.98453e-09
5.82046e-08
-6.36883e-10
4.11937e-08
1.67671e-10
-4.23014e-09
-2.34116e-09
7.3935e-08
-5.4183e-09
4.96597e-09
7.05277e-08
-2.6327e-09
8.10047e-09
6.6993e-08
-3.05412e-10
5.03896e-08
-4.38771e-10
-1.46977e-09
3.3808e-09
9.05124e-08
-3.86559e-09
2.85882e-09
7.50326e-08
-5.03055e-09
9.80208e-09
7.0365e-08
-5.04375e-10
5.88894e-08
-1.28696e-09
-2.88612e-09
9.26962e-08
-2.74325e-09
8.36374e-08
-7.17515e-09
6.90703e-08
7.03714e-08
-2.01554e-09
-3.822e-09
-1.82028e-09
6.50927e-08
-2.81622e-09
-3.05138e-10
6.20971e-08
-1.24286e-09
-6.45212e-10
5.35631e-08
-2.0866e-09
3.94418e-08
-2.18993e-10
-3.39707e-09
-2.61144e-09
7.34783e-08
-3.77706e-09
1.01611e-09
6.95868e-08
-2.06812e-09
2.54858e-09
6.20905e-08
-1.39571e-09
4.81383e-08
-5.07494e-10
-1.99052e-09
5.15119e-10
8.39775e-08
-3.34406e-09
6.4637e-10
7.67564e-08
-3.12916e-09
3.80183e-09
6.88973e-08
-1.46428e-09
5.67917e-08
-9.62977e-10
-2.62159e-09
9.03475e-08
-2.7023e-09
8.4365e-08
-4.22617e-09
7.43965e-08
6.597e-08
-1.28926e-09
-2.46542e-09
-1.90105e-09
6.39403e-08
-2.09341e-09
-1.47954e-09
6.00821e-08
-1.28687e-09
-1.51547e-09
5.14189e-08
-2.11406e-09
3.80745e-08
-2.45297e-10
-2.46284e-09
-1.42548e-09
7.27642e-08
-2.48644e-09
-4.37128e-10
6.8568e-08
-1.66572e-09
-9.74334e-11
5.98514e-08
-1.63154e-09
4.63801e-08
-3.90104e-10
-2.03186e-09
-8.78525e-11
8.17466e-08
-2.46242e-09
7.07974e-11
7.66795e-08
-2.06981e-09
6.93477e-10
6.77138e-08
-1.09342e-09
5.47377e-08
-5.54295e-10
-2.21746e-09
8.95598e-08
-2.37429e-09
8.45929e-08
-2.41556e-09
7.51314e-08
6.31174e-08
-6.56741e-10
-1.54283e-09
-1.55714e-09
6.34207e-08
-1.36345e-09
-1.50907e-09
5.92132e-08
-8.85802e-10
-1.45976e-09
5.04002e-08
-1.64912e-09
3.72495e-08
-1.59753e-10
-1.61883e-09
-9.71814e-10
7.22035e-08
-1.52491e-09
-8.15561e-10
6.77805e-08
-1.03984e-09
-7.78824e-10
5.86849e-08
-1.34432e-09
4.52633e-08
-2.28041e-10
-1.5544e-09
-2.51029e-10
8.08868e-08
-1.57185e-09
-2.54416e-10
7.61359e-08
-1.19588e-09
-2.03821e-10
6.67625e-08
-8.17649e-10
5.33012e-08
-2.86591e-10
-1.60291e-09
8.918e-08
-1.58711e-09
8.43228e-08
-1.30547e-09
7.46459e-08
6.13118e-08
-3.1794e-10
-9.65968e-10
-1.09663e-09
6.3208e-08
-8.59305e-10
-1.12069e-09
5.88089e-08
-5.56459e-10
-1.08804e-09
4.98809e-08
-1.13033e-09
3.67585e-08
-9.1702e-11
-1.03027e-09
-7.07554e-10
7.18843e-08
-9.35732e-10
-7.22532e-10
6.72875e-08
-6.17258e-10
-7.38093e-10
5.80159e-08
-9.34797e-10
4.45744e-08
-1.2431e-10
-1.03623e-09
-2.73688e-10
8.0474e-08
-9.67329e-10
-3.15208e-10
7.56596e-08
-6.73437e-10
-3.40614e-10
6.60707e-08
-5.60634e-10
5.24004e-08
-1.47326e-10
-1.0512e-09
8.89108e-08
-9.75274e-10
8.39316e-08
-7.05518e-10
7.40353e-08
6.02029e-08
-1.57712e-10
-6.03131e-10
-7.18899e-10
6.31199e-08
-5.31306e-10
-7.46614e-10
5.86077e-08
-3.36089e-10
-7.28717e-10
4.95997e-08
-7.26557e-10
3.64687e-08
-4.89528e-11
-6.44128e-10
-4.90167e-10
7.17071e-08
-5.68191e-10
-5.25341e-10
6.69899e-08
-3.59387e-10
-5.42297e-10
5.76202e-08
-6.05768e-10
4.41589e-08
-6.50285e-11
-6.56231e-10
-2.24154e-10
8.02431e-08
-5.83357e-10
-2.59428e-10
7.53206e-08
-3.77745e-10
-2.85585e-10
6.56079e-08
-3.62731e-10
5.1854e-08
-7.48797e-11
-6.61118e-10
8.87108e-08
-5.8405e-10
8.35949e-08
-3.84885e-10
7.35503e-08
5.95338e-08
-7.87856e-11
-3.77116e-10
-4.56487e-10
6.30788e-08
-3.24868e-10
-4.75397e-10
5.84998e-08
-1.98764e-10
-4.64635e-10
4.94403e-08
-4.52218e-10
3.62982e-08
-2.44476e-11
-4.00047e-10
-3.26124e-10
7.16024e-08
-3.42017e-10
-3.52587e-10
6.68088e-08
-2.07027e-10
-3.62424e-10
5.73826e-08
-3.79275e-10
4.39112e-08
-3.25465e-11
-4.0767e-10
-1.62561e-10
8.0099e-08
-3.47657e-10
-1.85489e-10
7.50933e-08
-2.11801e-10
-2.01535e-10
6.53108e-08
-2.27309e-10
5.1527e-08
-3.70615e-11
-4.08656e-10
8.85616e-08
-3.45508e-10
8.33462e-08
-2.11699e-10
7.32149e-08
5.91334e-08
-3.88051e-11
-2.37262e-10
-2.85316e-10
6.30559e-08
-1.98354e-10
-2.9639e-10
5.84373e-08
-1.16746e-10
-2.89325e-10
4.93465e-08
-2.77247e-10
3.61972e-08
-1.12516e-11
-2.49108e-10
-2.11413e-10
7.15367e-08
-2.05892e-10
-2.27596e-10
6.66968e-08
-1.19172e-10
-2.31844e-10
5.72383e-08
-2.33407e-10
4.37636e-08
-1.53537e-11
-2.52553e-10
-1.10836e-10
8.00039e-08
-2.07063e-10
-1.24298e-10
7.49446e-08
-1.19399e-10
-1.32531e-10
6.51238e-08
-1.4003e-10
5.13316e-08
-1.75029e-11
-2.52023e-10
8.84527e-08
-2.04377e-10
8.31744e-08
-1.1773e-10
7.29958e-08
5.8894e-08
-1.84385e-11
-1.50606e-10
-1.7712e-10
6.3041e-08
-1.21792e-10
-1.83196e-10
5.83988e-08
-6.87914e-11
-1.78378e-10
4.92895e-08
-1.69126e-10
3.61365e-08
-4.60352e-12
-1.56385e-10
-1.34822e-10
7.14939e-08
-1.24835e-10
-1.44025e-10
6.66264e-08
-6.91077e-11
-1.45313e-10
5.71496e-08
-1.42662e-10
4.36749e-08
-6.68041e-12
-1.57465e-10
-7.29182e-11
7.99401e-08
-1.24297e-10
-8.04936e-11
7.48483e-08
-6.80664e-11
-8.43526e-11
6.50068e-08
-8.56162e-11
5.12142e-08
-7.70929e-12
-1.5651e-10
8.83758e-08
-1.22004e-10
8.30598e-08
-6.64678e-11
7.28563e-08
5.87503e-08
-8.27167e-12
-9.64722e-11
-1.09796e-10
6.30304e-08
-7.5474e-11
-1.13028e-10
5.83741e-08
-4.09236e-11
-1.09708e-10
4.92541e-08
-1.03214e-10
3.60996e-08
-1.51862e-12
-9.91451e-11
-8.51757e-11
7.14656e-08
-7.65115e-11
-9.02873e-11
6.65816e-08
-4.05838e-11
-9.02922e-11
5.70946e-08
-8.71091e-11
4.36211e-08
-2.56125e-12
-9.91587e-11
-4.69772e-11
7.98973e-08
-7.55185e-11
-5.11814e-11
7.47862e-08
-3.93993e-11
-5.28673e-11
6.49337e-08
-5.22381e-11
5.11432e-08
-3.05301e-12
-9.823e-11
8.83229e-08
-7.38212e-11
8.29848e-08
-3.82144e-11
7.27682e-08
5.86634e-08
-3.4168e-12
-6.22687e-11
-6.81304e-11
6.30228e-08
-4.72491e-11
-6.98199e-11
5.8358e-08
-2.46654e-11
-6.75338e-11
4.92319e-08
-6.31413e-11
3.6077e-08
-2.41166e-13
-6.34239e-11
-5.35345e-11
7.14467e-08
-4.7451e-11
-5.63571e-11
6.6553e-08
-2.42039e-11
-5.59125e-11
5.70603e-08
-5.32444e-11
4.35884e-08
-7.5363e-13
-6.30542e-11
-2.98858e-11
7.98689e-08
-4.64902e-11
-3.22049e-11
7.47464e-08
-2.32092e-11
-3.28666e-11
6.4888e-08
-3.18599e-11
5.11001e-08
-9.8307e-13
-6.22928e-11
8.82874e-08
-4.53147e-11
8.29362e-08
-2.24106e-11
7.2713e-08
5.86106e-08
-1.22844e-12
-4.0351e-11
-4.23108e-11
6.30173e-08
-2.9805e-11
-4.31639e-11
5.83474e-08
-1.50494e-11
-4.1589e-11
4.92178e-08
-3.86622e-11
3.6063e-08
1.92134e-13
-4.07828e-11
-3.35241e-11
7.14342e-08
-2.96935e-11
-3.50605e-11
6.65346e-08
-1.46394e-11
-3.45249e-11
5.70389e-08
-3.25336e-11
4.35683e-08
-5.10016e-14
-4.03314e-11
-1.88441e-11
7.98502e-08
-2.89126e-11
-2.0101e-11
7.47209e-08
-1.38898e-11
-2.02982e-11
6.48595e-08
-1.93924e-11
5.10737e-08
-1.54228e-13
-3.97499e-11
8.82639e-08
-2.8127e-11
8.29051e-08
-1.33763e-11
7.26786e-08
5.85785e-08
-3.21818e-13
-2.60179e-11
-2.61611e-11
6.30134e-08
-1.87827e-11
-2.6547e-11
5.83404e-08
-9.22782e-12
-2.54608e-11
4.9209e-08
-2.35343e-11
3.60545e-08
2.66224e-13
-2.61117e-11
-2.08329e-11
7.1426e-08
-1.85811e-11
-2.16337e-11
6.65229e-08
-8.91146e-12
-2.11474e-11
5.70256e-08
-1.97468e-11
4.35561e-08
1.55136e-13
-2.56996e-11
-1.17424e-11
7.98381e-08
-1.79999e-11
-1.23955e-11
7.47049e-08
-8.38001e-12
-1.23982e-11
6.48419e-08
-1.17079e-11
5.10578e-08
1.10153e-13
-2.52761e-11
8.82488e-08
-1.7491e-11
8.28855e-08
-8.05978e-12
7.26572e-08
5.8559e-08
-1.42087e-15
-1.63945e-11
-1.58409e-11
6.30107e-08
-1.16196e-11
-1.59719e-11
5.8336e-08
-5.59559e-12
-1.52379e-11
4.92035e-08
-1.40079e-11
3.60493e-08
2.0175e-13
-1.63486e-11
-1.26466e-11
7.14208e-08
-1.14262e-11
-1.30356e-11
6.65157e-08
-5.37414e-12
-1.26553e-11
5.70175e-08
-1.17255e-11
4.35488e-08
1.51594e-13
-1.60288e-11
-7.12449e-12
7.98305e-08
-1.10278e-11
-7.44615e-12
7.4695e-08
-5.01989e-12
-7.39265e-12
6.48313e-08
-6.91671e-12
5.10482e-08
1.31775e-13
-1.57427e-11
8.82393e-08
-1.07156e-11
8.28734e-08
-4.82671e-12
7.26443e-08
5.85474e-08
6.13254e-14
-9.90205e-12
-9.10399e-12
6.30089e-08
-6.93219e-12
-9.11677e-12
5.83332e-08
-3.31844e-12
-8.65734e-12
4.92002e-08
-7.93928e-12
3.60462e-08
9.51559e-14
-9.82539e-12
-7.27025e-12
7.14176e-08
-6.79345e-12
-7.44627e-12
6.65114e-08
-3.18648e-12
-7.1913e-12
5.70128e-08
-6.63708e-12
4.35445e-08
7.21552e-14
-9.61568e-12
-4.08827e-12
7.9826e-08
-6.54831e-12
-4.24306e-12
7.46892e-08
-2.97249e-12
-4.19707e-12
6.48251e-08
-3.90563e-12
5.10427e-08
6.23702e-14
-9.44268e-12
8.82336e-08
-6.36855e-12
8.28662e-08
-2.85707e-12
7.26368e-08
5.85407e-08
2.23654e-14
-6.03703e-12
-5.1445e-12
-4.13009e-12
-5.12447e-12
-1.94225e-12
-4.84052e-12
-4.38984e-12
-1.65292e-14
-5.97445e-12
-4.13407e-12
-4.02922e-12
-4.22329e-12
-1.84976e-12
-4.06304e-12
-3.72646e-12
-2.32233e-14
-5.8625e-12
-2.36035e-12
-3.89323e-12
-2.44936e-12
-1.72935e-12
-2.407e-12
-2.2187e-12
-2.7167e-14
-5.76901e-12
-3.78477e-12
-1.64743e-12
-3.83711e-14
3.22727e-09
2.68541e-09
4.97569e-08
5.56389e-09
-1.26668e-09
6.6589e-08
-6.8169e-09
-6.54913e-10
9.54319e-08
7.97127e-09
6.92149e-08
-1.48643e-09
-6.17384e-09
7.07272e-08
4.44585e-09
-1.36503e-10
5.87123e-08
9.58969e-09
-1.3749e-09
6.9238e-08
-1.0908e-08
1.09798e-07
6.41367e-09
-2.71361e-09
3.82418e-08
3.76971e-09
-3.19164e-09
6.20854e-08
-1.33291e-08
-5.93968e-09
8.61056e-08
-1.17797e-09
4.87076e-08
3.3413e-09
2.59573e-08
-4.49213e-09
5.07426e-08
-7.52624e-12
4.03854e-08
5.6439e-08
3.29979e-09
-1.90749e-09
4.95088e-08
7.43402e-09
3.40921e-09
6.19784e-08
8.32939e-09
6.96499e-09
1.00695e-07
4.70805e-09
8.95178e-08
5.40795e-09
1.74603e-09
6.70939e-08
3.93517e-09
4.06322e-09
5.9531e-08
-7.60093e-09
5.41979e-09
8.23192e-08
8.80149e-09
1.03593e-07
6.23145e-09
-1.36934e-09
4.14494e-08
7.11009e-09
-1.20454e-10
6.53903e-08
4.41884e-09
-9.1664e-10
9.51332e-08
-2.96934e-09
6.59327e-08
7.83809e-09
2.78198e-08
2.80239e-09
5.78941e-08
3.48934e-09
4.06894e-08
5.88986e-08
-1.05991e-09
1.0552e-09
4.79756e-08
-4.09639e-09
1.88643e-09
6.54624e-08
6.19583e-09
7.77436e-09
7.88422e-08
2.15263e-09
9.7069e-08
1.57032e-10
1.17757e-08
5.44824e-08
3.30497e-09
3.41178e-09
5.48577e-08
-5.76198e-09
7.93209e-09
9.12283e-08
1.2953e-08
8.91023e-08
-8.30243e-09
-1.40858e-09
7.05102e-08
6.54211e-09
1.74529e-09
5.22122e-08
1.33387e-08
1.71344e-09
9.45552e-08
3.27748e-09
8.90249e-08
-2.74244e-09
2.79106e-08
6.02807e-09
4.90096e-08
8.70237e-09
3.92016e-08
7.11718e-08
6.36467e-10
2.03237e-09
5.55814e-08
-8.44019e-09
7.97621e-10
7.93966e-08
-5.14818e-09
9.70188e-10
7.3693e-08
1.55542e-09
9.17106e-08
-1.70551e-09
2.14528e-09
5.6954e-08
-5.41508e-09
1.58227e-09
5.77826e-08
-3.95774e-09
7.7832e-10
8.99628e-08
2.7909e-09
8.53611e-08
-3.41508e-09
7.25898e-09
6.55091e-08
-1.73007e-09
3.44228e-09
4.86672e-08
4.06219e-09
6.17988e-09
8.33614e-08
8.35996e-09
8.57044e-08
-9.9534e-09
5.33642e-08
-1.63214e-09
4.18983e-08
3.48656e-09
3.54202e-08
7.57577e-08
-4.83467e-09
-1.00864e-09
7.65616e-08
-5.63964e-09
-2.31758e-09
9.1288e-08
4.09774e-10
-3.39157e-09
7.88565e-08