/*--------------------------------*- C++ -*----------------------------------*\
| =========                 |                                                 |
| \\      /  F ield         | OpenFOAM: The Open Source CFD Toolbox           |
|  \\    /   O peration     | Version:  2506                                  |
|   \\  /    A nd           | Website:  www.openfoam.com                      |
|    \\/     M anipulation  |                                                 |
\*---------------------------------------------------------------------------*/
FoamFile
{
    version     2.0;
    format      ascii;
    arch        "LSB;label=32;scalar=64";
    class       volScalarField;
    location    "0.1";
    object      voidfraction;
}
// * * * * * * * * * * * * * * * * * * * * * * * * * * * * * * * * * * * * * //

dimensions      [0 0 0 0 0 0 0];

internalField   nonuniform List<scalar> 
1152
(
0.431196
0.436463
0.510197
0.41013
0.52863
0.468063
0.420663
0.515464
0.576031
0.439097
0.436463
0.499664
0.38643
0.420663
0.486497
0.554964
0.518097
0.591831
0.460163
0.420663
0.494397
0.507564
0.499664
0.48123
0.486497
0.50493
0.544431
0.460163
0.531264
0.565497
0.533897
0.44963
0.412763
0.336396
0.431196
0.51283
0.346929
0.40223
0.44963
0.39433
0.360096
0.39433
0.381163
0.39433
0.48123
0.44963
0.40223
0.399596
0.349563
0.38643
0.396963
0.44173
0.383796
0.40223
0.375896
0.362729
0.336396
0.41803
0.40223
0.381163
0.296896
0.420663
0.431196
0.42593
0.46543
0.299529
0.439097
0.317962
0.436463
0.336396
0.378529
0.39433
0.404863
0.415396
0.325862
0.431196
0.39433
0.344296
0.43383
0.404863
0.436463
0.431196
0.399596
0.41803
0.41803
0.40223
0.428563
0.412763
0.415396
0.391696
0.367996
0.431196
0.452263
0.40223
0.412763
0.383796
0.568131
0.515464
0.523364
0.668198
0.552331
0.470697
0.604998
0.728765
0.547064
0.586564
0.626064
0.665565
0.586564
0.641864
0.660298
0.602364
1
0.994733
1
1
1
1
1
1
1
1
1
1
1
1
1
1
1
1
1
1
1
1
1
1
1
1
1
1
1
1
1
1
1
1
1
1
1
1
1
1
1
1
1
1
1
1
1
1
1
1
1
1
1
1
1
1
1
1
1
1
1
1
1
1
1
1
1
1
1
1
1
1
1
1
1
1
1
1
1
1
1
1
1
1
1
1
1
1
1
1
1
1
1
1
1
1
1
1
1
1
1
1
1
1
1
1
1
1
1
1
1
1
1
1
1
1
1
1
1
1
1
1
1
1
1
1
1
1
1
1
1
1
1
1
1
1
1
1
1
1
1
1
1
1
1
1
1
1
1
1
1
1
1
1
1
1
1
1
1
1
1
1
1
1
1
1
1
1
1
1
1
1
1
1
1
1
1
1
1
1
1
1
1
1
1
1
1
1
1
1
1
1
1
1
1
1
1
1
1
1
1
1
1
1
1
1
1
1
1
1
1
1
1
1
1
1
1
1
1
1
1
1
1
1
1
1
1
1
1
1
1
1
1
1
1
1
1
1
1
1
1
1
1
1
1
1
1
1
1
1
1
1
1
1
1
1
1
1
1
1
1
1
1
1
1
1
1
1
1
1
1
1
0.506345
0.469448
0.486469
0.421705
0.445055
0.408828
0.451562
0.470494
0.465907
0.422793
0.503024
0.433788
0.475627
0.472117
0.482541
0.465835
0.478781
0.496517
0.460792
0.395419
0.531281
0.525163
0.459872
0.423346
0.505469
0.49468
0.47379
0.477104
0.427306
0.462589
0.452102
0.498208
0.413628
0.382827
0.396601
0.469896
0.336719
0.389834
0.412784
0.387079
0.355132
0.441822
0.427503
0.350248
0.409409
0.407323
0.43036
0.455043
0.398593
0.374707
0.40302
0.426086
0.356617
0.451563
0.360156
0.368945
0.34722
0.405879
0.444556
0.393565
0.375406
0.434003
0.49776
0.428065
0.38857
0.442379
0.47684
0.325322
0.400836
0.385086
0.393394
0.379825
0.442169
0.431251
0.388525
0.446164
0.389723
0.403512
0.449928
0.500906
0.416134
0.404483
0.428697
0.417324
0.354407
0.344725
0.446022
0.44148
0.48371
0.399536
0.466482
0.368812
0.355719
0.401606
0.467322
0.47123
0.661709
0.686
0.621271
0.618851
0.571078
0.715098
0.670383
0.698979
0.691413
0.547538
0.63214
0.554456
0.667122
0.620763
0.482541
0.608818
1
1
1
1
1
1
1
1
1
1
1
1
1
1
1
1
1
1
1
1
1
1
1
1
1
1
1
1
1
1
1
1
1
1
1
1
1
1
1
1
1
1
1
1
1
1
1
1
1
1
1
1
1
1
1
1
1
1
1
1
1
1
1
1
1
1
1
1
1
1
1
1
1
1
1
1
1
1
1
1
1
1
1
1
1
1
1
1
1
1
1
1
1
1
1
1
1
1
1
1
1
1
1
1
1
1
1
1
1
1
1
1
1
1
1
1
1
1
1
1
1
1
1
1
1
1
1
1
1
1
1
1
1
1
1
1
1
1
1
1
1
1
1
1
1
1
1
1
1
1
1
1
1
1
1
1
1
1
1
1
1
1
1
1
1
1
1
1
1
1
1
1
1
1
1
1
1
1
1
1
1
1
1
1
1
1
1
1
1
1
1
1
1
1
1
1
1
1
1
1
1
1
1
1
1
1
1
1
1
1
1
1
1
1
1
1
1
1
1
1
1
1
1
1
1
1
1
1
1
1
1
1
1
1
1
1
1
1
1
1
1
1
1
1
1
1
1
1
1
1
1
1
1
1
1
1
1
1
1
1
1
1
1
1
1
1
1
1
1
1
1
1
0.438687
0.469375
0.428323
0.411199
0.48569
0.437318
0.427022
0.508326
0.502517
0.440483
0.481099
0.421663
0.430467
0.44148
0.433788
0.44695
0.476275
0.487063
0.554922
0.484575
0.526293
0.496673
0.511594
0.550252
0.383763
0.523579
0.524949
0.436883
0.456753
0.524895
0.461634
0.479324
0.366017
0.376516
0.406563
0.464889
0.385534
0.368467
0.420679
0.397795
0.457583
0.379545
0.466482
0.462973
0.364752
0.45236
0.381189
0.409181
0.378546
0.407469
0.410519
0.371826
0.409896
0.399331
0.452394
0.447343
0.457583
0.429403
0.476226
0.456451
0.395419
0.394332
0.409035
0.476626
0.386064
0.422946
0.368979
0.434465
0.382827
0.375589
0.397422
0.376832
0.409439
0.335227
0.422631
0.428186
0.491801
0.423346
0.347154
0.438857
0.473769
0.45611
0.444148
0.463099
0.447793
0.382712
0.450279
0.390172
0.464002
0.357386
0.439684
0.391225
0.382276
0.339931
0.390471
0.452346
0.646673
0.641828
0.594485
0.631328
0.672465
0.688982
0.708225
0.714143
0.662995
0.698082
0.668683
0.634735
0.70209
0.572043
0.591584
0.66817
1
1
1
1
1
1
1
1
1
1
1
1
1
1
1
1
1
1
1
1
1
1
1
1
1
1
1
1
1
1
1
1
1
1
1
1
1
1
1
1
1
1
1
1
1
1
1
1
1
1
1
1
1
1
1
1
1
1
1
1
1
1
1
1
1
1
1
1
1
1
1
1
1
1
1
1
1
1
1
1
1
1
1
1
1
1
1
1
1
1
1
1
1
1
1
1
1
1
1
1
1
1
1
1
1
1
1
1
1
1
1
1
1
1
1
1
1
1
1
1
1
1
1
1
1
1
1
1
1
1
1
1
1
1
1
1
1
1
1
1
1
1
1
1
1
1
1
1
1
1
1
1
1
1
1
1
1
1
1
1
1
1
1
1
1
1
1
1
1
1
1
1
1
1
1
1
1
1
1
1
1
1
1
1
1
1
1
1
1
1
1
1
1
1
1
1
1
1
1
1
1
1
1
1
1
1
1
1
1
1
1
1
1
1
1
1
1
1
1
1
1
1
1
1
1
1
1
1
1
1
1
1
1
1
1
1
1
1
1
1
1
1
1
1
1
1
1
1
1
1
1
1
1
1
1
1
1
1
1
1
1
1
1
1
1
1
1
1
1
1
1
1
)
;

boundaryField
{
    inlet
    {
        type            fixedValue;
        value           uniform 1;
    }
    outlet
    {
        type            fixedValue;
        value           uniform 1;
    }
    wall
    {
        type            zeroGradient;
    }
    procBoundary3to1
    {
        type            processor;
        value           nonuniform List<scalar> 
192
(
0.49703
0.420663
0.444363
0.383796
0.486497
0.486497
0.470697
0.544431
0.415396
0.341663
0.439097
0.362729
0.40223
0.446997
0.43383
0.389063
0.407496
0.46543
0.344296
0.446997
0.325862
0.436463
0.375896
0.47333
0.354829
0.468063
0.468063
0.554964
0.9921
0.9526
0.942066
1
1
1
1
1
1
1
1
1
1
1
1
1
1
1
1
1
1
1
1
1
1
1
1
1
1
1
1
1
1
1
1
1
1
1
1
1
1
1
1
1
1
1
1
1
1
1
1
1
1
1
1
1
1
1
1
1
1
1
1
1
1
1
1
1
0.473769
0.427367
0.519316
0.538266
0.551451
0.52686
0.473819
0.497103
0.403605
0.467164
0.440191
0.380775
0.355993
0.354407
0.428323
0.420147
0.44871
0.431789
0.45206
0.366457
0.325923
0.380938
0.355132
0.382564
0.528898
0.688258
0.576682
0.572269
1
1
1
1
1
1
1
1
1
1
1
1
1
1
1
1
1
1
1
1
1
1
1
1
1
1
1
1
1
1
1
1
1
1
1
1
1
1
1
1
1
1
1
1
1
1
1
1
1
1
1
1
1
1
1
1
1
1
1
1
1
1
1
1
1
1
1
1
)
;
    }
    procBoundary3to2
    {
        type            processor;
        value           nonuniform List<scalar> 
192
(
0.46543
0.460163
0.396963
0.47333
0.549697
0.44963
0.494397
0.454897
0.381163
0.420663
0.370629
0.362729
0.454897
0.415396
0.454897
0.404863
0.40223
0.373263
0.391696
0.423296
0.389063
0.341663
0.39433
0.344296
0.502297
0.510197
0.576031
0.665565
1
1
1
1
1
1
1
1
1
1
1
1
1
1
1
1
1
1
1
1
1
1
1
1
1
1
1
1
1
1
1
1
1
1
1
1
1
1
1
1
1
1
1
1
1
1
1
1
1
1
1
1
1
1
1
1
1
1
1
1
1
1
1
1
1
1
1
1
0.49131
0.425157
0.475798
0.491734
0.466251
0.420735
0.469863
0.525738
0.438687
0.431789
0.416454
0.409409
0.411122
0.394203
0.527229
0.495313
0.38857
0.358828
0.406563
0.423727
0.325923
0.469375
0.349198
0.466679
0.589039
0.524649
0.554922
0.482786
1
1
1
0.987472
1
1
1
1
1
1
1
1
1
1
1
1
1
1
1
1
1
1
1
1
1
1
1
1
1
1
1
1
1
1
1
1
1
1
1
1
1
1
1
1
1
1
1
1
1
1
1
1
1
1
1
1
1
1
1
1
1
1
1
1
1
1
1
1
)
;
    }
}


// ************************************************************************* //
