/*--------------------------------*- C++ -*----------------------------------*\
| =========                 |                                                 |
| \\      /  F ield         | OpenFOAM: The Open Source CFD Toolbox           |
|  \\    /   O peration     | Version:  2506                                  |
|   \\  /    A nd           | Website:  www.openfoam.com                      |
|    \\/     M anipulation  |                                                 |
\*---------------------------------------------------------------------------*/
FoamFile
{
    version     2.0;
    format      ascii;
    arch        "LSB;label=32;scalar=64";
    class       volScalarField;
    location    "0.1";
    object      Ksl;
}
// * * * * * * * * * * * * * * * * * * * * * * * * * * * * * * * * * * * * * //

dimensions      [1 -3 -1 0 0 0 0];

internalField   nonuniform List<scalar> 
1152
(
62977.2
220420
186986
83669.5
142135
76464.7
5.6329e+06
157483
94068.4
141734
154151
94886.7
214079
128493
68555.9
59728.2
113821
94928.9
109861
461524
159767
140278
132065
87766.7
134352
175001
175216
140217
1.34726e+07
211584
1.17629e+07
246972
107540
522128
228826
438887
382469
206497
202056
258619
422884
265392
226271
306462
170402
141511
147879
197964
267557
168298
288418
448622
336495
320560
194929
142408
126524
300425
269549
469957
5.73448e+06
316756
144927
2.58306e+06
143844
295033
164667
300267
615788
325069
249027
218175
298871
148355
380081
167546
118421
6.88212e+06
138304
166943
518698
165174
383325
108512
132320
276021
191383
7.87382e+06
225545
134878
226465
681572
479153
495595
169574
150321
65249.6
49822.8
112622
45972.6
63616.2
190376
82383.2
238026
141944
62450.8
93546.1
73013.2
180156
96649.9
36463.4
58501.9
0
0
0
0
0
0
0
0
0
0
0
0
1372.42
657.915
0
0
0
0
0
0
0
0
0
0
0
0
0
0
0
0
0
0
0
0
0
0
0
0
0
0
0
0
0
0
0
0
0
0
0
0
0
0
0
0
0
0
0
0
0
0
0
0
0
0
0
0
0
0
0
0
0
0
0
0
0
0
0
0
0
0
0
0
0
0
0
0
0
0
0
0
0
0
0
0
0
0
0
0
0
0
0
0
0
0
0
0
0
0
0
0
0
0
0
0
0
0
0
0
0
0
0
0
0
0
0
0
0
0
0
0
0
0
0
0
0
0
0
0
0
0
0
0
0
0
0
0
0
0
0
0
0
0
0
0
0
0
0
0
0
0
0
0
0
0
0
0
0
0
0
0
0
0
0
0
0
0
0
0
0
0
0
0
0
0
0
0
0
0
0
0
0
0
0
0
0
0
0
0
0
0
0
0
0
0
0
0
0
0
0
0
0
0
0
0
0
0
0
0
0
0
0
0
0
0
0
0
0
0
0
0
0
0
0
0
0
0
0
0
0
0
0
0
0
0
0
0
0
0
0
0
0
0
0
0
0
0
0
0
0
0
0
0
0
0
0
0
0
0
0
0
0
0
173918
189166
412994
110178
124089
134074
71865.3
127268
118325
236299
92088.7
76933.7
113544
92597.9
88113.1
1.03345e+06
82841.3
124362
149167
109665
334434
95281.8
106411
218712
96710
221786
105335
140324
102456
740476
499442
131289
242901
194017
462093
180646
269263
203783
812481
145030
7.29658e+06
299761
168201
450548
239007
131329
345828
150827
300969
233766
208742
109033
898179
166897
179205
260558
132542
254904
225126
438317
996567
419521
245283
214655
349135
206926
183488
149493
187882
230253
268746
833819
264028
438113
187957
169549
237554
153290
320470
126517
373532
132173
418983
146163
141945
254183
167058
103884
281021
220711
187058
544364
252824
271276
356194
1.09529e+07
82397
114020
109577
52786.5
49891.1
50297.8
224133
174588
46744.2
63868.9
58690.1
34983
43278.2
70192.5
68426.1
114544
0
0
0
0
0
0
0
0
0
0
0
0
0
0
0
0
0
0
0
0
0
0
0
0
0
0
0
0
0
0
0
0
0
0
0
0
0
0
0
0
0
0
0
0
0
0
0
0
0
0
0
0
0
0
0
0
0
0
0
0
0
0
0
0
0
0
0
0
0
0
0
0
0
0
0
0
0
0
0
0
0
0
0
0
0
0
0
0
0
0
0
0
0
0
0
0
0
0
0
0
0
0
0
0
0
0
0
0
0
0
0
0
0
0
0
0
0
0
0
0
0
0
0
0
0
0
0
0
0
0
0
0
0
0
0
0
0
0
0
0
0
0
0
0
0
0
0
0
0
0
0
0
0
0
0
0
0
0
0
0
0
0
0
0
0
0
0
0
0
0
0
0
0
0
0
0
0
0
0
0
0
0
0
0
0
0
0
0
0
0
0
0
0
0
0
0
0
0
0
0
0
0
0
0
0
0
0
0
0
0
0
0
0
0
0
0
0
0
0
0
0
0
0
0
0
0
0
0
0
0
0
0
0
0
0
0
0
0
0
0
0
0
0
0
0
0
0
0
0
0
0
0
0
0
0
0
0
0
0
0
0
0
0
0
0
0
0
0
0
0
0
0
86299.9
84325.1
167567
82707.4
130424
176686
2.62433e+06
208872
183274
147080
103555
126388
751290
149689
113000
107192
297224
176873
186442
125320
196874
141269
98861.7
90705.3
158500
110670
180865
164681
238800
398399
155971
303113
176505
208947
7.27661e+06
222938
144016
294728
224108
229393
283143
433737
169186
528252
164022
203620
321206
113486
221372
147139
580470
180405
773318
274274
124141
262259
226126
186499
1.119e+06
142963
224368
255930
3.60464e+06
2.05526e+06
452902
235588
283306
423267
153313
214871
264654
161222
246604
264659
136290
284598
261899
174340
219962
124886
702647
111834
4.21017e+06
103625
173991
946243
80437.7
1.14927e+06
218436
198088
328849
268184
207567
285713
244081
204502
140376
238149
14560.9
60722.6
65711.8
158872
27945.4
6831.64
106848
49994.9
30145.3
57515.2
107750
56470.6
32783.2
28131.2
0
0
0
0
0
0
0
0
0
0
0
0
0
0
0
0
0
0
0
0
0
0
0
0
0
0
0
0
0
0
0
0
0
0
0
0
0
0
0
0
0
0
0
0
0
0
0
0
0
0
0
0
0
0
0
0
0
0
0
0
0
0
0
0
0
0
0
0
0
0
0
0
0
0
0
0
0
0
0
0
0
0
0
0
0
0
0
0
0
0
0
0
0
0
0
0
0
0
0
0
0
0
0
0
0
0
0
0
0
0
0
0
0
0
0
0
0
0
0
0
0
0
0
0
0
0
0
0
0
0
0
0
0
0
0
0
0
0
0
0
0
0
0
0
0
0
0
0
0
0
0
0
0
0
0
0
0
0
0
0
0
0
0
0
0
0
0
0
0
0
0
0
0
0
0
0
0
0
0
0
0
0
0
0
0
0
0
0
0
0
0
0
0
0
0
0
0
0
0
0
0
0
0
0
0
0
0
0
0
0
0
0
0
0
0
0
0
0
0
0
0
0
0
0
0
0
0
0
0
0
0
0
0
0
0
0
0
0
0
0
0
0
0
0
0
0
0
0
0
0
0
0
0
0
0
0
0
0
0
0
0
0
0
0
0
0
0
0
0
0
0
0
)
;

boundaryField
{
    inlet
    {
        type            zeroGradient;
    }
    outlet
    {
        type            zeroGradient;
    }
    wall
    {
        type            zeroGradient;
    }
    procBoundary1to0
    {
        type            processor;
        value           nonuniform List<scalar> 
192
(
1.00183e+06
144597
150257
195015
543898
192570
218913
100734
4.13403e+06
231107
121165
802710
311771
180351
3.25378e+06
119944
203448
159601
108370
388085
244098
161805
195460
145168
92142.7
173026
48355.4
110380
0
20.1159
0
575.137
0
0
0
0
0
0
0
0
0
0
0
0
0
0
0
0
0
0
0
0
0
0
0
0
0
0
0
0
0
0
0
0
0
0
0
0
0
0
0
0
0
0
0
0
0
0
0
0
0
0
0
0
0
0
0
0
0
0
0
0
0
0
0
0
129048
218071
82103.6
199644
262774
78268.7
5.81921e+06
477298
163791
221137
230925
219469
158395
205035
167103
201842
162990
253369
391143
189020
136143
205184
122301
159212
84687.9
126783
47751.8
69204.5
0
0
0
0
0
0
0
0
0
0
0
0
0
0
0
0
0
0
0
0
0
0
0
0
0
0
0
0
0
0
0
0
0
0
0
0
0
0
0
0
0
0
0
0
0
0
0
0
0
0
0
0
0
0
0
0
0
0
0
0
0
0
0
0
0
0
0
0
)
;
    }
    procBoundary1to3
    {
        type            processor;
        value           nonuniform List<scalar> 
192
(
42513.9
365419
178846
1.65408e+07
105193
132955
106040
115052
144605
774033
360971
163469
2.41007e+06
183979
225038
190007
3.61558e+06
125290
234353
1.61055e+07
168891
132061
236113
181706
118626
131743
129881
49188.4
0
4662.28
0
0
0
0
0
0
0
0
0
0
0
0
0
0
0
0
0
0
0
0
0
0
0
0
0
0
0
0
0
0
0
0
0
0
0
0
0
0
0
0
0
0
0
0
0
0
0
0
0
0
0
0
0
0
0
0
0
0
0
0
0
0
0
0
0
0
85820.2
53984.9
379537
177461
119401
242020
108007
122406
268458
1.83648e+06
291471
408156
158875
178546
135815
144297
257680
234721
525943
333443
139565
232218
94387.8
200781
72005.3
64029.6
77569.6
112683
0
0
0
0
0
0
0
0
0
0
0
0
0
0
0
0
0
0
0
0
0
0
0
0
0
0
0
0
0
0
0
0
0
0
0
0
0
0
0
0
0
0
0
0
0
0
0
0
0
0
0
0
0
0
0
0
0
0
0
0
0
0
0
0
0
0
0
0
)
;
    }
}


// ************************************************************************* //
