/*--------------------------------*- C++ -*----------------------------------*\
| =========                 |                                                 |
| \\      /  F ield         | OpenFOAM: The Open Source CFD Toolbox           |
|  \\    /   O peration     | Version:  2506                                  |
|   \\  /    A nd           | Website:  www.openfoam.com                      |
|    \\/     M anipulation  |                                                 |
\*---------------------------------------------------------------------------*/
FoamFile
{
    version     2.0;
    format      ascii;
    arch        "LSB;label=32;scalar=64";
    class       surfaceScalarField;
    location    "0.1";
    object      phi;
}
// * * * * * * * * * * * * * * * * * * * * * * * * * * * * * * * * * * * * * //

dimensions      [0 3 -1 0 0 0 0];

oriented        oriented;

internalField   nonuniform List<scalar> 
3120
(
-1.78401e-09
-9.659e-09
9.80093e-08
3.97073e-09
-2.2793e-09
2.36832e-09
6.26426e-08
-5.05223e-09
-5.66772e-09
1.0638e-08
5.29272e-08
-3.18308e-09
9.67836e-09
4.34711e-08
8.03331e-10
-7.57645e-10
9.12573e-09
4.95391e-09
4.79793e-08
1.22881e-08
-7.4054e-09
6.60795e-08
-9.02784e-09
-1.5673e-09
9.2623e-08
3.04228e-09
6.76865e-08
-1.08937e-08
-4.15847e-09
4.19787e-09
7.61279e-08
1.44553e-09
2.44584e-09
4.36844e-08
7.61368e-10
1.93933e-08
3.93618e-08
2.11477e-08
5.80817e-08
-1.6002e-08
-4.43654e-09
7.47688e-08
2.14927e-08
3.88536e-08
-4.34558e-09
1.29837e-07
6.05022e-08
-3.35373e-08
-4.27374e-09
8.52452e-09
7.85012e-08
1.02567e-08
-9.84027e-09
-1.80119e-09
6.76091e-08
2.40128e-09
-5.60594e-09
1.4088e-09
5.67043e-08
-9.42019e-09
1.23794e-08
2.12294e-08
1.83277e-09
2.42365e-09
-8.23368e-09
2.51065e-08
4.05893e-08
-7.37675e-09
1.25908e-08
5.08306e-08
6.6151e-09
1.98096e-08
6.02303e-08
4.95426e-09
7.68069e-08
4.91988e-09
-2.0881e-08
8.16454e-08
4.67837e-08
-4.30737e-09
1.95137e-09
3.77502e-08
-1.363e-08
3.23166e-08
3.61774e-08
7.70679e-10
4.68534e-08
1.78198e-09
-5.0535e-08
2.31121e-07
-4.87368e-08
4.42279e-08
-4.0746e-08
1.96279e-07
4.11618e-08
3.73574e-09
-6.53319e-09
7.24671e-09
7.82307e-08
-2.09683e-08
3.80267e-10
4.80994e-09
5.43931e-08
1.49262e-09
4.93356e-09
4.14882e-09
4.66249e-08
1.37732e-09
2.59135e-10
3.01163e-08
-4.81432e-09
6.01867e-10
-2.83494e-09
9.90967e-09
3.31141e-08
6.04715e-10
7.55579e-09
4.46451e-08
1.15443e-09
1.53679e-09
6.22926e-08
1.76192e-09
7.13318e-08
5.12671e-09
-8.79624e-09
-1.70412e-08
6.96633e-08
-4.7403e-09
-2.08239e-09
4.33324e-08
-1.09831e-10
-1.69482e-08
5.00319e-08
9.4387e-09
3.53498e-08
3.71697e-09
1.39869e-08
1.73821e-07
-2.29638e-08
7.8821e-08
3.49965e-08
1.0773e-07
7.92196e-08
6.22444e-09
8.38608e-09
8.04393e-09
6.9889e-08
-8.54073e-09
8.86524e-09
2.51057e-09
5.66729e-08
-5.26961e-09
3.37766e-09
-6.37078e-10
5.64213e-08
-3.67171e-09
1.17363e-09
3.8411e-08
-4.09267e-10
-5.68141e-09
-9.07037e-10
1.19289e-08
2.93905e-08
4.31614e-09
7.92148e-09
3.4011e-08
1.10033e-08
1.54659e-09
5.34218e-08
6.19229e-09
8.11135e-08
-3.7971e-09
4.42359e-09
2.33784e-08
5.09108e-08
-3.60516e-09
5.76619e-09
5.35165e-08
5.45828e-09
5.54886e-09
3.69662e-08
3.04747e-09
4.80278e-08
-4.07494e-09
-3.24869e-09
2.2357e-07
-9.74364e-09
9.94836e-08
1.32387e-08
7.3901e-08
7.90018e-08
-1.09587e-08
6.72428e-09
6.72655e-09
6.30985e-08
-1.78042e-09
1.04124e-08
1.01274e-09
5.38687e-08
-1.89655e-09
2.10824e-08
-1.58697e-09
4.6745e-08
5.93198e-10
-2.01749e-09
5.14959e-08
1.5686e-08
-5.67099e-09
5.11032e-10
-1.11591e-08
6.3442e-08
5.25644e-09
-5.28488e-09
3.55632e-08
1.7467e-08
-3.47839e-09
4.31026e-08
-2.07189e-08
1.35509e-07
-1.82271e-08
2.76275e-08
-2.85038e-08
5.01355e-08
7.58451e-09
-1.38883e-08
8.21629e-08
8.08898e-09
-6.18836e-09
3.91717e-08
-1.16507e-08
4.92709e-08
-2.22231e-09
3.25224e-08
8.46408e-08
2.6386e-08
6.55549e-08
1.15302e-08
8.04134e-08
6.51887e-08
1.9249e-09
1.01054e-09
-8.36932e-09
7.1514e-08
3.76811e-09
-2.11905e-09
-7.43244e-09
6.39624e-08
4.68287e-10
5.86348e-09
-1.31408e-09
3.76498e-08
2.42678e-09
-9.77717e-10
5.35943e-08
9.67661e-10
3.7751e-09
3.24659e-09
-9.66327e-09
7.69978e-08
3.82509e-09
-4.32888e-09
3.18811e-08
-1.6394e-10
-3.49158e-10
4.61267e-08
1.99428e-09
1.28792e-07
3.58056e-09
9.29699e-09
-1.32737e-08
4.78157e-08
1.054e-08
-5.20635e-09
8.17974e-08
3.39751e-09
-1.20625e-09
4.71712e-08
-9.52657e-09
6.53778e-08
-1.1885e-09
7.85447e-09
4.14406e-08
1.09212e-08
6.40672e-08
-5.83412e-09
1.09607e-07
8.56696e-08
6.11683e-09
2.26612e-09
-2.40512e-09
7.03471e-08
3.45364e-09
-3.57566e-10
2.5443e-09
6.06689e-08
3.37308e-09
-7.41592e-09
-2.32759e-09
4.6428e-08
6.07504e-10
-6.59068e-09
7.10351e-08
-2.37698e-08
5.50783e-09
5.36404e-09
6.63659e-09
6.67722e-08
-2.29148e-09
-2.38657e-09
4.4467e-08
-6.52816e-09
4.18794e-10
4.76176e-08
6.64466e-09
1.0374e-07
5.28862e-09
-1.03271e-09
3.56439e-09
5.94346e-08
4.69585e-09
3.57363e-09
7.01083e-08
-1.01449e-09
-4.78938e-09
5.80895e-08
-1.08087e-09
6.76766e-08
4.4132e-09
-1.27305e-09
4.83935e-08
-3.82408e-09
6.75004e-08
1.47466e-09
9.30474e-08
8.76644e-08
6.29124e-09
7.62497e-09
-2.12583e-08
6.83401e-08
1.97801e-08
6.10241e-09
-1.8134e-08
6.20702e-08
1.82551e-08
4.07409e-09
-1.27934e-08
4.81104e-08
1.31402e-08
-1.52766e-08
6.89971e-08
3.63427e-09
1.77543e-08
2.26046e-08
-4.45182e-09
5.06472e-08
1.34244e-08
-4.83036e-09
4.03426e-08
4.25703e-10
-1.85257e-09
4.96733e-08
8.03183e-09
5.61851e-08
2.46709e-08
1.11877e-08
1.48561e-09
4.83457e-08
1.22548e-08
-4.25049e-09
6.8461e-08
8.24792e-09
-1.88689e-09
6.21302e-08
2.53873e-09
6.29521e-08
1.84655e-08
8.13869e-09
2.75741e-08
1.47221e-08
5.06285e-08
1.35486e-08
8.63753e-08
8.55594e-08
1.69678e-08
-4.98471e-09
1.15247e-08
6.06336e-08
-7.1721e-09
-4.17142e-09
7.43468e-09
5.88415e-08
-5.0201e-09
-1.1042e-08
1.42331e-09
5.51293e-08
-1.57146e-09
5.29763e-09
6.22251e-08
-1.87211e-09
-7.69933e-09
-1.69635e-08
3.17439e-10
5.08263e-08
-1.34009e-08
-5.51035e-09
4.97248e-08
-9.71581e-09
-6.84311e-09
5.42533e-08
-3.70734e-09
5.74323e-08
-1.95822e-09
-8.62461e-09
-1.0525e-09
5.56653e-08
-5.97706e-09
-3.46079e-10
6.06489e-08
-4.35687e-09
-6.00327e-09
5.96702e-08
-7.55885e-09
6.0792e-08
1.65424e-09
-1.38322e-08
4.8939e-08
-1.82253e-08
5.58179e-08
-7.99794e-09
6.77464e-08
6.90321e-08
3.71931e-09
-9.94985e-10
3.63602e-09
5.86744e-08
-2.33295e-09
-1.12376e-09
2.41911e-09
5.84772e-08
-1.92606e-09
-3.55727e-09
-2.87357e-10
5.75356e-08
3.13725e-10
4.66151e-10
5.99044e-08
9.91852e-10
-2.69405e-09
-3.4861e-09
-2.66985e-10
5.48647e-08
-4.33058e-09
-2.50792e-09
5.54959e-08
-3.91464e-09
-3.22352e-09
5.67736e-08
-2.37267e-09
5.8364e-08
-2.00861e-09
-2.23918e-09
-3.87305e-10
5.75128e-08
-2.37934e-09
-6.11497e-10
5.88923e-08
-2.30383e-09
-2.78944e-09
5.91603e-08
-3.22092e-09
5.99362e-08
-5.99304e-10
-4.81973e-09
5.62066e-08
-6.7935e-09
5.81511e-08
-4.10136e-09
6.16849e-08
6.29342e-08
-6.62593e-10
-7.65519e-10
1.57605e-09
5.89754e-08
-1.40113e-09
-1.18959e-09
1.12347e-09
5.8994e-08
-1.21659e-09
-2.50149e-09
1.53222e-10
5.87652e-08
-7.10395e-11
4.84371e-10
5.96199e-08
-7.14979e-12
-2.69495e-09
-1.68286e-09
-4.5614e-10
5.76176e-08
-2.26199e-09
-8.56859e-10
5.8055e-08
-2.64207e-09
-1.18338e-09
5.84899e-08
-7.58434e-10
5.92471e-08
-2.28235e-09
-1.33644e-09
-5.36145e-10
5.86655e-08
-1.80658e-09
-6.25633e-10
5.91311e-08
-2.06571e-09
-1.21712e-09
5.94531e-08
-1.21751e-09
5.98909e-08
-1.56138e-09
-2.0273e-09
5.85216e-08
-2.958e-09
5.92075e-08
-2.68088e-09
6.03298e-08
6.10121e-08
-1.79343e-09
-3.87727e-10
5.69979e-10
5.9405e-08
-6.24715e-10
-6.83801e-10
3.89845e-10
5.9432e-08
-5.32067e-10
-1.28525e-09
-5.86815e-11
5.93447e-08
8.03781e-11
-4.88815e-11
5.96461e-08
2.03789e-10
-1.46689e-09
-7.66169e-10
-2.67995e-10
5.9013e-08
-1.12818e-09
-3.77049e-10
5.91838e-08
-1.48038e-09
-5.57131e-10
5.93405e-08
-4.30919e-10
5.96547e-08
-1.50618e-09
-7.15385e-10
-3.83052e-10
5.93807e-08
-1.09639e-09
-4.33655e-10
5.95689e-08
-1.33498e-09
-6.03463e-10
5.9738e-08
-5.69288e-10
5.99597e-08
-1.26544e-09
-9.56016e-10
5.94162e-08
-1.4376e-09
5.96966e-08
-1.57083e-09
6.00931e-08
6.04049e-08
-1.4613e-09
-2.03208e-10
1.83545e-10
5.9717e-08
-2.31758e-10
-4.10489e-10
1.11935e-10
5.97242e-08
-1.97247e-10
-7.36614e-10
-7.33016e-11
5.96641e-08
7.96777e-11
-8.80481e-11
5.97383e-08
1.25062e-10
-8.66364e-10
-3.57433e-10
-1.389e-10
5.96539e-08
-5.93479e-10
-1.81528e-10
5.97131e-08
-8.27756e-10
-2.60864e-10
5.97622e-08
-2.19406e-10
5.98656e-08
-9.07501e-10
-3.80287e-10
-2.26187e-10
5.9804e-08
-6.18945e-10
-2.53473e-10
5.98796e-08
-7.89296e-10
-3.04429e-10
5.9952e-08
-2.72338e-10
6.00371e-08
-8.13715e-10
-4.73764e-10
5.98539e-08
-7.30907e-10
5.99702e-08
-8.72376e-10
6.01125e-08
6.02325e-08
-9.11779e-10
-1.12567e-10
3.09534e-11
5.99107e-08
-6.17982e-11
-2.40746e-10
4.29481e-12
5.98975e-08
-4.96982e-11
-4.08523e-10
-8.1822e-11
5.98371e-08
7.63685e-11
-9.95254e-11
5.98026e-08
1.06183e-10
-4.79733e-10
-1.774e-10
-9.2487e-11
5.9958e-08
-3.1982e-10
-1.11923e-10
5.99717e-08
-4.56706e-10
-1.47397e-10
5.99647e-08
-1.36144e-10
5.99609e-08
-5.15507e-10
-1.99631e-10
-1.52105e-10
6.00466e-08
-3.42175e-10
-1.61523e-10
6.00718e-08
-4.47905e-10
-1.74508e-10
6.00849e-08
-1.52716e-10
6.00863e-08
-4.80455e-10
-2.36026e-10
6.00928e-08
-3.77864e-10
6.01343e-08
-4.74181e-10
6.01726e-08
6.01905e-08
-5.20698e-10
-6.51108e-11
-2.22217e-11
6.00248e-08
2.16984e-12
-1.4206e-10
-3.46837e-11
6.00002e-08
8.94708e-12
-2.30409e-10
-7.23231e-11
5.99322e-08
6.55356e-11
-8.46562e-11
5.98418e-08
8.25404e-11
-2.67641e-10
-9.47843e-11
-7.46718e-11
6.01135e-08
-1.77336e-10
-8.32854e-11
6.0103e-08
-2.53425e-10
-9.81548e-11
6.00668e-08
-9.42742e-11
6.0006e-08
-2.88815e-10
-1.07025e-10
-1.119e-10
6.01856e-08
-1.88509e-10
-1.14025e-10
6.0184e-08
-2.50981e-10
-1.14332e-10
6.01637e-08
-9.95562e-11
6.01151e-08
-2.74329e-10
-1.18915e-10
6.02269e-08
-1.97869e-10
6.02331e-08
-2.55977e-10
6.02238e-08
6.01857e-08
-2.87034e-10
-3.97693e-11
-3.83207e-11
6.00934e-08
2.49138e-11
-8.39561e-11
-4.4254e-11
6.00608e-08
2.79551e-11
-1.305e-10
-5.99338e-11
5.99854e-08
5.33724e-11
-6.73985e-11
5.98657e-08
6.35117e-11
-1.50342e-10
-5.06725e-11
-6.37717e-11
6.01962e-08
-9.90779e-11
-6.68796e-11
6.01742e-08
-1.41029e-10
-7.21209e-11
6.01211e-08
-7.01737e-11
6.00295e-08
-1.61542e-10
-5.66955e-11
-8.62918e-11
6.02647e-08
-1.03756e-10
-8.54361e-11
6.02496e-08
-1.38182e-10
-8.28666e-11
6.02091e-08
-7.16445e-11
6.01329e-08
-1.54178e-10
-5.96413e-11
6.03032e-08
-1.04586e-10
6.02926e-08
-1.38772e-10
6.0259e-08
6.01903e-08
-1.56507e-10
-2.38203e-11
-3.95719e-11
6.01349e-08
2.99963e-11
-5.01526e-11
-4.20812e-11
6.00978e-08
3.15434e-11
-7.42548e-11
-4.81196e-11
6.00159e-08
4.19102e-11
-5.22367e-11
5.98809e-08
4.83661e-11
-8.5431e-11
-2.83728e-11
-5.35065e-11
6.02428e-08
-5.65846e-11
-5.4193e-11
6.02147e-08
-7.79743e-11
-5.62322e-11
6.01509e-08
-5.30926e-11
6.00436e-08
-9.10756e-11
-3.0251e-11
-6.72488e-11
6.03104e-08
-5.74439e-11
-6.54839e-11
6.02882e-08
-7.84851e-11
-6.22513e-11
6.02363e-08
-5.43727e-11
6.01438e-08
-8.79741e-11
-2.99318e-11
6.0347e-08
-5.56517e-11
6.03279e-08
-7.50694e-11
6.02814e-08
6.01959e-08
-8.51266e-11
-1.40022e-11
-3.50553e-11
6.01604e-08
2.79319e-11
-2.93855e-11
-3.58421e-11
6.01207e-08
2.85299e-11
-4.21956e-11
-3.82798e-11
6.00346e-08
3.26506e-11
-3.95618e-11
5.98911e-08
3.64636e-11
-4.92015e-11
-1.58239e-11
-4.35439e-11
6.02701e-08
-3.19079e-11
-4.33177e-11
6.02384e-08
-4.52025e-11
-4.30872e-11
6.01692e-08
-4.07871e-11
6.00521e-08
-5.23719e-11
-1.61056e-11
-5.20162e-11
6.03371e-08
-3.18067e-11
-5.03137e-11
6.03109e-08
-4.32386e-11
-4.76595e-11
6.02524e-08
-4.18359e-11
6.01508e-08
-4.91803e-11
-1.49246e-11
6.03722e-08
-2.98001e-11
6.03487e-08
-4.11836e-11
6.02953e-08
6.02003e-08
-4.64857e-11
-8.19231e-12
-2.87293e-11
6.01765e-08
2.34393e-11
-1.7427e-11
-2.88012e-11
6.01352e-08
2.36011e-11
-2.51013e-11
-2.92793e-11
6.00466e-08
2.50981e-11
-3.00421e-11
5.9898e-08
2.69655e-11
-2.87562e-11
-8.80254e-12
-3.42493e-11
6.02864e-08
-1.8277e-11
-3.37318e-11
6.02529e-08
-2.52803e-11
-3.32002e-11
6.01802e-08
-3.07265e-11
6.0058e-08
-3.05392e-11
-8.59678e-12
-3.95087e-11
6.03528e-08
-1.78836e-11
-3.8111e-11
6.03246e-08
-2.48926e-11
-3.60907e-11
6.02624e-08
-3.22184e-11
6.01554e-08
-2.78971e-11
-7.4871e-12
6.03867e-08
-1.6039e-11
6.03609e-08
-2.25584e-11
6.03037e-08
6.02036e-08
-2.54926e-11
-4.79441e-12
-2.23216e-11
6.01867e-08
1.84646e-11
-1.04284e-11
-2.21528e-11
6.01446e-08
1.84173e-11
-1.47226e-11
-2.20216e-11
6.00542e-08
1.869e-11
-2.21341e-11
5.99028e-08
1.96886e-11
-1.7108e-11
-4.93618e-12
-2.59891e-11
6.02964e-08
-1.06334e-11
-2.54476e-11
6.02619e-08
-1.45425e-11
-2.4983e-11
6.01871e-08
-2.30077e-11
6.0062e-08
-1.76652e-11
-4.5799e-12
-2.92579e-11
6.03621e-08
-9.92594e-12
-2.82952e-11
6.03328e-08
-1.41899e-11
-2.68238e-11
6.02686e-08
-2.42646e-11
6.01586e-08
-1.60521e-11
-3.76668e-12
6.03948e-08
-8.64952e-12
6.0368e-08
-1.22599e-11
6.03088e-08
6.02059e-08
-1.39773e-11
-2.67897e-12
-1.64911e-11
6.01931e-08
1.37369e-11
-6.04844e-12
-1.6261e-11
6.01506e-08
1.35729e-11
-8.44679e-12
-1.60873e-11
6.00592e-08
1.3452e-11
-1.56829e-11
5.99063e-08
1.39912e-11
-1.02039e-11
-2.63113e-12
-1.89676e-11
6.03024e-08
-5.89587e-12
-1.85384e-11
6.02674e-08
-8.47225e-12
-1.79912e-11
6.01916e-08
-1.66964e-11
6.00648e-08
-1.01211e-11
-2.33293e-12
-2.09824e-11
6.03676e-08
-5.40414e-12
-2.03558e-11
6.03377e-08
-7.78072e-12
-1.93513e-11
6.02724e-08
-1.76198e-11
6.01608e-08
-8.92864e-12
-1.77847e-12
6.03995e-08
-4.58386e-12
6.03721e-08
-6.71134e-12
6.03119e-08
6.02075e-08
-7.62416e-12
-1.22744e-12
-1.14345e-11
6.01971e-08
9.53537e-12
-3.18707e-12
-1.12316e-11
6.01543e-08
9.34067e-12
-4.62718e-12
-1.10074e-11
6.00625e-08
9.15494e-12
-1.05677e-11
5.99087e-08
9.3764e-12
-5.79414e-12
-1.14383e-12
-1.30551e-11
6.03061e-08
-3.04467e-12
-1.27379e-11
6.02708e-08
-4.56708e-12
-1.22792e-11
6.01945e-08
-1.13897e-11
6.00667e-08
-5.55855e-12
-9.06536e-13
-1.42738e-11
6.03708e-08
-2.68528e-12
-1.38513e-11
6.03407e-08
-4.08367e-12
-1.31766e-11
6.02748e-08
-1.20949e-11
6.01623e-08
-4.75434e-12
-5.27672e-13
6.04021e-08
-2.11407e-12
6.03745e-08
-3.32532e-12
6.03137e-08
6.02085e-08
-3.89801e-12
5.4259e-14
-7.25437e-12
6.01994e-08
6.04211e-12
-1.05103e-12
-7.09288e-12
6.01565e-08
5.86154e-12
-1.94878e-12
-6.87297e-12
6.00645e-08
5.69675e-12
-6.5606e-12
5.99103e-08
5.68845e-12
-2.6515e-12
1.42936e-13
-8.26393e-12
6.03082e-08
-9.2365e-13
-8.03667e-12
6.02728e-08
-1.80652e-12
-7.71029e-12
6.01962e-08
-7.15452e-12
6.00681e-08
-2.45539e-12
3.17625e-13
-8.96936e-12
6.03726e-08
-6.71306e-13
-8.7009e-12
6.03424e-08
-1.48601e-12
-8.29121e-12
6.02762e-08
-7.65191e-12
6.01634e-08
-1.95057e-12
5.53309e-13
6.04035e-08
-3.16452e-13
6.03758e-08
-1.026e-12
6.03148e-08
6.02093e-08
-1.43264e-12
1.72432e-12
-4.87918e-12
4.05802e-12
1.03767e-12
-4.69016e-12
3.84416e-12
3.52735e-13
-4.44209e-12
3.60031e-12
-4.1334e-12
3.35574e-12
-2.43933e-13
1.85034e-12
-5.54707e-12
1.20479e-12
-5.35962e-12
5.6232e-13
-5.09642e-12
-4.72945e-12
1.58527e-15
1.99851e-12
-6.0096e-12
1.41275e-12
-5.83298e-12
8.33372e-13
-5.56163e-12
-5.17733e-12
3.40323e-13
2.15129e-12
1.6444e-12
1.137e-12
6.92445e-13
-3.12502e-09
-7.55762e-09
1.08149e-07
-1.5507e-09
5.27952e-09
7.37433e-08
3.56442e-09
2.23682e-08
4.46016e-08
-1.00098e-08
7.01785e-08
1.42893e-09
1.38726e-09
1.2145e-08
5.51461e-08
-2.35862e-10
-1.1302e-08
9.17295e-08
-5.60093e-09
-6.58826e-09
9.84963e-08
1.70195e-09
3.31277e-08
-1.0351e-10
-1.20642e-08
-9.53857e-09
1.1278e-07
6.36419e-09
2.26225e-09
3.3871e-08
-3.79058e-09
-1.15396e-08
7.1964e-08
-1.15733e-08
5.56502e-08
-3.05286e-09
-1.16922e-08
8.28731e-08
1.13725e-09
4.16285e-08
-1.50841e-09
3.54535e-08
2.35446e-08
-3.59564e-10
-1.96303e-09
1.63851e-08
9.45872e-08
-9.15779e-10
1.89855e-09
7.1777e-08
3.46636e-09
-9.97635e-09
5.00859e-08
-3.87823e-09
7.36437e-08
5.0749e-10
-9.28749e-09
4.1774e-08
3.83182e-08
-9.50104e-09
1.22046e-08
8.1637e-08
5.35446e-09
3.02049e-09
7.0644e-08
-1.05304e-08
4.20636e-08
3.07067e-09
-2.70569e-08
-5.31955e-08
2.39447e-07
-1.28283e-08
2.9238e-10
3.15546e-08
-1.04981e-09
-2.25338e-10
6.34314e-08
7.1428e-09
3.41221e-08
2.80506e-09
-7.88211e-09
5.13343e-08
-3.55442e-09
3.99944e-08
4.44424e-09
1.78093e-08
3.621e-08
7.54436e-10
3.76491e-09
2.05775e-08
6.007e-08
4.87433e-09
4.15068e-09
6.78409e-08
4.9455e-09
-1.86461e-09
5.20882e-08
-8.06417e-09
9.18953e-08
-4.77892e-09
-5.63591e-09
2.73299e-08
4.00222e-08
4.34816e-10
6.83122e-09
7.28857e-08
8.15263e-09
7.51119e-09
5.35504e-08
-7.89203e-09
5.01011e-08
-5.69927e-11
5.20704e-09
4.17741e-08
2.16916e-07
1.8964e-10
5.05396e-09
3.83493e-08
3.72912e-09
1.08528e-08
5.65503e-08
8.40987e-09
2.02915e-08
1.25788e-09
1.51107e-08
4.16713e-08
4.6437e-09
5.7008e-08
2.74078e-09
3.19423e-08
4.03211e-08
2.22522e-09
4.33781e-09
1.00181e-09
4.87217e-08
8.04629e-09
-4.27222e-09
6.86267e-08
9.36125e-10
-5.33026e-09
6.42403e-08
-4.667e-09
1.01534e-07
-1.84345e-09
2.81646e-09
-3.12682e-08
6.63633e-08
9.35655e-09
-7.81088e-09
6.98843e-08
1.57021e-09
1.67984e-09
5.43266e-08
1.42351e-08
3.18508e-08
9.18433e-10
2.73716e-08
2.7959e-08
9.78128e-08
8.79512e-09
6.69919e-09
4.24157e-08
6.59995e-09
7.49269e-09
5.29326e-08
4.69782e-09
3.87195e-08
-2.29082e-09
3.72297e-09
4.67674e-08
6.92319e-09
5.52373e-08
8.41769e-09
3.42688e-08
5.72538e-08
-4.2264e-09
1.0084e-09
6.01155e-09
4.13679e-08
-2.4137e-09
-5.46011e-09
7.88442e-08
5.55725e-09
9.55497e-09
4.79525e-08
3.32265e-08
7.03307e-08
7.11347e-09
-3.27442e-09
-1.72351e-08
9.31184e-08
3.93864e-09
4.87226e-09
5.23389e-08
5.39364e-09
1.3181e-08
4.92456e-08
1.6901e-08
5.20967e-08
1.47326e-09
5.88131e-09
1.18514e-08
5.32773e-08
5.79058e-09
5.82449e-09
4.15542e-08
1.72082e-08
9.00611e-09
4.56898e-08
4.87103e-08
2.7549e-08
-3.43063e-09
5.47174e-09
4.89914e-08
1.05027e-08
5.41343e-08
3.08304e-08
2.35402e-08
1.67483e-07
-1.50024e-08
-8.39071e-09
-6.28489e-10
5.82509e-08
-3.14327e-10
1.92604e-08
5.22088e-08
4.87039e-09
4.39435e-09
3.78579e-08
1.16158e-08
5.18711e-08
1.36973e-08
-6.45494e-10
1.13154e-08
8.68286e-08
-4.95951e-09
6.16077e-09
6.97525e-08
7.60821e-09
1.33327e-08
2.77395e-08
2.69859e-08
2.26933e-08
2.16415e-08
-1.86269e-09
-1.11954e-10
7.14066e-08
-2.48844e-09
-1.89054e-09
5.02313e-08
4.16852e-09
5.984e-09
4.63815e-08
1.17377e-08
4.4815e-08
2.15078e-09
-4.5093e-09
6.64083e-08
8.6353e-10
4.73392e-08
-4.1371e-09
3.69517e-08
1.7795e-07
-1.89848e-09
1.14913e-09
-6.30854e-09
6.35605e-08
2.60066e-10
-3.15667e-09
5.49323e-08
2.25634e-10
-1.88495e-09
3.62979e-08
-3.74506e-10
5.22363e-08
8.28056e-10
3.06198e-11
-1.88895e-09
8.17283e-08
-7.97758e-10
5.39739e-10
6.68842e-08
-2.17216e-09
-9.50556e-09
3.67351e-08
-1.77744e-08
4.87758e-08
-1.0855e-08
1.28965e-09
-2.68401e-09
7.34228e-08
-3.33889e-09
-2.71619e-09
5.81159e-08
-1.02671e-08
-5.59543e-09
4.93984e-08
-4.40516e-08
5.84e-08
2.42933e-09
-8.36393e-11
6.79257e-08
-3.59799e-09
5.15099e-08
-1.75375e-08
4.59056e-08
8.28206e-08
9.77095e-09
1.88544e-09
-9.63029e-09
7.30161e-08
-1.6764e-09
-1.00229e-08
6.85171e-08
-8.55879e-10
-1.18047e-08
4.72827e-08
-1.43237e-08
6.48494e-08
8.55771e-10
1.24005e-09
-1.37043e-08
8.58215e-08
-2.90388e-09
-1.35735e-08
7.45794e-08
-1.821e-09
-1.43548e-08
3.82025e-08
-2.26313e-08
5.32601e-08
2.00254e-09
1.51807e-09
-1.76703e-08
7.67976e-08
-4.16578e-09
-1.7596e-08
6.78224e-08
-5.08654e-09
-1.60641e-08
5.20272e-08
-2.48407e-08
5.37124e-08
1.80981e-09
1.78941e-09
6.97901e-08
-4.47944e-09
5.84371e-08
-8.41688e-09
4.69168e-08
4.74148e-08
5.78486e-09
3.32692e-11
-5.08983e-09
8.00235e-08
-2.66031e-09
-3.03997e-09
7.4251e-08
-1.11509e-08
-3.12161e-09
5.88956e-08
5.74131e-10
5.88123e-08
-5.68883e-09
-3.75302e-11
-2.0383e-09
8.07688e-08
-1.66134e-09
-4.93295e-10
7.3657e-08
-1.21598e-08
-8.43204e-09
5.4011e-08
-3.11398e-09
5.19312e-08
-7.14289e-09
2.89931e-10
2.06056e-09
7.42294e-08
-2.93582e-09
2.51278e-09
6.80416e-08
-1.04086e-08
-2.90358e-09
5.39713e-08
-9.56606e-10
4.58447e-08
-4.70189e-09
-7.96769e-10
6.50342e-08
-3.14686e-09
5.82797e-08
-7.96461e-09
4.72571e-08
3.81377e-08
-1.51625e-09
9.7515e-10
-3.70461e-09
8.40049e-08
-4.22794e-10
-3.10433e-09
7.87534e-08
-4.11629e-09
-3.26332e-09
6.58524e-08
-1.60329e-09
5.90136e-08
-2.71445e-09
8.13423e-10
-2.33375e-09
7.85862e-08
1.89705e-10
-1.79285e-09
7.2969e-08
-4.23414e-09
-4.53687e-09
5.97083e-08
-2.10925e-09
5.12504e-08
-3.04824e-09
8.63077e-10
3.51399e-10
7.19028e-08
-2.9755e-11
6.47718e-10
6.64938e-08
-3.39871e-09
-1.9768e-09
5.47792e-08
-1.47597e-09
4.40749e-08
-2.26195e-09
4.8671e-10
6.29233e-08
-3.03401e-10
5.77906e-08
-2.54013e-09
4.78307e-08
3.64559e-08
-1.34405e-09
3.46431e-10
-8.30434e-10
8.5318e-08
-5.81512e-10
-4.73039e-10
8.01543e-08
-2.45341e-09
-8.22415e-10
6.85466e-08
3.74836e-10
5.78026e-08
-1.61747e-09
1.75597e-10
-6.68082e-10
7.8619e-08
-5.28417e-10
-2.47646e-10
7.34472e-08
-2.4575e-09
-1.36948e-09
6.2184e-08
4.7224e-11
5.07434e-08
-1.62311e-09
1.19111e-10
6.07145e-10
7.11823e-08
-5.18218e-10
7.39514e-10
6.61435e-08
-2.10638e-09
-5.9072e-10
5.55882e-08
2.59957e-11
4.3357e-08
-1.36808e-09
-1.21247e-10
6.25659e-08
-6.18448e-10
5.78103e-08
-1.7138e-09
4.82638e-08
3.58242e-08
-1.0634e-09
2.58508e-10
-4.21043e-10
8.59752e-08
-1.81689e-10
-2.51353e-10
8.08454e-08
-1.09489e-09
-5.46618e-10
7.00063e-08
-4.78406e-12
5.76038e-08
-8.91282e-10
1.33733e-10
-2.35553e-10
7.86443e-08
-2.07635e-10
-4.95481e-11
7.35864e-08
-1.11524e-09
-5.89362e-10
6.3134e-08
-1.87001e-12
5.04882e-08
-8.6309e-10
7.13994e-11
3.41295e-10
7.09089e-08
-2.27465e-10
4.03794e-10
6.59886e-08
-9.8775e-10
-2.87462e-10
5.60464e-08
-5.39337e-11
4.32047e-08
-7.83958e-10
-6.67566e-11
6.25917e-08
-3.06903e-10
5.79219e-08
-8.5806e-10
4.86074e-08
3.5803e-08
-6.8774e-10
9.36009e-11
-1.44487e-10
8.63041e-08
-1.40039e-10
-4.46158e-11
8.11234e-08
-5.88062e-10
-2.00144e-10
7.06542e-08
7.04434e-11
5.74326e-08
-4.87446e-10
3.00893e-11
-7.64989e-11
7.8766e-08
-1.63631e-10
2.59466e-11
7.37092e-08
-6.00153e-10
-2.35151e-10
6.36053e-08
4.75644e-11
5.03828e-08
-4.72055e-10
-9.6363e-12
1.37453e-10
7.09114e-08
-1.82563e-10
1.69944e-10
6.60173e-08
-5.56493e-10
-1.40822e-10
5.63259e-08
-1.59296e-11
4.31552e-08
-4.44012e-10
-7.3323e-11
6.27225e-08
-2.28198e-10
5.80493e-08
-5.07949e-10
4.88256e-08
3.58145e-08
-4.11142e-10
2.79319e-11
-6.13501e-11
8.64882e-08
-8.96362e-11
-8.72819e-12
8.12495e-08
-3.03472e-10
-9.65036e-11
7.09643e-08
2.3458e-11
5.73726e-08
-2.67127e-10
-8.13837e-12
-4.16898e-11
7.88786e-08
-1.11223e-10
1.34967e-11
7.37897e-08
-3.17975e-10
-1.15672e-10
6.38309e-08
7.62254e-12
5.03422e-08
-2.61685e-10
-3.19655e-11
3.06976e-11
7.09811e-08
-1.28471e-10
5.39127e-11
6.60731e-08
-3.07344e-10
-8.91734e-11
5.64783e-08
-3.67896e-11
4.3146e-08
-2.54231e-10
-6.15789e-11
6.28394e-08
-1.5714e-10
5.81491e-08
-2.92984e-10
4.89484e-08
3.58345e-08
-2.4451e-10
6.92587e-13
-3.43167e-11
8.66034e-08
-6.22664e-11
-7.25485e-12
8.13196e-08
-1.66009e-10
-4.90356e-11
7.11168e-08
6.70989e-12
5.73493e-08
-1.49667e-10
-1.97071e-11
-3.23748e-11
7.89637e-08
-7.73485e-11
-6.20566e-12
7.38461e-08
-1.76381e-10
-6.40392e-11
6.39447e-08
-8.76068e-12
5.03295e-08
-1.48336e-10
-3.28102e-11
-9.62369e-12
7.10492e-08
-9.04937e-11
-5.30445e-13
6.6125e-08
-1.75666e-10
-6.24422e-11
5.65619e-08
-3.8763e-11
4.31482e-08
-1.4805e-10
-4.6876e-11
6.29243e-08
-1.06877e-10
5.82176e-08
-1.73972e-10
4.90185e-08
3.585e-08
-1.46335e-10
-6.95833e-12
-2.30433e-11
8.66785e-08
-4.31392e-11
-9.7791e-12
8.13655e-08
-9.38886e-11
-2.84635e-11
7.11958e-08
-2.92451e-12
5.73448e-08
-8.6693e-11
-1.89834e-11
-2.85321e-11
7.90243e-08
-5.32598e-11
-1.60753e-11
7.38866e-08
-1.01373e-10
-4.09626e-11
6.40051e-08
-1.59296e-11
5.03279e-08
-8.68493e-11
-2.65099e-11
-2.46851e-11
7.1102e-08
-6.21074e-11
-2.01664e-11
6.61647e-08
-1.03528e-10
-4.67831e-11
5.66092e-08
-3.61818e-11
4.31534e-08
-8.85344e-11
-3.34193e-11
6.29813e-08
-7.139e-11
5.82635e-08
-1.05205e-10
4.9059e-08
3.5861e-08
-8.9097e-11
-7.59892e-12
-1.69842e-11
8.67284e-08
-2.97861e-11
-1.06064e-11
8.13982e-08
-5.54667e-11
-1.81238e-11
7.12395e-08
-6.25641e-12
5.73475e-08
-5.19646e-11
-1.49964e-11
-2.48578e-11
7.90665e-08
-3.64314e-11
-1.89528e-11
7.39162e-08
-6.02465e-11
-2.85339e-11
6.40392e-08
-1.68567e-11
5.03307e-08
-5.2493e-11
-1.94239e-11
-2.75608e-11
7.11399e-08
-4.20295e-11
-2.54844e-11
6.61939e-08
-6.24879e-11
-3.58321e-11
5.6637e-08
-3.09599e-11
4.31589e-08
-5.39202e-11
-2.30498e-11
6.30188e-08
-4.72859e-11
5.8294e-08
-6.51742e-11
4.90831e-08
3.58688e-08
-5.56319e-11
-6.10883e-12
-1.29883e-11
8.67622e-08
-2.03033e-11
-9.93947e-12
8.14223e-08
-3.3684e-11
-1.24941e-11
7.12653e-08
-6.73867e-12
5.73524e-08
-3.19798e-11
-1.0852e-11
-2.07742e-11
7.90956e-08
-2.46896e-11
-1.7897e-11
7.39379e-08
-3.67951e-11
-2.09728e-11
6.40597e-08
-1.51545e-11
5.03347e-08
-3.25091e-11
-1.35319e-11
-2.5128e-11
7.11661e-08
-2.81629e-11
-2.40564e-11
6.62147e-08
-3.86998e-11
-2.76865e-11
5.66543e-08
-2.5111e-11
4.31639e-08
-3.37425e-11
-1.5562e-11
6.30434e-08
-3.12316e-11
5.83143e-08
-4.12237e-11
4.90981e-08
3.58745e-08
-3.55028e-11
-4.39237e-12
-9.93166e-12
8.67851e-08
-1.37145e-11
-8.4227e-12
8.14399e-08
-2.0995e-11
-8.97441e-12
7.12815e-08
-6.00304e-12
5.73576e-08
-2.01853e-11
-7.50496e-12
-1.66384e-11
7.91156e-08
-1.66148e-11
-1.51396e-11
7.39536e-08
-2.30297e-11
-1.5682e-11
6.40726e-08
-1.24198e-11
5.03387e-08
-2.07269e-11
-9.16125e-12
-2.09232e-11
7.1184e-08
-1.87542e-11
-2.02372e-11
6.62293e-08
-2.44606e-11
-2.12105e-11
5.66655e-08
-1.94389e-11
4.3168e-08
-2.16345e-11
-1.03951e-11
6.30597e-08
-2.05962e-11
5.83278e-08
-2.64663e-11
4.91079e-08
3.58787e-08
-2.29783e-11
-2.96004e-12
-7.45294e-12
8.68008e-08
-9.10788e-12
-6.67259e-12
8.14527e-08
-1.32899e-11
-6.53428e-12
7.12921e-08
-4.88974e-12
5.73621e-08
-1.29299e-11
-5.02854e-12
-1.28226e-11
7.91292e-08
-1.10482e-11
-1.19543e-11
7.39648e-08
-1.46574e-11
-1.16702e-11
6.40813e-08
-9.69361e-12
5.03421e-08
-1.33562e-11
-6.06935e-12
-1.64037e-11
7.11961e-08
-1.23725e-11
-1.59095e-11
6.62394e-08
-1.57084e-11
-1.58824e-11
5.66729e-08
-1.45872e-11
4.31713e-08
-1.41466e-11
-6.84735e-12
6.30704e-08
-1.34895e-11
5.83369e-08
-1.7173e-11
4.91143e-08
3.58817e-08
-1.50272e-11
-1.84725e-12
-5.40313e-12
8.68114e-08
-5.8864e-12
-4.98095e-12
8.14616e-08
-8.38867e-12
-4.69995e-12
7.12992e-08
-3.73092e-12
5.73656e-08
-8.25602e-12
-3.21445e-12
-9.43176e-12
7.91384e-08
-7.16149e-12
-8.903e-12
7.39725e-08
-9.29265e-12
-8.46144e-12
6.40871e-08
-7.17398e-12
5.03449e-08
-8.58461e-12
-3.88126e-12
-1.2174e-11
7.12042e-08
-7.98903e-12
-1.18043e-11
6.62463e-08
-1.0017e-11
-1.14827e-11
5.6678e-08
-1.05175e-11
4.31738e-08
-9.17648e-12
-4.36972e-12
6.30774e-08
-8.68083e-12
5.83429e-08
-1.10466e-11
4.91186e-08
3.58839e-08
-9.78084e-12
-9.20603e-13
-3.70934e-12
8.68182e-08
-3.50422e-12
-3.47613e-12
8.14675e-08
-5.04774e-12
-3.22915e-12
7.13039e-08
-2.63193e-12
5.73683e-08
-5.05837e-12
-1.78501e-12
-6.5225e-12
7.91443e-08
-4.30444e-12
-6.19394e-12
7.39776e-08
-5.61724e-12
-5.81156e-12
6.40909e-08
-4.94807e-12
5.03469e-08
-5.27599e-12
-2.19508e-12
-8.44679e-12
7.12094e-08
-4.80736e-12
-8.17577e-12
6.62508e-08
-6.06972e-12
-7.82241e-12
5.66813e-08
-7.09269e-12
4.31755e-08
-5.69424e-12
-2.49492e-12
6.30818e-08
-5.22319e-12
5.83467e-08
-6.72809e-12
4.91214e-08
3.58854e-08
-6.08591e-12
3.09279e-14
-2.37148e-12
8.68224e-08
-1.55119e-12
-2.25035e-12
8.14712e-08
-2.5474e-12
-2.08925e-12
7.13069e-08
-1.74235e-12
5.73702e-08
-2.71694e-12
-4.42874e-13
-4.13364e-12
7.91479e-08
-1.98718e-12
-3.9483e-12
7.39807e-08
-2.86193e-12
-3.68073e-12
6.40933e-08
-3.14143e-12
5.03483e-08
-2.84513e-12
-6.60607e-13
-5.3699e-12
7.12125e-08
-2.25563e-12
-5.17595e-12
6.62535e-08
-3.1057e-12
-4.88009e-12
5.66834e-08
-4.35909e-12
4.31768e-08
-3.12031e-12
-8.12234e-13
6.30844e-08
-2.48292e-12
5.83491e-08
-3.46307e-12
4.91232e-08
3.58865e-08
-3.34124e-12
1.17845e-12
-1.53016e-12
6.60562e-14
-1.45141e-12
-7.58562e-13
-1.33074e-12
-1.12535e-12
-1.10357e-12
1.05658e-12
-2.79933e-12
-7.39691e-14
-2.67644e-12
-8.97607e-13
-2.46064e-12
-2.10685e-12
-1.19807e-12
1.02312e-12
-3.64555e-12
-1.52466e-13
-3.47932e-12
-9.88554e-13
-3.20806e-12
-2.80659e-12
-1.32726e-12
1.0167e-12
-2.03023e-13
-1.10462e-12
-1.45927e-12
6.90768e-09
-2.2002e-09
2.99383e-08
5.2177e-09
-9.69047e-10
4.23442e-08
1.76842e-08
2.24287e-09
3.64217e-08
8.4897e-10
7.68044e-08
-3.35575e-10
-2.50751e-09
3.74052e-08
8.79914e-09
-1.05979e-09
4.52138e-08
2.8767e-09
-7.60541e-09
7.88724e-08
-9.26695e-09
8.29383e-08
-2.56103e-09
3.69719e-10
4.15414e-08
-2.9331e-09
-5.92638e-09
7.16316e-08
-3.69099e-09
-5.11549e-09
7.2221e-08
-4.20028e-09
7.39257e-08
-6.31038e-09
2.15735e-08
1.87142e-09
3.7158e-08
-3.59962e-09
7.85733e-08
8.25623e-08
4.41347e-09
3.98904e-09
2.47139e-08
1.64036e-08
3.0325e-09
3.01267e-08
-2.06623e-08
-5.18769e-09
8.17458e-08
4.81132e-09
5.30511e-08
-9.47645e-10
2.6232e-09
4.46385e-08
1.92447e-09
-5.51925e-10
4.59262e-08
2.23762e-09
-3.19297e-09
7.65645e-08
-1.36143e-10
8.90752e-08
-2.80206e-09
5.39939e-09
4.33492e-08
-1.82592e-09
8.60127e-10
6.92434e-08
-2.01149e-09
3.04205e-10
6.89094e-08
7.52713e-09
6.49662e-08
-2.32135e-09
5.08058e-08
6.76082e-11
4.20835e-08
1.11759e-08
6.73335e-08
1.07626e-07
-6.58478e-09
-5.00446e-10
3.46262e-08
-2.57615e-08
2.5382e-11
5.05358e-08
1.21614e-08
1.06994e-08
3.30665e-08
-2.23082e-10
5.93468e-08
-5.96371e-09
2.25727e-09
5.29712e-08
-3.96286e-09
2.48987e-09
4.14608e-08
-1.08784e-08
8.22596e-09
8.59535e-08
1.07673e-08
6.80079e-08
-3.43452e-09
7.57034e-09
4.51876e-08
5.57906e-09
9.87509e-09
5.28446e-08
7.53228e-09
6.72647e-09
6.84557e-08
7.44182e-09
7.66095e-08
4.27851e-09
6.43217e-08
6.95743e-10
5.36787e-08
1.208e-08
6.62678e-08
1.44662e-07
-6.73256e-11
8.83715e-10
2.3902e-08
-6.33601e-09
2.61415e-09
5.18995e-08
-1.82543e-09
4.04128e-09
2.54331e-08
2.69116e-09
5.41039e-08
-5.04248e-10
8.23373e-10
4.97386e-08
-3.42922e-09
1.3477e-09
4.56522e-08
1.74614e-09
6.00612e-09
7.88134e-08
1.29988e-09
6.88148e-08
-1.81528e-09
-1.08432e-10
4.38598e-08
-5.904e-10
2.1935e-09
5.0774e-08
-5.96613e-09
2.00554e-09
7.7832e-08
-2.74546e-09
7.41075e-08
-2.08492e-09
4.38339e-08
-1.38418e-09
5.71849e-08
-5.74544e-09
8.93396e-08
1.45195e-07
-3.10951e-09
-5.05572e-09
1.13939e-08
4.72541e-09
-4.18024e-09
4.48142e-08
-3.17122e-09
-3.39557e-09
3.81986e-08
-4.69439e-09
6.19447e-08
-9.93939e-09
-9.14488e-09
4.55401e-08
-8.46803e-10
-5.00836e-09