FoamFile
{version 2.0; format ascii;class vectorField; location 0;object  v;}
2496
(
( 0.00150314 -0.00136971 0.00225575 )  
( -0.00271173 0.00180918 0.00227639 )  
( -0.000342691 0.000569955 0.000205025 )  
( -0.00088658 -3.96466e-05 0.00246813 )  
( -0.00200193 0.00338743 0.00863472 )  
( 0.000225641 -0.000506571 0.00112223 )  
( 7.93075e-05 -0.000372781 0.0018631 )  
( 0.000861628 0.000409021 0.00294035 )  
( 0.000158879 -0.000230397 0.000110137 )  
( -0.000984036 -0.00179693 0.0010432 )  
( -2.3581e-05 -0.00125197 0.00323536 )  
( -0.000134756 0.000180203 0.000338508 )  
( -0.00103812 -0.000490685 0.0004586 )  
( 0.000883936 0.000990198 0.00242467 )  
( -0.000496887 -0.000392061 0.00128894 )  
( 0.00039278 0.000397985 0.00157074 )  
( -0.00106566 -0.0018267 0.00183979 )  
( -0.000336547 0.000438302 0.00125578 )  
( 0.00230277 0.00228063 0.00431941 )  
( -0.00150309 -0.000580117 0.00363873 )  
( -0.000177048 -6.15439e-05 0.00411584 )  
( -0.00017194 -9.92456e-05 0.000110632 )  
( -0.00121433 -8.59834e-05 0.00169716 )  
( -0.0010274 0.00186993 0.0013408 )  
( 0.000351464 -0.0031817 0.00408366 )  
( 0.000676263 -0.000599814 0.00177581 )  
( 0.000689263 -0.00227997 -0.00599186 )  
( -0.000339228 0.000149288 0.000130133 )  
( -0.000139879 -4.28157e-05 6.17242e-05 )  
( 0.000110548 -5.43143e-05 0.00406783 )  
( 6.13801e-05 -0.000807468 0.000118106 )  
( 0.000484503 0.000387655 0.00189122 )  
( 0.000697646 -0.000904874 0.00313296 )  
( -0.000582813 0.000636693 0.001228 )  
( -0.00100182 4.45892e-05 0.000188031 )  
( -0.000546771 -3.93601e-05 0.00134568 )  
( 0.000724163 -3.09392e-06 -0.000566238 )  
( -0.000241593 0.000344765 0.00158292 )  
( -0.00122784 -0.00125879 0.00156648 )  
( 0.000458922 7.00458e-06 -0.000230388 )  
( -0.000627164 0.00182132 -0.00096734 )  
( 0.00017341 0.000426415 0.00266619 )  
( -0.000508579 0.000116974 0.00331848 )  
( -0.00018591 -0.000857454 0.00139108 )  
( -0.00184719 -0.00110708 0.00199449 )  
( 0.000465031 -0.000606099 0.00153279 )  
( -0.000781426 9.13314e-05 0.000639768 )  
( 0.000382659 -0.000204763 0.0024827 )  
( -0.00182732 -0.00172892 0.00169627 )  
( 0.000798232 0.000640674 0.00227235 )  
( -5.89564e-05 0.000579288 0.00031862 )  
( -0.000277076 -0.00188545 0.00281295 )  
( -0.00232151 -0.00116452 0.00490155 )  
( 0.000131279 0.00083247 0.00169652 )  
( -0.000253831 0.000515133 0.00306881 )  
( 0.00250152 -0.000210298 0.00208396 )  
( -2.36741e-05 -0.000815504 0.00528314 )  
( 0.000381707 -0.000438764 0.00166513 )  
( -0.000203536 -0.000102278 0.000373706 )  
( -0.00121606 -3.86385e-05 4.03271e-07 )  
( 0.000117149 -8.79813e-05 0.00206017 )  
( -0.000506101 0.00026193 0.00216223 )  
( 0.00129261 8.17411e-05 0.0038148 )  
( 0.0016701 2.95893e-05 0.00226365 )  
( 0.00103961 -3.13623e-05 0.00226131 )  
( -0.000256065 0.000396106 -0.000398469 )  
( -0.000844593 -0.000433702 0.00227074 )  
( -0.000342014 -0.00175794 0.000392921 )  
( 0.000947229 -0.000273164 0.00155152 )  
( 0.00181504 0.00137127 0.00258107 )  
( -0.00063323 -0.00187861 0.00379591 )  
( -0.000376909 0.00217497 0.000602617 )  
( -0.000456607 0.000186497 0.00123424 )  
( -0.00249432 0.00100849 0.00650282 )  
( 0.000512137 0.000884172 -0.000738938 )  
( -0.00274963 -0.00131621 3.36745e-05 )  
( 0.000238284 -0.000616925 0.00332762 )  
( -0.00036439 -0.000746254 0.00127325 )  
( 0.00149881 -0.00356077 0.0063884 )  
( -0.000242309 0.000290425 -5.36614e-05 )  
( -0.00076642 0.00191435 0.00518527 )  
( 0.000170588 -6.52923e-05 -0.00177395 )  
( 2.21221e-05 8.74091e-05 4.80425e-05 )  
( 0.000577806 -0.000520616 0.00202782 )  
( 0.000489223 0.00026706 -0.000261988 )  
( 0.000387643 0.000389344 0.00186604 )  
( 0.000312516 -1.72176e-05 0.00153883 )  
( -0.000248721 -0.00149202 0.00329865 )  
( -0.00104547 0.000395046 0.00200683 )  
( -0.000511589 3.16319e-05 0.00204374 )  
( -0.000525538 -0.00112308 0.00194066 )  
( -0.00188642 -0.00161833 0.00366459 )  
( -0.00195576 -0.000189088 0.00234527 )  
( -0.000480486 0.00044188 0.00623714 )  
( 0.000168275 -0.000201055 -0.000203478 )  
( -0.000667142 0.00203149 0.00106337 )  
( 0.000504381 0.000129064 -0.00125084 )  
( -0.000308827 0.000872984 0.00374002 )  
( -0.00115744 -0.00190191 0.00356285 )  
( 0.000642774 0.000694937 0.00331454 )  
( -0.000874705 0.00224172 0.00632765 )  
( 0.000492535 -0.000653416 0.00154678 )  
( -0.00166497 0.00105457 -0.000766074 )  
( 0.000325372 -0.00108369 0.00127916 )  
( -0.000270981 0.000104835 0.000220071 )  
( -0.000929084 -0.000742591 0.00300291 )  
( -0.000463547 -0.000549095 0.00229114 )  
( -0.000716554 -0.00122681 0.00113018 )  
( 0.000781014 -0.00117284 0.00260067 )  
( -0.0012424 -0.0017924 0.00280973 )  
( -0.000784779 0.00130496 0.00367557 )  
( 0.000613713 -0.00123304 0.00226922 )  
( 5.10978e-06 -0.00219739 0.00478104 )  
( -0.000317948 -0.000896489 0.00317079 )  
( 0.000738159 0.000567151 -0.000603275 )  
( -0.000639175 -6.90322e-05 0.00235286 )  
( 0.000290499 0.000670813 0.00223761 )  
( 0.00216222 -0.000783151 0.00302044 )  
( -0.000228786 -0.000298708 0.00167504 )  
( 0.000509215 0.000941297 0.00211424 )  
( -3.29407e-05 -0.00138299 0.00323616 )  
( -0.00199761 0.000564366 0.00290814 )  
( 0.000695344 -0.000661305 0.00207234 )  
( -0.000101588 0.000291961 -0.000245746 )  
( 0.000835391 -0.000800384 0.000819904 )  
( -0.00167194 0.000708029 -4.46191e-06 )  
( 0.00149411 0.00100437 0.00258403 )  
( -0.000612295 -0.000234747 0.00215203 )  
( 7.691e-05 0.00143253 8.41598e-05 )  
( 7.44314e-05 -0.00101331 0.00288299 )  
( 0.000142374 -0.00100499 0.00368223 )  
( -0.00402684 -2.83279e-05 0.0044955 )  
( 8.71422e-05 -0.00140332 0.00151045 )  
( -0.000454497 -0.000707363 0.00535007 )  
( 0.00142786 -0.00218942 0.00483095 )  
( 0.000167956 0.000226695 -0.00023673 )  
( -0.000149551 -0.00090064 0.00301938 )  
( -0.00115415 -0.000210665 0.00146023 )  
( 0.000360576 0.000158446 1.27445e-07 )  
( 0.000183885 -0.000106475 -9.25916e-05 )  
( -0.00149274 -0.00294012 0.0036815 )  
( 0.00161219 0.00151052 0.0036111 )  
( -0.000272189 6.1371e-05 0.00265531 )  
( -0.000568541 -0.000295037 -0.000116826 )  
( 8.8017e-06 -0.000242458 -0.000212099 )  
( 0.000301135 -0.00173895 0.00348597 )  
( -0.000200799 6.30487e-05 0.00098321 )  
( 0.000361369 -0.000746721 0.00279127 )  
( -0.00246916 0.00123949 -0.00021257 )  
( -0.0048162 -0.000941049 -1.67672e-05 )  
( -0.00079083 -0.000802275 -6.56852e-07 )  
( 0.000134399 0.000238566 0.00138562 )  
( -0.00252327 -0.000574097 0.00388068 )  
( -0.000721436 -0.000726584 0.00291268 )  
( 0.000685424 -0.00136851 0.00169374 )  
( -0.00024432 -0.000732487 0.00308036 )  
( -0.000736756 -0.00289118 -2.22176e-05 )  
( -0.000640255 -9.85877e-05 -0.000687512 )  
( -0.0035133 -0.000274337 0.00517467 )  
( -0.00237948 -0.005185 0.00940135 )  
( -0.000779062 -0.00117885 0.00309326 )  
( -1.88789e-05 0.000273733 -0.000102746 )  
( -2.75455e-05 -0.000331499 0.0019292 )  
( -0.000442303 -0.00078004 0.00198248 )  
( 5.39925e-05 -0.000870709 0.00313316 )  
( 0.000236843 0.000421102 0.000747975 )  
( -0.00238275 0.000563069 0.00175591 )  
( -0.000276594 -0.000272901 0.0010553 )  
( 0.000208239 -0.000192495 0.00231013 )  
( 0.000347831 3.84574e-05 0.00218855 )  
( -0.000412908 -0.000292536 0.00165236 )  
( 5.6315e-05 0.000702499 0.00127703 )  
( -0.00235045 0.000563878 -4.00187e-08 )  
( 0.000959165 0.000748134 0.0019991 )  
( 9.56553e-05 -5.35604e-05 2.0768e-05 )  
( 0.00278903 0.000935914 0.00228768 )  
( -0.0008437 0.000847964 0.00331071 )  
( -0.00176504 0.000477315 0.00212628 )  
( -0.00121919 -0.000133333 0.00367825 )  
( 0.00012319 -0.000465852 0.00166758 )  
( 0.000446043 0.000292797 0.00189626 )  
( 0.000487402 9.96534e-05 0.000781728 )  
( 0.000250983 0.00169024 0.0013548 )  
( -0.000137488 -0.000245938 0.00310383 )  
( 0.000542743 -0.00146122 0.00210403 )  
( -0.000462217 -0.000131873 -0.000602927 )  
( -0.00118811 0.0014144 0.00235912 )  
( -0.000256071 0.000174178 7.65661e-05 )  
( -0.000698549 -0.00124373 0.00382643 )  
( -0.00112404 0.000475152 -0.000332319 )  
( 0.000508254 -0.000268151 0.00193312 )  
( -0.00123341 0.000968407 0.00384823 )  
( -0.000986201 -6.9713e-06 1.47736e-05 )  
( 0.000280327 -0.00195527 0.00147668 )  
( -0.00116386 -0.000246849 -4.51977e-05 )  
( 0.00156376 0.000247653 0.00244677 )  
( -0.00136542 -0.00188188 -0.00270505 )  
( 0.000818236 -0.0011248 0.000966091 )  
( -0.000303069 0.000530724 0.000178688 )  
( 0.000386281 -0.000646446 0.00354669 )  
( -0.00102531 8.02848e-05 0.00241936 )  
( -0.00126284 -0.000906766 0.00267361 )  
( 0.000586248 -0.00119164 0.00102115 )  
( 0.000267078 0.000313262 1.75318e-05 )  
( -0.00370468 -0.000342558 -0.00250459 )  
( -0.00118403 0.000473629 -0.000630412 )  
( -0.000573026 9.22246e-05 0.00165734 )  
( -5.35838e-06 0.00126156 0.00538491 )  
( 0.000409078 -0.00072914 0.00189337 )  
( -0.00122226 -4.21888e-05 4.02033e-07 )  
( -0.000531882 -9.88243e-05 0.00184307 )  
( -0.00183674 5.57858e-06 0.00395532 )  
( -0.000928513 -0.00352126 0.00457461 )  
( -0.000925135 -0.000123478 0.00145039 )  
( -0.000746704 -0.000518629 0.00500965 )  
( -0.000293565 4.8287e-05 0.000148511 )  
( 0.00169457 -0.000943207 0.00360813 )  
( -0.000165587 -7.95686e-05 -6.79795e-06 )  
( 0.00132364 0.000125323 0.0033243 )  
( -0.000203086 0.00133638 0.00143834 )  
( 0.000375082 -0.00188116 -0.000405631 )  
( -0.00217217 -0.000273915 -0.00140152 )  
( -0.00066915 -0.000973438 0.00127877 )  
( 0.0002171 -0.000333269 0.000132053 )  
( -7.19781e-05 0.000172942 0.00189557 )  
( -0.000453009 0.000537268 5.80101e-05 )  
( 0.000124724 -0.000390024 0.00216223 )  
( -0.000191995 0.000979921 0.00315418 )  
( 0.000675993 0.000408103 0.00117275 )  
( 0.000329619 -0.00105512 0.00190033 )  
( 0.00219687 -0.00012136 0.00381629 )  
( -0.000668342 0.000781345 -0.000567538 )  
( 0.000663438 -0.00149399 0.0043459 )  
( 0.00087691 0.000511583 0.000799366 )  
( -4.54761e-05 -0.00193829 0.00271698 )  
( -0.00117275 0.000835471 0.00176941 )  
( -0.00138513 -0.00351899 0.00759827 )  
( 0.000515792 -0.00302508 0.00431851 )  
( -0.000483023 -0.000819484 9.59598e-05 )  
( 0.000595431 -0.000638464 0.00832779 )  
( 0.000953829 -0.000481425 0.00338998 )  
( 0.000168519 -0.000398127 0.00395292 )  
( 0.000546705 -0.000622296 0.00161074 )  
( -0.000863424 -0.000359509 0.00200555 )  
( 0.00132516 -0.000867003 0.0048687 )  
( -2.90301e-05 -0.000653931 0.00130163 )  
( -0.00052152 0.00153039 0.0032619 )  
( 0.000203676 0.000318626 0.00152164 )  
( -0.000985113 -0.000292526 0.00195523 )  
( -0.00152236 0.000503402 -0.000251693 )  
( 0.0005485 -0.000810011 0.00268967 )  
( -0.000891664 0.000113761 -0.000149667 )  
( -0.00075702 0.00258351 -0.00120969 )  
( 3.96929e-05 -0.00135387 0.00284156 )  
( 0.000231335 -0.00044002 0.00228284 )  
( 0.000691806 -0.000915157 1.61799e-05 )  
( 0.000568081 0.00269282 0.00373727 )  
( 0.000466157 -0.00037311 -0.000318193 )  
( 0.00121822 0.000979137 0.00267056 )  
( -0.000989438 0.00012844 0.00172723 )  
( -5.70974e-05 8.21861e-05 -0.000192201 )  
( -0.000488861 -0.000252752 0.000697407 )  
( 6.31362e-05 0.000217339 0.00128486 )  
( 0.00139277 -0.0010957 -0.00231537 )  
( 0.000197611 -0.00096103 0.0030981 )  
( -0.000617142 -0.000349603 0.00134798 )  
( 0.000211407 -0.00141453 0.00175359 )  
( -0.000604798 -0.000185468 -0.000164298 )  
( -0.00163738 0.000780878 0.00275598 )  
( 0.00140419 0.000846371 0.000629434 )  
( 0.00111178 -0.00197925 0.00395679 )  
( -0.000703732 -1.60977e-05 0.00304671 )  
( -0.000399624 -0.000281635 -0.000212922 )  
( -0.0016876 0.000655668 0.00181841 )  
( 0.000191816 -0.0009584 0.00228303 )  
( -9.05679e-05 -0.000431479 8.27201e-05 )  
( -0.00108052 -0.00151938 0.00237189 )  
( -0.000280209 -1.88646e-05 2.93149e-05 )  
( -0.000368809 -0.000429937 8.2858e-05 )  
( 0.0012064 -0.000847424 0.00248492 )  
( -0.00177806 0.00112922 0.00335165 )  
( 0.000778783 0.000893823 0.00318307 )  
( -0.0002334 -0.00040209 0.00147509 )  
( -0.000309533 -0.00178731 0.00301214 )  
( -0.000290892 -0.000131102 -0.000501794 )  
( 0.00141062 0.000719677 0.00530552 )  
( 0.000236257 0.000825618 0.0017693 )  
( 9.20922e-05 -0.000518562 0.00224566 )  
( -0.000466654 -0.000185689 1.3336e-06 )  
( 0.000643561 -0.000803401 0.00428938 )  
( -0.00101276 -0.00116506 0.00405181 )  
( 0.0005568 -0.000353502 0.0026386 )  
( -0.000789661 0.000676138 -0.000308262 )  
( 0.000882806 -0.000456197 0.000116027 )  
( 0.000427617 -0.00116631 0.00364128 )  
( 0.000689068 0.000516637 0.00333953 )  
( -0.000968726 -0.000287888 0.0033129 )  
( 0.000536694 -0.0011681 0.00315959 )  
( 0.000586155 -0.000542205 -0.000211515 )  
( 0.00107945 0.00114926 0.00248415 )  
( 0.00016537 -0.00427938 -0.00221896 )  
( -0.000621022 0.000882908 -0.00193225 )  
( 0.000908407 0.000612174 0.00264257 )  
( -0.00061533 0.000608993 0.00214611 )  
( -0.000439148 0.00191996 0.00655454 )  
( 0.000354948 -0.000207288 -0.00051259 )  
( -0.000596739 -0.000624767 0.00100358 )  
( -0.000864386 -0.000671846 0.00193106 )  
( -0.000362078 -0.000127495 0.00267434 )  
( -0.00195801 -0.00202219 0.00122457 )  
( 0.000138151 -2.3227e-05 0.00275722 )  
( -0.000463824 0.000414183 -0.000259199 )  
( 0.00072756 0.000457493 0.00284705 )  
( 9.83225e-05 0.000194665 0.00110978 )  
( 0.000791141 -0.000208068 0.00323861 )  
( 1.88952e-05 0.000673181 -0.00113343 )  
( -0.000604813 0.000376187 -0.000243567 )  
( 0.000480551 -0.000196298 0.00409152 )  
( 0.000116469 0.00052173 6.32517e-05 )  
( -0.000261121 -0.000331563 0.00214027 )  
( 0.00135284 -0.000259004 0.00277871 )  
( 0.000495993 4.36661e-05 -0.000393442 )  
( -0.0009025 0.000108642 -0.000565678 )  
( 0.000807769 0.000794625 0.00135848 )  
( 0.000332554 0.000922784 -0.000769723 )  
( 0.000218569 -0.000676966 0.00147826 )  
( 0.000907095 -0.00103392 0.00432133 )  
( -0.000995456 0.000539355 -0.00022123 )  
( 0.0010215 0.000542867 0.00115232 )  
( -0.000461762 -0.00256764 0.00493317 )  
( -0.00112934 -0.000668357 0.00214973 )  
( 0.000149892 0.000522805 -1.58503e-06 )  
( -0.00179448 0.000123609 0.00443619 )  
( 0.000477815 -0.000148086 0.00164652 )  
( 0.000550286 0.000225127 -0.000242784 )  
( -0.000563489 0.000426505 3.07229e-05 )  
( -0.000611775 -0.000841937 0.00377321 )  
( 0.00154882 0.00159831 0.00369169 )  
( 3.17662e-05 -0.000824704 0.00217602 )  
( 0.00054017 -0.0011488 0.000947551 )  
( 0.000152233 -0.000179428 -6.55434e-05 )  
( -0.00144822 -0.00123028 0.00270849 )  
( 0.000836144 -0.000403996 0.00401647 )  
( -0.000171958 0.000383745 0.00505472 )  
( 0.0018284 -0.00058805 0.00233923 )  
( -0.000807779 -0.00173741 0.00384344 )  
( -7.16265e-05 -0.000564642 0.00196158 )  
( -0.00141973 9.80303e-05 0.000629771 )  
( -0.00105456 0.00212157 -0.00152604 )  
( -0.00334813 -0.00065595 0.00174508 )  
( 0.00066559 0.000810762 0.00366595 )  
( 0.000183625 -0.000753997 0.0006706 )  
( -0.000852807 -0.000211006 -1.81371e-05 )  
( 9.60585e-05 0.000213319 2.64348e-05 )  
( -0.000618668 0.00208913 0.000580007 )  
( -0.000355788 -0.000465933 0.00241282 )  
( 0.00115609 -0.00108486 0.00125845 )  
( -0.000197254 -0.000924456 0.000394284 )  
( -0.000437975 0.000730789 -0.000183987 )  
( -0.000468974 -0.000889189 0.00153469 )  
( 0.00175991 -0.000536335 0.00428819 )  
( 0.00078384 -0.000773036 0.00159536 )  
( -0.00324252 -0.00184367 0.0059549 )  
( -0.00190013 4.6372e-05 0.0085249 )  
( -9.93612e-05 -2.27176e-05 0.00109849 )  
( -0.00082586 -0.00221254 0.00352564 )  
( 0.000743255 0.00069573 0.00133689 )  
( -0.000382208 -0.000317269 0.000501663 )  
( -0.000906127 -0.00145247 0.00231225 )  
( -0.000904385 0.000923886 0.00430133 )  
( 0.000392802 -0.000642756 3.39985e-05 )  
( -0.000180899 -0.000750743 0.00305763 )  
( -0.000440345 0.00108178 0.00108283 )  
( 0.00048891 0.00064908 0.00175469 )  
( -0.000445964 0.00137827 0.00059012 )  
( -0.000623424 0.000723985 0.00129359 )  
( -0.000499691 0.00122598 -0.000590388 )  
( 0.000128676 0.000304721 -4.34554e-05 )  
( 0.000680399 -0.000886458 0.0053218 )  
( -9.79257e-05 5.61817e-05 8.73463e-05 )  
( -4.17242e-05 0.00109929 0.00138633 )  
( 9.08066e-05 -0.00130007 0.00333473 )  
( -0.00022034 -0.00115256 -7.4496e-06 )  
( 0.00147464 -0.00137377 0.00162763 )  
( -0.000355778 0.000430453 -4.06513e-05 )  
( 0.00021567 -0.000329332 0.00190326 )  
( 0.00142581 -0.000611696 0.00291009 )  
( -0.000842683 0.00046005 0.00123377 )  
( 0.000580026 -0.000698944 -0.000802603 )  
( 9.2593e-05 -0.000247532 0.00270101 )  
( 0.000331048 0.00021641 0.00243594 )  
( 4.2279e-05 -0.000497622 -8.24068e-06 )  
( 0.00125985 -0.000586228 -0.00113405 )  
( -0.000329429 -4.04883e-05 5.26164e-05 )  
( -0.000372646 0.00029596 -0.00123839 )  
( -0.00132867 0.000483863 -0.000340497 )  
( -0.000138603 0.000785124 0.00135971 )  
( 0.000350952 -0.00195968 0.0059046 )  
( -0.00014049 -7.42315e-05 -0.000123396 )  
( -0.000178207 -0.000507284 0.00270742 )  
( -0.00138806 0.000627685 0.00211498 )  
( -0.000282183 -0.000731307 0.00114629 )  
( 0.00108804 -0.000474881 0.00188936 )  
( -0.000289359 -0.000171053 -5.98077e-05 )  
( 0.000910781 -0.000655254 0.00357194 )  
( -0.000645209 -0.00125637 0.000941537 )  
( -0.000979116 -0.000129934 -0.000216137 )  
( -0.00109089 -0.00264025 0.00421389 )  
( 0.000694929 -9.81428e-05 0.000942519 )  
( -0.000852655 -4.3374e-05 -0.000382851 )  
( -0.000925391 -0.00177357 0.00471048 )  
( 0.00018798 0.000930955 0.00119064 )  
( -0.00117849 -0.000785161 0.000194532 )  
( -0.000478264 -0.000584645 0.00101906 )  
( -0.000397512 0.000170686 0.00119573 )  
( 0.000181439 -0.00019729 1.99375e-05 )  
( -5.25423e-05 0.000285929 0.00296243 )  
( -0.00130378 0.000765404 -0.00117656 )  
( -0.0025423 -0.000785194 -0.00213572 )  
( -7.99165e-05 0.00247665 0.000524597 )  
( -8.3087e-05 -0.000159713 0.00083364 )  
( 0.00174844 0.000830564 0.00224987 )  
( -0.000472506 0.000201271 0.00199426 )  
( 0.000163549 -0.00014698 -0.000477717 )  
( 0.00228948 0.00194449 0.00653104 )  
( 0.00172948 0.000609615 0.00307443 )  
( -0.00344262 -0.00419802 -0.00178073 )  
( 0.000338293 -0.00137214 0.00440758 )  
( 0.000189827 0.00117681 0.0014542 )  
( 0.000858227 -0.000356232 0.00241971 )  
( -0.00035102 -0.000859895 0.00312596 )  
( -0.000369104 7.30894e-05 8.52811e-05 )  
( -5.56993e-05 -0.000247811 0.00203122 )  
( -0.000158946 -0.00019609 -7.45374e-05 )  
( 0.00054455 0.000411928 0.000580702 )  
( -4.08811e-05 0.000482794 8.39833e-05 )  
( 0.000466883 -0.000346008 0.00547542 )  
( -2.88629e-05 -5.63851e-05 0.00166057 )  
( -0.000291963 -0.000252235 -7.27904e-05 )  
( 0.00213528 -0.00321726 0.00378935 )  
( -0.000408679 -0.00171552 -0.000492689 )  
( 6.21397e-05 0.000847287 0.00120226 )  
( -0.00125516 0.00141469 -0.000166396 )  
( 0.000510265 -0.00493628 0.00359288 )  
( 9.71823e-05 0.00104394 0.00271087 )  
( 0.00165757 -0.00162473 0.00304544 )  
( -0.000629254 0.000606076 0.00183166 )  
( -0.00323443 -0.00077726 0.00211206 )  
( -0.000189828 -9.58816e-05 6.1235e-05 )  
( 4.18761e-05 -0.00185731 0.000507788 )  
( -0.000359917 0.000294104 -5.30808e-06 )  
( -0.000390188 0.00121164 0.00373803 )  
( -0.000832275 4.85574e-05 0.00965405 )  
( -0.000501782 -0.000458019 0.00249699 )  
( 7.6135e-05 0.00048519 0.00307288 )  
( -0.000129522 5.54059e-05 0.00180237 )  
( 0.000414378 -0.00102737 0.00226063 )  
( -7.91171e-05 -0.000578952 0.00130468 )  
( 0.000356414 -0.000444406 0.00193547 )  
( 5.49121e-06 -0.000903486 0.000938288 )  
( -0.000245176 -1.18308e-05 0.0023667 )  
( 0.000606623 -0.000387431 0.001757 )  
( -2.84771e-05 -0.00139317 0.000924343 )  
( -2.94373e-05 -0.00159038 0.00320182 )  
( 0.0002611 -0.000472755 0.00214345 )  
( 0.000524565 -7.58388e-05 0.00183655 )  
( -0.000192751 0.000250956 0.00115316 )  
( -0.00194875 -0.0012681 0.00557744 )  
( -0.000394648 -0.000888331 0.00332585 )  
( 0.000222587 -0.000883579 0.00181405 )  
( 0.000935427 0.000193964 0.00196079 )  
( -0.000164365 -0.000609776 0.00202238 )  
( -0.000998204 -0.00229479 0.0108836 )  
( -1.13635e-05 -0.00192564 0.00476546 )  
( -0.000523809 0.00118787 0.00164537 )  
( 3.86993e-06 0.000933032 0.000551679 )  
( 0.000761882 -0.000983382 0.00243225 )  
( 0.000762978 -0.000345975 0.00399395 )  
( 4.795e-05 -0.000878008 -0.000607073 )  
( -0.000632318 -0.000923614 -0.000498681 )  
( 0.000298884 0.00116051 0.00167018 )  
( 0.00051727 0.00111598 0.00386309 )  
( 0.000192254 0.000256866 0.00148046 )  
( 0.000918221 0.000249777 0.00153806 )  
( 0.000844751 0.00038432 1.27368e-07 )  
( -0.00100529 -0.000773163 0.000223087 )  
( 0.000486507 -0.00234239 0.0100472 )  
( -0.00081251 0.000822171 0.00164313 )  
( -0.000790986 -0.00184827 0.00536627 )  
( 0.000553351 -0.00076812 0.0030891 )  
( -0.00441701 -0.000524793 0.00486938 )  
( 0.000342486 -0.000280173 0.000102195 )  
( 5.07967e-05 0.00034962 0.00257541 )  
( -0.00116178 0.0023688 0.00123162 )  
( 0.000483799 -0.00189994 0.00317901 )  
( -0.00155397 0.00135279 0.000856572 )  
( 0.00278576 0.00124072 0.00382099 )  
( -0.000114875 0.00158772 0.00580257 )  
( -5.22126e-05 -0.00132866 0.00385196 )  
( -2.88468e-05 -0.000142042 7.26244e-06 )  
( 0.000477426 0.000876898 5.70239e-05 )  
( -0.000700317 -0.00182366 0.00203885 )  
( 0.000147153 6.73828e-05 1.19374e-07 )  
( 0.000143976 0.00252606 0.00765653 )  
( 0.000402297 -0.00142334 0.000922975 )  
( 0.000437467 4.74905e-06 0.00164684 )  
( 0.000671938 0.000687728 1.08772e-05 )  
( -0.000566787 0.000265204 -0.000746128 )  
( -0.000221959 0.000446586 0.0023799 )  
( 0.000360841 -0.000437227 0.000824838 )  
( -0.000611162 0.000130397 -0.000407104 )  
( 0.000131893 -0.000416795 0.000996353 )  
( 0.00067333 -0.000334019 0.00194378 )  
( 7.04246e-05 -0.000465859 -0.00127532 )  
( -0.000933127 -0.000734364 0.00121869 )  
( 0.000686617 -0.00102371 -1.82555e-05 )  
( 0.000232622 -7.19273e-05 2.1646e-05 )  
( -0.000873131 0.000418034 0.000905495 )  
( -0.00212531 0.000269264 -0.0011301 )  
( 0.000250191 0.000597319 0.000155349 )  
( 0.0003413 -0.000434491 0.002531 )  
( -0.00021474 -0.000416657 8.33744e-05 )  
( -0.000280274 7.30388e-05 0.00105071 )  
( 0.000154024 0.000189435 0.000134792 )  
( 0.000807968 -0.000765718 0.00521361 )  
( -0.00108104 0.00124117 0.00266101 )  
( 0.000212129 0.000225283 2.61116e-05 )  
( -0.00252619 0.000694067 0.00279356 )  
( -0.00040687 -0.00116349 0.00155932 )  
( 0.000781062 -0.00099351 0.00204384 )  
( 0.000167728 -0.000573621 0.00295274 )  
( -0.000467483 0.00160503 0.00323545 )  
( 0.000733154 -0.00018504 0.00136339 )  
( 0.000376412 0.000661927 0.00189967 )  
( -0.000885049 0.000170485 -0.000316835 )  
( 6.09987e-05 -0.000194655 0.00189892 )  
( -4.89255e-05 -9.02974e-05 -9.09271e-05 )  
( 0.000174692 0.000676619 0.00132272 )  
( 0.000935693 -0.00100394 -8.81781e-06 )  
( -0.000396235 -0.000626687 0.00174313 )  
( -0.000853155 -0.000739296 0.00148638 )  
( 3.47559e-05 -4.24443e-06 -5.90053e-07 )  
( 0.00118857 -0.000291682 -0.000218666 )  
( -8.55988e-05 9.59845e-05 0.000136557 )  
( -0.000116537 -0.000121656 0.00196443 )  
( -0.000192363 0.000177357 -0.00073648 )  
( -0.000444031 0.000243043 7.66934e-06 )  
( -0.00125318 0.000680713 7.83412e-06 )  
( -0.000488883 -0.000604709 0.000552787 )  
( 0.00178412 -0.000104644 0.00353682 )  
( -5.38442e-05 -0.000944074 0.00198461 )  
( -0.000574488 1.91467e-05 0.00234454 )  
( 0.000124457 -0.00278584 -0.000563902 )  
( 0.000867909 -7.70649e-05 -3.59147e-05 )  
( -3.42626e-05 -0.000427153 0.00217786 )  
( -0.00173475 -0.000940601 0.00263607 )  
( 0.00087466 0.00102783 0.000928814 )  
( -0.00055855 -0.000519879 0.00389468 )  
( -0.00183613 -0.000919615 0.00226589 )  
( 0.00089354 -0.000130003 0.00182318 )  
( 0.000253245 -0.00152172 0.00234831 )  
( 0.000776172 0.000665339 0.00179862 )  
( -0.00279888 0.000509983 0.00475976 )  
( 0.00049165 -0.000520981 0.00177989 )  
( -0.002616 -0.00351633 0.00421203 )  
( -0.000753981 0.000938863 -0.000363911 )  
( 0.00133876 -0.000107298 0.00467225 )  
( -0.000352351 -0.000226609 0.00260704 )  
( 0.000231332 3.8384e-05 4.81684e-06 )  
( 0.00172033 -0.00131463 0.00512073 )  
( -8.44289e-05 9.64916e-05 0.00114493 )  
( -0.00021297 -0.0011201 0.00466547 )  
( 0.000702981 -0.000802033 0.00272836 )  
( 0.000717073 -0.000528194 0.00238448 )  
( -0.000820513 0.0014194 0.000709978 )  
( 0.00114851 -0.00159046 0.000292026 )  
( -0.000160484 -0.000180592 8.47958e-05 )  
( -0.000124193 0.000779915 -3.53669e-05 )  
( -0.00196467 -0.000652562 0.00731154 )  
( 0.00257707 0.001016 0.00394719 )  
( -0.000989377 0.000155041 0.000165709 )  
( 0.00068241 -0.000522881 0.00200781 )  
( 0.000439724 -8.5617e-05 0.000106891 )  
( -0.000612709 0.00113735 0.00164768 )  
( -0.000311398 -0.000798405 0.00204337 )  
( 0.000852027 -0.000992089 -9.03006e-05 )  
( -0.000463247 0.000156308 0.00137157 )  
( 0.0011228 -0.000835762 0.00326538 )  
( 0.000442699 0.00146191 0.00114289 )  
( -0.00061714 0.000230693 -3.99637e-05 )  
( 0.000655686 -0.000715378 0.00169734 )  
( 0.000448069 0.000211897 -0.000301353 )  
( -0.00213159 -5.42128e-05 0.00385954 )  
( -0.000934802 0.00175843 0.000538563 )  
( 0.000265976 -0.00152905 -1.93749e-05 )  
( -0.00163959 -0.00449592 0.00531029 )  
( 0.000716841 -0.000358743 0.00167602 )  
( -0.000165063 -0.00165244 0.00307655 )  
( -0.000595768 0.00195805 1.92356e-05 )  
( -0.000292551 -0.000838212 0.000164775 )  
( -0.000560105 -0.000556316 0.0025254 )  
( -0.000638968 -0.000426583 0.00329698 )  
( -0.000788524 -0.00091943 0.00433744 )  
( 5.85152e-05 0.000929024 -0.00249219 )  
( -0.000968631 -0.00158838 0.00261636 )  
( 0.00438802 -0.00208753 0.00564882 )  
( 0.000131443 -0.000195591 0.00329986 )  
( -0.000294457 0.00126312 0.00126143 )  
( 0.000206734 -0.000647977 -5.11677e-05 )  
( -0.000578718 0.00141122 -0.00184161 )  
( 0.000450643 -0.000869504 0.000129291 )  
( 0.000149353 -0.0013376 0.00297566 )  
( 7.04141e-05 0.000217037 0.000686556 )  
( 0.000637033 -0.000506086 0.00303279 )  
( -0.000396401 -0.00214472 0.00179925 )  
( 0.000948778 -0.000708565 0.0013177 )  
( -0.000280103 -0.000825023 -0.00292466 )  
( 0.00219729 -0.000241933 0.00263912 )  
( 0.00109934 -0.00109979 0.00254066 )  
( 0.000331734 -0.000231553 0.00128316 )  
( -0.000722437 -0.00165992 0.00498985 )  
( -0.000222111 0.00032843 0.00253853 )  
( 0.000289753 -0.00132193 -9.47876e-06 )  
( 0.002212 0.0012158 0.00353791 )  
( -0.000187788 -2.57911e-05 3.93184e-05 )  
( 0.00147515 -0.000234886 0.0040556 )  
( -0.00177419 0.00122166 0.00156836 )  
( 0.000488871 0.000927132 0.0024656 )  
( 0.000334675 0.000869592 0.00241393 )  
( -0.00113745 -0.00154565 0.00259818 )  
( 3.02622e-05 -4.83507e-05 6.48091e-05 )  
( -0.000425976 -0.000400324 0.00395392 )  
( 0.000663512 -0.000930101 0.00139382 )  
( 8.04229e-05 -0.000119833 0.00125788 )  
( -0.00149375 -0.000175413 3.92572e-06 )  
( 0.00185278 -0.00165404 0.00418633 )  
( -0.000251678 0.00010004 -0.000136866 )  
( 9.84937e-05 0.000733723 0.00117436 )  
( 0.000556402 -0.00108289 0.00417164 )  
( 0.000513972 -0.000687061 0.00207407 )  
( 0.000276842 0.000106295 -0.000371874 )  
( 0.000100164 -0.000889827 -0.00141672 )  
( -0.000144719 0.000688959 -0.00520251 )  
( 0.000643863 -0.000735365 0.00237481 )  
( 0.000425291 -0.00055368 0.00189847 )  
( -0.00160449 0.000567907 0.00148713 )  
( -0.00161081 0.000700844 0.00586958 )  
( -0.000594863 0.000840173 0.00204717 )  
( -0.000310848 0.000266669 0.00257426 )  
( 4.40397e-05 -0.000101286 -0.00103104 )  
( 0.0043209 0.00342094 0.00385285 )  
( -5.4009e-06 -0.00154893 0.00426728 )  
( 0.000332639 -0.000846999 0.00197113 )  
( 0.000267763 -0.0015001 -0.00058976 )  
( -0.00520781 -0.00103319 1.22544e-07 )  
( -8.21589e-05 1.77433e-05 0.00257984 )  
( 0.000405773 -6.86646e-05 -0.00202314 )  
( -2.99733e-05 0.00044954 0.00157494 )  
( 0.000441973 -0.00115317 0.00094158 )  
( 0.000529559 -0.000115092 0.00215544 )  
( -0.00043225 0.000395617 4.31994e-06 )  
( -0.000118737 0.000256004 0.00236425 )  
( 0.000775964 -0.00284549 0.00321836 )  
( 0.00180657 -0.000625035 0.0021435 )  
( 0.00023977 -0.000718736 0.000421605 )  
( -0.00015442 -0.000173187 2.40718e-05 )  
( 3.82237e-05 0.00037493 2.91184e-06 )  
( 0.00243032 -0.00271224 0.00684029 )  
( -0.00175182 -5.95019e-05 0.00441756 )  
( -0.000299052 -0.000789658 4.99797e-05 )  
( -0.00213608 0.00019671 0.00257283 )  
( -0.000365014 2.90316e-05 0.0015049 )  
( -7.55009e-05 0.000294179 -7.60345e-06 )  
( 0.000657532 -0.00100217 0.00177767 )  
( 0.00015094 0.0005058 0.00238148 )  
( -0.000133786 0.000105201 0.00236042 )  
( 0.000221861 0.000164954 0.00219462 )  
( -0.00202858 -0.000204096 0.00180293 )  
( -0.00154979 -0.00279467 0.00249571 )  
( -0.00109675 0.000991288 -0.00100882 )  
( -0.000662511 -0.000224362 -7.80433e-05 )  
( 0.000955217 -3.80359e-05 0.00303845 )  
( -0.00100297 0.0021506 -0.00155556 )  
( -0.00118961 -0.00046491 0.00390558 )  
( 0.000477347 0.000379578 0.00210397 )  
( -0.000861335 -0.000393508 -4.41427e-05 )  
( -0.000635066 0.00158354 -0.00025856 )  
( 0.00119117 -0.000315556 0.00227842 )  
( -1.21106e-05 8.39304e-05 7.2897e-05 )  
( -0.000346711 0.000575807 0.000166115 )  
( 0.00142371 -0.0010645 0.00298389 )  
( 0.0017172 0.00104219 0.00398505 )  
( 8.44417e-06 0.00220816 0.00136702 )  
( -0.00103799 0.000677735 0.00271675 )  
( 0.00131764 -0.00019606 0.00114618 )  
( 0.000469123 -0.000845955 0.00162941 )  
( -0.000329113 -0.00202849 0.00272976 )  
( 0.000335594 -0.00109252 0.000718961 )  
( -0.00127836 -0.000745118 0.000960772 )  
( 4.02644e-05 -0.000570474 -0.000600056 )  
( -0.000395071 -0.000123416 0.00150252 )  
( -0.000285444 0.000389899 -4.04031e-05 )  
( 8.18175e-05 1.69096e-05 3.24431e-05 )  
( -0.000682346 -0.00184285 -0.00104391 )  
( 0.000102397 0.000116432 2.89929e-05 )  
( 0.000253703 -4.69663e-05 -2.92628e-05 )  
( -0.000393559 -0.00136225 0.00129284 )  
( -0.000262267 0.000494886 0.000619934 )  
( -5.19737e-05 -0.000820785 0.0024001 )  
( 0.000346256 -0.000202625 0.00245686 )  
( -0.000873802 -0.000925846 0.00226457 )  
( -0.000674243 -0.000107606 -0.000118336 )  
( -0.00012454 2.74184e-05 4.13621e-05 )  
( -0.00336737 0.0014023 0.00506362 )  
( -0.00035509 -0.000314118 4.11251e-05 )  