/*--------------------------------*- C++ -*----------------------------------*\
| =========                 |                                                 |
| \\      /  F ield         | OpenFOAM: The Open Source CFD Toolbox           |
|  \\    /   O peration     | Version:  2506                                  |
|   \\  /    A nd           | Website:  www.openfoam.com                      |
|    \\/     M anipulation  |                                                 |
\*---------------------------------------------------------------------------*/
FoamFile
{
    version     2.0;
    format      ascii;
    arch        "LSB;label=32;scalar=64";
    class       volScalarField;
    location    "0.03";
    object      Ksl;
}
// * * * * * * * * * * * * * * * * * * * * * * * * * * * * * * * * * * * * * //

dimensions      [1 -3 -1 0 0 0 0];

internalField   nonuniform List<scalar> 
1152
(
55422.7
95113.5
101811
123103
114809
75674.8
182050
125690
96489.1
117106
127107
72729.2
301156
83120.8
66702.5
68258.4
307574
287042
249649
302720
232668
304498
275146
183790
215193
182643
211902
307806
255672
580085
5.55137e+07
181627
103970
354645
192398
1.68538e+06
386275
248397
163724
193049
249886
230161
243078
249372
162825
170864
132639
1.2623e+07
1.49849e+06
170086
487657
229186
273558
404055
144300
212009
166108
385973
248961
374599
1.27469e+07
170892
373239
381656
143832
270100
175460
265931
212190
315821
335319
212197
268171
137455
451935
155885
146649
5.23873e+06
91147.9
205303
1.42534e+06
171070
228483
134464
115385
497514
154977
503500
564666
180367
253900
444115
3.78771e+06
211992
394650
158861
41139
35304.9
98742.6
37884.1
59131.6
94058
65332.2
144404
81947.7
30841.9
95487.2
53117.4
221470
72382.5
14434.5
37862.5
0
0
0
0
0
0
0
0
0
0
0
0
116.003
0
0
0
0
0
0
0
0
0
0
0
0
0
0
0
0
0
0
0
0
0
0
0
0
0
0
0
0
0
0
0
0
0
0
0
0
0
0
0
0
0
0
0
0
0
0
0
0
0
0
0
0
0
0
0
0
0
0
0
0
0
0
0
0
0
0
0
0
0
0
0
0
0
0
0
0
0
0
0
0
0
0
0
0
0
0
0
0
0
0
0
0
0
0
0
0
0
0
0
0
0
0
0
0
0
0
0
0
0
0
0
0
0
0
0
0
0
0
0
0
0
0
0
0
0
0
0
0
0
0
0
0
0
0
0
0
0
0
0
0
0
0
0
0
0
0
0
0
0
0
0
0
0
0
0
0
0
0
0
0
0
0
0
0
0
0
0
0
0
0
0
0
0
0
0
0
0
0
0
0
0
0
0
0
0
0
0
0
0
0
0
0
0
0
0
0
0
0
0
0
0
0
0
0
0
0
0
0
0
0
0
0
0
0
0
0
0
0
0
0
0
0
0
0
0
0
0
0
0
0
0
0
0
0
0
0
0
0
0
0
0
0
0
0
0
0
0
0
0
0
0
0
0
0
0
0
0
0
0
72393.2
166698
174580
118582
136029
83572.9
62796.3
105472
103810
232100
84044.9
80191
92044.9
94115.9
106022
344943
232701
191580
219015
147822
278685
187193
270009
263377
182791
239994
203856
230335
176712
484338
224790
208565
324063
214986
260025
201325
250101
222344
173804
179401
218639
255438
204508
470223
1.63399e+07
150754
889043
134378
592140
177465
262235
140733
491055
218780
222332
382483
157971
289637
211643
298461
284714
809589
148349
286908
2.32095e+06
179382
168566
158103
225839
234559
242602
281936
176034
306631
166779
240589
327004
141111
734109
118020
8.4233e+06
146858
305172
195644
84745.6
256952
188362
157382
325426
184618
210463
258460
251076
430780
221065
229519
25809.1
136050
82995.9
46760.1
30965.8
49002.2
120044
141259
35132.9
37742.5
47112.1
34652.8
27041.8
40778.7
47283.5
60837.4
0
0
0
0
0
0
0
0
0
0
0
0
0
0
0
0
0
0
0
0
0
0
0
0
0
0
0
0
0
0
0
0
0
0
0
0
0
0
0
0
0
0
0
0
0
0
0
0
0
0
0
0
0
0
0
0
0
0
0
0
0
0
0
0
0
0
0
0
0
0
0
0
0
0
0
0
0
0
0
0
0
0
0
0
0
0
0
0
0
0
0
0
0
0
0
0
0
0
0
0
0
0
0
0
0
0
0
0
0
0
0
0
0
0
0
0
0
0
0
0
0
0
0
0
0
0
0
0
0
0
0
0
0
0
0
0
0
0
0
0
0
0
0
0
0
0
0
0
0
0
0
0
0
0
0
0
0
0
0
0
0
0
0
0
0
0
0
0
0
0
0
0
0
0
0
0
0
0
0
0
0
0
0
0
0
0
0
0
0
0
0
0
0
0
0
0
0
0
0
0
0
0
0
0
0
0
0
0
0
0
0
0
0
0
0
0
0
0
0
0
0
0
0
0
0
0
0
0
0
0
0
0
0
0
0
0
0
0
0
0
0
0
0
0
0
0
0
0
0
0
0
0
0
0
0
0
0
0
0
0
0
0
0
0
0
0
0
0
0
0
0
0
76794.8
115476
114715
69763.7
113786
148783
514105
146574
142870
114347
84013.8
115074
239915
91437.3
84729.2
108574
1.26538e+06
138046
340311
285273
237009
329511
136979
125592
299536
139759
241715
219448
250112
2.59045e+06
272694
471321
121829
211727
412819
180395
239563
166022
491606
222720
228836
319892
144107
314186
154850
172721
312995
116291
451467
174152
479382
199000
389794
415364
126577
288155
238900
217468
8.46519e+06
126074
219204
301366
551075
8.96737e+06
383854
151941
438325
301076
193119
211264
220978
147413
221750
243499
118496
382956
233315
196674
189286
110177
2.57122e+06
216569
1.39088e+06
100489
163934
233749
111769
697672
182798
349631
229161
215762
363727
184968
450744
347751
59660.8
53362
62174.4
48020.9
48798.8
91532.6
52420.8
18276
89990.8
36991.1
20584.5
50364.8
40504.8
48407
17101.9
18886.5
0
0
0
0
0
0
0
0
0
0
0
0
0
0
0
0
0
0
0
0
0
0
0
0
0
0
0
0
0
0
0
0
0
0
0
0
0
0
0
0
0
0
0
0
0
0
0
0
0
0
0
0
0
0
0
0
0
0
0
0
0
0
0
0
0
0
0
0
0
0
0
0
0
0
0
0
0
0
0
0
0
0
0
0
0
0
0
0
0
0
0
0
0
0
0
0
0
0
0
0
0
0
0
0
0
0
0
0
0
0
0
0
0
0
0
0
0
0
0
0
0
0
0
0
0
0
0
0
0
0
0
0
0
0
0
0
0
0
0
0
0
0
0
0
0
0
0
0
0
0
0
0
0
0
0
0
0
0
0
0
0
0
0
0
0
0
0
0
0
0
0
0
0
0
0
0
0
0
0
0
0
0
0
0
0
0
0
0
0
0
0
0
0
0
0
0
0
0
0
0
0
0
0
0
0
0
0
0
0
0
0
0
0
0
0
0
0
0
0
0
0
0
0
0
0
0
0
0
0
0
0
0
0
0
0
0
0
0
0
0
0
0
0
0
0
0
0
0
0
0
0
0
0
0
0
0
0
0
0
0
0
0
0
0
0
0
0
0
0
0
0
0
)
;

boundaryField
{
    inlet
    {
        type            zeroGradient;
    }
    outlet
    {
        type            zeroGradient;
    }
    wall
    {
        type            zeroGradient;
    }
    procBoundary1to0
    {
        type            processor;
        value           nonuniform List<scalar> 
192
(
356124
166618
100140
118934
878672
209361
1.369e+06
244691
2.01418e+07
223441
122659
1.84015e+06
158218
202660
1.30983e+07
100937
226079
312512
105969
4.60072e+06
161071
161115
156511
137458
76015.9
240407
34927.2
76101.2
0
0
0
0
0
0
0
0
0
0
0
0
0
0
0
0
0
0
0
0
0
0
0
0
0
0
0
0
0
0
0
0
0
0
0
0
0
0
0
0
0
0
0
0
0
0
0
0
0
0
0
0
0
0
0
0
0
0
0
0
0
0
0
0
0
0
0
0
253860
146576
80783.5
482621
170530
148200
339164
133816
213032
216873
340270
131491
120893
210754
216988
341198
167993
237054
268559
183272
102974
400546
167664
142803
93336.8
135742
27431.5
62853
154.567
0
0
0
0
0
0
0
0
0
0
0
0
0
0
0
0
0
0
0
0
0
0
0
0
0
0
0
0
0
0
0
0
0
0
0
0
0
0
0
0
0
0
0
0
0
0
0
0
0
0
0
0
0
0
0
0
0
0
0
0
0
0
0
0
0
0
0
)
;
    }
    procBoundary1to3
    {
        type            processor;
        value           nonuniform List<scalar> 
192
(
59343
175018
107767
270469
103313
346496
138091
223421
257290
233810
811979
109906
465063
507023
148843
334313
6.54784e+06
97965
1.06414e+06
252206
100810
195056
161894
193726
273322
79887.3
179949
64156
0
0
0
0
0
0
0
0
0
0
0
0
0
0
0
0
0
0
0
0
0
0
0
0
0
0
0
0
0
0
0
0
0
0
0
0
0
0
0
0
0
0
0
0
0
0
0
0
0
0
0
0
0
0
0
0
0
0
0
0
0
0
0
0
0
0
0
0
82834.6
80254.4
175060
114147
271087
309676
139881
146652
297975
612449
198769
206197
203844
183171
176678
134685
164512
415451
212731
293468
158032
200023
104414
193461
48623.4
40789.6
46536.7
89847.5
0
0
0
0
0
0
0
0
0
0
0
0
0
0
0
0
0
0
0
0
0
0
0
0
0
0
0
0
0
0
0
0
0
0
0
0
0
0
0
0
0
0
0
0
0
0
0
0
0
0
0
0
0
0
0
0
0
0
0
0
0
0
0
0
0
0
0
0
)
;
    }
}


// ************************************************************************* //
