/*--------------------------------*- C++ -*----------------------------------*\
| =========                 |                                                 |
| \\      /  F ield         | OpenFOAM: The Open Source CFD Toolbox           |
|  \\    /   O peration     | Version:  2506                                  |
|   \\  /    A nd           | Website:  www.openfoam.com                      |
|    \\/     M anipulation  |                                                 |
\*---------------------------------------------------------------------------*/
FoamFile
{
    version     2.0;
    format      ascii;
    arch        "LSB;label=32;scalar=64";
    class       volVectorField;
    location    "0.03";
    object      stored_U;
}
// * * * * * * * * * * * * * * * * * * * * * * * * * * * * * * * * * * * * * //

dimensions      [0 1 -1 0 0 0 0];

internalField   nonuniform List<vector> 
1152
(
(0.00384007 -0.00184044 0.0242826)
(-0.000890081 0.000127153 0.0120042)
(-0.00019678 -0.000860373 0.0120694)
(0.000989483 7.05404e-06 0.00940714)
(0.00126213 -0.000376302 0.0105802)
(-0.000879543 0.000302112 0.0150973)
(9.26974e-05 0.000354886 0.00719511)
(0.000939157 0.000910616 0.0101873)
(0.000842972 4.72354e-05 0.0132013)
(0.000200246 0.000448452 0.010444)
(0.000390324 0.00171025 0.00956508)
(-1.12876e-05 0.0014868 0.0159721)
(0.00111862 0.00114199 0.00362192)
(0.00161105 -0.000271591 0.0148195)
(0.00161332 0.000748762 0.0193293)
(-0.0017683 -0.00162311 0.0182622)
(-0.00102809 1.41847e-05 0.00993987)
(-0.000146976 -0.000146154 0.0101276)
(0.000611636 0.00173686 0.0118843)
(0.000886578 -2.26401e-05 0.00962457)
(-0.00156268 0.000520261 0.0132094)
(0.00102133 0.000870889 0.00975898)
(0.00095797 0.000659412 0.0112804)
(-0.000397362 -0.000243478 0.0173601)
(-0.000862366 0.00105065 0.0154829)
(0.000486431 0.00140039 0.0175104)
(-0.000884177 -0.00117831 0.0147384)
(0.000257448 -0.000366027 0.00960213)
(0.00039666 -0.000531729 0.0128973)
(-0.000411675 0.00013896 0.00522234)
(-3.13538e-05 9.91131e-05 0.000489953)
(0.00197339 0.00291741 0.0166073)
(-0.00427664 0.00209207 0.0413012)
(-0.000153562 8.09657e-05 0.0108362)
(-0.000390257 0.00032376 0.0196471)
(-1.92938e-06 0.000166608 0.00242322)
(-0.000490814 0.000519246 0.00965986)
(0.000275249 -0.000336216 0.0151433)
(-3.63614e-05 0.000347345 0.0241205)
(-0.000911572 0.000107495 0.0199425)
(-0.00170393 0.000284184 0.0162213)
(-0.0010207 0.000900156 0.0177863)
(-9.8256e-05 -0.000290003 0.0158219)
(0.000226408 -0.00021441 0.0147642)
(-0.00237016 -0.00401495 0.0255123)
(-0.000179799 -0.000473727 0.0264058)
(-0.00236582 -0.00078961 0.0339636)
(-1.2055e-05 3.26033e-05 0.000753437)
(0.00010974 0.000238168 0.00280943)
(0.00190706 0.000137117 0.0223392)
(0.000166334 -6.72094e-05 0.00748375)
(-0.00156062 1.08295e-05 0.0161248)
(0.00019413 0.00239176 0.013333)
(-0.000771862 0.000941894 0.00873374)
(-0.000122724 0.00050129 0.0276275)
(0.000720085 0.000938362 0.0177716)
(9.03545e-05 0.0027166 0.0229803)
(-0.000765247 0.00109192 0.00974569)
(-0.000566503 0.0019346 0.0150811)
(0.000158495 0.000749067 0.00936382)
(-0.000122221 -1.42171e-05 0.00095519)
(-0.00160969 0.00205263 0.0233838)
(-0.000290659 0.000548791 0.0106747)
(-0.000834859 -0.00105609 0.00899806)
(0.000314403 0.00147602 0.0287064)
(5.80157e-05 0.00020488 0.0137436)
(0.000423685 0.000174776 0.0203149)
(-0.000401223 -7.82945e-05 0.0134348)
(0.000533153 0.000214275 0.0166991)
(-0.000981191 0.000488206 0.0104696)
(-0.00045536 0.00013579 0.00994596)
(0.00113053 -6.14302e-05 0.0162199)
(0.00154297 0.00177535 0.0140356)
(-0.000204363 0.000736281 0.0263407)
(-0.000176276 0.000487413 0.00760545)
(-0.00025035 0.00210489 0.0232764)
(0.00301205 0.00675244 0.0190952)
(4.15806e-05 3.05231e-05 0.000891155)
(0.000283906 0.000947423 0.0431733)
(-0.000476756 0.000634023 0.0176419)
(0.000167015 -7.73418e-05 0.0018721)
(-0.00110813 -0.000469133 0.0122958)
(-0.000349849 -0.000619436 0.00959821)
(0.00187906 -0.000199807 0.0162072)
(0.00268173 -0.00162781 0.0186263)
(0.000199113 -0.000163661 0.00421036)
(-0.000975941 0.000642161 0.014327)
(6.57094e-05 4.8011e-05 0.00426364)
(0.000373113 -0.00124773 0.00333351)
(0.000480597 -0.00220188 0.0112893)
(-3.68108e-05 0.000786974 0.00784531)
(-0.000184815 0.000480833 0.00448487)
(0.000367095 2.07227e-05 0.000840674)
(0.00470598 -0.00200838 0.00806137)
(0.0012111 -0.000421387 0.00561916)
(-0.000126579 0.000268727 0.0127071)
(2.0646e-05 0.000205918 0.0101395)
(0.00095811 0.00145918 0.0124178)
(-6.78609e-05 0.000146253 0.00658333)
(-0.000113151 9.98996e-05 0.0144352)
(6.85667e-05 0.000841973 0.0113362)
(0.000803854 -0.00024914 0.00590602)
(0.000129844 0.000186492 0.0093901)
(0.000862779 0.000385013 0.00396593)
(-0.000372017 0.00316788 0.00776185)
(-0.000441102 -0.000252443 0.0182017)
(0.000132688 0.00014168 0.00564236)
(-0.000103459 8.78557e-05 0.0100508)
(0.000446589 -0.000657677 0.00383919)
(-0.000907965 -0.00139546 0.0119123)
(-0.000225008 8.66799e-05 0.0261685)
(0.000609134 -7.40678e-05 0.0123759)
(-0.000481124 0.000487773 0.016148)
(-1.19952e-05 0.000322448 0.0151517)
(-0.000221078 -0.00010369 0.0129782)
(-0.000193136 -2.52143e-05 0.0161324)
(-0.000307315 0.000597288 0.0159771)
(-0.000338265 -9.75066e-06 0.0119439)
(-0.000222149 -0.000216772 0.0118997)
(-0.000273193 5.44183e-05 0.00846515)
(-0.000212496 8.70627e-05 0.0158031)
(-0.000709136 5.87396e-05 0.0184678)
(-0.000316852 -0.00116635 0.0119567)
(-0.000220473 -0.000536231 0.0125198)
(-0.000193039 -0.000190274 0.0319658)
(-0.00136864 0.000269482 0.0181161)
(-0.00109654 0.000122991 0.0195783)
(0.000498395 0.000125448 0.0160834)
(-0.000133865 -0.000303769 0.00423021)
(0.000174999 0.000161374 0.00408149)
(5.833e-05 0.000112291 0.00357249)
(-0.000166696 0.000502533 0.00396886)
(-8.46868e-05 -0.00067271 0.00387006)
(0.000408084 -0.000482606 0.00337299)
(0.00031739 -0.000226641 0.00314713)
(-0.00026214 0.000145308 0.00268647)
(0.000293392 -0.00192218 0.00398816)
(0.000687905 -0.000981347 0.00436195)
(0.000622356 -0.00102687 0.00346464)
(4.38379e-05 -0.000774679 0.00327885)
(-1.85495e-05 -4.57e-05 0.00520927)
(0.0013326 2.35496e-05 0.00415074)
(0.000430578 -0.000107666 0.00513244)
(0.000477854 -0.000413281 0.00425914)
(3.73097e-06 -0.000129651 0.00868342)
(0.000133254 4.16854e-05 0.00864722)
(0.000135164 -3.47726e-05 0.00835506)
(3.8007e-05 2.46368e-05 0.00846164)
(3.33247e-06 -0.000279815 0.00865654)
(0.000186123 -0.000234447 0.00840565)
(0.000166995 -0.000188749 0.00815143)
(-5.90538e-05 -7.95481e-05 0.00798772)
(7.30949e-05 -0.00051556 0.00911109)
(0.000242249 -0.000424618 0.00893894)
(0.000264515 -0.000470817 0.00840794)
(4.39162e-05 -0.000388793 0.00824604)
(-9.44828e-05 -2.9221e-05 0.0101531)
(0.000232573 -5.36142e-05 0.00920754)
(0.000173516 -0.000115942 0.00901727)
(0.000151104 -0.000231243 0.00869861)
(3.11831e-05 -0.000112302 0.00726433)
(5.31463e-05 -1.99771e-05 0.00724571)
(4.29551e-05 -4.39225e-05 0.00711981)
(-4.5388e-05 2.34545e-05 0.00710624)
(2.44191e-05 -0.000142713 0.00725288)
(7.81458e-05 -0.000116539 0.00718431)
(6.22064e-05 -0.000103434 0.00707878)
(-4.1715e-05 -4.39376e-05 0.00702353)
(2.6474e-05 -0.000173647 0.00741846)
(9.56982e-05 -0.000177106 0.00737148)
(0.000104962 -0.000188101 0.00720699)
(1.84026e-05 -0.000153822 0.00713596)
(-4.57227e-05 -2.50034e-05 0.00761191)
(6.33769e-05 -5.03319e-05 0.00747796)
(7.87021e-05 -7.73537e-05 0.00740913)
(4.7793e-05 -0.000113885 0.00731002)
(2.59449e-05 -7.24695e-05 0.00748978)
(3.08656e-05 -3.41975e-05 0.00748904)
(3.18967e-05 -5.53745e-05 0.00743931)
(-1.61046e-06 -3.67617e-05 0.00743526)
(1.87874e-05 -7.22097e-05 0.00750505)
(3.4773e-05 -6.33519e-05 0.00748564)
(2.96478e-05 -6.74221e-05 0.00744307)
(-9.37352e-06 -5.05646e-05 0.00742676)
(1.13588e-05 -6.74625e-05 0.00757064)
(3.67056e-05 -7.5217e-05 0.00755411)
(4.04405e-05 -8.16696e-05 0.00749781)
(8.82819e-06 -7.18947e-05 0.00746916)
(-1.69317e-05 -1.48885e-05 0.00761531)
(2.06726e-05 -2.84047e-05 0.00759742)
(3.14763e-05 -3.83146e-05 0.00756409)
(1.44061e-05 -4.61609e-05 0.00753274)
(1.74682e-05 -4.42087e-05 0.00746412)
(1.50046e-05 -2.72528e-05 0.00746295)
(1.20259e-05 -3.71437e-05 0.00743531)
(-5.29997e-06 -2.53011e-05 0.00741823)
(1.30832e-05 -3.86211e-05 0.00748021)
(1.56392e-05 -3.5214e-05 0.00747392)
(1.13798e-05 -3.84058e-05 0.00745439)
(-5.17976e-06 -2.98794e-05 0.007442)
(7.58147e-06 -3.08802e-05 0.00750709)
(1.53878e-05 -3.48814e-05 0.00750182)
(1.5491e-05 -3.74797e-05 0.00748169)
(3.59896e-06 -3.2558e-05 0.00746796)
(-3.11666e-06 -1.06524e-05 0.00752002)
(9.01306e-06 -1.62236e-05 0.00751915)
(1.32834e-05 -1.93404e-05 0.00750594)
(5.87027e-06 -1.91112e-05 0.00749388)
(1.16837e-05 -2.62942e-05 0.00746276)
(8.74441e-06 -1.9024e-05 0.00746108)
(5.82258e-06 -2.35719e-05 0.00744545)
(-1.7295e-06 -1.81597e-05 0.00742963)
(9.29976e-06 -2.1949e-05 0.00747555)
(8.61104e-06 -2.0789e-05 0.00747278)
(5.51417e-06 -2.2572e-05 0.00746314)
(-1.33292e-06 -1.84614e-05 0.00745358)
(6.39281e-06 -1.65598e-05 0.0074877)
(8.2271e-06 -1.82202e-05 0.00748571)
(7.38234e-06 -1.91517e-05 0.00747773)
(2.7653e-06 -1.64049e-05 0.00746956)
(2.30453e-06 -7.92886e-06 0.00749281)
(6.05632e-06 -9.83028e-06 0.00749332)
(7.20252e-06 -1.03183e-05 0.00748795)
(4.01212e-06 -8.64763e-06 0.00748129)
(8.06119e-06 -1.55137e-05 0.00746425)
(5.69476e-06 -1.24523e-05 0.00746168)
(3.32171e-06 -1.40912e-05 0.00745063)
(-1.52233e-07 -1.16548e-05 0.00743392)
(6.86533e-06 -1.30119e-05 0.0074741)
(5.61565e-06 -1.26372e-05 0.007472)
(3.41885e-06 -1.32614e-05 0.0074659)
(4.3561e-07 -1.11631e-05 0.00745656)
(5.49817e-06 -9.84351e-06 0.00748064)
(5.48613e-06 -1.04646e-05 0.00747929)
(4.49976e-06 -1.05724e-05 0.00747507)
(2.4719e-06 -8.89591e-06 0.00746835)
(3.96884e-06 -5.88322e-06 0.00748349)
(4.90793e-06 -6.3652e-06 0.00748329)
(4.92316e-06 -6.04053e-06 0.00748032)
(3.33505e-06 -4.58397e-06 0.00747492)
(5.68301e-06 -9.20396e-06 0.00746598)
(4.04182e-06 -7.92495e-06 0.00746296)
(2.31358e-06 -8.31842e-06 0.00745394)
(6.27449e-07 -7.26236e-06 0.00743652)
(5.12339e-06 -7.95466e-06 0.00747379)
(4.05353e-06 -7.83277e-06 0.00747187)
(2.58058e-06 -7.91602e-06 0.0074671)
(1.13522e-06 -6.78856e-06 0.00745757)
(4.53137e-06 -6.23554e-06 0.0074779)
(4.09171e-06 -6.42233e-06 0.00747668)
(3.26248e-06 -6.24604e-06 0.00747368)
(2.2087e-06 -5.21497e-06 0.00746733)
(4.02045e-06 -4.34486e-06 0.00747976)
(4.05312e-06 -4.35234e-06 0.0074791)
(3.74781e-06 -3.89414e-06 0.00747687)
(2.83467e-06 -2.87051e-06 0.00747177)
(4.05337e-06 -5.53607e-06 0.00746728)
(2.98968e-06 -4.98789e-06 0.00746415)
(1.79338e-06 -4.9375e-06 0.00745594)
(8.93532e-07 -4.42646e-06 0.00743811)
(3.82601e-06 -4.9935e-06 0.00747381)
(3.05212e-06 -4.92576e-06 0.00747201)
(2.07672e-06 -4.829e-06 0.00746774)
(1.35136e-06 -4.17451e-06 0.00745801)
(3.59899e-06 -4.11032e-06 0.00747675)
(3.15573e-06 -4.12608e-06 0.0074756)
(2.52601e-06 -3.9019e-06 0.00747302)
(1.89683e-06 -3.25939e-06 0.00746675)
(3.44596e-06 -3.16964e-06 0.00747808)
(3.2654e-06 -3.064e-06 0.00747726)
(2.9158e-06 -2.68671e-06 0.00747529)
(2.32755e-06 -2.02325e-06 0.00747029)
(2.90403e-06 -3.39955e-06 0.00746823)
(2.2295e-06 -3.12989e-06 0.00746513)
(1.43003e-06 -2.97244e-06 0.00745726)
(9.33649e-07 -2.68858e-06 0.00743922)
(2.83491e-06 -3.20336e-06 0.00747398)
(2.31461e-06 -3.13759e-06 0.0074723)
(1.67068e-06 -3.00682e-06 0.00746823)
(1.26277e-06 -2.60363e-06 0.00745839)
(2.76678e-06 -2.77418e-06 0.00747631)
(2.42528e-06 -2.7303e-06 0.00747525)
(1.96756e-06 -2.54076e-06 0.00747284)
(1.56286e-06 -2.13751e-06 0.00746659)
(2.73423e-06 -2.28256e-06 0.00747732)
(2.55084e-06 -2.18568e-06 0.0074765)
(2.24402e-06 -1.92354e-06 0.00747465)
(1.83574e-06 -1.51028e-06 0.00746972)
(2.07565e-06 -2.12452e-06 0.00746889)
(1.64974e-06 -1.96529e-06 0.00746588)
(1.1316e-06 -1.81688e-06 0.00745815)
(8.42369e-07 -1.64075e-06 0.00744003)
(2.0752e-06 -2.08217e-06 0.00747418)
(1.73354e-06 -2.01777e-06 0.0074726)
(1.31108e-06 -1.90351e-06 0.00746864)
(1.05983e-06 -1.65371e-06 0.00745875)
(2.06913e-06 -1.89305e-06 0.00747616)
(1.82771e-06 -1.83534e-06 0.00747519)
(1.50442e-06 -1.6951e-06 0.00747287)
(1.23311e-06 -1.44424e-06 0.00746665)
(2.06692e-06 -1.62274e-06 0.00747698)
(1.93327e-06 -1.56039e-06 0.00747621)
(1.68849e-06 -1.39323e-06 0.00747445)
(1.39879e-06 -1.14204e-06 0.00746958)
(1.47043e-06 -1.33835e-06 0.00746933)
(1.20097e-06 -1.23192e-06 0.00746642)
(8.67235e-07 -1.11953e-06 0.00745877)
(6.92623e-07 -1.00398e-06 0.0074406)
(1.49226e-06 -1.35482e-06 0.00747436)
(1.26914e-06 -1.30161e-06 0.00747287)
(9.93238e-07 -1.21674e-06 0.00746897)
(8.3011e-07 -1.06211e-06 0.00745907)
(1.50481e-06 -1.28525e-06 0.00747613)
(1.33867e-06 -1.23549e-06 0.00747523)
(1.11484e-06 -1.14058e-06 0.00747299)
(9.31059e-07 -9.87418e-07 0.00746679)
(1.50198e-06 -1.13472e-06 0.00747682)
(1.41497e-06 -1.10213e-06 0.00747611)
(1.23161e-06 -1.00186e-06 0.00747444)
(1.02868e-06 -8.52029e-07 0.00746962)
(1.01787e-06 -8.35363e-07 0.00746964)
(8.50176e-07 -7.63637e-07 0.00746679)
(6.36651e-07 -6.84716e-07 0.00745919)
(5.29036e-07 -6.10032e-07 0.00744102)
(1.04243e-06 -8.65097e-07 0.0074745)
(8.98103e-07 -8.27808e-07 0.00747308)
(7.19573e-07 -7.72345e-07 0.00746923)
(6.1217e-07 -6.77724e-07 0.00745934)
(1.05701e-06 -8.51568e-07 0.00747614)
(9.42751e-07 -8.16597e-07 0.00747531)
(7.92911e-07 -7.57072e-07 0.00747312)
(6.70164e-07 -6.65659e-07 0.00746696)
(1.04905e-06 -7.71069e-07 0.00747674)
(9.93347e-07 -7.56172e-07 0.0074761)
(8.63764e-07 -6.9912e-07 0.00747448)
(7.25946e-07 -6.12363e-07 0.00746972)
(6.76074e-07 -4.93124e-07 0.00746984)
(5.75627e-07 -4.47113e-07 0.00746704)
(4.44723e-07 -3.95892e-07 0.00745948)
(3.79599e-07 -3.48766e-07 0.00744132)
(6.96076e-07 -5.18391e-07 0.0074746)
(6.07002e-07 -4.94858e-07 0.00747323)
(4.96056e-07 -4.61108e-07 0.00746942)
(4.26741e-07 -4.06389e-07 0.00745955)
(7.08083e-07 -5.23514e-07 0.00747616)
(6.32904e-07 -5.03162e-07 0.00747538)
(5.37626e-07 -4.68859e-07 0.00747323)
(4.58345e-07 -4.16853e-07 0.0074671)
(7.01196e-07 -4.8719e-07 0.0074767)
(6.6213e-07 -4.79411e-07 0.00747611)
(5.77954e-07 -4.48623e-07 0.00747455)
(4.88365e-07 -4.0064e-07 0.00746983)
(4.4176e-07 -2.22249e-07 0.00746997)
(3.89044e-07 -1.94591e-07 0.0074672)
(3.18187e-07 -1.65133e-07 0.00745966)
(2.77694e-07 -1.39648e-07 0.0074415)
(4.55568e-07 -2.34082e-07 0.00747468)
(4.07954e-07 -2.2046e-07 0.00747334)
(3.45885e-07 -2.01899e-07 0.00746955)
(3.01966e-07 -1.75634e-07 0.00745969)
(4.64018e-07 -2.38643e-07 0.00747618)
(4.21465e-07 -2.28762e-07 0.00747544)
(3.66282e-07 -2.11719e-07 0.00747332)
(3.16333e-07 -1.87038e-07 0.00746721)
(4.6211e-07 -2.26939e-07 0.00747669)
(4.35239e-07 -2.22708e-07 0.00747614)
(3.85171e-07 -2.08196e-07 0.00747461)
(3.28734e-07 -1.86141e-07 0.00746991)
(3.64631e-07 2.89397e-08 0.00747001)
(3.47177e-07 4.54443e-08 0.00746727)
(3.14121e-07 6.07804e-08 0.00745976)
(2.76148e-07 7.2856e-08 0.00744161)
(3.75438e-07 3.51367e-08 0.0074747)
(3.58351e-07 4.36242e-08 0.00747339)
(3.26702e-07 5.24958e-08 0.00746963)
(2.90955e-07 6.1273e-08 0.00745979)
(3.81976e-07 3.88659e-08 0.00747619)
(3.65223e-07 4.28736e-08 0.00747548)
(3.34527e-07 4.85693e-08 0.00747339)
(2.95902e-07 5.55689e-08 0.0074673)
(3.82207e-07 4.06433e-08 0.00747669)
(3.68478e-07 4.05788e-08 0.00747618)
(3.38498e-07 4.27206e-08 0.00747468)
(2.96668e-07 4.64945e-08 0.00747001)
(0.000916134 -0.000811239 0.0150124)
(-6.38182e-05 0.000646942 0.00736276)
(0.000597512 0.00093683 0.00690544)
(0.00148941 0.00018175 0.0105882)
(0.000189493 0.000192688 0.00859899)
(0.00130948 -2.40558e-05 0.0146111)
(0.00056739 0.00157313 0.018954)
(0.000849608 -0.000532992 0.0110952)
(-0.00095522 0.000829731 0.0121191)
(-1.8036e-05 -0.000151299 0.00500899)
(0.00225959 -0.000929031 0.0138633)
(0.00117316 -0.00212738 0.015438)
(0.000233483 0.000118771 0.0137313)
(-0.00068082 0.000732055 0.0133365)
(0.000340735 -0.00118928 0.0111598)
(0.000179155 -0.000430976 0.00344226)
(-0.00083556 0.00138818 0.0120555)
(0.00169402 -0.000347852 0.0161355)
(0.000768474 -0.000929242 0.013852)
(0.000389272 -0.000853668 0.0220797)
(-0.000879114 0.00136286 0.0104992)
(-0.000245534 2.12018e-05 0.0162992)
(0.000622963 -0.000384065 0.0109656)
(0.00105611 -0.000629731 0.0110306)
(0.000295604 0.000874934 0.0173036)
(-0.000369939 0.000398309 0.0124482)
(-0.000631958 0.000268285 0.0150252)
(0.000786846 0.00113789 0.012851)
(-0.00181976 0.000119163 0.0177768)
(-0.000373937 -0.000265803 0.00583236)
(0.000442268 0.000885873 0.0134279)
(0.00113927 0.00143007 0.0148337)
(-0.000514288 0.00056987 0.0109702)
(0.00127331 -1.82782e-05 0.0174625)
(0.00021919 0.000203543 0.0143142)
(0.000533041 -0.000203549 0.0193355)
(-0.000242816 0.0017609 0.014644)
(0.000699898 0.000395362 0.0172145)
(0.000345753 0.000494109 0.0233045)
(0.000372915 -0.000305307 0.0208606)
(-0.000158467 0.000890796 0.016886)
(-0.000173007 0.000938944 0.0144689)
(-0.000203209 0.00132404 0.0191009)
(-0.000160375 0.000345203 0.0074468)
(-0.000110448 2.46398e-05 0.000630218)
(0.00131748 0.00196121 0.026459)
(-4.78087e-05 0.00026325 0.00424019)
(-0.00137681 0.00112709 0.0309205)
(-0.000111323 0.000378939 0.00588667)
(0.00132909 -1.93298e-05 0.0214756)
(0.000360546 -0.000533595 0.0140825)
(-0.000123869 -0.000885398 0.0292762)
(-1.92414e-05 0.00041016 0.00731422)
(-0.000224223 -0.00012211 0.0174487)
(6.27905e-05 -0.000109685 0.0169847)
(-0.000176133 0.000454141 0.00933037)
(0.000206399 -0.00101061 0.0254633)
(-2.22137e-05 0.000642027 0.0125931)
(0.000201059 0.00107567 0.01821)
(-0.000465509 0.000621629 0.0120407)
(0.000949964 -0.000704657 0.0124345)
(0.000158823 0.00020074 0.00436612)
(0.000143868 0.00061156 0.0258547)
(-0.000568478 -0.000256206 0.0131677)
(-3.28613e-05 0.000202763 0.00144744)
(-0.000960436 0.00048419 0.0183698)
(-0.000152778 0.000589456 0.0208925)
(0.000641591 0.00260655 0.0237332)
(0.000322394 -0.00026941 0.0143426)
(-0.0015469 0.000873334 0.0145663)
(-1.40463e-05 0.000819159 0.0142116)
(-0.000365433 0.00109678 0.0119944)
(0.000287282 -0.0013456 0.0213831)
(-0.000169298 0.00044232 0.0116258)
(-0.000445922 0.000232786 0.0223203)
(-1.20811e-05 0.000184454 0.0150539)
(-0.000220149 0.000399821 0.0115191)
(-0.00103741 -0.000472908 0.0273985)
(-5.95051e-05 0.00025871 0.00485844)
(0.000902656 0.00171311 0.0334987)
(-2.75451e-06 0.000134285 0.000630725)
(0.00958716 0.00609531 0.0171081)
(0.000991219 0.000929753 0.00724778)
(0.00140674 0.000685217 0.0118163)
(-0.00107525 0.0368783 0.0269127)
(-0.000147669 0.00375653 0.0093473)
(-0.000762819 0.00237944 0.0119293)
(0.00083789 0.00257493 0.0137163)
(-0.000196233 0.00249418 0.00736339)
(-0.000476284 0.0017323 0.0116628)
(-0.00085171 0.00219187 0.0105956)
(-0.000153902 0.000680448 0.00825327)
(0.000578443 0.000637282 0.00812777)
(-0.000255934 9.07004e-05 0.00502214)
(-0.000823369 -0.000205417 0.00962487)
(5.31701e-05 0.000107597 0.00909777)
(0.00558394 -0.0127168 0.143476)
(-0.00228578 -0.000773438 0.010207)
(-0.000692604 -0.000147546 0.0101082)
(-0.000293298 0.000337785 0.0147934)
(0.00190605 -0.0116301 0.0449779)
(-0.00020735 0.000856461 0.0164536)
(7.54539e-05 2.42754e-05 0.00657904)
(2.68067e-05 -7.80348e-05 0.00495781)
(0.000318813 0.000144958 0.0182201)
(-0.000171025 0.000951281 0.0131459)
(7.49522e-05 0.000100071 0.0130402)
(0.000359228 -0.000129212 0.0154994)
(0.000400592 0.000136921 0.0114193)
(-0.000249825 0.000284356 0.0110466)
(-0.000452958 0.000454979 0.00996184)
(-5.25785e-05 0.000155437 0.0104431)
(0.000666282 -0.000460514 -0.0499716)
(0.000703111 -1.13023e-05 0.0157765)
(-1.1651e-05 -0.000165697 0.0139694)
(-0.000426586 -9.60349e-05 0.0173416)
(-0.00022471 0.00043936 0.0146893)
(0.00113749 0.000254573 0.0202466)
(0.000374829 -0.000230049 0.0126119)
(-0.000238003 -0.000296779 0.0128031)
(-0.000262722 0.00124162 0.0169538)
(0.000179656 0.000517146 0.018382)
(9.26411e-05 -0.000185128 0.0161082)
(-9.8111e-05 -0.000263027 0.0158108)
(-0.000422007 0.000433734 0.0153183)
(-1.30413e-05 0.000265303 0.0155003)
(-8.97375e-05 7.93553e-05 0.0144137)
(-0.000213941 -0.000108953 0.0155607)
(0.000532147 -0.00375198 0.00224179)
(-0.003195 -0.000974363 0.00448707)
(-0.000290669 -0.000222204 0.00330464)
(-0.000714767 -0.000114882 0.00402611)
(1.13297e-05 -0.00498043 0.00539777)
(-0.000873513 -0.000627463 0.00502386)
(0.000241428 -0.000393017 0.0034026)
(-0.000605104 -5.54823e-05 0.00359645)
(-8.44e-05 -0.00160264 0.00503835)
(-0.000409669 8.14882e-05 0.00497701)
(0.000171075 -0.000332039 0.00410894)
(-0.000263256 -8.34909e-05 0.00404384)
(-7.55522e-05 -0.000612768 0.00462679)
(-0.000120736 0.000184486 0.0044254)
(-8.99479e-06 1.63751e-05 0.00397954)
(-0.000249527 0.000119302 0.00404046)
(0.000152055 -0.000992608 0.00449106)
(-0.000803957 -0.000333708 0.00845044)
(3.46994e-05 -0.000122563 0.0078846)
(-0.000245002 -0.000157889 0.00856484)
(1.93896e-05 -0.0015458 0.00753149)
(-0.000242403 -0.000343046 0.0088736)
(0.000220494 -0.000272752 0.00808421)
(-0.000184523 -0.000142982 0.00846418)
(1.58272e-05 -0.000746686 0.008463)
(-5.13088e-05 -6.48289e-05 0.00896119)
(0.000227755 -0.000200966 0.00844034)
(-7.83907e-05 -7.81735e-05 0.00857551)
(1.82847e-05 -0.000315792 0.00865906)
(5.89018e-05 4.61251e-05 0.00876797)
(0.000176674 -7.46701e-05 0.0084594)
(-1.42541e-05 -4.83637e-05 0.00855108)
(5.07303e-05 -0.000299769 0.00583202)
(-0.00031534 -0.000100112 0.00693954)
(-4.47409e-05 -6.47595e-05 0.00662762)
(-0.000179955 -8.70175e-05 0.00687715)
(2.23423e-05 -0.000544253 0.00668755)
(-0.000158781 -0.000127206 0.00718039)
(7.78928e-06 -0.000136166 0.00683238)
(-0.000175007 -5.87144e-05 0.00696235)
(2.7082e-05 -0.000387491 0.0071011)
(-5.95187e-05 -8.1037e-05 0.00729367)
(3.30983e-05 -0.000143257 0.00702659)
(-0.000122472 -4.5704e-05 0.00704328)
(3.00185e-05 -0.000222017 0.00723593)
(3.51862e-06 -3.54624e-05 0.0072763)
(3.22653e-05 -9.5046e-05 0.00710369)
(-8.0737e-05 -2.59482e-05 0.00707745)
(2.71681e-05 -0.000108094 0.00678735)
(-9.46304e-05 -3.88653e-05 0.00721977)
(7.00899e-06 -3.23769e-05 0.00707657)
(-7.10438e-05 -5.29905e-05 0.0072346)
(2.22087e-05 -0.000216135 0.00711139)
(-4.96686e-05 -6.09393e-05 0.00735473)
(2.66908e-05 -7.90545e-05 0.00721742)
(-6.68042e-05 -5.03614e-05 0.00731905)
(2.53071e-05 -0.000180702 0.00733229)
(-1.16503e-05 -4.68001e-05 0.00744738)
(3.52027e-05 -8.3403e-05 0.00733956)
(-4.89629e-05 -4.01639e-05 0.00738379)
(2.69019e-05 -0.000120905 0.00744296)
(1.47763e-05 -3.67555e-05 0.00747998)
(3.58577e-05 -7.25773e-05 0.00740964)
(-2.47233e-05 -4.447e-05 0.00741816)
(1.52822e-05 -4.00291e-05 0.00702819)
(-3.38807e-05 -1.32478e-05 0.00719037)
(-1.22892e-06 -1.68385e-05 0.00709759)
(-3.96313e-05 -2.63125e-05 0.00714906)
(1.5019e-05 -8.70692e-05 0.00721953)
(-1.9924e-05 -2.57399e-05 0.00731963)
(6.14918e-06 -4.0779e-05 0.00723336)
(-3.95511e-05 -2.60094e-05 0.00725636)
(1.68179e-05 -8.44375e-05 0.00735345)
(-4.31826e-06 -2.73681e-05 0.00740168)
(1.04717e-05 -4.82124e-05 0.00733404)
(-3.03536e-05 -2.51551e-05 0.00733167)
(1.7991e-05 -6.51845e-05 0.00742755)
(7.65372e-06 -2.80574e-05 0.00744224)
(1.24269e-05 -4.67457e-05 0.00739764)
(-1.8077e-05 -2.97275e-05 0.00737971)
(1.0144e-05 -1.62871e-05 0.00713934)
(-1.03638e-05 -4.80859e-06 0.00720016)
(4.98632e-07 -8.48969e-06 0.00714587)
(-1.82167e-05 -1.35153e-05 0.0071608)
(1.03024e-05 -3.79682e-05 0.00728435)
(-6.06602e-06 -1.25738e-05 0.00732179)
(3.07092e-06 -2.21129e-05 0.00727009)
(-1.84977e-05 -1.54818e-05 0.00726721)
(1.12417e-05 -4.07754e-05 0.00738129)
(1.24192e-07 -1.64058e-05 0.00739859)
(4.81076e-06 -2.72688e-05 0.00735805)
(-1.45219e-05 -1.61394e-05 0.00734365)
(1.19596e-05 -3.50578e-05 0.00743538)
(5.47897e-06 -1.90843e-05 0.00743964)
(5.99299e-06 -2.80945e-05 0.00741295)
(-8.64128e-06 -2.02596e-05 0.00739281)
(7.04683e-06 -7.00092e-06 0.00718752)
(-2.38683e-06 -1.80769e-06 0.00720609)
(5.82222e-07 -4.23012e-06 0.0071689)
(-8.24647e-06 -6.43733e-06 0.00716137)
(7.1318e-06 -1.74701e-05 0.00731733)
(-1.05106e-06 -6.66421e-06 0.00732627)
(1.54823e-06 -1.17958e-05 0.0072892)
(-8.50512e-06 -8.44818e-06 0.00726946)
(7.64033e-06 -2.02824e-05 0.00739897)
(1.5339e-06 -9.90403e-06 0.00740114)
(2.37304e-06 -1.50534e-05 0.0073717)
(-6.55512e-06 -9.66647e-06 0.0073472)
(8.15849e-06 -1.90168e-05 0.00744281)
(4.08528e-06 -1.23271e-05 0.00744132)
(3.16802e-06 -1.62573e-05 0.00742177)
(-3.7758e-06 -1.27675e-05 0.00739746)
(5.07093e-06 -3.06958e-06 0.00721009)
(3.90426e-07 -7.1513e-07 0.00721099)
(7.37569e-07 -1.94871e-06 0.00718241)
(-3.39888e-06 -2.95904e-06 0.00716399)
(5.02667e-06 -8.35869e-06 0.00733431)
(7.46068e-07 -3.82764e-06 0.00733075)
(1.0903e-06 -6.177e-06 0.00730072)
(-3.52228e-06 -4.70681e-06 0.00727237)
(5.32493e-06 -1.03893e-05 0.00740938)
(1.9013e-06 -6.07949e-06 0.00740463)
(1.50299e-06 -8.18659e-06 0.00738036)
(-2.56397e-06 -5.87852e-06 0.00735046)
(5.68049e-06 -1.04894e-05 0.00744802)
(3.19017e-06 -7.82359e-06 0.00744382)
(2.06949e-06 -9.31584e-06 0.00742759)
(-1.29775e-06 -7.98953e-06 0.00740091)
(3.67899e-06 -1.36988e-06 0.00722105)
(1.20033e-06 -2.65494e-07 0.00721447)
(7.48377e-07 -8.11579e-07 0.00718984)
(-1.19932e-06 -1.26914e-06 0.00716595)
(3.58442e-06 -4.15286e-06 0.00734307)
(1.25597e-06 -2.28787e-06 0.00733414)
(8.6156e-07 -3.23338e-06 0.00730722)
(-1.27251e-06 -2.60262e-06 0.00727444)
(3.75965e-06 -5.51428e-06 0.00741523)
(1.79852e-06 -3.75359e-06 0.00740747)
(1.11576e-06 -4.47995e-06 0.00738539)
(-7.87857e-07 -3.52335e-06 0.00735267)
(4.012e-06 -5.94366e-06 0.00745127)
(2.51175e-06 -4.91503e-06 0.00744593)
(1.52711e-06 -5.3938e-06 0.00743106)
(-1.96348e-07 -4.93128e-06 0.00740313)
(2.66951e-06 -6.09957e-07 0.00722659)
(1.2973e-06 -7.50191e-08 0.00721696)
(7.00478e-07 -2.6751e-07 0.00719397)
(-2.44955e-07 -4.67138e-07 0.00716762)
(2.5666e-06 -2.14876e-06 0.00734772)
(1.26352e-06 -1.39286e-06 0.0073366)
(7.28451e-07 -1.70608e-06 0.00731091)
(-2.94211e-07 -1.42266e-06 0.00727613)
(2.67155e-06 -3.03233e-06 0.00741854)
(1.53776e-06 -2.31679e-06 0.00740959)
(9.02329e-07 -2.50108e-06 0.00738834)
(-3.71515e-08 -2.08203e-06 0.00735435)
(2.8468e-06 -3.45859e-06 0.00745329)
(1.94389e-06 -3.07832e-06 0.00744755)
(1.20357e-06 -3.18997e-06 0.0074332)
(2.60429e-07 -3.02529e-06 0.00740472)
(1.91393e-06 -2.83378e-07 0.00722948)
(1.1229e-06 1.92424e-08 0.00721868)
(6.2434e-07 -1.94612e-08 0.0071963)
(1.27803e-07 -1.03483e-07 0.00716887)
(1.82946e-06 -1.16501e-06 0.00735025)
(1.08e-06 -8.35447e-07 0.0073383)
(6.17778e-07 -9.03633e-07 0.00731303)
(9.15208e-08 -7.65506e-07 0.00727738)
(1.89389e-06 -1.72617e-06 0.00742045)
(1.228e-06 -1.4257e-06 0.00741108)
(7.41787e-07 -1.42595e-06 0.00739009)
(2.35791e-07 -1.22236e-06 0.00735555)
(2.01771e-06 -2.07188e-06 0.00745453)
(1.47025e-06 -1.92615e-06 0.00744871)
(9.57811e-07 -1.92831e-06 0.00743455)
(4.03294e-07 -1.85512e-06 0.00740582)
(1.34762e-06 -1.33926e-07 0.00723104)
(8.83191e-07 5.77049e-08 0.00721985)
(5.26067e-07 7.74157e-08 0.00719766)
(2.37803e-07 4.55921e-08 0.00716977)
(1.28475e-06 -6.57666e-07 0.00735168)
(8.44999e-07 -4.90484e-07 0.00733944)
(5.1006e-07 -4.79326e-07 0.0073143)
(2.10342e-07 -4.03658e-07 0.00727827)
(1.32977e-06 -1.01573e-06 0.00742157)
(9.32097e-07 -8.68563e-07 0.00741209)
(5.95655e-07 -8.2749e-07 0.00739118)
(2.97971e-07 -7.17068e-07 0.0073564)
(1.41798e-06 -1.26674e-06 0.0074553)
(1.08268e-06 -1.1999e-06 0.00744951)
(7.43245e-07 -1.18174e-06 0.00743542)
(4.019e-07 -1.13987e-06 0.00740658)
(9.24845e-07 -6.32016e-08 0.00723192)
(6.50834e-07 6.54483e-08 0.00722063)
(4.13662e-07 9.93e-08 0.00719848)
(2.35158e-07 9.17665e-08 0.0071704)
(8.82255e-07 -3.79093e-07 0.0073525)
(6.2085e-07 -2.8094e-07 0.0073402)
(3.9763e-07 -2.51862e-07 0.00731508)
(2.16481e-07 -2.06438e-07 0.00727889)
(9.14751e-07 -6.05567e-07 0.00742224)
(6.75603e-07 -5.21769e-07 0.00741276)
(4.53851e-07 -4.81648e-07 0.00739187)
(2.71872e-07 -4.1774e-07 0.00735698)
(9.76621e-07 -7.75736e-07 0.00745579)
(7.7028e-07 -7.39819e-07 0.00745005)
(5.51069e-07 -7.21824e-07 0.00743599)
(3.39224e-07 -6.9404e-07 0.00740712)
(6.08484e-07 -2.74624e-08 0.00723242)
(4.51226e-07 5.88716e-08 0.00722112)
(3.03795e-07 9.06902e-08 0.00719898)
(1.92359e-07 9.51067e-08 0.00717081)
(5.82224e-07 -2.11864e-07 0.00735299)
(4.30632e-07 -1.49586e-07 0.00734069)
(2.92101e-07 -1.21842e-07 0.00731557)
(1.81095e-07 -9.22731e-08 0.0072793)
(6.05561e-07 -3.47884e-07 0.00742265)
(4.6564e-07 -2.9624e-07 0.00741319)
(3.27386e-07 -2.65085e-07 0.0073923)
(2.16646e-07 -2.29428e-07 0.00735737)
(6.46997e-07 -4.53434e-07 0.0074561)
(5.24684e-07 -4.32532e-07 0.0074504)
(3.8806e-07 -4.19136e-07 0.00743637)
(2.60173e-07 -4.00336e-07 0.00740748)
(3.9079e-07 -2.2782e-09 0.0072327)
(3.12585e-07 5.69079e-08 0.00722141)
(2.31955e-07 8.82999e-08 0.00719927)
(1.6501e-07 1.00363e-07 0.00717107)
(3.78492e-07 -9.00866e-08 0.00735326)
(3.02605e-07 -4.80026e-08 0.00734097)
(2.26319e-07 -2.26315e-08 0.00731585)
(1.60197e-07 -1.69589e-09 0.00727955)
(3.95353e-07 -1.54701e-07 0.00742288)
(3.2419e-07 -1.2134e-07 0.00741345)
(2.48642e-07 -9.80158e-08 0.00739256)
(1.82024e-07 -7.7281e-08 0.00735761)
(4.22258e-07 -2.05528e-07 0.00745628)
(3.58992e-07 -1.91094e-07 0.00745061)
(2.8389e-07 -1.80961e-07 0.0074366)
(2.10256e-07 -1.67485e-07 0.0074077)
(3.10917e-07 2.60243e-08 0.00723278)
(2.9023e-07 8.01255e-08 0.00722152)
(2.51821e-07 1.23408e-07 0.00719941)
(2.05299e-07 1.53123e-07 0.00717121)
(3.13314e-07 1.73219e-08 0.00735334)
(2.91111e-07 5.73139e-08 0.00734108)
(2.54111e-07 9.01453e-08 0.00731598)
(2.09998e-07 1.15293e-07 0.00727968)
(3.29454e-07 1.79163e-08 0.00742296)
(3.07157e-07 4.67378e-08 0.00741355)
(2.70002e-07 7.03482e-08 0.00739268)
(2.26344e-07 9.0131e-08 0.00735774)
(3.4909e-07 1.91776e-08 0.00745634)
(3.2874e-07 3.43397e-08 0.0074507)
(2.92773e-07 4.70909e-08 0.0074367)
(2.46306e-07 6.20487e-08 0.00740782)
(0.00315046 -0.000306883 0.0177152)
(0.00123363 -0.000956055 0.0105952)
(0.00169957 -0.000743882 0.0102226)
(0.0025083 0.000539984 0.0170623)
(0.000399202 -2.76085e-05 0.0115944)
(0.00101566 0.000339011 0.00914004)
(0.000549929 -9.73751e-06 0.00225062)
(0.00166864 -0.000628297 0.00872136)
(0.00109549 -0.000182862 0.00900366)
(0.00276799 0.000356986 0.0111552)
(0.00154367 0.000727822 0.01583)
(-5.26877e-05 -0.000282849 0.011377)
(0.000127465 0.000148168 0.00512776)