/*--------------------------------*- C++ -*----------------------------------*\
| =========                 |                                                 |
| \\      /  F ield         | OpenFOAM: The Open Source CFD Toolbox           |
|  \\    /   O peration     | Version:  2506                                  |
|   \\  /    A nd           | Website:  www.openfoam.com                      |
|    \\/     M anipulation  |                                                 |
\*---------------------------------------------------------------------------*/
FoamFile
{
    version     2.0;
    format      ascii;
    arch        "LSB;label=32;scalar=64";
    class       volVectorField;
    location    "0.03";
    object      Us;
}
// * * * * * * * * * * * * * * * * * * * * * * * * * * * * * * * * * * * * * //

dimensions      [0 1 -1 0 0 0 0];

internalField   nonuniform List<vector> 
1152
(
(6.54102e-05 -3.62881e-05 -9.09612e-07)
(-3.7046e-05 0.000151456 9.31018e-05)
(-7.64494e-05 0.000159917 9.26947e-05)
(6.61918e-06 0.000153651 0.000101571)
(5.32634e-05 0.000253336 0.000140376)
(1.7941e-05 0.000173263 8.29726e-05)
(-0.000112039 0.000145002 2.2871e-05)
(5.62759e-08 0.000128624 5.21396e-05)
(0.000169904 0.00018147 0.000197736)
(-6.49224e-05 0.000283063 -8.6676e-06)
(-0.0001887 0.000338454 0.000122957)
(-0.000243785 -4.10134e-05 0.000131065)
(0.000585245 0.000677778 -0.00054523)
(-5.33101e-06 0.000103884 7.28236e-05)
(2.80365e-05 0.000116213 6.05148e-05)
(-2.599e-05 -0.000153204 0.000117387)
(-1.11643e-05 0.000273357 0.000378535)
(-5.9487e-05 0.000371659 0.000266011)
(-8.37032e-06 0.000287887 0.000340618)
(-6.18611e-05 0.000239009 0.000251704)
(7.74173e-05 0.00030943 0.000408914)
(0.000136848 0.000138179 0.000404566)
(-7.75451e-05 0.000227516 0.000315024)
(-0.000165248 0.000231569 0.0001505)
(4.06325e-05 0.000162742 0.000582199)
(5.62156e-05 0.000240728 0.00053407)
(-8.16361e-05 7.17561e-05 0.000388667)
(-7.67078e-05 0.000268898 0.000470178)
(9.97815e-05 -1.83009e-05 0.000692756)
(-0.000100365 0.000132712 0.000534164)
(-6.54547e-05 6.55096e-05 0.000493125)
(-0.000121331 0.00017121 0.00046419)
(-4.82151e-05 0.00024037 0.000615402)
(-0.000111112 0.000306118 0.000530683)
(-5.38617e-05 0.000288855 0.000555347)
(3.99481e-05 0.000202967 0.000548963)
(-8.49938e-05 0.00030604 0.000722404)
(-0.000187889 0.000214511 0.000651726)
(-0.000172942 0.000232915 0.000539478)
(-9.44184e-05 0.000227537 0.000493334)
(-0.000157554 0.0002607 0.000883658)
(-0.000231539 0.000227782 0.000827391)
(-0.000253408 0.000170911 0.00067184)
(-0.000141804 0.000194171 0.000512237)
(-0.000213418 5.91706e-06 0.000527854)
(-0.000140127 7.67915e-05 0.000872147)
(-0.000236091 8.63761e-05 0.000562948)
(-0.000233055 0.000126922 0.000594864)
(-4.59522e-05 0.000310332 0.00072109)
(-6.56487e-05 0.000336725 0.000675908)
(-6.69142e-05 0.000277526 0.000569934)
(-4.60738e-05 0.000212989 0.000582554)
(-4.86201e-05 0.000469363 0.000770989)
(-0.000159028 0.000402295 0.000650179)
(-0.000140164 0.000294544 0.000572373)
(-8.44585e-05 0.000242272 0.000524323)
(-5.86449e-05 0.000344183 0.000831457)
(-0.000280676 0.000264383 0.000766614)
(-0.000224486 0.000168948 0.000630703)
(-0.000137333 0.000164314 0.000566339)
(-7.66842e-05 0.000110356 0.000730367)
(-0.000466006 0.00013382 0.0008681)
(-0.00029548 0.000124295 0.000699547)
(-0.000336509 5.87776e-05 0.000643995)
(-1.87055e-05 0.000436804 0.000637581)
(-8.78124e-05 0.000384613 0.00071379)
(-0.000148888 0.000249008 0.000714876)
(-0.000122082 0.000201388 0.000632983)
(-3.25245e-05 0.000522897 0.000623456)
(-0.000174163 0.000406257 0.000682447)
(-0.000228519 0.00026738 0.000726241)
(-7.97838e-05 0.000177165 0.000631402)
(-1.21133e-05 0.000400411 0.000537237)
(-0.00030922 0.000333359 0.000576633)
(-0.000324248 0.000187534 0.00064513)
(-0.000173201 0.000143842 0.000656913)
(-6.72656e-05 9.86958e-05 0.000440672)
(-0.000518765 7.16331e-05 0.000576523)
(-0.000490478 2.23149e-05 0.000553798)
(-0.000231384 0.000111353 0.000724583)
(6.73778e-06 0.000215926 0.000656434)
(-6.47944e-05 0.000161763 0.000750094)
(-6.70922e-05 9.77381e-05 0.000789366)
(-3.46774e-05 0.000108905 0.000686412)
(5.25912e-05 0.000284435 0.000582156)
(-2.26175e-05 0.000149289 0.000673759)
(-7.43515e-05 5.26052e-05 0.000824473)
(-7.93048e-06 6.08983e-05 0.000697675)
(-1.08879e-05 0.000266596 0.000435567)
(-6.25999e-05 0.000106175 0.000544972)
(-9.55466e-05 3.3807e-05 0.000630366)
(-7.92738e-05 2.73739e-05 0.000688347)
(0.00032576 3.51371e-05 0.00033456)
(-6.76177e-05 -2.06528e-05 0.000431976)
(-0.000117334 4.57582e-05 0.000586019)
(-6.00401e-05 1.05894e-05 0.000740676)
(-1.10604e-05 0.000166878 0.000683578)
(0.000608526 0.00140113 0.00103323)
(0.000143525 7.15388e-05 0.000641955)
(-5.70631e-05 -0.000407062 0.000569143)
(0.000236068 0.000242151 0.000512274)
(0.000874726 -0.000126533 0.000780793)
(1.66932e-05 0.000112794 0.000803171)
(0.00098454 0.000495267 -0.000117591)
(-0.000572294 0.000492055 0.000440213)
(0.000243712 -0.000183765 0.000529356)
(0.000294586 0.000317253 0.000380649)
(0.000253348 0.00027314 0.000669044)
(0.000195838 -0.000498358 0.000566322)
(0.00208565 -0.00127653 -0.000146064)
(0.000275614 -1.37144e-05 0.000586383)
(0.00057326 -0.000287502 0.000544984)
(0 0 0)
(0 0 0)
(0 0 0)
(0 0 0)
(0 0 0)
(0 0 0)
(0 0 0)
(0 0 0)
(0 0 0)
(0 0 0)
(0 0 0)
(0 0 0)
(0.000391948 -0.000372133 0.0004217)
(0 0 0)
(0 0 0)
(0 0 0)
(0 0 0)
(0 0 0)
(0 0 0)
(0 0 0)
(0 0 0)
(0 0 0)
(0 0 0)
(0 0 0)
(0 0 0)
(0 0 0)
(0 0 0)
(0 0 0)
(0 0 0)
(0 0 0)
(0 0 0)
(0 0 0)
(0 0 0)
(0 0 0)
(0 0 0)
(0 0 0)
(0 0 0)
(0 0 0)
(0 0 0)
(0 0 0)
(0 0 0)
(0 0 0)
(0 0 0)
(0 0 0)
(0 0 0)
(0 0 0)
(0 0 0)
(0 0 0)
(0 0 0)
(0 0 0)
(0 0 0)
(0 0 0)
(0 0 0)
(0 0 0)
(0 0 0)
(0 0 0)
(0 0 0)
(0 0 0)
(0 0 0)
(0 0 0)
(0 0 0)
(0 0 0)
(0 0 0)
(0 0 0)
(0 0 0)
(0 0 0)
(0 0 0)
(0 0 0)
(0 0 0)
(0 0 0)
(0 0 0)
(0 0 0)
(0 0 0)
(0 0 0)
(0 0 0)
(0 0 0)
(0 0 0)
(0 0 0)
(0 0 0)
(0 0 0)
(0 0 0)
(0 0 0)
(0 0 0)
(0 0 0)
(0 0 0)
(0 0 0)
(0 0 0)
(0 0 0)
(0 0 0)
(0 0 0)
(0 0 0)
(0 0 0)
(0 0 0)
(0 0 0)
(0 0 0)
(0 0 0)
(0 0 0)
(0 0 0)
(0 0 0)
(0 0 0)
(0 0 0)
(0 0 0)
(0 0 0)
(0 0 0)
(0 0 0)
(0 0 0)
(0 0 0)
(0 0 0)
(0 0 0)
(0 0 0)
(0 0 0)
(0 0 0)
(0 0 0)
(0 0 0)
(0 0 0)
(0 0 0)
(0 0 0)
(0 0 0)
(0 0 0)
(0 0 0)
(0 0 0)
(0 0 0)
(0 0 0)
(0 0 0)
(0 0 0)
(0 0 0)
(0 0 0)
(0 0 0)
(0 0 0)
(0 0 0)
(0 0 0)
(0 0 0)
(0 0 0)
(0 0 0)
(0 0 0)
(0 0 0)
(0 0 0)
(0 0 0)
(0 0 0)
(0 0 0)
(0 0 0)
(0 0 0)
(0 0 0)
(0 0 0)
(0 0 0)
(0 0 0)
(0 0 0)
(0 0 0)
(0 0 0)
(0 0 0)
(0 0 0)
(0 0 0)
(0 0 0)
(0 0 0)
(0 0 0)
(0 0 0)
(0 0 0)
(0 0 0)
(0 0 0)
(0 0 0)
(0 0 0)
(0 0 0)
(0 0 0)
(0 0 0)
(0 0 0)
(0 0 0)
(0 0 0)
(0 0 0)
(0 0 0)
(0 0 0)
(0 0 0)
(0 0 0)
(0 0 0)
(0 0 0)
(0 0 0)
(0 0 0)
(0 0 0)
(0 0 0)
(0 0 0)
(0 0 0)
(0 0 0)
(0 0 0)
(0 0 0)
(0 0 0)
(0 0 0)
(0 0 0)
(0 0 0)
(0 0 0)
(0 0 0)
(0 0 0)
(0 0 0)
(0 0 0)
(0 0 0)
(0 0 0)
(0 0 0)
(0 0 0)
(0 0 0)
(0 0 0)
(0 0 0)
(0 0 0)
(0 0 0)
(0 0 0)
(0 0 0)
(0 0 0)
(0 0 0)
(0 0 0)
(0 0 0)
(0 0 0)
(0 0 0)
(0 0 0)
(0 0 0)
(0 0 0)
(0 0 0)
(0 0 0)
(0 0 0)
(0 0 0)
(0 0 0)
(0 0 0)
(0 0 0)
(0 0 0)
(0 0 0)
(0 0 0)
(0 0 0)
(0 0 0)
(0 0 0)
(0 0 0)
(0 0 0)
(0 0 0)
(0 0 0)
(0 0 0)
(0 0 0)
(0 0 0)
(0 0 0)
(0 0 0)
(0 0 0)
(0 0 0)
(0 0 0)
(0 0 0)
(0 0 0)
(0 0 0)
(0 0 0)
(0 0 0)
(0 0 0)
(0 0 0)
(0 0 0)
(0 0 0)
(0 0 0)
(0 0 0)
(0 0 0)
(0 0 0)
(0 0 0)
(0 0 0)
(0 0 0)
(0 0 0)
(0 0 0)
(0 0 0)
(0 0 0)
(0 0 0)
(0 0 0)
(0 0 0)
(0 0 0)
(0 0 0)
(0 0 0)
(0 0 0)
(0 0 0)
(0 0 0)
(0 0 0)
(0 0 0)
(0 0 0)
(0 0 0)
(0 0 0)
(0 0 0)
(-2.47688e-05 8.49909e-05 8.97532e-05)
(2.99368e-05 0.000114138 1.76128e-05)
(6.61889e-05 0.0001071 5.12069e-05)
(-1.44349e-05 1.18652e-05 3.96856e-05)
(-3.92691e-05 0.000130818 0.000102575)
(4.16021e-06 7.97176e-05 4.932e-05)
(-8.71415e-06 0.000153589 -2.47775e-05)
(-3.59079e-05 5.17712e-05 5.12899e-05)
(-4.98091e-05 0.000108103 0.000103708)
(-0.000121783 7.78321e-05 6.77877e-05)
(-4.13854e-05 0.000164876 6.81169e-05)
(4.12347e-05 0.000129159 7.89131e-05)
(2.5761e-05 2.18849e-05 -4.73494e-05)
(-5.8877e-05 0.000220336 0.000110651)
(-0.00011145 0.00020664 6.32577e-05)
(2.07221e-06 9.43677e-05 9.49417e-05)
(-1.0715e-05 0.000137061 0.000243662)
(4.4396e-05 0.000123238 0.000217216)
(-6.59142e-06 4.60628e-05 0.000126898)
(1.62097e-05 3.65149e-05 0.000199986)
(-4.99501e-05 0.000189854 0.000230751)
(6.24809e-05 0.000133988 0.000185173)
(-9.82551e-05 0.000159695 0.000158636)
(-0.000102238 0.000137452 0.000158566)
(5.19772e-06 0.000297546 0.000277438)
(-4.95286e-06 0.000195601 0.000317536)
(-1.32976e-05 0.000203883 0.000214302)
(-5.44311e-05 0.000171704 0.000200785)
(-0.000126613 8.69793e-05 0.000139626)
(-0.000127373 0.000320651 0.000352843)
(-5.78141e-05 0.000278105 0.000223374)
(-3.13315e-05 0.000199626 0.000279306)
(9.59329e-05 3.67724e-05 0.000254491)
(0.000120681 9.31846e-05 0.000245812)
(4.89224e-05 8.3337e-05 0.000174435)
(2.49989e-05 6.71613e-05 0.000118747)
(6.13259e-05 0.000157312 0.000342175)
(6.98251e-05 0.000198193 0.0003711)
(4.42709e-05 0.000127051 0.000275811)
(-7.10964e-07 0.000149044 0.000261424)
(-1.17785e-05 0.000148401 0.000449395)
(4.54142e-05 0.000230412 0.000439856)
(5.65963e-05 0.000198107 0.000369138)
(-9.78363e-05 0.000167412 0.000399051)
(-4.14786e-05 0.00019083 0.000556838)
(2.27845e-05 0.000294458 0.000308209)
(7.78613e-05 0.000268369 0.000487458)
(-1.96645e-05 0.000194982 0.000545084)
(2.65986e-05 2.19485e-05 0.000363897)
(0.000119061 7.45773e-05 0.000301199)
(1.72863e-05 7.52113e-05 0.000242381)
(-1.10518e-05 0.000118692 0.000237973)
(2.78572e-05 3.05072e-05 0.000463251)
(9.49174e-05 6.87733e-05 0.000494708)
(-9.82634e-05 0.000132817 0.000523557)
(-0.000203965 0.00015762 0.000385052)
(1.42847e-05 0.000117623 0.000583095)
(-4.18542e-05 0.000300115 0.000534557)
(-3.70588e-05 0.000271959 0.000604381)
(-0.000135872 7.07001e-05 0.000709894)
(1.95528e-06 0.000163416 0.000676613)
(-5.11554e-05 0.000241652 0.000524203)
(1.98401e-06 0.000243423 0.000625142)
(-6.83031e-06 0.000202784 0.000582723)
(-0.000111241 0.000130692 0.000567313)
(-3.73239e-06 9.08316e-05 0.000360265)
(-3.06876e-06 6.78527e-05 0.000255233)
(-6.04349e-05 3.92422e-05 0.000305653)
(-0.00012943 0.00019652 0.000508279)
(-7.39087e-06 0.000210155 0.000438991)
(3.4685e-05 0.000195345 0.000468727)
(-0.000257187 0.000241347 0.000377639)
(-6.46232e-05 0.000278406 0.000700957)
(-8.482e-05 0.000270778 0.000642088)
(-1.18432e-05 0.000236822 0.000667825)
(-0.000194679 0.000198535 0.000592841)
(-5.70877e-05 0.000360169 0.000708206)
(-5.90395e-05 0.000259966 0.000667464)
(-0.00010858 0.000188003 0.000686688)
(-0.000141347 0.000259788 0.000677071)
(-0.000131493 0.000497375 0.000854552)
(0.000235471 0.000339198 0.000295293)
(0.00016989 6.01969e-05 0.000295642)
(-3.05988e-05 2.11118e-05 0.000258675)
(-6.35519e-05 0.000622489 0.000786244)
(8.82806e-05 0.000346433 0.000635352)
(0.000132377 0.000205528 0.000536801)
(-5.79172e-05 7.35398e-05 0.000479734)
(-8.05884e-05 0.00049464 0.0008282)
(1.77136e-05 0.000269656 0.000765144)
(5.73281e-05 0.000171166 0.000783074)
(1.91829e-05 0.000172525 0.000584724)
(3.8368e-05 0.000278115 0.000791547)
(-3.77536e-05 0.000220646 0.000760674)
(-0.000111674 0.000161436 0.000687129)
(7.56468e-06 0.000199641 0.000613981)
(0.00473693 0.000495382 -0.00102978)
(-0.000587484 -0.000493878 0.000206127)
(-0.000673352 -0.000246587 -0.000121924)
(6.61805e-05 3.78604e-06 0.000411413)
(0.00183632 -0.000238915 0.000976443)
(1.52153e-05 0.000839377 0.000444311)
(0.000133855 -3.74645e-05 0.000602106)
(0.000110088 -0.000137451 0.000548925)
(0.000401179 0.000647679 0.000906391)
(0.000199188 0.000609029 0.000873601)
(0.000190524 0.000153081 0.000714521)
(0.000179839 0.000138816 0.000597618)
(0.000199465 0.000434362 0.000893323)
(-0.000259765 0.000287327 0.000789215)
(-0.000409805 0.000259457 0.000475928)
(0.000100934 0.000123985 0.000683799)
(0 0 0)
(0 0 0)
(0 0 0)
(0 0 0)
(0 0 0)
(0 0 0)
(0 0 0)
(0 0 0)
(0 0 0)
(0 0 0)
(0 0 0)
(0 0 0)
(0 0 0)
(0 0 0)
(0 0 0)
(0 0 0)
(0 0 0)
(0 0 0)
(0 0 0)
(0 0 0)
(0 0 0)
(0 0 0)
(0 0 0)
(0 0 0)
(0 0 0)
(0 0 0)
(0 0 0)
(0 0 0)
(0 0 0)
(0 0 0)
(0 0 0)
(0 0 0)
(0 0 0)
(0 0 0)
(0 0 0)
(0 0 0)
(0 0 0)
(0 0 0)
(0 0 0)
(0 0 0)
(0 0 0)
(0 0 0)
(0 0 0)
(0 0 0)
(0 0 0)
(0 0 0)
(0 0 0)
(0 0 0)
(0 0 0)
(0 0 0)
(0 0 0)
(0 0 0)
(0 0 0)
(0 0 0)
(0 0 0)
(0 0 0)
(0 0 0)
(0 0 0)
(0 0 0)
(0 0 0)
(0 0 0)
(0 0 0)
(0 0 0)
(0 0 0)
(0 0 0)
(0 0 0)
(0 0 0)
(0 0 0)
(0 0 0)
(0 0 0)
(0 0 0)
(0 0 0)
(0 0 0)
(0 0 0)
(0 0 0)
(0 0 0)
(0 0 0)
(0 0 0)
(0 0 0)
(0 0 0)
(0 0 0)
(0 0 0)
(0 0 0)
(0 0 0)
(0 0 0)
(0 0 0)
(0 0 0)
(0 0 0)
(0 0 0)
(0 0 0)
(0 0 0)
(0 0 0)
(0 0 0)
(0 0 0)
(0 0 0)
(0 0 0)
(0 0 0)
(0 0 0)
(0 0 0)
(0 0 0)
(0 0 0)
(0 0 0)
(0 0 0)
(0 0 0)
(0 0 0)
(0 0 0)
(0 0 0)
(0 0 0)
(0 0 0)
(0 0 0)
(0 0 0)
(0 0 0)
(0 0 0)
(0 0 0)
(0 0 0)
(0 0 0)
(0 0 0)
(0 0 0)
(0 0 0)
(0 0 0)
(0 0 0)
(0 0 0)
(0 0 0)
(0 0 0)
(0 0 0)
(0 0 0)
(0 0 0)
(0 0 0)
(0 0 0)
(0 0 0)
(0 0 0)
(0 0 0)
(0 0 0)
(0 0 0)
(0 0 0)
(0 0 0)
(0 0 0)
(0 0 0)
(0 0 0)
(0 0 0)
(0 0 0)
(0 0 0)
(0 0 0)
(0 0 0)
(0 0 0)
(0 0 0)
(0 0 0)
(0 0 0)
(0 0 0)
(0 0 0)
(0 0 0)
(0 0 0)
(0 0 0)
(0 0 0)
(0 0 0)
(0 0 0)
(0 0 0)
(0 0 0)
(0 0 0)
(0 0 0)
(0 0 0)
(0 0 0)
(0 0 0)
(0 0 0)
(0 0 0)
(0 0 0)
(0 0 0)
(0 0 0)
(0 0 0)
(0 0 0)
(0 0 0)
(0 0 0)
(0 0 0)
(0 0 0)
(0 0 0)
(0 0 0)
(0 0 0)
(0 0 0)
(0 0 0)
(0 0 0)
(0 0 0)
(0 0 0)
(0 0 0)
(0 0 0)
(0 0 0)
(0 0 0)
(0 0 0)
(0 0 0)
(0 0 0)
(0 0 0)
(0 0 0)
(0 0 0)
(0 0 0)
(0 0 0)
(0 0 0)
(0 0 0)
(0 0 0)
(0 0 0)
(0 0 0)
(0 0 0)
(0 0 0)
(0 0 0)
(0 0 0)
(0 0 0)
(0 0 0)
(0 0 0)
(0 0 0)
(0 0 0)
(0 0 0)
(0 0 0)
(0 0 0)
(0 0 0)
(0 0 0)
(0 0 0)
(0 0 0)
(0 0 0)
(0 0 0)
(0 0 0)
(0 0 0)
(0 0 0)
(0 0 0)
(0 0 0)
(0 0 0)
(0 0 0)
(0 0 0)
(0 0 0)
(0 0 0)
(0 0 0)
(0 0 0)
(0 0 0)
(0 0 0)
(0 0 0)
(0 0 0)
(0 0 0)
(0 0 0)
(0 0 0)
(0 0 0)
(0 0 0)
(0 0 0)
(0 0 0)
(0 0 0)
(0 0 0)
(0 0 0)
(0 0 0)
(0 0 0)
(0 0 0)
(0 0 0)
(0 0 0)
(0 0 0)
(0 0 0)
(0 0 0)
(0 0 0)
(0 0 0)
(0 0 0)
(0 0 0)
(0 0 0)
(0 0 0)
(0 0 0)
(0 0 0)
(0 0 0)
(0 0 0)
(0 0 0)
(0 0 0)
(0 0 0)
(0 0 0)
(0 0 0)
(0 0 0)
(0 0 0)
(0 0 0)
(0 0 0)
(0 0 0)
(0 0 0)
(-2.73077e-05 7.06091e-05 2.38619e-05)
(3.56601e-05 4.55689e-05 5.88457e-05)
(2.17782e-05 5.98783e-05 6.99877e-05)
(-5.21906e-06 8.57755e-05 1.98239e-05)
(0.000121107 0.000179607 4.14008e-06)
(-2.31804e-05 0.000149804 1.47838e-05)
(-2.50164e-06 0.000183034 1.12146e-05)
(0.000157989 -5.7583e-05 -3.71012e-05)
(0.000117449 0.000157603 7.35496e-05)
(0.000258933 9.77806e-05 0.000221388)
(0.000189791 0.000272209 0.000131026)
(1.85286e-05 7.899e-05 7.78496e-05)
(-3.84329e-05 1.34451e-05 9.23436e-05)
(0.000108786 -5.06329e-05 0.000108822)
(0.000213875 8.21433e-05 0.000147121)
(-0.000742891 -1.84527e-05 -0.000152247)
(4.26778e-05 -0.000191247 0.000246022)
(4.45932e-05 3.73598e-05 0.000128959)
(-1.67819e-05 0.000179116 0.000187788)
(3.10838e-06 4.01233e-05 0.000186142)
(-0.00036843 -6.65825e-05 -0.000210867)
(-4.53519e-05 9.82457e-05 0.000234605)
(3.78668e-05 -1.83276e-05 0.000232375)
(-2.03628e-05 -3.52461e-05 0.000123019)
(-0.000211933 9.50386e-05 0.000281919)
(-0.000240932 7.21118e-05 0.0004552)
(-9.08217e-05 -5.80383e-05 0.000348964)
(4.75106e-06 -6.69237e-07 9.36034e-05)
(-0.000154591 0.000123522 0.000314307)
(-0.000131168 0.000121557 0.000386784)
(4.68967e-05 -3.69709e-05 0.000343952)
(3.19284e-05 5.2308e-05 0.000353594)
(-5.78881e-06 2.18216e-05 0.000659664)
(1.60184e-05 0.000248645 0.000331501)
(-6.08723e-06 4.10192e-05 0.000321568)
(-3.4049e-05 -5.60884e-05 0.000258737)
(-9.9848e-05 0.000117069 0.000371675)
(-0.000188218 6.87374e-05 0.000117689)
(-8.18837e-05 6.62333e-05 0.000337833)
(-6.75583e-05 -9.22583e-05 0.000262981)
(-8.87709e-06 0.000246772 0.000531088)
(-3.79847e-05 0.000223174 0.000467268)
(-4.70743e-05 0.000119767 0.000296208)
(3.09386e-06 -4.68138e-05 9.67155e-05)
(-0.000142512 1.40861e-05 0.00051257)
(-3.3119e-05 0.000148465 0.000493008)
(-0.000224615 -6.44763e-06 0.000491542)
(0.00017606 -0.000204689 0.000506439)
(5.58964e-05 4.33968e-05 0.00061716)
(5.56789e-05 0.000127899 0.000535955)
(2.97081e-05 3.12659e-05 0.000418121)
(-4.55946e-05 -1.32259e-05 0.000402536)
(0.00020578 0.000107711 0.000485217)
(2.0642e-07 0.000127194 0.000503238)
(-7.13992e-06 0.000138291 0.000467505)
(3.19277e-05 5.88901e-05 0.000286022)
(-4.3396e-05 0.000110725 0.000598234)
(1.18827e-05 0.000164894 0.000563775)
(8.19871e-05 0.000140584 0.000402339)
(4.38529e-05 0.000179322 0.00025973)
(-0.00019403 7.58102e-05 0.000595682)
(-4.04614e-05 9.1135e-05 0.000608808)
(9.15902e-05 0.000120779 0.000596015)
(-2.49627e-05 2.14701e-05 0.000827443)
(-4.19959e-06 0.000132923 0.000483924)
(-4.43307e-05 5.94635e-05 0.000371861)
(-0.000127887 -5.4842e-05 0.000357268)
(-0.000103738 -8.47268e-05 0.00041196)
(1.59171e-05 7.38932e-05 0.00052042)
(4.12293e-05 3.53574e-05 0.000505049)
(-4.0764e-05 8.85545e-05 0.000401108)
(-3.76443e-05 4.78368e-05 0.000331842)
(-0.000106876 0.000199797 0.000584792)
(-0.000111947 2.64507e-05 0.000480736)
(-2.17366e-05 4.28715e-05 0.000505742)
(-1.40947e-06 8.30606e-05 0.000508368)
(-9.2871e-05 8.63411e-05 0.000714884)
(-2.55044e-05 0.000111733 0.000644678)
(-0.000107039 0.000124153 0.000773552)
(-9.286e-05 -1.04467e-06 0.0013277)
(-2.22083e-06 6.93464e-05 0.000461679)
(-4.68508e-05 2.14634e-05 0.000389729)
(-0.00013985 -4.7924e-05 0.000336069)
(-9.46502e-05 -3.82978e-05 0.000163939)
(-9.32765e-05 -4.26334e-06 0.000531423)
(2.26074e-05 5.73006e-05 0.000516345)
(-6.79861e-05 -7.5833e-05 0.000536071)
(-4.59393e-05 -5.95048e-05 0.000306683)
(-0.000148552 1.2565e-05 0.000659537)
(-0.000220692 2.47109e-05 0.000406934)
(-0.000467432 7.86742e-05 0.000611446)
(-2.24344e-05 -5.32457e-05 0.000408714)
(-0.000134813 4.10168e-05 0.000889607)
(-0.000235277 0.000133153 0.00068292)
(-0.000217337 7.7175e-05 0.000654813)
(-0.000134726 -0.000195898 0.000674455)
(-4.81145e-05 -0.000369514 0.000341501)
(-4.22799e-05 -0.000212653 0.000559649)
(-6.78967e-05 -0.000185324 0.000412609)
(-3.43565e-05 -6.56513e-05 0.000235457)
(0.000766742 0.000233127 -7.62147e-05)
(-0.000236888 4.10256e-05 0.000517371)
(-3.27234e-05 -2.06324e-05 0.000458905)
(-0.000119439 -7.179e-05 0.000394885)
(0.00103212 0.00075153 0.000536575)
(-0.000143466 -0.000113313 0.000426277)
(-0.000832772 0.000219367 0.00142981)
(-0.000183289 0.00052785 0.000393839)
(0.00100076 -0.000606395 0.000581166)
(8.57038e-05 -8.24197e-05 0.000836024)
(-0.000324854 -0.000101254 0.000487351)
(0.00144645 0.00270685 -0.000769434)
(0 0 0)
(0 0 0)
(0 0 0)
(0 0 0)
(0 0 0)
(0 0 0)
(0 0 0)
(0 0 0)
(0 0 0)
(0 0 0)
(0 0 0)
(0 0 0)
(0 0 0)
(0 0 0)
(0 0 0)
(0 0 0)
(0 0 0)
(0 0 0)
(0 0 0)
(0 0 0)
(0 0 0)
(0 0 0)
(0 0 0)
(0 0 0)
(0 0 0)
(0 0 0)
(0 0 0)
(0 0 0)
(0 0 0)
(0 0 0)
(0 0 0)
(0 0 0)
(0 0 0)
(0 0 0)
(0 0 0)
(0 0 0)
(0 0 0)
(0 0 0)
(0 0 0)
(0 0 0)
(0 0 0)
(0 0 0)
(0 0 0)
(0 0 0)
(0 0 0)
(0 0 0)
(0 0 0)
(0 0 0)
(0 0 0)
(0 0 0)
(0 0 0)
(0 0 0)
(0 0 0)
(0 0 0)
(0 0 0)
(0 0 0)
(0 0 0)
(0 0 0)
(0 0 0)
(0 0 0)
(0 0 0)
(0 0 0)
(0 0 0)
(0 0 0)
(0 0 0)
(0 0 0)
(0 0 0)
(0 0 0)
(0 0 0)
(0 0 0)
(0 0 0)
(0 0 0)
(0 0 0)
(0 0 0)
(0 0 0)
(0 0 0)
(0 0 0)
(0 0 0)
(0 0 0)
(0 0 0)
(0 0 0)
(0 0 0)
(0 0 0)
(0 0 0)
(0 0 0)
(0 0 0)
(0 0 0)
(0 0 0)
(0 0 0)
(0 0 0)
(0 0 0)
(0 0 0)
(0 0 0)
(0 0 0)
(0 0 0)
(0 0 0)
(0 0 0)
(0 0 0)
(0 0 0)
(0 0 0)
(0 0 0)
(0 0 0)
(0 0 0)
(0 0 0)
(0 0 0)
(0 0 0)
(0 0 0)
(0 0 0)
(0 0 0)
(0 0 0)
(0 0 0)
(0 0 0)
(0 0 0)
(0 0 0)
(0 0 0)
(0 0 0)
(0 0 0)
(0 0 0)
(0 0 0)
(0 0 0)
(0 0 0)
(0 0 0)
(0 0 0)
(0 0 0)
(0 0 0)
(0 0 0)
(0 0 0)
(0 0 0)
(0 0 0)
(0 0 0)
(0 0 0)
(0 0 0)
(0 0 0)
(0 0 0)
(0 0 0)
(0 0 0)
(0 0 0)
(0 0 0)
(0 0 0)
(0 0 0)
(0 0 0)
(0 0 0)
(0 0 0)
(0 0 0)
(0 0 0)
(0 0 0)
(0 0 0)
(0 0 0)
(0 0 0)
(0 0 0)
(0 0 0)
(0 0 0)
(0 0 0)
(0 0 0)
(0 0 0)
(0 0 0)
(0 0 0)
(0 0 0)
(0 0 0)
(0 0 0)
(0 0 0)
(0 0 0)
(0 0 0)
(0 0 0)
(0 0 0)
(0 0 0)
(0 0 0)
(0 0 0)
(0 0 0)
(0 0 0)
(0 0 0)
(0 0 0)
(0 0 0)
(0 0 0)
(0 0 0)
(0 0 0)
(0 0 0)
(0 0 0)
(0 0 0)
(0 0 0)
(0 0 0)
(0 0 0)
(0 0 0)
(0 0 0)
(0 0 0)
(0 0 0)
(0 0 0)
(0 0 0)
(0 0 0)
(0 0 0)
(0 0 0)
(0 0 0)
(0 0 0)
(0 0 0)
(0 0 0)
(0 0 0)
(0 0 0)
(0 0 0)
(0 0 0)
(0 0 0)
(0 0 0)
(0 0 0)
(0 0 0)
(0 0 0)
(0 0 0)
(0 0 0)
(0 0 0)
(0 0 0)
(0 0 0)
(0 0 0)
(0 0 0)
(0 0 0)
(0 0 0)
(0 0 0)
(0 0 0)
(0 0 0)
(0 0 0)
(0 0 0)
(0 0 0)
(0 0 0)
(0 0 0)
(0 0 0)
(0 0 0)
(0 0 0)
(0 0 0)
(0 0 0)
(0 0 0)
(0 0 0)
(0 0 0)
(0 0 0)
(0 0 0)
(0 0 0)
(0 0 0)
(0 0 0)
(0 0 0)
(0 0 0)
(0 0 0)
(0 0 0)
(0 0 0)
(0 0 0)
(0 0 0)
(0 0 0)
(0 0 0)
(0 0 0)
(0 0 0)
(0 0 0)
(0 0 0)
(0 0 0)
(0 0 0)
(0 0 0)
(0 0 0)
(0 0 0)
(0 0 0)
(0 0 0)
(0 0 0)
(0 0 0)
(0 0 0)
(0 0 0)
(0 0 0)
(0 0 0)
(0 0 0)
(0 0 0)
(0 0 0)
(0 0 0)
(0 0 0)
(0 0 0)
(0 0 0)
(0 0 0)
(0 0 0)
(0 0 0)
(0 0 0)
(0 0 0)
)
;

boundaryField
{
    inlet
    {
        type            zeroGradient;
    }
    outlet
    {
        type            zeroGradient;
    }
    wall
    {
        type            zeroGradient;
    }
    procBoundary1to0
    {
        type            processor;
        value           nonuniform List<vector> 
192
(
(5.78434e-05 0.000137999 6.85314e-05)
(-2.00426e-05 0.00016719 0.000100896)
(0.00011215 0.000159331 7.07135e-05)
(0.000339139 6.08019e-05 9.85848e-05)
(3.27743e-05 0.000221727 0.000252665)
(-3.46031e-05 0.000305608 0.000283739)
(-5.37607e-05 0.000217614 0.000436717)
(7.566e-05 8.95287e-05 0.00053704)
(1.22564e-05 0.000212072 0.000529438)
(4.28128e-05 0.00030191 0.000650624)
(6.23651e-05 0.000343579 0.000805656)
(-6.9629e-05 0.000331318 0.000805552)
(9.78815e-05 0.000284868 0.000735799)
(2.70352e-05 0.000262266 0.00071084)
(6.21948e-05 0.000207252 0.000740888)
(5.8072e-05 3.43591e-05 0.000770591)
(9.53575e-05 0.000382631 0.000680926)
(0.000142708 0.000432395 0.000619305)
(0.000250811 0.00033674 0.000534851)
(0.000263771 -1.96382e-06 0.000529818)
(0.000127983 0.000303704 0.000685856)
(0.000162036 0.00030062 0.000525884)
(0.000206389 0.000231589 0.000473777)
(0.00012665 -1.13179e-06 0.000452014)
(-4.52621e-05 0.000126178 0.000683428)
(0.00025779 0.000139903 0.000620808)
(0.000194783 0.0001154 0.000533402)
(0.000247956 0.000109584 0.000254481)
(0 0 0)
(0 0 0)
(0 0 0)
(0 0 0)
(0 0 0)
(0 0 0)
(0 0 0)
(0 0 0)
(0 0 0)
(0 0 0)
(0 0 0)
(0 0 0)
(0 0 0)
(0 0 0)
(0 0 0)
(0 0 0)
(0 0 0)
(0 0 0)
(0 0 0)
(0 0 0)
(0 0 0)
(0 0 0)
(0 0 0)
(0 0 0)
(0 0 0)
(0 0 0)
(0 0 0)
(0 0 0)
(0 0 0)
(0 0 0)
(0 0 0)
(0 0 0)
(0 0 0)
(0 0 0)
(0 0 0)
(0 0 0)
(0 0 0)
(0 0 0)
(0 0 0)
(0 0 0)
(0 0 0)
(0 0 0)
(0 0 0)
(0 0 0)
(0 0 0)
(0 0 0)
(0 0 0)
(0 0 0)
(0 0 0)
(0 0 0)
(0 0 0)
(0 0 0)
(0 0 0)
(0 0 0)
(0 0 0)
(0 0 0)
(0 0 0)
(0 0 0)
(0 0 0)
(0 0 0)
(0 0 0)
(0 0 0)
(0 0 0)
(0 0 0)
(0 0 0)
(0 0 0)
(0 0 0)
(0 0 0)
(5.26217e-05 1.61126e-05 8.00228e-05)
(-2.90506e-05 8.36076e-05 0.000165516)
(-8.71409e-05 5.78685e-05 8.35106e-05)
(-0.000115273 0.0001388 7.97847e-05)
(0.000176377 2.58084e-05 0.000296958)
(7.4085e-05 3.66467e-05 0.000400327)
(-4.22624e-05 0.0001701 0.000299369)
(-9.27291e-05 0.000178603 0.000206996)
(0.000115797 -1.99287e-05 0.000401818)
(0.00011866 5.29897e-05 0.000526928)
(1.61717e-05 0.000157471 0.000481347)
(-6.80401e-05 0.000243556 0.000544616)
(-0.000395675 0.000114103 0.000459864)
(-7.48487e-05 0.000118737 0.000585513)
(-5.17465e-06 0.000113124 0.000629149)
(-9.61464e-06 0.000195642 0.0007854)
(6.15107e-08 0.000100836 0.0006321)
(-0.000140156 0.000142692 0.000639646)
(-0.000117445 0.000242969 0.000741429)
(-6.47998e-05 0.000312704 0.000800595)
(-0.000326322 0.000291628 0.000709556)
(-0.000268976 0.000352553 0.00101209)
(-9.68882e-05 0.000371009 0.000906748)
(3.67689e-05 0.000316126 0.000821397)
(0.00215439 -6.39401e-05 0.000192167)
(8.42237e-05 0.000225585 0.00094022)
(-0.00138756 0.00141377 0.00069822)
(-2.04039e-05 0.000224688 0.000846156)
(0.0182314 -0.000608917 -0.00527661)
(0 0 0)
(0 0 0)
(0 0 0)
(0 0 0)
(0 0 0)
(0 0 0)
(0 0 0)
(0 0 0)
(0 0 0)
(0 0 0)
(0 0 0)
(0 0 0)
(0 0 0)
(0 0 0)
(0 0 0)
(0 0 0)
(0 0 0)
(0 0 0)
(0 0 0)
(0 0 0)
(0 0 0)
(0 0 0)
(0 0 0)
(0 0 0)
(0 0 0)
(0 0 0)
(0 0 0)
(0 0 0)
(0 0 0)
(0 0 0)
(0 0 0)
(0 0 0)
(0 0 0)
(0 0 0)
(0 0 0)
(0 0 0)
(0 0 0)
(0 0 0)
(0 0 0)
(0 0 0)
(0 0 0)
(0 0 0)
(0 0 0)
(0 0 0)
(0 0 0)
(0 0 0)
(0 0 0)
(0 0 0)
(0 0 0)
(0 0 0)
(0 0 0)
(0 0 0)
(0 0 0)
(0 0 0)
(0 0 0)
(0 0 0)
(0 0 0)
(0 0 0)
(0 0 0)
(0 0 0)
(0 0 0)
(0 0 0)
(0 0 0)
(0 0 0)
(0 0 0)
(0 0 0)
(0 0 0)
)
;
    }
    procBoundary1to3
    {
        type            processor;
        value           nonuniform List<vector> 
192
(
(0.000189931 0.000218665 -3.11209e-05)
(2.31794e-05 0.00037089 0.000129101)
(-0.000123863 -1.64094e-05 0.000110873)
(-3.4127e-05 2.97064e-05 0.000137517)
(-0.000261779 -0.000387656 2.88681e-05)
(-0.000173647 -3.04512e-06 0.000629293)
(-0.000259504 5.80341e-05 0.000446872)
(-0.000340924 6.79615e-05 0.000359651)
(-0.000204002 -0.000129111 0.000930041)
(-0.000251596 -8.10053e-05 0.000881042)
(-0.000143537 1.44957e-05 0.000562925)
(-0.000113249 0.000262766 0.000482086)
(-0.000161031 -0.000144845 0.000711392)
(-0.000271368 -0.000111282 0.000656242)
(-0.000309633 -0.000143356 0.000658435)
(-0.000253853 1.35129e-05 0.000627313)
(-0.000136183 -0.000215588 0.000542373)
(-0.000420101 -0.000230184 0.00045798)
(-0.000393234 -7.31267e-05 0.000570292)
(-0.000160513 2.2999e-05 0.000678485)
(-3.78899e-05 -0.000227382 0.000465796)
(-0.000146415 -0.000126988 0.000491971)
(-9.81739e-05 5.78906e-05 0.000516248)
(-3.70103e-05 5.4609e-05 0.000789228)
(0.000235335 -3.9519e-05 0.00032768)
(0.000362442 -0.000239562 0.000451386)
(-0.000104173 0.000170146 0.000631371)
(-0.000142051 5.24813e-05 0.00083436)
(0 0 0)
(0 0 0)
(0 0 0)
(0 0 0)
(0 0 0)
(0 0 0)
(0 0 0)
(0 0 0)
(0 0 0)
(0 0 0)
(0 0 0)
(0 0 0)
(0 0 0)
(0 0 0)
(0 0 0)
(0 0 0)
(0 0 0)
(0 0 0)
(0 0 0)
(0 0 0)
(0 0 0)
(0 0 0)
(0 0 0)
(0 0 0)
(0 0 0)
(0 0 0)
(0 0 0)
(0 0 0)
(0 0 0)
(0 0 0)
(0 0 0)
(0 0 0)
(0 0 0)
(0 0 0)
(0 0 0)
(0 0 0)
(0 0 0)
(0 0 0)
(0 0 0)
(0 0 0)
(0 0 0)
(0 0 0)
(0 0 0)
(0 0 0)
(0 0 0)
(0 0 0)
(0 0 0)
(0 0 0)
(0 0 0)
(0 0 0)
(0 0 0)
(0 0 0)
(0 0 0)
(0 0 0)
(0 0 0)
(0 0 0)
(0 0 0)
(0 0 0)
(0 0 0)
(0 0 0)
(0 0 0)
(0 0 0)
(0 0 0)
(0 0 0)
(0 0 0)
(0 0 0)
(0 0 0)
(0 0 0)
(-4.8029e-05 5.18864e-05 4.4452e-05)
(-4.53974e-05 3.22929e-05 7.21385e-05)
(-1.34465e-05 1.99195e-05 0.000173326)
(-1.64352e-05 -1.72747e-05 3.28621e-05)
(-0.000224579 0.000120869 0.000283404)
(-0.00012717 7.98106e-05 0.000307411)
(-4.2789e-05 7.47737e-05 0.00022367)
(-7.61567e-05 -0.00013911 0.000138992)
(-0.000148639 -4.92845e-05 0.000484628)
(-0.000110217 -1.64449e-05 0.000473355)
(-0.000102234 1.92156e-05 0.000315757)
(-1.92858e-05 -0.000127005 0.0003354)
(-0.000107087 -4.21172e-05 0.000567948)
(-6.58159e-05 -3.43559e-05 0.000575625)
(4.4572e-05 6.33917e-06 0.000418078)
(-5.61141e-05 -0.000112703 0.000438579)
(-1.47153e-05 3.09422e-05 0.000721729)
(-1.15129e-05 6.48367e-05 0.000656656)
(-7.25124e-05 0.000135497 0.000668093)
(-2.1669e-05 3.61314e-05 0.000584961)
(-8.74322e-05 1.56893e-05 0.000817438)
(-0.000191202 -2.22816e-05 0.000803794)
(-7.65082e-05 3.53693e-06 0.000702208)
(-7.50456e-05 5.47652e-05 0.000497532)
(-0.00112647 0.00165518 0.00159159)
(-0.000310381 -4.08667e-05 0.000875994)
(0.000180111 -0.000523148 0.000623024)
(4.22348e-05 -0.000100904 0.000294485)
(0 0 0)
(0 0 0)
(0 0 0)
(0 0 0)
(0 0 0)
(0 0 0)
(0 0 0)
(0 0 0)
(0 0 0)
(0 0 0)
(0 0 0)
(0 0 0)
(0 0 0)
(0 0 0)
(0 0 0)
(0 0 0)
(0 0 0)
(0 0 0)
(0 0 0)
(0 0 0)
(0 0 0)
(0 0 0)
(0 0 0)
(0 0 0)
(0 0 0)
(0 0 0)
(0 0 0)
(0 0 0)
(0 0 0)
(0 0 0)
(0 0 0)
(0 0 0)
(0 0 0)
(0 0 0)
(0 0 0)
(0 0 0)
(0 0 0)
(0 0 0)
(0 0 0)
(0 0 0)
(0 0 0)
(0 0 0)
(0 0 0)
(0 0 0)
(0 0 0)
(0 0 0)
(0 0 0)
(0 0 0)
(0 0 0)
(0 0 0)
(0 0 0)
(0 0 0)
(0 0 0)
(0 0 0)
(0 0 0)
(0 0 0)
(0 0 0)
(0 0 0)
(0 0 0)
(0 0 0)
(0 0 0)
(0 0 0)
(0 0 0)
(0 0 0)
(0 0 0)
(0 0 0)
(0 0 0)
(0 0 0)
)
;
    }
}


// ************************************************************************* //
