/*--------------------------------*- C++ -*----------------------------------*\
| =========                 |                                                 |
| \\      /  F ield         | OpenFOAM: The Open Source CFD Toolbox           |
|  \\    /   O peration     | Version:  2506                                  |
|   \\  /    A nd           | Website:  www.openfoam.com                      |
|    \\/     M anipulation  |                                                 |
\*---------------------------------------------------------------------------*/
FoamFile
{
    version     2.0;
    format      ascii;
    arch        "LSB;label=32;scalar=64";
    class       volScalarField;
    location    "0.03";
    object      voidfraction;
}
// * * * * * * * * * * * * * * * * * * * * * * * * * * * * * * * * * * * * * //

dimensions      [0 0 0 0 0 0 0];

internalField   nonuniform List<scalar> 
1152
(
0.531264
0.478597
0.452263
0.428563
0.444363
0.460163
0.38643
0.428563
0.44963
0.436463
0.415396
0.494397
0.404863
0.446997
0.510197
0.515464
0.399596
0.373263
0.38643
0.375896
0.396963
0.383796
0.38643
0.423296
0.412763
0.428563
0.412763
0.383796
0.41013
0.357463
0.328496
0.420663
0.491764
0.381163
0.396963
0.328496
0.357463
0.383796
0.452263
0.420663
0.389063
0.399596
0.404863
0.357463
0.40223
0.44173
0.44963
0.331129
0.344296
0.423296
0.378529
0.396963
0.367996
0.357463
0.468063
0.420663
0.431196
0.367996
0.396963
0.365363
0.352196
0.431196
0.40223
0.341663
0.43383
0.404863
0.415396
0.407496
0.42593
0.360096
0.357463
0.40223
0.415396
0.452263
0.367996
0.44173
0.45753
0.291629
0.483863
0.42593
0.362729
0.407496
0.41803
0.446997
0.47333
0.365363
0.415396
0.354829
0.375896
0.428563
0.38643
0.381163
0.346929
0.389063
0.431196
0.43383
0.723498
0.739298
0.620798
0.718232
0.662931
0.644498
0.644498
0.570764
0.631331
0.739298
0.655031
0.660298
0.515464
0.565497
0.849899
0.749832
1
1
1
1
1
1
1
1
1
1
1
1
0.997367
1
1
1
1
1
1
1
1
1
1
1
1
1
1
1
1
1
1
1
1
1
1
1
1
1
1
1
1
1
1
1
1
1
1
1
1
1
1
1
1
1
1
1
1
1
1
1
1
1
1
1
1
1
1
1
1
1
1
1
1
1
1
1
1
1
1
1
1
1
1
1
1
1
1
1
1
1
1
1
1
1
1
1
1
1
1
1
1
1
1
1
1
1
1
1
1
1
1
1
1
1
1
1
1
1
1
1
1
1
1
1
1
1
1
1
1
1
1
1
1
1
1
1
1
1
1
1
1
1
1
1
1
1
1
1
1
1
1
1
1
1
1
1
1
1
1
1
1
1
1
1
1
1
1
1
1
1
1
1
1
1
1
1
1
1
1
1
1
1
1
1
1
1
1
1
1
1
1
1
1
1
1
1
1
1
1
1
1
1
1
1
1
1
1
1
1
1
1
1
1
1
1
1
1
1
1
1
1
1
1
1
1
1
1
1
1
1
1
1
1
1
1
1
1
1
1
1
1
1
1
1
1
1
1
1
1
1
1
1
1
1
1
1
1
1
1
1
1
1
1
1
1
1
1
1
1
1
1
1
0.538266
0.424475
0.428186
0.463137
0.442169
0.49468
0.539566
0.436882
0.48043
0.38746
0.490341
0.510388
0.483792
0.458621
0.473631
0.382276
0.418358
0.420663
0.417315
0.457741
0.410519
0.431251
0.412886
0.402847
0.427367
0.396957
0.421093
0.412466
0.441193
0.358465
0.390182
0.412943
0.361088
0.411135
0.399921
0.436159
0.380848
0.410107
0.429939
0.418317
0.389782
0.399331
0.407244
0.350811
0.325923
0.426138
0.348457
0.456753
0.344981
0.428286
0.415141
0.473928
0.34722
0.410107
0.415322
0.375
0.447266
0.380338
0.421093
0.376198
0.363511
0.353052
0.444744
0.404181
0.395092
0.437815
0.449928
0.444252
0.410519
0.397422
0.405578
0.387377
0.427367
0.382712
0.429403
0.408839
0.383558
0.434258
0.351667
0.474277
0.339612
0.441626
0.399921
0.438857
0.475798
0.427022
0.422631
0.427599
0.391992
0.430195
0.412784
0.405212
0.383558
0.377414
0.386972
0.395419
0.695756
0.607423
0.569509
0.681659
0.728997
0.693425
0.559056
0.569926
0.750164
0.755459
0.687003
0.727993
0.822084
0.723896
0.736815
0.649518
1
1
1
1
1
1
1
1
1
1
1
1
1
1
1
1
1
1
1
1
1
1
1
1
1
1
1
1
1
1
1
1
1
1
1
1
1
1
1
1
1
1
1
1
1
1
1
1
1
1
1
1
1
1
1
1
1
1
1
1
1
1
1
1
1
1
1
1
1
1
1
1
1
1
1
1
1
1
1
1
1
1
1
1
1
1
1
1
1
1
1
1
1
1
1
1
1
1
1
1
1
1
1
1
1
1
1
1
1
1
1
1
1
1
1
1
1
1
1
1
1
1
1
1
1
1
1
1
1
1
1
1
1
1
1
1
1
1
1
1
1
1
1
1
1
1
1
1
1
1
1
1
1
1
1
1
1
1
1
1
1
1
1
1
1
1
1
1
1
1
1
1
1
1
1
1
1
1
1
1
1
1
1
1
1
1
1
1
1
1
1
1
1
1
1
1
1
1
1
1
1
1
1
1
1
1
1
1
1
1
1
1
1
1
1
1
1
1
1
1
1
1
1
1
1
1
1
1
1
1
1
1
1
1
1
1
1
1
1
1
1
1
1
1
1
1
1
1
1
1
1
1
1
1
1
1
1
1
1
1
1
1
1
1
1
1
1
1
1
1
1
1
0.465515
0.434226
0.461634
0.525186
0.435116
0.418323
0.361727
0.460799
0.420724
0.451563
0.47988
0.464495
0.350982
0.453899
0.473819
0.448782
0.35599
0.437853
0.402847
0.411879
0.40623
0.404474
0.456737
0.493412
0.382827
0.458686
0.424908
0.407323
0.386064
0.319032
0.38876
0.375406
0.491801
0.426973
0.356436
0.430763
0.415858
0.434943
0.37878
0.406444
0.399069
0.389834
0.437593
0.395889
0.446204
0.418524
0.380848
0.479206
0.364752
0.4306
0.35953
0.42267
0.361296
0.371235
0.461609
0.408618
0.396362
0.394583
0.329764
0.485457
0.421146
0.398625
0.372935
0.361088
0.342847
0.4306
0.347154
0.390296
0.409439
0.412784
0.434812
0.443405
0.412603
0.404079
0.477765
0.397795
0.401099
0.40968
0.426344
0.486365
0.342847
0.401586
0.353342
0.498208
0.425487
0.418323
0.449429
0.382528
0.412603
0.380338
0.412222
0.388266
0.373534
0.418524
0.382826
0.389723
0.723996
0.659085
0.718441
0.727522
0.669414
0.612216
0.697917
0.832587
0.6075
0.764956
0.805483
0.742729
0.761943
0.728055
0.8734
0.813874
1
1
1
1
1
1
1
1
1
1
1
1
1
1
1
1
1
1
1
1
1
1
1
1
1
1
1
1
1
1
1
1
1
1
1
1
1
1
1
1
1
1
1
1
1
1
1
1
1
1
1
1
1
1
1
1
1
1
1
1
1
1
1
1
1
1
1
1
1
1
1
1
1
1
1
1
1
1
1
1
1
1
1
1
1
1
1
1
1
1
1
1
1
1
1
1
1
1
1
1
1
1
1
1
1
1
1
1
1
1
1
1
1
1
1
1
1
1
1
1
1
1
1
1
1
1
1
1
1
1
1
1
1
1
1
1
1
1
1
1
1
1
1
1
1
1
1
1
1
1
1
1
1
1
1
1
1
1
1
1
1
1
1
1
1
1
1
1
1
1
1
1
1
1
1
1
1
1
1
1
1
1
1
1
1
1
1
1
1
1
1
1
1
1
1
1
1
1
1
1
1
1
1
1
1
1
1
1
1
1
1
1
1
1
1
1
1
1
1
1
1
1
1
1
1
1
1
1
1
1
1
1
1
1
1
1
1
1
1
1
1
1
1
1
1
1
1
1
1
1
1
1
1
1
1
1
1
1
1
1
1
1
1
1
1
1
1
1
1
1
1
1
)
;

boundaryField
{
    inlet
    {
        type            fixedValue;
        value           uniform 1;
    }
    outlet
    {
        type            fixedValue;
        value           uniform 1;
    }
    wall
    {
        type            zeroGradient;
    }
    procBoundary1to0
    {
        type            processor;
        value           nonuniform List<scalar> 
192
(
0.383796
0.381163
0.436463
0.42593
0.304796
0.391696
0.333763
0.357463
0.310062
0.41803
0.452263
0.370629
0.44173
0.41803
0.325862
0.51283
0.407496
0.389063
0.48123
0.357463
0.446997
0.444363
0.470697
0.431196
0.607631
0.549697
0.702431
0.599731
1
1
1
1
1
1
1
1
1
1
1
1
1
1
1
1
1
1
1
1
1
1
1
1
1
1
1
1
1
1
1
1
1
1
1
1
1
1
1
1
1
1
1
1
1
1
1
1
1
1
1
1
1
1
1
1
1
1
1
1
1
1
1
1
1
1
1
1
0.391513
0.412498
0.476008
0.373534
0.423727
0.450082
0.403047
0.463745
0.434465
0.414476
0.378727
0.466251
0.495313
0.42041
0.40968
0.37604
0.452361
0.402607
0.391992
0.416134
0.491734
0.398651
0.420735
0.463745
0.645646
0.643938
0.801016
0.67925
0.99821
1
1
1
1
1
1
1
1
1
1
1
1
1
1
1
1
1
1
1
1
1
1
1
1
1
1
1
1
1
1
1
1
1
1
1
1
1
1
1
1
1
1
1
1
1
1
1
1
1
1
1
1
1
1
1
1
1
1
1
1
1
1
1
1
1
1
1
)
;
    }
    procBoundary1to3
    {
        type            processor;
        value           nonuniform List<scalar> 
192
(
0.562864
0.412763
0.436463
0.365363
0.510197
0.396963
0.460163
0.431196
0.431196
0.367996
0.367996
0.502297
0.270562
0.344296
0.428563
0.378529
0.296896
0.510197
0.39433
0.389063
0.533897
0.44173
0.41013
0.428563
0.462797
0.549697
0.594464
0.683998
1
1
1
1
1
1
1
1
1
1
1
1
1
1
1
1
1
1
1
1
1
1
1
1
1
1
1
1
1
1
1
1
1
1
1
1
1
1
1
1
1
1
1
1
1
1
1
1
1
1
1
1
1
1
1
1
1
1
1
1
1
1
1
1
1
1
1
1
0.49131
0.471586
0.418432
0.452361
0.378546
0.356617
0.463929
0.464889
0.378546
0.349985
0.424366
0.448782
0.416134
0.431789
0.436235
0.486365
0.428663
0.369883
0.42041
0.395092
0.451216
0.420735
0.479754
0.40762
0.674238
0.732477
0.699325
0.645646
1
1
1
1
1
1
1
1
1
1
1
1
1
1
1
1
1
1
1
1
1
1
1
1
1
1
1
1
1
1
1
1
1
1
1
1
1
1
1
1
1
1
1
1
1
1
1
1
1
1
1
1
1
1
1
1
1
1
1
1
1
1
1
1
1
1
1
1
)
;
    }
}


// ************************************************************************* //
