FoamFile
{version 2.0; format ascii;class vectorField; location 0;object  v;}
2495
(
( -0.000101897 -0.000137723 -9.09608e-05 )  
( -3.1231e-06 -7.40626e-05 0.000120764 )  
( -0.000956698 0.000935085 0.00499931 )  
( -0.0078344 0.000798963 0.0094648 )  
( 0.00103823 -0.00245757 0.0140683 )  
( 0.000324027 -9.22021e-05 0.000181345 )  
( 0.000340099 0.000930063 5.74617e-06 )  
( -0.000182148 8.76027e-05 -6.69782e-05 )  
( 0.00186154 0.00403569 0.0106594 )  
( 0.000888807 0.000414026 0.0106124 )  
( -7.93739e-05 -0.000475909 -0.000297433 )  
( -0.0015829 0.000649805 0.00359408 )  
( 8.69283e-05 0.00235882 0.00189353 )  
( -0.000927389 0.00195553 0.01043 )  
( 0.000759253 0.00139382 0.0128654 )  
( 0.00178229 0.00320435 0.0119254 )  
( 0.00118599 0.00191606 0.0131174 )  
( 0.000790547 0.00244105 0.0146855 )  
( -0.000933281 0.00447756 0.0123096 )  
( 0.000239497 0.000392868 -0.000158876 )  
( -0.000607805 0.0021242 0.0104769 )  
( 2.27493e-05 0.000132196 -0.000100933 )  
( -0.00171144 0.00338779 0.012782 )  
( -5.0081e-05 0.000154784 -1.56639e-05 )  
( -0.000127854 -0.000452323 0.000132454 )  
( -3.48871e-05 -0.000173765 -0.000314716 )  
( -0.000429886 0.00375868 0.0124917 )  
( -8.07882e-05 4.64008e-05 -6.9892e-05 )  
( 0.00233503 -0.000682278 0.0143251 )  
( -0.000147834 -0.000455768 9.68639e-05 )  
( 0.00071143 0.00104138 0.00381773 )  
( 0.000343186 -0.00017765 -0.000121547 )  
( -0.00177452 -0.000791619 0.00978459 )  
( -0.00160611 -0.000346677 0.00864907 )  
( -0.000413166 -0.000108717 0.00962785 )  
( 0.00316232 0.00308685 0.00939586 )  
( -0.0115455 -0.00602678 0.0172243 )  
( 0.00165606 0.00279417 0.0119257 )  
( 0.000581666 0.00133814 -0.000538859 )  
( -0.00249368 -0.00216059 0.0201227 )  
( -0.00101396 0.00174797 0.0164379 )  
( 0.000151089 -0.000148206 -4.36174e-05 )  
( 0.00229431 0.000465229 0.00380991 )  
( -6.88845e-05 0.000381588 -0.000333601 )  
( 0.00297339 0.00235694 -0.000820683 )  
( -0.000481876 0.00146571 0.000438838 )  
( -0.000212115 0.00327664 0.0141677 )  
( 0.00260477 0.00383267 0.00309896 )  
( -0.00109347 0.000646038 0.01239 )  
( 0.000344629 0.00201289 0.0135772 )  
( -0.000565032 0.000427308 0.0122886 )  
( 0.00121513 0.00131777 0.0106755 )  
( -0.000222395 0.000992859 -5.49878e-06 )  
( -0.000748192 0.00196989 0.0123288 )  
( -0.000346555 -0.000321137 -5.50226e-05 )  
( 0.000249243 -0.000169357 0.000145138 )  
( 0.000914517 0.00353587 0.0103265 )  
( -0.000101673 0.000513472 3.04558e-05 )  
( -0.000634339 0.00192979 0.00787748 )  
( -0.000305388 -0.000341927 0.000146075 )  
( 9.21714e-05 -0.00044993 -0.00025091 )  
( -0.000306499 -0.00172561 0.000179936 )  
( -0.00185547 0.000934625 0.0127756 )  
( 0.000166111 -0.000194593 -6.23723e-06 )  
( -0.00254416 0.00152202 0.0162546 )  
( -0.00224143 0.00214794 0.00976643 )  
( 0.000476529 0.00562948 0.00989134 )  
( 0.00272084 0.00175538 0.00256646 )  
( -0.00131489 0.000524426 0.011217 )  
( -0.0020369 0.00120596 0.0070774 )  
( 0.000372191 0.000208594 -0.000268309 )  
( -0.00298187 0.00178433 0.0137768 )  
( -0.000753526 0.000568883 0.0154233 )  
( -0.00449764 0.00231631 0.0110999 )  
( -0.000929407 0.000680265 0.000984923 )  
( -0.00136004 0.000118314 -0.000111032 )  
( 0.00434721 0.0059082 0.00951269 )  
( -0.000925862 0.00402151 0.00917507 )  
( -2.4475e-05 0.000343672 -0.000245126 )  
( 0.000771843 -0.000268647 0.000101234 )  
( -0.000412872 0.000859975 2.46456e-05 )  
( -0.00146945 0.00329049 0.000264068 )  
( -0.00154767 -0.000257991 0.0126512 )  
( -0.00480981 0.0004459 0.0102488 )  
( 0.000101019 0.000883405 0.000881113 )  
( 0.0051883 0.00725803 0.0124822 )  
( 0.000640299 0.00296779 0.0161902 )  
( -0.00200265 0.00485048 0.0128501 )  
( -0.000900948 0.00530471 0.00436842 )  
( -0.00143743 0.000117581 0.0133132 )  
( -0.00285134 0.00320884 0.0103503 )  
( -0.000119029 -0.000256677 -2.98676e-07 )  
( 0.000302099 -0.00101867 0.0165354 )  
( 0.000936647 0.00047343 -0.00045619 )  
( -0.00184971 -0.000614984 0.0160729 )  
( 0.000237077 0.00258416 0.0157414 )  
( 0.000261745 -9.6697e-05 1.47819e-05 )  
( -0.000535159 0.00264502 0.0103299 )  
( -0.000218902 0.00143489 0.00152774 )  
( -0.000818097 0.000661208 0.0157404 )  
( -0.000602666 0.00126181 0.0143251 )  
( 0.000870507 0.00236694 0.0123403 )  
( 0.000395425 0.000507659 0.0179715 )  
( -9.02635e-05 0.00214043 0.0127596 )  
( -0.000200517 0.00129366 -4.50918e-05 )  
( 0.0031519 0.00299342 0.0111197 )  
( 0.000903999 -5.50842e-05 0.0126592 )  
( -0.00361805 0.00321039 0.015619 )  
( 0.00193165 0.00135187 0.0156832 )  
( 0.00275598 0.00414983 0.0125059 )  
( 0.000753395 0.000572227 0.0105699 )  
( 0.000141831 0.0018764 0.0128655 )  
( 0.000245455 0.00236063 0.0136997 )  
( 0.000156873 -0.000512236 1.65475e-05 )  
( -0.000803089 -0.000523172 0.000143723 )  
( 0.00311044 -0.00324634 0.00264992 )  
( 0.0017446 0.00103063 0.0143879 )  
( 0.00119293 0.00280565 0.0109209 )  
( -0.00162483 0.00328127 0.00952693 )  
( 1.89824e-05 0.000641783 6.92908e-05 )  
( 0.000718071 0.0041056 0.0161571 )  
( -0.00168151 -0.00220723 0.0109813 )  
( 0.000154923 -0.000122801 6.1357e-05 )  
( 0.00161369 0.00154384 0.0107566 )  
( 0.00156746 0.000788982 0.00520602 )  
( 1.63446e-05 2.99852e-05 -1.15426e-05 )  
( 0.00219067 0.00232422 0.0131688 )  
( -0.00113102 0.00196119 0.0129938 )  
( -0.00471086 0.00434519 0.01131 )  
( -0.00356143 0.00464341 0.0147412 )  
( -0.00103279 5.18129e-05 0.00259725 )  
( -0.000238187 0.000194276 0.00240448 )  
( -0.00190902 0.00133749 0.0120306 )  
( -0.00185601 0.0010548 0.01467 )  
( 8.61186e-05 0.000968296 -0.00040065 )  
( 0.000439574 0.000802847 -1.39862e-05 )  
( 0.000505937 3.1518e-05 0.00056262 )  
( -7.66262e-06 -0.00013246 2.63948e-05 )  
( 0.000142778 0.00117772 0.0137292 )  
( 0.00179307 0.000768356 0.0118017 )  
( 0.000403488 0.00151835 0.0122639 )  
( 0.00182418 0.000925717 0.012184 )  
( -0.00135681 -0.00151641 0.0121334 )  
( 0.000284051 -0.00170305 -0.0030078 )  
( 0.00197362 0.00203326 0.0125493 )  
( 0.000325792 -0.000415996 0.0107658 )  
( -0.000161232 -0.000840706 -4.61376e-05 )  
( 0.000857034 0.00149003 0.0113078 )  
( -0.000123804 0.00267973 0.0142553 )  
( -1.68152e-05 2.86688e-05 0.000232477 )  
( 0.00140874 0.00234957 0.0138452 )  
( -0.00111559 -0.00040288 -0.000694572 )  
( -0.000801036 -0.000174502 6.72585e-06 )  
( 0.00212483 0.00476943 0.00726793 )  
( -0.000740348 0.00197762 0.0119266 )  
( 0.000581213 0.000388676 -0.000200944 )  
( 0.000177274 0.000350079 -0.000282663 )  
( -0.00157715 0.00295292 0.00578346 )  
( 0.00140667 2.34485e-05 0.0108022 )  
( -0.00324427 0.0036347 0.00615383 )  
( -0.00163428 0.00210829 0.0148829 )  
( -0.000517111 0.000437143 -9.88957e-05 )  
( 0.000648508 0.000477771 0.00863901 )  
( -0.0016419 0.00106831 0.0158858 )  
( 0.000117144 0.0047368 0.00515972 )  
( -0.00123087 0.00169419 0.0151467 )  
( 0.00153484 0.00161557 0.00706545 )  
( -0.000238384 0.000691041 0.0114575 )  
( 0.000571197 0.00190646 0.010306 )  
( -0.000692877 0.00140065 0.0125658 )  
( 0.000353792 0.000236771 -0.000113588 )  
( -0.000560046 0.000123308 0.0109346 )  
( 0.000375386 -4.57196e-05 0.000352772 )  
( -0.000266187 0.00165639 0.0122964 )  
( -0.000575888 0.000466884 0.00750838 )  
( -6.9016e-06 0.0011616 0.0122209 )  
( 7.72043e-05 4.92223e-05 -2.01343e-05 )  
( 0.000760846 0.00187904 0.0108203 )  
( -0.00296295 0.00584357 0.0140768 )  
( 6.1083e-06 -3.56608e-05 -4.54735e-06 )  
( 9.58619e-05 0.0061681 0.0155803 )  
( -0.00134716 0.000454883 0.0155401 )  
( -7.86266e-05 -0.000258135 8.90194e-06 )  
( -0.000620012 0.00256757 0.0100913 )  
( -0.000419441 -0.000221005 0.000282958 )  
( 0.00113924 0.00142465 0.00795078 )  
( -0.00226101 0.000898119 0.0114873 )  
( -0.000427277 0.00206067 0.0107411 )  
( 0.000284194 0.0035144 0.0112827 )  
( -0.000338286 0.00236646 0.00696454 )  
( -0.000157118 -0.00177964 0.0126941 )  
( 0.00178897 0.00164556 0.0116771 )  
( -8.00194e-05 0.00151251 0.0107854 )  
( 0.00175642 0.00022876 0.014567 )  
( 3.1898e-05 -5.53792e-05 -3.75415e-05 )  
( -1.77858e-05 -6.94663e-05 4.38866e-05 )  
( -0.00226367 0.0029036 0.0122922 )  
( 0.000223256 5.42877e-05 3.59801e-05 )  
( -4.8248e-06 0.00328944 0.00234553 )  
( 0.000671822 0.0025819 0.0133243 )  
( 0.000298631 0.00180613 0.00729183 )  
( -0.00117859 0.000397375 0.0141079 )  
( -0.00143061 0.00226249 0.0117064 )  
( 0.000289986 -0.000770491 -0.00101507 )  
( -0.00162648 0.00232721 0.0144642 )  
( -0.00086399 0.0004229 0.0146015 )  
( 0.00420872 0.0036963 0.0122155 )  
( -0.00089242 0.00326424 0.015491 )  
( 0.000337853 -0.000602585 0.0133678 )  
( 0.00027335 -0.000300333 0.000264515 )  
( 7.05387e-05 0.000159942 0.0183521 )  
( -0.00102577 0.00126694 0.0148539 )  
( 0.00128809 0.000745133 0.0137951 )  
( -0.00137214 0.00251584 0.0126352 )  
( -0.000477442 -0.000312604 1.36175e-05 )  
( -0.00191151 0.00145219 0.0131665 )  
( -0.00386967 0.000817393 0.00805722 )  
( -0.00222123 0.00283091 0.011139 )  
( 0.00136072 -0.000136793 0.0105286 )  
( -0.000680021 -0.000244185 0.0120398 )  
( 0.00264826 0.00209622 0.0145956 )  
( 0.000370292 0.00180517 0.0127136 )  
( -0.000711345 -0.0038947 0.016994 )  
( 0.00240465 0.0024322 0.0062781 )  
( -0.00136101 -0.00153122 0.0106176 )  
( 4.63671e-05 6.02106e-05 7.21089e-05 )  
( -0.00277605 0.00154334 0.00956811 )  
( -0.000709672 -0.00128832 -0.000770145 )  
( -0.000211376 -0.000209581 -0.000311724 )  
( 0.00197309 3.14934e-05 0.000182268 )  
( -0.000506427 0.000301577 0.00498713 )  
( 0.00015369 0.000605635 0.000548459 )  
( 0.000350201 0.00174579 -0.000213792 )  
( 0.000860124 0.000266752 0.00974858 )  
( -0.000129587 0.000318052 0.000200915 )  
( 0.00363256 0.00190266 0.00129007 )  
( -0.00040888 0.000174324 -0.000101869 )  
( 0.000385429 0.0013924 0.0106985 )  
( 0.00148185 0.000994706 0.0120761 )  
( -0.000344949 0.000927935 0.0124486 )  
( -0.000709943 0.000773442 0.0107057 )  
( -7.4358e-05 0.000453359 -5.84752e-05 )  
( -0.00224045 -2.48352e-05 0.0155772 )  
( -0.00124655 0.000474122 0.0132127 )  
( -0.00155254 0.00398749 0.0145569 )  
( -0.000242092 -4.53799e-05 -0.000106423 )  
( 5.29364e-05 -0.000151152 -0.000113671 )  
( -0.00177642 0.00103742 0.00962927 )  
( 0.00283008 -0.00118044 -0.00182189 )  
( 0.00122681 0.000847488 -2.85219e-06 )  
( 0.000717558 0.00664717 0.00671853 )  
( -0.000170595 0.000216986 -0.000995447 )  
( -2.93094e-05 4.06944e-05 -8.97754e-06 )  
( -0.00395648 0.00450168 0.00924659 )  
( 0.000132693 -0.000104884 -6.32703e-05 )  
( -0.000565521 0.000911822 -0.000216183 )  
( -0.000908654 0.000913403 0.0133853 )  
( 0.000275512 0.000500729 0.00734389 )  
( 2.80597e-05 -0.000206013 -1.57546e-05 )  
( 0.000521842 0.00322331 0.0118997 )  
( 0.00149228 0.000279602 0.0168013 )  
( -0.00151094 0.0023405 0.0114033 )  
( -0.000562556 4.07634e-05 -0.000535075 )  
( -0.00030371 -0.000181584 -3.9713e-05 )  
( -0.000379337 -0.00106772 -1.91905e-05 )  
( 0.000199927 5.18571e-05 7.91674e-05 )  
( 0.00317343 0.00304497 0.0151848 )  
( -0.000512526 0.000930309 0.0109472 )  
( 0.00236749 -0.00107778 0.016211 )  
( 0.00075289 0.000564626 -0.00147953 )  
( 0.000161482 -0.0002562 -4.16057e-05 )  
( -0.000326876 0.00292718 0.012236 )  
( -0.00130269 7.79866e-05 0.0103325 )  
( -0.000189064 -0.000184605 0.000615198 )  
( -0.00182345 0.00265115 0.012699 )  
( -0.00242037 -0.00359505 0.0131082 )  
( 0.000216294 0.000457758 0.0130327 )  
( 0.00289007 0.00330817 0.0128294 )  
( -0.000873578 0.00118146 0.0100865 )  
( -0.00200296 0.00157129 0.0117298 )  
( 0.00210499 -0.00113688 -0.00149157 )  
( 0.00252544 -0.00112892 -0.000903059 )  
( 0.000345722 0.000542922 0.0157838 )  
( 0.00055253 0.00699644 0.00660681 )  
( 0.00146278 0.00105523 0.0126523 )  
( 0.00183612 0.00109271 0.0119826 )  
( 0.00320909 0.00275661 0.0114318 )  
( 8.87379e-05 -0.000189243 2.30248e-05 )  
( -0.000826051 0.00188239 0.014631 )  
( -0.00285677 0.000352912 0.00599891 )  
( -0.00026962 0.000112567 0.000318643 )  
( -0.001206 -0.000411959 0.0170073 )  
( 0.00133514 0.00172863 0.00168675 )  
( 0.000402672 0.00322409 0.00835043 )  
( 0.000625437 0.00134863 1.5473e-05 )  
( -0.000938421 -6.2377e-05 0.000265018 )  
( 0.0018 0.00281109 0.0153855 )  
( 0.000941265 0.00143416 -0.00212593 )  
( 0.00190879 0.00267648 0.00681975 )  
( 0.000503507 0.000807231 -0.000461921 )  
( 0.000327601 0.00165194 0.0138416 )  
( 0.000545236 0.000802758 0.000910076 )  
( 0.00849538 0.00269259 0.0105265 )  
( 0.000566298 -1.05813e-05 -8.60291e-05 )  
( -0.00153771 0.00310595 0.0134966 )  
( 0.000667543 0.000926051 0.000469174 )  
( -0.000145649 -0.000597593 0.0162718 )  
( -0.000168961 0.00209307 0.010731 )  
( 0.000132383 -1.88478e-05 -0.000244951 )  
( 6.41566e-05 0.000520241 0.0140321 )  
( 0.000490052 0.00132959 0.0145362 )  
( -6.91074e-05 5.92979e-05 -2.78491e-05 )  
( -2.85157e-05 0.00246962 0.00798888 )  
( -0.000291219 0.00371961 0.0134029 )  
( -0.000188242 0.000150328 -0.000629363 )  
( -0.000567638 0.0011353 0.0112891 )  
( -0.000278681 0.000472422 0.0113106 )  
( 0.000185726 -2.20968e-05 -8.17699e-05 )  
( -0.00156082 0.00131729 -0.000110537 )  
( -0.000417793 0.0010907 0.0171464 )  
( -0.00109052 0.000183563 0.0107563 )  
( -0.00132515 0.0021696 0.0121296 )  
( 0.00148584 0.00210292 0.00188387 )  
( -0.00223348 0.0023267 0.00979437 )  
( 0.00467468 0.000399525 0.0188276 )  
( 0.000309535 0.000639844 0.000796054 )  
( -0.00247295 0.00342836 0.0129118 )  
( 0.00120528 0.00137409 0.00152947 )  
( -0.000283551 0.000345327 -0.000284832 )  
( -0.00032332 -4.24684e-05 0.0164579 )  
( -0.00305852 0.00571558 0.0124495 )  
( 0.00132094 0.00491075 0.00911895 )  
( 0.00131233 0.00617459 0.00827143 )  
( 0.00121385 0.00344761 -0.00120346 )  
( -0.00262433 -0.000480662 0.00221206 )  
( 0.00297057 0.00274343 0.0114127 )  
( -0.002049 0.00415668 0.0110552 )  
( 0.000328801 -3.01476e-05 -4.12313e-05 )  
( -0.000173966 -0.000462017 0.000164736 )  
( -0.00169718 0.00295097 0.00962843 )  
( 0.000296777 0.0034976 0.0148567 )  
( 0.000324693 -0.00113345 0.0133488 )  
( 3.79291e-05 0.000206926 0.000152342 )  
( -0.000880275 0.000192967 0.0114836 )  
( 0.000891516 -5.37614e-06 -0.000823308 )  
( -0.000349663 -0.000539092 -0.000361926 )  
( 0.000102363 -0.000407498 0.000321701 )  
( -0.00130153 0.000189286 0.0160182 )  
( 0.000733379 0.0008968 0.00957304 )  
( 0.00129784 0.00231838 0.00785086 )  
( -0.00110989 0.00207452 0.0116589 )  
( 0.000259944 0.00207068 0.0143938 )  
( -0.00327971 -0.00187888 0.0183849 )  
( -0.000775612 -0.000390401 0.0173632 )  
( -0.000280117 0.00227922 0.0100693 )  
( 2.12816e-05 7.31538e-06 -1.36812e-05 )  
( -0.00155986 0.00377073 0.00993715 )  
( -0.000547853 0.000936916 9.71906e-05 )  
( 0.000437491 0.000505395 0.01144 )  
( 0.000405249 0.00202392 0.0110049 )  
( 0.000223594 -0.000251021 -2.36095e-05 )  
( 0.000429476 -0.000567095 -0.000759571 )  
( -2.21115e-05 0.00557498 0.00748855 )  
( 0.000687255 0.00402249 0.0138649 )  
( 0.000110498 0.00249808 0.0150709 )  
( 0.00158391 0.00510447 0.00692031 )  
( -0.00120112 0.00151339 0.0131286 )  
( -0.000236006 -0.00113461 0.0121905 )  
( 0.000203728 0.000279847 -9.65018e-05 )  
( 0.000143614 0.0028102 0.00633959 )  
( -7.22764e-05 -0.000375294 -7.32834e-05 )  
( 0.00119917 0.0012588 0.012224 )  
( 0.000579112 0.000134457 0.0150928 )  
( -0.000779261 0.00334284 0.010874 )  
( -0.000464156 0.00118574 0.0106379 )  
( 0.00175362 0.00348154 0.0104282 )  
( 7.25004e-05 0.00375044 0.0120257 )  
( -0.00103141 -0.000748789 0.0102782 )  
( 0.00138082 0.00113845 0.00514789 )  
( 0.0003675 -0.000308457 5.10639e-05 )  
( -0.00263851 0.00407817 0.0126491 )  
( 0.00593311 0.001963 0.0026444 )  
( -0.000337333 0.0010316 0.0101058 )  
( -0.000172769 0.00165275 0.00955248 )  
( 5.50281e-06 0.000277961 -0.00115586 )  
( -7.5209e-05 0.00235536 0.0126261 )  
( -6.42784e-05 0.00266805 0.0108169 )  
( -0.00222793 0.00233171 -0.000346365 )  
( -0.00127731 0.000388349 -0.00149863 )  
( -0.00264543 -0.000801808 0.00258712 )  
( 0.000138197 0.000244684 0.0117212 )  
( -2.33633e-05 0.000769072 0.0099381 )  
( -2.61512e-05 0.000488007 0.00121523 )  
( -0.000368536 8.25306e-06 -0.000112339 )  
( 0.000975927 0.00266575 0.0139365 )  
( -0.000247868 -0.00040164 -6.85178e-06 )  
( 0.000791606 -0.00187594 0.0116511 )  
( -0.00133469 0.00288242 0.013907 )  
( -0.00110279 0.00225747 0.016314 )  
( -0.00128322 0.00274919 0.0119334 )  
( 0.000471088 -9.79845e-05 5.86938e-05 )  
( 0.00135866 0.00275376 0.0138035 )  
( 0.000334007 0.0009583 9.77793e-05 )  
( 0.000303659 0.000757999 3.53082e-05 )  
( -0.00253297 0.00132021 0.0120511 )  
( 0.000877485 -0.00176315 0.000406945 )  
( -0.000203327 0.00235776 0.0111143 )  
( -0.00133721 0.00140585 -0.000229819 )  
( 6.71167e-05 5.06243e-05 -7.56383e-05 )  
( 0.00395376 0.00196113 0.0134515 )  
( 0.000123809 -0.00154058 0.0129669 )  
( -0.000401159 0.00220462 0.0151998 )  
( -5.59265e-05 -3.95897e-05 0.000685156 )  
( 0.000153737 0.000184255 -1.40659e-05 )  
( -0.000268838 0.00183838 0.0189388 )  
( -0.000237333 0.00164247 0.0115735 )  
( -0.000431598 0.00192194 0.0128762 )  
( -9.65896e-08 0.000884805 0.0112238 )  
( 0.000154365 0.00336964 0.0142791 )  
( -0.00134486 0.00265779 0.0253043 )  
( -0.000405625 -0.00084178 0.0110527 )  
( 0.000382946 0.00117346 0.0150381 )  
( -0.000201974 0.00298361 0.0106316 )  
( 0.000160908 -8.16949e-05 -2.11099e-05 )  
( -0.00108548 0.00202461 0.0130641 )  
( 0.000660567 0.00167831 0.0168069 )  
( -0.000219056 0.00445966 0.00795914 )  
( 0.000217524 0.00194359 0.0132531 )  
( -0.00139839 0.00293413 0.0148631 )  
( 0.00310258 0.00228378 0.012522 )  
( -0.00369804 0.000968239 0.0126931 )  
( 0.000506276 0.00146894 0.00759227 )  
( -1.39548e-05 -0.000483662 -0.000333375 )  
( 0.00234828 0.00275893 0.0149882 )  
( 0.000220988 0.000722058 -0.000993929 )  
( 0.000116335 -0.000157001 -8.15301e-06 )  
( 0.0014866 0.00400166 0.0111238 )  
( -2.07208e-05 6.14354e-05 6.91604e-06 )  
( 0.00420517 0.00179089 -0.00450136 )  
( 0.000903495 0.0027717 0.015719 )  
( -0.000805598 0.000458438 0.0105318 )  
( 8.1019e-05 -0.000224229 2.1613e-05 )  
( 0.000310067 0.000265501 -0.00110627 )  
( 0.00121147 0.00103917 0.0116611 )  
( 0.00246226 4.5273e-05 0.0133814 )  
( 0.00111943 0.00279301 0.0100883 )  
( 0.000637199 0.00160087 0.015828 )  
( -0.000433807 0.00563216 0.0103633 )  
( -0.00161948 -0.00106298 0.0170398 )  
( 0.00204528 -0.0003688 0.0198367 )  
( 0.00255728 0.00253899 -0.000735454 )  
( -0.000837815 0.00131268 -0.00125701 )  
( 0.000587466 0.00120114 0.0132978 )  
( 0.00123677 0.00890518 0.0138575 )  
( 2.58027e-05 0.00203973 -0.00167956 )  
( -0.00292089 0.000971471 0.0165086 )  
( 0.00150515 0.00105894 0.0122976 )  
( -0.00228554 4.75402e-05 0.0116043 )  
( 0.000212318 0.00036054 -3.85001e-05 )  
( -0.000170463 0.000530764 0.0114056 )  
( -0.000760188 0.000947373 0.0135394 )  
( 0.000222129 0.00137024 0.000163595 )  
( 6.25083e-05 -2.38614e-05 4.68758e-05 )  
( 0.000948506 0.00237047 0.0151467 )  
( 0.000261484 0.000173007 0.000164469 )  
( -0.0018675 0.00229152 0.00960706 )  
( -0.000937779 -0.000150966 0.0164713 )  
( -0.000182567 -0.00050244 7.15994e-05 )  
( -9.18516e-06 0.00018743 -0.000833705 )  
( 0.00143567 0.00419533 0.00716223 )  
( -0.000367582 -0.000586092 -0.000590398 )  
( 0.00090045 0.00120184 0.0102506 )  
( -0.00025425 0.00244717 0.0203767 )  
( 0.00190245 0.0029857 0.00157495 )  
( -0.000291312 0.00364518 0.0125833 )  
( 0.000850979 -0.000150649 -0.000377422 )  
( -0.000139333 0.000296501 -1.60983e-06 )  
( -0.00185304 0.00124698 0.0120619 )  
( 0.00346659 0.0017052 0.0148673 )  
( -0.0011913 0.000406994 -0.000334244 )  
( 0.000148399 -0.000804397 -0.0030376 )  
( -0.000710853 0.00216921 0.0204914 )  
( 0.000148478 -0.000668866 -0.000441017 )  
( -0.000604077 -0.00081668 0.0186503 )  
( -0.00204316 -8.65407e-05 0.0080064 )  
( -0.00375211 -0.000157617 7.62369e-07 )  
( -0.000266305 -0.000594413 0.0137282 )  
( 0.000204449 -0.000161675 -0.000457056 )  
( 0.000957839 0.000757817 0.0147332 )  
( -0.00244658 0.00168479 0.00576765 )  
( -0.000244185 -1.63353e-05 0.0109046 )  
( 0.00153517 0.00217878 0.0120194 )  
( -0.0023807 0.00220189 0.0145268 )  
( -0.00152365 0.00144911 0.0144218 )  
( -1.24696e-05 -0.00030306 0.000490926 )  
( -2.69127e-05 -0.000129567 -0.000150456 )  
( 0.000307208 0.00135197 0.00532357 )  
( -0.00115417 0.00320875 0.00791696 )  
( 0.00113652 0.000451893 0.0141358 )  
( -0.000318729 -0.00079313 0.0114836 )  
( -0.00157533 0.00185679 0.0118303 )  
( -0.000476985 0.000273113 -0.000120097 )  
( 2.20778e-05 0.00228026 0.0139011 )  
( -0.00180408 0.00381709 0.012634 )  
( 0.000248784 -0.000303924 -0.00051449 )  
( -0.00147312 0.000266717 0.0156746 )  
( -0.000655738 0.00218892 0.010207 )  
( 0.000354455 0.000734715 0.00397115 )  
( 0.00153552 0.00173273 0.0125514 )  
( 0.000720851 -0.000177828 -0.000789745 )  
( -0.00026775 0.000595258 0.00014188 )  
( 0.000284432 0.00203783 4.36485e-05 )  
( 0.000372985 0.000363405 -0.000633862 )  
( 0.000168281 0.000537294 0.00102439 )  
( 0.000734815 0.00177241 0.0120547 )  
( -0.000836875 0.000449229 0.0166706 )  
( 0.000535813 0.000571223 0.0146481 )  
( -0.000537077 0.000117408 -0.000212336 )  
( 8.67156e-05 0.000130233 1.85491e-06 )  
( -9.74762e-05 0.00111734 0.0107628 )  
( -0.000720637 0.000200847 0.017921 )  
( 0.000202715 0.000866326 -0.000342689 )  
( 0.000687145 0.000291323 0.0141793 )  
( 3.50037e-05 0.000389507 8.03013e-05 )  
( 9.70518e-05 0.00201481 0.0123266 )  
( -0.000343764 0.000773127 0.000872053 )  
( 0.00252568 0.00183572 0.0124114 )  
( -0.000174998 0.00187221 0.00649085 )  
( -0.00115372 0.000894367 0.000222951 )  
( 3.74386e-05 -0.000481002 0.000220929 )  
( -0.000680704 -0.000203019 -0.000414418 )  
( 0.00280456 0.00318296 0.01089 )  
( 0.000639089 0.00125691 0.000254489 )  
( -9.81657e-05 2.56265e-05 7.73178e-05 )  
( 0.000686409 -0.00012191 0.0164154 )  
( 0.00120561 0.00288518 0.015167 )  
( 8.10008e-05 8.97122e-05 -5.20377e-05 )  
( -0.00431554 -0.00164514 0.0135419 )  
( -0.00198644 0.000195944 0.0102515 )  
( -0.00250375 -0.00105245 0.0141141 )  
( 0.000667622 0.000235595 0.0174686 )  
( 0.000852381 0.00123232 0.0129295 )  
( -0.000358178 0.000923055 0.00648655 )  
( 0.000178347 -6.98069e-05 6.41295e-05 )  
( 0.00113442 0.00426549 0.0118988 )  
( 0.00300029 0.00408966 0.0140686 )  
( -0.000373974 0.00261458 0.00177335 )  
( 0.000384152 0.00154817 0.00605785 )  
( 0.000684084 0.00281815 0.013118 )  
( -0.00366933 -0.00262665 0.00615228 )  
( 0.00161075 0.00122982 -0.00326942 )  
( -0.00166122 -0.000790777 0.0136687 )  
( 0.00239699 0.000271209 0.0127792 )  
( -0.000117919 2.5608e-05 7.19106e-06 )  
( -0.0013437 -0.00121018 0.00795771 )  
( -0.00472271 0.0020401 0.0171293 )  
( 0.000300081 0.00204786 0.0143672 )  
( -0.00244984 0.000556659 0.00850554 )  
( 0.00116068 0.0043963 0.0101304 )  
( 0.00207865 0.00144891 0.0115862 )  
( -0.000454955 0.00488406 0.00908995 )  
( 0.00154573 0.000725296 0.0138004 )  
( 0.00447799 0.000276621 0.00550376 )  
( 0.00351496 0.00449423 0.0152346 )  
( 0.00166084 -0.000197754 0.0135891 )  
( 0.00179747 0.000516152 0.0121376 )  
( -0.000270316 0.000686501 0.000177865 )  
( 5.91926e-05 -0.000132608 -1.01986e-05 )  
( 0.000233464 -0.000135802 -0.000596332 )  
( -0.00118673 0.000898802 0.00968336 )  
( 0.000503593 0.00241064 0.00771611 )  
( -0.000831161 0.00549858 0.00732069 )  
( 0.0001384 -0.000401717 1.15067e-05 )  
( -0.00210043 0.00068658 0.0118608 )  
( -0.000439948 0.00173354 0.00348693 )  
( 0.00111529 0.00441492 0.012744 )  
( -0.000125362 0.000245824 -0.000166196 )  
( -0.00216122 -0.000639657 0.0125149 )  
( 0.00246341 0.000431426 0.0116004 )  
( -0.000906815 -0.000299782 1.52405e-05 )  
( 0.000559306 0.00219469 0.00956232 )  
( 0.00016171 0.00118859 0.00951395 )  
( 0.00103309 0.00115713 -0.000728332 )  
( -0.00316945 -0.000419247 0.00970169 )  
( 0.000705192 0.00266207 0.0118077 )  
( -0.000593508 0.000296881 -0.000141105 )  
( -0.000437776 -0.00210481 0.0105135 )  
( -0.00375924 0.00127569 0.0158924 )  
( 1.44856e-05 0.00115418 0.0159064 )  
( -1.85693e-05 1.26422e-05 -2.483e-05 )  
( 0.0005701 0.00119472 0.0080694 )  
( 0.000355534 0.000672952 0.0135815 )  
( 0.000116451 -0.000136637 4.56674e-07 )  
( 0.000599704 0.00347352 0.0118879 )  
( 0.00142213 0.00355569 0.0121247 )  
( 0.00154933 0.00211425 0.0157687 )  
( 0.000279806 0.00234806 0.00989708 )  
( 3.53033e-05 0.00156446 0.0129432 )  
( -0.00140126 0.000682901 0.0116145 )  
( -0.000693212 2.9156e-05 0.0135594 )  
( -0.00149384 -0.00217335 -0.00125632 )  
( -0.00462151 -0.000271376 0.00843611 )  
( -8.81171e-05 -0.000309625 8.29504e-05 )  
( -0.00198009 0.00540652 0.0130962 )  
( 0.000406913 0.00440128 0.00681731 )  
( 0.000377587 -8.72055e-05 0.000997746 )  
( 0.00221128 0.00204885 0.00602301 )  
( 0.00103676 0.00152654 0.0131367 )  
( -8.94219e-05 -0.000163065 1.70552e-05 )  
( -0.000648532 0.00017344 0.000678851 )  
( 0.000271917 0.000828405 0.0140637 )  
( -0.00037621 0.00210321 0.00850067 )  
( -0.000394549 0.000762022 9.78372e-07 )  
( 0.00035886 0.000140117 0.000209485 )  
( 0.00265287 0.00603439 0.00949118 )  
( -0.00235716 0.000214897 0.0157593 )  
( -0.00057445 0.000620124 0.015275 )  
( -0.000240641 0.00223227 0.0062136 )  
( 0.000784742 0.00303533 0.0116251 )  
( -0.000562113 -0.000525145 0.0131386 )  
( 0.00103872 -0.000313488 -0.000464963 )  
( 0.000193793 -0.000473861 -0.000210016 )  
( -0.00257053 0.00164149 0.00978068 )  
( 0.00251109 0.00258222 0.00699492 )  
( 5.92027e-05 -0.000362867 5.70689e-06 )  
( -0.00115142 0.000152636 0.000107177 )  
( 0.00113261 0.00136313 0.0125786 )  
( -0.00125379 0.0015574 0.0130012 )  
( 0.0025715 0.000759374 -0.000993738 )  
( 0.000476096 -0.000274819 0.000351377 )  
( -0.00106938 0.00247512 0.0104647 )  
( -0.00117056 9.77448e-05 0.0108146 )  
( 1.83295e-05 -0.000256852 -8.79264e-06 )  
( 0.000397355 0.000325451 0.0106291 )  
( 2.15817e-05 -2.96424e-05 -0.000454978 )  
( -6.24396e-05 2.57348e-05 0.0160433 )  
( 0.000109744 -7.09849e-05 0.000132423 )  
( 0.000242476 -0.000536476 0.000243941 )  
( -0.000404701 0.000205066 -0.000424859 )  
( -0.000919101 1.40264e-05 0.00991178 )  
( -0.000943775 0.00197365 0.0155327 )  
( -0.000338697 0.00117514 0.0180647 )  
( -0.000849936 0.00492423 0.00768245 )  
( -0.0015596 0.000213576 -5.97557e-05 )  
( 0.00110329 0.00226093 0.0126899 )  
( 0.00148445 -0.000890825 0.0147749 )  
( -0.00203701 0.0032813 0.0137518 )  
( -0.000784821 -0.00134474 0.0132316 )  
( 0.00134662 1.38028e-06 0.00974609 )  
( 9.00512e-05 -0.00035696 -2.25255e-06 )  
( 0.00139842 0.00239119 0.0162534 )  
( 0.00129482 0.00229475 0.0120455 )  
( 3.44839e-05 0.00301362 0.00922917 )  
( -0.00206909 -0.00189745 0.0111498 )  
( -0.00135978 -0.00190933 0.0133154 )  
( 0.00057939 0.00218794 0.0128302 )  
( 0.000523548 0.000377386 -0.000288364 )  
( -0.000281345 0.00104379 0.0174324 )  
( -0.00128512 0.00232548 0.0156267 )  
( -0.000700995 0.00100159 0.0103686 )  
( 0.0017312 0.00101235 0.0150541 )  
( -0.00166141 0.000983401 0.0132443 )  
( -0.000152293 -0.00020768 0.000270892 )  
( 0.0021872 0.000935572 0.0123794 )  
( 0.00146473 0.00236766 0.0153898 )  
( -0.000308415 -5.25262e-05 0.0145728 )  
( 0.000890584 0.0016592 0.0138427 )  
( 0.000323707 0.0018252 0.0120145 )  
( -0.000532639 0.000968214 0.010998 )  
( -0.00479666 0.00134603 0.00440159 )  
( 0.000797266 -0.00129134 -0.000452033 )  
( 2.45481e-05 -0.000159113 0.000107751 )  
( -4.56919e-05 0.000337079 -1.76112e-05 )  
( 0.000518207 -0.000161614 0.000108922 )  
( 0.000369341 0.000149908 -5.33437e-05 )  
( -0.00263518 0.00253306 -0.00103022 )  
( 0.00406336 0.00120981 0.0113234 )  
( -0.000136417 0.00144925 0.0104536 )  
( 0.000844341 0.00126515 -0.00207115 )  
( 0.000616474 0.00284219 -0.00128879 )  
( -0.000157281 0.00184426 0.0152096 )  
( 4.38897e-05 -0.000236078 -3.92884e-05 )  
( -0.00189633 -1.38047e-05 0.0110908 )  
( 0.000503334 0.00334754 0.0149196 )  
( -0.00129797 0.00360705 0.0136495 )  
( -0.000349889 0.000343359 0.0165127 )  
( 0.00147914 0.0010454 0.0155747 )  
( 0.000679099 0.00173349 0.0173575 )  
( -7.65116e-05 0.00213507 0.0102725 )  
( -0.000621698 0.000237459 0.0126186 )  
( 0.000616973 0.00252872 0.0138952 )  
( -0.00242225 0.00125719 0.01405 )  
( 0.00181198 0.000317157 0.0155648 )  
( -0.000147236 -0.000428595 -3.81476e-05 )  
( -0.000176902 2.0944e-05 0.000432525 )  
( 0.000246118 0.000480495 -0.000303866 )  
( -0.000876604 -0.00153653 -0.00088817 )  
( -8.70622e-05 -0.000338343 -6.82074e-05 )  
( 7.65915e-05 0.002125 0.00746586 )  
( 0.000415809 0.00148598 0.0125667 )  
( -0.000291578 0.000219833 0.000148527 )  
( -0.000963746 0.000947029 0.0173827 )  
( 0.00134147 0.00403595 0.0153058 )  
( 0.000341588 0.00153148 0.0134184 )  
( -4.51854e-05 0.000137096 0.0125943 )  
( -0.00175844 0.00177224 0.0109708 )  
( -0.00137111 0.00173694 0.0144512 )  
( -7.97668e-05 0.00109252 0.0109202 )  
( 0.00017469 4.19335e-05 -3.9858e-06 )  
( -1.00977e-05 -0.000222902 -8.44472e-05 )  
( -0.0016642 0.00183561 0.0105442 )  
( 0.00145048 -9.81989e-05 0.0139113 )  
( 0.00428942 0.00324528 0.00886592 )  
( 0.000968299 0.000247462 0.0145569 )  
( 0.0021398 0.00365429 0.00709451 )  
( 5.24864e-05 -0.000202239 -4.68454e-06 )  
( 4.70574e-05 0.00250508 0.0082953 )  
( -0.00101678 0.00102416 0.0153243 )  
( 0.00044711 0.000849937 -1.21996e-06 )  
( -0.004501 -0.00690882 0.0214766 )  
( -0.000157061 -5.24606e-05 -0.000336215 )  
( 0.00254653 -0.00163501 0.00979754 )  
( -5.2254e-05 -7.283e-05 1.56159e-05 )  
( 0.000348974 -1.5478e-05 6.96621e-05 )  
( 0.0037551 -0.00175506 0.0106171 )  
( 0.000219608 0.000490806 0.0168231 )  
( 0.000364648 0.00281461 0.00179842 )  
( 4.31139e-05 0.000506178 -2.49793e-05 )  
( 2.00472e-05 -0.00056559 0.000360625 )  
( -0.00199805 -0.000223154 0.0153282 )  
( -6.83402e-05 -0.000179401 -7.32895e-05 )  
( -0.00153566 0.00117235 0.000374976 )  
( -0.000960102 0.00190302 0.0108333 )  
( -0.000295005 0.00309424 0.0149131 )  
( 0.000406805 -0.000476634 -0.000909608 )  
( 0.00156044 0.000280929 0.0147559 )  
( -0.00228989 0.00305624 0.0118851 )  