/*--------------------------------*- C++ -*----------------------------------*\
| =========                 |                                                 |
| \\      /  F ield         | OpenFOAM: The Open Source CFD Toolbox           |
|  \\    /   O peration     | Version:  2506                                  |
|   \\  /    A nd           | Website:  www.openfoam.com                      |
|    \\/     M anipulation  |                                                 |
\*---------------------------------------------------------------------------*/
FoamFile
{
    version     2.0;
    format      ascii;
    arch        "LSB;label=32;scalar=64";
    class       volScalarField;
    location    "0.04";
    object      Ksl;
}
// * * * * * * * * * * * * * * * * * * * * * * * * * * * * * * * * * * * * * //

dimensions      [1 -3 -1 0 0 0 0];

internalField   nonuniform List<scalar> 
4608
(
176064
211288
199147
140151
211113
125192
232547
193474
189243
134385
164236
198262
120505
235144
184857
207633
213175
260140
247149
201755
178141
171541
226412
130517
244968
84812.5
197921
104522
206714
251465
269458
543522
157350
263536
332049
167710
188669
154942
118193
154778
228713
186461
182521
287306
149340
242614
211772
179705
125911
231811
161673
308282
125492
218040
200672
184553
252926
234909
242682
175156
240285
246595
198096
107229
243834
151496
306171
204928
525291
181933
250828
255638
201814
275500
196148
261284
298391
201766
215728
276273
187227
205283
372517
305023
360086
298027
256210
246073
201989
240808
263234
208531
253472
405298
163929
197220
310656
314608
165321
184285
193943
199947
249609
320481
312221
280862
207661
234839
340392
229949
234529
228588
255652
210890
195480
242610
284835
276321
174906
266751
280088
245238
172884
389885
202417
118218
204793
403942
206948
209105
263788
252241
171747
221198
252592
231122
260486
299438
250705
292006
257949
247115
255742
263682
271585
144282
283679
143066
291404
181685
222043
227612
202153
345096
311255
144875
225344
300238
250588
244573
491202
154896
256057
254372
279039
313098
186368
142137
263469
272340
275843
456048
145835
265572
214298
227497
210427
219448
325026
251425
419678
224938
240117
235056
205074
210775
229909
231951
218522
188204
280323
198730
128741
194429
168916
174199
305775
212015
298691
222611
300749
230570
196731
233924
188560
191609
246596
188808
179520
299545
282248
240616
264298
226985
396431
239159
233071
279526
328060
485438
205867
183533
202772
301405
153026
224106
168745
186581
243038
312139
275263
206197
203647
257862
220200
335915
184704
227782
410368
284644
286257
274445
249377
176889
327445
212210
276691
295551
186537
178329
285138
549368
192668
219346
215079
211368
200237
311443
251848
176746
284472
276438
208431
253986
161440
248698
157274
122582
488098
308515
224378
202763
215581
236454
297751
271974
194221
208431
158828
195087
260774
260499
442645
235879
358528
154666
295644
137688
301933
203661
156553
306321
141981
486474
164977
295626
230663
329392
228602
223015
224342
382809
211329
234205
111670
335409
183872
247118
252185
251002
326183
246548
207494
430745
274062
226353
293615
245450
157994
277492
227954
242859
210593
278183
197637
232607
291727
254331
180223
258616
179476
293264
198280
283403
260774
232691
209367
249216
272569
190834
210764
164321
273575
347568
411136
177438
194498
188760
225873
231725
330742
198118
159581
361462
329285
222133
241097
119210
284739
337380
238880
243948
324877
356780
175512
226961
226784
168995
110735
312040
203252
215071
248628
214886
220136
195491
240705
204140
289114
557115
96991.9
211219
260608
319919
22783.6
38312.1
36027.9
43018.7
43341
52353.2
81226.5
37423
53485.8
29347.5
108411
61314.7
157923
127816
93030.2
61019.3
38176.1
60771.3
68790.4
83201
78492.6
69164.9
153235
83219.8
24847.3
18057.5
58546.8
75814.7
158944
92845.6
125355
30682.7
40110.5
65242.9
40057
71599.2
39781
85559.6
45356.3
20432.3
49636.7
44270.1
59968.8
66138.7
72691.7
85624.1
38924.1
15342.2
12138.9
25698.4
95642.8
44342.3
38401.7
39866.7
33838.1
26217.1
39486
38632.8
80801.7
22574.8
61502.2
31435.5
21077.9
35724.7
0
0
0
0
0
0
0
0
0
0
0
0
0
0
0
0
0
0
0
0
0
0
0
0
0
0
0
0
0
411.193
398.938
0
0
0
0
0
0
0
0
0
0
0
0
0
0
0
0
0
0
0
0
0
0
0
0
0
0
0
0
0
0
0
0
0
0
0
0
0
0
0
0
0
0
0
0
0
0
0
0
0
0
0
0
0
0
0
0
0
0
0
0
0
0
0
0
0
0
0
0
0
0
0
0
0
0
0
0
0
0
0
0
0
0
0
0
0
0
0
0
0
0
0
0
0
0
0
0
0
0
0
0
0
0
0
0
0
0
0
0
0
0
0
0
0
0
0
0
0
0
0
0
0
0
0
0
0
0
0
0
0
0
0
0
0
0
0
0
0
0
0
0
0
0
0
0
0
0
0
0
0
0
0
0
0
0
0
0
0
0
0
0
0
0
0
0
0
0
0
0
0
0
0
0
0
0
0
0
0
0
0
0
0
0
0
0
0
0
0
0
0
0
0
0
0
0
0
0
0
0
0
0
0
0
0
0
0
0
0
0
0
0
0
0
0
0
0
0
0
0
0
0
0
0
0
0
0
0
0
0
0
0
0
0
0
0
0
0
0
0
0
0
0
0
0
0
0
0
0
0
0
0
0
0
0
0
0
0
0
0
0
0
0
0
0
0
0
0
0
0
0
0
0
0
0
0
0
0
0
0
0
0
0
0
0
0
0
0
0
0
0
0
0
0
0
0
0
0
0
0
0
0
0
0
0
0
0
0
0
0
0
0
0
0
0
0
0
0
0
0
0
0
0
0
0
0
0
0
0
0
0
0
0
0
0
0
0
0
0
0
0
0
0
0
0
0
0
0
0
0
0
0
0
0
0
0
0
0
0
0
0
0
0
0
0
0
0
0
0
0
0
0
0
0
0
0
0
0
0
0
0
0
0
0
0
0
0
0
0
0
0
0
0
0
0
0
0
0
0
0
0
0
0
0
0
0
0
0
0
0
0
0
0
0
0
0
0
0
0
0
0
0
0
0
0
0
0
0
0
0
0
0
0
0
0
0
0
0
0
0
0
0
0
0
0
0
0
0
0
0
0
0
0
0
0
0
0
0
0
0
0
0
0
0
0
0
0
0
0
0
0
0
0
0
0
0
0
0
0
0
0
0
0
0
0
0
0
0
0
0
0
0
0
0
0
0
0
0
0
0
0
0
0
0
0
0
0
0
0
0
0
0
0
0
0
0
0
0
0
0
0
0
0
0
0
0
0
0
0
0
0
0
0
0
0
0
0
0
0
0
0
0
0
0
0
0
0
0
0
0
0
0
0
0
0
0
0
0
0
0
0
0
0
0
0
0
0
0
0
0
0
0
0
0
0
0
0
0
0
0
0
0
0
0
0
0
0
0
0
0
0
0
0
0
0
0
0
0
0
0
0
0
0
0
0
0
0
0
0
0
0
0
0
0
0
0
0
0
0
0
0
0
0
0
0
0
0
0
0
0
0
0
0
0
0
0
0
0
0
0
0
0
0
0
0
0
0
0
0
0
0
0
0
0
0
0
0
0
0
0
0
0
0
0
0
0
0
0
0
0
0
0
0
0
0
0
0
0
0
0
0
0
0
0
0
0
0
0
0
0
0
0
0
0
0
0
0
0
0
0
0
0
0
0
0
0
0
0
0
0
0
0
0
0
0
0
0
0
0
0
0
0
0
0
0
0
0
0
0
0
0
0
0
0
0
0
0
0
0
0
0
0
0
0
0
0
0
0
0
0
0
0
0
0
0
0
0
0
0
0
0
0
0
0
0
0
0
0
0
0
0
0
0
0
0
0
0
0
0
0
0
0
0
0
0
0
0
0
0
0
0
0
0
0
0
0
0
0
0
0
0
0
0
0
0
0
0
0
0
0
0
0
0
0
0
0
0
0
0
0
0
0
0
0
0
0
0
0
0
0
0
0
0
0
0
0
0
0
0
0
0
0
0
0
0
0
0
0
0
0
0
0
0
0
0
0
0
0
0
0
0
0
0
0
0
0
0
0
0
0
0
0
0
0
0
0
0
0
0
0
0
0
0
0
0
0
0
0
0
0
0
0
0
0
0
0
0
0
0
0
0
0
0
0
0
0
0
0
0
0
0
0
0
0
0
0
0
0
0
0
0
0
0
0
0
0
0
0
0
0
0
0
0
0
0
0
0
0
0
0
0
0
0
0
0
0
0
0
0
0
0
0
0
0
0
0
0
0
0
0
0
0
0
0
0
0
0
0
0
0
0
0
0
0
0
0
0
0
0
0
0
0
0
0
0
0
0
0
0
0
0
0
0
0
0
0
0
0
0
0
0
0
0
0
0
0
0
0
0
0
0
0
0
0
0
0
0
0
0
0
0
0
0
0
0
0
0
0
0
0
0
0
0
0
0
0
0
0
0
0
0
0
0
0
0
0
0
0
0
0
0
0
0
0
0
0
0
0
0
173113
346857
188359
121691
186001
176372
180811
188507
249617
163078
160277
220171
204720
250447
190963
185862
138926
179490
153878
175978
283951
230115
178244
211524
235611
168101
189381
139211
232502
181784
141604
199834
295390
93701.8
299576
344529
208006
246464
183969
282233
305236
303112
199114
324405
218005
180022
261790
313299
289486
183511
187100
200216
206243
244517
185640
295233
182558
297994
183064
223558
234126
258312
309576
146797
278921
312477
275172
133281
304212
256037
187643
100465
235987
316210
187782
252864
188993
257572
298769
250397
192931
197843
206999
277834
276172
145447
238413
303802
217171
259950
184951
306698
164600
231449
192511
175371
131462
283158
142447
305308
202929
246279
260937
311660
515653
190599
340691
275918
335072
159941
202152
300874
224485
304091
211870
93509.5
283418
239668
143906
185789
259713
209408
285375
156672
260189
215841
167162
210500
231751
163900
238735
324732
217939
278032
149684
352636
232029
159498
213929
306625
196546
323645
354450
195559
320817
247284
210257
282847
214982
177255
196737
383002
206694
314625
241735
211158
234444
225687
214262
90551.3
76104
329361
116183
337308
179535
232680
164179
251700
222232
290380
217972
222155
338065
198244
125924
146138
272760
171545
294940
305723
123580
275149
182750
264775
262230
244957
124721
150819
383953
233831
200120
176689
66625.7
28740.2
62732.7
58558.5
24401.3
34148.5
36360.4
42388.5
81844.1
57422.4
81189.8
63833.1
49125.6
23677.4
19144.8
29184.8
63477.2
24947.6
37344.2
48925.2
28231.9
64717.5
55278.2
54725
50330.2
50754.8
82580.9
127641
43872.1
43854.6
101664
49409.9
0
0
0
0
0
0
0
0
0
0
0
0
0
0
0
0
0
0
0
0
0
0
0
0
0
0
0
0
0
0
0
0
0
0
0
0
0
0
0
0
0
0
0
0
0
0
0
0
0
0
0
0
0
0
0
0
0
0
0
0
0
0
0
0
0
0
0
0
0
0
0
0
0
0
0
0
0
0
0
0
0
0
0
0
0
0
0
0
0
0
0
0
0
0
0
0
0
0
0
0
0
0
0
0
0
0
0
0
0
0
0
0
0
0
0
0
0
0
0
0
0
0
0
0
0
0
0
0
0
0
0
0
0
0
0
0
0
0
0
0
0
0
0
0
0
0
0
0
0
0
0
0
0
0
0
0
0
0
0
0
0
0
0
0
0
0
0
0
0
0
0
0
0
0
0
0
0
0
0
0
0
0
0
0
0
0
0
0
0
0
0
0
0
0
0
0
0
0
0
0
0
0
0
0
0
0
0
0
0
0
0
0
0
0
0
0
0
0
0
0
0
0
0
0
0
0
0
0
0
0
0
0
0
0
0
0
0
0
0
0
0
0
0
0
0
0
0
0
0
0
0
0
0
0
0
0
0
0
0
0
0
0
0
0
0
0
0
0
0
0
0
0
0
0
0
0
0
0
0
0
0
0
0
0
0
0
0
0
0
0
0
0
0
0
0
0
0
0
0
0
0
0
0
0
0
0
0
0
0
0
0
0
0
0
0
0
0
0
0
0
0
0
0
0
0
0
0
0
0
0
0
0
0
0
0
0
0
0
0
0
0
0
0
0
0
0
0
0
0
0
0
0
0
0
0
0
0
0
0
0
0
0
0
0
0
0
0
0
0
0
0
0
0
0
0
0
0
0
0
0
0
0
0
0
0
0
0
0
0
0
0
0
0
0
0
0
0
0
0
0
0
0
0
0
0
0
0
0
0
0
0
0
0
0
0
0
0
0
0
0
0
0
0
0
0
0
0
0
0
0
0
0
0
0
0
0
0
0
0
0
0
0
0
0
0
0
0
0
0
0
0
0
0
0
0
0
0
0
0
0
0
0
0
0
0
0
0
0
0
0
0
0
0
0
0
0
0
0
0
0
0
0
0
0
0
0
0
0
0
0
0
0
0
0
0
0
0
0
0
0
0
0
0
0
0
0
0
0
0
0
0
0
0
0
0
0
0
0
0
0
0
0
0
0
0
0
0
0
0
0
0
0
0
0
0
0
0
0
0
0
0
0
0
0
248077
144631
155879
236810
186218
229042
191909
278655
198645
189647
128860
219474
165054
222936
291133
157719
226325
136137
144452
225594
152316
201918
187231
246938
238391
137474
145869
169983
160191
200805
130950
238328
166681
250311
230851
109501
203027
121439
230389
348251
192733
293382
293058
348777
143089
243311
348773
218792
211550
258773
133333
364361
285602
231434
120830
273537
123793
141340
316754
215672
123310
270160
144136
245233
210088
236063
236172
207701
181060
354132
173065
175580
254850
146738
254513
204000
319168
167108
181552
185015
203767
193158
215239
244678
178664
180930
283144
259336
203204
219101
232148
235345
306621
262971
255509
169721
234572
237366
157566
270499
212898
167060
288615
210885
231025
222772
219093
370286
296700
427854
267905
223413
153851
101958
191988
296147
179253
292279
205824
323274
246460
216123
246055
201391
183087
223188
230603
401028
204569
166655
180262
277874
241824
150454
437246
179380
174187
313816
214376
382825
150841
252694
234889
343248
201054
204378
218878
239624
239293
199859
234765
290127
247919
201367
249679
249306
139970
463372
152632
385545
69425.9
219390
289637
149509
230099
284062
264979
286137
204006
177172
208183
210618
181094
191479
268534
128688
249746
204420
203490
258995
223949
293663
203509
238623
231690
201045
379149
357718
269069
186466
270660
371624
64287.9
58986.5
25463.2
25482.8
101309
65365.3
78195
41933.2
131897
59483.1
75433.3
62212.5
83343.5
81459.4
73569.3
67730.4
70350.8
70740.9
43832.9
72777.1
84604
46891.4
30761
41529.8
99963.7
28996.3
45451.8
39482.6
73362.5
109609
33021.1
50512.6
0
0
0
0
0
0
0
0
0
0
0
0
0
0
0
0
0
0
0
0
0
0
0
0
0
0
0
0
0
0
0
0
0
0
0
0
0
0
0
0
0
0
0
0
0
0
0
0
0
0
0
0
0
0
0
0
0
0
0
0
0
0
0
0
0
0
0
0
0
0
0
0
0
0
0
0
0
0
0
0
0
0
0
0
0
0
0
0
0
0
0
0
0
0
0
0
0
0
0
0
0
0
0
0
0
0
0
0
0
0
0
0
0
0
0
0
0
0
0
0
0
0
0
0
0
0
0
0
0
0
0
0
0
0
0
0
0
0
0
0
0
0
0
0
0
0
0
0
0
0
0
0
0
0
0
0
0
0
0
0
0
0
0
0
0
0
0
0
0
0
0
0
0
0
0
0
0
0
0
0
0
0
0
0
0
0
0
0
0
0
0
0
0
0
0
0
0
0
0
0
0
0
0
0
0
0
0
0
0
0
0
0
0
0
0
0
0
0
0
0
0
0
0
0
0
0
0
0
0
0
0
0
0
0
0
0
0
0
0
0
0
0
0
0
0
0
0
0
0
0
0
0
0
0
0
0
0
0
0
0
0
0
0
0
0
0
0
0
0
0
0
0
0
0
0
0
0
0
0
0
0
0
0
0
0
0
0
0
0
0
0
0
0
0
0
0
0
0
0
0
0
0
0
0
0
0
0
0
0
0
0
0
0
0
0
0
0
0
0
0
0
0
0
0
0
0
0
0
0
0
0
0
0
0
0
0
0
0
0
0
0
0
0
0
0
0
0
0
0
0
0
0
0
0
0
0
0
0
0
0
0
0
0
0
0
0
0
0
0
0
0
0
0
0
0
0
0
0
0
0
0
0
0
0
0
0
0
0
0
0
0
0
0
0
0
0
0
0
0
0
0
0
0
0
0
0
0
0
0
0
0
0
0
0
0
0
0
0
0
0
0
0
0
0
0
0
0
0
0
0
0
0
0
0
0
0
0
0
0
0
0
0
0
0
0
0
0
0
0
0
0
0
0
0
0
0
0
0
0
0
0
0
0
0
0
0
0
0
0
0
0
0
0
0
0
0
0
0
0
0
0
0
0
0
0
0
0
0
0
0
0
0
0
0
0
0
0
0
0
0
0
0
0
0
0
0
0
0
0
0
0
0
0
0
0
0
0
0
0
0
0
0
0
0
0
0
0
0
0
0
0
0
0
0
0
0
0
0
0
0
0
0
0
0
161519
177767
249725
224841
175808
224179
151318
202621
143673
148203
170910
188193
204310
247047
209820
205272
179324
314810
171151
226473
154577
184763
182308
187999
163167
246016
135582
297003
133206
206306
177827
235738
177675
235881
220722
229025
205263
204997
150702
217083
241552
207477
203985
253723
275416
168532
310447
251109
209884
283918
246906
228039
189074
222545
204833
99603.2
209557
388271
171680
233522
253319
253353
290694
260069
201328
160301
251543
198473
209095
209221
219736
159551
280903
190979
181422
228458
200537
222422
216404
234227
194067
168891
283357
191373
280721
227385
146588
351445
338948
244301
219732
240143
294012
271120
211774
241210
145131
249592
239820
252298
195064
197388
218300
152729
234615
156058
260982
146654
283383
285650
258446
267019
218397
321473
305705
252132
170665
152753
268938
173376
274747
206755
188927
195867
357493
283220
243308
276170
200698
209119
225266
213454
170108
258930
153407
184025
256650
236319
142452
282372
245156
331323
178682
332207
157422
178709
265763
404171
163494
200152
190342
390830
214485
301750
283505
264744
256388
163325
302794
196778
187035
239032
239976
198014
203683
161884
241166
192532
347453
244884
207917
226870
231492
278524
211113
188807
120910
372394
238589
253127
258806
254705
449883
210531
286208
188322
172704
293705
98165.8
218503
179522
241930
35044.4
36527.4
54969.2
49348
53130
51393.7
47033.3
136871
68849.1
32464.2
28761.2
27600
50067
47869.6
73967.3
80485.2
57980.1
23629.6
42482.5
34379.5
39857.5
20037.5
27654.6
71769.7
51469.3
19952.3
35895.2
38651.7
41408.5
69260.6
17387.3
36062.5
0
0
0
0
0
0
0
0
0
0
0
0
0
0
0
0
0
0
0
0
0
0
0
0
0
0
0
0
0
0
0
0
0
0
0
0
0
0
0
0
0
0
0
0
0
0
0
0
0
0
0
0
0
0
0
0
0
0
0
0
0
0
0
0
0
0
0
0
0
0
0
0
0
0
0
0
0
0
0
0
0
0
0
0
0
0
0
0
0
0
0
0
0
0
0
0
0
0
0
0
0
0
0
0
0
0
0
0
0
0
0
0
0
0
0
0
0
0
0
0
0
0
0
0
0
0
0
0
0
0
0
0
0
0
0
0
0
0
0
0
0
0
0
0
0
0
0
0
0
0
0
0
0
0
0
0
0
0
0
0
0
0
0
0
0
0
0
0
0
0
0
0
0
0
0
0
0
0
0
0
0
0
0
0
0
0
0
0
0
0
0
0
0
0
0
0
0
0
0
0
0
0
0
0
0
0
0
0
0
0
0
0
0
0
0
0
0
0
0
0
0
0
0
0
0
0
0
0
0
0
0
0
0
0
0
0
0
0
0
0
0
0
0
0
0
0
0
0
0
0
0
0
0
0
0
0
0
0
0
0
0
0
0
0
0
0
0
0
0
0
0
0
0
0
0
0
0
0
0
0
0
0
0
0
0
0
0
0
0
0
0
0
0
0
0
0
0
0
0
0
0
0
0
0
0
0
0
0
0
0
0
0
0
0
0
0
0
0
0
0
0
0
0
0
0
0
0
0
0
0
0
0
0
0
0
0
0
0
0
0
0
0
0
0
0
0
0
0
0
0
0
0
0
0
0
0
0
0
0
0
0
0
0
0
0
0
0
0
0
0
0
0
0
0
0
0
0
0
0
0
0
0
0
0
0
0
0
0
0
0
0
0
0
0
0
0
0
0
0
0
0
0
0
0
0
0
0
0
0
0
0
0
0
0
0
0
0
0
0
0
0
0
0
0
0
0
0
0
0
0
0
0
0
0
0
0
0
0
0
0
0
0
0
0
0
0
0
0
0
0
0
0
0
0
0
0
0
0
0
0
0
0
0
0
0
0
0
0
0
0
0
0
0
0
0
0
0
0
0
0
0
0
0
0
0
0
0
0
0
0
0
0
0
0
0
0
0
0
0
0
0
0
0
0
0
0
0
0
0
0
0
0
0
0
0
0
0
0
0
0
0
0
0
0
0
0
0
0
0
0
0
0
0
0
0
0
0
0
0
0
0
0
0
0
214689
199833
169755
211291
184042
181936
204288
147147
275781
191839
163147
179276
145306
290150
120469
139908
215251
153388
283312
243132
187551
228894
177907
151440
141419
208484
154172
268943
337741
143312
326814
189698
172951
175894
357011
124048
232313
324308
324846
189222
247807
221234
324008
249911
209091
252689
232766
180661
271147
186544
144659
261541
189441
241712
220580
172506
368507
218710
117184
276878
205766
256428
200431
183214
393701
227135
284902
284367
200801
240955
157886
209884
207900
183994
214364
204383
186944
188261
295007
305365
364093
312648
233659
170851
202037
246515
210861
281822
167076
302031
150961
196364
258767
164176
267860
164367
259956
268145
265618
157140
207027
262208
183519
266569
253576
219175
259272
160126
216929
292265
159600
298105
305721
258678
206945
243832
265534
211277
201594
236367
172677
246877
218617
150274
195017
215502
279263
156694
194643
405601
206604
132784
189018
314468
204211
211263
279680
205735
247921
265086
238671
202574
200718
193758
279958
240018
238556
176555
272210
296398
221124
226724
181308
346370
204953
190887
178451
215486
270587
191490
152083
314659
255865
197466
104920
209040
176509
208226
246395
251738
213481
170162
233758
263939
281582
325408
183289
186712
191152
195404
194475
249268
166894
175265
154550
365259
163671
308921
315569
231221
222390
200608
68202.8
96933.3
77294
48514.7
52528.5
40888.6
71037.2
111652
24195
28143.3
28575.7
154478
58419.2
23705.8
66412.4
42729.5
33797.9
32650.6
41167.3
39530.5
25449.9
53074.8
23249.6
27056
42811
22203.8
31670.9
34407.8
10836.2
88248.1
40035.4
42562.4
0
0
0
0
0
0
0
0
0
0
0
352.942
0
0
0
0
0
0
0
0
0
0
0
0
0
0
0
0
0
0
0
0
0
0
0
0
0
0
0
0
0
0
0
0
0
0
0
0
0
0
0
0
0
0
0
0
0
0
0
0
0
0
0
0
0
0
0
0
0
0
0
0
0
0
0
0
0
0
0
0
0
0
0
0
0
0
0
0
0
0
0
0
0
0
0
0
0
0
0
0
0
0
0
0
0
0
0
0
0
0
0
0
0
0
0
0
0
0
0
0
0
0
0
0
0
0
0
0
0
0
0
0
0
0
0
0
0
0
0
0
0
0
0
0
0
0
0
0
0
0
0
0
0
0
0
0
0
0
0
0
0
0
0
0
0
0
0
0
0
0
0
0
0
0
0
0
0
0
0
0
0
0
0
0
0
0
0
0
0
0
0
0
0
0
0
0
0
0
0
0
0
0
0
0
0
0
0
0
0
0
0
0
0
0
0
0
0
0
0
0
0
0
0
0
0
0
0
0
0
0
0
0
0
0
0
0
0
0
0
0
0
0
0
0
0
0
0
0
0
0
0
0
0
0
0
0
0
0
0
0
0
0
0
0
0
0
0
0
0
0
0
0
0
0
0
0
0
0
0
0
0
0
0
0
0
0
0
0
0
0
0
0
0
0
0
0
0
0
0
0
0
0
0
0
0
0
0
0
0
0
0
0
0
0
0
0
0
0
0
0
0
0
0
0
0
0
0
0
0
0
0
0
0
0
0
0
0
0
0
0
0
0
0
0
0
0
0
0
0
0
0
0
0
0
0
0
0
0
0
0
0
0
0
0
0
0
0
0
0
0
0
0
0
0
0
0
0
0
0
0
0
0
0
0
0
0
0
0
0
0
0
0
0
0
0
0
0
0
0
0
0
0
0
0
0
0
0
0
0
0
0
0
0
0
0
0
0
0
0
0
0
0
0
0
0
0
0
0
0
0
0
0
0
0
0
0
0
0
0
0
0
0
0
0
0
0
0
0
0
0
0
0
0
0
0
0
0
0
0
0
0
0
0
0
0
0
0
0
0
0
0
0
0
0
0
0
0
0
0
0
0
0
0
0
0
0
0
0
0
0
0
0
0
0
0
0
0
0
0
0
0
0
0
0
0
0
0
0
0
0
0
0
0
0
0
0
0
0
0
0
0
0
0
0
0
0
0
0
0
0
0
0
0
0
0
0
0
0
0
0
0
0
0
0
)
;

boundaryField
{
    inlet
    {
        type            zeroGradient;
    }
    outlet
    {
        type            zeroGradient;
    }
    wall
    {
        type            zeroGradient;
    }
}


// ************************************************************************* //
