/*--------------------------------*- C++ -*----------------------------------*\
| =========                 |                                                 |
| \\      /  F ield         | OpenFOAM: The Open Source CFD Toolbox           |
|  \\    /   O peration     | Version:  2506                                  |
|   \\  /    A nd           | Website:  www.openfoam.com                      |
|    \\/     M anipulation  |                                                 |
\*---------------------------------------------------------------------------*/
FoamFile
{
    version     2.0;
    format      ascii;
    arch        "LSB;label=32;scalar=64";
    class       volVectorField;
    location    "0.04";
    object      U;
}
// * * * * * * * * * * * * * * * * * * * * * * * * * * * * * * * * * * * * * //

dimensions      [0 1 -1 0 0 0 0];

internalField   nonuniform List<vector> 
4608
(
(-0.00191978 -0.00134173 0.0128829)
(-0.0014345 0.000499677 0.0101838)
(-0.00128317 -0.000763086 0.0108016)
(-0.00153617 -0.000328682 0.0160596)
(0.000234752 -0.000727816 0.0104921)
(0.000160693 -0.00105511 0.0182598)
(-0.000552879 -0.000396133 0.00944868)
(0.00124932 -0.00199314 0.0115427)
(0.000619743 -0.00118945 0.0113589)
(-0.00133943 -0.00153394 0.0155023)
(-0.00259223 -0.0024148 0.0129388)
(-0.000990163 -0.00129667 0.0108809)
(-0.000786215 -0.00149165 0.0180996)
(-0.000531577 -0.00115296 0.00912088)
(-0.000161708 -0.00062101 0.0120045)
(0.000729301 -2.75687e-05 0.0108017)
(-5.52547e-05 -0.000724762 0.0103186)
(-0.00108496 -0.000186099 0.00832301)
(-0.000845247 -0.000331939 0.0086594)
(-8.60141e-05 0.000352057 0.0120383)
(-0.00074812 -0.000685463 0.0123162)
(-2.63008e-05 -0.00152961 0.0139634)
(0.000908269 0.000186243 0.00997887)
(0.00118345 -0.000158764 0.0181089)
(-6.30292e-05 -0.000802329 0.00870655)
(-0.00121021 -0.00281523 0.0252028)
(-9.3284e-05 0.000380714 0.0105961)
(-0.00143156 0.00133671 0.0229599)
(-0.0019658 0.000538962 0.0105291)
(0.000350368 0.000518352 0.00844234)
(0.000729599 0.00107091 0.00744883)
(0.000503255 0.000291265 0.00311493)
(-0.0012667 -0.00130946 0.0138738)
(-0.000178805 -0.000894529 0.00831842)
(0.0003735 -5.90673e-05 0.00558965)
(0.000299028 -0.00193939 0.0127899)
(-6.83677e-05 0.000131045 0.0115313)
(0.00121963 0.00130042 0.0139638)
(0.00144996 0.00120797 0.0198031)
(-7.31887e-05 0.00193311 0.0158238)
(-0.000994224 0.000943454 0.0095461)
(2.69862e-05 0.000580031 0.0121329)
(-0.000468036 0.000688499 0.0119751)
(-7.2072e-05 -0.000837562 0.00696124)
(0.001523 -0.000651611 0.0171655)
(0.000684278 0.000158477 0.00905826)
(0.00125327 0.00030708 0.00995867)
(0.00124798 0.000835509 0.0127276)
(-0.00347546 0.00169352 0.0183513)
(-0.000789451 0.000956209 0.00947273)
(-0.001262 0.000893773 0.0137992)
(-9.25142e-05 0.000499746 0.00678906)
(0.00161388 0.000956784 0.0175417)
(0.000948285 0.00249116 0.010047)
(0.00142167 0.00159737 0.0109143)
(0.000912482 0.00096175 0.0118485)
(-0.00153233 0.000287264 0.00843109)
(0.000214119 0.00281768 0.00909808)
(0.00011127 0.000706213 0.00883698)
(0.000452365 0.00221148 0.0128738)
(0.00151781 0.000936569 0.00872924)
(0.0010751 0.00127902 0.00799655)
(-8.45076e-05 0.000503877 0.0107207)
(0.000248574 0.00102429 0.0210415)
(-0.000390299 -0.000294586 0.0185104)
(-0.00178184 -0.00266737 0.0326513)
(-0.000868861 -0.000461241 0.0143381)
(-4.2641e-05 -0.00140121 0.0230132)
(0.000148834 -0.000185877 0.00638454)
(-0.000299372 0.000108065 0.02582)
(0.000836306 -0.000595647 0.0176484)
(0.000368364 -0.000771352 0.0168415)
(-0.00279402 -0.000477476 0.0228192)
(-0.000895768 -0.000132369 0.0154628)
(-0.000442458 -7.13667e-05 0.0238971)
(-0.00121496 0.00108025 0.017071)
(-8.00514e-05 -0.000598757 0.0143007)
(0.0017315 0.000976621 0.0238242)
(0.000412136 0.000498172 0.0212471)
(0.000711145 -0.000523349 0.0158743)
(-0.000230349 -0.000498914 0.0251251)
(-0.000712234 -0.0022112 0.0228036)
(4.97322e-05 -0.000149004 0.0105522)
(-0.000575365 4.86594e-06 0.0136697)
(-0.000414794 0.000760068 0.011038)
(0.00133701 0.000534217 0.0145892)
(6.37794e-06 0.000630437 0.0173503)
(0.00106132 0.000996255 0.0184748)
(-0.0035326 -0.00179592 0.0232129)
(-0.00153748 0.000230205 0.0176707)
(0.00142136 0.000128481 0.0157829)
(0.000750964 -0.00162582 0.0213575)
(0.000479851 0.000274135 0.0173887)
(0.000399514 -0.000459215 0.00959571)
(0.00203554 -0.000988141 0.0291468)
(0.00037426 0.00147753 0.0242529)
(0.000222033 -9.57259e-05 0.0139146)
(0.000902484 0.00113714 0.0135016)
(-0.0020402 0.000446283 0.030247)
(-0.00105786 0.000101335 0.0260468)
(-0.000570544 0.000218934 0.0243858)
(0.000201936 0.000218409 0.02236)
(0.0018053 6.09617e-05 0.0172464)
(0.00104546 -0.00021784 0.0131577)
(-0.000559382 0.000572452 0.0134349)
(4.22286e-06 -0.000416735 0.0152255)
(-0.000126927 -0.000938055 0.0226329)
(0.000372865 0.000312828 0.0195076)
(0.000484525 -0.000705158 0.0112898)
(0.000618814 0.00143049 0.0195412)
(0.000616611 0.00103146 0.0183681)
(0.000762624 -0.000376694 0.0198572)
(4.07442e-05 0.0011394 0.0171364)
(-2.19305e-05 0.00118118 0.0220812)
(-0.000200627 0.00095263 0.0239031)
(-0.00088048 0.000249736 0.0188321)
(0.000331468 0.000372012 0.0144211)
(0.00178975 0.000971736 0.0156275)
(0.000192251 0.000746294 0.0262639)
(0.00090589 -7.03623e-05 0.0157246)
(2.92601e-05 0.000664062 0.0153389)
(-0.000776099 0.0005937 0.0181927)
(-0.000846673 0.00128622 0.0273111)
(0.000357385 0.000479614 0.00977719)
(0.00134694 0.00254985 0.0231619)
(0.000306642 0.00147166 0.0414684)
(-0.001047 0.00119548 0.0224463)
(0.000838189 0.00144218 0.00904161)
(0.00112763 -0.000474818 0.02411)
(9.82239e-05 -0.0010419 0.0238592)
(0.00061202 0.000120094 0.0182635)
(-0.00059351 -0.000116681 0.0197434)
(-0.00172797 0.00109633 0.029856)
(-0.00084322 0.000134408 0.022725)
(0.000478703 -0.000283224 0.0192045)
(-0.000325734 0.00158316 0.020903)
(-7.48401e-05 -0.000826095 0.018463)
(0.000485014 -0.000590368 0.0157647)
(0.000544337 -0.00114263 0.0198395)
(0.000344901 -0.000611181 0.0165467)
(-0.000189559 -1.14738e-06 0.0195134)
(-0.000512415 0.000699009 0.0198701)
(0.000859722 -0.000168141 0.0190263)
(0.000734201 0.000162873 0.0182899)
(-0.000273661 1.6218e-05 0.0173119)
(0.000490608 -0.00143428 0.0366848)
(0.000580749 -0.000956656 0.0161428)
(0.000951552 -0.00322073 0.0370996)
(0.000687975 -0.000489659 0.0164605)
(-0.000578312 0.00131455 0.0292701)
(-0.000330181 -0.000549348 0.0232083)
(0.000472718 -0.00100402 0.0225903)
(-0.000532053 0.00218827 0.0250096)
(-0.000136924 0.000527606 0.0132625)
(-1.10852e-05 -7.93019e-05 0.0144448)
(0.00175925 -0.00111912 0.0375872)
(0.00227307 -0.00113739 0.0223989)
(-0.000190819 -0.00104636 0.0156074)
(-0.00124038 -0.000446948 0.0193508)
(0.000209539 -0.00031812 0.0205779)
(0.00023537 0.00040984 0.00815095)
(-0.00285009 0.00128791 0.0345721)
(-0.000802031 0.000355543 0.0188686)
(-0.000517676 0.000280312 0.0191689)
(-0.000417426 1.70342e-06 0.0176415)
(6.91719e-05 -0.00116648 0.0146084)
(0.00127099 -0.000945973 0.0292417)
(0.000526477 -0.000342298 0.0382195)
(0.000522034 -0.00127039 0.0181594)
(-0.000924159 -0.00079962 0.0174475)
(-0.000596643 -0.000596897 0.0173715)
(0.000269044 0.000343077 0.00890094)
(0.000491779 0.00037222 0.0379478)
(-0.000901269 0.00031074 0.0178775)
(-2.76349e-05 -0.000448916 0.0236632)
(0.000651753 0.000327586 0.0221366)
(-0.000118817 -0.000434397 0.0260063)
(-0.000839886 -0.000325545 0.0226928)
(0.000682333 -0.000284451 0.014456)
(0.000619796 0.00036748 0.0195024)
(-0.000157715 -0.000221212 0.0104422)
(-0.000570229 -0.000843288 0.021961)
(0.000467433 0.000958403 0.0201107)
(0.00198067 0.00163732 0.0208114)
(0.000697258 0.000822105 0.0245669)
(-0.0012985 -0.00236249 0.023413)
(8.38786e-05 0.00137121 0.0210694)
(0.000806682 -3.8578e-05 0.0214106)
(-0.000821436 0.000342761 0.0228798)
(0.000373935 0.000377942 0.0267615)
(0.00161097 0.0010975 0.0168854)
(0.00140166 0.0013078 0.0255195)
(-0.000444388 -3.17699e-05 0.0412856)
(0.000185325 0.000258371 0.0259694)
(0.00137703 0.00148252 0.0296452)
(-0.000991649 0.00199069 0.0292027)
(-0.000560937 -0.000643972 0.0146085)
(0.000922731 -0.00145972 0.023319)
(0.000613244 0.000486382 0.0154763)
(0.000594335 0.000787582 0.0220347)
(0.000683781 -0.00032981 0.0152619)
(0.000304443 -0.00123494 0.0211241)
(0.00160134 -0.00105732 0.0255561)
(-0.000819492 -0.00186984 0.0202562)
(-0.00206712 0.000885691 0.0259082)
(0.000836209 0.000506389 0.0257089)
(0.000927737 0.000474662 0.0191288)
(0.000218718 0.000554143 0.0269103)
(0.000238041 -0.00201503 0.0292237)
(6.661e-05 -0.000314461 0.0155217)
(0.000209217 -0.00123011 0.0162719)
(0.000935008 -0.00315678 0.0201413)
(0.001397 -6.80283e-05 0.017386)
(0.000944842 0.00120894 0.0212524)
(0.00029813 -0.000129963 0.0107247)
(-0.00105786 0.00035658 0.0198315)
(0.00133638 0.000550096 0.0208924)
(0.000264407 0.000621557 0.0170273)
(-0.000779858 0.000357337 0.0137747)
(0.000204518 0.000352682 0.0084575)
(0.00312983 0.000640733 0.0242253)
(0.000953341 -4.36584e-05 0.0274624)
(0.000323397 -0.0012641 0.0248005)
(-0.000294614 -0.00132942 0.0158845)
(0.000191356 0.00224902 0.0333281)
(0.000337222 0.000108483 0.0214865)
(0.00057665 0.00154556 0.0314569)
(0.000899272 0.00358541 0.0287487)
(0.000171091 -0.000199814 0.0204736)
(-0.000529784 -0.00100723 0.0155593)
(-0.000782866 -0.000477243 0.0178007)
(0.000281375 -0.00166347 0.025029)
(0.000391868 0.00192288 0.0242626)
(0.000142704 0.000161013 0.0182839)
(0.00100854 0.000543504 0.0224067)
(-0.00017678 0.00035508 0.0130423)
(-0.00142494 -0.000674291 0.0285205)
(0.000411745 -0.000498842 0.0224089)
(0.000178334 -0.000293985 0.0110373)
(-0.000155434 0.000779959 0.0174406)
(8.82356e-05 -0.000280786 0.0171152)
(-0.000707425 -0.000439535 0.0173564)
(0.000788108 -0.000874371 0.0198011)
(-0.000270609 -0.00117959 0.0291602)
(-0.000237501 0.000114925 0.0139218)
(-0.000639563 9.23473e-05 0.0242597)
(0.000168073 0.000586288 0.017933)
(0.000112523 0.000179363 0.0163605)
(0.000496392 -0.00191626 0.0285179)
(-0.00111723 0.00133051 0.0293427)
(0.000344745 -0.000795811 0.0167204)
(0.000218282 -0.000825654 0.00721294)
(-0.000245961 -0.000425597 0.0295028)
(0.00100151 0.000152577 0.0242573)
(0.000163386 0.00103679 0.0241161)
(-0.000891936 -0.00147859 0.0233601)
(-0.00157798 -0.000220575 0.0254797)
(9.02965e-05 -0.000383563 0.0147597)
(0.000104955 -0.000521697 0.0186022)
(0.00223193 -0.000416437 0.0288138)
(0.000407091 -0.00235824 0.0159161)
(-0.000637949 -0.00139812 0.0161387)
(0.000267829 -0.00095439 0.0230823)
(0.000670971 3.81249e-05 0.0189454)
(0.000165124 0.000940884 0.0321935)
(-0.000417785 0.000652218 0.0191104)
(-0.000399452 0.000991625 0.0306949)
(-0.000335056 0.00111789 0.041364)
(-0.000185935 -0.000613476 0.00709709)
(6.09708e-05 -0.000217558 0.0134014)
(0.00112286 -0.000136773 0.0203656)
(0.00221911 -0.000151735 0.0236514)
(-0.000565512 -0.000540167 0.0230196)
(0.000208087 0.000969323 0.0211376)
(-0.000128307 0.000845273 0.0148239)
(4.31646e-05 0.000971691 0.0167287)
(-4.99863e-05 0.000202869 0.0236578)
(-0.000324534 0.00104312 0.0223465)
(-6.27638e-05 1.35147e-05 0.0290274)
(0.0008183 0.000539707 0.0250652)
(-0.000253129 -0.000189143 0.0186589)
(0.00118939 -0.000822171 0.0185301)
(0.000107893 -0.000379023 0.00912083)
(-0.000949704 -0.000521965 0.0203147)
(-0.000640436 6.91604e-05 0.0113557)
(-0.000332952 0.0031452 0.0311333)
(0.000519908 0.000554849 0.0146385)
(0.00158989 0.000705784 0.0387752)
(-0.000312926 0.000481614 0.0152503)
(-0.000560025 -0.00106651 0.0246209)
(0.000563341 -0.00249453 0.0338919)
(0.000809251 -0.000736909 0.0140996)
(0.00417721 0.00084342 0.0366837)
(6.6655e-05 0.00028521 0.00805021)
(-0.00242207 0.00279496 0.03137)
(0.000876859 0.00102304 0.0165198)
(-9.69144e-05 0.00168952 0.0205299)
(-0.000513721 0.000690847 0.0136682)
(-2.14174e-05 0.00111696 0.0207267)
(0.0010754 0.000538821 0.0213741)
(0.000890043 0.000796277 0.0216351)
(0.000774383 -0.000586084 0.0110901)
(0.00137615 0.000938773 0.0242612)
(0.000205733 0.00131902 0.0219835)
(0.00193115 -0.000193747 0.0498585)
(-0.000547578 -0.000153965 0.0135675)
(-0.000420706 0.000888258 0.0263357)
(0.000919061 0.000768282 0.0190729)
(0.000700054 0.00198501 0.0183368)
(0.000294245 0.00023 0.0194457)
(0.000478426 -0.000409749 0.0141353)
(-0.000573159 -0.00150429 0.0201334)
(-2.8231e-05 2.31996e-05 0.0232973)
(4.16462e-05 -0.000225307 0.009476)
(0.000740358 7.38847e-06 0.0165564)
(0.00280585 3.85088e-05 0.022329)
(0.000382745 -0.00031361 0.0157459)
(-0.00158468 -8.62345e-05 0.0197625)
(-0.00137038 1.96934e-05 0.0340858)
(-0.000595476 -0.000225375 0.0175159)
(0.000457901 -0.000361594 0.0133621)
(-0.000435761 -0.000554459 0.0122973)
(-0.0011084 -0.00249578 0.0141105)
(-0.000250778 -0.00214547 0.0102676)
(-0.000158252 -0.0021079 0.0144668)
(-0.000524448 -0.00133733 0.0118728)
(0.000288813 -0.00207749 0.00927746)
(-0.00031628 -0.000735953 0.0111933)
(0.000897996 -0.000760053 0.0166696)
(-0.00105143 -0.000533813 0.0107484)
(-0.00339159 -0.0010212 0.0168589)
(7.96061e-05 -0.00096409 0.00934434)
(0.00051445 -0.00223876 0.0154247)
(4.05315e-05 -0.00147847 0.0100828)
(0.000819144 -0.00201329 0.0111054)
(0.00102937 -0.00112991 0.0126604)
(0.000560734 0.00188168 0.0140749)
(-0.000569861 0.000436719 0.0113677)
(-0.00114611 0.00136084 0.0101537)
(-0.00161473 0.00117153 0.0154237)
(-0.000661872 -0.000184146 0.0140664)
(-0.00148804 -0.000765292 0.0188937)
(0.0008205 9.04353e-05 0.010069)
(0.00206816 0.00034207 0.00789307)
(0.000831775 1.2063e-05 0.00621174)
(-0.00137625 -0.000164176 0.0164434)
(-0.00271887 0.00056795 0.0146677)
(-0.0025602 0.00126759 0.0154001)
(-0.00113567 0.00109814 0.0129155)
(0.000236561 0.000820461 0.0128769)
(0.00111016 0.00160498 0.00831646)
(0.0019964 0.00282849 0.014952)
(0.000760962 -0.00127592 0.0194064)
(-7.17157e-05 -0.000332115 0.00723679)
(-0.000363409 -0.00040965 0.00833743)
(-0.000703234 0.000493874 0.0132863)
(-0.000678018 0.000928743 0.0117991)
(0.00112563 0.0041128 0.0247905)
(0.00181983 0.00140891 0.00933201)
(0.000626872 0.000839578 0.00799342)
(0.000242177 0.000373401 0.0119548)
(-0.000523441 0.000914756 0.0114431)
(-0.000495097 -0.000596071 0.00844818)
(-0.000123399 0.000238436 0.00731761)
(-0.000111716 0.00148151 0.017634)
(0.00128135 0.00163086 0.0124861)
(0.0025469 0.00151553 0.0123616)
(0.000909444 -0.00051214 0.0165088)
(0.00099397 -0.000582706 0.0277576)
(-0.000842528 -0.000172 0.00839877)
(-0.00105083 1.70303e-05 0.0147435)
(0.00142502 0.00158858 0.0134152)
(0.00033009 0.000525205 0.0107957)
(0.000758745 0.00118672 0.013335)
(0.000604669 0.000638031 0.0122559)
(-0.000463232 -9.37495e-05 0.0145765)
(0.000495203 -0.0013713 0.0115427)
(-0.000381807 -0.00130321 0.0142338)
(0.000588574 5.39795e-06 0.00923319)
(0.000163793 -5.2933e-05 0.00425579)
(-0.00150649 0.000768896 0.0306936)
(0.000966071 0.0004178 0.0132292)
(0.000220801 -0.000532502 0.0103187)
(0.000203373 -0.000202222 0.00820427)
(0.000207384 -0.000438379 0.0190514)
(-6.06846e-05 -0.000397019 0.0109215)
(-7.01443e-05 0.000250061 0.0154669)
(0.000195309 -0.000511956 0.0154012)
(0.000224721 0.000126459 0.0149983)
(0.000174422 -3.13403e-05 0.0126134)
(-0.000280473 5.71683e-06 0.00889813)
(-0.00026173 0.000260608 0.0153744)
(0.000260467 0.000340256 0.0135307)
(0.000673662 -4.68111e-06 0.0162123)
(0.00013086 1.50056e-05 0.00863039)
(0.00448339 0.00010443 0.0154189)
(0.000166953 -0.000107649 0.00593426)
(-0.000512625 -0.000406467 0.0072292)
(-0.00020437 -2.13257e-05 0.0102769)
(-0.000173724 0.000259985 0.0128978)
(0.000800444 0.000626856 0.0150668)
(0.000316921 -7.06008e-05 0.0100478)
(0.000194048 -0.000133892 0.0104887)
(3.4355e-07 -0.000119131 0.010813)
(-0.000114922 -4.12237e-05 0.0126814)
(0.000159401 -0.000247341 0.0155478)
(-7.68957e-06 -3.44405e-05 0.00749812)
(-0.000324982 0.000212085 0.0100646)
(-0.000259776 -9.28184e-06 0.0134211)
(0.000158226 0.000149438 0.0192315)
(-0.000501157 0.000794424 0.0107548)
(-9.34783e-05 -0.000245973 0.0113835)
(-6.28325e-05 -0.000142649 0.00592563)
(-8.30629e-05 -4.49699e-05 0.0115607)
(-0.000452182 -0.00117461 0.00702281)
(-8.65916e-05 -6.47229e-05 0.021347)
(-0.000276674 -0.00038185 0.0142693)
(-0.000180393 5.79348e-05 0.00919839)
(-0.000119822 -0.000148509 0.0163942)
(-0.000201822 -9.72213e-05 0.0107051)
(-0.000168695 -0.000386831 0.0206843)
(0.000183639 -5.25884e-05 0.0102279)
(7.06116e-05 -0.000206431 0.0149564)
(7.75035e-05 0.000460501 0.0117876)
(0.000339094 -0.00111484 0.0108363)
(-3.62154e-05 -0.000255369 0.0106316)
(-0.00201542 -0.00132422 0.00904913)
(-0.000227508 -5.79562e-06 0.0104227)
(-0.000227302 8.51395e-05 0.0111791)
(-3.15319e-06 1.77804e-05 0.00830871)
(-0.000329126 0.000319121 0.0129933)
(-2.66951e-05 1.87576e-05 0.0179458)
(-0.000497589 -0.000461536 0.0368831)
(0.000824254 -3.85466e-05 0.0126196)
(-0.00139735 -0.000790857 0.00760656)
(-3.07747e-05 -0.000418391 0.0133681)
(-5.00872e-05 -2.19601e-05 0.0137259)
(0.000164562 -0.000226513 0.0125326)
(-8.85428e-05 0.000166311 0.0111968)
(-0.000106446 0.000456274 0.0135792)
(-5.69629e-05 2.02814e-05 0.0151753)
(0.000425357 -0.00040133 0.0119052)
(-0.000149574 -0.000356228 0.00848358)
(-0.000491205 0.000188431 0.0127838)
(-7.75225e-05 -7.77576e-05 0.0105102)
(-0.000184254 0.000121631 0.0142097)
(0.00027863 -0.000140436 0.0171713)
(-0.000794867 -0.000301233 0.0090853)
(-0.00070204 -0.000223458 0.0210136)
(1.20813e-05 0.000206781 0.0177802)
(0.000249067 0.000323594 0.018228)
(0.000129778 4.90985e-05 0.0191283)
(0.00013416 0.000287162 0.0206519)
(0.000184944 2.96178e-05 0.0164762)
(-6.49449e-05 0.000368445 0.0142856)
(0.000188925 -0.000171514 0.0188998)
(-0.00103886 0.000190831 0.0195752)
(2.34948e-06 0.000195453 0.0185576)
(0.000338714 0.000195499 0.0126837)
(0.000252185 5.56968e-05 0.0209584)
(0.000102966 2.92349e-05 0.0150988)
(0.000103447 -0.00030166 0.0117085)
(-0.000103211 -0.000163043 0.0132201)
(-0.00020327 -0.000364141 0.0179601)
(-0.00106995 -0.000275934 0.0192067)
(-0.000132383 -0.000354098 0.0158384)
(8.32607e-05 -0.000410931 0.0135682)
(-6.52783e-05 -0.000200624 0.0163336)
(-0.000124457 -4.89504e-05 0.0175754)
(0.000238521 -0.000435516 0.0201357)
(0.000161924 -0.000143087 0.0110406)
(-0.000355845 -0.000542435 0.0156448)
(-0.00117226 -0.000227063 0.019534)
(-5.02871e-05 -9.03877e-05 0.0199029)
(0.000353176 -0.000353087 0.0168233)
(0.000171331 -0.000247151 0.0156062)
(-0.000131761 -0.000446878 0.0110247)
(9.33287e-05 -0.000183512 0.0145192)
(-0.000374008 -0.000612253 0.0122058)
(-0.000129075 -0.000507597 0.0216372)
(-0.000661421 -2.15249e-05 0.0188147)
(-0.000284532 0.000249452 0.0158015)
(-0.000135559 9.73418e-05 0.0206787)
(-0.000247876 -0.000109511 0.0170581)
(-0.000222805 -0.000398996 0.0227855)
(5.92515e-05 -0.000101242 0.0179125)
(-0.000399446 -0.000518005 0.0181316)
(-0.000171812 -0.000332354 0.0182485)
(-0.00051658 -0.0010333 0.0185091)
(0.000134559 -0.000509746 0.0167158)
(-0.000117664 3.44404e-05 0.0169735)
(-0.000424054 -0.000285294 0.0142365)
(-0.000371362 -0.00011577 0.0169461)
(-0.00049153 -0.000278732 0.0134437)
(-0.000898501 -0.000268425 0.0173015)
(-0.000376498 -3.80607e-06 0.0190904)
(-0.000715004 -3.47551e-05 0.0278124)
(0.00109259 -4.44948e-05 0.0195994)
(-6.41758e-05 -0.000275903 0.0147511)
(-0.000616076 -0.000514817 0.0162028)
(-0.000420437 -0.000413315 0.0179182)
(-0.000451451 -0.000488732 0.016796)
(-0.000498151 -0.000335647 0.0168737)
(-0.000244881 0.000494996 0.0175868)
(-0.000567606 0.00108112 0.0217226)
(0.000100678 9.32082e-05 0.0180473)
(-0.000430071 -0.000212587 0.0134721)
(-0.000747985 -2.69576e-05 0.016592)
(-0.000472402 -0.000267246 0.0188188)
(-0.000612954 -3.82891e-05 0.0189164)
(-8.53102e-05 7.06395e-05 0.0199008)
(-0.000149827 0.000417662 0.0154385)
(0.00074631 0.000510529 0.00628303)
(0.000689095 0.000517101 0.00579389)
(0.000236304 0.000596128 0.00549284)
(-0.000117005 0.000352566 0.00565314)
(0.000285077 0.00097649 0.00593593)
(0.000372136 0.00079654 0.0051687)
(-0.000369244 0.000938946 0.00493255)
(-0.000627868 0.000362331 0.00570274)
(0.000153137 0.000481186 0.00565404)
(0.000628053 0.00051186 0.00553332)
(0.000175351 0.000558475 0.00453435)
(2.47295e-05 0.000505053 0.00537761)
(0.000515443 0.000592777 0.00478124)
(0.000236973 0.000163183 0.00428592)
(-0.000574187 0.000506037 0.00457661)
(-0.000998505 0.000294365 0.00570402)
(0.000395477 2.82611e-05 0.00553714)
(0.000615132 -2.96791e-05 0.00506684)
(0.000204116 -0.000126297 0.00452039)
(-7.53135e-05 0.000360089 0.00481701)
(-4.41845e-07 0.000324564 0.00491845)
(0.000410305 -1.95202e-05 0.0052658)
(-3.31573e-05 0.000100709 0.00442773)
(-0.000823584 -9.26013e-05 0.0055897)
(3.20233e-05 -7.53953e-05 0.00591847)
(0.000465619 -0.000141582 0.00595456)
(0.000537736 -0.000514074 0.00519229)
(0.000432175 -0.000203576 0.0047808)
(0.00016365 -0.000457792 0.00430243)
(8.4903e-05 -0.000177757 0.00487235)
(-0.000520201 -0.000546051 0.00470034)
(-0.000586212 -0.000336635 0.00649458)
(0.000176209 -0.000121927 0.00572738)
(0.000213797 3.28855e-05 0.00523576)
(0.000129869 -9.25266e-05 0.00563436)
(-5.88123e-05 -0.000162053 0.00519592)
(-4.58088e-05 -0.000551049 0.00601793)
(0.0001806 -0.000370098 0.00548584)
(-0.000315826 -0.000670674 0.00577608)
(-0.000271298 -0.000264278 0.00635052)
(0.000199483 -0.000780788 0.00599869)
(0.000548889 -0.000465642 0.00532717)
(0.000329726 6.7341e-05 0.0048892)
(-8.36663e-05 -0.000106356 0.0047198)
(-0.000175338 -6.24713e-05 0.00523688)
(-0.000296791 -0.000288624 0.00497154)
(-0.000702968 -0.000422612 0.00580719)
(-0.000415281 -0.000291327 0.00652377)
(9.30915e-05 -0.000336278 0.00791147)
(0.00112148 -0.000347993 0.00616657)
(0.000474414 -0.00017695 0.00476335)
(-0.000256368 -0.000432317 0.00507292)
(-0.000338017 -0.000549999 0.00554322)
(-0.000370601 -0.000769742 0.00554003)
(-0.000527606 -0.000730597 0.00588473)
(-0.000398181 -0.000421292 0.00613364)
(0.000154791 0.000307169 0.00664205)
(0.000743839 -0.000377981 0.00582868)
(0.000248793 -0.000497806 0.00478438)
(-0.000508531 -0.000330215 0.00532548)
(-0.000576154 -0.00055824 0.00590217)
(-0.000563283 -0.000655842 0.0061307)
(-0.000423142 -0.000902786 0.00654885)
(-0.000391682 -0.000976779 0.00586922)
(0.000225098 0.000291091 0.0104765)
(0.000277481 0.000374656 0.0101123)
(0.000149568 0.000432729 0.00985134)
(-4.80804e-06 0.000387022 0.00991145)
(0.000123342 0.000569928 0.00999635)
(0.000131594 0.000448796 0.00966421)
(-0.000135643 0.000391839 0.00963352)
(-0.000238253 2.49617e-05 0.00999082)
(5.77975e-05 0.00024872 0.010059)
(0.000268572 0.000316499 0.00983181)
(0.000140246 0.000347055 0.00943488)
(4.50838e-05 0.000342415 0.00966921)
(0.000150495 0.000360195 0.00944305)
(1.0895e-05 0.000164303 0.00923193)
(-0.00031827 0.000184807 0.00933814)
(-0.000465663 -8.01865e-06 0.00990682)
(0.000230142 1.77238e-05 0.00996766)
(0.000309064 4.17098e-05 0.00963378)
(0.000161331 3.34563e-05 0.00933035)
(1.35795e-05 0.000175398 0.00941231)
(-3.4064e-05 0.000145346 0.00940173)
(-5.17399e-06 -3.83142e-06 0.00950421)
(-0.000238386 -4.23301e-05 0.00925142)
(-0.000489061 -0.000148814 0.00980284)
(0.000126629 -7.28787e-05 0.0100553)
(0.000281918 -7.84116e-05 0.00986244)
(0.000270676 -0.000173847 0.0095369)
(0.000156002 -0.000103267 0.00931048)
(-1.65462e-05 -0.000207141 0.00913552)
(-0.000153272 -0.000168561 0.00927536)
(-0.000420668 -0.000310267 0.00931989)
(-0.000453126 -0.000257331 0.0100267)
(0.000205465 -0.000121199 0.0100815)
(0.000230632 -6.28529e-05 0.00974589)
(0.000139965 -9.59844e-05 0.00973907)
(-2.77765e-05 -0.000147834 0.00954051)
(-0.000117527 -0.000302296 0.00977581)
(-0.000149173 -0.000286589 0.009631)
(-0.000367246 -0.000377159 0.00974916)
(-0.000351431 -0.000248538 0.0100453)
(0.00018692 -0.000308423 0.0102405)
(0.000330669 -0.000235686 0.00980121)
(0.00018789 -9.20102e-05 0.00952381)
(-6.65869e-05 -0.000156213 0.00936222)
(-0.000195687 -0.000189693 0.00954157)
(-0.000307812 -0.000271128 0.00947823)
(-0.000474208 -0.000313849 0.0097973)
(-0.000379822 -0.000237981 0.0100997)
(8.13556e-05 -9.87181e-05 0.0108644)
(0.00045847 -0.000189537 0.0101659)
(0.000216704 -0.000183291 0.00958703)
(-0.000145763 -0.000291058 0.0095373)
(-0.00027005 -0.000375438 0.00972486)
(-0.000334956 -0.000450015 0.0097486)
(-0.000396885 -0.000422582 0.00995584)
(-0.000312781 -0.000279786 0.0101246)
(-4.58464e-05 0.000200341 0.0105314)
(0.000247879 -0.000144325 0.0101138)
(8.09783e-05 -0.00026633 0.00962595)
(-0.000274596 -0.000275948 0.00968069)
(-0.000376582 -0.000389676 0.00996818)
(-0.000382816 -0.000433904 0.0100928)
(-0.000321438 -0.000478062 0.0103377)
(-0.000221708 -0.00043277 0.0103185)
(0.000184686 0.000278309 0.00934554)
(0.000190843 0.000270845 0.0092465)
(0.000126563 0.000267592 0.00913969)
(4.11614e-05 0.000250797 0.00913708)
(4.14903e-05 0.000284676 0.00915158)
(2.01499e-06 0.000230228 0.0090425)
(-0.000116173 0.000203259 0.00903862)
(-0.000183695 7.45261e-05 0.00913116)
(9.24715e-05 0.000211761 0.00916542)
(0.000159057 0.000215373 0.00909392)
(0.000110149 0.00021157 0.00895923)
(4.43328e-05 0.000202738 0.00898883)
(2.66466e-05 0.000195595 0.00892975)
(-5.2955e-05 0.000122718 0.00887981)
(-0.000184702 9.82439e-05 0.00893751)
(-0.000240478 2.26438e-05 0.00914072)
(0.000139677 7.11329e-05 0.00913831)
(0.000169125 7.60386e-05 0.00901778)
(0.00010997 7.17339e-05 0.00889432)
(2.73614e-05 9.55511e-05 0.00889069)
(-3.3202e-05 7.54371e-05 0.00888652)
(-8.70992e-05 1.42983e-05 0.00893783)
(-0.000195507 -2.35166e-05 0.00893036)
(-0.000257847 -6.71725e-05 0.00915507)
(0.00010619 -1.67274e-05 0.00917634)
(0.000159502 -1.82238e-05 0.0090782)
(0.000130104 -4.14618e-05 0.00894324)
(4.95065e-05 -3.83221e-05 0.00885483)
(-5.1067e-05 -7.88673e-05 0.00881667)
(-0.000146447 -9.76566e-05 0.00888592)
(-0.000255227 -0.000147007 0.008977)
(-0.000263078 -0.00014619 0.00924235)
(0.000135588 -7.4825e-05 0.0092284)
(0.000152309 -5.96093e-05 0.00908309)
(9.26662e-05 -6.98047e-05 0.00901336)
(-1.07091e-05 -9.6772e-05 0.00894519)
(-9.62366e-05 -0.000154717 0.00901477)
(-0.000164305 -0.000173373 0.00902636)
(-0.000253647 -0.000207173 0.00912966)
(-0.000246628 -0.000186358 0.00929613)
(0.000123506 -0.000138566 0.0093044)
(0.000172214 -0.000128006 0.00912198)
(9.4954e-05 -0.00010283 0.00898453)
(-3.8828e-05 -0.000128703 0.00892418)
(-0.000137356 -0.000162449 0.0089927)
(-0.000217517 -0.000198481 0.0090281)
(-0.000289891 -0.000222955 0.00918151)
(-0.000265397 -0.000212301 0.0093397)
(9.10978e-05 -8.69117e-05 0.00948294)
(0.000190645 -0.00012562 0.00925648)
(9.12682e-05 -0.000139584 0.00904801)
(-7.55324e-05 -0.000180893 0.00901684)
(-0.000175752 -0.000228339 0.0090977)
(-0.000239942 -0.000265723 0.00915181)
(-0.000282503 -0.000275595 0.00927429)
(-0.000255275 -0.000255145 0.00937805)
(4.37507e-05 -1.25689e-05 0.00935617)
(0.000117421 -0.000107559 0.00924487)
(3.65869e-05 -0.000152832 0.00908957)
(-0.00013216 -0.000173233 0.00910263)
(-0.000227426 -0.000228037 0.00922847)
(-0.000270435 -0.000262492 0.00930926)
(-0.000282224 -0.000293553 0.00942782)
(-0.000248434 -0.000309631 0.00946439)
(7.74836e-05 0.000160349 0.00940783)
(8.83641e-05 0.000158352 0.00934221)
(6.76002e-05 0.000155212 0.00927982)
(3.0686e-05 0.000147954 0.00925809)
(1.51837e-05 0.000146608 0.00925457)
(-1.34675e-05 0.00011582 0.00922542)
(-5.93216e-05 9.14759e-05 0.00924211)
(-8.70173e-05 2.78168e-05 0.00929128)
(4.96038e-05 0.000122823 0.00929866)
(7.64646e-05 0.00012479 0.00925311)
(5.92384e-05 0.000121275 0.00919323)
(2.40164e-05 0.0001139 0.00917926)
(-3.65223e-06 0.000102078 0.0091624)
(-4.63828e-05 6.69917e-05 0.00915532)
(-9.78478e-05 3.99111e-05 0.00919074)
(-0.000118498 -2.24428e-06 0.00927281)
(6.96146e-05 5.29679e-05 0.00926697)
(8.13648e-05 5.64889e-05 0.0092094)
(5.61933e-05 5.38757e-05 0.00915118)
(1.24e-05 5.23442e-05 0.00913253)
(-3.04705e-05 3.68594e-05 0.00912946)
(-7.40686e-05 6.14136e-06 0.00915121)
(-0.000122078 -2.12986e-05 0.00918236)
(-0.000139887 -4.89951e-05 0.00927438)
(6.17122e-05 -6.82746e-07 0.00926794)
(7.79733e-05 -8.21665e-07 0.00921513)
(5.57533e-05 -8.7724e-06 0.00915438)
(7.8058e-06 -1.6393e-05 0.00911739)
(-4.88814e-05 -3.70513e-05 0.00910987)
(-0.00010328 -5.70404e-05 0.0091429)
(-0.000150068 -8.10907e-05 0.00920083)
(-0.000154586 -9.27173e-05 0.00930396)
(7.10341e-05 -3.72104e-05 0.00929579)
(7.55212e-05 -3.72638e-05 0.00922912)
(4.1743e-05 -4.48295e-05 0.00917929)
(-1.56438e-05 -6.03485e-05 0.0091509)
(-7.17052e-05 -8.58355e-05 0.00917006)
(-0.000119853 -0.000102878 0.00919715)
(-0.000159803 -0.000119975 0.00925922)
(-0.000159033 -0.00012247 0.00934292)
(5.85104e-05 -5.89402e-05 0.00933148)
(7.22375e-05 -6.747e-05 0.00925447)
(3.34361e-05 -7.18389e-05 0.00919019)
(-3.37304e-05 -8.81389e-05 0.00916453)
(-9.33646e-05 -0.00010955 0.00919035)
(-0.000141221 -0.000127855 0.00922633)
(-0.000174417 -0.000140163 0.00930251)
(-0.000168263 -0.000140111 0.00938607)
(3.85658e-05 -4.38293e-05 0.00939281)
(6.32879e-05 -7.03916e-05 0.00930968)
(2.10085e-05 -8.82615e-05 0.00923132)
(-5.4405e-05 -0.00011067 0.0092139)
(-0.00011338 -0.000135893 0.0092488)
(-0.000153469 -0.000153877 0.00929239)
(-0.000175081 -0.00016056 0.00936532)
(-0.000163107 -0.000155062 0.00943786)
(5.93426e-06 -1.8859e-05 0.00937509)
(2.71677e-05 -6.13878e-05 0.00932418)
(-7.64761e-06 -8.87327e-05 0.00926421)
(-8.22249e-05 -0.000107189 0.00926263)
(-0.000136944 -0.000134011 0.00931696)
(-0.000165932 -0.000150588 0.00937266)
(-0.000174468 -0.000159291 0.00944923)
(-0.000154977 -0.000162123 0.00951347)
(3.45506e-05 9.16083e-05 0.00937436)
(4.11809e-05 8.9046e-05 0.00934651)
(3.32409e-05 8.58268e-05 0.00931829)
(1.62169e-05 8.06682e-05 0.00930363)
(2.91983e-06 7.43598e-05 0.0092983)
(-1.46727e-05 5.74878e-05 0.00928962)
(-3.463e-05 4.19657e-05 0.00929902)
(-4.75839e-05 1.29118e-05 0.00931719)
(2.46902e-05 7.15866e-05 0.00932292)
(3.5409e-05 7.07766e-05 0.00930131)
(2.76392e-05 6.71382e-05 0.00927517)
(9.07459e-06 6.08902e-05 0.00926278)
(-1.02007e-05 5.111e-05 0.00925694)
(-3.30997e-05 3.28599e-05 0.00925847)
(-5.50145e-05 1.53206e-05 0.00927693)
(-6.39285e-05 -6.54269e-06 0.00930969)
(3.14331e-05 3.62579e-05 0.00930385)
(3.57629e-05 3.64598e-05 0.00927752)
(2.36065e-05 3.31631e-05 0.00925113)
(5.71567e-07 2.76594e-05 0.00923885)
(-2.48741e-05 1.67614e-05 0.00923785)