/*--------------------------------*- C++ -*----------------------------------*\
| =========                 |                                                 |
| \\      /  F ield         | OpenFOAM: The Open Source CFD Toolbox           |
|  \\    /   O peration     | Version:  2506                                  |
|   \\  /    A nd           | Website:  www.openfoam.com                      |
|    \\/     M anipulation  |                                                 |
\*---------------------------------------------------------------------------*/
FoamFile
{
    version     2.0;
    format      ascii;
    arch        "LSB;label=32;scalar=64";
    class       volVectorField;
    location    "0.04";
    object      Us;
}
// * * * * * * * * * * * * * * * * * * * * * * * * * * * * * * * * * * * * * //

dimensions      [0 1 -1 0 0 0 0];

internalField   nonuniform List<vector> 
4608
(
(-7.28047e-05 -3.98483e-05 0.000141509)
(-0.000246661 -3.38333e-05 -2.43248e-05)
(-0.000158996 9.79276e-05 6.15553e-05)
(-5.51121e-05 2.42819e-05 -3.85081e-05)
(0.000257175 -2.82978e-05 3.17657e-05)
(0.000108858 0.000104637 3.9037e-05)
(-0.000142704 0.000357864 0.000134086)
(9.95018e-06 -0.000170479 8.56068e-05)
(-1.6433e-06 0.000129227 1.434e-05)
(-0.000436419 0.000681463 -0.000790652)
(-0.000805258 -0.000278936 -0.000420434)
(-0.000127576 -0.000204786 0.000183774)
(-0.000346869 -0.00017738 7.16654e-05)
(-0.000356503 0.0001242 0.000231493)
(-6.13758e-05 0.000148004 -6.68536e-05)
(0.000180717 0.00012898 0.000124011)
(2.61233e-05 0.000123687 3.48967e-05)
(6.87333e-05 0.000216415 0.000161852)
(-0.000206471 0.000211917 7.68414e-05)
(-8.07856e-05 -0.000215723 0.000186904)
(-0.000162862 -0.00010204 8.98285e-05)
(-4.81228e-05 4.29238e-05 -7.75423e-06)
(0.000147855 0.000166288 0.000186385)
(-1.93457e-05 0.000172148 0.000174547)
(4.12082e-05 2.29561e-05 0.000102426)
(-3.58569e-05 0.000220473 3.10762e-05)
(0.000151429 9.84474e-06 0.00018243)
(-2.44718e-05 4.15681e-05 0.000169154)
(3.33516e-05 -1.79062e-05 9.47927e-05)
(0.000126302 -9.13404e-05 -6.82772e-05)
(6.45774e-05 0.000192517 -7.6326e-05)
(0.000232175 0.000168575 6.87613e-05)
(9.08605e-05 1.27139e-05 0.000218881)
(-2.7855e-05 0.000129609 7.79038e-05)
(3.85045e-05 0.000172299 4.02177e-05)
(3.92905e-05 6.21087e-05 0.000122584)
(0.000182331 3.60478e-05 0.000219812)
(0.000146271 5.60067e-05 0.000112107)
(0.000337531 0.00042429 9.98795e-05)
(-0.000136848 8.23376e-05 9.63067e-05)
(1.99376e-05 0.000215746 0.000168103)
(-9.97064e-05 0.000120189 0.000126282)
(-7.08349e-05 0.000224594 4.00602e-05)
(-3.78213e-05 -0.000129154 9.75594e-05)
(0.000885096 -0.000914389 0.000974254)
(0.000198884 0.000158427 0.000212322)
(-6.44742e-05 9.64326e-05 -1.46654e-05)
(-0.000104746 9.38425e-05 0.000173946)
(-0.000244979 0.0005336 0.000167521)
(-0.000216313 0.000559663 9.86045e-05)
(-9.18963e-05 0.00023509 0.000111818)
(-6.33185e-05 8.49457e-06 0.000141216)
(-0.000114289 -0.000348747 0.000268916)
(0.000185795 0.000375501 4.70929e-05)
(0.000237649 0.000250363 0.000314035)
(-6.16094e-05 -0.000138622 0.000165727)
(0.000132359 -5.3977e-05 0.000109758)
(0.000242077 0.000935652 8.9425e-05)
(0.000102957 0.000110261 0.000137448)
(0.000279893 8.20479e-05 8.50503e-05)
(1.18834e-05 0.00017513 9.79683e-05)
(0.000130271 0.000264962 7.03458e-05)
(-0.000113502 -0.000447965 6.30761e-05)
(5.45553e-05 7.75012e-05 -4.54286e-07)
(0.000415215 0.000285703 0.000730645)
(0.000117541 0.000249473 0.000501897)
(-1.40949e-05 7.82657e-06 0.000387439)
(-0.000138751 6.17401e-05 0.000312998)
(0.000250742 7.93816e-05 0.00024014)
(7.47731e-05 0.000394652 0.000381473)
(-2.10342e-06 0.000134538 0.000520027)
(-4.98069e-05 -4.36038e-06 0.000358278)
(0.000166843 0.000428722 0.000566038)
(-0.000157324 -8.59365e-05 0.000497591)
(-0.000204466 -4.98933e-05 0.000418777)
(-1.56209e-05 4.75112e-05 0.000475659)
(-0.000247162 0.000295372 0.000530504)
(-8.48326e-05 0.000323323 0.000404581)
(1.3346e-05 0.000305253 0.000104626)
(2.82419e-05 -0.000140779 0.000338364)
(6.16755e-05 0.000167883 0.000331123)
(-0.000291701 -0.000128836 0.000963833)
(1.75462e-05 0.000145817 0.000445523)
(0.000238487 8.83528e-05 0.000334028)
(0.000118827 8.02501e-05 0.000333048)
(0.000511643 0.000560178 0.000603414)
(0.000100395 0.000164843 0.000573309)
(0.000210458 0.000249815 0.00067433)
(-5.44912e-05 0.000156813 0.000585831)
(-0.000593527 0.000259932 0.000143059)
(0.000210178 0.00015557 0.000273075)
(0.000263135 1.29341e-05 0.000384111)
(0.000206456 2.33253e-05 0.000457126)
(5.07011e-05 -2.5554e-05 0.000195242)
(0.00020414 0.000252814 0.000127587)
(4.06767e-05 0.000220203 0.0005376)
(0.000141356 7.48986e-05 0.000469403)
(9.32751e-05 -1.37432e-05 0.000356771)
(-4.22523e-06 -7.6287e-05 0.00047554)
(0.000124341 3.48574e-06 0.000489741)
(0.00011666 -1.86734e-05 0.00059017)
(0.000106238 8.20855e-05 0.000238433)
(9.75748e-05 0.000295718 0.000588336)
(0.000550599 0.000217582 0.00105736)
(0.000155536 0.000132613 8.32904e-05)
(0.000296403 0.000136021 0.000285841)
(0.000116598 -0.000128437 0.000424988)
(0.000102253 9.99521e-06 0.00046186)
(0.000268591 -0.000147847 -0.000292266)
(0.000291706 0.000122074 0.000345871)
(0.000217107 0.000171117 0.000400464)
(0.000169398 0.00033464 0.000985444)
(0.000269986 0.000199095 0.000317206)
(0.000135458 0.000107529 0.000663344)
(0.00015965 -1.10154e-05 0.000278862)
(0.000142464 -0.000188035 0.000248467)
(-9.72345e-06 -0.000150973 0.000267424)
(0.000268359 9.62306e-05 0.000429906)
(0.000364561 -1.8226e-05 0.000550668)
(0.000262916 9.59544e-05 0.000565775)
(0.000214925 0.000265279 0.000447235)
(-0.000151147 0.000364432 0.000589373)
(0.000161495 0.000141186 0.000263047)
(0.00025663 0.000115623 0.000458036)
(0.000162055 -1.48143e-06 0.000457023)
(-9.04798e-05 -6.51184e-05 0.000258943)
(1.71649e-05 -0.000266053 0.000352015)
(9.06983e-05 -6.39279e-05 0.000293179)
(0.000252958 0.000193502 0.000802955)
(4.14453e-05 9.65147e-05 0.00084541)
(9.60303e-05 8.48306e-05 0.000579096)
(0.000134842 8.7825e-05 0.000587716)
(5.4985e-05 1.78892e-05 0.00053088)
(-5.01037e-05 0.000131007 0.000394583)
(0.000110735 -8.84537e-05 0.000626757)
(0.000160724 0.000129429 0.000565531)
(0.000185382 0.000337748 0.000730315)
(0.000117383 -2.0621e-05 0.000908735)
(0.000167978 -9.4267e-07 0.000572954)
(0.000126849 5.65518e-05 0.000489369)
(0.000196209 2.20035e-05 0.000585615)
(0.000384558 -1.94089e-06 0.000528627)
(0.000305845 -0.000137173 0.000477126)
(0.000172415 0.000289955 0.000651312)
(0.000147214 0.000128404 0.000635493)
(0.000243723 -0.000245298 0.00103548)
(0.000202988 -1.86473e-05 0.000747696)
(0.000118271 -0.000459573 0.000740112)
(0.000367747 4.8145e-05 0.000624125)
(0.000455223 5.28167e-05 0.000897263)
(0.000182419 -0.000274044 0.000828558)
(-2.80116e-06 0.000312523 0.00081937)
(-0.000124546 2.51529e-05 0.000756346)
(0.0001937 -4.17116e-05 0.000618362)
(0.000246917 -4.17344e-05 0.000676069)
(0.000260246 -1.33839e-05 0.000664283)
(0.000272677 -2.71963e-05 0.000906293)
(0.000148042 2.30772e-05 0.000736794)
(0.000196169 -3.41879e-05 0.000691062)
(-5.09155e-05 -3.45817e-05 0.00117841)
(0.000152026 7.23166e-06 0.000658425)
(5.83881e-05 6.61269e-05 0.000974534)
(0.000147177 -1.17628e-05 0.000637618)
(-1.25236e-05 8.77812e-05 0.000851358)
(-1.70307e-05 -5.70853e-06 0.000790515)
(0.000158291 -0.000147225 0.000402319)
(0.000238595 -0.00012389 0.000744419)
(5.82251e-05 3.05674e-06 0.00106211)
(0.000220231 -3.72936e-05 0.000526529)
(0.000131323 -1.57923e-05 0.000713434)
(0.00010381 -2.69134e-05 0.00058934)
(0.000117558 2.28416e-05 0.00068938)
(0.000165663 -0.000212847 0.000585571)
(3.82975e-05 -0.000298176 0.000630401)
(0.00022794 -0.00014157 0.00114784)
(2.89366e-05 0.000137486 0.00103672)
(0.000297117 6.57844e-05 0.000524313)
(0.000185092 8.00861e-05 0.000708028)
(0.00020735 -1.24228e-05 0.00059486)
(0.00020558 -4.56574e-06 0.000667449)
(0.000125622 -9.65665e-05 0.000680545)
(0.000200169 -0.000211072 0.000716778)
(0.000252468 3.8102e-05 0.00073409)
(0.000237746 0.000134489 0.000697932)
(0.000160838 0.000231107 0.000654037)
(0.000192583 9.05923e-05 0.000791661)
(0.000184241 -6.84367e-05 0.000553681)
(0.000267759 0.000103386 0.000755339)
(9.46026e-05 -8.67591e-05 0.000673078)
(0.000196382 -0.00028259 0.000577473)
(0.000130992 -0.000102524 0.000663553)
(0.000163275 -3.55364e-06 0.000618055)
(-4.48395e-05 6.96605e-06 0.00105464)
(8.06373e-05 -5.37569e-05 0.00080929)
(0.000118403 3.05556e-05 0.000828458)
(0.000260436 0.000110755 0.000842334)
(0.000107266 6.72783e-05 0.000529112)
(0.000202839 -6.08686e-05 0.000646355)
(0.000271446 -2.13613e-06 0.000867745)
(0.000158373 7.442e-05 0.000780215)
(0.000205004 0.000105376 0.000770421)
(0.000114056 -0.000104882 0.000862266)
(0.000195212 -0.000139674 0.00103155)
(0.000305728 1.50298e-05 0.000795321)
(0.000178533 1.69909e-05 0.000683444)
(0.000195923 -2.93998e-05 0.000727331)
(0.00010204 -0.000168106 0.000857366)
(0.000192144 -6.47225e-06 0.000901012)
(0.000207412 -3.35498e-07 0.0010162)
(9.90697e-05 5.54269e-06 0.000891482)
(0.000171385 -0.000148585 0.000928491)
(0.000407407 -0.000177569 0.000914307)
(0.000287662 -1.1031e-05 0.000841162)
(0.000239026 5.05005e-05 0.00088642)
(5.94733e-05 -9.44535e-05 0.000903511)
(6.49853e-05 -3.35944e-05 0.000942584)
(5.0965e-05 0.000109687 0.000756308)
(0.000108762 -4.0485e-05 0.000806024)
(0.000155392 -6.14886e-05 0.000818634)
(0.000120404 -1.63046e-05 0.000786746)
(0.00017795 -0.000112684 0.000903381)
(0.000275746 0.000215933 0.000968705)
(9.46868e-05 -6.47672e-05 0.000886007)
(2.37733e-05 -5.72501e-05 0.00109948)
(0.000165648 9.84919e-05 0.00102332)
(0.000114284 -2.9958e-05 0.000914064)
(0.000219318 7.30985e-05 0.00101764)
(0.000206518 0.000281061 0.00106923)
(7.21642e-05 -0.000121154 0.000892613)
(0.000104775 -0.000145679 0.000947238)
(0.000108736 -0.000146986 0.000983166)
(3.74741e-05 -2.00823e-05 0.000957124)
(0.000247358 -3.86623e-05 0.000720325)
(0.000223507 -1.09142e-06 0.000817783)
(0.000201535 5.12977e-05 0.000804245)
(0.000302008 -9.96168e-06 0.000764496)
(0.000225796 -0.000173118 0.000785653)
(0.000244304 -0.000272316 0.000957321)
(0.000128875 -0.000189685 0.000941853)
(4.65712e-05 5.13872e-05 0.000891761)
(0.000137926 -4.14813e-05 0.000738921)
(6.44141e-05 -8.34971e-05 0.000761117)
(0.000194606 -0.000186647 0.00073624)
(0.00018329 -0.000132132 0.000816816)
(0.000221086 -9.71147e-05 0.000673313)
(0.000283264 -0.000148566 0.000925196)
(0.000107055 -0.000204145 0.000949765)
(-2.50163e-05 8.42761e-05 0.00100857)
(0.000153863 1.93591e-05 0.00108383)
(-0.000363099 5.85221e-05 0.00115927)
(-7.15871e-07 -8.60049e-05 0.00070926)
(0.00012938 -0.000175916 0.000843874)
(8.2057e-05 -0.000131754 0.00076419)
(9.08155e-05 -0.000242442 0.000761082)
(0.000135863 -0.000194071 0.000870301)
(5.70843e-06 -0.000128225 0.000998134)
(-3.59374e-05 1.88e-05 0.0010175)
(3.95158e-05 -6.8037e-05 0.000884452)
(0.000100829 -3.41232e-05 0.00084554)
(0.000173269 -0.000161838 0.000788693)
(9.32322e-05 -0.000183871 0.000887388)
(8.56702e-05 -8.25486e-05 0.000614068)
(9.87669e-05 5.43498e-05 0.000993917)
(-7.46033e-05 0.000187261 0.00121329)
(0.000133169 0.000133479 0.0009348)
(3.45537e-05 -1.16547e-05 0.000951723)
(0.000102198 1.42688e-05 0.000984461)
(0.000126874 -0.00015146 0.00076039)
(4.27003e-05 -0.000303944 0.000502303)
(2.38184e-05 -0.000234197 0.000813935)
(7.9842e-05 4.44005e-05 0.000991552)
(-1.52998e-05 6.55076e-05 0.00110833)
(9.56849e-06 0.000131766 0.000839472)
(3.93394e-05 8.63063e-05 0.000912338)
(4.83402e-06 5.62344e-06 0.000917809)
(9.42226e-05 -8.06998e-05 0.000844281)
(7.59091e-05 -0.000178033 0.000882997)
(-7.88121e-05 5.57727e-05 0.000906098)
(2.25181e-05 -3.94701e-05 0.00095266)
(-4.3035e-06 -8.42078e-05 0.00112163)
(7.82758e-05 -5.23579e-05 0.000804121)
(8.59363e-05 -0.00011837 0.000882494)
(7.09623e-05 -4.72904e-05 0.000889068)
(8.20607e-05 -0.000134818 0.000883251)
(-2.3522e-05 -0.000107796 0.000893046)
(3.9152e-05 -5.79119e-05 0.000980196)
(5.53957e-05 1.01136e-05 0.00098363)
(5.55528e-05 -5.70021e-06 0.00109415)
(0.000118442 -7.42859e-05 0.000944329)
(-4.21058e-06 -0.000143377 0.000895945)
(0.000165342 -0.000139998 0.000903957)
(8.82009e-05 -9.43948e-05 0.00087326)
(-1.43952e-06 -1.96927e-05 0.000932931)
(-1.47591e-05 -4.26805e-05 0.0010388)
(-7.15433e-06 3.50634e-05 0.00109624)
(2.68343e-05 -6.35542e-06 0.00105132)
(0.000206855 2.53564e-05 0.000977092)
(2.92575e-05 -3.49468e-05 0.000989002)
(5.82026e-05 -1.2642e-05 0.000850964)
(0.000262808 -4.87919e-05 0.00100683)
(0.00012278 -4.29925e-05 0.00100463)
(0.000200477 -8.48502e-05 0.00102931)
(1.08789e-05 6.87298e-05 0.00108195)
(2.06789e-05 2.51383e-05 0.00109321)
(0.000369352 -0.00029637 0.0010234)
(9.01135e-05 -0.000110678 0.00097679)
(0.000101816 -0.000113898 0.000916845)
(0.000205846 -8.31774e-06 0.000853914)
(0.00013067 -1.98878e-05 0.000862167)
(0.00013098 -7.8184e-05 0.00130779)
(2.3051e-05 -5.43527e-06 0.00102757)
(-1.52426e-05 2.21675e-05 0.00108083)
(4.06474e-05 -0.000156875 0.00086049)
(0.000113253 -0.000159769 0.000836689)
(8.05768e-05 -0.000101503 0.000851716)
(0.000471967 8.07891e-06 0.00119864)
(0.000210797 -0.00033587 0.00100401)
(3.70742e-05 -0.0001474 0.000894438)
(-3.91108e-05 -7.69994e-05 0.00127944)
(2.83924e-05 6.66827e-06 0.000912889)
(6.16708e-05 -3.57372e-05 0.000930124)
(3.5402e-05 1.16605e-05 0.000913177)
(6.56991e-06 -9.08719e-06 0.00089472)
(4.1196e-05 -0.000117734 0.000898421)
(-2.53413e-05 -0.000306187 0.000748983)
(-0.000182243 -0.000224824 0.000752822)
(-6.80701e-05 -7.47646e-05 0.000889569)
(-2.76719e-05 2.24435e-05 0.00111586)
(-2.43611e-06 4.36031e-05 0.000892813)
(-3.75751e-05 7.97318e-05 0.00093343)
(1.89107e-05 1.49896e-06 0.000943389)
(6.1067e-05 -7.27056e-05 0.000864201)
(9.01693e-05 -0.000181092 0.000764461)
(-6.33505e-06 -0.000159293 0.000679152)
(3.40125e-05 -6.57584e-05 0.000989995)
(-1.78831e-05 7.9289e-06 0.00117991)
(6.88019e-05 0.000171917 0.000808306)
(3.96232e-05 3.46322e-05 0.000996621)
(8.3679e-05 1.3312e-05 0.000928632)
(1.73077e-05 -6.26393e-05 0.000846838)
(2.1809e-05 -4.88184e-05 0.000728533)
(1.74918e-05 -5.47933e-05 0.000855681)
(-7.77564e-06 -2.65685e-05 0.00101979)
(-4.58611e-05 2.17115e-05 0.00115882)
(0.000137672 2.00154e-05 0.000940371)
(5.95505e-05 -3.56222e-05 0.00114335)
(-0.000224687 5.28676e-05 0.00105708)
(-0.000204515 0.000126819 0.000984734)
(-1.8352e-05 -6.15225e-06 0.000946953)
(-9.82046e-05 -5.64177e-05 0.00100502)
(-8.97858e-05 2.53735e-05 0.00097758)
(1.61783e-05 1.09079e-06 0.00109918)
(0.000102467 -6.55623e-05 0.000897891)
(5.51569e-05 -0.000113234 0.000949857)
(-1.26896e-05 -0.000108207 0.000951745)
(-5.93406e-05 -0.000146098 0.000959841)
(-0.000119882 1.23608e-05 0.000994016)
(-4.72193e-05 0.000339973 0.00104004)
(-3.42334e-05 2.461e-05 0.00105982)
(-6.03901e-05 1.09556e-05 0.00112338)
(0.000151545 -8.80504e-05 0.000908558)
(0.000156658 -8.79402e-05 0.000933745)
(0.000112571 -9.52069e-05 0.000890684)
(5.12363e-05 -0.000128983 0.00102599)
(1.63902e-05 -7.81458e-05 0.00103266)
(3.29246e-06 -1.66264e-05 0.00105471)
(0.000715205 0.000256591 0.0010085)
(-1.74853e-05 2.17725e-05 0.00115902)
(0.000185683 -0.000123886 0.000824228)
(0.000158733 -0.000169879 0.000969259)
(0.00016667 -8.56558e-05 0.000984684)
(8.61396e-05 -8.73624e-05 0.000987286)
(3.68701e-05 -0.000230548 0.000990904)
(8.80056e-05 -9.97517e-05 0.00111796)
(1.15732e-05 0.000121456 0.00100341)
(3.58122e-05 5.80395e-05 0.00111338)
(0.000199846 -4.37648e-05 0.000847995)
(0.000172766 -0.00014447 0.00086838)
(0.000156742 -8.67543e-05 0.000882677)
(3.55955e-05 -0.000106868 0.000821757)
(-2.47844e-05 -0.000120788 0.000940483)
(-5.1855e-05 -5.13883e-05 0.000953999)
(-0.000138732 5.20019e-05 0.000983497)
(-5.74198e-05 6.48106e-05 0.00100263)
(0.000125664 -0.000156404 0.000910183)
(-0.00016005 -0.000418424 0.000768462)
(4.15239e-05 -4.12471e-05 0.000886459)
(0.000157609 -0.000143176 0.000773487)
(0.000158361 -0.000141283 0.000660759)
(2.0652e-06 -0.000166705 0.000883879)
(-0.000262154 -7.75356e-05 0.000995679)
(-0.000234797 0.000205304 0.00122005)
(0.000333836 0.000330624 0.000909831)
(0.000132551 4.44924e-05 0.000926301)
(0.000174566 -4.11896e-05 0.000933669)
(0.00470911 9.42105e-05 -0.00163031)
(5.37958e-05 -0.000102766 0.000775245)
(-0.000518657 -0.000328951 0.000687251)
(-0.000117113 -5.1469e-05 0.000949412)
(-1.49039e-06 0.000192037 0.00113604)
(0.00116349 0.000597294 0.000324523)
(0.000211979 -8.59605e-05 0.00113396)
(0.000244024 -2.28125e-06 0.000929195)
(7.77926e-05 -0.000235488 0.000800997)
(7.65289e-06 -0.000158848 0.000782341)
(-3.30598e-05 -0.000117922 0.0009339)
(-9.03427e-05 -5.94338e-05 0.00108857)
(-0.000175371 0.000342149 0.00102568)
(0.000123685 -8.40516e-05 0.000928002)
(-3.05218e-07 -0.000207542 0.00126611)
(-0.000610776 0.00105581 0.00112693)
(-0.000261802 -0.000308533 0.000965288)
(-5.92321e-05 -9.95324e-05 0.000952744)
(-3.15419e-05 -0.000152563 0.00101296)
(-0.000391066 -0.00112375 0.000769394)
(3.22045e-05 4.88781e-06 0.0010222)
(-0.000283071 -0.00053348 0.000673467)
(-9.22498e-05 -1.49733e-05 0.00100178)
(-3.47545e-05 -5.94606e-05 0.000943562)
(-0.000158323 -0.000193029 0.000948955)
(-6.72915e-05 -5.58048e-06 0.00100136)
(5.36477e-05 -0.000153941 0.00100525)
(1.30449e-05 -2.07484e-05 0.0010816)
(-0.000182563 -6.47125e-05 0.00111672)
(0.000451373 -0.000959434 0.000697787)
(5.92787e-05 -6.71274e-05 0.000915072)
(-0.00226882 -0.00164872 -0.00216908)
(-0.000262729 5.53452e-05 0.000967822)
(-0.000256478 -5.85577e-05 0.000924489)
(-4.92386e-06 1.24114e-05 0.0010132)
(-9.11102e-05 0.000280426 0.00104412)
(-0.000124989 0.000101768 0.00114783)
(3.78317e-05 -0.000124937 0.000841614)
(7.18348e-05 -0.000127509 0.00102278)
(-0.00136246 -0.000850367 -0.000564623)
(0.000152851 -0.000270455 0.00099416)
(-3.48494e-05 4.46451e-05 0.000983563)
(0.000106132 3.50633e-05 0.00102202)
(-9.36143e-05 0.000374381 0.00111338)
(-9.62163e-05 0.000162757 0.00110255)
(-1.42747e-05 -0.000151223 0.000836108)
(0.000152404 -0.000224384 0.000817502)
(-0.000133141 -0.00023105 0.00096477)
(-4.53631e-05 -0.00011678 0.000823767)
(-3.64506e-05 -2.74242e-05 0.000826463)
(-6.02418e-05 5.85042e-05 0.000901642)
(-0.000108794 0.00010077 0.00092625)
(-0.00100739 -0.000388084 0.00101881)
(0 0 0)
(0 0 0)
(0 0 0)
(0 0 0)
(0 0 0)
(0 0 0)
(0 0 0)
(0 0 0)
(0 0 0)
(0 0 0)
(0 0 0)
(0 0 0)
(0 0 0)
(0 0 0)
(0 0 0)
(0 0 0)
(0 0 0)
(0 0 0)
(0 0 0)
(0 0 0)
(0 0 0)
(0 0 0)
(0 0 0)
(0 0 0)
(0 0 0)
(0 0 0)
(0 0 0)
(0 0 0)
(0 0 0)
(-0.000216988 -0.000222682 0.000903332)
(-0.00265638 -0.00663798 -0.000101553)
(0 0 0)
(0 0 0)
(0 0 0)
(0 0 0)
(0 0 0)
(0 0 0)
(0 0 0)
(0 0 0)
(0 0 0)
(0 0 0)
(0 0 0)
(0 0 0)
(0 0 0)
(0 0 0)
(0 0 0)
(0 0 0)
(0 0 0)
(0 0 0)
(0 0 0)
(0 0 0)
(0 0 0)
(0 0 0)
(0 0 0)
(0 0 0)
(0 0 0)
(0 0 0)
(0 0 0)
(0 0 0)
(0 0 0)
(0 0 0)
(0 0 0)
(0 0 0)
(0 0 0)
(0 0 0)
(0 0 0)
(0 0 0)
(0 0 0)
(0 0 0)
(0 0 0)
(0 0 0)
(0 0 0)
(0 0 0)
(0 0 0)
(0 0 0)
(0 0 0)
(0 0 0)
(0 0 0)
(0 0 0)
(0 0 0)
(0 0 0)
(0 0 0)
(0 0 0)
(0 0 0)
(0 0 0)
(0 0 0)
(0 0 0)
(0 0 0)
(0 0 0)
(0 0 0)
(0 0 0)
(0 0 0)
(0 0 0)
(0 0 0)
(0 0 0)
(0 0 0)
(0 0 0)
(0 0 0)
(0 0 0)
(0 0 0)
(0 0 0)
(0 0 0)
(0 0 0)
(0 0 0)
(0 0 0)
(0 0 0)
(0 0 0)
(0 0 0)
(0 0 0)
(0 0 0)
(0 0 0)
(0 0 0)
(0 0 0)
(0 0 0)
(0 0 0)
(0 0 0)
(0 0 0)
(0 0 0)
(0 0 0)
(0 0 0)
(0 0 0)
(0 0 0)
(0 0 0)
(0 0 0)
(0 0 0)
(0 0 0)
(0 0 0)
(0 0 0)
(0 0 0)
(0 0 0)
(0 0 0)
(0 0 0)
(0 0 0)
(0 0 0)
(0 0 0)
(0 0 0)
(0 0 0)
(0 0 0)
(0 0 0)
(0 0 0)
(0 0 0)
(0 0 0)
(0 0 0)
(0 0 0)
(0 0 0)
(0 0 0)
(0 0 0)
(0 0 0)
(0 0 0)
(0 0 0)
(0 0 0)
(0 0 0)
(0 0 0)
(0 0 0)
(0 0 0)
(0 0 0)
(0 0 0)
(0 0 0)
(0 0 0)
(0 0 0)
(0 0 0)
(0 0 0)
(0 0 0)
(0 0 0)
(0 0 0)
(0 0 0)
(0 0 0)
(0 0 0)
(0 0 0)
(0 0 0)
(0 0 0)
(0 0 0)
(0 0 0)
(0 0 0)
(0 0 0)
(0 0 0)
(0 0 0)
(0 0 0)
(0 0 0)
(0 0 0)
(0 0 0)
(0 0 0)
(0 0 0)
(0 0 0)
(0 0 0)
(0 0 0)
(0 0 0)
(0 0 0)
(0 0 0)
(0 0 0)
(0 0 0)
(0 0 0)
(0 0 0)
(0 0 0)
(0 0 0)
(0 0 0)
(0 0 0)
(0 0 0)
(0 0 0)
(0 0 0)
(0 0 0)
(0 0 0)
(0 0 0)
(0 0 0)
(0 0 0)
(0 0 0)
(0 0 0)
(0 0 0)
(0 0 0)
(0 0 0)
(0 0 0)
(0 0 0)
(0 0 0)
(0 0 0)
(0 0 0)
(0 0 0)
(0 0 0)
(0 0 0)
(0 0 0)
(0 0 0)
(0 0 0)
(0 0 0)
(0 0 0)
(0 0 0)
(0 0 0)
(0 0 0)
(0 0 0)
(0 0 0)
(0 0 0)
(0 0 0)
(0 0 0)
(0 0 0)
(0 0 0)
(0 0 0)
(0 0 0)
(0 0 0)
(0 0 0)
(0 0 0)
(0 0 0)
(0 0 0)
(0 0 0)
(0 0 0)
(0 0 0)
(0 0 0)
(0 0 0)
(0 0 0)
(0 0 0)
(0 0 0)
(0 0 0)
(0 0 0)
(0 0 0)
(0 0 0)
(0 0 0)
(0 0 0)
(0 0 0)
(0 0 0)
(0 0 0)
(0 0 0)
(0 0 0)
(0 0 0)
(0 0 0)
(0 0 0)
(0 0 0)
(0 0 0)
(0 0 0)
(0 0 0)
(0 0 0)
(0 0 0)
(0 0 0)
(0 0 0)
(0 0 0)
(0 0 0)
(0 0 0)
(0 0 0)
(0 0 0)
(0 0 0)
(0 0 0)
(0 0 0)
(0 0 0)
(0 0 0)
(0 0 0)
(0 0 0)
(0 0 0)
(0 0 0)
(0 0 0)
(0 0 0)
(0 0 0)
(0 0 0)
(0 0 0)
(0 0 0)
(0 0 0)
(0 0 0)
(0 0 0)
(0 0 0)
(0 0 0)
(0 0 0)
(0 0 0)
(0 0 0)
(0 0 0)
(0 0 0)
(0 0 0)
(0 0 0)
(0 0 0)
(0 0 0)
(0 0 0)
(0 0 0)
(0 0 0)
(0 0 0)
(0 0 0)
(0 0 0)
(0 0 0)
(0 0 0)
(0 0 0)
(0 0 0)
(0 0 0)
(0 0 0)
(0 0 0)
(0 0 0)
(0 0 0)
(0 0 0)
(0 0 0)
(0 0 0)
(0 0 0)
(0 0 0)
(0 0 0)
(0 0 0)
(0 0 0)
(0 0 0)
(0 0 0)
(0 0 0)
(0 0 0)
(0 0 0)
(0 0 0)
(0 0 0)
(0 0 0)
(0 0 0)
(0 0 0)
(0 0 0)
(0 0 0)
(0 0 0)
(0 0 0)
(0 0 0)
(0 0 0)
(0 0 0)
(0 0 0)
(0 0 0)
(0 0 0)
(0 0 0)
(0 0 0)
(0 0 0)
(0 0 0)
(0 0 0)
(0 0 0)
(0 0 0)
(0 0 0)
(0 0 0)
(0 0 0)
(0 0 0)
(0 0 0)
(0 0 0)
(0 0 0)
(0 0 0)
(0 0 0)
(0 0 0)
(0 0 0)
(0 0 0)
(0 0 0)
(0 0 0)
(0 0 0)
(0 0 0)
(0 0 0)
(0 0 0)
(0 0 0)
(0 0 0)
(0 0 0)
(0 0 0)
(0 0 0)
(0 0 0)
(0 0 0)
(0 0 0)
(0 0 0)
(0 0 0)
(0 0 0)
(0 0 0)
(0 0 0)
(0 0 0)
(0 0 0)
(0 0 0)
(0 0 0)
(0 0 0)
(0 0 0)
(0 0 0)
(0 0 0)
(0 0 0)
(0 0 0)
(0 0 0)
(0 0 0)
(0 0 0)
(0 0 0)
(0 0 0)
(0 0 0)
(0 0 0)
(0 0 0)
(0 0 0)
(0 0 0)
(0 0 0)
(0 0 0)
(0 0 0)
(0 0 0)
(0 0 0)
(0 0 0)
(0 0 0)
(0 0 0)
(0 0 0)
(0 0 0)
(0 0 0)
(0 0 0)
(0 0 0)
(0 0 0)
(0 0 0)
(0 0 0)
(0 0 0)
(0 0 0)
(0 0 0)
(0 0 0)
(0 0 0)
(0 0 0)
(0 0 0)
(0 0 0)
(0 0 0)
(0 0 0)
(0 0 0)
(0 0 0)
(0 0 0)
(0 0 0)
(0 0 0)
(0 0 0)
(0 0 0)
(0 0 0)
(0 0 0)
(0 0 0)
(0 0 0)
(0 0 0)
(0 0 0)
(0 0 0)
(0 0 0)
(0 0 0)
(0 0 0)
(0 0 0)
(0 0 0)
(0 0 0)
(0 0 0)
(0 0 0)
(0 0 0)
(0 0 0)
(0 0 0)
(0 0 0)
(0 0 0)
(0 0 0)
(0 0 0)
(0 0 0)
(0 0 0)
(0 0 0)
(0 0 0)
(0 0 0)
(0 0 0)
(0 0 0)
(0 0 0)
(0 0 0)
(0 0 0)
(0 0 0)
(0 0 0)
(0 0 0)
(0 0 0)
(0 0 0)
(0 0 0)
(0 0 0)
(0 0 0)
(0 0 0)
(0 0 0)
(0 0 0)
(0 0 0)
(0 0 0)
(0 0 0)
(0 0 0)
(0 0 0)
(0 0 0)
(0 0 0)
(0 0 0)
(0 0 0)
(0 0 0)
(0 0 0)
(0 0 0)
(0 0 0)
(0 0 0)
(0 0 0)
(0 0 0)
(0 0 0)
(0 0 0)
(0 0 0)
(0 0 0)
(0 0 0)
(0 0 0)
(0 0 0)
(0 0 0)
(0 0 0)
(0 0 0)
(0 0 0)
(0 0 0)
(0 0 0)
(0 0 0)
(0 0 0)
(0 0 0)
(0 0 0)
(0 0 0)
(0 0 0)
(0 0 0)
(0 0 0)
(0 0 0)
(0 0 0)
(0 0 0)
(0 0 0)
(0 0 0)
(0 0 0)
(0 0 0)
(0 0 0)
(0 0 0)
(0 0 0)
(0 0 0)
(0 0 0)
(0 0 0)
(0 0 0)
(0 0 0)
(0 0 0)
(0 0 0)
(0 0 0)
(0 0 0)
(0 0 0)
(0 0 0)
(0 0 0)
(0 0 0)
(0 0 0)
(0 0 0)
(0 0 0)
(0 0 0)
(0 0 0)
(0 0 0)
(0 0 0)
(0 0 0)
(0 0 0)
(0 0 0)
(0 0 0)
(0 0 0)
(0 0 0)
(0 0 0)
(0 0 0)
(0 0 0)
(0 0 0)
(0 0 0)
(0 0 0)
(0 0 0)
(0 0 0)
(0 0 0)
(0 0 0)
(0 0 0)
(0 0 0)
(0 0 0)
(0 0 0)
(0 0 0)
(0 0 0)
(0 0 0)
(0 0 0)
(0 0 0)
(0 0 0)
(0 0 0)
(0 0 0)
(0 0 0)
(0 0 0)
(0 0 0)
(0 0 0)
(0 0 0)
(0 0 0)
(0 0 0)
(0 0 0)
(0 0 0)
(0 0 0)
(0 0 0)
(0 0 0)
(0 0 0)
(0 0 0)
(0 0 0)
(0 0 0)
(0 0 0)
(0 0 0)
(0 0 0)
(0 0 0)
(0 0 0)
(0 0 0)
(0 0 0)
(0 0 0)
(0 0 0)
(0 0 0)
(0 0 0)
(0 0 0)
(0 0 0)
(0 0 0)
(0 0 0)
(0 0 0)
(0 0 0)
(0 0 0)
(0 0 0)
(0 0 0)
(0 0 0)
(0 0 0)
(0 0 0)
(0 0 0)
(0 0 0)
(0 0 0)
(0 0 0)
(0 0 0)
(0 0 0)
(0 0 0)
(0 0 0)
(0 0 0)
(0 0 0)
(0 0 0)
(0 0 0)
(0 0 0)
(0 0 0)
(0 0 0)
(0 0 0)
(0 0 0)
(0 0 0)
(0 0 0)
(0 0 0)
(0 0 0)
(0 0 0)
(0 0 0)
(0 0 0)
(0 0 0)
(0 0 0)
(0 0 0)
(0 0 0)
(0 0 0)
(0 0 0)
(0 0 0)
(0 0 0)
(0 0 0)
(0 0 0)
(0 0 0)
(0 0 0)
(0 0 0)
(0 0 0)
(0 0 0)
(0 0 0)
(0 0 0)
(0 0 0)
(0 0 0)
(0 0 0)
(0 0 0)
(0 0 0)
(0 0 0)
(0 0 0)
(0 0 0)
(0 0 0)
(0 0 0)
(0 0 0)
(0 0 0)
(0 0 0)
(0 0 0)
(0 0 0)
(0 0 0)
(0 0 0)
(0 0 0)
(0 0 0)
(0 0 0)
(0 0 0)
(0 0 0)
(0 0 0)
(0 0 0)
(0 0 0)
(0 0 0)
(0 0 0)
(0 0 0)
(0 0 0)
(0 0 0)
(0 0 0)
(0 0 0)
(0 0 0)
(0 0 0)
(0 0 0)
(0 0 0)
(0 0 0)
(0 0 0)
(0 0 0)
(0 0 0)
(0 0 0)
(0 0 0)
(0 0 0)
(0 0 0)
(0 0 0)
(0 0 0)
(0 0 0)
(0 0 0)
(0 0 0)
(0 0 0)
(0 0 0)
(0 0 0)
(0 0 0)
(0 0 0)
(0 0 0)
(0 0 0)
(0 0 0)
(0 0 0)
(0 0 0)
(0 0 0)
(0 0 0)
(0 0 0)
(0 0 0)
(0 0 0)
(0 0 0)
(0 0 0)
(0 0 0)
(0 0 0)
(0 0 0)
(0 0 0)
(0 0 0)
(0 0 0)
(0 0 0)
(0 0 0)
(0 0 0)
(0 0 0)
(0 0 0)
(0 0 0)
(0 0 0)
(0 0 0)
(0 0 0)
(0 0 0)
(0 0 0)
(0 0 0)
(0 0 0)
(0 0 0)
(0 0 0)
(0 0 0)
(0 0 0)
(0 0 0)
(0 0 0)
(0 0 0)
(0 0 0)
(0 0 0)
(0 0 0)
(0 0 0)
(0 0 0)
(0 0 0)
(0 0 0)
(0 0 0)
(0 0 0)
(0 0 0)
(0 0 0)
(0 0 0)
(0 0 0)
(0 0 0)
(0 0 0)
(0 0 0)
(0 0 0)
(0 0 0)
(0 0 0)
(0 0 0)
(0 0 0)
(0 0 0)
(0 0 0)
(0 0 0)
(0 0 0)
(0 0 0)
(0 0 0)
(0 0 0)
(0 0 0)
(0 0 0)
(0 0 0)
(0 0 0)
(0 0 0)
(0 0 0)
(0 0 0)
(0 0 0)
(0 0 0)
(0 0 0)
(0 0 0)
(0 0 0)
(0 0 0)
(0 0 0)
(0 0 0)
(0 0 0)
(0 0 0)
(0 0 0)
(0 0 0)
(0 0 0)
(0 0 0)
(0 0 0)
(0 0 0)
(0 0 0)
(0 0 0)
(0 0 0)
(0 0 0)
(0 0 0)
(0 0 0)
(0 0 0)
(0 0 0)
(0 0 0)
(0 0 0)
(0 0 0)
(0 0 0)
(0 0 0)
(0 0 0)
(0 0 0)
(0 0 0)
(0 0 0)
(0 0 0)
(0 0 0)
(0 0 0)
(0 0 0)
(0 0 0)
(0 0 0)
(0 0 0)
(0 0 0)
(0 0 0)
(0 0 0)
(0 0 0)
(0 0 0)
(0 0 0)
(0 0 0)
(0 0 0)
(0 0 0)
(0 0 0)
(0 0 0)
(0 0 0)
(0 0 0)
(0 0 0)
(0 0 0)
(0 0 0)
(0 0 0)
(0 0 0)
(0 0 0)
(0 0 0)
(0 0 0)
(0 0 0)
(0 0 0)
(0 0 0)
(0 0 0)
(0 0 0)
(0 0 0)
(0 0 0)
(0 0 0)
(0 0 0)
(0 0 0)
(0 0 0)
(0 0 0)
(0 0 0)
(0 0 0)
(0 0 0)
(0 0 0)
(0 0 0)
(0 0 0)
(0 0 0)
(0 0 0)
(0 0 0)
(0 0 0)
(0 0 0)
(0 0 0)
(0 0 0)
(0 0 0)
(0 0 0)
(0 0 0)
(0 0 0)
(0 0 0)
(0 0 0)
(0 0 0)
(0 0 0)
(0 0 0)
(0 0 0)
(0 0 0)
(0 0 0)
(0 0 0)
(0 0 0)
(0 0 0)
(0 0 0)
(0 0 0)
(0 0 0)
(0 0 0)
(0 0 0)
(0 0 0)
(0 0 0)
(0 0 0)
(0 0 0)
(0 0 0)
(0 0 0)
(0 0 0)
(0 0 0)
(0 0 0)
(0 0 0)
(0 0 0)
(0 0 0)
(0 0 0)
(0 0 0)
(0 0 0)
(0 0 0)
(0 0 0)
(0 0 0)
(0 0 0)
(0 0 0)
(0 0 0)
(0 0 0)
(0 0 0)
(0 0 0)
(0 0 0)
(0 0 0)
(0 0 0)
(0 0 0)
(0 0 0)
(0 0 0)
(0 0 0)
(0 0 0)
(0 0 0)
(0 0 0)
(0 0 0)
(0 0 0)
(0 0 0)
(0 0 0)
(0 0 0)
(0 0 0)
(0 0 0)
(0 0 0)
(0 0 0)
(0 0 0)
(0 0 0)
(0 0 0)
(0 0 0)
(0 0 0)
(0 0 0)
(0 0 0)
(0 0 0)
(0 0 0)
(0 0 0)
(0 0 0)
(0 0 0)
(0 0 0)
(0 0 0)
(0 0 0)
(0 0 0)
(0 0 0)
(0 0 0)
(0 0 0)
(0 0 0)
(0 0 0)
(0 0 0)
(0 0 0)
(0 0 0)
(0 0 0)
(0 0 0)
(0 0 0)
(0 0 0)
(0 0 0)
(0 0 0)
(0 0 0)
(0 0 0)
(0 0 0)
(0 0 0)
(0 0 0)
(0 0 0)
(0 0 0)
(0 0 0)
(0 0 0)
(0 0 0)
(0 0 0)
(0 0 0)
(0 0 0)
(0 0 0)
(0 0 0)
(0 0 0)
(0 0 0)
(0 0 0)
(0 0 0)
(0 0 0)
(0 0 0)
(0 0 0)
(0 0 0)
(0 0 0)
(0 0 0)
(0 0 0)
(0 0 0)
(0 0 0)
(0 0 0)
(0 0 0)
(0 0 0)
(0 0 0)
(0 0 0)
(0 0 0)
(0 0 0)
(0 0 0)
(0 0 0)
(0 0 0)
(0 0 0)
(0 0 0)
(0 0 0)
(0 0 0)
(0 0 0)
(0 0 0)
(0 0 0)
(0 0 0)
(0 0 0)
(0 0 0)
(0 0 0)
(0 0 0)
(0 0 0)
(0 0 0)
(0 0 0)
(0 0 0)
(0 0 0)
(0 0 0)
(0 0 0)
(0 0 0)
(0 0 0)
(0 0 0)
(0 0 0)
(0 0 0)
(0 0 0)
(0 0 0)
(0 0 0)
(0 0 0)
(0 0 0)
(0 0 0)
(0 0 0)
(0 0 0)
(0 0 0)
(0 0 0)
(0 0 0)
(0 0 0)
(0 0 0)
(0 0 0)
(0 0 0)
(0 0 0)
(0 0 0)
(0 0 0)
(0 0 0)
(0 0 0)
(0 0 0)
(0 0 0)
(0 0 0)
(0 0 0)
(0 0 0)
(0 0 0)
(0 0 0)
(0 0 0)
(0 0 0)
(0 0 0)
(0 0 0)
(0 0 0)
(0 0 0)
(0 0 0)
(0 0 0)
(0 0 0)
(0 0 0)
(0 0 0)
(0 0 0)
(0 0 0)
(0 0 0)
(0 0 0)
(0 0 0)
(0 0 0)
(0 0 0)
(0 0 0)
(0 0 0)
(0 0 0)
(0 0 0)
(0 0 0)
(0 0 0)
(0 0 0)
(0 0 0)
(0 0 0)
(0 0 0)
(0 0 0)
(0 0 0)
(0 0 0)
(0 0 0)
(0 0 0)
(0 0 0)
(0 0 0)
(0 0 0)
(0 0 0)
(1.08104e-06 -1.80803e-05 3.25066e-05)
(-9.25341e-06 0.000119973 0.000182683)
(3.35509e-05 -5.69217e-06 0.000145771)
(-1.05704e-05 -9.47366e-05 -1.58867e-06)
(-0.000123603 4.96763e-05 3.62541e-05)
(0.000484942 9.63644e-05 -0.000230604)
(0.000285589 -0.000477917 7.57033e-07)
(5.80678e-05 -0.000290692 8.75834e-06)
(7.47757e-05 -3.75041e-05 3.69056e-05)
(1.54107e-05 3.29948e-06 9.7645e-05)
(-6.52749e-05 -0.00029657 0.000209839)
(-2.4286e-05 2.85266e-05 0.000202193)
(-0.000222218 -3.37089e-05 3.08096e-05)
(-5.44935e-05 -0.000105008 5.77356e-05)
(-4.66292e-05 -0.000180453 -0.000172113)
(-4.52204e-05 -0.000141848 -1.23063e-05)
(7.10327e-05 2.44131e-05 4.15765e-05)
(0.000412994 0.000131818 0.000122816)
(-6.70223e-06 -0.000216705 0.000191219)
(-7.03857e-05 -6.92988e-06 0.000120956)
(9.74172e-05 -0.000133917 6.52988e-05)
(-0.000121596 -5.84327e-05 7.66813e-05)
(-0.000239643 2.09624e-05 0.000129962)
(-6.99548e-05 -9.64672e-05 0.000140304)
(0.000115763 4.17041e-05 6.63566e-05)
(5.62671e-05 9.10758e-05 3.0093e-05)
(0.000196614 2.7801e-05 6.55337e-05)
(0.000310737 8.27125e-05 -5.99101e-06)
(-5.84117e-05 -6.57778e-05 3.0133e-05)
(2.97092e-06 -7.96414e-05 2.1698e-05)
(5.19734e-05 -0.000278125 0.000192783)
(5.78486e-05 -0.00010597 0.000189708)
(-2.04828e-05 0.00017371 0.000508752)
(-6.87772e-05 7.87354e-05 0.000674594)
(-0.000134325 -3.13577e-06 0.000609791)
(0.000140885 -7.62157e-05 0.000553903)
(4.03851e-05 4.11482e-05 0.000570666)
(0.0003115 1.91197e-05 3.31108e-05)
(7.69501e-05 0.000223821 0.000212185)
(2.92764e-05 -0.000147631 0.000157281)
(0.000220408 -0.000184795 0.000185125)
(-0.000237127 0.000104572 0.000638045)
(-0.000250173 -0.000201654 0.000659187)
(-8.97924e-05 -0.000161891 0.000463165)
(-0.000196796 0.000136491 0.000264515)
(-5.82898e-06 -8.89194e-05 0.000330918)
(-5.26525e-05 -8.06136e-05 -2.5191e-05)
(-6.03447e-05 -0.000103595 0.000222052)
(0.000303895 -7.90933e-05 0.000103621)
(-2.7115e-05 0.00015576 0.00033991)
(9.51526e-05 -3.80412e-05 0.000356715)
(0.000147944 -0.000240923 0.000365149)
(-4.62181e-05 6.7623e-05 0.000327279)
(6.79012e-05 -0.000107169 0.000264811)
(5.18998e-05 0.000127737 0.000598275)
(-5.17978e-05 -2.43434e-05 0.000312428)
(0.00028322 0.000121767 5.32259e-05)
(0.000217358 0.000101492 6.17311e-05)
(0.000134058 -4.27665e-05 0.000273032)
(2.02997e-06 -5.99703e-05 0.000455043)
(-4.53219e-05 -5.27945e-05 0.000193076)
(2.37896e-05 -5.14539e-05 9.72218e-05)
(-3.57367e-05 -0.00012674 0.000374577)
(0.000133952 -0.000171391 0.00029923)
(0.000184218 7.552e-05 0.000781809)
(0.000122453 4.3172e-05 0.000960159)
(5.3395e-05 0.000193258 0.000859583)
(0.00026752 0.000121825 0.00052568)
(0.000407517 -0.000106813 0.000573109)
(0.000179012 -0.000286571 0.000561658)
(0.00047274 0.000588418 0.000769812)
(0.000201303 -9.1599e-05 0.000420623)
(0.000104729 7.36905e-05 0.000604673)
(3.52903e-05 0.000147508 0.000639855)
(-7.40544e-06 5.42111e-05 0.000761677)
(-0.000134789 0.000417494 0.000668112)
(0.000274012 4.64554e-05 0.000482815)
(1.10297e-05 -0.000233533 0.000371702)
(5.94896e-05 2.29242e-05 0.000406229)
(7.21015e-05 -8.68127e-05 0.000387047)
(4.14132e-05 0.000140208 0.000453401)