/*--------------------------------*- C++ -*----------------------------------*\
| =========                 |                                                 |
| \\      /  F ield         | OpenFOAM: The Open Source CFD Toolbox           |
|  \\    /   O peration     | Version:  2506                                  |
|   \\  /    A nd           | Website:  www.openfoam.com                      |
|    \\/     M anipulation  |                                                 |
\*---------------------------------------------------------------------------*/
FoamFile
{
    version     2.0;
    format      ascii;
    arch        "LSB;label=32;scalar=64";
    class       surfaceScalarField;
    location    "0.003";
    object      phi;
}
// * * * * * * * * * * * * * * * * * * * * * * * * * * * * * * * * * * * * * //

dimensions      [0 3 -1 0 0 0 0];

oriented        oriented;

internalField   nonuniform List<scalar> 
1200
(
0.00243786
2.00214e-05
6.65531e-05
0.00244974
-1.21524e-05
-2.05548e-05
0.00251213
-3.35854e-05
-7.46761e-05
0.00254967
-2.15057e-05
-3.64169e-05
0.00257519
-1.18628e-05
-1.39595e-05
0.0026109
-1.19088e-05
-2.10454e-05
0.00263761
-1.62117e-05
-1.99843e-05
0.00266164
-1.30249e-05
-1.04949e-05
0.00269128
-8.19646e-06
-8.37391e-06
0.00270397
-7.55704e-06
-1.49762e-05
0.00270032
-7.99811e-06
-1.98701e-05
0.00270704
-6.47111e-06
-1.74924e-05
0.00272022
-2.74139e-06
-1.64313e-05
0.00272047
1.17105e-06
-2.24009e-05
0.00271375
3.05149e-06
-2.65463e-05
0.0027072
5.75032e-06
-1.91977e-05
0.00268843
1.14363e-05
-2.13079e-06
0.00262984
3.15883e-05
3.28569e-06
0.00256265
2.92246e-05
6.25826e-06
0.00252924
-6.3299e-06
3.09689e-05
0.00254495
-2.27063e-05
1.49754e-05
0.00260008
-1.76483e-05
-3.25483e-05
0.00266338
-1.54427e-05
-4.08493e-05
0.00270424
-1.21018e-05
-2.44783e-05
0.00272727
-5.09428e-06
-1.94111e-05
0.00272529
6.03264e-06
1.65133e-06
0.00270446
1.10573e-05
3.05861e-05
0.00267834
1.30896e-05
4.10691e-05
0.00265548
1.49978e-05
3.45634e-05
0.00262074
2.39343e-05
4.60913e-05
0.00257403
3.12156e-05
8.51609e-05
3.61076e-05
0.000101251
0.00255478
3.25339e-05
6.31914e-05
0.0025445
-6.71781e-06
-4.02025e-06
0.00256749
-5.56782e-05
-5.77969e-05
0.00257048
-3.24531e-05
-3.17561e-05
0.00258423
-2.26211e-05
-1.77255e-05
0.00262348
-3.22781e-05
-2.8939e-05
0.00265309
-2.96779e-05
-2.32368e-05
0.00267607
-2.03399e-05
-1.01125e-05
0.00270242
-1.31197e-05
-8.94238e-06
0.00271511
-1.16974e-05
-1.85806e-05
0.00271429
-1.32993e-05
-2.08792e-05
0.0027226
-1.284e-05
-1.4832e-05
0.00273504
-6.31905e-06
-1.63763e-05
0.00273413
2.41777e-07
-2.26647e-05
0.00272663
2.62022e-06
-2.28416e-05
0.0027239
7.09867e-06
-1.62211e-05
0.00272331
1.07532e-05
-5.18759e-06
0.00272695
1.9024e-05
-1.36864e-06
0.00270464
2.41419e-05
4.75007e-06
0.00261199
2.49793e-05
3.663e-05
0.00254038
1.20961e-05
2.10776e-05
0.00258426
-1.89213e-05
-4.72287e-05
0.00266658
-4.32209e-05
-4.53584e-05
0.00272457
-4.14391e-05
-1.65836e-05
0.00274906
-1.31406e-05
-1.1756e-05
0.00274083
1.19692e-05
1.39541e-05
0.00271867
1.73031e-05
4.11958e-05
0.00269698
2.27225e-05
4.14408e-05
0.00267334
3.40781e-05
3.09266e-05
0.00263055
5.47456e-05
4.65584e-05
0.00259231
6.07573e-05
6.71789e-05
4.09887e-05
7.08632e-05
0.002605
3.32948e-05
5.04761e-05
0.00260899
-2.57286e-05
9.14826e-06
0.00254549
-3.84015e-05
-1.49467e-05
0.00251413
-1.41831e-05
-2.10129e-05
0.00256905
-4.5049e-05
-4.58099e-05
0.00263383
-6.4556e-05
-4.5688e-05
0.00266213
-4.55211e-05
-1.82371e-05
0.00268079
-2.56845e-05
-6.47857e-06
0.00270293
-1.47024e-05
-1.028e-05
0.00271423
-1.28247e-05
-1.85899e-05
0.00271637
-1.44963e-05
-2.00789e-05
0.00272886
-1.30337e-05
-1.84469e-05
0.00273967
-5.09668e-06
-2.26227e-05
0.00273593
2.83419e-07
-2.8286e-05
0.00273082
1.07804e-06
-2.71685e-05
0.00273107
2.41841e-06
-8.65167e-06
0.00273363
1.69628e-06
6.15103e-06
0.00272924
9.43826e-06
1.00051e-06
0.00270778
2.16045e-05
-8.11028e-06
0.00263553
4.74273e-05
6.57808e-06
0.00255635
5.66976e-05
-2.53288e-06
0.0025896
-1.54784e-05
-3.10472e-05
0.00267983
-8.18779e-05
-2.1685e-05
0.00274946
-6.20905e-05
-2.67125e-05
0.00277149
-1.00686e-05
-1.88806e-05
0.00274988
3.376e-06
4.64753e-05
0.00272673
4.55336e-06
6.98613e-05
0.00271476
2.51981e-05
4.23815e-05
0.0026961
5.13372e-05
2.78197e-05
0.00267783
7.58792e-05
3.31792e-05
0.0026536
8.58004e-05
5.03426e-05
6.82087e-05
7.02877e-05
0.00266765
2.33122e-05
2.53603e-05
0.00258839
2.39436e-05
1.48635e-05
0.00244396
3.52057e-05
2.54714e-05
0.00245202
-2.85903e-05
-3.20042e-05
0.00257491
-0.00010597
-8.42272e-05
0.00266203
-0.000104734
-5.7293e-05
0.00267998
-5.77016e-05
-5.97338e-06
0.00269
-2.88875e-05
3.54607e-06
0.00270285
-1.27686e-05
-8.77932e-06
0.00271239
-5.26438e-06
-2.77641e-05
0.00272032
-6.89364e-06
-2.98847e-05
0.00273691
-5.74502e-06
-2.30849e-05
0.00274353
1.67958e-06
-2.49712e-05
0.00273599
3.83197e-06
-3.32243e-05
0.00273182
-7.92888e-07
-2.88454e-05
0.00273411
-1.01214e-05
-1.94512e-06
0.00274046
-8.97044e-06
8.33802e-06
0.00273812
9.08812e-06
-9.09585e-06
0.00274788
1.99641e-05
-4.19435e-05
0.0027878
1.42409e-05
-4.14968e-05
0.002812
3.26668e-06
8.24466e-06
0.0028054
-5.04268e-05
4.93764e-05
0.00278913
-6.62046e-05
2.96001e-05
0.00278135
-3.79819e-06
-2.89173e-05
0.00277945
1.55253e-05
-1.72948e-05
0.00276464
-2.3791e-05
5.85194e-05
0.00275212
-2.38849e-05
7.56174e-05
0.00274559
2.59585e-05
3.73574e-05
0.00271984
8.0976e-05
1.94159e-05
0.00268143
0.000114262
2.60475e-05
0.00264
0.000114908
5.69494e-05
6.41377e-05
6.39744e-05
0.00273682
2.2986e-05
-1.52353e-05
0.0027906
2.20382e-06
-3.09061e-05
0.00284999
6.79385e-06
-1.21632e-05
0.00282576
-1.90122e-05
-2.0464e-05
0.00275115
-6.28451e-05
-4.04824e-05
0.00271171
-7.55188e-05
-2.92952e-05
0.00270792
-5.05164e-05
1.47234e-06
0.00271003
-2.46396e-05
1.54746e-05
0.00271109
-8.24258e-06
7.06019e-07
0.00271146
1.6767e-06
-2.41564e-05
0.00272282
3.66459e-06
-3.59797e-05
0.00274319
2.92891e-06
-2.71607e-05
0.00274695
-5.53275e-08
-1.46666e-05
0.00273352
-2.67441e-06
-1.66126e-05
0.00272103
1.83927e-06
-1.6453e-05
0.00273471
6.50058e-06
-3.7285e-05
0.00275585
8.10283e-06
-4.29566e-05
0.00274889
1.15721e-05
-1.54074e-05
0.00275366
5.02823e-06
-2.19433e-05
0.00277256
-1.73525e-05
-7.98602e-06
0.00277847
-4.52976e-05
4.68657e-05
0.00271702
-5.6196e-05
8.42908e-05
0.0026344
-2.26122e-05
5.22211e-05
0.00266077
-1.30593e-05
1.84698e-06
0.00273449
-3.28092e-05
-8.08631e-06
0.00278544
-7.51068e-05
1.79559e-05
0.00281048
-6.23547e-05
3.63836e-05
0.00279163
3.93596e-05
2.90375e-05
0.00275469
0.000118985
2.66473e-05
0.0027374
0.000130972
3.75679e-05
0.0027293
0.000125217
5.11696e-05
8.04335e-05
2.88314e-05
0.00281097
2.98969e-05
-1.92262e-05
0.00278885
6.12324e-06
-2.25242e-05
0.00279556
5.49564e-07
-1.85781e-05
0.00278716
-1.61227e-05
-1.94447e-05
0.00275997
-3.82401e-05
-2.0349e-05
0.0027375
-4.45966e-05
-1.2797e-05
0.00272704
-3.42073e-05
1.10537e-05
0.00272472
-1.91412e-05
2.57753e-05
0.00271888
-3.65192e-06
8.19152e-06
0.00271439
6.21365e-06
-1.88301e-05
0.00272465
6.72889e-06
-2.48913e-05
0.00273919
4.31377e-06
-8.13774e-06
0.00274408
-1.10853e-06
-1.33074e-05
0.00273763
-3.5692e-06
-2.9259e-05
0.00272432
4.71538e-06
-1.1206e-05
0.00273848
1.09864e-05
-1.95178e-05
0.00276152
1.09203e-05
-3.23604e-05
0.00274563
5.26716e-06
1.93529e-06
0.00272862
-5.3615e-06
7.82741e-06
0.00272669
-1.68316e-05
8.91787e-07
0.00272375
-4.48741e-05
3.34229e-05
0.00267493
-4.09121e-05
7.08423e-05
0.00261474
1.68991e-06
3.44952e-05
0.00262864
-2.47523e-05
-9.8156e-06
0.00268306
-6.82065e-05
-1.98486e-05
0.00270884
-8.94841e-05
-2.63288e-06
0.00271034
-5.41926e-05
3.30843e-06
0.00272391
1.60971e-05
2.48035e-05
0.00274018
9.53477e-05
3.23366e-05
0.00277038
0.000123434
2.41935e-05
0.0028289
0.000111709
1.78752e-05
7.61527e-05
3.84029e-07
0.00280696
3.49412e-05
-1.52815e-05
0.00277664
1.54438e-05
-5.45506e-07
0.00277107
2.44838e-06
-7.21424e-06
0.00276815
-5.44685e-06
-1.62282e-05
0.00275901
-1.44881e-05
-1.86524e-05
0.00274804
-2.1435e-05
-5.82848e-06
0.00274154
-2.43895e-05
2.08789e-05
0.00273956
-1.561e-05
3.12475e-05
0.00272675
6.6797e-07
1.15986e-05
0.00271582
7.71743e-06
-1.21631e-05
0.00272419
6.346e-06
-1.71047e-05
0.00273241
7.12385e-06
-9.85792e-07
0.00272011
1.15897e-05
-9.67597e-06
0.00270733
8.08646e-06
-3.34065e-05
0.00271401
-4.82324e-06
-1.13778e-05
0.00274048
-4.97781e-06
8.11599e-07
0.00275549
2.41556e-06
-7.70766e-06
0.00273695
-1.5662e-07
2.65906e-06
0.00271156
-6.32233e-06
9.61657e-06
0.00269125
-6.69502e-06
1.4788e-05
0.00265048
-9.79024e-06
3.76885e-05
0.00261235
-4.31323e-06
4.17551e-05
0.00261999
-1.02059e-05
1.57645e-05
0.00263339
-4.25062e-05
-1.37401e-05
0.00263861
-7.4443e-05
-1.98663e-05
0.00259598
-5.30021e-05
9.0102e-06
0.00252246
7.55637e-06
2.72922e-05
0.00255055
-1.29561e-05
1.63872e-05
0.00266084
-3.03409e-06
2.43524e-06
0.00274076
7.28983e-05
-1.07013e-05
0.00279188
9.09536e-05
-1.77928e-05
5.29122e-05
-2.762e-05
0.00277778
1.12909e-05
0.00274961
2.71706e-05
0.0027484
-3.79565e-07
0.00274813
-1.08278e-05
0.00274226
-7.09474e-06
0.0027327
4.28115e-06
0.00273771
1.87086e-05
0.00274323
2.3893e-05
0.00272125
7.06817e-06
0.00270301
-1.50573e-05
0.0027132
-1.44011e-05
0.00272579
5.89626e-06
0.0027261
7.46947e-06
0.00272242
-1.03796e-05
0.00272171
-1.13683e-05
0.00273353
-4.74192e-06
0.00273928
-7.36135e-06
0.00272036
-8.07585e-06
0.002694
3.49544e-06
0.00267879
1.62577e-05
0.00267181
3.51533e-05
0.00268143
4.24561e-05
0.00267818
1.37728e-05
0.00262554
-2.58649e-05
0.00252727
-1.7418e-05
0.002448
3.10686e-05
0.00243882
3.17555e-05
0.00243988
-1.58081e-06
0.00246503
-1.61731e-05
0.00258831
-2.79219e-05
0.00274692
-5.5665e-05
-4.5323e-05
0.00263446
2.49345e-05
0.00267559
4.26825e-06
0.00261707
-2.13275e-05
0.00255724
-1.43051e-05
0.00257859
-1.27978e-05
0.00262362
-2.28149e-05
0.00264351
-2.02359e-05
0.00265987
-1.27787e-05
0.0026876
-1.02469e-05
0.00270374
-8.41011e-06
0.00270167
-4.47707e-06
0.00270511
-4.56362e-06
0.00271365
-4.8697e-06
0.00271602
-7.1824e-07
0.00271753
3.33874e-06
0.00270763
9.1652e-06
0.00267228
1.30733e-05
0.00260416
2.85095e-05
0.00254142
2.76294e-05
0.00253029
-2.53327e-06
0.00257122
-2.57298e-05
0.00262803
-3.45146e-05
0.0026693
-1.28e-05
0.00272302
3.72877e-06
0.00276266
-5.672e-07
0.00273939
1.01981e-05
0.00270116
2.18281e-05
0.00269198
2.30575e-05
0.00268613
1.64671e-05
0.00262956
1.14613e-05
0.0025634
9.7276e-06
1.50662e-05
0.00269112
2.01182e-05
0.00277486
-1.58585e-05
0.00267626
-1.62022e-05
0.00256065
-7.42662e-06
0.00258353
-4.15928e-05
0.00264322
-5.22472e-05
0.00266072
-3.04956e-05
0.002672
-1.72042e-05
0.00270016
-1.08037e-05
0.00271938
-1.3096e-05
0.00271444
-1.87423e-05
0.00271714
-1.91181e-05
0.00272844
-1.13848e-05
0.00273261
-3.05998e-06
0.00274267
4.35279e-06
0.00274152
1.68201e-05
0.0027133
1.28695e-05
0.00267552
1.83783e-05
0.00264171
2.32318e-05
0.002646
-8.1275e-06
0.00265471
-1.42958e-05
0.00264131
-3.94462e-06
0.00266114
-1.54824e-05
0.00274155
-3.54433e-05
0.00279082
-1.86445e-05
0.00275332
3.43581e-05
0.00271265
4.35793e-05
0.00270361
2.43527e-05
0.00269047
2.53183e-05
0.00263236
3.97502e-05
0.00255853
4.74144e-05
4.3693e-05
0.00268574
8.28539e-06
0.00278844
-3.20266e-05
0.00276692
-2.15985e-05
0.00268143
-1.68479e-05
0.0026576
-6.08448e-05
0.00267185
-7.0137e-05
0.0026717
-3.91572e-05
0.0026785
-2.02427e-05
0.00269998
-1.58121e-05
0.00271467
-1.84531e-05
0.0027137
-2.0344e-05
0.00272427
-2.13012e-05
0.00273385
-7.94881e-06
0.00272886
1.37719e-06
0.00273103
-2.53915e-06
0.00272648
7.06798e-06
0.00272102
1.16349e-06
0.00272519
-5.77863e-06
0.00272456
-1.05745e-05
0.00267452
7.31222e-06
0.00259115
6.28291e-05
0.00256482
5.08186e-05
0.0026261
-2.93607e-05
0.00265094
-4.93445e-05
0.00261564
-1.12505e-05
0.00264706
5.60931e-06
0.00269905
5.70521e-06
0.00271409
1.26714e-05
0.00269803
4.26393e-05
0.00262999
8.25914e-05
0.0025609
9.40255e-05
6.21926e-05
0.00274068
-1.51564e-05
0.00280419
-4.4588e-06
0.00286987
-1.07113e-05
0.00284942
-4.37141e-05
0.00276591
-6.99635e-05
0.00270776
-6.99932e-05
0.00268551
-3.96062e-05
0.00268139
-1.34309e-05
0.00269572
-7.09051e-06
0.00271448
-1.27399e-05
0.00271741
-1.72807e-05
0.00269856
4.83762e-06
0.00266172
2.38383e-05
0.00260489
1.80003e-05
0.00257359
2.39177e-06
0.0026506
-5.14719e-05
0.00272707
-5.71963e-05
0.00270081
1.11572e-07
0.00257286
3.64347e-05
0.00243145
5.68237e-05
0.00247956
3.22575e-05
0.00265321
-2.11285e-05
0.00272519
-3.73352e-05
0.0026293
1.30244e-05
0.00254074
2.41782e-05
0.002614
-5.0228e-05
0.00271154
-5.85961e-05
0.00274709
1.78695e-05
0.002734
8.37971e-05
0.0026722
0.000120049
0.00263908
0.000111585
3.24107e-05
0.00281972
2.4784e-05
0.00280183
1.69072e-05
0.00282565
8.20695e-06
0.00281942
-2.20829e-05
0.00277877
-5.72612e-05
0.00274083
-6.04797e-05
0.00270627
-3.49193e-05
0.0026881
-1.26547e-05
0.00269044
3.65972e-07
0.00270937
1.30368e-05
0.00271105
1.92443e-05
0.00269081
1.56692e-05
0.00268648
-9.47592e-06
0.00267634
-1.75868e-05
0.00263232
1.17816e-05
0.00251003
2.52942e-05
0.00238985
1.96794e-05
0.00235547
2.47682e-05
0.00233407
3.72961e-05
0.00237498
4.57865e-06
0.00249555
-5.09163e-05
0.00259942
-6.88443e-05
0.00263907
-4.73295e-05
0.00269095
-2.82692e-05
0.00275386
-3.70345e-05
0.0027845
-9.89393e-05
0.00280151
-9.01623e-05
0.00279881
4.04297e-05
0.00277809
0.000128084
0.00279879
0.000114006
0.00286525
8.43604e-05
5.21754e-05
0.00282276
3.27954e-05
0.00278698
2.57207e-05
0.00278885
7.86665e-06
0.00278634
-1.37073e-05
0.00277944
-3.15712e-05
0.0027614
-3.70673e-05
0.00272157
-2.62087e-05
0.00269905
-1.27694e-05
0.00270117
-6.31975e-07
0.00272078
1.01917e-05
0.00273804
1.45169e-05
0.00272164
1.43278e-05
0.00267401
3.02219e-06
0.00263889
-9.86997e-06
0.00264272
2.53349e-06
0.00262777
3.26758e-05
0.00259837
3.75351e-05
0.00265485
7.29596e-06
0.00272718
-7.65082e-06
0.00270911
-2.41029e-06
0.00268757
-4.40132e-05
0.00268298
-6.54012e-05
0.00264471
-2.07743e-05
0.00265482
-3.21442e-05
0.00268694
-6.78963e-05
0.00262055
-7.12187e-05
0.00253022
-2.66395e-05
0.00258671
2.11908e-06
0.00269191
5.64137e-05
0.00275184
9.00353e-05
0.00281584
8.32727e-05
5.24063e-05
0.00280752
4.5974e-05
0.00276111
4.57422e-05
0.00276587
1.59915e-05
0.00276984
3.16502e-06
0.00275671
-3.22938e-06
0.00273159
-1.57143e-05
0.00271442
-3.03267e-05
0.00271214
-2.29449e-05
0.00271175
-4.42084e-06
0.00272582
6.46889e-06
0.00273829
1.17924e-05
0.00270727
1.67992e-05
0.00262486
3.1695e-05
0.00255178
2.81079e-05
0.00257556
-1.00104e-05
0.00264972
-1.49313e-05
0.00268105
5.14368e-06
0.00270207
-3.74486e-06
0.0027219
-1.40663e-05
0.00271677
-8.36283e-06
0.00266478
-2.86803e-06
0.00260002
-3.87999e-06
0.00260984
-2.97885e-05
0.00264274
-5.17636e-05
0.00263107
-5.72603e-05
0.00255133
-3.59738e-05
0.00247958
1.95286e-06
0.00253168
-2.40967e-05
0.00264738
-1.69429e-05
0.00272099
5.52793e-05
0.0027917
6.69353e-05
1.97083e-05
0.00265259
0.00271649
0.00274243
0.00275154
0.00275736
0.00275092
0.00273017
0.00271598
0.00270983
0.00271897
0.00273
0.00271297
0.00270849
0.00272269
0.00271969
0.00272675
0.00274125
0.00273074
0.00271084
0.00270805
0.00269665
0.00267538
0.00269243
0.00266631
0.00254996
0.00244195
0.00240355
0.00238426
0.00241536
0.00254731
0.00262242
)
;

boundaryField
{
    wall
    {
        type            calculated;
        value           uniform 0;
    }
    outlet
    {
        type            cyclic;
        value           nonuniform List<scalar> 
16
(
0.0025071
0.00258419
0.00260752
0.00264141
0.00272116
0.00284428
0.0028272
0.00280622
0.00256753
0.00256794
0.00257292
0.00268364
0.00287116
0.00285685
0.00285367
0.00260106
)
;
    }
    inlet
    {
        type            cyclic;
        value           nonuniform List<scalar> 
16
(
-0.0025071
-0.00258419
-0.00260752
-0.00264141
-0.00272116
-0.00284428
-0.0028272
-0.00280622
-0.00256753
-0.00256794
-0.00257292
-0.00268364
-0.00287116
-0.00285685
-0.00285367
-0.00260106
)
;
    }
    procBoundary1to0
    {
        type            processor;
        value           nonuniform List<scalar> 
256
(
-1.73278e-05
2.0825e-05
4.58689e-05
2.03845e-05
2.98661e-07
-2.75082e-06
9.48388e-06
-5.05809e-07
-1.30725e-05
9.84321e-06
3.15175e-05
1.72447e-05
5.99278e-06
2.09759e-05
3.02178e-05
1.99936e-05
9.46583e-06
2.37175e-05
3.17074e-05
8.76853e-06
-7.98212e-06
-4.93029e-06
-7.00239e-06
-4.27966e-06
1.47384e-06
-5.70877e-06
-2.08143e-05
-2.80395e-05
-2.66941e-05
-3.5287e-05
-6.96699e-05
-7.04316e-05
-4.62862e-05
8.86149e-06
5.69049e-05
3.97117e-05
1.47354e-05
1.00559e-05
7.08785e-06
-5.55206e-06
-1.24771e-05
1.00214e-05
2.70064e-05
1.28874e-05
7.5185e-06
2.45064e-05
3.07658e-05
1.7604e-05
6.45915e-06
1.0292e-05
2.26431e-05
2.47112e-05
1.573e-05
4.62047e-06
-9.18081e-06
-1.20721e-05
-4.68469e-06
-1.1665e-05
-2.52775e-05
-2.93871e-05
-2.6359e-05
-3.45881e-05
-5.84725e-05
-6.76328e-05
-4.87204e-05
5.86996e-06
6.11761e-05
3.41014e-05
1.33225e-05
1.31775e-05
5.78199e-06
-6.83806e-06
-1.02769e-05
8.42366e-06
1.91331e-05
6.15313e-06
1.05898e-05
3.19845e-05
3.38216e-05
1.30807e-05
3.39454e-07
1.29822e-05
3.20996e-05
4.32265e-05
3.71079e-05
-5.64569e-06
-2.98847e-05
-2.2261e-05
-6.22522e-06
-1.62701e-05
-3.39676e-05
-3.28784e-05
-2.64246e-05
-3.60396e-05
-5.11569e-05
-5.14274e-05
-4.16184e-05
1.47218e-05
4.53521e-05
3.83604e-05
2.22539e-05
1.03461e-05
2.08084e-07
-1.03687e-05
-6.0028e-06
1.06685e-05
1.4347e-05
-7.94583e-07
1.15833e-05
3.72154e-05
3.48791e-05
1.21935e-05
-4.01704e-06
1.17894e-05
3.38202e-05
3.47579e-05
2.09877e-05
-7.82907e-06
-2.89993e-05
-2.15949e-05
-6.3948e-06
-1.65447e-05
-3.46623e-05
-3.15856e-05
-2.33059e-05
-2.60214e-05
-4.46261e-05
-6.13156e-05
-1.03356e-07
-1.13754e-06
-1.88154e-05
3.51176e-05
7.19667e-05
3.95253e-05
-4.86872e-06
-2.18327e-05
-6.29273e-06
1.68474e-05
1.40611e-05
-1.88749e-06
1.26419e-05
3.65555e-05
2.63016e-05
6.98338e-06
4.74523e-06
1.98877e-05
3.21089e-05
2.06774e-05
-4.21534e-06
-1.70658e-05
-1.3199e-05
-1.89519e-05
-1.73006e-05
-1.7589e-05
-2.29553e-05
-2.35918e-05
-2.77135e-05
-3.69888e-05
-5.33795e-05
-3.69796e-05
4.56342e-05
4.07228e-05
1.81059e-05
2.49583e-05
2.29331e-05
4.34533e-06
-1.69056e-05
-2.89458e-05
-6.95169e-06
1.87913e-05
1.15597e-05
-7.78777e-06
9.4758e-06
3.66023e-05
2.16363e-05
8.80091e-07
6.49693e-06
2.02639e-05
1.95723e-05
5.19773e-07
-3.09082e-05
-3.73075e-05
1.39486e-06
7.60444e-06
8.30828e-07
-8.77413e-06
-1.29678e-05
-1.51162e-05
-2.49708e-05
-4.68576e-05
-6.28782e-05
-1.14914e-05
3.04776e-05
2.1546e-05
1.08862e-05
8.46623e-06
4.04481e-06
-6.36308e-06
-2.41934e-05
-3.27974e-05
-3.11569e-06
2.15889e-05
9.11772e-06
-1.0038e-05
9.27137e-06
3.45307e-05
1.42411e-05
-1.13181e-05
1.19652e-06
2.13135e-05
1.67283e-05
-4.61751e-06
-3.19952e-05
-4.023e-05
-1.15068e-05
1.80931e-05
2.08888e-05
-2.86568e-06
-1.55212e-05
-1.54248e-05
-1.43411e-05
-1.86866e-05
-1.25684e-05
1.55389e-05
5.20804e-05
1.64437e-05
4.04723e-06
5.64753e-06
-1.52827e-06
-1.61571e-05
-4.81052e-05
-4.50172e-05
1.55708e-05
4.10221e-05
1.05555e-05
-1.13652e-05
3.81348e-06
2.2138e-05
7.26457e-06
-1.20587e-05
4.02048e-06
2.68408e-05
1.65427e-05
-7.73462e-06
-3.79654e-05
-5.63949e-05
-2.07249e-05
3.60019e-05
4.12391e-05
-4.7973e-06
-1.50166e-05
-1.24371e-05
-1.20159e-05
-2.24596e-05
-1.19921e-05
3.8944e-05
)
;
    }
    procBoundary1to2
    {
        type            processor;
        value           nonuniform List<scalar> 
256
(
-2.53213e-05
-6.59486e-05
5.16547e-06
3.77192e-05
-2.25094e-05
-4.32561e-05
-1.96435e-05
-1.40783e-05
-2.58555e-05
-2.2703e-05
-1.33275e-05
-1.63609e-05
-2.0103e-05
-2.40553e-05
-3.13991e-05
-1.846e-05
2.01516e-05
4.28903e-05
4.13667e-05
4.46395e-05
-2.2923e-07
-5.48425e-05
-6.93145e-05
-8.19359e-05
-5.84754e-05
1.47184e-05
4.69835e-05
2.71975e-05
2.39479e-05
9.11978e-05
0.000141596
8.20576e-05
-5.51693e-05
-6.76424e-05
3.5678e-05
7.69759e-05
-1.18066e-05
-5.91918e-05
-3.04814e-05
-1.69641e-05
-3.65532e-05
-3.31083e-05
-1.67876e-06
-2.97483e-06
-2.11577e-05
-2.45003e-05
-3.39128e-05
-2.27304e-05
2.32434e-05
4.65377e-05
4.29607e-05
3.79378e-05
9.34848e-07
-6.44035e-05
-6.25099e-05
-5.78166e-05
-4.29488e-05
2.72951e-05
6.01173e-05
4.91819e-05
3.52193e-05
7.63704e-05
0.000103324
3.28293e-05
-5.05098e-05
-7.73791e-05
1.19641e-05
7.39027e-05
-2.73466e-06
-4.20489e-05
-9.42435e-06
-1.02373e-05
-2.67502e-05
-2.79275e-05
-1.75041e-05
-2.68355e-05
-3.56379e-05
-2.7734e-05
-2.24386e-05
5.64485e-06
2.33227e-05
2.09841e-05
2.63207e-05
4.1185e-05
3.70585e-06
-5.94813e-05
-6.90841e-05
-3.76498e-05
9.0236e-06
4.38081e-05
5.57455e-05
3.90235e-05
2.65527e-05
5.83814e-05
7.28205e-05
3.97671e-05
-8.24342e-06
-7.62128e-05
-5.10995e-05
1.53209e-05
8.3967e-06
7.1337e-07
1.67285e-05
8.54103e-07
-3.18314e-05
-5.22337e-05
-3.58788e-05
-3.03767e-05
-1.99184e-05
6.9853e-06
-2.4804e-06
-2.04185e-05
-9.76719e-06
1.12773e-05
3.89953e-05
5.0404e-05
-9.29772e-06
-5.23252e-05
-3.44043e-05
4.60323e-06
3.58288e-05
4.10964e-05
4.23863e-05
-3.39011e-06
-8.65165e-06
5.03894e-05
7.2503e-05
4.92029e-05
-3.73955e-06
-3.43824e-05
-5.49013e-05
-3.58602e-05
-1.25394e-05
-8.64671e-07
3.13448e-05
3.28661e-05
-9.0824e-06
-6.88656e-05
-7.41896e-05
-1.77471e-05
2.29783e-05
2.91083e-05
1.81847e-05
8.23957e-06
3.48128e-07
-5.69148e-06
-1.40465e-06
3.3473e-06
9.47354e-06
2.81329e-05
2.25675e-05
-8.74055e-06
-9.78546e-06
3.60341e-05
5.09397e-05
9.17085e-06
3.07911e-06
2.29162e-05
1.19353e-05
3.1553e-06
6.85737e-06
4.44304e-06
-2.01058e-05
-2.53193e-05
-3.91362e-05
-1.81671e-05
4.21689e-05
4.84142e-05
7.07259e-06
-3.56027e-05
-3.74152e-05
9.59875e-06
2.18262e-05
-1.85888e-06
-5.7862e-06
-1.19499e-05
-2.08123e-05
-3.7078e-05
-1.95503e-05
2.59479e-05
4.80551e-05
7.19901e-05
4.62144e-05
-1.60547e-05
-2.11013e-05
3.60365e-05
3.01153e-05
6.62576e-06
-1.19549e-06
-1.17713e-05
-4.50323e-05
-4.08601e-05
1.76838e-05
2.58447e-05
-2.01018e-05
-3.70725e-05
-3.38554e-05
-2.06385e-06
4.21666e-05
4.37049e-05
1.57727e-05
-2.25044e-05
-2.68536e-05
2.75627e-05
4.40611e-05
1.69453e-06
-2.2613e-05
-2.57393e-05
-6.65202e-06
-7.31264e-06
-3.80505e-06
2.58722e-05
4.85369e-05
4.49886e-05
1.49664e-05
-2.70205e-05
-1.88338e-05
5.35051e-05
7.04449e-05
-9.49029e-06
-3.99179e-05
-4.9554e-05
-7.21611e-05
-5.68887e-05
5.73372e-06
9.01122e-06
-1.03259e-05
-1.67747e-05
-1.61404e-05
-5.00255e-06
9.13849e-06
1.51402e-05
8.79149e-06
-1.7728e-05
-1.36417e-05
3.97328e-05
4.36398e-05
3.52761e-06
-1.83783e-05
-2.67329e-05
-1.67145e-05
-1.31611e-06
9.33271e-06
1.06814e-05
4.36924e-05
5.98452e-05
-3.30726e-05
-5.15011e-05
4.16734e-05
0.000103098
7.21099e-05
-6.38604e-06
-6.42175e-05
-0.000104593
-6.38336e-05
-4.25608e-06
)
;
    }
}


// ************************************************************************* //
