/*--------------------------------*- C++ -*----------------------------------*\
| =========                 |                                                 |
| \\      /  F ield         | OpenFOAM: The Open Source CFD Toolbox           |
|  \\    /   O peration     | Version:  2506                                  |
|   \\  /    A nd           | Website:  www.openfoam.com                      |
|    \\/     M anipulation  |                                                 |
\*---------------------------------------------------------------------------*/
FoamFile
{
    version     2.0;
    format      ascii;
    arch        "LSB;label=32;scalar=64";
    class       surfaceScalarField;
    location    "0.003";
    object      phi;
}
// * * * * * * * * * * * * * * * * * * * * * * * * * * * * * * * * * * * * * //

dimensions      [0 3 -1 0 0 0 0];

oriented        oriented;

internalField   nonuniform List<scalar> 
1200
(
0.00246391
-2.02332e-07
1.26554e-05
0.00246394
-6.53961e-06
6.50843e-06
0.00257532
-5.2099e-05
-5.92802e-05
0.00259981
-5.80947e-06
-1.8681e-05
0.0024486
7.5092e-05
7.61188e-05
0.00244605
-4.10874e-06
6.65543e-06
0.00252588
-5.43049e-05
-2.55204e-05
0.00248799
-1.42324e-05
5.21227e-05
0.00243417
-2.05905e-06
5.58793e-05
0.00250006
-1.52572e-05
-5.0638e-05
0.00259239
-2.72569e-05
-6.5073e-05
0.00259892
-2.0567e-05
1.40433e-05
0.00257135
6.20288e-06
2.13642e-05
0.00260123
1.32798e-05
-4.31641e-05
0.00264714
5.9969e-06
-5.18982e-05
0.00265457
3.72124e-06
-1.11538e-05
0.00261814
1.37568e-05
2.26754e-05
0.00258589
2.295e-05
9.29167e-06
0.00263445
1.04137e-05
-5.89664e-05
0.00273359
1.59539e-07
-9.93017e-05
0.00277447
1.13769e-05
-5.22529e-05
0.00272009
4.70988e-06
4.96621e-05
0.00268096
-2.53497e-05
6.44847e-05
0.00269277
-3.2515e-05
2.06991e-05
0.00270713
-1.47697e-05
4.1581e-07
0.00270401
-1.547e-06
4.66352e-06
0.0026875
5.04072e-06
1.14739e-05
0.00266135
1.14795e-05
1.46692e-05
0.00262966
1.70101e-05
1.46755e-05
0.00258777
2.42402e-05
1.76529e-05
0.00252001
3.45192e-05
3.32427e-05
2.18916e-05
2.60839e-05
0.00242416
8.82706e-06
5.1038e-06
0.00247045
-2.99362e-05
-2.28928e-05
0.00248915
-3.91717e-05
-3.16233e-05
0.0025085
-1.70226e-05
-8.13821e-06
0.00258409
-6.92283e-06
6.42914e-06
0.00259491
-1.62655e-05
1.33477e-06
0.00257021
-3.53161e-05
5.70545e-06
0.00252
-1.79581e-05
5.39381e-05
0.00247269
-4.49842e-06
4.9755e-05
0.00252367
-2.42409e-05
-4.20022e-05
0.00259791
-5.40701e-05
-4.74256e-05
0.0025921
-3.66913e-05
2.19296e-05
0.00256826
1.80974e-05
1.19525e-05
0.00260674
2.62721e-05
-5.1475e-05
0.00266116
3.53747e-06
-5.19591e-05
0.00268449
-9.5288e-06
-1.00773e-05
0.00267763
6.96907e-06
1.36411e-05
0.00266091
4.0193e-05
-5.20844e-07
0.00268637
3.20488e-05
-4.70997e-05
0.00276082
1.07395e-05
-8.50261e-05
0.00282316
1.02295e-05
-6.1193e-05
0.00280652
-8.39922e-06
2.97489e-05
0.00275466
-3.83311e-05
6.48432e-05
0.00273121
-4.17829e-05
3.27221e-05
0.00272917
-2.00983e-05
7.36616e-06
0.0027229
-2.625e-06
7.35059e-06
0.00270689
7.85712e-06
1.31926e-05
0.0026808
2.19154e-05
1.56519e-05
0.00264765
3.47068e-05
1.5448e-05
0.00259892
5.29846e-05
1.99843e-05
0.00252062
7.28458e-05
3.99733e-05
6.44073e-05
3.98122e-05
0.00245401
5.07515e-05
2.3566e-05
0.00241471
1.32238e-05
-3.85312e-06
0.00246205
-5.21843e-05
-3.43311e-05
0.00251847
-5.04344e-05
-2.30077e-05
0.00255823
-3.68572e-05
-9.826e-06
0.00259511
-5.12584e-05
-1.88965e-06
0.00260015
-5.09991e-05
1.06499e-05
0.00255897
-2.31785e-05
4.63978e-05
0.00251123
2.70919e-06
4.05283e-05
0.00253141
-1.73965e-05
-2.70242e-05
0.0025473
-5.70241e-05
-1.29367e-05
0.00250289
-3.24235e-05
4.0148e-05
0.00251281
1.79109e-05
-9.73702e-06
0.00258836
2.15368e-05
-7.08116e-05
0.00264986
-7.65308e-06
-5.03161e-05
0.00267593
-3.85012e-05
2.90759e-06
0.00269428
-2.2485e-05
1.11e-05
0.00271193
4.61281e-05
-2.35861e-05
0.00273021
5.8309e-05
-4.45351e-05
0.00276759
1.75057e-05
-4.41515e-05
0.00281992
-1.52943e-06
-4.05709e-05
0.00283259
-2.0831e-05
-2.35478e-07
0.00279654
-3.97984e-05
3.75177e-05
0.00275834
-3.49033e-05
3.13207e-05
0.00274275
-1.52084e-05
1.07033e-05
0.00273549
-4.52887e-06
9.16121e-06
0.00272402
3.74933e-06
1.55782e-05
0.00269959
2.88542e-05
1.74872e-05
0.00266214
5.61689e-05
1.59932e-05
0.00260576
8.65382e-05
2.28274e-05
0.00255163
9.3052e-05
3.39163e-05
6.58386e-05
3.06978e-05
0.00253761
6.90143e-05
2.01775e-05
0.00256581
1.19171e-05
-2.68889e-05
0.00258454
-2.02201e-05
-5.06931e-05
0.00251179
1.40774e-05
8.23234e-06
0.00253978
-6.74546e-05
2.60843e-06
0.00261154
-0.000118345
-4.66984e-06
0.00264736
-0.00010267
1.58508e-05
0.00263451
-4.60805e-05
3.57537e-05
0.00257842
3.81265e-05
2.0666e-05
0.00255325
2.2071e-05
-1.42901e-05
0.00250151
-2.95852e-05
2.42978e-05
0.00242113
-1.00244e-05
5.79844e-05
0.00246528
5.19855e-06
-3.14398e-05
0.00257265
1.10481e-06
-8.69401e-05
0.00261896
-1.08004e-05
-4.3162e-05
0.00256404
-1.45585e-05
3.09784e-05
0.0025079
1.36483e-07
3.35184e-05
0.00258685
1.36001e-05
-4.64261e-05
0.0026983
1.30161e-05
-6.61539e-05
0.00275244
-4.87255e-06
-3.17592e-05
0.00279162
-2.19807e-05
-1.87297e-05
0.00281667
-4.03367e-05
-5.54212e-06
0.00280625
-4.38005e-05
1.44213e-05
0.0027713
-2.22887e-05
2.23347e-05
0.00275027
-7.71631e-06
1.35316e-05
0.00275045
-1.44929e-05
9.79174e-06
0.00275075
-1.17622e-05
1.52073e-05
0.00273245
3.01068e-05
1.70478e-05
0.00269278
7.98493e-05
1.59876e-05
0.00264438
0.000112222
2.27135e-05
0.00260636
0.000102372
2.87069e-05
7.2341e-05
2.37997e-05
0.00251999
0.000106124
1.59318e-05
0.00250282
5.83676e-05
-2.92808e-05
0.00251315
1.27379e-05
-4.32901e-05
0.00262926
-7.19668e-05
-3.00659e-05
0.00267342
-0.000113637
2.01834e-06
0.00262292
-8.99933e-05
2.21548e-05
0.00254486
-7.26457e-05
4.8031e-05
0.00248372
-3.26819e-05
4.77386e-05
0.00254789
-3.77102e-06
-2.22701e-05
0.00259101
1.2642e-05
-3.36941e-05
0.00251902
1.2013e-06
4.12066e-05
0.00244371
4.5807e-06
6.0701e-05
0.00248604
4.5803e-06
-4.17081e-05
0.00258347
-9.9012e-06
-8.64221e-05
0.00262164
-1.75204e-05
-3.14532e-05
0.00256866
-2.07282e-06
4.04965e-05
0.00251489
1.86558e-05
3.52474e-05
0.0025791
3.68943e-06
-5.43006e-05
0.00267991
-1.83448e-05
-6.94427e-05
0.00273239
-2.94762e-05
-2.78835e-05
0.00277304
-4.45077e-05
-1.81225e-05
0.00282065
-6.66585e-05
-2.12833e-05
0.00282288
-4.31851e-05
-2.85006e-06
0.00276693
-1.86829e-06
3.553e-05
0.00273619
-1.13143e-05
3.43443e-05
0.00277606
-7.08549e-05
1.64891e-05
0.00280661
-5.56141e-05
1.32986e-05
0.00277139
5.4126e-05
1.12045e-05
0.00272044
0.000116919
1.3876e-05
0.00270582
0.000109192
1.7651e-05
0.00267175
0.000108153
2.82892e-05
0.000134463
3.66041e-05
0.00263084
1.32615e-05
-2.7076e-05
0.00274157
-1.41175e-05
-3.82537e-05
0.00278573
-7.53059e-06
-2.38868e-05
0.00275592
-2.69657e-05
-1.51957e-05
0.00270188
-5.81883e-05
-1.40372e-06
0.00265278
-5.85532e-05
1.76624e-05
0.00256768
-4.61694e-05
5.86199e-05
0.0025026
-2.08983e-05
5.32944e-05
0.00254297
-9.37648e-06
-3.47653e-05
0.00258761
8.75515e-06
-4.07508e-05
0.00253273
1.26791e-05
4.34007e-05
0.00246926
1.13319e-05
5.67198e-05
0.00251808
1.26123e-06
-4.55044e-05
0.00260766
-2.221e-05
-7.72664e-05
0.00265495
-4.76854e-05
-1.71264e-05
0.00263567
-1.85323e-05
3.57362e-05
0.0025899
4.5697e-05
1.8736e-05
0.0026147
2.78073e-05
-4.892e-05
0.00267239
-2.19792e-05
-5.40554e-05
0.00270539
-3.81155e-05
-2.43635e-05
0.00276015
-6.08097e-05
-3.84546e-05
0.00280169
-7.23417e-05
-3.58606e-05
0.00274997
-1.74979e-05
2.60359e-05
0.00268814
6.55304e-06
5.34125e-05
0.00267384
-2.85989e-05
3.15827e-05
0.00265875
-7.36195e-05
1.7849e-05
0.00262614
-3.97056e-05
1.67065e-05
0.00265498
2.03864e-05
4.90103e-06
0.0026589
0.000108373
4.62133e-06
0.00256701
0.000176135
2.49451e-05
0.0024698
0.000163726
4.16361e-05
8.03649e-05
1.30035e-05
0.0027257
6.29661e-05
-3.04717e-05
0.00274603
-6.49144e-06
-2.79582e-05
0.00275674
-7.63315e-06
-1.06044e-05
0.00274634
-1.02604e-05
-6.3037e-06
0.00271078
-2.37921e-05
1.16129e-06
0.00266419
-3.01853e-05
1.822e-05
0.00259469
-3.55617e-05
5.88929e-05
0.00254069
-2.0969e-05
5.40689e-05
0.00255864
6.20126e-06
-3.353e-05
0.00259056
1.81868e-05
-4.13431e-05
0.00255174
1.26195e-05
3.88761e-05
0.00250646
7.51315e-06
4.90987e-05
0.00255436
-2.2315e-06
-4.44092e-05
0.00260577
-1.26374e-05
-6.09813e-05
0.00256746
-2.51412e-05
1.57632e-05
0.0025109
-9.96313e-06
4.79963e-05
0.00254984
2.11281e-05
-1.43722e-05
0.0026256
1.65998e-05
-6.45587e-05
0.00265917
-1.19706e-05
-4.35729e-05
0.00265861
-2.27716e-05
-1.47884e-05
0.00265357
-4.04193e-05
-1.53519e-05
0.00263035
-4.37927e-05
-5.32699e-06
0.00259504
-9.90949e-06
2.77255e-05
0.002583
-4.74309e-06
2.33345e-05
0.00257836
-3.08612e-05
6.90588e-06
0.0025327
-3.58667e-05
7.90463e-06
0.0024776
1.20026e-05
3.39382e-06
0.00250436
-1.05986e-05
4.22014e-06
0.00261535
-1.31485e-05
1.05315e-05
0.00273055
4.17597e-05
1.91748e-05
0.00278228
8.73903e-05
2.4611e-05
0.000115896
1.81275e-06
0.00271586
-4.27452e-05
0.00272987
-2.05018e-05
0.00272903
-6.79595e-06
0.00272239
-3.61492e-06
0.00269453
4.06445e-06
0.00264667
1.76743e-05
0.00256045
5.06546e-05
0.00249704
4.24452e-05
0.00252406
-2.08214e-05
0.0025744
-3.21536e-05
0.00255298
3.40464e-05
0.00251754
4.29455e-05
0.00255592
-4.06032e-05
0.00258987
-4.65905e-05
0.00252931
3.54132e-05
0.00246407
5.52834e-05
0.00251887
-3.36724e-05
0.00261045
-7.49842e-05
0.00263601
-3.75318e-05
0.00261942
-6.17394e-06
0.00257278
6.2209e-06
0.00250856
2.04179e-05
0.0024737
2.49601e-05
0.00247006
-1.11269e-06
0.00246083
-2.16293e-05
0.00242966
-4.68951e-06
0.00244265
-9.88588e-07
0.00242785
4.19745e-06
0.00239295
2.17499e-05
0.00240061
3.40997e-05
0.00246999
1.80081e-05
-2.42573e-05
0.0024445
-8.21492e-06
0.00250777
-3.59301e-05
0.00252274
-2.83852e-05
0.00252224
2.20221e-06
0.00259022
8.44164e-06
0.00260522
-1.10998e-05
0.0026128
-2.36099e-05
0.00267694
-1.25312e-05
0.00272643
-6.67828e-06
0.00269693
-1.12926e-05
0.00267729
-1.39237e-05
0.00271698
-8.39526e-06
0.00274305
1.28558e-06
0.00271651
4.34847e-06
0.00269245
2.38584e-06
0.0026975
3.78762e-06
0.00271914
1.04974e-05
0.00273355
1.86061e-05
0.00269397
1.23143e-05
0.0025981
5.33871e-06
0.00253419
3.67978e-06
0.00258345
-4.53528e-06
0.00266285
-2.19163e-05
0.00270371
-2.44429e-05
0.00271632
-1.07134e-05
0.00271485
4.25069e-07
0.00269918
6.3225e-06
0.0026737
1.21102e-05
0.00264475
1.69345e-05
0.00260143
2.56816e-05
0.00252326
4.17496e-05
3.79476e-05
0.00244924
2.9471e-05
0.00241635
-1.7068e-05
0.00247147
-5.82285e-05
0.00253888
-3.36325e-05
0.00258247
-1.3983e-05
0.00261018
-2.74155e-05
0.00263363
-3.42716e-05
0.00268993
-2.0441e-05
0.00273204
-1.15139e-05
0.0027069
-1.8131e-05
0.00269662
-2.40649e-05
0.00273804
-1.50004e-05
0.00275548
3.31587e-06
0.00272564
7.21929e-06
0.00270616
6.78558e-07
0.00271748
-4.34776e-09
0.00273831
9.7652e-06
0.00274143
2.52584e-05
0.00270046
2.88288e-05
0.00260387
4.16058e-05
0.00252522
3.68753e-05
0.0025837
-2.86448e-05
0.00268222
-6.47789e-05
0.00272701
-4.8584e-05
0.00273678
-1.78019e-05
0.00273298
-9.21208e-08
0.00271776
9.46385e-06
0.00269307
2.30627e-05
0.00266363
3.54582e-05
0.00262025
5.44575e-05
0.00257638
6.71291e-05
5.83913e-05
0.00253711
4.5851e-05
0.00252994
-7.88576e-06
0.00255531
-5.67555e-05
0.0025472
-1.4432e-05
0.0025703
-3.35842e-05
0.00261862
-6.44446e-05
0.00265
-4.92225e-05
0.00269409
-2.49697e-05
0.00272291
-1.00793e-05
0.00270242
-1.62456e-05
0.00270891
-2.43591e-05
0.00275536
-1.51457e-05
0.00275608
3.44799e-06
0.002719
5.46913e-06
0.0027069
-3.7118e-06
0.0027311
-8.22038e-06
0.0027514
9.09992e-07
0.00274286
2.31918e-05
0.00272813
3.11247e-05
0.00274023
2.85766e-05
0.00274423
2.94082e-05
0.00272741
-1.77029e-05
0.0027403
-7.00322e-05
0.00275485
-5.40795e-05
0.00275365
-1.21191e-05
0.00274708
-6.36676e-07
0.0027337
4.45372e-06
0.00271297
2.84049e-05
0.00268239
5.56125e-05
0.00263857
8.50641e-05
0.00259879
8.96633e-05
5.78131e-05
0.00255808
6.36339e-05
0.00252348
1.4548e-05
0.00248828
-2.69042e-05
0.00255858
-3.81361e-05
0.00261803
-6.81706e-05
0.00264216
-8.28973e-05
0.00267419
-6.51921e-05
0.00270617
-3.15669e-05
0.00271308
-2.32478e-06
0.00269547
-2.25653e-06
0.00272228
-1.25296e-05
0.00277281
-8.4826e-06
0.00275527
1.12957e-06
0.0027107
3.15939e-07
0.00270292
-4.21921e-06
0.00274154
-3.665e-06
0.00277125
7.00284e-07
0.00275006
9.74242e-06
0.00273904
9.8083e-06
0.00277186
-1.24562e-06
0.00281781
-1.42802e-05
0.00284582
-5.90826e-05
0.00282427
-6.30564e-05
0.00277813
-7.20162e-06
0.00275925
1.38926e-05
0.00276279
-1.09294e-05
0.0027602
-1.24119e-05
0.00274487
2.92037e-05
0.00271585
7.73078e-05
0.0026939
0.000103713
0.00266359
0.000104053
8.6584e-05
0.00264655
6.80489e-05
0.00257816
5.25264e-05
0.00244932
3.98249e-05
0.0024654
-4.91659e-05
0.00258894
-0.000117722
0.00267013
-0.000102409
0.00270681
-5.87084e-05
0.00273268
-3.1527e-05
0.0027101
-8.30949e-06
0.00268833
2.66833e-06
0.00273029
7.70964e-07
0.00278021
4.12062e-07
0.00275206
2.14186e-07
0.00270764
-5.12641e-06
0.00270476
-6.49575e-06
0.00274689
1.6911e-06
0.00277922
8.35911e-06
0.00274982
4.72859e-06
0.00272974
-7.44475e-06
0.00274568
-2.43967e-05
0.00277542
-6.63549e-05
0.00275494
-7.69548e-05
0.002688
-1.21635e-05
0.00268627
1.11109e-05
0.00273171
-1.45074e-05
0.00278295
-6.32677e-05
0.00281194
-5.10585e-05
0.00278486
4.39e-05
0.00273572
0.000112607
0.002699
0.000121099
0.00265742
0.000120541
0.000108486
0.00269722
1.04171e-05
0.00276756
-1.53443e-05
0.00280524
-3.637e-06
0.00278138
-1.55459e-05
0.00273312
-4.79319e-05
0.00271108
-5.83669e-05
0.00273757
-4.34818e-05
0.0027587
-2.83101e-05
0.00271678
-8.09897e-06
0.00268815
9.33592e-06
0.00273415
9.73428e-06
0.00277865
4.83949e-06
0.00274422
-1.38462e-06
0.00270712
-8.694e-06
0.00271624
-1.11015e-05
0.00275432
2.30689e-07
0.00277273
1.51823e-05
0.00274067
8.12386e-06
0.00271084
-1.20924e-05
0.00268535
-2.27483e-05
0.00259215
-4.25245e-05
0.00248178
-3.97456e-05
0.00251316
-1.61172e-05
0.00260638
-2.10908e-05
0.00267372
-4.94355e-05
0.00270316
-8.36352e-05
0.00271142
-5.55763e-05
0.00272738
1.7727e-05
0.00271123
0.000108407
0.00264995
0.00016047
0.0025962
0.000153048
8.51676e-05
0.0027963
5.05655e-05
0.00276999
4.55199e-06
0.00276924
-2.60125e-06
0.00276246
-6.6109e-06
0.00273975
-2.00122e-05
0.00272251
-2.92708e-05
0.00275568
-4.19545e-05
0.00278208
-3.34345e-05
0.00272432
1.30144e-05
0.00268663
2.72723e-05
0.00273316
1.11906e-05
0.00277257
4.4961e-06
0.0027357
3.47322e-07
0.00270438
-3.82794e-06
0.00273006
-6.77539e-06
0.00276912
-2.15415e-06
0.00276339
7.74091e-06
0.00272383
4.43586e-06
0.0026925
-7.60106e-06
0.00266373
-1.33831e-05
0.00259544
-2.1588e-05
0.00252666
-1.65192e-05
0.00253768
-1.0916e-05
0.0025859
-2.7884e-05
0.00262321
-5.89512e-05
0.00259483
-5.02209e-05
0.00251883
8.29893e-06
0.00253755
-1.22008e-05
0.00264705
-4.90082e-06
0.00274674
6.12731e-05
0.00282029
9.15316e-05
8.63721e-05
0.002749
0.00274949
0.00274414
0.00273957
0.00272209
0.00269434
0.00265493
0.00261892
0.00262669
0.00266283
0.00271862
0.0027547
0.00271826
0.00268997
0.00272588
0.00276695
0.00274504
0.00270133
0.00267274
0.00264545
0.00259212
0.00253962
0.00253294
0.00253994
0.0025006
0.0024409
0.00243319
0.00241275
0.00241758
0.00249049
0.00258804
)
;

boundaryField
{
    wall
    {
        type            calculated;
        value           uniform 0;
    }
    outlet
    {
        type            cyclic;
        value           nonuniform List<scalar> 
16
(
0.00247203
0.0024383
0.0025195
0.00257605
0.00257303
0.0025109
0.00274493
0.00261015
0.00244096
0.00252811
0.00257864
0.0025973
0.00263514
0.00262103
0.00283644
0.0026891
)
;
    }
    inlet
    {
        type            cyclic;
        value           nonuniform List<scalar> 
16
(
-0.00247203
-0.0024383
-0.0025195
-0.00257605
-0.00257303
-0.0025109
-0.00274493
-0.00261015
-0.00244096
-0.00252811
-0.00257864
-0.0025973
-0.00263514
-0.00262103
-0.00283644
-0.0026891
)
;
    }
    procBoundary0to1
    {
        type            processor;
        value           nonuniform List<scalar> 
256
(
1.73278e-05
-2.0825e-05
-4.58689e-05
-2.03845e-05
-2.98661e-07
2.75082e-06
-9.48388e-06
5.05809e-07
1.30725e-05
-9.84321e-06
-3.15175e-05
-1.72447e-05
-5.99278e-06
-2.09759e-05
-3.02178e-05
-1.99936e-05
-9.46583e-06
-2.37175e-05
-3.17074e-05
-8.76853e-06
7.98212e-06
4.93029e-06
7.00239e-06
4.27966e-06
-1.47384e-06
5.70877e-06
2.08143e-05
2.80395e-05
2.66941e-05
3.5287e-05
6.96699e-05
7.04316e-05
4.62862e-05
-8.86149e-06
-5.69049e-05
-3.97117e-05
-1.47354e-05
-1.00559e-05
-7.08785e-06
5.55206e-06
1.24771e-05
-1.00214e-05
-2.70064e-05
-1.28874e-05
-7.5185e-06
-2.45064e-05
-3.07658e-05
-1.7604e-05
-6.45915e-06
-1.0292e-05
-2.26431e-05
-2.47112e-05
-1.573e-05
-4.62047e-06
9.18081e-06
1.20721e-05
4.68469e-06
1.1665e-05
2.52775e-05
2.93871e-05
2.6359e-05
3.45881e-05
5.84725e-05
6.76328e-05
4.87204e-05
-5.86996e-06
-6.11761e-05
-3.41014e-05
-1.33225e-05
-1.31775e-05
-5.78199e-06
6.83806e-06
1.02769e-05
-8.42366e-06
-1.91331e-05
-6.15313e-06
-1.05898e-05
-3.19845e-05
-3.38216e-05
-1.30807e-05
-3.39454e-07
-1.29822e-05
-3.20996e-05
-4.32265e-05
-3.71079e-05
5.64569e-06
2.98847e-05
2.2261e-05
6.22522e-06
1.62701e-05
3.39676e-05
3.28784e-05
2.64246e-05
3.60396e-05
5.11569e-05
5.14274e-05
4.16184e-05
-1.47218e-05
-4.53521e-05
-3.83604e-05
-2.22539e-05
-1.03461e-05
-2.08084e-07
1.03687e-05
6.0028e-06
-1.06685e-05
-1.4347e-05
7.94583e-07
-1.15833e-05
-3.72154e-05
-3.48791e-05
-1.21935e-05
4.01704e-06
-1.17894e-05
-3.38202e-05
-3.47579e-05
-2.09877e-05
7.82907e-06
2.89993e-05
2.15949e-05
6.3948e-06
1.65447e-05
3.46623e-05
3.15856e-05
2.33059e-05
2.60214e-05
4.46261e-05
6.13156e-05
1.03356e-07
1.13754e-06
1.88154e-05
-3.51176e-05
-7.19667e-05
-3.95253e-05
4.86872e-06
2.18327e-05
6.29273e-06
-1.68474e-05
-1.40611e-05
1.88749e-06
-1.26419e-05
-3.65555e-05
-2.63016e-05
-6.98338e-06
-4.74523e-06
-1.98877e-05
-3.21089e-05
-2.06774e-05
4.21534e-06
1.70658e-05
1.3199e-05
1.89519e-05
1.73006e-05
1.7589e-05
2.29553e-05
2.35918e-05
2.77135e-05
3.69888e-05
5.33795e-05
3.69796e-05
-4.56342e-05
-4.07228e-05
-1.81059e-05
-2.49583e-05
-2.29331e-05
-4.34533e-06
1.69056e-05
2.89458e-05
6.95169e-06
-1.87913e-05
-1.15597e-05
7.78777e-06
-9.4758e-06
-3.66023e-05
-2.16363e-05
-8.80091e-07
-6.49693e-06
-2.02639e-05
-1.95723e-05
-5.19773e-07
3.09082e-05
3.73075e-05
-1.39486e-06
-7.60444e-06
-8.30828e-07
8.77413e-06
1.29678e-05
1.51162e-05
2.49708e-05
4.68576e-05
6.28782e-05
1.14914e-05
-3.04776e-05
-2.1546e-05
-1.08862e-05
-8.46623e-06
-4.04481e-06
6.36308e-06
2.41934e-05
3.27974e-05
3.11569e-06
-2.15889e-05
-9.11772e-06
1.0038e-05
-9.27137e-06
-3.45307e-05
-1.42411e-05
1.13181e-05
-1.19652e-06
-2.13135e-05
-1.67283e-05
4.61751e-06
3.19952e-05
4.023e-05
1.15068e-05
-1.80931e-05
-2.08888e-05
2.86568e-06
1.55212e-05
1.54248e-05
1.43411e-05
1.86866e-05
1.25684e-05
-1.55389e-05
-5.20804e-05
-1.64437e-05
-4.04723e-06
-5.64753e-06
1.52827e-06
1.61571e-05
4.81052e-05
4.50172e-05
-1.55708e-05
-4.10221e-05
-1.05555e-05
1.13652e-05
-3.81348e-06
-2.2138e-05
-7.26457e-06
1.20587e-05
-4.02048e-06
-2.68408e-05
-1.65427e-05
7.73462e-06
3.79654e-05
5.63949e-05
2.07249e-05
-3.60019e-05
-4.12391e-05
4.7973e-06
1.50166e-05
1.24371e-05
1.20159e-05
2.24596e-05
1.19921e-05
-3.8944e-05
)
;
    }
}


// ************************************************************************* //
