/*--------------------------------*- C++ -*----------------------------------*\
| =========                 |                                                 |
| \\      /  F ield         | OpenFOAM: The Open Source CFD Toolbox           |
|  \\    /   O peration     | Version:  2506                                  |
|   \\  /    A nd           | Website:  www.openfoam.com                      |
|    \\/     M anipulation  |                                                 |
\*---------------------------------------------------------------------------*/
FoamFile
{
    version     2.0;
    format      ascii;
    arch        "LSB;label=32;scalar=64";
    class       volVectorField;
    location    "0.003";
    object      U_0;
}
// * * * * * * * * * * * * * * * * * * * * * * * * * * * * * * * * * * * * * //

dimensions      [0 1 -1 0 0 0 0];

internalField   nonuniform List<vector> 
512
(
(10.7622 0.00658896 0.00663194)
(10.7715 0.00179803 0.00153944)
(10.7629 0.0002591 -2.9146e-05)
(10.7595 -0.000351527 -0.000556481)
(10.7592 -9.99949e-05 -0.00028892)
(10.7598 -2.99453e-05 -0.00019584)
(10.7602 -4.75619e-06 -0.000121803)
(10.7604 5.4187e-06 -4.82849e-05)
(10.7604 8.59325e-06 1.17714e-05)
(10.7603 8.95917e-06 4.19281e-05)
(10.7602 9.357e-06 3.70212e-05)
(10.7602 1.05971e-05 6.33321e-06)
(10.7602 1.28945e-05 -3.49554e-05)
(10.7603 1.60326e-05 -6.96968e-05)
(10.7604 1.92863e-05 -8.30201e-05)
(10.7605 2.09184e-05 -6.87828e-05)
(10.7605 1.91901e-05 -3.43957e-05)
(10.7605 1.45564e-05 -2.79004e-07)
(10.7605 9.23739e-06 1.44129e-05)
(10.7605 4.1115e-06 1.05243e-05)
(10.7605 -2.09495e-06 6.7015e-06)
(10.7604 -1.01965e-05 2.15443e-05)
(10.7604 -1.86057e-05 5.85925e-05)
(10.7603 -2.38227e-05 0.000105999)
(10.7601 -2.14918e-05 0.000155599)
(10.7597 -6.05997e-06 0.000206148)
(10.7592 3.23952e-05 0.000256855)
(10.7586 0.000119851 0.00033032)
(10.7578 0.000293654 0.000476746)
(10.757 0.000492377 0.000661461)
(10.757 0.000663073 0.000854274)
(10.7521 0.000592782 0.000820832)
(10.8 0.008341 0.00141756)
(10.8018 0.00213366 0.000184058)
(10.7973 0.000165462 -0.000189393)
(10.7957 -0.000545451 -0.000294073)
(10.7961 -0.000207561 -0.000241441)
(10.7965 -7.25586e-05 -0.000183601)
(10.7968 -1.12484e-05 -0.000115946)
(10.797 1.59852e-05 -4.51654e-05)
(10.797 2.5261e-05 1.28379e-05)
(10.7969 2.65191e-05 4.22331e-05)
(10.7968 2.68088e-05 3.74813e-05)
(10.7968 2.94873e-05 7.61042e-06)
(10.7968 3.53432e-05 -3.24481e-05)
(10.7969 4.38159e-05 -6.55498e-05)
(10.797 5.29818e-05 -7.65609e-05)
(10.7971 5.79017e-05 -6.0599e-05)
(10.7971 5.3151e-05 -2.70681e-05)
(10.7971 3.96538e-05 4.46928e-06)
(10.7971 2.36792e-05 1.83258e-05)
(10.7971 8.01994e-06 1.59695e-05)
(10.797 -1.00981e-05 1.24255e-05)
(10.797 -3.24474e-05 2.37183e-05)
(10.797 -5.4912e-05 5.45212e-05)
(10.7969 -6.86543e-05 9.56608e-05)
(10.7967 -6.28714e-05 0.0001408)
(10.7964 -2.40811e-05 0.000188495)
(10.796 6.89354e-05 0.000234091)
(10.7954 0.000259551 0.000283415)
(10.7948 0.000611588 0.000363547)
(10.794 0.00111716 0.000528974)
(10.7937 0.00172042 0.000769015)
(10.7946 0.00174656 0.000817326)
(10.7992 0.00298085 0.00066939)
(10.8 0.000279491 -0.00013012)
(10.7969 -0.000561 -0.000377231)
(10.7958 -0.000450145 -0.000278481)
(10.7963 -0.000232124 -0.000221963)
(10.7967 -8.91975e-05 -0.000168862)
(10.7969 -9.16835e-06 -0.000103914)
(10.7971 2.93362e-05 -3.67586e-05)
(10.7971 4.27165e-05 1.63886e-05)
(10.797 4.34931e-05 4.23339e-05)
(10.7969 4.11141e-05 3.7135e-05)
(10.7968 4.19628e-05 9.16601e-06)
(10.7968 4.82038e-05 -2.82627e-05)
(10.7969 5.97986e-05 -5.8794e-05)
(10.797 7.37743e-05 -6.60269e-05)
(10.7971 8.1909e-05 -4.64198e-05)
(10.7972 7.53814e-05 -1.415e-05)
(10.7972 5.47981e-05 1.21523e-05)
(10.7971 2.88641e-05 2.33856e-05)
(10.7971 2.54261e-06 2.23654e-05)
(10.7971 -2.61757e-05 1.89465e-05)
(10.797 -5.84983e-05 2.53546e-05)
(10.797 -8.8927e-05 4.74275e-05)
(10.7969 -0.000106808 7.95394e-05)
(10.7967 -9.98302e-05 0.000117574)
(10.7965 -5.24171e-05 0.000160683)
(10.7962 5.80693e-05 0.000202388)
(10.7958 0.000262805 0.000239652)
(10.7953 0.000600224 0.000283787)
(10.7948 0.00113697 0.000355841)
(10.7942 0.00188228 0.000472072)
(10.7953 0.00240888 0.000674787)
(10.7979 0.00210007 0.000429516)
(10.7983 -0.000235654 -0.000270437)
(10.7967 -0.000974453 -0.000453647)
(10.7961 -0.000479419 -0.000258747)
(10.7965 -0.000224066 -0.000197908)
(10.7968 -7.81988e-05 -0.000148095)
(10.797 5.86467e-06 -8.60644e-05)
(10.7971 4.90127e-05 -2.30425e-05)
(10.7971 6.28801e-05 2.4136e-05)
(10.797 5.9943e-05 4.46409e-05)
(10.7969 5.18294e-05 3.7067e-05)
(10.7968 4.65379e-05 9.63406e-06)
(10.7968 4.89249e-05 -2.59584e-05)
(10.7969 6.0866e-05 -5.31861e-05)
(10.797 7.8139e-05 -5.43901e-05)
(10.7971 8.91433e-05 -2.94136e-05)
(10.7972 8.27124e-05 1.6548e-06)
(10.7971 5.83255e-05 2.14186e-05)
(10.7971 2.46485e-05 2.81172e-05)
(10.7971 -1.12795e-05 2.66783e-05)
(10.797 -4.83856e-05 2.20555e-05)
(10.797 -8.56835e-05 2.27801e-05)
(10.797 -0.000117581 3.63588e-05)
(10.7969 -0.000135705 6.1122e-05)
(10.7968 -0.000131162 9.39233e-05)
(10.7966 -9.00098e-05 0.000133043)
(10.7963 1.24475e-05 0.000171251)
(10.796 0.000207949 0.000202046)
(10.7957 0.000511689 0.000229031)
(10.7953 0.000925018 0.000263882)
(10.795 0.00147635 0.000332237)
(10.7957 0.00230771 0.00055344)
(10.7967 0.00128308 0.000111352)
(10.7969 -0.000133824 -0.000100591)
(10.7966 -0.000633705 -0.000200524)
(10.7965 -0.000322804 -0.000188042)
(10.7967 -0.000151895 -0.00016385)
(10.7969 -4.59388e-05 -0.000123119)
(10.7971 2.38834e-05 -6.46112e-05)
(10.7971 6.70717e-05 -5.05062e-06)
(10.7971 8.10119e-05 3.65229e-05)
(10.797 7.37001e-05 5.07569e-05)
(10.7969 5.89811e-05 3.82314e-05)
(10.7968 4.5643e-05 7.18233e-06)
(10.7969 4.14787e-05 -2.94986e-05)
(10.7969 5.05132e-05 -5.26058e-05)
(10.7971 6.79172e-05 -4.50185e-05)
(10.7971 8.04418e-05 -1.27248e-05)
(10.7971 7.56099e-05 1.83027e-05)
(10.7971 5.11448e-05 3.19388e-05)
(10.7971 1.37472e-05 3.22533e-05)
(10.797 -2.82899e-05 2.66875e-05)
(10.797 -6.94238e-05 1.78522e-05)
(10.797 -0.000105906 1.28371e-05)
(10.7969 -0.000134124 2.13507e-05)
(10.7969 -0.000151804 4.37448e-05)
(10.7968 -0.000156998 7.48657e-05)
(10.7966 -0.000139684 0.000110441)
(10.7965 -6.93695e-05 0.000144021)
(10.7963 0.000112172 0.000170467)
(10.796 0.00040791 0.000188732)
(10.7957 0.000738637 0.000199276)
(10.7956 0.00109154 0.000205433)
(10.796 0.00158186 0.000208745)
(10.7962 0.000621282 2.83282e-05)
(10.7964 0.000128548 -7.22993e-05)
(10.7965 -0.000138819 -0.000135136)
(10.7966 -0.000129478 -0.000149757)
(10.7968 -7.46878e-05 -0.000136814)
(10.797 -2.61297e-05 -9.94882e-05)
(10.7971 2.47026e-05 -4.35276e-05)
(10.7971 7.69464e-05 1.23892e-05)
(10.7971 9.38419e-05 5.03702e-05)
(10.797 7.94718e-05 6.08992e-05)
(10.7969 5.95978e-05 4.26552e-05)
(10.7968 4.1334e-05 4.09071e-06)
(10.7969 3.21122e-05 -3.71105e-05)
(10.797 3.61498e-05 -5.74632e-05)
(10.7971 4.94237e-05 -4.10871e-05)
(10.7971 6.03043e-05 -2.82017e-07)
(10.7971 5.698e-05 3.28971e-05)
(10.7971 3.58506e-05 4.22652e-05)
(10.797 8.90662e-07 3.46705e-05)
(10.797 -3.99202e-05 2.04423e-05)
(10.7969 -7.7825e-05 4.85127e-06)
(10.7969 -0.000107639 -3.8021e-06)
(10.7969 -0.000129331 4.75498e-06)
(10.7969 -0.000148195 2.9279e-05)
(10.7968 -0.000172054 6.01248e-05)
(10.7967 -0.000202452 9.14893e-05)
(10.7966 -0.000212896 0.000120567)
(10.7965 -4.12797e-05 0.000145587)
(10.7963 0.000337976 0.000161938)
(10.796 0.000637125 0.000162238)
(10.7958 0.000769339 0.000144372)
(10.7959 0.000829069 0.000105328)
(10.7959 0.000328797 6.96109e-06)
(10.7961 0.000128544 -6.67363e-05)
(10.7963 -3.24283e-06 -0.00011571)
(10.7965 -3.76031e-05 -0.000131127)
(10.7967 -3.73481e-05 -0.0001179)
(10.797 -5.59253e-05 -7.64581e-05)
(10.7971 -1.76572e-05 -2.36661e-05)
(10.7971 9.60645e-05 2.02351e-05)
(10.797 0.00011844 5.5592e-05)
(10.7969 7.18716e-05 6.94619e-05)
(10.7968 4.7934e-05 4.86311e-05)
(10.7968 3.11224e-05 3.80325e-06)
(10.7968 2.2052e-05 -4.22239e-05)
(10.7969 2.24674e-05 -6.2606e-05)
(10.797 2.93513e-05 -4.11985e-05)
(10.7971 3.53227e-05 6.10312e-06)
(10.7971 3.27378e-05 4.17273e-05)
(10.797 1.82285e-05 4.8266e-05)
(10.7969 -6.81923e-06 3.3061e-05)
(10.7969 -3.65265e-05 8.87694e-06)
(10.7969 -6.28902e-05 -1.33424e-05)
(10.7969 -8.1749e-05 -2.25412e-05)
(10.7969 -9.5746e-05 -9.73825e-06)
(10.7968 -0.000114538 1.94268e-05)
(10.7967 -0.000155696 5.0118e-05)
(10.7966 -0.000253149 7.76759e-05)
(10.7966 -0.00050139 0.000107119)
(10.7968 -0.000365315 0.00013481)
(10.7966 0.000391945 0.000147316)
(10.7961 0.000764169 0.000141775)
(10.7958 0.0006103 0.00011995)
(10.7958 0.000475639 7.55402e-05)
(10.7592 0.000109525 3.12411e-06)
(10.7594 4.98657e-05 -6.45872e-05)
(10.7597 9.00323e-06 -0.0001096)
(10.7599 -7.20616e-06 -0.000123028)
(10.7601 -1.49439e-05 -0.000103591)
(10.7603 -4.40535e-05 -3.25991e-05)
(10.7606 -2.69424e-05 1.36338e-05)
(10.7606 5.59911e-05 -3.64791e-06)
(10.7604 6.87923e-05 2.65383e-05)
(10.7602 3.2089e-05 6.96494e-05)
(10.7602 1.9152e-05 5.22827e-05)
(10.7601 1.19723e-05 5.11782e-06)
(10.7602 8.2598e-06 -4.28788e-05)
(10.7603 7.99288e-06 -6.3091e-05)
(10.7604 9.79638e-06 -4.07711e-05)
(10.7605 1.12528e-05 7.15363e-06)
(10.7605 1.00866e-05 4.32e-05)
(10.7604 4.91032e-06 4.85783e-05)
(10.7603 -4.17699e-06 2.8932e-05)
(10.7603 -1.49734e-05 -1.15309e-06)
(10.7603 -2.42678e-05 -2.64122e-05)
(10.7603 -3.05688e-05 -3.40613e-05)
(10.7602 -3.55647e-05 -1.72662e-05)
(10.7602 -4.44084e-05 1.47633e-05)
(10.76 -6.79385e-05 4.53913e-05)
(10.7597 -0.000134826 7.43665e-05)
(10.7598 -0.000348814 0.00013292)
(10.7607 -0.000296306 0.00016945)
(10.7608 0.000232518 0.000124453)
(10.7596 0.000453161 9.30405e-05)
(10.7589 0.00028231 9.73309e-05)
(10.759 0.000171902 6.72537e-05)
(10.7927 0.00137483 0.00837786)
(10.7947 0.000442193 0.00170436)
(10.7906 9.91167e-05 -0.000405135)
(10.789 -8.8904e-05 -0.00109312)
(10.7893 -5.22795e-05 -0.000781429)
(10.7898 -1.74894e-05 -0.000595981)
(10.7901 1.26236e-06 -0.000376804)
(10.7903 8.61724e-06 -0.000137329)
(10.7903 9.65802e-06 6.27068e-05)
(10.7901 9.21149e-06 0.000159758)
(10.79 9.75766e-06 0.000135889)
(10.7899 1.18469e-05 2.79434e-05)
(10.7899 1.54284e-05 -0.000114233)
(10.79 2.02607e-05 -0.000234911)
(10.7902 2.5858e-05 -0.000283226)
(10.7903 2.9208e-05 -0.000234667)
(10.7904 2.65825e-05 -0.000110107)
(10.7904 1.93183e-05 1.39866e-05)
(10.7903 1.31314e-05 5.80343e-05)
(10.7902 9.53242e-06 2.62165e-05)
(10.7902 3.60789e-06 -4.03002e-06)
(10.7903 -8.06121e-06 4.06695e-05)
(10.7903 -2.27662e-05 0.000170116)
(10.7901 -3.43161e-05 0.000327069)
(10.7899 -3.65048e-05 0.000482022)
(10.7896 -2.39719e-05 0.000637849)
(10.7891 9.35872e-06 0.000772674)
(10.7886 7.26995e-05 0.00091182)
(10.7879 0.000180269 0.00116204)
(10.7872 0.000359764 0.00156046)
(10.7869 0.000577632 0.0020704)
(10.7876 0.000588961 0.00205572)
(10.8293 0.0023944 0.00239309)
(10.8301 0.000462741 3.79714e-06)
(10.8268 -0.000181321 -0.000764408)
(10.8256 -0.0002674 -0.000822528)
(10.8261 -0.000140323 -0.000718438)
(10.8266 -4.53231e-05 -0.000571174)
(10.8269 6.85058e-06 -0.00036107)
(10.827 2.76371e-05 -0.000130017)
(10.827 2.99188e-05 6.34113e-05)
(10.8269 2.69133e-05 0.000160136)
(10.8267 2.69014e-05 0.000137721)
(10.8266 3.23242e-05 3.22863e-05)
(10.8266 4.20885e-05 -0.000106268)
(10.8267 5.48262e-05 -0.000221469)
(10.8269 7.01208e-05 -0.000260688)
(10.8271 8.04108e-05 -0.000205193)
(10.8271 7.34997e-05 -8.45993e-05)
(10.8271 5.2125e-05 2.82848e-05)
(10.827 3.26467e-05 7.01031e-05)
(10.827 1.98432e-05 4.81981e-05)
(10.827 2.12551e-06 2.18136e-05)
(10.827 -2.8688e-05 5.25149e-05)
(10.827 -6.61942e-05 0.000156688)
(10.8269 -9.53059e-05 0.000289384)
(10.8267 -0.000101136 0.000429201)
(10.8264 -6.97817e-05 0.000579066)
(10.826 1.43211e-05 0.000709252)
(10.8255 0.000168943 0.000818231)
(10.8249 0.000419017 0.000972634)
(10.8243 0.000812371 0.00127427)
(10.8239 0.00133914 0.00173955)
(10.8251 0.00160775 0.00194072)
(10.8283 0.00200285 0.00140798)
(10.8289 -0.000170978 -0.000509083)
(10.8266 -0.000824244 -0.00111307)
(10.8258 -0.000414501 -0.000800773)
(10.8263 -0.000188394 -0.000672692)
(10.8267 -5.35164e-05 -0.00052843)
(10.827 2.08777e-05 -0.000322098)
(10.8271 5.16099e-05 -0.000103108)
(10.8271 5.41498e-05 7.10386e-05)
(10.8269 4.6019e-05 0.000155294)
(10.8268 4.07963e-05 0.00013346)
(10.8267 4.40622e-05 3.77306e-05)
(10.8267 5.47595e-05 -9.00482e-05)
(10.8268 7.2233e-05 -0.000198678)
(10.827 9.60315e-05 -0.000226049)
(10.8271 0.000113195 -0.000154691)
(10.8272 0.000104201 -3.92349e-05)
(10.8271 7.18223e-05 5.01103e-05)
(10.8271 3.87047e-05 8.28792e-05)
(10.827 1.32781e-05 7.16912e-05)
(10.827 -1.65456e-05 5.06054e-05)
(10.827 -5.94734e-05 6.49496e-05)
(10.827 -0.000107162 0.000136728)
(10.8269 -0.000141428 0.000235697)
(10.8267 -0.000146746 0.000349112)
(10.8265 -0.000107796 0.000484814)
(10.8262 -4.48432e-06 0.00061321)
(10.8258 0.000182095 0.000709148)
(10.8253 0.000466996 0.000803567)
(10.8249 0.000874235 0.00095153)
(10.8245 0.00144965 0.00119447)
(10.8255 0.00215237 0.00166486)
(10.827 0.00154683 0.000738457)
(10.8274 -0.000205172 -0.000506603)
(10.8266 -0.000797718 -0.000930047)
(10.8263 -0.000388806 -0.000697554)
(10.8265 -0.000165753 -0.000597148)
(10.8268 -3.22516e-05 -0.000463575)
(10.827 4.5368e-05 -0.000264527)
(10.8271 8.09138e-05 -5.88625e-05)
(10.8271 8.31908e-05 9.34276e-05)
(10.8269 6.85147e-05 0.000157698)
(10.8268 5.30384e-05 0.000129505)
(10.8267 4.46346e-05 3.97132e-05)
(10.8267 4.77546e-05 -8.06454e-05)
(10.8268 6.71266e-05 -0.000180688)
(10.827 9.9241e-05 -0.000187082)
(10.8271 0.00012295 -9.39564e-05)
(10.8271 0.000115273 1.55398e-05)
(10.8271 7.81941e-05 7.62316e-05)
(10.827 3.35639e-05 9.32542e-05)
(10.827 -6.94493e-06 8.76766e-05)
(10.8269 -4.95083e-05 6.83333e-05)
(10.8269 -9.82757e-05 6.31742e-05)
(10.8269 -0.000143766 0.000102295)
(10.8269 -0.000171608 0.00017493)
(10.8268 -0.000173933 0.000271769)
(10.8266 -0.000140208 0.000396307)
(10.8263 -4.56765e-05 0.000519082)
(10.826 0.00013936 0.000606606)
(10.8257 0.000417796 0.000668955)
(10.8254 0.00077044 0.000737324)
(10.8252 0.00121288 0.000841215)
(10.8257 0.00184647 0.00109436)
(10.8263 0.000884104 0.000202183)
(10.8266 6.57202e-05 -0.000275108)
(10.8265 -0.00031515 -0.000528379)
(10.8265 -0.000213626 -0.000546184)
(10.8267 -9.05887e-05 -0.000503355)
(10.8269 2.87959e-06 -0.000387467)
(10.8271 6.66325e-05 -0.000195719)
(10.8271 0.000102717 2.52295e-06)
(10.8271 0.000107444 0.000134822)
(10.8269 9.012e-05 0.000174591)
(10.8268 6.46846e-05 0.000129686)
(10.8267 4.01741e-05 2.75602e-05)
(10.8267 3.03815e-05 -9.82266e-05)
(10.8269 4.6298e-05 -0.00018317)
(10.827 8.13055e-05 -0.000154337)
(10.8271 0.000109678 -3.26766e-05)
(10.8271 0.000106953 7.4463e-05)
(10.827 7.2065e-05 0.000109576)
(10.827 2.03333e-05 0.000104598)
(10.8269 -3.45392e-05 8.97457e-05)
(10.8269 -8.66902e-05 5.87018e-05)
(10.8269 -0.000132594 3.19701e-05)
(10.8269 -0.000165857 5.21989e-05)
(10.8269 -0.000183772 0.000120173)
(10.8268 -0.000190893 0.000216587)
(10.8266 -0.000181272 0.000330698)
(10.8265 -0.000119945 0.000436794)
(10.8262 5.61379e-05 0.000514777)
(10.826 0.000341755 0.000563068)
(10.8257 0.000638551 0.000578234)
(10.8256 0.000905929 0.000557503)
(10.8258 0.00113684 0.000486316)
(10.8259 0.000518359 4.47356e-05)
(10.8262 0.00016322 -0.000233503)
(10.8263 -5.36344e-05 -0.000409005)
(10.8265 -7.23105e-05 -0.000458502)
(10.8267 -2.85326e-05 -0.000427973)
(10.827 2.07073e-05 -0.00031749)
(10.8271 6.58267e-05 -0.000130093)
(10.8272 0.000102437 6.40919e-05)
(10.827 0.000113109 0.000186729)
(10.8269 9.83301e-05 0.000212701)
(10.8267 7.01014e-05 0.00014647)
(10.8267 3.80178e-05 1.18591e-05)
(10.8267 1.94303e-05 -0.000134879)
(10.8269 2.61978e-05 -0.000208895)
(10.8271 5.33107e-05 -0.000143619)
(10.8271 7.9214e-05 1.28629e-05)
(10.8271 8.04822e-05 0.000128403)
(10.827 5.22306e-05 0.000148323)
(10.8269 1.71171e-06 0.000114874)
(10.8269 -5.77642e-05 6.81454e-05)
(10.8268 -0.000109098 1.29467e-05)
(10.8269 -0.000143128 -2.62566e-05)
(10.8269 -0.000160545 -3.3946e-06)
(10.8269 -0.000172641 7.74068e-05)
(10.8268 -0.000196939 0.00017604)
(10.8267 -0.000235369 0.000272421)
(10.8266 -0.000249927 0.000356492)
(10.8265 -7.67849e-05 0.000432639)
(10.8262 0.000297294 0.000491289)
(10.8259 0.000580864 0.000490202)
(10.8257 0.000685396 0.00041953)
(10.8257 0.000697578 0.000280864)
(10.8257 0.000304445 7.8289e-06)
(10.8259 0.000136743 -0.000221773)
(10.8262 2.24987e-05 -0.000367745)
(10.8264 -1.08049e-05 -0.000411999)
(10.8267 -4.10944e-06 -0.00037784)
(10.827 1.09902e-05 -0.000262102)
(10.8271 3.96241e-05 -8.00434e-05)
(10.8271 8.0246e-05 0.000100678)
(10.827 9.48585e-05 0.000222202)
(10.8268 8.08534e-05 0.000251027)
(10.8266 5.77428e-05 0.000171839)
(10.8266 3.22493e-05 1.06821e-05)
(10.8267 1.6303e-05 -0.000156971)
(10.8268 1.68157e-05 -0.000234223)
(10.827 2.96628e-05 -0.000149841)
(10.8271 4.28171e-05 3.54444e-05)
(10.827 4.3151e-05 0.000161697)
(10.8269 2.46551e-05 0.000172308)
(10.8268 -1.24885e-05 0.000110747)
(10.8268 -5.81245e-05 2.31974e-05)
(10.8268 -9.42267e-05 -5.80223e-05)
(10.8268 -0.00011212 -9.65386e-05)
(10.8268 -0.00011787 -5.2115e-05)
(10.8268 -0.000129125 5.19939e-05)
(10.8267 -0.000170502 0.000148918)
(10.8265 -0.000270428 0.000221085)
(10.8266 -0.000489417 0.000283953)
(10.8267 -0.000341527 0.000374667)
(10.8266 0.000355333 0.000469005)
(10.826 0.000696351 0.000470777)
(10.8256 0.00056451 0.000381302)
(10.8256 0.000438678 0.000229276)
(10.7889 0.000105994 8.77929e-06)
(10.7891 5.21453e-05 -0.000214439)
(10.7894 1.51113e-05 -0.000354684)
(10.7897 8.25381e-07 -0.000394412)
(10.79 -7.14749e-07 -0.000348583)
(10.7902 -2.43238e-07 -0.000195727)
(10.7904 1.03703e-05 -2.48681e-05)
(10.7904 3.22114e-05 8.33996e-05)
(10.7903 3.9889e-05 0.000203694)
(10.79 3.24383e-05 0.000269588)
(10.7899 2.29349e-05 0.000190117)
(10.7898 1.33537e-05 1.72745e-05)
(10.7899 7.59802e-06 -0.000157323)
(10.7901 7.45513e-06 -0.000232418)
(10.7903 1.01833e-05 -0.000147438)
(10.7904 1.23228e-05 3.45773e-05)
(10.7903 1.16339e-05 0.000161993)
(10.7902 5.3098e-06 0.000171307)
(10.79 -8.24698e-06 9.32993e-05)
(10.79 -2.4995e-05 -1.81807e-05)
(10.79 -3.73787e-05 -0.00010977)
(10.7901 -4.21536e-05 -0.000137884)
(10.7901 -4.31427e-05 -7.41565e-05)
(10.79 -4.90878e-05 4.15203e-05)
(10.7898 -7.26678e-05 0.000133665)
(10.7895 -0.000138184 0.00019075)
(10.7897 -0.000323252 0.000248937)
(10.7905 -0.000261832 0.000364152)
(10.7905 0.000210243 0.000472945)
(10.7893 0.000405238 0.000456618)
(10.7887 0.000260308 0.000367372)
(10.7887 0.000164091 0.000227787)
)
;

boundaryField
{
    wall
    {
        type            fixedValue;
        value           uniform (0 0 0);
    }
    outlet
    {
        type            cyclic;
    }
    inlet
    {
        type            cyclic;
    }
    procBoundary0to1
    {
        type            processor;
        value           nonuniform List<vector> 
256
(
(17.9629 0.000590418 0.00279196)
(17.9637 9.53514e-05 -1.77487e-05)
(17.9676 -0.000101167 -0.00106835)
(17.9665 -8.02173e-05 -0.00124567)
(17.9671 -3.62983e-05 -0.00124777)
(17.9676 -4.50038e-06 -0.00106813)
(17.9681 1.14281e-05 -0.000672895)
(17.9682 1.29031e-05 -0.000196394)
(17.9681 9.19722e-06 0.000214911)
(17.9678 9.06993e-06 0.000397752)
(17.9675 1.09155e-05 0.000316908)
(17.9673 1.47909e-05 7.93361e-05)
(17.9673 2.09033e-05 -0.000223256)
(17.9675 2.97016e-05 -0.000486273)
(17.9678 4.21568e-05 -0.000605208)
(17.9681 5.07027e-05 -0.000508271)
(17.9682 4.48597e-05 -0.000210995)
(17.9681 2.8832e-05 9.36086e-05)
(17.9679 2.11865e-05 0.000165132)
(17.9678 2.59891e-05 1.83494e-05)
(17.9679 2.36904e-05 -0.000115425)
(17.968 1.56117e-06 -3.67713e-05)
(17.9681 -3.22702e-05 0.000267211)
(17.968 -6.19494e-05 0.000587055)
(17.9678 -7.4961e-05 0.000859139)
(17.9674 -6.56909e-05 0.00114643)
(17.9669 -3.20301e-05 0.00134029)
(17.9664 2.51682e-05 0.00140395)
(17.9659 0.000103054 0.00150699)
(17.9654 0.000204795 0.00179365)
(17.965 0.00033077 0.00223013)
(17.9661 0.000470291 0.00241783)
(18.0038 0.00137316 0.00182126)
(18.0043 -8.29434e-05 -0.000589622)
(18.0086 -0.000542518 -0.00143192)
(18.0079 -0.000252601 -0.00125787)
(18.0084 -9.80749e-05 -0.00122569)
(18.009 -4.3277e-06 -0.00104213)
(18.0094 4.39566e-05 -0.000653323)
(18.0095 5.04284e-05 -0.000197376)
(18.0094 3.35377e-05 0.000204726)
(18.0091 2.18305e-05 0.000401434)
(18.0088 2.41444e-05 0.000326331)
(18.0087 3.91539e-05 8.85029e-05)
(18.0087 5.95931e-05 -0.000211866)
(18.0088 8.02985e-05 -0.00046256)
(18.0091 0.000110521 -0.000553396)
(18.0094 0.000138227 -0.000437664)
(18.0095 0.000124226 -0.000154165)
(18.0094 7.57845e-05 0.000115214)
(18.0093 4.84174e-05 0.000184323)
(18.0092 5.33959e-05 8.30209e-05)
(18.0092 4.44828e-05 -2.89966e-05)
(18.0093 -8.2602e-06 7.0614e-06)
(18.0094 -8.85582e-05 0.000236149)
(18.0093 -0.000160499 0.000490631)
(18.0091 -0.000196449 0.000732689)
(18.0088 -0.000177935 0.00102091)
(18.0084 -9.14004e-05 0.00123104)
(18.0079 5.60991e-05 0.00130973)
(18.0074 0.00025252 0.00138905)
(18.007 0.000507836 0.00157668)
(18.0066 0.00084414 0.00190772)
(18.0076 0.00135587 0.00230053)
(18.0083 0.00133497 0.00116722)
(18.0086 -0.000227545 -0.000688911)
(18.0086 -0.000725559 -0.0013825)
(18.0083 -0.000324758 -0.00119789)
(18.0086 -0.000110584 -0.00116439)
(18.0091 1.86027e-05 -0.000971081)
(18.0095 8.75521e-05 -0.000573003)
(18.0096 0.00010065 -0.000142319)
(18.0094 7.28734e-05 0.000201712)
(18.0092 4.11745e-05 0.000366772)
(18.0089 3.29929e-05 0.000303222)
(18.0087 4.94626e-05 0.000101655)
(18.0087 7.38902e-05 -0.000164381)
(18.0089 0.000100651 -0.000415052)
(18.0092 0.000147469 -0.000491077)
(18.0095 0.000193247 -0.00031921)
(18.0095 0.000175618 -4.7782e-05)
(18.0094 0.000102821 0.000139876)
(18.0093 5.20634e-05 0.00018841)
(18.0092 4.20447e-05 0.000138143)
(18.0092 2.03404e-05 5.7759e-05)
(18.0093 -4.78789e-05 6.12347e-05)
(18.0093 -0.000143393 0.000212857)
(18.0093 -0.00022134 0.000383659)
(18.0091 -0.000257296 0.000554471)
(18.0089 -0.000235094 0.000808554)
(18.0085 -0.000131801 0.00105092)
(18.0081 5.18641e-05 0.00116751)
(18.0077 0.000297885 0.00122654)
(18.0074 0.000602472 0.00133518)
(18.0072 0.000988165 0.00150595)
(18.0078 0.00156904 0.00177813)
(18.0085 0.00089943 0.000461706)
(18.0088 1.1959e-07 -0.000515732)
(18.0086 -0.000389674 -0.000999532)
(18.0086 -0.000224613 -0.00104939)
(18.0088 -5.44994e-05 -0.00104785)
(18.0092 6.29848e-05 -0.000856119)
(18.0095 0.000132455 -0.000461109)
(18.0096 0.000154843 -5.91504e-05)
(18.0094 0.000126843 0.000230851)
(18.0091 7.93891e-05 0.000348573)
(18.0089 4.81663e-05 0.000279388)
(18.0087 3.64456e-05 0.00011432)
(18.0088 4.08103e-05 -0.000128993)
(18.009 7.64458e-05 -0.000381406)
(18.0093 0.000149945 -0.000415)
(18.0095 0.00021127 -0.000177417)
(18.0095 0.000196519 7.38362e-05)
(18.0094 0.000117872 0.000167101)
(18.0092 4.64113e-05 0.00017988)
(18.0092 6.78273e-06 0.000176123)
(18.0091 -4.03205e-05 0.000127551)
(18.0092 -0.000118737 8.85365e-05)
(18.0092 -0.000202215 0.000150031)
(18.0092 -0.000251333 0.000257918)
(18.0091 -0.000263745 0.000398946)
(18.009 -0.000244079 0.00063726)
(18.0087 -0.000163717 0.000888215)
(18.0083 1.41928e-05 0.00102256)
(18.008 0.000272383 0.00107057)
(18.0077 0.000553755 0.00111717)
(18.0075 0.000842604 0.00113245)
(18.0078 0.0011341 0.0010267)
(18.0081 0.000592274 0.000101407)
(18.0083 0.000140392 -0.000474206)
(18.0085 -0.000112577 -0.000807268)
(18.0087 -8.35389e-05 -0.000900632)
(18.009 1.75097e-05 -0.000897343)
(18.0093 0.00010037 -0.000721556)
(18.0096 0.000158537 -0.000330387)
(18.0096 0.000190244 7.55068e-05)
(18.0094 0.000174513 0.000314814)
(18.0091 0.000128864 0.000361786)
(18.0089 7.60604e-05 0.000261802)
(18.0087 1.78634e-05 7.49193e-05)
(18.0088 -1.26995e-05 -0.000189098)
(18.009 2.23666e-05 -0.000404255)
(18.0093 0.000111463 -0.000336554)
(18.0095 0.000187364 -2.48396e-05)
(18.0094 0.000188572 0.000207381)
(18.0093 0.000123306 0.000221907)
(18.0092 3.53958e-05 0.000187945)
(18.0091 -4.78368e-05 0.000192426)
(18.0091 -0.000124872 0.000131038)
(18.0091 -0.000195438 3.09912e-05)
(18.0092 -0.000239936 4.06371e-05)
(18.0092 -0.000249446 0.000155764)
(18.0091 -0.000252819 0.000325318)
(18.009 -0.000263603 0.000550736)
(18.0088 -0.000231846 0.000754407)
(18.0085 -6.13592e-05 0.00087753)
(18.0082 0.000231202 0.00093473)
(18.0079 0.000493105 0.000920584)
(18.0077 0.000672161 0.000813322)
(18.0078 0.000771579 0.000570186)
(18.0078 0.000428491 -1.37867e-05)
(18.0081 0.000182754 -0.00046115)
(18.0084 2.22094e-05 -0.000730496)
(18.0087 4.97054e-06 -0.000805868)
(18.009 5.10405e-05 -0.000773776)
(18.0094 9.94175e-05 -0.000597738)
(18.0096 0.000140561 -0.000207963)
(18.0096 0.000175308 0.000212124)
(18.0093 0.000181418 0.000435961)
(18.009 0.00015606 0.000456291)
(18.0088 0.000101856 0.00030991)
(18.0087 2.45228e-05 1.6981e-05)
(18.0088 -2.65863e-05 -0.000320099)
(18.0091 -1.48562e-05 -0.000499815)
(18.0094 5.39843e-05 -0.000322463)
(18.0095 0.000128504 8.74276e-05)
(18.0094 0.000144288 0.000339895)
(18.0092 9.86318e-05 0.000322441)
(18.0091 7.05065e-06 0.000222733)
(18.009 -0.000106502 0.00014738)
(18.009 -0.000194626 2.99216e-05)
(18.0091 -0.000236255 -9.88789e-05)
(18.0092 -0.000233765 -7.6473e-05)
(18.0092 -0.000216498 8.99759e-05)
(18.0091 -0.000239858 0.000280929)
(18.009 -0.000312216 0.000458052)
(18.0089 -0.000365862 0.0005911)
(18.0088 -0.000181229 0.000712308)
(18.0085 0.000244662 0.000830106)
(18.0081 0.00053093 0.000818426)
(18.0078 0.000594711 0.000662095)
(18.0077 0.000573804 0.000398193)
(18.0076 0.00029396 -1.65548e-05)
(18.0079 0.000148141 -0.000450202)
(18.0082 5.1145e-05 -0.000692612)
(18.0086 2.63337e-05 -0.00074173)
(18.009 4.18303e-05 -0.00069787)
(18.0094 6.57123e-05 -0.000524569)
(18.0096 8.76752e-05 -0.000140041)
(18.0096 0.000115735 0.000294154)
(18.0093 0.000135924 0.000535092)
(18.009 0.00012932 0.000559684)
(18.0087 9.20473e-05 0.000383466)
(18.0086 3.67751e-05 1.58129e-05)
(18.0087 -4.23123e-07 -0.000384009)
(18.0091 -1.25746e-06 -0.00059645)
(18.0094 2.53787e-05 -0.000369639)
(18.0095 5.71151e-05 0.00014734)
(18.0093 6.66134e-05 0.000429819)
(18.0091 4.1547e-05 0.000392818)
(18.0089 -2.81603e-05 0.000227242)
(18.0089 -0.000122798 2.73029e-05)
(18.0089 -0.000185722 -0.000164751)
(18.009 -0.000193581 -0.00028233)
(18.0091 -0.000166664 -0.000180791)
(18.0091 -0.000150444 7.63411e-05)
(18.009 -0.000197996 0.000260453)
(18.0088 -0.000334766 0.000351751)
(18.0089 -0.00060911 0.000393194)
(18.0091 -0.00043364 0.000561948)
(18.0089 0.000375047 0.000855808)
(18.0082 0.000732569 0.000884614)
(18.0077 0.000559927 0.000679311)
(18.0075 0.000424063 0.000400682)
(17.9662 0.000111041 2.47044e-05)
(17.9665 5.73719e-05 -0.000434628)
(17.9669 2.19244e-05 -0.000687107)
(17.9673 1.00959e-05 -0.000733847)
(17.9677 1.40102e-05 -0.000671389)
(17.9681 2.21211e-05 -0.000476576)
(17.9683 2.82286e-05 -0.000111721)
(17.9683 3.89593e-05 0.000307478)
(17.968 5.07087e-05 0.000583358)
(17.9676 5.11447e-05 0.000633823)
(17.9673 3.78429e-05 0.00043969)
(17.9672 1.87609e-05 3.77063e-05)
(17.9674 7.84486e-06 -0.000371859)
(17.9677 9.56578e-06 -0.000562455)
(17.9681 1.20103e-05 -0.000350996)
(17.9682 1.04264e-05 0.000115748)
(17.968 1.06351e-05 0.000399228)
(17.9677 4.21656e-06 0.000380354)
(17.9675 -2.14088e-05 0.000176412)
(17.9675 -5.62926e-05 -9.63915e-05)
(17.9676 -7.60997e-05 -0.000311046)
(17.9677 -7.207e-05 -0.000375063)
(17.9678 -5.77088e-05 -0.000205195)
(17.9678 -5.48463e-05 8.10493e-05)
(17.9676 -8.30489e-05 0.000241436)
(17.9672 -0.000165009 0.000275375)
(17.9674 -0.00038386 0.000162643)
(17.9655 -0.000306683 0.000366749)
(17.9649 0.000237578 0.000982758)
(17.9664 0.00044041 0.00106689)
(17.9661 0.000269514 0.000751753)
(17.9661 0.000171258 0.000465991)
)
;
    }
}


// ************************************************************************* //
