/*--------------------------------*- C++ -*----------------------------------*\
| =========                 |                                                 |
| \\      /  F ield         | OpenFOAM: The Open Source CFD Toolbox           |
|  \\    /   O peration     | Version:  2506                                  |
|   \\  /    A nd           | Website:  www.openfoam.com                      |
|    \\/     M anipulation  |                                                 |
\*---------------------------------------------------------------------------*/
FoamFile
{
    version     2.0;
    format      ascii;
    arch        "LSB;label=32;scalar=64";
    class       volScalarField;
    location    "0.04";
    object      Ksl;
}
// * * * * * * * * * * * * * * * * * * * * * * * * * * * * * * * * * * * * * //

dimensions      [1 -3 -1 0 0 0 0];

internalField   nonuniform List<scalar> 
1152
(
52227.3
101326
104405
122861
120195
74954.8
185001
127128
98706.4
114725
116734
74549.5
241300
82630.4
64119.2
72663.1
317906
282852
246938
290470
223129
316057
262668
182932
211435
179633
219087
299356
255501
635026
7.43993e+07
175939
103566
352343
190028
1.78222e+06
397113
245231
168244
192745
262210
229937
241576
267930
155459
173145
134502
1.81943e+07
1.4777e+06
171221
472445
230393
267300
412759
143212
209536
149165
387250
258820
321165
9.26908e+06
179667
223037
359643
147244
267265
175880
264117
179326
318525
331196
213971
736764
134923
430205
169814
134817
8.45194e+06
107575
216767
1.69569e+06
169990
262491
131674
115589
506703
157309
510593
341184
171987
247099
321652
5.3801e+06
201431
307080
155170
42944.6
35484.9
104092
38035.5
53076.7
111166
67467.7
132728
114482
31140.6
94098.7
54746.4
154074
107236
15000.8
37244.2
0
0
0
0
0
0
0
0
0
0
0
0
111.592
0
0
0
0
0
0
0
0
0
0
0
0
0
0
0
0
0
0
0
0
0
0
0
0
0
0
0
0
0
0
0
0
0
0
0
0
0
0
0
0
0
0
0
0
0
0
0
0
0
0
0
0
0
0
0
0
0
0
0
0
0
0
0
0
0
0
0
0
0
0
0
0
0
0
0
0
0
0
0
0
0
0
0
0
0
0
0
0
0
0
0
0
0
0
0
0
0
0
0
0
0
0
0
0
0
0
0
0
0
0
0
0
0
0
0
0
0
0
0
0
0
0
0
0
0
0
0
0
0
0
0
0
0
0
0
0
0
0
0
0
0
0
0
0
0
0
0
0
0
0
0
0
0
0
0
0
0
0
0
0
0
0
0
0
0
0
0
0
0
0
0
0
0
0
0
0
0
0
0
0
0
0
0
0
0
0
0
0
0
0
0
0
0
0
0
0
0
0
0
0
0
0
0
0
0
0
0
0
0
0
0
0
0
0
0
0
0
0
0
0
0
0
0
0
0
0
0
0
0
0
0
0
0
0
0
0
0
0
0
0
0
0
0
0
0
0
0
0
0
0
0
0
0
0
0
0
0
0
0
72392.3
167129
174449
118348
137713
84002
62693.1
104833
104371
225560
85272.5
81236
94530.9
94725.2
107674
306222
234504
190235
219742
147914
271912
189435
268094
266820
179041
251870
180028
232312
174143
453915
261396
205810
311609
214239
258228
202340
254211
222388
176261
179963
219125
242790
202648
463378
8.95665e+06
155239
948771
137455
758213
180186
266387
140856
533356
220241
206773
359181
156503
294804
213260
272929
285932
668549
149177
283307
252583
184158
164415
154929
199685
235711
269389
308023
172831
310154
165007
242647
336849
143191
699716
118080
1.22403e+07
140360
319214
186274
130600
204642
178670
157342
316334
170018
226322
214133
241900
427510
195217
275891
125726
87315.4
78138.7
47229.2
39284.9
40705.1
136943
161648
38914.8
39509.2
47976.5
34400.2
23153.6
43288
44160.8
59845.7
0
0
0
0
0
0
0
0
0
0
0
0
0
0
0
0
0
0
0
0
0
0
0
0
0
0
0
0
0
0
0
0
0
0
0
0
0
0
0
0
0
0
0
0
0
0
0
0
0
0
0
0
0
0
0
0
0
0
0
0
0
0
0
0
0
0
0
0
0
0
0
0
0
0
0
0
0
0
0
0
0
0
0
0
0
0
0
0
0
0
0
0
0
0
0
0
0
0
0
0
0
0
0
0
0
0
0
0
0
0
0
0
0
0
0
0
0
0
0
0
0
0
0
0
0
0
0
0
0
0
0
0
0
0
0
0
0
0
0
0
0
0
0
0
0
0
0
0
0
0
0
0
0
0
0
0
0
0
0
0
0
0
0
0
0
0
0
0
0
0
0
0
0
0
0
0
0
0
0
0
0
0
0
0
0
0
0
0
0
0
0
0
0
0
0
0
0
0
0
0
0
0
0
0
0
0
0
0
0
0
0
0
0
0
0
0
0
0
0
0
0
0
0
0
0
0
0
0
0
0
0
0
0
0
0
0
0
0
0
0
0
0
0
0
0
0
0
0
0
0
0
0
0
0
0
0
0
0
0
0
0
0
0
0
0
0
0
0
0
0
0
0
78163.9
105792
120882
69583.4
103844
150385
701265
136371
140971
118065
83835.7
117380
222938
92086.4
85687.5
102605
986775
145757
299034
291493
238825
329212
138308
126109
374844
128976
229671
214955
255132
2.40584e+06
228176
518602
122756
209180
420736
183475
240359
165099
491334
216207
196021
336759
143426
296129
150690
178617
300286
115975
451031
186463
506486
194976
366465
426471
125870
280279
275003
217228
6.03725e+06
130859
222967
310569
682580
9.77918e+06
375973
150514
443960
299168
191929
211908
226991
147032
218053
253941
112601
401284
251758
182985
192150
114286
2.08386e+06
218245
1.40149e+06
100312
173257
236129
108432
616161
176556
335086
269663
195359
343039
196476
394888
293602
62864
54358.4
62089
48383.5
46686.7
92983.5
52998.9
18818.7
90321.3
37519.5
19990.7
51645.3
45573.9
45864.7
17064.1
19066.8
0
0
0
0
0
0
0
0
0
0
0
0
0
0
0
0
0
0
0
0
0
0
0
0
0
0
0
0
0
0
0
0
0
0
0
0
0
0
0
0
0
0
0
0
0
0
0
0
0
0
0
0
0
0
0
0
0
0
0
0
0
0
0
0
0
0
0
0
0
0
0
0
0
0
0
0
0
0
0
0
0
0
0
0
0
0
0
0
0
0
0
0
0
0
0
0
0
0
0
0
0
0
0
0
0
0
0
0
0
0
0
0
0
0
0
0
0
0
0
0
0
0
0
0
0
0
0
0
0
0
0
0
0
0
0
0
0
0
0
0
0
0
0
0
0
0
0
0
0
0
0
0
0
0
0
0
0
0
0
0
0
0
0
0
0
0
0
0
0
0
0
0
0
0
0
0
0
0
0
0
0
0
0
0
0
0
0
0
0
0
0
0
0
0
0
0
0
0
0
0
0
0
0
0
0
0
0
0
0
0
0
0
0
0
0
0
0
0
0
0
0
0
0
0
0
0
0
0
0
0
0
0
0
0
0
0
0
0
0
0
0
0
0
0
0
0
0
0
0
0
0
0
0
0
0
0
0
0
0
0
0
0
0
0
0
0
0
0
0
0
0
0
)
;

boundaryField
{
    inlet
    {
        type            zeroGradient;
    }
    outlet
    {
        type            zeroGradient;
    }
    wall
    {
        type            zeroGradient;
    }
    procBoundary1to0
    {
        type            processor;
        value           nonuniform List<scalar> 
192
(
395100
164218
99212.9
112508
868133
210451
2.22198e+06
225530
1.60929e+07
220902
122504
1.66565e+06
159827
204084
1.56518e+07
102585
223914
337587
93098.3
6.14052e+06
159709
157921
206409
136399
77673.3
223244
33651.6
64440.3
0
0
0
0
0
0
0
0
0
0
0
0
0
0
0
0
0
0
0
0
0
0
0
0
0
0
0
0
0
0
0
0
0
0
0
0
0
0
0
0
0
0
0
0
0
0
0
0
0
0
0
0
0
0
0
0
0
0
0
0
0
0
0
0
0
0
0
0
244465
146433
80908.5
429062
175229
150275
307080
139699
192542
208193
346031
134040
130982
213210
197570
337101
167021
230477
303215
187141
107408
256215
160469
139928
62764.4
79328.2
26275.2
62874.1
0
0
0
0
0
0
0
0
0
0
0
0
0
0
0
0
0
0
0
0
0
0
0
0
0
0
0
0
0
0
0
0
0
0
0
0
0
0
0
0
0
0
0
0
0
0
0
0
0
0
0
0
0
0
0
0
0
0
0
0
0
0
0
0
0
0
0
0
)
;
    }
    procBoundary1to3
    {
        type            processor;
        value           nonuniform List<scalar> 
192
(
55562
186776
130212
319447
102449
317534
134391
239492
325997
239723
781158
103982
385350
479591
144317
415039
8.57096e+06
101423
2.47595e+06
234634
108461
203248
156926
198402
352996
78558.3
237776
62282.8
0
0
0
0
0
0
0
0
0
0
0
0
0
0
0
0
0
0
0
0
0
0
0
0
0
0
0
0
0
0
0
0
0
0
0
0
0
0
0
0
0
0
0
0
0
0
0
0
0
0
0
0
0
0
0
0
0
0
0
0
0
0
0
0
0
0
0
0
82056
79450
173858
114593
265339
302322
140136
146321
312100
588606
200508
206030
199145
178306
176689
139214
165925
361449
218906
276546
154577
209996
108546
187774
49807.5
40153.2
49305.1
88458.9
0
0
0
0
0
0
0
0
0
0
0
0
0
0
0
0
0
0
0
0
0
0
0
0
0
0
0
0
0
0
0
0
0
0
0
0
0
0
0
0
0
0
0
0
0
0
0
0
0
0
0
0
0
0
0
0
0
0
0
0
0
0
0
0
0
0
0
0
)
;
    }
}


// ************************************************************************* //
