/*--------------------------------*- C++ -*----------------------------------*\
| =========                 |                                                 |
| \\      /  F ield         | OpenFOAM: The Open Source CFD Toolbox           |
|  \\    /   O peration     | Version:  2506                                  |
|   \\  /    A nd           | Website:  www.openfoam.com                      |
|    \\/     M anipulation  |                                                 |
\*---------------------------------------------------------------------------*/
FoamFile
{
    version     2.0;
    format      ascii;
    arch        "LSB;label=32;scalar=64";
    class       volScalarField;
    location    "0.04";
    object      p;
}
// * * * * * * * * * * * * * * * * * * * * * * * * * * * * * * * * * * * * * //

dimensions      [0 2 -2 0 0 0 0];

internalField   nonuniform List<scalar> 
1152
(
13.2636
13.3195
13.3174
13.3001
13.3228
13.2666
13.2818
13.1831
13.2636
13.1346
12.9171
12.9941
13.207
12.9463
12.465
12.8272
11.8912
11.9834
11.7988
11.8009
11.8617
11.9423
11.4952
11.5792
11.8055
11.7545
11.4784
11.731
11.7828
11.8607
11.7135
11.4604
9.25878
9.11502
9.19831
9.09352
9.26966
9.34383
9.19487
9.19011
9.19079
9.63088
9.81276
9.27373
9.55387
9.8598
11.1384
9.66617
6.83318
6.53333
6.52889
6.41186
6.43367
6.67761
6.78305
6.61534
6.63675
6.55474
6.84723
6.46874
6.98551
6.8565
6.93145
6.62989
3.89603
3.91143
3.9084
3.80395
3.82713
3.96925
4.15562
4.05626
4.35043
3.94575
4.01363
3.92676
4.51273
4.33074
3.99511
3.79992
1.38114
1.36385
1.54923
1.45014
1.62963
1.50652
1.54361
1.58746
1.59538
1.4958
1.46908
1.47911
2.13102
1.69656
1.31213
1.37451
1.0194
1.01966
1.01194
1.01913
1.02368
1.01197
1.01657
1.00783
1.00609
1.02489
1.01375
1.01467
0.96242
1.00815
1.02551
1.01819
1.00539
1.00579
1.0052
1.00523
1.0051
1.00512
1.00529
1.00455
1.00321
1.00533
1.00488
1.00451
0.997658
1.003
1.00612
1.00464
1.00945
1.00929
1.00886
1.00887
1.00919
1.00878
1.00869
1.00825
1.00832
1.00877
1.00855
1.00826
1.0088
1.008
1.00903
1.00844
1.00692
1.00683
1.00665
1.00658
1.00672
1.00659
1.00652
1.00636
1.00639
1.00644
1.0064
1.00628
1.00632
1.00618
1.00641
1.00626
1.00657
1.0065
1.0064
1.00635
1.00646
1.00638
1.0063
1.00621
1.00634
1.00627
1.0062
1.00612
1.00625
1.00615
1.00612
1.00604
1.00596
1.0059
1.00583
1.00577
1.00589
1.00583
1.00576
1.00569
1.00581
1.00575
1.00568
1.00562
1.00573
1.00566
1.0056
1.00555
1.00543
1.00538
1.00533
1.00529
1.00538
1.00533
1.00528
1.00523
1.00532
1.00527
1.00522
1.00517
1.00525
1.0052
1.00515
1.00511
1.00492
1.00489
1.00485
1.00481
1.00488
1.00484
1.00481
1.00477
1.00484
1.0048
1.00476
1.00472
1.00479
1.00474
1.00471
1.00468
1.00443
1.0044
1.00437
1.00434
1.0044
1.00437
1.00434
1.00431
1.00436
1.00433
1.0043
1.00428
1.00432
1.00429
1.00426
1.00424
1.00394
1.00392
1.0039
1.00388
1.00392
1.0039
1.00388
1.00386
1.00389
1.00387
1.00385
1.00383
1.00386
1.00384
1.00382
1.0038
1.00347
1.00345
1.00344
1.00342
1.00345
1.00343
1.00342
1.0034
1.00343
1.00341
1.0034
1.00338
1.00341
1.00339
1.00338
1.00336
1.003
1.00298
1.00297
1.00296
1.00298
1.00297
1.00296
1.00295
1.00297
1.00296
1.00294
1.00293
1.00295
1.00294
1.00293
1.00292
1.00253
1.00252
1.00251
1.0025
1.00252
1.00251
1.0025
1.00249
1.00251
1.0025
1.00249
1.00248
1.0025
1.00249
1.00248
1.00247
1.00207
1.00206
1.00205
1.00205
1.00206
1.00205
1.00205
1.00204
1.00205
1.00205
1.00204
1.00203
1.00204
1.00204
1.00203
1.00202
1.00161
1.0016
1.0016
1.00159
1.0016
1.0016
1.00159
1.00159
1.00159
1.00159
1.00159
1.00158
1.00159
1.00158
1.00158
1.00158
1.00115
1.00114
1.00114
1.00114
1.00114
1.00114
1.00114
1.00113
1.00114
1.00114
1.00113
1.00113
1.00113
1.00113
1.00113
1.00113
1.00069
1.00069
1.00068
1.00068
1.00068
1.00068
1.00068
1.00068
1.00068
1.00068
1.00068
1.00068
1.00068
1.00068
1.00068
1.00068
1.00023
1.00023
1.00023
1.00023
1.00023
1.00023
1.00023
1.00023
1.00023
1.00023
1.00023
1.00023
1.00023
1.00023
1.00023
1.00023
13.27
13.3352
13.276
13.1392
13.3235
13.2563
13.1939
13.1889
13.2815
13.3814
13.2267
13.1984
13.2708
13.3386
13.3071
13.2925
12.0813
11.6589
11.6618
11.5745
11.8028
11.8054
11.9018
11.6499
11.7707
11.6784
11.8457
11.7953
11.8118
11.7983
11.9043
11.6049
9.40611
9.07989
9.08489
9.02485
9.24663
9.15614
9.0863
9.09297
8.98358
9.1181
9.11482
9.12292
9.18219
9.1174
8.94765
9.08841
6.25758
6.33425
6.32036
6.42472
6.24052
6.42531
6.50172
6.50939
6.32007
6.44782
6.42586
6.38969
6.39096
6.40868
6.4441
6.40119
3.69955
3.82999
3.9836
3.97663
3.54307
3.78489
3.93882
3.83288
3.8709
3.72811
3.92463
3.84864
3.78795
3.81851
3.97292
3.87935
1.50483
1.74298
1.75478
1.59913
1.43186
1.45264
1.69887
1.6258
1.32297
1.34375
1.49228
1.44846
1.19634
1.35155
1.36457
1.53308
1.00272
1.01715
1.0153
1.02087
1.01601
1.01833
1.01036
1.00936
1.01333
1.01461
1.01703
1.01859
1.01498
1.01534
1.01511
1.01555
1.00202
1.0042
1.00533
1.00525
1.00416
1.00505
1.00519
1.0049
1.00509
1.00537
1.00541
1.00529
1.0058
1.00546
1.00542
1.00505
1.0092
1.00929
1.00916
1.00938
1.00912
1.00925
1.00889
1.00901
1.00914
1.0092
1.0091
1.00911
1.00924
1.00919
1.00899
1.00902
1.00663
1.00668
1.00664
1.0066
1.00676
1.00678
1.00665
1.00659
1.00683
1.00682
1.0067
1.00659
1.0069
1.00683
1.00668
1.00656
1.00663
1.00661
1.00652
1.00649
1.00661
1.00658
1.00648
1.00645
1.00661
1.00657
1.00648
1.00644
1.00661
1.00655
1.00646
1.00642
1.00605
1.006
1.0059
1.00583
1.00604
1.00599
1.00589
1.00583
1.00603
1.00597
1.00588
1.00582
1.006
1.00595
1.00587
1.00581
1.00551
1.00547
1.00539
1.00534
1.0055
1.00546
1.00538
1.00534
1.00549
1.00544
1.00537
1.00533
1.00547
1.00542
1.00536
1.00532
1.00499
1.00495
1.00489
1.00485
1.00498
1.00494
1.00489
1.00485
1.00497
1.00493
1.00488
1.00484
1.00495
1.00491
1.00487
1.00484
1.00448
1.00445
1.00441
1.00437
1.00448
1.00445
1.0044
1.00437
1.00447
1.00444
1.0044
1.00437
1.00445
1.00442
1.00439
1.00436
1.00399
1.00396
1.00393
1.0039
1.00398
1.00396
1.00393
1.0039
1.00397
1.00395
1.00392
1.0039
1.00396
1.00394
1.00392
1.0039
1.0035
1.00348
1.00346
1.00344
1.0035
1.00348
1.00346
1.00344
1.00349
1.00347
1.00345
1.00343
1.00348
1.00346
1.00345
1.00343
1.00302
1.00301
1.00299
1.00297
1.00302
1.003
1.00299
1.00297
1.00301
1.003
1.00299
1.00297
1.00301
1.00299
1.00298
1.00297
1.00255
1.00254
1.00253
1.00251
1.00255
1.00254
1.00252
1.00251
1.00254
1.00253
1.00252
1.00251
1.00254
1.00253
1.00252
1.00251
1.00208
1.00207
1.00206
1.00205
1.00208
1.00207
1.00206
1.00205
1.00208
1.00207
1.00206
1.00205
1.00207
1.00207
1.00206
1.00205
1.00162
1.00161
1.0016
1.0016
1.00161
1.00161
1.0016
1.0016
1.00161
1.00161
1.0016
1.0016
1.00161
1.0016
1.0016
1.0016
1.00115
1.00115
1.00114
1.00114
1.00115
1.00115
1.00114
1.00114
1.00115
1.00115
1.00114
1.00114
1.00115
1.00115
1.00114
1.00114
1.00069
1.00069
1.00069
1.00068
1.00069
1.00069
1.00069
1.00068
1.00069
1.00069
1.00069
1.00068
1.00069
1.00069
1.00068
1.00068
1.00023
1.00023
1.00023
1.00023
1.00023
1.00023
1.00023
1.00023
1.00023
1.00023
1.00023
1.00023
1.00023
1.00023
1.00023
1.00023
13.2306
13.1881
13.1507
13.0787
13.2235
13.254
13.1835
13.0044
13.1659
13.0753
13.037
13.055
13.1572
13.1359
13.0706
13.0584
11.5625
11.6064
11.7049
11.7733
11.5783
11.4362
11.4119
11.4522
11.482
11.5341
11.5204
11.5092
11.2355
11.6272
11.6132
11.1469
9.11349
9.1388
9.15172
9.06517
9.14858
9.11513
9.02483
9.29306
9.06084
9.2131
9.05683
8.73049
8.92843
8.90201
8.9788
8.74415
6.73934
6.4859
6.47094
6.51076
6.5015
6.45692
6.278
6.27051
6.5144
6.40116
6.19167
6.3502
6.62691
6.41257
6.18912
6.40968
3.89906
3.89723
3.82094
3.55729
3.81225
3.80487
3.8321
3.88342
3.84084
3.87646
3.83259
4.07259
3.92682
3.80643
3.81231
3.94984
1.30344
1.47845
1.34741
1.44052
1.48921
1.51725
1.46207
1.23255
1.52871
1.27586
1.26842
1.30767
1.33254
1.34706
1.14231
1.29896
1.0117
1.01312
1.01053
1.0167
1.01408
1.00824
1.01265
1.01186
1.00913
1.01014
1.00962
1.00053
1.01221
1.00923
1.0038
1.0024
1.00445
1.00437
1.00423
1.00425
1.00415
1.00358
1.00342
1.00358
1.00358
1.00277
1.00218
1.00076
1.00378
1.00257
1.0016
1.0009
1.00852
1.00844
1.00839
1.00852
1.0081
1.00784
1.00778
1.00778
1.00777
1.00741
1.00712
1.00646
1.00783
1.0073
1.00688
1.00675
1.00635
1.00631
1.00628
1.00622
1.00621
1.00611
1.00605
1.00598
1.00607
1.0059
1.00577
1.0055
1.00603
1.00583
1.00567
1.00555
1.00628
1.00626
1.00625
1.00626
1.00614
1.00608
1.00605
1.00604
1.00601
1.00591
1.00584
1.00577
1.00593
1.00583
1.00575
1.00572
1.00572
1.00571
1.0057
1.00569
1.00564
1.00561
1.00559
1.00557
1.00556
1.00551
1.00547
1.00543
1.00549
1.00543
1.0054
1.00537
1.00526
1.00525
1.00525
1.00525
1.0052
1.00518
1.00517
1.00516
1.00513
1.0051
1.00508
1.00506
1.00507
1.00504
1.00502
1.00501
1.00479
1.00479
1.00479
1.00478
1.00475
1.00474
1.00473
1.00472
1.0047
1.00468
1.00467
1.00466
1.00465
1.00463
1.00461
1.00461
1.00433
1.00433
1.00433
1.00433
1.0043
1.00429
1.00428
1.00428
1.00426
1.00425
1.00424
1.00423
1.00422
1.00421
1.0042
1.00419
1.00387
1.00387
1.00387
1.00387
1.00385
1.00384
1.00384
1.00383
1.00382
1.00381
1.0038
1.0038
1.00379
1.00378
1.00377
1.00377
1.00341
1.00341
1.00341
1.00341
1.00339
1.00339
1.00339
1.00339
1.00337
1.00337
1.00336
1.00336
1.00335
1.00334
1.00334
1.00334
1.00296
1.00296
1.00295
1.00295
1.00294
1.00294
1.00294
1.00294
1.00293
1.00292
1.00292
1.00292
1.00291
1.0029
1.0029
1.0029
1.0025
1.0025
1.0025
1.0025
1.00249
1.00249
1.00249
1.00249
1.00248
1.00248
1.00247
1.00247
1.00247
1.00246
1.00246
1.00246
1.00204
1.00204
1.00204
1.00204
1.00204
1.00204
1.00203
1.00203
1.00203
1.00203
1.00203
1.00202
1.00202
1.00202
1.00202
1.00201
1.00159
1.00159
1.00159
1.00159
1.00158
1.00158
1.00158
1.00158
1.00158
1.00158
1.00158
1.00158
1.00157
1.00157
1.00157
1.00157
1.00114
1.00114
1.00114
1.00114
1.00113
1.00113
1.00113
1.00113
1.00113
1.00113
1.00113
1.00113
1.00112
1.00112
1.00112
1.00112
1.00068
1.00068
1.00068
1.00068
1.00068
1.00068
1.00068
1.00068
1.00068
1.00068
1.00068
1.00068
1.00067
1.00067
1.00067
1.00067
1.00023
1.00023
1.00023
1.00023
1.00023
1.00023
1.00023
1.00023
1.00023
1.00023
1.00023
1.00023
1.00022
1.00022
1.00022
1.00022
)
;

boundaryField
{
    inlet
    {
        type            zeroGradient;
    }
    outlet
    {
        type            fixedValue;
        value           uniform 1;
    }
    wall
    {
        type            zeroGradient;
    }
    procBoundary1to0
    {
        type            processor;
        value           nonuniform List<scalar> 
192
(
13.5038
13.4692
13.3372
13.2647
11.6804
11.583
11.5753
11.7766
8.70508
9.11646
8.93205
9.03444
6.60598
6.52759
6.49773
6.83097
3.90003
4.04168
4.32313
4.64745
1.61988
1.76599
1.72177
1.79998
1.0163
1.00955
1.02867
1.01002
1.00538
1.0049
1.00487
1.002
1.00945
1.00896
1.00946
1.00892
1.00699
1.00678
1.00674
1.00648
1.00666
1.00655
1.00648
1.00635
1.00603
1.00597
1.0059
1.00581
1.00548
1.00544
1.00538
1.00531
1.00496
1.00493
1.00488
1.00483
1.00446
1.00443
1.0044
1.00436
1.00397
1.00394
1.00392
1.00389
1.00348
1.00347
1.00345
1.00343
1.00301
1.003
1.00298
1.00297
1.00254
1.00253
1.00252
1.00251
1.00207
1.00207
1.00206
1.00205
1.00161
1.0016
1.0016
1.00159
1.00115
1.00115
1.00114
1.00114
1.00069
1.00069
1.00068
1.00068
1.00023
1.00023
1.00023
1.00023
13.3979
13.2988
13.2796
13.3743
11.3512
11.4911
11.7395
11.4306
8.79654
9.06027
8.96811
9.04283
6.3258
6.41964
6.42638
6.59739
3.86599
3.89348
3.79134
3.67573
1.75011
1.56732
1.29594
1.48915
1.01413
1.00992
1.01558
1.0148
1.00301
1.00424
1.00528
1.00526
1.00954
1.00912
1.00938
1.00935
1.00669
1.00676
1.00694
1.00697
1.00676
1.0067
1.00671
1.00669
1.00613
1.00612
1.0061
1.00607
1.00558
1.00556
1.00555
1.00552
1.00504
1.00503
1.00501
1.00499
1.00452
1.00451
1.0045
1.00448
1.00401
1.00401
1.004
1.00398
1.00352
1.00351
1.00351
1.0035
1.00303
1.00303
1.00303
1.00302
1.00256
1.00256
1.00255
1.00255
1.00209
1.00209
1.00208
1.00208
1.00162
1.00162
1.00162
1.00161
1.00116
1.00115
1.00115
1.00115
1.00069
1.00069
1.00069
1.00069
1.00023
1.00023
1.00023
1.00023
)
;
    }
    procBoundary1to3
    {
        type            processor;
        value           nonuniform List<scalar> 
192
(
13.0574
13.1421
12.9232
13.1564
12.0912
11.8674
11.7728
11.3492
10.1637
9.7826
9.87146
9.53405
7.0178
6.33814
6.77303
7.0919
3.85991
4.00465
4.04342
3.79211
2.06251
1.97361
1.6763
1.46115
1.01134
1.0187
1.01036
1.01788
1.00304
1.00455
1.00455
1.00459
1.00766
1.00805
1.00812
1.00828
1.00603
1.00605
1.0061
1.00612
1.00607
1.006
1.00597
1.00594
1.00562
1.00555
1.0055
1.00546
1.00517
1.00512
1.00508
1.00504
1.00473
1.00469
1.00465
1.00462
1.00428
1.00425
1.00422
1.0042
1.00383
1.00381
1.00379
1.00377
1.00338
1.00337
1.00335
1.00334
1.00294
1.00292
1.00291
1.0029
1.00248
1.00248
1.00247
1.00246
1.00203
1.00203
1.00202
1.00202
1.00158
1.00158
1.00157
1.00157
1.00113
1.00113
1.00112
1.00112
1.00068
1.00068
1.00067
1.00067
1.00023
1.00023
1.00023
1.00022
13.1668
13.1509
13.086
12.9767
11.763
11.8125
11.3772
11.2806
9.13457
8.81441
8.98316
8.83341
6.48109
6.43125
6.45614
6.53589
3.81169
3.89752
3.77574
4.16848
1.47036
1.34749
1.46445
1.5426
1.01661
1.01091
1.011
1.00677
1.00392
1.0029
1.00183
1.001
1.00794
1.00745
1.00713
1.0068
1.00595
1.00575
1.00561
1.00539
1.00584
1.00574
1.00566
1.00561
1.0054
1.00535
1.0053
1.00527
1.005
1.00497
1.00494
1.00493
1.0046
1.00457
1.00456
1.00455
1.00418
1.00417
1.00415
1.00415
1.00376
1.00375
1.00374
1.00374
1.00333
1.00332
1.00331
1.00331
1.00289
1.00289
1.00288
1.00288
1.00245
1.00245
1.00245
1.00245
1.00201
1.00201
1.00201
1.00201
1.00157
1.00156
1.00156
1.00156
1.00112
1.00112
1.00112
1.00112
1.00067
1.00067
1.00067
1.00067
1.00022
1.00022
1.00022
1.00022
)
;
    }
}


// ************************************************************************* //
