/*--------------------------------*- C++ -*----------------------------------*\
| =========                 |                                                 |
| \\      /  F ield         | OpenFOAM: The Open Source CFD Toolbox           |
|  \\    /   O peration     | Version:  2506                                  |
|   \\  /    A nd           | Website:  www.openfoam.com                      |
|    \\/     M anipulation  |                                                 |
\*---------------------------------------------------------------------------*/
FoamFile
{
    version     2.0;
    format      ascii;
    arch        "LSB;label=32;scalar=64";
    class       surfaceScalarField;
    location    "0.04";
    object      phi;
}
// * * * * * * * * * * * * * * * * * * * * * * * * * * * * * * * * * * * * * //

dimensions      [0 3 -1 0 0 0 0];

oriented        oriented;

internalField   nonuniform List<scalar> 
3120
(
-3.22275e-09
-4.38963e-09
5.07059e-08
-4.47618e-10
-1.73074e-10
3.06104e-09
2.26093e-08
-1.11446e-09
5.2836e-10
1.04118e-09
2.46526e-08
5.5197e-10
3.83964e-09
1.91702e-08
-1.36487e-10
5.14634e-09
2.61324e-09
2.60111e-09
2.23892e-08
-5.93506e-10
6.49765e-09
2.74127e-08
2.23298e-09
9.73205e-09
1.622e-08
9.53153e-09
2.52644e-08
-1.06603e-09
5.13136e-09
1.68844e-09
2.71095e-08
7.09198e-09
7.98289e-09
2.42738e-08
-4.44625e-09
2.74595e-08
2.15254e-08
1.12563e-08
2.95281e-08
-7.86497e-09
8.91863e-09
1.29418e-08
3.31578e-08
1.87767e-08
-2.77247e-08
1.42063e-07
3.79889e-08
-1.37104e-08
-1.31114e-09
8.95503e-10
4.86801e-08
8.6723e-10
2.11954e-09
8.11095e-10
1.73257e-08
1.04188e-09
-9.234e-11
4.41556e-09
2.46387e-08
-2.18987e-09
3.92979e-09
1.06457e-08
2.91619e-09
1.58625e-09
-1.02449e-09
1.27375e-09
1.81566e-08
5.35005e-09
3.26345e-09
1.85858e-08
-1.60988e-09
4.99805e-10
2.70957e-08
-2.114e-09
2.98599e-08
-1.61524e-10
8.84778e-10
4.2086e-10
2.4431e-08
5.31304e-09
-1.54379e-09
2.46528e-08
-3.82671e-09
1.44078e-08
1.67572e-08
5.13387e-09
1.6044e-08
2.40953e-09
-8.17249e-10
2.55868e-08
-2.03234e-09
1.8613e-08
-7.62826e-09
1.5256e-07
2.88476e-08
4.03015e-09
3.44036e-09
6.90921e-10
4.06132e-08
-9.5364e-09
-1.28918e-09
-2.14111e-09
2.50911e-08
-8.94787e-10
7.47614e-10
4.88632e-10
2.03677e-08
1.74559e-09
-5.00475e-11
1.44368e-08
-1.64577e-09
-1.34772e-09
-9.03967e-10
1.27576e-09
1.65237e-08
2.77688e-09
-3.7327e-09
1.64965e-08
-1.74234e-10
-1.25382e-08
4.30737e-08
-1.03881e-09
3.00769e-08
5.975e-10
-6.62866e-09
-6.55642e-09
3.268e-08
-3.21112e-09
-4.33951e-09
2.18421e-08
6.64997e-09
-3.12737e-08
2.56317e-08
1.28393e-09
1.73151e-08
3.05618e-09
-7.79671e-09
3.04284e-08
-3.72865e-08
4.25927e-08
-2.55359e-09
6.33158e-08
1.56905e-08
-3.30132e-09
3.19674e-09
3.82152e-09
2.7728e-08
2.23735e-09
-1.33007e-10
-1.5627e-09
2.88196e-08
1.16394e-09
1.02907e-09
-4.56329e-09
2.25109e-08
1.25802e-09
-3.13356e-09
2.28442e-08
2.03993e-10
-4.44874e-09
-2.54021e-09
-3.4388e-09
2.78207e-08
-2.51138e-09
1.5665e-09
1.33385e-08
4.13774e-09
-1.25226e-09
3.31135e-08
2.42005e-09
2.71059e-08
1.55506e-09
1.00072e-09
5.55999e-10
2.42901e-08
-3.81471e-09
-3.88096e-09
3.2105e-08
3.99474e-09
-1.1323e-09
1.77022e-08
-1.21912e-09
2.58817e-08
-9.32751e-10
-7.65775e-09
3.53542e-08
-2.73184e-09
2.62775e-08
3.15446e-09
5.2632e-08
2.14723e-08
-5.7641e-10
-2.33949e-10
2.32427e-09
2.42244e-08
1.54151e-09
1.01232e-10
-1.17157e-10
2.67536e-08
1.84802e-09
1.77074e-09
-3.29842e-09
2.53519e-08
-1.21204e-09
-3.622e-09
3.31172e-08
-3.55635e-09
-1.32392e-09
-2.4479e-09
-6.59508e-09
4.29316e-08
-1.91814e-09
1.15609e-09
1.15355e-08
1.02991e-09
1.50156e-09
2.53655e-08
3.07394e-09
1.66558e-08
4.78415e-09
7.22534e-09
-2.07921e-09
1.1893e-08
-1.91491e-09
7.6348e-10
4.16379e-08
7.72745e-10
8.15622e-10
1.57005e-08
3.10393e-09
2.5135e-08
1.48951e-09
-3.53526e-09
2.93225e-08
-4.7049e-09
1.84411e-08
5.24624e-09
4.47289e-08
3.19358e-08
-2.4572e-09
-2.2674e-11
-5.35459e-09
3.16317e-08
1.48877e-09
-3.44531e-09
-1.69279e-09
3.18783e-08
-9.29623e-12
2.43664e-09
2.53826e-10
1.57554e-08
3.46069e-09
-2.34171e-09
3.77646e-08
-2.44921e-09
2.5802e-09
2.91026e-09
8.93057e-10
3.86971e-08
-7.31941e-10
3.74017e-10
1.31109e-08
-6.93976e-10
1.56879e-09
2.40125e-08
1.05745e-09
1.10124e-08
1.55022e-09
1.49609e-09
-2.07457e-09
1.52729e-08
3.46134e-10
-4.04551e-09
4.72074e-08
-2.16866e-10
2.19729e-09
1.5635e-08
2.13011e-09
2.4515e-08
-6.69527e-10
2.35766e-09
1.77422e-08
5.59071e-09
1.63406e-08
-1.59124e-09
6.08938e-08
3.38191e-08
5.31207e-10
7.80724e-11
-9.23898e-11
3.13859e-08
-1.04459e-10
8.9591e-10
2.89631e-09
3.09933e-08
-2.82914e-09
-1.43206e-09
-5.43248e-10
1.99226e-08
-1.29602e-09
2.46721e-09
3.16428e-08
6.61422e-10
1.56112e-09
1.12781e-09
3.54811e-09
3.232e-08
-5.02365e-10
-2.4707e-09
2.01081e-08
6.81369e-10
3.85885e-10
2.18996e-08
4.77309e-10
1.41418e-08
-4.58192e-10
-5.0001e-09
3.5368e-09
2.24269e-08
1.81646e-09
-1.9576e-09
3.98779e-08
1.02901e-10
-4.18877e-09
2.19232e-08
-2.64612e-10
2.22714e-08
3.08839e-09
2.81325e-11
2.66136e-08
-1.87857e-09
2.05003e-08
1.8493e-09
5.29548e-08
3.24298e-08
2.88339e-09
-9.70805e-10
2.22771e-09
3.00878e-08
-1.65961e-09
5.88058e-10
1.97828e-09
2.79199e-08
-4.63717e-10
-9.70032e-10
-8.62426e-10
2.24173e-08
-7.40728e-11
3.53073e-10
2.82935e-08
1.57381e-09
4.52563e-10
-5.24964e-10
4.33586e-09
3.01609e-08
-1.64241e-09
5.00067e-10
2.27037e-08
-5.23893e-10
-1.86257e-09
2.17812e-08
-1.15561e-09
1.68144e-08
-1.68806e-09
-3.87084e-09
6.44977e-09
2.7328e-08
-1.1608e-09
4.20901e-09
3.34594e-08
-8.68671e-10
-3.95045e-09
2.37193e-08
-1.3073e-09
2.19302e-08
-3.75574e-10
-8.76151e-09
5.27371e-08
-9.09163e-09
2.68731e-08
-5.23156e-10
3.63128e-08
2.9562e-08
7.01079e-10
1.11589e-09
-4.46172e-10
2.8597e-08
3.441e-10
2.0437e-09
1.3521e-10
2.77517e-08
-8.94699e-10
-2.1482e-10
4.16623e-11
2.56784e-08
-1.04412e-09
2.58002e-09
2.6861e-08
-1.55001e-09
1.87525e-10
2.19604e-09
-1.98032e-09
2.83006e-08
1.77533e-09
-2.89439e-09
2.61539e-08
9.71846e-10
-2.35262e-09
2.49791e-08
-1.71561e-09
2.36648e-08
-1.58295e-09
1.7237e-09
-4.4593e-09
2.9088e-08
3.21868e-09
-5.54422e-10
2.96247e-08
1.67104e-09
-3.50731e-09
2.64217e-08
-3.2646e-09
2.53249e-08
-1.74594e-10
4.79525e-09
3.42014e-08
1.03581e-09
2.90801e-08
1.91932e-09
3.07169e-08
2.83671e-08
1.0355e-09
7.68476e-10
-1.47579e-10
2.80716e-08
-4.07277e-11
1.32419e-09
-3.64643e-11
2.7721e-08
-4.88474e-10
5.46028e-10
-2.32745e-10
2.68665e-08
-1.77178e-10
1.59305e-10
2.70025e-08
-1.6855e-10
4.13739e-10
1.01696e-09
-8.91548e-10
2.79288e-08
1.11258e-09
-1.27827e-09
2.73003e-08
6.03917e-10
-1.32196e-09
2.65772e-08
-1.15033e-09
2.61552e-08
-5.76876e-10
8.87649e-10
-1.11379e-09
2.8637e-08
1.39751e-09
-5.8387e-10
2.84204e-08
7.68692e-10
-1.6019e-09
2.73306e-08
-1.64816e-09
2.68052e-08
-2.1354e-10
9.1549e-10
2.97452e-08
3.20925e-10
2.87263e-08
6.72386e-10
2.86823e-08
2.79686e-08
6.90897e-11
4.33697e-10
-1.34986e-10
2.79691e-08
8.79022e-11
5.7779e-10
-1.84347e-12
2.78285e-08
-2.49676e-10
1.66075e-10
-9.56846e-11
2.74469e-08
-7.30393e-11
1.78389e-10
2.73786e-08
-3.35891e-10
-5.25031e-11
4.85602e-10
-4.43093e-10
2.79294e-08
5.7192e-10
-5.13664e-10
2.7726e-08
2.26094e-10
-5.64388e-10
2.73919e-08
-4.17041e-10
2.72306e-08
-2.53921e-10
4.54567e-10
-3.80374e-10
2.82398e-08
6.37586e-10
-3.6967e-10
2.80934e-08
3.59332e-10
-6.67694e-10
2.77123e-08
-6.94217e-10
2.74925e-08
-5.0623e-11
2.93022e-10
2.85013e-08
3.04404e-10
2.83033e-08
2.96405e-10
2.81538e-08
2.79349e-08
1.84202e-11
2.90322e-10
-7.042e-11
2.794e-08
4.87556e-11
3.77881e-10
-1.25974e-11
2.78736e-08
-1.20038e-10
2.23694e-10
-1.04596e-10
2.76785e-08
2.72256e-11
-6.43264e-11
2.75827e-08
-3.31324e-11
1.17045e-10
2.79501e-10
-1.83862e-10
2.79488e-08
3.32799e-10
-2.06921e-10
2.78671e-08
1.8149e-10
-2.70574e-10
2.77094e-08
-2.43679e-10
2.76147e-08
-2.32649e-11
2.48199e-10
-1.33266e-10
2.80673e-08
3.17046e-10
-1.8252e-10
2.80001e-08
2.01436e-10
-2.91996e-10
2.78494e-08
-3.20365e-10
2.77464e-08
2.43287e-11
1.45854e-10
2.81377e-08
2.00209e-10
2.80912e-08
1.53354e-10
2.80089e-08
2.79242e-08
1.53645e-11
1.77306e-10
-4.07627e-11
2.79428e-08
3.65649e-11
2.08129e-10
-9.31462e-12
2.79061e-08
-5.40019e-11
1.27332e-10
-5.90049e-11
2.77935e-08
2.48185e-11
-3.71969e-11
2.77031e-08
-2.41369e-11
6.82217e-11
1.67789e-10
-7.90673e-11
2.79671e-08
1.83214e-10
-8.52136e-11
2.79277e-08
1.0872e-10
-1.19843e-10
2.78448e-08
-1.07304e-10
2.77771e-08
1.64978e-11
1.49622e-10
-5.99132e-11
2.80148e-08
1.69666e-10
-8.69598e-11
2.79818e-08
1.15745e-10
-1.29667e-10
2.79132e-08
-1.39152e-10
2.7853e-08
4.10289e-11
1.04887e-10
2.80379e-08
1.26278e-10
2.80199e-08
9.56067e-11
2.79774e-08
2.79303e-08
3.15714e-11
1.15121e-10
-2.72528e-11
2.79512e-08
2.66481e-11
1.27004e-10
-1.21016e-11
2.79247e-08
-1.83676e-11
8.74007e-11
-3.82094e-11
2.78499e-08
2.12898e-11
-3.01532e-11
2.77638e-08
-2.33434e-12
5.91359e-11
1.10267e-10
-4.06489e-11
2.79795e-08
1.1328e-10
-4.22476e-11
2.79549e-08
7.5781e-11
-5.97391e-11
2.79039e-08
-5.46467e-11
2.78453e-08
3.20174e-11
1.00973e-10
-3.60768e-11
2.80031e-08
1.05033e-10
-4.72655e-11
2.7983e-08
7.81339e-11
-6.42508e-11
2.79446e-08
-6.61814e-11
2.78987e-08
4.40435e-11
8.31978e-11
2.80139e-08
8.86995e-11
2.80012e-08
7.08862e-11
2.79745e-08
2.7938e-08
3.94308e-11
7.82261e-11
-1.94321e-11
2.79596e-08
1.87793e-11
8.15566e-11
-1.2015e-11
2.79371e-08
-3.65978e-12
6.02845e-11
-2.41111e-11
2.78803e-08
1.49055e-11
-2.01544e-11
2.77972e-08
2.17309e-12
4.48508e-11
7.66836e-11
-2.49946e-11
2.79882e-08
7.5012e-11
-2.50995e-11
2.79697e-08
5.48235e-11
-3.27139e-11
2.79327e-08
-2.96237e-11
2.7878e-08
3.15743e-11
7.27318e-11
-2.55653e-11
2.80037e-08
7.14064e-11
-2.95671e-11
2.7989e-08
5.66503e-11
-3.56961e-11
2.79624e-08
-3.49724e-11
2.79217e-08
3.89964e-11
6.60504e-11
2.80108e-08
6.56498e-11
2.79998e-08
5.4517e-11
2.79797e-08
2.79465e-08
3.7385e-11
5.51598e-11
-1.44564e-11
2.79662e-08
1.3276e-11
5.49379e-11
-1.05212e-11
2.79456e-08
2.19238e-12
4.28029e-11
-1.5572e-11
2.78979e-08
1.00143e-11
-1.31802e-11
2.78166e-08
3.08953e-12
3.3419e-11
5.51434e-11
-1.75122e-11
2.79944e-08
5.23929e-11
-1.70999e-11
2.79791e-08
4.0851e-11
-1.99341e-11
2.79485e-08
-1.77372e-11
2.78958e-08
2.76221e-11
5.38484e-11
-1.93131e-11
2.80071e-08
5.12754e-11
-2.05154e-11
2.79952e-08
4.24141e-11
-2.23264e-11
2.79737e-08
-2.09947e-11
2.79353e-08
3.20842e-11
5.15651e-11
2.80127e-08
4.95579e-11
2.80031e-08
4.23322e-11
2.79861e-08
2.79543e-08
3.20736e-11
3.95751e-11
-1.09748e-11
2.79709e-08
9.56539e-12
3.81339e-11
-8.78358e-12
2.79518e-08
3.86581e-12
3.08626e-11
-1.03902e-11
2.79088e-08
6.60858e-12
-8.75619e-12
2.78289e-08
2.89601e-12
2.4454e-11
4.02507e-11
-1.31428e-11
2.79987e-08
3.75948e-11
-1.25456e-11
2.79854e-08
3.0628e-11
-1.31977e-11
2.79582e-08
-1.16006e-11
2.79066e-08
2.25649e-11
4.01409e-11
-1.49568e-11
2.80104e-08
3.76052e-11
-1.50591e-11
2.80003e-08
3.19069e-11
-1.52307e-11
2.79815e-08
-1.39407e-11
2.79444e-08
2.5138e-11
3.96229e-11
2.80153e-08
3.74368e-11
2.80069e-08
3.25258e-11
2.79917e-08
2.7961e-08
2.58153e-11
2.86048e-11
-8.41872e-12
2.79743e-08
7.04053e-12
2.69311e-11
-7.06192e-12
2.79563e-08
4.088e-12
2.24499e-11
-7.21555e-12
2.79159e-08
4.4562e-12
-5.99827e-12
2.78369e-08
2.41407e-12
1.79066e-11
2.9428e-11
-1.01017e-11
2.80018e-08
2.72299e-11
-9.45727e-12
2.79898e-08
2.28078e-11
-9.25475e-12
2.79646e-08
-8.04311e-12
2.79139e-08
1.75412e-11
2.97986e-11
-1.16451e-11
2.8013e-08
2.76744e-11
-1.13313e-11
2.80042e-08
2.38342e-11
-1.09376e-11
2.79869e-08
-9.8545e-12
2.79509e-08
1.91695e-11
2.99403e-11
2.80175e-08
2.80494e-11
2.80102e-08
2.45883e-11
2.79962e-08
2.79664e-08
2.00024e-11
2.06081e-11
-6.39537e-12
2.79767e-08
5.19963e-12
1.914e-11
-5.47435e-12
2.79596e-08
3.52408e-12
1.62799e-11
-5.13926e-12
2.79207e-08
3.09944e-12
-4.21636e-12
2.78425e-08
1.87732e-12
1.30448e-11
2.13707e-11
-7.7086e-12
2.8004e-08
1.96951e-11
-7.11407e-12
2.7993e-08
1.67707e-11
-6.66281e-12
2.79689e-08
-5.756e-12
2.7919e-08
1.32021e-11
2.18554e-11
-8.93478e-12
2.80149e-08
2.02187e-11
-8.5239e-12
2.80071e-08
1.75689e-11
-8.00919e-12
2.79908e-08
-7.16252e-12
2.79555e-08
1.4282e-11
2.21965e-11
2.80192e-08
2.07092e-11
2.80127e-08
1.82507e-11
2.79996e-08
2.79705e-08
1.50284e-11
1.46504e-11
-4.74344e-12
2.79783e-08
3.80285e-12
1.35119e-11
-4.09539e-12
2.79619e-08
2.78022e-12
1.16434e-11
-3.6695e-12
2.7924e-08
2.1768e-12
-2.99132e-12
2.78463e-08
1.39149e-12
9.36561e-12
1.52564e-11
-5.70852e-12
2.80054e-08
1.40602e-11
-5.24096e-12
2.79952e-08
1.21012e-11
-4.79926e-12
2.79719e-08
-4.13249e-12
2.79226e-08
9.63978e-12
1.568e-11
-6.60216e-12
2.80161e-08
1.45214e-11
-6.25983e-12
2.80091e-08
1.26932e-11
-5.81924e-12
2.79936e-08
-5.19671e-12
2.79588e-08
1.03777e-11
1.5996e-11
2.80203e-08
1.49424e-11
2.80144e-08
1.32186e-11
2.80021e-08
2.79735e-08
1.09621e-11
1.01423e-11
-3.36142e-12
2.79793e-08
2.68278e-12
9.32319e-12
-2.92559e-12
2.79636e-08
2.04393e-12
8.10047e-12
-2.55314e-12
2.79261e-08
1.49563e-12
-2.07034e-12
2.78489e-08
9.7676e-13
6.53801e-12
1.05742e-11
-4.01773e-12
2.80063e-08
9.76828e-12
-3.70618e-12
2.79967e-08
8.46365e-12
-3.36185e-12
2.7974e-08
-2.89219e-12
2.7925e-08
6.78566e-12
1.08676e-11
-4.58443e-12
2.80169e-08
1.01157e-11
-4.37272e-12
2.80104e-08
8.8839e-12
-4.07256e-12
2.79954e-08
-3.65175e-12
2.79611e-08
7.28636e-12
1.10733e-11
2.80208e-08
1.04028e-11
2.80156e-08
9.24611e-12
2.80038e-08
2.79756e-08
7.70061e-12
6.68599e-12
-2.17481e-12
2.798e-08
1.73719e-12
6.14214e-12
-1.89657e-12
2.79646e-08
1.3324e-12
5.3721e-12
-1.62354e-12
2.79275e-08
9.24558e-13
-1.29984e-12
2.78505e-08
5.97613e-13
4.34806e-12
6.97004e-12
-2.57861e-12
2.80069e-08
6.45786e-12
-2.39804e-12
2.79977e-08
5.62583e-12
-2.16428e-12
2.79753e-08
-1.85445e-12
2.79266e-08
4.5253e-12
7.14347e-12
-2.87487e-12
2.80173e-08
6.6908e-12
-2.77371e-12
2.80112e-08
5.90389e-12
-2.60479e-12
2.79966e-08
-2.35076e-12
2.79626e-08
4.84965e-12
7.24333e-12
2.80211e-08
6.85194e-12
2.80163e-08
6.123e-12
2.80048e-08
2.7977e-08
5.1149e-12
4.06142e-12
-1.08794e-12
2.79803e-08
8.58417e-13
3.74479e-12
-9.28843e-13
2.79651e-08
6.18287e-13
3.30632e-12
-7.46298e-13
2.79283e-08
3.47995e-13
-5.70286e-13
2.78515e-08
1.84541e-13
2.69948e-12
4.23481e-12
-1.29417e-12
2.80072e-08
3.93784e-12
-1.19826e-12
2.79982e-08
3.45936e-12
-1.06052e-12
2.7976e-08
-8.88842e-13
2.79275e-08
2.80466e-12
4.32683e-12
-1.40728e-12
2.80175e-08
4.0765e-12
-1.36733e-12
2.80117e-08
3.61709e-12
-1.28879e-12
2.79973e-08
-1.16613e-12
2.79635e-08
2.98334e-12
4.36525e-12
2.80212e-08
4.14853e-12
2.80166e-08
3.72521e-12
2.80054e-08
2.79778e-08
3.1211e-12
2.19096e-12
-1.50041e-13
9.24696e-14
2.04363e-12
-6.20631e-14
-2.75826e-14
1.81803e-12
2.63909e-14
-1.44693e-13
1.17579e-13
-2.6001e-13
1.52063e-12
2.27784e-12
-2.04994e-13
2.13295e-12
-1.52545e-13
1.89778e-12
-8.67594e-14
-1.10016e-14
1.57127e-12
2.32842e-12
-2.22956e-13
2.19827e-12
-2.07905e-13
1.96859e-12
-1.77699e-13
-1.31501e-13
1.6447e-12
2.34607e-12
2.22696e-12
2.0062e-12
1.69317e-12
-1.82215e-09
-4.12867e-09
5.09583e-08
9.35015e-10
5.16184e-09
3.00138e-08
2.35048e-09
8.53142e-09
2.33376e-08
-3.87969e-09
3.16009e-08
1.68103e-09
2.8157e-09
2.68981e-09
2.67918e-08
3.91699e-09
-5.84512e-09
4.39052e-08
4.5026e-10
-3.04407e-09
4.47475e-08
-9.69954e-10
2.03153e-08
7.47139e-10
-2.71257e-09
1.00626e-09
3.74036e-08
4.21002e-09
2.10325e-09
1.59603e-08
5.8242e-10
-5.31302e-09
3.19899e-08
-5.70144e-09
2.49742e-08
4.47717e-10
-2.97065e-09
3.49265e-08
1.13468e-09
2.38829e-08
-2.40735e-10
1.89859e-08
8.76517e-09
1.6716e-09
5.43463e-09
7.07023e-09
2.97222e-08
3.19527e-10
-4.26024e-09
3.97019e-08
1.29776e-09
-6.30885e-09
2.87771e-08
-3.26643e-09
3.78031e-08
-1.58543e-09
1.0736e-10
1.77041e-09
2.67565e-08
-1.0723e-09
3.7466e-09
3.7078e-08
1.91914e-09
2.07211e-09
3.33751e-08
-3.27957e-09
2.25069e-08
-2.59322e-10
1.53886e-09
-2.73041e-10
3.74363e-08
-2.1509e-09
-8.00111e-10
2.41968e-08
9.39309e-10
-7.49419e-10
3.17212e-08
7.39325e-09
1.28337e-08
2.40696e-09
-2.6312e-10
2.51781e-08
-8.1411e-10
2.46757e-08
4.15048e-09
1.1082e-08
2.28735e-08
3.51574e-10
2.88848e-09
3.06497e-09
1.75833e-08
-1.32888e-11
-1.8018e-09
4.45832e-08
6.29315e-10
4.56773e-11
2.79341e-08
-2.74883e-09
4.16609e-08
-3.67422e-10
1.05863e-09
5.43335e-09
2.11159e-08
1.13214e-09
1.33387e-09
3.38688e-08
-4.5357e-11
-3.30386e-10
3.49286e-08
1.69225e-11
1.98997e-08
-2.03839e-10
-1.4711e-09
2.94688e-09
4.12646e-08
4.36259e-10
7.64052e-10
2.28592e-08
2.52291e-10
3.41971e-09
2.81551e-08
1.87961e-09
1.09453e-08
2.77982e-10
1.43573e-09
1.3841e-08
2.50531e-09
2.34754e-08
-1.62954e-09
2.03822e-08
2.19839e-08
-5.06143e-10
-8.37276e-10
1.32903e-10
1.94927e-08
-5.20254e-11
-2.92207e-09
4.65716e-08
-1.39303e-09
-5.32578e-09
3.47585e-08
-3.20191e-09
4.48559e-08
-1.03731e-09
-1.3706e-09
-1.5523e-09
2.59338e-08
-1.10018e-09
-3.80413e-10
3.10567e-08
-2.23338e-10
2.175e-09
2.6551e-08
2.95991e-09
1.33528e-08
1.61675e-10
-1.85355e-09
-1.37771e-09
4.51822e-08
4.92244e-10
6.52062e-10
1.94809e-08
4.49599e-10
-3.16866e-10
3.06896e-08
-2.87667e-10
1.52945e-08
-6.5201e-10
-3.74449e-11
1.66952e-08
-1.07668e-10
2.53616e-08
4.82192e-10
2.07335e-08
2.46218e-08
-2.23935e-09
-1.89656e-09
3.61056e-09
1.98095e-08
-2.65418e-09
1.66211e-09
4.58686e-08
-4.3364e-11
1.71427e-09
3.05641e-08
6.0703e-09
3.55447e-08
3.21145e-09
-3.05799e-09
-9.09215e-09
4.62727e-08
-1.45812e-09
1.22986e-09
2.98891e-08
7.70501e-10
4.46836e-10
2.55898e-08
-1.7901e-10
2.03968e-08
-2.41553e-11
1.95933e-09
1.82404e-09
3.11762e-08
-2.5521e-09
-2.18334e-09
2.74056e-08
1.00122e-09
-9.65352e-10
2.85485e-08
-6.87318e-10
1.73574e-08
-5.53363e-10
-5.98453e-10
1.91828e-08
-2.04774e-09
2.64756e-08
2.01327e-09
1.44951e-08
2.26885e-08
-2.97128e-10
-2.71633e-09
1.96427e-09
2.55772e-08
-4.36476e-10
1.15309e-08
3.20725e-08
1.40554e-09
1.73486e-09
2.67965e-08
-9.92446e-10
3.54816e-08
2.4643e-09
-4.36088e-10
3.28806e-09
4.79707e-08
-3.59961e-09
3.43723e-09
4.11463e-08
1.23082e-09
6.30043e-09
1.61938e-08
7.63947e-09
1.12944e-08
1.70125e-09
-2.6814e-10
1.82875e-09
3.24716e-08
-2.058e-09
1.22772e-10
3.25099e-08
8.75788e-10
2.84898e-09
2.90662e-08
-2.11526e-09
2.82504e-08
-2.62449e-10
-1.70643e-09
3.07102e-08
-3.12243e-10
2.51949e-08
-2.01324e-09
2.25057e-08
1.49747e-08
1.13611e-09
-2.72847e-09
-3.54608e-09
3.93203e-08
-2.3089e-09
-1.02813e-09
3.22718e-08
-1.03972e-09
1.88397e-10
2.52738e-08
2.07661e-09
3.18136e-08
1.01668e-10
1.2714e-09
8.05856e-10
4.34178e-08
4.71328e-10
1.37223e-09
3.9546e-08
-1.60689e-10
-1.4621e-09
1.84764e-08
-3.07619e-09
1.64955e-08
-2.09003e-10
1.56634e-09
1.3298e-09
3.27807e-08
-1.34242e-11
3.48993e-09
3.1972e-08
-2.83866e-10
1.40971e-09
2.64648e-08
8.34555e-10
2.34472e-08
6.08596e-10
3.48181e-10
3.26881e-08
-1.46121e-10
2.635e-08
6.33164e-11
2.241e-08
1.62108e-08
3.23069e-10
1.89954e-09
1.16804e-09
3.83464e-08
-4.40659e-11
-4.31043e-09
3.8526e-08
-1.69936e-09
-9.63603e-10
2.78927e-08
4.15404e-10
3.09439e-08
-1.24507e-09
1.21913e-09
1.12348e-09
4.03691e-08
7.36168e-10
-1.63144e-09
3.73501e-08
-8.92659e-10
-2.96983e-09
2.21114e-08
-2.97314e-09
2.0322e-08
-1.33047e-09
5.69826e-10
2.8284e-10
3.22229e-08
2.1425e-11
-1.59957e-10
3.10489e-08
-1.11599e-09
-9.97449e-10
2.56298e-08
-7.9754e-10
2.06081e-08
-4.5237e-10
4.87806e-10
2.83135e-08
1.72061e-10
2.60423e-08
-2.60144e-10
2.17706e-08
1.71729e-08
-4.45807e-10
3.07094e-09
2.81398e-09
3.65478e-08
1.19268e-09
2.3943e-09
3.80102e-08
-1.07605e-09
2.53282e-10
2.99083e-08
3.45643e-09
2.66908e-08
-2.79171e-10
1.97219e-09
3.52504e-09
3.80198e-08
2.47785e-09
3.11207e-09
3.61267e-08
-6.70161e-10
-1.47488e-09
2.69876e-08
9.32308e-10
2.24438e-08
-2.67845e-10
9.10707e-10
1.3938e-09
3.40381e-08
1.06622e-09
2.20366e-09
3.18019e-08
-4.54436e-10
1.46044e-10
2.55295e-08
1.21689e-09
1.95966e-08
2.72503e-10
5.98939e-10
2.96664e-08
8.87857e-10
2.70624e-08
-8.43993e-11
2.18446e-08
1.60822e-08
6.73211e-10
8.9143e-10
-9.84854e-10
3.7892e-08
7.70977e-10
-6.64478e-11
3.81971e-08
3.71785e-13
-7.49159e-10
3.14281e-08
2.41865e-10
2.67299e-08
-2.80521e-10
8.28396e-10
-9.25217e-11
3.64012e-08
1.36807e-09
7.10867e-10
3.48096e-08
1.92666e-10
-8.66026e-10
2.82798e-08
1.16747e-10
2.29573e-08
-1.95681e-10
7.06939e-10
2.55568e-10
3.31872e-08
1.21092e-09
9.15133e-10
3.10936e-08
3.28548e-10
-7.37099e-11
2.56195e-08
2.28004e-10
1.97882e-08
2.56281e-11
7.09211e-10
2.93586e-08
1.13368e-09
2.70646e-08
4.53431e-10
2.2274e-08
1.64402e-08
1.54824e-10
2.24104e-10
-3.99299e-10
3.88902e-08
1.87792e-10
3.76662e-10
3.78567e-08
-1.76957e-10
-9.21441e-11
3.18849e-08
4.8293e-10
2.61871e-08
-1.17175e-10
2.64564e-10
-2.87691e-10
3.64478e-08
4.28255e-10
3.99732e-10
3.46228e-08
-1.09017e-10
-2.7376e-10
2.89986e-08
3.21898e-10
2.30706e-08
-6.13249e-11
3.016e-10
-1.21049e-10
3.31062e-08
4.41284e-10
3.90774e-10
3.09629e-08
-1.50009e-11
-7.82334e-11
2.58803e-08
2.9063e-10
1.97815e-08
2.28867e-11
3.45173e-10
2.93299e-08
4.46246e-10
2.71047e-08
9.2319e-11
2.24767e-08
1.64098e-08
7.73247e-11
1.81127e-10
-3.01996e-10
3.94181e-08
2.74624e-10
9.02543e-11
3.7673e-08
5.37185e-11
-1.89105e-10
3.22949e-08
3.19533e-11
2.62533e-08
-4.4523e-11
2.10981e-10
-2.15807e-10
3.64543e-08
3.56489e-10
1.81927e-10
3.43855e-08
7.82869e-11
-1.77494e-10
2.92651e-08
7.2324e-11
2.31207e-08
-1.21978e-11
2.43121e-10
-9.01351e-11
3.30211e-08
3.69857e-10
1.94593e-10
3.08235e-08
1.08551e-10
-8.21039e-11
2.60462e-08
6.24675e-11
1.98747e-08
2.51549e-11
2.67812e-10
2.929e-08
3.53504e-10
2.70937e-08
1.38365e-10
2.26369e-08
1.65327e-08
4.44676e-11
1.06051e-10
-1.33452e-10
3.96808e-08
1.51467e-10
6.40613e-11
3.75634e-08
2.67786e-11
-7.69624e-11
3.24964e-08
4.42329e-11
2.62487e-08
-1.29175e-11
1.27471e-10
-1.18386e-10
3.65224e-08
1.88842e-10
9.04558e-11
3.42977e-08
4.08132e-11
-9.07995e-11
2.94268e-08
4.41475e-11
2.31577e-08
3.88642e-12
1.47661e-10
-6.50418e-11
3.30212e-08
1.971e-10
8.59936e-11
3.07784e-08
5.72579e-11
-5.81496e-11
2.61534e-08
3.22993e-11
1.99221e-08
2.16553e-11
1.62918e-10
2.92912e-08
1.90591e-10
2.7098e-08
7.32759e-11
2.27209e-08
1.65846e-08
2.92811e-11
7.35211e-11
-6.58625e-11
3.98163e-08
1.0011e-10
2.9082e-11
3.75077e-08
2.89961e-11
-4.61573e-11
3.26136e-08
9.56643e-12
2.62679e-08
2.50144e-13
8.53279e-11
-6.60563e-11
3.65769e-08
1.15544e-10
3.78611e-11
3.42585e-08
3.51766e-11
-5.4294e-11
2.95152e-08
1.01253e-11
2.3182e-08
1.03177e-11
9.64151e-11
-4.37916e-11
3.30388e-08
1.17936e-10
3.28779e-11
3.07618e-08
4.21315e-11
-4.03772e-11
2.62153e-08
5.00174e-12
1.99516e-08
1.76377e-11
1.05153e-10
2.93008e-08
1.14396e-10
2.71033e-08
4.93701e-11
2.27667e-08
1.66154e-08
2.08801e-11
5.20178e-11
-3.29948e-11
3.98884e-08
6.35091e-11
1.22678e-11
3.74839e-08
2.3083e-11
-2.51672e-11
3.26791e-08
2.34529e-12
2.62821e-08
6.4113e-12
5.90884e-11
-3.65729e-11
3.66141e-08
7.13039e-11
1.40068e-11
3.42444e-08
2.68381e-11
-3.13244e-11
2.95656e-08
6.40333e-13
2.31992e-08
1.13158e-11
6.55548e-11
-2.7864e-11
3.30565e-08
7.231e-11
1.04016e-11
3.07585e-08
3.01291e-11
-2.55586e-11
2.62516e-08
-2.19157e-12
1.99702e-08
1.431e-11
7.07663e-11
2.93112e-08
7.11309e-11
2.71096e-08
3.39758e-11
2.27931e-08
1.66334e-08
1.54668e-11
3.78091e-11
-1.69968e-11
3.99271e-08
4.1563e-11
3.98352e-12
3.7476e-08
1.81526e-11
-1.42266e-11
3.27166e-08
-1.12328e-12
2.62939e-08
7.43217e-12
4.22608e-11
-2.05888e-11
3.66375e-08
4.58667e-11
3.04767e-12
3.42416e-08
2.04835e-11
-1.85303e-11
2.95951e-08
-2.82526e-12
2.32114e-08
9.9359e-12
4.60669e-11
-1.75269e-11
3.30698e-08
4.65156e-11
2.17466e-13
3.07608e-08
2.20942e-11
-1.60381e-11
2.62735e-08
-4.15257e-12
1.99823e-08
1.11471e-11
4.95381e-11
2.93194e-08
4.62045e-11
2.71152e-08
2.42003e-11
2.28089e-08
1.66446e-08
1.15315e-11
2.7682e-11
-9.10856e-12
3.99483e-08
2.77067e-11
3.44633e-13
3.74755e-08
1.38343e-11
-8.19391e-12
3.27385e-08
-1.93395e-12
2.63029e-08
6.65686e-12
3.05877e-11
-1.19581e-11
3.66516e-08
3.03102e-11
-1.40932e-12
3.42434e-08
1.53686e-11
-1.12026e-11
2.96129e-08
-3.52015e-12
2.32202e-08
8.01158e-12
3.30809e-11
-1.13271e-11
3.30788e-08
3.07852e-11
-3.00331e-12
3.07645e-08
1.62079e-11
-1.01689e-11
2.62869e-08
-4.20178e-12
1.99906e-08
8.45074e-12
3.53404e-11
2.93254e-08
3.10931e-11
2.71202e-08
1.74712e-11
2.28188e-08
1.66517e-08
8.48206e-12
2.02773e-11
-5.1444e-12
3.99601e-08
1.88047e-11
-1.13522e-12
3.7478e-08
1.02693e-11
-4.84065e-12
3.27517e-08
-2.04377e-12
2.63097e-08
5.39663e-12
2.22697e-11
-7.29445e-12
3.66602e-08
2.04724e-11
-2.82358e-12
3.42467e-08
1.14632e-11
-6.98866e-12
2.96238e-08
-3.28735e-12
2.32267e-08
6.16122e-12
2.39035e-11
-7.57332e-12
3.30847e-08
2.09363e-11
-3.95702e-12
3.07684e-08
1.19343e-11
-6.60262e-12
2.62955e-08
-3.61408e-12
1.99964e-08
6.28556e-12
2.54463e-11
2.93295e-08
2.14234e-11
2.71243e-08
1.26962e-11
2.28252e-08
1.66566e-08
6.19398e-12
1.47515e-11
-3.07544e-12
3.99668e-08
1.29028e-11
-1.39263e-12
3.74811e-08
7.58762e-12
-2.99853e-12
3.27599e-08
-1.73688e-12
2.63148e-08
4.1245e-12
1.61217e-11
-4.6808e-12
3.66654e-08
1.40277e-11
-2.85961e-12
3.42501e-08
8.44287e-12
-4.53467e-12
2.96308e-08
-2.66727e-12
2.32314e-08
4.57267e-12
1.72192e-11
-5.25998e-12
3.30885e-08
1.4441e-11
-3.63188e-12
3.07718e-08
8.70156e-12
-4.43264e-12
2.6301e-08
-2.8231e-12
2.00005e-08
4.59254e-12
1.82735e-11
2.93323e-08
1.4932e-11
2.71274e-08
9.18907e-12
2.28295e-08
1.666e-08
4.50841e-12
1.0558e-11
-1.93206e-12
3.99708e-08
8.87604e-12
-1.27531e-12
3.74839e-08
5.50806e-12
-1.92128e-12
3.27651e-08
-1.34404e-12
2.63186e-08
3.03357e-12
1.15066e-11
-3.1217e-12
3.66686e-08
9.64023e-12
-2.40811e-12
3.42529e-08
6.08519e-12
-3.00693e-12
2.96353e-08
-2.03704e-12
2.32348e-08
3.297e-12
1.22457e-11
-3.69352e-12
3.3091e-08
9.98133e-12
-2.94543e-12
3.07745e-08
6.28537e-12
-3.03909e-12
2.63047e-08
-2.09036e-12
2.00034e-08
3.29761e-12
1.29755e-11
2.93342e-08
1.03912e-11
2.71298e-08
6.546e-12
2.28323e-08
1.66623e-08
3.23485e-12
7.32977e-12
-1.23303e-12
3.99732e-08
6.0163e-12
-1.00111e-12
3.74861e-08
3.87215e-12
-1.24181e-12
3.27684e-08
-9.66405e-13
2.63212e-08
2.14599e-12
7.99024e-12
-2.09016e-12
3.66706e-08
6.5371e-12
-1.81903e-12
3.4255e-08
4.2556e-12
-1.99055e-12
2.96382e-08
-1.46179e-12
2.32372e-08
2.31043e-12
8.48168e-12
-2.54898e-12
3.30927e-08
6.79011e-12
-2.18149e-12
3.07764e-08
4.38962e-12
-2.05925e-12
2.63071e-08
-1.4798e-12
2.00055e-08
2.30283e-12
8.9762e-12
2.93355e-08
7.103e-12
2.71314e-08
4.53636e-12
2.28343e-08
1.6664e-08
2.26296e-12
4.84991e-12
-7.51853e-13
3.99746e-08
3.93154e-12
-6.82567e-13
3.74876e-08
2.60235e-12
-7.65297e-13
3.27704e-08
-6.30181e-13
2.63229e-08
1.45756e-12
5.28622e-12
-1.31602e-12
3.66718e-08
4.27007e-12
-1.21367e-12
3.42565e-08
2.85011e-12
-1.24709e-12
2.964e-08
-9.48029e-13
2.32388e-08
1.5592e-12
5.59789e-12
-1.63411e-12
3.30937e-08
4.44721e-12
-1.43621e-12
3.07777e-08
2.92743e-12
-1.29127e-12
2.63086e-08
-9.48584e-13
2.00068e-08
1.55306e-12
5.92157e-12
2.93362e-08
4.66637e-12
2.71325e-08
3.01772e-12
2.28355e-08
1.6665e-08
1.53642e-12
2.99215e-12
-3.70425e-13
3.99752e-08
2.44444e-12
-3.58768e-13
3.74885e-08
1.68297e-12
-3.89104e-13
3.27715e-08
-3.29906e-13
2.63239e-08
9.82589e-13
3.23986e-12
-6.52578e-13
3.66724e-08
2.64123e-12
-6.23265e-13
3.42573e-08
1.81403e-12
-6.1541e-13
2.9641e-08
-4.81401e-13
2.32397e-08
1.03984e-12
3.43094e-12
-8.12576e-13
3.30942e-08
2.75463e-12
-7.07411e-13
3.07784e-08
1.8854e-12
-6.0871e-13
2.63095e-08
-4.26809e-13
2.00075e-08
1.04157e-12
3.62454e-12
2.93366e-08
2.89505e-12
2.71331e-08
1.92493e-12
2.28362e-08
1.66656e-08
1.04066e-12
1.71139e-12
-7.42276e-14
1.4597e-12
-7.77771e-14
1.08651e-12
-8.5033e-14
-6.4663e-14
7.10373e-13
1.81106e-12
-1.0953e-13
1.5359e-12
-1.08422e-13
1.1333e-12
-1.06123e-13
-5.99822e-14
7.28056e-13
1.9014e-12
-1.15296e-13
1.59425e-12
-7.64054e-14
1.16539e-12
-2.52121e-14
3.79486e-14
7.33658e-13
2.00379e-12
1.67444e-12
1.23194e-12
7.45783e-13
4.23857e-09
1.02188e-09
1.83099e-08
2.79044e-09
-9.78485e-10
2.29987e-08
9.14097e-09
-8.72543e-11
1.79678e-08
2.59225e-09
3.52547e-08
-6.9807e-10
1.73305e-09
2.21323e-08
1.96224e-09
4.62678e-09
1.85658e-08
6.575e-09
3.83034e-09
2.14427e-08
-1.09515e-09
4.29266e-08
4.12142e-09
1.35872e-11
1.70256e-08
3.24799e-09
-1.87793e-09
3.84429e-08
-8.18849e-10
-6.42493e-10
4.30905e-08
3.7523e-10
3.58197e-08
1.07629e-09
1.49582e-08
5.41321e-09
2.78548e-08
1.70227e-09
4.06406e-08
3.99696e-08
-8.12932e-10
4.862e-10
2.05744e-08
-3.13012e-09
2.661e-09
2.50619e-08
-1.73169e-09
3.89486e-09
1.24152e-08
4.601e-09
2.73347e-08
2.46118e-09
1.75978e-09
1.8236e-08
1.12826e-09
-1.23446e-09
2.37941e-08
-2.13996e-09
-1.80546e-09
3.04113e-08
-8.99636e-10
4.59844e-08
-1.09755e-09
2.41004e-09
1.98824e-08
8.90962e-10
-1.54811e-09
3.6768e-08
4.68035e-10
-1.1997e-09
4.29077e-08
2.60701e-09
3.27131e-08
-3.40723e-09
3.10116e-08
5.40332e-10
2.32903e-08
7.79423e-09
2.80324e-08
5.2419e-08
-1.88836e-09
-6.51014e-10
2.126e-08
-5.90894e-10
1.03921e-09
2.30032e-08
2.51924e-09
6.73753e-10
8.42745e-09
-2.21922e-09
3.16352e-08
7.54399e-10
1.85914e-09
1.55689e-08
2.11652e-09
-8.67804e-10
2.4339e-08
-5.38725e-09
-2.59023e-10
3.88478e-08
5.23897e-09
3.30785e-08
-2.72726e-09
3.99134e-09
2.35336e-08
4.78178e-09
4.25891e-09
2.41323e-08
1.09379e-08
1.04519e-09
3.54474e-08
-7.39719e-10
4.92756e-08
1.11478e-09
3.44606e-08
-1.30359e-09
2.89012e-08
1.06789e-08
1.74503e-08
6.52435e-08
5.81805e-09
1.55903e-09
7.1948e-09
3.63079e-10
1.11637e-09
2.66898e-08
-1.49235e-09
2.64282e-09
7.80173e-09
1.98579e-09
2.74283e-08
3.8238e-10
2.80716e-10
1.80199e-08
6.12609e-09
8.73886e-10
1.88378e-08
4.26382e-10
3.67612e-09
4.35142e-08
-1.1292e-09
3.66481e-08
1.60575e-09
-1.17078e-09
2.24466e-08
1.40762e-09
2.10528e-10
2.49938e-08
-4.54074e-09
6.46873e-10
4.4425e-08
-6.13148e-10
4.41688e-08
3.41129e-09
2.65575e-08
2.37596e-09
3.02166e-08
-6.41183e-10
2.37907e-08
6.6759e-08
7.46432e-11
1.00311e-09
4.49602e-09
2.10299e-09
1.47598e-09
2.26321e-08
4.68507e-09
-6.77816e-11
5.26327e-09
-3.66675e-09
3.90211e-08
1.01789e-10
3.17894e-11
2.36736e-08
-1.01633e-09
-8.11034e-10
2.22429e-08
-2.26715e-09
-2.85749e-10
4.4983e-08
-2.30052e-09
3.32046e-08
-1.18026e-09
-9.4443e-10
2.60926e-08
1.00745e-09
1.23443e-09
2.07606e-08
-1.04061e-08
4.21201e-10
5.51316e-08
1.97269e-09
2.97912e-08
1.86566e-09
1.88786e-08
-9.31275e-10
3.50868e-08
-8.27005e-09
3.06892e-08
6.48514e-08
-2.72662e-09
-1.35936e-09
1.22983e-08
2.16261e-09
-3.94895e-10
1.78754e-08
-5.42877e-09
-1.15816e-09
1.57141e-08
3.5847e-09
3.2659e-08
-6.38034e-10
-3.84927e-10
2.48875e-08
3.184e-09