/*--------------------------------*- C++ -*----------------------------------*\
| =========                 |                                                 |
| \\      /  F ield         | OpenFOAM: The Open Source CFD Toolbox           |
|  \\    /   O peration     | Version:  2506                                  |
|   \\  /    A nd           | Website:  www.openfoam.com                      |
|    \\/     M anipulation  |                                                 |
\*---------------------------------------------------------------------------*/
FoamFile
{
    version     2.0;
    format      ascii;
    arch        "LSB;label=32;scalar=64";
    class       volScalarField;
    location    "0.04";
    object      voidfraction;
}
// * * * * * * * * * * * * * * * * * * * * * * * * * * * * * * * * * * * * * //

dimensions      [0 0 0 0 0 0 0];

internalField   nonuniform List<scalar> 
1152
(
0.544431
0.468063
0.452263
0.428563
0.44173
0.460163
0.38643
0.428563
0.44963
0.436463
0.420663
0.48913
0.404863
0.446997
0.52863
0.49703
0.399596
0.373263
0.38643
0.378529
0.399596
0.383796
0.389063
0.423296
0.412763
0.428563
0.412763
0.383796
0.41013
0.357463
0.328496
0.420663
0.491764
0.381163
0.396963
0.328496
0.354829
0.383796
0.44963
0.420663
0.389063
0.399596
0.404863
0.357463
0.40223
0.44173
0.44963
0.328496
0.349563
0.423296
0.378529
0.396963
0.378529
0.357463
0.468063
0.423296
0.446997
0.370629
0.399596
0.378529
0.341663
0.428563
0.428563
0.349563
0.431196
0.404863
0.415396
0.407496
0.439097
0.362729
0.360096
0.399596
0.396963
0.452263
0.365363
0.431196
0.44963
0.291629
0.45753
0.415396
0.360096
0.407496
0.407496
0.446997
0.47333
0.367996
0.412763
0.354829
0.375896
0.43383
0.38643
0.381163
0.344296
0.389063
0.431196
0.43383
0.718232
0.734032
0.620798
0.718232
0.673465
0.628698
0.644498
0.570764
0.631331
0.734032
0.655031
0.665565
0.515464
0.568131
0.847266
0.755098
1
1
1
1
1
1
1
1
1
1
1
1
0.997367
1
1
1
1
1
1
1
1
1
1
1
1
1
1
1
1
1
1
1
1
1
1
1
1
1
1
1
1
1
1
1
1
1
1
1
1
1
1
1
1
1
1
1
1
1
1
1
1
1
1
1
1
1
1
1
1
1
1
1
1
1
1
1
1
1
1
1
1
1
1
1
1
1
1
1
1
1
1
1
1
1
1
1
1
1
1
1
1
1
1
1
1
1
1
1
1
1
1
1
1
1
1
1
1
1
1
1
1
1
1
1
1
1
1
1
1
1
1
1
1
1
1
1
1
1
1
1
1
1
1
1
1
1
1
1
1
1
1
1
1
1
1
1
1
1
1
1
1
1
1
1
1
1
1
1
1
1
1
1
1
1
1
1
1
1
1
1
1
1
1
1
1
1
1
1
1
1
1
1
1
1
1
1
1
1
1
1
1
1
1
1
1
1
1
1
1
1
1
1
1
1
1
1
1
1
1
1
1
1
1
1
1
1
1
1
1
1
1
1
1
1
1
1
1
1
1
1
1
1
1
1
1
1
1
1
1
1
1
1
1
1
1
1
1
1
1
1
1
1
1
1
1
1
1
1
1
1
1
1
0.538266
0.424475
0.428186
0.463137
0.442169
0.49468
0.539566
0.436882
0.48043
0.38746
0.490341
0.510388
0.483792
0.458621
0.470421
0.386657
0.418358
0.422569
0.415141
0.457741
0.412498
0.431251
0.412886
0.402847
0.429578
0.394583
0.432173
0.412466
0.441193
0.358465
0.377343
0.412943
0.361088
0.411135
0.399921
0.436159
0.37887
0.410107
0.429939
0.418317
0.389782
0.404079
0.410014
0.350811
0.325923
0.420724
0.345248
0.452372
0.344981
0.428286
0.415141
0.473928
0.34722
0.410107
0.422631
0.381189
0.449477
0.380338
0.421093
0.387079
0.363511
0.353052
0.444744
0.404181
0.395092
0.437815
0.449928
0.44695
0.414476
0.397422
0.398269
0.381189
0.429578
0.382712
0.429403
0.408839
0.383558
0.434258
0.354876
0.474277
0.339612
0.445437
0.399921
0.444252
0.467885
0.427022
0.427503
0.430693
0.387571
0.430195
0.410014
0.416093
0.383558
0.377414
0.396601
0.386657
0.695756
0.592177
0.586902
0.678961
0.728997
0.703997
0.554183
0.563738
0.750164
0.743588
0.687003
0.727993
0.837119
0.718483
0.736815
0.649518
1
1
1
1
1
1
1
1
1
1
1
1
1
1
1
1
1
1
1
1
1
1
1
1
1
1
1
1
1
1
1
1
1
1
1
1
1
1
1
1
1
1
1
1
1
1
1
1
1
1
1
1
1
1
1
1
1
1
1
1
1
1
1
1
1
1
1
1
1
1
1
1
1
1
1
1
1
1
1
1
1
1
1
1
1
1
1
1
1
1
1
1
1
1
1
1
1
1
1
1
1
1
1
1
1
1
1
1
1
1
1
1
1
1
1
1
1
1
1
1
1
1
1
1
1
1
1
1
1
1
1
1
1
1
1
1
1
1
1
1
1
1
1
1
1
1
1
1
1
1
1
1
1
1
1
1
1
1
1
1
1
1
1
1
1
1
1
1
1
1
1
1
1
1
1
1
1
1
1
1
1
1
1
1
1
1
1
1
1
1
1
1
1
1
1
1
1
1
1
1
1
1
1
1
1
1
1
1
1
1
1
1
1
1
1
1
1
1
1
1
1
1
1
1
1
1
1
1
1
1
1
1
1
1
1
1
1
1
1
1
1
1
1
1
1
1
1
1
1
1
1
1
1
1
1
1
1
1
1
1
1
1
1
1
1
1
1
1
1
1
1
1
0.465515
0.44148
0.455446
0.525186
0.444744
0.415554
0.356855
0.465147
0.41531
0.451563
0.484108
0.464495
0.350982
0.453899
0.469863
0.448782
0.35599
0.4306
0.409035
0.411879
0.40623
0.404474
0.456737
0.493412
0.369293
0.470557
0.429136
0.407323
0.381052
0.325664
0.398651
0.366457
0.491801
0.426973
0.356436
0.428065
0.415858
0.434943
0.37878
0.408618
0.418017
0.389834
0.435479
0.395889
0.453722
0.414102
0.38876
0.479206
0.364752
0.419719
0.350248
0.425368
0.361296
0.371235
0.466482
0.410792
0.382827
0.394583
0.333992
0.485457
0.421146
0.398625
0.365023
0.368247
0.347228
0.4306
0.34406
0.392994
0.409439
0.412784
0.429939
0.443405
0.409896
0.401705
0.477765
0.397795
0.393581
0.418524
0.422388
0.482786
0.338465
0.401586
0.353342
0.498208
0.419068
0.418323
0.454301
0.386876
0.418017
0.382712
0.407993
0.397795
0.37604
0.40968
0.382826
0.389723
0.723996
0.659085
0.718441
0.727522
0.669414
0.612216
0.697917
0.828238
0.612914
0.762581
0.803369
0.7332
0.744402
0.728055
0.8734
0.813874
1
1
1
1
1
1
1
1
1
1
1
1
1
1
1
1
1
1
1
1
1
1
1
1
1
1
1
1
1
1
1
1
1
1
1
1
1
1
1
1
1
1
1
1
1
1
1
1
1
1
1
1
1
1
1
1
1
1
1
1
1
1
1
1
1
1
1
1
1
1
1
1
1
1
1
1
1
1
1
1
1
1
1
1
1
1
1
1
1
1
1
1
1
1
1
1
1
1
1
1
1
1
1
1
1
1
1
1
1
1
1
1
1
1
1
1
1
1
1
1
1
1
1
1
1
1
1
1
1
1
1
1
1
1
1
1
1
1
1
1
1
1
1
1
1
1
1
1
1
1
1
1
1
1
1
1
1
1
1
1
1
1
1
1
1
1
1
1
1
1
1
1
1
1
1
1
1
1
1
1
1
1
1
1
1
1
1
1
1
1
1
1
1
1
1
1
1
1
1
1
1
1
1
1
1
1
1
1
1
1
1
1
1
1
1
1
1
1
1
1
1
1
1
1
1
1
1
1
1
1
1
1
1
1
1
1
1
1
1
1
1
1
1
1
1
1
1
1
1
1
1
1
1
1
1
1
1
1
1
1
1
1
1
1
1
1
1
1
1
1
1
1
)
;

boundaryField
{
    inlet
    {
        type            fixedValue;
        value           uniform 1;
    }
    outlet
    {
        type            fixedValue;
        value           uniform 1;
    }
    wall
    {
        type            zeroGradient;
    }
    procBoundary1to0
    {
        type            processor;
        value           nonuniform List<scalar> 
192
(
0.383796
0.381163
0.436463
0.42593
0.304796
0.391696
0.333763
0.360096
0.310062
0.41803
0.452263
0.367996
0.44173
0.41803
0.325862
0.51283
0.407496
0.389063
0.502297
0.360096
0.446997
0.444363
0.44963
0.428563
0.607631
0.549697
0.702431
0.599731
1
1
1
1
1
1
1
1
1
1
1
1
1
1
1
1
1
1
1
1
1
1
1
1
1
1
1
1
1
1
1
1
1
1
1
1
1
1
1
1
1
1
1
1
1
1
1
1
1
1
1
1
1
1
1
1
1
1
1
1
1
1
1
1
1
1
1
1
0.391513
0.412498
0.476008
0.373534
0.423727
0.450082
0.40968
0.456228
0.443413
0.418432
0.378727
0.46124
0.484575
0.42041
0.427367
0.378546
0.452361
0.404585
0.374305
0.413628
0.491734
0.396673
0.420735
0.463745
0.629539
0.643938
0.801016
0.67925
1
1
1
1
1
1
1
1
1
1
1
1
1
1
1
1
1
1
1
1
1
1
1
1
1
1
1
1
1
1
1
1
1
1
1
1
1
1
1
1
1
1
1
1
1
1
1
1
1
1
1
1
1
1
1
1
1
1
1
1
1
1
1
1
1
1
1
1
)
;
    }
    procBoundary1to3
    {
        type            processor;
        value           nonuniform List<scalar> 
192
(
0.573397
0.412763
0.415396
0.339029
0.499664
0.399596
0.462797
0.428563
0.38643
0.365363
0.375896
0.51283
0.281096
0.349563
0.436463
0.367996
0.286362
0.50493
0.375896
0.389063
0.533897
0.44173
0.41013
0.428563
0.462797
0.549697
0.570764
0.683998
1
1
1
1
1
1
1
1
1
1
1
1
1
1
1
1
1
1
1
1
1
1
1
1
1
1
1
1
1
1
1
1
1
1
1
1
1
1
1
1
1
1
1
1
1
1
1
1
1
1
1
1
1
1
1
1
1
1
1
1
1
1
1
1
1
1
1
1
0.49131
0.471586
0.418432
0.452361
0.37604
0.361039
0.463929
0.463099
0.378546
0.347774
0.424366
0.448782
0.416134
0.438422
0.438213
0.486365
0.428663
0.378727
0.414476
0.396882
0.451216
0.416313
0.471841
0.40762
0.67925
0.732477
0.699325
0.645646
1
1
1
1
1
1
1
1
1
1
1
1
1
1
1
1
1
1
1
1
1
1
1
1
1
1
1
1
1
1
1
1
1
1
1
1
1
1
1
1
1
1
1
1
1
1
1
1
1
1
1
1
1
1
1
1
1
1
1
1
1
1
1
1
1
1
1
1
)
;
    }
}


// ************************************************************************* //
