FoamFile
{version 2.0; format ascii;class Cloud<passiveParticle>; location 0;object  positions;}
2498
(
( 0.00164404 -0.00391082 0.00606935 ) 0 
( 0.000396603 -0.00501489 0.00507269 ) 0 
( 0.0124379 -0.000906293 0.00352754 ) 0 
( 0.000123671 -0.0133502 0.00514283 ) 0 
( 0.0109671 -0.00403284 0.00455867 ) 0 
( 0.00320906 -0.00405988 0.00548347 ) 0 
( 0.00491516 -0.00362441 0.000499119 ) 0 
( 0.0052729 -0.0122648 0.0023567 ) 0 
( 0.00437354 -0.00420337 0.00698707 ) 0 
( 0.0083162 -0.00579269 0.00410046 ) 0 
( 0.00456879 -0.00147644 0.00588592 ) 0 
( 0.0102199 -0.00707657 0.00639108 ) 0 
( 0.00511794 -0.00873044 0.00496488 ) 0 
( 0.00482427 -0.0105098 0.000499426 ) 0 
( 0.00505739 -0.00528923 0.00395044 ) 0 
( 0.00911172 -0.00848585 0.00409506 ) 0 
( 0.00922848 -0.0020527 0.000499436 ) 0 
( 0.0122163 -0.00251226 0.00597283 ) 0 
( 0.00463863 -0.00603781 0.00721975 ) 0 
( 0.00224946 -0.0131603 0.00232584 ) 0 
( 0.00517766 -0.00144437 0.00148137 ) 0 
( 0.00751661 -0.00480777 0.000499198 ) 0 
( 0.00896822 -0.0041857 0.0062872 ) 0 
( 0.00401595 -0.00129557 0.0031349 ) 0 
( 0.00103767 -0.00701016 0.00547657 ) 0 
( 0.0102244 -0.00752834 0.00221775 ) 0 
( 0.000974152 -0.00331356 0.00287139 ) 0 
( 0.00376179 -0.00648132 0.00703966 ) 0 
( 0.00415974 -0.00694986 0.00611296 ) 0 
( 0.00894615 -0.00277191 0.00129986 ) 0 
( 0.00064838 -0.00978672 0.00147528 ) 0 
( 7.54266e-05 -0.00735559 0.00277189 ) 0 
( 0.00493377 -0.00381508 0.00585171 ) 0 
( 0.00923575 -0.0021155 0.00377091 ) 0 
( 0.00902768 -0.00294175 0.00324802 ) 0 
( 0.0133381 -0.000573008 0.00477884 ) 0 
( 0.00627005 -0.000962161 0.000499714 ) 0 
( 0.0112671 -0.00425017 0.00201143 ) 0 
( 0.00763971 -0.0109479 0.00128164 ) 0 
( 0.00738734 -0.0074794 0.0054063 ) 0 
( 0.000184641 -0.00471186 0.00809493 ) 0 
( 0.00411559 -0.00435868 0.00603436 ) 0 
( 0.00560523 -0.0111576 0.00671695 ) 0 
( 0.00135362 -0.00868045 0.0022175 ) 0 
( 0.00761099 -0.00844484 0.00527365 ) 0 
( 0.00773034 -0.000996484 0.000499676 ) 0 
( 0.00340876 -0.000351905 0.000499795 ) 0 
( 8.65337e-05 -0.00104054 0.00557898 ) 0 
( 0.00833745 -0.00981639 0.00347813 ) 0 
( 0.00416698 -0.00518017 0.00701916 ) 0 
( 0.00456059 -0.00739387 0.00364571 ) 0 
( 0.0133231 -0.000859178 0.00663667 ) 0 
( 0.00229196 -0.0112695 0.00645713 ) 0 
( 0.00183648 -0.0055377 0.00530209 ) 0 
( 0.00751058 -0.00372946 0.000499795 ) 0 
( 0.000580473 -0.000736908 0.000499617 ) 0 
( 0.0094004 -0.00948063 0.000499031 ) 0 
( 0.00860593 -0.00904137 0.0024601 ) 0 
( 0.00315528 -0.00617288 0.00405799 ) 0 
( 0.0120474 -0.00350567 0.0057877 ) 0 
( 0.00154511 -0.00720504 0.0022429 ) 0 
( 0.00717066 -0.00115033 0.00518962 ) 0 
( 0.00793893 -0.0107332 0.00347948 ) 0 
( 0.00825264 -0.00149311 0.00567532 ) 0 
( 0.00937773 -0.00501249 0.00494551 ) 0 
( 0.00399333 -0.00119585 0.00511793 ) 0 
( 0.00889042 -0.00403976 0.00462436 ) 0 
( 0.000965227 -0.0104216 0.00695324 ) 0 
( 0.00559455 -0.00909044 0.00576559 ) 0 
( 0.0036856 -0.00356527 0.00209015 ) 0 
( 0.00244204 -0.00685625 0.000499789 ) 0 
( 0.00827219 -0.007443 0.000499797 ) 0 
( 0.0107146 -0.00344516 0.00375442 ) 0 
( 0.00602964 -0.00264037 0.00582679 ) 0 
( 0.00699305 -0.00109483 0.00319673 ) 0 
( 0.00375249 -0.0012531 0.00653438 ) 0 
( 0.0116475 -0.00466991 0.0028339 ) 0 
( 0.000460486 -0.00245646 0.00289919 ) 0 
( 0.0092686 -0.00726473 0.00614732 ) 0 
( 0.00180062 -0.00350473 0.00384785 ) 0 
( 0.00985499 -0.00426671 0.00673926 ) 0 
( 0.00726342 -0.00699407 0.000499193 ) 0 
( 0.0047225 -0.00397133 0.00206522 ) 0 
( 0.00212752 -0.0123583 0.00644153 ) 0 
( 0.00868792 -0.00887596 0.00613377 ) 0 
( 0.000481135 -0.0123422 0.000499793 ) 0 
( 0.00922272 -0.00158247 0.00543599 ) 0 
( 0.0109558 -0.00501723 0.00109515 ) 0 
( 0.00519889 -0.00521382 0.00713639 ) 0 
( 0.00333815 -0.00752532 0.000499796 ) 0 
( 0.00946825 -0.00825595 0.00499946 ) 0 
( 0.00153515 -0.0109383 0.0051102 ) 0 
( 0.00202011 -0.00507012 0.00383113 ) 0 
( 0.00111432 -0.00394106 0.00210596 ) 0 
( 0.00183383 -0.0105497 0.000499896 ) 0 
( 0.00542652 -0.00708667 0.00480285 ) 0 
( 0.00233438 -0.00516476 0.00106469 ) 0 
( 0.00726293 -0.00916615 0.00467509 ) 0 
( 0.00446041 -0.0123595 0.00138767 ) 0 
( 0.00160904 -0.00641732 0.00488376 ) 0 
( 0.00456437 -0.0114776 0.000499842 ) 0 
( 0.000551129 -0.00371378 0.00739252 ) 0 
( 0.0106366 -0.00625645 0.00136635 ) 0 
( 0.00381144 -0.00292564 0.00356233 ) 0 
( 0.00138194 -0.00171639 0.00760047 ) 0 
( 0.0029081 -0.00774891 0.00582532 ) 0 
( 0.0117546 -0.00442052 0.00115536 ) 0 
( 0.00579981 -0.00781243 0.00117015 ) 0 
( 0.00761404 -0.00436742 0.00508378 ) 0 
( 0.00108771 -0.0133056 0.000499809 ) 0 
( 0.00195237 -0.0059844 0.000499709 ) 0 
( 0.00655745 -0.00270095 0.00699794 ) 0 
( 0.000175608 -0.00108176 0.00412165 ) 0 
( 0.0118567 -0.00613542 0.00145055 ) 0 
( 0.00434118 -0.00215759 0.00519031 ) 0 
( 0.00188324 -0.0114353 0.000961494 ) 0 
( 0.0044726 -0.00565388 0.00504808 ) 0 
( 0.0118143 -0.00621816 0.00438262 ) 0 
( 0.00657243 -0.00448287 0.000499026 ) 0 
( 0.0109594 -0.00261736 0.00680556 ) 0 
( 0.00278072 -0.00489257 0.00513358 ) 0 
( 0.00805672 -0.00994678 0.00633178 ) 0 
( 0.00507509 -0.00464196 0.00136102 ) 0 
( 0.000977941 -0.00335481 0.00461087 ) 0 
( 0.00778233 -0.00497259 0.0043059 ) 0 
( 0.00293461 -0.00701163 0.00669523 ) 0 
( 0.00831189 -0.00436501 0.0009107 ) 0 
( 0.00308618 -0.00977562 0.00201373 ) 0 
( 0.00687707 -0.00967949 0.00689975 ) 0 
( 0.00784002 -0.00992845 0.00119405 ) 0 
( 0.0103998 -0.00529607 0.00629133 ) 0 
( 0.00113736 -0.00879557 0.00554956 ) 0 
( 0.00430343 -0.00147953 0.00196565 ) 0 
( 0.00267102 -0.0107462 0.00462023 ) 0 
( 0.0116616 -0.00117386 0.00642662 ) 0 
( 0.0076169 -0.00937954 0.00563558 ) 0 
( 0.00698664 -0.00326955 0.00490531 ) 0 
( 0.0100079 -0.00567925 0.00545616 ) 0 
( 0.0131678 -0.0021993 0.00582021 ) 0 
( 0.00923458 -0.00740399 0.00227358 ) 0 
( 0.00587842 -0.0100583 0.000988147 ) 0 
( 0.00898559 -0.00670953 0.000498904 ) 0 
( 0.0038036 -0.0111026 0.00198611 ) 0 
( 0.00327483 -0.00504442 0.00647716 ) 0 
( 0.00471946 -0.00989492 0.00286811 ) 0 
( 0.00961006 -0.00689074 0.0031685 ) 0 
( 0.00364871 -0.00985107 0.00294828 ) 0 
( 0.0065454 -0.00634214 0.00612196 ) 0 
( 0.0102583 -0.00259957 0.00609312 ) 0 
( 0.00431063 -0.0048774 0.00196711 ) 0 
( 0.0104739 -0.00485597 0.00195516 ) 0 
( 0.00448072 -0.00440103 0.00359538 ) 0 
( 0.00564144 -0.000486973 0.00297752 ) 0 
( 0.00213724 -0.00121257 0.00132763 ) 0 
( 0.00925418 -0.00694713 0.00709538 ) 0 
( 0.00896981 -0.001236 0.00337669 ) 0 
( 0.00618509 -0.000430857 0.00134789 ) 0 
( 0.000204826 -0.00651711 0.00774227 ) 0 
( 0.00626862 -0.00843378 0.00300192 ) 0 
( 3.48605e-05 -0.00540774 0.00321422 ) 0 
( 0.00608494 -1.02396e-05 0.0054592 ) 0 
( 0.00230108 -0.00868789 0.00325092 ) 0 
( 0.00287442 -0.0130373 0.00621962 ) 0 
( 0.000359853 -0.000505617 0.00207515 ) 0 
( 0.000906246 -0.00327618 0.0058402 ) 0 
( 0.0028927 -0.00975824 0.000499219 ) 0 
( 0.00384995 -0.0108092 0.00635061 ) 0 
( 0.0132166 -0.0018828 0.00307194 ) 0 
( 0.00129618 -0.00518358 0.00741186 ) 0 
( 0.00598894 -0.00155438 0.0035268 ) 0 
( 0.00538405 -0.00911548 0.000499128 ) 0 
( 0.00288414 -0.00639703 0.00751032 ) 0 
( 0.0126573 -0.00424651 0.00615095 ) 0 
( 0.000775836 -0.00386196 0.000498662 ) 0 
( 0.00114055 -0.00558148 0.00458538 ) 0 
( 0.00723197 -0.00819277 0.00311812 ) 0 
( 0.00412114 -0.00205421 0.00394104 ) 0 
( 0.00652912 -0.00751351 0.00271301 ) 0 
( 0.00199563 -0.00272113 0.00158204 ) 0 
( 0.00507713 -0.00725401 0.00157553 ) 0 
( 0.000165895 -0.00553943 0.00753632 ) 0 
( 0.0105651 -0.00816163 0.000499865 ) 0 
( 0.00047944 -0.00960402 0.00731063 ) 0 
( 0.0123104 -0.00189436 0.00229643 ) 0 
( 0.00167315 -0.00169457 0.00571361 ) 0 
( 0.00221138 -0.00693287 0.00154913 ) 0 
( 0.000283128 -0.00402035 0.00271923 ) 0 
( 0.00043299 -0.00418691 0.00451428 ) 0 
( 0.00371571 -0.00354071 0.00734312 ) 0 
( 0.00652581 -7.99781e-05 0.00635435 ) 0 
( 0.0104817 -0.00367583 0.00563452 ) 0 
( 0.00294025 -0.0058346 0.00149253 ) 0 
( 0.00457629 -0.00473349 0.000499558 ) 0 
( 0.00468062 -0.0114061 0.00159326 ) 0 
( 0.00324971 -0.0106539 0.0012865 ) 0 
( 0.0108442 -0.00210489 0.000499795 ) 0 
( 0.00886138 -0.0099828 0.0011742 ) 0 
( 0.00292106 -0.0122717 0.00464044 ) 0 
( 0.000985936 -0.00799729 0.00687033 ) 0 
( 0.0106781 -0.00260763 0.00430193 ) 0 
( 0.00858998 -0.00500101 0.00675013 ) 0 
( 0.00231046 -0.00896984 0.00219923 ) 0 
( 0.000903096 -0.00391103 0.00367509 ) 0 
( 0.00800419 -0.00109842 0.00379014 ) 0 
( 0.00196766 -0.0104027 0.00583476 ) 0 
( 0.0115159 -0.00343714 0.00140518 ) 0 
( 0.00286867 -0.0104591 0.00626824 ) 0 
( 0.00239028 -0.0101449 0.00127185 ) 0 
( 0.00688159 -0.00967284 0.00131382 ) 0 
( 0.00972144 -0.00450266 0.00415702 ) 0 
( 0.0071213 -0.0112931 0.000499419 ) 0 
( 0.000794596 -0.00799276 0.00506196 ) 0 
( 0.0100397 -0.00579005 0.00446386 ) 0 
( 0.0027383 -0.00131199 0.00452339 ) 0 
( 0.00545032 -0.000629829 0.00199405 ) 0 
( 0.00739336 -0.00639101 0.00666369 ) 0 
( 0.0076452 -0.00166467 0.00269547 ) 0 
( 0.00696536 -0.00878827 0.00177176 ) 0 
( 0.0088126 -0.00753284 0.00412628 ) 0 
( 0.00242076 -0.00421253 0.00351041 ) 0 
( 0.0100451 -0.00879336 0.0036544 ) 0 
( 0.00735963 -0.0101512 0.00504112 ) 0 
( 0.00928973 -0.00473606 0.00324275 ) 0 
( 0.00654729 -0.0060612 0.00708159 ) 0 
( 0.0102148 -0.00684562 0.00736338 ) 0 
( 0.00555136 -0.00911109 0.00280967 ) 0 
( 0.00593761 -0.00290304 0.00105006 ) 0 
( 0.00518448 -0.00469942 0.0062802 ) 0 
( 0.00969406 -0.00472953 0.00586616 ) 0 
( 0.00158956 -0.00769357 0.00136438 ) 0 
( 0.00696622 -0.00161561 0.00195593 ) 0 
( 0.00467042 -0.00273109 0.0044301 ) 0 
( 0.00740776 -0.00933241 0.000499191 ) 0 
( 0.00255441 -0.00796128 0.0014777 ) 0 
( 0.00166916 -0.0132457 0.00640661 ) 0 
( 0.00585027 -0.010596 0.0058668 ) 0 
( 0.00640683 -0.0113011 0.00539386 ) 0 
( 0.000355324 -0.0111038 0.0030001 ) 0 
( 0.00128575 -0.00332849 0.00120475 ) 0 
( 0.000830442 -0.0102034 0.00314378 ) 0 
( 0.00229239 -0.00428382 0.00450042 ) 0 
( 0.00770071 -0.00386843 0.00422155 ) 0 
( 0.0120487 -0.000375367 0.0042809 ) 0 
( 0.00185639 -0.012103 0.00375394 ) 0 
( 0.00944385 -0.00823727 0.00599795 ) 0 
( 0.0095593 -0.000788577 0.00492978 ) 0 
( 0.00469595 -0.0104678 0.00452472 ) 0 
( 0.000681874 -0.00143603 0.00229275 ) 0 
( 0.00327351 -0.00202472 0.00819551 ) 0 
( 0.00409216 -0.00370519 0.00299218 ) 0 
( 0.0130488 -0.00279035 0.00345649 ) 0 
( 0.00269698 -0.00954693 0.00291824 ) 0 
( 0.00313903 -0.00677318 0.0012135 ) 0 
( 0.00570757 -0.0112077 0.00395853 ) 0 
( 0.00764977 -0.000288383 0.00149019 ) 0 
( 0.00514739 -0.00263516 0.000499457 ) 0 
( 0.00202461 -0.00709388 0.00311322 ) 0 
( 0.0117893 -0.000553603 0.00565334 ) 0 
( 0.00985547 -0.00785029 0.00330542 ) 0 
( 0.00804419 -0.0022399 0.0019817 ) 0 
( 0.00899848 -0.00503538 0.00127555 ) 0 
( 0.00542557 -0.00317422 0.00523599 ) 0 
( 0.0017342 -0.0012624 0.00320209 ) 0 
( 0.00637779 -0.00964832 0.0060347 ) 0 
( 0.0088019 -0.00555963 0.00295526 ) 0 
( 0.000677914 -0.0029398 0.00374977 ) 0 
( 0.0078434 -0.0047112 0.00615271 ) 0 
( 0.00064009 -0.00807193 0.0010238 ) 0 
( 0.00297082 -0.00252876 0.0041025 ) 0 
( 0.00571823 -0.0034379 0.00634297 ) 0 
( 0.00481902 -0.00253294 0.00604104 ) 0 
( 0.00595285 -0.000364859 0.00784106 ) 0 
( 0.0132521 -0.00161846 0.00210831 ) 0 
( 0.00490971 -0.00263189 0.00740258 ) 0 
( 0.01305 -0.00278819 0.000499682 ) 0 
( 0.00706161 -0.000214064 0.00552153 ) 0 
( 0.00985585 -0.00171643 0.00633579 ) 0 
( 0.00641406 -0.00732708 0.00597947 ) 0 
( 0.0101948 -0.00861921 0.00131503 ) 0 
( 0.0112528 -0.000228261 0.00246191 ) 0 
( 0.00733752 -0.0105416 0.00668886 ) 0 
( 0.000696031 -0.00271879 0.00735156 ) 0 
( 0.00458521 -0.0032837 0.0066582 ) 0 
( 0.00214868 -0.00485977 0.00782143 ) 0 
( 0.0103663 -0.0084145 0.00265721 ) 0 
( 0.00306097 -0.0129914 0.000499601 ) 0 
( 0.00442739 -0.00580405 0.00256113 ) 0 
( 0.0124781 -0.000934378 0.00251653 ) 0 
( 0.0074873 -0.00924162 0.00344781 ) 0 
( 0.00133342 -0.00844423 0.00318982 ) 0 
( 0.0113653 -0.00700475 0.00141175 ) 0 
( 0.00597569 -0.00454903 0.00323505 ) 0 
( 0.00776585 -0.00230029 0.00534321 ) 0 
( 0.00684418 -0.010505 0.00582069 ) 0 
( 0.00692963 -0.00174796 0.000499792 ) 0 
( 0.0079786 -0.00149668 0.004714 ) 0 
( 0.00416368 -0.0126845 0.00498961 ) 0 
( 0.00233989 -0.00535137 0.00212843 ) 0 
( 0.0101794 -0.00481142 0.000499547 ) 0 
( 0.00313848 -0.00603149 0.00640092 ) 0 
( 0.00307235 -0.000481062 0.00213202 ) 0 
( 0.00536326 -0.00764735 0.00244852 ) 0 
( 0.00233491 -0.00580917 0.00315438 ) 0 
( 0.00938213 -0.00671124 0.00412517 ) 0 
( 0.00433522 -0.00807041 0.00163182 ) 0 
( 0.00820912 -0.00726965 0.00487789 ) 0 
( 0.000444351 -0.00484133 0.00611584 ) 0 
( 0.00119093 -0.00557032 0.00358466 ) 0 
( 0.0102134 -0.00191586 0.00371293 ) 0 
( 0.0014865 -0.00319235 0.00773872 ) 0 
( 0.0132908 -0.00125885 0.00398938 ) 0 
( 0.00249063 -0.00344606 0.00581045 ) 0 
( 0.00711831 -0.00256706 0.0022207 ) 0 
( 0.00333322 -0.00574377 0.00316301 ) 0 
( 0.00190006 -0.00827827 0.00716188 ) 0 
( 0.00608344 -0.00353971 0.00457135 ) 0 
( 0.0036665 -0.005115 0.00556057 ) 0 
( 0.00611626 -0.00257554 0.00483242 ) 0 
( 0.00764081 -0.0107734 0.00252611 ) 0 
( 0.000124636 -0.0124893 0.0056511 ) 0 
( 0.00605433 -0.0044406 0.00135249 ) 0 
( 0.00383322 -0.000208147 0.00376623 ) 0 
( 0.0130166 -0.00296799 0.00497024 ) 0 
( 0.00162853 -0.0100138 0.00371213 ) 0 
( 0.0124752 -0.00213577 0.00508371 ) 0 
( 0.000635399 -0.00654057 0.00469086 ) 0 
( 0.00449522 -0.010819 0.00543881 ) 0 
( 0.00117214 -0.00654307 0.00334039 ) 0 
( 0.010073 -0.00406871 0.00769391 ) 0 
( 0.0128208 -0.00372518 0.000762146 ) 0 
( 0.00958254 -0.00544088 0.00214023 ) 0 
( 0.00347544 -0.00431348 0.00349068 ) 0 
( 0.000901853 -0.0133197 0.00371972 ) 0 
( 0.00190244 -0.00943802 0.00557351 ) 0 
( 0.00701083 -0.0113584 0.00303561 ) 0 
( 0.00264561 -0.0122118 0.00559943 ) 0 
( 0.00662491 -0.00195131 0.00283493 ) 0 
( 0.00459545 -0.0125347 0.00410172 ) 0 
( 0.00774125 -0.0054945 0.00693765 ) 0 
( 0.00137962 -0.00208751 0.00276321 ) 0 
( 0.00834167 -0.0043777 0.003377 ) 0 
( 0.012624 -0.00153609 0.00686429 ) 0 
( 0.00982116 -0.000720586 0.00306207 ) 0 
( 0.00876107 -0.00805918 0.00670641 ) 0 
( 0.003919 -0.00354942 0.000500692 ) 0 
( 0.00399165 -0.00246032 0.000499787 ) 0 
( 0.00214571 -0.00760941 0.00645685 ) 0 
( 0.00629533 -0.00986279 0.00210019 ) 0 
( 0.00440626 -0.000434412 0.000499213 ) 0 
( 0.00546045 -0.00977472 0.00649914 ) 0 
( 0.000751511 -0.00219377 0.00821221 ) 0 
( 0.00280321 -0.00886316 0.00640451 ) 0 
( 0.00755809 -0.00204159 0.00692126 ) 0 
( 0.000507353 -0.0088173 0.00167702 ) 0 
( 0.0109968 -0.00486552 0.00545338 ) 0 
( 0.00559275 -0.00468664 0.000499797 ) 0 
( 0.000695278 -0.0116677 0.00580298 ) 0 
( 0.00920192 -0.00723462 0.00499777 ) 0 
( 0.000457878 -0.00507595 0.00405732 ) 0 
( 0.000282786 -0.000635951 0.00323326 ) 0 
( 0.0103514 -0.00842014 0.00453181 ) 0 
( 0.000338507 -0.00700411 0.000499454 ) 0 
( 0.000443043 -0.00280407 0.00132434 ) 0 
( 0.00471258 -0.00659174 0.00529797 ) 0 
( 0.0115282 -0.00121089 0.00237191 ) 0 
( 0.00330699 -0.00978545 0.00686321 ) 0 
( 0.00932954 -0.0079609 0.00127966 ) 0 
( 0.0101414 -0.00524365 0.00363353 ) 0 
( 0.00870911 -0.00119898 0.000498612 ) 0 
( 0.0105434 -0.00136808 0.00451223 ) 0 
( 0.00327748 -0.0107983 0.00382707 ) 0 
( 0.000845664 -0.00167676 0.00675771 ) 0 
( 0.00359672 -0.00205804 0.00143451 ) 0 
( 9.90393e-05 -0.00459794 0.000499695 ) 0 
( 0.00381541 -0.00746833 0.00689495 ) 0 
( 0.00318312 -0.00416063 0.0013395 ) 0 
( 0.0117835 -0.00419467 0.00511294 ) 0 
( 0.00833934 -0.0104257 0.00190221 ) 0 
( 0.000821339 -0.0105543 0.0022098 ) 0 
( 2.8749e-05 -0.0073788 0.00487174 ) 0 
( 0.000810743 -0.00188711 0.00364251 ) 0 
( 0.00154184 -0.00267163 0.00535765 ) 0 
( 0.00962763 -0.00850794 0.000499145 ) 0 
( 0.000994122 -0.00750542 0.00313646 ) 0 
( 0.0041624 -0.00719743 0.00117691 ) 0 
( 0.00772884 -0.00295511 0.00655446 ) 0 
( 0.00103466 -0.00163019 0.000499601 ) 0 
( 0.00671452 -0.00391085 0.00301847 ) 0 
( 0.00935432 -0.00354063 0.00222635 ) 0 
( 0.00110536 -0.0094516 0.00437665 ) 0 
( 0.00310934 -0.00240946 0.00655533 ) 0 
( 0.0017827 -0.00160302 0.00450616 ) 0 
( 7.53782e-06 -0.00983708 0.00071117 ) 0 
( 0.0110274 -0.00385761 0.00289905 ) 0 
( 0.002474 -0.000473295 0.00404676 ) 0 
( 0.00210135 -0.00276602 0.00453477 ) 0 
( 0.00307307 -0.012068 0.00658502 ) 0 
( 0.00167222 -0.00753758 0.00491222 ) 0 
( 0.00518015 -0.00398501 0.00301594 ) 0 
( 0.00850597 -0.00343798 0.000499794 ) 0 
( 0.0107517 -0.00779427 0.00141081 ) 0 
( 0.0035947 -0.00655619 0.00487736 ) 0 
( 0.0113412 -0.00704284 0.00631551 ) 0 
( 0.00672283 -0.00610212 0.00439716 ) 0 
( 0.00984983 -0.00658668 0.00224663 ) 0 
( 0.00210874 -0.00805384 0.00399965 ) 0 
( 0.0121085 -0.00275411 0.00182969 ) 0 
( 0.00919538 -0.00452706 0.00226009 ) 0 
( 0.000890242 -0.00574134 0.00554889 ) 0 
( 0.00344886 -0.00370216 0.00638541 ) 0 
( 0.00553321 -0.00762687 0.00390078 ) 0 
( 0.00126065 -0.00245806 0.00629276 ) 0 
( 0.00821726 -0.000848699 0.00284592 ) 0 
( 0.00678968 -0.00513484 0.00464724 ) 0 
( 0.00155515 -0.000477847 0.000499795 ) 0 
( 0.00354389 -0.0121097 0.00169929 ) 0 
( 0.00896687 -0.00160149 0.00677772 ) 0 
( 0.0030893 -0.00978408 0.00383315 ) 0 
( 0.00623057 -0.00483071 0.00546996 ) 0 
( 0.00281825 -0.00240127 0.00080795 ) 0 
( 0.00677976 -0.00349263 0.00642042 ) 0 
( 0.000200745 -0.00315237 0.00222997 ) 0 
( 0.00998734 -0.00257547 0.00236325 ) 0 
( 0.00410661 -0.00639146 0.00330337 ) 0 
( 0.000766887 -0.0058798 0.00166158 ) 0 
( 0.00549864 -0.00588354 0.000499401 ) 0 
( 0.00313484 -0.00677904 0.00573687 ) 0 
( 0.0110149 -0.00421704 0.000498709 ) 0 
( 0.000220953 -0.0110595 0.00399008 ) 0 
( 0.00100524 -0.00267741 0.000499659 ) 0 
( 0.00237665 -0.00785405 0.000499687 ) 0 
( 0.0106081 -0.000401136 0.00123141 ) 0 
( 0.000829136 -0.00895618 0.00663464 ) 0 
( 0.00695284 -0.00678238 0.00218002 ) 0 
( 0.00621324 -0.00161925 0.00449881 ) 0 
( 0.00898312 -0.00987505 0.00448333 ) 0 
( 0.00509081 -0.00726452 0.00593328 ) 0 
( 0.00362825 -0.00973616 0.00117509 ) 0 
( 0.00638116 -0.0107349 0.00457043 ) 0 
( 0.00741149 -0.00284817 0.00749565 ) 0 
( 0.00202146 -0.00480852 0.00683139 ) 0 
( 0.00702577 -0.00267154 0.00590307 ) 0 
( 0.00340074 -0.00268387 0.00268434 ) 0 
( 0.000361601 -0.0133437 0.00611339 ) 0 
( 0.0069828 -0.00429935 0.00585612 ) 0 
( 0.00259264 -0.00659299 0.00482169 ) 0 
( 0.0112925 -0.00309013 0.00231579 ) 0 
( 0.00642093 -0.0106203 0.00357804 ) 0 
( 0.00586002 -0.00139316 0.00249332 ) 0 
( 0.00815868 -0.0037193 0.00173186 ) 0 
( 0.0117683 -0.00237626 0.00439673 ) 0 
( 0.0022249 -0.0113452 0.00308212 ) 0 
( 0.00268077 -0.00159811 0.00615945 ) 0 
( 0.00356684 -0.00546493 0.00463037 ) 0 
( 0.00263746 -0.012044 0.000499792 ) 0 
( 0.00639494 -0.0117188 0.00701925 ) 0 
( 0.00395058 -0.0117712 0.0040853 ) 0 
( 0.00394769 -0.0060663 0.00135807 ) 0 
( 0.000701291 -0.00668073 0.00235296 ) 0 
( 0.00380589 -0.0088191 0.00637939 ) 0 
( 0.00729219 -0.00383561 0.00739462 ) 0 
( 0.00548309 -0.0108963 0.00497876 ) 0 
( 0.00413748 -0.0126933 0.00227314 ) 0 
( 0.00173989 -0.0085286 0.00479821 ) 0 
( 0.00360023 -0.00896108 0.00734645 ) 0 
( 0.00360367 -0.00649682 0.0022284 ) 0 
( 9.96207e-05 -0.0105358 0.00743846 ) 0 
( 0.00247109 -0.00200129 0.00519618 ) 0 
( 0.00523088 -0.0113784 0.00581739 ) 0 
( 0.00298555 -0.000187381 0.00323652 ) 0 
( 0.0091091 -0.000887874 0.00216879 ) 0 
( 0.00158557 -0.00410798 0.00297144 ) 0 
( 0.00152167 -0.00973825 0.000992909 ) 0 
( 0.00854356 -0.0093085 0.00524538 ) 0 
( 0.00490767 -0.00935249 0.00368548 ) 0 
( 7.3685e-05 -0.000599406 0.00805699 ) 0 
( 0.00271149 -0.0110275 0.000498963 ) 0 
( 0.00237931 -0.00181222 0.00373206 ) 0 
( 0.0119874 -0.00378727 0.00316773 ) 0 
( 0.001706 -0.00941685 0.00291425 ) 0 
( 0.010693 -0.00152495 0.00292112 ) 0 
( 0.00142569 -0.0132738 0.00456974 ) 0 
( 0.0119122 -0.00602833 0.00536127 ) 0 
( 0.00392099 -0.00172234 0.0074963 ) 0 
( 0.00590799 -0.00373684 0.000499688 ) 0 
( 0.00702039 -0.0113552 0.00200131 ) 0 
( 0.00272772 -0.011632 0.00389703 ) 0 
( 0.00858208 -0.00072349 0.00512947 ) 0 
( 0.00608224 -0.0063525 0.0024621 ) 0 
( 0.00259506 -0.00902461 0.00498345 ) 0 
( 0.00757938 -0.00615699 0.00171678 ) 0 
( 0.00360473 -0.00449826 0.000498767 ) 0 
( 0.00130012 -0.00417365 0.00787188 ) 0 
( 0.000264489 -0.00671889 0.0014545 ) 0 
( 0.00246174 -0.00448154 0.00599589 ) 0 
( 0.000800843 -0.00925075 0.00344562 ) 0 
( 0.00629352 -0.000629486 0.00374986 ) 0 
( 0.0117095 -0.00545074 0.0004998 ) 0 
( 0.0122282 -0.00535689 0.00645188 ) 0 
( 0.00585444 -0.0119431 0.000498614 ) 0 
( 0.00172377 -0.00436211 0.00137588 ) 0 
( 0.00979845 -0.00761011 0.0042743 ) 0 
( 0.000476277 -0.00823239 0.00604375 ) 0 
( 0.00243245 -0.00940255 0.00715978 ) 0 
( 0.00605445 -0.00717803 0.00189929 ) 0 
( 0.000994785 -0.0114387 0.00177882 ) 0 
( 0.0133023 -0.00112777 0.00123154 ) 0 
( 0.00589998 -0.00702289 0.00755121 ) 0 
( 0.0114198 -0.00216133 0.00266317 ) 0 
( 0.00412284 -0.00983953 0.00206827 ) 0 
( 0.00485686 -0.00162038 0.000499633 ) 0 
( 0.00143751 -0.000829299 0.0070077 ) 0 
( 0.00399119 -0.0049537 0.00292208 ) 0 
( 0.0066614 -0.00535239 0.0062068 ) 0 
( 0.0112131 -0.00701696 0.00435948 ) 0 
( 0.000282701 -6.62545e-05 0.00118014 ) 0 
( 0.0120362 -0.00252783 0.000499793 ) 0 
( 0.00590003 -0.00332842 0.00279518 ) 0 
( 0.000981012 -0.0107117 0.00593544 ) 0 
( 0.00528324 -0.00822126 0.00614721 ) 0 
( 0.00993271 -0.00701967 0.00134948 ) 0 
( 0.00623507 -0.00819027 0.00645121 ) 0 
( 0.0108076 -0.00783727 0.00602634 ) 0 
( 0.00195414 -0.0103445 0.00683211 ) 0 
( 0.00264926 -0.00198242 0.00174495 ) 0 
( 0.00185362 -0.00333438 0.00239681 ) 0 
( 0.00941625 -0.00190042 0.00189732 ) 0 
( 0.000415867 -0.0133437 0.0028017 ) 0 
( 0.00582836 -0.00698653 0.00319233 ) 0 
( 0.00502257 -0.00176584 0.00338576 ) 0 
( 0.00488084 -0.000754557 0.00524549 ) 0 
( 0.00714624 -0.00822684 0.00686194 ) 0 
( 0.00332371 -0.0095457 0.00589314 ) 0 
( 0.00777493 -0.00069183 0.00603318 ) 0 
( 0.00264296 -0.00326395 0.00678169 ) 0 
( 0.00339832 -0.00450917 0.00225124 ) 0 
( 0.00723121 -0.00302357 0.00396411 ) 0 
( 0.0048472 -0.00175169 0.00787221 ) 0 
( 0.00561179 -0.000579487 0.00613072 ) 0 
( 0.00691412 -0.000516515 0.00761112 ) 0 
( 0.00933002 -0.00251897 0.00661654 ) 0 
( 0.00536265 -0.00406846 0.00703511 ) 0 
( 0.00675562 -0.00579547 0.00049887 ) 0 
( 0.00344242 -0.0118298 0.00322653 ) 0 
( 0.00325668 -0.00155775 0.000499198 ) 0 
( 0.00165815 -0.000306209 0.00348569 ) 0 
( 0.011197 -0.00207442 0.00363387 ) 0 
( 0.00814186 -0.0105799 0.000499239 ) 0 
( 0.00280266 -0.00343807 0.00481462 ) 0 
( 0.00830656 -0.00198181 0.00342786 ) 0 
( 0.00629659 -0.0036068 0.00554555 ) 0 
( 0.00949329 -0.00301679 0.000499704 ) 0 
( 0.00492463 -0.000959187 0.00674945 ) 0 
( 0.0108685 -0.00133012 0.00714044 ) 0 
( 0.00338943 -0.00165412 0.0023316 ) 0 
( 0.00278473 -0.00493092 0.00291843 ) 0 
( 0.00355939 -0.00753769 0.00506884 ) 0 
( 0.00615727 -0.00688757 0.00415013 ) 0 
( 0.00662097 -0.010666 0.00126918 ) 0 
( 0.00489158 -0.00685947 0.00286828 ) 0 
( 0.0102099 -0.0045897 0.00288102 ) 0 
( 0.00658132 -0.00100714 0.00598441 ) 0 
( 0.0118588 -0.00367549 0.000498371 ) 0 
( 0.00477646 -0.0047575 0.00537051 ) 0 
( 0.010183 -0.00863424 0.00654092 ) 0 
( 0.000854636 -0.0103495 0.000498837 ) 0 
( 0.00165501 -0.006213 0.00252971 ) 0 
( 0.0076402 -0.00360312 0.00324548 ) 0 
( 0.00692489 -0.00881322 0.00608309 ) 0 
( 0.00471424 -0.000305929 0.00330444 ) 0 
( 0.00217571 -0.00703604 0.00561877 ) 0 
( 0.000245766 -0.00920613 0.00535985 ) 0 
( 0.00269622 -0.00545748 0.00718146 ) 0 
( 0.0105047 -0.0057991 0.00228565 ) 0 
( 0.0035348 -0.00932129 0.00481639 ) 0 
( 0.0122823 -0.00523251 0.00140209 ) 0 
( 0.00461696 -0.00223839 0.00124785 ) 0 
( 0.0117902 -0.00154151 0.00550392 ) 0 
( 0.00731438 -0.00450648 0.00355585 ) 0 
( 0.00146785 -0.00827081 0.000499543 ) 0 
( 0.00429844 -0.00905738 0.0014708 ) 0 
( 0.00573901 -0.00684743 0.00656967 ) 0 
( 0.00700046 -0.000983955 0.00118216 ) 0 
( 0.00810571 -0.00115078 0.00701023 ) 0 
( 0.0109778 -0.00583427 0.00504105 ) 0 
( 0.0126558 -0.000340034 0.00610398 ) 0 
( 0.00732622 -0.00169938 0.00601078 ) 0 
( 0.00760809 -0.00622911 0.00354641 ) 0 
( 0.00746714 -0.0070339 0.00412236 ) 0 
( 0.00639763 -0.00935801 0.000498777 ) 0 
( 0.00388009 -0.00917423 0.00388422 ) 0 
( 0.00863632 -0.00182148 0.00127727 ) 0 
( 0.00858413 -0.000522458 0.00122276 ) 0 
( 0.0029533 -0.00584649 0.00538118 ) 0 
( 0.0129437 -0.00226069 0.00134238 ) 0 
( 0.00148388 -0.0117131 0.0068515 ) 0 
( 0.00291507 -0.0066503 0.00321376 ) 0 
( 0.00771612 -0.00607202 0.000499482 ) 0 
( 0.0018308 -0.00593001 0.0014906 ) 0 
( 0.00402326 -0.0127295 0.000568225 ) 0 
( 0.00142764 -0.00192676 0.00136959 ) 0 
( 0.000194507 -0.00460409 0.00710097 ) 0 
( 0.00125642 -0.00673297 0.00133178 ) 0 
( 0.00559321 -0.000385096 0.00464923 ) 0 
( 0.00861599 -0.00563619 0.00197644 ) 0 
( 0.00129102 -0.0113256 0.0027262 ) 0 
( 0.00695196 -0.00601694 0.00282308 ) 0 
( 0.00551562 -0.012158 0.00420131 ) 0 
( 0.0039994 -0.00371698 0.00414242 ) 0 
( 0.0114331 -0.00523382 0.00194637 ) 0 
( 0.00212557 -0.00911435 0.000499038 ) 0 
( 0.00365089 -0.00727815 0.00296279 ) 0 
( 0.000437105 -0.010754 0.00131084 ) 0 
( 0.00363974 -0.0128445 0.006859 ) 0 
( 0.00263049 -0.00628717 0.00232736 ) 0 
( 0.000162678 -0.00730151 0.00586261 ) 0 
( 0.00205391 -0.0131914 0.00362619 ) 0 
( 0.00433488 -0.0048441 0.00447864 ) 0 
( 0.00526137 -0.00279067 0.00178365 ) 0 
( 0.00411305 -0.00989751 0.00539289 ) 0 
( 0.0110188 -0.00537013 0.00317118 ) 0 
( 0.00605942 -0.00522178 0.0039699 ) 0 
( 0.00505072 -0.0123593 0.00586345 ) 0 
( 0.00117984 -0.00239473 0.00442054 ) 0 
( 0.00329406 -0.00195051 0.0033544 ) 0 
( 0.00711798 -0.00114985 0.00682464 ) 0 
( 0.0123778 -0.00159853 0.00424626 ) 0 
( 0.00184339 -0.00357709 0.00505959 ) 0 
( 0.00128348 -0.00710545 0.00649279 ) 0 
( 0.00368468 -0.00293173 0.00467502 ) 0 
( 0.0102776 -0.00852063 0.00552479 ) 0 
( 0.00505698 -0.00635855 0.00201885 ) 0 
( 0.0132631 -0.00152058 0.00508815 ) 0 
( 0.00219783 -0.00113892 0.00757883 ) 0 
( 0.00489294 -0.00628511 0.00625473 ) 0 
( 0.00553025 -0.00509809 0.00480936 ) 0 
( 0.0016138 -0.0124533 0.00510935 ) 0 
( 0.000560922 -0.00261897 0.00517203 ) 0 
( 0.00790697 -0.00825745 0.00621094 ) 0 
( 0.00828344 -0.00469822 0.00188768 ) 0 
( 0.0110142 -0.00313918 0.000499798 ) 0 
( 0.00676106 -0.00752765 0.00462915 ) 0 
( 0.00938072 -0.00644595 0.00558604 ) 0 
( 0.0017004 -0.00509494 0.00285921 ) 0 
( 0.00477777 -0.0114637 0.00455466 ) 0 
( 0.010754 -0.000758655 0.00632846 ) 0 
( 0.00124053 -0.00977772 0.00624067 ) 0 
( 0.0019696 -0.0038776 0.00719194 ) 0 
( 0.00136545 -0.00732042 0.00749967 ) 0 
( 0.0117357 -0.00636437 0.00244428 ) 0 
( 0.00830456 -0.00728179 0.00587292 ) 0 
( 0.0107311 -0.00623728 0.00659126 ) 0 
( 0.00568322 -0.0120051 0.00517481 ) 0 
( 0.000270865 -0.00276942 0.00644804 ) 0 
( 0.00306521 -0.0027192 0.00750673 ) 0 
( 0.00477263 -0.00650691 0.000788996 ) 0 
( 0.00661188 -0.0089208 0.00380912 ) 0 
( 0.0117219 -0.000561742 0.000723713 ) 0 
( 0.00707142 -0.0112907 0.0076178 ) 0 
( 0.00925092 -0.00443888 0.000499796 ) 0 
( 0.00824735 -0.00725791 0.00219479 ) 0 
( 0.00761849 -0.00890016 0.00251849 ) 0 
( 0.00956871 -0.00931054 0.00248749 ) 0 
( 0.00355438 -0.00189362 0.0057729 ) 0 
( 0.00250974 -0.000790021 0.0004998 ) 0 
( 0.00867729 -0.00170755 0.00254211 ) 0 
( 0.00110574 -0.0114444 0.00370082 ) 0 
( 0.00935976 -0.00332591 0.00720597 ) 0 
( 0.00858892 -0.00551215 0.000499106 ) 0 
( 0.0123439 -0.0050852 0.0054966 ) 0 
( 0.00672181 -0.00234346 0.00131639 ) 0 
( 0.0017747 -0.00384061 0.000499092 ) 0 
( 0.00778238 -0.0108479 0.0058384 ) 0 
( 0.00956698 -0.00931101 0.00695688 ) 0 
( 0.000845127 -0.00951759 0.00241705 ) 0 
( 0.000596966 -0.013338 0.00137549 ) 0 
( 0.00788744 -0.00525503 0.00322233 ) 0 
( 0.00280585 -0.00365845 0.00773967 ) 0 
( 0.00922761 -0.00860627 0.00311017 ) 0 
( 0.000985905 -0.00624157 0.0004998 ) 0 
( 0.00318713 -0.000861265 0.00774833 ) 0 
( 0.00171295 -0.00254334 0.00358812 ) 0 
( 0.00294866 -0.00172049 0.00726323 ) 0 
( 0.00753408 -0.0100254 0.0040653 ) 0 
( 0.00386549 -0.00608151 0.00571704 ) 0 
( 0.0100561 -0.00120372 0.00222042 ) 0 
( 0.00839788 -0.00205532 0.00746293 ) 0 
( 0.00858236 -0.00918485 0.00707789 ) 0 
( 0.0107784 -0.00502443 0.00449075 ) 0 
( 0.00297874 -0.00823996 0.00233937 ) 0 
( 0.00294036 -0.0115766 0.00233976 ) 0 
( 0.0016427 -0.0122886 0.00049926 ) 0 
( 0.012176 -0.00547601 0.00256974 ) 0 
( 0.00460498 -0.00190471 0.00678851 ) 0 
( 0.00175011 -0.0097639 0.0019656 ) 0 
( 0.00141413 -0.0132751 0.0028628 ) 0 
( 0.0116874 -0.00645189 0.000499806 ) 0 
( 0.000614246 -0.000185473 0.00406206 ) 0 
( 0.0108928 -0.00771785 0.00501096 ) 0 
( 0.00205858 -0.00923474 0.00416651 ) 0 
( 0.00619577 -0.000793998 0.00697127 ) 0 
( 0.0065072 -0.0116569 0.00119853 ) 0 
( 0.00387186 -0.00284949 0.00608132 ) 0 
( 0.00615797 -0.0118455 0.00322089 ) 0 
( 0.0109326 -0.00590638 0.00403093 ) 0 
( 0.00207862 -0.000433683 0.002459 ) 0 
( 0.0075974 -0.00352052 0.00574176 ) 0 
( 0.0122196 -0.00273907 0.00282396 ) 0 
( 0.0108177 -0.00735695 0.0030042 ) 0 
( 0.00573848 -0.00318224 0.00730872 ) 0 
( 0.00547648 -0.00220523 0.00416013 ) 0 
( 0.0100603 -0.00544626 0.00126238 ) 0 
( 0.00665502 -0.00630291 0.00135449 ) 0 
( 0.00198731 -0.00286372 0.000499999 ) 0 
( 0.000906763 -0.00168672 0.00507191 ) 0 
( 0.0070391 -0.00223505 0.00466054 ) 0 
( 0.00744565 -0.00988448 0.00211182 ) 0 
( 0.00292247 -0.00574169 0.000498631 ) 0 
( 0.00539071 -0.0036935 0.00137524 ) 0 
( 0.00151727 -0.00723746 0.00397132 ) 0 
( 0.00223154 -0.00624762 0.00676094 ) 0 
( 0.00251229 -0.00713936 0.00398698 ) 0 
( 0.00995981 -0.00227777 0.00114247 ) 0 
( 0.00112916 -0.000630839 0.00270147 ) 0 
( 0.00958093 -0.00587961 0.000499602 ) 0 
( 0.00099572 -0.0114577 0.000499794 ) 0 
( 0.00647782 -0.00430517 0.00406419 ) 0 
( 0.000377971 -0.00389239 0.00642321 ) 0 
( 0.00788239 -0.00270794 0.00285032 ) 0 
( 0.00873967 -0.00738185 0.00314121 ) 0 
( 0.00409807 -0.00549413 0.00375669 ) 0 
( 0.00795621 -0.00777821 0.00366892 ) 0 
( 0.0057293 -0.00309059 0.00375149 ) 0 
( 0.0101333 -0.00681309 0.00477663 ) 0 