FoamFile
{version 2.0; format ascii;class vectorField; location 0;object  v;}
2498
(
( -0.000459175 0.000310459 0.000889947 )  
( -0.000206305 0.000275076 0.000939938 )  
( 0.00018983 0.000995147 0.00121983 )  
( 0.000798643 0.000111289 4.27045e-05 )  
( -0.00026191 -0.000752307 0.000734452 )  
( -0.000261424 0.000274372 0.00135741 )  
( -0.000171734 6.90619e-05 6.92661e-05 )  
( 4.22838e-05 3.5709e-05 0.000500187 )  
( -0.000303131 0.000235604 0.00126156 )  
( -0.000355339 -4.85039e-05 0.000539893 )  
( 0.000260438 0.000630647 0.00141414 )  
( 0.000940806 -0.000427551 0.00114229 )  
( -0.000254159 0.000562875 0.000412025 )  
( 9.25043e-05 0.000104908 2.51218e-05 )  
( 5.6659e-06 0.000669039 0.00065091 )  
( -0.000422823 -0.000227236 0.000307896 )  
( -0.000327643 -0.000163709 2.89584e-06 )  
( -0.000149644 -0.000282404 0.000521456 )  
( -0.000416136 0.000380196 0.000458858 )  
( 2.27292e-05 -6.42062e-05 -0.000167344 )  
( 0.000327015 -0.000529881 -0.000346391 )  
( -9.70015e-05 -0.000233143 -6.92248e-06 )  
( -0.000342792 -4.31571e-05 0.000495238 )  
( -0.000426046 -0.000289372 0.000801671 )  
( -0.00030481 0.00164256 0.000236809 )  
( 7.92835e-05 3.65977e-05 7.35706e-06 )  
( -0.000443563 0.000395096 0.000778717 )  
( -0.000489889 0.000312878 0.00107308 )  
( -9.26466e-05 0.00061075 0.00119847 )  
( 5.56011e-05 -0.000259282 0.000131325 )  
( 1.88666e-05 0.000342097 6.65862e-05 )  
( 4.19497e-05 0.000229924 -1.71957e-05 )  
( -0.000491986 -0.000388923 0.000928807 )  
( 0.000460007 -0.000183206 0.000529375 )  
( 0.000952692 -0.0008154 0.00120943 )  
( 1.7865e-05 -0.000211064 0.00077855 )  
( -0.000247683 -0.000727993 6.12719e-05 )  
( -0.00011784 -0.000158471 0.000576125 )  
( -0.000186578 -2.49795e-06 -0.000141721 )  
( 0.000465037 0.000137654 0.000285871 )  
( -3.99538e-06 0.00016617 0.00107245 )  
( -0.000676542 0.000120243 0.00135018 )  
( 0.000673724 -0.000666447 0.000888431 )  
( -0.000248752 0.000820051 -0.000179405 )  
( 0.000552871 0.000133458 -0.00014246 )  
( -0.000186668 -6.87725e-05 -1.04225e-05 )  
( -7.46876e-05 -0.000128287 1.0395e-06 )  
( -0.000418135 -0.000596811 0.000636543 )  
( 0.000607198 8.37373e-05 0.000589434 )  
( -0.000748482 0.000297598 0.000562927 )  
( -0.000259921 0.000336722 -0.000428635 )  
( 8.79784e-06 0.000531977 0.0010491 )  
( 0.000812276 0.00119565 0.000817854 )  
( -5.82807e-05 0.000461843 0.000642342 )  
( 0.00267562 0.000230092 -1.34595e-08 )  
( 4.43439e-05 0.000126274 -1.66849e-05 )  
( -4.83721e-05 -1.76932e-05 -8.05749e-06 )  
( -0.000318445 -0.000108409 0.000149179 )  
( 2.6262e-05 0.000697166 0.000496388 )  
( -0.000340211 3.40434e-05 0.000457651 )  
( 0.00027875 0.000475925 0.000314651 )  
( -0.000966855 0.000200691 0.000815081 )  
( 0.00027685 0.000222076 0.000162775 )  
( 0.000713397 0.000200442 0.000413906 )  
( -7.44506e-05 0.000316668 -6.39075e-05 )  
( 0.00022347 -0.000347897 0.00110947 )  
( 1.77787e-05 0.000395287 0.000697504 )  
( 0.000230261 0.000204786 0.000395154 )  
( -0.000174427 0.000273227 0.000263503 )  
( 0.000623208 6.48348e-05 -0.000124825 )  
( -4.00221e-05 0.000135224 1.8061e-05 )  
( 0.000788011 0.000304536 -7.33455e-07 )  
( -0.000347125 -0.000480218 0.000539355 )  
( -0.000169978 -0.000474919 0.00134802 )  
( 6.34346e-05 -6.70504e-05 0.000717331 )  
( -0.00661341 -0.00335733 0.00625562 )  
( 5.48946e-05 3.16428e-05 0.000709248 )  
( -0.000213853 0.000467697 0.000600643 )  
( 0.00101934 0.000357064 0.000634295 )  
( -0.00048585 -0.000269667 0.00101702 )  
( -0.000358011 -0.000357353 0.000657619 )  
( 3.48191e-05 -0.000211784 4.97558e-05 )  
( 7.90443e-05 0.000397823 0.000287818 )  
( 1.43955e-05 7.15537e-05 9.76183e-05 )  
( -0.000448489 0.000540272 0.000780013 )  
( 0.000986342 0.000112068 1.59797e-07 )  
( -0.000489213 0.00189952 0.00523792 )  
( -0.000372535 6.17493e-05 0.000445185 )  
( -0.000164452 0.000424855 0.000772168 )  
( -0.000330247 0.000134 -1.7949e-07 )  
( -4.88951e-05 0.000218894 0.000135576 )  
( 0.000357085 0.00072254 0.000620698 )  
( -0.00013552 0.000533765 0.000367655 )  
( -0.000420785 -2.11304e-05 0.000924353 )  
( 0.000383172 -0.00020134 0.000143592 )  
( -0.000907022 0.000704901 -0.000212725 )  
( 0.000154199 0.000150887 -6.03768e-06 )  
( -0.00048179 0.000424317 -8.50832e-05 )  
( 2.75005e-05 -0.000836414 -0.00104394 )  
( -0.00130488 -0.00108772 0.0042043 )  
( -6.42472e-05 9.91951e-06 2.84184e-06 )  
( -0.000217769 0.000456273 0.000817066 )  
( -0.000221808 0.000230393 5.84861e-05 )  
( 0.0013931 -4.6198e-05 0.000328567 )  
( -0.000484147 0.000846894 0.00132938 )  
( -0.000323261 0.000258049 -2.37316e-05 )  
( -8.56826e-05 -0.000193336 0.000503614 )  
( -8.22712e-05 0.000341862 0.000303718 )  
( 9.79201e-05 -2.48433e-05 0.000876988 )  
( -0.000380309 -2.93369e-05 1.74414e-06 )  
( 0.000304292 0.000448439 4.21156e-05 )  
( -0.000406848 -5.17684e-05 0.000708645 )  
( 0.000116813 0.000402713 0.00120553 )  
( 7.45667e-05 7.55554e-05 0.00103534 )  
( -0.000115047 0.00021056 0.0019623 )  
( 0.000680891 -0.000510811 -0.000715343 )  
( -0.000173543 0.000242577 0.000795916 )  
( 0.000211863 0.000717679 0.000645846 )  
( -1.96568e-06 0.000282189 8.26936e-05 )  
( 1.68e-05 0.00024233 0.000474868 )  
( 9.09541e-05 0.000171702 0.00113376 )  
( 0.000217337 0.000902104 0.000247003 )  
( 0.000313181 -2.24564e-05 -1.46524e-05 )  
( -0.000230984 0.000303473 0.00108158 )  
( 0.00028765 0.000399147 0.000573717 )  
( 0.00216821 0.00156908 0.00388628 )  
( 7.85311e-05 -0.000386953 4.08001e-05 )  
( -0.000340832 0.000315987 -4.76071e-05 )  
( 0.000117557 0.000751936 0.000683555 )  
( 0.000367879 7.43434e-05 -0.000330671 )  
( 0.000286965 -0.000215997 0.000628415 )  
( -0.000237983 0.000228227 0.000541039 )  
( 6.26311e-06 0.000416845 -0.000379486 )  
( 0.000170422 0.000368396 0.00036617 )  
( -0.000466451 0.000238172 0.000923975 )  
( -0.000430834 0.000844936 0.000595977 )  
( -0.000158909 0.000627287 0.00148298 )  
( 0.00115089 -0.000336042 0.00024662 )  
( -2.37705e-05 6.36036e-06 0.00225312 )  
( 0.000104103 0.00041622 0.000565005 )  
( 2.01911e-05 3.78162e-05 -4.7655e-05 )  
( 0.00110025 -0.000864849 6.65952e-05 )  
( -9.60351e-05 0.000351882 0.000506023 )  
( -0.0010043 -0.00011979 0.000960246 )  
( -0.00049432 0.000177706 -3.96796e-05 )  
( 3.02259e-05 0.000214927 0.000141537 )  
( 0.000128046 0.00138247 0.00026257 )  
( -0.000784088 0.00011627 0.00109521 )  
( -0.000313475 -0.000739275 0.000770892 )  
( 0.000584214 0.000208208 -0.00038165 )  
( -0.000377579 -1.41382e-05 0.000539186 )  
( 0.00010499 0.000195672 0.000577968 )  
( -0.000276479 -9.86406e-05 0.000440031 )  
( -0.000174707 -3.79389e-06 0.000394022 )  
( 0.000633229 -9.36777e-06 0.00061174 )  
( -0.000298864 -0.000383941 0.000854166 )  
( -0.000485983 -0.000435389 0.000205721 )  
( -7.97895e-05 -9.04709e-06 0.00143117 )  
( -0.000416741 -7.97369e-06 0.000313585 )  
( 2.25044e-05 0.000810395 0.000456357 )  
( -5.97558e-05 0.000124991 0.00143823 )  
( 0.00017283 -6.3318e-05 0.000632611 )  
( -6.20203e-06 1.31631e-05 1.49863e-05 )  
( -0.000509676 8.52473e-06 0.000406593 )  
( -0.000353254 0.000385334 0.000881333 )  
( -0.000765566 7.70282e-05 2.41097e-05 )  
( 8.92032e-05 -0.000144049 0.000904653 )  
( 1.37889e-05 -0.000163308 -8.78035e-05 )  
( -0.000257654 0.000608468 0.00118728 )  
( -0.000585301 -3.15846e-06 0.0011352 )  
( 0.000131695 0.000187128 3.88087e-05 )  
( -0.00083964 0.000329497 0.000255916 )  
( -0.000201799 -0.000478329 0.00063857 )  
( -5.40658e-05 7.51779e-06 2.09584e-05 )  
( -0.00160564 -4.34823e-05 0.00211921 )  
( -6.84204e-05 -0.000847666 0.000107896 )  
( 0.000405005 0.000155224 0.000694572 )  
( -0.000235571 0.000115451 0.000488208 )  
( -4.85371e-05 0.000225279 0.000299831 )  
( -0.000488006 -0.000248479 0.00028049 )  
( -0.000467805 -9.92842e-05 0.00136742 )  
( -8.99012e-05 -6.31544e-05 1.67273e-05 )  
( -0.000105794 0.00014047 0.000532898 )  
( -0.00026811 7.68619e-05 -0.00052206 )  
( -7.12024e-05 -0.000220206 0.0011309 )  
( 3.99455e-05 0.000291311 -0.00010109 )  
( -6.30777e-05 0.000409996 0.00105178 )  
( -0.000218337 0.000276232 0.00103717 )  
( -0.000145535 0.000247524 0.00135531 )  
( -0.000291856 -0.000216478 0.00148281 )  
( -0.000138351 -0.000255007 0.00124616 )  
( 8.44542e-05 0.000226751 0.000272419 )  
( 0.000204541 0.00012284 -1.75315e-05 )  
( -0.000865572 -0.000708814 -0.000108315 )  
( 0.000447056 0.000286082 -0.000173941 )  
( 0.000859953 -0.00146119 1.14105e-06 )  
( 0.00015797 0.000169993 0.000273899 )  
( 6.36566e-05 0.000281891 -7.5299e-05 )  
( -0.000309486 0.000189634 0.000746677 )  
( 0.00176047 -0.000482307 0.000407932 )  
( -0.000100026 -0.00034209 0.000540641 )  
( -0.00046254 -0.000264807 0.00046383 )  
( -0.000888439 9.58782e-05 0.0011518 )  
( -0.000134979 -0.000332924 0.00081687 )  
( 0.000610037 0.000658564 0.000511245 )  
( -4.45105e-05 -0.000423075 0.00025285 )  
( -0.000816162 -0.000980772 0.00335281 )  
( -0.000194781 -0.000681143 -8.49399e-05 )  
( 0.000319181 -0.000123514 -0.00014005 )  
( -0.0011774 -0.000168131 -0.000282017 )  
( -0.000293079 -0.000115835 4.22427e-05 )  
( 0.0001157 0.000345195 0.000341522 )  
( -0.000245729 -0.000347252 0.000167506 )  
( -0.000125879 -0.000207069 0.0011576 )  
( -0.000352479 -0.000472583 0.000547538 )  
( -0.000163265 -0.000332118 0.00100026 )  
( 0.000174784 -0.000442866 0.000450633 )  
( -0.000192484 -0.000237312 0.000156693 )  
( 0.000554779 0.00018535 0.000282932 )  
( -0.00014628 0.000428084 6.45152e-05 )  
( 0.000847968 0.00109162 -0.000900099 )  
( 0.000268913 0.000245204 0.000605181 )  
( -0.000716694 0.000918463 0.000525591 )  
( 3.97041e-06 0.000167471 0.00102756 )  
( -0.000597626 0.000410918 0.000911619 )  
( 7.78628e-05 0.000100472 -9.73995e-05 )  
( -0.0015999 0.000333961 0.000111046 )  
( -0.000183046 0.000232585 0.000610425 )  
( 0.000497084 0.000401737 0.000809859 )  
( 0.000255521 0.000125488 -0.000185553 )  
( -0.000675436 -9.4575e-05 9.03871e-05 )  
( -0.000543615 -0.000191105 0.00137727 )  
( -7.46874e-05 -4.22064e-05 5.27236e-05 )  
( -5.61426e-07 0.000169059 6.81373e-05 )  
( 4.07779e-05 4.24747e-05 -8.89107e-05 )  
( 0.000305278 0.000226702 0.000998901 )  
( 0.000273039 -0.000277771 0.000331623 )  
( -0.000366486 -0.000442749 0.000731328 )  
( -0.00014456 -0.000105919 0.000193076 )  
( -0.000306206 0.00082192 0.000226985 )  
( 0.000499654 0.000505299 0.00055457 )  
( -0.000227987 0.00044315 0.00104731 )  
( 0.000303123 -0.000369478 0.00133398 )  
( -6.57183e-05 0.00180477 0.000610848 )  
( -0.000190657 0.000237551 0.000263589 )  
( -0.000619067 -0.00031943 0.000963055 )  
( -0.000274155 -0.000321743 -7.38717e-05 )  
( -0.000156883 -0.00057975 0.000966507 )  
( 0.000106102 0.000374986 0.00162941 )  
( 0.000480394 -2.57607e-05 1.9659e-05 )  
( -3.45247e-05 0.000167456 0.000646605 )  
( -8.07438e-05 0.000253971 0.000757289 )  
( 0.000342061 0.000189628 0.000374974 )  
( -0.000144833 0.000215078 0.000490533 )  
( -0.000126082 0.000226605 -0.000622776 )  
( -0.00178977 -1.38711e-06 0.000119083 )  
( -3.09712e-05 0.000798047 0.000378383 )  
( -7.71921e-05 5.11534e-05 0.000837769 )  
( 0.000153659 0.000311878 0.000573467 )  
( 0.000504613 4.60123e-05 0.000238834 )  
( -0.000454065 -0.000203168 0.000350198 )  
( -0.000328717 -7.52745e-05 0.00112414 )  
( 9.44845e-05 -0.000306651 0.000608375 )  
( -7.09644e-05 0.000297661 0.000751997 )  
( -0.000310861 0.000676493 0.000388712 )  
( -0.000354579 0.000164287 0.00108002 )  
( 9.63671e-05 -0.00042286 0.000179011 )  
( 8.22943e-05 -0.000191727 -0.000479283 )  
( -0.000531658 0.000219258 0.00163564 )  
( -0.000520338 -0.000653875 0.00109841 )  
( -0.000259078 -4.80839e-05 0.000935565 )  
( -0.000195542 -0.000549991 0.00102142 )  
( -5.88136e-05 0.000246089 -0.000106919 )  
( -6.25794e-05 0.00020756 0.00124914 )  
( -1.40391e-05 7.05835e-05 5.41383e-05 )  
( -7.01934e-05 5.65076e-05 0.00155208 )  
( 0.000217097 -0.000272816 0.00101619 )  
( -0.00364122 -0.00107962 0.00158529 )  
( 1.22114e-05 1.06937e-05 -0.000129251 )  
( 0.000270682 -0.000317494 -0.000393308 )  
( 0.000373947 0.000884294 0.000625617 )  
( -0.000174929 0.000207577 0.00102832 )  
( -0.000267614 0.000153252 0.00102837 )  
( -0.000295375 0.00040077 0.00124583 )  
( 0.000140425 0.000316192 0.000480557 )  
( -4.13527e-05 -7.90883e-05 -9.13199e-05 )  
( 0.000183321 0.000541529 0.000155343 )  
( -0.000369018 -0.000188977 0.000733856 )  
( -0.000884843 0.000364417 0.000377867 )  
( 0.000319138 1.69004e-05 -0.000547821 )  
( 6.32744e-05 0.000124218 -1.92283e-05 )  
( -2.78066e-06 0.000781901 0.000282676 )  
( -0.000560639 0.00059278 0.00120806 )  
( 0.000219552 0.000304365 0.000626049 )  
( 0.000941071 0.00025278 -1.41137e-08 )  
( -0.000692252 0.000675633 0.000821594 )  
( -0.000146105 -4.40233e-05 0.000432895 )  
( 1.54749e-06 4.30983e-05 0.000434562 )  
( -8.19381e-05 0.000388862 9.16215e-05 )  
( -0.000662585 -0.000116166 0.000712174 )  
( -9.37551e-05 0.000275047 0.000225764 )  
( -0.000115567 0.000308292 0.000487287 )  
( -0.000525045 -1.97196e-05 -0.000246209 )  
( -0.000128327 0.000956424 6.83097e-05 )  
( 2.80665e-05 0.000566004 0.000233981 )  
( 0.00104224 0.000190931 0.000787477 )  
( 0.000241743 0.000556901 0.000614634 )  
( -3.29457e-05 0.000309403 0.00054055 )  
( 0.00034632 0.000264731 -0.000300688 )  
( -0.000146297 0.000375153 0.000913622 )  
( 0.000121102 0.00066197 0.000423834 )  
( -0.000362559 -9.00139e-05 0.00147409 )  
( 0.000489772 -4.46921e-06 -5.60146e-05 )  
( 0.000278872 0.000690656 0.000746192 )  
( -0.000316439 0.00011766 0.000560572 )  
( 0.000195172 -0.00020789 0.00141159 )  
( -0.000613602 0.000341175 0.00109852 )  
( -0.000499953 1.96012e-05 0.000854404 )  
( 0.000117633 3.0943e-05 0.00016129 )  
( 0.000558676 -0.000282935 0.000512147 )  
( 0.000122516 0.000500371 0.000279645 )  
( -0.000289595 0.000116934 0.000955571 )  
( -1.04816e-05 0.000162354 0.000233157 )  
( 0.000103252 0.000767393 -1.84701e-05 )  
( -0.000397038 1.27973e-05 0.000575611 )  
( -0.00070098 0.00157769 0.00097411 )  
( 0.000375743 0.000167657 0.000328136 )  
( -0.000141611 0.000135365 0.000622539 )  
( -0.000539828 -0.000245514 0.00079497 )  
( -2.22527e-05 7.09772e-05 9.24817e-05 )  
( -0.000245717 0.000167096 9.55828e-05 )  
( -7.64431e-05 0.000721783 0.000380601 )  
( 0.000147023 7.00831e-05 0.000293527 )  
( 9.20159e-05 0.000551029 0.000178266 )  
( 0.000519085 9.23392e-05 0.000656277 )  
( -0.000263244 -2.64077e-05 -0.000116483 )  
( 0.000217709 0.000644792 -0.000990078 )  
( 0.000123112 0.000144312 0.000539479 )  
( -0.000428072 1.8665e-05 0.000777608 )  
( 6.66851e-05 -0.000539663 0.0008812 )  
( -0.000122512 0.00130259 0.00041737 )  
( -0.000177593 0.000660883 0.00121414 )  
( 0.000281109 -0.00021538 0.000946211 )  
( 0.000678284 0.000651568 0.000757422 )  
( -0.000177377 2.08315e-05 0.000100448 )  
( -0.00191898 0.00271911 -9.99028e-05 )  
( -0.000100442 0.000276199 0.000301192 )  
( -0.000405613 9.21289e-05 -0.000557475 )  
( 0.000283988 0.000362828 0.00012836 )  
( -0.000800791 0.000359026 0.000750661 )  
( -0.00017807 0.000274174 0.000910551 )  
( 5.22459e-05 0.000429677 0.000425346 )  
( -0.000161428 0.000113415 0.000945799 )  
( -2.16565e-05 0.000160901 -6.0573e-05 )  
( -0.000599884 0.000182869 0.00088741 )  
( 0.000197058 8.53588e-05 -7.50502e-07 )  
( 0.00045861 0.00168689 0.00185537 )  
( 0.00139857 0.000364662 -2.95761e-05 )  
( -7.31979e-05 0.000529796 0.00053455 )  
( 0.000167369 -0.000103129 0.000973924 )  
( 0.000334051 0.000515887 0.000214249 )  
( 9.19869e-05 6.47765e-05 2.08711e-05 )  
( 0.00015901 0.000359991 0.000254105 )  
( -0.00116722 -0.000157819 0.000470921 )  
( -0.00030192 7.0609e-05 0.000301115 )  
( 0.000131932 0.000487303 0.00086151 )  
( 0.000106987 -3.94566e-05 0.000178718 )  
( 1.16516e-05 -8.42534e-06 0.000406634 )  
( -0.000170041 -0.000107213 0.000107282 )  
( -6.27818e-05 0.000816594 0.00147405 )  
( 0.000413577 0.00111006 0.000164514 )  
( 0.000304951 0.000395831 0.00102073 )  
( 2.47633e-05 0.000350039 -9.36299e-05 )  
( -0.000124906 -3.83888e-06 4.97904e-06 )  
( 0.000504498 0.000288799 0.00129669 )  
( 4.07772e-05 0.00016437 9.76146e-05 )  
( -0.000242906 -0.000206815 0.000705793 )  
( -4.55948e-05 5.03913e-05 3.20577e-05 )  
( 0.000143632 -0.000250061 0.000502889 )  
( 0.000274379 0.000424455 9.07873e-05 )  
( -0.000626532 0.00034277 0.000913953 )  
( -0.000779765 0.000185273 0.000954915 )  
( -9.27233e-05 -5.2857e-06 1.26982e-05 )  
( 0.000343404 0.000179128 -0.000653467 )  
( -0.00038818 0.000478092 8.2612e-06 )  
( -0.000185188 -2.61107e-05 0.00109985 )  
( -0.000137828 0.000251339 4.66393e-05 )  
( 0.000380453 -3.46581e-07 -0.000433546 )  
( 0.000804322 0.000134274 0.000777183 )  
( -0.000164496 0.000453821 0.000350335 )  
( -0.000200187 0.000707261 0.00156284 )  
( -0.000404647 0.000314743 0.000911138 )  
( 0.000180479 -0.000177785 -0.000131817 )  
( -9.84118e-05 -4.81527e-05 0.000493141 )  
( -0.000788887 -0.000784003 0.000134788 )  
( -0.000821874 0.000386089 0.00101713 )  
( -4.98647e-05 8.6961e-05 0.000457128 )  
( -0.000300409 0.000965192 0.000507016 )  
( -6.36659e-05 0.000983364 0.000695313 )  
( 0.00118322 0.00136397 -8.82145e-08 )  
( 0.000106953 9.20538e-05 -8.49674e-05 )  
( 0.000599389 0.000865738 0.000874236 )  
( 7.01103e-05 9.91479e-05 -0.000137055 )  
( 0.000455774 7.1468e-06 -2.12754e-05 )  
( -7.20489e-05 0.000380456 1.23309e-05 )  
( 0.000730535 -0.000116062 0.000588879 )  
( 4.32256e-05 -9.07564e-06 -0.000603459 )  
( -0.000115646 0.000220965 0.000215613 )  
( 2.53462e-06 0.000289913 0.00081202 )  
( -7.33554e-05 0.000637384 0.00122779 )  
( -0.000378712 0.000372327 0.000273851 )  
( 2.23635e-05 0.000386886 0.00101947 )  
( -0.000190685 -0.000146588 0.000718532 )  
( -0.000301937 -0.000355256 0.00061395 )  
( 0.00132434 0.0010971 -5.2843e-08 )  
( 0.000108676 -0.000910848 -0.000507632 )  
( 0.000202236 0.000204904 0.000845876 )  
( -0.000723149 -0.000125367 0.00293961 )  
( -0.00035762 -0.000103142 0.00121377 )  
( 0.000102365 -8.03585e-06 -3.98391e-05 )  
( 0.000138934 0.000468735 0.00339228 )  
( 0.000319036 0.000288727 0.000612832 )  
( 0.000183701 -0.000103324 0.000792209 )  
( -0.000579079 0.00010632 -0.000448452 )  
( -0.00021834 0.000392556 0.000256504 )  
( 0.00015479 0.000262307 6.64562e-05 )  
( 9.91736e-06 0.000273569 0.000316352 )  
( 0.000261827 -0.000161096 0.000132362 )  
( -0.000739188 0.000571148 0.000982042 )  
( 0.000165804 3.40312e-05 -4.15083e-05 )  
( 0.000507375 -2.27167e-05 -4.02498e-05 )  
( -0.000148014 -0.000263335 0.000345085 )  
( -4.88762e-05 0.000172647 0.000446245 )  
( 0.000332206 -0.000444088 6.637e-05 )  
( 2.21458e-05 -0.0014498 0.000858244 )  
( 0.00023868 0.00050342 0.00241942 )  
( -0.000217288 0.000501968 0.00055416 )  
( -0.000594984 0.000751605 -0.000154969 )  
( -0.000671719 -9.41685e-06 0.000430638 )  
( -0.000532737 0.000167002 0.000986189 )  
( -0.000321845 0.000499804 0.00113125 )  
( -0.000205528 0.000381846 0.00138232 )  
( -0.000371852 -0.000120588 0.00110663 )  
( 0.000177312 -0.000302569 0.000327547 )  
( -9.21655e-06 -8.64877e-05 0.000770237 )  
( -0.000801964 -0.000558748 0.0016031 )  
( -0.000122894 -0.000136268 0.000203578 )  
( -2.13573e-05 0.000188013 0.000498896 )  
( -0.000421167 9.65422e-05 0.00172147 )  
( -0.000239262 0.000166437 0.000983353 )  
( 0.000199041 0.000342584 0.00050627 )  
( -4.50558e-05 0.000864553 0.000835577 )  
( -0.00012579 0.000777818 0.00174188 )  
( -0.000503702 0.000763966 0.000914728 )  
( 0.000588796 0.00049999 1.41231e-07 )  
( -0.000242164 -6.2578e-05 0.000104059 )  
( -0.000575001 -0.000463848 0.000528055 )  
( -0.000421281 0.000992875 3.62405e-05 )  
( -3.94602e-05 0.000114069 0.000126351 )  
( -0.000129218 0.000584178 0.000560788 )  
( -0.000187311 0.000172033 0.000962174 )  
( -0.000711431 -4.71212e-05 0.000352944 )  
( 0.000710843 0.000361073 -0.000348561 )  
( -0.000390754 0.00080028 0.000558175 )  
( -8.59707e-05 0.000654659 0.000573622 )  
( -0.00109507 9.71323e-05 -0.00663156 )  
( 0.000165004 0.000172485 0.000526248 )  
( -0.000327849 -0.000325318 0.000853831 )  
( 0.000328816 0.00028106 0.000761369 )  
( -0.000294511 -5.78901e-05 0.000669442 )  
( -0.000159817 -0.000134055 0.000598364 )  
( -0.000976684 -4.1871e-05 0.00120816 )  
( 2.14852e-05 -9.87366e-05 1.51308e-05 )  
( -0.000484907 0.000279615 0.000821923 )  
( 6.04867e-05 -0.000157911 0.00011231 )  
( -4.15268e-05 0.000227695 0.000845194 )  
( 0.000688813 0.000105103 8.84171e-05 )  
( -0.000425775 -0.000347714 0.00111539 )  
( -7.73584e-05 0.000289278 0.000642428 )  
( 9.12862e-06 0.00034715 -0.00032063 )  
( 0.000621508 0.000835221 -0.00010874 )  
( 0.000497286 0.000109866 0.000145107 )  
( -0.000194706 -0.000238266 0.000149655 )  
( -0.000167478 0.000137729 0.00137847 )  
( -0.00016161 0.000223039 9.10677e-05 )  
( -0.000296188 -0.000100335 0.000623015 )  
( 0.00081641 0.0018377 0.00080213 )  
( -0.000661034 0.00062324 9.97144e-05 )  
( -0.000983775 0.00060199 0.000140001 )  
( -0.000102413 0.000542461 0.000152449 )  
( 0.000319032 -0.000193867 0.000216701 )  
( 0.00017439 -6.47661e-06 0.000170852 )  
( 8.54064e-05 0.000531977 0.0010632 )  
( 1.19407e-05 0.000178105 3.99361e-05 )  
( -0.000206528 0.000276446 0.00125092 )  
( -0.000373268 0.000766263 0.000420903 )  
( 0.00056783 -0.000404081 0.00149948 )  
( 0.00084237 -0.000198903 -6.49984e-08 )  
( -8.32878e-05 6.19336e-05 0.000861036 )  
( 2.845e-05 -0.00017063 0.000120518 )  
( 0.000133894 0.000110678 3.4298e-05 )  
( 0.000592026 0.00103112 0.000571718 )  
( -0.000131363 0.000433161 0.000526015 )  
( 0.000167897 0.000717557 0.000698146 )  
( -0.000298242 0.000360035 0.000477088 )  
( 0.000239777 -0.000190581 0.000464014 )  
( 5.64568e-06 3.56714e-05 1.02184e-05 )  
( -0.00043335 0.000197347 0.000679541 )  
( -7.72104e-05 -7.7349e-05 0.000170018 )  
( -0.000680419 -8.70143e-05 8.45023e-05 )  
( -0.000486305 0.000357628 -6.00143e-05 )  
( -0.000283401 0.00024881 0.000861 )  
( -8.07756e-05 0.000493665 0.000422234 )  
( 4.38665e-05 0.00030794 0.00148062 )  
( -0.000281651 0.000703502 -0.000438763 )  
( -0.00114404 0.000461725 0.000275913 )  
( 0.00137599 0.000467208 -5.91417e-07 )  
( 0.000506087 0.000483408 0.000694353 )  
( 0.00100965 0.00232186 0.00267465 )  
( -0.000259079 0.00040878 0.000609523 )  
( -0.000390188 0.000141172 3.32047e-05 )  
( -0.00110786 -0.000913843 0.00278142 )  
( -0.000156838 -0.000443649 0.00185977 )  
( 0.00034404 0.000141599 0.000592101 )  
( 0.000124261 0.000176445 0.000498897 )  
( -0.000398613 -8.6558e-05 0.000800648 )  
( 0.000166947 -0.000335842 0.000279659 )  
( -0.000446075 6.86784e-05 0.000306903 )  
( -0.000123366 0.000430014 0.000451107 )  
( -0.000664001 5.84681e-05 0.00127313 )  
( -0.000177954 0.000416529 0.000762144 )  
( -0.00030539 0.000260316 0.00132035 )  
( 0.000238635 0.000240374 0.000687092 )  
( 0.000397328 -0.000121586 0.000916718 )  
( 1.93601e-05 0.000537101 0.00129599 )  
( -8.92483e-05 0.000288828 0.000238638 )  
( -5.88108e-05 0.000244092 0.000788277 )  
( -0.000133968 -2.63776e-05 0.00194197 )  
( -0.000349562 0.000231167 0.00121187 )  
( -6.58976e-05 -0.000123234 0.00116879 )  
( -0.000258195 -7.43485e-05 0.000941926 )  
( -0.000116233 -0.000733087 0.00120714 )  
( -2.71664e-05 0.000205813 4.61984e-05 )  
( 7.70116e-05 -0.000216719 0.000325571 )  
( -0.000362425 0.000151056 4.28042e-05 )  
( -0.000122739 8.72553e-05 -0.000190587 )  
( 0.000530286 0.000491669 0.000325034 )  
( 0.000166723 -0.000192017 -2.59497e-05 )  
( -0.000287846 -0.000183763 0.00106272 )  
( 0.000217675 -0.0010134 0.000566761 )  
( 0.00013988 2.68121e-05 0.00146068 )  
( 0.000127328 -9.39551e-05 3.92032e-05 )  
( -0.000384784 -7.33356e-05 0.000705029 )  
( -0.000360901 -0.000130426 0.000953134 )  
( 0.000217558 0.000748601 3.00907e-05 )  
( 0.000153165 0.000241677 0.000388852 )  
( 0.00133492 0.00111299 0.0022449 )  
( -0.000452645 0.000527119 0.000163856 )  
( -0.000371313 -0.000118243 -0.00013113 )  
( 1.1332e-07 0.000906308 6.98463e-08 )  
( -0.0004797 0.000143113 0.000521646 )  
( -0.000518892 0.000136203 0.00111768 )  
( -0.000103945 -0.000462074 0.000101087 )  
( -0.000214271 0.000382572 0.000676664 )  
( -0.000482419 -0.000647748 0.000258034 )  
( 0.000334288 -4.42259e-05 3.60658e-05 )  
( -0.000957359 -0.00106012 -0.000405411 )  
( 0.000279312 0.00139709 0.000119298 )  
( -0.000762735 0.000847341 0.000877581 )  
( -0.00020647 1.3348e-05 0.000887073 )  
( 9.18345e-05 -0.00189149 0.00397629 )  
( -0.000339812 0.000273113 0.000703216 )  
( -0.000751332 5.77995e-07 0.00107621 )  
( -0.000373564 -2.14109e-05 0.000621631 )  
( 0.000176619 0.000691574 0.000642238 )  
( 4.67111e-05 0.000139352 0.00138404 )  
( -0.00176078 0.000832202 -0.000107648 )  
( -7.61053e-05 -5.37279e-05 0.00149558 )  
( 3.74053e-05 0.000521438 0.000709538 )  
( 0.00032466 0.000185492 -7.29411e-05 )  
( 0.000125845 -0.000145423 7.80784e-05 )  
( -0.000842149 0.0003029 0.0012902 )  
( -0.000162409 -5.19334e-05 0.000138132 )  
( -8.14546e-05 -0.000491124 0.00135059 )  
( -0.00012929 0.000306261 0.000983451 )  
( -0.000324042 0.000164114 0.00121487 )  
( -0.000199295 0.00110578 0.00126852 )  
( -0.000295591 6.38243e-06 0.000276685 )  
( 0.000134937 -0.000172368 0.000275474 )  
( -7.1822e-05 4.33527e-05 4.45221e-05 )  
( -7.27628e-05 -0.000266737 0.000267746 )  
( 0.000161471 -0.000142861 0.000211501 )  
( -5.28673e-05 -5.83895e-05 0.000194411 )  
( -0.00111336 -0.000341092 0.00196078 )  
( 0.000109347 0.000173861 3.01828e-05 )  
( 0.000118457 0.000184951 0.000217315 )  
( -0.000253239 0.000876211 0.000437915 )  
( 1.4743e-05 0.000161456 -2.00932e-06 )  
( 0.000420143 0.000429509 9.60519e-05 )  
( -8.72221e-05 5.64111e-05 -0.00149075 )  
( -0.000107814 0.000152954 7.42668e-05 )  
( -0.000320129 0.000821849 0.00116918 )  
( 6.27839e-05 0.00057283 -0.000320225 )  
( -0.000120671 0.000609429 0.000790589 )  
( -0.000252164 -0.000301454 0.000411805 )  
( -0.000125146 0.000659516 0.000560122 )  
( -0.000488579 -0.00042171 0.00018446 )  
( 0.00025018 -6.69077e-05 -2.53038e-05 )  
( 1.12807e-05 1.67455e-05 0.000823747 )  
( 5.76739e-05 -0.000132602 0.00016816 )  
( 3.21622e-05 -8.8699e-05 -1.99997e-05 )  
( -0.00093693 0.000466621 -0.000891425 )  
( 0.000435878 -4.80755e-05 0.000195013 )  
( 0.000141051 0.000115836 0.000537432 )  
( -0.000688143 -0.000370597 -9.97843e-05 )  
( -6.60599e-05 0.00062224 0.000542484 )  
( 0.000206799 6.15851e-06 8.51553e-05 )  
( -0.00013825 0.000381958 0.00072613 )  
( -0.000796832 0.00066386 -0.000965653 )  
( 0.000235178 0.00027146 0.000555419 )  
( -3.76907e-05 -0.000108119 0.000232936 )  
( -0.000428258 0.000903635 0.000516077 )  
( 9.85084e-05 0.000186805 -4.06204e-06 )  
( -0.000756826 0.00051745 0.00123633 )  
( -0.000231237 -0.000247615 0.00139596 )  
( -0.000758849 -0.00017749 0.000512564 )  
( -0.000109946 0.000669772 0.000957944 )  
( -0.000352397 0.000334809 0.00112778 )  
( -0.000262124 8.11633e-05 0.00112424 )  
( -0.000327355 -0.000257452 0.00114782 )  
( 0.000162224 0.000301049 0.000614837 )  
( -0.000617797 0.000128337 -0.000419029 )  
( -0.000151148 -0.000196338 0.00103029 )  
( -0.00108551 0.00116812 0.00129715 )  
( -0.000416418 0.000918944 0.00205753 )  
( -0.000211604 -6.72519e-05 0.000921051 )  
( 0.000182902 0.000347501 4.26733e-05 )  
( -0.000796053 0.000159132 0.00098656 )  
( -4.12684e-05 0.00115941 0.000399337 )  
( -0.000177787 -0.000102779 0.000508572 )  
( 0.00127637 0.0022473 -3.14913e-07 )  
( 0.000147857 -7.47665e-05 0.000496206 )  
( 7.41738e-05 0.000546422 0.000458802 )  
( -0.000688259 0.000109289 0.0006224 )  
( -0.00069128 -0.000197048 0.000549742 )  
( -0.000214768 -0.000171762 0.000956334 )  
( 0.000346436 0.000295664 0.000378618 )  
( -9.03093e-05 0.000619122 0.000999375 )  
( -0.000163338 0.000194027 0.000758 )  
( -5.31536e-05 0.000196629 7.63314e-05 )  
( 0.000288328 -0.000536384 0.000832655 )  
( -6.67432e-05 0.00108817 0.00343319 )  
( 0.000390095 -0.000353969 -5.20389e-05 )  
( -0.00116623 -0.00136454 0.00160407 )  
( -0.00173272 0.00103158 0.00247611 )  
( -0.000101679 0.000202465 -0.000374255 )  
( -0.000540232 0.000465146 0.000791626 )  
( -0.000100383 -0.000158735 0.000125776 )  
( -0.000170142 5.65353e-05 8.71107e-06 )  
( 0.000669189 0.00161736 -3.49546e-08 )  
( -0.000281419 0.000578771 0.000504275 )  
( -0.000323584 0.000164678 0.000324749 )  
( -6.34409e-05 6.61443e-05 0.000279414 )  
( 0.000275501 -0.000354726 0.00484526 )  
( 0.000607501 -0.00130116 5.14755e-07 )  
( 0.000620099 -0.000530649 0.000791509 )  
( -0.000258203 0.00160285 0.000675745 )  
( -0.000594841 -0.000103961 0.000916733 )  
( -0.000176342 0.000119227 -8.55431e-06 )  
( 0.000135638 0.000294002 0.000859853 )  
( -0.0015134 0.000556441 -0.000400565 )  
( 9.84496e-06 7.65591e-05 8.4341e-05 )  
( 0.000170766 0.000135027 0.000551247 )  
( 0.000276175 0.000274157 0.00660195 )  
( -0.000315705 0.000761573 0.000104532 )  
( -0.000253103 0.000112089 0.000151646 )  
( 0.000409187 0.00115578 -0.000666829 )  
( -0.000235389 5.96807e-05 0.00107367 )  
( -0.000328039 -0.000203327 0.000271066 )  
( 0.000130046 0.00012657 -2.05147e-07 )  
( -0.00415815 0.000803033 0.00647487 )  
( -0.000828293 -5.53815e-05 0.00145023 )  
( -0.000433163 0.00100262 0.00229019 )  
( 4.08081e-05 0.00055885 0.000632583 )  
( -0.000407681 0.000375282 0.000861566 )  
( -0.000175837 1.13928e-05 0.000450027 )  
( -1.7351e-05 0.000259688 0.000794934 )  
( -0.000492564 -2.39412e-05 0.000643421 )  
( -0.000414663 0.000189513 0.000834671 )  
( -0.000261232 -0.000208548 0.000389509 )  
( 0.00234795 -0.00182142 -0.00103921 )  
( -0.000167175 -0.000496432 0.000103763 )  
( 0.000121931 0.000179231 0.000267353 )  
( -7.89975e-05 -8.96476e-05 0.00105561 )  
( -0.000244243 -0.000431941 0.000138001 )  
( 0.000108679 -9.33922e-05 0.000102093 )  
( -1.00142e-05 -1.74624e-05 -2.74651e-07 )  
( -0.000107456 0.000426244 0.00094121 )  
( 0.000485499 0.000643707 0.00319182 )  
( -0.000282989 0.00114667 2.8373e-05 )  
( -0.000728707 -0.000306381 0.000977409 )  
( -0.000145398 -5.70919e-05 0.000337872 )  
( -0.000471924 0.000718262 0.00121468 )  
( 0.000494595 0.000201876 0.000771925 )  