/*--------------------------------*- C++ -*----------------------------------*\
| =========                 |                                                 |
| \\      /  F ield         | OpenFOAM: The Open Source CFD Toolbox           |
|  \\    /   O peration     | Version:  2506                                  |
|   \\  /    A nd           | Website:  www.openfoam.com                      |
|    \\/     M anipulation  |                                                 |
\*---------------------------------------------------------------------------*/
FoamFile
{
    version     2.0;
    format      ascii;
    arch        "LSB;label=32;scalar=64";
    class       surfaceScalarField;
    location    "0.08";
    object      phi;
}
// * * * * * * * * * * * * * * * * * * * * * * * * * * * * * * * * * * * * * //

dimensions      [0 3 -1 0 0 0 0];

oriented        oriented;

internalField   nonuniform List<scalar> 
13248
(
-5.80899e-10
-3.59281e-09
4.83016e-08
6.46172e-09
-1.05039e-09
-5.2226e-09
-1.40073e-09
5.93608e-08
-3.47322e-09
-1.07622e-09
2.02303e-09
3.81805e-08
5.98566e-09
1.66424e-09
-4.6303e-12
4.7335e-08
-1.47176e-09
7.63154e-09
1.07725e-09
4.17067e-08
1.03063e-09
-7.91929e-09
-6.50952e-09
7.96668e-08
-6.47182e-09
1.90558e-09
3.65821e-10
3.94744e-08
8.46995e-10
-3.88963e-10
4.18032e-08
1.46743e-09
6.76905e-09
2.65056e-09
-1.46084e-09
4.87044e-08
-3.96958e-09
-3.70886e-09
-1.13544e-09
5.49839e-08
-3.29332e-09
-5.29743e-09
5.71607e-08
3.42187e-09
-9.4974e-10
4.3636e-08
-1.6007e-09
-3.0819e-09
5.79923e-08
-4.6987e-11
-1.51423e-09
4.219e-08
-2.03424e-09
-1.47444e-09
5.1685e-08
3.93247e-09
3.66793e-08
3.37388e-09
1.58911e-09
1.9497e-09
5.0356e-08
-5.01402e-09
-4.76521e-09
5.35782e-09
4.97223e-08
8.66823e-10
4.3355e-09
3.36532e-08
1.45326e-09
1.20581e-08
3.58276e-08
1.34742e-10
3.35942e-09
4.37407e-08
1.12487e-09
-1.07757e-09
4.61664e-08
3.55059e-09
4.0408e-09
3.95596e-08
1.39108e-09
5.68306e-08
-2.48433e-09
5.49586e-09
-3.08339e-09
5.14595e-08
-3.17396e-09
-1.11877e-08
-1.61227e-08
8.69038e-08
4.94608e-09
-5.45583e-10
3.84507e-08
-7.06957e-09
-3.36378e-10
7.30631e-08
-4.36655e-09
1.4937e-09
4.77949e-08
4.11516e-09
7.82496e-09
2.91086e-08
1.08546e-09
9.13829e-09
4.64763e-08
-5.74994e-10
4.69619e-08
5.28731e-09
-1.84533e-09
-1.3383e-09
5.00791e-08
-1.82379e-09
8.91231e-10
-4.54528e-10
2.97198e-08
3.73999e-09
1.81615e-09
4.31074e-08
-1.66316e-09
-1.42503e-09
5.45425e-08
3.38384e-09
3.69121e-09
4.15539e-08
2.62158e-11
-3.51329e-09
6.32023e-08
-1.39741e-08
-3.68174e-09
7.59088e-08
3.63101e-09
3.01727e-08
-7.64437e-11
3.97431e-10
4.87322e-09
4.19551e-08
5.10745e-10
2.80102e-09
7.15657e-09
3.54273e-08
-8.69972e-10
1.17655e-09
5.29263e-08
2.77762e-09
1.43678e-09
4.17303e-08
-3.27686e-09
1.35877e-09
5.79352e-08
9.9817e-10
2.01621e-09
4.02394e-08
-2.89158e-10
1.28274e-09
4.4155e-08
-2.50411e-10
5.45576e-08
-1.38895e-10
1.14476e-09
-1.1891e-09
4.65853e-08
5.8062e-09
-3.01582e-09
-1.70377e-09
5.72258e-08
-2.26623e-09
2.3794e-09
4.78041e-08
2.51875e-09
2.80013e-09
3.93736e-08
7.48505e-10
7.58944e-10
5.17847e-08
2.63565e-09
5.69956e-09
4.44218e-08
-1.67924e-09
1.68393e-09
5.33489e-08
2.78401e-09
4.55729e-08
5.84057e-10
-1.93937e-09
4.16313e-08
-1.04721e-09
8.67321e-09
2.83517e-09
3.68475e-08
4.05052e-09
-2.44067e-09
5.83573e-08
-2.45378e-09
1.56546e-09
4.56727e-08
5.84298e-10
3.87754e-09
4.66467e-08
-7.65065e-10
-2.82821e-09
6.42813e-08
-3.55554e-09
-3.52011e-09
5.3373e-08
-2.18986e-09
5.74286e-08
-5.25402e-09
-2.44915e-09
1.68418e-09
-3.8028e-09
4.64844e-08
1.56139e-10
3.77971e-09
-1.50866e-09
-5.27996e-09
6.73957e-08
4.37985e-10
-2.21549e-09
-3.59995e-09
4.09555e-08
1.53186e-09
-6.03053e-09
-2.89053e-09
5.09427e-08
3.09794e-09
1.2031e-09
-7.42669e-10
3.47235e-08
4.9227e-10
4.90095e-09
5.4525e-09
6.71226e-08
3.39386e-09
1.97908e-09
-1.06121e-09
4.18854e-08
1.57216e-09
4.52957e-10
4.07602e-08
7.91848e-10
1.7773e-09
-1.58329e-09
-4.74248e-09
4.74565e-08
3.7709e-09
-2.02311e-09
8.21152e-10
4.93226e-08
1.16235e-09
1.69798e-09
4.86774e-08
-2.49477e-09
3.53172e-09
4.08709e-08
6.93571e-09
2.74803e-09
4.50712e-08
2.19854e-10
-3.23145e-10
5.46815e-08
3.92321e-09
2.9351e-09
4.39854e-08
-7.51308e-10
3.942e-08
2.38691e-09
3.05973e-09
-1.47834e-09
4.21974e-08
1.83473e-09
-1.35423e-09
-1.5646e-08
7.06034e-08
1.90664e-09
-2.66348e-09
3.47538e-08
-4.05365e-09
-6.38567e-09
5.17052e-08
1.58128e-09
1.6754e-09
3.91785e-08
5.07141e-09
1.50338e-09
4.08498e-08
1.81955e-09
2.04674e-09
4.36999e-08
6.21613e-09
4.54125e-08
6.27035e-09
-1.0186e-08
-2.79181e-09
5.81428e-08
4.81616e-09
6.14295e-09
1.30977e-08
4.18314e-08
6.27024e-10
6.67368e-09
3.46296e-08
1.95521e-09
2.52508e-09
6.28241e-08
3.08576e-09
2.83806e-09
4.55018e-08
6.53632e-09
-1.54118e-09
2.87027e-08
3.32777e-09
-8.44651e-09
6.01781e-08
4.75783e-09
5.2415e-08
-6.66952e-10
7.58341e-09
5.57326e-09
3.12221e-08
2.90864e-09
-1.42412e-09
-5.42724e-10
5.23676e-08
-4.09722e-09
-3.41972e-09
5.58739e-08
1.23519e-09
-2.98259e-10
5.20336e-08
4.97911e-10
-1.55291e-09
4.6682e-08
5.66332e-10
3.8546e-09
5.77382e-08
1.07836e-08
6.10761e-09
5.11374e-08
-4.90541e-09
5.26981e-08
-2.07847e-09
9.77223e-10
1.07466e-09
4.43452e-08
1.13136e-09
-1.97379e-09
-4.64671e-10
3.83003e-08
1.2101e-10
1.01033e-09
4.64015e-08
7.13929e-10
3.57575e-09
3.72634e-08
5.69116e-09
-2.55796e-10
5.16609e-08
3.76187e-09
1.7569e-10
4.58477e-08
1.18809e-09
-1.26273e-10
5.29627e-08
2.74604e-09
4.59583e-08
2.1359e-09
1.49909e-09
6.13084e-09
3.58184e-08
4.21174e-09
-5.53833e-10
7.98625e-09
5.08279e-08
7.14102e-10
5.11007e-09
4.24365e-08
-3.12509e-09
9.42297e-10
4.58462e-08
5.14448e-09
7.45561e-09
3.58037e-08
2.79257e-09
4.96929e-09
4.19801e-08
1.749e-09
1.10282e-09
5.31633e-08
3.51259e-09
4.30764e-08
3.47898e-09
2.01677e-09
4.7159e-08
-7.86416e-10
-6.27201e-10
-3.67834e-09
5.40966e-08
-3.56764e-09
-2.09253e-09
6.17311e-08
1.50558e-10
6.47397e-09
3.20894e-08
5.95896e-09
4.86797e-09
6.00519e-08
-4.34352e-09
-2.59909e-09
7.84299e-08
-1.71233e-09
7.44539e-10
4.64368e-08
4.69533e-09
4.25254e-08
1.29313e-08
6.22899e-09
-4.95351e-09
-5.05183e-09
7.0812e-08
-1.09587e-08
-3.36347e-09
3.74299e-09
-2.06407e-09
6.11139e-08
-3.50592e-10
3.89315e-09
-1.46045e-09
4.71361e-08
-4.87029e-09
-2.08635e-09
-2.97134e-09
6.40841e-08
-4.19056e-09
-5.73428e-09
-2.14017e-10
4.163e-08
-3.04449e-09
3.79462e-09
7.18036e-09
4.66897e-08
3.72373e-09
2.47904e-10
2.42296e-09
4.14555e-08
1.55378e-09
4.25414e-09
4.47942e-08
-2.41692e-09
-5.62329e-09
-1.38191e-09
7.75003e-11
4.12878e-08
2.42132e-09
1.24279e-09
-3.89805e-09
4.85319e-08
1.28454e-09
-9.84743e-10
4.816e-08
2.27026e-09
1.3623e-09
3.55517e-08
1.46797e-09
1.54954e-09
4.41098e-08
6.33459e-10
3.27643e-09
5.942e-08
1.19594e-09
-8.31671e-10
4.66776e-08
-3.70067e-10
4.74327e-08
-2.19258e-09
-4.35777e-09
-3.99573e-09
5.28021e-08
-2.17363e-09
3.58166e-09
-1.28925e-09
6.00553e-08
3.63672e-09
-1.75652e-09
3.54705e-08
1.88305e-09
-5.50571e-09
6.03269e-08
2.36362e-09
2.32115e-09
3.79264e-08
-2.31582e-09
3.50609e-09
4.52996e-08
1.93298e-09
1.65923e-09
3.69602e-08
-9.25035e-10
4.53116e-08
2.58886e-09
9.12176e-11
4.77597e-09
5.03284e-08
-1.04849e-09
1.42077e-09
5.61417e-09
3.35986e-08
1.67216e-09
1.8863e-09
3.07354e-08
8.3645e-09
2.97279e-09
4.76527e-08
4.57125e-09
-2.43789e-09
5.40547e-08
-4.96144e-09
-6.86397e-09
4.86054e-08
-2.75502e-09
-1.48107e-09
6.11121e-08
8.81483e-09
3.90282e-08
8.91884e-10
-1.08533e-09
-1.47299e-09
4.36863e-08
-5.12977e-09
-2.19309e-09
-3.78045e-09
6.287e-08
-5.12935e-10
-2.09695e-09
5.81771e-08
7.48586e-11
-2.79245e-09
5.72115e-08
-3.30676e-09
1.4588e-09
4.61666e-08
5.98632e-09
2.44281e-09
3.91383e-08
8.63177e-09
-2.34643e-09
4.93573e-08
-3.71523e-09
7.76603e-08
-3.80034e-09
-2.78803e-09
-4.58386e-09
5.66211e-08
-6.377e-09
-3.47375e-10
-4.09298e-09
3.61722e-08
-9.59629e-10
-6.97028e-10
4.56138e-08
7.27706e-09
2.58801e-09
2.36463e-08
-2.61383e-09
-5.67018e-11
6.30673e-08
-1.96512e-10
2.63403e-09
4.32392e-08
3.49594e-09
1.12148e-09
4.58023e-08
4.69962e-09
3.91147e-08
1.9247e-09
-3.14503e-09
-2.41442e-09
4.08108e-08
-4.01676e-09
2.34426e-09
8.46351e-10
4.03993e-08
2.72973e-09
-1.93627e-09
4.32903e-08
4.02901e-10
-1.33693e-09
5.2098e-08
1.08863e-09
2.3793e-09
3.2682e-08
-1.44322e-09
-2.70223e-09
4.98482e-08
5.64036e-09
3.60386e-09
4.35974e-08
4.37635e-09
4.49098e-08
4.13018e-09
-2.71024e-09
5.56036e-08
6.06886e-10
-8.75568e-09
-8.72032e-10
5.54466e-08
-2.34185e-09
4.49324e-09
4.57927e-08
8.63692e-09
4.67933e-09
2.4599e-08
5.96736e-09
-4.32638e-09
7.28464e-08
-1.40947e-09
5.23651e-09
6.49735e-08
1.19123e-09
3.08031e-09
5.03956e-08
1.80118e-09
4.8192e-08
1.73393e-09
5.60752e-11
-2.75483e-09
3.05716e-10
6.91844e-08
3.30753e-09
7.69224e-10
3.99843e-09
5.70702e-10
5.13437e-08
2.44634e-09
3.86736e-09
6.28372e-09
4.36782e-08
-2.69473e-09
-1.85053e-09
1.14991e-08
6.5761e-08
-7.45799e-09
-1.68895e-09
-3.22893e-10
4.01979e-08
1.59343e-09
2.39656e-09
1.78328e-09
3.7291e-08
3.52989e-09
8.09248e-10
2.7818e-09
4.26391e-08
-2.37809e-09
2.03457e-09
4.69441e-08
-3.61045e-09
2.35194e-10
4.29401e-11
-2.6623e-09
4.68687e-08
-2.65574e-09
8.69022e-09
-4.02514e-09
4.44805e-08
3.59289e-09
-7.01013e-09
6.65512e-08
-7.03499e-09
-9.74753e-09
6.74263e-08
-8.95804e-10
5.39393e-09
3.22538e-08
5.08102e-09
6.2965e-09
4.893e-08
1.5618e-09
3.97831e-09
4.90003e-08
7.93262e-10
5.08702e-08
-6.34352e-10
-3.98772e-09
-1.96175e-09
5.74502e-08
-1.36086e-09
4.40476e-09
4.49839e-09
4.31393e-08
1.49686e-10
1.90315e-09
3.08124e-08
7.52755e-09
-4.20686e-10
4.36223e-08
-9.79558e-10
-2.85479e-09
5.46822e-08
1.82075e-09
5.39135e-09
4.34044e-08
-5.43672e-10
-1.11592e-09
4.44188e-08
4.95778e-09
4.23159e-08
-1.71249e-09
4.19135e-09
3.90909e-09
4.559e-08
-5.3237e-09
2.65022e-09
-1.71281e-09
4.1351e-08
-1.13289e-09
4.86901e-09
3.15526e-08
4.27125e-09
6.5813e-09
3.52463e-08
7.52017e-09
6.19702e-09
4.17543e-08
-6.61199e-09
-3.73135e-09
7.18604e-08
5.82927e-09
1.18275e-09
4.63722e-08
-8.03528e-09
6.17748e-08
-3.92426e-09
-9.06891e-10
-6.68609e-10
5.20475e-08
-2.8765e-09
1.29816e-08
1.01305e-09
4.62557e-08
-3.83031e-09
-8.84805e-10
8.07429e-08
4.41907e-09
3.2235e-09
5.23204e-08
-3.78532e-09
-2.61335e-09
6.31809e-08
-3.09336e-10
-5.03969e-10
3.24349e-08
-3.51656e-09
8.3769e-10
5.29096e-08
5.55453e-09
5.81572e-08
2.39682e-09
1.29752e-09
4.67034e-09
5.41477e-08
-4.163e-09
5.92026e-09
2.12948e-10
3.23496e-08
7.98145e-10
-2.05289e-09
5.19039e-08
-1.78436e-09
3.88813e-11
2.94135e-08
-2.85023e-09
7.06268e-10
6.08135e-08
4.31132e-10
2.2014e-09
3.72525e-08
3.92686e-10
1.25182e-09
4.54266e-08
5.32653e-10
4.5642e-08
-1.11276e-09
-1.30998e-09
-6.73587e-09
6.34528e-08
-9.92581e-09
4.86814e-09
-5.69922e-09
4.01334e-08
2.87446e-09
-7.77144e-09
5.10025e-08
-1.28362e-09
-1.43603e-09
5.7731e-08
-8.30106e-10
-1.30115e-09
3.42359e-08
-5.29294e-10
-2.84989e-09
5.45986e-08
4.39345e-10
4.35113e-09
3.95294e-08
-6.24131e-10
4.76392e-08
-1.13326e-09
-4.75984e-09
5.48141e-08
5.29505e-09
-6.48149e-09
3.27123e-09
3.52968e-08
6.41948e-09
4.09959e-09
3.32893e-08
3.90355e-09
-9.15211e-10
3.54691e-08
-7.29138e-09
-4.11609e-09
6.76964e-08
7.04967e-09
7.24884e-09
4.88451e-08
1.91355e-09
-4.88854e-09
6.63359e-08
5.48229e-10
5.1957e-08
-1.22548e-08
2.97704e-09
9.41788e-10
4.87174e-09
5.38222e-08
3.41582e-09
6.13289e-09
1.61666e-09
1.03263e-09
4.53126e-08
4.32362e-09
-1.91274e-09
1.20478e-09
4.34357e-08
2.56717e-09
6.47509e-09
8.15844e-09
4.8407e-08
8.07777e-10
-1.61856e-09
-6.8023e-10
4.78459e-08
1.12576e-09
6.91625e-10
-3.69519e-09
3.91655e-08
-4.89403e-10
2.81199e-10
-1.49618e-09
4.54491e-08
-9.03434e-10
1.29673e-09
4.54681e-08
-2.63466e-09
3.09517e-09
-2.14734e-09
-3.02288e-09
6.66248e-08
-9.71414e-09
2.06285e-09
-9.99994e-11
4.1403e-08
1.03709e-09
2.86492e-09
6.59169e-08
2.56239e-09
3.73169e-09
7.03276e-08
-3.42402e-09
-1.49072e-09
3.90508e-08
2.85463e-09
5.99853e-09
3.29576e-08
3.14239e-09
2.80573e-09
4.44107e-08
5.66582e-10
4.49653e-08
9.7775e-09
6.64336e-10
-1.69388e-09
5.61636e-08
-7.06702e-10
2.53892e-09
3.64567e-09
3.7519e-08
4.55331e-10
1.5126e-09
3.42483e-08
-2.57738e-09
4.34782e-09
4.60388e-08
2.32514e-09
-1.72002e-09
5.0009e-08
-2.28152e-09
-3.6763e-09
5.76859e-08
2.47e-09
-9.73019e-10
4.3446e-08
4.35907e-09
3.97712e-08
1.22227e-09
6.37499e-09
4.18634e-10
3.83681e-08
-1.26554e-09
2.17317e-09
-3.6765e-09
5.2875e-08
2.32126e-09
-8.56397e-09
4.1481e-08
-6.5109e-09
-6.16997e-09
5.45961e-08
8.60065e-10
4.65179e-09
2.80117e-08
-2.32373e-09
9.92917e-09
6.14388e-08
7.4125e-09
6.87496e-09
2.8788e-08
-2.99497e-09
7.8429e-08
-1.88761e-09
1.05507e-09
6.48959e-10
5.27687e-08
-2.00658e-09
3.65884e-09
1.21637e-09
3.87591e-08
1.23737e-10
1.69725e-09
7.40169e-08
2.15075e-09
2.0226e-09
4.2101e-08
5.28687e-09
2.33276e-09
6.23637e-08
-2.87127e-09
-3.91147e-10
5.09134e-08
-3.74158e-09
5.92252e-09
5.47323e-08
7.65476e-09
3.61014e-08
7.66448e-09
1.22998e-09
7.10289e-09
4.85007e-08
-2.03692e-09
1.19938e-10
6.61462e-10
3.40145e-08
1.57119e-09
2.07274e-09
5.00771e-08
1.25593e-10
-8.39699e-10
3.37214e-08
1.45151e-09
2.47873e-09
5.93416e-08
2.57893e-09
-8.09312e-10
3.65432e-08
1.73108e-09
-3.17083e-09
5.53678e-08
-1.83132e-09
5.72116e-08
-3.52482e-10
-3.02987e-09
-6.59668e-09
9.01616e-08
-9.9793e-09
5.35935e-11
-2.14748e-09
3.98589e-08
-1.87485e-09
-2.53627e-09
5.75399e-08
3.27884e-09
8.09375e-10
5.09282e-08
-1.97366e-09
-2.65357e-10
4.22325e-08
3.13854e-10
8.87595e-10
5.06142e-08
1.91696e-09
-2.2744e-09
3.70299e-08
-5.65448e-09
5.54123e-08
-2.03292e-09
1.02912e-09
4.64353e-08
4.41352e-09
-3.66056e-09
2.24623e-10
3.64703e-08
-2.51647e-09
1.73013e-09
3.24557e-08
-3.20817e-09
3.05196e-09
3.99638e-08
-5.00722e-09
-3.45933e-10
7.25226e-08
-1.69371e-09
-1.45522e-09
5.11282e-08
-2.86249e-10
-1.26848e-09
5.9854e-08
4.02075e-09
4.34816e-08
8.20411e-10
7.32007e-10
2.37115e-09
-8.12815e-09
6.04796e-08
-1.08904e-09
1.88663e-10
-1.12579e-09
-5.0692e-10
4.72932e-08
2.02326e-09
-1.54993e-09
-1.12934e-08
5.37828e-08
1.37051e-09
5.42262e-10
-1.02743e-08
5.19259e-08
4.66321e-09
-2.92006e-10
-1.04788e-08
5.60074e-08
3.15165e-09
-1.90915e-09
-6.15651e-09
4.68882e-08
5.09351e-11
2.89946e-09
-4.48732e-09
3.69809e-08
8.14694e-09
-5.38623e-10
5.22147e-08
1.2599e-09
-4.56838e-09
9.07464e-09
5.02712e-09
4.29754e-08
1.41945e-09
-1.11618e-08
-8.38739e-10
6.19713e-08
-1.39702e-09
6.78579e-09
3.80729e-08
3.46261e-09
4.54187e-09
5.06517e-08
1.89557e-11
-2.27981e-09
3.42955e-08
-1.17623e-10
-2.98378e-09
2.99215e-08
6.08258e-09
-2.22518e-09
3.59483e-08
1.10121e-10
5.04634e-08
-6.42857e-11
2.15165e-09
6.3206e-09
5.47785e-08
-2.06001e-09
-3.76912e-09
6.45635e-10
4.19555e-08
-5.27846e-09
2.52807e-09
4.00154e-08
-3.11333e-09
4.63038e-09
4.37852e-08
4.90028e-10
1.38601e-09
4.27398e-08
-1.2207e-09
-5.55796e-10
5.69686e-08
6.57909e-09
4.13265e-09
2.92884e-08
1.71641e-09
3.79947e-08
6.74928e-09
-3.61949e-09
-6.07068e-09
6.29593e-08
-8.5803e-09
-5.31133e-09
1.48492e-09
5.37276e-08
-7.09465e-09
-4.1267e-09
4.99191e-08
-4.61939e-09
2.87761e-09
5.38734e-08
-1.58614e-09
4.01402e-09
2.23505e-08
3.4296e-09
7.51012e-09
4.83572e-08
4.15009e-09
3.19866e-09
2.90016e-08
1.10844e-08
7.11119e-08
2.09913e-09
4.27437e-09
-6.73925e-10
4.99439e-08
-6.84635e-09
-6.97602e-09
3.52315e-10
5.1142e-08
1.23417e-09
1.8336e-09
5.98464e-08
-4.10177e-10
2.20343e-09
4.44197e-08
-2.80605e-09
3.36526e-10
6.8437e-08
4.03118e-09
6.14422e-09
4.5442e-08
7.65845e-09
6.02856e-09
4.82751e-08
-1.02597e-09
6.08062e-08
-4.93597e-09
4.13346e-09
5.88255e-09
3.65008e-08
1.30992e-09
-4.66543e-09
1.84977e-10
4.29808e-08
8.40598e-10
-2.07632e-10
4.66123e-08
-3.0731e-09
7.01893e-10
3.91367e-08
2.35032e-09
6.27356e-09
4.79811e-08
3.43557e-09
5.40665e-09
3.61956e-08
5.60827e-09
5.1492e-09
5.40745e-08
-5.47338e-10
6.14061e-08
9.35158e-10
1.77097e-09
-7.97546e-09
1.04399e-07
-2.15036e-09
-9.74591e-09
-2.48532e-09
5.4046e-08
3.79905e-09
1.50283e-09
4.22845e-08
1.64054e-09
3.84633e-09
4.99423e-08
1.63495e-09
-2.43645e-09
5.0948e-08
9.15275e-10
4.45354e-10
5.62952e-08
-7.39459e-10
6.87321e-11
4.37651e-08
4.72936e-10
5.5203e-08
-1.55047e-09
4.14931e-09
5.18096e-08
-1.83328e-08
8.33729e-10
-3.33621e-09
4.55593e-08
-4.08884e-09
3.73736e-09
3.05413e-08
-3.65637e-09
-8.28024e-09
5.74883e-08
-1.66055e-09
6.61204e-09
5.04937e-08
4.7002e-09
9.64296e-10
5.8327e-08
-1.10578e-09
-1.06439e-09
7.1072e-08
-9.12054e-09
4.42475e-08
-2.663e-09
1.30572e-09
1.88862e-09
1.18867e-09
5.82267e-08
-3.38808e-09
2.56375e-09
8.09938e-10
-2.84587e-09
5.38743e-08
-2.65616e-09
1.97512e-09
1.82294e-09
5.14284e-08
-6.33394e-10
9.94475e-10
6.49342e-11
5.15744e-08
1.26789e-09
2.33335e-09
3.17591e-09
5.17799e-08
-2.87819e-10
8.3585e-10
2.04713e-09
4.11454e-08
5.19354e-09
-4.66478e-09
-3.72419e-10
4.47012e-08
-1.84729e-09
5.64243e-10
5.01697e-08
1.08712e-10
-3.29217e-09
-2.48973e-09
-1.90162e-09
4.99379e-08
-1.38251e-09
2.81516e-09
1.64494e-09
5.21758e-08
-6.46359e-10
-6.23996e-10
4.39816e-08
1.44861e-09
6.8168e-10
4.79399e-08
3.21633e-10
6.34587e-11
3.85353e-08
-5.1777e-10
-2.07432e-09
3.48822e-08
-1.71481e-09
2.12944e-09
3.46441e-08
2.05577e-09
4.99503e-08
-2.69339e-09
1.17281e-09
-1.51813e-09
5.20354e-08
1.18689e-09
-2.46038e-10
-2.0621e-09
4.70815e-08
-2.89972e-10
-1.04964e-09
4.04849e-08
-2.93044e-10
-9.47532e-10
4.5418e-08
-1.23898e-09
1.84353e-09
4.1905e-08
3.80563e-09
-1.71913e-09
5.15692e-08
-2.83008e-09
5.52243e-10
3.75013e-08
-5.69553e-10
4.37451e-08
-5.9549e-09
6.87398e-10
1.48315e-09
5.40434e-08
5.22721e-09
3.50284e-10
-2.98003e-11
5.20325e-08
-5.22536e-10
-1.08349e-09
5.08261e-08
2.43266e-09
9.77622e-10
4.89918e-08
-3.90756e-09
-5.34283e-09
3.58781e-08
4.0133e-09
2.55335e-09
3.61637e-08
-9.53705e-09
-3.3857e-09
4.649e-08
3.34095e-09
5.42972e-08
3.36622e-09
-1.12415e-09
1.44342e-09
4.82385e-08
2.86906e-09
-9.22119e-10
2.24495e-09
4.86654e-08
8.41041e-10
1.32221e-09
5.5677e-08
-2.80034e-09
2.50709e-10
4.87892e-08
1.95623e-09
2.37079e-09
5.59653e-08
-1.48531e-09
5.01774e-10
5.09352e-08
-3.16092e-09
4.87271e-12
4.65602e-08
2.07224e-09
5.90088e-08
-9.49438e-11
-1.92894e-09
-1.10232e-08
4.97203e-08
1.17622e-09
-4.46744e-10
-1.82201e-09
4.55651e-08
-2.34082e-10
8.03545e-10
4.69182e-08
-1.88059e-09
-1.32858e-09
4.2362e-08
3.89407e-10
-7.99446e-10
4.88817e-08
-2.51092e-09
-2.87212e-09
4.24696e-08
-1.78122e-09
2.5955e-09
5.07538e-08
1.70065e-09
6.0023e-08
-2.68322e-11
1.90831e-09
1.44914e-09
7.67636e-08
1.32544e-08
1.1722e-09
-4.10876e-10
5.3371e-08
-1.13517e-09
1.20909e-09
4.41862e-08
-6.7716e-10
-1.48219e-10
4.83041e-08
-6.75636e-10
-9.47364e-10
5.10942e-08
1.68983e-09
-4.09396e-10
5.14669e-08
-1.11712e-09
-2.89423e-09
5.20616e-08
1.30462e-09
5.49646e-08
-4.8315e-10
5.30602e-10
5.04709e-08
-6.20366e-11
2.31867e-09
2.75128e-09
4.54905e-08
-2.56271e-09
-3.62765e-09
4.07006e-08
-2.57141e-09
-1.50852e-10
5.09116e-08
2.95152e-09
-1.99719e-09
5.53744e-08
-3.98149e-09
-1.31734e-09
5.69562e-08
2.81214e-10
3.81549e-09
6.49309e-08
-1.88633e-09
5.19368e-08
1.84672e-09
-4.41696e-09
-4.78771e-09
-5.20599e-09
5.79213e-08
4.12657e-09
6.17273e-09
-3.70906e-09
-5.46245e-09
5.37419e-08
4.51762e-09
-3.47252e-09
-7.05212e-09
5.18813e-08
6.36277e-09
-4.2762e-09
-9.95109e-09
5.43464e-08
7.98131e-09
-2.12321e-09
-1.27977e-08
5.28207e-08
9.6055e-09
7.17647e-10
-1.66292e-08
4.20276e-08
1.29049e-08
7.54674e-09
-1.83663e-08
4.27975e-08
1.34414e-08
-1.26345e-08
5.12904e-08
1.04472e-08
8.6134e-09
-6.49869e-09
-4.38976e-09
4.99474e-08
5.67434e-09
-5.85851e-09
-3.5159e-09
4.95902e-08
-6.50289e-09
-4.49355e-09
4.20682e-08
-8.12602e-09
-6.28419e-09
4.58948e-08
-5.87079e-09
-7.51227e-09
3.0995e-08
-2.73911e-10
-1.06046e-08
2.32612e-08
1.1498e-08
-2.08628e-08
2.53685e-08
-9.45789e-09
4.82946e-08
9.97641e-09
-6.45539e-09
-2.31983e-09
5.0415e-08
6.00662e-09
-7.21887e-09
-1.75272e-09
4.60817e-08
-9.30504e-09
-2.9003e-09
4.0978e-08
-1.0369e-08
-3.24324e-09
4.34385e-08
-8.77649e-09
-3.88341e-09
3.66856e-08
-7.97375e-09
9.97379e-11
4.00616e-08
1.97782e-08
3.84252e-10
-1.14974e-08
2.23037e-10
4.01414e-08
1.37012e-08
-6.64674e-09
2.72786e-10
5.15245e-08
6.57574e-09
-8.41015e-09
-1.53777e-10
5.21974e-08
-9.65035e-09
5.08456e-11
4.91156e-08
-9.57188e-09
3.24433e-09
4.24236e-08
-4.66415e-10
7.16448e-09
1.57271e-08
-5.33982e-09
3.34952e-09
3.77884e-08
1.73988e-08
1.88225e-08
5.31198e-09
6.97633e-09
5.15567e-08
1.3385e-08
-7.43503e-09
5.25845e-10
4.82674e-08
7.15123e-09
-8.01192e-09
1.32504e-09
4.77628e-08
-6.63668e-09
1.87639e-09
5.24756e-08
-6.0154e-09
3.81873e-09
4.7596e-08
-9.85218e-10
6.25956e-09
5.1838e-08
-6.10377e-11
8.31185e-09
4.50478e-08
7.38285e-09
1.17539e-08
4.61853e-08
7.21078e-09
5.73436e-08
8.81384e-09
-7.71113e-09
6.25906e-10
4.93429e-08
7.98834e-09
-7.22305e-09
1.98814e-09
4.44133e-08
-4.94812e-09
2.33491e-09
4.4184e-08
-3.65386e-09
3.17818e-09
4.17077e-08
-2.8222e-10
5.91418e-09
4.58562e-08
2.5288e-10
6.42866e-09
4.38174e-08
3.30149e-09
7.58913e-09
5.18699e-08
6.41853e-09
5.87906e-08
5.32568e-09
-5.4082e-09
5.71009e-09
6.79318e-08
9.15552e-09
-5.75375e-09
4.64861e-09
5.10557e-08
-3.69687e-09
4.32138e-09
4.01423e-08
-1.24351e-09
3.92746e-09
4.51002e-08
5.61936e-10
4.54161e-09
5.06619e-08
5.52465e-10
5.7962e-09
5.21088e-08
2.72127e-09
5.40432e-09
5.20779e-08
6.4137e-09
5.40222e-08
3.66878e-09
-6.19198e-09
5.33073e-08
3.98545e-09
5.08034e-09
-7.63507e-09
4.75228e-08
4.05874e-09
-4.70606e-09
3.69881e-08
5.10479e-09
-9.648e-10
4.46239e-08
6.47348e-09
8.62828e-10
5.32313e-08
4.85558e-09
3.28404e-10
5.79131e-08
5.37397e-09
3.5562e-09
6.02047e-08
6.90307e-09
5.16485e-08
6.30277e-09
3.956e-09
3.06288e-09
4.338e-09
5.34905e-08
-1.47149e-09
-1.49746e-09
3.40749e-09
3.99786e-09
5.15792e-08
-2.17977e-09
2.63853e-09
4.83917e-09
5.01712e-08
-2.35967e-09
3.16204e-09
5.13771e-09
5.02687e-08
-1.58462e-09
3.91644e-09
9.50975e-09
4.905e-08
-6.49252e-09
-1.61474e-10
8.69278e-09
4.4863e-08
-7.45027e-09
-3.97592e-09
1.15735e-08
4.43635e-08
-9.32409e-09
4.0431e-09
4.84066e-08
-3.15804e-09
-1.97734e-09
1.31665e-09
1.65289e-09
4.92592e-08
2.05753e-09
3.85449e-09
2.10442e-09
4.8947e-08
3.9049e-09
1.66586e-09
4.51916e-08
6.68897e-09
2.18497e-09
4.60661e-08
4.18422e-09
3.04383e-09
3.99621e-08
-1.05875e-09
2.97548e-10
3.68998e-08
-1.10723e-08
1.0345e-08
3.66105e-08
2.44698e-09
4.66285e-08
-7.80993e-09
1.53746e-09
-1.65559e-10
4.86629e-08
2.0336e-09
3.38047e-09
-5.60633e-10
4.69039e-08
3.44216e-09
-1.92303e-09
4.45053e-08
5.20823e-09
-2.42128e-10
4.41002e-08
4.17851e-09
3.85873e-10
4.03718e-08
7.24887e-09
-3.39595e-09
4.06848e-08
-1.57881e-08
-6.68382e-09
2.8569e-08
-4.77807e-09
4.32506e-08
-1.16723e-08
-1.84317e-10
-1.02427e-09
4.89303e-08
3.63698e-09
2.94053e-09
-3.26167e-10
4.88381e-08
5.77541e-09
-2.49266e-09
4.68508e-08
8.46151e-09
-4.0255e-09
4.35293e-08
4.40638e-10
-1.10035e-08
3.51294e-08
2.04569e-09
-7.25879e-09
4.00455e-08
-1.49986e-08
-1.67691e-08
3.24401e-08
-7.59282e-09
4.78858e-08
-8.51403e-09
-2.03259e-10
-2.37369e-09
4.84395e-08
1.38099e-09
5.11765e-10
-7.02017e-10
4.74233e-08
1.98038e-09
1.10686e-10
4.84028e-08
1.17828e-09
-1.82792e-09
4.61925e-08
2.75462e-10
-5.28628e-09
4.70324e-08
-1.16701e-09
-5.79798e-09
4.50304e-08
-7.75235e-09
-9.47494e-09
4.54775e-08
-5.08816e-09
5.11565e-08
-4.07019e-09
1.58054e-09
-4.62408e-09
4.93538e-08
6.58385e-10
1.38595e-09
-2.79823e-09
4.67038e-08
3.78513e-10
-5.28367e-10
4.58311e-08
-1.40584e-09
-2.81984e-09
4.44831e-08
-2.17632e-09
-4.88205e-09
4.62232e-08
-4.02231e-09
-6.09203e-09
4.59569e-08
-5.37683e-09
-5.63905e-09
4.93882e-08
-2.51604e-09
5.26327e-08
-1.79146e-09
3.87532e-09
1.12849e-09
5.58011e-08
2.5022e-09
3.59513e-09
-1.27064e-09
4.98073e-08
-8.23006e-10
-9.4785e-10
4.49798e-08
-3.45606e-09
-1.64114e-09
4.65515e-08
-3.05694e-09
-3.60472e-09
4.89878e-08
-2.93655e-09
-4.36512e-09
5.02607e-08
-2.80884e-09
-4.57066e-09
5.08817e-08
-2.03692e-09
5.19017e-08
-1.16782e-09
2.2158e-09
5.10961e-08
1.30826e-09
-1.84853e-10
2.26973e-09
4.85908e-08
-2.39323e-09
-2.78772e-09
4.41187e-08
-3.02121e-09
-5.63888e-09
4.69812e-08
-1.14934e-09
-4.21746e-09
5.06376e-08
-2.43174e-09
-2.98648e-09
5.30631e-08
-7.46681e-10
-3.16686e-10
5.44262e-08
-1.46222e-09
5.19312e-08
-3.43879e-09
8.03133e-10
1.44292e-09
2.59058e-09
5.10023e-08
-2.5933e-10
-1.28543e-09
1.99339e-09
2.75263e-09
5.01136e-08
-1.83699e-09
1.84695e-09
3.37889e-09
4.91954e-08
-2.25631e-09
2.01725e-09
3.59635e-09
4.87794e-08
-2.27751e-09
2.12102e-09
5.31372e-09
4.80215e-08
-4.38797e-09
2.47803e-10
4.73725e-09
4.65366e-08
-4.53706e-09
-1.84567e-09
5.18744e-09
4.6321e-08
-5.05097e-09
1.59894e-09
4.79061e-08
-1.59246e-09
-1.35083e-09
8.66364e-10
1.22092e-09
4.89439e-08
8.19525e-10
2.38489e-09
1.66965e-09
4.85122e-08
2.31645e-09
1.52357e-09
4.71156e-08
3.33311e-09
1.90945e-09
4.67347e-08
1.89423e-09
2.02056e-09
4.46964e-08
-6.67489e-10
6.72981e-10
4.35257e-08
-5.04602e-09
2.83457e-09
4.33426e-08
2.01925e-10
4.69127e-08
-3.93365e-09
1.2796e-09
8.79341e-11
4.8314e-08
2.02952e-10
2.23397e-09
3.0014e-11
4.75898e-08
2.31984e-09
-4.71255e-10
4.64145e-08
2.72728e-09
-6.32611e-11
4.56662e-08
1.4298e-09
-3.21223e-10
4.40104e-08
5.61838e-10
-1.54579e-09
4.37724e-08
-6.58366e-09
-2.86779e-09
4.14168e-08
-2.95414e-09
4.59487e-08
-6.12581e-09
7.75756e-10
-7.14364e-10
4.83076e-08
6.48842e-10
2.11816e-09
-3.93107e-10
4.79184e-08
2.96983e-09
-1.29734e-09
4.68255e-08
3.28676e-09
-2.19063e-09
4.53432e-08
-3.80746e-12
-4.97752e-09
4.30734e-08
-9.89918e-10
-4.22208e-09
4.37077e-08
-6.9642e-09
-7.14224e-09
4.26893e-08
-4.31151e-09
4.73538e-08
-5.07523e-09
7.99739e-10
-1.31118e-09
4.84459e-08
-2.08563e-10
8.95115e-10
-8.08294e-10
4.7744e-08
1.24329e-09
-6.70908e-10
4.74277e-08
4.00878e-10
-1.73124e-09
4.6572e-08
-5.05417e-10
-3.46693e-09
4.64314e-08
-1.80286e-09
-4.08616e-09
4.61923e-08
-4.59867e-09
-5.45207e-09
4.65826e-08
-3.54709e-09
4.91332e-08
-3.3406e-09
1.20822e-09
-1.96982e-09
4.90433e-08
-2.39218e-10
1.03994e-09
-1.72394e-09
4.77875e-08
3.15707e-10
-1.14225e-09
4.70272e-08
-1.03552e-09
-2.41124e-09
4.65133e-08
-1.70132e-09
-3.62878e-09
4.70514e-08
-2.89571e-09
-4.2957e-09
4.73605e-08
-3.50428e-09
-4.04278e-09
4.85871e-08
-2.44328e-09
5.01738e-08
-2.14953e-09
1.61033e-09
5.25593e-10
5.09169e-08
7.77414e-10
1.62893e-09
-8.98135e-10
4.89627e-08
-6.20433e-10
-1.16006e-09
4.72471e-08
-2.10038e-09
-1.87284e-09
4.74926e-08
-2.30222e-09
-2.92022e-09
4.84805e-08
-2.31035e-09
-3.25752e-09
4.92303e-08
-2.21406e-09
-3.18947e-09
4.99319e-08
-1.92499e-09
5.06001e-08
-1.43098e-09
3.68076e-10
4.97401e-08
7.67898e-10
7.44604e-10
5.78598e-10
4.87543e-08
-1.2725e-09
-1.77064e-09
4.73361e-08
-2.02844e-09
-3.18135e-09
4.80423e-08
-1.52442e-09
-2.79157e-09
4.95708e-08
-2.24324e-09
-2.08875e-09
5.06515e-08
-1.54926e-09
-7.95505e-10
5.14501e-08
-1.50675e-09
5.12403e-08
-1.97474e-09
-5.5158e-11
1.19727e-09
1.9381e-09
4.99715e-08
-6.17855e-10
-1.48595e-09
1.45371e-09
1.91188e-09
4.95084e-08
-1.56237e-09
1.32379e-09
2.05102e-09
4.8962e-08
-1.68693e-09
1.15816e-09
2.14315e-09
4.859e-08
-1.78702e-09
8.66298e-10
2.61194e-09
4.81822e-08
-2.47941e-09
-9.79913e-11
2.38005e-09
4.76503e-08
-2.52884e-09
-1.09256e-09
2.31467e-09
4.7626e-08
-2.62442e-09
1.04143e-09
4.82437e-08
-1.29853e-09
-1.17276e-09
9.01213e-10
1.1535e-09
4.89377e-08
-1.09493e-10
1.47302e-09
1.23713e-09
4.86162e-08
1.44097e-09
1.19919e-09
4.80003e-08
1.47422e-09
1.27215e-09
4.7573e-08
7.13719e-10
1.22589e-09
4.68448e-08
-5.0633e-10
7.11809e-10
4.64147e-08
-2.17198e-09
8.87436e-10
4.64356e-08
2.72592e-11
4.7725e-08
-1.97032e-09
9.98685e-10
3.36382e-10
4.84947e-08
-3.61575e-10
1.41952e-09
2.8762e-10
4.8119e-08
1.40881e-09
1.14481e-10
4.75105e-08
1.26499e-09
7.82244e-11
4.70043e-08
4.12625e-10
-2.36543e-10
4.63265e-08
-5.05295e-10
-7.26719e-10
4.61294e-08
-2.76401e-09
-1.28442e-09
4.58474e-08
-1.45933e-09
4.74672e-08
-2.79632e-09
8.64708e-10
-3.54351e-10
4.8422e-08
-2.87651e-10
1.303e-09
-3.18092e-10
4.80864e-08
1.39994e-09
-6.65326e-10
4.75088e-08
1.10303e-09
-1.13365e-09
4.6855e-08
-1.48495e-10
-2.08323e-09
4.61699e-08
-1.09083e-09
-2.31664e-09
4.62401e-08
-3.0117e-09
-2.99716e-09
4.6323e-08
-2.40834e-09
4.79599e-08
-2.66876e-09
8.1434e-10
-8.08148e-10
4.8566e-08
-4.80447e-10
8.38489e-10
-7.47856e-10
4.815e-08
6.90893e-10
-8.6188e-10
4.77723e-08
1.24621e-10
-1.38372e-09
4.73863e-08
-5.96734e-10
-2.16963e-09
4.72417e-08
-1.43935e-09
-2.60586e-09
4.73245e-08
-2.50926e-09
-3.03026e-09
4.76853e-08
-2.46581e-09
4.88319e-08
-2.15079e-09
8.20641e-10
-1.10524e-09
4.88906e-08
-3.71155e-10
7.08251e-10
-1.16472e-09
4.83167e-08
1.98032e-10
-1.18055e-09
4.78563e-08
-5.79014e-10
-1.73197e-09
4.76381e-08
-1.16847e-09
-2.34757e-09
4.78188e-08
-1.80302e-09
-2.71594e-09
4.81053e-08
-2.18326e-09
-2.74929e-09
4.86865e-08
-2.24805e-09
4.94988e-08
-1.72608e-09
7.92052e-10
-4.17317e-10
4.951e-08
-7.3407e-11
6.75294e-10
-9.01737e-10
4.8816e-08
-2.79423e-10
-1.16029e-09
4.81814e-08
-1.13205e-09
-1.55996e-09
4.81726e-08
-1.51547e-09
-2.07254e-09
4.85884e-08
-1.73814e-09
-2.2885e-09
4.90255e-08
-1.77142e-09
-2.31109e-09
4.95269e-08
-2.01303e-09
5.00194e-08
-1.42573e-09
2.85427e-10
4.92539e-08
-2.87208e-10
7.04709e-11
1.91708e-10
4.88841e-08
-9.3802e-10
-7.98091e-10
4.84075e-08
-1.24208e-09
-1.64446e-09
4.8588e-08
-1.26018e-09
-1.78875e-09
4.9242e-08
-1.5999e-09
-1.72172e-09
4.9792e-08
-1.49623e-09
-1.38734e-09
5.03019e-08
-1.49734e-09
5.05705e-08
-1.8029e-09
-9.27495e-10
6.91635e-10
1.16474e-09
4.94942e-08
-3.78014e-10
-1.00063e-09
8.4103e-10
1.17567e-09
4.92455e-08
-1.06162e-09
7.80204e-10
1.21801e-09
4.89473e-08
-1.14174e-09
6.23912e-10
1.25194e-09
4.87106e-08
-1.21499e-09
3.78623e-10
1.33411e-09
4.85019e-08
-1.40682e-09
-9.50315e-11
1.19558e-09
4.83038e-08
-1.37472e-09
-5.25678e-10
1.03117e-09
4.83239e-08
-1.29792e-09
4.81384e-10
4.85675e-08
-6.97291e-10
-6.33512e-10
6.12052e-10
7.58975e-10
4.89722e-08
-2.40228e-10
8.35227e-10
7.94806e-10
4.87746e-08
8.0691e-10
7.81995e-10
4.84655e-08
6.67766e-10
7.59714e-10
4.82056e-08
2.54951e-10
6.76824e-10
4.79167e-08
-3.38374e-10
4.40115e-10
4.7764e-08
-9.91568e-10
2.84961e-10
4.78352e-08
-1.12412e-10
4.83188e-08
-9.91834e-10
6.60204e-10
2.82458e-10
4.87141e-08
-4.02801e-10
8.17923e-10
2.62633e-10
4.84938e-08
7.58006e-10
1.71624e-10
4.81814e-08
5.50239e-10
6.69382e-11
4.79058e-08
6.84842e-11
-1.50876e-10
4.7637e-08
-5.16202e-10
-4.14901e-10
4.75696e-08
-1.32697e-09
-6.83701e-10
4.7627e-08
-8.45649e-10
4.8255e-08
-1.38151e-09
6.19692e-10
-1.52874e-10
4.86456e-08
-4.07964e-10