/*--------------------------------*- C++ -*----------------------------------*\
| =========                 |                                                 |
| \\      /  F ield         | OpenFOAM: The Open Source CFD Toolbox           |
|  \\    /   O peration     | Version:  2506                                  |
|   \\  /    A nd           | Website:  www.openfoam.com                      |
|    \\/     M anipulation  |                                                 |
\*---------------------------------------------------------------------------*/
FoamFile
{
    version     2.0;
    format      ascii;
    arch        "LSB;label=32;scalar=64";
    class       volVectorField;
    location    "0.08";
    object      U;
}
// * * * * * * * * * * * * * * * * * * * * * * * * * * * * * * * * * * * * * //

dimensions      [0 1 -1 0 0 0 0];

internalField   nonuniform List<vector> 
4608
(
(-0.00250243 -0.000997512 0.0205214)
(-0.00165686 0.000932083 0.0161189)
(-0.00152309 -0.00105399 0.0150031)
(-0.000260392 0.000549674 0.013502)
(0.00230948 0.000119278 0.0210285)
(-0.000458917 6.1925e-05 0.0279758)
(-0.00112437 -6.39042e-05 0.0160896)
(0.0031039 -0.000541986 0.0152224)
(0.00184888 -0.0010664 0.0157788)
(7.27859e-05 -0.00107524 0.0208229)
(-0.0020435 -0.00110074 0.0212095)
(-0.000194882 -0.000210549 0.0152366)
(0.000662914 -0.000828047 0.0258774)
(-0.000283914 -0.00142404 0.0131802)
(-0.000709619 -0.000976869 0.0199854)
(0.00023015 0.000407826 0.0120796)
(0.00250046 -7.42556e-05 0.0194547)
(-0.00109448 0.000471739 0.0109795)
(-0.00119147 -2.61243e-05 0.0125045)
(0.000636806 0.00144021 0.0146079)
(0.000250993 0.000288453 0.0167244)
(0.000440573 -0.00107822 0.0202034)
(0.00132918 0.00133409 0.010182)
(0.00018482 0.00180354 0.0232765)
(0.0012874 -5.79911e-05 0.0156304)
(-0.00198493 -0.00375649 0.0368104)
(-0.000397991 0.00121635 0.0139633)
(-0.000299128 0.00411417 0.02826)
(-0.00318047 0.00129578 0.0205774)
(0.0006268 0.00189876 0.0114078)
(0.00168542 0.00277713 0.00926198)
(0.00148386 0.000354386 0.00863811)
(3.14706e-05 -0.00145483 0.0212086)
(0.000209944 -0.00192106 0.00937457)
(0.00103816 0.000281304 0.00688431)
(0.000648295 -0.00079689 0.0174454)
(0.00058585 0.00116483 0.0109849)
(0.00136223 0.00112817 0.0168453)
(-0.00521084 0.00146696 0.0327838)
(-0.00176342 0.000296722 0.0122946)
(-0.00022007 0.000739762 0.0160088)
(0.00133865 0.00136626 0.0110784)
(0.000264253 0.00109943 0.0189884)
(0.00019231 0.00035578 0.012518)
(-0.000235837 0.001528 0.0244872)
(-4.95921e-05 -0.000250789 0.0097952)
(0.000103866 -0.000153963 0.0114784)
(1.10986e-08 0.00123705 0.0188218)
(-0.00146146 0.00145935 0.0209568)
(-0.000590286 0.0021265 0.0167427)
(-0.00140296 0.000769742 0.0145776)
(-0.000648575 0.00113678 0.00646466)
(0.00133279 0.000794297 0.0227372)
(0.00136867 0.00260091 0.0164801)
(0.000184396 0.000762939 0.0128539)
(-0.00052589 0.000534534 0.0191657)
(-0.00303365 -0.000652509 0.0118849)
(-0.000238745 0.000431792 0.00908105)
(0.000897096 8.17954e-05 0.0135209)
(-0.000551247 0.000928718 0.0191854)
(0.00177967 -0.000368421 0.00949867)
(0.000462784 0.000492276 0.0122691)
(-0.00159478 -0.000292131 0.0179923)
(-0.00313581 -0.00161313 0.0252751)
(-0.000108239 -0.00227092 0.0322799)
(0.000427177 -0.00200774 0.0529633)
(-0.000655438 -0.0015338 0.0311452)
(-0.00371124 -0.00262609 0.0472094)
(-0.000996287 -3.82049e-05 0.0184311)
(0.00279425 0.000469308 0.054179)
(0.00110654 -0.000919629 0.0299752)
(0.00115617 -0.000327281 0.0340659)
(-0.00181132 -0.00286136 0.04257)
(-0.00126849 -0.000747008 0.0379406)
(2.58662e-05 -0.00017533 0.0419308)
(-0.000601827 0.00119921 0.0379727)
(0.00109739 0.000466259 0.0310881)
(0.00268391 0.00144921 0.0402652)
(0.00110715 0.000476393 0.0374754)
(0.00161605 -0.000269057 0.0342133)
(-0.000175607 -0.00146712 0.0376311)
(0.000432732 -0.0046884 0.050654)
(0.000558147 -0.000816219 0.0308947)
(-0.000155715 -0.000570915 0.0286141)
(-0.00162548 0.00142748 0.0351807)
(0.00204292 0.000388032 0.0293512)
(0.00239973 0.00157872 0.0418106)
(0.00247128 0.00123564 0.0361265)
(-0.00439856 -0.00169807 0.0455579)
(-0.000810368 0.000335236 0.0383652)
(0.00225056 0.000911249 0.0332053)
(0.000701149 -0.00171728 0.0438741)
(0.00122749 0.00133521 0.0309115)
(0.00259895 0.000458535 0.0273003)
(0.00386073 -0.00209726 0.0525434)
(-0.000182044 0.00440281 0.0511378)
(0.00130463 0.00114229 0.0331946)
(0.00245344 0.00397843 0.0306746)
(-0.00194278 0.00117701 0.0511941)
(-0.000901469 0.000289165 0.046406)
(0.000612732 0.00059726 0.043635)
(-0.000454924 0.000558983 0.0556224)
(0.00528846 -0.000651527 0.0355265)
(0.00181613 -0.000809919 0.0262991)
(-0.000126731 0.00221287 0.0340709)
(0.000139281 -0.000828928 0.0339002)
(-0.00104337 -0.000826285 0.0406693)
(0.000437052 0.00103482 0.038849)
(0.00167543 -0.000928643 0.0335632)
(0.0028976 0.000616559 0.0429842)
(0.00159006 0.00202975 0.0439069)
(0.00104035 -0.00136478 0.0434677)
(-0.000242344 0.00215995 0.0262834)
(0.00039034 0.00245449 0.046773)
(0.000230193 0.00158041 0.04322)
(-0.00153197 0.00103473 0.0472575)
(0.00119604 0.00154041 0.0304832)
(0.0023932 0.000829098 0.0347356)
(0.0015592 0.000176361 0.0525619)
(0.00168293 0.00234821 0.031792)
(0.000964291 0.00179582 0.0414765)
(-0.000227554 0.00155213 0.0389107)
(-0.00223412 0.00181285 0.0545771)
(0.00108726 0.00252218 0.0303859)
(0.00372917 0.0016463 0.0513124)
(0.000290227 0.00101478 0.0645649)
(-0.000484276 0.00184641 0.043482)
(0.00284158 0.00777314 0.0330678)
(0.003451 -0.000631773 0.041139)
(-0.000418479 -0.00110276 0.0465386)
(0.00220435 0.00128965 0.037026)
(0.000888583 -1.65163e-05 0.0297468)
(-0.00269806 0.000920078 0.0393043)
(-0.000515834 0.00044184 0.0418788)
(0.00122681 0.000227271 0.0403669)
(-0.00199079 0.002452 0.0349606)
(-0.000660431 -0.00118745 0.032256)
(-0.000549581 -0.00151362 0.0398057)
(0.00106384 -0.000684074 0.0352168)
(0.00112029 -0.000425536 0.0313951)
(0.00117394 0.000562382 0.0403514)
(0.000670071 0.00321364 0.0436213)
(0.000436218 0.000513145 0.0337261)
(-0.00022527 0.00134467 0.0332381)
(0.000209389 -0.000912262 0.0300729)
(-0.000649528 -0.00176327 0.0537301)
(0.0013513 -0.0011637 0.0309951)
(0.00215368 -0.00141571 0.0523067)
(0.00078916 0.00116729 0.0301347)
(0.000177385 0.00251339 0.0389185)
(-0.000217149 0.000261122 0.0311763)
(0.00162262 -0.000699907 0.0383397)
(5.79255e-05 0.00102678 0.0414933)
(0.000866722 0.000660785 0.025002)
(0.000869818 0.000104312 0.0268369)
(0.00310057 -9.53231e-05 0.0482316)
(0.00396226 -0.00017219 0.0419398)
(0.000322501 -0.00169758 0.0258471)
(-0.00351634 0.000198339 0.0400433)
(-0.000202342 0.00154899 0.0326104)
(0.00148169 0.000261559 0.0170594)
(-0.00178524 0.0010217 0.0511493)
(-0.0009556 -9.21423e-05 0.0365867)
(-9.48143e-05 -0.000818344 0.0326588)
(-0.00114702 -0.00032193 0.0303871)
(-6.56301e-05 -0.00204891 0.0268205)
(0.0049282 -0.0012595 0.0439097)
(0.00103821 0.0015417 0.0559138)
(0.0013186 -0.0021065 0.0372334)
(-0.000970143 -0.00206501 0.0321875)
(-0.000783683 -0.000848174 0.0363414)
(0.00128393 0.000406753 0.0215937)
(0.00223481 0.000534039 0.0477532)
(-0.000989243 0.00186863 0.0328375)
(0.00139795 -0.000443289 0.0424545)
(0.0013686 0.000595392 0.0296712)
(0.00047873 -0.00206619 0.0357903)
(-0.000110189 -0.00111185 0.0332397)
(0.00168053 -0.000605454 0.0229519)
(0.00136259 0.000590082 0.02241)
(0.000342575 0.00057387 0.0316789)
(-0.000317794 0.000251179 0.0355279)
(0.00115658 0.0017441 0.0282251)
(0.00324075 0.00324316 0.0393534)
(0.00146369 -0.000462111 0.035496)
(-0.00146598 -0.000334907 0.0498816)
(0.00161018 0.00309458 0.0400854)
(0.00225139 0.00028631 0.0270073)
(0.000911434 0.000417647 0.039334)
(0.000526386 -0.000210352 0.0498875)
(0.00173274 0.00179194 0.0287137)
(0.00133194 0.00161724 0.0358896)
(-0.00282847 -0.000894146 0.0633795)
(0.00103129 -0.00067325 0.0437743)
(0.00185081 0.00260978 0.0386866)
(0.000625685 0.00710757 0.0622956)
(-0.000955164 -0.000659756 0.0312929)
(0.00034879 -7.73949e-05 0.0321719)
(0.00113058 0.00142804 0.0261008)
(0.00012061 0.00148898 0.0371416)
(0.00085981 -0.000123659 0.0366013)
(0.00253909 -0.00120878 0.037114)
(0.00408786 -0.000687926 0.0394872)
(-0.000866431 -0.000725242 0.0281521)
(-0.00302234 0.00158313 0.0340379)
(0.00120696 0.00270618 0.0466913)
(0.00182038 0.00260257 0.0414307)
(0.000413244 0.000873536 0.0428566)
(-0.00161614 -0.00193038 0.0534285)
(0.00101332 0.00027842 0.0334628)
(0.00143124 -0.00122368 0.0312514)
(0.00256734 -0.00414181 0.0389044)
(0.00189532 0.00111859 0.0344056)
(0.000268282 0.00271344 0.0358028)
(0.000395538 0.000859724 0.0305304)
(-0.000725516 0.00212953 0.0350819)
(0.00308355 0.000536 0.0369399)
(0.00206206 0.00104856 0.0355645)
(0.00047076 0.00172177 0.0297476)
(0.000368741 0.000815441 0.0244799)
(0.00388231 0.000737437 0.0425637)
(0.000495641 0.000487741 0.0488824)
(0.000437028 -0.000361637 0.0503009)
(0.000211792 0.00029064 0.0312297)
(0.000415108 0.00131459 0.0505288)
(0.00343353 -0.000129187 0.0419945)
(0.00301212 0.00160067 0.0475545)
(0.000210104 0.00445808 0.0521732)
(-0.000247043 0.0011243 0.0418162)
(-0.00114833 -0.00082092 0.0391658)
(-0.000745761 0.00074754 0.033808)
(-0.000123162 -0.00135902 0.0550529)
(0.00168596 0.0017838 0.0519456)
(0.00220274 0.000246021 0.0296728)
(0.00233363 -0.000732639 0.0348768)
(0.000114155 0.000588093 0.0241477)
(-0.0020526 -0.00046329 0.0454615)
(-0.000463516 0.000376136 0.0379919)
(0.00026672 0.000667823 0.0281378)
(-0.000294042 0.00118334 0.0372877)
(0.00224069 -0.000994335 0.0312147)
(0.000666004 -0.00189774 0.0327985)
(0.00251703 -0.00364923 0.0442251)
(0.000276938 -0.000509635 0.0540859)
(-0.000319438 -0.000170444 0.0258229)
(-0.000516184 -9.64507e-05 0.042513)
(-0.000110101 0.00158026 0.0427431)
(-8.79593e-05 0.00021378 0.034237)
(-2.19839e-05 -0.00160594 0.0502116)
(-1.91354e-05 -4.76582e-06 0.0324482)
(0.00324827 -0.00151437 0.0313938)
(0.000972513 -0.00148924 0.0187346)
(-0.00209611 0.00216747 0.0646371)
(0.00110556 0.000143881 0.0434815)
(0.000726364 0.00131171 0.0484223)
(-0.000356081 -0.00599921 0.0426235)
(-0.000818566 -0.000217069 0.0387276)
(0.000678639 -0.00143615 0.0393712)
(-1.02701e-05 -0.00101607 0.0353332)
(0.00144688 0.00103614 0.0360556)
(0.00147157 -0.000706468 0.0363715)
(-0.000343858 -0.00106251 0.0327033)
(0.000464738 -0.000321998 0.0430321)
(0.000577385 0.00152132 0.0399824)
(0.0017398 0.000596667 0.0388875)
(-0.00025826 0.000381287 0.0382226)
(0.000966787 0.00174243 0.0603312)
(0.00120918 0.00440373 0.0662243)
(-0.000466008 -0.00039364 0.0230034)
(-0.000850718 0.000542155 0.0315434)
(0.00193519 0.000612373 0.0375151)
(0.00449795 0.000461861 0.0387702)
(0.000368118 -0.00138476 0.0347503)
(0.00129916 0.00116863 0.0385471)
(0.000803275 0.000879528 0.0251109)
(-0.000300869 0.00188897 0.0310787)
(-0.000231349 -0.00153198 0.05053)
(-0.000145314 0.0013444 0.0351089)
(3.76759e-05 0.000156736 0.0415988)
(0.0016506 0.00101281 0.0374686)
(0.00249445 -0.000473959 0.0405872)
(0.00289851 -4.33566e-05 0.0355015)
(0.00129625 -0.000412316 0.0285639)
(-0.00176744 -0.000603776 0.0344543)
(-0.00171759 0.000471277 0.026459)
(-0.000547925 0.00339893 0.0573991)
(0.000522909 0.00122964 0.0261001)
(0.00267983 0.000263373 0.0613324)
(0.000939784 0.0004484 0.0296088)
(0.000929462 -0.00065551 0.0341853)
(0.00137362 -0.00303181 0.0700736)
(0.000335999 -0.00136997 0.0317989)
(0.00360485 0.0026487 0.0552578)
(-3.17444e-06 0.000702406 0.0176718)
(-0.00284977 0.00487126 0.0492521)
(0.0019002 0.00183895 0.033965)
(0.0011755 0.00129755 0.031216)
(0.000327342 0.000445082 0.0305045)
(0.000670993 0.00105489 0.0498464)
(0.000282269 0.000565743 0.0326852)
(0.000799076 0.00155534 0.0482011)
(0.000648922 -0.000387354 0.0275155)
(0.00184101 0.000297196 0.0449743)
(0.000460031 0.0022151 0.0382371)
(0.00334338 0.00049057 0.0629792)
(-0.000464971 -0.000400197 0.0372417)
(-0.000620086 -0.000311151 0.0395671)
(0.000556002 0.000124501 0.0397336)
(0.000351812 0.000500656 0.0355354)
(-0.000334314 0.000138578 0.0468358)
(0.000138163 -0.00110858 0.0258975)
(0.000247072 -0.00230505 0.0428238)
(0.00209535 -3.03229e-05 0.0351438)
(0.000543714 -0.00140577 0.0298736)
(0.000452583 -0.00158814 0.0290873)
(0.00173314 -0.00197604 0.0431446)
(0.000675881 -0.000589678 0.0348944)
(-0.000300082 -0.000120529 0.0362976)
(-0.00114377 -0.000127706 0.0560007)
(-0.000144311 -0.00119203 0.0413098)
(0.000970359 -0.00172127 0.0299796)
(0.000207033 -0.000569417 0.0246097)
(-0.000774699 -0.0034644 0.0257818)
(-0.000273747 -0.00538315 0.0290919)
(1.9366e-05 -0.00388119 0.0293088)
(-0.000762878 -0.00246735 0.0255989)
(0.000312334 -0.0036016 0.0242052)
(0.00014773 -0.000167486 0.0244065)
(0.00249548 -0.00113412 0.0406493)
(-0.00126276 -0.000571261 0.0226664)
(-0.00478808 -0.0016034 0.0293005)
(0.000478792 -0.00186619 0.0261048)
(0.00117191 -0.00394953 0.0318929)
(6.38002e-05 -0.00218458 0.0226114)
(0.0018862 -0.0022585 0.027343)
(0.00165358 -0.000228674 0.0258708)
(0.00172397 0.00411683 0.0345383)
(-0.000532301 -7.9106e-05 0.0202701)
(-0.00279609 0.0026927 0.0264953)
(-0.00309432 0.00276359 0.0334311)
(-0.00053124 9.56694e-05 0.0238437)
(-0.000333243 -0.00132295 0.0401685)
(0.00211913 0.000937792 0.0257798)
(0.00379205 0.000556773 0.0237357)
(0.00101106 -3.32663e-05 0.0179529)
(-0.00337603 0.000900569 0.0323667)
(-0.00300617 -0.000662444 0.0291392)
(-0.00425319 0.00242232 0.0376137)
(-0.00113195 0.0013759 0.0217793)
(0.000750801 0.0014017 0.0277777)
(0.00157345 0.00206189 0.0227642)
(0.00266934 0.00496911 0.0355206)
(0.00402374 -0.00292539 0.0348175)
(-0.00114102 0.000387965 0.023816)
(-0.00223751 -0.000360845 0.0255942)
(0.000303782 0.0014805 0.0281506)
(-0.000714167 0.00171977 0.0278119)
(0.000468693 0.00495879 0.0382514)
(0.00390823 0.00281948 0.0287142)
(0.00109729 0.00182685 0.0219078)
(0.00108778 0.00107223 0.0317222)
(-0.00091355 0.000234089 0.0227571)
(-0.00118226 0.000509538 0.0214588)
(-0.000291365 0.000654155 0.0210924)
(-0.000539059 0.00238949 0.0315285)
(0.00154843 0.00310641 0.0273607)
(0.00257708 0.00370266 0.0309441)
(0.002033 -0.000662249 0.0332278)
(0.0016732 -0.000572959 0.0405001)
(-0.00167922 -0.000505095 0.0222829)
(-0.00261683 0.000610179 0.0352336)
(0.001509 0.00233538 0.0289868)
(0.00102109 0.000996302 0.0253822)
(0.000677952 0.00186117 0.0251357)
(0.000162654 0.00157932 0.0261562)
(-0.000543475 2.49892e-05 0.0300739)
(0.00105368 -0.00383029 0.0283016)
(-4.50267e-05 -0.00270432 0.0240425)
(0.000859293 -0.000550035 0.0224875)
(0.000260264 -9.39389e-05 0.0167559)
(-0.00169604 0.0011682 0.045174)
(0.00195585 -0.000127433 0.0307048)
(-0.000421657 -0.00206163 0.0234775)
(0.000106222 -0.000665348 0.0219925)
(0.000773905 -2.93204e-05 0.0249877)
(0.000390534 -0.00069453 0.0194773)
(0.000527006 0.000660948 0.0231732)
(0.000677676 -0.000191197 0.0242859)
(0.000479144 0.0008964 0.0257394)
(0.00109841 6.72122e-05 0.0229479)
(-0.000715318 -0.000285255 0.0199222)
(-0.00197713 0.000605465 0.0228128)
(-0.000187452 -1.58738e-05 0.0206443)
(0.000273111 7.22878e-05 0.0237452)
(-4.38797e-05 2.58642e-05 0.0212276)
(0.000385338 0.00027543 0.0268984)
(0.000264275 0.0005663 0.0189716)
(1.1851e-05 8.29036e-05 0.0178835)
(-0.00032705 0.000632341 0.0203212)
(-0.000898746 0.000248824 0.0244707)
(-3.43785e-05 -0.000723044 0.0248044)
(0.000133131 -0.000143107 0.0186591)
(-0.000199266 -0.000362236 0.0214044)
(-4.9404e-05 -1.66558e-05 0.0228146)
(-0.000358655 0.000647158 0.0236698)
(0.000960465 -0.00110183 0.0280931)
(0.000202142 0.000629715 0.0182292)
(-0.00147529 0.000605783 0.0203411)
(-0.00109456 -1.67737e-05 0.0178719)
(0.000137537 -0.000504477 0.0235812)
(7.17446e-06 -0.000420952 0.0242248)
(0.000826092 -5.62494e-05 0.0258437)
(-0.000375557 -0.000153977 0.015551)
(-2.2191e-05 0.000191918 0.0263419)
(-0.000213373 -0.000205258 0.0178364)
(-0.00217717 0.000151238 0.0326783)
(-0.000902451 0.00070352 0.0232371)
(-0.000321888 0.000619884 0.0207904)
(5.23652e-05 4.43697e-05 0.0295361)
(-0.000376654 0.000305624 0.0230812)
(-3.8461e-05 -0.00134373 0.0320538)
(-2.06674e-05 0.000594734 0.0223627)
(-0.000842354 -0.00115122 0.024313)
(-0.000668847 0.00108161 0.0183775)
(-0.000682655 -0.000420837 0.0181425)
(-0.000330913 6.07802e-05 0.017453)
(4.20273e-05 0.000393017 0.0229694)
(-0.000650453 -0.000260346 0.0199961)
(-0.000327385 0.000543055 0.0240446)
(-0.000128543 -4.34199e-05 0.0196187)
(-0.000934746 0.000326148 0.0243726)
(-0.000402141 0.000533433 0.0234032)
(-0.00269195 -0.0020544 0.0418809)
(0.000699464 -0.000457493 0.0189784)
(-8.88603e-05 0.000513385 0.0217195)
(-0.000339674 -0.00033387 0.0234032)
(-0.000354417 -0.000527213 0.0229637)
(0.000267124 -0.00100415 0.0229156)
(0.000105545 0.000633134 0.0183684)
(-0.000241648 0.000544231 0.0221934)
(-0.000740302 0.000293537 0.0237037)
(0.00148054 -0.000533412 0.0190802)
(-0.000495558 9.36732e-06 0.0168208)
(-0.000692648 0.0006443 0.0155416)
(-0.000469446 -0.000807634 0.0234749)
(-0.000684935 0.000106317 0.0234511)
(0.000707247 -0.000879833 0.0221708)
(0.000274794 0.000520379 0.0173172)
(-0.00117395 -0.00153464 0.0307645)
(-0.00109943 -0.00133511 0.0264344)
(-0.000849098 -0.00168315 0.0260385)
(-0.0010004 -0.00229848 0.0265305)
(-0.000885673 -0.00281594 0.026215)
(-0.000381859 -0.00372723 0.0178537)
(0.000966881 -0.00419945 0.0148331)
(0.00235144 -0.00303312 0.0264481)
(-0.00161346 -0.00119828 0.0219424)
(-0.00151255 -0.00112286 0.0255987)
(-0.00154037 -0.00149507 0.0108612)
(-0.00184022 -0.00214014 0.0194938)
(-0.00189002 -0.00281715 0.00160414)
(-0.00117785 -0.00377115 -0.00364461)
(0.00138956 -0.00559061 0.000139401)
(0.00320002 -0.00310265 0.0228053)
(-0.00160197 -0.000905208 0.0260866)
(-0.00166549 -0.000724853 0.0180273)
(-0.00207889 -0.000994635 0.013181)
(-0.00252541 -0.0013026 0.014675)
(-0.00253799 -0.00150653 0.00957425)
(-0.00290277 -0.000660245 0.0189631)
(0.00128908 -0.00261332 -0.0305517)
(0.00523091 -0.00116935 0.00957736)
(-0.0016857 -0.000223987 0.0276759)
(-0.00183484 -0.00027828 0.0261271)
(-0.00231547 -0.000365851 0.0228429)
(-0.00255793 5.70854e-05 0.0185722)
(-0.000724457 0.00049506 -0.010573)
(-0.000407398 0.000181178 0.0129478)
(0.000487384 0.00266569 -0.0199798)
(0.0048071 0.00114002 0.0263152)
(-0.00187496 0.000322265 0.0240053)
(-0.00192476 0.000254714 0.0236039)
(-0.00186815 0.000341837 0.0278423)
(-0.00168857 0.00105666 0.0190573)
(-0.000807236 0.00183575 0.0275217)
(-0.000258771 0.00168721 0.0161042)
(0.000663937 0.00440875 0.0188854)
(0.00232652 0.00202859 0.0292256)
(-0.00205377 -0.000132187 0.0206025)
(-0.00181895 0.000304642 0.0183457)
(-0.00156215 0.000497693 0.0191295)
(-0.00111221 0.000905666 0.0124524)
(-0.000395115 0.00167655 0.0181795)
(-1.55806e-06 0.00195879 0.0125522)
(0.000304482 0.00249464 0.0248392)
(0.00117295 0.00167068 0.0309065)
(-0.00202266 0.000575717 0.0389144)
(-0.00110447 0.00080889 0.0250334)
(-0.00133598 0.000800229 0.01254)
(-0.00063277 0.000813405 0.0201566)
(-5.82961e-06 0.00123188 0.0240166)
(0.000116075 0.00146059 0.0262534)
(0.000333436 0.00159548 0.0233447)
(0.000838339 0.00160163 0.0277093)
(-0.00156181 0.0015467 0.0269509)
(-0.00162489 0.00125412 0.0228096)
(-0.00171097 0.00126806 0.00761953)
(-0.000730334 0.00134918 0.0209375)
(0.000141343 0.00117553 0.0252464)
(5.43675e-05 0.00142798 0.0304782)
(0.000420031 0.00157029 0.032953)
(0.00097296 0.00170807 0.0252057)
(0.000749921 0.000908622 0.0147214)
(0.000883689 0.000936869 0.0142323)
(0.000766213 0.00109085 0.0140621)
(0.000667838 0.000978373 0.0145227)
(0.000994156 0.00230769 0.014461)
(0.000646738 0.00234526 0.0128622)
(-0.000718395 0.00289744 0.0125996)
(-0.000954705 0.00112315 0.0137214)
(-6.74703e-05 0.00091775 0.0133469)
(0.000783691 0.00091659 0.0136974)
(0.000944439 0.00100325 0.0123706)
(0.00134324 0.00107967 0.0136057)
(0.00153433 0.00157411 0.0116944)
(0.000743669 0.00104686 0.0109203)
(-0.00160152 0.00314208 0.0113111)
(-0.00293436 0.00104062 0.0139112)
(-0.000157491 8.98024e-05 0.0134363)
(0.000741162 5.73133e-05 0.0129789)
(0.000840819 -0.000104996 0.0124233)
(0.00118535 0.000367011 0.012971)
(0.000916976 0.000754285 0.0123732)
(0.00221069 -0.000474033 0.0131937)
(-0.000769333 0.00066416 0.0106098)
(-0.00443947 -0.000218382 0.013212)
(-0.000633755 -0.000155925 0.0136389)
(0.000452637 -0.000207726 0.0139293)
(0.00111118 -0.000724966 0.0136189)
(0.00210957 -0.000667371 0.0131285)
(0.000712329 -0.00138065 0.0110106)
(0.000781548 -0.00150701 0.0116651)
(-0.00137881 -0.00343371 0.011707)
(-0.00362677 -0.0018256 0.0150567)
(-0.000348679 -0.000312746 0.0131982)
(0.000116693 2.82377e-05 0.01322)
(0.00028634 -0.000214821 0.014045)
(0.000459386 -0.000792003 0.0134656)
(0.00013469 -0.00237715 0.0144951)
(0.000148712 -0.00184267 0.0132604)
(-0.00122014 -0.00354437 0.0141371)
(-0.00177906 -0.00168271 0.0153631)
(1.20097e-08 -0.00121455 0.0134101)
(0.000546665 -0.000588353 0.0127581)
(0.000271331 3.98134e-05 0.0128419)
(-0.000142174 -0.000498804 0.0123687)
(-0.000466065 -0.00106379 0.0133373)
(-0.000727357 -0.00140526 0.0128656)
(-0.00134759 -0.00179751 0.0144517)
(-0.00100057 -0.000896297 0.0152906)
(4.74978e-05 -0.000441497 0.0162385)
(0.00137112 -0.00046029 0.0139004)
(0.000371055 -0.00012448 0.0121165)
(-0.000700139 -0.000649226 0.0130908)
(-0.000870443 -0.00113788 0.0140058)
(-0.000751384 -0.00141312 0.0142999)
(-0.000781762 -0.00130065 0.0143166)
(-0.000516713 -0.000495639 0.0144299)
(0.000208366 0.000614448 0.013863)
(0.000847335 -0.000470058 0.0131377)
(1.06568e-05 -0.000604319 0.0115234)
(-0.00123841 -0.000349257 0.0130907)
(-0.00130364 -0.00080064 0.0142956)
(-0.000955245 -0.000641444 0.0150373)
(-0.000390867 -0.000805247 0.0155256)
(9.65628e-05 -0.000693016 0.0140651)
(0.000243481 0.000552494 0.0182862)
(0.000466598 0.000660486 0.0177877)
(0.00049419 0.00080772 0.0173221)
(0.000462223 0.000834202 0.017135)
(0.000586101 0.00137773 0.0167561)
(0.000386429 0.00133456 0.0159754)
(-0.00028173 0.00142764 0.015911)
(-0.000512799 0.000495482 0.0167665)
(-4.6808e-06 0.000567946 0.0172693)
(0.000475807 0.000641561 0.017028)
(0.000590547 0.000717675 0.0163287)
(0.000730451 0.000786553 0.0161338)
(0.000744992 0.000973834 0.0150425)
(0.000304878 0.000687253 0.0143768)
(-0.00077604 0.00115762 0.0142217)
(-0.0014202 0.000334685 0.0161595)
(5.56152e-05 0.000130376 0.0169543)
(0.00049948 0.000155547 0.0165871)
(0.00058292 0.000112034 0.0159942)
(0.000689486 0.000288012 0.0156347)
(0.000466741 0.000344069 0.0147386)
(0.000568944 -0.000129655 0.0145162)
(-0.000626858 5.10296e-05 0.0126995)
(-0.00200439 -0.000297981 0.0155179)
(-8.90512e-05 -9.25494e-05 0.0169509)
(0.000403163 -9.89375e-05 0.0167757)
(0.000670647 -0.000305486 0.0162348)
(0.00091971 -0.000357309 0.0154372)
(0.000303925 -0.000711514 0.0140746)
(1.40001e-05 -0.000808514 0.0145115)
(-0.000946733 -0.00144801 0.0135164)
(-0.00182735 -0.00104201 0.0162259)
(2.41966e-05 -0.000236631 0.0169853)
(0.000262574 -0.000113967 0.016638)
(0.000288973 -0.000247121 0.0165496)
(0.000239095 -0.000553853 0.0160851)
(-1.5038e-05 -0.00122565 0.0159777)
(-0.000208251 -0.00117012 0.015792)
(-0.000883794 -0.00173905 0.015837)
(-0.00115373 -0.00106561 0.0171477)
(0.000119486 -0.000560759 0.0172792)
(0.00038019 -0.000392642 0.0166315)
(0.000208838 -0.000214755 0.0162663)
(-9.77022e-05 -0.00049756 0.0160087)
(-0.000357294 -0.000835062 0.0162474)
(-0.000559794 -0.00103465 0.016341)
(-0.000879647 -0.00116956 0.0169044)
(-0.00076947 -0.000731754 0.0176748)
(3.92963e-05 -0.000184493 0.0183325)
(0.000590402 -0.000321326 0.0172388)
(0.000162198 -0.000282081 0.0163503)
(-0.000414593 -0.000575578 0.0164586)
(-0.000594095 -0.000862433 0.0169301)
(-0.000587295 -0.000998374 0.0172546)
(-0.000599135 -0.000917433 0.017555)
(-0.000451359 -0.000511558 0.0178495)
(-0.000103224 0.00030568 0.0177199)
(0.000263739 -0.000251129 0.0171378)
(-7.82727e-05 -0.000428184 0.016379)
(-0.000709492 -0.000434187 0.0166954)
(-0.000811241 -0.00066274 0.0174484)
(-0.00063531 -0.000615706 0.0179581)
(-0.000363156 -0.00061147 0.0183387)
(-5.74414e-05 -0.000491594 0.0181632)
(0.00025737 0.000484069 0.0167968)
(0.000358662 0.000486249 0.0166208)
(0.000360226 0.000521486 0.0163983)
(0.000308079 0.000545197 0.0162619)
(0.000283751 0.000710602 0.0160754)
(0.00012876 0.000691929 0.0157843)
(-0.000184008 0.000689754 0.0157467)
(-0.000352459 0.000354041 0.0160474)
(0.000133658 0.000434444 0.0163466)
(0.000329412 0.000441751 0.0162309)
(0.000377033 0.000457386 0.0159413)
(0.000381431 0.0004775 0.0157821)
(0.000312325 0.00052365 0.0153807)
(7.02123e-05 0.00042128 0.0151532)
(-0.000371681 0.0004558 0.0151268)
(-0.000638061 0.000174628 0.0158342)
(0.000155904 0.00017829 0.0161849)
(0.000329854 0.000184576 0.0160167)
(0.000369456 0.000164882 0.0157432)
(0.000361873 0.000188473 0.0155359)
(0.000216939 0.000158178 0.0151859)
(5.53808e-05 5.94401e-06 0.0151276)
(-0.000416811 -3.75161e-05 0.0147406)
(-0.000832324 -0.000172192 0.0156798)
(0.000118029 -1.36158e-05 0.0161736)
(0.000293268 -2.14788e-05 0.0160449)
(0.000360399 -0.000100133 0.0157831)
(0.000356413 -0.000165595 0.0154538)
(0.000117358 -0.000325475 0.0150188)
(-0.000130595 -0.000420631 0.0151613)
(-0.00054501 -0.000604229 0.0150039)
(-0.000822175 -0.00053233 0.0159503)
(0.000143026 -0.000152554 0.0162345)
(0.000233015 -0.000135061 0.0160466)
(0.000210001 -0.000204938 0.0159196)
(0.000116963 -0.000349628 0.0157316)
(-5.46598e-05 -0.00059793 0.0156736)
(-0.000237659 -0.000675428 0.015684)
(-0.000535389 -0.000818554 0.0157957)
(-0.000652462 -0.000650148 0.0163715)
(0.000146952 -0.00029092 0.0163648)
(0.000234753 -0.000271843 0.0160895)
(0.000135101 -0.000265714 0.015895)
(-5.00878e-05 -0.000397743 0.0157915)
(-0.000225596 -0.000568062 0.0158907)
(-0.000373523 -0.000677596 0.0160049)
(-0.000536699 -0.000732439 0.0162715)
(-0.000526608 -0.000595041 0.016649)
(0.000104465 -0.000194579 0.0166946)
(0.000250683 -0.000267421 0.016329)
(7.29421e-05 -0.000303344 0.0160052)
(-0.000200419 -0.000434363 0.0160262)
(-0.00035222 -0.000578377 0.0162367)
(-0.000417763 -0.000656128 0.0164267)
(-0.00046236 -0.000651758 0.0166284)
(-0.000415251 -0.000536074 0.0168183)
(3.21256e-05 -6.31368e-05 0.0164747)
(0.000117797 -0.000235899 0.0163084)
(-4.45833e-05 -0.00031728 0.0160609)
(-0.00033819 -0.000365337 0.0161838)
(-0.00046089 -0.000474955 0.016518)
(-0.000454239 -0.000491647 0.0167663)
(-0.000404729 -0.000503159 0.0169681)
(-0.000296994 -0.000503712 0.0169955)
(0.000148017 0.000299412 0.0166915)
(0.000204623 0.000306377 0.0165749)
(0.000212224 0.00032234 0.016439)
(0.000179303 0.000335972 0.016337)
(0.00013704 0.000374829 0.0162439)
(4.51652e-05 0.000355678 0.0161455)
(-9.11929e-05 0.000324183 0.0161536)
(-0.000176204 0.000176167 0.0162822)
(0.000112873 0.000263936 0.0164473)
(0.000195643 0.000270241 0.0163612)
(0.000215638 0.000274585 0.0162162)
(0.000194457 0.000276178 0.0161058)
(0.000130236 0.000274885 0.0159612)
(7.159e-07 0.000224952 0.0158865)
(-0.000183764 0.000185384 0.0159114)
(-0.000293419 6.02395e-05 0.0161627)
(0.00013241 0.000129444 0.0163343)
(0.000197849 0.000133742 0.0162367)
(0.000208173 0.000122969 0.0160945)
(0.000176724 0.00011158 0.0159738)
(8.51781e-05 7.59132e-05 0.0158424)
(-4.46092e-05 7.54648e-06 0.0158188)
(-0.000246272 -4.74565e-05 0.0157974)
(-0.000386281 -0.000121078 0.0161185)
(0.000125403 9.31792e-06 0.0163077)
(0.000181432 8.18698e-07 0.0162161)
(0.000186052 -3.57784e-05 0.0160805)
(0.000141486 -8.27708e-05 0.0159425)
(2.2715e-05 -0.000160509 0.0158141)
(-0.000123847 -0.000226381 0.0158455)
(-0.000308501 -0.00029517 0.0158924)
(-0.000411769 -0.000299923 0.0162237)
(0.000124402 -8.07628e-05 0.0163436)
(0.000149199 -9.40111e-05 0.016238)
(0.000118909 -0.000137518 0.0161406)
(4.40134e-05 -0.000211674 0.0160533)
(-6.57311e-05 -0.000315494 0.0160275)
(-0.000185916 -0.000378109 0.0160626)
(-0.000323097 -0.000427111 0.0161671)
(-0.000377421 -0.000390224 0.016415)
(0.00010193 -0.000143031 0.0164138)
(0.000122491 -0.000166915 0.0162884)
(6.41709e-05 -0.00019866 0.0161835)
(-4.23178e-05 -0.000269837 0.0161333)
(-0.000151771 -0.000356687 0.0161716)
(-0.000247529 -0.000415796 0.0162497)
(-0.000330654 -0.000439954 0.0163932)
(-0.000339429 -0.000397611 0.0165856)
(6.1923e-05 -0.000120277 0.0165381)
(9.12422e-05 -0.000176782 0.0164011)
(1.17757e-05 -0.000223456 0.0162758)
(-0.000119942 -0.000292951 0.0162698)
(-0.000219016 -0.000367507 0.0163582)
(-0.000277837 -0.000408436 0.0164674)
(-0.000312152 -0.000412481 0.0166003)
(-0.000295557 -0.000373621 0.0167395)
(1.11731e-06 -7.94465e-05 0.0165139)
(1.78579e-05 -0.000162542 0.0164363)
(-5.59377e-05 -0.00021825 0.0163448)
(-0.000191354 -0.000262839 0.0163804)
(-0.00027227 -0.000318293 0.0165195)
(-0.000295737 -0.000335342 0.0166516)
(-0.000291282 -0.00033614 0.0167875)
(-0.000242867 -0.000332609 0.0168931)
(8.57489e-05 0.000180648 0.0165867)
(0.000114067 0.000183294 0.016528)
(0.000116694 0.000187603 0.0164577)
(9.53016e-05 0.00018998 0.0163987)
(6.33981e-05 0.000194857 0.0163508)
(1.13272e-05 0.000176928 0.0163131)
(-5.11141e-05 0.000150318 0.0163207)
(-9.24391e-05 8.3042e-05 0.0163693)
(7.49312e-05 0.000155263 0.0164676)
(0.00010925 0.000156793 0.0164183)
(0.000113863 0.000154946 0.016347)
(9.22705e-05 0.000149034 0.0162847)
(4.90529e-05 0.000137821 0.0162251)
(-1.89108e-05 0.000107945 0.0161983)
(-9.88539e-05 7.37315e-05 0.0162202)
(-0.000145442 1.39011e-05 0.0163151)
(8.41692e-05 8.40821e-05 0.0164053)
(0.000108154 8.34438e-05 0.0163507)
(0.000105419 7.41786e-05 0.0162793)
(7.63795e-05 5.91398e-05 0.0162163)
(2.1317e-05 3.34017e-05 0.0161625)
(-5.2887e-05 -4.18194e-06 0.0161543)
(-0.000140876 -4.12858e-05 0.0161817)
(-0.000193738 -8.32963e-05 0.016307)
(8.10224e-05 1.38506e-05 0.0163855)
(9.74251e-05 5.17183e-06 0.0163309)
(8.7365e-05 -1.56529e-05 0.0162631)
(4.97923e-05 -4.48947e-05 0.0162022)
(-1.53819e-05 -8.52793e-05 0.0161598)
(-9.37063e-05 -0.000124506 0.0161732)
(-0.000176008 -0.000159712 0.0162245)
(-0.000217504 -0.000176311 0.01636)
(7.45111e-05 -4.12447e-05 0.0164016)
(7.78618e-05 -5.6914e-05 0.0163455)
(5.38609e-05 -8.4025e-05 0.0162909)
(4.83395e-06 -0.00012321 0.0162512)
(-6.02718e-05 -0.000171586 0.016243)
(-0.000128973 -0.000208941 0.0162717)
(-0.000193221 -0.000234982 0.0163392)
(-0.000217465 -0.000233224 0.0164581)
(5.45267e-05 -7.63217e-05 0.016434)