/*--------------------------------*- C++ -*----------------------------------*\
| =========                 |                                                 |
| \\      /  F ield         | OpenFOAM: The Open Source CFD Toolbox           |
|  \\    /   O peration     | Version:  2506                                  |
|   \\  /    A nd           | Website:  www.openfoam.com                      |
|    \\/     M anipulation  |                                                 |
\*---------------------------------------------------------------------------*/
FoamFile
{
    version     2.0;
    format      ascii;
    arch        "LSB;label=32;scalar=64";
    class       volScalarField;
    location    "0.05";
    object      Ksl;
}
// * * * * * * * * * * * * * * * * * * * * * * * * * * * * * * * * * * * * * //

dimensions      [1 -3 -1 0 0 0 0];

internalField   nonuniform List<scalar> 
1152
(
51593.7
109094
101105
123088
121749
73779.9
183350
126104
96845.9
113347
123458
77766.7
236030
82741.7
61781.2
72094.3
323924
289702
241825
288113
212591
330094
266092
183132
188822
179146
222549
239364
249625
725684
4.83162e+07
193185
103529
338280
188342
1.78877e+06
435622
243763
164679
173880
282321
220332
237553
324448
163305
162239
131971
9.48997e+06
1.0829e+06
170358
468486
249148
263295
452282
146455
215630
158417
341350
266128
307210
6.50872e+06
197195
218838
350292
153384
272085
167207
235423
175026
313795
293522
212549
1.53357e+06
142019
446950
168102
124031
9.06675e+06
107471
216645
1.77385e+06
164155
281445
137527
116757
494056
177548
537498
270282
170517
210511
322784
321035
223734
259299
155704
43238.9
37428.8
97271.1
38075.1
52924.9
117060
62481.1
129855
137373
33358
121548
53749.9
98695.5
92221.6
16379.7
36948.1
0
0
0
0
0
0
0
0
0
0
0
0
233.926
0
0
0
0
0
0
0
0
0
0
0
0
0
0
0
0
0
0
0
0
0
0
0
0
0
0
0
0
0
0
0
0
0
0
0
0
0
0
0
0
0
0
0
0
0
0
0
0
0
0
0
0
0
0
0
0
0
0
0
0
0
0
0
0
0
0
0
0
0
0
0
0
0
0
0
0
0
0
0
0
0
0
0
0
0
0
0
0
0
0
0
0
0
0
0
0
0
0
0
0
0
0
0
0
0
0
0
0
0
0
0
0
0
0
0
0
0
0
0
0
0
0
0
0
0
0
0
0
0
0
0
0
0
0
0
0
0
0
0
0
0
0
0
0
0
0
0
0
0
0
0
0
0
0
0
0
0
0
0
0
0
0
0
0
0
0
0
0
0
0
0
0
0
0
0
0
0
0
0
0
0
0
0
0
0
0
0
0
0
0
0
0
0
0
0
0
0
0
0
0
0
0
0
0
0
0
0
0
0
0
0
0
0
0
0
0
0
0
0
0
0
0
0
0
0
0
0
0
0
0
0
0
0
0
0
0
0
0
0
0
0
0
0
0
0
0
0
0
0
0
0
0
0
0
0
0
0
0
0
72543.1
165958
169153
110417
134159
84024
63605.7
102316
108982
191078
88085
81641.5
95455.1
95685.6
105503
282830
245577
176740
222498
152766
270587
201534
263704
272253
180171
247321
179909
231300
175650
445023
267595
200186
311341
210715
236901
194156
255707
220260
187188
166764
218837
244062
199606
532406
8.23042e+06
151374
1.32709e+06
139605
831012
190078
265009
136579
549052
210915
194838
446874
164497
239446
220898
267918
284277
822387
153227
222603
258479
182180
162281
161000
201000
234214
296693
308299
165327
451772
158303
234068
328529
140221
700632
133824
6.00349e+07
140490
320567
189132
126449
201307
170738
156437
383776
151130
218503
227545
245979
448834
194760
265219
91500.6
85647.3
82131.9
47319.5
39957
43621.9
151940
164973
33762.9
43546.5
49007.4
33545.7
25111.1
43844.7
43721.3
63889.8
0
0
0
0
0
0
0
0
0
0
0
0
0
0
0
0
0
0
0
0
0
0
0
0
0
0
0
0
0
0
0
0
0
0
0
0
0
0
0
0
0
0
0
0
0
0
0
0
0
0
0
0
0
0
0
0
0
0
0
0
0
0
0
0
0
0
0
0
0
0
0
0
0
0
0
0
0
0
0
0
0
0
0
0
0
0
0
0
0
0
0
0
0
0
0
0
0
0
0
0
0
0
0
0
0
0
0
0
0
0
0
0
0
0
0
0
0
0
0
0
0
0
0
0
0
0
0
0
0
0
0
0
0
0
0
0
0
0
0
0
0
0
0
0
0
0
0
0
0
0
0
0
0
0
0
0
0
0
0
0
0
0
0
0
0
0
0
0
0
0
0
0
0
0
0
0
0
0
0
0
0
0
0
0
0
0
0
0
0
0
0
0
0
0
0
0
0
0
0
0
0
0
0
0
0
0
0
0
0
0
0
0
0
0
0
0
0
0
0
0
0
0
0
0
0
0
0
0
0
0
0
0
0
0
0
0
0
0
0
0
0
0
0
0
0
0
0
0
0
0
0
0
0
0
0
0
0
0
0
0
0
0
0
0
0
0
0
0
0
0
0
0
78848.8
93911.3
119058
68214.6
85566.9
163960
654561
128980
148737
115463
83969.8
122942
211737
92018.3
85560.6
95785.8
1.05774e+06
145040
322871
299676
284795
281315
139491
125291
335652
123767
233870
200986
260526
1.35658e+06
190948
393673
122760
199856
466874
177898
234394
168150
493310
216157
201461
404442
138501
216873
149670
177730
217976
102241
474019
188585
578529
187365
383695
417669
125789
250511
254681
198771
1.13462e+07
171291
222108
355709
2.32162e+06
1.65721e+07
347855
151036
450202
299258
178854
223693
229933
149413
256866
252338
107961
291716
258183
180721
156046
98375.8
2.67626e+06
187503
1.90882e+06
99075.9
170852
254722
105680
558914
176861
287432
246587
190653
281347
179484
336125
228726
64408.9
62132.9
62216
47737
45563.6
98171.5
53935.9
19631.9
87608
36026.3
21143.1
50674.4
55606.1
44707.1
16342.3
17720.7
0
0
0
0
0
0
0
0
0
0
0
0
0
0
0
0
0
0
0
0
0
0
0
0
0
0
0
0
0
0
0
0
0
0
0
0
0
0
0
0
0
0
0
0
0
0
0
0
0
0
0
0
0
0
0
0
0
0
0
0
0
0
0
0
0
0
0
0
0
0
0
0
0
0
0
0
0
0
0
0
0
0
0
0
0
0
0
0
0
0
0
0
0
0
0
0
0
0
0
0
0
0
0
0
0
0
0
0
0
0
0
0
0
0
0
0
0
0
0
0
0
0
0
0
0
0
0
0
0
0
0
0
0
0
0
0
0
0
0
0
0
0
0
0
0
0
0
0
0
0
0
0
0
0
0
0
0
0
0
0
0
0
0
0
0
0
0
0
0
0
0
0
0
0
0
0
0
0
0
0
0
0
0
0
0
0
0
0
0
0
0
0
0
0
0
0
0
0
0
0
0
0
0
0
0
0
0
0
0
0
0
0
0
0
0
0
0
0
0
0
0
0
0
0
0
0
0
0
0
0
0
0
0
0
0
0
0
0
0
0
0
0
0
0
0
0
0
0
0
0
0
0
0
0
0
0
0
0
0
0
0
0
0
0
0
0
0
0
0
0
0
0
)
;

boundaryField
{
    inlet
    {
        type            zeroGradient;
    }
    outlet
    {
        type            zeroGradient;
    }
    wall
    {
        type            zeroGradient;
    }
    procBoundary1to0
    {
        type            processor;
        value           nonuniform List<scalar> 
192
(
410489
161272
99453.3
108801
882770
229207
1.43805e+06
229787
1.49465e+07
226790
123887
644122
157154
196962
8.32319e+06
114810
220952
363116
88785.9
3.99199e+06
164154
135448
236620
214952
74488.9
357438
32356.9
82259.6
0
0
0
0
0
0
0
0
0
0
0
0
0
0
0
0
0
0
0
0
0
0
0
0
0
0
0
0
0
0
0
0
0
0
0
0
0
0
0
0
0
0
0
0
0
0
0
0
0
0
0
0
0
0
0
0
0
0
0
0
0
0
0
0
0
0
0
0
248328
143753
82285.5
483928
159547
145697
302794
139779
204762
208605
367219
135697
131040
211579
181617
354868
162880
227639
385804
179885
108225
248326
149536
140628
78149.2
74723.9
27340.7
61226.1
0
0
0
0
0
0
0
0
0
0
0
0
0
0
0
0
0
0
0
0
0
0
0
0
0
0
0
0
0
0
0
0
0
0
0
0
0
0
0
0
0
0
0
0
0
0
0
0
0
0
0
0
0
0
0
0
0
0
0
0
0
0
0
0
0
0
0
0
)
;
    }
    procBoundary1to3
    {
        type            processor;
        value           nonuniform List<scalar> 
192
(
49342.2
176576
121087
397911
103369
309599
133548
228412
371268
259370
747384
104461
458170
333809
149100
424391
8.14443e+06
108760
3.78973e+06
234052
98313.4
211996
156996
199881
955170
82856.1
264909
63213.4
0
0
0
0
0
0
0
0
0
0
0
0
0
0
0
0
0
0
0
0
0
0
0
0
0
0
0
0
0
0
0
0
0
0
0
0
0
0
0
0
0
0
0
0
0
0
0
0
0
0
0
0
0
0
0
0
0
0
0
0
0
0
0
0
0
0
0
0
83188.2
76274.9
174071
117112
281188
293903
135467
138579
276894
639137
193687
145893
216199
180775
180257
179699
163693
279650
219952
224881
154762
256970
104570
179383
48492.1
42278.1
52625.8
101292
0
0
0
0
0
0
0
0
0
0
0
0
0
0
0
0
0
0
0
0
0
0
0
0
0
0
0
0
0
0
0
0
0
0
0
0
0
0
0
0
0
0
0
0
0
0
0
0
0
0
0
0
0
0
0
0
0
0
0
0
0
0
0
0
0
0
0
0
)
;
    }
}


// ************************************************************************* //
