/*--------------------------------*- C++ -*----------------------------------*\
| =========                 |                                                 |
| \\      /  F ield         | OpenFOAM: The Open Source CFD Toolbox           |
|  \\    /   O peration     | Version:  2506                                  |
|   \\  /    A nd           | Website:  www.openfoam.com                      |
|    \\/     M anipulation  |                                                 |
\*---------------------------------------------------------------------------*/
FoamFile
{
    version     2.0;
    format      ascii;
    arch        "LSB;label=32;scalar=64";
    class       volScalarField;
    location    "0.05";
    object      p;
}
// * * * * * * * * * * * * * * * * * * * * * * * * * * * * * * * * * * * * * //

dimensions      [0 2 -2 0 0 0 0];

internalField   nonuniform List<scalar> 
1152
(
15.3299
15.3982
15.37
15.3157
15.4197
15.3599
15.3806
15.2095
15.3504
15.2397
15.0384
15.0286
15.2597
15.0369
14.6193
14.8681
13.6854
13.7512
13.578
13.5538
13.7038
13.79
13.2781
13.304
13.648
13.6086
13.5234
13.5151
13.5132
13.6537
13.6592
13.1189
10.4846
10.3756
10.5099
10.3561
10.6267
10.6653
10.4877
10.4792
10.6414
10.9553
11.0909
10.6446
10.9445
11.0765
12.1275
11.0619
7.80162
7.43527
7.38867
7.24055
7.29516
7.56782
7.67498
7.51037
7.47872
7.41823
7.70282
7.26329
7.65637
7.60532
7.68973
7.38323
4.34521
4.36734
4.39717
4.26726
4.23802
4.40586
4.66342
4.53889
4.74679
4.36223
4.43281
4.38006
4.7601
4.69386
4.44639
4.21277
1.39698
1.42915
1.63389
1.51749
1.7263
1.58677
1.60384
1.66656
1.73091
1.57662
1.59259
1.53941
2.13691
1.79893
1.39453
1.43044
1.01891
1.01564
1.00764
1.01493
1.0197
1.00505
1.01204
1.00105
1.00341
1.0198
1.00822
1.00819
1.00593
1.00285
1.0212
1.0124
1.00373
1.00297
1.00143
0.999871
1.00314
1.00219
1.00138
0.99913
1.00262
1.00263
1.00101
0.99913
1.00303
1.00176
1.00258
0.999964
1.00877
1.00799
1.0065
1.00545
1.00838
1.00721
1.00624
1.00472
1.00788
1.00787
1.00605
1.00485
1.00772
1.00747
1.00693
1.0055
1.00615
1.00557
1.00462
1.00382
1.00597
1.00528
1.00448
1.00359
1.00588
1.00545
1.00445
1.00364
1.00593
1.00543
1.00481
1.00397
1.00601
1.00556
1.00499
1.00444
1.00593
1.00546
1.0049
1.00432
1.00593
1.0055
1.00491
1.00434
1.00599
1.00556
1.00507
1.00452
1.0055
1.00517
1.00479
1.00441
1.00547
1.00513
1.00475
1.00437
1.0055
1.00516
1.00478
1.00439
1.00555
1.00523
1.00487
1.0045
1.00507
1.00483
1.00457
1.00431
1.00507
1.00482
1.00456
1.0043
1.00509
1.00484
1.00458
1.00432
1.00514
1.0049
1.00465
1.00439
1.00465
1.00447
1.00429
1.00412
1.00465
1.00448
1.0043
1.00412
1.00468
1.0045
1.00432
1.00414
1.00471
1.00454
1.00436
1.00419
1.00422
1.0041
1.00397
1.00385
1.00423
1.00411
1.00398
1.00386
1.00425
1.00412
1.004
1.00387
1.00428
1.00416
1.00403
1.00391
1.00379
1.0037
1.00362
1.00353
1.0038
1.00371
1.00362
1.00354
1.00382
1.00373
1.00364
1.00355
1.00384
1.00375
1.00366
1.00357
1.00336
1.0033
1.00323
1.00318
1.00337
1.0033
1.00324
1.00318
1.00338
1.00331
1.00325
1.00319
1.0034
1.00333
1.00327
1.00321
1.00292
1.00287
1.00283
1.00279
1.00293
1.00288
1.00284
1.00279
1.00294
1.00289
1.00284
1.0028
1.00295
1.0029
1.00286
1.00281
1.00248
1.00244
1.00241
1.00239
1.00248
1.00245
1.00242
1.00239
1.00249
1.00246
1.00242
1.00239
1.0025
1.00247
1.00243
1.0024
1.00203
1.00201
1.00199
1.00197
1.00203
1.00201
1.00199
1.00197
1.00204
1.00202
1.00199
1.00197
1.00205
1.00202
1.002
1.00198
1.00158
1.00157
1.00155
1.00154
1.00158
1.00157
1.00155
1.00154
1.00159
1.00157
1.00156
1.00154
1.00159
1.00158
1.00156
1.00155
1.00113
1.00112
1.00111
1.0011
1.00113
1.00112
1.00111
1.0011
1.00114
1.00112
1.00112
1.00111
1.00114
1.00113
1.00112
1.00111
1.00068
1.00067
1.00067
1.00066
1.00068
1.00067
1.00067
1.00066
1.00068
1.00068
1.00067
1.00067
1.00068
1.00068
1.00067
1.00067
1.00023
1.00022
1.00022
1.00022
1.00023
1.00022
1.00022
1.00022
1.00023
1.00023
1.00022
1.00022
1.00023
1.00023
1.00022
1.00022
15.2907
15.3354
15.2762
15.0839
15.3576
15.2679
15.1867
15.1519
15.3261
15.4095
15.2327
15.1737
15.3261
15.3985
15.3427
15.2952
13.8846
13.368
13.3507
13.2397
13.5675
13.5576
13.6645
13.3258
13.5348
13.4352
13.5973
13.5218
13.6051
13.5469
13.6968
13.3205
10.7478
10.4248
10.3475
10.2428
10.572
10.4309
10.3392
10.349
10.2778
10.3776
10.3936
10.3895
10.4501
10.4149
10.2368
10.3449
7.02796
7.15711
7.19137
7.3635
7.06076
7.27729
7.36946
7.45773
7.18201
7.35371
7.28939
7.27144
7.30044
7.29724
7.32524
7.30901
3.6673
4.11552
4.4405
4.50126
3.8071
4.15335
4.39135
4.29414
4.29058
4.14068
4.37432
4.3289
4.23373
4.26938
4.44641
4.36943
1.241
1.63244
1.85434
1.67254
1.48003
1.49062
1.79982
1.71489
1.33051
1.41324
1.5816
1.50448
1.23032
1.4177
1.41938
1.5902
1.06908
1.00636
1.00707
1.01277
1.02597
1.01346
1.00381
1.00139
1.01447
1.01324
1.01459
1.01325
1.01319
1.01491
1.01294
1.00995
1.01038
1.00293
1.00125
0.999282
1.00672
1.0032
1.00135
0.999125
1.00517
1.0032
1.00168
0.999846
1.00447
1.00305
1.00176
0.999875
1.01183
1.0091
1.00701
1.00579
1.0105
1.0088
1.00666
1.00541
1.00949
1.00849
1.00696
1.00567
1.00894
1.0082
1.00679
1.00573
1.00726
1.00609
1.00474
1.00369
1.00696
1.00602
1.00472
1.0037
1.00659
1.00587
1.00476
1.00381
1.00632
1.00571
1.00472
1.00385
1.00651
1.00594
1.00513
1.00446
1.00638
1.00584
1.00506
1.00443
1.00623
1.00574
1.00507
1.00448
1.00611
1.00565
1.00506
1.00454
1.0057
1.00533
1.0048
1.00434
1.00566
1.0053
1.00479
1.00435
1.0056
1.00525
1.0048
1.00439
1.00555
1.00521
1.00481
1.00443
1.00515
1.00489
1.00456
1.00427
1.00513
1.00487
1.00456
1.00427
1.00511
1.00485
1.00456
1.0043
1.00509
1.00484
1.00458
1.00434
1.00467
1.00449
1.00427
1.00408
1.00467
1.00448
1.00427
1.00408
1.00466
1.00447
1.00428
1.0041
1.00465
1.00448
1.00429
1.00413
1.00422
1.00409
1.00395
1.00382
1.00422
1.00409
1.00395
1.00382
1.00422
1.00409
1.00396
1.00384
1.00422
1.00409
1.00397
1.00386
1.00378
1.00369
1.00359
1.0035
1.00378
1.00369
1.00359
1.00351
1.00378
1.00369
1.0036
1.00352
1.00379
1.0037
1.00361
1.00353
1.00335
1.00328
1.00321
1.00315
1.00335
1.00328
1.00321
1.00316
1.00335
1.00328
1.00322
1.00316
1.00335
1.00329
1.00323
1.00317
1.00291
1.00286
1.00281
1.00277
1.00291
1.00286
1.00281
1.00278
1.00291
1.00286
1.00282
1.00278
1.00291
1.00287
1.00283
1.00279
1.00247
1.00243
1.0024
1.00237
1.00247
1.00243
1.0024
1.00237
1.00247
1.00243
1.0024
1.00238
1.00247
1.00244
1.00241
1.00238
1.00202
1.002
1.00198
1.00196
1.00202
1.002
1.00198
1.00196
1.00202
1.002
1.00198
1.00196
1.00203
1.002
1.00198
1.00197
1.00157
1.00156
1.00154
1.00153
1.00157
1.00156
1.00154
1.00153
1.00158
1.00156
1.00155
1.00153
1.00158
1.00156
1.00155
1.00154
1.00113
1.00112
1.00111
1.0011
1.00113
1.00112
1.00111
1.0011
1.00113
1.00112
1.00111
1.0011
1.00113
1.00112
1.00111
1.0011
1.00068
1.00067
1.00067
1.00066
1.00068
1.00067
1.00067
1.00066
1.00068
1.00067
1.00067
1.00066
1.00068
1.00067
1.00067
1.00066
1.00023
1.00022
1.00022
1.00022
1.00023
1.00022
1.00022
1.00022
1.00023
1.00022
1.00022
1.00022
1.00023
1.00022
1.00022
1.00022
15.2004
15.1351
15.0887
14.9939
15.1932
15.21
15.0883
14.8581
15.1523
14.9468
14.8627
14.8642
15.1317
14.9971
14.8424
14.789
13.2526
13.284
13.3831
13.435
13.3488
13.0536
12.9786
13.01
13.1269
13.131
13.0238
12.9256
12.8337
13.1903
12.9974
12.4393
10.3553
10.3875
10.3897
10.2679
10.3847
10.332
10.1645
10.4396
10.3012
10.3772
9.98646
9.77944
10.2191
10.048
9.8826
9.37068
7.62552
7.35509
7.33928
7.39301
7.33689
7.30318
7.06889
7.07321
7.38391
7.21708
6.65671
7.07899
7.48386
7.20709
6.83742
7.23163
4.36399
4.35386
4.27803
3.98537
4.28621
4.30548
4.34164
4.39697
4.33111
4.46361
4.52724
4.58767
4.37026
4.298
4.46105
4.78351
1.34349
1.57392
1.38522
1.49959
1.5634
1.58872
1.53674
1.2591
1.58148
1.31815
1.35103
1.38126
1.44611
1.40441
1.15435
1.28867
1.00628
1.00464
1.0015
1.00706
1.00716
0.995654
1.00065
0.997733
0.999212
0.998128
0.995944
0.98522
1.00487
1.00062
0.987112
0.975226
0.997864
0.996949
0.996143
0.995741
0.996644
0.994231
0.992304
0.991431
0.995661
0.991947
0.988347
0.984923
0.996627
0.992687
0.988923
0.98629
1.00435
1.00384
1.00347
1.00345
1.00346
1.00231
1.00154
1.00104
1.00307
1.00148
1.00013
0.99893
1.00369
1.00192
1.00044
1.00011
1.00311
1.0028
1.00256
1.00239
1.00278
1.00217
1.00172
1.0014
1.00269
1.00186
1.0012
1.00066
1.003
1.00214
1.00148
1.00116
1.00406
1.00387
1.00373
1.00367
1.00383
1.00346
1.00319
1.00304
1.00376
1.00326
1.00288
1.00266
1.00393
1.0034
1.00301
1.00284
1.00414
1.00402
1.00392
1.00386
1.00404
1.00381
1.00364
1.00354
1.00402
1.00372
1.00349
1.00335
1.00413
1.00381
1.00357
1.00345
1.00415
1.00407
1.00401
1.00397
1.00409
1.00394
1.00383
1.00377
1.00408
1.00389
1.00374
1.00367
1.00415
1.00394
1.00379
1.00372
1.00401
1.00396
1.00392
1.00389
1.00398
1.00388
1.00381
1.00377
1.00398
1.00385
1.00376
1.00371
1.00402
1.00389
1.00379
1.00374
1.00378
1.00374
1.00372
1.0037
1.00376
1.00369
1.00365
1.00362
1.00376
1.00368
1.00362
1.00358
1.00379
1.0037
1.00364
1.0036
1.00348
1.00346
1.00344
1.00343
1.00347
1.00343
1.00339
1.00338
1.00348
1.00342
1.00338
1.00335
1.0035
1.00343
1.00339
1.00337
1.00314
1.00312
1.00311
1.0031
1.00313
1.0031
1.00308
1.00307
1.00314
1.0031
1.00307
1.00305
1.00315
1.00311
1.00308
1.00306
1.00277
1.00275
1.00274
1.00274
1.00276
1.00274
1.00273
1.00272
1.00277
1.00274
1.00272
1.00271
1.00278
1.00275
1.00273
1.00271
1.00237
1.00236
1.00235
1.00235
1.00237
1.00235
1.00234
1.00234
1.00237
1.00235
1.00234
1.00233
1.00238
1.00236
1.00234
1.00233
1.00196
1.00195
1.00194
1.00194
1.00195
1.00194
1.00194
1.00193
1.00196
1.00194
1.00193
1.00193
1.00196
1.00195
1.00194
1.00193
1.00153
1.00153
1.00152
1.00152
1.00153
1.00152
1.00152
1.00152
1.00153
1.00152
1.00152
1.00151
1.00154
1.00153
1.00152
1.00152
1.0011
1.0011
1.00109
1.00109
1.0011
1.00109
1.00109
1.00109
1.0011
1.00109
1.00109
1.00109
1.0011
1.0011
1.00109
1.00109
1.00066
1.00066
1.00066
1.00066
1.00066
1.00066
1.00066
1.00066
1.00066
1.00066
1.00066
1.00065
1.00066
1.00066
1.00066
1.00066
1.00022
1.00022
1.00022
1.00022
1.00022
1.00022
1.00022
1.00022
1.00022
1.00022
1.00022
1.00022
1.00022
1.00022
1.00022
1.00022
)
;

boundaryField
{
    inlet
    {
        type            zeroGradient;
    }
    outlet
    {
        type            fixedValue;
        value           uniform 1;
    }
    wall
    {
        type            zeroGradient;
    }
    procBoundary1to0
    {
        type            processor;
        value           nonuniform List<scalar> 
192
(
15.6286
15.6225
15.4689
15.4027
13.4792
13.4262
13.484
13.8156
10.1121
10.5751
10.5129
10.5328
7.64973
7.55844
7.31831
7.7608
4.39354
4.46486
4.72655
5.20495
1.72179
1.9004
1.7985
1.78661
1.01484
0.999853
1.02737
1.00828
1.00406
1.00348
1.00401
1.00326
1.00927
1.00858
1.0098
1.00881
1.00663
1.0064
1.00674
1.00654
1.0064
1.00632
1.00641
1.0064
1.0058
1.00578
1.00581
1.00585
1.00529
1.00529
1.00532
1.00536
1.00481
1.00482
1.00484
1.00488
1.00434
1.00435
1.00437
1.0044
1.00388
1.00389
1.00391
1.00393
1.00342
1.00343
1.00344
1.00346
1.00296
1.00297
1.00298
1.00299
1.00251
1.00251
1.00252
1.00253
1.00205
1.00206
1.00206
1.00207
1.0016
1.0016
1.0016
1.00161
1.00114
1.00114
1.00115
1.00115
1.00068
1.00069
1.00069
1.00069
1.00023
1.00023
1.00023
1.00023
15.4183
15.3166
15.309
15.4335
13.0795
13.2027
13.4816
13.154
10.0949
10.3823
10.2384
10.3925
7.13399
7.28944
7.34437
7.56156
4.25757
4.32468
4.23155
4.12806
1.84469
1.63665
1.34889
1.57428
1.02158
1.01097
1.01689
1.01344
1.00404
1.00455
1.00503
1.00429
1.01102
1.01011
1.00988
1.00942
1.00729
1.00712
1.00699
1.00675
1.00684
1.00671
1.00661
1.00648
1.00601
1.00597
1.00591
1.00584
1.0054
1.00537
1.00534
1.00531
1.00485
1.00484
1.00483
1.00481
1.00435
1.00435
1.00434
1.00434
1.00388
1.00388
1.00388
1.00387
1.00341
1.00341
1.00341
1.00342
1.00296
1.00296
1.00296
1.00296
1.0025
1.0025
1.0025
1.0025
1.00205
1.00205
1.00205
1.00205
1.00159
1.00159
1.00159
1.00159
1.00114
1.00114
1.00114
1.00114
1.00068
1.00068
1.00068
1.00068
1.00023
1.00023
1.00023
1.00023
)
;
    }
    procBoundary1to3
    {
        type            processor;
        value           nonuniform List<scalar> 
192
(
15.0309
15.1409
14.9172
15.1511
13.5972
13.3841
13.0583
12.7886
11.5453
10.9369
10.9406
10.595
7.89678
7.15509
7.51558
7.92377
3.96756
4.3851
4.4256
4.17656
2.14824
2.06822
1.79348
1.5238
0.995796
1.01088
0.998405
1.00964
1.00407
1.00276
1.00205
1.00065
1.00791
1.0077
1.00655
1.00583
1.00611
1.00563
1.00494
1.00423
1.00613
1.00573
1.00525
1.00473
1.00566
1.00535
1.00501
1.00466
1.00521
1.00499
1.00474
1.0045
1.00477
1.0046
1.00443
1.00426
1.00432
1.0042
1.00407
1.00396
1.00387
1.00378
1.00369
1.00361
1.00342
1.00335
1.00329
1.00323
1.00296
1.00292
1.00287
1.00283
1.00251
1.00248
1.00244
1.00241
1.00205
1.00203
1.00201
1.00199
1.0016
1.00158
1.00157
1.00155
1.00114
1.00113
1.00112
1.00111
1.00069
1.00068
1.00067
1.00067
1.00023
1.00023
1.00022
1.00022
15.0949
15.0195
14.889
14.7222
13.3482
13.3977
12.8396
12.6562
10.3103
9.97702
10.1156
9.95537
7.27506
7.19662
7.2272
7.34997
4.21162
4.37223
4.21075
4.60391
1.53688
1.40651
1.5566
1.66909
1.01118
1.00302
0.999028
0.97775
0.998227
0.995068
0.99169
0.988654
1.00457
1.003
1.00159
1.00035
1.00346
1.00266
1.00198
1.00143
1.00422
1.00374
1.00336
1.00314
1.00431
1.00402
1.0038
1.00366
1.00427
1.00408
1.00394
1.00386
1.0041
1.00398
1.00388
1.00383
1.00385
1.00376
1.0037
1.00367
1.00353
1.00347
1.00343
1.00341
1.00318
1.00314
1.00311
1.00309
1.00279
1.00276
1.00274
1.00273
1.00239
1.00237
1.00235
1.00235
1.00197
1.00196
1.00195
1.00194
1.00154
1.00153
1.00152
1.00152
1.0011
1.0011
1.00109
1.00109
1.00066
1.00066
1.00066
1.00066
1.00022
1.00022
1.00022
1.00022
)
;
    }
}


// ************************************************************************* //
