/*--------------------------------*- C++ -*----------------------------------*\
| =========                 |                                                 |
| \\      /  F ield         | OpenFOAM: The Open Source CFD Toolbox           |
|  \\    /   O peration     | Version:  2506                                  |
|   \\  /    A nd           | Website:  www.openfoam.com                      |
|    \\/     M anipulation  |                                                 |
\*---------------------------------------------------------------------------*/
FoamFile
{
    version     2.0;
    format      ascii;
    arch        "LSB;label=32;scalar=64";
    class       surfaceScalarField;
    location    "0.05";
    object      phi;
}
// * * * * * * * * * * * * * * * * * * * * * * * * * * * * * * * * * * * * * //

dimensions      [0 3 -1 0 0 0 0];

oriented        oriented;

internalField   nonuniform List<scalar> 
3120
(
-3.58554e-09
-6.00799e-09
6.12647e-08
-1.38584e-10
1.41083e-09
2.51863e-09
2.54501e-08
-3.70885e-10
2.16834e-09
2.51482e-10
3.03299e-08
3.65006e-10
3.9397e-09
2.25205e-08
4.92057e-11
8.40409e-09
2.96954e-09
3.2759e-09
2.67186e-08
-4.4606e-10
6.34454e-09
3.26831e-08
4.41841e-09
9.24361e-09
1.90158e-08
9.35571e-09
3.011e-08
1.8592e-09
4.72383e-09
3.207e-09
3.41347e-08
6.12387e-09
9.08574e-09
2.9181e-08
-5.66765e-10
2.65449e-08
2.17238e-08
1.04182e-08
3.5786e-08
-4.90907e-09
7.29529e-09
1.61656e-08
2.98461e-08
2.33663e-08
-1.87732e-08
1.25321e-07
4.71589e-08
-1.06299e-08
-1.12923e-09
2.32241e-10
5.92803e-08
1.26012e-09
1.945e-09
5.61987e-11
2.08463e-08
1.47333e-09
5.71546e-11
4.99164e-09
2.99683e-08
-2.74212e-09
4.87026e-09
1.24749e-08
3.55487e-09
1.67766e-09
-1.58212e-09
1.56742e-09
2.18799e-08
5.82153e-09
3.32122e-09
2.20144e-08
-4.5319e-10
-3.29269e-09
3.35748e-08
-3.45724e-09
3.8617e-08
-6.32662e-10
2.58768e-10
2.78158e-09
2.97346e-08
1.39816e-09
-7.14032e-10
3.20769e-08
9.38177e-11
-4.54235e-09
2.42777e-08
6.86952e-09
2.01696e-08
5.38341e-09
-1.5859e-09
2.87764e-08
-6.206e-09
2.54559e-08
-1.81548e-08
1.50136e-07
2.54018e-08
4.56417e-09
1.84211e-09
-2.91668e-09
4.59351e-08
-1.05069e-08
-2.72991e-09
-3.30864e-09
2.98958e-08
-1.16883e-09
4.44006e-11
9.29677e-10
2.47974e-08
1.46684e-09
-1.63934e-09
1.52919e-08
1.64979e-10
-1.29827e-09
-7.11963e-10
1.25576e-10
1.87857e-08
3.17257e-09
-4.06049e-09
1.88818e-08
-1.72949e-10
-1.2654e-08
5.0504e-08
-2.69268e-09
3.7707e-08
1.79036e-09
-4.81564e-09
-5.45025e-09
3.66631e-08
-2.41908e-09
-2.82024e-09
2.84401e-08
4.77888e-09
-2.53462e-08
2.9772e-08
-1.08773e-09
1.88909e-08
4.45261e-09
-3.38547e-09
3.14374e-08
-3.20957e-08
4.95643e-08
1.60976e-09
6.94501e-08
1.64521e-08
6.83518e-09
4.01572e-09
4.55949e-09
3.13835e-08
3.25282e-09
2.49776e-10
-1.42348e-09
3.40381e-08
1.04708e-09
1.11798e-09
-5.24032e-09
2.8277e-08
8.92576e-10
-4.33093e-09
2.70013e-08
-1.2448e-09
-5.01573e-09
-2.80753e-09
-2.9282e-09
3.35301e-08
-2.60471e-09
1.85552e-09
1.53999e-08
3.89962e-09
-2.13722e-10
3.89731e-08
3.45229e-09
3.14882e-08
2.33517e-09
5.89088e-10
1.69393e-09
2.73923e-08
-3.73984e-09
-1.87278e-09
3.64973e-08
4.95944e-09
5.60004e-10
2.02989e-08
-1.30781e-09
3.05322e-08
-1.92182e-09
-7.5092e-09
4.38933e-08
-3.00884e-09
3.62923e-08
3.51958e-09
5.93029e-08
2.46531e-08
-1.58674e-09
-4.05686e-10
2.8687e-09
2.79765e-08
1.94733e-09
-4.30935e-10
-1.44278e-10
3.19543e-08
2.25336e-09
2.55213e-09
-3.9967e-09
3.07207e-08
-1.43011e-09
-4.45434e-09
3.90261e-08
-3.68293e-09
-1.33537e-09
-2.97681e-09
-6.78409e-09
5.00345e-08
-2.90674e-09
1.25072e-09
1.39349e-08
1.57127e-09
2.18592e-09
2.83125e-08
3.41544e-09
1.97779e-08
5.41174e-09
5.52712e-09
-3.65739e-10
1.46187e-08
-1.52294e-09
-5.02655e-10
4.53007e-08
3.90879e-10
-4.65613e-10
2.10367e-08
3.69071e-09
2.99638e-08
6.8396e-10
-2.04202e-09
3.83512e-08
2.92635e-10
2.29588e-08
6.63322e-09
5.4162e-08
3.73956e-08
-2.94814e-09
-7.10032e-10
-7.82675e-09
3.93049e-08
1.55179e-09
-3.80169e-09
-2.27035e-09
3.7073e-08
2.43301e-10
2.66946e-09
4.57149e-10
1.98415e-08
3.95087e-09
-2.61039e-09
4.34851e-08
-2.24844e-09
3.06929e-09
3.45129e-09
-5.49576e-10
4.6045e-08
-3.02493e-10
5.19668e-11
1.53663e-08
-8.12299e-10
2.14972e-10
2.90644e-08
9.73213e-10
1.37671e-08
1.61484e-09
2.63792e-09
-5.00456e-09
1.72151e-08
-4.9931e-10
-4.51777e-09
5.30077e-08
5.2868e-10
3.21502e-09
1.70086e-08
2.06349e-09
3.00616e-08
-6.5937e-10
4.41478e-09
2.47662e-08
6.14709e-09
2.14274e-08
-1.18602e-09
7.27751e-08
4.10121e-08
-6.93052e-10
3.24628e-10
2.49006e-10
3.77931e-08
-2.18543e-11
9.30138e-10
1.25889e-09
3.55203e-08
-3.11539e-10
-1.17755e-09
-7.70111e-10
2.39026e-08
-1.18323e-09
1.90695e-09
3.73605e-08
1.30114e-09
1.73915e-09
1.18979e-09
3.66487e-09
3.84814e-08
-9.42018e-10
-4.17905e-09
2.29362e-08
9.86092e-10
7.32136e-11
2.62931e-08
-2.85404e-10
1.76788e-08
-7.33347e-10
-5.01585e-09
1.06166e-09
2.50389e-08
2.28696e-09
-4.51532e-09
4.60414e-08
4.51446e-11
-7.58301e-09
2.69068e-08
-5.21685e-10
2.69326e-08
3.41044e-09
3.44796e-09
2.22215e-08
2.11447e-09
2.38211e-08
4.27401e-09
6.24744e-08
3.91732e-08
4.85635e-09
-1.01939e-09
2.75348e-09
3.66712e-08
-2.26449e-09
9.71182e-11
2.12384e-09
3.30663e-08
-7.86684e-10
-1.88113e-09
-4.45045e-10
2.64157e-08
-8.99962e-11
2.05377e-10
3.36657e-08
2.20806e-09
-5.99616e-10
-7.7529e-10
3.75913e-09
3.75426e-08
-2.98483e-09
8.08778e-11
2.71885e-08
-1.8318e-09
-1.39787e-09
2.60926e-08
-9.20235e-10
2.04824e-08
-3.51111e-09
-2.48256e-09
1.06531e-09
3.19147e-08
-1.17384e-09
3.07281e-09
4.17409e-08
-2.17536e-09
-3.23879e-09
2.97492e-08
-5.35245e-10
2.66973e-08
-2.32507e-09
-2.41508e-09
2.72297e-08
-9.98467e-09
3.47665e-08
-9.7032e-10
4.5793e-08
3.66397e-08
-8.87533e-10
1.04224e-09
1.59189e-09
3.41997e-08
-6.25017e-10
1.58016e-09
1.31256e-09
3.30597e-08
-1.84404e-09
-1.16347e-09
7.22182e-10
3.0536e-08
-2.09913e-09
3.34658e-09
3.21487e-08
-2.00704e-09
-9.8612e-10
1.28426e-09
2.56053e-09
3.38576e-08
1.24613e-09
-2.66236e-09
3.12015e-08
2.97672e-11
-1.87983e-09
2.99109e-08
-1.46796e-09
2.84958e-08
-3.16984e-09
1.67839e-11
2.58898e-09
3.35252e-08
2.06462e-09
1.1926e-09
3.58381e-08
8.08181e-10
-2.59462e-09
3.17204e-08
-2.87551e-09
3.04652e-08
-1.55193e-09
-3.92268e-09
3.26394e-08
-3.49509e-09
3.43193e-08
1.01504e-10
3.68403e-08
3.42599e-08
-2.54244e-10
5.54734e-10
5.2232e-10
3.34737e-08
-3.96435e-10
9.92498e-10
2.99256e-10
3.30682e-08
-7.45514e-10
-4.26455e-11
-7.11015e-11
3.20409e-08
-3.98662e-10
2.66009e-10
3.2329e-08
-9.32056e-11
-3.95656e-10
5.66323e-10
3.55879e-10
3.31978e-08
6.56047e-10
-1.12541e-09
3.25365e-08
-1.03112e-10
-1.14827e-09
3.17474e-08
-1.12833e-09
3.13753e-08
-1.58861e-09
6.57869e-11
6.76036e-10
3.34798e-08
7.16443e-10
1.34354e-10
3.39277e-08
-3.71999e-11
-1.28112e-09
3.2607e-08
-1.54367e-09
3.21094e-08
-1.26581e-09
-1.2395e-09
3.32745e-08
-1.19733e-09
3.37848e-08
-4.76744e-10
3.41245e-08
3.35055e-08
-1.05366e-09
2.12744e-10
2.78581e-10
3.33539e-08
-2.53583e-10
3.06174e-10
2.49243e-10
3.3197e-08
-4.71506e-10
-2.69312e-10
1.259e-10
3.27986e-08
-3.08091e-10
3.37127e-10
3.27907e-08
-4.59516e-10
-6.08449e-10
1.83773e-10
8.38553e-11
3.32256e-08
2.09283e-10
-2.89938e-10
3.30503e-08
-2.52936e-10
-3.86874e-10
3.27226e-08
-2.938e-10
3.26136e-08
-8.60575e-10
2.28845e-11
2.5215e-10
3.33983e-08
2.24137e-10
-1.47125e-11
3.34513e-08
-1.68771e-10
-4.54844e-10
3.3068e-08
-5.67675e-10
3.28945e-08
-6.7981e-10
-4.43015e-10
3.33335e-08
-3.98378e-10
3.35154e-08
-3.6526e-10
3.35363e-08
3.34022e-08
-6.62115e-10
1.28306e-10
1.37567e-10
3.33298e-08
-1.40558e-10
1.7753e-10
1.13026e-10
3.326e-08
-2.25074e-10
-3.33654e-11
1.20197e-12
3.30792e-08
-7.07528e-11
-5.07049e-12
3.30122e-08
-5.99137e-11
-1.89601e-10
7.7253e-11
4.26107e-11
3.32961e-08
8.28014e-11
-7.54301e-11
3.32334e-08
-1.19009e-10
-1.72274e-10
3.30981e-08
-1.80513e-10
3.3038e-08
-3.67988e-10
-4.45478e-13
1.09925e-10
3.33658e-08
3.42886e-11
-2.14459e-11
3.33626e-08
-1.32669e-10
-1.80497e-10
3.32432e-08
-2.47891e-10
3.318e-08
-3.5065e-10
-1.80991e-10
3.33385e-08
-1.75145e-10
3.34105e-08
-2.33612e-10
3.3403e-08
3.33741e-08
-3.93332e-10
5.57872e-11
7.23434e-11
3.33418e-08
-7.27807e-11
5.98237e-11
6.47658e-11
3.33053e-08
-1.13962e-10
-4.71671e-11
1.27634e-11
3.3207e-08
-3.34665e-11
1.15246e-11
3.31284e-08
-4.27187e-11
-1.31891e-10
2.54099e-11
3.45255e-11
3.33491e-08
7.38986e-12
-5.85228e-12
3.33222e-08
-8.89167e-11
-5.18436e-11
3.32593e-08
-5.80513e-11
3.32104e-08
-1.91736e-10
-1.07576e-11
4.96561e-11
3.33776e-08
-2.17291e-11
-3.90032e-12
3.33716e-08
-9.84635e-11
-5.95622e-11
3.33278e-08
-8.45581e-11
3.32919e-08
-1.83669e-10
-8.21201e-11
3.33679e-08
-9.43051e-11
3.33933e-08
-1.41587e-10
3.33895e-08
3.33754e-08
-2.1216e-10
2.5702e-11
3.68193e-11
3.33554e-08
-3.57911e-11
2.22976e-11
3.26984e-11
3.33306e-08
-5.45368e-11
-2.82659e-11
5.69755e-12
3.3264e-08
-1.20412e-11
5.28811e-14
3.31798e-08
-1.42385e-11
-6.53162e-11
8.76581e-12
2.18133e-11
3.33809e-08
-7.85912e-12
6.50567e-12
3.33652e-08
-5.27074e-11
-1.58981e-11
3.33259e-08
-2.23109e-11
3.32744e-08
-9.43312e-11
-8.22326e-12
2.15201e-11
3.33975e-08
-2.40905e-11
1.92915e-12
3.3392e-08
-5.97099e-11
-2.13828e-11
3.33689e-08
-3.16077e-11
3.33341e-08
-9.25098e-11
-3.49386e-11
3.33962e-08
-5.00421e-11
3.34031e-08
-7.76145e-11
3.33966e-08
3.33758e-08
-1.08809e-10
1.26783e-11
1.77468e-11
3.33664e-08
-1.73937e-11
8.35531e-12
1.57312e-11
3.33454e-08
-2.60782e-11
-1.73861e-11
2.47005e-12
3.32905e-08
-3.12449e-12
-6.10536e-13
3.32027e-08
-4.99535e-12
-3.46382e-11
3.78772e-12
1.16025e-11
3.33998e-08
-8.07151e-12
5.74144e-12
3.33872e-08
-2.9732e-11
-4.60234e-12
3.33549e-08
-7.65459e-12
3.32989e-08
-4.7039e-11
-3.81703e-12
8.05042e-12
3.34147e-08
-1.59934e-11
1.15125e-12
3.34087e-08
-3.35835e-11
-7.52354e-12
3.33895e-08
-1.12768e-11
3.33507e-08
-4.6418e-11
-1.35636e-11
3.3417e-08
-2.54044e-11
3.34168e-08
-4.07612e-11
3.34065e-08
3.3378e-08
-5.55086e-11
7.27816e-12
7.79957e-12
3.33741e-08
-7.86301e-12
3.89618e-12
6.65827e-12
3.3354e-08
-1.19119e-11
-9.83727e-12
6.71627e-13
3.33034e-08
1.14307e-13
-8.27461e-13
3.32132e-08
-1.20951e-12
-1.82147e-11
2.81438e-12
4.88382e-12
3.34112e-08
-4.94668e-12
2.59924e-12
3.3399e-08
-1.57275e-11
-1.91428e-12
3.33683e-08
-3.23692e-12
3.33089e-08
-2.31702e-11
-5.69971e-13
1.53517e-12
3.34266e-08
-8.45733e-12
-7.26169e-13
3.34198e-08
-1.7576e-11
-3.67156e-12
3.34004e-08
-4.63195e-12
3.3358e-08
-2.33388e-11
-3.80266e-12
3.34309e-08
-1.16792e-11
3.34275e-08
-2.01687e-11
3.34141e-08
3.33803e-08
-2.71864e-11
4.87545e-12
2.66727e-12
3.33791e-08
-3.05645e-12
2.41032e-12
2.23569e-12
3.33592e-08
-5.02756e-12
-5.03675e-12
-6.56894e-13
3.33103e-08
1.17085e-12
-8.56822e-13
3.32183e-08
3.02509e-13
-9.57239e-12
2.6809e-12
1.03191e-12
3.3418e-08
-2.10275e-12
2.47599e-13
3.34058e-08
-7.8744e-12
-1.61227e-12
3.33751e-08
-1.94996e-12
3.33134e-08
-1.12636e-11
1.32345e-12
-1.4605e-12
3.34342e-08
-3.56973e-12
-1.95283e-12
3.34267e-08
-8.55828e-12
-2.74303e-12
3.34065e-08
-2.65613e-12
3.33617e-08
-1.14675e-11
3.35947e-13
3.34396e-08
-4.50171e-12
3.34345e-08
-9.27629e-12
3.34193e-08
3.33823e-08
-1.28543e-11
3.58079e-12
2.1236e-13
3.33824e-08
-7.36767e-13
1.9088e-12
7.1311e-14
3.33624e-08
-1.70993e-12
-2.27741e-12
-1.20735e-12
3.3314e-08
1.46659e-12
-9.01456e-13
3.32211e-08
8.31101e-13
-4.98441e-12
2.5056e-12
-8.4889e-13
3.34221e-08
-3.65363e-13
-1.05963e-12
3.34097e-08
-3.60067e-12
-1.70904e-12
3.33788e-08
-1.61256e-12
3.33158e-08
-5.2553e-12
2.08432e-12
-2.56979e-12
3.34389e-08
-8.85849e-13
-2.4809e-12
3.3431e-08
-3.74234e-12
-2.49216e-12
3.34101e-08
-2.10695e-12
3.33638e-08
-5.36421e-12
1.95107e-12
3.34449e-08
-9.99869e-13
3.3439e-08
-3.76468e-12
3.34226e-08
3.33839e-08
-5.75757e-12
2.70428e-12
-8.33103e-13
3.33844e-08
3.10786e-13
1.61786e-12
-8.45518e-13
3.33644e-08
-1.85507e-13
-8.22906e-13
-1.33559e-12
3.33162e-08
1.42541e-12
-9.01066e-13
3.32227e-08
9.33503e-13
-2.55975e-12
2.18714e-12
-1.55283e-12
3.34246e-08
4.81552e-13
-1.55787e-12
3.34121e-08
-1.38473e-12
-1.71386e-12
3.33809e-08
-1.4774e-12
3.33172e-08
-2.26982e-12
2.06756e-12
-2.5965e-12
3.34418e-08
3.49797e-13
-2.43144e-12
3.34336e-08
-1.30517e-12
-2.2686e-12
3.34123e-08
-1.84912e-12
3.33652e-08
-2.31287e-12
2.16503e-12
3.34481e-08
4.47827e-13
3.34418e-08
-1.19171e-12
3.34248e-08
3.33852e-08
-2.33561e-12
1.99859e-12
-1.14662e-12
3.33857e-08
7.02732e-13
1.31557e-12
-1.10874e-12
3.33657e-08
4.10294e-13
-1.43263e-13
-1.25607e-12
3.33176e-08
1.23263e-12
-8.39969e-13
3.32237e-08
8.93006e-13
-1.3036e-12
1.75336e-12
-1.61823e-12
3.34261e-08
7.52179e-13
-1.57791e-12
3.34135e-08
-3.49146e-13
-1.56643e-12
3.33822e-08
-1.29342e-12
3.33181e-08
-8.60981e-13
1.7355e-12
-2.1475e-12
3.34434e-08
7.6191e-13
-2.04308e-12
3.34352e-08
-2.57183e-13
-1.89899e-12
3.34137e-08
-1.58326e-12
3.33661e-08
-8.59454e-13
1.80243e-12
3.34498e-08
8.69396e-13
3.34435e-08
-8.90039e-14
3.34262e-08
3.33861e-08
-7.68171e-13
1.41291e-12
-1.07492e-12
3.33865e-08
7.3256e-13
1.00017e-12
-1.0216e-12
3.33665e-08
5.36661e-13
1.20459e-13
-1.02879e-12
3.33184e-08
9.61724e-13
-6.78018e-13
3.32244e-08
7.08229e-13
-6.38165e-13
1.30279e-12
-1.37881e-12
3.34269e-08
7.181e-13
-1.32996e-12
3.34144e-08
5.58362e-14
-1.25908e-12
3.3383e-08
-1.02932e-12
3.33188e-08
-2.32298e-13
1.32163e-12
-1.60677e-12
3.34444e-08
7.71708e-13
-1.54373e-12
3.34362e-08
1.72991e-13
-1.44607e-12
3.34145e-08
-1.23399e-12
3.33668e-08
-1.94478e-13
1.36078e-12
3.34508e-08
8.45266e-13
3.34444e-08
3.04926e-13
3.3427e-08
3.33868e-08
-9.99531e-14
1.00127e-12
-7.86511e-13
3.33869e-08
5.48944e-13
7.619e-13
-7.3135e-13
3.33669e-08
4.12219e-13
2.3808e-13
-6.956e-13
3.33189e-08
6.34245e-13
-4.68588e-13
3.32248e-08
4.48316e-13
-2.16439e-13
9.62647e-13
-9.71535e-13
3.34274e-08
6.32284e-13
-9.234e-13
3.34149e-08
2.47912e-13
-8.49521e-13
3.33835e-08
-6.90585e-13
3.33192e-08
7.35587e-14
9.95785e-13
-1.05078e-12
3.34449e-08
6.9037e-13
-1.01587e-12
3.34367e-08
3.44411e-13
-9.53258e-13
3.3415e-08
-8.21002e-13
3.33672e-08
1.18226e-13
1.02172e-12
3.34512e-08
7.36732e-13
3.34449e-08
4.2771e-13
3.34275e-08
3.33872e-08
1.87835e-13
9.0459e-13
-3.89217e-13
3.3387e-08
2.57623e-13
7.66883e-13
-3.38894e-13
3.33671e-08
1.58872e-13
4.61733e-13
-3.03863e-13
3.33192e-08
2.60496e-13
-1.82839e-13
3.32251e-08
1.42813e-13
2.16127e-13
9.06341e-13
-4.90406e-13
3.34276e-08
7.286e-13
-4.45869e-13
3.34151e-08
5.08823e-13
-3.93092e-13
3.33838e-08
-3.01411e-13
3.33194e-08
3.80889e-13
9.40882e-13
-5.12605e-13
3.34451e-08
7.71826e-13
-4.94347e-13
3.34369e-08
5.65247e-13
-4.56273e-13
3.34153e-08
-3.8285e-13
3.33675e-08
3.99938e-13
9.60644e-13
3.34514e-08
8.00224e-13
3.34451e-08
6.10408e-13
3.34278e-08
3.33874e-08
4.36479e-13
1.33446e-12
-1.42269e-13
7.7984e-14
1.21642e-12
-7.8596e-14
-1.20897e-14
1.01243e-12
-1.58847e-14
-6.44553e-14
7.41313e-14
-1.69065e-13
7.99691e-13
1.38034e-12
-1.97155e-13
1.25511e-12
-1.48399e-13
1.07667e-12
-9.49425e-14
-2.80636e-14
8.99208e-13
1.42489e-12
-2.2828e-13
1.302e-12
-1.99857e-13
1.12408e-12
-1.64289e-13
-1.14498e-13
9.2181e-13
1.45077e-12
1.33164e-12
1.15833e-12
9.53469e-13
-1.30716e-09
-5.76104e-09
5.97985e-08
6.53127e-10
4.0928e-09
3.75852e-08
3.4914e-09
9.20267e-09
2.839e-08
-6.06846e-09
3.84974e-08
2.87825e-09
3.65744e-09
1.70945e-09
3.23487e-08
5.17002e-09
-7.08746e-09
5.07156e-08
1.78115e-09
-4.25092e-09
5.21287e-08
-2.14278e-09
2.42731e-08
1.39675e-09
-2.22835e-09
3.12584e-10
4.22144e-08
4.99572e-09
9.22971e-10
2.1058e-08
1.68011e-09
-6.5753e-09
3.66825e-08
-7.25806e-09
2.93226e-08
1.57421e-09
-2.79808e-09
4.05334e-08
2.15118e-09
2.79568e-08
3.99719e-10
2.26227e-08
1.0736e-08
2.49785e-09
6.75615e-09
8.49179e-09
3.40507e-08
6.61494e-10
-5.77069e-09
4.95322e-08
1.77276e-09
-8.07862e-09
3.55799e-08
-3.41989e-09
4.47839e-08
-1.12554e-09
3.02776e-10
2.32703e-09
3.1599e-08
-9.87882e-10
3.63327e-09
4.26023e-08
2.49324e-09
2.53609e-09
3.80328e-08
-4.4034e-09
2.79967e-08
-2.46897e-10
1.36132e-09
-1.4152e-09
4.35725e-08
-2.35632e-09
-1.05737e-09
2.94663e-08
8.92366e-10
-1.6593e-09
3.76292e-08
8.16289e-09
1.46181e-08
3.03054e-09
3.81794e-10
2.75565e-08
-1.28553e-09
3.004e-08
4.87995e-09
1.20558e-08
2.69992e-08
3.34493e-10
3.00888e-09
3.93385e-09
2.07506e-08
8.91225e-10
-6.28393e-11
5.18153e-08
1.32974e-09
6.24709e-11
3.47168e-08
-4.18063e-09
5.07445e-08
-4.90996e-11
2.05145e-09
6.74511e-09
2.44878e-08
1.43887e-09
1.72134e-09
4.14307e-08
-9.17747e-11
-9.11903e-10
4.05378e-08
4.00543e-10
2.31493e-08
1.7437e-10
-1.15555e-09
4.45071e-09
4.63218e-08
-1.1124e-10
-9.89236e-11
3.02422e-08
-3.59233e-11
4.15686e-09
3.24851e-08
2.25952e-09
1.25067e-08
2.16496e-10
1.56736e-09
1.72604e-08
2.63221e-09
2.77074e-08
-2.93054e-09
2.32422e-08
2.70935e-08
-6.00299e-10
-1.13398e-09
4.2892e-12
2.44025e-08
-4.76534e-10
-3.90124e-09
5.48426e-08
-2.49568e-09
-5.41401e-09
4.21147e-08
-3.50085e-09
5.30219e-08
-9.30619e-10
-1.76904e-09
-2.34287e-09
3.08267e-08
-1.20663e-09
-1.53178e-09
3.84988e-08
-6.27192e-10
2.92319e-09
3.16211e-08
4.24366e-09
1.44644e-08
3.13258e-10
-2.94407e-09
-2.70232e-09
5.28415e-08
9.25661e-10
1.57056e-09
2.32702e-08
2.92895e-10
-4.80834e-10
3.65219e-08
-9.80763e-10
1.86278e-08
-6.0382e-10
-2.70796e-10
2.03841e-08
2.72766e-11
3.0027e-08
1.39227e-10
2.3542e-08
2.7687e-08
-2.67993e-09
-5.39296e-09
-3.32569e-09
4.14934e-08
-5.28717e-09
-4.84756e-10
5.53833e-08
-1.24696e-09
1.96541e-09
3.63686e-08
8.0154e-09
4.02839e-08
3.54241e-09
-4.41731e-09
-1.39503e-08
5.27119e-08
-2.09573e-09
7.6505e-10
3.49274e-08
6.86149e-10
7.3303e-10
3.00716e-08
-9.39573e-10
2.41783e-08
-7.28042e-11
1.61396e-09
9.29373e-10
3.55357e-08
-3.14357e-09
-2.70913e-09
3.15018e-08
4.322e-10
-1.10887e-09
3.4788e-08
-1.62204e-09
2.01418e-08
-3.99335e-10
-8.1719e-10
2.24347e-08
-2.45803e-09
3.12121e-08
1.51741e-09
1.70275e-08
2.3795e-08
1.04375e-10
-2.17322e-08
3.9484e-10
8.47785e-08
-3.46882e-09
6.37728e-09
3.08735e-08
1.5117e-09
2.05186e-09
2.93059e-08
-1.42573e-09
4.07131e-08
2.66286e-09
-4.02277e-10
4.34216e-09
5.23523e-08
-4.85657e-09
2.91362e-09
4.28453e-08
1.45897e-09
7.40581e-09
1.84021e-08
9.12351e-09
1.31495e-08
1.93851e-09
-1.26727e-09
1.1248e-09
4.04549e-08
-2.71371e-09
-7.26459e-11
3.59345e-08
1.36555e-09
3.91746e-09
3.41971e-08
-1.93494e-09
3.32738e-08
-7.08006e-10
-1.92981e-09
3.45865e-08
-9.7014e-11
2.95499e-08
-2.0016e-09
2.68004e-08
1.62407e-08
1.36932e-09
3.61693e-09
8.71751e-09
7.33577e-08
-5.07348e-10
-2.00374e-09
3.62095e-08
-7.93851e-10
3.47236e-10
2.93126e-08
2.6667e-09
3.71699e-08
1.82409e-10
4.51187e-09
3.90423e-09
5.36738e-08
5.47912e-10
8.68711e-10
4.39368e-08
-1.79633e-10
-1.69348e-09
2.11703e-08
-3.65989e-09
1.94364e-08
-1.40009e-10
2.61785e-09
3.03251e-09
4.10206e-08
5.23385e-10
1.01922e-09
3.78785e-08
-1.90816e-10
9.85444e-10
3.22325e-08
8.57139e-10
2.79298e-08
6.36184e-10
3.53552e-09
3.79987e-08
1.23088e-09
3.25623e-08
4.92321e-10
2.73411e-08
1.88181e-08
7.28648e-11
5.23788e-09
7.17148e-09
5.52676e-08
3.59538e-10
-3.47038e-09
4.45581e-08
-2.31738e-09
-2.39395e-09
3.43834e-08
-4.56495e-10
3.75526e-08
-2.24394e-09
3.24879e-09
2.80272e-09
5.04953e-08
1.20249e-09
-1.63486e-09
4.4147e-08
-1.36766e-09
-4.34567e-09
2.56914e-08
-4.38292e-09
2.43625e-08
-2.36678e-09
1.96875e-09
1.49558e-09
3.90906e-08
2.90736e-10
-9.05447e-11
3.80115e-08
-1.57524e-09
-1.55272e-09
3.13052e-08
-1.5642e-09
2.47503e-08
-1.2145e-09
7.44152e-10
3.41163e-08
2.1343e-10
3.22156e-08
-3.94397e-10
2.63054e-08
2.03127e-08
-1.2473e-09
3.62351e-09
3.8733e-09
4.8898e-08
1.07304e-09
1.9435e-09
4.51648e-08
-1.70314e-09
9.73648e-10
3.61855e-08
4.16158e-09
3.2345e-08
-6.5797e-10
2.14298e-09
4.3889e-09
4.6435e-08
2.55709e-09
2.85235e-09
4.28236e-08
-1.27636e-09
-1.5738e-09
3.20716e-08
1.0735e-09
2.69997e-08
-8.25738e-10
6.76928e-10
2.08793e-09
4.03374e-08
8.89315e-10
2.80701e-09
3.78438e-08
-7.41977e-10
7.62949e-10
3.05997e-08
1.56135e-09
2.35331e-08
-1.26966e-11
1.53081e-10
3.51742e-08
9.22195e-10
3.24093e-08
-2.49137e-10
2.61401e-08
1.92456e-08
3.70472e-10
1.39718e-09
9.64782e-11
4.78238e-08
9.1254e-10
-1.86276e-12
4.56512e-08
-3.88274e-10
-6.15149e-10
3.81011e-08
2.8677e-10
3.22963e-08
-6.2676e-10
1.00095e-09
8.47977e-10
4.41857e-08
1.45027e-09
8.70087e-10
4.15019e-08
-1.86079e-10
-8.78782e-10
3.39708e-08
6.40536e-11
2.76391e-08
-6.03026e-10
6.50492e-10
7.25443e-10
3.964e-08
1.10947e-09
1.17595e-09
3.70786e-08
1.50188e-11
9.91163e-11
3.07164e-08
1.79355e-10
2.37857e-08
-3.52874e-10
4.61829e-10
3.49728e-08
9.96327e-10
3.23053e-08
1.95628e-10
2.6641e-08
1.97162e-08
-1.90147e-10
3.83181e-10
2.65528e-10
4.75343e-08
2.29808e-10
5.64363e-10
4.52401e-08
-3.56685e-10
1.78291e-10
3.85091e-08
6.55135e-10
3.1543e-08
-2.58877e-10
2.48424e-10
3.56848e-10
4.39031e-08
3.40225e-10
6.40763e-10
4.13335e-08
-3.32765e-10
-3.65426e-11
3.48581e-08
4.65535e-10
2.77376e-08
-2.4176e-10
1.65877e-10
3.17967e-10
3.9597e-08
2.94653e-10
6.44894e-10
3.69454e-08
-2.1e-10
1.42356e-10
3.10422e-08
4.53813e-10
2.37408e-08
-1.53392e-10
1.58026e-10
3.50009e-08
2.94746e-10
3.23421e-08
-1.2542e-10
2.68954e-08
1.96662e-08
-8.21626e-11
1.80894e-10
-7.17219e-11
4.76065e-08
2.19534e-10
1.2709e-10
4.50743e-08
-5.25997e-11
-1.0482e-10
3.88858e-08
5.88156e-11
3.15688e-08
-1.37511e-10
1.44543e-10
5.6835e-11
4.37362e-08
2.57034e-10
2.73937e-10
4.10741e-08
-5.03316e-11
-6.80663e-11
3.51283e-08
1.19229e-10
2.77518e-08
-1.25092e-10
1.37304e-10
1.35068e-10
3.9483e-08
2.51464e-10
3.11253e-10
3.67938e-08
-1.07542e-11
3.37371e-11
3.12027e-08
1.10404e-10
2.38258e-08
-8.69981e-11
1.40633e-10
3.49676e-08
2.34144e-10
3.23349e-08
1.75641e-11
2.7075e-08
1.97979e-08
-6.43593e-11
6.19455e-11
-3.0174e-11
4.76805e-08
9.33945e-11
8.78467e-11
4.49549e-08
-4.36367e-11
-2.03658e-11
3.90431e-08
7.34708e-11
3.15203e-08
-6.87761e-11
5.56888e-11
1.26827e-11
4.37263e-08
1.05074e-10
1.35852e-10
4.09766e-08
-4.33196e-11
-1.64308e-11
3.52725e-08
7.93548e-11
2.77633e-08
-6.0769e-11
5.95656e-11
5.75765e-11
3.9458e-08
9.81969e-11
1.473e-10
3.67436e-08
-2.81766e-11
1.40457e-11
3.12987e-08
6.74405e-11
2.38546e-08
-4.51266e-11
6.44008e-11
3.49673e-08
8.94676e-11
3.23434e-08
-1.59033e-11
2.71609e-08
1.98427e-08
-3.64607e-11
3.22669e-11
-1.54144e-11
4.77336e-08
5.17814e-11
4.3325e-11
4.4892e-08
-1.56536e-11
-1.5279e-11
3.91258e-08
2.26185e-11
3.15148e-08
-3.29102e-11
2.73722e-11
2.02726e-12
4.37397e-08
5.10529e-11
6.44915e-11
4.09316e-08
-1.88041e-11
-1.0437e-11
3.53373e-08
2.88871e-11
2.77671e-08
-2.90384e-11
2.92592e-11
2.52475e-11
3.94568e-08
4.50633e-11
6.84823e-11
3.67238e-08
-1.37755e-11
2.41013e-12
3.13447e-08
2.27135e-11
2.38696e-08
-2.26003e-11
3.18866e-11
3.49732e-08
3.98382e-11
3.23495e-08
-9.06877e-12
2.72003e-08
1.98636e-08
-2.17983e-11
1.81019e-11
-7.90892e-12
4.77656e-08
2.69173e-11
2.09855e-11
4.4862e-08
-7.18618e-12
-7.62029e-12
3.91673e-08
1.0913e-11
3.15114e-08
-1.47674e-11
1.43207e-11
2.00784e-13
4.3753e-08
2.40992e-11
3.04378e-11
4.09122e-08
-9.54328e-12
-5.79525e-12
3.53689e-08
1.29045e-11
2.7769e-08
-1.34683e-11
1.48362e-11
1.16103e-11
3.94619e-08
1.9881e-11
3.21062e-11
3.6717e-08
-8.03944e-12
-1.0165e-12
3.13679e-08
9.37712e-12
2.38763e-08
-1.12517e-11
1.62243e-11
3.49799e-08
1.71283e-11
3.23548e-08
-6.38441e-12
2.72196e-08
1.98736e-08
-1.23447e-11
1.13414e-11
-4.14219e-12
4.7784e-08
1.49785e-11
9.73435e-12
4.48485e-08
-2.6369e-12
-3.86103e-12
3.91886e-08
4.4187e-12
3.15106e-08
-6.37775e-12
8.40777e-12
-4.65682e-13
4.37625e-08
1.19411e-11
1.40853e-11
4.09042e-08
-4.36994e-12
-3.69885e-12
3.53849e-08
5.17604e-12
2.777e-08
-6.17619e-12
8.21458e-12
5.02984e-12
3.94671e-08
9.19144e-12
1.47188e-11
3.67153e-08
-4.17426e-12
-1.97942e-12
3.13796e-08
3.20314e-12
2.38794e-08
-5.3342e-12
8.98204e-12
3.49853e-08
7.89902e-12
3.23587e-08
-3.7587e-12
2.72294e-08
1.98783e-08
-6.74574e-12
7.57938e-12
-2.1304e-12
4.77944e-08
8.69442e-12
4.30987e-12
4.48428e-08
-5.88226e-13
-2.08181e-12
3.91998e-08
1.77671e-12
3.15106e-08
-2.42308e-12
5.41276e-12
-5.89753e-13
4.37687e-08
6.29252e-12
6.15145e-12
4.09012e-08
-1.88878e-12
-2.21718e-12
3.53931e-08
1.87733e-12
2.77706e-08
-2.55441e-12
5.01941e-12
1.85176e-12
3.94712e-08
4.49271e-12
6.34074e-12
3.67156e-08
-1.95623e-12
-1.93674e-12
3.13858e-08
7.46071e-13
2.3881e-08
-2.36369e-12
5.49202e-12
3.49893e-08
3.9834e-12
3.23615e-08
-2.02452e-12
2.72346e-08
1.98807e-08
-3.62069e-12
5.28011e-12
-1.13331e-12
4.78002e-08
5.32188e-12
1.70167e-12
4.48409e-08
3.47378e-13
-1.19926e-12
3.92059e-08
5.61346e-13
3.1511e-08
-7.02594e-13
3.70922e-12
-6.68038e-13
4.37726e-08
3.56342e-12
2.4205e-12
4.09005e-08
-6.04833e-13
-1.53413e-12
3.53975e-08
3.78905e-13
2.77712e-08
-9.53559e-13
3.30049e-12
3.29888e-13
3.94741e-08
2.45771e-12
2.38843e-12
3.67163e-08
-7.31434e-13
-1.7144e-12
3.13891e-08
-2.7466e-13
2.3882e-08
-9.82174e-13
3.62307e-12
3.4992e-08
2.25463e-12
3.23635e-08
-9.52762e-13
2.72374e-08
1.9882e-08
-1.96389e-12
3.74988e-12
-7.41746e-13
4.78036e-08
3.39742e-12
5.38798e-13
4.48407e-08
6.70123e-13
-7.14036e-13
3.92093e-08
4.92005e-14
3.15116e-08
1.3191e-14
2.57529e-12
-6.90414e-13
4.3775e-08
2.14301e-12
6.89713e-13
4.09007e-08
-9.45025e-15
-1.10236e-12
3.54e-08
-1.91828e-13
2.77718e-08
-2.67611e-13
2.25433e-12
-3.60055e-13
3.9476e-08
1.45331e-12
5.71517e-13
3.67172e-08
-1.4796e-13
-1.44147e-12
3.13911e-08
-6.28068e-13
2.38826e-08
-3.53811e-13
2.50732e-12
3.49938e-08
1.4096e-12
3.23649e-08
-3.73018e-13
2.72391e-08
1.98828e-08
-1.09415e-12
2.65776e-12
-5.65467e-13
4.78056e-08
2.21167e-12
6.38476e-14
4.4841e-08
6.99231e-13
-5.06644e-13
3.92112e-08
-1.4408e-13
3.15122e-08
2.472e-13
1.78308e-12
-6.5114e-13
4.37764e-08
1.3591e-12
-2.66267e-14
4.09012e-08
2.08536e-13
-8.28244e-13
3.54014e-08
-3.7842e-13
2.77722e-08
1.67585e-14
1.54289e-12
-6.02724e-13
3.94772e-08
8.96866e-13
-1.66158e-13
3.67179e-08
8.39657e-14
-1.17284e-12
3.13922e-08
-6.92581e-13
2.38831e-08
-7.58642e-14
1.73256e-12
3.49949e-08
9.24057e-13
3.23658e-08
-1.11604e-13
2.72401e-08
1.98833e-08
-6.21565e-13
1.83493e-12
-3.85977e-13
4.78067e-08
1.44658e-12
-1.06501e-13
4.48414e-08
6.02551e-13
-3.62914e-13
3.92124e-08
-1.92707e-13
3.15127e-08
2.8902e-13
1.21662e-12
-5.29718e-13
4.37773e-08
8.69028e-13
-2.56954e-13
4.09016e-08
2.51388e-13
-6.13342e-13
3.54022e-08
-3.81269e-13
2.77726e-08
1.12692e-13
1.03387e-12
-5.86563e-13
3.9478e-08
5.66038e-13
-3.78539e-13
3.67185e-08
1.52458e-13
-8.96644e-13
3.13929e-08
-5.94389e-13
2.38835e-08
3.14983e-14
1.16027e-12
3.49956e-08
6.0974e-13
3.23665e-08
2.35482e-15
2.72407e-08
1.98837e-08
-3.47848e-13
1.26565e-12
-2.39082e-13
4.78073e-08
9.82387e-13
-1.27393e-13
4.48418e-08
5.07674e-13
-2.37112e-13
3.92131e-08
-1.57462e-13
3.15131e-08
2.89721e-13
8.55949e-13
-3.56543e-13
4.37777e-08
6.07952e-13
-2.44873e-13
4.09019e-08
2.68354e-13
-4.05488e-13
3.54027e-08
-2.86558e-13
2.77729e-08
1.70766e-13
7.2885e-13
-4.22993e-13
3.94784e-08
4.19419e-13
-3.24496e-13
3.67188e-08
1.99422e-13
-6.00733e-13
3.13934e-08
-4.1228e-13
2.38837e-08
1.05065e-13
8.03282e-13
3.4996e-08
4.56899e-13
3.23669e-08
9.8269e-14
2.72411e-08
1.98839e-08
-1.46093e-13
1.0164e-12
-1.06346e-13
4.78075e-08
8.30004e-13
-7.19365e-14
4.4842e-08
5.42649e-13
-1.17833e-13
3.92135e-08
-8.50088e-14
3.15134e-08
3.49965e-13
7.84861e-13
-1.56167e-13
4.37779e-08
6.23304e-13
-1.16766e-13
4.09021e-08
4.09398e-13
-1.84649e-13
3.5403e-08
-1.24387e-13
2.77731e-08
2.81257e-13
7.23164e-13
-1.86537e-13
3.94785e-08
5.29636e-13
-1.40584e-13
3.6719e-08
3.73496e-13
-2.68284e-13
3.13936e-08
-1.47489e-13
2.38839e-08
2.42129e-13
7.70496e-13
3.49961e-08
5.55122e-13
3.23671e-08
3.12099e-13
2.72413e-08
1.98841e-08
1.00017e-13
1.21286e-12
-4.74825e-14
1.02853e-12
-3.35794e-14
7.5644e-13
-3.57818e-14
-1.66476e-14
5.07054e-13
1.14435e-12
-7.09573e-14
9.60838e-13
-5.48628e-14
7.11531e-13
-5.64543e-14
-1.97312e-14
4.76954e-13
1.15883e-12
-7.41685e-14
9.59556e-13
-3.95278e-14
7.17254e-13
-3.71478e-14
4.46678e-14
4.60305e-13
1.21331e-12
9.946e-13
7.07588e-13
3.95833e-13
7.53378e-09
1.95622e-09
2.12776e-08
4.40476e-09
-8.54912e-10
2.9714e-08
1.26274e-08
5.44122e-10
2.09317e-08
5.17352e-09
4.23918e-08
1.63059e-10
2.13348e-09
2.92463e-08
2.33919e-09
6.90067e-09
2.17351e-08
7.83023e-09
5.63739e-09
2.53591e-08
2.37349e-10
5.31089e-08
9.33303e-09
5.02163e-10
1.98069e-08
7.19102e-09
-1.16528e-09
4.757e-08
6.75806e-10
1.42754e-09
5.20887e-08
2.63002e-09
4.4241e-08
5.43078e-09
1.81213e-08
1.1976e-08
3.35272e-08
5.29687e-09
5.37357e-08
5.41439e-08
-9.17779e-10
-1.15437e-11
2.42191e-08
-3.27463e-09
4.15059e-09
3.09507e-08
-1.36485e-09
5.54804e-09
1.3227e-08
6.88555e-09
3.31567e-08
5.27918e-09
2.85406e-09
2.04688e-08
2.30976e-09
-5.93672e-10
2.94487e-08
-2.2084e-09
-4.38817e-10
3.58641e-08
2.63639e-09
5.52459e-08
1.39501e-09
2.94523e-09
2.37041e-08
5.42856e-09
-1.59525e-09
4.4538e-08
2.76521e-09
6.22937e-10
5.36902e-08
4.92575e-09
4.48865e-08
-3.21655e-09
3.49472e-08
3.43245e-09
2.66893e-08
1.19715e-08
4.26031e-08
7.4783e-08
-1.63398e-09
-5.26696e-10
2.44811e-08
6.35248e-10
1.53448e-09
2.73635e-08
3.98424e-09
1.22344e-09
8.82889e-09
-1.4809e-09
3.8569e-08
1.6253e-09
1.89963e-09
1.82076e-08
4.47201e-09
-9.53432e-11
2.82318e-08
-5.6983e-09
2.76873e-09
4.44891e-08
7.50114e-09
4.06337e-08
-1.307e-09
3.24271e-09
2.81206e-08
1.0757e-08
3.80069e-09
2.85779e-08
8.10159e-09
2.62859e-09
5.64857e-08
1.01397e-08
5.04903e-08
5.76882e-09
4.11302e-08
5.19419e-09
3.05857e-08
3.01483e-08
2.40368e-08
1.32638e-07
6.49286e-09
1.69338e-09
8.59918e-09
1.29643e-09
8.89344e-10
3.10667e-08
-1.59159e-09
3.29285e-09
8.7373e-09
2.63962e-09
3.34132e-08
3.94526e-10
-2.56626e-10
2.20982e-08
7.9512e-09
9.5781e-10
2.06066e-08
-4.56511e-10
7.25588e-09
4.89337e-08
-4.7466e-11
4.262e-08
2.79336e-09
-1.4978e-09
2.46466e-08
1.93751e-09
1.38302e-10
3.02532e-08
-1.28494e-08
-1.03426e-10
7.86319e-08
-5.36635e-09
4.29524e-08
4.31655e-09
3.05633e-08
2.58773e-09
3.24977e-08
-3.23941e-10
3.15577e-08
1.38236e-07
5.24821e-10
1.04831e-09
5.79507e-09
2.08346e-09
6.15533e-10
2.84932e-08
5.07865e-09
-5.65643e-10
6.23491e-09
-4.55255e-09
4.67634e-08
-6.0961e-10
-5.98833e-10
2.97667e-08
-1.37766e-09
-2.10636e-09
2.40966e-08
-2.4662e-09
-4.87223e-09
5.43289e-08
-2.83314e-09
3.8455e-08
-2.74892e-09
-5.97988e-10
2.80786e-08
-4.09154e-09
2.324e-09
2.71655e-08
-4.74836e-09
6.97495e-10
7.3719e-08
-3.76788e-09
3.97584e-08
5.43067e-10
2.35218e-08
-7.29583e-09
4.33585e-08
-2.69206e-08
4.68633e-08
1.01453e-07
-4.22392e-09
-1.85435e-09
1.6312e-08
3.81575e-09
-3.16939e-10
2.00625e-08