/*--------------------------------*- C++ -*----------------------------------*\
| =========                 |                                                 |
| \\      /  F ield         | OpenFOAM: The Open Source CFD Toolbox           |
|  \\    /   O peration     | Version:  2506                                  |
|   \\  /    A nd           | Website:  www.openfoam.com                      |
|    \\/     M anipulation  |                                                 |
\*---------------------------------------------------------------------------*/
FoamFile
{
    version     2.0;
    format      ascii;
    arch        "LSB;label=32;scalar=64";
    class       volVectorField;
    location    "0.05";
    object      stored_U;
}
// * * * * * * * * * * * * * * * * * * * * * * * * * * * * * * * * * * * * * //

dimensions      [0 1 -1 0 0 0 0];

internalField   nonuniform List<vector> 
1152
(
(0.00777453 -0.0010743 0.0373085)
(0.000202917 0.000968724 0.0152858)
(0.00199978 -7.56089e-05 0.0173251)
(0.00314836 0.00122663 0.0132413)
(0.00286796 0.000364858 0.0141495)
(0.000964713 0.00256339 0.0219979)
(0.00158146 0.00137123 0.009939)
(0.00337173 0.00254022 0.0140443)
(0.00272521 0.0027816 0.0181891)
(0.0020886 0.00254842 0.0149584)
(0.001767 0.00452451 0.0130379)
(0.00259132 0.00336076 0.0214975)
(0.000827558 0.00218608 0.0072566)
(0.00355546 0.00179744 0.0204783)
(0.0046682 0.00236316 0.0275187)
(0.000935581 -0.0022449 0.0253988)
(-0.000833114 -9.19413e-07 0.0134419)
(0.000378789 -0.000251715 0.0141478)
(0.00122511 0.00302049 0.0171175)
(0.00199473 0.000537296 0.0142526)
(-0.00185719 0.00101703 0.0206459)
(0.00158996 0.00117664 0.0124536)
(0.00251137 0.00119521 0.0161679)
(0.000437868 0.000978367 0.0244665)
(-0.000614961 0.00278834 0.024386)
(0.000869931 0.00222064 0.0249389)
(0.000609865 -0.00185173 0.0190903)
(0.00294478 -7.2117e-05 0.0173299)
(0.000915651 0.00159941 0.0162327)
(-0.000511577 0.000312576 0.00551213)
(-0.000267972 -7.91055e-05 0.000885354)
(0.00581211 0.00420853 0.0215115)
(-0.00383134 0.00142571 0.0588155)
(-0.000736655 -0.000349248 0.0162091)
(-0.000146504 0.000231042 0.028101)
(-8.31158e-05 7.76677e-05 0.00290576)
(-0.000158765 -0.00013731 0.0118377)
(0.000777801 -0.00119466 0.0215214)
(0.00116213 -0.000497033 0.033285)
(0.000739998 -0.000206948 0.0302903)
(-0.00134189 -0.000965621 0.0192295)
(-0.000229832 0.000185786 0.0259463)
(0.00135566 -0.00161368 0.0224212)
(0.00172648 -0.000172651 0.0152995)
(0.00168294 -0.00880516 0.0310977)
(0.000314527 -0.00082094 0.0377572)
(-0.000123205 0.000549969 0.0464246)
(3.75296e-05 0.000136997 0.00151788)
(0.000253932 0.000248956 0.00518365)
(0.0032264 -0.000587289 0.0313839)
(0.00021344 -0.000409147 0.0111904)
(-0.00191123 -0.000157108 0.0205769)
(0.000793371 0.00256016 0.0197229)
(-0.000940314 0.000814506 0.0108708)
(0.000268323 -0.000458813 0.0375619)
(0.00123937 0.000506775 0.0242206)
(0.000295737 -0.000946699 0.032803)
(-0.000659336 0.0013642 0.0152983)
(4.58839e-05 0.00144133 0.020018)
(0.000494708 0.000913043 0.0160894)
(-0.000143128 0.000218654 0.00156142)
(0.000272383 0.00191165 0.0277986)
(-3.80931e-05 0.00148654 0.0265005)
(-3.61182e-05 -0.00168314 0.0139272)
(0.000821512 0.000367989 0.0378375)
(-5.93334e-05 -0.000328538 0.0193545)
(0.000746792 -0.0005935 0.0306338)
(-0.000610004 -0.000639541 0.0216272)
(0.00129344 -0.00251816 0.029289)
(-0.00144399 0.000350883 0.0150969)
(-0.00068732 0.000265521 0.0163856)
(0.00113709 -0.000436904 0.0232892)
(0.000252885 -0.000658568 0.00431336)
(0.00364117 -0.00119342 0.0379774)
(-0.000243521 0.000629628 0.0109571)
(-0.00110575 0.00261571 0.0302465)
(0.00880652 0.00989012 0.0419337)
(-6.20268e-05 9.46862e-07 0.00152876)
(0.00396535 0.00048972 0.0514878)
(-0.00131871 0.00131703 0.023387)
(0.000155382 -0.00031405 0.00250344)
(-0.00157348 -0.0011265 0.0183819)
(-0.000418229 -0.000838266 0.0112067)
(0.00295632 -0.000461489 0.0225966)
(0.00373523 -0.00388131 0.0284658)
(0.000226831 -0.000291473 0.00627878)
(-0.000635616 0.000281191 0.0179825)
(6.06113e-05 -1.91263e-05 0.00584689)
(0.000721687 -0.00177499 0.0122567)
(0.000895024 -0.0016098 0.0188543)
(-7.02389e-06 0.00116376 0.0145196)
(-0.000291801 0.000842246 0.00935686)
(-0.000105516 -0.00151263 0.010407)
(0.00371484 -0.00234039 0.0139416)
(0.00156234 -0.00100079 0.0130515)
(-0.00104581 0.000242927 0.0190855)
(-0.000110317 -0.00019637 0.0151443)
(0.000147495 5.5359e-05 0.0179258)
(-0.000102319 -0.000125741 0.00952468)
(-0.000427283 9.40638e-05 0.0206776)
(-0.000341584 0.000677594 0.0202489)
(4.7593e-07 0.000115592 0.0076001)
(-0.000226001 -3.08022e-05 0.0137269)
(-0.000119001 0.000239913 0.00719298)
(-0.00168807 0.00128825 0.00814639)
(3.34833e-06 -0.00093153 0.0262891)
(-2.81499e-05 -0.000183835 0.00762974)
(-0.000269707 -0.000113351 0.014808)
(-0.000161478 0.000320773 0.014059)
(0.00250476 -0.00374575 0.0108672)
(-0.000265171 -0.000316566 0.0368072)
(-0.000310703 0.000207782 0.0191437)
(-0.000651781 0.000519649 0.0251543)
(-0.000241334 0.000428027 0.0225415)
(-0.000732911 -8.26692e-05 0.017588)
(-0.000905649 -0.000387999 0.0235972)
(-0.000321978 0.000717563 0.0264299)
(-0.000741103 4.23689e-05 0.0175879)
(-0.00106268 -8.06184e-05 0.0180463)
(-0.00136079 4.55161e-05 0.0134266)
(-5.8664e-05 0.000761002 0.020109)
(-0.000956056 0.000233977 0.0290448)
(-0.000758067 -0.00103936 0.0194909)
(-0.00130413 -0.000396063 0.018315)
(-0.000250743 -1.60247e-05 0.0171098)
(-0.00214164 0.000658305 0.023177)
(-0.00187832 0.000449679 0.0308001)
(-0.000404279 0.00062369 0.0246283)
(-0.000172779 0.000127598 0.00602478)
(0.0002882 0.000510622 0.00563111)
(-0.000292285 0.000435707 0.00470226)
(-0.000807686 0.000823664 0.00564359)
(-0.00018137 0.000445339 0.00601241)
(0.000191849 -0.000356137 0.00489345)
(-7.86512e-05 -0.000163119 0.00456099)
(-0.000875851 0.000344239 0.00411605)
(0.000299926 0.000567813 0.00595405)
(-0.000295537 -0.000436413 0.00682767)
(0.000356808 -0.00111549 0.00525843)
(-0.000483917 -0.000906686 0.00493559)
(-0.000447935 0.000570232 0.00585719)
(-0.00147495 0.000732309 0.00604811)
(-0.000648553 0.000501007 0.00763467)
(-0.000176554 -3.85427e-05 0.00645252)
(-0.000102068 7.35304e-05 0.0129705)
(6.94437e-05 0.000150401 0.0127839)
(-9.70868e-05 5.5239e-05 0.0123441)
(-0.000308927 6.14799e-05 0.0126396)
(-0.000110635 7.05975e-05 0.0128518)
(6.77029e-07 -0.000165275 0.0124917)
(-0.000111025 -0.000172361 0.0121883)
(-0.000470644 -5.55773e-05 0.0120349)
(1.99565e-05 6.91648e-05 0.0129016)
(-0.00016563 -0.000224916 0.0132806)
(-1.96567e-05 -0.000493124 0.0125869)
(-0.000390678 -0.000451097 0.0123966)
(-0.000274538 0.000276674 0.0127548)
(-0.000575369 0.000265983 0.013133)
(-0.000388772 0.000138932 0.0134057)
(-0.000351039 -6.62157e-05 0.0130838)
(-7.67356e-05 5.37603e-05 0.0107431)
(-5.64978e-05 9.02288e-05 0.0106916)
(-0.000143432 6.22367e-05 0.0105223)
(-0.000291347 0.000111714 0.0105794)
(-8.96784e-05 3.10243e-05 0.0106948)
(-7.95373e-05 -2.7932e-05 0.010618)
(-0.000145766 -4.23718e-05 0.0105027)
(-0.000314596 1.12011e-05 0.0104863)
(-6.86338e-05 2.11897e-05 0.010767)
(-0.000129514 -7.24674e-05 0.010874)
(-0.000121514 -0.000155106 0.0106867)
(-0.000267896 -0.00013773 0.0106531)
(-0.000181588 0.00012586 0.0107376)
(-0.000263541 9.39067e-05 0.0108698)
(-0.000230676 4.43206e-05 0.0109569)
(-0.000266748 -2.16709e-05 0.0109132)
(-5.94605e-05 3.0748e-05 0.0111355)
(-5.73127e-05 3.95714e-05 0.0111314)
(-8.23915e-05 9.46025e-06 0.0110841)
(-0.000134941 4.5202e-06 0.011119)
(-7.23634e-05 1.93306e-05 0.0111168)
(-7.72038e-05 -8.65591e-07 0.0111104)
(-0.000105095 -2.33964e-05 0.0110814)
(-0.000171523 -2.28186e-05 0.0111)
(-7.62996e-05 1.90234e-05 0.011146)
(-0.000100096 -1.64733e-05 0.0111832)
(-0.000112286 -4.97544e-05 0.0111462)
(-0.000168476 -5.48442e-05 0.0111543)
(-0.000119563 6.30392e-05 0.0111328)
(-0.000148488 4.32797e-05 0.011194)
(-0.000149986 2.22304e-05 0.0112271)
(-0.000179438 8.08824e-07 0.0112402)
(-4.99618e-05 1.82422e-05 0.0111128)
(-5.57856e-05 2.24592e-05 0.0111148)
(-6.89184e-05 7.28136e-06 0.0110925)
(-9.32532e-05 6.20523e-06 0.0110876)
(-5.82312e-05 1.55006e-05 0.0111125)
(-6.6559e-05 8.24501e-06 0.0111184)
(-8.16195e-05 -4.4763e-06 0.0111113)
(-0.000109093 -6.4319e-06 0.0111167)
(-6.414e-05 1.71493e-05 0.0111248)
(-7.64601e-05 4.36112e-06 0.0111428)
(-8.74426e-05 -8.72704e-06 0.0111418)
(-0.000108944 -1.24171e-05 0.0111511)
(-8.01444e-05 3.36419e-05 0.0111168)
(-9.35329e-05 2.56993e-05 0.0111491)
(-0.000100659 1.71084e-05 0.0111682)
(-0.000114914 1.18657e-05 0.0111849)
(-3.96235e-05 1.08371e-05 0.0111156)
(-4.45417e-05 1.26453e-05 0.0111195)
(-4.99712e-05 4.21985e-06 0.0111087)
(-5.85966e-05 1.78396e-06 0.0110967)
(-4.45696e-05 1.12337e-05 0.0111226)
(-5.06584e-05 7.88285e-06 0.0111299)
(-5.78374e-05 5.81896e-07 0.0111293)
(-6.80949e-05 -1.983e-06 0.0111284)
(-4.84062e-05 1.31081e-05 0.0111283)
(-5.55269e-05 8.5019e-06 0.01114)
(-6.16786e-05 2.63225e-06 0.0111453)
(-6.93542e-05 3.34646e-07 0.0111497)
(-5.41481e-05 1.90538e-05 0.0111242)
(-6.13835e-05 1.66416e-05 0.0111418)
(-6.66553e-05 1.37211e-05 0.0111543)
(-7.23343e-05 1.29747e-05 0.0111638)
(-3.01993e-05 6.81026e-06 0.0111193)
(-3.34406e-05 7.63568e-06 0.0111214)
(-3.56285e-05 3.14308e-06 0.0111119)
(-3.81414e-05 1.27196e-06 0.0110931)
(-3.30012e-05 7.80427e-06 0.0111296)
(-3.68715e-05 6.08463e-06 0.0111346)
(-4.01115e-05 2.12982e-06 0.0111334)
(-4.35408e-05 3.42305e-07 0.0111257)
(-3.50359e-05 9.3307e-06 0.0111337)
(-3.92941e-05 7.55489e-06 0.0111413)
(-4.22965e-05 4.93846e-06 0.0111449)
(-4.45819e-05 3.70666e-06 0.011143)
(-3.70417e-05 1.15683e-05 0.0111321)
(-4.13573e-05 1.10941e-05 0.0111421)
(-4.41996e-05 1.03442e-05 0.0111492)
(-4.60164e-05 1.05673e-05 0.0111509)
(-2.23867e-05 4.43402e-06 0.0111216)
(-2.42665e-05 4.82909e-06 0.0111215)
(-2.49719e-05 2.48317e-06 0.0111112)
(-2.51114e-05 1.1053e-06 0.0110882)
(-2.39555e-05 5.28331e-06 0.0111332)
(-2.62021e-05 4.32898e-06 0.0111359)
(-2.75023e-05 2.20922e-06 0.0111326)
(-2.82099e-05 1.0599e-06 0.0111203)
(-2.50214e-05 6.38481e-06 0.0111374)
(-2.74495e-05 5.64204e-06 0.011142)
(-2.87258e-05 4.45656e-06 0.0111428)
(-2.90199e-05 3.80238e-06 0.0111362)
(-2.56437e-05 7.30821e-06 0.0111371)
(-2.81627e-05 7.41864e-06 0.0111429)
(-2.94599e-05 7.38115e-06 0.0111459)
(-2.96488e-05 7.71662e-06 0.0111423)
(-1.63037e-05 2.97247e-06 0.0111226)
(-1.73093e-05 3.14804e-06 0.0111207)
(-1.73842e-05 1.95096e-06 0.0111092)
(-1.67185e-05 9.86001e-07 0.0110834)
(-1.72176e-05 3.55884e-06 0.0111349)
(-1.84259e-05 2.98353e-06 0.0111357)
(-1.88109e-05 1.84415e-06 0.0111305)
(-1.85549e-05 1.11735e-06 0.0111151)
(-1.77633e-05 4.30899e-06 0.0111394)
(-1.90947e-05 3.98096e-06 0.0111419)
(-1.9511e-05 3.41546e-06 0.0111403)
(-1.9135e-05 3.05417e-06 0.0111306)
(-1.79042e-05 4.72491e-06 0.0111399)
(-1.93402e-05 4.96716e-06 0.0111432)
(-1.98079e-05 5.10582e-06 0.0111434)
(-1.9398e-05 5.36599e-06 0.0111364)
(-1.17322e-05 2.03084e-06 0.011123)
(-1.22171e-05 2.10333e-06 0.0111198)
(-1.20452e-05 1.48493e-06 0.0111072)
(-1.12232e-05 8.09118e-07 0.0110795)
(-1.22852e-05 2.40838e-06 0.0111356)
(-1.28838e-05 2.03885e-06 0.0111351)
(-1.28744e-05 1.40691e-06 0.0111284)
(-1.23435e-05 9.39027e-07 0.0111109)
(-1.25815e-05 2.91393e-06 0.0111405)
(-1.32663e-05 2.74401e-06 0.0111415)
(-1.32909e-05 2.45611e-06 0.0111382)
(-1.27516e-05 2.24085e-06 0.0111265)
(-1.25729e-05 3.13132e-06 0.0111415)
(-1.33566e-05 3.33789e-06 0.0111432)
(-1.34243e-05 3.47689e-06 0.0111415)
(-1.28659e-05 3.64779e-06 0.0111323)
(-8.34906e-06 1.4024e-06 0.0111231)
(-8.54917e-06 1.43193e-06 0.0111189)
(-8.31305e-06 1.10356e-06 0.0111054)
(-7.56978e-06 6.28114e-07 0.0110766)
(-8.69953e-06 1.63737e-06 0.011136)
(-8.96232e-06 1.39455e-06 0.0111344)
(-8.81233e-06 1.02603e-06 0.0111266)
(-8.27313e-06 7.20623e-07 0.0111079)
(-8.8784e-06 1.97346e-06 0.0111411)
(-9.19361e-06 1.87461e-06 0.011141)
(-9.07339e-06 1.71408e-06 0.0111366)
(-8.56268e-06 1.57955e-06 0.0111235)
(-8.85309e-06 2.13042e-06 0.0111424)
(-9.23295e-06 2.25435e-06 0.011143)
(-9.14063e-06 2.34845e-06 0.01114)
(-8.61523e-06 2.45057e-06 0.0111295)
(-5.85291e-06 9.69549e-07 0.011123)
(-5.9108e-06 9.81605e-07 0.0111182)
(-5.68452e-06 7.9764e-07 0.011104)
(-5.08795e-06 4.66584e-07 0.0110744)
(-6.08198e-06 1.11097e-06 0.011136)
(-6.17489e-06 9.51156e-07 0.0111338)
(-5.99453e-06 7.24568e-07 0.0111252)
(-5.54272e-06 5.27209e-07 0.0111057)
(-6.201e-06 1.32259e-06 0.0111413)
(-6.32029e-06 1.26649e-06 0.0111405)
(-6.16243e-06 1.17182e-06 0.0111353)
(-5.74413e-06 1.08505e-06 0.0111214)
(-6.19605e-06 1.46576e-06 0.0111428)
(-6.33405e-06 1.52203e-06 0.0111427)
(-6.20002e-06 1.57638e-06 0.0111389)
(-5.77264e-06 1.62921e-06 0.0111275)
(-3.98527e-06 6.59363e-07 0.0111229)
(-3.98037e-06 6.63867e-07 0.0111176)
(-3.79376e-06 5.56987e-07 0.011103)
(-3.3518e-06 3.34408e-07 0.0110729)
(-4.13495e-06 7.4084e-07 0.0111359)
(-4.15009e-06 6.36724e-07 0.0111332)
(-3.98763e-06 4.96316e-07 0.0111242)
(-3.64761e-06 3.69323e-07 0.0111042)
(-4.21556e-06 8.6628e-07 0.0111413)
(-4.24073e-06 8.35707e-07 0.0111401)
(-4.09597e-06 7.80529e-07 0.0111343)
(-3.78489e-06 7.23774e-07 0.0111199)
(-4.22607e-06 9.89266e-07 0.011143)
(-4.24195e-06 1.011e-06 0.0111424)
(-4.11682e-06 1.039e-06 0.0111381)
(-3.80152e-06 1.06525e-06 0.0111261)
(-2.53515e-06 4.31693e-07 0.0111227)
(-2.50988e-06 4.34519e-07 0.0111172)
(-2.37547e-06 3.74382e-07 0.0111023)
(-2.08044e-06 2.34731e-07 0.0110719)
(-2.62738e-06 4.77489e-07 0.0111359)
(-2.61405e-06 4.13011e-07 0.0111328)
(-2.49237e-06 3.29415e-07 0.0111235)
(-2.26343e-06 2.51446e-07 0.0111031)
(-2.67735e-06 5.48285e-07 0.0111413)
(-2.66834e-06 5.32386e-07 0.0111397)
(-2.5591e-06 5.01432e-07 0.0111337)
(-2.35173e-06 4.6682e-07 0.0111189)
(-2.68862e-06 6.35105e-07 0.0111431)
(-2.66509e-06 6.46386e-07 0.0111421)
(-2.56973e-06 6.61102e-07 0.0111375)
(-2.36068e-06 6.74874e-07 0.0111252)
(-1.31756e-06 2.60821e-07 0.0111226)
(-1.29666e-06 2.66322e-07 0.0111169)
(-1.21977e-06 2.39653e-07 0.0111018)
(-1.06199e-06 1.66118e-07 0.0110712)
(-1.36451e-06 2.85953e-07 0.0111358)
(-1.34997e-06 2.53036e-07 0.0111326)
(-1.28131e-06 2.11509e-07 0.0111231)
(-1.16051e-06 1.69407e-07 0.0111025)
(-1.38888e-06 3.22827e-07 0.0111413)
(-1.37739e-06 3.16382e-07 0.0111395)
(-1.31651e-06 3.01803e-07 0.0111333)
(-1.20868e-06 2.83969e-07 0.0111183)
(-1.39377e-06 3.69361e-07 0.0111431)
(-1.37359e-06 3.78308e-07 0.011142)
(-1.32118e-06 3.86283e-07 0.0111372)
(-1.21282e-06 3.93593e-07 0.0111246)
(-1.46483e-07 8.32149e-08 0.0111226)
(-1.5109e-07 9.88264e-08 0.0111168)
(-1.48948e-07 1.05052e-07 0.0111016)
(-1.31863e-07 9.67338e-08 0.011071)
(-1.50618e-07 8.66399e-08 0.0111358)
(-1.57205e-07 8.59941e-08 0.0111325)
(-1.58324e-07 8.36146e-08 0.0111229)
(-1.5394e-07 8.13702e-08 0.0111023)
(-1.5045e-07 9.2622e-08 0.0111413)
(-1.57887e-07 9.7283e-08 0.0111395)
(-1.61292e-07 9.98663e-08 0.0111332)
(-1.61123e-07 1.02821e-07 0.0111181)
(-1.47242e-07 9.99179e-08 0.0111432)
(-1.51716e-07 1.06992e-07 0.0111419)
(-1.57543e-07 1.13426e-07 0.011137)
(-1.56867e-07 1.21126e-07 0.0111245)
(0.00213448 -0.0012739 0.0218591)
(0.000418618 0.000774376 0.0107654)
(0.00133864 0.00145403 0.0104782)
(0.00373143 0.0010747 0.0155206)
(0.000950545 7.28119e-05 0.0127743)
(0.00348945 0.000529416 0.0210448)
(0.00341723 0.00333271 0.0266878)
(0.0030863 3.9461e-05 0.0166527)
(-0.000253499 0.00121697 0.0166237)
(0.000751165 -0.00026609 0.00880663)
(0.00490744 -0.000799125 0.0190676)
(0.00398787 -0.0014448 0.0221688)
(0.00175774 0.000812508 0.0186559)
(0.000387267 0.0012397 0.018862)
(0.00249919 -0.000632365 0.0157876)
(0.00098476 -0.000160962 0.00626576)
(-0.000907705 0.00231136 0.0167153)
(0.0033551 -0.000533705 0.0254807)
(0.00187769 -0.00113435 0.0199907)
(0.00179657 -0.000406591 0.0313115)
(-0.00129969 0.00243592 0.0159257)
(0.000567876 0.000308304 0.0216871)
(0.00143873 -0.000217437 0.01619)
(0.00205614 -0.000484566 0.015209)
(0.000463828 0.00126009 0.0255228)
(-0.000117594 0.000562563 0.0174275)
(-0.000188707 0.000359219 0.0246591)
(0.00180506 0.00162914 0.0181502)
(-0.00229208 -0.000188814 0.0257099)
(0.000132902 -0.000481052 0.00909157)
(0.0010764 0.00129444 0.015488)
(0.00288897 0.0029068 0.0217849)
(-0.00051056 0.00078425 0.0168815)
(0.00166749 0.000444732 0.0258004)
(0.00100177 0.00047288 0.0228647)
(0.00135409 0.000399637 0.0286693)
(0.000122865 0.0030968 0.02107)
(0.00136319 0.000950182 0.0250746)
(0.000914874 0.000184921 0.0304101)
(0.000649998 0.000449848 0.0317132)
(-0.000347285 0.00134888 0.024221)
(-5.09295e-05 0.00089369 0.0219083)
(-1.78499e-05 0.0018477 0.0279153)
(-0.000256231 0.000775849 0.00941034)
(-0.000184544 0.000174407 0.00106012)
(0.00245711 0.00243328 0.0371655)
(0.000177878 0.000403742 0.00427105)
(-0.00139245 0.00208937 0.0408078)
(3.19022e-05 0.000110016 0.00614861)
(-7.16665e-05 -0.000739813 0.0296711)
(0.00015772 -0.000979559 0.020101)
(-0.000502467 -0.00192561 0.0407487)
(0.000167572 -2.84407e-05 0.00947188)
(-0.00058471 -0.00129017 0.026668)
(-2.21537e-05 -0.000678154 0.0280199)
(-0.000272333 0.0006156 0.0113566)
(0.000493592 -0.0023496 0.0347295)
(5.28605e-05 0.000620326 0.0223365)
(0.000337831 0.00135568 0.0250228)
(-0.000892442 0.00123123 0.0191166)
(0.00137694 -0.00182236 0.0177034)
(0.000186644 0.000340779 0.00632355)
(0.000625865 0.000355023 0.0351778)
(-0.00112048 -0.000323271 0.023942)
(0.000387233 0.000221607 0.0187576)
(-0.00202602 -0.000406637 0.0278123)
(-0.00181834 -1.92306e-05 0.03164)
(-6.14523e-05 0.00285717 0.0344953)
(0.000917962 -0.00209828 0.0249286)
(-0.00186375 0.000100669 0.021091)
(-0.00037249 0.000479302 0.0163193)
(-0.000500792 0.000617784 0.0156238)
(0.000823785 -0.00256462 0.0329751)
(-0.00014772 -4.72749e-05 0.0108023)
(-0.00121965 -0.000434788 0.033058)
(0.000245725 -0.000887127 0.0219963)
(-0.000341744 -2.47343e-06 0.0162236)
(-0.00114817 -0.00202762 0.0385762)
(-9.5662e-05 0.000109654 0.00717547)
(0.000468268 0.00071506 0.0411167)
(6.18341e-05 2.11289e-05 0.000337419)
(-0.00424231 0.00136172 0.02163)
(-0.000273737 0.000191321 0.00942569)
(0.00138424 0.000677675 0.0175742)
(0.00124971 -0.000723928 0.0232072)
(-0.00216852 0.0017866 0.01496)
(-0.00217135 0.00216225 0.0185374)
(0.000782784 0.00338177 0.019618)
(-0.00013074 0.000573816 0.00788112)
(-0.00192525 0.000523108 0.0198365)
(-0.00125678 0.00256624 0.0142698)
(-0.000579349 0.000970593 0.0132924)
(0.000596697 -0.000415436 0.0116511)
(-0.000495541 -5.85237e-05 0.00670975)
(-0.00112634 -0.000454466 0.0155128)
(6.95326e-05 0.000173492 0.0111178)
(0.000148006 0.000326923 0.00624483)
(0.000305515 -0.000335112 0.011372)
(-0.000427644 -9.78636e-05 0.0132722)
(-0.000769266 0.000256306 0.0208584)
(0.00154899 0.000756525 0.0181284)
(0.00034759 5.84446e-05 0.0176961)
(-8.4591e-05 -0.000107628 0.00667294)
(-0.000246016 -0.000229031 0.00593683)
(0.000910785 0.000828671 0.0164829)
(0.000412673 0.00036245 0.0153629)
(-0.000169064 -0.000339807 0.0177319)
(0.000172336 -0.000632925 0.022995)
(0.00172676 0.000547124 0.0162045)
(0.000340143 0.000468231 0.0148844)
(-0.000148055 0.000480703 0.0155437)
(-0.00015633 -0.000189538 0.0137138)
(-0.000578962 0.000188485 0.0248901)
(0.000668391 -0.000247186 0.0225548)
(-0.000725032 -0.000519592 0.0198188)
(-0.00110543 -0.000586015 0.0262024)
(-0.000407532 0.000189083 0.025537)
(0.000582206 -0.000494011 0.0247756)
(-0.00023362 -0.00083705 0.0159162)
(-0.00090601 -0.00105262 0.018729)
(-2.09324e-06 1.48693e-05 0.0214506)
(9.17587e-05 -0.000215652 0.0232566)
(-0.00038476 -0.000945242 0.0228914)
(-0.000619622 -0.000982187 0.0233508)
(-0.000392806 0.000191447 0.0212367)
(-5.6177e-05 -0.000101515 0.0224547)
(-0.000418609 -0.000198667 0.0216259)
(-0.000693372 -0.000712724 0.0224197)
(0.000744047 0.000126348 0.00516963)
(0.000226452 0.000199183 0.00502753)
(-0.000445835 5.53009e-05 0.00449219)
(-0.00107036 -9.30495e-05 0.00609547)
(-9.02277e-05 0.000504437 0.00596502)
(0.000404538 0.000533466 0.00577089)
(-8.07335e-05 -0.000151614 0.00424881)
(-0.00119485 -4.69884e-05 0.0051806)
(-0.000131244 0.00052454 0.00577543)
(-0.000143045 0.00055009 0.0058399)
(-0.000182153 -0.0003633 0.00538039)
(-0.000712973 -0.000126118 0.00572542)
(-0.000242931 1.37666e-05 0.00579264)
(-0.000135921 0.000397898 0.00565977)
(-0.000385042 0.000281537 0.0053848)
(-0.000719988 0.000162564 0.00564057)
(0.000249161 -8.18139e-05 0.0125365)
(9.85463e-05 -2.06324e-05 0.0129494)
(-3.81435e-05 -7.77733e-05 0.0122712)
(-0.000418108 -0.000232117 0.0131289)
(-4.2663e-05 -3.46665e-05 0.0129098)
(0.000177721 5.55277e-05 0.0130918)
(8.35445e-05 -0.000194567 0.0122014)
(-0.000445485 -0.000211142 0.0128351)
(-7.29812e-05 0.000108191 0.0128558)
(1.8291e-05 0.000193543 0.0130376)
(3.41199e-05 -0.000143784 0.0126156)
(-0.000339938 -0.000120732 0.0128878)
(-0.000112322 1.81366e-05 0.0128207)
(2.81144e-06 0.000146732 0.012858)
(-4.0681e-05 6.20108e-06 0.0125818)
(-0.000287041 -0.000107276 0.012804)
(6.16479e-05 5.36863e-07 0.0102121)
(-7.31822e-05 2.86733e-05 0.0104461)
(-0.000120348 -2.97061e-05 0.0100891)
(-0.00028339 -0.000111555 0.0103946)
(-4.4158e-05 1.38928e-05 0.0105362)
(-6.0293e-05 8.65405e-05 0.0106457)
(-0.000120477 -5.17221e-05 0.0102528)
(-0.000342311 -5.1555e-05 0.0104557)
(-6.65678e-05 2.50767e-05 0.0106546)
(-8.74041e-05 9.68875e-05 0.010712)
(-0.000127423 -6.17264e-05 0.0104577)
(-0.000301685 -1.15713e-05 0.0105217)
(-8.20327e-05 1.39833e-05 0.0106934)
(-8.7605e-05 7.7442e-05 0.0106892)
(-0.000147791 -1.1942e-05 0.0105196)
(-0.000271308 7.86006e-06 0.0105418)
(1.0047e-05 -1.87987e-05 0.0107845)
(-3.58388e-05 1.19302e-08 0.0109478)
(-2.60454e-05 -2.50182e-05 0.0107842)
(-0.00011826 -7.37466e-05 0.0109689)
(-2.87664e-05 -2.67318e-05 0.0109526)
(-3.8848e-05 1.74589e-05 0.0110526)
(-3.46771e-05 -4.57158e-05 0.0108998)
(-0.00014063 -5.5634e-05 0.0110436)
(-4.35201e-05 -9.53908e-07 0.0110583)
(-4.83281e-05 4.11416e-05 0.0111124)
(-4.87496e-05 -3.00944e-05 0.0110152)
(-0.000135437 -2.248e-05 0.0110936)
(-5.3482e-05 1.06533e-05 0.0111077)
(-5.37147e-05 3.39308e-05 0.0111269)
(-6.35983e-05 -2.3305e-05 0.0110699)
(-0.000120156 -3.08525e-05 0.0111129)
(-1.36719e-05 -9.44602e-06 0.0107741)
(-3.78599e-05 -9.25281e-07 0.0108537)
(-3.26336e-05 -1.72394e-05 0.0107472)
(-7.38126e-05 -4.02426e-05 0.0108041)
(-2.99965e-05 -1.46853e-05 0.0109344)
(-4.37984e-05 7.75249e-06 0.0109829)
(-4.25315e-05 -2.56265e-05 0.0108889)
(-8.98024e-05 -2.79456e-05 0.0109206)
(-3.83967e-05 -3.76293e-06 0.0110359)
(-4.76251e-05 1.67371e-05 0.0110585)
(-5.04853e-05 -1.95811e-05 0.0109922)
(-8.78819e-05 -1.27181e-05 0.0109957)
(-4.47508e-05 5.09572e-06 0.0110872)
(-5.15968e-05 1.34328e-05 0.0110949)
(-5.86396e-05 -1.88842e-05 0.0110548)
(-8.06668e-05 -1.84491e-05 0.0110442)
(-1.71446e-05 -5.1803e-06 0.0107991)
(-2.76649e-05 -1.93358e-06 0.01084)
(-2.2309e-05 -1.11339e-05 0.0107818)
(-4.05765e-05 -2.36625e-05 0.010804)
(-2.62663e-05 -8.05057e-06 0.0109427)
(-3.40611e-05 1.49663e-06 0.010967)
(-3.0631e-05 -1.64241e-05 0.010915)
(-5.05142e-05 -1.88898e-05 0.0109195)
(-3.1538e-05 -2.86278e-06 0.0110369)
(-3.74042e-05 6.01371e-06 0.0110481)
(-3.68163e-05 -1.26706e-05 0.0110097)
(-5.14007e-05 -1.00513e-05 0.0109989)
(-3.58653e-05 2.48139e-06 0.0110893)
(-4.07574e-05 4.49316e-06 0.0110942)
(-4.26124e-05 -1.36454e-05 0.0110707)
(-4.88042e-05 -1.44969e-05 0.0110527)
(-1.54166e-05 -2.87736e-06 0.0108119)
(-2.01472e-05 -2.13003e-06 0.0108288)
(-1.67549e-05 -7.50577e-06 0.0107899)
(-2.39332e-05 -1.37848e-05 0.0107865)
(-2.12634e-05 -4.23399e-06 0.0109493)
(-2.53151e-05 -6.90735e-07 0.0109576)
(-2.26932e-05 -1.03772e-05 0.0109206)
(-3.05166e-05 -1.15847e-05 0.0109044)
(-2.47164e-05 -1.44488e-06 0.0110399)
(-2.80953e-05 1.93552e-06 0.0110423)
(-2.69796e-05 -7.92348e-06 0.0110128)
(-3.17456e-05 -6.58022e-06 0.0109883)
(-2.76927e-05 1.5248e-06 0.0110923)
(-3.06803e-05 1.1031e-06 0.011093)
(-3.08735e-05 -9.20325e-06 0.0110734)
(-3.09127e-05 -9.90085e-06 0.0110465)
(-1.23245e-05 -1.61077e-06 0.0108188)
(-1.43469e-05 -1.84693e-06 0.0108225)
(-1.209e-05 -4.98544e-06 0.0107928)
(-1.43854e-05 -8.26838e-06 0.0107772)
(-1.63446e-05 -2.18422e-06 0.0109534)
(-1.82437e-05 -1.28174e-06 0.0109522)
(-1.63063e-05 -6.58436e-06 0.0109215)
(-1.88124e-05 -7.30276e-06 0.0108952)
(-1.87023e-05 -5.60421e-07 0.0110421)
(-2.04233e-05 3.68193e-07 0.0110388)
(-1.92511e-05 -4.91281e-06 0.0110125)
(-1.9993e-05 -4.22806e-06 0.0109807)
(-2.07555e-05 1.06229e-06 0.0110942)
(-2.2367e-05 -1.23962e-07 0.0110916)
(-2.18821e-05 -6.06435e-06 0.0110727)
(-1.9872e-05 -6.62433e-06 0.0110408)
(-9.34644e-06 -9.07797e-07 0.0108219)
(-1.01229e-05 -1.44325e-06 0.0108184)
(-8.61967e-06 -3.31701e-06 0.0107926)
(-8.88846e-06 -5.0201e-06 0.0107703)
(-1.21864e-05 -1.10281e-06 0.0109552)
(-1.29726e-05 -1.24632e-06 0.0109486)
(-1.15755e-05 -4.1925e-06 0.0109202)
(-1.19106e-05 -4.58343e-06 0.010888)
(-1.38213e-05 -1.07756e-07 0.011043)
(-1.46045e-05 -1.5465e-07 0.0110361)
(-1.35832e-05 -3.03591e-06 0.0110105)
(-1.28478e-05 -2.68502e-06 0.0109745)
(-1.52333e-05 7.87053e-07 0.011095)
(-1.60249e-05 -4.70014e-07 0.01109)
(-1.53817e-05 -3.98504e-06 0.0110706)
(-1.29672e-05 -4.39875e-06 0.0110356)
(-6.87883e-06 -5.20575e-07 0.0108233)
(-7.08876e-06 -1.0638e-06 0.0108158)
(-6.06179e-06 -2.20849e-06 0.0107914)
(-5.60737e-06 -3.1124e-06 0.0107655)
(-8.89339e-06 -5.45853e-07 0.010956)
(-9.13608e-06 -1.01511e-06 0.0109461)
(-8.13617e-06 -2.69546e-06 0.0109183)
(-7.6845e-06 -2.91126e-06 0.0108829)
(-1.00393e-05 9.22727e-08 0.0110433)
(-1.03239e-05 -2.79092e-07 0.0110341)
(-9.5086e-06 -1.88372e-06 0.0110085)
(-8.39282e-06 -1.68396e-06 0.0109699)
(-1.10165e-05 5.92822e-07 0.0110952)
(-1.13417e-05 -4.97577e-07 0.0110886)
(-1.07296e-05 -2.63131e-06 0.0110685)
(-8.56057e-06 -2.9198e-06 0.0110315)
(-4.95521e-06 -3.03048e-07 0.0108238)
(-4.9281e-06 -7.59559e-07 0.010814)
(-4.21553e-06 -1.46843e-06 0.0107901)
(-3.59885e-06 -1.96483e-06 0.0107622)
(-6.38205e-06 -2.60877e-07 0.0109561)
(-6.38006e-06 -7.61635e-07 0.0109444)
(-5.66724e-06 -1.74425e-06 0.0109165)
(-5.02622e-06 -1.87303e-06 0.0108793)
(-7.18475e-06 1.63657e-07 0.0110433)
(-7.22943e-06 -2.56109e-07 0.0110327)
(-6.61033e-06 -1.17773e-06 0.0110066)
(-5.54658e-06 -1.04809e-06 0.0109665)
(-7.86374e-06 4.48318e-07 0.0110952)
(-7.95172e-06 -4.13465e-07 0.0110875)
(-7.43401e-06 -1.74322e-06 0.0110667)
(-5.69442e-06 -1.9315e-06 0.0110285)
(-3.49135e-06 -1.77256e-07 0.0108238)
(-3.38435e-06 -5.26529e-07 0.0108128)
(-2.88709e-06 -9.68761e-07 0.0107888)
(-2.3273e-06 -1.24975e-06 0.0107599)
(-4.49157e-06 -1.1642e-07 0.010956)
(-4.39884e-06 -5.42527e-07 0.0109431)
(-3.89374e-06 -1.12808e-06 0.010915)
(-3.30325e-06 -1.20639e-06 0.0108768)
(-5.05073e-06 1.70319e-07 0.0110431)
(-4.99501e-06 -1.94343e-07 0.0110316)
(-4.53679e-06 -7.3755e-07 0.0110051)
(-3.67272e-06 -6.49036e-07 0.0109641)
(-5.52144e-06 3.35607e-07 0.011095)
(-5.50233e-06 -3.06981e-07 0.0110866)
(-5.09157e-06 -1.15507e-06 0.0110653)
(-3.78353e-06 -1.27707e-06 0.0110263)
(-2.37889e-06 -1.02648e-07 0.0108237)
(-2.26269e-06 -3.5131e-07 0.010812)
(-1.92196e-06 -6.24596e-07 0.0107879)
(-1.48855e-06 -7.85574e-07 0.0107583)
(-3.06231e-06 -4.57188e-08 0.0109558)
(-2.95258e-06 -3.67052e-07 0.0109423)
(-2.60256e-06 -7.18102e-07 0.0109139)
(-2.14235e-06 -7.64266e-07 0.010875)
(-3.44294e-06 1.45801e-07 0.0110429)
(-3.35899e-06 -1.31034e-07 0.0110308)
(-3.03178e-06 -4.56282e-07 0.011004)
(-2.39371e-06 -3.94197e-07 0.0109625)
(-3.7621e-06 2.43401e-07 0.0110948)
(-3.7054e-06 -2.10534e-07 0.0110859)
(-3.3997e-06 -7.53544e-07 0.0110642)
(-2.46871e-06 -8.29266e-07 0.0110247)
(-1.50636e-06 -5.52379e-08 0.0108236)
(-1.4114e-06 -2.14124e-07 0.0108115)
(-1.19066e-06 -3.73202e-07 0.0107872)
(-8.96736e-07 -4.61255e-07 0.0107573)
(-1.94656e-06 -1.08789e-08 0.0109556)
(-1.85404e-06 -2.25219e-07 0.0109417)
(-1.62508e-06 -4.27845e-07 0.0109131)
(-1.3113e-06 -4.51604e-07 0.0108738)
(-2.19053e-06 1.11611e-07 0.0110427)
(-2.1143e-06 -7.35146e-08 0.0110303)
(-1.89628e-06 -2.62266e-07 0.0110032)
(-1.47013e-06 -2.20046e-07 0.0109613)
(-2.39404e-06 1.69451e-07 0.0110946)
(-2.33565e-06 -1.26294e-07 0.0110854)
(-2.12821e-06 -4.60145e-07 0.0110634)
(-1.51596e-06 -5.03813e-07 0.0110236)
(-7.57946e-07 -1.89449e-08 0.0108235)
(-6.98316e-07 -9.35059e-08 0.0108111)
(-5.79822e-07 -1.646e-07 0.0107867)
(-4.23081e-07 -2.00337e-07 0.0107567)
(-1.00197e-06 1.08129e-08 0.0109555)
(-9.42921e-07 -1.00284e-07 0.0109413)
(-8.18378e-07 -1.96424e-07 0.0109126)
(-6.48568e-07 -2.00316e-07 0.0108731)
(-1.1347e-06 8.14754e-08 0.0110426)
(-1.08471e-06 -1.58274e-08 0.01103)
(-9.6433e-07 -1.0732e-07 0.0110027)
(-7.31843e-07 -7.75121e-08 0.0109606)
(-1.24389e-06 1.14105e-07 0.0110945)
(-1.2041e-06 -4.64138e-08 0.0110851)
(-1.08862e-06 -2.22646e-07 0.011063)
(-7.51637e-07 -2.3953e-07 0.011023)
(-9.82943e-09 1.40644e-08 0.0108234)
(-5.79401e-09 2.9579e-08 0.010811)
(1.24015e-09 3.74561e-08 0.0107865)
(1.29429e-08 4.4911e-08 0.0107564)
(-8.07517e-08 1.75237e-08 0.0109554)
(-7.59931e-08 1.39649e-08 0.0109412)
(-6.48458e-08 9.15967e-09 0.0109124)
(-4.63133e-08 2.66126e-08 0.0108728)
(-1.12617e-07 3.48347e-08 0.0110425)
(-1.09847e-07 2.73257e-08 0.0110298)
(-9.70999e-08 1.97545e-08 0.0110025)
(-5.52923e-08 4.74961e-08 0.0109604)
(-1.35836e-07 3.97655e-08 0.0110945)
(-1.34982e-07 4.76882e-09 0.011085)
(-1.21544e-07 -3.46845e-08 0.0110628)
(-4.31621e-08 -2.11061e-08 0.0110227)
(0.00763055 0.00195543 0.0233693)
(0.00451406 0.000314142 0.0191368)
(0.00440023 0.00105707 0.0140071)
(0.00694951 0.00434948 0.0250832)
(0.00371949 0.00150145 0.0222578)
(0.00338559 0.00226953 0.0119348)
(0.000977856 0.000739412 0.00251689)
(0.0043794 0.00237704 0.0146537)
(0.00472271 0.000509491 0.0124522)
(0.00844326 0.00293311 0.0152735)
(0.00645108 0.00583357 0.0242066)
(0.00162735 0.00390183 0.0175595)
(0.00239826 0.000493035 0.00853245)
(0.0104763 -0.000998912 0.020314)
(0.00887826 3.70725e-05 0.0255768)
(0.00317099 0.00238434 0.0335803)
(0.000181174 4.88533e-05 0.00382661)
(0.00169765 0.00558426 0.0298912)
(0.000430613 0.00241138 0.0127053)
(0.000837435 0.00208976 0.0136778)
(0.00277578 0.00130142 0.0144123)
(0.00319555 0.00153568 0.0153472)
(0.00351737 0.00503041 0.0342059)
(0.00319497 0.00766539 0.0368299)
(0.0032095 0.00160827 0.0123661)