/*--------------------------------*- C++ -*----------------------------------*\
| =========                 |                                                 |
| \\      /  F ield         | OpenFOAM: The Open Source CFD Toolbox           |
|  \\    /   O peration     | Version:  2506                                  |
|   \\  /    A nd           | Website:  www.openfoam.com                      |
|    \\/     M anipulation  |                                                 |
\*---------------------------------------------------------------------------*/
FoamFile
{
    version     2.0;
    format      ascii;
    arch        "LSB;label=32;scalar=64";
    class       volVectorField;
    location    "0.05";
    object      U;
}
// * * * * * * * * * * * * * * * * * * * * * * * * * * * * * * * * * * * * * //

dimensions      [0 1 -1 0 0 0 0];

internalField   nonuniform List<vector> 
1152
(
(0.00693918 -0.00223154 0.0368675)
(-0.000287383 0.000706556 0.0151621)
(0.0010232 -3.11088e-05 0.0171597)
(0.00201248 0.00094644 0.0133295)
(0.00265914 2.96968e-05 0.013833)
(0.000781123 0.00293493 0.0212566)
(0.00108123 0.00210108 0.00971882)
(0.00172502 0.00307072 0.0141455)
(0.00308272 0.00230605 0.0174691)
(0.0033453 0.0036496 0.0139333)
(0.0011317 0.0078624 0.0112203)
(-0.00224792 0.00591801 0.0205282)
(0.00156676 0.00175131 0.00684545)
(0.00925393 0.00145708 0.0166352)
(0.00407442 0.00308873 0.019155)
(-0.0087319 -0.00268218 0.0259349)
(-0.00126002 -6.17962e-05 0.0136288)
(0.000165405 -0.000602665 0.0142318)
(0.000837103 0.00265915 0.0172532)
(0.00124662 0.000238585 0.0145654)
(-0.00237222 0.000511092 0.0206367)
(0.00132697 0.000771986 0.0123076)
(0.00206066 0.000727831 0.0160057)
(-0.000561497 0.000755621 0.0242923)
(-0.00114043 0.00149427 0.0241049)
(0.000466068 0.00100994 0.0234027)
(0.000484358 -0.00202795 0.016565)
(0.00190297 0.000878729 0.0167146)
(0.000717355 0.000263305 0.0162031)
(-0.000411996 0.000141085 0.00480404)
(-0.000322082 -7.6247e-05 0.000961767)
(0.00487783 0.00429569 0.0185502)
(-0.00399937 -0.00178963 0.0610324)
(-0.000588941 -0.000907775 0.0169787)
(-0.000322191 -0.00129061 0.0293128)
(-0.000204344 -2.45091e-06 0.00302912)
(-0.000449144 3.61769e-05 0.0120214)
(0.000439151 -0.00233853 0.0223208)
(0.00104905 -0.00423588 0.0343239)
(0.000691781 -0.00209482 0.0323879)
(-0.00214636 -0.00123863 0.0190008)
(-0.00244497 -0.00197732 0.0264726)
(0.00127588 -0.00776711 0.023071)
(0.00206032 -0.00169966 0.0151947)
(-0.0038314 -0.00673635 0.0321389)
(-0.00898371 -0.000266535 0.0375909)
(-0.000742756 0.00113925 0.0459408)
(-9.72151e-05 0.000116213 0.00154057)
(3.45768e-07 0.000191929 0.00543142)
(0.00265066 -0.00169821 0.0332302)
(0.000220788 -0.000765923 0.0120732)
(-0.00180266 -0.000714831 0.0216325)
(-7.03712e-05 0.0018278 0.0209107)
(-0.00118929 0.000393924 0.0116631)
(0.00032908 -0.00248237 0.0408755)
(0.00184684 -0.000233942 0.0260972)
(-0.000901786 -0.00251712 0.0364031)
(-0.00112504 0.000405023 0.017302)
(0.000477266 0.000135154 0.0228645)
(0.000898943 0.000430358 0.0178422)
(1.19252e-05 0.000148945 0.00155962)
(-0.00138892 0.00208328 0.0315647)
(0.00079096 0.00122003 0.0337619)
(0.000326914 -0.00214795 0.0158883)
(0.000257685 6.4876e-05 0.0393567)
(-0.000243833 -0.000502999 0.0203328)
(0.000848502 -0.00109344 0.0325883)
(-0.000119404 -0.000674588 0.0229401)
(0.000502666 -0.00262005 0.0311156)
(-0.00167655 0.000323008 0.0159845)
(-0.000623019 7.2e-05 0.0176839)
(0.00212826 -0.00056981 0.0249394)
(0.000178642 -0.000638998 0.0044865)
(0.00264227 -0.00228447 0.0398042)
(-0.000237279 0.000553418 0.0118521)
(0.000485465 0.00242452 0.0327607)
(0.00544367 0.00828422 0.0440386)
(-0.000101137 0.000181887 0.0014458)
(0.00553796 -5.17505e-05 0.0582293)
(3.77974e-05 0.00116171 0.0257983)
(0.000105594 -0.000367193 0.00261687)
(-0.00173873 -0.0011787 0.019257)
(-0.000439673 -0.000881871 0.0117287)
(0.00318209 -0.000423438 0.0234924)
(0.00363614 -0.00397506 0.0292485)
(0.000237481 -0.000310305 0.0066203)
(-0.000559435 0.000249835 0.0189595)
(0.00014049 -6.63309e-05 0.00608969)
(0.000779 -0.00172428 0.0123146)
(0.000888888 -0.00160152 0.0194576)
(7.26847e-05 0.00113374 0.0154509)
(-8.37051e-05 0.000805464 0.0098549)
(-0.000164812 -0.00160444 0.0116038)
(0.00353685 -0.00245862 0.0147153)
(0.0015699 -0.00108514 0.0137498)
(-0.000684736 0.000157741 0.0205049)
(-0.000112006 -0.000159644 0.0151973)
(0.000264807 0.000102108 0.0185599)
(2.86707e-05 -0.000130419 0.0099957)
(9.36635e-05 0.000184205 0.0213261)
(-0.00034589 0.000654622 0.0206469)
(8.3051e-06 9.33879e-05 0.0078744)
(1.73199e-05 -8.79848e-05 0.0144837)
(0.000130195 0.00020909 0.0075158)
(-0.0016723 0.00121926 0.0082432)
(8.25659e-05 -0.000956014 0.026624)
(8.10795e-05 -0.000267723 0.00800224)
(0.000365202 -0.000150584 0.0153819)
(-2.56608e-05 0.000113763 0.0138531)
(0.00274434 -0.00396736 0.00976622)
(-2.85359e-05 -0.00041773 0.0383197)
(0.000550362 -6.14899e-06 0.0199415)
(-0.000449571 0.000670923 0.0255626)
(7.02178e-05 0.000515509 0.0228626)
(-0.000265078 -1.32585e-05 0.0178203)
(-0.000304045 -0.000254137 0.0237578)
(-0.000144208 0.000810672 0.0265779)
(-0.000460567 0.000116275 0.0176924)
(-0.00058252 -3.73174e-05 0.018307)
(-0.000607332 0.000119033 0.0134884)
(9.06029e-05 0.000733538 0.019997)
(-0.000693066 0.000250202 0.0290567)
(-0.000290898 -0.0010748 0.0198003)
(-0.000485512 -0.000476296 0.0184524)
(-6.6224e-05 -0.000145266 0.0168273)
(-0.00185865 0.000521262 0.0224678)
(-0.00149932 0.000277522 0.0310317)
(0.000327724 0.000367611 0.0248111)
(9.9779e-06 0.000231401 0.00616343)
(0.000570582 0.000616486 0.0057228)
(7.51466e-05 0.000503942 0.00474678)
(-0.000424017 0.0009028 0.00556758)
(2.48368e-05 0.000521494 0.00611266)
(0.000461952 -0.000289785 0.00496837)
(0.000260921 -9.92105e-05 0.00458743)
(-0.000435971 0.000390571 0.00400399)
(0.000511898 0.000616577 0.00601581)
(-2.64817e-05 -0.000426035 0.006891)
(0.000703795 -0.00112656 0.00530341)
(-5.45358e-05 -0.000948208 0.00482097)
(-0.000250387 0.000543733 0.00585319)
(-0.00126374 0.000691941 0.00608004)
(-0.000361428 0.000378213 0.00769243)
(0.000224528 -0.000178662 0.00639836)
(5.13945e-05 0.000127553 0.0131173)
(0.000280414 0.000206732 0.0128971)
(0.0001531 9.57712e-05 0.0123849)
(-6.97588e-05 0.000105386 0.0125972)
(5.379e-05 0.000101663 0.0129722)
(0.000209012 -0.000136444 0.0125654)
(0.000130033 -0.000144924 0.0122107)
(-0.000208242 -3.41479e-05 0.0119719)
(0.000187403 7.60502e-05 0.0129996)
(4.12198e-05 -0.000233191 0.0133573)
(0.000222852 -0.000514027 0.0125927)
(-0.000131851 -0.000486679 0.0123291)
(-0.00011654 0.000238463 0.0128213)
(-0.000395189 0.000226254 0.0131919)
(-0.000175778 5.75408e-05 0.0134294)
(-0.000104459 -0.000152338 0.0130401)
(4.38737e-05 8.00634e-05 0.0108464)
(9.02606e-05 0.000115603 0.0107662)
(1.88425e-05 8.40796e-05 0.0105431)
(-0.000135405 0.000136616 0.0105472)
(3.4747e-05 4.06867e-05 0.0107846)
(6.76821e-05 -1.80059e-05 0.0106737)
(1.78301e-05 -3.23448e-05 0.0105125)
(-0.000147062 2.1609e-05 0.0104422)
(5.72611e-05 1.38189e-05 0.0108495)
(1.74148e-05 -8.43669e-05 0.0109304)
(4.11188e-05 -0.000173279 0.0106904)
(-9.9603e-05 -0.000162577 0.0106082)
(-6.1192e-05 9.49852e-05 0.0108143)
(-0.000127405 5.78801e-05 0.0109235)
(-8.04988e-05 -6.68619e-06 0.0109728)
(-0.000105666 -7.76692e-05 0.0108847)
(3.1012e-05 4.14477e-05 0.0112314)
(4.57271e-05 5.00341e-05 0.0112034)
(2.67048e-05 1.82504e-05 0.0111238)
(-3.27998e-05 1.53056e-05 0.0111242)
(2.06123e-05 2.02281e-05 0.0112059)
(2.69265e-05 5.30787e-07 0.0111751)
(5.25089e-06 -2.16514e-05 0.0111144)
(-6.25794e-05 -2.0253e-05 0.0110973)
(1.61539e-05 8.16817e-06 0.0112335)
(3.71825e-06 -2.93284e-05 0.011247)
(-2.04766e-06 -6.53676e-05 0.0111779)
(-5.83043e-05 -7.25948e-05 0.0111519)
(-2.98915e-05 3.89593e-05 0.0112203)
(-4.92397e-05 1.51925e-05 0.0112598)
(-4.47481e-05 -1.22705e-05 0.0112653)
(-7.23384e-05 -3.73519e-05 0.0112473)
(1.66078e-05 2.14084e-05 0.0112049)
(1.705e-05 2.54471e-05 0.0111891)
(5.35664e-06 9.99067e-06 0.0111454)
(-2.59575e-05 1.10369e-05 0.0111176)
(9.86185e-06 1.28684e-05 0.0112016)
(6.75496e-06 6.03902e-06 0.0111893)
(-6.55716e-06 -6.43913e-06 0.0111608)
(-3.67557e-05 -7.35306e-06 0.0111431)
(3.75106e-06 6.98387e-06 0.0112138)
(-2.98631e-06 -6.87095e-06 0.011214)
(-1.18708e-05 -2.09711e-05 0.0111916)
(-3.55891e-05 -2.5315e-05 0.0111782)
(-1.39357e-05 1.55533e-05 0.0112078)
(-2.23508e-05 5.00623e-06 0.0112232)
(-2.73668e-05 -6.55421e-06 0.0112228)
(-4.27794e-05 -1.3993e-05 0.011218)
(8.75879e-06 1.04915e-05 0.0112071)
(6.80094e-06 1.21716e-05 0.011198)
(9.24273e-07 3.80582e-06 0.0111724)
(-1.32869e-05 2.87101e-06 0.0111454)
(4.80378e-06 7.32501e-06 0.0112131)
(1.09856e-06 4.41571e-06 0.0112071)
(-6.20653e-06 -2.58198e-06 0.011192)
(-1.93029e-05 -4.16804e-06 0.0111758)
(1.07181e-06 4.41985e-06 0.0112192)
(-3.45734e-06 -6.24667e-07 0.0112179)
(-9.47942e-06 -6.67818e-06 0.0112086)
(-1.9625e-05 -8.99519e-06 0.0111978)
(-5.62748e-06 5.58414e-06 0.0112171)
(-1.02684e-05 1.65267e-06 0.0112223)
(-1.52643e-05 -2.65149e-06 0.0112212)
(-2.32009e-05 -4.50455e-06 0.011216)
(4.79159e-06 5.0273e-06 0.0112115)
(2.87649e-06 5.81828e-06 0.0112042)
(-4.22789e-07 1.5574e-06 0.0111845)
(-7.30047e-06 9.01318e-07 0.0111557)
(2.69505e-06 3.75767e-06 0.0112216)
(-1.98623e-07 2.4532e-06 0.0112172)
(-4.24543e-06 -1.17921e-06 0.0112059)
(-1.01832e-05 -2.10259e-06 0.0111879)
(8.63543e-07 2.23297e-06 0.0112265)
(-2.24832e-06 3.55494e-07 0.0112247)
(-5.88475e-06 -2.16338e-06 0.0112182)
(-1.04208e-05 -3.18765e-06 0.011206)
(-1.65622e-06 1.54958e-06 0.0112266)
(-4.69386e-06 2.35984e-07 0.0112276)
(-8.04431e-06 -1.18233e-06 0.0112249)
(-1.21437e-05 -1.4453e-06 0.0112166)
(2.85785e-06 2.23871e-06 0.0112148)
(1.47413e-06 2.66793e-06 0.011208)
(-4.51974e-07 5.93334e-07 0.0111906)
(-3.89337e-06 1.87731e-07 0.0111607)
(1.81207e-06 1.62797e-06 0.0112267)
(-1.43686e-07 1.04361e-06 0.0112227)
(-2.41467e-06 -7.62545e-07 0.0112123)
(-5.19136e-06 -1.19348e-06 0.0111929)
(9.67106e-07 7.75542e-07 0.0112317)
(-1.02951e-06 8.21144e-08 0.0112296)
(-3.15859e-06 -9.12179e-07 0.0112233)
(-5.37685e-06 -1.28266e-06 0.0112096)
(6.36053e-08 -8.17564e-08 0.0112328)
(-1.8674e-06 -4.47163e-07 0.0112321)
(-3.90603e-06 -8.00486e-07 0.0112281)
(-6.02324e-06 -6.35684e-07 0.0112176)
(1.86233e-06 8.57764e-07 0.0112168)
(9.39474e-07 1.11056e-06 0.0112102)
(-2.18472e-07 1.75338e-07 0.0111936)
(-2.0107e-06 -3.68511e-08 0.0111629)
(1.35335e-06 4.84087e-07 0.0112296)
(1.24151e-07 2.31126e-07 0.0112256)
(-1.18912e-06 -6.16851e-07 0.0112154)
(-2.57359e-06 -7.87604e-07 0.011195)
(9.97811e-07 -4.10591e-08 0.0112349)
(-2.34113e-07 -2.61283e-07 0.0112325)
(-1.48673e-06 -6.20096e-07 0.0112259)
(-2.66183e-06 -6.8988e-07 0.0112112)
(6.87485e-07 -6.77599e-07 0.0112366)
(-4.77579e-07 -7.21771e-07 0.0112351)
(-1.69343e-06 -7.25984e-07 0.0112303)
(-2.83428e-06 -4.90259e-07 0.0112183)
(1.29127e-06 1.97448e-07 0.0112182)
(7.04965e-07 3.56007e-07 0.0112115)
(-1.1691e-08 -3.02362e-08 0.0111952)
(-9.93583e-07 -1.30316e-07 0.0111641)
(1.05373e-06 -7.08459e-08 0.0112314)
(3.0069e-07 -1.74984e-07 0.0112273)
(-4.77674e-07 -5.53448e-07 0.011217)
(-1.20855e-06 -5.95121e-07 0.011196)
(9.22755e-07 -4.15128e-07 0.011237)
(1.73897e-07 -4.5993e-07 0.0112344)
(-5.69595e-07 -5.57505e-07 0.0112275)
(-1.23381e-06 -5.13611e-07 0.0112121)
(8.36647e-07 -8.3426e-07 0.0112389)
(1.42064e-07 -7.76775e-07 0.011237)
(-5.81775e-07 -6.8828e-07 0.0112317)
(-1.23261e-06 -4.80641e-07 0.0112189)
(9.20211e-07 -9.71267e-08 0.011219)
(5.56835e-07 1.07844e-08 0.0112123)
(1.00456e-07 -1.23845e-07 0.0111961)
(-4.62574e-07 -1.63894e-07 0.0111648)
(8.18809e-07 -2.97335e-07 0.0112325)
(3.57767e-07 -3.36288e-07 0.0112283)
(-1.14666e-07 -4.96861e-07 0.0112179)
(-5.18831e-07 -4.79118e-07 0.0111966)
(7.90722e-07 -5.15419e-07 0.0112382)
(3.23993e-07 -5.09055e-07 0.0112355)
(-1.22793e-07 -5.15593e-07 0.0112284)
(-5.16067e-07 -4.4006e-07 0.0112127)
(7.99369e-07 -8.12065e-07 0.0112403)
(3.45509e-07 -7.22321e-07 0.0112382)
(-8.13414e-08 -6.23943e-07 0.0112326)
(-4.62644e-07 -4.62912e-07 0.0112194)
(6.50764e-07 -2.03497e-07 0.0112196)
(4.28926e-07 -1.24661e-07 0.0112128)
(1.3871e-07 -1.53152e-07 0.0111967)
(-1.94986e-07 -1.58881e-07 0.0111652)
(6.14254e-07 -3.48775e-07 0.0112331)
(3.31055e-07 -3.61103e-07 0.0112289)
(4.36302e-08 -4.25919e-07 0.0112184)
(-1.87862e-07 -3.84703e-07 0.0111969)
(6.28429e-07 -4.75089e-07 0.0112389)
(3.2869e-07 -4.61385e-07 0.0112362)
(6.55615e-08 -4.451e-07 0.011229)
(-1.71434e-07 -3.73061e-07 0.0112131)
(6.80022e-07 -7.01502e-07 0.011241)
(3.52092e-07 -6.09762e-07 0.0112389)
(1.06294e-07 -5.24265e-07 0.0112332)
(-1.16826e-07 -4.1035e-07 0.0112198)
(4.4731e-07 -2.09029e-07 0.0112199)
(3.13214e-07 -1.49706e-07 0.0112132)
(1.32593e-07 -1.39085e-07 0.011197)
(-6.45428e-08 -1.28181e-07 0.0111655)
(4.38067e-07 -3.10926e-07 0.0112335)
(2.66467e-07 -3.11415e-07 0.0112293)
(9.52784e-08 -3.32791e-07 0.0112187)
(-3.77551e-08 -2.89104e-07 0.0111972)
(4.62968e-07 -3.77851e-07 0.0112393)
(2.75568e-07 -3.66115e-07 0.0112366)
(1.23282e-07 -3.46625e-07 0.0112293)
(-1.97898e-08 -2.91064e-07 0.0112133)
(5.2236e-07 -5.40067e-07 0.0112415)
(2.91199e-07 -4.66766e-07 0.0112393)
(1.52033e-07 -4.03616e-07 0.0112335)
(2.09956e-08 -3.26833e-07 0.01122)
(3.08717e-07 -1.56547e-07 0.0112201)
(2.28923e-07 -1.12903e-07 0.0112134)
(1.20763e-07 -9.25794e-08 0.0111972)
(7.53544e-09 -7.70263e-08 0.0111656)
(3.09945e-07 -2.23211e-07 0.0112337)
(2.09331e-07 -2.17903e-07 0.0112295)
(1.11924e-07 -2.2086e-07 0.011219)
(3.50791e-08 -1.84104e-07 0.0111973)
(3.3201e-07 -2.5674e-07 0.0112396)
(2.20925e-07 -2.47273e-07 0.0112368)
(1.34647e-07 -2.31031e-07 0.0112295)
(4.89359e-08 -1.93922e-07 0.0112135)
(3.7736e-07 -3.57347e-07 0.0112417)
(2.30603e-07 -3.10353e-07 0.0112396)
(1.52844e-07 -2.70047e-07 0.0112337)
(7.49712e-08 -2.22279e-07 0.0112202)
(2.6062e-07 -7.4716e-08 0.0112202)
(2.1556e-07 -4.45667e-08 0.0112135)
(1.55812e-07 -2.57143e-08 0.0111974)
(9.16803e-08 -1.21844e-08 0.0111657)
(2.67147e-07 -1.11759e-07 0.0112338)
(2.11719e-07 -1.03794e-07 0.0112296)
(1.58105e-07 -9.92681e-08 0.0112191)
(1.09518e-07 -7.55283e-08 0.0111974)
(2.82691e-07 -1.28134e-07 0.0112397)
(2.21743e-07 -1.20426e-07 0.0112369)
(1.72159e-07 -1.09174e-07 0.0112296)
(1.17911e-07 -8.82812e-08 0.0112136)
(3.07809e-07 -1.79071e-07 0.0112418)
(2.27914e-07 -1.55171e-07 0.0112397)
(1.82415e-07 -1.33562e-07 0.0112338)
(1.31939e-07 -1.08227e-07 0.0112203)
(3.5325e-07 -2.51734e-08 0.0112202)
(3.25423e-07 -1.75201e-09 0.0112135)
(2.83272e-07 1.75085e-08 0.0111975)
(2.32611e-07 3.85692e-08 0.0111659)
(3.66548e-07 -4.28583e-08 0.0112338)
(3.3636e-07 -2.9581e-08 0.0112297)
(2.96728e-07 -1.63456e-08 0.0112192)
(2.49871e-07 3.79146e-09 0.0111975)
(3.78942e-07 -5.38185e-08 0.0112397)
(3.48027e-07 -4.42778e-08 0.011237)
(3.09169e-07 -3.3191e-08 0.0112297)
(2.58614e-07 -1.84758e-08 0.0112137)
(3.90754e-07 -7.37962e-08 0.0112418)
(3.55127e-07 -6.39323e-08 0.0112398)
(3.17555e-07 -5.35062e-08 0.0112339)
(2.68041e-07 -4.05747e-08 0.0112204)
(0.00137348 -0.00147268 0.0224541)
(-5.1238e-05 0.000441034 0.0106736)
(0.000581422 0.00114133 0.0108089)
(0.00278111 0.000351711 0.0170024)
(0.0005421 -0.000290515 0.012987)
(0.00252545 -0.000558522 0.0216047)
(0.00159352 0.00219885 0.0274387)
(0.00178527 -0.000881274 0.016873)
(-0.00094688 0.000408166 0.0169136)
(0.0003527 -0.000491489 0.00900512)
(0.00377611 -0.00162657 0.0195006)
(0.00233329 -0.00272118 0.0223037)
(0.000767638 -1.74085e-05 0.0186975)
(-0.000222538 0.00043912 0.0190834)
(0.00157919 -0.00132719 0.0160748)
(0.000668792 -0.000558591 0.00611242)
(-0.00111886 0.00224047 0.016946)
(0.00293911 -0.00090534 0.0262709)
(0.00135324 -0.00143254 0.0204896)
(0.000707961 -0.00108209 0.0311582)
(-0.00153873 0.00237863 0.0163929)
(5.81224e-05 -7.10955e-05 0.022494)
(0.00101364 -0.000574281 0.0168408)
(0.00146681 -0.00103078 0.0157272)
(7.99879e-05 0.000446818 0.0263015)
(-0.000352357 0.000260918 0.0180541)
(-0.000749209 -0.000159268 0.0255001)
(0.00102592 0.00108955 0.0187741)
(-0.00298846 -0.00099434 0.0264721)
(-4.64733e-05 -0.000690035 0.00931176)
(0.000574075 0.00091036 0.0157149)
(0.00192375 0.0021422 0.022464)
(-0.000669128 0.000722253 0.0177437)
(0.0014488 0.000253769 0.0267837)
(0.000728688 0.00022486 0.0236975)
(0.00103659 -0.000356868 0.030546)
(4.83184e-05 0.00305607 0.0217674)
(0.00103673 0.000590045 0.0262263)
(0.000615277 -0.00018321 0.0316139)
(0.000431293 -0.000991544 0.0329333)
(-0.000685722 0.00101124 0.0251328)
(-0.000480261 0.000409101 0.0226673)
(-0.000394266 0.00127424 0.0290841)
(-0.000433225 0.00043618 0.00977486)
(-0.000134629 0.000412895 0.00111683)
(0.00176729 0.000829232 0.0386894)
(-3.35231e-05 0.000387157 0.00445093)
(-0.00227155 5.78274e-05 0.0425498)
(4.64051e-05 1.79233e-05 0.00668901)
(-0.00064816 -0.00102687 0.0312151)
(-0.000202622 -0.00118348 0.0210281)
(-0.000696657 -0.00190348 0.0445858)
(0.000123081 -0.000182681 0.00978665)
(-0.00100777 -0.00163079 0.0279177)
(-0.000316542 -0.000962388 0.0292935)
(-0.000305318 0.000712792 0.0119605)
(4.62993e-05 -0.00200934 0.0358108)
(-0.000453244 0.000350345 0.0233727)
(0.000104318 0.000919554 0.0260484)
(-0.000993672 0.00104944 0.0203957)
(0.000864385 -0.0023727 0.0183725)
(-0.000175848 0.000214453 0.00642855)
(0.000372905 -0.000707845 0.0370063)
(-0.00129176 -0.000822912 0.0253429)
(0.000533022 -0.000789854 0.0194595)
(-0.00341275 -0.00092802 0.0292249)
(-0.00245971 -0.000301476 0.0328599)
(-6.47937e-05 0.00332421 0.0341477)
(0.00095422 -0.00376918 0.0254237)
(-0.0021756 -0.000272124 0.0217771)
(-0.000497583 0.00038039 0.016931)
(-0.000409149 0.000951814 0.0163596)
(0.000675612 -0.00327161 0.033752)
(-0.000214276 -8.60948e-05 0.011139)
(-0.0014046 -0.000662362 0.0345315)
(0.000387574 -0.000677453 0.0229355)
(-0.00044384 -0.000202863 0.0166018)
(-0.00152451 -0.0025382 0.0401973)
(-1.47003e-05 0.000181456 0.00750733)
(0.000998231 0.000848098 0.0431277)
(5.99375e-05 4.51029e-05 0.000338703)
(-0.00437165 0.000572396 0.0217832)
(-0.000495329 0.000113102 0.00980753)
(0.0014923 0.000656504 0.018246)
(0.00126261 -0.00109181 0.0230201)
(-0.00190659 0.00122338 0.0152057)
(-0.00223563 0.0021005 0.0191551)
(0.000913802 0.0034463 0.0203907)
(-0.000129527 0.000652173 0.00801547)
(-0.00192895 0.000347765 0.0204595)
(-0.00121732 0.00258959 0.0148354)
(-0.000472868 0.00105527 0.0138684)
(0.000543171 -0.000470817 0.0118392)
(-0.00051876 -2.50259e-05 0.00697161)
(-0.00107878 -0.000510107 0.0162577)
(0.000135681 0.000203589 0.0116375)
(0.000219784 0.000748956 0.00435378)
(0.000603281 -0.00033959 0.00988625)
(-0.000284933 -4.20565e-05 0.0131693)
(-0.000535283 0.000452691 0.0209751)
(0.00165509 0.00191459 0.0185979)
(0.000655058 -9.21308e-05 0.0173856)
(-4.06374e-05 -0.000125903 0.00711733)
(-9.33622e-05 -7.91874e-05 0.00607123)
(0.00101868 0.00115722 0.0167578)
(0.000591574 0.000398336 0.0154558)
(3.40311e-05 -0.000319115 0.0182404)
(0.000570312 -0.000503931 0.0235436)
(0.00183901 0.000644298 0.0164618)
(0.000437262 0.000478401 0.0152608)
(0.000136629 0.000575011 0.0160756)
(6.8929e-05 -4.2073e-05 0.0142321)
(-0.000479837 0.000712857 0.0299597)
(0.00142781 -0.000108912 0.0220198)
(-0.000387395 -0.000402221 0.0195185)
(-0.000732743 -0.000337068 0.0260985)
(-0.00027615 0.000950464 0.0266605)
(0.00111015 -0.000368634 0.0246856)
(0.000168704 -0.000695658 0.0159045)
(-0.000410345 -0.000768398 0.0186386)
(0.000176534 0.000388069 0.0218551)
(0.000499525 -9.15012e-05 0.0233918)
(3.03494e-05 -0.000783982 0.0230766)
(-0.00010483 -0.00074343 0.0234352)
(-0.000192616 0.000422268 0.0215182)
(0.000289829 4.57067e-05 0.0227778)
(1.8003e-07 -1.30731e-07 0.0219111)
(-0.000198242 -0.000369018 0.0225922)
(0.000852967 0.00034863 0.00597054)
(0.000653545 0.000317157 0.00510839)
(-0.000168258 0.000171245 0.00450203)
(-0.000827633 7.98265e-05 0.00602275)
(3.87456e-05 0.000856503 0.0063534)
(0.000758668 0.000679775 0.00586719)
(0.000238971 -6.10614e-06 0.00427845)
(-0.000879572 0.000154908 0.00510103)
(2.19583e-05 0.000746869 0.00600631)
(0.000162115 0.000680577 0.00594443)
(0.000148038 -0.000208493 0.00542935)
(-0.000378045 5.60557e-05 0.00566006)
(-7.26548e-05 0.000166941 0.00595521)
(0.000151191 0.000534202 0.00577017)
(-4.12952e-05 0.000467851 0.00544218)
(-0.000393673 0.000400172 0.00559903)
(0.000348525 -1.03704e-05 0.0129713)
(0.00031892 4.71497e-05 0.0131182)
(0.000151228 4.50712e-06 0.0123371)
(-0.000260506 -0.000124311 0.0131085)
(7.2674e-05 9.37536e-05 0.0132097)
(0.000395033 0.000149724 0.0132462)
(0.000302212 -8.94719e-05 0.0122622)
(-0.000241654 -8.99263e-05 0.0128001)
(5.38664e-05 0.000215811 0.0130751)
(0.000225432 0.000286237 0.0131791)
(0.000260576 -3.72327e-05 0.0126755)
(-0.000127424 -8.94251e-06 0.0128579)
(2.86995e-05 0.000103648 0.0129945)
(0.000209631 0.000243426 0.0129885)
(0.000196402 0.000131635 0.0126361)
(-8.0614e-05 4.19329e-05 0.0127784)
(0.000141534 2.64356e-05 0.0104264)
(5.06724e-05 6.70052e-05 0.0105633)
(-1.33896e-07 2.45991e-05 0.0101339)
(-0.000182432 -4.28893e-05 0.0103759)
(4.83391e-05 6.52888e-05 0.0107133)
(7.46178e-05 0.000143893 0.0107539)
(2.05287e-05 1.70678e-05 0.0102914)
(-0.000213455 2.65402e-05 0.0104266)
(3.55399e-05 7.74163e-05 0.0107987)
(4.87472e-05 0.000154546 0.0108104)
(2.05985e-05 5.39385e-06 0.010493)
(-0.000164095 5.49165e-05 0.0104976)
(3.07301e-05 5.97392e-05 0.0108138)
(5.38753e-05 0.000136379 0.0107768)
(5.46104e-06 6.6248e-05 0.0105506)
(-0.00013622 9.53023e-05 0.0105194)
(7.13113e-05 -7.592e-06 0.0109262)
(4.23735e-05 2.29047e-05 0.0110474)
(5.23669e-05 9.02745e-06 0.0108401)
(-5.40482e-05 -3.2116e-05 0.0109816)
(4.23059e-05 -4.172e-06 0.0110837)
(5.03443e-05 5.10663e-05 0.0111468)
(5.80506e-05 -4.01946e-06 0.0109497)
(-5.77022e-05 -1.00002e-05 0.0110482)
(3.43626e-05 2.42126e-05 0.0111756)
(4.48056e-05 7.45895e-05 0.0111994)
(4.90429e-05 9.46571e-06 0.0110635)
(-4.72715e-05 1.70967e-05 0.0111005)
(3.17774e-05 3.3659e-05 0.0112134)
(4.52013e-05 6.80916e-05 0.011207)
(3.92912e-05 2.3328e-05 0.0111156)
(-3.31178e-05 2.23011e-05 0.0111232)
(3.21825e-05 -3.48134e-06 0.010885)
(1.36929e-05 1.29769e-05 0.0109422)
(1.78296e-05 4.13489e-06 0.0108073)
(-3.26198e-05 -1.40353e-05 0.0108369)
(2.33491e-05 -3.57553e-06 0.0110422)
(1.63175e-05 2.69795e-05 0.0110683)
(1.78284e-05 1.11815e-07 0.0109452)
(-3.61935e-05 1.91997e-07 0.0109482)
(1.97324e-05 8.56462e-06 0.0111381)
(1.65846e-05 3.50105e-05 0.0111403)
(1.41919e-05 4.27284e-06 0.0110483)
(-3.03265e-05 1.0432e-05 0.0110257)
(1.83475e-05 1.63721e-05 0.011184)
(1.73984e-05 3.23879e-05 0.0111732)
(1.01752e-05 9.69348e-06 0.0111102)
(-2.35093e-05 1.4057e-05 0.0110765)
(1.61687e-05 -1.53471e-06 0.0108983)
(7.67599e-06 6.85331e-06 0.0109245)
(1.0972e-05 2.44473e-06 0.0108492)
(-1.38561e-05 -7.14639e-06 0.0108539)
(1.27877e-05 -2.07284e-06 0.0110408)
(7.46428e-06 1.28648e-05 0.0110497)
(9.55177e-06 -5.83458e-07 0.0109799)
(-1.53752e-05 -1.60224e-06 0.0109658)
(1.10049e-05 3.20762e-06 0.0111327)
(7.41758e-06 1.61856e-05 0.0111294)
(6.67461e-06 1.61737e-06 0.0110747)
(-1.35882e-05 4.16962e-06 0.0110471)
(1.01723e-05 7.6773e-06 0.0111829)
(7.76334e-06 1.50148e-05 0.0111743)
(4.44968e-06 3.73681e-06 0.0111358)
(-1.09739e-05 5.48711e-06 0.0111029)
(8.62389e-06 -6.40818e-07 0.0109069)
(4.35875e-06 3.54572e-06 0.0109135)
(5.57395e-06 1.18749e-06 0.0108635)
(-6.43456e-06 -3.23089e-06 0.010849)
(7.00379e-06 -1.03078e-06 0.0110438)
(3.61506e-06 6.15184e-06 0.0110412)
(4.50507e-06 -5.83222e-07 0.0109926)
(-7.23253e-06 -7.81713e-07 0.0109645)
(6.09095e-06 1.3646e-06 0.0111335)
(3.32853e-06 7.62405e-06 0.0111256)
(2.69642e-06 6.27663e-07 0.0110852)
(-6.5256e-06 2.06516e-06 0.0110498)
(5.62174e-06 3.57505e-06 0.0111852)
(3.4996e-06 6.93568e-06 0.0111762)
(1.5389e-06 1.43111e-06 0.0111463)
(-5.4838e-06 2.48582e-06 0.0111094)
(4.97181e-06 -2.41709e-07 0.0109123)
(2.74767e-06 1.87112e-06 0.0109087)
(3.09403e-06 6.41082e-07 0.0108716)
(-2.75879e-06 -1.42168e-06 0.010849)
(4.01087e-06 -5.18435e-07 0.0110468)
(2.00476e-06 2.88796e-06 0.011038)
(2.33089e-06 -4.61135e-07 0.0109995)
(-3.16092e-06 -4.52841e-07 0.0109653)
(3.49579e-06 5.63604e-07 0.0111353)
(1.68011e-06 3.55354e-06 0.0111247)
(1.20544e-06 2.64544e-07 0.011091)
(-2.94853e-06 1.04457e-06 0.0110521)
(3.26668e-06 1.54218e-06 0.0111874)
(1.77817e-06 3.08709e-06 0.0111779)
(6.07901e-07 4.89001e-07 0.0111518)
(-2.58104e-06 1.10592e-06 0.0111132)
(3.06055e-06 -7.32965e-08 0.0109152)
(1.83045e-06 1.01699e-06 0.0109065)
(1.77753e-06 3.97823e-07 0.0108757)
(-1.07346e-06 -5.28003e-07 0.0108488)
(2.42156e-06 -2.91539e-07 0.0110487)
(1.25208e-06 1.32211e-06 0.0110366)
(1.28325e-06 -3.20675e-07 0.0110028)
(-1.29479e-06 -2.11084e-07 0.0109655)
(2.11811e-06 1.79982e-07 0.0111366)
(9.72234e-07 1.61457e-06 0.0111245)
(6.08699e-07 1.01634e-07 0.0110938)
(-1.22135e-06 5.69328e-07 0.0110529)
(2.03661e-06 5.58173e-07 0.0111889)
(1.05396e-06 1.27156e-06 0.011179)
(3.03347e-07 9.04468e-08 0.0111546)
(-1.11803e-06 5.02522e-07 0.0111149)
(1.98224e-06 -1.72221e-08 0.0109169)
(1.2721e-06 5.71266e-07 0.0109057)
(1.09075e-06 2.67636e-07 0.0108778)
(-3.11645e-07 -1.3381e-07 0.0108489)
(1.54126e-06 -1.92918e-07 0.0110498)
(8.57883e-07 5.76803e-07 0.0110361)
(7.69953e-07 -2.13337e-07 0.0110046)
(-4.34876e-07 -8.75038e-08 0.0109657)
(1.35522e-06 1.5707e-09 0.0111376)
(6.49373e-07 6.95826e-07 0.0111246)
(3.67641e-07 3.76893e-08 0.0110953)
(-4.15397e-07 3.31564e-07 0.0110534)
(1.3485e-06 9.61628e-08 0.0111899)
(7.26866e-07 4.25382e-07 0.0111797)
(2.27905e-07 -7.88585e-08 0.0111561)
(-4.0021e-07 2.07759e-07 0.0111158)
(1.32093e-06 6.79312e-09 0.0109179)
(8.98882e-07 3.33503e-07 0.0109055)
(7.04473e-07 1.90998e-07 0.010879)
(8.20704e-10 2.31695e-08 0.0108491)
(1.01208e-06 -1.36728e-07 0.0110506)
(6.07654e-07 2.31518e-07 0.0110361)
(4.9304e-07 -1.39586e-07 0.0110056)
(-6.73698e-08 -3.4377e-08 0.0109659)
(8.98143e-07 -7.94377e-08 0.0111382)
(4.64517e-07 2.66269e-07 0.0111249)
(2.50192e-07 4.96402e-09 0.0110962)
(-6.65332e-08 1.99663e-07 0.0110538)
(9.22146e-07 -1.06341e-07 0.0111906)
(5.36272e-07 4.91237e-08 0.0111803)
(2.01247e-07 -1.40741e-07 0.0111569)
(-7.37559e-08 6.55691e-08 0.0111163)
(8.87187e-07 1.83632e-08 0.0109184)
(6.30504e-07 2.01913e-07 0.0109055)
(4.67553e-07 1.43937e-07 0.0108797)
(1.09203e-07 7.37905e-08 0.0108493)
(6.70857e-07 -9.76821e-08 0.011051)
(4.28095e-07 7.62608e-08 0.0110361)
(3.25996e-07 -8.95339e-08 0.0110061)
(6.78491e-08 -1.44038e-08 0.0109661)
(5.99534e-07 -1.07738e-07 0.0111386)
(3.3323e-07 7.17117e-08 0.0111251)
(1.81116e-07 -1.58784e-08 0.0110967)
(6.59346e-08 1.17356e-07 0.011054)
(6.31113e-07 -1.7625e-07 0.011191)
(3.93097e-07 -9.75612e-08 0.0111807)
(1.71942e-07 -1.53253e-07 0.0111574)
(5.71927e-08 -7.33898e-10 0.0111167)
(5.90745e-07 1.84067e-08 0.0109187)
(4.33104e-07 1.24277e-07 0.0109056)
(3.13484e-07 1.06509e-07 0.0108801)
(1.28452e-07 7.93329e-08 0.0108494)
(4.41003e-07 -6.92632e-08 0.0110513)
(2.95454e-07 1.2325e-08 0.0110363)
(2.19462e-07 -5.76269e-08 0.0110064)
(1.02722e-07 -5.10398e-09 0.0109662)
(3.95406e-07 -1.00097e-07 0.0111389)
(2.32239e-07 -4.67481e-09 0.0111253)
(1.32322e-07 -2.30787e-08 0.011097)
(1.01394e-07 6.98635e-08 0.0110542)
(4.23897e-07 -1.73032e-07 0.0111913)
(2.7692e-07 -1.30282e-07 0.0111809)
(1.37145e-07 -1.35069e-07 0.0111577)
(9.57945e-08 -2.34061e-08 0.0111169)
(3.93627e-07 1.66725e-08 0.0109189)
(2.99681e-07 8.09825e-08 0.0109057)
(2.20679e-07 8.29005e-08 0.0108803)
(1.22262e-07 7.72209e-08 0.0108496)
(2.95241e-07 -4.19751e-08 0.0110514)
(2.10444e-07 -1.69724e-09 0.0110364)
(1.61288e-07 -2.65153e-08 0.0110066)
(1.07177e-07 1.09286e-08 0.0109663)
(2.67107e-07 -6.98524e-08 0.011139)
(1.69952e-07 -1.77707e-08 0.0111254)
(1.09861e-07 -1.18901e-08 0.0110972)
(1.07592e-07 5.05628e-08 0.0110543)
(2.89109e-07 -1.27158e-07 0.0111915)
(1.99792e-07 -1.02928e-07 0.0111811)
(1.16984e-07 -9.28107e-08 0.0111579)
(1.05203e-07 -1.75282e-08 0.011117)
(2.96561e-07 1.949e-08 0.010919)
(2.46046e-07 6.74456e-08 0.0109058)
(1.9711e-07 8.51323e-08 0.0108804)
(1.37478e-07 9.41799e-08 0.0108497)
(2.42365e-07 -1.06697e-08 0.0110515)
(1.97115e-07 1.82605e-08 0.0110364)
(1.6614e-07 2.05759e-08 0.0110067)
(1.32178e-07 4.98146e-08 0.0109664)
(2.2957e-07 -2.55329e-08 0.0111391)
(1.77234e-07 7.30221e-09 0.0111255)
(1.42645e-07 2.23331e-08 0.0110973)
(1.36921e-07 6.18379e-08 0.0110544)
(2.45989e-07 -5.86776e-08 0.0111916)
(1.95427e-07 -4.26954e-08 0.0111812)
(1.49903e-07 -3.05062e-08 0.011158)
(1.41451e-07 1.57185e-08 0.0111171)
(3.25601e-07 2.58877e-08 0.010919)
(2.92855e-07 8.0149e-08 0.0109058)
(2.46513e-07 1.16705e-07 0.0108806)
(1.89877e-07 1.38574e-07 0.0108498)
(3.14531e-07 9.77772e-09 0.0110515)
(2.84738e-07 5.07876e-08 0.0110365)
(2.45983e-07 7.88088e-08 0.0110068)
(1.99619e-07 1.05818e-07 0.0109665)
(3.20296e-07 -3.43388e-10 0.0111391)
(2.90052e-07 3.39197e-08 0.0111255)
(2.52885e-07 6.02524e-08 0.0110974)
(2.17892e-07 8.76451e-08 0.0110545)
(3.37335e-07 -1.62051e-08 0.0111916)
(3.08315e-07 4.62992e-09 0.0111812)
(2.69182e-07 2.16338e-08 0.0111581)
(2.36516e-07 5.30774e-08 0.0111173)
(0.00567804 0.000786101 0.0247997)
(0.00261082 -0.0011076 0.0193012)
(0.0026197 -0.000657582 0.0143682)
(0.00474373 0.00170459 0.0256528)
(0.000724608 0.000866628 0.0219309)
(0.00129522 0.00112691 0.0119234)
(0.000542036 0.000242892 0.00270421)
(0.00320079 -9.94815e-05 0.0148878)
(0.00148281 0.000451907 0.0122805)
(0.00451485 0.00152439 0.0157309)
(0.00277805 0.00293588 0.0231029)
(0.00024184 0.00076745 0.0160356)
(-0.000465714 0.000140914 0.00840508)
(0.00451928 -0.00116232 0.0194553)
(0.00379034 -0.000602541 0.0222499)
(0.00106891 0.00135849 0.0245707)
(5.30942e-05 -0.000137639 0.003951)
(0.000348827 0.00391417 0.0311211)
(-0.00019209 0.00167418 0.0130715)
(0.000287369 0.00134362 0.0142451)
(0.00157441 0.000777388 0.0147121)
(0.00189153 0.000638992 0.0158473)
(0.00165557 0.00234532 0.0350726)
(0.00155403 0.00409798 0.0377956)
(0.00176609 0.00151487 0.0123421)
(0.0017859 -0.00149969 0.0391165)
(0.00116815 -0.000369066 0.020083)
(0.00106156 0.00269738 0.0231084)
(-0.000408764 -0.00102015 0.0161932)
(-3.17328e-05 -0.000323889 0.00357389)
(0.00520052 0.000689325 0.0234596)
(0.00183021 0.000564388 0.0114555)