/*--------------------------------*- C++ -*----------------------------------*\
| =========                 |                                                 |
| \\      /  F ield         | OpenFOAM: The Open Source CFD Toolbox           |
|  \\    /   O peration     | Version:  2506                                  |
|   \\  /    A nd           | Website:  www.openfoam.com                      |
|    \\/     M anipulation  |                                                 |
\*---------------------------------------------------------------------------*/
FoamFile
{
    version     2.0;
    format      ascii;
    arch        "LSB;label=32;scalar=64";
    class       volVectorField;
    location    "0.05";
    object      Us;
}
// * * * * * * * * * * * * * * * * * * * * * * * * * * * * * * * * * * * * * //

dimensions      [0 1 -1 0 0 0 0];

internalField   nonuniform List<vector> 
1152
(
(-1.96558e-05 0.000291168 5.2312e-05)
(0.000104454 0.000223938 -5.08911e-05)
(-0.000147166 0.000494383 -0.000382412)
(-7.81279e-05 0.000138917 4.85042e-06)
(-8.56161e-05 0.000182354 0.00024407)
(3.49226e-05 0.000158039 0.000139378)
(0.00013488 0.000104113 4.9625e-05)
(-0.000211479 0.000312484 8.53733e-05)
(3.83392e-05 0.000101656 0.000228699)
(-2.84198e-05 0.000149817 0.000216519)
(-0.000983267 0.000679117 -0.000144431)
(-0.000734039 0.000147221 -8.70387e-05)
(-0.000219439 0.000168009 0.000256394)
(4.53148e-05 -0.000129521 0.000126704)
(-0.000107717 0.000281437 1.73e-05)
(-0.000101188 -0.000438194 0.000191494)
(-0.000302922 0.000290482 0.000621669)
(-0.000238182 0.000315431 0.000291256)
(-0.000101457 0.000622626 0.00017817)
(-0.000328844 0.000411439 0.000431605)
(-0.000393744 0.00028517 0.000851648)
(-0.000100731 0.000286144 0.000518377)
(-7.04159e-06 0.000485146 0.000467871)
(-0.000108861 0.000485455 0.000604598)
(-0.000348624 0.000187597 0.000945064)
(-0.000416281 9.87184e-06 0.00113595)
(-2.49611e-05 -1.03865e-06 0.000592047)
(-0.000158333 -4.3517e-06 0.000492041)
(-5.64133e-05 -1.70537e-05 0.000700863)
(-0.000204992 -0.000182384 0.000546674)
(-0.000332595 -8.53714e-05 0.000924858)
(-0.000201793 -0.000144021 0.000912935)
(-0.000427402 0.000314018 0.00120133)
(-0.000503156 -9.60961e-05 0.00128239)
(-0.000451987 0.000393619 0.000950114)
(-0.000287633 7.13794e-05 0.000473181)
(-0.000242005 0.000406653 0.00082361)
(-0.000202718 0.000267058 0.00109667)
(-0.000436796 0.000172444 0.00104411)
(-0.000140586 -0.000109333 0.0011992)
(-0.000476912 -2.57829e-05 0.00125401)
(-0.000151202 0.000119299 0.00197822)
(-0.000256593 9.45843e-05 0.00154285)
(-0.000323311 5.06337e-06 0.0012203)
(-0.000233618 -0.000222415 0.000981079)
(-0.000212952 -0.000375529 0.00191744)
(-0.000924845 -0.000295029 0.00177795)
(-0.000289174 0.000111047 0.00110627)
(-0.00020422 0.000186885 0.00103953)
(-0.000352657 0.000236184 0.0008659)
(-0.000239156 7.30861e-05 0.00124622)
(-0.000229967 0.000103362 0.000772705)
(-5.68253e-05 0.000469997 0.00101344)
(-0.000332348 0.00035083 0.000986481)
(-0.000196101 0.000268493 0.00108162)
(-0.000156536 -0.000130702 0.00102804)
(-0.000160319 0.000312783 0.000899654)
(-0.000411747 0.000509719 0.00133785)
(-0.00018351 0.000165305 0.00124513)
(-0.000213583 -3.32152e-05 0.00112191)
(-1.15121e-05 0.000212834 0.00084977)
(-0.0012514 0.000463785 0.0020599)
(-0.000440515 0.000141854 0.00120356)
(-0.000261661 -0.000253915 0.00108422)
(1.86406e-05 8.86647e-05 0.000998731)
(-2.57039e-05 9.90154e-05 0.00092412)
(0.00013011 0.000414222 0.00138162)
(-0.000138453 3.91464e-05 0.00118813)
(3.59188e-05 0.000280058 0.000963067)
(-0.000252411 0.000309291 0.000869851)
(-0.00013698 0.000200418 0.00105697)
(-6.87306e-05 3.89757e-05 0.00100822)
(-9.57278e-05 -0.000246029 0.00123109)
(-0.000210695 0.000211249 0.000953401)
(-0.00019908 3.87414e-05 0.00097792)
(-0.000202142 3.70479e-06 0.0011198)
(-0.00015129 8.7589e-06 0.000887059)
(-0.000131081 0.00018398 0.00102856)
(-0.000208946 -0.000190371 0.00111544)
(-0.000339682 2.92552e-05 0.00109795)
(-6.98965e-05 -7.07215e-05 0.00111777)
(-4.2892e-05 4.04845e-05 0.00118871)
(-7.64921e-05 -9.38925e-06 0.00119755)
(7.3947e-05 9.89842e-05 0.000987886)
(-4.14453e-05 -7.41958e-05 0.00097958)
(-2.86019e-05 1.18885e-05 0.00106094)
(-3.48484e-05 -2.12659e-05 0.00109728)
(3.91715e-05 -2.44782e-05 0.00103955)
(-0.000112004 -6.9247e-05 0.00100353)
(-0.000132645 -4.32932e-05 0.00103977)
(-0.000131657 -2.85115e-05 0.0012007)
(-0.000112966 -4.50525e-06 0.00119885)
(-0.000123051 -5.12859e-05 0.00105235)
(-0.000150318 -2.46374e-05 0.00101029)
(-0.000229854 -0.00011139 0.00119525)
(-0.000251762 2.51205e-05 0.00115324)
(-9.17524e-05 0.000129955 0.001024)
(-0.000296384 -0.000423181 0.00107819)
(3.08422e-05 -0.000162081 0.00116852)
(6.49783e-05 -0.000163243 0.000955824)
(-0.000174279 0.000113774 0.00108476)
(-0.000103521 0.000155483 0.000988406)
(-4.64357e-05 -8.67667e-05 0.00114678)
(9.81458e-05 0.000124331 0.00101069)
(-0.00179043 0.0010509 0.000805742)
(0.000411286 -0.00112801 0.000539235)
(-7.9794e-05 -0.000139781 0.001099)
(0.000185296 0.000223431 0.00106004)
(-9.62394e-05 -7.34003e-06 0.00103792)
(0.00309896 -0.00422091 -0.00166592)
(0.00153471 -0.0018922 -0.00027879)
(-4.4709e-05 -2.68062e-05 0.00120455)
(0 0 0)
(0 0 0)
(0 0 0)
(0 0 0)
(0 0 0)
(0 0 0)
(0 0 0)
(0 0 0)
(0 0 0)
(0 0 0)
(0 0 0)
(0 0 0)
(-2.48801e-06 -7.2632e-05 0.00111527)
(0 0 0)
(0 0 0)
(0 0 0)
(0 0 0)
(0 0 0)
(0 0 0)
(0 0 0)
(0 0 0)
(0 0 0)
(0 0 0)
(0 0 0)
(0 0 0)
(0 0 0)
(0 0 0)
(0 0 0)
(0 0 0)
(0 0 0)
(0 0 0)
(0 0 0)
(0 0 0)
(0 0 0)
(0 0 0)
(0 0 0)
(0 0 0)
(0 0 0)
(0 0 0)
(0 0 0)
(0 0 0)
(0 0 0)
(0 0 0)
(0 0 0)
(0 0 0)
(0 0 0)
(0 0 0)
(0 0 0)
(0 0 0)
(0 0 0)
(0 0 0)
(0 0 0)
(0 0 0)
(0 0 0)
(0 0 0)
(0 0 0)
(0 0 0)
(0 0 0)
(0 0 0)
(0 0 0)
(0 0 0)
(0 0 0)
(0 0 0)
(0 0 0)
(0 0 0)
(0 0 0)
(0 0 0)
(0 0 0)
(0 0 0)
(0 0 0)
(0 0 0)
(0 0 0)
(0 0 0)
(0 0 0)
(0 0 0)
(0 0 0)
(0 0 0)
(0 0 0)
(0 0 0)
(0 0 0)
(0 0 0)
(0 0 0)
(0 0 0)
(0 0 0)
(0 0 0)
(0 0 0)
(0 0 0)
(0 0 0)
(0 0 0)
(0 0 0)
(0 0 0)
(0 0 0)
(0 0 0)
(0 0 0)
(0 0 0)
(0 0 0)
(0 0 0)
(0 0 0)
(0 0 0)
(0 0 0)
(0 0 0)
(0 0 0)
(0 0 0)
(0 0 0)
(0 0 0)
(0 0 0)
(0 0 0)
(0 0 0)
(0 0 0)
(0 0 0)
(0 0 0)
(0 0 0)
(0 0 0)
(0 0 0)
(0 0 0)
(0 0 0)
(0 0 0)
(0 0 0)
(0 0 0)
(0 0 0)
(0 0 0)
(0 0 0)
(0 0 0)
(0 0 0)
(0 0 0)
(0 0 0)
(0 0 0)
(0 0 0)
(0 0 0)
(0 0 0)
(0 0 0)
(0 0 0)
(0 0 0)
(0 0 0)
(0 0 0)
(0 0 0)
(0 0 0)
(0 0 0)
(0 0 0)
(0 0 0)
(0 0 0)
(0 0 0)
(0 0 0)
(0 0 0)
(0 0 0)
(0 0 0)
(0 0 0)
(0 0 0)
(0 0 0)
(0 0 0)
(0 0 0)
(0 0 0)
(0 0 0)
(0 0 0)
(0 0 0)
(0 0 0)
(0 0 0)
(0 0 0)
(0 0 0)
(0 0 0)
(0 0 0)
(0 0 0)
(0 0 0)
(0 0 0)
(0 0 0)
(0 0 0)
(0 0 0)
(0 0 0)
(0 0 0)
(0 0 0)
(0 0 0)
(0 0 0)
(0 0 0)
(0 0 0)
(0 0 0)
(0 0 0)
(0 0 0)
(0 0 0)
(0 0 0)
(0 0 0)
(0 0 0)
(0 0 0)
(0 0 0)
(0 0 0)
(0 0 0)
(0 0 0)
(0 0 0)
(0 0 0)
(0 0 0)
(0 0 0)
(0 0 0)
(0 0 0)
(0 0 0)
(0 0 0)
(0 0 0)
(0 0 0)
(0 0 0)
(0 0 0)
(0 0 0)
(0 0 0)
(0 0 0)
(0 0 0)
(0 0 0)
(0 0 0)
(0 0 0)
(0 0 0)
(0 0 0)
(0 0 0)
(0 0 0)
(0 0 0)
(0 0 0)
(0 0 0)
(0 0 0)
(0 0 0)
(0 0 0)
(0 0 0)
(0 0 0)
(0 0 0)
(0 0 0)
(0 0 0)
(0 0 0)
(0 0 0)
(0 0 0)
(0 0 0)
(0 0 0)
(0 0 0)
(0 0 0)
(0 0 0)
(0 0 0)
(0 0 0)
(0 0 0)
(0 0 0)
(0 0 0)
(0 0 0)
(0 0 0)
(0 0 0)
(0 0 0)
(0 0 0)
(0 0 0)
(0 0 0)
(0 0 0)
(0 0 0)
(0 0 0)
(0 0 0)
(0 0 0)
(0 0 0)
(0 0 0)
(0 0 0)
(0 0 0)
(0 0 0)
(0 0 0)
(0 0 0)
(0 0 0)
(0 0 0)
(0 0 0)
(0 0 0)
(0 0 0)
(0 0 0)
(0 0 0)
(0 0 0)
(0 0 0)
(0 0 0)
(0 0 0)
(0 0 0)
(0 0 0)
(0 0 0)
(0 0 0)
(0 0 0)
(0 0 0)
(0 0 0)
(0 0 0)
(0 0 0)
(-5.83661e-05 -6.98833e-05 0.000116492)
(-2.02969e-05 -0.00012217 -0.000339626)
(-0.000264666 -9.04042e-05 0.000198847)
(3.80648e-05 -1.28119e-05 -1.65936e-05)
(0.000158715 -4.09899e-05 0.000165927)
(0.000210241 4.84707e-05 8.60673e-05)
(-8.84019e-05 3.00598e-05 -3.5395e-05)
(6.90019e-05 -3.64415e-05 -1.90146e-05)
(2.76708e-05 6.12431e-05 -8.10809e-07)
(-0.000239735 0.000173889 -3.89847e-06)
(-3.77031e-05 7.3821e-05 -3.03114e-05)
(-0.000207687 -1.09577e-05 0.000178936)
(0.000183524 0.00014072 -0.000180094)
(3.22771e-06 0.000140891 0.000196529)
(-8.07252e-05 0.000303047 0.000102641)
(1.39263e-05 -3.2421e-05 0.000213578)
(-2.81349e-06 0.000479927 0.000291585)
(2.37764e-07 3.35992e-05 0.000288039)
(0.000138051 0.000175672 0.000557655)
(0.000156488 0.000112635 0.000494638)
(-0.000242612 0.000766972 0.000558086)
(0.000270129 0.000540826 0.000404326)
(-0.000224579 0.000312049 0.000360527)
(-0.000328795 9.33389e-05 0.000278772)
(-0.000187301 0.000563052 0.000258266)
(-0.00010566 0.000288986 0.0006509)
(-0.000153782 0.000154516 0.000363503)
(-0.000351713 0.000138434 0.000271859)
(-0.000324076 2.69561e-06 -1.95906e-05)
(0.000103952 0.000157119 0.000511385)
(-0.000226992 0.000390123 8.85133e-05)
(-0.000246917 0.000198796 0.000391592)
(0.000154025 2.92961e-05 0.000333447)
(-0.000111324 9.58357e-06 0.000289784)
(0.000176029 -7.37634e-05 0.000664407)
(9.70874e-05 0.000279084 0.00162812)
(0.000351238 0.000990429 0.00109096)
(0.000145556 0.000126317 0.000899743)
(8.80391e-05 1.58515e-05 0.00068665)
(-0.000235787 0.000555423 0.000459627)
(-3.62213e-05 0.000325429 0.000496432)
(7.07887e-06 0.000373865 0.000694353)
(-0.000284007 0.000567706 0.00106812)
(-0.00046531 0.000414446 0.000864424)
(-0.000132674 0.000437375 0.000570728)
(0.000132352 0.000325807 0.00103963)
(-7.3355e-05 0.00044814 0.000862415)
(-0.0010615 -1.86239e-05 0.000762408)
(5.95195e-05 7.12135e-05 0.000304308)
(-0.000164776 -0.000141112 0.00115196)
(-3.80118e-05 -3.62734e-05 0.000845346)
(-0.000185927 6.51413e-06 0.0008366)
(7.98281e-05 0.000139461 0.000485826)
(8.54615e-06 -0.000217496 0.00135807)
(8.44752e-05 0.000106878 0.00106696)
(-0.000210979 0.00036844 0.00097668)
(-3.76184e-05 8.31493e-05 0.000630419)
(-4.63706e-05 0.000499062 0.000574735)
(-0.000152317 0.000466843 0.00132768)
(-0.000400927 0.000290678 0.0014376)
(-9.36657e-05 -0.000158266 0.00115128)
(-0.000145267 0.000311298 0.000848842)
(0.000416033 0.000184831 0.00135474)
(-0.000278637 0.000196557 0.000824292)
(2.70973e-05 -2.26755e-05 0.000288775)
(1.24587e-05 6.91919e-05 0.000503472)
(-0.000279381 -3.6924e-05 0.00103997)
(-0.000211402 -0.000139475 0.000728626)
(-9.17773e-05 7.7531e-05 0.000486249)
(-0.000111541 0.000301319 0.000494065)
(7.80334e-05 0.000173083 0.000877239)
(-0.000137252 -2.48816e-05 0.00105746)
(-9.66455e-05 -3.21332e-05 0.000883803)
(-0.000109817 0.000282126 0.000792948)
(-0.000149405 0.00018357 0.000943206)
(7.7954e-05 -0.000147084 0.0010671)
(1.1144e-05 -3.18263e-05 0.00118712)
(4.92249e-05 7.95221e-05 0.00101093)
(0.000126521 0.0002728 0.00102838)
(4.75497e-05 -0.000139106 0.000852676)
(5.70687e-05 4.96794e-05 0.000305734)
(-0.000283639 -3.35534e-05 0.000254824)
(-0.000234776 -0.000139648 0.00044352)
(-2.45037e-05 5.64127e-05 0.00047324)
(-4.33369e-05 7.65282e-06 0.000572892)
(-0.000173844 0.000184154 0.000589183)
(-0.000158982 0.000157147 0.000611212)
(-0.00013869 0.000132618 0.000818815)
(5.74001e-05 -5.43613e-05 0.00088486)
(-9.84311e-05 9.07608e-05 0.000813153)
(-8.70115e-05 0.000151914 0.000960112)
(-3.85534e-05 0.000105897 0.000818337)
(-0.000131624 -0.000122311 0.00101653)
(-7.06542e-05 8.29713e-05 0.00100324)
(-1.36833e-06 5.68753e-05 0.00114347)
(2.47887e-05 0.000141645 0.000980895)
(9.89103e-05 -0.000234285 0.000172568)
(-0.000229684 -0.000330306 0.000138213)
(-0.000159553 -6.03694e-05 0.000185898)
(-8.04807e-05 -2.45995e-05 0.000297773)
(0.00207724 -0.000643835 0.000255896)
(-6.69006e-05 2.83127e-05 0.000520238)
(-0.000151575 -7.36673e-05 0.000687261)
(-7.75943e-05 -7.37208e-05 0.000591937)
(0.000923707 0.000448334 0.000747112)
(0.000656808 0.000501699 0.000377147)
(-5.17273e-05 0.000102696 0.000998368)
(-7.50707e-06 -4.4385e-05 0.000914432)
(0.00216912 0.00113794 0.000584322)
(0.000447428 0.000596631 0.000703264)
(3.35141e-05 0.000167137 0.00102082)
(-2.05232e-05 -0.000122728 0.00105814)
(0 0 0)
(0 0 0)
(0 0 0)
(0 0 0)
(0 0 0)
(0 0 0)
(0 0 0)
(0 0 0)
(0 0 0)
(0 0 0)
(0 0 0)
(0 0 0)
(0 0 0)
(0 0 0)
(0 0 0)
(0 0 0)
(0 0 0)
(0 0 0)
(0 0 0)
(0 0 0)
(0 0 0)
(0 0 0)
(0 0 0)
(0 0 0)
(0 0 0)
(0 0 0)
(0 0 0)
(0 0 0)
(0 0 0)
(0 0 0)
(0 0 0)
(0 0 0)
(0 0 0)
(0 0 0)
(0 0 0)
(0 0 0)
(0 0 0)
(0 0 0)
(0 0 0)
(0 0 0)
(0 0 0)
(0 0 0)
(0 0 0)
(0 0 0)
(0 0 0)
(0 0 0)
(0 0 0)
(0 0 0)
(0 0 0)
(0 0 0)
(0 0 0)
(0 0 0)
(0 0 0)
(0 0 0)
(0 0 0)
(0 0 0)
(0 0 0)
(0 0 0)
(0 0 0)
(0 0 0)
(0 0 0)
(0 0 0)
(0 0 0)
(0 0 0)
(0 0 0)
(0 0 0)
(0 0 0)
(0 0 0)
(0 0 0)
(0 0 0)
(0 0 0)
(0 0 0)
(0 0 0)
(0 0 0)
(0 0 0)
(0 0 0)
(0 0 0)
(0 0 0)
(0 0 0)
(0 0 0)
(0 0 0)
(0 0 0)
(0 0 0)
(0 0 0)
(0 0 0)
(0 0 0)
(0 0 0)
(0 0 0)
(0 0 0)
(0 0 0)
(0 0 0)
(0 0 0)
(0 0 0)
(0 0 0)
(0 0 0)
(0 0 0)
(0 0 0)
(0 0 0)
(0 0 0)
(0 0 0)
(0 0 0)
(0 0 0)
(0 0 0)
(0 0 0)
(0 0 0)
(0 0 0)
(0 0 0)
(0 0 0)
(0 0 0)
(0 0 0)
(0 0 0)
(0 0 0)
(0 0 0)
(0 0 0)
(0 0 0)
(0 0 0)
(0 0 0)
(0 0 0)
(0 0 0)
(0 0 0)
(0 0 0)
(0 0 0)
(0 0 0)
(0 0 0)
(0 0 0)
(0 0 0)
(0 0 0)
(0 0 0)
(0 0 0)
(0 0 0)
(0 0 0)
(0 0 0)
(0 0 0)
(0 0 0)
(0 0 0)
(0 0 0)
(0 0 0)
(0 0 0)
(0 0 0)
(0 0 0)
(0 0 0)
(0 0 0)
(0 0 0)
(0 0 0)
(0 0 0)
(0 0 0)
(0 0 0)
(0 0 0)
(0 0 0)
(0 0 0)
(0 0 0)
(0 0 0)
(0 0 0)
(0 0 0)
(0 0 0)
(0 0 0)
(0 0 0)
(0 0 0)
(0 0 0)
(0 0 0)
(0 0 0)
(0 0 0)
(0 0 0)
(0 0 0)
(0 0 0)
(0 0 0)
(0 0 0)
(0 0 0)
(0 0 0)
(0 0 0)
(0 0 0)
(0 0 0)
(0 0 0)
(0 0 0)
(0 0 0)
(0 0 0)
(0 0 0)
(0 0 0)
(0 0 0)
(0 0 0)
(0 0 0)
(0 0 0)
(0 0 0)
(0 0 0)
(0 0 0)
(0 0 0)
(0 0 0)
(0 0 0)
(0 0 0)
(0 0 0)
(0 0 0)
(0 0 0)
(0 0 0)
(0 0 0)
(0 0 0)
(0 0 0)
(0 0 0)
(0 0 0)
(0 0 0)
(0 0 0)
(0 0 0)
(0 0 0)
(0 0 0)
(0 0 0)
(0 0 0)
(0 0 0)
(0 0 0)
(0 0 0)
(0 0 0)
(0 0 0)
(0 0 0)
(0 0 0)
(0 0 0)
(0 0 0)
(0 0 0)
(0 0 0)
(0 0 0)
(0 0 0)
(0 0 0)
(0 0 0)
(0 0 0)
(0 0 0)
(0 0 0)
(0 0 0)
(0 0 0)
(0 0 0)
(0 0 0)
(0 0 0)
(0 0 0)
(0 0 0)
(0 0 0)
(0 0 0)
(0 0 0)
(0 0 0)
(0 0 0)
(0 0 0)
(0 0 0)
(0 0 0)
(0 0 0)
(0 0 0)
(0 0 0)
(0 0 0)
(0 0 0)
(0 0 0)
(0 0 0)
(0 0 0)
(0 0 0)
(0 0 0)
(0 0 0)
(0 0 0)
(0 0 0)
(0 0 0)
(0 0 0)
(0 0 0)
(0 0 0)
(0 0 0)
(0 0 0)
(0 0 0)
(0 0 0)
(0 0 0)
(0 0 0)
(0 0 0)
(0 0 0)
(0 0 0)
(0 0 0)
(0 0 0)
(0 0 0)
(0 0 0)
(0 0 0)
(0 0 0)
(0 0 0)
(0 0 0)
(0.000118966 -9.5485e-05 0.00012256)
(0.00027736 6.88824e-05 0.000201853)
(6.70078e-05 3.06307e-05 0.000191691)
(4.1486e-07 2.61701e-05 2.70488e-05)
(0.000181736 -2.28466e-05 0.000403838)
(-7.79141e-05 0.000139042 0.000205554)
(-0.000190578 0.000216766 0.000177092)
(8.64128e-05 2.93609e-05 0.00026226)
(0.000314183 0.000156958 0.000211754)
(0.000139666 1.3239e-05 0.000349837)
(0.000125551 4.5595e-05 0.000182522)
(6.03807e-05 1.50732e-05 0.000230379)
(-6.10135e-05 -9.42654e-05 7.08387e-05)
(-8.73256e-05 -0.000128793 0.000234691)
(-2.53698e-05 -0.000174658 0.00013893)
(7.32748e-05 3.79825e-05 -1.50799e-05)
(-0.000247151 -0.000101921 0.000335527)
(-0.000174533 0.000234461 0.000298303)
(2.36322e-05 0.000293297 0.000320301)
(0.000246109 0.000389408 0.000140296)
(0.000108271 0.000464786 0.000415233)
(-0.000319099 0.000549704 0.000280133)
(-0.000153722 0.000139814 0.000272236)
(7.6612e-05 0.000215945 0.000211409)
(0.000160182 -6.46561e-05 0.000473255)
(0.000496449 -0.000217063 0.00117413)
(-2.08416e-05 -0.000164775 0.000576034)
(2.04416e-05 0.000308619 0.000684253)
(-0.00023032 -0.000155192 0.000594431)
(7.50268e-05 -0.000159612 0.000824884)
(0.000114055 0.000196135 0.00051828)
(0.000192672 0.000209511 0.000427698)
(-0.000128759 -2.79374e-05 0.000814416)
(0.000286348 0.000196671 0.00154442)
(0.000470852 0.000265154 0.000648843)
(-3.22229e-05 -4.16168e-05 0.00209201)
(-0.00013429 -4.90582e-05 0.000935498)
(5.26736e-05 0.000221254 0.00107546)
(0.000132131 0.000108798 0.000826101)
(3.69756e-05 0.000127967 0.00083087)
(-0.000225918 0.000318279 0.00117455)
(-0.000188203 -0.000176177 0.000943007)
(-0.000167687 -0.000243111 0.000758113)
(-7.2764e-05 -3.67167e-05 0.000756704)
(-0.000226312 0.000206058 0.000846994)
(-0.000150148 7.44024e-06 0.00130359)
(3.938e-05 -6.5273e-05 0.00100073)
(4.47651e-05 0.00012557 0.00128943)
(-0.000232383 5.90566e-05 0.000852973)
(0.000530323 -0.000105055 0.00177755)
(-0.000120117 -5.15985e-05 0.000865104)
(-0.000568682 -0.000689105 0.00215717)
(-9.68498e-05 5.98147e-05 0.00110396)
(-0.000132163 -0.000254573 0.000667546)
(-0.000183757 0.000192209 0.00111475)
(0.000218441 0.000203565 0.0012195)
(-0.000301447 -1.12235e-05 0.00100167)
(-0.000292715 -9.11415e-05 0.000904048)
(-0.00014517 3.31136e-05 0.000682815)
(-5.991e-05 -0.000206611 0.0015052)
(-9.77255e-05 -0.00019283 0.00124885)
(-0.000216865 -0.000255192 0.00111432)
(9.14559e-05 -2.88029e-05 0.00105705)
(-4.56628e-05 1.0074e-05 0.00129495)
(0.000104396 8.95204e-06 0.000804285)
(-2.29063e-05 -0.000101606 0.000722528)
(-0.000219112 -4.70741e-05 0.000751291)
(-0.000141409 -5.49021e-05 0.000643634)
(3.52755e-06 3.08635e-05 0.00094733)
(4.50274e-05 -4.2956e-05 0.000702237)
(-0.000161696 4.11998e-05 0.000721901)
(5.42554e-05 0.000118761 0.000703995)
(-0.000129677 -1.62504e-05 0.0010755)
(-0.000114282 7.16304e-06 0.00111644)
(0.000141518 0.000269339 0.0015892)
(-0.000230325 0.000133418 0.000823236)
(-0.000199573 1.97291e-06 0.00114516)
(-0.000178906 0.000119536 0.00109148)
(-0.00012463 0.000262243 0.00123549)
(-0.000101291 0.000253237 0.00102907)
(4.02057e-05 7.37654e-05 0.000811529)
(-2.1738e-06 -4.89965e-05 0.000714824)
(-6.36356e-05 -7.43782e-05 0.000644716)
(-3.91806e-05 -4.10231e-05 0.00056135)
(-3.13736e-07 1.24067e-05 0.000912391)
(0.000103617 -0.000128141 0.000870005)
(0.000103257 -7.6832e-05 0.000957086)
(6.69169e-05 7.34935e-05 0.000259447)
(-4.90844e-05 -4.89447e-05 0.00103917)
(-5.90473e-05 -0.000123133 0.00118674)
(-7.32699e-05 -3.86576e-05 0.00103287)
(0.0003828 0.000594234 -0.00029687)
(-0.000151209 2.11961e-05 0.0012173)
(-0.000197166 -1.47008e-05 0.00107812)
(-0.000417161 7.03129e-05 0.00128946)
(-0.000288302 7.69901e-05 0.000924956)
(-5.58675e-05 -0.000149363 0.000804889)
(-5.9726e-05 -8.93132e-05 0.000952965)
(-4.56333e-05 0.000149215 0.000337274)
(1.97512e-05 -3.19105e-05 0.000374368)
(0.000109026 0.000142708 0.000939097)
(-1.19233e-05 -0.000178984 0.00111815)
(0.000169317 9.35418e-06 0.000794053)
(7.59853e-05 0.000126415 0.000171323)
(0.00170218 0.00114442 -0.000293308)
(-1.08222e-05 -0.000340672 0.00104447)
(0.000364331 -8.99103e-05 0.000811962)
(0.000848191 -0.00021222 2.50132e-05)
(0.00277457 0.00237918 -0.0012546)
(-0.000122941 4.4748e-05 0.000967432)
(-0.00111343 -0.000571588 0.00165606)
(0.00375332 -0.00263088 -0.000726804)
(0 0 0)
(0 0 0)
(0 0 0)
(0 0 0)
(0 0 0)
(0 0 0)
(0 0 0)
(0 0 0)
(0 0 0)
(0 0 0)
(0 0 0)
(0 0 0)
(0 0 0)
(0 0 0)
(0 0 0)
(0 0 0)
(0 0 0)
(0 0 0)
(0 0 0)
(0 0 0)
(0 0 0)
(0 0 0)
(0 0 0)
(0 0 0)
(0 0 0)
(0 0 0)
(0 0 0)
(0 0 0)
(0 0 0)
(0 0 0)
(0 0 0)
(0 0 0)
(0 0 0)
(0 0 0)
(0 0 0)
(0 0 0)
(0 0 0)
(0 0 0)
(0 0 0)
(0 0 0)
(0 0 0)
(0 0 0)
(0 0 0)
(0 0 0)
(0 0 0)
(0 0 0)
(0 0 0)
(0 0 0)
(0 0 0)
(0 0 0)
(0 0 0)
(0 0 0)
(0 0 0)
(0 0 0)
(0 0 0)
(0 0 0)
(0 0 0)
(0 0 0)
(0 0 0)
(0 0 0)
(0 0 0)
(0 0 0)
(0 0 0)
(0 0 0)
(0 0 0)
(0 0 0)
(0 0 0)
(0 0 0)
(0 0 0)
(0 0 0)
(0 0 0)
(0 0 0)
(0 0 0)
(0 0 0)
(0 0 0)
(0 0 0)
(0 0 0)
(0 0 0)
(0 0 0)
(0 0 0)
(0 0 0)
(0 0 0)
(0 0 0)
(0 0 0)
(0 0 0)
(0 0 0)
(0 0 0)
(0 0 0)
(0 0 0)
(0 0 0)
(0 0 0)
(0 0 0)
(0 0 0)
(0 0 0)
(0 0 0)
(0 0 0)
(0 0 0)
(0 0 0)
(0 0 0)
(0 0 0)
(0 0 0)
(0 0 0)
(0 0 0)
(0 0 0)
(0 0 0)
(0 0 0)
(0 0 0)
(0 0 0)
(0 0 0)
(0 0 0)
(0 0 0)
(0 0 0)
(0 0 0)
(0 0 0)
(0 0 0)
(0 0 0)
(0 0 0)
(0 0 0)
(0 0 0)
(0 0 0)
(0 0 0)
(0 0 0)
(0 0 0)
(0 0 0)
(0 0 0)
(0 0 0)
(0 0 0)
(0 0 0)
(0 0 0)
(0 0 0)
(0 0 0)
(0 0 0)
(0 0 0)
(0 0 0)
(0 0 0)
(0 0 0)
(0 0 0)
(0 0 0)
(0 0 0)
(0 0 0)
(0 0 0)
(0 0 0)
(0 0 0)
(0 0 0)
(0 0 0)
(0 0 0)
(0 0 0)
(0 0 0)
(0 0 0)
(0 0 0)
(0 0 0)
(0 0 0)
(0 0 0)
(0 0 0)
(0 0 0)
(0 0 0)
(0 0 0)
(0 0 0)
(0 0 0)
(0 0 0)
(0 0 0)
(0 0 0)
(0 0 0)
(0 0 0)
(0 0 0)
(0 0 0)
(0 0 0)
(0 0 0)
(0 0 0)
(0 0 0)
(0 0 0)
(0 0 0)
(0 0 0)
(0 0 0)
(0 0 0)
(0 0 0)
(0 0 0)
(0 0 0)
(0 0 0)
(0 0 0)
(0 0 0)
(0 0 0)
(0 0 0)
(0 0 0)
(0 0 0)
(0 0 0)
(0 0 0)
(0 0 0)
(0 0 0)
(0 0 0)
(0 0 0)
(0 0 0)
(0 0 0)
(0 0 0)
(0 0 0)
(0 0 0)
(0 0 0)
(0 0 0)
(0 0 0)
(0 0 0)
(0 0 0)
(0 0 0)
(0 0 0)
(0 0 0)
(0 0 0)
(0 0 0)
(0 0 0)
(0 0 0)
(0 0 0)
(0 0 0)
(0 0 0)
(0 0 0)
(0 0 0)
(0 0 0)
(0 0 0)
(0 0 0)
(0 0 0)
(0 0 0)
(0 0 0)
(0 0 0)
(0 0 0)
(0 0 0)
(0 0 0)
(0 0 0)
(0 0 0)
(0 0 0)
(0 0 0)
(0 0 0)
(0 0 0)
(0 0 0)
(0 0 0)
(0 0 0)
(0 0 0)
(0 0 0)
(0 0 0)
(0 0 0)
(0 0 0)
(0 0 0)
(0 0 0)
(0 0 0)
(0 0 0)
(0 0 0)
(0 0 0)
(0 0 0)
(0 0 0)
(0 0 0)
(0 0 0)
(0 0 0)
(0 0 0)
(0 0 0)
(0 0 0)
(0 0 0)
(0 0 0)
(0 0 0)
(0 0 0)
(0 0 0)
(0 0 0)
(0 0 0)
(0 0 0)
(0 0 0)
(0 0 0)
(0 0 0)
(0 0 0)
(0 0 0)
(0 0 0)
(0 0 0)
(0 0 0)
(0 0 0)
(0 0 0)
(0 0 0)
(0 0 0)
(0 0 0)
)
;

boundaryField
{
    inlet
    {
        type            zeroGradient;
    }
    outlet
    {
        type            zeroGradient;
    }
    wall
    {
        type            zeroGradient;
    }
    procBoundary1to0
    {
        type            processor;
        value           nonuniform List<vector> 
192
(
(-1.12777e-06 0.000269915 5.26154e-05)
(-0.000126997 0.000284034 0.000177914)
(9.87514e-06 -0.000109511 0.000199296)
(9.21929e-06 -6.29073e-05 0.000188539)
(5.35855e-05 0.000436798 0.000276445)
(-0.000457242 0.000216613 0.00081356)
(-0.000206305 0.000220453 0.000769603)
(-0.000126747 -0.000144583 0.000483505)
(-0.000158551 0.000391928 0.000891078)
(4.45201e-06 0.000373999 0.000887024)
(-0.000408007 0.000399734 0.00109482)
(-4.81787e-05 -0.000118247 0.000988042)
(-5.82878e-05 0.000274617 0.00118908)
(0.00015078 0.000300952 0.00105849)
(-3.21896e-05 0.000193848 0.00071687)
(-3.10304e-05 4.54191e-05 0.000888664)
(-5.50577e-05 4.93548e-05 0.00107195)
(-4.25343e-05 3.28005e-05 0.000998155)
(4.90358e-05 -1.37609e-05 0.0008128)
(-0.000167563 3.26269e-05 0.000748438)
(-6.19481e-05 4.90725e-06 0.00109776)
(-0.000102845 1.79755e-05 0.00103645)
(-0.000180377 -1.86431e-05 0.00115922)
(-0.000168792 -0.00014012 0.0011481)
(-0.000148137 -0.000187438 0.00104783)
(-0.000348734 -0.000254876 0.00104211)
(-0.000244026 -5.41801e-05 0.00120695)
(2.62761e-05 0.000235479 0.00112375)
(0 0 0)
(0 0 0)
(0 0 0)
(0 0 0)
(0 0 0)
(0 0 0)
(0 0 0)
(0 0 0)
(0 0 0)
(0 0 0)
(0 0 0)
(0 0 0)
(0 0 0)
(0 0 0)
(0 0 0)
(0 0 0)
(0 0 0)
(0 0 0)
(0 0 0)
(0 0 0)
(0 0 0)
(0 0 0)
(0 0 0)
(0 0 0)
(0 0 0)
(0 0 0)
(0 0 0)
(0 0 0)
(0 0 0)
(0 0 0)
(0 0 0)
(0 0 0)
(0 0 0)
(0 0 0)
(0 0 0)
(0 0 0)
(0 0 0)
(0 0 0)
(0 0 0)
(0 0 0)
(0 0 0)
(0 0 0)
(0 0 0)
(0 0 0)
(0 0 0)
(0 0 0)
(0 0 0)
(0 0 0)
(0 0 0)
(0 0 0)
(0 0 0)
(0 0 0)
(0 0 0)
(0 0 0)
(0 0 0)
(0 0 0)
(0 0 0)
(0 0 0)
(0 0 0)
(0 0 0)
(0 0 0)
(0 0 0)
(0 0 0)
(0 0 0)
(0 0 0)
(0 0 0)
(0 0 0)
(0 0 0)
(4.0503e-05 5.24451e-05 0.00019396)
(-2.49537e-05 9.50036e-05 0.000316202)
(0.000205591 -0.000118644 3.61301e-06)
(0.000251703 0.000150524 -0.000219337)
(-0.000132868 0.000126394 0.000570607)
(-0.000188214 0.00018353 0.00118601)
(-0.000100921 0.000619491 0.000268306)
(1.06071e-05 0.000523886 0.00028038)
(9.05817e-05 -4.45447e-05 0.000847808)
(-0.000384234 -8.12455e-05 0.00107668)
(-0.000326869 0.000249204 0.000711028)
(-2.58816e-05 0.000400385 0.000694149)
(0.000429365 -0.000145654 0.00159939)
(8.91928e-05 -7.48586e-06 0.00113114)
(-0.000154522 4.66145e-05 0.00111772)
(-8.3403e-05 7.30814e-05 0.00116841)
(9.24952e-05 -0.000103892 0.000614107)
(8.72033e-05 0.000120312 0.000749408)
(3.50658e-05 7.20547e-05 0.000988269)
(-0.000145125 0.00012779 0.00145772)
(5.80088e-05 0.000122785 0.000399868)
(5.40019e-05 4.88812e-05 0.000519856)
(6.91258e-05 1.6917e-05 0.00107396)
(-1.89571e-05 -4.17295e-06 0.0010246)
(0.00382654 0.00029443 -0.00646178)
(-4.16372e-05 0.000111168 0.000672661)
(5.07537e-05 -0.000112968 0.00116715)
(6.53283e-05 -4.13916e-05 0.000990485)
(0 0 0)
(0 0 0)
(0 0 0)
(0 0 0)
(0 0 0)
(0 0 0)
(0 0 0)
(0 0 0)
(0 0 0)
(0 0 0)
(0 0 0)
(0 0 0)
(0 0 0)
(0 0 0)
(0 0 0)
(0 0 0)
(0 0 0)
(0 0 0)
(0 0 0)
(0 0 0)
(0 0 0)
(0 0 0)
(0 0 0)
(0 0 0)
(0 0 0)
(0 0 0)
(0 0 0)
(0 0 0)
(0 0 0)
(0 0 0)
(0 0 0)
(0 0 0)
(0 0 0)
(0 0 0)
(0 0 0)
(0 0 0)
(0 0 0)
(0 0 0)
(0 0 0)
(0 0 0)
(0 0 0)
(0 0 0)
(0 0 0)
(0 0 0)
(0 0 0)
(0 0 0)
(0 0 0)
(0 0 0)
(0 0 0)
(0 0 0)
(0 0 0)
(0 0 0)
(0 0 0)
(0 0 0)
(0 0 0)
(0 0 0)
(0 0 0)
(0 0 0)
(0 0 0)
(0 0 0)
(0 0 0)
(0 0 0)
(0 0 0)
(0 0 0)
(0 0 0)
(0 0 0)
(0 0 0)
(0 0 0)
)
;
    }
    procBoundary1to3
    {
        type            processor;
        value           nonuniform List<vector> 
192
(
(-2.16393e-05 0.000211467 0.000249464)
(-0.000528381 -0.000140896 0.000168433)
(-0.000135908 -0.00022122 3.31113e-05)
(-8.73014e-05 -0.000159407 3.21927e-05)
(-0.000115219 -0.000684153 0.00105523)
(-0.000242402 -0.000114585 0.000802072)
(-9.17757e-05 -0.000334823 0.000935777)
(-0.0001901 -0.000364819 0.000105224)
(-0.000391835 -0.000713471 0.00182967)
(-0.00024068 -0.00053354 0.00140401)
(8.8457e-05 -0.000171902 0.000854108)
(0.000292132 -0.000671786 0.000959887)
(-2.2937e-05 -0.000414975 0.00126734)
(-0.00014528 -6.80007e-05 0.00139045)
(-0.000432342 -0.000126738 0.000825824)
(-8.65059e-05 -0.000242278 0.00100576)
(-0.000165433 -9.92507e-05 0.000883231)
(-0.00023542 7.99622e-06 0.0010194)
(-0.00029909 -0.00011361 0.00114073)
(-0.000297921 -0.00013489 0.00107417)
(-0.000334624 -0.000229872 0.000815989)
(-0.000174891 -6.37405e-06 0.00105248)
(-0.000259561 3.56689e-05 0.00113461)
(-0.00027031 7.98704e-05 0.00110404)
(-3.27757e-05 -3.61777e-05 0.00104587)
(0.00068937 -0.00021974 0.000973135)
(-0.000201379 0.000408272 0.00109558)
(-0.000278594 1.69294e-05 0.00108136)
(0 0 0)
(0 0 0)
(0 0 0)
(0 0 0)
(0 0 0)
(0 0 0)
(0 0 0)
(0 0 0)
(0 0 0)
(0 0 0)
(0 0 0)
(0 0 0)
(0 0 0)
(0 0 0)
(0 0 0)
(0 0 0)
(0 0 0)
(0 0 0)
(0 0 0)
(0 0 0)
(0 0 0)
(0 0 0)
(0 0 0)
(0 0 0)
(0 0 0)
(0 0 0)
(0 0 0)
(0 0 0)
(0 0 0)
(0 0 0)
(0 0 0)
(0 0 0)
(0 0 0)
(0 0 0)
(0 0 0)
(0 0 0)
(0 0 0)
(0 0 0)
(0 0 0)
(0 0 0)
(0 0 0)
(0 0 0)
(0 0 0)
(0 0 0)
(0 0 0)
(0 0 0)
(0 0 0)
(0 0 0)
(0 0 0)
(0 0 0)
(0 0 0)
(0 0 0)
(0 0 0)
(0 0 0)
(0 0 0)
(0 0 0)
(0 0 0)
(0 0 0)
(0 0 0)
(0 0 0)
(0 0 0)
(0 0 0)
(0 0 0)
(0 0 0)
(0 0 0)
(0 0 0)
(0 0 0)
(0 0 0)
(9.23852e-05 -0.000138379 0.000174819)
(0.000215213 -0.000150836 5.15282e-05)
(0.000232971 -3.85653e-05 0.000200439)
(-0.000113862 -8.69728e-05 -3.99942e-05)
(-0.000210079 -0.000241863 0.000359673)
(8.09897e-05 -0.000141356 0.000366816)
(0.000188531 3.45214e-05 0.000614304)
(0.000113218 -0.000521966 0.000396322)
(-4.08807e-05 -0.000245485 0.00074552)
(0.000170144 -0.000257305 0.000987069)
(-3.91842e-05 -0.000126483 0.000846002)
(-5.54253e-05 -0.000298529 0.000886219)
(-6.81801e-05 -0.000140451 0.00114271)
(-0.000237457 5.10446e-05 0.000985072)
(-0.000293617 -0.000366214 0.00128126)
(0.000137389 -0.000560128 0.000834815)
(-9.32396e-05 -6.78395e-05 0.00100444)
(-3.92894e-05 -2.28191e-05 0.00102439)
(-8.0991e-05 2.27899e-05 0.00129129)
(-1.83358e-05 0.000148792 0.00101409)
(-0.00018735 7.58977e-05 0.00109922)
(-0.000148779 0.000116374 0.00109399)
(5.10398e-05 -1.4311e-05 0.00114964)
(-8.72258e-05 1.82213e-05 0.000906518)
(-0.000156915 0.00016538 0.00101123)
(-6.04411e-05 0.000115478 0.00109106)
(-0.000210571 -9.66946e-05 0.00119141)
(-0.00011618 -0.000185279 0.000895715)
(0 0 0)
(0 0 0)
(0 0 0)
(0 0 0)
(0 0 0)
(0 0 0)
(0 0 0)
(0 0 0)
(0 0 0)
(0 0 0)
(0 0 0)
(0 0 0)
(0 0 0)
(0 0 0)
(0 0 0)
(0 0 0)
(0 0 0)
(0 0 0)
(0 0 0)
(0 0 0)
(0 0 0)
(0 0 0)
(0 0 0)
(0 0 0)
(0 0 0)
(0 0 0)
(0 0 0)
(0 0 0)
(0 0 0)
(0 0 0)
(0 0 0)
(0 0 0)
(0 0 0)
(0 0 0)
(0 0 0)
(0 0 0)
(0 0 0)
(0 0 0)
(0 0 0)
(0 0 0)
(0 0 0)
(0 0 0)
(0 0 0)
(0 0 0)
(0 0 0)
(0 0 0)
(0 0 0)
(0 0 0)
(0 0 0)
(0 0 0)
(0 0 0)
(0 0 0)
(0 0 0)
(0 0 0)
(0 0 0)
(0 0 0)
(0 0 0)
(0 0 0)
(0 0 0)
(0 0 0)
(0 0 0)
(0 0 0)
(0 0 0)
(0 0 0)
(0 0 0)
(0 0 0)
(0 0 0)
(0 0 0)
)
;
    }
}


// ************************************************************************* //
