/*--------------------------------*- C++ -*----------------------------------*\
| =========                 |                                                 |
| \\      /  F ield         | OpenFOAM: The Open Source CFD Toolbox           |
|  \\    /   O peration     | Version:  2506                                  |
|   \\  /    A nd           | Website:  www.openfoam.com                      |
|    \\/     M anipulation  |                                                 |
\*---------------------------------------------------------------------------*/
FoamFile
{
    version     2.0;
    format      ascii;
    arch        "LSB;label=32;scalar=64";
    class       volScalarField;
    location    "0.05";
    object      voidfraction;
}
// * * * * * * * * * * * * * * * * * * * * * * * * * * * * * * * * * * * * * //

dimensions      [0 0 0 0 0 0 0];

internalField   nonuniform List<scalar> 
1152
(
0.544431
0.462797
0.45753
0.428563
0.44173
0.460163
0.38643
0.428563
0.452263
0.436463
0.420663
0.48913
0.404863
0.446997
0.531264
0.49703
0.399596
0.370629
0.391696
0.378529
0.404863
0.381163
0.389063
0.423296
0.428563
0.428563
0.412763
0.407496
0.412763
0.357463
0.325862
0.41013
0.491764
0.38643
0.399596
0.331129
0.349563
0.383796
0.452263
0.43383
0.373263
0.40223
0.404863
0.333763
0.40223
0.44173
0.452263
0.328496
0.354829
0.42593
0.381163
0.39433
0.378529
0.354829
0.46543
0.420663
0.444363
0.381163
0.399596
0.378529
0.341663
0.423296
0.431196
0.349563
0.42593
0.404863
0.420663
0.412763
0.439097
0.365363
0.370629
0.40223
0.396963
0.439097
0.365363
0.431196
0.452263
0.296896
0.45753
0.415396
0.365363
0.41013
0.40223
0.44173
0.475963
0.370629
0.40223
0.352196
0.375896
0.43383
0.404863
0.381163
0.415396
0.383796
0.436463
0.436463
0.715598
0.726132
0.620798
0.712965
0.670831
0.623431
0.649764
0.576031
0.631331
0.723498
0.636598
0.668198
0.515464
0.589197
0.831466
0.752465
1
1
1
1
1
1
1
1
1
1
1
1
0.997367
1
1
1
1
1
1
1
1
1
1
1
1
1
1
1
1
1
1
1
1
1
1
1
1
1
1
1
1
1
1
1
1
1
1
1
1
1
1
1
1
1
1
1
1
1
1
1
1
1
1
1
1
1
1
1
1
1
1
1
1
1
1
1
1
1
1
1
1
1
1
1
1
1
1
1
1
1
1
1
1
1
1
1
1
1
1
1
1
1
1
1
1
1
1
1
1
1
1
1
1
1
1
1
1
1
1
1
1
1
1
1
1
1
1
1
1
1
1
1
1
1
1
1
1
1
1
1
1
1
1
1
1
1
1
1
1
1
1
1
1
1
1
1
1
1
1
1
1
1
1
1
1
1
1
1
1
1
1
1
1
1
1
1
1
1
1
1
1
1
1
1
1
1
1
1
1
1
1
1
1
1
1
1
1
1
1
1
1
1
1
1
1
1
1
1
1
1
1
1
1
1
1
1
1
1
1
1
1
1
1
1
1
1
1
1
1
1
1
1
1
1
1
1
1
1
1
1
1
1
1
1
1
1
1
1
1
1
1
1
1
1
1
1
1
1
1
1
1
1
1
1
1
1
1
1
1
1
1
1
0.538266
0.42638
0.428186
0.473928
0.442169
0.492566
0.539566
0.436882
0.476008
0.399331
0.487571
0.510388
0.483792
0.453207
0.473631
0.382276
0.414778
0.432097
0.415141
0.44695
0.412498
0.424908
0.412886
0.402847
0.429578
0.394583
0.432173
0.412466
0.441193
0.361172
0.377343
0.412943
0.364668
0.414946
0.408618
0.441554
0.374913
0.410107
0.425067
0.427599
0.391992
0.406454
0.410014
0.347184
0.325923
0.423431
0.342038
0.452372
0.344981
0.418757
0.417315
0.484719
0.34722
0.412222
0.427503
0.371906
0.447266
0.404079
0.418323
0.387079
0.363511
0.342224
0.438325
0.421705
0.395092
0.437815
0.447754
0.436159
0.414476
0.397422
0.393397
0.378095
0.429578
0.361344
0.432173
0.408839
0.383558
0.434258
0.351667
0.461134
0.348561
0.449249
0.402096
0.444252
0.471841
0.431251
0.432375
0.430693
0.383149
0.439692
0.415554
0.412466
0.381052
0.377414
0.396601
0.386657
0.686808
0.592177
0.576031
0.678961
0.725041
0.695539
0.559056
0.563738
0.770063
0.734091
0.681463
0.727993
0.82459
0.713069
0.736815
0.649518
1
1
1
1
1
1
1
1
1
1
1
1
1
1
1
1
1
1
1
1
1
1
1
1
1
1
1
1
1
1
1
1
1
1
1
1
1
1
1
1
1
1
1
1
1
1
1
1
1
1
1
1
1
1
1
1
1
1
1
1
1
1
1
1
1
1
1
1
1
1
1
1
1
1
1
1
1
1
1
1
1
1
1
1
1
1
1
1
1
1
1
1
1
1
1
1
1
1
1
1
1
1
1
1
1
1
1
1
1
1
1
1
1
1
1
1
1
1
1
1
1
1
1
1
1
1
1
1
1
1
1
1
1
1
1
1
1
1
1
1
1
1
1
1
1
1
1
1
1
1
1
1
1
1
1
1
1
1
1
1
1
1
1
1
1
1
1
1
1
1
1
1
1
1
1
1
1
1
1
1
1
1
1
1
1
1
1
1
1
1
1
1
1
1
1
1
1
1
1
1
1
1
1
1
1
1
1
1
1
1
1
1
1
1
1
1
1
1
1
1
1
1
1
1
1
1
1
1
1
1
1
1
1
1
1
1
1
1
1
1
1
1
1
1
1
1
1
1
1
1
1
1
1
1
1
1
1
1
1
1
1
1
1
1
1
1
1
1
1
1
1
1
0.469896
0.448733
0.455446
0.525186
0.464002
0.410014
0.356855
0.47167
0.40719
0.451563
0.484108
0.458777
0.350982
0.451688
0.467885
0.448782
0.360371
0.437853
0.402847
0.411879
0.390182
0.412784
0.456737
0.493412
0.377414
0.475305
0.429136
0.407323
0.381052
0.345563
0.404585
0.366457
0.491801
0.426973
0.356436
0.428065
0.412649
0.432173
0.381216
0.412967
0.41531
0.377963
0.435479
0.3997
0.451216
0.396414
0.386782
0.479206
0.369133
0.416093
0.350248
0.425368
0.361296
0.385085
0.464045
0.421663
0.396362
0.413576
0.333992
0.477834
0.421146
0.396414
0.368979
0.364668
0.347228
0.4306
0.34406
0.392994
0.415858
0.401704
0.432375
0.434709
0.396362
0.394583
0.477765
0.395889
0.38857
0.414102
0.422388
0.482786
0.338465
0.416093
0.353342
0.498208
0.422277
0.412784
0.451865
0.386876
0.409896
0.38746
0.414336
0.3997
0.386064
0.40968
0.382826
0.387933
0.719615
0.648205
0.718441
0.727522
0.669414
0.609446
0.697917
0.828238
0.629155
0.762581
0.801255
0.729389
0.716838
0.728055
0.8734
0.813874
1
1
1
1
1
1
1
1
1
1
1
1
1
1
1
1
1
1
1
1
1
1
1
1
1
1
1
1
1
1
1
1
1
1
1
1
1
1
1
1
1
1
1
1
1
1
1
1
1
1
1
1
1
1
1
1
1
1
1
1
1
1
1
1
1
1
1
1
1
1
1
1
1
1
1
1
1
1
1
1
1
1
1
1
1
1
1
1
1
1
1
1
1
1
1
1
1
1
1
1
1
1
1
1
1
1
1
1
1
1
1
1
1
1
1
1
1
1
1
1
1
1
1
1
1
1
1
1
1
1
1
1
1
1
1
1
1
1
1
1
1
1
1
1
1
1
1
1
1
1
1
1
1
1
1
1
1
1
1
1
1
1
1
1
1
1
1
1
1
1
1
1
1
1
1
1
1
1
1
1
1
1
1
1
1
1
1
1
1
1
1
1
1
1
1
1
1
1
1
1
1
1
1
1
1
1
1
1
1
1
1
1
1
1
1
1
1
1
1
1
1
1
1
1
1
1
1
1
1
1
1
1
1
1
1
1
1
1
1
1
1
1
1
1
1
1
1
1
1
1
1
1
1
1
1
1
1
1
1
1
1
1
1
1
1
1
1
1
1
1
1
1
)
;

boundaryField
{
    inlet
    {
        type            fixedValue;
        value           uniform 1;
    }
    outlet
    {
        type            fixedValue;
        value           uniform 1;
    }
    wall
    {
        type            zeroGradient;
    }
    procBoundary1to0
    {
        type            processor;
        value           nonuniform List<scalar> 
192
(
0.383796
0.381163
0.436463
0.42593
0.304796
0.381163
0.344296
0.360096
0.310062
0.41803
0.446997
0.383796
0.44173
0.420663
0.320596
0.49703
0.407496
0.38643
0.51283
0.370629
0.446997
0.45753
0.439097
0.352196
0.607631
0.53653
0.702431
0.599731
1
1
1
1
1
1
1
1
1
1
1
1
1
1
1
1
1
1
1
1
1
1
1
1
1
1
1
1
1
1
1
1
1
1
1
1
1
1
1
1
1
1
1
1
1
1
1
1
1
1
1
1
1
1
1
1
1
1
1
1
1
1
1
1
1
1
1
1
0.391513
0.416454
0.476008
0.368523
0.439834
0.45206
0.407469
0.456228
0.429096
0.418432
0.378727
0.46124
0.482786
0.422388
0.425157
0.378546
0.455941
0.404585
0.374305
0.413628
0.488155
0.398651
0.425157
0.463745
0.617011
0.64196
0.796594
0.67925
1
1
1
1
1
1
1
1
1
1
1
1
1
1
1
1
1
1
1
1
1
1
1
1
1
1
1
1
1
1
1
1
1
1
1
1
1
1
1
1
1
1
1
1
1
1
1
1
1
1
1
1
1
1
1
1
1
1
1
1
1
1
1
1
1
1
1
1
)
;
    }
    procBoundary1to3
    {
        type            processor;
        value           nonuniform List<scalar> 
192
(
0.573397
0.415396
0.415396
0.339029
0.499664
0.396963
0.462797
0.428563
0.38643
0.365363
0.381163
0.515464
0.281096
0.365363
0.439097
0.362729
0.286362
0.494397
0.370629
0.389063
0.533897
0.436463
0.41013
0.428563
0.462797
0.549697
0.570764
0.683998
1
1
1
1
1
1
1
1
1
1
1
1
1
1
1
1
1
1
1
1
1
1
1
1
1
1
1
1
1
1
1
1
1
1
1
1
1
1
1
1
1
1
1
1
1
1
1
1
1
1
1
1
1
1
1
1
1
1
1
1
1
1
1
1
1
1
1
1
0.478781
0.469375
0.418432
0.452361
0.37604
0.365461
0.467885
0.463099
0.391075
0.341141
0.42041
0.448782
0.406111
0.438422
0.438213
0.482786
0.431169
0.391992
0.414476
0.398671
0.453722
0.407469
0.475798
0.411199
0.674238
0.723633
0.695369
0.642066
1
1
1
1
1
1
1
1
1
1
1
1
1
1
1
1
1
1
1
1
1
1
1
1
1
1
1
1
1
1
1
1
1
1
1
1
1
1
1
1
1
1
1
1
1
1
1
1
1
1
1
1
1
1
1
1
1
1
1
1
1
1
1
1
1
1
1
1
)
;
    }
}


// ************************************************************************* //
