/*--------------------------------*- C++ -*----------------------------------*\
| =========                 |                                                 |
| \\      /  F ield         | OpenFOAM: The Open Source CFD Toolbox           |
|  \\    /   O peration     | Version:  2506                                  |
|   \\  /    A nd           | Website:  www.openfoam.com                      |
|    \\/     M anipulation  |                                                 |
\*---------------------------------------------------------------------------*/
FoamFile
{
    version     2.0;
    format      ascii;
    arch        "LSB;label=32;scalar=64";
    class       volScalarField;
    location    "0.08";
    object      Ksl;
}
// * * * * * * * * * * * * * * * * * * * * * * * * * * * * * * * * * * * * * //

dimensions      [1 -3 -1 0 0 0 0];

internalField   nonuniform List<scalar> 
1152
(
132180
275979
330271
153371
183615
227046
149959
206625
135755
155107
190863
314910
223965
270911
196781
144883
233094
243819
145846
159269
228049
213479
186937
187703
283038
154112
170956
165177
175131
187351
129462
230328
556699
157621
242561
266872
215071
252205
236509
453320
233635
253865
404283
398481
233312
154442
200215
325244
167767
207977
192350
175201
163610
304824
266362
418076
300176
283579
205983
164677
180287
284193
292259
557763
309036
275645
122918
281525
295412
322946
172804
278193
143727
256007
219277
222327
256265
315952
318937
208835
176153
276809
247558
229447
193265
296581
335019
340110
138481
299624
169889
220172
208698
252945
294475
500851
56456.2
45065.3
62966.4
86236.5
90860.4
62421.8
79716.6
91680.9
15058
45243.7
90704.7
66643.5
53681.3
49439.5
119148
50274.8
0
0
0
0
0
0
0
0
0
0
0
0
0
0
0
0
0
0
0
0
0
0
0
0
0
0
0
0
0
0
0
0
0
0
0
0
0
0
0
0
0
0
0
0
0
0
0
0
0
0
0
0
0
0
0
0
0
0
0
0
0
0
0
0
0
0
0
0
0
0
0
0
0
0
0
0
0
0
0
0
0
0
0
0
0
0
0
0
0
0
0
0
0
0
0
0
0
0
0
0
0
0
0
0
0
0
0
0
0
0
0
0
0
0
0
0
0
0
0
0
0
0
0
0
0
0
0
0
0
0
0
0
0
0
0
0
0
0
0
0
0
0
0
0
0
0
0
0
0
0
0
0
0
0
0
0
0
0
0
0
0
0
0
0
0
0
0
0
0
0
0
0
0
0
0
0
0
0
0
0
0
0
0
0
0
0
0
0
0
0
0
0
0
0
0
0
0
0
0
0
0
0
0
0
0
0
0
0
0
0
0
0
0
0
0
0
0
0
0
0
0
0
0
0
0
0
0
0
0
0
0
0
0
0
0
0
0
0
0
0
0
0
0
0
0
0
0
0
0
0
0
0
0
0
0
0
0
0
0
0
0
0
0
0
0
0
0
0
0
0
0
0
181788
207224
201555
137329
261972
147693
138494
202547
148587
155288
157556
216759
193584
166710
204937
142683
334000
130184
224890
246189
214182
222369
156283
247219
234568
172514
173054
159716
125058
237582
139356
160019
216798
271709
376556
136083
339974
312488
201121
176600
168259
185907
195768
322019
244934
290839
182633
279068
156522
278464
140134
229786
345175
212731
281637
226632
272858
333934
170313
110866
307224
177608
318004
160805
236263
175711
176518
403009
247022
171287
243752
331077
311396
219588
285286
246972
213577
343198
243816
153824
83895.9
330138
150050
391884
303052
284174
237354
190932
203169
223427
258556
362262
263187
198912
120966
172959
131360
45633.6
66648
94006.2
79845.5
69797.5
72668.3
66862.1
66440.7
26803.1
55787.2
66947.6
55894.4
52072.2
72961.4
123912
0
0
0
0
0
0
0
0
0
0
0
0
0
0
0
0
0
0
0
0
0
0
0
0
0
0
0
0
0
0
0
0
0
0
0
0
0
0
0
0
0
0
0
0
0
0
0
0
0
0
0
0
0
0
0
0
0
0
0
0
0
0
0
0
0
0
0
0
0
0
0
0
0
0
0
0
0
0
0
0
0
0
0
0
0
0
0
0
0
0
0
0
0
0
0
0
0
0
0
0
0
0
0
0
0
0
0
0
0
0
0
0
0
0
0
0
0
0
0
0
0
0
0
0
0
0
0
0
0
0
0
0
0
0
0
0
0
0
0
0
0
0
0
0
0
0
0
0
0
0
0
0
0
0
0
0
0
0
0
0
0
0
0
0
0
0
0
0
0
0
0
0
0
0
0
0
0
0
0
0
0
0
0
0
0
0
0
0
0
0
0
0
0
0
0
0
0
0
0
0
0
0
0
0
0
0
0
0
0
0
0
0
0
0
0
0
0
0
0
0
0
0
0
0
0
0
0
0
0
0
0
0
0
0
0
0
0
0
0
0
0
0
0
0
0
0
0
0
0
0
0
0
0
0
0
0
0
0
0
0
0
0
0
0
0
0
0
0
0
0
0
0
230051
133567
144880
233452
155841
183554
182726
197490
193661
117788
165832
160685
149705
217115
133521
207219
204006
174318
112649
281651
246105
227746
88307.9
266163
108105
168992
242939
150895
91327
214365
116804
136084
157395
253546
205969
258156
176604
157532
221689
297060
175159
174903
244092
230695
293943
227277
256925
184081
203037
119143
194146
306185
172094
306758
210376
328539
282837
206267
224120
207184
177474
205841
240619
290406
189977
186215
203984
207156
275178
225094
251631
273287
278917
228391
243345
361010
157485
446682
136275
565852
280575
208420
204930
234326
208674
402018
210516
288033
243032
181765
311895
262118
305315
169351
318761
358884
71657.2
71197.1
62434.1
105170
94348.6
59821.3
43647.3
57338.4
104883
26970.4
53040.4
91365.4
75978.2
114947
35271.8
74172.6
0
0
0
0
0
0
0
0
0
0
0
0
0
0
0
0
0
0
0
0
0
0
0
0
0
0
0
0
0
0
0
0
0
0
0
0
0
0
0
0
0
0
0
0
0
0
0
0
0
0
0
0
0
0
0
0
0
0
0
0
0
0
0
0
0
0
0
0
0
0
0
0
0
0
0
0
0
0
0
0
0
0
0
0
0
0
0
0
0
0
0
0
0
0
0
0
0
0
0
0
0
0
0
0
0
0
0
0
0
0
0
0
0
0
0
0
0
0
0
0
0
0
0
0
0
0
0
0
0
0
0
0
0
0
0
0
0
0
0
0
0
0
0
0
0
0
0
0
0
0
0
0
0
0
0
0
0
0
0
0
0
0
0
0
0
0
0
0
0
0
0
0
0
0
0
0
0
0
0
0
0
0
0
0
0
0
0
0
0
0
0
0
0
0
0
0
0
0
0
0
0
0
0
0
0
0
0
0
0
0
0
0
0
0
0
0
0
0
0
0
0
0
0
0
0
0
0
0
0
0
0
0
0
0
0
0
0
0
0
0
0
0
0
0
0
0
0
0
0
0
0
0
0
0
0
0
0
0
0
0
0
0
0
0
0
0
0
0
0
0
0
0
)
;

boundaryField
{
    inlet
    {
        type            zeroGradient;
    }
    outlet
    {
        type            zeroGradient;
    }
    wall
    {
        type            zeroGradient;
    }
    procBoundary2to0
    {
        type            processor;
        value           nonuniform List<scalar> 
192
(
173740
75540.3
194551
102731
162055
188812
220550
163635
195087
364318
323577
172186
240131
259977
318144
420945
230283
263544
320392
262786
405898
180859
204412
148011
32228.6
48443.9
68683.3
79117
0
0
0
0
0
0
0
0
0
0
0
0
0
0
0
0
0
0
0
0
0
0
0
0
0
0
0
0
0
0
0
0
0
0
0
0
0
0
0
0
0
0
0
0
0
0
0
0
0
0
0
0
0
0
0
0
0
0
0
0
0
0
0
0
0
0
0
0
158220
189890
268238
151550
124290
226940
339144
162561
323176
184061
182775
189297
267965
438617
222454
211944
145946
223950
229304
320234
217180
213213
265665
194636
84835
102985
81029
106948
0
0
1760
0
0
0
0
0
0
0
0
0
0
0
0
0
0
0
0
0
0
0
0
0
0
0
0
0
0
0
0
0
0
0
0
0
0
0
0
0
0
0
0
0
0
0
0
0
0
0
0
0
0
0
0
0
0
0
0
0
0
0
0
0
0
0
0
0
)
;
    }
    procBoundary2to3
    {
        type            processor;
        value           nonuniform List<scalar> 
192
(
229686
120602
128461
254871
168864
231828
246910
152260
295137
182648
277876
217191
221613
201137
371988
141982
157469
181721
255949
257543
229609
197808
255946
126321
53793.5
84541
56902.7
62325.1
0
0
0
0
0
0
0
0
0
0
0
0
0
0
0
0
0
0
0
0
0
0
0
0
0
0
0
0
0
0
0
0
0
0
0
0
0
0
0
0
0
0
0
0
0
0
0
0
0
0
0
0
0
0
0
0
0
0
0
0
0
0
0
0
0
0
0
0
160480
181694
189857
221689
197484
176880
160477
214575
457110
331903
295281
209435
237812
349376
309797
231816
160689
208149
189838
245843
234169
344699
130006
438283
26176.8
72209.4
37137.5
50952.5
0
0
0
0
0
0
0
0
0
0
0
0
0
0
0
0
0
0
0
0
0
0
0
0
0
0
0
0
0
0
0
0
0
0
0
0
0
0
0
0
0
0
0
0
0
0
0
0
0
0
0
0
0
0
0
0
0
0
0
0
0
0
0
0
0
0
0
0
)
;
    }
}


// ************************************************************************* //
