/*--------------------------------*- C++ -*----------------------------------*\
| =========                 |                                                 |
| \\      /  F ield         | OpenFOAM: The Open Source CFD Toolbox           |
|  \\    /   O peration     | Version:  2506                                  |
|   \\  /    A nd           | Website:  www.openfoam.com                      |
|    \\/     M anipulation  |                                                 |
\*---------------------------------------------------------------------------*/
FoamFile
{
    version     2.0;
    format      ascii;
    arch        "LSB;label=32;scalar=64";
    class       volVectorField;
    location    "0.08";
    object      U;
}
// * * * * * * * * * * * * * * * * * * * * * * * * * * * * * * * * * * * * * //

dimensions      [0 1 -1 0 0 0 0];

internalField   nonuniform List<vector> 
1152
(
(3.14706e-05 -0.00145483 0.0212086)
(0.000209944 -0.00192106 0.00937457)
(0.00103816 0.000281304 0.00688431)
(0.000648295 -0.00079689 0.0174454)
(-0.00022007 0.000739762 0.0160088)
(0.00133865 0.00136626 0.0110784)
(0.000264253 0.00109943 0.0189884)
(0.00019231 0.00035578 0.012518)
(-0.00146146 0.00145935 0.0209568)
(-0.000590286 0.0021265 0.0167427)
(-0.00140296 0.000769742 0.0145776)
(-0.000648575 0.00113678 0.00646466)
(-0.00303365 -0.000652509 0.0118849)
(-0.000238745 0.000431792 0.00908105)
(0.000897096 8.17954e-05 0.0135209)
(-0.000551247 0.000928718 0.0191854)
(0.00130463 0.00114229 0.0331946)
(0.00245344 0.00397843 0.0306746)
(-0.00194278 0.00117701 0.0511941)
(-0.000901469 0.000289165 0.046406)
(-0.000126731 0.00221287 0.0340709)
(0.000139281 -0.000828928 0.0339002)
(-0.00104337 -0.000826285 0.0406693)
(0.000437052 0.00103482 0.038849)
(-0.000242344 0.00215995 0.0262834)
(0.00039034 0.00245449 0.046773)
(0.000230193 0.00158041 0.04322)
(-0.00153197 0.00103473 0.0472575)
(0.000964291 0.00179582 0.0414765)
(-0.000227554 0.00155213 0.0389107)
(-0.00223412 0.00181285 0.0545771)
(0.00108726 0.00252218 0.0303859)
(0.00148169 0.000261559 0.0170594)
(-0.00178524 0.0010217 0.0511493)
(-0.0009556 -9.21423e-05 0.0365867)
(-9.48143e-05 -0.000818344 0.0326588)
(0.0013186 -0.0021065 0.0372334)
(-0.000970143 -0.00206501 0.0321875)
(-0.000783683 -0.000848174 0.0363414)
(0.00128393 0.000406753 0.0215937)
(0.00047873 -0.00206619 0.0357903)
(-0.000110189 -0.00111185 0.0332397)
(0.00168053 -0.000605454 0.0229519)
(0.00136259 0.000590082 0.02241)
(0.00146369 -0.000462111 0.035496)
(-0.00146598 -0.000334907 0.0498816)
(0.00161018 0.00309458 0.0400854)
(0.00225139 0.00028631 0.0270073)
(0.000415108 0.00131459 0.0505288)
(0.00343353 -0.000129187 0.0419945)
(0.00301212 0.00160067 0.0475545)
(0.000210104 0.00445808 0.0521732)
(0.00168596 0.0017838 0.0519456)
(0.00220274 0.000246021 0.0296728)
(0.00233363 -0.000732639 0.0348768)
(0.000114155 0.000588093 0.0241477)
(0.00224069 -0.000994335 0.0312147)
(0.000666004 -0.00189774 0.0327985)
(0.00251703 -0.00364923 0.0442251)
(0.000276938 -0.000509635 0.0540859)
(-2.19839e-05 -0.00160594 0.0502116)
(-1.91354e-05 -4.76582e-06 0.0324482)
(0.00324827 -0.00151437 0.0313938)
(0.000972513 -0.00148924 0.0187346)
(0.000939784 0.0004484 0.0296088)
(0.000929462 -0.00065551 0.0341853)
(0.00137362 -0.00303181 0.0700736)
(0.000335999 -0.00136997 0.0317989)
(0.0011755 0.00129755 0.031216)
(0.000327342 0.000445082 0.0305045)
(0.000670993 0.00105489 0.0498464)
(0.000282269 0.000565743 0.0326852)
(0.00334338 0.00049057 0.0629792)
(-0.000464971 -0.000400197 0.0372417)
(-0.000620086 -0.000311151 0.0395671)
(0.000556002 0.000124501 0.0397336)
(0.00209535 -3.03229e-05 0.0351438)
(0.000543714 -0.00140577 0.0298736)
(0.000452583 -0.00158814 0.0290873)
(0.00173314 -0.00197604 0.0431446)
(0.00402374 -0.00292539 0.0348175)
(-0.00114102 0.000387965 0.023816)
(-0.00223751 -0.000360845 0.0255942)
(0.000303782 0.0014805 0.0281506)
(0.00108778 0.00107223 0.0317222)
(-0.00091355 0.000234089 0.0227571)
(-0.00118226 0.000509538 0.0214588)
(-0.000291365 0.000654155 0.0210924)
(0.0016732 -0.000572959 0.0405001)
(-0.00167922 -0.000505095 0.0222829)
(-0.00261683 0.000610179 0.0352336)
(0.001509 0.00233538 0.0289868)
(0.00105368 -0.00383029 0.0283016)
(-4.50267e-05 -0.00270432 0.0240425)
(0.000859293 -0.000550035 0.0224875)
(0.000260264 -9.39389e-05 0.0167559)
(-0.000902451 0.00070352 0.0232371)
(-0.000321888 0.000619884 0.0207904)
(5.23652e-05 4.43697e-05 0.0295361)
(-0.000376654 0.000305624 0.0230812)
(-0.000682655 -0.000420837 0.0181425)
(-0.000330913 6.07802e-05 0.017453)
(4.20273e-05 0.000393017 0.0229694)
(-0.000650453 -0.000260346 0.0199961)
(-0.00269195 -0.0020544 0.0418809)
(0.000699464 -0.000457493 0.0189784)
(-8.88603e-05 0.000513385 0.0217195)
(-0.000339674 -0.00033387 0.0234032)
(-0.000740302 0.000293537 0.0237037)
(0.00148054 -0.000533412 0.0190802)
(-0.000495558 9.36732e-06 0.0168208)
(-0.000692648 0.0006443 0.0155416)
(-0.00187496 0.000322265 0.0240053)
(-0.00192476 0.000254714 0.0236039)
(-0.00186815 0.000341837 0.0278423)
(-0.00168857 0.00105666 0.0190573)
(-0.00205377 -0.000132187 0.0206025)
(-0.00181895 0.000304642 0.0183457)
(-0.00156215 0.000497693 0.0191295)
(-0.00111221 0.000905666 0.0124524)
(-0.00202266 0.000575717 0.0389144)
(-0.00110447 0.00080889 0.0250334)
(-0.00133598 0.000800229 0.01254)
(-0.00063277 0.000813405 0.0201566)
(-0.00156181 0.0015467 0.0269509)
(-0.00162489 0.00125412 0.0228096)
(-0.00171097 0.00126806 0.00761953)
(-0.000730334 0.00134918 0.0209375)
(-0.000348679 -0.000312746 0.0131982)
(0.000116693 2.82377e-05 0.01322)
(0.00028634 -0.000214821 0.014045)
(0.000459386 -0.000792003 0.0134656)
(1.20097e-08 -0.00121455 0.0134101)
(0.000546665 -0.000588353 0.0127581)
(0.000271331 3.98134e-05 0.0128419)
(-0.000142174 -0.000498804 0.0123687)
(4.74978e-05 -0.000441497 0.0162385)
(0.00137112 -0.00046029 0.0139004)
(0.000371055 -0.00012448 0.0121165)
(-0.000700139 -0.000649226 0.0130908)
(0.000208366 0.000614448 0.013863)
(0.000847335 -0.000470058 0.0131377)
(1.06568e-05 -0.000604319 0.0115234)
(-0.00123841 -0.000349257 0.0130907)
(2.41966e-05 -0.000236631 0.0169853)
(0.000262574 -0.000113967 0.016638)
(0.000288973 -0.000247121 0.0165496)
(0.000239095 -0.000553853 0.0160851)
(0.000119486 -0.000560759 0.0172792)
(0.00038019 -0.000392642 0.0166315)
(0.000208838 -0.000214755 0.0162663)
(-9.77022e-05 -0.00049756 0.0160087)
(3.92963e-05 -0.000184493 0.0183325)
(0.000590402 -0.000321326 0.0172388)
(0.000162198 -0.000282081 0.0163503)
(-0.000414593 -0.000575578 0.0164586)
(-0.000103224 0.00030568 0.0177199)
(0.000263739 -0.000251129 0.0171378)
(-7.82727e-05 -0.000428184 0.016379)
(-0.000709492 -0.000434187 0.0166954)
(0.000143026 -0.000152554 0.0162345)
(0.000233015 -0.000135061 0.0160466)
(0.000210001 -0.000204938 0.0159196)
(0.000116963 -0.000349628 0.0157316)
(0.000146952 -0.00029092 0.0163648)
(0.000234753 -0.000271843 0.0160895)
(0.000135101 -0.000265714 0.015895)
(-5.00878e-05 -0.000397743 0.0157915)
(0.000104465 -0.000194579 0.0166946)
(0.000250683 -0.000267421 0.016329)
(7.29421e-05 -0.000303344 0.0160052)
(-0.000200419 -0.000434363 0.0160262)
(3.21256e-05 -6.31368e-05 0.0164747)
(0.000117797 -0.000235899 0.0163084)
(-4.45833e-05 -0.00031728 0.0160609)
(-0.00033819 -0.000365337 0.0161838)
(0.000124402 -8.07628e-05 0.0163436)
(0.000149199 -9.40111e-05 0.016238)
(0.000118909 -0.000137518 0.0161406)
(4.40134e-05 -0.000211674 0.0160533)
(0.00010193 -0.000143031 0.0164138)
(0.000122491 -0.000166915 0.0162884)
(6.41709e-05 -0.00019866 0.0161835)
(-4.23178e-05 -0.000269837 0.0161333)
(6.1923e-05 -0.000120277 0.0165381)
(9.12422e-05 -0.000176782 0.0164011)
(1.17757e-05 -0.000223456 0.0162758)
(-0.000119942 -0.000292951 0.0162698)
(1.11731e-06 -7.94465e-05 0.0165139)
(1.78579e-05 -0.000162542 0.0164363)
(-5.59377e-05 -0.00021825 0.0163448)
(-0.000191354 -0.000262839 0.0163804)
(7.45111e-05 -4.12447e-05 0.0164016)
(7.78618e-05 -5.6914e-05 0.0163455)
(5.38609e-05 -8.4025e-05 0.0162909)
(4.83395e-06 -0.00012321 0.0162512)
(5.45267e-05 -7.63217e-05 0.016434)
(5.41013e-05 -9.98013e-05 0.0163787)
(1.97961e-05 -0.000127366 0.0163298)
(-3.96877e-05 -0.000166794 0.0163088)
(2.7849e-05 -7.90429e-05 0.0164817)
(2.62233e-05 -0.000112676 0.0164324)
(-1.44387e-05 -0.000145104 0.0163884)
(-8.06997e-05 -0.000182962 0.016387)
(-6.86632e-06 -6.9432e-05 0.0164876)
(-1.26691e-05 -0.000108955 0.0164641)
(-5.17804e-05 -0.000141373 0.0164387)
(-0.000117733 -0.000169533 0.0164571)
(3.68139e-05 -2.21562e-05 0.0164377)
(3.4216e-05 -3.42332e-05 0.0164088)
(1.79759e-05 -5.12078e-05 0.0163813)
(-1.10744e-05 -7.31228e-05 0.016364)
(2.32476e-05 -4.37205e-05 0.0164536)
(1.77872e-05 -6.00958e-05 0.0164285)
(-2.50498e-06 -7.86819e-05 0.0164069)
(-3.5092e-05 -0.00010099 0.0163997)
(6.71955e-06 -5.12377e-05 0.0164762)
(-9.10776e-07 -7.0848e-05 0.0164574)
(-2.33136e-05 -9.08151e-05 0.0164421)
(-5.7411e-05 -0.000111866 0.0164452)
(-1.27605e-05 -5.08336e-05 0.0164875)
(-2.22194e-05 -7.11168e-05 0.0164805)
(-4.40597e-05 -8.9469e-05 0.0164752)
(-7.71414e-05 -0.000105808 0.0164883)
(1.51804e-05 -1.33354e-05 0.0164645)
(1.14806e-05 -2.15805e-05 0.0164505)
(1.06792e-06 -3.21765e-05 0.0164379)
(-1.54198e-05 -4.49529e-05 0.0164315)
(6.59964e-06 -2.68064e-05 0.0164725)
(9.72839e-07 -3.71978e-05 0.0164617)
(-1.11599e-05 -4.88213e-05 0.0164533)
(-2.89411e-05 -6.16339e-05 0.0164525)
(-3.38744e-06 -3.35271e-05 0.0164843)
(-1.06051e-05 -4.49345e-05 0.0164779)
(-2.3504e-05 -5.67773e-05 0.0164741)
(-4.14438e-05 -6.86514e-05 0.0164789)
(-1.44499e-05 -3.52239e-05 0.0164937)
(-2.25675e-05 -4.62646e-05 0.0164932)
(-3.51662e-05 -5.66569e-05 0.0164948)
(-5.22267e-05 -6.59472e-05 0.0165048)
(4.15116e-06 -9.11683e-06 0.016483)
(8.62803e-07 -1.44811e-05 0.0164766)
(-5.63707e-06 -2.10586e-05 0.0164715)
(-1.49216e-05 -2.86619e-05 0.0164699)
(-1.16483e-06 -1.74962e-05 0.0164872)
(-5.67788e-06 -2.38841e-05 0.0164831)
(-1.29742e-05 -3.09538e-05 0.0164806)
(-2.27221e-05 -3.8426e-05 0.0164822)
(-7.17777e-06 -2.238e-05 0.0164939)
(-1.26443e-05 -2.90174e-05 0.0164925)
(-2.02425e-05 -3.59453e-05 0.016493)
(-2.98589e-05 -4.27211e-05 0.0164978)
(-1.34985e-05 -2.41311e-05 0.0165006)
(-1.94566e-05 -3.02871e-05 0.0165023)
(-2.68657e-05 -3.61825e-05 0.0165058)
(-3.58571e-05 -4.1433e-05 0.0165135)
(-8.88531e-07 -6.86692e-06 0.0164951)
(-3.42954e-06 -1.02819e-05 0.0164925)
(-7.43283e-06 -1.43323e-05 0.0164909)
(-1.27447e-05 -1.88631e-05 0.0164913)
(-4.17098e-06 -1.20234e-05 0.0164976)
(-7.46158e-06 -1.59108e-05 0.0164964)
(-1.18627e-05 -2.01713e-05 0.0164965)
(-1.72767e-05 -2.45833e-05 0.0164988)
(-7.76521e-06 -1.52726e-05 0.0165016)
(-1.16178e-05 -1.91409e-05 0.0165022)
(-1.61453e-05 -2.31735e-05 0.016504)
(-2.1377e-05 -2.70728e-05 0.0165081)
(-1.14098e-05 -1.65823e-05 0.0165061)
(-1.55241e-05 -2.00499e-05 0.0165084)
(-1.99271e-05 -2.33854e-05 0.016512)
(-2.47381e-05 -2.63406e-05 0.0165177)
(-2.81937e-06 -5.42004e-06 0.016503)
(-4.67654e-06 -7.57446e-06 0.0165023)
(-7.14084e-06 -1.00531e-05 0.0165022)
(-1.02103e-05 -1.27346e-05 0.0165033)
(-4.83586e-06 -8.56203e-06 0.0165046)
(-7.14459e-06 -1.09138e-05 0.0165048)
(-9.80708e-06 -1.34611e-05 0.0165057)
(-1.28443e-05 -1.60649e-05 0.0165079)
(-6.98221e-06 -1.06167e-05 0.0165072)
(-9.60901e-06 -1.28689e-05 0.0165084)
(-1.23212e-05 -1.52022e-05 0.0165104)
(-1.51947e-05 -1.7444e-05 0.0165137)
(-9.1019e-06 -1.1462e-05 0.0165102)
(-1.18535e-05 -1.3421e-05 0.0165124)
(-1.44782e-05 -1.52957e-05 0.0165155)
(-1.70739e-05 -1.69454e-05 0.0165197)
(-3.22427e-06 -4.30696e-06 0.0165081)
(-4.55043e-06 -5.65826e-06 0.0165082)
(-6.08206e-06 -7.17006e-06 0.0165088)
(-7.83233e-06 -8.75306e-06 0.01651)
(-4.45715e-06 -6.20366e-06 0.0165093)
(-6.04417e-06 -7.61678e-06 0.0165099)
(-7.66354e-06 -9.121e-06 0.0165111)
(-9.36551e-06 -1.06354e-05 0.016513)
(-5.73884e-06 -7.45444e-06 0.016511)
(-7.49527e-06 -8.76165e-06 0.0165123)
(-9.12326e-06 -1.00994e-05 0.0165141)
(-1.07063e-05 -1.13727e-05 0.0165167)
(-6.97792e-06 -7.94751e-06 0.0165131)
(-8.78331e-06 -9.05244e-06 0.016515)
(-1.03447e-05 -1.00955e-05 0.0165174)
(-1.17488e-05 -1.10024e-05 0.0165205)
(-2.92624e-06 -3.35971e-06 0.0165114)
(-3.85168e-06 -4.20269e-06 0.0165119)
(-4.80617e-06 -5.12415e-06 0.0165126)
(-5.78207e-06 -6.06735e-06 0.0165138)
(-3.67814e-06 -4.49174e-06 0.0165123)
(-4.74856e-06 -5.33723e-06 0.0165131)
(-5.73506e-06 -6.21773e-06 0.0165143)
(-6.6815e-06 -7.08946e-06 0.0165158)
(-4.44347e-06 -5.22905e-06 0.0165135)
(-5.60001e-06 -5.98593e-06 0.0165147)
(-6.57573e-06 -6.74812e-06 0.0165163)
(-7.44633e-06 -7.46304e-06 0.0165182)
(-5.1691e-06 -5.49159e-06 0.016515)
(-6.33873e-06 -6.11252e-06 0.0165165)
(-7.26308e-06 -6.68729e-06 0.0165184)
(-8.02055e-06 -7.17759e-06 0.0165207)
(-2.34637e-06 -2.52411e-06 0.0165135)
(-2.96925e-06 -3.04644e-06 0.0165141)
(-3.55611e-06 -3.60785e-06 0.0165149)
(-4.09419e-06 -4.17863e-06 0.0165159)
(-2.80391e-06 -3.18992e-06 0.0165142)
(-3.50744e-06 -3.69502e-06 0.016515)
(-4.10518e-06 -4.21075e-06 0.0165161)
(-4.62723e-06 -4.71626e-06 0.0165173)
(-3.25911e-06 -3.61086e-06 0.0165151)
(-4.00754e-06 -4.04795e-06 0.0165162)
(-4.59041e-06 -4.48223e-06 0.0165175)
(-5.06545e-06 -4.88268e-06 0.0165189)
(-3.68207e-06 -3.73532e-06 0.0165162)
(-4.43099e-06 -4.08159e-06 0.0165174)
(-4.97619e-06 -4.39575e-06 0.0165189)
(-5.37981e-06 -4.65623e-06 0.0165206)
(-1.70402e-06 -1.77776e-06 0.0165149)
(-2.10328e-06 -2.09533e-06 0.0165154)
(-2.45521e-06 -2.43238e-06 0.0165162)
(-2.75155e-06 -2.77525e-06 0.0165171)
(-1.97912e-06 -2.16029e-06 0.0165155)
(-2.42341e-06 -2.45884e-06 0.0165162)
(-2.77889e-06 -2.75862e-06 0.0165171)
(-3.06262e-06 -3.05197e-06 0.0165181)
(-2.24622e-06 -2.39096e-06 0.0165162)
(-2.71446e-06 -2.63977e-06 0.0165171)
(-3.05777e-06 -2.8845e-06 0.0165181)
(-3.31016e-06 -3.10698e-06 0.0165193)
(-2.4885e-06 -2.44149e-06 0.0165169)
(-2.95363e-06 -2.62859e-06 0.016518)
(-3.27122e-06 -2.7964e-06 0.0165192)
(-3.47874e-06 -2.93048e-06 0.0165205)
(-1.12202e-06 -1.11384e-06 0.0165157)
(-1.36076e-06 -1.29369e-06 0.0165162)
(-1.56402e-06 -1.48453e-06 0.0165169)
(-1.72511e-06 -1.67923e-06 0.0165176)
(-1.28045e-06 -1.32164e-06 0.0165162)
(-1.54267e-06 -1.49042e-06 0.0165168)
(-1.74561e-06 -1.6563e-06 0.0165176)
(-1.89543e-06 -1.8177e-06 0.0165185)
(-1.43109e-06 -1.44227e-06 0.0165168)
(-1.70441e-06 -1.57769e-06 0.0165176)
(-1.8979e-06 -1.70851e-06 0.0165185)
(-2.0272e-06 -1.82512e-06 0.0165194)
(-1.56502e-06 -1.46097e-06 0.0165174)
(-1.83314e-06 -1.55697e-06 0.0165183)
(-2.00998e-06 -1.64146e-06 0.0165193)
(-2.11241e-06 -1.7049e-06 0.0165204)
(-7.12201e-07 -5.70236e-07 0.0165162)
(-8.48016e-07 -6.63881e-07 0.0165167)
(-9.62304e-07 -7.63517e-07 0.0165173)
(-1.04852e-06 -8.65171e-07 0.0165179)
(-7.96845e-07 -6.82929e-07 0.0165167)
(-9.43362e-07 -7.68093e-07 0.0165173)
(-1.05703e-06 -8.52947e-07 0.0165179)
(-1.13588e-06 -9.34304e-07 0.0165187)
(-8.73406e-07 -7.54428e-07 0.0165172)
(-1.02473e-06 -8.19071e-07 0.0165179)
(-1.13343e-06 -8.82138e-07 0.0165187)
(-1.20232e-06 -9.37345e-07 0.0165195)
(-9.3692e-07 -7.75167e-07 0.0165177)
(-1.08685e-06 -8.18551e-07 0.0165185)
(-1.18756e-06 -8.54929e-07 0.0165194)
(-1.24298e-06 -8.79656e-07 0.0165203)
(-0.00106425 -0.000574341 0.0161852)
(-0.000572413 0.0016934 0.0120065)
(-0.0006787 0.000318821 0.0133892)
(0.000709533 -0.000664126 0.0230935)
(-0.00179454 0.000410901 0.0097923)
(0.00124367 0.00066433 0.0187309)
(-0.00125511 0.00223777 0.0209191)
(-0.00128792 0.000473226 0.0145289)
(-0.00324411 0.00230509 0.0188481)
(0.000664367 -0.000130083 0.017671)
(0.000196821 0.00123579 0.017559)
(-0.00147084 0.00142594 0.0135074)
(-0.00293109 -0.000650172 0.0132988)
(0.000481063 -0.000694739 0.0165126)
(0.00134821 0.000628707 0.012144)
(-0.0028207 0.00166169 0.019897)
(0.000386832 -0.00064196 0.023527)
(0.000962592 -0.00252523 0.0547771)
(0.00119899 2.99e-05 0.033947)
(-0.000173703 0.00324136 0.0308828)
(-0.00091811 -0.000747653 0.0318736)
(0.00139234 -0.000148416 0.030698)
(0.0036482 0.00120355 0.0451305)
(0.000425856 0.00027373 0.031127)
(4.44431e-05 -0.000444763 0.0278882)
(0.00172811 0.000312795 0.0393418)
(0.00166737 0.00166924 0.0414747)
(-4.08227e-05 -0.00130288 0.0504648)
(-0.000724125 -0.000979289 0.0510832)
(0.00346721 0.000467016 0.0299088)
(0.00242382 0.0016251 0.0490854)
(0.000408867 -0.00115185 0.0469193)
(0.00167348 -0.00281234 0.0359612)
(0.00211005 0.000359221 0.0305086)
(0.00197043 0.000655735 0.0235989)
(-0.00181011 0.00274285 0.0592981)
(0.00340294 -0.00192128 0.0230659)
(0.00158611 -3.72952e-05 0.02649)
(0.0026469 -0.0016306 0.039917)
(5.79599e-05 0.00331624 0.0455149)
(0.00502328 -0.00298857 0.0448516)
(0.00118734 0.00130934 0.0412753)
(0.00436078 -0.0014321 0.0393322)
(0.000405969 -0.000217923 0.0259754)
(0.00501286 -0.000133208 0.0315977)
(0.00139111 0.0017529 0.0264753)
(0.00285445 -0.00194225 0.04593)
(0.00289545 -0.00112391 0.0305354)
(0.00408219 0.0041576 0.0592704)
(0.00173521 0.00283134 0.0332041)
(-0.00278691 -0.00100652 0.0612947)
(0.00318468 -0.00341324 0.038122)
(0.00331586 -0.00181107 0.0256012)
(0.00167039 -0.00172002 0.0391757)
(0.000522059 -0.00128814 0.0310223)
(0.00344337 0.00183818 0.0378758)
(0.000893145 -0.000362705 0.0316453)
(0.00122074 -0.00117366 0.0260222)
(0.00191601 -0.00204772 0.0486709)
(0.00669238 0.00612976 0.069117)
(-0.000914349 0.000100507 0.0264774)
(0.000458988 -6.19113e-05 0.0464258)
(0.00105908 -0.000279525 0.0277187)
(0.00333602 0.0017336 0.0494406)
(0.00193684 -0.000193668 0.036902)
(-0.00171669 -0.00263706 0.0494618)
(-0.00139364 -0.0016807 0.0488295)
(0.000923798 -0.001573 0.0247239)
(0.00236258 -0.00156276 0.0333202)
(-0.000323462 -0.000490699 0.0501467)
(0.00025499 -0.00187794 0.0357078)
(0.00109383 -0.00298868 0.0274256)
(0.00206961 -0.000296346 0.0274266)
(-0.000672136 -0.0014208 0.0402525)
(-0.0026734 0.000400658 0.0293216)
(0.00303803 -0.0028898 0.0340519)
(0.00128634 -0.000236604 0.0393243)
(0.00213352 -0.000123243 0.0231776)
(-0.00204964 0.00249727 0.0334513)
(-0.00564906 0.00227968 0.0522344)
(0.00136173 -0.00504767 0.0633244)
(0.000449364 -0.00207797 0.0206969)
(0.0012497 -0.000805853 0.0398776)
(0.00119191 -0.00149393 0.0190083)
(0.000961035 -0.00168611 0.0176629)
(2.27778e-05 0.000533188 0.0208398)
(0.000332221 7.3498e-05 0.0261901)
(0.00118829 -0.00208656 0.0313118)
(0.00231619 0.00111105 0.0254758)
(-0.000186458 -0.000261158 0.0238729)
(-0.000431697 -0.00225971 0.0228241)
(0.000615323 -0.00318959 0.0190742)
(0.00122041 0.000785722 0.0195905)
(-0.00110093 -0.00269517 0.0257024)
(-0.00747539 -0.00654802 0.0402747)
(0.0046019 -0.00633588 0.0339336)
(0.000493841 -0.00077486 0.0169773)
(0.00268059 -0.000449281 0.0253736)
(0.000141297 -0.000560197 0.0259046)
(-0.000459705 0.000359895 0.0154614)
(0.00028718 -0.000844507 0.0166884)
(-0.00118464 0.00104039 0.0195092)
(-0.000995357 -0.000258607 0.0211284)
(-0.000294701 -0.000434736 0.0213786)
(0.000462501 -0.00065742 0.0180326)
(-0.000737354 0.0011799 0.0267652)
(0.000216819 0.000530866 0.0218443)
(-0.000215985 0.000136459 0.0218794)
(0.000496714 2.49907e-05 0.0198308)
(-0.00106605 0.000516383 0.0189782)
(0.00139821 -0.000642195 0.0215437)
(0.00114663 0.000305841 0.0184771)
(-0.0013047 0.00123726 0.0186817)
(-0.00152565 0.00121595 0.0296404)
(-0.00144303 0.0016298 0.0256017)
(-0.000619842 0.00176725 0.0145268)
(-0.000950439 0.00109702 0.0192298)
(-0.00141725 0.000875352 0.0245703)
(-0.00143754 0.00170088 0.0216762)
(-0.000708989 0.00148594 0.0188483)
(-0.000844331 0.000337798 0.0227028)
(-0.0010414 0.000585258 0.0325992)
(-0.00078903 0.00114049 0.0289831)
(-0.00064773 0.000785999 0.0245739)
(-0.000460701 -1.50643e-05 0.0262056)
(-0.000698455 0.000385205 0.0298226)
(-0.000656227 0.000223373 0.0315677)
(-0.000320561 0.000180821 0.0197733)
(-0.000337123 0.000336398 0.0124965)
(0.00015771 -0.000309989 0.0137028)
(0.000351473 -0.000419036 0.0131546)
(-0.0009237 1.31168e-07 0.0124225)
(-0.000294837 0.00019823 0.0115633)
(-7.2013e-06 -0.000289775 0.0127786)
(0.000421978 -0.000363454 0.0123616)
(-0.000705291 -0.00020161 0.012321)
(-0.000448512 -0.000338622 0.0114056)
(-0.000313649 -0.00039948 0.0134668)
(0.000581211 -0.000419964 0.0129846)
(-0.000514942 9.81144e-05 0.0126427)
(-0.000380577 -0.000361049 0.011557)
(-0.00036374 -4.51238e-05 0.0127355)
(0.000664762 5.30966e-05 0.0128217)
(-1.64276e-05 0.000368887 0.0111432)
(-0.000339451 0.000114723 0.0174637)
(-0.00010688 -0.000268452 0.0176145)
(-3.8775e-05 -0.000398452 0.0170662)
(-0.000656239 -0.000285782 0.0168997)
(-0.000368565 -2.6905e-06 0.0172122)
(-0.000247536 -0.000297163 0.0175674)
(-1.90997e-05 -0.000376076 0.0171192)
(-0.000599896 -0.000281844 0.0169019)
(-0.000418 -0.00022025 0.0171477)
(-0.000398624 -0.000333401 0.0178941)
(5.40076e-05 -0.000313003 0.0176081)
(-0.000506144 -1.31101e-05 0.0171138)
(-0.000383564 -0.000281654 0.0171678)
(-0.000435308 -0.0002064 0.0177572)
(0.000148498 -4.35963e-05 0.0176328)
(-0.000283296 0.000138346 0.0164673)
(-8.75926e-05 -5.58663e-05 0.0163555)
(1.75265e-06 -0.000186908 0.0164572)
(-5.42711e-05 -0.000256163 0.0163066)
(-0.000360827 -0.00025177 0.0163246)
(-0.000142477 -3.29009e-05 0.0162477)
(-7.40619e-05 -0.000138461 0.0164743)
(-4.82132e-05 -0.000191993 0.0163838)
(-0.000361923 -0.000162081 0.016366)
(-0.000176122 -7.34461e-05 0.0161926)
(-0.000147091 -0.000115572 0.016579)
(-2.37814e-05 -0.000114664 0.0165669)
(-0.000330795 -3.88985e-06 0.016425)
(-0.000161349 -0.00010545 0.0161685)
(-0.000164343 -8.07183e-05 0.0165534)
(2.83416e-05 -1.32525e-05 0.0165859)
(-0.000254154 4.85289e-05 0.016173)
(-5.7234e-05 -7.22123e-05 0.0165135)
(-3.92939e-05 -0.000137888 0.0165128)
(-8.25608e-05 -0.000180597 0.0164484)
(-0.000222633 -0.00019741 0.0164684)
(-8.6662e-05 -5.69844e-05 0.0164878)
(-7.60872e-05 -0.000107412 0.0165375)
(-8.59431e-05 -0.000133064 0.0164926)
(-0.000234613 -0.000124009 0.0164952)
(-0.000102324 -6.24438e-05 0.016461)
(-0.000106104 -8.54866e-05 0.016563)
(-7.7431e-05 -7.91284e-05 0.0165434)
(-0.000227493 -3.47775e-05 0.0164959)
(-9.91761e-05 -7.06262e-05 0.0164407)
(-0.000116002 -6.5707e-05 0.0165506)
(-5.58117e-05 -2.87552e-05 0.0165367)
(-0.000203381 3.74418e-07 0.0163916)
(-3.75519e-05 -6.22923e-05 0.0164949)
(-4.08593e-05 -9.35392e-05 0.0165015)
(-7.1439e-05 -0.000118004 0.0164911)
(-0.000139147 -0.000132784 0.0165141)
(-5.19335e-05 -4.95515e-05 0.016489)
(-5.86945e-05 -7.36526e-05 0.0165192)
(-7.723e-05 -8.73645e-05 0.0165201)
(-0.000149413 -8.67034e-05 0.01654)
(-5.98918e-05 -4.59859e-05 0.0164805)
(-7.22668e-05 -5.81049e-05 0.0165305)
(-7.60819e-05 -5.56248e-05 0.0165411)
(-0.000150161 -3.77411e-05 0.0165435)
(-5.98447e-05 -4.58821e-05 0.0164732)
(-7.7976e-05 -4.55565e-05 0.0165303)
(-6.94203e-05 -2.85076e-05 0.0165413)
(-0.000144298 -1.23481e-05 0.016511)
(-2.91418e-05 -4.67098e-05 0.0164965)
(-3.68947e-05 -6.2255e-05 0.0165022)
(-5.62383e-05 -7.58704e-05 0.0165053)
(-8.98773e-05 -8.53796e-05 0.0165238)
(-3.56612e-05 -3.84676e-05 0.0164969)
(-4.53517e-05 -5.0052e-05 0.0165132)
(-6.09085e-05 -5.73886e-05 0.0165231)
(-9.66463e-05 -5.84039e-05 0.0165432)
(-3.92857e-05 -3.44155e-05 0.0164948)
(-5.153e-05 -4.02358e-05 0.0165194)
(-6.1842e-05 -3.89704e-05 0.0165341)
(-9.86515e-05 -3.07642e-05 0.0165491)
(-3.96524e-05 -3.20441e-05 0.0164925)
(-5.46923e-05 -3.1982e-05 0.0165212)
(-6.05899e-05 -2.32533e-05 0.0165366)
(-9.78398e-05 -1.27282e-05 0.0165408)
(-2.34078e-05 -3.33698e-05 0.0165008)
(-3.04843e-05 -4.15292e-05 0.0165063)
(-4.23685e-05 -4.908e-05 0.0165128)
(-5.94754e-05 -5.46448e-05 0.0165267)
(-2.62184e-05 -2.84267e-05 0.0165022)
(-3.46199e-05 -3.43824e-05 0.016513)
(-4.55219e-05 -3.82535e-05 0.0165237)
(-6.35073e-05 -3.90775e-05 0.01654)
(-2.77341e-05 -2.54662e-05 0.0165022)
(-3.75132e-05 -2.83332e-05 0.0165169)
(-4.66957e-05 -2.73905e-05 0.0165302)
(-6.50631e-05 -2.28884e-05 0.0165458)
(-2.79444e-05 -2.31352e-05 0.0165019)
(-3.92548e-05 -2.28321e-05 0.0165187)
(-4.69653e-05 -1.75897e-05 0.0165328)
(-6.53565e-05 -1.02271e-05 0.0165452)
(-1.85312e-05 -2.34224e-05 0.0165055)
(-2.38273e-05 -2.78166e-05 0.0165104)
(-3.10418e-05 -3.19728e-05 0.0165168)
(-3.9912e-05 -3.50701e-05 0.016527)
(-1.96586e-05 -2.04884e-05 0.0165068)
(-2.58956e-05 -2.36467e-05 0.0165146)
(-3.30003e-05 -2.56172e-05 0.0165237)
(-4.21882e-05 -2.59794e-05 0.016536)
(-2.01812e-05 -1.8561e-05 0.0165073)
(-2.72761e-05 -1.99372e-05 0.0165172)
(-3.39023e-05 -1.9067e-05 0.016528)
(-4.31291e-05 -1.61906e-05 0.0165409)
(-2.01813e-05 -1.68142e-05 0.0165075)
(-2.82251e-05 -1.62994e-05 0.0165187)
(-3.44375e-05 -1.27554e-05 0.0165302)
(-4.34947e-05 -7.48488e-06 0.0165423)
(-1.43028e-05 -1.63564e-05 0.0165095)
(-1.79604e-05 -1.87273e-05 0.0165135)
(-2.23154e-05 -2.09752e-05 0.0165188)
(-2.69793e-05 -2.26248e-05 0.0165262)
(-1.46902e-05 -1.45826e-05 0.0165103)
(-1.90032e-05 -1.62435e-05 0.0165161)
(-2.34687e-05 -1.71634e-05 0.0165232)
(-2.82146e-05 -1.71795e-05 0.0165322)
(-1.47718e-05 -1.33674e-05 0.0165108)
(-1.96562e-05 -1.39426e-05 0.0165179)
(-2.40485e-05 -1.31178e-05 0.0165262)
(-2.87105e-05 -1.11089e-05 0.0165358)
(-1.4638e-05 -1.21748e-05 0.0165111)
(-2.0156e-05 -1.15525e-05 0.016519)
(-2.44885e-05 -9.00136e-06 0.0165278)
(-2.89487e-05 -5.23413e-06 0.0165375)
(-1.07917e-05 -1.14153e-05 0.0165124)
(-1.32156e-05 -1.26741e-05 0.0165157)
(-1.58283e-05 -1.38551e-05 0.0165198)
(-1.82969e-05 -1.46894e-05 0.0165251)
(-1.08625e-05 -1.03158e-05 0.0165129)
(-1.37373e-05 -1.1155e-05 0.0165173)
(-1.64818e-05 -1.15098e-05 0.0165226)
(-1.89425e-05 -1.13405e-05 0.016529)
(-1.07665e-05 -9.55063e-06 0.0165133)
(-1.40322e-05 -9.70239e-06 0.0165185)
(-1.68178e-05 -8.9555e-06 0.0165246)
(-1.91718e-05 -7.50134e-06 0.0165316)
(-1.05788e-05 -8.76172e-06 0.0165135)
(-1.42816e-05 -8.13059e-06 0.0165193)
(-1.71117e-05 -6.25149e-06 0.0165258)
(-1.92942e-05 -3.57905e-06 0.016533)
(-7.97513e-06 -7.95997e-06 0.0165145)
(-9.54419e-06 -8.60639e-06 0.0165171)
(-1.10989e-05 -9.1989e-06 0.0165202)
(-1.24057e-05 -9.59097e-06 0.016524)
(-7.92056e-06 -7.26588e-06 0.0165148)
(-9.79704e-06 -7.65583e-06 0.0165181)
(-1.14567e-05 -7.72389e-06 0.0165221)
(-1.27285e-05 -7.48733e-06 0.0165265)
(-7.77003e-06 -6.77676e-06 0.0165151)
(-9.91495e-06 -6.72216e-06 0.0165189)
(-1.16356e-05 -6.08328e-06 0.0165234)
(-1.28143e-05 -5.02493e-06 0.0165284)
(-7.5812e-06 -6.25484e-06 0.0165152)
(-1.00298e-05 -5.68135e-06 0.0165194)
(-1.18136e-05 -4.29668e-06 0.0165242)
(-1.2864e-05 -2.41926e-06 0.0165294)
(-5.7623e-06 -5.51794e-06 0.0165159)
(-6.76312e-06 -5.83353e-06 0.0165179)
(-7.67982e-06 -6.10997e-06 0.0165203)
(-8.36629e-06 -6.27251e-06 0.016523)
(-5.67102e-06 -5.07632e-06 0.0165161)
(-6.8778e-06 -5.22859e-06 0.0165186)
(-7.86801e-06 -5.16702e-06 0.0165215)
(-8.51762e-06 -4.93105e-06 0.0165247)
(-5.52156e-06 -4.75824e-06 0.0165162)
(-6.91062e-06 -4.62073e-06 0.0165191)
(-7.95383e-06 -4.10308e-06 0.0165224)
(-8.53311e-06 -3.34078e-06 0.0165259)
(-5.35842e-06 -4.40956e-06 0.0165163)
(-6.95634e-06 -3.92782e-06 0.0165195)
(-8.05422e-06 -2.92078e-06 0.016523)
(-8.54382e-06 -1.6193e-06 0.0165267)
(-4.03647e-06 -3.75481e-06 0.0165168)
(-4.66703e-06 -3.89895e-06 0.0165184)
(-5.20336e-06 -4.01398e-06 0.0165202)
(-5.55657e-06 -4.0639e-06 0.0165221)
(-3.95045e-06 -3.47278e-06 0.0165169)
(-4.71364e-06 -3.51012e-06 0.0165188)
(-5.29665e-06 -3.40671e-06 0.016521)
(-5.61986e-06 -3.20406e-06 0.0165233)
(-3.82577e-06 -3.2658e-06 0.016517)
(-4.70958e-06 -3.11465e-06 0.0165192)
(-5.33125e-06 -2.71965e-06 0.0165217)
(-5.60585e-06 -2.18374e-06 0.0165242)
(-3.69658e-06 -3.03509e-06 0.0165171)
(-4.72095e-06 -2.65819e-06 0.0165195)
(-5.38362e-06 -1.94677e-06 0.0165221)
(-5.599e-06 -1.06433e-06 0.0165248)
(-2.69568e-06 -2.44933e-06 0.0165174)
(-3.0814e-06 -2.50654e-06 0.0165187)
(-3.39141e-06 -2.54495e-06 0.0165201)
(-3.56518e-06 -2.54508e-06 0.0165216)
(-2.62914e-06 -2.27223e-06 0.0165174)
(-3.09636e-06 -2.26121e-06 0.016519)
(-3.43323e-06 -2.16186e-06 0.0165207)
(-3.58633e-06 -2.00528e-06 0.0165224)
(-2.53557e-06 -2.14208e-06 0.0165175)
(-3.07999e-06 -2.01293e-06 0.0165192)
(-3.44205e-06 -1.73262e-06 0.0165212)
(-3.56502e-06 -1.37106e-06 0.0165231)
(-2.43931e-06 -1.99656e-06 0.0165175)
(-3.0758e-06 -1.72552e-06 0.0165194)
(-3.46639e-06 -1.24774e-06 0.0165215)
(-3.55372e-06 -6.72279e-07 0.0165235)
(-1.67288e-06 -1.46461e-06 0.0165178)
(-1.89843e-06 -1.48296e-06 0.0165188)
(-2.07e-06 -1.48954e-06 0.01652)
(-2.15189e-06 -1.4735e-06 0.0165212)
(-1.62583e-06 -1.36776e-06 0.0165178)
(-1.89951e-06 -1.34484e-06 0.0165191)
(-2.0862e-06 -1.26949e-06 0.0165205)
(-2.15553e-06 -1.16131e-06 0.0165219)
(-1.56162e-06 -1.29655e-06 0.0165178)
(-1.88256e-06 -1.20562e-06 0.0165193)
(-2.08567e-06 -1.02478e-06 0.0165208)
(-2.13768e-06 -7.98381e-07 0.0165224)
(-1.49571e-06 -1.21736e-06 0.0165178)
(-1.87362e-06 -1.04423e-06 0.0165194)
(-2.0968e-06 -7.47543e-07 0.0165211)
(-2.12883e-06 -3.96484e-07 0.0165227)
(-9.77537e-07 -7.74841e-07 0.016518)
(-1.11561e-06 -7.81926e-07 0.016519)
(-1.21479e-06 -7.79905e-07 0.01652)
(-1.25971e-06 -7.65469e-07 0.016521)
(-9.46121e-07 -7.41909e-07 0.016518)
(-1.11096e-06 -7.24887e-07 0.0165191)
(-1.22153e-06 -6.77426e-07 0.0165203)
(-1.26039e-06 -6.11185e-07 0.0165215)
(-9.05122e-07 -7.18181e-07 0.0165181)
(-1.09801e-06 -6.65206e-07 0.0165193)
(-1.22212e-06 -5.59965e-07 0.0165207)
(-1.25333e-06 -4.28382e-07 0.0165219)
(-8.62573e-07 -6.92359e-07 0.0165181)
(-1.08929e-06 -5.96561e-07 0.0165194)
(-1.2306e-06 -4.26165e-07 0.0165209)
(-1.2535e-06 -2.21087e-07 0.0165222)
(0.00101522 -0.000629647 0.0135113)
(0.00337785 0.00140305 0.0219382)
(-0.00313302 0.00556654 0.0194627)
(-0.0026996 6.12682e-05 0.0112596)
(0.00156653 0.00319839 0.0183054)
(0.00185815 0.00065237 0.0152784)
(-0.00221534 -6.08352e-05 0.0137827)
(-0.00322041 0.00236925 0.0140141)
(0.000233891 0.00311786 0.0118939)
(-0.00489232 0.00344184 0.0223904)
(-0.00403965 -0.000680763 0.0159589)
(-0.00269425 0.00299561 0.0170214)
(-0.00435486 0.00180336 0.0146815)
(-0.00341375 0.000602357 0.0107635)
(-0.00536464 -0.000922676 0.0201039)
(-0.00547041 -0.00119734 0.0125196)
(-0.00203632 0.000881127 0.0350978)
(-0.00348132 0.000226875 0.0434184)
(8.05343e-05 -0.00190446 0.062465)
(-0.001131 -4.04456e-06 0.0256635)
(-0.000304915 -0.00157213 0.0274359)
(-0.00227306 -0.000754803 0.0291455)