/*--------------------------------*- C++ -*----------------------------------*\
| =========                 |                                                 |
| \\      /  F ield         | OpenFOAM: The Open Source CFD Toolbox           |
|  \\    /   O peration     | Version:  2506                                  |
|   \\  /    A nd           | Website:  www.openfoam.com                      |
|    \\/     M anipulation  |                                                 |
\*---------------------------------------------------------------------------*/
FoamFile
{
    version     2.0;
    format      ascii;
    arch        "LSB;label=32;scalar=64";
    class       volVectorField;
    location    "0.08";
    object      Us;
}
// * * * * * * * * * * * * * * * * * * * * * * * * * * * * * * * * * * * * * //

dimensions      [0 1 -1 0 0 0 0];

internalField   nonuniform List<vector> 
1152
(
(-0.00019416 8.53337e-05 -0.000227709)
(0.000439839 -0.000863136 -0.000231272)
(0.00046688 0.000278399 -0.000164586)
(-0.000105664 0.000307318 -0.000262319)
(9.34686e-05 0.000397582 9.53839e-05)
(0.000987229 0.000283032 -0.00115791)
(-0.000510086 2.38152e-05 -6.46749e-05)
(-0.00028519 0.00103235 -0.000193784)
(-0.00100182 0.00120399 -0.000467727)
(-0.00073311 0.00176568 -0.00160956)
(-0.0005327 -0.000270849 0.000331798)
(-0.00075097 0.00090829 -0.00112054)
(-0.00122811 -0.000255206 -0.00010115)
(-0.00102726 0.000326898 -0.000488252)
(0.000177118 0.000180369 -0.000191327)
(-6.83933e-05 8.45091e-05 -0.000469294)
(0.000494054 0.000566192 0.00991327)
(0.00110245 0.0014999 0.00863719)
(0.000525622 -1.01197e-05 0.0102901)
(0.000298134 -0.000835835 0.0101966)
(-0.000241631 0.0016202 0.0101726)
(0.000513394 0.000280601 0.00926065)
(-7.35561e-05 -0.000201689 0.0111817)
(0.00102521 0.00029828 0.0106022)
(-6.67475e-05 0.00181589 0.0088668)
(-0.000246398 0.00138584 0.0109034)
(-9.12399e-05 0.000662562 0.0106323)
(-0.000686138 0.00060186 0.0110834)
(0.000150635 0.000970238 0.0100484)
(4.26458e-06 0.00135547 0.0103808)
(7.79367e-05 0.00118669 0.0103002)
(0.000692517 0.00174468 0.00859312)
(0.00128338 -0.000240144 0.00949425)
(0.00091951 -0.000784699 0.010669)
(-0.000269128 -0.000534072 0.0113369)
(5.04637e-05 -7.99103e-05 0.0107486)
(0.000905394 -0.000487603 0.009428)
(0.000596965 -0.000322753 0.00978463)
(0.000811063 -0.000140739 0.010609)
(0.000986142 0.000136956 0.010336)
(0.000822416 -0.000651421 0.00957185)
(0.00067723 -0.000211337 0.010415)
(0.000777417 -0.000158301 0.0100636)
(0.000956323 -4.92131e-05 0.00996964)
(0.000644906 -0.000829527 0.0101783)
(0.000609148 -0.00025236 0.0107512)
(0.000771644 2.91223e-05 0.0106036)
(0.000793123 -6.95172e-05 0.0101518)
(0.00100825 0.000201979 0.0100734)
(0.000938315 5.5592e-05 0.0104524)
(0.000682524 -0.000361462 0.0107283)
(0.000182373 -9.16474e-05 0.0109779)
(0.000888878 -0.000441852 0.00989606)
(0.000724842 -0.00036303 0.010336)
(0.000366101 -0.000332954 0.0107366)
(0.000390136 0.00016319 0.0114432)
(0.00100092 -0.000842324 0.0101065)
(0.00047094 -0.000641068 0.0103099)
(0.000313995 -0.000611392 0.0100347)
(0.000205818 -0.000108592 0.01089)
(0.00026727 -4.40691e-05 0.0105682)
(0.000142536 -0.000703021 0.010481)
(0.000539811 -0.000726094 0.0101596)
(0.000374358 -0.000538586 0.0103361)
(0.000874088 7.72406e-06 0.0102862)
(0.000519877 -5.16918e-05 0.0108306)
(0.000282173 -9.13696e-06 0.0109436)
(-5.76542e-05 2.93747e-05 0.0111611)
(0.000660313 -0.000388801 0.0106647)
(0.000101514 -0.000495931 0.011756)
(4.22176e-06 -0.000251109 0.0112309)
(-0.00015207 0.00027319 0.0116016)
(0.000601949 -0.00090965 0.0103737)
(0.000370155 -0.000710671 0.0109734)
(6.56547e-05 -0.00031875 0.0110382)
(-7.03591e-05 0.0001357 0.0113094)
(0.00074472 -0.000603353 0.0101121)
(0.000797048 -0.00111297 0.0101356)
(0.000389637 -0.000933445 0.0106146)
(0.000266549 -0.000831538 0.0109035)
(0.00036978 -0.00027484 0.010469)
(0.000302286 -0.000181294 0.0110105)
(-5.85544e-05 2.72379e-05 0.0108973)
(-7.87031e-05 6.88359e-05 0.0111337)
(0.0001525 -0.00043092 0.0105157)
(-0.000158502 -0.000173951 0.0113745)
(-1.35187e-05 -8.57961e-06 0.0112992)
(-4.30502e-05 -9.34567e-05 0.0114942)
(-0.000112963 -0.000672314 0.0106423)
(-9.90917e-05 -0.000388655 0.0111926)
(6.53439e-05 -0.000316605 0.0114856)
(5.13609e-06 -0.000286499 0.0115143)
(0.000295572 -0.00101101 0.00978309)
(0.000411304 -0.00142812 0.00989327)
(0.000331235 -0.000502614 0.010566)
(4.91479e-05 -0.000475672 0.0112912)
(-0.000316635 0.000132334 0.0102874)
(2.14161e-06 0.000290528 0.0106523)
(-0.000227746 -6.69451e-05 0.0108129)
(-0.000288522 4.88913e-06 0.0113405)
(-0.000732049 -0.000221339 0.0101916)
(-0.000103173 -0.000104894 0.0110385)
(-6.82817e-05 4.63818e-05 0.0112548)
(-0.000661452 -0.000184904 0.0114467)
(-0.00110962 -0.000618807 0.0103868)
(-0.000259518 -0.000242624 0.011312)
(-9.36773e-05 0.000287638 0.0115647)
(-4.12128e-05 1.72219e-05 0.0116037)
(-0.000718409 -0.000839637 0.00996496)
(0.000783599 -0.000184943 0.0102224)
(-0.000469214 0.000248415 0.010473)
(2.50997e-05 0.000223606 0.0107912)
(0 0 0)
(0 0 0)
(0 0 0)
(0 0 0)
(0 0 0)
(0 0 0)
(0 0 0)
(0 0 0)
(0 0 0)
(0 0 0)
(0 0 0)
(0 0 0)
(0 0 0)
(0 0 0)
(0 0 0)
(0 0 0)
(0 0 0)
(0 0 0)
(0 0 0)
(0 0 0)
(0 0 0)
(0 0 0)
(0 0 0)
(0 0 0)
(0 0 0)
(0 0 0)
(0 0 0)
(0 0 0)
(0 0 0)
(0 0 0)
(0 0 0)
(0 0 0)
(0 0 0)
(0 0 0)
(0 0 0)
(0 0 0)
(0 0 0)
(0 0 0)
(0 0 0)
(0 0 0)
(0 0 0)
(0 0 0)
(0 0 0)
(0 0 0)
(0 0 0)
(0 0 0)
(0 0 0)
(0 0 0)
(0 0 0)
(0 0 0)
(0 0 0)
(0 0 0)
(0 0 0)
(0 0 0)
(0 0 0)
(0 0 0)
(0 0 0)
(0 0 0)
(0 0 0)
(0 0 0)
(0 0 0)
(0 0 0)
(0 0 0)
(0 0 0)
(0 0 0)
(0 0 0)
(0 0 0)
(0 0 0)
(0 0 0)
(0 0 0)
(0 0 0)
(0 0 0)
(0 0 0)
(0 0 0)
(0 0 0)
(0 0 0)
(0 0 0)
(0 0 0)
(0 0 0)
(0 0 0)
(0 0 0)
(0 0 0)
(0 0 0)
(0 0 0)
(0 0 0)
(0 0 0)
(0 0 0)
(0 0 0)
(0 0 0)
(0 0 0)
(0 0 0)
(0 0 0)
(0 0 0)
(0 0 0)
(0 0 0)
(0 0 0)
(0 0 0)
(0 0 0)
(0 0 0)
(0 0 0)
(0 0 0)
(0 0 0)
(0 0 0)
(0 0 0)
(0 0 0)
(0 0 0)
(0 0 0)
(0 0 0)
(0 0 0)
(0 0 0)
(0 0 0)
(0 0 0)
(0 0 0)
(0 0 0)
(0 0 0)
(0 0 0)
(0 0 0)
(0 0 0)
(0 0 0)
(0 0 0)
(0 0 0)
(0 0 0)
(0 0 0)
(0 0 0)
(0 0 0)
(0 0 0)
(0 0 0)
(0 0 0)
(0 0 0)
(0 0 0)
(0 0 0)
(0 0 0)
(0 0 0)
(0 0 0)
(0 0 0)
(0 0 0)
(0 0 0)
(0 0 0)
(0 0 0)
(0 0 0)
(0 0 0)
(0 0 0)
(0 0 0)
(0 0 0)
(0 0 0)
(0 0 0)
(0 0 0)
(0 0 0)
(0 0 0)
(0 0 0)
(0 0 0)
(0 0 0)
(0 0 0)
(0 0 0)
(0 0 0)
(0 0 0)
(0 0 0)
(0 0 0)
(0 0 0)
(0 0 0)
(0 0 0)
(0 0 0)
(0 0 0)
(0 0 0)
(0 0 0)
(0 0 0)
(0 0 0)
(0 0 0)
(0 0 0)
(0 0 0)
(0 0 0)
(0 0 0)
(0 0 0)
(0 0 0)
(0 0 0)
(0 0 0)
(0 0 0)
(0 0 0)
(0 0 0)
(0 0 0)
(0 0 0)
(0 0 0)
(0 0 0)
(0 0 0)
(0 0 0)
(0 0 0)
(0 0 0)
(0 0 0)
(0 0 0)
(0 0 0)
(0 0 0)
(0 0 0)
(0 0 0)
(0 0 0)
(0 0 0)
(0 0 0)
(0 0 0)
(0 0 0)
(0 0 0)
(0 0 0)
(0 0 0)
(0 0 0)
(0 0 0)
(0 0 0)
(0 0 0)
(0 0 0)
(0 0 0)
(0 0 0)
(0 0 0)
(0 0 0)
(0 0 0)
(0 0 0)
(0 0 0)
(0 0 0)
(0 0 0)
(0 0 0)
(0 0 0)
(0 0 0)
(0 0 0)
(0 0 0)
(0 0 0)
(0 0 0)
(0 0 0)
(0 0 0)
(0 0 0)
(0 0 0)
(0 0 0)
(0 0 0)
(0 0 0)
(0 0 0)
(0 0 0)
(0 0 0)
(0 0 0)
(0 0 0)
(0 0 0)
(0 0 0)
(0 0 0)
(0 0 0)
(0 0 0)
(0 0 0)
(0 0 0)
(0 0 0)
(0 0 0)
(0 0 0)
(0 0 0)
(0 0 0)
(0 0 0)
(0 0 0)
(0 0 0)
(0 0 0)
(0 0 0)
(0 0 0)
(0 0 0)
(0 0 0)
(0 0 0)
(0 0 0)
(0 0 0)
(0 0 0)
(0 0 0)
(0 0 0)
(0 0 0)
(0 0 0)
(0 0 0)
(0 0 0)
(0 0 0)
(0 0 0)
(0 0 0)
(0 0 0)
(0 0 0)
(0 0 0)
(0 0 0)
(0 0 0)
(-0.000800574 -0.000459479 0.000462195)
(-0.000943705 0.000500593 -0.000698576)
(-0.000335707 -4.05222e-05 7.35459e-06)
(0.000208685 0.000114389 0.000124506)
(-0.000731985 -4.87127e-05 7.10509e-05)
(-0.000170283 -0.000127537 -9.48288e-05)
(6.61727e-05 -9.8663e-05 0.000126021)
(-0.00042906 0.000163179 -4.77178e-05)
(-0.000305273 0.000120954 0.000141797)
(-0.000283562 -4.98857e-05 -0.000203774)
(0.000438613 7.13533e-05 -0.000245456)
(-0.000271739 -0.000322321 0.000565956)
(-0.000103237 -4.62505e-05 0.000220989)
(-0.000172455 -6.55506e-05 -3.58283e-05)
(0.000589121 -4.97569e-05 -0.000586449)
(0.000408739 0.0001934 -1.36816e-05)
(0.000459426 -0.000146096 0.00962304)
(0.000680953 0.00106555 0.0100381)
(0.000422118 0.000171703 0.00922393)
(0.000106126 0.00185883 0.0101265)
(-0.000498152 -8.48034e-05 0.0082646)
(0.00127033 0.000250552 0.00787216)
(0.00132487 -0.00021592 0.00921371)
(0.000279783 1.52467e-05 0.0100575)
(0.000205243 -8.89307e-05 0.00754334)
(0.000970049 -0.000159844 0.00809759)
(0.000724835 -0.000363381 0.00892893)
(-0.000312778 -0.000266927 0.0107811)
(-0.000155283 -0.000426178 0.00836078)
(0.00254675 0.00043241 0.00840646)
(0.00152994 8.48111e-05 0.00861026)
(-3.46152e-05 -0.000394512 0.00940797)
(0.00160698 -0.00137226 0.00913778)
(0.00106124 -0.000896626 0.0100083)
(0.000732986 -0.00035646 0.0100662)
(0.000765875 -0.000718578 0.0113328)
(0.00188979 -0.000885799 0.00811214)
(0.00114301 -0.000940114 0.00847284)
(0.000982613 -0.000266343 0.0102168)
(0.000825189 -0.000623508 0.0111635)
(0.00114599 0.000235218 0.00931399)
(-0.000197059 -0.000414492 0.00838902)
(0.000193106 -0.000989185 0.00881907)
(0.000494675 -0.000723339 0.00967211)
(0.00148082 5.85324e-05 0.00858762)
(0.000925906 0.00024473 0.00784964)
(0.000913068 -0.000232731 0.0134177)
(0.00150017 -0.000197526 0.0102875)
(0.000992966 0.00106995 0.00988527)
(0.00161686 -0.00024971 0.0098537)
(0.000723385 -0.00083988 0.0102417)
(0.000724611 -0.000897188 0.0104307)
(0.00179417 -0.000768255 0.00806111)
(0.00155286 -0.000352231 0.00783998)
(0.00157506 0.000103123 0.00935681)
(0.00085989 -2.43119e-05 0.0103279)
(-0.000116527 0.000128349 0.0079327)
(0.000470895 -8.37451e-05 0.00793058)
(0.000519406 -0.000570581 0.00815608)
(0.000593563 0.00024736 0.00902856)
(-0.000669073 -0.000734887 0.00539627)
(0.000749071 0.000329982 0.00731792)
(7.24362e-05 -7.48696e-05 0.00806578)
(0.00123205 -0.000178563 0.0074324)
(0.001278 -0.000945668 0.00901225)
(0.00107056 -0.000911612 0.00945494)
(0.000235162 -0.000995257 0.0101091)
(0.000207372 -0.0011298 0.0105996)
(0.00167428 -0.000582499 0.00750428)
(0.000982882 -0.000487085 0.0090362)
(0.000520299 -0.000638302 0.00926598)
(0.00030284 -0.00108469 0.0100346)
(0.001357 -0.000348271 0.00774484)
(0.00077986 -0.000306246 0.00880455)
(0.000254793 -0.000941048 0.00775343)
(0.00067744 -0.0016224 0.0086065)
(0.000186307 -0.000432996 0.00699159)
(0.00116712 0.000208184 0.00610537)
(-0.000152683 -0.000856614 0.00743016)
(-0.0021916 -0.000627225 0.00980408)
(0.000771742 -0.00222862 0.00893728)
(0.000544858 -0.000830571 0.00996829)
(1.02397e-05 -0.000444447 0.0104077)
(6.6735e-05 -0.000605224 0.0107044)
(0.00139766 -0.0023242 0.00606756)
(0.000424797 -0.000231248 0.0084677)
(0.000137328 -0.000771023 0.00999585)
(4.55046e-05 -5.38447e-05 0.010098)
(0.000671323 -0.000832356 0.00704918)
(0.000108363 -0.00103145 0.00693598)
(0.000311176 -0.000608977 0.00796728)
(0.000286896 -0.000907329 0.0087116)
(0.000309069 -0.000106845 0.0058362)
(-9.81662e-05 -0.000835556 0.00545987)
(-0.00188327 -0.000887988 0.00533519)
(0.00103318 -0.000989514 0.00795463)
(0.000664193 -0.000758099 0.0094545)
(0.00382246 -2.87042e-06 0.0104612)
(-0.000332451 -0.000276223 0.0104533)
(-0.000375218 0.000261369 0.0104427)
(-6.1657e-05 -0.0005445 0.00671484)
(-0.00124256 0.00125659 0.00710717)
(-0.00099757 -0.000366575 0.00908893)
(-0.000322866 -0.000177196 0.00999304)
(0.000603598 -0.000165819 0.00628973)
(-0.000766719 0.00227013 0.0078674)
(-0.000147486 0.000852487 0.00708878)
(-0.000118548 4.38785e-05 0.00870809)
(0.000465389 0.000164758 0.00557673)
(-0.00088534 0.000380054 0.00433409)
(0.00126183 -0.000575052 0.00486325)
(0.00106638 0.000258126 0.00588482)
(0 0 0)
(0 0 0)
(0 0 0)
(0 0 0)
(0 0 0)
(0 0 0)
(0 0 0)
(0 0 0)
(0 0 0)
(0 0 0)
(0 0 0)
(0 0 0)
(0 0 0)
(0 0 0)
(0 0 0)
(0 0 0)
(0 0 0)
(0 0 0)
(0 0 0)
(0 0 0)
(0 0 0)
(0 0 0)
(0 0 0)
(0 0 0)
(0 0 0)
(0 0 0)
(0 0 0)
(0 0 0)
(0 0 0)
(0 0 0)
(0 0 0)
(0 0 0)
(0 0 0)
(0 0 0)
(0 0 0)
(0 0 0)
(0 0 0)
(0 0 0)
(0 0 0)
(0 0 0)
(0 0 0)
(0 0 0)
(0 0 0)
(0 0 0)
(0 0 0)
(0 0 0)
(0 0 0)
(0 0 0)
(0 0 0)
(0 0 0)
(0 0 0)
(0 0 0)
(0 0 0)
(0 0 0)
(0 0 0)
(0 0 0)
(0 0 0)
(0 0 0)
(0 0 0)
(0 0 0)
(0 0 0)
(0 0 0)
(0 0 0)
(0 0 0)
(0 0 0)
(0 0 0)
(0 0 0)
(0 0 0)
(0 0 0)
(0 0 0)
(0 0 0)
(0 0 0)
(0 0 0)
(0 0 0)
(0 0 0)
(0 0 0)
(0 0 0)
(0 0 0)
(0 0 0)
(0 0 0)
(0 0 0)
(0 0 0)
(0 0 0)
(0 0 0)
(0 0 0)
(0 0 0)
(0 0 0)
(0 0 0)
(0 0 0)
(0 0 0)
(0 0 0)
(0 0 0)
(0 0 0)
(0 0 0)
(0 0 0)
(0 0 0)
(0 0 0)
(0 0 0)
(0 0 0)
(0 0 0)
(0 0 0)
(0 0 0)
(0 0 0)
(0 0 0)
(0 0 0)
(0 0 0)
(0 0 0)
(0 0 0)
(0 0 0)
(0 0 0)
(0 0 0)
(0 0 0)
(0 0 0)
(0 0 0)
(0 0 0)
(0 0 0)
(0 0 0)
(0 0 0)
(0 0 0)
(0 0 0)
(0 0 0)
(0 0 0)
(0 0 0)
(0 0 0)
(0 0 0)
(0 0 0)
(0 0 0)
(0 0 0)
(0 0 0)
(0 0 0)
(0 0 0)
(0 0 0)
(0 0 0)
(0 0 0)
(0 0 0)
(0 0 0)
(0 0 0)
(0 0 0)
(0 0 0)
(0 0 0)
(0 0 0)
(0 0 0)
(0 0 0)
(0 0 0)
(0 0 0)
(0 0 0)
(0 0 0)
(0 0 0)
(0 0 0)
(0 0 0)
(0 0 0)
(0 0 0)
(0 0 0)
(0 0 0)
(0 0 0)
(0 0 0)
(0 0 0)
(0 0 0)
(0 0 0)
(0 0 0)
(0 0 0)
(0 0 0)
(0 0 0)
(0 0 0)
(0 0 0)
(0 0 0)
(0 0 0)
(0 0 0)
(0 0 0)
(0 0 0)
(0 0 0)
(0 0 0)
(0 0 0)
(0 0 0)
(0 0 0)
(0 0 0)
(0 0 0)
(0 0 0)
(0 0 0)
(0 0 0)
(0 0 0)
(0 0 0)
(0 0 0)
(0 0 0)
(0 0 0)
(0 0 0)
(0 0 0)
(0 0 0)
(0 0 0)
(0 0 0)
(0 0 0)
(0 0 0)
(0 0 0)
(0 0 0)
(0 0 0)
(0 0 0)
(0 0 0)
(0 0 0)
(0 0 0)
(0 0 0)
(0 0 0)
(0 0 0)
(0 0 0)
(0 0 0)
(0 0 0)
(0 0 0)
(0 0 0)
(0 0 0)
(0 0 0)
(0 0 0)
(0 0 0)
(0 0 0)
(0 0 0)
(0 0 0)
(0 0 0)
(0 0 0)
(0 0 0)
(0 0 0)
(0 0 0)
(0 0 0)
(0 0 0)
(0 0 0)
(0 0 0)
(0 0 0)
(0 0 0)
(0 0 0)
(0 0 0)
(0 0 0)
(0 0 0)
(0 0 0)
(0 0 0)
(0 0 0)
(0 0 0)
(0 0 0)
(0 0 0)
(0 0 0)
(0 0 0)
(0 0 0)
(0 0 0)
(0 0 0)
(0 0 0)
(0 0 0)
(0 0 0)
(0 0 0)
(0 0 0)
(0 0 0)
(0 0 0)
(0 0 0)
(0 0 0)
(0 0 0)
(0 0 0)
(0 0 0)
(0 0 0)
(0 0 0)
(0 0 0)
(0 0 0)
(0 0 0)
(0 0 0)
(0 0 0)
(0 0 0)
(0 0 0)
(0 0 0)
(0 0 0)
(0 0 0)
(0 0 0)
(0 0 0)
(0 0 0)
(0 0 0)
(0 0 0)
(0 0 0)
(0 0 0)
(0 0 0)
(-0.000114639 -0.000102459 0.000741108)
(0.000383137 -3.64548e-05 0.000282211)
(0.000165976 0.00041268 0.000518295)
(-0.000827415 0.000175871 -0.000413794)
(0.000560003 0.000119815 -0.000527598)
(-0.000234994 6.35253e-06 0.000189479)
(-0.000528091 0.000146102 0.000110015)
(-0.000304802 0.000587229 3.27785e-05)
(0.000496355 0.00025181 -0.000122764)
(-0.000788481 -0.000277437 -0.000277918)
(-0.000925808 -0.00118849 -0.000434858)
(-0.00101564 0.000594608 -0.000181021)
(0.000544655 0.000624528 -0.00062491)
(-0.000156783 9.4382e-06 -1.57577e-05)
(-0.00114236 -0.000155551 0.00029033)
(-0.00120833 -0.000976665 0.000165552)
(-0.000392617 -6.24691e-05 0.00774503)
(-0.00169635 -0.000429538 0.0105972)
(0.000333809 -0.000575824 0.0101446)
(-0.000101214 -8.6252e-05 0.00835334)
(-0.000313652 -0.000886129 0.00713353)
(-0.00188508 -0.000720161 0.0076403)
(-0.00194736 -0.00107106 0.00880868)
(-0.000802324 3.27029e-05 0.00710605)
(-0.0013869 -0.0028608 0.00902161)
(-0.00253861 -0.00179358 0.00828342)
(-0.00282042 -0.000453893 0.00417823)
(-0.00136218 0.00100836 0.00766631)
(-0.000249548 -0.000408464 0.0102302)
(-0.000801741 0.000249871 0.00751018)
(-0.0012648 -0.000213916 0.00984047)
(-0.000662885 0.000119895 0.00916683)
(-0.000842262 -0.00051277 0.00984193)
(-0.00020674 -6.54432e-06 0.00897655)
(0.0013537 -0.000908294 0.00935141)
(0.00183691 -0.000444058 0.0090851)
(-0.00121376 -0.000938609 0.0119128)
(-0.00392292 0.000391636 0.0124284)
(0.000483914 -0.00101142 0.00963043)
(0.00156057 -0.000486706 0.00885948)
(-0.000132292 -0.00280751 0.0096972)
(0.00131196 -0.00317825 0.00850201)
(0.000622664 -0.0010374 0.00830042)
(0.000198364 -0.000118426 0.0102574)
(0.00119031 -0.000989607 0.00891224)
(0.00180187 -0.00135804 0.0100697)
(0.00110907 -0.000621184 0.0098494)
(0.00122659 -0.00141361 0.00876274)
(0.00038539 -0.00327395 0.0105989)
(0.00176999 -0.000140844 0.00884374)
(0.00198437 -0.000168492 0.00874197)
(0.00143174 -0.000404126 0.00946653)
(-0.000927917 -4.45384e-05 0.0136313)
(0.00141614 0.000590561 0.00894058)
(0.00149717 -0.000439285 0.00884551)
(0.00143189 -0.000507955 0.00935919)
(0.0010662 -0.000987361 0.00738869)
(0.00163797 5.47815e-06 0.00840303)
(0.00132523 -0.000361586 0.00969572)
(0.000809922 -0.000677008 0.00987061)
(-0.000330086 -0.00105377 0.00620232)
(0.000598362 -0.000571524 0.00803584)
(0.00147172 -0.000929021 0.00831391)
(0.00189987 4.24819e-05 0.00956824)
(0.000199712 0.00101545 0.00696731)
(0.00124341 -0.000217546 0.00876721)
(0.00144657 -0.000159132 0.00944811)
(0.00124159 0.000115808 0.0100623)
(0.000357582 -0.000435947 0.00790727)
(0.00136213 -0.000390386 0.00813484)
(0.00139247 -0.000899502 0.00933114)
(0.000817112 -0.000678222 0.00988745)
(0.000498156 0.000201294 0.00708818)
(0.000791388 -0.000310463 0.00783339)
(0.00116645 -0.000535418 0.008878)
(0.000576846 -0.000865098 0.00975723)
(0.000257386 0.000450385 0.00749161)
(0.000103209 -0.00073601 0.00660976)
(0.000981491 -0.000873463 0.00813726)
(0.000918791 -7.45785e-05 0.00968982)
(0.000354425 0.000162224 0.00580822)
(8.38615e-05 0.000183028 0.00794481)
(-0.000109838 0.000274305 0.00953887)
(0.000223031 -0.000101948 0.0100798)
(-0.000268475 -0.000228612 0.00527776)
(0.000493266 0.000108564 0.00757834)
(0.000437485 0.000112649 0.00864895)
(0.000199053 -0.000128745 0.0101452)
(-0.000416554 -0.000316061 0.00518933)
(0.000532531 -8.49207e-05 0.00757905)
(1.50062e-05 -0.000402317 0.00853526)
(-8.53519e-05 -0.000350562 0.00961027)
(0.000120668 0.00041179 0.00473834)
(0.000508441 0.00016211 0.00669082)
(0.000537672 -0.000434572 0.00741662)
(0.000479284 -0.0011275 0.009216)
(-0.000200086 0.000429505 0.00501772)
(-0.000608617 -2.78749e-05 0.00760848)
(-0.00105063 -0.00064173 0.0088666)
(-0.000464943 -0.000416407 0.00962962)
(0.000413043 0.00063516 0.00414582)
(0.000700329 0.000652755 0.00726691)
(-0.000618514 -0.000593118 0.00908362)
(-0.000984947 -4.82113e-06 0.00974824)
(0.000661521 0.000790286 0.00391517)
(0.000365828 0.00173246 0.00638436)
(-0.000225782 -3.38617e-06 0.00847875)
(-0.000647817 -0.000172878 0.00971252)
(0.00134326 0.000847388 0.00423153)
(0.00174326 0.000904543 0.00581093)
(0.00104675 -0.00051803 0.00756213)
(-0.000872073 -0.00121544 0.00989973)
(0 0 0)
(0 0 0)
(0 0 0)
(0 0 0)
(0 0 0)
(0 0 0)
(0 0 0)
(0 0 0)
(0 0 0)
(0 0 0)
(0 0 0)
(0 0 0)
(0 0 0)
(0 0 0)
(0 0 0)
(0 0 0)
(0 0 0)
(0 0 0)
(0 0 0)
(0 0 0)
(0 0 0)
(0 0 0)
(0 0 0)
(0 0 0)
(0 0 0)
(0 0 0)
(0 0 0)
(0 0 0)
(0 0 0)
(0 0 0)
(0 0 0)
(0 0 0)
(0 0 0)
(0 0 0)
(0 0 0)
(0 0 0)
(0 0 0)
(0 0 0)
(0 0 0)
(0 0 0)
(0 0 0)
(0 0 0)
(0 0 0)
(0 0 0)
(0 0 0)
(0 0 0)
(0 0 0)
(0 0 0)
(0 0 0)
(0 0 0)
(0 0 0)
(0 0 0)
(0 0 0)
(0 0 0)
(0 0 0)
(0 0 0)
(0 0 0)
(0 0 0)
(0 0 0)
(0 0 0)
(0 0 0)
(0 0 0)
(0 0 0)
(0 0 0)
(0 0 0)
(0 0 0)
(0 0 0)
(0 0 0)
(0 0 0)
(0 0 0)
(0 0 0)
(0 0 0)
(0 0 0)
(0 0 0)
(0 0 0)
(0 0 0)
(0 0 0)
(0 0 0)
(0 0 0)
(0 0 0)
(0 0 0)
(0 0 0)
(0 0 0)
(0 0 0)
(0 0 0)
(0 0 0)
(0 0 0)
(0 0 0)
(0 0 0)
(0 0 0)
(0 0 0)
(0 0 0)
(0 0 0)
(0 0 0)
(0 0 0)
(0 0 0)
(0 0 0)
(0 0 0)
(0 0 0)
(0 0 0)
(0 0 0)
(0 0 0)
(0 0 0)
(0 0 0)
(0 0 0)
(0 0 0)
(0 0 0)
(0 0 0)
(0 0 0)
(0 0 0)
(0 0 0)
(0 0 0)
(0 0 0)
(0 0 0)
(0 0 0)
(0 0 0)
(0 0 0)
(0 0 0)
(0 0 0)
(0 0 0)
(0 0 0)
(0 0 0)
(0 0 0)
(0 0 0)
(0 0 0)
(0 0 0)
(0 0 0)
(0 0 0)
(0 0 0)
(0 0 0)
(0 0 0)
(0 0 0)
(0 0 0)
(0 0 0)
(0 0 0)
(0 0 0)
(0 0 0)
(0 0 0)
(0 0 0)
(0 0 0)
(0 0 0)
(0 0 0)
(0 0 0)
(0 0 0)
(0 0 0)
(0 0 0)
(0 0 0)
(0 0 0)
(0 0 0)
(0 0 0)
(0 0 0)
(0 0 0)
(0 0 0)
(0 0 0)
(0 0 0)
(0 0 0)
(0 0 0)
(0 0 0)
(0 0 0)
(0 0 0)
(0 0 0)
(0 0 0)
(0 0 0)
(0 0 0)
(0 0 0)
(0 0 0)
(0 0 0)
(0 0 0)
(0 0 0)
(0 0 0)
(0 0 0)
(0 0 0)
(0 0 0)
(0 0 0)
(0 0 0)
(0 0 0)
(0 0 0)
(0 0 0)
(0 0 0)
(0 0 0)
(0 0 0)
(0 0 0)
(0 0 0)
(0 0 0)
(0 0 0)
(0 0 0)
(0 0 0)
(0 0 0)
(0 0 0)
(0 0 0)
(0 0 0)
(0 0 0)
(0 0 0)
(0 0 0)
(0 0 0)
(0 0 0)
(0 0 0)
(0 0 0)
(0 0 0)
(0 0 0)
(0 0 0)
(0 0 0)
(0 0 0)
(0 0 0)
(0 0 0)
(0 0 0)
(0 0 0)
(0 0 0)
(0 0 0)
(0 0 0)
(0 0 0)
(0 0 0)
(0 0 0)
(0 0 0)
(0 0 0)
(0 0 0)
(0 0 0)
(0 0 0)
(0 0 0)
(0 0 0)
(0 0 0)
(0 0 0)
(0 0 0)
(0 0 0)
(0 0 0)
(0 0 0)
(0 0 0)
(0 0 0)
(0 0 0)
(0 0 0)
(0 0 0)
(0 0 0)
(0 0 0)
(0 0 0)
(0 0 0)
(0 0 0)
(0 0 0)
(0 0 0)
(0 0 0)
(0 0 0)
(0 0 0)
(0 0 0)
(0 0 0)
(0 0 0)
(0 0 0)
(0 0 0)
(0 0 0)
(0 0 0)
(0 0 0)
(0 0 0)
(0 0 0)
(0 0 0)
(0 0 0)
(0 0 0)
(0 0 0)
(0 0 0)
(0 0 0)
(0 0 0)
(0 0 0)
(0 0 0)
(0 0 0)
(0 0 0)
(0 0 0)
(0 0 0)
(0 0 0)
(0 0 0)
(0 0 0)
(0 0 0)
(0 0 0)
(0 0 0)
(0 0 0)
(0 0 0)
)
;

boundaryField
{
    inlet
    {
        type            zeroGradient;
    }
    outlet
    {
        type            zeroGradient;
    }
    wall
    {
        type            zeroGradient;
    }
    procBoundary2to0
    {
        type            processor;
        value           nonuniform List<vector> 
192
(
(-0.000109549 3.69333e-05 -1.81805e-05)
(-0.000238613 -0.000100373 -2.32372e-05)
(-4.93643e-05 0.000385307 0.000313276)
(-0.000255039 0.000450828 -5.31742e-05)
(-0.00052267 -0.000651007 0.0103937)
(-0.000267152 -0.000538169 0.0107332)
(0.000957634 0.000510899 0.0101503)
(0.000623931 -0.000505279 0.00984105)
(0.000992682 -0.000281264 0.00979609)
(0.00112089 -6.39573e-05 0.0106211)
(0.000683661 -4.30034e-05 0.0104401)
(0.000434511 0.000503772 0.0104876)
(0.00143402 0.00024592 0.0101331)
(0.000875057 0.000157181 0.0106202)
(0.00105275 0.000171158 0.0108142)
(0.000378711 8.9544e-07 0.0112783)
(0.000703597 -0.000135291 0.0101792)
(0.000938342 0.000228685 0.0110795)
(0.000331111 6.69812e-05 0.0107954)
(4.31021e-05 8.49936e-05 0.0111327)
(0.000197364 -0.000110277 0.0101789)
(6.16238e-05 5.84197e-06 0.0106924)
(-1.182e-05 2.97235e-05 0.0108594)
(2.85984e-05 0.000194429 0.0110063)
(-5.30912e-05 -0.000153225 0.0102825)
(-0.000153912 -1.65713e-05 0.0106883)
(3.54993e-05 -7.0658e-07 0.0112731)
(-0.000100731 -4.01107e-05 0.0110775)
(0 0 0)
(0 0 0)
(0 0 0)
(0 0 0)
(0 0 0)
(0 0 0)
(0 0 0)
(0 0 0)
(0 0 0)
(0 0 0)
(0 0 0)
(0 0 0)
(0 0 0)
(0 0 0)
(0 0 0)
(0 0 0)
(0 0 0)
(0 0 0)
(0 0 0)
(0 0 0)
(0 0 0)
(0 0 0)
(0 0 0)
(0 0 0)
(0 0 0)
(0 0 0)
(0 0 0)
(0 0 0)
(0 0 0)
(0 0 0)
(0 0 0)
(0 0 0)
(0 0 0)
(0 0 0)
(0 0 0)
(0 0 0)
(0 0 0)
(0 0 0)
(0 0 0)
(0 0 0)
(0 0 0)
(0 0 0)
(0 0 0)
(0 0 0)
(0 0 0)
(0 0 0)
(0 0 0)
(0 0 0)
(0 0 0)
(0 0 0)
(0 0 0)
(0 0 0)
(0 0 0)
(0 0 0)
(0 0 0)
(0 0 0)
(0 0 0)
(0 0 0)
(0 0 0)
(0 0 0)
(0 0 0)
(0 0 0)
(0 0 0)
(0 0 0)
(0 0 0)
(0 0 0)
(0 0 0)
(0 0 0)
(0.000196197 0.000256187 0.000348951)
(0.000286652 0.000287351 3.38337e-05)
(-0.000114107 0.000229909 -0.000316088)
(0.000627576 4.27105e-05 -6.09104e-05)
(0.000299946 0.000870904 0.00760382)
(0.00104896 0.000253187 0.00725722)
(-0.000250383 0.000292067 0.0075917)
(-0.000937688 0.000129618 0.00877632)
(0.000932754 0.0013801 0.00733835)
(0.00156005 0.000254707 0.00774503)
(0.000493567 -0.000127748 0.00907871)
(0.001047 -0.000212177 0.00983995)
(0.000447579 0.000634925 0.00878509)
(0.000737073 0.000107007 0.00809726)
(0.0014034 -5.78782e-05 0.00929714)
(0.00147546 -0.000394916 0.00971433)
(0.000886732 -0.000291885 0.00685806)
(0.00082609 0.000671214 0.00743022)
(0.00147015 0.000280408 0.00946454)
(0.000778949 0.000207514 0.00978795)
(0.000824311 0.000100903 0.00499607)
(0.00071385 -0.00107479 0.00775869)
(0.00024434 -0.00017759 0.00839634)
(0.000367195 2.27129e-05 0.00982294)
(-0.000356341 0.00035895 0.00430245)
(-0.00107276 0.000318694 0.00750397)
(-0.00117867 -0.000614152 0.00831633)
(-0.000421838 -0.000150708 0.00976047)
(0 0 0)
(0 0 0)
(-0.00362377 -0.000396749 0.00809391)
(0 0 0)
(0 0 0)
(0 0 0)
(0 0 0)
(0 0 0)
(0 0 0)
(0 0 0)
(0 0 0)
(0 0 0)
(0 0 0)
(0 0 0)
(0 0 0)
(0 0 0)
(0 0 0)
(0 0 0)
(0 0 0)
(0 0 0)
(0 0 0)
(0 0 0)
(0 0 0)
(0 0 0)
(0 0 0)
(0 0 0)
(0 0 0)
(0 0 0)
(0 0 0)
(0 0 0)
(0 0 0)
(0 0 0)
(0 0 0)
(0 0 0)
(0 0 0)
(0 0 0)
(0 0 0)
(0 0 0)
(0 0 0)
(0 0 0)
(0 0 0)
(0 0 0)
(0 0 0)
(0 0 0)
(0 0 0)
(0 0 0)
(0 0 0)
(0 0 0)
(0 0 0)
(0 0 0)
(0 0 0)
(0 0 0)
(0 0 0)
(0 0 0)
(0 0 0)
(0 0 0)
(0 0 0)
(0 0 0)
(0 0 0)
(0 0 0)
(0 0 0)
(0 0 0)
(0 0 0)
(0 0 0)
(0 0 0)
(0 0 0)
(0 0 0)
(0 0 0)
)
;
    }
    procBoundary2to3
    {
        type            processor;
        value           nonuniform List<vector> 
192
(
(0.00042298 0.000722958 -7.32314e-07)
(0.000112367 0.000766766 0.000265302)
(0.000610837 0.000554469 0.000217596)
(0.000780815 -0.000410433 -0.00046911)
(0.00087862 0.000333108 0.010086)
(0.00113754 -0.000649718 0.0107966)
(0.00101059 0.000229299 0.0102988)
(0.00170778 0.000677649 0.0115828)
(0.00023629 0.000114549 0.0108703)
(0.000892254 8.67465e-05 0.0108136)
(0.000545013 4.41792e-05 0.0105089)
(0.000914034 0.00017033 0.0105884)
(3.5708e-05 0.000194143 0.0111468)
(-0.000149372 7.74064e-05 0.0110723)
(0.000128295 -0.000230427 0.0106782)
(0.000266562 -0.000313891 0.0103655)
(-0.000154522 0.000284677 0.0112814)
(-0.000124699 0.000194195 0.0113231)
(-0.000213559 -0.000180727 0.0111264)
(0.000110818 -0.000598468 0.0109067)
(-9.85024e-05 0.000184585 0.0113024)
(-0.000278607 4.5184e-05 0.0114317)
(-8.44894e-05 -0.000492664 0.0115565)
(-0.000412612 -0.00100834 0.0116007)
(-0.0001126 -8.69025e-05 0.0112844)
(-0.000406661 0.000302789 0.0114978)
(-0.000204946 -0.000463366 0.0119364)
(-0.000404755 -0.000508279 0.0120652)
(0 0 0)
(0 0 0)
(0 0 0)
(0 0 0)
(0 0 0)
(0 0 0)
(0 0 0)
(0 0 0)
(0 0 0)
(0 0 0)
(0 0 0)
(0 0 0)
(0 0 0)
(0 0 0)
(0 0 0)
(0 0 0)
(0 0 0)
(0 0 0)
(0 0 0)
(0 0 0)
(0 0 0)
(0 0 0)
(0 0 0)
(0 0 0)
(0 0 0)
(0 0 0)
(0 0 0)
(0 0 0)
(0 0 0)
(0 0 0)
(0 0 0)
(0 0 0)
(0 0 0)
(0 0 0)
(0 0 0)
(0 0 0)
(0 0 0)
(0 0 0)
(0 0 0)
(0 0 0)
(0 0 0)
(0 0 0)
(0 0 0)
(0 0 0)
(0 0 0)
(0 0 0)
(0 0 0)
(0 0 0)
(0 0 0)
(0 0 0)
(0 0 0)
(0 0 0)
(0 0 0)
(0 0 0)
(0 0 0)
(0 0 0)
(0 0 0)
(0 0 0)
(0 0 0)
(0 0 0)
(0 0 0)
(0 0 0)
(0 0 0)
(0 0 0)
(0 0 0)
(0 0 0)
(0 0 0)
(0 0 0)
(-3.0236e-05 -4.73654e-05 3.46887e-05)
(0.000774812 -0.000515606 -0.000561537)
(-0.000377621 -0.00044701 0.00035515)
(8.49931e-05 -0.00047006 0.000449639)
(-0.000164578 -0.000395944 0.0107347)
(0.000788469 -0.000721154 0.00903684)
(0.00108134 -0.00030052 0.00986158)
(0.00139196 -0.000125159 0.00868404)
(0.000290524 -0.000495864 0.0106809)
(-0.000130197 -0.00148021 0.00997653)
(0.000739587 0.000203433 0.0105228)
(0.000805801 5.371e-05 0.010289)
(0.000811933 -0.000183813 0.0111565)
(0.00113402 -0.000632513 0.0101418)
(0.000791991 -0.000805027 0.00982128)
(0.00110715 0.000120753 0.0107414)
(0.000450303 -0.000653995 0.0111851)
(0.00054048 -0.000553903 0.00993281)
(0.00136578 -0.00076299 0.0105318)
(-0.000738988 -0.00161537 0.00732026)
(-0.000382321 -0.00119013 0.0113884)
(-0.000272803 -0.00134215 0.00993024)
(-0.000165247 -0.00128103 0.00937195)
(-6.52638e-05 -0.000189643 0.0065998)
(-0.000934558 0.000189655 0.0110577)
(-0.000618575 -0.00140023 0.0100615)
(0.000657039 -0.00169857 0.00871174)
(0.00100943 -0.000146647 0.00723324)
(0 0 0)
(0 0 0)
(0 0 0)
(0 0 0)
(0 0 0)
(0 0 0)
(0 0 0)
(0 0 0)
(0 0 0)
(0 0 0)
(0 0 0)
(0 0 0)
(0 0 0)
(0 0 0)
(0 0 0)
(0 0 0)
(0 0 0)
(0 0 0)
(0 0 0)
(0 0 0)
(0 0 0)
(0 0 0)
(0 0 0)
(0 0 0)
(0 0 0)
(0 0 0)
(0 0 0)
(0 0 0)
(0 0 0)
(0 0 0)
(0 0 0)
(0 0 0)
(0 0 0)
(0 0 0)
(0 0 0)
(0 0 0)
(0 0 0)
(0 0 0)
(0 0 0)
(0 0 0)
(0 0 0)
(0 0 0)
(0 0 0)
(0 0 0)
(0 0 0)
(0 0 0)
(0 0 0)
(0 0 0)
(0 0 0)
(0 0 0)
(0 0 0)
(0 0 0)
(0 0 0)
(0 0 0)
(0 0 0)
(0 0 0)
(0 0 0)
(0 0 0)
(0 0 0)
(0 0 0)
(0 0 0)
(0 0 0)
(0 0 0)
(0 0 0)
(0 0 0)
(0 0 0)
(0 0 0)
(0 0 0)
)
;
    }
}


// ************************************************************************* //
