/*--------------------------------*- C++ -*----------------------------------*\
| =========                 |                                                 |
| \\      /  F ield         | OpenFOAM: The Open Source CFD Toolbox           |
|  \\    /   O peration     | Version:  2506                                  |
|   \\  /    A nd           | Website:  www.openfoam.com                      |
|    \\/     M anipulation  |                                                 |
\*---------------------------------------------------------------------------*/
FoamFile
{
    version     2.0;
    format      ascii;
    arch        "LSB;label=32;scalar=64";
    class       volScalarField;
    location    "0.08";
    object      voidfraction;
}
// * * * * * * * * * * * * * * * * * * * * * * * * * * * * * * * * * * * * * //

dimensions      [0 0 0 0 0 0 0];

internalField   nonuniform List<scalar> 
1152
(
0.49703
0.389063
0.357463
0.470697
0.460163
0.42593
0.47333
0.436463
0.49703
0.483863
0.452263
0.378529
0.412763
0.38643
0.44963
0.478597
0.404863
0.407496
0.46543
0.462797
0.407496
0.407496
0.44173
0.44173
0.38643
0.46543
0.452263
0.462797
0.43383
0.431196
0.48913
0.40223
0.281096
0.46543
0.40223
0.38643
0.41803
0.396963
0.39433
0.328496
0.40223
0.396963
0.341663
0.323229
0.420663
0.45753
0.420663
0.357463
0.452263
0.423296
0.444363
0.452263
0.446997
0.365363
0.39433
0.310062
0.378529
0.375896
0.423296
0.44963
0.436463
0.373263
0.370629
0.283729
0.362729
0.375896
0.49703
0.378529
0.367996
0.354829
0.44173
0.383796
0.46543
0.396963
0.41013
0.41013
0.38643
0.352196
0.357463
0.412763
0.446997
0.367996
0.38643
0.415396
0.43383
0.362729
0.365363
0.357463
0.48123
0.367996
0.446997
0.415396
0.423296
0.391696
0.375896
0.299529
0.660298
0.670831
0.615531
0.583931
0.633964
0.710332
0.589197
0.576031
0.815666
0.773532
0.586564
0.660298
0.670831
0.691898
0.570764
0.770899
1
1
1
1
1
1
1
1
1
1
1
1
1
1
1
1
1
1
1
1
1
1
1
1
1
1
1
1
1
1
1
1
1
1
1
1
1
1
1
1
1
1
1
1
1
1
1
1
1
1
1
1
1
1
1
1
1
1
1
1
1
1
1
1
1
1
1
1
1
1
1
1
1
1
1
1
1
1
1
1
1
1
1
1
1
1
1
1
1
1
1
1
1
1
1
1
1
1
1
1
1
1
1
1
1
1
1
1
1
1
1
1
1
1
1
1
1
1
1
1
1
1
1
1
1
1
1
1
1
1
1
1
1
1
1
1
1
1
1
1
1
1
1
1
1
1
1
1
1
1
1
1
1
1
1
1
1
1
1
1
1
1
1
1
1
1
1
1
1
1
1
1
1
1
1
1
1
1
1
1
1
1
1
1
1
1
1
1
1
1
1
1
1
1
1
1
1
1
1
1
1
1
1
1
1
1
1
1
1
1
1
1
1
1
1
1
1
1
1
1
1
1
1
1
1
1
1
1
1
1
1
1
1
1
1
1
1
1
1
1
1
1
1
1
1
1
1
1
1
1
1
1
1
1
1
1
1
1
1
1
1
1
1
1
1
1
1
1
1
1
1
1
0.452372
0.438325
0.436965
0.496322
0.408839
0.484801
0.501421
0.436211
0.477104
0.476226
0.475651
0.442169
0.455043
0.469496
0.434003
0.489944
0.35599
0.492888
0.41531
0.391075
0.412466
0.404474
0.458686
0.387571
0.405941
0.44212
0.456622
0.456016
0.498208
0.397747
0.483552
0.463099
0.404181
0.377343
0.347638
0.483792
0.350811
0.368465
0.418325
0.445055
0.436882
0.425067
0.431251
0.367001
0.39839
0.376005
0.443532
0.380775
0.465515
0.386972
0.474862
0.41864
0.358065
0.412784
0.380338
0.40968
0.378095
0.364163
0.452394
0.519316
0.368714
0.443405
0.35968
0.468468
0.412943
0.435116
0.434258
0.328429
0.394332
0.454332
0.396957
0.347774
0.35953
0.408014
0.369936
0.396673
0.414576
0.352089
0.395889
0.470258
0.544374
0.383763
0.469448
0.333441
0.387079
0.379545
0.408828
0.427367
0.418317
0.417758
0.38685
0.341285
0.392994
0.428186
0.504514
0.445203
0.631994
0.688672
0.648103
0.639156
0.582923
0.634375
0.627253
0.635195
0.641089
0.77831
0.651139
0.618222
0.660077
0.680393
0.605517
0.531107
1
1
1
1
1
1
1
1
1
1
1
1
1
1
1
1
1
1
1
1
1
1
1
1
1
1
1
1
1
1
1
1
1
1
1
1
1
1
1
1
1
1
1
1
1
1
1
1
1
1
1
1
1
1
1
1
1
1
1
1
1
1
1
1
1
1
1
1
1
1
1
1
1
1
1
1
1
1
1
1
1
1
1
1
1
1
1
1
1
1
1
1
1
1
1
1
1
1
1
1
1
1
1
1
1
1
1
1
1
1
1
1
1
1
1
1
1
1
1
1
1
1
1
1
1
1
1
1
1
1
1
1
1
1
1
1
1
1
1
1
1
1
1
1
1
1
1
1
1
1
1
1
1
1
1
1
1
1
1
1
1
1
1
1
1
1
1
1
1
1
1
1
1
1
1
1
1
1
1
1
1
1
1
1
1
1
1
1
1
1
1
1
1
1
1
1
1
1
1
1
1
1
1
1
1
1
1
1
1
1
1
1
1
1
1
1
1
1
1
1
1
1
1
1
1
1
1
1
1
1
1
1
1
1
1
1
1
1
1
1
1
1
1
1
1
1
1
1
1
1
1
1
1
1
1
1
1
1
1
1
1
1
1
1
1
1
1
1
1
1
1
1
0.436254
0.507447
0.491485
0.421146
0.477834
0.448165
0.451563
0.434258
0.456451
0.515205
0.487571
0.470421
0.482022
0.424505
0.492255
0.434848
0.432675
0.450082
0.515805
0.37604
0.403512
0.405879
0.508544
0.382827
0.528199
0.446992
0.421093
0.451164
0.530582
0.415223
0.499508
0.474277
0.472048
0.406563
0.427367
0.383558
0.449249
0.462965
0.423073
0.363879
0.452102
0.454301
0.396164
0.40623
0.390296
0.405941
0.394332
0.439229
0.432675
0.505469
0.438422
0.361005
0.443532
0.37205
0.423073
0.369293
0.382528
0.422631
0.412784
0.412649
0.44695
0.418317
0.390705
0.395419
0.432675
0.440191
0.422946
0.421146
0.376832
0.407993
0.389834
0.369293
0.378179
0.398269
0.398934
0.342038
0.457741
0.347154
0.455987
0.285893
0.378985
0.42041
0.425157
0.406111
0.418757
0.353021
0.418325
0.382827
0.399921
0.446992
0.371235
0.396601
0.401087
0.436882
0.365318
0.35599
0.606273
0.61031
0.648461
0.574003
0.582649
0.653253
0.698478
0.653517
0.547767
0.72715
0.675923
0.695091
0.595329
0.545174
0.688099
0.645137
1
1
1
1
1
1
1
1
1
1
1
1
1
1
1
1
1
1
1
1
1
1
1
1
1
1
1
1
1
1
1
1
1
1
1
1
1
1
1
1
1
1
1
1
1
1
1
1
1
1
1
1
1
1
1
1
1
1
1
1
1
1
1
1
1
1
1
1
1
1
1
1
1
1
1
1
1
1
1
1
1
1
1
1
1
1
1
1
1
1
1
1
1
1
1
1
1
1
1
1
1
1
1
1
1
1
1
1
1
1
1
1
1
1
1
1
1
1
1
1
1
1
1
1
1
1
1
1
1
1
1
1
1
1
1
1
1
1
1
1
1
1
1
1
1
1
1
1
1
1
1
1
1
1
1
1
1
1
1
1
1
1
1
1
1
1
1
1
1
1
1
1
1
1
1
1
1
1
1
1
1
1
1
1
1
1
1
1
1
1
1
1
1
1
1
1
1
1
1
1
1
1
1
1
1
1
1
1
1
1
1
1
1
1
1
1
1
1
1
1
1
1
1
1
1
1
1
1
1
1
1
1
1
1
1
1
1
1
1
1
1
1
1
1
1
1
1
1
1
1
1
1
1
1
1
1
1
1
1
1
1
1
1
1
1
1
1
1
1
1
1
1
)
;

boundaryField
{
    inlet
    {
        type            fixedValue;
        value           uniform 1;
    }
    outlet
    {
        type            fixedValue;
        value           uniform 1;
    }
    wall
    {
        type            zeroGradient;
    }
    procBoundary2to0
    {
        type            processor;
        value           nonuniform List<scalar> 
192
(
0.468063
0.589197
0.45753
0.539164
0.462797
0.439097
0.412763
0.460163
0.43383
0.339029
0.352196
0.44963
0.404863
0.383796
0.352196
0.317962
0.399596
0.38643
0.357463
0.383796
0.323229
0.439097
0.428563
0.475963
0.723498
0.712965
0.639231
0.604998
1
1
1
1
1
1
1
1
1
1
1
1
1
1
1
1
1
1
1
1
1
1
1
1
1
1
1
1
1
1
1
1
1
1
1
1
1
1
1
1
1
1
1
1
1
1
1
1
1
1
1
1
1
1
1
1
1
1
1
1
1
1
1
1
1
1
1
1
0.491734
0.446126
0.394203
0.481286
0.497103
0.406563
0.347774
0.46124
0.362878
0.438213
0.447266
0.443699
0.377195
0.31557
0.407469
0.413628
0.477417
0.406563
0.405258
0.361005
0.421937
0.418432
0.403047
0.421146
0.577638
0.562835
0.590977
0.60658
1
1
0.997789
1
1
1
1
1
1
1
1
1
1
1
1
1
1
1
1
1
1
1
1
1
1
1
1
1
1
1
1
1
1
1
1
1
1
1
1
1
1
1
1
1
1
1
1
1
1
1
1
1
1
1
1
1
1
1
1
1
1
1
1
1
1
1
1
1
)
;
    }
    procBoundary2to3
    {
        type            processor;
        value           nonuniform List<scalar> 
192
(
0.420663
0.518097
0.507564
0.40223
0.44963
0.41803
0.39433
0.470697
0.370629
0.44173
0.381163
0.423296
0.41803
0.42593
0.339029
0.475963
0.468063
0.44173
0.39433
0.389063
0.412763
0.439097
0.40223
0.48913
0.644498
0.604998
0.647131
0.678731
1
1
1
1
1
1
1
1
1
1
1
1
1
1
1
1
1
1
1
1
1
1
1
1
1
1
1
1
1
1
1
1
1
1
1
1
1
1
1
1
1
1
1
1
1
1
1
1
1
1
1
1
1
1
1
1
1
1
1
1
1
1
1
1
1
1
1
1
0.481286
0.451688
0.450082
0.436254
0.426158
0.442844
0.45206
0.416568
0.30337
0.347774
0.368979
0.423727
0.396087
0.343352
0.359088
0.40583
0.456228
0.418524
0.434257
0.395092
0.411122
0.352196
0.499535
0.337823
0.749414
0.62193
0.754713
0.704705
1
1
1
1
1
1
1
1
1
1
1
1
1
1
1
1
1
1
1
1
1
1
1
1
1
1
1
1
1
1
1
1
1
1
1
1
1
1
1
1
1
1
1
1
1
1
1
1
1
1
1
1
1
1
1
1
1
1
1
1
1
1
1
1
1
1
1
1
)
;
    }
}


// ************************************************************************* //
