FoamFile
{version 2.0; format ascii;class Cloud<passiveParticle>; location 0;object  positions;}
2509
(
( 0.00588766 9.56374e-06 0.000499575 ) 0 
( 0.00608135 1.93772e-05 0.00575068 ) 0 
( 0.00232099 0.000195517 0.000499677 ) 0 
( 0.00112617 0.000130926 0.007313 ) 0 
( 0.0090921 3.67678e-05 0.00591315 ) 0 
( 0.0093463 9.47887e-05 0.00490437 ) 0 
( 0.0124748 4.61422e-05 0.000499665 ) 0 
( 0.000855415 0.00070375 0.00147364 ) 0 
( 0.00683036 0.00014732 0.00177362 ) 0 
( 0.0100634 0.000116109 0.00564227 ) 0 
( 0.00918779 0.000317945 0.010776 ) 0 
( 0.012374 0.000205095 0.0145533 ) 0 
( 0.00117117 0.000118987 0.014102 ) 0 
( 0.00257228 0.000514953 0.0149329 ) 0 
( 0.00573899 0.00137312 0.0149656 ) 0 
( 0.00664769 0.00104717 0.0147061 ) 0 
( 0.00893176 0.000265125 0.0136205 ) 0 
( 0.00947064 0.000505582 0.0148366 ) 0 
( 0.0113707 9.40087e-05 0.0132659 ) 0 
( 0.0133388 0.00056259 0.0080927 ) 0 
( 0.00466487 0.000724708 0.0150506 ) 0 
( 0.00942842 0.00188158 0.014838 ) 0 
( 0.010032 0.000384657 0.011318 ) 0 
( 0.00789316 4.27121e-05 0.00937984 ) 0 
( 0.00726691 0.0057602 0.0154126 ) 0 
( 0.00404014 0.00838153 0.0147851 ) 0 
( 0.00830846 0.000299335 0.0151339 ) 0 
( 0.00203959 0.000800248 0.0132302 ) 0 
( 0.00216036 0.000255868 0.0140598 ) 0 
( 0.0119395 0.00105107 0.0142386 ) 0 
( 0.0114614 0.000265589 0.0149572 ) 0 
( 0.0104855 6.74506e-05 0.0147377 ) 0 
( 0.00236975 0.000173027 0.00931325 ) 0 
( 0.00345134 0.00371031 0.00265469 ) 0 
( 0.00172982 0.00542343 0.00813638 ) 0 
( 0.000196368 0.0127191 0.00586183 ) 0 
( 0.00702624 0.00504416 0.00212219 ) 0 
( 0.00684404 0.00470743 0.0055227 ) 0 
( 0.00899111 0.00551202 0.00690928 ) 0 
( 0.000407911 0.0133356 0.00368191 ) 0 
( 0.00620939 0.00337306 0.00447596 ) 0 
( 0.00548906 0.0121494 0.00496124 ) 0 
( 0.0103157 0.00529522 0.00580229 ) 0 
( 0.000877087 0.00727633 0.00468656 ) 0 
( 0.00713074 0.0103231 0.00049963 ) 0 
( 0.00640195 0.00978593 0.0016188 ) 0 
( 0.00235306 0.0122687 0.00439365 ) 0 
( 0.00186941 0.0031331 0.000499773 ) 0 
( 0.00444442 0.00759071 0.00184762 ) 0 
( 0.0107674 0.00376014 0.00398655 ) 0 
( 0.0113192 0.00530225 0.00582974 ) 0 
( 0.00471597 0.00333701 0.0043275 ) 0 
( 0.00823128 0.00270949 0.00696321 ) 0 
( 0.00883647 0.00264131 0.00507468 ) 0 
( 0.00261085 0.0100196 0.00644787 ) 0 
( 0.00723753 0.00683084 0.00119213 ) 0 
( 0.00676195 0.00462348 0.00431627 ) 0 
( 0.00558112 0.00769266 0.00337205 ) 0 
( 0.00375552 0.0128111 0.00597852 ) 0 
( 0.00255113 0.00797969 0.00313835 ) 0 
( 0.0116716 0.00437911 0.000499648 ) 0 
( 0.00105699 0.00223307 0.00346083 ) 0 
( 0.00530191 0.00686895 0.00475354 ) 0 
( 0.0109977 0.00372471 0.000841869 ) 0 
( 0.00936959 0.00219387 0.00434118 ) 0 
( 0.00274534 0.0014705 0.00648885 ) 0 
( 0.00679881 0.000167122 0.00867303 ) 0 
( 0.000844232 0.00603268 0.00494654 ) 0 
( 0.00184295 0.00814093 0.00804723 ) 0 
( 0.00156789 0.00794768 0.00275294 ) 0 
( 0.00905987 0.00980143 0.00440931 ) 0 
( 0.0128723 0.00353987 0.00678159 ) 0 
( 0.00256123 0.007107 0.0013041 ) 0 
( 0.00990777 0.00317585 0.00563928 ) 0 
( 0.00274625 0.000679365 0.00126438 ) 0 
( 0.00723343 0.00568082 0.00592961 ) 0 
( 0.00582598 0.00470769 0.00589341 ) 0 
( 0.000632792 0.000346867 0.00255794 ) 0 
( 0.00116357 0.00587745 0.00588114 ) 0 
( 0.00870415 0.00129737 0.00709578 ) 0 
( 0.00146933 0.0118375 0.00462411 ) 0 
( 0.00297635 0.00797664 0.00424063 ) 0 
( 0.00749189 0.00211895 0.00572756 ) 0 
( 0.00899748 0.00986253 0.007828 ) 0 
( 0.0121002 0.00409897 0.00219791 ) 0 
( 0.0057044 0.00817234 0.00665619 ) 0 
( 0.0029736 0.00707438 0.00294742 ) 0 
( 0.00806139 0.000550353 0.00743424 ) 0 
( 0.0100184 0.00525099 0.003149 ) 0 
( 0.000332648 0.00370747 0.00644204 ) 0 
( 0.00270759 0.000979082 0.00561452 ) 0 
( 0.00399894 0.0101324 0.00333669 ) 0 
( 0.00356702 0.00213228 0.0019435 ) 0 
( 0.00579611 0.00505692 0.0037529 ) 0 
( 0.00824615 0.00135883 0.00799247 ) 0 
( 0.00313293 0.0123544 0.00527836 ) 0 
( 0.00139449 0.00886786 0.00352186 ) 0 
( 0.000917636 0.012258 0.00534478 ) 0 
( 0.00593186 0.00416782 0.00331585 ) 0 
( 0.00780821 0.00285639 0.00513087 ) 0 
( 0.0019136 0.00999983 0.000499788 ) 0 
( 0.00909167 0.00844774 0.00425403 ) 0 
( 0.00492194 0.00493369 0.00824283 ) 0 
( 0.00941298 8.21154e-05 0.0023097 ) 0 
( 0.00476644 0.00721251 0.00723204 ) 0 
( 0.0022296 0.00522064 0.00729484 ) 0 
( 0.0102567 0.00852465 0.0039549 ) 0 
( 0.00470579 0.00121733 0.00614464 ) 0 
( 0.00693661 0.00358923 0.0076625 ) 0 
( 0.00696827 0.00666375 0.00432799 ) 0 
( 0.000787072 0.00772406 0.00662275 ) 0 
( 0.00637003 0.00641613 0.00207066 ) 0 
( 0.000591741 0.00280713 0.00269185 ) 0 
( 0.0118934 0.00605743 0.00614679 ) 0 
( 0.000924174 0.00128003 0.00495134 ) 0 
( 0.00714606 0.0102648 0.0074355 ) 0 
( 0.0010584 0.00289676 0.0017192 ) 0 
( 0.00805636 0.0106452 0.00197128 ) 0 
( 0.00458195 0.0034535 0.00620645 ) 0 
( 0.00358442 0.0113767 0.00733303 ) 0 
( 0.0111573 0.00134645 0.00453705 ) 0 
( 0.000763525 0.0133283 0.000499737 ) 0 
( 0.00217781 0.000623253 0.00638498 ) 0 
( 0.000580162 0.00912291 0.00288431 ) 0 
( 0.00673578 0.000694851 0.000499635 ) 0 
( 0.00497816 0.00197059 0.00674275 ) 0 
( 0.00332526 0.00511668 0.00128984 ) 0 
( 0.000876281 0.00453429 0.00629841 ) 0 
( 0.000903213 0.00339096 0.000499764 ) 0 
( 0.0114695 0.00291132 0.000499643 ) 0 
( 0.00467492 0.0115016 0.00611893 ) 0 
( 0.00318445 0.00564491 0.00742643 ) 0 
( 0.0026308 0.00111813 0.00317214 ) 0 
( 0.00841553 0.00247602 0.00132777 ) 0 
( 0.00647002 0.00660505 0.00601005 ) 0 
( 0.0123054 0.00515901 0.0038882 ) 0 
( 0.00256054 0.0113769 0.00307764 ) 0 
( 0.00448434 0.00089289 0.00217992 ) 0 
( 0.00259237 0.0112125 0.000499346 ) 0 
( 0.012379 0.00499897 0.00487227 ) 0 
( 0.000855198 0.00792292 0.00201526 ) 0 
( 0.00453967 0.00906033 0.00515337 ) 0 
( 0.00266387 0.00547555 0.00468651 ) 0 
( 0.00324861 0.00940202 0.0032315 ) 0 
( 0.00492441 0.00948537 0.00257419 ) 0 
( 0.00371036 0.00960219 0.00528965 ) 0 
( 0.00317029 0.00429208 0.00188578 ) 0 
( 0.00641788 0.010688 0.00573647 ) 0 
( 0.0110935 0.00740468 0.00494648 ) 0 
( 0.00705706 0.00102567 0.00219434 ) 0 
( 0.00702116 0.0084803 0.00411627 ) 0 
( 0.0108954 0.00532432 0.00138845 ) 0 
( 0.00946173 0.00811441 0.00513058 ) 0 
( 0.0129577 0.00320957 0.00241975 ) 0 
( 0.000455568 0.0089616 0.00391911 ) 0 
( 0.00391558 0.0127077 0.000499677 ) 0 
( 0.00878425 0.0100529 0.00231658 ) 0 
( 0.00197935 0.00916851 0.00118035 ) 0 
( 0.00618004 0.00535636 0.00482903 ) 0 
( 0.00687146 0.00380823 0.00508597 ) 0 
( 0.00789177 0.00718109 0.00205792 ) 0 
( 0.000372145 0.010655 0.00678074 ) 0 
( 7.08042e-05 0.00175869 0.00684051 ) 0 
( 0.0125035 0.00424666 0.00551908 ) 0 
( 0.0104398 0.00189385 0.00147376 ) 0 
( 0.0119743 0.000865717 0.000777297 ) 0 
( 0.0111726 0.00195666 0.000499767 ) 0 
( 0.00558583 0.000828542 0.00748334 ) 0 
( 0.00881421 0.000432688 0.00398976 ) 0 
( 0.0100872 0.0019754 0.00240596 ) 0 
( 0.00177349 0.00780928 0.00676125 ) 0 
( 0.00804344 0.00868234 0.00392287 ) 0 
( 0.00862601 0.00633915 0.00234403 ) 0 
( 0.0065231 0.00275664 0.00621816 ) 0 
( 0.00592362 0.00397688 0.0014968 ) 0 
( 0.000692069 0.00313489 0.00567489 ) 0 
( 0.00863261 0.00442991 0.00530791 ) 0 
( 0.00226043 0.0123073 0.000499698 ) 0 
( 0.0122202 0.00456871 0.00131506 ) 0 
( 0.00628615 0.0034276 0.00692074 ) 0 
( 0.00456047 0.00802833 0.00777127 ) 0 
( 0.00893938 0.00746964 0.00439442 ) 0 
( 0.0061159 0.00223537 0.00424349 ) 0 
( 0.000948688 0.00411207 0.00437003 ) 0 
( 0.0105081 0.0067373 0.00268236 ) 0 
( 0.00400792 0.00359847 0.00719567 ) 0 
( 0.000258459 0.00455594 0.00716838 ) 0 
( 0.00354445 0.00533438 0.00408892 ) 0 
( 0.0120247 0.00119423 0.00406333 ) 0 
( 0.00220507 0.00133239 0.00465886 ) 0 
( 0.00853918 0.00899452 0.00170015 ) 0 
( 0.0032322 0.0108403 0.00400812 ) 0 
( 0.00230052 0.0122553 0.00672684 ) 0 
( 0.0103817 0.00839322 0.00141277 ) 0 
( 0.00266945 0.00407997 0.00340396 ) 0 
( 0.000803531 0.0119343 0.00322206 ) 0 
( 0.00166532 0.00607439 0.00336143 ) 0 
( 0.00367754 0.00271855 0.0027465 ) 0 
( 0.00503961 0.000127917 0.00594083 ) 0 
( 0.0064561 0.000337959 0.00758179 ) 0 
( 0.00755251 0.000681617 0.00133474 ) 0 
( 0.00999637 0.00532646 0.000499714 ) 0 
( 0.00646934 0.00479195 0.00130258 ) 0 
( 0.00175112 0.0123588 0.00140184 ) 0 
( 0.00632032 0.0117592 0.00239181 ) 0 
( 0.00435146 0.00884442 0.00308517 ) 0 
( 0.00515781 0.0113597 0.00402966 ) 0 
( 0.00317569 0.010338 0.00487435 ) 0 
( 0.00301428 0.0111223 0.00198738 ) 0 
( 0.00392091 0.00597026 0.00683372 ) 0 
( 0.0098711 0.00703652 0.00617324 ) 0 
( 0.00462323 0.00297223 0.005331 ) 0 
( 0.00321178 0.0119974 0.000499726 ) 0 
( 0.00268086 0.00421477 0.00440653 ) 0 
( 0.00467987 0.00957235 0.00380934 ) 0 
( 0.00391167 0.00347713 0.00356705 ) 0 
( 0.00944233 0.000972814 0.00588788 ) 0 
( 0.00400031 0.0108566 0.00464806 ) 0 
( 0.00474117 0.00434717 0.00049958 ) 0 
( 0.00346761 0.00837671 0.00308963 ) 0 
( 0.00349753 0.00777989 0.00217937 ) 0 
( 0.00807809 0.00520574 0.00748579 ) 0 
( 0.00743023 0.00838489 0.00693145 ) 0 
( 0.00287153 0.00236225 0.004734 ) 0 
( 0.00020532 0.00158202 0.00782165 ) 0 
( 0.00705136 0.00825868 0.0059242 ) 0 
( 0.0092609 0.00961562 0.00537197 ) 0 
( 0.0107297 0.00076884 0.0071751 ) 0 
( 0.00405833 0.00279359 0.00779714 ) 0 
( 0.0108757 0.00267007 0.00690812 ) 0 
( 0.00400704 0.0110463 0.00208439 ) 0 
( 0.00561514 0.000211107 0.00406475 ) 0 
( 0.00804883 0.00972799 0.00109086 ) 0 
( 0.00681599 0.00892179 0.00190445 ) 0 
( 0.00508212 0.00567735 0.00133394 ) 0 
( 0.00706782 0.00224487 0.00483086 ) 0 
( 0.00302891 0.00171795 0.00120957 ) 0 
( 0.000257847 0.0065048 0.00428864 ) 0 
( 0.00358753 0.0119624 0.00166217 ) 0 
( 0.00328304 0.00388292 0.00789787 ) 0 
( 0.0106602 0.00629825 0.00761401 ) 0 
( 0.00478071 0.00567905 0.00229784 ) 0 
( 0.00316923 0.000564848 0.00650106 ) 0 
( 0.000517735 0.00264988 0.00674182 ) 0 
( 0.0120467 0.00370945 0.00480202 ) 0 
( 0.00888561 0.00734737 0.00541789 ) 0 
( 0.00530442 0.00677825 0.00240016 ) 0 
( 0.0100802 0.00242095 0.00500697 ) 0 
( 0.00750221 0.00750153 0.000499579 ) 0 
( 0.00197779 0.00798003 0.00418263 ) 0 
( 0.0114752 6.05492e-05 0.00143958 ) 0 
( 0.00159122 0.00349632 0.00482607 ) 0 
( 0.00640583 0.00798292 0.00521207 ) 0 
( 0.00356765 0.00119189 0.00269966 ) 0 
( 0.00816043 0.00430574 0.00705795 ) 0 
( 0.0133252 0.000812777 0.00441411 ) 0 
( 0.00281918 0.0130491 0.00218175 ) 0 
( 0.0105058 0.00366851 0.00500717 ) 0 
( 0.00974703 0.00431055 0.000499509 ) 0 
( 0.00442475 0.00532013 0.00746616 ) 0 
( 0.00948815 0.00884172 0.00142441 ) 0 
( 0.00672274 0.00501069 0.00646781 ) 0 
( 0.0106517 0.00628979 0.00147836 ) 0 
( 0.004398 0.00386573 0.00153509 ) 0 
( 3.78267e-05 0.00816897 0.00436253 ) 0 
( 0.00195652 0.00700779 0.00280601 ) 0 
( 0.00301153 0.00470124 0.00521502 ) 0 
( 0.0133499 4.97003e-05 0.00136566 ) 0 
( 0.00514377 0.00355001 0.000948665 ) 0 
( 0.00605102 0.00834502 0.00219119 ) 0 
( 0.00562474 0.0121073 0.00595109 ) 0 
( 0.00111586 0.00932817 0.001952 ) 0 
( 0.00929993 0.00919648 0.00234016 ) 0 
( 0.0022332 0.010778 0.00388168 ) 0 
( 0.00193821 0.011249 0.00640238 ) 0 
( 0.0044969 0.0116194 0.00142752 ) 0 
( 0.0017387 0.00502848 0.00644526 ) 0 
( 0.00806237 0.00791768 0.00456686 ) 0 
( 0.00122665 0.00992604 0.00500303 ) 0 
( 0.00309416 0.0072343 0.00490009 ) 0 
( 0.00167065 0.000746441 0.00553208 ) 0 
( 0.0133501 1.81961e-05 0.00579604 ) 0 
( 0.00345748 0.000535349 0.00195243 ) 0 
( 0.0119712 0.0017528 0.00179369 ) 0 
( 0.0106466 3.87925e-05 0.00324892 ) 0 
( 0.00227457 0.000432245 0.0038415 ) 0 
( 0.007321 0.00764813 0.00357122 ) 0 
( 0.00868101 0.00813857 0.00219719 ) 0 
( 0.0112653 0.0052602 0.0039515 ) 0 
( 0.00404832 0.00788978 0.00385713 ) 0 
( 0.00454564 0.0120282 0.00320933 ) 0 
( 0.00988385 0.000378152 0.00753783 ) 0 
( 0.00966225 0.00800331 0.00234493 ) 0 
( 0.004284 0.00627429 0.000499678 ) 0 
( 0.00401558 0.00896848 0.00600009 ) 0 
( 0.011253 0.00437472 0.00515089 ) 0 
( 0.0133387 0.00054972 0.000499805 ) 0 
( 0.00173883 0.00544813 0.0041378 ) 0 
( 0.00797012 0.00515131 0.00550903 ) 0 
( 5.60441e-05 0.00402946 0.00481428 ) 0 
( 0.00165644 0.00335652 0.00581819 ) 0 
( 0.000432342 0.00136541 0.00209277 ) 0 
( 0.000666851 0.011562 0.000499813 ) 0 
( 0.005073 0.00843652 0.00380611 ) 0 
( 0.0100514 0.00346055 0.00335617 ) 0 
( 0.000405309 0.0121669 0.00666864 ) 0 
( 0.00861365 0.00906593 0.000499795 ) 0 
( 0.00880652 0.000450111 0.00137128 ) 0 
( 0.00222661 0.00181746 0.00727014 ) 0 
( 0.00758757 0.00858153 0.00514437 ) 0 
( 0.00180895 0.00393482 0.00389211 ) 0 
( 0.000142841 0.00950714 0.00570095 ) 0 
( 0.00127656 0.00329982 0.0067764 ) 0 
( 0.00388403 0.00520205 0.0021146 ) 0 
( 0.000892982 0.000961046 0.00819742 ) 0 
( 0.00318253 0.00662736 0.00645245 ) 0 
( 0.00170173 0.0130043 0.00562733 ) 0 
( 0.00711078 0.00761337 0.00460667 ) 0 
( 0.00650458 0.000976272 0.00610264 ) 0 
( 0.0025184 0.00374089 0.00136483 ) 0 
( 0.00818109 0.00597526 0.00655042 ) 0 
( 0.005628 0.00180358 0.00500397 ) 0 
( 0.000917432 0.0104927 0.005767 ) 0 
( 0.00772851 0.00130393 0.00507972 ) 0 
( 0.00571691 0.00299611 0.00155215 ) 0 
( 0.00653971 0.00184112 0.00560231 ) 0 
( 0.00220267 0.0104616 0.00724618 ) 0 
( 0.0020474 0.00265763 0.00521764 ) 0 
( 0.0110855 0.0074382 0.00735773 ) 0 
( 0.00693999 0.00200081 0.00200678 ) 0 
( 5.49177e-05 0.0049944 0.00823026 ) 0 
( 0.00200485 0.00987123 0.00562848 ) 0 
( 0.00738227 0.0107584 0.00414111 ) 0 
( 0.0016663 0.000834449 0.000903282 ) 0 
( 0.000734071 0.00586604 0.000499805 ) 0 
( 0.00103204 0.0017733 0.00132118 ) 0 
( 0.00740186 0.00276248 0.00254741 ) 0 
( 0.00128558 0.00906604 0.00449646 ) 0 
( 0.00111224 0.00963206 0.000999452 ) 0 
( 0.00807967 0.00114369 0.00357903 ) 0 
( 0.00751067 0.000204456 0.00254029 ) 0 
( 0.00551073 0.00588637 0.00294902 ) 0 
( 0.0122763 0.00180545 0.00331304 ) 0 
( 0.00404453 0.00210205 0.00707521 ) 0 
( 0.00278312 0.00126343 0.00207519 ) 0 
( 0.00219631 0.00691235 0.00663112 ) 0 
( 0.012901 0.00189383 0.00600054 ) 0 
( 0.00369982 0.0114808 0.00321066 ) 0 
( 0.0113161 0.00343971 0.0055533 ) 0 
( 0.0100838 0.000270207 0.000499805 ) 0 
( 0.000256215 0.00242261 0.00410785 ) 0 
( 0.00122736 0.010727 0.000499687 ) 0 
( 0.001826 0.00926618 0.00640416 ) 0 
( 0.0065059 0.00124627 0.00716718 ) 0 
( 0.00725213 0.00602272 0.00233547 ) 0 
( 0.00224146 0.00894334 0.00423021 ) 0 
( 0.0120325 0.00302727 0.00398899 ) 0 
( 0.00330435 0.0093338 0.00666691 ) 0 
( 0.00114442 0.00178961 0.007196 ) 0 
( 0.00705744 0.00695969 0.00262532 ) 0 
( 0.00732634 0.0107895 0.00289942 ) 0 
( 0.00549995 0.000931504 0.000499773 ) 0 
( 0.00290262 0.00738978 0.00586895 ) 0 
( 0.00499288 0.00757368 0.00628867 ) 0 
( 0.00593423 0.00173883 0.00640803 ) 0 
( 0.00505341 0.0123566 0.00401279 ) 0 
( 0.00354544 0.00395848 0.00102097 ) 0 
( 0.00186625 0.0073424 0.000499747 ) 0 
( 0.00723085 0.00311328 0.00682911 ) 0 
( 0.00776689 0.00170984 0.00135691 ) 0 
( 0.00276598 0.0120533 0.00225474 ) 0 
( 0.00436167 0.00512169 0.00648589 ) 0 
( 0.0046974 0.00289428 0.0070275 ) 0 
( 0.00465178 0.00984364 0.000499784 ) 0 
( 0.00890733 0.00723173 0.00184185 ) 0 
( 0.00219634 0.0102194 0.00471073 ) 0 
( 0.004597 0.0019025 0.0054243 ) 0 
( 0.0025746 0.00500814 0.00380707 ) 0 
( 0.00327001 0.011727 0.00451157 ) 0 
( 0.0107781 0.00381808 0.00229892 ) 0 
( 0.00136964 0.00725583 0.00370581 ) 0 
( 0.00511645 0.00188261 0.00204851 ) 0 
( 0.0129429 0.00254561 0.00339855 ) 0 
( 0.0071186 0.0112941 0.000736526 ) 0 
( 0.0103729 0.000717522 0.0024486 ) 0 
( 0.00545828 0.00672976 0.00361229 ) 0 
( 0.0114601 0.00414359 0.00321715 ) 0 
( 0.00726809 0.00924105 0.00582447 ) 0 
( 7.87152e-05 0.00355651 0.00365928 ) 0 
( 0.00622145 0.00659218 0.000566118 ) 0 
( 0.0045394 0.00808593 0.00554837 ) 0 
( 0.00646386 0.0116369 0.00140985 ) 0 
( 0.00439921 0.00138952 0.00456178 ) 0 
( 0.00472133 0.00291169 0.00159182 ) 0 
( 0.00720345 0.00416364 0.00049964 ) 0 
( 0.00341492 0.00619011 0.00356821 ) 0 
( 0.00247638 0.00500773 0.00180681 ) 0 
( 0.0120693 0.00265184 0.00136723 ) 0 
( 0.00367861 0.00955767 0.000499653 ) 0 
( 0.00194802 0.00890102 0.00529228 ) 0 
( 0.0055437 0.0103705 0.00714234 ) 0 
( 0.000834223 0.000314056 0.00519581 ) 0 
( 0.00138552 0.00349203 0.00782631 ) 0 
( 0.00354253 0.00475992 0.00712973 ) 0 
( 0.0116582 0.00429298 0.00606127 ) 0 
( 0.00327085 0.00629804 0.00455164 ) 0 
( 0.00573684 0.00184806 0.00738216 ) 0 
( 0.00226429 0.000567565 0.0079225 ) 0 
( 0.00788128 0.0107536 0.00591799 ) 0 
( 0.00262445 0.0099171 0.00133208 ) 0 
( 0.00160137 0.0017469 0.000499657 ) 0 
( 0.00825751 0.00498623 0.00456568 ) 0 
( 0.00382137 0.00791997 0.00487261 ) 0 
( 0.00302086 1.53486e-05 0.00757284 ) 0 
( 0.00271752 0.00474243 0.00656514 ) 0 
( 0.0118747 0.00163313 0.00570839 ) 0 
( 0.00620507 0.00563444 0.00588237 ) 0 
( 0.00272431 0.00320859 0.00218587 ) 0 
( 0.00638712 0.00188974 0.00325995 ) 0 
( 0.00517614 0.0122399 0.00185739 ) 0 
( 0.00869866 0.00295931 0.000499598 ) 0 
( 0.00339995 0.00572457 0.000499618 ) 0 
( 0.00695801 0.00513302 0.000499741 ) 0 
( 0.000990542 0.0108849 0.00253588 ) 0 
( 0.00521571 0.00495247 0.00697751 ) 0 
( 0.00609837 0.0108381 0.00207223 ) 0 
( 0.00290895 0.00480974 0.00790207 ) 0 
( 0.00187952 0.00465177 0.00310767 ) 0 
( 0.0117256 0.00512433 0.00307425 ) 0 
( 0.00489501 0.00382502 0.00322996 ) 0 
( 0.00979855 0.00265957 0.00142948 ) 0 
( 0.00204793 0.00164433 0.00138824 ) 0 
( 0.00640283 0.00749046 0.00789607 ) 0 
( 0.00868386 0.00486274 0.00621377 ) 0 
( 0.00574266 0.0054816 0.00205872 ) 0 
( 0.00400747 0.0119285 0.00550942 ) 0 
( 0.00842035 0.005822 0.0040414 ) 0 
( 0.00929759 0.00408675 0.00136415 ) 0 
( 0.00268525 0.00936394 0.000499745 ) 0 
( 0.00954181 0.00151422 0.00355623 ) 0 
( 0.0115577 0.00433572 0.0041954 ) 0 
( 0.00428332 0.00189905 0.00260137 ) 0 
( 0.00339258 0.000686733 0.00379856 ) 0 
( 0.00540564 0.011204 0.00139035 ) 0 
( 0.00462465 8.59372e-05 0.00779806 ) 0 
( 0.00852075 0.0102558 0.00650395 ) 0 
( 0.00652469 0.00816225 0.00132303 ) 0 
( 0.00649511 0.00806039 0.00318607 ) 0 
( 0.00242044 0.0100092 0.0030359 ) 0 
( 0.000592513 0.000958001 0.00713737 ) 0 
( 0.00825452 0.0104922 0.00313955 ) 0 
( 0.002697 0.0091969 0.00588493 ) 0 
( 0.00488935 0.00439131 0.00604557 ) 0 
( 0.00704401 0.00839027 0.000499665 ) 0 
( 0.00394197 0.00106293 0.00689423 ) 0 
( 0.00130681 0.00705714 0.0017959 ) 0 
( 0.000962008 0.00891205 0.00697139 ) 0 
( 0.00346704 0.0026007 0.00395391 ) 0 
( 0.004388 0.00885107 0.000499795 ) 0 
( 0.00351667 0.0074222 0.00124581 ) 0 
( 0.00970781 0.00133264 0.00688331 ) 0 
( 0.011969 0.00359027 0.00103701 ) 0 
( 0.0112695 0.00650681 0.0055077 ) 0 
( 0.00210398 0.0121275 0.00535151 ) 0 
( 0.00661156 0.00563223 0.0038161 ) 0 
( 0.0113718 0.00127819 0.00331055 ) 0 
( 0.00656635 0.0105612 0.00468438 ) 0 
( 0.000271584 0.0024231 0.00132361 ) 0 
( 0.00436726 0.0107755 0.00674086 ) 0 
( 0.00883091 0.00180104 0.00285094 ) 0 
( 0.0131501 0.00230275 0.000632333 ) 0 
( 0.00234547 2.94124e-05 0.00535699 ) 0 
( 0.0126692 0.00420092 0.000499831 ) 0 
( 0.0128009 0.00379048 0.0015539 ) 0 
( 0.00640675 0.00930803 0.00398911 ) 0 
( 0.00812402 0.00207901 0.00458699 ) 0 
( 0.00985592 0.00568658 0.0014217 ) 0 
( 0.00432928 0.00524361 0.00470187 ) 0 
( 0.00587592 0.00276731 0.000499743 ) 0 
( 0.00496942 0.00623484 0.00727107 ) 0 
( 0.00693462 0.00474795 0.00331123 ) 0 
( 0.00825631 0.00316288 0.00429108 ) 0 
( 0.0100311 0.00711657 0.00518946 ) 0 
( 0.00899288 0.00634553 0.00138676 ) 0 
( 0.00108061 0.0052009 0.00335346 ) 0 
( 0.00544447 0.00759714 0.0018429 ) 0 
( 0.00432538 0.00248736 0.00618912 ) 0 
( 0.00723954 0.00569274 0.00139164 ) 0 
( 0.00156048 0.0132284 0.00466169 ) 0 
( 0.00704679 0.0113364 0.0061655 ) 0 
( 0.00499807 0.00525182 0.00554804 ) 0 
( 0.00570927 0.0045576 0.00775271 ) 0 
( 0.006446 0.00907326 0.000918859 ) 0 
( 0.00537829 0.00244888 0.00572588 ) 0 
( 0.00551241 0.0118587 0.00300193 ) 0 
( 0.00165727 0.0115438 0.00359545 ) 0 
( 0.00152028 0.000612943 0.00449996 ) 0 
( 0.0095831 0.00335545 0.000744802 ) 0 
( 0.0120235 0.00265759 0.00521219 ) 0 
( 0.00877886 0.0013898 0.004277 ) 0 
( 0.00721274 0.00926364 0.00745486 ) 0 
( 0.00985703 0.00405023 0.00428054 ) 0 
( 0.00979579 0.00471688 0.00656375 ) 0 
( 0.0128359 0.00365459 0.00346522 ) 0 
( 0.0108182 0.00249044 0.00592604 ) 0 
( 0.0127366 0.00320333 0.000499752 ) 0 
( 0.00876641 0.0077635 0.00633195 ) 0 
( 0.0114389 0.000814146 0.00533533 ) 0 
( 7.14687e-05 0.00451388 0.00178694 ) 0 
( 0.00162424 0.0103007 0.00644715 ) 0 
( 0.000151018 0.00504495 0.000499596 ) 0 
( 0.00881578 0.00667773 0.0035324 ) 0 
( 0.00295512 0.0122211 0.00748224 ) 0 
( 0.000936681 0.0080626 0.00763305 ) 0 
( 0.00355266 0.0102483 0.00698552 ) 0 
( 0.00847 0.00102387 0.00611471 ) 0 
( 0.00397207 0.00701952 0.00294351 ) 0 
( 0.00693192 0.00787454 0.0022417 ) 0 
( 0.00849533 0.00346375 0.00552979 ) 0 
( 0.0107986 0.00488792 0.00228296 ) 0 
( 0.00613191 0.00734503 0.00252508 ) 0 
( 0.0098879 0.00186476 0.00581526 ) 0 
( 0.0110342 0.001448 0.00227109 ) 0 
( 0.0124222 0.000437247 0.00695288 ) 0 
( 8.70374e-05 0.00234417 0.00576554 ) 0 
( 0.00075216 0.0126393 0.00443132 ) 0 
( 0.0040078 0.00174404 0.00804413 ) 0 
( 0.00478954 0.00129358 0.00347909 ) 0 
( 0.00158856 0.000403811 0.00284648 ) 0 
( 0.00418553 0.00789173 0.00678495 ) 0 
( 0.00123009 0.00521456 0.00728561 ) 0 
( 0.0060053 0.000597043 0.00493809 ) 0 
( 0.0132983 0.00117347 0.0067429 ) 0 
( 0.0097354 0.00628477 0.00324332 ) 0 
( 0.00307468 0.00579012 0.00198522 ) 0 
( 0.00746757 0.00472534 0.00128342 ) 0 
( 0.00926092 0.00478028 0.00461353 ) 0 
( 0.00798222 0.00534258 0.00196235 ) 0 
( 0.00388698 0.00834136 0.00137861 ) 0 
( 0.00411719 0.0126988 0.00391135 ) 0 
( 0.0103368 0.00844862 0.00741814 ) 0 
( 0.0132522 0.00161337 0.00135235 ) 0 
( 0.00172867 0.00977554 0.00394634 ) 0 
( 0.00665084 0.00305433 0.00190434 ) 0 
( 0.00204795 0.00638823 0.00190393 ) 0 
( 0.00545116 0.00666666 0.00599071 ) 0 
( 0.00191963 0.0132114 0.00258679 ) 0 
( 8.46544e-05 0.00182082 0.00488842 ) 0 
( 0.000751843 0.00654193 0.00789696 ) 0 
( 0.00869473 0.00655252 0.00470825 ) 0 
( 0.0035493 0.00652086 0.00548562 ) 0 
( 3.66855e-05 0.000689658 0.0061869 ) 0 
( 0.00223062 0.00770031 0.00203851 ) 0 
( 0.00359591 0.0101514 0.00129984 ) 0 
( 0.00473658 0.00767481 0.00455302 ) 0 
( 0.00127079 0.00681058 0.00626614 ) 0 
( 0.000244171 0.0124701 0.000499554 ) 0 
( 0.00579825 0.00857234 0.00574466 ) 0 
( 0.0102357 0.00357146 0.00147067 ) 0 
( 0.00141038 0.00811112 0.00499801 ) 0 
( 0.00153145 0.00970538 0.00725319 ) 0 
( 0.00208293 0.0107692 0.00235426 ) 0 
( 0.00126143 0.00709717 0.00724019 ) 0 
( 0.012509 9.64483e-05 0.00526096 ) 0 
( 0.0103884 0.00686507 0.00393143 ) 0 
( 0.00828534 0.00609852 0.00556381 ) 0 
( 0.00903759 0.00404021 0.00665879 ) 0 
( 0.00193895 0.000771144 0.00186324 ) 0 
( 0.000331638 0.00558891 0.00185677 ) 0 
( 0.00897859 0.0069566 0.000499774 ) 0 
( 0.000162203 0.0125332 0.00215716 ) 0 
( 0.00130195 0.0042269 0.00714922 ) 0 
( 0.0053312 0.00146402 0.00821115 ) 0 
( 0.0106472 0.00608548 0.000499662 ) 0 
( 0.00597749 0.00611522 0.00672914 ) 0 
( 0.000414623 0.0101446 0.00049969 ) 0 
( 0.010686 0.00248498 0.00409709 ) 0 
( 0.00217245 0.0131574 0.003868 ) 0 
( 0.010638 0.00110254 0.00049976 ) 0 
( 0.00896504 0.00543661 0.00180373 ) 0 
( 0.00993029 0.00889582 0.00555528 ) 0 
( 0.000898303 0.00718844 0.00270823 ) 0 
( 0.00637988 0.00757877 0.00621852 ) 0 
( 0.00767555 0.00344099 0.00350674 ) 0 
( 0.00377719 0.00327828 0.0046681 ) 0 
( 0.00919859 0.000474986 0.00681301 ) 0 
( 0.0021919 0.0123626 0.00317154 ) 0 
( 0.00390637 0.00612941 0.00249105 ) 0 
( 0.0123608 0.00105783 0.00502753 ) 0 
( 0.00577966 0.0101481 0.00415845 ) 0 
( 0.000342098 0.013229 0.00702223 ) 0 
( 0.0104526 0.00583958 0.00389084 ) 0 
( 0.00422294 0.00879558 0.00424277 ) 0 
( 0.00400118 0.00787843 0.00049963 ) 0 
( 0.00280444 0.00940796 0.00491356 ) 0 
( 0.00146717 0.00565367 0.00147712 ) 0 
( 0.0075173 0.00786425 0.00143111 ) 0 
( 0.0106353 0.00806893 0.00654274 ) 0 
( 0.000169791 0.0019842 0.0030723 ) 0 
( 0.00135492 0.00243271 0.00605405 ) 0 
( 0.00899872 0.00565365 0.00502296 ) 0 
( 0.00685452 0.00837147 0.00774889 ) 0 
( 0.00426196 0.011809 0.00435096 ) 0 
( 0.0131811 0.00211418 0.0022833 ) 0 
( 0.00995628 0.0076228 0.00331607 ) 0 
( 0.00178135 0.00477085 0.00112819 ) 0 
( 0.00665272 0.00698935 0.00706778 ) 0 
( 0.00478618 0.0114227 0.00510984 ) 0 
( 0.00822432 0.00696325 0.00606196 ) 0 
( 0.00403743 0.00695534 0.00472088 ) 0 
( 0.00605507 0.00437555 0.00497851 ) 0 
( 0.00540789 0.0027415 0.00473593 ) 0 
( 0.00336481 0.00223146 0.00629648 ) 0 
( 0.00604919 0.00825096 0.00417154 ) 0 
( 0.00494959 0.0113627 0.00228131 ) 0 
( 0.00372577 0.00161866 0.000499601 ) 0 
( 0.00260237 0.000375619 0.0024989 ) 0 
( 0.00922768 0.00215851 0.000779446 ) 0 
( 0.00122162 0.0126911 0.0069111 ) 0 
( 0.00519555 0.000438934 0.00315035 ) 0 
( 0.00153026 0.00386129 0.00145895 ) 0 
( 0.00695785 0.000998177 0.00814048 ) 0 
( 0.00797944 0.00381771 0.00104298 ) 0 
( 0.00301709 0.0103075 0.000499698 ) 0 
( 0.00970434 0.0080192 0.00609598 ) 0 
( 0.00844207 0.00401443 0.00317745 ) 0 
( 0.00356732 0.00451388 0.00347717 ) 0 
( 0.000179676 0.00587174 0.00570403 ) 0 
( 0.00146608 0.00673764 0.00528861 ) 0 
( 0.00287781 0.00760958 0.000499738 ) 0 
( 0.00438362 0.00484343 0.00132607 ) 0 
( 0.00513031 0.0103771 0.00623198 ) 0 
( 0.00633534 0.00718698 0.00143467 ) 0 
( 0.00394952 0.000175523 0.00115985 ) 0 
( 0.0042342 0.010759 0.00561523 ) 0 
( 0.000237028 0.0117865 0.00418179 ) 0 
( 0.0117846 0.002552 0.00617738 ) 0 
( 0.00157366 0.00652257 0.000994097 ) 0 
( 0.000705283 0.00130341 0.000499776 ) 0 
( 0.000929643 0.0133177 0.00618876 ) 0 
( 0.0126183 0.000712431 0.00152672 ) 0 
( 0.00693724 0.00187856 0.00652396 ) 0 
( 0.00439752 0.00338777 0.00243186 ) 0 
( 0.00487829 0.00269709 0.000499776 ) 0 
( 0.00799519 0.00320639 0.00186596 ) 0 
( 0.00968325 0.00253123 0.00338268 ) 0 
( 0.0130479 0.00282408 0.00147936 ) 0 
( 0.00676372 0.0115096 0.0033068 ) 0 
( 0.00915623 0.0049939 0.000927794 ) 0 
( 0.00502833 0.000188942 0.000978231 ) 0 
( 0.00933929 0.00646066 0.00550505 ) 0 
( 0.00912438 0.00310842 0.00630726 ) 0 
( 0.00976477 0.00115706 0.00143548 ) 0 
( 0.0021311 0.00626007 0.00587627 ) 0 
( 0.00229497 0.00946942 0.00217704 ) 0 
( 0.010874 0.00774163 0.00403095 ) 0 
( 0.00756716 0.0053197 0.00389487 ) 0 
( 0.0132541 0.001597 0.00333517 ) 0 
( 0.00724156 0.00319935 0.00438176 ) 0 
( 0.00262802 0.0118209 0.00129206 ) 0 
( 0.00762503 0.00885211 0.00132092 ) 0 
( 0.0127851 0.00176059 0.00438049 ) 0 
( 0.00324302 0.0129503 0.00682744 ) 0 
( 0.000145685 0.00453715 0.00395243 ) 0 
( 0.00969478 0.00056825 0.00317088 ) 0 
( 0.00764092 0.010947 0.00686909 ) 0 
( 0.00818257 0.00106232 0.00201146 ) 0 
( 0.00843616 0.00458698 0.00148953 ) 0 
( 0.00528351 0.00943969 0.00570322 ) 0 
( 0.000143806 0.00404498 0.00049974 ) 0 
( 0.00346027 0.0128937 0.00306038 ) 0 
( 0.00277537 0.0130075 0.0059457 ) 0 
( 0.00463058 0.000521746 0.00409486 ) 0 
( 0.00616981 0.0118388 0.00681505 ) 0 
( 0.000542343 0.00373938 0.00136465 ) 0 
( 0.00509694 0.00579137 0.00638405 ) 0 
( 0.00399472 0.0105987 0.000499575 ) 0 
( 0.00786388 0.00481218 0.00289946 ) 0 
( 0.000340662 0.0110993 0.00136404 ) 0 
( 0.00774769 0.00617858 0.00472457 ) 0 
( 0.000319517 0.0103576 0.00497729 ) 0 
( 0.00923847 0.00824537 0.000499652 ) 0 
( 0.00779541 0.00816057 0.00266171 ) 0 
( 0.00446184 0.00442454 0.00236249 ) 0 
( 0.0118522 0.00212597 0.00438273 ) 0 
( 0.00708112 0.00933647 0.00472686 ) 0 
( 0.0130353 0.00288332 0.00604537 ) 0 
( 0.00423952 0.00992777 0.006171 ) 0 
( 0.00975856 0.00496528 0.00219941 ) 0 
( 0.00378689 0.00703405 0.00733276 ) 0 
( 0.0110367 0.00737566 0.00594432 ) 0 
( 0.00773693 0.00415308 0.00205781 ) 0 
( 0.00024212 0.00938943 0.00145251 ) 0 
( 0.00953092 0.00932262 0.00364369 ) 0 
( 0.00341004 0.0129072 0.00138781 ) 0 
( 0.00071028 0.0102357 0.00170603 ) 0 
( 0.00953733 0.00784489 0.00136552 ) 0 
( 0.00199905 0.00405734 0.00644356 ) 0 
( 0.00257413 0.00223819 0.00199686 ) 0 
( 0.0064548 0.00588743 0.00757746 ) 0 
( 0.00438017 0.0126112 0.00137951 ) 0 
( 0.00599544 0.0111919 0.00755727 ) 0 
( 0.00872463 0.00144011 0.00125926 ) 0 
( 0.00653192 0.00392776 0.0060886 ) 0 
( 0.00832795 0.0104343 0.00415794 ) 0 
( 0.0010796 0.00612689 0.00227324 ) 0 
( 0.00973841 0.0091316 0.000499819 ) 0 
( 0.00830512 0.00770933 0.0034039 ) 0 
( 0.0112351 0.00132329 0.00127077 ) 0 
( 0.000603125 0.00249521 0.00773693 ) 0 
( 0.00332936 0.0111992 0.00535874 ) 0 
( 0.0115489 0.00331872 0.00190272 ) 0 
( 0.00650353 0.00754911 0.00049977 ) 0 
( 0.00997939 0.00565583 0.00685446 ) 0 
( 0.000149246 0.00834056 0.00708313 ) 0 
( 0.00591992 0.0109731 0.00331941 ) 0 
( 0.00628635 0.00274073 0.00524678 ) 0 
( 0.00250329 0.0130965 0.00498766 ) 0 
( 0.00367666 0.00261743 0.000499806 ) 0 
( 0.0129097 0.00339266 0.00519453 ) 0 
( 0.00497654 0.0110541 0.00049976 ) 0 
( 0.00599522 0.00996334 0.00256246 ) 0 
( 0.000273625 0.00681793 0.00539469 ) 0 
( 0.00393738 0.00174259 0.00374826 ) 0 
( 0.00542859 0.00222201 0.00316509 ) 0 
( 0.00267185 0.0031251 0.00585568 ) 0 
( 0.00641267 0.00234523 0.0012301 ) 0 
( 0.00341149 0.0111754 0.00107124 ) 0 
( 0.0114045 0.00228064 0.0034323 ) 0 
( 0.00375203 0.00312402 0.00171508 ) 0 
( 0.00306447 0.00379126 0.00692671 ) 0 
( 0.00417721 0.00236185 0.0046352 ) 0 
( 0.00351942 0.00556228 0.00520341 ) 0 
( 0.0104813 0.000800859 0.00504525 ) 0 
( 0.00132555 0.0116929 0.00705776 ) 0 
( 0.0122804 0.00260833 0.00721694 ) 0 
( 0.0106734 0.00799306 0.00228153 ) 0 
( 0.0127843 0.00138186 0.000499642 ) 0 
( 0.000263435 0.0133354 0.00136552 ) 0 
( 0.00573441 0.000517557 0.00654511 ) 0 
( 0.00387253 0.00052437 0.0047469 ) 0 
( 0.00945321 0.00145677 0.00501231 ) 0 
( 0.00470359 0.012494 0.00600107 ) 0 
( 0.00296 0.00748889 0.00692111 ) 0 
( 0.00462029 0.00609161 0.00345067 ) 0 
( 0.00659982 0.00490115 0.00745543 ) 0 
( 0.00358209 0.0026145 0.00539819 ) 0 
( 0.00298654 0.00271758 0.00121653 ) 0 
( 6.39155e-05 0.00818634 0.000499714 ) 0 
( 0.0109828 0.00758968 0.00130197 ) 0 
( 0.00641095 0.0117009 0.00548528 ) 0 
( 0.00859568 0.00239917 0.00374182 ) 0 
( 0.00639833 0.00907904 0.00279948 ) 0 