FoamFile
{version 2.0; format ascii;class vectorField; location 0;object  v;}
2509
(
( 0.000306634 -0.000149225 0.000188797 )  
( -0.000620342 0.000519366 0.0130652 )  
( -0.000373024 1.19481e-05 -5.57189e-05 )  
( -0.000530824 0.000148356 0.0142494 )  
( -0.00237952 -0.000489664 0.00947257 )  
( 0.000788234 -0.00150667 0.00867164 )  
( 3.20389e-05 9.8647e-06 3.03756e-05 )  
( 0.000183452 0.000522808 0.000760152 )  
( -0.000279793 -0.000470574 8.94243e-05 )  
( -0.000290369 0.000953506 0.0102138 )  
( -6.25484e-05 -0.000729209 0.0121918 )  
( -0.000463177 0.000236349 0.0128928 )  
( 0.000380434 0.000932194 0.0121506 )  
( 0.000207524 0.000803457 0.0128844 )  
( -3.05735e-05 0.00116346 0.0124248 )  
( -0.000263249 0.00123047 0.0117381 )  
( 0.000287715 0.000833581 0.0118712 )  
( 0.00158622 0.00128652 0.0109412 )  
( 0.00116227 5.08688e-05 0.0128808 )  
( -0.00015201 -0.000396441 0.00695282 )  
( 0.00204797 0.000110689 0.0110126 )  
( 0.000566832 0.000692506 0.0112628 )  
( 0.00139345 -0.000328689 0.0115029 )  
( -0.000389659 -5.2766e-05 0.0122434 )  
( 0.00051588 0.00482356 0.00901458 )  
( 7.31465e-05 0.00266748 0.0087965 )  
( -3.59238e-06 0.000516759 0.0117449 )  
( 0.0004267 0.00134064 0.0132568 )  
( -6.43355e-05 0.00098795 0.012833 )  
( 0.000371113 -0.000943326 0.0098629 )  
( -0.00046504 0.000452833 0.0121165 )  
( -0.00056198 0.000709934 0.0119395 )  
( -0.000704032 0.00026067 0.0145066 )  
( -0.00133225 -0.000664479 0.00265893 )  
( 0.000944674 -0.00126011 0.0108711 )  
( -0.00186851 -0.00160477 0.00875704 )  
( -0.00201745 -0.000485158 -0.000659651 )  
( 0.00299434 -0.000254926 0.0118848 )  
( -0.00151577 0.000268247 0.0106002 )  
( 0.000180732 -0.00153864 0.00624742 )  
( 0.00124972 -0.00109102 0.0109771 )  
( 0.000368763 0.000783389 0.0120311 )  
( -0.000191085 -0.00207682 0.00980294 )  
( -0.00221616 0.000142238 0.00972402 )  
( -1.85366e-05 -3.67989e-05 1.28926e-05 )  
( -0.000238962 0.000109853 -7.58578e-05 )  
( 0.00297089 -0.00454604 0.0169581 )  
( -9.08509e-06 0.00106272 -3.8505e-05 )  
( -0.000923275 -0.00275627 0.000886131 )  
( 0.00110207 0.00233811 0.0104742 )  
( 0.000807395 -0.00143977 0.0114876 )  
( -0.00109369 -4.32104e-05 0.0115304 )  
( -0.000415632 -3.6226e-05 0.0114783 )  
( 0.00317514 -0.00112584 0.0124956 )  
( -0.0017866 -0.00100443 0.0103818 )  
( 0.000167777 0.000272919 -4.31318e-05 )  
( -6.23707e-06 -0.000544698 0.0103597 )  
( 0.00133719 0.000720042 0.0079263 )  
( 0.00115582 -0.000553684 0.00859726 )  
( -0.000754039 0.000837713 0.0105254 )  
( 8.24892e-06 -8.09526e-05 -3.94922e-05 )  
( -0.00165445 -0.00264212 0.00675467 )  
( 0.00122705 -0.000735477 0.0104316 )  
( -2.4221e-05 -2.73786e-05 2.62046e-05 )  
( 0.00239486 -0.00187452 0.01109 )  
( -0.000996516 -0.000467309 0.0131393 )  
( -0.000357662 0.000806033 0.014056 )  
( -0.00247703 -4.76659e-05 0.010924 )  
( -0.000243175 -0.00169576 0.00997417 )  
( -0.00166935 0.00053756 0.00389231 )  
( 0.00053374 0.000778298 0.00806955 )  
( 0.000648709 -0.0015342 0.011519 )  
( -0.000968329 0.000688118 -9.21506e-05 )  
( -0.000791054 -0.00100326 0.0103511 )  
( -0.000694466 -0.000250745 7.01277e-05 )  
( -0.000262509 -0.0015363 0.0107257 )  
( 0.000702288 0.000967411 0.0109015 )  
( -0.00362701 0.000370893 0.00447753 )  
( -0.00126802 0.00231391 0.0106924 )  
( -0.00110856 -0.000766593 0.0107414 )  
( 0.0028777 -0.00297973 0.0111324 )  
( -0.000829105 -0.000527862 0.0114672 )  
( -0.00101765 -0.000456613 0.0122737 )  
( -4.90875e-05 -0.000257049 0.00670046 )  
( -0.000572722 0.00116163 -0.00133075 )  
( 0.000694898 -0.00142469 0.0104465 )  
( 0.000136658 0.000391688 0.00724063 )  
( 0.000218224 0.000116793 0.0117541 )  
( -0.000316655 0.000727235 0.00502524 )  
( 0.000168764 -0.00204788 0.0119306 )  
( -0.00275349 -5.29166e-05 0.0112212 )  
( 0.000339897 -0.0016556 0.0070751 )  
( -0.000190765 -0.00151957 8.21149e-05 )  
( 0.000841222 0.000651829 0.0125102 )  
( -0.00103314 -2.48333e-05 0.0122756 )  
( -0.00466502 -0.00272668 0.0103873 )  
( 0.00064088 -0.00248516 0.0112197 )  
( -0.00138283 -0.00264222 0.0092761 )  
( 0.00122257 -0.000363642 0.0147376 )  
( 0.00123767 -0.00143288 0.012612 )  
( 0.000564674 0.000347638 -5.16258e-05 )  
( 0.000587974 -0.00245788 0.0113015 )  
( -0.000134264 -0.000948429 0.0117245 )  
( 0.000631449 0.000710336 0.000585615 )  
( -0.000259871 -0.00200222 0.011458 )  
( 0.00111201 4.86018e-05 0.0108218 )  
( 0.000986486 -0.00121161 0.00932673 )  
( -0.000634287 1.896e-05 0.0128107 )  
( -0.00067595 -0.000362017 0.0122344 )  
( 0.00234651 -0.000703353 0.00624302 )  
( 0.000755613 -0.00178805 0.0101912 )  
( -0.00276588 8.89995e-05 0.000249887 )  
( -0.00197405 0.000261752 0.00149081 )  
( 0.000372077 -0.00172584 0.0108501 )  
( -0.00047489 0.000422144 0.0105082 )  
( 0.0026826 0.00239415 0.0221899 )  
( 0.000761184 -0.000734093 0.000582096 )  
( 0.00064972 -0.000571268 -0.000727829 )  
( -0.000341689 -6.37955e-05 0.0125597 )  
( -0.00105888 -0.00119736 0.0105378 )  
( 0.00167109 0.0016895 0.010531 )  
( 0.00217267 -0.000302938 -2.60929e-05 )  
( -0.000716143 -0.00131288 0.013156 )  
( 0.00125129 -0.00277699 0.00945596 )  
( 0.000382004 0.000201019 1.05601e-05 )  
( -0.000999562 0.000149825 0.013074 )  
( -0.000854295 -0.000833621 0.000218662 )  
( -0.00052819 -0.00184028 0.0111144 )  
( 6.89854e-05 -2.58334e-05 -3.58416e-05 )  
( 3.00591e-05 -7.89887e-05 -5.42033e-05 )  
( -0.00239657 -0.00096799 0.00683413 )  
( -0.00048196 -0.000703697 0.0103371 )  
( -0.00329161 -0.00197918 0.00581194 )  
( 6.32414e-05 4.34605e-05 0.00010352 )  
( -0.00178687 -0.00152185 0.0107078 )  
( 0.00246176 -0.00544576 0.00787125 )  
( 0.00124471 -0.00246691 0.00425266 )  
( -0.0024091 -0.00574718 -0.000846144 )  
( -0.000402255 0.000325527 -3.29573e-05 )  
( 0.00174554 -0.0043081 0.00807456 )  
( -0.00282658 0.00174884 0.00165182 )  
( -0.000273865 -0.00220298 0.00869491 )  
( -0.00237692 -0.00029497 0.012782 )  
( -0.00143443 -0.000676887 0.00915371 )  
( -0.000484639 0.00132821 -0.000943222 )  
( -0.000168135 -0.00187631 0.00938161 )  
( -4.52304e-05 -0.00154802 0.000733362 )  
( -0.000587009 -0.00348381 0.0105305 )  
( 0.00110633 -0.00251709 0.00782923 )  
( -0.000608469 -0.000355684 0.000242207 )  
( -0.000409445 0.000303672 0.0120351 )  
( 5.54685e-05 -3.36875e-06 -5.08357e-05 )  
( 0.00159813 -0.0018429 0.00980875 )  
( 0.000779914 -0.00305128 0.000583279 )  
( -0.00174674 -0.00058469 0.00971852 )  
( -0.000117576 2.84429e-05 4.77966e-05 )  
( 0.000253294 -0.00023664 0.000730414 )  
( 0.000203954 0.000654284 0.000180395 )  
( 0.000974542 -0.000169002 0.00925632 )  
( 0.000890705 0.000303153 0.0104021 )  
( -0.00131405 -0.000987987 -0.000598758 )  
( -1.32265e-05 -0.00316799 0.00884506 )  
( -0.00210775 0.00317912 0.0206975 )  
( 0.00392176 -0.00191438 0.0105282 )  
( 0.000128633 0.000242323 0.000437736 )  
( -0.000317107 -8.44259e-06 -0.000389133 )  
( -4.69366e-05 -6.13195e-05 -0.000102246 )  
( 3.52555e-05 0.000639111 0.0127659 )  
( 0.000729154 0.000359612 0.00557851 )  
( 0.00191229 -0.000974197 0.00131061 )  
( 0.00105842 -0.000910473 0.0101106 )  
( -0.000531036 0.000948377 0.0139026 )  
( 0.000408507 0.000200891 -0.000326662 )  
( -0.00108483 -0.000683687 0.0115298 )  
( -0.00107997 -0.000904308 -3.31988e-05 )  
( 0.000408759 -0.000277646 0.00961621 )  
( 0.000364071 -0.000944338 0.0115428 )  
( -0.000391724 0.000241963 -1.27678e-05 )  
( 4.94508e-05 -7.92566e-05 2.65155e-05 )  
( -4.68324e-05 -7.7374e-06 0.0114881 )  
( -5.01758e-05 -0.00174432 0.0105502 )  
( 0.00105584 -0.00315618 0.00901163 )  
( 0.000621829 0.000259897 0.0136409 )  
( -0.00277659 -0.00125312 0.0139813 )  
( 0.00140796 -5.60901e-06 0.00361781 )  
( -0.000119758 -0.000352248 0.0124356 )  
( 0.00294102 0.0020636 0.0127623 )  
( -0.00517693 -0.000543449 0.0180543 )  
( 0.000555084 0.00299076 0.00696605 )  
( -0.00326357 -0.00240085 0.0106381 )  
( -8.07687e-05 9.25795e-05 0.000285689 )  
( -0.00140196 -0.00450515 0.00798587 )  
( -0.00331203 0.00192249 0.0108526 )  
( -0.000120959 0.000215369 -9.53213e-05 )  
( -0.00317193 -0.00259802 0.0136552 )  
( 0.00115339 -0.0040272 0.00512745 )  
( -0.000575781 -0.00119094 0.0105912 )  
( -0.00105558 -0.00188737 0.00113117 )  
( -0.000304325 0.000644268 0.0127019 )  
( -0.000998241 0.000555684 0.014201 )  
( -0.000124636 -4.63796e-05 0.000266845 )  
( -6.21807e-05 3.71645e-05 -6.99627e-05 )  
( -0.000200353 -0.00146512 -0.000696156 )  
( -0.00026381 -5.53458e-05 -0.000112053 )  
( -0.000114158 0.000121632 -0.00013468 )  
( -0.0015121 0.00155065 -0.00170947 )  
( -0.000744544 -0.00168718 0.0120412 )  
( -0.00167702 -0.00260868 0.01008 )  
( -0.00102048 -0.000215272 0.000285788 )  
( 0.00299641 -0.00115052 0.0144302 )  
( 0.00078175 -0.00144595 0.010099 )  
( -0.00218316 -0.000430462 0.0126102 )  
( -0.00043468 0.000341896 -2.33753e-05 )  
( -0.00296812 -0.000524913 0.0128533 )  
( 0.000311199 -0.00186804 0.00755545 )  
( -0.00164682 -0.00267988 0.00581871 )  
( 0.000356198 -0.00145726 0.00944567 )  
( -0.0019293 -0.00333406 0.00863583 )  
( -0.000662697 -0.000216476 1.69511e-05 )  
( -0.00046687 -0.000369723 0.00591669 )  
( 0.00132888 0.000951609 -0.000383914 )  
( 5.10226e-05 0.000257476 0.0106769 )  
( 0.000476927 -0.000670111 0.00968382 )  
( -0.00108881 -0.000928783 0.0126302 )  
( -0.00167113 -0.00124269 0.0161113 )  
( -0.00030866 -0.00153706 0.00902984 )  
( -0.000835458 0.00116803 0.00933912 )  
( -0.00097598 0.000591987 0.0114967 )  
( -0.000261822 0.000207006 0.0133809 )  
( -0.00141681 0.000164186 0.0116859 )  
( -0.000861208 -0.000338386 -0.000695934 )  
( -0.00159519 -0.000501031 0.0115161 )  
( 8.00229e-05 -0.000102683 8.89686e-05 )  
( -7.06898e-05 0.000245499 -6.41561e-05 )  
( -0.000515123 0.000560126 -0.000271759 )  
( -0.000814262 0.000210812 0.0122149 )  
( -0.000104963 -0.000370243 -0.000268304 )  
( -0.00102377 -0.00152877 0.00888924 )  
( 0.0002081 6.60454e-05 0.000385672 )  
( 0.000457433 -0.000784863 0.0120452 )  
( 0.000946412 -0.00249366 0.00994445 )  
( -0.00217624 0.000501812 -0.000952497 )  
( -0.000754475 -0.000269033 0.013093 )  
( -0.00126508 -0.00132262 0.0146035 )  
( 0.00158911 0.00271805 0.00980395 )  
( -0.000134403 0.000221949 0.0107083 )  
( -0.00164048 -0.000791072 -0.00141281 )  
( 0.0024845 -0.000678941 0.0106394 )  
( 0.00013533 2.84843e-05 -7.76172e-05 )  
( -0.00121066 -0.00157062 0.0104737 )  
( 7.57192e-06 -0.0006594 0.000322396 )  
( -0.00101363 -0.000718219 0.0119326 )  
( -0.000447047 -0.00332968 0.00971326 )  
( -0.00316953 -0.00304569 0.00468149 )  
( -0.000927384 -0.00020602 0.0102221 )  
( 0.000286663 -0.0042865 0.0122753 )  
( -0.000205397 -3.57548e-05 -0.000195584 )  
( 0.00178811 -0.00248339 0.0113244 )  
( -0.000172553 0.000342021 5.19185e-05 )  
( -0.000145202 -0.0011417 0.0114233 )  
( -0.000138271 0.000209718 0.000116369 )  
( -0.000481793 -0.000516367 0.0115024 )  
( -3.05512e-05 -5.05878e-05 3.0641e-05 )  
( -0.000346749 -1.44338e-05 0.000118976 )  
( -0.000797631 -0.000370503 0.00975269 )  
( -0.000454878 0.000393709 0.00387919 )  
( -0.00206597 -0.000663785 0.0123025 )  
( -0.000153212 -0.000271253 -4.68192e-05 )  
( -0.000500623 -0.000259467 9.24466e-05 )  
( -0.00026507 0.000757831 8.33912e-05 )  
( 0.00264305 -0.00139283 0.0118906 )  
( -0.00062933 0.000303374 0.000263452 )  
( 0.000264922 -0.000283286 0.000425348 )  
( 0.00158581 -0.00357894 0.00873291 )  
( -0.00238088 -0.00218471 0.010845 )  
( -5.27849e-05 -5.43843e-05 -6.79989e-06 )  
( -0.000429306 -0.000999287 0.0108555 )  
( 0.00116849 -0.00302223 0.0091206 )  
( -0.00175295 -0.00166291 0.00954959 )  
( -0.00180586 -0.000874552 0.0109873 )  
( -0.00273947 0.0012025 0.0150413 )  
( -0.000231123 -0.00136212 0.0107229 )  
( -0.000588459 -9.48203e-05 -3.62368e-05 )  
( 0.00275476 -0.00162066 -0.00289343 )  
( 0.00480897 -0.000582954 0.00966704 )  
( -0.000851768 0.000751243 0.00985286 )  
( 0.000198675 0.00034571 0.00544531 )  
( 0.00109829 0.000389507 0.000397959 )  
( 0.00114664 0.00399924 0.0102363 )  
( -0.000236857 -0.00236045 0.0117119 )  
( 0.00279101 0.000132382 0.0114137 )  
( -0.000874523 0.00131503 0.0116956 )  
( 2.64537e-06 -0.000142294 0.000139107 )  
( 1.79571e-05 -1.66046e-06 9.12106e-06 )  
( 2.52145e-05 -0.00190828 0.00961833 )  
( 0.0011849 -0.00237245 0.0105067 )  
( 0.000113821 -4.92317e-06 -3.30893e-06 )  
( -0.00310168 -0.000426722 0.0121971 )  
( -0.000427624 -0.000983589 0.00975062 )  
( -6.35231e-05 0.00110176 0.0139265 )  
( -0.00037497 0.00201918 0.0118819 )  
( -0.000211295 0.000792686 0.000280926 )  
( -0.00111844 0.000451526 -9.74538e-05 )  
( -0.00146645 0.00148874 0.00333164 )  
( 0.00138058 0.000113572 0.0106934 )  
( -0.000597047 -0.00192245 0.00820908 )  
( -0.000206665 0.00013978 4.68351e-05 )  
( -0.000752283 3.95216e-05 0.000201718 )  
( 0.000282323 -0.000836914 0.013525 )  
( -0.000698581 -0.00326044 0.00789047 )  
( -0.00322959 -0.0014219 0.0135542 )  
( -0.000737937 -0.00330049 0.0103772 )  
( -0.000441837 -0.00167204 0.0102044 )  
( -5.14487e-05 0.00254621 -0.000658116 )  
( -0.000627384 -0.000515719 0.0146285 )  
( -0.00272028 0.00350507 0.019687 )  
( -0.00342401 -0.00778077 0.0128642 )  
( 0.000343323 -0.00139197 0.00927446 )  
( 0.000673853 -0.00126273 0.0126159 )  
( 0.000120789 -0.00107707 -5.96124e-05 )  
( -0.00146493 -0.000824531 0.00955152 )  
( -0.000612795 0.000294582 0.0132508 )  
( -0.0014482 -0.00434116 0.0109905 )  
( 0.0013008 -0.000817008 0.0107376 )  
( -0.000236897 -0.000391467 -4.99516e-05 )  
( -0.00179763 0.000745047 0.0159702 )  
( -0.000915476 0.000548172 0.0099847 )  
( -0.000372622 0.00154649 0.0131901 )  
( 0.000604369 -0.00197498 0.00998275 )  
( -0.000164939 -0.00011844 0.000129289 )  
( 0.00239071 -0.00284291 0.0114771 )  
( -0.00167651 -0.00278577 0.00945738 )  
( 0.000106386 0.000292525 0.0125655 )  
( -0.000373246 8.80288e-05 -0.000215917 )  
( -0.00333836 -0.000245084 -4.77929e-08 )  
( -0.00059135 0.000681534 -0.000525731 )  
( 0.000634858 -0.000953328 0.00127799 )  
( -0.000110488 -0.00187948 0.0113522 )  
( -0.000451819 -0.000205798 -9.78278e-06 )  
( -0.00123028 -0.00480729 0.0119453 )  
( -0.00274907 -0.000820701 0.00243856 )  
( -0.00202398 0.00158096 -0.00145354 )  
( 0.000680321 -0.000859024 0.00325646 )  
( -0.000561051 0.000511194 0.0131745 )  
( -0.000550756 -5.68889e-05 -9.90673e-05 )  
( 0.000360504 -0.00200343 0.0112129 )  
( 0.000180453 -0.00166562 0.0109367 )  
( 0.00132315 5.13213e-05 0.0101297 )  
( 1.27985e-05 -0.00216503 0.00972382 )  
( -0.00045309 3.44753e-06 6.45526e-06 )  
( 0.00135682 -0.00307107 0.00711457 )  
( 5.97641e-05 -0.000471716 0.000147237 )  
( 0.000532582 -0.000623104 0.00978034 )  
( 0.00223351 0.00169813 0.0169842 )  
( -0.000731152 0.00103385 -0.000566511 )  
( -0.000759668 -0.00166816 0.0105687 )  
( 0.00306337 0.000906164 0.0102213 )  
( -0.000866627 -0.000352125 0.00965673 )  
( 0.000362782 -0.000409041 0.013707 )  
( -0.00104077 0.00137712 -0.000945997 )  
( 0.00132515 0.000236828 0.00394871 )  
( -0.000152386 -4.62664e-06 5.67494e-05 )  
( -0.000185979 -0.00128896 0.0114339 )  
( 0.00080892 -0.000753538 0.00962305 )  
( 0.00308244 0.000368523 0.0134908 )  
( 0.00233107 -0.000938877 0.015003 )  
( -5.60822e-05 0.000506683 -0.000104647 )  
( -3.96566e-05 1.27555e-05 -3.78955e-05 )  
( -0.000212028 -0.000517492 0.0111953 )  
( -0.000200768 0.00016855 0.000419281 )  
( -0.000772317 -1.58119e-05 0.000162629 )  
( -0.000442112 -0.000829593 0.0116511 )  
( 0.000582949 0.000449761 0.0133581 )  
( 0.000114924 0.00173035 -0.000266003 )  
( 0.00014715 0.000298931 7.59618e-05 )  
( -0.00180225 -0.00282423 0.0101395 )  
( -0.00127053 0.00023143 0.0130035 )  
( -0.00148551 -0.000250222 0.0128458 )  
( -0.00116854 -0.000849446 0.011324 )  
( 0.00103184 -0.00131668 0.00150933 )  
( -0.00200011 -0.000173049 0.0113278 )  
( -0.00226128 0.000968515 -0.00180609 )  
( 0.00330625 -0.00312338 0.00846808 )  
( 1.05178e-05 -1.28531e-05 1.14719e-05 )  
( 0.00253933 -0.000714806 0.0039451 )  
( 0.000650942 0.000117953 0.00517953 )  
( 0.00074691 -0.00267509 0.0123306 )  
( 0.00137033 -0.00350039 0.00909049 )  
( -0.0023138 -0.00217467 0.00733327 )  
( 3.5985e-05 -0.000145781 -0.000635003 )  
( -0.00230031 -0.0025435 0.011186 )  
( 0.000110672 9.09265e-05 -4.00505e-05 )  
( -0.0014804 -0.000175846 0.0126231 )  
( -0.000222739 -0.000277427 0.000394154 )  
( -1.30861e-05 -0.000264104 5.02708e-05 )  
( -0.000311038 -0.00175279 0.012921 )  
( -0.00018451 -0.00158873 0.000861851 )  
( -0.000194418 0.000110435 -3.7041e-06 )  
( -0.000403083 0.00058334 8.2249e-05 )  
( -0.000652485 -0.00248675 0.0108639 )  
( -0.0014429 -0.0018777 0.00899041 )  
( -0.00260247 0.00211027 0.0134821 )  
( -0.00109929 -0.00173035 0.0137861 )  
( -0.000382291 -0.00102193 0.0119485 )  
( 0.00309521 -0.0025615 0.00951281 )  
( -0.00267314 -0.000849974 0.0123749 )  
( -0.00073879 -0.000290521 0.012688 )  
( -0.000689837 -0.000180689 0.0133546 )  
( 0.0011758 0.0023728 0.00910704 )  
( -0.000203418 0.00124092 0.000357436 )  
( 6.19518e-05 4.02091e-05 -8.50574e-05 )  
( 0.000851838 -0.000747666 0.00990519 )  
( -0.00143421 -0.00151763 0.0102816 )  
( 0.000232801 -0.00025067 0.0150264 )  
( 0.000432196 7.27647e-05 0.0112564 )  
( 0.000695577 0.000748143 0.00867509 )  
( 0.00137422 0.000909451 0.0112588 )  
( -0.00102205 -0.000202488 0.000791147 )  
( -0.00223311 0.000654662 0.0114216 )  
( -6.262e-05 -5.25381e-05 -4.75517e-05 )  
( 4.73031e-05 0.000188389 7.61966e-05 )  
( -0.00319273 -0.000584844 7.51433e-06 )  
( 0.000238197 -0.000136276 2.41455e-05 )  
( -0.0013826 0.00204912 0.000411106 )  
( -0.000762739 -0.00133727 0.0114449 )  
( -0.00029496 0.000184706 -0.000108367 )  
( 0.000856329 -0.00035761 0.0115946 )  
( -0.00110944 -0.0011937 0.00952802 )  
( 0.0017723 -0.00334003 0.0113549 )  
( -0.000594977 -0.00101504 0.00446167 )  
( 0.00024944 0.000245163 -1.95872e-05 )  
( -1.13371e-05 -0.000160308 -0.000135295 )  
( -0.00141796 -0.00103284 0.0105696 )  
( -0.000835392 0.000450619 0.00989954 )  
( -2.14847e-05 -1.05769e-05 -0.00059725 )  
( -0.00311834 -0.000237704 0.00837144 )  
( 0.00124094 6.29303e-05 0.0112385 )  
( 7.05612e-05 -0.000244886 5.36884e-05 )  
( 0.000375899 0.000103841 7.21649e-05 )  
( -0.00107389 -0.00198317 0.00826562 )  
( 0.000209446 0.00376977 0.0113167 )  
( -0.000574774 -0.00401437 0.000153277 )  
( -0.00381152 -0.00165929 0.0113082 )  
( -9.77949e-05 0.000101349 -2.3811e-05 )  
( -0.000102976 -0.000122723 0.0139133 )  
( 0.000390009 0.00120767 0.00875283 )  
( 2.17112e-05 0.000226899 0.000132498 )  
( 0.000687781 0.00145138 0.00473467 )  
( 0.000198023 -0.000194103 0.00475566 )  
( -0.000844564 0.000227366 0.0149263 )  
( 0.000609878 -0.000485177 0.00543326 )  
( -0.000665987 -0.00160662 0.0103617 )  
( 0.000527454 -0.000481985 0.0116799 )  
( 0.000120197 -0.000115562 4.7643e-05 )  
( -0.000525192 3.19402e-05 0.0125861 )  
( -0.00168599 0.00240908 -0.00213535 )  
( 0.000891231 -3.33418e-05 0.00919107 )  
( -0.00219184 -0.0016741 0.0103955 )  
( 0.000154572 0.000982442 3.59069e-05 )  
( 0.000334927 8.96432e-05 -4.41524e-05 )  
( 0.0015549 -0.00136898 0.0118555 )  
( 0.000102282 -3.39125e-05 -0.000223581 )  
( -0.000903722 -0.00291173 0.0116017 )  
( 0.00220154 -0.00337939 0.0132759 )  
( 0.00125003 0.000824842 0.00286339 )  
( -0.00150435 0.000465833 0.00801245 )  
( -0.000374409 0.000387641 0.0117638 )  
( 0.000209255 0.00133158 -0.000763506 )  
( -0.000844862 -0.00047853 0.00958594 )  
( 0.000735542 -0.000488078 0.00251122 )  
( 0.000159126 -9.53012e-05 -0.000870197 )  
( -0.0023583 0.000898241 0.0136906 )  
( -0.000215365 -0.000104228 1.14239e-05 )  
( 0.000122507 -0.000213699 -0.000272192 )  
( -0.00362252 -0.000726842 0.010737 )  
( 0.00345157 -0.000524132 0.0123268 )  
( -0.000341523 0.000214516 -7.91573e-05 )  
( -6.31049e-05 -0.00121547 0.0116783 )  
( -0.000360483 0.000213516 5.90049e-05 )  
( -0.00125348 -0.00234198 0.0111282 )  
( 0.00124907 0.000429897 0.0112525 )  
( 0.00273976 -0.00229364 0.0130089 )  
( 0.00118563 -0.00175987 0.0101414 )  
( -3.69829e-05 0.000508785 -0.000134463 )  
( -0.00143557 -0.00332269 0.0132854 )  
( -0.00088492 0.00213218 -0.000411871 )  
( -0.000823606 7.74831e-05 0.0129169 )  
( 7.31535e-05 -0.00010751 6.00687e-05 )  
( 0.00129612 -0.00260065 0.0106622 )  
( -0.000855384 -0.000291359 0.00752192 )  
( -0.00104347 -0.000912556 0.0104507 )  
( -0.000150006 -0.00175551 0.0116939 )  
( 7.04807e-05 0.000135715 -0.000168026 )  
( -0.00126189 0.000846697 0.0124241 )  
( 0.00116074 -0.0005356 0.00537626 )  
( 0.000546917 -0.00547888 0.00677418 )  
( -0.0024787 -0.00169207 0.0116173 )  
( 0.000118786 0.00022764 -1.52351e-05 )  
( 0.00179572 6.33851e-06 0.0135104 )  
( 0.00151452 -0.0010398 0.00923386 )  
( -0.00376338 -0.000120382 0.00796516 )  
( -0.000353709 -0.0014647 0.00968992 )  
( -0.00166042 0.00134527 0.00976732 )  
( 0.00122297 -0.00478945 0.00931307 )  
( -0.000664756 0.0010966 0.0109701 )  
( -0.000395404 -0.00012238 -4.48355e-06 )  
( -0.00117284 -0.000621143 0.0121455 )  
( 0.00059306 0.000795298 0.0101494 )  
( 0.00079587 0.000909164 -1.24922e-05 )  
( -0.000262704 -0.00339391 0.0103258 )  
( 0.000786295 0.000238918 -4.3116e-05 )  
( -0.00131642 -0.000933942 0.00183238 )  
( 0.000629818 0.000495755 0.00918686 )  
( -0.000566064 -0.000515118 0.0102756 )  
( 0.000515434 -0.000510857 0.00941918 )  
( 0.00101411 7.3043e-06 0.0116231 )  
( -0.00010076 -0.00215832 0.0120371 )  
( 0.00034869 0.002086 0.000376223 )  
( 0.00160667 -0.000538236 0.0107296 )  
( 0.00164622 -0.00251704 -0.00112808 )  
( -0.000849121 0.00389958 0.00112445 )  
( 0.000176721 -0.00123622 0.00971466 )  
( 0.00223606 -0.000293502 0.00169251 )  
( -0.00109714 9.41788e-05 0.011413 )  
( -0.000138747 0.000286353 0.0134335 )  
( 0.00177937 -0.0040547 0.0112977 )  
( 0.000225219 -0.000506964 0.0127302 )  
( -2.13535e-05 -5.98636e-05 0.0126904 )  
( -0.00284138 8.19914e-05 0.00206298 )  
( 0.000692125 -0.001539 0.0103295 )  
( 0.00114771 -0.00118676 0.0111121 )  
( -0.000522713 0.00125548 0.0136362 )  
( 0.000732884 -0.00871304 0.0175621 )  
( 0.000789164 -0.00162215 0.00670429 )  
( -0.000473403 -0.00106621 0.000705194 )  
( -0.000149781 -0.000188657 8.74815e-05 )  
( 0.000482054 -0.0015685 0.0112363 )  
( 0.000160828 -0.000602824 -0.000308314 )  
( -0.000418771 0.000438606 -0.000352207 )  
( 0.00284148 -0.000979677 0.0110705 )  
( -0.000211595 0.000171117 0.00807104 )  
( -0.00013314 0.00106641 -0.000300418 )  
( -0.0027176 -0.00741591 0.0133308 )  
( -0.000292971 0.000275108 0.000352347 )  
( 2.80693e-05 0.000245798 -0.00717189 )  
( -0.000278199 -0.00214891 0.0116927 )  
( -0.000453039 0.000144608 -0.000569969 )  
( -0.000167441 0.000351287 0.0112276 )  
( 0.00124625 -0.000808539 0.0106885 )  
( -0.000907312 -0.00330284 0.00798155 )  
( -0.00237626 -0.00170122 0.0123031 )  
( 0.000789339 0.000855107 0.0153857 )  
( -0.0011687 0.000757791 -0.00082866 )  
( -2.05263e-05 0.00041621 0.000315888 )  
( -0.000355143 -4.36973e-05 0.0121793 )  
( 0.000101622 0.000296053 0.0105988 )  
( -0.000484936 0.000922468 0.000150142 )  
( 0.000516577 -0.00247295 0.00996936 )  
( 0.000174446 -0.000266479 0.000226475 )  
( -0.00175421 -0.00117615 0.0108997 )  
( 0.0013957 -0.0012413 0.0116182 )  
( -0.000212446 0.000417006 0.000111868 )  
( 0.00148707 -0.00118363 0.0104465 )  
( -0.0010892 -0.00231171 0.0116072 )  
( 0.000673203 -0.000712847 0.0116742 )  
( -0.000115248 -0.000817539 0.00981429 )  
( -0.000555433 0.000837918 0.010421 )  
( -0.000637805 0.000405121 -0.000294664 )  
( -0.000998163 -0.00106719 -0.000342336 )  
( 4.42341e-05 -3.46999e-05 -8.61383e-06 )  
( 0.000462579 -0.000849673 0.00106765 )  
( -0.000536908 -0.00174871 0.0114649 )  
( -0.000680625 -6.83931e-05 0.0130307 )  
( 4.65368e-06 5.34493e-06 -8.88152e-06 )  
( -0.000827133 -0.000819418 0.0115821 )  
( -0.000213376 0.000195136 -9.03022e-05 )  
( 0.00200798 -0.00133129 0.0111144 )  
( 0.00266393 -0.0022973 0.0124319 )  
( -0.000520924 7.60679e-05 -2.68243e-05 )  
( 0.000297775 0.000712086 0.000454926 )  
( -0.000175474 0.00126706 0.007729 )  
( -0.0012964 -0.000327627 0.00374603 )  
( -0.000280358 -0.0012387 0.00952124 )  
( 0.0020816 0.000998837 0.0155242 )  
( -0.00153056 -0.000343126 0.0118286 )  
( -0.000120469 -0.000199048 0.0115394 )  
( 0.00207393 -0.00140349 0.00512909 )  
( -0.0012185 0.000238336 0.0066629 )  
( -0.000340056 -0.00144436 0.0085617 )  
( -0.000578607 0.00164727 0.0106851 )  
( 0.000525136 -0.00382368 0.00654989 )  
( -0.0024181 -0.000772866 0.00984805 )  
( -0.00118979 -0.000692462 0.00848567 )  
( 4.5156e-05 2.44168e-05 -9.17132e-05 )  
( -0.00108046 -0.00204916 0.0108759 )  
( 0.00140789 -0.000273082 -0.00046316 )  
( -0.00027797 -6.35144e-05 -2.87999e-05 )  
( 0.00062657 -0.00177511 0.00919242 )  
( -0.00143498 0.000491424 0.0033334 )  
( -0.00253029 0.00215539 0.00917959 )  
( 0.000658604 -0.00177324 0.0117377 )  
( 0.000131376 -0.000479162 0.00909948 )  
( -0.000554126 0.000113536 0.0154897 )  
( 0.00043093 -0.00318267 0.00200539 )  
( 0.000250892 0.000114568 0.00859958 )  
( 0.000780982 -0.000612752 -0.000294442 )  
( -0.000629351 -0.0019511 0.0114783 )  
( -0.000373102 0.000867708 0.0159249 )  
( -0.00058305 -0.000674245 0.0097418 )  
( -0.00222142 -0.00232991 0.0116312 )  
( 0.000434639 7.1916e-06 0.0110335 )  
( -0.000830371 -3.01413e-05 0.0117685 )  
( -0.000624749 -0.000609241 0.0130289 )  
( -0.000934216 0.00111225 0.00793553 )  
( 9.39129e-05 0.000282984 -0.000106567 )  
( 1.4356e-05 0.000130189 -9.07852e-05 )  
( -0.00153498 0.000195455 0.00173764 )  
( -1.83915e-05 8.47091e-05 0.000101522 )  
( -0.00173716 -0.000607829 0.0084005 )  
( -0.00266497 -0.000991719 0.00988946 )  
( 9.02824e-05 -0.000839973 -0.00115153 )  
( -0.000547188 0.000807434 0.0139774 )  
( -5.15711e-05 2.77452e-05 -9.69383e-06 )  
( 0.000175933 0.000758298 0.000136176 )  
( -0.000188461 -0.00152108 0.0102784 )  
( 0.00165182 -0.000729544 0.00617465 )  
( -0.00369563 -0.00165299 0.0140136 )  
( -0.00208598 0.000639479 0.0143789 )  
( -0.00260748 0.000508817 0.0101473 )  
( 0.000126341 0.00017467 3.27374e-05 )  
( -0.000701472 -5.35353e-05 1.85935e-05 )  
( -0.00144472 -0.00225951 0.00911669 )  
( 0.000163504 2.61796e-05 -0.00048819 )  
( -7.98029e-05 0.000802877 -0.000101486 )  
( -0.00201363 -0.00278532 0.0088277 )  
( 0.000813416 -0.00469476 0.00993732 )  
( -0.000621048 0.000994088 0.0130121 )  
( 0.000117459 0.000119437 -4.56298e-06 )  
( 0.000161613 -8.02289e-05 -7.77554e-05 )  
( -0.00189222 0.000216387 0.00916187 )  
( 0.000751751 0.000942288 -0.00104643 )  
( 0.00295307 -0.000774126 0.0148984 )  
( -0.000146003 -0.000564622 0.000992504 )  
( -0.000441035 -0.000172545 -3.88416e-05 )  
( 0.000190377 -2.45266e-06 0.000452374 )  
( 0.00269272 -0.00067806 0.00926976 )  
( -5.19481e-05 -0.00044253 -0.000730394 )  
( 0.00152724 -0.00102331 0.00576439 )  
( -0.000170769 0.000511221 0.000235229 )  
( 0.000173825 0.000228091 1.97722e-05 )  
( -0.00123248 -0.000386602 0.0108311 )  
( -0.000898399 0.00023874 0.0112163 )  
( -0.00138118 0.00176744 0.000638314 )  
( -0.00166802 0.000657038 0.00965168 )  
( -0.000542251 0.00209276 0.00119234 )  
( 0.00115968 -0.00130051 0.00790437 )  
( 0.000616057 -0.000184327 0.0102761 )  
( 0.000446317 -0.00458595 0.0146582 )  
( 0.00161141 -0.0010295 0.0123884 )  
( -0.000415578 0.000111581 -1.18667e-05 )  
( -1.05014e-05 -6.17447e-05 9.80442e-05 )  
( -6.36052e-05 0.00236758 0.011453 )  
( 0.00182906 -0.000764941 0.0107353 )  
( -0.00410828 -0.0018741 0.0159437 )  
( 0.00315425 -0.00177947 0.00460631 )  
( -0.00199667 -0.000121613 0.00882898 )  
( 0.000387242 0.000718144 -0.000353855 )  
( -5.51043e-05 -6.63769e-05 1.97913e-05 )  
( -0.000974733 -0.00225695 0.00997256 )  
( 0.000498185 0.000139943 -0.000109407 )  
( 0.00299826 -0.000864716 0.00703131 )  
( 0.000310158 -0.000465856 0.0110122 )  
( -0.00183055 -0.000495088 0.0125559 )  
( -0.00171363 0.0009503 0.00886286 )  
( -0.000110052 0.000713985 -0.000445244 )  
( -0.000448136 -0.00164158 0.0111352 )  
( -0.000472924 0.000248407 2.39238e-05 )  
( 0.000630637 -0.000490195 0.00378877 )  
( -0.000646237 0.000928792 -6.83059e-05 )  
( 0.000991952 -0.000423454 0.00937808 )  
( -0.000756218 -0.00146789 0.00981852 )  
( -3.77438e-05 0.000126839 3.19412e-06 )  
( 0.0005421 0.00224793 -0.000517021 )  
( -0.000973429 0.00180232 -0.000429349 )  
( 0.00223648 0.00172942 0.012153 )  
( -0.000404094 -0.00208249 0.00803246 )  
( 8.22024e-05 -0.00151571 0.0112112 )  
( 0.000132942 -0.00271475 0.00991424 )  
( -0.000270607 0.000849105 -0.000535841 )  
( 0.00195073 -0.000595915 0.0114656 )  
( -0.00206765 -0.00150128 0.00796567 )  
( 0.000415649 0.000215444 0.000270398 )  
( -0.000703243 0.000944695 -0.00038283 )  
( -0.00106961 -0.000725283 0.00752482 )  
( 0.000327828 -1.48295e-05 9.44738e-05 )  
( -0.000583289 0.000827263 -0.000591101 )  
( 0.000142278 0.000214913 -2.71577e-06 )  
( -0.0010647 0.00277611 0.011768 )  
( -7.61599e-05 -0.000120491 -0.000559772 )  
( -0.000131283 -0.000428271 0.0115907 )  
( -0.000110037 -4.53135e-05 -2.18801e-05 )  
( -0.0016655 -0.00272802 0.00577611 )  
( -0.000112176 0.000252184 0.000237986 )  
( -0.000407938 -0.000188516 0.0111737 )  
( -3.56779e-05 0.000187464 0.00942329 )  
( -0.000365615 0.000150646 0.000320507 )  
( -0.00150339 0.00160076 -2.25087e-07 )  
( -0.000101193 0.000175096 0.00283602 )  
( -0.000224994 -3.50621e-05 -0.000181896 )  
( -0.00154508 -0.00128105 0.0133141 )  
( -0.00202145 -0.00268372 0.0104285 )  
( 0.000943926 -0.000494096 8.5888e-05 )  
( 0.000100452 -4.62469e-05 -3.84403e-06 )  
( -0.00082696 0.00027933 0.0126727 )  
( 0.000718555 -2.50958e-05 0.00859636 )  
( 0.00141175 -0.000116653 0.0124144 )  
( -0.000123201 -0.000911402 0.0112013 )  
( -0.0030184 -3.61571e-05 0.0115889 )  
( 0.000136504 0.000248292 5.54652e-05 )  
( -7.69983e-05 -0.00334326 0.00981511 )  
( 8.23806e-05 0.000161683 -5.7031e-05 )  
( 0.000884362 0.00150357 0.00263428 )  
( -0.00325033 0.000348899 0.012736 )  
( -0.00200875 -0.001799 0.0119812 )  
( -0.000907664 -0.00193789 0.0079117 )  
( -0.00115143 -4.23043e-05 0.0130582 )  