FoamFile
{version 2.0; format ascii;class Cloud<passiveParticle>; location 0;object  positions;}
2469
(
( 0.00165464 0.00581441 0.00548401 ) 0 
( 0.000722922 0.00249342 0.00553941 ) 0 
( 0.0112277 0.00428278 0.0054218 ) 0 
( 0.00400132 0.00515619 0.00547705 ) 0 
( 0.00602297 0.00641592 0.000499888 ) 0 
( 0.00417553 0.00482702 0.00688727 ) 0 
( 0.00841235 0.00316393 0.0041376 ) 0 
( 0.00594352 0.0090777 0.00573326 ) 0 
( 0.00624697 0.0037803 0.003913 ) 0 
( 0.00463427 0.0010225 0.00872213 ) 0 
( 0.00777249 0.00477216 0.00383165 ) 0 
( 0.00488356 0.0115003 0.00116143 ) 0 
( 0.00854078 0.00275449 0.000499573 ) 0 
( 0.0084784 0.00399873 0.00628915 ) 0 
( 0.00460338 0.0108319 0.00296996 ) 0 
( 0.000842653 0.00048916 0.00618625 ) 0 
( 0.00166793 0.00566889 0.00223803 ) 0 
( 0.00428047 0.000145367 0.00839788 ) 0 
( 0.00371213 0.000181742 0.00757596 ) 0 
( 0.00786994 0.00922865 0.000499678 ) 0 
( 0.00493037 0.00550493 0.00560982 ) 0 
( 0.00922623 0.00641166 0.00336482 ) 0 
( 0.0114851 0.00500053 0.00325491 ) 0 
( 0.000259447 0.00400309 0.00870144 ) 0 
( 0.00339233 0.00439757 0.00570811 ) 0 
( 0.00351278 0.00602425 0.00556536 ) 0 
( 0.00315482 0.0119435 0.00128836 ) 0 
( 0.0120086 0.000503542 0.00288303 ) 0 
( 0.00459281 0.00322314 0.00721487 ) 0 
( 0.00230876 0.0023801 0.00478587 ) 0 
( 0.00713098 0.00577328 0.000499657 ) 0 
( 0.0012453 0.0103962 0.000499773 ) 0 
( 0.00235158 0.00165649 0.00409712 ) 0 
( 0.00649405 0.00954832 0.00465526 ) 0 
( 0.00843022 0.0103521 0.0051852 ) 0 
( 0.0102591 0.00423654 0.0050181 ) 0 
( 0.00456694 0.0112083 0.00472606 ) 0 
( 0.00937041 0.00547468 0.00415925 ) 0 
( 0.0132493 0.0016302 0.00279731 ) 0 
( 0.00424214 0.00566869 0.00194726 ) 0 
( 0.0104946 0.00673709 0.0031959 ) 0 
( 0.0133372 0.000585153 0.00295511 ) 0 
( 0.00688296 0.0104445 0.00602674 ) 0 
( 0.00784664 0.0100883 0.00298225 ) 0 
( 0.00478111 0.0117902 0.00551009 ) 0 
( 0.0113875 0.00405449 0.00294418 ) 0 
( 0.00852491 0.000423421 0.00676545 ) 0 
( 0.00845752 0.00574366 0.00540386 ) 0 
( 0.00172481 0.00624555 0.0045563 ) 0 
( 0.00846373 0.00412042 0.00733922 ) 0 
( 0.0133448 0.000226896 0.00390955 ) 0 
( 0.00561004 0.00627183 0.00157074 ) 0 
( 0.000409761 0.00576131 0.00378089 ) 0 
( 0.0121732 0.00189746 0.00628917 ) 0 
( 0.011296 0.00433671 0.000499825 ) 0 
( 0.00563926 0.00223672 0.00769691 ) 0 
( 0.0015547 0.00105172 0.00416124 ) 0 
( 0.000872405 0.00635951 0.00192882 ) 0 
( 0.000819744 0.00720354 0.00778536 ) 0 
( 0.00259538 0.00366286 0.00145801 ) 0 
( 0.00137425 0.00521503 0.00686226 ) 0 
( 0.0108199 0.00240768 0.00199479 ) 0 
( 0.00399464 0.00602369 0.00361464 ) 0 
( 0.00218451 0.0102271 0.00711335 ) 0 
( 0.0103707 0.00395749 0.000499782 ) 0 
( 0.00884095 0.00381074 0.00537638 ) 0 
( 0.00345253 0.00422324 0.00137135 ) 0 
( 0.00254392 0.00173336 0.000499713 ) 0 
( 0.0054494 0.00752785 0.00659504 ) 0 
( 0.00684762 0.00954556 0.00559049 ) 0 
( 0.00423116 0.00903403 0.00550586 ) 0 
( 0.011174 0.00242714 0.000499772 ) 0 
( 0.00294845 0.00378678 0.00486976 ) 0 
( 0.0110199 0.00142774 0.00335995 ) 0 
( 0.00680899 0.00462597 0.000499625 ) 0 
( 0.0112287 0.0072211 0.00698672 ) 0 
( 0.00361805 0.00345123 0.00420741 ) 0 
( 0.00547856 0.00346887 0.00125915 ) 0 
( 0.000843445 0.00655775 0.00420196 ) 0 
( 0.00717445 0.00532997 0.00441945 ) 0 
( 0.00240446 0.0014237 0.00733108 ) 0 
( 0.0076127 0.00476325 0.00107824 ) 0 
( 0.0101494 0.00273357 0.00660317 ) 0 
( 0.00492888 0.0114342 0.00215807 ) 0 
( 0.00693458 0.00651432 0.00522845 ) 0 
( 0.00973701 0.00260122 0.00570199 ) 0 
( 0.00406981 0.00261991 0.00661281 ) 0 
( 0.00951043 4.79911e-06 0.00364876 ) 0 
( 0.00594551 0.0019003 0.00585612 ) 0 
( 0.00371464 0.00327942 0.00157141 ) 0 
( 0.0111167 0.00334547 0.0021738 ) 0 
( 0.00385273 0.00428271 0.00331889 ) 0 
( 0.00295769 0.00976524 0.00200892 ) 0 
( 0.00912759 0.00186802 0.00738968 ) 0 
( 0.00622386 0.00295156 0.0033539 ) 0 
( 0.00017995 0.00818115 0.00730131 ) 0 
( 0.000445366 0.0133429 0.0013666 ) 0 
( 0.0133153 0.000965466 0.00193068 ) 0 
( 0.000310858 0.00579994 0.00536789 ) 0 
( 0.000590232 0.00357739 0.00785943 ) 0 
( 0.00611151 0.0097189 0.00361461 ) 0 
( 0.00356144 0.00128822 0.00859063 ) 0 
( 0.000719133 0.00398798 0.000499711 ) 0 
( 0.000601291 0.00117849 0.00443515 ) 0 
( 0.00391988 0.00776531 0.00328289 ) 0 
( 0.00246273 0.00926368 0.00129312 ) 0 
( 0.0133152 0.000960283 0.00470239 ) 0 
( 0.00184912 0.0108949 0.00471259 ) 0 
( 0.000452402 0.00662821 0.0032844 ) 0 
( 0.00140865 0.00290627 0.00494044 ) 0 
( 0.00436932 0.00658419 0.00735481 ) 0 
( 0.0111505 0.000350896 0.00605622 ) 0 
( 0.000927138 0.00410585 0.00350336 ) 0 
( 0.0104877 0.0068119 0.00548619 ) 0 
( 0.00313927 0.00225694 0.00110887 ) 0 
( 0.00503489 0.00394408 0.000499663 ) 0 
( 0.00481298 0.00324113 0.00196973 ) 0 
( 0.00752191 0.00485272 0.00602065 ) 0 
( 0.0014673 0.00560639 0.000499659 ) 0 
( 0.00687622 0.00311146 0.00745994 ) 0 
( 0.0100755 0.00468106 0.00137181 ) 0 
( 0.009877 0.0063356 0.00412037 ) 0 
( 0.0100637 0.00447256 0.00406641 ) 0 
( 0.00296466 0.0101991 0.00440661 ) 0 
( 0.00917586 0.000393625 0.00752513 ) 0 
( 0.000525782 0.0101509 0.00740594 ) 0 
( 0.00833097 0.00853828 0.00204205 ) 0 
( 0.00224895 0.00519801 0.00337331 ) 0 
( 0.0109892 0.00586534 0.0031781 ) 0 
( 0.00888302 0.00470824 0.00285339 ) 0 
( 0.00663396 0.00215831 0.00763859 ) 0 
( 0.00562955 0.00983973 0.000499643 ) 0 
( 0.00475879 0.00223087 0.00722358 ) 0 
( 0.00920763 0.00544687 0.00599476 ) 0 
( 0.00180899 0.0125261 0.00296382 ) 0 
( 0.00449523 0.010587 0.00394611 ) 0 
( 0.00172049 0.00511849 0.00140493 ) 0 
( 0.0014498 0.0035054 0.00410855 ) 0 
( 0.00857036 0.00531981 0.00358006 ) 0 
( 0.00494809 0.0073937 0.00744937 ) 0 
( 0.00439556 0.00687844 0.00556428 ) 0 
( 0.00085314 0.00818013 0.00262309 ) 0 
( 0.00350628 0.00881128 0.00767915 ) 0 
( 0.00442464 0.00641156 0.00275543 ) 0 
( 0.0028476 0.000239345 0.00137073 ) 0 
( 0.00435611 0.00643008 0.00130902 ) 0 
( 0.00623041 0.0110307 0.00376671 ) 0 
( 0.00929085 0.00856194 0.00142156 ) 0 
( 0.00919274 0.00280394 0.00132292 ) 0 
( 0.00598423 0.00672147 0.00459171 ) 0 
( 0.00167897 0.0132433 0.00364831 ) 0 
( 0.00202193 0.0115497 0.00293149 ) 0 
( 0.00873719 0.00257642 0.00339518 ) 0 
( 0.00131781 0.00494047 0.00311503 ) 0 
( 0.00812083 0.00326068 0.00686073 ) 0 
( 0.00295724 0.00902184 0.00503342 ) 0 
( 0.00617709 0.00598117 0.00560468 ) 0 
( 0.00625833 0.0079664 0.00571084 ) 0 
( 0.00133447 0.00181999 0.004762 ) 0 
( 0.0030349 0.011022 0.00165723 ) 0 
( 0.00116358 0.00800327 0.00728509 ) 0 
( 0.00528881 0.00643752 0.00564803 ) 0 
( 0.00248245 0.00426262 0.00807062 ) 0 
( 0.00483594 0.00762587 0.00404659 ) 0 
( 0.000331758 7.41995e-05 0.0050823 ) 0 
( 0.0044871 0.00104692 0.00181391 ) 0 
( 0.00600245 0.00394285 0.00295712 ) 0 
( 0.00508918 0.00132476 0.00748594 ) 0 
( 0.00716599 0.00805589 0.00517377 ) 0 
( 0.00711579 0.00990511 0.000499596 ) 0 
( 0.0068586 0.010268 0.00399435 ) 0 
( 1.28083e-05 0.0132806 0.00472384 ) 0 
( 0.00213691 0.00235895 0.00250487 ) 0 
( 0.0103147 0.0029383 0.000499582 ) 0 
( 0.00417171 0.000865433 0.00685275 ) 0 
( 0.00387884 0.0108654 0.00219489 ) 0 
( 0.00258617 0.0046784 0.00116712 ) 0 
( 0.00186788 0.000819689 0.00324047 ) 0 
( 0.00918077 0.00116339 0.00477776 ) 0 
( 6.51069e-05 0.00415497 0.0059068 ) 0 
( 0.00199479 0.00577818 0.00749794 ) 0 
( 0.00274434 0.00524194 0.00566744 ) 0 
( 0.00624725 0.00835617 0.00113076 ) 0 
( 0.00348587 0.00119624 0.00362069 ) 0 
( 5.12916e-05 0.00563271 0.00183744 ) 0 
( 0.000493412 0.0082191 0.00367695 ) 0 
( 0.00542459 0.00514042 0.00424968 ) 0 
( 0.00599603 0.00308905 0.00807985 ) 0 
( 0.00266779 0.00236748 0.00575039 ) 0 
( 0.00627531 0.00786213 0.0037535 ) 0 
( 0.00696816 0.00342091 0.00103131 ) 0 
( 0.00432982 0.012578 0.00402258 ) 0 
( 0.00922778 0.0047353 0.00753367 ) 0 
( 0.0106313 0.00302862 0.0030759 ) 0 
( 0.00809111 0.00817636 0.00356184 ) 0 
( 0.00324723 0.00537048 0.00373556 ) 0 
( 0.00590988 0.0103155 0.00439114 ) 0 
( 0.00683522 0.00895003 0.00211509 ) 0 
( 0.00832359 0.00246266 0.00742754 ) 0 
( 0.00153209 0.00892985 0.00274145 ) 0 
( 0.00847433 0.00593683 0.00279912 ) 0 
( 0.00425146 0.00566548 0.000499636 ) 0 
( 0.00365338 0.0087193 0.000499749 ) 0 
( 0.0077168 0.00906989 0.00275083 ) 0 
( 0.00256955 0.000459938 0.00706896 ) 0 
( 0.00344672 0.0128975 0.0013549 ) 0 
( 0.00179039 0.00875192 0.00814124 ) 0 
( 0.0106115 0.000787776 0.00124868 ) 0 
( 0.00785509 0.0104156 0.00673416 ) 0 
( 0.00695204 0.0022824 0.00350188 ) 0 
( 0.00369226 0.0102012 0.00147122 ) 0 
( 0.0106898 0.00243163 0.00545153 ) 0 
( 0.00650132 0.00170214 0.00121825 ) 0 
( 0.00965748 0.00636977 0.0061543 ) 0 
( 0.00233607 0.0108754 0.000499748 ) 0 
( 0.000109775 0.00139936 0.00322521 ) 0 
( 0.000512627 0.0122244 0.00250426 ) 0 
( 0.000208738 0.000525626 0.00378749 ) 0 
( 0.000917382 0.000601612 0.000499719 ) 0 
( 0.0101857 0.00329644 0.00393639 ) 0 
( 0.00520939 0.00127083 0.00301034 ) 0 
( 0.00129271 0.00964243 0.0058598 ) 0 
( 0.00300714 0.00835138 0.00131067 ) 0 
( 0.00220685 0.00457134 0.00208605 ) 0 
( 0.00652242 0.0045044 0.00507869 ) 0 
( 0.011123 0.00738297 0.006006 ) 0 
( 0.0123667 0.00030522 0.00410477 ) 0 
( 0.00876039 0.00750669 0.000499672 ) 0 
( 0.00151248 0.00652073 0.00323599 ) 0 
( 0.00148836 0.00824044 0.00346442 ) 0 
( 0.000410272 0.00303698 0.000499657 ) 0 
( 0.00166873 0.00784204 0.0050931 ) 0 
( 0.00676428 0.0064341 0.00634672 ) 0 
( 0.00151759 0.00750845 0.000499611 ) 0 
( 0.00693315 0.00579507 0.00266321 ) 0 
( 0.00810607 0.00751747 0.00173037 ) 0 
( 0.00276144 0.00985742 0.00638518 ) 0 
( 0.000891501 0.0101498 0.00391331 ) 0 
( 0.0104873 0.00499068 0.00331604 ) 0 
( 0.00338436 0.0129108 0.00391636 ) 0 
( 0.0019723 0.00894193 0.00482783 ) 0 
( 0.00753832 0.00279458 0.000499853 ) 0 
( 0.00897566 0.00737919 0.00339126 ) 0 
( 0.00506602 0.00517823 0.00223089 ) 0 
( 0.0091917 0.0074901 0.00140144 ) 0 
( 0.0084458 0.00347408 0.00118711 ) 0 
( 0.00377373 0.0126807 0.00302463 ) 0 
( 0.00835643 0.00509765 0.000499872 ) 0 
( 0.00311963 0.00234283 0.00410965 ) 0 
( 0.00405662 0.000278751 0.00507995 ) 0 
( 0.0103827 0.000261116 0.00669024 ) 0 
( 0.00840673 0.00822814 0.00109449 ) 0 
( 0.0053394 0.00598078 0.0074574 ) 0 
( 0.00741408 0.00160272 0.00479765 ) 0 
( 0.000426208 0.00216222 0.00791451 ) 0 
( 0.00819269 0.00477605 0.00189284 ) 0 
( 0.00143934 0.00314136 0.00593123 ) 0 
( 0.00349353 0.00529612 0.00632685 ) 0 
( 0.00377949 0.0118179 0.00481411 ) 0 
( 0.0121718 0.00236197 0.000499838 ) 0 
( 0.00165383 0.00786735 0.00642216 ) 0 
( 0.0110425 0.00750043 0.00398457 ) 0 
( 0.00656931 0.00352629 0.00482605 ) 0 
( 0.00205559 0.00981004 0.000499826 ) 0 
( 0.00865423 0.0101655 0.00614153 ) 0 
( 0.00730713 0.00896704 0.00478748 ) 0 
( 0.00347521 0.00923429 0.00133805 ) 0 
( 0.00074247 0.00145845 0.00640958 ) 0 
( 0.00611529 0.00699078 0.00554629 ) 0 
( 0.000388804 0.00729463 0.00165181 ) 0 
( 0.00203923 0.00692236 0.00522166 ) 0 
( 0.0119894 0.00587142 0.003206 ) 0 
( 0.00247515 0.0131186 0.00127304 ) 0 
( 0.00214979 0.00636404 0.000499703 ) 0 
( 0.00544219 0.000716957 0.00819652 ) 0 
( 0.0102883 0.00850737 0.00137752 ) 0 
( 0.00164441 0.00611356 0.00134281 ) 0 
( 0.00455825 0.00167128 0.00366495 ) 0 
( 0.00234597 0.00151775 0.00629047 ) 0 
( 0.000290626 0.00154876 0.00148495 ) 0 
( 0.00457618 0.00101917 0.000499886 ) 0 
( 0.00653109 0.0116435 0.00454482 ) 0 
( 0.0105208 0.00496821 0.000499848 ) 0 
( 0.00830906 0.00661458 0.000499738 ) 0 
( 0.0100783 0.00729103 0.00627496 ) 0 
( 0.00639761 0.000356294 0.00288924 ) 0 
( 0.00308052 0.00124955 0.00132907 ) 0 
( 0.00968916 0.0014969 0.00558717 ) 0 
( 0.0055485 0.00938164 0.00437708 ) 0 
( 0.000340036 0.0105864 0.00553387 ) 0 
( 0.00798472 0.00765578 0.00665405 ) 0 
( 0.0023552 0.00311844 0.00633163 ) 0 
( 0.00385482 0.00180123 0.00163807 ) 0 
( 0.00753901 0.00698116 0.0060208 ) 0 
( 0.00354386 0.00821907 0.00214387 ) 0 
( 0.00144149 0.00475365 0.00416483 ) 0 
( 0.00352981 0.00869245 0.00319996 ) 0 
( 0.00482416 0.00674239 0.0064789 ) 0 
( 0.00801068 0.00334445 0.0056807 ) 0 
( 0.00211817 0.000455277 0.00528821 ) 0 
( 0.00624378 0.0104541 0.00294991 ) 0 
( 0.00887006 0.00761409 0.00242512 ) 0 
( 0.00243385 0.00560189 0.00426906 ) 0 
( 0.00368971 0.0108573 0.00539225 ) 0 
( 0.00242488 0.00415409 0.00563808 ) 0 
( 0.009342 0.00214177 0.00490659 ) 0 
( 0.00504462 0.00160122 0.00119612 ) 0 
( 0.000777577 6.04503e-05 0.00132863 ) 0 
( 0.0050499 0.00494376 0.000499773 ) 0 
( 0.00749929 0.0083666 0.0014906 ) 0 
( 0.000750698 0.00200761 0.00369367 ) 0 
( 0.00641198 0.00882974 0.003965 ) 0 
( 0.00626197 0.00533221 0.0063606 ) 0 
( 0.00422322 0.00145357 0.0027483 ) 0 
( 0.0128412 0.00365053 0.00228134 ) 0 
( 0.00376593 0.00967386 0.00469561 ) 0 
( 0.00238151 0.00479128 0.0048521 ) 0 
( 0.000573092 0.0112287 0.00257311 ) 0 
( 0.00280821 0.0120972 0.00324561 ) 0 
( 0.00581669 0.000904929 0.00686304 ) 0 
( 0.00176352 0.00326382 0.00319039 ) 0 
( 0.00221483 0.0121931 0.00622069 ) 0 
( 0.00417494 0.00110252 0.0078239 ) 0 
( 0.00988125 0.008977 0.0065484 ) 0 
( 0.000248132 0.0116805 0.00632469 ) 0 
( 0.00308615 0.00900684 0.00404189 ) 0 
( 0.000440798 0.00482749 0.00517488 ) 0 
( 0.00673645 0.00816353 0.00713727 ) 0 
( 0.00571455 0.0120651 0.00258872 ) 0 
( 0.0121501 0.00215547 0.00389886 ) 0 
( 0.00128494 5.08466e-06 0.00218844 ) 0 
( 0.00416357 0.00868135 0.0065313 ) 0 
( 0.00697247 0.00681158 0.000499873 ) 0 
( 0.00465218 0.00228034 0.00557487 ) 0 
( 0.00659127 0.0106199 0.00152877 ) 0 
( 0.00711213 0.000953052 0.00325422 ) 0 
( 0.0038736 0.00397334 0.000499646 ) 0 
( 0.000835492 0.00542044 0.0076787 ) 0 
( 0.00495862 0.00694732 0.00191673 ) 0 
( 0.00276469 0.0046232 0.00645272 ) 0 
( 0.0123884 0.00497516 0.00476495 ) 0 
( 0.0104302 0.00173354 0.000499584 ) 0 
( 0.0128292 0.00369355 0.00705533 ) 0 
( 0.00964752 0.00204204 0.00209481 ) 0 
( 0.0124946 0.00455739 0.00653331 ) 0 
( 0.000405962 0.00247443 0.00186428 ) 0 
( 0.0093204 0.00053813 0.0014188 ) 0 
( 0.000318901 0.00490632 0.00314601 ) 0 
( 0.00451526 0.0108393 0.000499866 ) 0 
( 0.000133135 0.00728464 0.00398931 ) 0 
( 0.001927 0.010409 0.00616466 ) 0 
( 0.00422703 0.00343275 0.00294823 ) 0 
( 0.00837508 0.0052571 0.00754227 ) 0 
( 2.24363e-06 0.000230999 0.00666969 ) 0 
( 0.00776273 0.00104953 0.00660458 ) 0 
( 0.000491462 0.011135 0.000499652 ) 0 
( 0.00146856 0.00567844 0.00377364 ) 0 
( 0.00652664 0.00799911 0.00209921 ) 0 
( 0.00330597 0.0102803 0.0028843 ) 0 
( 0.00260076 0.00765927 0.00190684 ) 0 
( 0.00889945 0.0065357 0.00130291 ) 0 
( 0.00528615 0.0102535 0.00343331 ) 0 
( 0.00502501 0.0103294 0.00485593 ) 0 
( 0.00288292 0.00617142 0.00643961 ) 0 
( 0.000787898 0.0133272 0.00409385 ) 0 
( 0.00791331 0.00973202 0.00195687 ) 0 
( 0.0030187 0.00470658 0.00296579 ) 0 
( 0.00434665 0.0111114 0.00610153 ) 0 
( 0.00409618 0.00207459 0.00807244 ) 0 
( 0.00832668 0.0067339 0.00545415 ) 0 
( 0.00602419 0.00396866 0.00747428 ) 0 
( 0.00765404 0.00098162 0.000499629 ) 0 
( 0.00171624 0.00395227 0.00496241 ) 0 
( 0.00353318 0.0103763 0.000499807 ) 0 
( 0.000841648 0.0128321 0.00322693 ) 0 
( 0.0032635 0.00528084 0.0048139 ) 0 
( 0.00102825 0.00989317 0.00199151 ) 0 
( 0.00856602 0.00912451 0.00327583 ) 0 
( 0.00630587 0.00577592 0.00463456 ) 0 
( 0.00521091 0.0101935 0.00592698 ) 0 
( 0.00428307 0.00936944 0.00320759 ) 0 
( 0.00237173 0.00250695 0.00346548 ) 0 
( 0.00647212 0.000722452 0.00482881 ) 0 
( 0.0019762 0.00959491 0.00210132 ) 0 
( 0.00442764 0.00951947 0.00144376 ) 0 
( 0.0055 0.000258824 0.00331873 ) 0 
( 0.00206038 0.00271699 0.00138725 ) 0 
( 0.00956927 0.0039934 0.00271923 ) 0 
( 0.00669435 0.0106864 0.0048873 ) 0 
( 0.000273782 0.00915091 0.00707723 ) 0 
( 0.00531534 0.00312859 0.00552688 ) 0 
( 0.0021273 0.00815635 0.00422893 ) 0 
( 0.00196226 0.000704914 0.00148741 ) 0 
( 0.00745839 0.00715907 0.00380414 ) 0 
( 0.00506776 0.0123502 0.00332174 ) 0 
( 0.00834288 0.0041611 0.00458344 ) 0 
( 0.000393407 0.0098506 0.00485533 ) 0 
( 0.00292782 0.00185523 0.00806547 ) 0 
( 0.011178 0.00571793 0.00187124 ) 0 
( 0.0114006 0.00113734 0.00197163 ) 0 
( 0.00849183 0.00173322 0.00663007 ) 0 
( 0.00512433 0.00943016 0.00528129 ) 0 
( 0.00839693 0.00178095 0.00483954 ) 0 
( 0.00345845 0.00773858 0.000499796 ) 0 
( 0.00435951 0.00580707 0.00637312 ) 0 
( 0.0103094 0.00453805 0.00596998 ) 0 
( 0.000860481 0.00744861 0.00465546 ) 0 
( 0.00755768 0.00809258 0.00252052 ) 0 
( 0.0110829 0.00292579 0.00462959 ) 0 
( 0.00774931 0.00992983 0.00578771 ) 0 
( 0.00551031 0.00668463 0.00283577 ) 0 
( 9.3103e-05 0.00375976 0.0070011 ) 0 
( 0.00397063 0.00319405 0.00802107 ) 0 
( 0.00801229 0.00080835 0.00469088 ) 0 
( 0.00175439 0.000290486 0.00762244 ) 0 
( 0.00170701 0.00211309 0.00564228 ) 0 
( 0.00314059 0.00220329 0.00661811 ) 0 
( 0.00875155 0.000324305 0.000499735 ) 0 
( 0.00985126 0.00899608 0.00425265 ) 0 
( 0.000653378 0.00457493 0.00659746 ) 0 
( 0.00125074 0.00141771 0.00101016 ) 0 
( 0.00881931 0.00258465 0.00223413 ) 0 
( 0.00321333 0.00146972 0.00458789 ) 0 
( 0.00621556 0.00133074 0.00302358 ) 0 
( 0.00717894 0.00965378 0.00656238 ) 0 
( 0.00713219 0.00418689 0.00432932 ) 0 
( 0.00332593 0.00616287 0.00434722 ) 0 
( 0.0119436 0.00203953 0.00170374 ) 0 
( 0.000221491 0.01249 0.00395033 ) 0 
( 0.000607646 0.0124512 0.00487376 ) 0 
( 0.00888582 0.00301065 0.00602921 ) 0 
( 0.0026917 0.000845336 0.0021568 ) 0 
( 0.0131055 0.00229083 0.00192196 ) 0 
( 0.00229807 0.0112561 0.00655936 ) 0 
( 0.00320916 0.00448895 0.00420584 ) 0 
( 0.00541815 0.00940181 0.00137313 ) 0 
( 0.00795897 0.0107184 0.0021146 ) 0 
( 0.0104302 0.00399635 0.00322789 ) 0 
( 0.0102409 0.00197324 0.00724823 ) 0 
( 0.00601995 0.00242734 0.00418039 ) 0 
( 0.0033822 0.00255952 0.00752064 ) 0 
( 0.00119736 0.0041668 0.00249297 ) 0 
( 0.0103367 0.00150251 0.00637131 ) 0 
( 0.000968206 0.00559758 0.00464219 ) 0 
( 0.00657738 0.000270927 0.00663765 ) 0 
( 0.00384245 0.00774587 0.00428073 ) 0 
( 0.0132518 0.00146328 0.000499684 ) 0 
( 0.0075764 0.00184792 0.00717641 ) 0 
( 0.00555871 0.000563356 0.00217324 ) 0 
( 0.00550248 0.00320967 0.00452675 ) 0 
( 0.00223882 0.00142184 0.00506263 ) 0 
( 0.00101389 0.00909642 0.00507016 ) 0 
( 0.00871163 0.00562527 0.00167103 ) 0 
( 0.00963825 0.000306543 0.00510067 ) 0 
( 0.000814855 0.00166658 0.0025685 ) 0 
( 0.000510327 0.0110601 0.00355674 ) 0 
( 0.00486958 0.0036737 0.00636637 ) 0 
( 0.00273524 0.00672535 0.00793057 ) 0 
( 0.00214025 0.00468367 0.007231 ) 0 
( 0.00972066 0.000878843 0.00226938 ) 0 
( 0.011878 0.00375363 0.00167027 ) 0 
( 0.00381483 0.0102968 0.00633136 ) 0 
( 0.0104232 0.00405941 0.00207358 ) 0 
( 0.00401673 0.00690903 0.000499687 ) 0 
( 0.00111286 0.00734548 0.00576296 ) 0 
( 0.000414101 0.0116326 0.00732057 ) 0 
( 0.00116181 0.000630759 0.0050559 ) 0 
( 0.00352834 0.00958539 0.00697277 ) 0 
( 0.000223361 0.00651076 0.00712138 ) 0 
( 0.00246313 0.000696518 0.00438125 ) 0 
( 0.0127505 0.00317741 0.000499564 ) 0 
( 0.0132952 0.00121011 0.00373445 ) 0 
( 0.0025129 0.00741361 0.000499844 ) 0 
( 0.00379719 0.000553871 0.00128395 ) 0 
( 0.0130011 0.00303202 0.00413949 ) 0 
( 0.00719591 0.0112448 0.00391345 ) 0 
( 0.00998095 0.00580978 0.000499903 ) 0 
( 0.00431684 0.0100486 0.00550328 ) 0 
( 0.00407924 0.00153273 0.00523961 ) 0 
( 0.00271732 0.0102201 0.00115151 ) 0 
( 0.00933745 0.00954165 0.00164389 ) 0 
( 0.00338079 0.00492824 0.000499797 ) 0 
( 0.0094035 0.00583115 0.00509264 ) 0 
( 0.0122257 0.00227215 0.00721448 ) 0 
( 0.00910687 0.00716642 0.00590578 ) 0 
( 0.00964755 0.0037776 0.00135556 ) 0 
( 0.0112212 0.00178975 0.00600366 ) 0 
( 0.000896567 0.0133199 0.00638687 ) 0 
( 0.00727182 0.00932051 0.0012955 ) 0 
( 0.00178661 0.00465896 0.000499768 ) 0 
( 0.0124661 0.000524283 0.00512024 ) 0 
( 0.00281333 0.011091 0.00489031 ) 0 
( 0.00448163 0.00434148 0.004094 ) 0 
( 0.00835175 0.00398742 0.00357173 ) 0 
( 0.00685971 0.0114506 0.00104132 ) 0 
( 0.00402674 0.00739189 0.00789593 ) 0 
( 0.0127344 0.00317512 0.00318654 ) 0 
( 0.000423694 0.00165165 0.000499566 ) 0 
( 0.00247892 0.0120272 0.00717031 ) 0 
( 0.00105869 0.00735056 0.00361699 ) 0 
( 0.00297267 0.00383786 0.00348477 ) 0 
( 0.00378436 0.000819902 0.00587548 ) 0 
( 0.00817618 0.00935978 0.00649009 ) 0 
( 0.00655604 1.29954e-05 0.000499894 ) 0 
( 0.0111397 0.00354244 0.00376656 ) 0 
( 0.00517963 0.00344305 0.00325318 ) 0 
( 0.000418004 0.00308646 0.00633722 ) 0 
( 0.0115551 0.00273697 0.00334403 ) 0 
( 0.00281532 0.0112661 0.00381915 ) 0 
( 0.00646268 0.00734251 0.00663665 ) 0 
( 0.00629653 0.00272292 0.00535805 ) 0 
( 0.0122555 0.0040563 0.000499769 ) 0 
( 0.00339711 0.0091436 0.00608587 ) 0 
( 0.0115542 4.24813e-05 0.00049956 ) 0 
( 0.00726306 0.0112016 0.00655752 ) 0 
( 0.00439755 0.0078907 0.00596619 ) 0 
( 0.00706369 0.00320781 0.00398429 ) 0 
( 0.00108061 0.00368702 0.00686487 ) 0 
( 0.011157 0.00160173 0.00433487 ) 0 
( 0.00397814 0.00271611 0.0036333 ) 0 
( 0.00264995 0.0130845 0.00325285 ) 0 
( 0.000245996 0.000565202 0.00791892 ) 0 
( 0.00143851 0.00489013 0.00516948 ) 0 
( 0.00534744 0.00571318 0.00649412 ) 0 
( 0.00525235 0.00924589 0.00341983 ) 0 
( 0.0108735 0.0063584 0.00404022 ) 0 
( 0.0106092 0.00343297 0.00131687 ) 0 
( 0.00746076 0.00144589 0.00136383 ) 0 
( 0.00741092 0.000273378 0.00608198 ) 0 
( 0.00175075 0.00139483 0.00226429 ) 0 
( 0.00324903 0.00626832 0.000499864 ) 0 
( 0.00137753 0.00929786 0.00410708 ) 0 
( 0.00834069 0.00575791 0.00639727 ) 0 
( 0.00721165 0.0081009 0.00403139 ) 0 
( 0.00288171 0.000728528 0.000499529 ) 0 
( 0.00635696 0.00688933 0.00132486 ) 0 
( 0.00122327 0.0090242 0.00736431 ) 0 
( 0.00183851 0.00906954 0.0065776 ) 0 
( 0.00325902 0.00318771 0.00675289 ) 0 
( 0.00189224 0.00742303 0.00303144 ) 0 
( 0.00643132 0.00586427 0.00718957 ) 0 
( 0.00344798 0.00307775 0.000628495 ) 0 
( 0.00310554 0.000581594 0.00513883 ) 0 
( 0.00695095 0.00764926 0.0010613 ) 0 
( 0.00141301 0.0118434 0.00212499 ) 0 
( 0.00898344 0.00587638 0.000499798 ) 0 
( 0.00220603 0.00857877 0.00197476 ) 0 
( 0.0120143 0.00319071 0.00411115 ) 0 
( 0.00193105 0.0127932 0.000499776 ) 0 
( 0.0101357 0.00232713 0.00127019 ) 0 
( 0.0068227 0.00476539 0.00323381 ) 0 
( 0.000947384 0.00528762 0.00596054 ) 0 
( 0.0058371 0.0120019 0.00516894 ) 0 
( 0.00403912 0.00208987 0.00441036 ) 0 
( 0.010143 0.00102166 0.00454635 ) 0 
( 0.00343318 0.00631109 0.00283868 ) 0 
( 0.0061225 0.00337629 0.000499783 ) 0 
( 0.0080166 0.000304662 0.00354176 ) 0 
( 0.00675192 0.0088039 0.00625406 ) 0 
( 0.00156667 0.00859877 0.00573853 ) 0 
( 0.0123571 0.000645709 0.00117201 ) 0 
( 0.00493489 0.00561893 0.00122796 ) 0 
( 0.0133216 0.000100527 0.00142936 ) 0 
( 0.0112285 0.00451342 0.00169243 ) 0 
( 0.00549171 0.0110622 0.000499721 ) 0 
( 0.00594714 0.0119523 0.000499814 ) 0 
( 0.00520247 0.0122947 0.00168437 ) 0 
( 0.00301329 0.00952222 0.00049959 ) 0 
( 0.000578513 0.0088926 0.00609205 ) 0 
( 0.00563803 0.00773349 0.00172571 ) 0 
( 0.0117367 0.00636182 0.00692158 ) 0 
( 0.00932172 0.00835342 0.00484405 ) 0 
( 0.00159238 0.0011348 0.00682456 ) 0 
( 0.0114188 0.00519933 0.000990375 ) 0 
( 0.00439231 0.00984703 0.000499801 ) 0 
( 0.00100139 0.000897797 0.00182704 ) 0 
( 0.00381142 0.00867628 0.00464522 ) 0 
( 0.0103235 0.00605649 0.00245698 ) 0 
( 0.0121714 0.00136209 0.000499813 ) 0 
( 0.00366748 0.00236037 0.00573511 ) 0 
( 0.00448625 0.00205125 0.00049959 ) 0 
( 0.00229429 0.0131516 0.00537747 ) 0 
( 0.00159747 0.0123721 0.00749231 ) 0 
( 0.00116461 0.00836695 0.00440327 ) 0 
( 0.00149499 0.0132648 0.00140522 ) 0 
( 0.00718931 0.00162148 0.00251462 ) 0 
( 0.000411917 0.00983962 0.00636578 ) 0 
( 0.00488241 0.00157032 0.00462106 ) 0 
( 0.0022586 0.00411177 0.00412896 ) 0 
( 0.0120095 0.00582747 0.00512502 ) 0 
( 0.000736196 0.00818295 0.00536738 ) 0 
( 0.00503518 0.0123625 0.000499894 ) 0 
( 0.0054733 0.00227971 0.00500437 ) 0 
( 0.00796825 0.00612117 0.00458213 ) 0 
( 0.00703747 0.00296897 0.0027724 ) 0 
( 0.00380015 0.00535048 0.00290132 ) 0 
( 0.0120255 0.00307252 0.00248894 ) 0 
( 0.0109284 0.0076682 0.00506795 ) 0 
( 0.00267805 0.00616021 0.00347644 ) 0 
( 0.00123364 0.00234018 0.00649305 ) 0 
( 0.00249065 0.0117806 0.00201789 ) 0 
( 0.00842498 0.00516878 0.00458641 ) 0 
( 0.0128026 0.00378518 0.00129134 ) 0 
( 0.00500972 0.00786532 0.000499712 ) 0 
( 0.000532143 0.00312456 0.00451149 ) 0 
( 0.000862338 0.000316439 0.00717204 ) 0 
( 0.00696872 0.00856271 0.00317853 ) 0 
( 0.00850619 0.00875148 0.00526324 ) 0 
( 0.00995048 0.00765502 0.00535266 ) 0 
( 1.55103e-05 0.00898494 0.00527086 ) 0 
( 0.0108 0.00690592 0.00217211 ) 0 
( 0.0098096 0.00138296 0.00120051 ) 0 
( 0.00364433 0.00596537 0.00705372 ) 0 
( 0.00869426 0.00415652 0.000499858 ) 0 
( 0.00500396 0.000603724 0.00636481 ) 0 
( 0.0120627 0.00298402 0.00651053 ) 0 
( 0.00544988 0.0110488 0.00545798 ) 0 
( 0.00906772 0.00453453 0.00400487 ) 0 
( 0.00327329 0.00995707 0.00551819 ) 0 
( 0.00443726 0.00314251 0.000499803 ) 0 
( 0.00845915 0.00920367 0.00130683 ) 0 
( 0.00706939 0.00105394 0.00555888 ) 0 
( 0.00780941 0.00622221 0.0071054 ) 0 
( 0.0104063 0.00369394 0.00649696 ) 0 
( 0.00866854 0.00873814 0.00419224 ) 0 
( 0.0083621 0.00730682 0.0042053 ) 0 
( 0.00738198 0.00996162 0.00485487 ) 0 
( 0.000438515 0.00557041 0.0067735 ) 0 
( 0.00721488 0.000531527 0.00415506 ) 0 
( 0.00294065 0.00772682 0.00764198 ) 0 
( 0.00246752 0.0029311 0.000499673 ) 0 
( 0.00589946 0.0119727 0.00384204 ) 0 
( 0.0075277 0.0103707 0.00128241 ) 0 
( 0.00940768 0.00366022 0.00658182 ) 0 
( 0.0110357 0.00582451 0.00595967 ) 0 
( 0.0076024 0.00857663 0.00672872 ) 0 
( 0.0124688 2.17825e-05 0.00194526 ) 0 
( 0.00086957 0.0058068 0.00289416 ) 0 
( 0.0130204 0.00277607 0.0067076 ) 0 
( 0.00104212 0.00712037 0.00681404 ) 0 
( 0.00775991 0.00137678 0.00388711 ) 0 
( 0.00501103 0.00424065 0.00717766 ) 0 
( 0.00660913 0.000990395 0.00191225 ) 0 
( 0.000310513 0.013345 0.00255251 ) 0 
( 0.000714707 0.00871942 0.00049969 ) 0 
( 0.00691655 0.00245189 0.00462206 ) 0 
( 0.00967141 0.00791854 0.000499838 ) 0 
( 0.00478434 0.00253742 0.00306964 ) 0 
( 0.00806441 0.00736342 0.00298021 ) 0 
( 0.00121091 0.00418682 0.00586363 ) 0 
( 0.00969996 0.000640952 0.000499699 ) 0 
( 0.0016112 0.00345061 0.000499885 ) 0 
( 0.00710046 0.00299996 0.00590879 ) 0 
( 0.00361893 0.00738555 0.00519122 ) 0 
( 0.0080062 0.0081363 0.00463793 ) 0 
( 0.00862393 0.0101909 0.00138142 ) 0 
( 0.0103852 0.0054768 0.00418398 ) 0 
( 0.00687336 0.00147858 0.00645012 ) 0 
( 0.000138505 0.0070245 0.00049987 ) 0 
( 0.00124253 0.0116887 0.00475091 ) 0 
( 0.00843445 0.00476574 0.0056223 ) 0 
( 0.0119165 0.00390635 0.0048026 ) 0 
( 0.0077629 0.0108611 0.004642 ) 0 
( 8.33788e-05 0.00532669 0.000499529 ) 0 
( 0.0116988 0.00643103 0.00140224 ) 0 
( 0.0107559 0.00238564 0.00383151 ) 0 
( 0.00200371 0.0100785 0.00415636 ) 0 
( 0.00489485 0.00903722 0.00218459 ) 0 
( 0.00978358 0.00362908 0.0056559 ) 0 
( 0.0017146 0.00412083 0.00133929 ) 0 
( 0.006157 0.00741739 0.000499727 ) 0 
( 0.00363832 0.00630166 0.00799463 ) 0 
( 0.00266514 0.00903013 0.0071789 ) 0 
( 0.00110653 0.0029607 0.00121301 ) 0 
( 0.0063596 0.00860089 0.00494476 ) 0 
( 8.33687e-05 0.0071314 0.00635017 ) 0 
( 0.0113652 0.00527899 0.00420784 ) 0 
( 0.00780417 0.000668982 0.00189126 ) 0 
( 0.00509616 0.00845815 0.00130012 ) 0 
( 0.00228838 0.0106388 0.00324608 ) 0 
( 0.003717 0.00999112 0.00374872 ) 0 
( 0.0020598 0.0119267 0.00388632 ) 0 
( 0.0109713 0.00594655 0.000499654 ) 0 
( 0.0090521 0.00919922 0.00600667 ) 0 
( 0.00119429 0.00949002 0.000918944 ) 0 
( 0.00597341 0.00860867 0.00309404 ) 0 
( 0.00662754 0.00427736 0.00141899 ) 0 
( 0.00434553 0.00853606 0.00375658 ) 0 
( 0.00651729 0.00672419 0.00347685 ) 0 
( 0.00767913 0.0109205 0.00565376 ) 0 
( 0.00858556 0.00842344 0.00643126 ) 0 
( 0.00964723 0.00552002 0.00319957 ) 0 
( 0.00978645 0.00197736 0.00377525 ) 0 
( 0.00387315 0.00177329 0.00714596 ) 0 
( 0.00112204 0.00659003 0.000499863 ) 0 
( 0.00538213 0.00249897 0.00148209 ) 0 
( 0.0119174 0.00381921 0.00598065 ) 0 
( 0.00478362 0.000366016 0.00753033 ) 0 
( 0.00480751 0.00875455 0.00461579 ) 0 
( 0.00580735 0.00869381 0.00196275 ) 0 
( 0.00424028 0.00485092 0.00107921 ) 0 
( 0.00232826 0.0118755 0.00049988 ) 0 
( 0.00146443 0.0113718 0.000499722 ) 0 
( 0.00777151 0.00249123 0.00521746 ) 0 
( 0.0102173 0.00751984 0.00123655 ) 0 
( 0.00481804 0.0073628 0.00308207 ) 0 
( 8.34012e-05 0.000907325 0.00222333 ) 0 
( 0.00594265 0.00583559 0.00253259 ) 0 
( 0.00831116 0.000249761 0.00800577 ) 0 
( 0.00563536 0.0104594 0.00128411 ) 0 
( 0.0131671 0.00219494 0.00361843 ) 0 
( 0.00536622 0.00708573 0.00101424 ) 0 
( 0.0015197 0.0065157 0.00797718 ) 0 
( 0.00256556 0.00712631 0.00370852 ) 0 
( 0.0076731 0.00575335 0.00366324 ) 0 
( 0.00352685 0.00831991 0.00553481 ) 0 
( 0.00575496 0.00145701 0.00404558 ) 0 
( 0.012659 0.00423945 0.00323121 ) 0 
( 0.00333906 0.00823543 0.00687898 ) 0 
( 0.00944569 0.00677274 0.000499771 ) 0 
( 0.00431384 0.00595582 0.00496486 ) 0 
( 0.00377183 0.011878 0.00581567 ) 0 
( 0.00871353 0.00341033 0.00283871 ) 0 
( 0.00244754 0.00540951 0.000499571 ) 0 
( 0.00393325 0.0111694 0.00124382 ) 0 
( 0.0046002 0.00961338 0.00414773 ) 0 
( 0.000974794 0.00718741 0.00263404 ) 0 
( 0.00266414 0.00573522 0.00229361 ) 0 
( 0.0120902 0.00124421 0.00430864 ) 0 
( 0.00372339 0.0110265 0.00340284 ) 0 
( 0.00121153 0.012422 0.00407226 ) 0 
( 0.000867869 0.00474097 0.00841065 ) 0 
( 0.00544768 0.00834566 0.00526551 ) 0 
( 0.0056398 0.00883845 0.00049981 ) 0 
( 0.00658967 0.00101236 0.000499829 ) 0 
( 0.00636941 0.00480415 0.00413684 ) 0 
( 0.00263088 0.00595299 0.00131836 ) 0 
( 0.0101959 0.00861865 0.00524929 ) 0 
( 0.00291549 0.0130278 0.00730571 ) 0 
( 0.00087922 0.00627275 0.00615395 ) 0 
( 0.00230441 0.00689789 0.00133062 ) 0 
( 0.0123492 0.00505845 0.0027482 ) 0 
( 0.00796561 0.00584979 0.00104449 ) 0 
( 0.0110133 0.00435492 0.00435616 ) 0 
( 0.00915709 0.00852215 0.00273946 ) 0 
( 0.00958432 0.000999774 0.00371746 ) 0 
( 0.00921965 0.0077123 0.00673548 ) 0 
( 0.00313577 0.00343491 0.00579209 ) 0 
( 0.0029511 0.00185193 0.0021164 ) 0 
( 0.00606096 0.00189379 0.00685814 ) 0 
( 0.00997692 0.00887057 0.000499708 ) 0 
( 0.000795532 0.00301035 0.00353694 ) 0 