/*--------------------------------*- C++ -*----------------------------------*\
| =========                 |                                                 |
| \\      /  F ield         | OpenFOAM: The Open Source CFD Toolbox           |
|  \\    /   O peration     | Version:  2506                                  |
|   \\  /    A nd           | Website:  www.openfoam.com                      |
|    \\/     M anipulation  |                                                 |
\*---------------------------------------------------------------------------*/
FoamFile
{
    version     2.0;
    format      ascii;
    arch        "LSB;label=32;scalar=64";
    class       volVectorField;
    location    "0.06";
    object      stored_U;
}
// * * * * * * * * * * * * * * * * * * * * * * * * * * * * * * * * * * * * * //

dimensions      [0 1 -1 0 0 0 0];

internalField   nonuniform List<vector> 
1152
(
(-0.00126004 0.00109806 0.0173464)
(-0.000329204 -0.000380261 0.00687923)
(-0.000211482 -0.000277194 0.0142615)
(0.00180781 0.000948893 0.0127091)
(-0.0022993 0.00261965 0.0292228)
(-0.00203585 0.0022139 0.0216925)
(-0.000556098 0.000663681 0.0150008)
(0.000620844 -0.000207615 0.00102447)
(-0.00219932 0.00132449 0.0138218)
(-0.00154867 0.00173141 0.0186848)
(0.000335157 0.00129199 0.0200122)
(-0.00291977 0.00248842 0.0333432)
(-0.00207826 0.00323569 0.0212516)
(-0.00278014 0.00177046 0.0213566)
(-0.00145461 0.00187035 0.0172283)
(1.24262e-05 -0.00185966 0.0214793)
(-0.000566773 8.81817e-05 0.0236375)
(-0.000500978 0.00171214 0.0179901)
(0.00313638 0.00238606 0.0311984)
(-0.000315946 -0.000224744 0.000750229)
(0.00117508 -0.000616864 0.0145476)
(-0.000203827 -0.000324115 0.0210637)
(0.000749826 -0.000396813 0.0277283)
(-0.00278983 -0.00486686 0.0308687)
(-0.000155122 0.0013133 0.0222325)
(-0.00034283 -0.00135577 0.0182487)
(-0.000595673 -4.36748e-05 0.00573725)
(0.0010639 -0.00335422 0.0300661)
(-0.00105617 0.000206858 0.0165838)
(-0.00358076 0.00125499 0.0314007)
(-0.00105494 -0.00156081 0.0193071)
(0.000384937 0.00217005 0.0149656)
(-0.00229233 -9.33301e-05 0.0346185)
(-0.000193617 -0.000331367 0.00793591)
(-0.00135837 -0.000725982 0.0268537)
(-0.00659591 -0.00682092 0.0566496)
(-0.000273438 -0.00359142 0.0511498)
(-0.00247128 0.000319495 0.0445408)
(-0.00069497 0.000429436 0.0103191)
(-0.0012297 0.000744652 0.0422496)
(-0.00163138 -0.001011 0.0194153)
(0.000300954 -0.00132625 0.0303728)
(-0.00100494 0.0018438 0.0426768)
(-0.000747226 0.00058057 0.0264593)
(-0.00312054 -0.000840023 0.0655325)
(-2.29273e-05 -0.000112991 0.010641)
(0.000292725 -0.000521719 0.0324968)
(-0.000294106 0.0011777 0.0227581)
(0.00199336 -0.00472198 0.0441276)
(-0.000269989 -7.39979e-05 0.0028408)
(-0.00284172 -0.000302965 0.0243385)
(-0.00155542 -0.00292714 0.0427521)
(-0.00208823 -0.000859067 0.0294163)
(0.000677148 -0.00314538 0.0293923)
(-0.000645205 -0.000859062 0.0223637)
(-0.000573322 0.00155897 0.0327203)
(-0.000261651 -0.000173195 0.00627454)
(-0.000802272 0.00101147 0.0245751)
(0.000928381 6.46219e-05 0.022638)
(0.000427591 0.000807726 0.0309194)
(0.000320538 0.00148263 0.020944)
(0.00167716 0.00108206 0.0266134)
(-0.00159938 0.00267115 0.0297811)
(-1.68318e-05 -0.000251771 0.00271755)
(-0.000238311 -0.00030028 0.00304947)
(-0.00317799 0.00138552 0.0307304)
(-0.00121661 -0.000633656 0.0293848)
(0.00846556 0.00362996 0.0524645)
(-0.0013108 0.000164147 0.0329617)
(-0.00174921 0.000872126 0.0309981)
(-0.000597441 0.00123846 0.0237027)
(0.00130648 0.000227716 0.0166615)
(0.00037627 0.00169388 0.0175814)
(-0.00131521 0.00154302 0.0272223)
(-0.000890223 0.000822669 0.0194531)
(-0.00316811 0.00152685 0.0564746)
(0.00195211 -3.79105e-05 0.0416092)
(-0.0022954 0.000124089 0.0237481)
(-0.00263806 -0.000401137 0.0354943)
(5.9521e-05 0.000113205 0.00906499)
(-0.00496893 -0.00113132 0.0338287)
(-0.000600358 0.000116985 0.0129969)
(-0.000477924 -0.00025413 0.0143974)
(4.2769e-05 6.68685e-05 0.00211648)
(-0.00127196 0.00092689 0.0171833)
(-0.00206974 0.000365366 0.0181599)
(-0.000339535 -0.000539137 0.00865993)
(-0.000101323 -0.00101971 0.0210615)
(-0.000504541 1.13635e-05 0.0144896)
(-0.00221402 2.35273e-05 0.012895)
(-0.00348034 -0.000955845 0.0311223)
(0.000524028 0.000778211 0.0100773)
(-0.00695592 0.00574676 0.0405744)
(-0.00368222 0.00160331 0.0225108)
(0.000304222 0.00212782 0.0192226)
(-1.85691e-05 0.000279862 0.00195194)
(0.000401607 0.000299337 0.0118633)
(0.000314564 2.80895e-05 0.0151428)
(-7.33463e-05 -5.2406e-05 0.0172231)
(0.0011374 -4.04348e-06 0.0198399)
(-0.000131401 0.000177103 0.0202548)
(0.000417303 0.000152879 0.0170059)
(7.50953e-05 8.96961e-05 0.0110735)
(-0.000186794 0.000192887 0.0148246)
(5.67025e-05 0.0001344 0.0153142)
(-0.000295141 0.000265757 0.0169007)
(-0.000250511 7.92621e-05 0.0124929)
(0.000131201 0.00019103 0.0230368)
(-3.06066e-05 -0.00274437 0.0284634)
(-0.000583851 -0.000110163 0.0140532)
(-0.000346763 0.00017084 0.0110763)
(-0.000114642 0.000134169 0.00844504)
(0.00193848 0.000797407 0.0238083)
(0.00122796 0.000403824 0.0212458)
(0.000540672 0.000186181 0.0229378)
(0.000116602 -1.5168e-06 0.0340136)
(0.000834133 0.000844489 0.0251702)
(0.00108065 0.000545938 0.0228443)
(0.000580003 0.000315909 0.0170452)
(-6.25509e-05 0.000185265 0.0251344)
(0.000616874 0.0007073 0.0259787)
(0.000592887 0.000642383 0.0238782)
(9.97053e-05 0.000164645 0.0229539)
(-4.29727e-05 -2.91633e-05 0.0271905)
(0.000524716 -0.000142957 0.0390527)
(0.000330501 -3.38381e-05 0.0243356)
(-0.000220485 -0.000102724 0.0183222)
(-0.00046393 -8.48695e-05 0.0161858)
(0.00117925 0.000222394 0.00632792)
(0.000957222 3.95946e-05 0.00524031)
(-0.000480162 -0.000127177 0.00525967)
(0.000406355 0.000224785 0.00687014)
(0.000535405 -0.000395325 0.0061329)
(0.00118265 -0.000279497 0.00530564)
(-0.000109825 -0.000143811 0.00448563)
(-0.000857004 0.000423469 0.00581492)
(0.000828958 -0.00134265 0.00646183)
(0.00110568 -0.000587078 0.00555164)
(0.000129001 -0.000341922 0.00493559)
(0.000165673 0.000568529 0.00555703)
(0.000975565 -0.0017625 0.00794456)
(0.00201873 -0.00105723 0.0055667)
(0.000937053 -0.000818664 0.00422331)
(0.00048122 -0.000369001 0.0038093)
(0.000713165 0.000193179 0.0145134)
(0.000574883 0.000169561 0.0140828)
(-0.000117433 0.000120309 0.0140002)
(1.28733e-05 0.000282899 0.0149562)
(0.000444984 -4.58749e-05 0.0144395)
(0.000585425 -1.99309e-05 0.014034)
(-1.72068e-05 5.48299e-05 0.0136395)
(-0.000334883 0.000308371 0.0144273)
(0.000498775 -0.000406507 0.0148844)
(0.000607262 -0.000226557 0.0143416)
(0.000147813 -0.000103882 0.0139654)
(4.01818e-05 0.000259591 0.0142714)
(0.000337982 -0.000409522 0.0156216)
(0.000795921 -0.000422448 0.0145229)
(0.000395368 -0.000434021 0.0137458)
(0.000182823 -0.000298813 0.0135577)
(0.00034582 4.96914e-05 0.0122702)
(0.000293692 7.73703e-05 0.012068)
(1.29613e-05 7.7565e-05 0.011999)
(-7.32524e-06 0.000144821 0.0123417)
(0.00026865 -8.58703e-05 0.0121579)
(0.000292121 -4.85954e-05 0.0119744)
(4.32047e-05 -3.28579e-06 0.0118362)
(-9.0636e-05 0.000101827 0.012115)
(0.000334112 -0.000286522 0.0122797)
(0.000346068 -0.0001969 0.0120536)
(0.000132173 -0.000118832 0.0118878)
(4.2595e-05 2.45455e-05 0.0119973)
(0.000314037 -0.000338143 0.0124095)
(0.000417501 -0.00031605 0.0120911)
(0.000226091 -0.000287102 0.0118291)
(0.000112524 -0.000236432 0.0117923)
(0.000187124 3.34577e-05 0.0128047)
(0.000158619 4.98746e-05 0.0127277)
(4.24099e-05 5.55607e-05 0.0126859)
(1.06074e-05 7.88437e-05 0.0127985)
(0.000150049 -2.2927e-05 0.0127602)
(0.00015101 -1.3714e-05 0.012688)
(4.95912e-05 2.81535e-06 0.0126321)
(-8.68333e-06 4.21919e-05 0.0127229)
(0.000172599 -0.000104187 0.0128277)
(0.000172789 -8.92047e-05 0.0127305)
(8.58322e-05 -6.5647e-05 0.0126551)
(3.87082e-05 -1.77933e-05 0.0126883)
(0.000126231 -0.000123459 0.012888)
(0.000171791 -0.000147387 0.0127675)
(0.000104867 -0.000149972 0.0126615)
(6.6783e-05 -0.000143856 0.0126489)
(0.000105267 1.91076e-05 0.012821)
(9.09967e-05 2.71131e-05 0.0127933)
(4.46976e-05 3.09863e-05 0.0127726)
(2.40802e-05 3.89907e-05 0.0128078)
(8.8729e-05 -1.05135e-05 0.0127906)
(8.65534e-05 -6.85073e-06 0.0127693)
(4.64946e-05 3.1405e-07 0.012748)
(2.03656e-05 1.41152e-05 0.0127773)
(0.00010168 -5.33448e-05 0.0128023)
(9.83486e-05 -4.77501e-05 0.0127769)
(6.15888e-05 -3.83424e-05 0.0127509)
(3.76085e-05 -2.21873e-05 0.0127619)
(8.24311e-05 -7.16254e-05 0.012792)
(9.46683e-05 -8.00007e-05 0.0127769)
(6.60247e-05 -7.99274e-05 0.0127505)
(4.95659e-05 -7.9973e-05 0.0127529)
(6.13085e-05 1.13389e-05 0.0128386)
(5.50879e-05 1.47371e-05 0.0128322)
(3.72862e-05 1.66253e-05 0.0128237)
(2.61893e-05 1.90946e-05 0.0128328)
(5.32233e-05 -3.15762e-06 0.01282)
(5.24576e-05 -2.56552e-06 0.0128185)
(3.74055e-05 -3.7755e-09 0.0128114)
(2.55752e-05 4.3176e-06 0.0128193)
(5.86746e-05 -2.37063e-05 0.012816)
(5.73789e-05 -2.31667e-05 0.0128155)
(4.29983e-05 -2.03456e-05 0.0128079)
(3.19639e-05 -1.55134e-05 0.0128106)
(4.76345e-05 -3.39246e-05 0.0127938)
(5.32352e-05 -3.96315e-05 0.0128045)
(4.29427e-05 -4.07253e-05 0.0128011)
(3.67553e-05 -4.18252e-05 0.0128033)
(3.7313e-05 6.86797e-06 0.0128478)
(3.51735e-05 8.22439e-06 0.0128524)
(2.83571e-05 9.09233e-06 0.0128507)
(2.27491e-05 9.86155e-06 0.0128519)
(3.32515e-05 -4.07667e-07 0.0128345)
(3.36855e-05 -5.50321e-07 0.012843)
(2.81887e-05 1.90623e-07 0.0128431)
(2.27197e-05 1.57895e-06 0.0128446)
(3.55393e-05 -1.02629e-05 0.0128221)
(3.56285e-05 -1.07592e-05 0.0128345)
(3.0182e-05 -1.0277e-05 0.0128365)
(2.51916e-05 -8.92225e-06 0.0128375)
(2.96717e-05 -1.60103e-05 0.012792)
(3.26872e-05 -1.92801e-05 0.0128157)
(2.92792e-05 -2.03076e-05 0.0128235)
(2.70215e-05 -2.11316e-05 0.0128265)
(2.35615e-05 4.33819e-06 0.0128515)
(2.32392e-05 4.91281e-06 0.0128616)
(2.07421e-05 5.30923e-06 0.0128636)
(1.79788e-05 5.60939e-06 0.0128634)
(2.15778e-05 8.30905e-07 0.0128406)
(2.24584e-05 5.10632e-07 0.0128542)
(2.05908e-05 6.19439e-07 0.012858)
(1.80507e-05 1.04128e-06 0.0128585)
(2.24155e-05 -3.90963e-06 0.0128244)
(2.30463e-05 -4.58523e-06 0.0128429)
(2.12039e-05 -4.74699e-06 0.0128497)
(1.90054e-05 -4.4597e-06 0.0128511)
(1.91753e-05 -7.15192e-06 0.0127908)
(2.12474e-05 -9.1164e-06 0.0128202)
(2.04451e-05 -9.83776e-06 0.0128331)
(1.9669e-05 -1.02852e-05 0.0128371)
(1.53398e-05 2.89998e-06 0.0128522)
(1.57056e-05 3.15685e-06 0.0128655)
(1.49208e-05 3.35201e-06 0.0128697)
(1.35959e-05 3.52488e-06 0.0128698)
(1.43943e-05 1.19163e-06 0.0128425)
(1.53234e-05 9.24632e-07 0.0128589)
(1.48447e-05 8.76759e-07 0.0128649)
(1.36851e-05 1.00676e-06 0.0128657)
(1.45789e-05 -1.03251e-06 0.0128244)
(1.54313e-05 -1.58925e-06 0.0128462)
(1.49951e-05 -1.8557e-06 0.0128556)
(1.40475e-05 -1.86703e-06 0.0128579)
(1.28112e-05 -2.73824e-06 0.0127891)
(1.43659e-05 -3.93459e-06 0.0128215)
(1.44688e-05 -4.46392e-06 0.0128369)
(1.42384e-05 -4.74132e-06 0.012842)
(1.02183e-05 2.01626e-06 0.012852)
(1.07875e-05 2.14094e-06 0.012867)
(1.0678e-05 2.24598e-06 0.0128726)
(1.00758e-05 2.36371e-06 0.0128734)
(9.77554e-06 1.22773e-06 0.0128428)
(1.06158e-05 1.04082e-06 0.0128607)
(1.0649e-05 9.66963e-07 0.0128681)
(1.0138e-05 9.93258e-07 0.0128696)
(9.73745e-06 2.31573e-07 0.0128238)
(1.05609e-05 -1.87445e-07 0.0128474)
(1.06379e-05 -4.31933e-07 0.0128583)
(1.02523e-05 -5.24846e-07 0.0128614)
(8.74158e-06 -7.44956e-07 0.0127877)
(9.91215e-06 -1.49693e-06 0.0128216)
(1.02808e-05 -1.85669e-06 0.0128384)
(1.02556e-05 -2.02279e-06 0.0128444)
(6.92077e-06 1.44128e-06 0.0128514)
(7.47934e-06 1.50322e-06 0.0128674)
(7.60712e-06 1.55453e-06 0.0128739)
(7.38429e-06 1.61416e-06 0.0128753)
(6.71665e-06 1.10189e-06 0.0128425)
(7.40353e-06 9.7725e-07 0.0128614)
(7.59498e-06 9.09487e-07 0.0128696)
(7.39902e-06 8.96877e-07 0.0128717)
(6.62686e-06 6.86304e-07 0.012823)
(7.31226e-06 3.93521e-07 0.0128477)
(7.53723e-06 1.92876e-07 0.0128595)
(7.40506e-06 8.29796e-08 0.0128633)
(6.05874e-06 1.17941e-07 0.0127865)
(6.90734e-06 -3.73365e-07 0.0128213)
(7.28044e-06 -6.08964e-07 0.012839)
(7.33133e-06 -7.28451e-07 0.0128456)
(4.72022e-06 1.02994e-06 0.0128507)
(5.18666e-06 1.06087e-06 0.0128674)
(5.37059e-06 1.08419e-06 0.0128745)
(5.31617e-06 1.10307e-06 0.0128763)
(4.62042e-06 8.98369e-07 0.0128419)
(5.1471e-06 8.16184e-07 0.0128614)
(5.35783e-06 7.59575e-07 0.0128702)
(5.30711e-06 7.29754e-07 0.0128728)
(4.53489e-06 7.52058e-07 0.0128222)
(5.06587e-06 5.47631e-07 0.0128475)
(5.29397e-06 3.93544e-07 0.0128599)
(5.27043e-06 2.93029e-07 0.0128642)
(4.19481e-06 4.22061e-07 0.0127855)
(4.79873e-06 9.98224e-08 0.0128209)
(5.10924e-06 -6.68826e-08 0.0128392)
(5.18046e-06 -1.60115e-07 0.0128462)
(3.18685e-06 7.17969e-07 0.0128501)
(3.54288e-06 7.35998e-07 0.0128672)
(3.7162e-06 7.50844e-07 0.0128747)
(3.69361e-06 7.64245e-07 0.0128769)
(3.13136e-06 6.82776e-07 0.0128414)
(3.51405e-06 6.23368e-07 0.0128613)
(3.69642e-06 5.74753e-07 0.0128704)
(3.69361e-06 5.37093e-07 0.0128734)
(3.06175e-06 6.49073e-07 0.0128216)
(3.44725e-06 5.1195e-07 0.0128473)
(3.6379e-06 3.97583e-07 0.0128601)
(3.65354e-06 3.11797e-07 0.0128647)
(2.85939e-06 4.57842e-07 0.0127848)
(3.27489e-06 2.4595e-07 0.0128206)
(3.50462e-06 1.31763e-07 0.0128392)
(3.57405e-06 5.90051e-08 0.0128466)
(2.0724e-06 4.7864e-07 0.0128496)
(2.32144e-06 4.89365e-07 0.012867)
(2.46249e-06 5.02771e-07 0.0128747)
(2.42644e-06 5.27947e-07 0.0128771)
(2.03825e-06 4.82283e-07 0.012841)
(2.29721e-06 4.39778e-07 0.0128611)
(2.43969e-06 4.00298e-07 0.0128705)
(2.44206e-06 3.63099e-07 0.0128736)
(1.98792e-06 4.86759e-07 0.0128212)
(2.24774e-06 4.01255e-07 0.0128471)
(2.39166e-06 3.22769e-07 0.0128601)
(2.41457e-06 2.54291e-07 0.012865)
(1.87188e-06 3.78379e-07 0.0127844)
(2.14355e-06 2.43824e-07 0.0128203)
(2.3001e-06 1.7006e-07 0.0128392)
(2.35558e-06 1.16107e-07 0.0128468)
(1.24033e-06 2.8287e-07 0.0128493)
(1.39651e-06 2.87253e-07 0.0128668)
(1.49729e-06 2.95986e-07 0.0128746)
(1.46779e-06 3.22354e-07 0.0128772)
(1.22141e-06 2.96281e-07 0.0128407)
(1.38037e-06 2.70452e-07 0.0128609)
(1.47885e-06 2.43277e-07 0.0128705)
(1.48218e-06 2.15069e-07 0.0128738)
(1.19076e-06 3.08779e-07 0.0128209)
(1.34924e-06 2.58345e-07 0.0128469)
(1.44592e-06 2.12431e-07 0.0128601)
(1.46585e-06 1.65259e-07 0.0128651)
(1.12855e-06 2.55813e-07 0.0127841)
(1.29187e-06 1.77537e-07 0.0128201)
(1.39138e-06 1.32314e-07 0.0128391)
(1.42761e-06 9.45702e-08 0.0128469)
(6.13987e-07 1.03877e-07 0.012849)
(6.94114e-07 1.01318e-07 0.0128667)
(7.49163e-07 1.00826e-07 0.0128746)
(7.48356e-07 1.11383e-07 0.0128772)
(6.04051e-07 1.15902e-07 0.0128405)
(6.86077e-07 9.98461e-08 0.0128608)
(7.39813e-07 8.49485e-08 0.0128704)
(7.50825e-07 7.0099e-08 0.0128738)
(5.85493e-07 1.28197e-07 0.0128207)
(6.68402e-07 9.85531e-08 0.0128468)
(7.2216e-07 7.36146e-08 0.0128601)
(7.39869e-07 4.92162e-08 0.0128652)
(5.54343e-07 1.18408e-07 0.0127838)
(6.38581e-07 7.55446e-08 0.01282)
(6.94902e-07 4.81032e-08 0.0128391)
(7.19261e-07 2.31796e-08 0.0128469)
(-0.00356205 0.00105976 0.029663)
(-0.000969037 -0.000521164 0.00868877)
(-0.0030375 -0.000334233 0.031356)
(-0.000323238 -0.000344574 0.0175451)
(-0.00235951 -0.000996083 0.0169652)
(-0.00268322 0.00125847 0.0177034)
(-0.00115786 0.00050955 0.0152975)
(-0.000345715 0.000976919 0.0189924)
(-0.00124975 0.00129677 0.0184645)
(-0.00126989 0.000831789 0.0203853)
(-0.00249021 0.00236564 0.0197238)
(-0.00090552 0.000560024 0.0198543)
(-0.00293806 0.000495806 0.0238221)
(-0.000265399 -0.00127812 0.0143373)
(-0.00198809 0.000910681 0.0221682)
(-0.00145653 -0.000644886 0.0186957)
(-0.000300833 -0.00112499 0.0446725)
(-0.00337673 0.00166722 0.0337916)
(0.00123151 -0.000268577 0.0190133)
(0.000373087 0.000187664 0.00549435)
(-0.000180282 0.00148067 0.0303705)
(-0.000499585 0.000712663 0.00358109)
(1.6281e-05 0.00185321 0.0166282)
(0.000332551 -0.00232287 0.0181304)
(-0.000984791 -5.30796e-05 0.0138043)
(-0.00169321 0.0012145 0.0469328)
(-0.00199175 0.000932703 0.0285774)
(-0.000917422 -0.00219769 0.0231224)
(-0.000655775 -0.000390502 0.0310346)
(-0.000917519 0.000406892 0.0194567)
(-0.00117294 -0.00104183 0.0323608)
(0.000337489 -5.84382e-05 0.017888)
(7.07405e-05 0.00146958 0.0159461)
(0.00117087 0.00488253 0.0327676)
(0.0012736 0.00079039 0.0330886)
(-0.00102443 0.00196294 0.0535671)
(0.000186544 0.00366947 0.0268459)
(0.00036464 0.00192753 0.0328706)
(-0.000731564 0.000247304 0.0137365)
(-0.00157635 -0.000977036 0.0470704)
(-0.000684417 0.000798695 0.0293541)
(0.000321452 -0.000791292 0.0224946)
(0.000384351 -0.00100994 0.0393337)
(-0.00038671 0.00135063 0.0207115)
(-0.000109879 -0.000226669 0.037601)
(-0.000318039 0.000787606 0.0357589)
(0.00231741 -0.000855418 0.028933)
(-0.00169487 0.00187756 0.0258542)
(0.000947999 0.000649178 0.0243489)
(-0.000136465 -0.000847081 0.018081)
(-0.000515139 -0.000117033 0.010514)
(0.00160976 -0.000562158 0.0394942)
(0.00138686 -0.00295204 0.03116)
(0.00121039 0.0013803 0.0491013)
(-0.00123164 -0.000280874 0.0210548)
(0.00236549 0.00294753 0.0259117)
(0.001053 0.000449479 0.0279119)
(0.000277333 0.00343671 0.0411368)
(0.00165418 -0.00168533 0.0417959)
(0.000388213 0.00202564 0.0180437)
(0.00160545 0.00114462 0.0381504)
(-7.35459e-05 0.00109992 0.0191869)
(0.00116785 -0.00137908 0.0322206)
(0.000732855 0.000484818 0.0438001)
(-0.00109776 -0.00079785 0.059381)
(-0.00173653 -0.00391943 0.0340816)
(-0.0027806 -0.000160426 0.0421286)
(0.0018393 0.00342684 0.0309868)
(0.000425253 -0.00081907 0.00683209)
(-0.000893056 -0.00143292 0.0160484)
(0.00119914 -5.89402e-05 0.0207238)
(0.000498086 0.000998557 0.0134708)
(0.00157492 -0.00271589 0.0196626)
(0.000571281 0.000921072 0.0281969)
(0.00224769 -0.00089 0.047139)
(0.000638409 0.0010953 0.0335647)
(0.00116924 0.000571173 0.0305252)
(-0.000229942 0.000711652 0.0544849)
(0.001101 7.19332e-05 0.00996788)
(0.000711667 0.00245591 0.0270147)
(-0.000158225 3.09539e-05 0.00161451)
(-0.00119738 -9.52701e-05 0.00991799)
(-0.000237771 0.0020229 0.0111627)
(-0.000398844 5.22089e-05 0.00437322)
(0.000679327 -0.00817711 0.0374447)
(0.00137653 -0.00131895 0.0248975)
(2.23863e-05 -1.21053e-05 0.0119725)
(-0.000495785 -6.3694e-05 0.0343258)
(0.00065786 -0.000414709 0.0114983)
(-0.000461679 0.000617471 0.0215938)
(0.000975544 -2.69173e-05 0.0255553)
(4.24773e-05 -3.73571e-05 0.000719741)
(0.0024401 8.49097e-05 0.0255507)
(0.000579642 0.000886816 0.0114035)
(0.000504565 0.00110541 0.014797)
(0.00112147 0.00260563 0.0372499)
(-0.0004674 0.00222955 -0.00261853)
(0.00112958 0.000627446 0.0203729)
(-8.33409e-05 -6.24999e-05 0.0199656)
(5.51793e-05 -0.000156026 0.0210076)
(-0.000636685 0.00145344 0.0118256)
(2.69295e-05 -0.000116734 0.0122697)
(0.00029764 -4.14463e-05 0.020179)
(-0.000261863 0.000418813 0.0125552)
(8.7431e-05 -4.97234e-05 0.0112713)
(0.000128022 -0.000699024 0.0168495)
(0.000822328 0.00015574 0.0236671)
(0.000210448 0.000127923 0.00950483)
(0.000581608 -0.000184377 0.0198127)
(0.0010742 -0.000884627 0.0301618)
(0.00247456 0.000801194 0.011394)
(0.000151214 -0.0024371 0.0329502)
(2.92734e-05 0.000360114 0.0521646)
(0.000375117 6.14639e-06 0.0303328)
(-4.1317e-05 -0.000115236 0.0260147)
(-5.55415e-06 0.000350536 0.0253265)
(-6.36994e-05 0.000578522 0.0319329)
(0.000319683 0.000124643 0.0233374)
(0.000267091 0.000364522 0.026131)
(-0.00017707 0.00075868 0.0258412)
(-8.80428e-05 0.000181294 0.0225654)
(0.000600667 -0.000660924 0.0262366)
(0.000626372 0.000430601 0.0295398)
(-1.09219e-05 -0.00127851 0.0294985)
(-0.000197907 -0.000197175 0.0258666)
(0.000763291 -0.000336257 0.0300274)
(0.000399807 0.000330609 0.0200235)
(-0.000161268 -0.00146084 0.0319241)
(0.000385084 8.48336e-05 0.00837885)
(0.00170146 -0.000184467 0.00653576)
(0.000668206 -0.0011096 0.00590597)
(0.000460624 -0.00161949 0.00569484)
(-0.000172721 0.00109897 0.00693681)
(0.00102012 6.63605e-05 0.00603972)
(4.13749e-05 -0.000649759 0.00666215)
(-0.000140322 -0.00174258 0.0069813)
(-0.000280734 0.000134955 0.00603719)
(0.000733995 -0.000579872 0.00662043)
(-0.000604764 0.00016406 0.00742378)
(0.000157146 -0.00121244 0.00904216)
(-0.000263279 -0.000375878 0.0063066)
(0.00108435 -2.94394e-06 0.00754112)
(-0.000373772 0.000555418 0.00593652)
(0.000108131 -0.000227826 0.00967508)
(9.47083e-05 -7.57418e-05 0.0160169)
(0.000516435 -0.000359451 0.01515)
(0.000202738 -0.000731599 0.0146544)
(0.000187287 -0.00100909 0.0145803)
(-0.000138989 0.000114905 0.0155849)
(0.000249371 -0.000281254 0.0151034)
(-0.000122605 -0.00057734 0.0150453)
(-1.29571e-05 -0.00111988 0.0154837)
(-0.000295078 5.67907e-06 0.0152135)
(7.80511e-05 -0.000278217 0.0153127)
(-0.000484423 -7.46296e-05 0.0153672)
(2.63222e-05 -0.000664013 0.0166161)
(-0.000318904 -0.000161219 0.0151655)
(0.00014934 -5.62872e-05 0.0155152)
(-0.000481849 0.000123862 0.0145977)
(6.48026e-06 -0.000130988 0.0165381)
(0.000201017 -0.000231792 0.0124467)
(0.000353972 -0.000289377 0.0122843)
(0.000170782 -0.000397041 0.0121499)
(0.000129358 -0.00053262 0.0121752)
(9.22865e-05 -0.000145343 0.0123342)
(0.000273147 -0.000228635 0.0123205)
(3.82866e-05 -0.000326113 0.0123382)
(7.5882e-05 -0.00058066 0.0125947)
(1.32446e-05 -0.000145956 0.0121811)
(0.000211637 -0.000188825 0.0123504)
(-0.000108426 -0.000153286 0.0124173)
(7.29338e-05 -0.000403848 0.0130081)
(-5.84574e-05 -0.000122248 0.0120221)
(0.000182556 -3.78296e-05 0.0122923)
(-0.000151779 -3.03474e-05 0.0120642)
(6.20135e-05 -0.000127529 0.0129399)
(7.43896e-05 -0.000116728 0.012929)
(0.000133798 -0.000161009 0.0128561)
(7.18606e-05 -0.000205456 0.0127811)
(7.40333e-05 -0.000272777 0.012796)
(2.19355e-05 -9.49684e-05 0.0129044)
(9.53412e-05 -0.000140521 0.0128819)
(1.04853e-05 -0.000175495 0.0128427)
(5.71463e-05 -0.00028638 0.0129563)
(-3.00308e-05 -6.81096e-05 0.0128369)
(5.56024e-05 -8.7615e-05 0.0128697)
(-6.01879e-05 -7.81116e-05 0.0128322)
(4.73087e-05 -0.000182205 0.0130789)
(-6.37324e-05 -5.79849e-05 0.0127472)
(3.08145e-05 -2.3707e-05 0.0128105)
(-9.39483e-05 -2.03698e-05 0.0126842)
(3.80795e-05 -5.43541e-05 0.0130377)
(5.63752e-05 -6.9626e-05 0.0127723)
(8.23193e-05 -8.40937e-05 0.0127869)
(5.30612e-05 -0.000100663 0.0127783)
(5.39323e-05 -0.000131119 0.012799)
(3.1781e-05 -6.00653e-05 0.0127255)
(6.57799e-05 -7.45992e-05 0.0127676)
(2.65815e-05 -8.84461e-05 0.0127757)
(4.86856e-05 -0.000137309 0.0128424)
(7.0439e-06 -4.64922e-05 0.0126454)
(4.77824e-05 -4.83439e-05 0.01271)
(-4.8966e-06 -4.81514e-05 0.0127193)
(4.22081e-05 -9.40785e-05 0.0128417)
(-1.6814e-05 -3.16983e-05 0.0125281)
(2.95034e-05 -1.22476e-05 0.0126003)
(-2.55272e-05 -1.58289e-05 0.0125791)
(3.54221e-05 -3.093e-05 0.0127466)
(3.40139e-05 -3.28787e-05 0.012761)
(4.70138e-05 -4.03966e-05 0.0127873)
(3.69024e-05 -4.83351e-05 0.0127936)
(3.88215e-05 -6.26235e-05 0.0128061)
(2.15079e-05 -2.90641e-05 0.0127084)
(3.85084e-05 -3.63245e-05 0.0127462)
(2.47891e-05 -4.26338e-05 0.0127601)
(3.67864e-05 -6.43744e-05 0.0127933)
(7.92269e-06 -2.11912e-05 0.0126281)
(2.82907e-05 -2.25487e-05 0.0126721)
(1.01155e-05 -2.46612e-05 0.0126851)
(3.30319e-05 -4.54558e-05 0.012742)
(-5.55471e-06 -1.36116e-05 0.012518)
(1.65053e-05 -5.14478e-06 0.0125587)
(-2.30281e-06 -7.89595e-06 0.0125585)
(2.81347e-05 -1.5221e-05 0.0126319)
(2.23393e-05 -1.48215e-05 0.0127486)
(2.95234e-05 -1.84951e-05 0.0127841)
(2.63901e-05 -2.28799e-05 0.0127999)
(2.78281e-05 -2.96463e-05 0.0128094)
(1.60248e-05 -1.33017e-05 0.0126893)
(2.48761e-05 -1.67805e-05 0.0127305)
(2.05498e-05 -2.0246e-05 0.0127517)
(2.68166e-05 -3.01805e-05 0.0127718)
(8.87406e-06 -9.00617e-06 0.0126045)
(1.92268e-05 -9.72669e-06 0.0126465)
(1.33662e-05 -1.15973e-05 0.0126675)
(2.46297e-05 -2.14384e-05 0.0126982)
(1.08334e-06 -4.69584e-06 0.0124918)
(1.22867e-05 -9.72714e-07 0.0125271)
(6.44424e-06 -2.8498e-06 0.012541)
(2.14251e-05 -6.8887e-06 0.0125777)
(1.50295e-05 -5.77788e-06 0.0127425)
(1.94162e-05 -7.76407e-06 0.0127817)
(1.89594e-05 -1.04224e-05 0.0128018)
(1.98717e-05 -1.37643e-05 0.0128107)
(1.17226e-05 -5.19249e-06 0.0126798)
(1.66695e-05 -7.04501e-06 0.0127219)
(1.59627e-05 -9.30513e-06 0.0127467)
(1.9127e-05 -1.39947e-05 0.0127616)
(7.80947e-06 -2.75555e-06 0.0125927)
(1.33115e-05 -3.43104e-06 0.0126329)
(1.2202e-05 -5.05065e-06 0.0126579)
(1.78575e-05 -9.92018e-06 0.0126778)
(3.26655e-06 -5.34369e-07 0.0124793)
(9.16046e-06 8.32947e-07 0.0125108)
(8.22274e-06 -4.85473e-07 0.0125301)
(1.57844e-05 -2.90918e-06 0.0125513)
(1.04791e-05 -1.51765e-06 0.0127382)
(1.32291e-05 -2.71733e-06 0.0127795)
(1.35628e-05 -4.41024e-06 0.0128019)
(1.41466e-05 -6.20604e-06 0.0128111)
(8.64082e-06 -1.49168e-06 0.0126737)
(1.15755e-05 -2.54801e-06 0.0127165)
(1.19787e-05 -3.99074e-06 0.0127434)
(1.35872e-05 -6.33009e-06 0.0127566)
(6.40365e-06 -1.4559e-09 0.0125852)
(9.52967e-06 -5.72131e-07 0.0126249)
(9.92718e-06 -1.82188e-06 0.0126521)
(1.27346e-05 -4.43584e-06 0.012668)
(3.67478e-06 1.12092e-06 0.0124713)
(6.99719e-06 1.4777e-06 0.0125014)
(7.56156e-06 5.00135e-07 0.0125233)
(1.13841e-05 -1.10959e-06 0.0125385)
(7.3223e-06 3.65485e-07 0.0127353)
(9.17142e-06 -3.79346e-07 0.0127779)
(9.71204e-06 -1.52789e-06 0.0128016)
(1.00955e-05 -2.63302e-06 0.0128113)
(6.34195e-06 2.04454e-07 0.0126699)
(8.14303e-06 -4.51377e-07 0.0127132)
(8.74835e-06 -1.42826e-06 0.0127412)
(9.6182e-06 -2.7342e-06 0.0127543)
(5.02713e-06 1.01204e-06 0.0125807)
(6.9003e-06 5.61932e-07 0.0126204)
(7.60186e-06 -3.53323e-07 0.0126487)
(9.04477e-06 -1.86195e-06 0.0126634)
(3.32649e-06 1.60611e-06 0.0124665)
(5.31088e-06 1.55977e-06 0.0124961)
(6.1514e-06 8.13916e-07 0.0125193)
(8.12743e-06 -3.04156e-07 0.0125323)
(5.16268e-06 9.70401e-07 0.0127334)
(6.42435e-06 4.95145e-07 0.0127767)
(6.9201e-06 -2.8078e-07 0.0128012)
(7.16296e-06 -9.99798e-07 0.0128115)
(4.60161e-06 7.95863e-07 0.0126674)
(5.76512e-06 3.88177e-07 0.0127112)
(6.30905e-06 -2.93497e-07 0.0127399)
(6.80078e-06 -1.09267e-06 0.0127532)
(3.82329e-06 1.26493e-06 0.0125779)
(4.99311e-06 9.1249e-07 0.0126176)
(5.62048e-06 2.44785e-07 0.0126467)
(6.39749e-06 -6.97225e-07 0.0126612)
(2.74368e-06 1.54327e-06 0.0124636)
(3.98739e-06 1.36259e-06 0.012493)
(4.71839e-06 7.99316e-07 0.0125169)
(5.77393e-06 1.3085e-08 0.0125293)
(3.62511e-06 1.04012e-06 0.0127322)
(4.48318e-06 7.29372e-07 0.0127759)
(4.86284e-06 2.02534e-07 0.0128009)
(5.02969e-06 -2.81041e-07 0.0128116)
(3.29116e-06 8.79519e-07 0.0126658)
(4.05882e-06 6.14005e-07 0.0127099)
(4.47604e-06 1.51048e-07 0.0127391)
(4.76497e-06 -3.62355e-07 0.0127528)
(2.81431e-06 1.16996e-06 0.0125761)
(3.56902e-06 9.08778e-07 0.012616)
(4.04644e-06 4.31176e-07 0.0126455)
(4.48287e-06 -1.87142e-07 0.0126602)
(2.11946e-06 1.29586e-06 0.0124617)
(2.92637e-06 1.09864e-06 0.0124912)
(3.47267e-06 6.79743e-07 0.0125155)
(4.05567e-06 1.22381e-07 0.012528)
(2.49278e-06 8.89449e-07 0.0127313)
(3.06698e-06 6.84654e-07 0.0127753)
(3.33953e-06 3.32392e-07 0.0128007)
(3.45501e-06 6.29905e-09 0.0128117)
(2.29284e-06 7.59529e-07 0.0126648)
(2.79666e-06 5.86907e-07 0.0127091)
(3.09137e-06 2.75757e-07 0.0127387)
(3.26821e-06 -5.92707e-08 0.0127526)
(1.99574e-06 9.43815e-07 0.0125749)
(2.48603e-06 7.56111e-07 0.012615)
(2.82217e-06 4.24494e-07 0.0126449)
(3.07529e-06 1.31552e-08 0.0126597)
(1.55133e-06 9.97515e-07 0.0124606)
(2.07594e-06 8.28576e-07 0.0124902)
(2.45477e-06 5.25676e-07 0.0125147)
(2.78382e-06 1.36643e-07 0.0125273)
(1.64038e-06 6.64753e-07 0.0127307)
(2.009e-06 5.31832e-07 0.0127749)
(2.19418e-06 3.06734e-07 0.0128005)
(2.27279e-06 9.4146e-08 0.0128118)
(1.52183e-06 5.72247e-07 0.0126642)
(1.84248e-06 4.63103e-07 0.0127087)
(2.03814e-06 2.61887e-07 0.0127384)
(2.14664e-06 4.62e-08 0.0127525)
(1.34123e-06 6.85747e-07 0.0125742)
(1.65183e-06 5.58064e-07 0.0126145)
(1.87331e-06 3.38014e-07 0.0126445)
(2.02068e-06 7.1486e-08 0.0126595)
(1.06622e-06 7.07607e-07 0.0124599)
(1.39882e-06 5.81065e-07 0.0124895)
(1.64556e-06 3.73545e-07 0.0125143)
(1.83234e-06 1.13381e-07 0.012527)
(9.96479e-07 4.23361e-07 0.0127304)
(1.21126e-06 3.43073e-07 0.0127747)
(1.32566e-06 2.11098e-07 0.0128005)
(1.3764e-06 8.53462e-08 0.0128119)
(9.26684e-07 3.72139e-07 0.0126638)
(1.11588e-06 3.06077e-07 0.0127084)
(1.2357e-06 1.87125e-07 0.0127382)
(1.29962e-06 5.71367e-08 0.0127525)
(8.24064e-07 4.39339e-07 0.0125738)
(1.00807e-06 3.60471e-07 0.0126141)
(1.14192e-06 2.26072e-07 0.0126443)
(1.22465e-06 6.53541e-08 0.0126595)
(6.69069e-07 4.53442e-07 0.0124594)
(8.6675e-07 3.70527e-07 0.0124892)
(1.015e-06 2.39895e-07 0.0125141)
(1.11721e-06 7.84007e-08 0.0125269)
(5.0081e-07 1.83952e-07 0.0127302)
(5.9981e-07 1.37654e-07 0.0127746)
(6.6264e-07 7.71143e-08 0.0128004)
(6.9251e-07 1.98392e-08 0.0128119)
(4.61116e-07 1.80782e-07 0.0126635)
(5.52928e-07 1.41117e-07 0.0127082)
(6.19878e-07 8.05772e-08 0.0127381)
(6.56959e-07 1.58561e-08 0.0127525)
(4.09969e-07 2.20092e-07 0.0125735)
(5.02966e-07 1.77519e-07 0.0126139)
(5.77718e-07 1.09824e-07 0.0126441)
(6.24835e-07 2.80398e-08 0.0126594)
(3.43931e-07 2.3953e-07 0.0124592)
(4.44921e-07 1.97416e-07 0.012489)
(5.27885e-07 1.29961e-07 0.0125139)
(5.85456e-07 4.26052e-08 0.0125269)
(0.00153998 0.00358965 0.0237612)
(-0.00222018 0.0041942 0.0331383)
(-0.00130829 0.000611308 0.0140802)
(0.000792854 0.00120243 0.0227958)
(0.000375238 0.00121744 0.00680428)
(-0.00118962 0.00270065 0.0236804)
(-0.000141128 0.00257074 0.0157272)
(0.000868287 0.00370114 0.0207716)
(-0.00281552 0.00332609 0.0230133)
(-0.00512463 0.00373373 0.0204205)
(-0.00123771 0.0025464 0.014711)
(-0.00211505 0.00278039 0.0235827)
(-0.00140949 -0.00156199 0.0172326)
(-0.000480636 -0.000341808 0.00874572)
(-0.0016157 0.00146151 0.0318089)
(-0.00143291 0.000425503 0.0132635)
(0.000314248 0.000380875 0.0113698)
(-0.000743123 0.00200214 0.0257293)
(-0.000797123 0.000933487 0.0088659)
(-0.000330045 -8.1427e-05 0.00821851)
(-0.000636233 0.000638713 0.0390079)
(-0.00115969 -0.000329123 0.0156252)
(-0.0033945 -0.000342643 0.0257116)
(-0.00152018 -0.000545936 0.0240189)
(-0.00396236 0.000929176 0.0477555)
(-0.00198821 0.000956461 0.0235086)
(-0.00219951 -0.000125294 0.0204587)
(-0.00161958 0.00320093 0.0474072)
(0.000194131 -0.00146789 0.0230429)
(-0.00298016 0.00103559 0.0363447)
(-0.00215338 0.000298804 0.0164305)
(0.000837305 0.000423004 0.0216917)
(-0.00129375 -0.00465191 0.0432406)
(-0.000747675 0.00265114 0.0657897)
(-0.00080879 0.00104777 0.027255)
(-0.00250654 -0.00185465 0.0453809)