/*--------------------------------*- C++ -*----------------------------------*\
| =========                 |                                                 |
| \\      /  F ield         | OpenFOAM: The Open Source CFD Toolbox           |
|  \\    /   O peration     | Version:  2506                                  |
|   \\  /    A nd           | Website:  www.openfoam.com                      |
|    \\/     M anipulation  |                                                 |
\*---------------------------------------------------------------------------*/
FoamFile
{
    version     2.0;
    format      ascii;
    arch        "LSB;label=32;scalar=64";
    class       volVectorField;
    location    "0.06";
    object      Us;
}
// * * * * * * * * * * * * * * * * * * * * * * * * * * * * * * * * * * * * * //

dimensions      [0 1 -1 0 0 0 0];

internalField   nonuniform List<vector> 
1152
(
(0.000245164 0.000102903 0.000244809)
(7.64075e-05 -0.000216111 -5.74138e-05)
(8.04672e-05 -0.000213987 7.34509e-05)
(0.000391555 0.000227365 8.084e-05)
(-0.000121466 0.000328185 0.000125944)
(1.5441e-05 0.000152241 2.12255e-05)
(0.000254219 -0.000114678 0.000171238)
(0.000370289 -0.000335272 0.00023999)
(0.000151489 0.000192881 -2.57335e-05)
(-0.000100713 0.000104231 -0.000170815)
(-0.000206371 -5.8838e-05 -0.000142485)
(-0.000105219 0.000157824 7.64512e-05)
(-7.13008e-06 -4.487e-05 0.000127481)
(-0.000351251 0.000109103 -0.000102276)
(-1.10456e-05 -2.24932e-05 -0.000225626)
(0.000780755 -0.00100465 -0.000214838)
(0.000325202 -0.000367108 0.000751071)
(-8.31865e-05 4.54858e-05 0.000755573)
(0.000779921 -0.000118359 0.00135434)
(-0.000217032 -0.000350384 0.000840798)
(0.000457886 -0.000335508 0.000660262)
(0.000177459 -0.000303766 0.000310181)
(7.40202e-05 -8.67762e-05 0.00105849)
(0.000234378 -0.00052473 0.00194287)
(7.08754e-05 6.00574e-05 0.000491135)
(-8.18807e-05 -0.000774135 0.000305032)
(-0.000278797 -6.64387e-05 0.000256091)
(3.11954e-05 -0.00053198 0.00163996)
(-0.000337393 0.000141955 0.00113672)
(-0.000774943 5.99891e-05 0.000828195)
(-0.000384226 -0.000408424 0.000769633)
(-0.000101498 -0.00050196 0.0009375)
(0.000594169 -0.000799215 0.00168632)
(0.0007189 -2.43523e-05 0.00131949)
(3.2562e-05 8.48045e-05 0.00146903)
(0.00041712 -0.00060034 0.0031985)
(-0.000310138 -0.000204689 0.00204309)
(0.00024677 -0.000289409 0.0014988)
(-0.000278651 -0.000125165 0.0014871)
(0.000236424 -0.00113894 0.00388575)
(-0.000237301 -0.000616448 0.00124537)
(-0.000336243 -0.000598203 0.00135763)
(-0.000144438 -0.000539175 0.00137389)
(-0.000376642 -0.000695094 0.00197703)
(-0.000365429 0.000486826 0.00127339)
(-0.00015472 -0.000118424 0.00109703)
(-0.000564877 -0.000492683 0.00176297)
(-8.43045e-05 -0.000163397 0.00137636)
(-5.0321e-05 -0.000443616 0.00218453)
(2.95797e-05 5.19526e-05 0.00177104)
(4.82602e-06 0.00019765 0.00158)
(-0.000319295 -0.000115396 0.00190668)
(6.75532e-05 -0.000923184 0.00162025)
(0.000128716 -0.0010798 0.00205502)
(0.000118924 -0.000280798 0.00119294)
(-0.000650563 -0.000598702 0.00503678)
(0.000119747 -0.000264295 0.000981884)
(0.000226907 -0.000386274 0.00104079)
(0.000142798 -0.000711424 0.00165428)
(-0.000213146 -0.000298595 0.00102574)
(6.49803e-05 -0.000124001 0.00152381)
(0.000305686 0.000127916 0.00128317)
(8.79993e-05 0.000347961 0.0018646)
(-0.000102697 -0.000281162 0.0012196)
(-1.14574e-05 -0.000115957 0.00138745)
(-4.12866e-05 0.000242154 0.0016303)
(-0.000121913 2.85538e-05 0.00137357)
(-7.91109e-05 -6.7018e-05 0.00136679)
(4.22233e-05 5.80344e-06 0.00124811)
(-2.05731e-05 1.39058e-05 0.00117696)
(-0.000121787 4.60927e-05 0.00110174)
(-0.000186292 -8.60484e-06 0.00112601)
(0.000142191 0.000393235 0.00172511)
(-6.66041e-05 -0.000103938 0.00105619)
(-5.198e-05 -1.78964e-05 0.00151273)
(1.39789e-05 5.9489e-05 0.00114592)
(0.000246262 7.65906e-05 0.00139136)
(-4.87859e-05 -0.000158567 0.000935054)
(-5.34922e-05 -0.000288759 0.00085988)
(3.30386e-05 2.66755e-05 0.00081701)
(2.00711e-05 0.000160491 0.00151372)
(2.35151e-05 0.000139213 0.0013129)
(-6.48714e-05 3.69069e-05 0.0013721)
(3.84733e-05 -2.83205e-05 0.00129942)
(-5.46272e-06 8.71903e-05 0.00128899)
(7.84007e-06 0.0001197 0.00110091)
(-5.70652e-06 3.94395e-05 0.00102856)
(1.83053e-05 9.67996e-05 0.00103142)
(-2.79024e-06 0.000146057 0.00102214)
(-0.000175631 6.91085e-05 0.00100807)
(-7.68214e-05 4.04197e-05 0.0009857)
(-6.75137e-06 3.41753e-05 0.000826981)
(-5.86805e-05 0.000372708 0.000641404)
(-0.000267782 -3.12769e-06 0.00076441)
(-0.000193803 -0.000126649 0.000786328)
(-1.57177e-05 4.01293e-05 0.000624619)
(0.00026433 0.0003365 0.00149074)
(0.000242777 0.000319829 0.00135887)
(-3.8337e-05 0.000317822 0.00120894)
(0.000310314 0.000411802 0.00109668)
(0.000112423 0.000247808 0.00126569)
(8.38856e-05 0.000406534 0.00104902)
(-4.83389e-07 0.000217701 0.0010368)
(2.04921e-05 0.000249212 0.00108064)
(-3.33436e-05 0.000476601 0.00096271)
(-0.000324077 0.000241364 0.000743377)
(-0.000186531 0.000205386 0.000807479)
(7.38236e-05 0.000234589 0.000905442)
(-0.000447944 0.000267929 0.000472043)
(-0.000933755 5.80877e-06 0.000568198)
(-0.000490138 0.00025114 0.000642793)
(-0.00019657 0.000190375 0.000458127)
(0 0 0)
(0 0 0)
(0 0 0)
(0 0 0)
(0 0 0)
(0 0 0)
(0 0 0)
(0 0 0)
(0 0 0)
(0 0 0)
(0 0 0)
(0 0 0)
(0 0 0)
(0 0 0)
(0 0 0)
(0 0 0)
(0 0 0)
(0 0 0)
(0 0 0)
(0 0 0)
(0 0 0)
(0 0 0)
(0 0 0)
(0 0 0)
(0 0 0)
(0 0 0)
(0 0 0)
(0 0 0)
(0 0 0)
(0 0 0)
(0 0 0)
(0 0 0)
(0 0 0)
(0 0 0)
(0 0 0)
(0 0 0)
(0 0 0)
(0 0 0)
(0 0 0)
(0 0 0)
(0 0 0)
(0 0 0)
(0 0 0)
(0 0 0)
(0 0 0)
(0 0 0)
(0 0 0)
(0 0 0)
(0 0 0)
(0 0 0)
(0 0 0)
(0 0 0)
(0 0 0)
(0 0 0)
(0 0 0)
(0 0 0)
(0 0 0)
(0 0 0)
(0 0 0)
(0 0 0)
(0 0 0)
(0 0 0)
(0 0 0)
(0 0 0)
(0 0 0)
(0 0 0)
(0 0 0)
(0 0 0)
(0 0 0)
(0 0 0)
(0 0 0)
(0 0 0)
(0 0 0)
(0 0 0)
(0 0 0)
(0 0 0)
(0 0 0)
(0 0 0)
(0 0 0)
(0 0 0)
(0 0 0)
(0 0 0)
(0 0 0)
(0 0 0)
(0 0 0)
(0 0 0)
(0 0 0)
(0 0 0)
(0 0 0)
(0 0 0)
(0 0 0)
(0 0 0)
(0 0 0)
(0 0 0)
(0 0 0)
(0 0 0)
(0 0 0)
(0 0 0)
(0 0 0)
(0 0 0)
(0 0 0)
(0 0 0)
(0 0 0)
(0 0 0)
(0 0 0)
(0 0 0)
(0 0 0)
(0 0 0)
(0 0 0)
(0 0 0)
(0 0 0)
(0 0 0)
(0 0 0)
(0 0 0)
(0 0 0)
(0 0 0)
(0 0 0)
(0 0 0)
(0 0 0)
(0 0 0)
(0 0 0)
(0 0 0)
(0 0 0)
(0 0 0)
(0 0 0)
(0 0 0)
(0 0 0)
(0 0 0)
(0 0 0)
(0 0 0)
(0 0 0)
(0 0 0)
(0 0 0)
(0 0 0)
(0 0 0)
(0 0 0)
(0 0 0)
(0 0 0)
(0 0 0)
(0 0 0)
(0 0 0)
(0 0 0)
(0 0 0)
(0 0 0)
(0 0 0)
(0 0 0)
(0 0 0)
(0 0 0)
(0 0 0)
(0 0 0)
(0 0 0)
(0 0 0)
(0 0 0)
(0 0 0)
(0 0 0)
(0 0 0)
(0 0 0)
(0 0 0)
(0 0 0)
(0 0 0)
(0 0 0)
(0 0 0)
(0 0 0)
(0 0 0)
(0 0 0)
(0 0 0)
(0 0 0)
(0 0 0)
(0 0 0)
(0 0 0)
(0 0 0)
(0 0 0)
(0 0 0)
(0 0 0)
(0 0 0)
(0 0 0)
(0 0 0)
(0 0 0)
(0 0 0)
(0 0 0)
(0 0 0)
(0 0 0)
(0 0 0)
(0 0 0)
(0 0 0)
(0 0 0)
(0 0 0)
(0 0 0)
(0 0 0)
(0 0 0)
(0 0 0)
(0 0 0)
(0 0 0)
(0 0 0)
(0 0 0)
(0 0 0)
(0 0 0)
(0 0 0)
(0 0 0)
(0 0 0)
(0 0 0)
(0 0 0)
(0 0 0)
(0 0 0)
(0 0 0)
(0 0 0)
(0 0 0)
(0 0 0)
(0 0 0)
(0 0 0)
(0 0 0)
(0 0 0)
(0 0 0)
(0 0 0)
(0 0 0)
(0 0 0)
(0 0 0)
(0 0 0)
(0 0 0)
(0 0 0)
(0 0 0)
(0 0 0)
(0 0 0)
(0 0 0)
(0 0 0)
(0 0 0)
(0 0 0)
(0 0 0)
(0 0 0)
(0 0 0)
(0 0 0)
(0 0 0)
(0 0 0)
(0 0 0)
(0 0 0)
(0 0 0)
(0 0 0)
(0 0 0)
(0 0 0)
(0 0 0)
(0 0 0)
(0 0 0)
(0 0 0)
(0 0 0)
(0 0 0)
(0 0 0)
(0 0 0)
(0 0 0)
(0 0 0)
(0 0 0)
(0 0 0)
(0 0 0)
(0 0 0)
(0 0 0)
(0 0 0)
(0 0 0)
(0 0 0)
(0 0 0)
(0 0 0)
(0 0 0)
(0 0 0)
(0 0 0)
(0 0 0)
(0 0 0)
(0 0 0)
(0 0 0)
(0 0 0)
(0 0 0)
(0 0 0)
(0 0 0)
(0 0 0)
(0 0 0)
(-2.88404e-05 -0.00034006 -3.5948e-06)
(-2.07475e-05 2.28585e-06 -0.000214622)
(0.000404887 -0.000538879 -0.000549066)
(0.00040469 -0.000262756 -0.000491716)
(-0.000143442 -0.000146016 -0.000201046)
(0.000117723 -6.81812e-05 5.85326e-05)
(9.52964e-05 -0.00049595 8.82538e-05)
(0.000296641 -0.000303347 -7.19422e-06)
(-6.85744e-05 -0.000135471 -0.00022306)
(0.000277971 -8.41053e-05 -2.59119e-06)
(0.000185589 -6.3558e-05 -9.56861e-05)
(1.49017e-05 1.03967e-05 -0.0003121)
(-6.56722e-05 -7.45617e-05 -0.000619793)
(0.000126248 -9.44556e-05 3.65137e-05)
(4.91452e-05 6.42821e-05 -0.000101182)
(-8.96749e-05 -0.00012165 3.47079e-05)
(-7.2113e-05 -6.23878e-06 0.00167756)
(-3.61396e-05 0.000391199 0.00105136)
(-0.000378137 -0.000366526 0.000849675)
(4.29028e-05 -0.000590769 0.000636068)
(0.000212355 -3.89665e-05 0.000392085)
(-0.000301607 0.000632794 -5.49755e-05)
(-0.000302385 0.00024262 0.000658499)
(-0.000193754 -0.000411954 0.000988037)
(-0.000322323 0.000213708 0.000583156)
(-0.000274302 0.000146812 0.000742565)
(-0.000832935 0.000147365 0.000982447)
(-0.000532113 -0.000545582 0.000445841)
(-0.000251123 -7.85436e-05 0.000698261)
(-0.00016743 1.43383e-05 0.00093038)
(-3.29153e-05 -0.000119964 0.00106129)
(-9.75716e-05 -0.000306669 0.000451906)
(0.000316352 0.000917047 0.0023114)
(0.000851846 0.000338336 0.00203039)
(-0.000143325 -0.000443221 0.00118083)
(0.000365993 -0.000147577 0.00100926)
(6.0803e-05 0.000366287 0.00128722)
(-0.000160688 0.000404664 0.00231054)
(-0.000366757 -0.000218325 0.000837355)
(-0.000113897 -0.000244795 0.00136476)
(-4.18434e-05 -2.34749e-05 0.00142138)
(-0.000212576 0.000284988 0.00154601)
(-0.000129439 -0.000174482 0.00119013)
(-0.000318717 0.000296277 0.00201971)
(0.000161135 6.94261e-05 0.00275096)
(0.00032056 0.000579033 0.00135534)
(0.000912809 -0.000161792 0.00217122)
(0.00018025 0.000406263 0.00159083)
(0.000363268 -0.000192772 0.00112894)
(4.20415e-05 -0.000376006 0.00083089)
(5.51546e-05 2.22502e-05 0.00112542)
(0.000223518 0.000129318 0.000825222)
(0.000340847 -0.000794662 0.00121647)
(6.49623e-05 5.14873e-05 0.00173376)
(-0.000185663 -8.93206e-05 0.00123379)
(0.000666397 0.000242339 0.00137144)
(-0.000333689 -0.000269527 0.000879018)
(-3.97435e-05 4.10337e-05 0.00191218)
(0.000298657 -0.000203781 0.000730322)
(-3.38247e-06 -6.54858e-05 0.00066197)
(-3.86e-05 -3.75751e-07 0.00104638)
(0.000365951 0.00034929 0.00112423)
(0.000892858 0.000126765 0.00183128)
(-0.000364641 -0.000120758 0.00246539)
(-0.000189197 -0.000256583 0.00130645)
(-0.00037111 -0.00052288 0.00107236)
(-0.000463666 -0.000509007 0.00109859)
(-5.12477e-05 -0.000138115 0.000361694)
(5.58746e-05 -6.10094e-06 0.00108109)
(-0.000508477 -0.000402021 0.00110046)
(-0.000808039 -0.000333044 0.000903369)
(0.000207986 1.31281e-05 0.000469482)
(0.000110988 -0.000524172 0.00115642)
(5.70931e-06 -9.30664e-05 0.000484967)
(-9.29041e-05 -9.21995e-05 0.000540214)
(-0.000126575 -0.000126037 0.000410166)
(0.00023573 -0.000163299 0.000525202)
(-0.000636581 -0.000341884 0.00140076)
(0.000295199 0.00011496 0.000623429)
(-3.15557e-07 5.55221e-05 0.00070306)
(-0.000192143 0.000185511 0.00095795)
(-0.000223852 0.000172322 0.00063266)
(-0.000249042 -0.000167253 0.000453243)
(-5.19012e-05 -0.000102803 0.000387811)
(1.87872e-05 -2.20256e-05 0.000659674)
(7.63619e-05 -0.000229287 0.000671551)
(-8.42277e-05 -0.000137807 0.000382418)
(3.9635e-05 -0.000128068 0.000354562)
(0.000292043 0.000133621 0.000721585)
(0.000117914 -0.000186351 0.000377842)
(-0.000194599 -0.000243047 0.00026216)
(-1.66625e-05 -9.91818e-05 0.000215597)
(0.000330361 0.000139381 0.000207624)
(0.000113428 2.44257e-05 0.000224213)
(3.66938e-05 -8.13817e-05 0.00028973)
(-5.37015e-05 -3.34368e-05 0.000379151)
(-0.000139012 0.00021526 0.000257974)
(-0.000224817 -3.09077e-05 0.000518054)
(-0.000191557 0.000181249 0.000356792)
(-0.000162572 0.000109991 0.000530261)
(-0.000443294 0.000285469 0.00018609)
(-0.000119792 -4.00421e-05 0.000443601)
(0.000192336 0.00017789 0.000431967)
(-0.000160924 -1.10448e-05 0.000407933)
(7.63586e-05 6.22477e-05 0.00026185)
(0.000195319 -0.000342214 0.0001814)
(2.39043e-05 -0.000109327 0.000314181)
(6.63494e-05 0.000293886 4.51708e-05)
(0.000332623 0.000251076 0.000264455)
(0.000485979 -0.000872059 0.000255848)
(0.0024331 0.00057922 -0.000105933)
(-0.000109222 1.10323e-05 0.00010841)
(0 0 0)
(0 0 0)
(0 0 0)
(0 0 0)
(0 0 0)
(0 0 0)
(0 0 0)
(0 0 0)
(0 0 0)
(0 0 0)
(0 0 0)
(0 0 0)
(0 0 0)
(0 0 0)
(0 0 0)
(0 0 0)
(0 0 0)
(0 0 0)
(0 0 0)
(0 0 0)
(0 0 0)
(0 0 0)
(0 0 0)
(0 0 0)
(0 0 0)
(0 0 0)
(0 0 0)
(0 0 0)
(0 0 0)
(0 0 0)
(0 0 0)
(0 0 0)
(0 0 0)
(0 0 0)
(0 0 0)
(0 0 0)
(0 0 0)
(0 0 0)
(0 0 0)
(0 0 0)
(0 0 0)
(0 0 0)
(0 0 0)
(0 0 0)
(0 0 0)
(0 0 0)
(0 0 0)
(0 0 0)
(0 0 0)
(0 0 0)
(0 0 0)
(0 0 0)
(0 0 0)
(0 0 0)
(0 0 0)
(0 0 0)
(0 0 0)
(0 0 0)
(0 0 0)
(0 0 0)
(0 0 0)
(0 0 0)
(0 0 0)
(0 0 0)
(0 0 0)
(0 0 0)
(0 0 0)
(0 0 0)
(0 0 0)
(0 0 0)
(0 0 0)
(0 0 0)
(0 0 0)
(0 0 0)
(0 0 0)
(0 0 0)
(0 0 0)
(0 0 0)
(0 0 0)
(0 0 0)
(0 0 0)
(0 0 0)
(0 0 0)
(0 0 0)
(0 0 0)
(0 0 0)
(0 0 0)
(0 0 0)
(0 0 0)
(0 0 0)
(0 0 0)
(0 0 0)
(0 0 0)
(0 0 0)
(0 0 0)
(0 0 0)
(0 0 0)
(0 0 0)
(0 0 0)
(0 0 0)
(0 0 0)
(0 0 0)
(0 0 0)
(0 0 0)
(0 0 0)
(0 0 0)
(0 0 0)
(0 0 0)
(0 0 0)
(0 0 0)
(0 0 0)
(0 0 0)
(0 0 0)
(0 0 0)
(0 0 0)
(0 0 0)
(0 0 0)
(0 0 0)
(0 0 0)
(0 0 0)
(0 0 0)
(0 0 0)
(0 0 0)
(0 0 0)
(0 0 0)
(0 0 0)
(0 0 0)
(0 0 0)
(0 0 0)
(0 0 0)
(0 0 0)
(0 0 0)
(0 0 0)
(0 0 0)
(0 0 0)
(0 0 0)
(0 0 0)
(0 0 0)
(0 0 0)
(0 0 0)
(0 0 0)
(0 0 0)
(0 0 0)
(0 0 0)
(0 0 0)
(0 0 0)
(0 0 0)
(0 0 0)
(0 0 0)
(0 0 0)
(0 0 0)
(0 0 0)
(0 0 0)
(0 0 0)
(0 0 0)
(0 0 0)
(0 0 0)
(0 0 0)
(0 0 0)
(0 0 0)
(0 0 0)
(0 0 0)
(0 0 0)
(0 0 0)
(0 0 0)
(0 0 0)
(0 0 0)
(0 0 0)
(0 0 0)
(0 0 0)
(0 0 0)
(0 0 0)
(0 0 0)
(0 0 0)
(0 0 0)
(0 0 0)
(0 0 0)
(0 0 0)
(0 0 0)
(0 0 0)
(0 0 0)
(0 0 0)
(0 0 0)
(0 0 0)
(0 0 0)
(0 0 0)
(0 0 0)
(0 0 0)
(0 0 0)
(0 0 0)
(0 0 0)
(0 0 0)
(0 0 0)
(0 0 0)
(0 0 0)
(0 0 0)
(0 0 0)
(0 0 0)
(0 0 0)
(0 0 0)
(0 0 0)
(0 0 0)
(0 0 0)
(0 0 0)
(0 0 0)
(0 0 0)
(0 0 0)
(0 0 0)
(0 0 0)
(0 0 0)
(0 0 0)
(0 0 0)
(0 0 0)
(0 0 0)
(0 0 0)
(0 0 0)
(0 0 0)
(0 0 0)
(0 0 0)
(0 0 0)
(0 0 0)
(0 0 0)
(0 0 0)
(0 0 0)
(0 0 0)
(0 0 0)
(0 0 0)
(0 0 0)
(0 0 0)
(0 0 0)
(0 0 0)
(0 0 0)
(0 0 0)
(0 0 0)
(0 0 0)
(0 0 0)
(0 0 0)
(0 0 0)
(0 0 0)
(0 0 0)
(0 0 0)
(0 0 0)
(0 0 0)
(0 0 0)
(0 0 0)
(0 0 0)
(0 0 0)
(0 0 0)
(0 0 0)
(0 0 0)
(0 0 0)
(0 0 0)
(0 0 0)
(0 0 0)
(0 0 0)
(0 0 0)
(0 0 0)
(0 0 0)
(0 0 0)
(0 0 0)
(0 0 0)
(0 0 0)
(0 0 0)
(0 0 0)
(0 0 0)
(0 0 0)
(0 0 0)
(0 0 0)
(0 0 0)
(0 0 0)
(0 0 0)
(0 0 0)
(0.000195897 0.000133898 0.000437626)
(0.000169638 0.000474685 4.90663e-05)
(0.000140707 -0.000123061 -2.72188e-05)
(0.000289801 4.8421e-05 -0.000198278)
(0.000172184 -0.000130329 -0.000354637)
(-0.0001065 0.000158064 0.000345615)
(0.00024056 -0.000103078 6.11307e-05)
(0.000332765 8.5691e-05 0.000119078)
(-0.000105308 -9.65654e-05 0.000217444)
(-0.000184235 0.000164927 -6.51616e-05)
(-0.000103657 6.43731e-05 9.98169e-05)
(0.000178973 9.908e-05 0.000237267)
(-0.000171212 -0.000627017 -0.000350042)
(-0.000130436 -0.000258822 -2.5326e-05)
(0.000110928 -8.56476e-05 3.7259e-06)
(0.00025933 -0.000224543 0.000171053)
(1.73535e-05 0.000109765 0.00101326)
(-8.18409e-05 0.000858193 0.00155014)
(-3.29976e-05 0.000305916 0.000593389)
(0.000292135 0.000108157 0.000301239)
(-0.000139303 -0.000101043 0.00128942)
(-0.000324311 0.000344683 0.000642699)
(-0.000472628 -0.000153746 0.000582085)
(-0.000263873 0.000105695 0.000775972)
(-0.000192058 -0.000353257 0.00149534)
(-0.000480316 -9.36921e-05 0.00103014)
(-0.000724107 -0.000145759 0.00097608)
(0.000121479 2.64425e-05 0.000588335)
(6.66085e-05 -0.000104228 0.000822452)
(0.000149758 -2.60509e-05 0.00111018)
(0.000115121 -0.000277685 0.000695904)
(-4.20642e-05 -0.0001958 0.000625946)
(-0.000141988 0.000106161 0.00123038)
(0.000637269 0.000308641 0.00174337)
(0.000240456 -7.78577e-06 0.00104954)
(0.000191167 -0.000446292 0.00080201)
(0.000459828 -0.000691694 0.00189389)
(0.000119988 -0.000413804 0.00123214)
(-0.00048656 -0.000289013 0.00184351)
(0.000167947 -0.000168761 0.000969454)
(0.00107817 3.03853e-05 0.00479801)
(5.6697e-05 -4.90021e-05 0.00177153)
(-0.000292151 -0.00046707 0.00177326)
(-0.000192176 -0.00039015 0.00102487)
(-0.00017133 -0.000155877 0.00107014)
(-0.00082547 -0.00137894 0.00298293)
(0.000158912 -0.000378966 0.00100973)
(-0.000261666 -0.000114506 0.000665491)
(0.000179999 -9.38049e-05 0.00117901)
(0.000552087 2.43918e-05 0.00149968)
(0.000344314 -0.000740407 0.00137473)
(-7.6693e-06 -0.000474796 0.00121563)
(-0.000328868 -0.000407008 0.00160346)
(-0.00063229 -7.24543e-05 0.001545)
(0.000201041 -0.00060211 0.00133912)
(7.75546e-05 -0.000503167 0.000928076)
(-0.000622016 -6.56885e-05 0.00248551)
(0.000201702 -0.000488081 0.00186169)
(0.000161795 -0.000628104 0.00119452)
(-7.14575e-05 -0.000456006 0.00132337)
(-3.47082e-05 -0.00012888 0.0013776)
(-0.000298276 -0.000253373 0.000873086)
(0.000129403 -0.000185359 0.000838011)
(0.00013041 -3.52793e-05 0.000911267)
(0.000196043 6.3443e-05 0.00144649)
(0.00045068 0.000102812 0.00147326)
(9.12383e-05 -9.83867e-05 0.00132639)
(4.17876e-05 -4.31665e-05 0.00130083)
(-0.000209615 5.74921e-05 0.00129089)
(-1.64075e-05 6.9031e-05 0.00127641)
(-0.000118664 0.000584127 0.00130131)
(0.000245453 -0.000265157 0.00108621)
(0.000155673 0.000128815 0.000899501)
(0.000479516 8.89508e-05 0.000952516)
(0.00013658 -7.33486e-05 0.00085956)
(0.000161344 8.43796e-05 0.00103245)
(0.000200726 0.000186818 0.00155775)
(-3.34486e-05 0.000141047 0.00130554)
(0.000141961 0.00017182 0.000718684)
(0.000156609 0.000124639 0.000859896)
(-0.000278867 -0.000242621 0.000938945)
(-0.000203278 -7.12562e-05 0.00115307)
(-0.000144121 -9.80731e-05 0.00103673)
(-0.000110065 -0.000191227 0.00147471)
(-6.58017e-05 -9.90507e-05 0.000571948)
(-0.000162231 -0.00018565 0.000870833)
(9.58894e-05 -4.26077e-05 0.000892472)
(6.55358e-05 -3.36034e-05 0.00106065)
(0.000186457 0.000286746 0.000569241)
(0.000226253 0.000140062 0.000177184)
(1.24855e-05 3.94582e-05 0.00054474)
(0.000199035 3.33981e-05 0.000715007)
(0.000229212 0.000184998 0.000733289)
(3.94445e-05 6.01098e-05 0.000608688)
(2.15802e-05 9.74148e-05 0.000529134)
(5.71227e-05 4.87469e-05 0.000352185)
(-0.000407591 -0.000389545 0.000483628)
(7.81601e-05 -0.000264464 0.00115155)
(-0.00052807 2.81234e-06 0.000921224)
(-0.000264806 0.000346569 0.00103735)
(-0.000718343 -3.64041e-05 -0.000451411)
(-0.00122483 -0.000474841 3.10677e-05)
(6.72064e-06 9.11606e-05 0.000960232)
(-2.50451e-05 0.000209256 0.000877129)
(-8.38332e-05 -0.000170333 0.000208446)
(-0.00252046 -0.00147385 -0.000487233)
(1.37361e-05 9.42813e-05 0.000440784)
(-5.20382e-05 0.000141837 0.000900785)
(-0.000629984 9.66536e-06 0.000670188)
(-0.000372777 -0.00035657 0.000489954)
(4.34357e-05 0.000332283 0.000281406)
(-0.000249449 0.00050518 0.00043363)
(0 0 0)
(0 0 0)
(0 0 0)
(0 0 0)
(0 0 0)
(0 0 0)
(0 0 0)
(0 0 0)
(0 0 0)
(0 0 0)
(0 0 0)
(0 0 0)
(0 0 0)
(0 0 0)
(0 0 0)
(0 0 0)
(0 0 0)
(0 0 0)
(0 0 0)
(0 0 0)
(0 0 0)
(0 0 0)
(0 0 0)
(0 0 0)
(0 0 0)
(0 0 0)
(0 0 0)
(0 0 0)
(0 0 0)
(0 0 0)
(0 0 0)
(0 0 0)
(0 0 0)
(0 0 0)
(0 0 0)
(0 0 0)
(0 0 0)
(0 0 0)
(0 0 0)
(0 0 0)
(0 0 0)
(0 0 0)
(0 0 0)
(0 0 0)
(0 0 0)
(0 0 0)
(0 0 0)
(0 0 0)
(0 0 0)
(0 0 0)
(0 0 0)
(0 0 0)
(0 0 0)
(0 0 0)
(0 0 0)
(0 0 0)
(0 0 0)
(0 0 0)
(0 0 0)
(0 0 0)
(0 0 0)
(0 0 0)
(0 0 0)
(0 0 0)
(0 0 0)
(0 0 0)
(0 0 0)
(0 0 0)
(0 0 0)
(0 0 0)
(0 0 0)
(0 0 0)
(0 0 0)
(0 0 0)
(0 0 0)
(0 0 0)
(0 0 0)
(0 0 0)
(0 0 0)
(0 0 0)
(0 0 0)
(0 0 0)
(0 0 0)
(0 0 0)
(0 0 0)
(0 0 0)
(0 0 0)
(0 0 0)
(0 0 0)
(0 0 0)
(0 0 0)
(0 0 0)
(0 0 0)
(0 0 0)
(0 0 0)
(0 0 0)
(0 0 0)
(0 0 0)
(0 0 0)
(0 0 0)
(0 0 0)
(0 0 0)
(0 0 0)
(0 0 0)
(0 0 0)
(0 0 0)
(0 0 0)
(0 0 0)
(0 0 0)
(0 0 0)
(0 0 0)
(0 0 0)
(0 0 0)
(0 0 0)
(0 0 0)
(0 0 0)
(0 0 0)
(0 0 0)
(0 0 0)
(0 0 0)
(0 0 0)
(0 0 0)
(0 0 0)
(0 0 0)
(0 0 0)
(0 0 0)
(0 0 0)
(0 0 0)
(0 0 0)
(0 0 0)
(0 0 0)
(0 0 0)
(0 0 0)
(0 0 0)
(0 0 0)
(0 0 0)
(0 0 0)
(0 0 0)
(0 0 0)
(0 0 0)
(0 0 0)
(0 0 0)
(0 0 0)
(0 0 0)
(0 0 0)
(0 0 0)
(0 0 0)
(0 0 0)
(0 0 0)
(0 0 0)
(0 0 0)
(0 0 0)
(0 0 0)
(0 0 0)
(0 0 0)
(0 0 0)
(0 0 0)
(0 0 0)
(0 0 0)
(0 0 0)
(0 0 0)
(0 0 0)
(0 0 0)
(0 0 0)
(0 0 0)
(0 0 0)
(0 0 0)
(0 0 0)
(0 0 0)
(0 0 0)
(0 0 0)
(0 0 0)
(0 0 0)
(0 0 0)
(0 0 0)
(0 0 0)
(0 0 0)
(0 0 0)
(0 0 0)
(0 0 0)
(0 0 0)
(0 0 0)
(0 0 0)
(0 0 0)
(0 0 0)
(0 0 0)
(0 0 0)
(0 0 0)
(0 0 0)
(0 0 0)
(0 0 0)
(0 0 0)
(0 0 0)
(0 0 0)
(0 0 0)
(0 0 0)
(0 0 0)
(0 0 0)
(0 0 0)
(0 0 0)
(0 0 0)
(0 0 0)
(0 0 0)
(0 0 0)
(0 0 0)
(0 0 0)
(0 0 0)
(0 0 0)
(0 0 0)
(0 0 0)
(0 0 0)
(0 0 0)
(0 0 0)
(0 0 0)
(0 0 0)
(0 0 0)
(0 0 0)
(0 0 0)
(0 0 0)
(0 0 0)
(0 0 0)
(0 0 0)
(0 0 0)
(0 0 0)
(0 0 0)
(0 0 0)
(0 0 0)
(0 0 0)
(0 0 0)
(0 0 0)
(0 0 0)
(0 0 0)
(0 0 0)
(0 0 0)
(0 0 0)
(0 0 0)
(0 0 0)
(0 0 0)
(0 0 0)
(0 0 0)
(0 0 0)
(0 0 0)
(0 0 0)
(0 0 0)
(0 0 0)
(0 0 0)
(0 0 0)
(0 0 0)
(0 0 0)
(0 0 0)
(0 0 0)
(0 0 0)
(0 0 0)
(0 0 0)
(0 0 0)
(0 0 0)
(0 0 0)
(0 0 0)
(0 0 0)
(0 0 0)
(0 0 0)
(0 0 0)
(0 0 0)
(0 0 0)
(0 0 0)
(0 0 0)
(0 0 0)
(0 0 0)
(0 0 0)
(0 0 0)
(0 0 0)
(0 0 0)
)
;

boundaryField
{
    inlet
    {
        type            zeroGradient;
    }
    outlet
    {
        type            zeroGradient;
    }
    wall
    {
        type            zeroGradient;
    }
    procBoundary2to0
    {
        type            processor;
        value           nonuniform List<vector> 
192
(
(0.000409924 -1.2628e-05 -5.25996e-05)
(0.000341673 -0.000842716 -0.000407799)
(0.000593832 -0.000478726 0.000408018)
(0.000237791 0.00048227 -8.48749e-05)
(-0.000164684 -6.23301e-05 0.000764884)
(-0.000428442 0.000281081 0.000558884)
(0.000240215 0.00020207 0.0010285)
(-0.000181266 4.7452e-05 0.00106794)
(0.000380589 0.000391155 0.00198566)
(-5.593e-05 0.000201273 0.00398837)
(0.00011988 -0.000201089 0.00169699)
(-6.51861e-05 -0.000236871 0.00191855)
(-0.000444619 -0.000276488 0.00193084)
(0.000197411 -1.45928e-05 0.00166385)
(0.000181391 0.00011909 0.00162506)
(5.39082e-05 0.000185043 0.00149849)
(-0.000322128 -2.43268e-05 0.00174807)
(7.9653e-06 8.4211e-05 0.00158155)
(-0.000206149 -2.77565e-05 0.00135391)
(-0.000129728 2.82088e-05 0.00122566)
(-0.000130578 5.07411e-05 0.0016982)
(-0.000141765 4.23322e-05 0.00165892)
(-0.000104922 2.19976e-05 0.00152648)
(-0.000164491 -3.6615e-05 0.00147269)
(0.000165335 0.000180098 0.00166214)
(5.39199e-05 2.22142e-05 0.00151467)
(8.87913e-05 2.75598e-05 0.00150318)
(0.000535867 0.000237726 0.000996141)
(0 0 0)
(0 0 0)
(0 0 0)
(0 0 0)
(0 0 0)
(0 0 0)
(0 0 0)
(0 0 0)
(0 0 0)
(0 0 0)
(0 0 0)
(0 0 0)
(0 0 0)
(0 0 0)
(0 0 0)
(0 0 0)
(0 0 0)
(0 0 0)
(0 0 0)
(0 0 0)
(0 0 0)
(0 0 0)
(0 0 0)
(0 0 0)
(0 0 0)
(0 0 0)
(0 0 0)
(0 0 0)
(0 0 0)
(0 0 0)
(0 0 0)
(0 0 0)
(0 0 0)
(0 0 0)
(0 0 0)
(0 0 0)
(0 0 0)
(0 0 0)
(0 0 0)
(0 0 0)
(0 0 0)
(0 0 0)
(0 0 0)
(0 0 0)
(0 0 0)
(0 0 0)
(0 0 0)
(0 0 0)
(0 0 0)
(0 0 0)
(0 0 0)
(0 0 0)
(0 0 0)
(0 0 0)
(0 0 0)
(0 0 0)
(0 0 0)
(0 0 0)
(0 0 0)
(0 0 0)
(0 0 0)
(0 0 0)
(0 0 0)
(0 0 0)
(0 0 0)
(0 0 0)
(0 0 0)
(0 0 0)
(-3.89076e-05 -5.69219e-05 8.38817e-05)
(1.24773e-05 -4.95745e-05 -2.41522e-05)
(0.000213379 -0.000291511 0.000183636)
(0.000447609 -2.28742e-05 4.39867e-05)
(6.98074e-05 -0.000167289 0.00106203)
(-0.000451101 0.000965899 0.000472181)
(-0.000331846 0.00049253 0.000644344)
(-0.000131138 -0.000117081 0.000846687)
(-3.12605e-05 0.000346137 0.00228144)
(0.000208393 2.00574e-05 0.00114668)
(-0.00040099 0.000325547 0.0010319)
(-0.000479613 0.000253308 0.00166119)
(-0.000259412 -0.00069472 0.00136194)
(-0.000354874 -0.000124635 0.00169197)
(-6.81215e-05 -0.000159162 0.0027555)
(0.000147925 -0.000283269 0.00182986)
(0.000223741 -0.000339885 0.000953872)
(4.02493e-05 0.000198964 0.00112886)
(1.6589e-05 1.65301e-05 0.00186532)
(-0.000222413 0.000362498 0.00205102)
(0.000110034 -0.000531187 0.000722053)
(7.04545e-05 -0.000164401 0.00128936)
(0.000152616 -0.000154795 0.00161055)
(-0.000204467 -8.51816e-05 0.00180412)
(0.000227684 -0.000384178 0.000703381)
(6.69669e-05 -0.00107257 0.00102037)
(-0.000639001 -0.000119111 0.00166336)
(4.03232e-05 0.000388415 0.00175979)
(0 0 0)
(0 0 0)
(0 0 0)
(0 0 0)
(0 0 0)
(0 0 0)
(0 0 0)
(0 0 0)
(0 0 0)
(0 0 0)
(0 0 0)
(0 0 0)
(0 0 0)
(0 0 0)
(0 0 0)
(0 0 0)
(0 0 0)
(0 0 0)
(0 0 0)
(0 0 0)
(0 0 0)
(0 0 0)
(0 0 0)
(0 0 0)
(0 0 0)
(0 0 0)
(0 0 0)
(0 0 0)
(0 0 0)
(0 0 0)
(0 0 0)
(0 0 0)
(0 0 0)
(0 0 0)
(0 0 0)
(0 0 0)
(0 0 0)
(0 0 0)
(0 0 0)
(0 0 0)
(0 0 0)
(0 0 0)
(0 0 0)
(0 0 0)
(0 0 0)
(0 0 0)
(0 0 0)
(0 0 0)
(0 0 0)
(0 0 0)
(0 0 0)
(0 0 0)
(0 0 0)
(0 0 0)
(0 0 0)
(0 0 0)
(0 0 0)
(0 0 0)
(0 0 0)
(0 0 0)
(0 0 0)
(0 0 0)
(0 0 0)
(0 0 0)
(0 0 0)
(0 0 0)
(0 0 0)
(0 0 0)
)
;
    }
    procBoundary2to3
    {
        type            processor;
        value           nonuniform List<vector> 
192
(
(-0.000138959 0.00023176 0.000425174)
(-0.000138977 -3.86413e-05 0.000123621)
(1.04615e-05 -0.000231965 -5.47954e-05)
(-0.000253189 -0.000184484 -0.000815373)
(-0.00091744 -0.000679914 0.00232898)
(6.57407e-05 -0.000324069 0.00124272)
(6.68588e-05 -0.000359172 0.000554065)
(-0.000118165 -0.000704059 0.000454331)
(0.000335839 -7.51787e-05 0.00263084)
(-0.000465358 -0.000569389 0.00293665)
(-0.000396256 -0.000219214 0.00189895)
(-5.84083e-05 -0.000451043 0.00103892)
(0.000156163 -3.05866e-05 0.00117582)
(-4.62279e-05 -0.000316044 0.00142964)
(-9.68508e-05 -7.46698e-05 0.00118799)
(0.000163371 -0.000253216 0.000899156)
(-0.000121027 -8.30631e-05 0.000979159)
(6.1218e-05 -1.1636e-06 0.00110184)
(1.54598e-05 -1.21561e-05 0.000988001)
(0.000211465 -4.04162e-05 0.00092447)
(5.8635e-06 0.000237885 0.00101671)
(-1.17384e-05 0.000276643 0.000941027)
(2.77273e-05 0.000159451 0.000743707)
(-4.77316e-05 0.000129489 0.000737848)
(0.000569919 0.000542954 0.000927234)
(0.00017049 0.000395009 0.000912958)
(0.000141991 0.000234698 0.000768501)
(-0.000185678 0.000157984 0.00056937)
(0 0 0)
(0 0 0)
(0 0 0)
(0 0 0)
(0 0 0)
(0 0 0)
(0 0 0)
(0 0 0)
(0 0 0)
(0 0 0)
(0 0 0)
(0 0 0)
(0 0 0)
(0 0 0)
(0 0 0)
(0 0 0)
(0 0 0)
(0 0 0)
(0 0 0)
(0 0 0)
(0 0 0)
(0 0 0)
(0 0 0)
(0 0 0)
(0 0 0)
(0 0 0)
(0 0 0)
(0 0 0)
(0 0 0)
(0 0 0)
(0 0 0)
(0 0 0)
(0 0 0)
(0 0 0)
(0 0 0)
(0 0 0)
(0 0 0)
(0 0 0)
(0 0 0)
(0 0 0)
(0 0 0)
(0 0 0)
(0 0 0)
(0 0 0)
(0 0 0)
(0 0 0)
(0 0 0)
(0 0 0)
(0 0 0)
(0 0 0)
(0 0 0)
(0 0 0)
(0 0 0)
(0 0 0)
(0 0 0)
(0 0 0)
(0 0 0)
(0 0 0)
(0 0 0)
(0 0 0)
(0 0 0)
(0 0 0)
(0 0 0)
(0 0 0)
(0 0 0)
(0 0 0)
(0 0 0)
(0 0 0)
(0.00043274 5.99556e-05 -0.000237943)
(0.000159725 0.000412766 0.000152642)
(9.55765e-05 3.26069e-05 0.00012696)
(-0.000194136 0.000161139 9.79234e-05)
(0.000233885 -0.000375972 0.000245854)
(3.55457e-05 -0.000211152 0.000585727)
(0.000158527 -5.58924e-05 0.00127572)
(0.000637168 4.46309e-05 0.00171903)
(0.000310466 -0.000236787 0.000626511)
(0.000206854 -0.000101121 0.00119809)
(-0.00047918 -0.000666132 0.00159981)
(-0.000603416 -0.000418838 0.00175353)
(-4.55267e-05 0.000693289 0.00191232)
(0.000393301 -2.46193e-05 0.00072286)
(-0.000951628 0.00028508 0.00186239)
(-0.000684843 0.000282384 0.00300731)
(0.000164783 0.000247933 0.00114647)
(0.000374215 -6.78212e-05 0.000624756)
(-5.02444e-05 -0.000253126 0.000800637)
(-0.000282575 0.000141748 0.000939337)
(-0.000106346 5.16677e-05 0.000695168)
(-9.90641e-06 -2.86937e-05 0.000494944)
(-7.0299e-05 7.87101e-05 0.000591796)
(-0.000119627 6.06658e-06 0.000100142)
(-0.00019928 0.000112578 0.00060359)
(-5.56964e-05 0.000150154 0.000565756)
(-0.000250913 0.000123784 0.000633707)
(-7.97247e-05 9.61334e-05 0.000235965)
(0 0 0)
(0 0 0)
(0 0 0)
(0 0 0)
(0 0 0)
(0 0 0)
(0 0 0)
(0 0 0)
(0 0 0)
(0 0 0)
(0 0 0)
(0 0 0)
(0 0 0)
(0 0 0)
(0 0 0)
(0 0 0)
(0 0 0)
(0 0 0)
(0 0 0)
(0 0 0)
(0 0 0)
(0 0 0)
(0 0 0)
(0 0 0)
(0 0 0)
(0 0 0)
(0 0 0)
(0 0 0)
(0 0 0)
(0 0 0)
(0 0 0)
(0 0 0)
(0 0 0)
(0 0 0)
(0 0 0)
(0 0 0)
(0 0 0)
(0 0 0)
(0 0 0)
(0 0 0)
(0 0 0)
(0 0 0)
(0 0 0)
(0 0 0)
(0 0 0)
(0 0 0)
(0 0 0)
(0 0 0)
(0 0 0)
(0 0 0)
(0 0 0)
(0 0 0)
(0 0 0)
(0 0 0)
(0 0 0)
(0 0 0)
(0 0 0)
(0 0 0)
(0 0 0)
(0 0 0)
(0 0 0)
(0 0 0)
(0 0 0)
(0 0 0)
(0 0 0)
(0 0 0)
(0 0 0)
(0 0 0)
)
;
    }
}


// ************************************************************************* //
