/*--------------------------------*- C++ -*----------------------------------*\
| =========                 |                                                 |
| \\      /  F ield         | OpenFOAM: The Open Source CFD Toolbox           |
|  \\    /   O peration     | Version:  2506                                  |
|   \\  /    A nd           | Website:  www.openfoam.com                      |
|    \\/     M anipulation  |                                                 |
\*---------------------------------------------------------------------------*/
FoamFile
{
    version     2.0;
    format      ascii;
    arch        "LSB;label=32;scalar=64";
    class       volScalarField;
    location    "0.06";
    object      voidfraction;
}
// * * * * * * * * * * * * * * * * * * * * * * * * * * * * * * * * * * * * * //

dimensions      [0 0 0 0 0 0 0];

internalField   nonuniform List<scalar> 
1152
(
0.42593
0.381163
0.407496
0.357463
0.47333
0.43383
0.420663
0.339029
0.412763
0.43383
0.446997
0.52863
0.446997
0.454897
0.446997
0.452263
0.415396
0.378529
0.428563
0.317962
0.39433
0.41013
0.423296
0.431196
0.431196
0.399596
0.352196
0.431196
0.423296
0.44173
0.39433
0.383796
0.44173
0.360096
0.404863
0.478597
0.46543
0.454897
0.365363
0.460163
0.367996
0.41803
0.44173
0.396963
0.483863
0.365363
0.41013
0.365363
0.423296
0.370629
0.383796
0.446997
0.42593
0.396963
0.38643
0.399596
0.331129
0.391696
0.389063
0.423296
0.381163
0.383796
0.399596
0.341663
0.346929
0.404863
0.41013
0.436463
0.39433
0.404863
0.39433
0.378529
0.354829
0.38643
0.389063
0.468063
0.436463
0.41013
0.436463
0.328496
0.460163
0.396963
0.383796
0.325862
0.404863
0.40223
0.357463
0.41013
0.415396
0.399596
0.460163
0.38643
0.499664
0.444363
0.41013
0.328496
0.633964
0.604998
0.599731
0.594464
0.697165
0.612898
0.547064
0.591831
0.691898
0.636598
0.552331
0.602364
0.705065
0.607631
0.533897
0.591831
1
1
1
1
1
1
1
1
1
1
1
1
1
1
1
1
1
1
1
1
1
1
1
1
1
1
1
1
1
1
1
1
1
1
1
1
1
1
1
1
1
1
1
1
1
1
1
1
1
1
1
1
1
1
1
1
1
1
1
1
1
1
1
1
1
1
1
1
1
1
1
1
1
1
1
1
1
1
1
1
1
1
1
1
1
1
1
1
1
1
1
1
1
1
1
1
1
1
1
1
1
1
1
1
1
1
1
1
1
1
1
1
1
1
1
1
1
1
1
1
1
1
1
1
1
1
1
1
1
1
1
1
1
1
1
1
1
1
1
1
1
1
1
1
1
1
1
1
1
1
1
1
1
1
1
1
1
1
1
1
1
1
1
1
1
1
1
1
1
1
1
1
1
1
1
1
1
1
1
1
1
1
1
1
1
1
1
1
1
1
1
1
1
1
1
1
1
1
1
1
1
1
1
1
1
1
1
1
1
1
1
1
1
1
1
1
1
1
1
1
1
1
1
1
1
1
1
1
1
1
1
1
1
1
1
1
1
1
1
1
1
1
1
1
1
1
1
1
1
1
1
1
1
1
1
1
1
1
1
1
1
1
1
1
1
1
1
1
1
1
1
1
0.504944
0.419068
0.537121
0.408616
0.459614
0.418323
0.444441
0.422946
0.427599
0.461609
0.454508
0.465907
0.503604
0.436883
0.485457
0.446992
0.478658
0.441535
0.399069
0.355993
0.445107
0.349076
0.370841
0.391992
0.402847
0.478662
0.435479
0.410519
0.444252
0.412967
0.447343
0.395092
0.377895
0.412649
0.404483
0.476275
0.408839
0.415554
0.366092
0.467164
0.421411
0.405578
0.441822
0.372935
0.438857
0.428186
0.411135
0.395092
0.382276
0.374134
0.358465
0.44871
0.405212
0.470951
0.394583
0.389782
0.421411
0.446992
0.456622
0.386782
0.44695
0.399921
0.420663
0.441623
0.452372
0.415858
0.442379
0.398593
0.339931
0.374005
0.38746
0.374305
0.362624
0.427503
0.454508
0.42041
0.430763
0.47167
0.357775
0.40762
0.360371
0.370924
0.377414
0.371029
0.45236
0.418323
0.396957
0.469375
0.378095
0.427503
0.448165
0.331395
0.438857
0.406444
0.395889
0.493524
0.732758
0.675833
0.645396
0.70932
0.648205
0.631605
0.731717
0.64625
0.67203
0.6833
0.665939
0.788341
0.66817
0.743445
0.712237
0.83714
1
1
1
1
1
1
1
1
1
1
1
1
1
1
1
1
1
1
1
1
1
1
1
1
1
1
1
1
1
1
1
1
1
1
1
1
1
1
1
1
1
1
1
1
1
1
1
1
1
1
1
1
1
1
1
1
1
1
1
1
1
1
1
1
1
1
1
1
1
1
1
1
1
1
1
1
1
1
1
1
1
1
1
1
1
1
1
1
1
1
1
1
1
1
1
1
1
1
1
1
1
1
1
1
1
1
1
1
1
1
1
1
1
1
1
1
1
1
1
1
1
1
1
1
1
1
1
1
1
1
1
1
1
1
1
1
1
1
1
1
1
1
1
1
1
1
1
1
1
1
1
1
1
1
1
1
1
1
1
1
1
1
1
1
1
1
1
1
1
1
1
1
1
1
1
1
1
1
1
1
1
1
1
1
1
1
1
1
1
1
1
1
1
1
1
1
1
1
1
1
1
1
1
1
1
1
1
1
1
1
1
1
1
1
1
1
1
1
1
1
1
1
1
1
1
1
1
1
1
1
1
1
1
1
1
1
1
1
1
1
1
1
1
1
1
1
1
1
1
1
1
1
1
1
1
1
1
1
1
1
1
1
1
1
1
1
1
1
1
1
1
1
0.45773
0.459973
0.380938
0.458734
0.41304
0.435479
0.401705
0.477569
0.495586
0.461609
0.437713
0.531403
0.449648
0.384283
0.503135
0.421705
0.366457
0.416454
0.347774
0.358499
0.468306
0.395307
0.408828
0.41531
0.495586
0.41045
0.401704
0.473631
0.428065
0.449258
0.408839
0.426086
0.446992
0.505469
0.427367
0.451216
0.353963
0.450279
0.408828
0.342224
0.489063
0.354418
0.415554
0.32599
0.411879
0.45854
0.426973
0.395419
0.411199
0.459973
0.414102
0.428663
0.38636
0.443936
0.437318
0.361172
0.452102
0.459173
0.337997
0.483259
0.452346
0.409035
0.423346
0.386657
0.454151
0.396673
0.356617
0.423652
0.409229
0.418565
0.418325
0.404483
0.397747
0.429939
0.368465
0.412649
0.444252
0.396659
0.408839
0.395419
0.443413
0.493601
0.387571
0.441193
0.441626
0.435479
0.413576
0.366586
0.40427
0.464045
0.421093
0.444744
0.395692
0.368812
0.365318
0.364752
0.751236
0.855597
0.803227
0.794519
0.757974
0.651139
0.703227
0.645396
0.699961
0.66381
0.687003
0.669414
0.622307
0.622525
0.698979
0.759044
1
1
1
1
1
1
1
1
1
1
1
1
1
1
1
1
1
1
1
1
1
1
1
1
1
1
1
1
1
1
1
1
1
1
1
1
1
1
1
1
1
1
1
1
1
1
1
1
1
1
1
1
1
1
1
1
1
1
1
1
1
1
1
1
1
1
1
1
1
1
1
1
1
1
1
1
1
1
1
1
1
1
1
1
1
1
1
1
1
1
1
1
1
1
1
1
1
1
1
1
1
1
1
1
1
1
1
1
1
1
1
1
1
1
1
1
1
1
1
1
1
1
1
1
1
1
1
1
1
1
1
1
1
1
1
1
1
1
1
1
1
1
1
1
1
1
1
1
1
1
1
1
1
1
1
1
1
1
1
1
1
1
1
1
1
1
1
1
1
1
1
1
1
1
1
1
1
1
1
1
1
1
1
1
1
1
1
1
1
1
1
1
1
1
1
1
1
1
1
1
1
1
1
1
1
1
1
1
1
1
1
1
1
1
1
1
1
1
1
1
1
1
1
1
1
1
1
1
1
1
1
1
1
1
1
1
1
1
1
1
1
1
1
1
1
1
1
1
1
1
1
1
1
1
1
1
1
1
1
1
1
1
1
1
1
1
1
1
1
1
1
1
)
;

boundaryField
{
    inlet
    {
        type            fixedValue;
        value           uniform 1;
    }
    outlet
    {
        type            fixedValue;
        value           uniform 1;
    }
    wall
    {
        type            zeroGradient;
    }
    procBoundary2to0
    {
        type            processor;
        value           nonuniform List<scalar> 
192
(
0.41013
0.544431
0.47333
0.42593
0.436463
0.391696
0.415396
0.354829
0.381163
0.454897
0.354829
0.381163
0.381163
0.50493
0.41013
0.502297
0.436463
0.352196
0.336396
0.365363
0.44173
0.431196
0.41013
0.352196
0.747198
0.599731
0.557597
0.581297
1
1
1
1
1
1
1
1
1
1
1
1
1
1
1
1
1
1
1
1
1
1
1
1
1
1
1
1
1
1
1
1
1
1
1
1
1
1
1
1
1
1
1
1
1
1
1
1
1
1
1
1
1
1
1
1
1
1
1
1
1
1
1
1
1
1
1
1
0.416568
0.410519
0.471586
0.468757
0.386144
0.418432
0.420735
0.416134
0.389723
0.374913
0.341141
0.436181
0.455941
0.359088
0.369883
0.416134
0.411199
0.392716
0.422946
0.393581
0.436254
0.414476
0.445055
0.446204
0.668911
0.758669
0.843024
0.754425
1
1
1
1
1
1
1
1
1
1
1
1
1
1
1
1
1
1
1
1
1
1
1
1
1
1
1
1
1
1
1
1
1
1
1
1
1
1
1
1
1
1
1
1
1
1
1
1
1
1
1
1
1
1
1
1
1
1
1
1
1
1
1
1
1
1
1
1
)
;
    }
    procBoundary2to3
    {
        type            processor;
        value           nonuniform List<scalar> 
192
(
0.570764
0.547064
0.341663
0.44963
0.510197
0.468063
0.328496
0.436463
0.357463
0.325862
0.42593
0.399596
0.275829
0.428563
0.391696
0.436463
0.286362
0.349563
0.38643
0.42593
0.533897
0.491764
0.365363
0.460163
0.462797
0.583931
0.589197
0.47333
1
1
1
1
1
1
1
1
1
1
1
1
1
1
1
1
1
1
1
1
1
1
1
1
1
1
1
1
1
1
1
1
1
1
1
1
1
1
1
1
1
1
1
1
1
1
1
1
1
1
1
1
1
1
1
1
1
1
1
1
1
1
1
1
1
1
1
1
0.458734
0.407469
0.489644
0.382564
0.431169
0.422946
0.426344
0.489944
0.358499
0.358828
0.394695
0.384354
0.361005
0.387571
0.432279
0.391513
0.421146
0.460531
0.329416
0.370037
0.511357
0.374305
0.432279
0.40762
0.53391
0.717
0.71515
0.774502
1
1
1
1
1
1
1
1
1
1
1
1
1
1
1
1
1
1
1
1
1
1
1
1
1
1
1
1
1
1
1
1
1
1
1
1
1
1
1
1
1
1
1
1
1
1
1
1
1
1
1
1
1
1
1
1
1
1
1
1
1
1
1
1
1
1
1
1
)
;
    }
}


// ************************************************************************* //
