/*--------------------------------*- C++ -*----------------------------------*\
| =========                 |                                                 |
| \\      /  F ield         | OpenFOAM: The Open Source CFD Toolbox           |
|  \\    /   O peration     | Version:  2506                                  |
|   \\  /    A nd           | Website:  www.openfoam.com                      |
|    \\/     M anipulation  |                                                 |
\*---------------------------------------------------------------------------*/
FoamFile
{
    version     2.0;
    format      ascii;
    arch        "LSB;label=32;scalar=64";
    class       volScalarField;
    location    "0.08";
    object      Ksl;
}
// * * * * * * * * * * * * * * * * * * * * * * * * * * * * * * * * * * * * * //

dimensions      [1 -3 -1 0 0 0 0];

internalField   nonuniform List<scalar> 
1152
(
163901
419518
147107
251933
82273.2
122399
136959
2.63814e+06
131880
131411
109288
65671.3
146551
127739
127861
96741.1
157754
180086
183098
5.27707e+06
411703
151912
187901
139949
152644
210074
1.46725e+06
156742
163712
128675
178987
414933
155124
1.01371e+06
200697
139134
117744
228841
322385
163317
587436
252026
147570
266758
118131
614498
215573
311455
244740
1.06384e+06
425458
101648
211538
163035
872432
216358
623236
216453
464776
149773
269563
241018
203960
2.7126e+06
363665
255922
188842
185069
196183
236841
230877
301942
352518
257620
347880
118424
182886
244727
172120
840263
394303
205023
258081
4.95772e+06
180705
161208
416348
205713
236319
250138
136104
301064
110628
155448
184943
2.71497e+06
124468
92295.2
68056.1
180992
52232.4
98506.3
121374
134391
74157.4
76118.2
127717
65783.7
40113.9
100260
129146
262017
0
0
0
0
0
0
0
0
0
0
0
0
0
0
0
0
0
0
0
0
0
0
0
0
0
0
0
0
0
0
0
0
0
0
0
0
0
0
0
0
0
0
0
0
0
0
0
0
0
0
0
0
0
0
0
0
0
0
0
0
0
0
0
0
0
0
0
0
0
0
0
0
0
0
0
0
0
0
0
0
0
0
0
0
0
0
0
0
0
0
0
0
0
0
0
0
0
0
0
0
0
0
0
0
0
0
0
0
0
0
0
0
0
0
0
0
0
0
0
0
0
0
0
0
0
0
0
0
0
0
0
0
0
0
0
0
0
0
0
0
0
0
0
0
0
0
0
0
0
0
0
0
0
0
0
0
0
0
0
0
0
0
0
0
0
0
0
0
0
0
0
0
0
0
0
0
0
0
0
0
0
0
0
0
0
0
0
0
0
0
0
0
0
0
0
0
0
0
0
0
0
0
0
0
0
0
0
0
0
0
0
0
0
0
0
0
0
0
0
0
0
0
0
0
0
0
0
0
0
0
0
0
0
0
0
0
0
0
0
0
0
0
0
0
0
0
0
0
0
0
0
0
0
0
0
0
0
0
0
0
0
0
0
0
0
0
0
0
0
0
0
0
81533.1
232161
66586.9
273073
143650
156868
131845
141212
120802
109254
114127
120781
90446.3
172159
99194.1
116353
165268
118353
245087
154613
119775
1.21048e+06
282807
303410
224693
108672
183393
191562
237835
197629
157098
267758
414538
183842
225239
138416
356630
289239
286478
260040
194758
289452
167459
317483
166876
174905
228230
249690
376020
246775
461258
140345
239548
134473
476432
199793
189590
183288
150705
290542
189319
374717
212903
168021
125334
271511
157613
229813
729857
296311
233437
803128
406008
199446
156065
193686
205364
123331
657246
226412
9.05874e+06
290095
238219
564494
130472
161674
307993
106436
283867
190590
155998
1.31272e+06
154829
372637
278482
89472.5
104633
56400.9
56597
51628.4
60460.8
82435.2
44484.8
71092.6
74258
58640.7
42201.7
2930.43
51787.7
30061.3
87653.8
21632.1
0
0
0
0
0
0
0
0
0
0
0
0
0
0
0
0
0
0
0
0
0
0
0
0
0
0
0
0
0
0
0
0
0
0
0
0
0
0
0
0
0
0
0
0
0
0
0
0
0
0
0
0
0
0
0
0
0
0
0
0
0
0
0
0
0
0
0
0
0
0
0
0
0
0
0
0
0
0
0
0
0
0
0
0
0
0
0
0
0
0
0
0
0
0
0
0
0
0
0
0
0
0
0
0
0
0
0
0
0
0
0
0
0
0
0
0
0
0
0
0
0
0
0
0
0
0
0
0
0
0
0
0
0
0
0
0
0
0
0
0
0
0
0
0
0
0
0
0
0
0
0
0
0
0
0
0
0
0
0
0
0
0
0
0
0
0
0
0
0
0
0
0
0
0
0
0
0
0
0
0
0
0
0
0
0
0
0
0
0
0
0
0
0
0
0
0
0
0
0
0
0
0
0
0
0
0
0
0
0
0
0
0
0
0
0
0
0
0
0
0
0
0
0
0
0
0
0
0
0
0
0
0
0
0
0
0
0
0
0
0
0
0
0
0
0
0
0
0
0
0
0
0
0
0
0
0
0
0
0
0
0
0
0
0
0
0
0
0
0
0
0
0
110399
83784.8
152235
111517
221242
99644.5
153862
107272
115209
93622.1
165982
93473.6
126936
357221
73840.9
154156
1.79961e+06
323826
2.03698e+06
433642
144495
342901
151757
185357
113088
235285
200686
120256
163248
120858
436710
225347
159938
132656
220189
164580
439677
152978
234154
558233
109036
532021
268051
404667
378176
179402
153895
214775
155154
180944
290551
156167
509918
207900
217755
390624
135944
156102
4.47801e+06
133727
162744
240389
180530
231603
182045
166272
362822
212932
195692
219631
175645
294418
272914
182904
422371
153432
183264
226126
152472
242430
164633
88564.3
360520
158562
440849
180219
183233
553563
212493
138853
163104
178828
249597
453075
275330
380660
36702.1
16865.7
70195
26662
43822.6
72685.7
55975
115554
50773.6
50187.7
69533.8
56727.3
73413.9
88066.9
52315.1
45507.1
0
0
0
0
0
0
0
0
0
0
0
0
0
0
0
0
0
0
0
0
0
0
0
0
0
0
0
0
0
0
0
0
0
0
0
0
0
0
0
0
0
0
0
0
0
0
0
0
0
0
0
0
0
0
0
0
0
0
0
0
0
0
0
0
0
0
0
0
0
0
0
0
0
0
0
0
0
0
0
0
0
0
0
0
0
0
0
0
0
0
0
0
0
0
0
0
0
0
0
0
0
0
0
0
0
0
0
0
0
0
0
0
0
0
0
0
0
0
0
0
0
0
0
0
0
0
0
0
0
0
0
0
0
0
0
0
0
0
0
0
0
0
0
0
0
0
0
0
0
0
0
0
0
0
0
0
0
0
0
0
0
0
0
0
0
0
0
0
0
0
0
0
0
0
0
0
0
0
0
0
0
0
0
0
0
0
0
0
0
0
0
0
0
0
0
0
0
0
0
0
0
0
0
0
0
0
0
0
0
0
0
0
0
0
0
0
0
0
0
0
0
0
0
0
0
0
0
0
0
0
0
0
0
0
0
0
0
0
0
0
0
0
0
0
0
0
0
0
0
0
0
0
0
0
0
0
0
0
0
0
0
0
0
0
0
0
0
0
0
0
0
0
)
;

boundaryField
{
    inlet
    {
        type            zeroGradient;
    }
    outlet
    {
        type            zeroGradient;
    }
    wall
    {
        type            zeroGradient;
    }
    procBoundary2to0
    {
        type            processor;
        value           nonuniform List<scalar> 
192
(
143001
59557.8
106398
135187
166242
439609
181390
146847
362172
121741
448196
548714
291602
158740
215678
134954
173025
260399
328829
5.53828e+06
81125.1
314831
234913
117473
50935.8
107976
137218
74873.5
0
0
0
0
0
0
0
0
0
0
0
0
0
0
0
0
0
0
0
0
0
0
0
0
0
0
0
0
0
0
0
0
0
0
0
0
0
0
0
0
0
0
0
0
0
0
0
0
0
0
0
0
0
0
0
0
0
0
0
0
0
0
0
0
0
0
0
0
274872
225415
92102.9
105160
139363
138930
127406
170059
470733
241641
1.60291e+06
190127
205197
329758
294662
203438
205288
1.32447e+06
148537
290120
218665
185073
194263
193548
78817.3
72012.3
18280.2
42636.7
0
0
0
0
0
0
0
0
0
0
0
0
0
0
0
0
0
0
0
0
0
0
0
0
0
0
0
0
0
0
0
0
0
0
0
0
0
0
0
0
0
0
0
0
0
0
0
0
0
0
0
0
0
0
0
0
0
0
0
0
0
0
0
0
0
0
0
0
)
;
    }
    procBoundary2to3
    {
        type            processor;
        value           nonuniform List<scalar> 
192
(
57032.7
43648.3
478796
149198
107389
167834
2.84981e+06
135628
709097
3.40105e+06
222395
238301
2.62547e+06
161910
378669
139974
9.81931e+06
333944
270507
218972
111574
115610
490224
131461
109574
89155.6
106337
167253
0
0
0
0
0
0
0
0
0
0
0
0
0
0
0
0
0
0
0
0
0
0
0
0
0
0
0
0
0
0
0
0
0
0
0
0
0
0
0
0
0
0
0
0
0
0
0
0
0
0
0
0
0
0
0
0
0
0
0
0
0
0
0
0
0
0
0
0
65310.5
154933
81687.4
3.2304e+06
528111
153975
204279
111722
296827
183946
211776
334248
534833
324457
197884
234649
290077
123720
1.83986e+06
241906
103442
2.53794e+06
154370
300408
245069
54199.9
25080
46949.2
0
0
0
0
0
0
0
0
0
0
0
0
0
0
0
0
0
0
0
0
0
0
0
0
0
0
0
0
0
0
0
0
0
0
0
0
0
0
0
0
0
0
0
0
0
0
0
0
0
0
0
0
0
0
0
0
0
0
0
0
0
0
0
0
0
0
0
0
)
;
    }
}


// ************************************************************************* //
