/*--------------------------------*- C++ -*----------------------------------*\
| =========                 |                                                 |
| \\      /  F ield         | OpenFOAM: The Open Source CFD Toolbox           |
|  \\    /   O peration     | Version:  2506                                  |
|   \\  /    A nd           | Website:  www.openfoam.com                      |
|    \\/     M anipulation  |                                                 |
\*---------------------------------------------------------------------------*/
FoamFile
{
    version     2.0;
    format      ascii;
    arch        "LSB;label=32;scalar=64";
    class       volScalarField;
    location    "0.08";
    object      p;
}
// * * * * * * * * * * * * * * * * * * * * * * * * * * * * * * * * * * * * * //

dimensions      [0 2 -2 0 0 0 0];

internalField   nonuniform List<scalar> 
1152
(
18.8567
18.9774
19.0001
19.1415
18.7663
18.8245
18.9392
18.8939
18.7266
18.8257
18.8993
18.7554
18.6813
18.6747
18.8111
18.8821
15.9837
16.0949
16.1069
15.9396
16.1325
16.1835
16.2216
16.0821
16.2734
16.2324
16.1666
16.5266
16.0703
16.2114
16.2477
16.4197
12.9763
13.2378
12.8874
12.4707
12.9541
12.988
13.0695
12.7809
13.3329
13.0018
12.8919
12.7198
13.1055
13.3023
12.9184
12.7563
9.49119
8.86566
8.74269
8.63141
9.53658
9.20451
8.95092
8.98004
9.12897
9.16407
9.36418
8.83101
9.27414
8.93503
8.9262
9.2656
5.18706
5.1063
5.15195
5.10169
5.26269
5.28074
5.21166
5.35442
4.97152
5.18768
5.01032
5.46935
4.64107
4.92479
5.1958
5.38974
1.64046
1.88217
1.963
2.61104
1.68094
1.97016
2.08128
2.37754
1.64305
1.84507
2.14709
2.18601
1.65785
1.89067
2.12681
1.65377
1.00039
1.00622
1.00074
0.949337
1.01842
1.01217
1.00125
0.990658
1.01116
1.01668
1.01221
1.02292
1.02988
1.01231
1.00702
0.983679
1.00456
1.00344
1.00088
0.99776
1.00439
1.00366
1.00257
1.00178
1.00453
1.00405
1.00388
1.00418
1.00567
1.00449
1.00432
1.00433
1.00939
1.00929
1.00926
1.01181
1.00956
1.009
1.00828
1.00908
1.00991
1.00948
1.009
1.00934
1.01036
1.00929
1.00846
1.00803
1.00735
1.0073
1.00733
1.00818
1.00721
1.00705
1.0069
1.00725
1.00722
1.00708
1.00695
1.00711
1.00715
1.0069
1.0067
1.00655
1.00729
1.00726
1.00725
1.00749
1.00717
1.00711
1.00704
1.00718
1.00716
1.00708
1.00702
1.00706
1.00712
1.007
1.00691
1.00687
1.00668
1.00666
1.00665
1.00672
1.0066
1.00658
1.00654
1.00658
1.00657
1.00653
1.00649
1.00649
1.00651
1.00647
1.00642
1.0064
1.00612
1.00611
1.00609
1.0061
1.00607
1.00606
1.00603
1.00603
1.00604
1.00602
1.00599
1.00598
1.00601
1.00597
1.00594
1.00592
1.00558
1.00556
1.00555
1.00554
1.00554
1.00553
1.00551
1.0055
1.00552
1.0055
1.00548
1.00546
1.00549
1.00547
1.00544
1.00543
1.00503
1.00502
1.00501
1.005
1.00501
1.005
1.00498
1.00497
1.00499
1.00498
1.00496
1.00495
1.00497
1.00495
1.00494
1.00492
1.00449
1.00448
1.00447
1.00446
1.00448
1.00447
1.00446
1.00445
1.00446
1.00445
1.00444
1.00443
1.00445
1.00444
1.00443
1.00441
1.00396
1.00395
1.00394
1.00393
1.00395
1.00394
1.00393
1.00392
1.00394
1.00393
1.00392
1.00391
1.00393
1.00392
1.00391
1.0039
1.00343
1.00342
1.00342
1.00341
1.00342
1.00341
1.00341
1.0034
1.00341
1.00341
1.0034
1.00339
1.0034
1.0034
1.00339
1.00338
1.0029
1.00289
1.00289
1.00288
1.00289
1.00289
1.00288
1.00288
1.00289
1.00288
1.00288
1.00287
1.00288
1.00288
1.00287
1.00287
1.00237
1.00237
1.00236
1.00236
1.00237
1.00236
1.00236
1.00236
1.00236
1.00236
1.00235
1.00235
1.00236
1.00235
1.00235
1.00235
1.00184
1.00184
1.00184
1.00183
1.00184
1.00184
1.00183
1.00183
1.00184
1.00183
1.00183
1.00183
1.00183
1.00183
1.00183
1.00183
1.00132
1.00131
1.00131
1.00131
1.00131
1.00131
1.00131
1.00131
1.00131
1.00131
1.00131
1.00131
1.00131
1.00131
1.00131
1.0013
1.00079
1.00079
1.00079
1.00079
1.00079
1.00079
1.00079
1.00078
1.00079
1.00079
1.00079
1.00078
1.00079
1.00079
1.00078
1.00078
1.00026
1.00026
1.00026
1.00026
1.00026
1.00026
1.00026
1.00026
1.00026
1.00026
1.00026
1.00026
1.00026
1.00026
1.00026
1.00026
18.6368
18.7451
18.7278
18.9532
18.6457
18.9293
18.8826
19.0354
18.676
18.6566
18.7504
18.8745
18.6216
18.7656
18.6752
18.9007
16.2829
16.1649
16.4986
16.037
16.2129
16.1667
16.4166
16.2896
16.166
16.177
16.229
16.3975
16.2369
16.075
16.3102
16.3492
13.1419
13.0458
12.9304
12.6853
13.0803
12.4303
12.7712
12.6704
12.8039
12.9619
12.7018
12.839
12.719
12.8894
12.9044
12.4806
8.66129
9.0424
8.86919
9.28959
9.08144
8.94562
8.92929
9.0618
9.2521
8.89473
8.96494
8.77871
9.2361
8.72268
9.17539
8.73241
4.4426
5.05134
5.16488
5.58825
4.69232
5.3686
5.09778
4.56614
5.51366
5.3459
5.28289
4.84888
5.43741
5.29543
5.44123
4.43112
1.39655
1.62307
1.76079
1.45957
1.58265
1.71786
1.44659
1.5573
1.60837
1.70238
1.62785
0.888897
1.74788
1.54116
1.45902
1.34019
1.08688
1.01904
1.02164
1.02015
1.01753
1.00948
1.01758
1.01024
1.00729
1.0179
1.01707
1.01873
1.0152
1.02297
1.00565
1.01359
1.00612
1.00418
1.00431
1.0037
1.00379
1.00314
1.00359
1.00316
1.00303
1.00263
1.00309
1.00388
1.0025
1.00258
1.00289
1.00422
1.01059
1.00975
1.00927
1.00849
1.01029
1.00963
1.00931
1.00871
1.0101
1.00995
1.00936
1.00952
1.0102
1.01027
1.0087
1.00933
1.0071
1.00691
1.00677
1.0065
1.00702
1.00689
1.00674
1.00644
1.00697
1.00694
1.00673
1.00655
1.00689
1.00692
1.00649
1.00645
1.00715
1.00701
1.00689
1.00678
1.00715
1.007
1.00686
1.00673
1.00714
1.00702
1.00684
1.00674
1.00717
1.00706
1.00681
1.00673
1.00649
1.00644
1.00638
1.00633
1.00649
1.00643
1.00635
1.00629
1.00648
1.00643
1.00633
1.00627
1.00647
1.00641
1.0063
1.00624
1.00599
1.00595
1.00591
1.00587
1.00599
1.00594
1.00588
1.00584
1.00599
1.00593
1.00587
1.00583
1.00599
1.00593
1.00585
1.00581
1.00547
1.00545
1.00542
1.0054
1.00547
1.00544
1.0054
1.00538
1.00547
1.00543
1.00539
1.00536
1.00547
1.00543
1.00538
1.00535
1.00496
1.00494
1.00492
1.0049
1.00496
1.00493
1.00491
1.00489
1.00495
1.00493
1.0049
1.00488
1.00495
1.00492
1.00489
1.00487
1.00444
1.00443
1.00441
1.0044
1.00444
1.00442
1.0044
1.00439
1.00444
1.00442
1.0044
1.00438
1.00444
1.00442
1.00439
1.00438
1.00392
1.00391
1.0039
1.00389
1.00392
1.00391
1.0039
1.00388
1.00392
1.0039
1.00389
1.00388
1.00392
1.0039
1.00389
1.00388
1.0034
1.00339
1.00339
1.00338
1.0034
1.00339
1.00338
1.00337
1.0034
1.00339
1.00338
1.00337
1.0034
1.00339
1.00338
1.00337
1.00288
1.00287
1.00287
1.00286
1.00288
1.00287
1.00286
1.00286
1.00288
1.00287
1.00286
1.00286
1.00288
1.00287
1.00286
1.00285
1.00236
1.00235
1.00235
1.00234
1.00236
1.00235
1.00235
1.00234
1.00235
1.00235
1.00234
1.00234
1.00235
1.00235
1.00234
1.00234
1.00183
1.00183
1.00183
1.00182
1.00183
1.00183
1.00183
1.00182
1.00183
1.00183
1.00182
1.00182
1.00183
1.00183
1.00182
1.00182
1.00131
1.00131
1.00131
1.0013
1.00131
1.00131
1.0013
1.0013
1.00131
1.00131
1.0013
1.0013
1.00131
1.00131
1.0013
1.0013
1.00079
1.00078
1.00078
1.00078
1.00079
1.00078
1.00078
1.00078
1.00079
1.00078
1.00078
1.00078
1.00079
1.00078
1.00078
1.00078
1.00026
1.00026
1.00026
1.00026
1.00026
1.00026
1.00026
1.00026
1.00026
1.00026
1.00026
1.00026
1.00026
1.00026
1.00026
1.00026
18.9679
18.9042
19.0814
18.9053
18.8075
18.8196
18.8678
18.7721
18.3641
18.5483
18.7047
18.6281
18.5599
18.6535
18.6443
18.6981
15.8985
16.0323
15.9716
16.1015
16.0232
16.0867
16.149
16.3636
15.81
16.1475
16.1915
16.3383
16.0351
15.9732
16.2014
16.1723
12.2663
12.413
12.5726
12.6111
13.1207
12.6728
12.8612
13.0691
12.8062
12.6086
12.7565
13.0263
12.7765
12.8925
12.7853
12.9009
8.88797
9.02773
9.141
9.21404
8.82532
9.16184
9.09187
9.12708
9.62579
9.22776
9.40987
9.04318
9.22934
9.25857
9.12295
9.12197
5.07788
4.65578
5.03993
5.25243
5.22047
5.17368
5.17823
5.28417
6.00682
5.50532
5.19339
5.27554
5.86325
5.6808
5.40507
5.14911
1.49042
1.41231
1.31492
1.36889
1.39104
1.66648
1.66212
1.55125
1.6395
1.76547
1.70367
1.74908
1.94803
1.80181
1.68111
1.48429
1.01912
1.02626
1.00839
1.01633
1.01297
1.01347
1.01598
1.0026
1.01398
1.02003
1.01263
1.01594
1.01302
1.00737
1.01826
1.02328
1.00428
1.00572
1.00463
1.00504
1.00342
1.00372
1.00404
1.00442
1.00366
1.00408
1.00413
1.00458
1.00325
1.00357
1.00443
1.00518
1.01074
1.01093
1.00998
1.00991
1.00968
1.00967
1.00972
1.00935
1.01054
1.01061
1.01031
1.01015
1.00995
1.00977
1.01009
1.01035
1.00782
1.00795
1.00766
1.00755
1.00723
1.00731
1.00728
1.00721
1.00732
1.00745
1.00738
1.0073
1.00687
1.00693
1.00698
1.00707
1.00753
1.00751
1.00742
1.00736
1.00723
1.0072
1.00719
1.00719
1.00732
1.00729
1.00726
1.00722
1.00718
1.00714
1.00716
1.00717
1.00681
1.0068
1.00676
1.00672
1.00662
1.00662
1.00662
1.00661
1.00663
1.00663
1.00661
1.00659
1.0065
1.00651
1.00652
1.00652
1.0062
1.00619
1.00617
1.00615
1.0061
1.00609
1.00609
1.00609
1.00609
1.00608
1.00607
1.00606
1.00602
1.00602
1.00602
1.00602
1.00562
1.00561
1.0056
1.00559
1.00557
1.00556
1.00556
1.00555
1.00555
1.00554
1.00554
1.00553
1.0055
1.0055
1.0055
1.0055
1.00506
1.00506
1.00505
1.00504
1.00503
1.00503
1.00502
1.00502
1.00501
1.00501
1.005
1.005
1.00498
1.00498
1.00498
1.00498
1.00452
1.00451
1.00451
1.0045
1.0045
1.00449
1.00449
1.00449
1.00448
1.00448
1.00447
1.00447
1.00446
1.00446
1.00446
1.00446
1.00398
1.00397
1.00397
1.00397
1.00396
1.00396
1.00396
1.00395
1.00395
1.00395
1.00395
1.00394
1.00393
1.00393
1.00393
1.00393
1.00344
1.00344
1.00344
1.00343
1.00343
1.00343
1.00343
1.00342
1.00342
1.00342
1.00342
1.00342
1.00341
1.00341
1.00341
1.00341
1.00291
1.00291
1.0029
1.0029
1.0029
1.0029
1.0029
1.0029
1.00289
1.00289
1.00289
1.00289
1.00288
1.00288
1.00288
1.00288
1.00238
1.00238
1.00237
1.00237
1.00237
1.00237
1.00237
1.00237
1.00237
1.00237
1.00237
1.00236
1.00236
1.00236
1.00236
1.00236
1.00185
1.00185
1.00185
1.00184
1.00184
1.00184
1.00184
1.00184
1.00184
1.00184
1.00184
1.00184
1.00184
1.00184
1.00184
1.00184
1.00132
1.00132
1.00132
1.00132
1.00132
1.00132
1.00132
1.00132
1.00131
1.00131
1.00131
1.00131
1.00131
1.00131
1.00131
1.00131
1.00079
1.00079
1.00079
1.00079
1.00079
1.00079
1.00079
1.00079
1.00079
1.00079
1.00079
1.00079
1.00079
1.00079
1.00079
1.00079
1.00026
1.00026
1.00026
1.00026
1.00026
1.00026
1.00026
1.00026
1.00026
1.00026
1.00026
1.00026
1.00026
1.00026
1.00026
1.00026
)
;

boundaryField
{
    inlet
    {
        type            zeroGradient;
    }
    outlet
    {
        type            fixedValue;
        value           uniform 1;
    }
    wall
    {
        type            zeroGradient;
    }
    procBoundary2to0
    {
        type            processor;
        value           nonuniform List<scalar> 
192
(
18.8335
18.7185
18.8259
18.9361
16.1953
16.3942
16.3759
16.0732
13.0749
12.9402
12.7814
11.9185
8.81334
9.23274
8.60884
7.79863
4.46494
5.2514
5.41822
5.31413
1.71225
1.81295
2.30005
2.99878
1.02704
1.00418
1.00499
1.05351
1.00509
1.00449
1.00437
1.00471
1.01008
1.00913
1.00824
1.01009
1.00752
1.00727
1.007
1.00786
1.0073
1.00724
1.00716
1.00741
1.0067
1.00668
1.00665
1.00672
1.00615
1.00613
1.00612
1.00613
1.0056
1.00559
1.00557
1.00556
1.00505
1.00504
1.00503
1.00502
1.00451
1.0045
1.00449
1.00448
1.00397
1.00396
1.00395
1.00395
1.00344
1.00343
1.00342
1.00342
1.0029
1.0029
1.0029
1.00289
1.00237
1.00237
1.00237
1.00236
1.00185
1.00184
1.00184
1.00184
1.00132
1.00132
1.00131
1.00131
1.00079
1.00079
1.00079
1.00079
1.00026
1.00026
1.00026
1.00026
18.956
18.8542
18.7118
18.7826
15.95
16.0336
16.2312
16.2145
12.8679
13.0868
13.5585
12.9026
8.69645
9.07174
8.47836
8.98304
5.08661
4.5461
4.74137
4.88723
1.70016
1.45074
1.24902
1.4286
1.01242
1.01312
1.02433
1.01817
1.00443
1.00512
1.00619
1.00519
1.00983
1.00974
1.01003
1.01001
1.00747
1.00753
1.00757
1.00754
1.00738
1.00735
1.00736
1.00733
1.00675
1.00675
1.00674
1.00672
1.00618
1.00618
1.00617
1.00616
1.00563
1.00562
1.00562
1.00561
1.00508
1.00507
1.00507
1.00506
1.00453
1.00453
1.00452
1.00452
1.00399
1.00399
1.00398
1.00398
1.00345
1.00345
1.00344
1.00344
1.00291
1.00291
1.00291
1.00291
1.00238
1.00238
1.00238
1.00238
1.00185
1.00185
1.00185
1.00185
1.00132
1.00132
1.00132
1.00132
1.00079
1.00079
1.00079
1.00079
1.00026
1.00026
1.00026
1.00026
)
;
    }
    procBoundary2to3
    {
        type            processor;
        value           nonuniform List<scalar> 
192
(
18.7178
18.7277
19.0379
18.9109
16.5134
16.7625
16.1952
16.1759
13.3236
12.7783
12.7466
12.7007
8.51055
8.93657
8.93544
8.99966
2.59924
4.92524
5.34802
5.2767
3.45418
2.49752
2.12109
2.12502
1.06546
1.0386
1.01532
1.00448
1.00722
1.00678
1.00523
1.00394
1.01055
1.01033
1.00929
1.00787
1.00796
1.00757
1.0071
1.00658
1.0074
1.00725
1.00706
1.00686
1.00667
1.00659
1.00648
1.00638
1.00608
1.00602
1.00596
1.0059
1.00552
1.00549
1.00545
1.00541
1.00498
1.00496
1.00493
1.00491
1.00445
1.00443
1.00442
1.0044
1.00393
1.00391
1.0039
1.00389
1.0034
1.00339
1.00339
1.00338
1.00288
1.00287
1.00287
1.00286
1.00236
1.00235
1.00235
1.00234
1.00183
1.00183
1.00183
1.00182
1.00131
1.00131
1.0013
1.0013
1.00078
1.00078
1.00078
1.00078
1.00026
1.00026
1.00026
1.00026
18.9046
18.9012
18.7092
18.6812
16.5938
16.2234
16.4312
16.222
12.7943
13.0168
13.1119
13.5611
8.93853
8.63063
9.06754
9.13521
4.65886
4.65007
4.74957
5.0975
1.95647
1.41187
1.3188
1.32091
1.00152
1.02546
1.00207
1.00242
1.00265
1.00183
1.00095
1.00192
1.0077
1.00848
1.00829
1.00803
1.00636
1.00639
1.00624
1.00603
1.00673
1.00667
1.00661
1.00656
1.0063
1.00625
1.00622
1.00617
1.00585
1.00582
1.00579
1.00577
1.00538
1.00535
1.00534
1.00532
1.00489
1.00487
1.00486
1.00485
1.00439
1.00438
1.00437
1.00436
1.00388
1.00387
1.00387
1.00387
1.00337
1.00337
1.00336
1.00336
1.00286
1.00285
1.00285
1.00285
1.00234
1.00234
1.00234
1.00233
1.00182
1.00182
1.00182
1.00182
1.0013
1.0013
1.0013
1.0013
1.00078
1.00078
1.00078
1.00078
1.00026
1.00026
1.00026
1.00026
)
;
    }
}


// ************************************************************************* //
