/*--------------------------------*- C++ -*----------------------------------*\
| =========                 |                                                 |
| \\      /  F ield         | OpenFOAM: The Open Source CFD Toolbox           |
|  \\    /   O peration     | Version:  2506                                  |
|   \\  /    A nd           | Website:  www.openfoam.com                      |
|    \\/     M anipulation  |                                                 |
\*---------------------------------------------------------------------------*/
FoamFile
{
    version     2.0;
    format      ascii;
    arch        "LSB;label=32;scalar=64";
    class       volVectorField;
    location    "0.08";
    object      stored_U;
}
// * * * * * * * * * * * * * * * * * * * * * * * * * * * * * * * * * * * * * //

dimensions      [0 1 -1 0 0 0 0];

internalField   nonuniform List<vector> 
1152
(
(-0.000551581 0.000700816 0.0158689)
(-0.000363803 -0.000437269 0.00563257)
(0.000494715 -0.000667775 0.0168285)
(0.00223637 0.000960455 0.00949328)
(1.24717e-05 0.0027312 0.0318499)
(-0.00090275 0.0021873 0.0200084)
(0.00107989 0.00132288 0.0179061)
(0.000286797 -0.000248555 0.000814705)
(-0.00161506 0.00129603 0.0171106)
(-0.00113431 0.00217574 0.0176258)
(0.001955 0.00165032 0.0238278)
(0.00103221 -0.00238246 0.0385114)
(8.73645e-05 0.00123455 0.0164138)
(-0.00183209 0.0022006 0.0160505)
(-0.0013244 0.00102503 0.0185606)
(0.000535966 -0.00372962 0.0244401)
(-0.000409858 0.000602162 0.0409351)
(-0.0010537 0.00157151 0.0335241)
(0.00302491 0.00179434 0.0331964)
(-0.000808038 -0.000448042 0.00309256)
(0.000322087 -0.00141263 0.0158445)
(5.2123e-05 -0.00176296 0.0412852)
(0.00299216 0.000490053 0.0312571)
(-0.00155544 -0.0070146 0.0430567)
(0.000924631 0.000791532 0.0380127)
(0.00100809 -0.00118399 0.0288399)
(-7.32295e-05 -0.000651263 0.0039714)
(0.00138814 -0.00530325 0.0384286)
(-0.000527737 -0.000156727 0.0382035)
(-0.00284401 0.000811473 0.0475604)
(-0.00103416 -0.00423667 0.0332734)
(0.00108628 0.00067047 0.0150002)
(-0.00626164 0.00104662 0.0490059)
(8.94969e-05 -0.000263098 0.0117735)
(0.00151749 -0.00144038 0.0389896)
(-0.00508584 -0.00737401 0.056861)
(0.000352774 -0.00433867 0.0645681)
(-0.00114946 0.00139818 0.0339633)
(-0.00031533 0.000938053 0.024333)
(0.00158775 0.00197131 0.0461854)
(-0.00123005 -0.000887854 0.0152595)
(0.00140925 -0.0014789 0.0299296)
(0.00137201 0.00271084 0.050116)
(7.46472e-05 0.000494264 0.0296266)
(-0.00478899 0.00189388 0.063815)
(0.000496917 -0.000641089 0.0150172)
(0.00368648 -8.48519e-05 0.0349933)
(0.000896019 9.00456e-05 0.0235275)
(0.00151996 -0.00428304 0.0350646)
(0.000382827 -9.04262e-05 0.0100022)
(-0.00108448 -0.000789243 0.0220352)
(-0.00053641 -0.0145342 0.0939445)
(-0.00130896 0.0014386 0.0393676)
(0.00253342 -0.00211377 0.049537)
(-0.000254632 -0.000718268 0.0122045)
(-0.0040519 0.00055377 0.0400623)
(-0.000531732 -0.000116819 0.0156713)
(-0.00216866 0.00161595 0.0366095)
(0.000181279 0.000448981 0.0183823)
(0.00304029 0.000771559 0.0537794)
(0.000406264 0.00237433 0.0313645)
(0.00120063 0.000722838 0.0332852)
(-0.00103048 0.00413817 0.0387966)
(0.00030328 -0.000222138 0.00735098)
(-0.000227165 -0.00242894 0.0226406)
(-0.000236749 -0.000250989 0.0278571)
(-4.51603e-05 0.00106085 0.0404768)
(0.00667034 -0.00120102 0.0431042)
(-0.000637822 0.00164691 0.0406471)
(-0.000142259 -0.00022692 0.0322783)
(-0.000731407 0.0010481 0.0323505)
(0.000749132 -0.00158937 0.0264322)
(0.000186261 0.00289794 0.0228848)
(-0.000228759 0.00155297 0.0286969)
(-0.00105959 0.000546579 0.0230698)
(-0.00410429 0.00121405 0.064092)
(0.00218532 0.00429353 0.0430531)
(-0.00232395 0.000665637 0.0304901)
(-0.00335444 -0.000612037 0.0422814)
(0.000381356 -0.000188969 0.0116627)
(-0.0014575 0.000330418 0.0168179)
(-0.000932641 -0.000686976 0.0239548)
(0.00192753 0.000537626 0.0199904)
(-1.47494e-05 0.000836033 0.00638944)
(-0.00250726 0.000153449 0.026966)
(-0.00284259 5.43032e-05 0.031227)
(-0.000672651 -0.000492535 0.014056)
(-0.000497572 -0.00404223 0.0250866)
(-0.000141425 -0.000332288 0.0205946)
(-0.00203916 0.000370882 0.0207091)
(-0.0029457 -0.000746825 0.0351268)
(0.000792187 0.00278625 0.0191093)
(-0.00578023 -0.0116164 0.0387593)
(-0.00288935 0.00178399 0.0300878)
(0.00149648 0.0025527 0.0257654)
(0.00025448 0.00105229 0.00660569)
(0.000204821 0.000924881 0.0135254)
(-0.000270585 0.00044433 0.0188691)
(-0.00324266 0.000837546 0.0223579)
(0.000185463 0.00147207 0.0107226)
(-0.000100321 6.24118e-05 0.0247406)
(0.000458561 0.000380329 0.0183382)
(-0.000112789 0.000455025 0.016059)
(-5.29701e-05 0.00194416 0.0167891)
(0.000457422 0.00101978 0.0184686)
(-0.000168251 0.000513437 0.0202489)
(-0.00032137 0.000305323 0.0157666)
(0.000184474 0.00174882 0.0282189)
(-0.000657355 0.00200793 0.0319172)
(0.000599907 0.000500654 0.0171395)
(0.000949396 0.000785511 0.015371)
(0.000355977 0.000864847 0.0085616)
(0.000850738 0.000820957 0.0203298)
(4.22944e-06 0.000570713 0.022804)
(-0.00168956 0.000941987 0.0329167)
(-0.000981141 0.0018863 0.0760394)
(0.000216405 0.0011282 0.0280337)
(3.74208e-05 0.00102438 0.0234095)
(-0.000159014 0.000980066 0.0186729)
(-0.000494342 0.00264175 0.0260311)
(6.79193e-07 0.00161551 0.0276933)
(-0.000287161 0.00147827 0.0256939)
(-0.00017857 0.00115901 0.0219968)
(-0.000345416 0.00150038 0.0298961)
(-0.000427317 -0.000218144 0.0417993)
(-0.000646473 0.00115125 0.0231105)
(-0.000272502 0.00106548 0.0169658)
(-0.00083132 0.00165417 0.0158714)
(0.000672476 0.000411468 0.00861571)
(-0.000392347 -6.49767e-05 0.00814042)
(-0.00350351 -0.000541462 0.0104461)
(0.000102514 -0.000532653 0.0178724)
(0.000305577 -0.000496317 0.00865948)
(0.000916109 0.000162927 0.00755318)
(-0.00118339 0.00108847 0.00743678)
(-0.00138769 0.00300491 0.00996986)
(0.000773211 -0.00170729 0.00895837)
(0.00104824 -0.000477026 0.00752394)
(-0.000778085 -0.000367878 0.00696398)
(-0.000292322 0.000140857 0.00852139)
(0.00103585 -0.00302594 0.0114653)
(0.00193911 -0.00127121 0.0075283)
(-0.00069493 -0.00100314 0.00654514)
(-0.000332731 -0.000174959 0.00766755)
(0.00043931 0.000218306 0.0175775)
(-3.49584e-05 0.000127551 0.0174076)
(-0.00139547 -6.84881e-05 0.0181659)
(-0.000177798 1.2442e-05 0.0211788)
(0.000304117 -5.28678e-05 0.0175106)
(0.000401286 0.000226397 0.0169651)
(-0.000631974 0.000627851 0.0167355)
(-0.000630113 0.00137873 0.0182669)
(0.000435612 -0.000606229 0.0180697)
(0.000551024 -0.00020445 0.0172627)
(-0.000311411 -7.05749e-05 0.0168226)
(-0.000229694 0.000277331 0.0177538)
(0.000298664 -0.00088783 0.0192085)
(0.000769877 -0.000557868 0.017485)
(-0.000230077 -0.000542695 0.0168383)
(-0.000212798 -0.000266201 0.0176213)
(0.000231143 1.4368e-05 0.015487)
(7.44313e-05 1.09084e-05 0.0154033)
(-0.000433211 -5.65782e-05 0.015618)
(-0.000103614 -4.45078e-05 0.0166331)
(0.000191523 -0.000113396 0.0153245)
(0.000190042 9.19788e-06 0.0151159)
(-0.000249416 0.000141369 0.0150465)
(-0.000263591 0.000366823 0.0156498)
(0.000282801 -0.000432882 0.0154856)
(0.000283234 -0.000269181 0.0151739)
(-0.000115118 -0.000189427 0.0149902)
(-0.000129881 -3.22303e-05 0.0153328)
(0.000266262 -0.000576467 0.0157186)
(0.000361519 -0.000456069 0.0152108)
(-5.73894e-05 -0.000429821 0.0149679)
(-0.000101952 -0.000328901 0.0152238)
(0.000131648 -1.99621e-05 0.0161124)
(6.76987e-05 -1.85399e-05 0.0160866)
(-0.000129552 -4.14978e-05 0.0161292)
(-5.94435e-05 -4.50582e-05 0.0164551)
(9.59589e-05 -6.13677e-05 0.0160295)
(8.2321e-05 -3.04641e-05 0.0159632)
(-9.67018e-05 2.23007e-06 0.0159367)
(-0.000118114 6.44508e-05 0.0161667)
(0.000120285 -0.000201689 0.0161182)
(0.000110669 -0.000168829 0.0160035)
(-5.39018e-05 -0.000148606 0.0159338)
(-7.54162e-05 -9.36273e-05 0.0160771)
(6.44952e-05 -0.000249034 0.0162208)
(0.000104784 -0.000257984 0.0160538)
(-4.28785e-05 -0.000270499 0.0159636)
(-6.13509e-05 -0.000247195 0.0160668)
(7.2891e-05 -3.22576e-05 0.0161552)
(4.18831e-05 -3.28402e-05 0.0161544)
(-3.59994e-05 -4.1188e-05 0.0161644)
(-3.05096e-05 -4.55942e-05 0.0162738)
(4.87484e-05 -5.38596e-05 0.0161049)
(3.73661e-05 -4.85028e-05 0.0160987)
(-3.41116e-05 -4.09798e-05 0.0160971)
(-5.13032e-05 -2.46896e-05 0.016186)
(5.85033e-05 -0.000123039 0.0161248)
(4.70672e-05 -0.000114479 0.0161073)
(-1.99343e-05 -0.000108495 0.016096)
(-3.74038e-05 -8.97317e-05 0.0161602)
(3.36347e-05 -0.000154381 0.0161304)
(3.91764e-05 -0.000160637 0.0161165)
(-1.85841e-05 -0.000165969 0.0161085)
(-2.96382e-05 -0.000160763 0.0161619)
(3.8011e-05 -3.15798e-05 0.0161799)
(2.29098e-05 -3.39076e-05 0.0161911)
(-8.57557e-06 -3.80372e-05 0.0161996)
(-1.51251e-05 -4.18485e-05 0.0162396)
(2.30329e-05 -4.23455e-05 0.0161546)
(1.57761e-05 -4.51659e-05 0.0161688)
(-1.23469e-05 -4.5571e-05 0.0161771)
(-2.27068e-05 -4.28147e-05 0.0162143)
(2.41736e-05 -7.4233e-05 0.0161538)
(1.7205e-05 -7.51361e-05 0.016167)
(-8.95561e-06 -7.4834e-05 0.0161745)
(-1.84756e-05 -6.97901e-05 0.0162047)
(9.36876e-06 -8.95e-05 0.0161385)
(1.01772e-05 -9.61977e-05 0.0161607)
(-1.05249e-05 -9.99975e-05 0.0161739)
(-1.48594e-05 -0.000100043 0.0162024)
(1.94875e-05 -2.7116e-05 0.0161962)
(1.17949e-05 -2.9759e-05 0.0162147)
(-1.295e-06 -3.25791e-05 0.0162254)
(-7.72371e-06 -3.53419e-05 0.0162423)
(1.05538e-05 -3.31592e-05 0.0161814)
(6.5556e-06 -3.69764e-05 0.0162046)
(-4.51202e-06 -3.88565e-05 0.0162179)
(-1.06925e-05 -3.93036e-05 0.0162358)
(9.13367e-06 -4.75445e-05 0.0161696)
(5.48033e-06 -5.00455e-05 0.0161965)
(-4.44205e-06 -5.12868e-05 0.0162123)
(-9.3742e-06 -5.06043e-05 0.0162294)
(1.007e-06 -5.46853e-05 0.0161414)
(8.79835e-07 -5.89763e-05 0.0161788)
(-6.29505e-06 -6.13928e-05 0.0162008)
(-7.69572e-06 -6.26592e-05 0.0162196)
(9.65416e-06 -2.20416e-05 0.0162046)
(5.74162e-06 -2.43468e-05 0.0162273)
(2.27721e-08 -2.63842e-05 0.01624)
(-4.15513e-06 -2.81574e-05 0.0162494)
(4.58465e-06 -2.54656e-05 0.0161941)
(2.5365e-06 -2.84097e-05 0.0162212)
(-2.02764e-06 -3.01269e-05 0.0162365)
(-5.50582e-06 -3.09792e-05 0.0162473)
(2.7757e-06 -3.16934e-05 0.0161769)
(1.03743e-06 -3.39584e-05 0.0162093)
(-2.73395e-06 -3.53106e-05 0.0162281)
(-5.14279e-06 -3.56809e-05 0.0162402)
(-1.83115e-06 -3.45704e-05 0.0161423)
(-1.83165e-06 -3.72374e-05 0.0161848)
(-4.13136e-06 -3.8774e-05 0.0162098)
(-4.40651e-06 -3.98721e-05 0.0162245)
(4.63196e-06 -1.73378e-05 0.0162089)
(2.7072e-06 -1.91367e-05 0.0162341)
(2.87131e-08 -2.05394e-05 0.0162477)
(-2.45018e-06 -2.16317e-05 0.016255)
(1.79708e-06 -1.91581e-05 0.0161997)
(7.30654e-07 -2.12145e-05 0.0162285)
(-1.26336e-06 -2.25011e-05 0.0162446)
(-3.15848e-06 -2.32104e-05 0.0162531)
(2.40504e-07 -2.17399e-05 0.0161796)
(-5.35312e-07 -2.34209e-05 0.0162141)
(-1.97364e-06 -2.44936e-05 0.016234)
(-3.11662e-06 -2.49639e-05 0.0162443)
(-2.43491e-06 -2.25706e-05 0.0161413)
(-2.31086e-06 -2.42252e-05 0.0161856)
(-2.89488e-06 -2.52103e-05 0.0162115)
(-2.81081e-06 -2.5923e-05 0.0162246)
(2.15987e-06 -1.33089e-05 0.0162113)
(1.19573e-06 -1.46204e-05 0.0162377)
(-1.34504e-07 -1.55689e-05 0.0162519)
(-1.60349e-06 -1.62373e-05 0.0162585)
(4.91901e-07 -1.41907e-05 0.0162022)
(-6.1152e-08 -1.55919e-05 0.0162318)
(-9.69935e-07 -1.65039e-05 0.0162482)
(-2.00153e-06 -1.70271e-05 0.016256)
(-6.79378e-07 -1.51453e-05 0.0161802)
(-1.00299e-06 -1.63183e-05 0.0162156)
(-1.53254e-06 -1.70986e-05 0.0162359)
(-2.05824e-06 -1.74821e-05 0.0162456)
(-2.28099e-06 -1.50828e-05 0.0161398)
(-2.11936e-06 -1.61267e-05 0.0161847)
(-2.12606e-06 -1.67783e-05 0.0162108)
(-1.93676e-06 -1.72214e-05 0.0162233)
(9.56817e-07 -9.98975e-06 0.0162126)
(4.57067e-07 -1.09165e-05 0.0162395)
(-2.34993e-07 -1.15576e-05 0.0162541)
(-1.09405e-06 -1.19782e-05 0.0162605)
(-7.00379e-08 -1.03735e-05 0.0162031)
(-3.57715e-07 -1.13185e-05 0.0162331)
(-7.8271e-07 -1.19476e-05 0.0162497)
(-1.34186e-06 -1.23155e-05 0.0162572)
(-9.0297e-07 -1.06278e-05 0.01618)
(-1.021e-06 -1.14247e-05 0.0162158)
(-1.19133e-06 -1.1967e-05 0.0162362)
(-1.41914e-06 -1.22476e-05 0.0162457)
(-1.88549e-06 -1.02447e-05 0.0161383)
(-1.73041e-06 -1.0913e-05 0.0161833)
(-1.5718e-06 -1.13409e-05 0.0162094)
(-1.37586e-06 -1.1626e-05 0.0162217)
(3.78443e-07 -7.31299e-06 0.0162133)
(1.10337e-07 -7.9516e-06 0.0162405)
(-2.60306e-07 -8.37909e-06 0.0162552)
(-7.44156e-07 -8.65036e-06 0.0162616)
(-2.68163e-07 -7.45325e-06 0.0162033)
(-4.16961e-07 -8.08142e-06 0.0162335)
(-6.13662e-07 -8.50247e-06 0.0162501)
(-9.09165e-07 -8.74862e-06 0.0162576)
(-8.39983e-07 -7.4322e-06 0.0161795)
(-8.65896e-07 -7.96011e-06 0.0162154)
(-8.93543e-07 -8.32492e-06 0.0162359)
(-9.79635e-07 -8.51866e-06 0.0162452)
(-1.45626e-06 -6.98763e-06 0.0161369)
(-1.317e-06 -7.42077e-06 0.0161819)
(-1.13678e-06 -7.69927e-06 0.0162081)
(-9.68371e-07 -7.88829e-06 0.0162201)
(1.18613e-07 -5.16121e-06 0.0162136)
(-2.70879e-08 -5.58643e-06 0.0162409)
(-2.27049e-07 -5.86332e-06 0.0162557)
(-4.83461e-07 -6.03725e-06 0.0162621)
(-2.85686e-07 -5.19091e-06 0.0162033)
(-3.60135e-07 -5.59908e-06 0.0162335)
(-4.46054e-07 -5.8703e-06 0.0162502)
(-5.93909e-07 -6.02578e-06 0.0162576)
(-6.64155e-07 -5.08571e-06 0.0161789)
(-6.54024e-07 -5.42862e-06 0.0162148)
(-6.28004e-07 -5.66625e-06 0.0162353)
(-6.48998e-07 -5.79276e-06 0.0162446)
(-1.05524e-06 -4.69599e-06 0.0161358)
(-9.39364e-07 -4.97475e-06 0.0161808)
(-7.80643e-07 -5.15644e-06 0.0162069)
(-6.49015e-07 -5.28108e-06 0.0162189)
(4.47237e-08 -3.40981e-06 0.0162137)
(-2.97576e-08 -3.67791e-06 0.0162411)
(-1.33971e-07 -3.85025e-06 0.0162559)
(-2.54967e-07 -3.96017e-06 0.0162623)
(-1.98203e-07 -3.39749e-06 0.0162031)
(-2.30289e-07 -3.65162e-06 0.0162334)
(-2.6271e-07 -3.81808e-06 0.0162501)
(-3.27604e-07 -3.91154e-06 0.0162574)
(-4.37749e-07 -3.29114e-06 0.0161785)
(-4.1461e-07 -3.50635e-06 0.0162144)
(-3.75607e-07 -3.65521e-06 0.0162349)
(-3.67372e-07 -3.73447e-06 0.0162441)
(-6.81628e-07 -3.00315e-06 0.016135)
(-5.90771e-07 -3.17483e-06 0.0161799)
(-4.68658e-07 -3.29121e-06 0.016206)
(-3.71181e-07 -3.37168e-06 0.0162179)
(1.07007e-07 -1.9593e-06 0.0162137)
(8.57705e-08 -2.1107e-06 0.0162412)
(4.47122e-08 -2.20752e-06 0.016256)
(-2.52971e-09 -2.2732e-06 0.0162624)
(-2.57525e-08 -1.93751e-06 0.0162029)
(-2.46453e-08 -2.08247e-06 0.0162332)
(-2.59952e-08 -2.17782e-06 0.01625)
(-4.65185e-08 -2.23195e-06 0.0162573)
(-1.632e-07 -1.86123e-06 0.0161781)
(-1.3127e-07 -1.9864e-06 0.016214)
(-9.23272e-08 -2.07508e-06 0.0162345)
(-7.37054e-08 -2.12417e-06 0.0162437)
(-3.01933e-07 -1.68363e-06 0.0161344)
(-2.3296e-07 -1.78105e-06 0.0161793)
(-1.47767e-07 -1.85531e-06 0.0162054)
(-8.02385e-08 -1.90695e-06 0.0162173)
(2.64737e-07 -8.85453e-07 0.0162136)
(2.93016e-07 -9.5729e-07 0.0162411)
(3.06144e-07 -1.00228e-06 0.016256)
(3.0004e-07 -1.03371e-06 0.0162624)
(2.03009e-07 -8.64922e-07 0.0162028)
(2.40164e-07 -9.38574e-07 0.0162331)
(2.70647e-07 -9.89057e-07 0.0162498)
(2.77867e-07 -1.02027e-06 0.0162572)
(1.33996e-07 -8.18021e-07 0.0161778)
(1.84498e-07 -8.86169e-07 0.0162137)
(2.33236e-07 -9.38834e-07 0.0162342)
(2.58776e-07 -9.72119e-07 0.0162435)
(6.02124e-08 -7.2532e-07 0.016134)
(1.28532e-07 -7.825e-07 0.0161789)
(1.97266e-07 -8.35035e-07 0.016205)
(2.45847e-07 -8.73446e-07 0.0162169)
(-0.00103427 0.00103864 0.0290174)
(2.95255e-05 -0.00153442 0.0107138)
(-0.00120393 -0.00408598 0.0342935)
(7.45348e-05 -0.00138236 0.00936275)
(-0.00206244 -0.00135123 0.0159725)
(-0.00115821 0.000223606 0.0153848)
(-0.00117542 -0.000734207 0.0170367)
(0.000249336 -0.000334091 0.0180684)
(-0.000562466 0.000155177 0.019093)
(-0.00114276 0.00161399 0.0227267)
(-0.00256956 0.00201008 0.0215451)
(0.000640052 0.000862993 0.0197437)
(-0.00293952 -0.000651688 0.0280176)
(-1.31505e-05 -0.00113453 0.0148482)
(-0.00194064 0.000845186 0.0249066)
(0.00081821 -0.000765746 0.0212825)
(-0.000452223 -0.000260408 0.036718)
(-0.002543 -0.000656048 0.0531374)
(0.0021994 -0.00142777 0.025134)
(0.000271271 0.00141737 0.0410994)
(0.000448855 0.00308423 0.051515)
(7.92503e-06 0.000280572 0.00565636)
(8.92424e-05 0.0019018 0.0202964)
(0.00136783 -0.00208398 0.0208927)
(-0.000653126 -0.000790307 0.028159)
(-0.000850328 0.00173738 0.0597088)
(-0.000633606 -0.000166105 0.0361848)
(-0.000511078 -0.00134296 0.0324049)
(0.000474763 -0.000842905 0.0264873)
(-0.00115193 0.000360649 0.0327015)
(-0.00133332 -0.00128807 0.0405645)
(0.00107538 -0.000137221 0.0243627)
(-0.000391522 0.000664151 0.0193594)
(0.00169784 0.00847577 0.0405824)
(0.00315927 0.00103884 0.0341846)
(0.00197484 0.00160672 0.0535977)
(0.0012447 0.00190034 0.0215121)
(0.0029255 0.00149139 0.0255648)
(0.000812837 0.00136845 0.0263926)
(-0.000841715 -0.000614431 0.0296062)
(-0.00118274 0.0028256 0.0393401)
(0.00287687 -0.00217405 0.0281343)
(0.00178425 0.000182054 0.0465654)
(-0.000522817 0.000484401 0.0254979)
(-0.00120242 2.81307e-05 0.0454022)
(-0.000255424 0.00067154 0.0449596)
(0.00273602 -0.000603052 0.0333402)
(-0.00189195 0.00185507 0.0311263)
(0.000265558 0.00018009 0.0222227)
(-0.000797561 -0.000507216 0.0322007)
(-0.000112723 -3.454e-05 0.0181441)
(6.76297e-06 0.003555 0.0550726)
(0.00261957 -0.0046177 0.034243)
(0.00168278 0.002164 0.057958)
(0.00109795 -0.000873386 0.0177825)
(0.00213381 0.00255947 0.0412144)
(0.00277354 -0.000725799 0.0402647)
(0.00145054 0.00224015 0.0441484)
(0.00256226 -0.00285802 0.0541689)
(0.000332067 0.000777439 0.0289743)
(0.00161663 0.000736989 0.0408974)
(-9.17889e-05 0.00030228 0.0215)
(0.00155627 -0.00119459 0.0369388)
(-0.000456781 0.00089137 0.0515524)
(-0.000281103 -0.000669607 0.0563213)
(-0.00207901 -0.00366175 0.0275206)
(-0.00410039 -0.00019622 0.0481835)
(0.00245455 0.00456605 0.0336319)
(0.00106477 -0.0018516 0.0119125)
(-0.000894172 -0.00201827 0.0249808)
(0.00422575 -0.000443459 0.032107)
(0.000824707 0.000468351 0.0124073)
(0.00168517 -0.00187809 0.0187487)
(0.00181168 0.00136357 0.0374767)
(0.00463194 -0.00208857 0.0499422)
(0.00251205 0.000727679 0.0400505)
(0.00117181 0.00180202 0.0371076)
(0.000360566 0.00108246 0.0630388)
(0.00143373 9.96945e-05 0.0137375)
(0.000936888 0.00226554 0.0335572)
(0.000289601 7.18328e-05 0.00512056)
(0.00277472 0.00228175 0.0163356)
(0.000908499 0.00354053 0.0199825)
(-0.000603361 0.000461828 0.0113325)
(-0.00323971 0.0102064 0.0324621)
(0.00316363 0.00101484 0.0293301)
(0.000873705 0.000798483 0.0165048)
(-0.00162621 0.00674453 0.0387935)
(0.000336789 0.00127846 0.0171625)
(-0.000133732 0.00209192 0.0248802)
(0.00449306 0.000624657 0.0306939)
(0.000140384 8.59975e-05 0.00669906)
(0.00235219 0.000775221 0.0304196)
(0.000286693 0.000750645 0.0130706)
(0.000151138 0.000558487 0.0176821)
(0.00196656 -0.00665277 0.0455596)
(4.86781e-05 0.000341123 0.0114299)
(-0.00130068 -0.000257021 0.0223454)
(-0.000136809 0.000132756 0.0236684)
(0.00125758 -0.00128753 0.019227)
(-0.000178598 -0.000955401 0.0223014)
(-0.000675143 8.54785e-05 0.0176501)
(1.82168e-05 0.00011524 0.0217351)
(0.000197052 -0.000132984 0.0162094)
(0.000172168 -0.000773992 0.0180771)
(-8.93074e-05 -0.000688101 0.0226724)
(-2.8428e-05 0.000231858 0.0276747)
(0.0023226 -0.00164517 -0.0240347)
(0.00034089 -0.000401824 0.0251126)
(0.00292632 -0.00123322 0.0317685)
(0.000646529 0.000131839 0.012104)
(0.00109305 0.00164185 0.0282214)
(-0.000317911 0.000932257 0.0553476)
(0.000252883 0.000989518 0.0307751)
(0.00024234 0.000966964 0.0273017)
(-0.000905594 0.00258502 0.0252953)
(-0.000375061 0.00136771 0.036913)
(4.71002e-06 0.000349265 0.0259637)
(0.00141157 0.00121208 0.0288402)
(0.000403694 0.00331661 0.0313199)
(-8.78015e-06 2.47108e-05 0.0274719)
(0.000557048 -0.000485735 0.0320467)
(0.00255464 0.00109006 0.0333022)
(0.000438185 0.000293648 0.0508241)
(-0.000141509 -0.000173382 0.0297945)
(0.000873342 -0.000242649 0.0365548)
(0.0017245 0.000643473 0.0194867)
(0.00055688 -0.00124801 0.0355624)
(0.000416258 -8.46035e-05 0.0138704)
(0.00237886 -0.000393597 0.00910288)
(0.000159218 -0.00159222 0.0080587)
(-0.0002192 -0.00178086 0.00780423)
(-0.00057986 0.00154187 0.010887)
(0.00126571 -0.000194707 0.00852281)
(-0.000840539 -0.00144953 0.00891577)
(-0.00228679 -0.00321064 0.0100395)
(-0.00079351 0.000443907 0.00887835)
(0.00070991 -0.000747066 0.00909771)
(-0.00173792 0.000200075 0.0096809)
(-0.00229613 -0.000836081 0.0123107)
(-0.000617167 -0.000364481 0.00863122)
(0.00122849 1.22258e-05 0.00998296)
(-0.000779697 0.000866291 0.00738207)
(-0.00157057 0.000541568 0.0109581)
(4.61445e-05 -0.00018942 0.0202008)
(0.000717692 -0.000471223 0.0185089)
(-8.17727e-05 -0.000974678 0.0178431)
(-0.000298671 -0.00115427 0.018107)
(-0.000356756 0.000226412 0.0196361)
(0.000323896 -0.000347669 0.0186865)
(-0.00051354 -0.000864787 0.0186321)
(-0.00107869 -0.00155641 0.0199453)
(-0.000562062 0.000104872 0.0190026)
(5.76392e-05 -0.000271473 0.0190092)
(-0.000895057 -2.42477e-05 0.0191031)
(-0.00116147 -0.000444692 0.02157)
(-0.000510578 -0.000203503 0.0187597)
(0.000203223 -7.73473e-06 0.0192305)
(-0.000630316 0.000234975 0.0179085)
(-0.000837384 0.000133252 0.020539)
(0.000151146 -0.000371494 0.015918)
(0.000355767 -0.000419693 0.0155315)
(-2.25503e-05 -0.000594278 0.0153432)
(-0.000138898 -0.000701474 0.0155038)
(-1.23193e-05 -0.000209697 0.0158049)
(0.000244469 -0.000318711 0.0156531)
(-0.000184424 -0.000506491 0.015676)
(-0.000374975 -0.00079375 0.016204)
(-0.000111253 -0.000191577 0.0155846)
(0.000164125 -0.000235885 0.0157203)
(-0.000329644 -0.000194445 0.0157934)
(-0.000429275 -0.000394178 0.0167191)
(-0.000168794 -0.000195002 0.0153673)
(0.000166377 -5.37965e-05 0.0156488)
(-0.00029144 -3.19932e-05 0.0152949)
(-0.000340051 -8.17177e-05 0.016367)
(9.47656e-06 -0.000217949 0.0163232)
(7.00041e-05 -0.000272684 0.0161937)
(-5.86488e-05 -0.00035012 0.016122)
(-7.62657e-05 -0.000409839 0.0162145)
(-5.99405e-05 -0.000174703 0.0163148)
(2.08882e-05 -0.000227638 0.0162572)
(-0.000131563 -0.000296156 0.0162459)
(-0.000145912 -0.000414646 0.0164765)
(-0.000119973 -0.000133576 0.016239)
(-2.22207e-05 -0.000143754 0.0162626)
(-0.000204331 -0.000133768 0.0162541)
(-0.000171511 -0.000217965 0.0166366)
(-0.000152457 -0.000126599 0.0161459)
(-3.48089e-05 -6.07981e-05 0.0162121)
(-0.000215355 -4.93169e-05 0.0160679)
(-0.000154015 -5.68102e-05 0.0165334)
(5.28376e-06 -0.000143455 0.0161303)
(2.34306e-05 -0.000166552 0.0161461)
(-2.93581e-05 -0.000195391 0.0161575)
(-3.20643e-05 -0.000222736 0.0162214)
(-2.51636e-05 -0.000124544 0.0160883)
(2.87654e-06 -0.000142926 0.0161403)
(-6.16976e-05 -0.00016767 0.0161794)
(-5.11347e-05 -0.000215019 0.0163029)
(-5.2126e-05 -0.00010315 0.0160062)
(-1.5123e-05 -9.86845e-05 0.0160883)
(-9.43558e-05 -9.73839e-05 0.0161306)
(-6.17686e-05 -0.00013164 0.0163198)
(-7.69608e-05 -8.39751e-05 0.0158902)
(-2.89746e-05 -4.76092e-05 0.0159822)
(-0.000108733 -4.46556e-05 0.0159798)
(-6.13311e-05 -4.32161e-05 0.0162145)
(-4.92777e-06 -8.41566e-05 0.0161124)
(1.54609e-06 -9.71927e-05 0.0161504)
(-1.69789e-05 -0.000109724 0.0161751)
(-1.42136e-05 -0.000122188 0.0162127)
(-1.96363e-05 -7.45672e-05 0.0160595)
(-8.54778e-06 -8.41259e-05 0.0161122)
(-3.12139e-05 -9.36156e-05 0.0161491)
(-1.91714e-05 -0.000113746 0.0162136)
(-3.3608e-05 -6.1674e-05 0.0159776)
(-1.81375e-05 -6.00783e-05 0.0160389)
(-4.61778e-05 -5.99989e-05 0.016076)
(-2.30669e-05 -7.51706e-05 0.016169)
(-4.75963e-05 -5.0206e-05 0.0158712)
(-2.82417e-05 -3.26024e-05 0.0159286)
(-5.66574e-05 -2.90405e-05 0.0159479)
(-2.46247e-05 -2.66802e-05 0.0160585)
(-6.28062e-06 -5.08028e-05 0.0160988)
(-3.66347e-06 -5.7811e-05 0.0161473)
(-9.94066e-06 -6.35371e-05 0.016178)
(-6.93538e-06 -6.93803e-05 0.0162035)
(-1.35069e-05 -4.52586e-05 0.0160366)
(-8.87139e-06 -4.99317e-05 0.0160917)
(-1.65909e-05 -5.379e-05 0.0161294)
(-8.1766e-06 -6.23102e-05 0.016168)
(-2.03924e-05 -3.75747e-05 0.0159487)
(-1.38682e-05 -3.64127e-05 0.0160056)
(-2.35854e-05 -3.59921e-05 0.0160437)
(-9.39316e-06 -4.22089e-05 0.016095)
(-2.80982e-05 -3.00791e-05 0.0158387)
(-1.98046e-05 -2.06484e-05 0.0158879)
(-2.94035e-05 -1.73638e-05 0.015917)
(-1.02003e-05 -1.51904e-05 0.0159753)
(-5.70153e-06 -3.14391e-05 0.0160917)
(-4.36753e-06 -3.54147e-05 0.0161427)
(-6.14831e-06 -3.82011e-05 0.0161749)
(-3.94043e-06 -4.09441e-05 0.0161949)
(-9.49389e-06 -2.78331e-05 0.016025)
(-7.26573e-06 -3.02728e-05 0.0160785)
(-9.4446e-06 -3.19044e-05 0.0161155)
(-4.2164e-06 -3.55557e-05 0.0161426)
(-1.30372e-05 -2.29856e-05 0.0159342)
(-9.98381e-06 -2.22969e-05 0.0159859)
(-1.28025e-05 -2.17435e-05 0.0160231)
(-4.481e-06 -2.41676e-05 0.016056)
(-1.7213e-05 -1.82491e-05 0.0158226)
(-1.34004e-05 -1.30078e-05 0.0158643)
(-1.58458e-05 -1.03446e-05 0.0158946)
(-4.64548e-06 -8.66218e-06 0.0159291)
(-4.56458e-06 -2.01132e-05 0.0160864)
(-3.78885e-06 -2.24117e-05 0.016138)
(-3.99781e-06 -2.38332e-05 0.0161704)
(-2.56359e-06 -2.51122e-05 0.0161879)
(-6.62787e-06 -1.76272e-05 0.0160174)
(-5.4606e-06 -1.88742e-05 0.0160693)
(-5.71806e-06 -1.95763e-05 0.0161055)
(-2.60638e-06 -2.11143e-05 0.0161274)
(-8.48825e-06 -1.44597e-05 0.0159248)
(-6.96243e-06 -1.39463e-05 0.0159734)
(-7.33851e-06 -1.33993e-05 0.0160094)
(-2.54887e-06 -1.42251e-05 0.0160341)
(-1.07726e-05 -1.13539e-05 0.0158121)
(-8.88689e-06 -8.24398e-06 0.0158495)
(-8.88699e-06 -6.2432e-06 0.0158793)
(-2.4295e-06 -5.0498e-06 0.0159032)
(-3.4873e-06 -1.32311e-05 0.0160826)
(-3.01599e-06 -1.46137e-05 0.0161341)
(-2.74937e-06 -1.53633e-05 0.0161663)
(-1.81596e-06 -1.59323e-05 0.0161827)
(-4.65159e-06 -1.14749e-05 0.0160123)
(-4.00918e-06 -1.2124e-05 0.0160631)
(-3.66236e-06 -1.24011e-05 0.0160985)
(-1.80001e-06 -1.29996e-05 0.0161181)
(-5.65111e-06 -9.33937e-06 0.0159188)
(-4.85039e-06 -8.93483e-06 0.0159653)
(-4.45293e-06 -8.4547e-06 0.0160004)
(-1.65922e-06 -8.63684e-06 0.0160213)
(-6.91892e-06 -7.24752e-06 0.0158054)
(-5.92776e-06 -5.30946e-06 0.0158402)
(-5.22639e-06 -3.85726e-06 0.0158692)
(-1.45739e-06 -3.02649e-06 0.0158882)
(-2.59109e-06 -8.88262e-06 0.0160798)
(-2.28888e-06 -9.72919e-06 0.016131)
(-1.93873e-06 -1.0135e-05 0.0161631)
(-1.32464e-06 -1.03932e-05 0.0161789)
(-3.26207e-06 -7.62658e-06 0.0160088)
(-2.89121e-06 -7.96209e-06 0.0160588)
(-2.44845e-06 -8.05342e-06 0.0160937)
(-1.30544e-06 -8.26188e-06 0.0161121)
(-3.81074e-06 -6.16267e-06 0.0159147)
(-3.36303e-06 -5.84753e-06 0.01596)
(-2.8325e-06 -5.45812e-06 0.0159944)
(-1.16396e-06 -5.399e-06 0.0160135)
(-4.53182e-06 -4.72692e-06 0.015801)
(-3.97083e-06 -3.47318e-06 0.0158342)
(-3.20793e-06 -2.44655e-06 0.0158625)
(-9.60734e-07 -1.86569e-06 0.0158792)
(-1.88139e-06 -6.00803e-06 0.0160776)
(-1.6761e-06 -6.52971e-06 0.0161287)
(-1.36106e-06 -6.76128e-06 0.0161606)
(-9.5282e-07 -6.88403e-06 0.0161762)
(-2.26855e-06 -5.11167e-06 0.0160063)
(-2.05178e-06 -5.27971e-06 0.0160558)
(-1.66584e-06 -5.30512e-06 0.0160903)
(-9.41828e-07 -5.36292e-06 0.0161082)
(-2.57378e-06 -4.1045e-06 0.015912)
(-2.31386e-06 -3.87242e-06 0.0159565)
(-1.85631e-06 -3.57115e-06 0.0159903)
(-8.28037e-07 -3.45339e-06 0.0160086)
(-2.99514e-06 -3.11558e-06 0.015798)
(-2.65676e-06 -2.2932e-06 0.0158303)
(-2.03177e-06 -1.57694e-06 0.015858)
(-6.58766e-07 -1.17913e-06 0.0158736)
(-1.31362e-06 -4.01628e-06 0.0160761)
(-1.17354e-06 -4.33715e-06 0.016127)
(-9.23006e-07 -4.47235e-06 0.0161588)
(-6.49579e-07 -4.53624e-06 0.0161742)
(-1.5356e-06 -3.39178e-06 0.0160045)
(-1.40796e-06 -3.47255e-06 0.0160536)
(-1.11268e-06 -3.47639e-06 0.016088)
(-6.48251e-07 -3.4857e-06 0.0161055)
(-1.70609e-06 -2.70829e-06 0.01591)
(-1.55396e-06 -2.54286e-06 0.0159541)
(-1.20969e-06 -2.3325e-06 0.0159876)
(-5.65703e-07 -2.22137e-06 0.0160055)
(-1.95446e-06 -2.03394e-06 0.0157959)
(-1.74882e-06 -1.49792e-06 0.0158276)
(-1.28976e-06 -1.01852e-06 0.015855)
(-4.36076e-07 -7.50984e-07 0.0158701)
(-8.35619e-07 -2.55644e-06 0.016075)
(-7.38666e-07 -2.74961e-06 0.0161258)
(-5.587e-07 -2.8314e-06 0.0161575)
(-3.7867e-07 -2.86729e-06 0.0161728)
(-9.60962e-07 -2.14251e-06 0.0160033)
(-8.83774e-07 -2.18378e-06 0.0160522)
(-6.76029e-07 -2.1865e-06 0.0160864)
(-3.82724e-07 -2.18434e-06 0.0161038)
(-1.05583e-06 -1.70016e-06 0.0159087)
(-9.64665e-07 -1.59465e-06 0.0159525)
(-7.26954e-07 -1.46186e-06 0.0159858)
(-3.2856e-07 -1.38374e-06 0.0160034)
(-1.20199e-06 -1.25927e-06 0.0157945)
(-1.07426e-06 -9.28135e-07 0.0158259)
(-7.62852e-07 -6.27085e-07 0.015853)
(-2.39826e-07 -4.63164e-07 0.0158679)
(-3.88824e-07 -1.42041e-06 0.0160742)
(-3.20358e-07 -1.53318e-06 0.016125)
(-2.04082e-07 -1.58712e-06 0.0161567)
(-9.09538e-08 -1.61213e-06 0.0161719)
(-4.61876e-07 -1.17658e-06 0.0160025)
(-4.07401e-07 -1.2057e-06 0.0160513)
(-2.7311e-07 -1.21617e-06 0.0160854)
(-9.86688e-08 -1.22207e-06 0.0161027)
(-5.15074e-07 -9.2053e-07 0.0159079)
(-4.53403e-07 -8.67386e-07 0.0159515)
(-3.0176e-07 -8.05261e-07 0.0159847)
(-7.06364e-08 -7.71836e-07 0.0160022)
(-5.98453e-07 -6.55364e-07 0.0157937)
(-5.13815e-07 -4.79452e-07 0.0158249)
(-3.19866e-07 -3.25778e-07 0.0158518)
(-2.0256e-08 -2.51411e-07 0.0158666)
(8.49285e-09 -5.97495e-07 0.0160737)
(7.43004e-08 -6.65484e-07 0.0161245)
(1.56796e-07 -7.08775e-07 0.0161562)
(2.30265e-07 -7.37502e-07 0.0161714)
(-4.49371e-08 -4.70782e-07 0.016002)
(1.74026e-08 -5.04695e-07 0.0160507)
(1.13378e-07 -5.28893e-07 0.0160847)
(2.16527e-07 -5.54539e-07 0.0161021)
(-8.58172e-08 -3.31657e-07 0.0159073)
(-1.98536e-08 -3.27999e-07 0.0159508)
(8.81102e-08 -3.23614e-07 0.015984)
(2.18754e-07 -3.39332e-07 0.0160015)
(-1.27379e-07 -1.8677e-07 0.0157931)
(-5.27963e-08 -1.28678e-07 0.0158242)
(7.43538e-08 -8.78552e-08 0.0158511)
(2.3437e-07 -9.29221e-08 0.0158658)
(0.00102 0.00147844 0.0266934)
(-0.00142592 0.000445362 0.0329444)
(6.00679e-05 -0.000610452 0.0165224)
(0.00280036 0.000564969 0.0238276)
(0.000326919 0.00177413 0.0110614)
(-0.000170599 0.00319976 0.0250662)
(0.000717232 0.00279222 0.0153809)
(0.00248906 0.00424341 0.0222402)
(-0.00192784 0.00412807 0.0230751)
(-0.00568584 0.00533436 0.0251304)
(-0.000667894 0.00234237 0.014251)
(8.75988e-05 0.00223416 0.0275951)
(-0.00238125 -0.00151049 0.0190055)
(-0.000564834 -0.000335771 0.0062189)
(-0.000703894 0.00153825 0.0343184)
(-0.00070037 0.000387891 0.0150175)
(-4.95169e-05 0.000713414 0.00578456)
(-0.000545871 0.00118357 0.0190725)
(-0.000913879 0.00062594 0.00428599)
(-0.000867909 -0.0004036 0.0138896)
(-6.56705e-05 -0.000278202 0.0434367)
(-0.000646256 -0.000334977 0.018711)
(-0.0039647 -0.00157944 0.0411949)
(-0.000774085 -0.00096509 0.0321313)