FoamFile
{version 2.0; format ascii;class Cloud<passiveParticle>; location 0;object  positions;}
2498
(
( 0.00163984 -0.00391898 0.00615514 ) 0 
( 0.000411332 -0.00502082 0.00514233 ) 0 
( 0.012463 -0.000890885 0.00359992 ) 0 
( 9.82302e-05 -0.0133495 0.0052076 ) 0 
( 0.0109768 -0.00404988 0.00462605 ) 0 
( 0.00320903 -0.00404342 0.00557002 ) 0 
( 0.0049161 -0.00361368 0.000499616 ) 0 
( 0.00526331 -0.0122686 0.00235989 ) 0 
( 0.00437162 -0.00417459 0.00705236 ) 0 
( 0.00831695 -0.00578818 0.00413263 ) 0 
( 0.00457123 -0.00146803 0.00596465 ) 0 
( 0.0102137 -0.00706568 0.00644332 ) 0 
( 0.00511993 -0.0086852 0.00501371 ) 0 
( 0.00482978 -0.0105113 0.000499646 ) 0 
( 0.00506384 -0.00526208 0.00401432 ) 0 
( 0.00912197 -0.00846643 0.00413611 ) 0 
( 0.00921985 -0.00205757 0.000499613 ) 0 
( 0.0122132 -0.00251976 0.00603219 ) 0 
( 0.00463151 -0.006016 0.00731141 ) 0 
( 0.0022282 -0.0131628 0.00231292 ) 0 
( 0.00516795 -0.00144665 0.00147805 ) 0 
( 0.00750501 -0.00482267 0.000499594 ) 0 
( 0.00895578 -0.00419278 0.00633541 ) 0 
( 0.00397877 -0.00129419 0.00312694 ) 0 
( 0.00103541 -0.00699011 0.00554805 ) 0 
( 0.0102396 -0.0075183 0.00221117 ) 0 
( 0.000947138 -0.00328756 0.00293269 ) 0 
( 0.00375886 -0.00647043 0.00713445 ) 0 
( 0.00417096 -0.0069187 0.00618221 ) 0 
( 0.00894816 -0.00277016 0.00129171 ) 0 
( 0.000642659 -0.00978345 0.00147516 ) 0 
( 1.64554e-05 -0.00734228 0.00282536 ) 0 
( 0.0049251 -0.0038053 0.00591518 ) 0 
( 0.00924948 -0.00213101 0.00381477 ) 0 
( 0.0090568 -0.00296259 0.00329408 ) 0 
( 0.0133386 -0.000556651 0.00483585 ) 0 
( 0.00626053 -0.000960507 0.000499547 ) 0 
( 0.0112862 -0.00423074 0.00202643 ) 0 
( 0.00763799 -0.0109492 0.00127534 ) 0 
( 0.00739091 -0.0074673 0.0054542 ) 0 
( 0.000180698 -0.00471474 0.00817815 ) 0 
( 0.00411372 -0.00435814 0.006104 ) 0 
( 0.00560047 -0.0111767 0.00676978 ) 0 
( 0.00133211 -0.0086396 0.00220651 ) 0 
( 0.00763627 -0.00842913 0.00533235 ) 0 
( 0.00772354 -0.00100533 0.000499659 ) 0 
( 0.00341079 -0.000341006 0.00049978 ) 0 
( 8.54409e-05 -0.00104774 0.00567557 ) 0 
( 0.00836301 -0.00985132 0.00353444 ) 0 
( 0.00417404 -0.00515354 0.00709607 ) 0 
( 0.00456977 -0.00734726 0.00363798 ) 0 
( 0.0133226 -0.00086261 0.00669542 ) 0 
( 0.00231172 -0.0112637 0.00650813 ) 0 
( 0.00185089 -0.00553579 0.00537583 ) 0 
( 0.00759927 -0.00372273 0.000499801 ) 0 
( 0.000578357 -0.000741104 0.000499664 ) 0 
( 0.00939981 -0.00948037 0.000499622 ) 0 
( 0.00861072 -0.00904045 0.00244702 ) 0 
( 0.00314679 -0.00614634 0.00409719 ) 0 
( 0.0120324 -0.00349018 0.00587566 ) 0 
( 0.00153917 -0.00718785 0.00222869 ) 0 
( 0.00720974 -0.00112672 0.00526533 ) 0 
( 0.00792021 -0.0107468 0.00357862 ) 0 
( 0.00826125 -0.00149891 0.00575832 ) 0 
( 0.00937963 -0.00501264 0.00501358 ) 0 
( 0.00399336 -0.00119715 0.00519453 ) 0 
( 0.00887946 -0.00404498 0.00467926 ) 0 
( 0.00096658 -0.0104143 0.0069892 ) 0 
( 0.0056007 -0.00906151 0.00580541 ) 0 
( 0.0037337 -0.00354152 0.00207786 ) 0 
( 0.00243856 -0.00685309 0.000499811 ) 0 
( 0.00835293 -0.00746519 0.000499806 ) 0 
( 0.0107513 -0.00345515 0.0038275 ) 0 
( 0.00602782 -0.00262709 0.00589964 ) 0 
( 0.00703067 -0.00108472 0.0032711 ) 0 
( 0.00362788 -0.00129708 0.00672531 ) 0 
( 0.0116474 -0.00465137 0.0028775 ) 0 
( 0.000432516 -0.00243001 0.00296966 ) 0 
( 0.00926546 -0.00726141 0.00619389 ) 0 
( 0.0017664 -0.00348206 0.00397967 ) 0 
( 0.00984717 -0.00425123 0.0067834 ) 0 
( 0.00726275 -0.00699141 0.000499688 ) 0 
( 0.00472099 -0.00393633 0.00205738 ) 0 
( 0.00211872 -0.0123574 0.00648003 ) 0 
( 0.00867625 -0.00886335 0.00617821 ) 0 
( 0.000523907 -0.0123408 0.0004998 ) 0 
( 0.0092331 -0.00161161 0.00555275 ) 0 
( 0.0109747 -0.00501806 0.0010961 ) 0 
( 0.00519475 -0.00519866 0.00719119 ) 0 
( 0.00333221 -0.00753565 0.000499804 ) 0 
( 0.0094922 -0.00823759 0.00503629 ) 0 
( 0.00153362 -0.0109131 0.00517766 ) 0 
( 0.00201484 -0.00504486 0.0038919 ) 0 
( 0.00111155 -0.00389526 0.00205676 ) 0 
( 0.00183591 -0.0105498 0.000499548 ) 0 
( 0.00538351 -0.00705226 0.00486022 ) 0 
( 0.00234353 -0.00516522 0.00106268 ) 0 
( 0.00730212 -0.00916484 0.00474346 ) 0 
( 0.00446629 -0.012365 0.00138417 ) 0 
( 0.00160558 -0.00641308 0.00496349 ) 0 
( 0.00456634 -0.0114757 0.000499831 ) 0 
( 0.000538593 -0.00370439 0.00747317 ) 0 
( 0.0106726 -0.00628161 0.00135093 ) 0 
( 0.00378456 -0.00290681 0.00359295 ) 0 
( 0.00137531 -0.00171407 0.00768087 ) 0 
( 0.00290537 -0.00773706 0.00590172 ) 0 
( 0.0117574 -0.0043994 0.00116077 ) 0 
( 0.00579791 -0.00780066 0.00117451 ) 0 
( 0.00771611 -0.0043575 0.00524742 ) 0 
( 0.001087 -0.0133057 0.000499827 ) 0 
( 0.00195005 -0.00598074 0.000499676 ) 0 
( 0.00655328 -0.00269688 0.00706574 ) 0 
( 0.000167552 -0.00106419 0.00420218 ) 0 
( 0.0118633 -0.00612258 0.00142194 ) 0 
( 0.00431805 -0.00214074 0.00526961 ) 0 
( 0.00188888 -0.0114407 0.000950117 ) 0 
( 0.00446463 -0.00562557 0.00512677 ) 0 
( 0.0118303 -0.00616979 0.00446644 ) 0 
( 0.00657042 -0.00446727 0.000499666 ) 0 
( 0.0109492 -0.00260532 0.00685547 ) 0 
( 0.00274533 -0.00489169 0.0052263 ) 0 
( 0.00805778 -0.00994114 0.00638903 ) 0 
( 0.00508513 -0.00460408 0.00136116 ) 0 
( 0.00097101 -0.00333871 0.00469754 ) 0 
( 0.00778521 -0.00492366 0.00437771 ) 0 
( 0.00295959 -0.00698199 0.00681945 ) 0 
( 0.00832889 -0.0043594 0.000825542 ) 0 
( 0.00309327 -0.00976083 0.00202417 ) 0 
( 0.00687605 -0.00966088 0.00694554 ) 0 
( 0.00783976 -0.00992782 0.00119585 ) 0 
( 0.010408 -0.00529333 0.00634307 ) 0 
( 0.00113478 -0.00877103 0.0056169 ) 0 
( 0.00428325 -0.0014086 0.00194202 ) 0 
( 0.00266476 -0.0107238 0.00465623 ) 0 
( 0.0116441 -0.00116775 0.00652369 ) 0 
( 0.00760811 -0.00935081 0.00571899 ) 0 
( 0.00700327 -0.00321296 0.00502117 ) 0 
( 0.0100201 -0.00567367 0.00550399 ) 0 
( 0.0131669 -0.00220675 0.00588947 ) 0 
( 0.00924965 -0.00739381 0.00227814 ) 0 
( 0.00586562 -0.0100606 0.000977018 ) 0 
( 0.00904066 -0.00672404 0.000499734 ) 0 
( 0.00380687 -0.0111059 0.00198177 ) 0 
( 0.00332092 -0.00504504 0.00658602 ) 0 
( 0.00472343 -0.00990366 0.00287693 ) 0 
( 0.00961406 -0.0068567 0.00320663 ) 0 
( 0.00362194 -0.00981226 0.0029638 ) 0 
( 0.00655435 -0.00633998 0.00617878 ) 0 
( 0.010232 -0.00259478 0.00615927 ) 0 
( 0.00431659 -0.00485083 0.00195134 ) 0 
( 0.0104929 -0.00484084 0.0019541 ) 0 
( 0.00451904 -0.00434413 0.00366024 ) 0 
( 0.00563299 -0.000450523 0.0029937 ) 0 
( 0.00213963 -0.00121395 0.0013294 ) 0 
( 0.00926847 -0.00694707 0.00714294 ) 0 
( 0.0089934 -0.00125124 0.00339068 ) 0 
( 0.00616955 -0.000441062 0.00134882 ) 0 
( 0.000213678 -0.00651175 0.00784565 ) 0 
( 0.00629547 -0.00843622 0.00302465 ) 0 
( 1.00843e-05 -0.00539218 0.00325592 ) 0 
( 0.0022769 -0.00866796 0.00331225 ) 0 
( 0.0028979 -0.0130317 0.00624351 ) 0 
( 0.000347079 -0.000486281 0.00208317 ) 0 
( 0.000900087 -0.00328038 0.0059157 ) 0 
( 0.00288943 -0.00975915 0.000499742 ) 0 
( 0.00382606 -0.0108041 0.00644392 ) 0 
( 0.0132165 -0.00188364 0.00308295 ) 0 
( 0.00127964 -0.00516161 0.00749785 ) 0 
( 0.00599275 -0.00151744 0.00354824 ) 0 
( 0.00539683 -0.00910449 0.000499643 ) 0 
( 0.00289404 -0.00640235 0.00763191 ) 0 
( 0.0126581 -0.00424241 0.00624031 ) 0 
( 0.000774021 -0.00385388 0.000499625 ) 0 
( 0.00108698 -0.00557226 0.00465282 ) 0 
( 0.00726126 -0.00815886 0.00313822 ) 0 
( 0.00409677 -0.00204896 0.00400096 ) 0 
( 0.00653921 -0.00751098 0.00272805 ) 0 
( 0.0019994 -0.00272285 0.00157632 ) 0 
( 0.00506639 -0.00724407 0.00156766 ) 0 
( 0.000153968 -0.00554032 0.00761563 ) 0 
( 0.0105651 -0.00816117 0.000499704 ) 0 
( 0.000491378 -0.00959229 0.00736367 ) 0 
( 0.0123181 -0.00189326 0.00232123 ) 0 
( 0.00166751 -0.00171395 0.00582335 ) 0 
( 0.00220512 -0.00692271 0.00153137 ) 0 
( 0.00023799 -0.0039955 0.00274329 ) 0 
( 0.000439161 -0.00417978 0.00460279 ) 0 
( 0.00371978 -0.00353545 0.00746012 ) 0 
( 0.00652455 -8.99058e-05 0.00644267 ) 0 
( 0.0104618 -0.00367878 0.00572507 ) 0 
( 0.00295104 -0.00582996 0.00149693 ) 0 
( 0.00458354 -0.00471701 0.000499704 ) 0 
( 0.00467373 -0.0114078 0.00158516 ) 0 
( 0.00325035 -0.0106516 0.00128624 ) 0 
( 0.0108513 -0.00211501 0.000499804 ) 0 
( 0.00885476 -0.00999093 0.00116552 ) 0 
( 0.00289968 -0.0122403 0.00471099 ) 0 
( 0.000974777 -0.0079889 0.00693201 ) 0 
( 0.0107006 -0.00261112 0.00436195 ) 0 
( 0.00858562 -0.00499918 0.00680127 ) 0 
( 0.00228628 -0.00894778 0.00219598 ) 0 
( 0.000880916 -0.00388838 0.00375432 ) 0 
( 0.00804619 -0.00111505 0.00386811 ) 0 
( 0.00197179 -0.0103707 0.00589426 ) 0 
( 0.0115323 -0.00344263 0.00142155 ) 0 
( 0.00287103 -0.0104558 0.0063238 ) 0 
( 0.00238308 -0.0101546 0.00126601 ) 0 
( 0.00688082 -0.00967006 0.00131274 ) 0 
( 0.00973339 -0.00450795 0.00422623 ) 0 
( 0.00711216 -0.0112981 0.000499756 ) 0 
( 0.000784513 -0.00796352 0.00512155 ) 0 
( 0.0100214 -0.00581099 0.00451378 ) 0 
( 0.00272415 -0.0013146 0.00459163 ) 0 
( 0.00543834 -0.000638775 0.00200121 ) 0 
( 0.00739715 -0.00637824 0.00672236 ) 0 
( 0.00766671 -0.0016639 0.00270182 ) 0 
( 0.00695873 -0.00878622 0.00177386 ) 0 
( 0.00882993 -0.00749789 0.00417829 ) 0 
( 0.00241438 -0.00415912 0.00355027 ) 0 
( 0.0100707 -0.00872608 0.00371185 ) 0 
( 0.00742644 -0.0101446 0.00513869 ) 0 
( 0.00931765 -0.00473154 0.00328276 ) 0 
( 0.00654146 -0.00605029 0.00713666 ) 0 
( 0.0102245 -0.0068478 0.00741885 ) 0 
( 0.00556502 -0.00910496 0.00280343 ) 0 
( 0.00593189 -0.00287113 0.00103663 ) 0 
( 0.00517184 -0.00467682 0.00633881 ) 0 
( 0.00968866 -0.00473456 0.00592278 ) 0 
( 0.00159019 -0.00769297 0.001363 ) 0 
( 0.00696702 -0.00160558 0.00196383 ) 0 
( 0.00465626 -0.00270889 0.00450403 ) 0 
( 0.00740576 -0.00933625 0.000499697 ) 0 
( 0.00254574 -0.00796892 0.00147881 ) 0 
( 0.00166136 -0.0132463 0.00646587 ) 0 
( 0.00585878 -0.010523 0.0060586 ) 0 
( 0.00637079 -0.0112785 0.0054711 ) 0 
( 0.000267671 -0.0111136 0.00307399 ) 0 
( 0.00129312 -0.00332672 0.0012068 ) 0 
( 0.000792117 -0.0101187 0.00318483 ) 0 
( 0.00230021 -0.00424372 0.00459425 ) 0 
( 0.00773699 -0.00388604 0.00431698 ) 0 
( 0.0120535 -0.000376604 0.004355 ) 0 
( 0.00181526 -0.0120356 0.00379037 ) 0 
( 0.00944635 -0.00824214 0.00603504 ) 0 
( 0.00957835 -0.00082089 0.00496233 ) 0 
( 0.00467303 -0.0104542 0.00457861 ) 0 
( 0.000660144 -0.00141623 0.00227582 ) 0 
( 0.00328922 -0.00202159 0.00829703 ) 0 
( 0.0041232 -0.00364986 0.00300646 ) 0 
( 0.0130462 -0.00281321 0.00356737 ) 0 
( 0.00265562 -0.00951669 0.00294333 ) 0 
( 0.00313874 -0.00676869 0.0012085 ) 0 
( 0.00572165 -0.011187 0.00403679 ) 0 
( 0.00766139 -0.000297185 0.00146093 ) 0 
( 0.00511519 -0.00259291 0.000499761 ) 0 
( 0.0019769 -0.00712971 0.00312782 ) 0 
( 0.0117732 -0.000574564 0.00572937 ) 0 
( 0.00985868 -0.00782065 0.00331127 ) 0 
( 0.00805576 -0.00223187 0.00197389 ) 0 
( 0.00900937 -0.00503853 0.00127509 ) 0 
( 0.00541649 -0.00316736 0.00532158 ) 0 
( 0.00171786 -0.00123588 0.00323336 ) 0 
( 0.00637228 -0.00963351 0.00608263 ) 0 
( 0.00886013 -0.0055565 0.0029458 ) 0 
( 0.000655161 -0.0029162 0.00381452 ) 0 
( 0.00783742 -0.00469953 0.0062102 ) 0 
( 0.000639937 -0.0080719 0.00101972 ) 0 
( 0.00295505 -0.00250357 0.0041938 ) 0 
( 0.00571164 -0.00343107 0.00640598 ) 0 
( 0.00481716 -0.00252182 0.00610462 ) 0 
( 0.00595361 -0.000362096 0.00791425 ) 0 
( 0.0132527 -0.00160936 0.00210764 ) 0 
( 0.00491194 -0.00261669 0.00748544 ) 0 
( 0.0130547 -0.00279271 0.000499791 ) 0 
( 0.00705763 -0.000198353 0.00560372 ) 0 
( 0.00984921 -0.00169952 0.0063857 ) 0 
( 0.0063412 -0.00730854 0.00605112 ) 0 
( 0.0101991 -0.00861405 0.00131258 ) 0 
( 0.0112753 -0.000246166 0.00247393 ) 0 
( 0.00732945 -0.0105283 0.00674201 ) 0 
( 0.000687516 -0.00271649 0.00743545 ) 0 
( 0.00463948 -0.00325492 0.00676559 ) 0 
( 0.00214442 -0.0048573 0.00789888 ) 0 
( 0.0103797 -0.00839551 0.0026703 ) 0 
( 0.0030603 -0.0129914 0.000499663 ) 0 
( 0.00444148 -0.00573056 0.00254372 ) 0 
( 0.0124839 -0.000932511 0.00254195 ) 0 
( 0.0075152 -0.00925354 0.003447 ) 0 
( 0.00130498 -0.00844134 0.00324915 ) 0 
( 0.0113719 -0.00699354 0.00141201 ) 0 
( 0.00599143 -0.0045244 0.00336087 ) 0 
( 0.00776967 -0.00229783 0.00541172 ) 0 
( 0.00684035 -0.0104913 0.00587079 ) 0 
( 0.00690633 -0.00174909 0.000499796 ) 0 
( 0.00800811 -0.00149767 0.00479112 ) 0 
( 0.00418822 -0.0126754 0.00503111 ) 0 
( 0.00234997 -0.00530049 0.00209547 ) 0 
( 0.0101997 -0.00480935 0.000499714 ) 0 
( 0.00313952 -0.00602336 0.00648949 ) 0 
( 0.00308308 -0.000453997 0.00213836 ) 0 
( 0.00538865 -0.00765911 0.0024184 ) 0 
( 0.00230075 -0.00582504 0.00315429 ) 0 
( 0.00938372 -0.00666672 0.0042248 ) 0 
( 0.00432581 -0.00806014 0.00161866 ) 0 
( 0.00822291 -0.00726125 0.00493837 ) 0 
( 0.000434315 -0.00483553 0.00621191 ) 0 
( 0.00116275 -0.00555051 0.003645 ) 0 
( 0.0102327 -0.00194532 0.00378113 ) 0 
( 0.00148074 -0.00319198 0.00781477 ) 0 
( 0.0132927 -0.00124201 0.00406968 ) 0 
( 0.00248116 -0.00343994 0.0059052 ) 0 
( 0.00713661 -0.00256478 0.00218953 ) 0 
( 0.00331247 -0.00570905 0.0031845 ) 0 
( 0.00189153 -0.00828413 0.00723185 ) 0 
( 0.00609964 -0.00353915 0.00464475 ) 0 
( 0.00364266 -0.00509414 0.00561819 ) 0 
( 0.00611963 -0.00257142 0.00489551 ) 0 
( 0.0076612 -0.0107912 0.0025402 ) 0 
( 0.000106745 -0.0124828 0.00573443 ) 0 
( 0.00606309 -0.00439564 0.0013581 ) 0 
( 0.00381297 -0.000203796 0.0038433 ) 0 
( 0.0130211 -0.00294881 0.00500787 ) 0 
( 0.0015904 -0.00997135 0.00376866 ) 0 
( 0.0124791 -0.00212221 0.00515471 ) 0 
( 0.000624873 -0.00648425 0.00478193 ) 0 
( 0.00446795 -0.0108062 0.00549173 ) 0 
( 0.00112256 -0.00654856 0.003356 ) 0 
( 0.0100563 -0.0040667 0.007743 ) 0 
( 0.0128184 -0.00373042 0.000754014 ) 0 
( 0.00958909 -0.0054497 0.00212561 ) 0 
( 0.00350691 -0.00425303 0.00352365 ) 0 
( 0.000838128 -0.0132669 0.00375266 ) 0 
( 0.00189917 -0.00941536 0.00560841 ) 0 
( 0.00702161 -0.0113543 0.00307792 ) 0 
( 0.00270201 -0.0121744 0.00568894 ) 0 
( 0.00662348 -0.0019524 0.00283644 ) 0 
( 0.00460968 -0.0125289 0.0041363 ) 0 
( 0.00772672 -0.00547386 0.00699357 ) 0 
( 0.00135505 -0.00207183 0.0028217 ) 0 
( 0.00837008 -0.00436748 0.00339031 ) 0 
( 0.0126157 -0.00152583 0.0069386 ) 0 
( 0.00986318 -0.000730164 0.00306925 ) 0 
( 0.00875506 -0.0080478 0.00677236 ) 0 
( 0.00391865 -0.00354379 0.000499788 ) 0 
( 0.00392229 -0.00238027 0.000499633 ) 0 
( 0.0021479 -0.00760157 0.00654101 ) 0 
( 0.00628779 -0.00986379 0.0020941 ) 0 
( 0.00440592 -0.000438382 0.000499662 ) 0 
( 0.00545336 -0.00976317 0.00656657 ) 0 
( 0.000750745 -0.00218898 0.00830041 ) 0 
( 0.0028124 -0.00883748 0.00646193 ) 0 
( 0.00755569 -0.00204845 0.00698642 ) 0 
( 0.00049876 -0.00881423 0.00167449 ) 0 
( 0.0109911 -0.004863 0.00552849 ) 0 
( 0.00558919 -0.00466076 0.000499672 ) 0 
( 0.00066446 -0.0116282 0.00591613 ) 0 
( 0.00922031 -0.00721799 0.00505575 ) 0 
( 0.000430871 -0.00504511 0.00410186 ) 0 
( 0.000295321 -0.000607723 0.00331177 ) 0 
( 0.0103944 -0.00836788 0.00458784 ) 0 
( 0.000340899 -0.00700117 0.000499716 ) 0 
( 0.000453235 -0.00279751 0.00132584 ) 0 
( 0.00466925 -0.00656873 0.0053885 ) 0 
( 0.0115405 -0.00121917 0.00237573 ) 0 
( 0.00331015 -0.00977261 0.0069067 ) 0 
( 0.00934151 -0.00795778 0.00128468 ) 0 
( 0.0101627 -0.00524374 0.00370249 ) 0 
( 0.00870908 -0.00119817 0.000499505 ) 0 
( 0.0105655 -0.00135613 0.00455863 ) 0 
( 0.0032852 -0.0107918 0.00387502 ) 0 
( 0.000831612 -0.0016839 0.00684236 ) 0 
( 0.00359668 -0.00203634 0.00138 ) 0 
( 9.55838e-05 -0.00458866 0.000499729 ) 0 
( 0.00383927 -0.00745155 0.00696048 ) 0 
( 0.00319921 -0.00414285 0.0013408 ) 0 
( 0.01179 -0.00420459 0.00521988 ) 0 
( 0.00834311 -0.0104219 0.0019087 ) 0 
( 0.000842792 -0.0104877 0.00219276 ) 0 
( 1.59882e-05 -0.00735037 0.0049396 ) 0 
( 0.000678739 -0.0018478 0.0037779 ) 0 
( 0.0015388 -0.0026441 0.00543247 ) 0 
( 0.00962696 -0.00850685 0.000499613 ) 0 
( 0.000935577 -0.00751481 0.00317924 ) 0 
( 0.0041522 -0.00718533 0.0011672 ) 0 
( 0.00772824 -0.00296023 0.00661462 ) 0 
( 0.00105127 -0.00162203 0.000499646 ) 0 
( 0.00672795 -0.00390374 0.00304222 ) 0 
( 0.00940517 -0.00354051 0.0022607 ) 0 
( 0.00109093 -0.00932219 0.00455662 ) 0 
( 0.00310752 -0.00240074 0.00664443 ) 0 
( 0.00176212 -0.00158658 0.00457635 ) 0 
( 1.64194e-05 -0.00984055 0.000697925 ) 0 
( 0.0110354 -0.00386248 0.00294129 ) 0 
( 0.00243596 -0.000503169 0.00408226 ) 0 
( 0.00207719 -0.00276031 0.00459801 ) 0 
( 0.00306568 -0.0120692 0.00662226 ) 0 
( 0.0016688 -0.0075143 0.00497911 ) 0 
( 0.00520606 -0.00393642 0.00305879 ) 0 
( 0.00855668 -0.00337222 0.000499736 ) 0 
( 0.0107663 -0.0077891 0.00140557 ) 0 
( 0.00358629 -0.00653678 0.00495252 ) 0 
( 0.0113191 -0.00703716 0.00639208 ) 0 
( 0.00673653 -0.00607427 0.00443033 ) 0 
( 0.00987744 -0.00654299 0.00223667 ) 0 
( 0.0020712 -0.00802689 0.00405142 ) 0 
( 0.0121134 -0.00274833 0.0018455 ) 0 
( 0.00922419 -0.00452253 0.00220909 ) 0 
( 0.000904875 -0.00574682 0.00562041 ) 0 
( 0.00346422 -0.00369262 0.00647111 ) 0 
( 0.00554054 -0.00761288 0.00398855 ) 0 
( 0.00124925 -0.00246036 0.00637154 ) 0 
( 0.00823959 -0.000860133 0.0028623 ) 0 
( 0.00679891 -0.00511332 0.00476959 ) 0 
( 0.00156529 -0.000454542 0.00049982 ) 0 
( 0.00353564 -0.012138 0.0016706 ) 0 
( 0.00896834 -0.00159416 0.00684679 ) 0 
( 0.00305265 -0.00976 0.00398819 ) 0 
( 0.00622742 -0.00483179 0.00554563 ) 0 
( 0.00282477 -0.00240336 0.000805843 ) 0 
( 0.00683871 -0.00356676 0.0066597 ) 0 
( 0.000190767 -0.00312734 0.00223517 ) 0 
( 0.0100271 -0.00258126 0.0023626 ) 0 
( 0.00410865 -0.00633487 0.00331977 ) 0 
( 0.000774858 -0.00588768 0.00166794 ) 0 
( 0.0055153 -0.00586649 0.000499615 ) 0 
( 0.00315049 -0.00677086 0.00582577 ) 0 
( 0.011025 -0.00421723 0.000499661 ) 0 
( 0.000162548 -0.0110676 0.00406723 ) 0 
( 0.00100886 -0.00267887 0.000499797 ) 0 
( 0.00238173 -0.00785128 0.000499649 ) 0 
( 0.0106036 -0.000390764 0.00120922 ) 0 
( 0.000824855 -0.00894414 0.00667865 ) 0 
( 0.00696096 -0.00678664 0.00218276 ) 0 
( 0.00622452 -0.00160306 0.00457735 ) 0 
( 0.00899502 -0.00986477 0.00459657 ) 0 
( 0.00509672 -0.00724354 0.00598996 ) 0 
( 0.00362412 -0.00973069 0.00117734 ) 0 
( 0.00637845 -0.0107292 0.00463577 ) 0 
( 0.00740949 -0.00285661 0.00755648 ) 0 
( 0.00200675 -0.00480724 0.00691017 ) 0 
( 0.00702456 -0.00266421 0.00596902 ) 0 
( 0.00338411 -0.00265895 0.00269375 ) 0 
( 0.000358982 -0.0133454 0.00617266 ) 0 
( 0.00697695 -0.00428403 0.00591689 ) 0 
( 0.00258827 -0.00659245 0.00491805 ) 0 
( 0.011312 -0.0030855 0.00233937 ) 0 
( 0.00646018 -0.0106366 0.00364336 ) 0 
( 0.00585391 -0.00138359 0.00252296 ) 0 
( 0.00816494 -0.0037111 0.00173051 ) 0 
( 0.0117981 -0.00237377 0.00446754 ) 0 
( 0.00218294 -0.0112834 0.00308228 ) 0 
( 0.00269235 -0.00158686 0.00623858 ) 0 
( 0.00354141 -0.00544089 0.00468582 ) 0 
( 0.0026437 -0.0120448 0.000499755 ) 0 
( 0.00639505 -0.0117186 0.00704434 ) 0 
( 0.00397561 -0.011756 0.00416346 ) 0 
( 0.00396155 -0.00604643 0.00136023 ) 0 
( 0.000684559 -0.00668471 0.00235777 ) 0 
( 0.00381063 -0.00880041 0.00641815 ) 0 
( 0.00729687 -0.00384853 0.00750235 ) 0 
( 0.00548155 -0.0108387 0.00507083 ) 0 
( 0.0041188 -0.0126988 0.0022603 ) 0 
( 0.00173385 -0.00850516 0.004862 ) 0 
( 0.00359931 -0.00894377 0.00738471 ) 0 
( 0.00354451 -0.00651856 0.00213675 ) 0 
( 0.000113064 -0.010526 0.00749794 ) 0 
( 0.00245615 -0.00199324 0.00527614 ) 0 
( 0.00521498 -0.0113795 0.00586855 ) 0 
( 0.00295535 -0.000201313 0.00322795 ) 0 
( 0.00911372 -0.000871167 0.0021543 ) 0 
( 0.00156011 -0.0040754 0.00299664 ) 0 
( 0.0015161 -0.00973976 0.00099061 ) 0 
( 0.00854536 -0.00930012 0.0052885 ) 0 
( 0.00491622 -0.00934851 0.00373828 ) 0 
( 7.49586e-05 -0.000595525 0.00814291 ) 0 
( 0.00271689 -0.0110225 0.00049964 ) 0 
( 0.00235184 -0.0017882 0.00379288 ) 0 
( 0.0119964 -0.00377389 0.00321406 ) 0 
( 0.00163698 -0.00935966 0.00297788 ) 0 
( 0.010718 -0.00151322 0.00298815 ) 0 
( 0.00141916 -0.0132411 0.0046269 ) 0 
( 0.0119488 -0.0059545 0.00543546 ) 0 
( 0.00392066 -0.00172136 0.0075821 ) 0 
( 0.00591165 -0.00371424 0.000499714 ) 0 
( 0.00703516 -0.0113456 0.00199186 ) 0 
( 0.00269318 -0.0115938 0.00397644 ) 0 
( 0.0086205 -0.000722931 0.0052334 ) 0 
( 0.00606859 -0.00633591 0.00245397 ) 0 
( 0.0025916 -0.00899309 0.00502373 ) 0 
( 0.00759711 -0.00616074 0.00173185 ) 0 
( 0.00360872 -0.00449468 0.000499486 ) 0 
( 0.00129181 -0.0041653 0.00794176 ) 0 
( 0.000256987 -0.00671589 0.00145435 ) 0 
( 0.00247081 -0.00447118 0.00609097 ) 0 
( 0.000727163 -0.00915791 0.00363969 ) 0 
( 0.00628303 -0.000603754 0.00383257 ) 0 
( 0.0117313 -0.00546455 0.000499808 ) 0 
( 0.0122381 -0.00533554 0.00651369 ) 0 
( 0.00585489 -0.0119442 0.000499684 ) 0 
( 0.00170289 -0.00435282 0.00137192 ) 0 
( 0.00984298 -0.00756679 0.00435538 ) 0 
( 0.000461079 -0.00821359 0.00610151 ) 0 
( 0.00244128 -0.00938387 0.00721246 ) 0 
( 0.00608144 -0.00715996 0.00188778 ) 0 
( 0.000990479 -0.0114402 0.00179338 ) 0 
( 0.0133023 -0.00112852 0.00123185 ) 0 
( 0.00589234 -0.00700615 0.00760488 ) 0 
( 0.0114359 -0.00215651 0.00271141 ) 0 
( 0.00412246 -0.00983262 0.00206584 ) 0 
( 0.00483115 -0.00160769 0.000499387 ) 0 
( 0.00143119 -0.000827123 0.00708356 ) 0 
( 0.00401216 -0.0049113 0.00294496 ) 0 
( 0.00665323 -0.00535359 0.00630951 ) 0 
( 0.0111997 -0.00694791 0.00446854 ) 0 
( 0.000290834 -6.08839e-05 0.00118002 ) 0 
( 0.0120925 -0.00251274 0.00049978 ) 0 
( 0.00592226 -0.00329133 0.00279249 ) 0 
( 0.00100732 -0.0106956 0.00603057 ) 0 
( 0.00527672 -0.00820353 0.00620329 ) 0 
( 0.00995025 -0.00702432 0.00135167 ) 0 
( 0.00621812 -0.00817231 0.00653939 ) 0 
( 0.0107758 -0.00788074 0.00628411 ) 0 
( 0.00195834 -0.0103055 0.00689182 ) 0 
( 0.00265525 -0.00198043 0.00171142 ) 0 
( 0.00185556 -0.00330394 0.00237745 ) 0 
( 0.00944955 -0.00191228 0.00187232 ) 0 
( 0.000388512 -0.0133317 0.00281805 ) 0 
( 0.00585823 -0.00696172 0.00322765 ) 0 
( 0.0050034 -0.00174316 0.00340528 ) 0 
( 0.00488371 -0.000758516 0.00533345 ) 0 
( 0.00714728 -0.00819414 0.00693577 ) 0 
( 0.0033156 -0.00952465 0.00593817 ) 0 
( 0.00777559 -0.00069214 0.00609376 ) 0 
( 0.00265627 -0.00326286 0.0068735 ) 0 
( 0.00342434 -0.00447584 0.00225635 ) 0 
( 0.00724416 -0.00302251 0.00402543 ) 0 
( 0.00491079 -0.0017541 0.00802318 ) 0 
( 0.00560868 -0.000582798 0.00620137 ) 0 
( 0.00691631 -0.000507901 0.00768727 ) 0 
( 0.00934013 -0.00251187 0.00666978 ) 0 
( 0.00536399 -0.00407007 0.00711323 ) 0 
( 0.00673834 -0.00578578 0.000499607 ) 0 
( 0.0034609 -0.0118196 0.00330841 ) 0 
( 0.00322786 -0.0015413 0.000499433 ) 0 
( 0.00162394 -0.000284892 0.0035279 ) 0 
( 0.0112255 -0.00206175 0.00370994 ) 0 
( 0.00814688 -0.0105762 0.000499672 ) 0 
( 0.00278468 -0.00342649 0.00490738 ) 0 
( 0.00832764 -0.00199486 0.00345132 ) 0 
( 0.00630574 -0.00360477 0.00562091 ) 0 
( 0.00950658 -0.00301631 0.000499749 ) 0 
( 0.0049186 -0.000951586 0.00682621 ) 0 
( 0.0108694 -0.00132999 0.00719628 ) 0 
( 0.00337512 -0.00161864 0.00230354 ) 0 
( 0.00277881 -0.00487709 0.00290625 ) 0 
( 0.0035598 -0.00750996 0.00518071 ) 0 
( 0.00616965 -0.00686769 0.00420918 ) 0 
( 0.00661579 -0.0106676 0.0012693 ) 0 
( 0.00489651 -0.00682682 0.0028368 ) 0 
( 0.0102381 -0.00460086 0.00291443 ) 0 
( 0.00659846 -0.00100518 0.00604733 ) 0 
( 0.0118545 -0.00365592 0.000499533 ) 0 
( 0.00476513 -0.00472032 0.0054266 ) 0 
( 0.0101648 -0.00865499 0.00659422 ) 0 
( 0.000857954 -0.0103424 0.000499722 ) 0 
( 0.00160171 -0.00623005 0.00250882 ) 0 
( 0.00766695 -0.00356967 0.00325793 ) 0 
( 0.00690638 -0.00878762 0.0061557 ) 0 
( 0.00468526 -0.000290112 0.00335129 ) 0 
( 0.00218251 -0.00700779 0.00573691 ) 0 
( 0.00024391 -0.00918474 0.00543057 ) 0 
( 0.00268323 -0.00545997 0.00725086 ) 0 
( 0.0105382 -0.0057873 0.00227354 ) 0 
( 0.00354139 -0.00926961 0.00487881 ) 0 
( 0.0122879 -0.00521827 0.00137991 ) 0 
( 0.00457142 -0.00221534 0.0012491 ) 0 
( 0.0117894 -0.00156819 0.00561957 ) 0 
( 0.00733956 -0.00447689 0.00360208 ) 0 
( 0.00147166 -0.00826518 0.000499684 ) 0 
( 0.00429381 -0.00904821 0.00146998 ) 0 
( 0.00570184 -0.00679386 0.00664665 ) 0 
( 0.00699198 -0.000984789 0.00118067 ) 0 
( 0.00809311 -0.00116897 0.00707717 ) 0 
( 0.0110074 -0.00578804 0.0051387 ) 0 
( 0.0126288 -0.000347428 0.00619364 ) 0 
( 0.00733106 -0.00169569 0.00607843 ) 0 
( 0.0076199 -0.00622059 0.00355209 ) 0 
( 0.00745279 -0.00703247 0.00416058 ) 0 
( 0.00639095 -0.00935662 0.000499548 ) 0 
( 0.00387905 -0.00913803 0.00394689 ) 0 
( 0.00864699 -0.00181677 0.00128267 ) 0 
( 0.00860748 -0.000519857 0.0012265 ) 0 
( 0.00291698 -0.00584282 0.00550477 ) 0 
( 0.0129474 -0.00226505 0.00134233 ) 0 
( 0.00148022 -0.011703 0.00688425 ) 0 
( 0.00286115 -0.0066563 0.00319918 ) 0 
( 0.00772068 -0.00606845 0.000499786 ) 0 
( 0.00183009 -0.00591958 0.00149035 ) 0 
( 0.00402269 -0.0127297 0.000565909 ) 0 
( 0.00143582 -0.00192281 0.00137204 ) 0 
( 0.000191855 -0.00459654 0.00718432 ) 0 
( 0.00124846 -0.00671784 0.00132519 ) 0 
( 0.00558262 -0.00033142 0.00475731 ) 0 
( 0.00861691 -0.0056325 0.00197733 ) 0 
( 0.00123693 -0.0112739 0.00274809 ) 0 
( 0.00698292 -0.00600496 0.00280601 ) 0 
( 0.00553071 -0.0121505 0.00422785 ) 0 
( 0.00398757 -0.0036836 0.00419049 ) 0 
( 0.0114598 -0.00522414 0.00194584 ) 0 
( 0.00212377 -0.00911616 0.000499598 ) 0 
( 0.0036069 -0.00726031 0.00291533 ) 0 
( 0.000446515 -0.0107521 0.00131353 ) 0 
( 0.00363122 -0.0128466 0.0068972 ) 0 
( 0.00257951 -0.00629219 0.00230188 ) 0 
( 0.000156037 -0.00727774 0.00592684 ) 0 
( 0.0020186 -0.0131472 0.00364836 ) 0 
( 0.00433325 -0.00481382 0.00452921 ) 0 
( 0.00525331 -0.00273924 0.00175889 ) 0 
( 0.00410888 -0.00987458 0.0054369 ) 0 
( 0.0110591 -0.0053561 0.00327392 ) 0 
( 0.00608869 -0.00523228 0.00407591 ) 0 
( 0.00503818 -0.012363 0.00590554 ) 0 
( 0.00115871 -0.00237886 0.00449071 ) 0 
( 0.00325864 -0.00195133 0.00339412 ) 0 
( 0.00711053 -0.00115842 0.00689229 ) 0 
( 0.0123859 -0.00157858 0.00432117 ) 0 
( 0.00182755 -0.00356775 0.0051595 ) 0 
( 0.00128137 -0.007104 0.006582 ) 0 
( 0.00365823 -0.00293168 0.00476155 ) 0 
( 0.0102957 -0.00849867 0.00557415 ) 0 
( 0.0050066 -0.00633245 0.00197389 ) 0 
( 0.0132654 -0.00150556 0.00514141 ) 0 
( 0.00218416 -0.00112688 0.00767224 ) 0 
( 3.69797e-07 -0.00153227 0.00305351 ) 0 
( 0.00490474 -0.00625255 0.00637933 ) 0 
( 0.00552114 -0.00509057 0.00488687 ) 0 
( 0.00156558 -0.012447 0.00523376 ) 0 
( 0.000555856 -0.00261745 0.00525169 ) 0 
( 0.00790753 -0.00823145 0.00627408 ) 0 
( 0.00829426 -0.00469094 0.00188174 ) 0 
( 0.0110221 -0.00310028 0.00049981 ) 0 
( 0.00675706 -0.00753076 0.0046835 ) 0 
( 0.00938353 -0.00643066 0.00565022 ) 0 
( 0.00167893 -0.00508014 0.00286652 ) 0 
( 0.00480985 -0.0114705 0.00467651 ) 0 
( 0.0107458 -0.000749139 0.00639198 ) 0 
( 0.0012501 -0.00976042 0.00628802 ) 0 
( 0.00197309 -0.00387526 0.00727021 ) 0 
( 0.00137952 -0.00735479 0.00759037 ) 0 
( 0.0117556 -0.00632672 0.00242476 ) 0 
( 0.00829977 -0.00726775 0.00593525 ) 0 
( 0.0107478 -0.00620946 0.00680826 ) 0 
( 0.00566943 -0.0120207 0.00520955 ) 0 
( 0.000246143 -0.00277672 0.00654042 ) 0 
( 0.00301632 -0.00270827 0.00762352 ) 0 
( 0.00477107 -0.00648917 0.000740684 ) 0 
( 0.00663472 -0.0089076 0.0039126 ) 0 
( 0.0117174 -0.000565669 0.000719985 ) 0 
( 0.00707046 -0.0112935 0.00764667 ) 0 
( 0.00927282 -0.00441523 0.00049969 ) 0 
( 0.00825206 -0.00726565 0.00218907 ) 0 
( 0.00762082 -0.00891578 0.00251178 ) 0 
( 0.00957373 -0.00930436 0.00249789 ) 0 
( 0.00358987 -0.00189827 0.00592712 ) 0 
( 0.00253061 -0.000816495 0.00049963 ) 0 
( 0.00871304 -0.00171066 0.00252112 ) 0 
( 0.0010593 -0.0113812 0.00375342 ) 0 
( 0.0093454 -0.00331928 0.00725961 ) 0 
( 0.00858331 -0.00550418 0.000499561 ) 0 
( 0.0123596 -0.00504701 0.00555551 ) 0 
( 0.00673726 -0.00232215 0.0013056 ) 0 
( 0.00177367 -0.00384491 0.000499661 ) 0 
( 0.00780053 -0.010834 0.00591485 ) 0 
( 0.00957354 -0.00930457 0.00707189 ) 0 
( 0.000807167 -0.00946388 0.00241867 ) 0 
( 0.000598706 -0.0133367 0.00138138 ) 0 
( 0.00790398 -0.00523735 0.0032219 ) 0 
( 0.0027908 -0.00366557 0.00780612 ) 0 
( 0.00924375 -0.00859388 0.00312586 ) 0 
( 0.000979396 -0.00622203 0.000499727 ) 0 
( 0.00313208 -0.000859622 0.00784434 ) 0 
( 0.00169579 -0.0025314 0.00366125 ) 0 
( 0.00294789 -0.0017118 0.00735155 ) 0 
( 0.00754732 -0.0100036 0.00413395 ) 0 
( 0.0038517 -0.00605691 0.00578862 ) 0 
( 0.0100879 -0.00122235 0.00222825 ) 0 
( 0.00839969 -0.00206366 0.00752205 ) 0 
( 0.00858245 -0.00918194 0.00712112 ) 0 
( 0.0107635 -0.00502296 0.00454326 ) 0 
( 0.00297664 -0.00823882 0.00233975 ) 0 
( 0.00300139 -0.0115867 0.00232815 ) 0 
( 0.00162801 -0.0122944 0.00049966 ) 0 
( 0.0121907 -0.00544151 0.00259292 ) 0 
( 0.00459717 -0.00189717 0.00686716 ) 0 
( 0.00173978 -0.00975265 0.00196501 ) 0 
( 0.00138667 -0.0132738 0.00284336 ) 0 
( 0.0116811 -0.00646335 0.000499765 ) 0 
( 0.000600832 -0.000164462 0.00415438 ) 0 
( 0.0109207 -0.00767866 0.00519808 ) 0 
( 0.00204444 -0.00919904 0.0042126 ) 0 
( 0.00618765 -0.0008085 0.00705076 ) 0 
( 0.00650307 -0.0116591 0.00120547 ) 0 
( 0.00386837 -0.00283267 0.00615987 ) 0 
( 0.00616783 -0.0118398 0.0032659 ) 0 
( 0.010932 -0.00590958 0.00411297 ) 0 
( 0.00204123 -0.00042953 0.00243077 ) 0 
( 0.00759341 -0.0035073 0.00578869 ) 0 
( 0.0122256 -0.00273538 0.00291481 ) 0 
( 0.0108567 -0.00733067 0.00305432 ) 0 
( 0.00573191 -0.00317729 0.00737265 ) 0 
( 0.00547055 -0.00219324 0.00423486 ) 0 
( 0.0100878 -0.00545806 0.00125907 ) 0 
( 0.00668251 -0.00631249 0.00134762 ) 0 
( 0.00199158 -0.00286359 0.000499758 ) 0 
( 0.000898957 -0.00168106 0.00518481 ) 0 
( 0.00704601 -0.00223453 0.00472472 ) 0 
( 0.00743455 -0.00991083 0.00210982 ) 0 
( 0.00292568 -0.00575159 0.000499726 ) 0 
( 0.0053953 -0.00365184 0.00137616 ) 0 
( 0.00144987 -0.00720308 0.00405441 ) 0 
( 0.00224522 -0.00627057 0.00686237 ) 0 
( 0.00245659 -0.00710436 0.0040621 ) 0 
( 0.00996931 -0.0023058 0.00111277 ) 0 
( 0.00110397 -0.000627247 0.00272245 ) 0 
( 0.00959099 -0.005878 0.000499679 ) 0 
( 0.000995485 -0.0114367 0.000499802 ) 0 
( 0.00651621 -0.00433614 0.00420769 ) 0 
( 0.000362864 -0.00388269 0.00650544 ) 0 
( 0.00794922 -0.00269988 0.00285128 ) 0 
( 0.0087425 -0.00737424 0.00316223 ) 0 
( 0.00409439 -0.0054615 0.00380612 ) 0 
( 0.00797762 -0.0077665 0.00372976 ) 0 
( 0.0057295 -0.00309507 0.00382888 ) 0 
( 0.010147 -0.00676033 0.00486633 ) 0 
( 0.00278821 -0.00312566 0.00204036 ) 0 