/*--------------------------------*- C++ -*----------------------------------*\
| =========                 |                                                 |
| \\      /  F ield         | OpenFOAM: The Open Source CFD Toolbox           |
|  \\    /   O peration     | Version:  2506                                  |
|   \\  /    A nd           | Website:  www.openfoam.com                      |
|    \\/     M anipulation  |                                                 |
\*---------------------------------------------------------------------------*/
FoamFile
{
    version     2.0;
    format      ascii;
    arch        "LSB;label=32;scalar=64";
    class       surfaceScalarField;
    location    "0.002";
    object      phi;
}
// * * * * * * * * * * * * * * * * * * * * * * * * * * * * * * * * * * * * * //

dimensions      [0 3 -1 0 0 0 0];

oriented        oriented;

internalField   nonuniform List<scalar> 
1200
(
0.00280702
1.7551e-07
3.36191e-07
0.0028071
2.52936e-08
-5.53566e-08
0.00280723
-3.32677e-08
-2.16423e-07
0.00280731
-2.56402e-08
-2.21445e-07
0.0028074
-1.15268e-08
-2.36055e-07
0.00280749
-1.4689e-09
-2.08817e-07
0.00280753
3.54896e-09
-1.30633e-07
0.00280754
4.02536e-09
-3.35517e-08
0.0028075
2.8717e-09
5.1276e-08
0.00280744
2.83147e-09
8.75253e-08
0.0028074
3.40735e-09
6.81709e-08
0.00280739
4.61893e-09
1.80603e-08
0.0028074
6.52992e-09
-4.49858e-08
0.00280744
9.27741e-09
-1.00346e-07
0.00280749
1.31664e-08
-1.26605e-07
0.00280753
1.58376e-08
-1.07055e-07
0.00280754
1.40149e-08
-4.23077e-08
0.00280751
9.00774e-09
2.4829e-08
0.00280748
6.61633e-09
3.80288e-08
0.00280747
8.1118e-09
8.40291e-10
0.00280749
7.39158e-09
-3.27632e-08
0.00280752
4.80888e-10
-1.75313e-08
0.00280751
-1.00835e-08
4.86419e-08
0.00280749
-1.93515e-08
1.14402e-07
0.00280745
-2.34181e-08
1.6649e-07
0.00280738
-2.0532e-08
2.23379e-07
0.00280729
-1.00355e-08
2.57695e-07
0.00280721
7.78734e-09
2.57036e-07
0.00280713
3.19922e-08
2.56776e-07
0.00280707
6.34026e-08
2.79654e-07
0.00280703
1.01657e-07
3.17295e-07
1.42438e-07
3.69785e-07
0.00281333
2.43728e-07
2.64939e-07
0.00281349
-5.67386e-08
-1.28128e-07
0.00281368
-1.38445e-07
-2.67699e-07
0.00281377
-5.41136e-08
-2.27895e-07
0.00281386
-1.94458e-08
-2.34031e-07
0.00281395
-1.8019e-11
-2.04635e-07
0.00281399
1.01263e-08
-1.27618e-07
0.00281399
1.17046e-08
-3.51912e-08
0.00281395
7.59673e-09
4.81912e-08
0.0028139
3.98579e-09
8.86667e-08
0.00281386
4.13456e-09
7.07115e-08
0.00281385
7.61177e-09
1.99797e-08
0.00281386
1.20841e-08
-4.31419e-08
0.0028139
1.58038e-08
-9.58584e-08
0.00281395
2.13585e-08
-1.1544e-07
0.00281399
2.73446e-08
-9.16395e-08
0.00281399
2.47936e-08
-3.0227e-08
0.00281396
1.4667e-08
2.8596e-08
0.00281393
8.50654e-09
4.14727e-08
0.00281393
8.55959e-09
1.58976e-08
0.00281394
6.48741e-09
-1.20084e-08
0.00281396
-3.08434e-09
-6.83536e-09
0.00281396
-1.76066e-08
4.18567e-08
0.00281394
-3.08093e-08
9.2788e-08
0.0028139
-3.79714e-08
1.38825e-07
0.00281384
-3.50836e-08
1.96994e-07
0.00281377
-1.85811e-08
2.36256e-07
0.00281369
9.59092e-09
2.42178e-07
0.00281362
4.65459e-08
2.43715e-07
0.00281356
9.43769e-08
2.59778e-07
0.00281351
1.59864e-07
2.92906e-07
2.75958e-07
3.67705e-07
0.00281391
1.72701e-07
1.34078e-07
0.00281385
-1.50442e-08
-9.65955e-08
0.00281377
-8.88035e-08
-2.02082e-07
0.00281381
-4.76669e-08
-2.11165e-07
0.00281389
-1.52953e-08
-2.23101e-07
0.00281396
5.72499e-09
-1.91193e-07
0.002814
1.71709e-08
-1.10925e-07
0.00281399
1.97131e-08
-2.37459e-08
0.00281396
1.51599e-08
4.59745e-08
0.00281391
8.87641e-09
7.93583e-08
0.00281387
6.17433e-09
6.46926e-08
0.00281386
7.83802e-09
2.28654e-08
0.00281387
1.09902e-08
-3.20454e-08
0.00281391
1.56317e-08
-8.60094e-08
0.00281396
2.47115e-08
-1.03517e-07
0.00281399
3.30315e-08
-6.5965e-08
0.00281398
3.00743e-08
-7.09072e-09
0.00281396
1.74573e-08
3.18788e-08
0.00281394
7.75944e-09
4.03163e-08
0.00281393
4.57182e-09
2.77811e-08
0.00281394
-1.46766e-10
8.16171e-09
0.00281395
-1.18999e-08
6.73713e-09
0.00281395
-2.72238e-08
3.86149e-08
0.00281394
-3.83723e-08
7.1111e-08
0.00281391
-4.24427e-08
1.00892e-07
0.00281387
-3.84039e-08
1.51357e-07
0.0028138
-2.26667e-08
2.00048e-07
0.00281373
6.48864e-09
2.18148e-07
0.00281367
4.63079e-08
2.20836e-07
0.00281363
9.34817e-08
2.31037e-07
0.00281362
1.48287e-07
2.44834e-07
2.1353e-07
2.46279e-07
0.00281388
1.08401e-07
4.79131e-08
0.00281386
1.51278e-08
-8.75383e-08
0.00281382
-3.30245e-08
-1.63559e-07
0.00281385
-2.26266e-08
-1.90868e-07
0.00281391
-1.82242e-09
-2.02769e-07
0.00281398
1.38869e-08
-1.69032e-07
0.002814
2.41678e-08
-8.8359e-08
0.00281399
2.86376e-08
-7.29395e-09
0.00281395
2.44543e-08
5.05003e-08
0.00281391
1.59204e-08
7.36326e-08
0.00281387
8.87168e-09
5.84436e-08
0.00281386
3.54375e-09
2.63566e-08
0.00281388
1.75344e-09
-2.31739e-08
0.00281392
8.24703e-09
-7.93554e-08
0.00281397
2.21322e-08
-8.82936e-08
0.00281399
3.29741e-08
-3.5305e-08
0.00281397
3.13234e-08
1.87666e-08
0.00281395
1.937e-08
3.51116e-08
0.00281394
6.74168e-09
3.58543e-08
0.00281393
-2.45906e-09
3.59925e-08
0.00281393
-1.2468e-08
2.54278e-08
0.00281394
-2.52209e-08
1.50545e-08
0.00281394
-3.5977e-08
2.6286e-08
0.00281393
-4.01748e-08
4.50347e-08
0.00281392
-3.99913e-08
6.90577e-08
0.00281388
-3.79036e-08
1.16834e-07
0.00281383
-2.85548e-08
1.68882e-07
0.00281377
-2.13896e-09
1.93153e-07
0.00281372
3.87089e-08
1.9706e-07
0.00281368
7.94571e-08
2.01125e-07
0.00281368
1.14929e-07
1.9482e-07
1.40807e-07
1.51809e-07
0.00281379
7.68272e-08
3.24927e-09
0.00281382
2.87847e-08
-9.37236e-08
0.00281383
-2.19019e-09
-1.4989e-07
0.00281387
-3.52488e-09
-1.69565e-07
0.00281393
7.24721e-09
-1.74366e-07
0.00281399
1.74311e-08
-1.42945e-07
0.00281401
2.53308e-08
-6.23088e-08
0.00281399
3.07729e-08
2.1249e-08
0.00281394
3.0047e-08
6.76975e-08
0.0028139
2.43246e-08
7.43808e-08
0.00281387
1.4881e-08
5.32351e-08
0.00281386
2.03454e-09
1.70674e-08
0.00281388
-5.71401e-09
-3.75858e-08
0.00281394
-1.24928e-09
-8.55593e-08
0.00281398
1.26981e-08
-7.10729e-08
0.00281399
2.55673e-08
-1.52476e-09
0.00281396
2.75924e-08
4.73172e-08
0.00281394
1.91508e-08
4.51031e-08
0.00281393
4.31009e-09
3.61004e-08
0.00281392
-1.24979e-08
4.04499e-08
0.00281392
-2.656e-08
2.82396e-08
0.00281393
-3.58534e-08
3.71816e-09
0.00281394
-3.90001e-08
3.03771e-09
0.00281394
-3.77793e-08
2.47705e-08
0.00281392
-3.90297e-08
5.73519e-08
0.00281389
-4.45019e-08
1.03276e-07
0.00281386
-4.39469e-08
1.4429e-07
0.00281381
-1.70943e-08
1.66659e-07
0.00281376
3.35137e-08
1.75129e-07
0.00281371
7.46452e-08
1.69239e-07
0.0028137
9.51424e-08
1.4411e-07
1.00379e-07
9.13967e-08
0.00281374
5.7166e-08
-9.48409e-09
0.00281379
2.83563e-08
-9.37792e-08
0.00281383
9.10901e-09
-1.42749e-07
0.00281388
5.0528e-09
-1.55378e-07
0.00281394
8.67792e-09
-1.50838e-07
0.00281399
1.36096e-08
-1.18716e-07
0.00281401
1.85657e-08
-3.7965e-08
0.00281398
2.39803e-08
5.017e-08
0.00281394
2.66153e-08
9.36812e-08
0.00281389
2.44136e-08
9.51957e-08
0.00281386
1.69241e-08
6.44441e-08
0.00281385
5.61829e-09
2.89864e-09
0.00281389
-2.58985e-09
-6.95059e-08
0.00281395
-3.37875e-09
-1.08952e-07
0.002814
4.1859e-09
-6.88007e-08
0.00281399
1.45905e-08
2.32322e-08
0.00281395
1.74864e-08
7.64495e-08
0.00281392
1.16558e-08
6.76647e-08
0.00281391
-2.11949e-09
4.45415e-08
0.0028139
-2.07832e-08
3.11762e-08
0.00281391
-3.42449e-08
6.87058e-09
0.00281393
-3.7954e-08
-2.38815e-08
0.00281394
-3.40361e-08
-2.13879e-08
0.00281393
-2.98764e-08
1.30513e-08
0.00281391
-3.59336e-08
5.15616e-08
0.00281389
-5.30641e-08
8.66213e-08
0.00281388
-7.03852e-08
1.11018e-07
0.00281386
-3.95717e-08
1.32897e-07
0.0028138
4.29132e-08
1.5648e-07
0.00281373
9.12817e-08
1.53251e-07
0.0028137
9.07286e-08
1.20883e-07
7.89898e-08
6.95345e-08
0.0028137
3.47046e-08
-5.45656e-09
0.00281376
1.79387e-08
-9.22775e-08
0.00281382
6.85776e-09
-1.37727e-07
0.00281388
3.15968e-09
-1.44025e-07
0.00281394
4.38177e-09
-1.36854e-07
0.00281399
6.91321e-09
-1.0595e-07
0.00281401
8.82032e-09
-2.61719e-08
0.00281398
1.21715e-08
6.68119e-08
0.00281393
1.58383e-08
1.15202e-07
0.00281387
1.59712e-08
1.18217e-07
0.00281384
1.18158e-08
8.13894e-08
0.00281384
5.85599e-09
2.82197e-09
0.00281388
2.44563e-09
-8.41616e-08
0.00281395
2.9785e-09
-1.32817e-07
0.002814
3.74267e-09
-8.16399e-08
0.00281398
3.25906e-09
3.68389e-08
0.00281394
3.32998e-09
9.68764e-08
0.0028139
1.32334e-09
8.40633e-08
0.00281389
-6.68081e-09
4.67738e-08
0.00281388
-1.75742e-08
4.07735e-09
0.0028139
-2.37612e-08
-3.75193e-08
0.00281392
-2.25088e-08
-6.51429e-08
0.00281394
-1.80294e-08
-4.33134e-08
0.00281392
-1.71354e-08
1.36581e-08
0.00281389
-2.59399e-08
5.05324e-08
0.00281387
-5.15351e-08
6.5135e-08
0.00281391
-1.19866e-07
6.77084e-08
0.00281394
-9.57563e-08
1.00744e-07
0.00281384
7.42905e-08
1.66855e-07
0.00281372
1.37512e-07
1.73538e-07
0.00281368
8.41286e-08
1.30589e-07
5.34914e-08
7.71657e-08
0.00280723
5.96319e-09
0.00280729
-8.90223e-08
0.00280736
-1.38179e-07
0.00280742
-1.44543e-07
0.00280748
-1.33266e-07
0.00280754
-9.79672e-08
0.00280756
-2.28824e-08
0.00280753
6.8891e-08
0.00280747
1.26956e-07
0.00280741
1.35637e-07
0.00280737
9.43907e-08
0.00280738
8.00794e-09
0.00280742
-8.04581e-08
0.0028075
-1.22894e-07
0.00280754
-7.64003e-08
0.00280753
2.75939e-08
0.00280748
8.7671e-08
0.00280744
8.05541e-08
0.00280742
3.50396e-08
0.00280742
-2.48137e-08
0.00280744
-7.11937e-08
0.00280747
-8.4807e-08
0.00280748
-4.63728e-08
0.00280746
1.69687e-08
0.00280741
4.78774e-08
0.00280734
4.96796e-08
0.00280725
1.45771e-08
0.00280716
5.3883e-08
0.00280714
1.98287e-07
0.00280717
2.19717e-07
0.00280719
1.50462e-07
9.54697e-08
0.00280695
1.21383e-07
0.00280708
-4.32576e-08
0.00280719
-8.33381e-08
0.00280727
-3.15825e-08
0.00280742
-9.19048e-09
0.00280756
2.975e-09
0.00280762
6.74522e-09
0.00280762
2.46414e-09
0.00280753
-2.67951e-10
0.00280742
3.80578e-09
0.00280735
5.77849e-09
0.00280732
6.45111e-09
0.00280734
8.40459e-09
0.00280741
1.38808e-08
0.00280751
2.44648e-08
0.00280759
3.13817e-08
0.0028076
2.61634e-08
0.00280752
1.27448e-08
0.00280744
9.97954e-09
0.00280744
2.30924e-08
0.00280751
2.80986e-08
0.00280758
1.1161e-08
0.00280758
-1.69138e-08
0.00280754
-4.10603e-08
0.0028075
-5.12427e-08
0.00280741
-4.71917e-08
0.00280728
-3.18267e-08
0.0028072
-7.43381e-09
0.00280714
1.86002e-08
0.00280708
4.33834e-08
0.00280702
7.7788e-08
1.43905e-07
0.00281381
1.13885e-07
0.00281377
-2.47326e-08
0.0028137
-7.25262e-08
0.00281375
-3.72396e-08
0.00281388
-8.44914e-09
0.00281401
1.34588e-08
0.00281408
2.68149e-08
0.00281407
2.31229e-08
0.00281399
5.38433e-09
0.00281388
-5.2855e-09
0.00281381
-1.85006e-09
0.00281378
1.05138e-08
0.00281381
2.31555e-08
0.00281388
2.56272e-08
0.00281397
3.33023e-08
0.00281404
5.30077e-08
0.00281404
4.78873e-08
0.00281397
1.79534e-08
0.0028139
7.37534e-09
0.0028139
2.04424e-08
0.00281394
2.6638e-08
0.00281401
1.04617e-08
0.00281401
-2.08811e-08
0.00281398
-5.25121e-08
0.00281396
-7.58923e-08
0.00281388
-8.06507e-08
0.00281376
-5.47267e-08
0.00281368
-1.44096e-08
0.00281362
2.37301e-08
0.00281357
6.57813e-08
0.00281354
1.12065e-07
1.54911e-07
0.0028138
8.65346e-08
0.0028138
-5.96846e-09
0.00281375
-5.02441e-08
0.00281379
-2.73423e-08
0.00281391
5.04388e-09
0.00281404
2.78752e-08
0.00281408
3.97221e-08
0.00281406
3.61694e-08
0.00281399
1.96994e-08
0.00281389
3.16665e-09
0.00281383
-5.06022e-11
0.0028138
1.13151e-08
0.00281381
1.98059e-08
0.00281389
2.22565e-08
0.002814
3.99361e-08
0.00281405
6.36709e-08
0.00281402
5.5899e-08
0.00281397
2.07024e-08
0.00281392
3.34034e-09
0.00281391
1.27999e-08
0.00281394
1.70888e-08
0.00281398
-3.63521e-09
0.00281398
-3.95683e-08
0.00281396
-6.44307e-08
0.00281396
-7.42502e-08
0.00281391
-7.28956e-08
0.00281381
-5.38175e-08
0.00281373
-1.85068e-08
0.00281367
2.2535e-08
0.00281362
6.35618e-08
0.00281359
9.82461e-08
1.19049e-07
0.00281373
6.37181e-08
0.00281377
8.92479e-09
0.00281378
-1.93683e-08
0.00281383
-1.35777e-09
0.00281394
2.65242e-08
0.00281405
3.9949e-08
0.00281408
5.02159e-08
0.00281404
5.71476e-08
0.00281397
4.16201e-08
0.00281389
1.6691e-08
0.00281384
3.69804e-09
0.00281381
-5.73376e-09
0.00281382
-1.2638e-08
0.00281391
2.06489e-09
0.00281402
3.93264e-08
0.00281404
6.67024e-08
0.00281398
5.98378e-08
0.00281395
2.93694e-08
0.00281393
7.02035e-09
0.00281391
1.98725e-09
0.00281391
-9.69677e-09
0.00281395
-3.65645e-08
0.00281396
-5.91884e-08
0.00281395
-6.04058e-08
0.00281396
-5.17167e-08
0.00281393
-5.15242e-08
0.00281385
-5.31816e-08
0.00281377
-2.8642e-08
0.00281371
1.67452e-08
0.00281366
4.75447e-08
0.00281362
6.42456e-08
8.04308e-08
0.00281368
6.4011e-08
0.00281375
2.86638e-08
0.0028138
4.92288e-09
0.00281386
1.06514e-08
0.00281395
3.07473e-08
0.00281406
4.16303e-08
0.00281408
4.96555e-08
0.00281403
5.96594e-08
0.00281395
5.59988e-08
0.00281387
4.50992e-08
0.00281383
2.60301e-08
0.0028138
-1.21255e-08
0.00281383
-3.75424e-08
0.00281395
-2.45645e-08
0.00281405
1.49875e-08
0.00281403
5.03117e-08
0.00281395
5.67051e-08
0.00281393
4.16708e-08
0.00281393
1.27062e-08
0.0028139
-2.17874e-08
0.00281389
-4.79248e-08
0.00281392
-6.34393e-08
0.00281396
-6.34063e-08
0.00281396
-4.94889e-08
0.00281396
-4.48358e-08
0.00281393
-6.11783e-08
0.00281387
-7.7222e-08
0.00281381
-5.08391e-08
0.00281374
1.48895e-08
0.00281368
5.8674e-08
0.00281363
7.19217e-08
7.84784e-08
0.00281365
6.11137e-08
0.00281373
2.98272e-08
0.00281381
1.4116e-08
0.00281388
1.6374e-08
0.00281397
2.26352e-08
0.00281407
2.63654e-08
0.00281409
3.0361e-08
0.00281402
4.06303e-08
0.00281393
4.81309e-08
0.00281385
4.74117e-08
0.00281379
3.38404e-08
0.00281378
5.52171e-09
0.00281384
-1.72662e-08
0.00281399
-2.72455e-08
0.00281408
-8.60033e-09
0.00281404
2.82572e-08
0.00281394
3.79218e-08
0.0028139
2.80065e-08
0.00281389
5.46867e-11
0.00281388
-4.78726e-08
0.00281387
-7.85603e-08
0.00281392
-7.91343e-08
0.00281397
-5.59091e-08
0.00281397
-2.92772e-08
0.00281395
-3.69985e-08
0.00281391
-7.4555e-08
0.0028139
-1.13721e-07
0.00281388
-7.17782e-08
0.00281379
5.32884e-08
0.00281369
1.1158e-07
0.00281364
1.00388e-07
8.65377e-08
0.00281361
4.61483e-08
0.00281371
2.11192e-08
0.00281381
6.27606e-09
0.00281388
2.51675e-09
0.00281396
7.84838e-09
0.00281407
1.47566e-08
0.0028141
1.20561e-08
0.00281402
1.43742e-08
0.00281393
2.78044e-08
0.00281383
3.35888e-08
0.00281375
2.49748e-08
0.00281375
1.11118e-08
0.00281383
6.08106e-09
0.002814
1.26986e-08
0.00281411
8.77874e-09
0.00281404
-5.99757e-09
0.00281392
-5.71342e-09
0.00281386
-2.00581e-09
0.00281384
-1.82907e-08
0.00281384
-4.63853e-08
0.00281386
-5.74115e-08
0.00281394
-4.22482e-08
0.00281399
-2.11957e-08
0.00281395
-1.38414e-08
0.0028139
-2.85201e-08
0.00281387
-6.68682e-08
0.00281393
-1.729e-07
0.002814
-1.42582e-07
0.00281384
1.05899e-07
0.00281367
1.84005e-07
0.00281362
1.04268e-07
7.19266e-08
0.00280713
0.00280724
0.00280735
0.00280743
0.00280751
0.00280761
0.00280764
0.00280758
0.00280748
0.00280737
0.00280729
0.00280728
0.00280738
0.00280754
0.00280764
0.00280758
0.00280747
0.00280739
0.00280735
0.00280737
0.00280742
0.00280751
0.00280754
0.00280748
0.00280741
0.0028073
0.002807
0.00280669
0.0028068
0.00280706
0.00280713
)
;

boundaryField
{
    wall
    {
        type            calculated;
        value           uniform 0;
    }
    outlet
    {
        type            cyclic;
        value           nonuniform List<scalar> 
16
(
0.00280691
0.00281336
0.00281375
0.00281377
0.00281373
0.00281371
0.00281368
0.0028072
0.00280693
0.00281364
0.00281367
0.00281364
0.00281363
0.00281362
0.00281359
0.0028071
)
;
    }
    inlet
    {
        type            cyclic;
        value           nonuniform List<scalar> 
16
(
-0.00280691
-0.00281336
-0.00281375
-0.00281377
-0.00281373
-0.00281371
-0.00281368
-0.0028072
-0.00280693
-0.00281364
-0.00281367
-0.00281364
-0.00281363
-0.00281362
-0.00281359
-0.0028071
)
;
    }
    procBoundary1to0
    {
        type            processor;
        value           nonuniform List<scalar> 
256
(
-6.22715e-07
-5.20272e-08
1.17848e-07
1.68329e-07
1.54246e-07
1.25198e-07
7.97611e-08
2.78552e-08
-1.59181e-08
-3.68367e-08
-3.09109e-08
-6.76107e-09
2.4777e-08
5.1643e-08
6.25884e-08
5.18662e-08
2.36764e-08
-4.46092e-09
-1.36429e-08
-4.90346e-09
3.37362e-09
-5.94768e-09
-3.48333e-08
-6.90769e-08
-1.01998e-07
-1.34891e-07
-1.61155e-07
-1.81598e-07
-2.13841e-07
-2.80261e-07
-3.78932e-07
-3.87137e-07
-3.05554e-07
5.66557e-08
1.80416e-07
1.65603e-07
1.49298e-07
1.21243e-07
7.66662e-08
2.65436e-08
-1.58062e-08
-3.68659e-08
-3.13457e-08
-7.72174e-09
2.30714e-08
4.8741e-08
5.75658e-08
4.52147e-08
1.79953e-08
-7.44747e-09
-1.61949e-08
-1.0077e-08
-2.92063e-09
-8.97261e-09
-3.19094e-08
-6.05291e-08
-9.01112e-08
-1.22039e-07
-1.4846e-07
-1.67041e-07
-1.90109e-07
-2.32399e-07
-3.02443e-07
-3.5061e-07
-2.29948e-07
1.19331e-07
2.30433e-07
1.63447e-07
1.41004e-07
1.12461e-07
6.82338e-08
2.07531e-08
-1.70804e-08
-3.53156e-08
-3.0117e-08
-8.93496e-09
1.93072e-08
4.37276e-08
5.00345e-08
3.38582e-08
7.84601e-09
-1.18672e-08
-1.86007e-08
-1.54197e-08
-9.88768e-09
-1.2357e-08
-2.78941e-08
-4.87911e-08
-7.2338e-08
-1.01268e-07
-1.28357e-07
-1.46657e-07
-1.62281e-07
-1.85842e-07
-2.25206e-07
-3.08639e-07
-9.58441e-08
7.40867e-08
1.49133e-07
1.37289e-07
1.24863e-07
9.86575e-08
5.58066e-08
1.1205e-08
-2.16579e-08
-3.53418e-08
-2.88959e-08
-9.40828e-09
1.70835e-08
3.98569e-08
4.14943e-08
2.01856e-08
-4.34258e-09
-1.71348e-08
-2.03563e-08
-1.90641e-08
-1.44623e-08
-1.26159e-08
-2.05963e-08
-3.55544e-08
-5.55557e-08
-8.22465e-08
-1.08678e-07
-1.26389e-07
-1.37388e-07
-1.47778e-07
-1.58753e-07
-1.68561e-07
-2.81383e-08
5.47663e-08
1.02606e-07
1.12008e-07
1.06156e-07
8.2658e-08
4.09977e-08
-2.36638e-09
-3.07303e-08
-3.87081e-08
-2.85847e-08
-6.37407e-09
2.14781e-08
4.0822e-08
3.41889e-08
6.24019e-09
-1.75644e-08
-2.42688e-08
-2.26036e-08
-1.9708e-08
-1.27717e-08
-5.9742e-09
-9.62657e-09
-2.38689e-08
-4.42719e-08
-6.88176e-08
-9.14812e-08
-1.07575e-07
-1.16933e-07
-1.18335e-07
-1.09871e-07
-8.65329e-08
-5.02198e-09
5.04967e-08
8.56696e-08
9.65374e-08
9.10257e-08
6.81608e-08
2.70698e-08
-1.61662e-08
-4.26315e-08
-4.74548e-08
-3.24558e-08
-2.43232e-09
3.05673e-08
4.73585e-08
3.2075e-08
-4.1067e-09
-2.98689e-08
-3.31594e-08
-2.50661e-08
-1.49105e-08
-2.53276e-09
7.02818e-09
2.56729e-09
-1.50243e-08
-3.62146e-08
-5.65358e-08
-7.37179e-08
-8.96844e-08
-1.02893e-07
-1.02442e-07
-8.59103e-08
-5.47651e-08
-2.29194e-10
4.85257e-08
7.88195e-08
8.78105e-08
8.12595e-08
5.80433e-08
1.76342e-08
-2.51488e-08
-5.20883e-08
-5.67623e-08
-3.85244e-08
-2.15883e-09
3.58742e-08
5.3678e-08
3.39988e-08
-9.16846e-09
-3.75208e-08
-3.87872e-08
-2.42876e-08
-4.47526e-09
1.39741e-08
2.31528e-08
1.32737e-08
-1.01657e-08
-3.08752e-08
-4.48138e-08
-5.52457e-08
-7.49295e-08
-1.00513e-07
-1.02798e-07
-8.16389e-08
-4.80143e-08
-1.76686e-09
4.68733e-08
7.66276e-08
8.48346e-08
7.65823e-08
5.10017e-08
1.20446e-08
-2.72153e-08
-5.5382e-08
-6.25029e-08
-4.30967e-08
-3.81013e-09
3.5775e-08
5.29489e-08
3.33676e-08
-8.56517e-09
-3.71402e-08
-3.83708e-08
-2.01219e-08
5.32946e-09
2.6072e-08
3.24774e-08
1.78039e-08
-8.35729e-09
-2.75891e-08
-3.63712e-08
-3.62678e-08
-6.08514e-08
-1.08877e-07
-1.13591e-07
-8.43735e-08
-5.01661e-08
)
;
    }
    procBoundary1to2
    {
        type            processor;
        value           nonuniform List<scalar> 
256
(
1.89065e-07
-1.40058e-07
-2.46501e-07
-2.70778e-07
-3.69351e-07
-3.5202e-07
-2.06001e-07
-2.6777e-08
1.3735e-07
1.92114e-07
1.33269e-07
4.00433e-08
-7.51072e-08
-1.82973e-07
-2.47743e-07
-2.22747e-07
-7.50491e-08
9.54207e-08
1.092e-07
-2.18771e-08
-1.31538e-07
-1.02286e-07
7.00014e-08
1.95466e-07
2.54834e-07
3.62425e-07
4.12892e-07
3.50561e-07
2.96317e-07
2.97904e-07
2.97048e-07
3.19755e-07
1.04983e-07
-1.11025e-07
-2.03226e-07
-2.73177e-07
-3.67466e-07
-3.47522e-07
-2.09204e-07
-4.87577e-08
1.21627e-07
2.08393e-07
1.50677e-07
4.31392e-08
-8.31466e-08
-1.81466e-07
-2.17354e-07
-1.85601e-07
-5.04485e-08
9.62018e-08
1.09596e-07
2.70805e-08
-5.93612e-08
-6.86995e-08
4.62717e-08
1.30265e-07
1.86331e-07
3.11013e-07
3.73498e-07
3.33399e-07
2.97605e-07
2.89038e-07
2.84651e-07
2.56776e-07
2.78006e-08
-1.11382e-07
-1.72658e-07
-2.62424e-07
-3.60904e-07
-3.28589e-07
-1.676e-07
-1.53291e-08
1.03578e-07
1.67264e-07
1.26276e-07
4.89981e-08
-4.38249e-08
-1.61701e-07
-2.15207e-07
-1.24245e-07
1.09931e-08
8.2611e-08
8.63725e-08
5.08418e-08
-8.79078e-09
-2.66047e-08
5.80198e-08
1.00804e-07
1.03361e-07
1.93304e-07
2.98803e-07
3.08243e-07
2.76679e-07
2.80415e-07
2.88376e-07
2.06733e-07
-1.29522e-08
-1.47643e-07
-2.04341e-07
-2.63465e-07
-3.36306e-07
-2.91518e-07
-1.25902e-07
6.86961e-09
1.0063e-07
1.43275e-07
1.03615e-07
7.32181e-08
1.80031e-10
-1.53404e-07
-1.98755e-07
-5.45314e-08
6.82297e-08
6.20762e-08
4.74519e-08
6.74369e-08
5.06872e-08
1.56964e-08
3.55927e-08
4.37538e-08
3.93072e-08
1.27247e-07
2.51427e-07
2.83291e-07
2.57208e-07
2.70447e-07
2.72364e-07
1.64339e-07
-4.55603e-08
-1.80697e-07
-2.28518e-07
-2.36481e-07
-2.75148e-07
-2.51409e-07
-8.55813e-08
7.61966e-08
1.35052e-07
1.17523e-07
7.64504e-08
5.07837e-08
-4.33939e-08
-1.75629e-07
-1.47806e-07
3.28889e-08
1.27405e-07
6.03726e-08
2.84492e-08
9.14478e-08
8.00671e-08
-5.99319e-09
-2.44128e-08
6.72262e-09
5.16674e-08
1.4637e-07
2.25121e-07
2.47901e-07
2.45763e-07
2.25262e-07
1.80243e-07
9.41529e-08
-3.57361e-08
-1.74386e-07
-2.34751e-07
-2.29448e-07
-2.2944e-07
-2.0692e-07
-4.41742e-08
1.40492e-07
1.90682e-07
1.72671e-07
1.21181e-07
-2.27319e-10
-1.58935e-07
-2.49539e-07
-1.42027e-07
9.22993e-08
1.93644e-07
1.2284e-07
6.07363e-08
7.60956e-08
4.04804e-08
-6.02346e-08
-7.42716e-08
-4.87617e-09
6.61162e-08
1.32966e-07
1.61307e-07
1.73212e-07
2.08663e-07
1.97782e-07
1.427e-07
8.29048e-08
-1.45637e-08
-1.79128e-07
-2.30446e-07
-2.02215e-07
-2.06112e-07
-1.97987e-07
-3.95254e-08
1.6712e-07
2.32794e-07
2.24548e-07
1.69355e-07
6.14368e-09
-1.89427e-07
-3.45131e-07
-2.13819e-07
1.45809e-07
2.58411e-07
1.73542e-07
8.84712e-08
4.20882e-09
-8.57598e-08
-1.77763e-07
-1.26616e-07
3.49098e-08
9.43268e-08
9.2073e-08
5.99074e-08
1.08505e-07
2.71473e-07
2.67655e-07
1.79683e-07
1.24683e-07
2.69856e-08
-1.73758e-07
-2.43214e-07
-2.22841e-07
-2.10735e-07
-1.77041e-07
-4.72371e-08
1.46246e-07
2.5945e-07
2.75895e-07
2.03537e-07
1.91603e-08
-1.67788e-07
-2.72002e-07
-1.71587e-07
8.14442e-08
1.9647e-07
1.57792e-07
5.25634e-08
-8.66413e-08
-1.82654e-07
-2.08673e-07
-1.02496e-07
6.16591e-08
9.4955e-08
8.49866e-08
1.47939e-07
2.1545e-07
1.983e-07
1.42914e-07
1.84391e-07
1.93652e-07
)
;
    }
}


// ************************************************************************* //
