/*--------------------------------*- C++ -*----------------------------------*\
| =========                 |                                                 |
| \\      /  F ield         | OpenFOAM: The Open Source CFD Toolbox           |
|  \\    /   O peration     | Version:  2506                                  |
|   \\  /    A nd           | Website:  www.openfoam.com                      |
|    \\/     M anipulation  |                                                 |
\*---------------------------------------------------------------------------*/
FoamFile
{
    version     2.0;
    format      ascii;
    arch        "LSB;label=32;scalar=64";
    class       volVectorField;
    location    "0.002";
    object      U;
}
// * * * * * * * * * * * * * * * * * * * * * * * * * * * * * * * * * * * * * //

dimensions      [0 1 -1 0 0 0 0];

internalField   nonuniform List<vector> 
512
(
(10.7928 0.000590418 0.00279196)
(10.7932 9.53514e-05 -1.77487e-05)
(10.7902 -0.000101167 -0.00106835)
(10.7891 -8.02173e-05 -0.00124567)
(10.7896 -3.62983e-05 -0.00124777)
(10.7901 -4.50038e-06 -0.00106813)
(10.7905 1.14281e-05 -0.000672895)
(10.7907 1.29031e-05 -0.000196394)
(10.7905 9.19722e-06 0.000214911)
(10.7902 9.06993e-06 0.000397752)
(10.7899 1.09155e-05 0.000316908)
(10.7898 1.47909e-05 7.93361e-05)
(10.7897 2.09033e-05 -0.000223256)
(10.7899 2.97016e-05 -0.000486273)
(10.7902 4.21568e-05 -0.000605208)
(10.7905 5.07027e-05 -0.000508271)
(10.7906 4.48597e-05 -0.000210995)
(10.7905 2.8832e-05 9.36086e-05)
(10.7903 2.11865e-05 0.000165132)
(10.7902 2.59891e-05 1.83494e-05)
(10.7903 2.36904e-05 -0.000115425)
(10.7904 1.56117e-06 -3.67713e-05)
(10.7905 -3.22702e-05 0.000267211)
(10.7904 -6.19494e-05 0.000587055)
(10.7902 -7.4961e-05 0.000859139)
(10.7899 -6.56909e-05 0.00114643)
(10.7894 -3.20301e-05 0.00134029)
(10.7888 2.51682e-05 0.00140395)
(10.7883 0.000103054 0.00150699)
(10.7879 0.000204795 0.00179365)
(10.7876 0.00033077 0.00223013)
(10.7888 0.000470291 0.00241783)
(10.8286 0.00137316 0.00182126)
(10.829 -8.29434e-05 -0.000589622)
(10.8267 -0.000542518 -0.00143192)
(10.8259 -0.000252601 -0.00125787)
(10.8264 -9.80749e-05 -0.00122569)
(10.8269 -4.3277e-06 -0.00104213)
(10.8273 4.39566e-05 -0.000653323)
(10.8274 5.04284e-05 -0.000197376)
(10.8273 3.35377e-05 0.000204726)
(10.827 2.18305e-05 0.000401434)
(10.8267 2.41444e-05 0.000326331)
(10.8265 3.91539e-05 8.85029e-05)
(10.8265 5.95931e-05 -0.000211866)
(10.8267 8.02985e-05 -0.00046256)
(10.827 0.000110521 -0.000553396)
(10.8272 0.000138227 -0.000437664)
(10.8273 0.000124226 -0.000154165)
(10.8273 7.57845e-05 0.000115214)
(10.8271 4.84174e-05 0.000184323)
(10.827 5.33959e-05 8.30209e-05)
(10.827 4.44828e-05 -2.89966e-05)
(10.8271 -8.2602e-06 7.0614e-06)
(10.8272 -8.85582e-05 0.000236149)
(10.8271 -0.000160499 0.000490631)
(10.8269 -0.000196449 0.000732689)
(10.8266 -0.000177935 0.00102091)
(10.8262 -9.14004e-05 0.00123104)
(10.8257 5.60991e-05 0.00130973)
(10.8252 0.00025252 0.00138905)
(10.8249 0.000507836 0.00157668)
(10.8245 0.00084414 0.00190772)
(10.8256 0.00135587 0.00230053)
(10.8273 0.00133497 0.00116722)
(10.8277 -0.000227545 -0.000688911)
(10.8267 -0.000725559 -0.0013825)
(10.8262 -0.000324758 -0.00119789)
(10.8266 -0.000110584 -0.00116439)
(10.827 1.86027e-05 -0.000971081)
(10.8273 8.75521e-05 -0.000573003)
(10.8274 0.00010065 -0.000142319)
(10.8273 7.28734e-05 0.000201712)
(10.827 4.11745e-05 0.000366772)
(10.8267 3.29929e-05 0.000303222)
(10.8266 4.94626e-05 0.000101655)
(10.8266 7.38902e-05 -0.000164381)
(10.8267 0.000100651 -0.000415052)
(10.827 0.000147469 -0.000491077)
(10.8273 0.000193247 -0.00031921)
(10.8273 0.000175618 -4.7782e-05)
(10.8273 0.000102821 0.000139876)
(10.8271 5.20634e-05 0.00018841)
(10.827 4.20447e-05 0.000138143)
(10.827 2.03404e-05 5.7759e-05)
(10.8271 -4.78789e-05 6.12347e-05)
(10.8271 -0.000143393 0.000212857)
(10.8271 -0.00022134 0.000383659)
(10.827 -0.000257296 0.000554471)
(10.8267 -0.000235094 0.000808554)
(10.8264 -0.000131801 0.00105092)
(10.8259 5.18641e-05 0.00116751)
(10.8255 0.000297885 0.00122654)
(10.8252 0.000602472 0.00133518)
(10.8251 0.000988165 0.00150595)
(10.8257 0.00156904 0.00177813)
(10.8264 0.00089943 0.000461706)
(10.8267 1.1959e-07 -0.000515732)
(10.8265 -0.000389674 -0.000999532)
(10.8265 -0.000224613 -0.00104939)
(10.8267 -5.44994e-05 -0.00104785)
(10.8271 6.29848e-05 -0.000856119)
(10.8274 0.000132455 -0.000461109)
(10.8274 0.000154843 -5.91504e-05)
(10.8273 0.000126843 0.000230851)
(10.827 7.93891e-05 0.000348573)
(10.8267 4.81663e-05 0.000279388)
(10.8266 3.64456e-05 0.00011432)
(10.8266 4.08103e-05 -0.000128993)
(10.8268 7.64458e-05 -0.000381406)
(10.8271 0.000149945 -0.000415)
(10.8273 0.00021127 -0.000177417)
(10.8273 0.000196519 7.38362e-05)
(10.8272 0.000117872 0.000167101)
(10.8271 4.64113e-05 0.00017988)
(10.827 6.78273e-06 0.000176123)
(10.827 -4.03205e-05 0.000127551)
(10.827 -0.000118737 8.85365e-05)
(10.8271 -0.000202215 0.000150031)
(10.827 -0.000251333 0.000257918)
(10.827 -0.000263745 0.000398946)
(10.8268 -0.000244079 0.00063726)
(10.8265 -0.000163717 0.000888215)
(10.8262 1.41928e-05 0.00102256)
(10.8258 0.000272383 0.00107057)
(10.8255 0.000553755 0.00111717)
(10.8254 0.000842604 0.00113245)
(10.8257 0.0011341 0.0010267)
(10.826 0.000592274 0.000101407)
(10.8262 0.000140392 -0.000474206)
(10.8264 -0.000112577 -0.000807268)
(10.8265 -8.35389e-05 -0.000900632)
(10.8268 1.75097e-05 -0.000897343)
(10.8272 0.00010037 -0.000721556)
(10.8274 0.000158537 -0.000330387)
(10.8274 0.000190244 7.55068e-05)
(10.8272 0.000174513 0.000314814)
(10.8269 0.000128864 0.000361786)
(10.8267 7.60604e-05 0.000261802)
(10.8266 1.78634e-05 7.49193e-05)
(10.8266 -1.26995e-05 -0.000189098)
(10.8269 2.23666e-05 -0.000404255)
(10.8272 0.000111463 -0.000336554)
(10.8273 0.000187364 -2.48396e-05)
(10.8273 0.000188572 0.000207381)
(10.8271 0.000123306 0.000221907)
(10.827 3.53958e-05 0.000187945)
(10.8269 -4.78368e-05 0.000192426)
(10.8269 -0.000124872 0.000131038)
(10.8269 -0.000195438 3.09912e-05)
(10.827 -0.000239936 4.06371e-05)
(10.827 -0.000249446 0.000155764)
(10.827 -0.000252819 0.000325318)
(10.8268 -0.000263603 0.000550736)
(10.8266 -0.000231846 0.000754407)
(10.8264 -6.13592e-05 0.00087753)
(10.8261 0.000231202 0.00093473)
(10.8257 0.000493105 0.000920584)
(10.8256 0.000672161 0.000813322)
(10.8256 0.000771579 0.000570186)
(10.8257 0.000428491 -1.37867e-05)
(10.826 0.000182754 -0.00046115)
(10.8263 2.22094e-05 -0.000730496)
(10.8266 4.97054e-06 -0.000805868)
(10.8269 5.10405e-05 -0.000773776)
(10.8272 9.94175e-05 -0.000597738)
(10.8275 0.000140561 -0.000207963)
(10.8274 0.000175308 0.000212124)
(10.8272 0.000181418 0.000435961)
(10.8269 0.00015606 0.000456291)
(10.8266 0.000101856 0.00030991)
(10.8265 2.45228e-05 1.6981e-05)
(10.8266 -2.65863e-05 -0.000320099)
(10.8269 -1.48562e-05 -0.000499815)
(10.8273 5.39843e-05 -0.000322463)
(10.8274 0.000128504 8.74276e-05)
(10.8272 0.000144288 0.000339895)
(10.827 9.86318e-05 0.000322441)
(10.8269 7.05065e-06 0.000222733)
(10.8268 -0.000106502 0.00014738)
(10.8268 -0.000194626 2.99216e-05)
(10.8269 -0.000236255 -9.88789e-05)
(10.827 -0.000233765 -7.6473e-05)
(10.827 -0.000216498 8.99759e-05)
(10.827 -0.000239858 0.000280929)
(10.8268 -0.000312216 0.000458052)
(10.8267 -0.000365862 0.0005911)
(10.8266 -0.000181229 0.000712308)
(10.8263 0.000244662 0.000830106)
(10.8259 0.00053093 0.000818426)
(10.8256 0.000594711 0.000662095)
(10.8255 0.000573804 0.000398193)
(10.8255 0.00029396 -1.65548e-05)
(10.8257 0.000148141 -0.000450202)
(10.8261 5.1145e-05 -0.000692612)
(10.8265 2.63337e-05 -0.00074173)
(10.8269 4.18303e-05 -0.00069787)
(10.8272 6.57123e-05 -0.000524569)
(10.8275 8.76752e-05 -0.000140041)
(10.8274 0.000115735 0.000294154)
(10.8272 0.000135924 0.000535092)
(10.8268 0.00012932 0.000559684)
(10.8265 9.20473e-05 0.000383466)
(10.8264 3.67751e-05 1.58129e-05)
(10.8265 -4.23123e-07 -0.000384009)
(10.8269 -1.25746e-06 -0.00059645)
(10.8273 2.53787e-05 -0.000369639)
(10.8274 5.71151e-05 0.00014734)
(10.8272 6.66134e-05 0.000429819)
(10.8269 4.1547e-05 0.000392818)
(10.8268 -2.81603e-05 0.000227242)
(10.8267 -0.000122798 2.73029e-05)
(10.8267 -0.000185722 -0.000164751)
(10.8268 -0.000193581 -0.00028233)
(10.827 -0.000166664 -0.000180791)
(10.827 -0.000150444 7.63411e-05)
(10.8268 -0.000197996 0.000260453)
(10.8267 -0.000334766 0.000351751)
(10.8267 -0.00060911 0.000393194)
(10.8269 -0.00043364 0.000561948)
(10.8267 0.000375047 0.000855808)
(10.826 0.000732569 0.000884614)
(10.8255 0.000559927 0.000679311)
(10.8254 0.000424063 0.000400682)
(10.7886 0.000111041 2.47044e-05)
(10.7889 5.73719e-05 -0.000434628)
(10.7893 2.19244e-05 -0.000687107)
(10.7897 1.00959e-05 -0.000733847)
(10.7901 1.40102e-05 -0.000671389)
(10.7905 2.21211e-05 -0.000476576)
(10.7907 2.82286e-05 -0.000111721)
(10.7907 3.89593e-05 0.000307478)
(10.7904 5.07087e-05 0.000583358)
(10.7901 5.11447e-05 0.000633823)
(10.7897 3.78429e-05 0.00043969)
(10.7896 1.87609e-05 3.77063e-05)
(10.7898 7.84486e-06 -0.000371859)
(10.7902 9.56578e-06 -0.000562455)
(10.7905 1.20103e-05 -0.000350996)
(10.7906 1.04264e-05 0.000115748)
(10.7904 1.06351e-05 0.000399228)
(10.7901 4.21656e-06 0.000380354)
(10.79 -2.14088e-05 0.000176412)
(10.7899 -5.62926e-05 -9.63915e-05)
(10.79 -7.60997e-05 -0.000311046)
(10.7901 -7.207e-05 -0.000375063)
(10.7903 -5.77088e-05 -0.000205195)
(10.7902 -5.48463e-05 8.10493e-05)
(10.79 -8.30489e-05 0.000241436)
(10.7896 -0.000165009 0.000275375)
(10.7898 -0.00038386 0.000162643)
(10.7908 -0.000306683 0.000366749)
(10.7907 0.000237578 0.000982758)
(10.7893 0.00044041 0.00106689)
(10.7885 0.000269514 0.000751753)
(10.7885 0.000171258 0.000465991)
(10.7903 0.00039394 0.00163694)
(10.7908 -0.000134574 -0.000631223)
(10.7894 -0.000265116 -0.00148213)
(10.7889 -0.000100502 -0.0015755)
(10.7895 -2.91731e-05 -0.0019368)
(10.7904 9.6139e-06 -0.00179391)
(10.791 2.16017e-05 -0.00107688)
(10.7912 7.84364e-06 -0.000193039)
(10.7909 -8.87644e-07 0.000603329)
(10.7903 1.22072e-05 0.00089446)
(10.7897 1.85405e-05 0.000644407)
(10.7894 2.06667e-05 0.000185814)
(10.7894 2.68733e-05 -0.000384355)
(10.7896 4.44132e-05 -0.000906797)
(10.7902 7.83523e-05 -0.00119802)
(10.7907 0.000100475 -0.00105482)
(10.791 8.37241e-05 -0.000374763)
(10.7908 4.07696e-05 0.000384767)
(10.7903 3.19649e-05 0.000470567)
(10.79 7.39855e-05 -6.76568e-05)
(10.7902 9.00378e-05 -0.000525365)
(10.7907 3.57787e-05 -0.000382258)
(10.7909 -5.41507e-05 0.000380033)
(10.7908 -0.000131498 0.000991152)
(10.7905 -0.0001641 0.00134802)
(10.7901 -0.000151072 0.00187424)
(10.7894 -0.000101834 0.0021455)
(10.7888 -2.36683e-05 0.00194435)
(10.7883 5.98705e-05 0.00177029)
(10.7879 0.000139616 0.00184841)
(10.7876 0.000250687 0.00196564)
(10.7882 0.000464116 0.00220097)
(10.8264 0.000760671 0.00117996)
(10.8269 -0.000212443 -0.00076639)
(10.8262 -0.000496341 -0.00150742)
(10.8258 -0.000219197 -0.00160363)
(10.8264 -5.59758e-05 -0.00192421)
(10.8272 5.2798e-05 -0.00176605)
(10.8278 0.000107501 -0.00107757)
(10.8279 8.19219e-05 -0.000268683)
(10.8276 1.63574e-05 0.000543363)
(10.827 -4.75374e-06 0.000950295)
(10.8264 1.25725e-05 0.000708076)
(10.8261 5.42896e-05 0.000201691)
(10.8261 0.000101009 -0.000404286)
(10.8264 0.000126474 -0.000887391)
(10.827 0.000184921 -0.00106474)
(10.8275 0.000270128 -0.000886789)
(10.8277 0.000237034 -0.000257526)
(10.8275 9.82483e-05 0.000399518)
(10.827 5.55638e-05 0.000483008)
(10.8268 0.000139415 0.000137202)
(10.8269 0.000175325 -0.000228348)
(10.8273 6.93496e-05 -0.000241139)
(10.8275 -0.000120847 0.00028227)
(10.8274 -0.000299437 0.000713506)
(10.8272 -0.000406939 0.00104055)
(10.8269 -0.000409233 0.00162571)
(10.8263 -0.000276999 0.00195098)
(10.8257 -6.9675e-05 0.0018418)
(10.8252 0.000136082 0.00173243)
(10.8249 0.000350689 0.00175649)
(10.8246 0.000610347 0.00184823)
(10.8251 0.000961523 0.00199761)
(10.8259 0.000643165 0.000518207)
(10.8264 -9.68267e-05 -0.000665361)
(10.8262 -0.000391852 -0.00119933)
(10.8261 -0.000206017 -0.00151551)
(10.8266 -1.05462e-05 -0.00186825)
(10.8273 0.000132494 -0.00166247)
(10.8278 0.000213091 -0.000890881)
(10.8279 0.000189835 -0.000125039)
(10.8276 8.02746e-05 0.000478518)
(10.8271 -6.84195e-06 0.000788941)
(10.8265 -6.14689e-06 0.000610877)
(10.8262 6.98793e-05 0.000229761)
(10.8262 0.000137632 -0.000243079)
(10.8265 0.000153388 -0.000792755)
(10.8271 0.000234428 -0.00101969)
(10.8276 0.000373442 -0.000608282)
(10.8276 0.000332203 1.28426e-05)
(10.8274 0.00012371 0.000366437)
(10.8271 3.42609e-05 0.000405292)
(10.8269 0.00010638 0.000251359)
(10.8269 0.000140003 -2.27567e-06)
(10.8272 2.20024e-05 -6.33475e-05)
(10.8273 -0.00019328 0.000309487)
(10.8273 -0.000374141 0.00055005)
(10.8272 -0.00048049 0.000653763)
(10.827 -0.000491444 0.00110327)
(10.8266 -0.000347309 0.00159638)
(10.826 -0.000105078 0.00168408)
(10.8255 0.000148511 0.00159198)
(10.8252 0.000414725 0.00163741)
(10.825 0.000674371 0.00170659)
(10.8251 0.000878538 0.00144943)
(10.8255 0.000480931 0.000112076)
(10.8259 9.66524e-06 -0.00075191)
(10.8261 -0.000222476 -0.00117682)
(10.8263 -9.15458e-05 -0.00145363)
(10.8267 0.000101293 -0.00172454)
(10.8274 0.000217273 -0.00147314)
(10.8279 0.000287983 -0.000685345)
(10.8278 0.000298739 -1.42982e-06)
(10.8275 0.000196293 0.000483508)
(10.827 6.35293e-05 0.000693984)
(10.8266 1.16191e-05 0.000518613)
(10.8263 1.78991e-05 0.000318546)
(10.8262 2.30377e-05 -7.41672e-05)
(10.8266 7.79242e-05 -0.000745173)
(10.8272 0.000253764 -0.000918201)
(10.8276 0.000417321 -0.000287059)
(10.8275 0.000370437 0.000278436)
(10.8272 0.000160225 0.000311023)
(10.8271 3.30983e-05 0.00026692)
(10.8269 4.73375e-05 0.00033105)
(10.8269 2.37711e-05 0.000243319)
(10.827 -0.000128519 9.8333e-05)
(10.8271 -0.000315985 0.000197809)
(10.8272 -0.000399503 0.000283998)
(10.8272 -0.000403085 0.000347028)
(10.8271 -0.000398026 0.000781495)
(10.8267 -0.00034219 0.00134528)
(10.8262 -0.000150616 0.00152434)
(10.8258 0.000125984 0.00145357)
(10.8254 0.000355838 0.00150954)
(10.8251 0.000520241 0.00149505)
(10.8251 0.000638527 0.00101144)
(10.8253 0.00040862 -0.000134996)
(10.8257 0.000120306 -0.000877617)
(10.8261 -4.61121e-05 -0.0012105)
(10.8264 2.98993e-05 -0.00129902)
(10.8269 0.000183481 -0.00143818)
(10.8275 0.00026126 -0.00126158)
(10.8279 0.000319778 -0.000472886)
(10.8278 0.000373991 0.000311944)
(10.8274 0.000312554 0.000648609)
(10.8269 0.000197837 0.000613867)
(10.8265 9.52059e-05 0.000414935)
(10.8263 -5.7165e-05 0.000216911)
(10.8263 -0.000160724 -0.000259621)
(10.8267 -7.21114e-05 -0.000835889)
(10.8274 0.000173842 -0.000699923)
(10.8277 0.000374523 0.000100524)
(10.8274 0.000373013 0.00055883)
(10.8271 0.000227405 0.000337494)
(10.827 6.31858e-05 0.00020703)
(10.8269 -6.32829e-05 0.000422267)
(10.8268 -0.00018432 0.000346133)
(10.8268 -0.000320009 -7.70769e-06)
(10.8271 -0.000392362 -6.84879e-05)
(10.8272 -0.000351714 0.000101009)
(10.8272 -0.000308909 0.000349216)
(10.8271 -0.00036048 0.000799107)
(10.8268 -0.00041706 0.001182)
(10.8264 -0.000254117 0.00132629)
(10.826 0.00010129 0.00134688)
(10.8256 0.000339803 0.00126264)
(10.8252 0.000435576 0.0010382)
(10.8251 0.000508345 0.000594049)
(10.8251 0.000400403 -0.000144383)
(10.8255 0.000187228 -0.000857662)
(10.826 6.10243e-05 -0.0012078)
(10.8265 8.6593e-05 -0.00123153)
(10.827 0.000170941 -0.00121679)
(10.8276 0.000217694 -0.00104178)
(10.828 0.000256172 -0.000262583)
(10.8278 0.000321084 0.000610146)
(10.8273 0.000333387 0.000909736)
(10.8268 0.000296229 0.000856914)
(10.8263 0.000191766 0.000593667)
(10.8261 -2.10878e-05 8.23638e-06)
(10.8262 -0.00017548 -0.000731066)
(10.8269 -0.000165998 -0.00114675)
(10.8277 2.02251e-05 -0.000673972)
(10.8278 0.000251394 0.000369929)
(10.8274 0.000302921 0.000863908)
(10.8269 0.000223142 0.000609232)
(10.8268 4.10099e-05 0.000336984)
(10.8267 -0.000222887 0.000343201)
(10.8266 -0.000404888 0.000151019)
(10.8268 -0.00045645 -0.000269429)
(10.8271 -0.000381973 -0.000305917)
(10.8272 -0.000252064 2.66676e-05)
(10.8272 -0.000261803 0.000376916)
(10.827 -0.000434354 0.000702491)
(10.8268 -0.000611141 0.000870819)
(10.8267 -0.000392368 0.000979069)
(10.8264 0.000218373 0.00116879)
(10.8258 0.000544895 0.00112404)
(10.8253 0.000551387 0.000844111)
(10.8251 0.000528078 0.000488256)
(10.8249 0.000343454 -6.40658e-05)
(10.8253 0.000163156 -0.000867921)
(10.8259 6.53392e-05 -0.00117757)
(10.8265 6.05113e-05 -0.00110808)
(10.827 9.75845e-05 -0.00109798)
(10.8276 0.000131638 -0.000972703)
(10.828 0.000135757 -0.000209997)
(10.8278 0.000176021 0.000748687)
(10.8273 0.000243091 0.0011135)
(10.8267 0.000259389 0.00109667)
(10.8261 0.000188383 0.000801842)
(10.8258 5.33556e-05 2.83323e-05)
(10.8261 -3.568e-05 -0.000875207)
(10.8269 -4.64584e-05 -0.00152861)
(10.8278 6.10093e-07 -0.000945468)
(10.8279 7.12138e-05 0.000584689)
(10.8273 0.000103057 0.00113674)
(10.8267 8.32423e-05 0.000824113)
(10.8265 -5.83474e-05 0.000432503)
(10.8264 -0.000301797 2.62961e-05)
(10.8265 -0.000435423 -0.000394526)
(10.8268 -0.000388696 -0.000776985)
(10.8272 -0.000246845 -0.000543443)
(10.8273 -0.000137938 0.000155773)
(10.827 -0.000209607 0.000463751)
(10.8267 -0.000452581 0.000503036)
(10.8268 -0.000917504 0.000408023)
(10.8272 -0.000686848 0.000668593)
(10.8269 0.000509524 0.0014021)
(10.8259 0.000946443 0.00141265)
(10.8252 0.000655497 0.00099375)
(10.8249 0.000507464 0.000645982)
(10.788 0.00014779 0.000105176)
(10.7884 6.76239e-05 -0.000840556)
(10.7891 2.0084e-05 -0.00121999)
(10.7897 8.02068e-06 -0.00117576)
(10.7903 2.50874e-05 -0.0011011)
(10.7908 4.7235e-05 -0.000880002)
(10.7912 3.8573e-05 -0.000224371)
(10.7912 4.59659e-05 0.000688468)
(10.7906 8.90122e-05 0.00123674)
(10.7899 0.000107588 0.00131685)
(10.7893 8.00047e-05 0.000952823)
(10.789 3.56032e-05 8.66741e-05)
(10.7893 1.95119e-05 -0.000794214)
(10.7902 4.08141e-05 -0.0012635)
(10.791 2.82985e-05 -0.000793597)
(10.7911 -1.91972e-05 0.000349113)
(10.7906 -1.83758e-05 0.000909334)
(10.79 -6.48588e-06 0.000762416)
(10.7896 -5.86444e-05 0.000280171)
(10.7895 -0.000148614 -0.000356579)
(10.7898 -0.000183897 -0.000812191)
(10.7902 -0.000135258 -0.000938753)
(10.7906 -6.77843e-05 -0.000476022)
(10.7905 -4.42648e-05 0.000251784)
(10.7901 -9.13074e-05 0.00045713)
(10.7895 -0.000214074 0.000430955)
(10.7898 -0.000553462 0.000519902)
(10.7914 -0.00045618 0.000861544)
(10.7912 0.000338269 0.00126835)
(10.7891 0.000589111 0.00116094)
(10.7881 0.000334058 0.001072)
(10.788 0.000230391 0.000924862)
)
;

boundaryField
{
    wall
    {
        type            fixedValue;
        value           uniform (0 0 0);
    }
    outlet
    {
        type            cyclic;
    }
    inlet
    {
        type            cyclic;
    }
    procBoundary1to0
    {
        type            processor;
        value           nonuniform List<vector> 
256
(
(17.9596 0.00137483 0.00837786)
(17.9651 0.000442193 0.00170436)
(17.968 9.91167e-05 -0.000405135)
(17.9665 -8.8904e-05 -0.00109312)
(17.9669 -5.22795e-05 -0.000781429)
(17.9673 -1.74894e-05 -0.000595981)
(17.9677 1.26236e-06 -0.000376804)
(17.9679 8.61724e-06 -0.000137329)
(17.9679 9.65802e-06 6.27068e-05)
(17.9677 9.21149e-06 0.000159758)
(17.9676 9.75766e-06 0.000135889)
(17.9675 1.18469e-05 2.79434e-05)
(17.9675 1.54284e-05 -0.000114233)
(17.9676 2.02607e-05 -0.000234911)
(17.9678 2.5858e-05 -0.000283226)
(17.9679 2.9208e-05 -0.000234667)
(17.968 2.65825e-05 -0.000110107)
(17.968 1.93183e-05 1.39866e-05)
(17.9679 1.31314e-05 5.80343e-05)
(17.9678 9.53242e-06 2.62165e-05)
(17.9678 3.60789e-06 -4.03002e-06)
(17.9679 -8.06121e-06 4.06695e-05)
(17.9678 -2.27662e-05 0.000170116)
(17.9677 -3.43161e-05 0.000327069)
(17.9675 -3.65048e-05 0.000482022)
(17.9672 -2.39719e-05 0.000637849)
(17.9667 9.35872e-06 0.000772674)
(17.9661 7.26995e-05 0.00091182)
(17.9655 0.000180269 0.00116204)
(17.9647 0.000359764 0.00156046)
(17.9635 0.000577632 0.0020704)
(17.9608 0.000588961 0.00205572)
(18.0017 0.0023944 0.00239309)
(18.0036 0.000462741 3.79714e-06)
(18.0087 -0.000181321 -0.000764408)
(18.0076 -0.0002674 -0.000822528)
(18.0082 -0.000140323 -0.000718438)
(18.0087 -4.53231e-05 -0.000571174)
(18.009 6.85058e-06 -0.00036107)
(18.0092 2.76371e-05 -0.000130017)
(18.0092 2.99188e-05 6.34113e-05)
(18.0091 2.69133e-05 0.000160136)
(18.0089 2.69014e-05 0.000137721)
(18.0088 3.23242e-05 3.22863e-05)
(18.0088 4.20885e-05 -0.000106268)
(18.0089 5.48262e-05 -0.000221469)
(18.0091 7.01208e-05 -0.000260688)
(18.0092 8.04108e-05 -0.000205193)
(18.0093 7.34997e-05 -8.45993e-05)
(18.0093 5.2125e-05 2.82848e-05)
(18.0092 3.26467e-05 7.01031e-05)
(18.0092 1.98432e-05 4.81981e-05)
(18.0091 2.12551e-06 2.18136e-05)
(18.0092 -2.8688e-05 5.25149e-05)
(18.0091 -6.61942e-05 0.000156688)
(18.009 -9.53059e-05 0.000289384)
(18.0089 -0.000101136 0.000429201)
(18.0086 -6.97817e-05 0.000579066)
(18.0081 1.43211e-05 0.000709252)
(18.0076 0.000168943 0.000818231)
(18.0071 0.000419017 0.000972634)
(18.0064 0.000812371 0.00127427)
(18.0059 0.00133914 0.00173955)
(18.006 0.00160775 0.00194072)
(18.0039 0.00200285 0.00140798)
(18.0043 -0.000170978 -0.000509083)
(18.0086 -0.000824244 -0.00111307)
(18.0079 -0.000414501 -0.000800773)
(18.0084 -0.000188394 -0.000672692)
(18.0088 -5.35164e-05 -0.00052843)
(18.0091 2.08777e-05 -0.000322098)
(18.0093 5.16099e-05 -0.000103108)
(18.0092 5.41498e-05 7.10386e-05)
(18.0091 4.6019e-05 0.000155294)
(18.0089 4.07963e-05 0.00013346)
(18.0089 4.40622e-05 3.77306e-05)
(18.0089 5.47595e-05 -9.00482e-05)
(18.009 7.2233e-05 -0.000198678)
(18.0091 9.60315e-05 -0.000226049)
(18.0093 0.000113195 -0.000154691)
(18.0093 0.000104201 -3.92349e-05)
(18.0093 7.18223e-05 5.01103e-05)
(18.0092 3.87047e-05 8.28792e-05)
(18.0092 1.32781e-05 7.16912e-05)
(18.0092 -1.65456e-05 5.06054e-05)
(18.0092 -5.94734e-05 6.49496e-05)
(18.0091 -0.000107162 0.000136728)
(18.0091 -0.000141428 0.000235697)
(18.0089 -0.000146746 0.000349112)
(18.0087 -0.000107796 0.000484814)
(18.0083 -4.48432e-06 0.00061321)
(18.0079 0.000182095 0.000709148)
(18.0075 0.000466996 0.000803567)
(18.007 0.000874235 0.00095153)
(18.0066 0.00144965 0.00119447)
(18.0075 0.00215237 0.00166486)
(18.0086 0.00154683 0.000738457)
(18.009 -0.000205172 -0.000506603)
(18.0087 -0.000797718 -0.000930047)
(18.0084 -0.000388806 -0.000697554)
(18.0087 -0.000165753 -0.000597148)
(18.009 -3.22516e-05 -0.000463575)
(18.0092 4.5368e-05 -0.000264527)
(18.0093 8.09138e-05 -5.88625e-05)
(18.0092 8.31908e-05 9.34276e-05)
(18.0091 6.85147e-05 0.000157698)
(18.0089 5.30384e-05 0.000129505)
(18.0089 4.46346e-05 3.97132e-05)
(18.0089 4.77546e-05 -8.06454e-05)
(18.009 6.71266e-05 -0.000180688)
(18.0092 9.9241e-05 -0.000187082)
(18.0093 0.00012295 -9.39564e-05)
(18.0093 0.000115273 1.55398e-05)
(18.0093 7.81941e-05 7.62316e-05)
(18.0092 3.35639e-05 9.32542e-05)
(18.0091 -6.94493e-06 8.76766e-05)
(18.0091 -4.95083e-05 6.83333e-05)
(18.0091 -9.82757e-05 6.31742e-05)
(18.0091 -0.000143766 0.000102295)
(18.009 -0.000171608 0.00017493)
(18.0089 -0.000173933 0.000271769)
(18.0087 -0.000140208 0.000396307)
(18.0085 -4.56765e-05 0.000519082)
(18.0082 0.00013936 0.000606606)
(18.0078 0.000417796 0.000668955)
(18.0075 0.00077044 0.000737324)
(18.0073 0.00121288 0.000841215)
(18.0079 0.00184647 0.00109436)
(18.0084 0.000884104 0.000202183)
(18.0087 6.57202e-05 -0.000275108)
(18.0086 -0.00031515 -0.000528379)
(18.0086 -0.000213626 -0.000546184)
(18.0088 -9.05887e-05 -0.000503355)
(18.0091 2.87959e-06 -0.000387467)
(18.0093 6.66325e-05 -0.000195719)
(18.0093 0.000102717 2.52295e-06)
(18.0092 0.000107444 0.000134822)
(18.0091 9.012e-05 0.000174591)
(18.0089 6.46846e-05 0.000129686)
(18.0089 4.01741e-05 2.75602e-05)
(18.0089 3.03815e-05 -9.82266e-05)
(18.009 4.6298e-05 -0.00018317)
(18.0092 8.13055e-05 -0.000154337)
(18.0093 0.000109678 -3.26766e-05)
(18.0093 0.000106953 7.4463e-05)
(18.0092 7.2065e-05 0.000109576)
(18.0091 2.03333e-05 0.000104598)
(18.0091 -3.45392e-05 8.97457e-05)
(18.0091 -8.66902e-05 5.87018e-05)
(18.0091 -0.000132594 3.19701e-05)
(18.0091 -0.000165857 5.21989e-05)
(18.009 -0.000183772 0.000120173)
(18.0089 -0.000190893 0.000216587)
(18.0088 -0.000181272 0.000330698)
(18.0086 -0.000119945 0.000436794)
(18.0084 5.61379e-05 0.000514777)
(18.0081 0.000341755 0.000563068)
(18.0078 0.000638551 0.000578234)
(18.0077 0.000905929 0.000557503)
(18.0079 0.00113684 0.000486316)
(18.0081 0.000518359 4.47356e-05)
(18.0083 0.00016322 -0.000233503)
(18.0085 -5.36344e-05 -0.000409005)
(18.0087 -7.23105e-05 -0.000458502)
(18.0089 -2.85326e-05 -0.000427973)
(18.0091 2.07073e-05 -0.00031749)
(18.0093 6.58267e-05 -0.000130093)
(18.0093 0.000102437 6.40919e-05)
(18.0092 0.000113109 0.000186729)
(18.009 9.83301e-05 0.000212701)
(18.0089 7.01014e-05 0.00014647)
(18.0088 3.80178e-05 1.18591e-05)
(18.0089 1.94303e-05 -0.000134879)
(18.0091 2.61978e-05 -0.000208895)
(18.0092 5.33107e-05 -0.000143619)
(18.0093 7.9214e-05 1.28629e-05)
(18.0093 8.04822e-05 0.000128403)
(18.0092 5.22306e-05 0.000148323)
(18.0091 1.71171e-06 0.000114874)
(18.009 -5.77642e-05 6.81454e-05)
(18.009 -0.000109098 1.29467e-05)
(18.009 -0.000143128 -2.62566e-05)
(18.009 -0.000160545 -3.3946e-06)
(18.009 -0.000172641 7.74068e-05)
(18.0089 -0.000196939 0.00017604)
(18.0088 -0.000235369 0.000272421)
(18.0087 -0.000249927 0.000356492)
(18.0086 -7.67849e-05 0.000432639)
(18.0084 0.000297294 0.000491289)
(18.0081 0.000580864 0.000490202)
(18.0079 0.000685396 0.00041953)
(18.0079 0.000697578 0.000280864)
(18.0079 0.000304445 7.8289e-06)
(18.0081 0.000136743 -0.000221773)
(18.0083 2.24987e-05 -0.000367745)
(18.0086 -1.08049e-05 -0.000411999)
(18.0089 -4.10944e-06 -0.00037784)
(18.0091 1.09902e-05 -0.000262102)
(18.0093 3.96241e-05 -8.00434e-05)
(18.0093 8.0246e-05 0.000100678)
(18.0092 9.48585e-05 0.000222202)
(18.009 8.08534e-05 0.000251027)
(18.0088 5.77428e-05 0.000171839)
(18.0088 3.22493e-05 1.06821e-05)
(18.0088 1.6303e-05 -0.000156971)
(18.009 1.68157e-05 -0.000234223)
(18.0092 2.96628e-05 -0.000149841)
(18.0093 4.28171e-05 3.54444e-05)
(18.0092 4.3151e-05 0.000161697)
(18.0091 2.46551e-05 0.000172308)
(18.009 -1.24885e-05 0.000110747)
(18.0089 -5.81245e-05 2.31974e-05)
(18.0089 -9.42267e-05 -5.80223e-05)
(18.009 -0.00011212 -9.65386e-05)
(18.009 -0.00011787 -5.2115e-05)
(18.009 -0.000129125 5.19939e-05)
(18.0088 -0.000170502 0.000148918)
(18.0087 -0.000270428 0.000221085)
(18.0087 -0.000489417 0.000283953)
(18.0089 -0.000341527 0.000374667)
(18.0087 0.000355333 0.000469005)
(18.0082 0.000696351 0.000470777)
(18.0078 0.00056451 0.000381302)
(18.0077 0.000438678 0.000229276)
(17.9664 0.000105994 8.77929e-06)
(17.9667 5.21453e-05 -0.000214439)
(17.967 1.51113e-05 -0.000354684)
(17.9673 8.25381e-07 -0.000394412)
(17.9676 -7.14749e-07 -0.000348583)
(17.9678 -2.43238e-07 -0.000195727)
(17.968 1.03703e-05 -2.48681e-05)
(17.968 3.22114e-05 8.33996e-05)
(17.9678 3.9889e-05 0.000203694)
(17.9676 3.24383e-05 0.000269588)
(17.9675 2.29349e-05 0.000190117)
(17.9674 1.33537e-05 1.72745e-05)
(17.9675 7.59802e-06 -0.000157323)
(17.9677 7.45513e-06 -0.000232418)
(17.9679 1.01833e-05 -0.000147438)
(17.968 1.23228e-05 3.45773e-05)
(17.9679 1.16339e-05 0.000161993)
(17.9678 5.3098e-06 0.000171307)
(17.9676 -8.24698e-06 9.32993e-05)
(17.9676 -2.4995e-05 -1.81807e-05)
(17.9676 -3.73787e-05 -0.00010977)
(17.9676 -4.21536e-05 -0.000137884)
(17.9677 -4.31427e-05 -7.41565e-05)
(17.9676 -4.90878e-05 4.15203e-05)
(17.9674 -7.26678e-05 0.000133665)
(17.9671 -0.000138184 0.00019075)
(17.9673 -0.000323252 0.000248937)
(17.9655 -0.000261832 0.000364152)
(17.965 0.000210243 0.000472945)
(17.9664 0.000405238 0.000456618)
(17.9662 0.000260308 0.000367372)
(17.9663 0.000164091 0.000227787)
)
;
    }
    procBoundary1to2
    {
        type            processor;
        value           nonuniform List<vector> 
256
(
(17.9665 0.000128359 0.000485532)
(17.9671 -4.09601e-05 -0.000857488)
(17.9666 -0.000126209 -0.000956204)
(17.9661 -0.000107381 -0.00160987)
(17.9669 -2.18957e-05 -0.00314405)
(17.9685 2.53952e-05 -0.00312344)
(17.9697 1.21091e-05 -0.00164872)
(17.9699 -6.24213e-05 -2.71469e-05)
(17.9692 -5.15471e-05 0.00155569)
(17.9679 6.35339e-05 0.00187811)
(17.9668 7.33682e-05 0.00111849)
(17.9663 2.99971e-05 0.0003887)
(17.9662 1.06561e-06 -0.000574762)
(17.9667 4.99819e-05 -0.00158013)
(17.9676 0.000176852 -0.00236042)
(17.9689 0.000220152 -0.00230861)
(17.9697 0.000162748 -0.00073421)
(17.969 4.31147e-05 0.00133779)
(17.9675 3.27888e-05 0.0013898)
(17.9668 0.00023058 -0.000438635)
(17.9676 0.000321122 -0.00183491)
(17.9689 0.000143143 -0.00148956)
(17.9695 -0.000130437 0.00074173)
(17.969 -0.00034084 0.00192511)
(17.9687 -0.000384153 0.00197645)
(17.9682 -0.000316679 0.00310758)
(17.967 -0.000229594 0.00361741)
(17.966 -8.03766e-05 0.00256215)
(17.9658 6.22717e-05 0.00182824)
(17.9656 0.000109604 0.00198426)
(17.9653 0.000209482 0.00178505)
(17.9656 0.000261984 0.0014612)
(18.0076 0.000249008 0.000123368)
(18.0081 -0.000119122 -0.000732864)
(18.0078 -0.000259545 -0.0009056)
(18.0075 -0.000191699 -0.00182553)
(18.0083 -2.77544e-05 -0.00313532)
(18.0099 0.000129135 -0.00309141)
(18.0109 0.000231342 -0.00180655)
(18.0112 0.000118756 -0.00055853)
(18.0106 -9.20817e-05 0.00128843)
(18.0093 -8.50878e-05 0.00236233)
(18.0081 -1.05972e-05 0.00151342)
(18.0076 8.24426e-05 0.00040199)
(18.0076 0.000200952 -0.000900213)
(18.0082 0.000195174 -0.00169155)
(18.0091 0.000290232 -0.00184441)
(18.0102 0.000586184 -0.00189738)
(18.0108 0.000512516 -0.000538206)
(18.0102 5.70078e-05 0.00130371)
(18.009 -1.77351e-05 0.00130425)
(18.0084 0.000372094 0.000305305)
(18.0088 0.000568011 -0.000713845)
(18.0098 0.000311203 -0.00106436)
(18.0103 -0.000159416 0.000295527)
(18.01 -0.000602804 0.000924447)
(18.01 -0.000892426 0.00116792)
(18.0097 -0.000951382 0.00276082)
(18.0086 -0.000643599 0.0032602)
(18.0076 -0.000207215 0.00242636)
(18.0073 7.12453e-05 0.00204719)
(18.0071 0.000293521 0.00191342)
(18.0068 0.000581161 0.00180509)
(18.0068 0.000599313 0.00141195)
(18.0072 0.000267098 -0.000428761)
(18.0079 -0.000213075 -0.000863155)
(18.0078 -0.000394956 -0.000695604)
(18.0076 -0.000174757 -0.00175909)
(18.0085 8.90875e-05 -0.00320944)