/*--------------------------------*- C++ -*----------------------------------*\
| =========                 |                                                 |
| \\      /  F ield         | OpenFOAM: The Open Source CFD Toolbox           |
|  \\    /   O peration     | Version:  2506                                  |
|   \\  /    A nd           | Website:  www.openfoam.com                      |
|    \\/     M anipulation  |                                                 |
\*---------------------------------------------------------------------------*/
FoamFile
{
    version     2.0;
    format      ascii;
    arch        "LSB;label=32;scalar=64";
    class       volScalarField;
    location    "0.005";
    object      Ksl;
}
// * * * * * * * * * * * * * * * * * * * * * * * * * * * * * * * * * * * * * //

dimensions      [1 -3 -1 0 0 0 0];

internalField   nonuniform List<scalar> 
512
(
0
0
1.65337
0
0
0
0
0
0
0
0
0
0
0
0
0
0
0
0
0
0
0
0
0
0
0
0
0
0
0
0
0
0
0
0
0
0
0
0
0
0
0
0
0
0
2.88075
0
0
0
0
0
0
0
0
0
0
0
0
0
0
0
0
0
0
0
0
0.128136
0
0
1.23255
0
0
0
0
0
0
0
0
0
0
0
2.91269
0
0
0
0
0
0
0
0
0
0
0
0
0
0
0
0
0
0
0
0
0
0
0
1.257
0
0
0
0
0
0
0
0
0
0
0
0
0
0
0
1.25518
0
0
0
3.53759
0
0
0
0
0
0
2.85874
0
0
0
0
0
0
0
0
0
0
0
0
0.760486
3.5761
0
0
0
2.40093
0
0
0
0
0
0
0
0
0
0
0
0.766981
0
0
0
2.35149
0
0.75876
0
0
0
0
0
0
0
0
0
0
0
0
0
0
0
2.91753
0
0
0
0
0
0
0
0
0
0
0
0
0
0
0
0
0
0
0
0
0
3.50892
0
0
0
0
0
0
0
0
0
0
0
0
0
0
0
0
0
0
0
0
0.733798
0
0
0
0
0
0
0
0
0
0
0
0
0
0
0
0
0
0
0
0
0
0
0
0
1.36879
0
0
0
0.667258
6.07607
1.42264
0.891554
0.897674
10.6012
6.02605
6.63375
4.91724
2.59366
7.12962
4.83782
2.66566
6.48872
3.60623
4.14467
5.67837
12.6439
0.819989
3.55657
4.40377
8.11825
11.069
0.0978344
4.90883
9.94273
3.56493
1.09511
7.34224
7.26363
0.190278
7.39971
3.97029
7.10674
3.19112
9.13826
4.98239
14.1733
15.0787
3.88867
11.1276
4.56279
0.879944
4.62664
7.38585
5.00558
4.11712
5.38346
10.7008
10.8438
9.54774
13.9692
4.10503
7.87094
9.98724
11.1935
10.5171
7.77925
0.549262
9.80482
11.9115
2.16055
7.78664
7.14098
8.50466
21.3834
8.15993
3.80154
7.44333
9.0891
10.6558
5.10192
1.57229
15.4871
4.20668
7.9419
5.3923
7.86077
7.70666
10.3677
3.75373
4.69611
2.18105
3.62123
5.32822
8.98532
6.83815
6.95188
5.1525
10.3665
14.1705
10.5943
0.0545034
0.0716034
20.7012
0.776183
1.55642
3.7622
4.22902
7.38262
7.5659
12.072
6.94685
9.22131
6.40317
6.18127
0.365166
14.6629
4.02215
0.532803
6.62015
11.6797
3.99187
8.77447
7.80529
16.9008
5.1736
13.5831
5.65483
0.570389
5.81097
10.6634
5.39968
10.5082
6.20462
7.84183
8.94243
3.51016
3.29645
10.3687
7.56302
7.50463
4.47109
7.33372
13.2221
11.4401
10.3339
9.16795
21.3212
9.15912
3.7111
7.4054
9.03816
8.08312
1.36275
8.93705
7.45813
11.0116
10.4218
11.5402
11.4752
7.56231
10.3143
5.78656
9.61199
10.0613
1.32114
7.75925
0.919603
13.2941
8.75285
4.82823
8.39791
4.2218
7.41171
9.67526
10.0999
6.75325
5.183
7.60563
2.74377
0.222878
11.5143
11.3294
8.50916
16.8032
7.43893
0.476283
7.66951
12.1395
0.362706
0
2.00996
3.82257
4.58278
0.775493
0
3.58464
11.5576
0.965811
10.0468
15.2292
3.86885
7.77771
13.2036
11.3206
7.73596
4.5479
7.55414
7.33961
5.23676
10.9642
8.19496
4.119
1.42746
7.41879
11.8866
10.2246
11.65
11.4492
3.30265
4.4627
0.232615
8.57157
15.1564
9.61595
5.18055
18.3395
7.73985
1.67196
0
8.14982
2.68896
5.86064
0.0904004
0.584048
5.72945
6.77278
2.14845
4.74388
6.93277
1.54563
2.45277
12.6292
0.327494
2.81662
6.34148
2.30403
5.70154
3.07126
2.91419
2.58416
0.142946
7.35365
8.54265
3.36323
6.06907
7.72403
5.76833
5.02476
4.03836
12.4613
4.3963
4.89561
14.508
0.288988
)
;

boundaryField
{
    wall
    {
        type            zeroGradient;
    }
    outlet
    {
        type            cyclic;
    }
    inlet
    {
        type            cyclic;
    }
    procBoundary3to2
    {
        type            processor;
        value           uniform 0;
    }
}


// ************************************************************************* //
