/*--------------------------------*- C++ -*----------------------------------*\
| =========                 |                                                 |
| \\      /  F ield         | OpenFOAM: The Open Source CFD Toolbox           |
|  \\    /   O peration     | Version:  2506                                  |
|   \\  /    A nd           | Website:  www.openfoam.com                      |
|    \\/     M anipulation  |                                                 |
\*---------------------------------------------------------------------------*/
FoamFile
{
    version     2.0;
    format      ascii;
    arch        "LSB;label=32;scalar=64";
    class       surfaceScalarField;
    location    "0.005";
    object      phi;
}
// * * * * * * * * * * * * * * * * * * * * * * * * * * * * * * * * * * * * * //

dimensions      [0 3 -1 0 0 0 0];

oriented        oriented;

internalField   nonuniform List<scalar> 
1200
(
0.00153061
4.06755e-06
1.08599e-05
0.0015125
9.43427e-06
9.59095e-06
0.00152645
-5.08403e-06
1.46716e-06
0.0015526
-5.00473e-06
-1.81914e-05
0.00153233
-4.05026e-07
-1.45405e-05
0.00153459
-1.63115e-05
-9.88581e-06
0.00154651
-9.04389e-06
4.93759e-07
0.00153791
3.26988e-06
1.36217e-05
0.00151625
9.50443e-06
1.05116e-05
0.00150756
6.01975e-06
-6.07748e-06
0.00149335
1.36402e-05
1.08014e-06
0.00148228
8.64469e-06
8.80513e-06
0.00147853
3.71564e-07
3.04126e-07
0.00148454
-1.81974e-06
-1.23613e-05
0.00149711
-2.4053e-06
-4.034e-06
0.00150108
-5.2947e-06
1.24008e-05
0.00150812
-5.65686e-06
5.25805e-06
0.00152252
-1.21625e-05
-1.1827e-05
0.00154353
-1.41069e-05
-1.48607e-05
0.00155423
-4.43046e-06
-8.32604e-06
0.00153484
4.8611e-06
2.12855e-05
0.0015205
6.3715e-06
6.54734e-06
0.00151198
6.9036e-07
4.46591e-07
0.0014982
4.90237e-06
8.09274e-06
0.0014824
6.74033e-06
1.51545e-05
0.00147954
4.38211e-06
7.79062e-06
0.00148923
-1.85138e-06
-9.67696e-07
0.00149971
-7.65124e-06
2.37775e-06
0.00150924
-6.95934e-06
3.52135e-06
0.00152113
2.3719e-06
-5.39163e-06
0.00153604
2.6403e-06
-1.41601e-05
-3.73929e-06
-5.38104e-06
0.00151893
1.56611e-05
8.94857e-06
0.00151498
1.05983e-05
5.84982e-06
0.00153563
-1.37946e-05
-7.30051e-06
0.00155616
-1.6515e-05
-2.05261e-05
0.00154051
3.13279e-06
-1.14069e-05
0.00149006
4.15018e-06
1.04888e-05
0.00148623
-1.05098e-05
1.04348e-06
0.00151562
-7.65076e-06
-8.53846e-06
0.00152095
7.54912e-06
-1.62483e-06
0.00150939
8.86399e-06
6.42987e-06
0.00152018
5.02602e-06
8.21461e-06
0.00152523
2.73648e-06
1.16434e-05
0.0015056
9.0034e-06
1.23168e-05
0.00148962
6.66429e-06
-3.59005e-06
0.00150869
-1.02473e-05
-1.21216e-05
0.00153254
-1.66935e-05
6.51676e-07
0.00154126
-9.85047e-06
2.30512e-06
0.00154241
-8.42893e-06
-1.4393e-05
0.00153866
-5.96736e-06
-9.02537e-06
0.00154229
-5.15104e-06
-8.87728e-07
0.00153876
-1.47512e-06
1.34548e-05
0.00154057
3.30009e-06
1.19731e-05
0.00152216
1.43798e-05
-6.26969e-07
0.00150153
1.88392e-05
-4.19736e-06
0.00149768
4.81321e-06
-6.11967e-07
0.00151738
-6.40893e-06
-7.12757e-06
0.00153091
-1.03874e-05
-9.58421e-06
0.00151439
3.02296e-06
1.23549e-05
0.00149843
5.63074e-06
1.78243e-05
0.00150523
-6.71823e-07
-3.96415e-06
0.00153102
-9.2057e-06
-1.07829e-05
-1.72647e-06
2.0834e-06
0.00155455
-4.30436e-06
-6.2073e-06
0.00157929
-5.72933e-06
-1.60629e-05
0.00156688
6.91182e-07
2.1137e-06
0.00155641
-5.45588e-06
4.67259e-06
0.00157072
-9.28251e-06
-8.44213e-06
0.00155873
2.55302e-06
-1.98432e-05
0.00153729
1.52014e-05
-5.85257e-06
0.00152691
9.51131e-06
6.49032e-06
0.00152948
2.6857e-06
-8.98012e-06
0.00154872
-1.23029e-05
-1.46215e-05
0.00156824
-1.83688e-06
-1.04458e-06
0.0015476
1.19016e-05
1.75936e-05
0.00152691
1.36829e-05
9.74918e-06
0.00153427
-5.1779e-07
-5.12766e-06
0.00153769
-1.33402e-05
-3.96772e-06
0.00151896
-9.53114e-06
1.16094e-05
0.00149108
3.72742e-06
4.75454e-06
0.00147734
-1.03401e-06
-6.19891e-06
0.00148947
-1.25573e-05
-5.85405e-06
0.00151479
-1.47674e-05
3.15405e-08
0.00152166
-4.21143e-06
5.28953e-06
0.00150656
1.14605e-05
1.357e-05
0.00151478
1.32827e-05
5.8098e-06
0.00153313
3.95857e-06
9.43278e-06
0.00153313
3.36911e-06
1.16905e-05
0.00152109
2.96239e-06
-1.23835e-05
0.00150754
-6.73013e-06
-1.22908e-05
0.00151149
-3.447e-06
1.9668e-06
0.00151276
5.34288e-06
1.13332e-05
0.00151485
3.31246e-06
-1.01411e-06
0.00152301
8.57135e-07
-5.74293e-06
1.84433e-07
1.3025e-06
0.00151245
-1.27583e-06
-1.4045e-05
0.00150749
-2.69245e-06
-3.26713e-06
0.00150359
-7.19263e-07
1.21453e-05
0.00149433
-5.16234e-06
1.71584e-05
0.00150463
-2.7859e-05
-4.7245e-06
0.00151179
-7.74445e-06
-3.39201e-05
0.00151544
1.1967e-05
-1.21519e-05
0.00152234
1.19277e-05
6.71143e-06
0.00152665
5.95353e-06
7.76236e-06
0.00152024
-8.85419e-06
1.47014e-05
0.00153197
-8.62621e-06
7.51612e-06
0.00153485
5.78955e-06
3.20892e-06
0.00151917
1.42172e-05
1.1323e-05
0.00151586
-2.24247e-06
1.19611e-06
0.00150732
-5.80908e-06
-1.46076e-06
0.00149574
-1.50796e-06
4.01899e-08
0.00151835
-1.78485e-06
-1.74997e-05
0.0015241
2.68797e-06
-1.18905e-05
0.00151365
3.02832e-06
-8.03901e-06
0.00151544
-6.89621e-06
-4.01746e-06
0.00151485
5.78936e-07
2.83647e-06
0.00150461
9.8872e-06
1.42204e-05
0.00151826
8.96999e-07
5.50067e-06
0.00155764
-1.86192e-05
-1.39394e-06
0.00156407
-2.28629e-08
-2.27718e-06
0.00154705
1.10352e-05
-6.23161e-06
0.00153941
-2.09637e-06
-1.24811e-05
0.00153508
4.38578e-07
-2.1139e-06
0.00152828
6.07374e-06
1.23066e-05
0.0014987
1.16491e-05
2.65926e-05
0.00149039
3.41645e-06
8.64593e-06
-4.63713e-06
-5.27099e-06
0.00151783
7.00339e-06
-3.77714e-07
0.00151389
4.73665e-06
-2.49869e-06
0.00152043
-7.86105e-07
-4.41246e-06
0.00153776
-1.32218e-05
7.13995e-07
0.00152046
-1.60897e-05
2.91605e-06
0.00151131
-1.04244e-05
-1.72592e-06
0.00152668
3.18107e-06
-1.08655e-05
0.00151738
1.55309e-05
-4.53669e-06
0.00151236
1.65425e-05
-3.49647e-06
0.00149453
8.22052e-06
1.14397e-05
0.00150349
-4.63009e-06
9.2836e-06
0.00151712
-7.87613e-07
3.51164e-06
0.00152371
7.30355e-06
-5.18237e-06
0.00151886
-6.26479e-06
-7.44546e-06
0.00152013
-8.49531e-06
-3.73115e-06
0.00152176
-3.09923e-06
3.45724e-07
0.00152959
-5.03901e-06
-7.99099e-07
0.0015321
-4.99034e-06
-1.80375e-06
0.0015226
1.10798e-06
4.60533e-07
0.00150742
6.41355e-06
-1.31208e-07
0.00150566
8.08824e-06
-1.43034e-06
0.00151567
-2.56411e-06
-3.81579e-07
0.00152724
-8.80461e-06
-7.85765e-06
0.00153501
-1.88989e-05
-6.84611e-06
0.00154702
-1.01921e-05
1.59764e-06
0.00155387
1.28096e-06
-2.00586e-06
0.00154171
4.90923e-06
-4.32593e-08
0.00152667
5.48696e-06
5.29042e-06
0.00153271
4.81526e-06
4.89831e-06
0.00154862
4.64502e-06
-1.99219e-06
0.00154199
1.06662e-05
-1.11752e-06
8.47539e-06
-1.48513e-06
0.00151778
6.80282e-06
-1.4921e-06
0.00149424
8.9189e-06
7.54972e-07
0.00149406
-2.07114e-06
1.06888e-06
0.0015278
-2.80501e-05
1.3644e-05
0.00154389
-9.57555e-06
-1.01292e-05
0.00153782
-6.03404e-07
-2.4425e-05
0.00153441
-9.77646e-06
-3.73568e-06
0.00153487
2.6307e-06
-5.02603e-06
0.00154664
1.6078e-05
-1.38073e-06
0.0015409
2.32944e-05
1.31063e-05
0.00152214
1.14942e-05
1.10614e-05
0.00152059
3.48852e-06
-5.51196e-06
0.00152144
4.62016e-06
-5.70023e-06
0.00151474
-2.74613e-06
1.17387e-05
0.001525
-1.70969e-05
7.63295e-06
0.00154069
-1.20045e-05
-6.92698e-06
0.00154563
-9.13589e-06
8.41859e-07
0.00154032
3.8108e-06
5.39949e-06
0.00153337
7.98453e-06
3.43584e-06
0.00153396
6.62321e-06
-4.24757e-06
0.00154553
-2.61034e-06
-1.63633e-06
0.00155683
-8.92797e-06
-6.31905e-06
0.00155483
-7.04996e-06
-2.61616e-06
0.00155238
-2.31883e-05
2.59996e-06
0.00153135
-5.92844e-06
9.40131e-06
0.00151732
9.0307e-06
7.40378e-06
0.00151047
1.76471e-05
-2.57892e-06
0.00150103
1.73067e-05
-1.08804e-05
0.00149601
4.04309e-06
-6.38548e-06
0.00150759
-1.12045e-06
-2.61534e-06
0.00151996
1.79209e-07
7.79639e-06
5.7117e-07
8.80771e-06
0.00151577
8.75717e-06
6.24898e-06
0.001513
7.45421e-06
-4.41192e-06
0.00152169
-1.09102e-05
-6.55563e-06
0.00151032
-7.28036e-06
9.28083e-06
0.00153235
-1.52078e-05
7.72443e-06
0.00156535
-1.37864e-05
-9.8632e-06
0.00154125
2.08797e-06
-1.83092e-06
0.00152388
7.29361e-06
-1.08186e-05
0.0015434
1.00861e-05
-1.33011e-05
0.00154634
2.16742e-05
1.43849e-05
0.00153728
1.09929e-05
1.75336e-05
0.0015288
7.7981e-06
7.19064e-06
0.00152958
8.60862e-06
-3.2156e-06
0.00152269
2.45629e-06
-2.57932e-06
0.0014983
-5.71649e-06
6.30848e-06
0.00150026
-1.93678e-05
4.90211e-06
0.00151267
-1.58814e-05
-1.17868e-05
0.00152305
1.82025e-06
-1.46681e-05
0.00153027
9.20143e-06
3.31665e-07
0.00155056
-4.67402e-06
3.72783e-06
0.00154878
-4.82132e-06
3.82893e-06
0.0015319
5.43502e-06
6.4057e-06
0.00153254
-3.87031e-06
4.02768e-07
0.00151709
-1.02717e-05
2.54967e-06
0.00150687
2.81213e-06
-2.00393e-06
0.00151531
6.73992e-06
-6.304e-06
0.0015222
4.97508e-06
5.46957e-06
0.0015354
2.88284e-06
9.39103e-06
0.00153849
2.63358e-06
-5.60371e-06
0.00154085
6.41437e-06
-1.383e-05
0.00154277
-8.77744e-07
-2.94423e-06
1.14779e-06
1.41279e-05
0.0015143
7.56045e-06
0.00150789
-5.40194e-06
0.0014937
-2.28726e-06
0.00149855
-3.82153e-06
0.00149375
-7.60028e-06
0.0014808
-2.8221e-06
0.00148524
-5.76993e-06
0.001498
-3.58994e-06
0.00150732
6.66448e-06
0.00152199
1.43336e-05
0.00152376
1.54578e-05
0.00154167
2.39004e-06
0.0015577
-5.84812e-06
0.00154444
9.15348e-06
0.00152869
1.28239e-05
0.00150404
6.69471e-06
0.0014887
-1.4907e-05
0.00149643
-1.92965e-05
0.00151967
6.63909e-06
0.00150761
1.41263e-05
0.00150257
6.06121e-07
0.00151069
-7.21835e-06
0.00150796
1.26577e-08
0.00149313
4.13411e-06
0.00149326
-1.75921e-06
0.00150405
-3.71846e-06
0.0015079
-2.30394e-06
0.00150485
5.36417e-06
0.00151065
2.56279e-06
0.00152397
-6.17279e-06
0.0015224
-7.88377e-06
6.34308e-06
0.00146519
-5.20486e-06
0.00147547
-7.1882e-07
0.00147937
-2.44015e-06
0.00145252
8.65321e-06
0.00142035
1.76275e-05
0.00141082
-4.15382e-07
0.00143423
-2.29475e-05
0.00145412
-6.28227e-06
0.0014658
-1.19234e-06
0.00144909
1.06135e-05
0.00144478
5.32501e-06
0.00145334
2.20521e-07
0.00145206
1.57715e-06
0.00143627
3.39415e-06
0.00144025
-8.00628e-06
0.00145986
-7.22939e-06
0.00147044
-5.31197e-06
0.00145893
-4.3356e-07
0.00143893
5.13051e-06
0.0014214
9.20485e-06
0.00144001
2.67715e-06
0.0014484
-1.89209e-06
0.00144296
5.90222e-06
0.00144408
6.97681e-06
0.00145298
6.22839e-06
0.00146966
-8.89554e-06
0.00148157
-1.28967e-05
0.00149187
-7.94248e-06
0.00148913
6.22203e-06
0.0014683
1.54131e-05
0.00144505
9.08848e-06
-9.54557e-06
0.00144039
-3.78385e-06
0.00146061
-1.51287e-05
0.00145633
-5.47149e-06
0.00143702
7.37632e-06
0.00143562
7.58939e-06
0.00145003
-4.41913e-06
0.00143516
-7.0931e-06
0.00141846
1.88341e-06
0.00141063
4.89967e-06
0.0014266
1.05866e-06
0.00145038
-1.02331e-05
0.00147342
-1.12147e-05
0.00148392
3.40055e-06
0.0014769
6.7833e-06
0.00145767
-9.24739e-07
0.00146309
-1.20111e-05
0.00146284
-2.7429e-06
0.0014416
6.37661e-06
0.00143208
5.58499e-06
0.0014404
-6.19373e-08
0.00146025
-3.7103e-06
0.00146683
3.42552e-06
0.00144871
2.33687e-05
0.00143594
1.5515e-05
0.0014374
4.16422e-06
0.00145907
-3.76841e-05
0.00145542
-1.88241e-05
0.00145536
4.37564e-06
0.00147375
5.5763e-06
0.00147729
7.88027e-06
0.00145799
1.76052e-05
1.76514e-05
0.00150407
-5.94218e-07
0.00146553
7.24289e-06
0.00146155
5.99104e-07
0.00148139
-7.79101e-06
0.00149195
-1.13461e-05
0.00147207
-4.36192e-06
0.00144705
1.20275e-05
0.00145651
-1.09105e-06
0.00145486
-2.4474e-06
0.00144016
1.04995e-06
0.00143049
-1.61186e-06
0.00143509
1.79801e-06
0.00143759
1.06232e-05
0.00143681
2.4331e-06
0.00143515
-3.22533e-06
0.00143947
-4.7389e-06
0.00144367
-2.17251e-06
0.00144654
-2.69723e-06
0.00144966
-3.39985e-06
0.00145447
-4.8415e-06
0.0014579
-1.88098e-06
0.00146622
8.6772e-06
0.00149127
4.07093e-06
0.00152898
-1.27965e-05
0.00154506
-2.5904e-07
0.00149184
3.13461e-06
0.00145817
2.48496e-06
0.00146935
-4.91212e-06
0.00148509
1.1624e-06
0.00148677
5.18644e-06
0.00149143
7.13458e-06
-3.19558e-06
0.00145597
-4.99783e-06
0.00146247
-2.49414e-06
0.0014745
6.98677e-07
0.00149583
-1.19386e-05
0.00148885
-9.09367e-06
0.00144861
1.8734e-06
0.00145333
-4.8965e-06
0.00146888
-9.95352e-06
0.00146354
1.06295e-05
0.00146957
9.71948e-06
0.00146406
1.14194e-05
0.00146425
4.81426e-06
0.00149077
-4.56802e-06
0.0014933
1.09183e-06
0.00148098
7.60964e-06
0.00147825
-2.00743e-06
0.00146345
-4.87143e-06
0.00144456
4.31383e-06
0.00143273
3.69609e-07
0.0014279
-4.05642e-06
0.00143454
-5.70051e-06
0.00146286
-5.51726e-06
0.00148296
-1.05618e-05
0.00147862
-9.85905e-06
0.00147405
1.97532e-06
0.0014554
1.55583e-05
0.00142757
1.77998e-05
0.00141831
2.19908e-06
0.00143475
-3.0076e-06
0.00146829
-1.77681e-06
0.00147488
9.11791e-06
7.46445e-07
0.00144398
6.64769e-06
0.00141856
2.04064e-05
0.00141131
3.49315e-06
0.00141765
-1.75845e-05
0.00144855
-3.70856e-05
0.00146208
-1.34211e-05
0.00143904
7.21993e-06
0.00141453
1.00178e-05
0.00140686
1.47799e-05
0.00142879
-7.86998e-07
0.0014526
-3.15885e-06
0.00145799
2.88534e-06
0.0014419
6.29768e-06
0.00143809
-2.50234e-06
0.00144882
-6.87254e-06
0.00145016
-3.07441e-06
0.00144986
-5.38119e-06
0.00145
2.3533e-06
0.0014496
1.22011e-06
0.00143844
6.93203e-06
0.00143483
-3.54464e-06
0.00143881
-9.89791e-06
0.00142813
-7.6711e-06
0.00141678
-5.35693e-06
0.00142566
-5.39668e-06
0.001427
1.21962e-05
0.00143174
1.29759e-05
0.00143731
1.9331e-06
0.0014397
-5.08889e-07
0.00143855
-2.68754e-06
0.00145393
-7.40237e-06
-2.84094e-06
0.00145669
1.48304e-05
0.00146904
8.81551e-06
0.00148693
-1.33348e-05
0.00149783
-1.48816e-05
0.00146467
-1.40367e-05
0.00143163
-4.82411e-06
0.00143573
-7.52044e-07
0.0014407
-3.03965e-08
0.00145138
2.71284e-06
0.00145537
8.33214e-06
0.00145125
1.20225e-05
0.00145215
-3.53079e-06
0.00146011
-7.39323e-06
0.00147219
-2.82682e-06
0.00147392
-1.02553e-06
0.00147036
-6.41965e-06
0.00147688
-1.10696e-05
0.00148584
-1.20009e-06
0.00147677
1.3758e-05
0.0014725
6.85785e-06
0.00147237
-5.05475e-06
0.00146302
-6.8696e-06
0.00146327
-1.05523e-05
0.00147565
-1.51758e-05
0.00149194
-1.22991e-05
0.00151387
-2.34314e-06
0.00151378
1.04912e-05
0.00149428
1.05225e-05
0.0014769
1.04399e-05
0.00147436
-2.76468e-06
0.00147461
7.79787e-08
1.42254e-05
0.00149116
1.50624e-05
0.00148164
1.39692e-05
0.00147731
-1.56619e-05
0.0015015
-2.97941e-05
0.00149816
-2.96851e-06
0.00147409
9.38485e-06
0.00146426
7.14332e-06
0.00144926
4.12319e-06
0.00143346
5.13521e-06
0.00145798
-1.80692e-06
0.00148582
1.71808e-06
0.00148114
8.33175e-06
0.00147287
-2.34563e-06
0.00147181
-4.31886e-06
0.00147644
6.04579e-07
0.0014807
-5.79357e-06
0.00147327
-1.5409e-05
0.00146775
-1.04297e-05
0.00146933
1.25021e-05
0.00147608
3.79478e-06
0.0014801
-5.23939e-06
0.00148315
-3.51682e-06
0.00146937
3.65573e-06
0.00145775
-1.07349e-06
0.00144702
-3.60729e-06
0.00145238
-1.4083e-05
0.00146993
-1.70113e-06
0.0014854
4.43218e-06
0.00147566
1.4579e-05
0.0014416
1.74244e-05
0.00144868
-9.95392e-06
-8.13651e-06
0.00147054
0.0014791
0.00146111
0.00142745
0.00141688
0.00142342
0.00142481
0.00142534
0.00143714
0.00144961
0.00146679
0.00147749
0.0014693
0.00147411
0.00148755
0.00148844
0.00145808
0.00142834
0.00144748
0.0014654
0.00146076
0.00145001
0.00145366
0.00145674
0.00145128
0.00143348
0.00142947
0.00143926
0.00145634
0.0014676
0.0014497
)
;

boundaryField
{
    wall
    {
        type            calculated;
        value           nonuniform List<scalar> 
384
(
7.13251e-09
-8.15124e-09
1.16362e-07
1.69351e-08
1.48146e-08
1.67569e-08
1.1184e-08
-3.6019e-16
2.84807e-08
3.77091e-08
1.06913e-07
-2.77915e-08
1.25437e-08
-3.76562e-09
-4.36996e-08
5.59385e-09
6.71937e-09
7.82493e-09
2.12034e-08
1.0497e-08
4.85178e-08
4.28087e-09
9.64821e-08
2.25043e-08
1.08536e-08
6.77965e-08
-4.19424e-09
-1.99527e-08
2.39845e-08
3.72601e-08
5.10736e-09
5.01525e-08
-4.3188e-10
2.60574e-08
-6.64477e-08
7.53826e-09
3.98819e-09
-1.38665e-08
3.27106e-09
-1.31147e-09
6.16912e-08
8.57458e-08
-1.40585e-08
7.7215e-08
3.48968e-08
1.65264e-08
-1.9404e-09
1.80267e-08
2.6306e-08
5.75976e-08
4.68387e-08
5.52566e-08
6.20811e-08
1.31836e-07
1.03658e-07
-1.24639e-08
9.51789e-09
-7.71331e-09
4.91018e-09
2.42174e-08
3.38978e-09
5.17213e-08
2.37458e-08
8.99708e-12
2.11537e-08
1.19588e-07
1.7055e-08
2.45024e-08
1.74787e-08
1.08199e-08
7.2117e-08
4.13141e-09
2.20679e-08
7.98233e-09
8.57028e-08
4.61689e-10
2.42661e-08
-1.27904e-09
1.20723e-08
2.95495e-08
6.35828e-08
-9.239e-10
-3.09613e-09
5.58687e-10
4.71688e-08
-4.01208e-09
-9.02312e-09
-5.26776e-10
1.84862e-08
3.17473e-08
-1.24678e-08
2.59267e-09
5.09354e-08
2.53457e-09
1.20925e-08
1.83037e-08
6.4786e-09
1.02964e-10
2.15819e-08
-7.17421e-09
3.65068e-08
3.93996e-08
4.9385e-09
9.05819e-10
3.52652e-08
3.59528e-08
5.12957e-10
9.6822e-09
-4.08424e-08
-1.69555e-08
-2.2526e-08
1.05813e-08
-3.62815e-09
2.74417e-08
-1.11327e-09
2.44922e-08
3.01721e-08
5.11252e-08
4.49422e-08
-1.06306e-08
1.74827e-08
9.73516e-09
1.91201e-08
3.40385e-08
7.2579e-08
-2.5419e-08
1.90267e-08
1.3245e-08
-5.95979e-09
-5.06461e-09
-2.31781e-08
-2.05897e-09
1.61923e-09
1.09213e-08
-1.70655e-08
4.1324e-08
1.14768e-07
3.30024e-08
9.46745e-09
-9.34816e-09
2.30534e-08
8.46144e-10
7.43262e-08
1.73481e-08
5.57045e-09
3.94358e-08
1.4804e-08
1.93255e-08
6.11674e-09
-3.19388e-08
8.27948e-09
3.31352e-09
1.7163e-09
5.42449e-08
-1.5226e-09
3.32126e-08
4.43587e-08
9.55016e-08
4.04016e-08
-2.5121e-08
-5.27766e-09
1.12712e-09
2.47658e-08
6.31685e-09
2.19327e-08
3.60943e-09
-1.85365e-10
4.8551e-09
5.19566e-08
6.8244e-08
-1.10592e-09
1.00081e-07
2.1351e-08
0
-3.53701e-09
5.17312e-09
-1.64733e-08
3.46111e-08
5.59991e-08
3.07321e-08
-6.59506e-08
1.8622e-08
-1.71771e-08
1.4979e-08
2.10719e-15
3.46669e-08
3.77408e-08
1.14857e-08
1.41673e-09
3.35172e-08
5.81532e-08
-1.8128e-08
2.69357e-08
-1.59995e-08
3.39279e-08
6.07025e-08
8.45091e-08
1.73338e-08
3.45861e-08
8.53276e-08
1.23839e-09
-9.81861e-09
2.07959e-08
-1.10324e-08
1.56776e-08
8.33158e-09
8.43046e-08
7.35822e-09
1.28591e-08
-3.08213e-10
7.05183e-08
3.32289e-08
3.73831e-08
0
1.02868e-07
2.50455e-09
1.66967e-08
9.25988e-08
7.42543e-08
4.13547e-08
-1.04751e-08
2.41226e-08
1.25429e-08
7.09733e-09
4.63992e-08
7.84295e-08
6.87183e-12
3.8335e-08
1.18362e-08
4.56169e-08
0
6.48123e-08
2.71189e-08
2.84662e-08
3.30206e-10
1.09522e-08
7.23471e-08
1.38058e-09
3.87282e-08
-1.30812e-08
5.75714e-10
2.65331e-09
7.33732e-08
6.90816e-08
1.60363e-08
7.42323e-08
1.30723e-08
1.62434e-08
7.86447e-08
2.59303e-08
-2.81555e-09
4.15863e-08
1.98277e-08
-3.00024e-08
1.18414e-08
-9.62374e-10
0
1.12552e-12
0
6.75412e-11
8.36839e-13
1.71604e-10
0
2.64163e-10
0
-1.3216e-12
0
1.03928e-10
0
-1.77393e-09
0
1.08492e-08
0
5.28743e-10
0
-4.74835e-11
0
-2.22243e-11
0
-3.03482e-11
0
-2.92835e-11
0
-5.79881e-11
0
8.90257e-11
0
7.99654e-11
0
-1.67062e-10
0
-6.05209e-11
0
-3.42944e-12
0
-1.17271e-11
0
-7.44806e-11
0
-2.31105e-10
0
-2.9591e-10
0
-2.36513e-13
0
8.68799e-11
0
4.71448e-10
0
8.41246e-09
0
-3.0215e-11
0
-1.7961e-10
0
-2.19332e-13
0
-1.10652e-12
0
-6.6005e-10
0
-8.23334e-10
0
-1.19118e-10
0
1.30059e-08
-7.72845e-11
-4.53269e-10
0
-6.79057e-11
0
-5.45986e-11
0
-1.63098e-11
0
-8.55276e-10
0
-2.39853e-09
0
2.77543e-08
0
2.38354e-12
0
1.06628e-10
0
2.41652e-10
0
6.0424e-09
0
-8.09461e-11
0
-2.18148e-10
0
-1.06905e-10
0
1.44656e-12
0
1.65206e-13
0
2.59043e-08
0
-1.33802e-10
0
1.38216e-08
0
3.71616e-11
0
3.22622e-09
0
-1.06694e-10
0
-3.83734e-09
0
4.3334e-10
0
-3.33634e-10
2.3669e-11
3.0778e-10
0
6.76237e-11
0
4.41966e-08
0
-1.35708e-10
)
;
    }
    outlet
    {
        type            cyclic;
        value           nonuniform List<scalar> 
16
(
0.00154474
0.00153638
0.00153188
0.00150384
0.00152488
0.00152656
0.00153005
0.0015171
0.00144913
0.00143285
0.00151358
0.00146563
0.00145601
0.00146638
0.00148516
0.00144791
)
;
    }
    inlet
    {
        type            cyclic;
        value           nonuniform List<scalar> 
16
(
-0.00154474
-0.00153638
-0.00153188
-0.00150384
-0.00152488
-0.00152656
-0.00153005
-0.0015171
-0.00144913
-0.00143285
-0.00151358
-0.00146563
-0.00145601
-0.00146638
-0.00148516
-0.00144791
)
;
    }
    procBoundary3to2
    {
        type            processor;
        value           nonuniform List<scalar> 
256
(
-7.95967e-07
-9.08185e-07
-1.03339e-05
-2.95437e-06
3.52071e-05
2.39419e-05
-3.37368e-06
-8.28521e-06
1.6458e-06
8.74843e-06
-5.14484e-07
-6.37602e-06
3.07264e-06
8.16335e-06
-6.12479e-06
-1.10758e-05
-6.63836e-06
9.58519e-06
7.95895e-06
2.05044e-06
-6.74794e-06
1.4203e-06
7.38007e-06
7.8793e-07
-6.094e-06
-9.31405e-06
-6.87355e-06
-5.20215e-06
-6.09431e-06
-8.87214e-06
-3.39116e-06
4.17538e-07
-3.09298e-06
-3.06363e-06
-4.63585e-06
1.15037e-05
2.35146e-05
1.95048e-05
4.25222e-06
-9.93406e-06
-1.7467e-06
2.28415e-06
-1.03878e-05
-1.0789e-05
-1.31579e-06
1.10889e-05
8.94148e-07
-1.31085e-05
-6.83339e-06
9.51326e-06
4.63505e-06
-2.01825e-06
-3.59524e-06
-1.07052e-05
5.34518e-06
1.08882e-05
6.39344e-06
-1.78049e-06
4.58762e-06
-6.51406e-06
-1.44485e-05
2.0998e-07
-3.16391e-06
-9.45682e-06
3.50322e-06
7.64777e-06
-4.19119e-06
-5.26349e-06
6.54809e-06
3.34326e-05
1.58339e-06
-1.32698e-05
1.12664e-05
1.65532e-05
-1.16147e-05
-6.11602e-06
6.26026e-06
4.94444e-06
3.64031e-06
-3.69485e-08
9.54369e-06
1.25454e-05
3.15137e-07
-1.57369e-05
-9.42277e-06
-6.62914e-06
-1.2928e-05
-1.291e-05
-1.02432e-05
1.50506e-05
2.21876e-05
5.51638e-07
-1.2312e-05
-5.06031e-06
-1.24855e-05
-1.20787e-05
2.40974e-06
5.18287e-06
-6.83127e-06
-8.1919e-06
1.29959e-05
3.70608e-05
1.17421e-05
-1.60289e-05
-1.53441e-05
-1.1743e-05
-1.24523e-05
2.60746e-08
3.81599e-06
3.8443e-06
2.46485e-06
3.51527e-06
4.04808e-07
2.41561e-06
2.90455e-06
-5.63808e-06
-7.04059e-06
-2.41071e-06
-6.76494e-06
-1.54059e-05
-7.55726e-07
1.51748e-05
1.54871e-05
2.55739e-06
-6.23189e-06
-5.35499e-06
-2.89677e-06
-3.35318e-06
-8.51364e-07
-9.9045e-07
-2.06614e-06
-9.97919e-06
2.61407e-06
1.35568e-05
4.27835e-06
1.02351e-05
-2.07331e-06
-1.06829e-05
-2.22446e-05
-1.0567e-05
5.51166e-06
1.63186e-05
5.14074e-06
-3.76627e-07
-3.78073e-06
6.97385e-06
1.09568e-05
2.00429e-06
-4.3187e-06
2.82147e-06
5.98561e-06
-6.4115e-07
-3.43424e-06
4.90664e-06
5.19367e-06
4.70088e-06
-9.67755e-06
-6.91371e-06
4.9689e-07
5.48903e-06
1.04724e-05
1.85984e-05
3.97494e-07
-3.25555e-05
-1.24702e-05
2.06671e-05
2.01006e-05
1.74721e-05
-9.92547e-06
-2.2438e-05
-8.42671e-06
2.7829e-06
7.53871e-06
-8.55842e-06
-9.29406e-06
1.45402e-07
-1.68659e-06
-8.89202e-06
-3.36187e-06
3.45195e-06
7.55358e-07
1.38641e-06
2.86314e-06
4.14237e-06
7.36653e-06
-1.12929e-06
-3.30813e-06
8.50436e-06
1.21785e-05
-3.20829e-06
-9.67485e-06
-7.50042e-06
6.07802e-06
8.64345e-06
6.70103e-06
-1.86752e-05
-2.41283e-05
-9.95166e-06
1.40662e-05
2.3527e-05
-2.25719e-07
-1.57098e-05
-7.96527e-06
-3.02122e-06
-1.55514e-06
4.26579e-06
6.70112e-06
5.04611e-07
6.12029e-06
6.27482e-06
-8.76638e-06
-1.27167e-05
1.56051e-07
-3.88383e-06
-4.22846e-06
-9.53153e-09
3.47995e-06
1.53416e-07
3.11098e-07
-8.1617e-06
3.9197e-06
3.93685e-06
2.08603e-06
-1.98582e-06
4.00167e-06
1.92588e-05
5.57491e-06
-8.31086e-06
-2.81203e-06
1.98594e-06
3.4173e-06
-1.87699e-06
-5.89036e-06
-7.33731e-06
-6.23325e-06
-1.25032e-05
-1.56781e-06
6.56132e-06
-2.79448e-06
-1.40918e-06
1.4363e-05
1.33885e-05
-2.06798e-05
-6.74018e-06
-3.84786e-07
4.52974e-06
-1.14819e-06
4.26142e-07
4.43694e-06
-3.30447e-07
3.43338e-06
5.60592e-07
-5.72196e-06
-7.38045e-07
8.57656e-06
1.04413e-07
)
;
    }
}


// ************************************************************************* //
