FoamFile
{version 2.0; format ascii;class vectorField; location 0;object  v;}
2511
(
( 0.000144814 0.000410923 7.16792e-05 )  
( -0.00213436 0.00145614 0.012304 )  
( 0.000254768 -0.000144051 8.2974e-05 )  
( 0.00038928 9.69233e-05 0.0108788 )  
( 0.000467777 0.000506511 0.0103113 )  
( 0.00159236 -0.00033315 0.00731214 )  
( -7.51465e-05 4.82735e-06 2.40828e-05 )  
( -0.000984114 0.000316884 0.000540333 )  
( -0.000363189 -0.00102694 -9.70671e-05 )  
( 0.000252089 0.000500656 0.0080131 )  
( 0.000180711 -6.59524e-05 0.0084002 )  
( 0.000225834 -0.00163951 0.00860552 )  
( 0.000116521 0.000227393 0.00900948 )  
( 0.000358513 6.68091e-05 0.00896744 )  
( -0.000146181 0.000448449 0.00821819 )  
( -0.000266828 0.000349141 0.00824937 )  
( 0.000611415 0.000441058 0.00837637 )  
( 0.000624582 -0.000279335 0.00825695 )  
( 0.000146416 0.000806726 0.00866326 )  
( -2.38422e-05 0.000243007 0.00535361 )  
( 0.000521318 0.000603457 0.00793087 )  
( 0.000525717 4.2912e-07 0.00805296 )  
( 0.000552871 -0.00106893 0.00869384 )  
( -0.000851165 -0.000397822 0.00981075 )  
( 0.000455554 0.00044025 0.00656501 )  
( 0.000750684 -6.68443e-05 0.00762873 )  
( 1.82644e-05 -0.00071398 0.00765739 )  
( 0.000112584 -8.60144e-05 0.00945757 )  
( -6.98646e-05 5.42248e-06 0.00933998 )  
( 0.000969257 -0.00169436 0.0051064 )  
( 4.67158e-05 -0.000735928 0.00816917 )  
( 0.000673005 -7.42504e-05 0.00827902 )  
( 6.54967e-05 -0.000234586 0.0104347 )  
( 0.000171831 -0.000786564 0.00277088 )  
( -0.000139703 -0.000876386 0.00912687 )  
( -0.000870919 -0.00209922 0.00841107 )  
( -0.000908307 -0.000170092 -0.000410411 )  
( 0.00220532 -0.00106561 0.0103324 )  
( 0.000714285 -0.000444608 0.00855204 )  
( 0.00145586 -0.000464071 0.00481206 )  
( 0.00240053 0.000240452 0.00824709 )  
( -3.05626e-06 0.000660248 0.0100945 )  
( 0.000351274 -0.000232053 0.00706841 )  
( -0.00189947 -0.0028388 0.00873947 )  
( -0.000130462 0.000155194 -2.15462e-06 )  
( 0.000665324 0.000282474 -0.000436608 )  
( 0.00262942 -0.00253519 0.0143393 )  
( -0.00119072 -0.00107145 2.62584e-05 )  
( 0.00137383 -0.000680409 0.000266656 )  
( 0.001031 0.00238177 0.00817796 )  
( 4.03084e-05 -0.00168754 0.00744093 )  
( -0.000572307 0.000154201 0.00882977 )  
( -0.00134041 -0.00104217 0.00920998 )  
( 0.00359809 -0.000273219 0.00994043 )  
( -0.000673641 -0.00119949 0.00724322 )  
( 5.34081e-05 0.000137921 -1.99821e-05 )  
( 0.00109111 -0.00151917 0.00839166 )  
( 0.0033168 0.000640015 0.00630868 )  
( 0.000333064 -0.00083782 0.0117508 )  
( 0.00118657 -0.000349388 0.00553861 )  
( -7.99648e-05 0.000269653 0.000120858 )  
( -0.00108564 -0.00197848 0.00794266 )  
( 0.000295192 -0.000751585 0.00772163 )  
( -5.72279e-06 0.000148863 0.000173302 )  
( 0.000808814 0.000162002 0.00776321 )  
( 0.000393332 -0.000566653 0.0104876 )  
( 0.00037722 0.000400286 0.0110664 )  
( -0.00215669 -0.00147367 0.0100457 )  
( 0.000422937 -0.00136017 0.00869027 )  
( 0.000817478 -0.000552628 -0.00327327 )  
( 0.000178198 -0.0002363 0.00658326 )  
( 0.00125112 -0.00316399 0.00963174 )  
( -0.000645659 -9.4756e-05 -2.54113e-05 )  
( -0.000177465 6.21305e-05 0.00892858 )  
( -0.000310938 0.00048731 0.000241247 )  
( 0.0016524 -3.33199e-05 0.00993034 )  
( 0.000607622 -0.000147623 0.00910964 )  
( -0.00563821 -0.00129128 0.00557874 )  
( -0.000960789 -0.00110346 0.00938485 )  
( -0.00139313 -0.000945119 0.00972204 )  
( 0.00124808 -0.000729815 0.0133397 )  
( 0.00129716 -0.00235191 0.0130512 )  
( 0.000345632 -0.000657617 0.00823725 )  
( -0.000232378 -4.97193e-05 0.00514233 )  
( -0.000464554 0.000343382 0.000122152 )  
( 0.000575528 -0.00147562 0.00851826 )  
( 0.00296726 -0.000375558 0.00385264 )  
( 0.00108613 -5.15116e-05 0.00987882 )  
( -0.000438071 -0.000238018 0.00114878 )  
( -0.000822284 -0.00170066 0.00912006 )  
( -0.00135178 -0.000743079 0.0102278 )  
( 0.000332384 -0.000410659 0.00532488 )  
( 0.00026165 -0.000916671 0.000909307 )  
( 6.62792e-05 0.000234555 0.00668031 )  
( -0.00034648 0.000586419 0.00975587 )  
( -0.00274015 -0.00175377 0.00838258 )  
( 0.00221076 0.0011572 0.0096152 )  
( -2.76166e-05 -0.00362699 0.011415 )  
( 0.0048206 0.00130597 0.0105871 )  
( 0.00226627 -0.000170874 0.0093441 )  
( 0.00198112 7.09429e-05 4.11805e-05 )  
( 0.000465143 -0.00190657 0.00806909 )  
( 0.000553302 -0.00127455 0.00955304 )  
( 0.00176979 0.000583336 0.000761117 )  
( 2.05039e-05 -0.000995604 0.00974939 )  
( -0.000132417 -0.00102359 0.00926936 )  
( 0.000677508 -0.00065131 0.00744621 )  
( -0.00161162 -0.000349026 0.00980898 )  
( -0.000568206 -0.000394015 0.00903935 )  
( 0.00146605 -0.000953873 0.00692801 )  
( 0.000103273 -0.00207745 0.00869011 )  
( -0.0011533 -0.000307386 1.63462e-05 )  
( -0.00262843 -0.00351468 0.0028833 )  
( -0.000568926 -0.00298297 0.00732855 )  
( -0.000325771 0.00073896 0.00889067 )  
( 0.00238444 0.00203951 0.0146154 )  
( -0.000355695 -0.00199999 0.00187313 )  
( 0.00186033 -0.00109071 -0.00183204 )  
( -0.000522289 0.000702382 0.0107123 )  
( -0.00156638 -0.00315105 0.00538131 )  
( -0.00129524 -0.0001589 0.00569775 )  
( -0.000134755 6.69823e-06 1.52257e-05 )  
( -0.00153642 -0.00156068 0.00976645 )  
( 0.00144253 -0.000270395 0.00573106 )  
( -1.46519e-05 -0.000307879 4.73509e-05 )  
( 2.77612e-05 -0.000660807 0.00930902 )  
( -0.00186454 -0.000884184 -0.000145897 )  
( -0.000928432 -0.00117833 0.0109861 )  
( -3.1907e-05 6.27621e-05 0.000189604 )  
( 0.000148642 0.000164484 -5.55902e-06 )  
( -0.00182434 -0.000255083 0.00665434 )  
( -0.000192749 -0.00120139 0.00933135 )  
( -0.00230828 -0.000358501 0.00484494 )  
( 0.000304305 0.000176525 0.000206351 )  
( 0.000836977 -0.000390702 0.00993115 )  
( 0.00162957 -0.00428602 0.00402668 )  
( 0.00206664 -0.00111085 0.00376098 )  
( -0.0033251 -0.00577152 0.00139098 )  
( 0.000155074 0.000137258 0.000138323 )  
( -0.000490639 -0.00244376 0.00450383 )  
( -0.00112745 -0.000268269 0.000288459 )  
( 0.000461817 -0.00310153 0.00746034 )  
( -0.00155635 -0.000604418 0.00898277 )  
( -0.00049944 8.78254e-05 0.0071344 )  
( 0.000586303 0.00109621 -1.56658e-05 )  
( 0.00038384 -0.00286221 0.00770466 )  
( 0.000524642 -0.0022173 0.00154346 )  
( -0.000488098 -0.000827227 0.00777322 )  
( -1.15419e-05 -0.000424908 0.00625115 )  
( -0.00102683 -0.000300194 0.000218989 )  
( -0.000822492 -0.000326821 0.0099731 )  
( 0.000176638 0.000264806 -1.37182e-05 )  
( 0.00319367 -0.000933569 0.00850925 )  
( 0.000378599 -0.00388921 0.000943937 )  
( 0.000885695 -0.000959468 0.00811717 )  
( -2.85527e-05 0.000187025 -7.71212e-06 )  
( 0.000759073 -0.000564495 0.00155467 )  
( 6.53609e-05 0.00032533 -0.000521476 )  
( 0.0011642 3.7068e-05 0.00991758 )  
( 0.0015443 -0.000129767 0.0085375 )  
( -0.000906297 -0.00094939 -0.000105049 )  
( -0.000754785 -0.00266813 0.0075868 )  
( -2.98163e-05 0.00271818 0.0167916 )  
( 0.00319099 -0.00233051 0.00722193 )  
( -0.000218522 0.000176769 0.000323179 )  
( -0.000228132 -6.09781e-05 2.51522e-05 )  
( 4.89119e-05 0.000161007 2.77732e-05 )  
( -7.10868e-05 0.00053302 0.00924206 )  
( 0.00181864 0.000627376 0.00329905 )  
( 0.00261129 -0.00113075 0.00190675 )  
( 0.000153672 -0.00163468 0.00887837 )  
( -0.000739727 1.46842e-05 0.012549 )  
( -0.000329497 -0.000309489 -7.57266e-05 )  
( 0.000927705 -0.000411042 0.00853857 )  
( -0.00109351 -7.66672e-05 0.000333804 )  
( -0.000524458 -0.00107674 0.00805275 )  
( 0.0011722 -0.000209547 0.00927691 )  
( -0.000305023 0.000193832 -5.3878e-05 )  
( 4.28691e-05 0.000280133 7.48587e-06 )  
( 1.36591e-06 -0.000606433 0.00866297 )  
( -0.00103753 -0.000783343 0.00910411 )  
( -0.00095483 -0.00252631 0.0053159 )  
( 0.000510656 -0.000345278 0.0108579 )  
( -0.00117089 -0.000498279 0.0085363 )  
( 0.000370699 -0.000434289 0.000910442 )  
( -0.000556616 -0.00097364 0.00932551 )  
( 0.00131861 6.85185e-06 0.0107397 )  
( -0.00433374 -0.00237223 0.0149956 )  
( -0.000215395 0.000414449 0.00484359 )  
( -0.00117815 0.000429903 0.00926028 )  
( -0.000216337 0.000167309 -0.000303837 )  
( 0.00245508 -0.00160457 0.00957276 )  
( -0.00256548 0.00121632 0.0105004 )  
( -0.000150261 0.000217616 -0.000126279 )  
( -0.000643832 -0.00225055 0.00998913 )  
( 0.00167425 -0.00246056 0.00508667 )  
( -3.60742e-05 -0.00302733 0.00680582 )  
( -4.84594e-05 -0.00265056 -0.00147448 )  
( 0.000207102 -0.000637993 0.0102787 )  
( 0.000424699 0.000684728 0.0119541 )  
( 3.82811e-05 -0.000645925 -4.67569e-05 )  
( 0.000159471 0.000323813 -4.17348e-05 )  
( -0.000696204 -0.000461199 -0.000443048 )  
( -0.000312285 -0.000232292 -0.000462881 )  
( 0.00123543 -0.000719374 0.000186709 )  
( 0.000140383 0.00224599 -0.000471364 )  
( -0.000525744 -0.000784361 0.0095843 )  
( 0.000880688 -0.00283216 0.008951 )  
( 0.000367049 0.000258978 0.000434244 )  
( 0.00198853 -0.000851087 0.0122981 )  
( -0.00135248 -0.00232925 0.00695882 )  
( 0.0011582 -0.00200882 0.0124163 )  
( -0.000233364 0.000403091 -0.00010552 )  
( -0.00195115 -0.00107396 0.00998847 )  
( -0.000126051 -0.000573274 0.00585701 )  
( -0.00107697 -0.00229538 0.00503793 )  
( -0.000116066 -0.00063121 0.00727171 )  
( -0.000677448 -0.000971081 0.007857 )  
( -0.000992399 -0.000213265 -2.19825e-06 )  
( 0.0012979 -0.000615317 0.00397111 )  
( 0.00192385 0.00162191 -0.000591363 )  
( 1.00422e-05 0.000330438 0.00771489 )  
( 0.00214536 0.000605458 0.00757622 )  
( 0.000854156 -0.000905789 0.00979692 )  
( -0.00161073 -0.000365008 0.0103485 )  
( 0.000835385 -4.32122e-05 0.00780762 )  
( 0.00080206 -0.000524747 0.00639078 )  
( -0.000309763 -0.00151659 0.00712468 )  
( -0.000336396 -0.00139461 0.00961345 )  
( -0.000688362 0.000482373 0.00871824 )  
( 0.00046099 0.000243442 0.00022101 )  
( -0.00172762 0.00183048 0.00845907 )  
( 0.000646592 -0.00155036 2.46606e-05 )  
( -0.00022952 0.000146298 0.000214568 )  
( -0.000946816 0.000585352 -0.000246908 )  
( 0.00265477 -0.00170758 0.0113235 )  
( -3.06232e-05 -0.000611288 -0.000136914 )  
( -0.000193538 -0.00149183 0.00751182 )  
( 2.09273e-05 7.63413e-05 0.000430543 )  
( -0.000245788 -0.000966088 0.00870698 )  
( -0.000414255 -0.000592947 0.00711103 )  
( -0.00129613 0.000642664 0.000146992 )  
( -0.00130632 -0.00142794 0.010473 )  
( -0.00178262 0.000776394 0.0110413 )  
( 0.00116943 -0.00250679 0.00874438 )  
( 0.000683533 0.000664876 0.00893013 )  
( 0.0012566 0.00115006 -0.00387358 )  
( 0.000117073 0.000209236 0.0086725 )  
( 6.025e-05 6.997e-05 -1.03919e-05 )  
( 0.000934058 -0.0021357 0.00850204 )  
( 0.000255766 -0.000140109 -0.00043985 )  
( -0.000113877 0.000356065 0.0090325 )  
( 0.000416504 -0.000456904 0.00923848 )  
( -0.00195515 -0.00270688 0.00477891 )  
( 3.95101e-05 -0.000268928 0.00864209 )  
( 0.000667535 -0.00333857 0.00722154 )  
( -0.000303241 0.000160976 -0.000239418 )  
( 0.000550974 -0.00192673 0.00878793 )  
( -0.000141346 0.00022222 5.40302e-05 )  
( 0.00028724 -0.00172037 0.0104225 )  
( -0.000208647 0.000188185 -0.000295036 )  
( -8.31556e-05 0.000738596 0.00967576 )  
( 0.000115407 0.000280097 0.000264426 )  
( -0.000467828 0.000377929 0.000799282 )  
( 0.00154978 -0.00133649 0.0095942 )  
( 0.0011615 -0.00114756 0.00110518 )  
( -0.00276881 -0.000840333 0.00922697 )  
( -0.000186251 -0.000100557 0.000164578 )  
( -0.000421299 0.000476932 0.000324917 )  
( 0.000339769 -0.000138591 0.000241653 )  
( 0.00105475 -0.000657298 0.00981005 )  
( 4.61376e-05 0.0014765 0.00114481 )  
( 0.000517654 -0.000725565 0.000243268 )  
( 0.00257366 -0.00190915 0.00873857 )  
( -0.00253988 -0.00144901 0.00782955 )  
( -0.000184349 8.23343e-05 -0.000337836 )  
( -0.00138222 -0.00113013 0.00982165 )  
( 0.00027757 -0.00158476 0.0108436 )  
( -0.000420992 -0.00147086 0.00867743 )  
( -0.000816524 -0.000908649 0.00671588 )  
( -0.000463845 0.000352417 0.0104284 )  
( -0.000620827 -7.65775e-05 0.0082077 )  
( -0.00150991 -0.00109045 0.00134982 )  
( 0.000722463 -0.00182696 -0.00389224 )  
( 0.00579791 -0.00146884 0.00377514 )  
( -0.00123792 0.000382967 0.00717848 )  
( -0.00146599 0.00047538 0.00594985 )  
( 0.00053414 0.000478584 1.16559e-06 )  
( 0.00077393 -0.0018767 0.00691749 )  
( 0.00120544 -0.000977599 0.00759984 )  
( 0.00183013 1.00759e-05 0.00696113 )  
( -0.000523391 -3.55901e-05 0.00897213 )  
( 0.000473788 -0.000393397 0.000166187 )  
( 4.31122e-05 0.000125113 -0.000130685 )  
( 0.000502058 -0.00323359 0.00735851 )  
( 0.00163297 -0.00420583 0.00844368 )  
( -0.000152236 0.000133913 0.000166032 )  
( -0.00221378 -0.000457873 0.00922861 )  
( -0.000151963 -0.00119466 0.00827093 )  
( 0.000234046 0.00103396 0.0106186 )  
( -0.00106406 0.000393661 0.009345 )  
( -0.000135112 0.000900981 0.00068453 )  
( -0.000112375 0.000175151 -8.80352e-06 )  
( 0.000542415 0.00080273 0.00295054 )  
( 0.000588025 0.00101132 0.00909981 )  
( 8.42382e-05 -0.00101291 0.00864233 )  
( 5.64201e-05 -3.20708e-05 -9.47846e-05 )  
( -4.52754e-05 0.000831143 0.000405442 )  
( -0.000419928 -0.000928681 0.00977069 )  
( -0.000302074 -0.00124948 0.00640149 )  
( -0.00119007 -0.0010471 0.00927094 )  
( -1.02944e-05 -0.00300562 0.0112627 )  
( 0.000288654 -0.00143649 0.00999699 )  
( -0.000774276 0.00135701 -6.81527e-05 )  
( -0.000435286 0.000290201 0.00983354 )  
( -0.000697406 -0.000330234 0.00980386 )  
( -0.00464913 -0.00705989 0.00805748 )  
( 0.000273416 -0.0010886 0.00811892 )  
( -9.1415e-05 -0.000409576 0.00869294 )  
( 0.000217319 -0.000576336 0.000101088 )  
( 0.00077762 -0.000966389 0.00821407 )  
( -0.000217209 0.000915644 0.010421 )  
( -0.00139157 -0.0020186 0.00784778 )  
( 0.00119138 2.58513e-05 0.00752783 )  
( 0.000428986 -0.000738898 -0.00112178 )  
( -0.000537786 0.00116675 0.0113808 )  
( -0.000823246 -0.00124155 0.00743941 )  
( 0.000469723 0.000711117 0.00973465 )  
( 0.000964236 -0.00140413 0.0059608 )  
( -0.0013016 -0.000315167 -0.000323169 )  
( -0.00030805 -0.00102545 0.00989159 )  
( -0.000669379 -0.0024706 0.00766474 )  
( -0.000327078 -0.000512895 0.00784547 )  
( -0.000378362 -0.000596097 0.000680821 )  
( -0.00252363 -0.000540379 4.69964e-07 )  
( 0.000247165 0.00718166 -0.00435928 )  
( 0.000764558 -0.000867332 0.00133029 )  
( -0.000265207 -0.00340418 0.0114238 )  
( -0.000629605 -0.000613955 0.000236521 )  
( -0.000723084 -0.00367004 0.0079739 )  
( -0.00162554 0.000931457 0.00241555 )  
( -0.00114264 0.00109682 -0.00021294 )  
( -0.000134472 -0.000240029 0.00325351 )  
( 0.00135019 0.00159996 0.013531 )  
( 2.90549e-05 5.3793e-05 0.000993697 )  
( -0.00142249 -0.00105397 0.00952898 )  
( 0.000541318 -0.00193769 0.00798903 )  
( 0.00169189 0.00152169 0.0080061 )  
( 0.00189149 -0.00222271 0.00696439 )  
( 0.000426498 -0.000645384 -7.03414e-07 )  
( 0.00131369 -0.00197533 0.00840014 )  
( 0.000554835 -0.000827538 -0.000235937 )  
( 0.000564501 -0.0018104 0.00842102 )  
( 0.00320919 0.000515618 0.0116137 )  
( -0.000493812 0.00119695 -5.22639e-05 )  
( -0.000965723 -0.00177994 0.00882538 )  
( 3.59024e-05 -0.00134114 0.00602862 )  
( -0.00041703 -0.000842857 0.00832998 )  
( -0.00092129 -0.00237376 0.0121212 )  
( -0.000287166 0.000826685 0.00121855 )  
( 0.00173691 -4.28177e-05 0.00182831 )  
( -5.18725e-05 0.000138124 -0.000102899 )  
( -0.000642515 -0.00196632 0.00711492 )  
( 0.000286557 -0.00143966 0.00853089 )  
( 0.00234358 -0.000294369 0.0101805 )  
( 0.00115658 -0.000542208 0.00793037 )  
( -0.000223761 0.000290844 0.000156893 )  
( -0.000128108 -0.000176354 -3.7915e-05 )  
( 8.16743e-05 -0.000757598 0.00858959 )  
( -1.42677e-05 0.000195724 0.000247102 )  
( -0.000230025 0.000240918 -4.06082e-05 )  
( -0.00045668 -0.000812952 0.0105089 )  
( 0.000523817 0.000186826 0.00985242 )  
( 0.000717978 0.00101062 4.33708e-06 )  
( -0.000126759 0.000238621 0.000112246 )  
( 0.000665541 -0.00165579 0.00834618 )  
( -0.00107053 0.000784575 0.0104554 )  
( -0.00240141 -0.00133471 0.00947699 )  
( -0.001289 -0.00137923 0.00820049 )  
( 0.000698486 -0.00141067 0.00140723 )  
( -0.000924706 -0.00155372 0.00327485 )  
( -0.00113299 -0.00279965 -0.000313342 )  
( 0.000388498 -0.0022048 0.00730101 )  
( -0.000300606 0.000202582 9.9537e-05 )  
( 0.00550913 -0.000853448 0.00215991 )  
( 0.000422876 -0.000290284 0.00531183 )  
( 0.00170157 -0.00417079 0.014225 )  
( 0.000857582 0.000589529 0.00536345 )  
( -0.00124856 -0.00173122 0.005631 )  
( 1.94582e-06 -6.58022e-05 -0.000227228 )  
( -0.000402957 -0.00203474 0.00759645 )  
( -4.18699e-05 0.000331968 0.000306055 )  
( -0.000567354 -0.000570185 0.0114129 )  
( 0.000131158 -0.000219834 0.000367164 )  
( -0.000426104 0.000176152 9.55945e-05 )  
( -0.00226562 -0.00324311 0.0136528 )  
( 0.00117259 -0.001645 -0.000298163 )  
( -0.000469338 0.000229755 -0.000130511 )  
( 0.000229762 0.000199647 -2.75153e-05 )  
( -0.000584577 -0.00344138 0.00876488 )  
( -0.00221227 -0.00223168 0.00727623 )  
( -0.000503546 0.000381692 0.0102534 )  
( -0.000467851 -0.000860261 0.0100917 )  
( 7.22534e-06 -0.00111136 0.00916771 )  
( 0.00254225 -0.00615593 0.00762286 )  
( -0.00678035 -8.76619e-05 0.0091209 )  
( 0.000543725 -0.00191371 0.0100929 )  
( -0.000252215 -0.000809989 0.0100711 )  
( -0.000343741 0.000752918 0.00646417 )  
( -0.00124462 0.000381594 -0.000307997 )  
( 2.78781e-05 -0.000194333 0.000256599 )  
( 0.00186628 -0.00234998 0.00892544 )  
( -0.000401836 -0.000991527 0.00737427 )  
( 0.000792253 -0.000174305 0.010931 )  
( -6.0405e-05 -0.00101502 0.00943845 )  
( 0.00324614 0.00088196 0.00559666 )  
( -0.000279266 0.000357033 0.00966157 )  
( -0.000418227 0.000527465 0.000990366 )  
( -0.00139985 -0.00100631 0.0071837 )  
( 0.000177222 0.000360846 2.48209e-06 )  
( -0.00018414 0.000197479 -5.67284e-05 )  
( -0.00187872 -0.000905054 -0.000124126 )  
( -0.000106983 0.000120207 1.72643e-05 )  
( 0.000249694 0.00153185 0.00122211 )  
( -0.000126899 -0.00153849 0.0094161 )  
( 0.00144017 -0.000707266 -9.11967e-05 )  
( -4.81406e-05 -0.000981411 0.00943261 )  
( 0.00153809 -0.000905198 0.00526034 )  
( 0.000827471 -0.00288641 0.00697394 )  
( -8.30076e-05 -0.000825952 0.00308603 )  
( -2.12447e-05 0.000360287 -0.000216402 )  
( -0.00026362 0.000549284 0.000655654 )  
( 0.000185044 0.0012615 0.00754428 )  
( -6.49611e-05 0.000110504 0.00855239 )  
( -0.000977291 0.000382049 -0.000470843 )  
( -0.00144767 -0.000473842 0.00621621 )  
( -0.00109011 -0.00175728 0.00655092 )  
( 1.83305e-05 -8.092e-05 1.02898e-05 )  
( 0.000654697 -0.00035425 -4.45452e-05 )  
( 0.000348632 -0.00173712 0.00374818 )  
( 0.00110259 -0.000711525 0.0109929 )  
( -0.000413821 -0.00405295 0.00176425 )  
( -0.00111319 -0.00016132 0.00829678 )  
( -0.000244643 4.11409e-05 -1.20271e-05 )  
( 8.25903e-05 -0.000414938 0.0105482 )  
( -0.00109445 -0.00192101 0.00653537 )  
( -3.56375e-05 -6.22816e-05 4.00301e-05 )  
( 0.00495496 -0.00156194 0.00606435 )  
( 0.000768195 0.00124345 0.00387133 )  
( -0.00118009 -0.00249378 0.011806 )  
( 0.000850805 -0.00113837 0.00424804 )  
( -0.000669745 -0.00206641 0.00843913 )  
( 0.000887571 0.000518042 0.0114341 )  
( -0.00011472 -8.56474e-05 -1.74512e-05 )  
( -0.00105465 -0.000336304 0.00988777 )  
( 1.9973e-05 0.000398997 -2.63257e-05 )  
( -0.000670492 -0.00121863 0.00949011 )  
( 0.00043602 -0.00155269 0.00740804 )  
( 0.00123836 0.00109511 1.21134e-05 )  
( -0.000380777 0.000734451 -0.000421518 )  
( 0.000129278 -0.000135644 0.0103049 )  
( -4.23175e-05 0.000276229 0.000219754 )  
( -0.00308314 -0.00486633 0.00843938 )  
( -0.00136688 -0.00461962 0.0169656 )  
( 0.000689304 5.51474e-05 0.00302542 )  
( -0.000314607 -2.01936e-05 0.00524559 )  
( -0.000585501 0.000964519 0.008885 )  
( -0.000985528 0.000226382 -0.00039408 )  
( -0.00124939 -0.00243541 0.00451994 )  
( 0.00158706 -0.00041061 0.00137958 )  
( -0.000127497 0.000286499 -0.00179479 )  
( -0.00230114 2.33694e-05 0.0115433 )  
( -6.52897e-05 0.000130395 -3.71928e-05 )  
( -0.000127141 0.000337731 0.000321785 )  
( -0.00276686 -0.000723056 0.008023 )  
( 0.00230622 0.000327458 0.00856388 )  
( -3.45208e-05 0.000513513 -0.000218698 )  
( 0.000442404 -0.00143956 0.0105112 )  
( -0.000391711 0.000701967 -7.77282e-05 )  
( -0.000392378 -0.00117411 0.00995557 )  
( 0.0014402 0.00120646 0.00946765 )  
( 0.000277209 -0.00246239 0.00744278 )  
( -0.00130769 -0.000320515 0.00793342 )  
( -0.00024263 0.000323135 -8.80124e-05 )  
( 0.000142641 -0.00398732 0.0085504 )  
( 0.000981109 0.00359963 -0.000265992 )  
( -0.000338365 0.00052044 0.0108771 )  
( -0.000399211 0.000226235 0.000149352 )  
( 0.00106536 -0.00193622 0.00771133 )  
( -0.00132457 0.00065437 0.00686542 )  
( 0.000260898 -0.000607717 0.009899 )  
( 0.000334678 -0.00128907 0.00932756 )  
( -5.18737e-05 -0.00017428 -7.28209e-05 )  
( -0.00146693 0.00144736 0.00930989 )  
( 0.00106149 -3.14075e-05 0.00179282 )  
( 0.00144762 -0.00380629 0.00684579 )  
( -0.00186298 -0.000556106 0.00905638 )  
( -2.34471e-05 0.000169369 -0.000357154 )  
( 0.00141454 0.000995844 0.00885245 )  
( 0.00117353 -0.000142139 0.00624898 )  
( -0.00572288 0.000143341 0.0127037 )  
( 0.000256857 0.00010799 0.00785542 )  
( -0.0026127 0.000664159 0.0101224 )  
( 0.000393393 -0.00302734 0.00691665 )  
( 0.000350952 0.00177662 0.00781966 )  
( -0.000430549 0.000213682 -1.4464e-05 )  
( -0.00111286 -0.0012242 0.00922229 )  
( -0.00127207 0.00118416 0.00737015 )  
( -0.00032882 0.00105966 -0.000320951 )  
( -0.000549946 -0.00187772 0.00734411 )  
( 0.00100511 0.000222685 -5.16153e-05 )  
( -0.00169736 -0.00106356 -0.00097776 )  
( -2.73168e-05 0.00133256 0.00967454 )  
( -0.000493093 -0.00123356 0.0106258 )  
( -0.000142794 -0.000826342 0.00782754 )  
( -0.000125212 -0.000659527 0.00938854 )  
( 0.00135798 -0.00250406 0.00839642 )  
( 0.000930958 0.000843278 0.000878542 )  
( 0.00263362 -0.00065246 0.00977931 )  
( 0.00160394 -0.00308518 -0.00127932 )  
( -0.000155263 0.00264178 0.00165164 )  
( -0.00228544 -0.000402259 0.00798031 )  
( -0.000184762 -0.00124207 0.00317378 )  
( -0.000892045 0.00040982 0.00890182 )  
( -0.0013981 -0.000248202 0.00993015 )  
( 0.000214994 -0.00141731 0.0117164 )  
( 5.37217e-05 -0.000264125 0.00920811 )  
( 0.000715767 -0.00105619 0.00857069 )  
( -0.0049894 -0.00370314 0.00450994 )  
( -0.000571018 -0.00252488 0.00797783 )  
( -7.08237e-05 -0.00144425 0.00965159 )  
( -0.00037216 0.000495332 0.0113437 )  
( 0.000126219 -0.00304941 0.0121572 )  
( 0.000786378 -0.00137373 -0.000289395 )  
( 0.000541471 0.000407701 -0.000363178 )  
( -0.000506164 0.000181911 0.000171981 )  
( -0.000580599 -0.00183002 0.0101761 )  
( -0.00152567 -0.00076929 0.00115072 )  
( 0.000444014 0.000184023 -0.000122663 )  
( 0.00153603 0.000309098 0.00641218 )  
( -0.000939058 -0.000322455 0.00627272 )  
( -0.000228627 0.00109839 -7.1439e-05 )  
( 6.57137e-05 -0.0034731 0.00966047 )  
( -0.00028191 0.000112756 0.00093368 )  
( 9.80302e-05 -0.000608214 -0.00527115 )  
( -0.000152211 -0.00128186 0.00939932 )  
( -0.000151283 1.68278e-05 -0.000192551 )  
( -0.00150187 -0.000781112 0.00925073 )  
( 8.14501e-05 -0.0013261 0.00952366 )  
( -0.000831066 -0.00255659 0.00580137 )  
( -0.00179941 -0.0024135 0.00838165 )  
( -0.000940869 -0.000716744 0.0126635 )  
( -0.00134546 0.00146596 -0.0013989 )  
( -0.000992128 7.85541e-05 -0.000152339 )  
( 0.00036266 -0.000712177 0.00872826 )  
( -5.40822e-05 -0.0010757 0.0101382 )  
( -0.0015177 -0.000596364 0.0115375 )  
( -0.000239607 -0.000127377 -0.000127385 )  
( -0.000981836 -0.00129126 0.00854978 )  
( -0.00117353 -0.000850446 0.00704125 )  
( -2.9727e-05 -0.00118568 -0.000146125 )  
( -0.00130956 -0.00302713 0.0086314 )  
( -0.000242439 -0.00189784 0.00796582 )  
( 0.000981418 0.000447275 0.000853105 )  
( 4.4033e-05 -0.000781315 0.010008 )  
( -0.00201456 -0.00460634 0.00957692 )  
( 0.000406338 -0.00160372 0.00751851 )  
( 0.000273686 -0.00112835 0.00797503 )  
( 0.000325975 0.000346346 0.0087756 )  
( -0.000145513 0.000703947 0.00108852 )  
( -0.000719558 -0.0007082 0.00032436 )  
( -4.38343e-06 -3.17363e-05 3.39343e-05 )  
( -0.000206882 -0.000358655 -0.000278674 )  
( -0.000617971 -0.00142344 0.009802 )  
( -0.000741467 -0.000850725 0.0100814 )  
( -4.84865e-05 0.000249423 8.49148e-05 )  
( -0.000723577 0.000257281 0.00932459 )  
( -0.000441882 -0.000184767 3.67374e-05 )  
( 0.000540124 -0.00155961 0.00751218 )  
( 0.00318335 -0.00160448 0.00937294 )  
( -4.54365e-05 -0.00027351 -4.26913e-06 )  
( -4.10061e-05 0.000592851 0.000113757 )  
( -5.12499e-05 -0.000938791 0.00748683 )  
( -0.000121361 -0.00049805 0.000119238 )  
( 0.000962332 2.73752e-05 0.00795079 )  
( 0.00217733 0.000912268 0.0114642 )  
( -0.000420617 -0.000430536 0.0093498 )  
( -0.000632328 0.000334603 0.00998704 )  
( 0.00233158 -0.000178841 0.00403454 )  
( -0.00137932 -0.000574817 0.00462086 )  
( 0.000388533 -0.00249882 0.00761318 )  
( 0.000637896 0.00139094 0.00893208 )  
( -0.000918489 -0.00351555 0.00561 )  
( -0.000314085 -0.00334227 0.00652089 )  
( 0.000486115 -0.000452433 0.00671935 )  
( 0.000404889 0.000306971 -0.0001198 )  
( 2.73021e-05 -0.00253662 0.00842588 )  
( 0.00132481 -0.000316232 0.000218439 )  
( 0.00018434 -0.000191962 0.000200853 )  
( 0.000540937 -0.00216352 0.0075544 )  
( -0.000509669 -0.00087099 0.00453429 )  
( -0.000803464 -0.000165665 0.00829695 )  
( 0.00118475 -0.000950141 0.00925909 )  
( 0.000911551 0.000778706 0.00692902 )  
( -0.000742942 0.00276369 0.0104852 )  
( 0.000658811 -0.00193342 -0.000210668 )  
( -4.79366e-05 0.000440112 0.00464153 )  
( 0.000839171 -0.000523026 -0.000120517 )  
( -0.00021237 -0.000899885 0.0086949 )  
( -0.00072259 0.00142614 0.0099084 )  
( -0.000338398 -0.000846527 0.00722024 )  
( -0.000367125 -0.00151076 0.00927395 )  
( 0.00146939 -6.44826e-05 0.00937231 )  
( -7.2736e-05 0.000411938 0.00926321 )  
( -0.000282241 -0.000468899 0.00899389 )  
( -0.00110415 -0.000295988 0.00723264 )  
( 0.000639082 0.000347785 0.000107016 )  
( 0.00018712 -2.05676e-05 2.12685e-05 )  
( -0.00158038 0.000735828 0.00290564 )  
( -0.000102189 0.000481734 5.58595e-06 )  
( -0.0032734 0.00243702 0.00843442 )  
( -0.00177176 -0.00122667 0.006578 )  
( 0.000108048 -0.000173219 3.42753e-05 )  
( 0.000419572 0.000750253 0.0120757 )  
( -0.000276847 0.000150805 0.000149896 )  
( -0.000344739 -0.000128408 -2.95906e-05 )  
( -0.000521667 -0.00206673 0.0100865 )  
( 0.00167066 -0.000859844 0.0040404 )  
( -0.000930396 -0.000115784 0.0109732 )  
( -0.00101302 -0.00162555 0.0100559 )  
( -0.00199291 -0.000956564 0.00951173 )  
( -0.000109115 8.31937e-05 7.99894e-05 )  
( -0.00101648 0.000318993 0.000196364 )  
( 0.00132483 -0.00225018 0.0082092 )  
( 2.49494e-05 -0.000136356 6.46075e-05 )  
( -0.000478871 0.000484801 -0.000129586 )  
( -0.000400534 -0.00154875 0.00713328 )  
( -0.000305089 -1.49977e-05 0.0118733 )  
( 0.000433558 -0.000704085 0.00849241 )  
( 1.18573e-05 4.05877e-05 0.000143382 )  
( -0.000131255 -0.000675404 -0.000126805 )  
( -0.00151381 9.36728e-05 0.00582022 )  
( -6.90592e-05 0.00054613 9.101e-05 )  
( 0.00233271 -0.000131291 0.0101831 )  
( 0.000175866 -0.000522805 0.00161138 )  
( -0.000315276 9.42736e-05 0.000100792 )  
( -4.5694e-05 -0.000229376 0.000632241 )  
( 0.00307156 -0.000379535 0.00808892 )  
( -0.000320139 0.000508047 -0.00193095 )  
( 0.00118949 -0.000806093 0.00284059 )  
( 2.91519e-05 0.000530204 9.29391e-05 )  
( -0.000881503 -0.000734501 -0.00100096 )  
( 0.000325508 0.000398071 0.00838815 )  
( -0.000451678 0.000155368 0.00960371 )  
( -0.000749618 0.00054508 0.000230471 )  
( -0.00145061 -0.0011084 0.00963148 )  
( -0.000453549 0.00317238 0.00276329 )  
( 0.000599732 -0.00104173 0.00570256 )  
( 0.000835175 0.000395388 0.00875673 )  
( 2.91557e-05 -0.00224025 0.0066889 )  
( 0.00175079 -0.00100353 0.00936275 )  
( -0.000147187 0.00077231 -3.118e-05 )  
( -0.000361561 -0.000158402 9.09952e-05 )  
( -0.000875854 -0.000800172 0.0089661 )  
( 0.000992359 -0.000196345 0.0119544 )  
( -0.00207077 -0.000832487 0.0100454 )  
( 0.00426322 -0.000941908 0.00232519 )  
( -0.000940497 0.000498227 0.00649534 )  
( 0.00134208 -0.00153253 -0.000109271 )  
( -0.000377788 0.000500796 -0.000115898 )  
( -0.000122335 -0.00243695 0.00718066 )  
( 0.000459486 -8.37804e-05 7.73744e-05 )  
( 0.00228404 -0.000612418 0.00464838 )  
( -0.000808172 -0.00215082 0.0100894 )  
( 0.000495466 -0.0018537 0.0102506 )  
( -0.000634071 0.0002889 0.00922889 )  
( -0.000137047 0.0005725 0.000170917 )  
( -0.000411412 -0.000685218 0.00976604 )  
( -0.000339486 -0.000128523 7.64973e-06 )  
( 0.000358667 -0.000232646 0.00436619 )  
( -9.73697e-05 0.000239448 -0.000139153 )  
( 0.000517327 -0.00104124 0.00799878 )  
( -0.00092766 -0.0025935 0.00745771 )  
( -0.000151556 0.000268866 -5.92408e-05 )  
( 0.000942737 0.00127472 0.000732527 )  
( -0.00135392 0.00138684 0.000478981 )  
( 0.000502511 -0.000607976 0.00886226 )  
( -0.000860107 -0.00181518 0.00620939 )  
( 2.26702e-05 -0.00166003 0.00766327 )  
( 0.000193008 -0.0027379 0.00561757 )  
( -0.000497711 0.00021985 -0.000251745 )  
( 0.00039369 -1.29918e-05 0.00982176 )  
( -0.00179755 -0.00265934 0.00634476 )  
( -0.000118191 -2.62802e-05 9.87921e-06 )  
( 0.00026479 -1.61269e-05 0.000166276 )  
( 4.72104e-06 -0.00261379 0.00613221 )  
( -0.000260987 -4.48332e-05 -7.95477e-05 )  
( -0.0011581 0.00124452 -0.00136884 )  
( -0.000233569 0.000213386 -0.000121469 )  
( -0.00186029 0.000594579 0.00978477 )  
( 0.000206589 0.000466539 0.0008142 )  
( 0.000384068 -0.000240929 0.00837324 )  
( 5.94392e-05 5.45778e-05 -8.00937e-07 )  
( -0.00174672 -0.00442499 0.00558081 )  
( 8.97438e-05 0.000792924 0.000349447 )  
( 0.00184999 0.000381905 0.00962046 )  
( 0.000167535 -8.0934e-05 0.00516514 )  
( -0.000119259 -0.00191372 0.000762351 )  
( -0.00142842 0.00152584 -4.18348e-08 )  
( -0.00109558 -0.0010577 0.000940495 )  
( -0.000212219 0.000253964 1.56545e-05 )  
( -0.00218565 -0.000215183 0.0119275 )  
( -0.00160103 -0.00179906 0.00789031 )  
( 0.000709696 -0.000882526 0.000355725 )  
( 7.56238e-05 -0.000163029 -1.78549e-05 )  
( 0.00184694 0.0023028 0.00904785 )  
( -0.000280833 -0.00203321 0.00811873 )  
( 0.000726047 -0.00036838 0.00626061 )  
( 0.00126102 0.000238102 0.0083054 )  
( -0.000153034 -9.51048e-05 0.0101063 )  