FoamFile
{version 2.0; format ascii;class vectorField; location 0;object  v;}
2506
(
( -6.53453e-05 2.91374e-05 -8.61887e-06 )  
( -4.75381e-05 -7.28849e-06 -2.73889e-05 )  
( 0.00102797 0.00126643 0.0128073 )  
( 0.000448632 0.000760558 0.0111478 )  
( 0.000113797 3.07324e-05 1.28631e-06 )  
( 0.0010731 0.000632547 0.017553 )  
( 0.00693293 -0.00324756 0.0122135 )  
( 0.000132427 0.000218662 -0.000232866 )  
( -0.00198363 9.00939e-06 0.0154093 )  
( 0.00105373 -0.000208578 0.0139736 )  
( 0.00148955 0.000988219 0.0165214 )  
( 0.000573487 0.000683452 0.0194171 )  
( -0.00193063 0.000613256 0.0102697 )  
( -0.000189146 0.000583562 -4.90227e-05 )  
( -2.99042e-05 3.88457e-05 -1.89788e-05 )  
( -0.000621598 -0.00143568 -0.000154397 )  
( 0.000216195 3.51945e-05 1.55493e-05 )  
( 0.000182256 3.31629e-05 -2.45614e-05 )  
( 2.66951e-05 -1.30288e-05 6.50164e-06 )  
( 0.00061727 0.000701916 0.0187338 )  
( 0.00163372 0.000917308 0.0164131 )  
( 0.000596351 -0.000333652 -0.000315843 )  
( 0.000635141 0.00314582 0.0125216 )  
( -0.000101212 -0.000167091 -5.71885e-05 )  
( 0.000679575 -6.8736e-05 0.0149757 )  
( 0.000728727 -0.000799514 0.0117615 )  
( 0.00102582 -0.00121961 0.0107373 )  
( -0.00120707 0.0016885 0.0134792 )  
( 8.60341e-05 0.000219013 0.000225913 )  
( 0.000831441 0.000441664 0.0185764 )  
( 0.00230773 -0.00219673 0.0110252 )  
( 4.44386e-05 -8.39953e-05 0.00020552 )  
( -0.00257265 0.00420533 0.0197106 )  
( 0.000736214 -7.223e-05 0.0166542 )  
( -1.3695e-05 2.63954e-05 -5.57946e-07 )  
( -0.00294717 -0.00205311 0.0141758 )  
( -0.00120954 -0.00121494 0.0159655 )  
( 0.000870859 0.000273066 0.0119045 )  
( 0.000410288 -0.00220907 0.0137349 )  
( -0.000134489 -0.00263246 0.0139274 )  
( 0.000150309 0.000223579 3.27743e-05 )  
( 0.00226602 -0.00197157 0.013749 )  
( 0.00264158 0.00214762 0.0152397 )  
( 0.000957436 -0.00165647 0.0195857 )  
( 0.00095006 0.000276834 0.0103119 )  
( 0.000599751 0.000172048 -0.0002219 )  
( 0.000476312 0.000465096 0.0120175 )  
( 0.000161681 -0.000179744 6.41324e-05 )  
( -0.000572543 -2.1768e-06 5.47151e-06 )  
( -0.00175567 0.00123268 0.016482 )  
( -0.000960765 0.000586979 0.00877075 )  
( -0.00127442 0.00194996 0.0130462 )  
( 7.36592e-06 7.13122e-06 4.10209e-06 )  
( 0.00160439 8.05424e-05 0.0135318 )  
( 0.000329998 0.000369915 0.0114957 )  
( -0.00220588 -0.000917945 0.0167578 )  
( 0.000359496 -0.00210503 0.0100055 )  
( -0.00022959 -2.16605e-05 6.32656e-06 )  
( 0.00104801 0.000825465 0.0187012 )  
( 0.0033383 0.0009111 0.0133089 )  
( 0.00109951 0.00152663 0.0144927 )  
( 0.00258716 0.00066582 0.0183323 )  
( 0.00403709 -0.000619316 0.0164381 )  
( 0.000615227 7.69947e-05 0.0179167 )  
( 0.00026912 -0.002741 0.0179318 )  
( 0.00996607 0.00050708 -0.000920333 )  
( 0.00182909 0.00169622 0.0162179 )  
( 0.000124928 0.000815242 0.0163211 )  
( 0.00208068 5.75881e-05 0.0176452 )  
( 0.000437825 -0.000376647 0.0148319 )  
( -0.00157833 0.000793683 0.0149446 )  
( 0.00189773 0.000248115 0.0158268 )  
( 0.000262664 9.94432e-05 5.93236e-05 )  
( 0.00217023 -0.000544776 0.0184018 )  
( -0.00192835 0.00240586 0.00595043 )  
( 0.00178847 -0.000899441 -5.60176e-06 )  
( 0.00142067 -0.00118447 0.0135963 )  
( -0.00136619 -0.000379876 0.0155614 )  
( 2.75408e-05 -1.2415e-05 -2.26135e-05 )  
( 0.000202605 -1.59133e-06 -6.13863e-05 )  
( 7.33212e-05 -3.201e-05 3.86631e-05 )  
( 1.00577e-05 -1.70342e-06 -4.76226e-06 )  
( 0.00343499 -0.00326051 0.0158071 )  
( -0.00076893 0.000540459 0.0155045 )  
( 0.0015038 -0.00103701 0.0117466 )  
( 0.0016819 0.000694442 0.0178884 )  
( 0.000566491 0.000761236 0.0191451 )  
( 5.65054e-05 -4.36496e-05 5.22738e-05 )  
( -0.0020153 -0.00295245 0.00863154 )  
( 0.00131445 -0.000440471 0.0185698 )  
( 1.12663e-05 1.50359e-05 4.99985e-06 )  
( 0.000420009 0.000728104 0.0119706 )  
( 0.00173723 0.00126099 0.0185183 )  
( 0.00131047 -0.0011823 -0.000170082 )  
( -0.00388626 -0.000961415 0.00824427 )  
( 7.95939e-05 0.000300039 0.0162784 )  
( -0.000443035 -0.000592946 -0.000276142 )  
( 1.48077e-05 -1.92941e-06 2.11345e-05 )  
( 0.00455569 -0.00241111 0.0133519 )  
( 0.00491475 0.000786286 0.0134654 )  
( 0.000401947 -0.000115269 -6.15041e-05 )  
( 0.00128852 0.000191713 0.0172775 )  
( -0.0010028 -0.000678705 0.0128065 )  
( 0.00372409 0.00309987 0.0140186 )  
( 0.000635737 0.000163872 0.0139521 )  
( 0.000147126 -0.00016474 1.18873e-05 )  
( 0.0022182 -0.00217342 0.0152307 )  
( -0.000422578 0.000321707 0.0179016 )  
( 0.00129445 -0.000487611 0.0191313 )  
( 0.000813408 0.000197488 0.018991 )  
( 0.00169343 0.00109849 0.0174351 )  
( -0.000178288 5.434e-05 8.63629e-06 )  
( 0.000353538 0.000769927 0.0155075 )  
( -0.00241277 -0.000466961 3.45138e-05 )  
( 0.000645277 0.000788162 0.0145262 )  
( -0.000174693 -0.000187169 -8.36648e-05 )  
( -0.00372587 0.00227024 0.0131102 )  
( 0.000207507 -0.000642138 0.0134053 )  
( -0.00132169 -0.00544012 0.0117469 )  
( 6.29161e-05 -6.6138e-05 -9.67534e-05 )  
( 0.000714127 0.000791896 0.0190173 )  
( 0.00295192 0.000245903 0.0138481 )  
( 0.000325614 0.00200158 0.016222 )  
( -1.77072e-05 -0.000133823 -0.000290597 )  
( -0.00103008 -0.00172913 0.0167995 )  
( 0.000809974 -0.000486043 0.0153549 )  
( 0.00115035 0.00077236 0.0173342 )  
( 0.00159526 -0.000367197 0.0187219 )  
( 4.52307e-06 -3.81071e-06 1.69461e-05 )  
( -0.000739604 0.000865585 0.00826778 )  
( -0.00144142 -0.000634744 0.0171103 )  
( -0.000378331 0.0016509 0.0130096 )  
( 0.00162524 8.67918e-05 0.0173027 )  
( 0.000409081 0.00228089 0.0162136 )  
( 0.00358367 -0.00262539 0.0108667 )  
( 0.000113686 -1.06162e-05 -7.7433e-06 )  
( -0.00122686 0.00182785 0.0129506 )  
( -0.00135529 0.00184308 0.0123998 )  
( -0.00170047 3.87954e-05 0.00916327 )  
( -3.43073e-05 -0.00052312 0.0144961 )  
( 0.000470833 0.00304855 0.0151409 )  
( 0.00114952 1.64509e-05 0.0103174 )  
( -9.43714e-05 -0.000220627 6.85809e-05 )  
( 0.00161623 -0.00144375 0.0204693 )  
( -0.000568338 -0.00107464 0.0162519 )  
( 0.000291266 0.000331685 -0.000255334 )  
( 0.00391338 -0.000534452 0.0129364 )  
( 0.00275941 -0.00170497 0.0164745 )  
( 0.00142065 -0.000980378 0.0172655 )  
( 0.000404765 0.00141132 0.0146751 )  
( 0.000200425 2.39147e-05 -3.34393e-05 )  
( -8.59924e-07 -1.75958e-06 -8.37637e-07 )  
( -0.00378729 -0.00118201 -0.000887608 )  
( 0.000267635 0.000706663 0.0137593 )  
( 0.000463502 0.000787311 0.018571 )  
( 0.00212762 -0.000977319 0.013358 )  
( 4.56136e-05 0.0010944 0.0126913 )  
( -0.00086437 0.000207508 -0.000397406 )  
( -0.000845637 -0.00176808 0.0166394 )  
( -9.58935e-05 0.000137121 1.06214e-05 )  
( 0.00473933 -0.00300361 0.0149127 )  
( 0.00290593 -0.00383818 0.0143284 )  
( -0.00268202 0.000920781 0.0152355 )  
( -0.00175083 -0.00126749 0.0149529 )  
( 0.000235729 -0.000794533 0.00086669 )  
( 0.000150124 0.000131762 0.0178438 )  
( 0.00163037 0.000441847 0.0171517 )  
( 0.000148018 -0.00114204 0.0141311 )  
( 0.000430649 9.13668e-05 -0.00032901 )  
( 0.000229591 -3.37823e-05 -0.000151692 )  
( 0.000773427 0.00140817 0.0182932 )  
( 0.000388306 0.00071031 0.0137535 )  
( 0.000568533 0.000538506 0.0183179 )  
( 0.00155467 0.000251662 -0.00104498 )  
( 0.00142446 -0.000536402 -0.000436746 )  
( 0.00179179 -0.00493914 0.0159193 )  
( 0.000166009 7.75155e-07 -3.50708e-05 )  
( 0.000709388 -0.00042102 0.0151009 )  
( -0.00259896 0.000511548 0.00758125 )  
( 0.00324022 -0.00114893 0.0112391 )  
( 0.00116082 -0.000338027 -0.000125974 )  
( 0.000802151 0.00245993 0.0116379 )  
( -0.0011281 -0.00132977 0.00914912 )  
( -0.00143911 0.000576882 0.0117618 )  
( 0.000558274 0.000128774 0.0120541 )  
( 0.00462223 -0.00420732 0.014491 )  
( -0.00114923 0.00112619 -0.00140586 )  
( 0.00167681 -0.000598078 -0.000865781 )  
( 0.00053454 -0.000261231 2.46348e-06 )  
( -0.000456504 0.00231938 0.0143398 )  
( -0.00100297 -0.00130316 0.0160507 )  
( -3.40667e-05 -8.55547e-05 -1.43436e-05 )  
( -0.000502511 0.00179026 -0.000157523 )  
( -7.71677e-05 -0.00225648 0.0160921 )  
( 0.00274296 -0.00144717 0.0161575 )  
( -0.00135061 0.00160123 0.0160386 )  
( 0.00104215 0.000505106 0.0180311 )  
( 0.0013366 -4.1764e-06 0.016685 )  
( 0.000248964 -0.000138225 0.00012665 )  
( 0.000363702 -0.000492037 0.015297 )  
( -0.000751564 -0.00106103 -5.16556e-05 )  
( 0.000428674 -0.000405636 -0.000178371 )  
( 6.59487e-05 1.2439e-05 3.8474e-05 )  
( -0.000609353 0.000455819 0.0124547 )  
( -0.000525447 -0.00104917 0.00661292 )  
( 0.00113188 0.000650181 0.0172148 )  
( -0.00137124 -0.000912607 0.0144668 )  
( -0.000664678 0.000195835 0.00015587 )  
( -0.000410112 -0.000274258 -0.000780198 )  
( 0.000163432 -0.000107233 -0.000113428 )  
( 0.00464704 -0.00204319 0.0155934 )  
( 0.00247573 -0.00261667 0.0102826 )  
( 0.000358759 -0.00012202 -0.000674553 )  
( -2.34729e-05 0.00124206 0.0173565 )  
( 0.00246825 0.000123933 0.0144189 )  
( -0.000803853 -0.000153733 6.61597e-05 )  
( 0.000536898 -0.000551047 -9.1156e-06 )  
( 0.00311732 0.00110055 0.014129 )  
( -0.00265344 -0.000953226 0.0156415 )  
( 0.00231455 -0.000753619 0.0179571 )  
( 0.0014878 -0.000165651 0.0160524 )  
( 0.00186133 0.000193471 0.0157504 )  
( 0.000128555 -0.00222944 0.0142247 )  
( 0.00165547 -0.00071805 0.0126267 )  
( 0.00459715 0.00176863 0.0124042 )  
( 0.00226603 -0.000155392 0.017243 )  
( 0.00143522 0.00106847 0.0161466 )  
( 0.00115972 0.00120787 0.0149026 )  
( -0.000879952 0.00116684 0.010383 )  
( 0.000822061 0.00093109 0.0157621 )  
( 0.0022495 -0.000353938 0.0173353 )  
( -0.000576954 -0.000337193 2.87725e-05 )  
( 0.000174433 0.000177745 0.000234798 )  
( 0.000428925 -6.80079e-05 0.00904243 )  
( -0.000476163 -0.000974775 0.000174305 )  
( 0.00099049 -0.000607463 0.0173962 )  
( 0.000813236 -0.000959737 0.0180855 )  
( 2.09311e-05 0.000100858 2.69159e-05 )  
( -0.00176987 -0.000281254 0.0142044 )  
( -0.00125309 0.000664717 0.00926013 )  
( 2.80342e-05 -7.67751e-05 0.000179659 )  
( 0.000669403 0.000220102 0.0152418 )  
( 0.00202937 -0.000719261 0.0183099 )  
( 0.00130962 -4.91812e-05 0.0181154 )  
( 5.87564e-06 -0.000273127 0.000226423 )  
( 0.0015907 0.000549442 0.0137609 )  
( 5.55148e-05 -3.32087e-05 0.000221269 )  
( 0.00037368 0.0019229 0.0130447 )  
( 0.000197349 1.8539e-05 -0.000183719 )  
( -0.000597316 0.00208658 0.0182705 )  
( 6.22797e-05 -6.70186e-05 1.69775e-05 )  
( 0.00299776 0.00126322 0.0152772 )  
( 0.000465473 -0.000114797 0.0126634 )  
( 0.000297419 0.00140244 0.0156852 )  
( 0.00717139 0.00205243 -0.0057034 )  
( 0.00462631 -0.00325118 0.0141363 )  
( 2.4111e-05 0.00117772 0.0144658 )  
( 0.00100291 -0.000593521 0.0173673 )  
( 0.00106465 -2.92786e-05 0.0139219 )  
( 0.00202589 0.00168096 0.0181614 )  
( 0.000967823 -0.000145161 5.26966e-05 )  
( -0.000385239 -0.000248322 -5.25897e-05 )  
( 0.00159941 0.000161836 0.0125212 )  
( 0.00274796 -0.000406535 0.0171515 )  
( -0.00245741 0.00121755 0.0167744 )  
( 0.00559379 0.00441878 0.0159068 )  
( 0.00125482 -0.000581375 0.0167876 )  
( 0.00130123 0.000439353 0.014302 )  
( 3.06079e-05 -8.53224e-05 8.8974e-06 )  
( 0.000189981 0.000536343 0.0171558 )  
( 7.65792e-05 -0.000127115 -2.69775e-05 )  
( -0.00644358 -0.00173735 0.00745451 )  
( 0.00320909 0.000784555 0.0142649 )  
( 0.000214231 0.00239592 0.0148044 )  
( -8.96444e-06 7.88645e-06 -1.42268e-05 )  
( 2.87226e-05 0.000134171 5.2604e-06 )  
( 9.377e-06 -0.000985327 0.0181821 )  
( 0.00154497 8.5456e-06 0.0179374 )  
( 0.00136943 0.00038335 0.0166946 )  
( 0.00159951 0.000515752 -0.000621732 )  
( 0.000387245 -0.00302863 0.0115922 )  
( 0.00170956 -0.00227168 0.0118761 )  
( -0.00226872 -0.00448541 0.010096 )  
( 0.00178595 -0.00076594 0.0181993 )  
( 0.0030132 -0.000289015 0.0134597 )  
( 0.000589214 0.00172322 0.0135881 )  
( -0.000204227 0.00159389 0.0150239 )  
( -0.00102024 0.00377363 0.0112595 )  
( 0.0013947 7.56594e-05 0.0164784 )  
( 0.00195205 -0.00125043 0.0161926 )  
( 0.00178031 -6.46825e-06 0.0162462 )  
( -2.23865e-05 -5.20179e-05 8.83775e-06 )  
( 0.00318464 -0.000874977 0.0155577 )  
( -0.000258929 -0.00342488 0.0116716 )  
( 0.000256789 -0.000381824 0.00720571 )  
( -0.000366878 -0.00220304 0.0201022 )  
( -0.00127218 6.802e-05 0.0101089 )  
( 0.00171311 -0.00224192 0.0134214 )  
( -2.65669e-05 0.000143505 1.45653e-05 )  
( 0.00137307 0.000353069 0.0153893 )  
( -9.19353e-05 -0.000513209 0.00865555 )  
( 0.002704 -0.000759935 0.0130718 )  
( 0.000223931 -0.00402933 0.0118179 )  
( 9.08765e-05 -1.50664e-05 4.91878e-05 )  
( 0.00272741 -0.000699753 0.0155317 )  
( -6.74008e-05 -0.00183699 0.0153443 )  
( 3.63108e-05 -0.00418156 0.0179454 )  
( 0.00199017 0.000719375 0.0152461 )  
( 0.00268767 6.2337e-05 0.0140918 )  
( -0.000326651 -0.000208316 -0.000565919 )  
( 0.000127395 -9.70371e-06 -1.34885e-05 )  
( -0.000119325 0.00320426 0.0103425 )  
( -0.0017371 0.00173416 0.0116676 )  
( 0.000320285 -0.00155591 0.0178517 )  
( 0.000101348 3.68302e-05 -1.90482e-05 )  
( 0.00164042 -0.00204996 0.0170437 )  
( -0.000141769 -0.000309682 2.17157e-05 )  
( 0.000261071 0.000497863 0.0166264 )  
( 0.00122389 -0.000510797 0.0170142 )  
( 0.00325027 -0.00243094 0.0156204 )  
( 0.00109076 -0.00010091 0.015138 )  
( -0.000984378 -0.000792779 -0.000309188 )  
( 6.70747e-05 -0.000512426 -0.000422054 )  
( -0.000892308 0.00226469 0.0148305 )  
( -0.00158843 0.000527588 0.00512344 )  
( 0.00237279 -0.0073096 -0.00247566 )  
( 0.000974524 -1.33334e-05 0.0134635 )  
( 0.00173089 -0.000689 0.0124372 )  
( -0.000163285 0.00142981 0.0129099 )  
( 0.00120798 -9.87086e-05 0.0180349 )  
( 1.23494e-06 -2.47707e-06 -1.67746e-05 )  
( 0.000996976 -0.000406245 0.0124912 )  
( -0.000800063 -0.000714798 0.0148186 )  
( 0.00110471 -0.00010483 -0.000234253 )  
( 0.00278178 -0.000198334 0.0140394 )  
( 7.44557e-05 -5.29229e-05 -5.99469e-05 )  
( -0.00201703 -0.00340421 0.0102787 )  
( 0.00193486 0.000996957 0.0164888 )  
( -0.000385471 -0.000260137 0.0104155 )  
( 0.00209352 0.000757069 0.0166745 )  
( 0.00152744 0.000125106 0.0140047 )  
( 7.83285e-05 0.000230024 -8.70784e-05 )  
( 4.88576e-05 0.000240367 -4.61476e-06 )  
( -0.000509921 6.04391e-06 -6.74656e-07 )  
( -0.000162675 0.000512662 0.0172341 )  
( -3.57768e-07 -1.86363e-05 -9.09841e-05 )  
( -0.0017795 0.000725789 0.0131878 )  
( 0.00182101 -0.00137643 0.0141636 )  
( 9.83826e-05 0.000311365 2.61418e-05 )  
( 0.000637372 -0.000669177 0.00934182 )  
( -0.000408709 -0.000521849 0.00996763 )  
( 3.30098e-05 6.74037e-05 3.60178e-05 )  
( 0.000233549 -0.000802025 0.000649888 )  
( -0.000719892 0.00246453 0.00948587 )  
( 0.00078566 -0.000602118 0.0181756 )  
( 0.000657809 0.000446401 0.018663 )  
( 0.00126885 -9.13777e-06 0.0174804 )  
( 6.97356e-05 0.00220333 0.0146427 )  
( 0.000594774 -0.00221772 0.0075217 )  
( 0.00115251 -0.00257788 0.016883 )  
( 0.000862237 -0.00207907 0.0124168 )  
( 0.000505474 0.000372746 0.0183915 )  
( 0.00084916 0.000153391 0.0163215 )  
( 0.00122117 0.000367468 0.0137688 )  
( -0.00373732 -0.00150048 0.0166249 )  
( -0.0015324 -0.000660928 0.00854599 )  
( 0.00187608 -0.00171553 0.0163014 )  
( 0.00262142 0.0010863 0.0168785 )  
( -0.00145484 0.00231918 0.00924793 )  
( 6.39715e-05 0.00086961 0.0132441 )  
( -0.000193853 -0.00017732 0.0177318 )  
( 0.00251202 -0.00152498 0.0152484 )  
( 0.0021275 -0.00137982 0.0165415 )  
( -0.00119193 -0.000817703 -0.000154124 )  
( 0.000143174 3.58406e-05 -7.90111e-05 )  
( 0.00456373 -0.000109475 0.015481 )  
( 0.000128267 0.00040814 -0.000351447 )  
( 0.00108094 -0.000150586 -0.000527124 )  
( -0.0004747 -0.000202451 -2.58977e-05 )  
( 0.000250059 -0.00115129 0.0121353 )  
( -0.00103705 0.00401389 0.0180578 )  
( -0.00304845 -0.000909758 -0.00135796 )  
( -0.00192545 -0.00177643 0.014769 )  
( 9.15176e-05 -1.18347e-05 2.69704e-05 )  
( 0.000161468 -0.000327318 -1.23313e-05 )  
( 0.00211321 0.000311501 0.0163136 )  
( 0.000433386 -0.00021171 -0.000380858 )  
( 0.000141724 -0.000204464 -8.01201e-05 )  
( -0.00167392 0.000813668 -0.000221871 )  
( 0.00143135 -0.00034385 0.0126642 )  
( -0.000812864 0.00309725 0.0135117 )  
( 0.000410029 0.000272895 0.0144021 )  
( 0.00344984 -0.00420646 0.0193473 )  
( 0.000359429 -0.000217557 7.53964e-05 )  
( 0.000251974 0.000317751 -0.000267812 )  
( 0.00157619 0.000398726 0.0146328 )  
( -0.000296009 -0.00010156 -0.000228383 )  
( 0.000522349 0.00176108 0.0113309 )  
( 0.000504133 0.000702699 0.0164621 )  
( -0.000581739 0.00151596 0.0153699 )  
( 0.00214136 -0.00216752 0.0108463 )  
( 0.00300895 0.000825181 0.0168635 )  
( 0.000955649 -0.00201256 0.012572 )  
( 0.00132116 -0.000950759 0.00873706 )  
( 0.00062332 0.000447657 0.0183135 )  
( -0.00143589 0.00204704 0.00917743 )  
( 0.00285734 -1.46304e-05 0.0145546 )  
( -0.000552008 0.000765699 0.0174131 )  
( 0.000567224 5.81174e-05 -6.81127e-05 )  
( -0.00184217 -0.00349873 0.0146324 )  
( 0.000170373 -0.00270311 0.0141782 )  
( 0.000343186 0.000138043 -1.00258e-05 )  
( -0.000442702 -0.00134661 0.0102725 )  
( 0.0037863 0.00327841 0.0149677 )  
( 0.000354628 -3.04972e-05 0.0153844 )  
( 0.000211076 -5.20742e-06 3.43319e-05 )  
( -0.000206459 -0.00113352 0.0137015 )  
( 7.28196e-05 0.000148183 -7.17819e-05 )  
( 1.91361e-05 0.000178283 -2.01028e-05 )  
( -0.000831738 -0.00123014 0.015625 )  
( 0.00128604 0.000469577 0.017829 )  
( 1.93942e-05 -0.00069354 0.0160744 )  
( 0.000158001 0.00073223 0.0161054 )  
( 0.00165612 0.00128101 0.0137938 )  
( 0.000327695 -0.000647774 0.0149996 )  
( 0.000116531 0.000230335 1.44198e-05 )  
( 0.000919981 0.000618551 0.010251 )  
( -0.00180434 -0.000420406 -0.000355813 )  
( 0.000346593 0.000590739 0.0125419 )  
( 1.23637e-05 -9.08383e-05 1.17229e-06 )  
( -0.000589403 0.000422788 0.014061 )  
( 0.00280698 -0.00141397 0.0141834 )  
( 0.000145735 7.50664e-05 1.42537e-05 )  
( 0.00130581 4.84303e-05 0.0156764 )  
( 3.14168e-05 8.38462e-06 -7.31624e-05 )  
( 4.74335e-05 0.000134088 -1.39345e-05 )  
( -0.00254135 0.0015572 0.018607 )  
( 0.000599626 -0.0012318 0.0173057 )  
( -5.33049e-05 -0.000322455 -0.000188431 )  
( 0.00132188 -0.000374303 0.0103385 )  
( -0.000916758 -7.24233e-05 0.0142578 )  
( 0.00201267 -0.0013226 0.0205903 )  
( 0.00111097 -0.000640325 0.014355 )  
( 0.000923837 -0.00049053 0.0178661 )  
( 0.00200459 -5.85396e-05 0.0163119 )  
( 0.00018473 -0.000897329 -1.73016e-05 )  
( 0.00302499 -0.00711315 0.0102994 )  
( -0.00141762 0.00305559 0.0158233 )  
( 0.000269411 -2.42736e-05 -1.80563e-05 )  
( 0.00104855 0.000475279 0.00836598 )  
( -0.000480081 -7.75158e-05 4.56909e-06 )  
( 0.00280689 -5.38143e-05 0.017335 )  
( -0.00327217 0.00180358 0.0161071 )  
( 0.000630087 0.00197569 0.0161884 )  
( 0.00104868 0.00119721 0.0154414 )  
( 0.000317674 4.88512e-07 -0.000414259 )  
( 0.00203503 -0.000687918 0.0151926 )  
( 0.0027784 0.000768561 0.0160473 )  
( 0.001427 -0.00269783 0.0155181 )  
( -0.000681717 -4.293e-05 0.0164506 )  
( 0.00163266 -0.000404476 0.0127503 )  
( 0.00056625 -0.000553091 -0.00155423 )  
( 0.000261655 -0.000257362 3.22892e-05 )  
( 0.000101306 -6.93983e-05 2.89212e-05 )  
( 0.000814784 0.000365441 0.0190616 )  
( 0.0017806 0.000330789 0.0163259 )  
( 0.000358238 0.00400338 0.0126532 )  
( 0.00158355 0.000142214 0.017435 )  
( 0.0010607 -1.32537e-05 0.0170828 )  
( 0.000224961 7.47326e-05 -0.000478562 )  
( -0.000913312 -0.000933722 -0.000167397 )  
( -6.94706e-05 -2.13552e-05 -7.3493e-06 )  
( 0.00138759 -0.00210496 0.013627 )  
( 0.000950693 7.83661e-05 0.01455 )  
( 0.000584277 0.000297944 -0.000107303 )  
( 4.32103e-05 0.00131166 0.0145326 )  
( 0.00118435 0.000664287 0.0189164 )  
( 0.0014274 -0.00012333 0.017371 )  
( 0.0015922 -0.000457345 0.0166758 )  
( 0.00127273 0.000353668 0.0159201 )  
( 0.00202554 0.000931426 0.0166441 )  
( 0.00229203 0.000372917 0.016063 )  
( 0.000267235 0.00439297 0.011976 )  
( -2.69575e-05 -1.85035e-05 -5.92926e-05 )  
( 0.000539179 -8.71661e-05 4.78013e-05 )  
( 0.00152948 0.000567684 0.0183268 )  
( 0.00236664 -0.00110084 0.0134061 )  
( 0.000974228 -0.00185309 0.0140506 )  
( 0.00156738 0.000766352 0.0149703 )  
( 0.00434625 -0.0011245 0.0137927 )  
( 0.000115864 0.000269474 -1.97517e-06 )  
( 0.0017961 -0.000607696 0.0181678 )  
( 0.00087067 -0.000548417 0.0177095 )  
( 0.000158789 -5.35634e-05 6.7025e-05 )  
( 0.000515826 0.000921501 -0.000946792 )  
( -4.27909e-06 4.29284e-06 2.08492e-07 )  
( 0.000785604 0.00253072 0.012923 )  
( -0.00342874 0.00379959 0.0151862 )  
( 8.20104e-06 4.24342e-05 -3.53201e-05 )  
( 0.00183504 -0.000898492 0.0192303 )  
( 0.0013748 0.000179471 0.018154 )  
( -0.00192714 -0.000302534 0.0132066 )  
( -1.70382e-05 -1.23266e-06 4.31192e-05 )  
( 0.00353523 0.000967065 0.0120733 )  
( 0.00132936 0.000174763 0.0158715 )  
( 0.00181266 0.000842023 0.0156009 )  
( -0.000899677 -0.000571108 0.0108094 )  
( 0.000277378 0.00013491 -0.000203205 )  
( 0.00598138 -0.00299944 0.0127791 )  
( 0.000297716 -3.09203e-05 -1.90496e-06 )  
( -6.68327e-05 -4.58591e-05 1.83983e-05 )  
( 0.000973532 -0.000720902 0.0199018 )  
( 0.000582548 -0.000197212 -2.89275e-05 )  
( 0.00062709 0.000248567 7.46841e-05 )  
( 0.00126004 0.000875865 0.0167758 )  
( 0.0032476 -0.000576829 0.0177296 )  
( 8.02203e-05 -3.81577e-06 1.86696e-06 )  
( 0.00604945 7.14809e-05 0.0119188 )  
( 0.000264431 0.000825008 0.0181744 )  
( 0.00282227 -0.000581119 0.0141288 )  
( 0.00102897 0.000883277 0.0178924 )  
( -0.000775829 0.000175746 0.0138361 )  
( 2.58554e-05 0.000232317 0.0185751 )  
( 0.00173209 -1.46795e-05 0.0162603 )  
( 0.00154983 -0.000587096 -0.000891815 )  
( 0.00213832 -0.00113873 0.0192792 )  
( 0.00363389 0.00019798 0.0141942 )  
( 8.78783e-05 -0.000812532 0.0138789 )  
( 0.000210431 0.00130176 0.0174159 )  
( 0.00166062 0.00110882 0.0117616 )  
( 0.000531695 -0.00473102 0.0174167 )  
( 0.0014863 -0.00139423 0.014206 )  
( 0.000104596 7.40894e-05 -5.3875e-05 )  
( 0.00017098 0.000593964 0.0154617 )  
( 5.93895e-05 -2.41954e-05 3.9325e-05 )  
( 3.36875e-06 1.78352e-05 -5.25366e-05 )  
( 0.000151422 6.20269e-05 -0.000113958 )  
( 0.00254489 -0.000712493 0.0125969 )  
( 0.000235963 -3.2522e-06 -8.09492e-07 )  
( -0.00232908 0.000339163 0.0127088 )  
( 0.00024858 -0.00100716 0.0196148 )  
( -2.31454e-06 0.0006708 0.0141887 )  
( -0.00293505 0.00174372 0.0165417 )  
( -0.000939893 -0.00056212 0.000259931 )  
( -0.00133923 0.000832532 0.0109425 )  
( 0.0005535 -0.000781598 -0.000299181 )  
( 0.00185019 0.000518403 0.0168069 )  
( 0.00214049 -0.000819746 0.0129927 )  
( 0.000390797 -0.000142647 0.0120925 )  
( 7.17819e-05 -7.55531e-05 9.11127e-06 )  
( 0.0011926 0.000687189 0.0186066 )  
( -0.000509463 -0.000509746 0.0136328 )  
( 0.000771033 0.000159626 0.00861166 )  
( 0.000215872 -0.000275485 0.000139864 )  
( 0.000346284 -0.000373615 4.71922e-05 )  
( -2.46955e-05 -0.00258439 0.0159994 )  
( -0.000600569 -0.000690264 0.0176082 )  
( 0.000101041 0.000153524 -7.34031e-05 )  
( 7.91448e-05 -3.53538e-05 3.55912e-06 )  
( 0.000210416 7.75805e-05 -7.26195e-05 )  
( -0.000691866 0.000115645 5.11186e-05 )  
( 0.000797389 -0.000470291 -0.00105495 )  
( 0.00212012 -0.000584755 0.019114 )  
( -0.000620919 -0.00059676 0.018454 )  
( -2.12513e-05 2.34836e-05 -2.64362e-05 )  
( 0.000385868 0.000963374 0.0148005 )  
( 0.00086931 -0.000413315 0.0177 )  
( -0.000755394 -0.000441012 0.00024607 )  
( -0.000161765 -0.00103757 0.0197934 )  
( 1.96034e-05 5.2325e-05 1.4006e-05 )  
( 2.76164e-05 -3.72257e-05 1.9433e-05 )  
( 5.55749e-05 -0.000804244 0.0115673 )  
( -6.86127e-05 -9.63526e-05 -0.00050675 )  
( -0.000404872 0.000204574 -0.000426283 )  
( 0.000851847 -0.00036576 0.0110838 )  
( 0.000125137 0.000223596 -5.75796e-06 )  
( 0.000405499 -0.00151032 0.012759 )  
( 0.00143446 -0.000177716 0.0170844 )  
( 0.000157202 -0.000120834 0.0166728 )  
( -0.00204417 -0.00287964 0.0107853 )  
( 0.00258569 -2.15503e-06 0.0157995 )  
( 0.000254827 -0.00038544 -0.00035915 )  
( 0.00430799 0.00488825 0.0168986 )  
( 0.00118598 -0.00171896 0.019081 )  
( 0.00116375 -0.000288793 0.0103746 )  
( -7.40681e-05 8.43838e-05 -5.06098e-05 )  
( 0.00182517 7.52421e-05 0.0163474 )  
( -0.00142194 -0.00109349 0.00767905 )  
( -4.71297e-05 -0.00162008 0.0146029 )  
( 0.00142234 -0.000524535 0.0148025 )  
( -0.000410092 -0.000236594 -0.000468169 )  
( -0.00151585 -0.00159115 0.0147184 )  
( 0.000456571 -0.000293211 -1.64252e-05 )  
( 0.00228176 0.000126841 0.0129625 )  
( 0.000404548 -0.000457493 0.0140903 )  
( -1.92347e-05 -0.000954969 0.0148586 )  
( -0.000400574 0.000424956 0.0149914 )  
( 0.00150659 0.00141397 0.0125004 )  
( 0.00011342 0.000192396 -2.24439e-05 )  
( 3.87961e-05 0.00136106 0.0197218 )  
( -0.000448404 0.00250295 0.0132449 )  
( 0.000471451 -0.000783144 0.0179896 )  
( 0.000633653 -0.00129601 0.0160199 )  
( 0.00173832 0.00247352 0.0166134 )  
( 0.000495795 -0.00240031 0.00899628 )  
( -2.53969e-05 -0.000382281 -0.000427987 )  
( 0.00411509 0.000553352 0.0136952 )  
( 0.000720874 -0.00153643 0.014755 )  
( 0.00107872 -8.99368e-05 -0.000270579 )  
( 0.00349703 -0.000567575 0.0152823 )  
( 0.000656751 -0.000676349 0.0177029 )  
( 0.0043643 -0.0019069 0.0146654 )  
( 0.000870025 0.000189967 0.017352 )  
( 0.00367047 0.00155219 0.00976239 )  
( 0.0011259 -0.00269911 0.0157444 )  
( 0.00107079 -0.000182628 -0.00126535 )  
( 0.000718604 0.000212523 0.0184236 )  
( 2.26348e-05 -2.94558e-05 6.46785e-05 )  
( 0.00202985 -0.00375281 0.0165336 )  
( -0.000221766 -0.000207928 5.32253e-05 )  
( -0.000884164 -0.00341929 0.0156255 )  
( 0.0012385 -0.000398278 0.0141978 )  
( 0.00101882 -0.00110484 0.0160542 )  
( 0.00114583 -0.00095062 0.0126336 )  
( -0.000173523 -0.000225241 0.000115599 )  
( 0.000190469 -2.88579e-05 -2.79226e-05 )  
( 0.0026538 -0.000176968 0.0192043 )  
( 0.000837176 0.00154128 0.0169498 )  
( -2.25262e-06 -2.29309e-06 1.35783e-05 )  
( -0.00110192 -0.00140881 0.0201814 )  
( 0.00133512 -0.000227867 0.0119009 )  
( 0.00257988 0.000253847 0.0157299 )  
( 0.00426787 -0.00217728 0.0139592 )  
( 0.00153586 -0.00102797 0.017428 )  
( 0.00198166 -0.0014648 -0.00117689 )  
( 0.00150911 0.000157165 0.0161813 )  
( -0.00117755 0.00388592 0.0108237 )  
( 0.000990555 -0.000455106 0.0102144 )  
( -3.45855e-05 -0.00111813 0.0156525 )  
( 0.000818933 0.000871597 0.0187689 )  
( -0.000236594 0.000452356 0.0144142 )  
( 0.0048207 -0.000429117 0.0161477 )  
( -0.000134205 0.000296854 0.000105996 )  
( 0.0017805 0.00192212 0.0161568 )  
( -0.00182274 -0.000659303 0.0184224 )  
( -0.00336345 -0.000741094 0.0136407 )  
( 0.000257371 -1.88968e-05 -0.000279961 )  
( -2.0425e-05 -0.000282525 0.000111805 )  
( 0.000548468 0.00119383 0.0157158 )  
( -0.000611521 -0.0011163 0.0120034 )  
( 9.86438e-05 -0.000996308 0.000491266 )  
( 0.00313989 -0.000306029 0.0157127 )  
( 0.00104174 0.000516689 0.0196604 )  
( 4.46418e-05 -0.00084549 2.65757e-05 )  
( 0.000489959 -0.00021686 0.0178894 )  
( -0.00195987 -0.00455774 0.0121341 )  
( 0.00176812 -0.000196682 0.0194351 )  
( 0.00152207 -0.00108082 0.0126238 )  
( 0.00221336 -0.00254194 0.0131036 )  
( 0.00130975 -0.000378127 0.0164528 )  
( 0.000548163 0.000420952 0.0137673 )  
( 0.00164281 -0.0011834 0.0177665 )  
( -0.0010798 -4.86425e-05 0.0137376 )  
( -0.00052304 -0.00155015 0.0173923 )  
( -0.00433611 -0.000311195 0.0167507 )  
( 0.000580976 0.000307924 -0.000586182 )  
( 0.000308241 0.000331436 0.0145523 )  
( -0.000305059 -0.000902898 0.0125505 )  
( -0.00178227 -0.00220878 0.0165259 )  
( -0.00552018 0.00100284 0.0198889 )  
( 0.00310306 -0.000276641 0.0135896 )  
( -7.3666e-05 1.95743e-05 -2.4995e-05 )  
( 0.000172228 -0.000271233 1.47059e-05 )  
( 1.7913e-06 4.61207e-06 -3.81863e-06 )  
( 0.000865782 -0.00180074 0.0137994 )  
( -0.00138152 -0.00013054 0.000296737 )  
( -0.00449784 0.000875266 -0.000276553 )  
( 0.00301786 0.000774467 0.0162582 )  
( -8.47078e-05 0.000116677 1.3852e-06 )  
( 0.00297735 0.00138595 0.0191984 )  
( 7.89886e-05 -0.00108692 0.0184935 )  
( -1.06151e-06 2.72698e-05 -4.41895e-06 )  
( -0.0048457 -0.00131235 0.0100744 )  
( -0.000946458 -0.00466799 0.010301 )  
( 7.98687e-05 -3.8168e-05 2.73937e-05 )  
( -0.00151069 0.000537839 -7.13507e-05 )  
( -0.00151989 -0.000247731 0.00199266 )  
( -0.00158399 0.00158184 0.0119155 )  
( -0.0019385 -0.00318899 0.0102442 )  
( 0.00228847 -0.00107144 0.0179114 )  
( 0.000132044 -0.000495326 0.0183401 )  
( -2.01231e-05 -2.94585e-05 1.04982e-05 )  
( 0.00240367 -0.00193928 0.0122228 )  
( 0.00212149 0.0010974 0.0158667 )  
( 7.40715e-05 7.7278e-06 -4.81588e-05 )  
( 0.00453458 -0.00319039 0.015389 )  
( 2.85744e-05 -5.56559e-05 5.59052e-05 )  
( 0.000177455 -0.00062838 -0.00221532 )  
( -7.03535e-05 -0.00013256 -1.11041e-05 )  
( 0.000319142 -1.65987e-05 2.22352e-05 )  
( -0.00207667 0.00112324 0.0127371 )  
( 0.000276563 0.000704715 0.0161508 )  
( -0.00118054 0.00104176 0.00864006 )  
( -0.00212143 -0.000685228 0.0159897 )  
( 7.54088e-05 -2.42162e-05 -8.712e-06 )  
( 0.00195017 -0.000416243 0.0107627 )  
( 0.000126459 -0.000298083 0.00018853 )  
( 0.00151879 0.000707617 0.010771 )  
( 0.00107741 0.000958754 0.0166709 )  
( -9.02921e-05 -0.000931532 0.0158246 )  
( 0.00106539 0.000476652 0.0179183 )  
( -0.00103802 0.000482448 0.00736696 )  
( -0.000525755 0.00229791 0.0164329 )  
( 0.000157885 -0.00150381 -0.000668387 )  
( -0.000300031 -0.00018239 -0.000253735 )  
( -0.000115432 0.00274237 0.0168453 )  
( 1.94272e-07 -2.06558e-06 8.31699e-06 )  
( -0.000206878 1.48966e-06 0.000601214 )  
( 0.00143422 -0.000496264 9.87591e-05 )  
( -0.00211114 -0.00166161 0.0125844 )  
( -0.0012188 0.000310563 0.0154576 )  
( 0.0006483 -0.000146174 0.0171898 )  
( 0.00158741 -0.000202777 0.0155294 )  
( 0.00104091 -0.00139032 0.0174175 )  
( -0.000808337 0.000952401 0.00842782 )  
( -0.00314557 -0.000917798 -0.00162281 )  
( 0.000378436 0.00156462 0.0197223 )  
( 0.000250632 -0.000239758 -0.00170721 )  
( 0.000497002 -0.000919318 5.61712e-05 )  
( 0.00185907 0.000725946 0.0163114 )  
( -0.00309755 -0.00157498 0.00963715 )  
( 0.000177341 5.01961e-05 5.09354e-05 )  
( -0.00100584 -0.00467363 0.017988 )  
( 0.0010709 -0.000926629 4.48726e-05 )  
( -0.000736686 -8.49476e-05 -0.000197886 )  
( -0.000105324 -5.37681e-05 0.000133569 )  