FoamFile
{version 2.0; format ascii;class Cloud<passiveParticle>; location 0;object  positions;}
2494
(
( -0.0108919 -0.00401485 0.000499686 ) 0 
( -0.00506655 -0.00114562 0.000999427 ) 0 
( -0.0067817 -0.00689848 0.00294094 ) 0 
( -0.000965755 -0.00189278 0.00280474 ) 0 
( -0.0130608 -0.00247886 0.000499638 ) 0 
( -0.00939788 -0.00443028 0.000499358 ) 0 
( -0.00305223 -0.00787065 0.00118603 ) 0 
( -0.000105676 -0.00572443 0.00456577 ) 0 
( -0.008759 -0.00184961 0.00534539 ) 0 
( -0.00936609 -0.00378733 0.00150052 ) 0 
( -0.00913666 -0.00626578 0.00270838 ) 0 
( -0.0062569 -0.00313317 0.00270629 ) 0 
( -0.0106343 -0.00701024 0.00324705 ) 0 
( -0.00904325 -0.00167287 0.00641617 ) 0 
( -0.00391426 -0.00459941 0.00459194 ) 0 
( -0.00229206 -0.00784151 0.00669404 ) 0 
( -0.00221325 -0.00582681 0.00715682 ) 0 
( -0.00536044 -0.00778688 0.00716059 ) 0 
( -0.0025644 -0.00855676 0.00173748 ) 0 
( -0.00915778 -0.00239921 0.00390096 ) 0 
( -0.00211846 -0.00249904 0.000499568 ) 0 
( -0.0042803 -0.0083209 0.00467252 ) 0 
( -0.00418396 -0.000692233 0.000886242 ) 0 
( -0.0013207 -0.00784162 0.000499651 ) 0 
( -0.00052714 -0.00210801 0.00126274 ) 0 
( -0.00973533 -0.00788228 0.00512867 ) 0 
( -0.00867969 -0.00528436 0.000497272 ) 0 
( -0.00945328 -0.00706378 0.0067101 ) 0 
( -0.00984662 -0.00465347 0.00136421 ) 0 
( -0.0131256 -0.00242053 0.00247705 ) 0 
( -0.00603528 -0.00187965 0.000499787 ) 0 
( -0.00408352 -0.0119018 0.00531823 ) 0 
( -0.00204493 -0.0115069 0.0027898 ) 0 
( -0.00228305 -0.00678749 0.00441628 ) 0 
( -0.000696012 -0.0130238 0.00465788 ) 0 
( -0.00131244 -0.00633189 0.00683003 ) 0 
( -0.00508371 -0.00989241 0.00268345 ) 0 
( -0.00665657 -0.000351683 0.00646705 ) 0 
( -0.00335791 -0.00472606 0.00691599 ) 0 
( -0.00404992 -0.00639638 0.000499622 ) 0 
( -0.0101384 -0.00181483 0.00303334 ) 0 
( -0.0116482 -0.00115292 0.000789128 ) 0 
( -0.000784818 -0.00963533 0.00229193 ) 0 
( -0.00780334 -0.00347066 0.00208376 ) 0 
( -0.00106458 -0.00325206 0.00527856 ) 0 
( -0.00138526 -0.00829726 0.00359453 ) 0 
( -0.00836863 -0.00202446 0.00438572 ) 0 
( -0.00125613 -0.00233154 0.00375908 ) 0 
( -0.00684494 -0.0096255 0.00480167 ) 0 
( -0.000785403 -0.00385767 0.00279073 ) 0 
( -0.0072884 -0.00463238 0.000499413 ) 0 
( -0.00463394 -0.00639139 0.0057533 ) 0 
( -0.00132715 -0.0101247 0.00160679 ) 0 
( -0.00667984 -0.00106291 0.000498573 ) 0 
( -0.0112244 -0.00377598 0.00626441 ) 0 
( -0.00401348 -0.00569299 0.00124159 ) 0 
( -0.0120967 -0.00564511 0.00595052 ) 0 
( -0.00208521 -0.0107245 0.00185975 ) 0 
( -0.0062286 -0.0093393 0.00126119 ) 0 
( -0.00326401 -0.000749608 0.000498243 ) 0 
( -3.09832e-05 -0.0118522 0.00488609 ) 0 
( -0.00455659 -0.0100597 0.00109007 ) 0 
( -0.00217454 -0.00975759 0.00446545 ) 0 
( -0.00912428 -0.00563929 0.00349651 ) 0 
( -0.00613528 -0.011857 0.00501339 ) 0 
( -0.0029217 -0.0039053 0.00293853 ) 0 
( -0.00446161 -0.0125844 0.00594039 ) 0 
( -0.00869774 -0.00665343 0.0035168 ) 0 
( -0.00067727 -0.0119487 0.00167224 ) 0 
( -0.00761691 -0.00498201 0.00430981 ) 0 
( -0.00558779 -0.00220118 0.00733748 ) 0 
( -0.00726465 -0.0112004 0.00363077 ) 0 
( -0.0121952 -0.00267808 0.00221328 ) 0 
( -0.00683811 -0.0109773 0.00226746 ) 0 
( -0.00334197 -0.00655537 0.00280574 ) 0 
( -0.00533007 -0.00155584 0.00329972 ) 0 
( -0.00555908 -0.00289802 0.00195928 ) 0 
( -0.0117372 -0.00636456 0.00220332 ) 0 
( -0.00257389 -0.00496696 0.000499727 ) 0 
( -0.00288628 -0.00337392 0.00209211 ) 0 
( -0.00217381 -0.0122894 0.0053185 ) 0 
( -0.00821609 -0.00156189 0.00351278 ) 0 
( -0.012541 -0.0045547 0.00214309 ) 0 
( -0.00302076 -0.0062342 0.00403326 ) 0 
( -0.00490056 -0.0012314 0.00501153 ) 0 
( -0.0048516 -0.00864454 0.00648876 ) 0 
( -0.00853146 -0.00300865 0.00258642 ) 0 
( -0.0103355 -0.00479707 0.00323265 ) 0 
( -0.000107925 -0.00323361 0.0031783 ) 0 
( -0.00953125 -0.00267113 0.000499789 ) 0 
( -0.00425425 -0.00516519 0.00696303 ) 0 
( -0.00452417 -0.00953556 0.0019378 ) 0 
( -0.00189182 -0.000385019 0.00734347 ) 0 
( -0.00141231 -0.00938816 0.00676438 ) 0 
( -0.0124291 -0.00170408 0.000498478 ) 0 
( -0.0046582 -0.0105104 0.00459698 ) 0 
( -0.0029076 -0.0130303 0.00290775 ) 0 
( -0.000249215 -0.00200005 0.008117 ) 0 
( -0.0047766 -0.00164602 0.00751352 ) 0 
( -0.00494979 -0.00579757 0.00765298 ) 0 
( -0.00384342 -0.00265576 0.00716192 ) 0 
( -0.0105594 -0.00475194 0.00666066 ) 0 
( -0.0112094 -0.00556667 0.00182753 ) 0 
( -0.00262553 -0.00424658 0.00436389 ) 0 
( -0.00283118 -0.0130469 0.00683816 ) 0 
( -0.00969672 -0.00665751 0.00347288 ) 0 
( -0.00751263 -0.00512011 0.00602372 ) 0 
( -0.00204261 -0.00354197 0.00396049 ) 0 
( -0.00670641 -0.0058227 0.00586984 ) 0 
( -0.00666439 -0.00656055 0.00660678 ) 0 
( -0.00150481 -0.00174966 0.00523726 ) 0 
( -0.00940542 -0.00552004 0.00113789 ) 0 
( -0.00705009 -0.0104752 0.00127968 ) 0 
( -0.00990469 -0.000844791 0.0029692 ) 0 
( -0.00948313 -0.00497227 0.00528416 ) 0 
( -0.00247722 -0.0113885 0.00695021 ) 0 
( -0.0101407 -0.00251042 0.00375998 ) 0 
( -0.00403973 -0.00359643 0.000498958 ) 0 
( -0.00217332 -0.00895019 0.00628862 ) 0 
( -0.00131276 -0.0114493 0.00346662 ) 0 
( -0.0090111 -0.00741831 0.00114015 ) 0 
( -0.00438147 -0.0060532 0.00288483 ) 0 
( -0.010431 -0.00516432 0.0023076 ) 0 
( -0.00695217 -0.00838991 0.00122334 ) 0 
( -0.00544209 -0.00663423 0.00729494 ) 0 
( -0.0107796 -0.00787649 0.00662162 ) 0 
( -0.0119535 -0.00269154 0.00655985 ) 0 
( -0.00342087 -0.00931891 0.00540196 ) 0 
( -0.0019622 -0.0132055 0.00318394 ) 0 
( -0.0094012 -0.00156833 0.00240636 ) 0 
( -0.00610911 -0.0072448 0.0046543 ) 0 
( -0.0054065 -0.00672512 0.00397654 ) 0 
( -0.00267255 -0.0121763 0.00239672 ) 0 
( -0.000967583 -0.0051134 0.000499422 ) 0 
( -0.00959938 -0.000664689 0.00203494 ) 0 
( -0.00225361 -0.00609141 0.000497873 ) 0 
( -0.00750831 -0.00448545 0.00523361 ) 0 
( -0.00395856 -0.00661956 0.00359392 ) 0 
( -0.0109644 -0.00587972 0.00354825 ) 0 
( -0.0104044 -0.00319779 0.00548479 ) 0 
( -0.00816425 -0.00263007 0.00515337 ) 0 
( -0.0132709 -0.00146031 0.00192454 ) 0 
( -0.00473938 -0.00619752 0.00673434 ) 0 
( -0.00965196 -0.00093306 0.00613478 ) 0 
( -0.00178374 -0.000343526 0.000499214 ) 0 
( -0.0095878 -0.00327977 0.00409247 ) 0 
( -0.000666609 -0.00476963 0.00755876 ) 0 
( -0.00896734 -0.00288154 0.00136087 ) 0 
( -0.00125695 -0.00882562 0.00591 ) 0 
( -0.00139864 -0.0025969 0.00127055 ) 0 
( -0.00770123 -0.000990156 0.000499789 ) 0 
( -0.0018852 -0.00406998 0.00312716 ) 0 
( -0.00466799 -0.0125074 0.00369468 ) 0 
( -0.00273851 -0.00503483 0.00205947 ) 0 
( -0.00984237 -0.00340605 0.0023153 ) 0 
( -0.00541905 -0.000671974 0.00284454 ) 0 
( -0.00315268 -0.00070814 0.00552026 ) 0 
( -0.00490871 -0.000122599 0.00351761 ) 0 
( -0.00628899 -0.00348238 0.00676661 ) 0 
( -0.00111506 -0.0115688 0.000499758 ) 0 
( -0.00440182 -0.0108736 0.00578422 ) 0 
( -0.00514074 -0.0072859 0.00493189 ) 0 
( -0.00107412 -0.00210833 0.0073296 ) 0 
( -0.0096917 -0.00149396 0.00530526 ) 0 
( -0.0113858 -0.00201027 0.00609817 ) 0 
( -0.00379872 -0.0127985 0.00329588 ) 0 
( -0.00472983 -0.00600635 0.0038209 ) 0 
( -0.00321319 -0.0103863 0.00127072 ) 0 
( -0.00362153 -0.0128495 0.00427759 ) 0 
( -0.00467112 -0.00599762 0.00192957 ) 0 
( -0.0103647 -0.00527946 0.00748599 ) 0 
( -0.00571129 -0.00753791 0.00282699 ) 0 
( -0.00492363 -0.011701 0.00599927 ) 0 
( -0.0057852 -0.0108903 0.000499505 ) 0 
( -0.0112661 -0.00267781 0.00398341 ) 0 
( -0.0103131 -0.00675539 0.00509857 ) 0 
( -0.009338 -0.00811166 0.000498281 ) 0 
( -0.00198122 -0.00636057 0.00796985 ) 0 
( -0.00298001 -0.00206389 0.00706447 ) 0 
( -0.0103617 -0.00382408 0.00157211 ) 0 
( -0.00623057 -0.00553815 0.00503772 ) 0 
( -0.0100632 -0.00114045 0.00122302 ) 0 
( -0.00321018 -0.00107925 0.00344362 ) 0 
( -0.00556038 -0.0111486 0.00313321 ) 0 
( -0.00695246 -0.00221703 0.0034175 ) 0 
( -0.011517 -0.00459744 0.00496533 ) 0 
( -0.0133171 -0.000950426 0.00446052 ) 0 
( -0.00173629 -0.0103562 0.00357031 ) 0 
( -0.00621365 -0.00393036 0.00330631 ) 0 
( -0.0109752 -0.00434644 0.00416447 ) 0 
( -0.00801306 -0.00785851 0.00701068 ) 0 
( -0.00321572 -0.00875333 0.000499738 ) 0 
( -0.00786171 -0.00454281 0.00131306 ) 0 
( -0.0066979 -0.011464 0.00574023 ) 0 
( -0.00605651 -0.00288283 0.000499308 ) 0 
( -4.28914e-05 -0.00637856 0.00293854 ) 0 
( -0.00102682 -0.00581227 0.00589381 ) 0 
( -0.00469094 -0.0116386 0.00308262 ) 0 
( -0.00389634 -0.00166606 0.00703449 ) 0 
( -0.008977 -0.00914341 0.00461848 ) 0 
( -0.0127438 -0.00397944 0.00135341 ) 0 
( -0.00994335 -0.00890863 0.00452874 ) 0 
( -0.000908302 -0.00130905 0.00841053 ) 0 
( -0.00182227 -0.00477204 0.00408689 ) 0 
( -0.000379518 -0.00255245 0.00548077 ) 0 
( -0.00760639 -0.0109731 0.0046899 ) 0 
( -0.00477436 -0.0110315 0.00117858 ) 0 
( -0.00293357 -0.00301203 0.0074 ) 0 
( -0.00538215 -0.0077224 0.00402356 ) 0 
( -0.00711906 -0.00145053 0.00512437 ) 0 
( -0.0110283 -0.00564798 0.00611594 ) 0 
( -0.00667846 -0.00617064 0.00183304 ) 0 
( -0.00713159 -0.00794905 0.0040748 ) 0 
( -0.000258205 -0.0133479 0.00688838 ) 0 
( -0.00924412 -0.00963196 0.00646564 ) 0 
( -0.00526857 -0.0103468 0.00641132 ) 0 
( -0.00370667 -0.012826 0.00527271 ) 0 
( -0.00295876 -0.00274494 0.00540809 ) 0 
( -0.0107719 -0.000964349 0.0058115 ) 0 
( -0.00878826 -0.00340687 0.00481351 ) 0 
( -0.00269 -0.00247983 0.00249031 ) 0 
( -0.0113625 -0.00486482 0.00340329 ) 0 
( -0.0114533 -0.00208871 0.000499559 ) 0 
( -0.00588099 -0.0119858 0.00598525 ) 0 
( -0.00542581 -0.0112562 0.00193209 ) 0 
( -8.69076e-05 -0.00886781 0.000498442 ) 0 
( -0.0125215 -0.00116387 0.00133399 ) 0 
( -0.0115664 -0.00666898 0.00313871 ) 0 
( -0.00666238 -0.00778086 0.00248967 ) 0 
( -0.00435037 -0.00410112 0.00216192 ) 0 
( -0.0121391 -0.00555641 0.00380931 ) 0 
( -0.00250363 -0.00419852 0.00124213 ) 0 
( -0.00340348 -0.00492469 0.00279555 ) 0 
( -0.00778658 -0.00635096 0.000498637 ) 0 
( -0.00669559 -0.0106308 0.00630485 ) 0 
( -0.00888622 -0.00257582 0.00601896 ) 0 
( -0.00874084 -0.00646917 0.00617142 ) 0 
( -0.00212333 -0.00638729 0.00531727 ) 0 
( -0.000772852 -0.0125201 0.000497936 ) 0 
( -0.00645827 -0.00819362 0.00337714 ) 0 
( -0.00389002 -0.00310486 0.00299603 ) 0 
( -0.00260444 -0.00904832 0.00389074 ) 0 
( -1.6055e-05 -0.0111188 0.000496455 ) 0 
( -0.00310608 -0.00650796 0.00080627 ) 0 
( -0.00586033 -0.0119965 0.00705189 ) 0 
( -0.00534049 -0.0122354 0.00215892 ) 0 
( -0.00218741 -0.00117104 0.00184639 ) 0 
( -0.00100502 -0.00660652 0.00308203 ) 0 
( -0.00434985 -0.0126221 0.00169543 ) 0 
( -0.0102055 -0.00860745 0.000499936 ) 0 
( -0.00436198 -0.00911257 0.00566671 ) 0 
( -0.0107945 -0.00314496 0.000982802 ) 0 
( -0.00399745 -0.00501857 0.00197876 ) 0 
( -0.00183772 -0.00168189 0.00426204 ) 0 
( -0.00856471 -0.00906139 0.00339615 ) 0 
( -0.00732976 -0.00991904 0.000498959 ) 0 
( -0.000662586 -0.00670195 0.00616634 ) 0 
( -0.00693578 -0.00273084 0.00641551 ) 0 
( -0.00500589 -0.00814093 0.00319726 ) 0 
( -0.00617931 -0.0069764 0.0021466 ) 0 
( -0.00252295 -0.000550764 0.00113841 ) 0 
( -0.00527603 -0.00545108 0.00128132 ) 0 
( -0.00959953 -0.00692954 0.000497954 ) 0 
( -0.00295015 -0.00648267 0.00747248 ) 0 
( -0.0074087 -0.00769297 0.00314889 ) 0 
( -0.00105824 -0.000835861 0.00668182 ) 0 
( -0.00016267 -0.0103713 0.00255608 ) 0 
( -0.00328794 -0.00481792 0.00124674 ) 0 
( -0.00988535 -0.00585344 0.00504042 ) 0 
( -0.00299493 -0.00129668 0.004492 ) 0 
( -0.00389344 -0.00210935 0.00221353 ) 0 
( -0.00565612 -0.000687961 0.00386135 ) 0 
( -0.00757273 -0.00893009 0.00611896 ) 0 
( -0.00769547 -0.00603933 0.0063702 ) 0 
( -0.0015182 -0.00787343 0.00606252 ) 0 
( -0.00747397 -0.0100405 0.00699532 ) 0 
( -0.00640837 -0.00632346 0.00440747 ) 0 
( -0.000652829 -0.012583 0.00244136 ) 0 
( -0.000182577 -0.00400592 0.00180213 ) 0 
( -0.000261836 -0.00237753 0.00367037 ) 0 
( -0.00906226 -0.00383381 0.00277171 ) 0 
( -0.00992801 -9.12854e-05 0.00567447 ) 0 
( -0.0106298 -0.00407453 0.0050619 ) 0 
( -0.0102682 -0.000932848 0.00389588 ) 0 
( -0.0109834 -0.005819 0.000500049 ) 0 
( -0.00355628 -0.00229472 0.00627519 ) 0 
( -0.00121445 -0.0132947 0.00384155 ) 0 
( -0.00818628 -0.00526081 0.00192582 ) 0 
( -0.00544695 -0.00115552 0.00667616 ) 0 
( -0.00456238 -0.0125496 0.00270142 ) 0 
( -0.0129713 -0.00281331 0.00639136 ) 0 
( -0.00323466 -0.00300213 0.000499687 ) 0 
( -0.00518065 -0.00681622 0.00219381 ) 0 
( -0.000283455 -0.00887666 0.00612673 ) 0 
( -0.00474698 -0.0108169 0.00252012 ) 0 
( -0.0101331 -0.00379393 0.003188 ) 0 
( -0.004649 -0.008527 0.00146619 ) 0 
( -0.00210867 -0.012381 0.00702149 ) 0 
( -0.00261645 -0.00934962 0.00244531 ) 0 
( -0.0117787 -0.0011111 0.00283668 ) 0 
( -0.00304773 -0.0122422 0.000498052 ) 0 
( -0.00420618 -0.00915024 0.00715665 ) 0 
( -0.00431936 -0.00171352 0.00140116 ) 0 
( -0.00808478 -0.00142724 0.00655716 ) 0 
( -0.00590611 -0.00532714 0.00356737 ) 0 
( -0.00199091 -0.0132025 0.00161179 ) 0 
( -0.0027434 -0.0104546 0.00403267 ) 0 
( -0.00478285 -0.00189401 0.00654639 ) 0 
( -0.00884559 -0.0100002 0.000499243 ) 0 
( -0.0123901 -0.00497301 0.00527188 ) 0 
( -0.00155265 -0.00924181 0.00505195 ) 0 
( -0.00555514 -0.00747983 0.00154661 ) 0 
( -0.0113488 -0.00703258 0.00478989 ) 0 
( -0.0118289 -0.00377696 0.00544376 ) 0 
( -0.00321864 -0.0112597 0.000498574 ) 0 
( -0.00757036 -0.00993278 0.00215413 ) 0 
( -0.0029838 -0.00974672 0.00328535 ) 0 
( -0.00773782 -0.00669764 0.00324122 ) 0 
( -0.0100493 -0.00735291 0.00434148 ) 0 
( -0.00248573 -0.00600481 0.00215838 ) 0 
( -0.0101546 -0.00866859 0.00293168 ) 0 
( -0.00860245 -0.009388 0.00573893 ) 0 
( -0.0106138 -0.000968079 0.00203966 ) 0 
( -0.00579512 -0.00833304 0.00633288 ) 0 
( -0.011519 -0.00482148 0.00241719 ) 0 
( -0.00651979 -0.00749107 0.00128621 ) 0 
( -0.00768419 -0.00349917 0.00678507 ) 0 
( -0.00799932 -0.0025854 0.00331953 ) 0 
( -0.00260259 -0.00597715 0.00315078 ) 0 
( -0.00164289 -0.00585198 0.0033971 ) 0 
( -0.00975331 -0.00440137 0.00232632 ) 0 
( -0.00824274 -0.00737079 0.00270182 ) 0 
( -0.00301528 -0.00948925 0.00629947 ) 0 
( -0.00320283 -0.00964915 0.00441742 ) 0 
( -0.00125471 -0.00197943 0.000498692 ) 0 
( -0.00687466 -0.00370576 0.000761625 ) 0 
( -0.0059773 -0.00231671 0.00321843 ) 0 
( -0.00167315 -0.00499899 0.00600056 ) 0 
( -0.00691179 -0.00417986 0.0039775 ) 0 
( -0.0014791 -0.00354914 0.000915891 ) 0 
( -0.00281363 -0.0130503 0.00488452 ) 0 
( -0.001365 -0.0132809 0.00238599 ) 0 
( -0.00108423 -0.00881271 0.000498364 ) 0 
( -0.0106111 -0.00641223 0.00154372 ) 0 
( -0.00619282 -0.00181842 0.00664146 ) 0 
( -0.0121657 -0.00303797 0.00486081 ) 0 
( -0.0113652 -0.0029406 0.00573603 ) 0 
( -0.0106754 -0.000167369 0.00449838 ) 0 
( -0.000836288 -0.00221532 0.00465818 ) 0 
( -0.00054121 -0.0108226 0.00336395 ) 0 
( -0.00941556 -0.00330311 0.00558448 ) 0 
( -0.004886 -0.0113645 0.00506008 ) 0 
( -0.00681208 -0.00906395 0.000498853 ) 0 
( -0.000792085 -0.00295436 0.00049968 ) 0 
( -0.00619238 -0.00726712 0.00365861 ) 0 
( -0.0115455 -0.00631833 0.00545941 ) 0 
( -8.85228e-05 -0.00558959 0.000499257 ) 0 
( -0.000202936 -0.00752213 0.00181964 ) 0 
( -0.00186709 -0.00779816 0.0028745 ) 0 
( -0.00328393 -0.00508416 0.00523048 ) 0 
( -0.00277646 -0.00525154 0.00607552 ) 0 
( -0.000703558 -0.00587709 0.00378115 ) 0 
( -0.00638605 -0.00328506 0.00579188 ) 0 
( -0.00603548 -0.0100743 0.00580047 ) 0 
( -0.00220815 -0.011464 0.000498781 ) 0 
( -0.00181788 -0.00741948 0.00379769 ) 0 
( -0.00573011 -0.0093767 0.00212463 ) 0 
( -0.00897592 -0.0062193 0.00523234 ) 0 
( -0.00859096 -0.0019024 0.00727677 ) 0 
( -0.00068831 -0.0100961 0.00628465 ) 0 
( -0.00773629 -0.002823 0.00425363 ) 0 
( -0.00474592 -0.0112524 0.00687314 ) 0 
( -0.00753607 -0.00732396 0.00477017 ) 0 
( -0.00418464 -0.011646 0.00435838 ) 0 
( -0.00934389 -0.00148734 0.00354075 ) 0 
( -0.00214192 -0.00131371 0.000499788 ) 0 
( -0.00920721 -0.00746 0.00381483 ) 0 
( -0.0114315 -0.00207074 0.00242454 ) 0 
( -0.00604402 -0.00983154 0.00677589 ) 0 
( -0.0123037 -0.00167343 0.00630192 ) 0 
( -0.00403465 -0.00823034 0.000735275 ) 0 
( -0.00463319 -0.00544713 0.00608274 ) 0 
( -0.00554868 -0.00581442 0.00436162 ) 0 
( -0.00827801 -0.00675132 0.00127184 ) 0 
( -0.00292406 -0.0130105 0.00191002 ) 0 
( -0.00766304 -0.000678953 0.00221829 ) 0 
( -0.0073402 -0.00339284 0.00353384 ) 0 
( -0.0114721 -0.00108054 0.00471048 ) 0 
( -0.00526618 -0.00114753 0.00197869 ) 0 
( -0.00389019 -0.00308418 0.00199752 ) 0 
( -0.00167977 -0.00822266 0.00738507 ) 0 
( -0.00467701 -0.00561699 0.000498924 ) 0 
( -0.0109016 -3.67322e-05 0.00546139 ) 0 
( -0.000250342 -0.00430637 0.00562584 ) 0 
( -0.00236949 -0.00487164 0.00690566 ) 0 
( -0.0030783 -0.00606502 0.0050627 ) 0 
( -0.00236309 -0.0092757 0.000499777 ) 0 
( -0.00477241 -0.003814 0.00561584 ) 0 
( -0.00862716 -0.000447184 0.00210195 ) 0 
( -0.00488233 -0.00642468 0.00105085 ) 0 
( -0.00597705 -0.0101205 0.00476929 ) 0 
( -0.00230064 -0.0103189 0.00274711 ) 0 
( -0.0104838 -0.0010779 0.00486083 ) 0 
( -0.00767279 -0.00904302 0.00259525 ) 0 
( -0.0100229 -0.0076437 0.00105329 ) 0 
( -0.00134925 -0.00322228 0.00331618 ) 0 
( -0.00681741 -0.0104763 0.00532463 ) 0 
( -0.00294006 -0.00833462 0.00611486 ) 0 
( -0.00291786 -0.000593859 0.00227303 ) 0 
( -0.00142122 -0.0124652 0.00125413 ) 0 
( -0.00328605 -0.00144738 0.00780649 ) 0 
( -0.00656639 -0.00606893 0.00345379 ) 0 
( -0.00152867 -0.00394964 0.00471347 ) 0 
( -0.0103824 -0.00254543 0.00472865 ) 0 
( -0.00377454 -0.00742914 0.00303876 ) 0 
( -0.00823394 -0.0105118 0.00377967 ) 0 
( -0.00230555 -0.000876345 0.00390155 ) 0 
( -0.00214487 -0.00329473 0.00795924 ) 0 
( -9.60856e-05 -0.00341204 0.00416195 ) 0 
( -0.0104722 -0.00233237 0.000499215 ) 0 
( -0.00405763 -0.00347785 0.0043789 ) 0 
( -0.00181392 -0.00148188 0.00657662 ) 0 
( -0.001005 -0.00732034 0.00457829 ) 0 
( -0.00569554 -0.0037487 0.00524021 ) 0 
( -0.0003947 -0.00339713 0.0060157 ) 0 
( -0.00371142 -0.00676943 0.00568607 ) 0 
( -0.0118379 -3.04586e-06 0.00580337 ) 0 
( -0.00679102 -0.00888752 0.00413057 ) 0 
( -0.0124969 -0.00469617 0.0041714 ) 0 
( -0.00238617 -0.0122709 0.00142943 ) 0 
( -0.00223716 -0.00336766 0.00510923 ) 0 
( -0.00130628 -0.00662139 0.0014291 ) 0 
( -0.0125487 -0.00455782 0.000499216 ) 0 
( -0.00127691 -0.00821241 0.00510385 ) 0 
( -0.00996131 -0.00279121 0.00140591 ) 0 
( -0.00317529 -0.0102494 0.00226991 ) 0 
( -0.00384436 -0.0019461 0.00319812 ) 0 
( -0.00655979 -0.0116273 0.00306455 ) 0 
( -0.0113655 -0.00489522 0.000499705 ) 0 
( -0.000454401 -0.0083477 0.00233242 ) 0 
( -0.00419989 -0.00567284 0.00521039 ) 0 
( -0.00855936 -0.00747871 0.00626545 ) 0 
( -0.00068675 -0.00890194 0.00468819 ) 0 
( -0.00700586 -0.00415716 0.00640237 ) 0 
( -0.00434175 -0.00987296 0.0063151 ) 0 
( -0.00758645 -1.96358e-05 0.00631224 ) 0 
( -0.00823262 -0.00939668 0.00670757 ) 0 
( -0.011542 -0.00401629 0.00182611 ) 0 
( -0.00179966 -0.00713659 0.00212922 ) 0 
( -0.00982164 -0.00239553 0.00571577 ) 0 
( -0.00802961 -0.00830877 0.00432799 ) 0 
( -0.00162781 -0.00928124 0.00377684 ) 0 
( -0.010449 -0.0038067 0.00696363 ) 0 
( -0.00399847 -0.011088 0.0035468 ) 0 
( -0.000689449 -0.00084855 0.00309755 ) 0 
( -0.00585961 -0.00656198 0.00129336 ) 0 
( -0.00613381 -0.0046193 0.00444618 ) 0 
( -0.00952821 -0.00444753 0.00649805 ) 0 
( -0.00756527 -0.00811999 0.00223296 ) 0 
( -0.00514983 -0.0116617 0.000499464 ) 0 
( -0.00382594 -0.00485788 0.00603961 ) 0 
( -0.0070345 -0.000773367 0.00138675 ) 0 
( -0.00837913 -0.0103951 0.00575709 ) 0 
( -0.00642737 -0.00173268 0.00760848 ) 0 
( -0.00270645 -0.0113263 0.00135333 ) 0 
( -0.00517884 -0.0080158 0.000789644 ) 0 
( -0.00356701 -0.0114516 0.00718351 ) 0 
( -0.000328181 -0.00839031 0.00134203 ) 0 
( -0.0117469 -0.00113482 0.00566992 ) 0 
( -0.00329451 -0.00057258 0.00732139 ) 0 
( -0.0107203 -0.00422867 0.00250545 ) 0 
( -0.0108626 -0.00566776 0.0051312 ) 0 
( -0.00735065 -0.00703112 0.00212399 ) 0 
( -0.0133496 -0.000207633 0.00055856 ) 0 
( -0.00725499 -0.000347312 0.00394176 ) 0 
( -0.00886241 -0.00539853 0.00462852 ) 0 
( -0.00499252 -0.00492593 0.00208318 ) 0 
( -0.00497863 -0.00878383 0.00241044 ) 0 
( -0.00718656 -0.00182181 0.00674754 ) 0 
( -0.0128871 -0.00348553 0.000498258 ) 0 
( -0.00682336 -0.000840726 0.00781666 ) 0 
( -0.00137199 -0.0123995 0.00311114 ) 0 
( -0.00812552 -0.00736824 0.000499786 ) 0 
( -0.00331125 -0.00169456 0.00551477 ) 0 
( -0.000570309 -0.00663727 0.00210574 ) 0 
( -0.0115008 -0.00499611 0.00688624 ) 0 
( -0.00921663 -0.000568536 0.00390715 ) 0 
( -0.00278097 -0.000336916 0.00466203 ) 0 
( -0.0124001 -0.000680557 0.00627495 ) 0 
( -0.00340501 -0.00865181 0.00344475 ) 0 
( -0.00217382 -0.000183491 0.00556175 ) 0 
( -0.00705004 -0.00412922 0.00172023 ) 0 
( -0.00789391 -0.00864529 0.00144139 ) 0 
( -0.00223796 -0.000464078 0.00299382 ) 0 
( -0.000248003 -0.00912436 0.00381902 ) 0 
( -0.00760244 -0.000903003 0.00584805 ) 0 
( -0.00449417 -0.0125706 0.00467716 ) 0 
( -0.00640473 -0.0107144 0.0034419 ) 0 
( -0.000434448 -0.006017 0.00133342 ) 0 
( -0.00604254 -0.00417542 0.00608953 ) 0 
( -0.00415774 -0.0080541 0.00371764 ) 0 
( -0.00208702 -0.00761316 0.00130034 ) 0 
( -0.0077074 -0.00259934 0.00721926 ) 0 
( -0.0071747 -0.00647247 0.00527121 ) 0 
( -0.000558477 -0.00122564 0.00218143 ) 0 
( -0.00926668 -0.00836147 0.0032713 ) 0 
( -0.00271695 -0.0130742 0.000937279 ) 0 
( -0.0121765 -0.00547955 0.00205388 ) 0 
( -0.00228183 -0.00416024 0.00221476 ) 0 
( -0.00336711 -0.00424777 0.00206347 ) 0 
( -0.00459974 -0.0015298 0.00261786 ) 0 
( -0.00765665 -0.0046186 0.00337917 ) 0 
( -0.0055339 -0.00319825 0.00735584 ) 0 
( -0.00643757 -0.000291327 0.00549355 ) 0 
( -0.00717462 -0.00674323 0.00118279 ) 0 
( -0.00391623 -0.0015734 0.000498537 ) 0 
( -0.00271261 -0.00199279 0.00383298 ) 0 
( -0.00652913 -0.00268546 0.00732675 ) 0 
( -0.00343057 -0.00361789 0.00129065 ) 0 
( -0.00315536 -0.00882691 0.00706379 ) 0 
( -0.00238716 -0.00354326 0.000498351 ) 0 
( -0.00525155 -0.0052474 0.00687661 ) 0 
( -0.00695764 -0.0013837 0.00217426 ) 0 
( -0.00455899 -0.00475037 0.0053409 ) 0 
( -0.0132132 -0.00191118 0.00471128 ) 0 
( -0.0045814 -0.000177037 0.0025762 ) 0 
( -0.010876 -0.00181404 0.00137576 ) 0 
( -0.00394264 -0.00775319 0.00210934 ) 0 
( -0.00303456 -0.00706271 0.00501452 ) 0 
( -0.000943594 -0.00451838 0.00140473 ) 0 
( -0.0121734 -0.00548379 0.00049785 ) 0 
( -0.00702443 -0.00741869 0.00622912 ) 0 
( -0.00415293 -0.00397973 0.00638218 ) 0 
( -0.00560409 -0.00601316 0.000497942 ) 0 
( -0.00674656 -0.0083583 0.00602618 ) 0 
( -0.0013494 -0.000181627 0.00344111 ) 0 
( -0.00579825 -0.00769706 0.00556177 ) 0 
( -0.00598673 -0.000434874 0.00720447 ) 0 
( -0.0057846 -0.00646199 0.0029077 ) 0 
( -0.0123971 -0.00495857 0.003045 ) 0 
( -0.0102034 -0.00860981 0.00150308 ) 0 
( -0.00377159 -0.00561204 0.00431104 ) 0 
( -0.0038045 -0.00654204 0.00665357 ) 0 
( -0.00404256 -0.00856595 0.00268073 ) 0 
( -0.0120329 -0.00359083 0.00258665 ) 0 
( -0.00197189 -0.0059324 0.00619342 ) 0 
( -0.00788388 -0.000499906 0.00317599 ) 0 
( -0.000886529 -0.00985009 0.0034266 ) 0 
( -0.00462444 -0.00258445 0.003491 ) 0 
( -0.0101398 -0.00571194 0.00408556 ) 0 
( -0.00800389 -0.0106578 0.000499577 ) 0 
( -0.0100258 -0.00668143 0.00252904 ) 0 
( -0.00242124 -0.00948604 0.00548166 ) 0 
( -0.000446536 -0.00527272 0.00670907 ) 0 
( -0.00784711 -0.00906815 0.00516757 ) 0 
( -0.00199063 -0.00675794 0.00303406 ) 0 
( -0.00371573 -0.00769009 0.0060715 ) 0 
( -0.00113453 -0.0065862 0.0052454 ) 0 
( -0.00842828 -0.0050344 0.00563131 ) 0 
( -0.00257123 -0.00140341 0.00274624 ) 0 
( -0.000801177 -0.00285012 0.00256804 ) 0 
( -0.00929884 -0.00255031 0.00487848 ) 0 
( -0.00295192 -0.000145069 0.00368826 ) 0 
( -0.00458038 -0.00726634 0.0014948 ) 0 
( -0.00506377 -0.00300583 0.000499787 ) 0 
( -0.00374229 -0.0128165 0.000926419 ) 0 
( -0.0131056 -0.00151864 0.00290777 ) 0 
( -0.00705848 -0.00383006 0.00267419 ) 0 
( -0.00883443 -0.00214698 0.00298963 ) 0 
( -0.0109114 -0.00462867 0.00134964 ) 0 
( -0.00363761 -0.0110231 0.00515693 ) 0 
( -0.00676914 -0.00908188 0.0030392 ) 0 
( -0.0028533 -0.00521928 0.00433842 ) 0 
( -0.00988659 -0.00753674 0.00203484 ) 0 
( -3.50751e-05 -0.000149427 0.00481257 ) 0 
( -0.00781888 -0.00691062 0.00589688 ) 0 
( -0.00705825 -0.0110985 0.000499099 ) 0 
( -0.00839464 -0.0103816 0.00675438 ) 0 
( -0.012216 -0.00241224 0.00563687 ) 0 
( -0.00783541 -0.00279585 0.00119875 ) 0 
( -0.000696943 -0.0124391 0.00384738 ) 0 
( -0.00985155 -0.00631753 0.00592344 ) 0 
( -0.00362702 -0.00856276 0.00161805 ) 0 
( -0.0047804 -0.000399573 0.00446974 ) 0 
( -0.000548269 -0.00111945 0.00480613 ) 0 
( -0.00119499 -0.00341254 0.00824538 ) 0 
( -0.00784976 -0.00549499 0.00100968 ) 0 
( -0.00517764 -0.00340575 0.00335165 ) 0 
( -0.00782487 -0.00186377 0.00569668 ) 0 
( -0.00475991 -0.0088756 0.000498718 ) 0 
( -0.00164079 -0.00687577 0.00605759 ) 0 
( -0.00448278 -0.00421988 0.00386255 ) 0 
( -0.00405214 -0.00135856 0.00609469 ) 0 
( -0.00895024 -0.00990566 0.00743444 ) 0 
( -0.0069943 -0.00570255 0.0069967 ) 0 
( -0.0068677 -0.00315484 0.00461922 ) 0 
( -0.00739677 -0.00184064 0.00424771 ) 0 
( -0.00459804 -0.00458742 0.00123033 ) 0 
( -0.000731084 -0.0133311 0.00600777 ) 0 
( -0.00852991 -0.00263044 0.00049875 ) 0 
( -0.000524462 -0.00765719 0.00648851 ) 0 
( -0.0013809 -0.00655808 0.00405389 ) 0 
( -0.00689979 -0.00314646 0.00181027 ) 0 
( -0.00990752 -0.00174364 0.00435692 ) 0 
( -0.00277335 -0.00880095 0.004844 ) 0 
( -0.00701784 -0.00571195 0.00049967 ) 0 
( -6.28688e-06 -0.00157055 0.00299262 ) 0 
( -0.00566106 -0.00594963 0.00205801 ) 0 
( -0.00797283 -0.0039628 0.00406014 ) 0 
( -0.00967864 -0.000490357 0.00479273 ) 0 
( -0.00879814 -0.00633076 0.000499787 ) 0 
( -0.00966698 -0.00673409 0.00147415 ) 0 
( -0.00128248 -0.00486402 0.00325128 ) 0 
( -0.00155774 -0.00128437 0.00762214 ) 0 
( -0.0057397 -0.00269522 0.00648196 ) 0 
( -0.0131776 -0.00214169 0.00568214 ) 0 
( -0.00433381 -0.00514273 0.00351097 ) 0 
( -0.00718004 -0.00253898 0.00534127 ) 0 
( -0.006733 -0.00889536 0.00205757 ) 0 
( -0.0013435 -0.00165948 0.00162525 ) 0 
( -0.00587677 -0.00919074 0.00439781 ) 0 
( -0.0114038 -0.00287582 0.00301399 ) 0 
( -0.00775226 -0.00200342 0.000499823 ) 0 
( -0.000584736 -0.00306174 0.00161546 ) 0 
( -0.00546573 -0.0044437 0.00372452 ) 0 
( -0.00206023 -0.000974721 0.00493287 ) 0 
( -0.000921106 -0.00919121 0.0014081 ) 0 
( -0.00542116 -0.00199254 0.00139197 ) 0 
( -0.00568305 -0.00646454 0.00510771 ) 0 
( -0.00187413 -0.0132179 0.00458823 ) 0 
( -0.0100013 -0.00600455 0.000499142 ) 0 
( -0.0117078 -0.0064122 0.00409358 ) 0 
( -0.00179793 -0.0092863 0.00187731 ) 0 
( -0.00180038 -0.0132284 0.00658968 ) 0 
( -0.0119996 -0.0048764 0.00127259 ) 0 
( -0.00888503 -0.00697266 0.00204792 ) 0 
( -0.0016979 -0.0122225 0.0021829 ) 0 
( -0.00272624 -0.0130698 0.00388896 ) 0 
( -0.00170309 -0.002473 0.00664416 ) 0 
( -0.000236374 -0.0029266 0.00774394 ) 0 
( -0.0128802 -0.00346775 0.00310361 ) 0 
( -0.000562461 -0.0133394 0.00308564 ) 0 
( -0.00266712 -0.00286961 0.004355 ) 0 
( -0.00795341 -0.00422582 0.00608976 ) 0 
( -0.00452256 -0.00722915 0.0041484 ) 0 
( -0.00349379 -0.00826687 0.00528611 ) 0 
( -0.0111845 -0.00324439 0.00480211 ) 0 
( -0.0103093 -0.00483995 0.000497865 ) 0 
( -0.00574654 -0.000982408 0.00569967 ) 0 
( -0.00817975 -0.00682422 0.00691895 ) 0 
( -0.0119964 -0.00586154 0.0069205 ) 0 
( -0.00308986 -0.0119042 0.00521232 ) 0 
( -0.00673628 -0.00936222 0.0057595 ) 0 
( -0.00345363 -0.00266102 0.00377603 ) 0 
( -0.00897811 -0.000926808 0.00129673 ) 0 
( -0.00393426 -0.00217389 0.00803344 ) 0 
( -0.00209528 -0.00333624 0.0069623 ) 0 
( -0.0051161 -0.0102129 0.00543322 ) 0 
( -0.00222076 -0.00821139 0.00543196 ) 0 
( -0.00859091 -0.00321672 0.00381994 ) 0 
( -0.0064449 -0.00222514 0.0023365 ) 0 
( -0.0103035 -0.00495271 0.00471421 ) 0 
( -0.00316613 -0.00570616 0.00688199 ) 0 
( -0.000699543 -0.000421837 0.00550665 ) 0 
( -0.00780709 -0.00353965 0.00494806 ) 0 
( -0.00579139 -0.00542583 0.0060526 ) 0 
( -0.0101008 -0.0087292 0.00619748 ) 0 
( -0.00884056 -0.000805381 0.00301055 ) 0 
( -0.0129231 -0.00335424 0.0021114 ) 0 
( -0.0122266 -0.00312565 0.00132053 ) 0 
( -0.00631258 -0.0117637 0.000499246 ) 0 
( -0.00117095 -0.00104926 0.000852853 ) 0 
( -0.00148547 -0.0132638 0.0004998 ) 0 
( -0.00228166 -0.00305519 0.00136363 ) 0 
( -0.00807809 -0.00117951 0.00501356 ) 0 
( -0.00543623 -0.00930161 0.00601406 ) 0 
( -0.00590942 -0.00842541 0.00237292 ) 0 
( -0.00618926 -0.00399688 0.00220861 ) 0 
( -0.00475972 -0.00262704 0.00770031 ) 0 
( -0.008113 -0.00947726 0.000931746 ) 0 
( -0.00281936 -0.0110991 0.00599524 ) 0 
( -0.00300949 -0.00428321 0.00598686 ) 0 
( -0.00541175 -0.0120462 0.00417837 ) 0 
( -0.00794828 -0.00117598 0.00751454 ) 0 
( -0.00345636 -0.000289843 0.00637606 ) 0 
( -0.000575816 -0.00804598 0.00761584 ) 0 
( -0.0124878 -0.000646862 0.00518628 ) 0 
( -0.00378777 -0.00657454 0.00457722 ) 0 
( -0.00358993 -0.00582553 0.00598561 ) 0 
( -0.00554462 -0.0121454 0.00319231 ) 0 
( -0.00839966 -0.00340298 0.00574081 ) 0 
( -0.00564751 -0.00495084 0.000499691 ) 0 
( -0.00948352 -0.00842888 0.00223218 ) 0 
( -0.00230464 -0.00664107 0.00138824 ) 0 
( -0.00546056 -0.00419861 0.001551 ) 0 
( -0.00937934 -0.00168239 0.000499297 ) 0 
( -0.00740375 -0.00499509 0.00248987 ) 0 
( -0.0112757 -0.00530134 0.00429964 ) 0 
( -0.00839755 -0.00432633 0.000498594 ) 0 
( -0.0005423 -0.00126787 0.00742036 ) 0 
( -0.00391552 -0.00408993 0.0074479 ) 0 
( -0.000104942 -0.00620607 0.00682937 ) 0 
( -0.000962959 -0.0126421 0.00683971 ) 0 
( -2.15273e-05 -0.0102862 0.00556475 ) 0 
( -0.00548006 -0.00270268 0.00399517 ) 0 
( -0.00998507 -0.00428287 0.0040457 ) 0 
( -0.0105946 -0.00682956 0.000499788 ) 0 
( -0.00018426 -0.00787359 0.00049894 ) 0 
( -0.0105767 -0.00814795 0.00465959 ) 0 
( -0.00667004 -0.00123039 0.00599061 ) 0 
( -0.00322326 -0.00363099 0.00385076 ) 0 
( -0.00769937 -0.00799999 0.00577517 ) 0 
( -0.00807359 -0.00931684 0.00422725 ) 0 
( -0.00575839 -0.00889914 0.000498891 ) 0 
( -0.0126825 -0.00405559 0.00500323 ) 0 
( -0.00737421 -0.00341955 0.00583904 ) 0 
( -0.00561306 -0.00711875 0.000499789 ) 0 