/*--------------------------------*- C++ -*----------------------------------*\
| =========                 |                                                 |
| \\      /  F ield         | OpenFOAM: The Open Source CFD Toolbox           |
|  \\    /   O peration     | Version:  2506                                  |
|   \\  /    A nd           | Website:  www.openfoam.com                      |
|    \\/     M anipulation  |                                                 |
\*---------------------------------------------------------------------------*/
FoamFile
{
    version     2.0;
    format      ascii;
    arch        "LSB;label=32;scalar=64";
    class       surfaceScalarField;
    location    "0.1";
    object      phi;
}
// * * * * * * * * * * * * * * * * * * * * * * * * * * * * * * * * * * * * * //

dimensions      [0 3 -1 0 0 0 0];

oriented        oriented;

internalField   nonuniform List<scalar> 
3120
(
9.96309e-09
4.44495e-09
4.09323e-08
3.29214e-09
-1.17567e-08
-6.91626e-09
9.41933e-08
-5.88832e-09
3.55509e-09
2.87193e-09
4.12337e-08
1.9606e-10
-9.15293e-10
5.29795e-08
1.66463e-09
9.37133e-09
-2.86274e-09
-5.69516e-09
7.61943e-08
2.12509e-10
-2.71727e-09
5.1898e-08
-7.64867e-10
-3.5331e-10
6.34501e-08
3.45317e-09
5.14521e-08
2.43611e-09
-7.82159e-10
3.33456e-09
5.36186e-08
2.54361e-09
9.39676e-10
5.21161e-08
1.00269e-09
-2.5808e-09
6.20747e-08
2.82098e-09
6.63508e-08
-5.66999e-09
-2.53601e-09
5.91914e-08
-1.25333e-09
5.01518e-08
4.51624e-09
4.90595e-08
6.92448e-08
2.19682e-09
9.43952e-10
-2.17033e-09
3.30971e-08
5.35073e-09
6.57137e-09
4.1196e-09
7.8081e-08
6.36529e-09
5.42966e-09
1.14593e-09
3.75656e-08
3.66387e-09
1.35642e-09
4.99597e-08
2.76115e-09
4.33187e-09
7.22334e-09
1.9272e-09
6.47279e-08
4.15094e-09
1.84176e-09
5.72482e-08
5.22818e-09
3.17161e-09
6.03471e-08
-8.49124e-10
5.74548e-08
1.43094e-09
3.97477e-09
1.64037e-09
4.87083e-08
6.57878e-09
2.49901e-09
4.88549e-08
6.73247e-10
2.02117e-09
6.91306e-08
8.37247e-09
5.18782e-08
5.92414e-09
7.69379e-09
5.56962e-08
7.10351e-09
5.44411e-08
4.97184e-09
5.62696e-08
7.466e-08
6.48673e-10
-4.53595e-09
-1.0922e-09
4.70305e-08
-5.62329e-09
4.91512e-09
1.54431e-09
6.57914e-08
1.2942e-09
-3.3939e-09
-1.67545e-09
4.97635e-08
-2.21346e-09
1.52472e-09
5.18953e-08
-1.03418e-09
-5.82009e-09
1.99262e-10
2.67064e-10
6.65264e-08
1.4155e-09
1.76675e-09
5.58095e-08
2.27267e-10
-2.07482e-09
6.19347e-08
3.00356e-09
5.48073e-08
1.39594e-09
2.41086e-09
-2.61632e-10
4.70466e-08
-7.27089e-10
-6.14697e-10
5.43743e-08
6.06409e-09
6.24505e-09
5.40195e-08
-1.99682e-09
5.76443e-08
5.29836e-09
3.06925e-09
6.16772e-08
1.64159e-09
6.41087e-08
-6.81403e-09
7.15298e-08
5.0321e-08
-7.91162e-10
-4.3705e-09
-1.48653e-09
5.46924e-08
-2.29344e-09
3.08107e-09
3.92451e-09
4.85777e-08
5.83757e-09
2.16392e-09
3.0388e-09
5.03905e-08
-2.74869e-09
3.31181e-09
5.85942e-08
-4.73254e-09
-3.11428e-09
-2.41604e-09
3.72023e-09
5.09432e-08
1.59076e-09
4.89275e-09
5.08345e-08
3.43549e-09
2.37264e-09
6.07561e-08
3.17518e-09
6.11309e-08
-2.75154e-09
1.00751e-09
-1.33192e-09
5.42254e-08
-9.83209e-10
3.36733e-09
5.78904e-08
4.82962e-09
1.92917e-10
5.03864e-08
1.41695e-09
6.81351e-08
-3.90292e-09
5.34832e-09
5.86061e-08
-8.14643e-09
8.51674e-08
5.91706e-09
5.59291e-08
6.88268e-08
-1.22043e-10
-1.91619e-09
-4.50504e-09
5.67095e-08
1.00928e-09
-2.88655e-09
-4.82584e-09
5.72743e-08
-2.90033e-09
9.6018e-10
-8.86623e-10
4.76545e-08
-2.24097e-10
2.83443e-09
5.66689e-08
-1.78234e-09
1.83344e-09
-7.48447e-10
-1.62962e-10
4.05624e-08
5.60576e-10
2.4899e-09
4.22097e-08
4.35721e-09
1.93515e-09
5.41377e-08
-1.86976e-09
6.03652e-08
9.82713e-09
2.68319e-10
-1.45521e-09
5.0284e-08
2.8799e-10
-2.32498e-09
6.26857e-08
1.13431e-09
-1.25476e-09
5.27301e-08
6.22615e-09
5.89196e-08
2.25392e-09
-1.31851e-09
4.41208e-08
-1.38979e-09
7.72531e-08
7.19728e-09
4.12236e-08
8.41974e-08
-3.11622e-11
-4.91114e-09
-6.05353e-09
6.71359e-08
5.74983e-09
3.19081e-09
-5.02163e-09
4.69591e-08
7.23483e-09
2.51745e-09
-8.09172e-09
4.73445e-08
9.07513e-09
-5.74739e-09
6.76241e-08
3.01501e-09
-5.70541e-09
-9.81478e-10
-4.24825e-09
4.47646e-08
2.16969e-10
-2.12649e-09
3.81161e-08
6.32918e-09
-3.08073e-09
4.30145e-08
-2.34094e-09
5.49016e-08
8.38635e-09
-1.07031e-09
-3.04596e-09
4.93272e-08
-1.45805e-09
-4.03329e-09
6.49802e-08
3.653e-09
4.11061e-09
4.04276e-08
3.50607e-09
4.71045e-08
9.62113e-09
-5.29318e-10
2.79552e-08
5.85986e-09
5.62509e-08
3.33796e-09
4.47696e-08
6.67754e-08
5.40329e-09
2.62321e-09
2.24998e-09
6.1452e-08
2.91985e-09
-1.0265e-09
-3.0622e-10
4.79929e-08
2.92188e-09
-2.96095e-09
2.47148e-09
4.94399e-08
-2.63243e-09
1.11063e-09
6.36923e-08
7.51896e-12
-1.47233e-10
4.13899e-11
-1.83689e-09
4.83199e-08
5.20544e-10
-2.99297e-09
4.03232e-08
-3.68245e-09
6.60278e-10
4.90285e-08
1.43575e-09
5.3292e-08
-2.39826e-09
-8.81283e-10
3.40984e-09
4.13572e-08
4.83818e-09
8.88415e-10
5.53789e-08
-4.65924e-09
-2.80818e-09
5.33932e-08
9.63421e-10
4.63587e-08
-3.44115e-09
-3.31884e-09
5.26055e-08
-1.36926e-10
5.64603e-08
-4.10002e-09
4.96973e-08
6.25994e-08
1.25542e-09
-1.26579e-08
-6.9776e-08
7.6428e-08
5.00292e-08
1.19435e-08
-6.75795e-08
3.29887e-08
5.79822e-08
3.06394e-08
-6.78852e-08
5.02711e-08
4.83584e-08
-3.11703e-08
7.74726e-08
2.45964e-08
2.3433e-08
-1.01561e-08
-3.28064e-08
-5.07308e-09
1.40858e-08
-1.59589e-08
-3.55396e-08
6.26584e-08
-2.92405e-08
-3.81894e-08
-1.24187e-08
5.61782e-08
4.10192e-08
-1.7111e-09
-4.64111e-09
-7.94803e-09
1.03773e-08
6.32727e-09
2.1004e-08
7.48107e-08
2.53608e-08
-6.56413e-08
1.94818e-08
3.53655e-08
5.39027e-08
1.9417e-08
-9.45735e-08
2.37294e-08
2.56754e-08
4.75269e-08
1.03087e-08
6.49767e-08
3.93234e-08
1.32525e-08
5.09235e-08
5.56832e-08
-2.99128e-08
-5.83164e-09
4.18119e-08
4.5019e-08
-3.47575e-08
-1.94432e-08
4.70027e-08
4.78408e-08
-3.09609e-08
1.80026e-08
5.98223e-08
-9.98938e-09
-9.80638e-09
1.06118e-08
2.32523e-08
3.45638e-08
-1.18709e-08
-2.40019e-10
2.89954e-08
-4.74915e-08
1.53921e-08
2.90414e-08
6.7773e-09
4.98793e-08
-2.99676e-08
-2.69439e-09
1.49275e-09
3.12923e-08
-4.97781e-09
-1.13843e-08
3.44314e-08
-4.95085e-08
-2.9941e-08
2.42219e-08
-1.55281e-08
4.47634e-08
-3.66017e-08
-2.2873e-08
2.35061e-08
-1.96158e-08
3.52996e-08
-3.6923e-08
3.52654e-08
5.29941e-08
-2.27119e-08
4.23266e-09
1.58577e-08
5.58832e-08
-1.47828e-08
-1.59284e-09
1.22646e-08
5.26709e-08
-1.4091e-08
-6.4882e-09
1.22814e-08
5.32957e-08
-1.28412e-08
6.4032e-09
5.7852e-08
-5.77707e-09
-5.14405e-09
2.19762e-09
7.57249e-09
4.63623e-08
-4.36188e-09
3.22972e-09
4.45897e-08
-1.22311e-08
4.33276e-09
4.48594e-08
1.87509e-09
5.39145e-08
-1.17382e-08
1.76401e-10
-7.66909e-10
4.34395e-08
-4.49228e-09
-2.47468e-09
4.48032e-08
-1.33862e-08
-4.74946e-09
4.21973e-08
-4.52878e-09
5.22669e-08
-1.44861e-08
-2.23975e-09
4.25275e-08
-7.68651e-09
4.60537e-08
-1.29615e-08
4.64634e-08
5.49036e-08
-1.14896e-08
1.95445e-09
8.41557e-09
5.71102e-08
-8.2725e-09
-7.49423e-10
7.24219e-09
5.60164e-08
-7.88396e-09
-3.26351e-09
6.52875e-09
5.62495e-08
-6.96829e-09
3.56026e-09
5.80962e-08
-3.89782e-09
-3.17018e-09
1.09074e-09
4.37461e-09
5.30535e-08
-2.22184e-09
2.68665e-09
5.24578e-08
-6.13392e-09
2.4684e-09
5.28319e-08
8.85174e-10
5.63501e-08
-5.89447e-09
7.57268e-11
-3.97469e-10
5.14352e-08
-2.84759e-09
-1.35548e-09
5.17682e-08
-7.39764e-09
-2.46868e-09
5.16843e-08
-2.43517e-09
5.57271e-08
-7.53767e-09
-1.03184e-09
5.15143e-08
-3.95231e-09
5.25247e-08
-7.30114e-09
5.30898e-08
5.67491e-08
-6.90135e-09
9.39665e-10
4.33412e-09
5.82311e-08
-4.55853e-09
-3.84621e-10
3.80691e-09
5.78237e-08
-4.28933e-09
-1.60004e-09
3.20455e-09
5.79483e-08
-3.68768e-09
1.85815e-09
5.8705e-08
-2.30624e-09
-1.76066e-09
4.68435e-10
2.357e-09
5.64798e-08
-1.17934e-09
1.65268e-09
5.62599e-08
-2.91186e-09
1.21728e-09
5.65518e-08
3.76622e-10
5.79043e-08
-2.9843e-09
-5.42909e-11
-1.2466e-10
5.56528e-08
-1.7139e-09
-6.49503e-10
5.57301e-08
-3.68922e-09
-1.16242e-09
5.60396e-08
-1.36127e-09
5.76598e-08
-3.88392e-09
-6.31168e-10
5.57223e-08
-2.21374e-09
5.60428e-08
-3.86598e-09
5.65193e-08
5.81026e-08
-3.89713e-09
4.52255e-10
2.19763e-09
5.89722e-08
-2.43552e-09
-1.9796e-10
1.91899e-09
5.88018e-08
-2.24649e-09
-7.68593e-10
1.53782e-09
5.88691e-08
-1.8878e-09
9.13169e-10
5.91884e-08
-1.24542e-09
-9.19733e-10
1.80353e-10
1.23637e-09
5.81731e-08
-6.30826e-10
9.04266e-10
5.80858e-08
-1.38205e-09
5.77519e-10
5.82634e-08
1.25473e-10
5.88143e-08
-1.5042e-09
-1.28462e-10
8.94695e-12
5.77557e-08
-9.81062e-10
-2.91467e-10
5.77782e-08
-1.82068e-09
-5.7035e-10
5.80271e-08
-7.72822e-10
5.87166e-08
-1.97914e-09
-4.28987e-10
5.77699e-08
-1.25595e-09
5.78911e-08
-2.012e-09
5.82154e-08
5.8932e-08
-2.10592e-09
2.19517e-10
1.12617e-09
5.94046e-08
-1.29103e-09
-1.03438e-10
9.65164e-10
5.93263e-08
-1.16664e-09
-3.7709e-10
7.40545e-10
5.93604e-08
-9.58085e-10
4.31563e-10
5.95009e-08
-6.43354e-10
-4.77655e-10
5.77246e-11
6.46103e-10
5.90204e-08
-3.43271e-10
4.66522e-10
5.89854e-08
-6.82858e-10
2.6081e-10
5.90827e-08
1.29467e-11
5.93242e-08
-7.73922e-10
-1.20387e-10
2.82915e-11
5.88073e-08
-5.54951e-10
-1.44096e-10
5.88232e-08
-9.2746e-10
-3.1203e-10
5.89725e-08
-4.57996e-10
5.92865e-08
-1.02636e-09
-2.91768e-10
5.88022e-08
-7.20879e-10
5.88658e-08
-1.06713e-09
5.90581e-08
5.94014e-08
-1.13604e-09
1.04511e-10
5.8217e-10
5.96459e-08
-6.8396e-10
-5.79932e-11
4.86167e-10
5.96079e-08
-6.05166e-10
-1.93703e-10
3.56301e-10
5.96245e-08
-4.84614e-10
1.94927e-10
5.96892e-08
-3.22835e-10
-2.53939e-10
6.5868e-12
3.3451e-10
5.94547e-08
-1.92917e-10
2.3018e-10
5.9441e-08
-3.54372e-10
1.07716e-10
5.9493e-08
-3.01669e-11
5.96058e-08
-4.10572e-10
-9.78088e-11
1.53728e-11
5.93449e-08
-3.16991e-10
-8.59409e-11
5.93586e-08
-4.91141e-10
-1.87625e-10
5.94423e-08
-2.81292e-10
5.95936e-08
-5.46891e-10
-1.98626e-10
5.93373e-08
-4.17564e-10
5.93773e-08
-5.81259e-10
5.94862e-08
5.96589e-08
-6.21143e-10
4.61732e-11
3.00762e-10
5.9779e-08
-3.61032e-10
-3.63565e-11
2.42871e-10
5.976e-08
-3.12168e-10
-1.05256e-10
1.67959e-10
5.97683e-08
-2.4247e-10
8.10012e-11
5.97994e-08
-1.5666e-10
-1.39638e-10
-1.27544e-11
1.69695e-10
5.96817e-08
-1.13206e-10
1.07741e-10
5.96771e-08
-1.9248e-10
3.55651e-11
5.97051e-08
-4.15788e-11
5.97606e-08
-2.2451e-10
-7.48932e-11
1.06755e-12
5.9625e-08
-1.8531e-10
-5.89268e-11
5.96359e-08
-2.6954e-10
-1.19984e-10
5.96824e-08
-1.77237e-10
5.9759e-08
-2.99146e-10
-1.34621e-10
5.96201e-08
-2.45712e-10
5.9646e-08
-3.24762e-10
5.97076e-08
5.97979e-08
-3.45179e-10
1.6649e-11
1.53956e-10
5.98523e-08
-1.89103e-10
-2.5636e-11
1.18985e-10
5.9843e-08
-1.59171e-10
-6.1156e-11
7.5622e-11
5.98473e-08
-1.18735e-10
2.78661e-11
5.98632e-08
-7.23286e-11
-8.01779e-11
-1.88195e-11
8.31518e-11
5.98022e-08
-6.97615e-11
4.60664e-11
5.98014e-08
-1.09583e-10
4.05152e-12
5.9817e-08
-3.98841e-11
5.98459e-08
-1.26798e-10
-5.5992e-11
-7.3734e-12
5.9773e-08
-1.11864e-10
-4.32652e-11
5.97814e-08
-1.53093e-10
-7.96862e-11
5.98077e-08
-1.13968e-10
5.98482e-08
-1.68034e-10
-9.17434e-11
5.97707e-08
-1.47883e-10
5.97879e-08
-1.8616e-10
5.98232e-08
5.98721e-08
-1.95419e-10
2.09186e-12
7.7215e-11
5.98928e-08
-9.78008e-11
-1.97189e-11
5.61024e-11
5.98885e-08
-7.95487e-11
-3.81003e-11
3.09346e-11
5.98912e-08
-5.61389e-11
4.00469e-12
5.98999e-08
-3.01786e-11
-4.83367e-11
-1.9303e-11
3.81973e-11
5.98669e-08
-4.52363e-11
1.58853e-11
5.98678e-08
-6.52929e-11
-8.5949e-12
5.98769e-08
-3.3713e-11
5.98926e-08
-7.41998e-11
-4.15136e-11
-1.12152e-11
5.98521e-08
-6.98655e-11
-3.27178e-11
5.98584e-08
-9.00525e-11
-5.43365e-11
5.98738e-08
-7.45768e-11
5.98961e-08
-9.70695e-11
-6.29286e-11
5.98515e-08
-9.12263e-11
5.98631e-08
-1.09549e-10
5.98839e-08
5.99112e-08
-1.12965e-10
-4.51557e-12
3.73014e-11
5.99153e-08
-4.95423e-11
-1.57282e-11
2.4595e-11
5.99137e-08
-3.8457e-11
-2.52354e-11
9.92962e-12
5.99157e-08
-2.47227e-11
-5.42425e-12
5.99209e-08
-1.00153e-11
-3.05714e-11
-1.73686e-11
1.53887e-11
5.9902e-08
-3.06195e-11
2.11036e-12
5.99035e-08
-4.06154e-11
-1.22863e-11
5.99093e-08
-2.66724e-11
5.99184e-08
-4.49367e-11
-3.06606e-11
-1.2017e-11
5.98949e-08
-4.49689e-11
-2.48452e-11
5.98996e-08
-5.47325e-11
-3.76278e-11
5.9909e-08
-4.94466e-11
5.99219e-08
-5.7639e-11
-4.34337e-11
5.98954e-08
-5.75784e-11
5.99033e-08
-6.60845e-11
5.99159e-08
5.99318e-08
-6.6698e-11
-6.77559e-12
1.68739e-11
5.99279e-08
-2.42702e-11
-1.25337e-11
9.22689e-12
5.99278e-08
-1.75036e-11
-1.73943e-11
5.90419e-13
5.99295e-08
-9.41917e-12
-8.0704e-12
5.99329e-08
-1.29881e-12
-1.99501e-11
-1.4471e-11
4.34121e-12
5.99213e-08
-2.1202e-11
-3.53008e-12
5.99231e-08
-2.61273e-11
-1.19645e-11
5.9927e-08
-2.01702e-11
5.99326e-08
-2.79797e-11
-2.24435e-11
-1.10142e-11
5.99181e-08
-2.95675e-11
-1.86378e-11
5.99218e-08
-3.41408e-11
-2.61413e-11
5.99279e-08
-3.2963e-11
5.99357e-08
-3.50339e-11
-3.00306e-11
5.99192e-08
-3.69576e-11
5.99248e-08
-4.06654e-11
5.99328e-08
5.99424e-08
-4.01103e-11
-6.78066e-12
6.78737e-12
5.99351e-08
-1.12413e-11
-9.69518e-12
2.19036e-12
5.99357e-08
-7.14981e-12
-1.20969e-11
-2.85282e-12
5.99372e-08
-2.42086e-12
-7.77183e-12
5.99397e-08
2.1973e-12
-1.32378e-11
-1.13844e-11
-3.61966e-13
5.9932e-08
-1.47265e-11
-5.09675e-12
5.99337e-08
-1.70608e-11
-9.99173e-12
5.99366e-08
-1.46421e-11
5.99403e-08
-1.76984e-11
-1.61034e-11
-9.06874e-12
5.99309e-08
-1.9562e-11
-1.35753e-11
5.99338e-08
-2.15786e-11
-1.79336e-11
5.9938e-08
-2.18188e-11
5.9943e-08
-2.15847e-11
-2.05848e-11
5.99322e-08
-2.38452e-11
5.99363e-08
-2.52722e-11
5.99416e-08
5.99477e-08
-2.4378e-11
-5.74e-12
2.02372e-12
5.9939e-08
-4.68409e-12
-7.18637e-12
-6.71937e-13
5.99399e-08
-2.20857e-12
-8.28748e-12
-3.54752e-12
5.99414e-08
4.13143e-13
-6.29697e-12
5.99434e-08
3.03912e-12
-8.7174e-12
-8.4545e-12
-2.03312e-12
5.99377e-08
-1.00358e-11
-4.77644e-12
5.99393e-08
-1.10622e-11
-7.55216e-12
5.99416e-08
-1.01319e-11
5.99444e-08
-1.11462e-11
-1.11807e-11
-6.84194e-12
5.99376e-08
-1.2764e-11
-9.44461e-12
5.99401e-08
-1.35528e-11
-1.1916e-11
5.99431e-08
-1.40743e-11
5.99466e-08
-1.32368e-11
-1.3766e-11
5.9939e-08
-1.51867e-11
5.99422e-08
-1.55878e-11
5.99461e-08
5.99502e-08
-1.4729e-11
-4.44121e-12
-1.52385e-13
5.9941e-08
-1.34984e-12
-5.0631e-12
-1.65914e-12
5.99421e-08
-1.32082e-14
-5.51874e-12
-3.21691e-12
5.99435e-08
1.45389e-12
-4.66551e-12
5.99453e-08
2.85895e-12
-5.60154e-12
-5.93079e-12
-2.35984e-12
5.99405e-08
-6.59294e-12
-3.85994e-12
5.99421e-08
-6.97398e-12
-5.34809e-12
5.99441e-08
-6.6972e-12
5.99463e-08
-6.84188e-12
-7.41478e-12
-4.84594e-12
5.99408e-08
-8.04612e-12
-6.27044e-12
5.9943e-08
-8.26263e-12
-7.59371e-12
5.99456e-08
-8.7215e-12
5.99483e-08
-7.88533e-12
-8.82742e-12
5.99422e-08
-9.33692e-12
5.99449e-08
-9.31116e-12
5.9948e-08
5.99512e-08
-8.62006e-12
-3.52433e-12
-1.50689e-12
6.29547e-13
-3.77792e-12
-2.28531e-12
1.34892e-12
-3.91585e-12
-3.05461e-12
2.08871e-12
-3.73961e-12
2.76389e-12
-3.83711e-12
-4.28354e-12
-2.61546e-12
-4.51945e-12
-3.3841e-12
-4.58858e-12
-4.11854e-12
-4.75736e-12
-4.38069e-12
-5.0382e-12
-3.78093e-12
-5.2268e-12
-4.50608e-12
-5.1816e-12
-5.15559e-12
-5.68685e-12
-4.82233e-12
-5.75384e-12
-5.85246e-12
-5.65748e-12
-5.12107e-12
3.62299e-09
-1.80561e-09
7.6049e-08
3.82183e-09
2.17051e-09
8.00218e-08
-4.71193e-09
-1.47276e-08
9.40407e-08
8.66801e-09
4.31151e-08
2.29888e-09
4.72075e-09
8.4583e-09
4.97471e-08
-1.35552e-09
-3.84691e-09
8.59642e-08
1.95531e-09
1.04911e-09
4.49165e-08
1.49084e-08
4.71802e-08
-9.38312e-10
2.42577e-09
5.02954e-09
6.94834e-08
9.80875e-10
-4.42563e-10
6.33721e-08
5.87522e-09
-5.20939e-09
5.74057e-08
-9.84014e-09
7.65755e-08
-2.85908e-09
-2.76651e-10
7.53232e-08
-1.4211e-09
5.18126e-08
2.44212e-09
3.97969e-08
2.73404e-08
2.73425e-09
-6.97405e-10
7.23451e-09
6.90769e-08
-5.00785e-09
1.76092e-09
8.30423e-08
4.18035e-09
6.29081e-09
8.21374e-08
-8.90134e-09
5.89228e-08
-2.57524e-09
-7.43308e-09
-8.95538e-09
7.97588e-08
-5.33738e-09
-3.09999e-09
8.87294e-08
1.03161e-10
3.84177e-09
4.1925e-08
-3.97633e-09
4.27046e-08
-3.46196e-10
-3.04303e-10
-7.73573e-09
6.69874e-08
-5.94944e-10
-4.03559e-09
6.45984e-08
-1.3404e-09
-3.0107e-09
6.50035e-08
-2.54232e-09
7.50259e-08
-1.22482e-09
1.35362e-09
6.5737e-08
2.7099e-09
5.2786e-08
2.61462e-09
4.05453e-08
3.12068e-08
-1.03297e-09
-2.99664e-09
4.90569e-09
7.91709e-08
1.84067e-09
3.74906e-09
7.5352e-08
4.58327e-09
4.90594e-09
7.35878e-08
-1.59649e-08
8.33006e-08
-5.08506e-09
-7.77445e-09
-1.32301e-09
1.02277e-07
2.52874e-09
1.06382e-08
7.1537e-08
-8.23007e-10
-2.75465e-09
5.29373e-08
-1.46495e-08
4.06546e-08
-8.84188e-11
-1.1162e-09
-5.70891e-09
7.70283e-08
-4.96702e-09
-1.90199e-09
8.09894e-08
-7.19364e-09
2.15759e-09
6.23179e-08
3.98869e-09
4.75205e-08
1.67362e-09
2.53082e-09
4.8121e-08
1.03853e-09
5.36705e-08
-2.5726e-09
4.41006e-08
3.45435e-08
-2.95479e-09
-1.66168e-09
-6.36082e-09
8.55288e-08
2.36511e-09
-8.47151e-10
7.32392e-08
-5.94999e-09
-2.9095e-10
8.2959e-08
2.87256e-09
7.75783e-08
2.03445e-09
9.72421e-10
1.3326e-08
7.90534e-08
5.30122e-09
7.59038e-09
5.87707e-08
-2.97482e-09
-8.36473e-09
6.92871e-08
-3.8238e-09
4.2448e-08
1.9281e-09
-3.11759e-09
-6.00706e-10
1.01519e-07
-1.81601e-09
1.63088e-09
8.56473e-08
-1.39187e-09
2.23516e-10
5.33055e-08
3.03193e-09
3.85474e-08
7.25503e-10
-1.11241e-09
5.02812e-08
-3.46324e-09
6.34897e-08
1.1889e-09
3.69232e-08
3.3202e-08
8.29708e-10
-7.74612e-11
3.63746e-09
8.21127e-08
-7.32063e-09
-3.65036e-09
8.54499e-08
-6.30324e-09
2.89555e-09
8.10387e-08
9.17912e-09
6.20941e-08
3.22128e-09
-1.96964e-09
-2.43168e-09
8.97342e-08
-1.44922e-10
-2.01064e-10
5.34966e-08
-2.02737e-09
5.09397e-09
6.89711e-08
1.71351e-09
4.51449e-08
2.74128e-09
-4.98107e-09
9.7942e-09
9.98261e-08
1.00516e-09
3.65365e-09
7.58063e-08
-9.94209e-10
3.73412e-09
5.66647e-08
9.98199e-09
2.72289e-08
2.05571e-09
-4.26634e-09
6.96386e-08
2.73568e-10
5.97031e-08
1.40248e-09
3.93043e-08
4.09751e-08
1.82905e-09
-2.24754e-09
-1.52626e-09
8.77794e-08
-2.87951e-09
8.44604e-09
7.8764e-08
-6.3476e-09
-2.87553e-09
8.78109e-08
1.17421e-08
4.50336e-08
9.77973e-10
2.23546e-09
-3.36875e-09
8.26366e-08
-6.03199e-09
-1.67535e-09
7.18855e-08
-2.17963e-09
1.9094e-08
4.31491e-08
1.11111e-08
4.42695e-08
-6.73277e-10
1.73748e-09
1.82425e-09
8.8284e-08
2.54955e-09
-5.67286e-09
7.89917e-08
-5.29286e-09
-9.9134e-10
8.45925e-08
6.09474e-09
2.8123e-08
-1.1706e-09
-6.98492e-09
7.71048e-08
5.90945e-09
4.83708e-08
-6.14113e-09
5.94387e-08
4.86518e-08
-4.70816e-09
-1.04153e-09
3.75543e-09
8.6075e-08
2.67181e-10
-6.57606e-09
7.80141e-08
3.83371e-09
1.62607e-09
7.74117e-08
-2.59781e-09
4.44128e-08
7.53995e-10
3.50418e-09
7.55044e-11
8.46689e-08
4.69826e-09
-7.081e-09
7.11965e-08
4.07293e-10
-1.27469e-08
6.1813e-08
6.27886e-10
4.06093e-08
8.42261e-10
1.01819e-09
-2.7206e-09
9.02107e-08
-2.88621e-09
-2.68621e-09
7.85015e-08
2.68278e-09
2.53666e-09
6.37401e-08
-9.10099e-09
4.15218e-08
-9.86934e-10
-1.02136e-09
7.9493e-08
-6.75156e-09
5.43367e-08
-2.58734e-09
5.51785e-08
3.63623e-08
6.09014e-10
-6.79998e-09
-1.45139e-08
1.04426e-07
-7.59813e-09
-1.57366e-08
9.45488e-08
-3.68395e-09
-1.56535e-08
8.91509e-08
-6.95032e-09
5.05263e-08
-2.84758e-09
-5.95377e-09
-2.68674e-08
9.92642e-08
-8.0208e-09
-2.76794e-08
8.52056e-08
-2.40563e-09
-1.9197e-08
5.97404e-08
-1.1164e-08
4.39116e-08
-1.49456e-09
-7.16957e-09
-3.65362e-08
1.00165e-07
-6.1621e-09
-3.91242e-08
8.89386e-08
-1.93854e-09
-3.19584e-08
7.22771e-08
-1.54533e-08
4.43913e-08
-5.19327e-10
-1.15905e-08
9.44878e-08
-7.29184e-09
6.88959e-08
-1.30158e-09
6.55865e-08
4.45791e-08
-3.75339e-10
2.97993e-09
6.83623e-10
1.01253e-07
3.99341e-09
1.90505e-09
9.16298e-08
5.34847e-09
6.31661e-09
8.14784e-08
-1.22219e-09
5.55026e-08
1.59355e-09
5.04008e-09
3.38321e-09
9.25375e-08
6.12553e-09
4.66976e-09
8.13554e-08
3.74003e-09
2.82686e-09
6.56153e-08
-2.66714e-09
4.882e-08
2.75816e-10
5.34548e-09
1.34866e-08
8.50574e-08
5.16466e-09
1.83772e-08
7.54117e-08
3.83766e-09
1.38663e-08
6.2564e-08
1.81856e-09
4.35654e-08
1.76863e-10
1.05963e-08
7.21289e-08
4.9726e-09
5.81393e-08
2.01596e-09
5.14484e-08
3.83601e-08
6.3296e-11
3.04542e-09
2.64224e-09
9.64612e-08
3.37228e-09
2.83663e-09
8.84662e-08
3.56044e-09
4.07472e-09
7.72155e-08
3.60314e-11
5.79298e-08
1.09731e-09
3.91689e-09
5.42677e-09
8.71407e-08
4.0153e-09
5.15409e-09
7.89397e-08
2.84309e-09
3.89508e-09
6.69669e-08
4.58109e-10
5.06497e-08
5.9124e-10
4.06629e-09
1.03557e-08
7.73416e-08
3.55799e-09
1.11571e-08
6.99169e-08
2.49795e-09
8.64746e-09
5.88715e-08
2.49994e-09
4.36055e-08
4.15905e-10
5.49067e-09
6.54073e-08
3.00068e-09
5.76952e-08
1.41442e-09
4.88409e-08
3.61545e-08
3.42672e-10
2.03538e-09
2.26177e-09
9.3162e-08
2.11038e-09
2.22261e-09
8.61687e-08
1.97095e-09
2.38733e-09
7.49678e-08
7.78623e-10
5.84458e-08
6.76147e-10
2.37101e-09
4.46949e-09
8.38434e-08
2.24068e-09
4.19633e-09
7.70959e-08
1.73426e-09
3.6822e-09
6.61782e-08
1.68435e-09
5.09535e-08
5.24391e-10
2.51028e-09
6.81577e-09
7.40142e-08
2.10459e-09
6.72689e-09
6.77923e-08
1.43198e-09
5.66459e-09
5.75618e-08
2.8751e-09
4.34326e-08
4.13832e-10
2.94328e-09
6.33861e-08
1.88144e-09
5.76003e-08
9.29311e-10
4.84894e-08
3.57229e-08
3.3793e-10
1.35477e-09
1.61777e-09
9.10503e-08
1.33161e-09
1.5152e-09
8.46766e-08
1.12771e-09
1.41558e-09
7.37561e-08
6.82347e-10
5.85068e-08
3.84249e-10
1.47164e-09
3.04393e-09
8.19626e-08
1.33914e-09
2.81951e-09
7.59241e-08
1.03003e-09
2.44764e-09
6.54552e-08
1.3597e-09
5.09647e-08
3.41447e-10
1.53497e-09
4.15155e-09
7.25754e-08
1.25603e-09
3.91721e-09
6.69739e-08
8.48289e-10
3.30944e-09
5.71079e-08
1.96908e-09
4.33808e-08
2.90671e-10
1.61743e-09
6.2886e-08
1.1028e-09
5.77431e-08
5.80677e-10
4.86334e-08
3.57266e-08
2.39957e-10
8.68189e-10
1.02768e-09
8.97882e-08
8.03554e-10
9.27032e-10
8.38145e-08
6.16778e-10
8.04168e-10
7.31388e-08
4.38973e-10
5.84861e-08
1.98563e-10
9.01365e-10
1.84945e-09
8.09463e-08
7.87694e-10
1.67009e-09
7.52948e-08
5.69982e-10
1.40101e-09
6.50759e-08
8.34675e-10
5.09515e-08
1.87457e-10
9.05394e-10
2.36833e-09
7.1941e-08
7.22882e-10
2.16676e-09
6.66598e-08
4.72045e-10
1.79441e-09
5.69654e-08
1.13148e-09
4.33902e-08
1.65691e-10
8.81445e-10
6.28262e-08
6.11304e-10
5.79336e-08
3.32981e-10
4.88185e-08
3.58056e-08
1.40278e-10
5.31e-10
6.07962e-10
8.90702e-08
4.69533e-10
5.32704e-10
8.33434e-08
3.30458e-10
4.38706e-10
7.28393e-08
2.51317e-10
5.84711e-08
9.42988e-11
5.36223e-10
1.06418e-09
8.0405e-08
4.53785e-10
9.3728e-10
7.49724e-08
3.07758e-10
7.60009e-10
6.49005e-08
4.65008e-10
5.09529e-08
9.25558e-11
5.20206e-10
1.31008e-09
7.16534e-08
4.08425e-10
1.16852e-09
6.65402e-08
2.56196e-10
9.44526e-10
5.69331e-08
6.0724e-10
4.34207e-08
8.33676e-11
4.77431e-10
6.28638e-08
3.33717e-10
5.80792e-08
1.82562e-10
4.89563e-08
3.58817e-08
7.06869e-11
3.12622e-10
3.46745e-10
8.86705e-08
2.67282e-10
2.96198e-10
8.30924e-08
1.73327e-10
2.33383e-10
7.26998e-08
1.34663e-10
5.84706e-08
3.91844e-11
3.09965e-10
5.95583e-10
8.01168e-08
2.55949e-10
5.12503e-10
7.48099e-08
1.62189e-10
4.01769e-10
6.48258e-08
2.45028e-10
5.09647e-08
3.99876e-11
2.92173e-10
7.14198e-10
7.15183e-08
2.26213e-10
6.22546e-10
6.64961e-08
1.34472e-10
4.89867e-10
5.69368e-08
3.12567e-10
4.34519e-08
3.57911e-11
2.55644e-10
6.29071e-08
1.78643e-10
5.81737e-08
9.46592e-11
4.90459e-08
3.59373e-08
2.93096e-11
1.77592e-10
1.93079e-10
8.84511e-08
1.47457e-10
1.6105e-10
8.29614e-08
8.75999e-11
1.21733e-10
7.2638e-08
6.87099e-11
5.8478e-08
1.16122e-11
1.7376e-10
3.27094e-10
7.99639e-08
1.40185e-10
2.75186e-10
7.47294e-08
8.21009e-11
2.08354e-10
6.47975e-08
1.23708e-10
5.09791e-08
1.27673e-11
1.59682e-10
3.8494e-10
7.14533e-08
1.2144e-10
3.28109e-10
6.64816e-08
6.68411e-11
2.50512e-10
5.69494e-08
1.54972e-10
4.34768e-08
1.07035e-11
1.3365e-10
6.2939e-08
9.20791e-11
5.82316e-08
4.51832e-11
4.91013e-08
3.59742e-08
7.336e-12
9.70658e-11
1.05556e-10
8.83326e-08
7.80495e-11
8.60078e-11
8.28946e-08
4.13906e-11
6.23538e-11
7.26126e-08
3.35743e-11
5.84875e-08
-1.43294e-12
9.39398e-11
1.76997e-10
7.98835e-08
7.36574e-11
1.45497e-10
7.46906e-08
3.87037e-11
1.06103e-10
6.47892e-08
5.99245e-11
5.0992e-08
-3.55261e-13
8.40857e-11
2.05298e-10
7.14221e-08
6.21401e-11
1.70869e-10
6.64786e-08
3.02072e-11
1.25919e-10
5.69618e-08
7.35511e-11
4.34948e-08
-1.25174e-12
6.68474e-11
6.29599e-08
4.43e-11
5.82662e-08
1.8418e-11
4.91347e-08
3.59977e-08
-3.10683e-12
5.05692e-11
5.69143e-11
8.82695e-08
3.89377e-11
4.52125e-11
8.28613e-08
1.71615e-11
3.12994e-11
7.26034e-08
1.55312e-11
5.84959e-08
-6.48951e-12
4.83626e-11
9.45663e-11
7.98416e-08
3.6359e-11
7.57199e-11
7.46725e-08
1.5919e-11
5.27858e-11
6.47885e-08
2.74863e-11
5.10019e-08
-5.68839e-12
4.17862e-11
1.08267e-10
7.14072e-08
2.92818e-11
8.75941e-11
6.64796e-08
1.10813e-11
6.15081e-11
5.69716e-08
3.28497e-11
4.3507e-08
-6.2351e-12
3.06909e-11
6.29729e-08
1.84443e-11
5.82867e-08
3.85735e-12
4.91549e-08
3.60121e-08
-7.39822e-12
2.45521e-11
3.02676e-11
8.82363e-08
1.75901e-11
2.33386e-11
8.28452e-08
5.00587e-12
1.52495e-11
7.2601e-08
6.5713e-12
5.85024e-08
-7.78737e-12
2.30725e-11
4.9783e-11
7.982e-08
1.60909e-11
3.86151e-11
7.46644e-08
4.43776e-12
2.53591e-11
6.47903e-08
1.1467e-11
5.10088e-08
-7.24023e-12
1.87744e-11
5.61776e-11
7.14003e-08
1.17458e-11
4.38329e-11
6.64816e-08
1.56617e-12
2.87941e-11
5.69786e-08
1.28818e-11
4.35149e-08
-7.61747e-12
1.17648e-11
6.29808e-08
5.14525e-12
5.82988e-08
-2.6908e-12
4.9167e-08
3.60208e-08
-8.36225e-12
1.05492e-11
1.57935e-11
8.82191e-08
6.48671e-12
1.17294e-11
8.28377e-08
-5.58553e-13
7.06915e-12
7.26012e-08
2.33313e-12
5.8507e-08
-7.31431e-12
9.58847e-12
2.56612e-11
7.98091e-08
5.60102e-12
1.91095e-11
7.46611e-08
-8.42998e-13
1.14966e-11
6.47925e-08
3.9377e-12
5.10135e-08
-6.96344e-12
6.86789e-12
2.84128e-11
7.13974e-08
2.95921e-12
2.11168e-11
6.64835e-08
-2.51563e-12
1.24242e-11
5.69833e-08
3.80461e-12
4.35198e-08
-7.25506e-12
2.48362e-12
6.29858e-08
-1.0255e-12
5.83061e-08
-5.06783e-12
4.91741e-08
3.60261e-08
-7.74738e-12
3.49746e-12
8.03377e-12
8.82105e-08
1.1682e-12
5.67178e-12
8.28344e-08
-2.68649e-12
3.03513e-12
7.26021e-08
4.10844e-13
5.85101e-08
-6.08145e-12
2.90356e-12
1.28397e-11
7.98039e-08
6.59693e-13
9.04459e-12
7.466e-08
-2.81257e-12
4.73715e-12
6.47943e-08
5.60812e-13
5.10165e-08
-5.86213e-12
1.17106e-12
1.38566e-11
7.13963e-08
-9.61375e-13
9.57027e-12
6.64852e-08
-3.82055e-12
4.65014e-12
5.69864e-08
-2.37861e-13
4.35229e-08
-6.05746e-12
-1.55078e-12
6.29889e-08
-3.36489e-12
5.83104e-08
-5.28779e-12
4.91783e-08
3.60292e-08
-6.43416e-12
2.76e-13
3.91561e-12
8.82064e-08
-1.03559e-12
2.58706e-12
8.28331e-08
-3.03837e-12
1.11442e-12
7.2603e-08
-2.75841e-13
5.8512e-08
-4.63028e-12
-1.23018e-13
6.11709e-12
7.98014e-08
-1.33498e-12
3.96008e-12
7.46598e-08
-3.11195e-12
1.57665e-12
6.47957e-08
-6.65338e-13
5.10184e-08
-4.49837e-12
-1.20625e-12
6.36203e-12
7.1396e-08
-2.31135e-12
3.87341e-12
6.64863e-08
-3.70709e-12
1.14632e-12
5.69882e-08
-1.51657e-12
4.35248e-08
-4.63601e-12
-2.88363e-12
6.29908e-08
-3.72868e-12
5.83129e-08
-4.56734e-12
4.91807e-08
3.6031e-08
-4.90064e-12
-1.06642e-12
1.66378e-12
8.82046e-08
-1.75518e-12
9.54431e-13
8.28328e-08
-2.69197e-12
1.98112e-13
7.26037e-08
-4.95372e-13
5.85131e-08
-3.30295e-12
-1.32556e-12
2.48869e-12
7.98005e-08
-1.94294e-12
1.33489e-12
7.466e-08
-2.75367e-12
1.0075e-13
6.47965e-08
-1.01616e-12
5.10195e-08
-3.24858e-12
-1.98076e-12
2.39647e-12
7.13961e-08
-2.51187e-12
1.0346e-12
6.64871e-08
-3.09992e-12
-3.92721e-13
5.69893e-08
-1.74383e-12
4.35258e-08
-3.34707e-12
-2.95655e-12
6.29918e-08
-3.32698e-12
5.83142e-08
-3.58784e-12
4.9182e-08
3.60319e-08
-3.52682e-12
-1.75651e-12
2.55025e-13
-2.13548e-12
-5.81705e-14
-2.4796e-12
-3.72821e-13
-6.40693e-13
-2.52157e-12
-1.94859e-12
2.58947e-13
-2.29306e-12
-2.70701e-13
-2.57105e-12
-8.07753e-13
-1.25605e-12
-2.54454e-12
-2.3381e-12
-4.1156e-14
-2.63033e-12
-6.95604e-13
-2.78858e-12
-1.35566e-12
-1.93126e-12
-2.63134e-12
-2.88084e-12
-3.07918e-12
-3.06557e-12
-2.75386e-12
-6.31595e-09
-6.79644e-09
6.10434e-08
-5.09452e-09
-5.58981e-09
4.47617e-08
1.07135e-08
-3.18029e-09
3.71421e-08
-4.30636e-09
7.55175e-08
-1.12085e-08
-4.69393e-09
6.01322e-08
2.08566e-09
1.64192e-09
3.61167e-08
1.07198e-08
9.3505e-10
5.19382e-08
-1.91084e-09
8.05769e-08
-5.073e-10
6.3128e-09
4.12421e-08
7.47715e-11
3.14674e-09
6.375e-08
3.5455e-09
5.77956e-09
6.56439e-08
5.12314e-09
7.88703e-08
-4.1957e-09
8.1026e-08
2.13086e-10
7.03832e-08
2.21836e-09
7.95229e-08
9.90603e-08
4.86972e-09
-7.10491e-10
6.01831e-08
1.90789e-09
-6.67372e-10
4.71658e-08
3.36367e-09
-4.95927e-10
3.5836e-08
-6.18882e-09
8.3425e-08
8.80783e-10
4.91147e-09
5.50604e-08
8.85693e-10
2.89728e-09
3.25471e-08
-4.11719e-09
-7.05341e-10
5.71504e-08
-5.14462e-09
7.72287e-08
-1.5917e-09
1.59709e-09
5.20722e-08
-4.77894e-09
6.3059e-09
6.35286e-08
-3.41951e-09
4.35481e-09
5.92242e-08
2.95983e-09
6.84959e-08
3.90984e-09
7.77569e-08
-9.56251e-09
8.72283e-08
-1.42633e-08
7.54548e-08
8.07483e-08
9.61512e-09
8.06387e-09
3.37292e-08
1.01991e-08
9.28027e-09
3.89751e-08
-1.40422e-09
9.03975e-09
3.83112e-08
6.38484e-09
7.00588e-08
9.20362e-09
9.08143e-09
4.62352e-08
5.50019e-09
1.87554e-09
4.36552e-08
-2.44392e-09
6.38219e-10
7.34961e-08
1.17159e-09
8.10337e-08
5.49574e-09
-6.36637e-09
6.73226e-08
6.8323e-09
-2.65972e-09
6.67273e-08
4.3759e-09
-1.62555e-09
6.39444e-08
-3.72221e-09
7.63552e-08
9.67483e-09
5.55409e-08
1.02379e-08
8.16714e-08
-3.91282e-09
9.17661e-08
7.29373e-08
-5.44622e-09
-7.12475e-10
3.76033e-08
1.52975e-09
3.29543e-09
2.94292e-08
1.26682e-09
1.60443e-09
3.88978e-08
2.47229e-09
7.12698e-08
1.73227e-09
1.92569e-09
3.91132e-08
-2.64361e-09
1.0315e-09
5.0295e-08
2.17226e-09
2.68638e-09
6.75982e-08
3.47933e-09
8.40021e-08
4.50109e-09
7.77421e-09
5.307e-08
7.45009e-09
2.06359e-09
6.27462e-08
1.75488e-09
-1.43494e-09
7.37609e-08
-4.89914e-09
8.65757e-08
-4.57272e-09
6.62436e-08
1.31223e-09
7.21949e-08
-5.32659e-09
9.78569e-08
6.75488e-08
-4.20216e-09
9.68201e-09
3.5786e-08
-1.3951e-09
2.55234e-09
2.61255e-08
-5.96813e-09
2.98775e-09
4.32243e-08
1.16461e-09
6.66995e-08
-1.06865e-08
-3.22167e-09
7.25305e-08
-9.87751e-09
-1.41727e-09
5.34556e-08
-1.2423e-08
8.53348e-10
7.22782e-08
3.268e-09
7.14977e-08
-3.5836e-09
2.8742e-09
5.28117e-08
-4.26062e-09
5.36776e-09
5.66382e-08
-4.0637e-09
2.71738e-09
7.16999e-08
-5.88954e-10
8.95317e-08
-2.90372e-09
6.18579e-08
-1.13823e-08
7.72723e-08
-4.46497e-09
8.58355e-08
5.89012e-08
-3.68835e-09
-3.16307e-10
2.9377e-08