/*--------------------------------*- C++ -*----------------------------------*\
| =========                 |                                                 |
| \\      /  F ield         | OpenFOAM: The Open Source CFD Toolbox           |
|  \\    /   O peration     | Version:  2506                                  |
|   \\  /    A nd           | Website:  www.openfoam.com                      |
|    \\/     M anipulation  |                                                 |
\*---------------------------------------------------------------------------*/
FoamFile
{
    version     2.0;
    format      ascii;
    arch        "LSB;label=32;scalar=64";
    class       volVectorField;
    location    "0.1";
    object      U;
}
// * * * * * * * * * * * * * * * * * * * * * * * * * * * * * * * * * * * * * //

dimensions      [0 1 -1 0 0 0 0];

internalField   nonuniform List<vector> 
1152
(
(0.00149078 3.13112e-05 0.0197298)
(-0.000766622 -0.000212403 0.0307874)
(-0.000880934 0.000703534 0.0164727)
(0.00392093 -0.00134516 0.0142338)
(0.00049753 -0.000716705 0.0244514)
(-0.0003782 -0.00176802 0.012898)
(-0.000218898 0.000552572 0.0167434)
(0.000318773 0.000346111 0.00900493)
(0.000488433 -0.000104889 0.0156359)
(0.000723523 -0.000474182 0.0171178)
(0.000811143 -0.000624051 0.0078761)
(-0.0016903 0.0024627 0.023368)
(-0.00168193 0.00170174 0.0176526)
(-0.000782858 0.00255669 0.00945553)
(0.0011078 -0.000684899 0.0128782)
(0.00174295 -0.00131161 0.00671997)
(-0.0010613 -0.00127753 0.0179181)
(0.00242183 -0.000939069 0.0568542)
(0.00306924 -0.00105193 0.0277161)
(0.00229329 -0.000554694 0.0448821)
(0.00200423 -3.67108e-05 0.050733)
(0.00320102 0.00201815 0.0464381)
(0.0023833 0.00168763 0.0516914)
(0.00174409 0.000182088 0.051624)
(0.000443147 0.00103827 0.043782)
(0.00308995 0.00115827 0.0386317)
(0.00157193 0.00134518 0.061968)
(0.00225682 0.00142316 0.0426995)
(0.00291198 0.00119685 0.0454011)
(0.00436684 0.000455951 0.0511096)
(0.00281789 -0.000377681 0.044178)
(0.00139209 0.00556676 0.0675681)
(9.66454e-05 0.0021195 0.0423478)
(-6.27909e-05 -0.000273264 0.0556159)
(0.000254426 0.000392906 0.0381567)
(-0.0040516 0.00106157 0.0362663)
(0.00112769 -0.000309609 0.0456429)
(0.000388362 0.00115244 0.0443789)
(0.000593843 -0.00137158 0.0400291)
(0.00024359 0.0015781 0.0372526)
(0.000853517 0.000218209 0.0317375)
(0.000561881 0.000664844 0.0437681)
(0.00163664 0.000781375 0.0394288)
(0.00356338 -0.000201916 0.0410375)
(0.00190965 -0.00190357 0.0436718)
(0.00168015 -0.004214 0.0304956)
(-0.00257703 0.002418 0.0482002)
(-0.00154275 0.00223996 0.0342433)
(-0.00126736 0.000695267 0.0315032)
(-0.00131461 0.000375102 0.0353755)
(0.0022365 0.00161908 0.0428516)
(0.000135184 0.00274971 0.0461993)
(-0.00615281 0.000367785 0.0521564)
(-0.000492272 0.00317193 0.0397696)
(0.00191593 0.00174343 0.0537736)
(-0.000159136 0.00188388 0.0483081)
(0.0015382 0.000493711 0.0454862)
(5.60331e-06 0.00239269 0.0396368)
(0.00100892 0.000931468 0.0441839)
(0.000336095 0.00158838 0.0477934)
(0.00447804 0.000952111 0.0490567)
(-0.000821579 -0.000469726 0.0629745)
(-0.00026262 0.00032243 0.0548028)
(0.00196728 -0.00214874 0.0468766)
(-0.00207314 -0.00276501 0.0560003)
(-0.00136061 -0.000653917 0.0453591)
(-0.000641541 -0.000246801 0.0426761)
(0.000607644 0.00115392 0.0512139)
(-0.000472232 -0.000970588 0.0317355)
(-0.000251298 -0.000918026 0.0458461)
(0.00153706 0.000263771 0.0430477)
(0.00531424 0.000403878 0.0508859)
(-0.00160667 -0.000637704 0.045631)
(6.29296e-05 0.000184741 0.0530117)
(0.000333246 -3.85436e-06 0.0415698)
(0.00155442 0.0010302 0.0584905)
(-0.004329 0.00094794 0.0471123)
(-0.000871104 0.00199901 0.063658)
(0.00101253 0.00061393 0.0358142)
(0.00317451 0.000755262 0.0597354)
(-1.89087e-05 -0.00288971 0.0291589)
(-0.00100051 -0.00446575 0.0408958)
(0.00156295 -0.00484163 0.032619)
(-0.000398372 -0.00200413 0.033282)
(0.00117248 -0.00360709 0.0357023)
(0.000199807 -0.00140202 0.0270374)
(0.00194286 -0.00412858 0.0404285)
(0.00291851 -0.00308412 0.0384877)
(-0.000599766 -0.00267202 0.0354024)
(-0.000681945 -0.00199322 0.0403458)
(0.00119799 0.000736006 0.0416536)
(0.00274632 6.52389e-05 0.0304504)
(-0.00136422 -0.000120774 0.029403)
(0.00208694 0.00178868 0.0459787)
(0.00186096 0.00192135 0.0347671)
(0.00403711 0.00805012 0.0517065)
(0.00137683 0.000357864 0.0322488)
(-0.00018057 -0.000651461 0.0269942)
(-0.000463303 0.0011209 0.0285666)
(-0.000843035 0.000304649 0.0332683)
(-0.000343325 -0.000218695 0.028102)
(0.00021814 -0.000554943 0.0264686)
(-0.000467792 0.000672894 0.0253964)
(-0.00134574 0.000758286 0.0301278)
(-0.00147554 0.00110606 0.0299084)
(0.00172173 -0.000567217 0.0353662)
(-0.000130252 -0.00063547 0.0235823)
(-0.00227199 0.000318799 0.0293169)
(8.10275e-06 -0.000493658 0.0231167)
(-0.00145266 -0.000515442 0.0309341)
(-0.000732669 -0.00164359 0.0282363)
(-0.00113349 0.000581063 0.0336684)
(-0.0040113 -0.0168059 0.0161219)
(-0.000526527 -0.0172666 -0.0157571)
(0.00572747 -0.0166799 -0.00325444)
(0.00804355 -0.00801457 0.02278)
(-0.00458597 -0.013409 -0.0496377)
(-0.000343994 -0.0108659 -0.0722078)
(0.00949936 -0.0127853 -0.0753473)
(0.0157289 -0.00621489 0.00186251)
(-0.00172704 -0.00646331 -0.0552015)
(-0.00013944 0.000878185 -0.0314979)
(0.00896306 0.00112019 -0.112785)
(0.0194191 0.00131194 -0.0134546)
(-0.00100804 0.00885956 -0.149241)
(0.00574079 0.00380975 -0.0334407)
(0.00724343 0.00751289 -0.0367165)
(0.0139611 0.00615844 0.00827669)
(0.00376905 0.0111715 0.0268006)
(0.00136031 0.0110621 0.0232528)
(-0.00377921 0.0110194 0.0235616)
(-0.00443705 0.00424339 0.0250428)
(0.00466722 0.010146 0.0250196)
(0.000583328 0.00519049 0.022536)
(-0.00796749 0.00896665 0.0215512)
(-0.0113781 0.00370925 0.0242076)
(0.00019627 0.00423727 0.0267943)
(3.61729e-05 -0.00321273 0.0260424)
(-0.00549411 -0.00238331 0.0212533)
(-0.0129943 -0.00126883 0.0231912)
(0.000267394 -0.00722313 0.0239955)
(-0.00581661 -0.00474574 0.0255556)
(-0.00612108 -0.00952567 0.0230784)
(-0.00899643 -0.00480664 0.0242536)
(0.0013973 0.00435246 0.0173399)
(0.00050365 0.00386029 0.0151215)
(-0.00123849 0.00368112 0.0157014)
(-0.00186298 0.00189479 0.0189009)
(0.001126 0.00323594 0.0102071)
(-4.35751e-05 0.00209226 0.00888319)
(-0.00225479 0.00243784 0.00905637)
(-0.00370596 0.0012527 0.0161341)
(0.000308092 0.00101625 0.00807364)
(-0.000329552 -0.000230333 0.0100041)
(-0.00213607 -0.000216537 0.00708136)
(-0.00426184 -0.000375867 0.0149023)
(0.000253443 -0.00164546 0.0065151)
(-0.00127789 -0.00141703 0.0115358)
(-0.00244947 -0.00229959 0.0108586)
(-0.0036877 -0.00181849 0.0170391)
(0.000724474 0.00229494 0.0189658)
(0.000213889 0.00211732 0.0183866)
(-0.000590069 0.00191302 0.0185129)
(-0.000995067 0.00110821 0.0194293)
(0.000661665 0.00174614 0.0170258)
(-6.89819e-05 0.00135152 0.0167738)
(-0.00112831 0.00125622 0.0169155)
(-0.00178389 0.000643973 0.018615)
(0.000393431 0.000507203 0.0163556)
(-0.000292612 9.09982e-05 0.0166198)
(-0.00130802 -3.95096e-05 0.0163964)
(-0.00215676 -0.000209741 0.0182953)
(0.000232181 -0.000802035 0.0161893)
(-0.000623937 -0.000876344 0.0169116)
(-0.00144108 -0.00116141 0.0170082)
(-0.00201655 -0.00099361 0.0187968)
(0.000373065 0.00120208 0.0194304)
(8.80393e-05 0.00110589 0.019232)
(-0.000282546 0.000957367 0.0192874)
(-0.000506748 0.000603647 0.0196501)
(0.000324531 0.000901796 0.0186085)
(-7.02624e-05 0.000738203 0.0185085)
(-0.000550639 0.000606063 0.018626)
(-0.000848536 0.000315698 0.019283)
(0.000206612 0.00028086 0.0182403)
(-0.00021517 0.000112494 0.0182927)
(-0.00070722 -2.6877e-06 0.0183834)
(-0.00105547 -0.00012986 0.0191641)
(9.36109e-05 -0.000357581 0.0182465)
(-0.000358705 -0.000451036 0.0184212)
(-0.000794928 -0.000565655 0.0186125)
(-0.0010641 -0.000548624 0.0193662)
(0.000187233 0.000620063 0.0197212)
(3.68047e-05 0.000562809 0.0196398)
(-0.000135879 0.000471568 0.0196704)
(-0.000250626 0.000309648 0.0198256)
(0.000148439 0.000459051 0.0193425)
(-5.26133e-05 0.000379029 0.0193013)
(-0.000270086 0.00028749 0.0193785)
(-0.00040776 0.000146057 0.0196505)
(8.5318e-05 0.000158458 0.0191503)
(-0.000137993 7.54732e-05 0.0191656)
(-0.000369099 -1.38865e-06 0.0192661)
(-0.000519519 -8.39991e-05 0.0196018)
(1.61831e-05 -0.000155545 0.01916)
(-0.000214307 -0.000220798 0.0192197)
(-0.000429023 -0.000281991 0.0193592)
(-0.000554143 -0.000304139 0.0196996)
(9.34044e-05 0.00032136 0.0199075)
(1.56946e-05 0.000286057 0.0198712)
(-6.68932e-05 0.000232569 0.0198873)
(-0.000125313 0.00015363 0.019955)
(6.54865e-05 0.000235346 0.0197287)
(-3.56556e-05 0.000191147 0.019712)
(-0.000136901 0.000135474 0.0197556)
(-0.000202966 6.29878e-05 0.019872)
(2.8353e-05 8.66293e-05 0.0196313)
(-8.56167e-05 4.10493e-05 0.0196388)
(-0.000195026 -6.76779e-06 0.0197033)
(-0.000263647 -5.71002e-05 0.0198524)
(-1.25802e-05 -7.25014e-05 0.0196309)
(-0.000129599 -0.00011291 0.0196598)
(-0.000234248 -0.000149459 0.0197432)
(-0.000293043 -0.000173405 0.0199027)
(4.59536e-05 0.000167618 0.020014)
(6.02559e-06 0.000145818 0.0199967)
(-3.46425e-05 0.000114839 0.0200046)
(-6.4909e-05 7.41869e-05 0.0200351)
(2.72425e-05 0.000121195 0.0199265)
(-2.3765e-05 9.53402e-05 0.0199198)
(-7.25154e-05 6.275e-05 0.0199432)
(-0.000105463 2.40343e-05 0.0199959)
(4.62807e-06 4.52547e-05 0.0198767)
(-5.30877e-05 1.87819e-05 0.0198821)
(-0.000105904 -9.98607e-06 0.0199189)
(-0.000138788 -3.97246e-05 0.0199889)
(-1.96501e-05 -3.75139e-05 0.0198738)
(-7.91202e-05 -6.18278e-05 0.0198906)
(-0.000130402 -8.42236e-05 0.0199382)
(-0.000158659 -0.00010188 0.0200167)
(2.17349e-05 8.74057e-05 0.0200727)
(1.23837e-06 7.40097e-05 0.0200641)
(-1.92411e-05 5.60701e-05 0.0200679)
(-3.51455e-05 3.44021e-05 0.0200823)
(9.68597e-06 6.20666e-05 0.0200285)
(-1.61762e-05 4.6643e-05 0.020026)
(-4.02247e-05 2.77345e-05 0.0200385)
(-5.70331e-05 6.49349e-06 0.0200639)
(-4.16507e-06 2.22357e-05 0.0200028)
(-3.34059e-05 6.5774e-06 0.0200071)
(-5.93428e-05 -1.04746e-05 0.0200275)
(-7.55429e-05 -2.78301e-05 0.0200622)
(-1.87169e-05 -2.16411e-05 0.0200005)
(-4.88805e-05 -3.61718e-05 0.0200112)
(-7.42102e-05 -4.98419e-05 0.0200381)
(-8.7903e-05 -6.14019e-05 0.0200784)
(9.39165e-06 4.52709e-05 0.0201049)
(-1.15014e-06 3.70852e-05 0.0201006)
(-1.16278e-05 2.66636e-05 0.0201025)
(-2.00588e-05 1.48543e-05 0.0201097)
(1.80845e-06 3.12833e-05 0.0200822)
(-1.13744e-05 2.20189e-05 0.0200816)
(-2.34422e-05 1.1022e-05 0.0200884)
(-3.21101e-05 -8.29166e-07 0.0201013)
(-6.66866e-06 9.96097e-06 0.020069)
(-2.15495e-05 6.02458e-07 0.0200722)
(-3.44195e-05 -9.47569e-06 0.0200836)
(-4.24505e-05 -1.95436e-05 0.0201016)
(-1.53939e-05 -1.37262e-05 0.0200678)
(-3.07787e-05 -2.24099e-05 0.0200747)
(-4.33073e-05 -3.06671e-05 0.02009)
(-4.98549e-05 -3.78527e-05 0.0201115)
(3.19753e-06 2.31103e-05 0.0201227)
(-2.25039e-06 1.81285e-05 0.0201206)
(-7.6397e-06 1.20645e-05 0.0201217)
(-1.21088e-05 5.48096e-06 0.0201255)
(-1.51694e-06 1.52669e-05 0.0201109)
(-8.26878e-06 9.70463e-06 0.0201111)
(-1.43598e-05 3.28759e-06 0.0201149)
(-1.8828e-05 -3.40806e-06 0.0201219)
(-6.67908e-06 3.62611e-06 0.0201042)
(-1.42818e-05 -1.96947e-06 0.0201066)
(-2.06922e-05 -7.91528e-06 0.0201132)
(-2.46346e-05 -1.37493e-05 0.0201229)
(-1.19372e-05 -9.32083e-06 0.0201037)
(-1.97762e-05 -1.45293e-05 0.0201084)
(-2.5951e-05 -1.9475e-05 0.0201172)
(-2.89712e-05 -2.38162e-05 0.0201291)
(2.47591e-07 1.14968e-05 0.0201325)
(-2.57729e-06 8.47171e-06 0.0201316)
(-5.35185e-06 4.91958e-06 0.0201324)
(-7.7064e-06 1.20734e-06 0.0201346)
(-2.65675e-06 7.01535e-06 0.0201265)
(-6.13382e-06 3.67248e-06 0.0201269)
(-9.20583e-06 -8.12845e-08 0.0201293)
(-1.14735e-05 -3.88888e-06 0.0201332)
(-5.80354e-06 5.42969e-07 0.0201231)
(-9.68409e-06 -2.79996e-06 0.0201249)
(-1.28563e-05 -6.29462e-06 0.0201288)
(-1.47379e-05 -9.66381e-06 0.0201343)
(-8.98654e-06 -6.59087e-06 0.0201231)
(-1.29414e-05 -9.71638e-06 0.0201263)
(-1.59416e-05 -1.26596e-05 0.0201316)
(-1.72355e-05 -1.5234e-05 0.0201383)
(-9.89951e-07 5.47522e-06 0.020138)
(-2.45396e-06 3.63978e-06 0.0201378)
(-3.87762e-06 1.54896e-06 0.0201384)
(-5.08519e-06 -5.69176e-07 0.0201397)
(-2.76751e-06 2.8808e-06 0.0201349)
(-4.55124e-06 8.71499e-07 0.0201355)
(-6.09086e-06 -1.32367e-06 0.0201371)
(-7.21003e-06 -3.49082e-06 0.0201394)
(-4.68026e-06 -7.69086e-07 0.0201334)
(-6.64951e-06 -2.76685e-06 0.0201348)
(-8.19074e-06 -4.8143e-06 0.0201372)
(-9.04045e-06 -6.74593e-06 0.0201405)
(-6.60398e-06 -4.74253e-06 0.0201337)
(-8.57153e-06 -6.60425e-06 0.0201359)
(-9.9825e-06 -8.33918e-06 0.0201391)
(-1.0456e-05 -9.84022e-06 0.0201431)
(-1.34077e-06 2.4235e-06 0.0201411)
(-2.09259e-06 1.31394e-06 0.0201412)
(-2.80776e-06 8.53731e-08 0.0201417)
(-3.40778e-06 -1.12564e-06 0.0201427)
(-2.41899e-06 9.08323e-07 0.0201396)
(-3.32647e-06 -2.91007e-07 0.0201402)
(-4.07763e-06 -1.56775e-06 0.0201413)
(-4.60354e-06 -2.79811e-06 0.0201428)
(-3.56981e-06 -1.16134e-06 0.020139)
(-4.5531e-06 -2.34561e-06 0.0201401)
(-5.27589e-06 -3.53317e-06 0.0201417)
(-5.62239e-06 -4.63002e-06 0.0201437)
(-4.71497e-06 -3.38638e-06 0.0201394)
(-5.67844e-06 -4.47795e-06 0.020141)
(-6.30269e-06 -5.4853e-06 0.0201431)
(-6.41102e-06 -6.34368e-06 0.0201456)
(-1.26087e-06 9.25931e-07 0.0201429)
(-1.64222e-06 2.717e-07 0.0201431)
(-1.98567e-06 -4.391e-07 0.0201436)
(-2.26293e-06 -1.1172e-06 0.0201444)
(-1.90051e-06 4.98986e-08 0.0201422)
(-2.35389e-06 -6.51462e-07 0.0201428)
(-2.69974e-06 -1.37712e-06 0.0201436)
(-2.9239e-06 -2.06252e-06 0.0201446)
(-2.57329e-06 -1.10712e-06 0.020142)
(-3.05351e-06 -1.79298e-06 0.0201429)
(-3.36787e-06 -2.46554e-06 0.0201441)
(-3.4785e-06 -3.0744e-06 0.0201454)
(-3.2359e-06 -2.33857e-06 0.0201425)
(-3.69717e-06 -2.95987e-06 0.0201437)
(-3.94137e-06 -3.52846e-06 0.0201452)
(-3.90572e-06 -4.00388e-06 0.0201468)
(-1.02192e-06 1.8929e-07 0.0201438)
(-1.20781e-06 -1.76245e-07 0.0201441)
(-1.35387e-06 -5.61994e-07 0.0201446)
(-1.46336e-06 -9.21164e-07 0.0201452)
(-1.37878e-06 -2.95754e-07 0.0201435)
(-1.59384e-06 -6.81048e-07 0.0201441)
(-1.73237e-06 -1.07175e-06 0.0201448)
(-1.807e-06 -1.43177e-06 0.0201456)
(-1.74823e-06 -9.04182e-07 0.0201436)
(-1.97045e-06 -1.27963e-06 0.0201443)
(-2.08341e-06 -1.64003e-06 0.0201453)
(-2.0895e-06 -1.95859e-06 0.0201463)
(-2.11042e-06 -1.54772e-06 0.020144)
(-2.31832e-06 -1.88139e-06 0.020145)
(-2.3845e-06 -2.18381e-06 0.0201461)
(-2.30482e-06 -2.43045e-06 0.0201473)
(-8.39566e-07 -2.52636e-07 0.0201443)
(-9.27304e-07 -4.42298e-07 0.0201447)
(-9.81299e-07 -6.33001e-07 0.0201451)
(-1.00405e-06 -8.02897e-07 0.0201457)
(-1.02689e-06 -5.11906e-07 0.0201442)
(-1.11927e-06 -7.09976e-07 0.0201447)
(-1.16045e-06 -9.02828e-07 0.0201453)
(-1.16104e-06 -1.07328e-06 0.020146)
(-1.21905e-06 -8.06513e-07 0.0201443)
(-1.30695e-06 -9.98361e-07 0.020145)
(-1.32716e-06 -1.17616e-06 0.0201458)
(-1.28768e-06 -1.32711e-06 0.0201466)
(-1.40525e-06 -1.1039e-06 0.0201448)
(-1.47972e-06 -1.27193e-06 0.0201456)
(-1.46921e-06 -1.41908e-06 0.0201465)
(-1.38136e-06 -1.53443e-06 0.0201475)
(-0.00192665 -5.96192e-05 0.0154794)
(0.00140213 0.000883435 0.0105142)
(0.000635082 -0.00366918 0.0216208)
(-0.000657368 0.00159999 0.0102321)
(-0.000727918 0.000989821 0.0102058)
(0.00138741 -6.19789e-05 0.0101632)
(0.000781392 -0.0015817 0.0141696)
(-0.0021155 0.00462862 0.015838)
(-0.000557198 0.00382912 0.0175588)
(0.00125389 -0.00103914 0.0173608)
(0.00220088 -0.000144758 0.0136818)
(0.000460544 3.16024e-05 0.0144287)
(0.00147416 0.000237466 0.0172577)
(-9.50939e-05 0.000703485 0.0122223)
(0.00104995 -0.000991079 0.0144048)
(0.00236845 -0.00162195 0.00966761)
(-0.000740165 0.00196051 0.0428043)
(-0.00161203 -0.000158479 0.0545932)
(-0.000591081 0.00211084 0.0565857)
(0.00131172 -0.000892842 0.0443594)
(-0.000526199 -0.00028875 0.0363547)
(-0.00430166 -0.00123553 0.0650292)
(-0.00177899 0.00123916 0.0329025)
(0.0015619 -0.0021646 0.044104)
(-0.000239299 -0.00358549 0.0473598)
(-0.000351095 -0.00118088 0.0451544)
(1.14666e-05 0.000389408 0.0538442)
(-0.000723816 -0.00198509 0.0900899)
(-0.00173844 -0.00395352 0.0580153)
(0.00198176 -0.0026702 0.0502434)
(0.00302192 -0.00177158 0.0407569)
(0.00134236 -0.000645414 0.0431171)
(0.00200798 0.00100777 0.0350471)
(-0.00140045 0.000636352 0.0420377)
(0.00195899 0.00210124 0.0404641)
(0.00157841 -0.00444414 0.0503007)
(-0.0003162 0.000470998 0.0612254)
(-0.00140842 0.00315816 0.036707)
(0.000389091 0.000651082 0.0332114)
(0.00258661 -0.00655452 0.0336464)
(0.00164324 -0.00261701 0.0422899)
(-0.0027999 0.00149657 0.046844)
(-0.00420535 -0.00175104 0.0513638)
(-0.000730374 -0.00402862 0.0370241)
(3.77095e-05 0.000361514 0.0281411)
(0.00175309 -0.000448468 0.0286974)
(-0.000783716 0.000975581 0.0411073)
(-0.0040498 0.000881335 0.0405332)
(-0.000675287 -0.00202854 0.0473936)
(0.000450217 0.000143574 0.036393)
(-0.000624098 -0.000512164 0.0458227)
(-0.00295694 0.000442657 0.0673882)
(-0.000646502 0.0015992 0.0432649)
(0.0021888 0.00201919 0.0486046)
(0.0011556 -0.00239392 0.043629)
(-0.000418041 4.38817e-05 0.0422197)
(0.00102865 0.00329618 0.0525348)
(-0.00233749 0.0020849 0.0562505)
(-9.19426e-05 -0.00216705 0.0418125)
(0.000238569 -0.00112304 0.0567509)
(0.00100569 0.000702213 0.0477317)
(-0.00181449 -0.00233087 0.0555264)
(-0.00101794 0.00106027 0.044346)
(-0.00014172 0.00274795 0.0445674)
(-2.12917e-05 0.000720574 0.0452942)
(-0.00165919 -0.00173987 0.048469)
(-0.00563035 -0.00198363 0.0616202)
(-0.00175902 0.00248816 0.0492903)
(-6.86372e-05 0.000406237 0.049409)
(-0.000221274 -5.7713e-05 0.0317685)
(-0.0019452 0.00126461 0.057302)
(-0.000984477 0.00226694 0.0417488)
(0.000847521 0.00219007 0.072735)
(-0.00133329 0.000639577 0.0629709)
(-0.00177564 0.00213268 0.0536482)
(0.000105231 0.00311801 0.0313889)
(0.000406287 0.00147201 0.0337606)
(-0.0021629 0.00173737 0.0475181)
(-0.000464121 0.000889589 0.0348764)
(-0.000130147 0.00489335 0.0476017)
(0.000289651 0.00047958 0.0316168)
(-0.00261759 0.00181738 0.0355103)
(-0.00243288 -0.00190714 0.0276174)
(-0.00434973 0.00150395 0.0391065)
(-0.00232827 -0.00165872 0.0413442)
(-0.00120877 0.00038311 0.0325465)
(-0.00461751 0.00320997 0.0317154)
(-0.00405816 0.00416868 0.0360977)
(-0.000904088 0.000154941 0.0371481)
(0.00145754 -0.000955348 0.0313027)
(-0.00314831 0.00356739 0.0314974)
(-0.00502009 0.00205228 0.0302613)
(-0.00591291 -0.00172101 0.0473866)
(0.00140321 -0.00359784 0.0390739)
(0.000262582 -0.00328551 0.0348168)
(-0.0048272 0.000318022 0.0425984)
(-0.000916606 0.000351045 0.0297895)
(-0.000156885 -0.00196893 0.0293711)
(0.00173298 0.000772438 0.036846)
(0.00215977 -0.000980534 0.0239876)
(0.00062995 0.00133743 0.0312368)
(0.00309906 -0.00112172 0.028142)
(0.0008818 -0.000632725 0.0245237)
(0.00024703 0.000381891 0.0297545)
(0.000460572 -0.000482574 0.0364154)
(5.49971e-05 -0.00171737 0.031658)
(0.00126479 -0.00202798 0.0341309)
(0.000635203 -0.000573066 0.0232187)
(0.00108857 -0.00155683 0.035933)
(-0.00251356 -0.00158861 0.0260923)
(-0.00199561 0.000932798 0.0311099)
(0.000678945 -0.00239131 0.0375464)
(-0.000890528 -0.0013247 0.0288152)
(-0.00184248 -0.00193026 0.0205289)
(-0.00110451 -0.00194381 0.0291943)
(-1.64396e-06 -0.0006999 0.00512226)
(-0.000957837 -0.00386684 0.0270773)
(-0.00102534 -0.00443105 0.0193692)
(-0.000337199 -0.00362358 0.000767778)
(0.000872226 -0.00139782 0.00449784)
(-0.00138462 -0.00661849 0.0341697)
(-0.000410087 -0.0070669 0.0321087)
(0.000798512 -0.00540381 0.03131)
(0.00185657 -0.00232829 0.00661901)
(-0.00210158 -0.0105456 0.0338885)
(-0.000427284 -0.0117799 0.0126093)
(0.00234623 -0.00944784 0.0273776)
(0.0037132 -0.00451296 0.0277352)
(0.000364865 8.03489e-05 0.0217949)
(0.000875538 0.000413262 0.0217425)
(0.00124455 0.00146869 0.0237523)
(0.000979295 0.000501205 0.0203974)
(0.000517562 0.000259029 0.0228268)
(0.0016128 0.000692172 0.0220713)
(0.00125442 0.00113875 0.0215296)
(0.000842456 -0.000121453 0.0207079)
(0.000384398 0.00151012 0.0252445)
(0.0012675 0.00232315 0.0249828)
(0.00102881 0.00154851 0.0247056)
(0.000885069 -0.000107742 0.0219273)
(0.00179149 0.00513522 0.0270564)
(0.00108521 0.00640853 0.0240405)
(-0.000921828 0.00527969 0.0251904)
(-0.00066458 0.00128768 0.0243386)
(0.000414049 0.000256802 0.0225991)
(0.000832677 0.000458662 0.0220578)
(0.000981417 0.000927757 0.0219722)
(0.000637994 0.000440322 0.0198275)
(0.000506983 0.000741645 0.0226517)
(0.001035 0.00089577 0.0217857)
(0.000810356 0.00106266 0.0210153)
(0.00050741 0.000261824 0.019892)
(0.000485401 0.00160853 0.0225493)
(0.000841122 0.00176288 0.0216626)
(0.000518822 0.00137914 0.0210964)
(0.000314345 0.000339563 0.0201815)
(0.000986756 0.00302838 0.0212208)
(0.000635479 0.00312459 0.0195824)
(-0.000331697 0.0025916 0.0197806)
(-0.000430732 0.00098997 0.0202302)
(0.000339143 0.000220158 0.021673)
(0.000528645 0.000326339 0.0212238)
(0.000567781 0.000510925 0.0210217)
(0.000353645 0.000318158 0.0200262)
(0.000387698 0.00064669 0.0215478)
(0.00053659 0.000707143 0.0210179)
(0.000406663 0.000764526 0.0206611)
(0.000232403 0.000368081 0.0200414)
(0.000418249 0.00119448 0.0212361)
(0.00043501 0.0012155 0.0207449)
(0.000185848 0.00105977 0.0204693)
(3.06216e-05 0.000516553 0.0200898)
(0.000587787 0.00184527 0.0204486)
(0.00032575 0.00181369 0.0198682)
(-0.000165789 0.00154204 0.0198593)
(-0.000326658 0.00082921 0.0200014)
(0.000262364 0.000159947 0.0209837)
(0.000336241 0.000218 0.0207222)
(0.000334526 0.000295117 0.0205849)
(0.000199684 0.000206669 0.0201481)
(0.000279064 0.000458323 0.020865)
(0.000302915 0.000479333 0.0205924)
(0.000225722 0.000481342 0.0204272)
(0.0001161 0.000279186 0.0201311)
(0.000297571 0.000775878 0.0206165)
(0.000241445 0.000759298 0.0203699)
(9.14949e-05 0.000662984 0.0202387)
(-1.05688e-05 0.000382591 0.0200884)
(0.000343642 0.00106961 0.0201523)
(0.000172301 0.00102037 0.0199199)
(-7.41098e-05 0.00086105 0.0198938)
(-0.000185326 0.000528854 0.0199677)
(0.000184829 0.000103592 0.020621)
(0.000208983 0.000135053 0.0204627)
(0.000189795 0.000165788 0.0203553)
(0.000106217 0.000118644 0.0201407)
(0.000186638 0.000287429 0.0205321)
(0.000178158 0.000290964 0.0203781)
(0.000126133 0.000275706 0.0202736)
(5.6837e-05 0.000169633 0.0201206)
(0.000188911 0.000459615 0.0203615)
(0.000137896 0.000436292 0.0202278)
(5.17025e-05 0.000371863 0.020151)
(-1.13047e-05 0.000227587 0.0200778)
(0.0001936 0.000590898 0.020091)
(9.30048e-05 0.000549152 0.0199838)
(-3.1093e-05 0.000455372 0.0199636)
(-9.52812e-05 0.000296635 0.0199965)
(0.000119948 6.24225e-05 0.0204082)
(0.00012572 7.94221e-05 0.0203128)
(0.00010579 9.09631e-05 0.0202398)
(5.48591e-05 6.39774e-05 0.0201323)
(0.000117175 0.000168979 0.0203504)
(0.00010467 0.000167009 0.0202614)
(7.07283e-05 0.000151317 0.020196)
(2.79175e-05 9.43294e-05 0.0201178)
(0.000113154 0.000260403 0.0202466)
(7.9294e-05 0.000241195 0.0201726)
(3.07286e-05 0.000200106 0.0201271)
(-7.04491e-06 0.000124738 0.0200896)
(0.000106771 0.000320249 0.0200962)
(5.1083e-05 0.000291019 0.0200427)
(-1.21416e-05 0.00023652 0.0200297)
(-4.79451e-05 0.000157475 0.0200433)
(7.3266e-05 3.61164e-05 0.0202874)
(7.33926e-05 4.51713e-05 0.0202311)
(5.80196e-05 4.89342e-05 0.0201851)
(2.7239e-05 3.26786e-05 0.0201301)
(6.9988e-05 9.60069e-05 0.0202527)
(6.0424e-05 9.30145e-05 0.0202014)
(3.92039e-05 8.10279e-05 0.0201617)
(1.31806e-05 4.94329e-05 0.0201212)
(6.50782e-05 0.000144246 0.0201931)
(4.49843e-05 0.000130746 0.0201517)
(1.77805e-05 0.000105379 0.0201249)
(-4.5968e-06 6.4825e-05 0.0201049)
(5.76317e-05 0.000172245 0.0201112)
(2.7697e-05 0.000153314 0.0200831)
(-5.0754e-06 0.000121785 0.0200748)
(-2.50429e-05 8.07413e-05 0.02008)
(4.25992e-05 2.03032e-05 0.0202211)
(4.14556e-05 2.49657e-05 0.0201884)
(3.09375e-05 2.56618e-05 0.0201605)
(1.2558e-05 1.55821e-05 0.0201319)
(4.00152e-05 5.32948e-05 0.0202011)
(3.38646e-05 5.0646e-05 0.0201717)
(2.09879e-05 4.24157e-05 0.0201481)
(5.44276e-06 2.44569e-05 0.0201269)
(3.60222e-05 7.86246e-05 0.0201677)
(2.47073e-05 6.97659e-05 0.0201445)
(9.48091e-06 5.44147e-05 0.0201288)
(-3.6081e-06 3.20475e-05 0.020118)
(3.01515e-05 9.19588e-05 0.0201234)
(1.43122e-05 8.01516e-05 0.0201083)
(-2.95279e-06 6.19426e-05 0.0201031)
(-1.40895e-05 3.99971e-05 0.0201051)
(2.36517e-05 1.1143e-05 0.0201851)
(2.25032e-05 1.33961e-05 0.0201663)
(1.57438e-05 1.29707e-05 0.0201499)
(4.92526e-06 6.62558e-06 0.0201351)
(2.18882e-05 2.90478e-05 0.0201739)
(1.81963e-05 2.70075e-05 0.0201572)
(1.05354e-05 2.16158e-05 0.0201435)
(1.40569e-06 1.12318e-05 0.0201324)
(1.90697e-05 4.22785e-05 0.0201554)
(1.28509e-05 3.66388e-05 0.0201425)
(4.32652e-06 2.74488e-05 0.0201335)
(-3.23319e-06 1.48818e-05 0.0201278)
(1.4995e-05 4.866e-05 0.0201316)
(6.67121e-06 4.14319e-05 0.0201234)
(-2.54142e-06 3.09105e-05 0.0201203)
(-8.73456e-06 1.89419e-05 0.0201212)
(1.24686e-05 5.98554e-06 0.0201658)
(1.15892e-05 6.94266e-06 0.0201552)
(7.4136e-06 6.19141e-06 0.0201459)
(1.12725e-06 2.13992e-06 0.0201383)
(1.13413e-05 1.55874e-05 0.0201596)
(9.18778e-06 1.40792e-05 0.0201503)
(4.70735e-06 1.06045e-05 0.0201426)
(-5.77994e-07 4.50717e-06 0.0201369)
(9.47004e-06 2.244e-05 0.0201495)
(6.08044e-06 1.88715e-05 0.0201424)
(1.34198e-06 1.33637e-05 0.0201374)
(-2.97505e-06 6.23226e-06 0.0201346)
(6.78859e-06 2.54504e-05 0.0201367)
(2.39939e-06 2.10444e-05 0.0201324)
(-2.49596e-06 1.49619e-05 0.0201307)
(-5.90956e-06 8.32685e-06 0.0201312)
(6.12206e-06 3.13807e-06 0.0201556)
(5.50802e-06 3.4283e-06 0.0201497)
(2.99419e-06 2.66184e-06 0.0201446)
(-6.07637e-07 4.50126e-08 0.0201408)
(5.42527e-06 8.21992e-06 0.0201522)
(4.18064e-06 7.12197e-06 0.0201471)
(1.59756e-06 4.88615e-06 0.0201429)
(-1.4149e-06 1.25282e-06 0.0201402)
(4.22117e-06 1.17116e-05 0.0201468)
(2.3745e-06 9.45297e-06 0.020143)
(-2.38502e-07 6.14347e-06 0.0201403)
(-2.66216e-06 2.03311e-06 0.020139)
(2.50341e-06 1.30759e-05 0.0201399)
(1.84666e-07 1.0395e-05 0.0201377)
(-2.4115e-06 6.86431e-06 0.0201369)
(-4.26089e-06 3.1309e-06 0.0201373)
(2.67732e-06 1.59135e-06 0.0201503)
(2.26542e-06 1.56697e-06 0.0201471)
(7.81751e-07 9.01211e-07 0.0201444)
(-1.25133e-06 -7.9547e-07 0.0201427)
(2.25521e-06 4.23227e-06 0.0201484)
(1.53753e-06 3.44334e-06 0.0201457)
(6.95542e-08 2.00282e-06 0.0201436)
(-1.62293e-06 -1.78975e-07 0.0201424)
(1.49498e-06 5.96189e-06 0.0201455)
(4.89946e-07 4.53384e-06 0.0201436)
(-9.33501e-07 2.54128e-06 0.0201423)
(-2.272e-06 1.44571e-07 0.0201418)
(4.15131e-07 6.52957e-06 0.0201419)
(-8.0629e-07 4.89942e-06 0.0201409)
(-2.1732e-06 2.84004e-06 0.0201406)
(-3.15366e-06 7.05951e-07 0.020141)
(9.21193e-07 7.69874e-07 0.0201476)
(6.47227e-07 6.23055e-07 0.020146)
(-2.08558e-07 9.48857e-08 0.0201446)
(-1.3285e-06 -1.00275e-06 0.020144)
(6.66827e-07 2.10817e-06 0.0201466)
(2.51641e-07 1.55145e-06 0.0201452)
(-5.67959e-07 6.26711e-07 0.0201442)
(-1.49014e-06 -6.96327e-07 0.0201439)
(1.92994e-07 2.93001e-06 0.020145)
(-3.52321e-07 2.03034e-06 0.0201441)
(-1.12011e-06 8.2924e-07 0.0201436)
(-1.83494e-06 -5.62198e-07 0.0201436)
(-4.76686e-07 3.12052e-06 0.0201431)
(-1.11513e-06 2.13297e-06 0.0201428)
(-1.81954e-06 9.34527e-07 0.0201428)
(-2.32753e-06 -2.74682e-07 0.0201432)
(1.02552e-07 3.44619e-07 0.0201462)
(-7.40022e-08 1.74515e-07 0.0201455)
(-5.50101e-07 -2.13709e-07 0.0201449)
(-1.14056e-06 -9.12917e-07 0.0201448)
(-4.89503e-08 9.94517e-07 0.0201457)
(-2.86599e-07 6.12041e-07 0.0201451)
(-7.29262e-07 2.86746e-08 0.0201447)
(-1.2087e-06 -7.65526e-07 0.0201448)
(-3.38286e-07 1.35855e-06 0.0201449)
(-6.30873e-07 7.97246e-07 0.0201445)
(-1.02973e-06 8.41631e-08 0.0201444)
(-1.39307e-06 -7.16376e-07 0.0201447)
(-7.45208e-07 1.37948e-06 0.0201439)
(-1.0745e-06 7.91878e-07 0.0201439)
(-1.42134e-06 1.00846e-07 0.0201441)
(-1.66878e-06 -5.76414e-07 0.0201445)
(-2.36729e-07 1.21307e-07 0.0201456)
(-3.52153e-07 -2.99944e-08 0.0201453)
(-5.99699e-07 -2.98911e-07 0.0201451)
(-8.8351e-07 -7.25307e-07 0.0201453)
(-3.2445e-07 3.95072e-07 0.0201453)
(-4.61317e-07 1.42222e-07 0.0201451)
(-6.85138e-07 -2.12327e-07 0.020145)
(-9.12065e-07 -6.6796e-07 0.0201453)
(-4.92919e-07 5.22502e-07 0.0201448)
(-6.50112e-07 1.87022e-07 0.0201448)
(-8.42133e-07 -2.20217e-07 0.0201449)
(-1.00769e-06 -6.59826e-07 0.0201453)
(-7.25508e-07 4.74329e-07 0.0201443)
(-8.9616e-07 1.37412e-07 0.0201445)
(-1.05221e-06 -2.41927e-07 0.0201448)
(-1.15592e-06 -6.04245e-07 0.0201452)
(-4.03197e-07 -1.33714e-08 0.0201454)
(-4.941e-07 -1.46084e-07 0.0201453)
(-6.2192e-07 -3.4515e-07 0.0201453)
(-7.30169e-07 -6.11506e-07 0.0201456)
(-4.54748e-07 2.75659e-08 0.0201452)
(-5.47643e-07 -1.42556e-07 0.0201452)
(-6.58827e-07 -3.62441e-07 0.0201453)
(-7.44633e-07 -6.19316e-07 0.0201457)
(-5.49988e-07 1.11916e-08 0.0201449)
(-6.43868e-07 -1.84322e-07 0.0201451)
(-7.34861e-07 -4.10568e-07 0.0201453)
(-7.92416e-07 -6.40803e-07 0.0201457)
(-6.781e-07 -7.3749e-08 0.0201446)
(-7.69104e-07 -2.60166e-07 0.0201449)
(-8.36535e-07 -4.59335e-07 0.0201452)
(-8.64907e-07 -6.40602e-07 0.0201456)
(0.000695999 -0.000519466 0.0108338)
(-0.00352975 -0.00156798 0.00936591)
(0.000522264 -0.00230595 0.0130321)
(0.00173918 -0.00123643 0.00894542)
(-0.00359657 -0.00318894 0.0190034)
(-0.00215577 -0.00111217 0.0138646)
(0.00173529 -0.00179275 0.0177478)
(0.000775034 -0.0029409 0.019068)
(-0.00137432 0.000499576 0.0118685)
(0.00024754 0.00177809 0.0168165)
(0.000856013 0.00143447 0.0173515)
(0.000700904 0.000612602 0.0204913)
(-0.00014517 0.00018613 0.0136787)
(-0.000994706 0.00044832 0.00964701)
(0.000824931 0.00265715 0.020523)
(0.000599595 -0.000175662 0.0217286)
(0.00146016 -0.0017972 0.0891213)
(0.000996313 -0.0011982 0.0582043)
(0.000625227 -0.00101885 0.0353168)
(-0.00146131 -0.00277313 0.0749027)
(0.000555185 0.00132181 0.0566802)
(0.000650991 0.000522784 0.0301376)
(-0.000586219 2.87762e-05 0.0342428)
(-0.0028768 -0.00325715 0.0536721)
(0.00120431 0.00201895 0.0383672)
(-0.00114683 0.00322444 0.046457)
(-0.00186055 0.000783548 0.0411052)
(-0.00111656 -0.00161063 0.0400784)
(0.0013249 0.0006597 0.0647994)
(-0.00156282 0.00250434 0.0568535)
(-0.00373781 0.00484208 0.0409072)
(-0.00434113 0.00804473 0.0469205)
(-4.1593e-05 0.00155994 0.0298978)
(0.00868024 0.00332465 0.0400942)
(0.0032573 0.00285807 0.0362642)
(-0.000242762 0.00166447 0.0427014)
(0.00517553 0.00595033 0.0455789)
(0.00341764 0.00230085 0.0298357)
(0.00287546 0.00324264 0.0498869)