/*--------------------------------*- C++ -*----------------------------------*\
| =========                 |                                                 |
| \\      /  F ield         | OpenFOAM: The Open Source CFD Toolbox           |
|  \\    /   O peration     | Version:  2506                                  |
|   \\  /    A nd           | Website:  www.openfoam.com                      |
|    \\/     M anipulation  |                                                 |
\*---------------------------------------------------------------------------*/
FoamFile
{
    version     2.0;
    format      ascii;
    arch        "LSB;label=32;scalar=64";
    class       volVectorField;
    location    "0.1";
    object      Us;
}
// * * * * * * * * * * * * * * * * * * * * * * * * * * * * * * * * * * * * * //

dimensions      [0 1 -1 0 0 0 0];

internalField   nonuniform List<vector> 
1152
(
(-0.000136927 -0.000193714 -7.80997e-05)
(5.8609e-05 0.000135452 5.7348e-05)
(-1.46722e-06 7.78484e-05 3.54443e-05)
(5.66927e-05 5.19838e-05 1.13746e-05)
(-0.000145951 -0.000599168 -0.000338165)
(3.99124e-05 -0.000311077 -0.000118451)
(-1.08768e-05 -0.000305464 -9.31836e-05)
(-8.45415e-06 0.00021058 -0.000169151)
(2.2763e-05 0.000104012 -6.65051e-05)
(0.000212433 -4.5042e-05 -0.000145386)
(0.000208873 -0.000122808 -0.00041471)
(-0.000767875 0.000349837 -0.000167197)
(-2.61655e-05 3.86532e-05 3.20254e-05)
(-2.97496e-05 0.000162357 -0.000283431)
(-0.000105192 -0.00038917 -6.64487e-05)
(0.000457434 -0.000149111 -0.000264078)
(-0.000704263 -0.00102576 0.0055127)
(0.00262746 -0.000470734 0.0126317)
(0.00262873 -0.000712717 0.00950663)
(0.00132534 0.000165093 0.0113281)
(0.0016664 0.000264923 0.0121068)
(0.00257556 0.00157387 0.0134655)
(0.0020382 0.00095594 0.0139258)
(0.00140374 0.000884665 0.0145688)
(0.000732562 0.000792069 0.0134651)
(0.00247968 0.00104342 0.0116157)
(0.00189145 0.000233986 0.0153079)
(0.00172489 0.00100962 0.0141049)
(0.00224973 0.000756567 0.0127364)
(0.00314884 0.000287322 0.0138151)
(0.00227664 -4.89203e-05 0.0138689)
(0.00175459 0.000690523 0.0154069)
(0.000842893 0.00120161 0.0165355)
(0.000423544 0.00105732 0.0161922)
(0.00056184 0.00102366 0.0171136)
(-0.0006359 0.000812251 0.016086)
(0.00119219 0.00120103 0.0177295)
(0.000835693 0.00110744 0.0172503)
(0.000863737 0.000331632 0.0184727)
(0.000441977 0.00124956 0.0172075)
(0.000989696 0.000616095 0.017693)
(0.00145065 0.000456116 0.0184197)
(0.00162635 0.000359078 0.0180098)
(0.00215093 0.00104911 0.0187944)
(0.00102413 -0.00011249 0.0180934)
(0.00126957 -0.0014714 0.01714)
(-0.00019006 0.00104345 0.018733)
(-1.95913e-06 0.00181409 0.0190158)
(0.000414159 0.00125663 0.0171826)
(-0.000291143 0.00134107 0.0165345)
(0.0005162 0.00152577 0.0177929)
(-0.000191676 0.00186161 0.0172838)
(0.00016591 0.000864563 0.0181839)
(-0.000325138 0.00129706 0.0173722)
(0.000263098 0.0014386 0.0176307)
(0.000279188 0.00109699 0.019644)
(0.000948085 0.000264754 0.0189573)
(0.000711057 0.000969316 0.0186698)
(0.000685371 0.00111129 0.0186051)
(0.000967802 0.000950268 0.0188681)
(0.000919828 0.000231634 0.0196814)
(0.000205287 0.000591495 0.0193519)
(-0.000241557 0.000319037 0.0192682)
(0.000413765 0.000367412 0.0201587)
(-1.96988e-05 0.000416566 0.0189217)
(0.000122267 0.000268903 0.0180218)
(-0.000121613 0.000679683 0.0173914)
(-0.000413086 0.000718941 0.017915)
(0.000484717 -0.000248698 0.0187072)
(0.000274526 0.000146022 0.0183926)
(0.000100238 0.000258842 0.0185488)
(-0.000882607 0.000555208 0.0189564)
(0.000597926 -0.000247479 0.0192287)
(0.000109667 -2.4495e-05 0.0191757)
(4.61056e-05 0.000151952 0.0189696)
(-8.27006e-05 0.000377448 0.0189786)
(-0.000763476 0.000433444 0.0199469)
(-0.000319676 0.000204355 0.0198247)
(-8.73074e-05 0.000372976 0.0194231)
(-2.0567e-05 0.000489565 0.0192623)
(0.000596309 -0.00118475 0.0186569)
(-0.000114981 -0.00135057 0.0180272)
(-0.000371314 -1.76526e-05 0.0170746)
(-0.000512886 6.53484e-05 0.0178488)
(0.000401224 -0.000766288 0.018781)
(0.000706959 -0.000638677 0.0183866)
(6.31262e-05 -0.000547536 0.0182668)
(-0.000594967 0.000160037 0.018251)
(-0.000236591 -0.000680679 0.018791)
(5.78697e-05 -0.000516355 0.0192273)
(-0.000126673 -8.90377e-06 0.0191292)
(-0.000578041 0.000286686 0.0191771)
(-0.000290298 -0.000451793 0.0195945)
(-0.000332732 -0.000169689 0.0195893)
(-0.000170218 -1.08036e-05 0.0194284)
(-0.000247734 0.000438249 0.0194125)
(0.000962443 -0.000865984 0.017977)
(-0.000320787 -0.00110895 0.0183919)
(-9.85221e-05 -0.000126443 0.0182247)
(-0.00128492 1.98696e-05 0.0176262)
(-0.000239084 -0.000567414 0.0189209)
(-2.73065e-05 -0.000573955 0.018412)
(-6.77092e-05 -0.000369733 0.0180969)
(0.000139013 0.000496434 0.0172413)
(-0.000301715 -0.000489983 0.0185128)
(-0.000266351 -0.000798348 0.0188914)
(-8.77486e-05 -0.000632862 0.0188229)
(-0.000430138 0.000190886 0.0188852)
(-0.000165015 -0.000340129 0.0194358)
(-0.000329031 -0.000708494 0.0192192)
(-0.000133259 -0.000249928 0.0190283)
(-0.000190846 0.000866029 0.0193285)
(0 0 0)
(0 0 0)
(0 0 0)
(0 0 0)
(-2.97612e-05 -0.000916394 0.0190557)
(-0.000643242 -0.000435299 0.0176384)
(0.00067016 -0.000760891 0.0175084)
(0 0 0)
(0.000414263 -0.000336733 0.018172)
(0.000198046 -0.000870081 0.0190989)
(0.000145473 -0.000953046 0.0191222)
(0 0 0)
(-3.24651e-05 -0.00067647 0.0192067)
(0.000197823 -0.000710287 0.0193578)
(7.86951e-05 -0.00055088 0.018779)
(0 0 0)
(0 0 0)
(0 0 0)
(0 0 0)
(0 0 0)
(0 0 0)
(0 0 0)
(0 0 0)
(0 0 0)
(0 0 0)
(0 0 0)
(0 0 0)
(0 0 0)
(0 0 0)
(0 0 0)
(0 0 0)
(0 0 0)
(0 0 0)
(0 0 0)
(0 0 0)
(0 0 0)
(0 0 0)
(0 0 0)
(0 0 0)
(0 0 0)
(0 0 0)
(0 0 0)
(0 0 0)
(0 0 0)
(0 0 0)
(0 0 0)
(0 0 0)
(0 0 0)
(0 0 0)
(0 0 0)
(0 0 0)
(0 0 0)
(0 0 0)
(0 0 0)
(0 0 0)
(0 0 0)
(0 0 0)
(0 0 0)
(0 0 0)
(0 0 0)
(0 0 0)
(0 0 0)
(0 0 0)
(0 0 0)
(0 0 0)
(0 0 0)
(0 0 0)
(0 0 0)
(0 0 0)
(0 0 0)
(0 0 0)
(0 0 0)
(0 0 0)
(0 0 0)
(0 0 0)
(0 0 0)
(0 0 0)
(0 0 0)
(0 0 0)
(0 0 0)
(0 0 0)
(0 0 0)
(0 0 0)
(0 0 0)
(0 0 0)
(0 0 0)
(0 0 0)
(0 0 0)
(0 0 0)
(0 0 0)
(0 0 0)
(0 0 0)
(0 0 0)
(0 0 0)
(0 0 0)
(0 0 0)
(0 0 0)
(0 0 0)
(0 0 0)
(0 0 0)
(0 0 0)
(0 0 0)
(0 0 0)
(0 0 0)
(0 0 0)
(0 0 0)
(0 0 0)
(0 0 0)
(0 0 0)
(0 0 0)
(0 0 0)
(0 0 0)
(0 0 0)
(0 0 0)
(0 0 0)
(0 0 0)
(0 0 0)
(0 0 0)
(0 0 0)
(0 0 0)
(0 0 0)
(0 0 0)
(0 0 0)
(0 0 0)
(0 0 0)
(0 0 0)
(0 0 0)
(0 0 0)
(0 0 0)
(0 0 0)
(0 0 0)
(0 0 0)
(0 0 0)
(0 0 0)
(0 0 0)
(0 0 0)
(0 0 0)
(0 0 0)
(0 0 0)
(0 0 0)
(0 0 0)
(0 0 0)
(0 0 0)
(0 0 0)
(0 0 0)
(0 0 0)
(0 0 0)
(0 0 0)
(0 0 0)
(0 0 0)
(0 0 0)
(0 0 0)
(0 0 0)
(0 0 0)
(0 0 0)
(0 0 0)
(0 0 0)
(0 0 0)
(0 0 0)
(0 0 0)
(0 0 0)
(0 0 0)
(0 0 0)
(0 0 0)
(0 0 0)
(0 0 0)
(0 0 0)
(0 0 0)
(0 0 0)
(0 0 0)
(0 0 0)
(0 0 0)
(0 0 0)
(0 0 0)
(0 0 0)
(0 0 0)
(0 0 0)
(0 0 0)
(0 0 0)
(0 0 0)
(0 0 0)
(0 0 0)
(0 0 0)
(0 0 0)
(0 0 0)
(0 0 0)
(0 0 0)
(0 0 0)
(0 0 0)
(0 0 0)
(0 0 0)
(0 0 0)
(0 0 0)
(0 0 0)
(0 0 0)
(0 0 0)
(0 0 0)
(0 0 0)
(0 0 0)
(0 0 0)
(0 0 0)
(0 0 0)
(0 0 0)
(0 0 0)
(0 0 0)
(0 0 0)
(0 0 0)
(0 0 0)
(0 0 0)
(0 0 0)
(0 0 0)
(0 0 0)
(0 0 0)
(0 0 0)
(0 0 0)
(0 0 0)
(0 0 0)
(0 0 0)
(0 0 0)
(0 0 0)
(0 0 0)
(0 0 0)
(0 0 0)
(0 0 0)
(0 0 0)
(0 0 0)
(0 0 0)
(0 0 0)
(0 0 0)
(0 0 0)
(0 0 0)
(0 0 0)
(0 0 0)
(0 0 0)
(0 0 0)
(0 0 0)
(0 0 0)
(0 0 0)
(0 0 0)
(0 0 0)
(0 0 0)
(0 0 0)
(0 0 0)
(0 0 0)
(0 0 0)
(0 0 0)
(0 0 0)
(0 0 0)
(0 0 0)
(0 0 0)
(0 0 0)
(0 0 0)
(0 0 0)
(0 0 0)
(0 0 0)
(0 0 0)
(0 0 0)
(0 0 0)
(0 0 0)
(0 0 0)
(0 0 0)
(0 0 0)
(0 0 0)
(0 0 0)
(0 0 0)
(0 0 0)
(0 0 0)
(0 0 0)
(0 0 0)
(0 0 0)
(0 0 0)
(0 0 0)
(-5.37994e-05 0.000447851 -7.2406e-05)
(-0.000143356 0.000101515 -5.15831e-05)
(-0.000511133 -0.000356152 -0.000317539)
(4.46618e-05 0.000434421 -2.99412e-05)
(-0.000354743 0.000265966 6.56898e-06)
(-7.01546e-05 -7.40431e-05 -6.98214e-05)
(3.51291e-05 -7.44204e-05 -0.000105306)
(-0.000182754 0.000224714 -5.13546e-05)
(-0.000471929 0.000800072 -7.60977e-05)
(-7.04189e-05 4.63065e-05 -0.000214781)
(5.23844e-05 0.000107104 -0.000197416)
(-0.000369102 0.000342431 -5.77039e-05)
(-0.000372041 7.5222e-05 -0.000245374)
(0.000587731 0.000378927 -0.000320471)
(0.000206331 0.000237815 -6.58401e-05)
(-2.7601e-05 7.26274e-05 2.09349e-05)
(-0.000336078 0.000572667 0.0120957)
(-0.000574758 -1.04871e-05 0.0132549)
(-0.000547558 0.00101666 0.0115335)
(-0.000280133 -0.000160608 0.0100981)
(-0.000869371 1.89396e-05 0.0120488)
(-0.00145828 -0.000162195 0.0133837)
(-0.00119543 0.000572722 0.00952058)
(0.000402552 -0.00114466 0.0108395)
(-8.62367e-05 -0.000918321 0.013529)
(-0.000616649 -0.000245002 0.0131322)
(0.000266785 0.000189009 0.0133402)
(-0.000618548 -0.00237649 0.0156909)
(-0.000655281 -0.0027841 0.0131178)
(0.00140711 -0.00097721 0.0116777)
(0.0025689 -0.000814828 0.0106753)
(0.0012338 -3.76097e-06 0.0125179)
(0.00163763 0.000721849 0.0146414)
(-0.000161763 0.000307669 0.0139962)
(0.000861457 5.8422e-05 0.0143651)
(-0.000353471 -0.000889703 0.017346)
(0.000552377 0.000145845 0.0178572)
(-0.000366019 0.00106243 0.0140431)
(0.00019975 0.000229672 0.0164268)
(0.00117611 -0.00194711 0.0148367)
(0.000984896 -0.000115322 0.016477)
(-0.001166 0.000458199 0.0162328)
(-0.00100633 0.000686855 0.0175457)
(-0.000218059 -0.00204204 0.0164774)
(0.000201592 0.000654471 0.0154766)
(0.00104537 0.000274484 0.0152655)
(0.000382109 0.000982193 0.017247)
(-0.000796374 0.000637595 0.0162904)
(-0.00104055 -0.000270486 0.0143086)
(-0.00027134 0.000400118 0.0128082)
(-0.000614749 1.80991e-05 0.0148467)
(-0.000707798 0.00179224 0.0180553)
(-0.000828571 0.000979048 0.016839)
(4.88106e-05 0.00135979 0.0154484)
(4.47611e-06 0.000452973 0.0144925)
(0.000553882 0.00169054 0.0155454)
(0.000433159 0.00138332 0.016316)
(-0.000137355 0.00167526 0.0166811)
(4.00635e-05 0.000998397 0.0165071)
(0.000461717 0.000144335 0.0173996)
(0.000568149 0.00150669 0.0163222)
(1.00789e-05 0.00165166 0.0163962)
(-0.000237215 0.00201671 0.0168569)
(-0.00033495 0.0017162 0.0167901)
(-0.000672097 8.9025e-05 0.0114217)
(-0.00144106 8.93535e-05 0.0129616)
(-0.00185764 -0.000197923 0.0126833)
(0.000283874 0.00178331 0.0135019)
(-0.000144115 0.000621986 0.0156287)
(0.00013556 0.00111892 0.0143065)
(-0.000390647 0.0020696 0.0144242)
(-3.6588e-05 0.00186972 0.0153783)
(0.000558127 0.000955181 0.0175687)
(-0.000375023 0.000901216 0.0161764)
(-0.000663577 0.00241106 0.0168727)
(0.000672873 0.00201316 0.0167655)
(0.000286128 0.00119961 0.0173459)
(-7.20992e-05 0.000766376 0.0170017)
(-0.000530651 0.000948823 0.0170017)
(0.000329499 0.0015583 0.0169399)
(0.000693271 0.000751229 0.0120642)
(-0.000671265 0.000235166 0.0118497)
(-0.000857065 -0.000254098 0.0125898)
(-0.000391893 0.00066262 0.0125261)
(-3.30253e-05 -0.00106352 0.0160286)
(0.000475652 -2.13887e-05 0.0158482)
(-0.000814153 0.000364748 0.0142126)
(-0.000406381 -0.000907638 0.0143445)
(0.000873639 -0.000261717 0.0172082)
(-0.000257451 4.29393e-05 0.0170114)
(-0.00137845 6.91377e-05 0.0167456)
(-0.00156388 -0.000768474 0.0162934)
(0.000177494 -0.00130273 0.0186149)
(-0.000168519 -0.00127322 0.0177544)
(-0.00152597 -5.13191e-05 0.0171375)
(-0.000920342 -8.92396e-05 0.0173122)
(-0.00121385 0.000240772 0.0129502)
(5.8249e-05 -0.00178024 0.0143649)
(0.00226563 -0.000543092 0.0145862)
(0.00211613 -0.0010738 0.0118315)
(0.000672657 0.00157608 0.0159193)
(0.0026241 -0.000821663 0.0150258)
(0.000803548 -0.00059755 0.0157559)
(0.000590454 0.000256469 0.0161483)
(0.00111892 -4.13448e-05 0.0173311)
(0.000170823 -0.00193237 0.0143721)
(-0.00118256 -3.1749e-05 0.0171565)
(0.000234934 -0.000307261 0.0155996)
(0.000606827 -0.00162392 0.0185795)
(-0.00256442 -0.00199779 0.0148699)
(-0.00114074 0.000323405 0.0171647)
(-0.000620605 -0.000742143 0.0169513)
(0 0 0)
(0 0 0)
(0 0 0)
(0 0 0)
(0 0 0)
(0 0 0)
(0 0 0)
(0 0 0)
(0 0 0)
(0 0 0)
(0 0 0)
(0 0 0)
(0 0 0)
(0 0 0)
(0 0 0)
(0 0 0)
(0 0 0)
(0 0 0)
(0 0 0)
(0 0 0)
(0 0 0)
(0 0 0)
(0 0 0)
(0 0 0)
(0 0 0)
(0 0 0)
(0 0 0)
(0 0 0)
(0 0 0)
(0 0 0)
(0 0 0)
(0 0 0)
(0 0 0)
(0 0 0)
(0 0 0)
(0 0 0)
(0 0 0)
(0 0 0)
(0 0 0)
(0 0 0)
(0 0 0)
(0 0 0)
(0 0 0)
(0 0 0)
(0 0 0)
(0 0 0)
(0 0 0)
(0 0 0)
(0 0 0)
(0 0 0)
(0 0 0)
(0 0 0)
(0 0 0)
(0 0 0)
(0 0 0)
(0 0 0)
(0 0 0)
(0 0 0)
(0 0 0)
(0 0 0)
(0 0 0)
(0 0 0)
(0 0 0)
(0 0 0)
(0 0 0)
(0 0 0)
(0 0 0)
(0 0 0)
(0 0 0)
(0 0 0)
(0 0 0)
(0 0 0)
(0 0 0)
(0 0 0)
(0 0 0)
(0 0 0)
(0 0 0)
(0 0 0)
(0 0 0)
(0 0 0)
(0 0 0)
(0 0 0)
(0 0 0)
(0 0 0)
(0 0 0)
(0 0 0)
(0 0 0)
(0 0 0)
(0 0 0)
(0 0 0)
(0 0 0)
(0 0 0)
(0 0 0)
(0 0 0)
(0 0 0)
(0 0 0)
(0 0 0)
(0 0 0)
(0 0 0)
(0 0 0)
(0 0 0)
(0 0 0)
(0 0 0)
(0 0 0)
(0 0 0)
(0 0 0)
(0 0 0)
(0 0 0)
(0 0 0)
(0 0 0)
(0 0 0)
(0 0 0)
(0 0 0)
(0 0 0)
(0 0 0)
(0 0 0)
(0 0 0)
(0 0 0)
(0 0 0)
(0 0 0)
(0 0 0)
(0 0 0)
(0 0 0)
(0 0 0)
(0 0 0)
(0 0 0)
(0 0 0)
(0 0 0)
(0 0 0)
(0 0 0)
(0 0 0)
(0 0 0)
(0 0 0)
(0 0 0)
(0 0 0)
(0 0 0)
(0 0 0)
(0 0 0)
(0 0 0)
(0 0 0)
(0 0 0)
(0 0 0)
(0 0 0)
(0 0 0)
(0 0 0)
(0 0 0)
(0 0 0)
(0 0 0)
(0 0 0)
(0 0 0)
(0 0 0)
(0 0 0)
(0 0 0)
(0 0 0)
(0 0 0)
(0 0 0)
(0 0 0)
(0 0 0)
(0 0 0)
(0 0 0)
(0 0 0)
(0 0 0)
(0 0 0)
(0 0 0)
(0 0 0)
(0 0 0)
(0 0 0)
(0 0 0)
(0 0 0)
(0 0 0)
(0 0 0)
(0 0 0)
(0 0 0)
(0 0 0)
(0 0 0)
(0 0 0)
(0 0 0)
(0 0 0)
(0 0 0)
(0 0 0)
(0 0 0)
(0 0 0)
(0 0 0)
(0 0 0)
(0 0 0)
(0 0 0)
(0 0 0)
(0 0 0)
(0 0 0)
(0 0 0)
(0 0 0)
(0 0 0)
(0 0 0)
(0 0 0)
(0 0 0)
(0 0 0)
(0 0 0)
(0 0 0)
(0 0 0)
(0 0 0)
(0 0 0)
(0 0 0)
(0 0 0)
(0 0 0)
(0 0 0)
(0 0 0)
(0 0 0)
(0 0 0)
(0 0 0)
(0 0 0)
(0 0 0)
(0 0 0)
(0 0 0)
(0 0 0)
(0 0 0)
(0 0 0)
(0 0 0)
(0 0 0)
(0 0 0)
(0 0 0)
(0 0 0)
(0 0 0)
(0 0 0)
(0 0 0)
(0 0 0)
(0 0 0)
(0 0 0)
(0 0 0)
(0 0 0)
(0 0 0)
(0 0 0)
(0 0 0)
(0 0 0)
(0 0 0)
(0 0 0)
(0 0 0)
(0 0 0)
(0 0 0)
(0 0 0)
(0 0 0)
(0 0 0)
(0 0 0)
(0 0 0)
(0 0 0)
(0 0 0)
(0 0 0)
(0 0 0)
(0 0 0)
(0 0 0)
(0 0 0)
(0 0 0)
(0 0 0)
(0 0 0)
(0 0 0)
(0 0 0)
(0 0 0)
(0 0 0)
(0 0 0)
(0 0 0)
(0 0 0)
(0 0 0)
(0 0 0)
(0 0 0)
(0 0 0)
(0 0 0)
(0 0 0)
(0 0 0)
(0 0 0)
(0 0 0)
(0 0 0)
(0 0 0)
(0 0 0)
(-8.13808e-05 5.81549e-05 3.1119e-05)
(-0.000269135 1.63856e-05 1.95235e-05)
(-0.000104423 5.33994e-05 2.3429e-05)
(-4.94707e-05 2.08703e-05 -8.71364e-06)
(3.73746e-05 2.80877e-06 -0.000102828)
(-0.00010495 -5.45211e-05 2.33425e-05)
(-1.53552e-05 -2.90274e-05 0.000116378)
(-4.51989e-05 -7.57586e-06 1.84904e-05)
(-0.000741556 -0.000547568 -0.000172508)
(-0.000162407 -5.81972e-05 -5.43659e-05)
(-3.612e-05 2.08883e-05 -4.6006e-05)
(-1.24046e-05 2.27517e-05 1.71985e-05)
(-0.000103722 0.000273806 -0.000523842)
(-0.000612208 -6.82561e-05 -0.000237582)
(-0.000124667 9.11686e-05 -0.000129427)
(-2.82984e-05 -2.67686e-05 7.88884e-05)
(0.00027741 -7.74004e-05 0.0132948)
(0.00066265 -0.000255318 0.0116488)
(0.000348581 -0.000757103 0.00752783)
(-0.000921803 -0.00066004 0.0130822)
(0.000610639 0.000775869 0.0128583)
(0.000460975 0.000738209 0.0101303)
(-0.000468789 0.000451668 0.0113635)
(-0.0019849 -0.00241796 0.0130765)
(0.000569159 0.00185574 0.0135434)
(-0.000251884 0.00240755 0.0130515)
(-0.00105678 0.000876226 0.0117869)
(-0.00074982 -0.00104704 0.011076)
(0.000828538 0.000910061 0.0140687)
(-0.00124332 0.00195453 0.0142941)
(-0.0020099 0.00361052 0.0111685)
(-0.00313466 0.00603988 0.0114255)
(0.000352226 0.00126603 0.0152303)
(0.00345244 0.00133253 0.0144345)
(0.00218115 0.00141903 0.0163187)
(0.000545645 0.000362456 0.016473)
(0.000371287 0.00304228 0.0170213)
(0.000657813 0.00169469 0.0151511)
(0.000452839 0.00111202 0.0155432)
(2.72628e-05 0.000926512 0.0144852)
(0.00185962 0.0022 0.0180005)
(0.0015529 0.00115152 0.0165438)
(0.00121953 0.000302348 0.015441)
(0.000368136 -0.000811451 0.0151707)
(-5.6138e-05 0.00103702 0.019227)
(0.000102111 0.00101975 0.0178537)
(-0.000126256 -0.000137203 0.0169522)
(-0.000628506 0.000386971 0.0139056)
(-0.00177899 0.00129555 0.0152971)
(-0.000640371 0.00232549 0.0164067)
(0.00092634 0.00248372 0.0162676)
(0.00103992 0.00149443 0.0154024)
(0.000348679 0.00132219 0.0170809)
(-0.00104593 0.00216479 0.0162886)
(-0.00118611 0.000607438 0.0172371)
(1.61153e-05 0.00140937 0.016832)
(0.00161857 0.00190768 0.0192757)
(0.00107862 0.000566692 0.018576)
(-0.00113113 -0.000116803 0.0182622)
(-0.000295094 -0.000855867 0.0185961)
(-0.00101029 0.00164869 0.0196519)
(-0.00114162 0.00138686 0.0179264)
(-0.000588532 5.57758e-05 0.0171816)
(-0.00169622 -0.000534953 0.0143518)
(-0.000607092 0.00219748 0.016234)
(-0.000542274 0.00135273 0.0150043)
(0.00087388 0.00252575 0.0146726)
(0.0011653 0.00104294 0.0139418)
(-0.000341471 0.00234443 0.0182766)
(-0.00222392 0.00126565 0.0161933)
(-0.00206054 0.00153228 0.0165317)
(-0.000362317 0.00101057 0.0157563)
(-0.000292556 0.00127458 0.0195279)
(-0.000233537 0.00208622 0.0179636)
(-0.00148017 0.00288239 0.0165127)
(-0.00100513 0.000805171 0.0146542)
(-0.000288771 0.00127485 0.0190711)
(-0.00100803 0.0014373 0.0186219)
(-0.00104247 0.000864689 0.0171587)
(-0.000999172 -0.000382877 0.0119879)
(-0.00104402 -0.000251286 0.0168854)
(-0.000864647 0.000212827 0.015839)
(-0.000945461 0.000350329 0.0146628)
(0.000381761 0.00106114 0.0136722)
(-0.00100842 0.000557499 0.0179951)
(-0.0025326 0.000651417 0.0176515)
(-0.00154721 0.000112836 0.0150162)
(7.27047e-06 0.000624263 0.013402)
(-0.000851828 0.00106162 0.01899)
(-0.00126648 0.00107584 0.0176327)
(-0.00183841 -9.16532e-05 0.0154592)
(-0.000219012 0.000449717 0.0124169)
(-0.000632198 0.000460529 0.0192799)
(-0.000353254 0.000446946 0.0178749)
(0.000134406 -0.000419918 0.0160656)
(-0.000439006 0.000169614 0.0128313)
(-0.00112802 -0.0007047 0.0165832)
(0.000403889 -0.00222257 0.0158514)
(0.00136256 0.000226878 0.0135355)
(0.000277438 0.00114294 0.0121116)
(-0.000782499 0.00131997 0.0166259)
(-0.00173726 0.000994852 0.0157068)
(-0.000906938 -0.000628349 0.0134621)
(-0.0012217 -0.000753687 0.0107906)
(-0.000286308 0.000224613 0.0190367)
(0.0016862 0.00066978 0.0155466)
(0.00123247 -0.00149386 0.0150325)
(0.000470474 0.000148977 0.0114008)
(0.000670019 -0.000662494 0.0186253)
(0.00342204 -0.00277939 0.0145834)
(0.0016116 -0.00213702 0.0143188)
(0.000436693 -0.000686702 0.0132449)
(0 0 0)
(0 0 0)
(0 0 0)
(0 0 0)
(0 0 0)
(0 0 0)
(0 0 0)
(0.00244352 -0.00216565 0.0133805)
(0 0 0)
(0 0 0)
(0 0 0)
(0.000478512 8.19497e-05 0.0105925)
(0 0 0)
(0 0 0)
(0 0 0)
(0 0 0)
(0 0 0)
(0 0 0)
(0 0 0)
(0 0 0)
(0 0 0)
(0 0 0)
(0 0 0)
(0 0 0)
(0 0 0)
(0 0 0)
(0 0 0)
(0 0 0)
(0 0 0)
(0 0 0)
(0 0 0)
(0 0 0)
(0 0 0)
(0 0 0)
(0 0 0)
(0 0 0)
(0 0 0)
(0 0 0)
(0 0 0)
(0 0 0)
(0 0 0)
(0 0 0)
(0 0 0)
(0 0 0)
(0 0 0)
(0 0 0)
(0 0 0)
(0 0 0)
(0 0 0)
(0 0 0)
(0 0 0)
(0 0 0)
(0 0 0)
(0 0 0)
(0 0 0)
(0 0 0)
(0 0 0)
(0 0 0)
(0 0 0)
(0 0 0)
(0 0 0)
(0 0 0)
(0 0 0)
(0 0 0)
(0 0 0)
(0 0 0)
(0 0 0)
(0 0 0)
(0 0 0)
(0 0 0)
(0 0 0)
(0 0 0)
(0 0 0)
(0 0 0)
(0 0 0)
(0 0 0)
(0 0 0)
(0 0 0)
(0 0 0)
(0 0 0)
(0 0 0)
(0 0 0)
(0 0 0)
(0 0 0)
(0 0 0)
(0 0 0)
(0 0 0)
(0 0 0)
(0 0 0)
(0 0 0)
(0 0 0)
(0 0 0)
(0 0 0)
(0 0 0)
(0 0 0)
(0 0 0)
(0 0 0)
(0 0 0)
(0 0 0)
(0 0 0)
(0 0 0)
(0 0 0)
(0 0 0)
(0 0 0)
(0 0 0)
(0 0 0)
(0 0 0)
(0 0 0)
(0 0 0)
(0 0 0)
(0 0 0)
(0 0 0)
(0 0 0)
(0 0 0)
(0 0 0)
(0 0 0)
(0 0 0)
(0 0 0)
(0 0 0)
(0 0 0)
(0 0 0)
(0 0 0)
(0 0 0)
(0 0 0)
(0 0 0)
(0 0 0)
(0 0 0)
(0 0 0)
(0 0 0)
(0 0 0)
(0 0 0)
(0 0 0)
(0 0 0)
(0 0 0)
(0 0 0)
(0 0 0)
(0 0 0)
(0 0 0)
(0 0 0)
(0 0 0)
(0 0 0)
(0 0 0)
(0 0 0)
(0 0 0)
(0 0 0)
(0 0 0)
(0 0 0)
(0 0 0)
(0 0 0)
(0 0 0)
(0 0 0)
(0 0 0)
(0 0 0)
(0 0 0)
(0 0 0)
(0 0 0)
(0 0 0)
(0 0 0)
(0 0 0)
(0 0 0)
(0 0 0)
(0 0 0)
(0 0 0)
(0 0 0)
(0 0 0)
(0 0 0)
(0 0 0)
(0 0 0)
(0 0 0)
(0 0 0)
(0 0 0)
(0 0 0)
(0 0 0)
(0 0 0)
(0 0 0)
(0 0 0)
(0 0 0)
(0 0 0)
(0 0 0)
(0 0 0)
(0 0 0)
(0 0 0)
(0 0 0)
(0 0 0)
(0 0 0)
(0 0 0)
(0 0 0)
(0 0 0)
(0 0 0)
(0 0 0)
(0 0 0)
(0 0 0)
(0 0 0)
(0 0 0)
(0 0 0)
(0 0 0)
(0 0 0)
(0 0 0)
(0 0 0)
(0 0 0)
(0 0 0)
(0 0 0)
(0 0 0)
(0 0 0)
(0 0 0)
(0 0 0)
(0 0 0)
(0 0 0)
(0 0 0)
(0 0 0)
(0 0 0)
(0 0 0)
(0 0 0)
(0 0 0)
(0 0 0)
(0 0 0)
(0 0 0)
(0 0 0)
(0 0 0)
(0 0 0)
(0 0 0)
(0 0 0)
(0 0 0)
(0 0 0)
(0 0 0)
(0 0 0)
(0 0 0)
(0 0 0)
(0 0 0)
(0 0 0)
(0 0 0)
(0 0 0)
(0 0 0)
(0 0 0)
(0 0 0)
(0 0 0)
(0 0 0)
(0 0 0)
(0 0 0)
(0 0 0)
(0 0 0)
(0 0 0)
(0 0 0)
(0 0 0)
(0 0 0)
(0 0 0)
(0 0 0)
(0 0 0)
(0 0 0)
(0 0 0)
(0 0 0)
(0 0 0)
(0 0 0)
(0 0 0)
(0 0 0)
(0 0 0)
(0 0 0)
(0 0 0)
(0 0 0)
(0 0 0)
(0 0 0)
(0 0 0)
(0 0 0)
(0 0 0)
(0 0 0)
(0 0 0)
(0 0 0)
(0 0 0)
(0 0 0)
(0 0 0)
(0 0 0)
(0 0 0)
)
;

boundaryField
{
    inlet
    {
        type            zeroGradient;
    }
    outlet
    {
        type            zeroGradient;
    }
    wall
    {
        type            zeroGradient;
    }
    procBoundary1to0
    {
        type            processor;
        value           nonuniform List<vector> 
192
(
(-5.68857e-05 -0.00014755 -8.89058e-05)
(-6.20088e-05 4.22873e-05 7.18419e-06)
(0.000108478 8.21917e-05 4.31966e-05)
(4.57771e-05 6.44694e-05 -4.08586e-05)
(-0.000780218 -7.20826e-07 0.01259)
(-5.64153e-05 0.000704422 0.0120855)
(5.68393e-05 -0.000795994 0.0118599)
(0.00174716 8.32416e-05 0.0123209)
(0.000718898 0.0015357 0.0166678)
(0.00171263 0.000995912 0.0175393)
(0.000611509 -0.00012239 0.0180472)
(0.00101614 -0.000114624 0.0192381)
(0.000847319 0.00153013 0.0174827)
(0.000408768 0.000541189 0.0181748)
(0.00054344 -3.2708e-05 0.0184467)
(0.000854788 0.000368754 0.0192019)
(0.00046116 0.000415921 0.0180871)
(0.000407362 -0.000217116 0.0187885)
(0.000670477 -0.00028205 0.0192435)
(0.000557932 0.000153803 0.0190287)
(0.000356408 -0.000205416 0.0182986)
(0.000450574 -0.000709974 0.0186256)
(-3.08235e-05 -0.000274605 0.0188783)
(0.000252302 -0.000121388 0.0194143)
(0.00140343 -0.00157108 0.0185868)
(0.000526324 -0.00105665 0.0184439)
(-1.72361e-05 -0.000597436 0.0188037)
(-0.000260844 -0.000648481 0.0191102)
(0 0 0)
(0.000118176 -0.001871 0.0178156)
(0.000118176 -0.001871 0.0178156)
(-0.00101385 -0.000566505 0.0188283)
(0 0 0)
(0 0 0)
(0 0 0)
(0 0 0)
(0 0 0)
(0 0 0)
(0 0 0)
(0 0 0)
(0 0 0)
(0 0 0)
(0 0 0)
(0 0 0)
(0 0 0)
(0 0 0)
(0 0 0)
(0 0 0)
(0 0 0)
(0 0 0)
(0 0 0)
(0 0 0)
(0 0 0)
(0 0 0)
(0 0 0)
(0 0 0)
(0 0 0)
(0 0 0)
(0 0 0)
(0 0 0)
(0 0 0)
(0 0 0)
(0 0 0)
(0 0 0)
(0 0 0)
(0 0 0)
(0 0 0)
(0 0 0)
(0 0 0)
(0 0 0)
(0 0 0)
(0 0 0)
(0 0 0)
(0 0 0)
(0 0 0)
(0 0 0)
(0 0 0)
(0 0 0)
(0 0 0)
(0 0 0)
(0 0 0)
(0 0 0)
(0 0 0)
(0 0 0)
(0 0 0)
(0 0 0)
(0 0 0)
(0 0 0)
(0 0 0)
(0 0 0)
(0 0 0)
(0 0 0)
(0 0 0)
(0 0 0)
(0 0 0)
(0 0 0)
(-0.000575239 6.5909e-05 -1.4312e-05)
(0.000124491 3.04409e-05 -0.000129648)
(6.5576e-05 -3.58585e-05 -7.60495e-05)
(0.000347327 -6.29225e-05 -2.004e-05)
(0.000559089 -0.000911217 0.0133987)
(0.00266881 0.000215956 0.0120451)
(0.000562327 0.00177159 0.0144888)
(-0.000316317 0.000666566 0.014054)
(0.00254864 -1.71023e-05 0.0172435)
(0.00203051 0.0012225 0.0151671)
(0.00177279 0.0012043 0.0153773)
(6.57583e-05 0.00221037 0.0166135)
(-0.00210793 0.000816879 0.013627)
(-0.0017149 0.0019176 0.0135469)
(0.000848755 0.0013264 0.015514)
(0.000853259 0.00160714 0.0169891)
(-0.00065394 0.00146973 0.0135436)
(0.000138778 0.00111687 0.0142437)
(0.000807129 0.00106801 0.0155867)
(0.000530718 0.00102248 0.0171825)
(-0.00116521 -0.000262615 0.0120209)
(0.000335219 0.000555077 0.0140949)
(0.00150838 0.000335727 0.0165879)
(0.00117936 0.000134912 0.0185561)
(0.000607988 -0.00133193 0.0111645)
(0.000521749 -0.00160977 0.012985)
(0.00104442 -0.000278911 0.0164349)
(0.000332837 -0.000700905 0.0182886)
(0 0 0)
(0 0 0)
(0 0 0)
(0 0 0)
(0 0 0)
(0 0 0)
(0 0 0)
(0 0 0)
(0 0 0)
(0 0 0)
(0 0 0)
(0 0 0)
(0 0 0)
(0 0 0)
(0 0 0)
(0 0 0)
(0 0 0)
(0 0 0)
(0 0 0)
(0 0 0)
(0 0 0)
(0 0 0)
(0 0 0)
(0 0 0)
(0 0 0)
(0 0 0)
(0 0 0)
(0 0 0)
(0 0 0)
(0 0 0)
(0 0 0)
(0 0 0)
(0 0 0)
(0 0 0)
(0 0 0)
(0 0 0)
(0 0 0)
(0 0 0)
(0 0 0)
(0 0 0)
(0 0 0)
(0 0 0)
(0 0 0)
(0 0 0)
(0 0 0)
(0 0 0)
(0 0 0)
(0 0 0)
(0 0 0)
(0 0 0)
(0 0 0)
(0 0 0)
(0 0 0)
(0 0 0)
(0 0 0)
(0 0 0)
(0 0 0)
(0 0 0)
(0 0 0)
(0 0 0)
(0 0 0)
(0 0 0)
(0 0 0)
(0 0 0)
(0 0 0)
(0 0 0)
(0 0 0)
(0 0 0)
)
;
    }
    procBoundary1to3
    {
        type            processor;
        value           nonuniform List<vector> 
192
(
(-6.49718e-05 0.000114381 7.33772e-05)
(-0.000399502 0.000176634 5.77415e-05)
(-0.0015001 -9.21274e-05 -0.000184917)
(-0.000817965 -2.95471e-05 0.000103423)
(0.000373808 -0.000918741 0.01238)
(0.00196497 7.12493e-05 0.0128193)
(0.00373189 -0.000854435 0.00878529)
(0.00250219 -0.000966476 0.0116996)
(-0.00175364 -0.00115818 0.0188767)
(0.00254524 -0.00133404 0.0172544)
(0.0033408 -0.000292659 0.0177956)
(-9.83854e-05 -4.90335e-05 0.0180308)
(-0.000121587 0.00014173 0.0189834)
(-0.000319463 0.00029083 0.0195459)
(-0.000460955 0.000498566 0.0192764)
(-0.000796512 0.000427677 0.0191248)
(4.4257e-05 0.000183625 0.0194926)
(-0.000201194 3.34147e-05 0.0198408)
(-0.000300961 0.000294653 0.019723)
(-0.000698288 0.000425255 0.0194167)
(-0.000591918 0.000193384 0.019638)
(-0.000505546 0.000237096 0.0199002)
(-0.000202832 4.30566e-05 0.0195359)
(0.000227541 0.000233403 0.0201345)
(-0.000343345 8.60716e-05 0.0192942)
(-0.000295423 -0.00043306 0.0192783)
(-0.000750836 -0.000432852 0.0194335)
(0.000254102 0.000416919 0.0194742)
(0 0 0)
(-0.000213592 -0.000566688 0.0194139)
(0 0 0)
(0 0 0)
(0 0 0)
(0 0 0)
(0 0 0)
(0 0 0)
(0 0 0)
(0 0 0)
(0 0 0)
(0 0 0)
(0 0 0)
(0 0 0)
(0 0 0)
(0 0 0)
(0 0 0)
(0 0 0)
(0 0 0)
(0 0 0)
(0 0 0)
(0 0 0)
(0 0 0)
(0 0 0)
(0 0 0)
(0 0 0)
(0 0 0)
(0 0 0)
(0 0 0)
(0 0 0)
(0 0 0)
(0 0 0)
(0 0 0)
(0 0 0)
(0 0 0)
(0 0 0)
(0 0 0)
(0 0 0)
(0 0 0)
(0 0 0)
(0 0 0)
(0 0 0)
(0 0 0)
(0 0 0)
(0 0 0)
(0 0 0)
(0 0 0)
(0 0 0)
(0 0 0)
(0 0 0)
(0 0 0)
(0 0 0)
(0 0 0)
(0 0 0)
(0 0 0)
(0 0 0)
(0 0 0)
(0 0 0)
(0 0 0)
(0 0 0)
(0 0 0)
(0 0 0)
(0 0 0)
(0 0 0)
(0 0 0)
(0 0 0)
(0 0 0)
(0 0 0)
(-0.000355483 -0.000629609 -0.000617439)
(-0.000114315 -0.000713557 -0.000481465)
(-0.000162193 -7.07718e-06 4.65929e-05)
(-0.000294371 0.000230521 -0.000115977)
(0.00183683 -0.000602121 0.0130453)
(0.000407428 0.00153147 0.0128646)
(0.00113425 0.00337811 0.0137272)
(8.16328e-05 0.00384476 0.0130602)
(-0.000761517 0.000790098 0.0177148)
(-0.00113759 0.00117402 0.0176901)
(-0.00155712 0.00172746 0.0169219)
(-0.000746023 0.00107397 0.0165799)
(-0.00121221 0.00151576 0.0194725)
(-0.00100946 0.00114445 0.0185114)
(-0.00169964 0.000246006 0.0188059)
(-0.000967774 0.000923496 0.0168645)
(-0.000849757 0.000143063 0.0188129)
(-0.00137399 0.000162229 0.0200492)
(-0.00124317 -0.000583588 0.0183716)
(0.000104453 -0.00169357 0.0158227)
(0.000297611 -7.83682e-05 0.0197748)
(-0.000659209 0.00064564 0.0189559)
(-0.000234277 3.56072e-06 0.0171892)
(-0.000460689 -0.00143639 0.0154479)
(0.00198279 -0.000511915 0.018726)
(0.000846145 0.000100163 0.0183899)
(0.0017454 -0.00242411 0.0163627)
(0.00117732 -0.00178897 0.0150026)
(0 0 0)
(0 0 0)
(0 0 0)
(0 0 0)
(0 0 0)
(0 0 0)
(0 0 0)
(0 0 0)
(0 0 0)
(0 0 0)
(0 0 0)
(0 0 0)
(0 0 0)
(0 0 0)
(0 0 0)
(0 0 0)
(0 0 0)
(0 0 0)
(0 0 0)
(0 0 0)
(0 0 0)
(0 0 0)
(0 0 0)
(0 0 0)
(0 0 0)
(0 0 0)
(0 0 0)
(0 0 0)
(0 0 0)
(0 0 0)
(0 0 0)
(0 0 0)
(0 0 0)
(0 0 0)
(0 0 0)
(0 0 0)
(0 0 0)
(0 0 0)
(0 0 0)
(0 0 0)
(0 0 0)
(0 0 0)
(0 0 0)
(0 0 0)
(0 0 0)
(0 0 0)
(0 0 0)
(0 0 0)
(0 0 0)
(0 0 0)
(0 0 0)
(0 0 0)
(0 0 0)
(0 0 0)
(0 0 0)
(0 0 0)
(0 0 0)
(0 0 0)
(0 0 0)
(0 0 0)
(0 0 0)
(0 0 0)
(0 0 0)
(0 0 0)
(0 0 0)
(0 0 0)
(0 0 0)
(0 0 0)
)
;
    }
}


// ************************************************************************* //
