FoamFile
{version 2.0; format ascii;class Cloud<passiveParticle>; location 0;object  positions;}
2496
(
( -0.00235418 0.000120134 0.00185844 ) 0 
( -0.0123457 0.000648725 0.00320077 ) 0 
( -0.0123511 0.000398254 0.00223346 ) 0 
( -0.00875021 0.00019002 0.00561775 ) 0 
( -0.00849163 8.71917e-05 0.00370606 ) 0 
( -0.00220529 0.000640471 0.00760384 ) 0 
( -0.00319645 0.00016529 0.00132419 ) 0 
( -0.0119608 0.000114721 0.00135905 ) 0 
( -0.00428105 0.000116834 0.00597421 ) 0 
( -0.000295557 9.75837e-05 0.00286219 ) 0 
( -0.0110715 8.93741e-05 0.00643424 ) 0 
( -0.0133443 0.000415491 0.00212832 ) 0 
( -0.0058749 0.000179306 0.00338509 ) 0 
( -0.00375529 0.000121063 0.000497416 ) 0 
( -0.00831983 0.000275429 0.00271729 ) 0 
( -0.00524818 0.00040563 0.00809565 ) 0 
( -0.00938544 2.83909e-05 0.0129705 ) 0 
( -0.00485677 1.00344e-05 0.0128645 ) 0 
( -0.0110821 0.00152205 0.0141669 ) 0 
( -0.0113075 0.0032629 0.0149991 ) 0 
( -0.00775137 0.000632014 0.0142043 ) 0 
( -0.006684 0.000212736 0.0144871 ) 0 
( -0.000892625 0.000117445 0.0106457 ) 0 
( -0.00691006 4.07329e-05 0.0130764 ) 0 
( -0.0127334 0.000250336 0.0120466 ) 0 
( -0.0108622 0.000569021 0.0139597 ) 0 
( -0.00826876 0.000492712 0.0128803 ) 0 
( -0.0059378 0.000269205 0.0131189 ) 0 
( -0.00234188 6.9148e-05 0.0115435 ) 0 
( -0.00283368 3.85826e-06 0.00898042 ) 0 
( -0.00911681 0.000990895 0.00161997 ) 0 
( -0.00114257 0.00974857 0.00123811 ) 0 
( -0.00617192 0.00411076 0.00401534 ) 0 
( -0.00541039 0.0037641 0.00697244 ) 0 
( -0.00202261 0.00568713 0.00324416 ) 0 
( -0.000618025 0.0116322 0.00749626 ) 0 
( -0.00112896 0.012038 0.0015477 ) 0 
( -0.0125105 0.00187977 0.00143961 ) 0 
( -0.00650534 0.0061426 0.00474824 ) 0 
( -0.00263883 0.0109434 0.00732186 ) 0 
( -0.0120681 0.0025961 0.000498639 ) 0 
( -0.00344553 0.00875839 0.00453517 ) 0 
( -0.00999364 0.00262332 0.000499918 ) 0 
( -0.00983401 0.0076513 0.000498626 ) 0 
( -0.0105161 0.00657976 0.00289889 ) 0 
( -0.00727919 0.0043034 0.00211153 ) 0 
( -0.00428555 0.00553516 0.00335483 ) 0 
( -0.00328449 0.00544005 0.00324473 ) 0 
( -0.0108909 0.00562072 0.00118904 ) 0 
( -0.0121432 0.000996889 0.00591619 ) 0 
( -0.00756257 0.00631419 0.00620576 ) 0 
( -0.00256834 0.00165556 0.00545732 ) 0 
( -0.00390949 0.00886106 0.00541345 ) 0 
( -0.00525359 0.00439484 0.00487476 ) 0 
( -0.00548618 0.00602938 0.00217313 ) 0 
( -0.00672787 0.00932783 0.000498977 ) 0 
( -0.000373308 0.00523575 0.00436815 ) 0 
( -0.0110962 0.00311181 0.000499786 ) 0 
( -0.00108367 0.0105209 0.0032223 ) 0 
( -0.00859131 0.0092177 0.00576118 ) 0 
( -0.000686831 0.00733625 0.00537549 ) 0 
( -0.00634987 0.000459879 0.00203469 ) 0 
( -0.00533363 0.00934346 0.00200576 ) 0 
( -0.012312 0.00516252 0.00474508 ) 0 
( -0.00166766 0.00498971 0.0012393 ) 0 
( -0.000910003 0.00356418 0.00336097 ) 0 
( -0.0126566 0.00424885 0.000499093 ) 0 
( -0.000865901 0.00780957 0.00380509 ) 0 
( -0.00692738 0.00973946 0.00237935 ) 0 
( -0.00550862 0.00222954 0.00734078 ) 0 
( -0.00335463 0.00945134 0.00600189 ) 0 
( -0.00172152 0.00779254 0.00665391 ) 0 
( -0.0104529 0.00319342 0.00228037 ) 0 
( -0.00364875 0.00615707 0.0049854 ) 0 
( -0.00112658 0.00437499 0.00670784 ) 0 
( -0.00134556 0.00945588 0.00330707 ) 0 
( -0.0110801 0.00466226 0.00341598 ) 0 
( -0.00314456 0.00873074 0.000499077 ) 0 
( -0.000572466 0.0126882 0.00387597 ) 0 
( -0.0106318 0.0015952 0.00135235 ) 0 
( -0.00844199 0.00375134 0.00379889 ) 0 
( -0.00896448 0.00803337 0.0056648 ) 0 
( -0.00505034 0.00307754 0.000946405 ) 0 
( -0.00202114 0.00442146 0.000497782 ) 0 
( -0.00164929 0.0104518 0.00404201 ) 0 
( -0.00296984 0.00234546 0.00485691 ) 0 
( -0.00945562 0.000329636 0.00426535 ) 0 
( -0.00376473 0.0103521 0.00586158 ) 0 
( -0.00324007 0.0120369 0.00682017 ) 0 
( -0.00698218 0.00325198 0.00498714 ) 0 
( -0.00800363 0.00457618 0.00344862 ) 0 
( -0.00326794 0.00555192 0.00568454 ) 0 
( -0.0100405 0.00724052 0.00138409 ) 0 
( -0.00164873 0.00131919 0.00294039 ) 0 
( -0.00573958 0.00712051 0.00336858 ) 0 
( -0.00104934 0.00802487 0.00216943 ) 0 
( -0.00580517 0.0013861 0.00687315 ) 0 
( -0.00262204 0.00110259 0.00682346 ) 0 
( -0.000622534 0.0050161 0.00331993 ) 0 
( -0.00386125 0.00978734 0.00504404 ) 0 
( -0.00724666 0.0100244 0.00136559 ) 0 
( -0.00431021 0.0106971 0.00215508 ) 0 
( -0.00533462 0.00835431 0.00495677 ) 0 
( -0.00596324 0.0104363 0.00640783 ) 0 
( -0.0119518 0.0048366 0.00387186 ) 0 
( -0.00498319 0.00285964 0.0019181 ) 0 
( -0.00185392 0.0108099 0.00636026 ) 0 
( -0.00214871 0.00446142 0.0045485 ) 0 
( -0.00557218 0.000593394 0.0014153 ) 0 
( -0.00220787 0.000786934 0.0057939 ) 0 
( -0.00967532 0.00396781 0.00498802 ) 0 
( -0.0104257 0.00308947 0.0012864 ) 0 
( -0.0014701 0.00676035 0.00683332 ) 0 
( -0.00267278 0.00565401 0.00248539 ) 0 
( -0.00797795 0.000522423 0.00714828 ) 0 
( -0.0121203 0.00245519 0.00322177 ) 0 
( -0.00287912 0.0112472 0.00413325 ) 0 
( -0.000593709 0.0105178 0.00654388 ) 0 
( -0.00271604 0.00283148 0.00243008 ) 0 
( -0.0019478 0.00979572 0.00190103 ) 0 
( -0.00441212 0.00579594 0.00670463 ) 0 
( -0.00597447 0.00529234 0.00144229 ) 0 
( -0.00689007 0.00288726 0.0037394 ) 0 
( -0.00681591 0.00128855 0.007239 ) 0 
( -0.00448994 0.00350853 0.00249419 ) 0 
( -0.0109132 0.00414623 0.00638224 ) 0 
( -0.0089083 0.00586388 0.00392336 ) 0 
( -0.00413635 0.00237296 0.00283365 ) 0 
( -0.00300881 0.00258966 0.00587045 ) 0 
( -0.000132751 0.00308389 0.0019638 ) 0 
( -0.00326734 0.00899817 0.00269323 ) 0 
( -0.00667748 0.0115605 0.00533706 ) 0 
( -0.00238454 0.00716318 0.00463266 ) 0 
( -0.00775344 0.00259389 0.00333076 ) 0 
( -0.00337851 0.00323968 0.00468019 ) 0 
( -0.0114869 0.000814503 0.00515825 ) 0 
( -0.00991615 0.00742459 0.00235682 ) 0 
( -0.0111975 0.00430339 0.00433997 ) 0 
( -0.000984792 0.00342011 0.0077241 ) 0 
( -0.00770482 0.00663026 0.00714363 ) 0 
( -0.00167927 0.000815403 0.000499208 ) 0 
( -0.013042 0.00286027 0.00592915 ) 0 
( -0.00383758 0.00652588 0.00707186 ) 0 
( -0.000955497 0.00164895 0.004602 ) 0 
( -7.04778e-05 0.00954913 0.00444984 ) 0 
( -0.00242907 0.00896187 0.00404203 ) 0 
( -0.000145808 0.00389447 0.00254871 ) 0 
( -0.0120194 0.00581078 0.00544772 ) 0 
( -0.00792201 0.00753621 0.00678191 ) 0 
( -0.00476423 0.00409179 0.00766117 ) 0 
( -0.0121682 0.00289889 0.00144473 ) 0 
( -0.00447926 0.00349475 0.00595784 ) 0 
( -0.00381145 0.00513604 0.00715395 ) 0 
( -0.0100367 0.00201093 0.0036077 ) 0 
( -0.0106398 0.00532655 0.00568208 ) 0 
( -0.00951274 0.000682384 0.00519829 ) 0 
( -0.00610129 0.00143328 0.00131028 ) 0 
( -0.00330479 0.000789512 0.00364786 ) 0 
( -0.00765126 0.000211689 0.00806988 ) 0 
( -0.0113134 0.00708821 0.00463115 ) 0 
( -0.00338468 0.0108183 0.00338721 ) 0 
( -0.0045483 0.000520062 0.00480741 ) 0 
( -0.00509551 0.00262371 0.00309346 ) 0 
( -0.00882008 0.00626004 0.00300424 ) 0 
( -0.00445061 0.00788999 0.00692886 ) 0 
( -0.00582731 0.000669208 0.00595915 ) 0 
( -0.00554813 0.00794786 0.00207359 ) 0 
( -0.00306356 0.00694105 0.00533231 ) 0 
( -0.00283019 0.00762495 0.00602274 ) 0 
( -0.00125556 0.000378356 0.00744285 ) 0 
( -0.0128026 0.000720595 0.0013427 ) 0 
( -0.00971859 0.0063048 0.0034388 ) 0 
( -0.0119112 0.0010812 0.00160683 ) 0 
( -0.00282178 0.0108024 0.000499728 ) 0 
( -0.00439355 0.00835299 0.00462002 ) 0 
( -0.00830907 0.00450827 0.00250084 ) 0 
( -0.00171399 0.00293901 0.00346925 ) 0 
( -0.00343868 0.0129021 0.00190874 ) 0 
( -0.00368777 0.00842197 0.00729258 ) 0 
( -0.00335432 0.00953315 0.0012632 ) 0 
( -0.00511838 0.0114074 0.00126876 ) 0 
( -0.0113549 0.00126252 0.000499734 ) 0 
( -0.00326053 0.00203106 0.00214581 ) 0 
( -0.00534558 0.0102818 0.00563851 ) 0 
( -0.00230833 0.00649027 0.00127959 ) 0 
( -0.00305551 0.000276942 0.0056505 ) 0 
( -0.00965608 0.00819569 0.00293507 ) 0 
( -0.0130503 0.0027586 0.00692265 ) 0 
( -0.0052022 0.00696493 0.00248182 ) 0 
( -0.00792563 0.0054452 0.00130841 ) 0 
( -0.00655284 0.00779842 0.00592183 ) 0 
( -0.00458952 0.00767632 0.00213786 ) 0 
( -0.00596634 0.0119431 0.00318359 ) 0 
( -0.00307877 0.0115481 0.00506358 ) 0 
( -0.00873891 0.00866393 0.00134372 ) 0 
( -0.0104436 0.000772116 0.00484145 ) 0 
( -0.00318667 0.00579551 0.00673872 ) 0 
( -0.00292817 0.00939922 0.00509953 ) 0 
( -0.0108959 0.00113793 0.00346587 ) 0 
( -0.00368357 0.00580323 0.00089578 ) 0 
( -0.00966873 0.00566466 0.000538116 ) 0 
( -0.00219087 0.0122787 0.00249876 ) 0 
( -0.00495929 0.0100689 0.00257981 ) 0 
( -0.00691806 0.00509618 0.00505156 ) 0 
( -0.00602845 0.000901874 0.00771728 ) 0 
( -0.00702842 0.00699053 0.00442267 ) 0 
( -0.00556014 0.00163115 0.000497106 ) 0 
( -0.00382479 0.0107473 0.000499782 ) 0 
( -0.00331341 0.00117442 0.00496052 ) 0 
( -0.00189312 0.00821529 0.00364891 ) 0 
( -8.27761e-05 0.00574757 0.00286791 ) 0 
( -0.0115485 0.00195291 0.00119844 ) 0 
( -0.0048623 0.00164053 0.00545697 ) 0 
( -0.00440629 0.00348246 0.00695384 ) 0 
( -0.00248974 0.00428985 0.00547214 ) 0 
( -0.0097787 0.00247933 0.00444961 ) 0 
( -0.0096888 0.00376284 0.0013087 ) 0 
( -0.00152674 0.0106419 0.00157519 ) 0 
( -0.00139251 0.00902712 0.00614864 ) 0 
( -0.00230263 0.010713 0.00475087 ) 0 
( -0.00213076 0.00467288 0.00649486 ) 0 
( -0.00383349 0.00417289 0.00203521 ) 0 
( -0.00409695 0.00100573 0.00555624 ) 0 
( -0.000332659 0.00679996 0.003311 ) 0 
( -0.00746936 0.00456935 0.00116672 ) 0 
( -0.0078063 0.0108301 0.00208226 ) 0 
( -0.00846675 0.00249877 0.0068047 ) 0 
( -0.00718356 0.00208456 0.00630566 ) 0 
( -0.00623992 0.00221262 0.00414261 ) 0 
( -0.004278 0.00861749 0.00202392 ) 0 
( -0.00813575 0.00363659 0.00204559 ) 0 
( -0.0109054 0.00770408 0.00618411 ) 0 
( -0.00914508 0.00133476 0.000499707 ) 0 
( -0.00562447 0.0037632 0.000498343 ) 0 
( -0.00772999 0.00598839 0.000496195 ) 0 
( -0.00403432 0.012323 0.00135599 ) 0 
( -0.0030745 0.00469921 0.00617039 ) 0 
( -0.00502576 0.000189313 0.000499782 ) 0 
( -0.0120765 0.00229784 0.00223682 ) 0 
( -0.00488437 0.0111816 0.00392458 ) 0 
( -0.0032835 0.000398039 0.00707603 ) 0 
( -0.011266 0.00195606 0.00716707 ) 0 
( -0.00204453 0.00387926 0.00783105 ) 0 
( -0.00429097 0.00338945 0.00346592 ) 0 
( -0.00270021 0.0114401 0.002713 ) 0 
( -0.00138885 0.0132787 0.0018233 ) 0 
( -0.0121411 0.00402297 0.00180746 ) 0 
( -4.71841e-06 0.00299228 0.000500993 ) 0 
( -0.00859344 0.00494638 0.00416613 ) 0 
( -0.00087908 0.00833118 0.0066499 ) 0 
( -0.00293046 0.00679421 0.006751 ) 0 
( -0.00680975 0.0090223 0.0030653 ) 0 
( -0.00596433 0.00770087 0.00118636 ) 0 
( -2.89032e-05 0.0105252 0.00569854 ) 0 
( -0.00972179 0.00845661 0.00134221 ) 0 
( -0.00978209 0.00160863 0.00493903 ) 0 
( -0.0114859 0.00462946 0.00135932 ) 0 
( -0.00228899 0.00196152 0.00720896 ) 0 
( -6.30852e-06 0.00820644 0.00412654 ) 0 
( -0.00169236 0.00641975 0.000497316 ) 0 
( -0.00754222 0.00697105 0.000499783 ) 0 
( -0.00309413 0.00958578 0.00702088 ) 0 
( -0.00210461 0.0122455 0.00148783 ) 0 
( -0.00204589 0.0131934 0.00469771 ) 0 
( -0.00562003 0.0121099 0.00538225 ) 0 
( -0.00736077 0.0049809 0.00416251 ) 0 
( -0.002798 0.00738745 0.00132293 ) 0 
( -0.00430318 0.00586548 0.00568048 ) 0 
( -0.012347 0.00226673 0.0041752 ) 0 
( -0.00440007 0.00301323 0.00441415 ) 0 
( -0.00106427 0.00427 0.00267125 ) 0 
( -0.00399145 0.00976472 0.00199566 ) 0 
( -0.00623497 0.00157282 0.00844436 ) 0 
( -0.00371313 0.0128258 0.00571323 ) 0 
( -0.00669462 0.00807026 0.00334596 ) 0 
( -0.00133845 0.00279363 0.00132017 ) 0 
( -0.00445136 0.00381339 0.00501115 ) 0 
( -0.00893128 0.00353342 0.00549496 ) 0 
( -0.00480418 0.00548425 0.00760619 ) 0 
( -0.00015351 0.0120184 0.00129528 ) 0 
( -0.00171468 0.00301722 0.00827495 ) 0 
( -0.0037116 0.00293412 0.00212352 ) 0 
( -0.000174429 0.00718516 0.000498177 ) 0 
( -0.000112911 0.0099615 0.00221525 ) 0 
( -0.00852829 0.00606702 0.00637519 ) 0 
( -0.00128227 0.00929735 0.00519288 ) 0 
( -0.0058642 0.00251666 0.00507331 ) 0 
( -0.00218448 0.00343664 0.00589274 ) 0 
( -0.0101986 0.0074307 0.00331496 ) 0 
( -0.000109362 0.0108567 0.00282377 ) 0 
( -0.00101769 0.00846895 0.00306835 ) 0 
( -0.00509198 0.0050666 0.00184895 ) 0 
( -0.00168719 0.00528021 0.0042098 ) 0 
( -0.00539758 0.0103143 0.00398527 ) 0 
( -0.00140374 0.00593001 0.00491339 ) 0 
( -0.00370882 0.00394516 0.0064069 ) 0 
( -0.00984344 0.00901949 0.00713294 ) 0 
( -0.00136749 0.00753878 0.00298371 ) 0 
( -0.00612183 0.0110788 0.000499863 ) 0 
( -0.00251397 0.00443973 0.00136505 ) 0 
( -0.00711622 0.00611011 0.00395848 ) 0 
( -0.0119603 0.00356556 0.000717606 ) 0 
( -0.0116752 0.00158238 0.0030278 ) 0 
( -0.00634027 0.0102382 0.00431812 ) 0 
( -0.00924187 0.00030438 0.00233357 ) 0 
( -0.00448246 0.00217175 0.00787044 ) 0 
( -0.00277871 0.0130574 0.00398584 ) 0 
( -0.00977171 0.00786335 0.0046249 ) 0 
( -0.000331403 0.00774961 0.00296137 ) 0 
( -0.00733947 0.000122675 0.00170676 ) 0 
( -0.00991948 0.00339797 0.00394584 ) 0 
( -0.000100392 0.000462686 0.00193307 ) 0 
( -0.00552346 0.00933082 0.00539036 ) 0 
( -0.00677124 0.00503958 0.0032486 ) 0 
( -0.00360562 0.00451374 0.00107638 ) 0 
( -0.011316 0.00183064 0.00617748 ) 0 
( -0.00462775 0.00198817 0.000499803 ) 0 
( -0.000121595 0.00055031 0.000499198 ) 0 
( -0.00385086 0.0016226 0.00732411 ) 0 
( -0.000640528 0.00593649 0.00370714 ) 0 
( -0.00719903 0.00770907 0.00509622 ) 0 
( -0.00390749 0.00237225 0.00131643 ) 0 
( -0.00685799 0.00892724 0.00667431 ) 0 
( -0.00709556 0.00822564 0.00424695 ) 0 
( -0.00837246 0.00271046 0.00143242 ) 0 
( -0.00398519 0.00285358 0.0053729 ) 0 
( -0.000718503 0.0102042 0.00505126 ) 0 
( -0.00158772 0.0113985 0.00302371 ) 0 
( -0.0133135 0.00100697 0.0057996 ) 0 
( -0.00840787 0.00278784 0.00405895 ) 0 
( -0.00920349 0.00963396 0.005081 ) 0 
( -0.000278524 0.00730685 0.00446383 ) 0 
( -0.00986899 0.00699062 0.00414896 ) 0 
( -0.0092751 0.00779012 0.00376335 ) 0 
( -0.0118363 0.00617701 0.00147597 ) 0 
( -0.00292117 0.00978198 0.00212923 ) 0 
( -0.0108586 0.00776225 0.000499751 ) 0 
( -0.00337206 0.00638091 0.00280491 ) 0 
( -4.25879e-05 0.00127309 0.00118476 ) 0 
( -0.00471003 0.00452191 0.00570366 ) 0 
( -0.000638912 0.00166151 0.00700483 ) 0 
( -0.0116318 0.00488062 0.00595795 ) 0 
( -0.000566016 0.00506218 0.00232373 ) 0 
( -0.00405641 0.0111347 0.0064082 ) 0 
( -0.00893418 0.00685378 0.00379987 ) 0 
( -0.0127105 0.00365831 0.0054269 ) 0 
( -0.0125216 0.00463311 0.00556681 ) 0 
( -0.0110437 0.00211807 0.0035898 ) 0 
( -0.00739267 0.0017148 0.0038503 ) 0 
( -0.000702265 0.00973646 0.00593316 ) 0 
( -0.00286229 0.0130407 0.000498973 ) 0 
( -0.00674112 0.00603907 0.00705875 ) 0 
( -0.00820229 0.000621388 0.00178262 ) 0 
( -0.0128313 0.00368565 0.0064749 ) 0 
( -0.00805397 0.00764398 0.00227592 ) 0 
( -0.00930266 0.00416961 0.0040844 ) 0 
( -0.00178919 0.0114823 0.00204922 ) 0 
( -0.0100173 0.00882734 0.00470328 ) 0 
( -0.0032302 0.00118099 0.0060357 ) 0 
( -0.0123262 0.00202005 0.0061471 ) 0 
( -0.0114162 0.000286565 0.00326505 ) 0 
( -0.000935366 0.00744938 0.00108766 ) 0 
( -0.00690726 0.0103824 0.00608505 ) 0 
( -0.00327076 0.0077172 0.000499784 ) 0 
( -0.010868 0.005989 0.00639292 ) 0 
( -0.00674713 0.00440319 0.000497272 ) 0 
( -0.00149626 0.00192902 0.0038095 ) 0 
( -0.00838491 0.00848508 0.0064081 ) 0 
( -0.0100528 0.00369587 0.00587145 ) 0 
( -0.0059522 0.00687641 0.00716812 ) 0 
( -0.0118305 0.00173812 0.00532662 ) 0 
( -0.00130509 0.00657192 0.00331541 ) 0 
( -0.00128634 0.00181901 0.00554718 ) 0 
( -0.00210339 0.0023617 0.00179593 ) 0 
( -0.000472365 0.00969539 0.000498719 ) 0 
( -0.00488642 0.000934102 0.00616406 ) 0 
( -0.00114432 0.00685159 0.00426159 ) 0 
( -0.000850589 0.00686613 0.00245927 ) 0 
( -0.00148464 0.0123949 0.00443751 ) 0 
( -0.00499142 0.0113462 0.00668822 ) 0 
( -0.000796718 0.00129302 0.000499787 ) 0 
( -0.0108919 0.00363146 0.00366663 ) 0 
( -0.00193929 0.0116484 0.00721799 ) 0 
( -0.00317442 0.00369595 0.00145399 ) 0 
( -0.00122787 0.00978301 0.00678085 ) 0 
( -0.00949557 0.00431039 0.000497184 ) 0 
( -0.0101704 0.0070523 0.00509916 ) 0 
( -0.000580944 0.00432132 0.00757253 ) 0 
( -0.0119231 0.00326759 0.00242494 ) 0 
( -0.00872899 0.0060021 0.00049942 ) 0 
( -0.00873384 0.00116693 0.00252534 ) 0 
( -0.00165107 0.0114995 0.00401636 ) 0 
( -0.00648453 0.00700063 0.00526078 ) 0 
( -0.0110257 0.000662435 0.00141143 ) 0 
( -0.0108647 0.00213386 0.000497038 ) 0 
( -0.00265308 0.00532677 0.00744207 ) 0 
( -0.00410945 0.0113294 0.00141083 ) 0 
( -0.00940987 0.00627953 0.00468129 ) 0 
( -0.00192013 0.00624479 0.00409439 ) 0 
( -0.00486116 0.00774126 0.00602958 ) 0 
( -0.00417879 0.00288048 0.000499381 ) 0 
( -0.00952885 0.006699 0.000499782 ) 0 
( -0.00542998 0.00222058 0.00129309 ) 0 
( -0.00629487 0.00533766 0.000498243 ) 0 
( -0.00264118 0.00530415 0.00475773 ) 0 
( -0.00632713 0.0041136 0.00723426 ) 0 
( -0.00235812 0.00623234 0.00499266 ) 0 
( -0.0106319 0.00175525 0.00442817 ) 0 
( -0.00182432 0.00416226 0.0020318 ) 0 
( -0.00349223 0.00667094 0.00135812 ) 0 
( -0.00702172 0.002933 0.00274232 ) 0 
( -0.00380922 0.0041621 0.00737632 ) 0 
( -0.00810209 0.0106106 0.00491611 ) 0 
( -0.000662338 0.0111656 0.00141477 ) 0 
( -0.00751153 0.00812299 0.000497018 ) 0 
( -0.00315808 0.00225246 0.00311374 ) 0 
( -0.000396767 0.00571204 0.00627008 ) 0 
( -0.00104723 0.00353593 0.00199404 ) 0 
( -0.00355996 0.010495 0.00144043 ) 0 
( -0.00428126 0.00677853 0.00448691 ) 0 
( -0.00561781 0.00460559 0.00773716 ) 0 
( -0.010853 0.005396 0.00277915 ) 0 
( -0.012493 0.00471081 0.00656187 ) 0 
( -0.0112776 0.00166205 0.00211354 ) 0 
( -0.0106141 0.00264661 0.0051906 ) 0 
( -0.00468905 0.00440649 0.0066966 ) 0 
( -0.00461604 0.00863969 0.00361746 ) 0 
( -0.00106328 0.01214 0.00253915 ) 0 
( -0.0130977 0.00259357 0.00181444 ) 0 
( -0.00918931 0.00183929 0.00310824 ) 0 
( -0.00450511 0.00221101 0.00378438 ) 0 
( -0.00459917 0.00935178 0.00131742 ) 0 
( -0.00996732 0.00214042 0.00688245 ) 0 
( -0.00744772 0.00579578 0.00772119 ) 0 
( -0.000336775 0.0124793 0.00704883 ) 0 
( -0.00146398 0.00199996 0.00777237 ) 0 
( -0.00760473 0.00373243 0.00288725 ) 0 
( -0.00228344 0.00176902 0.000496934 ) 0 
( -0.00800166 0.00486173 0.00498256 ) 0 
( -0.00318863 0.00275092 0.000498564 ) 0 
( -0.00860117 0.00175707 0.00123685 ) 0 
( -0.0106797 0.0016762 0.00542284 ) 0 
( -0.00562968 0.00107474 0.00301563 ) 0 
( -0.00829594 0.00402948 0.00608481 ) 0 
( -0.00744247 0.00893483 0.00107557 ) 0 
( -0.00271618 0.00382619 0.0023328 ) 0 
( -0.0022052 0.00271089 0.000823199 ) 0 
( -0.0049165 0.00745188 0.00486245 ) 0 
( -0.00928133 0.00659932 0.00146975 ) 0 
( -0.00668379 0.00144071 0.000497818 ) 0 
( -0.00159227 0.0103437 0.00551567 ) 0 
( -0.0097207 0.00494671 0.00123196 ) 0 
( -0.00749951 0.000417414 0.00326921 ) 0 
( -0.0128856 0.00349055 0.00758356 ) 0 
( -0.000372735 0.00298527 0.00611126 ) 0 
( -0.00555094 0.00440675 0.00125757 ) 0 
( -0.00643018 0.00359226 0.00320112 ) 0 
( -0.00361433 0.00728828 0.00227643 ) 0 
( -0.000915982 0.00445073 0.0016161 ) 0 
( -0.0104391 0.00284895 0.00324183 ) 0 
( -0.00573492 0.00775581 0.00651554 ) 0 
( -0.00234578 0.0027514 0.00660093 ) 0 
( -0.011376 0.000680714 0.00234832 ) 0 
( -0.00928157 0.00552452 0.00557256 ) 0 
( -0.00683237 0.0114701 0.00744595 ) 0 
( -0.00402891 0.00863582 0.00637908 ) 0 
( -0.000286328 0.00259695 0.00702845 ) 0 
( -0.000751854 0.00636608 0.00560396 ) 0 
( -0.000439431 0.00366998 0.00121436 ) 0 
( -0.00511722 0.00678061 0.00579051 ) 0 
( -0.000301757 0.00639668 0.00699076 ) 0 
( -0.00464177 0.0069479 0.00665389 ) 0 
( -0.00590484 0.00871035 0.00148733 ) 0 
( -0.00621147 0.00990063 0.00313276 ) 0 
( -0.000555267 0.00873206 0.00477372 ) 0 
( -0.00959999 0.00178937 0.00126454 ) 0 
( -0.000555559 0.00601555 0.00203102 ) 0 
( -0.00126723 0.00908588 0.000499766 ) 0 
( -8.6012e-05 0.00199651 0.000498509 ) 0 
( -0.00109915 0.00264876 0.00244612 ) 0 
( -0.00537839 0.00469107 0.00383322 ) 0 
( -0.000917379 0.0110395 0.00575649 ) 0 
( -0.00242331 0.00296921 0.0075725 ) 0 
( -0.00702347 0.0113548 0.00442308 ) 0 
( -0.00586693 0.00153851 0.00527976 ) 0 
( -0.000330676 0.011119 0.00495382 ) 0 
( -0.00682167 0.0114768 0.00144213 ) 0 
( -0.000651941 0.0123209 0.00611557 ) 0 
( -0.00878476 0.00127823 0.00555105 ) 0 
( -0.0102964 0.00849744 0.00370589 ) 0 
( -0.00434965 0.00658028 0.00283536 ) 0 
( -0.00860218 0.00568275 0.00485629 ) 0 
( -0.0123957 0.000377156 0.000498557 ) 0 
( -0.00698698 0.00418779 0.00463867 ) 0 
( -0.00882694 0.00502618 0.000693223 ) 0 
( -0.00589841 0.00898599 0.00694426 ) 0 
( -0.00423277 0.0010332 0.000498922 ) 0 
( -0.0093256 0.00829346 0.00668318 ) 0 
( -0.0006846 0.0107042 0.00411855 ) 0 
( -0.000273892 0.0029194 0.00293981 ) 0 
( -0.004554 0.00381817 0.00049785 ) 0 
( -0.00595123 0.0111473 0.00384261 ) 0 
( -0.00794405 0.0101021 0.0032819 ) 0 
( -0.00745109 0.00263628 0.00709558 ) 0 
( -0.00994584 0.00890379 0.00220707 ) 0 
( -4.49044e-05 0.0035733 0.00802608 ) 0 
( -0.00118122 0.0017033 0.00213468 ) 0 
( -0.0047965 0.0124591 0.000499727 ) 0 
( -0.0100782 0.00610466 0.00540358 ) 0 
( -0.00774669 0.0108444 0.00108723 ) 0 
( -0.0077161 0.00167562 0.00704487 ) 0 
( -0.00317067 0.00465232 0.00796708 ) 0 
( -0.00208833 0.0037323 0.00684303 ) 0 
( -0.0125717 0.00261481 0.00508355 ) 0 
( -0.00982671 0.00578523 0.00176209 ) 0 
( -0.00222042 0.00721465 0.00731329 ) 0 
( -0.00712562 0.00435776 0.00668527 ) 0 
( -0.006943 0.00046241 0.00494612 ) 0 
( -0.00196902 0.0100931 0.00285425 ) 0 
( -0.0083601 0.00187334 0.00366037 ) 0 
( -0.00433308 0.0093015 0.00431055 ) 0 
( -0.00322493 0.0121805 0.00420522 ) 0 
( -0.0084196 0.00459882 0.00150022 ) 0 
( -0.00961661 0.00159016 0.0022423 ) 0 
( -0.00719391 0.000950155 0.00224889 ) 0 
( -0.00465004 0.0121488 0.00562155 ) 0 
( -0.0114515 0.00686505 0.000498265 ) 0 
( -0.00685494 0.0069848 0.00675711 ) 0 
( -0.000197066 0.00787293 0.00608037 ) 0 
( -0.00183591 0.000956815 0.00202848 ) 0 
( -0.010139 0.00144653 0.000497567 ) 0 
( -0.0079934 0.0094606 0.00172171 ) 0 
( -0.00817625 0.00311263 0.00497452 ) 0 
( -0.00822299 0.00708342 0.00308411 ) 0 
( -0.00904954 0.00866377 0.00489307 ) 0 
( -0.00424199 0.0126588 0.00258471 ) 0 
( -0.00862208 0.000562444 0.00086773 ) 0 
( -0.00712107 0.00292918 0.000499679 ) 0 
( -0.0056837 0.00754979 0.00549602 ) 0 
( -0.00740032 0.00727166 0.00597213 ) 0 
( -0.00402671 0.011835 0.00490568 ) 0 
( -0.0053275 0.00508544 0.000499769 ) 0 
( -0.00549078 0.00519441 0.0069405 ) 0 
( -0.00425655 0.00924144 0.00280322 ) 0 
( -0.00952982 0.00295752 0.00725715 ) 0 
( -0.000388549 0.00716669 0.00786608 ) 0 
( -0.000856675 0.00431045 0.000499784 ) 0 
( -0.000946934 0.000976648 0.00148589 ) 0 
( -0.00944231 0.00510497 0.00467851 ) 0 
( -0.00166181 0.00604956 0.00587092 ) 0 
( -0.00696452 0.00533272 0.00156487 ) 0 
( -0.0090995 0.0075346 0.00116696 ) 0 
( -9.69879e-06 0.00689267 0.0060184 ) 0 
( -0.00767828 0.0091918 0.00616777 ) 0 
( -0.00576649 0.00493233 0.00554255 ) 0 
( -0.00804734 0.000958493 0.00390388 ) 0 
( -0.00292987 0.0130077 0.00512238 ) 0 
( -0.000558161 0.00255308 0.00475043 ) 0 
( -0.00460049 0.00577175 0.000498202 ) 0 
( -0.0100328 0.000802813 0.00127168 ) 0 
( -0.00363726 0.00185823 0.000499804 ) 0 
( -0.00591329 0.00128425 0.00431433 ) 0 
( -0.0063317 0.000527315 0.00680946 ) 0 
( -0.000364783 0.00146837 0.00538985 ) 0 
( -0.00491022 0.00130328 0.00118112 ) 0 
( -0.00820941 0.00927061 0.00700963 ) 0 
( -0.00862998 0.0034835 0.0068508 ) 0 
( -0.00830867 0.00546916 0.00222907 ) 0 
( -0.011673 0.00147796 0.00402935 ) 0 
( -0.00664332 0.00495627 0.00602095 ) 0 
( -0.0086793 0.00647609 0.00729879 ) 0 
( -0.00538468 0.0122169 0.00242032 ) 0 
( -0.00460239 0.00193736 0.00188853 ) 0 
( -0.00495528 0.00980158 0.000498623 ) 0 
( -0.0107713 0.00437209 0.00541981 ) 0 
( -0.00151892 0.00273902 0.00442926 ) 0 
( -0.0031175 0.000994572 0.00187678 ) 0 
( -0.00729241 0.00625187 0.00135177 ) 0 
( -0.00681565 0.00889827 0.00185246 ) 0 
( -0.00892707 0.00992788 0.00333319 ) 0 
( -0.0096369 0.00113898 0.00713891 ) 0 
( -0.0124441 0.00133324 0.00464885 ) 0 
( -0.00436924 0.00479998 0.0004995 ) 0 
( -0.00637701 2.50074e-05 0.00423472 ) 0 
( -0.00500789 0.011522 0.00485454 ) 0 
( -0.00389156 0.00394597 0.00419379 ) 0 
( -0.00761128 0.00574981 0.00474711 ) 0 
( -0.0112077 0.000973598 0.00734069 ) 0 
( -0.000767058 0.00343928 0.00434228 ) 0 
( -0.0012429 0.00578735 0.0068529 ) 0 
( -0.01243 0.00137899 0.0024067 ) 0 
( -0.00914158 0.00323925 0.00456295 ) 0 
( -0.00526561 0.0019995 0.00629782 ) 0 
( -0.00597363 0.0109333 0.00147779 ) 0 
( -0.00862033 0.00210365 0.00475573 ) 0 
( -0.0106285 0.000576062 0.000499224 ) 0 
( -0.0047955 0.0111091 0.00573786 ) 0 
( -0.007329 0.00836269 0.0025224 ) 0 
( -0.0102717 0.00436568 0.00394002 ) 0 
( -0.00334912 0.0105716 0.0046985 ) 0 
( -0.00244765 0.00253454 0.00401508 ) 0 
( -0.00808776 0.00132058 0.000498554 ) 0 
( -0.00289595 0.00742749 0.00365133 ) 0 
( -0.00287703 0.0107064 0.00556809 ) 0 
( -0.00109649 0.00234769 0.00637413 ) 0 
( -0.00670285 0.00688602 0.00348448 ) 0 
( -0.0105582 0.00817328 0.00250684 ) 0 
( -0.0079525 0.00155942 0.00202091 ) 0 
( -0.00973979 0.00358017 0.00287554 ) 0 
( -0.00618681 0.00338908 0.0062468 ) 0 
( -0.0133106 0.000913064 0.00380976 ) 0 
( -0.00192302 0.00722291 0.00375065 ) 0 
( -0.00339845 0.0105179 0.0068337 ) 0 
( -0.00467167 0.000725548 0.00212238 ) 0 
( -0.00739044 0.00657793 0.00525669 ) 0 
( -0.00923856 0.00166966 0.00410182 ) 0 
( -0.0133457 0.000192118 0.00310541 ) 0 
( -0.00359289 0.000226697 0.0048106 ) 0 
( -0.00250198 0.00495678 0.00373064 ) 0 
( -0.00652578 0.00444092 0.00146866 ) 0 
( -0.00639705 0.00932086 0.00392485 ) 0 
( -2.62781e-05 0.0010567 0.00294731 ) 0 
( -0.0123358 0.00510459 0.000904368 ) 0 
( -0.00135852 0.00855828 0.00138266 ) 0 
( -0.00158328 0.00126125 0.00710966 ) 0 
( -0.00981689 0.0055516 0.00279007 ) 0 
( -0.00263692 0.000209665 0.000498576 ) 0 
( -0.00223552 0.00488106 0.00823348 ) 0 
( -0.0128627 0.00357685 0.00120908 ) 0 
( -0.0104785 0.000242314 0.00360818 ) 0 
( -0.00742843 0.00249158 0.00448232 ) 0 
( -0.0129171 0.00337249 0.00412194 ) 0 
( -0.00777812 0.0108503 0.00400244 ) 0 
( -0.00238841 0.000888484 0.0011992 ) 0 
( -0.000477323 0.00620067 0.0046575 ) 0 
( -0.00642106 0.00495867 0.00231551 ) 0 
( -0.0027711 0.00560637 0.00132124 ) 0 
( -0.00163793 0.00379659 0.00400423 ) 0 
( -0.00818342 0.00178083 0.00617006 ) 0 
( -0.0085418 0.00698379 0.000525264 ) 0 
( -0.00294615 0.00174729 0.00124197 ) 0 
( -0.004042 0.00119917 0.0042765 ) 0 
( -0.00605675 0.00870899 0.00247479 ) 0 
( -0.00250381 0.00060948 0.00481553 ) 0 
( -0.00195537 0.00225733 0.00277875 ) 0 
( -0.0014173 0.00809733 0.00049879 ) 0 
( -0.00312694 0.00433397 0.00470515 ) 0 
( -0.000476486 0.00520946 0.00712892 ) 0 
( -0.00501999 0.0123719 0.00150472 ) 0 
( -0.00385881 0.00820443 0.00283182 ) 0 
( -0.00496039 0.00154275 0.00446747 ) 0 
( -0.00763447 0.000467184 0.000764899 ) 0 
( -0.00696942 0.0103935 0.00355772 ) 0 
( -0.00318644 0.00492406 0.00192013 ) 0 
( -0.0114224 0.00513095 0.000498809 ) 0 
( -0.000424025 0.0133449 0.00210917 ) 0 
( -0.000667479 0.0128749 0.0012629 ) 0 
( -0.0104124 0.00680299 0.00603572 ) 0 
( -0.00276831 0.00470802 0.00280051 ) 0 
( -0.00564308 0.00684574 0.0015925 ) 0 
( -0.0116562 0.00460517 0.00255629 ) 0 
( -0.00942573 0.00277066 0.00131022 ) 0 
( -0.00616138 0.00668948 0.00257297 ) 0 
( -0.0039579 0.00975622 0.000499735 ) 0 
( -0.00356301 0.00368582 0.000499759 ) 0 
( -0.0104928 0.00505468 0.00191109 ) 0 
( -0.00737507 0.00912262 0.00388322 ) 0 
( -0.0102474 0.00855948 0.000498665 ) 0 
( -0.00435721 0.00674955 0.00185085 ) 0 
( -0.00286949 0.00431374 0.00706981 ) 0 
( -0.00760642 0.00472582 0.00589058 ) 0 
( -0.00528273 0.00794045 0.000498507 ) 0 
( -0.00016545 0.0109534 0.000497843 ) 0 
( -0.00387734 0.0117832 0.00334951 ) 0 
( -0.0126206 0.00435539 0.00262616 ) 0 
( -0.00297465 0.00778872 0.006997 ) 0 
( -0.0019327 0.00779381 0.00176184 ) 0 
( -0.00631974 0.00954479 0.00610323 ) 0 
( -0.00492192 0.00530534 0.00512052 ) 0 
( -0.00338113 0.00251277 0.0074549 ) 0 
( -0.00709242 0.0113123 0.000496779 ) 0 
( -0.00114754 0.00287881 0.00548915 ) 0 
( -0.0021044 0.0123891 0.000499039 ) 0 
( -0.0127591 0.000234734 0.00610324 ) 0 
( -0.00571096 0.00347598 0.00158116 ) 0 
( -0.00476994 0.0010557 0.00358965 ) 0 
( -0.00257481 0.0065165 0.00339088 ) 0 
( -0.00686058 0.0103409 0.000499361 ) 0 
( -0.0101897 0.00231954 0.0018758 ) 0 
( -0.00604506 0.00687815 0.00615043 ) 0 
( -0.00547744 0.000252002 0.00247123 ) 0 
( -0.0122794 0.00523956 0.00301216 ) 0 
( -0.00681624 0.00231901 0.00530323 ) 0 
( -0.00107708 0.0001042 0.0063393 ) 0 
( -0.0076514 0.00350905 0.00665286 ) 0 
( -0.0038513 0.00637496 0.0036808 ) 0 
( -0.00473359 0.0103846 0.00642382 ) 0 
( -0.000220044 0.00749262 0.00200159 ) 0 
( -0.00824108 0.00862313 0.00220806 ) 0 
( -0.00608021 0.00836877 0.00407554 ) 0 
( -0.00291174 0.00664659 0.000499049 ) 0 
( -0.00682162 0.0106666 0.00202459 ) 0 
( -0.00794825 0.00394746 0.00750115 ) 0 
( -0.00139353 0.0022248 0.000499677 ) 0 
( -0.00306613 0.00512466 0.000498332 ) 0 
( -0.00687249 0.00396347 0.00580239 ) 0 
( -0.0088917 0.00509795 0.00638808 ) 0 
( -0.00518693 0.0050471 0.00284415 ) 0 
( -0.00379824 0.000239701 0.00211762 ) 0 
( -0.00207702 0.0122986 0.00647063 ) 0 
( -0.00222161 0.00334957 0.00160779 ) 0 
( -0.00429957 0.00776734 0.000497819 ) 0 
( -0.00662593 0.0115909 0.00633322 ) 0 
( -0.00711783 0.00415987 0.00364882 ) 0 
( -0.00928909 0.00572301 0.00705821 ) 0 
( -0.00478831 0.00593662 0.00146429 ) 0 
( -0.00195439 0.00642318 0.00257078 ) 0 
( -0.00374623 0.00433595 0.00548881 ) 0 
( -0.000975228 0.00322892 0.000497669 ) 0 
( -0.00500542 0.00987778 0.00724172 ) 0 
( -0.00410617 0.000587789 0.0030064 ) 0 
( -0.00613596 0.0024119 0.00602983 ) 0 
( -0.00456402 0.00966301 0.00574386 ) 0 
( -0.00533118 0.000483259 0.00418713 ) 0 
( -0.00254911 0.00834722 0.0012035 ) 0 
( -0.00594334 0.000535724 0.00497596 ) 0 
( -0.00381917 0.0127944 0.00472045 ) 0 
( -0.000763015 0.00197342 0.00123385 ) 0 
( -0.010687 0.00281685 0.00420805 ) 0 
( -0.00305122 0.00835128 0.00537324 ) 0 
( -0.00158493 0.000121139 0.00251545 ) 0 
( -0.00393252 0.00520041 0.00502543 ) 0 
( -0.00371443 0.000855527 0.00840177 ) 0 
( -0.0130669 0.00211458 0.00269033 ) 0 