FoamFile
{version 2.0; format ascii;class vectorField; location 0;object  v;}
2496
(
( 8.0249e-05 1.67948e-05 4.18834e-06 )  
( 0.000259402 2.27488e-05 2.27248e-05 )  
( -9.06672e-05 -0.000175354 8.82427e-05 )  
( 4.15049e-05 1.37454e-05 0.000244692 )  
( 8.17236e-06 3.8889e-05 0.000132575 )  
( -9.69084e-05 0.000163495 0.00053098 )  
( 7.23288e-05 1.51181e-05 8.73837e-06 )  
( -0.00012527 -9.35308e-05 1.70166e-06 )  
( 1.58579e-05 0.000195245 0.000106422 )  
( 3.45877e-05 2.0917e-05 0.000106089 )  
( 7.19929e-05 -1.96249e-05 0.000234804 )  
( -4.64114e-05 5.1056e-05 0.000186568 )  
( 0.00014104 6.9558e-06 6.52118e-05 )  
( 4.15832e-05 9.97445e-06 1.24057e-05 )  
( 8.22321e-05 4.3364e-05 6.321e-06 )  
( 2.21302e-05 7.04975e-05 0.000467043 )  
( -0.000292789 1.10502e-05 -9.40112e-05 )  
( 0.000163041 0.000163229 0.000731151 )  
( -0.00038295 0.000385369 -0.000668875 )  
( 0.00211987 0.00444199 0.0014798 )  
( -0.000188621 -0.000265383 -0.000629508 )  
( 0.00116977 -7.25549e-05 0.000851073 )  
( -0.000110171 6.8226e-05 0.000588747 )  
( -6.55118e-05 0.000217635 -0.000127241 )  
( -0.000248632 0.000106856 0.00027121 )  
( -0.000367354 0.000278875 -0.000155679 )  
( -3.01235e-05 0.000285642 -0.000934408 )  
( 4.2506e-05 0.000202268 0.00042958 )  
( -3.01751e-05 8.12718e-05 0.000525647 )  
( -9.63859e-05 6.87198e-05 0.000513974 )  
( -9.87365e-06 1.23523e-06 4.23222e-05 )  
( 8.0661e-06 -1.85663e-05 6.33977e-05 )  
( -1.2154e-05 8.35969e-05 0.000167843 )  
( -3.38057e-05 -3.57348e-05 0.00043374 )  
( 3.38241e-05 0.000187819 0.000221984 )  
( -0.000124645 -6.59556e-05 0.000240347 )  
( 6.53217e-05 -9.94875e-05 7.89669e-05 )  
( 1.08709e-05 -2.35562e-05 1.07906e-05 )  
( -3.27406e-05 1.96486e-05 0.000268867 )  
( 1.07899e-05 -5.363e-05 0.000238202 )  
( 9.54217e-05 4.07632e-05 -1.56667e-06 )  
( 8.75005e-05 8.8381e-05 0.000227756 )  
( 2.20219e-05 4.97736e-05 6.24226e-06 )  
( 0.00012796 1.72304e-05 1.51316e-05 )  
( 7.81706e-05 4.63279e-05 0.00014248 )  
( 7.82253e-05 9.55179e-05 8.08875e-05 )  
( 0.000217903 8.63479e-05 5.42762e-05 )  
( 7.88528e-05 -0.00012277 0.000198397 )  
( 4.17406e-05 5.14272e-05 4.56249e-05 )  
( 0.000486269 -0.000267665 8.90785e-05 )  
( 0.000141976 -2.2837e-06 0.00024558 )  
( -2.95086e-05 5.75195e-05 0.000115352 )  
( 0.000141762 2.7791e-05 0.000305783 )  
( 2.06525e-05 -1.13684e-05 0.000237949 )  
( 5.78377e-05 0.000116626 0.000194881 )  
( 6.31762e-05 -2.29319e-05 2.50697e-05 )  
( -0.000127802 4.97667e-05 0.000166248 )  
( 0.000227922 0.000389457 -4.02205e-06 )  
( 1.51973e-05 -9.22716e-05 0.000250923 )  
( 6.82669e-05 -8.35278e-05 0.000144913 )  
( -0.000115806 5.61666e-05 0.00016437 )  
( 5.27996e-05 1.47567e-05 1.95806e-05 )  
( 0.000220685 -4.47379e-05 2.9107e-05 )  
( -6.45988e-05 -8.63745e-05 2.47058e-05 )  
( 5.56606e-05 7.34927e-05 3.29415e-05 )  
( -3.01008e-05 -9.262e-07 0.000120407 )  
( -1.0811e-05 -5.08854e-06 2.15608e-06 )  
( 8.52267e-05 5.20777e-05 1.4808e-05 )  
( 1.06954e-05 8.58064e-05 0.000150787 )  
( 0.000114712 5.88989e-06 0.000366752 )  
( -8.59626e-05 9.38168e-06 0.000197846 )  
( -0.000134765 0.000144249 0.000318158 )  
( 7.30018e-06 4.47806e-05 1.5387e-06 )  
( 0.000240574 1.08305e-05 0.000376144 )  
( 8.29976e-05 -0.000154534 0.00024909 )  
( 3.66307e-05 -5.16224e-06 0.000126877 )  
( 4.181e-05 -4.77558e-06 0.000103066 )  
( -0.000120054 -3.07659e-05 1.20579e-05 )  
( 1.71146e-05 -7.66291e-05 0.000127592 )  
( 4.03563e-05 3.14876e-05 6.40712e-05 )  
( 7.45966e-05 4.95827e-05 5.99187e-05 )  
( 0.000189439 -5.11535e-05 0.000119031 )  
( -1.71225e-05 -4.32867e-05 2.50139e-05 )  
( 7.81459e-05 1.39488e-05 3.98471e-05 )  
( -4.58099e-05 -0.000245608 0.000254984 )  
( -8.02368e-05 3.98553e-07 7.07884e-05 )  
( 2.91515e-05 6.14965e-05 0.000168035 )  
( 1.61859e-05 7.09789e-05 0.000210663 )  
( -3.19935e-05 1.12982e-05 0.000372892 )  
( 3.5354e-05 9.7018e-05 0.000196721 )  
( 9.11942e-05 7.08555e-05 7.62612e-05 )  
( 0.0013071 -0.000695015 -0.000601897 )  
( 0.000124819 5.51709e-05 7.64114e-05 )  
( -1.53137e-05 7.76516e-05 5.4641e-05 )  
( 0.000115873 2.31919e-05 0.000132199 )  
( -4.83027e-05 -7.83442e-05 -7.25375e-06 )  
( 0.000123122 3.8568e-05 0.000309309 )  
( 2.28152e-05 0.000113973 0.000412398 )  
( -7.9591e-05 7.53315e-05 0.000169185 )  
( -1.15372e-05 1.30356e-05 0.000252576 )  
( 6.14352e-05 -2.35169e-05 -2.63394e-06 )  
( 4.94681e-06 0.000105688 0.000365583 )  
( 0.000113089 -3.46604e-05 0.00026813 )  
( -9.41501e-05 0.000300612 0.000349081 )  
( 2.44063e-05 6.72871e-06 2.51027e-05 )  
( -1.77933e-05 2.44775e-05 6.1202e-05 )  
( -5.00433e-05 -3.35308e-05 0.000465196 )  
( 5.35889e-05 4.12734e-07 0.000294986 )  
( 2.56843e-05 -1.99919e-05 1.46021e-05 )  
( 4.06392e-05 9.26014e-05 0.000312785 )  
( 2.98581e-05 -2.30362e-05 0.000122526 )  
( 5.03271e-05 9.26805e-05 1.89519e-05 )  
( 2.23814e-05 1.08628e-06 0.000419208 )  
( 0.000156893 -0.000443101 0.000131795 )  
( 0.000132916 7.30207e-05 0.00027822 )  
( 3.16125e-05 -6.21989e-05 -4.33298e-05 )  
( 0.000107884 -2.18932e-05 0.000331486 )  
( -8.3769e-05 -4.24036e-05 0.000357059 )  
( -3.85463e-05 2.57649e-05 0.000123068 )  
( 1.76752e-05 -2.82153e-05 0.000114393 )  
( -8.38452e-05 -1.39261e-05 0.000124918 )  
( 7.8531e-05 2.36792e-05 1.4268e-05 )  
( 3.08858e-05 6.7982e-05 0.000116494 )  
( 0.000112243 7.97787e-05 0.000337137 )  
( -1.00714e-05 -1.15423e-05 0.000142828 )  
( -0.000174702 -0.000298228 0.000227767 )  
( 5.02419e-05 5.55216e-05 0.00026497 )  
( 0.000980935 -0.000628618 0.000365795 )  
( -6.9524e-06 8.32752e-05 0.000352331 )  
( 0.000136942 4.20634e-05 6.15266e-05 )  
( -3.99338e-05 1.15101e-05 0.000115931 )  
( -2.10561e-05 4.56106e-06 0.000208465 )  
( 0.000224765 -0.000146421 0.000430637 )  
( 6.20481e-05 -1.3521e-05 8.87545e-05 )  
( -2.73585e-05 7.95123e-05 0.000227839 )  
( -0.000771812 -0.000527134 0.000269527 )  
( -5.14647e-05 -0.000147004 0.000166279 )  
( 3.25146e-05 8.26103e-05 0.000164998 )  
( 6.19182e-05 9.82711e-05 0.00050946 )  
( 8.00083e-05 -2.20391e-05 0.00028897 )  
( -5.73393e-06 -4.45974e-05 -2.79569e-05 )  
( 2.61787e-05 -5.48931e-05 -1.07232e-05 )  
( -0.000232118 1.27048e-05 0.000343108 )  
( 3.1568e-05 -4.04684e-05 9.21811e-05 )  
( -1.06015e-05 -4.73446e-05 0.000214191 )  
( -0.000193828 -0.000162439 0.000194808 )  
( 0.000122235 3.86033e-05 0.000151664 )  
( -6.63308e-05 -0.000218529 0.000213056 )  
( 9.97212e-05 -6.40622e-06 0.000299434 )  
( -6.79566e-05 3.35407e-05 0.000412905 )  
( 5.81089e-05 4.02678e-05 -2.52136e-06 )  
( 2.20528e-05 8.49744e-05 0.000271791 )  
( -2.88006e-05 0.000189717 0.000451163 )  
( 6.60391e-05 6.1511e-05 6.24977e-05 )  
( 4.74591e-06 1.9612e-05 0.000216661 )  
( 4.17533e-05 4.17106e-05 0.00021712 )  
( 1.90047e-05 -6.95861e-06 3.68772e-05 )  
( 6.02953e-05 3.03796e-05 7.90207e-05 )  
( 4.38184e-05 6.45041e-05 0.000333424 )  
( -1.68992e-05 -5.2676e-05 0.000141797 )  
( 0.000146265 -0.000108112 0.000333372 )  
( -5.70666e-05 -4.31293e-05 0.000169873 )  
( -1.84591e-06 -4.82935e-05 0.000106819 )  
( 4.98889e-05 7.86674e-05 0.000302432 )  
( -5.01495e-05 1.29705e-05 0.000283239 )  
( 5.63193e-05 -6.4791e-05 0.000294405 )  
( -4.31124e-05 9.97082e-05 6.02574e-05 )  
( 0.000243652 -0.000178976 0.000322173 )  
( -1.65585e-05 -0.000137987 0.000396085 )  
( -0.000111276 9.16086e-05 0.000420121 )  
( -1.69139e-05 -1.33031e-05 -2.95969e-06 )  
( 8.72222e-05 -0.000229505 0.000410789 )  
( 4.4016e-05 -0.000141264 7.85016e-05 )  
( -0.000220323 0.000220723 -1.67621e-05 )  
( 0.00011985 -6.36772e-06 0.000251144 )  
( -6.34373e-05 6.78568e-05 0.000108183 )  
( -2.00897e-05 2.22489e-05 8.1636e-05 )  
( 7.44634e-05 -5.39828e-05 0.000241742 )  
( -1.37264e-05 -7.99524e-05 0.000334072 )  
( -2.72851e-05 9.40755e-05 0.000153395 )  
( 0.000115124 6.49855e-05 1.9734e-05 )  
( 5.90043e-06 2.08144e-05 1.13056e-05 )  
( 4.61283e-05 2.10891e-05 0.000144872 )  
( -0.000136552 -4.6046e-05 0.000320939 )  
( -1.00976e-05 1.1831e-06 4.35809e-05 )  
( 4.29053e-05 4.8265e-05 0.000259091 )  
( -6.23433e-05 -9.80737e-05 0.000129592 )  
( 7.48493e-05 -1.62221e-05 6.52292e-05 )  
( -4.59738e-05 8.93308e-05 3.26209e-05 )  
( 5.12048e-06 2.58104e-05 0.000143248 )  
( 0.000128416 0.000131616 0.000296303 )  
( -4.17571e-05 5.9589e-05 0.000105884 )  
( 0.00012343 8.75607e-05 0.000153146 )  
( 3.68536e-05 7.77606e-05 0.000313411 )  
( 2.5067e-05 -3.89385e-05 6.81108e-05 )  
( -0.000128716 0.000350053 0.000206502 )  
( 5.31297e-05 6.00646e-05 0.000413301 )  
( 2.29826e-05 0.000112817 0.000264916 )  
( 9.42172e-05 -1.97114e-06 3.94952e-05 )  
( -2.28365e-05 -9.07831e-06 3.90368e-05 )  
( 1.81231e-05 8.03968e-05 9.67829e-06 )  
( 0.000264506 0.000135702 0.000373958 )  
( 0.000181152 -0.000187487 0.000277325 )  
( 6.13913e-05 0.000110309 0.000196801 )  
( 7.78149e-05 4.21084e-05 0.000339937 )  
( 0.000321476 -2.44808e-05 0.000231643 )  
( 1.88923e-05 -1.94291e-05 1.61073e-05 )  
( 1.60935e-06 -7.57622e-06 -9.09499e-06 )  
( 9.38516e-05 6.76631e-05 0.000190994 )  
( -0.000187455 -5.91846e-05 0.000134961 )  
( -7.86552e-05 1.87394e-05 0.000182994 )  
( 3.32133e-05 1.50307e-05 6.1223e-05 )  
( 9.99957e-05 0.000159367 0.00024502 )  
( -6.79598e-05 0.000186333 0.000279088 )  
( 3.31118e-05 4.53316e-05 0.000293473 )  
( -1.25931e-06 -1.20842e-05 0.000141436 )  
( 9.76812e-05 4.76097e-05 6.51537e-05 )  
( -0.000750994 0.000150958 -0.000379447 )  
( 3.32769e-05 -0.000151301 0.000422631 )  
( -1.79561e-06 -0.000135179 0.000265125 )  
( 2.67042e-05 -0.00011268 0.000403345 )  
( 1.86538e-05 -2.35074e-06 9.0234e-05 )  
( 0.000136492 0.000276798 0.000312756 )  
( -1.40172e-05 7.38074e-05 0.000101923 )  
( 6.48275e-05 7.65248e-05 4.55336e-05 )  
( 8.50233e-05 -4.52723e-06 6.14272e-05 )  
( 0.000122549 -0.000117512 0.000331955 )  
( 7.40012e-05 9.38064e-05 0.000262081 )  
( 0.000100067 -1.20576e-05 0.000167016 )  
( -2.44482e-05 5.4927e-05 9.2923e-05 )  
( 6.09246e-05 7.2974e-05 0.000144684 )  
( 4.02437e-05 -9.36754e-06 0.000133172 )  
( -6.89846e-06 2.61364e-06 2.49219e-05 )  
( -2.67183e-05 -8.78886e-06 1.22306e-05 )  
( -1.97033e-05 -1.89916e-05 5.73157e-05 )  
( 0.000127207 5.71437e-06 6.90679e-05 )  
( -5.0013e-05 -0.00047176 0.000534334 )  
( 6.83275e-05 -0.000168881 -2.91021e-07 )  
( 6.90478e-05 -5.59632e-06 -4.51648e-05 )  
( 3.08095e-05 0.000163465 0.000264676 )  
( 6.34072e-05 2.49524e-05 0.000321702 )  
( -9.81859e-06 3.54385e-05 0.00021397 )  
( -0.000324516 0.000468862 0.000308321 )  
( 7.54039e-05 6.37386e-05 0.000203724 )  
( -0.00019555 -0.00013198 0.000292569 )  
( -1.37197e-05 -3.49143e-05 3.42533e-05 )  
( -4.72329e-05 4.58433e-05 -7.14776e-05 )  
( -8.7946e-06 -6.75334e-05 -9.92205e-06 )  
( 8.51798e-05 1.43122e-05 8.54212e-05 )  
( 9.77059e-05 -0.000157446 0.000423782 )  
( -7.51482e-05 -7.14549e-05 0.000469704 )  
( 2.02616e-05 8.59897e-05 0.000118348 )  
( -1.78097e-05 -3.54657e-05 1.59722e-05 )  
( -0.000132936 -0.000150112 0.000331635 )  
( 1.30788e-05 -2.00226e-05 4.36934e-05 )  
( -0.000380623 -0.000186872 -0.000163635 )  
( 1.44356e-05 6.0738e-05 3.80243e-05 )  
( -2.5515e-05 0.000161291 0.000507617 )  
( 5.08227e-05 -1.25679e-05 0.000312395 )  
( 1.01214e-05 2.97594e-05 2.05261e-05 )  
( 0.000741707 3.3938e-06 2.22286e-06 )  
( -7.6717e-05 -7.95579e-05 0.000375387 )  
( 0.000108876 0.000152954 9.53387e-05 )  
( 9.79868e-05 2.11213e-05 0.000237319 )  
( -9.83741e-05 -8.19958e-05 0.000359086 )  
( 5.05184e-05 0.00010591 0.000185868 )  
( -0.000122291 -2.76298e-05 2.35573e-05 )  
( 0.00020399 -0.000190646 0.000322121 )  
( 2.1337e-05 -8.97627e-05 -4.37444e-05 )  
( 2.8271e-05 0.000182124 0.000124173 )  
( -2.24634e-05 -2.93615e-05 0.000104502 )  
( 0.000156542 0.00011696 0.000344658 )  
( 6.01164e-05 3.76274e-05 0.000416918 )  
( 3.06771e-05 -1.82143e-05 0.000197038 )  
( 2.83984e-05 8.59973e-05 0.000209429 )  
( 1.26234e-05 2.61001e-05 4.73894e-05 )  
( -2.47271e-06 5.86717e-05 0.0002398 )  
( 0.000112602 -6.20819e-05 9.19856e-05 )  
( -0.000123487 0.000153064 0.000445629 )  
( -2.81967e-05 -0.000121211 1.66953e-05 )  
( 1.30658e-05 5.04168e-05 0.000468979 )  
( 3.95921e-05 0.000273428 0.000342635 )  
( -9.69902e-05 -0.000113822 6.13297e-06 )  
( -1.05785e-05 5.87246e-07 0.000132427 )  
( 0.000168907 -1.02629e-05 0.000254095 )  
( 1.15991e-06 -0.000378718 0.000334997 )  
( 6.77968e-06 7.27401e-05 0.000229368 )  
( 4.04157e-05 3.9823e-05 0.000277243 )  
( 6.84083e-05 8.42425e-06 0.000260436 )  
( -0.000102207 -4.45544e-05 9.22659e-05 )  
( -7.12775e-05 -3.77182e-05 0.000245596 )  
( 4.42101e-05 -4.40483e-05 7.73228e-05 )  
( 0.000155496 -3.26801e-05 0.000254467 )  
( -1.19016e-05 6.11941e-06 0.00031973 )  
( -0.000283675 0.00023044 0.000246153 )  
( -9.29789e-06 0.000141358 0.000320748 )  
( -1.77321e-05 -3.91068e-05 0.000195271 )  
( -0.000131052 -3.56305e-05 0.000180809 )  
( 4.50495e-05 -2.23272e-05 2.92324e-05 )  
( 2.3184e-05 -5.96178e-06 4.86946e-05 )  
( 6.74574e-05 2.59916e-05 0.000191162 )  
( 1.82403e-05 2.22943e-05 -1.50558e-05 )  
( 0.0001445 -2.39087e-05 -8.42262e-05 )  
( -0.000119692 -1.78554e-05 0.000241049 )  
( 3.33693e-05 2.36734e-05 7.97735e-05 )  
( 3.39732e-05 0.000149918 0.000379098 )  
( -0.000179548 -0.000116613 0.000234374 )  
( 5.36568e-05 -1.81872e-05 0.000186047 )  
( -3.63476e-05 -8.39556e-05 7.5289e-05 )  
( -1.46048e-05 2.79735e-05 3.5582e-05 )  
( 4.67967e-05 3.65068e-05 0.000107657 )  
( 0.000150423 -6.57073e-06 0.000215862 )  
( 6.54591e-05 -5.52059e-05 0.000128708 )  
( 0.000622212 0.00069021 6.95737e-05 )  
( 6.05084e-06 1.52225e-05 3.18397e-05 )  
( -3.6334e-05 4.72539e-05 0.000179387 )  
( 2.78723e-05 -4.31272e-05 -1.80428e-05 )  
( 7.97019e-05 -4.84193e-05 4.39726e-06 )  
( -1.53191e-05 2.33091e-05 0.000416348 )  
( -5.99678e-05 9.21641e-05 0.000131976 )  
( 3.87666e-05 -0.000100081 0.000231496 )  
( -6.48246e-05 -8.19444e-07 3.90377e-05 )  
( 8.28798e-05 2.75499e-05 0.000342385 )  
( 4.30142e-05 -6.13324e-05 0.000260045 )  
( 0.000141952 -8.83423e-05 1.03474e-05 )  
( 6.11349e-06 7.25454e-05 0.000266048 )  
( -0.000142519 -0.000126746 0.000298208 )  
( -9.02184e-05 6.51747e-05 0.00019243 )  
( 3.80939e-05 -1.02346e-05 7.06299e-05 )  
( 2.94988e-05 2.87478e-05 7.11727e-05 )  
( -0.000122185 9.62103e-05 0.000110664 )  
( -0.00012514 -5.59554e-05 0.00013127 )  
( 3.4254e-05 -7.16069e-05 0.000253717 )  
( 4.65168e-05 8.68374e-05 0.000174758 )  
( 1.87323e-05 3.08545e-05 2.70014e-05 )  
( 3.45604e-05 5.44166e-05 0.000119513 )  
( -8.69014e-06 2.59301e-05 9.1795e-06 )  
( -7.759e-05 4.0959e-05 6.37154e-05 )  
( -9.58358e-06 -5.74393e-05 1.15582e-05 )  
( -4.6331e-05 0.000112394 0.000236227 )  
( -0.000267174 0.000358895 8.49277e-05 )  
( -1.00568e-05 -0.000119019 0.000258207 )  
( -2.3076e-05 8.83087e-06 0.000136379 )  
( -1.79129e-05 -4.90281e-05 0.000367324 )  
( 4.06558e-05 7.83599e-05 0.000255338 )  
( 0.000155239 -7.90304e-05 -3.53887e-05 )  
( 3.33056e-05 7.26355e-05 1.53107e-05 )  
( 3.03322e-05 1.71212e-05 4.9081e-05 )  
( 5.39035e-06 2.27115e-05 0.000192313 )  
( -2.60604e-05 -5.04296e-05 0.00033481 )  
( 7.58719e-06 1.2507e-06 5.59288e-06 )  
( 8.13757e-05 -8.49371e-06 0.000301937 )  
( -3.43636e-05 -3.05523e-05 2.0062e-05 )  
( -0.000152422 -0.000375008 -0.000409588 )  
( 5.01191e-05 1.35586e-05 0.000138136 )  
( 6.18954e-05 4.15656e-05 0.000122073 )  
( -4.17011e-05 0.000101509 0.000157874 )  
( -6.76895e-05 -5.16714e-05 -2.64755e-05 )  
( 0.000115914 9.94072e-05 0.000301937 )  
( -9.62627e-06 -0.000122981 -7.47322e-05 )  
( 4.9451e-05 -3.22692e-05 0.000227055 )  
( -5.57861e-05 1.23371e-05 2.24726e-05 )  
( -0.000117782 0.000584929 0.000323 )  
( -0.000445033 2.63942e-06 -2.75052e-07 )  
( 5.4667e-05 -1.74412e-07 0.000261391 )  
( 1.87346e-05 1.30991e-06 2.09867e-05 )  
( -3.70981e-05 -5.88636e-07 0.000114435 )  
( 0.000101559 3.21479e-07 0.000267972 )  
( 8.12738e-05 6.41457e-05 0.000164963 )  
( 8.83446e-05 -3.01056e-05 0.00061178 )  
( 0.000141544 -0.000109655 4.49613e-05 )  
( -2.21346e-05 4.64759e-05 0.000145492 )  
( -2.73741e-05 -7.3367e-05 0.000466493 )  
( -1.31294e-05 0.000105305 7.56278e-05 )  
( 3.4815e-06 -9.41466e-05 2.34439e-05 )  
( 6.49527e-05 7.53271e-05 0.000216312 )  
( -0.000246639 8.6644e-05 0.000170069 )  
( -7.22698e-05 3.10787e-05 0.000121174 )  
( 0.000149169 -3.42491e-05 0.000211915 )  
( 1.75559e-05 0.000100554 0.00033188 )  
( 0.000442159 -0.000473746 -1.54799e-06 )  
( 5.58408e-05 7.1768e-05 0.000134188 )  
( 1.16385e-05 -5.91844e-07 0.000365849 )  
( -2.80269e-05 2.38224e-05 8.78241e-05 )  
( -4.10317e-05 -7.50123e-05 0.000363247 )  
( 9.61105e-05 2.91233e-05 2.65509e-05 )  
( 7.39408e-05 5.56256e-05 0.000279254 )  
( 6.27226e-05 0.000113831 0.000459423 )  
( 0.00012327 5.56642e-05 -6.62158e-05 )  
( -2.33249e-05 0.000211766 -6.97917e-07 )  
( 8.37532e-06 6.4382e-06 4.48048e-05 )  
( -0.000218717 5.05362e-05 0.000171658 )  
( 0.000121267 -2.98432e-05 0.000352499 )  
( -3.23517e-06 -0.000195474 4.25376e-06 )  
( 5.06905e-05 -1.4602e-06 3.10588e-05 )  
( 1.9498e-05 7.28589e-05 0.000458335 )  
( -0.000120439 2.03215e-05 0.000177179 )  
( 5.71968e-05 6.6909e-05 0.00025672 )  
( -0.000198546 -6.38303e-05 0.000271755 )  
( 0.000102907 4.36189e-05 0.00022605 )  
( -1.20173e-05 -3.23206e-05 7.96169e-06 )  
( -0.000488 -0.000151791 -3.03901e-07 )  
( -1.89158e-05 -2.29942e-05 4.7729e-05 )  
( 1.53677e-05 -4.44352e-06 1.62613e-05 )  
( -0.00037563 -0.000213074 0.000249804 )  
( 2.27773e-05 2.66331e-05 0.000310235 )  
( -0.000234525 -0.000244252 0.000301198 )  
( 8.23051e-05 9.16069e-05 0.000191118 )  
( -4.64716e-05 2.91739e-05 0.00010774 )  
( -0.000127284 -4.20187e-05 4.52026e-05 )  
( 8.57609e-05 -2.59522e-05 9.13715e-05 )  
( -5.30826e-05 0.000150225 0.000365909 )  
( 4.90189e-06 -1.65374e-05 6.78809e-05 )  
( -6.19135e-05 -0.000208276 0.000130147 )  
( 3.70518e-05 -2.37629e-05 3.84908e-05 )  
( -2.87235e-05 2.72309e-05 0.000170316 )  
( 9.62637e-05 -1.52395e-05 0.000285445 )  
( -7.62498e-05 3.62642e-05 5.00731e-05 )  
( 1.8338e-05 0.000106236 0.000263042 )  
( 0.000143241 3.56455e-05 0.00027922 )  
( -4.71778e-05 0.000129628 0.000335836 )  
( 3.6794e-05 1.96139e-05 7.71875e-05 )  
( 0.000152259 0.000303565 -3.47139e-05 )  
( 5.29419e-05 -0.000108232 6.47431e-05 )  
( 0.000115216 -4.9761e-05 7.37475e-05 )  
( -0.000323871 0.000123582 0.000240229 )  
( 8.83179e-05 1.6681e-05 0.000178308 )  
( -9.15226e-06 -0.00012413 0.000106098 )  
( 5.45975e-06 -1.10431e-05 -2.60908e-05 )  
( 5.14621e-05 1.78316e-05 5.89037e-05 )  
( -0.000136653 -0.000162024 0.00019124 )  
( 0.00103865 0.000127768 -0.000375021 )  
( 0.000142827 -8.89807e-05 0.000286934 )  
( 0.000123189 -9.61721e-06 0.000335504 )  
( -0.00022609 -3.81747e-05 0.000304659 )  
( 0.000116803 6.81177e-05 0.000348641 )  
( 0.00016198 0.000177895 0.000103989 )  
( -3.46863e-05 4.08921e-05 2.42201e-05 )  
( 5.20479e-05 5.78086e-05 0.000208683 )  
( -2.54614e-05 2.04173e-05 3.84569e-05 )  
( -1.90799e-06 -3.79632e-05 1.70042e-05 )  
( 6.9936e-05 3.58486e-05 0.000217432 )  
( 0.000100701 6.22487e-05 8.32171e-05 )  
( 1.65299e-06 -3.27181e-05 0.00018067 )  
( 8.84555e-05 -1.83362e-05 4.61977e-05 )  
( -2.04634e-05 3.60811e-06 0.000115273 )  
( -4.538e-05 -1.4771e-05 4.82534e-06 )  
( 4.79112e-05 -9.29755e-05 0.000323311 )  
( 9.91898e-05 -5.0802e-06 0.000438195 )  
( -2.40829e-07 2.1067e-05 1.39468e-05 )  
( -5.8552e-05 6.61739e-06 0.000416081 )  
( -3.30778e-05 5.79498e-05 -2.62542e-05 )  
( 3.15435e-05 4.99229e-05 0.000108482 )  
( 3.15132e-05 -3.39085e-06 9.79504e-05 )  
( -0.000233634 0.000144581 0.00029987 )  
( 3.48926e-05 -1.74807e-05 3.98033e-05 )  
( 9.74153e-06 6.99016e-05 0.000119807 )  
( -7.99144e-05 -4.42036e-05 0.000127032 )  
( -1.35174e-05 2.34538e-05 9.02902e-05 )  
( 9.11555e-05 8.90464e-05 8.53071e-05 )  
( 0.000157162 6.03402e-05 0.000333436 )  
( -1.04864e-05 0.000135637 0.000411279 )  
( 2.77569e-06 -0.000168854 0.000140907 )  
( 3.79182e-05 -4.34391e-05 0.000243437 )  
( -7.93148e-05 -8.13421e-05 0.000197044 )  
( 0.000111065 -3.21964e-05 0.000294291 )  
( -0.000352101 0.00021581 0.00038787 )  
( -7.43547e-05 3.41051e-05 0.000307534 )  
( -6.40745e-05 -1.01457e-06 5.42386e-05 )  
( -5.95522e-05 -0.000117928 0.000270886 )  
( 8.84426e-06 4.3443e-05 0.000288012 )  
( -0.00024443 3.23623e-05 0.000351151 )  
( 5.36505e-05 1.19458e-05 9.97546e-05 )  
( 0.000116759 3.98569e-05 0.000147499 )  
( 9.65404e-05 0.000142985 0.000260867 )  
( -1.77146e-05 -4.22311e-06 3.93881e-05 )  
( -2.37106e-05 1.48347e-05 0.000124101 )  
( 4.84364e-05 1.42345e-05 3.87609e-06 )  
( 3.6648e-05 -5.90157e-05 4.16052e-06 )  
( 3.38788e-06 2.88976e-05 6.24127e-05 )  
( 4.36354e-05 1.09009e-05 9.94778e-05 )  
( -3.42049e-05 -1.88555e-05 0.000316049 )  
( -1.06918e-05 0.000151382 0.000437012 )  
( 2.44761e-05 1.04939e-05 0.000138188 )  
( 0.000103035 5.65268e-05 0.000248975 )  
( 3.48743e-05 -0.000139127 0.000329295 )  
( 7.63036e-05 6.57628e-05 4.79183e-05 )  
( -2.55741e-05 -5.10863e-05 0.000237501 )  
( 0.000301388 -0.000150732 0.00021176 )  
( -7.78339e-05 -0.000107845 -0.000108097 )  
( -9.04907e-05 4.46044e-05 0.000147734 )  
( 4.791e-05 -3.45343e-05 0.000257111 )  
( 8.94226e-06 -1.6171e-05 1.31431e-06 )  
( 8.13383e-05 0.000125326 0.000230345 )  
( -1.19081e-05 0.00021368 -0.000102401 )  
( 9.24021e-05 0.000215565 0.00033972 )  
( 5.73328e-05 2.10845e-05 1.84404e-05 )  
( 9.72527e-05 -5.59497e-06 0.000236137 )  
( 6.89187e-05 -0.000147746 0.000277789 )  
( -2.54349e-05 3.24241e-05 0.000102289 )  
( 1.20435e-05 -4.01201e-05 1.16353e-05 )  
( 0.000230244 0.000192043 0.000134876 )  
( 0.000126392 7.74123e-05 0.000231846 )  
( -1.44669e-05 0.000114995 0.000413065 )  
( -3.71581e-06 -0.000174313 0.000156581 )  
( 7.60512e-05 0.000158904 0.000556314 )  
( 7.35819e-05 3.84895e-05 6.90036e-05 )  
( -1.06301e-05 -9.47848e-06 1.86906e-05 )  
( 8.10313e-05 3.42141e-05 0.000259631 )  
( 3.71194e-05 -1.96978e-05 3.76884e-05 )  
( 0.000107088 7.8545e-05 0.000302714 )  
( -6.78872e-05 0.000145273 0.000459488 )  
( 0.000212179 -0.000183699 0.000363934 )  
( 3.69917e-05 2.82404e-06 -5.64012e-05 )  
( 3.46709e-05 -3.89849e-05 0.000172824 )  
( 2.99946e-06 -0.000174766 0.000539426 )  
( 9.75187e-05 7.22181e-05 0.000254891 )  
( -6.32102e-05 0.000135788 0.000319917 )  
( -5.60146e-05 -4.7177e-05 0.000166704 )  
( 2.50131e-05 2.79854e-05 0.00012382 )  
( 1.16259e-05 1.26413e-05 0.000231548 )  
( 3.68023e-07 -7.62296e-05 0.000206155 )  
( -0.000370473 0.000194565 4.14265e-05 )  
( 7.82487e-06 2.58418e-05 6.9263e-05 )  
( 7.37276e-05 1.69514e-05 -1.01899e-05 )  
( -3.58244e-05 -0.000174987 0.000386531 )  
( 2.00998e-05 -9.92555e-06 9.38906e-06 )  
( 0.000141361 -2.24327e-07 0.000384367 )  
( 0.000143282 -1.5461e-05 0.000273878 )  
( 5.98362e-05 2.26566e-05 6.21026e-05 )  
( -9.0381e-06 -1.63672e-05 1.69917e-05 )  
( -2.92269e-05 -3.87607e-05 -6.42217e-06 )  
( 2.96871e-05 5.58859e-06 0.000109105 )  
( 2.09536e-05 8.55646e-05 0.000191535 )  
( -5.75239e-05 2.03172e-06 -7.60817e-06 )  
( -0.000143607 -4.74505e-05 0.000219836 )  
( -1.92592e-05 -2.92154e-05 3.20984e-05 )  
( 1.11984e-06 -5.48801e-05 5.10275e-07 )  
( 8.60384e-05 1.64716e-05 0.000273927 )  
( 0.000195554 1.15198e-05 0.000330679 )  
( 5.99983e-05 2.92316e-05 0.000383091 )  
( -5.1775e-06 -8.81605e-06 1.51158e-05 )  
( 8.13306e-05 4.65751e-05 0.000302086 )  
( 2.40837e-05 -4.74099e-05 0.000213919 )  
( 8.68928e-05 -1.18995e-05 0.000208901 )  
( 0.00013835 9.77879e-05 0.00048989 )  
( -0.000736763 5.0279e-05 -6.72712e-07 )  
( -5.72301e-05 1.42958e-05 4.53475e-05 )  
( -0.000488101 0.00036317 0.00011637 )  
( -2.30893e-05 -5.04131e-05 0.000367417 )  
( 0.000103833 5.16172e-06 0.000160391 )  
( 0.000186148 -0.000155459 -7.7178e-05 )  
( 0.000160736 -9.18565e-05 4.86098e-05 )  
( 8.43546e-05 2.62041e-05 0.000204586 )  
( 2.2111e-05 -8.60837e-06 0.000278325 )  
( 1.74431e-05 2.79052e-05 0.000128746 )  
( 4.90566e-05 5.4625e-05 0.000179846 )  
( -0.00011355 2.07188e-05 3.1238e-05 )  
( -1.60764e-05 7.64684e-06 2.83237e-05 )  
( -1.0536e-05 -7.13448e-06 4.78163e-05 )  
( 4.22625e-05 -5.60268e-06 1.50156e-05 )  
( 6.65021e-05 -7.4067e-06 0.000257794 )  
( 0.000116383 1.09038e-06 0.000388893 )  
( 2.18502e-06 1.12431e-05 0.000273158 )  
( 2.26781e-05 -4.7589e-06 3.52661e-05 )  
( 9.06105e-05 -3.05471e-05 0.00025671 )  
( 5.90198e-05 -9.26811e-05 0.000211197 )  
( 0.000148369 0.000123759 0.000233196 )  
( 4.83571e-05 6.51307e-06 0.000181702 )  
( 7.67591e-05 -3.82109e-05 0.000307543 )  
( 6.12773e-05 -3.07353e-05 0.00022868 )  
( 3.29118e-05 5.11002e-06 2.24533e-05 )  
( -1.72654e-05 1.20428e-05 4.83228e-05 )  
( 5.36808e-05 9.77088e-06 2.16637e-07 )  
( -6.08323e-05 6.25837e-06 0.000274058 )  
( -0.000135862 -9.7867e-05 9.77326e-05 )  
( 4.65643e-05 -1.60037e-05 6.19794e-05 )  
( -2.33188e-05 -4.81319e-05 0.000135273 )  
( 4.00016e-05 8.4183e-05 0.000119061 )  
( 9.65274e-05 7.15158e-05 6.93547e-05 )  
( -5.46177e-06 7.69049e-05 0.000314593 )  
( 1.75633e-05 -1.19667e-05 0.000172002 )  
( -6.39058e-06 -1.08602e-05 2.11234e-05 )  
( 0.000168492 9.93854e-05 9.31529e-05 )  
( -5.78454e-05 -5.20526e-05 0.000364358 )  
( 1.57791e-06 0.000133292 0.000210249 )  
( 1.57607e-05 8.19314e-05 0.000200677 )  
( 0.000109977 7.55612e-05 0.000309153 )  
( -0.000217101 7.77582e-05 0.00015903 )  
( 1.21923e-05 2.32328e-05 0.000350938 )  
( 4.97571e-05 -6.13815e-05 3.16452e-05 )  
( 6.11093e-05 -4.97226e-06 0.000127107 )  
( 5.35209e-05 4.14439e-05 0.000251684 )  
( 0.000117999 0.000124286 4.6269e-05 )  
( 0.000110552 3.30326e-05 7.74042e-05 )  
( -2.64031e-05 -8.56531e-06 -8.5341e-06 )  
( 1.48296e-05 -0.000124377 0.000343923 )  
( 5.91295e-05 5.75541e-05 0.00012042 )  
( 5.28753e-05 5.6196e-05 0.000179142 )  
( 8.46653e-05 1.5149e-05 0.000390786 )  
( 2.56233e-05 1.11924e-05 0.000110173 )  
( -3.95732e-06 -5.00837e-05 5.85913e-06 )  
( 2.39138e-05 -3.61576e-05 0.000130572 )  
( 0.000127127 5.01026e-05 0.000378588 )  
( -0.000164142 8.4432e-05 0.00040352 )  
( 0.000118215 -5.49222e-05 0.000122861 )  
( -8.67545e-05 -0.000147189 0.000190422 )  
( 2.95854e-05 -6.13429e-05 7.63695e-05 )  
( -0.00019426 -2.85446e-05 8.01702e-05 )  
( -4.6863e-05 0.000139514 0.000375187 )  
( 4.77443e-05 -3.16805e-05 4.03247e-05 )  
( 6.35523e-05 -2.40236e-05 0.000351397 )  
( -3.56406e-05 -7.29774e-05 0.000386535 )  
( 4.2434e-05 1.29323e-05 4.0754e-05 )  
( 0.000148809 3.80301e-05 0.000254526 )  
( 3.70032e-05 4.95394e-05 0.000134336 )  
( -3.55865e-05 6.5136e-05 0.000276805 )  
( 1.0226e-06 9.96144e-05 0.000210881 )  
( 0.000226436 -1.33477e-05 6.87352e-05 )  
( 4.01093e-05 -2.82987e-05 4.34527e-05 )  
( -7.77149e-06 5.99915e-07 0.000154145 )  
( 2.73644e-05 4.93468e-05 7.70772e-05 )  
( 4.0469e-05 1.33579e-05 1.47973e-05 )  
( -9.02555e-06 1.49101e-05 5.51179e-05 )  
( -9.27344e-05 9.96881e-05 0.000338751 )  
( 6.47774e-05 -8.15375e-05 0.000259901 )  
( 4.98843e-05 -1.29637e-05 -2.11871e-06 )  
( -6.47987e-07 0.000148562 0.000470402 )  
( -1.66451e-06 -6.03981e-06 -2.80568e-05 )  
( -1.47776e-05 -6.70231e-05 0.000121429 )  
( -3.8465e-05 2.2445e-05 7.45856e-05 )  
( 3.48614e-05 7.65935e-06 -4.73242e-05 )  
( 2.09574e-05 4.56269e-05 6.91565e-05 )  
( 7.99565e-05 -5.35711e-05 4.72537e-05 )  
( -0.000278635 0.000273706 0.000165176 )  
( 0.000266901 6.228e-06 1.9745e-05 )  
( 1.37725e-05 1.00627e-05 8.39777e-05 )  
( -1.24823e-05 1.13803e-05 0.000150032 )  
( 0.000156145 -3.46951e-05 0.000223297 )  
( 0.000690452 0.000123089 -0.000216211 )  
( 1.52799e-05 3.66205e-05 9.56585e-05 )  
( 2.49164e-05 1.13779e-05 0.000231001 )  
( 5.57045e-05 0.000118214 0.00014948 )  
( 4.32727e-05 -1.55011e-05 0.000168561 )  
( -2.09124e-05 3.55362e-05 6.30848e-05 )  
( 1.31765e-05 -8.67166e-07 3.33087e-05 )  
( 3.09857e-05 6.71856e-05 0.000243813 )  
( 3.74869e-05 0.000138999 0.000421728 )  
( 0.000154012 6.84688e-05 7.44888e-05 )  
( 3.25708e-05 9.32167e-07 9.51352e-05 )  
( 5.02714e-05 3.79532e-05 0.000288079 )  
( -1.16712e-05 -6.94632e-06 1.53549e-05 )  
( 7.35591e-05 6.06338e-07 7.92165e-05 )  
( 1.99119e-05 -5.22236e-06 9.08905e-05 )  
( 6.56339e-05 4.09916e-05 1.65818e-05 )  
( -6.14096e-05 -2.46589e-05 7.7443e-05 )  
( 2.87068e-05 -5.97022e-05 4.22916e-05 )  
( 2.50152e-05 1.72628e-05 0.00026588 )  
( 2.21745e-05 -6.0639e-05 0.000109392 )  
( 0.000222331 1.38435e-05 -8.26549e-05 )  
( 3.53209e-05 6.34895e-05 6.3639e-05 )  
( 9.48465e-05 -8.63583e-06 4.01346e-05 )  
( 0.000494033 0.000303928 -0.000253965 )  
( 8.27776e-05 5.19493e-05 3.2763e-05 )  
( 2.15163e-05 8.38663e-06 3.03392e-06 )  
( -7.42945e-05 2.86882e-05 5.01624e-05 )  
( -1.48592e-05 5.77283e-05 9.53863e-05 )  
( 3.01527e-07 -1.30018e-05 2.107e-05 )  
( -8.7567e-05 1.73255e-05 0.000134348 )  
( 0.000135365 -0.000352971 0.000528933 )  
( 3.35799e-05 -1.77022e-05 0.000259343 )  
( 1.20648e-05 -1.90609e-05 2.50827e-05 )  
( -9.82984e-06 -4.02308e-05 3.37458e-05 )  
( -0.000169538 -0.000148311 0.000316209 )  
( 2.26436e-05 3.30424e-05 -9.29872e-06 )  
( 4.02664e-05 -0.000138347 0.000437816 )  
( -5.88993e-05 2.59796e-05 2.52316e-05 )  
( 7.61799e-05 6.22988e-05 0.000358558 )  
( -7.47267e-05 8.17961e-05 0.000167233 )  
( -2.62731e-05 3.36619e-05 0.000353432 )  
( 3.29247e-05 -1.46815e-06 1.5822e-05 )  
( -6.70583e-05 4.95306e-05 5.01163e-05 )  
( -7.27625e-05 -5.37568e-05 2.8167e-05 )  
( 7.78826e-05 4.64439e-05 0.000250401 )  
( -2.33103e-06 -2.19749e-05 3.56246e-05 )  
( 6.43139e-05 -3.18512e-05 8.52087e-05 )  
( -7.14513e-05 2.08298e-05 0.000118655 )  
( 2.67894e-05 3.10593e-06 -1.7591e-05 )  
( 5.83156e-05 5.45358e-05 2.21044e-05 )  
( 1.99869e-05 8.00402e-05 0.000404718 )  
( 4.68923e-05 2.65809e-05 5.20244e-05 )  
( -1.6158e-06 4.115e-05 1.406e-05 )  
( -1.64412e-05 9.4601e-05 0.000205511 )  
( -9.92041e-05 -1.7319e-05 8.21868e-05 )  
( 8.7528e-05 9.78982e-05 0.000297984 )  
( 8.58909e-05 0.000159744 0.000187835 )  
( -9.86392e-05 0.000114884 0.000646717 )  
( -4.51143e-05 -5.8934e-05 5.11495e-05 )  
( 4.54666e-05 1.21917e-05 9.782e-05 )  
( 4.1785e-05 9.44764e-05 0.000202948 )  
( -0.000442338 -0.00169457 1.37639e-05 )  
( 0.000102533 0.000101776 0.000136398 )  
( -0.000130069 5.10919e-05 0.000304017 )  