/*--------------------------------*- C++ -*----------------------------------*\
| =========                 |                                                 |
| \\      /  F ield         | OpenFOAM: The Open Source CFD Toolbox           |
|  \\    /   O peration     | Version:  2506                                  |
|   \\  /    A nd           | Website:  www.openfoam.com                      |
|    \\/     M anipulation  |                                                 |
\*---------------------------------------------------------------------------*/
FoamFile
{
    version     2.0;
    format      ascii;
    arch        "LSB;label=32;scalar=64";
    class       surfaceScalarField;
    location    "0.1";
    object      phi;
}
// * * * * * * * * * * * * * * * * * * * * * * * * * * * * * * * * * * * * * //

dimensions      [0 3 -1 0 0 0 0];

oriented        oriented;

internalField   nonuniform List<scalar> 
3120
(
2.92827e-09
-6.3835e-10
5.1597e-08
5.56876e-09
9.02909e-12
-4.66802e-09
7.34635e-10
7.27331e-08
-7.50874e-09
7.90031e-11
4.4431e-09
4.22363e-08
7.54302e-09
-6.57208e-10
6.3134e-08
-2.48138e-09
3.2907e-09
3.25925e-10
6.10179e-08
-5.76257e-09
-2.28168e-09
-6.401e-10
6.64412e-08
-5.097e-09
-8.13398e-09
7.46749e-08
-2.19965e-09
5.13602e-08
1.7058e-09
8.05631e-10
6.67636e-08
-9.15166e-09
-4.98262e-09
6.02692e-09
5.94294e-08
7.09286e-10
5.44202e-09
4.0123e-08
1.07794e-08
4.48237e-08
7.68674e-09
5.74453e-08
-2.06453e-09
-8.60721e-09
9.35627e-08
2.91347e-09
5.57584e-08
7.46434e-08
-9.55152e-11
-3.86282e-09
4.84263e-08
6.73459e-10
6.45565e-09
-4.97676e-10
-3.27081e-09
7.34669e-08
2.9392e-09
1.09721e-09
-9.24733e-10
4.07131e-08
8.53077e-10
-2.35643e-09
6.75428e-08
2.7556e-09
-3.41519e-09
-4.47881e-09
6.02918e-08
4.75724e-09
-3.16033e-09
-2.94925e-10
6.32104e-08
7.07334e-10
2.68577e-09
6.71968e-08
1.24094e-09
4.86156e-08
-2.42795e-11
4.38405e-10
6.09586e-08
9.12027e-10
-1.02181e-09
-1.00043e-08
7.01363e-08
-2.99031e-10
-1.97686e-09
4.40628e-08
-3.02841e-09
5.00162e-08
-1.22845e-08
6.6455e-08
4.92662e-09
5.35233e-09
5.43882e-08
3.4358e-09
4.92198e-08
6.64919e-08
-1.77327e-09
-2.9585e-09
6.78408e-08
-9.78888e-09
-4.89394e-09
8.4002e-11
-2.73225e-09
7.68189e-08
-2.4771e-09
-5.86569e-10
4.75574e-10
5.02293e-08
-9.32125e-09
2.96199e-10
6.602e-08
-2.042e-09
9.3027e-10
1.25661e-10
5.24189e-08
3.85847e-09
-2.18029e-09
-5.6752e-09
6.92639e-08
-3.92518e-10
-4.31721e-10
6.63163e-08
1.54015e-09
4.36221e-08
-5.12757e-10
5.99179e-10
5.98336e-08
1.16429e-09
2.25131e-09
-5.39198e-09
6.7089e-08
1.00164e-09
-3.5338e-09
4.84145e-08
-4.93166e-09
5.72692e-08
-7.64692e-09
8.04543e-08
-3.02794e-09
4.37744e-10
3.64886e-08
3.69435e-09
3.84322e-08
6.28001e-08
-2.29722e-09
-4.91616e-10
7.55559e-08
1.23046e-10
-5.04931e-09
3.93635e-09
-3.79914e-09
7.43431e-08
4.13644e-11
1.49999e-09
3.74134e-09
5.34708e-08
-4.54651e-09
1.10197e-08
6.60542e-08
-9.0652e-09
-2.20849e-09
-3.00752e-09
6.11119e-08
-3.96859e-09
9.40367e-09
2.74837e-10
5.35777e-08
6.10938e-09
-6.75433e-09
8.01062e-08
-9.14275e-09
8.26864e-08
1.74222e-09
-1.88099e-09
5.92417e-08
-2.27691e-09
3.93449e-09
2.03208e-09
6.31395e-08
1.50435e-09
-2.34142e-10
4.43244e-08
-4.09759e-09
5.05942e-08
6.58705e-09
7.08096e-08
-6.12502e-09
1.4739e-09
4.28604e-08
-1.42634e-09
3.68976e-08
4.19121e-08
-3.0711e-09
5.22527e-09
7.42156e-08
1.66904e-09
-2.48289e-09
3.56375e-09
2.80599e-09
6.06035e-08
4.29882e-09
4.08562e-09
-1.93226e-09
5.30954e-08
1.78587e-09
-7.62947e-09
8.82094e-08
-7.04514e-09
-3.75686e-09
-1.97304e-09
8.33654e-08
-1.12983e-08
-2.27357e-10
3.45558e-10
5.25086e-08
2.55215e-09
3.14701e-09
7.22475e-08
4.37655e-09
8.00199e-08
-1.38857e-09
-8.6065e-09
6.97754e-08
-2.5116e-09
2.48805e-09
5.59899e-09
5.40094e-08
1.83683e-09
1.47498e-09
4.66478e-08
1.48815e-09
6.02849e-08
1.10434e-08
4.29162e-08
2.15731e-09
5.90486e-10
6.82556e-08
1.40585e-09
4.8535e-08
6.33048e-08
2.2705e-09
-1.39618e-08
9.90113e-08
-1.42159e-08
1.11151e-09
-3.22796e-09
-1.68606e-09
7.12728e-08
-3.48477e-09
-1.15452e-08
-1.11509e-08
7.09674e-08
1.59608e-09
-1.9747e-08
6.91654e-08
2.20344e-08
1.17588e-08
5.32235e-09
5.55037e-08
-3.18106e-09
-1.40201e-08
-3.18884e-09
7.97903e-08
-1.11194e-09
4.97748e-09
4.3211e-08
2.27202e-09
5.1863e-08
1.87747e-10
7.38344e-09
7.43349e-08
-6.8084e-09
-6.55729e-09
1.05618e-09
5.65095e-08
-6.2517e-09
5.81537e-09
4.55042e-08
5.59868e-09
5.15316e-08
-5.93999e-09
7.42473e-08
-9.31984e-09
-5.30443e-09
6.47693e-08
-9.75668e-09
6.42471e-08
6.84472e-08
3.33401e-09
4.33765e-09
8.31638e-08
8.5677e-10
7.31933e-09
2.54006e-09
-2.37725e-09
7.15698e-08
2.87417e-09
3.6746e-09
6.6541e-09
6.16049e-08
1.57332e-09
1.50633e-09
6.72194e-08
2.00521e-09
-2.97693e-09
-3.88451e-09
6.65293e-08
1.7353e-10
1.13924e-08
1.59286e-09
6.14505e-08
-2.87417e-11
-1.42213e-09
6.27078e-08
3.94693e-10
5.3435e-08
1.95346e-09
9.26283e-11
6.48762e-08
3.52808e-09
3.4975e-09
-1.35039e-09
5.79086e-08
1.77795e-09
-3.41985e-09
4.92211e-08
-6.83868e-09
6.41462e-08
1.76121e-09
7.09639e-08
1.57326e-09
3.07097e-09
6.48351e-08
-2.17639e-09
6.87554e-08
5.34695e-08
-1.40917e-08
-2.00186e-08
8.72126e-08
9.64982e-09
2.0412e-08
-2.28094e-08
-2.75141e-08
8.48618e-08
2.29395e-08
-2.04994e-08
-5.5119e-08
7.95246e-08
3.48899e-08
-6.22366e-08
8.35752e-08
4.28115e-08
-2.34701e-08
-8.98617e-09
6.72958e-08
1.16718e-08
-5.04443e-08
-1.32327e-08
7.41422e-08
-3.09675e-08
-2.29211e-08
1.10329e-08
-3.7866e-08
2.46796e-08
-2.92175e-08
-1.18792e-09
7.58526e-08
1.04424e-08
-6.08414e-08
5.79478e-09
7.05046e-08
-4.30009e-08
2.04992e-08
-1.20398e-08
1.52347e-08
-9.10117e-09
-1.99643e-08
7.98804e-08
6.91302e-09
-4.18235e-08
8.50282e-08
-4.60661e-08
6.73961e-08
2.11088e-08
6.08544e-09
1.17157e-08
7.25867e-08
2.43287e-09
-5.60745e-09
1.34523e-08
1.53147e-08
6.96401e-08
-7.45897e-09
1.06661e-08
3.52829e-08
6.29744e-08
-1.5947e-08
3.94917e-08
6.04571e-08
-1.9227e-08
9.9793e-09
3.52974e-09
6.15005e-08
4.00159e-09
3.13752e-08
6.91551e-09
6.11443e-08
2.02243e-08
1.47321e-08
4.27345e-08
2.13937e-08
4.04232e-08
1.45855e-08
-7.45983e-10
6.33759e-08
2.16653e-09
4.00976e-08
-5.49891e-09
5.74065e-08
2.5306e-08
-2.06809e-08
3.8166e-08
-1.05516e-08
3.3363e-08
6.17894e-09
6.46439e-08
8.42404e-09
2.47653e-08
6.40137e-08
3.50703e-08
5.16687e-08
3.93329e-08
3.88345e-09
8.50035e-09
6.5193e-08
8.09989e-10
-5.80017e-09
7.27537e-09
9.42264e-09
6.35845e-08
-6.75802e-09
6.38268e-09
1.38232e-08
6.03423e-08
-1.02988e-08
1.47508e-08
5.83035e-08
-1.17216e-08
4.70516e-09
3.68013e-09
6.04495e-08
1.16613e-09
1.09611e-08
5.12408e-09
5.91859e-08
8.19012e-09
6.19398e-09
5.31344e-08
7.26054e-09
5.03936e-08
6.49027e-09
7.52645e-10
5.96982e-08
1.14125e-10
1.20896e-08
-2.24307e-10
5.71553e-08
8.75013e-09
-2.67501e-09
5.03741e-08
-1.58843e-09
4.6978e-08
3.95253e-09
5.98382e-08
2.03116e-09
1.01586e-08
5.87507e-08
1.02335e-08
5.35695e-08
4.85504e-08
2.61348e-09
5.26821e-09
6.22392e-08
-3.44548e-10
-4.58304e-09
4.1747e-09
5.71706e-09
6.13208e-08
-5.01453e-09
4.05052e-09
7.0631e-09
5.96882e-08
-6.28477e-09
7.7308e-09
5.83829e-08
-7.08326e-09
2.98467e-09
3.05266e-09
5.99862e-08
-3.05745e-10
5.3243e-09
3.54931e-09
5.90138e-08
4.88366e-09
4.03878e-09
5.65994e-08
4.3606e-09
5.49078e-08
3.56417e-09
9.92741e-10
5.90909e-08
-8.97168e-10
5.7634e-09
6.59687e-10
5.78457e-08
5.04099e-09
3.50167e-11
5.51005e-08
-1.28265e-10
5.32099e-08
2.89114e-09
5.89499e-08
-5.42452e-10
5.08534e-09
5.80479e-08
4.98987e-09
5.5801e-08
5.35831e-08
1.59866e-09
3.15723e-09
6.09786e-08
-4.81864e-10
-3.01319e-09
2.33618e-09
3.40838e-09
6.04475e-08
-3.27259e-09
2.31752e-09
3.87604e-09
5.96176e-08
-3.78675e-09
4.15919e-09
5.88688e-08
-4.1632e-09
1.83164e-09
2.07921e-09
5.98165e-08
-5.84044e-10
2.75157e-09
2.2613e-09
5.92407e-08
2.61594e-09
2.43223e-09
5.8179e-08
2.48646e-09
5.72799e-08
2.05275e-09
8.32295e-10
5.92093e-08
-9.24403e-10
2.90806e-09
7.06321e-10
5.85456e-08
2.62498e-09
4.35107e-10
5.73812e-08
2.2048e-10
5.64206e-08
1.84311e-09
5.90328e-08
-8.43017e-10
2.60497e-09
5.84601e-08
2.39469e-09
5.74361e-08
5.64636e-08
9.19411e-10
1.84638e-09
6.04158e-08
-3.72416e-10
-1.83061e-09
1.25799e-09
1.96734e-09
6.01166e-08
-1.97502e-09
1.24472e-09
2.12809e-09
5.96929e-08
-2.1902e-09
2.20779e-09
5.92895e-08
-2.33853e-09
1.04057e-09
1.29444e-09
5.97999e-08
-4.72196e-10
1.40299e-09
1.36775e-09
5.94776e-08
1.32222e-09
1.40668e-09
5.89811e-08
1.37234e-09
5.85259e-08
1.13154e-09
5.89028e-10
5.94301e-08
-6.47009e-10
1.4376e-09
5.33658e-10
5.90736e-08
1.27486e-09
4.03111e-10
5.85475e-08
2.39012e-10
5.80818e-08
1.05631e-09
5.92918e-08
-6.43972e-10
1.29392e-09
5.89618e-08
1.10009e-09
5.84814e-08
5.80457e-08
5.05428e-10
1.06037e-09
6.01587e-08
-2.35655e-10
-1.07314e-09
6.61603e-10
1.11619e-09
5.99941e-08
-1.14988e-09
6.49297e-10
1.16852e-09
5.97759e-08
-1.2393e-09
1.17581e-09
5.95644e-08
-1.28855e-09
5.65801e-10
7.72718e-10
5.98268e-08
-3.05139e-10
7.09206e-10
8.00117e-10
5.96501e-08
6.5381e-10
7.96982e-10
5.94079e-08
7.48764e-10
5.91815e-08
6.02138e-10
3.83237e-10
5.96094e-08
-3.92181e-10
7.0507e-10
3.51482e-10
5.94191e-08
6.01486e-10
2.78379e-10
5.91695e-08
1.71096e-10
5.89471e-08
5.65022e-10
5.95157e-08
-3.96554e-10
6.27002e-10
5.93343e-08
4.89788e-10
5.91045e-08
5.89067e-08
2.67908e-10
6.02152e-10
6.00389e-08
-1.33794e-10
-6.16471e-10
3.41134e-10
6.2716e-10
5.99497e-08
-6.56174e-10
3.31523e-10
6.41294e-10
5.98368e-08
-6.92773e-10
6.28393e-10
5.97272e-08
-7.04082e-10
2.97422e-10
4.49905e-10
5.98577e-08
-1.76262e-10
3.54291e-10
4.57899e-10
5.97624e-08
3.1716e-10
4.44643e-10
5.96416e-08
4.04288e-10
5.95296e-08
3.10225e-10
2.35731e-10
5.97322e-08
-2.18956e-10
3.41163e-10
2.14568e-10
5.96316e-08
2.75511e-10
1.69605e-10
5.95103e-08
1.02076e-10
5.94048e-08
2.87935e-10
5.96725e-08
-2.20905e-10
2.94542e-10
5.95761e-08
2.06508e-10
5.94655e-08
5.93762e-08
1.36661e-10
3.38828e-10
5.99827e-08
-6.98225e-11
-3.49407e-10
1.71333e-10
3.49195e-10
5.9935e-08
-3.69177e-10
1.6456e-10
3.50214e-10
5.98767e-08
-3.83291e-10
3.34953e-10
5.98204e-08
-3.81683e-10
1.50363e-10
2.57124e-10
5.98829e-08
-9.38392e-11
1.72501e-10
2.57412e-10
5.98323e-08
1.48699e-10
2.44185e-10
5.97717e-08
2.15084e-10
5.97167e-08
1.53268e-10
1.39148e-10
5.98112e-08
-1.14134e-10
1.5962e-10
1.24364e-10
5.97587e-08
1.19223e-10
9.5831e-11
5.96995e-08
5.43115e-11
5.96501e-08
1.3844e-10
5.97746e-08
-1.13399e-10
1.30576e-10
5.97248e-08
7.69782e-11
5.9672e-08
5.96322e-08
6.62725e-11
1.89065e-10
5.99565e-08
-3.30089e-11
-1.96235e-10
8.26938e-11
1.92636e-10
5.99316e-08
-2.05419e-10
7.8182e-11
1.89729e-10
5.99018e-08
-2.09992e-10
1.77186e-10
5.98733e-08
-2.05047e-10
7.20251e-11
1.44617e-10
5.99015e-08
-4.5837e-11
8.01448e-11
1.42294e-10
5.98751e-08
6.54371e-11
1.31696e-10
5.98449e-08
1.12018e-10
5.98184e-08
7.11031e-11
7.92715e-11
5.98607e-08
-5.50005e-11
6.98262e-11
6.89142e-11
5.9834e-08
4.5396e-11
5.06595e-11
5.98054e-08
2.48056e-11
5.97827e-08
6.0872e-11
5.98389e-08
-5.29668e-11
5.13097e-11
5.9814e-08
1.94607e-11
5.97894e-08
5.97726e-08
2.97257e-11
1.04688e-10
5.99449e-08
-1.34037e-11
-1.09314e-10
3.7266e-11
1.05174e-10
5.99322e-08
-1.13135e-10
3.43574e-11
1.01604e-10
5.99173e-08
-1.13869e-10
9.24536e-11
5.99031e-08
-1.0894e-10
3.15555e-11
7.99962e-11
5.99144e-08
-1.94599e-11
3.39958e-11
7.71314e-11
5.99012e-08
2.49613e-11
6.94179e-11
5.98864e-08
5.62813e-11
5.98739e-08
2.94749e-11
4.34203e-11
5.98914e-08
-2.33244e-11
2.63165e-11
3.62728e-11
5.98783e-08
1.19644e-11
2.45243e-11
5.98649e-08
8.32394e-12
5.9855e-08
2.22659e-11
5.98788e-08
-2.10306e-11
1.43201e-11
5.9867e-08
-4.11224e-12
5.9856e-08
5.98498e-08
1.12686e-11
5.73409e-11
5.99401e-08
-3.46351e-12
-6.02862e-11
1.44854e-11
5.66415e-11
5.9934e-08
-6.165e-11
1.26056e-11
5.34818e-11
5.99267e-08
-6.09912e-11
4.70484e-11
5.99199e-08
-5.70019e-11
1.13801e-11
4.33638e-11
5.99232e-08
-6.17134e-12
1.15768e-11
4.0747e-11
5.99169e-08
6.18751e-12
3.5222e-11
5.99101e-08
2.67e-11
5.99045e-08
9.13144e-12
2.26649e-11
5.99104e-08
-7.3531e-12
6.18308e-12
1.7715e-11
5.99044e-08
-2.27917e-12
1.00723e-11
5.98985e-08
3.63596e-14
5.98948e-08
4.2249e-12
5.99034e-08
-5.36646e-12
-1.41722e-12
5.98982e-08
-1.23068e-11
5.98939e-08
5.98925e-08
2.41665e-12
3.09203e-11
5.99385e-08
1.11212e-12
-3.28339e-11
3.58438e-12
2.98908e-11
5.99357e-08
-3.31573e-11
2.30688e-12
2.74077e-11
5.99325e-08
-3.21076e-11
2.30324e-11
5.99297e-08
-2.9154e-11
1.90939e-12
2.28583e-11
5.99292e-08
3.39884e-14
1.26644e-12
2.07129e-11
5.99265e-08
-2.0232e-12
1.68956e-11
5.99237e-08
1.14324e-11
5.99217e-08
-1.03982e-14
1.10785e-11
5.99221e-08
-6.67165e-14
-2.47235e-12
7.63405e-12
5.99197e-08
-7.46255e-12
2.66228e-12
5.99177e-08
-3.58395e-12
5.99169e-08
-3.42172e-12
5.99184e-08
1.63316e-12
-7.40403e-12
5.99166e-08
-1.37245e-11
5.99156e-08
5.99162e-08
-1.35103e-12
1.6296e-11
5.99383e-08
2.76746e-12
-1.75739e-11
-1.11342e-12
1.53206e-11
5.99372e-08
-1.74766e-11
-1.96905e-12
1.34962e-11
5.99362e-08
-1.64745e-11
1.05985e-11
5.99354e-08
-1.43749e-11
-1.97857e-12
1.15969e-11
5.9933e-08
2.46755e-12
-2.82605e-12
9.97059e-12
5.99322e-08
-4.83329e-12
7.39868e-12
5.99315e-08
3.89839e-12
5.99313e-08
-3.46873e-12
4.88681e-12
5.99292e-08
2.77863e-12
-5.35386e-12
2.52358e-12
5.99287e-08
-8.29718e-12
-6.81968e-13
5.99285e-08
-4.59663e-12
5.99291e-08
-5.8094e-12
5.99273e-08
4.05391e-12
-8.55806e-12
5.99273e-08
-1.2204e-11
5.99278e-08
5.99293e-08
-2.46076e-12
8.22522e-12
5.99385e-08
2.91352e-12
-9.07726e-12
-2.58869e-12
7.44574e-12
5.99384e-08
-8.83713e-12
-3.13088e-12
6.18148e-12
5.99383e-08
-8.04186e-12
4.3448e-12
5.99385e-08
-6.64855e-12
-3.01838e-12
5.50134e-12
5.99355e-08
2.92856e-12
-3.77593e-12
4.34869e-12
5.99356e-08
-4.96293e-12
2.6693e-12
5.99359e-08
4.9966e-13
5.99366e-08
-4.08884e-12
1.73301e-12
5.99334e-08
3.31135e-12
-5.42597e-12
1.68741e-13
5.99338e-08
-7.12368e-12
-1.85532e-12
5.99345e-08
-4.23782e-12
5.99357e-08
-5.6396e-12
5.99325e-08
4.19855e-12
-7.44964e-12
5.99333e-08
-9.49968e-12
5.99345e-08
5.99364e-08
-2.37439e-12
3.64475e-12
5.99389e-08
2.40343e-12
-4.20941e-12
-2.60799e-12
3.06396e-12
5.99391e-08
-3.95267e-12
-2.95166e-12
2.26328e-12
5.99396e-08
-3.39008e-12
1.14643e-12
5.99402e-08
-2.5375e-12
-2.80961e-12
2.114e-12
5.99369e-08
2.52572e-12
-3.38483e-12
1.34242e-12
5.99374e-08
-4.05438e-12
3.24251e-13
5.99382e-08
-9.53825e-13
5.99392e-08
-3.52233e-12
9.39948e-14
5.99357e-08
2.85862e-12
-4.39553e-12
-8.73317e-13
5.99365e-08
-5.32512e-12
-2.06729e-12
5.99376e-08
-3.42016e-12
5.9939e-08
-4.47947e-12
5.99353e-08
3.43045e-12
-5.58666e-12
5.99364e-08
-6.67264e-12
5.99379e-08
5.99398e-08
-2.1015e-12
8.20872e-13
1.86585e-12
-1.30187e-12
-2.39154e-12
3.76711e-13
-1.00074e-12
-2.69711e-12
-1.44181e-13
-5.73273e-13
-7.91576e-13
-4.08514e-14
-2.46099e-12
-2.75253e-14
2.07031e-12
-2.90803e-12
-5.41641e-13
-3.33782e-12
-1.1521e-12
-1.8638e-12
-2.94074e-12
-1.06526e-12
2.38569e-12
-3.50723e-12
-1.64513e-12
-4.04385e-12
-2.31539e-12
-3.04032e-12
-3.50739e-12
2.79044e-12
-4.17182e-12
-4.76439e-12
2.1362e-09
1.06418e-09
5.33413e-08
1.15938e-09
2.0427e-09
5.13877e-09
4.64461e-08
-7.59708e-10
-2.18509e-09
-2.28952e-09
5.20862e-08
-2.14578e-09
-7.08186e-09
4.87142e-08
-2.34678e-09
9.17085e-09
-5.06056e-09
6.9098e-08
-1.29609e-08
-9.76581e-09
1.00757e-07
-7.4252e-09
-5.6514e-09
5.4557e-08
-1.04405e-09
2.98502e-08
-5.13925e-09
1.80977e-09
8.05994e-08
-1.06842e-11
-2.35033e-09
6.20463e-08
-6.6806e-09
-7.96859e-09
7.48678e-08
6.62383e-09
3.54662e-08
-1.6658e-08
1.11503e-07
-3.01528e-09
5.19852e-08
1.12281e-08
3.29584e-08
8.15287e-08
-9.40638e-09
-3.29859e-09
6.57078e-08
-7.82866e-10
-4.03747e-09
1.14469e-09
3.96113e-08
3.21217e-10
1.63129e-09
6.25882e-10
4.21961e-08
3.59547e-09
1.08178e-09
4.64938e-08
3.44333e-09
2.1023e-09
-4.50001e-09
6.64725e-08
-3.20544e-09
-7.16795e-09
1.14377e-07
-5.86831e-11
-8.82721e-09
6.08633e-08
-4.66875e-09
4.02992e-08
-8.9106e-10
-4.93087e-09
8.24836e-08
-8.50901e-09
-1.71676e-09
6.42131e-08
1.41346e-09
3.61314e-09
5.2505e-08
-8.12826e-11
3.32042e-08
1.44817e-08
8.82183e-08
4.00114e-09
6.06868e-08
-8.51056e-09
5.285e-08
7.66176e-08
4.70049e-09
-1.14016e-09
6.08864e-08
3.75508e-09
8.60644e-10
-5.69861e-09
4.69773e-08
2.17243e-09
-4.28512e-09
-1.48569e-09
4.80562e-08
7.71286e-10
5.5424e-09
2.38271e-08
3.05027e-09
-8.16751e-09
-1.49878e-09
7.54745e-08
1.40938e-08
6.77794e-09
7.96392e-08
6.71628e-09
3.48135e-09
6.32738e-08
6.7833e-10
5.57381e-08
1.16961e-08
-1.19619e-10
7.42028e-08
7.33475e-09
1.59799e-09
7.37544e-08
3.98963e-10
-2.4374e-09
6.53596e-08
-3.31606e-09
3.87618e-08
1.97174e-08
6.0163e-08
6.06522e-09
6.90559e-08
-8.4754e-09
7.6953e-08
5.80341e-08
8.68124e-09
-3.22761e-09
5.8439e-08
2.01503e-09
9.64722e-09
-4.83352e-09
5.07013e-08
1.43495e-10
-3.21415e-10
-1.0088e-08
7.0469e-08
-2.35616e-09
-2.37189e-09
2.74664e-08
-1.46569e-09
5.30139e-09
2.65036e-09
6.50993e-08
8.77904e-11
-2.85505e-09
8.28744e-08
8.68605e-09
-1.92154e-10
4.47796e-08
-2.46543e-09
6.05491e-08
-1.82828e-09
4.47701e-09
7.42435e-08
5.72411e-09
-1.31776e-09
6.46647e-08
3.57031e-09
-2.64424e-09
6.99654e-08
-2.55268e-09
4.01425e-08
-4.23756e-09
7.89912e-08
3.2338e-09
6.05963e-08
1.89616e-09
7.61388e-08
4.79077e-08
-1.54068e-08
-1.0353e-08
9.23575e-08
-6.79213e-09
3.66194e-09
-1.02636e-08
4.51047e-08
-3.20849e-09
1.78505e-08
-7.614e-09
6.35696e-08
3.24685e-10
-7.21145e-09
5.60005e-08
-1.80312e-09
5.34095e-09
8.85159e-10
4.92419e-08
6.89632e-09
2.90601e-10
7.07649e-08
1.0009e-08
1.54824e-09
3.25047e-08
3.96897e-10
5.16515e-08
5.5211e-09
3.79148e-09
6.77714e-08
6.55714e-09
1.62598e-09
6.22933e-08
4.73435e-09
-1.31646e-09
7.46529e-08
-1.8609e-09
4.4623e-08
2.67948e-09
9.06586e-08
2.07933e-09
7.58207e-08
7.38135e-09
7.3855e-08
5.70948e-08
2.15372e-08
-7.28731e-09
7.12692e-08
1.12395e-08
1.32349e-08
-6.57392e-09
5.60591e-08
3.92205e-09
6.69504e-09
-3.57154e-09
7.29188e-08
7.62219e-10
-8.35333e-09
5.21355e-08
4.69741e-09
2.92943e-10
-2.43782e-09
4.5816e-08
1.2967e-08
-1.89839e-10
5.17068e-08
2.08268e-09
-6.04609e-09
4.58637e-08
-1.26142e-09
4.34611e-08
9.73269e-09
2.03074e-09
5.68637e-08
5.58009e-09
-3.39555e-09
6.96517e-08
9.64691e-09
-9.22477e-11
6.46322e-08
-6.21535e-10
4.68217e-08
-9.04168e-10
1.03396e-07
9.52388e-09
6.02413e-08
6.84969e-09
7.30926e-08
5.44574e-08
-1.12715e-09
-4.06762e-09
5.95306e-08
6.50485e-09
-8.3267e-09
-2.90528e-09
6.08449e-08
5.31854e-09
-3.76478e-10
1.02892e-09
5.92365e-08
4.70314e-09
2.49006e-09
4.69404e-08
3.18582e-09
-1.87389e-09
4.33815e-09
3.81695e-08
-4.55075e-10
-1.59543e-09
4.89782e-08
-7.95721e-10
-2.52809e-09
4.97613e-08
6.59506e-10
4.46697e-08
-1.48859e-09
-1.7151e-09
6.73429e-08
2.72614e-09
-7.56616e-10
6.45983e-08
1.3988e-09
-6.34232e-10
6.40659e-08
-3.38604e-10
5.27467e-08
8.96727e-09
8.77178e-08
-3.94526e-09
7.69167e-08
-1.46912e-09
7.32616e-08
5.35993e-08
-1.28192e-08
-1.10282e-08
7.84506e-08
4.92688e-09
-1.40076e-08
-1.42137e-08
7.10574e-08
5.19095e-09
-1.02219e-08
-1.27808e-08
6.27812e-08
5.44821e-09
-1.07582e-08
5.22188e-08
4.90493e-09
-3.03155e-09
-6.94346e-09
3.48677e-08
-4.92041e-09
-1.45706e-08
5.12267e-08
-5.96095e-09
-1.20709e-08
5.00942e-08
-8.60231e-09
4.82236e-08
-3.86521e-09
-4.47356e-09
6.90796e-08
-1.47959e-09
-1.94384e-08
6.70798e-08
-4.62602e-09
-8.4022e-09
6.35429e-08
-3.66029e-09
5.36211e-08
-2.70856e-08
1.14004e-07
1.69397e-09
1.29628e-08
-1.56711e-09
6.13611e-08
5.38474e-08
-2.88412e-09
1.50017e-08
7.06254e-08
-4.28981e-09
-3.8272e-09
1.39918e-08
6.19259e-08
-3.91394e-09
-3.43548e-09
1.26032e-08
5.32544e-08
-3.46669e-09
1.12018e-08
4.33807e-08
-3.36791e-09
-1.15886e-08
3.51233e-09
5.79454e-08
-1.09411e-08
6.45973e-09
5.81114e-08
-7.99111e-09
5.53247e-09
5.4216e-08
6.44297e-09
4.89923e-08
-2.73702e-09
1.19193e-09
7.41376e-08
-6.06111e-09
8.47247e-09
6.83909e-08
-3.16292e-09
3.30726e-09
6.28692e-08
3.79691e-09
5.52708e-08
1.44222e-08
9.22588e-08
-1.69032e-08
6.18677e-08
-9.77716e-09
6.42735e-08
5.75033e-08
-2.34572e-10
8.66113e-09
6.54189e-08
-3.2198e-09
-6.72435e-10
8.47537e-09
5.69886e-08
-3.09974e-09
-6.59259e-10
7.79173e-09
4.83491e-08
-2.8985e-09
6.89875e-09
3.94401e-08
-2.80736e-09
-4.17852e-09
3.07144e-09
6.77146e-08
-4.51213e-09
4.4144e-09
6.25059e-08
-3.19475e-09
4.36251e-09
5.63283e-08
4.59183e-09
4.92705e-08
-1.50938e-09
1.67007e-10
7.8552e-08
-2.31042e-09
2.26062e-09
7.13456e-08
-1.08764e-09
1.63337e-09
6.43751e-08
2.18798e-09
5.67009e-08
3.51789e-09
8.73129e-08
-3.40075e-09
7.40134e-08
-2.48675e-09
6.7842e-08
6.01926e-08
3.5176e-10
4.66792e-09
6.23427e-08
-1.94294e-09
4.62618e-10
4.61104e-09
5.42072e-08
-1.9402e-09
5.00667e-10
4.25422e-09
4.59316e-08
-1.87423e-09
3.76135e-09
3.76293e-08
-1.79433e-09
-1.27811e-09
2.41558e-09
7.12456e-08
-1.31981e-09
2.8847e-09
6.42742e-08
-6.25512e-10
2.91316e-09
5.69751e-08
2.84163e-09
4.92589e-08
-4.86113e-10
5.27239e-10
8.09265e-08
-5.85253e-10
1.19678e-09
7.31329e-08
9.11294e-11
1.193e-09
6.54186e-08
1.34569e-09
5.73906e-08
7.72605e-10
8.69597e-08
-5.57355e-10
7.745e-08
-1.45746e-10
6.96434e-08
6.14594e-08
4.20187e-10
2.44989e-09
6.05876e-08
-1.11464e-09
6.23496e-10
2.43344e-09
5.27076e-08
-1.13676e-09
6.45695e-10
2.26786e-09
4.47613e-08
-1.11949e-09
2.04156e-09
3.6818e-08
-1.06663e-09
-2.91226e-10
1.6015e-09
7.23852e-08
-1.77821e-10
1.77271e-09
6.48218e-08
1.732e-10
1.77644e-09
5.71155e-08
1.66912e-09
4.92204e-08
-5.49995e-11
5.99017e-10
8.1984e-08
5.90911e-11
8.24089e-10
7.39675e-08
4.64079e-10
8.46138e-10
6.59437e-08
8.37273e-10
5.77622e-08
2.38944e-10
8.73187e-08
8.53684e-11
7.8693e-08
4.13608e-10
7.04755e-08
6.21119e-08
3.1035e-10
1.29183e-09
5.9621e-08
-6.35356e-10
4.68397e-10
1.29235e-09
5.19087e-08
-6.51118e-10
4.86883e-10
1.22416e-09
4.41629e-08
-6.44166e-10
1.122e-09
3.64223e-08
-6.12279e-10
1.61597e-12
9.92547e-10
7.2683e-08
1.28955e-10
1.0602e-09
6.49269e-08
3.12103e-10
1.05746e-09
5.70992e-08
9.89263e-10
4.91929e-08
4.99577e-11
4.79262e-10
8.24474e-08
1.79629e-10
5.60215e-10
7.43378e-08
4.12603e-10
5.74256e-10
6.61939e-08
5.42249e-10
5.79747e-08
1.10121e-10
8.76527e-08
1.64842e-10
7.92294e-08
3.95403e-10
7.08735e-08
6.24548e-08
1.9749e-10
6.87872e-10
5.90988e-08
-3.62925e-10
2.99776e-10
6.93981e-10
5.14849e-08
-3.72318e-10
3.1124e-10
6.67375e-10
4.38533e-08
-3.69164e-10
6.23037e-10
3.62253e-08
-3.50856e-10
6.26996e-11
5.93652e-10
7.27145e-08
1.56203e-10
6.23483e-10
6.49039e-08
2.46076e-10
6.20225e-10
5.70566e-08
5.81974e-10
4.91747e-08
5.87688e-11
3.35246e-10
8.2647e-08
1.58122e-10
3.66369e-10
7.44955e-08
2.83355e-10
3.71904e-10
6.6317e-08
3.47099e-10
5.81006e-08
6.08659e-11
8.78671e-08
1.40184e-10
7.94759e-08
2.71864e-10
7.10819e-08
6.26548e-08
1.16726e-10
3.71145e-10
5.88185e-08
-2.07699e-10
1.77098e-10
3.7764e-10
5.12601e-08
-2.13192e-10
1.82255e-10
3.68101e-10
4.3692e-08
-2.11866e-10
3.4938e-10
3.6126e-08
-2.01878e-10
5.70946e-11
3.47057e-10
7.26814e-08
1.15333e-10
3.6209e-10
6.48612e-08
1.58256e-10
3.602e-10
5.70216e-08
3.39773e-10
4.91664e-08
4.50925e-11
2.17364e-10
8.27316e-08
1.0708e-10
2.31014e-10
7.45647e-08
1.71667e-10
2.32095e-10
6.63806e-08
2.15861e-10
5.81774e-08
3.63448e-11
8.79949e-08
9.20893e-11
7.96023e-08
1.62695e-10
7.11992e-08
6.27781e-08
6.56588e-11
2.02919e-10
5.86689e-08
-1.19039e-10
9.90361e-11
2.0804e-10
5.1141e-08
-1.22309e-10
1.00165e-10
2.05133e-10
4.36078e-08
-1.21944e-10
1.97398e-10
3.60756e-08
-1.16762e-10
3.86008e-11
2.00289e-10
7.26454e-08
7.15679e-11
2.08606e-10
6.48277e-08
9.0941e-11
2.07881e-10
5.69995e-08
1.97128e-10
4.91642e-08
2.87431e-11
1.34522e-10
8.27688e-08
6.34887e-11
1.4126e-10
7.45975e-08
9.51077e-11
1.40927e-10
6.64162e-08
1.30679e-10
5.82254e-08
2.07888e-11
8.80693e-08
5.25702e-11
7.9673e-08
8.7981e-11
7.1269e-08
6.28557e-08
3.5417e-11
1.12339e-10
5.85896e-08
-6.84836e-11
5.27527e-11
1.15902e-10
5.10783e-08
-7.04825e-11
5.18086e-11
1.15367e-10
4.35641e-08
-7.05609e-11
1.12275e-10
3.60504e-08
-6.79688e-11
2.2636e-11
1.14847e-10
7.26203e-08
3.98523e-11
1.19633e-10
6.48069e-08
4.77795e-11
1.19481e-10
5.69877e-08
1.13756e-10
4.91652e-08
1.60375e-11
8.0741e-11
8.27871e-08
3.38547e-11
8.43124e-11
7.46154e-08
4.83757e-11
8.36501e-11
6.6438e-08
7.71686e-11
5.82559e-08
1.03976e-11
8.81139e-08
2.63328e-11
7.97155e-08
4.28653e-11
7.13125e-08
6.29049e-08
1.82968e-11
6.2914e-11
5.8548e-08
-3.96884e-11
2.66244e-11
6.52389e-11
5.10457e-08
-4.0926e-11
2.49445e-11
6.54231e-11
4.35417e-08
-4.11524e-11
6.41949e-11
3.6038e-08
-3.99294e-11
1.19795e-11
6.56122e-11
7.26058e-08
2.01049e-11
6.83955e-11
6.47956e-08
2.25264e-11
6.84042e-11
5.69825e-08
6.52711e-11
4.91676e-08
7.84924e-12
4.73131e-11
8.27978e-08
1.59162e-11
4.92796e-11
7.46267e-08
2.17244e-11
4.86018e-11
6.64523e-08
4.43474e-11
5.82755e-08
4.02467e-12
8.81417e-08
1.08374e-11
7.97423e-08
1.76779e-11
7.13404e-08
6.29362e-08
9.0011e-12
3.55988e-11
5.85266e-08
-2.32165e-11
1.24635e-11
3.70585e-11
5.1029e-08
-2.39853e-11
1.05884e-11
3.74141e-11
4.35305e-08
-2.42122e-11
3.68391e-11
3.6032e-08
-2.3709e-11
5.77653e-12
3.73309e-11
7.25983e-08
8.91956e-12
3.90052e-11
6.47903e-08
8.99744e-12
3.89558e-11
5.69806e-08
3.71205e-11
4.917e-08
2.99173e-12
2.71346e-11
8.28051e-08
6.02859e-12
2.81588e-11
7.46344e-08
7.8135e-12
2.75446e-11
6.64619e-08
2.47481e-11
5.82882e-08
5.42752e-13
8.81596e-08
2.59651e-12
7.97597e-08
4.84217e-12
7.13584e-08
6.29561e-08
4.18755e-12
2.02607e-11
5.85158e-08
-1.36941e-11
5.16456e-12
2.11802e-11
5.10207e-08
-1.41846e-11
3.51966e-12
2.14572e-11
4.3525e-08
-1.4394e-11
2.12108e-11
3.60294e-08
-1.41756e-11
2.3216e-12
2.11302e-11
7.2595e-08
3.08432e-12
2.20839e-11
6.47882e-08
2.22138e-12
2.20178e-11
5.69804e-08
2.0909e-11
4.91722e-08
5.53014e-13
1.51812e-11
8.28104e-08
1.07974e-12
1.56886e-11
7.46398e-08
1.11104e-12
1.51581e-11
6.64684e-08
1.33355e-11
5.82964e-08
-1.0578e-12
8.81715e-08
-1.24475e-12
7.97711e-08
-1.10196e-12
7.13701e-08
6.29687e-08
1.70091e-12
1.15222e-11
5.85105e-08
-8.08742e-12
1.57608e-12
1.20751e-11
5.10167e-08
-8.41987e-12
2.2975e-13
1.22586e-11
4.35225e-08
-8.5874e-12
1.21467e-11
3.60283e-08
-8.50369e-12
5.98856e-13
1.18224e-11
7.25938e-08
2.83669e-13
1.23468e-11
6.47876e-08
-7.73615e-13
1.22689e-11
5.69809e-08
1.15987e-11
4.9174e-08
-5.0651e-13
8.23035e-12
8.28142e-08
-1.05695e-12
8.47468e-12
7.46437e-08
-1.70971e-12
8.06411e-12
6.64728e-08
6.87454e-12
5.83016e-08
-1.56906e-12
8.81792e-08
-2.58965e-12
7.97785e-08
-3.2499e-12
7.13775e-08
6.29765e-08
5.05786e-13
6.43156e-12
5.85081e-08
-4.7061e-12
-6.14658e-15
6.74986e-12
5.10149e-08
-4.92544e-12
-1.01984e-12
6.85539e-12
4.35215e-08
-5.04396e-12
6.79427e-12
3.6028e-08
-5.01626e-12
-1.50724e-13
6.42497e-12
7.25937e-08
-8.09325e-13
6.70125e-12
6.47877e-08
-1.74391e-12
6.61946e-12
5.69816e-08
6.20875e-12
4.91753e-08
-8.39543e-13
4.24636e-12
8.28169e-08
-1.67954e-12
4.34576e-12
7.46463e-08
-2.45315e-12
4.0402e-12
6.64756e-08
3.27188e-12
5.83048e-08
-1.51753e-12
8.81842e-08
-2.65926e-12
7.97831e-08
-3.48333e-12
7.13821e-08
6.29811e-08
-5.91068e-14
3.36407e-12
5.85073e-08
-2.58624e-12
-6.04524e-13
3.52109e-12
5.10143e-08
-2.7154e-12
-1.29747e-12
3.56008e-12
4.35212e-08
-2.78328e-12
3.50424e-12
3.60281e-08
-2.76927e-12
-4.44828e-13
3.207e-12
7.25941e-08
-1.09245e-12
3.32048e-12
6.47882e-08
-1.7957e-12
3.23257e-12
5.69822e-08
2.96768e-12
4.91761e-08
-8.59376e-13
1.89502e-12
8.28188e-08
-1.63697e-12
1.90518e-12
7.46481e-08
-2.28987e-12
1.67507e-12
6.64774e-08
1.18971e-12
5.83067e-08
-1.26561e-12
8.81872e-08
-2.23582e-12
7.9786e-08
-2.94361e-12
7.13848e-08
6.29838e-08
-4.28148e-13
1.50335e-12
-1.25604e-12
-9.32136e-13
1.54565e-12
-1.3162e-12
-1.39603e-12
1.51995e-12
-1.34212e-12
1.43756e-12
-1.32961e-12
-6.55241e-13
1.24303e-12
-1.24197e-12
1.23417e-12
-1.73873e-12
1.11656e-12
9.05885e-13
-8.97838e-13
3.77002e-13
-1.58132e-12
3.12589e-13
-2.09242e-12
1.07675e-13
-2.26546e-13
-1.11891e-12
-1.9275e-12
-2.50032e-12
-4.82012e-09
-6.65866e-09
7.02461e-08
2.57439e-09
1.01419e-09
6.35895e-08
2.46636e-09
2.12517e-10
8.20376e-08
-1.19875e-08
1.12637e-07
-1.69009e-09
-1.19958e-09
4.55164e-08
3.0858e-09
-7.28698e-09
6.8587e-08
1.14846e-09
-2.07718e-09
7.82587e-08
-1.05077e-08
9.2933e-08
-3.81004e-09
-3.13042e-09
4.6914e-08
4.17635e-09
-6.5378e-11
4.15731e-08
-1.62685e-09
6.03982e-10
6.91141e-08
-3.17537e-09
6.38049e-08
-2.93567e-09
3.35085e-08
7.5931e-09
3.12761e-08
-8.70367e-09
8.22729e-08
4.32017e-08
-2.76095e-09
-2.62053e-09
7.45437e-08
1.45776e-09
-1.85642e-09
6.20255e-08
6.07477e-10
-2.84032e-09
8.58597e-08
-1.03417e-08
1.22912e-07
-4.92501e-09
-3.63212e-09
5.17743e-08
-6.09163e-10
1.18691e-09
6.12278e-08
-9.1516e-10
-7.32219e-09
8.30466e-08
6.3673e-09
6.89201e-08
-1.17187e-09
-7.24894e-09
5.52981e-08
-3.35556e-09
-5.76744e-09
5.07111e-08
1.11766e-09
-5.85793e-09
6.31767e-08
2.22813e-09
7.06424e-08
-6.89678e-10
3.68483e-08
-1.5607e-09
2.93189e-08
3.3776e-09
7.23297e-08
5.74105e-08
7.44048e-10
-1.9546e-09
7.90202e-08
-6.19474e-09
-1.70121e-10
6.92322e-08
-2.31703e-09
1.50225e-09
7.98593e-08
1.20496e-08
9.85411e-08
-1.21343e-09
-6.49709e-09
5.97026e-08
-8.03245e-09
-1.33537e-09
6.92121e-08
4.9687e-10
-2.42317e-09
7.84427e-08
4.32921e-09
6.86221e-08
2.1171e-10
-9.55922e-10
5.03165e-08
-6.3021e-09
4.10695e-09
5.17826e-08
4.19405e-09
7.65906e-09
4.25983e-08
4.41173e-09
7.0215e-08
-3.99677e-10
3.44484e-08
-5.99956e-09
3.65486e-08
2.54503e-09
6.21229e-08
6.60782e-08
-2.60166e-10
3.17543e-09
7.8302e-08
2.87897e-09
6.89795e-09
6.34905e-08
-3.94586e-09
3.43664e-09
8.40195e-08
2.32827e-10
9.70046e-08
-1.28138e-09
1.41803e-09
6.28849e-08
1.90377e-09
6.34557e-09
6.65793e-08
-6.18442e-09
3.31421e-09
8.66534e-08
5.06623e-09
6.01687e-08
5.10959e-10
1.61312e-09
4.72543e-08
8.2077e-10
2.01987e-09
5.57985e-08
-3.43825e-09
1.17152e-10
5.00544e-08
3.32022e-09
6.10769e-08
6.2758e-10
2.89189e-08
-1.00421e-09
4.02416e-08
-2.03691e-09
5.87263e-08
5.43544e-08
4.03442e-10
2.78853e-09
6.93425e-08
1.37163e-09
3.82626e-09
6.01747e-08
-2.24531e-09
9.22276e-09
8.04373e-08
5.27239e-10
9.83667e-08
2.3625e-09
1.93488e-08
4.07537e-08
5.38178e-09
1.01458e-08
5.72404e-08
-4.78977e-09
3.42867e-09
1.02619e-07
7.26467e-10
5.25377e-08
1.11828e-09
2.57133e-09
6.32382e-08
9.31819e-10
3.55536e-09
6.25754e-08
-3.13464e-09
2.25277e-09
5.52967e-08
2.32307e-09
5.07932e-08
2.3797e-09
2.48246e-08
1.06831e-09
4.94072e-08
-3.75346e-09
6.75868e-08
4.15914e-08
4.46166e-09
2.89044e-09
7.35679e-08
-3.78772e-09
4.9316e-09
6.23634e-08
-2.25293e-09
9.70484e-09
7.24124e-08
9.1563e-09
8.58724e-08
7.48131e-09
2.08652e-09
3.79984e-08