/*--------------------------------*- C++ -*----------------------------------*\
| =========                 |                                                 |
| \\      /  F ield         | OpenFOAM: The Open Source CFD Toolbox           |
|  \\    /   O peration     | Version:  2506                                  |
|   \\  /    A nd           | Website:  www.openfoam.com                      |
|    \\/     M anipulation  |                                                 |
\*---------------------------------------------------------------------------*/
FoamFile
{
    version     2.0;
    format      ascii;
    arch        "LSB;label=32;scalar=64";
    class       volScalarField;
    location    "0.1";
    object      voidfraction;
}
// * * * * * * * * * * * * * * * * * * * * * * * * * * * * * * * * * * * * * //

dimensions      [0 0 0 0 0 0 0];

internalField   nonuniform List<scalar> 
1152
(
0.499664
0.507564
0.478597
0.452263
0.470697
0.531264
0.525997
0.468063
0.50493
0.454897
0.420663
0.452263
0.468063
0.589197
0.48123
0.539164
0.444363
0.515464
0.439097
0.518097
0.50493
0.475963
0.502297
0.48123
0.494397
0.51283
0.454897
0.45753
0.499664
0.518097
0.502297
0.50493
0.423296
0.42593
0.39433
0.41013
0.389063
0.45753
0.431196
0.360096
0.43383
0.44963
0.383796
0.428563
0.44963
0.346929
0.349563
0.45753
0.439097
0.45753
0.389063
0.428563
0.407496
0.39433
0.40223
0.354829
0.407496
0.399596
0.389063
0.378529
0.468063
0.346929
0.354829
0.331129
0.44173
0.415396
0.407496
0.404863
0.404863
0.389063
0.475963
0.510197
0.378529
0.412763
0.325862
0.381163
0.362729
0.360096
0.304796
0.357463
0.42593
0.391696
0.375896
0.494397
0.486497
0.391696
0.39433
0.375896
0.462797
0.375896
0.420663
0.462797
0.331129
0.462797
0.42593
0.470697
0.702431
0.662931
0.623431
0.562864
0.531264
0.655031
0.454897
0.491764
0.618164
0.562864
0.486497
0.46543
0.660298
0.597097
0.581297
0.541797
1
1
1
1
1
1
0.997367
0.997367
1
1
0.9921
0.997367
1
1
0.994733
0.9921
1
1
1
1
1
1
1
1
1
1
1
1
1
1
1
1
1
1
1
1
1
1
1
1
1
1
1
1
1
1
1
1
1
1
1
1
1
1
1
1
1
1
1
1
1
1
1
1
1
1
1
1
1
1
1
1
1
1
1
1
1
1
1
1
1
1
1
1
1
1
1
1
1
1
1
1
1
1
1
1
1
1
1
1
1
1
1
1
1
1
1
1
1
1
1
1
1
1
1
1
1
1
1
1
1
1
1
1
1
1
1
1
1
1
1
1
1
1
1
1
1
1
1
1
1
1
1
1
1
1
1
1
1
1
1
1
1
1
1
1
1
1
1
1
1
1
1
1
1
1
1
1
1
1
1
1
1
1
1
1
1
1
1
1
1
1
1
1
1
1
1
1
1
1
1
1
1
1
1
1
1
1
1
1
1
1
1
1
1
1
1
1
1
1
1
1
1
1
1
1
1
1
1
1
1
1
1
1
1
1
1
1
1
1
1
1
1
1
1
1
1
1
1
1
1
1
1
1
1
1
1
1
1
1
1
1
1
1
1
1
1
1
1
1
1
1
1
1
1
1
1
1
1
1
1
1
0.425368
0.508045
0.532149
0.491801
0.493412
0.420195
0.459872
0.419068
0.454966
0.471422
0.539408
0.445086
0.522158
0.45206
0.420735
0.498828
0.509
0.452352
0.492255
0.548755
0.493412
0.576109
0.49588
0.431906
0.50642
0.462965
0.444441
0.41531
0.527527
0.418432
0.367672
0.528898
0.449648
0.409035
0.394332
0.391038
0.408618
0.427503
0.448792
0.447954
0.418757
0.433365
0.404079
0.363879
0.371826
0.450082
0.469375
0.446204
0.395692
0.405941
0.4306
0.281512
0.449928
0.446992
0.423863
0.415858
0.405417
0.41645
0.446815
0.382827
0.377195
0.349198
0.394203
0.366017
0.42267
0.427599
0.499508
0.417324
0.373831
0.456737
0.318608
0.435116
0.430192
0.38685
0.377963
0.325983
0.446992
0.406563
0.425157
0.373534
0.552164
0.393565
0.354438
0.483039
0.399921
0.400705
0.357386
0.383763
0.393983
0.420679
0.46106
0.420724
0.430885
0.436235
0.394203
0.411122
0.584538
0.569926
0.669965
0.662661
0.489063
0.515205
0.545738
0.566708
0.508326
0.547538
0.520415
0.531707
0.602694
0.481732
0.542336
0.53391
1
1
1
1
0.995652
1
1
1
0.998094
1
1
1
1
0.992088
0.986734
1
1
1
1
1
1
1
1
1
1
1
1
1
1
1
1
1
1
1
1
1
1
1
1
1
1
1
1
1
1
1
1
1
1
1
1
1
1
1
1
1
1
1
1
1
1
1
1
1
1
1
1
1
1
1
1
1
1
1
1
1
1
1
1
1
1
1
1
1
1
1
1
1
1
1
1
1
1
1
1
1
1
1
1
1
1
1
1
1
1
1
1
1
1
1
1
1
1
1
1
1
1
1
1
1
1
1
1
1
1
1
1
1
1
1
1
1
1
1
1
1
1
1
1
1
1
1
1
1
1
1
1
1
1
1
1
1
1
1
1
1
1
1
1
1
1
1
1
1
1
1
1
1
1
1
1
1
1
1
1
1
1
1
1
1
1
1
1
1
1
1
1
1
1
1
1
1
1
1
1
1
1
1
1
1
1
1
1
1
1
1
1
1
1
1
1
1
1
1
1
1
1
1
1
1
1
1
1
1
1
1
1
1
1
1
1
1
1
1
1
1
1
1
1
1
1
1
1
1
1
1
1
1
1
1
1
1
1
1
1
1
1
1
1
1
1
1
1
1
1
1
1
1
1
1
1
1
0.495511
0.491238
0.422569
0.438044
0.430693
0.50546
0.454508
0.539097
0.463241
0.412784
0.468182
0.411891
0.461134
0.447954
0.520879
0.363511
0.517093
0.456451
0.51976
0.5669
0.495669
0.488407
0.517937
0.485688
0.506762
0.465412
0.515666
0.500328
0.491801
0.435116
0.537121
0.463745
0.428065
0.436883
0.405417
0.454151
0.337872
0.408014
0.431251
0.414476
0.466867
0.423863
0.368467
0.391992
0.426086
0.354876
0.41531
0.428663
0.482022
0.410792
0.407323
0.378985
0.477104
0.454301
0.405879
0.398651
0.379825
0.379545
0.344725
0.431789
0.395419
0.40302
0.41531
0.426158
0.430763
0.412967
0.432097
0.46131
0.405941
0.381216
0.460851
0.368979
0.455987
0.426633
0.408828
0.312399
0.391038
0.367715
0.393655
0.355993
0.436159
0.380354
0.403512
0.398671
0.378095
0.405578
0.452394
0.339307
0.463241
0.410014
0.373215
0.38536
0.338465
0.441535
0.447793
0.335946
0.646588
0.665174
0.601706
0.606273
0.548268
0.722278
0.674396
0.699325
0.590177
0.678693
0.634375
0.641828
0.596946
0.679043
0.656224
0.664214
1
1
1
1
1
1
1
1
1
1
1
1
1
1
1
1
1
1
1
1
1
1
1
1
1
1
1
1
1
1
1
1
1
1
1
1
1
1
1
1
1
1
1
1
1
1
1
1
1
1
1
1
1
1
1
1
1
1
1
1
1
1
1
1
1
1
1
1
1
1
1
1
1
1
1
1
1
1
1
1
1
1
1
1
1
1
1
1
1
1
1
1
1
1
1
1
1
1
1
1
1
1
1
1
1
1
1
1
1
1
1
1
1
1
1
1
1
1
1
1
1
1
1
1
1
1
1
1
1
1
1
1
1
1
1
1
1
1
1
1
1
1
1
1
1
1
1
1
1
1
1
1
1
1
1
1
1
1
1
1
1
1
1
1
1
1
1
1
1
1
1
1
1
1
1
1
1
1
1
1
1
1
1
1
1
1
1
1
1
1
1
1
1
1
1
1
1
1
1
1
1
1
1
1
1
1
1
1
1
1
1
1
1
1
1
1
1
1
1
1
1
1
1
1
1
1
1
1
1
1
1
1
1
1
1
1
1
1
1
1
1
1
1
1
1
1
1
1
1
1
1
1
1
1
1
1
1
1
1
1
1
1
1
1
1
1
1
1
1
1
1
1
)
;

boundaryField
{
    inlet
    {
        type            fixedValue;
        value           uniform 1;
    }
    outlet
    {
        type            fixedValue;
        value           uniform 1;
    }
    wall
    {
        type            zeroGradient;
    }
    procBoundary0to1
    {
        type            processor;
        value           nonuniform List<scalar> 
192
(
0.51283
0.541797
0.48123
0.49703
0.38643
0.49703
0.47333
0.486497
0.415396
0.43383
0.360096
0.415396
0.331129
0.423296
0.39433
0.40223
0.428563
0.323229
0.40223
0.407496
0.373263
0.381163
0.389063
0.325862
0.583931
0.48123
0.483863
0.354829
1
0.9684
0.997367
0.9921
1
1
1
1
1
1
1
1
1
1
1
1
1
1
1
1
1
1
1
1
1
1
1
1
1
1
1
1
1
1
1
1
1
1
1
1
1
1
1
1
1
1
1
1
1
1
1
1
1
1
1
1
1
1
1
1
1
1
1
1
1
1
1
1
0.463099
0.402607
0.484852
0.496322
0.45952
0.436235
0.469375
0.516369
0.398671
0.487666
0.414102
0.340958
0.423727
0.396673
0.436211
0.398593
0.420147
0.418432
0.48043
0.358499
0.416568
0.446126
0.411891
0.458734
0.609852
0.594485
0.619719
0.624121
1
1
1
1
1
1
1
1
1
1
1
1
1
1
1
1
1
1
1
1
1
1
1
1
1
1
1
1
1
1
1
1
1
1
1
1
1
1
1
1
1
1
1
1
1
1
1
1
1
1
1
1
1
1
1
1
1
1
1
1
1
1
1
1
1
1
1
1
)
;
    }
    procBoundary0to2
    {
        type            processor;
        value           nonuniform List<scalar> 
192
(
0.50493
0.412763
0.357463
0.46543
0.491764
0.502297
0.49703
0.549697
0.281096
0.44173
0.412763
0.381163
0.399596
0.420663
0.468063
0.454897
0.367996
0.415396
0.454897
0.40223
0.460163
0.325862
0.40223
0.389063
0.570764
0.610264
0.533897
0.502297
1
1
1
1
1
1
1
1
1
1
1
1
1
1
1
1
1
1
1
1
1
1
1
1
1
1
1
1
1
1
1
1
1
1
1
1
1
1
1
1
1
1
1
1
1
1
1
1
1
1
1
1
1
1
1
1
1
1
1
1
1
1
1
1
1
1
1
1
0.479206
0.531185
0.498117
0.438687
0.40762
0.507447
0.577711
0.438687
0.500682
0.398651
0.396414
0.403605
0.40404
0.537119
0.440633
0.426158
0.411199
0.444148
0.396414
0.373534
0.425516
0.396673
0.407469
0.421146
0.479206
0.564813
0.593188
0.511357
0.994631
1
1
1
1
1
1
1
1
1
1
1
1
1
1
1
1
1
1
1
1
1
1
1
1
1
1
1
1
1
1
1
1
1
1
1
1
1
1
1
1
1
1
1
1
1
1
1
1
1
1
1
1
1
1
1
1
1
1
1
1
1
1
1
1
1
1
1
)
;
    }
}


// ************************************************************************* //
