/*--------------------------------*- C++ -*----------------------------------*\
| =========                 |                                                 |
| \\      /  F ield         | OpenFOAM: The Open Source CFD Toolbox           |
|  \\    /   O peration     | Version:  2506                                  |
|   \\  /    A nd           | Website:  www.openfoam.com                      |
|    \\/     M anipulation  |                                                 |
\*---------------------------------------------------------------------------*/
FoamFile
{
    version     2.0;
    format      ascii;
    arch        "LSB;label=32;scalar=64";
    class       volScalarField;
    location    "0.01";
    object      Ksl;
}
// * * * * * * * * * * * * * * * * * * * * * * * * * * * * * * * * * * * * * //

dimensions      [1 -3 -1 0 0 0 0];

internalField   nonuniform List<scalar> 
1152
(
58698.9
181862
104092
269186
51613.1
127506
129477
124835
300971
121777
107278
108601
173238
141975
149398
91287.6
101498
331565
150731
207706
298876
224964
331883
230762
1.57551e+06
123654
338808
238906
149136
370784
110788
2.26091e+06
465892
238852
549908
112585
617721
202563
202520
412015
193938
279419
261660
288415
222462
283911
349251
130021
487075
492225
161001
324044
194972
368015
353776
252721
320401
183624
269237
186951
161960
305606
159076
195377
9.04403e+06
98987.9
690029
267742
246479
370198
129978
219149
211385
192830
308240
138130
235390
341410
372308
144668
98146.3
215737
165189
188085
125471
192445
319597
251555
648853
442013
301392
179585
107860
706292
117084
169700
608826
70920.6
327246
49813.2
94059.5
48951.2
29692.3
21400.4
83358.8
90616.3
71182.1
33046.8
473523
42452.5
72506.9
133677
0
0
0
0
0
0
0
0
0
0
0
0
0
0
0
0
0
0
0
0
0
0
0
0
0
0
0
0
0
0
0
0
0
0
0
0
0
0
0
0
0
0
0
0
0
0
0
0
0
0
0
0
0
0
0
0
0
0
0
0
0
0
0
0
0
0
0
0
0
0
0
0
0
0
0
0
0
0
0
0
0
0
0
0
0
0
0
0
0
0
0
0
0
0
0
0
0
0
0
0
0
0
0
0
0
0
0
0
0
0
0
0
0
0
0
0
0
0
0
0
0
0
0
0
0
0
0
0
0
0
0
0
0
0
0
0
0
0
0
0
0
0
0
0
0
0
0
0
0
0
0
0
0
0
0
0
0
0
0
0
0
0
0
0
0
0
0
0
0
0
0
0
0
0
0
0
0
0
0
0
0
0
0
0
0
0
0
0
0
0
0
0
0
0
0
0
0
0
0
0
0
0
0
0
0
0
0
0
0
0
0
0
0
0
0
0
0
0
0
0
0
0
0
0
0
0
0
0
0
0
0
0
0
0
0
0
0
0
0
0
0
0
0
0
0
0
0
0
0
0
0
0
0
0
0
0
0
0
0
0
0
0
0
0
0
0
0
0
0
0
0
0
75351
151043
65581.9
180800
190094
232445
92278.7
112339
87427.7
122444
107334
87189.5
718449
199134
106245
104752
180620
310982
189125
151082
167326
218353
903500
374898
222506
152009
152017
145613
121107
154962
285515
130872
446388
202967
257062
3.44363e+06
986673
170475
255507
130223
256664
482772
132937
291693
370267
184523
302970
132249
404473
168995
383568
243243
250896
292966
252693
180409
152107
196106
228385
307403
223812
287037
282449
174750
223117
139492
256500
691928
138132
351395
217973
179313
2.03422e+06
128213
144056
317538
310555
255677
242787
166652
95355.9
309352
203390
484455
1.01218e+06
164850
318580
178718
130947
236620
268454
266029
196923
222371
166075
238245
257023
96191.6
78064.7
39059.4
54466.1
50065.3
34330.1
92802.9
49338.3
33987.2
34834.8
49568.2
38251.1
46820.5
47430.8
44779.3
0
223.741
0
0
0
0
0
0
0
0
0
0
0
0
0
0
0
0
0
0
0
0
0
0
0
0
0
0
0
0
0
0
0
0
0
0
0
0
0
0
0
0
0
0
0
0
0
0
0
0
0
0
0
0
0
0
0
0
0
0
0
0
0
0
0
0
0
0
0
0
0
0
0
0
0
0
0
0
0
0
0
0
0
0
0
0
0
0
0
0
0
0
0
0
0
0
0
0
0
0
0
0
0
0
0
0
0
0
0
0
0
0
0
0
0
0
0
0
0
0
0
0
0
0
0
0
0
0
0
0
0
0
0
0
0
0
0
0
0
0
0
0
0
0
0
0
0
0
0
0
0
0
0
0
0
0
0
0
0
0
0
0
0
0
0
0
0
0
0
0
0
0
0
0
0
0
0
0
0
0
0
0
0
0
0
0
0
0
0
0
0
0
0
0
0
0
0
0
0
0
0
0
0
0
0
0
0
0
0
0
0
0
0
0
0
0
0
0
0
0
0
0
0
0
0
0
0
0
0
0
0
0
0
0
0
0
0
0
0
0
0
0
0
0
0
0
0
0
0
0
0
0
0
0
0
0
0
0
0
0
0
0
0
0
0
0
0
0
0
0
0
0
82324.6
76443.5
177720
112608
153573
91119.3
158025
133774
311779
107069
91213.1
108728
65690.1
167548
88816.7
113687
265979
390861
137617
146721
310231
318846
157379
229030
211405
321916
449003
204703
268734
1.14871e+06
210551
152697
283235
496914
201947
206094
205558
146689
304568
263729
317942
169185
246676
186582
96841.7
377559
281789
225371
206691
177660
178511
131807
419959
206235
326858
167421
230856
156632
286666
137943
397942
521808
249845
264660
167897
539126
214170
325515
390175
203363
157212
427304
942532
158749
647628
188687
133602
153716
193901
244380
155846
157585
105213
180176
193238
225351
229191
134602
326856
130629
172595
166942
613078
1.77403e+06
270403
202086
107673
48467.7
62737
82745.3
40173.3
67848.1
13782.5
41023
51046
34555.2
103055
152438
33597.5
90023.4
55612.3
85541.7
0
0
0
0
0
0
0
0
0
0
0
0
1235.66
3626.68
0
0
0
0
0
0
0
0
0
0
0
0
0
0
0
0
0
0
0
0
0
0
0
0
0
0
0
0
0
0
0
0
0
0
0
0
0
0
0
0
0
0
0
0
0
0
0
0
0
0
0
0
0
0
0
0
0
0
0
0
0
0
0
0
0
0
0
0
0
0
0
0
0
0
0
0
0
0
0
0
0
0
0
0
0
0
0
0
0
0
0
0
0
0
0
0
0
0
0
0
0
0
0
0
0
0
0
0
0
0
0
0
0
0
0
0
0
0
0
0
0
0
0
0
0
0
0
0
0
0
0
0
0
0
0
0
0
0
0
0
0
0
0
0
0
0
0
0
0
0
0
0
0
0
0
0
0
0
0
0
0
0
0
0
0
0
0
0
0
0
0
0
0
0
0
0
0
0
0
0
0
0
0
0
0
0
0
0
0
0
0
0
0
0
0
0
0
0
0
0
0
0
0
0
0
0
0
0
0
0
0
0
0
0
0
0
0
0
0
0
0
0
0
0
0
0
0
0
0
0
0
0
0
0
0
0
0
0
0
0
0
0
0
0
0
0
0
0
0
0
0
0
0
0
0
0
0
0
)
;

boundaryField
{
    inlet
    {
        type            zeroGradient;
    }
    outlet
    {
        type            zeroGradient;
    }
    wall
    {
        type            zeroGradient;
    }
    procBoundary3to1
    {
        type            processor;
        value           nonuniform List<scalar> 
192
(
254712
86073.1
65310.5
74781.3
325357
444683
5.24658e+06
187431
147720
192567
126798
1.70766e+06
2.56511e+06
186823
251350
669572
129350
9.09896e+06
91361.3
184879
3.53508e+06
199601
346674
158796
177094
28163.9
11797.2
36810.2
175.908
123.873
0
0
0
0
0
0
0
0
0
0
0
0
0
0
0
0
0
0
0
0
0
0
0
0
0
0
0
0
0
0
0
0
0
0
0
0
0
0
0
0
0
0
0
0
0
0
0
0
0
0
0
0
0
0
0
0
0
0
0
0
0
0
0
0
0
0
260877
96131
83641.1
110230
234261
1.00282e+06
277437
562589
184424
170190
318574
117669
167587
327491
461973
2.61538e+06
259648
189066
189119
110156
320178
278938
450352
485288
46066.7
29731.8
15556.9
18644.2
0
0
0
0
0
0
0
0
0
0
0
0
0
0
0
0
0
0
0
0
0
0
0
0
0
0
0
0
0
0
0
0
0
0
0
0
0
0
0
0
0
0
0
0
0
0
0
0
0
0
0
0
0
0
0
0
0
0
0
0
0
0
0
0
0
0
0
0
)
;
    }
    procBoundary3to2
    {
        type            processor;
        value           nonuniform List<scalar> 
192
(
165869
516045
65152.8
90877.2
4.38804e+07
216030
148200
393486
100068
177537
366634
399315
427641
229084
178110
1.15845e+06
127458
375484
154776
702138
1.69851e+06
201605
186941
1.40194e+06
65575.6
91123.6
75469.9
84270.1
0
0
0
0
0
0
0
0
0
0
0
0
0
0
0
0
0
0
0
0
0
0
0
0
0
0
0
0
0
0
0
0
0
0
0
0
0
0
0
0
0
0
0
0
0
0
0
0
0
0
0
0
0
0
0
0
0
0
0
0
0
0
0
0
0
0
0
0
134639
104065
111433
111104
661664
627514
222891
278369
111627
122107
333176
256995
161356
271704
301386
164611
248826
358678
178664
228249
379965
112863
3.8787e+06
98933.2
42648
42588.9
32837.6
19567.2
0
0
0
0
0
0
0
0
0
0
0
0
0
0
0
0
0
0
0
0
0
0
0
0
0
0
0
0
0
0
0
0
0
0
0
0
0
0
0
0
0
0
0
0
0
0
0
0
0
0
0
0
0
0
0
0
0
0
0
0
0
0
0
0
0
0
0
0
)
;
    }
}


// ************************************************************************* //
