/*--------------------------------*- C++ -*----------------------------------*\
| =========                 |                                                 |
| \\      /  F ield         | OpenFOAM: The Open Source CFD Toolbox           |
|  \\    /   O peration     | Version:  2506                                  |
|   \\  /    A nd           | Website:  www.openfoam.com                      |
|    \\/     M anipulation  |                                                 |
\*---------------------------------------------------------------------------*/
FoamFile
{
    version     2.0;
    format      ascii;
    arch        "LSB;label=32;scalar=64";
    class       volScalarField;
    location    "0.01";
    object      p;
}
// * * * * * * * * * * * * * * * * * * * * * * * * * * * * * * * * * * * * * //

dimensions      [0 2 -2 0 0 0 0];

internalField   nonuniform List<scalar> 
1152
(
6.25432
6.31861
6.29448
6.32556
6.2735
6.30361
6.332
6.32653
6.33033
6.27885
6.30308
6.2942
6.28703
6.30528
6.24026
6.25232
5.67877
5.63429
5.60677
5.4892
5.80244
5.63031
5.6007
5.5994
5.56746
5.60018
5.61471
5.60893
5.58147
5.59102
5.57641
5.531
4.75089
4.5582
4.49582
4.49699
4.53118
4.57336
4.49451
4.47323
4.48874
4.57204
4.47696
4.39124
4.50963
4.49008
4.53991
4.40986
3.51161
3.13894
3.29709
3.45829
3.3868
3.39352
3.24747
3.29087
3.39074
3.37259
3.3421
3.27719
3.37514
3.37608
3.37692
3.37712
2.25088
2.21883
2.22113
2.16647
2.25223
2.22296
2.22762
2.2158
2.33716
2.3713
2.29044
2.28113
2.24277
2.33494
2.25849
2.31777
1.37795
1.3694
1.28119
1.1979
1.35482
1.25129
1.18576
1.10877
1.35747
1.32463
1.22268
1.22403
1.39021
1.19863
1.27653
1.35742
1.03173
1.00482
1.01401
1.01312
1.01004
1.01656
1.01251
1.01141
1.01203
1.00995
1.00558
1.01519
0.996819
0.991656
1.00532
1.02046
1.00472
1.00623
1.00686
1.00621
1.00517
1.00567
1.00626
1.00609
1.00522
1.00499
1.00552
1.00598
1.00527
1.005
1.00568
1.00744
1.009
1.00917
1.00833
1.00834
1.00866
1.00907
1.00851
1.00838
1.00844
1.0086
1.00827
1.00856
1.00773
1.00827
1.00818
1.00842
1.00644
1.00648
1.00636
1.00633
1.00646
1.00657
1.00646
1.0064
1.00643
1.00647
1.00641
1.00647
1.00627
1.00633
1.0063
1.00632
1.00595
1.00597
1.00591
1.00588
1.00598
1.00602
1.00598
1.00594
1.00598
1.00601
1.006
1.00599
1.00595
1.00599
1.00597
1.00595
1.00541
1.00542
1.0054
1.00538
1.00544
1.00545
1.00544
1.00541
1.00546
1.00547
1.00546
1.00544
1.00545
1.00547
1.00545
1.00543
1.00492
1.00493
1.00492
1.00491
1.00495
1.00495
1.00495
1.00494
1.00497
1.00497
1.00497
1.00496
1.00497
1.00498
1.00497
1.00496
1.00446
1.00447
1.00447
1.00446
1.00449
1.00449
1.00449
1.00448
1.0045
1.0045
1.0045
1.0045
1.00451
1.00451
1.00451
1.0045
1.00402
1.00403
1.00403
1.00402
1.00404
1.00404
1.00404
1.00404
1.00405
1.00405
1.00405
1.00405
1.00406
1.00406
1.00406
1.00406
1.00359
1.00359
1.00359
1.00359
1.0036
1.0036
1.00361
1.0036
1.00361
1.00361
1.00361
1.00361
1.00362
1.00362
1.00362
1.00362
1.00316
1.00317
1.00317
1.00317
1.00317
1.00317
1.00317
1.00317
1.00318
1.00318
1.00318
1.00318
1.00319
1.00319
1.00319
1.00319
1.00274
1.00274
1.00274
1.00274
1.00275
1.00275
1.00275
1.00275
1.00275
1.00275
1.00275
1.00275
1.00276
1.00276
1.00276
1.00276
1.00232
1.00232
1.00232
1.00232
1.00232
1.00232
1.00232
1.00232
1.00233
1.00233
1.00233
1.00233
1.00233
1.00233
1.00233
1.00233
1.00189
1.0019
1.0019
1.0019
1.0019
1.0019
1.0019
1.0019
1.0019
1.0019
1.0019
1.0019
1.0019
1.0019
1.0019
1.0019
1.00147
1.00147
1.00147
1.00147
1.00148
1.00148
1.00148
1.00148
1.00148
1.00148
1.00148
1.00148
1.00148
1.00148
1.00148
1.00148
1.00105
1.00105
1.00105
1.00105
1.00105
1.00105
1.00105
1.00105
1.00106
1.00106
1.00106
1.00106
1.00106
1.00106
1.00106
1.00106
1.00063
1.00063
1.00063
1.00063
1.00063
1.00063
1.00063
1.00063
1.00063
1.00063
1.00063
1.00063
1.00063
1.00063
1.00063
1.00063
1.00021
1.00021
1.00021
1.00021
1.00021
1.00021
1.00021
1.00021
1.00021
1.00021
1.00021
1.00021
1.00021
1.00021
1.00021
1.00021
6.25857
6.2888
6.21762
6.22635
6.27245
6.29555
6.22247
6.19561
6.22455
6.21857
6.17707
6.14308
6.25099
6.22371
6.17923
6.11963
5.62403
5.54007
5.62946
5.5383
5.56206
5.47854
5.59315
5.48833
5.59211
5.52343
5.50867
5.52142
5.5115
5.48027
5.56247
5.49201
4.54615
4.43895
4.5589
4.50701
4.52321
4.49552
4.492
4.50129
4.44235
4.55031
4.54695
4.58168
4.63633
4.62165
4.55387
4.58985
3.30363
3.31232
3.3702
3.42299
3.20942
3.36794
3.39111
3.4627
3.31029
3.25672
3.40345
3.47917
3.323
3.40991
3.39572
3.51505
2.15418
2.30113
2.25813
2.35297
2.21641
2.23236
2.2977
2.36059
2.19509
2.24483
2.28799
2.35613
2.14116
2.22013
2.23903
2.3857
1.37993
1.39874
1.25135
1.1899
1.26809
1.21916
1.16108
1.29958
1.15976
1.20176
1.18833
1.21569
1.11621
1.18582
1.18933
1.22123
1.00702
0.998596
0.999722
1.01316
1.00621
1.0065
1.00998
1.01411
1.00877
1.01175
1.0082
1.00789
1.00749
1.01033
1.00999
1.01212
1.00623
1.00603
1.0053
1.00605
1.00521
1.00587
1.00502
1.0051
1.00476
1.00442
1.00431
1.0041
1.00455
1.00425
1.00429
1.00409
1.00851
1.00996
1.00821
1.00822
1.0078
1.00856
1.00781
1.00789
1.00744
1.00793
1.00753
1.0077
1.00721
1.00768
1.00747
1.00781
1.00638
1.00647
1.00627
1.00624
1.00625
1.00639
1.00618
1.00608
1.00617
1.00625
1.00607
1.00596
1.00609
1.00616
1.00601
1.00593
1.00596
1.00601
1.00597
1.00596
1.00591
1.00598
1.00593
1.00591
1.00586
1.00592
1.00589
1.00588
1.00584
1.0059
1.00588
1.00589
1.00546
1.00547
1.00546
1.00543
1.00544
1.00546
1.00544
1.00541
1.00543
1.00544
1.00542
1.0054
1.00542
1.00544
1.00542
1.0054
1.00498
1.00498
1.00498
1.00496
1.00498
1.00498
1.00497
1.00496
1.00497
1.00498
1.00497
1.00495
1.00497
1.00498
1.00497
1.00495
1.00452
1.00452
1.00452
1.00451
1.00452
1.00452
1.00452
1.00451
1.00452
1.00452
1.00452
1.00451
1.00452
1.00452
1.00452
1.00451
1.00407
1.00407
1.00407
1.00406
1.00407
1.00407
1.00407
1.00406
1.00408
1.00408
1.00407
1.00407
1.00408
1.00408
1.00407
1.00407
1.00363
1.00363
1.00363
1.00362
1.00363
1.00363
1.00363
1.00363
1.00364
1.00364
1.00363
1.00363
1.00364
1.00364
1.00363
1.00363
1.00319
1.00319
1.00319
1.00319
1.0032
1.0032
1.0032
1.00319
1.0032
1.0032
1.0032
1.00319
1.0032
1.0032
1.0032
1.00319
1.00276
1.00276
1.00276
1.00276
1.00276
1.00276
1.00276
1.00276
1.00277
1.00277
1.00276
1.00276
1.00277
1.00277
1.00277
1.00276
1.00233
1.00233
1.00233
1.00233
1.00234
1.00234
1.00233
1.00233
1.00234
1.00234
1.00234
1.00233
1.00234
1.00234
1.00234
1.00233
1.00191
1.00191
1.00191
1.00191
1.00191
1.00191
1.00191
1.00191
1.00191
1.00191
1.00191
1.00191
1.00191
1.00191
1.00191
1.00191
1.00148
1.00148
1.00148
1.00148
1.00148
1.00148
1.00148
1.00148
1.00148
1.00148
1.00148
1.00148
1.00148
1.00148
1.00148
1.00148
1.00106
1.00106
1.00106
1.00106
1.00106
1.00106
1.00106
1.00106
1.00106
1.00106
1.00106
1.00106
1.00106
1.00106
1.00106
1.00106
1.00063
1.00063
1.00063
1.00063
1.00064
1.00064
1.00063
1.00063
1.00064
1.00064
1.00064
1.00063
1.00064
1.00064
1.00064
1.00063
1.00021
1.00021
1.00021
1.00021
1.00021
1.00021
1.00021
1.00021
1.00021
1.00021
1.00021
1.00021
1.00021
1.00021
1.00021
1.00021
6.28687
6.25961
6.21211
6.15595
6.32098
6.2627
6.23559
6.22737
6.31085
6.26535
6.23531
6.21133
6.23451
6.24154
6.19125
6.1676
5.65486
5.68617
5.47615
5.42978
5.52882
5.49667
5.49205
5.47821
5.49449
5.491
5.57157
5.5009
5.49248
5.56151
5.57865
5.54935
4.41432
4.31816
4.42586
4.36329
4.43017
4.38392
4.45781
4.34348
4.40417
4.34197
4.3619
4.33437
4.44237
4.45328
4.52454
4.56997
3.29642
3.31178
3.32126
3.37219
3.39452
3.37033
3.28259
3.35203
3.37645
3.35185
3.38597
3.38365
3.43688
3.31359
3.36787
3.42084
2.19019
2.20702
2.18137
2.35945
2.16424
2.24621
2.19922
2.22379
2.3203
2.29593
2.307
2.42374
2.34303
2.3499
2.35091
2.34894
1.25726
1.19331
1.25084
1.25041
1.14547
1.20233
1.12451
1.18773
1.1671
1.26136
1.3254
1.43926
1.30081
1.48451
1.29667
1.33089
1.01269
1.00151
1.01476
1.01126
1.01725
1.00687
1.0109
1.01625
1.01582
1.02242
1.00669
1.01423
1.03802
1.04479
1.0129
1.01097
1.00564
1.00513
1.00397
1.00397
1.00585
1.00472
1.00456
1.00422
1.00626
1.00528
1.00298
1.00245
1.00701
0.99844
0.998979
0.999769
1.00803
1.00726
1.00745
1.00738
1.00809
1.00752
1.00763
1.00785
1.00851
1.00827
1.00769
1.00806
1.00777
1.00673
1.00704
1.00734
1.00618
1.00596
1.00594
1.00584
1.00624
1.00605
1.00598
1.00594
1.00637
1.00615
1.00587
1.00578
1.00597
1.00552
1.00533
1.00528
1.00581
1.00573
1.00571
1.00569
1.00587
1.00581
1.00578
1.00578
1.00595
1.00589
1.00583
1.00583
1.00586
1.00577
1.00572
1.00573
1.00535
1.00531
1.0053
1.00529
1.00539
1.00536
1.00534
1.00533
1.00542
1.00539
1.00537
1.00536
1.00539
1.00535
1.00532
1.00531
1.00489
1.00488
1.00487
1.00487
1.00492
1.00491
1.0049
1.0049
1.00494
1.00493
1.00492
1.00492
1.00494
1.00493
1.00492
1.00491
1.00445
1.00445
1.00444
1.00444
1.00447
1.00447
1.00447
1.00446
1.00449
1.00449
1.00448
1.00448
1.0045
1.00449
1.00449
1.00449
1.00402
1.00402
1.00402
1.00402
1.00404
1.00403
1.00403
1.00403
1.00405
1.00405
1.00405
1.00405
1.00406
1.00405
1.00405
1.00405
1.00359
1.00359
1.00359
1.00359
1.0036
1.0036
1.0036
1.0036
1.00361
1.00361
1.00361
1.00361
1.00362
1.00362
1.00362
1.00362
1.00317
1.00317
1.00317
1.00317
1.00317
1.00318
1.00318
1.00317
1.00318
1.00318
1.00318
1.00318
1.00319
1.00319
1.00319
1.00319
1.00274
1.00274
1.00274
1.00274
1.00275
1.00275
1.00275
1.00275
1.00275
1.00275
1.00275
1.00275
1.00276
1.00276
1.00276
1.00276
1.00232
1.00232
1.00232
1.00232
1.00232
1.00232
1.00232
1.00232
1.00233
1.00233
1.00233
1.00233
1.00233
1.00233
1.00233
1.00233
1.0019
1.0019
1.0019
1.0019
1.0019
1.0019
1.0019
1.0019
1.0019
1.0019
1.0019
1.0019
1.0019
1.00191
1.00191
1.00191
1.00148
1.00148
1.00148
1.00148
1.00148
1.00148
1.00148
1.00148
1.00148
1.00148
1.00148
1.00148
1.00148
1.00148
1.00148
1.00148
1.00105
1.00105
1.00105
1.00105
1.00105
1.00106
1.00106
1.00106
1.00106
1.00106
1.00106
1.00106
1.00106
1.00106
1.00106
1.00106
1.00063
1.00063
1.00063
1.00063
1.00063
1.00063
1.00063
1.00063
1.00063
1.00063
1.00063
1.00063
1.00063
1.00063
1.00063
1.00063
1.00021
1.00021
1.00021
1.00021
1.00021
1.00021
1.00021
1.00021
1.00021
1.00021
1.00021
1.00021
1.00021
1.00021
1.00021
1.00021
)
;

boundaryField
{
    inlet
    {
        type            zeroGradient;
    }
    outlet
    {
        type            fixedValue;
        value           uniform 1;
    }
    wall
    {
        type            zeroGradient;
    }
    procBoundary3to1
    {
        type            processor;
        value           nonuniform List<scalar> 
192
(
6.34087
6.31819
6.29295
6.28992
5.60925
5.66417
5.6848
5.71541
4.5547
4.47053
4.4484
4.55546
3.35576
3.3767
3.24616
3.15336
2.31434
2.24167
2.17232
2.14038
1.34749
1.16486
1.11946
1.18169
0.995744
0.987089
1.01027
1.0125
1.00423
1.0069
1.00749
1.00613
1.00929
1.01115
1.00871
1.00794
1.00635
1.00653
1.00634
1.00619
1.00588
1.00593
1.00585
1.00579
1.00536
1.00537
1.00535
1.00532
1.00488
1.00489
1.00488
1.00487
1.00444
1.00444
1.00444
1.00444
1.004
1.00401
1.00401
1.00401
1.00358
1.00358
1.00358
1.00358
1.00315
1.00316
1.00316
1.00316
1.00273
1.00273
1.00273
1.00274
1.00231
1.00231
1.00231
1.00231
1.00189
1.00189
1.00189
1.00189
1.00147
1.00147
1.00147
1.00147
1.00105
1.00105
1.00105
1.00105
1.00063
1.00063
1.00063
1.00063
1.00021
1.00021
1.00021
1.00021
6.33483
6.27113
6.22941
6.21926
5.52309
5.59123
5.61193
5.37104
4.38587
4.37644
4.41213
4.35954
3.30689
3.30243
3.19643
3.25563
2.25462
2.21821
2.20459
2.23555
1.17927
1.10786
1.06577
1.11269
0.996464
1.00343
1.00791
1.00861
1.00515
1.00474
1.00446
1.0045
1.00736
1.00709
1.00703
1.00699
1.00602
1.00592
1.00591
1.00587
1.00572
1.00567
1.00565
1.00564
1.00529
1.00526
1.00525
1.00524
1.00486
1.00485
1.00484
1.00483
1.00443
1.00442
1.00442
1.00442
1.004
1.004
1.004
1.004
1.00358
1.00358
1.00358
1.00358
1.00316
1.00316
1.00316
1.00316
1.00274
1.00274
1.00274
1.00274
1.00231
1.00231
1.00231
1.00231
1.00189
1.00189
1.00189
1.00189
1.00147
1.00147
1.00147
1.00147
1.00105
1.00105
1.00105
1.00105
1.00063
1.00063
1.00063
1.00063
1.00021
1.00021
1.00021
1.00021
)
;
    }
    procBoundary3to2
    {
        type            processor;
        value           nonuniform List<scalar> 
192
(
6.34244
6.33078
6.26861
6.2839
5.48401
5.53205
5.68446
5.69053
4.55678
4.53928
4.55018
4.51681
3.53049
3.48733
3.37977
3.43584
2.42907
2.36785
2.33423
2.3067
1.38092
1.34026
1.36194
1.2909
1.01689
1.01233
1.01348
1.01007
1.00565
1.00541
1.00537
1.00519
1.00849
1.00836
1.00838
1.00778
1.00637
1.00639
1.00642
1.00629
1.0059
1.00594
1.00596
1.00593
1.00539
1.00542
1.00544
1.00544
1.00491
1.00494
1.00496
1.00497
1.00446
1.00448
1.00449
1.00451
1.00402
1.00403
1.00405
1.00406
1.00359
1.0036
1.00361
1.00362
1.00316
1.00317
1.00318
1.00319
1.00274
1.00274
1.00275
1.00276
1.00232
1.00232
1.00232
1.00233
1.00189
1.0019
1.0019
1.0019
1.00147
1.00148
1.00148
1.00148
1.00105
1.00105
1.00106
1.00106
1.00063
1.00063
1.00063
1.00063
1.00021
1.00021
1.00021
1.00021
6.27944
6.26776
6.24342
6.24386
5.41182
5.43417
5.58544
5.57655
4.44085
4.43434
4.4322
4.33638
3.50278
3.48971
3.2557
3.23978
2.33983
2.11768
2.16579
2.04351
1.19697
1.17179
1.05837
1.10384
1.01007
1.00959
1.00926
1.00838
1.0051
1.00498
1.00488
1.00479
1.00792
1.00765
1.00739
1.00732
1.0063
1.00625
1.00619
1.00615
1.00593
1.00589
1.00587
1.00586
1.00544
1.00544
1.00542
1.00542
1.00497
1.00497
1.00497
1.00497
1.00451
1.00452
1.00452
1.00452
1.00407
1.00407
1.00407
1.00408
1.00363
1.00363
1.00363
1.00363
1.00319
1.00319
1.0032
1.0032
1.00276
1.00276
1.00277
1.00277
1.00233
1.00233
1.00234
1.00234
1.00191
1.00191
1.00191
1.00191
1.00148
1.00148
1.00148
1.00148
1.00106
1.00106
1.00106
1.00106
1.00063
1.00063
1.00064
1.00064
1.00021
1.00021
1.00021
1.00021
)
;
    }
}


// ************************************************************************* //
