/*--------------------------------*- C++ -*----------------------------------*\
| =========                 |                                                 |
| \\      /  F ield         | OpenFOAM: The Open Source CFD Toolbox           |
|  \\    /   O peration     | Version:  2506                                  |
|   \\  /    A nd           | Website:  www.openfoam.com                      |
|    \\/     M anipulation  |                                                 |
\*---------------------------------------------------------------------------*/
FoamFile
{
    version     2.0;
    format      ascii;
    arch        "LSB;label=32;scalar=64";
    class       surfaceScalarField;
    location    "0.01";
    object      phi;
}
// * * * * * * * * * * * * * * * * * * * * * * * * * * * * * * * * * * * * * //

dimensions      [0 3 -1 0 0 0 0];

oriented        oriented;

internalField   nonuniform List<scalar> 
3120
(
-3.94611e-09
-2.10802e-09
2.81206e-08
7.16217e-10
3.77505e-10
6.20625e-09
-6.80686e-10
-1.31825e-09
1.39031e-08
-8.55527e-11
7.63533e-09
1.57637e-09
-1.99897e-09
-3.71811e-09
1.82611e-08
-7.77851e-10
1.10923e-09
9.35094e-09
2.64893e-10
9.6086e-10
8.07104e-09
1.27277e-09
1.00988e-08
2.17296e-10
1.14834e-09
9.60472e-10
2.33284e-09
-7.49868e-10
-4.60827e-10
1.47803e-08
4.80369e-10
2.16149e-09
8.95353e-09
2.1525e-09
1.14783e-08
-4.68648e-10
-1.46282e-10
1.09087e-08
1.50597e-09
2.39708e-09
7.77621e-09
5.93151e-10
-1.43749e-10
1.46386e-08
1.4302e-09
1.13612e-08
1.22104e-09
9.31991e-10
1.29551e-09
-4.46122e-09
1.70564e-08
5.61483e-10
-1.89867e-11
7.12189e-09
2.97277e-09
1.15658e-11
1.14171e-08
-2.05599e-09
1.99353e-08
-2.6826e-09
2.50275e-09
1.66315e-09
5.65529e-09
4.21377e-10
7.71742e-10
1.06416e-08
2.82676e-11
-1.5343e-10
8.62915e-09
-2.15891e-10
7.36164e-09
9.2529e-10
-2.60607e-10
-1.1146e-10
6.50424e-09
-2.24353e-10
1.64073e-10
1.53517e-08
2.04626e-10
1.08142e-09
7.2897e-09
6.63868e-10
8.74679e-09
2.05639e-09
-1.83246e-11
1.39622e-08
-1.0114e-09
6.30353e-10
6.68481e-09
6.06801e-10
1.79951e-09
1.64168e-08
-1.8659e-09
1.29637e-08
1.32948e-10
7.2802e-10
1.86924e-09
1.34577e-09
4.22763e-09
5.05285e-10
-2.9538e-10
7.22202e-09
-1.72441e-11
-1.16282e-10
1.08238e-08
5.31394e-10
1.76369e-08
2.58092e-09
-5.23449e-10
5.79581e-10
6.9724e-09
1.44276e-09
-3.10567e-11
8.41108e-09
3.27363e-10
2.70681e-10
9.35759e-09
6.95986e-10
6.86409e-09
6.60333e-10
-1.30939e-09
-2.65339e-10
9.52148e-09
1.19396e-09
1.00849e-09
1.18088e-08
1.02779e-09
-6.12996e-10
8.33955e-09
-4.26196e-10
1.10519e-08
-1.55098e-10
3.51048e-10
1.37747e-08
-2.96738e-10
-4.44076e-10
7.58018e-09
9.08249e-10
3.17371e-09
1.22898e-08
-1.0379e-10
1.80053e-08
-1.06974e-09
-1.22436e-09
1.64933e-09
1.54517e-09
6.6611e-10
-2.60431e-09
-1.59511e-09
1.63479e-08
-2.97883e-09
8.48102e-10
9.30572e-09
1.95551e-09
8.231e-09
2.36216e-09
-1.62873e-10
1.85462e-10
1.02405e-08
1.1335e-09
3.61432e-10
5.15819e-09
-5.14269e-10
-1.02381e-09
1.28773e-08
2.70808e-10
9.07471e-09
-1.04019e-09
2.70162e-10
5.49214e-10
8.69086e-09
5.11153e-10
4.85033e-11
1.18808e-08
1.18555e-09
-6.2096e-10
7.26231e-09
-2.35914e-09
1.69223e-08
-2.05493e-09
-3.09806e-11
1.37244e-08
1.40679e-09
2.04383e-12
6.20718e-09
1.38848e-09
4.72574e-11
1.13585e-08
2.65155e-10
1.75057e-08
-9.16597e-10
-8.95708e-10
-1.31128e-09
1.34693e-09
5.40542e-09
-3.60192e-10
1.57057e-10
1.88008e-08
1.67555e-10
-4.8678e-11
7.31334e-09
-7.18968e-10
9.27315e-09
-6.90666e-10
3.66452e-10
-1.1908e-09
1.38314e-08
-2.19151e-10
-2.07402e-09
7.97488e-09
1.34295e-10
-1.35548e-09
1.38306e-08
-1.66744e-09
9.62971e-09
5.27773e-10
-6.70495e-10
1.73036e-09
6.38364e-09
1.1451e-09
4.99063e-10
7.49211e-09
1.71552e-10
3.24316e-10
6.55606e-09
-1.39618e-09
1.72432e-08
-4.20662e-10
-1.28698e-09
1.57066e-08
1.59398e-09
5.4533e-10
3.97536e-09
8.98571e-10
-1.24568e-09
1.3492e-08
-1.82034e-11
1.64614e-08
-7.83338e-10
-8.14171e-10
1.51468e-10
9.24189e-10
3.70935e-09
1.60387e-09
2.22643e-09
1.10805e-08
1.36737e-09
1.40943e-09
3.08287e-09
1.61495e-09
1.04759e-08
-1.92863e-09
3.16183e-09
-5.1048e-10
1.18258e-08
9.69268e-10
-1.21574e-09
1.36096e-08
8.51034e-10
-4.48217e-10
1.58065e-08
-1.91058e-09
1.48393e-08
-8.33035e-10
-6.74335e-12
-1.36111e-09
7.23323e-09
6.43327e-10
3.63789e-10
5.26251e-09
-3.24266e-10
-1.53382e-09
8.60926e-09
-3.02572e-09
1.70972e-08
9.36897e-10
4.28699e-09
6.95259e-09
5.09799e-10
-2.2108e-09
1.25819e-08
-1.74501e-09
-2.81693e-09
1.21734e-08
3.9094e-10
7.20595e-09
2.57624e-09
8.36537e-10
-5.47675e-09
-4.25119e-09
5.20494e-09
-4.56886e-09
-2.45411e-09
7.95176e-09
-5.31418e-09
-1.72623e-09
3.70344e-10
3.42005e-10
1.32103e-08
-4.63089e-09
-8.59417e-10
-3.52693e-09
1.17552e-08
-1.71399e-09
-5.81754e-09
1.78276e-08
-2.39518e-09
4.4343e-10
1.43181e-08
-2.22984e-09
1.75454e-08
-2.5293e-09
2.86711e-11
-4.75311e-09
9.45861e-09
-2.34182e-09
-5.09551e-09
6.91091e-09
1.21004e-11
-8.83163e-10
7.58199e-09
-7.85985e-09
1.9721e-08
3.01838e-09
-2.28223e-10
1.91628e-09
-7.66328e-10
-2.06081e-09
5.8159e-09
3.50325e-09
-2.97625e-09
9.71478e-09
2.49087e-09
1.3472e-08
-2.34225e-09
-1.47598e-08
-1.69043e-09
-2.92547e-09
1.21154e-08
-3.25248e-09
-2.60648e-09
8.97089e-09
-2.65716e-09
5.77724e-10
1.15719e-09
-2.04217e-09
1.22628e-08
6.18892e-10
-1.36775e-09
-1.48378e-09
1.20636e-08
-2.95806e-09
1.89769e-09
1.4914e-08
-2.59345e-09
3.7343e-09
1.0797e-08
-1.49629e-09
1.34399e-08
9.66082e-10
1.3547e-09
-1.51777e-09
9.99539e-09
-4.36649e-09
5.0937e-09
9.43613e-09
-8.48818e-09
7.72747e-09
7.71071e-09
-2.72882e-09
1.84643e-08
-5.99881e-09
-4.43408e-11
5.83031e-09
-3.38794e-09
-1.22505e-08
8.53765e-09
1.4578e-08
-2.43831e-08
1.06834e-08
1.88914e-08
1.83361e-08
5.86152e-09
-3.78375e-08
7.5607e-10
1.06465e-09
1.14057e-08
2.78545e-09
9.57485e-10
1.10878e-08
-1.96466e-09
-2.28246e-09
8.933e-09
-2.50611e-09
1.14607e-08
-1.87173e-09
-1.23063e-09
4.55377e-10
1.17384e-08
1.43771e-09
4.56043e-10
1.27471e-08
-6.36168e-10
-8.20057e-10
1.14084e-08
-1.84429e-09
1.25171e-08
-3.75321e-10
-7.86066e-10
-7.52109e-10
1.11326e-08
-6.11574e-10
-1.52665e-09
1.12446e-08
-3.70905e-09
-7.94121e-10
1.07823e-08
7.96808e-10
1.4034e-08
-1.91972e-09
-2.61884e-09
1.05701e-08
-4.11157e-09
-1.41821e-09
1.12135e-08
-5.40305e-09
-2.16983e-09
1.11148e-08
-4.73773e-10
1.33337e-08
1.41323e-09
2.21615e-09
3.10527e-10
2.34557e-10
1.14193e-08
7.4806e-10
9.93112e-11
1.14553e-08
-3.12103e-10
-4.33713e-10
1.07607e-08
-4.8706e-10
1.13127e-08
-2.7598e-10
-2.22704e-10
5.76771e-11
1.15295e-08
5.92533e-10
1.53784e-10
1.18774e-08
1.60728e-10
3.08353e-11
1.13757e-08
1.9128e-10
1.17008e-08
2.98748e-10
-1.29479e-11
-4.44065e-10
1.1368e-08
2.4254e-10
-4.26104e-10
1.1569e-08
-3.18652e-10
3.75414e-11
1.13368e-08
1.42957e-09
1.21126e-08
3.64466e-10
4.33178e-11
1.14159e-08
-1.60712e-09
9.2304e-10
1.17378e-08
-1.83007e-09
1.4186e-09
1.14142e-08
-7.57449e-10
1.14312e-08
7.99393e-10
3.95129e-09
1.54767e-10
1.55919e-10
1.14591e-08
3.93056e-10
5.70842e-11
1.14899e-08
1.00978e-10
-4.59443e-11
1.12644e-08
-3.94276e-11
1.13715e-08
2.04937e-11
2.99642e-12
1.43522e-11
1.14794e-08
3.31162e-10
1.16131e-11
1.15947e-08
2.20564e-10
1.40177e-11
1.14264e-08
1.71566e-10
1.14801e-08
2.30334e-10
2.07114e-11
-2.36487e-10
1.14569e-08
2.78881e-10
-2.28317e-10
1.15508e-08
2.20315e-10
-4.07208e-11
1.14502e-08
5.6683e-10
1.15653e-08
3.7245e-10
9.77284e-11
1.15431e-08
-6.01794e-10
6.49047e-10
1.16453e-08
-6.87076e-10
1.02601e-09
1.14439e-08
-4.47358e-10
1.12088e-08
1.27475e-10
1.68785e-09
1.24906e-10
1.35569e-10
1.14797e-08
2.3103e-10
9.33454e-11
1.14805e-08
1.58959e-10
7.27921e-11
1.14037e-08
1.11228e-10
1.14057e-08
1.07687e-10
7.66115e-11
4.34644e-11
1.14741e-08
2.18072e-10
4.45764e-11
1.15021e-08
2.05697e-10
7.27914e-11
1.14388e-08
1.79072e-10
1.14248e-08
1.93228e-10
8.41329e-11
-8.38848e-11
1.14757e-08
2.4033e-10
-6.17631e-11
1.1501e-08
2.75157e-10
4.25068e-11
1.14457e-08
3.06041e-10
1.14187e-08
2.94833e-10
1.35808e-10
1.15236e-08
-2.19382e-10
4.11659e-10
1.15395e-08
-2.31716e-10
6.18799e-10
1.14274e-08
-1.48007e-10
1.12555e-08
6.52304e-11
8.12974e-10
1.08377e-10
1.16274e-10
1.14903e-08
1.53048e-10
9.96474e-11
1.1481e-08
1.37326e-10
9.87903e-11
1.14478e-08
1.20754e-10
1.1432e-08
1.08652e-10
9.07606e-11
5.90899e-11
1.14804e-08
1.5258e-10
6.08797e-11
1.14791e-08
1.58987e-10
8.32161e-11
1.1448e-08
1.36434e-10
1.14242e-08
1.43874e-10
9.53163e-11
-1.05013e-11
1.14812e-08
1.74831e-10
3.41207e-12
1.1479e-08
2.04678e-10
5.59306e-11
1.14432e-08
1.61249e-10
1.14035e-08
1.9506e-10
1.19598e-10
1.15014e-08
-7.41811e-11
2.44325e-10
1.14922e-08
-7.39327e-11
3.38443e-10
1.14305e-08
-4.12437e-11
1.13294e-08
3.69938e-11
3.88925e-10
8.88597e-11
9.70797e-11
1.14975e-08
1.08201e-10
8.96368e-11
1.14869e-08
1.04701e-10
9.06119e-11
1.14679e-08
1.00642e-10
1.14521e-08
8.86094e-11
8.12511e-11
6.13188e-11
1.1487e-08
1.08974e-10
6.19973e-11
1.1479e-08
1.14267e-10
7.36773e-11
1.14597e-08
9.749e-11
1.14395e-08
1.02175e-10
8.28144e-11
2.14697e-11
1.14843e-08
1.20823e-10
2.76303e-11
1.14754e-08
1.36418e-10
4.95121e-11
1.14517e-08
9.13689e-11
1.14215e-08
1.24498e-10
9.20026e-11
1.14912e-08
-1.55138e-11
1.48145e-10
1.14785e-08
-1.48102e-11
1.87516e-10
1.14428e-08
-2.14319e-12
1.13844e-08
2.6649e-11
1.97177e-10
6.95044e-11
7.83554e-11
1.15031e-08
7.82975e-11
7.40648e-11
1.14937e-08
7.67828e-11
7.38998e-11
1.14809e-08
7.72896e-11
1.14682e-08
6.67621e-11
6.51841e-11
5.57583e-11
1.14935e-08
7.80168e-11
5.50555e-11
1.14851e-08
8.00529e-11
5.96417e-11
1.14718e-08
6.90358e-11
1.14568e-08
7.08807e-11
6.47755e-11
3.09236e-11
1.14889e-08
8.26115e-11
3.25322e-11
1.148e-08
8.90353e-11
4.06812e-11
1.14642e-08
5.66076e-11
1.14436e-08
7.92924e-11
6.71586e-11
1.14895e-08
7.73561e-12
9.23619e-11
1.14788e-08
7.05014e-12
1.07851e-10
1.14571e-08
1.08627e-11
1.14215e-08
2.14968e-11
1.05811e-10
5.27923e-11
6.14782e-11
1.15073e-08
5.68268e-11
5.8587e-11
1.14997e-08
5.53787e-11
5.75396e-11
1.14905e-08
5.78027e-11
1.14808e-08
4.85123e-11
4.98933e-11
4.70885e-11
1.14992e-08
5.57435e-11
4.57318e-11
1.14921e-08
5.56897e-11
4.66993e-11
1.14826e-08
4.95318e-11
1.14718e-08
4.8827e-11
4.86175e-11
3.11707e-11
1.14941e-08
5.67153e-11
3.07417e-11
1.14869e-08
5.84195e-11
3.29468e-11
1.14762e-08
3.8134e-11
1.14622e-08
5.10976e-11
4.83107e-11
1.1492e-08
1.60033e-11
5.93529e-11
1.14838e-08
1.46332e-11
6.46183e-11
1.147e-08
1.47099e-11
1.14463e-08
1.77967e-11
6.00489e-11
3.93344e-11
4.72014e-11
1.15104e-08
4.11069e-11
4.51356e-11
1.15044e-08
3.96116e-11
4.37976e-11
1.14977e-08
4.2843e-11
1.14905e-08
3.46869e-11
3.72665e-11
3.79552e-11
1.15038e-08
3.97606e-11
3.6492e-11
1.14982e-08
3.87578e-11
3.59588e-11
1.14914e-08
3.60867e-11
1.14836e-08
3.36333e-11
3.58093e-11
2.75271e-11
1.14991e-08
3.92332e-11
2.63915e-11
1.14935e-08
3.88768e-11
2.62852e-11
1.14861e-08
2.72966e-11
1.14763e-08
3.34327e-11
3.46231e-11
1.14959e-08
1.72305e-11
3.92137e-11
1.14899e-08
1.56368e-11
4.02581e-11
1.14806e-08
1.45924e-11
1.14632e-08
1.47625e-11
3.58148e-11
2.89108e-11
3.56242e-11
1.15126e-08
2.95853e-11
3.41335e-11
1.1508e-08
2.81866e-11
3.28542e-11
1.15031e-08
3.15961e-11
1.14977e-08
2.45939e-11
2.74235e-11
2.96309e-11
1.15073e-08
2.83203e-11
2.83294e-11
1.1503e-08
2.70339e-11
2.73395e-11
1.14981e-08
2.65237e-11
1.14924e-08
2.32156e-11
2.6106e-11
2.27117e-11
1.15032e-08
2.7327e-11
2.14894e-11
1.1499e-08
2.6243e-11
2.06163e-11
1.14938e-08
2.01585e-11
1.14866e-08
2.21836e-11
2.48024e-11
1.15e-08
1.56683e-11
2.64466e-11
1.14955e-08
1.4198e-11
2.59182e-11
1.14888e-08
1.28402e-11
1.14749e-08
1.20035e-11
2.23074e-11
2.09998e-11
2.64584e-11
1.15141e-08
2.11472e-11
2.53884e-11
1.15107e-08
1.99408e-11
2.43155e-11
1.1507e-08
2.31362e-11
1.15029e-08
1.73168e-11
1.99342e-11
2.25433e-11
1.151e-08
2.00938e-11
2.14929e-11
1.15067e-08
1.88597e-11
2.04963e-11
1.15031e-08
1.94958e-11
1.14988e-08
1.60286e-11
1.8865e-11
1.79122e-11
1.15066e-08
1.9091e-11
1.68461e-11
1.15034e-08
1.78765e-11
1.58574e-11
1.14996e-08
1.50051e-11
1.1494e-08
1.48746e-11
1.77256e-11
1.15035e-08
1.30563e-11
1.80742e-11
1.15001e-08
1.18364e-11
1.70805e-11
1.14951e-08
1.05844e-11
1.1483e-08
9.57504e-12
1.42745e-11
1.50186e-11
1.92588e-11
1.15152e-08
1.49306e-11
1.85021e-11
1.15126e-08
1.39543e-11
1.76682e-11
1.15098e-08
1.6702e-11
1.15066e-08
1.20591e-11
1.42605e-11
1.6695e-11
1.15119e-08
1.41138e-11
1.58978e-11
1.15094e-08
1.30698e-11
1.50602e-11
1.15067e-08
1.41639e-11
1.15033e-08
1.10013e-11
1.34478e-11
1.35911e-11
1.15091e-08
1.32715e-11
1.27488e-11
1.15067e-08
1.21862e-11
1.18848e-11
1.15039e-08
1.10523e-11
1.14992e-08
9.99386e-12
1.25489e-11
1.15064e-08
1.02507e-11
1.23808e-11
1.15037e-08
9.30521e-12
1.13801e-11
1.14997e-08
8.28788e-12
1.14887e-08
7.37914e-12
9.29796e-12
1.04319e-11
1.35623e-11
1.1516e-08
1.02699e-11
1.30423e-11
1.15139e-08
9.53083e-12
1.2434e-11
1.15118e-08
1.17116e-11
1.15092e-08
8.20018e-12
9.91005e-12
1.19024e-11
1.15134e-08
9.67506e-12
1.13307e-11
1.15114e-08
8.86425e-12
1.06955e-11
1.15093e-08
9.993e-12
1.15065e-08
7.40698e-12
9.32692e-12
9.85151e-12
1.1511e-08
9.0373e-12
9.23257e-12
1.15091e-08
8.17666e-12
8.56403e-12
1.15069e-08
7.89231e-12
1.15028e-08
6.62377e-12
8.66767e-12
1.15085e-08
7.59633e-12
8.34879e-12
1.15064e-08
6.90735e-12
7.51895e-12
1.15029e-08
6.1419e-12
1.14927e-08
5.43479e-12
6.03495e-12
6.81884e-12
8.95721e-12
1.15165e-08
6.66665e-12
8.62326e-12
1.15148e-08
6.15591e-12
8.21527e-12
1.15131e-08
7.72286e-12
1.15109e-08
5.27898e-12
6.48187e-12
7.93003e-12
1.15143e-08
6.26893e-12
7.55136e-12
1.15127e-08
5.70045e-12
7.11529e-12
1.1511e-08
6.6245e-12
1.15085e-08
4.73548e-12
6.09567e-12
6.63785e-12
1.15123e-08
5.8317e-12
6.22082e-12
1.15107e-08
5.22116e-12
5.75587e-12
1.15088e-08
5.28086e-12
1.15052e-08
4.19003e-12
5.65194e-12
1.151e-08
5.19269e-12
5.35373e-12
1.15082e-08
4.72894e-12
4.75373e-12
1.15051e-08
4.20135e-12
1.14953e-08
3.7144e-12
3.76623e-12
3.87208e-12
5.15205e-12
1.15168e-08
3.76909e-12
4.96461e-12
1.15153e-08
3.4696e-12
4.72892e-12
1.15138e-08
4.44119e-12
1.15118e-08
2.96889e-12
3.68151e-12
4.58935e-12
1.15149e-08
3.5403e-12
4.37314e-12
1.15134e-08
3.20331e-12
4.11761e-12
1.15119e-08
3.82686e-12
1.15097e-08
2.65045e-12
3.46096e-12
3.87102e-12
1.1513e-08
3.28434e-12
3.63014e-12
1.15116e-08
2.91973e-12
3.35582e-12
1.151e-08
3.07318e-12
1.15065e-08
2.32803e-12
3.20469e-12
1.15109e-08
3.05695e-12
3.00279e-12
1.15093e-08
2.78914e-12
2.64093e-12
1.15064e-08
2.48018e-12
1.14967e-08
2.19535e-12
2.07537e-12
1.5931e-12
2.31839e-12
1.54492e-12
2.23394e-12
1.41701e-12
2.12672e-12
1.99448e-12
1.20893e-12
1.50787e-12
2.08053e-12
1.44038e-12
1.98453e-12
1.29476e-12
1.86835e-12
1.73345e-12
1.06359e-12
1.40998e-12
1.7709e-12
1.32416e-12
1.66492e-12
1.16372e-12
1.54109e-12
1.40872e-12
9.13613e-13
1.29718e-12
1.41389e-12
1.19703e-12
1.29675e-12
1.03319e-12
1.15984e-12
1.02657e-12
7.92262e-13
-1.40105e-09
-5.17431e-10
1.61644e-08
3.12514e-09
-3.68768e-11
6.68365e-09
-6.45203e-10
-7.48137e-10
1.54588e-08
1.76516e-09
6.20403e-09
-3.37284e-10
-2.41921e-10
2.40674e-09
1.07748e-08
1.66927e-09
2.46952e-09
8.2485e-09
4.23532e-10
2.95504e-09
8.43378e-09
4.69435e-09
6.63173e-09
-7.68256e-10
2.34006e-10
-1.27374e-09
1.93118e-08
1.0265e-09
-1.29806e-10
1.59874e-08
8.3328e-10
-8.92247e-11
1.5509e-08
2.72671e-09
1.36733e-08
-1.17947e-09
1.95771e-10
1.51701e-08
9.25624e-10
1.48263e-08
1.55423e-09
1.30415e-08
1.62605e-08
-8.69423e-10
1.16797e-09
1.86828e-09
9.62503e-09
-1.44117e-09
1.02656e-09
8.87304e-09
1.88553e-09
1.0432e-09
9.22299e-09
1.60687e-09
5.93322e-09
6.82421e-10
1.55585e-09
-7.64266e-10
1.04343e-08
-7.06328e-10
-1.68559e-09
1.32228e-08
5.00201e-10
2.66076e-09
5.60969e-09
-8.31657e-10
9.79611e-09
-2.25654e-10
1.07114e-09
3.60118e-09
1.38408e-08
1.62226e-10
1.86656e-09
1.33441e-08
-2.57504e-10
-1.88167e-09
2.04712e-08
2.44986e-09
1.08267e-08
-6.92329e-10
7.48491e-10
1.92749e-08
-1.14728e-09
1.87153e-08
9.97289e-10
8.98925e-09
2.04019e-08
-7.42586e-10
1.32198e-09
2.43869e-10
5.36429e-09
-1.57305e-09
-1.39975e-09
1.40761e-08
4.39871e-10
1.4727e-09
5.63358e-09
6.82005e-10
3.16097e-09
1.46038e-09
5.09029e-10
8.71402e-10
7.85376e-09
1.91012e-10
-1.04206e-09
1.31831e-08
1.01931e-10
-1.8737e-09
9.04518e-09
-3.68427e-09
1.35849e-08
6.79478e-10
-6.57747e-10
-3.04751e-09
1.83909e-08
1.86948e-10
-1.55898e-09
1.30164e-08
-3.40227e-10
-1.58164e-10
1.92828e-08
-3.40733e-10
6.79023e-09
3.52662e-10
1.05673e-10
1.3985e-08
7.41429e-10
1.65714e-08
-4.45263e-10
9.92024e-09
1.93687e-08
2.2366e-10
-2.12333e-10
1.28701e-09
9.03816e-09
-7.86064e-10
-1.06674e-09
1.7105e-08
-2.64405e-10
-1.31146e-10
5.50823e-09
-1.30937e-09
3.31879e-09
-2.94518e-11
-1.63857e-09
-2.73645e-09
1.66296e-08
-2.14208e-10
2.49705e-09
8.195e-09
-7.34592e-10
-1.65238e-10
9.59965e-09
-6.97943e-10
1.09706e-08
1.26822e-09
1.00763e-09
-4.78185e-10
1.43977e-08
-1.87132e-09
-3.77238e-09
2.21648e-08
-6.12465e-10
1.85897e-10
1.76728e-08
-1.3705e-09
6.20803e-09
6.42289e-10
-8.3397e-10
1.3169e-08
7.90224e-11
1.18111e-08
-1.20254e-09
1.13756e-08
1.6066e-08
6.68989e-10
-3.71324e-09
-1.80299e-09
1.88182e-08
6.53873e-10
1.9878e-09
1.16487e-08
-4.69809e-10
-7.30269e-10
7.34398e-09
-1.5802e-10
1.88286e-09
3.40798e-10
-2.92994e-10
3.18774e-10
1.30908e-08
-6.81013e-10
-5.26206e-10
1.1097e-08
-7.14532e-10
4.20496e-10
8.48241e-09
1.53826e-10
9.6675e-09
2.76737e-10
-6.57118e-10
3.99042e-10
1.47013e-08
-9.94953e-10
8.63319e-10
2.11131e-08
-8.04728e-10
1.96792e-09
1.59352e-08
-1.09937e-09
6.59683e-09
5.96666e-11
-6.4439e-10
1.3349e-08
-2.2671e-10
1.22669e-08
-1.6085e-09
1.47656e-08
1.31515e-08
2.52528e-10
-1.02035e-09
3.78172e-09
1.06458e-08
1.69679e-09
3.67526e-09
3.51127e-09
4.2885e-10
1.4085e-09
7.59435e-09
-2.24191e-09
7.4601e-09
-3.30233e-10
7.67223e-10
2.05689e-09
1.26896e-08
7.896e-10
3.31017e-10
1.44189e-08
-1.34958e-09
-9.87637e-10
1.30177e-08
2.63767e-09
4.22472e-09
-7.86372e-10
-6.21704e-10
1.5916e-09
1.48493e-08
1.9329e-10
2.59502e-10
2.03696e-08
-1.79201e-10
-5.64201e-10
1.58843e-08
-1.96274e-10
9.66932e-09
-4.17741e-10
-8.95412e-10
1.54034e-08
-6.30157e-11
1.16687e-08
-3.59233e-10
1.45018e-08
1.34097e-08
-7.36477e-10
-5.34852e-09
-1.82663e-09
1.74533e-08
-6.97789e-09
4.29493e-09
4.34869e-09
-5.07051e-09
-4.51555e-10
8.62957e-09
-3.2552e-09
8.49795e-09
-5.19538e-09
-1.79723e-09
-1.70827e-09
1.26802e-08
-1.44588e-09
-2.44429e-09
2.08069e-08
-8.3433e-09
2.24754e-09
1.72158e-08
-5.73482e-09
3.65591e-09
-5.2949e-09
-3.92409e-09
3.72665e-10
1.67099e-08
-3.42807e-09
-5.58498e-09
2.30142e-08
-2.40308e-09
1.21842e-09
1.58885e-08
-4.20929e-09
5.59514e-09
1.45538e-10
-1.91251e-09
1.71238e-08
-4.28515e-10
1.51548e-08
-7.12983e-11
1.52218e-08
9.59349e-09
9.31666e-11
-6.98553e-09
1.08451e-09
1.99746e-08
-2.6171e-08
6.86218e-09
3.12503e-08
-1.93589e-08
8.6613e-09
1.20475e-08
-4.87727e-09
7.64823e-09
-7.77068e-09
-5.14756e-09
1.43561e-09
1.55645e-08
-4.31376e-09
2.19072e-09
2.46445e-08
1.48301e-10
4.65999e-09
1.67553e-08
-9.57785e-09
5.81946e-09
2.68526e-09
1.89021e-09
7.05992e-10
1.61909e-08
3.77231e-09
2.53937e-09
2.07836e-08
8.22256e-09
2.1681e-09
1.39302e-08
-7.19816e-09
2.36229e-09
9.07575e-09
3.70015e-09
1.61387e-08
4.51561e-09
1.68787e-08
8.99308e-09
1.29124e-08
3.79892e-09
7.58956e-09
-5.50731e-09
1.19075e-09
1.5539e-08
8.65298e-10
3.49783e-09
1.59771e-08
6.94918e-10
1.55032e-09
1.01937e-08
1.71669e-09
7.00406e-09
1.03539e-09
-3.76936e-09
2.15969e-09
1.59435e-08
1.69711e-09
4.53521e-09
1.81406e-08
3.70447e-09
2.90749e-09
1.33911e-08
1.07018e-09
6.87802e-09
3.29252e-09
-9.52088e-10
1.37326e-09
1.68628e-08
3.47967e-09
2.95506e-09
1.7932e-08
5.26752e-09
1.92218e-09
1.31276e-08
-9.42569e-11
5.67937e-09
3.11504e-09
1.85536e-10
1.71873e-08
3.03179e-09
1.69874e-08
4.8595e-09
1.30069e-08
6.14521e-09
2.419e-09
1.01575e-10
-3.98801e-10
1.32879e-08
1.98683e-09
-5.98849e-10
1.28607e-08
1.81327e-09
-3.25292e-10
9.93526e-09
1.57986e-09
6.75858e-09
1.27814e-09
8.69359e-11
2.23984e-10
1.47051e-08
2.27861e-09
6.83729e-10
1.46665e-08
2.88426e-09
8.75631e-10
1.15846e-08
1.90317e-09
7.42485e-09
2.0142e-09
5.26061e-10
3.68539e-10
1.6028e-08
2.59706e-09
8.94292e-10
1.56505e-08
3.28254e-09
9.63197e-10
1.23546e-08
1.08039e-09
7.74993e-09
2.03487e-09
7.56819e-10
1.69977e-08
2.29637e-09
1.63422e-08
3.0634e-09
1.32031e-08
8.55482e-09
1.73426e-09
1.6319e-10
-2.69709e-10
1.25154e-08
9.47673e-10
-3.38429e-10
1.17277e-08
9.94715e-10
-1.24311e-10
9.56522e-09
5.74349e-10
6.68059e-09
6.25834e-10
1.78868e-10
-6.4043e-11
1.41584e-08
1.06802e-09
2.85976e-11
1.34104e-08
1.26558e-09
2.40708e-10
1.10222e-08
7.42659e-10
7.76844e-09
7.53717e-10
3.13118e-10
-5.08314e-12
1.56138e-08
1.14218e-09
9.40566e-11
1.4756e-08
1.3517e-09
2.02148e-10
1.21838e-08
3.90899e-10
8.69864e-09
7.54817e-10
3.55822e-10
1.67145e-08
1.01767e-09
1.57745e-08
1.27288e-09
1.315e-08
9.56188e-09
6.56779e-10
1.7854e-10
-1.60029e-10
1.22358e-08
4.92457e-10
-1.62351e-10
1.13445e-08
5.28612e-10
-4.08965e-11
9.42203e-09
2.43147e-10
6.73207e-09
2.99272e-10
2.02438e-10
-9.12301e-11
1.38752e-08
5.64287e-10
-5.32571e-11
1.29395e-08
6.20347e-10
7.40684e-11
1.08512e-08
3.1704e-10
7.97849e-09
3.36474e-10
2.36957e-10
-3.89774e-11
1.53626e-08
5.92855e-10
-8.3232e-12
1.43553e-08
6.50905e-10
8.28919e-11
1.2117e-08
2.22402e-10
9.10304e-09
3.41203e-10
2.38408e-10
1.65034e-08
5.4506e-10
1.54595e-08
6.17605e-10
1.31604e-08
1.00954e-08
3.06549e-10
1.38512e-10
-7.77754e-11
1.21298e-08
2.60773e-10
-6.6824e-11
1.12151e-08
2.6621e-10
-8.80791e-12
9.38422e-09
1.11057e-10
6.78234e-09
1.41923e-10
1.53869e-10
-6.05418e-11
1.37438e-08
2.97556e-10
-4.08044e-11
1.27699e-08
2.98563e-10
2.75344e-11
1.08139e-08
1.3837e-10
8.09519e-09
1.54604e-10
1.61e-10
-3.32691e-11
1.52258e-08
3.08519e-10
-2.12388e-11
1.41882e-08
3.10642e-10
2.85062e-11
1.21139e-08
9.72096e-11
9.29872e-09
1.56146e-10
1.52493e-10
1.63723e-08
2.85079e-10
1.53058e-08
2.93454e-10
1.31806e-08
1.03447e-08
1.41279e-10
9.74847e-11
-2.90671e-11
1.20894e-08
1.44016e-10
-2.05299e-11
1.11743e-08
1.37124e-10
6.79785e-12
9.3822e-09
5.85326e-11
6.81856e-09
6.90691e-11
1.05322e-10
-2.99635e-11
1.36853e-08
1.61118e-10
-1.79794e-11
1.27115e-08
1.48787e-10
1.68464e-11
1.08162e-08
6.74696e-11
8.16122e-09
7.38386e-11
1.05467e-10
-1.97295e-11
1.51572e-08
1.64766e-10
-1.2801e-11
1.41238e-08
1.53386e-10
1.34624e-11
1.21287e-08
4.73752e-11
9.39802e-09
7.41471e-11
9.69728e-11
1.62994e-08
1.52142e-10
1.52378e-08
1.44099e-10
1.32021e-08
1.0469e-08
6.72258e-11
6.61292e-11
-4.09247e-12
1.20756e-08
8.27621e-11
2.22018e-14
1.11647e-08
7.23322e-11
1.37056e-11
9.38978e-09
3.53606e-11
6.84273e-09
3.43235e-11
6.96257e-11
-9.90495e-12
1.36613e-08
8.95354e-11
-3.073e-12
1.26947e-08
7.67244e-11
1.43637e-11
1.08282e-08
3.72576e-11
8.19976e-09
3.62653e-11
6.81883e-11
-8.6296e-12
1.51258e-08
9.03703e-11
-3.93923e-12
1.41025e-08
7.81105e-11
9.30648e-12
1.21459e-08
2.54707e-11
9.45165e-09
3.61852e-11
6.16149e-11
1.62631e-08
8.30803e-11
1.52124e-08
7.27321e-11
1.32218e-08
1.05344e-08
3.27251e-11
4.47283e-11
7.36777e-12
1.2073e-08
4.87897e-11
9.45169e-12
1.11657e-08
3.93486e-11
1.46336e-11
9.39926e-09
2.39092e-11
6.85873e-09
1.7246e-11
4.56806e-11
1.06997e-12
1.36538e-08
5.15089e-11
4.79532e-12
1.26934e-08
4.07529e-11
1.2862e-11
1.08406e-08
2.31334e-11
8.22315e-09
1.80864e-11
4.40633e-11
-1.61131e-12
1.51139e-08
5.11088e-11
1.22897e-12
1.40989e-08
4.09625e-11
7.68138e-12
1.21612e-08
1.52168e-11
9.48248e-09
1.79502e-11
3.9421e-11
1.62479e-08
4.65922e-11
1.52065e-08
3.77323e-11
1.32383e-08
1.05711e-08
1.61281e-11
3.0461e-11
1.12999e-11
1.2075e-08
2.9664e-11
1.19217e-11
1.11702e-08
2.19547e-11
1.3867e-11
9.40765e-09
1.73746e-11
6.86947e-09
8.59833e-12
3.03068e-11
5.87107e-12
1.36537e-08
3.04607e-11
7.68085e-12
1.26974e-08
2.22766e-11
1.13254e-11
1.08512e-08
1.57186e-11
8.23799e-09
9.03735e-12
2.87968e-11
1.86223e-12
1.51117e-08
2.97485e-11
3.4497e-12
1.41021e-08
2.20935e-11
6.51027e-12
1.21735e-08
9.9502e-12
9.50129e-09
8.9396e-12
2.55731e-11
1.62439e-08
2.68596e-11
1.52086e-08
2.00773e-11
1.32515e-08
1.05932e-08
7.92763e-12
2.09487e-11
1.16211e-11
1.20784e-08
1.85408e-11
1.1555e-11
1.11751e-08
1.25577e-11
1.19612e-11
9.41447e-09
1.30695e-11
6.87685e-09
4.11387e-12
2.04086e-11
7.26359e-12
1.36565e-08
1.85759e-11
8.0435e-12
1.27027e-08
1.24785e-11
9.55273e-12
1.08596e-08
1.12925e-11
8.2478e-09
4.39223e-12
1.91232e-11
3.21382e-12
1.51137e-08
1.78523e-11
3.99552e-12
1.41074e-08
1.22103e-11
5.43989e-12
1.21832e-08
6.9272e-12
9.5134e-09
4.3636e-12
1.68812e-11
1.62452e-08
1.59222e-11
1.52135e-08
1.0932e-11
1.32619e-08
1.06071e-08
3.80202e-12
1.45098e-11
1.03101e-11
1.2082e-08
1.18461e-11
9.98698e-12
1.11796e-08
7.35818e-12
9.78748e-12
9.41974e-09
9.89535e-12
6.88198e-09
1.93555e-12
1.39055e-11
6.96782e-12
1.36601e-08
1.16105e-11
7.22553e-12
1.27077e-08
7.15646e-12
7.74e-12
1.0866e-08
8.29034e-12
8.25447e-09
2.06896e-12
1.2881e-11
3.40047e-12
1.51171e-08
1.09897e-11
3.76823e-12
1.41127e-08
6.90883e-12
4.39748e-12
1.21906e-08
4.97104e-12
9.52149e-09
2.05807e-12
1.13093e-11
1.62484e-08
9.6832e-12
1.52189e-08
6.08078e-12
1.32699e-08
1.06164e-08
1.72339e-12
1.00326e-11
8.39693e-12
1.2085e-08
7.65976e-12
8.02997e-12
1.11832e-08
4.36438e-12
7.64757e-12
9.42367e-09
7.39519e-12
6.88558e-09
8.05662e-13
9.49798e-12
5.91475e-12
1.36635e-08
7.37596e-12
5.94172e-12
1.27118e-08
4.16216e-12
6.02459e-12
1.08708e-08
6.07424e-12
8.25908e-09
8.74827e-13
8.72084e-12
3.02556e-12
1.51207e-08
6.88742e-12
3.18193e-12
1.41173e-08
3.97003e-12
3.42115e-12
1.21961e-08
3.5956e-12
9.52703e-09
8.62121e-13
7.62248e-12
1.6252e-08
6.00459e-12
1.52237e-08
3.43309e-12
1.32759e-08
1.06227e-08
6.85367e-13
6.81233e-12
6.36707e-12
1.20874e-08
4.93426e-12
6.048e-12
1.1186e-08
2.58825e-12
5.67297e-12
9.42651e-09
5.34858e-12
6.88806e-09
2.66033e-13
6.3936e-12
4.59607e-12
1.36662e-08
4.68311e-12
4.53962e-12
1.27151e-08
2.42808e-12
4.46383e-12
1.08743e-08
4.34605e-12
8.26222e-09
3.01473e-13
5.83222e-12
2.41373e-12
1.51237e-08
4.32647e-12
2.4701e-12
1.41209e-08
2.29434e-12
2.53746e-12
1.22e-08
2.54009e-12
9.53078e-09
3.21974e-13
5.08068e-12
1.62552e-08
3.73741e-12
1.52276e-08
1.94912e-12
1.32803e-08
1.0627e-08
1.99304e-13
4.38974e-12
4.41759e-12
1.20891e-08
3.05427e-12
4.18196e-12
1.11879e-08
1.48425e-12
3.89083e-12
9.42841e-09
3.61651e-12
6.88968e-09
3.20783e-14
4.09724e-12
3.23818e-12
1.36682e-08
2.86968e-12
3.16942e-12
1.27173e-08
1.3791e-12
3.06329e-12
1.08766e-08
2.91613e-12
8.26427e-09
6.10863e-14
3.72023e-12
1.72983e-12
1.51259e-08
2.62991e-12
1.74398e-12
1.41234e-08
1.29493e-12
1.74644e-12
1.22027e-08
1.69872e-12
9.53322e-09
7.39185e-14
3.23367e-12
1.62575e-08
2.25619e-12
1.52303e-08
1.08467e-12
1.32832e-08
1.06298e-08
1.14564e-14
2.46692e-12
2.62603e-12
1.20902e-08
1.66667e-12
2.48219e-12
1.1189e-08
7.62207e-13
2.29845e-12
9.42952e-09
2.12192e-12
6.89061e-09
-4.18542e-14
2.29451e-12
1.94545e-12
1.36694e-08
1.55432e-12
1.89465e-12
1.27186e-08
6.99153e-13
1.813e-12
1.08779e-08
1.70461e-12
8.26543e-09
-2.62118e-14
2.07723e-12
1.05538e-12
1.51272e-08
1.41643e-12
1.05518e-12
1.41249e-08
6.5303e-13
1.04167e-12
1.22043e-08
9.95036e-13
9.5346e-09
-1.5885e-14
1.80243e-12
1.6259e-08
1.20931e-12
1.5232e-08
5.41813e-13
1.32849e-08
1.06314e-08
-4.66666e-14
9.66627e-13
1.22561e-12
6.07011e-13
1.15733e-12
2.26237e-13
1.06806e-12
9.77762e-13
-9.37808e-14
8.93583e-13
9.15044e-13
5.59119e-13
8.85374e-13
2.007e-13
8.37828e-13
7.76447e-13
-8.20109e-14
8.04233e-13
4.93806e-13
5.04479e-13
4.87075e-13
1.85222e-13
4.708e-13
4.40228e-13
-7.16127e-14
6.8954e-13
4.22477e-13
1.46064e-13
-7.55257e-14
2.17177e-09
-1.45953e-09
1.43491e-08
2.71319e-09
-2.94116e-10
1.37221e-08
2.4909e-09
-5.30279e-10
1.62265e-08
-1.61522e-09
2.24922e-08
2.56574e-09
5.89186e-11
7.24493e-09
1.48222e-09
-3.08894e-10
1.37364e-08
3.67126e-10
-3.76615e-11
1.48666e-08
3.51275e-10
1.41198e-08
1.3982e-09
2.43409e-09
5.16354e-09
1.98099e-09
3.67687e-10
9.64379e-09
1.93673e-09
1.19345e-09
1.10755e-08
1.03334e-09
1.50086e-08
-1.21888e-09
1.11035e-08
3.23468e-09
3.42393e-09
2.44761e-09
1.04474e-08
1.36679e-08
-3.35175e-10
1.2713e-09
9.03888e-09
5.70558e-09
1.27551e-09
6.00737e-09
2.42484e-09
-4.35803e-10
2.22453e-08
-8.24269e-10
2.49123e-08
3.36798e-10
2.06935e-10
8.89779e-09
1.59979e-10
1.52928e-12
1.51872e-08
4.89556e-10
-1.02993e-09
1.51312e-08
-2.66025e-10
1.40493e-08
1.87991e-10
-4.23182e-11
7.28119e-09
-9.04834e-10
-2.01948e-10
1.09401e-08
1.50248e-09
-6.73003e-11
7.70557e-09
-6.65892e-10
1.68902e-08
-8.24743e-10
1.32964e-08
-2.71755e-10
2.44334e-09
1.54767e-09
7.86838e-09
1.37723e-08
1.1069e-09
-3.82179e-10
1.03909e-08
-1.6421e-09
-1.04231e-09
1.0494e-08
1.92538e-09
-4.08289e-10
1.88713e-08
1.85104e-10
2.64503e-08
1.53658e-09
1.31052e-10
7.50832e-09
-2.11662e-09
7.87474e-10
1.70106e-08
2.28811e-09
7.63162e-10
9.555e-09
5.511e-11
1.64644e-08
1.67319e-09
-1.25733e-09
6.8413e-09
-4.83043e-10
-1.23415e-09
1.5118e-08
8.37943e-10
-1.22407e-09
8.37182e-09
-2.49315e-09
2.0293e-08
4.37707e-10
1.18374e-08
-1.03837e-09
3.36475e-09
-1.3126e-09
7.27121e-09
1.02579e-08
-2.4268e-10
-1.20526e-09
1.44309e-08
-1.53994e-10
-1.1167e-09
1.131e-08
-2.30488e-09
3.94958e-10
1.91333e-08
2.96671e-10
2.22721e-08
5.88842e-10
2.18187e-10
4.45584e-09
2.04941e-09
2.31262e-10
1.42021e-08
-1.91042e-09
-8.40708e-10
1.47505e-08
-6.69683e-10
1.55178e-08
7.80401e-10
-7.91925e-10
5.01608e-09
-1.00903e-09
2.73898e-10
1.68648e-08
1.98972e-10
1.53684e-10
6.16943e-09
-5.01781e-10
2.02702e-08
1.76188e-09
8.35843e-09
-7.97907e-10
7.46665e-09
-1.43886e-09
8.70814e-09
8.92004e-09
-5.90449e-10
3.87513e-10
1.50507e-08
2.46132e-10
-4.40468e-10
1.10426e-08
-3.84793e-09
-3.49256e-10
2.38865e-08
7.7463e-10
1.53021e-08
-1.23157e-09
-6.0731e-10
7.21001e-09
1.47697e-09
-9.87298e-10
1.20404e-08
-6.01704e-10
-1.16636e-09
1.76463e-08
-1.77451e-09
1.74652e-08
8.82618e-10
-5.23059e-10
3.62855e-09
-5.92767e-12
-1.16443e-09
1.79304e-08
-2.50359e-09
-3.5042e-10
7.85116e-09
6.41343e-10
1.5304e-08
6.03084e-11
7.30169e-09
2.27727e-10
6.41154e-09
8.68882e-11
8.55823e-09
9.92047e-09
1.65701e-09
2.5373e-09
7.32774e-09
-3.09842e-09
-4.55062e-10
1.45502e-08
-2.46663e-10
2.55326e-09
1.44825e-08
8.70515e-10
1.2771e-08
-1.44999e-09
-4.03243e-11
1.04046e-08
1.78073e-09
-1.40872e-09
9.76334e-09
-2.60885e-09
-2.79104e-09
2.73802e-08
-4.48543e-09
2.02688e-08
-2.46696e-09
-6.25792e-10
7.61788e-09
-2.84819e-09
-3.04375e-09
1.99467e-08
-4.62503e-09
3.38873e-10
6.49809e-09
1.2832e-09