/*--------------------------------*- C++ -*----------------------------------*\
| =========                 |                                                 |
| \\      /  F ield         | OpenFOAM: The Open Source CFD Toolbox           |
|  \\    /   O peration     | Version:  2506                                  |
|   \\  /    A nd           | Website:  www.openfoam.com                      |
|    \\/     M anipulation  |                                                 |
\*---------------------------------------------------------------------------*/
FoamFile
{
    version     2.0;
    format      ascii;
    arch        "LSB;label=32;scalar=64";
    class       volVectorField;
    location    "0.01";
    object      U;
}
// * * * * * * * * * * * * * * * * * * * * * * * * * * * * * * * * * * * * * //

dimensions      [0 1 -1 0 0 0 0];

internalField   nonuniform List<vector> 
1152
(
(0.00062185 0.00176516 0.0116803)
(-0.000303602 4.85043e-05 0.00338099)
(-1.86795e-05 -0.000485692 0.00622615)
(6.21349e-05 -0.000173275 0.00251514)
(0.00081664 -0.00218271 0.0107986)
(-0.000511369 0.000393486 0.00487776)
(-0.000141137 -9.18485e-05 0.00504741)
(0.000162457 0.000254661 0.0054634)
(-3.46314e-06 -1.70448e-05 0.00193424)
(0.000264869 0.000284002 0.00532856)
(-7.30442e-05 0.00103125 0.00578462)
(-3.6768e-05 0.000949613 0.0064065)
(-0.000111988 0.000743741 0.00388584)
(0.000716436 2.91469e-05 0.00466031)
(0.00068372 0.000799931 0.00440287)
(0.00023665 0.00113325 0.00797031)
(-0.00203482 -0.00293809 0.0161356)
(0.000203186 4.55131e-05 0.00460124)
(0.00124255 0.0006212 0.0116134)
(-0.000270015 0.000632487 0.00835057)
(-0.000383619 0.00045234 0.00505853)
(0.00106478 0.000154921 0.00687319)
(0.000103179 -7.0487e-05 0.00457989)
(0.000370199 -0.000684904 0.00697278)
(0.0001459 0.000153677 0.000835764)
(-0.000451071 0.000353978 0.0140232)
(5.58449e-05 0.000103797 0.00457552)
(0.000695455 0.000320158 0.00675633)
(0.000902412 -0.00043958 0.0113455)
(7.89415e-05 0.000203439 0.00427377)
(0.000844652 -0.000212661 0.0157467)
(0.000113479 6.26923e-05 0.000720101)
(-0.000126036 7.82101e-05 0.00416244)
(0.00107319 -0.000488909 0.00816693)
(7.1113e-05 -0.000193727 0.00348901)
(0.00104991 0.000962263 0.0194064)
(-0.000131908 0.000412908 0.00265042)
(0.000212077 -0.000112843 0.0096388)
(0.000596636 7.10028e-05 0.00994736)
(0.000199618 0.000214475 0.00448061)
(-0.000125788 0.000194461 0.00996817)
(4.12991e-05 0.000301545 0.00674193)
(0.000767396 -0.000138662 0.00708513)
(0.000273459 0.000214666 0.00655546)
(0.000191004 -0.000231365 0.00869974)
(-6.77997e-05 0.000581911 0.00648154)
(0.000310528 -0.000207384 0.00540498)
(0.000993144 -0.00136208 0.0167689)
(0.000514783 1.3044e-05 0.00309913)
(0.000378054 -1.7554e-05 0.00351084)
(-0.00245996 -2.13349e-05 0.0130575)
(-2.33556e-05 -0.000469429 0.00590316)
(0.00046359 0.000839147 0.00985695)
(0.000334557 -0.000597862 0.00456328)
(0.00027781 -0.000125291 0.00509981)
(-0.000658552 0.000821136 0.00735859)
(1.67682e-06 0.000176918 0.00569736)
(0.00030769 0.000170342 0.010987)
(0.0003784 -0.000502564 0.00700778)
(-0.000287395 -0.000592417 0.0108759)
(0.000436384 0.000805212 0.0131197)
(-2.06748e-05 0.000298387 0.00628103)
(2.5641e-05 -0.000169581 0.0135727)
(-0.000457089 -0.00104186 0.010449)
(-7.47776e-05 0.00010186 -9.29727e-05)
(0.00045446 0.000486319 0.019317)
(-7.32246e-05 -7.19535e-05 0.00234857)
(-4.31123e-05 -0.000353626 0.00685951)
(0.000725153 -0.000270415 0.00681344)
(3.43103e-05 -0.000407179 0.00461071)
(1.93054e-06 -0.000633285 0.0154487)
(0.00022152 -0.000547346 0.00859505)
(-0.000212726 0.000127874 0.00855361)
(0.000238575 -0.000679287 0.00929431)
(0.000262188 -6.09396e-05 0.00566185)
(-0.000303933 -0.000982351 0.0149983)
(-0.000209769 0.000967632 0.00764689)
(-0.000175262 0.000226777 0.0049816)
(3.53576e-05 6.23812e-05 0.00459933)
(-0.000810216 -0.00086383 0.0142643)
(9.71323e-05 -6.87243e-05 0.01268)
(0.000459306 -0.000560037 0.00510332)
(0.000941585 -0.00060594 0.00648327)
(-0.00018992 0.000345477 0.00541085)
(0.00096358 8.16073e-05 0.0101053)
(0.00102673 0.000160695 0.00559579)
(0.000441317 0.000165801 0.00319639)
(7.81489e-05 1.24959e-05 0.00391622)
(-6.22148e-05 -0.000228972 0.00167041)
(0.000168689 -6.77101e-05 0.00219134)
(0.00020059 -0.000345619 0.00346166)
(0.00019996 -0.00155687 0.00630599)
(0.00108198 -0.000424829 0.0120916)
(-4.69563e-05 -0.000264008 0.00141661)
(-0.00188471 -0.0004495 0.0106171)
(-0.000125536 0.00055434 0.00734671)
(-0.00261013 -0.00216601 -0.00103897)
(0.000282267 -0.00101446 0.00583653)
(-0.00234098 -0.00013214 0.000463207)
(-0.000105728 6.9909e-05 0.00539478)
(-0.000141949 4.96116e-05 0.00450377)
(-3.93748e-05 -0.000532102 0.00715236)
(-0.00155004 -0.000110919 0.008913)
(-0.000434006 -0.000264121 0.00852475)
(0.00157008 -0.00229021 0.00418308)
(-0.00152477 -0.00436864 0.00226127)
(-0.00072741 9.25977e-05 0.00443928)
(0.00115454 -0.000783566 0.00862046)
(-3.89141e-05 -0.00015991 0.000852313)
(-0.000548036 -0.000666432 0.00660042)
(-0.000379698 -0.000478526 0.00515364)
(-0.00202754 -0.00357556 0.00155129)
(0.000212434 -0.000745048 0.0123584)
(-0.000624717 -0.00145427 0.00698783)
(-0.00102442 0.000179686 0.00139498)
(-0.00015718 -0.000325175 0.00955977)
(-3.92061e-05 -0.000543369 0.00976767)
(-0.000482905 -0.000109843 0.012363)
(-0.000816643 0.000133209 0.00840342)
(-0.000457143 -0.000563694 0.00980626)
(0.00062739 -0.000211514 0.00836841)
(-0.000204678 0.000834202 0.00797993)
(-0.00170564 0.0013644 0.00581328)
(-0.00241827 -0.000535436 0.0137458)
(0.000828406 -0.000812956 0.00312954)
(-0.00103443 0.00210839 0.00545151)
(-0.00482916 0.00306678 0.0080403)
(-0.00670938 -5.7581e-05 0.0134383)
(-0.000112996 0.00041406 0.00100738)
(0.000659359 0.000758857 0.000893626)
(0.000258815 -0.00028245 0.000543768)
(-0.000841978 -0.000842016 0.0016192)
(-0.000529427 0.000140978 0.001377)
(0.000163232 1.46784e-05 0.00169433)
(0.000238719 -0.000500661 0.00154395)
(-0.000378076 -0.00064752 0.0020658)
(-0.000221363 0.000184341 0.00123403)
(-3.39298e-05 0.000145991 0.00107839)
(-0.000489993 -7.90061e-05 0.0011272)
(-0.000991744 -6.45807e-05 0.00261495)
(-0.000505595 -0.000909845 0.00114983)
(-0.000486442 -0.00134517 0.000960063)
(-0.000465479 -0.000299565 0.00117469)
(-0.000265689 0.000367948 0.00271669)
(1.42358e-05 0.000105408 0.00451371)
(0.000182461 9.738e-05 0.00453186)
(0.000104873 -6.14269e-05 0.00398411)
(-0.000186267 -0.000178567 0.00436822)
(-0.000139367 2.69058e-05 0.00452529)
(7.89494e-05 -5.79759e-06 0.00475392)
(0.000133742 -8.3118e-05 0.00440814)
(-3.01989e-05 -9.9579e-05 0.00460096)
(-5.38165e-05 9.77721e-06 0.00440768)
(6.63666e-05 5.62163e-05 0.00454297)
(2.29967e-06 8.75992e-05 0.00442372)
(-8.72513e-05 0.000244806 0.00491277)
(-5.60677e-05 -0.000339534 0.00436667)
(0.000114158 -0.000363311 0.00467997)
(0.000282112 -8.742e-05 0.00459331)
(0.000605623 0.000350033 0.00469226)
(1.45971e-05 6.51258e-05 0.00381308)
(8.25385e-05 4.23863e-05 0.0038286)
(7.85187e-05 -7.76642e-07 0.00370514)
(-1.78424e-05 -2.40147e-05 0.00378718)
(-3.54409e-05 2.20583e-05 0.00383295)
(4.90043e-05 4.38715e-06 0.00390125)
(8.66898e-05 -1.58838e-05 0.00380041)
(3.36171e-05 -2.53015e-06 0.00384123)
(-2.29223e-05 -1.6495e-05 0.00380918)
(4.43015e-05 -4.68015e-06 0.00384773)
(7.2418e-05 2.36425e-05 0.00378624)
(5.59714e-05 0.000119736 0.00388862)
(-1.81128e-05 -0.000130578 0.00382359)
(8.62754e-05 -0.000136216 0.00386732)
(0.00021503 -5.81379e-05 0.00376391)
(0.000338241 0.000104169 0.00368734)
(2.09987e-05 4.75632e-05 0.00385285)
(4.93295e-05 3.5078e-05 0.00385875)
(5.49254e-05 2.43381e-05 0.00381646)
(2.59398e-05 2.28766e-05 0.00382831)
(5.23259e-06 2.35989e-05 0.00385505)
(3.9589e-05 1.71068e-05 0.00387723)
(5.93574e-05 1.63594e-05 0.00384202)
(4.59944e-05 3.11747e-05 0.00384275)
(5.88041e-06 -3.43194e-06 0.00385316)
(4.21713e-05 2.72501e-06 0.00387086)
(7.00782e-05 2.37652e-05 0.00384558)
(7.1923e-05 7.34726e-05 0.00385276)
(1.13617e-05 -4.52633e-05 0.00387211)
(6.64207e-05 -4.12462e-05 0.00388805)
(0.000133235 -9.822e-06 0.00383939)
(0.000186425 5.47322e-05 0.00377375)
(2.1959e-05 3.66406e-05 0.0038607)
(3.45546e-05 3.11384e-05 0.00385916)
(3.85018e-05 2.82189e-05 0.00384282)
(2.96244e-05 2.95341e-05 0.00383849)
(1.60125e-05 2.25805e-05 0.00385772)
(3.18698e-05 2.04648e-05 0.00386112)
(4.13364e-05 2.27716e-05 0.0038464)
(3.8074e-05 3.14711e-05 0.0038382)
(1.53464e-05 6.41431e-06 0.00385815)
(3.47806e-05 9.39349e-06 0.00386078)
(5.01146e-05 2.03191e-05 0.00384598)
(5.21277e-05 4.24164e-05 0.00383281)
(1.79918e-05 -1.26722e-05 0.00386778)
(4.54588e-05 -9.4786e-06 0.00386745)
(7.54599e-05 3.52932e-06 0.00384002)
(9.57108e-05 2.8576e-05 0.00379618)
(1.95309e-05 2.87499e-05 0.00386347)
(2.546e-05 2.60843e-05 0.00386)
(2.75874e-05 2.50582e-05 0.00385175)
(2.43935e-05 2.58414e-05 0.00384587)
(1.67352e-05 2.02243e-05 0.00385987)
(2.4514e-05 1.93155e-05 0.00385785)
(2.90279e-05 2.08384e-05 0.0038497)
(2.78208e-05 2.49588e-05 0.00384188)
(1.60209e-05 1.03179e-05 0.00385932)
(2.60843e-05 1.15291e-05 0.00385693)
(3.35444e-05 1.64231e-05 0.00384725)
(3.41607e-05 2.56175e-05 0.00383532)
(1.68073e-05 -9.33607e-08 0.003863)
(3.03647e-05 1.52598e-06 0.00385886)
(4.34399e-05 6.83877e-06 0.00384337)
(5.06419e-05 1.66622e-05 0.0038181)
(1.59784e-05 2.23441e-05 0.00386526)
(1.89187e-05 2.0866e-05 0.00386185)
(1.99093e-05 2.02424e-05 0.00385665)
(1.82978e-05 2.03476e-05 0.00385171)
(1.44319e-05 1.70614e-05 0.00386184)
(1.83254e-05 1.64221e-05 0.00385891)
(2.03722e-05 1.69739e-05 0.00385354)
(1.9491e-05 1.85654e-05 0.00384757)
(1.37513e-05 1.08764e-05 0.00386043)
(1.88343e-05 1.11229e-05 0.00385727)
(2.22219e-05 1.29947e-05 0.00385081)
(2.19802e-05 1.6535e-05 0.00384243)
(1.36731e-05 4.58738e-06 0.00386127)
(2.02708e-05 5.14046e-06 0.00385722)
(2.58595e-05 7.17392e-06 0.00384803)
(2.80268e-05 1.07956e-05 0.0038331)
(1.24829e-05 1.71112e-05 0.00386675)
(1.39762e-05 1.62001e-05 0.00386387)
(1.43439e-05 1.56782e-05 0.00386022)
(1.32724e-05 1.54204e-05 0.00385644)
(1.15334e-05 1.37895e-05 0.00386376)
(1.34739e-05 1.32512e-05 0.00386111)
(1.42927e-05 1.32447e-05 0.00385734)
(1.34992e-05 1.36365e-05 0.00385304)
(1.09405e-05 9.85665e-06 0.00386204)
(1.34331e-05 9.68427e-06 0.00385929)
(1.48263e-05 1.01934e-05 0.00385495)
(1.42523e-05 1.13538e-05 0.00384929)
(1.05717e-05 5.85131e-06 0.00386157)
(1.36985e-05 5.87326e-06 0.0038584)
(1.59663e-05 6.45293e-06 0.00385268)
(1.62848e-05 7.61438e-06 0.00384317)
(9.48667e-06 1.29273e-05 0.00386787)
(1.02371e-05 1.23261e-05 0.0038656)
(1.02952e-05 1.18782e-05 0.00386295)
(9.49352e-06 1.1499e-05 0.00386013)
(8.86625e-06 1.08077e-05 0.0038654)
(9.808e-06 1.036e-05 0.00386326)
(1.00413e-05 1.01262e-05 0.00386058)
(9.34219e-06 1.00247e-05 0.0038575)
(8.38085e-06 8.26329e-06 0.00386372)
(9.55699e-06 7.95733e-06 0.00386157)
(1.00199e-05 7.92391e-06 0.0038586)
(9.38534e-06 8.1351e-06 0.00385471)
(7.96346e-06 5.63762e-06 0.00386274)
(9.39572e-06 5.44979e-06 0.00386038)
(1.0206e-05 5.45353e-06 0.00385663)
(9.9008e-06 5.65331e-06 0.00384995)
(7.07439e-06 9.64499e-06 0.00386869)
(7.43719e-06 9.23578e-06 0.00386694)
(7.35818e-06 8.86928e-06 0.00386501)
(6.74181e-06 8.49452e-06 0.00386291)
(6.65769e-06 8.27875e-06 0.00386671)
(7.08918e-06 7.92389e-06 0.00386506)
(7.06312e-06 7.63759e-06 0.00386313)
(6.47902e-06 7.37715e-06 0.0038609)
(6.28034e-06 6.61377e-06 0.00386523)
(6.79745e-06 6.30438e-06 0.00386359)
(6.8513e-06 6.09039e-06 0.00386153)
(6.2753e-06 5.96188e-06 0.00385873)
(5.90933e-06 4.85538e-06 0.00386411)
(6.51806e-06 4.61591e-06 0.00386238)
(6.70775e-06 4.42173e-06 0.00385976)
(6.26146e-06 4.28268e-06 0.00385461)
(5.18987e-06 7.09816e-06 0.00386927)
(5.3554e-06 6.8182e-06 0.00386795)
(5.22836e-06 6.53364e-06 0.00386653)
(4.75709e-06 6.2148e-06 0.00386495)
(4.90849e-06 6.21561e-06 0.00386771)
(5.08635e-06 5.94574e-06 0.00386646)
(4.96187e-06 5.68355e-06 0.00386506)
(4.49461e-06 5.40821e-06 0.0038634)
(4.62719e-06 5.11663e-06 0.00386647)
(4.82464e-06 4.85317e-06 0.00386524)
(4.71836e-06 4.61256e-06 0.00386377)
(4.23866e-06 4.39457e-06 0.00386164)
(4.33019e-06 3.92625e-06 0.00386539)
(4.55037e-06 3.70381e-06 0.00386409)
(4.49336e-06 3.47478e-06 0.00386217)
(4.06345e-06 3.25347e-06 0.00385786)
(3.7339e-06 5.12699e-06 0.0038697)
(3.80348e-06 4.93722e-06 0.00386869)
(3.67311e-06 4.72618e-06 0.00386763)
(3.32028e-06 4.47682e-06 0.00386642)
(3.54539e-06 4.56044e-06 0.00386847)
(3.60355e-06 4.36229e-06 0.00386752)
(3.45837e-06 4.15004e-06 0.00386648)
(3.09961e-06 3.91413e-06 0.0038652)
(3.34308e-06 3.8331e-06 0.00386744)
(3.3942e-06 3.62761e-06 0.00386651)
(3.24431e-06 3.41785e-06 0.00386542)
(2.86861e-06 3.20789e-06 0.00386372)
(3.11971e-06 3.02651e-06 0.00386646)
(3.16682e-06 2.84493e-06 0.00386547)
(3.03188e-06 2.64141e-06 0.00386396)
(2.6772e-06 2.43014e-06 0.00386013)
(2.60342e-06 3.58804e-06 0.00387001)
(2.62841e-06 3.46227e-06 0.00386923)
(2.51679e-06 3.31313e-06 0.00386842)
(2.26246e-06 3.13105e-06 0.00386745)
(2.47975e-06 3.23014e-06 0.00386903)
(2.48643e-06 3.09067e-06 0.00386829)
(2.35727e-06 2.93258e-06 0.0038675)
(2.09462e-06 2.75179e-06 0.00386647)
(2.34003e-06 2.75461e-06 0.00386817)
(2.33173e-06 2.60491e-06 0.00386745)
(2.19137e-06 2.44291e-06 0.00386662)
(1.9137e-06 2.27414e-06 0.00386518)
(2.18099e-06 2.21661e-06 0.00386729)
(2.16045e-06 2.08061e-06 0.00386651)
(2.02216e-06 1.9211e-06 0.00386526)
(1.75438e-06 1.7527e-06 0.00386172)
(1.70648e-06 2.35959e-06 0.00387023)
(1.71183e-06 2.2805e-06 0.0038696)
(1.62937e-06 2.1825e-06 0.00386895)
(1.45872e-06 2.06012e-06 0.00386815)
(1.62936e-06 2.14224e-06 0.00386942)
(1.61835e-06 2.05103e-06 0.00386882)
(1.52122e-06 1.94369e-06 0.00386819)
(1.34314e-06 1.81881e-06 0.00386733)
(1.539e-06 1.84529e-06 0.00386869)
(1.51393e-06 1.74512e-06 0.00386811)
(1.40603e-06 1.63271e-06 0.00386744)
(1.2168e-06 1.5135e-06 0.00386616)
(1.43388e-06 1.50375e-06 0.0038679)
(1.39673e-06 1.41091e-06 0.00386725)
(1.28698e-06 1.29878e-06 0.00386616)
(1.10281e-06 1.18127e-06 0.00386279)
(9.71157e-07 1.35372e-06 0.00387036)
(9.69804e-07 1.30983e-06 0.00386983)
(9.19737e-07 1.25393e-06 0.00386929)
(8.21244e-07 1.18294e-06 0.00386858)
(9.28753e-07 1.23582e-06 0.00386966)
(9.16475e-07 1.1841e-06 0.00386916)
(8.56834e-07 1.12164e-06 0.00386863)
(7.53337e-07 1.04809e-06 0.00386785)
(8.77868e-07 1.07193e-06 0.00386903)
(8.56024e-07 1.01434e-06 0.00386853)
(7.88873e-07 9.48087e-07 0.00386795)
(6.78564e-07 8.7711e-07 0.00386676)
(8.17771e-07 8.80849e-07 0.00386829)
(7.87602e-07 8.2677e-07 0.00386772)
(7.1823e-07 7.60275e-07 0.00386673)
(6.106e-07 6.91064e-07 0.00386345)
(4.00846e-07 6.07413e-07 0.00387043)
(3.984e-07 5.87703e-07 0.00386995)
(3.76399e-07 5.62249e-07 0.00386946)
(3.3521e-07 5.29749e-07 0.00386881)
(3.82176e-07 5.58128e-07 0.0038698)
(3.74284e-07 5.35041e-07 0.00386934)
(3.47585e-07 5.06633e-07 0.00386886)
(3.03934e-07 4.72663e-07 0.00386813)
(3.59939e-07 4.881e-07 0.00386921)
(3.47122e-07 4.62582e-07 0.00386876)
(3.16324e-07 4.32469e-07 0.00386822)
(2.69279e-07 3.99214e-07 0.00386708)
(3.33832e-07 4.04747e-07 0.00386851)
(3.16577e-07 3.804e-07 0.00386798)
(2.83711e-07 3.50034e-07 0.00386703)
(2.36997e-07 3.1721e-07 0.0038638)
(-0.00015109 0.000326487 0.00836437)
(-2.93108e-05 0.000104627 0.00406527)
(0.00146926 9.12592e-05 0.00999195)
(4.97044e-05 0.000692916 0.00370998)
(-9.84011e-05 0.00023896 0.00322392)
(0.000325667 0.000326487 0.00293077)
(0.00138507 0.000330007 0.00645051)
(0.000524851 0.00152772 0.00583029)
(0.000297673 0.000288441 0.00775661)
(0.000472983 0.00062275 0.00524926)
(0.000780891 0.000332369 0.00613648)
(0.000856918 0.00173364 0.00730508)
(5.75673e-06 -5.42304e-05 0.000889781)
(0.000263287 -9.42713e-05 0.0032907)
(0.000823485 -0.000397754 0.00603335)
(0.000490276 0.000350017 0.00635771)
(-0.000723235 0.000136817 0.00888448)
(-5.04247e-05 0.000549408 0.00479028)
(6.68419e-05 -7.51349e-05 0.00869827)
(0.00133896 6.31136e-05 0.0109469)
(-0.000205968 0.000194773 0.0100103)
(-3.19804e-05 3.87e-05 0.00747792)
(0.00013888 0.000269928 0.00164863)
(0.000299455 0.000187775 0.00403411)
(0.000316149 0.000261937 0.00751823)
(0.000334934 -0.000132452 0.0110236)
(9.31467e-05 0.000373772 0.0109199)
(-0.000219659 0.000362108 0.0109304)
(0.000806323 0.000883419 0.0140183)
(-0.000227997 0.000463867 0.0105643)
(-0.00017467 -0.000246009 0.00517636)
(0.000501108 0.000377289 0.0125609)
(7.54926e-05 2.61752e-05 0.00415681)
(-1.25631e-05 7.35612e-05 0.00985182)
(-0.000175484 0.000431769 0.00719953)
(0.000129151 1.76529e-05 0.000641929)
(3.04966e-05 0.000140095 0.00198289)
(0.00013893 -0.00083967 0.0116181)
(2.81107e-05 0.000124648 0.0078149)
(-0.000199116 -0.00133868 0.0158071)
(-0.000383629 -0.000470784 0.00750065)
(-0.000158292 -0.000252604 0.00404024)
(-0.000347477 -0.000524553 0.0160057)
(-0.000144277 -0.000502978 0.00649503)
(-0.000638902 -0.000586902 0.00491986)
(0.000245897 -0.000610447 0.0106569)
(0.000140296 -2.5154e-05 0.00632444)
(-0.000223351 -4.15702e-05 0.0155461)
(0.000519259 0.000556819 0.00487617)
(-0.000494287 0.000179244 0.0121939)
(-0.000228955 9.78787e-05 0.00484092)
(-0.000308872 -0.000423174 0.00754919)
(0.000487168 7.75199e-05 0.00807113)
(-0.000526162 0.000359714 0.00681694)
(-0.000319242 -1.36722e-05 0.00786135)
(2.68269e-05 -0.000981305 0.0115956)
(5.89758e-06 -0.000984787 0.0144218)
(-0.000506535 -0.000182102 0.0111226)
(-0.000828348 0.000290815 0.00930394)
(-0.000188828 -0.000371356 0.00636326)
(-0.000615534 -2.70555e-05 0.00990408)
(-0.000338954 -0.000535742 0.0070552)
(-0.000200773 0.000165907 0.00720519)
(-0.000511489 -0.000243601 0.0122463)
(0.0001823 0.000246852 0.00814212)
(-0.00100989 0.00117724 0.01385)
(-0.000198124 -0.00010802 0.00700213)
(-7.67345e-05 -0.000113342 0.0025212)
(-0.000867566 -0.000382521 0.0141846)
(-0.00023261 0.000174798 0.00547992)
(-0.000565894 -1.03182e-05 0.00912075)
(-0.000248745 3.61842e-05 0.0112369)
(-1.87854e-05 3.3977e-05 0.0010663)
(-0.000663584 0.000242251 0.0166796)
(-0.000392692 0.000884351 0.0154372)
(-0.000257312 -6.29596e-05 0.00617866)
(-0.000416985 0.000204153 0.0057883)
(-0.000302944 0.000167581 0.00750848)
(-0.000405451 0.000505034 0.00821316)
(-0.000804686 1.66562e-05 0.0129377)
(-0.00283631 0.00195375 0.0135658)
(0.000344136 -9.70937e-05 0.00365008)
(0.00124992 0.000281526 0.00558034)
(-0.00016011 5.27409e-05 0.00214461)
(0.000101402 0.000124648 0.00132049)
(0.000827775 0.00127991 0.0068816)
(-1.00231e-06 0.000230248 0.00348126)
(-0.00135639 0.000642955 0.0068031)
(-0.000859788 0.00141296 0.00874652)
(1.72176e-06 4.40888e-05 0.00489363)
(-0.000231876 -0.000504953 0.00394782)
(-4.91385e-05 0.000560901 0.00439476)
(-0.000399494 0.000294471 0.00555384)
(-0.000228442 0.000127249 0.00485634)
(-0.000176565 7.67895e-05 0.00696543)
(-0.000382556 0.000236178 0.00510151)
(0.000129439 -0.000408376 0.00208989)
(-0.00348893 0.00402854 -0.00110104)
(-0.00170882 0.00159316 0.00389174)
(-0.00241294 0.00111167 0.00684919)
(-0.000531199 -0.000576242 0.00603423)
(-0.000987978 -0.000770159 0.00626198)
(-0.000510669 -0.000476021 0.0072256)
(-0.00823124 3.9248e-05 0.000489771)
(1.63228e-07 -8.49923e-05 0.00526117)
(-0.00221083 0.000184257 0.00849496)
(-0.000587566 0.00123701 0.00800884)
(-0.00139673 -0.000229645 0.00561552)
(-4.17714e-05 9.43111e-05 0.00505466)
(-0.00143464 -0.00260009 0.00346675)
(5.25459e-05 -8.89539e-05 0.00596882)
(-0.000245907 -0.000394592 0.00730391)
(0.000758854 -0.000262099 0.0131683)
(-0.00405638 0.00395496 0.0238062)
(-0.00724973 0.00517872 0.0102018)
(-0.00459425 0.00196957 0.00931194)
(-0.000663875 0.000415633 0.00874031)
(-0.00145396 -0.000246395 0.0150066)
(-0.00123749 0.000921381 0.0124617)
(0.000604503 -0.00346091 0.00717973)
(0.000388364 0.000196718 0.00862961)
(0.000763632 0.000909475 0.012449)
(0.00168607 0.000377657 0.0097166)
(0.00375731 -0.0039564 0.00384817)
(0.000867209 -3.06613e-05 0.00759571)
(0.00094447 -0.000124908 0.009273)
(0.00159543 -0.000701065 0.00841523)
(0.00369345 -0.00357693 0.00511031)
(-0.00144629 -0.000337659 0.00279023)
(-0.000554167 -0.000233163 0.00231988)
(0.000399844 0.00012467 0.00152865)
(0.000771825 0.000391016 0.0018066)
(-0.00088797 0.000682727 0.00240959)
(-0.000276227 0.00111213 0.0033856)
(0.00117644 0.000247535 0.00266244)
(0.00201727 -0.000451495 0.000779434)
(-0.00033748 0.000357938 0.00221409)
(0.000223664 0.00075212 0.0025744)
(0.00160527 5.25163e-05 0.00175784)
(0.00219165 -0.00112874 -0.000598046)
(7.75267e-05 0.000129338 0.0020235)
(0.00018549 0.000197874 0.00187599)
(0.00120521 -0.00040128 0.00132903)
(0.00179902 -0.00143424 -0.000601494)
(-0.000195686 -0.000280204 0.00514307)
(0.000206426 -0.000380101 0.00577342)
(0.000594689 -0.000232378 0.00498445)
(0.000911101 0.000156962 0.00455015)
(-0.000125317 4.38695e-05 0.00483232)
(0.000226031 1.17695e-05 0.00549093)
(0.000903231 -0.000140431 0.00500599)
(0.00134701 -4.91032e-05 0.00410292)
(2.74939e-05 6.33824e-05 0.00464218)
(0.000358074 0.000116758 0.00508502)
(0.00101689 -0.000122413 0.00464198)
(0.00135843 -0.000405294 0.00362852)
(0.000152797 3.18445e-05 0.00439946)
(0.000325711 -1.34287e-06 0.00468807)
(0.000828636 -0.00029132 0.00437633)
(0.00109816 -0.000705504 0.00348557)
(-4.41949e-05 -0.000120685 0.00404341)
(0.000116147 -0.000157054 0.00410956)
(0.000306869 -0.000118953 0.00386005)
(0.000437689 1.104e-05 0.00361404)
(-1.63871e-05 -2.1753e-05 0.00401424)
(0.000136725 -4.21507e-05 0.00412926)
(0.000402085 -7.3486e-05 0.00385061)
(0.00054269 -1.83368e-05 0.00340068)
(3.2917e-05 -3.69123e-06 0.0039535)
(0.000167522 -1.0366e-05 0.00401186)
(0.000418836 -9.23835e-05 0.00369509)
(0.000520634 -0.000153226 0.00316276)
(6.69213e-05 -2.35677e-06 0.00380097)
(0.000149953 -3.19604e-05 0.00381792)
(0.000354829 -0.00014978 0.00352756)
(0.000425904 -0.00027341 0.00301406)
(9.5091e-06 -5.22737e-05 0.00394065)
(7.9354e-05 -6.14225e-05 0.00396083)
(0.000164868 -4.73305e-05 0.00387596)
(0.000214195 1.64641e-06 0.0037576)
(2.0301e-05 -2.62769e-05 0.00393892)
(9.32973e-05 -3.65735e-05 0.00396612)
(0.000198915 -4.08789e-05 0.00385211)
(0.000243564 -1.2119e-05 0.00366564)
(3.45788e-05 -1.38034e-05 0.00389806)
(0.000101667 -2.67487e-05 0.00390828)
(0.000203762 -5.50933e-05 0.00376987)
(0.000234045 -6.46478e-05 0.00354836)
(4.26687e-05 -6.27345e-06 0.0037849)
(9.3869e-05 -2.70884e-05 0.00378646)
(0.000180277 -7.74808e-05 0.00365259)
(0.000194457 -0.000117949 0.00342964)
(1.88027e-05 -2.142e-05 0.00389027)
(5.1093e-05 -2.35929e-05 0.00388855)
(8.69316e-05 -1.76874e-05 0.00384728)
(0.000103198 1.23124e-06 0.00378037)
(2.29915e-05 -1.6296e-05 0.00389033)
(5.81841e-05 -2.06901e-05 0.00388578)
(9.90478e-05 -2.02938e-05 0.00382461)
(0.000110726 -6.45509e-06 0.00372627)
(2.68605e-05 -1.11359e-05 0.0038555)
(6.01535e-05 -1.96478e-05 0.00384319)
(9.94699e-05 -3.03741e-05 0.00376383)
(0.000104681 -2.94427e-05 0.00364356)
(2.76917e-05 -5.36124e-06 0.00374969)
(5.56429e-05 -1.76161e-05 0.00373474)
(8.92124e-05 -3.95611e-05 0.00365302)
(8.68484e-05 -5.22822e-05 0.0035313)
(1.72007e-05 -7.07182e-06 0.00387046)
(3.2614e-05 -7.80481e-06 0.00386447)
(4.75628e-05 -5.62215e-06 0.0038422)
(5.19659e-05 2.14457e-06 0.00380415)
(1.86118e-05 -7.75877e-06 0.00386704)
(3.56451e-05 -9.74519e-06 0.00385695)
(5.15362e-05 -9.21753e-06 0.00382179)
(5.30778e-05 -2.45884e-06 0.00376562)
(1.92149e-05 -6.5958e-06 0.00383237)
(3.56942e-05 -1.13098e-05 0.00381648)
(5.06399e-05 -1.57156e-05 0.00376782)
(4.91815e-05 -1.33302e-05 0.00369629)
(1.83158e-05 -3.53189e-06 0.00372836)
(3.28671e-05 -1.03422e-05 0.003711)
(4.54379e-05 -2.02212e-05 0.00365982)
(4.03776e-05 -2.38431e-05 0.0035891)
(1.35647e-05 -5.16378e-07 0.00386304)
(2.0965e-05 -1.08873e-06 0.00385752)
(2.70593e-05 -5.67623e-07 0.00384425)
(2.74833e-05 2.62542e-06 0.00382027)
(1.38067e-05 -2.54751e-06 0.00385678)
(2.19076e-05 -3.643e-06 0.0038476)
(2.79826e-05 -3.58022e-06 0.00382528)
(2.68562e-05 -2.68317e-07 0.00378812)
(1.34491e-05 -3.12035e-06 0.00382104)
(2.13727e-05 -5.71892e-06 0.0038067)
(2.68383e-05 -7.68266e-06 0.00377335)
(2.42447e-05 -5.88016e-06 0.00372384)
(1.23182e-05 -2.01547e-06 0.00371704)
(1.94689e-05 -5.77731e-06 0.00370129)
(2.38166e-05 -1.03544e-05 0.00366583)
(1.94919e-05 -1.11373e-05 0.00361846)
(1.02136e-05 2.19515e-06 0.00386097)
(1.36576e-05 1.60828e-06 0.00385672)
(1.60202e-05 1.49864e-06 0.00384807)
(1.53372e-05 2.69879e-06 0.00383103)
(9.99378e-06 1.41521e-07 0.00385302)
(1.37304e-05 -6.2467e-07 0.00384569)
(1.58958e-05 -7.68446e-07 0.00382992)
(1.43361e-05 8.01359e-07 0.00380163)
(9.41743e-06 -1.00145e-06 0.00381628)
(1.30539e-05 -2.50676e-06 0.00380417)
(1.48175e-05 -3.49838e-06 0.00377862)
(1.25424e-05 -2.38223e-06 0.00373936)
(8.42383e-06 -1.01406e-06 0.0037119)
(1.16949e-05 -3.13016e-06 0.00369834)
(1.28776e-05 -5.3187e-06 0.00367101)
(9.76898e-06 -5.27645e-06 0.00363463)
(7.56398e-06 3.05095e-06 0.00386111)
(9.0851e-06 2.50223e-06 0.00385792)
(9.85802e-06 2.16843e-06 0.00385181)
(8.98369e-06 2.52717e-06 0.00383822)
(7.20362e-06 1.31334e-06 0.00385229)
(8.81377e-06 7.27278e-07 0.00384645)
(9.41185e-06 4.93708e-07 0.00383406)
(8.04596e-06 1.2239e-06 0.00381004)
(6.64346e-06 9.9036e-08 0.00381487)
(8.17206e-06 -8.34239e-07 0.00380449)
(8.51583e-06 -1.38137e-06 0.00378296)
(6.78903e-06 -7.39972e-07 0.00374861)
(5.85328e-06 -4.29858e-07 0.00371013)
(7.17531e-06 -1.65946e-06 0.00369828)
(7.18996e-06 -2.72876e-06 0.00367518)
(5.05768e-06 -2.4881e-06 0.00364408)
(5.54867e-06 3.02914e-06 0.00386207)
(6.15244e-06 2.56475e-06 0.00385964)
(6.27407e-06 2.20035e-06 0.00385493)
(5.49646e-06 2.21347e-06 0.00384311)
(5.19417e-06 1.66086e-06 0.00385283)
(5.79587e-06 1.20905e-06 0.00384798)
(5.78401e-06 9.70243e-07 0.00383742)
(4.72443e-06 1.29321e-06 0.00381552)
(4.72091e-06 5.71677e-07 0.00381503)
(5.24748e-06 -3.4864e-08 0.00380579)
(5.07488e-06 -3.65838e-07 0.00378638)
(3.831e-06 4.29477e-10 0.00375445)
(4.12171e-06 -1.24839e-07 0.00371003)
(4.50726e-06 -8.5917e-07 0.00369933)
(4.13728e-06 -1.39339e-06 0.00367846)
(2.696e-06 -1.14025e-06 0.00364996)
(4.03598e-06 2.6387e-06 0.00386322)
(4.21988e-06 2.27034e-06 0.0038613)
(4.09927e-06 1.95078e-06 0.00385738)
(3.46877e-06 1.8489e-06 0.00384651)
(3.73688e-06 1.59809e-06 0.0038538)
(3.88434e-06 1.2557e-06 0.00384959)
(3.66464e-06 1.04875e-06 0.00384002)
(2.86998e-06 1.18307e-06 0.0038192)
(3.3629e-06 6.98233e-07 0.0038158)
(3.44354e-06 2.90117e-07 0.00380728)
(3.12024e-06 8.02814e-08 0.00378902)
(2.23294e-06 2.96285e-07 0.00375829)
(2.91682e-06 1.71527e-08 0.00371065)
(2.89502e-06 -4.36195e-07 0.00370067)
(2.44966e-06 -7.0487e-07 0.003681)
(1.46719e-06 -4.84238e-07 0.0036538)
(2.89455e-06 2.12585e-06 0.00386429)
(2.89968e-06 1.84767e-06 0.0038627)
(2.71274e-06 1.59408e-06 0.00385924)
(2.23253e-06 1.46825e-06 0.00384888)
(2.66134e-06 1.35712e-06 0.0038548)
(2.62251e-06 1.10484e-06 0.00385099)
(2.36396e-06 9.40846e-07 0.00384197)
(1.78579e-06 9.89234e-07 0.00382174)
(2.37913e-06 6.54197e-07 0.00381672)
(2.2847e-06 3.76695e-07 0.00380864)
(1.9586e-06 2.40875e-07 0.003791)
(1.33454e-06 3.72387e-07 0.00376091)
(2.05378e-06 7.06471e-08 0.00371149)
(1.88422e-06 -2.15092e-07 0.00370194)
(1.48162e-06 -3.49767e-07 0.00368292)
(8.11576e-07 -1.72653e-07 0.0036564)
(2.01822e-06 1.60083e-06 0.00386516)
(1.96044e-06 1.40116e-06 0.00386379)
(1.78386e-06 1.2135e-06 0.00386061)
(1.43679e-06 1.10342e-06 0.00385054)
(1.84744e-06 1.05421e-06 0.00385568)
(1.75062e-06 8.755e-07 0.00385211)
(1.52429e-06 7.54501e-07 0.00384341)
(1.11765e-06 7.68219e-07 0.00382349)
(1.64433e-06 5.34907e-07 0.00381756)
(1.50479e-06 3.48577e-07 0.00380975)
(1.2347e-06 2.60881e-07 0.00379245)
(8.04456e-07 3.43302e-07 0.0037627)
(1.41486e-06 7.90557e-08 0.00371228)
(1.22168e-06 -1.01497e-07 0.003703)
(9.02704e-07 -1.6796e-07 0.00368434)
(4.50783e-07 -3.4842e-08 0.00365817)
(1.32487e-06 1.1056e-06 0.00386581)
(1.25965e-06 9.72531e-07 0.00386458)
(1.12471e-06 8.44643e-07 0.00386157)
(8.91785e-07 7.64138e-07 0.00385166)
(1.20952e-06 7.42301e-07 0.00385635)
(1.11522e-06 6.24109e-07 0.00385293)
(9.47777e-07 5.41969e-07 0.00384442)
(6.7879e-07 5.42841e-07 0.00382466)
(1.07361e-06 3.88166e-07 0.00381822)
(9.49589e-07 2.69115e-07 0.00381057)
(7.54504e-07 2.14758e-07 0.00379347)
(4.73691e-07 2.6515e-07 0.00376389)
(9.21846e-07 6.59143e-08 0.00371292)
(7.61885e-07 -4.4456e-08 0.0037038)
(5.36376e-07 -7.61773e-08 0.00368534)
(2.45569e-07 1.63754e-08 0.00365935)
(7.54895e-07 6.55335e-07 0.00386625)
(7.07542e-07 5.78924e-07 0.00386509)
(6.23815e-07 5.04359e-07 0.00386217)
(4.89211e-07 4.55976e-07 0.00385235)
(6.87951e-07 4.45718e-07 0.0038568)
(6.22742e-07 3.78167e-07 0.00385347)
(5.20665e-07 3.30277e-07 0.00384505)
(3.66634e-07 3.28458e-07 0.00382539)
(6.09535e-07 2.38187e-07 0.00381867)
(5.26818e-07 1.71722e-07 0.00381111)
(4.09501e-07 1.41988e-07 0.00379411)
(2.49905e-07 1.69791e-07 0.00376462)
(5.22418e-07 4.40869e-08 0.00371336)
(4.18783e-07 -1.5614e-08 0.00370433)
(2.84568e-07 -2.91487e-08 0.00368597)
(1.20709e-07 2.59373e-08 0.00366008)
(3.06501e-07 3.05948e-07 0.00386649)
(2.81154e-07 2.73734e-07 0.00386537)
(2.41729e-07 2.42178e-07 0.0038625)
(1.84896e-07 2.19646e-07 0.00385272)
(2.77719e-07 2.11201e-07 0.00385705)
(2.43998e-07 1.8348e-07 0.00385377)
(1.96822e-07 1.64105e-07 0.0038454)
(1.32883e-07 1.62137e-07 0.00382577)
(2.44366e-07 1.15121e-07 0.00381892)
(2.0271e-07 8.92307e-08 0.00381141)
(1.49266e-07 7.93861e-08 0.00379446)
(8.34749e-08 9.1956e-08 0.00376501)
(2.06707e-07 2.38405e-08 0.00371361)
(1.56095e-07 2.3267e-09 0.00370463)
(9.63927e-08 1.33745e-09 0.00368632)
(3.0219e-08 2.74322e-08 0.00366047)
(0.001235 0.000214893 0.00811203)
(0.00137584 0.000163064 0.00767317)
(0.000695373 -9.95653e-05 0.00378812)
(0.000706576 1.9786e-06 0.00630824)
(0.000545735 -0.000113524 0.00447997)
(0.00128735 7.70131e-05 0.00793291)
(0.000327403 -9.86238e-05 0.00447498)
(0.000112599 -0.000347395 0.00523775)
(6.23395e-05 0.000288524 0.00212937)
(0.000949227 0.000386771 0.00662195)
(0.000675392 0.000672741 0.00701973)
(0.000114723 0.000550187 0.00645954)
(-0.000698895 0.00170247 0.0113528)
(0.000185363 0.000709205 0.0036093)
(0.000863928 0.00161755 0.00676786)
(-7.82394e-05 0.000826401 0.00574781)
(-0.000836843 -7.22375e-05 0.00589955)