/*--------------------------------*- C++ -*----------------------------------*\
| =========                 |                                                 |
| \\      /  F ield         | OpenFOAM: The Open Source CFD Toolbox           |
|  \\    /   O peration     | Version:  2506                                  |
|   \\  /    A nd           | Website:  www.openfoam.com                      |
|    \\/     M anipulation  |                                                 |
\*---------------------------------------------------------------------------*/
FoamFile
{
    version     2.0;
    format      ascii;
    arch        "LSB;label=32;scalar=64";
    class       volVectorField;
    location    "0.01";
    object      Us;
}
// * * * * * * * * * * * * * * * * * * * * * * * * * * * * * * * * * * * * * //

dimensions      [0 1 -1 0 0 0 0];

internalField   nonuniform List<vector> 
1152
(
(-9.46673e-05 -1.32017e-05 3.64537e-06)
(-5.09669e-05 -5.36368e-05 -6.65154e-06)
(5.18989e-05 -3.78685e-05 7.66459e-06)
(3.17173e-05 -3.25778e-05 3.18288e-05)
(-3.15894e-06 1.78671e-05 -7.61104e-06)
(2.84662e-05 8.9018e-06 -1.30269e-06)
(6.0795e-05 -2.38382e-05 3.08989e-05)
(4.11976e-05 -5.4026e-05 3.71094e-05)
(2.72684e-05 2.22715e-05 -2.44449e-05)
(-1.90601e-05 0.000292455 1.69854e-06)
(9.07643e-05 2.3184e-06 2.82629e-05)
(7.28288e-05 3.07415e-05 3.76131e-05)
(3.87078e-05 0.000227014 1.98868e-05)
(0.000317003 0.00010015 2.3821e-05)
(0.000223595 3.38935e-05 2.13051e-05)
(9.44397e-05 2.19394e-05 7.46551e-05)
(-4.21401e-05 -0.000158885 -0.000121847)
(-4.70924e-05 -7.06868e-05 1.77128e-05)
(-7.11314e-06 -0.000103491 4.53974e-05)
(9.5039e-06 -7.13484e-05 6.96275e-05)
(-6.39395e-06 2.23654e-05 -4.0968e-06)
(-5.71327e-06 -3.00192e-05 -8.12817e-06)
(-1.89306e-06 -4.64623e-05 2.61312e-05)
(-3.54362e-06 -9.62487e-05 6.71943e-05)
(9.44292e-05 1.76428e-05 -1.63141e-05)
(5.32297e-05 -9.24272e-05 4.15183e-05)
(8.21786e-05 2.09204e-05 1.09119e-05)
(6.48285e-05 -1.1821e-06 8.86613e-05)
(5.72142e-05 2.81513e-05 5.70212e-05)
(6.07846e-05 8.58145e-06 4.0523e-05)
(9.95017e-05 4.37405e-05 3.5393e-05)
(7.11563e-05 3.22849e-05 0.000106244)
(-0.000118052 1.9926e-05 -1.74455e-05)
(-4.2355e-05 -4.11277e-05 -3.20545e-05)
(-5.11054e-05 -0.000103904 4.39916e-05)
(-3.62874e-07 -8.49171e-05 3.96763e-05)
(-8.19988e-05 2.72671e-05 -1.25789e-05)
(-1.94025e-06 -3.73234e-05 -2.80974e-05)
(2.74785e-05 -3.98112e-05 -2.72802e-05)
(2.78756e-05 -5.96668e-05 2.45454e-05)
(7.10226e-06 6.02287e-05 2.13254e-05)
(-6.97407e-06 -3.87707e-05 -3.79522e-05)
(8.47658e-06 4.90633e-05 -4.25543e-05)
(2.87377e-06 -2.39761e-05 2.73905e-06)
(5.01962e-05 6.51822e-05 5.72009e-05)
(4.69912e-05 6.09562e-05 7.66683e-05)
(4.94095e-05 6.3501e-05 7.36034e-05)
(7.99181e-05 0.000103777 0.000134401)
(-0.000157379 6.48068e-05 -0.000118228)
(-6.36316e-05 1.35389e-05 -0.000103585)
(-2.1858e-05 -2.54215e-05 -7.85676e-05)
(-2.75711e-05 -4.52041e-06 -5.51209e-05)
(-8.77181e-05 0.000119147 -0.000168693)
(-3.83047e-05 2.14798e-05 -0.000137859)
(-3.8261e-05 1.06142e-05 -0.000136073)
(-4.3212e-06 3.1575e-05 -2.12736e-05)
(-2.63637e-05 0.00013369 -2.19451e-05)
(-2.2489e-05 4.8361e-05 -4.57914e-05)
(-3.43376e-05 5.20605e-05 -8.54178e-05)
(3.32135e-05 -6.10321e-06 1.58193e-05)
(-2.22874e-05 0.000134647 9.88034e-05)
(-1.53e-05 5.53482e-05 7.32168e-05)
(3.32619e-05 4.00359e-05 5.58351e-05)
(4.70218e-05 7.87617e-07 7.10713e-05)
(-9.49343e-05 9.59425e-05 -0.000246156)
(-3.9175e-05 9.5406e-05 -0.000248148)
(-0.000162129 1.92311e-05 -0.000172697)
(-0.000177747 -4.36794e-05 -0.000222036)
(6.2236e-05 0.00011561 -0.000177696)
(-4.10783e-05 4.57344e-05 -0.000191671)
(-9.11952e-05 4.65418e-05 -0.000186051)
(-0.000134792 6.31449e-05 -0.000154839)
(-4.00934e-06 7.16898e-05 -4.15594e-05)
(-4.88804e-05 -6.38532e-07 -0.00012754)
(-6.53799e-05 5.02968e-05 -0.000116416)
(2.51449e-05 4.51364e-06 -2.41597e-05)
(-6.92368e-05 4.5156e-05 0.000154262)
(-0.000128803 7.13256e-06 -7.16791e-06)
(-1.30552e-05 -3.21843e-05 1.83595e-05)
(3.97331e-05 -0.000112515 6.79412e-05)
(-4.21985e-05 -6.82086e-05 -0.000373836)
(-0.000112953 -7.81596e-05 -0.00031342)
(-0.000295235 -0.000149589 1.57e-05)
(-0.000354064 -0.000145613 -0.00033803)
(-1.33841e-05 -0.000138543 -0.000160976)
(-3.87045e-05 -0.000124906 -0.00011222)
(-7.01812e-05 -4.37328e-05 -6.65972e-05)
(-0.000103525 0.000135033 -0.000247899)
(-0.000123833 -0.000172454 5.46235e-05)
(-0.00013159 -0.000183451 -7.57738e-05)
(-0.000168858 -1.35856e-05 -6.99082e-05)
(-0.00022799 0.000105755 -4.38332e-05)
(-6.7251e-05 -0.000159504 0.000154942)
(-0.000203624 -0.000149842 2.05657e-05)
(-0.000111656 -0.000172186 7.3209e-05)
(-6.90139e-05 -4.0262e-05 0.000167412)
(-0.00264835 -0.00213162 -0.00173464)
(-8.89491e-05 -0.000618659 -0.000229465)
(-0.00230648 -0.000118748 -0.000614037)
(8.09905e-06 1.47205e-05 -0.000407757)
(-3.62063e-05 -0.00028412 -0.000269909)
(0.000100823 -0.000361658 -9.00173e-05)
(-0.0019264 -0.000407528 -0.000592012)
(0.000158298 9.75739e-05 2.21487e-05)
(0.00155387 -0.00262755 -0.00118354)
(-0.00168433 -0.00492158 -0.00245457)
(-0.000590558 -8.54813e-05 4.3965e-05)
(0.00184247 -0.000276372 -0.00182497)
(-9.59639e-05 -0.000166172 5.62115e-06)
(-7.98834e-05 -0.000703784 -0.000117551)
(0.00045111 -0.000518855 0.000106109)
(-0.00152527 -0.00361181 -0.0020653)
(0 0 0)
(0 0 0)
(0 0 0)
(0 0 0)
(0 0 0)
(0 0 0)
(0 0 0)
(0 0 0)
(0 0 0)
(0 0 0)
(0 0 0)
(0 0 0)
(0 0 0)
(0 0 0)
(0 0 0)
(0 0 0)
(0 0 0)
(0 0 0)
(0 0 0)
(0 0 0)
(0 0 0)
(0 0 0)
(0 0 0)
(0 0 0)
(0 0 0)
(0 0 0)
(0 0 0)
(0 0 0)
(0 0 0)
(0 0 0)
(0 0 0)
(0 0 0)
(0 0 0)
(0 0 0)
(0 0 0)
(0 0 0)
(0 0 0)
(0 0 0)
(0 0 0)
(0 0 0)
(0 0 0)
(0 0 0)
(0 0 0)
(0 0 0)
(0 0 0)
(0 0 0)
(0 0 0)
(0 0 0)
(0 0 0)
(0 0 0)
(0 0 0)
(0 0 0)
(0 0 0)
(0 0 0)
(0 0 0)
(0 0 0)
(0 0 0)
(0 0 0)
(0 0 0)
(0 0 0)
(0 0 0)
(0 0 0)
(0 0 0)
(0 0 0)
(0 0 0)
(0 0 0)
(0 0 0)
(0 0 0)
(0 0 0)
(0 0 0)
(0 0 0)
(0 0 0)
(0 0 0)
(0 0 0)
(0 0 0)
(0 0 0)
(0 0 0)
(0 0 0)
(0 0 0)
(0 0 0)
(0 0 0)
(0 0 0)
(0 0 0)
(0 0 0)
(0 0 0)
(0 0 0)
(0 0 0)
(0 0 0)
(0 0 0)
(0 0 0)
(0 0 0)
(0 0 0)
(0 0 0)
(0 0 0)
(0 0 0)
(0 0 0)
(0 0 0)
(0 0 0)
(0 0 0)
(0 0 0)
(0 0 0)
(0 0 0)
(0 0 0)
(0 0 0)
(0 0 0)
(0 0 0)
(0 0 0)
(0 0 0)
(0 0 0)
(0 0 0)
(0 0 0)
(0 0 0)
(0 0 0)
(0 0 0)
(0 0 0)
(0 0 0)
(0 0 0)
(0 0 0)
(0 0 0)
(0 0 0)
(0 0 0)
(0 0 0)
(0 0 0)
(0 0 0)
(0 0 0)
(0 0 0)
(0 0 0)
(0 0 0)
(0 0 0)
(0 0 0)
(0 0 0)
(0 0 0)
(0 0 0)
(0 0 0)
(0 0 0)
(0 0 0)
(0 0 0)
(0 0 0)
(0 0 0)
(0 0 0)
(0 0 0)
(0 0 0)
(0 0 0)
(0 0 0)
(0 0 0)
(0 0 0)
(0 0 0)
(0 0 0)
(0 0 0)
(0 0 0)
(0 0 0)
(0 0 0)
(0 0 0)
(0 0 0)
(0 0 0)
(0 0 0)
(0 0 0)
(0 0 0)
(0 0 0)
(0 0 0)
(0 0 0)
(0 0 0)
(0 0 0)
(0 0 0)
(0 0 0)
(0 0 0)
(0 0 0)
(0 0 0)
(0 0 0)
(0 0 0)
(0 0 0)
(0 0 0)
(0 0 0)
(0 0 0)
(0 0 0)
(0 0 0)
(0 0 0)
(0 0 0)
(0 0 0)
(0 0 0)
(0 0 0)
(0 0 0)
(0 0 0)
(0 0 0)
(0 0 0)
(0 0 0)
(0 0 0)
(0 0 0)
(0 0 0)
(0 0 0)
(0 0 0)
(0 0 0)
(0 0 0)
(0 0 0)
(0 0 0)
(0 0 0)
(0 0 0)
(0 0 0)
(0 0 0)
(0 0 0)
(0 0 0)
(0 0 0)
(0 0 0)
(0 0 0)
(0 0 0)
(0 0 0)
(0 0 0)
(0 0 0)
(0 0 0)
(0 0 0)
(0 0 0)
(0 0 0)
(0 0 0)
(0 0 0)
(0 0 0)
(0 0 0)
(0 0 0)
(0 0 0)
(0 0 0)
(0 0 0)
(0 0 0)
(0 0 0)
(0 0 0)
(0 0 0)
(0 0 0)
(0 0 0)
(0 0 0)
(0 0 0)
(0 0 0)
(0 0 0)
(0 0 0)
(0 0 0)
(0 0 0)
(0 0 0)
(0 0 0)
(0 0 0)
(0 0 0)
(0 0 0)
(0 0 0)
(0 0 0)
(0 0 0)
(0 0 0)
(0 0 0)
(0 0 0)
(0 0 0)
(0 0 0)
(0 0 0)
(0 0 0)
(0 0 0)
(0 0 0)
(0 0 0)
(0 0 0)
(0 0 0)
(0 0 0)
(0 0 0)
(0 0 0)
(0 0 0)
(0 0 0)
(0 0 0)
(0 0 0)
(0 0 0)
(0 0 0)
(0 0 0)
(0 0 0)
(0 0 0)
(0 0 0)
(0 0 0)
(0 0 0)
(0 0 0)
(0 0 0)
(0 0 0)
(0 0 0)
(-6.41268e-06 1.29532e-05 2.04956e-06)
(-0.000287094 0.000150276 -0.000154218)
(5.70151e-05 9.21515e-05 0.000113242)
(6.03437e-05 4.48849e-05 0.000153785)
(1.66903e-05 -1.14918e-06 2.67265e-05)
(8.03612e-05 2.81859e-05 3.91544e-05)
(5.07032e-05 5.12739e-05 5.55532e-05)
(5.8765e-05 5.53412e-05 8.05203e-05)
(-1.55891e-05 -2.7834e-05 3.82829e-05)
(5.75992e-06 -1.09872e-05 2.83891e-05)
(-4.66997e-05 2.4903e-07 1.67196e-05)
(3.254e-05 1.51552e-05 3.09629e-05)
(-1.22103e-05 -1.28182e-05 3.07782e-05)
(-5.93209e-07 -2.20779e-07 1.53888e-05)
(6.77623e-06 -9.4353e-06 1.54946e-05)
(6.02777e-07 -2.74959e-05 6.22242e-06)
(0.000106981 3.44929e-05 8.59366e-05)
(-8.20819e-05 8.35565e-05 -5.38505e-05)
(8.86316e-05 8.36891e-05 0.000130638)
(0.00011982 0.000119508 0.000194413)
(8.64315e-05 4.65756e-05 0.000101145)
(8.18799e-05 -0.00013978 8.41605e-05)
(0.00011937 0.000115623 0.00016632)
(0.000163664 0.000133083 0.00014812)
(3.63344e-05 -4.96558e-06 0.000102125)
(-0.000240351 -5.43202e-05 0.000131753)
(4.64717e-05 8.34197e-05 0.000168437)
(7.06734e-05 0.000102832 0.000163316)
(-5.87974e-06 1.08168e-05 7.1693e-05)
(-6.02832e-05 -3.04605e-05 0.000125794)
(-5.02972e-06 1.45391e-05 6.64419e-05)
(2.54979e-05 1.38778e-06 0.000101935)
(7.50694e-05 8.25135e-05 0.000103986)
(4.11485e-05 4.04142e-05 0.000107976)
(7.8646e-05 9.53265e-05 0.000132085)
(0.000100624 6.89411e-05 0.000189407)
(7.83265e-05 3.16632e-05 0.000153884)
(7.01646e-05 4.96578e-05 0.000163963)
(8.13617e-05 5.98421e-05 0.000187532)
(0.000128595 3.28778e-05 0.000198911)
(3.81792e-05 1.17636e-05 0.000162856)
(8.27021e-05 1.65367e-05 0.000279864)
(7.37575e-05 5.86169e-05 0.000239155)
(7.2979e-05 3.57981e-05 0.000195745)
(-2.6147e-05 -2.81223e-05 0.000121965)
(1.05635e-05 -2.39649e-05 0.000164763)
(5.57445e-05 1.62205e-05 0.000141084)
(-6.06738e-06 1.61246e-05 0.000161538)
(3.72031e-05 0.000115114 0.000200864)
(5.58041e-06 3.93828e-05 0.000169517)
(6.48204e-05 3.47666e-05 0.000123541)
(5.55991e-05 -4.72481e-05 0.000202212)
(2.49027e-05 5.57778e-05 0.00025387)
(7.35818e-06 3.99685e-06 0.000193737)
(6.05657e-05 7.10471e-06 0.000198184)
(4.19646e-05 -2.48532e-05 0.000172292)
(8.26504e-05 2.41363e-06 0.0002361)
(1.16448e-05 -2.2089e-05 0.000247334)
(3.10042e-05 -1.31641e-05 0.000235398)
(-3.16101e-05 -2.55415e-05 0.000162039)
(-1.6862e-05 -6.00337e-06 0.000179138)
(1.30233e-06 3.37933e-05 0.000175112)
(1.88276e-05 -4.22851e-06 0.000248346)
(-3.50938e-05 5.89825e-05 0.000109574)
(-2.37871e-05 3.35609e-05 0.000259061)
(-9.30634e-05 2.95362e-05 0.000187547)
(4.23468e-06 -2.31441e-05 0.000125377)
(5.70021e-05 -0.000102644 0.00016088)
(5.25492e-05 -3.37878e-05 0.000287966)
(-3.93374e-05 -7.25035e-05 0.000256232)
(2.19086e-06 -5.75955e-05 0.000194443)
(7.99059e-05 -9.78559e-05 0.000199286)
(6.23919e-06 -5.23077e-06 0.00030157)
(9.53033e-06 -6.73059e-05 0.000298688)
(5.39314e-05 -5.5767e-05 0.000266337)
(-5.637e-06 -3.47928e-05 0.000165792)
(-3.27709e-05 -2.53721e-07 0.000222461)
(-4.06831e-05 7.7748e-06 0.000210986)
(-4.8029e-05 6.89183e-06 0.000193469)
(-4.1189e-05 1.02571e-05 0.000110748)
(4.45339e-05 -7.59243e-05 0.000311152)
(-0.000153439 2.30099e-05 2.0466e-05)
(2.01693e-05 -0.000116018 0.000263909)
(-4.5619e-05 -6.31423e-05 9.98875e-05)
(0.000136187 -0.000112275 0.000334827)
(2.64389e-05 -7.07361e-05 0.000144972)
(0.00014864 -0.000155825 0.000166035)
(3.48842e-06 -0.00021789 0.000210133)
(4.53094e-05 -7.24456e-05 0.000290436)
(8.12521e-05 -0.000145691 0.000193756)
(-0.000151655 -0.00039685 -0.000362298)
(1.44016e-05 -8.74442e-05 0.000162622)
(-8.35164e-05 -1.57923e-05 0.00023375)
(1.45388e-05 6.6241e-06 0.000137059)
(-1.23568e-05 4.73669e-06 9.37598e-05)
(-3.54969e-05 -1.27897e-05 0.000114496)
(8.45711e-05 -0.000349792 0.000390278)
(-0.00355268 0.00431906 -0.00676243)
(-0.00144724 0.00169414 -0.000491925)
(-0.000626513 -0.000284757 -0.000181661)
(-0.000556966 -0.000574519 -0.000713927)
(-0.000784659 -0.000664954 -0.00010632)
(-0.000123277 -0.000125266 -0.000121345)
(-0.00806449 -0.000476419 -0.00400177)
(0.000144838 -5.29647e-05 0.000302233)
(-0.00223631 0.000379676 -0.000661702)
(-0.000746123 0.00140153 -0.000285584)
(-0.00122229 -0.000454604 -0.000745578)
(5.05556e-05 3.98131e-06 1.5617e-05)
(-0.00133036 -0.00289159 -0.00283654)
(0.000131044 -2.05104e-05 -1.16865e-06)
(-5.57787e-05 -0.000185156 6.7054e-05)
(0 0 0)
(-0.0202379 0.0333768 -0.00855792)
(0 0 0)
(0 0 0)
(0 0 0)
(0 0 0)
(0 0 0)
(0 0 0)
(0 0 0)
(0 0 0)
(0 0 0)
(0 0 0)
(0 0 0)
(0 0 0)
(0 0 0)
(0 0 0)
(0 0 0)
(0 0 0)
(0 0 0)
(0 0 0)
(0 0 0)
(0 0 0)
(0 0 0)
(0 0 0)
(0 0 0)
(0 0 0)
(0 0 0)
(0 0 0)
(0 0 0)
(0 0 0)
(0 0 0)
(0 0 0)
(0 0 0)
(0 0 0)
(0 0 0)
(0 0 0)
(0 0 0)
(0 0 0)
(0 0 0)
(0 0 0)
(0 0 0)
(0 0 0)
(0 0 0)
(0 0 0)
(0 0 0)
(0 0 0)
(0 0 0)
(0 0 0)
(0 0 0)
(0 0 0)
(0 0 0)
(0 0 0)
(0 0 0)
(0 0 0)
(0 0 0)
(0 0 0)
(0 0 0)
(0 0 0)
(0 0 0)
(0 0 0)
(0 0 0)
(0 0 0)
(0 0 0)
(0 0 0)
(0 0 0)
(0 0 0)
(0 0 0)
(0 0 0)
(0 0 0)
(0 0 0)
(0 0 0)
(0 0 0)
(0 0 0)
(0 0 0)
(0 0 0)
(0 0 0)
(0 0 0)
(0 0 0)
(0 0 0)
(0 0 0)
(0 0 0)
(0 0 0)
(0 0 0)
(0 0 0)
(0 0 0)
(0 0 0)
(0 0 0)
(0 0 0)
(0 0 0)
(0 0 0)
(0 0 0)
(0 0 0)
(0 0 0)
(0 0 0)
(0 0 0)
(0 0 0)
(0 0 0)
(0 0 0)
(0 0 0)
(0 0 0)
(0 0 0)
(0 0 0)
(0 0 0)
(0 0 0)
(0 0 0)
(0 0 0)
(0 0 0)
(0 0 0)
(0 0 0)
(0 0 0)
(0 0 0)
(0 0 0)
(0 0 0)
(0 0 0)
(0 0 0)
(0 0 0)
(0 0 0)
(0 0 0)
(0 0 0)
(0 0 0)
(0 0 0)
(0 0 0)
(0 0 0)
(0 0 0)
(0 0 0)
(0 0 0)
(0 0 0)
(0 0 0)
(0 0 0)
(0 0 0)
(0 0 0)
(0 0 0)
(0 0 0)
(0 0 0)
(0 0 0)
(0 0 0)
(0 0 0)
(0 0 0)
(0 0 0)
(0 0 0)
(0 0 0)
(0 0 0)
(0 0 0)
(0 0 0)
(0 0 0)
(0 0 0)
(0 0 0)
(0 0 0)
(0 0 0)
(0 0 0)
(0 0 0)
(0 0 0)
(0 0 0)
(0 0 0)
(0 0 0)
(0 0 0)
(0 0 0)
(0 0 0)
(0 0 0)
(0 0 0)
(0 0 0)
(0 0 0)
(0 0 0)
(0 0 0)
(0 0 0)
(0 0 0)
(0 0 0)
(0 0 0)
(0 0 0)
(0 0 0)
(0 0 0)
(0 0 0)
(0 0 0)
(0 0 0)
(0 0 0)
(0 0 0)
(0 0 0)
(0 0 0)
(0 0 0)
(0 0 0)
(0 0 0)
(0 0 0)
(0 0 0)
(0 0 0)
(0 0 0)
(0 0 0)
(0 0 0)
(0 0 0)
(0 0 0)
(0 0 0)
(0 0 0)
(0 0 0)
(0 0 0)
(0 0 0)
(0 0 0)
(0 0 0)
(0 0 0)
(0 0 0)
(0 0 0)
(0 0 0)
(0 0 0)
(0 0 0)
(0 0 0)
(0 0 0)
(0 0 0)
(0 0 0)
(0 0 0)
(0 0 0)
(0 0 0)
(0 0 0)
(0 0 0)
(0 0 0)
(0 0 0)
(0 0 0)
(0 0 0)
(0 0 0)
(0 0 0)
(0 0 0)
(0 0 0)
(0 0 0)
(0 0 0)
(0 0 0)
(0 0 0)
(0 0 0)
(0 0 0)
(0 0 0)
(0 0 0)
(0 0 0)
(0 0 0)
(0 0 0)
(0 0 0)
(0 0 0)
(0 0 0)
(0 0 0)
(0 0 0)
(0 0 0)
(0 0 0)
(0 0 0)
(0 0 0)
(0 0 0)
(0 0 0)
(0 0 0)
(0 0 0)
(0 0 0)
(0 0 0)
(0 0 0)
(0 0 0)
(0 0 0)
(0 0 0)
(0 0 0)
(0 0 0)
(0 0 0)
(0 0 0)
(0 0 0)
(0 0 0)
(0 0 0)
(0 0 0)
(0 0 0)
(0 0 0)
(0 0 0)
(0 0 0)
(0 0 0)
(0 0 0)
(0 0 0)
(0 0 0)
(0 0 0)
(0 0 0)
(0 0 0)
(0 0 0)
(0 0 0)
(0 0 0)
(0 0 0)
(3.65458e-05 -4.43358e-05 2.86965e-05)
(-1.55951e-05 -3.63163e-05 3.37173e-05)
(-4.40645e-05 -0.000127022 1.40051e-05)
(-2.03799e-06 -2.32854e-06 4.66179e-06)
(1.88941e-06 5.67875e-06 4.09601e-05)
(2.94876e-05 -2.62622e-05 3.25137e-05)
(1.15338e-05 -1.44453e-05 4.62026e-05)
(-1.41008e-06 -7.08884e-06 2.25407e-05)
(5.08886e-05 4.2047e-06 5.40247e-05)
(4.21272e-05 -2.23329e-05 5.924e-05)
(2.23091e-05 -4.2467e-05 1.37803e-05)
(4.72219e-06 -1.56799e-05 1.54183e-05)
(5.61684e-05 3.12916e-05 3.90719e-05)
(-9.18597e-06 0.000162351 3.33219e-05)
(3.36134e-05 6.21715e-05 1.00796e-05)
(6.10049e-06 -2.75074e-06 1.04261e-05)
(1.98516e-05 -3.47085e-05 8.16197e-05)
(1.58589e-05 -3.38517e-05 0.000121121)
(5.84632e-06 -3.55225e-05 0.000115632)
(5.8708e-06 -1.96379e-05 3.56539e-05)
(1.7109e-05 -2.56591e-05 9.87256e-05)
(3.11071e-05 -4.43387e-05 8.86881e-05)
(2.31995e-05 -5.5118e-05 0.000106971)
(4.91445e-06 -1.36932e-05 6.22158e-05)
(3.24258e-05 -9.84197e-07 0.000109305)
(5.07898e-05 -1.60209e-05 7.54209e-05)
(1.10171e-05 -5.12034e-05 7.33922e-05)
(2.48922e-05 -2.86094e-05 5.46216e-05)
(6.04199e-05 3.73977e-05 0.000119933)
(2.21903e-05 5.68311e-05 0.000114677)
(-6.59367e-06 1.61245e-05 8.60533e-05)
(3.04547e-05 -1.69817e-05 7.29461e-05)
(5.60797e-05 -4.14204e-05 0.000149501)
(7.27933e-05 -2.66208e-05 0.000209301)
(2.43531e-05 -1.754e-05 0.000191284)
(2.31938e-05 -4.36758e-05 0.000142533)
(6.86953e-05 -1.02512e-05 0.000132192)
(3.33304e-05 -1.74247e-05 0.000161704)
(2.09783e-05 -3.51099e-05 0.000162778)
(1.44575e-05 -4.33675e-05 0.000124937)
(1.36248e-05 -6.07886e-05 0.000110658)
(3.29876e-05 -2.06195e-05 0.000109776)
(-3.42146e-06 -2.88899e-05 0.000104939)
(3.0095e-06 -1.93954e-05 8.47869e-05)
(6.18683e-05 2.06901e-05 0.000152681)
(7.65494e-05 -2.04669e-05 0.000137031)
(1.40779e-05 -5.10904e-05 0.000141493)
(-3.30436e-06 -3.8909e-05 0.000100864)
(3.45028e-06 -2.50343e-05 9.1913e-05)
(6.15475e-05 -2.50208e-05 0.000130808)
(8.06071e-05 -5.33464e-05 0.000266858)
(-1.39037e-05 -2.19227e-05 0.00025454)
(5.04849e-05 -3.82507e-06 7.78171e-05)
(8.30586e-05 3.75826e-06 0.000162991)
(5.13881e-05 4.09479e-06 0.000210079)
(8.16974e-06 -2.3716e-05 0.000152059)
(4.29912e-05 -4.07893e-05 9.49726e-05)
(3.06244e-05 -4.45614e-05 0.00016687)
(6.55408e-05 2.0681e-05 0.000172276)
(1.01273e-05 2.20274e-05 0.000111032)
(3.94341e-05 -6.74425e-05 0.000167079)
(3.77127e-05 -2.55013e-05 0.00015804)
(5.06607e-05 1.95469e-05 0.000200716)
(1.93609e-05 1.91673e-05 0.000149993)
(-0.000127412 -3.64595e-05 -0.000136508)
(-0.000106756 2.74839e-05 7.59252e-05)
(7.62285e-06 -1.45509e-05 0.000383133)
(-1.44583e-05 -5.39161e-06 0.000270827)
(-6.3968e-05 -1.11341e-05 2.49277e-05)
(-1.5783e-05 -9.02563e-05 0.00015909)
(2.37928e-05 -3.07206e-05 0.00025637)
(-5.77561e-06 1.91615e-05 0.000183998)
(4.83588e-05 -3.76355e-05 0.000212549)
(4.12311e-05 -2.83919e-05 0.00026463)
(7.26808e-05 -5.33898e-06 0.000222321)
(1.79348e-05 5.6628e-06 0.00020234)
(7.16981e-05 -0.000142436 0.000250426)
(0.000115636 -4.42785e-05 0.00026002)
(1.9604e-05 -9.04022e-06 0.000209466)
(9.92589e-06 -2.49307e-05 0.000177199)
(-8.39226e-05 -0.000198403 6.32701e-05)
(-0.000237602 -0.000178017 9.77407e-05)
(-0.000109234 -0.00011389 0.000461391)
(-1.29586e-05 -4.88262e-05 0.00030633)
(-7.96995e-05 9.1566e-05 -7.04202e-05)
(-6.35224e-05 -0.000184489 -1.55923e-05)
(-1.16918e-05 -0.000105114 0.000274479)
(1.62046e-05 -0.000126926 0.000269199)
(-9.34364e-05 4.50075e-05 0.00033901)
(7.66363e-06 -0.000180353 0.000275767)
(-0.000231357 -7.47104e-06 -0.000539431)
(9.67497e-05 3.94909e-05 -6.08635e-05)
(-2.68217e-05 -0.000194762 0.000214339)
(-1.4027e-06 -0.000140512 0.000239815)
(0.000103394 7.9429e-05 0.000143621)
(0.000811489 0.000629479 -0.000980355)
(-0.00321292 0.00917362 -0.00190405)
(-0.00132718 0.0023615 -0.000598057)
(0.00376236 -0.0026213 -0.00430841)
(-0.000357328 0.00163892 -0.000378073)
(-0.000322007 0.000836054 0.000188543)
(-1.09888e-05 4.43726e-07 -0.000343023)
(0.00415368 -0.00511175 -0.00176277)
(2.04315e-05 0.000141468 0.000429883)
(0.000368464 0.000865895 -0.000408039)
(-0.00040786 0.000152279 -0.000157539)
(-0.00372207 -0.00248703 -0.00395459)
(0.000326904 -0.004875 -0.00663724)
(-0.00352435 -0.00270985 -0.0021899)
(-0.00493199 -0.00383792 -0.00322625)
(0.000904983 -0.0010043 0.00061817)
(-8.71844e-05 2.08359e-06 8.19133e-05)
(0 0 0)
(0 0 0)
(0 0 0)
(0 0 0)
(0 0 0)
(0 0 0)
(0 0 0)
(0 0 0)
(0 0 0)
(0 0 0)
(0 0 0)
(0 0 0)
(-0.0482316 -0.0334969 -0.0333577)
(-0.0482316 -0.0334969 -0.0333577)
(0 0 0)
(0 0 0)
(0 0 0)
(0 0 0)
(0 0 0)
(0 0 0)
(0 0 0)
(0 0 0)
(0 0 0)
(0 0 0)
(0 0 0)
(0 0 0)
(0 0 0)
(0 0 0)
(0 0 0)
(0 0 0)
(0 0 0)
(0 0 0)
(0 0 0)
(0 0 0)
(0 0 0)
(0 0 0)
(0 0 0)
(0 0 0)
(0 0 0)
(0 0 0)
(0 0 0)
(0 0 0)
(0 0 0)
(0 0 0)
(0 0 0)
(0 0 0)
(0 0 0)
(0 0 0)
(0 0 0)
(0 0 0)
(0 0 0)
(0 0 0)
(0 0 0)
(0 0 0)
(0 0 0)
(0 0 0)
(0 0 0)
(0 0 0)
(0 0 0)
(0 0 0)
(0 0 0)
(0 0 0)
(0 0 0)
(0 0 0)
(0 0 0)
(0 0 0)
(0 0 0)
(0 0 0)
(0 0 0)
(0 0 0)
(0 0 0)
(0 0 0)
(0 0 0)
(0 0 0)
(0 0 0)
(0 0 0)
(0 0 0)
(0 0 0)
(0 0 0)
(0 0 0)
(0 0 0)
(0 0 0)
(0 0 0)
(0 0 0)
(0 0 0)
(0 0 0)
(0 0 0)
(0 0 0)
(0 0 0)
(0 0 0)
(0 0 0)
(0 0 0)
(0 0 0)
(0 0 0)
(0 0 0)
(0 0 0)
(0 0 0)
(0 0 0)
(0 0 0)
(0 0 0)
(0 0 0)
(0 0 0)
(0 0 0)
(0 0 0)
(0 0 0)
(0 0 0)
(0 0 0)
(0 0 0)
(0 0 0)
(0 0 0)
(0 0 0)
(0 0 0)
(0 0 0)
(0 0 0)
(0 0 0)
(0 0 0)
(0 0 0)
(0 0 0)
(0 0 0)
(0 0 0)
(0 0 0)
(0 0 0)
(0 0 0)
(0 0 0)
(0 0 0)
(0 0 0)
(0 0 0)
(0 0 0)
(0 0 0)
(0 0 0)
(0 0 0)
(0 0 0)
(0 0 0)
(0 0 0)
(0 0 0)
(0 0 0)
(0 0 0)
(0 0 0)
(0 0 0)
(0 0 0)
(0 0 0)
(0 0 0)
(0 0 0)
(0 0 0)
(0 0 0)
(0 0 0)
(0 0 0)
(0 0 0)
(0 0 0)
(0 0 0)
(0 0 0)
(0 0 0)
(0 0 0)
(0 0 0)
(0 0 0)
(0 0 0)
(0 0 0)
(0 0 0)
(0 0 0)
(0 0 0)
(0 0 0)
(0 0 0)
(0 0 0)
(0 0 0)
(0 0 0)
(0 0 0)
(0 0 0)
(0 0 0)
(0 0 0)
(0 0 0)
(0 0 0)
(0 0 0)
(0 0 0)
(0 0 0)
(0 0 0)
(0 0 0)
(0 0 0)
(0 0 0)
(0 0 0)
(0 0 0)
(0 0 0)
(0 0 0)
(0 0 0)
(0 0 0)
(0 0 0)
(0 0 0)
(0 0 0)
(0 0 0)
(0 0 0)
(0 0 0)
(0 0 0)
(0 0 0)
(0 0 0)
(0 0 0)
(0 0 0)
(0 0 0)
(0 0 0)
(0 0 0)
(0 0 0)
(0 0 0)
(0 0 0)
(0 0 0)
(0 0 0)
(0 0 0)
(0 0 0)
(0 0 0)
(0 0 0)
(0 0 0)
(0 0 0)
(0 0 0)
(0 0 0)
(0 0 0)
(0 0 0)
(0 0 0)
(0 0 0)
(0 0 0)
(0 0 0)
(0 0 0)
(0 0 0)
(0 0 0)
(0 0 0)
(0 0 0)
(0 0 0)
(0 0 0)
(0 0 0)
(0 0 0)
(0 0 0)
(0 0 0)
(0 0 0)
(0 0 0)
(0 0 0)
(0 0 0)
(0 0 0)
(0 0 0)
(0 0 0)
(0 0 0)
(0 0 0)
(0 0 0)
(0 0 0)
(0 0 0)
(0 0 0)
(0 0 0)
(0 0 0)
(0 0 0)
(0 0 0)
(0 0 0)
(0 0 0)
(0 0 0)
(0 0 0)
(0 0 0)
(0 0 0)
(0 0 0)
(0 0 0)
(0 0 0)
(0 0 0)
(0 0 0)
(0 0 0)
(0 0 0)
(0 0 0)
(0 0 0)
(0 0 0)
(0 0 0)
(0 0 0)
(0 0 0)
(0 0 0)
(0 0 0)
(0 0 0)
(0 0 0)
(0 0 0)
(0 0 0)
(0 0 0)
(0 0 0)
)
;

boundaryField
{
    inlet
    {
        type            zeroGradient;
    }
    outlet
    {
        type            zeroGradient;
    }
    wall
    {
        type            zeroGradient;
    }
    procBoundary3to1
    {
        type            processor;
        value           nonuniform List<vector> 
192
(
(4.18956e-06 1.43317e-05 3.45472e-06)
(-2.40599e-05 1.00096e-05 -2.154e-06)
(3.02651e-06 -7.2889e-05 1.00073e-06)
(1.90721e-05 -5.34788e-05 1.56932e-05)
(-4.19642e-05 -8.27263e-05 2.629e-05)
(-4.89356e-05 -5.6509e-05 1.36056e-06)
(-7.52774e-06 -8.5022e-05 1.21076e-05)
(1.99466e-05 -5.66069e-05 6.04391e-05)
(-0.000120577 -4.2746e-05 -7.93024e-05)
(-4.93288e-05 -1.92702e-05 1.05436e-05)
(1.27986e-05 -8.8808e-05 4.1369e-05)
(4.30071e-05 -0.000112889 0.000101162)
(-0.000138125 2.42914e-05 -0.000137238)
(-0.000128752 2.0179e-05 -6.83114e-05)
(-3.01607e-05 6.21671e-06 -2.9644e-05)
(-7.12852e-05 -9.60656e-06 4.22599e-05)
(-4.20533e-05 6.29606e-05 -0.000247065)
(-0.000123144 6.76637e-05 -0.000196009)
(-0.000154118 -4.30634e-05 -0.000119227)
(-0.00024193 -5.29038e-05 -0.000201859)
(0.000206832 3.87231e-05 -0.000373825)
(-9.61806e-05 -0.000227735 7.11358e-06)
(-0.000269311 -0.000114803 -0.000203013)
(-0.000337187 1.8771e-06 -0.000283328)
(0.00100241 -0.00153553 0.000904888)
(0.00221683 -0.000573145 0.000178459)
(2.16324e-06 -0.000404603 -0.00011623)
(0.000835241 0.00281933 -0.0020147)
(0.00499201 0.00111727 -0.00216109)
(0.00959986 0.00268045 -0.00348692)
(0 0 0)
(0 0 0)
(0 0 0)
(0 0 0)
(0 0 0)
(0 0 0)
(0 0 0)
(0 0 0)
(0 0 0)
(0 0 0)
(0 0 0)
(0 0 0)
(0 0 0)
(0 0 0)
(0 0 0)
(0 0 0)
(0 0 0)
(0 0 0)
(0 0 0)
(0 0 0)
(0 0 0)
(0 0 0)
(0 0 0)
(0 0 0)
(0 0 0)
(0 0 0)
(0 0 0)
(0 0 0)
(0 0 0)
(0 0 0)
(0 0 0)
(0 0 0)
(0 0 0)
(0 0 0)
(0 0 0)
(0 0 0)
(0 0 0)
(0 0 0)
(0 0 0)
(0 0 0)
(0 0 0)
(0 0 0)
(0 0 0)
(0 0 0)
(0 0 0)
(0 0 0)
(0 0 0)
(0 0 0)
(0 0 0)
(0 0 0)
(0 0 0)
(0 0 0)
(0 0 0)
(0 0 0)
(0 0 0)
(0 0 0)
(0 0 0)
(0 0 0)
(0 0 0)
(0 0 0)
(0 0 0)
(0 0 0)
(0 0 0)
(0 0 0)
(0 0 0)
(0 0 0)
(2.27932e-07 -4.02216e-05 3.92055e-05)
(2.12304e-05 -7.48775e-05 4.18778e-05)
(8.16871e-05 -1.277e-05 3.86932e-05)
(-0.000339863 5.90508e-05 -2.15411e-06)
(2.16722e-05 -3.16472e-05 0.00010236)
(1.02631e-05 -1.69437e-05 0.00014246)
(-3.63019e-06 -5.44664e-05 0.000132211)
(4.71382e-07 -1.44559e-05 5.22414e-05)
(3.54508e-05 -4.26447e-05 0.000147964)
(2.57852e-05 1.17145e-06 0.00019129)
(3.38392e-05 -5.00725e-05 0.000179669)
(7.9532e-05 5.8978e-06 0.000118739)
(-6.74718e-05 5.63044e-05 0.000122945)
(1.69694e-05 -4.57676e-05 0.000185207)
(4.95002e-06 -2.28281e-05 0.000252108)
(-1.54593e-05 1.80772e-05 0.000188121)
(-0.000223291 -5.71949e-05 -0.000164633)
(1.36708e-07 -1.7481e-05 6.69088e-05)
(1.32455e-06 -3.57165e-05 0.000317249)
(-3.86233e-05 -3.67051e-05 0.000381779)
(3.48426e-05 -7.7549e-05 9.12346e-05)
(-0.000177661 -0.000250657 -1.12945e-05)
(-0.00015018 -0.000160982 0.000108424)
(-5.58604e-05 -0.000110978 0.000276921)
(0.00263852 0.00573145 -0.00303813)
(-0.00105535 -0.00112089 3.86702e-05)
(-0.000508082 -0.000542208 9.1496e-05)
(0.000740174 0.000402186 0.000154562)
(0 0 0)
(0 0 0)
(0 0 0)
(0 0 0)
(0 0 0)
(0 0 0)
(0 0 0)
(0 0 0)
(0 0 0)
(0 0 0)
(0 0 0)
(0 0 0)
(0 0 0)
(0 0 0)
(0 0 0)
(0 0 0)
(0 0 0)
(0 0 0)
(0 0 0)
(0 0 0)
(0 0 0)
(0 0 0)
(0 0 0)
(0 0 0)
(0 0 0)
(0 0 0)
(0 0 0)
(0 0 0)
(0 0 0)
(0 0 0)
(0 0 0)
(0 0 0)
(0 0 0)
(0 0 0)
(0 0 0)
(0 0 0)
(0 0 0)
(0 0 0)
(0 0 0)
(0 0 0)
(0 0 0)
(0 0 0)
(0 0 0)
(0 0 0)
(0 0 0)
(0 0 0)
(0 0 0)
(0 0 0)
(0 0 0)
(0 0 0)
(0 0 0)
(0 0 0)
(0 0 0)
(0 0 0)
(0 0 0)
(0 0 0)
(0 0 0)
(0 0 0)
(0 0 0)
(0 0 0)
(0 0 0)
(0 0 0)
(0 0 0)
(0 0 0)
(0 0 0)
(0 0 0)
(0 0 0)
(0 0 0)
)
;
    }
    procBoundary3to2
    {
        type            processor;
        value           nonuniform List<vector> 
192
(
(-3.43185e-05 -3.08618e-05 3.21002e-05)
(-7.5665e-05 -8.18882e-05 2.28382e-05)
(-0.000127519 -7.48164e-05 2.08879e-05)
(4.09851e-05 -8.05803e-06 1.80595e-05)
(-3.6392e-05 -4.14832e-05 4.51273e-05)
(-3.56504e-06 -1.36034e-05 4.58659e-05)
(5.19113e-05 2.29064e-05 2.65051e-05)
(6.10382e-05 4.51155e-05 2.97184e-05)
(-5.7935e-05 -1.9023e-05 6.16417e-06)
(4.67119e-06 6.99813e-05 4.80063e-05)
(2.18246e-05 9.91163e-05 -7.21076e-06)
(5.19383e-06 0.000154768 2.98267e-05)
(-0.000133893 8.45057e-05 -6.78109e-05)
(4.49996e-05 0.000220969 -4.09074e-05)
(-2.11992e-05 0.000210806 -3.06677e-05)
(-1.92922e-05 0.00016633 0.000120575)
(-3.92519e-06 0.000174429 -0.000274209)
(7.28482e-05 0.000248913 -0.000195759)
(6.01955e-05 0.000184556 1.04222e-05)
(1.079e-05 0.00013192 0.000149772)
(9.78827e-05 0.00014677 -0.000263033)
(0.000105971 1.15549e-05 -0.000235717)
(6.63224e-05 4.82373e-06 3.34296e-05)
(-4.70713e-05 2.66528e-05 0.000156651)
(0.00200414 0.00156186 -0.000588918)
(-0.0002755 8.6198e-05 -9.92284e-05)
(-0.000765914 0.000238774 -0.000159108)
(-0.000892588 -0.00207557 -0.000816099)
(0 0 0)
(0 0 0)
(0 0 0)
(0 0 0)
(0 0 0)
(0 0 0)
(0 0 0)
(0 0 0)
(0 0 0)
(0 0 0)
(0 0 0)
(0 0 0)
(0 0 0)
(0 0 0)
(0 0 0)
(0 0 0)
(0 0 0)
(0 0 0)
(0 0 0)
(0 0 0)
(0 0 0)
(0 0 0)
(0 0 0)
(0 0 0)
(0 0 0)
(0 0 0)
(0 0 0)
(0 0 0)
(0 0 0)
(0 0 0)
(0 0 0)
(0 0 0)
(0 0 0)
(0 0 0)
(0 0 0)
(0 0 0)
(0 0 0)
(0 0 0)
(0 0 0)
(0 0 0)
(0 0 0)
(0 0 0)
(0 0 0)
(0 0 0)
(0 0 0)
(0 0 0)
(0 0 0)
(0 0 0)
(0 0 0)
(0 0 0)
(0 0 0)
(0 0 0)
(0 0 0)
(0 0 0)
(0 0 0)
(0 0 0)
(0 0 0)
(0 0 0)
(0 0 0)
(0 0 0)
(0 0 0)
(0 0 0)
(0 0 0)
(0 0 0)
(0 0 0)
(0 0 0)
(0 0 0)
(0 0 0)
(5.74181e-05 2.86616e-05 4.75756e-05)
(5.20225e-06 2.13383e-05 3.77695e-05)
(-1.42614e-05 -9.91642e-06 2.82873e-05)
(-6.63052e-06 -5.57384e-05 5.75936e-05)
(6.5045e-05 2.43172e-05 0.000107629)
(5.47456e-05 2.00196e-05 0.00010364)
(2.07345e-05 2.07274e-06 0.000110368)
(5.55012e-05 -6.66957e-05 0.000107316)
(7.57963e-05 0.000108923 0.000141172)
(5.31898e-05 3.71505e-05 0.000158913)
(5.16809e-05 -4.62978e-06 0.000178412)
(4.73099e-05 -6.74842e-06 9.9699e-05)
(1.80899e-05 9.38499e-05 0.000198233)
(6.16066e-06 1.60475e-05 0.000245977)
(1.39582e-05 1.53606e-05 0.000183534)
(3.17859e-05 9.30726e-06 0.000111305)
(3.47966e-05 0.000107083 0.000271636)
(-5.97707e-06 1.34135e-05 0.000288203)
(-1.71238e-05 9.65225e-06 0.000250447)
(-8.85255e-06 1.30069e-05 0.000148968)
(2.78123e-05 -1.55816e-07 0.000287863)
(9.35169e-05 -4.35758e-05 0.000298039)
(5.03954e-06 -8.57249e-05 0.000229613)
(-0.000131423 -2.39043e-05 0.000156413)
(1.95993e-05 -0.000285707 6.94359e-05)
(-0.00102989 -0.000724148 0.000349583)
(-0.000131663 9.34824e-05 0.000268303)
(-0.000503927 -0.000364012 -3.45788e-06)
(0 0 0)
(0 0 0)
(0 0 0)
(0 0 0)
(0 0 0)
(0 0 0)
(0 0 0)
(0 0 0)
(0 0 0)
(0 0 0)
(0 0 0)
(0 0 0)
(0 0 0)
(0 0 0)
(0 0 0)
(0 0 0)
(0 0 0)
(0 0 0)
(0 0 0)
(0 0 0)
(0 0 0)
(0 0 0)
(0 0 0)
(0 0 0)
(0 0 0)
(0 0 0)
(0 0 0)
(0 0 0)
(0 0 0)
(0 0 0)
(0 0 0)
(0 0 0)
(0 0 0)
(0 0 0)
(0 0 0)
(0 0 0)
(0 0 0)
(0 0 0)
(0 0 0)
(0 0 0)
(0 0 0)
(0 0 0)
(0 0 0)
(0 0 0)
(0 0 0)
(0 0 0)
(0 0 0)
(0 0 0)
(0 0 0)
(0 0 0)
(0 0 0)
(0 0 0)
(0 0 0)
(0 0 0)
(0 0 0)
(0 0 0)
(0 0 0)
(0 0 0)
(0 0 0)
(0 0 0)
(0 0 0)
(0 0 0)
(0 0 0)
(0 0 0)
(0 0 0)
(0 0 0)
(0 0 0)
(0 0 0)
)
;
    }
}


// ************************************************************************* //
