/*--------------------------------*- C++ -*----------------------------------*\
| =========                 |                                                 |
| \\      /  F ield         | OpenFOAM: The Open Source CFD Toolbox           |
|  \\    /   O peration     | Version:  2506                                  |
|   \\  /    A nd           | Website:  www.openfoam.com                      |
|    \\/     M anipulation  |                                                 |
\*---------------------------------------------------------------------------*/
FoamFile
{
    version     2.0;
    format      ascii;
    arch        "LSB;label=32;scalar=64";
    class       volScalarField;
    location    "0.01";
    object      Ksl;
}
// * * * * * * * * * * * * * * * * * * * * * * * * * * * * * * * * * * * * * //

dimensions      [1 -3 -1 0 0 0 0];

internalField   nonuniform List<scalar> 
1152
(
213474
114487
97686.7
479808
135326
122099
154629
142178
94281.2
134436
102627
101486
129173
58822.2
100763
117734
204824
172792
133314
1.10093e+06
170789
162162
702688
220977
267823
171275
130769
1.07032e+06
188488
366980
212126
244604
363244
248796
470884
3.31442e+07
557908
407131
161231
208103
213245
221026
527959
128302
343854
139750
413856
1.2084e+06
266441
143518
349087
146488
123376
271243
180427
213998
461842
291210
265287
6.37474e+06
529767
133373
211795
102164
246707
396548
432472
242315
281890
192997
206175
386353
244426
160616
574175
99247.9
117748
498307
411035
2.74877e+06
393341
120325
147108
162417
180945
194398
222079
145710
177183
162531
409238
205863
285641
187937
181583
135189
48173.7
41987.9
62948
79252.2
30003
48267.7
92522.1
423053
46059.3
49774.9
97117.2
31525.3
27072.9
97120.8
216201
112468
0
0
0
0
0
0
0
0
0
0
0
0
0
0
0
0
0
0
0
0
0
0
0
0
0
0
0
0
0
0
0
0
0
0
0
0
0
0
0
0
0
0
0
0
0
0
0
0
0
0
0
0
0
0
0
0
0
0
0
0
0
0
0
0
0
0
0
0
0
0
0
0
0
0
0
0
0
0
0
0
0
0
0
0
0
0
0
0
0
0
0
0
0
0
0
0
0
0
0
0
0
0
0
0
0
0
0
0
0
0
0
0
0
0
0
0
0
0
0
0
0
0
0
0
0
0
0
0
0
0
0
0
0
0
0
0
0
0
0
0
0
0
0
0
0
0
0
0
0
0
0
0
0
0
0
0
0
0
0
0
0
0
0
0
0
0
0
0
0
0
0
0
0
0
0
0
0
0
0
0
0
0
0
0
0
0
0
0
0
0
0
0
0
0
0
0
0
0
0
0
0
0
0
0
0
0
0
0
0
0
0
0
0
0
0
0
0
0
0
0
0
0
0
0
0
0
0
0
0
0
0
0
0
0
0
0
0
0
0
0
0
0
0
0
0
0
0
0
0
0
0
0
0
0
0
0
0
0
0
0
0
0
0
0
0
0
0
0
0
0
0
0
122634
102713
89739.6
122558
185378
108173
96556.9
78946.3
145603
82015.4
113554
240006
165536
199761
90003.1
91105.4
148475
208499
248904
368605
450019
156730
266416
267054
183811
320007
331097
229629
250020
177910
195457
222604
139322
196611
382122
192574
155625
194586
274279
129224
240574
200706
173522
480777
270331
599852
487665
164994
284582
318768
191295
3.40806e+06
1.00521e+06
142411
299908
203926
190233
192855
192226
242874
160041
664186
311232
204909
119749
344103
162440
406850
263924
192981
297052
193023
152658
307632
184184
213888
262071
224322
182575
388370
279235
580526
192428
115516
289330
178938
166790
170031
199656
144606
343737
176362
175722
260349
194310
123828
43908.5
49787.4
24647.1
33701.2
79909.5
30443
31247.2
16992.4
31256.1
12881.8
27618.9
30778.4
44565.3
49096.7
18485.8
95979.2
0
0
0
0
0
0
0
0
0
0
0
0
0
0
0
0
0
0
0
0
0
0
0
0
0
0
0
0
0
0
0
0
0
0
0
0
0
0
0
0
0
0
0
0
0
0
0
0
0
0
0
0
0
0
0
0
0
0
0
0
0
0
0
0
0
0
0
0
0
0
0
0
0
0
0
0
0
0
0
0
0
0
0
0
0
0
0
0
0
0
0
0
0
0
0
0
0
0
0
0
0
0
0
0
0
0
0
0
0
0
0
0
0
0
0
0
0
0
0
0
0
0
0
0
0
0
0
0
0
0
0
0
0
0
0
0
0
0
0
0
0
0
0
0
0
0
0
0
0
0
0
0
0
0
0
0
0
0
0
0
0
0
0
0
0
0
0
0
0
0
0
0
0
0
0
0
0
0
0
0
0
0
0
0
0
0
0
0
0
0
0
0
0
0
0
0
0
0
0
0
0
0
0
0
0
0
0
0
0
0
0
0
0
0
0
0
0
0
0
0
0
0
0
0
0
0
0
0
0
0
0
0
0
0
0
0
0
0
0
0
0
0
0
0
0
0
0
0
0
0
0
0
0
0
0
0
0
0
0
0
0
0
0
0
0
0
0
0
0
0
0
0
96401.1
209117
117640
252426
129531
79694.7
131741
148618
139403
140715
116091
81518.4
103711
129726
124259
412296
152749
170334
308313
172540
627241
332556
189563
148157
299329
190720
161327
316113
196645
340996
304178
140139
212079
413736
220165
209719
354588
116807
222309
226562
98275.7
2.36325e+06
200648
361239
427990
132060
270315
130267
150082
220655
282422
124893
422315
172062
215862
205908
362907
248307
309207
198515
155083
704028
199767
340982
162262
340786
227794
169900
347430
145191
227308
270531
211388
191259
242949
287083
290284
174937
194039
193697
173542
146629
198129
106471
179799
151017
210542
228178
171679
160983
321058
151825
459517
194356
289914
140929
104184
99924.3
79805.4
62833.6
32876.3
537628
75735.7
107115
126176
44286.5
42569.9
30496.5
42491.1
31415.3
40787.8
56410
0
0
266.25
0
0
0
209.865
0
0
0
0
0
0
0
0
0
0
0
0
0
0
0
0
0
0
0
0
0
0
0
0
0
0
0
0
0
0
0
0
0
0
0
0
0
0
0
0
0
0
0
0
0
0
0
0
0
0
0
0
0
0
0
0
0
0
0
0
0
0
0
0
0
0
0
0
0
0
0
0
0
0
0
0
0
0
0
0
0
0
0
0
0
0
0
0
0
0
0
0
0
0
0
0
0
0
0
0
0
0
0
0
0
0
0
0
0
0
0
0
0
0
0
0
0
0
0
0
0
0
0
0
0
0
0
0
0
0
0
0
0
0
0
0
0
0
0
0
0
0
0
0
0
0
0
0
0
0
0
0
0
0
0
0
0
0
0
0
0
0
0
0
0
0
0
0
0
0
0
0
0
0
0
0
0
0
0
0
0
0
0
0
0
0
0
0
0
0
0
0
0
0
0
0
0
0
0
0
0
0
0
0
0
0
0
0
0
0
0
0
0
0
0
0
0
0
0
0
0
0
0
0
0
0
0
0
0
0
0
0
0
0
0
0
0
0
0
0
0
0
0
0
0
0
0
0
0
0
0
0
0
0
0
0
0
0
0
0
0
0
0
0
0
)
;

boundaryField
{
    inlet
    {
        type            zeroGradient;
    }
    outlet
    {
        type            zeroGradient;
    }
    wall
    {
        type            zeroGradient;
    }
    procBoundary0to1
    {
        type            processor;
        value           nonuniform List<scalar> 
192
(
57703.8
115507
97097.2
254712
269191
234301
216711
325357
109881
357502
261834
147720
1.1656e+06
270144
197892
2.56511e+06
146019
205838
327098
129350
1.15123e+06
117400
297746
3.53508e+06
35593.6
59509.4
76593.3
177094
0
0
0
175.908
0
0
0
0
0
0
0
0
0
0
0
0
0
0
0
0
0
0
0
0
0
0
0
0
0
0
0
0
0
0
0
0
0
0
0
0
0
0
0
0
0
0
0
0
0
0
0
0
0
0
0
0
0
0
0
0
0
0
0
0
0
0
0
0
73809.9
133210
103650
92932.7
240632
268983
203903
173335
311443
244686
210874
2.2174e+06
829993
519539
160439
284478
285470
204564
175028
337867
5.57778e+06
122559
292637
270334
31120.2
38372.3
37296.6
20078.6
0
0
0
0
0
0
0
0
0
0
0
0
0
0
0
0
0
0
0
0
0
0
0
0
0
0
0
0
0
0
0
0
0
0
0
0
0
0
0
0
0
0
0
0
0
0
0
0
0
0
0
0
0
0
0
0
0
0
0
0
0
0
0
0
0
0
0
0
)
;
    }
    procBoundary0to2
    {
        type            processor;
        value           nonuniform List<scalar> 
192
(
166777
209789
152330
165869
164845
368078
201467
4.38804e+07
369613
282586
236101
100068
171987
1.05759e+06
327374
427641
1.3806e+06
203483
165356
127458
109209
293080
367965
1.69851e+06
131744
79138.3
65786.8
65575.6
0
0
0
0
0
0
0
0
0
0
0
0
0
0
0
0
0
0
0
0
0
0
0
0
0
0
0
0
0
0
0
0
0
0
0
0
0
0
0
0
0
0
0
0
0
0
0
0
0
0
0
0
0
0
0
0
0
0
0
0
0
0
0
0
0
0
0
0
124381
70099.1
160294
102183
398326
280790
999404
545060
171122
92995
242175
131466
290591
146750
268960
225461
153001
257708
342072
155325
225857
81424.8
343646
171041
144392
13451.7
44705.1
19194.4
0
0
0
0
0
0
0
0
0
0
0
0
0
0
0
0
0
0
0
0
0
0
0
0
0
0
0
0
0
0
0
0
0
0
0
0
0
0
0
0
0
0
0
0
0
0
0
0
0
0
0
0
0
0
0
0
0
0
0
0
0
0
0
0
0
0
0
0
)
;
    }
}


// ************************************************************************* //
