/*--------------------------------*- C++ -*----------------------------------*\
| =========                 |                                                 |
| \\      /  F ield         | OpenFOAM: The Open Source CFD Toolbox           |
|  \\    /   O peration     | Version:  2506                                  |
|   \\  /    A nd           | Website:  www.openfoam.com                      |
|    \\/     M anipulation  |                                                 |
\*---------------------------------------------------------------------------*/
FoamFile
{
    version     2.0;
    format      ascii;
    arch        "LSB;label=32;scalar=64";
    class       volScalarField;
    location    "0.01";
    object      p;
}
// * * * * * * * * * * * * * * * * * * * * * * * * * * * * * * * * * * * * * //

dimensions      [0 2 -2 0 0 0 0];

internalField   nonuniform List<scalar> 
1152
(
6.33141
6.30756
6.31473
6.40873
6.30414
6.30611
6.36862
6.38022
6.30559
6.29902
6.30068
6.35042
6.30041
6.28853
6.31863
6.36323
5.57611
5.61199
5.65205
5.60421
5.61094
5.63708
5.58146
5.56714
5.64915
5.63636
5.66478
5.59698
5.62497
5.70891
5.72505
5.76468
4.49641
4.52896
4.71426
4.26308
4.38824
4.57902
4.48133
4.39912
4.5373
4.58338
4.63009
4.48026
4.55097
4.48201
4.52249
4.37853
3.3737
3.40153
3.42026
3.46958
3.33666
3.3293
3.41554
3.4166
3.32452
3.3465
3.42383
3.33558
3.22165
3.43298
3.42773
3.43302
2.26979
2.19604
2.13602
2.24622
2.29027
2.21807
2.27234
2.20186
2.13864
2.1922
2.27441
2.21696
2.16131
2.30931
2.352
2.42493
1.1398
1.18161
1.20461
1.25641
1.12557
1.20248
1.27308
1.31068
1.17388
1.23419
1.24503
1.26339
1.20744
1.26438
1.33074
1.3119
1.00665
1.01151
1.0084
1.00787
1.0115
1.01191
1.00545
0.998058
1.01037
1.0119
1.00821
1.01163
1.01299
1.0092
1.00587
1.00711
1.00424
1.00461
1.00442
1.00428
1.00462
1.00463
1.00434
1.00402
1.00459
1.00488
1.00451
1.00456
1.00499
1.00506
1.00489
1.0047
1.00685
1.00699
1.00696
1.00707
1.00702
1.00717
1.00711
1.00709
1.00727
1.00745
1.00749
1.00785
1.00756
1.00761
1.00766
1.0082
1.00552
1.00562
1.00565
1.00569
1.00567
1.00575
1.00577
1.00578
1.00582
1.00591
1.00595
1.00605
1.00596
1.00603
1.00608
1.0062
1.00544
1.00546
1.00548
1.0055
1.00549
1.00553
1.00556
1.00558
1.00557
1.00562
1.00566
1.00571
1.00565
1.0057
1.00575
1.00582
1.00507
1.00509
1.00511
1.00513
1.00511
1.00514
1.00517
1.00519
1.00517
1.0052
1.00523
1.00526
1.00522
1.00526
1.00529
1.00533
1.0047
1.00471
1.00472
1.00474
1.00473
1.00475
1.00476
1.00478
1.00477
1.00479
1.00481
1.00483
1.00481
1.00483
1.00485
1.00487
1.00432
1.00432
1.00433
1.00434
1.00434
1.00435
1.00436
1.00437
1.00436
1.00438
1.00439
1.0044
1.00439
1.0044
1.00442
1.00443
1.00392
1.00393
1.00393
1.00394
1.00394
1.00394
1.00395
1.00396
1.00396
1.00396
1.00397
1.00398
1.00397
1.00398
1.00399
1.004
1.00352
1.00352
1.00353
1.00353
1.00353
1.00354
1.00354
1.00354
1.00355
1.00355
1.00355
1.00356
1.00356
1.00356
1.00357
1.00357
1.00312
1.00312
1.00312
1.00312
1.00312
1.00313
1.00313
1.00313
1.00313
1.00313
1.00314
1.00314
1.00314
1.00314
1.00315
1.00315
1.00271
1.00271
1.00271
1.00271
1.00271
1.00271
1.00271
1.00272
1.00272
1.00272
1.00272
1.00272
1.00272
1.00273
1.00273
1.00273
1.00229
1.00229
1.00229
1.0023
1.0023
1.0023
1.0023
1.0023
1.0023
1.0023
1.0023
1.0023
1.00231
1.00231
1.00231
1.00231
1.00188
1.00188
1.00188
1.00188
1.00188
1.00188
1.00188
1.00188
1.00188
1.00188
1.00189
1.00189
1.00189
1.00189
1.00189
1.00189
1.00146
1.00146
1.00146
1.00146
1.00146
1.00146
1.00146
1.00147
1.00147
1.00147
1.00147
1.00147
1.00147
1.00147
1.00147
1.00147
1.00104
1.00104
1.00105
1.00105
1.00105
1.00105
1.00105
1.00105
1.00105
1.00105
1.00105
1.00105
1.00105
1.00105
1.00105
1.00105
1.00063
1.00063
1.00063
1.00063
1.00063
1.00063
1.00063
1.00063
1.00063
1.00063
1.00063
1.00063
1.00063
1.00063
1.00063
1.00063
1.00021
1.00021
1.00021
1.00021
1.00021
1.00021
1.00021
1.00021
1.00021
1.00021
1.00021
1.00021
1.00021
1.00021
1.00021
1.00021
6.20906
6.237
6.26117
6.29066
6.32592
6.25926
6.27085
6.27982
6.28415
6.26876
6.29597
6.32937
6.33126
6.29032
6.27049
6.27515
5.45848
5.50628
5.58213
5.56443
5.39545
5.49374
5.57024
5.55014
5.49987
5.5744
5.53938
5.57033
5.48981
5.53418
5.6275
5.58548
4.51458
4.5022
4.4636
4.47058
4.44036
4.41774
4.42388
4.4192
4.35899
4.35122
4.36572
4.43424
4.25759
4.46633
4.49396
4.46621
3.36901
3.41472
3.35858
3.43258
3.45519
3.38019
3.36568
3.38831
3.22778
3.30485
3.29965
3.28576
3.23339
3.22135
3.21302
3.36074
2.27215
2.26579
2.2069
2.10568
2.21083
2.26096
2.18082
2.19337
2.19897
2.16897
2.20551
2.15021
2.21336
2.11862
2.10664
2.11619
1.24223
1.12044
1.13471
1.13064
1.18934
1.13777
1.11806
1.10316
1.1486
1.07516
1.07975
1.13426
1.20133
1.19196
1.10316
1.20982
1.01416
1.01017
1.01042
1.00898
1.00272
1.00862
1.00728
1.00889
1.00847
1.00822
1.00594
1.0155
1.01001
1.00635
1.00914
1.01004
1.00375
1.00386
1.00406
1.00427
1.00275
1.00392
1.0042
1.00449
1.0037
1.00421
1.00408
1.00467
1.00355
1.00295
1.0042
1.00393
1.00711
1.00705
1.007
1.00693
1.00655
1.00662
1.00658
1.0068
1.00619
1.00635
1.00648
1.00709
1.00616
1.00622
1.00656
1.00693
1.00532
1.00538
1.00541
1.00546
1.0053
1.00537
1.00542
1.00554
1.00535
1.00544
1.00552
1.0057
1.00542
1.0055
1.00561
1.00573
1.00539
1.00539
1.00541
1.00543
1.00537
1.00538
1.0054
1.00544
1.00536
1.00539
1.00543
1.0055
1.00543
1.00545
1.00549
1.00556
1.00501
1.00502
1.00503
1.00505
1.00503
1.00504
1.00506
1.00508
1.00505
1.00507
1.00509
1.00513
1.00511
1.00512
1.00514
1.00518
1.00466
1.00467
1.00467
1.00469
1.00468
1.00468
1.0047
1.00471
1.0047
1.00471
1.00472
1.00474
1.00474
1.00475
1.00476
1.00478
1.00429
1.00429
1.0043
1.00431
1.00431
1.00431
1.00432
1.00433
1.00432
1.00433
1.00434
1.00435
1.00435
1.00436
1.00436
1.00438
1.00391
1.00391
1.00391
1.00392
1.00392
1.00392
1.00392
1.00393
1.00393
1.00394
1.00394
1.00395
1.00395
1.00395
1.00396
1.00397
1.00351
1.00351
1.00351
1.00352
1.00352
1.00352
1.00352
1.00353
1.00353
1.00353
1.00354
1.00354
1.00354
1.00355
1.00355
1.00355
1.00311
1.00311
1.00311
1.00311
1.00312
1.00312
1.00312
1.00312
1.00312
1.00312
1.00313
1.00313
1.00313
1.00313
1.00314
1.00314
1.0027
1.0027
1.0027
1.0027
1.00271
1.00271
1.00271
1.00271
1.00271
1.00271
1.00271
1.00272
1.00272
1.00272
1.00272
1.00272
1.00229
1.00229
1.00229
1.00229
1.00229
1.00229
1.00229
1.0023
1.0023
1.0023
1.0023
1.0023
1.0023
1.0023
1.0023
1.0023
1.00188
1.00188
1.00188
1.00188
1.00188
1.00188
1.00188
1.00188
1.00188
1.00188
1.00188
1.00188
1.00188
1.00188
1.00189
1.00189
1.00146
1.00146
1.00146
1.00146
1.00146
1.00146
1.00146
1.00146
1.00146
1.00146
1.00146
1.00147
1.00147
1.00147
1.00147
1.00147
1.00104
1.00104
1.00104
1.00104
1.00105
1.00105
1.00105
1.00105
1.00105
1.00105
1.00105
1.00105
1.00105
1.00105
1.00105
1.00105
1.00063
1.00063
1.00063
1.00063
1.00063
1.00063
1.00063
1.00063
1.00063
1.00063
1.00063
1.00063
1.00063
1.00063
1.00063
1.00063
1.00021
1.00021
1.00021
1.00021
1.00021
1.00021
1.00021
1.00021
1.00021
1.00021
1.00021
1.00021
1.00021
1.00021
1.00021
1.00021
6.22432
6.29209
6.31584
6.34313
6.27346
6.2759
6.30104
6.30242
6.29513
6.30307
6.29491
6.29589
6.3039
6.32761
6.33274
6.33175
5.54565
5.52924
5.58669
5.49191
5.54702
5.50586
5.55611
5.55244
5.43219
5.55741
5.58371
5.66226
5.54297
5.52678
5.60489
5.54261
4.45716
4.48644
4.46091
4.37142
4.46216
4.44874
4.50912
4.51222
4.47025
4.49616
4.58386
4.51674
4.46521
4.51772
4.5603
4.62831
3.34268
3.35793
3.35936
3.32239
3.38642
3.38598
3.38948
3.36757
3.50214
3.31972
3.40819
3.36785
3.42762
3.42824
3.3928
3.47849
2.30151
2.23836
2.25605
2.28548
2.23228
2.27082
2.27967
2.27138
2.23895
2.22712
2.24554
2.20186
2.29742
2.19737
2.22232
2.1582
1.35326
1.38714
1.32696
1.37859
1.25345
1.42157
1.2898
1.28489
1.32642
1.27136
1.15171
1.14946
1.16538
1.15977
1.14437
1.19562
1.01083
1.00615
0.993256
1.01211
1.0232
0.9927
0.993465
1.01173
1.02092
1.01956
1.00888
1.00843
1.01056
1.00985
1.00791
1.00894
1.004
1.00385
1.00467
1.00351
1.00443
1.00305
1.00486
1.00417
1.00252
1.00449
1.00436
1.00431
1.00397
1.00477
1.00451
1.0044
1.00709
1.00606
1.00595
1.00695
1.00721
1.00624
1.0062
1.00698
1.00711
1.0069
1.00661
1.00695
1.00698
1.00689
1.00681
1.00702
1.00527
1.00505
1.00504
1.00534
1.00535
1.00515
1.00521
1.00544
1.00536
1.00534
1.00538
1.00552
1.00541
1.00547
1.00553
1.00561
1.00538
1.00528
1.00526
1.00534
1.00538
1.00531
1.00528
1.00535
1.00539
1.00536
1.00534
1.00538
1.00541
1.00541
1.00541
1.00544
1.00499
1.00495
1.00496
1.005
1.005
1.00498
1.00498
1.00502
1.00501
1.00501
1.00501
1.00504
1.00503
1.00504
1.00506
1.00508
1.00465
1.00463
1.00463
1.00465
1.00465
1.00464
1.00464
1.00466
1.00466
1.00466
1.00466
1.00468
1.00468
1.00468
1.00469
1.0047
1.00428
1.00427
1.00427
1.00428
1.00428
1.00428
1.00428
1.00429
1.00429
1.00429
1.00429
1.0043
1.0043
1.0043
1.00431
1.00432
1.0039
1.00389
1.00389
1.0039
1.0039
1.0039
1.0039
1.0039
1.00391
1.0039
1.0039
1.00391
1.00391
1.00391
1.00392
1.00392
1.00351
1.0035
1.0035
1.0035
1.00351
1.0035
1.0035
1.00351
1.00351
1.00351
1.00351
1.00351
1.00351
1.00351
1.00352
1.00352
1.0031
1.0031
1.0031
1.0031
1.0031
1.0031
1.0031
1.0031
1.00311
1.00311
1.00311
1.00311
1.00311
1.00311
1.00311
1.00311
1.0027
1.0027
1.00269
1.0027
1.0027
1.0027
1.0027
1.0027
1.0027
1.0027
1.0027
1.0027
1.0027
1.0027
1.0027
1.0027
1.00229
1.00229
1.00228
1.00229
1.00229
1.00229
1.00229
1.00229
1.00229
1.00229
1.00229
1.00229
1.00229
1.00229
1.00229
1.00229
1.00187
1.00187
1.00187
1.00187
1.00187
1.00187
1.00187
1.00187
1.00188
1.00187
1.00187
1.00187
1.00188
1.00188
1.00188
1.00188
1.00146
1.00146
1.00146
1.00146
1.00146
1.00146
1.00146
1.00146
1.00146
1.00146
1.00146
1.00146
1.00146
1.00146
1.00146
1.00146
1.00104
1.00104
1.00104
1.00104
1.00104
1.00104
1.00104
1.00104
1.00104
1.00104
1.00104
1.00104
1.00104
1.00104
1.00104
1.00104
1.00063
1.00063
1.00063
1.00063
1.00063
1.00063
1.00063
1.00063
1.00063
1.00063
1.00063
1.00063
1.00063
1.00063
1.00063
1.00063
1.00021
1.00021
1.00021
1.00021
1.00021
1.00021
1.00021
1.00021
1.00021
1.00021
1.00021
1.00021
1.00021
1.00021
1.00021
1.00021
)
;

boundaryField
{
    inlet
    {
        type            zeroGradient;
    }
    outlet
    {
        type            fixedValue;
        value           uniform 1;
    }
    wall
    {
        type            zeroGradient;
    }
    procBoundary0to1
    {
        type            processor;
        value           nonuniform List<scalar> 
192
(
6.29697
6.33279
6.33187
6.34087
5.65674
5.67726
5.66987
5.60925
4.39875
4.45939
4.503
4.5547
3.4421
3.30012
3.31518
3.35576
2.22176
2.1402
2.24404
2.31434
1.18907
1.26125
1.24713
1.34749
1.0136
1.00922
1.00175
0.995744
1.00475
1.00388
1.00313
1.00423
1.00706
1.00719
1.00795
1.00929
1.00572
1.00581
1.00608
1.00635
1.00552
1.00561
1.00575
1.00588
1.00515
1.00521
1.00528
1.00536
1.00475
1.00479
1.00484
1.00488
1.00435
1.00438
1.00441
1.00444
1.00394
1.00396
1.00398
1.004
1.00354
1.00355
1.00356
1.00358
1.00312
1.00313
1.00314
1.00315
1.00271
1.00272
1.00272
1.00273
1.0023
1.0023
1.00231
1.00231
1.00188
1.00188
1.00189
1.00189
1.00146
1.00147
1.00147
1.00147
1.00105
1.00105
1.00105
1.00105
1.00063
1.00063
1.00063
1.00063
1.00021
1.00021
1.00021
1.00021
6.28977
6.31195
6.29911
6.29294
5.78477
5.6745
5.67037
5.68665
4.65135
4.58893
4.4913
4.57128
3.3215
3.30444
3.32
3.31897
2.25588
2.12353
2.24984
2.20613
1.4884
1.2303
1.1483
1.07744
0.989804
1.01141
1.00794
1.01085
1.00417
1.00457
1.00449
1.0049
1.00634
1.00684
1.00682
1.00699
1.00532
1.0055
1.00555
1.00565
1.00531
1.00536
1.0054
1.00546
1.00501
1.00503
1.00506
1.0051
1.00466
1.00467
1.00469
1.00472
1.00429
1.0043
1.00431
1.00433
1.0039
1.00391
1.00392
1.00393
1.00351
1.00351
1.00352
1.00352
1.0031
1.00311
1.00311
1.00312
1.0027
1.0027
1.0027
1.00271
1.00229
1.00229
1.00229
1.00229
1.00187
1.00187
1.00188
1.00188
1.00146
1.00146
1.00146
1.00146
1.00104
1.00104
1.00104
1.00104
1.00063
1.00063
1.00063
1.00063
1.00021
1.00021
1.00021
1.00021
)
;
    }
    procBoundary0to2
    {
        type            processor;
        value           nonuniform List<scalar> 
192
(
6.29471
6.34856
6.35632
6.34244
5.57111
5.58934
5.64724
5.48401
4.49775
4.53816
4.57505
4.55678
3.39531
3.39109
3.39911
3.53049
2.15601
2.27637
2.37327
2.42907
1.26768
1.28239
1.3258
1.38092
1.01132
1.01256
1.01122
1.01689
1.00561
1.00557
1.00556
1.00565
1.00775
1.0079
1.00803
1.00849
1.00606
1.00617
1.00624
1.00637
1.00572
1.00578
1.00583
1.0059
1.00528
1.00531
1.00535
1.00539
1.00484
1.00487
1.00489
1.00491
1.00442
1.00443
1.00444
1.00446
1.00399
1.004
1.00401
1.00402
1.00357
1.00358
1.00358
1.00359
1.00315
1.00315
1.00316
1.00316
1.00273
1.00273
1.00274
1.00274
1.00231
1.00231
1.00231
1.00232
1.00189
1.00189
1.00189
1.00189
1.00147
1.00147
1.00147
1.00147
1.00105
1.00105
1.00105
1.00105
1.00063
1.00063
1.00063
1.00063
1.00021
1.00021
1.00021
1.00021
6.24249
6.20152
6.29397
6.27845
5.40717
5.35273
5.45672
5.51403
4.33291
4.35235
4.37058
4.42287
3.30284
3.44502
3.39092
3.38366
2.16582
2.07748
2.19163
2.17501
1.26573
1.13009
1.13529
1.13812
1.00623
0.993323
0.999599
0.997704
1.00447
1.0041
1.00404
1.0053
1.00695
1.00662
1.00649
1.00676
1.00566
1.00571
1.00572
1.00583
1.00553
1.00554
1.00557
1.00563
1.00517
1.00518
1.0052
1.00523
1.00478
1.00479
1.0048
1.00482
1.00438
1.00439
1.00439
1.0044
1.00397
1.00398
1.00398
1.00399
1.00356
1.00356
1.00356
1.00357
1.00314
1.00314
1.00315
1.00315
1.00273
1.00273
1.00273
1.00273
1.00231
1.00231
1.00231
1.00231
1.00189
1.00189
1.00189
1.00189
1.00147
1.00147
1.00147
1.00147
1.00105
1.00105
1.00105
1.00105
1.00063
1.00063
1.00063
1.00063
1.00021
1.00021
1.00021
1.00021
)
;
    }
}


// ************************************************************************* //
