/*--------------------------------*- C++ -*----------------------------------*\
| =========                 |                                                 |
| \\      /  F ield         | OpenFOAM: The Open Source CFD Toolbox           |
|  \\    /   O peration     | Version:  2506                                  |
|   \\  /    A nd           | Website:  www.openfoam.com                      |
|    \\/     M anipulation  |                                                 |
\*---------------------------------------------------------------------------*/
FoamFile
{
    version     2.0;
    format      ascii;
    arch        "LSB;label=32;scalar=64";
    class       volVectorField;
    location    "0.01";
    object      Us;
}
// * * * * * * * * * * * * * * * * * * * * * * * * * * * * * * * * * * * * * //

dimensions      [0 1 -1 0 0 0 0];

internalField   nonuniform List<vector> 
1152
(
(-3.1214e-06 -4.06822e-05 2.53551e-05)
(-1.58608e-05 -5.73611e-05 1.58614e-05)
(-4.38678e-05 -4.44353e-05 3.85058e-05)
(-6.34057e-05 -5.6131e-05 3.07115e-05)
(1.63098e-05 -3.006e-05 6.04828e-05)
(7.30084e-07 -9.29868e-05 4.66227e-05)
(-2.45063e-05 -5.88012e-05 2.48403e-05)
(-4.04748e-05 -4.71132e-05 1.84199e-05)
(-7.29477e-06 -2.64126e-05 5.40772e-05)
(-0.000868939 0.000257817 -0.000372567)
(-0.000543967 2.68696e-05 -0.000217096)
(-5.78555e-05 -5.10145e-05 -1.53585e-05)
(-2.76998e-05 -5.8188e-06 4.46784e-05)
(-9.81544e-05 -1.47419e-05 2.82492e-05)
(-6.18098e-05 -0.000133546 -5.66193e-08)
(-7.17638e-05 -3.87708e-05 3.54555e-06)
(5.54035e-05 -5.23571e-05 0.000167643)
(-7.14309e-05 -4.17448e-05 0.000129305)
(-7.40575e-05 -6.67686e-05 8.95274e-05)
(-8.63149e-05 -9.61687e-05 9.46651e-05)
(-1.55781e-05 -6.79995e-05 0.0001644)
(-2.83427e-05 -7.29464e-05 0.000116992)
(-6.57072e-05 -0.000123118 6.26895e-05)
(-3.51542e-05 -8.75851e-05 5.86216e-05)
(1.09069e-05 -6.24934e-05 0.000118529)
(1.43947e-05 -5.36508e-05 7.27104e-05)
(8.64164e-07 -7.69824e-05 2.70878e-05)
(-2.99922e-05 -6.57595e-05 -1.25198e-06)
(2.10402e-05 -2.17105e-05 9.88027e-05)
(-9.23264e-06 -1.90194e-05 8.9476e-05)
(-1.78494e-05 -4.756e-05 2.55854e-05)
(-7.16048e-05 -6.62497e-05 3.32654e-05)
(-5.58626e-05 -1.67525e-05 0.000282125)
(-6.49574e-05 -1.99385e-05 0.000211874)
(-8.68667e-05 -3.25298e-05 0.000204909)
(-9.95209e-05 -8.97318e-05 0.000176871)
(-6.45752e-05 -2.45492e-05 0.000252802)
(-4.22514e-05 -3.04508e-05 0.000188005)
(-7.18007e-05 -3.03864e-05 0.000150129)
(-9.63515e-05 -6.70992e-05 5.37257e-05)
(-5.69554e-05 -2.65751e-05 0.000160583)
(-4.73922e-05 -2.36342e-05 0.000130375)
(-5.5532e-05 -4.79023e-05 2.47076e-05)
(-0.000109573 -2.19923e-05 -6.2194e-06)
(-0.000102475 3.2083e-05 0.000127404)
(-2.17517e-05 -2.9885e-05 3.54421e-05)
(-5.77837e-05 -3.23345e-06 3.52304e-07)
(-0.000116201 8.62351e-06 -2.1036e-05)
(-3.27292e-05 -1.42717e-05 0.000335166)
(-3.29257e-05 -2.90811e-05 0.000360702)
(-6.9334e-05 3.80279e-05 0.000270584)
(-9.89904e-05 -6.50685e-05 0.000203695)
(-0.000105548 3.93776e-05 0.000351952)
(-0.000119544 2.5343e-06 0.000209606)
(-0.000116599 -1.69656e-05 0.000133681)
(-0.000124343 -3.11489e-05 0.000133653)
(-8.17446e-05 2.53902e-05 0.000224251)
(-9.44122e-05 5.36517e-05 0.000124844)
(-0.000141069 -9.93663e-07 4.1624e-05)
(-0.000138531 -5.42649e-06 -6.32214e-06)
(-7.76749e-05 3.80292e-05 0.000177126)
(-7.24991e-05 0.000104397 -1.13894e-05)
(-2.35271e-05 4.21749e-05 -6.57959e-05)
(-0.000154752 3.55833e-05 -5.26905e-05)
(-0.000159431 -4.33842e-05 0.00031382)
(-7.83827e-05 -3.74861e-05 0.000405817)
(-4.79536e-05 7.73461e-06 0.000297535)
(-6.26739e-05 -4.02959e-05 0.000207589)
(-0.000168684 2.17862e-05 0.00036326)
(-6.35921e-05 7.63612e-06 0.000239056)
(-9.08455e-05 6.7584e-05 0.000144312)
(-6.67977e-05 5.3842e-05 0.000199126)
(-0.000105288 5.33804e-05 0.000255731)
(-5.51473e-05 9.08813e-05 0.000127589)
(-0.000119879 8.57497e-05 3.22221e-05)
(-0.000246127 0.000212609 -0.000125433)
(-5.44642e-05 5.51969e-05 0.00019162)
(-5.48513e-06 0.000150553 -5.5448e-05)
(3.16963e-07 0.000128663 -9.36533e-05)
(-4.77067e-05 0.000157386 -0.000184138)
(-0.00013109 1.44935e-05 0.00021753)
(0.00012959 0.000267686 6.55995e-05)
(0.000225 0.000122438 0.000354499)
(4.74801e-05 0.000175558 0.000250713)
(-0.000109708 6.0476e-05 0.000255809)
(-2.10411e-05 1.96005e-05 -1.17438e-05)
(-7.29931e-05 0.000109979 5.16062e-05)
(7.60812e-05 0.000151099 5.37627e-05)
(8.36276e-05 4.56393e-05 0.000227469)
(0.000115044 0.000122474 0.000183777)
(-3.11156e-05 8.84338e-05 6.12136e-05)
(-2.54867e-05 0.000283664 -0.000196162)
(0.000357892 -0.0001616 -7.79678e-05)
(-8.24881e-05 0.000140214 -7.83594e-05)
(0.000204284 0.000181764 -0.000182526)
(8.92568e-05 0.000184689 -0.000130686)
(0.000771806 0.00137778 -0.00148503)
(0.000100449 0.000545798 -4.92944e-06)
(-4.68683e-05 0.000276806 0.000310921)
(0.000139923 0.000317912 0.000270727)
(2.99423e-05 -0.000159831 0.000206269)
(-3.55604e-05 -0.000234719 2.04443e-05)
(-0.000409167 0.000701525 -9.92941e-05)
(0.000872144 0.000314531 0.000197885)
(0.000890011 0.00042604 -0.000511988)
(0.00067967 0.000217659 7.68344e-05)
(0.000405611 0.000788733 -0.000786891)
(0.000263537 0.000417436 0.000354348)
(0.0011978 0.00148587 -0.00140333)
(0.000210013 0.00106509 0.000210102)
(0.000412454 0.000131038 -0.000335602)
(0.00176696 0.00239799 -0.00113908)
(0 0 0)
(0 0 0)
(0 0 0)
(0 0 0)
(0 0 0)
(0 0 0)
(0 0 0)
(0 0 0)
(0 0 0)
(0 0 0)
(0 0 0)
(0 0 0)
(0 0 0)
(0 0 0)
(0 0 0)
(0 0 0)
(0 0 0)
(0 0 0)
(0 0 0)
(0 0 0)
(0 0 0)
(0 0 0)
(0 0 0)
(0 0 0)
(0 0 0)
(0 0 0)
(0 0 0)
(0 0 0)
(0 0 0)
(0 0 0)
(0 0 0)
(0 0 0)
(0 0 0)
(0 0 0)
(0 0 0)
(0 0 0)
(0 0 0)
(0 0 0)
(0 0 0)
(0 0 0)
(0 0 0)
(0 0 0)
(0 0 0)
(0 0 0)
(0 0 0)
(0 0 0)
(0 0 0)
(0 0 0)
(0 0 0)
(0 0 0)
(0 0 0)
(0 0 0)
(0 0 0)
(0 0 0)
(0 0 0)
(0 0 0)
(0 0 0)
(0 0 0)
(0 0 0)
(0 0 0)
(0 0 0)
(0 0 0)
(0 0 0)
(0 0 0)
(0 0 0)
(0 0 0)
(0 0 0)
(0 0 0)
(0 0 0)
(0 0 0)
(0 0 0)
(0 0 0)
(0 0 0)
(0 0 0)
(0 0 0)
(0 0 0)
(0 0 0)
(0 0 0)
(0 0 0)
(0 0 0)
(0 0 0)
(0 0 0)
(0 0 0)
(0 0 0)
(0 0 0)
(0 0 0)
(0 0 0)
(0 0 0)
(0 0 0)
(0 0 0)
(0 0 0)
(0 0 0)
(0 0 0)
(0 0 0)
(0 0 0)
(0 0 0)
(0 0 0)
(0 0 0)
(0 0 0)
(0 0 0)
(0 0 0)
(0 0 0)
(0 0 0)
(0 0 0)
(0 0 0)
(0 0 0)
(0 0 0)
(0 0 0)
(0 0 0)
(0 0 0)
(0 0 0)
(0 0 0)
(0 0 0)
(0 0 0)
(0 0 0)
(0 0 0)
(0 0 0)
(0 0 0)
(0 0 0)
(0 0 0)
(0 0 0)
(0 0 0)
(0 0 0)
(0 0 0)
(0 0 0)
(0 0 0)
(0 0 0)
(0 0 0)
(0 0 0)
(0 0 0)
(0 0 0)
(0 0 0)
(0 0 0)
(0 0 0)
(0 0 0)
(0 0 0)
(0 0 0)
(0 0 0)
(0 0 0)
(0 0 0)
(0 0 0)
(0 0 0)
(0 0 0)
(0 0 0)
(0 0 0)
(0 0 0)
(0 0 0)
(0 0 0)
(0 0 0)
(0 0 0)
(0 0 0)
(0 0 0)
(0 0 0)
(0 0 0)
(0 0 0)
(0 0 0)
(0 0 0)
(0 0 0)
(0 0 0)
(0 0 0)
(0 0 0)
(0 0 0)
(0 0 0)
(0 0 0)
(0 0 0)
(0 0 0)
(0 0 0)
(0 0 0)
(0 0 0)
(0 0 0)
(0 0 0)
(0 0 0)
(0 0 0)
(0 0 0)
(0 0 0)
(0 0 0)
(0 0 0)
(0 0 0)
(0 0 0)
(0 0 0)
(0 0 0)
(0 0 0)
(0 0 0)
(0 0 0)
(0 0 0)
(0 0 0)
(0 0 0)
(0 0 0)
(0 0 0)
(0 0 0)
(0 0 0)
(0 0 0)
(0 0 0)
(0 0 0)
(0 0 0)
(0 0 0)
(0 0 0)
(0 0 0)
(0 0 0)
(0 0 0)
(0 0 0)
(0 0 0)
(0 0 0)
(0 0 0)
(0 0 0)
(0 0 0)
(0 0 0)
(0 0 0)
(0 0 0)
(0 0 0)
(0 0 0)
(0 0 0)
(0 0 0)
(0 0 0)
(0 0 0)
(0 0 0)
(0 0 0)
(0 0 0)
(0 0 0)
(0 0 0)
(0 0 0)
(0 0 0)
(0 0 0)
(0 0 0)
(0 0 0)
(0 0 0)
(0 0 0)
(0 0 0)
(0 0 0)
(0 0 0)
(0 0 0)
(0 0 0)
(0 0 0)
(0 0 0)
(0 0 0)
(0 0 0)
(0 0 0)
(0 0 0)
(0 0 0)
(0 0 0)
(0 0 0)
(0 0 0)
(0 0 0)
(0 0 0)
(0 0 0)
(0 0 0)
(0 0 0)
(0 0 0)
(0 0 0)
(0 0 0)
(0 0 0)
(0 0 0)
(0 0 0)
(0 0 0)
(0 0 0)
(0 0 0)
(0 0 0)
(0 0 0)
(0 0 0)
(0 0 0)
(0 0 0)
(0 0 0)
(0 0 0)
(0 0 0)
(0 0 0)
(0 0 0)
(0 0 0)
(0 0 0)
(0 0 0)
(0 0 0)
(0 0 0)
(0 0 0)
(3.17448e-05 -1.0683e-05 3.49817e-05)
(4.63626e-05 -1.87588e-05 3.1429e-05)
(-3.29463e-05 -2.60831e-05 3.28876e-05)
(3.53177e-05 -3.30945e-05 2.25566e-05)
(2.79661e-05 3.73253e-06 2.15119e-05)
(1.18584e-05 -1.11798e-05 1.56659e-05)
(-1.86439e-06 -2.66959e-05 2.51687e-05)
(8.96634e-06 -2.37308e-05 3.9527e-05)
(5.29807e-06 1.22675e-05 2.19919e-05)
(-1.08374e-05 -1.40173e-06 1.65261e-05)
(-1.9789e-05 -1.38927e-05 3.36526e-05)
(-2.79652e-05 -3.23023e-05 5.63519e-05)
(-6.27351e-06 -3.98204e-06 2.10983e-05)
(-4.99704e-05 4.82416e-07 2.59794e-05)
(-5.55331e-05 -1.50726e-06 5.50101e-05)
(-1.03701e-05 7.99079e-06 4.56213e-05)
(2.05231e-05 -8.33833e-06 4.45313e-05)
(3.77684e-05 4.03729e-06 0.00011236)
(3.8623e-05 -1.05623e-05 9.10243e-05)
(2.41191e-05 -8.88796e-05 0.000140494)
(1.37158e-05 3.53164e-06 6.16277e-05)
(2.53634e-05 -8.22066e-06 7.96766e-05)
(1.34413e-05 -2.76711e-05 8.88889e-05)
(5.33905e-10 -4.9427e-05 0.000112702)
(-1.34626e-05 2.62503e-05 4.45455e-05)
(2.54637e-05 -2.19989e-05 9.48287e-05)
(-2.34638e-05 -3.61067e-05 0.00010193)
(1.21379e-05 -5.86264e-05 0.000113969)
(4.07396e-05 0.000112607 6.03168e-05)
(-4.71248e-05 3.53738e-05 0.00012381)
(-3.13982e-05 -4.42233e-05 0.000129932)
(8.14608e-06 -8.57216e-06 0.000127726)
(5.52822e-06 -2.41403e-05 0.000137354)
(-1.24918e-05 -4.38233e-06 0.000223336)
(9.37932e-06 -5.73665e-05 0.000188043)
(-5.19789e-05 -7.58643e-05 0.000232349)
(1.70835e-05 8.95391e-06 0.000102608)
(2.44425e-05 -3.41108e-06 0.000163463)
(-1.79529e-05 -1.5867e-05 0.000167012)
(-5.32444e-05 -3.72013e-05 0.000223792)
(5.54573e-05 2.56339e-05 0.000123209)
(2.49463e-05 1.61283e-05 0.000218773)
(-4.41339e-05 -1.28449e-05 0.000215395)
(-5.58938e-05 -3.04361e-05 0.000210237)
(1.24171e-05 2.55171e-05 0.000108134)
(1.93309e-05 9.84579e-05 0.000206408)
(-4.4095e-05 -4.56023e-06 0.00027435)
(-7.6449e-05 -5.7847e-05 0.000184988)
(-1.93459e-05 9.82619e-06 0.000228463)
(-5.93807e-05 -1.70728e-05 0.000305918)
(-4.06663e-05 -3.43109e-05 0.000320566)
(-6.09674e-05 -1.43401e-05 0.000330205)
(-1.19193e-05 3.66949e-05 0.000161956)
(9.87611e-06 3.85032e-05 0.000287768)
(-4.10554e-06 2.15233e-05 0.000301967)
(-3.47142e-05 1.6548e-05 0.000329668)
(4.71751e-05 -1.31268e-05 0.000127278)
(6.05466e-05 3.36766e-05 0.000330426)
(8.34881e-06 8.70023e-06 0.000350845)
(-2.36453e-05 4.76297e-05 0.00032794)
(8.44958e-06 -2.21851e-05 0.000148488)
(1.46523e-05 -8.06729e-05 0.000356514)
(-3.25227e-05 3.56327e-05 0.000365496)
(-3.38978e-05 9.90898e-06 0.000297177)
(0.000275256 -0.000311947 0.00012289)
(1.47307e-05 -3.92829e-05 0.000395831)
(-3.79599e-05 -7.69912e-05 0.000356999)
(-0.00012314 -3.90051e-05 0.000347395)
(1.47873e-05 -3.96737e-05 0.00022431)
(-2.64336e-05 -2.69026e-05 0.000416355)
(-2.77884e-05 -6.08168e-05 0.000480919)
(-8.40248e-05 -8.70467e-06 0.0003811)
(-4.16446e-05 -0.000144922 8.04442e-05)
(-1.2261e-05 0.000111685 0.000508525)
(1.90899e-05 7.61045e-06 0.00051329)
(-0.000105305 2.14483e-05 0.000341949)
(-0.000100882 -1.79195e-05 5.78475e-05)
(-4.33471e-05 8.86523e-06 0.000407251)
(-9.74418e-05 5.37173e-06 0.00051107)
(-9.27175e-05 6.46466e-05 0.000386218)
(1.04193e-05 7.46571e-05 0.000402324)
(4.3452e-05 1.59189e-05 0.000528716)
(2.69158e-05 -9.16813e-05 0.000487556)
(-0.000117529 -4.03421e-05 0.000382042)
(-0.000121344 0.000237426 0.000240534)
(-0.000126458 -0.000131225 0.000358319)
(-0.000257676 4.83393e-05 0.000349018)
(-0.000142988 0.000125162 0.000304102)
(-0.000201265 5.73707e-05 -4.78546e-05)
(-0.00030218 4.95413e-06 0.000318718)
(-0.000122372 -4.2222e-05 0.000545384)
(-2.36431e-05 -1.77128e-05 0.000435357)
(-3.58112e-05 -0.00012174 -0.000142912)
(9.36187e-05 -0.000450893 -8.29246e-05)
(6.27366e-05 -0.000178886 0.000663198)
(-5.20416e-05 -9.60386e-05 0.000253202)
(0.000773502 0.00119642 6.24207e-06)
(-0.00098559 -0.000974833 0.00074504)
(-0.000337327 -0.000461983 0.000485541)
(-0.000751322 5.88278e-06 -0.000315475)
(0.00158279 -0.00180612 -0.000126689)
(-0.00060695 -0.00132787 0.000195466)
(-0.00201086 -0.00567915 -0.00161929)
(0.00091166 -0.00162343 -0.000776838)
(-0.000611616 0.000119201 -0.000363796)
(-0.00060817 0.000370979 8.63437e-05)
(-0.000247588 -0.000830363 0.000383427)
(0.000905945 0.000195664 0.000351603)
(-0.00021324 -0.00228821 -0.00182753)
(0.00240837 -0.00489651 -0.00575194)
(-0.00105196 -0.0019119 0.000567791)
(0.00200124 -0.013704 -0.00552632)
(0 0 0)
(0 0 0)
(0 0 0)
(0 0 0)
(0 0 0)
(0 0 0)
(0 0 0)
(0 0 0)
(0 0 0)
(0 0 0)
(0 0 0)
(0 0 0)
(0 0 0)
(0 0 0)
(0 0 0)
(0 0 0)
(0 0 0)
(0 0 0)
(0 0 0)
(0 0 0)
(0 0 0)
(0 0 0)
(0 0 0)
(0 0 0)
(0 0 0)
(0 0 0)
(0 0 0)
(0 0 0)
(0 0 0)
(0 0 0)
(0 0 0)
(0 0 0)
(0 0 0)
(0 0 0)
(0 0 0)
(0 0 0)
(0 0 0)
(0 0 0)
(0 0 0)
(0 0 0)
(0 0 0)
(0 0 0)
(0 0 0)
(0 0 0)
(0 0 0)
(0 0 0)
(0 0 0)
(0 0 0)
(0 0 0)
(0 0 0)
(0 0 0)
(0 0 0)
(0 0 0)
(0 0 0)
(0 0 0)
(0 0 0)
(0 0 0)
(0 0 0)
(0 0 0)
(0 0 0)
(0 0 0)
(0 0 0)
(0 0 0)
(0 0 0)
(0 0 0)
(0 0 0)
(0 0 0)
(0 0 0)
(0 0 0)
(0 0 0)
(0 0 0)
(0 0 0)
(0 0 0)
(0 0 0)
(0 0 0)
(0 0 0)
(0 0 0)
(0 0 0)
(0 0 0)
(0 0 0)
(0 0 0)
(0 0 0)
(0 0 0)
(0 0 0)
(0 0 0)
(0 0 0)
(0 0 0)
(0 0 0)
(0 0 0)
(0 0 0)
(0 0 0)
(0 0 0)
(0 0 0)
(0 0 0)
(0 0 0)
(0 0 0)
(0 0 0)
(0 0 0)
(0 0 0)
(0 0 0)
(0 0 0)
(0 0 0)
(0 0 0)
(0 0 0)
(0 0 0)
(0 0 0)
(0 0 0)
(0 0 0)
(0 0 0)
(0 0 0)
(0 0 0)
(0 0 0)
(0 0 0)
(0 0 0)
(0 0 0)
(0 0 0)
(0 0 0)
(0 0 0)
(0 0 0)
(0 0 0)
(0 0 0)
(0 0 0)
(0 0 0)
(0 0 0)
(0 0 0)
(0 0 0)
(0 0 0)
(0 0 0)
(0 0 0)
(0 0 0)
(0 0 0)
(0 0 0)
(0 0 0)
(0 0 0)
(0 0 0)
(0 0 0)
(0 0 0)
(0 0 0)
(0 0 0)
(0 0 0)
(0 0 0)
(0 0 0)
(0 0 0)
(0 0 0)
(0 0 0)
(0 0 0)
(0 0 0)
(0 0 0)
(0 0 0)
(0 0 0)
(0 0 0)
(0 0 0)
(0 0 0)
(0 0 0)
(0 0 0)
(0 0 0)
(0 0 0)
(0 0 0)
(0 0 0)
(0 0 0)
(0 0 0)
(0 0 0)
(0 0 0)
(0 0 0)
(0 0 0)
(0 0 0)
(0 0 0)
(0 0 0)
(0 0 0)
(0 0 0)
(0 0 0)
(0 0 0)
(0 0 0)
(0 0 0)
(0 0 0)
(0 0 0)
(0 0 0)
(0 0 0)
(0 0 0)
(0 0 0)
(0 0 0)
(0 0 0)
(0 0 0)
(0 0 0)
(0 0 0)
(0 0 0)
(0 0 0)
(0 0 0)
(0 0 0)
(0 0 0)
(0 0 0)
(0 0 0)
(0 0 0)
(0 0 0)
(0 0 0)
(0 0 0)
(0 0 0)
(0 0 0)
(0 0 0)
(0 0 0)
(0 0 0)
(0 0 0)
(0 0 0)
(0 0 0)
(0 0 0)
(0 0 0)
(0 0 0)
(0 0 0)
(0 0 0)
(0 0 0)
(0 0 0)
(0 0 0)
(0 0 0)
(0 0 0)
(0 0 0)
(0 0 0)
(0 0 0)
(0 0 0)
(0 0 0)
(0 0 0)
(0 0 0)
(0 0 0)
(0 0 0)
(0 0 0)
(0 0 0)
(0 0 0)
(0 0 0)
(0 0 0)
(0 0 0)
(0 0 0)
(0 0 0)
(0 0 0)
(0 0 0)
(0 0 0)
(0 0 0)
(0 0 0)
(0 0 0)
(0 0 0)
(0 0 0)
(0 0 0)
(0 0 0)
(0 0 0)
(0 0 0)
(0 0 0)
(0 0 0)
(0 0 0)
(0 0 0)
(0 0 0)
(0 0 0)
(0 0 0)
(0 0 0)
(0 0 0)
(0 0 0)
(0 0 0)
(0 0 0)
(0 0 0)
(0 0 0)
(0 0 0)
(0 0 0)
(0 0 0)
(0 0 0)
(0 0 0)
(0 0 0)
(0 0 0)
(0 0 0)
(0 0 0)
(0 0 0)
(0 0 0)
(0 0 0)
(0 0 0)
(0 0 0)
(0 0 0)
(-5.86907e-06 3.42469e-05 3.03867e-05)
(3.34067e-05 -2.89774e-06 2.35823e-05)
(1.41157e-05 -2.02099e-05 4.45911e-05)
(-2.99324e-06 1.57232e-05 1.43937e-05)
(2.21024e-05 2.20043e-05 7.36588e-05)
(5.13638e-05 3.31701e-05 3.31598e-05)
(-3.48025e-06 4.1261e-06 4.51701e-05)
(-2.19671e-05 -1.99318e-05 7.95801e-05)
(-2.02972e-05 -1.47487e-05 0.000124293)
(3.595e-05 -5.75344e-05 3.64311e-05)
(2.78784e-05 -2.52598e-05 6.2364e-05)
(-7.8247e-05 -2.87082e-05 4.22044e-05)
(3.12044e-05 -3.50504e-05 3.19665e-05)
(9.81939e-06 -6.49402e-05 2.26067e-05)
(-4.15114e-05 -3.10741e-05 4.14302e-05)
(-6.82126e-05 -2.94365e-05 3.00556e-05)
(-7.68736e-06 -2.88285e-05 0.000100983)
(-2.09575e-05 -6.69481e-06 8.03194e-05)
(-2.01925e-05 -2.12045e-05 7.19178e-05)
(-1.36947e-05 4.25774e-06 6.73485e-05)
(-2.69103e-05 3.1559e-05 0.00021351)
(2.2482e-05 -4.90411e-05 0.000120976)
(-3.93688e-05 -3.18995e-05 0.000161266)
(-3.25482e-05 -2.41426e-05 0.000129979)
(-0.000146519 -8.21764e-05 0.000162875)
(-0.000100434 -7.4212e-05 0.00019104)
(-8.31186e-05 -2.81338e-05 0.000164166)
(-0.000116643 -3.67091e-05 0.000114463)
(5.24191e-05 1.68165e-06 0.000160291)
(-7.38773e-05 -3.8906e-05 0.000163012)
(-0.000100852 -3.68709e-05 0.000125541)
(-0.000131459 -7.56266e-05 0.000108371)
(0.000124225 -8.92782e-05 0.000307824)
(-1.90367e-06 -1.98815e-05 0.000132279)
(1.03297e-05 4.39162e-05 0.000138628)
(-2.4229e-05 1.15588e-06 0.000102281)
(4.21021e-05 -4.03157e-05 0.00030678)
(5.06914e-05 -2.62929e-05 0.00022017)
(-0.000116454 -3.13084e-05 0.000249133)
(-4.4271e-05 -1.55863e-05 0.000108068)
(-0.000148539 -0.000150181 0.000382768)
(-8.94987e-05 -4.08213e-05 0.000259931)
(-4.9469e-05 -7.35339e-05 0.000225329)
(-6.21681e-05 -9.28734e-05 0.000143361)
(-3.88217e-05 -6.30119e-05 0.000297046)
(-5.93585e-05 1.62087e-07 0.0002294)
(-7.09446e-05 -3.09783e-05 0.000193525)
(-7.87095e-05 -8.70214e-05 0.000170105)
(1.43736e-06 1.40947e-05 0.000169954)
(-2.62352e-06 4.65027e-06 0.000110426)
(-5.52159e-06 -1.91549e-06 0.000175184)
(-4.41312e-05 -2.09623e-05 0.00019967)
(3.5194e-06 -4.63095e-07 0.000232786)
(3.58465e-05 1.28768e-05 0.000212961)
(2.94803e-05 -8.32337e-06 0.000254434)
(-1.31196e-05 -4.7781e-05 0.000153084)
(2.29133e-06 -3.79677e-06 0.000283923)
(7.27252e-05 -3.10142e-05 0.000290605)
(3.03049e-05 -4.0051e-05 0.000288845)
(-2.74158e-05 -6.52343e-05 0.000198416)
(2.19718e-05 -5.77983e-06 0.000330814)
(9.02586e-05 3.93459e-05 0.000332971)
(-2.09659e-05 -1.78093e-05 0.000248094)
(-8.96731e-05 -3.59664e-05 0.000233799)
(5.81877e-05 -2.36203e-05 0.000321845)
(0.000110061 -5.83248e-05 0.000107422)
(0.000109989 -1.05636e-05 0.000345813)
(-1.77305e-05 -3.57293e-05 0.000320118)
(3.21799e-05 -9.3586e-05 0.00038321)
(0.000128771 -5.11811e-05 0.000261667)
(5.4916e-05 -1.09e-05 0.000413338)
(-2.79066e-05 -9.04502e-05 0.000266897)
(-5.07734e-05 -7.08761e-05 0.000307204)
(2.94914e-05 4.13712e-05 0.000390956)
(-6.60104e-06 -5.11105e-05 0.000439482)
(1.36426e-05 -2.0267e-05 0.000229654)
(-0.000128065 -3.2856e-05 0.00028858)
(-6.97551e-06 -2.35858e-05 0.000420654)
(-9.62396e-09 -4.4864e-05 0.000393216)
(3.70609e-05 -7.05587e-06 0.000288129)
(7.09313e-05 -3.83426e-05 0.000427769)
(0.000347287 -9.01624e-05 0.000390046)
(-4.53041e-05 -3.07614e-05 0.000199491)
(5.75595e-05 7.40547e-06 0.000267559)
(6.78511e-05 8.58873e-06 0.000502452)
(0.000225237 1.11654e-05 0.000343761)
(0.00030976 -0.000186009 0.0003913)
(0.00020386 -6.79171e-05 0.000498982)
(2.94407e-05 6.83757e-06 0.000438267)
(-6.19997e-06 0.000199658 0.00031759)
(0.000108008 1.4042e-05 0.000536083)
(0.000109407 4.21166e-05 0.000409712)
(1.91385e-05 -2.61321e-05 0.000303778)
(1.92049e-05 0.00039296 0.000316352)
(0.000197097 9.08903e-05 0.000521717)
(0.000171878 0.000142686 0.000407744)
(-0.000166708 0.000602051 -3.75962e-05)
(-0.00138263 -0.00161079 -0.00159388)
(0.000891933 0.00138739 0.000798808)
(-0.000621829 0.00381545 -0.00465169)
(-4.79409e-05 0.000918258 -0.000288938)
(-0.00322429 0.00502199 -0.00181961)
(-0.000261303 0.000478123 0.000689558)
(0.000950865 -0.00109 0.000471312)
(0.00114228 0.00149722 -0.0131642)
(-0.00163611 0.00121651 -0.00114514)
(-0.000702872 0.000200055 -7.09999e-06)
(-0.00258636 -0.000130098 -4.3945e-05)
(-0.000655588 0.000467449 0.000487837)
(-0.000216946 0.00150011 0.00101027)
(0.000112045 0.000257256 0.000703543)
(0.000268362 0.000153518 0.000463352)
(0 0 0)
(0 0 0)
(0.0108478 0.00885436 0.0066875)
(0 0 0)
(0 0 0)
(0 0 0)
(-0.00366304 0.00606521 0.00307429)
(0 0 0)
(0 0 0)
(0 0 0)
(0 0 0)
(0 0 0)
(0 0 0)
(0 0 0)
(0 0 0)
(0 0 0)
(0 0 0)
(0 0 0)
(0 0 0)
(0 0 0)
(0 0 0)
(0 0 0)
(0 0 0)
(0 0 0)
(0 0 0)
(0 0 0)
(0 0 0)
(0 0 0)
(0 0 0)
(0 0 0)
(0 0 0)
(0 0 0)
(0 0 0)
(0 0 0)
(0 0 0)
(0 0 0)
(0 0 0)
(0 0 0)
(0 0 0)
(0 0 0)
(0 0 0)
(0 0 0)
(0 0 0)
(0 0 0)
(0 0 0)
(0 0 0)
(0 0 0)
(0 0 0)
(0 0 0)
(0 0 0)
(0 0 0)
(0 0 0)
(0 0 0)
(0 0 0)
(0 0 0)
(0 0 0)
(0 0 0)
(0 0 0)
(0 0 0)
(0 0 0)
(0 0 0)
(0 0 0)
(0 0 0)
(0 0 0)
(0 0 0)
(0 0 0)
(0 0 0)
(0 0 0)
(0 0 0)
(0 0 0)
(0 0 0)
(0 0 0)
(0 0 0)
(0 0 0)
(0 0 0)
(0 0 0)
(0 0 0)
(0 0 0)
(0 0 0)
(0 0 0)
(0 0 0)
(0 0 0)
(0 0 0)
(0 0 0)
(0 0 0)
(0 0 0)
(0 0 0)
(0 0 0)
(0 0 0)
(0 0 0)
(0 0 0)
(0 0 0)
(0 0 0)
(0 0 0)
(0 0 0)
(0 0 0)
(0 0 0)
(0 0 0)
(0 0 0)
(0 0 0)
(0 0 0)
(0 0 0)
(0 0 0)
(0 0 0)
(0 0 0)
(0 0 0)
(0 0 0)
(0 0 0)
(0 0 0)
(0 0 0)
(0 0 0)
(0 0 0)
(0 0 0)
(0 0 0)
(0 0 0)
(0 0 0)
(0 0 0)
(0 0 0)
(0 0 0)
(0 0 0)
(0 0 0)
(0 0 0)
(0 0 0)
(0 0 0)
(0 0 0)
(0 0 0)
(0 0 0)
(0 0 0)
(0 0 0)
(0 0 0)
(0 0 0)
(0 0 0)
(0 0 0)
(0 0 0)
(0 0 0)
(0 0 0)
(0 0 0)
(0 0 0)
(0 0 0)
(0 0 0)
(0 0 0)
(0 0 0)
(0 0 0)
(0 0 0)
(0 0 0)
(0 0 0)
(0 0 0)
(0 0 0)
(0 0 0)
(0 0 0)
(0 0 0)
(0 0 0)
(0 0 0)
(0 0 0)
(0 0 0)
(0 0 0)
(0 0 0)
(0 0 0)
(0 0 0)
(0 0 0)
(0 0 0)
(0 0 0)
(0 0 0)
(0 0 0)
(0 0 0)
(0 0 0)
(0 0 0)
(0 0 0)
(0 0 0)
(0 0 0)
(0 0 0)
(0 0 0)
(0 0 0)
(0 0 0)
(0 0 0)
(0 0 0)
(0 0 0)
(0 0 0)
(0 0 0)
(0 0 0)
(0 0 0)
(0 0 0)
(0 0 0)
(0 0 0)
(0 0 0)
(0 0 0)
(0 0 0)
(0 0 0)
(0 0 0)
(0 0 0)
(0 0 0)
(0 0 0)
(0 0 0)
(0 0 0)
(0 0 0)
(0 0 0)
(0 0 0)
(0 0 0)
(0 0 0)
(0 0 0)
(0 0 0)
(0 0 0)
(0 0 0)
(0 0 0)
(0 0 0)
(0 0 0)
(0 0 0)
(0 0 0)
(0 0 0)
(0 0 0)
(0 0 0)
(0 0 0)
(0 0 0)
(0 0 0)
(0 0 0)
(0 0 0)
(0 0 0)
(0 0 0)
(0 0 0)
(0 0 0)
(0 0 0)
(0 0 0)
(0 0 0)
(0 0 0)
(0 0 0)
(0 0 0)
(0 0 0)
(0 0 0)
(0 0 0)
(0 0 0)
(0 0 0)
(0 0 0)
(0 0 0)
(0 0 0)
(0 0 0)
(0 0 0)
(0 0 0)
(0 0 0)
(0 0 0)
(0 0 0)
(0 0 0)
(0 0 0)
(0 0 0)
(0 0 0)
(0 0 0)
(0 0 0)
(0 0 0)
(0 0 0)
(0 0 0)
(0 0 0)
(0 0 0)
(0 0 0)
(0 0 0)
(0 0 0)
(0 0 0)
(0 0 0)
(0 0 0)
(0 0 0)
(0 0 0)
(0 0 0)
(0 0 0)
(0 0 0)
(0 0 0)
(0 0 0)
(0 0 0)
(0 0 0)
(0 0 0)
(0 0 0)
(0 0 0)
(0 0 0)
(0 0 0)
(0 0 0)
)
;

boundaryField
{
    inlet
    {
        type            zeroGradient;
    }
    outlet
    {
        type            zeroGradient;
    }
    wall
    {
        type            zeroGradient;
    }
    procBoundary0to1
    {
        type            processor;
        value           nonuniform List<vector> 
192
(
(1.85025e-05 -5.38117e-05 1.73547e-05)
(-3.16771e-05 -2.55929e-05 4.44572e-05)
(-3.01218e-05 -3.38556e-05 -7.21831e-07)
(4.18956e-06 1.43317e-05 3.45472e-06)
(-5.91105e-05 -0.000105963 5.42643e-05)
(-1.68432e-05 -7.85033e-05 7.14811e-05)
(4.74555e-05 -6.7631e-05 -2.64734e-05)
(-4.19642e-05 -8.27263e-05 2.629e-05)
(-9.22786e-05 -0.00010403 0.000138101)
(-0.000103956 -8.66551e-05 5.95566e-05)
(-0.000123483 -7.29482e-05 -2.98865e-07)
(-0.000120577 -4.2746e-05 -7.93024e-05)
(-6.70623e-05 -8.36379e-05 0.000151818)
(-0.000130953 -4.82769e-05 7.25569e-05)
(-0.000121123 -3.18822e-05 -8.85933e-05)
(-0.000138125 2.42914e-05 -0.000137238)
(-7.11982e-05 -3.26954e-05 0.000114195)
(1.98586e-05 -0.000191914 -3.51726e-05)
(-0.000142315 5.97201e-05 -0.000466127)
(-4.20533e-05 6.29606e-05 -0.000247065)
(6.60854e-05 -0.000176647 0.000262509)
(-0.00011241 -0.000923385 -0.000126755)
(-0.000686149 -0.000769998 -0.00101927)
(0.000206832 3.87231e-05 -0.000373825)
(-0.000220517 0.000332585 4.0254e-05)
(-0.000161543 0.000412877 -6.62771e-05)
(-0.00064791 0.00120812 -0.00142852)
(0.00100241 -0.00153553 0.000904888)
(0 0 0)
(0 0 0)
(0 0 0)
(0.00499201 0.00111727 -0.00216109)
(0 0 0)
(0 0 0)
(0 0 0)
(0 0 0)
(0 0 0)
(0 0 0)
(0 0 0)
(0 0 0)
(0 0 0)
(0 0 0)
(0 0 0)
(0 0 0)
(0 0 0)
(0 0 0)
(0 0 0)
(0 0 0)
(0 0 0)
(0 0 0)
(0 0 0)
(0 0 0)
(0 0 0)
(0 0 0)
(0 0 0)
(0 0 0)
(0 0 0)
(0 0 0)
(0 0 0)
(0 0 0)
(0 0 0)
(0 0 0)
(0 0 0)
(0 0 0)
(0 0 0)
(0 0 0)
(0 0 0)
(0 0 0)
(0 0 0)
(0 0 0)
(0 0 0)
(0 0 0)
(0 0 0)
(0 0 0)
(0 0 0)
(0 0 0)
(0 0 0)
(0 0 0)
(0 0 0)
(0 0 0)
(0 0 0)
(0 0 0)
(0 0 0)
(0 0 0)
(0 0 0)
(0 0 0)
(0 0 0)
(0 0 0)
(0 0 0)
(0 0 0)
(0 0 0)
(0 0 0)
(0 0 0)
(0 0 0)
(0 0 0)
(0 0 0)
(8.8644e-06 9.59682e-05 6.38026e-06)
(0.000135963 6.61656e-05 1.47784e-05)
(-1.32351e-05 1.88882e-05 4.47738e-05)
(-4.50349e-05 -2.23219e-06 3.60747e-05)
(1.37824e-05 2.57108e-05 3.1552e-05)
(3.57957e-06 1.2254e-05 7.12332e-05)
(-3.69196e-05 -4.41308e-05 7.07093e-05)
(-0.000104447 -0.000127741 0.000101437)
(-2.24177e-05 -5.04097e-05 4.39431e-05)
(7.35416e-05 -7.73527e-05 6.93555e-05)
(1.24065e-05 -9.96751e-05 9.45065e-05)
(-8.79903e-05 -0.000104102 0.000167642)
(-4.30432e-05 -2.59747e-05 0.00010275)
(-4.02889e-05 -6.15073e-05 9.56091e-05)
(-2.45396e-05 -9.68428e-05 0.000129115)
(-6.22015e-05 -0.000123781 0.000204683)
(-4.79102e-05 1.88741e-05 0.00011873)
(-2.8924e-05 -2.84766e-05 0.0002023)
(-3.89925e-05 -8.72349e-05 0.000124722)
(7.268e-05 -0.000118883 0.000164078)
(5.43957e-05 -5.24913e-06 5.86192e-05)
(-2.75928e-05 -1.18882e-05 0.000249908)
(-1.45626e-05 -4.92609e-05 0.000277166)
(-1.02335e-05 2.78307e-05 0.000135739)
(0.00452017 0.00334167 -0.00188556)
(-0.00463928 0.00105318 -1.55072e-05)
(-0.000825523 -0.000430455 0.000471443)
(-0.000518357 -0.000173325 0.000376169)
(0 0 0)
(0 0 0)
(0 0 0)
(0 0 0)
(0 0 0)
(0 0 0)
(0 0 0)
(0 0 0)
(0 0 0)
(0 0 0)
(0 0 0)
(0 0 0)
(0 0 0)
(0 0 0)
(0 0 0)
(0 0 0)
(0 0 0)
(0 0 0)
(0 0 0)
(0 0 0)
(0 0 0)
(0 0 0)
(0 0 0)
(0 0 0)
(0 0 0)
(0 0 0)
(0 0 0)
(0 0 0)
(0 0 0)
(0 0 0)
(0 0 0)
(0 0 0)
(0 0 0)
(0 0 0)
(0 0 0)
(0 0 0)
(0 0 0)
(0 0 0)
(0 0 0)
(0 0 0)
(0 0 0)
(0 0 0)
(0 0 0)
(0 0 0)
(0 0 0)
(0 0 0)
(0 0 0)
(0 0 0)
(0 0 0)
(0 0 0)
(0 0 0)
(0 0 0)
(0 0 0)
(0 0 0)
(0 0 0)
(0 0 0)
(0 0 0)
(0 0 0)
(0 0 0)
(0 0 0)
(0 0 0)
(0 0 0)
(0 0 0)
(0 0 0)
(0 0 0)
(0 0 0)
(0 0 0)
(0 0 0)
)
;
    }
    procBoundary0to2
    {
        type            processor;
        value           nonuniform List<vector> 
192
(
(-2.49565e-06 6.2689e-06 4.18864e-05)
(2.94088e-05 -4.03272e-06 2.41979e-05)
(-3.06913e-05 3.41316e-05 2.63307e-05)
(-3.43185e-05 -3.08618e-05 3.21002e-05)
(1.34343e-05 6.53096e-06 0.000153861)
(6.73179e-05 6.75517e-05 0.000142685)
(-5.22521e-05 -7.86361e-06 4.3456e-05)
(-3.6392e-05 -4.14832e-05 4.51273e-05)
(-0.000133631 5.43297e-05 0.000206416)
(-9.22451e-05 4.62384e-05 -1.99084e-05)
(-7.24912e-05 5.21974e-05 5.90557e-05)
(-5.7935e-05 -1.9023e-05 6.16417e-06)
(-9.92601e-05 0.000111826 0.000232945)
(-0.000124508 0.000166904 -1.99114e-05)
(-7.99622e-05 0.000141491 -5.00153e-05)
(-0.000133893 8.45057e-05 -6.78109e-05)
(7.59742e-06 0.000162498 0.000240239)
(2.03774e-05 0.000177113 -5.84643e-05)
(1.57734e-05 0.000188462 -0.000268979)
(-3.92519e-06 0.000174429 -0.000274209)
(2.54186e-05 2.52531e-05 0.000292881)
(0.00032232 0.000108537 -0.000146158)
(0.000351997 0.000178601 -0.000362498)
(9.78827e-05 0.00014677 -0.000263033)
(0.00272167 0.00040504 0.000800004)
(0.00286378 0.00087688 -0.000363489)
(0.000116288 -9.88111e-05 -0.000357563)
(0.00200414 0.00156186 -0.000588918)
(0 0 0)
(0 0 0)
(0 0 0)
(0 0 0)
(0 0 0)
(0 0 0)
(0 0 0)
(0 0 0)
(0 0 0)
(0 0 0)
(0 0 0)
(0 0 0)
(0 0 0)
(0 0 0)
(0 0 0)
(0 0 0)
(0 0 0)
(0 0 0)
(0 0 0)
(0 0 0)
(0 0 0)
(0 0 0)
(0 0 0)
(0 0 0)
(0 0 0)
(0 0 0)
(0 0 0)
(0 0 0)
(0 0 0)
(0 0 0)
(0 0 0)
(0 0 0)
(0 0 0)
(0 0 0)
(0 0 0)
(0 0 0)
(0 0 0)
(0 0 0)
(0 0 0)
(0 0 0)
(0 0 0)
(0 0 0)
(0 0 0)
(0 0 0)
(0 0 0)
(0 0 0)
(0 0 0)
(0 0 0)
(0 0 0)
(0 0 0)
(0 0 0)
(0 0 0)
(0 0 0)
(0 0 0)
(0 0 0)
(0 0 0)
(0 0 0)
(0 0 0)
(0 0 0)
(0 0 0)
(0 0 0)
(0 0 0)
(0 0 0)
(0 0 0)
(0 0 0)
(0 0 0)
(0 0 0)
(0 0 0)
(3.10162e-05 4.3998e-05 5.93956e-05)
(3.32114e-05 4.25287e-05 6.73272e-05)
(8.71756e-06 -4.57395e-06 6.71798e-05)
(1.13315e-05 2.61241e-05 4.38369e-05)
(6.94662e-05 0.000220919 8.72297e-05)
(3.56222e-05 7.40036e-05 0.00013914)
(2.16348e-05 -1.43637e-05 0.000158624)
(2.73721e-05 -2.37187e-05 0.000151566)
(3.73077e-05 -0.000145706 0.000109065)
(0.000392346 7.03139e-05 0.0004295)
(9.57618e-05 -9.22511e-06 0.000354316)
(-9.13459e-05 -6.56556e-05 0.00022003)
(-2.73455e-06 -2.04079e-05 0.000174044)
(0.00011968 -7.08858e-05 0.000423915)
(4.09043e-05 -9.56787e-05 0.000495108)
(-6.93647e-05 4.8518e-05 0.000337197)
(-0.000116324 0.000120016 0.000170079)
(-3.44036e-05 0.000112666 0.000240609)
(-0.000102818 -6.32019e-06 0.000541742)
(-9.09431e-05 0.000159798 0.000268232)
(0.000333947 0.000397882 -0.000560619)
(0.000589033 -0.000140803 0.000268501)
(2.85846e-05 5.89966e-05 0.000574009)
(-0.000389537 8.19154e-05 0.00031073)
(-0.0103508 -0.0040063 -0.00355934)
(-0.0015684 -0.000997243 -0.00165347)
(0.00288842 -0.000562482 -0.00241248)
(0.000545471 0.000174188 0.000583471)
(0 0 0)
(0 0 0)
(0 0 0)
(0 0 0)
(0 0 0)
(0 0 0)
(0 0 0)
(0 0 0)
(0 0 0)
(0 0 0)
(0 0 0)
(0 0 0)
(0 0 0)
(0 0 0)
(0 0 0)
(0 0 0)
(0 0 0)
(0 0 0)
(0 0 0)
(0 0 0)
(0 0 0)
(0 0 0)
(0 0 0)
(0 0 0)
(0 0 0)
(0 0 0)
(0 0 0)
(0 0 0)
(0 0 0)
(0 0 0)
(0 0 0)
(0 0 0)
(0 0 0)
(0 0 0)
(0 0 0)
(0 0 0)
(0 0 0)
(0 0 0)
(0 0 0)
(0 0 0)
(0 0 0)
(0 0 0)
(0 0 0)
(0 0 0)
(0 0 0)
(0 0 0)
(0 0 0)
(0 0 0)
(0 0 0)
(0 0 0)
(0 0 0)
(0 0 0)
(0 0 0)
(0 0 0)
(0 0 0)
(0 0 0)
(0 0 0)
(0 0 0)
(0 0 0)
(0 0 0)
(0 0 0)
(0 0 0)
(0 0 0)
(0 0 0)
(0 0 0)
(0 0 0)
(0 0 0)
(0 0 0)
)
;
    }
}


// ************************************************************************* //
