/*--------------------------------*- C++ -*----------------------------------*\
| =========                 |                                                 |
| \\      /  F ield         | OpenFOAM: The Open Source CFD Toolbox           |
|  \\    /   O peration     | Version:  2506                                  |
|   \\  /    A nd           | Website:  www.openfoam.com                      |
|    \\/     M anipulation  |                                                 |
\*---------------------------------------------------------------------------*/
FoamFile
{
    version     2.0;
    format      ascii;
    arch        "LSB;label=32;scalar=64";
    class       volScalarField;
    location    "0.01";
    object      voidfraction;
}
// * * * * * * * * * * * * * * * * * * * * * * * * * * * * * * * * * * * * * //

dimensions      [0 0 0 0 0 0 0];

internalField   nonuniform List<scalar> 
1152
(
0.39433
0.44963
0.45753
0.373263
0.431196
0.460163
0.381163
0.391696
0.47333
0.436463
0.46543
0.436463
0.41013
0.541797
0.47333
0.42593
0.412763
0.44963
0.47333
0.304796
0.428563
0.446997
0.354829
0.381163
0.407496
0.446997
0.470697
0.344296
0.42593
0.38643
0.41013
0.357463
0.357463
0.399596
0.344296
0.312696
0.354829
0.352196
0.431196
0.41803
0.391696
0.407496
0.370629
0.452263
0.367996
0.460163
0.354829
0.370629
0.399596
0.44173
0.357463
0.444363
0.48123
0.396963
0.436463
0.41803
0.349563
0.389063
0.383796
0.325862
0.367996
0.46543
0.431196
0.51283
0.362729
0.362729
0.346929
0.407496
0.391696
0.41803
0.412763
0.378529
0.404863
0.436463
0.357463
0.48123
0.47333
0.352196
0.344296
0.357463
0.354829
0.46543
0.444363
0.446997
0.41013
0.423296
0.41013
0.454897
0.444363
0.454897
0.367996
0.468063
0.444363
0.415396
0.412763
0.428563
0.749832
0.720865
0.691898
0.618164
0.789332
0.694531
0.610264
0.539164
0.736665
0.676098
0.620798
0.705065
0.749832
0.615531
0.547064
0.602364
1
1
1
1
1
1
1
1
1
1
1
1
1
1
1
1
1
1
1
1
1
1
1
1
1
1
1
1
1
1
1
1
1
1
1
1
1
1
1
1
1
1
1
1
1
1
1
1
1
1
1
1
1
1
1
1
1
1
1
1
1
1
1
1
1
1
1
1
1
1
1
1
1
1
1
1
1
1
1
1
1
1
1
1
1
1
1
1
1
1
1
1
1
1
1
1
1
1
1
1
1
1
1
1
1
1
1
1
1
1
1
1
1
1
1
1
1
1
1
1
1
1
1
1
1
1
1
1
1
1
1
1
1
1
1
1
1
1
1
1
1
1
1
1
1
1
1
1
1
1
1
1
1
1
1
1
1
1
1
1
1
1
1
1
1
1
1
1
1
1
1
1
1
1
1
1
1
1
1
1
1
1
1
1
1
1
1
1
1
1
1
1
1
1
1
1
1
1
1
1
1
1
1
1
1
1
1
1
1
1
1
1
1
1
1
1
1
1
1
1
1
1
1
1
1
1
1
1
1
1
1
1
1
1
1
1
1
1
1
1
1
1
1
1
1
1
1
1
1
1
1
1
1
1
1
1
1
1
1
1
1
1
1
1
1
1
1
1
1
1
1
1
0.468532
0.430693
0.463241
0.430467
0.384702
0.44212
0.448792
0.464002
0.443532
0.471422
0.413576
0.385534
0.416568
0.410519
0.471586
0.466251
0.473928
0.433788
0.394332
0.369133
0.378179
0.439684
0.396164
0.40302
0.422569
0.384736
0.375589
0.390948
0.378985
0.422388
0.420735
0.408616
0.473928
0.427599
0.379825
0.417324
0.460799
0.439684
0.401704
0.47684
0.403512
0.414336
0.427821
0.366586
0.393302
0.376891
0.33893
0.446204
0.406483
0.390471
0.405212
0.294655
0.345566
0.461609
0.404474
0.431906
0.432097
0.433365
0.43257
0.401776
0.455941
0.359088
0.367672
0.411122
0.476626
0.353342
0.423346
0.347228
0.395573
0.420195
0.382315
0.40623
0.449249
0.384736
0.413576
0.40719
0.411199
0.398651
0.420735
0.391075
0.409181
0.353342
0.426973
0.465515
0.391225
0.408014
0.421093
0.438325
0.416852
0.431251
0.373215
0.431552
0.420147
0.414476
0.436211
0.456228
0.681659
0.706065
0.786022
0.802854
0.636909
0.766129
0.808878
0.842731
0.767503
0.879484
0.831433
0.761793
0.685018
0.752735
0.816492
0.764449
1
1
1
1
1
1
1
1
1
1
1
1
1
1
1
1
1
1
1
1
1
1
1
1
1
1
1
1
1
1
1
1
1
1
1
1
1
1
1
1
1
1
1
1
1
1
1
1
1
1
1
1
1
1
1
1
1
1
1
1
1
1
1
1
1
1
1
1
1
1
1
1
1
1
1
1
1
1
1
1
1
1
1
1
1
1
1
1
1
1
1
1
1
1
1
1
1
1
1
1
1
1
1
1
1
1
1
1
1
1
1
1
1
1
1
1
1
1
1
1
1
1
1
1
1
1
1
1
1
1
1
1
1
1
1
1
1
1
1
1
1
1
1
1
1
1
1
1
1
1
1
1
1
1
1
1
1
1
1
1
1
1
1
1
1
1
1
1
1
1
1
1
1
1
1
1
1
1
1
1
1
1
1
1
1
1
1
1
1
1
1
1
1
1
1
1
1
1
1
1
1
1
1
1
1
1
1
1
1
1
1
1
1
1
1
1
1
1
1
1
1
1
1
1
1
1
1
1
1
1
1
1
1
1
1
1
1
1
1
1
1
1
1
1
1
1
1
1
1
1
1
1
1
1
1
1
1
1
1
1
1
1
1
1
1
1
1
1
1
1
1
1
0.495511
0.426012
0.468306
0.391513
0.412129
0.451865
0.424908
0.412498
0.412466
0.415554
0.439692
0.476008
0.434848
0.40623
0.41531
0.373534
0.457741
0.432534
0.390172
0.423727
0.356436
0.395833
0.431251
0.450082
0.390705
0.415554
0.453937
0.403047
0.404181
0.393391
0.401776
0.463745
0.414576
0.382528
0.407323
0.434465
0.393565
0.483535
0.422793
0.410519
0.506762
0.346306
0.411202
0.374305
0.386657
0.454373
0.401776
0.463745
0.465835
0.410792
0.403512
0.491734
0.368812
0.44212
0.418565
0.422388
0.387079
0.393394
0.382712
0.416313
0.430467
0.354876
0.401776
0.373534
0.460439
0.393399
0.411135
0.450572
0.371906
0.464045
0.407993
0.392716
0.397959
0.434943
0.385086
0.387571
0.364752
0.412649
0.412603
0.408616
0.436159
0.456451
0.432097
0.493524
0.439976
0.451865
0.414336
0.406563
0.412466
0.423863
0.385086
0.425157
0.338465
0.422277
0.401776
0.458734
0.560258
0.593425
0.575026
0.672491
0.718441
0.50546
0.585595
0.638004
0.659085
0.667613
0.734091
0.785539
0.719615
0.749654
0.742845
0.696791
1
1
0.998094
1
1
1
0.997886
1
1
1
1
1
1
1
1
1
1
1
1
1
1
1
1
1
1
1
1
1
1
1
1
1
1
1
1
1
1
1
1
1
1
1
1
1
1
1
1
1
1
1
1
1
1
1
1
1
1
1
1
1
1
1
1
1
1
1
1
1
1
1
1
1
1
1
1
1
1
1
1
1
1
1
1
1
1
1
1
1
1
1
1
1
1
1
1
1
1
1
1
1
1
1
1
1
1
1
1
1
1
1
1
1
1
1
1
1
1
1
1
1
1
1
1
1
1
1
1
1
1
1
1
1
1
1
1
1
1
1
1
1
1
1
1
1
1
1
1
1
1
1
1
1
1
1
1
1
1
1
1
1
1
1
1
1
1
1
1
1
1
1
1
1
1
1
1
1
1
1
1
1
1
1
1
1
1
1
1
1
1
1
1
1
1
1
1
1
1
1
1
1
1
1
1
1
1
1
1
1
1
1
1
1
1
1
1
1
1
1
1
1
1
1
1
1
1
1
1
1
1
1
1
1
1
1
1
1
1
1
1
1
1
1
1
1
1
1
1
1
1
1
1
1
1
1
1
1
1
1
1
1
1
1
1
1
1
1
1
1
1
1
1
1
)
;

boundaryField
{
    inlet
    {
        type            fixedValue;
        value           uniform 1;
    }
    outlet
    {
        type            fixedValue;
        value           uniform 1;
    }
    wall
    {
        type            zeroGradient;
    }
    procBoundary0to1
    {
        type            processor;
        value           nonuniform List<scalar> 
192
(
0.525997
0.444363
0.44963
0.404863
0.404863
0.396963
0.412763
0.399596
0.48123
0.365363
0.389063
0.412763
0.341663
0.373263
0.404863
0.346929
0.43383
0.423296
0.412763
0.462797
0.362729
0.475963
0.404863
0.346929
0.715598
0.662931
0.641864
0.510197
1
1
1
0.997367
1
1
1
1
1
1
1
1
1
1
1
1
1
1
1
1
1
1
1
1
1
1
1
1
1
1
1
1
1
1
1
1
1
1
1
1
1
1
1
1
1
1
1
1
1
1
1
1
1
1
1
1
1
1
1
1
1
1
1
1
1
1
1
1
0.534686
0.444148
0.48043
0.486298
0.416568
0.412498
0.416313
0.446204
0.359299
0.382826
0.391992
0.325923
0.344981
0.34722
0.447266
0.363511
0.395092
0.410519
0.427367
0.383558
0.332454
0.473819
0.394203
0.383558
0.715443
0.728997
0.750164
0.847142
1
1
1
1
1
1
1
1
1
1
1
1
1
1
1
1
1
1
1
1
1
1
1
1
1
1
1
1
1
1
1
1
1
1
1
1
1
1
1
1
1
1
1
1
1
1
1
1
1
1
1
1
1
1
1
1
1
1
1
1
1
1
1
1
1
1
1
1
)
;
    }
    procBoundary0to2
    {
        type            processor;
        value           nonuniform List<scalar> 
192
(
0.420663
0.381163
0.407496
0.360096
0.43383
0.365363
0.407496
0.310062
0.396963
0.404863
0.399596
0.491764
0.41803
0.362729
0.383796
0.404863
0.352196
0.404863
0.439097
0.436463
0.45753
0.39433
0.381163
0.349563
0.647131
0.618164
0.599731
0.604998
1
1
1
1
1
1
1
1
1
1
1
1
1
1
1
1
1
1
1
1
1
1
1
1
1
1
1
1
1
1
1
1
1
1
1
1
1
1
1
1
1
1
1
1
1
1
1
1
1
1
1
1
1
1
1
1
1
1
1
1
1
1
1
1
1
1
1
1
0.441623
0.461951
0.372094
0.453722
0.366457
0.406563
0.327875
0.361005
0.446992
0.525251
0.425157
0.46124
0.411199
0.461951
0.40968
0.426158
0.443413
0.386782
0.367672
0.433675
0.439834
0.507447
0.387571
0.438687
0.754815
0.865488
0.796594
0.794519
1
1
1
1
1
1
1
1
1
1
1
1
1
1
1
1
1
1
1
1
1
1
1
1
1
1
1
1
1
1
1
1
1
1
1
1
1
1
1
1
1
1
1
1
1
1
1
1
1
1
1
1
1
1
1
1
1
1
1
1
1
1
1
1
1
1
1
1
)
;
    }
}


// ************************************************************************* //
