FoamFile
{version 2.0; format ascii;class vectorField; location 0;object  v;}
1000
(
( 0.541959 -0.00126472 -0.0688318 )  
( 0.0181124 -0.00054153 -0.0243991 )  
( 0.0475296 -0.000594712 -0.0919824 )  
( 0.515926 -0.00236434 -0.0358312 )  
( 0.0113261 -9.3237e-05 -0.0085215 )  
( 0.0286117 8.65567e-05 -0.00445003 )  
( 0.544332 0.00164793 -0.0201187 )  
( 0.0411309 0.00016513 -0.0814609 )  
( 0.00966816 2.07843e-05 4.53866e-08 )  
( 0.453817 -0.00047327 0.236355 )  
( 0.41304 -4.44919e-05 0.289804 )  
( 0.541188 -0.000891627 0.144336 )  
( 0.0094736 -0.000298394 -8.09901e-09 )  
( 0.0104605 -7.51055e-05 2.04678e-09 )  
( 0.134844 -0.000194221 0.282187 )  
( 0.00956855 1.84503e-06 3.70454e-08 )  
( 0.0260776 -8.30325e-05 -0.0623981 )  
( 0.0103815 -0.00011572 2.03713e-09 )  
( 0.0334376 2.90303e-05 0.0562614 )  
( 0.539579 0.00263324 -0.0402006 )  
( 0.515722 -0.00303368 0.0472493 )  
( 0.181962 -4.38333e-05 0.241866 )  
( 0.175054 0.000622287 0.0486955 )  
( 0.149039 -0.000293501 0.338629 )  
( 0.00974344 -1.14015e-05 3.86384e-08 )  
( 0.197693 -0.000376137 0.32024 )  
( -0.0311516 -0.0356454 -6.36153e-09 )  
( 0.0300314 0.000374122 0.00433934 )  
( 0.185464 -0.00700042 -0.0376646 )  
( 0.0309712 0.000289901 0.00901323 )  
( 0.194825 0.000164665 0.0387288 )  
( 0.518012 -0.00105514 -0.0366117 )  
( -0.175496 0.014809 -0.0304573 )  
( 0.030467 -2.71659e-05 0.0279086 )  
( 0.520817 -0.000193586 0.016822 )  
( 0.0483581 -0.000137287 0.226122 )  
( 0.046221 -7.58159e-07 0.0382377 )  
( 0.530006 -0.005694 0.0627623 )  
( 0.520291 0.000196309 0.012373 )  
( 0.410349 0.000504351 0.261508 )  
( 0.0111058 3.46912e-05 0.0057872 )  
( 0.0224009 -2.8938e-05 -0.0374828 )  
( 0.0140844 -0.000243121 0.0187706 )  
( 0.436867 -3.57485e-05 0.105979 )  
( 0.370069 -0.000280832 0.0807608 )  
( 0.0157702 -0.00014856 -0.00181783 )  
( 0.0108911 2.95401e-05 -0.00473333 )  
( 0.533986 0.000885992 -0.0648116 )  
( 0.512622 -0.00249303 -0.113039 )  
( 0.319942 0.00102251 0.283214 )  
( 0.537027 -0.000957482 0.0383312 )  
( 0.0101531 -8.81921e-05 -1.97229e-08 )  
( 0.32044 -0.0006322 0.178006 )  
( 0.00998332 0.000165634 -1.48748e-08 )  
( 0.025649 0.000151064 -0.0575514 )  
( 0.127845 0.000600262 0.350258 )  
( 0.0109876 0.000133615 0.00295186 )  
( 0.530861 -0.00147169 -0.114439 )  
( 0.509662 -0.00124712 0.208538 )  
( 0.473868 0.00322068 0.208776 )  
( 0.537524 -0.000732358 0.119971 )  
( 0.0333349 2.66719e-05 0.0411445 )  
( 0.54515 -0.000522634 -0.0717315 )  
( 0.432464 -0.00106498 0.272492 )  
( 0.518677 0.00081258 0.19609 )  
( -0.000484366 -0.027818 2.74387e-08 )  
( 0.00996883 0.000118555 -1.92924e-08 )  
( 0.0297751 -0.000237593 0.0564131 )  
( 0.17516 -0.000410819 0.334137 )  
( 0.524491 -0.00365844 0.0340972 )  
( 0.543451 0.00011857 -0.0317573 )  
( 0.0233064 7.94306e-05 -0.0487788 )  
( 0.210311 0.000863242 0.319195 )  
( 0.010023 -3.75336e-05 -2.60118e-07 )  
( 0.526007 0.000746366 -0.0288824 )  
( 0.0168141 -2.00147e-05 -0.0148501 )  
( 0.0402201 6.57462e-05 0.298151 )  
( 0.440026 0.00160461 0.279964 )  
( 0.4923 -0.000617759 0.214567 )  
( 0.0293961 0.000133278 -0.0695245 )  
( 0.0151273 -3.20348e-05 0.0044332 )  
( 0.527419 -0.00501008 -0.0872859 )  
( 0.522277 0.00116472 -0.0529558 )  
( 0.0227907 -0.000122241 0.125964 )  
( 0.011048 0.000184882 0.00235837 )  
( 0.015216 -0.000164859 0.00710297 )  
( 0.0145859 0.000143142 0.0215456 )  
( 0.00959322 -0.000142887 -6.68953e-09 )  
( 0.530454 -0.00666737 -0.0441279 )  
( 0.527487 -0.00346892 0.0684187 )  
( 0.0243893 4.44069e-05 -0.0599015 )  
( 0.00977226 0.000232218 2.23342e-08 )  
( -0.0207855 0.00229663 -7.50788e-08 )  
( 0.521273 -0.00485212 0.104726 )  
( 0.00592935 0.000116837 4.57256e-09 )  
( 0.308964 0.000775531 0.189341 )  
( 0.527423 0.000532203 0.0614138 )  
( 0.00863501 -0.105263 -3.62058e-08 )  
( 0.0269197 0.0003443 -0.00547954 )  
( 0.529205 -0.0010557 -0.102757 )  
( 0.522675 -0.00240183 0.0133663 )  
( 0.00955942 0.000149497 -1.19746e-08 )  
( 0.0217421 0.000285155 -0.041556 )  
( 0.00972298 0.000186805 2.21754e-08 )  
( 0.361997 0.00180012 0.283446 )  
( 0.0947084 0.282209 0.107516 )  
( 0.0096213 -4.35637e-05 3.7713e-08 )  
( 0.0887463 -0.0177123 -5.43147e-09 )  
( 0.524234 0.00129354 0.04658 )  
( 0.1303 -0.157762 0.0800562 )  
( 0.0141678 8.59631e-05 0.0216451 )  
( 0.544765 0.000336932 -0.0485852 )  
( 0.520759 -0.000265952 0.0790822 )  
( 0.542273 0.0021236 0.0159386 )  
( 0.163035 -3.33862e-05 -0.0910951 )  
( 0.521091 -0.00203075 -0.106348 )  
( 0.0163651 -0.147298 1.16701e-09 )  
( 0.427937 0.00100701 0.2024 )  
( 0.523793 -0.00237041 -0.109947 )  
( 0.509759 -0.0050238 0.0892888 )  
( 0.050313 -0.000572199 -0.0952496 )  
( 0.545552 0.00171223 -0.0392655 )  
( 0.516342 0.00141658 0.221201 )  
( 0.0183238 0.000198639 -0.0270878 )  
( 0.092422 -0.103774 0.0643406 )  
( 0.302131 -0.00136258 0.171479 )  
( 0.460784 0.000823128 0.0697639 )  
( 0.359304 -0.000347645 0.10092 )  
( 0.180313 -0.000541938 0.213536 )  
( 0.0266326 -0.000136554 -0.0668655 )  
( 0.533213 -0.000783676 0.16433 )  
( 0.524466 -0.00132469 -0.0250452 )  
( 0.480912 0.000251703 0.215525 )  
( 0.0845589 -0.000589092 -0.0225743 )  
( 0.529397 0.00111564 0.0532376 )  
( 0.541089 -0.00152234 -0.0868536 )  
( 0.0102208 0.000231638 -2.67051e-08 )  
( 0.00957229 -0.000177846 -4.06486e-08 )  
( 0.509053 -0.00275086 -0.140999 )  
( 0.51738 -0.00119484 0.101099 )  
( 0.39465 -0.00211205 0.129015 )  
( 0.542098 -0.000277438 0.00168827 )  
( 0.0372816 -5.16505e-05 -0.0829659 )  
( 0.0102536 6.62319e-05 2.28444e-08 )  
( 0.489203 0.000433968 0.0634022 )  
( 0.539918 -9.32845e-05 0.0377036 )  
( 0.520633 -0.00152241 -0.137309 )  
( 0.521973 -0.00362308 0.125343 )  
( 0.406109 0.280683 0.0443902 )  
( 0.00984109 9.40648e-05 1.14583e-08 )  
( 0.00980474 -1.66093e-05 1.74648e-08 )  
( 0.398928 0.00283651 0.167462 )  
( 0.432585 -0.000756815 0.038016 )  
( 0.0312445 9.96306e-05 0.0579931 )  
( 0.493932 0.000316091 -0.0018505 )  
( 0.0283719 -0.000205824 0.364344 )  
( 0.526501 -0.000906869 0.185501 )  
( 0.00995127 5.1416e-05 -8.43449e-10 )  
( 0.519761 -0.00366646 0.154423 )  
( 0.51097 0.000317438 0.197359 )  
( 0.526049 0.00164384 0.143093 )  
( 0.0855651 7.4701e-05 0.315437 )  
( 0.519286 -0.00257275 0.0597891 )  
( 0.0100904 4.47491e-05 2.72392e-08 )  
( 0.483194 -0.0017966 0.190557 )  
( 0.0334195 8.73993e-05 -0.0740776 )  
( 0.0148568 -0.000219407 0.00510669 )  
( 0.0283079 0.000202437 0.0848917 )  
( 0.54043 0.00167566 0.00598591 )  
( 0.209053 0.000528553 0.320235 )  
( 0.38878 -0.0112001 2.2756e-08 )  
( 0.010113 5.60389e-05 -9.65105e-09 )  
( 0.0103206 -0.000146389 2.0053e-09 )  
( 0.0114 3.11938e-05 -0.002816 )  
( 0.259787 -0.000628198 0.324218 )  
( 0.0215826 -0.000190094 -0.0414636 )  
( 0.502779 -0.000803091 0.222135 )  
( 0.512776 -0.00282266 0.136578 )  
( 0.518098 0.00176884 0.156828 )  
( 0.155302 0.104149 2.76499e-09 )  
( 0.511395 -0.00355242 0.102797 )  
( 0.010281 -2.63853e-05 3.81753e-08 )  
( 0.00962279 -9.52347e-05 6.25017e-09 )  
( 0.533817 -0.000927253 0.104593 )  
( 0.540472 -0.000610936 -0.0501951 )  
( 0.399513 -0.00161012 0.139502 )  
( 0.0321515 -0.000305756 0.0273844 )  
( 0.54152 -0.00209989 0.0233759 )  
( 0.516803 -0.00148611 -0.086052 )  
( 0.0304405 0.000327513 0.0791196 )  
( 0.520457 -0.00269467 -0.0223269 )  
( 0.529275 0.000542131 0.239213 )  
( 0.524892 0.001177 -0.0108482 )  
( 0.544929 -0.00113989 0.0885605 )  
( 0.0209057 -1.84564e-05 -0.0387846 )  
( 0.00981854 -0.000202319 -4.44433e-09 )  
( 0.496718 -0.000246314 0.0201925 )  
( 0.133364 -0.000392877 0.348599 )  
( 0.423134 -0.000279679 0.149613 )  
( -0.0107233 -0.0154868 2.75374e-08 )  
( 0.00939583 -0.000133809 -7.50911e-08 )  
( 0.00966953 -0.000365332 2.44466e-10 )  
( 0.528742 -0.0039657 -0.101816 )  
( -0.0273103 -0.0377251 -0.0186834 )  
( 0.285596 -0.000406948 0.265186 )  
( 0.0321867 7.50057e-05 0.0687001 )  
( 0.517043 -0.000842406 0.132417 )  
( 0.0702409 -0.000361074 0.368647 )  
( 0.507744 -0.00324736 0.161027 )  
( 0.0102899 3.37958e-05 -6.87151e-09 )  
( 0.452451 -0.00195811 0.0246046 )  
( 0.293427 -0.00191544 0.286842 )  
( 0.513924 4.43651e-05 0.105025 )  
( 0.0318967 5.28786e-05 0.00796423 )  
( 0.292611 -0.00135014 0.268104 )  
( 0.0272803 -6.35319e-05 -0.0129555 )  
( -0.070191 -0.0989849 -0.00607941 )  
( 0.22031 0.381143 0.201754 )  
( 0.53522 -0.000673928 0.0780455 )  
( 0.0279298 -9.14829e-05 -0.0633355 )  
( 0.0101316 2.58442e-05 2.6283e-08 )  
( 0.0309773 -0.000133308 -0.0684874 )  
( 0.520576 0.0017109 0.105023 )  
( 0.458949 -0.00345194 0.258699 )  
( -0.0386319 -0.151274 0.0540327 )  
( 0.010233 0.000108542 -2.07558e-09 )  
( 0.525999 -0.0004906 -0.0499519 )  
( 0.247993 -0.000234944 -0.0271713 )  
( -0.256848 0.0186587 0.0497759 )  
( 0.542005 0.00173789 0.0804941 )  
( 0.267517 -0.0607554 0.285314 )  
( 0.0170944 0.00560638 -1.50174e-08 )  
( 0.0243679 0.000173829 -0.0201479 )  
( 0.511225 -0.000460118 0.200498 )  
( 0.00997831 4.2485e-05 4.16407e-09 )  
( 0.479248 -0.00185559 0.233761 )  
( 0.431318 -0.000276284 0.144163 )  
( 0.544366 -0.000186821 0.0904866 )  
( 0.122446 -3.84867e-05 0.339222 )  
( 0.249161 -0.000181842 0.315543 )  
( 0.0296598 -0.0001837 0.0619197 )  
( 0.0104707 -1.00011e-05 -5.48948e-06 )  
( 0.16213 0.000709296 0.355081 )  
( 0.542913 0.000855693 0.0826676 )  
( -0.161776 0.00502914 -1.71504e-08 )  
( 0.214856 -0.000883206 -0.0635518 )  
( 0.518399 -0.00164859 0.0729774 )  
( 0.651324 -0.0171084 0.155642 )  
( 0.491199 -1.38153e-05 0.255612 )  
( 0.212235 -0.000506673 0.316721 )  
( 0.414842 -0.00230604 0.230709 )  
( 0.0099313 6.55206e-05 5.0504e-10 )  
( 0.0100717 -6.22919e-05 -8.18921e-09 )  
( 0.531131 0.00136411 -0.063842 )  
( 0.527603 0.000421005 -0.0767402 )  
( 0.0390703 0.000136709 -0.0984868 )  
( 0.470057 0.000983107 0.136363 )  
( 0.497164 -0.000971797 0.185513 )  
( 0.0316447 -0.000207004 0.0613185 )  
( 0.535111 0.000960647 -0.016246 )  
( 0.364099 0.173789 0.0778571 )  
( 0.414005 0.000349323 0.229854 )  
( 0.0208041 7.21536e-05 0.36016 )  
( 0.0237253 2.58852e-05 -0.0561606 )  
( 0.0101594 -4.53507e-05 2.27764e-08 )  
( 0.00993602 3.28095e-05 -4.30207e-08 )  
( 0.0651872 0.000107906 -0.106866 )  
( 0.0288537 -0.000148311 0.00530976 )  
( 0.524739 -0.00277761 -0.00351829 )  
( 0.142176 -0.000135188 0.352793 )  
( 0.531293 0.00105161 0.0865258 )  
( 0.53079 -0.000631993 0.0910716 )  
( 0.20222 0.000101703 0.323153 )  
( 0.184504 0.000753963 0.260463 )  
( -0.129894 -0.0762083 1.84552e-08 )  
( 0.531071 0.0021543 -0.0391006 )  
( 0.0338221 -0.000156137 0.0331747 )  
( 0.530725 0.00175504 -0.106959 )  
( 0.0255484 -5.10168e-05 -0.06152 )  
( 0.530586 -0.000165257 0.0951917 )  
( 0.417484 -0.00159618 0.169658 )  
( 0.0240894 9.18122e-05 -0.0275883 )  
( 0.51771 -0.000916712 0.150694 )  
( 0.530897 0.000816036 0.0476151 )  
( 0.534037 -0.000369071 -0.12541 )  
( 0.531303 0.00179666 0.101978 )  
( 0.0101297 0.000180677 2.80772e-08 )  
( 0.52677 -0.00148233 -0.0376241 )  
( 0.529247 0.00188216 0.0796979 )  
( 0.531888 0.000509429 -0.0802315 )  
( 0.0104342 -0.000145945 -5.04865e-08 )  
( 0.0470481 7.82132e-05 -0.0909683 )  
( 0.523709 -0.000309662 0.175977 )  
( 0.394086 0.168991 0.170136 )  
( 0.460055 0.0020437 0.226124 )  
( 0.0335524 -0.000553591 0.0337263 )  
( 0.526267 -0.000730689 -0.0657118 )  
( 0.526828 -0.00160376 -0.0325684 )  
( 0.0103626 0.000113905 1.82665e-08 )  
( 0.533651 -0.000370113 -0.110567 )  
( 0.530258 0.00243143 0.0101528 )  
( 0.528096 0.00018801 0.143119 )  
( 0.192061 0.000693561 0.330817 )  
( -0.146508 0.0242399 2.98186e-08 )  
( 0.52245 0.00241651 0.163001 )  
( 0.507618 0.00162498 -0.0518473 )  
( 0.0308259 -3.80534e-05 0.00821781 )  
( 0.0328111 0.00032826 0.0319434 )  
( 0.531638 0.00234117 0.12163 )  
( -0.110989 -0.0810834 -0.00991335 )  
( 0.27604 0.00114068 -0.00273107 )  
( 0.532936 0.00286896 -0.148677 )  
( 0.0304134 0.000402406 0.0231131 )  
( 0.249941 0.000662665 0.309815 )  
( 0.136851 0.00046681 0.351479 )  
( 0.460392 0.000270983 0.235741 )  
( 0.183339 0.000748029 0.162153 )  
( 0.023561 -0.000158229 -0.0256608 )  
( 0.527145 0.00121079 -0.104316 )  
( 0.02833 0.000232861 0.0901663 )  
( 0.52867 0.00298302 0.0798481 )  
( 0.531611 -0.00374247 -0.112918 )  
( 0.173374 0.000642281 0.0421808 )  
( 0.531329 0.00378196 0.00358608 )  
( 0.411802 -0.0041474 0.288352 )  
( 0.418935 -0.00271289 0.187327 )  
( 0.0229055 -0.000141426 -0.048381 )  
( 0.0314499 9.58838e-05 0.0474201 )  
( 0.0169861 8.04458e-05 -0.0207874 )  
( 0.132321 -4.92581e-05 0.345148 )  
( 0.010219 -9.60635e-05 -1.18637e-08 )  
( 0.0102371 6.4979e-05 -2.77956e-08 )  
( 0.533861 0.00181574 -0.0942759 )  
( 0.294962 0.00137051 0.315731 )  
( 0.491647 -0.000268049 0.220838 )  
( 0.0327557 -6.69079e-05 0.042861 )  
( 0.53285 0.000966055 -0.0667152 )  
( 0.484394 0.00193178 0.217945 )  
( 0.0311821 -0.000112312 0.0542663 )  
( 0.0306017 0.000148945 0.020058 )  
( 0.0423364 -0.0222738 -0.0118463 )  
( 0.350391 -0.00034405 0.257013 )  
( 0.0100238 1.74936e-05 -1.37499e-08 )  
( 0.0104659 -1.65581e-05 0.00224607 )  
( 0.528337 -0.00336222 -0.0111421 )  
( 0.530712 0.000647086 -0.0955833 )  
( 0.0104532 -3.40135e-05 8.61902e-05 )  
( 0.0241293 -6.35421e-05 -0.0573894 )  
( 0.532696 -0.00262656 -0.101021 )  
( 0.530017 -0.000649903 0.104392 )  
( 0.524789 -0.000393975 0.18766 )  
( 0.505329 0.000309656 -0.0823279 )  
( 0.528229 -0.0016902 0.130424 )  
( 0.528863 0.000520089 -0.0820697 )  
( 0.528524 0.00328047 -0.106464 )  
( 0.0253287 6.26049e-05 0.0975935 )  
( 0.0177649 9.84157e-05 -0.0236254 )  
( 0.0143948 -1.00158e-05 0.0238428 )  
( 0.022258 -0.000135605 -0.034768 )  
( 0.0325539 -0.00019751 0.025451 )  
( 0.53183 0.000458927 0.0360975 )  
( 0.0286444 -0.000112653 -0.00332393 )  
( 0.0145332 -0.000155937 0.0227137 )  
( 0.0907152 0.000479524 0.350371 )  
( 0.533188 -0.0024711 0.0564047 )  
( 0.55669 -0.0694033 0.227687 )  
( 0.401994 0.000957664 0.223754 )  
( 0.0218621 9.31807e-05 -0.0377922 )  
( 0.528218 0.0002088 0.0870105 )  
( 0.0100484 -0.000197775 -1.50691e-08 )  
( 0.00971351 -3.09677e-05 -7.56453e-09 )  
( 0.0100779 0.000121072 -3.14093e-08 )  
( 0.530494 -0.00114244 -0.0808754 )  
( 0.520675 0.00147908 0.138604 )  
( 0.0221358 -2.58426e-05 -0.0385921 )  
( 0.0295442 0.000129199 0.0818928 )  
( 0.00996064 -2.04283e-05 -2.10467e-08 )  
( 0.525141 -0.00264238 0.131398 )  
( 0.521073 0.167658 0.0708723 )  
( 0.525419 -0.00121463 0.0671365 )  
( 0.533644 0.000258754 -0.0415635 )  
( 0.149407 0.000594854 -0.0246803 )  
( 0.284546 0.000575311 0.257005 )  
( 0.0316955 0.000123826 -0.0784666 )  
( 0.133233 -0.000628109 0.366209 )  
( 0.0102162 3.31019e-05 1.19835e-08 )  
( -0.189012 0.00967764 0.0231458 )  
( 0.42572 -0.000131921 0.199528 )  
( 0.197299 0.020939 3.46426e-09 )  
( 0.010492 -2.59016e-05 0.000446317 )  
( 0.0167499 -1.42633e-05 -0.0137335 )  
( 0.531273 -0.00345553 -0.0370425 )  
( 0.44156 0.00100429 -0.107141 )  
( 0.039077 -0.000164892 -0.0836895 )  
( 0.23558 0.000934587 0.16962 )  
( 0.266134 0.000877166 0.28532 )  
( 0.455534 0.000521194 0.142456 )  
( 0.0102409 -1.042e-05 -1.764e-08 )  
( 0.0679846 0.000311866 0.0564023 )  
( 0.617641 0.216638 0.13178 )  
( 0.30678 -0.00150137 0.3057 )  
( 0.0100511 -9.0874e-05 -1.21063e-08 )  
( 0.332186 0.000853638 0.285434 )  
( 0.467264 0.00285727 0.0382958 )  
( 0.0144472 -0.000209919 0.0257727 )  
( 0.46489 -0.000225898 0.195529 )  
( 0.389313 0.000365557 0.259301 )  
( 0.533197 0.000848531 0.0494308 )  
( 0.0162236 0.000197584 -0.0088869 )  
( 0.00988209 0.000102579 2.92475e-09 )  
( 0.519323 -0.000409987 -0.0858831 )  
( 0.0141615 0.000140626 0.0254301 )  
( 0.0150408 -3.09886e-05 0.00715897 )  
( 0.0318158 2.92696e-05 0.0662675 )  
( 0.0275291 8.34246e-05 0.0854068 )  
( 0.0174031 -8.81557e-05 -0.0251069 )  
( 0.126098 -0.000237504 0.370537 )  
( 0.0151754 0.000249061 0.0866466 )  
( 0.534589 0.000991281 -0.0173618 )  
( 0.0882436 -2.78331e-05 0.358423 )  
( 0.00984234 -0.000113159 9.01726e-09 )  
( 0.530737 0.00207101 0.052887 )  
( 0.00991256 0.000168238 -6.33487e-08 )  
( 0.0174292 0.00162212 -9.22658e-05 )  
( 0.532254 0.003844 -0.0339326 )  
( -0.107509 -0.0612575 -0.0515159 )  
( 0.45708 -0.00189042 0.0838534 )  
( 0.526228 -0.00242883 0.105856 )  
( 0.533859 -0.000403135 -0.0197151 )  
( 0.0102305 -0.000106755 1.23846e-08 )  
( 0.223882 0.000455822 0.337942 )  
( 0.0250636 -0.000107824 -0.0567093 )  
( 0.00996064 5.81642e-05 -3.26328e-09 )  
( 0.526757 -0.000636848 -0.00347419 )  
( 0.0241651 4.60985e-05 -0.0267863 )  
( 0.0159699 0.000160399 0.00832262 )  
( 0.0101116 -0.000155331 -2.36036e-08 )  
( 0.0193877 -0.00675113 -0.0832864 )  
( 0.0104176 6.19569e-06 -2.45806e-07 )  
( 0.222183 0.000378622 0.321158 )  
( 0.0392035 2.08589e-05 -0.0958628 )  
( -0.113537 -0.0801251 0.167116 )  
( 0.0308402 0.0004523 0.0205728 )  
( 0.196331 -0.000403517 0.325641 )  
( 0.0279011 -0.000305465 -0.000839163 )  
( 0.504521 0.000756067 0.129274 )  
( 0.00998941 5.91347e-05 -2.37125e-08 )  
( 0.526694 -0.000279156 0.0359865 )  
( 0.535587 0.000926153 -0.0781236 )  
( 0.435584 0.00104247 0.213038 )  
( 0.0312072 0.000389465 0.0389169 )  
( 0.0100816 -2.15023e-05 4.11349e-09 )  
( 0.534389 -0.00116819 -0.0701051 )  
( 0.0311947 3.29931e-05 0.0811859 )  
( 0.52875 0.000969847 0.0806951 )  
( 0.53002 -0.00478211 -0.0132459 )  
( 0.029311 -4.57781e-05 0.0172257 )  
( 0.301424 0.000332819 0.291752 )  
( 0.534408 0.000302931 -0.108611 )  
( 0.101876 -0.000133398 0.376911 )  
( 0.0102249 -0.000115568 1.26501e-07 )  
( 0.152187 0.000266145 0.326713 )  
( 0.273584 0.143282 2.67944e-08 )  
( 0.00999341 -0.000143552 3.52227e-08 )  
( 0.526185 0.0015893 0.0338086 )  
( 0.531499 0.00209544 -0.10461 )  
( 0.0100934 -2.06908e-06 -8.28104e-09 )  
( 0.0251938 5.94421e-05 -0.0609785 )  
( 0.0104744 0.000148939 -1.83795e-08 )  
( 0.0149338 3.15998e-05 0.0162115 )  
( 0.00957915 2.22462e-05 -2.12858e-09 )  
( 0.0103052 -0.000169993 2.28108e-07 )  
( 0.0121741 -0.083056 0.0916806 )  
( 0.00995112 7.64055e-05 5.25079e-09 )  
( 0.0097535 5.65925e-05 9.12715e-09 )  
( 0.0101303 -9.97882e-05 -1.19377e-08 )  
( 0.530607 0.000580828 0.111544 )  
( 0.0098428 0.000119679 -1.75193e-08 )  
( 0.022641 7.4943e-05 -0.0486407 )  
( 0.200159 0.000462832 0.331834 )  
( 0.530799 -0.000899524 0.0830331 )  
( 0.531736 -0.000322366 -0.10973 )  
( 0.529368 -0.00404879 -0.0642303 )  
( 0.53349 -0.00107621 -0.00719908 )  
( 0.526913 -0.00253087 -0.0342044 )  
( 0.502341 -0.00063509 0.214297 )  
( 0.0100321 -7.66149e-05 -2.15341e-08 )  
( 0.51492 0.00266684 0.203854 )  
( 0.358094 -0.00227248 0.279199 )  
( 0.025239 0.000157152 -0.0170574 )  
( 0.378141 0.00172453 -0.0426695 )  
( 0.0269139 -4.66785e-05 -0.111982 )  
( 0.515313 7.09526e-06 0.242577 )  
( 0.0551591 0.000243587 0.155357 )  
( 0.0100588 -0.000149984 1.69792e-08 )  
( 0.52486 -0.000590823 -0.016645 )  
( 0.297432 -0.00018143 0.317107 )  
( 0.481889 -0.000565777 0.208382 )  
( 0.400579 -0.00113728 0.139411 )  
( 0.469975 -0.00103584 0.172225 )  
( 0.529416 0.00110073 0.0278694 )  
( 0.0181656 0.000122934 -0.0228773 )  
( 0.0263958 -0.000137248 0.0876289 )  
( 0.134817 -4.68317e-05 -0.0799468 )  
( 0.490423 0.00360284 0.265487 )  
( 0.533916 -0.000951281 -0.0817426 )  
( 0.403039 0.000104911 0.19521 )  
( 0.531501 -0.00101823 -0.0987243 )  
( 0.156676 -0.000311709 0.338693 )  
( 0.538345 0.00254259 -0.00479566 )  
( 0.380935 -0.0012914 0.274362 )  
( 0.0145563 0.000138221 0.0151765 )  
( 0.0147042 -7.24846e-05 0.0213282 )  
( 0.263876 0.00237293 0.305068 )  
( 0.52981 -0.00180541 0.127888 )  
( 0.371794 0.000514336 0.229458 )  
( 0.533718 0.000428619 0.0103962 )  
( 0.0100631 0.000151733 3.59707e-09 )  
( 0.522996 0.00111179 0.167829 )  
( 0.53025 0.000102913 0.142994 )  
( 0.0612341 0.000299737 -0.105054 )  
( 0.468949 -0.0014313 0.0321987 )  
( 0.540559 0.00296626 -0.0322484 )  
( 0.530826 0.0024659 0.134198 )  
( -0.0061694 -0.250814 8.42037e-09 )  
( 0.169873 -0.000273818 -0.123157 )  
( 0.296169 0.000994612 0.249664 )  
( -0.121858 0.0287624 -0.0120926 )  
( 0.0256305 2.43611e-05 0.0954002 )  
( 0.02322 9.2515e-06 -0.0510092 )  
( 0.123451 -0.00113227 0.349175 )  
( 0.530477 -0.00172294 0.149453 )  
( 0.156195 4.6379e-05 0.357794 )  
( 0.521725 -0.000482758 -0.031825 )  
( 0.213171 0.329766 0.00336719 )  
( 0.0250976 -1.45046e-07 -0.0604898 )  
( 0.364606 0.000415667 0.186908 )  
( 0.515844 -0.00269454 0.250912 )  
( 0.532713 0.00175298 -0.00661788 )  
( 0.353579 -3.1647e-05 -0.0975508 )  
( 0.531714 1.2165e-05 0.066387 )  
( 0.221379 -0.000645412 0.175579 )  
( 0.512406 0.00416531 0.197504 )  
( 0.538101 -0.00105922 -0.0682151 )  
( 0.533763 -0.00180479 -0.0549671 )  
( 0.0222441 2.27462e-05 -0.0286419 )  
( 0.533764 -0.00112798 -0.0626133 )  
( 0.360105 0.00101543 0.062228 )  
( 0.0414472 9.01331e-05 0.0181621 )  
( 0.029803 0.000210642 0.067891 )  
( 0.534127 -0.00138517 -0.05755 )  
( 0.00992894 0.000241209 -5.93266e-09 )  
( 0.0333963 0.000347541 0.0494679 )  
( 0.277149 0.0016763 0.279928 )  
( 0.5282 0.000936775 0.00754725 )  
( 0.0102211 -7.35162e-05 2.74988e-08 )  
( 0.0099904 -0.000209482 -7.4999e-09 )  
( 0.030648 -0.000115039 0.0747904 )  
( 0.0100958 8.78913e-05 1.80353e-09 )  
( 0.244912 0.000744145 -0.053529 )  
( 0.00996935 7.97244e-05 -7.38263e-09 )  
( 0.534418 0.00189038 -0.0633794 )  
( 0.0131412 -9.26995e-05 0.0231604 )  
( 0.517372 -0.000570921 0.205441 )  
( 0.532672 -0.00278057 0.0337384 )  
( 0.390208 0.00172896 0.22953 )  
( 0.508266 -0.000181452 0.125573 )  
( 0.170059 0.00133365 0.304192 )  
( 0.381824 -0.39918 0.18253 )  
( 0.471764 0.000597067 0.18007 )  
( 0.0102038 -4.8717e-05 4.19374e-09 )  
( 0.022061 5.94283e-05 -0.0448027 )  
( 0.0259773 0.000113948 -0.0104887 )  
( 0.0497911 0.128434 0.0601035 )  
( 0.216199 5.31389e-05 0.318866 )  
( 0.492993 -0.000710929 0.112764 )  
( 0.0778338 0.30475 1.34047e-08 )  
( 0.0230505 -0.000116965 -0.0505907 )  
( 0.207197 0.000458619 0.28638 )  
( 0.533351 0.003312 -0.0117578 )  
( 0.0170176 -8.93685e-05 -0.0164702 )  
( 0.0270111 -0.000275817 0.0929517 )  
( 0.0328884 -0.00039948 0.0356424 )  
( 0.225902 -0.000563843 0.121216 )  
( 0.103212 0.000234032 0.355983 )  
( 0.536737 -0.000199798 -0.0977586 )  
( 0.325805 -0.00172999 0.285253 )  
( 0.533648 5.35368e-05 -0.0748741 )  
( 0.116011 0.000510031 0.353644 )  
( 0.0102568 -8.04665e-05 0.000287595 )  
( 0.511245 -0.00178027 0.218288 )  
( 0.53515 -0.00172573 -0.0961765 )  
( -0.0133175 -0.05392 -0.00522178 )  
( 0.00983036 4.22573e-05 -5.08857e-09 )  
( 0.534665 -0.00112482 0.00833261 )  
( 0.534805 -0.000775057 -0.0792529 )  
( 0.532077 -0.0023515 -0.0837347 )  
( 0.460411 -0.00189357 -0.0616566 )  
( 0.0492672 -0.000131539 -0.0925035 )  
( 0.0103186 4.92512e-05 1.02077e-08 )  
( 0.432941 -0.000408096 0.19369 )  
( 0.492764 0.000919393 0.238549 )  
( 0.536647 -0.000424648 -0.0182453 )  
( 0.388141 -0.000728208 0.202849 )  
( 0.0341547 -4.29748e-05 0.043636 )  
( 0.0449855 -0.000319066 0.0632404 )  
( 0.53025 -0.000681912 0.209046 )  
( 0.538018 0.00354033 -0.0797379 )  
( 0.0102436 -5.22436e-06 8.51844e-09 )  
( 0.527931 -0.00064406 0.131237 )  
( 0.531256 -0.0047743 0.0994775 )  
( 0.273247 0.00231278 0.273286 )  
( 0.534611 0.00134333 0.119126 )  
( 0.536729 -0.00166687 -0.0662288 )  
( 0.296025 0.000263832 0.00730469 )  
( 0.190749 0.000613486 0.291268 )  
( 0.53311 -0.00162327 -0.0101294 )  
( 0.024653 -0.0627458 -7.33418e-05 )  
( 0.534414 0.00194199 -0.084266 )  
( 0.0101973 0.000216281 -5.37693e-09 )  
( 0.0737066 -0.0588246 0.0228375 )  
( 0.0223286 -7.8478e-05 -0.0444884 )  
( -0.0769428 -0.083197 -0.0153787 )  
( 0.0100473 0.000201296 8.48223e-09 )  
( 0.0099343 7.46006e-05 -3.97426e-08 )  
( 0.532562 -0.00114411 0.0822345 )  
( 0.524844 0.0013654 -0.0622751 )  
( 0.536937 -0.00224956 0.0524603 )  
( -0.038069 0.109392 5.31527e-09 )  
( 0.00990191 6.85587e-05 -1.70933e-09 )  
( 0.0302092 -0.000100924 0.0124709 )  
( 0.469987 -0.000154979 0.178001 )  
( 0.0335701 0.000169663 0.0463307 )  
( 0.527715 -0.000411795 -0.0247476 )  
( 0.0307933 0.000339539 0.00826872 )  
( 0.535508 -0.00171384 0.0332098 )  
( 0.537418 -0.000700306 -0.0826914 )  
( 0.527288 0.00119329 0.119389 )  
( 0.0143093 1.14106e-05 0.0069145 )  
( 0.0323134 0.000482496 0.0267928 )  
( 0.0252423 -5.04096e-05 -0.0208188 )  
( 0.126564 9.81251e-05 0.367061 )  
( -0.0848538 -0.161719 -0.00335193 )  
( 0.0318416 -0.000200426 -0.0740077 )  
( 0.0146433 -5.58203e-05 0.0182216 )  
( 0.532773 -8.11269e-05 0.0245253 )  
( -0.0441155 -0.238789 1.19997e-08 )  
( 0.00149669 -0.00707375 -1.75856e-09 )  
( 0.0145231 -4.49127e-05 0.0205574 )  
( 0.0104899 7.76503e-05 5.81424e-05 )  
( 0.535202 -0.00129921 -0.0717111 )  
( 0.0100808 -9.50212e-05 -6.69051e-09 )  
( 0.0100953 -3.67283e-05 8.35218e-09 )  
( 0.534347 -0.00227777 0.00553178 )  
( 0.00993561 -1.62033e-05 -6.59829e-10 )  
( 0.0114835 1.6616e-06 -0.00596095 )  
( 0.346983 0.000698627 0.0535549 )  
( 0.0103325 -3.50807e-05 1.33084e-08 )  
( 0.132716 -6.17807e-05 0.3455 )  
( 0.537767 -0.00237667 -0.112483 )  
( 0.525641 0.000592773 0.0575745 )  
( 0.54182 0.00379335 0.10178 )  
( 0.0109834 6.60822e-05 -0.000972878 )  
( 0.0653976 0.0464405 0.000384268 )  
( 0.533306 -0.000200414 0.0137242 )  
( 0.0102257 -3.65914e-05 3.33475e-09 )  
( 0.0325746 -0.000147248 0.0313983 )  
( 0.50414 0.00113694 0.144276 )  
( 0.320682 -0.000711835 0.247635 )  
( 0.538197 -0.00344467 0.146778 )  
( 0.026568 -3.66073e-05 0.0845786 )  
( 0.0406571 0.000181972 -0.102048 )  
( 0.0102475 2.96984e-05 -9.76168e-09 )  
( 0.252838 -0.00164934 0.2708 )  
( 0.536183 0.00109313 -0.0539375 )  
( 0.349987 -0.378045 0.135917 )  
( 0.286566 -0.000778062 0.280005 )  
( 0.426008 0.000153198 0.27954 )  
( 0.166943 0.000345652 0.0053264 )  
( 0.195198 0.000352035 0.102924 )  
( 0.0101628 -0.000101884 2.73761e-08 )  
( 0.398939 -0.00159816 0.280602 )  
( 0.529306 0.000398218 0.121759 )  
( 0.512067 -0.00128754 0.191641 )  
( 0.0814147 7.58596e-05 0.305957 )  
( 0.352275 0.00205052 0.0329346 )  
( 0.0102067 -6.17065e-05 3.36618e-09 )  
( 0.0244925 0.000284893 -0.0198816 )  
( 0.535423 0.00129144 0.0863145 )  
( 0.0330763 0.000224427 0.0497616 )  
( 0.539265 0.00196011 0.0391167 )  
( 0.00980529 2.81505e-05 -4.19454e-08 )  
( 0.0101063 -4.36325e-05 1.18471e-08 )  
( 0.0188333 0.135414 1.43577e-08 )  
( 0.527684 0.00300947 0.149387 )  
( 0.537158 -0.00206058 -0.0206208 )  
( 0.320614 0.00018634 0.246839 )  
( 0.143051 0.000131188 0.177395 )  
( 0.435528 0.0020996 0.262018 )  
( 0.532379 -0.000422342 0.0654327 )  
( 0.341043 -0.00076457 -0.0550133 )  
( 0.528235 -0.00151301 0.0614861 )  
( 0.0101734 -5.23594e-05 -8.01564e-09 )  
( 0.210426 0.00022062 0.257071 )  
( 0.010132 -9.65316e-06 -6.28853e-09 )  
( -0.255879 0.151439 -0.0747055 )  
( 0.534781 -4.12561e-05 -0.0312222 )  
( -0.0150155 0.152953 -1.05267e-08 )  
( 0.0102975 0.000108464 3.00214e-08 )  
( 0.0267566 3.39269e-05 0.0874341 )  
( 0.0107149 0.0921039 0.00793343 )  
( 0.534519 -0.00369933 -0.0528189 )  
( 0.530755 0.000168857 -0.0568141 )  
( 0.539759 -0.00208733 -0.00502757 )  
( 0.016518 3.64208e-05 -0.016094 )  
( 0.532654 -0.00076911 0.049014 )  
( 0.530457 -0.00027794 0.155212 )  
( 0.0320111 -0.000318702 0.0192223 )  
( 0.134208 4.56419e-05 -0.0661981 )  
( -0.167542 -0.234616 5.21404e-06 )  
( 0.00992536 0.000186053 -3.0044e-09 )  
( 0.531167 -0.00183246 -0.0746486 )  
( 0.0222934 2.34981e-05 -0.0428451 )  
( 0.53286 -0.00501185 -0.0351561 )  
( 0.0667567 -0.000460807 0.158669 )  
( 0.023579 -1.1752e-05 -0.0293616 )  
( 0.522035 0.00205974 -0.0465183 )  
( 0.0101832 5.77867e-05 -3.107e-09 )  
( 0.0119967 0.00120944 0.00261925 )  
( 0.409182 0.000624865 0.231658 )  
( 0.0101742 0.000165348 1.91081e-08 )  
( 0.533754 0.00304534 -0.0920915 )  
( 0.0281086 0.000121179 -0.0686108 )  
( 0.285651 -2.76783e-05 0.313789 )  
( 0.180437 0.000474655 0.164469 )  
( 0.0317699 -6.45673e-05 0.0216959 )  
( 0.434894 0.000913416 0.19108 )  
( 0.389411 0.00289314 0.294751 )  
( 0.0103465 4.51958e-05 1.89847e-08 )  
( 0.232575 -5.28483e-05 0.319607 )  
( 0.533013 4.06059e-05 0.045395 )  
( 0.525916 0.00143968 0.084314 )  
( 0.530378 -0.00279483 0.0704862 )  
( 0.268207 -0.00209671 0.312663 )  
( 0.0255679 1.09307e-07 -0.0602383 )  
( 0.0426398 -0.0264069 0.0416171 )  
( 0.491319 -0.0628564 0.201787 )  
( 0.0102423 -1.68767e-05 -1.88386e-09 )  
( 0.384148 0.00110751 0.270775 )  
( 0.18012 0.000541142 0.310458 )  
( 0.130614 -0.000770063 0.349143 )  
( 0.53963 -0.00044036 0.0214955 )  
( 0.0106593 -8.89971e-05 3.4888e-08 )  
( 0.501069 6.32352e-05 -0.104445 )  
( 0.527322 -0.00146384 0.0232308 )  
( 0.0282569 -0.000216194 -0.00378964 )  
( 0.0167643 -2.43161e-05 -0.0154901 )  
( 0.0336476 -0.00164512 2.94409e-08 )  
( 0.530838 0.000993929 0.103372 )  
( 0.322226 0.000137847 0.239028 )  
( 0.0858603 -0.0858919 -0.0523106 )  
( 0.038934 -0.000224923 -0.0848414 )  
( 0.538223 -0.00099417 -0.10404 )  
( 0.591631 -0.0888537 0.104069 )  
( 0.185497 0.00108786 0.31961 )  
( 0.0340715 5.02254e-05 0.0396614 )  
( 0.532243 0.00106357 -0.0366592 )  
( 0.0523046 -0.000105929 -0.096967 )  
( 0.207987 -0.000918294 0.0940317 )  
( 0.537369 0.00232546 0.154117 )  
( 0.0102974 9.34442e-05 -7.33507e-08 )  
( 0.526801 0.00128446 0.178176 )  
( 0.264035 6.68775e-05 0.265634 )  
( 0.152991 4.16887e-05 0.304443 )  
( 0.541485 0.0012131 0.189926 )  
( 0.0263564 0.000160227 0.0913567 )  
( 0.0159588 -5.41516e-05 -0.0045909 )  
( 0.540409 0.000991863 0.057269 )  
( 0.295293 0.000846893 0.29587 )  
( 0.351818 0.000707807 0.234158 )  
( 0.0102722 -3.50433e-05 3.53173e-08 )  
( 0.378186 -0.000952362 0.296363 )  
( 0.0227588 0.000397914 -0.0518028 )  
( 0.530769 0.00171294 0.12095 )  
( -0.125482 0.00917627 -0.0410456 )  
( 0.496258 -0.00120736 0.247733 )  
( 0.535367 0.00178528 -0.0267008 )  
( 0.536751 0.00214897 -0.0171199 )  
( 0.0129513 9.86394e-05 -0.00377437 )  
( 0.505211 0.00146535 0.228995 )  
( 0.532837 0.00294307 -0.00792193 )  
( 0.533817 -0.00279747 0.0190704 )  
( 0.501248 -8.17156e-06 0.2393 )  
( 0.540623 0.00266229 -0.0724395 )  