ITEM: TIMESTEP
5000
ITEM: NUMBER OF ATOMS
10000
ITEM: BOX BOUNDS mm mm mm
-0.015 0.015
-0.015 0.015
-0.001 0.0554
ITEM: ATOMS id type x y z ix iy iz vx vy vz fx fy fz omegax omegay omegaz radius 
1995 1 -0.00231447 -0.013148 0.000499797 0 0 0 0.000878347 -0.000248111 8.5399e-05 2.33741e-06 4.21332e-06 -9.52587e-07 0.683649 1.71677 -2.3021 0.0005 
3052 1 -0.00129703 -0.0132879 0.000498806 0 0 0 -0.00114499 0.000183465 -0.000310424 1.13411e-07 6.648e-07 -3.54257e-07 -0.688857 -2.11176 2.51138 0.0005 
585 1 -0.000297797 -0.013347 0.000499927 0 0 0 0.00158912 0.00103347 3.63212e-05 -2.11737e-06 7.6165e-06 -8.02586e-06 -1.11008 2.34831 -2.40268 0.0005 
3494 1 0.000702689 -0.0133256 0.000498964 0 0 0 -9.01234e-05 -0.000127827 -0.00014782 -8.28499e-06 1.59534e-06 -4.18191e-06 0.604489 0.0399441 -4.43095 0.0005 
667 1 0.00264341 -0.013085 0.000499763 0 0 0 0.00097914 0.000533012 3.52313e-05 1.06493e-09 -1.9893e-10 3.04391e-07 -1.06621 1.95941 1.11823 0.0005 
2795 1 -0.00580833 -0.0120153 0.000499771 0 0 0 0.000225043 -0.000701964 -4.09969e-08 -4.36592e-15 1.36184e-14 4.24199e-11 1.40425 0.450189 0.171639 0.0005 
523 1 -0.00489189 -0.012423 0.000499545 0 0 0 0.000896857 -0.00056055 0.000261786 5.19339e-06 -3.10283e-06 1.25112e-06 1.2677 1.54368 -2.17031 0.0005 
3085 1 -0.00381431 -0.0127905 0.000499768 0 0 0 -0.00124712 -0.00177494 -7.45997e-06 3.39258e-13 1.53028e-11 2.31331e-07 3.55071 -2.49482 -9.16061 0.0005 
1312 1 -0.00290612 -0.0123416 0.000498619 0 0 0 7.3251e-05 -0.000505671 7.69114e-05 -2.34334e-06 1.84861e-07 2.09406e-07 0.798198 0.174526 -0.848935 0.0005 
798 1 -0.00188845 -0.0122278 0.00049821 0 0 0 -0.000309841 0.000274346 -0.000244666 9.18779e-07 -1.1607e-06 4.87467e-07 -0.598889 -0.658491 -0.956259 0.0005 
1936 1 -0.000785087 -0.0124299 0.000497832 0 0 0 -0.00129972 0.000422484 -0.000100864 1.83622e-06 1.47914e-06 -1.26235e-06 -1.03371 -2.46995 -2.188 0.0005 
3349 1 0.00054724 -0.0122867 0.000498222 0 0 0 0.000495809 0.000173753 0.000108645 -2.393e-06 -2.07875e-06 4.19511e-07 -0.4588 0.727484 0.451451 0.0005 
1331 1 0.00146495 -0.012679 0.000497398 0 0 0 0.00050267 -0.000126613 -0.000126225 -4.45075e-07 -9.58413e-07 2.34567e-06 -0.0767126 0.793809 -0.508077 0.0005 
3689 1 0.00363375 -0.0128469 0.000499581 0 0 0 0.00100053 0.000288044 0.000193284 -1.23957e-06 4.49741e-07 -3.01793e-07 -0.159731 1.66646 -2.27383 0.0005 
2605 1 0.00465497 -0.0125134 0.000498102 0 0 0 -0.000361292 3.11928e-05 4.24565e-05 -1.75902e-07 4.81738e-07 9.85712e-07 0.0870192 -0.702182 0.572599 0.0005 
1661 1 0.00578586 -0.0120275 0.000499619 0 0 0 0.00434537 0.00252485 4.61369e-05 8.15183e-07 3.60627e-07 1.61971e-06 -5.06551 8.72616 -3.27128 0.0005 
2169 1 -0.00671567 -0.011535 0.000499563 0 0 0 0.000563766 -0.000918935 -0.000487686 8.05595e-07 -1.10066e-06 2.03966e-07 1.86736 1.23646 6.86019 0.0005 
986 1 -0.00409075 -0.0118277 0.000499021 0 0 0 0.00118234 -0.00123973 4.51449e-05 1.28159e-06 6.10377e-07 -2.72811e-07 2.75956 2.46778 0.771993 0.0005 
1397 1 -0.00330238 -0.0112149 0.000497229 0 0 0 0.000270163 -0.000706045 0.000452658 9.30053e-07 9.86407e-07 -7.74613e-07 1.75309 0.151602 0.931434 0.0005 
1815 1 -0.00181554 -0.0112264 0.000497587 0 0 0 -6.7546e-05 -0.000817939 1.03376e-05 9.43774e-07 -1.58718e-06 -4.91073e-07 2.17673 -0.224088 -1.1874 0.0005 
1989 1 -1.52513e-05 -0.0114607 0.000499153 0 0 0 9.72895e-05 4.8722e-05 0.000167212 6.23282e-07 -4.3571e-07 5.0842e-07 -0.21925 0.306767 0.379791 0.0005 
1796 1 0.00108606 -0.011427 0.000499771 0 0 0 -0.00599072 -0.00499746 2.20183e-12 -5.66221e-18 -4.71562e-18 5.54128e-14 9.99722 -11.9842 22.4999 0.0005 
2941 1 0.00201276 -0.0118448 0.000495567 0 0 0 0.000303975 -0.00013126 -0.000161433 -3.11961e-06 1.25932e-06 1.42063e-06 0.325779 0.690722 1.23447 0.0005 
637 1 0.0029702 -0.0115429 0.000499788 0 0 0 0.000183472 0.00134817 -0.000117282 4.5118e-07 -1.41373e-08 -3.57691e-07 -2.75519 0.379559 -8.8032 0.0005 
1709 1 0.00388228 -0.0119005 0.000699998 0 0 0 0.000502303 0.000688661 0.000299636 -1.48542e-06 1.24486e-06 -5.75681e-07 1.211 1.96238 4.37503 0.0005 
1338 1 0.00485637 -0.0115375 0.000497807 0 0 0 0.00230565 -0.000389864 0.000189284 -5.1235e-06 1.1423e-06 -6.563e-07 0.918733 4.62501 -6.04312 0.0005 
3928 1 0.00670077 -0.0115467 0.000497965 0 0 0 0.000836569 0.000387424 0.000129694 3.03432e-06 4.76105e-06 -6.6318e-08 -0.677602 1.66675 0.484458 0.0005 
2750 1 -0.00881925 -0.0100248 0.000497047 0 0 0 -3.36391e-05 -0.000299706 -2.00293e-05 8.97411e-07 -4.11099e-07 -2.48554e-07 0.451727 -0.0445709 -0.715807 0.0005 
303 1 -0.00756222 -0.0109611 0.000499771 0 0 0 -0.00492019 0.000626267 4.33728e-14 -1.01633e-19 1.37791e-20 3.64888e-16 -1.25282 -9.84264 -37.5146 0.0005 
4554 1 -0.00650028 -0.0105415 0.000499771 0 0 0 0.00392765 0.00188485 4.57003e-15 -1.48296e-20 5.86595e-21 3.04932e-20 -3.77056 7.8571 -7.1492 0.0005 
2551 1 -0.00549519 -0.0109977 0.000496424 0 0 0 0.000783052 -0.000212056 -1.53114e-05 1.51788e-06 -2.11982e-06 -1.35808e-06 -0.0794519 1.35405 1.93951 0.0005 
3961 1 -0.00480799 -0.0103686 0.000996441 0 0 0 0.00106956 -0.00262123 -0.0001571 1.40177e-06 3.52669e-06 3.29685e-06 -8.65081 0.356324 -6.85598 0.0005 
4073 1 -0.0039396 -0.0104173 0.000499664 0 0 0 -0.000631408 -0.00695947 -0.000132474 8.75676e-07 -1.22552e-06 -6.29883e-07 13.8657 -1.23206 16.0438 0.0005 
769 1 -0.00255526 -0.0105512 0.000499257 0 0 0 0.000209934 -0.000138605 0.000579003 -4.8084e-07 1.4371e-06 9.05948e-08 -0.180325 0.711313 0.123074 0.0005 
4461 1 -0.00160198 -0.0102501 0.0004979 0 0 0 -6.0135e-05 -0.000242184 0.000391803 1.08043e-06 -1.33145e-06 1.97757e-07 1.05389 -0.804223 -3.71152 0.0005 
4636 1 -0.000824484 -0.0108755 0.000497889 0 0 0 -0.000738013 -0.000898269 0.000238098 -3.09068e-07 -2.62817e-07 3.08344e-07 1.89701 -1.4988 1.95541 0.0005 
3592 1 7.90122e-05 -0.0104238 0.000497638 0 0 0 7.02652e-05 -0.00180803 1.37808e-05 2.91958e-06 1.33372e-06 2.63473e-07 3.4974 0.386221 -6.44812 0.0005 
1158 1 0.00211018 -0.0108521 0.000498381 0 0 0 -0.000499194 -0.000111288 4.81223e-05 -7.72182e-07 1.63377e-06 -1.89943e-06 0.134354 -1.29429 -0.260205 0.0005 
3697 1 0.00313859 -0.0104692 0.000499771 0 0 0 0.00179717 -0.00146517 3.05795e-08 1.9946e-14 -1.62544e-14 1.99762e-09 2.93101 3.59516 0.392528 0.0005 
2256 1 0.00402676 -0.0109331 0.000497679 0 0 0 0.000276386 0.000733269 -0.000134357 -3.41104e-06 1.30322e-06 -7.73921e-07 -1.68148 0.293413 -4.66146 0.0005 
2348 1 0.00511303 -0.0105942 0.000686408 0 0 0 0.00173341 3.93811e-05 -0.000493674 -5.35409e-06 9.5127e-08 -1.96996e-06 -0.144459 4.48467 9.12442 0.0005 
3939 1 0.0060821 -0.010762 0.0004995 0 0 0 -0.000247762 -0.000166524 -0.000169935 3.28899e-06 4.30768e-06 -2.11727e-06 -0.432322 -0.807602 1.83934 0.0005 
3905 1 0.0076049 -0.0108185 0.000499272 0 0 0 -8.01543e-05 0.00102729 0.000158917 8.25259e-07 5.60392e-06 6.26872e-07 -2.25648 -0.13176 11.1263 0.0005 
4129 1 0.00853599 -0.0102632 0.000497878 0 0 0 -0.000848903 -0.00103594 0.000102537 -4.46399e-06 -2.57915e-06 1.89505e-06 2.13374 -1.66099 23.6422 0.0005 
3092 1 -0.00961859 -0.00925699 0.000499771 0 0 0 0.00126065 -0.00112631 8.37511e-13 1.66418e-19 -1.51941e-19 1.56763e-13 2.25313 2.52189 14.7024 0.0005 
3084 1 -0.00779366 -0.00990281 0.000496195 0 0 0 0.000487536 0.000125884 0.000213352 1.85226e-06 -5.15699e-06 -2.03823e-06 -0.153678 1.07056 -6.38695 0.0005 
3337 1 -0.0068475 -0.0095744 0.000499623 0 0 0 -0.000170354 -0.00338501 0.000236003 -3.89219e-07 -6.01685e-07 5.26199e-07 6.84138 -0.388288 -3.42023 0.0005 
3321 1 -0.005591 -0.0100033 0.000496738 0 0 0 0.0014448 -0.000726975 0.00022605 2.41046e-06 -1.07482e-06 9.57358e-07 1.58495 2.99511 -2.61341 0.0005 
614 1 -0.00586919 -0.00904085 0.000499771 0 0 0 0.00241628 -0.00246424 4.32359e-09 5.10752e-15 -5.20892e-15 -4.52095e-11 4.92962 4.83367 6.52252 0.0005 
4825 1 -0.00473303 -0.00942536 0.000499771 0 0 0 -0.0100566 0.00173947 -3.31537e-09 1.58465e-14 -2.74093e-15 7.53787e-12 -3.47975 -20.1179 -14.674 0.0005 
3436 1 -0.00340168 -0.00945832 0.000499771 0 0 0 0.00235855 0.00871167 -2.06925e-15 -1.46594e-20 -5.95335e-20 0 -17.4273 4.71819 10.7897 0.0005 
789 1 -0.00233431 -0.00956125 0.000496202 0 0 0 0.000720815 -0.000903973 -0.000190048 -3.36158e-06 -1.32354e-06 -1.13549e-06 1.9718 1.07366 2.36591 0.0005 
2173 1 -0.00138509 -0.00925743 0.000497385 0 0 0 0.000350938 -0.000104931 8.24001e-06 -3.05621e-06 -1.81009e-06 9.22127e-07 0.440753 -0.0408515 -0.663316 0.0005 
1082 1 -0.000718705 -0.00992336 0.000830883 0 0 0 0.00120454 6.73144e-05 0.000631418 4.51375e-06 6.42482e-06 -6.64965e-07 -3.66029 1.52956 1.91511 0.0005 
542 1 0.00168888 -0.00910701 0.00049532 0 0 0 0.000248222 -0.000439617 -8.49077e-05 -1.72181e-06 4.78638e-07 5.35789e-07 0.791126 0.650108 0.170525 0.0005 
2524 1 0.00108607 -0.00995295 0.000499771 0 0 0 -0.00607534 -0.00325659 3.09415e-14 -9.35981e-20 -5.01856e-20 -2.12402e-17 6.51467 -12.1535 -11.1528 0.0005 
3107 1 0.0023235 -0.00987758 0.000529068 0 0 0 0.000139447 -0.000292287 4.14349e-05 -7.07007e-07 2.71427e-06 -3.45598e-07 -0.637812 -1.43459 -0.536087 0.0005 
2125 1 0.00318518 -0.00937491 0.000497669 0 0 0 0.000631873 -0.000641557 0.000103151 1.91368e-07 3.47179e-06 1.07319e-06 0.766838 1.47787 -0.519033 0.0005 
4063 1 0.00404897 -0.00993464 0.000500726 0 0 0 0.00205451 0.000497585 -0.000615235 -2.49634e-06 2.48452e-06 4.62725e-08 0.964681 10.1652 1.29963 0.0005 
2222 1 0.00503676 -0.00961832 0.000496624 0 0 0 -0.00023861 -0.000225588 -0.000102965 -1.39807e-06 -7.27339e-07 -2.48481e-07 0.682501 -0.727863 -5.63113 0.0005 
2366 1 0.00595075 -0.00985291 0.000892673 0 0 0 0.000767837 -0.000840552 0.00133884 -5.4576e-08 2.07385e-06 -1.19669e-06 4.13702 4.53035 -2.52825 0.0005 
2352 1 0.00679204 -0.00949283 0.000496228 0 0 0 -0.000226164 0.000467929 0.000298776 1.60543e-06 1.18647e-06 2.46301e-07 -0.861103 -0.650949 4.02734 0.0005 
3110 1 0.00785296 -0.00953298 0.000497051 0 0 0 -0.00110782 -0.000795674 -0.00011344 2.40204e-06 -1.4599e-06 -4.5626e-08 1.79224 -2.43162 -12.0108 0.0005 
843 1 0.00917839 -0.00947859 0.00049977 0 0 0 0.000403 -0.00139348 2.30052e-07 4.25146e-14 -1.45402e-13 1.83197e-09 2.78761 0.806185 -8.85681 0.0005 
4221 1 -0.0103796 -0.00839529 0.000499198 0 0 0 -0.000173523 0.000265155 -4.09398e-06 -1.06237e-06 -1.07446e-06 -7.3032e-07 -0.535027 -0.392026 6.11337 0.0005 
823 1 -0.00934467 -0.00829116 0.000498993 0 0 0 0.0010691 -0.00143267 -0.000892874 -1.02356e-06 -2.29159e-06 3.40089e-06 2.80862 2.45934 9.45688 0.0005 
1550 1 -0.0083112 -0.00848452 0.000498141 0 0 0 0.000499637 -0.000326928 -9.4592e-05 5.05431e-06 -2.93063e-06 -1.16468e-07 0.909487 0.834304 3.28768 0.0005 
4518 1 -0.00679948 -0.00855314 0.000499771 0 0 0 0.00363451 -0.000558959 4.07155e-10 7.09475e-16 -1.09111e-16 -1.94192e-12 1.11818 7.27068 5.89131 0.0005 
2735 1 -0.00536217 -0.00815378 0.000497312 0 0 0 0.000241305 -0.000798336 -0.000297743 7.33227e-07 2.29965e-06 5.59804e-07 1.92859 0.926132 -5.36355 0.0005 
3818 1 -0.00433199 -0.00850016 0.000495683 0 0 0 -0.000315142 -0.00055399 -5.08814e-05 -1.00214e-07 -3.19676e-07 5.3134e-07 1.62439 -0.586151 1.65341 0.0005 
2662 1 -0.00305891 -0.00833917 0.000499431 0 0 0 -0.000392908 0.000348149 -0.000373891 -4.24124e-07 2.51916e-06 9.78371e-07 -1.00607 -0.752192 -2.71501 0.0005 
3424 1 -0.00205521 -0.00837672 0.000498193 0 0 0 0.000352666 -0.000123535 0.000137837 -4.48826e-06 -1.22158e-06 2.60984e-07 0.165955 0.616147 -4.21081 0.0005 
3987 1 -0.000894185 -0.00838685 0.00049916 0 0 0 -0.000198 0.000550535 -9.81364e-05 -6.1431e-06 2.03301e-06 -4.66419e-07 -1.00876 -0.463411 2.40911 0.0005 
599 1 -5.34067e-05 -0.00894086 0.00049891 0 0 0 0.00141911 -0.00105892 -0.000387045 5.38081e-06 1.72884e-06 6.1395e-07 2.32988 3.11183 -4.89436 0.0005 
1639 1 0.000864999 -0.00854445 0.000498682 0 0 0 0.000912264 0.000511354 8.74873e-05 -2.78528e-06 4.59294e-07 -5.16487e-07 -0.880619 1.24272 -2.55448 0.0005 
215 1 0.00247529 -0.00845903 0.000499771 0 0 0 -0.00624324 0.0105797 -2.83095e-12 8.25946e-18 -1.40049e-17 -7.38109e-15 -21.1642 -12.4894 23.8376 0.0005 
1252 1 0.00369551 -0.00801591 0.000497711 0 0 0 0.000698451 0.000407855 2.5933e-05 2.64135e-06 3.48796e-08 -1.1903e-06 -0.814171 1.33777 -3.05428 0.0005 
4440 1 0.00408195 -0.00893651 0.000498619 0 0 0 0.000141468 0.00040408 0.000285256 1.39279e-06 1.76129e-06 6.89021e-07 1.03424 -1.87184 2.4055 0.0005 
4939 1 0.00491793 -0.00839042 0.000499545 0 0 0 0.000864582 -0.000431895 0.000538496 2.29456e-06 -8.437e-07 4.92462e-07 1.06823 1.8362 -4.89269 0.0005 
2232 1 0.00735002 -0.00865849 0.000497909 0 0 0 3.89982e-05 -0.0013818 -0.000217049 1.34648e-06 2.32797e-06 -2.51437e-06 2.74946 0.394211 -8.50499 0.0005 
4936 1 0.00903005 -0.00848597 0.000498296 0 0 0 -0.000812774 0.000785373 -1.0921e-05 -9.83646e-08 -1.88837e-06 -4.55089e-07 -1.60132 -1.38773 -1.09047 0.0005 
2398 1 0.00999117 -0.00885646 0.000500304 0 0 0 -0.000349492 1.27122e-05 -0.000575607 -7.58885e-08 -2.8685e-06 -2.02113e-06 2.4302 -4.11834 0.357719 0.0005 
4201 1 -0.0112798 -0.0070948 0.000499771 0 0 0 -0.00163614 0.000645534 -3.07879e-12 2.35725e-18 -9.28927e-19 -6.00915e-15 -1.29137 -3.27302 -1.60157 0.0005 
1567 1 -0.0102091 -0.00740607 0.000496385 0 0 0 -0.000390359 -0.000366806 -0.000224469 1.88664e-06 -1.9403e-06 -1.23944e-06 0.844893 -0.641774 -6.28313 0.0005 
251 1 -0.00898357 -0.00735339 0.000499771 0 0 0 -0.000288664 0.000753809 -5.74903e-09 8.20371e-16 -2.14229e-15 7.88865e-11 -1.50796 -0.577461 -6.00933 0.0005 
1983 1 -0.00796686 -0.00745117 0.000498457 0 0 0 -0.00052794 0.000100478 0.000215053 4.72031e-06 -4.64672e-06 4.74671e-08 -0.462508 -1.38106 6.63475 0.0005 
2675 1 -0.00692048 -0.00755999 0.000499771 0 0 0 -0.00156951 -0.00113455 -8.56177e-09 6.61756e-15 4.78362e-15 1.07823e-10 2.26962 -3.13974 2.06821 0.0005 
1631 1 -0.00584206 -0.0072773 0.000498357 0 0 0 -0.000197655 -0.000396545 -0.000330688 1.91446e-06 1.28141e-06 1.13651e-06 0.681283 -0.251465 1.49465 0.0005 
4305 1 -0.00479336 -0.00733231 0.000498099 0 0 0 0.000470366 -0.000839006 -0.000388087 3.23928e-06 -9.85131e-07 -4.43568e-07 0.975854 1.34838 3.7944 0.0005 
3423 1 -0.00380314 -0.00765233 0.000499569 0 0 0 -0.00125834 0.000266027 0.000376768 1.43144e-06 -5.02634e-06 2.18241e-07 -1.82093 -1.80206 0.238209 0.0005 
1254 1 -0.00263115 -0.00748715 0.000798904 0 0 0 -0.000444199 -0.000134308 0.000238606 4.58408e-06 2.70148e-06 5.13218e-06 2.9709 0.114823 2.78059 0.0005 
3833 1 -0.00167888 -0.0074426 0.000499576 0 0 0 -0.000231277 0.00130956 0.000127155 2.84153e-06 4.35154e-06 3.94387e-07 -2.61607 -0.197504 0.258183 0.0005 
2532 1 -3.45721e-05 -0.00787718 0.000497879 0 0 0 0.000473292 -0.000479793 -0.000517897 -2.25724e-06 9.52019e-07 -4.69858e-07 0.24384 1.26398 -6.57939 0.0005 
3656 1 -0.000722782 -0.00715213 0.000499884 0 0 0 0.000639465 -0.000904157 0.000237759 2.23436e-06 4.59698e-08 -1.38159e-06 1.48673 -0.559648 -5.06864 0.0005 
1495 1 0.00138384 -0.00769049 0.000497242 0 0 0 0.00153534 -0.000324982 -0.000243482 4.69262e-07 5.18087e-07 -2.52693e-07 1.09574 2.85781 1.2746 0.0005 
463 1 0.00355875 -0.00705769 0.00074437 0 0 0 0.00176606 0.000630403 0.000270833 1.88112e-06 -1.51194e-06 -5.76089e-06 1.74372 -0.684842 0.558722 0.0005 
233 1 0.00456042 -0.00745667 0.000498164 0 0 0 0.00100023 -3.30106e-05 1.62953e-05 2.52066e-06 -4.06282e-08 4.41354e-07 0.205031 1.80201 1.43887 0.0005 
1317 1 0.00583475 -0.00799451 0.000498591 0 0 0 0.000521024 0.000370477 0.000102853 2.09815e-06 6.32411e-07 -7.57081e-07 0.163666 0.611301 6.92911 0.0005 
4759 1 0.00548461 -0.00705737 0.000502238 0 0 0 0.00139654 0.00185775 -0.00650217 0 0 -1.0273e-05 -1.88298 1.08759 -0.362355 0.0005 
2501 1 0.00697527 -0.00770223 0.000498675 0 0 0 0.00117227 0.00143883 6.51458e-05 3.95099e-06 1.4125e-06 -1.65899e-06 -2.98118 2.46674 3.01462 0.0005 
4785 1 0.00797157 -0.00781678 0.000499771 0 0 0 0.00338508 0.00986334 -5.83217e-06 -1.243e-11 -2.74888e-11 2.5808e-08 -19.7312 6.77171 18.6095 0.0005 
4711 1 0.00892982 -0.0074925 0.000495563 0 0 0 -0.000539535 0.000643553 -0.000401279 -1.08415e-06 -2.30087e-06 -8.73697e-07 -1.35234 -1.5173 -1.26395 0.0005 
3719 1 0.00985494 -0.00786715 0.000499172 0 0 0 -0.000347124 4.12134e-05 0.000169934 -1.41432e-06 -3.22582e-06 2.10973e-07 -0.138901 0.291736 -0.186445 0.0005 
3614 1 0.0108498 -0.00777978 0.000499925 0 0 0 -0.000171048 -6.22788e-05 9.94014e-06 -5.30498e-07 -5.16281e-07 1.69578e-06 0.785704 -0.355393 0.206785 0.0005 
3927 1 -0.0118007 -0.00622909 0.000498303 0 0 0 0.00212605 -0.00267344 0.000137936 4.95453e-06 1.18631e-05 1.49311e-06 5.16287 4.20404 13.6183 0.0005 
2192 1 -0.0107919 -0.00619899 0.000498918 0 0 0 0.00252476 0.000662704 -0.000613139 -4.58918e-06 -1.26804e-06 9.93485e-07 -0.930286 5.32958 -4.23175 0.0005 
4210 1 -0.00967851 -0.00653041 0.000499258 0 0 0 0.00100837 -0.000187901 0.000152564 -8.52449e-07 -3.32432e-06 -3.41672e-06 0.554849 1.4601 2.81435 0.0005 
780 1 -0.00878449 -0.00608521 0.000497415 0 0 0 -2.53471e-05 0.000831391 0.000366281 6.97683e-06 -1.27391e-07 -7.06499e-06 -0.919178 -0.635771 0.0716184 0.0005 
4528 1 -0.00684927 -0.00631022 0.000498946 0 0 0 0.000178444 -0.00145552 -6.1337e-05 2.04295e-06 -1.5316e-06 4.22832e-07 3.23637 -0.421284 -1.42798 0.0005 
4643 1 -0.00530957 -0.00624066 0.00049953 0 0 0 -9.81064e-05 -0.000729771 -0.000629302 2.44217e-06 -1.73356e-06 -7.30645e-07 2.04146 -0.59211 7.75738 0.0005 
3684 1 -0.00363976 -0.00617187 0.000498223 0 0 0 -0.000461069 0.000226965 0.000158287 8.23196e-07 3.73467e-07 1.04126e-06 0.513384 -0.606408 6.41889 0.0005 
2888 1 -0.00269723 -0.00650133 0.000496908 0 0 0 -0.000684604 0.000175436 0.000140139 2.09791e-06 1.77758e-06 -3.95881e-07 -0.260788 -0.937233 -6.88346 0.0005 
4625 1 -0.00163965 -0.00644058 0.000498581 0 0 0 -0.00107552 -0.00047687 -0.000291255 -1.74332e-06 -5.58493e-07 1.8219e-07 1.10462 -2.17273 -1.68088 0.0005 
2993 1 -0.000464595 -0.00617514 0.000498556 0 0 0 -0.000585883 -0.0010472 -0.00020293 -3.6649e-07 4.87971e-07 -1.49386e-06 2.25237 -1.15518 0.370092 0.0005 
4713 1 0.000248996 -0.00691926 0.000497005 0 0 0 0.000868905 -0.00131821 0.000383856 3.87618e-07 -1.57775e-07 1.00742e-06 2.88911 1.408 4.49377 0.0005 
2643 1 0.000423062 -0.00604194 0.000938381 0 0 0 -0.000407665 -0.000940165 0.000510259 -8.68153e-07 3.34855e-06 -1.35477e-06 -2.14995 3.74287 1.04337 0.0005 
2708 1 0.00150478 -0.00665896 0.000496888 0 0 0 0.00166251 0.00109132 7.01052e-05 -2.78153e-06 4.64825e-06 -5.82935e-07 -2.18777 3.3532 -16.3455 0.0005 
2792 1 0.00259428 -0.00696922 0.000497884 0 0 0 0.00139715 -0.000268317 6.1211e-05 3.10987e-08 3.02063e-06 -1.78157e-07 0.490464 2.74904 2.54635 0.0005 
372 1 0.00367653 -0.00609725 0.000497077 0 0 0 0.00113389 0.000745783 8.60134e-05 1.1301e-09 -3.47564e-06 -1.79009e-06 -1.70238 1.89013 -0.0246537 0.0005 
3224 1 0.00466924 -0.00646397 0.00049893 0 0 0 0.00067922 4.73086e-05 0.000189844 1.45095e-06 8.97244e-07 6.40966e-07 -0.0479409 1.09156 -1.33129 0.0005 
3413 1 0.00664217 -0.00666239 0.000495224 0 0 0 0.000527435 0.000128889 0.000147757 -2.7175e-06 1.98764e-06 -4.74363e-07 -0.242755 1.2438 0.825068 0.0005 
1863 1 0.00848988 -0.00630796 0.000497152 0 0 0 0.000662806 0.00136567 0.000125273 -1.35024e-08 -3.02911e-06 -4.83124e-07 -2.7792 1.1031 -3.89041 0.0005 
3884 1 0.00948265 -0.00642052 0.000498986 0 0 0 0.000258048 -0.000773247 -0.000435073 -3.89848e-07 -3.40257e-07 -8.07629e-07 1.57478 0.440064 -0.84449 0.0005 
1762 1 0.0104583 -0.00690466 0.000819759 0 0 0 3.08411e-05 -0.000374089 -0.000829727 1.7323e-06 -6.06011e-07 -2.38293e-06 1.58641 -2.05871 1.50216 0.0005 
4278 1 0.0114026 -0.00694774 0.000498019 0 0 0 0.00011421 0.00028421 3.71372e-07 1.60887e-06 2.07261e-06 9.18497e-07 -0.580997 0.358809 -0.444234 0.0005 
900 1 -0.0122119 -0.00539662 0.000879657 0 0 0 -0.000203562 -0.000375288 -0.000552021 -2.45847e-07 -3.85802e-06 -2.40829e-06 3.36691 1.50703 -0.565431 0.0005 
1776 1 -0.0113591 -0.00504654 0.00049747 0 0 0 -0.000279613 -0.000374032 -9.10754e-05 -2.26261e-07 -4.87486e-06 -2.59169e-06 0.834069 -0.646889 -1.30982 0.0005 
1510 1 -0.00999891 -0.0055842 0.000499316 0 0 0 -0.00148318 -0.000499006 -0.000666271 -8.58593e-07 2.3137e-06 -7.96093e-07 -1.02635 -3.38235 3.06523 0.0005 
4107 1 -0.00910442 -0.00513876 0.000497269 0 0 0 -0.000688346 0.00100004 -0.000149626 -1.15176e-06 -8.98751e-07 6.38362e-06 -2.2607 -0.471981 0.878766 0.0005 
2711 1 -0.00777294 -0.00592852 0.00049935 0 0 0 0.000784288 8.17968e-06 0.000281706 2.88483e-06 2.22222e-06 3.02813e-06 -0.429046 1.02376 -2.0343 0.0005 
1110 1 -0.00610857 -0.0056399 0.000496419 0 0 0 -0.000142498 -0.000397982 -0.000219184 2.58047e-06 -2.21521e-06 -7.95055e-07 0.797414 -0.50135 5.02104 0.0005 
2499 1 -0.00529998 -0.00524077 0.000921245 0 0 0 -0.00097753 0.00198553 -0.000460699 2.43321e-06 -9.44773e-07 -3.39096e-06 1.86425 2.66991 1.9965 0.0005 
2381 1 -0.00449834 -0.00565675 0.000497747 0 0 0 -0.00114023 0.00133192 -6.46235e-05 7.35709e-07 1.42992e-06 -2.44789e-06 -2.77833 -2.32649 -3.39758 0.0005 
2094 1 -0.0035939 -0.00517434 0.000498893 0 0 0 0.000194931 0.00054239 0.000115808 1.19194e-06 1.86485e-06 1.11172e-06 -1.55546 1.07668 -7.12572 0.0005 
1043 1 -0.00221419 -0.00562411 0.000497032 0 0 0 -4.94984e-05 -0.000273647 3.45923e-05 1.11807e-07 -2.12864e-06 9.98223e-07 0.826703 0.244289 -0.308873 0.0005 
1262 1 -0.00022976 -0.00528759 0.000893325 0 0 0 -0.000273091 -0.000957019 0.000134509 -2.59146e-06 3.51012e-06 -7.36399e-06 -1.86709 -1.07782 -1.9578 0.0005 
2833 1 0.000682092 -0.00518437 0.000497598 0 0 0 -0.000847432 -8.5763e-05 0.000255146 5.29626e-07 -6.92411e-07 -1.57816e-06 -0.224885 -1.38679 -0.274609 0.0005 
1229 1 0.00158212 -0.00562318 0.00049979 0 0 0 1.59771e-05 -0.00467709 -0.000141001 -2.41216e-08 1.29814e-08 -5.54288e-07 9.36008 0.0393869 -6.72511 0.0005 
4328 1 0.00276253 -0.00569472 0.000498668 0 0 0 0.000840152 0.000448435 0.000285714 -1.66907e-06 -6.50789e-06 -6.08675e-07 -1.25562 1.06812 0.935552 0.0005 
1518 1 0.0039036 -0.00505849 0.000499524 0 0 0 -0.00164007 0.00117338 -0.000322539 9.59975e-06 4.67433e-06 -8.60218e-07 -2.5628 -3.11325 14.8204 0.0005 
1064 1 0.00497059 -0.00517475 0.000498415 0 0 0 0.000860972 0.000684769 0.00031267 -3.87323e-06 2.44137e-06 -2.69514e-06 -1.49215 2.02444 3.03404 0.0005 
1469 1 0.00590502 -0.00552892 0.00049909 0 0 0 0.00013016 -0.00139018 -0.000883513 -1.51807e-06 -1.44708e-08 1.21925e-05 2.88751 1.96722 -6.3426 0.0005 
2487 1 0.00721663 -0.00584539 0.00049956 0 0 0 0.00119577 -0.000667318 -0.000603868 -2.39981e-06 -5.33354e-07 6.07495e-07 0.0531115 1.13273 -3.58604 0.0005 
4578 1 0.0080373 -0.00514526 0.000499207 0 0 0 0.00183437 0.00188662 8.81769e-05 1.14032e-06 -3.42683e-06 -1.13064e-06 -3.71669 3.56267 0.0137284 0.0005 
741 1 0.00900884 -0.00545565 0.000496807 0 0 0 0.00152856 0.00161817 -7.23363e-05 3.55467e-06 -4.78245e-06 3.05931e-07 -3.70863 3.92885 2.62595 0.0005 
4597 1 0.0103717 -0.00595869 0.000499684 0 0 0 -0.000505981 -0.00149617 0.000159476 1.45149e-06 -3.4524e-06 1.78961e-06 3.16828 -1.1797 7.29996 0.0005 
3412 1 0.0115646 -0.00548392 0.000497525 0 0 0 -9.2145e-05 0.000441201 0.000419202 7.65815e-07 3.53012e-06 -9.06942e-07 -0.97664 -0.386742 -2.71037 0.0005 
3962 1 -0.012555 -0.00453989 0.000497378 0 0 0 -6.17114e-05 0.000142605 0.000297364 -1.84767e-06 8.72118e-08 -1.63289e-06 -0.439466 -0.458435 0.492287 0.0005 
2682 1 -0.010302 -0.00463265 0.000498166 0 0 0 2.92814e-05 -0.000422433 -0.000493404 -1.92953e-06 6.55147e-06 -5.02307e-07 1.37446 -0.0571372 -7.46246 0.0005 
3002 1 -0.009431 -0.00414437 0.000496776 0 0 0 0.000219072 -0.00136445 0.000151958 3.52607e-06 3.7845e-06 1.48295e-06 3.05216 0.771759 6.01868 0.0005 
1958 1 -0.00845918 -0.00437677 0.000497451 0 0 0 -2.92429e-05 0.000189921 -0.000279535 4.02644e-07 -2.46118e-06 1.63816e-06 -0.105258 -0.535926 -3.02954 0.0005 
1559 1 -0.00762294 -0.00493816 0.000495506 0 0 0 -0.000284931 -0.000350815 -0.000258437 -6.04443e-08 -3.32315e-06 2.10927e-06 0.882063 -0.400958 0.126082 0.0005 
888 1 -0.00685091 -0.00446882 0.000924006 0 0 0 -0.00105835 6.59008e-05 0.000217483 -4.02315e-07 -7.59763e-06 -1.97698e-06 1.27129 2.56732 6.75316 0.0005 
2068 1 -0.00595837 -0.00461841 0.000499456 0 0 0 -0.00107826 0.00171493 -9.87339e-05 4.25751e-07 -4.1921e-06 1.61642e-06 -3.0596 -1.78887 -2.16206 0.0005 
3023 1 -0.00444579 -0.00464515 0.000499709 0 0 0 -0.00765169 -0.00874334 0.000219493 -1.45647e-07 -4.06159e-07 -1.55407e-06 17.6001 -15.3345 11.8617 0.0005 
1681 1 -0.00331327 -0.0042168 0.000545757 0 0 0 0.00102046 0.000443448 0.00018337 2.79332e-06 2.88445e-06 -3.09931e-07 -1.5015 -14.2305 4.58636 0.0005 
2653 1 -0.00228799 -0.00429755 0.000499143 0 0 0 0.00217884 -0.00338985 7.43921e-05 1.22633e-06 -6.43615e-07 -6.55886e-07 6.7764 4.2885 17.7251 0.0005 
861 1 -0.00111128 -0.00488496 0.00049711 0 0 0 0.000233036 -0.000428811 1.25867e-06 -2.39976e-06 2.16053e-06 1.19553e-06 0.998608 0.20789 1.78742 0.0005 
533 1 -0.00014862 -0.00437081 0.000499692 0 0 0 0.000702136 0.000157871 0.000102797 3.55426e-06 1.48611e-06 -1.47448e-06 -0.816286 0.337347 -3.38448 0.0005 
1534 1 0.000863379 -0.00420238 0.000497882 0 0 0 7.55741e-06 0.000144654 0.000115747 -4.87728e-06 7.15295e-07 1.60269e-06 0.0750833 -0.145141 -1.66974 0.0005 
1632 1 0.00195327 -0.00430042 0.000498101 0 0 0 0.00114317 0.000924917 0.000162067 3.7963e-07 -4.1471e-06 -7.07361e-07 -1.87668 2.33083 1.6086 0.0005 
2869 1 0.00294248 -0.00415692 0.00049542 0 0 0 0.000670612 0.000978262 -2.24547e-06 -3.27411e-07 -3.54403e-06 -9.83605e-07 -2.21935 1.00302 -2.15951 0.0005 
1315 1 0.00422877 -0.00410141 0.000499334 0 0 0 -0.00100941 0.00213793 -0.000110699 5.29687e-07 1.42829e-06 -5.20544e-07 -4.28327 -1.97587 -5.1383 0.0005 
32 1 0.00519198 -0.00422922 0.000734341 0 0 0 -0.00116034 0.00091987 -0.000376162 -2.90473e-07 9.05034e-07 -8.73968e-07 0.883901 2.53595 1.74111 0.0005 
1562 1 0.00613635 -0.0045285 0.000498866 0 0 0 7.13945e-05 -0.00133895 -9.8041e-05 6.16267e-06 6.20529e-07 7.56449e-07 2.70122 0.0833297 -2.46694 0.0005 
520 1 0.00707985 -0.00485655 0.000497788 0 0 0 0.000143898 -0.00136553 0.000528194 1.74396e-06 -8.20544e-07 -6.92942e-07 2.98253 0.586866 6.2099 0.0005 
3183 1 0.0082593 -0.00416613 0.000497839 0 0 0 0.000639703 -0.000371965 -0.000111528 -2.67241e-06 1.67058e-07 -3.04803e-07 0.748346 1.21254 3.98457 0.0005 
2193 1 0.00985842 -0.00468888 0.000497865 0 0 0 0.00101448 0.0011081 0.000523589 2.15004e-06 -6.87314e-06 4.00223e-08 -2.69129 2.03017 10.1391 0.0005 
932 1 0.0111831 -0.00453938 0.000497781 0 0 0 -0.00125319 -0.000278568 -7.99098e-05 2.35345e-06 -3.34617e-06 1.79746e-06 0.722066 -2.51127 5.44979 0.0005 
3788 1 0.0124018 -0.0049128 0.000499771 0 0 0 0.000231537 0.00210271 -7.40053e-16 9.25574e-22 1.48886e-20 0 -4.20638 0.463179 -4.3534 0.0005 
1584 1 -0.0128342 -0.00358067 0.000498203 0 0 0 -0.000301936 -3.24857e-05 -0.000115909 -1.47039e-06 -9.66673e-07 -3.06788e-07 0.00953996 -0.641866 -0.0198807 0.0005 
2438 1 -0.0110221 -0.00392775 0.00049957 0 0 0 0.00273065 -0.000764043 0.000504675 -3.70524e-07 1.90542e-06 -1.96645e-06 1.60289 5.52167 6.23088 0.0005 
615 1 -0.0100946 -0.00339674 0.000499692 0 0 0 0.00312799 0.00221317 0.00113288 4.63575e-07 -1.23875e-06 -6.33699e-06 -20.7531 13.3373 -4.61321 0.0005 
403 1 -0.0092013 -0.00303853 0.000778965 0 0 0 -0.000801976 5.68353e-05 -0.00134999 -7.2568e-08 5.42416e-06 4.79071e-06 2.91496 -0.393862 -3.64239 0.0005 
1028 1 -0.0082537 -0.00318051 0.000498055 0 0 0 -0.00084175 0.000406758 -0.000217737 1.45384e-06 5.05127e-06 1.4468e-07 -0.630915 -2.03147 3.79538 0.0005 
631 1 -0.00751496 -0.00385385 0.000499765 0 0 0 -0.00111506 0.000119247 0.000611582 3.76132e-06 6.51269e-07 9.65207e-07 -0.0460673 -1.93248 -6.40202 0.0005 
2443 1 -0.00612643 -0.00361521 0.000497342 0 0 0 0.00154023 -0.00154324 0.000187246 -1.13192e-05 1.1233e-05 1.1595e-06 3.42597 3.03195 -14.478 0.0005 
2964 1 -0.00519335 -0.00397469 0.000498728 0 0 0 -0.00101902 0.000930519 0.000410207 3.69235e-06 -1.47369e-06 -1.16863e-06 -1.89196 -2.54842 2.00199 0.0005 
4727 1 -0.00488057 -0.0030678 0.000780436 0 0 0 0.000539226 0.00153041 0.000663862 -1.19171e-06 1.14686e-07 -1.50051e-06 5.32986 1.16964 -4.12153 0.0005 
4654 1 -0.00302523 -0.00326157 0.000497227 0 0 0 0.000603939 0.00099241 0.00018323 1.04805e-06 2.48376e-06 -1.02872e-06 -2.25653 1.2 -2.69727 0.0005 
3257 1 -0.00188706 -0.00320029 0.000497314 0 0 0 0.000373097 0.00099089 -3.5372e-05 3.20438e-07 7.61835e-07 6.68835e-07 -1.83669 0.508812 2.85543 0.0005 
2288 1 -0.00101479 -0.00387162 0.000496114 0 0 0 0.0011726 0.000320188 0.000324483 9.83868e-07 1.80504e-06 1.19952e-06 -0.577585 1.97453 1.86719 0.0005 
4267 1 -0.000342699 -0.00321026 0.000816568 0 0 0 0.000933396 0.000818356 -5.04687e-06 -2.72668e-06 4.13869e-06 3.09473e-07 0.468551 -0.12032 -0.185554 0.0005 
1813 1 0.000600214 -0.00324025 0.000495742 0 0 0 0.000554371 0.000762526 -0.000263022 -2.25088e-06 2.7025e-06 -1.38759e-06 -1.6143 0.868654 0.644589 0.0005 
4418 1 0.00157531 -0.00338842 0.000646454 0 0 0 0.000663482 0.000921275 0.000286416 -2.11427e-06 -4.1328e-06 2.44282e-07 1.90058 -1.96267 -0.49626 0.0005 
1354 1 0.00249904 -0.00304121 0.000498493 0 0 0 0.000722349 0.00117053 0.000204534 6.23449e-08 -4.32361e-06 -5.64125e-08 -2.38539 1.7029 0.856576 0.0005 
3578 1 0.0037236 -0.00323466 0.000497664 0 0 0 -0.00826724 0.00352626 -0.000453099 5.50375e-07 -4.65398e-06 5.88246e-08 -6.70835 -16.6095 40.7128 0.0005 
381 1 0.00589327 -0.0035581 0.000496514 0 0 0 -0.000124464 -0.000840474 0.000135013 3.24531e-06 1.04962e-06 3.31344e-07 1.66694 -0.820228 -6.06531 0.0005 
4324 1 0.00745066 -0.00376086 0.000917141 0 0 0 2.6117e-05 -0.00208591 -0.000326817 -2.37597e-06 -6.95797e-07 -4.20873e-07 0.303782 -2.00281 -0.428903 0.0005 
4344 1 0.0089729 -0.00346825 0.000497556 0 0 0 -6.30517e-05 0.000267242 -0.00028905 -2.71875e-06 3.22337e-06 6.58746e-08 -0.837583 -0.849803 -2.69115 0.0005 
1552 1 0.0112346 -0.00356116 0.000958856 0 0 0 0.000348202 -0.00137997 -0.000133927 5.40161e-07 -3.04205e-06 2.57693e-06 -3.88379 0.586266 4.15906 0.0005 