/*--------------------------------*- C++ -*----------------------------------*\
| =========                 |                                                 |
| \\      /  F ield         | OpenFOAM: The Open Source CFD Toolbox           |
|  \\    /   O peration     | Version:  2506                                  |
|   \\  /    A nd           | Website:  www.openfoam.com                      |
|    \\/     M anipulation  |                                                 |
\*---------------------------------------------------------------------------*/
FoamFile
{
    version     2.0;
    format      ascii;
    arch        "LSB;label=32;scalar=64";
    class       volScalarField;
    location    "0.09";
    object      p;
}
// * * * * * * * * * * * * * * * * * * * * * * * * * * * * * * * * * * * * * //

dimensions      [0 2 -2 0 0 0 0];

internalField   nonuniform List<scalar> 
1152
(
15.1067
15.6354
15.7987
16.2182
15.2716
15.7668
16.1959
16.5122
15.9368
16.1177
16.3808
16.5756
16.4189
16.6187
16.3379
16.6447
12.3731
13.1541
13.4536
13.666
12.7617
13.4631
13.7495
13.9162
13.4944
13.8576
14.1193
14.1259
13.9237
13.9315
14.0749
14.1041
12.1076
11.4822
11.7882
11.3856
11.303
11.3414
11.3967
11.4282
11.2777
11.5502
11.4006
11.3976
11.1401
11.4125
11.8953
11.4227
11.2825
7.85261
8.22846
8.29512
11.5578
9.11955
8.16121
8.06478
9.2008
8.46562
8.19125
8.024
8.16583
8.19712
8.21471
8.22353
3.89907
4.87106
4.89326
4.53612
5.49158
5.03358
4.86464
4.76164
5.25861
5.07092
4.89944
4.82375
4.38833
4.58848
4.70842
4.58923
2.99857
2.5505
1.90468
1.71468
2.33641
1.82157
1.60231
1.35459
1.82903
1.74732
1.60482
1.54378
1.29757
0.655679
1.66604
1.76926
1.02907
1.00199
0.986947
0.994095
1.01279
1.00437
0.998336
0.997
0.980676
0.991781
0.988333
0.994338
0.974168
1.00437
0.977243
0.981131
1.00097
0.998647
0.99568
0.994576
0.998601
0.995916
0.993475
0.992232
0.996649
0.993934
0.991923
0.990296
0.997573
0.992936
0.991292
0.989412
1.00454
1.00286
1.00212
1.00213
1.0038
1.00277
1.00192
1.00155
1.00284
1.00201
1.00059
1.00024
1.00365
1.00245
1.00018
0.999422
1.00296
1.00239
1.00195
1.00177
1.00245
1.00195
1.00134
1.00096
1.00207
1.00145
1.00057
1.0001
1.00221
1.00142
1.00026
0.999504
1.00311
1.00289
1.00264
1.00248
1.0028
1.00253
1.00222
1.00198
1.00265
1.00225
1.00178
1.00144
1.00268
1.00218
1.00157
1.00113
1.00289
1.00279
1.00267
1.00256
1.00268
1.00253
1.00235
1.0022
1.00257
1.00233
1.00206
1.00186
1.00254
1.00223
1.0019
1.00163
1.00267
1.00263
1.00257
1.0025
1.00253
1.00244
1.00234
1.00225
1.00243
1.0023
1.00216
1.00203
1.00239
1.00221
1.00204
1.00188
1.00245
1.00243
1.0024
1.00236
1.00235
1.0023
1.00225
1.0022
1.00227
1.0022
1.00212
1.00205
1.00222
1.00213
1.00203
1.00195
1.00222
1.00222
1.0022
1.00218
1.00215
1.00212
1.0021
1.00207
1.00209
1.00205
1.00201
1.00197
1.00205
1.002
1.00194
1.0019
1.00199
1.00199
1.00199
1.00198
1.00194
1.00193
1.00191
1.0019
1.00189
1.00187
1.00185
1.00183
1.00186
1.00183
1.0018
1.00178
1.00176
1.00176
1.00176
1.00176
1.00172
1.00172
1.00171
1.0017
1.00169
1.00168
1.00167
1.00166
1.00166
1.00165
1.00163
1.00162
1.00153
1.00153
1.00153
1.00153
1.0015
1.0015
1.0015
1.00149
1.00147
1.00147
1.00146
1.00146
1.00145
1.00145
1.00144
1.00143
1.00129
1.0013
1.0013
1.0013
1.00127
1.00127
1.00127
1.00127
1.00126
1.00125
1.00125
1.00125
1.00124
1.00124
1.00123
1.00123
1.00106
1.00106
1.00106
1.00106
1.00105
1.00105
1.00105
1.00105
1.00103
1.00103
1.00103
1.00103
1.00102
1.00102
1.00102
1.00102
1.00083
1.00083
1.00083
1.00083
1.00081
1.00082
1.00082
1.00082
1.00081
1.00081
1.00081
1.00081
1.0008
1.0008
1.0008
1.0008
1.00059
1.00059
1.00059
1.00059
1.00058
1.00058
1.00058
1.00058
1.00058
1.00058
1.00058
1.00058
1.00057
1.00057
1.00057
1.00057
1.00035
1.00035
1.00035
1.00036
1.00035
1.00035
1.00035
1.00035
1.00035
1.00035
1.00035
1.00035
1.00034
1.00034
1.00034
1.00034
1.00012
1.00012
1.00012
1.00012
1.00012
1.00012
1.00012
1.00012
1.00012
1.00012
1.00012
1.00012
1.00011
1.00011
1.00011
1.00011
16.4931
16.7399
16.5497
16.6704
16.5392
16.8923
16.7107
16.7228
16.2761
16.6151
16.6066
16.5198
15.9159
16.695
16.686
16.5259
14.401
14.0764
14.2542
13.9633
14.1748
14.0204
14.3691
14.0836
14.4698
14.1927
14.2985
14.2468
14.6403
14.0961
14.3456
14.1581
11.0836
11.1647
11.8085
11.9424
11.4926
11.4205
11.4679
11.6556
11.5847
11.841
11.6724
12.0109
11.984
11.7801
11.7668
11.7824
7.73061
7.66185
7.96665
8.54315
7.16331
7.88537
8.10433
8.43294
7.53386
7.57748
8.21597
8.5284
7.76481
8.60165
8.33776
8.68399
3.16229
4.16448
4.42677
4.78595
1.59738
3.74968
4.6411
4.95149
2.70223
4.09376
4.57508
4.96522
4.14919
4.25954
4.42012
5.1856
0.581402
1.11808
1.5395
1.35788
-2.88013
0.968314
1.42018
1.45333
0.627194
1.15364
1.57466
1.60161
1.05467
1.30575
1.6356
1.70375
1.01539
0.981922
0.981568
0.984819
1.30279
1.00454
0.978589
0.986326
1.02587
0.989717
0.987413
0.975672
0.983079
0.983177
0.978964
0.985249
1.00428
0.995099
0.990982
0.988959
1.01857
0.997231
0.990019
0.987859
1.00498
0.993434
0.988254
0.986707
0.997519
0.991388
0.987166
0.98597
1.00631
1.00329
1.00045
0.999316
1.01104
1.00419
1.00028
0.998815
1.00773
1.0032
0.999942
0.998236
1.00549
1.00245
0.999523
0.998322
1.00289
1.0015
1.00011
0.999181
1.00411
1.0016
0.999854
0.998824
1.00322
1.00131
0.999602
0.998537
1.00271
1.00105
0.999351
0.998365
1.00286
1.00216
1.00147
1.00099
1.00312
1.00212
1.00129
1.00077
1.00295
1.002
1.00114
1.00061
1.00286
1.00197
1.0011
1.00057
1.00257
1.00218
1.00179
1.00149
1.00262
1.00212
1.00167
1.00135
1.00259
1.00207
1.00158
1.00126
1.00255
1.00204
1.00153
1.0012
1.00237
1.00216
1.00195
1.00179
1.00237
1.00211
1.00187
1.00171
1.00236
1.00207
1.00182
1.00165
1.00235
1.00206
1.0018
1.00163
1.0022
1.00208
1.00197
1.00188
1.00218
1.00204
1.00192
1.00183
1.00217
1.00202
1.00188
1.00179
1.00217
1.00201
1.00186
1.00178
1.00202
1.00196
1.0019
1.00185
1.002
1.00193
1.00186
1.00182
1.002
1.00191
1.00184
1.0018
1.00199
1.0019
1.00183
1.00178
1.00184
1.0018
1.00177
1.00175
1.00182
1.00178
1.00175
1.00173
1.00181
1.00177
1.00173
1.00171
1.00181
1.00176
1.00172
1.0017
1.00164
1.00162
1.00161
1.0016
1.00163
1.00161
1.00159
1.00158
1.00162
1.0016
1.00158
1.00157
1.00162
1.00159
1.00157
1.00157
1.00144
1.00143
1.00142
1.00142
1.00143
1.00142
1.00141
1.00141
1.00142
1.00141
1.0014
1.0014
1.00142
1.00141
1.0014
1.0014
1.00123
1.00122
1.00122
1.00122
1.00122
1.00122
1.00121
1.00121
1.00122
1.00121
1.00121
1.00121
1.00121
1.00121
1.0012
1.00121
1.00101
1.00101
1.00101
1.00101
1.00101
1.001
1.001
1.00101
1.001
1.001
1.001
1.001
1.001
1.001
1.001
1.001
1.00079
1.00079
1.00079
1.00079
1.00079
1.00079
1.00079
1.00079
1.00078
1.00078
1.00078
1.00079
1.00078
1.00078
1.00078
1.00079
1.00057
1.00057
1.00057
1.00057
1.00056
1.00056
1.00057
1.00057
1.00056
1.00056
1.00056
1.00057
1.00056
1.00056
1.00056
1.00056
1.00034
1.00034
1.00034
1.00034
1.00034
1.00034
1.00034
1.00034
1.00034
1.00034
1.00034
1.00034
1.00034
1.00034
1.00034
1.00034
1.00011
1.00011
1.00011
1.00011
1.00011
1.00011
1.00011
1.00011
1.00011
1.00011
1.00011
1.00011
1.00011
1.00011
1.00011
1.00011
16.2101
16.2707
16.2205
16.0978
16.4928
16.5086
16.4653
16.5305
16.6422
16.7248
16.8259
16.533
16.6921
16.819
16.6636
16.6442
13.8939
13.9747
13.4016
13.1394
13.9754
13.8877
13.7603
13.8044
14.0509
14.102
14.0781
14.1341
14.273
14.3139
14.3494
14.3215
11.2382
10.7191
10.1674
9.50046
11.3399
11.1093
11.2029
10.7513
11.3352
11.0927
11.353
11.4349
11.5762
11.6785
11.8294
11.7867
7.99344
7.61046
7.25757
7.14968
8.11576
8.05432
7.78733
7.80391
8.44378
8.11307
8.16035
8.10111
8.37109
7.7758
8.31348
8.53126
4.73151
4.78126
5.13949
6.2443
4.77966
4.74411
4.62697
4.79223
4.73189
4.75564
4.84458
5.0893
4.61568
4.78697
4.83713
4.91575
1.66478
1.61762
1.8413
1.92393
1.41793
1.63253
1.47078
1.65097
1.48815
1.81559
1.7834
1.94499
1.50901
1.99091
1.80588
1.95985
0.995885
1.003
1.00546
1.01041
0.987061
0.987161
1.00347
0.995202
0.980471
0.990439
0.973572
0.989104
1.00475
0.963215
0.984152
0.972724
0.994131
0.994923
0.996548
0.998115
0.991491
0.990935
0.99134
0.990943
0.989178
0.988497
0.988127
0.987558
0.988746
0.98723
0.986959
0.986789
1.00228
1.00281
1.0033
1.0036
1.00076
1.00074
1.00138
1.00145
0.999589
0.999045
0.998369
0.99876
0.998926
0.998181
0.99763
0.997187
1.00161
1.00161
1.00171
1.00168
1.00056
1.00039
1.0005
1.00039
0.999593
0.999212
0.998906
0.998785
0.99896
0.998556
0.998272
0.998035
1.00238
1.0023
1.00228
1.00229
1.00175
1.00158
1.00154
1.00155
1.00117
1.00093
1.00074
1.00072
1.00088
1.00064
1.00047
1.00041
1.00247
1.0024
1.00236
1.00234
1.00205
1.00193
1.00187
1.00184
1.00168
1.00151
1.0014
1.00134
1.00145
1.0013
1.00119
1.00113
1.00244
1.00239
1.00235
1.00234
1.00217
1.00208
1.00203
1.00202
1.00193
1.00182
1.00175
1.00172
1.00178
1.00169
1.00163
1.0016
1.00232
1.00229
1.00227
1.00225
1.00215
1.00209
1.00205
1.00204
1.00199
1.00192
1.00188
1.00186
1.00189
1.00183
1.00179
1.00177
1.00216
1.00213
1.00212
1.00211
1.00204
1.002
1.00198
1.00197
1.00193
1.00189
1.00186
1.00185
1.00186
1.00183
1.0018
1.00179
1.00196
1.00195
1.00194
1.00193
1.00188
1.00186
1.00185
1.00184
1.00181
1.00178
1.00177
1.00176
1.00176
1.00174
1.00172
1.00172
1.00175
1.00174
1.00174
1.00173
1.00169
1.00168
1.00167
1.00167
1.00164
1.00163
1.00162
1.00162
1.00161
1.0016
1.00159
1.00158
1.00153
1.00152
1.00152
1.00152
1.00149
1.00148
1.00147
1.00147
1.00145
1.00144
1.00144
1.00144
1.00143
1.00142
1.00141
1.00141
1.0013
1.00129
1.00129
1.00129
1.00127
1.00126
1.00126
1.00126
1.00125
1.00124
1.00124
1.00124
1.00123
1.00122
1.00122
1.00122
1.00106
1.00106
1.00106
1.00106
1.00104
1.00104
1.00104
1.00104
1.00103
1.00103
1.00102
1.00102
1.00102
1.00101
1.00101
1.00101
1.00083
1.00083
1.00083
1.00083
1.00082
1.00081
1.00081
1.00081
1.0008
1.0008
1.0008
1.0008
1.0008
1.00079
1.00079
1.00079
1.00059
1.00059
1.00059
1.00059
1.00058
1.00058
1.00058
1.00058
1.00058
1.00058
1.00057
1.00057
1.00057
1.00057
1.00057
1.00057
1.00036
1.00036
1.00036
1.00036
1.00035
1.00035
1.00035
1.00035
1.00035
1.00035
1.00035
1.00035
1.00034
1.00034
1.00034
1.00034
1.00012
1.00012
1.00012
1.00012
1.00012
1.00012
1.00012
1.00012
1.00012
1.00012
1.00012
1.00012
1.00011
1.00011
1.00011
1.00011
)
;

boundaryField
{
    inlet
    {
        type            zeroGradient;
    }
    outlet
    {
        type            fixedValue;
        value           uniform 1;
    }
    wall
    {
        type            zeroGradient;
    }
    procBoundary3to1
    {
        type            processor;
        value           nonuniform List<scalar> 
192
(
15.4672
15.7979
15.5851
15.9293
12.7425
13.5165
13.1784
14.117
11.7271
11.6868
12.2852
11.4487
8.75313
8.43954
8.33048
7.85346
6.02778
5.37614
4.95262
4.72314
3.2202
1.78549
1.44024
1.42311
1.0099
0.978529
1.01444
1.0062
1.00275
1.00059
0.998392
0.997448
1.00462
1.00385
1.00457
1.00459
1.00347
1.00324
1.00328
1.00312
1.00347
1.00343
1.00337
1.0033
1.00314
1.00314
1.0031
1.00305
1.00285
1.00286
1.00284
1.00281
1.00258
1.00259
1.00258
1.00256
1.00231
1.00232
1.00232
1.00231
1.00206
1.00207
1.00207
1.00206
1.00181
1.00182
1.00182
1.00182
1.00156
1.00157
1.00157
1.00157
1.00132
1.00132
1.00133
1.00133
1.00108
1.00108
1.00108
1.00108
1.00084
1.00084
1.00084
1.00084
1.0006
1.0006
1.0006
1.0006
1.00036
1.00036
1.00036
1.00036
1.00012
1.00012
1.00012
1.00012
16.3279
16.3611
15.9972
15.9183
13.3208
13.3562
13.058
12.1074
10.8105
10.0682
8.23456
6.20201
8.10943
7.65948
6.17966
5.16892
4.96056
5.5679
7.19528
8.85988
1.51885
1.52692
1.49258
1.89365
0.999956
1.01342
1.03744
1.06398
0.997669
0.999399
1.00333
1.00704
1.00456
1.00568
1.00756
1.00914
1.00303
1.00334
1.00388
1.00421
1.00324
1.00332
1.00348
1.00361
1.00301
1.00303
1.00307
1.0031
1.00278
1.00278
1.00279
1.00279
1.00255
1.00254
1.00254
1.00253
1.0023
1.0023
1.0023
1.00229
1.00206
1.00206
1.00206
1.00205
1.00181
1.00181
1.00181
1.00181
1.00157
1.00157
1.00157
1.00157
1.00133
1.00133
1.00133
1.00133
1.00108
1.00108
1.00108
1.00108
1.00084
1.00084
1.00084
1.00084
1.0006
1.0006
1.0006
1.0006
1.00036
1.00036
1.00036
1.00036
1.00012
1.00012
1.00012
1.00012
)
;
    }
    procBoundary3to2
    {
        type            processor;
        value           nonuniform List<scalar> 
192
(
15.245
15.622
15.8946
16.2747
12.2277
13.0833
13.798
13.8933
13.7695
12.4758
11.5725
10.2411
10.6535
10.3362
9.34453
8.54739
6.32442
6.09797
5.81767
6.08459
2.04314
2.30506
2.14462
0.634985
1.08197
0.999711
0.999069
1.00761
1.00387
1.00067
0.997849
0.997635
1.00523
1.00439
1.00498
1.00615
1.00328
1.00288
1.00295
1.00326
1.00325
1.00306
1.00307
1.00319
1.00294
1.0028
1.00278
1.00281
1.00269
1.00258
1.00254
1.00253
1.00245
1.00237
1.00233
1.0023
1.00222
1.00216
1.00212
1.00209
1.00199
1.00194
1.00191
1.00188
1.00175
1.00172
1.00169
1.00167
1.00152
1.0015
1.00148
1.00146
1.00129
1.00127
1.00126
1.00124
1.00106
1.00104
1.00103
1.00102
1.00082
1.00081
1.00081
1.0008
1.00059
1.00058
1.00058
1.00057
1.00035
1.00035
1.00035
1.00034
1.00012
1.00012
1.00012
1.00011
16.5062
16.7343
16.5582
16.5642
13.7739
13.9999
14.1218
14.1237
10.8787
11.064
11.468
11.1516
7.73031
7.31676
7.04487
7.06149
4.35272
2.92358
2.5526
3.04985
0.73225
0.434768
-1.45545
0.841047
0.98308
1.02849
1.1442
0.99756
1.00019
1.00586
1.00698
0.998499
1.00698
1.00877
1.01001
1.00782
1.00364
1.00414
1.00435
1.00392
1.00337
1.00356
1.00364
1.00362
1.00288
1.00297
1.00301
1.00301
1.00255
1.00259
1.00261
1.00262
1.0023
1.00231
1.00232
1.00232
1.00208
1.00208
1.00208
1.00208
1.00187
1.00186
1.00186
1.00186
1.00166
1.00165
1.00165
1.00164
1.00145
1.00144
1.00144
1.00143
1.00123
1.00123
1.00122
1.00122
1.00102
1.00101
1.00101
1.00101
1.00079
1.00079
1.00079
1.00079
1.00057
1.00057
1.00056
1.00056
1.00034
1.00034
1.00034
1.00034
1.00011
1.00011
1.00011
1.00011
)
;
    }
}


// ************************************************************************* //
