/*--------------------------------*- C++ -*----------------------------------*\
| =========                 |                                                 |
| \\      /  F ield         | OpenFOAM: The Open Source CFD Toolbox           |
|  \\    /   O peration     | Version:  2506                                  |
|   \\  /    A nd           | Website:  www.openfoam.com                      |
|    \\/     M anipulation  |                                                 |
\*---------------------------------------------------------------------------*/
FoamFile
{
    version     2.0;
    format      ascii;
    arch        "LSB;label=32;scalar=64";
    class       surfaceScalarField;
    location    "0.09";
    object      phi;
}
// * * * * * * * * * * * * * * * * * * * * * * * * * * * * * * * * * * * * * //

dimensions      [0 3 -1 0 0 0 0];

oriented        oriented;

internalField   nonuniform List<scalar> 
3120
(
-3.5592e-08
-2.47961e-08
1.4562e-07
-5.52269e-09
-4.21232e-09
3.48836e-08
-8.25494e-09
-1.52096e-08
6.20454e-08
-4.5076e-09
3.48342e-08
2.28544e-10
-4.2338e-08
-5.32869e-08
1.28303e-07
-1.5104e-08
-1.50896e-08
3.85289e-08
-1.03508e-08
-7.86653e-09
4.29676e-08
-2.18604e-09
4.07346e-08
5.18414e-10
-3.42483e-09
-7.82944e-09
1.23706e-08
-1.25962e-08
-1.74364e-08
6.64201e-08
-9.54257e-09
1.48592e-09
4.24697e-08
-2.98117e-09
5.79635e-08
-1.22433e-08
-4.07133e-09
5.0017e-08
-3.72671e-09
3.43915e-09
2.83846e-08
-2.2264e-09
-1.14925e-08
7.86639e-08
-8.94509e-09
4.34857e-08
4.97533e-10
-5.43856e-09
-3.87986e-08
-2.22688e-08
2.71288e-08
-1.26395e-08
-7.65045e-09
2.34002e-08
-1.10823e-08
-1.43839e-08
4.7373e-08
-7.83677e-09
5.23462e-08
-1.12828e-08
-1.68068e-08
-1.46849e-08
1.45114e-07
-5.75667e-09
-1.55569e-08
3.53851e-08
-3.49626e-09
-7.76588e-09
3.40891e-08
-7.09634e-09
3.63259e-08
1.72001e-10
-1.16425e-08
-1.32177e-08
2.72018e-08
-9.21683e-09
-4.95199e-09
5.33895e-08
9.01455e-10
-2.54746e-09
2.71329e-08
1.05263e-09
4.59908e-08
4.72519e-09
-1.92419e-09
5.19962e-08
-1.50561e-08
-9.85063e-09
3.59161e-08
-4.55703e-09
-4.62322e-09
8.51708e-08
-1.42819e-08
3.87649e-08
5.02673e-09
-3.87649e-09
5.08424e-09
4.48186e-09
5.43858e-08
-4.47011e-09
1.83823e-09
3.53153e-08
8.84997e-09
6.00832e-09
4.04831e-08
-2.46784e-11
5.96732e-08
4.08127e-09
-1.26198e-08
-8.1422e-09
1.68007e-07
-1.29938e-09
-3.94098e-09
2.98439e-08
-1.57382e-10
-3.10082e-10
3.92655e-08
2.6463e-10
3.39641e-08
1.91512e-09
-6.01919e-09
5.9521e-10
2.81592e-08
1.37238e-09
1.40364e-09
4.06533e-08
9.54328e-10
-6.68965e-09
3.39306e-08
-1.12337e-09
4.56229e-08
2.7102e-09
-6.03073e-09
5.04909e-08
-1.717e-09
-8.42965e-09
3.72537e-08
2.46494e-09
8.29652e-09
6.2202e-08
-4.47059e-10
6.1612e-08
-1.26076e-08
-3.0664e-09
1.55316e-08
-1.1316e-08
1.1349e-08
-5.47904e-09
-1.17976e-08
7.45626e-08
-1.67592e-09
3.82217e-10
3.81524e-08
3.7269e-09
4.34861e-08
6.5715e-09
2.98461e-08
3.06659e-08
7.0238e-08
7.59067e-09
6.38541e-09
3.39164e-08
1.02245e-09
-1.07745e-09
4.72934e-08
-1.18986e-10
4.00667e-08
-1.23432e-09
9.01147e-09
1.8385e-08
3.38514e-08
3.9828e-09
2.16563e-09
4.99017e-08
3.01869e-09
-2.1598e-09
3.5977e-08
-6.74064e-09
6.25194e-08
-7.25613e-09
-7.8067e-10
6.51087e-08
3.23554e-09
-7.98468e-10
3.06649e-08
8.77214e-09
-3.14274e-10
5.59135e-08
3.64455e-09
6.42875e-08
-6.84013e-09
-2.89029e-09
-2.49918e-08
-1.552e-08
1.16704e-07
-3.46025e-10
-5.36085e-09
6.77489e-08
1.82034e-09
1.2563e-10
3.68978e-08
-2.72328e-09
5.31965e-08
-2.51521e-09
6.72346e-09
2.08484e-09
5.30332e-08
3.03313e-09
-1.26867e-09
3.35145e-08
1.56912e-09
-8.55558e-10
4.97386e-08
-1.9235e-09
4.1399e-08
-5.62939e-10
2.93189e-09
1.19972e-08
3.15957e-08
2.56618e-09
7.26722e-09
4.17315e-08
1.02355e-09
1.51207e-09
3.5152e-08
5.28034e-09
5.5115e-08
1.22414e-09
-3.0423e-09
8.0695e-08
1.84921e-08
-1.54885e-09
2.57867e-08
1.0652e-08
1.04484e-09
5.05443e-08
4.28753e-09
7.58852e-08
-4.26209e-09
-1.01044e-09
1.37022e-08
2.38146e-08
6.46877e-08
1.24664e-08
1.11029e-08
4.84344e-08
4.778e-09
4.64449e-09
3.1943e-08
8.01891e-09
4.20561e-08
1.46126e-09
1.08653e-08
1.00903e-08
5.57753e-08
2.90951e-09
9.42993e-10
5.16301e-08
3.765e-09
7.07952e-12
5.35205e-08
-3.15304e-09
5.70016e-08
-6.65727e-10
1.18469e-09
1.87074e-08
2.74765e-08
1.82757e-09
7.11884e-09
3.49128e-08
1.07828e-09
-1.68372e-09
3.75921e-08
-7.79864e-09
5.95907e-08
1.24813e-09
1.85287e-08
2.28086e-08
4.07714e-08
-1.89362e-08
7.31895e-08
-2.81901e-09
-4.88125e-09
3.03124e-08
4.49316e-09
4.33782e-08
1.01734e-08
9.65361e-09
2.80896e-09
2.74882e-09
6.48585e-08
1.88119e-09
5.23922e-10
4.81577e-08
1.99907e-11
-3.12031e-10
4.19322e-08
-5.1237e-11
4.42506e-08
3.48538e-11
1.98231e-09
3.74858e-09
5.3185e-08
1.8569e-09
2.41116e-09
4.98683e-08
1.23315e-09
1.84324e-09
5.1989e-08
9.82927e-10
5.39788e-08
3.2218e-09
9.21992e-10
1.35418e-09
3.10896e-08
1.06496e-09
-1.62629e-09
3.88073e-08
-6.06867e-10
1.46908e-09
3.96381e-08
2.82967e-09
5.42072e-08
2.92994e-09
-5.64192e-09
3.80503e-08
-2.72684e-10
9.17345e-09
4.93423e-08
7.40559e-09
4.40374e-10
4.04556e-08
5.90199e-11
4.70788e-08
7.47868e-10
-1.17833e-09
1.75761e-09
9.16299e-09
7.19793e-08
7.56461e-09
1.18889e-08
3.99361e-08
5.03974e-09
8.37091e-09
4.76312e-08
7.46745e-09
4.82222e-08
3.33992e-09
4.68218e-09
4.95602e-09
5.8536e-08
5.17446e-09
8.29451e-09
5.29704e-08
3.3096e-09
6.26331e-09
5.59613e-08
8.58223e-09
5.35745e-08
2.599e-09
7.69926e-09
1.71645e-09
3.28787e-08
5.43703e-09
5.807e-09
4.35572e-08
4.7116e-09
4.86557e-09
4.17613e-08
8.46892e-09
5.46336e-08
4.39839e-09
1.09868e-08
3.36887e-08
-4.28967e-10
5.42502e-09
5.79191e-08
2.7921e-09
7.30662e-09
3.87115e-08
4.72817e-09
5.32051e-08
3.76708e-09
5.88214e-09
1.10784e-08
1.95621e-09
6.01545e-08
2.54222e-09
-2.76486e-09
5.0811e-08
-1.03501e-09
8.37289e-10
5.27464e-08
9.04169e-10
5.21136e-08
-1.95671e-09
1.01541e-09
4.41738e-09
5.42819e-08
-1.19168e-10
-1.56372e-09
5.29037e-08
1.20943e-10
2.27935e-09
5.4279e-08
6.36926e-10
5.34288e-08
5.33908e-10
8.6579e-10
-5.06457e-09
4.52249e-08
4.96014e-10
-6.0018e-09
4.83651e-08
-2.83053e-09
-6.25551e-10
4.79926e-08
5.19375e-10
5.23744e-08
-4.53673e-10
-3.45592e-10
4.58765e-08
-1.54335e-08
3.71858e-09
5.30768e-08
-5.22358e-09
-2.50535e-09
4.74468e-08
-3.13696e-09
5.22243e-08
1.3704e-09
-2.37573e-09
4.36815e-09
1.86081e-09
5.58788e-08
1.49596e-09
7.33057e-10
5.34782e-08
1.6457e-10
1.57372e-09
5.37311e-08
1.67219e-09
5.33683e-08
-7.76903e-10
8.00679e-10
2.28536e-09
5.34505e-08
3.30654e-10
7.28976e-10
5.33777e-08
6.35628e-11
2.44631e-09
5.36735e-08
2.02501e-09
5.34801e-08
-3.40583e-10
1.07488e-09
-2.16029e-09
5.05896e-08
6.33884e-10
-1.95016e-09
5.14852e-08
-6.52359e-10
4.3433e-10
5.12908e-08
1.55845e-09
5.25045e-08
-3.15731e-10
9.00688e-10
5.12226e-08
-7.34379e-09
2.13163e-09
5.30573e-08
-3.16158e-09
1.09972e-10
5.13377e-08
-1.43521e-09
5.25111e-08
1.4257e-09
-4.41223e-11
1.51906e-09
5.96212e-10
5.48672e-08
5.74824e-10
3.32861e-10
5.42737e-08
-3.40522e-11
6.32828e-10
5.41992e-08
7.22665e-10
5.40038e-08
-5.67076e-10
4.59604e-10
3.13473e-10
5.3898e-08
9.56054e-11
1.25615e-10
5.39488e-08
-2.52576e-10
6.59727e-10
5.39947e-08
6.53858e-10
5.39229e-08
-6.26531e-10
6.43701e-10
-1.63783e-09
5.30085e-08
3.41482e-10
-1.31335e-09
5.32264e-08
-3.17403e-10
-4.68529e-10
5.30779e-08
4.17204e-11
5.33104e-08
-5.11089e-10
7.58279e-10
5.33726e-08
-3.60434e-09
8.68914e-10
5.37098e-08
-2.07656e-09
-3.16846e-11
5.31005e-08
-1.33089e-09
5.3209e-08
-2.63359e-10
-4.24497e-10
7.0437e-10
1.93604e-10
5.47435e-08
3.41433e-10
2.02206e-10
5.45605e-08
3.25281e-11
3.16945e-10
5.44526e-08
4.62239e-10
5.43271e-08
-2.99352e-10
4.01898e-10
-9.85487e-11
5.43617e-08
1.9564e-10
4.27355e-12
5.43529e-08
-4.42371e-11
2.56376e-10
5.4295e-08
4.63296e-10
5.42134e-08
-3.35823e-10
5.68391e-10
-9.77379e-10
5.40927e-08
4.27789e-10
-6.9976e-10
5.40709e-08
1.22246e-10
-2.83094e-10
5.39229e-08
1.29051e-10
5.38589e-08
-9.19081e-11
7.48283e-10
5.42611e-08
-1.82115e-09
7.65494e-10
5.41946e-08
-1.20185e-09
4.34994e-10
5.38747e-08
-7.26978e-10
5.36936e-08
-1.05607e-10
1.85054e-10
4.3771e-10
4.69951e-11
5.48201e-08
2.68909e-10
8.25535e-11
5.47319e-08
9.38893e-11
1.47492e-10
5.46362e-08
2.3915e-10
5.45308e-08
-8.63014e-11
3.8613e-10
-1.61542e-10
5.46746e-08
2.58808e-10
-6.19e-11
5.46246e-08
9.16171e-11
7.09429e-11
5.45387e-08
2.07707e-10
5.44355e-08
-9.90731e-11
4.79237e-10
-5.54912e-10
5.45851e-08
3.85425e-10
-4.00686e-10
5.45035e-08
2.23013e-10
-2.09225e-10
5.43654e-08
6.35948e-13
5.42215e-08
6.76272e-11
6.0609e-10
5.46382e-08
-9.12696e-10
5.64587e-10
5.45064e-08
-6.71125e-10
3.94534e-10
5.42858e-08
-4.50444e-10
5.40596e-08
-1.71368e-10
2.00425e-10
3.25185e-10
-1.10627e-11
5.49145e-08
2.35573e-10
2.35259e-11
5.48498e-08
1.32517e-10
6.74474e-11
5.47647e-08
1.25433e-10
5.46594e-08
3.31752e-11
3.31439e-10
-1.31704e-10
5.48562e-08
2.56338e-10
-7.0037e-11
5.47933e-08
1.54774e-10
5.67183e-12
5.4702e-08
9.37684e-11
5.4586e-08
3.60195e-11
3.92167e-10
-3.11837e-10
5.48094e-08
3.33965e-10
-2.31314e-10
5.47229e-08
2.40343e-10
-1.33505e-10
5.45982e-08
-2.19627e-11
5.44419e-08
1.35776e-10
4.6747e-10
5.47966e-08
-4.67562e-10
4.33179e-10
5.46764e-08
-3.67155e-10
3.44093e-10
5.45027e-08
-2.615e-10
5.4288e-08
-1.27389e-10
2.21074e-10
2.51628e-10
-2.55605e-11
5.49875e-08
1.99684e-10
-1.35027e-12
5.49314e-08
1.37161e-10
2.82401e-11
5.48525e-08
6.42675e-11
5.47455e-08
7.48932e-11
2.67752e-10
-9.20691e-11
5.49564e-08
2.21567e-10
-5.71094e-11
5.48953e-08
1.59328e-10
-1.44343e-11
5.4807e-08
3.59506e-11
5.46868e-08
8.69945e-11
3.02949e-10
-1.76939e-10
5.49163e-08
2.6575e-10
-1.36191e-10
5.48392e-08
2.08783e-10
-8.63163e-11
5.47271e-08
-3.13477e-11
5.45763e-08
1.41792e-10
3.43236e-10
5.48675e-08
-2.46431e-10
3.19287e-10
5.47683e-08
-2.04199e-10
2.67432e-10
5.46232e-08
-1.55128e-10
5.4428e-08
-9.16159e-11
1.8769e-10
1.93503e-10
-2.41749e-11
5.50357e-08
1.61533e-10
-8.79973e-12
5.49857e-08
1.22204e-10
9.51931e-12
5.49114e-08
3.07913e-11
5.48038e-08
8.20549e-11
2.06303e-10
-6.04267e-11
5.50122e-08
1.77411e-10
-4.14021e-11
5.49568e-08
1.38291e-10
-1.78374e-11
5.48735e-08
8.5237e-12
5.47541e-08
9.32958e-11
2.25587e-10
-1.01408e-10
5.497e-08
2.01758e-10
-8.1741e-11
5.49034e-08
1.6537e-10
-5.65207e-11
5.48021e-08
-2.94512e-11
5.46585e-08
1.21234e-10
2.46329e-10
5.4901e-08
-1.33355e-10
2.29578e-10
5.48194e-08
-1.16152e-10
1.96968e-10
5.46933e-08
-9.41543e-11
5.45135e-08
-6.41326e-11
1.46087e-10
1.46167e-10
-1.87174e-11
5.50652e-08
1.26099e-10
-9.67524e-12
5.50207e-08
1.00792e-10
1.25526e-12
5.49503e-08
1.33671e-11
5.48436e-08
7.37769e-11
1.54693e-10
-3.87416e-11
5.50436e-08
1.36247e-10
-2.88134e-11
5.49944e-08
1.11174e-10
-1.62535e-11
5.49162e-08
-2.02145e-12
5.4799e-08
8.17547e-11
1.64999e-10
-5.91534e-11
5.4998e-08
1.49261e-10
-5.00693e-11
5.49404e-08
1.25453e-10
-3.77847e-11
5.48475e-08
-2.39374e-11
5.47099e-08
9.59129e-11
1.74941e-10
5.49179e-08
-7.41079e-11
1.63102e-10
5.48489e-08
-6.78092e-11
1.41501e-10
5.47356e-08
-5.85492e-11
5.45667e-08
-4.48866e-11
1.09085e-10
1.08728e-10
-1.40498e-11
5.50829e-08
9.5928e-11
-8.69046e-12
5.5043e-08
7.94561e-11
-2.3194e-12
5.4976e-08
4.55139e-12
5.48708e-08
6.09634e-11
1.13977e-10
-2.49788e-11
5.50613e-08
1.02019e-10
-1.98617e-11
5.50175e-08
8.55346e-11
-1.32927e-11
5.49436e-08
-5.93971e-12
5.4829e-08
6.59969e-11
1.19353e-10
-3.52905e-11
5.50131e-08
1.08856e-10
-3.13459e-11
5.49623e-08
9.30233e-11
-2.56253e-11
5.48756e-08
-1.89827e-11
5.47428e-08
7.31495e-11
1.23829e-10
5.49268e-08
-4.23333e-11
1.15483e-10
5.48666e-08
-4.06757e-11
1.00963e-10
5.47618e-08
-3.73138e-11
5.46002e-08
-3.13514e-11
7.97737e-11
7.97029e-11
-1.03384e-11
5.50931e-08
7.14845e-11
-7.17571e-12
5.50571e-08
6.05799e-11
-3.49697e-12
5.4993e-08
3.78421e-13
5.48895e-08
4.79622e-11
8.28454e-11
-1.62986e-11
5.50713e-08
7.50476e-11
-1.3698e-11
5.50318e-08
6.40723e-11
-1.03303e-11
5.49614e-08
-6.60241e-12
5.48492e-08
5.08291e-11
8.56022e-11
-2.15274e-11
5.50215e-08
7.85688e-11
-2.0015e-11
5.49757e-08
6.79359e-11
-1.75463e-11
5.48934e-08
-1.45267e-11
5.47642e-08
5.44302e-11
8.74027e-11
5.49318e-08
-2.48014e-11
8.15577e-11
5.48775e-08
-2.50033e-11
7.17314e-11
5.47783e-08
-2.42633e-11
5.46216e-08
-2.18764e-11
5.76124e-11
5.75808e-11
-7.30563e-12
5.50991e-08
5.22026e-11
-5.54503e-12
5.5066e-08
4.49097e-11
-3.47883e-12
5.50042e-08
-1.32229e-12
5.49023e-08
3.62041e-11
5.93366e-11
-1.06115e-11
5.50771e-08
5.42116e-11
-9.36962e-12
5.50407e-08
4.68562e-11
-7.71695e-12
5.49729e-08
-5.88362e-12
5.48627e-08
3.78215e-11
6.06732e-11
-1.32803e-11
5.50262e-08
5.59583e-11
-1.28985e-11
5.4984e-08
4.87957e-11
-1.20016e-11
5.49049e-08
-1.0762e-11
5.47782e-08
3.96018e-11
6.12119e-11
5.49347e-08
-1.47757e-11
5.7153e-11
5.48843e-08
-1.56048e-11
5.05018e-11
5.47889e-08
-1.59277e-11
5.46355e-08
-1.51691e-11
4.10145e-11
4.07147e-11
-4.72245e-12
5.51029e-08
3.70847e-11
-3.93207e-12
5.50718e-08
3.21825e-11
-2.87699e-12
5.50116e-08
-1.73947e-12
5.49109e-08
2.62275e-11
4.15083e-11
-6.67792e-12
5.50806e-08
3.81065e-11
-6.2166e-12
5.50464e-08
3.31956e-11
-5.49678e-12
5.49805e-08
-4.66045e-12
5.48717e-08
2.70836e-11
4.20282e-11
-8.0946e-12
5.5029e-08
3.88838e-11
-8.22499e-12
5.49892e-08
3.41073e-11
-8.06055e-12
5.49122e-08
-7.66537e-12
5.47873e-08
2.79205e-11
4.19856e-11
5.49363e-08
-8.79346e-12
3.92243e-11
5.48886e-08
-9.72575e-12
3.4782e-11
5.47956e-08
-1.03793e-11
5.46444e-08
-1.03159e-11
2.84649e-11
2.74262e-11
-2.74691e-12
5.51055e-08
2.49891e-11
-2.54744e-12
5.50755e-08
2.17739e-11
-2.1069e-12
5.50164e-08
-1.57544e-12
5.49165e-08
1.78488e-11
2.76312e-11
-3.96085e-12
5.50828e-08
2.54124e-11
-3.92696e-12
5.50499e-08
2.2242e-11
-3.69875e-12
5.49852e-08
-3.37288e-12
5.48775e-08
1.82591e-11
2.77036e-11
-4.75668e-12
5.50307e-08
2.56723e-11
-5.07597e-12
5.49924e-08
2.26055e-11
-5.20941e-12
5.49168e-08
-5.17948e-12
5.47931e-08
1.8614e-11
2.74261e-11
5.49373e-08
-5.11152e-12
2.56448e-11
5.48912e-08
-5.91945e-12
2.27996e-11
5.47998e-08
-6.55937e-12
5.46499e-08
-6.73572e-12
1.87559e-11
1.63365e-11
-1.75601e-12
5.51072e-08
1.48886e-11
-1.77567e-12
5.50778e-08
1.29964e-11
-1.63141e-12
5.50192e-08
-1.41448e-12
5.49198e-08
1.06907e-11
1.63205e-11
-2.42172e-12
5.50841e-08
1.50208e-11
-2.53361e-12
5.5052e-08
1.31899e-11
-2.50951e-12
5.49879e-08
-2.4044e-12
5.48807e-08
1.08745e-11
1.6235e-11
-2.82159e-12
5.50316e-08
1.50677e-11
-3.1264e-12
5.49941e-08
1.33121e-11
-3.30578e-12
5.49193e-08
-3.37626e-12
5.47963e-08
1.10255e-11
1.59699e-11
5.49377e-08
-2.97253e-12
1.49525e-11
5.48926e-08
-3.53202e-12
1.33294e-11
5.48021e-08
-3.99241e-12
5.4653e-08
-4.17952e-12
1.10165e-11
6.85879e-12
-2.51216e-12
6.27103e-12
-2.51851e-12
5.48838e-12
-2.43981e-12
-2.30424e-12
4.53279e-12
6.85547e-12
-2.66796e-12
6.34342e-12
-2.72856e-12
5.61091e-12
-2.70793e-12
-2.62351e-12
4.676e-12
6.81407e-12
-2.66121e-12
6.38005e-12
-2.80427e-12
5.70424e-12
-2.86923e-12
-2.85512e-12
4.80022e-12
6.70864e-12
-2.49976e-12
6.36147e-12
-2.74305e-12
5.76126e-12
-2.92478e-12
-2.96146e-12
4.8723e-12
-1.13146e-08
-1.08917e-09
6.60281e-08
8.84268e-09
-2.01983e-09
3.13248e-08
-2.30988e-09
-1.19388e-08
5.80094e-08
-1.23504e-09
3.37849e-08
-1.67986e-09
-4.67288e-09
1.88661e-08
5.29981e-08
4.56925e-09
1.15433e-08
3.72576e-08
-1.90943e-10
7.90549e-09
3.6446e-08
1.45538e-08
2.46386e-08
-1.0215e-09
-1.44225e-08
3.57868e-08
7.95008e-08
2.31131e-10
-2.909e-09
6.75515e-08
2.4364e-09
-4.79794e-09
6.88102e-08
4.34369e-10
6.66273e-08
-3.94072e-09
-9.21321e-09
1.32461e-07
1.63564e-10
6.21799e-08
4.13823e-09
5.51582e-08
5.49006e-08
-1.36494e-09
5.27301e-09
2.15788e-09
3.20333e-08
-6.97962e-10
4.67904e-11
3.26919e-08
1.06769e-08
-4.85225e-09
3.72048e-08
-5.80461e-09
6.08499e-08
-5.55676e-09
4.39539e-09
-1.47309e-08
6.29258e-08
-3.10105e-09
-6.93217e-09
5.1733e-08
3.03774e-09
3.91435e-09
2.15406e-08
-1.23062e-08
3.57804e-08
-1.60255e-09
7.64335e-09
-1.30021e-08
6.138e-08
-1.22146e-09
5.4972e-09
6.39869e-08
1.28016e-09
-2.26633e-09
7.24893e-08
6.53128e-09
5.08407e-08
-1.77084e-09
1.84923e-08
9.47136e-08
-3.34391e-09
8.80787e-08
3.96682e-09
4.56088e-08
6.82638e-08
-1.35172e-09
-1.59295e-09
-1.08906e-08
3.70767e-08
-6.82635e-09
-9.85203e-09
5.02423e-08
2.25981e-09
3.74628e-09
2.39253e-08
9.71348e-10
3.55332e-08
1.39976e-08
1.67755e-09
-6.27492e-09
4.99155e-08
4.06598e-10
-2.14543e-08
6.46062e-08
-2.03622e-09
-1.15019e-08
3.92316e-08
-1.42286e-08
4.79905e-08
9.53571e-10
-3.67634e-09
-1.44675e-08
7.07894e-08
3.33344e-09
-1.00924e-08
4.56153e-08
-1.46774e-09
-6.77512e-09
7.25636e-08
8.98218e-09
2.37618e-08
2.40039e-09
2.17734e-09
6.99052e-08
-2.64322e-10
8.3141e-08
-2.0764e-10
3.97096e-08
7.71747e-08
7.88429e-10
3.14396e-10
2.1509e-09
3.64915e-08
-4.80549e-09
-6.85048e-09
7.09848e-08
-3.99257e-09
-3.65838e-09
3.04153e-08
3.66725e-09
1.98988e-08
1.13435e-09
-9.47135e-09
-9.63057e-09
7.20761e-08
-3.29775e-09
4.31459e-09
4.72676e-08
-4.4541e-09
-5.64662e-09
4.23762e-08
-4.24006e-09
4.61042e-08
5.33952e-09
-1.82251e-09
-7.76806e-09
6.42035e-08
-8.27689e-09
-2.18141e-08
7.81983e-08
-4.14024e-09
-6.46729e-09
6.92477e-08
-7.87444e-09
2.26199e-08
6.36025e-10
-9.47592e-09
6.56033e-08
7.25229e-10
5.12076e-08
-5.30719e-09
4.16002e-08
6.26775e-08
1.07798e-09
-2.36394e-08
2.78563e-08
6.42785e-08
-7.69077e-09
1.45605e-08
5.11277e-08
-3.9449e-09
-3.33423e-09
3.42912e-08
-6.01724e-09
1.59706e-08
1.7385e-09
-2.42194e-08
-1.48903e-08
1.61814e-07
-8.98503e-09
-9.81997e-09
5.64137e-08
-4.7837e-09
2.50114e-09
3.23395e-08
-2.0082e-09
3.47711e-08
2.54039e-09
-1.81947e-08
-2.52707e-09
6.8875e-08
-1.12702e-08
-7.16956e-09
6.86234e-08
-4.82974e-09
3.9938e-09
6.13146e-08
-7.57567e-09
2.2902e-08
4.55643e-10
1.11983e-09
4.51119e-08
-1.18738e-09
4.63018e-08
-7.72286e-09
5.27442e-08
4.69023e-08
1.05383e-09
-1.82923e-08
1.21737e-07
4.65086e-09
-5.75641e-09
9.02543e-09
2.67474e-08
1.19062e-09
3.01449e-09
2.88228e-08
-4.44654e-10
2.75648e-08
2.14487e-10
-6.30375e-08
-7.42006e-08
4.75144e-07
-9.2116e-09
-3.41024e-09
1.50234e-08
-4.16934e-10
-3.57577e-09
3.01351e-08
-2.43664e-09
3.84334e-08
-2.08733e-09
-9.28155e-09
-1.75939e-08
-8.29109e-09
-5.65328e-09
-3.09071e-09
6.46756e-08
-1.18722e-09
-2.99002e-09
5.62628e-08
-3.38351e-09
2.46578e-08
-1.99623e-09
-2.44508e-09
2.61299e-08
-6.76142e-09
4.75522e-08
-2.87736e-09
4.61774e-08
4.39178e-08
-2.83234e-09
3.62802e-09
-5.68855e-08
5.51834e-08
8.15999e-10
-3.0557e-09
4.00209e-08
6.90557e-10
5.19282e-10
2.8488e-08
8.27597e-10
2.84745e-08
-2.98914e-10
5.47725e-08
8.97385e-08
2.26435e-07
2.7009e-09
5.60061e-09
5.84385e-08
3.23208e-10
-2.4208e-09
3.5453e-08
4.1458e-09
3.31403e-08
2.29817e-09
2.05631e-09
1.47245e-08
9.31063e-08
-1.44738e-09
7.01393e-09
6.67662e-08
-3.16851e-10
8.10269e-10
5.19011e-08
-7.24339e-10
3.06934e-08
-1.4822e-09
8.09497e-10
4.50374e-08
-2.5632e-09
5.41146e-08
-2.67797e-09
4.87113e-08
3.96638e-08
-4.41711e-10
1.27435e-08
-6.57331e-09
4.90499e-08
5.33316e-09
1.40469e-10
5.00829e-08
2.99124e-09
3.39775e-09
3.21603e-08
3.15824e-09
3.13674e-08
7.06814e-10
1.92626e-08
2.8195e-08
1.65259e-07
6.30905e-09
5.95811e-09
6.55746e-08
2.93958e-09
3.92859e-09
3.82917e-08
3.70978e-09
3.50933e-08
4.34417e-10
4.00245e-09
1.51695e-08
1.02045e-07
3.55235e-09
3.62007e-09
6.95544e-08
2.10464e-09
4.11696e-09
5.31605e-08
2.28382e-09
3.4865e-08
-6.41264e-10
4.77916e-09
5.95548e-08
2.74313e-09
5.97706e-08
1.11729e-09
5.44539e-08
4.36975e-08
-6.32665e-10
6.0148e-09
-2.74745e-08
5.52189e-08
6.12417e-09
-6.40526e-09
5.11552e-08
-6.38808e-10
-3.31173e-09
3.9098e-08
3.07412e-09
3.03671e-08
-1.34285e-09
1.8794e-08
1.21716e-08
9.79517e-08
1.17965e-08
3.04104e-09
6.31259e-08
2.00527e-09
-1.63178e-09
4.64032e-08
4.00466e-09
3.59193e-08
2.48331e-10
1.08337e-08
1.96681e-08
8.96741e-08
7.36689e-09
6.3934e-09
6.96686e-08
2.85727e-09
1.36148e-09
5.46769e-08
7.38012e-10
4.00768e-08
9.1199e-10
7.1921e-09
7.88781e-08
3.99503e-09
6.9361e-08
1.58379e-09
5.82264e-08
4.47679e-08
1.25131e-09
4.11815e-09
-1.22026e-08
5.71234e-08
4.18337e-09
-4.217e-09
5.21456e-08
1.14393e-09
-1.73021e-09
4.24323e-08
1.85528e-09
3.15497e-08
-4.68854e-10
8.97465e-09
3.04001e-10
7.52626e-08
6.61317e-09
-1.92833e-10
6.14631e-08
2.1969e-09
-2.81421e-10
4.9371e-08
2.50657e-09
3.749e-08
-2.54968e-11
6.93597e-09
5.76084e-09
8.00373e-08
5.72384e-09
2.53439e-09
6.81534e-08
2.63785e-09
1.52831e-09
5.59531e-08
2.16707e-09
4.2822e-08
2.32108e-10
5.75552e-09
8.22589e-08
4.52392e-09
7.31268e-08
2.19455e-09
6.20839e-08
4.88485e-08
2.81097e-10
2.16378e-09
-5.15511e-09
5.76088e-08
1.9843e-09
-2.43889e-09
5.26875e-08
6.79064e-10
-1.20842e-09
4.36149e-08
2.00766e-10
3.17447e-08
1.93785e-11
3.76652e-09
-1.45404e-09
6.85235e-08
2.87636e-09
-9.53104e-10
6.08674e-08
9.87402e-10
-5.27852e-10
5.05797e-08
5.21555e-10
3.80671e-08
8.90864e-11
3.62273e-09
5.91158e-10
7.61056e-08
2.80869e-09
1.91821e-11
6.7995e-08
1.15762e-09
-1.5511e-10
5.72314e-08
2.38627e-10
4.41197e-08
1.42725e-10
3.20858e-09
8.16265e-08
2.36854e-09
7.39859e-08
9.90971e-10
6.33062e-08
4.99305e-08
1.47751e-10
1.45165e-09
-2.3709e-09
5.7618e-08
1.37822e-09
-1.3596e-09
5.29188e-08
7.53611e-10
-6.79914e-10
4.41924e-08
9.21098e-11
3.21555e-08
1.44747e-10
2.05023e-09
-1.25163e-09
6.62725e-08
1.76493e-09
-7.30488e-10
6.05235e-08
8.98702e-10
-3.04781e-10
5.10711e-08
3.11344e-10
3.86019e-08
1.44336e-10
2.18597e-09
-1.36063e-10
7.39861e-08
1.83271e-09
-5.84871e-11
6.76761e-08
9.68809e-10
5.85555e-11
5.7732e-08
3.70794e-10
4.48743e-08
1.54746e-10
2.04716e-09
8.07068e-08
1.69006e-09
7.42844e-08
9.04471e-10
6.41502e-08
5.10583e-08
1.47533e-10
9.25675e-10
-1.1299e-09
5.76022e-08
8.44521e-10
-7.25675e-10
5.30545e-08
5.14733e-10
-3.97155e-10
4.44687e-08
-4.89496e-11
3.23793e-08
1.68057e-10
1.16253e-09
-7.86088e-10
6.55021e-08
1.00895e-09
-4.79851e-10
6.04312e-08
5.71998e-10
-2.28229e-10
5.13394e-08
5.45272e-11
3.89113e-08
1.58754e-10
1.25898e-09
-2.78498e-10
7.30292e-08
1.06781e-09
-1.65309e-10
6.75525e-08
6.0543e-10
-7.21743e-11
5.80383e-08
7.42952e-11
4.53063e-08
1.53609e-10
1.21016e-09
8.00288e-08
1.01036e-09
7.43188e-08
5.69583e-10
6.45186e-08
5.15574e-08
1.44835e-10
6.10157e-10
-5.55931e-10
5.75866e-08
5.51508e-10
-3.82025e-10
5.3128e-08
3.6866e-10
-2.20959e-10
4.46109e-08
-4.94093e-11
3.25183e-08
1.51131e-10
7.06122e-10
-4.37709e-10
6.52078e-08
6.22436e-10
-2.77728e-10
6.04105e-08
3.91109e-10
-1.33973e-10
5.14839e-08
1.28219e-11
3.90975e-08
1.42348e-10
7.49869e-10
-2.12396e-10
7.25958e-08
6.5349e-10
-1.25056e-10
6.7496e-08
4.06437e-10
-4.97137e-11
5.8201e-08
3.83266e-11
4.55519e-08
1.35312e-10
7.24093e-10
7.96126e-08
6.27079e-10
7.42905e-08
3.87694e-10
6.47081e-08
5.18556e-08
1.278e-10
4.07088e-10
-2.83252e-10
5.75775e-08
3.6509e-10
-2.05145e-10
5.31709e-08
2.55265e-10
-1.26184e-10
4.46915e-08
-4.1141e-11
3.26026e-08
1.20046e-10
4.45169e-10
-2.36385e-10
6.50854e-08
3.94254e-10
-1.55791e-10
6.04119e-08
2.61464e-10
-7.82806e-11
5.15688e-08
-5.13406e-12
3.92084e-08
1.14171e-10
4.60556e-10
-1.27099e-10
7.23943e-08
4.05903e-10
-7.8427e-11
6.7473e-08
2.66075e-10
-3.28714e-11
5.82953e-08
1.1783e-11
4.56931e-08
1.07825e-10
4.39733e-10
7.9385e-08
3.87263e-10
7.42644e-08
2.52436e-10
6.48098e-08
5.20186e-08
1.01269e-10
2.73983e-10
-1.48521e-10
5.75732e-08
2.43767e-10
-1.12388e-10
5.31972e-08
1.74574e-10
-7.32295e-11
4.47396e-08
-3.0539e-11
3.26535e-08
8.96527e-11
2.87888e-10
-1.26855e-10
6.50315e-08
2.54232e-10
-8.64688e-11
6.04195e-08
1.74409e-10
-4.52156e-11
5.16206e-08
-7.81216e-12
3.92742e-08
8.55949e-11
2.90751e-10
-7.24665e-11
7.22984e-08
2.57055e-10
-4.61889e-11
6.74662e-08
1.74422e-10
-1.9615e-11
5.83522e-08
3.94538e-12
4.57748e-08
8.07587e-11
2.73813e-10
7.92661e-08
2.42776e-10
7.42491e-08
1.64251e-10
6.48686e-08
5.21112e-08
7.55716e-11
1.86124e-10
-7.99175e-11
5.75717e-08
1.64312e-10
-6.29204e-11
5.32141e-08
1.19531e-10
-4.35501e-11
4.47693e-08
-2.18216e-11
3.26847e-08
6.50632e-11
1.90014e-10
-6.84746e-11
6.50069e-08
1.66868e-10
-4.80898e-11
6.04278e-08
1.17019e-10
-2.62554e-11
5.16532e-08
-7.01654e-12
3.9314e-08
6.21686e-11
1.87976e-10
-4.03324e-11
7.22524e-08
1.65732e-10
-2.63966e-11
6.74667e-08
1.15228e-10
-1.13919e-11
5.83878e-08
7.84505e-13
4.58235e-08
5.86136e-11
1.74699e-10
7.92045e-08
1.54861e-10
7.42425e-08
1.07832e-10
6.49041e-08
5.21651e-08
5.4735e-11
1.27656e-10
-4.41197e-11
5.75714e-08
1.11981e-10
-3.60585e-11
5.32252e-08
8.24e-11
-2.65677e-11
4.47881e-08
-1.52886e-11
3.27042e-08
4.66861e-11
1.27626e-10
-3.74447e-11
6.49956e-08
1.11417e-10
-2.69574e-11
6.04349e-08
7.93927e-11
-1.54487e-11
5.16741e-08
-5.34826e-12
3.93388e-08
4.45692e-11
1.24176e-10
-2.22613e-11
7.22301e-08
1.08964e-10
-1.48333e-11
6.74698e-08
7.71879e-11
-6.56968e-12
5.84106e-08
-6.25961e-14
4.58533e-08
4.19692e-11
1.14024e-10
7.9173e-08
1.00758e-10
7.4241e-08
7.1578e-11
6.49267e-08
5.21974e-08
3.91329e-11
8.80882e-11
-2.49262e-11
5.75717e-08
7.68963e-11
-2.11309e-11
5.32326e-08
5.70677e-11
-1.65683e-11
4.48002e-08
-1.06171e-11
3.27167e-08
3.32806e-11
8.67214e-11
-2.07771e-11
6.49904e-08
7.53209e-11
-1.52908e-11
6.04406e-08
5.43187e-11
-9.22915e-12
5.16877e-08
-3.83173e-12
3.93545e-08
3.17179e-11
8.33141e-11
-1.2323e-11
7.22192e-08
7.27364e-11
-8.30508e-12
6.74735e-08
5.22752e-11
-3.77013e-12
5.84257e-08
-2.46827e-13
4.58721e-08
2.98191e-11
7.57615e-11
7.91569e-08
6.66453e-11
7.42418e-08
4.81551e-11
6.49414e-08
5.22176e-08
2.77817e-11
6.06718e-11
-1.43182e-11
5.75721e-08
5.27772e-11
-1.25887e-11
5.32376e-08
3.94176e-11
-1.04729e-11
4.48081e-08
-7.3085e-12
3.27247e-08
2.34696e-11
5.90632e-11
-1.1672e-11
6.4988e-08
5.10943e-11
-8.76497e-12
6.04448e-08
3.71814e-11
-5.58015e-12
5.16967e-08
-2.66322e-12
3.93646e-08
2.2329e-11
5.62044e-11
-6.86399e-12
7.2214e-08
4.88594e-11
-4.65072e-12
6.74768e-08
3.55124e-11
-2.16601e-12
5.84356e-08
-2.32902e-13
4.58842e-08
2.09629e-11
5.07279e-11
7.91487e-08
4.4449e-11
7.42434e-08
3.25576e-11
6.49511e-08
5.22303e-08
1.95271e-11
4.10913e-11
-8.25851e-12
5.75725e-08
3.56625e-11
-7.53336e-12
5.32408e-08
2.67625e-11
-6.61715e-12
4.48132e-08
-4.9443e-12
3.27299e-08
1.61737e-11
3.96785e-11
-6.59391e-12
6.49869e-08
3.4236e-11
-5.05102e-12
6.04478e-08
2.5083e-11
-3.39216e-12
5.17026e-08
-1.80761e-12
3.93711e-08
1.53685e-11
3.74984e-11
-3.84464e-12
7.22113e-08
3.25034e-11
-2.61636e-12
6.74794e-08
2.38304e-11
-1.25751e-12
5.84421e-08
-1.8361e-13
4.58919e-08
1.4412e-11
3.36681e-11
7.91443e-08
2.94171e-11
7.4245e-08
2.17796e-11
6.49574e-08
5.22384e-08
1.34277e-11
2.65928e-11
-4.70448e-12
5.75727e-08
2.30611e-11
-4.45108e-12
5.32428e-08
1.7375e-11
-4.10082e-12
4.48164e-08
-3.24149e-12
3.27332e-08
1.06168e-11
2.55351e-11
-3.70908e-12
6.49864e-08
2.20164e-11
-2.90411e-12
6.04497e-08
1.62195e-11
-2.05767e-12
5.17062e-08
-1.20445e-12
3.93752e-08
1.00865e-11
2.40275e-11
-2.16287e-12
7.22099e-08
2.08044e-11
-1.48775e-12
6.74811e-08
1.53598e-11
-7.53504e-13
5.84461e-08
-1.54581e-13
4.58967e-08
9.45363e-12
2.15128e-11
7.9142e-08
1.87767e-11
7.42462e-08
1.40201e-11
6.49614e-08
5.22434e-08
8.81406e-12
1.54114e-11
-2.71188e-12
5.75727e-08
1.34181e-11
-2.65094e-12
5.32439e-08
1.01874e-11
-2.53478e-12
4.48181e-08
-2.11414e-12
3.27349e-08
6.30953e-12
1.47584e-11
-2.13701e-12
6.49859e-08
1.2782e-11
-1.7412e-12
6.04506e-08
9.50791e-12
-1.3265e-12
5.17082e-08
-8.78044e-13
3.93774e-08
6.01668e-12
1.38733e-11
-1.27005e-12
7.22091e-08
1.20624e-11
-9.18812e-13
6.7482e-08
8.99849e-12
-5.37297e-13
5.84483e-08
-2.00055e-13
4.58993e-08
5.64434e-12
1.2446e-11
7.91406e-08
1.09068e-11
7.42467e-08
8.23408e-12
6.49635e-08
5.22462e-08
5.28755e-12
6.66647e-12
-2.26769e-12
6.07154e-12
-2.24201e-12
4.84689e-12
-2.15032e-12
-1.92729e-12
3.26633e-12
6.41597e-12
-1.76279e-12
5.81456e-12
-1.59921e-12
4.57432e-12
-1.38081e-12
-1.13016e-12
3.11497e-12
6.1067e-12
-9.81279e-13
5.53384e-12
-8.34256e-13
4.35236e-12
-6.61169e-13
-4.83619e-13
2.93493e-12
5.56338e-12
5.08214e-12
4.02559e-12
2.74471e-12
-4.43641e-09
-1.10839e-08
7.68949e-08
3.00989e-09
-9.46188e-09
7.0981e-08
3.27459e-09
-3.09276e-09
7.01298e-08
-7.6749e-09
8.6311e-08
3.76791e-10
-9.03777e-10
4.33749e-08
2.66334e-09
-5.9178e-09
5.42597e-08
-2.44216e-09
-4.29824e-09
7.41323e-08
4.81094e-10
6.45553e-08
-9.43827e-09
6.63281e-09
3.43967e-08
-3.86272e-09
-1.11865e-09
4.10888e-08
1.57555e-08
3.45277e-09
3.07609e-08
-1.71322e-09
8.36057e-08
-1.18768e-08
4.39635e-08
9.26059e-09
1.5995e-08
2.21299e-09
5.25068e-08
5.16892e-08
-3.27642e-09
-4.02531e-09
5.85944e-08
2.47248e-08
8.41487e-11
3.54754e-08
1.68435e-08
-1.34819e-08
8.26178e-08
-1.77416e-08
1.02031e-07
5.22999e-09
-2.39301e-09
3.66846e-08
9.37354e-09
-3.8524e-09
5.40527e-08
-1.82432e-09
-9.14216e-09
8.09904e-08
-1.13626e-08
5.70659e-08
2.55312e-10
-2.69784e-09
3.91714e-08
6.82602e-10
-2.49687e-09
3.93059e-08
-3.27833e-09
-5.359e-09
3.09387e-08
-5.84168e-09
7.56293e-08
-2.43037e-09
3.42628e-08
-2.97831e-09
1.24435e-08
1.37521e-09
4.10234e-08
4.62804e-08
6.03503e-09
-2.1206e-09
5.00855e-08
7.19242e-09
-6.04383e-09
3.49168e-08
1.18739e-08
-1.16496e-08
7.33809e-08
-1.49063e-08
6.43894e-08
7.57369e-09
-2.33046e-09
3.12359e-08
-9.43081e-10
-4.80676e-10
5.70063e-08
1.22518e-08
-2.94035e-09
5.90862e-08
-1.08349e-08
6.4089e-08
1.07463e-08
-8.70404e-09
3.75088e-08
-6.32627e-09
-6.20788e-09
6.21056e-08
-3.17281e-09
-5.55119e-09
3.0396e-08
-6.30072e-09
7.07826e-08
-2.21172e-10
3.6711e-08
-3.63501e-09
1.0603e-08
1.37282e-09
3.28647e-08
4.34976e-08
8.64579e-09
-2.44754e-09
5.25332e-08
1.04225e-08
-6.13934e-09
3.88804e-08
2.88456e-09
-1.28141e-08
5.73526e-08
-1.48906e-08
3.59555e-08
4.05213e-10
-2.46613e-09
2.96149e-08
4.91883e-09
-1.38909e-09
4.77424e-08
-2.693e-09
-3.55675e-09
5.74407e-08
-7.25345e-09
5.48861e-08
8.4424e-09
2.48772e-11
1.93193e-08
-8.01789e-11
3.36787e-09
6.58712e-08
4.04783e-09
-1.08064e-09
2.37919e-08
-6.58788e-09
7.3262e-08
7.39787e-09
2.75821e-08
-5.9836e-09
3.26918e-08
-5.07426e-09
3.15108e-08
3.37298e-08
-1.26492e-09
-1.10244e-09
5.4647e-08
-5.19325e-09
-8.58913e-10
5.2681e-08
-1.94285e-08
3.66702e-09
9.11371e-08
9.28723e-09
6.49823e-08
-2.42669e-10
8.69775e-11
2.81052e-08
2.13275e-09
-7.64043e-10
4.52721e-08
-3.97932e-09
-2.13465e-09
6.93545e-08
-3.24299e-09
6.40657e-08
-1.29966e-09
1.88879e-09
2.00413e-08
-3.36806e-09
-1.56588e-10
6.73321e-08
-7.99418e-09
3.27076e-10
2.59562e-08
2.48888e-09
6.02551e-08
-8.06223e-09
3.82612e-08
-3.3246e-09
3.0338e-08
-3.95332e-09
3.29222e-08
3.42472e-08
1.16228e-09
4.98701e-09
4.71569e-08
-1.0532e-08
-9.6788e-10
6.3555e-08
-3.14816e-09