/*--------------------------------*- C++ -*----------------------------------*\
| =========                 |                                                 |
| \\      /  F ield         | OpenFOAM: The Open Source CFD Toolbox           |
|  \\    /   O peration     | Version:  2506                                  |
|   \\  /    A nd           | Website:  www.openfoam.com                      |
|    \\/     M anipulation  |                                                 |
\*---------------------------------------------------------------------------*/
FoamFile
{
    version     2.0;
    format      ascii;
    arch        "LSB;label=32;scalar=64";
    class       volVectorField;
    location    "0.09";
    object      U;
}
// * * * * * * * * * * * * * * * * * * * * * * * * * * * * * * * * * * * * * //

dimensions      [0 1 -1 0 0 0 0];

internalField   nonuniform List<vector> 
1152
(
(-0.00960468 0.00418367 0.0569217)
(-0.00574561 0.000198446 0.0159282)
(-0.00596377 -0.00654544 0.016659)
(-0.00019796 -0.000653937 0.0010325)
(-0.00541933 -0.0296078 0.0673659)
(-0.00823946 -0.00472694 0.0163602)
(-0.00853161 -0.00718538 0.0219402)
(-0.00226722 -0.00252394 0.0135448)
(8.13722e-05 -0.000828146 0.00123427)
(-0.00566339 -0.0122853 0.023645)
(-0.00655812 -0.00145425 0.0231717)
(-0.00370972 -0.00146014 0.0211456)
(-0.00278499 -0.00453453 0.0138182)
(0.000524382 -0.00345293 0.00797393)
(-0.000854931 -0.000831932 0.00665862)
(-0.00556867 -0.00118825 0.0264899)
(-0.0195081 -0.00363537 0.0430509)
(-0.00665612 -0.000256324 0.0209362)
(-0.00719903 -0.00970763 0.0497293)
(-0.00513749 0.00126092 0.0359973)
(-0.0035131 -0.00909796 0.0260419)
(-0.00620045 -0.00589414 0.0265211)
(-0.00244054 -0.00501003 0.0226087)
(-0.00143844 -0.00444306 0.0356586)
(-0.000651119 -0.00423258 0.0157189)
(-0.00822941 -0.00647601 0.0493672)
(-0.00156004 -0.00254289 0.019841)
(0.00236074 -0.00170249 0.0446371)
(-0.000809924 -0.0110978 0.0484377)
(-0.00206416 -0.00247079 0.0272876)
(-0.00404375 -0.00420777 0.0812693)
(-0.000248007 0.000506663 0.00648966)
(0.00523445 0.00148533 0.0127909)
(0.000343839 0.000929727 0.0267075)
(0.000123782 0.00298652 0.0245933)
(0.00511132 0.000982891 0.0476226)
(-0.00069097 -3.92563e-05 0.00980832)
(-0.000855672 -0.000454793 0.03108)
(-0.00048725 0.00237588 0.0357904)
(0.000547162 0.000106042 0.0242401)
(-0.000742379 0.000205283 0.0275123)
(-0.00168975 -0.000673959 0.0296696)
(0.000929959 -0.00219884 0.0266768)
(0.000979102 -0.000127447 0.0198951)
(-0.00603943 -0.000369366 0.0286434)
(-0.00537608 0.00138104 0.0328472)
(-0.000417285 -0.00252669 0.0257905)
(0.00222041 -0.00545946 0.0417676)
(-0.000259338 -0.00061203 0.010879)
(0.0116085 -0.00279393 0.0297258)
(-0.00279314 0.000659064 0.036856)
(0.00126911 -0.000826351 0.04075)
(0.00650522 0.0116632 0.0370967)
(0.00833836 -0.00226221 0.0217352)
(0.00339357 -0.000331008 0.0265098)
(0.000171936 0.000852359 0.0320351)
(0.00228787 0.00894077 0.0231733)
(0.0050623 0.00404216 0.0362862)
(0.00190347 -0.000728459 0.0304973)
(-0.00247261 -0.00186583 0.0464096)
(0.00297265 0.0117661 0.0550913)
(-0.000313803 0.00171085 0.0254692)
(-0.000518518 0.00112553 0.0609425)
(-0.0013485 -0.00571712 0.0513255)
(7.46274e-05 -0.000134887 0.0114278)
(-0.0130958 0.00490025 0.0686153)
(0.00103815 -6.16247e-05 0.0233736)
(-0.000186504 -0.000157791 0.0131819)
(0.00527751 -0.00725639 0.0446073)
(0.00293146 -0.00113816 0.0330446)
(0.00142975 -0.000101802 0.0494438)
(0.000320286 -0.00186132 0.0366725)
(0.0027275 0.0033441 0.029999)
(0.00212925 0.00244011 0.0434434)
(0.000733409 0.000495727 0.0297692)
(0.00110112 0.00111966 0.0492827)
(0.00814431 0.0112722 0.0382133)
(-0.0016072 0.00325216 0.0287841)
(-0.000320443 0.000839793 0.0184552)
(0.000290154 -0.000437605 0.0389381)
(-0.00553959 0.00985774 0.0346815)
(0.0066847 -0.000462753 0.0271408)
(0.00481163 -0.00101081 0.026069)
(0.00218334 0.000446835 0.0333671)
(0.00429621 0.00960452 0.0380832)
(0.00283221 0.00300759 0.0205217)
(0.0021442 0.00143165 0.0209712)
(0.00103183 0.000787732 0.0217565)
(0.00158079 0.00352721 0.0196722)
(0.00101686 0.00434004 0.0200172)
(0.000855181 -0.000413094 0.0214803)
(0.000852331 -0.00229575 0.0236384)
(3.76769e-05 0.0182384 0.0473584)
(-0.000491637 0.000656083 0.0110944)
(-0.0113407 0.000627964 0.0367975)
(0.0034308 0.00426544 0.0485451)
(0.00195814 0.000732447 0.0277273)
(0.00103438 -0.000152696 0.0266152)
(0.000631156 0.000596605 0.0172146)
(-0.0002526 0.000423183 0.0201489)
(0.000417138 0.00172225 0.0271473)
(0.000798231 0.000651553 0.0251066)
(0.000552286 0.000152899 0.0252625)
(0.000843419 2.81498e-05 0.0244503)
(0.000838634 0.00104453 0.0151857)
(0.000490938 0.000568617 0.0193078)
(-3.66103e-05 0.00061708 0.0187637)
(0.000502164 0.000777556 0.0279947)
(-0.000126678 0.000279244 0.0100648)
(0.000155722 0.00110481 -0.02778)
(0.000827269 0.000363687 0.0144635)
(-0.000457061 0.000619531 0.0174202)
(0.000264207 0.00371173 0.0430124)
(0.0010188 0.00298819 0.0180546)
(0.00200407 0.00287633 0.0227782)
(0.000888965 0.00228074 0.0266031)
(0.00113591 0.00135708 0.0346763)
(0.00120611 0.00263966 0.0312823)
(0.00109969 0.00164669 0.0334784)
(0.000799968 0.00179773 0.0325932)
(0.00190992 0.000612569 0.015293)
(0.00160124 0.0017243 0.025469)
(0.00115702 0.00144215 0.0241236)
(0.00133144 0.00233977 0.0341642)
(0.00221846 5.05695e-05 0.0157626)
(0.00195738 0.00110529 0.0381457)
(0.00143866 0.00129593 0.0206531)
(0.00174917 0.00165074 0.0314742)
(0.00354032 -0.000845574 0.0155708)
(0.00149973 -0.000700456 0.0118031)
(-7.06631e-05 0.000500988 0.0122539)
(-0.000277204 0.000798079 0.0115494)
(0.000395722 0.0017998 0.012858)
(2.32655e-05 -0.00013607 0.0119213)
(-5.7751e-05 0.000352423 0.012211)
(0.000271628 -1.02676e-05 0.0115891)
(0.000696437 -0.000121023 0.0085247)
(2.79079e-05 -0.00113591 0.00954066)
(-9.02717e-05 0.000402267 0.0094844)
(-0.000801645 0.000160514 0.0110783)
(1.68512e-05 -0.00230688 0.00814031)
(0.000456871 -0.00141471 0.0109613)
(0.000878864 -0.000596966 0.00888179)
(-0.00165311 3.34547e-05 0.0107526)
(0.00153482 -0.000133298 0.0208578)
(0.000630729 1.98397e-05 0.0194297)
(0.000124959 0.000410756 0.0196816)
(-1.04923e-05 0.000556681 0.0196121)
(0.000352895 0.000996778 0.0197613)
(6.47443e-05 0.00040998 0.0196971)
(3.95001e-05 0.000569948 0.0199475)
(5.65224e-05 0.000427353 0.0198868)
(0.000448498 6.95361e-05 0.0183132)
(0.000157877 -0.000143364 0.0189429)
(5.66381e-05 0.000436447 0.0188453)
(-0.000217476 0.000463713 0.0196198)
(0.000172667 -0.00115502 0.0187855)
(0.000380932 -0.000683989 0.0199957)
(0.000494347 -0.000180143 0.0190062)
(-0.000312057 0.000339765 0.0197865)
(0.000577054 -3.04406e-05 0.0181855)
(0.000217946 3.51246e-05 0.0177959)
(5.33967e-05 0.000145105 0.017776)
(-5.15084e-05 0.000227731 0.0176913)
(0.00021564 0.000297706 0.0176628)
(2.99017e-05 0.000161541 0.0176756)
(-1.50225e-05 0.000213359 0.0177045)
(-8.53864e-05 0.000181309 0.0176634)
(0.000250631 -0.000132778 0.0171298)
(0.000102407 -0.000133507 0.0172537)
(2.39863e-05 6.43512e-05 0.0171787)
(-0.000135333 0.000107158 0.0173428)
(0.000189537 -0.000667516 0.0172768)
(0.000209281 -0.000456168 0.0175041)
(0.000169732 -0.000256545 0.0171467)
(-0.000164076 -7.12704e-05 0.0172366)
(0.00025186 7.42081e-06 0.0183977)
(0.000115842 3.74867e-05 0.0182986)
(4.73539e-05 7.66962e-05 0.0182625)
(-2.61827e-05 0.0001264 0.0182212)
(0.000152933 8.16924e-05 0.0182061)
(6.51615e-05 6.88958e-05 0.0182197)
(2.58962e-05 0.00010097 0.0182141)
(-3.71208e-05 0.00012217 0.0181971)
(0.000182035 -0.000119483 0.0180643)
(0.000118837 -7.48803e-05 0.0180834)
(7.55987e-05 1.63084e-05 0.0180347)
(8.23125e-07 8.69558e-05 0.0180528)
(0.000194409 -0.000360585 0.0181547)
(0.00019472 -0.000249102 0.0181764)
(0.00016805 -0.000133934 0.0180406)
(5.29745e-05 -5.37591e-06 0.0180244)
(0.000140405 6.55494e-06 0.0184066)
(8.43612e-05 2.23064e-05 0.0183694)
(4.71487e-05 4.10527e-05 0.018334)
(2.81283e-06 6.86547e-05 0.0182986)
(0.000118421 8.10671e-06 0.0183334)
(7.6922e-05 1.82584e-05 0.0183229)
(4.62174e-05 3.88536e-05 0.0182955)
(3.4344e-06 6.17158e-05 0.018264)
(0.000137749 -8.39665e-05 0.0182924)
(0.000107979 -5.22107e-05 0.0182684)
(7.96231e-05 -9.46776e-06 0.0182158)
(3.59475e-05 3.40257e-05 0.0181714)
(0.000157319 -0.000189282 0.0183274)
(0.000150436 -0.000136813 0.0182845)
(0.000126681 -8.28547e-05 0.0181925)
(6.76658e-05 -2.61477e-05 0.0181113)
(9.51256e-05 1.21088e-06 0.0184376)
(6.93246e-05 1.05513e-05 0.0184133)
(4.72236e-05 2.17002e-05 0.0183826)
(2.13043e-05 3.76836e-05 0.0183478)
(9.39743e-05 -1.10634e-05 0.0184088)
(7.32693e-05 -4.73586e-07 0.0183887)
(5.28816e-05 1.35054e-05 0.0183577)
(2.62517e-05 3.01824e-05 0.0183203)
(0.000106093 -5.3767e-05 0.0183913)
(9.12976e-05 -3.5412e-05 0.0183612)
(7.36838e-05 -1.26291e-05 0.0183157)
(4.85812e-05 1.3208e-05 0.0182632)
(0.000119577 -0.000100163 0.0183964)
(0.000114748 -7.48873e-05 0.0183523)
(0.000100212 -4.77838e-05 0.0182865)
(6.92524e-05 -1.95413e-05 0.0182109)
(6.98189e-05 -1.71139e-06 0.018468)
(5.64999e-05 4.00453e-06 0.0184477)
(4.26748e-05 1.09979e-05 0.0184199)
(2.69366e-05 2.02052e-05 0.0183841)
(7.2712e-05 -1.25976e-05 0.0184548)
(6.14943e-05 -5.5287e-06 0.0184333)
(4.84648e-05 3.28188e-06 0.0184025)
(3.24016e-05 1.36017e-05 0.0183623)
(7.98044e-05 -3.33347e-05 0.0184417)
(7.17253e-05 -2.3467e-05 0.0184135)
(6.04454e-05 -1.12137e-05 0.0183732)
(4.52777e-05 3.00255e-06 0.0183209)
(8.74459e-05 -5.41433e-05 0.0184302)
(8.41942e-05 -4.18741e-05 0.018393)
(7.50229e-05 -2.83441e-05 0.0183396)
(5.72261e-05 -1.46016e-05 0.0182706)
(5.20994e-05 -2.67621e-06 0.0184885)
(4.47067e-05 8.8598e-07 0.0184706)
(3.58358e-05 5.20558e-06 0.0184447)
(2.58433e-05 1.04471e-05 0.0184084)
(5.47665e-05 -9.92033e-06 0.01848)
(4.83846e-05 -5.72574e-06 0.0184601)
(3.9984e-05 -5.27633e-07 0.018431)
(3.0045e-05 5.42183e-06 0.0183904)
(5.87551e-05 -2.03604e-05 0.0184665)
(5.40029e-05 -1.52903e-05 0.0184421)
(4.66153e-05 -8.8309e-06 0.0184061)
(3.70341e-05 -1.28771e-06 0.0183564)
(6.26895e-05 -2.98546e-05 0.0184459)
(6.03755e-05 -2.39507e-05 0.0184156)
(5.43409e-05 -1.728e-05 0.0183702)
(4.34802e-05 -1.07891e-05 0.0183074)
(3.87275e-05 -2.70753e-06 0.0185012)
(3.43524e-05 -4.93381e-07 0.0184853)
(2.86115e-05 2.13518e-06 0.0184609)
(2.21214e-05 5.12287e-06 0.0184247)
(4.05576e-05 -7.10588e-06 0.0184938)
(3.67273e-05 -4.73005e-06 0.0184761)
(3.12638e-05 -1.77948e-06 0.0184489)
(2.49376e-05 1.54331e-06 0.018409)
(4.2698e-05 -1.24451e-05 0.018479)
(3.97194e-05 -9.94073e-06 0.0184581)
(3.48163e-05 -6.63687e-06 0.0184255)
(2.86215e-05 -2.79351e-06 0.0183782)
(4.45583e-05 -1.68433e-05 0.0184535)
(4.2836e-05 -1.40417e-05 0.0184283)
(3.87172e-05 -1.08396e-05 0.0183883)
(3.18909e-05 -7.88058e-06 0.0183299)
(2.85229e-05 -2.37036e-06 0.0185089)
(2.5832e-05 -1.00458e-06 0.0184947)
(2.21084e-05 5.75955e-07 0.0184715)
(1.78079e-05 2.29933e-06 0.0184358)
(2.96722e-05 -4.9399e-06 0.0185016)
(2.72745e-05 -3.61891e-06 0.018486)
(2.36999e-05 -1.98082e-06 0.0184604)
(1.95592e-05 -1.6879e-07 0.0184214)
(3.07774e-05 -7.71639e-06 0.0184858)
(2.88412e-05 -6.51694e-06 0.0184676)
(2.55619e-05 -4.87255e-06 0.0184374)
(2.14811e-05 -2.95882e-06 0.018392)
(3.15657e-05 -9.74949e-06 0.0184576)
(3.02982e-05 -8.44807e-06 0.0184359)
(2.7469e-05 -6.96898e-06 0.0183994)
(2.30628e-05 -5.69959e-06 0.018344)
(2.07905e-05 -1.91528e-06 0.0185134)
(1.90849e-05 -1.08174e-06 0.0185006)
(1.66535e-05 -1.44233e-07 0.0184786)
(1.37734e-05 8.46356e-07 0.0184435)
(2.14793e-05 -3.41324e-06 0.018506)
(1.99364e-05 -2.68626e-06 0.0184921)
(1.75798e-05 -1.78981e-06 0.0184678)
(1.48248e-05 -8.14129e-07 0.0184297)
(2.20245e-05 -4.86764e-06 0.0184895)
(2.07437e-05 -4.31892e-06 0.0184733)
(1.85399e-05 -3.53039e-06 0.0184449)
(1.58184e-05 -2.60113e-06 0.0184009)
(2.2291e-05 -5.78177e-06 0.0184598)
(2.13789e-05 -5.20412e-06 0.0184406)
(1.94333e-05 -4.56819e-06 0.0184064)
(1.65334e-05 -4.09557e-06 0.018353)
(1.49249e-05 -1.47057e-06 0.018516)
(1.38595e-05 -9.62215e-07 0.0185044)
(1.22492e-05 -4.12311e-07 0.0184832)
(1.03025e-05 1.54976e-07 0.0184487)
(1.53317e-05 -2.312e-06 0.0185086)
(1.43365e-05 -1.93463e-06 0.0184958)
(1.27716e-05 -1.45977e-06 0.0184726)
(1.092e-05 -9.44453e-07 0.0184352)
(1.5582e-05 -3.08585e-06 0.0184916)
(1.47338e-05 -2.86506e-06 0.0184768)
(1.32513e-05 -2.51421e-06 0.0184497)
(1.14267e-05 -2.08349e-06 0.0184068)
(1.56107e-05 -3.47923e-06 0.018461)
(1.49703e-05 -3.25096e-06 0.0184435)
(1.36388e-05 -3.01844e-06 0.0184109)
(1.17111e-05 -2.90551e-06 0.0183588)
(1.04096e-05 -1.09314e-06 0.0185175)
(9.82373e-06 -7.70197e-07 0.0185068)
(8.73933e-06 -4.50159e-07 0.0184863)
(7.42162e-06 -1.28392e-07 0.0184522)
(1.0661e-05 -1.47845e-06 0.0185101)
(1.00525e-05 -1.32247e-06 0.0184982)
(9.01124e-06 -1.09493e-06 0.0184758)
(7.77068e-06 -8.38089e-07 0.018439)
(1.07653e-05 -1.91376e-06 0.0184928)
(1.02207e-05 -1.86344e-06 0.018479)
(9.23197e-06 -1.73558e-06 0.0184528)
(8.01864e-06 -1.55617e-06 0.0184106)
(1.07015e-05 -2.0816e-06 0.0184618)
(1.02681e-05 -2.02268e-06 0.0184453)
(9.37213e-06 -1.97545e-06 0.0184137)
(8.09972e-06 -2.00917e-06 0.0183626)
(6.8664e-06 -7.8554e-07 0.0185186)
(6.62053e-06 -5.75398e-07 0.0185083)
(5.90136e-06 -3.91258e-07 0.0184883)
(5.03549e-06 -2.13602e-07 0.0184546)
(7.02779e-06 -8.73637e-07 0.018511)
(6.69783e-06 -8.46225e-07 0.0184997)
(6.02148e-06 -7.59654e-07 0.0184778)
(5.2181e-06 -6.46872e-07 0.0184414)
(7.06643e-06 -1.13263e-06 0.0184935)
(6.7428e-06 -1.16398e-06 0.0184804)
(6.10597e-06 -1.14309e-06 0.0184548)
(5.32829e-06 -1.08536e-06 0.018413)
(6.98519e-06 -1.21014e-06 0.0184622)
(6.71081e-06 -1.22809e-06 0.0184465)
(6.13355e-06 -1.25529e-06 0.0184155)
(5.3243e-06 -1.33091e-06 0.018365)
(4.02119e-06 -5.74233e-07 0.0185193)
(3.94565e-06 -4.5519e-07 0.0185093)
(3.52051e-06 -3.56544e-07 0.0184895)
(3.01074e-06 -2.62818e-07 0.0184561)
(4.11044e-06 -5.43446e-07 0.0185116)
(3.95881e-06 -5.61729e-07 0.0185007)
(3.56438e-06 -5.39204e-07 0.018479)
(3.09737e-06 -4.96044e-07 0.0184429)
(4.12067e-06 -6.81135e-07 0.018494)
(3.9552e-06 -7.31356e-07 0.0184812)
(3.58926e-06 -7.46488e-07 0.018456)
(3.14356e-06 -7.36114e-07 0.0184145)
(4.05896e-06 -7.11277e-07 0.0184625)
(3.90954e-06 -7.50657e-07 0.0184472)
(3.58066e-06 -7.91689e-07 0.0184166)
(3.11919e-06 -8.54719e-07 0.0183664)
(1.70415e-06 -6.81655e-07 0.0185197)
(1.66042e-06 -6.41881e-07 0.0185099)
(1.48541e-06 -5.98391e-07 0.0184902)
(1.2719e-06 -5.47798e-07 0.0184569)
(1.72828e-06 -6.63121e-07 0.0185118)
(1.66889e-06 -6.71814e-07 0.0185011)
(1.51074e-06 -6.58666e-07 0.0184797)
(1.31826e-06 -6.30027e-07 0.0184437)
(1.72545e-06 -6.83025e-07 0.0184941)
(1.6689e-06 -7.07987e-07 0.0184816)
(1.52862e-06 -7.12123e-07 0.0184565)
(1.34944e-06 -6.9796e-07 0.0184153)
(1.69785e-06 -6.47885e-07 0.0184625)
(1.65422e-06 -6.7232e-07 0.0184474)
(1.53538e-06 -6.89336e-07 0.0184171)
(1.3581e-06 -7.01188e-07 0.0183671)
(-0.00497574 -0.00118148 0.0381005)
(-0.000432369 -0.00140991 0.0132514)
(0.00170733 -0.00651332 0.0286181)
(-0.00154407 0.000234121 0.0219418)
(-0.000510862 0.00194305 0.0101692)
(-0.000519877 0.00141519 0.0109306)
(0.00270404 -0.00113805 0.0243048)
(0.000370011 0.00173399 0.0122787)
(0.000223766 0.0151865 0.0280717)
(-0.0026604 0.00298522 0.02172)
(0.0011907 0.000135287 0.0240973)
(0.00179785 0.00480347 0.0268029)
(-0.000323635 0.000161886 -0.00118584)
(-0.00320478 0.000169333 0.0107973)
(0.000989657 -0.00133645 0.0166518)
(0.00161706 -0.000851233 0.0153144)
(-0.000178347 -0.00160642 0.0101529)
(0.00204523 -0.00132968 0.0288414)
(0.00207583 -0.00551693 0.0429822)
(0.00111452 0.000370266 0.0373879)
(0.000171824 -0.0017416 0.048855)
(-0.000982599 -0.000891727 0.0320548)
(-0.000196524 0.000392424 0.00819807)
(0.000198114 -0.00308111 0.0301953)
(0.000174908 -0.00467439 0.0323153)
(0.00217948 -0.00115865 0.0383862)
(-0.00010804 0.000520878 0.0451529)
(-0.00102589 -0.0014143 0.0551944)
(0.00146113 -0.0040635 0.0458179)
(0.00356946 0.00111954 0.0437921)
(-0.000331555 -0.000626271 0.0343159)
(0.00146072 0.00046986 0.0459938)
(-0.00209334 -0.0040822 0.0345277)
(-0.00335934 -0.000915942 0.0275778)
(-0.00274959 0.00167422 0.0259151)
(0.00022808 -0.00062242 0.00858855)
(-0.00154731 -0.0042576 0.0299703)
(-0.000842672 -0.00808544 0.0464376)
(-0.000787353 -0.000894294 0.0269193)
(-0.00248513 -4.12095e-05 0.0501192)
(-0.00266237 -0.00457006 0.0369301)
(-0.000706226 -0.00190749 0.0110726)
(-0.00207435 -0.00421223 0.0546147)
(0.000265061 -0.00136259 0.013449)
(-0.00359494 -0.00405533 0.0318819)
(0.00147074 -0.000532226 0.0543705)
(-0.000627486 -0.000427918 0.0202411)
(0.00198553 0.00285719 0.0554535)
(-0.000101344 -0.000251893 0.0145789)
(-0.00196123 0.00190161 0.0509093)
(-0.00251493 0.000240664 0.023213)
(-0.00168964 0.000131427 0.0278942)
(-0.00254777 9.12151e-06 0.0419075)
(-0.00418627 0.000392525 0.0399311)
(-0.00384419 -0.001974 0.0385015)
(0.000371948 -0.0016983 0.0430549)
(-0.00364364 -0.00416329 0.0500542)
(-0.00396691 -0.00402476 0.0323542)
(-0.0057132 -0.00096454 0.0390317)
(-0.00302515 -0.00110407 0.0293499)
(-0.0065057 -0.00158833 0.0400228)
(-0.00367313 -0.00370105 0.0289867)
(-0.00127002 -0.00101601 0.0331553)
(-0.00309241 -0.000563058 0.0506118)
(0.00131203 0.0123824 0.0313961)
(-0.0110447 0.0102853 0.0550762)
(-0.00382341 0.0015307 0.0366211)
(-0.00181071 -0.00209698 0.0289501)
(-0.0037349 0.00335999 0.0531726)
(-0.00808513 0.00208457 0.0244663)
(-0.00560006 0.000905274 0.0325181)
(-0.00260779 -0.00220653 0.0521668)
(-0.000656247 -0.00163164 0.010442)
(-0.0149609 -0.00315542 0.0589152)
(-0.00527016 0.00403024 0.0523245)
(-0.00153805 -0.000725205 0.0156073)
(-9.9181e-05 -0.000386324 0.00808717)
(-0.000314264 -0.00070213 0.0297378)
(-0.00223147 0.00145861 0.0201734)
(-0.00466787 -0.000499803 0.043043)
(-0.00312195 0.0586136 0.0322042)
(-0.00315646 -4.01295e-05 0.016754)
(-0.00156989 0.00173092 0.0235843)
(0.000191159 0.000156534 0.00933233)
(3.86003e-05 0.00042417 0.00771429)
(-0.0393991 0.00637079 0.031318)
(-0.0020607 0.000352156 0.017967)
(-0.00152268 5.70974e-05 0.0155961)
(-0.0240136 -0.0422001 0.0226164)
(-0.00279944 -0.000209324 0.0160674)
(-0.00346356 -0.000560187 0.0254301)
(-0.00214141 -0.000536596 0.0205686)
(-0.00120841 -0.00216196 0.0157753)
(-0.00240257 -0.000403478 0.0208938)
(-0.00422425 0.000881104 0.0311181)
(-0.00232198 0.000641657 0.0221152)
(9.07004e-05 -0.00260775 0.00478727)
(0.00126451 0.000283736 0.0118446)
(0.000329745 0.00013696 0.0181022)
(0.000626234 0.000425087 0.0127578)
(0.00144512 -0.000850012 -0.202853)
(0.00694838 -0.000918973 0.00848061)
(0.000570655 -0.00031581 0.0152105)
(0.00121451 0.000139082 0.0231848)
(0.00247706 0.00879705 -0.00025572)
(0.000724726 0.00194419 0.0198369)
(4.3907e-05 -0.000308306 0.0251191)
(-0.0005274 0.000850642 0.0142973)
(0.00191656 0.00199433 0.0075118)
(-0.000524787 0.00154198 0.0161924)
(-0.00134097 0.000444235 0.017821)
(-0.000743216 0.000428535 0.0219816)
(0.00174762 -0.00100501 0.0266448)
(0.00262863 0.000264054 0.0302521)
(0.00145548 0.000803246 0.0226525)
(0.00141474 0.000568075 0.0310538)
(0.00169799 0.00184883 0.114682)
(0.00339099 5.74974e-05 0.0365811)
(0.0016229 0.000318457 0.0235503)
(0.00129044 0.000309956 0.0298412)
(1.8596e-05 0.00394695 0.0459348)
(0.00120549 0.000599301 0.034716)
(0.00139309 0.000349585 0.031968)
(0.000664202 0.000361117 0.0243989)
(0.00136877 0.00109158 0.0216502)
(0.000664755 0.000263571 0.0262778)
(0.000921579 9.2002e-05 0.0278111)
(0.000197672 9.78177e-05 0.02859)
(0.000255083 -0.00637023 0.0104533)
(0.00155918 -0.0014934 0.0103164)
(0.000923064 -0.00080135 0.00868634)
(-0.000870985 0.000700343 0.0101965)
(0.00130795 -0.00235045 0.0227451)
(0.00519461 -0.00134831 0.0115667)
(0.00172042 -0.00103045 0.00875333)
(0.00016909 0.000880175 0.00954186)
(0.00339894 0.00473442 0.0156972)
(0.0029511 0.000680757 0.0112087)
(0.00155457 -0.000502726 0.00942119)
(0.000526685 0.000248126 0.00836438)
(0.00314432 0.00187018 0.0102274)
(0.00128397 0.000411533 0.00915033)
(0.00087811 -0.000110247 0.00868537)
(0.000349791 -0.000314233 0.00819735)
(0.000500051 -0.00281356 0.0203718)
(0.00106199 -0.00103662 0.0201959)
(0.000806058 -0.000519405 0.01919)
(4.34406e-05 0.000368925 0.0196981)
(0.00102658 -0.00155303 0.0255717)
(0.00243549 -0.000946247 0.0212366)
(0.00125129 -0.00057319 0.0194565)
(0.000429102 0.00042377 0.0194485)
(0.00177315 0.00120797 0.0234838)
(0.00197721 -3.24129e-06 0.0208666)
(0.00132852 -0.000284116 0.0195669)
(0.000619543 0.000274241 0.0189409)
(0.00182967 0.000547145 0.0209462)
(0.00141339 -3.05215e-05 0.0198333)
(0.00105609 -0.000250813 0.0192274)
(0.000450246 -5.5501e-05 0.0187741)
(0.000360309 -0.00119997 0.0179709)
(0.00049704 -0.000631171 0.0176686)
(0.000322026 -0.000378 0.0171737)
(7.36766e-06 -2.74384e-05 0.0170729)
(0.000608911 -0.00084903 0.0196265)
(0.000956311 -0.000542534 0.0180616)
(0.000511002 -0.000322909 0.0172048)
(0.000145935 6.9807e-05 0.0168685)
(0.000892489 2.4376e-05 0.0191834)
(0.000941852 -0.000237902 0.0179221)
(0.000555955 -0.000257191 0.0171094)
(0.000186722 2.42061e-06 0.0165687)
(0.000952138 4.24299e-05 0.0182936)
(0.000773586 -0.000164786 0.0174224)
(0.000475033 -0.000212314 0.0168249)
(0.000142732 -7.64402e-05 0.0163146)
(0.000280232 -0.000560552 0.0184461)
(0.000338785 -0.000365022 0.0182791)
(0.000279241 -0.000230377 0.0180694)
(0.00013077 -3.73181e-05 0.0179772)
(0.000393992 -0.000446755 0.0189269)
(0.000515628 -0.000315608 0.0183956)
(0.000372875 -0.000202214 0.0180471)
(0.00018293 -3.18444e-06 0.0178693)
(0.000507628 -0.000124732 0.0188659)
(0.000569396 -0.000174192 0.0183199)
(0.000413053 -0.000162372 0.0179544)
(0.00020494 -1.69383e-05 0.0177157)
(0.000544231 -2.7455e-05 0.018569)
(0.000522308 -0.000122794 0.0181178)
(0.000382077 -0.000156428 0.0178186)
(0.000167956 -6.6381e-05 0.0175871)
(0.000197451 -0.000267591 0.0184307)
(0.000213146 -0.000198714 0.0183139)
(0.000177927 -0.000137229 0.0181701)
(0.000100942 -5.29979e-05 0.0180401)
(0.000247662 -0.000230891 0.0185585)
(0.000283301 -0.000177353 0.0183199)
(0.000219044 -0.000123467 0.0181077)
(0.000120508 -3.55705e-05 0.0179364)
(0.000293248 -0.000113374 0.0185219)
(0.000318132 -0.000125082 0.0182399)
(0.000238541 -0.000114869 0.0180011)
(0.000124184 -4.71144e-05 0.0178037)
(0.00030766 -4.17995e-05 0.0183392)
(0.000307176 -8.86014e-05 0.0180715)
(0.000227386 -0.000106913 0.0178496)
(0.000107033 -6.35012e-05 0.0176563)
(0.000138146 -0.000133039 0.0184173)
(0.000142641 -0.000107592 0.0183418)
(0.000124266 -8.04686e-05 0.0182485)
(8.17487e-05 -4.01844e-05 0.0181485)
(0.000159261 -0.000118969 0.0184257)
(0.000171296 -9.84466e-05 0.0183032)
(0.000142153 -7.40242e-05 0.0181773)
(8.97115e-05 -3.25652e-05 0.0180607)
(0.000176367 -7.34385e-05 0.0183635)
(0.000187588 -7.82837e-05 0.0182155)
(0.000150891 -7.30846e-05 0.0180737)
(8.99879e-05 -3.98879e-05 0.0179485)
(0.000178724 -3.16306e-05 0.0182158)
(0.000184624 -5.70869e-05 0.01807)
(0.00014579 -6.98885e-05 0.0179346)
(7.91837e-05 -4.94462e-05 0.0178162)
(9.57803e-05 -6.88133e-05 0.0184134)
(9.64464e-05 -5.97381e-05 0.0183609)
(8.5568e-05 -4.82709e-05 0.0182912)
(6.02771e-05 -2.88496e-05 0.018208)
(0.00010415 -6.24431e-05 0.0183752)
(0.000107992 -5.5521e-05 0.018302)
(9.26239e-05 -4.50906e-05 0.0182154)
(6.28729e-05 -2.5693e-05 0.0181254)
(0.000109831 -4.27615e-05 0.0182924)
(0.00011443 -4.73376e-05 0.0182062)
(9.54033e-05 -4.60785e-05 0.0181105)
(6.14222e-05 -3.07635e-05 0.0180187)
(0.000108036 -1.97161e-05 0.0181491)
(0.000111931 -3.52583e-05 0.0180627)
(9.14796e-05 -4.42995e-05 0.0179702)
(5.42939e-05 -3.58316e-05 0.0178863)
(6.62299e-05 -3.67885e-05 0.0184117)
(6.55629e-05 -3.40965e-05 0.0183726)
(5.85901e-05 -2.9584e-05 0.0183166)
(4.28251e-05 -1.99469e-05 0.0182443)
(6.91892e-05 -3.35042e-05 0.0183538)
(6.99653e-05 -3.19342e-05 0.0183044)
(6.09762e-05 -2.78034e-05 0.0182389)
(4.33533e-05 -1.85149e-05 0.0181646)
(7.03734e-05 -2.43608e-05 0.0182593)
(7.19029e-05 -2.85163e-05 0.0182035)
(6.11852e-05 -2.89957e-05 0.0181334)
(4.16265e-05 -2.20336e-05 0.0180608)
(6.74388e-05 -1.18436e-05 0.0181132)
(6.93984e-05 -2.17355e-05 0.0180582)
(5.79348e-05 -2.80146e-05 0.0179916)
(3.67748e-05 -2.49931e-05 0.0179282)
(4.58875e-05 -2.02817e-05 0.0184109)
(4.48548e-05 -2.00283e-05 0.0183799)
(4.01913e-05 -1.8585e-05 0.0183319)
(3.00032e-05 -1.36555e-05 0.0182663)
(4.66223e-05 -1.84013e-05 0.0183441)
(4.62568e-05 -1.87854e-05 0.0183072)
(4.06036e-05 -1.74627e-05 0.0182534)
(2.97262e-05 -1.30124e-05 0.018188)
(4.62084e-05 -1.38792e-05 0.0182434)
(4.6327e-05 -1.73377e-05 0.0182032)
(3.98356e-05 -1.84386e-05 0.0181474)
(2.81575e-05 -1.54148e-05 0.0180853)
(4.33712e-05 -7.07502e-06 0.0180945)
(4.40198e-05 -1.35374e-05 0.0180559)
(3.71893e-05 -1.78878e-05 0.0180041)
(2.48108e-05 -1.71962e-05 0.0179519)
(3.19134e-05 -1.1524e-05 0.0184107)
(3.0929e-05 -1.2106e-05 0.0183847)
(2.77543e-05 -1.19555e-05 0.0183416)
(2.10119e-05 -9.37029e-06 0.01828)
(3.1794e-05 -1.03658e-05 0.0183397)
(3.11183e-05 -1.13207e-05 0.0183097)
(2.74153e-05 -1.11979e-05 0.0182626)
(2.04954e-05 -9.06589e-06 0.0182024)
(3.09333e-05 -8.00569e-06 0.0182358)
(3.05295e-05 -1.07077e-05 0.0182041)
(2.64029e-05 -1.19253e-05 0.0181563)
(1.92313e-05 -1.06916e-05 0.0181003)
(2.85805e-05 -4.27217e-06 0.018085)
(2.85763e-05 -8.57335e-06 0.0180553)
(2.43276e-05 -1.16261e-05 0.018012)
(1.69001e-05 -1.18315e-05 0.0179661)
(2.2234e-05 -6.72608e-06 0.0184108)
(2.14314e-05 -7.50115e-06 0.0183878)
(1.92526e-05 -7.83269e-06 0.0183478)
(1.4726e-05 -6.45251e-06 0.0182887)
(2.18399e-05 -5.981e-06 0.0183377)
(2.11797e-05 -6.97776e-06 0.0183118)
(1.86996e-05 -7.30629e-06 0.0182686)
(1.4197e-05 -6.29833e-06 0.0182115)
(2.09663e-05 -4.69923e-06 0.0182321)
(2.04489e-05 -6.73148e-06 0.0182052)
(1.77452e-05 -7.83049e-06 0.0181621)
(1.32164e-05 -7.40137e-06 0.0181096)
(1.91443e-05 -2.62485e-06 0.0180801)
(1.88958e-05 -5.52642e-06 0.0180554)
(1.61671e-05 -7.675e-06 0.0180171)
(1.15766e-05 -8.15345e-06 0.0179748)
(1.54157e-05 -3.9996e-06 0.018411)
(1.48111e-05 -4.72113e-06 0.01839)
(1.33189e-05 -5.17396e-06 0.0183518)
(1.02647e-05 -4.43053e-06 0.0182943)
(1.49878e-05 -3.51453e-06 0.0183368)
(1.44481e-05 -4.36851e-06 0.0183134)
(1.27762e-05 -4.80941e-06 0.0182726)
(9.81099e-06 -4.34969e-06 0.0182173)
(1.42486e-05 -2.8021e-06 0.0182303)
(1.37819e-05 -4.28589e-06 0.0182063)
(1.1987e-05 -5.18305e-06 0.018166)
(9.07918e-06 -5.10152e-06 0.0181155)
(1.28983e-05 -1.63714e-06 0.0180776)
(1.26057e-05 -3.60276e-06 0.0180559)
(1.08225e-05 -5.10811e-06 0.0180204)
(7.93253e-06 -5.6081e-06 0.0179803)
(1.04896e-05 -2.38456e-06 0.0184112)
(1.00597e-05 -2.96963e-06 0.0183914)
(9.05582e-06 -3.3902e-06 0.0183545)
(7.01846e-06 -2.99237e-06 0.0182979)
(1.01237e-05 -2.07826e-06 0.0183364)
(9.7216e-06 -2.73998e-06 0.0183145)
(8.60897e-06 -3.14695e-06 0.0182752)
(6.66626e-06 -2.95198e-06 0.0182211)
(9.55808e-06 -1.6824e-06 0.0182295)
(9.19189e-06 -2.72958e-06 0.0182071)
(8.01002e-06 -3.40965e-06 0.0181685)
(6.14236e-06 -3.45853e-06 0.0181194)
(8.60041e-06 -1.02515e-06 0.0180764)
(8.34456e-06 -2.34245e-06 0.0180563)
(7.18464e-06 -3.37768e-06 0.0180227)
(5.35814e-06 -3.79864e-06 0.0179838)
(6.81092e-06 -1.39377e-06 0.0184113)
(6.52588e-06 -1.82089e-06 0.0183923)
(5.88224e-06 -2.14728e-06 0.0183561)
(4.58012e-06 -1.94201e-06 0.0183002)
(6.54117e-06 -1.21333e-06 0.0183363)
(6.26613e-06 -1.68152e-06 0.0183152)
(5.55819e-06 -1.99629e-06 0.0182769)
(4.33155e-06 -1.92518e-06 0.0182235)
(6.14894e-06 -9.99002e-07 0.018229)
(5.8905e-06 -1.69711e-06 0.0182077)
(5.14332e-06 -2.17225e-06 0.0181701)
(3.98043e-06 -2.25146e-06 0.0181218)
(5.51512e-06 -6.30278e-07 0.0180757)
(5.32428e-06 -1.47946e-06 0.0180567)
(4.59686e-06 -2.15969e-06 0.0180241)
(3.47198e-06 -2.46969e-06 0.017986)
(3.94689e-06 -8.03904e-07 0.0184113)
(3.78538e-06 -1.06973e-06 0.0183929)
(3.42256e-06 -1.2783e-06 0.0183571)
(2.68614e-06 -1.18312e-06 0.0183016)
(3.78328e-06 -6.98364e-07 0.0183361)
(3.62511e-06 -9.86862e-07 0.0183157)
(3.22849e-06 -1.19134e-06 0.0182779)
(2.53839e-06 -1.17521e-06 0.018225)
(3.55413e-06 -5.78053e-07 0.0182288)
(3.40361e-06 -9.93013e-07 0.0182081)
(2.98593e-06 -1.28625e-06 0.0181711)
(2.33502e-06 -1.35447e-06 0.0181232)
(3.19475e-06 -3.67111e-07 0.0180753)
(3.08236e-06 -8.64684e-07 0.018057)
(2.67702e-06 -1.27126e-06 0.0180249)
(2.0478e-06 -1.47144e-06 0.0179874)
(1.65607e-06 -6.18246e-07 0.0184112)
(1.61551e-06 -7.27507e-07 0.018393)
(1.49123e-06 -8.09737e-07 0.0183575)
(1.22182e-06 -7.76789e-07 0.0183022)
(1.59968e-06 -5.04753e-07 0.018336)
(1.5686e-06 -6.36321e-07 0.0183158)
(1.43495e-06 -7.33273e-07 0.0182783)
(1.17511e-06 -7.45612e-07 0.0182256)
(1.52334e-06 -3.69717e-07 0.0182285)
(1.50283e-06 -5.61104e-07 0.0182082)
(1.36247e-06 -7.10433e-07 0.0181715)
(1.10957e-06 -7.71621e-07 0.0181239)
(1.4001e-06 -1.99246e-07 0.018075)
(1.40024e-06 -4.35288e-07 0.018057)
(1.26302e-06 -6.45399e-07 0.0180253)
(1.01134e-06 -7.73199e-07 0.017988)
(-0.000614132 -0.00233179 0.0269103)
(0.000407968 -0.00141885 0.0316497)
(0.00110084 -0.0018914 0.0115024)
(0.000963374 -0.0026782 0.0135207)
(0.000427066 -0.00356399 0.0168287)
(0.00168155 -0.00405301 0.024159)
(0.000514776 -0.00204391 0.00813518)
(-0.000388903 -0.00289879 0.0204388)
(-0.000532191 -4.05126e-05 0.00041904)
(-0.00167723 -0.0031414 0.0234097)
(0.00191425 -0.000534688 0.0123484)
(0.00403213 0.00120021 0.0215612)
(-0.00613994 -0.0009278 0.0401193)
(-2.98567e-05 0.000224624 0.0109645)
(0.00123249 0.00488977 0.0266318)
(-0.000160425 0.000445391 0.0218102)
(-0.00492101 -0.00834609 0.050985)
(0.00391539 -0.00284083 0.0261042)
(0.0102355 -0.00586562 0.0568698)
(0.00369008 -0.0135685 0.0623176)
(0.00185915 -0.00149568 0.0363822)
(0.00292827 -0.000372801 0.0278833)
(0.00330963 -0.00648813 0.0625195)
(0.00107524 -0.00682324 0.0328781)
(0.00161138 -0.00154385 0.0287684)
(0.000594241 -0.00268061 0.0234534)
(0.00115115 -0.00340557 0.0223495)
(0.00160645 -0.00644006 0.0568402)
(-0.00255182 0.000208115 0.0267507)
(-0.00137672 -0.00116444 0.0155265)
(0.000417888 -0.00182634 0.0379101)
(0.000577428 -0.000894274 0.0328793)
(0.00311063 -0.00213047 0.0251338)
(0.00240635 -0.00158232 0.0170737)
(0.00584993 -0.00826474 0.0283056)
(0.0026908 -0.0120789 0.0246123)
(0.00201385 -0.000744461 0.0218336)