/*--------------------------------*- C++ -*----------------------------------*\
| =========                 |                                                 |
| \\      /  F ield         | OpenFOAM: The Open Source CFD Toolbox           |
|  \\    /   O peration     | Version:  2506                                  |
|   \\  /    A nd           | Website:  www.openfoam.com                      |
|    \\/     M anipulation  |                                                 |
\*---------------------------------------------------------------------------*/
FoamFile
{
    version     2.0;
    format      ascii;
    arch        "LSB;label=32;scalar=64";
    class       volScalarField;
    location    "0.09";
    object      voidfraction;
}
// * * * * * * * * * * * * * * * * * * * * * * * * * * * * * * * * * * * * * //

dimensions      [0 0 0 0 0 0 0];

internalField   nonuniform List<scalar> 
1152
(
0.557597
0.423296
0.41013
0.336396
0.560231
0.43383
0.44173
0.431196
0.344296
0.45753
0.43383
0.47333
0.44963
0.404863
0.452263
0.470697
0.523364
0.43383
0.50493
0.460163
0.45753
0.44173
0.423296
0.436463
0.41013
0.483863
0.412763
0.452263
0.460163
0.444363
0.53653
0.399596
0.399596
0.375896
0.399596
0.460163
0.323229
0.404863
0.420663
0.381163
0.407496
0.404863
0.373263
0.373263
0.383796
0.407496
0.41013
0.43383
0.249495
0.360096
0.399596
0.407496
0.39433
0.339029
0.354829
0.391696
0.383796
0.40223
0.407496
0.439097
0.44173
0.404863
0.44963
0.452263
0.328496
0.510197
0.42593
0.320596
0.389063
0.391696
0.43383
0.396963
0.389063
0.420663
0.391696
0.452263
0.41013
0.352196
0.362729
0.436463
0.48913
0.423296
0.396963
0.44173
0.44963
0.389063
0.391696
0.399596
0.38643
0.354829
0.39433
0.412763
0.50493
0.325862
0.436463
0.49703
0.494397
0.49703
0.562864
0.641864
0.565497
0.636598
0.670831
0.765632
0.53653
0.547064
0.631331
0.702431
0.446997
0.676098
0.573397
0.594464
1
0.997367
1
1
1
1
1
1
1
1
1
1
1
1
1
1
1
1
1
1
1
1
1
1
1
1
1
1
1
1
1
1
1
1
1
1
1
1
1
1
1
1
1
1
1
1
1
1
1
1
1
1
1
1
1
1
1
1
1
1
1
1
1
1
1
1
1
1
1
1
1
1
1
1
1
1
1
1
1
1
1
1
1
1
1
1
1
1
1
1
1
1
1
1
1
1
1
1
1
1
1
1
1
1
1
1
1
1
1
1
1
1
1
1
1
1
1
1
1
1
1
1
1
1
1
1
1
1
1
1
1
1
1
1
1
1
1
1
1
1
1
1
1
1
1
1
1
1
1
1
1
1
1
1
1
1
1
1
1
1
1
1
1
1
1
1
1
1
1
1
1
1
1
1
1
1
1
1
1
1
1
1
1
1
1
1
1
1
1
1
1
1
1
1
1
1
1
1
1
1
1
1
1
1
1
1
1
1
1
1
1
1
1
1
1
1
1
1
1
1
1
1
1
1
1
1
1
1
1
1
1
1
1
1
1
1
1
1
1
1
1
1
1
1
1
1
1
1
1
1
1
1
1
1
1
1
1
1
1
1
1
1
1
1
1
1
1
1
1
1
1
1
0.488804
0.390948
0.483259
0.430467
0.391992
0.392208
0.437713
0.397959
0.503491
0.437593
0.47379
0.477104
0.382564
0.3997
0.465147
0.484719
0.38857
0.40719
0.489678
0.461134
0.478219
0.425447
0.385085
0.426973
0.463929
0.460851
0.478662
0.498763
0.522158
0.475929
0.462973
0.490115
0.411122
0.399069
0.370924
0.364752
0.389782
0.446815
0.407244
0.463241
0.412498
0.365707
0.461609
0.399753
0.40762
0.485457
0.406444
0.498208
0.338452
0.439672
0.351667
0.364752
0.38536
0.41595
0.421093
0.44148
0.398651
0.397422
0.437248
0.390471
0.395092
0.38636
0.402096
0.465835
0.386064
0.458621
0.412649
0.391038
0.394203
0.38746
0.404474
0.44148
0.319526
0.471422
0.449429
0.347154
0.302029
0.361586
0.386876
0.425368
0.478781
0.409896
0.415858
0.303417
0.365461
0.444441
0.387855
0.361691
0.422388
0.412222
0.434812
0.384283
0.389723
0.409229
0.462973
0.414576
0.518874
0.585845
0.602013
0.636375
0.690469
0.62013
0.653764
0.684472
0.711194
0.735711
0.673555
0.641089
0.767343
0.714143
0.641257
0.665472
1
1
1
1
1
1
1
1
1
1
1
1
1
1
1
1
1
1
1
1
1
1
1
1
1
1
1
1
1
1
1
1
1
1
1
1
1
1
1
1
1
1
1
1
1
1
1
1
1
1
1
1
1
1
1
1
1
1
1
1
1
1
1
1
1
1
1
1
1
1
1
1
1
1
1
1
1
1
1
1
1
1
1
1
1
1
1
1
1
1
1
1
1
1
1
1
1
1
1
1
1
1
1
1
1
1
1
1
1
1
1
1
1
1
1
1
1
1
1
1
1
1
1
1
1
1
1
1
1
1
1
1
1
1
1
1
1
1
1
1
1
1
1
1
1
1
1
1
1
1
1
1
1
1
1
1
1
1
1
1
1
1
1
1
1
1
1
1
1
1
1
1
1
1
1
1
1
1
1
1
1
1
1
1
1
1
1
1
1
1
1
1
1
1
1
1
1
1
1
1
1
1
1
1
1
1
1
1
1
1
1
1
1
1
1
1
1
1
1
1
1
1
1
1
1
1
1
1
1
1
1
1
1
1
1
1
1
1
1
1
1
1
1
1
1
1
1
1
1
1
1
1
1
1
1
1
1
1
1
1
1
1
1
1
1
1
1
1
1
1
1
1
0.493816
0.491485
0.416454
0.429096
0.434258
0.444441
0.422793
0.437815
0.322781
0.432173
0.393397
0.478192
0.491801
0.397959
0.461634
0.487417
0.483792
0.438422
0.48371
0.491734
0.439672
0.423073
0.507366
0.437815
0.412649
0.401704
0.425067
0.484715
0.439229
0.408839
0.480198
0.468532
0.411122
0.33893
0.398651
0.414778
0.385534
0.449189
0.424908
0.414946
0.454373
0.432173
0.395833
0.428186
0.469896
0.336304
0.409035
0.452346
0.431169
0.405258
0.465907
0.475627
0.388241
0.408828
0.424908
0.447343
0.361296
0.468181
0.376344
0.462973
0.386657
0.332677
0.35953
0.401087
0.38857
0.387571
0.384804
0.40404
0.347638
0.413576
0.410107
0.371115
0.361296
0.432173
0.364163
0.439057
0.412943
0.459614
0.412129
0.403785
0.458734
0.442844
0.481732
0.402251
0.372
0.408828
0.462965
0.458777
0.374134
0.479261
0.393397
0.423838
0.325322
0.354438
0.405941
0.425368
0.629132
0.677203
0.653829
0.629539
0.702241
0.648621
0.788569
0.683652
0.659786
0.639915
0.590726
0.595599
0.561898
0.506762
0.610149
0.541373
1
1
1
1
1
1
1
1
1
1
1
1
1
1
1
0.997302
1
1
1
1
1
1
1
1
1
1
1
1
1
1
1
1
1
1
1
1
1
1
1
1
1
1
1
1
1
1
1
1
1
1
1
1
1
1
1
1
1
1
1
1
1
1
1
1
1
1
1
1
1
1
1
1
1
1
1
1
1
1
1
1
1
1
1
1
1
1
1
1
1
1
1
1
1
1
1
1
1
1
1
1
1
1
1
1
1
1
1
1
1
1
1
1
1
1
1
1
1
1
1
1
1
1
1
1
1
1
1
1
1
1
1
1
1
1
1
1
1
1
1
1
1
1
1
1
1
1
1
1
1
1
1
1
1
1
1
1
1
1
1
1
1
1
1
1
1
1
1
1
1
1
1
1
1
1
1
1
1
1
1
1
1
1
1
1
1
1
1
1
1
1
1
1
1
1
1
1
1
1
1
1
1
1
1
1
1
1
1
1
1
1
1
1
1
1
1
1
1
1
1
1
1
1
1
1
1
1
1
1
1
1
1
1
1
1
1
1
1
1
1
1
1
1
1
1
1
1
1
1
1
1
1
1
1
1
1
1
1
1
1
1
1
1
1
1
1
1
1
1
1
1
1
1
)
;

boundaryField
{
    inlet
    {
        type            fixedValue;
        value           uniform 1;
    }
    outlet
    {
        type            fixedValue;
        value           uniform 1;
    }
    wall
    {
        type            zeroGradient;
    }
    procBoundary3to1
    {
        type            processor;
        value           nonuniform List<scalar> 
192
(
0.415396
0.428563
0.502297
0.518097
0.333763
0.44173
0.317962
0.412763
0.420663
0.436463
0.48913
0.389063
0.349563
0.373263
0.428563
0.357463
0.45753
0.349563
0.46543
0.44173
0.42593
0.336396
0.420663
0.412763
0.444363
0.602364
0.768265
0.731398
0.9921
0.997367
1
1
1
1
1
1
1
1
1
1
1
1
1
1
1
1
1
1
1
1
1
1
1
1
1
1
1
1
1
1
1
1
1
1
1
1
1
1
1
1
1
1
1
1
1
1
1
1
1
1
1
1
1
1
1
1
1
1
1
1
1
1
1
1
1
1
0.363511
0.398625
0.463929
0.45773
0.383558
0.376516
0.446126
0.387933
0.463745
0.40968
0.372935
0.489944
0.416134
0.403047
0.323482
0.348561
0.371029
0.414102
0.438213
0.506051
0.386064
0.387571
0.412498
0.378985
0.676744
0.705945
0.821969
0.801347
1
1
1
1
1
1
1
1
1
1
1
1
1
1
1
1
1
1
1
1
1
1
1
1
1
1
1
1
1
1
1
1
1
1
1
1
1
1
1
1
1
1
1
1
1
1
1
1
1
1
1
1
1
1
1
1
1
1
1
1
1
1
1
1
1
1
1
1
)
;
    }
    procBoundary3to2
    {
        type            processor;
        value           nonuniform List<scalar> 
192
(
0.354829
0.336396
0.52863
0.439097
0.331129
0.470697
0.46543
0.407496
0.502297
0.454897
0.420663
0.375896
0.45753
0.444363
0.46543
0.328496
0.407496
0.365363
0.439097
0.320596
0.336396
0.407496
0.407496
0.317962
0.594464
0.531264
0.552331
0.565497
1
1
1
1
1
1
1
1
1
1
1
1
1
1
1
1
1
1
1
1
1
1
1
1
1
1
1
1
1
1
1
1
1
1
1
1
1
1
1
1
1
1
1
1
1
1
1
1
1
1
1
1
1
1
1
1
1
1
1
1
1
1
1
1
1
1
1
1
0.416134
0.429578
0.438213
0.448782
0.451216
0.400836
0.467885
0.40762
0.468757
0.425157
0.372935
0.439834
0.466251
0.383149
0.37887
0.389723
0.37604
0.425157
0.400629
0.473837
0.353487
0.45611
0.339307
0.497103
0.694285
0.628563
0.772516
0.819243
1
1
1
1
1
1
1
1
1
1
1
1
1
1
1
1
1
1
1
1
1
1
1
1
1
1
1
1
1
1
1
1
1
1
1
1
1
1
1
1
1
1
1
1
1
1
1
1
1
1
1
1
1
1
1
1
1
1
1
1
1
1
1
1
1
1
1
1
)
;
    }
}


// ************************************************************************* //
