/*--------------------------------*- C++ -*----------------------------------*\
| =========                 |                                                 |
| \\      /  F ield         | OpenFOAM: The Open Source CFD Toolbox           |
|  \\    /   O peration     | Version:  2506                                  |
|   \\  /    A nd           | Website:  www.openfoam.com                      |
|    \\/     M anipulation  |                                                 |
\*---------------------------------------------------------------------------*/
FoamFile
{
    version     2.0;
    format      ascii;
    arch        "LSB;label=32;scalar=64";
    class       surfaceScalarField;
    location    "0.007";
    object      phi;
}
// * * * * * * * * * * * * * * * * * * * * * * * * * * * * * * * * * * * * * //

dimensions      [0 3 -1 0 0 0 0];

oriented        oriented;

internalField   nonuniform List<scalar> 
1200
(
0.00151918
-3.44879e-06
-5.92119e-06
0.00151111
7.95722e-06
-4.66269e-06
0.00150012
9.96166e-06
4.71477e-06
0.00151447
-4.63838e-06
6.58183e-06
0.00152227
-3.86781e-06
4.6118e-06
0.0015345
-2.35397e-06
-2.26964e-05
0.00152623
-3.09523e-06
-1.43808e-05
0.0015136
-3.95623e-06
-4.21351e-07
0.00151367
1.50613e-07
2.43961e-06
0.001516
1.32007e-06
6.71473e-06
0.0015099
4.9529e-06
8.4363e-06
0.0015049
1.87523e-06
6.92896e-07
0.00150684
-9.51132e-07
-6.58112e-06
0.00150652
4.13047e-06
-6.5081e-06
0.0015073
5.43644e-06
-2.4621e-06
0.00151315
-3.63596e-06
2.17985e-06
0.0015128
-2.47771e-06
8.75325e-07
0.00151984
-6.87065e-06
-4.94377e-06
0.00152313
-2.02861e-06
-1.83094e-06
0.00152103
3.62349e-07
2.6923e-06
0.00152688
-1.289e-06
3.00888e-06
0.00152712
-5.27771e-06
2.99171e-06
0.00150855
-7.36874e-07
-9.93564e-07
0.00150021
-9.96577e-08
-5.51592e-06
0.00151153
-3.03673e-06
-4.31828e-06
0.00151753
-2.29321e-06
5.11169e-07
0.00151701
6.60055e-07
1.25647e-06
0.00151912
2.36103e-06
1.65642e-06
0.00152014
-4.11213e-07
4.0273e-06
0.00151567
1.65598e-06
6.02659e-06
0.0015088
6.39634e-06
7.99685e-06
-3.30343e-06
1.86378e-06
0.00152541
4.21236e-06
-3.64451e-06
0.00152108
1.09624e-05
-2.82242e-06
0.00153164
6.98689e-06
6.22406e-08
0.00154766
-6.74823e-06
4.03126e-06
0.00155537
-5.05557e-06
4.07745e-06
0.00155814
-2.91447e-06
-1.21492e-05
0.00154135
-1.17187e-06
-9.56365e-06
0.00152336
-2.64548e-06
2.09858e-06
0.00152691
-4.15202e-06
4.08493e-06
0.00153791
-3.18334e-06
3.43248e-06
0.00154232
2.13997e-06
5.15774e-06
0.00153779
4.3001e-06
3.97795e-06
0.00152917
5.15112e-06
-1.99707e-06
0.00153238
4.02077e-06
-4.38715e-06
0.00154263
1.28182e-06
-1.56601e-06
0.00154342
-4.80003e-06
3.69685e-06
0.00153813
-4.40513e-06
2.46632e-06
0.00153493
-5.50744e-06
-1.99174e-06
0.00153431
-2.01378e-06
-9.25615e-08
0.00153597
-2.2928e-06
-1.0594e-06
0.00153694
-2.88369e-06
5.2115e-07
0.00152905
-4.57972e-07
7.04211e-06
0.00152471
-6.64922e-07
8.29233e-07
0.00152627
-5.32553e-06
-6.50259e-06
0.0015358
-6.32823e-06
-3.90187e-06
0.00153545
1.66815e-06
-1.45052e-06
0.00153135
6.835e-06
-4.78264e-06
0.00152758
3.42036e-06
6.39672e-06
0.00152466
-1.58269e-06
8.99581e-06
0.00152608
-2.19677e-06
4.48771e-06
0.00153561
-2.91948e-06
1.67267e-06
-2.66705e-06
4.98057e-06
0.00152545
5.15469e-07
1.27939e-06
0.00154335
-8.72166e-07
7.32189e-07
0.00155483
6.08813e-06
1.41945e-06
0.0015567
6.6686e-07
-5.66652e-07
0.00155932
-4.04745e-06
3.749e-06
0.00155546
-4.25495e-06
-6.55358e-06
0.00154179
1.14474e-06
-7.54429e-06
0.00153095
-3.8543e-06
-7.90196e-07
0.00153683
-1.10836e-05
1.50231e-06
0.00153689
-8.90045e-07
1.49724e-06
0.00152382
1.33207e-05
2.90105e-06
0.00151715
6.84816e-06
4.38513e-06
0.00152749
-1.89629e-06
-3.34664e-06
0.00154533
-4.11152e-06
-9.6401e-06
0.00153892
4.74234e-06
1.24046e-06
0.00151872
3.34057e-06
3.52927e-06
0.00151691
-2.83374e-06
-3.19015e-06
0.00152711
-2.92345e-06
-7.34062e-06
0.001537
-2.99882e-06
-5.65889e-06
0.0015394
-2.76124e-06
-3.62996e-06
0.0015436
-8.12054e-06
1.93983e-06
0.0015405
-1.02449e-06
3.3465e-06
0.0015271
4.99509e-06
2.76699e-06
0.00151968
-9.24489e-07
-1.5255e-06
0.00150785
8.12155e-07
1.41334e-06
0.00150722
3.60943e-06
-3.58839e-07
0.00151968
2.45748e-07
-6.20041e-06
0.00152407
-2.80011e-07
-2.17575e-07
0.00152546
-7.64958e-06
8.1516e-06
0.00152962
-8.2487e-06
7.75625e-06
0.00153219
-2.24752e-06
3.59277e-06
3.39456e-06
2.66956e-06
0.00153908
4.56925e-06
-1.40635e-06
0.00154061
2.6419e-06
-1.75053e-06
0.00154
9.75029e-06
-4.86497e-07
0.00154032
5.87786e-06
3.99184e-08
0.00155593
-7.3414e-06
-4.24785e-06
0.00157355
-9.33543e-06
-1.04923e-05
0.00157624
-1.16835e-06
-2.10752e-06
0.00155105
5.34532e-06
7.23873e-06
0.00153009
-2.19039e-06
5.65515e-06
0.00153041
-5.04449e-06
9.10882e-06
0.00154516
8.55055e-07
4.21373e-06
0.00155327
-5.72994e-08
1.41548e-06
0.0015438
6.19884e-06
1.00828e-06
0.0015348
4.71216e-06
4.15481e-07
0.00153965
-8.20347e-07
-2.09879e-06
0.00153851
-6.88259e-07
5.15889e-07
0.00153155
2.31454e-06
6.9153e-07
0.00153249
-1.88239e-06
-1.99877e-06
0.00152998
-3.79035e-06
-1.45744e-06
0.00152387
-8.45713e-07
-9.57288e-07
0.00152058
-6.55347e-06
2.20028e-06
0.00152338
-4.51369e-06
6.131e-07
0.00152315
4.03661e-06
-1.54352e-06
0.00152007
3.02898e-06
-2.25435e-06
0.0015229
-1.74792e-07
-1.42342e-06
0.00153331
-3.54982e-07
-5.73112e-06
0.00153902
-3.15436e-06
-4.05707e-06
0.00153492
-2.21132e-06
3.47972e-06
0.00153367
-4.64022e-06
4.33619e-06
0.00154465
-1.03347e-05
1.28527e-06
0.00154792
-9.01497e-07
1.70887e-06
5.71509e-06
-1.74699e-07
0.00153111
9.27834e-06
1.5804e-06
0.00152328
1.36373e-05
2.11178e-06
0.00153131
6.32851e-06
2.07058e-06
0.00153293
3.67846e-06
1.20514e-06
0.00153511
-1.01802e-05
-7.52953e-07
0.00155115
-1.66338e-05
-8.11602e-06
0.00156229
-3.85725e-06
-5.74467e-06
0.00154301
1.60757e-05
6.50327e-06
0.00151915
1.08375e-05
4.05057e-06
0.00152595
-5.26689e-06
-2.71174e-06
0.00154387
-1.04705e-05
-2.4463e-06
0.00153823
-4.64031e-06
8.02333e-06
0.00153148
8.55242e-06
3.4438e-06
0.00153686
6.32984e-06
-7.36044e-07
0.00153899
5.86892e-07
-2.92164e-06
0.00153843
6.217e-07
-4.65006e-06
0.00154275
1.36722e-06
-3.82021e-06
0.00154245
6.41666e-07
3.0447e-07
0.00154507
-3.47129e-06
-1.45596e-06
0.00154802
-4.15405e-06
-4.10858e-07
0.00153961
-1.13552e-06
-2.79316e-06
0.00153311
1.45437e-06
-1.66762e-06
0.00153802
8.99505e-07
-1.22277e-06
0.00154262
-9.28874e-07
-3.35222e-06
0.00154376
3.00688e-07
-3.61832e-06
0.00154195
5.11967e-06
-2.69306e-06
0.00153483
3.15575e-06
1.58272e-06
0.00152921
-1.1388e-06
-2.23413e-06
0.00152823
-1.67052e-06
-2.41995e-06
0.00153428
-9.01557e-06
4.72558e-06
0.00153922
-8.10577e-06
6.99362e-06
-3.11566e-06
2.92222e-06
0.001531
-4.68875e-06
4.56961e-06
0.00153915
7.34323e-06
-1.61262e-06
0.00154693
4.19855e-06
-6.26341e-06
0.00154256
7.49181e-06
-7.18408e-07
0.00152614
2.99433e-06
3.79973e-06
0.00151491
-4.93424e-06
5.80406e-06
0.0015149
-7.15231e-07
3.55451e-06
0.00153215
3.7672e-06
-4.64388e-07
0.00154814
-7.37511e-07
-4.24284e-06
0.00155647
-7.9909e-06
-2.8681e-06
0.0015507
-5.7127e-06
2.23647e-06
0.00153083
5.2562e-06
9.35429e-06
0.0015326
7.26923e-06
7.89224e-07
0.00153004
9.53383e-06
-1.904e-06
0.00152478
-1.50004e-06
8.19639e-07
0.00153493
-7.96056e-06
-4.06776e-06
0.00153693
2.33535e-06
-1.61028e-06
0.00153011
6.98204e-06
2.63134e-06
0.00152786
-6.34395e-06
9.67453e-08
0.00152591
-1.0207e-05
1.75855e-06
0.00152472
-2.42694e-06
3.68308e-08
0.00152567
2.01831e-06
-2.75189e-06
0.00153012
-4.38816e-06
1.35722e-06
0.00152732
-2.86397e-06
2.82709e-06
0.00151804
7.44905e-06
-1.43293e-06
0.00152681
4.11365e-06
-8.03903e-06
0.00154093
-1.43278e-06
-4.29466e-06
0.00154338
-3.32048e-07
-2.32419e-06
0.00153485
6.5428e-06
-1.28624e-06
0.00151515
6.44008e-06
2.08894e-06
0.00151066
-4.72017e-06
3.57626e-06
-1.73422e-05
2.10397e-06
0.0015268
-3.29799e-06
2.1693e-06
0.00152505
6.23092e-06
-2.57191e-06
0.00151883
3.48471e-06
-3.04804e-06
0.00153227
-6.02916e-07
-8.14182e-07
0.00153781
-4.1436e-07
5.44657e-06
0.00152375
-1.74718e-06
1.33717e-05
0.00151965
1.29466e-06
5.75483e-06
0.00152843
2.11996e-06
-2.49926e-06
0.00153163
-1.65247e-06
-8.50928e-08
0.00152244
-2.07186e-06
4.10953e-06
0.00151562
-9.21185e-07
4.42442e-06
0.00151972
3.0708e-06
-6.71823e-08
0.00152349
-3.02711e-07
4.26278e-06
0.00153774
-8.86889e-07
3.84012e-06
0.00154097
4.68657e-07
-8.07947e-06
0.00153261
1.0155e-07
-5.92699e-06
0.00154161
3.68001e-06
-8.77613e-06
0.00155047
5.24239e-06
-4.0177e-06
0.00154445
-3.51393e-06
-9.23957e-07
0.00153638
-7.00658e-06
6.22919e-06
0.00153329
-2.59008e-06
8.61181e-06
0.00153974
-3.90729e-07
3.29588e-06
0.00153468
-2.36365e-06
-3.95709e-07
0.00152113
1.45219e-06
-1.63468e-06
0.00153192
6.97578e-07
-5.42058e-06
0.00154505
-2.53693e-06
-7.32324e-06
0.00154719
-4.51252e-07
1.72644e-06
0.00154523
2.56932e-06
7.59377e-06
0.00154736
-6.5165e-07
-2.34979e-06
0.00154847
1.72315e-06
-1.29985e-05
0.0015393
1.20693e-07
-1.24231e-06
-9.05627e-06
7.57017e-06
0.00150812
-7.40651e-08
0.0015101
1.76463e-06
0.00151543
-2.04649e-06
0.00152003
-1.62607e-06
0.00151986
3.61793e-06
0.00151208
6.11864e-06
0.00151957
1.88723e-07
0.00153149
-4.78264e-06
0.00152373
4.8828e-06
0.00150742
1.21349e-05
0.00150808
1.43852e-06
0.00151933
-3.25295e-06
0.00151856
2.73718e-06
0.00151926
-4.65665e-06
0.00151905
-3.76097e-06
0.00151609
3.89715e-06
0.00152775
-4.10557e-06
0.0015394
-4.13908e-06
0.00152488
4.56743e-06
0.00150937
8.44585e-06
0.0015077
-2.77142e-06
0.00150502
-8.37586e-07
0.00150574
-4.56954e-07
0.00151291
-6.13813e-06
0.00151935
-8.89163e-06
0.00151662
-5.69777e-06
0.00151263
5.28274e-06
0.00152181
6.85218e-06
0.0015301
-4.13361e-06
0.00152631
-6.94797e-06
0.0015179
1.93074e-06
1.8405e-06
0.00151868
-1.65431e-06
0.00151015
5.65046e-06
0.00150921
6.7001e-06
0.00151836
-3.26871e-06
0.00153251
-2.11196e-06
0.00152569
-1.43621e-06
0.00151678
-1.67601e-06
0.00151028
-3.67619e-06
0.00150523
-3.12884e-07
0.00150656
-5.27049e-07
0.00150838
2.20918e-07
0.00150527
7.27549e-07
0.00150774
-4.11588e-06
0.00151034
-4.73398e-06
0.00150461
3.19663e-06
0.00150468
2.12776e-06
0.00151396
-6.56237e-06
0.00151731
-1.75292e-06
0.0015189
4.25781e-06
0.00152191
3.52619e-06
0.00151698
5.12674e-06
0.0015158
-9.00806e-07
0.00151606
-1.20274e-06
0.00151226
-1.64864e-07
0.00150311
4.36299e-06
0.00150028
2.0119e-06
0.00150806
-6.4611e-06
0.0015119
-3.40603e-06
0.00151634
-4.365e-06
0.00151891
-1.38779e-06
0.00151935
4.13016e-06
-1.08885e-06
0.00154001
9.82072e-07
0.00153338
1.06316e-05
0.00153043
8.56298e-06
0.00154131
-6.334e-06
0.00155609
-3.39682e-06
0.00154503
4.56244e-06
0.00153261
1.74788e-06
0.00152683
-7.25312e-06
0.00152913
-2.29646e-06
0.00152985
-3.20164e-07
0.0015293
-4.11648e-06
0.00152888
-2.56903e-06
0.00152601
-1.78087e-06
0.00152462
-3.73145e-06
0.00152749
2.0996e-06
0.00152631
4.94809e-06
0.00151796
2.78077e-06
0.00151739
1.86733e-06
0.00152704
-1.99778e-06
0.00152968
-2.27786e-07
0.00153728
-1.98272e-06
0.0015412
-1.31475e-06
0.00153523
5.65086e-06
0.00153085
2.77968e-06
0.00153253
2.03044e-06
0.0015256
6.91278e-06
0.00151884
-1.92404e-06
0.00153073
-7.08831e-06
0.00153017
-2.73792e-06
0.00152906
-1.29116e-06
0.00153548
-2.15496e-06
-5.68214e-06
0.00152608
-3.71065e-06
0.00154819
2.74836e-07
0.00155706
8.11836e-06
0.00154622
2.53576e-06
0.00154888
-4.49298e-06
0.00155386
1.56958e-06
0.00154907
2.58614e-06
0.00152935
-1.07677e-06
0.0015315
-6.54805e-06
0.00153749
-1.78708e-07
0.00152904
5.90834e-06
0.00153226
-9.82193e-07
0.00153084
2.00596e-06
0.00151967
2.96871e-06
0.00152521
7.21976e-07
0.00153358
-1.5606e-07
0.0015337
-1.70356e-07
0.00153314
-1.52464e-06
0.00153389
-2.75463e-06
0.00152989
-7.61199e-07
0.00152789
-5.37254e-06
0.00152654
-1.16829e-06
0.00152747
4.35101e-06
0.00152379
3.05662e-06
0.00152915
-2.04053e-06
0.00154062
-1.15557e-06
0.00153866
2.0853e-07
0.0015362
-7.56215e-07
0.00153453
1.66419e-06
0.00153833
-7.13995e-07
0.00153145
1.31349e-06
-7.47811e-07
0.00152834
-2.489e-06
0.00152901
4.93986e-07
0.00152994
7.0754e-06
0.0015328
-1.04563e-06
0.00153814
-1.57269e-05
0.00155149
-8.30925e-06
0.00156053
6.63321e-07
0.00153865
1.5685e-05
0.0015206
7.0864e-06
0.00152699
-4.94785e-06
0.00153717
-4.61124e-06
0.00153302
4.03466e-06
0.00153087
8.48195e-06
0.00153148
4.20867e-06
0.00153351
-2.37495e-06
0.00153946
-7.49254e-06
0.00154025
-2.61029e-06
0.00153665
8.08141e-07
0.00154
-2.21974e-06
0.00153989
-2.24076e-06
0.00153296
-8.42251e-07
0.00152924
9.92418e-07
0.00152857
3.14416e-06
0.00152641
1.128e-06
0.00152868
-2.72685e-06
0.00153117
-5.02269e-07
0.00153254
2.70962e-06
0.00154047
-2.35046e-06
0.00154552
9.96967e-07
0.00154137
3.38205e-06
0.0015368
2.97602e-06
-6.839e-07
0.0015396
1.24635e-06
0.00153055
1.10499e-05
0.00152875
1.18215e-05
0.00153066
-1.59987e-06
0.00152525
-1.36488e-05
0.00152321
-7.92298e-06
0.00152826
-7.40028e-07
0.00154088
7.98094e-06
0.00154349
3.55956e-06
0.00153408
-1.11658e-06
0.00151991
-3.33623e-06
0.00152313
4.44946e-06
0.00152279
1.00303e-05
0.00152861
2.54673e-06
0.00153407
-5.64667e-06
0.00153046
-4.85806e-06
0.00153241
-5.01152e-06
0.00154134
-4.64659e-06
0.0015417
-8.99467e-07
0.00153893
1.67547e-06
0.00153395
1.3775e-06
0.00153177
1.36537e-06
0.00153647
4.67396e-07
0.00153733
2.85447e-08
0.00153308
-1.92536e-06
0.00152875
8.15155e-07
0.00153437
4.69604e-07
0.00153532
-2.2245e-06
0.00153133
6.98139e-07
0.00153239
-1.51503e-06
0.00153868
-2.93302e-06
-5.91899e-06
0.00151323
1.51678e-07
0.00152933
5.70615e-06
0.00153223
1.07527e-05
0.00152527
-2.17872e-06
0.00151006
-7.2593e-06
0.00151739
-4.02295e-06
0.00154133
-3.23741e-06
0.00155678
-4.09007e-06
0.00154715
3.19886e-07
0.00153003
3.34519e-06
0.00152809
-2.40115e-06
0.001541
8.30356e-07
0.00154252
1.40804e-05
0.00153885
8.2889e-06
0.00153809
-9.17688e-06
0.00153147
-7.17428e-06
0.0015302
-3.54653e-06
0.00153584
-5.83743e-06
0.00153562
-4.02604e-06
0.00153683
-9.32696e-07
0.00153669
1.39235e-06
0.00153183
4.94392e-06
0.0015356
5.25125e-07
0.00153812
-8.96565e-07
0.00153168
2.24131e-06
0.00152642
6.06978e-07
0.00152654
-1.78853e-07
0.00152826
-2.11977e-06
0.00153438
-2.5725e-06
0.00153171
-1.18253e-06
0.00151825
1.16049e-07
-3.1046e-06
0.00151306
2.95364e-06
0.00152214
6.36195e-06
0.0015359
1.11373e-06
0.00153174
-4.88988e-06
0.00152058
-1.50487e-06
0.00152724
-2.01837e-06
0.00153207
-2.76715e-06
0.0015352
-5.17277e-06
0.00154418
-6.13246e-06
0.00154989
1.24527e-06
0.0015456
3.47115e-06
0.00154517
2.05416e-06
0.00156351
1.51054e-06
0.00157326
5.42584e-06
0.00155575
3.33903e-06
0.0015365
2.55671e-06
0.00152332
6.85178e-07
0.00152114
-2.75785e-06
0.00152065
-3.25961e-06
0.00152641
-5.21775e-06
0.00153437
-1.40222e-06
0.00153985
4.6161e-06
0.00153806
3.94958e-06
0.0015378
-1.2834e-06
0.00153771
-1.38624e-06
0.00153222
-9.00734e-07
0.00153743
-1.92927e-06
0.0015459
-3.13935e-06
0.00154057
-4.71263e-06
0.00153002
-3.89833e-06
0.00152099
1.67867e-06
2.56593e-06
0.00150182
0.00151886
0.00152187
0.00151194
0.00151125
0.00151392
0.00151397
0.00150564
0.00150205
0.00151107
0.00151416
0.00151361
0.00151985
0.00152519
0.00152603
0.00151764
0.00150877
0.00150861
0.00151038
0.00150741
0.0015024
0.00151151
0.00151883
0.00151282
0.00151045
0.00151253
0.00151957
0.00152342
0.00150895
0.00149767
0.00150015
)
;

boundaryField
{
    wall
    {
        type            calculated;
        value           uniform 0;
    }
    outlet
    {
        type            cyclic;
        value           nonuniform List<scalar> 
16
(
0.00151417
0.00153234
0.00152295
0.0015425
0.00154162
0.00152296
0.00152887
0.00151066
0.00152257
0.00154484
0.00151944
0.00153215
0.0015434
0.00150876
0.00151172
0.00149835
)
;
    }
    inlet
    {
        type            cyclic;
        value           nonuniform List<scalar> 
16
(
-0.00151417
-0.00153234
-0.00152295
-0.0015425
-0.00154162
-0.00152296
-0.00152887
-0.00151066
-0.00152257
-0.00154484
-0.00151944
-0.00153215
-0.0015434
-0.00150876
-0.00151172
-0.00149835
)
;
    }
    procBoundary2to1
    {
        type            processor;
        value           nonuniform List<scalar> 
256
(
4.35553e-06
4.78252e-06
-3.69507e-06
-1.62848e-05
-8.54911e-06
1.28246e-05
2.57398e-05
1.70082e-05
-2.66278e-06
-1.03598e-05
-7.2887e-06
2.43385e-06
5.58636e-06
2.69707e-06
-3.74684e-06
-4.39818e-06
1.95154e-06
4.77362e-06
5.72017e-07
-9.51173e-07
-7.56846e-06
2.04376e-06
2.03003e-05
1.39559e-05
-3.96587e-06
-4.21943e-06
-1.40043e-06
-6.12822e-06
-4.62724e-06
-3.21341e-06
-7.52567e-06
-3.93019e-06
2.91035e-06
4.15558e-06
-7.64768e-06
-1.79442e-05
-1.05978e-05
9.93768e-06
2.44252e-05
1.45816e-05
-3.33349e-06
-9.9275e-06
-6.75583e-06
-1.86795e-06
4.50966e-06
1.29406e-06
-4.53354e-06
-3.32265e-06
4.75258e-06
3.82599e-06
6.97464e-07
2.05149e-06
1.09455e-07
-3.97289e-06
3.44184e-06
1.01676e-05
-2.34332e-06
-2.15969e-06
2.70933e-06
-3.68459e-06
-4.9006e-06
-2.06203e-06
-1.88216e-06
-2.34875e-06
-8.09088e-08
-6.79473e-06
-1.20045e-05
-8.7133e-06
-7.37514e-06
1.17482e-05
1.88979e-05
1.28417e-05
-4.50848e-07
-3.85429e-06
-1.00584e-06
-2.70877e-07
5.33371e-08
-6.66944e-08
1.71099e-06
8.5279e-06
3.42895e-06
-5.44127e-06
-3.24942e-06
1.69925e-06
-9.00147e-07
3.19168e-07
4.9731e-06
4.54797e-06
3.27817e-06
-9.52263e-07
3.26807e-07
-4.70841e-07
-3.47714e-06
-5.86481e-06
-6.83615e-06
5.08171e-07
7.69476e-07
-3.29435e-06
-2.5646e-06
-5.5694e-06
-8.06531e-06
-2.05014e-06
1.72956e-06
8.75764e-06
6.40384e-06
-5.27348e-06
-6.49401e-06
-2.61776e-06
3.61307e-07
-2.40592e-07
2.81477e-06
4.64969e-06
1.11992e-06
2.27373e-08
4.75721e-06
5.14852e-06
-4.76352e-07
8.22451e-08
2.72705e-06
1.37855e-06
-4.1872e-07
-7.13272e-07
1.7492e-06
2.54889e-06
-6.09156e-06
-1.01752e-05
-6.33237e-06
3.27625e-06
4.21553e-06
-5.27695e-06
-6.67414e-06
-6.23239e-07
1.40773e-06
-6.29175e-07
-2.69793e-06
2.04599e-06
6.77453e-06
-3.85766e-06
-4.14998e-06
2.19489e-06
9.50398e-07
-6.25358e-06
-6.23642e-07
3.90894e-06
4.40757e-07
-2.52348e-06
-1.48688e-06
7.73751e-07
5.78193e-06
2.19763e-06
-5.50028e-07
2.71007e-06
2.00082e-06
-9.67092e-07
-7.73797e-07
6.78368e-06
4.25751e-07
-1.20919e-05
-4.73158e-06
3.51065e-06
1.35793e-06
-2.44148e-07
6.17855e-07
1.27299e-06
-5.58808e-07
-6.2681e-06
-6.68427e-06
-4.47928e-06
-1.71821e-07
-2.74487e-06
-1.22229e-06
6.22017e-07
-1.27696e-06
1.25906e-06
6.52753e-06
2.50632e-06
-1.36602e-06
-2.14401e-06
5.01921e-06
6.24465e-06
2.45105e-06
1.23191e-06
-5.17157e-07
1.91071e-06
3.55757e-06
2.74386e-07
-5.22779e-06
-9.37842e-07
1.60523e-06
2.15077e-06
-2.4735e-06
-1.74027e-07
-1.49184e-06
5.43257e-06
9.9878e-06
-4.53389e-06
-7.57706e-06
-2.50415e-06
-3.6654e-06
-4.62811e-06
-2.20446e-06
-8.39917e-07
-2.39059e-06
-1.84617e-06
-4.66395e-07
-7.6615e-06
2.8742e-06
6.22865e-06
-1.56614e-06
-3.10509e-06
4.11501e-06
-1.36178e-06
-5.35433e-06
-7.34572e-06
3.43849e-06
1.08687e-05
1.3792e-06
8.39377e-07
-4.84811e-06
-8.52668e-06
7.41427e-06
1.66053e-05
5.56498e-06
-5.42252e-06
-6.79251e-07
2.4798e-06
2.04252e-07
-3.57812e-06
-3.85673e-06
-8.51632e-08
-6.38754e-06
-5.01784e-06
1.22836e-06
2.09861e-06
-3.02049e-06
-4.92915e-06
-2.26767e-06
3.07641e-06
4.43598e-06
-8.37269e-07
-3.87363e-06
-2.26492e-06
6.43675e-06
5.40812e-08
1.84858e-06
3.13449e-06
-2.62743e-06
4.20619e-07
3.14484e-06
5.89238e-06
-1.74332e-06
-1.34605e-05
-4.80583e-06
1.24578e-05
6.59887e-06
-3.65937e-06
)
;
    }
    procBoundary2to3
    {
        type            processor;
        value           nonuniform List<scalar> 
256
(
-3.79241e-07
-1.7832e-06
-1.03664e-06
7.01257e-07
-7.42656e-06
-1.44466e-05
-3.7951e-06
9.75949e-06
7.79939e-06
5.90981e-06
6.39968e-06
3.07786e-06
-4.94134e-06
-4.37355e-06
6.93244e-08
-1.69935e-08
-1.83756e-06
-6.54332e-06
-7.68035e-06
-3.84094e-06
2.81425e-06
5.06933e-06
-4.9549e-08
-1.54845e-06
4.68028e-07
1.32634e-06
-6.40506e-08
1.22099e-06
3.95289e-06
4.84441e-06
3.4307e-06
-2.71432e-07
-1.45989e-06
-1.16802e-06
1.14719e-06
-3.78023e-06
-9.41743e-06
-7.09078e-06
-5.68151e-07
1.14549e-05
3.76924e-06
2.50705e-06
1.005e-05
7.68709e-06
-1.46382e-06
-3.99855e-06
-3.33433e-06
2.05706e-06
1.46817e-06
-5.03551e-06
-3.49518e-06
6.21461e-08
2.31711e-08
3.53772e-06
-4.78206e-08
-5.06839e-06
-3.25107e-06
5.77619e-07
-2.55803e-06
-1.8133e-06
7.92515e-06
5.50362e-06
1.53506e-06
2.22933e-07
-6.62872e-07
-1.10204e-05
-7.0089e-06
1.4033e-06
2.18257e-06
-8.54042e-06
-3.58495e-06
1.275e-05
3.60476e-06
-4.62985e-06
1.31701e-06
-4.16023e-07
-5.71014e-06
-5.1707e-06
-2.92404e-06
2.62674e-07
-3.57058e-07
-3.39589e-06
-5.64344e-06
8.94288e-07
7.33387e-06
4.55126e-06
3.13129e-06
1.87707e-06
1.2462e-07
-3.75953e-06
-6.37018e-06
-4.09137e-06
5.42337e-06
3.38012e-06
7.00294e-06
9.7398e-06
1.18477e-06
-2.64309e-06
-3.69173e-07
7.63286e-07
1.63997e-06
-1.39616e-05
-9.22201e-06
1.23519e-05
1.00761e-05
7.47991e-06
4.55853e-06
5.46376e-07
-3.31702e-06
-1.43783e-06
-1.0297e-06
1.90887e-06
2.34024e-06
-7.38233e-07
-5.34024e-06
6.28982e-07
4.60346e-06
2.17724e-06
3.27472e-07
1.83288e-06
-3.00697e-06
-8.87269e-06
-7.92625e-06
-2.85716e-06
-4.14348e-08
1.33414e-06
4.61548e-06
4.41205e-06
1.64743e-06
6.05723e-07
-8.74931e-07
-1.50584e-07
2.5743e-06
-6.45966e-06
-9.39213e-06
1.58463e-06
4.97216e-06
2.86625e-06
1.04473e-05
4.38601e-06
2.2422e-06
-4.89718e-06
-5.10643e-06
-3.67997e-06
-3.36707e-06
-3.17281e-06
-3.12951e-06
-1.56393e-06
-3.22466e-08
1.43309e-07
-3.24697e-06
-3.11718e-06
-1.69374e-07
3.23185e-07
-1.79466e-06
-3.31321e-06
1.87222e-06
8.55676e-06
6.61357e-06
3.43743e-06
1.19987e-06
-1.23669e-05
-8.10202e-06
6.82127e-06
1.26267e-05
-5.42433e-06
-1.78941e-05
-3.84158e-06
8.62482e-06
9.79468e-06
3.23741e-06
6.73065e-08
-4.77929e-06
-3.97854e-06
5.10729e-06
4.86668e-06
-1.80557e-06
-1.81985e-06
3.4518e-06
3.15436e-06
1.63284e-07
-1.47492e-06
-2.4674e-06
1.23345e-06
8.4279e-07
-2.57469e-06
-3.76605e-06
-4.14506e-06
-4.14277e-06
4.43108e-06
1.39887e-05
8.77091e-06
-1.97122e-06
-1.23108e-05
-7.16834e-06
6.06183e-06
1.08506e-05
4.70876e-06
4.48612e-07
-4.53727e-06
-2.62247e-06
5.03966e-07
2.83849e-06
-8.6103e-07
-1.50137e-06
-3.04716e-06
-3.08579e-06
3.58995e-06
1.68432e-07
-4.91021e-06
-1.2018e-06
4.74985e-06
3.44993e-06
-1.8527e-06
-2.03227e-06
-9.92645e-07
-1.69886e-06
-3.21742e-07
-1.73446e-06
1.38314e-07
5.12449e-06
2.62996e-07
6.22756e-06
1.11664e-05
-5.94178e-07
-8.90593e-06
-3.94707e-06
3.41108e-06
2.80512e-06
1.43727e-06
-2.62806e-06
-1.63338e-06
2.34125e-06
4.35928e-06
1.82144e-06
-6.4963e-07
-1.99428e-06
-4.56434e-06
-1.26559e-06
1.48415e-05
5.4543e-06
-6.74188e-06
-4.61998e-07
6.20403e-06
8.37874e-07
-5.33041e-06
-3.82907e-06
-1.41583e-06
-7.90624e-06
-8.67494e-06
-3.69058e-06
-1.35746e-07
5.61776e-06
4.42867e-07
1.12917e-06
6.20132e-06
)
;
    }
}


// ************************************************************************* //
