/*--------------------------------*- C++ -*----------------------------------*\
| =========                 |                                                 |
| \\      /  F ield         | OpenFOAM: The Open Source CFD Toolbox           |
|  \\    /   O peration     | Version:  2506                                  |
|   \\  /    A nd           | Website:  www.openfoam.com                      |
|    \\/     M anipulation  |                                                 |
\*---------------------------------------------------------------------------*/
FoamFile
{
    version     2.0;
    format      ascii;
    arch        "LSB;label=32;scalar=64";
    class       volScalarField;
    location    "0.006";
    object      p;
}
// * * * * * * * * * * * * * * * * * * * * * * * * * * * * * * * * * * * * * //

dimensions      [0 2 -2 0 0 0 0];

internalField   nonuniform List<scalar> 
512
(
0.619199
1.71406
2.14715
1.4093
0.525977
0.865825
1.55826
1.44127
1.05431
0.941291
-0.39158
-2.02005
-1.0064
0.837983
1.06368
0.397322
0.431899
0.870967
1.13428
1.63921
1.91606
1.5171
1.68234
3.03695
2.79622
1.52139
1.41752
1.97668
1.91166
1.2093
0.285413
-0.466698
0.679822
2.09733
2.30811
0.988994
0.42774
1.14682
1.9263
1.61854
0.991143
0.93155
-0.299994
-2.01603
-1.10963
0.497214
0.590338
0.439302
0.868358
1.36451
1.55635
1.35818
1.13507
1.08229
1.43401
2.80649
2.80972
1.47317
1.63151
2.20175
2.03274
0.949744
-0.0855358
-0.649496
0.432211
1.9173
2.2939
1.18325
0.808763
1.68256
2.22273
1.48449
0.461777
0.21498
-0.213179
-1.12316
-1.19046
-0.293066
0.155706
0.779511
1.17314
1.23673
1.57812
1.37683
1.49856
1.2546
1.21005
2.30458
2.72456
1.92963
1.38536
1.65549
2.03422
1.49782
0.264326
-0.671551
0.311333
1.35379
1.72641
1.53985
1.66012
2.1867
2.52841
1.35418
0.0444036
-0.909429
-0.966649
-0.812596
-0.485328
-0.261397
-0.0250931
0.870637
1.27789
1.20389
1.69432
2.29697
2.10306
1.72561
1.35004
1.19506
1.60994
1.69887
1.51473
1.4846
2.18647
2.05393
0.968982
-0.178215
1.5339
1.9363
1.8147
1.67655
2.3119
2.77989
2.15938
0.78073
-0.303916
-1.52157
-2.10475
-1.11994
0.141356
0.239564
0.165186
0.818081
1.0078
1.49039
1.86781
1.72753
2.08014
2.06456
1.11057
0.546695
1.32479
2.32508
1.88515
1.19117
2.07995
2.04245
0.849689
0.756365
1.63271
1.75171
2.63692
2.66701
2.65357
2.2669
1.29172
0.140616
-0.734351
-1.78962
-2.13878
-1.31629
-0.449821
0.0401755
0.554328
1.11895
1.25775
1.25107
1.58364
2.27081
2.29127
1.2491
0.285444
0.21636
1.4123
2.55725
1.94632
1.47596
1.82449
2.26642
1.66622
1.5866
1.10915
1.71656
3.55827
4.06928
2.38137
1.36517
0.950079
0.0649996
-0.999353
-1.89689
-1.98148
-1.41185
-0.463987
0.163621
0.451259
0.752429
1.29441
1.62144
1.89258
2.56863
2.33139
0.725357
-0.337884
0.282425
1.83325
2.51472
2.10956
0.955403
0.762276
2.34428
3.03399
2.05099
0.509629
1.97507
4.17922
3.78877
1.72966
1.04671
1.24613
0.158146
-1.41576
-1.88645
-1.32512
-0.94064
-0.527509
0.200307
0.755669
0.915657
1.23554
1.64301
2.02536
2.32174
2.11031
1.17965
-0.131578
-0.430022
1.10908
2.37848
2.02177
1.35935
0.808041
1.57372
3.04874
2.00432
1.14529
2.67521
2.74357
1.2683
0.530267
1.23469
1.84544
1.21059
0.439743
0.353434
-0.827424
-2.44026
-1.33733
0.901813
2.1395
0.880524
-0.420794
0.52579
1.69713
2.26907
2.2674
1.69968
1.1813
1.69709
2.03239
1.3569
1.66714
1.67357
0.909101
1.00519
1.35185
1.06035
0.900313
2.65602
2.83369
1.43221
0.814769
1.61468
2.09353
1.06114
-0.214331
-0.269392
-0.519575
-1.37436
-1.46568
0.504418
1.82861
0.900632
-0.20757
0.569267
1.45721
1.86784
2.19685
1.60381
0.971703
1.43715
2.18013
1.99102
2.15131
1.81859
1.00886
1.04797
1.15546
0.773919
0.754027
2.20163
2.34699
1.64124
1.63405
2.189
2.78012
1.25643
-1.10707
-0.756516
-0.643111
-1.33431
-0.744871
0.622752
1.03068
0.518445
0.751228
1.28487
1.27474
1.3893
1.86493
1.47997
1.06886
1.5043
1.81123
1.70114
1.80204
1.82039
1.62543
1.30695
1.24219
0.588537
0.74609
1.82668
2.3061
1.84116
1.96768
2.66607
2.95701
1.05136
-1.34425
-1.98355
-1.55478
-0.514167
0.124832
-0.211611
-0.306479
0.817767
1.22439
1.21015
1.44637
1.43975
1.52752
1.61932
1.79682
1.64554
1.53994
1.30612
1.47046
1.96111
2.50874
1.79579
1.5586
0.640357
1.67153
1.75645
2.15244
2.11193
2.52704
2.69516
1.97819
0.226083
-1.488
-1.61615
-1.21468
-1.0655
-0.210455
0.0782588
0.027742
0.399006
0.669621
1.21336
1.63135
1.7429
1.81618
1.79335
1.3915
1.40998
1.91926
2.05139
1.83652
1.43335
2.15712
1.98753
1.19133
1.18336
1.53766
1.48013
2.63707
3.63882
3.42288
2.02502
0.323075
-0.676697
-0.809151
-0.755248
-0.918886
-1.46408
-0.78928
-0.115558
0.0405666
0.572788
1.10919
1.53987
1.92038
2.33194
2.27564
0.977878
0.0870558
0.592299
1.6402
2.19231
1.59032
1.20233
1.75456
2.33224
1.68653
1.7494
0.881847
1.53211
3.38961
4.48856
2.84058
0.934673
0.168096
0.177569
-0.232386
-0.592581
-1.15333
-1.97761
-1.1528
0.13345
0.71635
0.646185
0.926766
1.58758
2.0982
2.81681
2.25222
0.993358
-0.0268876
0.120122
1.38252
2.13997
1.99286
1.24509
0.865243
2.15478
2.77728
1.86445
0.987114
2.03989
3.00374
3.24237
2.53741
1.54111
1.02947
0.523936
-0.249418
-0.65628
-1.3092
-1.87352
-0.855121
0.208681
1.2506
1.05971
0.710372
1.31766
1.95429
1.85739
1.44064
1.06051
0.381302
0.221563
1.11679
2.14893
2.08065
1.58408
1.16395
1.37713
2.21426
1.7578
)
;

boundaryField
{
    wall
    {
        type            zeroGradient;
    }
    outlet
    {
        type            cyclic;
    }
    inlet
    {
        type            cyclic;
    }
    procBoundary1to0
    {
        type            processor;
        value           nonuniform List<scalar> 
256
(
-0.0140007
1.37342
2.24959
1.97387
0.82179
0.792162
1.71506
1.70943
0.503179
-0.505065
-0.726016
-0.866028
-0.36033
0.0282273
0.421297
0.884717
1.25106
1.46538
1.45818
1.61027
1.60894
1.14435
1.95705
3.36198
3.50333
1.97398
1.29271
1.60277
1.97744
1.44604
-0.125268
-1.49467
-0.0230244
1.49588
1.74126
1.31819
0.945841
1.2877
2.05578
1.82508
0.577591
-0.528083
-0.765112
-0.925269
-0.398992
-0.0382935
-0.0184914
0.775636
1.75381
2.09063
1.60494
1.34367
1.32072
1.10371
1.48339
3.03816
3.3133
2.01495
1.59274
2.01629
2.03437
1.13603
-0.537265
-1.75492
0.0188446
1.56807
2.06224
1.37721
0.920954
1.49354
2.26595
1.74422
0.268633
-0.689351
-0.624303
-1.03193
-0.949179
-0.00372838
0.266962
0.903068
1.57436
1.62313
1.77998
1.81715
1.50612
1.6072
1.63598
1.62782
2.44149
2.71272
2.06013
1.86738
1.98683
1.33762
-0.363078
-1.62687
-0.00829401
1.30533
1.83536
1.50748
1.31503
2.30472
2.9466
1.69921
0.0436675
-1.60139
-1.97773
-1.04565
-0.615549
0.024105
0.695951
1.46825
1.79655
1.26647
1.41738
1.71593
2.14284
2.5671
1.81947
1.03657
1.8707
2.52829
1.50366
0.990918
2.01432
2.04784
0.46059
-0.930515
0.446244
1.37562
2.04079
2.10093
1.69931
2.66495
2.94721
0.980884
-1.41538
-2.12875
-1.32606
-0.730549
-0.697435
-0.0545939
0.839044
1.7335
1.61013
0.797721
1.13414
1.96845
2.46599
2.09385
1.12508
0.849876
1.6116
2.42896
1.63472
0.919378
1.92359
2.23167
1.05525
0.0640348
1.23985
2.46291
3.00735
2.22356
2.54874
2.88917
1.86293
-0.154737
-2.23974
-2.15482
-1.31869
-0.827998
-0.864818
-0.253932
0.834244
1.85089
1.53461
0.62403
1.4557
2.88829
2.57252
0.773263
-0.457087
0.446333
2.04022
3.12717
2.28258
1.42137
1.50205
1.93405
1.30045
0.891849
1.27923
2.32812
3.37712
3.42426
2.87751
1.92244
0.801564
-0.889667
-2.56366
-1.98229
-1.13029
-0.908268
-0.781874
-0.00958076
0.900744
1.19098
1.04977
1.44676
2.2037
3.11497
2.38551
0.451317
-0.824593
0.285934
2.1321
2.80236
2.14588
0.840952
0.488403
2.32855
3.19602
1.97964
1.20354
1.96179
3.43659
4.04257
3.11251
1.72597
0.552904
-1.48348
-2.67694
-1.65333
-0.660923
-0.765803
-0.816741
0.0255552
0.939982
1.17357
1.25143
1.81091
2.39264
2.98829
2.43461
0.819605
-0.864113
-0.82011
1.22104
2.74591
2.27818
1.23661
0.817106
1.73017
2.89753
2.15121
)
;
    }
    procBoundary1to2
    {
        type            processor;
        value           nonuniform List<scalar> 
256
(
1.93964
2.54037
1.6151
1.02588
1.69733
2.93838
3.34947
1.06094
-1.59039
-1.3219
-0.69767
-1.2275
-0.512523
0.719759
0.567933
0.316982
0.721884
1.18238
2.1611
2.26158
1.91479
1.82394
1.19447
0.88239
0.966858
1.32164
1.45833
1.56399
1.55384
1.60963
1.55653
1.49884
1.29489
1.57686
1.70197
1.45948
1.93029
3.10853
3.4523
0.945743
-1.68784
-1.55947
-1.0075
-1.14222
-0.345954
0.776869
1.05015
0.675753
0.547706
1.12057
1.9478
2.28157
2.25335
1.64995
0.622843
0.907823
1.36451
1.72494
1.71208
1.67408
1.61622
1.72098
1.74024
1.5447
1.10647
1.6408
1.93758
1.97897
2.24673
3.25879
3.46193
0.869418
-1.50211
-0.97417
-0.629304
-0.919298
-0.65836
-0.0981327
0.99628
1.21548
0.627507
1.0143
1.56166
2.05233
2.13324
1.58002
0.548817
0.604682
1.21174
1.53526
1.80581
1.98339
1.74606
1.63123
1.6069
1.18743
1.69274
2.08059
1.82978
1.1541
1.75671
2.63386
3.32838
2.0505
-0.510918
-2.37459
-2.59497
-1.33965
0.0536389
0.190216
0.403172
0.943532
0.750069
0.675738
1.42981
2.24974
2.03407
1.42374
0.880378
0.919703
0.979408
1.40636
2.30102
2.3346
1.98236
1.24255
1.52683
1.68582
2.00992
1.44703
1.82709
2.1058
1.76093
1.76548
1.78777
1.79244
0.266109
-1.80141
-2.78115
-1.49066
-0.574179
0.0514888
1.04035
1.14001
0.488654
0.810551
1.63601
2.08237
1.90582
1.57292
1.33563
1.29645
1.48665
1.91042
2.4254
1.81996
1.64681
1.56801
1.64487
2.10101
1.05475
1.5505
2.83693
3.71959
2.8038
1.4386
0.343239
0.251452
-0.163556
-0.740549
-1.03638
-1.15123
-0.774698
0.547402
0.963041
0.364027
0.695226
1.47318
1.65427
1.85001
1.74423
0.908613
0.669407
1.13259
1.6251
1.72596
1.36907
1.54221
2.01661
2.55423
1.7934
1.05746
0.804972
2.15557
3.40085
3.26087
2.34693
1.20118
0.339455
0.62298
0.512083
-0.0759464
-1.15627
-1.8239
-0.828552
0.135054
1.46164
1.13253
0.587432
1.6629
2.28909
2.05944
1.53541
0.686988
0.385146
0.572183
0.538199
1.28805
1.74855
1.82136
1.76145
2.0916
2.0603
1.18322
1.0182
2.14499
3.22767
3.26926
2.75989
1.64328
0.611697
0.597142
0.707434
-0.420427
-1.95671
-2.17395
-0.493412
0.967566
1.62697
0.774827
0.328934
1.66229
2.45498
1.41012
0.601558
0.84186
0.614996
-0.0676264
1.10684
1.99113
1.98405
1.87858
1.88482
1.72993
1.70564
1.37746
)
;
    }
}


// ************************************************************************* //
