/*--------------------------------*- C++ -*----------------------------------*\
| =========                 |                                                 |
| \\      /  F ield         | OpenFOAM: The Open Source CFD Toolbox           |
|  \\    /   O peration     | Version:  2506                                  |
|   \\  /    A nd           | Website:  www.openfoam.com                      |
|    \\/     M anipulation  |                                                 |
\*---------------------------------------------------------------------------*/
FoamFile
{
    version     2.0;
    format      ascii;
    arch        "LSB;label=32;scalar=64";
    class       volScalarField;
    location    "0.06";
    object      Ksl;
}
// * * * * * * * * * * * * * * * * * * * * * * * * * * * * * * * * * * * * * //

dimensions      [1 -3 -1 0 0 0 0];

internalField   nonuniform List<scalar> 
1152
(
148370
133359
98070.9
412698
139061
103519
152583
151109
119676
190497
94519.7
114322
141281
56962.6
98750
115516
243218
186095
129459
756804
214144
134396
967504
215775
286321
115618
165178
925127
169746
441168
203402
264826
298425
246989
731806
1.01813e+07
630543
434574
130196
207369
213554
260222
511469
131882
387168
136947
435109
468484
240378
153245
336067
161094
126822
269683
239673
164453
505248
334676
265649
8.27297e+06
401094
106384
254146
118005
294613
280800
411483
225202
283570
163194
163013
650779
196243
181893
312419
109793
153662
504647
380317
5.16896e+06
268237
158756
148365
237281
151019
228261
332168
118397
235199
155936
391255
185440
226650
148581
184722
282195
62869.4
48689.3
71476.7
76123.2
33118.2
51801
83082.2
316763
42394.2
52145.9
90182.7
40006.3
31080.3
116573
172009
85174.3
0
0
0
0
0
0
0
0
0
0
0
0
0
0
0
0
0
0
0
0
0
0
0
0
0
0
0
0
0
0
0
0
0
0
0
0
0
0
0
0
0
0
0
0
0
0
0
0
0
0
0
0
0
0
0
0
0
0
0
0
0
0
0
0
0
0
0
0
0
0
0
0
0
0
0
0
0
0
0
0
0
0
0
0
0
0
0
0
0
0
0
0
0
0
0
0
0
0
0
0
0
0
0
0
0
0
0
0
0
0
0
0
0
0
0
0
0
0
0
0
0
0
0
0
0
0
0
0
0
0
0
0
0
0
0
0
0
0
0
0
0
0
0
0
0
0
0
0
0
0
0
0
0
0
0
0
0
0
0
0
0
0
0
0
0
0
0
0
0
0
0
0
0
0
0
0
0
0
0
0
0
0
0
0
0
0
0
0
0
0
0
0
0
0
0
0
0
0
0
0
0
0
0
0
0
0
0
0
0
0
0
0
0
0
0
0
0
0
0
0
0
0
0
0
0
0
0
0
0
0
0
0
0
0
0
0
0
0
0
0
0
0
0
0
0
0
0
0
0
0
0
0
0
0
0
0
0
0
0
0
0
0
0
0
0
0
0
0
0
0
0
0
108502
104118
90116.2
133634
191121
106868
101397
81288.3
140638
80253.3
115359
142906
186134
185226
90710.3
94179.6
129788
199413
277455
280459
452775
155588
277160
212482
177417
331242
306799
260124
225750
194364
194602
198153
136005
210544
324400
224387
154126
206259
240708
123939
196979
205239
182491
376772
307892
506244
492301
170694
203076
324094
202773
7.79016e+06
1.95775e+06
137146
369636
202176
209756
166114
217012
281041
155880
834559
287224
203065
122020
327678
165871
705340
266627
174988
254806
168548
142190
377403
154835
185585
295782
227120
186607
266699
285981
755974
207182
114147
195550
244108
197234
192430
297714
146416
518618
331816
150681
272948
165975
156206
44096.9
60563.4
29524.3
34044.1
88891
34294.7
23970.4
20971.6
29503.7
15219.4
36737.4
38033.3
76838.4
45723
17067.7
36621.3
0
0
0
0
0
0
0
0
0
0
0
0
0
0
0
0
0
0
0
0
0
0
0
0
0
0
0
0
0
0
0
0
0
0
0
0
0
0
0
0
0
0
0
0
0
0
0
0
0
0
0
0
0
0
0
0
0
0
0
0
0
0
0
0
0
0
0
0
0
0
0
0
0
0
0
0
0
0
0
0
0
0
0
0
0
0
0
0
0
0
0
0
0
0
0
0
0
0
0
0
0
0
0
0
0
0
0
0
0
0
0
0
0
0
0
0
0
0
0
0
0
0
0
0
0
0
0
0
0
0
0
0
0
0
0
0
0
0
0
0
0
0
0
0
0
0
0
0
0
0
0
0
0
0
0
0
0
0
0
0
0
0
0
0
0
0
0
0
0
0
0
0
0
0
0
0
0
0
0
0
0
0
0
0
0
0
0
0
0
0
0
0
0
0
0
0
0
0
0
0
0
0
0
0
0
0
0
0
0
0
0
0
0
0
0
0
0
0
0
0
0
0
0
0
0
0
0
0
0
0
0
0
0
0
0
0
0
0
0
0
0
0
0
0
0
0
0
0
0
0
0
0
0
0
0
0
0
0
0
0
0
0
0
0
0
0
0
0
0
0
0
0
118471
229856
120129
303533
113030
87240.4
131928
148345
142299
121526
124392
82689.7
109804
140275
109317
618469
167497
154630
348628
150796
623649
257958
161418
146372
288521
192999
162693
328186
146613
282777
280153
152463
243644
394177
228980
220453
281949
140798
197166
225154
95685.2
1.06701e+07
195100
392800
551368
143673
197552
136121
165683
211946
242574
134771
438398
162453
301704
195523
307652
225803
309220
186079
170468
454817
202358
331589
157871
316373
246146
141043
320300
152634
206926
238855
169900
206007
208966
392215
188815
204937
205384
151826
202615
150505
217881
121271
167460
148009
248188
236626
236298
200344
699413
153319
1.49497e+07
158152
179419
156020
101434
81113.8
62450
62273.1
62381.1
114121
83419.2
82406.1
42668.2
67802.5
56831.1
27382.4
197396
39671.3
63132.7
54905.9
0
0
0
0
0
0
192.726
0
0
0
0
0
0
0
0
0
0
0
0
0
0
0
0
0
0
0
0
0
0
0
0
0
0
0
0
0
0
0
0
0
0
0
0
0
0
0
0
0
0
0
0
0
0
0
0
0
0
0
0
0
0
0
0
0
0
0
0
0
0
0
0
0
0
0
0
0
0
0
0
0
0
0
0
0
0
0
0
0
0
0
0
0
0
0
0
0
0
0
0
0
0
0
0
0
0
0
0
0
0
0
0
0
0
0
0
0
0
0
0
0
0
0
0
0
0
0
0
0
0
0
0
0
0
0
0
0
0
0
0
0
0
0
0
0
0
0
0
0
0
0
0
0
0
0
0
0
0
0
0
0
0
0
0
0
0
0
0
0
0
0
0
0
0
0
0
0
0
0
0
0
0
0
0
0
0
0
0
0
0
0
0
0
0
0
0
0
0
0
0
0
0
0
0
0
0
0
0
0
0
0
0
0
0
0
0
0
0
0
0
0
0
0
0
0
0
0
0
0
0
0
0
0
0
0
0
0
0
0
0
0
0
0
0
0
0
0
0
0
0
0
0
0
0
0
0
0
0
0
0
0
0
0
0
0
0
0
0
0
0
0
0
0
)
;

boundaryField
{
    inlet
    {
        type            zeroGradient;
    }
    outlet
    {
        type            zeroGradient;
    }
    wall
    {
        type            zeroGradient;
    }
    procBoundary0to1
    {
        type            processor;
        value           nonuniform List<scalar> 
192
(
53360.7
106041
100472
240785
329066
209147
174100
242824
103458
485288
294205
168656
827886
276676
155864
4.6905e+06
151350
171774
1.50211e+06
131147
1.18718e+06
122584
296652
142049
44580
52972.3
110012
197229
0
0
0
239.34
0
0
0
0
0
0
0
0
0
0
0
0
0
0
0
0
0
0
0
0
0
0
0
0
0
0
0
0
0
0
0
0
0
0
0
0
0
0
0
0
0
0
0
0
0
0
0
0
0
0
0
0
0
0
0
0
0
0
0
0
0
0
0
0
72813.3
132952
115442
86345.3
258240
262885
159786
179488
285991
217703
264677
6.46984e+06
982271
741288
161589
294193
275680
197438
164347
297923
8.59015e+06
127782
346322
229866
95755.4
38449.1
32849
27456.7
0
0
0
0
0
0
0
0
0
0
0
0
0
0
0
0
0
0
0
0
0
0
0
0
0
0
0
0
0
0
0
0
0
0
0
0
0
0
0
0
0
0
0
0
0
0
0
0
0
0
0
0
0
0
0
0
0
0
0
0
0
0
0
0
0
0
0
0
)
;
    }
    procBoundary0to2
    {
        type            processor;
        value           nonuniform List<scalar> 
192
(
129280
295193
150025
175971
227485
267788
167954
2.8488e+07
194879
825290
230510
119885
164047
5.25918e+06
271101
174165
3.04696e+06
191648
210583
129702
117185
305316
268569
4.25274e+06
99746.6
79496.7
72376.9
70165.2
0
0
0
0
0
0
0
0
0
0
0
0
0
0
0
0
0
0
0
0
0
0
0
0
0
0
0
0
0
0
0
0
0
0
0
0
0
0
0
0
0
0
0
0
0
0
0
0
0
0
0
0
0
0
0
0
0
0
0
0
0
0
0
0
0
0
0
0
109923
78329.3
154835
102496
462737
219320
560444
588768
158144
106093
228256
146773
308483
150918
249139
222587
136230
240824
420691
171262
224419
94498.9
292524
157543
35008.9
15906.8
47066.5
22612.6
0
0
0
0
0
0
0
0
0
0
0
0
0
0
0
0
0
0
0
0
0
0
0
0
0
0
0
0
0
0
0
0
0
0
0
0
0
0
0
0
0
0
0
0
0
0
0
0
0
0
0
0
0
0
0
0
0
0
0
0
0
0
0
0
0
0
0
0
)
;
    }
}


// ************************************************************************* //
