/*--------------------------------*- C++ -*----------------------------------*\
| =========                 |                                                 |
| \\      /  F ield         | OpenFOAM: The Open Source CFD Toolbox           |
|  \\    /   O peration     | Version:  2506                                  |
|   \\  /    A nd           | Website:  www.openfoam.com                      |
|    \\/     M anipulation  |                                                 |
\*---------------------------------------------------------------------------*/
FoamFile
{
    version     2.0;
    format      ascii;
    arch        "LSB;label=32;scalar=64";
    class       volScalarField;
    location    "0.06";
    object      p;
}
// * * * * * * * * * * * * * * * * * * * * * * * * * * * * * * * * * * * * * //

dimensions      [0 2 -2 0 0 0 0];

internalField   nonuniform List<scalar> 
1152
(
17.8198
17.7577
17.7408
18.0319
17.7889
17.6836
17.9227
17.9656
17.8036
17.681
17.7497
17.8681
17.7244
17.6383
17.7159
17.8049
15.3897
15.4619
15.5681
15.503
15.5166
15.5696
15.3083
15.3885
15.5551
15.5459
15.692
15.4189
15.511
15.7463
15.7592
15.792
11.8906
12.0777
12.5477
11.3595
11.5792
12.4653
12.1103
11.9244
12.1441
12.5634
12.3542
11.9261
12.1887
11.9288
12.3193
12.1251
8.41527
8.47354
8.48713
8.55742
8.29461
8.22665
8.6071
8.5873
8.26514
8.44036
8.55153
8.47667
8.34718
8.71417
8.76419
8.83044
4.93413
4.91378
4.71311
5.05767
5.00389
4.92841
5.08179
4.98064
4.76451
4.85441
5.18705
5.30998
4.8038
5.43563
5.29987
5.95021
1.42391
1.60556
1.72143
1.8181
1.43255
1.6793
1.9226
2.03261
1.48501
1.74414
1.78218
1.92138
1.53074
1.88258
2.00036
1.9458
1.00541
1.01461
1.00984
1.00679
1.01337
1.01331
1.00782
0.996886
1.01309
1.01741
1.00564
1.02062
1.01873
1.00995
1.00167
1.00262
0.999424
0.999516
0.999539
0.999565
1.00063
1.00016
0.99996
0.999768
1.00082
1.00064
1.00033
1.0005
1.00122
1.00077
1.00051
1.00002
1.00663
1.00697
1.00673
1.00688
1.00687
1.00697
1.00665
1.00664
1.00701
1.0072
1.00675
1.00792
1.00715
1.00689
1.00646
1.00733
1.00444
1.0045
1.00444
1.00454
1.00458
1.00456
1.00446
1.00451
1.00467
1.00466
1.00454
1.00491
1.00472
1.00464
1.00452
1.0048
1.00471
1.00472
1.00472
1.00479
1.00473
1.00474
1.00473
1.0048
1.00478
1.00479
1.00477
1.00492
1.0048
1.0048
1.00479
1.00493
1.00435
1.00437
1.00439
1.00444
1.00437
1.00439
1.00441
1.00446
1.00441
1.00442
1.00443
1.0045
1.00442
1.00443
1.00445
1.00452
1.00405
1.00406
1.00408
1.00411
1.00405
1.00407
1.00409
1.00413
1.00407
1.00409
1.00411
1.00415
1.00408
1.0041
1.00412
1.00416
1.00372
1.00373
1.00375
1.00377
1.00373
1.00374
1.00376
1.00378
1.00374
1.00375
1.00377
1.00379
1.00374
1.00376
1.00378
1.0038
1.00338
1.00339
1.00341
1.00343
1.00339
1.0034
1.00341
1.00343
1.00339
1.00341
1.00342
1.00344
1.0034
1.00341
1.00343
1.00345
1.00304
1.00305
1.00306
1.00307
1.00304
1.00305
1.00306
1.00308
1.00305
1.00305
1.00307
1.00308
1.00305
1.00306
1.00307
1.00308
1.00269
1.0027
1.0027
1.00271
1.00269
1.0027
1.00271
1.00272
1.00269
1.0027
1.00271
1.00272
1.0027
1.0027
1.00271
1.00272
1.00234
1.00234
1.00235
1.00235
1.00234
1.00234
1.00235
1.00236
1.00234
1.00234
1.00235
1.00236
1.00234
1.00235
1.00235
1.00236
1.00198
1.00198
1.00199
1.00199
1.00198
1.00198
1.00199
1.00199
1.00198
1.00199
1.00199
1.002
1.00198
1.00199
1.00199
1.002
1.00162
1.00162
1.00163
1.00163
1.00162
1.00163
1.00163
1.00163
1.00162
1.00163
1.00163
1.00163
1.00162
1.00163
1.00163
1.00164
1.00126
1.00126
1.00127
1.00127
1.00126
1.00127
1.00127
1.00127
1.00126
1.00127
1.00127
1.00127
1.00126
1.00127
1.00127
1.00127
1.0009
1.0009
1.00091
1.00091
1.0009
1.0009
1.00091
1.00091
1.0009
1.0009
1.00091
1.00091
1.0009
1.00091
1.00091
1.00091
1.00054
1.00054
1.00054
1.00054
1.00054
1.00054
1.00054
1.00054
1.00054
1.00054
1.00054
1.00055
1.00054
1.00054
1.00054
1.00055
1.00018
1.00018
1.00018
1.00018
1.00018
1.00018
1.00018
1.00018
1.00018
1.00018
1.00018
1.00018
1.00018
1.00018
1.00018
1.00018
17.3959
17.5176
17.6184
17.7158
17.8528
17.642
17.6819
17.6829
17.6944
17.6744
17.7599
17.7985
17.9137
17.7832
17.698
17.6821
15.0701
15.2066
15.4186
15.3508
14.8687
15.1863
15.3644
15.3098
15.1382
15.4405
15.3655
15.5019
15.1735
15.3422
15.62
15.478
12.0771
12.0454
11.8978
11.9027
11.8562
11.7531
11.793
11.7749
11.6689
11.5322
11.6409
11.8269
11.324
11.961
12.018
11.9414
8.54945
8.64344
8.51177
8.68225
8.79711
8.52138
8.47997
8.51151
8.13415
8.3114
8.18627
8.15583
8.09046
8.03054
8.00475
8.44486
5.17252
5.11838
4.87817
4.46477
4.84239
5.11962
4.82194
4.84331
4.91671
4.85421
4.87215
4.80701
4.78387
4.51381
4.51735
4.67321
1.80452
1.45766
1.41725
1.39354
1.70014
1.43632
1.28158
1.32173
1.42907
1.22266
1.30251
1.36001
1.6451
1.37061
1.26364
1.40093
1.0173
1.00735
1.01303
1.01241
1.00912
1.01472
1.01326
1.01419
1.0158
1.01334
1.01128
1.01062
1.01147
1.01122
1.01389
1.01229
1.00026
1.00003
1.0003
1.00018
1.00061
1.00107
1.00119
1.00113
1.00159
1.00222
1.00143
1.00111
1.00096
1.00109
1.00179
1.0011
1.00717
1.00683
1.00687
1.0069
1.00668
1.00676
1.00681
1.00692
1.00723
1.00706
1.00687
1.00689
1.00676
1.00671
1.00692
1.00693
1.00441
1.00443
1.00444
1.00445
1.00446
1.00456
1.00458
1.00459
1.00481
1.00484
1.00475
1.0047
1.00459
1.00467
1.00472
1.0047
1.00481
1.00477
1.00477
1.00477
1.00472
1.0047
1.00471
1.00473
1.00487
1.00484
1.00481
1.00479
1.00474
1.00473
1.00476
1.00477
1.00434
1.00435
1.00435
1.00435
1.00433
1.00434
1.00434
1.00435
1.00443
1.00443
1.00441
1.00441
1.00437
1.00438
1.00438
1.0044
1.00405
1.00405
1.00405
1.00405
1.00402
1.00402
1.00403
1.00404
1.00407
1.00407
1.00407
1.00407
1.00404
1.00405
1.00405
1.00407
1.00371
1.00371
1.00371
1.00372
1.0037
1.0037
1.0037
1.00371
1.00373
1.00373
1.00373
1.00373
1.00371
1.00371
1.00372
1.00373
1.00337
1.00337
1.00338
1.00338
1.00336
1.00337
1.00337
1.00338
1.00338
1.00338
1.00338
1.00339
1.00337
1.00338
1.00338
1.00339
1.00303
1.00303
1.00303
1.00303
1.00302
1.00303
1.00303
1.00303
1.00303
1.00303
1.00304
1.00304
1.00303
1.00303
1.00304
1.00304
1.00268
1.00268
1.00268
1.00269
1.00268
1.00268
1.00268
1.00269
1.00268
1.00268
1.00269
1.00269
1.00268
1.00268
1.00269
1.00269
1.00233
1.00233
1.00233
1.00233
1.00233
1.00233
1.00233
1.00233
1.00233
1.00233
1.00233
1.00234
1.00233
1.00233
1.00233
1.00234
1.00198
1.00198
1.00198
1.00198
1.00197
1.00197
1.00198
1.00198
1.00197
1.00198
1.00198
1.00198
1.00198
1.00198
1.00198
1.00198
1.00162
1.00162
1.00162
1.00162
1.00162
1.00162
1.00162
1.00162
1.00162
1.00162
1.00162
1.00162
1.00162
1.00162
1.00162
1.00162
1.00126
1.00126
1.00126
1.00126
1.00126
1.00126
1.00126
1.00126
1.00126
1.00126
1.00126
1.00126
1.00126
1.00126
1.00126
1.00126
1.0009
1.0009
1.0009
1.0009
1.0009
1.0009
1.0009
1.0009
1.0009
1.0009
1.0009
1.0009
1.0009
1.0009
1.0009
1.0009
1.00054
1.00054
1.00054
1.00054
1.00054
1.00054
1.00054
1.00054
1.00054
1.00054
1.00054
1.00054
1.00054
1.00054
1.00054
1.00054
1.00018
1.00018
1.00018
1.00018
1.00018
1.00018
1.00018
1.00018
1.00018
1.00018
1.00018
1.00018
1.00018
1.00018
1.00018
1.00018
17.5686
17.7077
17.7791
17.8312
17.6715
17.6536
17.6932
17.7131
17.7117
17.7168
17.7039
17.716
17.7163
17.8045
17.7851
17.8785
15.2786
15.2026
15.3999
15.125
15.2938
15.1972
15.2714
15.2865
14.9288
15.2436
15.3273
15.6214
15.241
15.2207
15.3703
15.1694
11.8348
11.9601
11.8289
11.7015
11.8311
11.7796
12.1287
12.0316
11.8603
11.9788
12.2051
11.851
11.967
12.1353
12.0831
11.9928
8.30712
8.40123
8.42733
8.19078
8.47877
8.47059
8.54522
8.39266
8.77781
8.49987
8.56721
8.39881
8.51618
8.64265
8.54347
8.49942
5.09735
4.91735
5.01398
5.03291
4.90735
5.01248
5.03716
5.04118
4.93528
4.96269
5.04001
4.87467
4.89224
4.78147
4.85156
4.76724
2.10696
2.0297
1.85204
2.0938
1.86236
2.11913
1.90864
1.798
1.69959
1.83432
1.52208
1.40079
1.5134
1.61632
1.68108
1.68014
1.00859
1.01328
1.01201
1.02181
1.00991
1.00806
1.00758
1.00754
1.01058
1.00823
1.00845
1.01374
1.01536
1.01591
1.01132
1.01365
0.999061
0.9991
0.999004
0.99915
0.999167
0.999155
0.998962
0.999144
0.999208
0.999144
0.99922
0.999913
0.999628
0.999462
0.999397
0.999552
1.00676
1.00699
1.0066
1.00776
1.00674
1.00668
1.0063
1.00691
1.00688
1.00679
1.00653
1.00709
1.00706
1.00706
1.00675
1.00697
1.00415
1.00423
1.00411
1.00459
1.00424
1.00427
1.00416
1.0045
1.00431
1.00434
1.00427
1.00457
1.00436
1.00443
1.00438
1.00454
1.00471
1.0047
1.00461
1.00483
1.00469
1.00466
1.00458
1.00476
1.00471
1.00469
1.00464
1.00477
1.00473
1.00471
1.00469
1.00477
1.00428
1.0043
1.00429
1.00442
1.0043
1.00432
1.0043
1.00442
1.00431
1.00433
1.00434
1.00442
1.00433
1.00435
1.00436
1.00442
1.00402
1.00403
1.00403
1.00409
1.00402
1.00403
1.00403
1.00409
1.00403
1.00404
1.00405
1.00409
1.00404
1.00405
1.00406
1.0041
1.0037
1.00371
1.00372
1.00375
1.0037
1.00371
1.00372
1.00375
1.00371
1.00372
1.00373
1.00376
1.00371
1.00373
1.00374
1.00377
1.00337
1.00338
1.00339
1.00341
1.00337
1.00338
1.00339
1.00341
1.00338
1.00338
1.00339
1.00341
1.00338
1.00339
1.0034
1.00342
1.00303
1.00304
1.00304
1.00306
1.00303
1.00304
1.00305
1.00306
1.00303
1.00304
1.00305
1.00306
1.00304
1.00304
1.00305
1.00307
1.00268
1.00269
1.0027
1.00271
1.00268
1.00269
1.0027
1.00271
1.00269
1.00269
1.0027
1.00271
1.00269
1.00269
1.0027
1.00271
1.00233
1.00234
1.00234
1.00235
1.00233
1.00234
1.00234
1.00235
1.00233
1.00234
1.00234
1.00235
1.00233
1.00234
1.00234
1.00235
1.00198
1.00198
1.00198
1.00199
1.00198
1.00198
1.00198
1.00199
1.00198
1.00198
1.00199
1.00199
1.00198
1.00198
1.00199
1.00199
1.00162
1.00162
1.00163
1.00163
1.00162
1.00162
1.00163
1.00163
1.00162
1.00162
1.00163
1.00163
1.00162
1.00162
1.00163
1.00163
1.00126
1.00126
1.00127
1.00127
1.00126
1.00126
1.00127
1.00127
1.00126
1.00126
1.00127
1.00127
1.00126
1.00126
1.00127
1.00127
1.0009
1.0009
1.0009
1.00091
1.0009
1.0009
1.0009
1.00091
1.0009
1.0009
1.0009
1.00091
1.0009
1.0009
1.00091
1.00091
1.00054
1.00054
1.00054
1.00054
1.00054
1.00054
1.00054
1.00054
1.00054
1.00054
1.00054
1.00054
1.00054
1.00054
1.00054
1.00054
1.00018
1.00018
1.00018
1.00018
1.00018
1.00018
1.00018
1.00018
1.00018
1.00018
1.00018
1.00018
1.00018
1.00018
1.00018
1.00018
)
;

boundaryField
{
    inlet
    {
        type            zeroGradient;
    }
    outlet
    {
        type            fixedValue;
        value           uniform 1;
    }
    wall
    {
        type            zeroGradient;
    }
    procBoundary0to1
    {
        type            processor;
        value           nonuniform List<scalar> 
192
(
17.7014
17.7712
17.7125
17.6256
15.7652
15.7821
15.6467
15.4522
12.0687
12.1781
12.1483
12.4988
8.83052
8.28419
8.5041
8.57888
4.94597
4.79785
5.29926
5.01572
1.52795
1.85291
1.86936
2.3308
1.01157
1.01813
1.00221
0.999315
0.999921
1.00028
1.00014
1.00048
1.00717
1.00731
1.00707
1.00684
1.00467
1.0047
1.0047
1.00468
1.00486
1.00488
1.0049
1.00491
1.00449
1.00451
1.00453
1.00455
1.00415
1.00417
1.00418
1.00419
1.0038
1.00381
1.00382
1.00383
1.00345
1.00345
1.00346
1.00347
1.00309
1.00309
1.0031
1.0031
1.00272
1.00273
1.00273
1.00273
1.00236
1.00236
1.00237
1.00237
1.002
1.002
1.002
1.002
1.00164
1.00164
1.00164
1.00164
1.00127
1.00127
1.00127
1.00128
1.00091
1.00091
1.00091
1.00091
1.00055
1.00055
1.00055
1.00055
1.00018
1.00018
1.00018
1.00018
17.6735
17.7427
17.708
17.7071
16.0131
15.629
15.6622
15.7406
12.4756
12.3246
12.0119
12.1046
8.32419
8.28966
8.25646
8.30352
4.81162
4.50907
4.9426
4.81716
1.64312
1.55843
1.39927
1.3094
1.00677
1.01567
1.01199
1.01043
0.99991
0.999942
0.999999
1.00018
1.00669
1.00709
1.00702
1.00702
1.00446
1.00464
1.00464
1.00464
1.0048
1.00481
1.00483
1.00484
1.00443
1.00445
1.00446
1.00447
1.00412
1.00412
1.00413
1.00414
1.00378
1.00378
1.00379
1.00379
1.00343
1.00343
1.00344
1.00344
1.00307
1.00308
1.00308
1.00308
1.00272
1.00272
1.00272
1.00272
1.00236
1.00236
1.00236
1.00236
1.00199
1.002
1.002
1.002
1.00163
1.00163
1.00163
1.00163
1.00127
1.00127
1.00127
1.00127
1.00091
1.00091
1.00091
1.00091
1.00054
1.00054
1.00055
1.00055
1.00018
1.00018
1.00018
1.00018
)
;
    }
    procBoundary0to2
    {
        type            processor;
        value           nonuniform List<scalar> 
192
(
17.7278
17.8322
17.7231
17.584
15.3283
15.3967
15.2477
14.8057
11.9629
12.3172
12.8129
13.3631
8.71452
8.41827
8.93601
9.20238
4.78649
5.25808
5.39252
5.53359
1.74337
1.867
1.94004
2.05392
1.01108
1.013
1.01582
1.0248
1.00087
1.00101
1.00111
1.00094
1.00713
1.00717
1.00725
1.0083
1.00476
1.00474
1.00473
1.00504
1.00484
1.00485
1.00486
1.00501
1.00444
1.00446
1.00448
1.00455
1.0041
1.00411
1.00413
1.00417
1.00375
1.00377
1.00379
1.00381
1.0034
1.00342
1.00343
1.00345
1.00305
1.00306
1.00307
1.00309
1.0027
1.00271
1.00272
1.00273
1.00234
1.00235
1.00236
1.00236
1.00199
1.00199
1.00199
1.002
1.00163
1.00163
1.00163
1.00164
1.00127
1.00127
1.00127
1.00127
1.0009
1.00091
1.00091
1.00091
1.00054
1.00054
1.00054
1.00055
1.00018
1.00018
1.00018
1.00018
17.6152
17.5089
17.7692
17.7039
15.0141
14.8838
15.1086
15.3046
11.5675
11.6279
11.6585
11.7932
8.20055
8.65392
8.624
8.58821
4.61598
4.52682
4.85016
4.78629
1.48926
1.3595
1.30363
1.41818
1.01518
1.01918
1.00991
1.0177
1.00143
1.00274
1.0013
1.00166
1.00743
1.00755
1.007
1.00727
1.00489
1.005
1.00483
1.00484
1.00491
1.00489
1.00485
1.00486
1.00445
1.00445
1.00445
1.00445
1.00409
1.00409
1.00409
1.00409
1.00374
1.00374
1.00374
1.00374
1.00339
1.00339
1.00339
1.0034
1.00304
1.00304
1.00304
1.00305
1.00269
1.00269
1.00269
1.00269
1.00233
1.00233
1.00234
1.00234
1.00198
1.00198
1.00198
1.00198
1.00162
1.00162
1.00162
1.00162
1.00126
1.00126
1.00126
1.00126
1.0009
1.0009
1.0009
1.0009
1.00054
1.00054
1.00054
1.00054
1.00018
1.00018
1.00018
1.00018
)
;
    }
}


// ************************************************************************* //
