/*--------------------------------*- C++ -*----------------------------------*\
| =========                 |                                                 |
| \\      /  F ield         | OpenFOAM: The Open Source CFD Toolbox           |
|  \\    /   O peration     | Version:  2506                                  |
|   \\  /    A nd           | Website:  www.openfoam.com                      |
|    \\/     M anipulation  |                                                 |
\*---------------------------------------------------------------------------*/
FoamFile
{
    version     2.0;
    format      ascii;
    arch        "LSB;label=32;scalar=64";
    class       volVectorField;
    location    "0.06";
    object      stored_U;
}
// * * * * * * * * * * * * * * * * * * * * * * * * * * * * * * * * * * * * * //

dimensions      [0 1 -1 0 0 0 0];

internalField   nonuniform List<vector> 
1152
(
(-0.00110174 -0.00133473 0.0146769)
(0.000402555 0.000729918 0.0164292)
(-0.00431888 -0.00182143 0.0218263)
(5.35742e-05 5.28316e-05 0.00514247)
(-0.000196232 -0.000128493 0.0154117)
(-0.00219925 0.000488708 0.0211631)
(-0.00256699 0.000277704 0.0142106)
(0.000507012 0.00159724 0.0147283)
(0.00122855 0.000393908 0.0183988)
(-9.07143e-05 0.000183715 0.0106365)
(-0.00276822 0.00284524 0.0210883)
(-0.000888274 0.00184583 0.0206365)
(0.000439489 0.000486685 0.0138872)
(-0.000634384 -0.00572586 0.0382789)
(-0.00282881 -0.00109037 0.0205624)
(-0.00085068 0.00097232 0.0175015)
(-0.000626804 -0.00176913 0.0221803)
(-0.000899246 -0.00293404 0.0301189)
(-0.000758953 0.000987656 0.0415849)
(-4.03852e-05 0.000361301 0.00602798)
(-0.0017295 -0.0013887 0.0264698)
(0.00234548 -0.000730191 0.0398939)
(0.000629662 0.000417601 0.00530777)
(-0.00342129 0.00117335 0.0250918)
(-0.000272626 -0.000178822 0.0183105)
(-0.00175725 -0.00202968 0.0486777)
(0.00176543 -0.00358003 0.0331329)
(-4.97086e-05 0.000104817 0.00617188)
(-0.00250901 0.00166109 0.0316553)
(-0.00102834 0.000593251 0.0115222)
(0.000239875 0.00182663 0.025956)
(0.000794092 0.00146162 0.0192825)
(-0.00111833 0.00151767 0.019763)
(-0.00281589 -0.000755202 0.0253959)
(0.00103817 0.000112342 0.00823124)
(-1.50318e-06 0.000164445 0.00165544)
(-0.00101164 -0.000713441 0.0098111)
(-0.000800637 -0.000953804 0.0143499)
(0.00660501 0.00322453 0.0524463)
(-0.000212126 -0.00123912 0.0312963)
(-0.00405876 -0.00319365 0.0298676)
(-0.000879016 0.00241748 0.0252839)
(0.00147243 -0.000132384 0.0126847)
(0.00262196 0.0010764 0.0539957)
(0.000365016 0.000976957 0.0172067)
(-9.52142e-05 0.00325599 0.054888)
(3.94788e-05 -0.000361929 0.0142482)
(-0.000520893 -0.00146432 0.0153333)
(0.00255907 0.00222444 0.0265016)
(-0.000199235 0.0046205 0.0460761)
(-0.000143756 0.000155833 0.0205063)
(-0.00275533 -1.58378e-05 0.0398183)
(0.00313819 0.00268704 0.0547838)
(-0.00133568 0.000629051 0.0248045)
(-0.00161186 0.000244104 0.0276045)
(0.00309816 0.000948088 0.042193)
(-0.00069656 -4.54816e-05 0.0122176)
(-0.00101311 -0.00144158 0.020249)
(-3.72966e-05 -0.000118401 0.0238219)
(-8.51825e-05 0.00028388 0.00188831)
(-0.00122081 -0.00161835 0.0172193)
(-0.00404516 0.00135211 0.0666319)
(0.000118671 -0.000951185 0.0265513)
(0.00309293 -0.00581997 0.0530004)
(-0.00210727 -0.000122501 0.0201564)
(0.0008113 -0.000283513 0.022178)
(-0.000453131 -0.00049591 0.0144496)
(-0.00103984 -0.00060162 0.0288109)
(-0.00066564 0.00103398 0.0223323)
(-0.000201338 0.000933318 0.0398172)
(3.9931e-05 -0.00341432 0.0407341)
(0.000505101 -0.000164849 0.00949179)
(-0.000537169 0.00152189 0.0331134)
(-0.00337765 -0.00324614 0.0360497)
(-0.00127422 -0.000623876 0.0196079)
(-0.000445284 -0.0100568 0.0589065)
(-0.00626913 -0.000280427 0.0427222)
(-0.000914793 -0.000738895 0.0118749)
(-0.000882794 -0.000679335 0.0142309)
(-2.34783e-06 -2.00324e-06 0.00224788)
(-0.00127439 -0.00164495 0.0129033)
(-0.00246789 -0.000515065 0.0245969)
(-0.00179728 -0.0019459 0.0252297)
(0.00111691 -0.00155249 0.0165836)
(-0.00308237 -0.00078589 0.0258507)
(-0.00256675 -0.000752031 0.0168881)
(-0.00129342 -3.98558e-05 0.0118382)
(0.000905358 -0.000679201 0.0355374)
(-0.00175997 -0.000570226 0.0162234)
(-0.00242743 -0.00165453 0.0253437)
(-0.000582643 -0.000231385 0.0103102)
(-0.000692856 0.000934677 0.0250305)
(-0.00272383 -0.00147575 0.0174391)
(-0.00375704 -0.000934692 0.0287075)
(-6.53571e-05 -0.000879535 0.0215652)
(-0.00111716 -0.000288911 0.0154312)
(-1.33674e-05 0.00102821 0.0113431)
(8.90375e-05 0.00046517 0.0198785)
(0.000214783 6.87872e-05 0.0160109)
(-0.000164167 6.66238e-05 0.0152468)
(-0.000202747 -0.000537233 0.0224797)
(0.000278378 -8.11277e-05 0.0203762)
(0.000559823 0.00014348 0.0154561)
(-0.000166019 -0.000381863 0.0051027)
(-0.000148036 -0.00040603 0.0197882)
(0.000417534 -7.60748e-05 0.0216487)
(0.000244127 1.07668e-06 0.0130323)
(0.000425604 -0.000560069 0.035166)
(0.00045787 0.000172311 0.02812)
(0.000444921 4.33367e-05 0.0112922)
(0.000265567 -3.64979e-05 0.00843215)
(0.000590972 -1.26788e-05 0.0160233)
(0.00119068 -0.000482637 0.0244746)
(0.000828569 -5.42316e-05 0.0311833)
(0.000611114 0.000225036 0.0262783)
(-9.83574e-05 0.000386485 0.0244016)
(0.00154947 -0.0007181 0.0275308)
(0.0014831 -0.000230071 0.028467)
(0.000802477 9.09288e-05 0.0225075)
(6.33136e-05 -0.000301815 0.0204555)
(0.00132078 -0.000215636 0.0273265)
(0.00141991 0.000114633 0.0285278)
(0.000394182 0.000146059 0.0215131)
(0.000437744 0.000312667 0.0395167)
(0.00147504 0.000201933 0.0297475)
(0.00173449 0.000311251 0.0203604)
(0.00107996 2.50346e-05 0.0144862)
(0.000409461 0.00045482 0.0260251)
(0.000120568 0.000448638 0.007141)
(0.000349241 0.000548972 0.00766731)
(0.000593595 0.000805745 0.00646899)
(-0.000100056 0.000802545 0.00612852)
(0.000128736 -2.73228e-05 0.00775128)
(0.000861438 0.000479147 0.00723173)
(0.00067486 0.00067603 0.00574227)
(-0.000402751 -0.00065144 0.00588583)
(0.00011932 0.000165918 0.00750427)
(0.000896756 0.000970122 0.00687678)
(-0.000622659 0.00102291 0.00568502)
(-0.000255003 0.000124027 0.00881534)
(0.000867804 0.000266317 0.00753718)
(0.00162006 0.000820446 0.00536095)
(-0.000217984 0.000408345 0.0042899)
(-0.000410135 0.00100906 0.00630277)
(4.19448e-05 -0.000182917 0.0151118)
(0.000201923 8.12837e-05 0.0154641)
(0.000220776 0.000271532 0.0149321)
(-4.99043e-06 0.000314438 0.014962)
(0.000175438 -0.000117546 0.0151219)
(0.000447387 0.0001742 0.0151232)
(0.000272342 0.000255583 0.0144827)
(-8.61364e-05 -0.000188384 0.0146732)
(0.000290456 0.000120036 0.0149822)
(0.000489797 0.00043606 0.0149337)
(-0.000188996 0.000442647 0.0144037)
(-0.000111042 0.000114561 0.0158428)
(0.000536186 0.000199336 0.0147854)
(0.000718328 0.0004371 0.0141143)
(-7.99092e-05 0.000335927 0.0136088)
(-0.000229198 0.000544706 0.0147932)
(0.000173615 8.77451e-05 0.012476)
(0.000191148 0.000142378 0.0125905)
(0.000145828 0.000176703 0.012409)
(7.10066e-05 0.000181242 0.0124714)
(0.000142871 8.69479e-05 0.0125321)
(0.0002266 0.000167265 0.0125053)
(0.000136085 0.000175303 0.0122747)
(3.06136e-05 3.28792e-05 0.0123725)
(0.000191562 0.000142005 0.0125064)
(0.000236974 0.000237642 0.0124439)
(-9.77875e-06 0.000229458 0.012257)
(-1.02052e-05 0.000116376 0.0127281)
(0.000239222 0.000111386 0.0123676)
(0.000291437 0.000205987 0.0121371)
(2.59432e-07 0.000191216 0.0119633)
(-7.3164e-05 0.000246292 0.0123789)
(7.59657e-05 1.35142e-05 0.0129466)
(9.23091e-05 7.01312e-05 0.0129675)
(7.76643e-05 8.78958e-05 0.0128953)
(6.42881e-05 9.9637e-05 0.0129184)
(7.58856e-05 4.25999e-05 0.0129273)
(0.000109355 8.93388e-05 0.0129197)
(7.51695e-05 9.5976e-05 0.0128365)
(4.81997e-05 5.72716e-05 0.0128748)
(0.000122728 7.91159e-05 0.0129046)
(0.000126369 0.000118416 0.0128807)
(3.63674e-05 0.000116597 0.0128138)
(2.53152e-05 7.89941e-05 0.0129548)
(0.0001305 6.47824e-05 0.0128252)
(0.000139097 0.000103175 0.0127602)
(3.00238e-05 0.00010505 0.0126989)
(-4.19066e-06 0.000115787 0.0128358)
(6.36053e-05 2.5988e-05 0.0128419)
(6.5028e-05 4.86416e-05 0.0128738)
(5.62062e-05 5.16119e-05 0.0128576)
(5.24453e-05 5.82214e-05 0.0128706)
(5.69671e-05 3.69836e-05 0.0128571)
(6.75823e-05 5.57175e-05 0.0128686)
(5.35996e-05 5.69665e-05 0.0128441)
(4.47834e-05 4.64618e-05 0.0128591)
(8.04805e-05 5.05081e-05 0.0128619)
(7.68711e-05 6.42879e-05 0.0128568)
(4.36375e-05 6.32399e-05 0.0128335)
(3.38978e-05 5.03745e-05 0.0128742)
(7.71748e-05 3.86248e-05 0.0128275)
(7.78278e-05 5.33845e-05 0.0128108)
(3.77312e-05 5.55304e-05 0.0127891)
(2.08382e-05 5.67691e-05 0.012832)
(4.08256e-05 1.70457e-05 0.0128223)
(4.16044e-05 2.89533e-05 0.0128502)
(3.87642e-05 2.97325e-05 0.0128512)
(3.8298e-05 3.37366e-05 0.0128567)
(3.83306e-05 2.24536e-05 0.0128438)
(4.27607e-05 3.16036e-05 0.0128593)
(3.81977e-05 3.26619e-05 0.0128549)
(3.50467e-05 3.06651e-05 0.012859)
(5.09081e-05 2.84579e-05 0.0128545)
(4.84687e-05 3.41846e-05 0.0128588)
(3.64858e-05 3.43021e-05 0.0128517)
(3.07325e-05 3.04574e-05 0.0128614)
(4.78618e-05 2.19192e-05 0.0128411)
(4.79652e-05 2.77417e-05 0.0128411)
(3.38568e-05 2.92031e-05 0.0128339)
(2.52725e-05 2.9142e-05 0.0128458)
(2.66998e-05 1.12124e-05 0.0128082)
(2.78012e-05 1.69486e-05 0.0128386)
(2.71599e-05 1.74427e-05 0.0128481)
(2.72327e-05 1.97023e-05 0.0128522)
(2.6039e-05 1.33117e-05 0.0128367)
(2.85885e-05 1.78517e-05 0.0128559)
(2.73788e-05 1.87915e-05 0.01286)
(2.598e-05 1.88712e-05 0.0128616)
(3.26776e-05 1.58584e-05 0.0128516)
(3.19225e-05 1.8525e-05 0.012862)
(2.76575e-05 1.89899e-05 0.0128624)
(2.44529e-05 1.80509e-05 0.0128641)
(3.09609e-05 1.2383e-05 0.0128491)
(3.16034e-05 1.48624e-05 0.0128568)
(2.67201e-05 1.57492e-05 0.0128562)
(2.23224e-05 1.56858e-05 0.0128583)
(1.766e-05 6.88929e-06 0.0128002)
(1.88913e-05 9.78669e-06 0.0128323)
(1.90915e-05 1.02827e-05 0.0128458)
(1.92466e-05 1.15359e-05 0.0128503)
(1.78303e-05 7.69711e-06 0.0128324)
(1.95858e-05 1.00736e-05 0.0128539)
(1.95346e-05 1.08581e-05 0.0128618)
(1.88917e-05 1.13244e-05 0.0128635)
(2.13144e-05 8.86012e-06 0.0128493)
(2.15192e-05 1.02557e-05 0.0128635)
(2.01227e-05 1.07466e-05 0.0128675)
(1.84761e-05 1.06822e-05 0.0128679)
(2.05715e-05 7.13014e-06 0.0128522)
(2.14809e-05 8.29922e-06 0.0128639)
(1.99096e-05 8.84307e-06 0.0128665)
(1.77315e-05 8.92678e-06 0.0128665)
(1.19178e-05 4.15329e-06 0.0127949)
(1.30328e-05 5.67927e-06 0.0128283)
(1.34713e-05 6.12253e-06 0.012844)
(1.36387e-05 6.8247e-06 0.0128494)
(1.23314e-05 4.47821e-06 0.0128291)
(1.36167e-05 5.75889e-06 0.0128522)
(1.39077e-05 6.35888e-06 0.0128622)
(1.36484e-05 6.80086e-06 0.0128647)
(1.41395e-05 5.04257e-06 0.0128472)
(1.47156e-05 5.83028e-06 0.0128637)
(1.44111e-05 6.24085e-06 0.0128698)
(1.36476e-05 6.39763e-06 0.0128707)
(1.3927e-05 4.24172e-06 0.0128528)
(1.48419e-05 4.85709e-06 0.0128667)
(1.44621e-05 5.20657e-06 0.0128712)
(1.34701e-05 5.3525e-06 0.0128715)
(8.14391e-06 2.47902e-06 0.0127914)
(9.0651e-06 3.32001e-06 0.0128258)
(9.52715e-06 3.68803e-06 0.0128428)
(9.69631e-06 4.10619e-06 0.0128489)
(8.56431e-06 2.61603e-06 0.0128267)
(9.53308e-06 3.35211e-06 0.0128509)
(9.90007e-06 3.79936e-06 0.0128621)
(9.83419e-06 4.15376e-06 0.0128654)
(9.54037e-06 2.94103e-06 0.0128454)
(1.01845e-05 3.42629e-06 0.0128635)
(1.02762e-05 3.74583e-06 0.0128709)
(9.95835e-06 3.9376e-06 0.0128725)
(9.55889e-06 2.61976e-06 0.0128524)
(1.03604e-05 2.9663e-06 0.0128677)
(1.04094e-05 3.20114e-06 0.0128735)
(9.98977e-06 3.35276e-06 0.0128744)
(5.62051e-06 1.48167e-06 0.012789)
(6.33903e-06 1.96947e-06 0.0128241)
(6.74243e-06 2.25369e-06 0.0128419)
(6.89545e-06 2.52273e-06 0.0128486)
(5.96425e-06 1.54422e-06 0.0128249)
(6.69659e-06 1.98746e-06 0.0128499)
(7.04018e-06 2.31705e-06 0.0128619)
(7.05847e-06 2.59419e-06 0.0128658)
(6.51635e-06 1.76319e-06 0.012844)
(7.09861e-06 2.07713e-06 0.012863)
(7.31969e-06 2.32244e-06 0.0128713)
(7.20023e-06 2.50602e-06 0.0128735)
(6.61235e-06 1.67451e-06 0.0128517)
(7.27163e-06 1.88345e-06 0.0128679)
(7.47014e-06 2.03996e-06 0.0128745)
(7.28323e-06 2.15847e-06 0.0128759)
(3.88174e-06 8.77376e-07 0.0127874)
(4.41991e-06 1.18109e-06 0.0128229)
(4.73986e-06 1.39167e-06 0.0128412)
(4.86665e-06 1.57473e-06 0.0128484)
(4.13455e-06 9.17034e-07 0.0128236)
(4.6798e-06 1.193e-06 0.0128491)
(4.96583e-06 1.43063e-06 0.0128616)
(5.01814e-06 1.64182e-06 0.012866)
(4.45978e-06 1.07699e-06 0.0128429)
(4.93684e-06 1.28533e-06 0.0128625)
(5.17097e-06 1.46692e-06 0.0128713)
(5.14606e-06 1.62299e-06 0.012874)
(4.57143e-06 1.0925e-06 0.0128509)
(5.08013e-06 1.22596e-06 0.0128677)
(5.30508e-06 1.33208e-06 0.0128748)
(5.22596e-06 1.41636e-06 0.0128767)
(2.63964e-06 5.12665e-07 0.0127862)
(3.02236e-06 7.10827e-07 0.012822)
(3.25825e-06 8.59699e-07 0.0128407)
(3.36021e-06 9.84005e-07 0.0128482)
(2.81446e-06 5.40985e-07 0.0128227)
(3.2055e-06 7.154e-07 0.0128485)
(3.42142e-06 8.81471e-07 0.0128613)
(3.48548e-06 1.03208e-06 0.012866)
(3.0128e-06 6.61004e-07 0.0128421)
(3.37011e-06 7.96524e-07 0.012862)
(3.56381e-06 9.21382e-07 0.0128712)
(3.59299e-06 1.03425e-06 0.0128742)
(3.10568e-06 7.12556e-07 0.0128503)
(3.47273e-06 8.01468e-07 0.0128674)
(3.66055e-06 8.78601e-07 0.0128749)
(3.66775e-06 9.47321e-07 0.0128771)
(1.72014e-06 2.90052e-07 0.0127855)
(1.97606e-06 4.19582e-07 0.0128215)
(2.13908e-06 5.19656e-07 0.0128404)
(2.21647e-06 6.01088e-07 0.012848)
(1.83714e-06 3.11912e-07 0.012822)
(2.09893e-06 4.212e-07 0.012848)
(2.24929e-06 5.31499e-07 0.012861)
(2.30923e-06 6.29638e-07 0.012866)
(1.95897e-06 3.99192e-07 0.0128415)
(2.20243e-06 4.84305e-07 0.0128616)
(2.34051e-06 5.63101e-07 0.012871)
(2.39181e-06 6.29795e-07 0.0128743)
(2.02413e-06 4.5329e-07 0.0128498)
(2.26748e-06 5.11331e-07 0.0128672)
(2.39586e-06 5.6778e-07 0.0128749)
(2.46047e-06 6.28863e-07 0.0128773)
(1.03392e-06 1.42738e-07 0.0127849)
(1.19062e-06 2.20614e-07 0.0128211)
(1.29349e-06 2.82461e-07 0.0128401)
(1.34653e-06 3.33069e-07 0.0128479)
(1.10596e-06 1.60848e-07 0.0128215)
(1.26446e-06 2.23946e-07 0.0128476)
(1.36092e-06 2.90765e-07 0.0128608)
(1.40504e-06 3.4908e-07 0.0128659)
(1.17592e-06 2.17089e-07 0.0128411)
(1.32553e-06 2.66885e-07 0.0128614)
(1.4143e-06 3.12232e-07 0.0128709)
(1.45826e-06 3.4553e-07 0.0128743)
(1.21552e-06 2.58245e-07 0.0128494)
(1.36314e-06 2.90715e-07 0.012867)
(1.44033e-06 3.25667e-07 0.0128748)
(1.50925e-06 3.70851e-07 0.0128774)
(5.18457e-07 1.77873e-08 0.0127846)
(5.99787e-07 5.48763e-08 0.0128208)
(6.55567e-07 8.9133e-08 0.0128399)
(6.83097e-07 1.19904e-07 0.0128478)
(5.56615e-07 3.48226e-08 0.0128212)
(6.36087e-07 6.53785e-08 0.0128474)
(6.88705e-07 9.75612e-08 0.0128607)
(7.11389e-07 1.27535e-07 0.0128659)
(5.89305e-07 6.39784e-08 0.0128408)
(6.6631e-07 8.67789e-08 0.0128612)
(7.15344e-07 1.08486e-07 0.0128708)
(7.35605e-07 1.24098e-07 0.0128743)
(6.07327e-07 8.75139e-08 0.0128492)
(6.8457e-07 9.86452e-08 0.0128668)
(7.27186e-07 1.11045e-07 0.0128747)
(7.58469e-07 1.30052e-07 0.0128774)
(-0.000746724 -0.00408159 0.0222899)
(-0.00377367 -0.00218084 0.0208845)
(-0.00439276 -0.00138081 0.0242931)
(-0.00284265 0.00020184 0.0170209)
(0.0021011 -0.000368084 0.0133841)
(0.00308624 -0.000394279 0.0220908)
(-0.000120424 -0.001794 0.0219363)
(-0.00150927 -0.0018556 0.0294203)
(0.000166637 -0.000305431 0.0177056)
(-0.00045046 -0.00205632 0.0284238)
(-0.00124338 -0.000390563 0.018946)
(-0.000306417 -0.000205416 0.0149642)
(0.000865154 0.000394514 0.0133432)
(0.00135865 0.000843435 0.0118321)
(0.00136928 -0.000472421 0.0232894)
(-0.000471239 0.000870428 0.0237521)
(-0.00396845 0.0015888 0.0447688)
(-0.00351408 -0.00122097 0.0266711)
(-0.000140297 -0.00174921 0.0182428)
(-6.74193e-05 -0.000455725 0.0187068)
(-0.00105123 -0.00056582 0.0120089)
(-0.00458498 -0.00358291 0.0372584)
(-0.000820911 -0.000346512 0.0192526)
(-0.00104947 -0.00129084 0.0273067)
(-0.00200654 -0.00214683 0.0321984)
(-0.000977414 -0.000700923 0.015601)
(5.73614e-05 -0.00119669 0.0171036)
(-0.000820884 -0.00114626 0.0201291)
(-0.000692369 0.000160303 0.0254293)
(-0.00337886 0.00333528 0.0276839)
(-0.00127599 0.00164328 0.0270445)
(0.000557918 0.00110416 0.0269012)
(0.000903814 0.000467693 0.0505485)
(0.00168159 0.00128446 0.0292911)
(0.00082529 0.000253038 0.0193678)
(-0.00095097 0.000763598 0.0273014)
(-0.000566233 0.00268555 0.0403848)
(-0.00113956 0.0020345 0.0309905)
(-0.000356591 0.000824915 0.0272163)
(0.00292933 -0.000568117 0.0590364)
(7.12875e-05 0.00231967 0.0349956)
(-0.000215449 -0.000955465 0.0323152)
(-0.00237462 -0.00154198 0.0370586)
(-0.00196754 -0.00100128 0.0170633)
(-0.00249705 0.000291028 0.0214658)
(-0.00129217 -0.000302399 0.0128467)
(-0.000190975 0.000441835 0.0123933)
(-0.00121002 0.00061499 0.0404228)
(9.96436e-05 -0.00159449 0.0333651)
(-0.000148707 0.000273467 0.0190445)
(-0.00347655 0.000598797 0.0316715)
(-2.74601e-05 -0.000250495 0.00151485)
(0.000153994 0.000580455 0.00314797)
(0.00296828 0.00421735 0.0496435)
(-0.000106948 0.00143752 0.0169789)
(-0.000783325 0.00444821 0.0335256)
(-0.00197475 0.00331317 0.0316159)
(-0.00035172 0.00277052 0.0400654)
(0.000870467 0.00298464 0.030277)
(-0.000280156 -1.22991e-05 0.0225875)
(0.000126899 -0.000989905 0.0426013)
(-0.000142995 -0.000485652 0.0083855)
(-0.00152702 -0.00146835 0.023041)
(-0.00174611 -0.00261802 0.0336394)
(-0.00107308 0.0035433 0.0575608)
(0.00145722 0.000441591 0.0183702)
(0.00672898 0.00282343 0.0402989)
(8.93294e-05 3.95473e-05 0.00871409)
(-0.00166028 8.25474e-05 0.0236642)
(-0.000131918 0.000920084 0.038526)
(0.00176612 0.000626814 0.0255481)
(0.000172999 -0.00181537 0.040332)
(0.000152731 0.000469465 0.0478149)
(-6.96363e-05 0.00148777 0.0172857)
(0.000261207 0.00225729 0.0437392)
(0.000884257 0.00116919 0.0356674)
(0.0011949 0.000594219 0.020227)
(0.00131635 0.00155194 0.0261895)
(-0.00133234 0.000103258 0.0345385)
(-0.00133453 0.000359819 0.025331)
(0.00109285 0.00186984 0.0128975)
(0.000858747 0.000702928 0.00448142)
(2.33761e-05 0.00179758 0.0178891)
(0.0017975 -0.00125692 0.0310728)
(0.00140404 0.00219966 0.0182077)
(0.00224408 0.00169323 0.0151184)
(0.000847012 0.000647082 0.0182614)
(-0.00100277 -0.000254591 0.0198126)
(0.000876985 2.72297e-05 0.0116913)
(0.0011024 0.000679869 0.0249177)
(0.000128168 0.000176785 0.00738611)
(-0.000329607 -0.000201622 0.0113899)
(0.00244485 -0.000659827 0.0242361)
(0.00185927 -0.000509863 0.0127451)
(-0.000187557 -0.000210953 0.021661)
(-0.00234251 -0.000618266 0.0240099)
(0.000306841 -1.53245e-05 0.0262135)
(6.27357e-05 -0.000515561 0.0121169)
(-0.000750304 -0.000522956 0.0230802)
(-0.000596246 0.000600084 0.0189128)
(6.44452e-05 -0.00017835 0.0110214)
(-8.08488e-05 -0.000479466 0.0209062)
(4.06769e-05 -0.000314157 0.0212687)
(-0.000464879 -0.000272697 0.0265812)
(0.000188288 -0.000117726 0.0240607)
(0.000266488 -0.000414642 0.0265399)
(5.57929e-05 4.73051e-05 0.0158465)
(-0.000131684 -5.3983e-05 0.0170955)
(0.000112135 -0.000266577 0.0127173)
(-0.000153629 -0.00127925 0.01442)
(-0.000556149 -0.000105604 0.0277144)
(-0.00014537 -8.10874e-05 0.0196101)
(0.000845115 -0.00101187 0.0294213)
(0.000536866 -0.00156751 0.0234802)
(0.000388583 -0.00167685 0.0259286)
(0.00111501 -0.00117949 0.0263524)
(0.000174259 -0.00168506 0.0195504)
(2.8022e-06 -0.00239458 0.0239125)
(0.000370956 -0.00138012 0.0246922)
(0.00106633 -0.000723463 0.0266551)
(-0.000207725 -0.000363412 0.0261388)
(0.000690529 -0.000241276 0.0247068)
(0.00188714 -0.000364676 0.022819)
(0.00142951 6.69356e-05 0.024093)
(-0.000470739 -6.47295e-06 0.0216425)
(-0.00113071 -0.000656142 0.0225996)
(0.000211469 -2.8592e-05 0.0256361)
(0.0011649 -0.000439486 0.0263302)
(7.47672e-05 0.000688193 0.00772311)
(0.000237357 0.000562778 0.00705403)
(-0.000107213 0.000270982 0.00743914)
(0.00010251 0.000300567 0.00759616)
(-0.000421818 3.22599e-07 0.00595772)
(-0.000604567 -0.000281468 0.00706464)
(-0.00061132 -3.04816e-06 0.0076579)
(-0.000313541 0.000123748 0.00798959)
(0.0003092 -0.00023449 0.0080419)
(0.00056003 -4.83417e-05 0.00820112)
(0.000302614 -5.50786e-05 0.00748952)
(-3.83889e-05 9.54367e-05 0.00744376)
(-6.20615e-05 -0.000798786 0.00607841)
(-0.000240066 -0.00108035 0.00676941)
(-0.000144263 -0.000489989 0.00759144)
(5.40876e-05 -0.000364828 0.0074866)
(0.000114428 -8.18582e-05 0.0153807)
(0.000155862 -0.000162483 0.0151635)
(0.000142299 -0.000225646 0.0152009)
(0.000153605 -0.000230256 0.0152258)
(-5.78094e-05 -0.000380321 0.014076)
(-0.000174026 -0.000481541 0.0145282)
(-5.705e-05 -0.000335652 0.0148463)
(7.83482e-05 -0.000213857 0.0150617)
(9.85961e-05 -0.000178824 0.0149535)
(0.000245035 -0.000114608 0.014912)
(0.000336651 -5.48261e-05 0.0147561)
(0.00027219 1.65048e-05 0.0148743)
(-0.000104302 -0.000330154 0.0140754)
(-0.000126752 -0.000404555 0.0143459)
(8.42295e-05 -0.000171722 0.0145944)
(0.000243187 -5.36243e-05 0.0147363)
(3.28105e-05 9.84926e-05 0.0122697)
(0.000116 0.000111354 0.0123434)
(0.000120829 7.91014e-05 0.0124135)
(0.000158498 7.02127e-05 0.0124667)
(-2.40627e-05 -1.00634e-05 0.011987)
(-3.86819e-05 -1.91495e-05 0.0122671)
(-2.54502e-05 2.29541e-05 0.0124386)
(5.78039e-05 6.8101e-05 0.0125239)
(6.85893e-05 4.79614e-05 0.0124952)
(0.000169545 8.27659e-05 0.0126022)
(0.000180144 0.000102945 0.0125577)
(0.000173556 0.000119938 0.0125391)
(2.84896e-06 -8.98432e-05 0.0120061)
(2.67368e-05 -0.000100359 0.0122598)
(6.00895e-05 -3.17226e-05 0.0123814)
(0.000126132 2.50979e-05 0.0124148)
(1.86139e-05 2.96558e-06 0.0128154)
(5.03854e-05 9.60941e-06 0.0128808)
(7.56868e-05 1.15869e-05 0.0129296)
(8.73835e-05 9.84267e-06 0.0129546)
(-9.48194e-07 -4.70156e-05 0.0126102)
(-6.59068e-06 -4.33389e-05 0.0127535)
(2.06708e-05 -1.49133e-05 0.0128622)
(5.39754e-05 1.4004e-05 0.0129216)
(2.3994e-05 2.54253e-05 0.0128133)
(7.90273e-05 4.01104e-05 0.0128899)
(0.000116545 5.28956e-05 0.0129112)
(0.000125493 6.10895e-05 0.0129197)
(-9.6669e-06 -1.88276e-05 0.0125448)
(9.91136e-06 -1.84167e-05 0.0126846)
(5.1858e-05 5.78609e-06 0.01278)
(9.09502e-05 3.08663e-05 0.0128309)
(1.39774e-05 1.03365e-05 0.0125765)
(3.89427e-05 1.94375e-05 0.0126849)
(5.36054e-05 2.16447e-05 0.0127593)
(6.45958e-05 2.21409e-05 0.0128085)
(2.00513e-06 -7.9646e-06 0.0125259)
(9.04346e-06 -2.38561e-06 0.0126679)
(2.37128e-05 1.1139e-05 0.0127673)
(4.26257e-05 2.52645e-05 0.0128281)
(1.2943e-05 3.01294e-05 0.0126598)
(4.79031e-05 3.67346e-05 0.012774)
(7.05328e-05 4.16974e-05 0.0128318)
(8.01708e-05 4.43651e-05 0.0128577)
(-1.61234e-06 6.55202e-06 0.012533)
(1.45088e-05 8.07038e-06 0.0126789)
(3.77569e-05 1.65439e-05 0.01277)
(5.97541e-05 2.63388e-05 0.0128181)
(9.17501e-06 2.14548e-06 0.0125438)
(2.28634e-05 8.13667e-06 0.0126515)
(3.26649e-05 1.15331e-05 0.0127303)
(4.04513e-05 1.32802e-05 0.0127843)
(3.26219e-06 -5.0215e-06 0.0125291)
(9.42292e-06 -2.06523e-08 0.0126575)
(1.90515e-05 8.11244e-06 0.0127504)
(3.00358e-05 1.60222e-05 0.0128105)
(7.42707e-06 1.75099e-05 0.0126035)
(2.7777e-05 2.1608e-05 0.0127227)
(4.17952e-05 2.42836e-05 0.0127967)
(4.91276e-05 2.56629e-05 0.0128372)
(4.83515e-07 8.47472e-06 0.0125449)
(1.14637e-05 9.81523e-06 0.0126812)
(2.55655e-05 1.3216e-05 0.0127709)
(3.85812e-05 1.70974e-05 0.0128217)
(6.33472e-06 2.15104e-07 0.0125077)
(1.47523e-05 3.94585e-06 0.0126195)
(2.0866e-05 6.49765e-06 0.0127038)
(2.61125e-05 7.94869e-06 0.0127635)
(2.88939e-06 -2.61751e-06 0.0125181)
(7.95626e-06 7.2158e-07 0.0126443)
(1.41872e-05 5.40414e-06 0.0127369)
(2.08737e-05 9.66145e-06 0.0127988)
(4.45474e-06 9.54136e-06 0.0125685)
(1.6536e-05 1.19891e-05 0.0126927)
(2.52744e-05 1.3561e-05 0.0127758)
(3.05182e-05 1.4379e-05 0.0128255)
(1.1177e-06 6.1977e-06 0.0125464)
(8.55344e-06 7.17321e-06 0.01268)
(1.73678e-05 8.72043e-06 0.0127702)
(2.53753e-05 1.03552e-05 0.0128236)
(4.47247e-06 -9.62588e-07 0.0124895)
(9.57944e-06 1.30116e-06 0.0126026)
(1.33374e-05 3.07999e-06 0.0126894)
(1.69743e-05 4.18528e-06 0.0127518)
(2.3834e-06 -1.89806e-06 0.0125105)
(6.10527e-06 2.71832e-07 0.0126359)
(1.01954e-05 3.06217e-06 0.0127285)
(1.44389e-05 5.55309e-06 0.0127918)
(2.82819e-06 4.8042e-06 0.0125483)
(1.01151e-05 6.35238e-06 0.0126753)
(1.56234e-05 7.39773e-06 0.0127632)
(1.92892e-05 7.98082e-06 0.0128182)
(1.17911e-06 3.93451e-06 0.0125443)
(6.24333e-06 4.63088e-06 0.0126771)
(1.18821e-05 5.43849e-06 0.0127679)
(1.69515e-05 6.1861e-06 0.0128232)
(3.2086e-06 -1.30394e-06 0.012478)
(6.39645e-06 6.28818e-08 0.0125919)
(8.74687e-06 1.24618e-06 0.0126802)
(1.13148e-05 2.04487e-06 0.0127444)
(1.83049e-06 -1.39477e-06 0.0125044)
(4.49958e-06 -4.83853e-09 0.0126295)
(7.22364e-06 1.70525e-06 0.0127226)
(1.00238e-05 3.21193e-06 0.0127868)
(1.83879e-06 2.32336e-06 0.012536)
(6.3468e-06 3.33047e-06 0.0126646)
(9.89272e-06 4.06278e-06 0.0127551)
(1.24462e-05 4.48986e-06 0.0128131)
(1.0195e-06 2.41403e-06 0.0125411)
(4.48797e-06 2.91309e-06 0.0126736)
(8.17796e-06 3.36837e-06 0.0127651)
(1.14771e-05 3.74487e-06 0.0128216)
(2.33643e-06 -1.28135e-06 0.0124713)
(4.35451e-06 -4.6501e-07 0.0125854)
(5.84295e-06 3.14642e-07 0.0126745)
(7.683e-06 8.98481e-07 0.0127397)
(1.37548e-06 -1.05702e-06 0.0125001)
(3.27178e-06 -1.60267e-07 0.0126251)
(5.10335e-06 9.21239e-07 0.0127185)
(6.98257e-06 1.85051e-06 0.0127834)
(1.23687e-06 1.06086e-06 0.0125286)
(4.08332e-06 1.72822e-06 0.012658)
(6.39609e-06 2.24752e-06 0.0127499)
(8.19358e-06 2.56546e-06 0.0128096)
(8.08645e-07 1.48853e-06 0.0125381)
(3.20211e-06 1.83509e-06 0.0126706)
(5.66508e-06 2.12439e-06 0.0127625)
(7.86034e-06 2.3388e-06 0.01282)
(1.68581e-06 -1.10838e-06 0.012467)
(2.99445e-06 -6.15363e-07 0.0125813)
(3.97004e-06 -8.99809e-08 0.0126708)
(5.28635e-06 3.30302e-07 0.0127366)
(1.01952e-06 -8.02419e-07 0.012497)
(2.35692e-06 -2.10799e-07 0.012622)
(3.59726e-06 4.83784e-07 0.0127156)
(4.86878e-06 1.06992e-06 0.012781)
(8.43778e-07 4.44008e-07 0.012524)
(2.67751e-06 8.92034e-07 0.0126538)
(4.21704e-06 1.26187e-06 0.0127465)
(5.48954e-06 1.49829e-06 0.0128072)
(6.13105e-07 9.35632e-07 0.0125357)
(2.2715e-06 1.17842e-06 0.0126681)
(3.93613e-06 1.3741e-06 0.0127604)
(5.41826e-06 1.50551e-06 0.0128184)
(1.20641e-06 -8.87101e-07 0.0124644)
(2.0673e-06 -5.83676e-07 0.0125787)
(2.71554e-06 -2.27586e-07 0.0126685)
(3.64851e-06 6.51208e-08 0.0127346)
(7.44115e-07 -5.99572e-07 0.0124947)
(1.6805e-06 -2.06059e-07 0.0126197)
(2.51807e-06 2.46174e-07 0.0127136)
(3.37564e-06 6.20946e-07 0.0127792)
(5.77433e-07 1.50238e-07 0.012521)
(1.77784e-06 4.5256e-07 0.012651)
(2.81422e-06 7.12001e-07 0.0127443)
(3.70317e-06 8.84608e-07 0.0128055)
(4.52067e-07 5.90717e-07 0.0125337)
(1.5975e-06 7.62005e-07 0.0126663)
(2.72646e-06 8.94581e-07 0.0127587)
(3.73566e-06 9.79239e-07 0.0128172)
(8.46346e-07 -6.63729e-07 0.0124626)
(1.41308e-06 -4.74256e-07 0.012577)
(1.84009e-06 -2.36523e-07 0.0126669)
(2.4846e-06 -4.03374e-08 0.0127332)
(5.2863e-07 -4.34666e-07 0.0124932)
(1.17217e-06 -1.75227e-07 0.0126182)
(1.72917e-06 1.17459e-07 0.0127121)
(2.29875e-06 3.55691e-07 0.012778)
(3.91997e-07 2.1648e-08 0.0125191)
(1.17776e-06 2.229e-07 0.0126492)
(1.86945e-06 4.00905e-07 0.0127427)
(2.47781e-06 5.25152e-07 0.0128043)
(3.21999e-07 3.71071e-07 0.0125323)
(1.10205e-06 4.89165e-07 0.0126649)
(1.86103e-06 5.78483e-07 0.0127575)
(2.53729e-06 6.34744e-07 0.0128162)
(5.67372e-07 -4.60352e-07 0.0124615)
(9.30357e-07 -3.42584e-07 0.0125759)
(1.20222e-06 -1.90323e-07 0.0126658)
(1.62294e-06 -6.6133e-08 0.0127323)
(3.57364e-07 -2.98743e-07 0.0124921)
(7.80943e-07 -1.33964e-07 0.0126171)
(1.13768e-06 4.90252e-08 0.0127111)
(1.50305e-06 1.96596e-07 0.0127771)
(2.56494e-07 -2.00314e-08 0.0125179)
(7.57984e-07 1.08958e-07 0.0126481)
(1.20487e-06 2.2511e-07 0.0127417)
(1.60377e-06 3.09331e-07 0.0128035)
(2.16828e-07 2.3257e-07 0.0125313)
(7.27298e-07 3.09272e-07 0.0126639)
(1.21856e-06 3.66499e-07 0.0127566)
(1.65535e-06 4.02443e-07 0.0128155)
(3.52514e-07 -2.91497e-07 0.0124609)
(5.66432e-07 -2.20532e-07 0.0125752)
(7.26103e-07 -1.31457e-07 0.0126652)
(9.70021e-07 -5.95652e-08 0.0127317)
(2.22912e-07 -1.88148e-07 0.0124914)
(4.78138e-07 -9.21481e-08 0.0126164)
(6.89577e-07 1.10198e-08 0.0127105)
(9.06777e-07 9.43713e-08 0.0127766)
(1.55673e-07 -2.48209e-08 0.0125171)
(4.53514e-07 4.97434e-08 0.0126473)
(7.19968e-07 1.16395e-07 0.0127411)
(9.60811e-07 1.65894e-07 0.0128029)
(1.33529e-07 1.38657e-07 0.0125307)
(4.4118e-07 1.81396e-07 0.0126632)
(7.33455e-07 2.11785e-07 0.012756)
(9.94358e-07 2.30811e-07 0.012815)
(1.97935e-07 -1.79736e-07 0.0124604)
(2.87886e-07 -1.40193e-07 0.0125748)
(3.666e-07 -9.44485e-08 0.0126648)
(4.68368e-07 -5.76731e-08 0.0127313)
(1.25171e-07 -1.24863e-07 0.012491)
(2.43173e-07 -7.80963e-08 0.0126159)
(3.51622e-07 -3.13348e-08 0.0127101)
(4.56126e-07 4.71101e-09 0.0127762)
(8.11426e-08 -3.97178e-08 0.0125167)
(2.23519e-07 -4.80281e-09 0.0126469)
(3.60718e-07 2.30744e-08 0.0127407)
(4.81037e-07 4.32448e-08 0.0128026)
(6.58764e-08 5.17992e-08 0.0125302)
(2.17177e-07 6.88487e-08 0.0126628)
(3.6571e-07 7.6858e-08 0.0127556)
(4.96203e-07 8.02853e-08 0.0128146)
(-0.00288341 8.7257e-05 0.0198254)
(-0.000381126 0.000687305 0.00997143)
(-0.000929843 0.00143835 0.0199159)
(0.0004161 0.000545308 0.00778732)
(-0.0017208 -0.0012706 0.0189831)
(-3.40697e-05 0.00047638 0.0276225)
(-0.000614197 0.00110082 0.0171713)
(-0.000427634 0.00120864 0.0150294)
(-0.000691138 5.11298e-05 0.017739)
(-0.000292245 -0.00171315 0.0194131)
(-0.000276051 -0.0011 0.0183654)
(-0.000936609 -0.00272199 0.0256066)
(-0.00108553 -0.00093806 0.0212262)
(-0.000632491 -0.00070279 0.0163749)
(-0.00106979 -0.000477848 0.0205895)
(-0.000109438 -0.000462019 0.00328808)
(-0.00048417 0.000538834 0.0331447)
(-0.000883848 0.000800586 0.0366643)
(0.000414574 0.000530315 0.0149201)
(-0.00439164 -0.00161006 0.0399005)
(0.000434126 0.000858059 0.00767914)
(0.000208395 0.000284577 0.0205353)
(-0.000583824 0.000937687 0.0346167)
(-0.00366685 -0.00448728 0.039612)
(0.000456318 -0.000379415 0.0182309)
(-0.00221294 0.000762661 0.0276333)
(-0.00392527 -0.000153895 0.0340719)
(-0.00153677 0.000546257 0.0160616)
(-0.000458331 -0.00673234 0.0378791)
(-0.000636337 -0.000946491 0.0182318)
(0.00020037 -0.000841002 0.0184643)
(-0.00274093 0.00124363 0.0373481)
(-0.000105576 -0.000478062 0.0258761)
(0.000239597 0.000924727 0.0158565)
(0.000619832 -0.00176107 0.0278809)
(-0.00301217 -0.00210032 0.030649)
(0.000778814 -0.000569372 0.0229368)
(-0.00156766 -6.03626e-05 0.0479452)
(-0.00177735 -0.00131756 0.0336648)