/*--------------------------------*- C++ -*----------------------------------*\
| =========                 |                                                 |
| \\      /  F ield         | OpenFOAM: The Open Source CFD Toolbox           |
|  \\    /   O peration     | Version:  2506                                  |
|   \\  /    A nd           | Website:  www.openfoam.com                      |
|    \\/     M anipulation  |                                                 |
\*---------------------------------------------------------------------------*/
FoamFile
{
    version     2.0;
    format      ascii;
    arch        "LSB;label=32;scalar=64";
    class       volScalarField;
    location    "0.1";
    object      Ksl;
}
// * * * * * * * * * * * * * * * * * * * * * * * * * * * * * * * * * * * * * //

dimensions      [1 -3 -1 0 0 0 0];

internalField   nonuniform List<scalar> 
1152
(
186480
247199
90093.4
1.00183e+06
174635
206371
275312
144597
165867
283530
67680
150257
162258
61433.8
106420
195015
114578
96851.5
90995.1
543898
158439
90558.9
272817
192570
128743
71806.8
154802
218913
128031
179841
157680
100734
546660
434862
409130
4.13403e+06
579263
462657
159539
231107
245033
261208
348989
121165
297272
144264
1.07206e+06
802710
180471
169425
223306
311771
190492
234357
177082
180351
435210
260501
268031
3.25378e+06
182383
115958
242216
119944
388148
408909
668399
203448
206807
181412
199840
159601
165879
295189
243681
108370
239078
226737
309991
388085
195401
160715
160357
244098
168394
266448
260328
161805
283541
118176
395680
195460
83822
638718
244574
145168
76157.6
66558.5
89024.9
92142.7
62896.8
73245.3
122470
173026
55053.8
86668.4
144204
48355.4
58374.3
143094
175375
110380
0
0
0
0
0
0
0
20.1159
0
0
0
0
0
0
0
575.137
0
0
0
0
0
0
0
0
0
0
0
0
0
0
0
0
0
0
0
0
0
0
0
0
0
0
0
0
0
0
0
0
0
0
0
0
0
0
0
0
0
0
0
0
0
0
0
0
0
0
0
0
0
0
0
0
0
0
0
0
0
0
0
0
0
0
0
0
0
0
0
0
0
0
0
0
0
0
0
0
0
0
0
0
0
0
0
0
0
0
0
0
0
0
0
0
0
0
0
0
0
0
0
0
0
0
0
0
0
0
0
0
0
0
0
0
0
0
0
0
0
0
0
0
0
0
0
0
0
0
0
0
0
0
0
0
0
0
0
0
0
0
0
0
0
0
0
0
0
0
0
0
0
0
0
0
0
0
0
0
0
0
0
0
0
0
0
0
0
0
0
0
0
0
0
0
0
0
0
0
0
0
0
0
0
0
0
0
0
0
0
0
0
0
0
0
0
0
0
0
0
0
0
0
0
0
0
0
0
0
0
0
0
0
0
0
0
0
0
0
0
0
0
0
0
0
0
0
0
0
0
0
0
0
0
0
0
0
0
0
0
0
0
0
0
0
0
0
0
0
0
0
0
0
0
0
181191
161034
98826.6
187468
274385
91057.7
97270.2
67488.8
171185
86253.3
134717
228831
250420
284273
95324.7
148803
101236
97304.1
155991
169609
227587
126746
322016
123483
132819
194938
158367
150835
118130
94549.8
141591
120511
140296
604553
299378
378725
214193
137477
227287
167883
252746
209885
190988
413328
1.10274e+06
231335
1.91039e+07
188225
230704
197889
231722
5.16736e+06
707661
135154
521871
129057
217650
207148
181980
231330
183269
278686
314029
219649
113750
490960
208482
1.48918e+06
286012
185346
191609
225267
153657
205002
209642
227984
332504
3.63267e+06
162880
171739
189209
615539
144388
119652
292493
201608
202181
205971
237472
162613
213737
243636
173847
230645
184181
242646
56034.6
128187
51817.8
43236.3
109817
47708.6
46677.5
42814.6
40013.5
31301.7
68107.2
71938.5
89332
58921.5
37236.6
53291.9
0
0
0
0
0
0
0
0
0
0
0
0
0
0
0
0
0
0
0
0
0
0
0
0
0
0
0
0
0
0
0
0
0
0
0
0
0
0
0
0
0
0
0
0
0
0
0
0
0
0
0
0
0
0
0
0
0
0
0
0
0
0
0
0
0
0
0
0
0
0
0
0
0
0
0
0
0
0
0
0
0
0
0
0
0
0
0
0
0
0
0
0
0
0
0
0
0
0
0
0
0
0
0
0
0
0
0
0
0
0
0
0
0
0
0
0
0
0
0
0
0
0
0
0
0
0
0
0
0
0
0
0
0
0
0
0
0
0
0
0
0
0
0
0
0
0
0
0
0
0
0
0
0
0
0
0
0
0
0
0
0
0
0
0
0
0
0
0
0
0
0
0
0
0
0
0
0
0
0
0
0
0
0
0
0
0
0
0
0
0
0
0
0
0
0
0
0
0
0
0
0
0
0
0
0
0
0
0
0
0
0
0
0
0
0
0
0
0
0
0
0
0
0
0
0
0
0
0
0
0
0
0
0
0
0
0
0
0
0
0
0
0
0
0
0
0
0
0
0
0
0
0
0
0
0
0
0
0
0
0
0
0
0
0
0
0
0
0
0
0
0
0
115592
576022
140939
129048
129035
110079
165639
218071
260242
142116
181965
82103.6
121995
304259
200793
199644
95051.7
104734
159619
262774
400332
193918
118652
78268.7
97999.8
141833
101807
5.81921e+06
151815
141013
110514
477298
151255
216485
370412
163791
946745
154456
296979
221137
159736
3.4758e+06
150797
230925
472577
176399
240918
219469
248070
291253
203707
158395
269271
174156
193621
205035
142784
313787
361341
167103
172036
346278
195498
201842
176624
291097
200850
162990
198799
122362
264981
253369
561699
335104
186199
391143
130036
204862
224898
189020
148467
210737
246618
136143
289560
186478
137725
205184
141339
171131
1.22288e+06
122301
2.95983e+06
141900
170465
159212
210397
99613.3
74702.8
84687.9
69719.9
83183
134646
126783
77304.4
78023.7
7188.61
47751.8
17846.3
54471.9
80889.7
69204.5
0
0
0
0
0
0
237.883
0
0
0
0
0
0
0
0
0
0
0
0
0
0
0
0
0
0
0
0
0
0
0
0
0
0
0
0
0
0
0
0
0
0
0
0
0
0
0
0
0
0
0
0
0
0
0
0
0
0
0
0
0
0
0
0
0
0
0
0
0
0
0
0
0
0
0
0
0
0
0
0
0
0
0
0
0
0
0
0
0
0
0
0
0
0
0
0
0
0
0
0
0
0
0
0
0
0
0
0
0
0
0
0
0
0
0
0
0
0
0
0
0
0
0
0
0
0
0
0
0
0
0
0
0
0
0
0
0
0
0
0
0
0
0
0
0
0
0
0
0
0
0
0
0
0
0
0
0
0
0
0
0
0
0
0
0
0
0
0
0
0
0
0
0
0
0
0
0
0
0
0
0
0
0
0
0
0
0
0
0
0
0
0
0
0
0
0
0
0
0
0
0
0
0
0
0
0
0
0
0
0
0
0
0
0
0
0
0
0
0
0
0
0
0
0
0
0
0
0
0
0
0
0
0
0
0
0
0
0
0
0
0
0
0
0
0
0
0
0
0
0
0
0
0
0
0
0
0
0
0
0
0
0
0
0
0
0
0
0
0
0
0
0
0
)
;

boundaryField
{
    inlet
    {
        type            zeroGradient;
    }
    outlet
    {
        type            zeroGradient;
    }
    wall
    {
        type            zeroGradient;
    }
    procBoundary0to1
    {
        type            processor;
        value           nonuniform List<scalar> 
192
(
62977.2
142135
94068.4
214079
113821
159767
134352
1.34726e+07
107540
382469
422884
170402
267557
336495
126524
5.73448e+06
143844
615788
298871
118421
518698
132320
225545
479153
65249.6
63616.2
141944
180156
0
0
0
1372.42
0
0
0
0
0
0
0
0
0
0
0
0
0
0
0
0
0
0
0
0
0
0
0
0
0
0
0
0
0
0
0
0
0
0
0
0
0
0
0
0
0
0
0
0
0
0
0
0
0
0
0
0
0
0
0
0
0
0
0
0
0
0
0
0
173918
124089
118325
113544
82841.3
334434
96710
102456
242901
269263
7.29658e+06
239007
300969
898179
132542
996567
349135
187882
264028
237554
373532
141945
281021
252824
82397
49891.1
46744.2
43278.2
0
0
0
0
0
0
0
0
0
0
0
0
0
0
0
0
0
0
0
0
0
0
0
0
0
0
0
0
0
0
0
0
0
0
0
0
0
0
0
0
0
0
0
0
0
0
0
0
0
0
0
0
0
0
0
0
0
0
0
0
0
0
0
0
0
0
0
0
)
;
    }
    procBoundary0to2
    {
        type            processor;
        value           nonuniform List<scalar> 
192
(
187382
352454
173109
491088
125264
172446
122107
6.00682e+06
211214
2.98972e+07
204210
174294
217742
316272
316614
121783
269155
350383
226275
144316
748290
162977
356682
1.0992e+06
126527
99767.3
76546.2
88091
0
0
-1.16896e-12
110.869
0
0
0
0
0
0
0
0
0
0
0
0
0
0
0
0
0
0
0
0
0
0
0
0
0
0
0
0
0
0
0
0
0
0
0
0
0
0
0
0
0
0
0
0
0
0
0
0
0
0
0
0
0
0
0
0
0
0
0
0
0
0
0
0
131237
90434.5
175850
108465
301166
240476
423573
273594
178408
185468
172120
140739
229941
135898
266599
177143
128682
209735
517923
276472
395453
86935.2
237431
198398
47020.1
21661.3
97583.5
31721.8
0
0
0
0
0
0
0
0
0
0
0
0
0
0
0
0
0
0
0
0
0
0
0
0
0
0
0
0
0
0
0
0
0
0
0
0
0
0
0
0
0
0
0
0
0
0
0
0
0
0
0
0
0
0
0
0
0
0
0
0
0
0
0
0
0
0
0
0
)
;
    }
}


// ************************************************************************* //
