/*--------------------------------*- C++ -*----------------------------------*\
| =========                 |                                                 |
| \\      /  F ield         | OpenFOAM: The Open Source CFD Toolbox           |
|  \\    /   O peration     | Version:  2506                                  |
|   \\  /    A nd           | Website:  www.openfoam.com                      |
|    \\/     M anipulation  |                                                 |
\*---------------------------------------------------------------------------*/
FoamFile
{
    version     2.0;
    format      ascii;
    arch        "LSB;label=32;scalar=64";
    class       volScalarField;
    location    "0.1";
    object      p;
}
// * * * * * * * * * * * * * * * * * * * * * * * * * * * * * * * * * * * * * //

dimensions      [0 2 -2 0 0 0 0];

internalField   nonuniform List<scalar> 
1152
(
17.6802
17.4042
17.3851
17.9154
17.6897
17.37
17.7366
17.8032
17.5827
17.2097
17.3823
17.5502
17.4863
17.2438
17.3672
17.4091
15.1711
15.1242
15.1571
14.9639
15.1637
15.121
15.0354
15.0282
15.0971
15.0809
15.1953
14.6879
14.8974
14.8092
14.9497
14.8629
13.1665
13.5474
13.379
12.0111
12.9492
13.5517
12.7094
12.3498
13.4005
13.5976
12.7552
11.6177
13.396
12.8196
13.281
12.8323
9.4387
9.49502
9.48639
9.62
9.49956
9.5436
9.60834
9.21081
9.78766
10.498
10.0509
9.35474
10.8243
11.5545
10.8576
10.3884
5.38015
5.39916
5.40477
5.74702
5.70351
5.84983
6.2676
6.29097
5.7629
5.85058
6.78784
7.36989
5.74486
7.29933
7.18926
7.56394
1.48247
1.74043
1.97089
2.13574
1.70225
1.96251
2.44366
2.68687
1.81253
2.21475
2.44755
2.70262
2.06934
2.23011
2.72766
3.0378
0.994906
0.997563
1.00022
1.01284
1.00834
1.01285
1.01745
1.10148
1.02449
1.01888
0.996369
1.07895
1.03795
1.00668
0.997988
0.997146
0.99487
0.993573
0.992611
0.991632
0.996289
0.995462
0.99421
0.994733
0.997787
0.996905
0.995891
0.994745
0.998744
0.998313
0.997888
0.998209
1.00087
1.0006
1.00129
1.00222
1.00138
1.00084
1.00099
0.999537
1.0021
1.00167
1.00214
1.00485
1.00186
1.00011
0.99903
1.00062
0.999538
0.999839
1.00047
1.00106
0.999956
1.00017
1.00064
1.00134
1.00021
1.00044
1.00099
1.00197
0.999957
0.999665
0.99952
1.00037
0.999872
0.99999
1.00022
1.00049
0.999957
1.00005
1.00023
1.00045
0.999961
1.00008
1.00032
1.00064
0.999717
0.999665
0.999702
1.00011
0.999789
0.999882
1.00002
1.00019
0.999786
0.999861
0.999973
1.00013
0.999729
0.999812
0.999931
1.0001
0.999529
0.999547
0.999619
0.999821
0.999752
0.999818
0.99991
1.00003
0.999709
0.999768
0.999851
0.999961
0.999625
0.999678
0.999757
0.99987
0.999471
0.999504
0.999566
0.99968
0.999727
0.999777
0.999843
0.999921
0.999673
0.999719
0.999779
0.999855
0.999592
0.999632
0.999688
0.999762
0.999473
0.999503
0.999551
0.999622
0.999717
0.999755
0.999802
0.999856
0.999665
0.9997
0.999745
0.999798
0.999595
0.999626
0.999667
0.999718
0.999503
0.999528
0.999564
0.999611
0.99972
0.999749
0.999783
0.999821
0.999675
0.999702
0.999735
0.999772
0.999618
0.999641
0.999672
0.999708
0.999548
0.999567
0.999594
0.999628
0.999734
0.999756
0.999781
0.999809
0.999697
0.999718
0.999742
0.999768
0.999652
0.99967
0.999693
0.999718
0.999599
0.999614
0.999634
0.999659
0.999757
0.999773
0.999792
0.999811
0.999727
0.999743
0.999761
0.99978
0.999693
0.999707
0.999723
0.999742
0.999653
0.999665
0.99968
0.999697
0.999786
0.999798
0.999812
0.999826
0.999763
0.999775
0.999788
0.999801
0.999737
0.999747
0.999759
0.999773
0.999707
0.999716
0.999727
0.99974
0.99982
0.999829
0.999838
0.999848
0.999803
0.999811
0.99982
0.99983
0.999783
0.999791
0.9998
0.999809
0.999762
0.999768
0.999776
0.999785
0.999857
0.999863
0.99987
0.999876
0.999845
0.99985
0.999857
0.999864
0.999831
0.999836
0.999842
0.999849
0.999816
0.99982
0.999826
0.999832
0.999896
0.9999
0.999905
0.999909
0.999888
0.999892
0.999896
0.9999
0.999879
0.999882
0.999886
0.99989
0.999869
0.999872
0.999875
0.99988
0.999937
0.999939
0.999942
0.999944
0.999932
0.999935
0.999937
0.999939
0.999927
0.999929
0.999931
0.999934
0.999921
0.999923
0.999925
0.999927
0.999979
0.99998
0.999981
0.999981
0.999977
0.999978
0.999979
0.99998
0.999976
0.999976
0.999977
0.999978
0.999974
0.999974
0.999975
0.999976
17.5356
17.607
17.6874
17.7401
18.1857
17.7659
17.7519
17.6231
17.8883
17.7324
17.7082
17.7304
17.9484
17.5906
17.3954
17.5501
15.1753
15.2241
15.2798
15.232
15.1102
15.2202
15.2811
15.28
15.1787
15.1987
14.8785
15.022
14.974
14.7708
13.5918
14.7874
13.0478
13.1861
12.91
12.708
12.668
12.6238
12.6488
12.7349
12.7249
12.6131
12.5757
13.1064
13.1634
13.2809
14.5932
13.6884
8.93361
9.0447
8.98312
9.7137
9.43238
9.42221
9.43006
9.71936
9.0005
9.38385
9.89018
9.86988
9.34927
9.56843
12.8695
10.7684
5.37573
5.46273
4.94387
4.28328
5.46229
5.69353
5.47682
5.82207
5.40928
5.38072
5.77075
5.90363
5.47946
5.26868
6.01167
6.07669
2.02397
1.53722
1.46201
1.41
1.75511
1.55406
1.47336
1.43579
1.51465
1.42147
1.56135
1.61212
1.84292
1.80962
1.571
1.73668
1.01669
0.984784
1.00002
1.00709
0.990804
1.00859
1.01117
1.01206
1.01516
1.01884
1.0065
1.00601
1.00869
1.01634
1.02286
1.02303
0.993504
0.993842
0.994347
0.994962
0.994662
0.995047
0.995728
0.996329
0.99709
0.997643
0.99738
0.997545
0.99775
0.997879
0.998273
0.99827
1.00095
1.00019
1.0005
1.00102
1.00089
1.00132
1.00155
1.00162
1.00283
1.00259
1.00197
1.00191
1.00186
1.00228
1.00228
1.00221
0.999081
0.99906
0.999169
0.999355
0.999466
0.99965
0.999733
0.99984
1.00014
1.00018
1.00001
1.00002
0.999703
0.999936
0.99994
0.999957
0.999752
0.999721
0.999774
0.999841
0.999843
0.999855
0.999884
0.999922
1.00004
0.999983
0.999924
0.999915
0.999749
0.999766
0.999749
0.999733
0.999667
0.999684
0.99971
0.999743
0.999697
0.99972
0.999734
0.999752
0.999738
0.999731
0.999708
0.9997
0.999547
0.999567
0.999546
0.999528
0.999698
0.999702
0.999711
0.999723
0.999661
0.999669
0.999675
0.999683
0.999624
0.99962
0.999611
0.999606
0.99948
0.999483
0.999473
0.999465
0.999695
0.999698
0.999702
0.999705
0.999642
0.999647
0.99965
0.999653
0.999582
0.999582
0.999578
0.999577
0.999468
0.999468
0.999464
0.999463
0.999699
0.9997
0.999701
0.9997
0.999643
0.999646
0.999648
0.99965
0.99958
0.999582
0.999581
0.999582
0.99949
0.99949
0.99949
0.999492
0.999709
0.999709
0.999709
0.999707
0.999658
0.999661
0.999662
0.999663
0.999602
0.999604
0.999605
0.999607
0.999531
0.999532
0.999534
0.999537
0.999726
0.999727
0.999726
0.999724
0.999684
0.999686
0.999687
0.999688
0.999637
0.999639
0.999641
0.999643
0.999582
0.999584
0.999586
0.99959
0.999751
0.999752
0.999751
0.999749
0.999717
0.999719
0.99972
0.99972
0.99968
0.999681
0.999683
0.999685
0.999638
0.999639
0.999641
0.999645
0.999782
0.999782
0.999782
0.99978
0.999755
0.999756
0.999757
0.999758
0.999726
0.999728
0.999729
0.999731
0.999695
0.999696
0.999698
0.999701
0.999817
0.999817
0.999817
0.999816
0.999797
0.999798
0.999798
0.999799
0.999775
0.999776
0.999777
0.999779
0.999752
0.999753
0.999755
0.999757
0.999855
0.999855
0.999855
0.999854
0.99984
0.999841
0.999841
0.999842
0.999825
0.999826
0.999827
0.999828
0.999808
0.999809
0.99981
0.999812
0.999895
0.999895
0.999895
0.999894
0.999885
0.999886
0.999886
0.999886
0.999875
0.999875
0.999876
0.999877
0.999864
0.999864
0.999865
0.999867
0.999936
0.999936
0.999936
0.999936
0.999931
0.999931
0.999931
0.999931
0.999925
0.999925
0.999925
0.999926
0.999919
0.999919
0.999919
0.99992
0.999979
0.999979
0.999979
0.999979
0.999977
0.999977
0.999977
0.999977
0.999975
0.999975
0.999975
0.999975
0.999973
0.999973
0.999973
0.999973
17.426
17.59
17.6692
17.5991
17.6768
17.6491
17.5323
17.2053
17.6744
17.6236
17.38
17.2565
17.7229
17.7099
17.4807
17.7135
15.2019
15.0314
15.1401
14.9439
15.2328
15.0021
15.021
14.8656
15.1497
14.8383
14.9596
14.6081
15.1709
15.0195
15.0275
14.9162
13.127
13.0264
12.6278
12.3769
12.8439
12.6353
12.8539
13.0028
13.0344
13.4297
12.9976
13.0371
12.9787
13.3787
13.0723
12.2998
9.14916
9.22351
8.94466
9.17781
8.99872
9.01623
9.1489
9.44579
9.19744
9.47109
9.53757
9.85721
9.09101
9.38788
9.38669
9.44117
5.20169
5.1917
5.45752
5.56382
5.23653
5.27618
5.2306
5.5385
5.10494
5.09477
5.11876
5.30194
4.77623
4.96196
5.21237
5.4466
2.25622
2.07947
1.96142
2.25901
1.81232
2.12357
1.87615
2.0103
1.35648
1.62612
0.364119
1.62414
-0.210819
1.5483
1.67195
1.83146
0.974089
0.99081
0.996148
1.00212
0.994872
0.996482
0.977085
0.973568
0.998824
0.988874
1.0435
1.0051
1.08796
0.999924
1.00126
0.999794
0.992501
0.990389
0.990232
0.989315
0.992628
0.991039
0.992824
0.990352
0.993384
0.992024
0.994213
0.991342
0.995277
0.99272
0.992762
0.991748
0.999121
0.998955
0.999229
0.999303
0.999667
0.999197
0.998867
0.998581
1.00061
0.999913
1.00077
1.00012
1.00134
1.00049
1.00057
1.00044
0.998495
0.998398
0.998625
0.998812
0.998707
0.99862
0.99877
0.998919
0.998988
0.998968
0.999432
0.999625
0.999325
0.9994
0.999819
1.00018
0.999549
0.999452
0.999531
0.999694
0.999587
0.9995
0.999568
0.999724
0.999692
0.999659
0.999813
1.00001
0.999814
0.999845
1.00002
1.00025
0.999617
0.99963
0.999719
0.999874
0.999652
0.999674
0.999764
0.999915
0.999699
0.999747
0.999865
1.00003
0.999753
0.999829
0.999958
1.00013
0.999713
0.999749
0.999823
0.999941
0.999721
0.999762
0.99984
0.999958
0.999736
0.999789
0.999877
0.999996
0.999756
0.999817
0.999908
1.00002
0.999736
0.999786
0.999853
0.999942
0.999738
0.999788
0.999856
0.999945
0.999741
0.999794
0.999864
0.999951
0.999746
0.999797
0.999865
0.999947
0.999746
0.999796
0.999852
0.999918
0.999745
0.999793
0.999849
0.999915
0.999743
0.999789
0.999844
0.999908
0.99974
0.999782
0.999832
0.99989
0.999754
0.999798
0.999844
0.999892
0.999751
0.999793
0.999838
0.999887
0.999748
0.999786
0.999829
0.999875
0.999743
0.999776
0.999814
0.999855
0.999766
0.999803
0.999838
0.999874
0.999763
0.999798
0.999833
0.999868
0.999759
0.99979
0.999823
0.999857
0.999754
0.99978
0.999808
0.999838
0.999783
0.999813
0.999841
0.999867
0.999781
0.999809
0.999836
0.999862
0.999778
0.999802
0.999827
0.999851
0.999773
0.999793
0.999814
0.999835
0.999807
0.99983
0.999851
0.99987
0.999805
0.999827
0.999847
0.999866
0.999803
0.999821
0.99984
0.999857
0.999799
0.999813
0.999829
0.999844
0.999836
0.999853
0.999868
0.999882
0.999835
0.99985
0.999865
0.999879
0.999832
0.999846
0.99986
0.999872
0.999829
0.99984
0.999851
0.999862
0.999869
0.999881
0.999892
0.999901
0.999868
0.999879
0.99989
0.999899
0.999866
0.999876
0.999885
0.999894
0.999864
0.999871
0.999879
0.999887
0.999904
0.999912
0.99992
0.999926
0.999904
0.999911
0.999918
0.999924
0.999903
0.999909
0.999915
0.999921
0.999901
0.999906
0.999911
0.999916
0.999942
0.999946
0.999951
0.999954
0.999941
0.999946
0.99995
0.999953
0.999941
0.999944
0.999948
0.999951
0.99994
0.999943
0.999946
0.999948
0.99998
0.999982
0.999983
0.999985
0.99998
0.999982
0.999983
0.999984
0.99998
0.999981
0.999983
0.999984
0.99998
0.999981
0.999982
0.999983
)
;

boundaryField
{
    inlet
    {
        type            zeroGradient;
    }
    outlet
    {
        type            fixedValue;
        value           uniform 1;
    }
    wall
    {
        type            zeroGradient;
    }
    procBoundary0to1
    {
        type            processor;
        value           nonuniform List<scalar> 
192
(
17.2391
17.3899
17.2748
17.1692
15.0256
14.9834
14.3878
13.9037
12.8893
12.8743
12.1152
13.5808
9.70651
9.21327
8.90265
8.73353
5.59945
5.34106
7.04757
8.3359
1.75504
2.18746
2.56156
3.83176
1.01784
1.04974
1.00595
0.958269
0.993458
0.99451
0.996437
0.999555
1.00331
1.00386
1.00371
1.00003
1.00159
1.00182
1.00199
1.0003
1.00085
1.00086
1.00087
1.00026
1.00041
1.00037
1.00028
0.999972
1.00016
1.0001
0.999991
0.999787
1.00001
0.999943
0.999845
0.9997
0.999914
0.999856
0.999775
0.999667
0.999862
0.999813
0.999748
0.999667
0.999837
0.999797
0.999747
0.999687
0.999831
0.9998
0.999762
0.999718
0.99984
0.999816
0.999787
0.999755
0.999858
0.99984
0.999819
0.999795
0.999883
0.99987
0.999855
0.999839
0.999913
0.999905
0.999895
0.999884
0.999947
0.999942
0.999936
0.99993
0.999982
0.999981
0.999979
0.999977
17.1099
17.2814
17.0218
17.1949
14.8966
14.7406
13.9549
14.7729
13.1451
12.4767
13.0036
13.3424
9.66932
9.68208
11.2448
10.3334
5.51613
5.36402
6.31173
5.60339
1.62457
1.71715
1.36405
1.35024
0.989109
1.00223
0.998333
1.00186
0.990248
0.990988
0.992213
0.993005
0.999344
1.00001
1.0006
1.00156
0.999101
0.999522
1.00003
1.00068
0.999961
1.00008
1.00032
1.00058
1.00008
1.00014
1.00024
1.00034
1.00008
1.00011
1.00014
1.00016
1.00004
1.00004
1.00005
1.00004
0.999985
0.999983
0.999973
0.999951
0.999939
0.999933
0.99992
0.999897
0.999906
0.999901
0.999888
0.999867
0.999889
0.999884
0.999873
0.999856
0.999886
0.999882
0.999873
0.999859
0.999893
0.99989
0.999883
0.999872
0.999909
0.999906
0.999901
0.999894
0.999931
0.999929
0.999926
0.99992
0.999957
0.999956
0.999954
0.999951
0.999985
0.999985
0.999984
0.999983
)
;
    }
    procBoundary0to2
    {
        type            processor;
        value           nonuniform List<scalar> 
192
(
17.671
17.4573
17.5328
17.7085
14.6121
12.3332
14.4956
14.4661
14.0067
16.2363
13.81
13.5864
11.7242
15.8973
11.547
10.854
6.71781
7.01954
6.97325
7.05274
1.90192
2.29154
2.17525
2.68454
1.00946
1.0196
1.03368
0.998673
0.998685
0.998065
0.996799
0.996198
1.0008
1.00019
0.999387
1.0009
0.999411
0.999464
0.99934
1.00011
0.999361
0.999369
0.999354
0.999723
0.999264
0.999264
0.999301
0.999488
0.999271
0.999283
0.999324
0.999439
0.999325
0.999342
0.99938
0.999446
0.999395
0.999411
0.999441
0.999485
0.999468
0.999482
0.999505
0.999536
0.99954
0.999552
0.999569
0.999592
0.99961
0.999619
0.999632
0.999649
0.999676
0.999683
0.999693
0.999705
0.999739
0.999745
0.999752
0.99976
0.9998
0.999804
0.999808
0.999814
0.999858
0.999861
0.999864
0.999868
0.999915
0.999917
0.999919
0.999921
0.999972
0.999972
0.999973
0.999974
18.3609
18.1811
18.2081
17.87
15.4376
15.3903
14.9554
15.0893
12.6151
12.7456
13.5959
13.5824
9.1051
9.58429
10.613
10.9965
5.44743
5.25865
5.90437
6.41469
1.63575
1.56894
1.53187
1.35637
1.0172
1.02923
1.0048
1.02101
0.996505
0.998299
0.998018
0.998404
1.00277
1.00278
1.00139
1.00131
0.999827
0.999957
0.999531
0.999482
0.999669
0.999614
0.999469
0.999409
0.999409
0.999384
0.999328
0.999299
0.999338
0.999322
0.999295
0.999277
0.999343
0.999333
0.999323
0.99932
0.999388
0.999384
0.999382
0.999386
0.999452
0.999451
0.999452
0.999458
0.999522
0.999522
0.999525
0.999531
0.999593
0.999594
0.999597
0.999602
0.999662
0.999663
0.999665
0.99967
0.999728
0.999729
0.999731
0.999734
0.999792
0.999792
0.999794
0.999796
0.999853
0.999853
0.999854
0.999856
0.999912
0.999913
0.999913
0.999914
0.999971
0.999971
0.999971
0.999971
)
;
    }
}


// ************************************************************************* //
