/*--------------------------------*- C++ -*----------------------------------*\
| =========                 |                                                 |
| \\      /  F ield         | OpenFOAM: The Open Source CFD Toolbox           |
|  \\    /   O peration     | Version:  2506                                  |
|   \\  /    A nd           | Website:  www.openfoam.com                      |
|    \\/     M anipulation  |                                                 |
\*---------------------------------------------------------------------------*/
FoamFile
{
    version     2.0;
    format      ascii;
    arch        "LSB;label=32;scalar=64";
    class       surfaceScalarField;
    location    "0.1";
    object      phi;
}
// * * * * * * * * * * * * * * * * * * * * * * * * * * * * * * * * * * * * * //

dimensions      [0 3 -1 0 0 0 0];

oriented        oriented;

internalField   nonuniform List<scalar> 
3120
(
5.37439e-09
-3.2577e-10
5.735e-08
-1.40131e-09
-1.24359e-09
1.35482e-09
1.27553e-09
6.6463e-08
-5.26775e-09
-1.31069e-08
-1.06943e-08
8.70847e-08
-3.89364e-09
3.66847e-09
8.80122e-09
1.63146e-09
6.83752e-09
2.38688e-09
4.58391e-08
3.75089e-09
-6.53488e-09
3.56474e-09
6.96414e-08
-7.28009e-10
1.72292e-08
2.55924e-08
7.50114e-09
4.22523e-08
8.3285e-09
2.00975e-09
5.57866e-08
-3.67987e-09
-8.67669e-09
-3.22156e-09
8.34116e-08
-9.73473e-09
1.70137e-09
7.54694e-08
3.59079e-09
4.54436e-08
1.48142e-08
5.34219e-08
-1.8617e-09
-7.53483e-09
9.24294e-08
-9.14864e-10
6.08009e-08
6.28436e-08
3.81558e-09
3.40562e-09
5.33903e-08
-2.2175e-09
-1.04403e-09
2.49006e-09
4.60114e-09
6.13227e-08
1.86471e-09
1.26432e-08
1.40573e-08
6.31596e-08
-2.85278e-10
7.26886e-09
2.38854e-08
-4.7091e-09
4.62235e-09
5.69103e-09
4.38912e-08
-4.95985e-09
9.74588e-09
6.07213e-09
6.30468e-08
4.47565e-09
1.14879e-09
4.37712e-08
1.14158e-08
4.16227e-08
-2.01181e-10
1.15259e-08
4.46186e-08
5.53422e-09
-4.9637e-09
1.88851e-08
7.53612e-08
1.52022e-08
1.03277e-08
4.61245e-08
-3.96423e-09
6.97122e-08
4.48741e-10
4.33264e-08
8.74417e-09
-4.06815e-09
4.90382e-08
5.26e-09
4.53608e-08
7.34449e-08
-2.35208e-09
3.65104e-09
4.78721e-08
5.07193e-09
-8.52649e-10
2.15998e-09
3.19369e-09
5.50537e-08
-1.4367e-09
7.7529e-09
1.7325e-08
3.998e-08
2.61707e-10
1.89368e-08
6.29555e-08
-2.97287e-08
-2.70501e-09
-1.55467e-09
4.85304e-08
3.27156e-09
1.70568e-08
3.44452e-09
4.30342e-08
8.40879e-09
3.91045e-09
6.58337e-08
2.38955e-08
5.27199e-08
-2.66981e-09
2.19268e-09
4.00042e-08
3.53692e-09
1.11443e-08
2.18125e-08
4.31791e-08
2.79454e-08
-4.04449e-10
3.36384e-08
-1.99245e-08
1.54345e-07
1.41344e-08
4.75286e-08
-6.26194e-09
-6.73358e-09
5.49028e-08
3.15955e-10
4.20076e-08
7.57055e-08
5.62836e-10
2.8153e-09
5.17695e-08
-1.33022e-08
6.02661e-09
1.86162e-09
3.33172e-09
5.43659e-08
-3.94267e-09
-7.1864e-10
2.21702e-09
4.27564e-08
-2.41321e-09
1.15418e-08
5.2391e-08
-1.24351e-09
2.28567e-10
-1.80395e-09
6.15891e-08
-8.66801e-09
-4.44744e-10
-1.07355e-08
5.77748e-08
9.12909e-09
-4.82101e-09
6.32979e-08
1.02308e-08
6.39057e-08
-7.81555e-09
-1.45697e-08
6.11218e-08
-5.36335e-10
4.75929e-09
-3.05741e-08
5.04428e-08
4.46629e-10
-1.02934e-08
4.34234e-08
-1.45039e-08
1.82406e-07
-2.5374e-08
7.5791e-08
1.73371e-09
1.98213e-08
1.00582e-07
1.31808e-08
4.78168e-08
7.30513e-08
-3.08728e-11
-1.27367e-09
4.00749e-08
3.67991e-09
9.31922e-09
4.1782e-10
-4.01883e-09
5.48569e-08
3.0791e-09
-2.88575e-09
-7.93396e-09
5.55793e-08
-1.58543e-09
-1.06333e-08
5.15829e-08
3.67575e-09
-3.09479e-09
2.56032e-10
6.73089e-08
-4.15475e-09
-8.67636e-09
5.81433e-10
5.87561e-08
6.60021e-11
-7.67596e-09
5.42976e-08
-4.01664e-08
7.68279e-08
-3.798e-09
1.30021e-09
6.59725e-08
-2.09684e-09
-1.30536e-08
-1.93458e-08
7.96257e-08
-1.92869e-08
-4.02267e-09
4.60034e-08
-4.6846e-09
1.1813e-07
-2.62437e-08
1.22067e-07
-5.35897e-09
-6.20149e-10
5.30462e-08
-5.91278e-09
4.60103e-08
7.21386e-08
-4.94428e-09
-4.35978e-09
4.24414e-08
-3.4123e-09
1.03498e-08
-5.44386e-09
-4.71216e-09
5.75541e-08
2.51455e-09
-2.40484e-09
-7.87109e-09
5.43073e-08
6.10416e-09
-1.10605e-08
4.94511e-08
5.96251e-09
-5.1926e-09
-1.265e-09
6.31058e-08
6.30098e-09
-6.50326e-09
-7.74584e-09
6.31004e-08
-5.03679e-09
6.44408e-10
4.43156e-08
2.4723e-10
4.49748e-08
-1.21274e-08
-6.66383e-09
8.2424e-08
1.07476e-09
-8.35511e-09
-4.02612e-10
6.85102e-08
-4.2552e-09
-2.15942e-09
4.47073e-08
-7.45044e-09
1.18205e-07
-9.16359e-09
9.58717e-08
1.56204e-08
-5.76729e-09
4.88084e-08
-7.20364e-09
3.84962e-08
6.55536e-08
7.77709e-10
-2.33835e-09
7.20076e-08
-4.16603e-09
-2.38388e-08
1.07797e-10
-2.82511e-09
5.95313e-08
1.51752e-09
5.97174e-11
-1.45354e-09
5.54936e-08
3.14988e-10
-4.49333e-09
4.97491e-08
2.10643e-09
-1.70359e-09
-3.37474e-09
6.52808e-08
5.64871e-10
-5.68997e-10
-1.83346e-09
6.09744e-08
-3.50823e-09
1.10064e-09
4.47002e-08
4.37587e-09
2.84162e-08
-1.2464e-10
4.65897e-10
7.7539e-08
1.16924e-09
1.08664e-09
1.03801e-09
6.44275e-08
-7.11755e-09
6.25344e-10
5.33867e-08
1.27067e-08
9.5242e-08
3.63146e-09
8.2354e-08
1.50676e-09
1.80463e-09
5.00176e-08
1.67741e-09
3.91478e-08
7.31902e-08
-1.13132e-08
-1.19963e-08
8.53249e-08
2.69856e-09
7.29407e-09
-1.68011e-08
-1.7957e-08
6.74833e-08
1.54928e-08
-1.17739e-08
-2.23183e-08
5.44497e-08
1.83352e-08
-4.19428e-08
4.10363e-08
3.47416e-08
-1.88682e-08
-7.22438e-09
7.15237e-08
7.85287e-09
-3.25366e-08
-7.31101e-09
6.39969e-08
-3.23546e-08
-4.06396e-09
2.62643e-08
1.48176e-08
-8.39855e-08
-1.21391e-08
-4.01303e-09
7.8325e-08
8.14179e-09
-1.66417e-08
-2.7948e-09
6.4414e-08
-1.20306e-08
2.10174e-09
4.26101e-08
1.80417e-08
7.39512e-08
-1.2461e-08
7.90278e-08
1.08186e-08
-1.20848e-08
4.22664e-08
-5.95593e-09
2.77371e-08
6.38172e-08
1.17969e-08
8.60542e-09
6.85014e-08
3.03056e-09
-6.60998e-09
1.37875e-08
8.27847e-09
6.23704e-08
-5.15608e-09
8.09105e-09
1.60204e-08
5.66411e-08
-1.25152e-08
2.82837e-08
5.07185e-08
-2.15365e-08
1.7647e-08
2.13065e-09
6.54709e-08
-5.11945e-09
2.87541e-08
1.74738e-09
5.94209e-08
2.71522e-08
-7.35028e-10
4.4622e-08
-3.19066e-08
3.13485e-08
1.28467e-08
4.68833e-09
6.66561e-08
-3.7355e-09
1.25554e-08
5.74464e-09
6.07084e-08
8.99093e-10
5.03968e-10
5.30276e-08
-1.50476e-08
6.06665e-08
2.02071e-08
6.49655e-08
-8.49771e-09
1.35866e-08
5.32299e-08
-1.21322e-09
4.62153e-08
5.95365e-08
3.73289e-09
1.0616e-09
6.27693e-08
8.90411e-10
4.7343e-11
4.48236e-09
2.06552e-09
6.05374e-08
-9.82282e-10
2.4246e-09
4.77985e-09
5.79703e-08
-4.05137e-09
4.20615e-09
5.60366e-08
-5.44971e-09
6.88861e-09
2.20632e-10
6.19991e-08
-2.57617e-09
8.97364e-09
5.21704e-10
5.88796e-08
4.25612e-09
2.60236e-10
5.38587e-08
-6.33608e-09
4.94963e-08
5.32508e-09
2.18121e-09
6.2059e-08
-2.68848e-09
4.52179e-09
2.46962e-09
5.95637e-08
1.57811e-10
1.05585e-09
5.65957e-08
-3.48664e-09
5.84858e-08
7.72329e-09
6.07401e-08
-4.47407e-09
5.03958e-09
5.71888e-08
-1.3622e-09
5.45257e-08
5.89027e-08
2.56178e-09
5.78447e-10
6.09165e-08
-1.10569e-09
-1.82009e-10
2.64755e-09
1.19217e-09
6.00926e-08
-8.33413e-10
1.53871e-09
2.01949e-09
5.9031e-08
-1.97154e-09
1.83788e-09
5.83198e-08
-2.29399e-09
3.62262e-09
3.26202e-10
6.07366e-08
-2.1079e-09
3.91968e-09
3.52199e-10
5.94225e-08
2.09425e-09
1.31079e-10
5.75723e-08
-1.96937e-09
5.63588e-08
3.02124e-09
9.52362e-10
6.06714e-08
-2.25991e-09
2.50228e-09
8.35488e-10
5.95993e-08
6.15926e-10
1.53627e-10
5.84591e-08
-1.46754e-09
5.88628e-08
3.34939e-09
6.00031e-08
-2.63817e-09
2.25961e-09
5.87634e-08
-2.35784e-10
5.77624e-08
5.91964e-08
1.27144e-09
4.40822e-11
6.02021e-08
-7.53708e-10
1.52463e-10
1.28089e-09
4.34156e-10
5.99365e-08
-2.87655e-10
7.73632e-10
7.75901e-10
5.95451e-08
-7.82926e-10
7.07406e-10
5.93039e-08
-9.05989e-10
1.71064e-09
5.49966e-11
6.02158e-08
-1.20085e-09
1.69453e-09
1.37517e-10
5.97351e-08
9.10635e-10
4.47549e-11
5.90871e-08
-5.74034e-10
5.87588e-08
1.58907e-09
2.92141e-10
6.02287e-08
-1.38352e-09
1.30508e-09
2.19508e-10
5.98013e-08
4.43631e-10
1.21494e-11
5.9353e-08
-5.94153e-10
5.94414e-08
1.5853e-09
5.99467e-08
-1.47003e-09
1.07078e-09
5.94935e-08
1.79089e-11
5.91346e-08
5.95695e-08
6.95166e-10
-1.29803e-11
5.99774e-08
-5.46815e-10
8.89785e-11
6.50156e-10
1.50097e-10
5.993e-08
-9.87769e-11
3.99539e-10
2.7095e-10
5.98043e-08
-2.79695e-10
2.4507e-10
5.97243e-08
-3.27314e-10
8.44519e-10
-6.6887e-12
6.00665e-08
-7.01639e-10
7.68846e-10
3.73165e-11
5.99235e-08
4.10664e-10
6.15507e-13
5.97155e-08
-1.70658e-10
5.96236e-08
8.32069e-10
6.75255e-11
6.01179e-08
-7.95555e-10
6.57174e-10
4.45449e-11
5.99688e-08
2.5744e-10
-5.4646e-11
5.98079e-08
-2.52519e-10
5.98247e-08
7.86458e-10
6.00221e-08
-7.86611e-10
5.40366e-10
5.98746e-08
7.66296e-11
5.97517e-08
5.98805e-08
3.78775e-10
-4.09888e-11
5.99045e-08
-3.36002e-10
7.0912e-11
3.36104e-10
2.9395e-11
5.9956e-08
-1.30624e-11
2.09499e-10
6.43574e-11
5.99455e-08
-7.90304e-11
5.55395e-11
5.99295e-08
-1.02064e-10
4.3424e-10
-4.00747e-11
6.00305e-08
-3.99405e-10
3.74665e-10
-1.7239e-11
6.00296e-08
2.02275e-10
-2.96839e-11
5.99818e-08
-8.27671e-11
5.99606e-08
4.40844e-10
-2.61673e-11
6.01075e-08
-4.44484e-10
3.42705e-10
-3.92852e-11
6.0089e-08
1.51584e-10
-7.80109e-11
6.00472e-08
-1.43155e-10
6.00532e-08
4.09124e-10
6.00936e-08
-4.24108e-10
2.88238e-10
6.0076e-08
8.06768e-11
6.00499e-08
6.00915e-08
2.13002e-10
-4.76987e-11
5.98852e-08
-2.02931e-10
5.66617e-11
1.83163e-10
-1.89701e-11
5.99846e-08
2.00873e-11
1.13739e-10
-4.3126e-12
6.00245e-08
-5.40844e-12
-6.68711e-12
6.00371e-08
-1.61194e-11
2.33811e-10
-5.3138e-11
6.00303e-08
-2.28431e-10
1.94304e-10
-4.31132e-11
6.00932e-08
1.07854e-10
-4.75115e-11
6.01114e-08
-6.45781e-11
6.01182e-08
2.39189e-10
-5.45686e-11
6.0119e-08
-2.49299e-10
1.84988e-10
-6.37165e-11
6.01638e-08
8.96627e-11
-8.10207e-11
6.01761e-08
-1.03862e-10
6.01876e-08
2.21031e-10
6.01427e-08
-2.3214e-10
1.60589e-10
6.01853e-08
6.23837e-11
6.02015e-08
6.02236e-08
1.2258e-10
-4.82578e-11
5.98842e-08
-1.21357e-10
4.7893e-11
1.02544e-10
-3.59134e-11
6.00083e-08
3.20567e-11
6.30063e-11
-3.02837e-11
6.00729e-08
2.14308e-11
-3.10612e-11
6.00997e-08
1.62975e-11
1.30252e-10
-5.4103e-11
6.00381e-08
-1.32393e-10
1.05885e-10
-5.04379e-11
6.01321e-08
6.00476e-11
-5.22985e-11
6.01793e-08
-5.82964e-11
6.01993e-08
1.32832e-10
-5.95675e-11
6.01325e-08
-1.40969e-10
1.02724e-10
-6.58553e-11
6.02095e-08
5.31592e-11
-7.3979e-11
6.02475e-08
-8.2521e-11
6.02656e-08
1.22716e-10
6.01722e-08
-1.2935e-10
9.17899e-11
6.02445e-08
4.26169e-11
6.02812e-08
6.03015e-08
7.1706e-11
-4.37091e-11
5.98889e-08
-7.28235e-11
4.00578e-11
5.87699e-11
-3.85517e-11
6.00264e-08
3.32589e-11
3.56934e-11
-3.63921e-11
6.01037e-08
2.86901e-11
-3.65108e-11
6.01379e-08
2.6165e-11
7.44449e-11
-4.8945e-11
6.00465e-08
-7.77608e-11
5.97567e-11
-4.80693e-11
6.01563e-08
3.43371e-11
-4.90954e-11
6.02175e-08
-5.12551e-11
6.02444e-08
7.51175e-11
-5.42266e-11
6.01434e-08
-8.06265e-11
5.83754e-11
-5.86029e-11
6.02369e-08
3.16768e-11
-6.27154e-11
6.0288e-08
-6.59812e-11
6.03109e-08
6.9579e-11
6.01892e-08
-7.33875e-11
5.332e-11
6.02768e-08
2.76156e-11
6.03244e-08
6.03464e-08
4.273e-11
-3.69289e-11
5.98947e-08
-4.41541e-11
3.25616e-11
3.4449e-11
-3.48352e-11
6.00397e-08
2.97762e-11
2.07351e-11
-3.39926e-11
6.01237e-08
2.77393e-11
-3.39023e-11
6.01619e-08
2.64052e-11
4.35532e-11
-4.11239e-11
6.00536e-08
-4.64417e-11
3.46569e-11
-4.13739e-11
6.01718e-08
2.01361e-11
-4.20468e-11
6.02402e-08
-4.28127e-11
6.02709e-08
4.33383e-11
-4.5268e-11
6.0151e-08
-4.67689e-11
3.38817e-11
-4.83005e-11
6.02535e-08
1.90942e-11
-5.05229e-11
6.03115e-08
-5.17788e-11
6.03374e-08
4.01178e-11
6.01989e-08
-4.22758e-11
3.13805e-11
6.02947e-08
1.75584e-11
6.03482e-08
6.03722e-08
2.59129e-11
-2.96265e-11
5.98999e-08
-2.7145e-11
2.56203e-11
2.06518e-11
-2.88588e-11
6.00491e-08
2.46166e-11
1.24007e-11
-2.85473e-11
6.01369e-08
2.36471e-11
-2.84165e-11
6.01773e-08
2.29365e-11
2.60017e-11
-3.28006e-11
6.0059e-08
-2.81281e-11
2.06007e-11
-3.34039e-11
6.01819e-08
1.21244e-11
-3.38861e-11
6.02541e-08
-3.41645e-11
6.02869e-08
2.54739e-11
-3.57901e-11
6.01563e-08
-2.75564e-11
2.00769e-11
-3.78897e-11
6.02636e-08
1.17198e-11
-3.91722e-11
6.03254e-08
-3.96328e-11
6.03531e-08
2.35066e-11
6.02042e-08
-2.46991e-11
1.87419e-11
6.03045e-08
1.11504e-11
6.03615e-08
6.03868e-08
1.5984e-11
-2.27588e-11
5.99041e-08
-1.69157e-11
1.95112e-11
1.26586e-11
-2.25504e-11
6.00558e-08
1.92459e-11
7.65024e-12
-2.24556e-11
6.01456e-08
1.87711e-11
-2.23392e-11
6.01871e-08
1.83688e-11
1.58212e-11
-2.50627e-11
6.0063e-08
-1.72799e-11
1.25369e-11
-2.56957e-11
6.01884e-08
7.52076e-12
-2.60586e-11
6.02627e-08
-2.61437e-11
6.02967e-08
1.52574e-11
-2.71239e-11
6.01597e-08
-1.64981e-11
1.21514e-11
-2.85684e-11
6.02697e-08
7.35106e-12
-2.93582e-11
6.03336e-08
-2.95446e-11
6.03624e-08
1.40127e-11
6.02072e-08
-1.46393e-11
1.13797e-11
6.031e-08
7.12743e-12
6.03688e-08
6.03951e-08
1.00027e-11
-1.66909e-11
5.99072e-08
-1.0637e-11
1.4284e-11
7.91994e-12
-1.67093e-11
6.00602e-08
1.42853e-11
4.88856e-12
-1.67007e-11
6.01512e-08
1.40379e-11
-1.6615e-11
6.01934e-08
1.37877e-11
9.78219e-12
-1.83136e-11
6.00657e-08
-1.07311e-11
7.79855e-12
-1.88547e-11
6.01926e-08
4.82164e-12
-1.9129e-11
6.0268e-08
-1.91665e-11
6.03027e-08
9.29683e-12
-1.96915e-11
6.01619e-08
-1.00183e-11
7.50928e-12
-2.06733e-11
6.02734e-08
4.73143e-12
-2.11884e-11
6.03384e-08
-2.13066e-11
6.03678e-08
8.49435e-12
6.02089e-08
-8.80071e-12
7.0262e-12
6.0313e-08
4.60233e-12
6.03729e-08
6.03997e-08
6.32463e-12
-1.1505e-11
5.99092e-08
-6.69452e-12
9.87311e-12
5.0693e-12
-1.15985e-11
6.00631e-08
9.94168e-12
3.28697e-12
-1.16195e-11
6.01547e-08
9.80229e-12
-1.15654e-11
6.01973e-08
9.63455e-12
6.12598e-12
-1.25951e-11
6.00674e-08
-6.6894e-12
4.97063e-12
-1.30054e-11
6.01951e-08
3.24704e-12
-1.32044e-11
6.02712e-08
-1.32305e-11
6.03062e-08
5.75707e-12
-1.34711e-11
6.01632e-08
-6.14149e-12
4.76086e-12
-1.41174e-11
6.02755e-08
3.18722e-12
-1.44579e-11
6.03412e-08
-1.45598e-11
6.0371e-08
5.24227e-12
6.02097e-08
-5.35878e-12
4.44968e-12
6.03147e-08
3.09289e-12
6.03751e-08
6.04023e-08
4.13099e-12
-7.32388e-12
5.99104e-08
-4.27149e-12
6.32558e-12
3.47962e-12
-7.41072e-12
6.00647e-08
6.37924e-12
2.53864e-12
-7.42547e-12
6.01567e-08
6.28422e-12
-7.38121e-12
6.01995e-08
6.15506e-12
3.99579e-12
-7.99012e-12
6.00683e-08
-4.23865e-12
3.41788e-12
-8.25746e-12
6.01965e-08
2.52229e-12
-8.38075e-12
6.0273e-08
-8.38859e-12
6.03083e-08
3.75355e-12
-8.48902e-12
6.01639e-08
-3.87726e-12
3.28601e-12
-8.88486e-12
6.02766e-08
2.48966e-12
-9.09714e-12
6.03427e-08
-9.16732e-12
6.03727e-08
3.43824e-12
6.021e-08
-3.40821e-12
3.09456e-12
6.03154e-08
2.41886e-12
6.03763e-08
6.04037e-08
3.52494e-12
-5.03461e-12
-3.41263e-12
4.40049e-12
3.34722e-12
-5.09295e-12
4.42431e-12
2.96894e-12
-5.08524e-12
4.34338e-12
-5.01628e-12
4.21392e-12
3.44902e-12
-5.45565e-12
-3.35796e-12
3.32507e-12
-5.6101e-12
2.992e-12
-5.67051e-12
-5.65032e-12
3.30398e-12
-5.715e-12
-3.14117e-12
3.25352e-12
-5.95199e-12
2.99315e-12
-6.08062e-12
-6.11411e-12
3.10689e-12
-2.856e-12
3.13629e-12
2.95651e-12
-3.69622e-09
-6.67315e-09
6.72702e-08
1.36725e-09
-6.49815e-09
-4.23899e-09
5.86373e-08
-7.73915e-10
-4.58949e-09
-1.61529e-09
4.32945e-08
-4.72589e-10
3.75259e-09
2.56021e-08
2.81784e-10
2.38519e-08
3.42325e-09
3.89442e-08
2.34632e-09
4.46124e-10
8.25647e-08
1.15412e-08
5.54061e-10
4.52991e-08
-5.22852e-09
7.34822e-08
1.08766e-08
-1.00853e-09
7.64416e-08
1.85075e-09
3.62379e-09
8.04289e-08
-4.81072e-10
9.12352e-09
5.98759e-08
4.11593e-09
4.46702e-08
8.64404e-09
8.41588e-08
8.12892e-09
9.73001e-08
-6.87651e-09
1.17102e-07
6.86824e-08
-7.58521e-09
3.34902e-09
7.62344e-08
-3.29005e-09
-7.61177e-09
3.09672e-09
5.95493e-08
-3.98216e-09
1.54412e-09
2.44266e-09
3.05012e-08
1.19473e-09
-4.01766e-10
2.50592e-08
2.71305e-10
-5.54334e-09
7.6563e-10
4.78348e-08
-3.86511e-09
2.85606e-09
8.11271e-08
-1.3809e-09
1.12135e-08
3.4044e-08
1.17416e-08
5.49981e-08
1.89361e-09
8.10317e-09
6.82947e-08
1.3438e-08
1.52906e-08
5.64499e-08
-8.07652e-09
3.88693e-08
5.37348e-08
1.26081e-08
4.12614e-08
2.173e-08
7.93673e-08
8.10198e-08
7.02477e-08
-5.82041e-08
3.2023e-07
4.01972e-08
-3.05948e-09
8.13469e-09
7.63392e-08
-2.73992e-09
5.009e-09
1.07802e-08
4.13798e-08
-6.79266e-10
3.2077e-09
3.25659e-09
3.22218e-08
-3.17594e-09
1.92963e-09
3.41481e-08
-2.73891e-09
4.61047e-09
2.67842e-09
5.01479e-08
1.31371e-09
3.00124e-09
9.22028e-08
-1.0071e-09
1.78997e-09
3.78314e-08
-3.24174e-09
6.24339e-08
4.95115e-09
3.04622e-09
6.4125e-08
3.57384e-09
-6.41754e-09
6.7246e-08
-7.1693e-09
8.3578e-09
5.79101e-08
-7.38722e-09
4.17745e-08
-1.32834e-09
7.47322e-08
-3.87375e-09
5.77799e-08
3.07345e-08
2.38559e-07
5.51316e-08
-1.94442e-09
9.1889e-10
8.0743e-08
-2.71984e-09
5.54207e-09
-2.59291e-09
3.69659e-08
-4.79717e-10
4.79033e-09
-1.53374e-09
3.74726e-08
-2.96526e-09
1.76534e-08
1.0484e-08
-2.50126e-09
2.92047e-09
7.53192e-09
4.21514e-08
2.36983e-09
5.08577e-09
8.50748e-08
-5.88504e-09
-3.95623e-09
4.85088e-08
-1.2209e-09
6.67552e-08
-1.21656e-08
-1.97391e-09
8.65763e-08
-1.4355e-08
-5.18427e-10
7.50396e-08
2.47834e-09
-3.73521e-08
7.44726e-08
-1.43146e-08
5.68102e-08
-6.96012e-09
7.32743e-08
-4.51636e-08
9.64837e-08
3.13707e-08
1.03534e-07
7.98711e-08
-2.0036e-09
1.04135e-09
8.17468e-08
8.00092e-10
1.47675e-08
1.69946e-10
2.0227e-08
-2.02158e-10
1.50441e-08
-7.39422e-09
4.61143e-08
-1.52419e-09
-8.64709e-09
4.62727e-08
-8.41758e-09
-5.74896e-09
3.83714e-09
4.58747e-08
8.22555e-09
6.151e-09
6.51192e-08
-5.30104e-09
-3.49186e-09
5.8133e-08
-1.33154e-09
4.99838e-08
4.20836e-10
1.03195e-09
8.90044e-08
-9.74175e-09
6.77689e-09
8.45763e-08
-2.46157e-09
-2.28968e-09
6.59902e-08
-2.96791e-09
5.38881e-08
4.76811e-09
7.0672e-08
-5.3909e-09
1.09945e-07
-1.59932e-09
9.47573e-08
7.46267e-08
1.52444e-08
3.85917e-09
6.88367e-08
-3.46035e-09
5.88571e-09
2.51477e-10
3.11512e-08
-1.81688e-09
1.09441e-08
-2.77626e-10
4.05745e-08
7.59151e-10
-1.25949e-09
3.56464e-08
1.94174e-08
7.42179e-09
3.49188e-09
3.99704e-08
4.71232e-09
3.05303e-09
6.50271e-08
2.02742e-09
-7.83682e-10
6.1324e-08
-1.07109e-09
5.81238e-08
6.58999e-09
-3.64961e-09
9.26087e-08
2.50172e-10
-5.31379e-09
9.92829e-08
2.42435e-09
1.88049e-09
6.11519e-08
1.02009e-09
5.52961e-08
1.71217e-09
6.54634e-08
7.76192e-09
9.19799e-08
-2.76752e-09
1.03676e-07
8.01406e-08
3.5295e-09
2.87132e-09
5.58986e-08
8.19535e-10
-1.59746e-09
1.7549e-09
3.6736e-08
-2.21258e-09
8.01374e-11
-2.75794e-09
4.02083e-08
1.44634e-09
-6.14548e-10
4.3698e-08
-1.15228e-08
-5.14373e-12
2.82766e-09
4.13744e-08
4.76845e-09
3.56868e-10
6.16515e-08
1.48808e-09
-1.30943e-09
6.31561e-08
2.12857e-09
5.74338e-08
7.95073e-10
3.14866e-09
9.15293e-08
9.18446e-09
-1.08294e-09
9.23334e-08
4.27279e-09
-6.71305e-10
6.54255e-08
2.15577e-09
6.07112e-08
-8.40478e-10
7.00162e-08
-1.77594e-09
9.53814e-08
8.69949e-10
9.19686e-08
7.73821e-08
5.46051e-10
-9.78501e-10
5.4363e-08
1.96794e-09
1.33806e-10
-2.3208e-09
3.69735e-08
2.49548e-09
-1.58293e-09
-4.35517e-09
4.3073e-08
3.20738e-09
-4.77489e-09
4.78263e-08
1.76205e-09
-5.67554e-09
-2.13694e-09
4.82082e-08
-5.11052e-09
-3.94966e-09
6.27147e-08
-5.56202e-09
-3.44235e-09
6.26943e-08
-2.83323e-09
5.77829e-08
-4.49353e-09
-7.73623e-10
9.46596e-08
-2.24064e-09
-1.94915e-09
8.808e-08
-5.02571e-09
-1.55705e-09
6.63252e-08
-1.40069e-09
6.23946e-08
-6.06457e-09
7.62845e-08
-1.04636e-08
1.01208e-07
-8.87968e-09
8.88319e-08
7.76358e-08
-8.64439e-10
-1.11249e-09
5.4097e-08
2.24278e-09
-9.75013e-09
-2.10394e-09
4.66e-08
1.36272e-09
-1.09424e-08
1.06364e-09
4.35564e-08
-3.53992e-10
4.43496e-09
3.93427e-08
-3.86333e-09
-9.516e-09
-6.29945e-09
6.29111e-08
-6.8574e-09
-6.232e-09
6.41841e-08
-1.81572e-09
-1.5241e-09
6.02401e-08
1.70707e-09
5.3576e-08
2.9349e-09
-2.41334e-09
8.78386e-08
6.25018e-09
-3.47211e-09
8.20049e-08
2.84719e-09
-1.47394e-09
6.96782e-08
1.08061e-09
6.21326e-08
-6.81897e-09
8.41283e-08
1.1657e-09
9.00204e-08
4.91676e-09
7.94569e-08
6.86606e-08
-1.99398e-09
-2.06633e-09
5.69312e-08
1.22587e-09
-3.72204e-09
-2.52878e-09
4.97957e-08
1.06088e-09
-3.17504e-09
-1.56725e-09
4.39905e-08
5.86084e-10
-2.72168e-10
3.75815e-08
-2.51052e-10
-4.44848e-09
-3.96376e-09
6.9257e-08
-2.84636e-09
-4.20604e-09
6.42591e-08
-3.0917e-10
-2.28249e-09
5.84181e-08
-9.0561e-10
5.13243e-08
2.28231e-10
-1.68618e-09
8.53328e-08
2.37268e-09
-2.12563e-09
7.77802e-08
2.21006e-09
-1.11252e-09
6.86709e-08
3.19963e-10
6.04286e-08
-3.39646e-09
8.70857e-08
1.00574e-09
8.33628e-08
3.25441e-09
7.4349e-08
6.49243e-08
-1.52539e-10
-8.23408e-10
5.7225e-08
6.81902e-10
-5.64348e-10
-8.94498e-10
5.04757e-08
6.25869e-10
-4.67256e-11
-6.52385e-10
4.36116e-08
5.13736e-10
-3.92373e-10
3.64663e-08
3.55333e-10
-8.23326e-10
-1.54687e-09
7.08037e-08
-4.13953e-10
-1.59042e-09
6.45455e-08
7.37737e-10
-9.67062e-10
5.75808e-08
-4.53448e-10
5.00154e-08
8.38302e-10
-6.50864e-10
8.35985e-08
1.63857e-09
-7.40526e-10
7.61302e-08
1.86095e-09
-2.7082e-10
6.77523e-08
2.21654e-10
5.93543e-08
-3.63524e-10
8.73735e-08
1.24235e-09
8.10777e-08
2.14301e-09
7.26322e-08
6.37468e-08
-1.36625e-10
-6.1224e-10
5.75577e-08
4.15926e-10
-7.95196e-12
-6.10019e-10
5.05504e-08
4.06054e-10
3.33602e-10
-5.53692e-10
4.3435e-08
3.88532e-10
-4.6437e-10
3.61408e-08
3.70135e-10
-3.02436e-10
-8.892e-10
7.1383e-08
9.38555e-11
-8.76231e-10
6.44154e-08
6.78377e-10
-6.70141e-10
5.71123e-08
-4.51913e-10
4.94805e-08
3.8572e-10
-3.83685e-10
8.27073e-08
9.42065e-10
-3.89674e-10
7.50875e-08
1.22714e-09
-2.2658e-10
6.70236e-08
-3.04208e-11
5.87762e-08
1.0482e-11
8.72841e-08
8.0652e-10
8.00048e-08
1.29289e-09
7.1813e-08
6.32883e-08
9.12938e-11
-3.22148e-10
5.75266e-08
2.61695e-10
2.02535e-10
-3.18264e-10
5.04966e-08
2.60333e-10
3.74705e-10
-3.1207e-10
4.33109e-08
2.63733e-10
-2.83699e-10
3.59888e-08
2.63832e-10
2.26566e-11
-4.24248e-10
7.14625e-08
2.33855e-10
-4.19542e-10
6.43054e-08
4.95734e-10
-3.5679e-10
5.68947e-08
-2.73165e-10
4.9264e-08
2.90275e-10
-1.89792e-10
8.21825e-08
5.76994e-10
-1.84404e-10
7.45658e-08
7.39689e-10
-1.39969e-10
6.66441e-08
-8.18068e-11
5.85288e-08
1.17024e-10
8.7151e-08
4.96439e-10
7.95516e-08
7.27361e-10
7.14815e-08
6.31442e-08
8.30607e-11
-1.95296e-10
5.74742e-08
1.64501e-10
1.70025e-10
-1.86055e-10
5.04332e-08
1.62127e-10
2.6219e-10
-1.88427e-10
4.32398e-08
1.67195e-10
-1.77571e-10
3.59238e-08
1.69116e-10
6.44596e-11
-2.29575e-10
7.14323e-08
1.89613e-10
-2.23717e-10
6.42179e-08
3.14978e-10
-2.04092e-10
5.67846e-08
-1.7268e-10
4.91746e-08
1.88693e-10
-1.07776e-10
8.1872e-08
3.40777e-10
-1.03175e-10
7.42933e-08
4.26961e-10
-9.68547e-11
6.64506e-08
-8.5233e-11
5.84237e-08
1.11471e-10
8.70362e-08
2.89725e-10
7.93566e-08
4.01874e-10
7.13446e-08
6.31039e-08
6.40527e-11
-1.21819e-10
5.74264e-08
1.05566e-10
1.19051e-10
-1.14671e-10
5.03902e-08
1.02411e-10
1.68758e-10
-1.1894e-10
4.32026e-08
1.0631e-10
-1.14775e-10
3.58966e-08
1.07989e-10
5.74181e-11
-1.35081e-10
7.13882e-08
1.3004e-10
-1.31714e-10
6.41624e-08
1.92035e-10
-1.27823e-10
5.67312e-08
-1.16596e-10
4.91401e-08
1.14057e-10
-7.378e-11
8.16966e-08
1.98372e-10
-7.16068e-11
7.4149e-08
2.43529e-10
-7.68099e-11
6.63545e-08
-7.9517e-11
5.83808e-08
7.69921e-11
8.69608e-08
1.67123e-10
7.92666e-08
2.23508e-10
7.12854e-08
6.30951e-08
4.10145e-11
-8.1318e-11
5.73971e-08
6.95799e-11
7.46934e-11
-7.59234e-11
5.0366e-08
6.62835e-11
1.03092e-10
-7.97338e-11
4.31848e-08
6.90351e-11
-7.80626e-11
3.5886e-08
7.04844e-11
3.96021e-11
-8.8444e-11
7.13557e-08
8.17712e-11
-8.61675e-11
6.41305e-08
1.14292e-10
-8.70383e-11
5.67058e-08
-8.3353e-11
4.91274e-08
6.68706e-11
-5.78599e-11
8.15992e-08
1.13798e-10
-5.71029e-11
7.40732e-08
1.38095e-10
-6.40239e-11
6.63073e-08
-6.93259e-11
5.8364e-08
4.81721e-11
8.6915e-08
9.62166e-11
7.92221e-08
1.25479e-10
7.12586e-08
6.30948e-08
2.48081e-11
-5.62596e-11
5.73816e-08
4.69109e-11
4.49072e-11
-5.23681e-11
5.03541e-08
4.39334e-11
6.18244e-11
-5.53935e-11
4.31773e-08
4.58718e-11
-5.47535e-11
3.58828e-08
4.70548e-11
2.49236e-11
-6.16258e-11
7.13362e-08
4.93599e-11
-6.00406e-11
6.41137e-08
6.73104e-11
-6.21095e-11
5.66943e-08
-6.12606e-11
4.91236e-08
3.83529e-11
-4.71689e-11
8.15464e-08
6.46782e-11
-4.70355e-11
7.40341e-08
7.83176e-11
-5.28853e-11
6.62846e-08
-5.74632e-11
5.83581e-08
2.90314e-11
8.68878e-08
5.55263e-11
7.91989e-08
7.12662e-11
7.12457e-08
6.30961e-08
1.44491e-11
-3.97514e-11
5.73747e-08
3.21426e-11
2.64203e-11
-3.69672e-11
5.03493e-08
2.96622e-11
3.68781e-11
-3.92452e-11
4.3175e-08
3.10244e-11
-3.90102e-11
3.58828e-08
3.1986e-11
1.49207e-11
-4.42779e-11
7.13258e-08
2.92012e-11
-4.3158e-11
6.41056e-08
3.96684e-11
-4.52593e-11
5.66898e-08
-4.53837e-11
4.91233e-08
2.16282e-11
-3.8003e-11
8.15186e-08
3.65783e-11
-3.81007e-11
7.40143e-08
4.45699e-11
-4.24893e-11
6.6274e-08
-4.5871e-11
5.83566e-08
1.72659e-11
8.68717e-08
3.21999e-11
7.91862e-08
4.09624e-11
7.12391e-08
6.30973e-08
8.28167e-12
-2.82638e-11
5.73724e-08
2.2223e-11
1.54379e-11
-2.62825e-11
5.03481e-08
2.02656e-11
2.20669e-11
-2.79546e-11
4.31751e-08
2.12264e-11
-2.78808e-11
3.58839e-08
2.20136e-11
8.71389e-12
-3.20425e-11
7.13209e-08
1.71176e-11
-3.12509e-11
6.41023e-08
2.34542e-11
-3.30317e-11
5.66885e-08
-3.34315e-11
4.91244e-08
1.21097e-11
-2.97804e-11
8.15044e-08
2.07034e-11
-2.99476e-11
7.40046e-08
2.56075e-11
-3.30716e-11
6.62693e-08
-3.53625e-11
5.83567e-08
1.02125e-11
8.68621e-08
1.87762e-11
7.91791e-08
2.37953e-11
7.12355e-08
6.3098e-08
4.72036e-12
-2.00073e-11
5.73723e-08
1.53733e-11
9.03296e-12
-1.86134e-11
5.03484e-08
1.39008e-11
1.32884e-11
-1.98054e-11
4.3176e-08
1.45883e-11
-1.98038e-11
3.58852e-08
1.52071e-11
5.02589e-12
-2.30237e-11
7.1319e-08
1.00206e-11
-2.24721e-11
6.41013e-08
1.39708e-11
-2.38596e-11
5.66886e-08
-2.42771e-11
4.91258e-08
6.74639e-12
-2.2563e-11
8.14973e-08
1.17658e-11
-2.27338e-11
7.40001e-08
1.48668e-11
-2.48995e-11
6.62674e-08
-2.64168e-11
5.83574e-08
6.03441e-12
8.68564e-08
1.10045e-11
7.9175e-08
1.39638e-11
7.12335e-08
6.30984e-08
2.69659e-12
-1.39029e-11
5.7373e-08
1.05079e-11
5.31515e-12
-1.29537e-11
5.03493e-08
9.45502e-12
8.07029e-12
-1.37632e-11
4.31771e-08
9.93402e-12
-1.37988e-11
3.58864e-08
1.04138e-11
2.89281e-12
-1.61825e-11
7.13185e-08
5.88578e-12
-1.58161e-11
6.41014e-08
8.38781e-12
-1.6831e-11
5.66892e-08
-1.71756e-11
4.91269e-08
3.77689e-12
-1.64123e-11
8.1494e-08
6.74669e-12
-1.65608e-11
7.39981e-08
8.73732e-12
-1.80216e-11
6.62668e-08
-1.90116e-11
5.83581e-08
3.57668e-12
8.6853e-08
6.49127e-12
7.91727e-08
8.28198e-12
7.12323e-08
6.30987e-08
1.55434e-12
-9.28308e-12
5.73738e-08
6.95269e-12
3.14713e-12
-8.67238e-12
5.03501e-08
6.25731e-12
4.93101e-12
-9.20384e-12
4.3178e-08
6.5811e-12
-9.25018e-12
3.58873e-08
6.92429e-12
1.68601e-12
-1.08761e-11
7.13185e-08
3.49071e-12
-1.06569e-11
6.41016e-08
5.06903e-12
-1.13491e-11
5.66898e-08
-1.16016e-11
4.91278e-08
2.14783e-12
-1.12471e-11
8.14923e-08
3.92627e-12
-1.13698e-11
7.39972e-08
5.19961e-12
-1.23176e-11
6.62666e-08
-1.29486e-11
5.83586e-08
2.14081e-12
8.68511e-08
3.87366e-12
7.91714e-08
4.97198e-12
7.12317e-08
6.30987e-08
9.47904e-13
-5.82648e-12
5.73743e-08
4.36959e-12
1.94007e-12
-5.51173e-12
5.03506e-08
3.99479e-12
3.09072e-12
-5.84193e-12
4.31785e-08
4.20237e-12
-5.9055e-12
3.58878e-08
4.42148e-12
1.05682e-12
-6.81209e-12
7.13185e-08
2.16492e-12
-6.73395e-12
6.41018e-08
3.1616e-12
-7.17239e-12
5.66902e-08
-7.35929e-12
4.91283e-08
1.30609e-12
-7.07763e-12
8.14914e-08
2.39704e-12
-7.19854e-12
7.39967e-08
3.21882e-12
-7.77993e-12
6.62665e-08
-8.17724e-12
5.83588e-08
1.3538e-12
8.68497e-08
2.4163e-12
7.91704e-08
3.11339e-12
7.12311e-08
6.30986e-08
7.52465e-13
-3.89365e-12
2.96159e-12
1.56051e-12
-3.94161e-12
2.93918e-12
2.4568e-12
-4.18387e-12
3.10105e-12
-4.33165e-12
3.2574e-12
8.57819e-13
-4.51252e-12
1.73804e-12
-4.67358e-12
2.54035e-12
-4.99313e-12
-5.21223e-12
9.89768e-13
-4.64893e-12
1.89151e-12
-4.8916e-12
2.58839e-12
-5.28624e-12
-5.6042e-12
1.04e-12
1.94665e-12
2.54796e-12
-2.48829e-09
-2.03836e-08
8.21749e-08
-3.70542e-10
-4.35041e-09
7.08246e-08
2.2012e-09
7.18255e-09
7.02241e-08
1.54184e-08
6.30002e-08
7.98543e-10
-5.94112e-11
2.8542e-08
2.89515e-09
6.28869e-10
5.62951e-08
5.54005e-09
5.70805e-09
7.18308e-08
-3.4335e-09
1.04732e-07
1.07478e-09
-2.19096e-09
4.35836e-08
5.32356e-09
-2.49216e-09
5.43975e-08
5.78957e-09
-2.55047e-09
7.33245e-08
-2.11783e-08
8.42094e-08
-4.16938e-10
3.27131e-08
2.78378e-09
3.70769e-08
-3.48146e-09
5.70433e-08
2.32801e-08
1.53606e-09
2.65206e-09
7.62897e-08
-4.7326e-09
4.57231e-09
7.3669e-08
1.35451e-09
9.88778e-09
5.66804e-08
3.08889e-09
6.50107e-08
4.51242e-10
8.18101e-09
1.85796e-08
-3.75098e-10
1.02704e-08
5.14233e-08
7.95448e-09
7.90429e-09
6.54846e-08
1.64631e-08
1.00038e-07
7.23292e-09
-3.02253e-09
4.8749e-08
-6.53082e-09
-6.53227e-09
8.4964e-08
-3.18267e-09
1.49265e-09
7.6388e-08
9.83613e-09
8.30133e-08
3.43394e-09
2.54838e-08
-5.80196e-10
3.64234e-08
3.19457e-09
5.4476e-08
2.80838e-08
-6.67312e-10
9.95353e-09
6.49716e-08
1.69015e-09
1.84925e-08
5.64407e-08
-1.68574e-09
-2.819e-09
6.23068e-08
-2.14588e-08
9.94233e-08
-8.04623e-12
-5.34389e-09
3.32058e-08
-4.41365e-09
-2.09296e-09
7.64144e-08
-3.92849e-09
1.13125e-11
6.21692e-08
1.88303e-09
6.99475e-08
-2.30143e-08
4.68584e-09
5.85577e-08
-1.40585e-08
2.17238e-08
5.21915e-08
-3.12193e-09
2.0143e-09
6.34485e-08
2.04413e-08
6.42127e-08
-7.1218e-09
3.36998e-08
4.78e-09
4.48087e-08
1.12943e-08
5.02377e-08
4.54489e-08
-1.24357e-09
7.10231e-09
5.79608e-08
1.91136e-09
1.12171e-08
4.49433e-08
-3.55601e-09
-1.10514e-09
7.35823e-08
-7.65435e-09
1.0973e-07
-4.1742e-10
-3.38273e-09
4.36286e-08
-2.10419e-09
-5.77999e-09
9.50982e-08
-4.73768e-09
-2.15629e-09
6.58538e-08
-7.93662e-09
6.86045e-08
-4.7771e-09
1.03041e-08
4.66827e-08
-2.31515e-09
7.157e-09
3.67925e-08
-4.33048e-09
7.20938e-09
5.60981e-08
1.46385e-08
6.98113e-08
-4.69134e-09
5.22206e-08
5.87329e-11
4.3273e-08
-9.16609e-10
5.60092e-08
6.85264e-08
-1.16951e-09
1.55943e-09
5.93314e-08
-3.62759e-09
1.47748e-09
4.77447e-08
-4.04675e-09
7.52465e-09
6.55908e-08
2.34259e-09
1.05223e-07
-2.34407e-09
8.43662e-09
3.88933e-08
-8.13647e-11
1.43691e-08
7.99438e-08
-3.82746e-09
6.27593e-09
7.08486e-08
5.99501e-09
6.08906e-08
-1.37354e-09
1.79017e-08
3.70669e-08
-1.43355e-09
7.29173e-09
4.39299e-08
-2.88336e-09
1.87763e-09
6.19462e-08
3.9125e-10
8.20994e-08
-4.50781e-09
7.55318e-08
-3.75978e-09
5.28958e-08
-3.43991e-09
5.59815e-08
7.15287e-08
1.40354e-09
2.28549e-08
3.32063e-08
6.32598e-10
1.02339e-09
4.87773e-08