/*--------------------------------*- C++ -*----------------------------------*\
| =========                 |                                                 |
| \\      /  F ield         | OpenFOAM: The Open Source CFD Toolbox           |
|  \\    /   O peration     | Version:  2506                                  |
|   \\  /    A nd           | Website:  www.openfoam.com                      |
|    \\/     M anipulation  |                                                 |
\*---------------------------------------------------------------------------*/
FoamFile
{
    version     2.0;
    format      ascii;
    arch        "LSB;label=32;scalar=64";
    class       volVectorField;
    location    "0.1";
    object      stored_U;
}
// * * * * * * * * * * * * * * * * * * * * * * * * * * * * * * * * * * * * * //

dimensions      [0 1 -1 0 0 0 0];

internalField   nonuniform List<vector> 
1152
(
(0.00210391 -0.0004534 0.0127461)
(0.0019071 0.00174754 0.00930581)
(-0.00506667 -0.00600384 0.0259723)
(4.92439e-05 0.000567861 0.00232857)
(0.00181212 -0.000777926 0.0140369)
(-0.000189198 0.000140078 0.0115161)
(-0.00136256 -1.59834e-05 0.00876256)
(0.00392117 0.00197557 0.0177254)
(0.00452943 -0.000481257 0.0149683)
(0.00106739 -0.000435244 0.00754341)
(-0.00502941 0.00362693 0.0361814)
(0.000879932 0.00189258 0.0192266)
(0.00295502 -0.0022773 0.0143824)
(0.00496023 -0.0146879 0.0420031)
(0.00051548 -0.00512857 0.0232258)
(0.00108767 -0.0011509 0.0133099)
(0.00205633 0.00011594 0.0553003)
(0.00272799 -0.000868701 0.0595691)
(0.010351 0.00401107 0.0630346)
(0.00089831 0.00432051 0.0154272)
(0.00247766 0.000676364 0.0428859)
(0.00513543 -0.000544133 0.0633256)
(0.00429398 0.00135478 0.0257961)
(0.00242377 0.00303688 0.0368708)
(0.000176182 0.000909446 0.0484627)
(-0.00108532 -0.00427262 0.0827166)
(0.00634358 -8.68355e-05 0.0440466)
(0.0051883 0.00167028 0.0395362)
(-0.00167842 0.00192146 0.0514756)
(-0.000941766 0.00357145 0.0352484)
(0.00490384 0.00101947 0.0405114)
(0.0137407 -0.00109229 0.0682751)
(-0.00134021 0.00154355 0.0205092)
(0.000479499 0.00079754 0.0242033)
(0.00815376 0.00329261 0.0224502)
(0.000416074 0.00238741 0.0110217)
(-0.00132508 0.00144607 0.0216058)
(0.00178015 0.00202699 0.0245137)
(0.0102693 0.00740896 0.0485081)
(-0.00107039 -0.00576856 0.0367742)
(-0.00333482 0.000823611 0.0376912)
(0.00360822 0.00591267 0.0370303)
(0.00707035 0.000269555 0.0304273)
(0.00650782 1.60004e-05 0.067935)
(0.00204284 0.00184365 0.0336411)
(0.00036825 0.00336605 0.0571482)
(-0.000226501 0.000695525 0.0177923)
(-0.000578021 -0.000780644 0.0217465)
(0.000283049 0.00172492 0.0541923)
(-0.00222303 0.0033986 0.0603534)
(-0.00571882 0.00298097 0.0460918)
(1.88407e-05 0.00337017 0.0312284)
(0.00107658 0.00252711 0.0532929)
(-0.00125345 0.000894389 0.0464753)
(-0.000270911 0.00390216 0.0543113)
(0.00169279 0.0149848 0.0489767)
(-0.00116681 -0.000439714 0.0311775)
(-0.00170012 -0.0014909 0.042926)
(0.00345959 2.17216e-05 0.0406101)
(-0.00041785 0.00137152 0.0178188)
(-0.00366034 -0.00612215 0.0603566)
(-0.00304972 -0.00816125 0.0818473)
(0.000483034 -0.00196164 0.0433333)
(0.0149498 -0.0155154 0.0719333)
(-0.00375388 0.000579789 0.0300882)
(8.52498e-05 4.70178e-05 0.0294121)
(-0.000376702 0.000555288 0.0226507)
(-0.00139436 -0.00165144 0.0501596)
(-0.00055182 0.000836913 0.0502541)
(-0.00428079 0.000874321 0.054495)
(-0.00226863 -0.00448862 0.048629)
(0.00660271 -0.00650342 0.0595265)
(-0.00127177 0.00334008 0.05874)
(-0.00524885 -0.0033315 0.0400014)
(-0.00772824 -0.00139701 0.0447782)
(-0.0011869 -0.00934574 0.0814555)
(-0.00639315 -0.0032316 0.0459257)
(-0.00750052 -0.0032289 0.0474032)
(-0.00234317 0.000631906 0.0362816)
(-0.00266127 0.00224791 0.0323208)
(-0.00126446 -0.00995887 0.0312319)
(-0.00335908 -0.00210458 0.0385353)
(-0.0029165 -0.00505646 0.0416577)
(0.00160226 -0.00358349 0.0324275)
(-0.00450595 -0.00205058 0.0398782)
(-0.00331947 -0.00243638 0.030152)
(-0.0034948 -0.00118887 0.0330366)
(0.00167531 -0.00336757 0.0476919)
(-0.00177542 -0.000115813 0.0313586)
(-0.00858478 -0.00114373 0.0557555)
(-0.0017329 -0.000400254 0.0263456)
(-0.000880064 -0.000831207 0.0452787)
(-0.00874591 0.00103399 0.0749415)
(-0.00182857 8.15341e-05 0.0215607)
(-0.00428527 0.00172061 0.0338465)
(-0.0099387 -0.000865685 0.0513211)
(0.000795753 0.00171214 0.0233188)
(-7.69658e-05 -0.000889241 0.0298081)
(-0.000423345 -0.000855778 0.0279763)
(0.000789714 -0.00252948 0.0288677)
(-0.000637594 -0.00152286 0.0293304)
(-0.000908372 -0.000901803 0.0306389)
(-0.0015902 6.58893e-05 0.0263231)
(-0.000200167 -0.000135991 0.0217618)
(-0.000558208 -0.000836132 0.0348645)
(-0.000253414 -0.000884021 0.0302337)
(-0.000731459 0.00035862 0.0252697)
(-0.000220793 0.00507103 0.0612438)
(0.000227147 0.00234998 0.0387117)
(0.000881843 0.000769243 0.0227402)
(0.00073956 0.000638143 0.0228378)
(0.00128998 0.00299495 0.0331758)
(-0.0020158 -0.00252432 0.0459519)
(-0.00384813 -0.00473883 0.0363762)
(-0.00567384 -0.00706087 0.0305042)
(-0.000663914 -0.0153099 0.0226529)
(-0.00345455 -0.00229059 0.0375011)
(-0.00645676 -0.00267616 0.0336956)
(-0.0143103 -0.00250046 0.0091914)
(-0.000681351 -0.00256346 -0.0676174)
(-0.00276706 -0.00105645 0.0435252)
(-0.00388624 -0.000843334 0.0349218)
(-0.00547395 0.00141146 0.0172494)
(-0.000704405 0.00970551 0.0476263)
(-0.00325202 -0.000510902 0.0453515)
(-0.00362248 0.000328501 0.0101034)
(-0.00254717 0.00110242 0.000541504)
(-0.00058709 0.00424155 0.0237554)
(0.00161428 0.00423573 0.0178869)
(0.00400067 0.00321333 0.0165138)
(0.00415438 0.0056382 0.0155188)
(-0.000287612 0.0112827 0.0156134)
(0.0029094 0.0012343 0.0174296)
(0.00656245 0.000858731 0.0170953)
(0.0113124 0.00117309 0.0145875)
(-0.000627937 -0.000924872 0.0137538)
(0.00194373 0.000508305 0.0180893)
(0.00407036 0.000737218 0.0169292)
(0.0023505 -0.000887041 0.0150102)
(-0.000332589 -0.00973797 0.0202474)
(0.0034308 0.00165928 0.0179611)
(0.0052957 0.000857794 0.015296)
(0.000695389 -0.000467728 0.0148623)
(-0.000493652 -0.00331373 0.0201162)
(0.000518768 0.000757731 0.0235015)
(0.00136596 0.000916074 0.0219164)
(0.00129007 0.00177794 0.0201096)
(6.56298e-05 0.00228797 0.0183306)
(0.00125133 7.31071e-05 0.0226563)
(0.00233723 0.000177109 0.0206791)
(0.00235583 0.000383908 0.0169328)
(6.5594e-06 -0.000402118 0.0111978)
(0.00103576 0.00017086 0.0225658)
(0.0016914 0.000250517 0.0210034)
(0.00067193 -4.91835e-05 0.0190514)
(-1.21396e-05 -0.00196311 0.0195249)
(0.00152324 0.000712457 0.0219283)
(0.00208015 0.00036949 0.0197598)
(0.000126964 -0.000156373 0.0180388)
(-0.000303938 -0.00119523 0.0203339)
(0.000560202 0.000289647 0.0203017)
(0.000791499 0.000443419 0.0199456)
(0.000675417 0.000736618 0.0194673)
(0.000190988 0.000828693 0.0191018)
(0.000782113 8.25031e-05 0.0202366)
(0.0011055 0.000141944 0.0196158)
(0.000939785 0.000194244 0.0186499)
(0.00014832 -5.77332e-05 0.0179572)
(0.000709648 0.000105088 0.0202342)
(0.00087543 7.04382e-05 0.0197443)
(0.000444404 -8.37507e-05 0.0191693)
(9.56661e-05 -0.000670192 0.0194856)
(0.000775587 0.000205743 0.0199348)
(0.000882439 6.58267e-05 0.0192668)
(0.000173276 -0.000171083 0.0186834)
(-7.99519e-05 -0.000558453 0.0195593)
(0.0003009 2.88049e-05 0.0203206)
(0.000383971 0.000146579 0.020154)
(0.000326218 0.000266432 0.0199415)
(0.000146993 0.00029067 0.0198007)
(0.000405247 -1.34359e-05 0.0202781)
(0.000499765 4.01894e-05 0.0200172)
(0.000397919 6.54894e-05 0.0196662)
(0.000120801 -6.53549e-06 0.0194698)
(0.000407426 8.25387e-06 0.0202563)
(0.000438723 -4.68127e-06 0.0200395)
(0.000256658 -6.92174e-05 0.0198031)
(8.35653e-05 -0.000246493 0.0198676)
(0.000407109 1.8171e-05 0.0201234)
(0.000403975 -3.43547e-05 0.0198854)
(0.000136544 -0.000129148 0.0196707)
(1.45607e-06 -0.000272764 0.0199231)
(0.000185748 -8.6853e-06 0.02017)
(0.000203967 4.05194e-05 0.0201289)
(0.000169908 8.14175e-05 0.0200533)
(9.55714e-05 8.72237e-05 0.0200015)
(0.000220028 -2.54114e-05 0.0201887)
(0.00023953 -1.4745e-07 0.0201004)
(0.000185344 8.20597e-06 0.019977)
(8.10382e-05 -1.55573e-05 0.0199132)
(0.000226249 -2.21344e-05 0.0202018)
(0.000222532 -2.69917e-05 0.0201184)
(0.000142508 -5.1863e-05 0.0200262)
(5.93632e-05 -0.00010728 0.020029)
(0.000214139 -3.81131e-05 0.0201574)
(0.00019878 -5.91788e-05 0.0200738)
(9.41476e-05 -9.61715e-05 0.019997)
(2.22619e-05 -0.000145119 0.0200631)
(0.000109681 -2.23855e-05 0.0201358)
(0.000111743 -1.36536e-06 0.0201382)
(9.265e-05 1.31232e-05 0.0201165)
(5.8315e-05 1.51359e-05 0.0200978)
(0.000122316 -3.12943e-05 0.020172)
(0.000123406 -2.01903e-05 0.0201525)
(9.57068e-05 -1.71355e-05 0.0201138)
(5.04474e-05 -2.52656e-05 0.0200925)
(0.000125898 -3.40282e-05 0.0201966)
(0.00011876 -3.68876e-05 0.0201728)
(8.20757e-05 -4.72679e-05 0.0201408)
(4.01204e-05 -6.54899e-05 0.020137)
(0.000116177 -4.99045e-05 0.0201885)
(0.000105424 -6.0162e-05 0.0201661)
(6.22241e-05 -7.55996e-05 0.0201415)
(2.39812e-05 -9.27797e-05 0.0201584)
(6.61663e-05 -2.49685e-05 0.020127)
(6.4479e-05 -1.62686e-05 0.0201522)
(5.34881e-05 -1.11135e-05 0.0201563)
(3.54543e-05 -1.01581e-05 0.0201531)
(7.03807e-05 -3.09614e-05 0.020174)
(6.81107e-05 -2.65595e-05 0.0201854)
(5.36995e-05 -2.58162e-05 0.0201808)
(3.15815e-05 -2.88985e-05 0.0201758)
(7.16975e-05 -3.53679e-05 0.0202052)
(6.6488e-05 -3.76073e-05 0.0202109)
(4.88102e-05 -4.23042e-05 0.0202057)
(2.67988e-05 -4.89367e-05 0.0202046)
(6.51733e-05 -4.68346e-05 0.0202136)
(5.9444e-05 -5.26448e-05 0.0202195)
(4.04309e-05 -5.96667e-05 0.0202172)
(2.00801e-05 -6.62521e-05 0.0202227)
(4.06505e-05 -2.36344e-05 0.0201277)
(3.86232e-05 -2.00317e-05 0.0201645)
(3.21294e-05 -1.81029e-05 0.0201808)
(2.19053e-05 -1.75327e-05 0.0201853)
(4.1799e-05 -2.79903e-05 0.0201797)
(3.9626e-05 -2.64802e-05 0.0202058)
(3.19046e-05 -2.6494e-05 0.0202159)
(2.0222e-05 -2.77408e-05 0.0202183)
(4.18397e-05 -3.20605e-05 0.0202135)
(3.87504e-05 -3.37975e-05 0.0202339)
(2.98893e-05 -3.61553e-05 0.0202415)
(1.80818e-05 -3.88198e-05 0.020244)
(3.77311e-05 -3.94253e-05 0.0202289)
(3.49927e-05 -4.30332e-05 0.0202485)
(2.61637e-05 -4.65732e-05 0.0202564)
(1.53304e-05 -4.93544e-05 0.0202608)
(2.55034e-05 -2.05101e-05 0.0201308)
(2.38876e-05 -1.90247e-05 0.0201739)
(1.99528e-05 -1.82749e-05 0.0201965)
(1.39177e-05 -1.79109e-05 0.0202051)
(2.55693e-05 -2.375e-05 0.0201849)
(2.4039e-05 -2.34109e-05 0.0202184)
(1.97216e-05 -2.3629e-05 0.0202356)
(1.32052e-05 -2.41648e-05 0.0202419)
(2.50619e-05 -2.69759e-05 0.0202195)
(2.33847e-05 -2.8308e-05 0.0202476)
(1.87694e-05 -2.96144e-05 0.0202617)
(1.23076e-05 -3.07731e-05 0.0202668)
(2.24922e-05 -3.15174e-05 0.0202374)
(2.12783e-05 -3.38863e-05 0.0202639)
(1.69997e-05 -3.58305e-05 0.0202772)
(1.12163e-05 -3.70904e-05 0.0202825)
(1.62736e-05 -1.68592e-05 0.0201344)
(1.51568e-05 -1.62676e-05 0.020181)
(1.27423e-05 -1.59622e-05 0.020207)
(9.101e-06 -1.57113e-05 0.0202179)
(1.60158e-05 -1.92564e-05 0.020189)
(1.50509e-05 -1.93476e-05 0.0202266)
(1.25626e-05 -1.95877e-05 0.0202474)
(8.81954e-06 -1.98298e-05 0.0202558)
(1.53828e-05 -2.16358e-05 0.0202236)
(1.45236e-05 -2.26384e-05 0.0202559)
(1.20534e-05 -2.34241e-05 0.0202734)
(8.45883e-06 -2.39664e-05 0.0202803)
(1.37513e-05 -2.44071e-05 0.020242)
(1.32695e-05 -2.60033e-05 0.0202723)
(1.11431e-05 -2.7149e-05 0.0202885)
(8.03763e-06 -2.77619e-05 0.020295)
(1.05489e-05 -1.33025e-05 0.0201375)
(9.81067e-06 -1.30906e-05 0.0201861)
(8.31052e-06 -1.29639e-05 0.0202141)
(6.07703e-06 -1.2784e-05 0.0202263)
(1.02317e-05 -1.50538e-05 0.0201921)
(9.6433e-06 -1.52734e-05 0.0202319)
(8.17641e-06 -1.54814e-05 0.0202547)
(5.97985e-06 -1.55938e-05 0.0202644)
(9.64804e-06 -1.67482e-05 0.0202264)
(9.22682e-06 -1.7489e-05 0.020261)
(7.87938e-06 -1.79866e-05 0.0202803)
(5.84133e-06 -1.82524e-05 0.0202884)
(8.58431e-06 -1.84378e-05 0.0202444)
(8.44256e-06 -1.95285e-05 0.0202768)
(7.37935e-06 -2.02427e-05 0.0202946)
(5.6797e-06 -2.057e-05 0.020302)
(6.90599e-06 -1.01146e-05 0.0201399)
(6.42508e-06 -1.00595e-05 0.0201898)
(5.48619e-06 -1.00075e-05 0.0202189)
(4.10196e-06 -9.87885e-06 0.0202319)
(6.61989e-06 -1.13745e-05 0.0201943)
(6.26575e-06 -1.1602e-05 0.0202354)
(5.38988e-06 -1.17658e-05 0.0202593)
(4.08268e-06 -1.18188e-05 0.0202698)
(6.14409e-06 -1.25523e-05 0.0202281)
(5.9484e-06 -1.30894e-05 0.020264)
(5.20487e-06 -1.34151e-05 0.0202845)
(4.03527e-06 -1.35495e-05 0.0202932)
(5.43614e-06 -1.3582e-05 0.0202456)
(5.44102e-06 -1.43292e-05 0.0202792)
(4.91675e-06 -1.47912e-05 0.020298)
(3.96763e-06 -1.49859e-05 0.020306)
(4.51486e-06 -7.3622e-06 0.0201417)
(4.20971e-06 -7.36917e-06 0.0201923)
(3.62858e-06 -7.3498e-06 0.0202221)
(2.77227e-06 -7.26146e-06 0.0202356)
(4.28817e-06 -8.24852e-06 0.0201958)
(4.08151e-06 -8.44039e-06 0.0202377)
(3.56101e-06 -8.56257e-06 0.0202622)
(2.78089e-06 -8.592e-06 0.0202732)
(3.92888e-06 -9.04347e-06 0.0202292)
(3.84825e-06 -9.42436e-06 0.0202659)
(3.4379e-06 -9.64325e-06 0.020287)
(2.76701e-06 -9.71747e-06 0.0202962)
(3.45485e-06 -9.66437e-06 0.0202462)
(3.51252e-06 -1.0171e-05 0.0202805)
(3.26266e-06 -1.04749e-05 0.0202999)
(2.73104e-06 -1.06024e-05 0.0203083)
(2.89086e-06 -5.02111e-06 0.020143)
(2.71215e-06 -5.04634e-06 0.020194)
(2.36958e-06 -5.04014e-06 0.0202242)
(1.85292e-06 -4.98221e-06 0.020238)
(2.72813e-06 -5.61408e-06 0.0201968)
(2.62019e-06 -5.75709e-06 0.0202391)
(2.32426e-06 -5.84227e-06 0.0202641)
(1.86849e-06 -5.86253e-06 0.0202753)
(2.47693e-06 -6.12374e-06 0.0202299)
(2.45783e-06 -6.38155e-06 0.020267)
(2.23983e-06 -6.52689e-06 0.0202885)
(1.86538e-06 -6.5726e-06 0.0202979)
(2.1675e-06 -6.48198e-06 0.0202465)
(2.23916e-06 -6.81242e-06 0.0202812)
(2.13091e-06 -7.0078e-06 0.0203009)
(1.84269e-06 -7.09312e-06 0.0203095)
(1.76375e-06 -3.05938e-06 0.0201438)
(1.68147e-06 -3.08038e-06 0.0201951)
(1.50772e-06 -3.0746e-06 0.0202254)
(1.22669e-06 -3.03561e-06 0.0202394)
(1.66464e-06 -3.41614e-06 0.0201974)
(1.62795e-06 -3.50417e-06 0.02024)
(1.48342e-06 -3.5527e-06 0.0202651)
(1.24162e-06 -3.56249e-06 0.0202765)
(1.51196e-06 -3.70513e-06 0.0202303)
(1.53048e-06 -3.85909e-06 0.0202676)
(1.43308e-06 -3.94484e-06 0.0202893)
(1.24369e-06 -3.96994e-06 0.0202989)
(1.32871e-06 -3.88686e-06 0.0202466)
(1.40207e-06 -4.08121e-06 0.0202815)
(1.37105e-06 -4.19582e-06 0.0203015)
(1.23185e-06 -4.24766e-06 0.0203103)
(1.10435e-06 -1.62654e-06 0.0201442)
(1.10933e-06 -1.63831e-06 0.0201957)
(1.05142e-06 -1.62882e-06 0.0202262)
(9.30006e-07 -1.59816e-06 0.0202402)
(1.06206e-06 -1.81245e-06 0.0201978)
(1.0881e-06 -1.8515e-06 0.0202404)
(1.04685e-06 -1.86734e-06 0.0202657)
(9.46747e-07 -1.86105e-06 0.0202772)
(9.93132e-07 -1.94181e-06 0.0202304)
(1.04575e-06 -2.01329e-06 0.0202679)
(1.02868e-06 -2.05113e-06 0.0202898)
(9.55538e-07 -2.05737e-06 0.0202995)
(9.06707e-07 -2.00835e-06 0.0202466)
(9.85176e-07 -2.10314e-06 0.0202817)
(1.00089e-06 -2.15946e-06 0.0203018)
(9.55125e-07 -2.18259e-06 0.0203106)
(0.00169426 -0.00476938 0.0138006)
(-0.00123287 -0.00284902 0.0150644)
(-0.00325278 -0.00368288 0.0255611)
(1.13793e-05 -0.00026174 0.0134792)
(0.00278005 -0.000484164 0.0102402)
(0.00864473 -0.00152146 0.0301383)
(0.00358187 -0.00348269 0.0264077)
(0.00357859 -0.00434853 0.0387157)
(0.00089344 0.000287569 0.016186)
(0.00181982 -0.00181584 0.0315032)
(0.000370615 -0.00146243 0.0189872)
(0.00208649 -0.000962508 0.0108952)
(0.00149864 -0.00129974 0.0110133)
(0.001145 -0.00104623 0.00901213)
(0.000525747 -0.00543184 0.028011)
(0.0012526 -0.00155376 0.0177229)
(-0.00168547 0.00027103 0.0636976)
(-0.0043168 -0.00100892 0.0649807)
(-0.00120051 -0.00149267 0.039298)
(0.00141959 -0.000469868 0.0382483)
(-0.000306908 -0.000394457 0.0322644)
(-0.00239935 -0.00273005 0.0560349)
(-0.0013038 0.0013319 0.0211191)
(0.00188822 0.000621822 0.0572888)
(-0.00111449 -0.000149791 0.051413)
(0.00147421 0.00182713 0.0361122)
(0.00145245 0.00404128 0.0434924)
(-0.00092278 0.0025509 0.0459735)
(0.000418862 0.000843648 0.0560077)
(0.00256819 -0.000201413 0.0696026)
(0.000600702 0.00173914 0.0439775)
(-0.00187118 -0.000287263 0.0549331)
(-0.00314269 0.00279955 0.0623931)
(-0.000231441 0.00259084 0.02285)
(0.000729267 0.0029392 0.0321775)
(-0.00139088 0.0018382 0.0245477)
(-0.000774172 0.00315286 0.0384817)
(-0.00107215 0.00624413 0.0620549)
(-0.00047168 0.00264721 0.0412655)
(-0.00276351 0.000691157 0.0523389)
(0.000724002 0.000799645 0.0341707)
(0.00230703 -0.00107319 0.0406392)
(-0.00109862 -0.00332074 0.0477962)
(-0.00162821 -0.000812126 0.0265031)
(-0.000414098 0.0024145 0.0139594)
(0.000134615 0.00232803 0.0405015)
(0.000457616 0.00199977 0.00939704)
(0.00186614 0.00140674 0.0470813)
(-0.00109183 0.000502631 0.044061)
(0.00125889 0.00090983 0.0504257)
(-0.000589916 0.000990706 0.0434343)
(0.00123085 0.00198849 0.014318)
(-0.000802918 0.00346915 0.0202921)
(0.000980585 0.00455706 0.0702981)
(0.000420192 0.000935876 0.0258752)
(-0.000321448 0.00367319 0.0756955)
(-0.00249223 0.00316695 0.0433597)
(-0.00439074 0.00261055 0.0501177)
(-0.001502 0.00047502 0.0567793)
(-0.000883125 -8.70805e-05 0.0463849)
(-0.00060745 0.00137188 0.0536286)
(-0.000757925 -0.000658831 0.0414435)
(-0.00212571 -0.00135657 0.0372374)
(-0.00289165 -0.00394277 0.0505358)
(-0.00146728 0.000392319 0.0781261)
(0.001566 0.00203386 0.0233535)
(0.0102621 0.0036117 0.0438854)
(0.000812243 0.00085424 0.0165724)
(-0.0013941 0.00181643 0.0347817)
(0.00016538 0.00340285 0.0532678)
(0.00137422 -0.00147191 0.049831)
(0.00178205 -0.00546059 0.0458447)
(-8.54769e-05 0.00340008 0.0601919)
(-0.00188887 0.00531473 0.0479029)
(-0.00142935 0.000893656 0.0502259)
(-0.000411593 0.000927328 0.0453196)
(0.00248444 -0.000120271 0.0307652)
(0.00085836 0.000894474 0.0153199)
(-0.00484095 0.000914233 0.0613559)
(-6.55871e-06 -0.00238279 0.0596483)
(0.00257825 0.00563242 0.0352114)
(0.0013964 0.00178762 0.016115)
(0.00394176 0.00203468 0.0399377)
(0.0104191 -0.00810726 0.0428081)
(0.000804442 0.0021054 0.0221508)
(0.00298591 0.00206922 0.0319984)
(0.0022851 0.000524024 0.0343881)
(-0.00102653 -0.000651192 0.0338889)
(0.00178694 0.00142872 0.0262535)
(0.0018719 0.000357569 0.0367524)
(0.00147504 0.000782561 0.0332634)
(0.000618129 0.00058855 0.0333483)
(0.00130091 -0.00138755 0.0327129)
(0.00238065 -0.000985222 0.02797)
(0.00148551 0.00173417 0.0373749)
(-0.00186939 0.00260254 0.0330522)
(0.000527339 -0.000308643 0.0368011)
(-0.000457612 0.00145419 0.0170863)
(0.000245051 -0.000121225 0.0282928)
(0.000299835 0.00140207 0.0292711)
(-0.00135811 0.0024195 0.0161561)
(0.000576006 0.00109393 0.0297557)
(0.00176668 -0.000645483 0.0301711)
(-0.000160257 -0.000201265 0.0310387)
(4.14695e-05 0.000730943 0.0302408)
(0.00166979 0.000674791 0.0328136)
(0.0015957 0.000394282 0.0256951)
(0.000511167 0.00102059 0.0266753)
(-0.000309791 0.000132462 0.0206967)
(-0.000154185 -0.0011668 0.0306356)
(-0.000817204 0.00131563 0.0352983)
(0.000147502 0.00170971 0.0322971)
(0.000214315 -2.07439e-05 0.0336053)
(0.000662013 -0.000330098 0.0156312)
(0.000596729 -0.00118211 0.0311344)
(-9.12335e-05 -0.00180852 0.0437525)
(-0.000511211 -0.000390472 0.0198949)
(-0.000697492 -0.00109953 0.0338219)
(-0.000514027 -0.00133768 0.0369257)
(-0.00130443 -0.00156401 0.0380236)
(-0.000432422 -0.000168408 0.0392919)
(-0.000610256 -0.000215927 0.0402998)
(-0.000616801 -0.000255021 0.030286)
(-0.00154082 -0.000505971 0.0320991)
(-0.000680838 -0.000140915 0.0263967)
(-0.00173384 -0.00105302 0.0424688)
(-0.00195542 -0.000530789 0.0418077)
(-0.00235344 -0.00056547 0.0410364)
(4.85194e-05 0.000334543 0.0128038)
(-0.00106141 -0.00018198 0.012113)
(-0.00298987 5.5843e-05 0.014351)
(-0.00263935 0.00202728 0.0167783)
(-0.000501394 -0.00155759 0.0112155)
(-0.00125525 -0.00201287 0.014044)
(-0.000966875 -0.000458471 0.0157136)
(1.58641e-05 0.000932197 0.0167976)
(0.000495675 -0.000969222 0.0153341)
(0.00119693 -0.00113287 0.0163025)
(0.00106012 -0.000288562 0.0153389)
(0.000320957 0.00029077 0.0161868)
(-0.00116024 -0.00098811 0.0126736)
(-0.000744009 -0.00118237 0.0169614)
(0.0011133 0.000147393 0.016899)
(0.0013179 0.000834542 0.016781)
(3.73193e-05 -0.000321201 0.0213679)
(-0.000397316 -0.000608498 0.0214206)
(-0.000791633 -0.000514857 0.0223769)
(-0.000653351 4.05689e-05 0.0232954)
(1.46946e-06 -0.00117843 0.0204997)
(-0.000411143 -0.00139875 0.0217583)
(-0.000202552 -0.000817332 0.0226415)
(0.000252277 -0.000245454 0.0230181)
(0.000115049 -0.000685273 0.022809)
(0.000360288 -0.000823898 0.0230542)
(0.000601086 -0.000395673 0.0225525)
(0.000482609 -4.75247e-05 0.022594)
(-0.00055542 -0.000577106 0.0214725)
(-0.000362401 -0.000603048 0.0232416)
(0.000662667 4.96875e-06 0.022965)
(0.000851179 0.000384187 0.0225183)
(8.61721e-05 -0.000102719 0.0191496)
(7.24562e-06 -0.00016392 0.0194048)
(-5.48148e-05 -0.000146659 0.0197959)
(8.85565e-05 2.30111e-05 0.0201417)
(8.94885e-05 -0.000435576 0.0190749)
(-1.62319e-05 -0.000465738 0.0196753)
(7.44617e-05 -0.000267058 0.0200986)
(0.000326586 -4.58965e-05 0.020315)
(0.000130507 -0.000237311 0.0200481)
(0.000281547 -0.000262288 0.0203695)
(0.000394675 -0.000106723 0.0203094)
(0.000467257 3.62615e-05 0.0203146)
(-0.000107965 -0.000263459 0.0195296)
(2.93803e-05 -0.000240435 0.0203554)
(0.000403083 -2.06376e-05 0.020351)
(0.000552043 0.000130093 0.0202091)
(7.48698e-05 -0.000120781 0.019906)
(5.49865e-05 -0.000142504 0.0200471)
(7.88597e-05 -0.000126868 0.0202035)
(0.000138938 -7.17917e-05 0.0203137)
(8.43895e-05 -0.000271518 0.0198198)
(5.16047e-05 -0.000268999 0.0200722)
(0.000124288 -0.000186578 0.02026)
(0.000237462 -9.10148e-05 0.0203429)
(7.14532e-05 -0.000145722 0.0202031)
(0.000150422 -0.000146581 0.0203449)
(0.000247584 -8.69844e-05 0.020363)
(0.000316978 -2.64544e-05 0.0203485)
(-2.60003e-05 -0.000154473 0.0199376)
(4.99007e-05 -0.00013338 0.020254)
(0.000231623 -5.70256e-05 0.0203039)
(0.000330871 2.05836e-08 0.02026)
(6.48782e-05 -7.09659e-05 0.0197945)
(7.36698e-05 -7.10593e-05 0.0199443)
(9.54638e-05 -6.66928e-05 0.0200602)
(0.00012152 -4.91861e-05 0.02014)
(6.14198e-05 -0.000133951 0.0198099)
(6.42686e-05 -0.00012747 0.0199998)
(0.000103939 -9.71331e-05 0.0201307)
(0.000155034 -5.87829e-05 0.0201976)
(4.67124e-05 -7.38615e-05 0.0200208)
(9.7724e-05 -7.10584e-05 0.020163)
(0.000152166 -5.2737e-05 0.0202258)
(0.000191518 -3.24391e-05 0.0202382)
(5.19542e-06 -8.77382e-05 0.0199056)
(5.11273e-05 -7.91123e-05 0.0201147)
(0.00013232 -5.59933e-05 0.0201951)
(0.000184643 -3.92271e-05 0.0202043)
(4.78269e-05 -5.01853e-05 0.0197939)
(5.61694e-05 -4.66032e-05 0.0199284)
(7.09059e-05 -4.43855e-05 0.0200265)
(8.16434e-05 -3.86825e-05 0.0200959)
(4.27284e-05 -7.80679e-05 0.0198198)
(5.04561e-05 -7.20064e-05 0.0199752)
(7.23876e-05 -5.95449e-05 0.0200841)
(9.55209e-05 -4.44361e-05 0.0201503)
(3.05437e-05 -4.59835e-05 0.0199329)
(6.16315e-05 -4.38908e-05 0.0200717)
(9.11737e-05 -3.9695e-05 0.0201529)
(0.000111785 -3.50392e-05 0.0201924)
(1.01708e-05 -5.51246e-05 0.0198844)
(3.72764e-05 -5.33548e-05 0.0200517)
(7.54185e-05 -4.88175e-05 0.0201452)
(0.000103031 -4.64538e-05 0.0201866)
(3.44843e-05 -3.55361e-05 0.0197723)
(4.03878e-05 -3.25302e-05 0.0199064)
(4.89346e-05 -3.21261e-05 0.0200041)
(5.27801e-05 -3.10937e-05 0.0200761)
(2.92171e-05 -4.8891e-05 0.0198096)
(3.60446e-05 -4.54553e-05 0.0199572)
(4.81677e-05 -4.09343e-05 0.0200627)
(5.86466e-05 -3.55684e-05 0.0201341)
(2.02728e-05 -3.34111e-05 0.0198839)
(3.86816e-05 -3.28618e-05 0.020026)
(5.49462e-05 -3.33424e-05 0.0201195)
(6.5568e-05 -3.37145e-05 0.0201767)
(8.39912e-06 -3.92436e-05 0.0198701)
(2.44386e-05 -4.00904e-05 0.020026)
(4.39446e-05 -4.11545e-05 0.0201272)
(5.86165e-05 -4.29235e-05 0.0201864)
(2.46855e-05 -2.62022e-05 0.0197612)
(2.79401e-05 -2.44884e-05 0.0198958)
(3.26222e-05 -2.49489e-05 0.0199948)
(3.36126e-05 -2.55695e-05 0.0200697)
(2.03792e-05 -3.3422e-05 0.0198017)
(2.49196e-05 -3.18225e-05 0.0199475)
(3.15502e-05 -3.06241e-05 0.0200535)
(3.63525e-05 -2.91714e-05 0.0201294)
(1.39398e-05 -2.64994e-05 0.0198564)
(2.45325e-05 -2.67992e-05 0.0200024)
(3.34343e-05 -2.84569e-05 0.0201035)
(3.8951e-05 -3.00213e-05 0.0201715)
(6.14122e-06 -2.99197e-05 0.0198606)
(1.56661e-05 -3.14943e-05 0.0200145)
(2.6194e-05 -3.37916e-05 0.02012)
(3.41694e-05 -3.62191e-05 0.0201886)
(1.76972e-05 -1.94852e-05 0.0197553)
(1.92463e-05 -1.87408e-05 0.0198907)
(2.16806e-05 -1.95905e-05 0.0199914)
(2.15152e-05 -2.073e-05 0.0200684)
(1.44044e-05 -2.38822e-05 0.0197966)
(1.71071e-05 -2.33832e-05 0.0199425)
(2.06884e-05 -2.35644e-05 0.0200497)
(2.28841e-05 -2.36342e-05 0.0201288)
(9.78377e-06 -2.1285e-05 0.0198414)
(1.57665e-05 -2.19345e-05 0.0199901)
(2.06378e-05 -2.36474e-05 0.0200958)
(2.35663e-05 -2.52211e-05 0.02017)
(4.36715e-06 -2.32695e-05 0.0198544)
(1.0053e-05 -2.48366e-05 0.0200084)
(1.59505e-05 -2.703e-05 0.0201165)
(2.04251e-05 -2.91353e-05 0.0201902)
(1.27029e-05 -1.44846e-05 0.0197531)
(1.32954e-05 -1.43022e-05 0.0198892)
(1.44951e-05 -1.52324e-05 0.019991)
(1.39212e-05 -1.64256e-05 0.0200693)
(1.02789e-05 -1.74301e-05 0.019794)
(1.17807e-05 -1.74912e-05 0.0199404)
(1.36764e-05 -1.81668e-05 0.0200487)
(1.46404e-05 -1.87475e-05 0.0201297)
(6.93606e-06 -1.68349e-05 0.0198335)
(1.02819e-05 -1.75661e-05 0.019984)
(1.29608e-05 -1.90175e-05 0.0200924)
(1.45539e-05 -2.02944e-05 0.0201701)
(3.07949e-06 -1.79816e-05 0.0198505)
(6.50679e-06 -1.93124e-05 0.0200049)
(9.91435e-06 -2.10878e-05 0.0201146)
(1.2501e-05 -2.27066e-05 0.0201911)
(9.10076e-06 -1.06763e-05 0.0197527)
(9.22258e-06 -1.07667e-05 0.0198894)
(9.76786e-06 -1.16236e-05 0.0199917)
(9.12536e-06 -1.26823e-05 0.0200709)
(7.3506e-06 -1.27615e-05 0.019793)
(8.14384e-06 -1.30557e-05 0.0199398)
(9.12113e-06 -1.38244e-05 0.0200488)
(9.51118e-06 -1.44944e-05 0.0201309)
(4.92832e-06 -1.29841e-05 0.0198294)
(6.79633e-06 -1.36599e-05 0.0199811)
(8.27822e-06 -1.47993e-05 0.020091)
(9.1674e-06 -1.57608e-05 0.0201705)
(2.16525e-06 -1.36621e-05 0.0198479)
(4.25446e-06 -1.47133e-05 0.0200028)
(6.26858e-06 -1.60604e-05 0.0201134)
(7.80282e-06 -1.72379e-05 0.0201914)
(6.46455e-06 -7.74988e-06 0.0197532)
(6.3882e-06 -7.94074e-06 0.0198901)
(6.60187e-06 -8.65418e-06 0.0199929)
(6.03345e-06 -9.51179e-06 0.0200724)
(5.22185e-06 -9.25445e-06 0.0197928)
(5.62127e-06 -9.60148e-06 0.0199399)
(6.11051e-06 -1.02896e-05 0.0200493)
(6.24238e-06 -1.08839e-05 0.020132)
(3.47914e-06 -9.71953e-06 0.0198274)
(4.52666e-06 -1.02821e-05 0.0199797)
(5.35307e-06 -1.11378e-05 0.0200904)
(5.86061e-06 -1.18388e-05 0.020171)
(1.50985e-06 -1.01224e-05 0.0198463)
(2.79417e-06 -1.0921e-05 0.0200015)
(4.00301e-06 -1.19061e-05 0.0201126)
(4.93433e-06 -1.27446e-05 0.0201915)
(4.49354e-06 -5.47094e-06 0.0197538)
(4.36237e-06 -5.66932e-06 0.0198909)
(4.42335e-06 -6.21636e-06 0.0199939)
(3.98075e-06 -6.86285e-06 0.0200737)
(3.63166e-06 -6.54009e-06 0.0197928)
(3.82537e-06 -6.85153e-06 0.0199402)
(4.06435e-06 -7.39634e-06 0.0200499)
(4.0921e-06 -7.86221e-06 0.0201329)
(2.40499e-06 -6.99505e-06 0.0198264)
(2.99636e-06 -7.42795e-06 0.019979)
(3.4624e-06 -8.04446e-06 0.0200902)
(3.75984e-06 -8.53989e-06 0.0201714)
(1.03253e-06 -7.23668e-06 0.0198452)
(1.82228e-06 -7.81294e-06 0.0200006)
(2.55279e-06 -8.50849e-06 0.020112)
(3.12821e-06 -9.09104e-06 0.0201914)
(2.9827e-06 -3.66746e-06 0.0197545)
(2.86567e-06 -3.82807e-06 0.0198917)
(2.86915e-06 -4.2092e-06 0.0199948)
(2.56691e-06 -4.65622e-06 0.0200747)
(2.40951e-06 -4.38508e-06 0.019793)
(2.50571e-06 -4.62204e-06 0.0199405)
(2.62304e-06 -5.00819e-06 0.0200503)
(2.6223e-06 -5.33714e-06 0.0201336)
(1.58671e-06 -4.73086e-06 0.0198259)
(1.92348e-06 -5.03555e-06 0.0199788)
(2.18969e-06 -5.45256e-06 0.0200902)
(2.37046e-06 -5.78444e-06 0.0201717)
(6.76267e-07 -4.8663e-06 0.0198444)
(1.15611e-06 -5.25619e-06 0.02)
(1.59509e-06 -5.7196e-06 0.0201116)
(1.95213e-06 -6.1051e-06 0.0201913)
(1.81227e-06 -2.23689e-06 0.0197549)
(1.74481e-06 -2.34345e-06 0.0198922)
(1.74161e-06 -2.57091e-06 0.0199953)
(1.57764e-06 -2.83696e-06 0.0200753)
(1.45774e-06 -2.66081e-06 0.0197932)
(1.52119e-06 -2.8113e-06 0.0199408)
(1.59035e-06 -3.04462e-06 0.0200506)
(1.59848e-06 -3.24383e-06 0.020134)
(9.55128e-07 -2.86669e-06 0.0198257)
(1.15501e-06 -3.05219e-06 0.0199787)
(1.31546e-06 -3.301e-06 0.0200902)
(1.43407e-06 -3.49972e-06 0.0201719)
(4.09671e-07 -2.92181e-06 0.019844)
(6.99269e-07 -3.15501e-06 0.0199996)
(9.61601e-07 -3.43071e-06 0.0201114)
(1.18213e-06 -3.66223e-06 0.0201913)
(1.00972e-06 -1.24341e-06 0.0197551)
(1.02038e-06 -1.31475e-06 0.0198924)
(1.04547e-06 -1.41779e-06 0.0199957)
(1.01806e-06 -1.53202e-06 0.0200756)
(7.98577e-07 -1.45065e-06 0.0197932)
(8.81606e-07 -1.53358e-06 0.0199408)
(9.58892e-07 -1.63863e-06 0.0200508)
(1.00971e-06 -1.73067e-06 0.0201342)
(5.20471e-07 -1.53275e-06 0.0198254)
(6.74429e-07 -1.62907e-06 0.0199785)
(8.09038e-07 -1.7448e-06 0.0200902)
(9.17741e-07 -1.84259e-06 0.0201719)
(2.32986e-07 -1.51665e-06 0.0198436)
(4.36577e-07 -1.6386e-06 0.0199993)
(6.28327e-07 -1.77471e-06 0.0201111)
(7.894e-07 -1.89452e-06 0.0201911)
(-0.00295139 -0.00387714 0.0219788)
(-0.000162118 -0.000737236 0.00382377)
(0.00141555 0.00104268 0.0180414)
(0.00434697 0.00483967 0.020062)
(-0.00186406 -0.00376801 0.0180705)
(0.00177848 -0.00196702 0.0234047)
(0.00493125 0.00205875 0.0137358)
(0.00118509 0.00373633 0.00981071)
(0.000472341 -0.00114597 0.010076)
(0.00337971 -0.00218446 0.0163716)
(0.0054553 -0.00117424 0.0113224)
(0.00400409 -0.0105577 0.0235829)
(0.000846853 -0.00229663 0.0202918)
(0.000860694 0.000355694 0.00745959)
(0.00104009 -0.00152533 0.0112273)
(0.00147795 -0.00661098 0.00978054)
(-0.000514533 -0.000399447 0.0668115)
(-0.00126654 0.000603862 0.0598946)
(0.00120788 0.00170529 0.0391508)
(-0.000846983 0.000608357 0.025175)
(0.000378395 0.00197614 0.0183317)
(0.000657418 0.000994268 0.0323824)
(0.00443759 0.000324095 0.0496265)
(0.00196649 -0.00295927 0.0704851)
(0.0026126 -0.00141363 0.0634382)
(-0.000474732 5.2609e-05 0.0411371)
(0.00127417 3.18958e-06 0.0570667)
(0.000106331 0.00148827 0.00385905)
(0.00139606 -0.00183229 0.0418103)
(0.000390444 -0.000586499 0.0456938)
(0.000223482 0.00285203 0.0536009)
(0.000505318 0.00308588 0.0153062)
(0.00133826 0.00386834 0.0559758)
(0.00216009 0.00349235 0.0380171)
(-0.000270029 -0.000952616 0.025785)
(-0.00704648 -0.00665295 0.0477222)
(2.86482e-05 0.00014351 0.0178416)
(-0.00220413 -0.0017302 0.0528215)