/*--------------------------------*- C++ -*----------------------------------*\
| =========                 |                                                 |
| \\      /  F ield         | OpenFOAM: The Open Source CFD Toolbox           |
|  \\    /   O peration     | Version:  2506                                  |
|   \\  /    A nd           | Website:  www.openfoam.com                      |
|    \\/     M anipulation  |                                                 |
\*---------------------------------------------------------------------------*/
FoamFile
{
    version     2.0;
    format      ascii;
    arch        "LSB;label=32;scalar=64";
    class       volScalarField;
    location    "0.04";
    object      Ksl;
}
// * * * * * * * * * * * * * * * * * * * * * * * * * * * * * * * * * * * * * //

dimensions      [1 -3 -1 0 0 0 0];

internalField   nonuniform List<scalar> 
1152
(
55562
186776
130212
319447
51172.8
135285
113231
117523
389581
105717
111467
105362
154011
132278
204072
92015.4
102449
317534
134391
239492
230290
220048
367879
219452
1.52153e+07
133227
285562
277228
148167
384482
110991
8.81411e+06
325997
239723
781158
103982
672515
207087
197753
431894
213234
219054
275086
235352
225855
283475
337418
142736
385350
479591
144317
415039
184323
324842
375392
245446
243128
222747
250979
215808
163294
295619
161919
179869
8.57096e+06
101423
2.47595e+06
234634
233977
405818
126298
226964
311708
183772
307258
134491
218371
327756
405689
123450
108461
203248
156926
198402
118091
185029
294484
236717
394943
484103
201974
251988
108553
697637
137008
193025
352996
78558.3
237776
62282.8
84298.5
52838.4
33069.2
23732
85936.4
86704.3
69123.3
30144.2
2.3901e+06
47384
107807
49910.1
0
0
0
0
0
0
0
0
0
0
0
0
0
0
0
0
0
0
0
0
0
0
0
0
0
0
0
0
0
0
0
0
0
0
0
0
0
0
0
0
0
0
0
0
0
0
0
0
0
0
0
0
0
0
0
0
0
0
0
0
0
0
0
0
0
0
0
0
0
0
0
0
0
0
0
0
0
0
0
0
0
0
0
0
0
0
0
0
0
0
0
0
0
0
0
0
0
0
0
0
0
0
0
0
0
0
0
0
0
0
0
0
0
0
0
0
0
0
0
0
0
0
0
0
0
0
0
0
0
0
0
0
0
0
0
0
0
0
0
0
0
0
0
0
0
0
0
0
0
0
0
0
0
0
0
0
0
0
0
0
0
0
0
0
0
0
0
0
0
0
0
0
0
0
0
0
0
0
0
0
0
0
0
0
0
0
0
0
0
0
0
0
0
0
0
0
0
0
0
0
0
0
0
0
0
0
0
0
0
0
0
0
0
0
0
0
0
0
0
0
0
0
0
0
0
0
0
0
0
0
0
0
0
0
0
0
0
0
0
0
0
0
0
0
0
0
0
0
0
0
0
0
0
0
0
0
0
0
0
0
0
0
0
0
0
0
0
0
0
0
0
0
76161.1
134223
69060.3
108106
185849
225673
92321.7
114524
85602.1
118888
105074
86884.3
770046
203529
105189
105331
181553
303749
177811
194972
170516
221892
935563
280985
223498
161736
154061
146901
119819
152098
281871
129282
439062
203092
252239
1.31889e+07
836467
175443
267807
125548
219989
461343
139557
269489
365875
185251
261617
139140
379580
173924
385962
277858
233534
281614
204281
189127
153747
194583
224019
320632
218839
286307
267381
174560
225470
134005
258257
412653
138720
398420
256733
163839
1.61096e+07
127969
145248
322419
317651
255846
260002
165666
97046.9
334272
201540
1.00921e+06
6.77484e+06
168903
317902
201875
160240
235837
189437
287388
247305
211741
176959
236476
334401
56493.5
80384.5
45661.3
201605
73799.6
44640.3
66218.5
16991.9
32398.2
44983.3
49880
42254
44011.9
47949.2
46052.7
0
0
0
0
0
0
0
0
0
0
0
0
0
0
0
0
0
0
0
0
0
0
0
0
0
0
0
0
0
0
0
0
0
0
0
0
0
0
0
0
0
0
0
0
0
0
0
0
0
0
0
0
0
0
0
0
0
0
0
0
0
0
0
0
0
0
0
0
0
0
0
0
0
0
0
0
0
0
0
0
0
0
0
0
0
0
0
0
0
0
0
0
0
0
0
0
0
0
0
0
0
0
0
0
0
0
0
0
0
0
0
0
0
0
0
0
0
0
0
0
0
0
0
0
0
0
0
0
0
0
0
0
0
0
0
0
0
0
0
0
0
0
0
0
0
0
0
0
0
0
0
0
0
0
0
0
0
0
0
0
0
0
0
0
0
0
0
0
0
0
0
0
0
0
0
0
0
0
0
0
0
0
0
0
0
0
0
0
0
0
0
0
0
0
0
0
0
0
0
0
0
0
0
0
0
0
0
0
0
0
0
0
0
0
0
0
0
0
0
0
0
0
0
0
0
0
0
0
0
0
0
0
0
0
0
0
0
0
0
0
0
0
0
0
0
0
0
0
0
0
0
0
0
0
0
0
0
0
0
0
0
0
0
0
0
0
0
0
0
0
0
0
82056
79450
173858
114593
149947
86555.1
153944
135385
366733
112757
102266
99162.2
70191.4
164041
90936.6
111200
265339
302322
140136
146321
334295
397354
151569
226306
176783
291198
359721
210433
205931
1.93219e+06
224950
149579
312100
588606
200508
206030
199792
133270
276583
269634
373527
170003
276226
183828
110724
362321
249690
226532
199145
178306
176689
139214
436282
256303
237898
171645
233123
168491
245082
137421
346136
486045
282161
258198
165925
361449
218906
276546
350348
192319
184635
312761
554725
169793
499428
191481
153681
143204
198678
261260
154577
209996
108546
187774
204385
229048
203550
160613
422769
135894
188927
197403
415439
2.47108e+06
289616
165518
49807.5
40153.2
49305.1
88458.9
52679
69565.9
18588.2
49548.4
52861.5
43052.9
76438
78553.3
105629
91611.4
68652.5
116486
0
0
0
0
0
0
0
0
0
0
0
0
0
0
0
0
0
0
0
0
0
0
0
0
0
0
0
0
0
0
0
0
0
0
0
0
0
0
0
0
0
0
0
0
0
0
0
0
0
0
0
0
0
0
0
0
0
0
0
0
0
0
0
0
0
0
0
0
0
0
0
0
0
0
0
0
0
0
0
0
0
0
0
0
0
0
0
0
0
0
0
0
0
0
0
0
0
0
0
0
0
0
0
0
0
0
0
0
0
0
0
0
0
0
0
0
0
0
0
0
0
0
0
0
0
0
0
0
0
0
0
0
0
0
0
0
0
0
0
0
0
0
0
0
0
0
0
0
0
0
0
0
0
0
0
0
0
0
0
0
0
0
0
0
0
0
0
0
0
0
0
0
0
0
0
0
0
0
0
0
0
0
0
0
0
0
0
0
0
0
0
0
0
0
0
0
0
0
0
0
0
0
0
0
0
0
0
0
0
0
0
0
0
0
0
0
0
0
0
0
0
0
0
0
0
0
0
0
0
0
0
0
0
0
0
0
0
0
0
0
0
0
0
0
0
0
0
0
0
0
0
0
0
0
0
0
0
0
0
0
0
0
0
0
0
0
0
0
0
0
0
0
)
;

boundaryField
{
    inlet
    {
        type            zeroGradient;
    }
    outlet
    {
        type            zeroGradient;
    }
    wall
    {
        type            zeroGradient;
    }
    procBoundary3to1
    {
        type            processor;
        value           nonuniform List<scalar> 
192
(
241300
82630.4
64119.2
72663.1
255501
635026
7.43993e+07
175939
155459
173145
134502
1.81943e+07
9.26908e+06
179667
223037
359643
134817
8.45194e+06
107575
216767
5.3801e+06
201431
307080
155170
154074
107236
15000.8
37244.2
111.592
0
0
0
0
0
0
0
0
0
0
0
0
0
0
0
0
0
0
0
0
0
0
0
0
0
0
0
0
0
0
0
0
0
0
0
0
0
0
0
0
0
0
0
0
0
0
0
0
0
0
0
0
0
0
0
0
0
0
0
0
0
0
0
0
0
0
0
222938
92086.4
85687.5
102605
255132
2.40584e+06
228176
518602
150690
178617
300286
115975
222967
310569
682580
9.77918e+06
251758
182985
192150
114286
343039
196476
394888
293602
45573.9
45864.7
17064.1
19066.8
0
0
0
0
0
0
0
0
0
0
0
0
0
0
0
0
0
0
0
0
0
0
0
0
0
0
0
0
0
0
0
0
0
0
0
0
0
0
0
0
0
0
0
0
0
0
0
0
0
0
0
0
0
0
0
0
0
0
0
0
0
0
0
0
0
0
0
0
)
;
    }
    procBoundary3to2
    {
        type            processor;
        value           nonuniform List<scalar> 
192
(
116045
760320
65381.1
94101.6
5.30232e+07
187320
150578
426967
124749
177503
252950
363991
327770
220153
184340
3.02059e+06
118697
471207
121399
538197
2.72294e+06
190758
376248
3.23552e+06
63954.6
96493.4
65684.8
121971
0
0
0
0
0
0
0
0
0
0
0
0
0
0
0
0
0
0
0
0
0
0
0
0
0
0
0
0
0
0
0
0
0
0
0
0
0
0
0
0
0
0
0
0
0
0
0
0
0
0
0
0
0
0
0
0
0
0
0
0
0
0
0
0
0
0
0
0
131653
107749
113546
112545
682813
488605
224523
277369
115687
125822
346841
263871
162419
260974
300936
164707
205924
382059
178784
232460
712098
104834
2.86447e+06
94495
48157.6
60200
890.226
17540.1
0
0
0
0
0
0
0
0
0
0
0
0
0
0
0
0
0
0
0
0
0
0
0
0
0
0
0
0
0
0
0
0
0
0
0
0
0
0
0
0
0
0
0
0
0
0
0
0
0
0
0
0
0
0
0
0
0
0
0
0
0
0
0
0
0
0
0
0
)
;
    }
}


// ************************************************************************* //
