/*--------------------------------*- C++ -*----------------------------------*\
| =========                 |                                                 |
| \\      /  F ield         | OpenFOAM: The Open Source CFD Toolbox           |
|  \\    /   O peration     | Version:  2506                                  |
|   \\  /    A nd           | Website:  www.openfoam.com                      |
|    \\/     M anipulation  |                                                 |
\*---------------------------------------------------------------------------*/
FoamFile
{
    version     2.0;
    format      ascii;
    arch        "LSB;label=32;scalar=64";
    class       volVectorField;
    location    "0.04";
    object      U;
}
// * * * * * * * * * * * * * * * * * * * * * * * * * * * * * * * * * * * * * //

dimensions      [0 1 -1 0 0 0 0];

internalField   nonuniform List<vector> 
1152
(
(-0.00554542 0.000952206 0.0220412)
(0.000736586 -0.00209999 0.00631741)
(-0.000308501 -0.00722952 0.00818584)
(-0.000842111 -0.00151712 0.004396)
(0.00201232 -0.00931172 0.0224849)
(-0.000736675 -0.00131393 0.00988777)
(-0.000432079 -0.0043306 0.0123648)
(-0.000543059 -0.00156436 0.0129859)
(1.88342e-05 -0.000562639 0.00339199)
(0.00062443 -0.00124992 0.0143402)
(-0.000358577 0.000170966 0.0126647)
(-0.000388041 0.000910155 0.0147731)
(-8.56395e-05 0.000912542 0.0110581)
(0.000699493 -0.000740687 0.0118419)
(0.000773236 0.00088066 0.00722385)
(0.000846512 0.00213418 0.0178058)
(-0.0145672 -0.00689397 0.0311918)
(0.000979788 6.16562e-05 0.00992213)
(0.0049293 -0.00062459 0.0236635)
(-0.000126903 -0.00135525 0.0145698)
(-0.00100174 0.0020547 0.014752)
(0.00227114 0.000731851 0.0156003)
(0.000230023 1.5937e-06 0.00915677)
(0.0012571 -0.00209119 0.0160402)
(-0.000142783 -0.000214996 0.000783696)
(-0.00108702 0.000876669 0.0287658)
(-0.000221642 0.000414832 0.0126542)
(0.00123517 0.000505213 0.0128805)
(0.0020906 -0.00133787 0.0264506)
(-0.000311075 0.000128522 0.00973952)
(0.00157156 -0.00056008 0.0361501)
(-9.90821e-05 -0.000196042 0.000599894)
(0.000620194 -0.000299055 0.0140638)
(0.000995778 0.000971569 0.0191553)
(0.000100548 0.00244267 0.00599665)
(0.00980704 0.00418607 0.0459108)
(2.89241e-05 0.00104219 0.00692852)
(0.000414055 0.00149919 0.0221065)
(0.00107812 0.00330199 0.0239766)
(0.00080394 0.00117246 0.0104441)
(-0.000280812 0.00151375 0.0208026)
(0.000258585 0.00204783 0.0213982)
(0.00126039 -4.82009e-05 0.0161955)
(0.000760964 0.000785249 0.0198062)
(0.000283794 0.000145909 0.0197718)
(-0.000480887 0.00165261 0.015337)
(0.000173322 5.30721e-05 0.0134664)
(0.00186432 -0.000750711 0.0351902)
(0.00134712 0.000437941 0.0107305)
(0.000236272 4.9258e-05 0.00980235)
(-0.00704629 0.00379699 0.0385738)
(0.000433042 0.000474729 0.0116797)
(0.000811934 0.00153153 0.0277455)
(0.000641153 -0.001386 0.0137604)
(0.000520453 0.000357845 0.0127862)
(-0.00132476 0.00305087 0.0188854)
(-0.000365268 0.000458918 0.0198843)
(0.000661824 0.000754923 0.0215511)
(0.00115526 -0.0010089 0.0190853)
(-0.000482502 -0.000122932 0.0225996)
(0.000945084 0.00252147 0.0311578)
(-9.62869e-05 0.00100585 0.0157551)
(0.0004422 8.78244e-05 0.0317385)
(-0.000787629 -0.00234164 0.0279747)
(3.41012e-05 -0.000116624 0.000901239)
(-0.00302801 0.00552248 0.0468916)
(-0.000306543 -9.11109e-05 0.00228559)
(0.000862531 -0.000306809 0.0208355)
(0.0014209 -0.00177899 0.0180943)
(-0.000299807 -0.000646819 0.011012)
(7.39185e-05 0.000357621 0.039641)
(0.000600155 -0.00116322 0.0210112)
(0.000111539 -0.000274825 0.0142397)
(0.00094449 -0.001251 0.0247698)
(0.000283311 -0.000407149 0.0146133)
(-0.00136168 -0.00215865 0.0382204)
(2.26762e-05 0.00258991 0.0200796)
(-0.00055974 0.000644519 0.0130514)
(-0.000175318 0.000150133 0.0105775)
(-0.00142915 -0.00160533 0.0412251)
(-0.002009 0.0041486 0.029802)
(0.00233654 0.000592874 0.0146307)
(0.00368623 -0.00110515 0.0175938)
(0.0010937 0.000813655 0.0136957)
(0.00186003 0.00411822 0.0255853)
(0.00236897 0.00220771 0.0147633)
(0.00128557 0.000602078 0.00929553)
(0.000448279 0.000299438 0.0112264)
(0.000413688 0.000123928 0.00703178)
(0.000253989 0.000441444 0.00545175)
(0.00108451 -0.00117956 0.0137176)
(0.000655978 -0.00200223 0.0109597)
(0.00239653 -0.000751177 0.0283126)
(8.85384e-05 6.51989e-05 0.00403338)
(-0.00292886 -0.000598245 0.0215086)
(-0.00229454 0.00113555 0.0155841)
(0.000114603 -0.000157385 0.00353172)
(0.000413193 -0.00046331 0.0150666)
(0.000877198 -0.000743583 0.00378722)
(-0.000357253 9.56075e-06 0.0114816)
(-0.000193731 -0.000111034 0.0132572)
(-4.54148e-05 0.000200416 0.016772)
(0.000753492 -0.000987332 0.0209687)
(0.000265485 -0.000258751 0.0179744)
(4.08053e-05 0.000866812 0.0111005)
(-0.00226288 -0.000830655 0.00953871)
(-0.000390609 0.000388573 0.0115889)
(-1.69238e-05 -0.000245933 0.0220375)
(-0.00126716 -8.1173e-05 0.00149291)
(-0.00115224 -0.000390321 0.0130682)
(-4.60129e-05 -0.00408374 0.00661451)
(-0.000271495 0.000401159 0.0193824)
(8.95153e-05 -0.00093483 0.0167241)
(-0.000807219 -0.000710189 0.0180043)
(-0.00106551 0.000733494 0.0143659)
(-0.000649223 -8.36062e-05 0.0183176)
(-0.00042598 -0.000845927 0.022845)
(-0.00101259 -0.000441768 0.0219705)
(-0.00121021 -0.000190255 0.0213162)
(-0.00032873 -0.000422478 0.0207614)
(-9.59944e-05 -0.00108774 0.0168379)
(-0.000567365 -0.0001397 0.014423)
(-0.00140853 0.000876766 0.0182317)
(-0.000892235 0.000517435 0.0250491)
(-0.000244278 -6.37793e-05 0.0070086)
(0.00086172 1.14172e-05 0.00919735)
(-0.000715796 0.000314054 0.014368)
(-0.000231287 9.40133e-05 0.0272238)
(0.000613973 0.00112385 0.00471706)
(0.000254584 6.61157e-05 0.00476533)
(-0.000220151 0.000204846 0.00453131)
(-0.000453595 -0.000327994 0.00486176)
(-0.000347069 0.0003186 0.00526972)
(-0.000278809 0.000263449 0.00546252)
(-0.000525402 -0.000315199 0.0057062)
(-0.000132251 -0.000831829 0.00584949)
(6.67121e-05 0.000921431 0.00422737)
(-0.000613815 0.000935895 0.0040433)
(-0.0015914 0.00056137 0.00494719)
(-0.00102382 -0.000370982 0.00649177)
(-6.1542e-05 -2.89294e-06 0.003487)
(-0.000759859 4.97325e-06 0.0033136)
(-0.00191651 0.000122298 0.0039784)
(-0.000922783 5.99818e-05 0.00604458)
(0.000114025 0.000332991 0.0110849)
(8.09387e-05 8.50712e-05 0.0109621)
(-5.17775e-05 4.77332e-05 0.0107025)
(-0.000132369 -0.000146614 0.0108398)
(-0.000198797 0.00021936 0.0111304)
(-0.000167518 0.00017481 0.0111698)
(-0.000221966 -4.60494e-05 0.011192)
(-3.56896e-05 -0.000217514 0.0112549)
(-6.172e-05 0.000358216 0.01055)
(-0.000279084 0.000389871 0.0105488)
(-0.0005532 0.000307301 0.0109278)
(-0.000219502 9.48602e-05 0.0115478)
(-5.56461e-05 -9.34579e-05 0.0100468)
(-0.000283115 -8.48214e-06 0.0101468)
(-0.000545709 0.000139769 0.0105854)
(-7.32314e-05 0.000223693 0.0113522)
(2.43887e-05 9.54285e-05 0.00917043)
(4.55994e-05 2.43834e-05 0.00915021)
(1.37345e-05 -2.25903e-05 0.00906764)
(-1.48108e-05 -8.9773e-05 0.00910538)
(-7.32842e-05 8.32374e-05 0.00913441)
(-5.11398e-05 5.47063e-05 0.00918337)
(-5.84614e-05 -2.88511e-05 0.00920426)
(-4.48705e-06 -9.31362e-05 0.00923018)
(-2.93729e-05 9.74522e-05 0.0089467)
(-9.32785e-05 0.000108376 0.0089796)
(-0.000163179 7.57271e-05 0.00908471)
(-5.81737e-05 1.06109e-05 0.00923078)
(-1.05624e-05 -9.2744e-05 0.00880423)
(-9.08897e-05 -5.90367e-05 0.00884749)
(-0.000156974 -1.40616e-05 0.00892483)
(-2.07134e-05 -1.53692e-05 0.0090308)
(1.56389e-05 2.36847e-05 0.00945921)
(3.15906e-05 1.81612e-06 0.00945404)
(2.73943e-05 -1.79323e-05 0.00942338)
(1.58569e-05 -3.36729e-05 0.00942641)
(-1.21856e-05 2.12776e-05 0.0094377)
(2.88835e-06 1.2714e-05 0.0094602)
(9.59512e-06 -5.75562e-06 0.00946407)
(2.59467e-05 -1.33508e-05 0.00946918)
(5.93426e-06 1.04641e-05 0.00938006)
(-3.96763e-08 2.21512e-05 0.00939863)
(-1.90197e-06 2.8722e-05 0.00942598)
(3.91681e-05 3.64021e-05 0.00945871)
(2.58322e-05 -7.0958e-05 0.00934089)
(1.91844e-05 -4.59961e-05 0.00935863)
(2.96408e-05 -9.87765e-06 0.00937223)
(8.98585e-05 2.04262e-05 0.00938334)
(1.7333e-05 5.36731e-07 0.00941873)
(2.4444e-05 -6.5631e-06 0.00941635)
(2.4604e-05 -1.33256e-05 0.00940251)
(1.90987e-05 -1.5795e-05 0.00939405)
(1.02625e-05 -2.65576e-06 0.00940888)
(1.69547e-05 -4.14935e-06 0.00941553)
(2.12404e-05 -6.96375e-06 0.00941031)
(2.45725e-05 -5.1624e-06 0.00940048)
(1.82813e-05 -1.37806e-05 0.00939079)
(2.04151e-05 -6.41205e-06 0.00939416)
(2.48422e-05 1.35352e-06 0.00938955)
(3.69631e-05 1.04834e-05 0.00937664)
(2.94966e-05 -4.69224e-05 0.0093792)
(3.33235e-05 -3.48974e-05 0.00937648)
(4.25366e-05 -1.78492e-05 0.009357)
(6.0535e-05 -5.15498e-06 0.00931943)
(1.75594e-05 -5.81955e-06 0.0094125)
(2.03118e-05 -7.80905e-06 0.00940998)
(2.01737e-05 -9.39259e-06 0.00940163)
(1.68614e-05 -8.41643e-06 0.00939073)
(1.6045e-05 -8.60246e-06 0.00940926)
(1.90978e-05 -7.95477e-06 0.00940909)
(2.08873e-05 -6.81553e-06 0.00940224)
(2.04119e-05 -3.54315e-06 0.00938934)
(1.98618e-05 -1.53589e-05 0.00940384)
(2.26924e-05 -1.1036e-05 0.00940132)
(2.56579e-05 -5.34722e-06 0.00939137)
(2.83391e-05 1.38126e-06 0.00937199)
(2.57033e-05 -2.88577e-05 0.00939885)
(3.01548e-05 -2.29753e-05 0.00939137)
(3.57114e-05 -1.41976e-05 0.0093714)
(4.1078e-05 -6.97965e-06 0.00933612)
(1.54971e-05 -6.61399e-06 0.00941297)
(1.64425e-05 -6.97292e-06 0.00940983)
(1.5835e-05 -6.96101e-06 0.00940311)
(1.35003e-05 -5.70094e-06 0.00939182)
(1.53781e-05 -8.53607e-06 0.00941211)
(1.67168e-05 -7.74603e-06 0.00940923)
(1.70221e-05 -6.36548e-06 0.00940193)
(1.55903e-05 -4.01439e-06 0.00938811)
(1.71618e-05 -1.22019e-05 0.00940991)
(1.89416e-05 -9.94306e-06 0.00940505)
(2.00898e-05 -6.71116e-06 0.0093941)
(1.9697e-05 -3.01495e-06 0.00937377)
(1.98994e-05 -1.77716e-05 0.00940495)
(2.27155e-05 -1.49682e-05 0.00939631)
(2.50195e-05 -1.0744e-05 0.00937766)
(2.57063e-05 -7.39772e-06 0.00934447)
(1.27045e-05 -5.74323e-06 0.00941426)
(1.29252e-05 -5.66641e-06 0.00941102)
(1.22096e-05 -5.31687e-06 0.0094051)
(1.04955e-05 -4.37697e-06 0.00939408)
(1.28369e-05 -6.93643e-06 0.0094141)
(1.33655e-05 -6.38589e-06 0.00941053)
(1.311e-05 -5.41833e-06 0.00940348)
(1.16888e-05 -4.00569e-06 0.00938995)
(1.36603e-05 -8.82056e-06 0.0094124)
(1.45845e-05 -7.70504e-06 0.00940724)
(1.47862e-05 -6.01537e-06 0.00939686)
(1.36977e-05 -4.10177e-06 0.0093774)
(1.48543e-05 -1.11065e-05 0.00940647)
(1.63927e-05 -9.79725e-06 0.00939833)
(1.71678e-05 -7.80147e-06 0.00938161)
(1.66156e-05 -6.2313e-06 0.00935104)
(9.97719e-06 -4.54083e-06 0.00941529)
(9.90905e-06 -4.41112e-06 0.00941228)
(9.26771e-06 -4.09139e-06 0.00940691)
(7.99992e-06 -3.47942e-06 0.00939625)
(1.00812e-05 -5.26367e-06 0.00941519)
(1.02409e-05 -4.9435e-06 0.00941171)
(9.83668e-06 -4.37237e-06 0.00940513)
(8.66246e-06 -3.57924e-06 0.00939209)
(1.04283e-05 -6.18959e-06 0.00941328)
(1.08554e-05 -5.68173e-06 0.00940844)
(1.06944e-05 -4.85557e-06 0.00939882)
(9.61753e-06 -3.90334e-06 0.00938029)
(1.08881e-05 -7.08389e-06 0.00940644)
(1.16648e-05 -6.50523e-06 0.00939906)
(1.18018e-05 -5.59423e-06 0.0093838)
(1.09931e-05 -4.89797e-06 0.00935498)
(7.62266e-06 -3.42571e-06 0.00941605)
(7.43336e-06 -3.34413e-06 0.00941337)
(6.92277e-06 -3.12317e-06 0.00940845)
(5.99505e-06 -2.74405e-06 0.00939814)
(7.65721e-06 -3.88844e-06 0.00941582)
(7.65213e-06 -3.71287e-06 0.00941266)
(7.26231e-06 -3.39683e-06 0.00940656)
(6.35903e-06 -2.95942e-06 0.00939397)
(7.77313e-06 -4.3105e-06 0.00941358)
(7.94571e-06 -4.10492e-06 0.00940921)
(7.6891e-06 -3.72151e-06 0.00940025)
(6.80998e-06 -3.25908e-06 0.00938244)
(7.90339e-06 -4.60773e-06 0.00940608)
(8.27639e-06 -4.37614e-06 0.0093994)
(8.18101e-06 -3.98003e-06 0.00938516)
(7.44793e-06 -3.69267e-06 0.00935745)
(5.68649e-06 -2.52267e-06 0.00941654)
(5.46881e-06 -2.48566e-06 0.0094142)
(5.08551e-06 -2.34896e-06 0.00940964)
(4.41478e-06 -2.11866e-06 0.00939965)
(5.67684e-06 -2.83095e-06 0.00941616)
(5.60638e-06 -2.73746e-06 0.00941335)
(5.28348e-06 -2.56826e-06 0.00940764)
(4.61362e-06 -2.3302e-06 0.00939544)
(5.68959e-06 -3.00065e-06 0.00941364)
(5.73872e-06 -2.93422e-06 0.00940969)
(5.48886e-06 -2.7686e-06 0.00940124)
(4.82201e-06 -2.55155e-06 0.00938395)
(5.68522e-06 -3.04851e-06 0.0094057)
(5.8516e-06 -2.97534e-06 0.00939956)
(5.69181e-06 -2.81733e-06 0.009386)
(5.11221e-06 -2.7156e-06 0.009359)
(4.11999e-06 -1.83617e-06 0.00941684)
(3.94117e-06 -1.81407e-06 0.00941479)
(3.65891e-06 -1.72996e-06 0.00941051)
(3.18151e-06 -1.59044e-06 0.00940077)
(4.10301e-06 -2.02301e-06 0.00941632)
(4.02165e-06 -1.97936e-06 0.00941381)
(3.77323e-06 -1.89048e-06 0.00940842)
(3.29011e-06 -1.76118e-06 0.00939651)
(4.0807e-06 -2.07975e-06 0.00941361)
(4.07576e-06 -2.07238e-06 0.00940999)
(3.86889e-06 -2.00828e-06 0.00940191)
(3.38401e-06 -1.91078e-06 0.00938498)
(4.03232e-06 -2.03663e-06 0.00940539)
(4.09755e-06 -2.02861e-06 0.00939963)
(3.94185e-06 -1.97599e-06 0.00938653)
(3.51442e-06 -1.95157e-06 0.00935998)
(2.86603e-06 -1.31197e-06 0.009417)
(2.76019e-06 -1.28573e-06 0.00941518)
(2.5527e-06 -1.23002e-06 0.00941112)
(2.22023e-06 -1.14436e-06 0.00940157)
(2.86262e-06 -1.3945e-06 0.00941639)
(2.79898e-06 -1.38321e-06 0.00941411)
(2.61689e-06 -1.33883e-06 0.00940895)
(2.27934e-06 -1.26832e-06 0.00939726)
(2.83774e-06 -1.41088e-06 0.00941354)
(2.81603e-06 -1.42583e-06 0.00941017)
(2.6597e-06 -1.40652e-06 0.00940235)
(2.32022e-06 -1.36429e-06 0.00938567)
(2.7852e-06 -1.34783e-06 0.00940514)
(2.80438e-06 -1.36242e-06 0.00939966)
(2.67848e-06 -1.35279e-06 0.00938686)
(2.37656e-06 -1.35775e-06 0.00936061)
(1.87944e-06 -8.76121e-07 0.00941711)
(1.83956e-06 -8.46594e-07 0.00941543)
(1.69221e-06 -8.08425e-07 0.00941152)
(1.47049e-06 -7.56596e-07 0.0094021)
(1.88897e-06 -8.88022e-07 0.00941642)
(1.85122e-06 -8.94949e-07 0.0094143)
(1.72465e-06 -8.7617e-07 0.00940929)
(1.50045e-06 -8.39742e-07 0.00939775)
(1.8715e-06 -8.95693e-07 0.00941348)
(1.85105e-06 -9.16866e-07 0.00941027)
(1.7414e-06 -9.16212e-07 0.00940263)
(1.51613e-06 -9.00145e-07 0.00938611)
(1.82975e-06 -8.4442e-07 0.00940497)
(1.83061e-06 -8.64093e-07 0.00939966)
(1.73945e-06 -8.70124e-07 0.00938706)
(1.53804e-06 -8.83543e-07 0.00936099)
(1.12914e-06 -4.69171e-07 0.00941717)
(1.12212e-06 -4.48465e-07 0.00941558)
(1.02861e-06 -4.26458e-07 0.00941177)
(8.93216e-07 -3.99971e-07 0.00940244)
(1.13843e-06 -4.58147e-07 0.00941642)
(1.12051e-06 -4.70656e-07 0.0094144)
(1.04043e-06 -4.66838e-07 0.0094095)
(9.0433e-07 -4.52396e-07 0.00939805)
(1.12735e-06 -4.6731e-07 0.00941343)
(1.11305e-06 -4.87176e-07 0.00941033)
(1.04308e-06 -4.9425e-07 0.00940279)
(9.06632e-07 -4.91626e-07 0.00938638)
(1.09875e-06 -4.41303e-07 0.00940485)
(1.09332e-06 -4.59894e-07 0.00939966)
(1.03406e-06 -4.71033e-07 0.00938717)
(9.11694e-07 -4.84482e-07 0.00936122)
(6.02678e-07 -1.02248e-07 0.00941721)
(5.93714e-07 -9.80059e-08 0.00941568)
(5.46612e-07 -9.31427e-08 0.00941193)
(4.76168e-07 -8.6766e-08 0.00940265)
(6.01442e-07 -1.05378e-07 0.00941644)
(5.88903e-07 -1.14891e-07 0.00941449)
(5.45854e-07 -1.19301e-07 0.00940965)
(4.74418e-07 -1.20401e-07 0.00939826)
(5.91427e-07 -1.17487e-07 0.00941342)
(5.79477e-07 -1.32629e-07 0.00941039)
(5.39072e-07 -1.43771e-07 0.00940292)
(4.66544e-07 -1.51615e-07 0.00938658)
(5.72547e-07 -1.19002e-07 0.00940482)
(5.62783e-07 -1.36219e-07 0.0093997)
(5.25402e-07 -1.51243e-07 0.00938728)
(4.57127e-07 -1.66106e-07 0.0093614)
(0.000296456 -0.000357738 0.0200175)
(0.000980931 -0.000452579 0.0110838)
(0.00380959 -0.00030399 0.0221642)
(0.000269201 0.00193115 0.0142839)
(-6.85491e-05 0.000323224 0.0079187)
(0.00071017 0.000489507 0.00705629)
(0.00352148 0.000538436 0.015181)
(0.00115496 0.0029883 0.0136579)
(0.00117068 0.00058423 0.0191964)
(0.00136377 0.00137862 0.0129409)
(0.00248294 0.000703568 0.0149516)
(0.00217784 0.00383856 0.017639)
(2.10113e-05 -0.000110523 0.00195301)
(0.000721443 -0.000199011 0.00771152)
(0.00230517 -0.000988614 0.0147654)
(0.00134377 0.00075112 0.0151919)
(-0.00185822 -0.000697701 0.0208457)
(5.18064e-05 0.00104244 0.0118685)
(0.000199053 -0.000262727 0.0215932)
(0.00218356 0.000685334 0.018809)
(-0.000289011 3.05374e-05 0.0233424)
(-0.000202936 0.000424286 0.017384)
(4.62448e-05 0.00041713 0.00363456)
(0.000592631 0.00032107 0.0127214)
(0.000728003 0.000488773 0.0177751)
(0.00133644 -0.000127136 0.0245283)
(0.000561995 0.000802832 0.0254911)
(-0.000668998 0.00014683 0.0258049)
(0.00205266 0.00201261 0.0339579)
(-0.000252648 0.00120602 0.025835)
(-0.000445257 -0.000439816 0.0127775)
(0.00104395 0.000701932 0.0303952)
(1.79556e-05 -0.000245107 0.0100177)
(4.37059e-05 0.000583036 0.0232706)
(-0.000285006 0.00151068 0.0172091)
(-5.00054e-05 -0.000372397 0.000919936)
(-0.000159963 0.000118225 0.00550246)
(0.000570168 -0.0016055 0.0264496)
(0.000284704 -6.6187e-05 0.0174207)
(-0.00148637 -0.00135344 0.0387283)
(-0.00092708 -0.001583 0.0211854)
(-0.000428119 -0.000771892 0.0099346)
(-0.0011779 -0.00196473 0.0354674)
(-0.00109032 -0.00183303 0.0165315)
(-0.00149421 -0.0013446 0.0117216)
(0.000719397 -0.00161804 0.025034)
(0.00041471 -0.000207774 0.0173817)
(-0.00100231 -0.000335358 0.0343688)
(0.00117057 0.00111819 0.0123323)
(-0.00137341 0.000733664 0.0280647)
(-0.000889654 0.000176421 0.0116266)
(-0.000704133 -0.000905333 0.0152085)
(0.00117973 0.000462535 0.0200535)
(-0.00145469 0.000949755 0.0165673)
(-0.00122908 0.000116259 0.0229946)
(-0.000117867 -0.00194744 0.0254287)
(0.000323151 -0.0023284 0.0322707)
(-0.00165644 -0.000294157 0.0261776)
(-0.00246574 0.000382534 0.0221105)
(-0.000648877 -0.000703439 0.0142564)
(-0.00153856 -0.000588932 0.02339)
(-0.00105873 -0.00142719 0.0166771)
(-0.00067986 1.16512e-05 0.017624)
(-0.00105466 -0.000573322 0.028604)
(0.000740484 0.000703559 0.0190834)
(-0.0028128 0.00345539 0.0354482)
(-0.000821695 0.000166066 0.0165459)
(-0.000591735 3.0287e-05 0.0105948)
(-0.00152234 -0.00127168 0.0315212)
(-0.000627751 0.000751134 0.011129)
(-0.0012604 0.000499291 0.0177245)
(-0.000492917 0.000468544 0.0297847)
(-0.000179792 -0.000104 0.000778617)
(-0.000919571 0.00113383 0.0385846)
(-0.0014337 0.00269887 0.0347695)
(-0.000683746 4.50992e-05 0.0144444)
(-0.000825045 0.00034734 0.0130633)
(-0.000479954 0.000407146 0.0173147)
(-0.00116323 0.000944838 0.0175046)
(-0.00161247 -0.000129955 0.0301676)
(-0.00324421 0.00179687 0.0306029)
(0.000533567 -0.00014869 0.0084067)
(0.00168668 0.00114701 0.0133189)
(-0.000280095 0.000424313 0.00296991)
(-0.000191712 0.000397436 0.00106168)
(0.00203708 0.00207291 0.0157797)
(-0.000234849 0.000747181 0.00843628)
(-0.0013777 0.000566439 0.0141671)
(-0.00110579 0.00419542 0.0173442)
(-0.0010567 0.00142719 0.0113736)
(-0.000287628 6.59985e-05 0.0147065)
(-0.000370221 0.00069499 0.00971856)
(-0.00040011 -3.12818e-07 0.0100575)
(-0.000733709 0.000613431 0.0119496)
(-0.000715453 0.000822404 0.015255)
(-0.00113644 0.000257078 0.0120947)
(-0.000191918 0.000373604 0.00343366)
(-7.56466e-05 0.000958716 0.0146165)
(0.000352085 0.00256787 0.00639541)
(-0.000421211 0.00106425 0.0122647)
(-0.000199471 0.000475997 0.00624301)
(-0.00152116 0.00100756 0.00912491)
(-0.000803657 0.000356113 0.0129886)
(-0.00128304 -0.00168594 0.0118459)
(0.000376981 0.000255962 0.0288754)
(-0.00148347 0.000344545 0.0194434)
(-0.00128882 0.000404889 0.0160233)
(2.1848e-05 -0.000176347 0.0134435)
(0.000128712 0.000135974 0.00941079)
(-0.000534235 0.000424775 0.0116552)
(-0.000482229 0.000317644 0.0137004)
(-0.000504133 -0.000888959 0.0161599)
(0.000119346 0.000734279 0.0132704)
(0.000619627 0.000372577 0.0156887)
(-0.000472976 -0.0001389 0.0149924)
(-0.000486476 -0.000572806 0.0196159)
(2.83212e-06 -0.000622862 0.0260721)
(0.00032796 -0.000394345 0.018204)
(-0.000472196 -0.000805544 0.0192963)
(-0.000410932 -0.000879789 0.0168314)
(-0.000961155 5.23178e-05 0.0263796)
(0.00064266 -0.000395735 0.0228729)
(0.000265612 -0.000365588 0.0205596)
(-4.34485e-05 -0.000731677 0.0166612)
(0.000610787 0.000384001 0.0172516)
(0.000452573 9.47179e-05 0.0174277)
(0.000361835 -0.00013908 0.018697)
(0.000263512 -0.00053124 0.0192477)
(6.05471e-05 -0.00166927 0.00380955)
(-0.000359541 -0.000884276 0.00389)
(-0.00113219 -0.000415475 0.00390524)
(-0.000656132 1.62357e-05 0.00484718)
(0.000347617 -0.00145139 0.00593324)
(0.000442092 -0.00106257 0.00465747)
(-0.000458372 -0.000661384 0.00446876)
(-0.000217506 -0.000370794 0.00416728)
(0.00103538 0.000394665 0.00615405)
(0.000628766 -0.000297212 0.00554929)
(0.000159497 -0.000427502 0.00471217)
(-5.83219e-05 -0.000609716 0.00382425)
(0.00126969 0.00045484 0.00483424)
(0.00031485 0.000177349 0.0047559)
(0.00012832 -0.000110386 0.00448406)
(0.000125028 -0.000450921 0.00389824)
(5.12915e-05 -0.00075763 0.0105412)
(-3.44491e-05 -0.000466113 0.0105497)
(-0.000154818 -0.000173842 0.0106618)
(9.79484e-05 5.98726e-05 0.0109334)
(0.000194494 -0.00068904 0.0116877)
(0.000322199 -0.000547274 0.0110476)
(0.000213674 -0.000314242 0.0108097)
(0.000315156 -0.000118347 0.010612)
(0.000459707 -2.3247e-06 0.0117249)
(0.000509595 -0.000191909 0.0113187)
(0.000536183 -0.000236809 0.0108063)
(0.000458189 -0.000240285 0.0103547)
(0.000647012 0.000107236 0.0110375)
(0.000477529 -2.2011e-05 0.010905)
(0.00056414 -0.000209406 0.010632)
(0.000486435 -0.000331589 0.0102572)
(3.81406e-05 -0.000324203 0.00900716)
(-7.35196e-06 -0.00022708 0.00898346)
(-3.64787e-05 -0.000101417 0.00890535)
(7.34715e-05 -5.01512e-05 0.00882384)
(0.000110063 -0.000303611 0.00936417)
(0.000125684 -0.0002443 0.00915112)
(0.000109821 -0.000130215 0.00888269)
(0.000162193 -8.01886e-05 0.00861732)
(0.00021444 -0.000116726 0.00938633)
(0.000206172 -0.0001631 0.00919627)
(0.000221046 -0.000152281 0.00878997)
(0.000199862 -0.000156372 0.00840597)
(0.000286134 -3.03192e-05 0.00909293)
(0.000217149 -8.28685e-05 0.00896065)
(0.000252976 -0.000145615 0.00859717)
(0.000219276 -0.000194527 0.00821753)
(5.44632e-05 -0.000158591 0.00941219)
(6.45289e-05 -0.000118879 0.00940657)
(9.1177e-05 -5.87225e-05 0.00936656)
(0.000132929 -1.78472e-05 0.00932269)
(8.98399e-05 -0.000147632 0.00950387)
(0.000120598 -0.000124591 0.00944313)
(0.000154312 -7.25911e-05 0.00932731)
(0.000166229 -3.75499e-05 0.00922469)
(0.000132033 -7.05108e-05 0.00947985)
(0.000158939 -8.66026e-05 0.00941466)
(0.000200427 -7.86616e-05 0.00924355)
(0.000180728 -6.83087e-05 0.00910271)
(0.000160331 -2.26532e-05 0.00934241)
(0.000169492 -5.57276e-05 0.00929516)
(0.000210165 -9.38649e-05 0.00912439)
(0.000171256 -0.000107905 0.008983)
(4.30094e-05 -7.82003e-05 0.00939946)
(5.21726e-05 -6.36106e-05 0.0093817)
(6.63068e-05 -3.75025e-05 0.00933233)
(7.98162e-05 -2.25434e-05 0.00926302)
(5.88483e-05 -7.38358e-05 0.00940963)
(7.4309e-05 -6.54564e-05 0.00936873)
(9.08597e-05 -4.19739e-05 0.00927941)
(9.0984e-05 -2.95176e-05 0.00918218)
(7.50586e-05 -4.50312e-05 0.0093576)
(8.94165e-05 -5.31836e-05 0.00930854)
(0.000106376 -4.83322e-05 0.00918988)
(9.19224e-05 -4.58958e-05 0.00907565)
(8.49503e-05 -1.78493e-05 0.00922779)
(9.41009e-05 -3.60729e-05 0.00918322)
(0.000109058 -5.36388e-05 0.00905839)
(8.62699e-05 -6.11248e-05 0.00894674)
(3.19333e-05 -4.0463e-05 0.0093969)
(3.85661e-05 -3.49137e-05 0.009381)
(4.61171e-05 -2.37775e-05 0.00934497)
(4.96119e-05 -1.63917e-05 0.00929237)
(3.87143e-05 -3.78215e-05 0.00937572)
(4.761e-05 -3.52042e-05 0.00934868)
(5.61082e-05 -2.52745e-05 0.00929241)
(5.35333e-05 -1.90642e-05 0.00922695)
(4.49178e-05 -2.54477e-05 0.0093102)
(5.38138e-05 -3.01678e-05 0.00927773)
(6.20674e-05 -2.80839e-05 0.0092068)
(5.30586e-05 -2.61229e-05 0.0091357)
(4.83201e-05 -1.09166e-05 0.00918618)
(5.60803e-05 -2.13505e-05 0.00915631)
(6.27668e-05 -3.06231e-05 0.00908359)
(4.89921e-05 -3.36709e-05 0.00901891)
(2.26207e-05 -2.21139e-05 0.00939318)
(2.63976e-05 -2.01408e-05 0.0093787)
(2.94268e-05 -1.55789e-05 0.00934878)
(2.93886e-05 -1.2509e-05 0.00930221)
(2.54079e-05 -2.03366e-05 0.00935978)
(3.00838e-05 -1.98314e-05 0.00933824)
(3.33548e-05 -1.58796e-05 0.00929567)
(3.05354e-05 -1.33917e-05 0.00924101)
(2.77138e-05 -1.43432e-05 0.0092873)
(3.25145e-05 -1.74007e-05 0.00926174)
(3.54285e-05 -1.70468e-05 0.00921061)
(2.96337e-05 -1.65126e-05 0.00915362)
(2.86405e-05 -6.42196e-06 0.00916247)
(3.32511e-05 -1.24886e-05 0.00913854)
(3.52335e-05 -1.7558e-05 0.00908783)
(2.71646e-05 -1.93991e-05 0.00903828)
(1.59584e-05 -1.26963e-05 0.0093902)
(1.79775e-05 -1.21442e-05 0.00937739)
(1.90491e-05 -1.03819e-05 0.00935161)
(1.82011e-05 -9.06966e-06 0.00930945)
(1.69767e-05 -1.14372e-05 0.00935155)
(1.94575e-05 -1.16522e-05 0.00933341)
(2.05798e-05 -1.02269e-05 0.00929848)
(1.84018e-05 -9.22138e-06 0.00925044)
(1.77034e-05 -8.25564e-06 0.00927556)
(2.0352e-05 -1.02886e-05 0.00925425)
(2.12093e-05 -1.06289e-05 0.00921381)
(1.76293e-05 -1.05767e-05 0.0091651)
(1.77522e-05 -3.8209e-06 0.00914962)
(2.04457e-05 -7.47049e-06 0.00912979)
(2.07999e-05 -1.04863e-05 0.00909149)
(1.60553e-05 -1.16676e-05 0.00905106)
(1.12575e-05 -7.61615e-06 0.00938793)
(1.23018e-05 -7.60421e-06 0.00937644)
(1.25567e-05 -7.03768e-06 0.00935315)
(1.16493e-05 -6.52983e-06 0.00931344)
(1.15503e-05 -6.70746e-06 0.00934682)
(1.28415e-05 -7.11812e-06 0.00933081)
(1.30824e-05 -6.74539e-06 0.00929993)
(1.15388e-05 -6.40586e-06 0.00925531)
(1.16681e-05 -4.88516e-06 0.00926903)
(1.30848e-05 -6.27663e-06 0.00925031)
(1.31625e-05 -6.8234e-06 0.00921534)
(1.0921e-05 -6.99462e-06 0.00917076)
(1.1434e-05 -2.32684e-06 0.00914235)
(1.29281e-05 -4.58925e-06 0.00912507)
(1.27192e-05 -6.47362e-06 0.00909309)
(9.8755e-06 -7.3254e-06 0.00905711)
(7.96489e-06 -4.72863e-06 0.00938639)
(8.49202e-06 -4.90519e-06 0.00937589)
(8.4467e-06 -4.8254e-06 0.0093541)
(7.6904e-06 -4.66094e-06 0.00931585)
(7.9541e-06 -4.07913e-06 0.00934407)
(8.63392e-06 -4.4887e-06 0.00932944)
(8.56609e-06 -4.52808e-06 0.00930082)
(7.50058e-06 -4.4625e-06 0.00925813)
(7.85643e-06 -2.97542e-06 0.00926533)
(8.62157e-06 -3.94243e-06 0.00924826)
(8.45135e-06 -4.48617e-06 0.00921623)
(7.03647e-06 -4.70735e-06 0.00917393)
(7.56467e-06 -1.44779e-06 0.00913822)
(8.38716e-06 -2.89962e-06 0.0091226)
(8.06582e-06 -4.13281e-06 0.00909399)
(6.3229e-06 -4.74959e-06 0.00906046)
(5.6324e-06 -3.01687e-06 0.00938536)
(5.88848e-06 -3.23427e-06 0.00937555)
(5.75405e-06 -3.32878e-06 0.00935468)
(5.17635e-06 -3.30688e-06 0.00931731)
(5.52459e-06 -2.55371e-06 0.0093424)
(5.87296e-06 -2.90274e-06 0.00932868)
(5.72042e-06 -3.07118e-06 0.00930135)
(4.9894e-06 -3.11127e-06 0.00925977)
(5.3703e-06 -1.86091e-06 0.00926316)
(5.77463e-06 -2.53764e-06 0.00924714)
(5.55899e-06 -2.99724e-06 0.00921674)
(4.64798e-06 -3.20616e-06 0.00917573)
(5.10555e-06 -9.22729e-07 0.0091358)
(5.54569e-06 -1.87405e-06 0.00912125)
(5.24788e-06 -2.70064e-06 0.00909447)
(4.15463e-06 -3.15082e-06 0.00906232)
(3.9499e-06 -1.95852e-06 0.00938468)
(4.06825e-06 -2.15567e-06 0.00937534)
(3.92906e-06 -2.29099e-06 0.00935504)
(3.50968e-06 -2.32162e-06 0.00931821)
(3.82904e-06 -1.62993e-06 0.00934137)
(4.00233e-06 -1.90481e-06 0.00932824)
(3.8503e-06 -2.08543e-06 0.00930167)
(3.35288e-06 -2.15781e-06 0.00926076)
(3.68232e-06 -1.18548e-06 0.00926186)
(3.89005e-06 -1.65853e-06 0.0092465)
(3.69959e-06 -2.01435e-06 0.00921704)
(3.10759e-06 -2.18717e-06 0.00917679)
(3.46892e-06 -5.97116e-07 0.00913436)
(3.69821e-06 -1.22788e-06 0.0091205)
(3.46259e-06 -1.78652e-06 0.00909475)
(2.76616e-06 -2.11086e-06 0.00906341)
(2.70884e-06 -1.26942e-06 0.00938423)
(2.75932e-06 -1.42492e-06 0.0093752)
(2.6442e-06 -1.54727e-06 0.00935526)
(2.35181e-06 -1.58968e-06 0.00931877)
(2.60598e-06 -1.04187e-06 0.00934072)
(2.68894e-06 -1.24486e-06 0.00932798)
(2.56599e-06 -1.395e-06 0.00930187)
(2.23197e-06 -1.46544e-06 0.00926137)
(2.48848e-06 -7.55857e-07 0.00926106)
(2.59193e-06 -1.08062e-06 0.00924614)
(2.44492e-06 -1.33827e-06 0.00921722)
(2.06073e-06 -1.46937e-06 0.00917744)
(2.32948e-06 -3.85575e-07 0.00913349)
(2.44514e-06 -8.01417e-07 0.00912007)
(2.27358e-06 -1.1748e-06 0.00909491)
(1.82895e-06 -1.40085e-06 0.00906406)
(1.77177e-06 -7.85928e-07 0.00938393)
(1.78968e-06 -8.96252e-07 0.00937511)
(1.70536e-06 -9.88341e-07 0.0093554)
(1.51212e-06 -1.0262e-06 0.00931911)
(1.69615e-06 -6.39709e-07 0.00934032)
(1.73239e-06 -7.78858e-07 0.00932782)
(1.64325e-06 -8.8746e-07 0.00930199)
(1.42718e-06 -9.41842e-07 0.00926173)
(1.61192e-06 -4.63766e-07 0.00926058)
(1.65934e-06 -6.77039e-07 0.00924592)
(1.55561e-06 -8.50584e-07 0.00921732)
(1.31265e-06 -9.40382e-07 0.00917782)
(1.50233e-06 -2.39665e-07 0.00913298)
(1.55585e-06 -5.04453e-07 0.00911983)
(1.43891e-06 -7.43354e-07 0.00909501)
(1.1614e-06 -8.91103e-07 0.00906444)
(1.06047e-06 -4.12281e-07 0.00938375)
(1.06248e-06 -4.81417e-07 0.00937506)
(1.00711e-06 -5.40982e-07 0.00935548)
(8.89216e-07 -5.69052e-07 0.00931931)
(1.01133e-06 -3.37399e-07 0.00934009)
(1.02224e-06 -4.2304e-07 0.00932773)
(9.63082e-07 -4.91416e-07 0.00930206)
(8.32049e-07 -5.26495e-07 0.00926195)
(9.57655e-07 -2.47815e-07 0.0092603)
(9.72948e-07 -3.75076e-07 0.00924581)
(9.04638e-07 -4.78761e-07 0.00921739)
(7.59784e-07 -5.30696e-07 0.00917805)
(8.91031e-07 -1.32998e-07 0.00913269)
(9.07786e-07 -2.87803e-07 0.0091197)
(8.31971e-07 -4.25405e-07 0.00909507)
(6.67836e-07 -5.07819e-07 0.00906467)
(5.48914e-07 -1.19813e-07 0.0093837)
(5.40393e-07 -1.55276e-07 0.00937508)
(5.03656e-07 -1.8769e-07 0.00935557)
(4.38552e-07 -2.08942e-07 0.00931948)
(5.21183e-07 -1.06242e-07 0.00934001)
(5.1399e-07 -1.50664e-07 0.00932774)
(4.73182e-07 -1.86799e-07 0.00930215)
(4.00586e-07 -2.07424e-07 0.00926213)
(4.92995e-07 -8.72968e-08 0.00926021)
(4.84522e-07 -1.51192e-07 0.0092458)
(4.36651e-07 -2.00868e-07 0.00921748)
(3.56479e-07 -2.24673e-07 0.00917824)
(4.62728e-07 -5.69154e-08 0.00913258)
(4.51788e-07 -1.34412e-07 0.00911969)
(3.97599e-07 -1.96659e-07 0.00909517)
(3.07976e-07 -2.28488e-07 0.00906486)
(0.000708715 -0.00219273 0.0182268)
(0.00184982 -0.000850886 0.0172756)
(0.00128523 -0.000391762 0.00924948)
(0.00133967 -0.000719571 0.0145968)
(0.000983669 -0.00129364 0.0103991)
(0.00259374 -0.000970618 0.0195223)
(0.00055081 -0.000807488 0.0108016)
(1.32403e-05 -0.00100048 0.0121683)
(-0.000101797 0.000172092 0.00405094)
(0.00172901 0.000302521 0.0144635)
(0.00151577 0.0010617 0.0146848)
(0.000606126 0.00141129 0.0166345)
(-0.00185059 0.00301431 0.0244064)
(0.000286938 0.00117606 0.00866242)
(0.00192506 0.00353716 0.0157814)
(-2.12335e-05 0.0018033 0.0139581)
(-0.00203703 -0.00123187 0.0128802)