/*--------------------------------*- C++ -*----------------------------------*\
| =========                 |                                                 |
| \\      /  F ield         | OpenFOAM: The Open Source CFD Toolbox           |
|  \\    /   O peration     | Version:  2506                                  |
|   \\  /    A nd           | Website:  www.openfoam.com                      |
|    \\/     M anipulation  |                                                 |
\*---------------------------------------------------------------------------*/
FoamFile
{
    version     2.0;
    format      ascii;
    arch        "LSB;label=32;scalar=64";
    class       volScalarField;
    location    "0.04";
    object      voidfraction;
}
// * * * * * * * * * * * * * * * * * * * * * * * * * * * * * * * * * * * * * //

dimensions      [0 0 0 0 0 0 0];

internalField   nonuniform List<scalar> 
1152
(
0.573397
0.412763
0.415396
0.339029
0.560231
0.42593
0.431196
0.446997
0.341663
0.452263
0.412763
0.470697
0.446997
0.436463
0.428563
0.46543
0.499664
0.399596
0.462797
0.428563
0.41803
0.412763
0.378529
0.399596
0.328496
0.460163
0.399596
0.383796
0.439097
0.396963
0.475963
0.352196
0.38643
0.365363
0.375896
0.51283
0.349563
0.404863
0.396963
0.370629
0.404863
0.412763
0.378529
0.389063
0.40223
0.378529
0.389063
0.44963
0.281096
0.349563
0.436463
0.367996
0.404863
0.346929
0.375896
0.375896
0.415396
0.404863
0.40223
0.428563
0.431196
0.404863
0.436463
0.446997
0.286362
0.50493
0.375896
0.389063
0.383796
0.373263
0.460163
0.404863
0.389063
0.407496
0.391696
0.47333
0.41013
0.360096
0.373263
0.486497
0.533897
0.44173
0.41013
0.428563
0.48123
0.420663
0.40223
0.399596
0.365363
0.339029
0.407496
0.39433
0.48123
0.336396
0.439097
0.431196
0.462797
0.549697
0.570764
0.683998
0.594464
0.670831
0.728765
0.815666
0.589197
0.602364
0.668198
0.744565
0.47333
0.712965
0.599731
0.628698
1
1
1
1
1
1
1
1
1
1
1
1
1
1
1
1
1
1
1
1
1
1
1
1
1
1
1
1
1
1
1
1
1
1
1
1
1
1
1
1
1
1
1
1
1
1
1
1
1
1
1
1
1
1
1
1
1
1
1
1
1
1
1
1
1
1
1
1
1
1
1
1
1
1
1
1
1
1
1
1
1
1
1
1
1
1
1
1
1
1
1
1
1
1
1
1
1
1
1
1
1
1
1
1
1
1
1
1
1
1
1
1
1
1
1
1
1
1
1
1
1
1
1
1
1
1
1
1
1
1
1
1
1
1
1
1
1
1
1
1
1
1
1
1
1
1
1
1
1
1
1
1
1
1
1
1
1
1
1
1
1
1
1
1
1
1
1
1
1
1
1
1
1
1
1
1
1
1
1
1
1
1
1
1
1
1
1
1
1
1
1
1
1
1
1
1
1
1
1
1
1
1
1
1
1
1
1
1
1
1
1
1
1
1
1
1
1
1
1
1
1
1
1
1
1
1
1
1
1
1
1
1
1
1
1
1
1
1
1
1
1
1
1
1
1
1
1
1
1
1
1
1
1
1
1
1
1
1
1
1
1
1
1
1
1
1
1
1
1
1
1
1
0.463745
0.396362
0.515355
0.44361
0.391992
0.382712
0.434943
0.423346
0.497557
0.427022
0.456737
0.47401
0.382564
0.403512
0.480367
0.490115
0.428663
0.377414
0.451164
0.421705
0.436211
0.411202
0.354616
0.394332
0.426344
0.450279
0.461609
0.464728
0.486365
0.468306
0.412967
0.492813
0.358499
0.409896
0.370924
0.338465
0.356617
0.425447
0.404474
0.474121
0.38876
0.367821
0.456737
0.418317
0.373616
0.432097
0.408618
0.47123
0.363511
0.436965
0.364505
0.373514
0.391992
0.396957
0.423863
0.448733
0.438213
0.427022
0.425067
0.393565
0.40404
0.378737
0.397747
0.444252
0.41864
0.461327
0.383763
0.35599
0.453899
0.38746
0.393394
0.4306
0.32546
0.473537
0.456737
0.384283
0.362878
0.38636
0.399921
0.430763
0.513863
0.396362
0.39981
0.325322
0.374305
0.423073
0.374005
0.397959
0.442169
0.420679
0.427503
0.384283
0.414778
0.41304
0.428186
0.401087
0.53391
0.631862
0.62448
0.706471
0.717
0.660491
0.717471
0.633698
0.717128
0.752626
0.702789
0.709159
0.778081
0.740823
0.702135
0.695148
1
1
1
1
1
1
1
1
1
1
1
1
1
1
1
1
1
1
1
1
1
1
1
1
1
1
1
1
1
1
1
1
1
1
1
1
1
1
1
1
1
1
1
1
1
1
1
1
1
1
1
1
1
1
1
1
1
1
1
1
1
1
1
1
1
1
1
1
1
1
1
1
1
1
1
1
1
1
1
1
1
1
1
1
1
1
1
1
1
1
1
1
1
1
1
1
1
1
1
1
1
1
1
1
1
1
1
1
1
1
1
1
1
1
1
1
1
1
1
1
1
1
1
1
1
1
1
1
1
1
1
1
1
1
1
1
1
1
1
1
1
1
1
1
1
1
1
1
1
1
1
1
1
1
1
1
1
1
1
1
1
1
1
1
1
1
1
1
1
1
1
1
1
1
1
1
1
1
1
1
1
1
1
1
1
1
1
1
1
1
1
1
1
1
1
1
1
1
1
1
1
1
1
1
1
1
1
1
1
1
1
1
1
1
1
1
1
1
1
1
1
1
1
1
1
1
1
1
1
1
1
1
1
1
1
1
1
1
1
1
1
1
1
1
1
1
1
1
1
1
1
1
1
1
1
1
1
1
1
1
1
1
1
1
1
1
1
1
1
1
1
1
0.49131
0.471586
0.418432
0.452361
0.401776
0.442066
0.435479
0.430192
0.361296
0.418323
0.432375
0.47167
0.474277
0.401586
0.452352
0.490115
0.37604
0.361039
0.463929
0.463099
0.366586
0.385086
0.454508
0.414946
0.419068
0.374005
0.364163
0.412967
0.430467
0.329051
0.418317
0.473928
0.378546
0.347774
0.424366
0.448782
0.418017
0.468182
0.405879
0.405417
0.380553
0.437713
0.386088
0.434709
0.483039
0.368945
0.384283
0.419972
0.416134
0.438422
0.438213
0.486365
0.350345
0.411202
0.418565
0.451155
0.409439
0.443252
0.420195
0.489063
0.395419
0.365318
0.384283
0.403785
0.428663
0.378727
0.414476
0.396882
0.334103
0.41595
0.41645
0.378737
0.342038
0.434943
0.366599
0.419489
0.456753
0.455987
0.418317
0.403785
0.451216
0.416313
0.471841
0.40762
0.404483
0.411202
0.429136
0.435909
0.351667
0.440483
0.412886
0.410792
0.364752
0.339931
0.381189
0.444252
0.67925
0.732477
0.699325
0.645646
0.72931
0.686607
0.839312
0.717954
0.720767
0.681463
0.644321
0.60647
0.57066
0.535776
0.607055
0.549467
1
1
1
1
1
1
1
1
1
1
1
1
1
1
1
1
1
1
1
1
1
1
1
1
1
1
1
1
1
1
1
1
1
1
1
1
1
1
1
1
1
1
1
1
1
1
1
1
1
1
1
1
1
1
1
1
1
1
1
1
1
1
1
1
1
1
1
1
1
1
1
1
1
1
1
1
1
1
1
1
1
1
1
1
1
1
1
1
1
1
1
1
1
1
1
1
1
1
1
1
1
1
1
1
1
1
1
1
1
1
1
1
1
1
1
1
1
1
1
1
1
1
1
1
1
1
1
1
1
1
1
1
1
1
1
1
1
1
1
1
1
1
1
1
1
1
1
1
1
1
1
1
1
1
1
1
1
1
1
1
1
1
1
1
1
1
1
1
1
1
1
1
1
1
1
1
1
1
1
1
1
1
1
1
1
1
1
1
1
1
1
1
1
1
1
1
1
1
1
1
1
1
1
1
1
1
1
1
1
1
1
1
1
1
1
1
1
1
1
1
1
1
1
1
1
1
1
1
1
1
1
1
1
1
1
1
1
1
1
1
1
1
1
1
1
1
1
1
1
1
1
1
1
1
1
1
1
1
1
1
1
1
1
1
1
1
1
1
1
1
1
1
)
;

boundaryField
{
    inlet
    {
        type            fixedValue;
        value           uniform 1;
    }
    outlet
    {
        type            fixedValue;
        value           uniform 1;
    }
    wall
    {
        type            zeroGradient;
    }
    procBoundary3to1
    {
        type            processor;
        value           nonuniform List<scalar> 
192
(
0.404863
0.446997
0.52863
0.49703
0.41013
0.357463
0.328496
0.420663
0.40223
0.44173
0.44963
0.328496
0.341663
0.428563
0.428563
0.349563
0.44963
0.291629
0.45753
0.415396
0.344296
0.389063
0.431196
0.43383
0.515464
0.568131
0.847266
0.755098
0.997367
1
1
1
1
1
1
1
1
1
1
1
1
1
1
1
1
1
1
1
1
1
1
1
1
1
1
1
1
1
1
1
1
1
1
1
1
1
1
1
1
1
1
1
1
1
1
1
1
1
1
1
1
1
1
1
1
1
1
1
1
1
1
1
1
1
1
1
0.350982
0.453899
0.469863
0.448782
0.381052
0.325664
0.398651
0.366457
0.453722
0.414102
0.38876
0.479206
0.421146
0.398625
0.365023
0.368247
0.393581
0.418524
0.422388
0.482786
0.37604
0.40968
0.382826
0.389723
0.744402
0.728055
0.8734
0.813874
1
1
1
1
1
1
1
1
1
1
1
1
1
1
1
1
1
1
1
1
1
1
1
1
1
1
1
1
1
1
1
1
1
1
1
1
1
1
1
1
1
1
1
1
1
1
1
1
1
1
1
1
1
1
1
1
1
1
1
1
1
1
1
1
1
1
1
1
)
;
    }
    procBoundary3to2
    {
        type            processor;
        value           nonuniform List<scalar> 
192
(
0.357463
0.349563
0.525997
0.454897
0.317962
0.412763
0.446997
0.367996
0.47333
0.43383
0.39433
0.357463
0.407496
0.420663
0.431196
0.325862
0.44173
0.373263
0.460163
0.339029
0.344296
0.41013
0.383796
0.323229
0.604998
0.597097
0.607631
0.602364
1
1
1
1
1
1
1
1
1
1
1
1
1
1
1
1
1
1
1
1
1
1
1
1
1
1
1
1
1
1
1
1
1
1
1
1
1
1
1
1
1
1
1
1
1
1
1
1
1
1
1
1
1
1
1
1
1
1
1
1
1
1
1
1
1
1
1
1
0.408616
0.427367
0.457994
0.450572
0.355993
0.365461
0.402607
0.395092
0.483792
0.482641
0.376891
0.387933
0.451216
0.391992
0.398651
0.445203
0.396087
0.378727
0.42041
0.40762
0.373534
0.462742
0.32546
0.493524
0.70932
0.652883
0.794275
0.833561
1
1
1
1
1
1
1
1
1
1
1
1
1
1
1
1
1
1
1
1
1
1
1
1
1
1
1
1
1
1
1
1
1
1
1
1
1
1
1
1
1
1
1
1
1
1
1
1
1
1
1
1
1
1
1
1
1
1
1
1
1
1
1
1
1
1
1
1
)
;
    }
}


// ************************************************************************* //
