FoamFile
{version 2.0; format ascii;class Cloud<passiveParticle>; location 0;object  positions;}
2470
(
( 0.00164625 0.00581852 0.00539223 ) 0 
( 0.000717786 0.00249349 0.00544878 ) 0 
( 0.0112266 0.00426815 0.0053373 ) 0 
( 0.00399511 0.00515396 0.00539156 ) 0 
( 0.00604331 0.00641182 0.000499886 ) 0 
( 0.00417733 0.00482 0.00679511 ) 0 
( 0.00840811 0.0031505 0.00405951 ) 0 
( 0.00594563 0.00906308 0.00565368 ) 0 
( 0.00624504 0.00376135 0.00382437 ) 0 
( 0.00463578 0.00101733 0.00863385 ) 0 
( 0.0077815 0.00475047 0.00378511 ) 0 
( 0.00487983 0.0114892 0.00116532 ) 0 
( 0.00853251 0.00275183 0.000499644 ) 0 
( 0.00848583 0.00398604 0.00620371 ) 0 
( 0.00460148 0.0108333 0.00289635 ) 0 
( 0.000837396 0.000483654 0.00609987 ) 0 
( 0.00166079 0.00568584 0.00224859 ) 0 
( 0.00428241 0.000140737 0.00830739 ) 0 
( 0.00372908 0.000194663 0.00747628 ) 0 
( 0.00787436 0.00922679 0.000499671 ) 0 
( 0.0049265 0.00549362 0.00552426 ) 0 
( 0.00923037 0.00639419 0.00330631 ) 0 
( 0.011496 0.00498665 0.00318404 ) 0 
( 0.00025842 0.00400395 0.0086149 ) 0 
( 0.00339014 0.00439313 0.00562487 ) 0 
( 0.00351254 0.00602622 0.0054702 ) 0 
( 0.00316276 0.0119416 0.00129174 ) 0 
( 0.011981 0.000470178 0.00278628 ) 0 
( 0.00459001 0.00321817 0.00712867 ) 0 
( 0.00232498 0.00238303 0.00468391 ) 0 
( 0.0071247 0.00577647 0.00049959 ) 0 
( 0.00124512 0.0103949 0.000499851 ) 0 
( 0.00234431 0.00166826 0.0039849 ) 0 
( 0.00648636 0.00954643 0.00460033 ) 0 
( 0.00843636 0.010347 0.0051244 ) 0 
( 0.0102708 0.00420338 0.00492278 ) 0 
( 0.00458114 0.0112164 0.00465989 ) 0 
( 0.00937455 0.00548613 0.00407986 ) 0 
( 0.01325 0.00163135 0.00272933 ) 0 
( 0.00424258 0.00566766 0.00194717 ) 0 
( 0.0105042 0.0067361 0.00314221 ) 0 
( 0.0133386 0.000547803 0.00289609 ) 0 
( 0.00689196 0.0104511 0.00597399 ) 0 
( 0.00786384 0.0100999 0.00290669 ) 0 
( 0.00478009 0.0117934 0.00545156 ) 0 
( 0.0114288 0.00404502 0.00285436 ) 0 
( 0.00852657 0.000405178 0.00668024 ) 0 
( 0.00846556 0.00573447 0.00532855 ) 0 
( 0.00170925 0.00625252 0.00447598 ) 0 
( 0.00846342 0.00411926 0.00724597 ) 0 
( 0.0133299 0.000209715 0.00384098 ) 0 
( 0.00560103 0.00628017 0.00157842 ) 0 
( 0.000416114 0.00575759 0.00369891 ) 0 
( 0.0121742 0.00189442 0.00622082 ) 0 
( 0.0112949 0.00433564 0.000499848 ) 0 
( 0.00564244 0.00223556 0.00760988 ) 0 
( 0.00155855 0.00105365 0.0040653 ) 0 
( 0.000864251 0.00635985 0.00192453 ) 0 
( 0.000813749 0.00720609 0.00769931 ) 0 
( 0.00258527 0.00366583 0.00146067 ) 0 
( 0.00136831 0.00521746 0.00677687 ) 0 
( 0.0108163 0.00241479 0.0019909 ) 0 
( 0.00398757 0.00602116 0.00351267 ) 0 
( 0.00217732 0.0102397 0.00704415 ) 0 
( 0.0103687 0.00395913 0.000499766 ) 0 
( 0.00884899 0.00380575 0.00528979 ) 0 
( 0.00342776 0.00420826 0.0013644 ) 0 
( 0.00254493 0.00174467 0.000499715 ) 0 
( 0.00546113 0.00751814 0.00650795 ) 0 
( 0.00685061 0.0095559 0.00553099 ) 0 
( 0.00424232 0.00900808 0.00540874 ) 0 
( 0.0111737 0.00242617 0.000499918 ) 0 
( 0.00294269 0.00378019 0.00478261 ) 0 
( 0.0110003 0.00139286 0.00327796 ) 0 
( 0.00680749 0.00462415 0.000499713 ) 0 
( 0.0112318 0.00721619 0.00695174 ) 0 
( 0.00361355 0.00344808 0.00411955 ) 0 
( 0.00547096 0.00346509 0.00125693 ) 0 
( 0.000827839 0.00656483 0.00412147 ) 0 
( 0.00716884 0.0053086 0.00434454 ) 0 
( 0.0023986 0.00142744 0.00724511 ) 0 
( 0.00761084 0.00476166 0.00107864 ) 0 
( 0.0101512 0.00272884 0.00652366 ) 0 
( 0.00489539 0.0114863 0.00216505 ) 0 
( 0.00692965 0.00651255 0.00514856 ) 0 
( 0.00974272 0.00259431 0.00562114 ) 0 
( 0.00406986 0.00261342 0.00652449 ) 0 
( 0.0059435 0.00189257 0.00577434 ) 0 
( 0.00372059 0.0032781 0.00158407 ) 0 
( 0.0111202 0.00335141 0.00216397 ) 0 
( 0.00383908 0.00428281 0.00321997 ) 0 
( 0.00297085 0.00977569 0.00201005 ) 0 
( 0.00912387 0.00185916 0.00730145 ) 0 
( 0.00622739 0.00294233 0.00325112 ) 0 
( 0.000169083 0.00818968 0.00722375 ) 0 
( 0.000441975 0.0133428 0.00136798 ) 0 
( 0.0133152 0.000964399 0.00193521 ) 0 
( 0.000298049 0.00579338 0.00528586 ) 0 
( 0.000586493 0.00358618 0.00776774 ) 0 
( 0.00611857 0.00973431 0.00356416 ) 0 
( 0.00355892 0.00128358 0.00850324 ) 0 
( 0.000709846 0.0039887 0.000499719 ) 0 
( 0.000606838 0.00118123 0.00434344 ) 0 
( 0.00391286 0.00775463 0.00321157 ) 0 
( 0.00246779 0.00926006 0.00129538 ) 0 
( 0.0133165 0.000910449 0.00463152 ) 0 
( 0.00184391 0.0109001 0.00463469 ) 0 
( 0.000465782 0.00661696 0.00319025 ) 0 
( 0.00141024 0.00289509 0.00485004 ) 0 
( 0.00438022 0.00657797 0.00725278 ) 0 
( 0.0111577 0.000340343 0.00597424 ) 0 
( 0.00091897 0.00410255 0.00341286 ) 0 
( 0.0105191 0.0068091 0.0054105 ) 0 
( 0.00313369 0.00225761 0.00112421 ) 0 
( 0.00503079 0.00394689 0.000499593 ) 0 
( 0.00480499 0.00324464 0.00196939 ) 0 
( 0.0075261 0.00485281 0.00593637 ) 0 
( 0.00146577 0.00560636 0.000499651 ) 0 
( 0.00688529 0.00310476 0.00737194 ) 0 
( 0.0100661 0.00467894 0.00137651 ) 0 
( 0.00988667 0.0063442 0.00405889 ) 0 
( 0.0100763 0.00444997 0.00397372 ) 0 
( 0.00295499 0.0102041 0.00433106 ) 0 
( 0.00917456 0.000387461 0.00744138 ) 0 
( 0.000515128 0.0101626 0.007326 ) 0 
( 0.00833152 0.00853814 0.0020439 ) 0 
( 0.0022361 0.00521038 0.00329185 ) 0 
( 0.010998 0.00586813 0.00309195 ) 0 
( 0.00887835 0.00467883 0.0027939 ) 0 
( 0.00663678 0.00215364 0.00755203 ) 0 
( 0.0056313 0.00984069 0.000499588 ) 0 
( 0.00476284 0.00222946 0.00713428 ) 0 
( 0.00921348 0.00543639 0.0059213 ) 0 
( 0.00177012 0.0125203 0.00287974 ) 0 
( 0.00450463 0.0105876 0.00388634 ) 0 
( 0.00170833 0.00511699 0.00142766 ) 0 
( 0.00145332 0.0035122 0.00401776 ) 0 
( 0.00857146 0.00530015 0.0035146 ) 0 
( 0.00495852 0.00738605 0.00736179 ) 0 
( 0.00438416 0.00686813 0.00546662 ) 0 
( 0.000843424 0.00817876 0.00252264 ) 0 
( 0.0034895 0.00882701 0.00759229 ) 0 
( 0.00442776 0.00640857 0.00267491 ) 0 
( 0.0028345 0.000238774 0.0013735 ) 0 
( 0.00435254 0.00642999 0.0013095 ) 0 
( 0.00622185 0.0110354 0.00371254 ) 0 
( 0.00928978 0.00857048 0.00142469 ) 0 
( 0.00918625 0.00280618 0.00132359 ) 0 
( 0.00597944 0.00670867 0.00451349 ) 0 
( 0.0016569 0.0132469 0.00355715 ) 0 
( 0.00200729 0.011549 0.00288706 ) 0 
( 0.00873274 0.0025625 0.00331784 ) 0 
( 0.00130621 0.00494454 0.00303729 ) 0 
( 0.00811247 0.00325633 0.00677612 ) 0 
( 0.00295314 0.00902573 0.00495512 ) 0 
( 0.00617005 0.00597603 0.00551834 ) 0 
( 0.00625046 0.00795779 0.00563838 ) 0 
( 0.00133058 0.00181315 0.00467446 ) 0 
( 0.00303736 0.0110187 0.00165528 ) 0 
( 0.0011535 0.00801065 0.00719399 ) 0 
( 0.00527907 0.00642888 0.00554385 ) 0 
( 0.00247973 0.00426609 0.00798612 ) 0 
( 0.0048178 0.0076083 0.00396643 ) 0 
( 0.000334221 7.17181e-05 0.00500106 ) 0 
( 0.0044845 0.00103424 0.00180048 ) 0 
( 0.00598487 0.00391536 0.00287111 ) 0 
( 0.00508401 0.00132062 0.00739911 ) 0 
( 0.00716266 0.00804543 0.00510177 ) 0 
( 0.00711467 0.0098996 0.000499636 ) 0 
( 0.00686572 0.0102798 0.00394296 ) 0 
( 3.49868e-06 0.0132704 0.0046614 ) 0 
( 0.00212037 0.00235014 0.0023957 ) 0 
( 0.0103156 0.00293949 0.00049973 ) 0 
( 0.0041682 0.000863634 0.00676169 ) 0 
( 0.00386993 0.0108684 0.00219623 ) 0 
( 0.00256416 0.00467113 0.00116653 ) 0 
( 0.00185389 0.000814071 0.00314073 ) 0 
( 0.00918449 0.0011547 0.00469995 ) 0 
( 5.35251e-05 0.00414955 0.00583166 ) 0 
( 0.00199626 0.00578334 0.00741094 ) 0 
( 0.0027394 0.00524442 0.00558603 ) 0 
( 0.00624514 0.00835939 0.00113955 ) 0 
( 0.00346623 0.00119457 0.00353295 ) 0 
( 4.47341e-05 0.00564457 0.00185728 ) 0 
( 0.000491507 0.0082185 0.00360015 ) 0 
( 0.00541773 0.00512147 0.00415948 ) 0 
( 0.00601069 0.00309695 0.00796121 ) 0 
( 0.00266334 0.00237276 0.00566329 ) 0 
( 0.0062688 0.00786868 0.00368761 ) 0 
( 0.00696343 0.00342167 0.00103111 ) 0 
( 0.00431775 0.012586 0.00395664 ) 0 
( 0.00922674 0.00473206 0.0074509 ) 0 
( 0.0106226 0.00302385 0.00299046 ) 0 
( 0.00807591 0.00821633 0.00341583 ) 0 
( 0.0032411 0.00537076 0.00365314 ) 0 
( 0.00591411 0.010326 0.00434638 ) 0 
( 0.00684554 0.00893433 0.00211388 ) 0 
( 0.00832486 0.00245885 0.00734038 ) 0 
( 0.00150233 0.00891867 0.00265849 ) 0 
( 0.00844611 0.00590787 0.00273077 ) 0 
( 0.00425147 0.00566648 0.000499639 ) 0 
( 0.00365198 0.00871944 0.000499737 ) 0 
( 0.00770952 0.00906766 0.00269035 ) 0 
( 0.00256187 0.00045631 0.00697209 ) 0 
( 0.00344745 0.0128976 0.00135706 ) 0 
( 0.00178184 0.0087637 0.00806397 ) 0 
( 0.0106058 0.000796891 0.00124405 ) 0 
( 0.00786459 0.0104249 0.00668351 ) 0 
( 0.00693786 0.00225293 0.00339147 ) 0 
( 0.00369967 0.0102026 0.00146986 ) 0 
( 0.0106918 0.00241194 0.00536583 ) 0 
( 0.00650573 0.00169646 0.00122162 ) 0 
( 0.00966969 0.00637058 0.00608036 ) 0 
( 0.00233921 0.0108782 0.000499767 ) 0 
( 0.000102066 0.00140677 0.00314267 ) 0 
( 0.000504816 0.0122311 0.00244023 ) 0 
( 0.000213873 0.000525699 0.00369877 ) 0 
( 0.000912935 0.000591993 0.000499748 ) 0 
( 0.0101829 0.00328285 0.00385036 ) 0 
( 0.00518385 0.00128853 0.0029127 ) 0 
( 0.00127753 0.00965243 0.0057857 ) 0 
( 0.00300889 0.00835315 0.00131144 ) 0 
( 0.00220086 0.00455257 0.00209047 ) 0 
( 0.00652308 0.00449641 0.005005 ) 0 
( 0.0111342 0.00736608 0.00596836 ) 0 
( 0.0123446 0.000296301 0.00400017 ) 0 
( 0.00876064 0.00750867 0.000499663 ) 0 
( 0.00149116 0.00648591 0.00310089 ) 0 
( 0.00148505 0.00824193 0.00339445 ) 0 
( 0.000409064 0.00303168 0.000499743 ) 0 
( 0.0016696 0.00784737 0.00501056 ) 0 
( 0.00676375 0.00642773 0.00625479 ) 0 
( 0.00151671 0.00750828 0.000499682 ) 0 
( 0.00690882 0.00578501 0.00258542 ) 0 
( 0.00807053 0.00754392 0.00173959 ) 0 
( 0.0027559 0.00987423 0.00631518 ) 0 
( 0.000888511 0.0101554 0.00384104 ) 0 
( 0.0104978 0.00498811 0.00324205 ) 0 
( 0.00337757 0.0129133 0.00386317 ) 0 
( 0.00196716 0.00895211 0.00475669 ) 0 
( 0.00753356 0.00279538 0.000499795 ) 0 
( 0.00897369 0.00736023 0.00334505 ) 0 
( 0.00506636 0.0051784 0.00223324 ) 0 
( 0.00918939 0.00749327 0.00140272 ) 0 
( 0.00845297 0.00347362 0.00118687 ) 0 
( 0.00377254 0.0127035 0.00296891 ) 0 
( 0.00835275 0.00509911 0.000499848 ) 0 
( 0.00310084 0.00234138 0.00398788 ) 0 
( 0.00405136 0.000273955 0.00499386 ) 0 
( 0.0103857 0.000255994 0.00660375 ) 0 
( 0.00840913 0.00822973 0.00109593 ) 0 
( 0.00534271 0.00598192 0.00737003 ) 0 
( 0.00741344 0.00158941 0.00472536 ) 0 
( 0.000429408 0.0021606 0.00782721 ) 0 
( 0.00819123 0.00479824 0.00189208 ) 0 
( 0.00143696 0.00314485 0.00584984 ) 0 
( 0.00349085 0.00529294 0.00624356 ) 0 
( 0.00378639 0.0118184 0.00473115 ) 0 
( 0.0121715 0.002363 0.000499837 ) 0 
( 0.00164745 0.00786337 0.00633714 ) 0 
( 0.0110544 0.00748449 0.00393968 ) 0 
( 0.00654969 0.00350421 0.00474147 ) 0 
( 0.00205571 0.0098094 0.00049968 ) 0 
( 0.00865186 0.0101678 0.00609982 ) 0 
( 0.0072911 0.00896231 0.00471288 ) 0 
( 0.00347746 0.00923606 0.00133776 ) 0 
( 0.000739182 0.00145402 0.00632163 ) 0 
( 0.00610715 0.00698351 0.00546649 ) 0 
( 0.000388149 0.00729026 0.00165233 ) 0 
( 0.00203624 0.00692608 0.00513867 ) 0 
( 0.0119951 0.00586028 0.00316716 ) 0 
( 0.00247531 0.0131186 0.00128153 ) 0 
( 0.00214614 0.00636065 0.00049984 ) 0 
( 0.00544189 0.000712209 0.00810697 ) 0 
( 0.0102868 0.00850916 0.00138016 ) 0 
( 0.00164301 0.00611151 0.00134404 ) 0 
( 0.004536 0.00166075 0.0035773 ) 0 
( 0.00234691 0.00151494 0.0062062 ) 0 
( 0.000291779 0.00153118 0.00148565 ) 0 
( 0.0046129 0.00100801 0.000499882 ) 0 
( 0.0064987 0.0116615 0.00446807 ) 0 
( 0.0105203 0.00496751 0.000499923 ) 0 
( 0.00831098 0.00661587 0.000499632 ) 0 
( 0.0100885 0.00727544 0.0062004 ) 0 
( 0.0063959 0.000361279 0.00280926 ) 0 
( 0.00308588 0.00123754 0.00133058 ) 0 
( 0.00968775 0.00148388 0.00550631 ) 0 
( 0.00554998 0.00936681 0.0042998 ) 0 
( 0.000336175 0.0105843 0.00545462 ) 0 
( 0.00797741 0.00764153 0.00657759 ) 0 
( 0.00235374 0.00312214 0.00624818 ) 0 
( 0.00385698 0.00179516 0.0016369 ) 0 
( 0.00753742 0.00698118 0.00591352 ) 0 
( 0.00353611 0.00821388 0.00215012 ) 0 
( 0.00142515 0.00472777 0.00405153 ) 0 
( 0.00352168 0.00867753 0.00312324 ) 0 
( 0.00483188 0.00675147 0.00637779 ) 0 
( 0.00801106 0.00333487 0.0056072 ) 0 
( 0.0021199 0.000463296 0.00520017 ) 0 
( 0.00624471 0.010464 0.00289229 ) 0 
( 0.00886168 0.0075801 0.00237609 ) 0 
( 0.00243069 0.00562701 0.00417967 ) 0 
( 0.00369215 0.0108516 0.00533112 ) 0 
( 0.00242436 0.00414415 0.00555602 ) 0 
( 0.0093441 0.00213352 0.00482845 ) 0 
( 0.00504519 0.00159846 0.00119486 ) 0 
( 0.000776389 5.39504e-05 0.00133128 ) 0 
( 0.00505142 0.00494647 0.000499774 ) 0 
( 0.00750126 0.00836123 0.00149344 ) 0 
( 0.00073687 0.00203045 0.0036003 ) 0 
( 0.00639996 0.00883633 0.0039021 ) 0 
( 0.00625758 0.00532784 0.00627607 ) 0 
( 0.00415449 0.00146062 0.00267498 ) 0 
( 0.0128216 0.00366748 0.00228325 ) 0 
( 0.00374757 0.00966365 0.0046299 ) 0 
( 0.00237766 0.00480744 0.00476279 ) 0 
( 0.000546385 0.0112337 0.00249659 ) 0 
( 0.00280608 0.012099 0.0031352 ) 0 
( 0.00581181 0.00090415 0.00677745 ) 0 
( 0.00172665 0.00326498 0.00308427 ) 0 
( 0.00220335 0.0121994 0.00615721 ) 0 
( 0.00416901 0.0010965 0.0077339 ) 0 
( 0.00987443 0.00898442 0.00646982 ) 0 
( 0.000229075 0.0116801 0.00624614 ) 0 
( 0.00308561 0.00899604 0.0039647 ) 0 
( 0.000436699 0.00482198 0.00509304 ) 0 
( 0.00673945 0.00815519 0.00706005 ) 0 
( 0.00571394 0.0120654 0.00253449 ) 0 
( 0.0121322 0.00213763 0.00379859 ) 0 
( 0.00416327 0.00868019 0.00644974 ) 0 
( 0.00696757 0.00681587 0.000499862 ) 0 
( 0.00464762 0.00228009 0.00548657 ) 0 
( 0.00659264 0.0106088 0.00156327 ) 0 
( 0.00710648 0.000959878 0.00318548 ) 0 
( 0.00386698 0.00396581 0.000499656 ) 0 
( 0.000834127 0.00542292 0.00759631 ) 0 
( 0.00494802 0.00695055 0.00193046 ) 0 
( 0.00276089 0.00462122 0.00636756 ) 0 
( 0.0123923 0.00496551 0.00470681 ) 0 
( 0.0104362 0.00173565 0.000499596 ) 0 
( 0.0128313 0.00368639 0.00699809 ) 0 
( 0.00964049 0.00204157 0.00210217 ) 0 
( 0.0125273 0.00451269 0.00643522 ) 0 
( 0.00040914 0.00245704 0.00186372 ) 0 
( 0.00931548 0.000552659 0.00141873 ) 0 
( 0.000307105 0.00489384 0.00305399 ) 0 
( 0.00451706 0.0108372 0.000499749 ) 0 
( 0.000129958 0.00727 0.00390923 ) 0 
( 0.00192321 0.0104072 0.00609173 ) 0 
( 0.00419827 0.00343174 0.00283604 ) 0 
( 0.00837619 0.005257 0.00746874 ) 0 
( 4.43933e-07 0.000225034 0.00658194 ) 0 
( 0.00776592 0.00103434 0.00652284 ) 0 
( 0.000493837 0.0111427 0.000499604 ) 0 
( 0.00145157 0.00568308 0.00369556 ) 0 
( 0.00650044 0.00799604 0.00212843 ) 0 
( 0.00331683 0.0102842 0.00282429 ) 0 
( 0.00260037 0.00765704 0.00190594 ) 0 
( 0.00889864 0.00654048 0.00130511 ) 0 
( 0.00528295 0.0102444 0.00336093 ) 0 
( 0.00502232 0.0103302 0.00479816 ) 0 
( 9.68427e-07 0.011229 0.00160856 ) 0 
( 0.0028852 0.00616349 0.00634869 ) 0 
( 0.000786121 0.0133271 0.00404199 ) 0 
( 0.00790652 0.00973349 0.00195368 ) 0 
( 0.00298789 0.0046889 0.00288766 ) 0 
( 0.0043309 0.0111291 0.0060482 ) 0 
( 0.00409955 0.00207506 0.00798423 ) 0 
( 0.00832975 0.00672451 0.00536049 ) 0 
( 0.00601936 0.00395269 0.00736967 ) 0 
( 0.00765329 0.000980697 0.000499555 ) 0 
( 0.00171516 0.00394618 0.00487972 ) 0 
( 0.00353209 0.0103774 0.000499778 ) 0 
( 0.000815117 0.0128427 0.00316787 ) 0 
( 0.00325634 0.0052868 0.00473117 ) 0 
( 0.00103696 0.00987936 0.00199841 ) 0 
( 0.00856484 0.00910103 0.00320708 ) 0 
( 0.00630267 0.00576347 0.00455028 ) 0 
( 0.00519955 0.0101882 0.00584584 ) 0 
( 0.00430371 0.00936789 0.00314501 ) 0 
( 0.00235498 0.00253338 0.00335026 ) 0 
( 0.00647602 0.000712405 0.00474371 ) 0 
( 0.00199076 0.00959901 0.00210619 ) 0 
( 0.00443004 0.00952015 0.00144486 ) 0 
( 0.00549441 0.000277732 0.00323371 ) 0 
( 0.00205894 0.00271207 0.00138844 ) 0 
( 0.00957717 0.00398068 0.00263874 ) 0 
( 0.00670294 0.0106951 0.00483742 ) 0 
( 0.000270067 0.00915789 0.00699532 ) 0 
( 0.00529495 0.00312289 0.00542859 ) 0 
( 0.0021204 0.00816231 0.00416278 ) 0 
( 0.00195273 0.000702767 0.00148933 ) 0 
( 0.00746823 0.00712847 0.00373064 ) 0 
( 0.00505153 0.0123575 0.00325392 ) 0 
( 0.00835628 0.00415887 0.00449474 ) 0 
( 0.000399689 0.00986409 0.00475981 ) 0 
( 0.00292491 0.00185259 0.00798089 ) 0 
( 0.0111783 0.00571452 0.00187595 ) 0 
( 0.0114106 0.00113769 0.00197279 ) 0 
( 0.00849685 0.00171645 0.0065358 ) 0 
( 0.00512847 0.00942332 0.00520469 ) 0 
( 0.00839674 0.00176818 0.00475305 ) 0 
( 0.00345683 0.0077389 0.000499699 ) 0 
( 0.00435413 0.00580185 0.00628354 ) 0 
( 0.0103178 0.00451844 0.00587045 ) 0 
( 0.000850565 0.00745434 0.00457738 ) 0 
( 0.00755833 0.00808044 0.00248545 ) 0 
( 0.0111427 0.00289437 0.00450378 ) 0 
( 0.00775344 0.00993649 0.00572824 ) 0 
( 0.00549992 0.00666832 0.00277347 ) 0 
( 8.45989e-05 0.00376049 0.00691247 ) 0 
( 0.00397131 0.00318829 0.00793011 ) 0 
( 0.00801491 0.000797648 0.00460742 ) 0 
( 0.00175288 0.000289649 0.00753541 ) 0 
( 0.0017048 0.00211059 0.00555267 ) 0 
( 0.00314143 0.00219838 0.00652964 ) 0 
( 0.00875078 0.000324609 0.000499698 ) 0 
( 0.00987628 0.0089823 0.00416953 ) 0 
( 0.000646642 0.00457773 0.00651317 ) 0 
( 0.00124043 0.00139794 0.00100858 ) 0 
( 0.00878623 0.00253749 0.00225749 ) 0 
( 0.00319758 0.0014821 0.00449495 ) 0 
( 0.00621325 0.00133601 0.00293945 ) 0 
( 0.00717999 0.0096473 0.00649416 ) 0 
( 0.00712522 0.0041668 0.00426272 ) 0 
( 0.00331317 0.00616561 0.00425781 ) 0 
( 0.0119471 0.00203977 0.00170664 ) 0 
( 0.000208088 0.0124735 0.00387357 ) 0 
( 0.00060234 0.0124581 0.00479209 ) 0 
( 0.00889234 0.00300703 0.00594621 ) 0 
( 0.00267551 0.000862384 0.00216159 ) 0 
( 0.0131112 0.00229058 0.00192202 ) 0 
( 0.00230014 0.0112631 0.00649411 ) 0 
( 0.00319604 0.00449187 0.00412762 ) 0 
( 0.0054202 0.00940182 0.00137265 ) 0 
( 0.00795729 0.0107195 0.00211173 ) 0 
( 0.0104375 0.00399436 0.00314817 ) 0 
( 0.0102341 0.00196881 0.00716775 ) 0 
( 0.00600681 0.00242775 0.00408192 ) 0 
( 0.00337822 0.00255515 0.00743324 ) 0 
( 0.00118377 0.00417392 0.00241186 ) 0 
( 0.0103388 0.00150262 0.00628729 ) 0 
( 0.000957771 0.00559756 0.0045607 ) 0 
( 0.00656532 0.000282803 0.00654072 ) 0 
( 0.00383463 0.00773771 0.00420817 ) 0 
( 0.0132507 0.00146306 0.00049967 ) 0 
( 0.00758329 0.00183739 0.0070893 ) 0 
( 0.00559079 0.000567342 0.00218639 ) 0 
( 0.00549313 0.0032231 0.00440338 ) 0 
( 0.00225659 0.00142163 0.00495005 ) 0 
( 0.00100789 0.00910573 0.00499347 ) 0 
( 0.00870208 0.00563105 0.00167133 ) 0 
( 0.00963844 0.000315766 0.00501931 ) 0 
( 0.000791313 0.00166854 0.00246728 ) 0 
( 0.000504664 0.0110622 0.00348078 ) 0 
( 0.00486743 0.00366796 0.00627235 ) 0 
( 0.00273394 0.00672754 0.00784532 ) 0 
( 0.00213676 0.00468572 0.00714592 ) 0 
( 0.00971531 0.000890187 0.00227087 ) 0 
( 0.011878 0.0037783 0.00167102 ) 0 
( 0.00380466 0.0103071 0.00626345 ) 0 
( 0.0104307 0.00407146 0.00208211 ) 0 
( 0.00401535 0.0069096 0.000499654 ) 0 
( 0.00110788 0.0073463 0.00566875 ) 0 
( 0.000420423 0.0116369 0.00722655 ) 0 
( 0.0011625 0.00063033 0.00496571 ) 0 
( 0.00351658 0.00959569 0.00690418 ) 0 
( 0.000220964 0.00651285 0.00704538 ) 0 
( 0.00246507 0.000696269 0.00428873 ) 0 
( 0.0127511 0.00317764 0.000499522 ) 0 
( 0.0132967 0.0011925 0.00365933 ) 0 
( 0.00251201 0.0074121 0.000499737 ) 0 
( 0.00378946 0.00052731 0.00129075 ) 0 
( 0.013005 0.00301513 0.00408548 ) 0 
( 0.00718557 0.0112513 0.00386841 ) 0 
( 0.0099798 0.00580846 0.000499785 ) 0 
( 0.00429919 0.0100559 0.00543176 ) 0 
( 0.00405542 0.00154343 0.00515358 ) 0 
( 0.00271297 0.0102185 0.00115144 ) 0 
( 0.00933586 0.00954326 0.00165137 ) 0 
( 0.00337521 0.0049308 0.000499787 ) 0 
( 0.00941282 0.00582183 0.00502065 ) 0 
( 0.012237 0.00228945 0.00713696 ) 0 
( 0.00909562 0.00715282 0.00583974 ) 0 
( 0.00962067 0.00378395 0.00135952 ) 0 
( 0.0112291 0.00177509 0.00591782 ) 0 
( 0.000878269 0.0133212 0.00629607 ) 0 
( 0.00727397 0.00931427 0.00129431 ) 0 
( 0.00178258 0.00465758 0.000499763 ) 0 
( 0.0124867 0.000517901 0.00503178 ) 0 
( 0.00281061 0.0110787 0.00481711 ) 0 
( 0.00446301 0.00434233 0.00399889 ) 0 
( 0.00836427 0.00398632 0.00350726 ) 0 
( 0.00687805 0.0114343 0.00107674 ) 0 
( 0.00401294 0.00738039 0.0077969 ) 0 
( 0.0127557 0.00311403 0.00312239 ) 0 
( 0.000414826 0.00164053 0.000499589 ) 0 
( 0.00247578 0.0120357 0.00710471 ) 0 
( 0.00105261 0.00735086 0.00353168 ) 0 
( 0.00296644 0.00383357 0.00341086 ) 0 
( 0.00377819 0.000820053 0.00578559 ) 0 
( 0.00817429 0.00934976 0.00641962 ) 0 
( 0.00656476 1.0129e-05 0.000499884 ) 0 
( 0.0111381 0.00353073 0.00369077 ) 0 
( 0.00515026 0.00343677 0.00314372 ) 0 
( 0.000408039 0.00305159 0.00624474 ) 0 
( 0.0115536 0.0027394 0.00324251 ) 0 
( 0.0028182 0.0112874 0.00371942 ) 0 
( 0.00646408 0.00732722 0.0065724 ) 0 
( 0.00629196 0.0026968 0.00527301 ) 0 
( 0.0122555 0.00405907 0.000499712 ) 0 
( 0.00338659 0.00914498 0.00602154 ) 0 
( 0.0115542 4.18623e-05 0.000499542 ) 0 
( 0.00725974 0.011204 0.00651899 ) 0 
( 0.00439646 0.00788661 0.00588845 ) 0 
( 0.00705566 0.00317264 0.00388205 ) 0 
( 0.00107203 0.00368869 0.00677541 ) 0 
( 0.0111648 0.00156763 0.00424856 ) 0 
( 0.00396403 0.00271367 0.00353825 ) 0 
( 0.00264855 0.0130844 0.0032002 ) 0 
( 0.000244758 0.000563649 0.00783258 ) 0 
( 0.00143417 0.00489057 0.00508323 ) 0 
( 0.00534117 0.00570453 0.00640904 ) 0 
( 0.00527528 0.00924357 0.00334584 ) 0 
( 0.0108826 0.00632704 0.00397271 ) 0 
( 0.0105834 0.00343676 0.00132472 ) 0 
( 0.0074651 0.00144682 0.00136371 ) 0 
( 0.0074175 0.00025533 0.00600249 ) 0 
( 0.00175969 0.00139171 0.00226639 ) 0 
( 0.00324919 0.00626701 0.000499875 ) 0 
( 0.00137394 0.00930166 0.0040286 ) 0 
( 0.00833001 0.00574715 0.00632095 ) 0 
( 0.0072135 0.00807128 0.00394544 ) 0 
( 0.00287938 0.000721959 0.000499522 ) 0 
( 0.00634592 0.00689813 0.00132767 ) 0 
( 0.00121976 0.00903343 0.00728254 ) 0 
( 0.00182981 0.00908575 0.00649244 ) 0 
( 0.00326042 0.00318323 0.00666469 ) 0 
( 0.00187782 0.00739257 0.0029327 ) 0 
( 0.00643692 0.00586102 0.00710243 ) 0 
( 0.00344737 0.0030675 0.00062881 ) 0 
( 0.0031038 0.000587489 0.00504995 ) 0 
( 0.00694653 0.00765139 0.00105972 ) 0 
( 0.00141459 0.011852 0.00212512 ) 0 
( 0.00898248 0.00587538 0.000499823 ) 0 
( 0.00221097 0.00857584 0.00197751 ) 0 
( 0.0120231 0.003186 0.00400401 ) 0 
( 0.00193767 0.0128036 0.000499731 ) 0 
( 0.0101192 0.00234309 0.00127779 ) 0 
( 0.00682233 0.00474638 0.00314729 ) 0 
( 0.000941835 0.00529112 0.00587487 ) 0 
( 0.00580429 0.0120155 0.00509426 ) 0 
( 0.00401042 0.00208511 0.00431449 ) 0 
( 0.0101464 0.00101446 0.0044658 ) 0 
( 0.00343486 0.00628486 0.00272215 ) 0 
( 0.00611773 0.00337312 0.000499843 ) 0 
( 0.00803327 0.000288681 0.00344278 ) 0 
( 0.00675487 0.00879976 0.00617787 ) 0 
( 0.00157746 0.00861079 0.00564959 ) 0 
( 0.0123582 0.000647095 0.00117253 ) 0 
( 0.00493536 0.00562183 0.00122765 ) 0 
( 0.0133258 0.000101631 0.00143 ) 0 
( 0.011236 0.00454295 0.00172303 ) 0 
( 0.00549165 0.0110621 0.000499804 ) 0 
( 0.00594043 0.0119556 0.000499862 ) 0 
( 0.00520945 0.0122918 0.00166262 ) 0 
( 0.00301349 0.00952243 0.000499704 ) 0 
( 0.00056186 0.00889957 0.00601518 ) 0 
( 0.00561956 0.00773447 0.0017344 ) 0 
( 0.0117362 0.00636302 0.00682082 ) 0 
( 0.00932368 0.00835665 0.00478398 ) 0 
( 0.00159009 0.00113316 0.00673635 ) 0 
( 0.011427 0.00522048 0.00101313 ) 0 
( 0.00439386 0.00984488 0.000499843 ) 0 
( 0.0010138 0.000883906 0.00183566 ) 0 
( 0.00380554 0.00866705 0.00457524 ) 0 
( 0.0103284 0.00604955 0.0023719 ) 0 
( 0.0121741 0.0013633 0.000499812 ) 0 
( 0.00366311 0.00237094 0.0056438 ) 0 
( 0.00448657 0.00205033 0.000499653 ) 0 
( 0.00229159 0.0131521 0.00532404 ) 0 
( 0.00157909 0.012378 0.00742657 ) 0 
( 0.00115743 0.00837311 0.00432993 ) 0 
( 0.00149387 0.0132663 0.00140616 ) 0 
( 0.00717687 0.00161796 0.0024359 ) 0 
( 0.000408125 0.00984949 0.00628648 ) 0 
( 0.00484985 0.00158343 0.00452777 ) 0 
( 0.00225112 0.00411976 0.00404814 ) 0 
( 0.0119922 0.00580723 0.0050691 ) 0 
( 0.000734095 0.00818712 0.00527777 ) 0 
( 0.00502882 0.0123666 0.000499891 ) 0 
( 0.00546208 0.00227687 0.00490668 ) 0 
( 0.00797784 0.00612151 0.00445533 ) 0 
( 0.00704517 0.00295498 0.00267585 ) 0 
( 0.00377363 0.00533813 0.00280747 ) 0 
( 0.0120406 0.00305281 0.00242622 ) 0 
( 0.0109387 0.00765384 0.00503117 ) 0 
( 0.0026782 0.00614411 0.0033605 ) 0 
( 0.00123136 0.00233801 0.00640342 ) 0 
( 0.00249371 0.011799 0.00202106 ) 0 
( 0.00837918 0.00518391 0.00449836 ) 0 
( 0.0128024 0.00378617 0.00129066 ) 0 
( 0.00500279 0.00786745 0.000499692 ) 0 
( 0.000529574 0.00312286 0.00443489 ) 0 
( 0.000860306 0.000313642 0.00708535 ) 0 
( 0.00695275 0.00856929 0.00311305 ) 0 
( 0.00849898 0.00874825 0.00519197 ) 0 
( 0.00993523 0.00765672 0.00528812 ) 0 
( 2.06088e-05 0.00900908 0.00518158 ) 0 
( 0.0108082 0.00690566 0.00217411 ) 0 
( 0.00980628 0.0013953 0.00119735 ) 0 
( 0.00364408 0.00596437 0.00696794 ) 0 
( 0.00869269 0.00415902 0.000499771 ) 0 
( 0.00500156 0.000604886 0.0062739 ) 0 
( 0.0120589 0.00298085 0.00643701 ) 0 
( 0.00544292 0.0110471 0.00539472 ) 0 
( 0.00908219 0.00454286 0.00392458 ) 0 
( 0.00326166 0.00995744 0.00545267 ) 0 
( 0.00443589 0.00314328 0.00049982 ) 0 
( 0.00845946 0.00920491 0.00130985 ) 0 
( 0.00707121 0.00103795 0.00548577 ) 0 
( 0.00781248 0.00621742 0.0070407 ) 0 
( 0.0104222 0.00368474 0.00641226 ) 0 
( 0.00866571 0.00872764 0.00412907 ) 0 
( 0.00836623 0.00728992 0.00413945 ) 0 
( 0.00737846 0.00995987 0.00478408 ) 0 
( 0.000435935 0.0055693 0.00669126 ) 0 
( 0.00720803 0.000528509 0.00408184 ) 0 
( 0.00293037 0.00774933 0.00756176 ) 0 
( 0.00246732 0.00291836 0.000499628 ) 0 
( 0.0058923 0.0119793 0.00373092 ) 0 
( 0.00752194 0.0103685 0.001283 ) 0 
( 0.00942677 0.00364789 0.00649652 ) 0 
( 0.0110403 0.0058159 0.0058979 ) 0 
( 0.00760137 0.00856527 0.00665493 ) 0 
( 0.0124638 2.15155e-05 0.00194522 ) 0 
( 0.000799378 0.00576983 0.00277544 ) 0 
( 0.0130316 0.00276887 0.00665512 ) 0 
( 0.00102707 0.00711511 0.00671153 ) 0 
( 0.00776515 0.00138293 0.00381248 ) 0 
( 0.00500787 0.00423011 0.00708703 ) 0 
( 0.00660994 0.000979268 0.00191355 ) 0 
( 0.000299933 0.0133467 0.00242992 ) 0 
( 0.000714759 0.00871682 0.00049976 ) 0 
( 0.00690147 0.00242534 0.00452832 ) 0 
( 0.00967313 0.00791686 0.000499741 ) 0 
( 0.00476597 0.00253013 0.00296986 ) 0 
( 0.00806417 0.00734176 0.00293052 ) 0 
( 0.00120632 0.0041935 0.00577906 ) 0 
( 0.009699 0.000641706 0.000499796 ) 0 
( 0.00161227 0.00343716 0.000499886 ) 0 
( 0.00709866 0.00298754 0.00582292 ) 0 
( 0.00360584 0.00739022 0.00511811 ) 0 
( 0.0080002 0.00811941 0.00456096 ) 0 
( 0.00862359 0.0101912 0.00138158 ) 0 
( 0.0103752 0.00547323 0.00410766 ) 0 
( 0.0068765 0.00146385 0.00636965 ) 0 
( 0.000130406 0.00701683 0.000499796 ) 0 
( 0.00124235 0.0116969 0.00468859 ) 0 
( 0.00844074 0.00475514 0.00554481 ) 0 
( 0.0119055 0.0038801 0.00471413 ) 0 
( 0.00777504 0.0108526 0.0045706 ) 0 
( 8.08694e-05 0.00531524 0.000499507 ) 0 
( 0.0116979 0.00642473 0.00140128 ) 0 
( 0.0107679 0.00236333 0.00374389 ) 0 
( 0.00199511 0.0100839 0.00407701 ) 0 
( 0.00489913 0.00906476 0.00220136 ) 0 
( 0.00978953 0.00360816 0.00556583 ) 0 
( 0.00170204 0.00412061 0.00133925 ) 0 
( 0.0061503 0.0074233 0.000499733 ) 0 
( 0.003636 0.00630116 0.00790856 ) 0 
( 0.00264273 0.00905725 0.00710413 ) 0 
( 0.00110384 0.00295106 0.00121417 ) 0 
( 0.00635805 0.00859258 0.0048712 ) 0 
( 6.87491e-05 0.00713077 0.00626545 ) 0 
( 0.0113635 0.00526652 0.0041348 ) 0 
( 0.00780415 0.000668266 0.00189152 ) 0 
( 0.0050886 0.00846146 0.0012993 ) 0 
( 0.00230169 0.0106348 0.00316531 ) 0 
( 0.00373189 0.00998636 0.00368381 ) 0 
( 0.00205557 0.0119285 0.00382342 ) 0 
( 0.0109699 0.00594625 0.000499667 ) 0 
( 0.00903776 0.00919486 0.00593999 ) 0 
( 0.00117823 0.00948816 0.000935512 ) 0 
( 0.00595871 0.00859621 0.00300856 ) 0 
( 0.00662242 0.00427769 0.00141918 ) 0 
( 0.00433457 0.00852737 0.00368579 ) 0 
( 0.0065103 0.00668415 0.00337525 ) 0 
( 0.00767792 0.0109213 0.00557251 ) 0 
( 0.00857343 0.00841693 0.00636295 ) 0 
( 0.00965128 0.00550675 0.00311918 ) 0 
( 0.00978603 0.0019743 0.00368506 ) 0 
( 0.00387671 0.00177297 0.00705795 ) 0 
( 0.00108637 0.00660533 0.000499871 ) 0 
( 0.00538238 0.0024949 0.00148206 ) 0 
( 0.011923 0.00381523 0.00590193 ) 0 
( 0.00478156 0.000361785 0.00744296 ) 0 
( 0.00480101 0.00875028 0.00454161 ) 0 
( 0.00579805 0.00869365 0.00196901 ) 0 
( 0.00425255 0.00486368 0.0010954 ) 0 
( 0.00232674 0.0118814 0.000499883 ) 0 
( 0.00146759 0.0113698 0.000499802 ) 0 
( 0.00777551 0.00248087 0.00514121 ) 0 
( 0.0102191 0.00752068 0.00123757 ) 0 
( 0.00480086 0.00734637 0.00300018 ) 0 
( 9.44827e-05 0.000892025 0.00222879 ) 0 
( 0.00591635 0.00581303 0.00246543 ) 0 
( 0.00830753 0.000248009 0.00791892 ) 0 
( 0.00564424 0.0104605 0.00128379 ) 0 
( 0.013171 0.00217972 0.0035617 ) 0 
( 0.00536131 0.00708951 0.00101543 ) 0 
( 0.00151847 0.00651695 0.00789407 ) 0 
( 0.00254314 0.00710055 0.00361961 ) 0 
( 0.00766925 0.00572532 0.00358587 ) 0 
( 0.00351703 0.00832275 0.00546836 ) 0 
( 0.00573705 0.00146295 0.00395751 ) 0 
( 0.0126647 0.0042225 0.00314965 ) 0 
( 0.00332931 0.00824871 0.00679289 ) 0 
( 0.00944756 0.00676406 0.000499829 ) 0 
( 0.00431593 0.00594809 0.00487618 ) 0 
( 0.00376773 0.0118927 0.00572905 ) 0 
( 0.00871641 0.00340616 0.00276793 ) 0 
( 0.00244544 0.00540614 0.0004995 ) 0 
( 0.0039366 0.011167 0.00124411 ) 0 
( 0.00459091 0.00960976 0.00407596 ) 0 
( 0.000977564 0.00718824 0.00254811 ) 0 
( 0.00265876 0.00573141 0.00229277 ) 0 
( 0.0121086 0.00123722 0.0042437 ) 0 
( 0.0037296 0.0110326 0.00334333 ) 0 
( 0.00119982 0.0124184 0.00398744 ) 0 
( 0.000866507 0.00474431 0.00832931 ) 0 
( 0.00544403 0.00833622 0.00518507 ) 0 
( 0.00563921 0.00883178 0.000499789 ) 0 
( 0.00659124 0.00100978 0.00049985 ) 0 
( 0.00636931 0.00479225 0.00403815 ) 0 
( 0.00262929 0.00595014 0.00131763 ) 0 
( 0.0101961 0.0086181 0.00519596 ) 0 
( 0.0029097 0.0130289 0.00723505 ) 0 
( 0.000869274 0.00626932 0.00607359 ) 0 
( 0.00230387 0.00689542 0.00132986 ) 0 
( 0.012357 0.00505256 0.00267993 ) 0 
( 0.00795088 0.00586673 0.00105517 ) 0 
( 0.0110222 0.00433682 0.00427661 ) 0 
( 0.00915154 0.00849087 0.00267335 ) 0 
( 0.00958738 0.000993796 0.00363698 ) 0 
( 0.0091979 0.00769675 0.00667198 ) 0 
( 0.00313425 0.00342981 0.00570412 ) 0 
( 0.00296555 0.00185557 0.0021072 ) 0 
( 0.00606387 0.00188019 0.00677615 ) 0 
( 0.00997836 0.00886898 0.000499786 ) 0 
( 0.000792284 0.00303509 0.00342651 ) 0 
( 0.00487118 0.0115076 0.00374854 ) 0 