FoamFile
{version 2.0; format ascii;class Cloud<passiveParticle>; location 0;object  positions;}
2496
(
( -0.00234859 0.000122365 0.00185801 ) 0 
( -0.0118252 4.76752e-06 0.00595355 ) 0 
( -0.0124081 0.000660941 0.00322439 ) 0 
( -0.0123459 0.000412442 0.00223761 ) 0 
( -0.00878098 0.000161345 0.0057812 ) 0 
( -0.00849125 7.54657e-05 0.00382076 ) 0 
( -0.00224419 0.000634811 0.00779065 ) 0 
( -0.0031933 0.000155529 0.00132407 ) 0 
( -0.0119539 0.000126267 0.00136333 ) 0 
( -0.00428245 0.000146761 0.00624234 ) 0 
( -0.000294561 6.57666e-05 0.00293761 ) 0 
( -0.0110753 0.000109772 0.00660646 ) 0 
( -0.0133432 0.00042589 0.00213451 ) 0 
( -0.00587233 0.000208612 0.00354524 ) 0 
( -0.00375712 0.000112674 0.000499573 ) 0 
( -0.00830422 0.00030047 0.00270126 ) 0 
( -0.0052537 0.000403494 0.00830526 ) 0 
( -0.00940161 1.05788e-05 0.0131371 ) 0 
( -0.00485599 2.13791e-05 0.0130622 ) 0 
( -0.00561948 5.32305e-06 0.0124173 ) 0 
( -0.0111022 0.0015484 0.0142936 ) 0 
( -0.0113038 0.00333128 0.015077 ) 0 
( -0.00776159 0.000661457 0.0143786 ) 0 
( -0.00667546 0.000240591 0.0146862 ) 0 
( -0.000900532 0.000116174 0.0108415 ) 0 
( -0.00691106 6.68153e-05 0.0132847 ) 0 
( -0.0127656 0.00024857 0.0121857 ) 0 
( -0.0108771 0.000588047 0.014129 ) 0 
( -0.00827595 0.000505792 0.0130749 ) 0 
( -0.00593617 0.000284783 0.0133231 ) 0 
( -0.00235835 7.28316e-05 0.011729 ) 0 
( -0.002857 1.92711e-05 0.00918453 ) 0 
( -0.00910765 0.00100279 0.00161255 ) 0 
( -0.00112463 0.00973079 0.00123716 ) 0 
( -0.00619785 0.0040978 0.00419044 ) 0 
( -0.00543701 0.00373839 0.00717174 ) 0 
( -0.00200392 0.00565444 0.00332389 ) 0 
( -0.00059276 0.0116025 0.00763355 ) 0 
( -0.00113117 0.0120133 0.00149174 ) 0 
( -0.0125174 0.00186868 0.00143878 ) 0 
( -0.00658033 0.00616488 0.00493866 ) 0 
( -0.00263561 0.0108989 0.00743726 ) 0 
( -0.0120546 0.0024951 0.000499624 ) 0 
( -0.00341951 0.00879748 0.00465245 ) 0 
( -0.00996808 0.00260164 0.000499748 ) 0 
( -0.00984285 0.0076391 0.000499657 ) 0 
( -0.0105556 0.00653168 0.00306858 ) 0 
( -0.00728674 0.00434565 0.00213114 ) 0 
( -0.00439167 0.00553825 0.00354639 ) 0 
( -0.00330824 0.00541066 0.00331556 ) 0 
( -0.0109816 0.00570878 0.00119527 ) 0 
( -0.0120773 0.000973778 0.00612498 ) 0 
( -0.00761578 0.00630128 0.00633445 ) 0 
( -0.00260482 0.00166664 0.0056196 ) 0 
( -0.00387656 0.008878 0.00553949 ) 0 
( -0.00527106 0.00435295 0.005038 ) 0 
( -0.00550268 0.00607434 0.00220323 ) 0 
( -0.00672564 0.00932514 0.000499677 ) 0 
( -0.000343572 0.00521471 0.00458182 ) 0 
( -0.0110897 0.00310528 0.000499737 ) 0 
( -0.00111669 0.0104576 0.00334905 ) 0 
( -0.00858294 0.00920712 0.00591206 ) 0 
( -0.00066273 0.00731284 0.00550061 ) 0 
( -0.00634158 0.000459302 0.00203402 ) 0 
( -0.00534245 0.00932691 0.00198343 ) 0 
( -0.0123194 0.0051438 0.00488582 ) 0 
( -0.00165712 0.00501361 0.00123397 ) 0 
( -0.000930444 0.00348357 0.00352684 ) 0 
( -0.0126526 0.00425885 0.000499655 ) 0 
( -0.000833686 0.00779212 0.00394987 ) 0 
( -0.00697185 0.00974539 0.00238228 ) 0 
( -0.00551014 0.00219011 0.00752591 ) 0 
( -0.00330764 0.00943975 0.00614941 ) 0 
( -0.00170668 0.00780667 0.00683554 ) 0 
( -0.0104875 0.00320763 0.00227104 ) 0 
( -0.00363413 0.00614006 0.00512469 ) 0 
( -0.00116532 0.00431458 0.00692176 ) 0 
( -0.00129015 0.00937962 0.00340342 ) 0 
( -0.011117 0.00464409 0.00348209 ) 0 
( -0.00318389 0.00873841 0.000499681 ) 0 
( -0.000560576 0.0126595 0.00398454 ) 0 
( -0.0106358 0.00159231 0.00134755 ) 0 
( -0.00848411 0.00373249 0.00393886 ) 0 
( -0.00897732 0.00799016 0.00591753 ) 0 
( -0.00504095 0.00308053 0.00094959 ) 0 
( -0.00200043 0.00442844 0.000499567 ) 0 
( -0.00167851 0.0104071 0.00420076 ) 0 
( -0.00301115 0.00234795 0.00500998 ) 0 
( -0.00949133 0.000352056 0.00437981 ) 0 
( -0.0037585 0.0103248 0.00603513 ) 0 
( -0.00314552 0.0120596 0.00708524 ) 0 
( -0.00696781 0.00321721 0.00512999 ) 0 
( -0.00800989 0.00456686 0.00365705 ) 0 
( -0.00326922 0.00553158 0.00590142 ) 0 
( -0.0100536 0.00724567 0.00139423 ) 0 
( -0.00163465 0.0013149 0.00292927 ) 0 
( -0.00577947 0.00715614 0.00358551 ) 0 
( -0.00101836 0.00802828 0.00214368 ) 0 
( -0.00581668 0.00135658 0.00705193 ) 0 
( -0.00264971 0.00111582 0.00701038 ) 0 
( -0.000631158 0.00497109 0.00340715 ) 0 
( -0.00384241 0.00980403 0.0051642 ) 0 
( -0.00724345 0.0100247 0.00136562 ) 0 
( -0.00435381 0.0106951 0.00215563 ) 0 
( -0.00534245 0.00841158 0.00509242 ) 0 
( -0.00592926 0.0104502 0.00653578 ) 0 
( -0.0119406 0.00479593 0.00402839 ) 0 
( -0.00497004 0.00285979 0.00192227 ) 0 
( -0.00187633 0.0108106 0.0065087 ) 0 
( -0.00218631 0.00446854 0.00467904 ) 0 
( -0.0055687 0.000603101 0.00141603 ) 0 
( -0.00225546 0.000809679 0.00600058 ) 0 
( -0.00967531 0.00395252 0.00514628 ) 0 
( -0.0104442 0.00308607 0.00127953 ) 0 
( -0.00144185 0.00676294 0.00698825 ) 0 
( -0.00267967 0.00566563 0.00245481 ) 0 
( -0.0079702 0.000484848 0.00732978 ) 0 
( -0.0121346 0.00245129 0.0032622 ) 0 
( -0.00282399 0.0112442 0.00427709 ) 0 
( -0.000602088 0.0104911 0.00665944 ) 0 
( -0.00271743 0.00282371 0.00244148 ) 0 
( -0.00191906 0.00978637 0.00187512 ) 0 
( -0.00441365 0.00576516 0.00687626 ) 0 
( -0.00598678 0.00530741 0.00142953 ) 0 
( -0.00689071 0.00285621 0.00387526 ) 0 
( -0.00685652 0.00122403 0.00742771 ) 0 
( -0.00449189 0.00350562 0.00251763 ) 0 
( -0.0109212 0.00412045 0.00652811 ) 0 
( -0.00895088 0.00588077 0.00406216 ) 0 
( -0.00410753 0.00231922 0.00288902 ) 0 
( -0.00303088 0.00258479 0.006052 ) 0 
( -0.00013199 0.00307878 0.00196112 ) 0 
( -0.00327713 0.00904669 0.00264499 ) 0 
( -0.00668296 0.0115567 0.00552717 ) 0 
( -0.00235055 0.00709291 0.00476919 ) 0 
( -0.00775922 0.00258972 0.00345732 ) 0 
( -0.00337246 0.00326472 0.0048381 ) 0 
( -0.0113759 0.000808855 0.00543189 ) 0 
( -0.00990193 0.00743325 0.00236525 ) 0 
( -0.0112058 0.00431316 0.00450452 ) 0 
( -0.0010107 0.00342698 0.0079198 ) 0 
( -0.00771279 0.00662819 0.00727423 ) 0 
( -0.00167667 0.000818287 0.000499754 ) 0 
( -0.0130484 0.00282142 0.00603324 ) 0 
( -0.00383155 0.00648896 0.00724598 ) 0 
( -0.000958345 0.00163813 0.0048073 ) 0 
( -9.86194e-05 0.00953055 0.00457744 ) 0 
( -0.00240163 0.00899186 0.00432708 ) 0 
( -0.000103339 0.0038725 0.00256875 ) 0 
( -0.0119552 0.00584516 0.00572369 ) 0 
( -0.00792892 0.00752951 0.00689943 ) 0 
( -0.00476904 0.00406452 0.00784029 ) 0 
( -0.0121594 0.00289628 0.00140933 ) 0 
( -0.00450761 0.00346136 0.00612233 ) 0 
( -0.00378874 0.00512889 0.00732936 ) 0 
( -0.0100698 0.00201675 0.00368963 ) 0 
( -0.0106461 0.00529947 0.00585653 ) 0 
( -0.00952406 0.000699877 0.00532118 ) 0 
( -0.00610155 0.00144339 0.00131728 ) 0 
( -0.00325519 0.000809474 0.00384203 ) 0 
( -0.00765399 0.000210414 0.00825223 ) 0 
( -0.0113749 0.00698825 0.00497142 ) 0 
( -0.00337349 0.0108066 0.0035582 ) 0 
( -0.00454283 0.000506543 0.00494632 ) 0 
( -0.00503393 0.00260713 0.00314731 ) 0 
( -0.00887479 0.00627101 0.00304371 ) 0 
( -0.00445403 0.00786203 0.00706204 ) 0 
( -0.00583397 0.000664826 0.00615154 ) 0 
( -0.00556283 0.0079323 0.00206313 ) 0 
( -0.00309566 0.00689734 0.00549394 ) 0 
( -0.0028229 0.00759812 0.00615287 ) 0 
( -0.00128869 0.000380749 0.00764268 ) 0 
( -0.0127943 0.00071563 0.00135058 ) 0 
( -0.00976185 0.00624537 0.00360491 ) 0 
( -0.0119046 0.00109584 0.00160291 ) 0 
( -0.00283542 0.0108222 0.000499796 ) 0 
( -0.0043427 0.00837016 0.00481514 ) 0 
( -0.00834733 0.00455253 0.00252878 ) 0 
( -0.00167991 0.00282874 0.00362797 ) 0 
( -0.00343572 0.0129006 0.00190134 ) 0 
( -0.00368292 0.00839084 0.00741552 ) 0 
( -0.00336605 0.0095077 0.00127561 ) 0 
( -0.00511892 0.0114072 0.0012767 ) 0 
( -0.011345 0.00126307 0.000499624 ) 0 
( -0.00324317 0.00202108 0.00215959 ) 0 
( -0.00530979 0.0102535 0.00577628 ) 0 
( -0.00232865 0.00647781 0.00124772 ) 0 
( -0.00307707 0.000258969 0.00585362 ) 0 
( -0.00968426 0.00817655 0.00305827 ) 0 
( -0.0130742 0.0026999 0.00702505 ) 0 
( -0.0052373 0.00700449 0.00245694 ) 0 
( -0.0079324 0.00546139 0.00132586 ) 0 
( -0.00656044 0.00781774 0.00604854 ) 0 
( -0.00458954 0.00771384 0.00213388 ) 0 
( -0.00597674 0.0119374 0.0032905 ) 0 
( -0.00306466 0.0115623 0.00519397 ) 0 
( -0.00874672 0.00870263 0.00135262 ) 0 
( -0.0104613 0.000871911 0.00501712 ) 0 
( -0.00317627 0.00579731 0.00690776 ) 0 
( -0.00291345 0.00943953 0.0052287 ) 0 
( -0.0109066 0.00117279 0.00352932 ) 0 
( -0.00368515 0.00581907 0.000681836 ) 0 
( -0.00967312 0.00567384 0.000499751 ) 0 
( -0.00216527 0.0122839 0.00248892 ) 0 
( -0.00499316 0.0100823 0.00266736 ) 0 
( -0.00704721 0.00506353 0.00526711 ) 0 
( -0.00603229 0.000901135 0.00791536 ) 0 
( -0.00707998 0.00704409 0.00458067 ) 0 
( -0.00555982 0.00163785 0.000499672 ) 0 
( -0.00383158 0.0107374 0.000499737 ) 0 
( -0.00331928 0.00118241 0.00509316 ) 0 
( -0.00189307 0.00819704 0.00377779 ) 0 
( -6.94738e-05 0.00568628 0.00298509 ) 0 
( -0.0115536 0.00195601 0.00118914 ) 0 
( -0.00482752 0.00165584 0.00562835 ) 0 
( -0.00443019 0.0034605 0.00711929 ) 0 
( -0.00250313 0.0043061 0.00562263 ) 0 
( -0.00980186 0.00247677 0.00458922 ) 0 
( -0.00969497 0.00375717 0.00130903 ) 0 
( -0.00150629 0.0106165 0.00150054 ) 0 
( -0.0013788 0.00899008 0.00630229 ) 0 
( -0.00228051 0.0107223 0.00493444 ) 0 
( -0.00214739 0.00465613 0.00665776 ) 0 
( -0.00383992 0.00412456 0.00201127 ) 0 
( -0.00408993 0.000984447 0.00569878 ) 0 
( -0.00030256 0.00679085 0.0033426 ) 0 
( -0.00747765 0.00458219 0.00117837 ) 0 
( -0.00782452 0.0108165 0.00208787 ) 0 
( -0.00843907 0.00246056 0.00697593 ) 0 
( -0.00720442 0.00208118 0.00645395 ) 0 
( -0.00625072 0.00218493 0.00429591 ) 0 
( -0.00427005 0.00865159 0.00199902 ) 0 
( -0.00812011 0.00370302 0.00203134 ) 0 
( -0.0108881 0.00772529 0.00629735 ) 0 
( -0.00912567 0.00133915 0.00049981 ) 0 
( -0.00561618 0.00376348 0.000499671 ) 0 
( -0.00773334 0.00598771 0.000499571 ) 0 
( -0.0040313 0.0123114 0.00135535 ) 0 
( -0.00309785 0.00465321 0.00634757 ) 0 
( -0.00503766 0.000143612 0.000499802 ) 0 
( -0.0120644 0.0023108 0.00221427 ) 0 
( -0.00488873 0.0111463 0.00406142 ) 0 
( -0.00329884 0.000402447 0.00727406 ) 0 
( -0.0112102 0.00194297 0.00734281 ) 0 
( -0.00205968 0.00386319 0.0080283 ) 0 
( -0.00428613 0.00330847 0.00365106 ) 0 
( -0.00273573 0.0114338 0.00275888 ) 0 
( -0.00138674 0.0132778 0.00182009 ) 0 
( -0.0121463 0.00403221 0.0017877 ) 0 
( -2.3905e-06 0.00296833 0.000499808 ) 0 
( -0.00865768 0.00489841 0.00434278 ) 0 
( -0.000841934 0.00830748 0.0068002 ) 0 
( -0.00292366 0.00676443 0.0069304 ) 0 
( -0.00684249 0.00903943 0.00316565 ) 0 
( -0.00597725 0.00771267 0.00118003 ) 0 
( -6.4099e-05 0.0104925 0.00581679 ) 0 
( -0.00971499 0.00838067 0.0013254 ) 0 
( -0.0097972 0.00164531 0.0051445 ) 0 
( -0.0114647 0.00462336 0.00135692 ) 0 
( -0.00231113 0.0019812 0.00737952 ) 0 
( -0.00166162 0.00639794 0.000499667 ) 0 
( -0.00754085 0.006973 0.000499692 ) 0 
( -0.0030878 0.00956266 0.0071487 ) 0 
( -0.00210098 0.0122561 0.00149131 ) 0 
( -0.0020233 0.0131958 0.00480442 ) 0 
( -0.00558328 0.0121226 0.00549477 ) 0 
( -0.00736518 0.00495964 0.00431337 ) 0 
( -0.00281157 0.0073528 0.00127897 ) 0 
( -0.00430736 0.00585428 0.0058083 ) 0 
( -0.012335 0.00228645 0.00431031 ) 0 
( -0.00444437 0.00297624 0.00459686 ) 0 
( -0.00103329 0.00417425 0.00281002 ) 0 
( -0.00399094 0.00977487 0.00200915 ) 0 
( -0.00622979 0.00155581 0.0086469 ) 0 
( -0.00367615 0.0128343 0.00585757 ) 0 
( -0.00669532 0.00805992 0.00351162 ) 0 
( -0.0013256 0.00277697 0.00132465 ) 0 
( -0.00445617 0.00379054 0.00517701 ) 0 
( -0.00893341 0.00352945 0.00566655 ) 0 
( -0.00482048 0.00546784 0.00777825 ) 0 
( -0.000153286 0.0119937 0.00128304 ) 0 
( -0.00174308 0.00301198 0.00845907 ) 0 
( -0.00371776 0.00295769 0.00210571 ) 0 
( -0.00017731 0.00716401 0.000499665 ) 0 
( -0.000103518 0.00994627 0.00221 ) 0 
( -0.00855533 0.00604046 0.00655517 ) 0 
( -0.00128403 0.00927156 0.00534753 ) 0 
( -0.00583642 0.00247219 0.00532084 ) 0 
( -0.00221017 0.00344636 0.00604073 ) 0 
( -0.0102289 0.00744472 0.00346784 ) 0 
( -7.93568e-05 0.0108252 0.00283295 ) 0 
( -0.00100043 0.00845144 0.00316818 ) 0 
( -0.00508288 0.00509214 0.00181993 ) 0 
( -0.00165001 0.00526096 0.00434713 ) 0 
( -0.00540307 0.0102829 0.00421111 ) 0 
( -0.00139245 0.00591572 0.00510019 ) 0 
( -0.00372968 0.00390892 0.00656411 ) 0 
( -0.00990107 0.00895534 0.00730357 ) 0 
( -0.00137941 0.00752989 0.00308462 ) 0 
( -0.00611543 0.0110865 0.000499723 ) 0 
( -0.0025315 0.00446104 0.00134604 ) 0 
( -0.00713177 0.00611804 0.00410582 ) 0 
( -0.0120105 0.00349333 0.000535455 ) 0 
( -0.0116627 0.0015994 0.00302897 ) 0 
( -0.00637076 0.0102614 0.00447176 ) 0 
( -0.00925422 0.000325188 0.00233488 ) 0 
( -0.00449276 0.00217142 0.0080552 ) 0 
( -0.00279645 0.0130445 0.00418831 ) 0 
( -0.00980306 0.00787767 0.00472743 ) 0 
( -0.000321233 0.00773543 0.00300026 ) 0 
( -0.00733311 0.000123781 0.00170822 ) 0 
( -0.00992958 0.00338288 0.0040734 ) 0 
( -8.1859e-05 0.000530701 0.00189014 ) 0 
( -0.00550014 0.00930179 0.00553674 ) 0 
( -0.00679839 0.00507604 0.00333404 ) 0 
( -0.00362757 0.00450435 0.0010622 ) 0 
( -0.0113135 0.0018396 0.00635393 ) 0 
( -0.00462627 0.00199628 0.000499798 ) 0 
( -0.00011308 0.000542908 0.000499784 ) 0 
( -0.00386079 0.00163133 0.00749948 ) 0 
( -0.000603699 0.00595508 0.0038043 ) 0 
( -0.00721899 0.00778645 0.0052666 ) 0 
( -0.00390259 0.00237368 0.00131539 ) 0 
( -0.00683072 0.00891329 0.00678908 ) 0 
( -0.00702303 0.00829344 0.00442706 ) 0 
( -0.00836096 0.00272207 0.00143826 ) 0 
( -0.00395565 0.00286135 0.00554319 ) 0 
( -0.000779269 0.010198 0.00518317 ) 0 
( -0.0015868 0.0113463 0.00308517 ) 0 
( -0.0133117 0.00101171 0.0059589 ) 0 
( -0.00841851 0.00276686 0.00419044 ) 0 
( -0.00924255 0.00963327 0.00529042 ) 0 
( -0.000253615 0.00728631 0.00458827 ) 0 
( -0.00985651 0.00698738 0.00427537 ) 0 
( -0.00925936 0.0078132 0.00389076 ) 0 
( -0.0117913 0.00626009 0.00145269 ) 0 
( -0.00290437 0.00980622 0.00211087 ) 0 
( -0.0109007 0.00770609 0.000499814 ) 0 
( -0.00342328 0.00637117 0.00287631 ) 0 
( -1.16813e-05 0.00125365 0.00119598 ) 0 
( -0.00474325 0.00446974 0.0058935 ) 0 
( -0.000698039 0.00164383 0.00728922 ) 0 
( -0.0115412 0.00486938 0.00629456 ) 0 
( -0.000566996 0.00503738 0.00235269 ) 0 
( -0.00404665 0.0111379 0.00654068 ) 0 
( -0.00892982 0.00686938 0.0039135 ) 0 
( -0.0126068 0.00360381 0.00559464 ) 0 
( -0.0125314 0.00459489 0.00570365 ) 0 
( -0.0110675 0.00215039 0.00366485 ) 0 
( -0.00739931 0.00171629 0.00399999 ) 0 
( -0.000723298 0.00970351 0.00605572 ) 0 
( -0.00285965 0.0130403 0.000499698 ) 0 
( -0.00673743 0.00603567 0.00719851 ) 0 
( -0.00819044 0.000635088 0.00176468 ) 0 
( -0.0128489 0.00362474 0.0066467 ) 0 
( -0.00806978 0.00762672 0.00227977 ) 0 
( -0.00933485 0.00417183 0.00422752 ) 0 
( -0.00178129 0.0114754 0.00202831 ) 0 
( -0.00999311 0.00885227 0.00484468 ) 0 
( -0.00324695 0.00117765 0.00621018 ) 0 
( -0.012305 0.0019619 0.00632136 ) 0 
( -0.0114807 0.000358341 0.00344625 ) 0 
( -0.000935505 0.00742621 0.00109623 ) 0 
( -0.00690912 0.0104182 0.00633992 ) 0 
( -0.00329976 0.00774529 0.000499721 ) 0 
( -0.0108835 0.0059764 0.0066403 ) 0 
( -0.0067573 0.00441424 0.00049969 ) 0 
( -0.00144791 0.00187379 0.00396605 ) 0 
( -0.00836834 0.00846823 0.00655035 ) 0 
( -0.0100134 0.00372919 0.00607632 ) 0 
( -0.00596064 0.00685149 0.00731177 ) 0 
( -0.0118023 0.00171123 0.00548964 ) 0 
( -0.00127898 0.00657747 0.00337461 ) 0 
( -0.0013087 0.00182217 0.00578114 ) 0 
( -0.00209683 0.00235968 0.00180521 ) 0 
( -0.000454001 0.00965233 0.00049967 ) 0 
( -0.00488858 0.000941727 0.00632574 ) 0 
( -0.0011342 0.00684664 0.00440777 ) 0 
( -0.000868391 0.00686362 0.00245122 ) 0 
( -0.00146751 0.0123947 0.00456697 ) 0 
( -0.00497828 0.011373 0.00681613 ) 0 
( -0.000789589 0.00127933 0.000499684 ) 0 
( -0.0109042 0.00362508 0.00376089 ) 0 
( -0.00195634 0.0116249 0.0073336 ) 0 
( -0.00316387 0.00368968 0.00141645 ) 0 
( -0.00119267 0.00973562 0.00694184 ) 0 
( -0.00949564 0.00431146 0.000499704 ) 0 
( -0.0102004 0.00701839 0.00524188 ) 0 
( -0.000590744 0.00431619 0.00774001 ) 0 
( -0.0119126 0.00328118 0.00240525 ) 0 
( -0.00873279 0.00601348 0.00049965 ) 0 
( -0.00873688 0.00120977 0.00251789 ) 0 
( -0.00176871 0.0115172 0.00419067 ) 0 
( -0.00653662 0.00703986 0.00542075 ) 0 
( -0.0110221 0.000667225 0.00141009 ) 0 
( -0.0108518 0.00213419 0.000499913 ) 0 
( -0.00263564 0.00531548 0.00760477 ) 0 
( -0.00410963 0.0113099 0.00140569 ) 0 
( -0.00941424 0.00629815 0.00484899 ) 0 
( -0.00190443 0.00622448 0.00426367 ) 0 
( -0.00484175 0.00772133 0.00615114 ) 0 
( -0.0041698 0.00288597 0.000499547 ) 0 
( -0.0095944 0.00667063 0.000499776 ) 0 
( -0.00544056 0.0022316 0.00129526 ) 0 
( -0.00635387 0.00532917 0.000499756 ) 0 
( -0.00275431 0.00523632 0.00497551 ) 0 
( -0.00633919 0.00410722 0.00739422 ) 0 
( -0.00235801 0.00616993 0.00515378 ) 0 
( -0.0106222 0.00184126 0.0045992 ) 0 
( -0.00183271 0.00417485 0.00200159 ) 0 
( -0.0035232 0.00665283 0.00133691 ) 0 
( -0.00701258 0.00294002 0.00274108 ) 0 
( -0.00382098 0.00414498 0.00753152 ) 0 
( -0.00811167 0.0105989 0.00503856 ) 0 
( -0.000671484 0.0111401 0.0013314 ) 0 
( -0.00753061 0.00812558 0.000499632 ) 0 
( -0.003097 0.00224092 0.00320914 ) 0 
( -0.000399765 0.00570768 0.00643203 ) 0 
( -0.00106257 0.00353716 0.0019914 ) 0 
( -0.00354789 0.0104791 0.0014276 ) 0 
( -0.00430146 0.00678582 0.00469573 ) 0 
( -0.00561726 0.00459217 0.00788704 ) 0 
( -0.0109214 0.00542928 0.00286004 ) 0 
( -0.0125066 0.00466334 0.00670082 ) 0 
( -0.0112747 0.0016835 0.00211123 ) 0 
( -0.0105939 0.00261696 0.0053077 ) 0 
( -0.00466168 0.0045407 0.0069677 ) 0 
( -0.0046594 0.0086926 0.0035683 ) 0 
( -0.00104611 0.0121532 0.00247816 ) 0 
( -0.0130951 0.0025979 0.00180456 ) 0 
( -0.00922315 0.00185062 0.00312421 ) 0 
( -0.00454235 0.0021592 0.00393936 ) 0 
( -0.00457138 0.00935572 0.00131113 ) 0 
( -0.0099791 0.00213289 0.00707475 ) 0 
( -0.0103923 3.8555e-05 0.00265106 ) 0 
( -0.00742565 0.00578671 0.0078793 ) 0 
( -0.000348018 0.0124649 0.0071905 ) 0 
( -0.0015949 0.00195166 0.00808451 ) 0 
( -0.00767419 0.00377124 0.00305196 ) 0 
( -0.00228814 0.00178507 0.000499667 ) 0 
( -0.00804624 0.00484749 0.00513229 ) 0 
( -0.00317576 0.00274241 0.000499806 ) 0 
( -0.00859289 0.00177179 0.00123101 ) 0 
( -0.0107077 0.00166138 0.00557902 ) 0 
( -0.00563771 0.00107602 0.00310529 ) 0 
( -0.00828838 0.00402628 0.00624668 ) 0 
( -0.00743963 0.00893434 0.00108027 ) 0 
( -0.00272457 0.00383213 0.00230359 ) 0 
( -0.00217229 0.0027333 0.000794584 ) 0 
( -0.00481353 0.00754744 0.00513311 ) 0 
( -0.00928201 0.00661732 0.00149072 ) 0 
( -0.00667677 0.0014512 0.000499601 ) 0 
( -0.00165334 0.0103805 0.00563418 ) 0 
( -0.00972181 0.00497473 0.00121288 ) 0 
( -0.00749006 0.00041943 0.0033181 ) 0 
( -0.0129004 0.0033969 0.00772047 ) 0 
( -0.000374148 0.00295264 0.00630352 ) 0 
( -0.00555769 0.00442273 0.00124891 ) 0 
( -0.00639659 0.00359851 0.00325632 ) 0 
( -0.00360106 0.00728679 0.00228546 ) 0 
( -0.000913912 0.00445782 0.0016154 ) 0 
( -0.0104492 0.00285907 0.00330691 ) 0 
( -0.00570298 0.00788315 0.00689228 ) 0 
( -0.00234551 0.00276534 0.00676016 ) 0 
( -0.0113912 0.000721224 0.00237609 ) 0 
( -0.00929546 0.00550141 0.0057472 ) 0 
( -0.00683572 0.0114674 0.00754512 ) 0 
( -0.00400225 0.00865826 0.00650669 ) 0 
( -0.000495352 0.00263796 0.00758582 ) 0 
( -0.000732236 0.00634352 0.00573563 ) 0 
( -0.000443494 0.00367027 0.00121756 ) 0 
( -0.00511838 0.00678168 0.00594929 ) 0 
( -0.000290266 0.00639344 0.00715132 ) 0 
( -0.0046274 0.00690991 0.0068108 ) 0 
( -0.00591527 0.00867881 0.00148171 ) 0 
( -0.00621119 0.009923 0.00323879 ) 0 
( -0.000536295 0.00869574 0.00491124 ) 0 
( -0.00959156 0.00180514 0.00126359 ) 0 
( -0.00055435 0.00599512 0.0020655 ) 0 
( -0.00127076 0.00907175 0.000499695 ) 0 
( -6.72331e-05 0.00197044 0.000499794 ) 0 
( -0.00109418 0.00265137 0.00245444 ) 0 
( -0.005393 0.00466582 0.00401864 ) 0 
( -0.000929172 0.0110248 0.00587974 ) 0 
( -0.0024323 0.00296181 0.00773664 ) 0 
( -0.00702029 0.011355 0.004605 ) 0 
( -0.00581002 0.00148284 0.00554121 ) 0 
( -0.000342686 0.0111022 0.00507386 ) 0 
( -0.00681103 0.0114819 0.00144486 ) 0 
( -0.000683803 0.012348 0.00625627 ) 0 
( -0.00876456 0.00124872 0.00566995 ) 0 
( -0.0102983 0.00843709 0.00393126 ) 0 
( -0.00441093 0.00661199 0.00295124 ) 0 
( -0.00865917 0.00565861 0.00499223 ) 0 
( -0.0123848 0.000387359 0.000499664 ) 0 
( -0.00700139 0.0041556 0.00478384 ) 0 
( -0.00883222 0.00503602 0.000684654 ) 0 
( -0.00587519 0.00897563 0.00707612 ) 0 
( -0.00423017 0.001031 0.00049956 ) 0 
( -0.00930839 0.00829489 0.00684318 ) 0 
( -0.0007084 0.0106401 0.00426617 ) 0 
( -0.000311422 0.00286559 0.00303879 ) 0 
( -0.00455336 0.00383006 0.000499783 ) 0 
( -0.00597445 0.0110957 0.00408883 ) 0 
( -0.00796018 0.0100955 0.00345088 ) 0 
( -0.00744783 0.00262557 0.00725653 ) 0 
( -0.00997657 0.00887088 0.00215671 ) 0 
( -6.49399e-05 0.00356112 0.00821511 ) 0 
( -0.00116935 0.00170788 0.00213191 ) 0 
( -0.0047781 0.0124657 0.000499807 ) 0 
( -0.0100913 0.00607997 0.00556916 ) 0 
( -0.00774588 0.0108451 0.00109145 ) 0 
( -0.00772627 0.00166716 0.00719958 ) 0 
( -0.00318544 0.00464167 0.00812381 ) 0 
( -0.00208823 0.00369042 0.00704388 ) 0 
( -0.0124704 0.0025351 0.00526927 ) 0 
( -0.00988346 0.00584208 0.00168343 ) 0 
( -0.00220185 0.00720481 0.00746379 ) 0 
( -0.00712572 0.00436789 0.00683467 ) 0 
( -0.00699916 0.000515201 0.00514558 ) 0 
( -0.00197018 0.0101005 0.00285444 ) 0 
( -0.0083999 0.00187372 0.00373453 ) 0 
( -0.00427323 0.00928757 0.00442375 ) 0 
( -0.0032313 0.0121557 0.0043332 ) 0 
( -0.00844201 0.0046204 0.00150615 ) 0 
( -0.00962441 0.00158574 0.00223935 ) 0 
( -0.00717461 0.00101476 0.00213363 ) 0 
( -0.00461548 0.0120843 0.00581475 ) 0 
( -0.0114481 0.00686798 0.000499682 ) 0 
( -0.00685628 0.00697747 0.00688547 ) 0 
( -0.000177658 0.00783829 0.00619936 ) 0 
( -0.0018145 0.000953052 0.00201447 ) 0 
( -0.0101269 0.00144582 0.000499564 ) 0 
( -0.00803079 0.00942754 0.00171806 ) 0 
( -0.00820699 0.00308525 0.00514103 ) 0 
( -0.00823421 0.00708887 0.00312043 ) 0 
( -0.00900832 0.00868795 0.00505726 ) 0 
( -0.00428042 0.0126447 0.00258472 ) 0 
( -0.00861897 0.00055721 0.000862683 ) 0 
( -0.00712047 0.00293412 0.000499672 ) 0 
( -0.00568693 0.00759252 0.00561759 ) 0 
( -0.00740106 0.00725694 0.0060951 ) 0 
( -0.004015 0.0118395 0.00505386 ) 0 
( -0.00537948 0.00508009 0.0004998 ) 0 
( -0.00548924 0.00518376 0.00709134 ) 0 
( -0.00432485 0.0092532 0.00279634 ) 0 
( -0.00952653 0.00293432 0.00746504 ) 0 
( -0.00038859 0.00717899 0.00804684 ) 0 
( -0.000891399 0.00434386 0.000499809 ) 0 
( -0.000933066 0.000988107 0.00147927 ) 0 
( -0.00949905 0.00504788 0.00487957 ) 0 
( -0.00163972 0.00607298 0.0060567 ) 0 
( -0.00697383 0.00534399 0.00158498 ) 0 
( -0.00911067 0.00755026 0.00117476 ) 0 
( -2.7975e-05 0.00685029 0.00623333 ) 0 
( -0.00766844 0.00918427 0.00631541 ) 0 
( -0.00577083 0.00491465 0.00569765 ) 0 
( -0.0080573 0.00096396 0.00396949 ) 0 
( -0.00289486 0.0130314 0.00526585 ) 0 
( -0.000574875 0.00255879 0.00493041 ) 0 
( -0.00466843 0.00581093 0.000499719 ) 0 
( -0.0100286 0.000800965 0.00127928 ) 0 
( -0.00363647 0.00185303 0.000499798 ) 0 
( -0.00591122 0.00126842 0.00450711 ) 0 
( -0.00632194 0.000491353 0.00700677 ) 0 
( -0.00038797 0.00147044 0.00561311 ) 0 
( -0.00490477 0.00131288 0.00118149 ) 0 
( -0.00818683 0.00925554 0.00716778 ) 0 
( -0.00861008 0.00344539 0.00699396 ) 0 
( -0.00834201 0.00551067 0.00224147 ) 0 
( -0.0116579 0.00155271 0.00422115 ) 0 
( -0.00664781 0.00494966 0.00617674 ) 0 
( -0.00869171 0.00648518 0.00744002 ) 0 
( -0.00541772 0.0122013 0.00241911 ) 0 
( -0.00458829 0.00193588 0.00189665 ) 0 
( -0.00494884 0.00980372 0.000500807 ) 0 
( -0.010773 0.00434597 0.00556544 ) 0 
( -0.00153072 0.00274479 0.00470321 ) 0 
( -0.0031132 0.000982611 0.00188031 ) 0 
( -0.00730665 0.00625993 0.0013616 ) 0 
( -0.00681275 0.00890834 0.00185882 ) 0 
( -0.0089423 0.00989612 0.00344495 ) 0 
( -0.0095903 0.00109569 0.00729863 ) 0 
( -0.0124614 0.00133175 0.00484062 ) 0 
( -0.0044022 0.00482132 0.000499732 ) 0 
( -0.00637885 4.92223e-05 0.00439345 ) 0 
( -0.00496482 0.0115251 0.00498382 ) 0 
( -3.37395e-05 0.00928397 0.00664946 ) 0 
( -0.00391947 0.00393908 0.00434181 ) 0 
( -0.00767025 0.005735 0.0048662 ) 0 
( -0.0111749 0.000958582 0.00751091 ) 0 
( -0.000784428 0.00344415 0.00451529 ) 0 
( -0.00123373 0.00578535 0.00700176 ) 0 
( -0.0124185 0.00139555 0.00240662 ) 0 
( -0.00913417 0.00322069 0.00473225 ) 0 
( -0.00528412 0.00196946 0.00646853 ) 0 
( -0.00597439 0.0109298 0.00147707 ) 0 
( -0.00863504 0.00207315 0.00487732 ) 0 
( -0.0106192 0.000575563 0.000499671 ) 0 
( -0.00478925 0.0111015 0.00587236 ) 0 
( -0.00735646 0.00837317 0.00256514 ) 0 
( -0.0103045 0.00436125 0.00407441 ) 0 
( -0.00331869 0.0105995 0.00485972 ) 0 
( -0.00243127 0.00252846 0.00421551 ) 0 
( -0.0080832 0.00131929 0.000499565 ) 0 
( -0.00287309 0.00742209 0.00379748 ) 0 
( -0.00287075 0.0107483 0.0057412 ) 0 
( -0.00106024 0.00230016 0.00662515 ) 0 
( -0.0067484 0.00691456 0.00363838 ) 0 
( -0.010566 0.00815983 0.00254093 ) 0 
( -0.00797557 0.00159772 0.00199801 ) 0 
( -0.00983103 0.00359482 0.00297688 ) 0 
( -0.00625272 0.003403 0.00644469 ) 0 
( -0.0132894 0.000956651 0.00388602 ) 0 
( -0.00190066 0.0072012 0.0038722 ) 0 
( -0.00341238 0.0104892 0.00696001 ) 0 
( -0.00467124 0.000732499 0.00211745 ) 0 
( -0.00742955 0.0065574 0.00538134 ) 0 
( -0.00927085 0.00169019 0.00419463 ) 0 
( -0.0133483 0.000215041 0.00321758 ) 0 
( -0.00358449 0.000223734 0.00498367 ) 0 
( -0.00249893 0.00490746 0.00376765 ) 0 
( -0.00653166 0.00444896 0.00147314 ) 0 
( -0.00638951 0.00935745 0.00404467 ) 0 
( -9.6153e-05 0.00103105 0.00310663 ) 0 
( -0.0123304 0.0051176 0.000897579 ) 0 
( -0.00133991 0.00857441 0.00136669 ) 0 
( -0.00162164 0.00126104 0.0073058 ) 0 
( -0.00993214 0.00556944 0.0028076 ) 0 
( -0.00262862 0.00020095 0.000499802 ) 0 
( -0.00224422 0.00488815 0.00841945 ) 0 
( -0.0128627 0.00357457 0.00119758 ) 0 
( -0.010495 0.000280355 0.0037416 ) 0 
( -0.0074428 0.00248729 0.00463523 ) 0 
( -0.0129314 0.00329889 0.00441839 ) 0 
( -0.0077712 0.0108534 0.00413218 ) 0 
( -0.00238849 0.000876088 0.00119935 ) 0 
( -0.000483856 0.00618468 0.00478019 ) 0 
( -0.00639068 0.00497947 0.002311 ) 0 
( -0.00274727 0.00557277 0.00132096 ) 0 
( -0.00164952 0.00378915 0.00415086 ) 0 
( -0.00819073 0.00174927 0.00631786 ) 0 
( -0.00854094 0.00699455 0.00050984 ) 0 
( -0.00295277 0.00173871 0.00124523 ) 0 
( -0.00404492 0.00118455 0.00440516 ) 0 
( -0.00604708 0.00871647 0.00247277 ) 0 
( -0.00250306 0.00060883 0.005024 ) 0 
( -0.00194926 0.00225459 0.00279529 ) 0 
( -0.00139888 0.00808012 0.000498922 ) 0 
( -0.00315847 0.00432376 0.00486554 ) 0 
( -0.000475452 0.00520226 0.00729191 ) 0 
( -0.00501603 0.012372 0.00151733 ) 0 
( -0.00386859 0.00822071 0.00283059 ) 0 
( -0.00495655 0.00153581 0.00464382 ) 0 
( -0.00762868 0.000467268 0.000758293 ) 0 
( -0.00699614 0.0103882 0.00370149 ) 0 
( -0.00322912 0.00490909 0.00190492 ) 0 
( -0.0114136 0.00513515 0.000499625 ) 0 
( -0.000428127 0.0133432 0.00211832 ) 0 
( -0.000659633 0.0128667 0.00127025 ) 0 
( -0.0104269 0.00677871 0.00625619 ) 0 
( -0.00275499 0.00471828 0.00276599 ) 0 
( -0.00564664 0.00683816 0.00153461 ) 0 
( -0.0116509 0.00465187 0.00263245 ) 0 
( -0.00943748 0.00279108 0.00132585 ) 0 
( -0.00618236 0.00670126 0.00258358 ) 0 
( -0.00395081 0.00974402 0.000499791 ) 0 
( -0.00356264 0.00368039 0.000499666 ) 0 
( -0.0105495 0.00510317 0.00186344 ) 0 
( -0.00736479 0.00913833 0.00401565 ) 0 
( -0.0102525 0.00855095 0.00049983 ) 0 
( -0.00435673 0.00677634 0.0018754 ) 0 
( -0.00287014 0.00427964 0.00724676 ) 0 
( -0.00761528 0.00473659 0.00604129 ) 0 
( -0.00528219 0.00794348 0.000499707 ) 0 
( -0.000142912 0.0109723 0.000499619 ) 0 
( -0.00387773 0.0117937 0.00352032 ) 0 
( -0.012612 0.00437722 0.00265957 ) 0 
( -0.00296453 0.00775754 0.0071295 ) 0 
( -0.00189749 0.00782097 0.00171475 ) 0 
( -0.00625646 0.00954426 0.00626813 ) 0 
( -0.00492374 0.00526081 0.00527235 ) 0 
( -0.0034044 0.00251335 0.00763912 ) 0 
( -0.00708932 0.0113125 0.000499614 ) 0 
( -0.00115389 0.00287413 0.00568247 ) 0 
( -0.00210543 0.0123837 0.000499708 ) 0 
( -0.0127472 0.000242732 0.00625785 ) 0 
( -0.00570824 0.00348872 0.00157221 ) 0 
( -0.00480519 0.00105194 0.00376926 ) 0 
( -0.00259798 0.00642049 0.00356934 ) 0 
( -0.00685569 0.0103404 0.000499759 ) 0 
( -0.0101948 0.0023204 0.0018722 ) 0 
( -0.00603549 0.00693687 0.0063161 ) 0 
( -0.0054687 0.000244363 0.00247209 ) 0 
( -0.0122775 0.00524274 0.00319968 ) 0 
( -0.00679838 0.00227591 0.00550997 ) 0 
( -0.00111101 9.71244e-05 0.00655644 ) 0 
( -0.00762848 0.00350398 0.00681431 ) 0 
( -0.00391777 0.00640982 0.00385166 ) 0 
( -0.00473802 0.0104199 0.00661877 ) 0 
( -0.000211009 0.00745917 0.00198803 ) 0 
( -0.00827568 0.0086039 0.00222944 ) 0 
( -0.00604227 0.00843109 0.00419839 ) 0 
( -0.0029782 0.00661234 0.000499668 ) 0 
( -0.00683604 0.0106712 0.00202971 ) 0 
( -0.00794063 0.00394308 0.00771764 ) 0 
( -0.0013704 0.00221358 0.000499744 ) 0 
( -0.00303558 0.00508102 0.000499628 ) 0 
( -0.0069032 0.00397334 0.00594322 ) 0 
( -0.00885022 0.00508535 0.00653977 ) 0 
( -0.00520507 0.0050718 0.00283942 ) 0 
( -0.00379505 0.000250721 0.00211698 ) 0 
( -0.00207733 0.0123094 0.00661495 ) 0 
( -0.0022057 0.00333452 0.00160853 ) 0 
( -0.00429966 0.00775835 0.000499576 ) 0 
( -0.0066517 0.0115749 0.00652641 ) 0 
( -0.00711303 0.00414526 0.00379028 ) 0 
( -0.00928434 0.0057164 0.00720113 ) 0 
( -0.00482798 0.00599333 0.0014697 ) 0 
( -0.00193435 0.00642457 0.00258942 ) 0 
( -0.00376767 0.00433246 0.00565868 ) 0 
( -0.000971056 0.00321658 0.000499638 ) 0 
( -0.00495331 0.00989619 0.00744283 ) 0 
( -0.00409115 0.000614855 0.00311037 ) 0 
( -0.00615767 0.00241713 0.00627044 ) 0 
( -0.00452421 0.00964647 0.00589533 ) 0 
( -0.00535577 0.000448862 0.00436704 ) 0 
( -0.00236877 0.00819886 0.000707114 ) 0 
( -0.00595851 0.000519564 0.00516959 ) 0 
( -0.00378734 0.0127946 0.00486472 ) 0 
( -0.000743783 0.00195832 0.0012359 ) 0 
( -0.0107081 0.00280976 0.004329 ) 0 
( -0.00301474 0.0083712 0.00554855 ) 0 
( -0.00156002 0.000106731 0.00248361 ) 0 