FoamFile
{version 2.0; format ascii;class Cloud<passiveParticle>; location 0;object  positions;}
2495
(
( -0.0108903 -0.00401541 0.00049984 ) 0 
( -0.0050639 -0.001145 0.00100111 ) 0 
( -0.00678285 -0.00689666 0.00294814 ) 0 
( -0.000973868 -0.00188676 0.00280926 ) 0 
( -0.0130652 -0.00247452 0.000499569 ) 0 
( -0.00938785 -0.0044539 0.000499302 ) 0 
( -0.00304997 -0.00787048 0.00118849 ) 0 
( -0.000107163 -0.00571899 0.00457412 ) 0 
( -0.00875887 -0.00184424 0.00536023 ) 0 
( -0.0093653 -0.00378761 0.00149989 ) 0 
( -0.00913832 -0.00626593 0.00271684 ) 0 
( -0.00625728 -0.00313454 0.00271072 ) 0 
( -0.0106377 -0.00701127 0.00325194 ) 0 
( -0.00904311 -0.00167195 0.00643004 ) 0 
( -0.0039157 -0.0046179 0.0045905 ) 0 
( -0.00229441 -0.00784274 0.00670466 ) 0 
( -0.00221324 -0.00582527 0.00717079 ) 0 
( -0.00535947 -0.00777618 0.007178 ) 0 
( -0.0025625 -0.00855963 0.0017413 ) 0 
( -0.00915381 -0.00239564 0.0039103 ) 0 
( -0.00211752 -0.00249472 0.000499796 ) 0 
( -0.00428583 -0.00831844 0.00468107 ) 0 
( -0.00418019 -0.000693083 0.00088761 ) 0 
( -0.00131646 -0.00783938 0.000499716 ) 0 
( -0.000528097 -0.00210616 0.00126272 ) 0 
( -0.00973575 -0.00788395 0.00514218 ) 0 
( -0.0086768 -0.00528133 0.000498522 ) 0 
( -0.00945295 -0.00707205 0.00672266 ) 0 
( -0.0098445 -0.00465466 0.0013651 ) 0 
( -0.0131261 -0.00242326 0.00247809 ) 0 
( -0.0060125 -0.00187697 0.000499773 ) 0 
( -0.00407932 -0.0119003 0.00532853 ) 0 
( -0.00204801 -0.0115061 0.00280211 ) 0 
( -0.00227841 -0.00678193 0.00442652 ) 0 
( -0.00069265 -0.0130239 0.00466781 ) 0 
( -0.00131142 -0.00632341 0.00684443 ) 0 
( -0.00507859 -0.0098869 0.00268893 ) 0 
( -0.00664701 -0.000351483 0.00647632 ) 0 
( -0.00336089 -0.0047254 0.00693354 ) 0 
( -0.00405038 -0.00639673 0.000499509 ) 0 
( -0.0101369 -0.00181617 0.00303669 ) 0 
( -0.0116472 -0.00115217 0.000790074 ) 0 
( -0.000786946 -0.00963556 0.00229472 ) 0 
( -0.00780076 -0.00347078 0.00209198 ) 0 
( -0.00107022 -0.00324532 0.00528988 ) 0 
( -0.00138564 -0.00829329 0.00360486 ) 0 
( -0.00836875 -0.00201847 0.0044009 ) 0 
( -0.00125353 -0.00233034 0.00377208 ) 0 
( -0.00683539 -0.00963009 0.00481665 ) 0 
( -0.000788294 -0.00384977 0.00279138 ) 0 
( -0.00728771 -0.00463741 0.000499422 ) 0 
( -0.00463737 -0.00639101 0.00575929 ) 0 
( -0.0013252 -0.0101258 0.00160972 ) 0 
( -0.00667827 -0.00106346 0.000499151 ) 0 
( -0.0112259 -0.00377541 0.00626997 ) 0 
( -0.00401514 -0.00568898 0.00124241 ) 0 
( -0.0120941 -0.00564072 0.00595496 ) 0 
( -0.00208806 -0.0107196 0.00186378 ) 0 
( -0.00622386 -0.00934601 0.00125802 ) 0 
( -0.00326112 -0.000748599 0.00049908 ) 0 
( -2.87153e-05 -0.0118524 0.004896 ) 0 
( -0.00455875 -0.0100549 0.00109136 ) 0 
( -0.0021682 -0.00976304 0.00447247 ) 0 
( -0.00913201 -0.00564464 0.00350032 ) 0 
( -0.00613705 -0.0118557 0.00501641 ) 0 
( -0.00291732 -0.00389095 0.00294527 ) 0 
( -0.00445678 -0.0125854 0.00594948 ) 0 
( -0.00870799 -0.00665779 0.00352953 ) 0 
( -0.000677575 -0.0119454 0.0016781 ) 0 
( -0.00762241 -0.00499787 0.00431805 ) 0 
( -0.00559063 -0.00220229 0.00735477 ) 0 
( -0.00726503 -0.0111964 0.00363878 ) 0 
( -0.0121924 -0.00267674 0.00221744 ) 0 
( -0.00683438 -0.010974 0.00227219 ) 0 
( -0.0033401 -0.00655186 0.00280783 ) 0 
( -0.00532947 -0.00155731 0.00330719 ) 0 
( -0.00556082 -0.00289818 0.00196536 ) 0 
( -0.0117368 -0.00636295 0.00220693 ) 0 
( -0.00257328 -0.00496657 0.0005 ) 0 
( -0.00288889 -0.00336919 0.00209261 ) 0 
( -0.00217168 -0.0122965 0.00532785 ) 0 
( -0.00821426 -0.00156151 0.003525 ) 0 
( -0.0125416 -0.00455203 0.00214622 ) 0 
( -0.0030194 -0.00623267 0.00404192 ) 0 
( -0.00490365 -0.00121821 0.00505087 ) 0 
( -0.00485571 -0.00863763 0.00650569 ) 0 
( -0.00853087 -0.00300869 0.00259349 ) 0 
( -0.0103603 -0.00481063 0.00324238 ) 0 
( -0.000110539 -0.0032268 0.00318245 ) 0 
( -0.00953242 -0.00267552 0.000499798 ) 0 
( -0.00425878 -0.0051629 0.00697953 ) 0 
( -0.00452039 -0.00953101 0.00194074 ) 0 
( -0.00189935 -0.000383364 0.00735329 ) 0 
( -0.00141565 -0.00938493 0.0067764 ) 0 
( -0.0124288 -0.00170343 0.000499132 ) 0 
( -0.00465828 -0.0105081 0.00460755 ) 0 
( -0.00290843 -0.0130297 0.00291326 ) 0 
( -0.000251952 -0.00199715 0.00813348 ) 0 
( -0.00477979 -0.00164617 0.00753129 ) 0 
( -0.00494944 -0.00578938 0.0076665 ) 0 
( -0.00384499 -0.00265848 0.00717592 ) 0 
( -0.0105541 -0.00475201 0.00666789 ) 0 
( -0.0112075 -0.00556712 0.00183073 ) 0 
( -0.00262493 -0.00424261 0.00437863 ) 0 
( -0.00282647 -0.0130474 0.00684456 ) 0 
( -0.00972803 -0.00667106 0.0034899 ) 0 
( -0.00751602 -0.00512118 0.00604199 ) 0 
( -0.00204123 -0.00354223 0.00396692 ) 0 
( -0.00670351 -0.00582804 0.0058831 ) 0 
( -0.00667018 -0.00656095 0.00661921 ) 0 
( -0.00150627 -0.0017565 0.00525959 ) 0 
( -0.00940193 -0.005522 0.00114104 ) 0 
( -0.00704489 -0.0104815 0.0012827 ) 0 
( -0.00990751 -0.000844552 0.00297713 ) 0 
( -0.00948474 -0.00496905 0.00528966 ) 0 
( -0.00247043 -0.0113895 0.00696079 ) 0 
( -0.0101368 -0.00251356 0.00376652 ) 0 
( -0.0040416 -0.00359634 0.000499402 ) 0 
( -0.00217657 -0.00894823 0.00629804 ) 0 
( -0.00131647 -0.0114439 0.00348023 ) 0 
( -0.00900859 -0.00742018 0.00114283 ) 0 
( -0.00437884 -0.00605429 0.00288832 ) 0 
( -0.0104273 -0.0051655 0.00230988 ) 0 
( -0.00695812 -0.00838686 0.00121535 ) 0 
( -0.00544009 -0.00662699 0.00731183 ) 0 
( -0.0107794 -0.00787588 0.00662881 ) 0 
( -0.0119564 -0.00268797 0.00657226 ) 0 
( -0.0034187 -0.00931628 0.00540917 ) 0 
( -0.00195822 -0.0132061 0.00318581 ) 0 
( -0.00939762 -0.00156728 0.00241224 ) 0 
( -0.00611232 -0.0072422 0.0046631 ) 0 
( -0.00541756 -0.00672377 0.00398518 ) 0 
( -0.00267007 -0.0121797 0.00240475 ) 0 
( -0.000966459 -0.00511155 0.000499522 ) 0 
( -0.00959911 -0.00066149 0.00204401 ) 0 
( -0.00225331 -0.00609055 0.000498977 ) 0 
( -0.00750429 -0.00449017 0.00525319 ) 0 
( -0.00395901 -0.00661935 0.00360055 ) 0 
( -0.0109625 -0.00588011 0.00355403 ) 0 
( -0.0104038 -0.00319467 0.00549323 ) 0 
( -0.00816801 -0.00262805 0.00516731 ) 0 
( -0.0132704 -0.00146041 0.0019255 ) 0 
( -0.00473797 -0.00619425 0.00674682 ) 0 
( -0.00964844 -0.000928617 0.00614816 ) 0 
( -0.00178161 -0.000342294 0.000499421 ) 0 
( -0.00958384 -0.00327778 0.00409902 ) 0 
( -0.000669029 -0.00476731 0.00757736 ) 0 
( -0.00896692 -0.00288101 0.00136252 ) 0 
( -0.00125885 -0.00882493 0.00592113 ) 0 
( -0.00140024 -0.00259475 0.00127149 ) 0 
( -0.00769931 -0.000979896 0.000499798 ) 0 
( -0.00188161 -0.0040636 0.00312939 ) 0 
( -0.00467176 -0.0125054 0.00369614 ) 0 
( -0.00273725 -0.00503135 0.00206189 ) 0 
( -0.00984148 -0.00340586 0.00231755 ) 0 
( -0.00541861 -0.000674003 0.00284919 ) 0 
( -0.00315895 -0.000708936 0.00552444 ) 0 
( -0.0049083 -0.000122229 0.00352295 ) 0 
( -0.00628982 -0.00348004 0.0067795 ) 0 
( -0.00111971 -0.0115643 0.000499774 ) 0 
( -0.00440774 -0.0108665 0.00581012 ) 0 
( -0.00514586 -0.00728435 0.00494327 ) 0 
( -0.00107758 -0.00210478 0.00734356 ) 0 
( -0.00969117 -0.00148674 0.00531906 ) 0 
( -0.0113828 -0.00200939 0.00610855 ) 0 
( -0.00380119 -0.0127974 0.00329861 ) 0 
( -0.00473749 -0.00600972 0.00382074 ) 0 
( -0.00321237 -0.0103848 0.00127067 ) 0 
( -0.00362108 -0.0128496 0.00428053 ) 0 
( -0.00467136 -0.00599443 0.00193219 ) 0 
( -0.010365 -0.00527862 0.007496 ) 0 
( -0.0057097 -0.00753408 0.00283614 ) 0 
( -0.00491959 -0.0117017 0.00601086 ) 0 
( -0.00578149 -0.0108867 0.000499548 ) 0 
( -0.0112743 -0.00267823 0.00398886 ) 0 
( -0.0103221 -0.00674805 0.00512629 ) 0 
( -0.00934099 -0.00810826 0.000499001 ) 0 
( -0.0019855 -0.00635626 0.00799134 ) 0 
( -0.00298285 -0.00205909 0.00708012 ) 0 
( -0.0103611 -0.00382581 0.0015748 ) 0 
( -0.00623225 -0.00553674 0.00504848 ) 0 
( -0.0100613 -0.00114203 0.0012224 ) 0 
( -0.00320354 -0.00107954 0.00344295 ) 0 
( -0.00555831 -0.0111478 0.00314116 ) 0 
( -0.0069513 -0.00221561 0.00341775 ) 0 
( -0.011517 -0.00459345 0.00496911 ) 0 
( -0.0133166 -0.00095424 0.00446459 ) 0 
( -0.00173414 -0.0103486 0.00357942 ) 0 
( -0.00621324 -0.00393233 0.00331108 ) 0 
( -0.0109706 -0.00434636 0.0041696 ) 0 
( -0.00801099 -0.00785769 0.00702368 ) 0 
( -0.00321085 -0.0087517 0.000499774 ) 0 
( -0.00785923 -0.00454114 0.00131358 ) 0 
( -0.00669309 -0.0114583 0.00574637 ) 0 
( -0.00605636 -0.00288487 0.000499797 ) 0 
( -4.12817e-05 -0.00636889 0.00294506 ) 0 
( -0.00102715 -0.00580992 0.00590372 ) 0 
( -0.0046879 -0.0116358 0.00308957 ) 0 
( -0.00390217 -0.00166815 0.00705339 ) 0 
( -0.00896822 -0.00914432 0.00462824 ) 0 
( -0.0127444 -0.00397626 0.00135538 ) 0 
( -0.00993738 -0.00891478 0.00454865 ) 0 
( -0.000912774 -0.00130728 0.00842707 ) 0 
( -0.00182773 -0.00477548 0.00409595 ) 0 
( -0.000382075 -0.00254994 0.00549599 ) 0 
( -0.00760474 -0.0109736 0.00469469 ) 0 
( -0.00477418 -0.0110275 0.00117652 ) 0 
( -0.00293823 -0.00300838 0.00741447 ) 0 
( -0.00538473 -0.00772116 0.00403237 ) 0 
( -0.00711678 -0.00144894 0.00513442 ) 0 
( -0.0110271 -0.00564681 0.0061226 ) 0 
( -0.00668007 -0.00616781 0.00183891 ) 0 
( -0.00713309 -0.00795122 0.00408644 ) 0 
( -0.000263068 -0.0133477 0.00689328 ) 0 
( -0.00924076 -0.00963493 0.00649864 ) 0 
( -0.00526613 -0.0103446 0.00642381 ) 0 
( -0.00370487 -0.0128259 0.00527635 ) 0 
( -0.00295949 -0.0027441 0.00542182 ) 0 
( -0.0107682 -0.000965354 0.00582181 ) 0 
( -0.00878744 -0.00340816 0.00482518 ) 0 
( -0.00269063 -0.00247962 0.0025025 ) 0 
( -0.0113603 -0.00486347 0.00340814 ) 0 
( -0.0114498 -0.00208728 0.000499869 ) 0 
( -0.00587683 -0.0119875 0.00598708 ) 0 
( -0.0054196 -0.0112624 0.00193188 ) 0 
( -8.64439e-05 -0.00886533 0.000499228 ) 0 
( -0.0125206 -0.00116346 0.00133509 ) 0 
( -0.0115682 -0.00666524 0.00314364 ) 0 
( -0.00666121 -0.0077768 0.00249169 ) 0 
( -0.00434871 -0.00410227 0.00216556 ) 0 
( -0.012138 -0.00555867 0.0038154 ) 0 
( -0.00250786 -0.00419687 0.00124592 ) 0 
( -0.00340188 -0.00492356 0.00280042 ) 0 
( -0.00778515 -0.00634836 0.000499273 ) 0 
( -0.00669884 -0.0106257 0.00632428 ) 0 
( -0.00888477 -0.00257432 0.00603088 ) 0 
( -0.00874493 -0.00646401 0.0061971 ) 0 
( -0.00212043 -0.00638354 0.00532937 ) 0 
( -0.000771699 -0.0125188 0.000499063 ) 0 
( -0.00646599 -0.00819014 0.00338092 ) 0 
( -0.00388964 -0.00310326 0.00300279 ) 0 
( -0.00260091 -0.00904709 0.0038941 ) 0 
( -1.42481e-05 -0.0111167 0.00049776 ) 0 
( -0.00310656 -0.00650865 0.000807644 ) 0 
( -0.00585813 -0.0119969 0.00705875 ) 0 
( -0.00534315 -0.0122327 0.00216159 ) 0 
( -0.00218687 -0.0011683 0.00185091 ) 0 
( -0.00100304 -0.00660036 0.00308732 ) 0 
( -0.00434948 -0.0126218 0.00169809 ) 0 
( -0.0102101 -0.00860153 0.000499531 ) 0 
( -0.00435951 -0.00911209 0.00567742 ) 0 
( -0.0107952 -0.00314632 0.000985079 ) 0 
( -0.00399442 -0.00501955 0.00198462 ) 0 
( -0.00183629 -0.00168333 0.00426588 ) 0 
( -0.00856432 -0.00905956 0.00340972 ) 0 
( -0.00733726 -0.00993481 0.000499159 ) 0 
( -0.000666403 -0.00670006 0.00617948 ) 0 
( -0.00693436 -0.0027281 0.00642854 ) 0 
( -0.00500656 -0.00813955 0.00320697 ) 0 
( -0.00617609 -0.00696986 0.00215617 ) 0 
( -0.00252022 -0.000549829 0.00114008 ) 0 
( -0.00527733 -0.00544895 0.00128387 ) 0 
( -0.00959763 -0.00693262 0.000499183 ) 0 
( -0.00294783 -0.00647885 0.00748822 ) 0 
( -0.00740367 -0.00770008 0.00315707 ) 0 
( -0.00106186 -0.00083532 0.00669805 ) 0 
( -0.00016286 -0.0103696 0.00256165 ) 0 
( -0.00329157 -0.00481717 0.00124829 ) 0 
( -0.00988496 -0.00585187 0.0050462 ) 0 
( -0.00299281 -0.00129946 0.00449923 ) 0 
( -0.00389564 -0.00211013 0.00221836 ) 0 
( -0.00565739 -0.000684492 0.0038721 ) 0 
( -0.00757087 -0.00894146 0.00612998 ) 0 
( -0.00769108 -0.00604684 0.0063765 ) 0 
( -0.00151906 -0.00787195 0.00607431 ) 0 
( -0.00747548 -0.0100417 0.00700837 ) 0 
( -0.00641552 -0.00632024 0.00442168 ) 0 
( -0.000654056 -0.0125791 0.00244955 ) 0 
( -0.00018548 -0.00399772 0.00180575 ) 0 
( -0.000258948 -0.00237289 0.00368068 ) 0 
( -0.00906004 -0.00383589 0.00277929 ) 0 
( -0.00992121 -8.76328e-05 0.00568286 ) 0 
( -0.0106298 -0.00407108 0.00506881 ) 0 
( -0.0102748 -0.000931896 0.00390279 ) 0 
( -0.0109799 -0.00581923 0.000499893 ) 0 
( -0.0035572 -0.00229141 0.00629187 ) 0 
( -0.0012159 -0.0132945 0.00384997 ) 0 
( -0.00818265 -0.0052579 0.00192953 ) 0 
( -0.00544689 -0.00115073 0.00669531 ) 0 
( -0.00456412 -0.0125473 0.00270287 ) 0 
( -0.0129704 -0.0028164 0.00639734 ) 0 
( -0.00323316 -0.00300785 0.000499751 ) 0 
( -0.00517592 -0.00681766 0.00219221 ) 0 
( -0.000284715 -0.00887308 0.00613906 ) 0 
( -0.00474382 -0.0108137 0.00252485 ) 0 
( -0.010133 -0.00379272 0.00319157 ) 0 
( -0.0046466 -0.00852416 0.00146531 ) 0 
( -0.00210603 -0.0123809 0.00703632 ) 0 
( -0.0026113 -0.00934651 0.00245504 ) 0 
( -0.0117821 -0.00110745 0.00284219 ) 0 
( -0.00304779 -0.0122404 0.000498773 ) 0 
( -0.00420676 -0.00914677 0.00717116 ) 0 
( -0.00431712 -0.00171458 0.00140272 ) 0 
( -0.00808457 -0.0014248 0.00656795 ) 0 
( -0.00590411 -0.00532905 0.00357449 ) 0 
( -0.00198982 -0.0132018 0.0016122 ) 0 
( -0.00274178 -0.0104592 0.00404169 ) 0 
( -0.0047835 -0.00188975 0.00656219 ) 0 
( -0.00885443 -0.00999167 0.000499692 ) 0 
( -0.0123905 -0.00497096 0.00527418 ) 0 
( -0.00155323 -0.00923774 0.00505993 ) 0 
( -0.00555719 -0.0074818 0.00154932 ) 0 
( -0.0113472 -0.00703388 0.00479698 ) 0 
( -0.0118303 -0.00377407 0.00544832 ) 0 
( -0.00321953 -0.0112571 0.00049921 ) 0 
( -0.00756701 -0.00993421 0.00216081 ) 0 
( -0.00298475 -0.00974668 0.00329173 ) 0 
( -0.00773973 -0.00669857 0.0032496 ) 0 
( -0.0100554 -0.00735172 0.00435859 ) 0 
( -0.00248825 -0.00599559 0.00216275 ) 0 
( -0.0101549 -0.00866698 0.00294996 ) 0 
( -0.00860513 -0.00938633 0.00575669 ) 0 
( -0.0106126 -0.000968373 0.00203826 ) 0 
( -0.00579851 -0.00833913 0.00634151 ) 0 
( -0.0115167 -0.00482059 0.00242157 ) 0 
( -0.00652313 -0.00748986 0.00129215 ) 0 
( -0.00768039 -0.00349906 0.00680045 ) 0 
( -0.00799606 -0.00258762 0.00332587 ) 0 
( -0.0026011 -0.00597573 0.00315604 ) 0 
( -0.00164137 -0.0058488 0.00340322 ) 0 
( -0.00974884 -0.00440119 0.00232705 ) 0 
( -0.00823501 -0.00737631 0.00270544 ) 0 
( -0.00301758 -0.00949249 0.00630788 ) 0 
( -0.00320049 -0.00964686 0.00442187 ) 0 
( -0.0012543 -0.0019772 0.000499301 ) 0 
( -0.00687255 -0.00370693 0.000761667 ) 0 
( -0.00597384 -0.00231851 0.00322667 ) 0 
( -0.00166502 -0.00499685 0.00601209 ) 0 
( -0.00691924 -0.00418525 0.00398465 ) 0 
( -0.00148131 -0.00354603 0.000917937 ) 0 
( -0.00280526 -0.0130519 0.00490273 ) 0 
( -0.00136289 -0.0132808 0.00238659 ) 0 
( -0.00108432 -0.00881178 0.000499199 ) 0 
( -0.0106042 -0.00641837 0.00153726 ) 0 
( -0.00619167 -0.00181597 0.00665681 ) 0 
( -0.0121625 -0.00303321 0.00486411 ) 0 
( -0.0113665 -0.00293866 0.00574178 ) 0 
( -0.0106799 -0.000166333 0.00450654 ) 0 
( -0.000836311 -0.00221073 0.0046726 ) 0 
( -0.000544304 -0.0108174 0.00337679 ) 0 
( -0.00941511 -0.00330135 0.00559599 ) 0 
( -0.00488234 -0.0113637 0.00507146 ) 0 
( -0.00681197 -0.00906914 0.000499225 ) 0 
( -0.000793204 -0.00295349 0.000499779 ) 0 
( -0.00619821 -0.00727049 0.0036673 ) 0 
( -0.0115428 -0.00631916 0.00546724 ) 0 
( -8.82035e-05 -0.00558916 0.000499498 ) 0 
( -0.000200952 -0.0075219 0.00182563 ) 0 
( -0.00186061 -0.00779134 0.00288036 ) 0 
( -0.00328115 -0.00508102 0.00524012 ) 0 
( -0.00277578 -0.00524831 0.00608683 ) 0 
( -0.000699013 -0.00587245 0.00378393 ) 0 
( -0.00638341 -0.00328109 0.0058044 ) 0 
( -0.00603073 -0.0100742 0.00582366 ) 0 
( -0.00220757 -0.0114603 0.000499795 ) 0 
( -0.00181522 -0.00741229 0.00380401 ) 0 
( -0.00572873 -0.00937905 0.0021251 ) 0 
( -0.00898119 -0.00622422 0.00525549 ) 0 
( -0.00858824 -0.00189978 0.00729036 ) 0 
( -0.000691698 -0.0100929 0.00629445 ) 0 
( -0.00774272 -0.00281896 0.00426511 ) 0 
( -0.00474715 -0.0112489 0.00688441 ) 0 
( -0.00754244 -0.00732685 0.0047826 ) 0 
( -0.00419579 -0.0116737 0.00436199 ) 0 
( -0.00934351 -0.00148512 0.00354544 ) 0 
( -0.00210368 -0.00129086 0.000499763 ) 0 
( -0.00921956 -0.00746524 0.0038221 ) 0 
( -0.0114261 -0.0020709 0.00242823 ) 0 
( -0.00604276 -0.0098358 0.00679462 ) 0 
( -0.0123017 -0.00167246 0.00631087 ) 0 
( -0.00402985 -0.0082289 0.000735836 ) 0 
( -0.00463299 -0.00544285 0.00609563 ) 0 
( -0.00554847 -0.0058124 0.00437319 ) 0 
( -0.00827837 -0.00674968 0.00127094 ) 0 
( -0.0029235 -0.0130129 0.00191447 ) 0 
( -0.00766277 -0.000679945 0.00222201 ) 0 
( -0.00733981 -0.00338662 0.00354522 ) 0 
( -0.0114724 -0.00108048 0.00471921 ) 0 
( -0.00527382 -0.00114748 0.00197853 ) 0 
( -0.00389135 -0.00308607 0.00200351 ) 0 
( -0.00168254 -0.00822055 0.00739847 ) 0 
( -0.00467944 -0.00561272 0.000499507 ) 0 
( -0.0108966 -3.70032e-05 0.00547316 ) 0 
( -0.000254226 -0.00430414 0.00564391 ) 0 
( -0.00237192 -0.00487027 0.0069195 ) 0 
( -0.00308658 -0.0060582 0.00507214 ) 0 
( -0.0023602 -0.00927777 0.000499797 ) 0 
( -0.00477409 -0.00380737 0.00562943 ) 0 
( -0.00862637 -0.00044239 0.00210738 ) 0 
( -0.00488194 -0.00642152 0.00105298 ) 0 
( -0.0059618 -0.0101159 0.00479565 ) 0 
( -0.00229652 -0.0103147 0.00275367 ) 0 
( -0.0104839 -0.00107647 0.00486961 ) 0 
( -0.00766296 -0.00904223 0.00260001 ) 0 
( -0.0100249 -0.0076424 0.0010588 ) 0 
( -0.00135305 -0.0032161 0.00331946 ) 0 
( -0.0068088 -0.0104811 0.0053407 ) 0 
( -0.00294316 -0.00833182 0.00612232 ) 0 
( -0.00291655 -0.000594823 0.00227716 ) 0 
( -0.00142078 -0.0124619 0.00125637 ) 0 
( -0.00328279 -0.00144034 0.00782986 ) 0 
( -0.00656739 -0.00606918 0.0034655 ) 0 
( -0.00153025 -0.00394964 0.00472291 ) 0 
( -0.0103796 -0.00254327 0.00473568 ) 0 
( -0.00377366 -0.0074286 0.00304441 ) 0 
( -0.00823236 -0.0105111 0.00378403 ) 0 
( -0.00230689 -0.000877989 0.00390653 ) 0 
( -0.00214649 -0.00329283 0.00797555 ) 0 
( -9.72649e-05 -0.00341482 0.00416479 ) 0 
( -0.0104729 -0.00233405 0.00049959 ) 0 
( -0.00405819 -0.00348107 0.00438568 ) 0 
( -0.00182138 -0.00147659 0.00659202 ) 0 
( -0.00100189 -0.00731496 0.00458818 ) 0 
( -0.0056962 -0.00374718 0.00524867 ) 0 
( -0.000395864 -0.00339374 0.00603229 ) 0 
( -0.00371354 -0.00676671 0.00569404 ) 0 
( -0.0118361 -1.40576e-06 0.00580972 ) 0 
( -0.00679298 -0.00888974 0.00414612 ) 0 
( -0.0124957 -0.00469918 0.00417866 ) 0 
( -0.00238677 -0.0122694 0.00143257 ) 0 
( -0.00223749 -0.00336599 0.00512028 ) 0 
( -0.0013057 -0.00661598 0.00143216 ) 0 
( -0.0125488 -0.00455661 0.000499992 ) 0 
( -0.00127852 -0.00820993 0.0051137 ) 0 
( -0.0099615 -0.00279254 0.00140815 ) 0 
( -0.00317381 -0.0102522 0.00227866 ) 0 
( -0.00384375 -0.00194464 0.00320323 ) 0 
( -0.00656317 -0.0116254 0.00307011 ) 0 
( -0.0113638 -0.00489602 0.000499599 ) 0 
( -0.000457944 -0.00834432 0.00233369 ) 0 
( -0.00419864 -0.00566678 0.00522016 ) 0 
( -0.00856116 -0.00747329 0.00628297 ) 0 
( -0.000686511 -0.00889788 0.00469664 ) 0 
( -0.00700208 -0.00415303 0.0064206 ) 0 
( -0.00434431 -0.00987532 0.00632266 ) 0 
( -0.00757787 -1.93657e-05 0.00632518 ) 0 
( -0.00823698 -0.00939317 0.00672319 ) 0 
( -0.0115392 -0.00401756 0.00182625 ) 0 
( -0.00179859 -0.0071327 0.00213154 ) 0 
( -0.00981858 -0.0023915 0.00572412 ) 0 
( -0.00803064 -0.00831568 0.00433446 ) 0 
( -0.00162544 -0.00927439 0.00378005 ) 0 
( -0.0104456 -0.00380732 0.0069753 ) 0 
( -0.00399343 -0.0110889 0.00355562 ) 0 
( -0.000684984 -0.000848641 0.00310106 ) 0 
( -0.00586007 -0.00656217 0.00129337 ) 0 
( -0.00613456 -0.00461662 0.00445208 ) 0 
( -0.00953045 -0.00444589 0.00651053 ) 0 
( -0.00756243 -0.00811973 0.00223105 ) 0 
( -0.0051489 -0.0116607 0.000499657 ) 0 
( -0.00382399 -0.00485416 0.00604848 ) 0 
( -0.00703369 -0.000773903 0.00138738 ) 0 
( -0.0083784 -0.0103942 0.00576908 ) 0 
( -0.00642973 -0.00173199 0.00762444 ) 0 
( -0.00270847 -0.0113264 0.0013551 ) 0 
( -0.00517938 -0.00801468 0.000789627 ) 0 
( -0.00356681 -0.0114487 0.0071959 ) 0 
( -0.000330959 -0.0083875 0.0013429 ) 0 
( -0.0117435 -0.00113417 0.00567999 ) 0 
( -0.00327736 -0.000563582 0.00734933 ) 0 
( -0.0107164 -0.00422892 0.00250682 ) 0 
( -0.0108628 -0.00566526 0.00513687 ) 0 
( -0.00737976 -0.00702495 0.00212541 ) 0 
( -0.0133492 -0.000207683 0.00055881 ) 0 
( -0.00725748 -0.000342468 0.00395901 ) 0 
( -0.00886059 -0.00539837 0.00463816 ) 0 
( -0.00499202 -0.00492699 0.00208793 ) 0 
( -0.00498062 -0.00878276 0.00241572 ) 0 
( -0.00718583 -0.00181777 0.00675954 ) 0 
( -0.0128881 -0.00348191 0.000499179 ) 0 
( -0.00681879 -0.000836972 0.00783653 ) 0 
( -0.00137481 -0.0123966 0.00312083 ) 0 
( -0.00812134 -0.007367 0.000499794 ) 0 
( -0.00331525 -0.00169669 0.00552575 ) 0 
( -0.000568158 -0.00663541 0.00210706 ) 0 
( -0.0114972 -0.00499652 0.00689071 ) 0 
( -0.00921647 -0.000566368 0.00391541 ) 0 
( -0.00277953 -0.000338438 0.00466769 ) 0 
( -0.0123975 -0.000678551 0.00628366 ) 0 
( -0.00340629 -0.00864944 0.00345651 ) 0 
( -0.00217817 -0.000182708 0.00557154 ) 0 
( -0.00704846 -0.0041274 0.00172447 ) 0 
( -0.00789774 -0.00864154 0.00144327 ) 0 
( -0.00223619 -0.000466682 0.00299812 ) 0 
( -0.000246965 -0.00912329 0.00382795 ) 0 
( -0.00759431 -0.000902751 0.00586012 ) 0 
( -0.00449258 -0.0125717 0.00468559 ) 0 
( -0.00640417 -0.0107151 0.00345186 ) 0 
( -0.000433771 -0.00601377 0.00133551 ) 0 
( -0.00604585 -0.00417385 0.00610212 ) 0 
( -0.00415815 -0.00804923 0.00372696 ) 0 
( -0.00208649 -0.00761188 0.00130338 ) 0 
( -0.00770448 -0.00259838 0.00723346 ) 0 
( -0.00717958 -0.00647478 0.00528013 ) 0 
( -0.0005622 -0.00122499 0.00218287 ) 0 
( -0.009267 -0.00835893 0.00329019 ) 0 
( -0.00271686 -0.0130727 0.000939397 ) 0 
( -0.0121759 -0.0054776 0.00205773 ) 0 
( -0.00228334 -0.00415459 0.00221875 ) 0 
( -0.00336466 -0.00424728 0.00206618 ) 0 
( -0.00460109 -0.00152701 0.00262046 ) 0 
( -0.0076563 -0.00461744 0.003389 ) 0 
( -0.00553467 -0.00319966 0.00737102 ) 0 
( -0.00643056 -0.000285439 0.00550237 ) 0 
( -0.0071773 -0.00674086 0.00118841 ) 0 
( -0.00391258 -0.00157495 0.000499484 ) 0 
( -0.00270366 -0.00199773 0.00384515 ) 0 
( -0.00653512 -0.00268517 0.00734368 ) 0 
( -0.0034339 -0.0036184 0.00129254 ) 0 
( -0.00315626 -0.00882271 0.00707722 ) 0 
( -0.00238905 -0.00354386 0.000499163 ) 0 
( -0.00525667 -0.00524315 0.0068882 ) 0 
( -0.00695667 -0.00138494 0.00217468 ) 0 
( -0.00455919 -0.0047435 0.00535053 ) 0 
( -0.0132123 -0.00191525 0.00471674 ) 0 
( -0.0045771 -0.000178274 0.00258158 ) 0 
( -0.010875 -0.00181366 0.00137753 ) 0 
( -0.00394158 -0.00775503 0.00211492 ) 0 
( -0.00303337 -0.0070554 0.00502229 ) 0 
( -0.000943227 -0.00451335 0.00140616 ) 0 
( -0.0121732 -0.00548268 0.00049859 ) 0 
( -0.00702687 -0.00743058 0.00623096 ) 0 
( -0.00415511 -0.00397827 0.00639531 ) 0 
( -0.00560486 -0.00601154 0.000498771 ) 0 
( -0.00675234 -0.00837368 0.00604434 ) 0 
( -0.00134983 -0.000184987 0.00344367 ) 0 
( -0.00580134 -0.0076956 0.00557643 ) 0 
( -0.00598595 -0.000438509 0.00722126 ) 0 
( -0.0057711 -0.0064578 0.00291352 ) 0 
( -0.0123968 -0.0049564 0.00304857 ) 0 
( -0.0102001 -0.00861309 0.00150988 ) 0 
( -0.00376843 -0.00560946 0.00432005 ) 0 
( -0.00380272 -0.0065375 0.00666251 ) 0 
( -0.00404604 -0.00856329 0.00269335 ) 0 
( -0.0120392 -0.00359463 0.00258262 ) 0 
( -0.00197214 -0.00592769 0.00620632 ) 0 
( -0.00788363 -0.000499323 0.00317975 ) 0 
( -0.000883674 -0.00984443 0.00342991 ) 0 
( -0.00462506 -0.00258478 0.00349682 ) 0 
( -0.0101372 -0.00570895 0.00409043 ) 0 
( -0.00802289 -0.0106629 0.00049979 ) 0 
( -0.0100256 -0.00668614 0.00253338 ) 0 
( -0.00242221 -0.00948137 0.00548899 ) 0 
( -0.000448989 -0.00526948 0.00672302 ) 0 
( -0.00785384 -0.00906972 0.00517611 ) 0 
( -0.00198862 -0.0067565 0.00303797 ) 0 
( -0.00371859 -0.00768778 0.00608094 ) 0 
( -0.00113262 -0.00658062 0.00525433 ) 0 
( -0.00843264 -0.005033 0.00565221 ) 0 
( -0.00255832 -0.0014005 0.00274976 ) 0 
( -0.000803561 -0.00284342 0.00257222 ) 0 
( -0.00929378 -0.00254858 0.00488812 ) 0 
( -0.00295046 -0.00014429 0.00369011 ) 0 
( -0.00458272 -0.00726506 0.00149712 ) 0 
( -0.00506204 -0.00300495 0.000499793 ) 0 
( -0.00374271 -0.0128155 0.000927655 ) 0 
( -0.0131088 -0.00152161 0.00290979 ) 0 
( -0.00705569 -0.00382791 0.00267848 ) 0 
( -0.00883097 -0.00214567 0.00299775 ) 0 
( -0.0109094 -0.00463087 0.00134966 ) 0 
( -0.00363445 -0.0110213 0.00516354 ) 0 
( -0.00676203 -0.00907889 0.00303179 ) 0 
( -0.00284959 -0.00521632 0.00434843 ) 0 
( -0.00988444 -0.00754459 0.00204238 ) 0 
( -4.22638e-05 -0.000152469 0.00481857 ) 0 
( -0.00782109 -0.00691817 0.0059051 ) 0 
( -0.0070609 -0.0111025 0.000499497 ) 0 
( -0.00839802 -0.0103785 0.00676727 ) 0 
( -0.012215 -0.00241203 0.00564485 ) 0 
( -0.0078185 -0.00277951 0.00118487 ) 0 
( -0.000695891 -0.0124397 0.00385644 ) 0 
( -0.0098551 -0.00631473 0.00593087 ) 0 
( -0.00362097 -0.00856414 0.00162447 ) 0 
( -0.0047682 -0.00039956 0.00447659 ) 0 
( -0.000548637 -0.00111563 0.00481056 ) 0 
( -0.00119599 -0.00341088 0.00826087 ) 0 
( -0.00785059 -0.00549591 0.00101717 ) 0 
( -0.00519569 -0.00339428 0.0033537 ) 0 
( -0.0078227 -0.00186268 0.00570833 ) 0 
( -0.00475685 -0.00887305 0.000499376 ) 0 
( -0.00164535 -0.00686799 0.006065 ) 0 
( -0.0044838 -0.0042225 0.00386811 ) 0 
( -0.0040519 -0.0013576 0.00610994 ) 0 
( -0.00895101 -0.00990493 0.00745172 ) 0 
( -0.00699838 -0.00570025 0.00700767 ) 0 
( -0.00686529 -0.00315186 0.00462751 ) 0 
( -0.00739603 -0.00183952 0.00425742 ) 0 
( -0.00459944 -0.00458997 0.00123285 ) 0 
( -0.000725885 -0.0133309 0.00600742 ) 0 
( -0.00853069 -0.00262942 0.000499346 ) 0 
( -0.000524621 -0.00765166 0.00650091 ) 0 
( -0.00137652 -0.00655213 0.00406217 ) 0 
( -0.00689581 -0.00314491 0.00182169 ) 0 
( -0.0099055 -0.00174557 0.00436373 ) 0 
( -0.00277487 -0.00879811 0.0048469 ) 0 
( -0.00701999 -0.00570431 0.000499796 ) 0 
( -8.85951e-06 -0.00157854 0.00300152 ) 0 
( -0.00566223 -0.00595017 0.00205886 ) 0 
( -0.00797346 -0.00396548 0.00407539 ) 0 
( -0.00968052 -0.000486021 0.00479817 ) 0 
( -0.00879622 -0.00633304 0.000499795 ) 0 
( -0.009659 -0.00673843 0.00147739 ) 0 
( -0.00129397 -0.00486241 0.00325515 ) 0 
( -0.00156165 -0.00128071 0.00763739 ) 0 
( -0.0057406 -0.00269377 0.00649722 ) 0 
( -0.0131771 -0.00214348 0.00568857 ) 0 
( -0.00433753 -0.0051459 0.00351535 ) 0 
( -0.0071761 -0.00253503 0.00534976 ) 0 
( -0.00673534 -0.00889457 0.00204761 ) 0 
( -0.00134326 -0.00165543 0.00162585 ) 0 
( -0.00587583 -0.0091895 0.00440756 ) 0 
( -0.0113953 -0.00287802 0.00301678 ) 0 
( -0.00775154 -0.00200333 0.000499571 ) 0 
( -0.000586071 -0.00305803 0.00162042 ) 0 
( -0.00546472 -0.00444497 0.00373044 ) 0 
( -0.00206073 -0.000978499 0.00493887 ) 0 
( -0.000919886 -0.00919249 0.00140852 ) 0 
( -0.00541994 -0.00199275 0.00139185 ) 0 
( -0.0056866 -0.00646207 0.0051202 ) 0 
( -0.00186401 -0.0132192 0.0046095 ) 0 
( -0.00999757 -0.00600533 0.000499723 ) 0 
( -0.011707 -0.0064139 0.00410069 ) 0 
( -0.00179588 -0.00928678 0.00188043 ) 0 
( -0.00179999 -0.0132285 0.00660385 ) 0 
( -0.0119975 -0.0048751 0.00127278 ) 0 
( -0.00887695 -0.00697195 0.00205465 ) 0 
( -0.00169524 -0.012228 0.00218876 ) 0 
( -0.00272527 -0.0130695 0.00389471 ) 0 
( -0.00170725 -0.00246756 0.00665764 ) 0 
( -0.000241064 -0.00292389 0.0077602 ) 0 
( -0.0128835 -0.00347345 0.00310539 ) 0 
( -0.000563443 -0.0133389 0.0030914 ) 0 
( -0.00266449 -0.00286848 0.00436227 ) 0 
( -0.00794876 -0.00422231 0.0061073 ) 0 
( -0.00452647 -0.00722496 0.00415704 ) 0 
( -0.00349802 -0.00826343 0.00529378 ) 0 
( -0.0111772 -0.00324227 0.00480853 ) 0 
( -0.0103205 -0.00483723 0.000499138 ) 0 
( -0.00573726 -0.000974654 0.0057112 ) 0 
( -0.00818036 -0.00682084 0.00694135 ) 0 
( -0.0119952 -0.00586205 0.00692504 ) 0 
( -0.00308452 -0.0119006 0.00523223 ) 0 
( -0.00673454 -0.00936367 0.00577498 ) 0 
( -0.00345077 -0.00265852 0.00378209 ) 0 
( -0.0089792 -0.000926298 0.00129898 ) 0 
( -0.00393692 -0.00217308 0.0080506 ) 0 
( -0.00210093 -0.00334076 0.0069783 ) 0 
( -0.0051141 -0.0102092 0.00544533 ) 0 
( -0.00222336 -0.00821053 0.00543956 ) 0 
( -0.00859132 -0.003218 0.00383468 ) 0 
( -0.00644225 -0.00222561 0.00233963 ) 0 
( -0.0103054 -0.00494899 0.00471757 ) 0 
( -0.00316591 -0.00570524 0.00689374 ) 0 
( -0.000702011 -0.000425858 0.00551792 ) 0 
( -0.00780532 -0.00353573 0.00496091 ) 0 
( -0.00579264 -0.00542226 0.00606347 ) 0 
( -0.0101025 -0.00872609 0.00621482 ) 0 
( -0.00883602 -0.000806198 0.00301489 ) 0 
( -0.0129234 -0.00335025 0.00211369 ) 0 
( -0.012226 -0.00312227 0.00132314 ) 0 
( -0.00631141 -0.0117641 0.00049952 ) 0 
( -0.00116709 -0.00104662 0.000853007 ) 0 
( -0.00149174 -0.0132658 0.000499705 ) 0 
( -0.00228444 -0.00305163 0.00136266 ) 0 
( -0.00808605 -0.00117732 0.00502982 ) 0 
( -0.0054306 -0.00929837 0.00602365 ) 0 
( -0.00591328 -0.00842797 0.00237227 ) 0 
( -0.00618677 -0.00399816 0.00221301 ) 0 
( -0.00476237 -0.00262777 0.00771752 ) 0 
( -0.00811345 -0.00948056 0.000934029 ) 0 
( -0.00282112 -0.0111023 0.00601553 ) 0 
( -0.00300719 -0.00427931 0.0060021 ) 0 
( -0.00541412 -0.0120444 0.00418241 ) 0 
( -0.00794132 -0.00117522 0.00752523 ) 0 
( -0.00344941 -0.000296384 0.00640125 ) 0 
( -0.000575394 -0.00804555 0.00763092 ) 0 
( -0.0124841 -0.000647773 0.00520665 ) 0 
( -0.00379141 -0.00657317 0.00458474 ) 0 
( -0.00358883 -0.00582303 0.00599608 ) 0 
( -0.00554127 -0.0121459 0.00319481 ) 0 
( -0.0083989 -0.00340293 0.00575436 ) 0 
( -0.00564888 -0.0049523 0.000499705 ) 0 
( -0.00948378 -0.00843767 0.00224543 ) 0 
( -0.00230429 -0.00663967 0.00138959 ) 0 
( -0.00546036 -0.00419948 0.00155652 ) 0 
( -0.00937971 -0.00168364 0.000499665 ) 0 
( -0.00740189 -0.00497715 0.00249225 ) 0 
( -0.0112784 -0.00530052 0.00430435 ) 0 
( -0.00839489 -0.0043225 0.000499118 ) 0 
( -0.000544005 -0.00126534 0.00743736 ) 0 
( -0.0039142 -0.00408735 0.00746833 ) 0 
( -0.000109698 -0.00620605 0.00684571 ) 0 
( -0.000963785 -0.0126361 0.00685597 ) 0 
( -2.42032e-05 -0.0102837 0.00557524 ) 0 
( -0.00547751 -0.00268763 0.0040122 ) 0 
( -0.00998025 -0.00427906 0.00405096 ) 0 
( -0.0105939 -0.00682496 0.000499797 ) 0 
( -0.000187042 -0.00787102 0.000499301 ) 0 
( -0.0105726 -0.00815269 0.0046667 ) 0 
( -0.00666045 -0.00122931 0.00599796 ) 0 
( -0.00322006 -0.00362814 0.00386105 ) 0 
( -0.00772148 -0.00800861 0.00580291 ) 0 
( -0.00806845 -0.00933102 0.00423445 ) 0 
( -0.00575624 -0.00889375 0.000499541 ) 0 
( -0.0126893 -0.00404865 0.00501625 ) 0 
( -0.00737209 -0.00341837 0.0058533 ) 0 
( -0.0056113 -0.00711697 0.000499719 ) 0 