FoamFile
{version 2.0; format ascii;class vectorField; location 0;object  v;}
2495
(
( 0.000287783 -8.16682e-05 -1.33385e-05 )  
( 5.80956e-05 0.000193435 7.32652e-05 )  
( -0.00036773 0.000158125 0.000578942 )  
( -0.000892505 0.00024855 0.00065568 )  
( 4.59309e-05 -9.42749e-05 -2.30172e-05 )  
( 0.000267509 -0.000152427 5.76492e-05 )  
( 0.000265442 -0.000125237 9.17961e-05 )  
( -0.000168899 0.000526653 0.000416448 )  
( -0.000544405 9.56187e-05 0.00106001 )  
( -3.02614e-05 -7.11223e-05 0.000124566 )  
( -0.000640829 0.000447923 0.000763891 )  
( 0.000179338 4.09214e-05 0.000409481 )  
( 4.05575e-05 -0.000802867 -4.9867e-05 )  
( -0.000140331 -0.000174449 0.000801965 )  
( 0.000510295 -0.00103276 0.000637846 )  
( -0.000100602 -0.000187789 0.0007516 )  
( -0.000126577 0.00022414 0.000759417 )  
( 0.000375165 0.00067701 0.000759379 )  
( 0.000243669 -0.00046214 0.000227144 )  
( 0.000180593 -0.000297435 0.000411404 )  
( -0.000699919 6.77586e-05 2.50145e-06 )  
( -0.000304339 9.62418e-05 0.000526723 )  
( 0.00025927 -0.000122106 0.000113765 )  
( 0.000307052 0.000115155 1.79072e-05 )  
( 7.53497e-05 -0.000118169 0.000110791 )  
( 0.000241136 -0.000120524 0.000923164 )  
( 0.000166794 -8.49919e-05 9.20785e-05 )  
( -0.000766451 0.00063324 0.000591168 )  
( -3.09845e-05 -0.000134701 -9.06343e-06 )  
( 4.20179e-05 -0.000275121 -1.25491e-05 )  
( 0.000881456 -0.000106693 -5.9125e-06 )  
( 0.000274934 0.000203651 0.000630594 )  
( -0.000227373 -0.000376254 0.00141603 )  
( 0.000300549 0.000279396 0.000946276 )  
( 0.000456282 0.00035437 0.000360758 )  
( 7.33325e-05 0.0004359 0.00121178 )  
( 0.000289412 0.000496566 0.000253445 )  
( 0.000736097 -0.000836554 0.000792453 )  
( -1.49407e-05 4.84597e-05 0.0011837 )  
( 3.53001e-05 0.000350826 2.69973e-05 )  
( 0.000357284 -0.000277538 0.000338497 )  
( 8.14909e-05 -3.94037e-05 6.3558e-06 )  
( -8.408e-05 -0.000190352 0.000248631 )  
( 0.000294961 0.000107077 0.000305662 )  
( -0.00143509 0.00104583 0.0011658 )  
( -0.000301498 0.000864205 0.000875606 )  
( -0.000319446 2.89035e-05 0.000805349 )  
( 9.34878e-05 0.000104368 0.00111848 )  
( 0.00121961 -0.000630701 0.00126545 )  
( -0.00028901 0.000648478 0.000413547 )  
( -0.000127549 -0.000408792 6.49708e-05 )  
( -0.00059625 0.000417563 0.000120574 )  
( 0.000498122 -0.000285168 -0.000177639 )  
( 1.3827e-05 -5.78333e-05 2.93227e-06 )  
( 4.65012e-05 -0.000337869 0.000268325 )  
( -0.000332853 0.000184582 2.95077e-06 )  
( 0.000432385 0.00012213 0.000305929 )  
( -0.000106007 0.000629201 0.000300136 )  
( 0.000128757 -0.000213348 -0.000119924 )  
( 0.000350266 -8.00473e-05 0.000138173 )  
( 0.000613551 8.37828e-05 0.000739588 )  
( -0.000480756 0.000324609 8.09568e-05 )  
( 0.000500679 -0.000302247 0.000555576 )  
( -0.00133851 0.000632143 0.000632545 )  
( -0.000120219 0.000144113 -0.000429023 )  
( 0.000310901 0.000439298 0.000727538 )  
( 0.000497281 -0.000132227 0.000270919 )  
( -0.00107136 -0.000595989 0.000836898 )  
( -0.000126076 0.000367618 0.000441521 )  
( -0.000147529 -0.000736919 0.00270165 )  
( -0.000368619 -0.00027074 0.00081288 )  
( 1.61531e-05 0.00063517 0.00123588 )  
( 0.000340134 9.80283e-06 0.000179056 )  
( 0.00044768 6.70577e-05 -0.000458391 )  
( 0.0003491 0.000352866 -0.000126977 )  
( -0.000114581 -8.57778e-05 0.000673806 )  
( 4.23395e-05 -7.28456e-05 0.000422818 )  
( 6.55395e-05 -8.62322e-06 0.000192933 )  
( 1.90599e-05 6.65974e-05 9.00882e-05 )  
( -2.21402e-05 0.000179245 0.000388583 )  
( -7.50517e-05 -0.000311109 0.000469912 )  
( -0.000663001 -0.000151903 0.000541254 )  
( -0.000127107 0.000227213 0.000182111 )  
( 0.000108958 -0.000205859 0.000465032 )  
( 0.000318406 0.00119017 0.00769793 )  
( -0.000317858 0.000395102 0.00110821 )  
( 5.58986e-05 -0.000246724 0.000124057 )  
( -0.00330714 -0.00234152 0.00143786 )  
( -3.14259e-05 0.000550616 0.000973268 )  
( 9.86841e-05 -0.000513968 -4.55863e-08 )  
( -0.000166825 0.000309099 0.00109126 )  
( 0.000247776 0.000304104 0.000162962 )  
( -0.000119836 -0.000488027 0.00038411 )  
( -0.000145772 0.00030526 0.000822168 )  
( -5.9874e-05 4.97002e-05 6.41919e-05 )  
( 2.2919e-05 0.000165564 0.000559522 )  
( 4.19512e-05 -4.26047e-05 0.000201955 )  
( 2.54338e-05 0.000246522 0.000842313 )  
( -0.000677604 0.000108441 0.00111508 )  
( 0.000199659 0.000518336 0.000890903 )  
( -0.000642196 -0.000340295 0.000708282 )  
( 0.000459386 -2.33096e-05 0.000293077 )  
( 8.75488e-05 0.000114277 0.000465853 )  
( 0.000493002 0.000467226 0.00103627 )  
( 0.000533911 0.00049927 0.000389722 )  
( -0.000881793 -0.000266824 0.00286203 )  
( 0.000533335 0.000123041 0.00140806 )  
( -0.000171438 -6.3628e-05 0.00058097 )  
( -0.00041272 -5.40748e-05 0.00214053 )  
( -0.000497934 -0.00013913 0.000568876 )  
( -0.000286453 -0.000445756 0.00189282 )  
( 5.99299e-05 -0.00020477 0.000157141 )  
( 0.000251843 -0.000359638 0.000229995 )  
( -0.00046703 0.000220587 0.000738884 )  
( 1.91853e-05 -0.000106502 0.000229673 )  
( 2.48274e-05 0.000280724 0.000757261 )  
( 0.000628783 -0.000553636 0.000227924 )  
( -9.95419e-05 1.76749e-05 8.11859e-05 )  
( -0.000342385 0.00028289 0.00089065 )  
( -0.000587605 0.000492484 0.0018009 )  
( 7.66986e-05 0.000424413 4.99622e-05 )  
( 0.000283894 -0.000121539 0.000111926 )  
( 0.000275544 0.000281482 0.000154421 )  
( -0.000261229 0.000192629 -0.000304969 )  
( 0.000292923 0.000835143 0.00162307 )  
( 0.000149375 -0.000135646 0.00056978 )  
( -0.000976929 0.000739643 0.00122486 )  
( -0.000143411 -0.000149033 0.000899866 )  
( 0.000365399 5.17611e-06 0.000187918 )  
( 0.000413892 -0.000159096 0.000337443 )  
( -0.000592748 0.000264454 0.00040067 )  
( -0.00075279 0.000146364 0.000659687 )  
( 0.000257259 -0.000273843 0.000373375 )  
( 8.40341e-05 0.000241931 -2.41001e-05 )  
( 0.000255109 6.31592e-05 0.000865925 )  
( 4.92705e-05 0.000184091 6.51998e-05 )  
( 0.000305668 -0.000547882 0.0015952 )  
( -4.55818e-05 -3.39722e-05 0.000219134 )  
( 0.000230405 -0.000631085 0.000343807 )  
( -0.000630276 0.000105208 0.000510271 )  
( -0.00043849 -0.000130814 0.000709848 )  
( 3.70996e-05 1.34908e-05 3.46325e-05 )  
( 0.000474439 0.000627143 0.00158571 )  
( 0.000109337 0.000167223 0.000790801 )  
( 0.000357969 -0.000165284 4.91725e-05 )  
( 0.00032085 -0.000340866 0.000454217 )  
( -0.00029145 0.000806146 0.0012726 )  
( 6.18903e-05 -7.51257e-05 6.916e-05 )  
( -0.000325904 0.000393731 0.000742452 )  
( 0.000227624 -0.00041304 3.72605e-06 )  
( 0.00038123 0.000186826 -9.11918e-08 )  
( -0.000304515 -0.000116612 0.000630938 )  
( -0.000595514 0.000402104 -0.000124245 )  
( -0.000230168 4.80894e-05 0.000225621 )  
( 6.45514e-05 -0.00028818 0.000166868 )  
( 0.000425735 -0.000110662 0.000317044 )  
( -0.00021883 -0.000273942 -0.000724004 )  
( -0.000577367 -0.00033028 0.000293658 )  
( -0.000290658 0.000315677 0.000499394 )  
( 0.000136159 7.98812e-05 -0.000102207 )  
( -0.00112101 0.00176056 0.00430262 )  
( -0.000597329 0.000419126 0.000704159 )  
( -0.000117507 0.000404615 0.000776181 )  
( -0.000468467 0.000449568 0.00150508 )  
( -0.000118841 -0.00048525 0.000628277 )  
( -4.7153e-05 7.89681e-05 0.000171549 )  
( -0.00067021 -0.00033012 -0.000489928 )  
( -0.000164764 -0.000294058 -0.000241222 )  
( 3.2375e-05 -2.25927e-05 0.000211561 )  
( -0.000427276 0.000489884 0.000119895 )  
( -7.48175e-05 -0.00018561 0.000309789 )  
( -0.000219062 0.000467483 0.000259564 )  
( 0.000318084 -8.55288e-05 0.00076416 )  
( 0.000241446 0.00022757 -4.27211e-05 )  
( -0.00126139 -0.000679429 0.000457275 )  
( -0.00136404 0.000851647 0.00319771 )  
( -0.000135819 0.000492134 1.90558e-05 )  
( -0.000813696 0.000589248 0.00325398 )  
( -0.000429 -0.000482857 0.00119432 )  
( -6.89979e-05 -0.000186537 0.00019083 )  
( -0.00018741 -0.000847003 0.000943682 )  
( 9.60461e-05 -5.31619e-05 2.82912e-05 )  
( -0.000189448 -0.000353463 0.000142471 )  
( -0.000309203 -9.42708e-05 0.000852996 )  
( -0.000281177 0.000677352 -7.30835e-05 )  
( 0.000141117 -0.000339397 2.88288e-06 )  
( 8.68375e-05 -0.000315397 0.000548687 )  
( 0.000213909 0.00173626 0.00103245 )  
( -5.82647e-05 0.00010091 0.00050183 )  
( 0.000753479 -0.000498831 0.000342307 )  
( 0.000372689 0.000222674 0.000911877 )  
( 0.000265301 3.66971e-05 -1.09799e-05 )  
( 7.86248e-06 0.000176049 0.00016798 )  
( 0.000779409 0.000542081 7.31051e-05 )  
( 0.000682218 -0.000306295 -1.09132e-07 )  
( 0.000217039 0.000533703 0.000300397 )  
( 4.43023e-05 0.000322337 0.000659533 )  
( 4.71633e-05 0.000263093 0.000535418 )  
( -0.000290372 -0.000120749 0.00178934 )  
( 0.00121564 -0.000364202 0.000700321 )  
( -6.40557e-05 0.00019502 7.87721e-05 )  
( 0.000855549 -0.000898442 0.00152151 )  
( -0.00020401 -3.78048e-05 0.000615493 )  
( -0.000406316 -0.000538164 0.000684737 )  
( -0.000634639 0.000140217 0.000994332 )  
( 0.000425689 -0.000223799 -0.000231653 )  
( -0.000321453 0.000240533 -0.000249393 )  
( -0.000165561 0.000432336 0.000635747 )  
( -0.000348929 0.000125972 0.000510912 )  
( -0.000418249 1.57149e-05 0.000235411 )  
( 0.000430683 -6.60093e-05 0.000554273 )  
( -0.000465487 -4.51376e-05 -0.000168075 )  
( -0.000776601 -0.000137186 0.000745695 )  
( -9.35589e-05 -7.98348e-06 0.000204729 )  
( 0.00121392 -0.00116463 0.00468562 )  
( -4.05184e-05 0.000195469 0.000887243 )  
( -0.000479811 0.000111021 0.000164189 )  
( 9.0914e-05 0.000162324 0.0010241 )  
( 0.000121809 -0.000236548 0.000911993 )  
( -0.000168171 -0.000521149 0.000739613 )  
( 2.61109e-05 -7.41718e-05 0.000996875 )  
( 0.000795153 -0.000589173 0.000519778 )  
( 0.000231443 -2.99852e-05 -6.41885e-05 )  
( 0.000356265 -0.000198152 0.00137906 )  
( 0.000289643 -0.00127675 -0.000712102 )  
( 4.27082e-05 -3.57416e-05 9.57108e-05 )  
( 0.000140332 6.43227e-05 0.000119431 )  
( 0.000188119 0.000110281 0.000305844 )  
( -0.000452967 -1.379e-05 0.000632285 )  
( 0.000107716 1.00942e-05 0.000157736 )  
( 8.99308e-05 -0.000294195 0.000365953 )  
( -0.000223776 0.000300667 0.000272244 )  
( -0.000109075 0.000189801 0.000434792 )  
( -0.000361096 0.000192412 3.14522e-05 )  
( -0.000593384 0.000208199 0.00273889 )  
( -0.000259522 -0.000205622 0.000765246 )  
( -0.000723766 0.000803465 0.00387563 )  
( -2.1081e-05 0.000624372 0.000850531 )  
( -8.07264e-05 0.000229071 3.93954e-05 )  
( -0.000517417 0.000187262 0.000749354 )  
( 0.000332058 0.00045688 0.000538726 )  
( 0.000448713 -8.15722e-05 -0.00015733 )  
( 6.61286e-05 0.00014564 0.000183125 )  
( 2.6802e-05 1.87315e-05 0.000101448 )  
( 0.000662443 -0.000206532 0.000655802 )  
( -6.94143e-05 0.00087746 0.000382938 )  
( 0.000241292 0.000127951 0.000453059 )  
( 0.000196972 0.00047416 0.000142337 )  
( 0.000245554 -4.39486e-05 0.000208226 )  
( -0.000175572 0.000307691 3.27301e-05 )  
( -8.7891e-05 0.000155399 0.00101969 )  
( 0.000175244 -9.75018e-05 8.86245e-05 )  
( -7.96854e-05 2.18514e-05 0.000161982 )  
( 0.00018116 -6.91236e-05 0.000560663 )  
( 0.00020395 -0.00010815 0.0016046 )  
( -0.00056761 -0.000904493 6.23517e-05 )  
( -6.69057e-05 0.000314719 0.000796315 )  
( -0.000117935 0.00016043 0.000795281 )  
( 8.03571e-05 0.000735896 0.000337735 )  
( -0.000734509 -0.000240531 -7.21558e-05 )  
( 0.000384791 4.7015e-05 0.000160593 )  
( -9.9414e-05 0.000528947 0.000220572 )  
( -0.000187287 -9.85123e-05 7.15226e-05 )  
( -6.62613e-05 6.6997e-05 0.000508567 )  
( -0.00083742 -0.00117019 0.000410546 )  
( -0.000261613 -1.82611e-05 0.00119436 )  
( 0.000448067 0.000160079 0.0005715 )  
( -0.000157641 9.31265e-05 0.000145225 )  
( -0.000118147 -0.000109448 0.000412293 )  
( 0.000435832 -0.000185888 0.00127199 )  
( -7.30432e-05 4.6126e-05 0.000137667 )  
( -0.000875253 0.000600657 0.00160278 )  
( 0.000313639 -0.000526386 0.00203146 )  
( 0.000434751 -0.000250021 0.000595776 )  
( 3.631e-05 0.000481395 0.000967971 )  
( -0.000338848 -0.000177652 0.00044966 )  
( -0.00100836 0.0002531 0.000448846 )  
( -0.000403602 0.000374865 0.000573397 )  
( -0.000129584 0.000253321 0.000355095 )  
( -5.40544e-06 0.000542827 0.000961568 )  
( 0.000338063 -0.000418626 -0.00023301 )  
( 0.000222373 0.000183754 0.000537313 )  
( -0.000282439 -0.000239137 0.000761002 )  
( -0.000826142 0.000133606 0.000667891 )  
( -7.42959e-05 0.000272639 -6.1342e-05 )  
( -2.41827e-05 -0.000221055 0.00103233 )  
( -0.00101114 8.58512e-05 0.00165249 )  
( 6.50919e-05 5.89164e-05 0.000141296 )  
( 0.000701199 -0.000455416 0.00174908 )  
( -3.54863e-05 0.000221815 2.20232e-05 )  
( 0.000224122 -0.000423201 0.000471154 )  
( -0.000302996 0.000129564 3.86407e-06 )  
( 0.0003204 -0.000336473 -0.0010932 )  
( -0.000241503 0.000342609 0.000621286 )  
( 0.000114926 0.000311628 0.00047829 )  
( 0.000300291 -0.000104989 0.000440556 )  
( 0.000232658 0.000325173 -0.000140659 )  
( 0.00032323 -0.000363498 0.00166239 )  
( 0.000478161 0.000151175 0.000659096 )  
( 2.92922e-05 -8.51534e-05 8.74658e-05 )  
( -0.000117004 0.000142328 -3.28922e-05 )  
( -0.000189677 0.000308786 0.00106217 )  
( 0.000419358 0.000134269 -7.13037e-06 )  
( -0.000157428 7.62666e-05 0.000567903 )  
( 0.000308974 0.000127465 0.000701483 )  
( 2.59718e-05 4.69954e-05 1.67335e-05 )  
( -0.000120572 0.000316631 0.000325871 )  
( -0.000255142 -0.000860143 0.00130786 )  
( -0.000357358 0.0004802 -0.000164804 )  
( 7.34517e-05 -0.000201849 9.63944e-05 )  
( -4.79711e-05 0.000273034 0.000632047 )  
( 0.000165833 -0.000406034 -0.00089138 )  
( 0.000369527 -0.000392613 0.000310261 )  
( -0.000298195 -0.00105065 0.00105683 )  
( -0.000214474 0.000212642 8.2808e-05 )  
( -4.66203e-06 7.79786e-05 0.000319662 )  
( -0.000987107 0.000216319 0.000225862 )  
( 0.000413851 0.000557124 0.000197702 )  
( -0.000565164 -0.000704107 0.00101122 )  
( 4.10882e-05 0.000512553 0.000122726 )  
( 0.000278592 -0.000240619 0.00100198 )  
( 0.000262008 -0.00064422 0.00234183 )  
( 5.7925e-05 -0.000215978 5.58494e-05 )  
( 8.90187e-05 0.000126161 0.00102134 )  
( -0.000126904 0.000185294 0.000775819 )  
( -5.05329e-06 6.68423e-05 -0.00021273 )  
( 0.000213849 -0.000126384 0.000937289 )  
( -0.000320394 -0.000533021 0.000706548 )  
( 0.000190979 0.000346316 0.000145099 )  
( 0.00012452 0.000382495 0.000356438 )  
( -5.72095e-05 -0.000231904 0.000102609 )  
( -0.000525172 -0.000709286 0.000263706 )  
( -0.000248918 0.000301439 0.00105688 )  
( 0.000301047 0.000468649 0.000458405 )  
( 0.000322809 -0.000392454 4.41363e-05 )  
( 9.88026e-05 0.000211776 3.26161e-05 )  
( -0.00034013 9.42047e-05 0.000537526 )  
( 0.00114979 0.000204048 0.000532158 )  
( -0.00119604 -0.00114006 0.00103908 )  
( -0.000224191 0.000430435 1.82427e-05 )  
( 0.000475414 6.90263e-05 0.00235501 )  
( 8.9075e-05 -4.03592e-05 -5.27156e-05 )  
( 3.41879e-05 2.0003e-05 5.63472e-05 )  
( -0.000161907 -0.000131918 0.00056138 )  
( 0.00012253 0.000204955 0.000680814 )  
( 1.44799e-05 -0.000554184 0.000639508 )  
( -0.00079564 -0.000420659 0.00030161 )  
( -0.000396196 -0.000334249 0.000517685 )  
( -0.000195709 0.000836375 0.00109333 )  
( -0.000440498 0.000303737 0.00101204 )  
( -0.000602809 0.000158053 0.000477242 )  
( 0.000497891 6.1608e-05 0.000733338 )  
( 1.09415e-05 -0.000155655 4.69376e-06 )  
( -0.000263197 0.000459884 7.20498e-06 )  
( -0.000307467 0.000173295 0.000474135 )  
( 0.000311406 -0.000602376 0.000555828 )  
( -9.23641e-05 0.000111234 7.87913e-05 )  
( 0.000247991 -0.000122033 -1.66872e-05 )  
( -9.47115e-05 0.000983447 0.000316383 )  
( 1.93702e-05 0.000722041 0.000119469 )  
( 9.42574e-05 0.00049193 0.000494325 )  
( 5.27999e-05 0.000497332 0.000263073 )  
( -2.70264e-05 0.000284403 0.00055709 )  
( 0.000248251 -0.000895219 0.00187868 )  
( -0.000275872 0.000134989 -5.02506e-07 )  
( -9.24407e-05 0.000539193 0.000486549 )  
( 4.37402e-05 4.00348e-05 -1.53039e-06 )  
( -0.00114191 -0.000470167 0.0036204 )  
( 0.000355576 8.78267e-05 0.000794382 )  
( -0.000752727 -0.000108395 0.000451681 )  
( -0.00109578 -0.00102828 0.000824625 )  
( 4.8474e-05 0.00038683 0.00065497 )  
( -0.00018349 0.000170009 0.000655213 )  
( -0.000154866 0.000181671 0.000797214 )  
( 0.000367287 -0.000145458 0.000237631 )  
( 0.00588599 0.00258052 7.97617e-05 )  
( -0.000863037 -0.000797908 0.000567189 )  
( 0.000664614 -0.00030543 6.58892e-05 )  
( -0.000134668 -0.000393083 0.00176889 )  
( 4.07237e-05 -0.000139598 0.000434775 )  
( 0.000417048 0.000261022 -1.37107e-05 )  
( 0.00032736 0.00017029 0.00089159 )  
( 0.000125553 0.000252384 0.000891916 )  
( -0.000154878 0.00051912 4.94599e-05 )  
( 8.26307e-05 -0.0001632 0.000229996 )  
( 0.000367492 -9.39307e-05 8.12573e-05 )  
( -0.000195869 4.57038e-05 0.000921946 )  
( -0.000350932 -0.000445754 0.000138068 )  
( -0.00015515 -0.000318643 6.57465e-05 )  
( 0.000293499 -3.51436e-05 0.000486508 )  
( -6.21792e-05 0.000195605 0.000984447 )  
( -0.00041314 0.000279337 2.39612e-05 )  
( 0.000128541 -0.000327768 0.000670284 )  
( -9.12461e-05 0.000110897 0.000769738 )  
( -1.51905e-05 -0.000162327 0.000941819 )  
( -0.000542611 0.000753438 0.000209632 )  
( 1.50964e-05 -8.94194e-05 2.80477e-06 )  
( -0.000109124 0.000359507 0.000737067 )  
( 0.000335757 0.000337107 0.000446662 )  
( 1.26092e-05 0.000191555 0.000120857 )  
( 0.00208627 0.000965831 0.00385256 )  
( 0.000710782 0.00104991 0.000419124 )  
( -0.000450266 -0.00027144 0.000763944 )  
( 4.38018e-06 -9.86518e-07 0.000789046 )  
( -0.000282484 -9.38638e-05 0.000378158 )  
( -0.000287751 0.000379337 0.000772675 )  
( 0.00186981 -0.000575515 0.00177429 )  
( -0.000420085 0.000277041 0.00073589 )  
( 0.000364794 -0.000317563 0.000359235 )  
( -1.72492e-05 0.000257298 0.000189776 )  
( 0.000775491 -7.09149e-06 0.00170032 )  
( 0.000202424 0.000288669 0.000324746 )  
( -0.000113753 0.00032275 0.000766075 )  
( -4.41149e-05 -0.000422375 6.90334e-05 )  
( 0.000478775 -0.000155988 0.000482103 )  
( 0.000113855 -5.98823e-05 0.000300176 )  
( -0.000138426 -0.000196273 0.00066802 )  
( -0.000155871 0.000357109 0.00092517 )  
( -0.00051355 -0.000211145 0.000385104 )  
( 0.00011524 -8.94688e-05 8.08957e-06 )  
( 0.000404533 -0.000294016 0.000524575 )  
( -0.000447373 0.000508846 0.000874135 )  
( 8.82175e-05 0.00046252 0.000494218 )  
( -0.000134339 8.85773e-05 0.000386252 )  
( -0.000357383 0.000181134 0.000671906 )  
( -0.000566718 0.000321451 0.000293388 )  
( 3.42953e-05 -3.37884e-05 0.00035156 )  
( -0.000418084 -0.00011675 0.00149953 )  
( 0.000166818 -0.000546453 0.00104016 )  
( 0.00013439 0.000178549 0.000408421 )  
( 0.000322025 0.000817354 0.000577574 )  
( 0.000105007 0.000397382 -0.000278966 )  
( -0.000118149 0.000575012 5.01184e-05 )  
( -0.000337935 0.000284297 0.000834922 )  
( 0.00012269 5.45726e-05 8.2266e-05 )  
( 0.000260754 -0.000155052 0.000797722 )  
( 0.000457311 0.000156583 0.000362585 )  
( -0.000761053 0.00049379 0.000212646 )  
( -0.000124314 0.000183292 9.03032e-06 )  
( -4.25888e-05 0.000808731 -0.000213393 )  
( -5.56301e-05 0.000643363 0.000633445 )  
( -0.000222139 0.000388021 0.00147213 )  
( -0.000281531 0.000349999 0.000581797 )  
( 0.000195886 0.000524937 0.00103936 )  
( -0.000761559 0.000180825 0.00116179 )  
( 0.00101213 -0.000383301 0.00107443 )  
( -0.000683556 0.000292556 0.00152565 )  
( 0.000123716 -0.000102788 0.000188403 )  
( 0.000390863 0.000418483 -0.000109897 )  
( -6.44641e-05 -0.000186321 0.000385865 )  
( -0.000752744 -0.000251112 0.000587442 )  
( 0.000183814 0.00102272 -0.000213438 )  
( 0.000210242 -0.00011653 0.000879319 )  
( 0.000213666 7.66463e-05 0.000617451 )  
( 0.000218826 -0.000224722 0.000529588 )  
( 8.47864e-05 -0.000267654 1.07244e-05 )  
( 0.000433661 0.00030966 0.000321186 )  
( -0.000178642 -0.00021798 0.000928172 )  
( -0.00037305 -8.19366e-05 0.00040443 )  
( -0.000120994 -9.24548e-05 -2.11237e-05 )  
( 3.30112e-05 0.000247296 0.000185029 )  
( 0.000405775 -6.90914e-05 0.000124782 )  
( 0.000430621 -0.000273585 0.000507329 )  
( -0.00023556 0.000121457 0.000729952 )  
( 1.7337e-05 0.000227714 0.000133444 )  
( 2.42522e-06 0.00033144 3.13023e-06 )  
( 2.08581e-05 -0.000244714 0.000348827 )  
( 4.84965e-05 -0.000106321 -0.00011523 )  
( 0.0001474 -0.000257036 0.000341936 )  
( 0.0013122 0.000680145 0.00295383 )  
( -2.83683e-05 0.000170042 0.000570396 )  
( 5.37625e-05 -0.000270958 0.000451336 )  
( -0.000870559 0.00021462 -8.21075e-05 )  
( 3.39242e-05 -2.36202e-05 3.52177e-05 )  
( -5.40887e-05 0.00068447 0.00104995 )  
( 0.000418083 -0.000809018 0.000884858 )  
( 3.12667e-05 -0.000291281 0.000367344 )  
( -5.70672e-05 0.000160977 0.00033996 )  
( 9.85389e-05 0.000748233 0.000879538 )  
( -9.82085e-05 0.000254393 4.39909e-05 )  
( 0.000530022 0.000303078 0.00172525 )  
( -0.0003893 0.000584305 0.000904769 )  
( 0.000647173 0.000844478 1.25654e-05 )  
( -6.30507e-05 -0.000409123 0.000989901 )  
( -0.000216093 -0.000217079 -8.77159e-05 )  
( 0.000522145 -0.00053074 4.49722e-05 )  
( 0.000290919 -0.000119854 0.00043107 )  
( 0.00088942 -0.000245617 0.00110099 )  
( 0.000177415 -0.000128956 0.000369786 )  
( 0.000117213 3.98402e-05 0.000389924 )  
( -4.133e-05 7.55189e-05 0.000419601 )  
( 0.000129908 3.10618e-05 0.000377498 )  
( -0.000276796 0.000598787 6.74642e-05 )  
( 0.000286103 -0.000308557 0.000601206 )  
( -0.000523824 0.000284701 0.000479918 )  
( 0.000496545 -0.000223389 0.000697048 )  
( 0.000770136 -0.000205241 0.000272663 )  
( -0.000284303 0.000276417 0.00065155 )  
( -6.12059e-05 0.000239086 0.00026722 )  
( 0.000169059 0.000320253 0.000250151 )  
( 8.18063e-05 7.82033e-05 0.00048258 )  
( 0.000214371 -2.4508e-05 0.000110399 )  
( 0.000103571 6.92999e-05 0.000671394 )  
( -0.000229484 7.7221e-05 0.000596797 )  
( -0.0003466 -0.000210566 0.000403885 )  
( 3.39583e-05 -3.34137e-05 0.00185408 )  
( -4.41751e-05 0.000169946 0.000130699 )  
( 1.71013e-05 0.000176438 0.000445188 )  
( -0.00022822 -4.44241e-05 0.000416731 )  
( 2.04969e-05 4.79796e-05 0.000206158 )  
( 5.11388e-05 -7.34453e-05 0.000457192 )  
( 0.000107323 -0.000158314 0.000614609 )  
( -8.11961e-05 -0.000311248 0.000587459 )  
( 0.00089304 1.17721e-05 0.000895154 )  
( -0.000493443 -0.000336728 -5.71285e-05 )  
( 0.000848116 -0.000117045 8.04602e-05 )  
( 0.000813791 0.000104152 0.00106661 )  
( -0.000173025 1.12003e-05 0.000915776 )  
( 1.96348e-05 3.16493e-05 0.000196066 )  
( 0.000204546 0.000155918 0.0010173 )  
( -0.000226055 0.000262585 7.69437e-05 )  
( 0.000170773 0.000544203 0.000939087 )  
( 0.000511659 -3.28556e-05 8.2212e-05 )  
( -0.000109683 0.000679436 0.000304826 )  
( 1.29661e-05 -0.000396204 0.00037811 )  
( 0.000389708 -0.000126464 0.000492745 )  
( 9.35965e-05 5.90426e-05 0.000164756 )  
( 0.000412025 -4.62906e-05 0.000410461 )  
( -0.00025961 0.000671042 0.000333675 )  
( -0.000167399 0.00038794 0.000234145 )  
( -0.000199498 0.000407475 6.15034e-05 )  
( -0.00058965 -0.000440097 0.000651724 )  
( -0.000176165 -3.96919e-05 0.000786337 )  
( -0.000172086 -0.000112179 2.19519e-05 )  
( 5.09174e-05 -0.0002938 0.00123766 )  
( -0.000115444 -0.000484734 0.000549581 )  
( -0.000383185 0.000107519 0.000834137 )  
( -0.000344143 -0.00113244 0.00164367 )  
( 0.00104106 -0.000338089 -0.000928127 )  
( 0.000103837 -9.54304e-05 1.0498e-05 )  
( 0.000114888 -7.35983e-05 8.85407e-05 )  
( -0.000275153 0.000670291 0.000438424 )  
( 0.000354138 0.00050065 0.000357852 )  
( -0.000137587 0.000223086 0.00061536 )  
( -0.000335436 -9.223e-05 -4.02405e-05 )  
( 2.95076e-05 0.000624145 0.000824499 )  
( 0.00055297 3.21858e-05 0.000113922 )  
( 0.000405311 0.00122838 -0.000360211 )  
( -0.000152226 -0.000324921 0.000669141 )  
( 0.00035965 -0.000215691 0.000197543 )  
( -0.00111419 -0.000611146 4.35126e-05 )  
( -0.000154453 -0.000248256 -0.000170177 )  
( 0.000182022 0.000136177 0.000759517 )  
( 0.000131734 0.000719011 0.00101322 )  
( -0.00075376 -0.000442513 0.000764153 )  
( 0.000247779 0.000283303 1.5199e-05 )  
( -0.000655222 0.000470582 0.00061043 )  
( -0.00060691 0.000849044 0.000244074 )  
( 0.000321843 0.000357584 0.00230512 )  
( 0.000390186 -0.000316714 0.000632384 )  
( -6.35522e-05 0.000247047 0.000819015 )  
( -0.000186817 -0.000387705 0.000398843 )  
( -0.00037759 -0.000433459 0.000303958 )  
( 9.2517e-05 7.74143e-05 1.74677e-05 )  
( -0.000181067 7.29089e-05 3.71949e-07 )  
( 3.86298e-05 1.44354e-05 0.000114113 )  
( -0.000207749 -0.000264782 0.000115598 )  
( 0.000319858 7.10616e-05 0.000398942 )  
( -2.11961e-05 -0.00046579 0.000410357 )  
( 2.29242e-05 -0.000119035 -1.78604e-05 )  
( 2.21746e-05 0.000303804 0.000171277 )  
( 1.70527e-05 9.50578e-05 0.000667174 )  
( -0.00025253 0.000626211 9.15715e-05 )  
( -0.000707329 -0.000683987 0.000530506 )  
( -0.000508305 -0.000526272 0.000431257 )  
( -0.000301224 -4.06012e-05 0.000548869 )  
( -0.000136002 -0.000154322 2.08416e-05 )  
( -1.96645e-05 8.90725e-05 0.000601825 )  
( 0.000340014 -0.00020002 0.000474807 )  
( 0.000319402 0.000258062 -0.000168138 )  
( -0.000631627 0.00048763 0.000348209 )  
( -0.000598561 -0.000217774 0.000350761 )  
( 0.000398927 -0.000140378 0.000415848 )  
( 0.00115566 -0.00211254 0.000493378 )  
( 0.000115798 7.70504e-05 0.00038306 )  
( 0.000112861 0.00016059 0.000178669 )  
( 0.000373011 0.000353693 4.3263e-05 )  
( -0.000626869 0.000719403 4.28709e-05 )  
( -0.000327283 -2.39791e-05 0.000536789 )  
( 0.000206214 0.000377772 6.6119e-05 )  
( 1.46185e-05 0.000867947 0.000242307 )  
( 0.000341303 -0.000286613 0.000481313 )  
( 0.000777775 -0.000141145 0.00185065 )  
( 4.27642e-05 -0.000184176 0.000888076 )  
( 0.000131576 3.72255e-05 0.000739886 )  
( -0.000221409 -0.000389679 0.000553351 )  
( -0.000440854 0.000184958 0.000324731 )  
( -9.12325e-05 -0.000106542 0.000250145 )  
( 0.000463665 2.54435e-05 1.34258e-05 )  
( 1.8523e-05 7.00073e-05 4.08762e-05 )  
( 0.000444692 0.00035747 0.00087478 )  
( 0.000126569 0.00046033 0.000456107 )  
( 0.000307513 7.05324e-05 0.000530118 )  
( 0.000152049 -0.000512663 0.000104184 )  
( -0.000551613 -0.000186409 0.00014818 )  
( -0.000103855 0.000300737 -6.04602e-07 )  
( -0.000414061 -0.000741068 0.000655392 )  
( -0.000487009 0.00013432 -0.000176107 )  
( -0.000155504 -0.000615373 0.00101559 )  
( -0.000752749 3.75422e-05 0.000297107 )  
( -0.000452286 -0.00063909 -3.3985e-08 )  
( -0.000344426 -0.000168088 0.000217537 )  
( -0.000318165 -0.00010829 0.000713715 )  
( 0.000969372 0.000455212 0.00192969 )  
( 3.74297e-05 0.00012854 0.000444922 )  
( 0.000121519 -0.000399933 0.000470987 )  
( -0.000282697 -0.000338326 0.00031956 )  
( -0.000958023 -0.000546681 0.000361126 )  
( -0.000517736 0.000276906 2.99359e-05 )  
( -7.18794e-05 -0.000348767 0.000161326 )  
( -0.000157077 7.78051e-05 0.000970545 )  
( -0.000153054 -0.000420209 0.000114121 )  
( 4.18796e-05 -4.64129e-05 3.35387e-05 )  
( 6.08849e-06 -0.000288275 0.000841309 )  
( 0.000287383 0.000251317 0.000178531 )  
( 0.000506339 -0.000863713 0.00164301 )  
( 0.000349682 -0.000406154 -0.00010605 )  
( 0.000226032 7.66854e-05 7.56042e-05 )  
( -0.000669859 0.00020696 0.000691529 )  
( 0.000536874 2.73994e-05 0.00231583 )  
( -0.000101299 -1.64795e-05 1.44917e-05 )  
( 0.000237237 -0.000212662 0.000416059 )  
( 0.000399447 -0.00038986 0.000123204 )  
( -1.54603e-07 -2.61837e-05 0.000707841 )  
( 5.81078e-05 7.13701e-05 0.000218397 )  
( -0.000526366 -0.000176209 0.000558055 )  
( 0.000241313 -0.000594353 0.000503897 )  
( -4.71963e-05 6.74041e-05 0.000198295 )  
( -0.000138733 0.00066762 0.000832273 )  
( -2.40331e-05 0.000276765 0.000909336 )  
( -0.000562514 -0.00134997 -5.82976e-05 )  
( -0.000107587 5.32479e-05 0.000207521 )  
( 0.000223264 0.000129984 0.000910601 )  
( 5.5459e-05 2.35057e-05 0.0012327 )  
( -0.000401511 0.000367249 0.000273874 )  
( -0.0003864 0.00018873 0.00072837 )  
( -0.000320341 -0.000717966 0.000458889 )  
( 1.70853e-05 -0.000340996 -1.35929e-05 )  
( 0.00124799 0.00042375 0.00149361 )  
( -0.000623533 0.000500458 0.00365721 )  
( 0.000220167 -0.000379069 0.000249884 )  
( 0.000263226 0.000384635 0.00111345 )  
( -2.13144e-05 -0.000311739 0.00148344 )  
( 0.000566033 0.000439247 0.00052836 )  
( -0.000380062 -0.000359743 0.000396398 )  
( -0.000102364 -0.000147666 0.00113559 )  
( -0.000461953 -0.000267221 0.000941665 )  
( 0.000682634 0.000253025 0.000952202 )  
( -0.000509827 6.52766e-05 0.000529537 )  
( -0.000465548 -0.000842508 0.00104334 )  
( 0.000748657 0.000105423 0.00038292 )  
( -0.000273893 -9.71443e-05 4.41307e-05 )  
( -0.000187954 9.29271e-05 0.000757411 )  
( 0.000151617 -0.000721349 0.000916103 )  
( -8.3835e-06 6.05903e-05 0.000714282 )  
( 6.876e-05 0.000634743 0.00117415 )  
( 0.000531605 -9.89036e-05 0.000534211 )  
( 0.000675326 -0.000101724 0.000390162 )  
( 1.86743e-05 0.000213971 0.000124122 )  
( 0.000194483 3.83693e-05 8.98215e-05 )  
( -2.02396e-05 -4.52266e-05 4.28354e-05 )  
( 0.000129398 -0.00027762 0.000143916 )  
( -0.000118821 -3.83217e-05 4.66016e-05 )  
( 6.74454e-06 -4.64484e-05 0.000295174 )  
( -0.000736975 -0.00019299 0.000489521 )  
( 0.000160372 0.000214048 0.000889972 )  
( -0.000332486 -6.99813e-05 0.000251355 )  
( 0.000126703 -2.03922e-06 0.000542969 )  
( -0.00015069 7.0044e-05 0.000893473 )  
( -0.000158906 2.16816e-05 0.000167877 )  
( -0.00086786 -0.00103809 0.00248927 )  
( -6.3101e-05 0.000455822 0.000913733 )  
( -0.000341706 0.000382289 0.000595962 )  
( 0.00102615 -0.000231565 0.000481817 )  
( 0.000597127 -0.000761499 0.0027297 )  
( 6.0149e-05 -0.000138198 0.00119586 )  
( 0.000209625 8.29394e-05 0.00237848 )  
( -0.000499653 0.000548334 0.000341683 )  
( 0.000173714 0.000229751 0.000477393 )  
( 0.000287833 -0.000145266 5.19629e-05 )  
( -0.000132259 -0.000206212 0.00079171 )  
( -0.000764146 -0.000214127 3.85616e-05 )  
( -0.000455434 -0.000646636 -3.81009e-05 )  
( 9.07966e-05 0.000159466 6.21049e-05 )  
( -0.000101285 -0.0002337 0.000370839 )  
( -5.14868e-05 -7.36791e-05 4.89223e-05 )  
( 4.06419e-05 0.000126713 0.000454106 )  
( -0.000174368 -0.000790509 0.000341363 )  
( -3.60058e-05 7.18791e-05 7.35757e-05 )  
( 0.000115963 6.97843e-05 0.000870843 )  
( -3.29839e-05 0.000166744 0.00119015 )  
( -0.000210258 -0.000218951 0.00132494 )  
( 5.34056e-05 0.000273466 0.000692071 )  
( -0.000525002 0.000135056 0.000524275 )  