/*--------------------------------*- C++ -*----------------------------------*\
| =========                 |                                                 |
| \\      /  F ield         | OpenFOAM: The Open Source CFD Toolbox           |
|  \\    /   O peration     | Version:  2506                                  |
|   \\  /    A nd           | Website:  www.openfoam.com                      |
|    \\/     M anipulation  |                                                 |
\*---------------------------------------------------------------------------*/
FoamFile
{
    version     2.0;
    format      ascii;
    arch        "LSB;label=32;scalar=64";
    class       volScalarField;
    location    "0.002";
    object      p;
}
// * * * * * * * * * * * * * * * * * * * * * * * * * * * * * * * * * * * * * //

dimensions      [0 2 -2 0 0 0 0];

internalField   nonuniform List<scalar> 
512
(
-0.251466
-0.24102
-0.228187
-0.195613
-0.162254
-0.15932
-0.188631
-0.230435
-0.269769
-0.286283
-0.276722
-0.255045
-0.227729
-0.204246
-0.194491
-0.207304
-0.245122
-0.286727
-0.300129
-0.287107
-0.277148
-0.292756
-0.33472
-0.370969
-0.39508
-0.421101
-0.42982
-0.410965
-0.383604
-0.356567
-0.321785
-0.281655
-0.253385
-0.236877
-0.221406
-0.19011
-0.160409
-0.159571
-0.188598
-0.227766
-0.267621
-0.288564
-0.279439
-0.25615
-0.22776
-0.206115
-0.201085
-0.215515
-0.251218
-0.288381
-0.301355
-0.295637
-0.289001
-0.297909
-0.329604
-0.357962
-0.38041
-0.408861
-0.420698
-0.407221
-0.384916
-0.359238
-0.327649
-0.288918
-0.253527
-0.229937
-0.213152
-0.184512
-0.158444
-0.162227
-0.195946
-0.233972
-0.265741
-0.28279
-0.276193
-0.258028
-0.235142
-0.211445
-0.205241
-0.229135
-0.264255
-0.288891
-0.299407
-0.300763
-0.297978
-0.303874
-0.328121
-0.347666
-0.360745
-0.384315
-0.40422
-0.401191
-0.383523
-0.363757
-0.338379
-0.297582
-0.254568
-0.220676
-0.199759
-0.178289
-0.159836
-0.168384
-0.204538
-0.240174
-0.267237
-0.279964
-0.273208
-0.262033
-0.24255
-0.214887
-0.211823
-0.244956
-0.277649
-0.288781
-0.295059
-0.304159
-0.306904
-0.308136
-0.320226
-0.332515
-0.343387
-0.366685
-0.390881
-0.394422
-0.381806
-0.36742
-0.34471
-0.302611
-0.254377
-0.213959
-0.191134
-0.178563
-0.168143
-0.176286
-0.214139
-0.254459
-0.275749
-0.278419
-0.270002
-0.258286
-0.235516
-0.212296
-0.22251
-0.263273
-0.291716
-0.291898
-0.293478
-0.307097
-0.309005
-0.300825
-0.305554
-0.320297
-0.337883
-0.361751
-0.380046
-0.385151
-0.380369
-0.365
-0.33811
-0.300152
-0.260112
-0.215133
-0.188215
-0.178288
-0.175364
-0.185087
-0.223871
-0.268404
-0.288449
-0.289928
-0.278086
-0.250424
-0.216974
-0.200388
-0.224934
-0.276357
-0.306303
-0.304164
-0.298623
-0.302394
-0.298282
-0.286462
-0.29162
-0.312468
-0.333524
-0.351791
-0.36188
-0.36863
-0.375934
-0.366534
-0.339589
-0.305246
-0.267731
-0.216014
-0.188525
-0.181875
-0.179449
-0.188164
-0.227167
-0.275744
-0.298668
-0.301364
-0.287597
-0.251674
-0.211162
-0.185549
-0.21517
-0.286077
-0.318451
-0.313337
-0.301668
-0.287842
-0.273606
-0.262721
-0.278382
-0.313313
-0.331836
-0.33711
-0.335027
-0.351085
-0.38858
-0.386748
-0.354149
-0.318455
-0.27709
-0.218051
-0.18673
-0.17882
-0.179101
-0.191836
-0.227225
-0.274624
-0.304932
-0.311304
-0.294508
-0.254468
-0.214409
-0.195715
-0.221138
-0.277452
-0.310153
-0.31102
-0.295024
-0.27131
-0.255022
-0.253809
-0.278553
-0.314617
-0.328152
-0.327838
-0.32438
-0.346285
-0.391862
-0.393041
-0.366234
-0.334249
-0.235112
-0.214673
-0.212931
-0.160597
-0.0831784
-0.0800489
-0.147889
-0.229389
-0.308532
-0.330803
-0.300024
-0.26252
-0.213125
-0.165086
-0.134013
-0.145832
-0.224856
-0.323133
-0.336651
-0.271063
-0.222159
-0.247301
-0.352162
-0.41739
-0.436038
-0.491249
-0.512237
-0.460232
-0.410719
-0.387965
-0.343998
-0.287024
-0.234946
-0.212933
-0.203616
-0.147801
-0.0818244
-0.0812614
-0.142442
-0.20943
-0.298161
-0.349378
-0.3156
-0.263826
-0.202022
-0.162793
-0.156443
-0.165056
-0.235444
-0.323622
-0.334719
-0.30152
-0.267266
-0.264217
-0.333011
-0.374638
-0.399357
-0.472272
-0.494492
-0.453494
-0.420331
-0.389543
-0.352948
-0.301279
-0.225525
-0.202911
-0.200872
-0.144309
-0.0769327
-0.0854635
-0.167083
-0.235645
-0.286944
-0.321319
-0.300745
-0.26476
-0.22897
-0.174822
-0.145386
-0.199329
-0.274281
-0.312008
-0.319742
-0.311002
-0.286251
-0.282032
-0.344277
-0.368949
-0.357969
-0.401521
-0.456426
-0.449059
-0.413569
-0.397025
-0.384131
-0.318899
-0.232842
-0.180199
-0.164632
-0.131863
-0.0814195
-0.1006
-0.186012
-0.238914
-0.284167
-0.313187
-0.288416
-0.285108
-0.263429
-0.176215
-0.146096
-0.234861
-0.305254
-0.296286
-0.293473
-0.317408
-0.319427
-0.308668
-0.329032
-0.334053
-0.321417
-0.365691
-0.436019
-0.44314
-0.409442
-0.408839
-0.403128
-0.32874
-0.232162
-0.161832
-0.143067
-0.144182
-0.114085
-0.112364
-0.198451
-0.280537
-0.304113
-0.288365
-0.269304
-0.277718
-0.240325
-0.165413
-0.180912
-0.283257
-0.333195
-0.286915
-0.276471
-0.335792
-0.339764
-0.292156
-0.289728
-0.311712
-0.334199
-0.387299
-0.424536
-0.428532
-0.419501
-0.395201
-0.357753
-0.306389
-0.249399
-0.172372
-0.136044
-0.136353
-0.135051
-0.133974
-0.21652
-0.313925
-0.330114
-0.32198
-0.305028
-0.245107
-0.166458
-0.130588
-0.191681
-0.310912
-0.362495
-0.323629
-0.296932
-0.327448
-0.322951
-0.26956
-0.264232
-0.300904
-0.339254
-0.377977
-0.390198
-0.38829
-0.398921
-0.384144
-0.345724
-0.313619
-0.261509
-0.165536
-0.138962
-0.156922
-0.144841
-0.138939
-0.221752
-0.319117
-0.340101
-0.344128
-0.330601
-0.253484
-0.162735
-0.109834
-0.178501
-0.311487
-0.358324
-0.350323
-0.322296
-0.288877
-0.251956
-0.212443
-0.24291
-0.316964
-0.341605
-0.347402
-0.381834
-0.418908
-0.404598
-0.36859
-0.363196
-0.342452
-0.288152
-0.168153
-0.12939
-0.137858
-0.137961
-0.16134
-0.229272
-0.302951
-0.341691
-0.365491
-0.346983
-0.257645
-0.174454
-0.137695
-0.184196
-0.290356
-0.345289
-0.342685
-0.300545
-0.235016
-0.197385
-0.204858
-0.266306
-0.330641
-0.334135
-0.329212
-0.364692
-0.414307
-0.410667
-0.368098
-0.39084
-0.395529
)
;

boundaryField
{
    wall
    {
        type            zeroGradient;
    }
    outlet
    {
        type            cyclic;
    }
    inlet
    {
        type            cyclic;
    }
    procBoundary2to1
    {
        type            processor;
        value           nonuniform List<scalar> 
256
(
-0.247752
-0.274268
-0.270124
-0.236947
-0.212858
-0.206169
-0.21693
-0.236626
-0.255917
-0.265578
-0.262829
-0.252101
-0.238412
-0.227725
-0.225643
-0.235427
-0.25561
-0.276999
-0.288869
-0.291515
-0.29462
-0.3067
-0.328123
-0.349564
-0.366843
-0.380428
-0.383903
-0.3737
-0.35451
-0.329723
-0.298458
-0.259599
-0.256007
-0.263815
-0.256464
-0.230793
-0.210246
-0.205561
-0.217114
-0.236514
-0.255623
-0.265875
-0.263426
-0.252808
-0.239368
-0.229347
-0.228538
-0.239154
-0.258719
-0.278506
-0.290028
-0.29421
-0.297879
-0.307892
-0.325908
-0.344402
-0.360379
-0.374323
-0.379437
-0.371833
-0.35524
-0.332586
-0.304191
-0.271699
-0.261293
-0.253518
-0.242302
-0.222563
-0.206715
-0.205505
-0.219223
-0.238559
-0.255796
-0.264935
-0.263003
-0.25392
-0.242024
-0.232318
-0.232442
-0.245428
-0.264391
-0.280597
-0.29083
-0.296527
-0.300879
-0.308892
-0.323076
-0.337671
-0.350685
-0.363833
-0.371718
-0.368423
-0.355586
-0.336749
-0.312231
-0.283021
-0.263958
-0.245774
-0.23068
-0.215166
-0.204408
-0.206825
-0.2226
-0.241958
-0.257531
-0.264892
-0.262692
-0.25504
-0.24421
-0.234833
-0.237098
-0.252939
-0.270975
-0.282965
-0.291109
-0.297903
-0.302703
-0.308151
-0.317928
-0.329397
-0.341028
-0.354062
-0.363842
-0.364197
-0.355418
-0.340307
-0.318476
-0.290317
-0.265431
-0.241066
-0.223515
-0.211243
-0.204799
-0.2096
-0.227189
-0.247811
-0.261831
-0.266402
-0.262768
-0.254065
-0.242474
-0.234918
-0.241683
-0.26081
-0.278011
-0.28634
-0.2918
-0.297962
-0.301308
-0.303463
-0.310426
-0.321592
-0.334042
-0.346808
-0.356008
-0.358778
-0.354696
-0.342313
-0.321403
-0.294232
-0.268603
-0.240223
-0.220394
-0.209512
-0.206164
-0.212856
-0.231869
-0.254038
-0.267876
-0.271326
-0.265535
-0.252351
-0.237781
-0.231835
-0.243372
-0.266734
-0.284677
-0.291181
-0.293154
-0.295165
-0.295351
-0.295591
-0.302459
-0.315146
-0.32795
-0.33849
-0.345447
-0.350974
-0.354225
-0.346406
-0.326364
-0.299389
-0.272988
-0.240986
-0.219607
-0.209422
-0.207244
-0.214761
-0.234565
-0.258201
-0.273114
-0.276614
-0.26931
-0.252822
-0.23558
-0.228462
-0.242246
-0.270021
-0.289096
-0.294385
-0.293002
-0.289275
-0.285775
-0.285903
-0.295481
-0.311241
-0.322953
-0.328787
-0.330817
-0.341126
-0.359046
-0.357776
-0.335937
-0.306957
-0.27707
-0.242124
-0.219122
-0.208683
-0.207348
-0.21588
-0.23552
-0.259551
-0.276157
-0.280416
-0.272141
-0.254046
-0.236238
-0.229925
-0.243234
-0.269219
-0.288311
-0.294038
-0.290709
-0.283629
-0.278806
-0.280729
-0.292789
-0.309363
-0.319224
-0.32035
-0.309504
-0.323327
-0.371
-0.378881
-0.347214
-0.31419
)
;
    }
    procBoundary2to3
    {
        type            processor;
        value           nonuniform List<scalar> 
256
(
-0.18846
-0.170956
-0.257654
-0.162595
0.0689822
0.0716023
-0.117748
-0.269539
-0.395491
-0.390944
-0.31439
-0.280623
-0.208084
-0.172633
-0.123308
-0.0282399
-0.103192
-0.356801
-0.410675
-0.264273
-0.111948
-0.046081
-0.364759
-0.55054
-0.508993
-0.647201
-0.653201
-0.481589
-0.401513
-0.439172
-0.370544
-0.274097
-0.182383
-0.185078
-0.225529
-0.10573
0.0589176
0.0619037
-0.1214
-0.243343
-0.364239
-0.421817
-0.341214
-0.281706
-0.1928
-0.158667
-0.138503
-0.0868
-0.146173
-0.312865
-0.367687
-0.329619
-0.253889
-0.171402
-0.319599
-0.429493
-0.45846
-0.577478
-0.568587
-0.478387
-0.473604
-0.423536
-0.367533
-0.321299
-0.110519
-0.168647
-0.276477
-0.123144
0.0523255
0.0298984
-0.147309
-0.264996
-0.300356
-0.361972
-0.326233
-0.287778
-0.26901
-0.165488
-0.109087
-0.18088
-0.227427
-0.277008
-0.321914
-0.32805
-0.310643
-0.256056
-0.347297
-0.377994
-0.333758
-0.41061
-0.515653
-0.565478
-0.508848
-0.355341
-0.407922
-0.366397
-0.176331
-0.0983508
-0.131793
-0.0779735
0.0306479
-0.0337904
-0.174025
-0.236426
-0.323691
-0.362531
-0.280579
-0.32918
-0.354543
-0.155858
-0.0818639
-0.230013
-0.289032
-0.242384
-0.227717
-0.31294
-0.357706
-0.329591
-0.385841
-0.331978
-0.261354
-0.358703
-0.458393
-0.528055
-0.480034
-0.444367
-0.504242
-0.382604
-0.188449
-0.0932029
-0.124004
-0.0973042
-0.0315128
-0.0525407
-0.18061
-0.271671
-0.314983
-0.302031
-0.300939
-0.370714
-0.301911
-0.132684
-0.135359
-0.310887
-0.335348
-0.201935
-0.216173
-0.367526
-0.388557
-0.321322
-0.325862
-0.289744
-0.300211
-0.404355
-0.47466
-0.522797
-0.471851
-0.403675
-0.357856
-0.306086
-0.239964
-0.106693
-0.115141
-0.144758
-0.0931087
-0.0809712
-0.21945
-0.326329
-0.34186
-0.381588
-0.377948
-0.245082
-0.114605
-0.069329
-0.128538
-0.325531
-0.426267
-0.346887
-0.288852
-0.382157
-0.395203
-0.271132
-0.232832
-0.218543
-0.305611
-0.452095
-0.48362
-0.443518
-0.386381
-0.327571
-0.290375
-0.316353
-0.255364
-0.03627
-0.0575073
-0.201815
-0.197823
-0.138391
-0.199252
-0.311606
-0.335694
-0.399214
-0.440312
-0.273065
-0.0608724
0.0588497
-0.136749
-0.385005
-0.402701
-0.424215
-0.37795
-0.308554
-0.216371
-0.119273
-0.196205
-0.295792
-0.303449
-0.394029
-0.511626
-0.508078
-0.376569
-0.293047
-0.365849
-0.40261
-0.301212
-0.039606
-0.0271355
-0.158196
-0.177202
-0.159935
-0.21647
-0.281283
-0.300334
-0.428961
-0.475879
-0.258543
-0.0997002
-0.0856978
-0.178407
-0.295394
-0.354724
-0.397496
-0.292798
-0.163552
-0.162978
-0.155184
-0.213817
-0.299181
-0.292806
-0.34701
-0.42999
-0.464966
-0.427885
-0.329134
-0.474741
-0.561473
)
;
    }
}


// ************************************************************************* //
