/*--------------------------------*- C++ -*----------------------------------*\
| =========                 |                                                 |
| \\      /  F ield         | OpenFOAM: The Open Source CFD Toolbox           |
|  \\    /   O peration     | Version:  2506                                  |
|   \\  /    A nd           | Website:  www.openfoam.com                      |
|    \\/     M anipulation  |                                                 |
\*---------------------------------------------------------------------------*/
FoamFile
{
    version     2.0;
    format      ascii;
    arch        "LSB;label=32;scalar=64";
    class       volScalarField;
    location    "0.001";
    object      p;
}
// * * * * * * * * * * * * * * * * * * * * * * * * * * * * * * * * * * * * * //

dimensions      [0 2 -2 0 0 0 0];

internalField   nonuniform List<scalar> 
512
(
-0.322196
-0.323083
-0.325277
-0.328088
-0.331012
-0.333856
-0.33649
-0.338855
-0.340908
-0.34258
-0.34392
-0.344967
-0.345788
-0.346419
-0.346906
-0.34729
-0.347571
-0.347703
-0.347502
-0.346942
-0.34614
-0.345168
-0.34401
-0.342624
-0.340968
-0.339053
-0.336884
-0.334387
-0.331547
-0.328493
-0.325538
-0.323208
-0.32364
-0.324384
-0.326302
-0.328829
-0.331527
-0.334208
-0.336732
-0.339018
-0.341018
-0.342634
-0.343937
-0.344976
-0.345793
-0.346424
-0.346927
-0.347312
-0.347571
-0.347682
-0.347507
-0.347006
-0.346234
-0.345268
-0.344114
-0.342732
-0.3411
-0.339239
-0.337145
-0.334758
-0.332062
-0.329216
-0.326536
-0.324488
-0.325817
-0.326381
-0.327927
-0.33005
-0.332404
-0.33483
-0.337169
-0.339306
-0.341191
-0.342734
-0.34399
-0.345026
-0.345852
-0.346481
-0.346981
-0.347371
-0.347603
-0.347679
-0.347538
-0.347104
-0.346375
-0.345429
-0.344299
-0.342956
-0.341394
-0.339614
-0.337633
-0.335404
-0.332933
-0.330412
-0.328143
-0.326473
-0.328038
-0.328475
-0.329721
-0.331475
-0.333495
-0.33565
-0.337758
-0.339701
-0.341441
-0.342897
-0.344127
-0.345164
-0.345975
-0.34659
-0.347084
-0.34747
-0.347682
-0.347733
-0.347585
-0.347183
-0.34651
-0.345605
-0.344507
-0.343235
-0.341775
-0.340095
-0.338243
-0.336192
-0.333985
-0.331801
-0.329914
-0.32856
-0.329998
-0.330378
-0.331426
-0.332891
-0.334607
-0.3365
-0.338395
-0.340153
-0.34174
-0.343116
-0.344317
-0.345343
-0.346121
-0.346691
-0.347175
-0.34756
-0.347777
-0.347824
-0.347658
-0.34728
-0.346633
-0.345749
-0.344688
-0.343507
-0.342173
-0.340616
-0.338885
-0.336993
-0.33503
-0.333147
-0.331544
-0.330415
-0.331558
-0.331886
-0.332805
-0.334089
-0.335588
-0.337269
-0.338995
-0.34062
-0.342088
-0.343376
-0.344508
-0.345468
-0.346207
-0.346754
-0.347226
-0.347611
-0.34786
-0.34793
-0.347771
-0.34739
-0.346736
-0.345869
-0.344867
-0.343766
-0.342528
-0.341106
-0.339492
-0.337725
-0.33593
-0.334263
-0.332875
-0.331907
-0.332675
-0.33295
-0.333765
-0.334916
-0.336295
-0.337839
-0.339446
-0.340993
-0.342402
-0.343618
-0.344666
-0.345548
-0.346247
-0.346795
-0.347269
-0.347682
-0.347965
-0.348067
-0.347899
-0.347461
-0.346785
-0.345948
-0.345
-0.343984
-0.34284
-0.341507
-0.33999
-0.338296
-0.3366
-0.335076
-0.333845
-0.332993
-0.333259
-0.333506
-0.334255
-0.335342
-0.336655
-0.338135
-0.339663
-0.341172
-0.342573
-0.343776
-0.344778
-0.345608
-0.346284
-0.346849
-0.347336
-0.347757
-0.348065
-0.348173
-0.34797
-0.347485
-0.346809
-0.346009
-0.345089
-0.344107
-0.343009
-0.341708
-0.340236
-0.338586
-0.336951
-0.335501
-0.334362
-0.333568
-0.328243
-0.32862
-0.329774
-0.331624
-0.333693
-0.336012
-0.338313
-0.34051
-0.342513
-0.344043
-0.345247
-0.346106
-0.346792
-0.347291
-0.347674
-0.348071
-0.348486
-0.348938
-0.348773
-0.347992
-0.347053
-0.346112
-0.345067
-0.343834
-0.342293
-0.340566
-0.338796
-0.336786
-0.334505
-0.332154
-0.3301
-0.328776
-0.328875
-0.329285
-0.330404
-0.332113
-0.334053
-0.336257
-0.338502
-0.340646
-0.342653
-0.344058
-0.345182
-0.346052
-0.346719
-0.347219
-0.3477
-0.3481
-0.348442
-0.348801
-0.348711
-0.348138
-0.347252
-0.346282
-0.345205
-0.343908
-0.342347
-0.340689
-0.338989
-0.337095
-0.334872
-0.33259
-0.330644
-0.329359
-0.33008
-0.330395
-0.331381
-0.332878
-0.334598
-0.336663
-0.338829
-0.340839
-0.342707
-0.344064
-0.345096
-0.346017
-0.346776
-0.347277
-0.347734
-0.3482
-0.34846
-0.348657
-0.348705
-0.348343
-0.347513
-0.346517
-0.345462
-0.344174
-0.342706
-0.341085
-0.339449
-0.337608
-0.335428
-0.333295
-0.331602
-0.330454
-0.331236
-0.33154
-0.332496
-0.333837
-0.335447
-0.337416
-0.339373
-0.341165
-0.342868
-0.344123
-0.345221
-0.34624
-0.346963
-0.347469
-0.347927
-0.348396
-0.348595
-0.34871
-0.348695
-0.348356
-0.347686
-0.346779
-0.345696
-0.344495
-0.343166
-0.341572
-0.339996
-0.338219
-0.336201
-0.334226
-0.332737
-0.331647
-0.33238
-0.332805
-0.33381
-0.335008
-0.336379
-0.338165
-0.339984
-0.341573
-0.343044
-0.344286
-0.345453
-0.346568
-0.347238
-0.34758
-0.348049
-0.348532
-0.348754
-0.348859
-0.348705
-0.348462
-0.347834
-0.346893
-0.345779
-0.344733
-0.343634
-0.342152
-0.340575
-0.338816
-0.337005
-0.335265
-0.333823
-0.33274
-0.33341
-0.333813
-0.334859
-0.336086
-0.337318
-0.338903
-0.340618
-0.342133
-0.343459
-0.3446
-0.345692
-0.346657
-0.347293
-0.347607
-0.348052
-0.348484
-0.348819
-0.348994
-0.348887
-0.34865
-0.347953
-0.346985
-0.34598
-0.345012
-0.343954
-0.34272
-0.341214
-0.339476
-0.337704
-0.336098
-0.334769
-0.33373
-0.334346
-0.334646
-0.335619
-0.336729
-0.337997
-0.339471
-0.341092
-0.342605
-0.343931
-0.344963
-0.34587
-0.346664
-0.347223
-0.347599
-0.348027
-0.348578
-0.348996
-0.349293
-0.349185
-0.348699
-0.347896
-0.346998
-0.346079
-0.34529
-0.344406
-0.343255
-0.341882
-0.340081
-0.338286
-0.336776
-0.335603
-0.33469
-0.334877
-0.335152
-0.335995
-0.337087
-0.338309
-0.339778
-0.34122
-0.342726
-0.344164
-0.345267
-0.346087
-0.346741
-0.347254
-0.347742
-0.348224
-0.34875
-0.349259
-0.349568
-0.349312
-0.348643
-0.34787
-0.347122
-0.34622
-0.345447
-0.344632
-0.343449
-0.342121
-0.340332
-0.338596
-0.337129
-0.336112
-0.335251
)
;

boundaryField
{
    wall
    {
        type            zeroGradient;
    }
    outlet
    {
        type            cyclic;
    }
    inlet
    {
        type            cyclic;
    }
    procBoundary2to1
    {
        type            processor;
        value           nonuniform List<scalar> 
256
(
-0.312808
-0.314938
-0.319138
-0.323697
-0.327895
-0.331559
-0.334693
-0.337349
-0.339573
-0.341396
-0.34287
-0.344045
-0.344971
-0.345684
-0.346218
-0.346593
-0.346804
-0.346822
-0.346583
-0.346069
-0.345305
-0.344311
-0.343078
-0.341577
-0.339768
-0.337609
-0.335039
-0.331961
-0.328285
-0.32401
-0.31935
-0.315043
-0.31608
-0.317614
-0.320988
-0.324895
-0.328657
-0.332045
-0.335006
-0.337551
-0.339703
-0.341477
-0.34292
-0.344079
-0.344997
-0.345707
-0.346241
-0.346613
-0.346818
-0.346832
-0.346604
-0.346111
-0.345363
-0.344383
-0.343167
-0.34169
-0.339922
-0.337831
-0.335365
-0.332453
-0.329046
-0.3252
-0.32119
-0.317712
-0.32029
-0.321285
-0.323729
-0.326789
-0.329924
-0.332884
-0.335562
-0.337916
-0.339938
-0.341628
-0.34302
-0.344156
-0.34506
-0.345761
-0.34629
-0.346658
-0.346854
-0.346861
-0.346647
-0.346181
-0.345462
-0.344508
-0.343327
-0.341902
-0.340213
-0.338237
-0.335945
-0.333301
-0.330307
-0.327081
-0.323918
-0.321375
-0.324143
-0.324793
-0.326527
-0.328854
-0.331386
-0.333901
-0.336259
-0.338385
-0.34025
-0.341838
-0.343173
-0.344277
-0.345159
-0.345843
-0.346362
-0.346725
-0.346914
-0.346915
-0.346707
-0.346263
-0.345575
-0.344658
-0.343522
-0.342169
-0.340585
-0.33875
-0.336659
-0.33431
-0.331751
-0.329124
-0.326699
-0.324874
-0.327222
-0.327676
-0.328949
-0.33074
-0.332787
-0.334914
-0.336979
-0.338888
-0.340596
-0.342082
-0.343355
-0.344419
-0.345269
-0.345929
-0.346437
-0.346796
-0.346985
-0.346987
-0.346781
-0.346352
-0.345689
-0.344803
-0.343718
-0.342447
-0.340976
-0.339287
-0.337388
-0.335307
-0.333122
-0.330977
-0.329091
-0.32774
-0.329472
-0.329815
-0.330806
-0.332248
-0.333953
-0.335786
-0.337621
-0.339356
-0.340934
-0.342326
-0.34353
-0.344543
-0.34536
-0.345999
-0.346498
-0.346857
-0.347054
-0.347066
-0.346864
-0.34644
-0.345789
-0.344931
-0.343897
-0.342701
-0.341331
-0.339772
-0.338036
-0.336165
-0.334257
-0.332452
-0.330925
-0.329868
-0.330944
-0.33122
-0.332046
-0.333278
-0.334774
-0.336417
-0.338096
-0.339714
-0.341205
-0.342527
-0.343671
-0.344636
-0.345424
-0.346051
-0.346546
-0.346912
-0.347122
-0.347143
-0.34694
-0.346507
-0.345858
-0.345025
-0.344033
-0.342899
-0.341607
-0.340143
-0.338523
-0.336792
-0.335061
-0.333469
-0.332161
-0.331275
-0.331672
-0.331916
-0.332665
-0.333798
-0.335193
-0.336743
-0.338342
-0.339902
-0.341353
-0.342643
-0.343754
-0.344691
-0.345461
-0.346086
-0.346583
-0.346953
-0.34717
-0.347194
-0.346984
-0.346541
-0.345895
-0.345079
-0.34411
-0.343007
-0.341756
-0.34034
-0.338778
-0.337117
-0.335475
-0.333986
-0.332784
-0.331976
)
;
    }
    procBoundary2to3
    {
        type            processor;
        value           nonuniform List<scalar> 
256
(
-0.332748
-0.332715
-0.333045
-0.334451
-0.335763
-0.337941
-0.340048
-0.342225
-0.344452
-0.345818
-0.346981
-0.347471
-0.348055
-0.34835
-0.348401
-0.348803
-0.349409
-0.350927
-0.35072
-0.349054
-0.347768
-0.34699
-0.346174
-0.345279
-0.343749
-0.341999
-0.340753
-0.339146
-0.337166
-0.335082
-0.333388
-0.33297
-0.332646
-0.333034
-0.33357
-0.334889
-0.336127
-0.338106
-0.340233
-0.342354
-0.344972
-0.345772
-0.346702
-0.347315
-0.347683
-0.347918
-0.348547
-0.348874
-0.349236
-0.350376
-0.350343
-0.349525
-0.348295
-0.347334
-0.346399
-0.345156
-0.343387
-0.341911
-0.34076
-0.339558
-0.337552
-0.335359
-0.333678
-0.33292
-0.333701
-0.333705
-0.334184
-0.335288
-0.336144
-0.338048
-0.340429
-0.342383
-0.344627
-0.345667
-0.346105
-0.346914
-0.34783
-0.347984
-0.34832
-0.349136
-0.349268
-0.349667
-0.350288
-0.350238
-0.348902
-0.347641
-0.346881
-0.345519
-0.344069
-0.34248
-0.341385
-0.340052
-0.337661
-0.335515
-0.334338
-0.333564
-0.33373
-0.333833
-0.334688
-0.335721
-0.336958
-0.339196
-0.341085
-0.342635
-0.344725
-0.345406
-0.346287
-0.347504
-0.348082
-0.348474
-0.348828
-0.349651
-0.349569
-0.34972
-0.350108
-0.349766
-0.349126
-0.348275
-0.347152
-0.345964
-0.344811
-0.342939
-0.341915
-0.340498
-0.338341
-0.336151
-0.335212
-0.334156
-0.334089
-0.334906
-0.336268
-0.337043
-0.337744
-0.339808
-0.341781
-0.342961
-0.344339
-0.345378
-0.346635
-0.348477
-0.348903
-0.348426
-0.349026
-0.349949
-0.34994
-0.350166
-0.349763
-0.349947
-0.349376
-0.348232
-0.346689
-0.345972
-0.345624
-0.343794
-0.342388
-0.340631
-0.339016
-0.337291
-0.335879
-0.334445
-0.334633
-0.335271
-0.337022
-0.33851
-0.338958
-0.340579
-0.3426
-0.343925
-0.344957
-0.345823
-0.347064
-0.348254
-0.348827
-0.348365
-0.348921
-0.34931
-0.349829
-0.350173
-0.35002
-0.350509
-0.349619
-0.348217
-0.34716
-0.346346
-0.345509
-0.344642
-0.343136
-0.341318
-0.339428
-0.337814
-0.336485
-0.334865
-0.335779
-0.336001
-0.337717
-0.338668
-0.339858
-0.341219
-0.343191
-0.344753
-0.345994
-0.346495
-0.34715
-0.347946
-0.348281
-0.348199
-0.348551
-0.349531
-0.350062
-0.350949
-0.35102
-0.350359
-0.34907
-0.347959
-0.346985
-0.346813
-0.346465
-0.345566
-0.344631
-0.342213
-0.339958
-0.338462
-0.337426
-0.336218
-0.336378
-0.336737
-0.337864
-0.339061
-0.340031
-0.341753
-0.342844
-0.344472
-0.346324
-0.347341
-0.347782
-0.34809
-0.348282
-0.348786
-0.349264
-0.34993
-0.350915
-0.3518
-0.351192
-0.349851
-0.348883
-0.34851
-0.347366
-0.346985
-0.346848
-0.345533
-0.344703
-0.342277
-0.340367
-0.338664
-0.338214
-0.337009
)
;
    }
}


// ************************************************************************* //
