/*--------------------------------*- C++ -*----------------------------------*\
| =========                 |                                                 |
| \\      /  F ield         | OpenFOAM: The Open Source CFD Toolbox           |
|  \\    /   O peration     | Version:  2506                                  |
|   \\  /    A nd           | Website:  www.openfoam.com                      |
|    \\/     M anipulation  |                                                 |
\*---------------------------------------------------------------------------*/
FoamFile
{
    version     2.0;
    format      ascii;
    arch        "LSB;label=32;scalar=64";
    class       surfaceScalarField;
    location    "0.001";
    object      phi;
}
// * * * * * * * * * * * * * * * * * * * * * * * * * * * * * * * * * * * * * //

dimensions      [0 3 -1 0 0 0 0];

oriented        oriented;

internalField   nonuniform List<scalar> 
1200
(
5.38021e-06
1.80309e-08
7.54716e-08
5.39651e-06
1.62469e-08
6.90989e-08
5.40421e-06
1.27945e-08
5.61111e-08
5.40562e-06
9.25744e-09
4.41153e-08
5.40463e-06
6.43461e-09
3.34413e-08
5.402e-06
4.39347e-09
2.68939e-08
5.39865e-06
3.02826e-09
2.27378e-08
5.39476e-06
2.03657e-09
2.06493e-08
5.39001e-06
1.37303e-09
2.00292e-08
5.38586e-06
6.70961e-10
1.82511e-08
5.38221e-06
2.09746e-10
1.65471e-08
5.37939e-06
1.09308e-10
1.42049e-08
5.37701e-06
5.6699e-11
1.25217e-08
5.37522e-06
7.12034e-11
1.08808e-08
5.37395e-06
2.71799e-10
9.57925e-09
5.37264e-06
2.71742e-10
9.73257e-09
5.37079e-06
6.08542e-12
1.14163e-08
5.36663e-06
-2.58283e-10
1.54127e-08
5.36216e-06
6.9655e-11
1.58583e-08
5.35915e-06
8.02459e-10
1.30973e-08
5.35702e-06
1.17257e-09
1.13822e-08
5.3547e-06
1.24793e-09
1.1773e-08
5.35185e-06
1.29026e-09
1.31827e-08
5.34848e-06
1.34642e-09
1.50929e-08
5.34526e-06
1.6564e-09
1.65318e-08
5.34208e-06
2.31683e-09
1.88723e-08
5.33799e-06
3.25564e-09
2.38481e-08
5.33371e-06
4.63057e-09
2.99263e-08
5.33105e-06
6.43584e-09
3.69095e-08
5.33228e-06
9.02525e-09
4.56767e-08
5.34009e-06
1.24741e-08
5.69267e-08
1.59844e-08
6.94867e-08
6.73422e-06
2.72031e-08
6.5462e-08
6.74888e-06
2.49478e-08
6.12801e-08
6.75651e-06
2.03115e-08
5.12843e-08
6.75864e-06
1.52581e-08
4.10474e-08
6.75843e-06
1.09558e-08
3.15642e-08
6.75647e-06
7.77084e-09
2.56146e-08
6.75349e-06
5.46505e-09
2.21166e-08
6.74992e-06
3.59569e-09
2.03477e-08
6.74512e-06
2.16108e-09
2.04378e-08
6.74121e-06
1.25062e-09
1.7801e-08
6.73791e-06
6.64664e-10
1.55639e-08
6.73513e-06
6.26691e-10
1.34575e-08
6.73282e-06
7.3906e-10
1.15801e-08
6.73121e-06
7.07635e-10
9.93956e-09
6.72973e-06
6.7099e-10
9.66038e-09
6.72816e-06
7.30639e-10
9.84474e-09
6.7263e-06
3.93751e-10
1.08841e-08
6.72273e-06
-4.10076e-11
1.39875e-08
6.71866e-06
3.84822e-10
1.5051e-08
6.71527e-06
1.22844e-09
1.41496e-08
6.71285e-06
1.76219e-09
1.27232e-08
6.71049e-06
2.00696e-09
1.2664e-08
6.70765e-06
2.31717e-09
1.36427e-08
6.70452e-06
2.79712e-09
1.4698e-08
6.70165e-06
3.66951e-09
1.55819e-08
6.69875e-06
4.68805e-09
1.81296e-08
6.69509e-06
6.10734e-09
2.30505e-08
6.69122e-06
8.07797e-09
2.9218e-08
6.68935e-06
1.08843e-08
3.51274e-08
6.69144e-06
1.49439e-08
4.21799e-08
6.69933e-06
2.00705e-08
5.13516e-08
2.48022e-08
6.09044e-08
6.73454e-06
2.77633e-08
5.32966e-08
6.74683e-06
2.61759e-08
5.01897e-08
6.75403e-06
2.24178e-08
4.31699e-08
6.75692e-06
1.77992e-08
3.53432e-08
6.75782e-06
1.36312e-08
2.74186e-08
6.75674e-06
1.02484e-08
2.291e-08
6.7542e-06
7.35324e-09
2.07432e-08
6.75106e-06
4.9429e-09
1.91662e-08
6.74679e-06
3.12922e-09
1.8955e-08
6.7432e-06
2.03398e-09
1.66285e-08
6.74045e-06
1.71163e-09
1.38261e-08
6.73783e-06
1.73314e-09
1.23915e-08
6.73537e-06
1.53787e-09
1.15556e-08
6.73375e-06
1.3687e-09
9.95032e-09
6.73237e-06
1.28676e-09
9.40902e-09
6.7304e-06
1.23757e-09
1.03609e-08
6.72845e-06
9.87537e-10
1.07192e-08
6.72574e-06
6.70516e-10
1.22243e-08
6.72208e-06
5.93474e-10
1.45922e-08
6.71839e-06
9.82131e-10
1.54793e-08
6.71567e-06
1.67847e-09
1.42156e-08
6.71338e-06
2.20185e-09
1.36046e-08
6.71071e-06
2.60281e-09
1.45379e-08
6.70797e-06
3.48375e-09
1.52268e-08
6.70525e-06
4.75583e-09
1.63957e-08
6.70275e-06
6.01207e-09
1.83876e-08
6.69964e-06
7.62098e-09
2.2698e-08
6.69661e-06
9.84795e-09
2.75476e-08
6.69599e-06
1.31437e-08
3.11897e-08
6.69914e-06
1.73682e-08
3.60454e-08
6.70664e-06
2.2141e-08
4.3243e-08
2.60874e-08
4.97702e-08
6.73296e-06
2.45002e-08
3.99689e-08
6.74307e-06
2.37803e-08
3.83069e-08
6.74942e-06
2.1304e-08
3.46845e-08
6.75275e-06
1.76962e-08
2.95295e-08
6.75444e-06
1.38964e-08
2.43987e-08
6.75385e-06
1.06224e-08
2.20725e-08
6.75179e-06
7.95987e-09
2.0187e-08
6.74925e-06
5.64413e-09
1.82936e-08
6.7457e-06
3.73375e-09
1.78344e-08
6.74288e-06
2.74378e-09
1.53328e-08
6.74047e-06
2.37299e-09
1.36707e-08
6.73763e-06
2.22726e-09
1.34382e-08
6.7352e-06
1.82117e-09
1.23521e-08
6.73367e-06
1.26196e-09
1.09746e-08
6.73232e-06
1.13067e-09
1.05287e-08
6.73015e-06
1.13123e-09
1.15765e-08
6.72814e-06
1.19387e-09
1.14136e-08
6.72566e-06
1.14338e-09
1.22125e-08
6.72247e-06
9.03418e-10
1.38674e-08
6.71909e-06
1.20847e-09
1.46594e-08
6.7162e-06
1.53984e-09
1.47044e-08
6.71378e-06
1.79266e-09
1.46697e-08
6.71159e-06
2.25533e-09
1.48536e-08
6.70925e-06
3.40044e-09
1.57467e-08
6.70651e-06
4.97553e-09
1.73848e-08
6.70436e-06
6.5143e-09
1.8459e-08
6.70187e-06
8.01485e-09
2.19022e-08
6.69991e-06
1.0002e-08
2.5329e-08
6.70021e-06
1.30664e-08
2.76972e-08
6.70392e-06
1.68163e-08
3.03042e-08
6.71058e-06
2.03711e-08
3.5288e-08
2.31799e-08
3.85846e-08
6.73224e-06
1.94943e-08
2.97602e-08
6.7406e-06
1.88557e-08
3.03319e-08
6.74581e-06
1.72421e-08
2.98074e-08
6.74895e-06
1.49774e-08
2.64615e-08
6.75116e-06
1.22704e-08
2.21501e-08
6.75119e-06
9.60786e-09
2.08122e-08
6.74948e-06
7.49873e-09
1.98659e-08
6.74734e-06
5.83672e-09
1.77518e-08
6.74471e-06
4.35703e-09
1.63006e-08
6.74251e-06
3.24804e-09
1.46142e-08
6.74033e-06
2.38903e-09
1.41982e-08
6.73723e-06
1.56139e-09
1.53179e-08
6.73464e-06
1.08157e-09
1.39706e-08
6.73354e-06
7.86422e-10
1.11028e-08
6.73232e-06
6.49605e-10
1.09234e-08
6.73022e-06
6.41234e-10
1.2148e-08
6.72808e-06
1.02814e-09
1.22046e-08
6.72542e-06
1.32786e-09
1.29349e-08
6.72278e-06
1.42007e-09
1.30905e-08
6.71942e-06
1.37708e-09
1.47796e-08
6.71645e-06
1.2956e-09
1.50128e-08
6.71424e-06
1.50992e-09
1.43036e-08
6.71274e-06
2.2363e-09
1.36436e-08
6.71082e-06
3.24278e-09
1.53243e-08
6.70805e-06
4.44572e-09
1.82635e-08
6.70586e-06
6.12434e-09
1.91941e-08
6.70386e-06
7.59815e-09
2.11287e-08
6.70298e-06
9.15616e-09
2.27951e-08
6.70396e-06
1.12421e-08
2.46873e-08
6.70747e-06
1.395e-08
2.64744e-08
6.71339e-06
1.66398e-08
2.84773e-08
1.86449e-08
2.90556e-08
6.7316e-06
1.39615e-08
2.31404e-08
6.73898e-06
1.32928e-08
2.40748e-08
6.74355e-06
1.19983e-08
2.56741e-08
6.74624e-06
1.03392e-08
2.49592e-08
6.7485e-06
8.82705e-09
2.16215e-08
6.74907e-06
7.1261e-09
2.04313e-08
6.74781e-06
5.64186e-09
2.02908e-08
6.74586e-06
4.66499e-09
1.89187e-08
6.7436e-06
3.91347e-09
1.71304e-08
6.74165e-06
3.0247e-09
1.52922e-08
6.73949e-06
1.96833e-09
1.47958e-08
6.73674e-06
1.00495e-09
1.48607e-08
6.73434e-06
4.94716e-10
1.35774e-08
6.7334e-06
5.04779e-10
1.06571e-08
6.73231e-06
5.29495e-10
1.0322e-08
6.7306e-06
8.83442e-10
1.09026e-08
6.72838e-06
1.31974e-09
1.19912e-08
6.72551e-06
1.71183e-09
1.32898e-08
6.72273e-06
1.59672e-09
1.3948e-08
6.71933e-06
8.86044e-10
1.57566e-08
6.71666e-06
6.02056e-10
1.52126e-08
6.71497e-06
9.7965e-10
1.39467e-08
6.71374e-06
1.66347e-09
1.39169e-08
6.71202e-06
2.71561e-09
1.55648e-08
6.70972e-06
3.89612e-09
1.78236e-08
6.70733e-06
5.01083e-09
2.0177e-08
6.70541e-06
6.21061e-09
2.15133e-08
6.70506e-06
7.12676e-09
2.18843e-08
6.70667e-06
8.3731e-09
2.21722e-08
6.71016e-06
1.01555e-08
2.29381e-08
6.71539e-06
1.21188e-08
2.36674e-08
1.35832e-08
2.27839e-08
6.72835e-06
7.30204e-09
2.0887e-08
6.73511e-06
6.95369e-09
2.12062e-08
6.73931e-06
6.11571e-09
2.31692e-08
6.74215e-06
5.32054e-09
2.26537e-08
6.74422e-06
4.49879e-09
2.12708e-08
6.74501e-06
3.70677e-09
2.04025e-08
6.74425e-06
2.70844e-09
2.05728e-08
6.74253e-06
2.23015e-09
2.01489e-08
6.74013e-06
2.14517e-09
1.91227e-08
6.73801e-06
1.96726e-09
1.68128e-08
6.73595e-06
1.4057e-09
1.50547e-08
6.73365e-06
7.51634e-10
1.39473e-08
6.73177e-06
4.64127e-10
1.22014e-08
6.73085e-06
6.73908e-10
1.00466e-08
6.73009e-06
8.41654e-10
9.47759e-09
6.72846e-06
9.3537e-10
1.1199e-08
6.72619e-06
1.24262e-09
1.28801e-08
6.72282e-06
1.31838e-09
1.53229e-08
6.71944e-06
8.91152e-10
1.60764e-08
6.71647e-06
3.01152e-10
1.5479e-08
6.71446e-06
3.02555e-10
1.38869e-08
6.71307e-06
7.69477e-10
1.31245e-08
6.71222e-06
1.11779e-09
1.34811e-08
6.71063e-06
1.54191e-09
1.63274e-08
6.70826e-06
2.10561e-09
1.95751e-08
6.70595e-06
2.51298e-09
2.18513e-08
6.70375e-06
3.08656e-09
2.36599e-08
6.70373e-06
3.63497e-09
2.23136e-08
6.70587e-06
4.39426e-09
2.10713e-08
6.70954e-06
5.31307e-09
2.12484e-08
6.71428e-06
6.45625e-09
2.1974e-08
7.18238e-09
2.1207e-08
5.37222e-06
2.01802e-08
5.37848e-06
2.05325e-08
5.38271e-06
2.17154e-08
5.38552e-06
2.17714e-08
5.38762e-06
2.06386e-08
5.3882e-06
2.04884e-08
5.38797e-06
1.94289e-08
5.38663e-06
1.93982e-08
5.38415e-06
1.98512e-08
5.38165e-06
1.85994e-08
5.3795e-06
1.63339e-08
5.37758e-06
1.4128e-08
5.37619e-06
1.21068e-08
5.37523e-06
1.11485e-08
5.37439e-06
1.10731e-08
5.37298e-06
1.23824e-08
5.37049e-06
1.48953e-08
5.36662e-06
1.7402e-08
5.36309e-06
1.67348e-08
5.36071e-06
1.44517e-08
5.35917e-06
1.32428e-08
5.35767e-06
1.38775e-08
5.35689e-06
1.41092e-08
5.35544e-06
1.67116e-08
5.35292e-06
2.02524e-08
5.35079e-06
2.17245e-08
5.34856e-06
2.35092e-08
5.34875e-06
2.17761e-08
5.35105e-06
2.05162e-08
5.35494e-06
2.03168e-08
5.35925e-06
2.18348e-08
2.09954e-08
5.37384e-06
7.89678e-09
5.38354e-06
8.31011e-09
5.39221e-06
7.86571e-09
5.39495e-06
6.10705e-09
5.39807e-06
4.49472e-09
5.39784e-06
3.06258e-09
5.39655e-06
2.36415e-09
5.39413e-06
1.69508e-09
5.38823e-06
1.74021e-09
5.38415e-06
1.84412e-10
5.37986e-06
-8.04511e-10
5.3777e-06
-6.63279e-10
5.37536e-06
-9.06325e-10
5.37392e-06
-8.90236e-10
5.3741e-06
3.35483e-10
5.37432e-06
3.65415e-10
5.37477e-06
-5.4617e-10
5.36707e-06
-1.71173e-09
5.3594e-06
-7.67117e-10
5.35743e-06
1.82747e-09
5.3574e-06
2.48905e-09
5.35609e-06
2.1159e-09
5.35375e-06
1.72514e-09
5.34991e-06
9.25222e-10
5.34759e-06
6.79801e-10
5.34705e-06
1.54243e-09
5.34407e-06
2.41403e-09
5.34069e-06
3.86446e-09
5.33981e-06
4.58346e-09
5.34352e-06
5.44443e-09
5.35263e-06
6.79839e-09
7.28429e-09
6.73004e-06
1.50487e-08
6.7389e-06
1.38677e-08
6.74627e-06
1.22043e-08
6.74916e-06
9.55917e-09
6.75247e-06
6.81529e-09
6.75296e-06
5.07044e-09
6.75171e-06
4.09418e-09
6.74999e-06
2.41648e-09
6.74248e-06
6.80198e-10
6.73897e-06
8.04988e-11
6.73579e-06
-1.06876e-09
6.73325e-06
-4.35215e-10
6.73117e-06
7.14976e-10
6.73093e-06
7.21164e-10
6.72991e-06
4.22311e-10
6.72919e-06
1.24727e-09
6.72939e-06
2.29991e-10
6.72379e-06
-1.80178e-09
6.71775e-06
-7.44736e-11
6.71385e-06
2.55373e-09
6.71278e-06
3.25115e-09
6.71146e-06
2.94486e-09
6.7087e-06
3.21125e-09
6.7054e-06
3.32435e-09
6.70419e-06
4.48162e-09
6.70366e-06
4.9442e-09
6.70124e-06
5.75379e-09
6.69713e-06
6.40695e-09
6.69639e-06
6.95133e-09
6.7006e-06
8.81575e-09
6.70886e-06
1.19688e-08
1.36774e-08
6.73144e-06
1.44495e-08
6.73981e-06
1.43047e-08
6.74621e-06
1.39404e-08
6.74899e-06
1.19901e-08
6.7533e-06
1.06114e-08
6.75457e-06
9.40814e-09
6.75261e-06
6.79531e-09
6.75084e-06
4.07099e-09
6.74446e-06
2.01e-09
6.7404e-06
7.39508e-10
6.739e-06
1.55538e-09
6.73698e-06
2.77679e-09
6.73376e-06
2.33286e-09
6.73321e-06
2.39081e-09
6.73331e-06
2.40242e-09
6.73076e-06
2.45043e-09
6.72995e-06
1.68009e-09
6.7281e-06
6.5913e-10
6.72296e-06
-1.28767e-10
6.71712e-06
1.66642e-10
6.71506e-06
2.16885e-09
6.7143e-06
3.26426e-09
6.7114e-06
2.91653e-09
6.70914e-06
4.00267e-09
6.70724e-06
5.74329e-09
6.70705e-06
6.08364e-09
6.70447e-06
6.82573e-09
6.70026e-06
7.63058e-09
6.70084e-06
9.65142e-09
6.70633e-06
1.16281e-08
6.71315e-06
1.4189e-08
1.49094e-08
6.7313e-06
1.42971e-08
6.73945e-06
1.58055e-08
6.74426e-06
1.64233e-08
6.74762e-06
1.46253e-08
6.7521e-06
1.16466e-08
6.75196e-06
9.36288e-09
6.7499e-06
7.63932e-09
6.74878e-06
5.10448e-09
6.74319e-06
2.20393e-09
6.74122e-06
2.02811e-09
6.74023e-06
2.89921e-09
6.73654e-06
4.10055e-09
6.73382e-06
3.43486e-09
6.73322e-06
1.3891e-09
6.73336e-06
1.52428e-09
6.72999e-06
1.70069e-09
6.72893e-06
1.98176e-09
6.72731e-06
1.86486e-09
6.72325e-06
1.28992e-10
6.71913e-06
1.32994e-09
6.71616e-06
1.84753e-09
6.71396e-06
1.42901e-09
6.71248e-06
1.04976e-09
6.71088e-06
2.98016e-09
6.70758e-06
5.85272e-09
6.70779e-06
7.24843e-09
6.70528e-06
7.24353e-09
6.70227e-06
7.47142e-09
6.70282e-06
1.00563e-08
6.70889e-06
1.29852e-08
6.71388e-06
1.35626e-08
1.36564e-08
6.7328e-06
1.28759e-08
6.74006e-06
1.26001e-08
6.74246e-06
1.31081e-08
6.74464e-06
1.3472e-08
6.74982e-06
1.174e-08
6.75023e-06
9.22604e-09
6.74736e-06
7.92191e-09
6.74588e-06
7.00024e-09
6.74302e-06
5.1842e-09
6.74209e-06
3.92429e-09
6.74143e-06
2.98635e-09
6.73587e-06
1.10724e-09
6.73177e-06
6.91356e-10
6.73335e-06
3.42378e-10
6.73354e-06
5.03981e-11
6.73027e-06
-5.99868e-10
6.72881e-06
8.20424e-10
6.72557e-06
1.68531e-09
6.72445e-06
2.27543e-09
6.71964e-06
2.35076e-09
6.71574e-06
1.4936e-09
6.71358e-06
1.15247e-09
6.71441e-06
2.50817e-09
6.71375e-06
3.48371e-09
6.70897e-06
4.00922e-09
6.70779e-06
7.10819e-09
6.70551e-06
7.98229e-09
6.70486e-06
8.24589e-09
6.70575e-06
8.72876e-09
6.70947e-06
1.04157e-08
6.71397e-06
1.18324e-08
1.23767e-08
6.73253e-06
1.17027e-08
6.74057e-06
1.04217e-08
6.74283e-06
9.49439e-09
6.74291e-06
8.03533e-09
6.7473e-06
8.47692e-09
6.74892e-06
7.096e-09
6.74643e-06
5.92208e-09
6.74406e-06
5.89175e-09
6.74176e-06
5.90191e-09
6.74115e-06
4.54278e-09
6.73955e-06
2.22831e-09
6.73546e-06
9.53063e-11
6.73142e-06
-8.77241e-10
6.73306e-06
-1.03049e-10
6.73288e-06
-3.13923e-10
6.73168e-06
1.18102e-09
6.72967e-06
2.20751e-09
6.72617e-06
3.74108e-09
6.72453e-06
3.72114e-09
6.71879e-06
6.08331e-10
6.7154e-06
-7.19233e-10
6.71494e-06
1.61061e-10
6.71539e-06
1.22948e-09
6.71428e-06
3.47687e-09
6.71207e-06
5.64321e-09
6.70866e-06
6.67883e-09
6.70578e-06
8.35122e-09
6.70534e-06
7.55185e-09
6.70743e-06
7.27028e-09
6.71088e-06
8.4642e-09
6.71451e-06
1.04214e-08
1.19994e-08
6.72867e-06
6.63021e-09
6.73706e-06
6.31775e-09
6.73878e-06
4.70376e-09
6.74077e-06
4.48108e-09
6.74334e-06
3.90562e-09
6.74517e-06
3.83291e-09
6.74382e-06
1.60525e-09
6.74149e-06
1.52045e-09
6.73781e-06
2.91144e-09
6.73625e-06
3.7862e-09
6.73484e-06
2.7126e-09
6.73191e-06
9.57298e-10
6.72962e-06
3.90124e-10
6.73027e-06
1.79286e-09
6.7318e-06
2.45472e-09
6.73013e-06
2.13761e-09
6.72863e-06
3.28099e-09
6.72357e-06
3.42742e-09
6.71884e-06
1.58189e-09
6.71488e-06
-6.96012e-10
6.71369e-06
-3.15655e-10
6.71343e-06
1.54597e-09
6.71505e-06
1.77009e-09
6.71386e-06
1.9568e-09
6.71052e-06
2.82191e-09
6.70775e-06
2.43151e-09
6.7024e-06
2.98521e-09
6.70248e-06
3.13978e-09
6.70604e-06
3.87884e-09
6.71026e-06
4.41821e-09
6.71351e-06
6.35597e-09
7.00664e-09
5.37257e-06
5.37965e-06
5.38276e-06
5.38439e-06
5.38746e-06
5.38714e-06
5.38793e-06
5.38708e-06
5.38289e-06
5.37938e-06
5.37729e-06
5.37555e-06
5.37523e-06
5.37515e-06
5.3757e-06
5.37549e-06
5.37299e-06
5.36595e-06
5.3608e-06
5.3595e-06
5.3598e-06
5.3579e-06
5.35948e-06
5.35897e-06
5.35439e-06
5.35256e-06
5.34682e-06
5.34749e-06
5.35084e-06
5.35644e-06
5.3584e-06
)
;

boundaryField
{
    wall
    {
        type            calculated;
        value           uniform 0;
    }
    outlet
    {
        type            cyclic;
        value           nonuniform List<scalar> 
16
(
5.35653e-06
6.71432e-06
6.7193e-06
6.72098e-06
6.7223e-06
6.72314e-06
6.72094e-06
5.3653e-06
5.36249e-06
6.71886e-06
6.72282e-06
6.72236e-06
6.723e-06
6.72349e-06
6.72062e-06
5.36448e-06
)
;
    }
    inlet
    {
        type            cyclic;
        value           nonuniform List<scalar> 
16
(
-5.35653e-06
-6.71432e-06
-6.7193e-06
-6.72098e-06
-6.7223e-06
-6.72314e-06
-6.72094e-06
-5.3653e-06
-5.36249e-06
-6.71886e-06
-6.72282e-06
-6.72236e-06
-6.723e-06
-6.72349e-06
-6.72062e-06
-5.36448e-06
)
;
    }
    procBoundary2to1
    {
        type            processor;
        value           nonuniform List<scalar> 
256
(
-1.17184e-07
-1.01651e-07
-7.66007e-08
-5.47869e-08
-3.88814e-08
-2.86604e-08
-2.24181e-08
-1.87907e-08
-1.6656e-08
-1.47748e-08
-1.31007e-08
-1.14986e-08
-1.01982e-08
-9.16299e-09
-8.57433e-09
-8.70205e-09
-9.56889e-09
-1.09979e-08
-1.14569e-08
-1.08854e-08
-1.04254e-08
-1.07003e-08
-1.16285e-08
-1.3063e-08
-1.49697e-08
-1.80137e-08
-2.3014e-08
-3.02734e-08
-4.06874e-08
-5.59304e-08
-7.72119e-08
-1.01904e-07
-9.45287e-08
-8.46462e-08
-6.64264e-08
-4.91803e-08
-3.58713e-08
-2.70367e-08
-2.15736e-08
-1.83322e-08
-1.64324e-08
-1.44664e-08
-1.27163e-08
-1.12019e-08
-9.94538e-09
-8.96943e-09
-8.57932e-09
-8.73333e-09
-9.41608e-09
-1.06326e-08
-1.12917e-08
-1.11932e-08
-1.08842e-08
-1.10644e-08
-1.18336e-08
-1.30199e-08
-1.47214e-08
-1.75981e-08
-2.22413e-08
-2.88051e-08
-3.76978e-08
-5.01893e-08
-6.68354e-08
-8.47207e-08
-6.90987e-08
-6.37002e-08
-5.24835e-08
-4.07667e-08
-3.09973e-08
-2.4312e-08
-2.00887e-08
-1.73736e-08
-1.5654e-08
-1.38221e-08
-1.21181e-08
-1.08762e-08
-9.89354e-09
-8.99911e-09
-8.64051e-09
-8.90169e-09
-9.36029e-09
-1.02234e-08
-1.11436e-08
-1.15409e-08
-1.14145e-08
-1.15064e-08
-1.21573e-08
-1.31766e-08
-1.47552e-08
-1.72098e-08
-2.11022e-08
-2.62934e-08
-3.28246e-08
-4.16266e-08
-5.28054e-08
-6.37211e-08
-4.86876e-08
-4.60231e-08
-3.99171e-08
-3.27587e-08
-2.63515e-08
-2.18582e-08
-1.87362e-08
-1.64521e-08
-1.48881e-08
-1.32259e-08
-1.19208e-08
-1.10944e-08
-1.02008e-08
-9.34231e-09
-9.02054e-09
-9.30355e-09
-9.60053e-09
-1.02125e-08
-1.09853e-08
-1.15021e-08
-1.16763e-08
-1.1845e-08
-1.2319e-08
-1.33173e-08
-1.48627e-08
-1.68124e-08
-1.98053e-08
-2.35271e-08
-2.79237e-08
-3.34565e-08
-4.01826e-08
-4.6072e-08
-3.46982e-08
-3.37627e-08
-3.09598e-08
-2.68821e-08
-2.27368e-08
-1.98204e-08
-1.76943e-08
-1.58079e-08
-1.42934e-08
-1.29211e-08
-1.2028e-08
-1.15536e-08
-1.06433e-08
-9.52923e-09
-9.22256e-09
-9.55329e-09
-9.9064e-09
-1.04577e-08
-1.09595e-08
-1.15912e-08
-1.18007e-08
-1.18155e-08
-1.21197e-08
-1.32505e-08
-1.49555e-08
-1.66175e-08
-1.87084e-08
-2.107e-08
-2.38514e-08
-2.71164e-08
-3.06642e-08
-3.34281e-08
-2.60651e-08
-2.58925e-08
-2.49937e-08
-2.30172e-08
-2.04352e-08
-1.85253e-08
-1.71704e-08
-1.5793e-08
-1.44265e-08
-1.31215e-08
-1.22205e-08
-1.15537e-08
-1.05877e-08
-9.43566e-09
-9.1108e-09
-9.43519e-09
-1.00636e-08
-1.08053e-08
-1.13414e-08
-1.18697e-08
-1.18468e-08
-1.17232e-08
-1.21188e-08
-1.33183e-08
-1.49716e-08
-1.66728e-08
-1.82065e-08
-1.95025e-08
-2.09125e-08
-2.26336e-08
-2.43801e-08
-2.54743e-08
-2.16381e-08
-2.1622e-08
-2.14855e-08
-2.0478e-08
-1.90112e-08
-1.77757e-08
-1.68825e-08
-1.59852e-08
-1.49565e-08
-1.36404e-08
-1.24311e-08
-1.13965e-08
-1.0288e-08
-9.29158e-09
-9.02792e-09
-9.62317e-09
-1.05395e-08
-1.15538e-08
-1.19924e-08
-1.19241e-08
-1.15767e-08
-1.15283e-08
-1.20786e-08
-1.35626e-08
-1.54163e-08
-1.70474e-08
-1.83334e-08
-1.87989e-08
-1.92374e-08
-2.00768e-08
-2.10466e-08
-2.14725e-08
-1.98078e-08
-1.98326e-08
-1.9833e-08
-1.92616e-08
-1.82343e-08
-1.73669e-08
-1.64837e-08
-1.58354e-08
-1.52199e-08
-1.41382e-08
-1.27786e-08
-1.14491e-08
-1.02597e-08
-9.51093e-09
-9.39708e-09
-1.00352e-08
-1.11621e-08
-1.22121e-08
-1.23099e-08
-1.17766e-08
-1.1398e-08
-1.16064e-08
-1.22118e-08
-1.37208e-08
-1.5627e-08
-1.70755e-08
-1.81996e-08
-1.83287e-08
-1.8422e-08
-1.88911e-08
-1.9688e-08
-1.98616e-08
)
;
    }
    procBoundary2to3
    {
        type            processor;
        value           nonuniform List<scalar> 
256
(
5.62216e-08
5.10939e-08
3.95682e-08
3.52725e-08
2.58216e-08
2.40705e-08
2.16541e-08
2.13812e-08
2.41871e-08
2.21426e-08
2.16449e-08
1.70265e-08
1.57658e-08
1.32182e-08
9.06518e-09
9.14352e-09
1.1512e-08
2.48213e-08
2.42952e-08
1.32419e-08
8.92168e-09
1.09719e-08
1.37984e-08
1.80021e-08
1.8172e-08
1.78707e-08
2.44182e-08
2.94398e-08
3.32025e-08
3.65258e-08
4.10197e-08
5.23424e-08
4.71339e-08
4.68667e-08
3.95699e-08
3.47095e-08
2.59324e-08
2.3112e-08
2.16365e-08
2.13487e-08
2.90077e-08
2.14207e-08
1.9e-08
1.57731e-08
1.20398e-08
8.57029e-09
1.05928e-08
9.67865e-09
9.91016e-09
1.96814e-08
2.03928e-08
1.73296e-08
1.30239e-08
1.31618e-08
1.49129e-08
1.55943e-08
1.29925e-08
1.52617e-08
2.21243e-08
3.07906e-08
3.34943e-08
3.46058e-08
3.79217e-08
4.45041e-08
4.52772e-08
4.13816e-08
3.50334e-08
3.01248e-08
1.93119e-08
1.73093e-08
1.99955e-08
1.92897e-08
2.39976e-08
2.00369e-08
1.25953e-08
1.12034e-08
1.31598e-08
8.83031e-09
7.3271e-09
1.17099e-08
1.00799e-08
1.16134e-08
1.97829e-08
2.37034e-08
1.73638e-08
1.40386e-08
1.77406e-08
1.68036e-08
1.70394e-08
1.74385e-08
2.41963e-08
3.05428e-08
2.7903e-08
2.7747e-08
3.42015e-08
3.88716e-08
3.11821e-08
2.86568e-08
2.73869e-08
2.35364e-08
1.88816e-08
2.22629e-08
2.14039e-08
1.83776e-08
2.32238e-08
1.60207e-08
1.33176e-08
1.58023e-08
1.39685e-08
1.25741e-08
1.12726e-08
1.56959e-08
1.21713e-08
1.26257e-08
1.76676e-08
1.76225e-08
1.79944e-08
1.87007e-08
1.81976e-08
1.83724e-08
2.0579e-08
1.70821e-08
2.39908e-08
2.84967e-08
2.67496e-08
2.28735e-08
3.09296e-08
3.13541e-08
2.13767e-08
2.62809e-08
3.07209e-08
2.54365e-08
1.68783e-08
2.05363e-08
2.24555e-08
1.73343e-08
1.61818e-08
1.36504e-08
1.47722e-08
2.38636e-08
2.08119e-08
1.05697e-08
1.22168e-08
1.77134e-08
1.4826e-08
1.635e-08
1.20667e-08
1.85686e-08
1.92736e-08
1.67338e-08
1.13527e-08
1.54828e-08
2.48861e-08
2.05219e-08
2.26613e-08
2.26713e-08
2.51302e-08
2.53223e-08
2.57079e-08
2.13056e-08
1.52829e-08
1.82132e-08
2.70266e-08
3.03159e-08
2.04887e-08
2.09408e-08
2.47797e-08
2.23976e-08
1.87197e-08
1.52827e-08
1.71516e-08
1.99659e-08
1.91802e-08
9.4655e-09
1.08636e-08
1.03193e-08
1.2615e-08
1.474e-08
1.41423e-08
2.32409e-08
2.08132e-08
1.53961e-08
1.47489e-08
1.66811e-08
1.83953e-08
2.40139e-08
2.40249e-08
2.30176e-08
2.15455e-08
2.14361e-08
2.14515e-08
1.41759e-08
1.79095e-08
1.69201e-08
2.62341e-08
2.42263e-08
2.32636e-08
2.18352e-08
2.62408e-08
2.68515e-08
2.57906e-08
1.91337e-08
1.59829e-08
1.60174e-08
1.32235e-08
7.49952e-09
5.18117e-09
1.19071e-08
1.33114e-08
2.06961e-08
2.29437e-08
2.07422e-08
1.46688e-08
1.20071e-08
1.13139e-08
1.90386e-08
2.57347e-08
2.88726e-08
3.43724e-08
2.66449e-08
2.09036e-08
2.10809e-08
2.27878e-08
1.90889e-08
1.87151e-08
1.97736e-08
2.33089e-08
2.46272e-08
2.14697e-08
2.46439e-08
2.02445e-08
2.17708e-08
2.69497e-08
2.5892e-08
2.1137e-08
1.68271e-08
1.28176e-08
1.3022e-08
1.29779e-08
1.47288e-08
2.06777e-08
2.78683e-08
2.34644e-08
1.50585e-08
1.26309e-08
1.73227e-08
1.42941e-08
1.91778e-08
2.76584e-08
2.59866e-08
3.22284e-08
2.42544e-08
2.10368e-08
1.91371e-08
2.623e-08
2.19243e-08
)
;
    }
}


// ************************************************************************* //
