FoamFile
{version 2.0; format ascii;class Cloud<passiveParticle>; location 0;object  positions;}
2493
(
( -6.72906e-05 -0.0133273 0.00606617 ) 0 
( -0.00754392 -0.0110081 0.0048758 ) 0 
( -0.00223945 -0.00140622 0.00136531 ) 0 
( -0.0100792 -0.00707545 0.00587828 ) 0 
( -0.0114244 -0.00690704 0.00562056 ) 0 
( -0.0110158 -5.22531e-05 0.00332709 ) 0 
( -0.00226004 -0.00266579 0.00732999 ) 0 
( -0.00572588 -0.00364709 0.00789539 ) 0 
( -0.00196872 -0.00297521 0.00189829 ) 0 
( -0.00378329 -0.00471253 0.00592603 ) 0 
( -0.0133493 -0.000144076 0.00733834 ) 0 
( -0.00163122 -0.00415325 0.00124199 ) 0 
( -0.00904782 -0.00199707 0.00570246 ) 0 
( -0.00807762 -0.0011279 0.0073327 ) 0 
( -0.00373744 -0.00974579 0.00594634 ) 0 
( -6.80499e-06 -0.00300556 0.00254411 ) 0 
( -0.0018556 -0.00898217 0.00308786 ) 0 
( -0.00119011 -0.000751784 0.00569243 ) 0 
( -0.00445178 -0.0053782 0.00319489 ) 0 
( -0.00778101 -0.00872253 0.00584391 ) 0 
( -0.00389571 -0.00110599 0.000499777 ) 0 
( -0.00648705 -0.0107189 0.00559472 ) 0 
( -0.00074733 -0.00457384 0.00405783 ) 0 
( -0.00606072 -0.00684839 0.00462026 ) 0 
( -0.0101449 -0.00323124 0.00316791 ) 0 
( -0.000237712 -0.00918542 0.00215868 ) 0 
( -0.000763207 -0.00713901 0.00210218 ) 0 
( -0.0063082 -0.00547311 0.00146799 ) 0 
( -0.000174351 -0.0111817 0.00489451 ) 0 
( -0.00392934 -0.00567316 0.00131167 ) 0 
( -0.0023103 -0.00648719 0.0055308 ) 0 
( -0.00546192 -0.00452758 0.00831459 ) 0 
( -0.00606207 -0.00887558 0.00533956 ) 0 
( -0.0103628 -0.00671881 0.00122636 ) 0 
( -0.00469852 -0.00989106 0.00618071 ) 0 
( -0.000660362 -0.0115087 0.00198868 ) 0 
( -0.0039153 -0.0127633 0.00589627 ) 0 
( -0.00586443 -0.00896205 0.0032433 ) 0 
( -0.00620921 -0.00730323 0.00206781 ) 0 
( -0.0110354 -0.00546642 0.00214889 ) 0 
( -0.00161663 -0.0100711 0.00527388 ) 0 
( -0.010209 -0.00744225 0.00339019 ) 0 
( -0.00263929 -0.000177142 0.00461042 ) 0 
( -0.00858393 -0.000906323 0.00532829 ) 0 
( -0.00473653 -0.00224083 0.00756882 ) 0 
( -0.0117159 -0.000121381 0.00421523 ) 0 
( -0.0126315 -0.000305501 0.00269555 ) 0 
( -0.00416963 -0.00465943 0.0025592 ) 0 
( -0.000599502 -0.0067756 0.0082024 ) 0 
( -0.00509663 -0.00873576 0.00557994 ) 0 
( -0.00261995 -0.010573 0.00336705 ) 0 
( -0.00890634 -0.00942975 0.00478029 ) 0 
( -0.0113011 -0.00392293 0.00483501 ) 0 
( -0.0041886 -0.0117805 0.00456401 ) 0 
( -0.0026155 -0.0130915 0.00740621 ) 0 
( -0.00324078 -0.0120637 0.0044156 ) 0 
( -0.00518488 -0.000717072 0.00712773 ) 0 
( -0.00728457 -0.00527538 0.00138191 ) 0 
( -0.00903249 -0.00731475 0.000499853 ) 0 
( -0.0020474 -0.00861318 0.00740521 ) 0 
( -0.0103051 -0.00173699 0.00776762 ) 0 
( -0.00843115 -0.00645395 0.0027357 ) 0 
( -0.00183028 -0.00587314 0.00739461 ) 0 
( -0.00158937 -0.00919682 0.00478954 ) 0 
( -0.0080693 -0.000728201 0.00107887 ) 0 
( -0.00440892 -0.00020147 0.00405 ) 0 
( -0.00778246 -0.00341349 0.00135636 ) 0 
( -0.00489015 -0.00125099 0.00791983 ) 0 
( -0.00273216 -0.00553229 0.00713059 ) 0 
( -0.000388485 -0.0109966 0.0032664 ) 0 
( -0.0115641 -0.00462812 0.00201663 ) 0 
( -0.00563171 -0.00169891 0.00567424 ) 0 
( -0.00515035 -0.00101066 0.00452568 ) 0 
( -0.00336177 -0.00921968 0.00198379 ) 0 
( -0.00764077 -0.0109464 0.000499856 ) 0 
( -0.00857442 -0.00908609 0.00769967 ) 0 
( -0.00393795 -0.00128084 0.00485072 ) 0 
( -0.000840333 -0.00585695 0.00779206 ) 0 
( -0.0109585 -0.00289993 0.000499582 ) 0 
( -0.00430791 -0.00998937 0.00495071 ) 0 
( -0.0121117 -0.00263253 0.00147178 ) 0 
( -0.00372915 -0.0123395 0.00138634 ) 0 
( -0.000236125 -8.87244e-05 0.00862586 ) 0 
( -0.000769203 -0.00902552 0.00125671 ) 0 
( -0.00434219 -0.00735155 0.00669164 ) 0 
( -0.00438378 -0.000571877 0.00654751 ) 0 
( -0.00414497 -0.00994322 0.00391602 ) 0 
( -0.00351022 -0.000560343 0.00430212 ) 0 
( -0.00222654 -0.00668109 0.00261353 ) 0 
( -0.00315675 -0.0101825 0.00412691 ) 0 
( -0.00586198 -0.00131658 0.00364576 ) 0 
( -0.0043974 -0.0106616 0.00674335 ) 0 
( -0.00565682 -0.00261462 0.0078187 ) 0 
( -0.0053077 -0.00691902 0.00124766 ) 0 
( -0.005659 -0.0108439 0.00719208 ) 0 
( -0.00922613 -0.00310195 0.000686862 ) 0 
( -0.0120198 -0.00579628 0.00699946 ) 0 
( -0.00549923 -0.00600242 0.00296406 ) 0 
( -0.00107643 -0.0075516 0.00470889 ) 0 
( -0.011609 -0.0065922 0.00655273 ) 0 
( -0.00854248 -0.0102592 0.00643601 ) 0 
( -0.0115121 -0.00337798 0.00118101 ) 0 
( -0.00719609 -0.00232575 0.00769445 ) 0 
( -0.0024441 -0.00357115 0.00125127 ) 0 
( -0.00687305 -0.00836037 0.00561664 ) 0 
( -0.000104474 -0.00065796 0.00374604 ) 0 
( -0.00486882 -0.00887684 0.00304988 ) 0 
( -0.00840562 -0.00529156 0.00463142 ) 0 
( -0.0067719 -0.00125839 0.00405633 ) 0 
( -0.00849881 -0.00800555 0.00605926 ) 0 
( -0.00927816 -0.00480407 0.00460039 ) 0 
( -0.0059863 -0.00768946 0.00408462 ) 0 
( -0.00749366 -0.00725547 0.00346426 ) 0 
( -0.00456536 -0.0070971 0.00189348 ) 0 
( -0.0050963 -0.00209318 0.00492756 ) 0 
( -0.0102048 -0.0049645 0.00421756 ) 0 
( -0.00912847 -0.00594998 0.00324803 ) 0 
( -0.00660814 -0.00151365 0.00556437 ) 0 
( -0.00931783 -0.00322306 0.00704945 ) 0 
( -0.00561662 -0.00647237 0.00784525 ) 0 
( -0.00288494 -0.0112124 0.00556719 ) 0 
( -0.0119009 -0.00329525 0.00553 ) 0 
( -0.00114084 -0.00594404 0.00119726 ) 0 
( -0.00952026 -0.00665481 0.0038482 ) 0 
( -0.00489973 -0.0124185 0.000499713 ) 0 
( -0.00681964 -0.00855068 0.00659676 ) 0 
( -0.00631024 -0.0101608 0.00156705 ) 0 
( -0.000150723 -0.00436604 0.000499724 ) 0 
( -0.0091079 -0.00847093 0.00670337 ) 0 
( -0.0119077 -0.0040849 0.00300136 ) 0 
( -0.00687743 -0.000574797 0.0033079 ) 0 
( -0.000622995 -0.00604786 0.00427055 ) 0 
( -0.00742742 -0.00812669 0.00397105 ) 0 
( -0.00623659 -0.00582878 0.00604848 ) 0 
( -0.00888102 -0.00177208 0.00133939 ) 0 
( -0.00520572 -0.00741491 0.00619209 ) 0 
( -0.0017769 -5.65881e-05 0.00610681 ) 0 
( -0.000295247 -0.0133468 0.000499851 ) 0 
( -0.0124332 -0.000846846 0.00049962 ) 0 
( -0.00608715 -0.00285961 0.00470235 ) 0 
( -0.00288203 -0.0123347 0.00333631 ) 0 
( -0.00211458 -0.00458943 0.00523931 ) 0 
( -8.62589e-05 -0.00897638 0.000499702 ) 0 
( -0.00301617 -0.000911122 0.0009337 ) 0 
( -0.00539803 -0.007159 0.00715209 ) 0 
( -0.00454719 -0.0108257 0.0031318 ) 0 
( -0.000669305 -0.00286792 0.00415566 ) 0 
( -0.00313257 -0.010171 0.00218942 ) 0 
( -0.00601351 -0.00906607 0.000499755 ) 0 
( -0.0101369 -0.00346978 0.000499911 ) 0 
( -0.0100859 -0.00333709 0.00427838 ) 0 
( -0.00919141 -0.00774066 0.00274383 ) 0 
( -0.00376229 -0.0047268 0.00718354 ) 0 
( -0.00725522 -0.00403125 0.00407666 ) 0 
( -0.0078791 -0.00718547 0.00438414 ) 0 
( -0.00754747 -0.00390707 0.000499837 ) 0 
( -0.0050349 -0.0116247 0.00109731 ) 0 
( -0.0048154 -0.00424209 0.00419882 ) 0 
( -0.00641705 -0.00149997 0.00283446 ) 0 
( -0.00289158 -0.0121487 0.00722081 ) 0 
( -0.00929536 -0.00212216 0.000499676 ) 0 
( -0.00302795 -0.000572594 0.00831569 ) 0 
( -0.00685291 -0.00226672 0.00495095 ) 0 
( -0.00891879 -0.00741413 0.0069508 ) 0 
( -0.00711063 -0.0103295 0.00726096 ) 0 
( -0.00202303 -0.00685222 0.00733566 ) 0 
( -0.0073719 -0.00201054 0.00597595 ) 0 
( -0.00130994 -0.002854 0.00708228 ) 0 
( -0.00692098 -0.00497306 0.00622657 ) 0 
( -0.00712864 -0.00488109 0.00354909 ) 0 
( -0.0133497 -5.28533e-05 0.00543578 ) 0 
( -0.00716582 -0.00290969 0.000499863 ) 0 
( -0.00946884 -0.00207182 0.00660626 ) 0 
( -0.0131787 -0.00213188 0.00136664 ) 0 
( -6.74098e-05 -0.0103058 0.00536491 ) 0 
( -0.000852249 -0.0124607 0.00406488 ) 0 
( -0.0058849 -0.0101304 0.00406921 ) 0 
( -0.00497299 -0.00129343 0.00312275 ) 0 
( -0.00947345 -0.00415034 0.00533154 ) 0 
( -9.09244e-05 -0.0049242 0.00706642 ) 0 
( -0.0101512 -0.000749511 0.00774582 ) 0 
( -0.0022629 -0.00755994 0.0054505 ) 0 
( -0.00722944 -0.00778218 0.00708788 ) 0 
( -0.00405842 -0.00730881 0.00337183 ) 0 
( -0.00545294 -0.00339159 0.00153503 ) 0 
( -0.000983445 -0.00841418 0.00696221 ) 0 
( -0.00874287 -0.009192 0.00105371 ) 0 
( -0.00168669 -0.0055645 0.00289758 ) 0 
( -0.00257222 -0.010531 0.000499794 ) 0 
( -0.00477011 -0.00387218 0.00861549 ) 0 
( -0.00835105 -0.0101679 0.00404578 ) 0 
( -0.00261576 -0.0100026 0.00135018 ) 0 
( -0.00309914 -0.00591552 0.00492993 ) 0 
( -0.00879139 -0.00607261 0.00049979 ) 0 
( -0.00103487 -0.00307181 0.00614601 ) 0 
( -0.00610148 -0.00250957 0.00192739 ) 0 
( -0.0101365 -0.000679252 0.00489514 ) 0 
( -0.00233401 -0.00955914 0.000499632 ) 0 
( -0.00743804 -0.00657071 0.0027377 ) 0 
( -0.00256485 -0.00643108 0.00425648 ) 0 
( -0.00709765 -0.000338898 0.00432286 ) 0 
( -0.00941878 -0.00136379 0.0050224 ) 0 
( -0.00188049 -0.0122312 0.000499857 ) 0 
( -0.00639463 -0.0110444 0.00202728 ) 0 
( -0.0121349 -0.00350934 0.0019519 ) 0 
( -0.00897133 -0.00591041 0.00616394 ) 0 
( -0.00592846 -0.00329012 0.00698046 ) 0 
( -0.00658151 -0.00324247 0.00256765 ) 0 
( -0.0093859 -0.00830685 0.000499864 ) 0 
( -0.0113313 -0.00545972 0.00456294 ) 0 
( -0.00768419 -0.00102246 0.00369335 ) 0 
( -0.00261501 -0.00773047 0.00745493 ) 0 
( -0.00298214 -0.00714191 0.00482258 ) 0 
( -0.00289175 -0.0111327 0.00430869 ) 0 
( -0.00110431 -0.00491915 0.000499768 ) 0 
( -0.00243816 -0.00973082 0.00481675 ) 0 
( -0.000634641 -0.000875104 0.000499799 ) 0 
( -0.000159589 -0.00802504 0.00395522 ) 0 
( -0.00559694 -0.0095202 0.00594606 ) 0 
( -0.00684706 -0.00448375 0.00092017 ) 0 
( -0.00833282 -0.00534117 0.00109039 ) 0 
( -0.00914856 -0.00555854 0.00524498 ) 0 
( -0.012206 -0.00540732 0.000881673 ) 0 
( -0.00308763 -0.0129881 0.00406467 ) 0 
( -0.000448779 -0.00365577 0.00171361 ) 0 
( -0.00165189 -0.00400752 0.00745721 ) 0 
( -0.00138186 -0.0037426 0.00394881 ) 0 
( -0.0118335 -0.00120171 0.00665909 ) 0 
( -0.00452896 -0.00486001 0.00814779 ) 0 
( -0.0059023 -0.00538622 0.00688048 ) 0 
( -0.00165831 -0.00971459 0.00134365 ) 0 
( -0.00113554 -0.00216485 0.00486125 ) 0 
( -0.0104503 -0.00225297 0.00666662 ) 0 
( -0.00576915 -0.00428473 0.0027927 ) 0 
( -1.56907e-05 -0.00741189 0.00703101 ) 0 
( -0.00471913 -0.00341742 0.00323916 ) 0 
( -0.00453939 -0.00662067 0.00391579 ) 0 
( -0.0103891 -0.00698187 0.00219058 ) 0 
( -0.00104256 -0.01176 0.00521346 ) 0 
( -0.00454986 -0.00728212 0.00766712 ) 0 
( -0.0100139 -0.00579743 0.00369827 ) 0 
( -0.00358164 -0.0093558 0.00449709 ) 0 
( -0.00749555 -0.00984752 0.0036396 ) 0 
( -0.00864199 -0.00858862 0.00525962 ) 0 
( -0.00900753 -0.000657826 0.00444565 ) 0 
( -0.0132939 -0.00122184 0.00433705 ) 0 
( -0.00510225 -0.0117134 0.00416363 ) 0 
( -0.00658676 -0.000609038 0.00513897 ) 0 
( -0.00409055 -0.0118312 0.000499755 ) 0 
( -0.00634144 -0.00580603 0.00767442 ) 0 
( -0.00402945 -0.00232662 0.00133773 ) 0 
( -0.00207373 -0.0103631 0.00211213 ) 0 
( -0.00473771 -0.00458977 0.00565467 ) 0 
( -0.00195339 -0.00263872 0.00858078 ) 0 
( -0.00824812 -0.00319243 0.000499717 ) 0 
( -0.00297391 -0.00661235 0.006905 ) 0 
( -0.00270386 -0.0122748 0.00207446 ) 0 
( -0.00503814 -0.00183132 0.0039643 ) 0 
( -0.0114135 -0.00482161 0.00532911 ) 0 
( -0.00222508 -0.00562354 0.000499814 ) 0 
( -0.0109076 -0.00174224 0.00379103 ) 0 
( -0.01217 -0.00548839 0.00793877 ) 0 
( -0.0028238 -0.0112274 0.00215354 ) 0 
( -0.00478261 -0.00651405 0.00628778 ) 0 
( -0.00144122 -0.00709744 0.00307325 ) 0 
( -0.00775434 -0.00432654 0.00300064 ) 0 
( -0.00928517 -0.000965521 0.00177026 ) 0 
( -0.0108028 -0.00567995 0.00538752 ) 0 
( -0.0106006 -0.0015622 0.00507705 ) 0 
( -0.00574844 -0.00748768 0.0053228 ) 0 
( -0.00310332 -0.00297236 0.00688785 ) 0 
( -0.000721557 -0.00992904 0.000831215 ) 0 
( -0.00480187 -0.0124566 0.00498613 ) 0 
( -0.00618248 -0.000757644 0.00707878 ) 0 
( -0.0100805 -0.000127166 0.00298141 ) 0 
( -0.00430635 -0.0020345 0.00331327 ) 0 
( -0.00612476 -0.00564082 0.000499678 ) 0 
( -0.0132734 -0.00143015 0.000499877 ) 0 
( -0.00271944 -0.0087857 0.00465169 ) 0 
( -0.00792831 -0.00947442 0.00498381 ) 0 
( -0.00815752 -0.00407347 0.00719778 ) 0 
( -0.00250217 -0.000936475 0.00643078 ) 0 
( -0.005579 -0.004214 0.00526647 ) 0 
( -0.000339182 -0.00185904 0.00222617 ) 0 
( -0.00341612 -0.000968585 0.00694097 ) 0 
( -0.0110216 -0.00564724 0.00360109 ) 0 
( -0.000534819 -0.00347165 0.00695245 ) 0 
( -0.00883065 -0.000159953 0.00139056 ) 0 
( -0.0032778 -0.00495425 0.00327054 ) 0 
( -0.00576663 -0.00800137 0.00292343 ) 0 
( -0.00129463 -0.00217535 0.00379608 ) 0 
( -0.00940612 -0.00947365 0.00174684 ) 0 
( -0.00093702 -0.00531128 0.00194405 ) 0 
( -0.00397294 -0.00937865 0.00301117 ) 0 
( -0.00898846 -0.00125062 0.0069389 ) 0 
( -0.000407399 -0.00252725 0.00554393 ) 0 
( -0.00189119 -0.00148697 0.00586196 ) 0 
( -0.00552766 -0.00876598 0.00206869 ) 0 
( -0.00400277 -0.00644622 0.00727757 ) 0 
( -0.00912646 -0.00286279 0.00165879 ) 0 
( -0.0113935 -0.00695813 0.00149535 ) 0 
( -0.00736121 -0.00347069 0.00724602 ) 0 
( -0.0103019 -0.000186687 0.00401427 ) 0 
( -0.00431988 -0.0117304 0.00349232 ) 0 
( -0.00249765 -0.00213294 0.00200168 ) 0 
( -0.00812869 -0.00179612 0.0053546 ) 0 
( -0.00848485 -0.00645479 0.0054808 ) 0 
( -0.00132925 -0.0040792 0.00488895 ) 0 
( -0.00351434 -0.00671311 0.00409281 ) 0 
( -0.0127444 -0.00397242 0.00386645 ) 0 
( -0.00584437 -0.000911943 0.00142278 ) 0 
( -0.00796449 -0.00899206 0.00410858 ) 0 
( -0.0131936 -0.00203405 0.0032314 ) 0 
( -0.00784604 -0.00191068 0.00326343 ) 0 
( -0.00444934 -0.00789508 0.00126167 ) 0 
( -0.0100106 -0.00501416 0.00182117 ) 0 
( -0.00456672 -0.0125449 0.0040171 ) 0 
( -0.0110178 -0.000894805 0.0017882 ) 0 
( -0.0116132 -0.00643208 0.00254439 ) 0 
( -0.0072324 -0.00591918 0.00603579 ) 0 
( -0.00263556 -0.00751607 0.000757017 ) 0 
( -0.00511876 -0.00150765 0.00107411 ) 0 
( -0.00354454 -0.00733456 0.00729455 ) 0 
( -0.00023022 -0.00528685 0.00088095 ) 0 
( -0.00754617 -0.000716455 0.00558089 ) 0 
( -0.00230596 -0.0123127 0.00416248 ) 0 
( -0.00617222 -0.0118365 0.00288502 ) 0 
( -0.011778 -0.0021212 0.00347681 ) 0 
( -0.00572278 -0.00395562 0.00384336 ) 0 
( -0.00737032 -0.00122243 0.00271547 ) 0 
( -0.000163098 -0.000258262 0.00122925 ) 0 
( -0.00391757 -0.00354542 0.00261656 ) 0 
( -0.00354407 -3.06932e-05 0.00658886 ) 0 
( -0.0072046 -0.000293537 0.000752729 ) 0 
( -0.00291234 -0.0123279 0.000499735 ) 0 
( -0.00244719 -0.00375601 0.00435512 ) 0 
( -0.00190826 -0.00810612 0.00469167 ) 0 
( -0.0122696 -0.00237762 0.00519401 ) 0 
( -0.00757757 -0.00319057 0.00249665 ) 0 
( -0.00824474 -0.0105 0.00115997 ) 0 
( -0.00899462 -0.00742089 0.00520932 ) 0 
( -0.000427199 -0.00376132 0.00454482 ) 0 
( -0.00764707 -0.00845074 0.00489107 ) 0 
( -0.00550799 -0.00827751 0.00475895 ) 0 
( -0.00656822 -0.00571888 0.00362335 ) 0 
( -0.0034144 -0.00342729 0.00445452 ) 0 
( -0.00436795 -0.0116206 0.00643935 ) 0 
( -0.00136489 -0.0017945 0.00172399 ) 0 
( -0.000405854 -0.0126114 0.00267039 ) 0 
( -0.000465661 -0.00376324 0.00354464 ) 0 
( -0.00871053 -0.00233231 0.00353706 ) 0 
( -0.0033091 -0.0112076 0.000499574 ) 0 
( -0.00717791 -0.00101995 0.00144298 ) 0 
( -0.005003 -0.0105955 0.00399202 ) 0 
( -0.00235905 -0.00388254 0.00819592 ) 0 
( -0.00919373 -0.00580392 0.00427668 ) 0 
( -0.00719959 -0.00401912 0.00194785 ) 0 
( -0.0035681 -0.00258683 0.00218569 ) 0 
( -0.00212374 -0.000615475 0.00535388 ) 0 
( -0.0117628 -0.00417436 0.00600666 ) 0 
( -0.0058362 -0.00138188 0.00821577 ) 0 
( -0.00679108 -0.00235089 0.00320324 ) 0 
( -0.00222297 -0.0131451 0.00593849 ) 0 
( -0.00509317 -0.00148233 0.00648839 ) 0 
( -0.00527711 -0.000504121 0.00365633 ) 0 
( -0.00313327 -0.00779887 0.00651043 ) 0 
( -0.0104085 -0.00248701 0.00250995 ) 0 
( -0.00281383 -0.00688134 0.00339803 ) 0 
( -0.000894023 -0.00146383 0.00855643 ) 0 
( -0.00999053 -0.00559874 0.000499616 ) 0 
( -0.00321418 -0.00431507 0.00404029 ) 0 
( -0.0102592 -0.00712144 0.00433597 ) 0 
( -5.09954e-05 -0.0067803 0.00530889 ) 0 
( -0.0125426 -0.00457235 0.00221503 ) 0 
( -0.0103859 -0.00769516 0.00515616 ) 0 
( -0.00123522 -0.00923968 0.00211509 ) 0 
( -0.00650471 -0.00695548 0.00117819 ) 0 
( -0.0106388 -0.00806463 0.00425827 ) 0 
( -0.00831437 -0.0084786 0.000499676 ) 0 
( -0.00123499 -0.00472873 0.00569401 ) 0 
( -0.00477178 -0.00229874 0.00600875 ) 0 
( -0.0076249 -0.00495059 0.000499653 ) 0 
( -0.00106675 -0.0015803 0.00302546 ) 0 
( -0.0102125 -0.00738843 0.000499484 ) 0 
( -0.00290292 -0.0018846 0.00736344 ) 0 
( -0.000677987 -0.0127195 0.00536275 ) 0 
( -0.00650686 -0.0108858 0.00443155 ) 0 
( -0.00318035 -0.00621707 0.00169026 ) 0 
( -0.000415665 -0.00248679 0.00682683 ) 0 
( -0.0114826 -0.00331175 0.006438 ) 0 
( -0.012833 -0.00358811 0.000499706 ) 0 
( -0.00436277 -0.00663858 0.0010284 ) 0 
( -0.00774884 -0.00908967 0.00108315 ) 0 
( -0.00521787 -0.00242201 0.00146762 ) 0 
( -0.00418453 -0.0111053 0.00118093 ) 0 
( -0.00306069 -0.00708218 0.00581747 ) 0 
( -0.00612618 -0.00305345 0.00369126 ) 0 
( -0.00847492 -0.00744321 0.00136812 ) 0 
( -0.00776867 -0.00628463 0.00480397 ) 0 
( -0.00884148 -0.00162029 0.00260466 ) 0 
( -0.0071517 -0.000750804 0.00732336 ) 0 
( -0.00709923 -0.00584887 0.007024 ) 0 
( -0.005854 -0.00729546 0.000499671 ) 0 
( -0.00742331 -0.00416165 0.00652499 ) 0 
( -0.00529299 -0.00834565 0.00378477 ) 0 
( -0.00741704 -0.00197548 0.00116953 ) 0 
( -0.00530605 -0.00536474 0.00371438 ) 0 
( -0.00999318 -0.00127716 0.00691152 ) 0 
( -0.00327393 -0.00169267 0.00150126 ) 0 
( -1.40212e-06 -0.00563456 0.00179009 ) 0 
( -0.00568619 -0.00226398 0.00325158 ) 0 
( -0.00391509 -0.00820799 0.00698017 ) 0 
( -0.00557719 -0.0108358 0.00148486 ) 0 
( -0.0111753 -0.00187915 0.00271611 ) 0 
( -0.00990819 -0.00590355 0.00579651 ) 0 
( -0.00333182 -0.00422068 0.000499827 ) 0 
( -0.0010603 -0.00122706 0.00663935 ) 0 
( -0.0114852 -0.00280306 0.0022324 ) 0 
( -0.0031991 -0.00429914 0.00219678 ) 0 
( -0.0131711 -0.00200114 0.00578724 ) 0 
( -0.00951695 -0.00247998 0.00296448 ) 0 
( -0.000177366 -0.0110096 0.00606799 ) 0 
( -8.62249e-05 -0.000285163 0.0076564 ) 0 
( -0.0114913 -0.00185297 0.00155528 ) 0 
( -0.00126992 -0.00979764 0.00736043 ) 0 
( -0.00127276 -0.00407957 0.0065316 ) 0 
( -0.00506914 -0.000706248 0.00205588 ) 0 
( -0.0061793 -0.00561092 0.00461846 ) 0 
( -0.0100156 -0.00264811 0.00747578 ) 0 
( -0.0116748 -0.00181414 0.00443005 ) 0 
( -0.00482416 -0.00695922 0.00538802 ) 0 
( -0.000342005 -0.00650588 0.00143706 ) 0 
( -0.00872333 -0.000567502 0.00625848 ) 0 
( -0.0018472 -0.00239902 0.00109017 ) 0 
( -0.0115671 -0.000494776 0.00261989 ) 0 
( -0.0113561 -0.00504478 0.000499719 ) 0 
( -0.00749628 -0.00894674 0.00320554 ) 0 
( -0.00492794 -5.02983e-05 0.00586296 ) 0 
( -0.0034451 -0.0019987 0.000499857 ) 0 
( -0.000697247 -0.0114699 0.00409228 ) 0 
( -0.00358985 -0.0033074 0.00132374 ) 0 
( -0.0118241 -0.000663949 0.00504811 ) 0 
( -0.00141298 -0.00627063 0.00210285 ) 0 
( -0.00409896 -0.00424969 0.004951 ) 0 
( -0.00211557 -0.0125013 0.00669676 ) 0 
( -0.0119333 -0.00280301 0.00435399 ) 0 
( -0.00821516 -0.000700141 0.00283122 ) 0 
( -0.000846819 -0.0118824 0.00319363 ) 0 
( -0.00147051 -0.00168549 0.000499656 ) 0 
( -0.00785993 -0.00440899 0.00130631 ) 0 
( -0.0018237 -0.011225 0.000499665 ) 0 
( -0.00140292 -0.0110892 0.00344159 ) 0 
( -0.00079224 -0.0133202 0.00350454 ) 0 
( -0.0037553 -0.00837734 0.00460883 ) 0 
( -0.0113402 -0.00508098 0.00683723 ) 0 
( -0.00476405 -0.00127538 0.00541416 ) 0 
( -0.00334081 -0.00383639 0.00643948 ) 0 
( -0.00783922 -0.000277773 0.00787377 ) 0 
( -0.0125359 -0.000538844 0.00375954 ) 0 
( -0.00989714 -0.00220764 0.00477953 ) 0 
( -0.00301786 -0.00920519 0.00551067 ) 0 
( -0.00530218 -0.00403596 0.00666864 ) 0 
( -0.0042548 -0.0088982 0.00384185 ) 0 
( -0.00512944 -0.0060318 0.00709188 ) 0 
( -0.00202573 -0.00344865 0.00671712 ) 0 
( -0.00653936 -0.00158446 0.00751302 ) 0 
( -0.00361183 -0.0104977 0.00326476 ) 0 
( -0.0042787 -0.00118297 0.00391022 ) 0 
( -0.00191542 -0.00459586 0.0042468 ) 0 
( -0.000242775 -0.00227575 0.0079184 ) 0 
( -0.0130458 -0.00278491 0.0025562 ) 0 
( -0.0103976 -0.00402902 0.00743902 ) 0 
( -0.00165442 -0.0132471 0.00400571 ) 0 
( -0.00655663 -0.0075666 0.00624104 ) 0 
( -0.00839005 -0.000315593 0.00373755 ) 0 
( -0.00407267 -0.00902095 0.00530518 ) 0 
( -0.00409843 -0.0029409 0.00637467 ) 0 
( -0.00134394 -0.00214862 0.00637448 ) 0 
( -0.00450871 -0.00311782 0.00171684 ) 0 
( -0.00499433 -0.00874725 0.00122328 ) 0 
( -0.00043691 -0.0119712 0.00598039 ) 0 
( -0.00644556 -0.00410755 0.00672679 ) 0 
( -0.0109974 -0.00416001 0.00664997 ) 0 
( -0.0122356 -0.00196406 0.00716559 ) 0 
( -0.000777775 -0.0124263 0.000499857 ) 0 
( -0.00753836 -0.00260957 0.00676928 ) 0 
( -0.00479675 -0.00489197 0.00677727 ) 0 
( -0.0108599 -0.00237927 0.0045604 ) 0 
( -0.00561257 -0.0032806 0.00281158 ) 0 
( -0.00220532 -0.00197804 0.00415875 ) 0 
( -0.00595326 -0.000618954 0.00292862 ) 0 
( -0.00845003 -0.00437398 0.000499818 ) 0 
( -0.00247821 -0.00300676 0.00501655 ) 0 
( -0.0029772 -0.00947142 0.00653723 ) 0 
( -0.000112914 -0.00995434 0.00298868 ) 0 
( -0.00483516 -0.0116352 0.00555539 ) 0 
( -0.00091923 -0.00247401 0.00862758 ) 0 
( -0.00517831 -0.00281987 0.00390954 ) 0 
( -0.0025543 -0.00196843 0.00528628 ) 0 
( -0.00797948 -0.00745205 0.000499698 ) 0 
( -0.00603223 -0.00057893 0.0043075 ) 0 
( -0.00229558 -0.0131412 0.000499858 ) 0 
( -0.0102252 -0.00496544 0.00316793 ) 0 
( -0.00838599 -0.00261816 0.00263534 ) 0 
( -0.00286465 -0.000189414 0.00587272 ) 0 
( -0.000250224 -0.0108907 0.00131829 ) 0 
( -0.00353649 -0.000733746 0.00176885 ) 0 
( -0.0126106 -0.00435541 0.00544795 ) 0 
( -0.00929595 -0.00176235 0.00411356 ) 0 
( -0.0105091 -0.00573671 0.00134288 ) 0 
( -0.00963472 -0.00316337 0.00515358 ) 0 
( -0.0105975 -0.00321544 0.00689352 ) 0 
( -0.00550275 -0.00437471 0.00135955 ) 0 
( -0.00733355 -0.00164024 0.00690418 ) 0 
( -0.0059502 -0.00461975 0.000499654 ) 0 
( -0.00548559 -0.000776196 0.000499613 ) 0 
( -0.00224637 -0.00957374 0.00721159 ) 0 
( -0.00224241 -0.00579709 0.00180677 ) 0 
( -0.0105096 -0.00168993 0.00145767 ) 0 
( -0.0010693 -0.0047824 0.00721278 ) 0 
( -0.00361086 -0.00518439 0.000499624 ) 0 
( -0.00535615 -0.0112733 0.00274901 ) 0 
( -0.00680158 -0.00785951 0.00148514 ) 0 
( -0.00609178 -0.0079993 0.00701565 ) 0 
( -0.000873741 -0.0075931 0.00752997 ) 0 
( -0.0131195 -0.0024706 0.00772061 ) 0 
( -0.00623309 -0.00984712 0.00517593 ) 0 
( -0.00118904 -0.00684348 0.00401189 ) 0 
( -0.00706703 -0.00328225 0.00344091 ) 0 
( -0.000638076 -0.00497017 0.00820715 ) 0 
( -0.00950963 -0.000274405 0.00566949 ) 0 
( -0.00447902 -0.000397606 0.00502926 ) 0 
( -0.0129488 -0.00323157 0.00639693 ) 0 
( -0.00441804 -0.000833917 0.00130773 ) 0 
( -0.00365062 -0.00212753 0.00674564 ) 0 
( -0.0123933 -0.00190477 0.000499851 ) 0 
( -0.0115094 -0.0003052 0.00635791 ) 0 
( -0.00626543 -6.11989e-05 0.000499863 ) 0 
( -0.000827447 -0.0101815 0.00365025 ) 0 
( -0.000840644 -0.00826328 0.00321963 ) 0 
( -0.00673197 -0.0115286 0.000499967 ) 0 
( -0.00372114 -0.00984397 0.00129032 ) 0 
( -0.00138157 -0.00925536 0.000499751 ) 0 
( -0.00940699 -0.0038638 0.00628719 ) 0 
( -0.00348648 -0.0128868 0.00218713 ) 0 
( -0.0108001 -0.00618887 0.000499823 ) 0 
( -0.00815453 -0.00213634 0.000499863 ) 0 
( -0.00920097 -0.00327329 0.00349754 ) 0 
( -0.00522526 -0.00562367 0.0061842 ) 0 
( -0.0021118 -0.00783848 0.00304288 ) 0 
( -0.00649791 -0.00243339 0.00698654 ) 0 
( -0.00774621 -0.0107491 0.00199009 ) 0 
( -0.00231743 -0.0105084 0.00686374 ) 0 
( -0.0127607 -0.00293346 0.0035031 ) 0 
( -0.00681899 -0.00993782 0.00437071 ) 0 
( -0.00348344 -0.0106994 0.00728676 ) 0 
( -0.00832299 -0.00602296 0.00383629 ) 0 
( -0.00386346 -0.00617617 0.00332505 ) 0 
( -0.00315192 -0.00108087 0.00351162 ) 0 
( -0.00711542 -0.00312456 0.00447549 ) 0 
( -0.0052337 -0.0105459 0.00556967 ) 0 
( -0.00448095 -0.00314248 0.0051463 ) 0 
( -0.00435993 -0.00030595 0.00751489 ) 0 
( -0.00565232 -0.00476073 0.00443204 ) 0 
( -0.0114799 -0.00596616 0.00140562 ) 0 
( -0.00681362 -0.00742392 0.00527068 ) 0 
( -0.00257221 -0.00299778 0.00601193 ) 0 
( -0.0106942 -0.000993452 0.000499784 ) 0 
( -0.00813633 -0.0105842 0.00316243 ) 0 
( -0.00355756 -0.0110329 0.00634732 ) 0 
( -0.00153821 -0.00819148 0.00612368 ) 0 
( -0.00314142 -0.00341392 0.0077842 ) 0 
( -0.00228871 -0.00844908 0.00381459 ) 0 
( -0.00587683 -0.0104035 0.00632159 ) 0 
( -0.0100387 -0.00414944 0.00131978 ) 0 
( -0.00102199 -0.0038754 0.000499691 ) 0 
( -0.00803203 -0.00145648 0.00176298 ) 0 
( -0.00437064 -0.0033469 0.0041737 ) 0 
( -0.00107548 -0.00843322 0.00518086 ) 0 
( -0.008243 -0.00810293 0.00208271 ) 0 
( -0.00756039 -0.00474663 0.00483749 ) 0 
( -0.00515644 -0.000165454 0.00121943 ) 0 
( -0.00102102 -9.78669e-05 0.00799737 ) 0 
( -0.00137597 -0.00322148 0.00800982 ) 0 
( -0.0020694 -0.00759266 0.00179166 ) 0 
( -0.0109101 -0.00767439 0.00601008 ) 0 
( -0.00600083 -0.00147624 0.00477091 ) 0 
( -0.00137195 -0.00719472 0.00571917 ) 0 
( -0.00174296 -0.00514677 0.0012347 ) 0 
( -0.000779204 -0.00926078 0.00326246 ) 0 
( -0.00133803 -0.0122265 0.00214752 ) 0 
( -0.00994154 -0.00410041 0.00364739 ) 0 
( -0.00357458 -0.00856415 0.00604201 ) 0 
( -0.00451269 -0.00568403 0.000499703 ) 0 
( -0.00489716 -0.00258144 0.00272023 ) 0 
( -0.00791517 -0.0107034 0.00575282 ) 0 
( -0.00542991 -0.00698198 0.00263037 ) 0 
( -0.00839298 -0.00908662 0.00198433 ) 0 
( -0.00600018 -0.00841106 0.00125488 ) 0 
( -0.0026599 -0.01144 0.00651448 ) 0 
( -0.00144728 -0.0100847 0.00637152 ) 0 
( -0.00164187 -0.0123505 0.00576278 ) 0 
( -0.0108972 -0.00390239 0.00176964 ) 0 
( -0.00473914 -0.00515613 0.00459693 ) 0 
( -5.02444e-05 -0.00940197 0.00579231 ) 0 
( -0.00244191 -0.00442457 0.00341407 ) 0 
( -0.00109606 -0.0123978 0.00659933 ) 0 
( -0.0110409 -0.00396754 0.000499782 ) 0 
( -0.00291168 -0.00809959 0.00160998 ) 0 
( -0.00612812 -0.00363595 0.000499738 ) 0 
( -0.00818044 -0.00808706 0.00700346 ) 0 
( -0.0095989 -0.00121572 0.00599477 ) 0 
( -0.00822277 -0.00372721 0.00424728 ) 0 
( -0.003975 -0.00730536 0.00475371 ) 0 
( -0.00254631 -0.00566305 0.00830872 ) 0 
( -0.0101126 -0.00599383 0.00222422 ) 0 
( -0.005866 -0.00892369 0.00670868 ) 0 
( -0.00174165 -0.00137067 0.00482167 ) 0 
( -0.00672984 -0.0115292 0.00366222 ) 0 
( -0.0065438 -0.00827213 0.00349343 ) 0 
( -0.00190291 -0.00160235 0.00702535 ) 0 
( -0.00530782 -0.00525507 0.00092763 ) 0 
( -0.00222078 -0.00155523 0.00324003 ) 0 
( -0.00757432 -0.00673338 0.00106441 ) 0 
( -0.00825799 -0.00905669 0.00675164 ) 0 
( -0.00382695 -0.0117144 0.00727794 ) 0 
( -0.000691561 -0.00937684 0.00655912 ) 0 
( -0.00378789 -0.00660983 0.00631491 ) 0 
( -0.000692226 -0.0105749 0.00680657 ) 0 
( -2.33564e-05 -0.00788808 0.000499719 ) 0 
( -0.0100999 -0.00588587 0.00469133 ) 0 
( -0.0094722 -0.0052713 0.00715718 ) 0 
( -0.0101619 -0.00327452 0.00599571 ) 0 
( -0.0055385 -0.0110014 0.000499652 ) 0 
( -0.004026 -0.00590935 0.0043962 ) 0 
( -0.00215774 -0.000366996 0.00133023 ) 0 
( -0.010634 -0.00317919 0.00511939 ) 0 
( -0.00250834 -0.00505609 0.00264015 ) 0 
( -0.007002 -0.00673354 0.0065685 ) 0 
( -0.012424 -0.00139913 0.00315861 ) 0 
( -0.00534157 -0.00780789 0.00170436 ) 0 
( -0.00957681 -0.00609484 0.00138616 ) 0 
( -0.00767142 -0.00336485 0.0059629 ) 0 
( -0.00883044 -0.00419586 0.00360597 ) 0 
( -0.00674538 -0.0105046 0.00353853 ) 0 
( -0.00531652 -0.0122458 0.00334483 ) 0 
( -0.0100659 -0.00502895 0.00520561 ) 0 
( -0.00328779 -0.00246271 0.00479643 ) 0 
( -0.00112181 -0.0116076 0.0011001 ) 0 
( -0.00586425 -0.000696581 0.00613288 ) 0 
( -0.0072848 -0.00802989 0.00286716 ) 0 
( -0.00330276 -0.00338107 0.00544707 ) 0 
( -0.00359379 -0.00466737 0.00135517 ) 0 
( -0.00242584 -0.00464392 0.00049987 ) 0 
( -0.00219069 -0.0095814 0.00592988 ) 0 
( -0.00456181 -0.00951015 0.00171631 ) 0 
( -0.0133148 -0.000968353 0.00330275 ) 0 
( -0.00831665 -0.00350485 0.00309239 ) 0 
( -0.0106594 -0.00651338 0.00714078 ) 0 
( -0.00308181 -0.00837305 0.00049973 ) 0 
( -0.010949 -0.0038232 0.00311209 ) 0 
( -0.0076292 -0.00377214 0.00505074 ) 0 
( -0.00918071 -0.00476766 0.0026894 ) 0 
( -0.011666 -0.00102843 0.00369527 ) 0 
( -0.00627442 -0.0117836 0.00135657 ) 0 
( -0.00698829 -0.00758404 0.000499866 ) 0 
( -0.00819222 -0.00146993 0.00637352 ) 0 
( -0.00694471 -0.0089987 0.00405129 ) 0 
( -0.0103119 -0.004652 0.000499743 ) 0 
( -0.00884452 -0.00862443 0.00306987 ) 0 
( -0.0112787 -0.00250188 0.00547383 ) 0 
( -0.00743043 -0.00123387 0.000499507 ) 0 
( -0.0109606 -0.00762155 0.00275529 ) 0 
( -0.00197572 -0.00311131 0.00345002 ) 0 
( -0.0122796 -0.00374999 0.00472398 ) 0 
( -0.000313851 -0.000512817 0.00622188 ) 0 
( -0.00317711 -0.00572709 0.00389691 ) 0 
( -0.00732986 -0.00139114 0.0048754 ) 0 
( -0.00910247 -0.00481609 0.00145301 ) 0 
( -0.00778894 -0.0059368 0.000499707 ) 0 
( -0.00921106 -0.00289974 0.00610837 ) 0 
( -0.000952177 -0.00265549 0.00202088 ) 0 
( -0.00291447 -0.00598724 0.00296129 ) 0 
( -0.00813068 -0.00289537 0.00752227 ) 0 
( -0.00538653 -0.00817934 0.000499812 ) 0 
( -0.00177373 -0.00089497 0.00208759 ) 0 
( -0.000712299 -0.00966695 0.00494531 ) 0 
( -0.00882199 -0.0100201 0.00049964 ) 0 
( -0.00136216 -0.00690927 0.00133522 ) 0 
( -0.00305785 -0.00425795 0.00503389 ) 0 
( -0.00291468 -0.00508598 0.00557552 ) 0 
( -0.00308075 -0.00811427 0.00529841 ) 0 
( -0.0101232 -0.00411587 0.00263008 ) 0 
( -0.0120283 -0.00158785 0.00575771 ) 0 
( -0.00380902 -0.000636751 0.005732 ) 0 
( -0.00515948 -0.00734323 0.00452781 ) 0 
( -0.0014704 -0.00827269 0.00221429 ) 0 
( -0.00813438 -0.00499873 0.00206556 ) 0 
( -0.00341051 -0.00696851 0.00107222 ) 0 
( -0.00225248 -0.00713344 0.00640397 ) 0 
( -0.0108748 -0.00774375 0.00115861 ) 0 
( -0.00581528 -0.0120169 0.000499748 ) 0 
( -0.00170228 -0.00465464 0.00210411 ) 0 
( -0.00713785 -0.0112819 0.00140204 ) 0 
( -0.00773538 -0.00809965 0.00122117 ) 0 
( -0.00134627 -0.00876583 0.00392075 ) 0 
( -0.0111843 -0.00728958 0.00467631 ) 0 
( -0.00368779 -0.00682123 0.00258146 ) 0 
( -0.000752429 -0.0011279 0.0048759 ) 0 
( -0.00453819 -0.000193239 0.0030577 ) 0 
( -0.00445454 -0.00198571 0.000499658 ) 0 
( -0.0075753 -0.00734405 0.0018561 ) 0 
( -0.00529832 -0.00347237 0.0046576 ) 0 
( -0.00789628 -0.00593701 0.00181537 ) 0 
( -0.0108497 -0.00101037 0.00309202 ) 0 
( -0.00203547 -0.00478317 0.00695641 ) 0 
( -0.0026994 -0.00650388 0.000499746 ) 0 