/*--------------------------------*- C++ -*----------------------------------*\
| =========                 |                                                 |
| \\      /  F ield         | OpenFOAM: The Open Source CFD Toolbox           |
|  \\    /   O peration     | Version:  2506                                  |
|   \\  /    A nd           | Website:  www.openfoam.com                      |
|    \\/     M anipulation  |                                                 |
\*---------------------------------------------------------------------------*/
FoamFile
{
    version     2.0;
    format      ascii;
    arch        "LSB;label=32;scalar=64";
    class       volVectorField;
    location    "0.01";
    object      U;
}
// * * * * * * * * * * * * * * * * * * * * * * * * * * * * * * * * * * * * * //

dimensions      [0 1 -1 0 0 0 0];

internalField   nonuniform List<vector> 
512
(
(9.94672 -0.000526379 -0.0145531)
(9.97521 0.00551849 0.00982677)
(9.97533 0.00287292 0.0186609)
(9.95852 -0.00424217 -0.00190856)
(9.94404 -0.00730624 -0.0159992)
(9.9512 0.00889919 -0.00638402)
(9.9425 0.0179019 0.00246095)
(9.92649 0.0109145 -0.0110441)
(9.94875 0.00382567 -0.013355)
(9.99197 -0.00144533 0.00400261)
(9.95907 0.00138159 -0.0102953)
(9.92263 0.000309196 -0.0364874)
(9.95036 0.00140577 0.00637723)
(9.96286 -0.00161807 0.057484)
(9.95508 -0.0046918 0.0465554)
(9.95953 0.0101885 -0.0317489)
(9.96229 0.0171194 -0.0479037)
(9.96801 0.000245193 -0.0157096)
(9.96237 -0.00735604 -0.00574191)
(9.97083 -0.00279697 -0.0137152)
(9.98187 0.000804165 -0.0140689)
(9.9556 0.00716602 -0.0164087)
(9.93039 0.00721471 -0.0200735)
(9.93093 0.00148565 -0.0212054)
(9.92303 0.000582421 -0.00582036)
(9.9195 0.00141627 0.00558453)
(9.9336 0.000552145 0.00189638)
(9.93871 0.002567 0.00774731)
(9.91957 -0.00817805 -0.00502177)
(9.91546 -0.0143123 -0.00455959)
(9.91187 -0.0071248 0.00872299)
(9.91432 -0.00564673 0.00747786)
(10.1295 -0.0187458 -0.0371197)
(10.1406 0.00188073 -0.0109305)
(10.1415 0.0182723 0.0181919)
(10.1574 0.0204086 0.0163902)
(10.17 0.019874 0.0164352)
(10.155 0.00802602 0.00841667)
(10.1347 0.00846102 0.0097091)
(10.1298 -0.00921879 -0.0160597)
(10.1551 -0.0172208 -0.0204087)
(10.2055 -0.0143689 -0.000825412)
(10.1644 0.00303356 -0.00339798)
(10.1085 0.00545444 -0.0338028)
(10.1249 -0.01006 -0.0076817)
(10.1305 -0.00390433 0.0340812)
(10.1398 0.0154083 0.0386062)
(10.1665 0.0181212 -0.0142675)
(10.1798 0.00794803 -0.0370046)
(10.1843 -0.00920332 -0.00650679)
(10.154 -0.0104625 0.0114729)
(10.1406 -0.00449385 -6.39366e-05)
(10.1383 0.0057207 -0.0140806)
(10.1349 0.00240682 -0.00873583)
(10.1385 -0.00450586 -0.0122241)
(10.1528 -0.0118635 -0.0256176)
(10.1496 -0.00821659 -0.0188062)
(10.1345 0.0110795 0.0135378)
(10.1284 0.00997979 0.0108905)
(10.133 -0.000232711 0.000218798)
(10.0971 0.00863164 -0.00152447)
(10.0858 0.0150408 0.00676371)
(10.0948 -0.0157969 0.00668783)
(10.0991 -0.0333409 -0.0101733)
(10.1219 -0.0501043 -0.0222738)
(10.1431 -0.0353205 -0.0140116)
(10.1374 -0.024531 -0.020196)
(10.156 0.0312346 0.00488686)
(10.1558 0.0649692 0.025146)
(10.1701 0.0296531 0.0255911)
(10.1686 -0.0124866 0.0288323)
(10.1575 -0.0345899 -0.0053497)
(10.1752 -0.0423354 -0.0183959)
(10.2072 -0.0212703 0.00820796)
(10.2144 0.0211943 0.0188162)
(10.1324 0.0429351 -0.00224884)
(10.0937 0.0288289 -0.00722795)
(10.1134 0.00166799 0.0156251)
(10.1183 -0.00227243 0.0208035)
(10.1604 0.00346245 -0.00841137)
(10.193 0.0100893 -0.0215761)
(10.1994 0.00144051 -0.00789065)
(10.1907 -0.00115955 -0.00709057)
(10.1897 -0.00229282 -0.0123933)
(10.1638 -0.0150536 -0.0219605)
(10.1483 -0.00918276 -0.0308308)
(10.1453 -0.00725066 -0.0312672)
(10.1493 -0.0228767 -0.0223647)
(10.1509 -0.0271039 -0.0238244)
(10.151 -0.00200003 -0.00232414)
(10.1401 0.00949199 0.0184715)
(10.1346 0.00805705 0.0216532)
(10.1247 0.0317166 0.0126462)
(10.131 0.03289 0.022514)
(10.1376 0.0140934 0.0419236)
(10.1234 -0.0480674 -0.00763494)
(10.1626 -0.0321853 -0.00683164)
(10.1803 -0.0498166 0.0111233)
(10.1671 -0.0379356 0.00727898)
(10.1049 0.0317536 0.0147907)
(10.1083 0.0508266 0.0163315)
(10.2112 0.0312935 0.00905712)
(10.2063 0.0100765 0.00784665)
(10.1416 -0.00796592 -0.00262673)
(10.1509 -0.00621569 0.00360213)
(10.1657 -0.0207579 0.0124471)
(10.1548 -0.00961124 0.0173687)
(10.1426 0.0568009 0.0193129)
(10.1399 0.0690907 0.0141596)
(10.1324 -0.00564289 -0.00431221)
(10.1357 -0.0322776 -0.00819763)
(10.1607 -0.0284417 -0.00788171)
(10.1915 -0.00114638 -0.00371545)
(10.1951 0.011618 0.0071613)
(10.1947 0.00271628 0.00746902)
(10.2047 -0.0072931 -0.00224511)
(10.1843 -0.00643315 -0.012296)
(10.1566 0.000792114 -0.0214688)
(10.1366 0.00198272 -0.0155026)
(10.1332 0.000281678 -0.0083692)
(10.1375 0.00383473 -0.0122195)
(10.1361 0.0158863 -0.00778899)
(10.1454 0.00198498 0.00862401)
(10.1568 -0.00201614 0.0144771)
(10.1491 0.0159622 -0.00426635)
(10.1352 0.0321207 -0.0120763)
(10.1294 0.019293 0.00563726)
(10.1311 0.00508996 -0.00537054)
(10.1369 -0.0534068 0.0324635)
(10.1967 -0.038168 0.00453889)
(10.2035 -0.00958962 -0.00931822)
(10.1692 0.00496149 -0.00766567)
(10.1565 0.00851786 0.00593317)
(10.1686 0.0230713 0.0110541)
(10.1733 0.0181226 0.0143255)
(10.1624 -0.00190676 0.0124166)
(10.1615 -0.0180477 0.00457624)
(10.1488 -0.0121583 0.00323861)
(10.117 0.0136715 0.011026)
(10.1268 0.0208243 0.00625461)
(10.1719 0.0116904 0.00106526)
(10.1645 0.00821167 -0.00121473)
(10.1362 0.00241492 -0.00733947)
(10.1595 -0.00794879 -0.00755066)
(10.1797 -0.0196577 -0.00717233)
(10.2036 -0.00620693 0.00853636)
(10.1899 -0.00319192 -0.00629819)
(10.1603 -0.00125621 -0.0315961)
(10.1559 -0.00149444 -0.0338147)
(10.1746 -0.0119634 -0.0169378)
(10.171 -0.00929562 -0.0016951)
(10.1704 -0.00125334 0.0113528)
(10.1499 0.0233408 -0.00116533)
(10.126 0.0266885 -0.00725992)
(10.1375 0.0168557 -0.000981603)
(10.1608 0.0166216 -0.00646765)
(10.1671 0.00630111 -0.0220957)
(10.154 0.00872057 -0.0049867)
(10.1487 0.0160174 0.0346632)
(10.1366 -0.0293936 0.0368329)
(10.1545 -0.0864449 -0.0227237)
(10.1578 -0.0911814 -0.0401694)
(10.1391 0.0170987 0.0130828)
(10.1217 0.0786247 0.0636486)
(10.1131 0.0701819 0.0437704)
(10.1351 0.0210352 -0.0174891)
(10.1559 0.00267728 -0.0387241)
(10.1582 -0.00944749 0.000379745)
(10.1407 -0.0246041 0.0176124)
(10.1441 0.0101968 0.00810184)
(10.1517 0.0458832 -0.00184911)
(10.1559 0.0167776 -0.00341895)
(10.1648 0.000868764 0.00472947)
(10.1697 0.0167424 0.00536914)
(10.1698 0.019308 0.00330428)
(10.173 0.000425672 -0.0263693)
(10.1783 -0.00355546 -0.028819)
(10.1758 -0.0207502 -0.0143873)
(10.1663 -0.0200448 -0.0113772)
(10.1686 0.000845439 -0.00318722)
(10.1709 -0.00385281 0.00875683)
(10.1572 -0.0172576 0.0142519)
(10.1348 -0.00444042 0.0257279)
(10.1348 0.0225151 0.0189704)
(10.1267 0.0232299 0.0110841)
(10.1471 0.00393808 -0.0125617)
(10.1507 0.00090849 -0.0136473)
(10.1428 -0.00345174 -0.00911221)
(10.136 0.00695714 -0.00570599)
(10.1273 0.0154515 -0.00533487)
(10.1363 0.0221183 -0.00751599)
(10.1673 -0.0154007 -0.00675018)
(10.1782 -0.044731 -0.0231236)
(10.1681 -0.0523077 -0.0284186)
(10.0867 -0.0210007 0.000485157)
(10.0438 0.00445596 0.0270552)
(10.0842 -0.00750964 0.00914258)
(10.1808 0.0178583 -0.00621414)
(10.1828 0.0350463 0.0210567)
(10.1512 0.0174164 0.0232462)
(10.1136 -0.00706567 0.0151163)
(10.1351 0.0142797 -0.00499285)
(10.1434 0.0190756 -0.0154594)
(10.1695 -0.00143163 -0.0168792)
(10.1783 0.00184009 0.00343702)
(10.1565 -0.00357011 0.0213035)
(10.152 -0.00842438 0.0207426)
(10.1741 -0.00135812 -0.0137579)
(10.1819 -0.0028376 -0.0214623)
(10.181 -0.00566004 -0.022446)
(10.1789 -0.00857101 -0.0270466)
(10.1597 -0.0174674 -0.0099338)
(10.1533 -0.023539 0.00381976)
(10.1612 -0.00221694 0.0177573)
(10.165 0.00501517 0.0137376)
(10.1472 0.0188704 -0.0117017)
(10.1495 0.0205932 -0.0130244)
(10.1577 -0.00275571 0.00164242)
(10.1357 -0.00132128 0.00975827)
(10.1254 0.00371428 0.020601)
(10.1479 0.0132609 0.0102218)
(10.1558 0.0113941 -0.00745285)
(10.1583 0.0256455 -0.0147847)
(10.1793 0.0209542 -0.0153082)
(9.97349 -0.0104106 -0.0140639)
(9.96391 -0.00309624 -0.00791316)
(9.89514 -0.0020661 -0.0112718)
(9.85206 -0.00255355 2.79492e-06)
(9.86674 -0.0119054 -0.00468955)
(9.95351 0.0129898 0.0065693)
(9.96181 0.0338204 0.0362782)
(9.94874 0.0226366 0.0295067)
(9.9556 0.01191 0.0168418)
(9.97651 0.0165564 -0.0179197)
(9.96432 0.0151797 -0.0220638)
(9.96752 0.0101159 -0.0177321)
(9.96787 -0.00472857 0.00491549)
(9.96404 -0.00922085 0.00938293)
(9.97327 -0.00811688 0.00923435)
(9.98696 0.000980857 -0.0109612)
(9.98171 -0.00255653 -0.0189555)
(9.97782 -0.0041979 -0.0149407)
(9.97308 -0.00394446 -0.0124724)
(9.97162 -0.0205659 -0.0115927)
(9.9815 -0.0217154 -0.0059917)
(9.99013 0.00748685 0.0392397)
(9.98334 -0.00011822 0.0403579)
(9.97509 0.00472473 -0.0163899)
(9.97255 0.0248247 -0.0352804)
(9.94568 0.0172453 -0.0127297)
(9.91112 0.0066237 0.00997898)
(9.96408 0.0149686 0.0130857)
(10.0233 -0.00361636 0.0215989)
(9.9958 -0.0212737 0.0120543)
(9.9329 -0.0148048 -0.0181872)
(9.94063 -0.0234598 -0.0213706)
(9.93667 -0.0155523 0.00245897)
(9.97363 -0.00219143 -0.00395017)
(9.97739 0.00480339 -0.00564127)
(9.98352 0.0124529 0.0167697)
(9.95423 0.0158441 0.0514272)
(9.95599 0.0149148 0.0408784)
(9.93018 0.0157006 -0.00653421)
(9.92634 0.00165784 -0.0555319)
(9.95056 -0.00371453 -0.0600878)
(10.0292 0.00996141 0.000244116)
(9.97643 0.0224544 0.0270121)
(9.92814 0.0184405 0.0327087)
(9.94802 -0.00437839 0.016235)
(9.97028 -0.00819434 0.00437396)
(9.98697 0.000396479 0.00435231)
(9.93599 0.011204 -0.0004001)
(9.91544 0.0124531 -0.00893346)
(9.90844 0.000657452 -0.0160624)
(9.90061 -0.000959357 -0.0102057)
(9.91741 -0.00111915 -0.0065464)
(9.95193 -0.0029415 -0.000778758)
(9.95392 -0.000114743 0.0202642)
(9.95515 -0.00294384 0.024745)
(9.97832 0.00230261 -0.0126726)
(9.9779 0.00715609 -0.0235769)
(9.96283 0.00698238 0.00240676)
(9.96613 0.00739029 0.00411791)
(9.96325 0.00117739 0.00706544)
(9.95318 -0.00417213 0.00678752)
(9.95438 -0.00884456 -0.00535137)
(9.95601 -0.0120807 -0.00270962)
(9.93796 -0.0172502 0.00572115)
(10.1323 -0.02251 -0.0119155)
(10.1502 0.00497859 -0.020178)
(10.1536 0.00631883 -0.0207011)
(10.1501 0.0228976 0.0157295)
(10.1301 0.0380707 0.0465077)
(10.1386 0.0401972 0.0272956)
(10.115 0.025326 -0.0241786)
(10.1005 -0.00810545 -0.0550987)
(10.1409 -0.0302046 -0.0622799)
(10.197 -0.000445329 0.00245047)
(10.2056 0.0344471 0.0648541)
(10.1532 0.0194596 0.0472566)
(10.0948 -0.0106184 0.000883409)
(10.1038 -0.0286273 0.00333704)
(10.1443 -0.036875 0.0205841)
(10.1399 -0.00313046 -0.00266694)
(10.1361 0.0165862 -0.0242751)
(10.1367 -0.00909763 -0.0125427)
(10.1284 -0.0110524 -0.00342229)
(10.1355 -0.0019166 -0.000420229)
(10.1605 -0.00630938 -0.00518154)
(10.1605 0.00582657 -0.0047578)
(10.1671 0.0179179 -0.00682298)
(10.172 -0.00447625 -0.000223964)
(10.1623 -0.0146414 0.00735413)
(10.1436 0.003998 0.0202966)
(10.1445 0.00791459 0.00775656)
(10.1424 0.00968876 0.00520678)
(10.1397 0.00996964 0.0243144)
(10.142 -0.00114818 0.0229113)
(10.1431 -0.0136645 0.00847352)
(10.1201 -0.0310641 -0.000728278)
(10.1294 -0.0374956 0.0070615)
(10.1709 -0.00355038 0.0127329)
(10.1698 0.00978714 0.0208037)
(10.1457 0.0443594 0.0341148)
(10.1274 0.0643598 0.0410293)
(10.1313 0.0575389 0.0274351)
(10.1422 0.0183417 -0.0347396)
(10.0994 -0.028654 -0.0714336)
(10.0938 -0.0416299 -0.0730647)
(10.1607 -0.0221105 -0.0045932)
(10.1571 -0.00413106 0.0133057)
(10.1471 0.0312799 0.0186303)
(10.1599 0.0247628 0.0209429)
(10.1646 -0.0428641 -0.000711633)
(10.1428 -0.0368188 -0.00900404)
(10.1199 0.0162048 -0.0276391)
(10.1381 0.0259605 -0.0346435)
(10.1646 0.00133456 -0.0079718)
(10.1493 -0.00210686 0.0318973)
(10.1524 0.00955722 0.0235347)
(10.1783 0.0205357 -9.37599e-05)
(10.1733 0.0274952 -0.00317912)
(10.1611 0.0363764 -0.00650306)
(10.1612 0.00683073 -0.0115223)
(10.1419 -0.0248123 -0.00689113)
(10.1261 -0.0196587 -0.00257085)
(10.1182 6.01017e-05 0.0119977)
(10.1179 0.0169507 0.0106543)
(10.1216 0.0269926 -0.00924091)
(10.1363 0.0134381 -0.00700867)
(10.1394 -0.027987 0.015539)
(10.1242 -0.0468073 0.0141684)
(10.1407 -0.0331548 0.00272789)
(10.1991 -0.0387799 -0.00302549)
(10.1951 -0.0204373 0.000850666)
(10.1787 0.0293214 0.000381683)
(10.1619 0.0470484 0.0178809)
(10.1433 0.0463217 0.0347764)
(10.1419 0.000906021 0.0324793)
(10.1216 0.0033604 -0.00783195)
(10.1023 0.000671916 -0.0588359)
(10.1675 -0.00345657 -0.02608)
(10.1983 -0.00402287 0.0224277)
(10.1902 0.0190191 0.0285367)
(10.197 0.0209271 0.0183934)
(10.1443 -0.0224379 0.00706969)
(10.1018 -0.0336493 0.0069573)
(10.1048 -0.00237988 -0.0109048)
(10.1271 0.0104363 -0.0260208)
(10.1371 -0.00227357 -0.0101673)
(10.1605 -0.00631769 0.00204388)
(10.1616 -0.00507536 0.000917557)
(10.1518 -0.0167681 0.00233508)
(10.1587 -0.0119819 -0.00130306)
(10.1764 0.0253566 -0.00474228)
(10.1806 0.0268845 0.00268518)
(10.1783 0.0214898 0.00950795)
(10.1217 0.00414085 -0.00292851)
(10.1168 -0.00916945 -0.00726791)
(10.1371 -0.0127032 -0.0153824)
(10.1392 0.00724943 -0.017271)
(10.1489 0.020948 -0.000548163)
(10.1299 -0.0143753 0.034919)
(10.1163 -0.0296658 0.0293921)
(10.1622 -0.0504784 0.00716498)
(10.179 -0.0566569 -0.00269129)
(10.173 -0.0105095 0.00760666)
(10.1495 0.0330109 0.00665379)
(10.1209 0.0536731 0.00345861)
(10.113 0.0203491 0.0131403)
(10.1361 -0.0285639 0.0103886)
(10.141 -0.00344645 0.000944976)
(10.1256 0.0396507 -0.0112198)
(10.1621 0.0164341 0.00312188)
(10.1693 -0.00103148 0.0179209)
(10.1371 -0.015774 -0.00268594)
(10.1449 0.00421783 -0.014448)
(10.1552 0.015918 -0.00512817)
(10.147 -0.00449884 0.0119975)
(10.1531 -0.0142399 -0.00140512)
(10.173 -0.0168282 -0.0197989)
(10.1896 -0.0122227 -0.00376575)
(10.1826 -0.0183256 0.014178)
(10.1328 -0.0122121 0.0221133)
(10.1257 -0.0030105 0.0121954)
(10.133 -0.00445158 -0.0169295)
(10.1433 0.00909881 -0.00803861)
(10.1505 0.032968 0.00975725)
(10.1531 0.0249231 0.00454557)
(10.1515 -0.00338217 0.0055707)
(10.1518 -0.00794284 0.0123414)
(10.16 -0.00323056 0.0127476)
(10.164 0.00174589 -0.0304135)
(10.1491 0.0129356 -0.0116933)
(10.143 0.0196761 0.0468711)
(10.153 -0.00502052 0.0519329)
(10.1663 -0.0545955 0.00740324)
(10.1647 -0.0503157 0.00586373)
(10.1019 0.017484 0.0176164)
(10.09 0.0514597 0.00980634)
(10.1156 0.056393 -0.00679611)
(10.1703 -0.00450223 -0.0199091)
(10.1579 -0.0155627 -0.02201)
(10.135 0.0279372 0.0120187)
(10.1218 0.0397125 0.0270348)
(10.1591 0.00481976 0.0146972)
(10.1638 -0.0108051 0.00100175)
(10.1425 -0.0118791 -0.0232635)
(10.1486 0.00535923 -0.0152903)
(10.1514 0.0174826 0.00250402)
(10.1588 0.0161309 0.00476398)
(10.1763 -0.0113127 -0.00716314)
(10.182 -0.0253103 -0.0119958)
(10.1632 -0.0222637 0.00822325)
(10.1431 -0.0117184 0.0109288)
(10.115 0.0106566 -0.0127194)
(10.1066 0.0097293 -0.0140646)
(10.0995 0.00575999 -0.0126079)
(10.1105 0.00627552 -0.00511443)
(10.1336 0.0257862 -0.0035337)
(10.1312 0.0215608 -0.00607428)
(10.1363 0.015431 -0.00908328)
(10.1316 0.00684228 -0.00156016)
(10.1186 -0.00938717 0.00513638)
(10.1303 0.00548194 -0.00214)
(10.1393 0.0247271 -0.000819866)
(10.1569 0.0291772 0.00848463)
(10.19 -0.00633326 0.0213561)
(10.1925 -0.0431431 0.00507047)
(10.1717 -0.0296867 0.0200425)
(10.0927 -0.0157457 -0.000525157)
(10.0588 -0.0086914 -0.00648193)
(10.0778 0.00556107 0.00330174)
(10.1418 0.0262976 -0.0181308)
(10.1591 0.0389725 -0.00645698)
(10.1354 0.0352581 0.00851469)
(10.1248 0.00891032 0.0218194)
(10.1612 -0.0040284 -0.00910127)
(10.1617 -0.00748527 -0.0141746)
(10.1328 -0.001942 -0.00885164)
(10.1517 0.000979176 -0.0092585)
(10.1638 0.00159944 -0.00203083)
(10.1533 0.0101164 -0.00353111)
(10.1557 0.00682985 -0.0153522)
(10.1678 -0.00390479 -0.0161253)
(10.164 0.000940573 0.00710452)
(10.1591 0.00234361 0.0142822)
(10.1557 -0.02194 0.00355583)
(10.1445 -0.0244045 0.0150669)
(10.1223 0.00924109 0.0281809)
(10.1175 0.0162507 0.0337135)
(10.1323 -0.00185972 0.000551105)
(10.1443 -0.018066 -0.0142787)
(10.1455 -0.0280602 -0.0155568)
(10.1295 0.00255845 -0.00369783)
(10.1435 0.0328967 0.0256117)
(10.1674 0.0282791 0.0092898)
(10.1594 0.00659593 -0.0194563)
(10.1658 0.0104181 -0.0320288)
(10.1933 -0.00138837 -0.0293656)
(9.93104 -0.0219019 -0.00475953)
(9.9161 -0.01292 0.00337407)
(9.89925 -0.0151161 -0.00538004)
(9.86024 0.00691799 0.0172288)
(9.87519 0.0354936 0.0365535)
(9.9184 0.0465736 0.0205269)
(9.95026 0.0108992 -0.0249771)
(9.94466 0.00313028 -0.000420229)
(9.95562 0.0055299 0.0274891)
(9.95937 0.0072283 -0.0139796)
(9.94374 0.00494891 -0.0219807)
(9.9219 0.00372334 0.0055443)
(9.94991 -0.00531432 0.00769779)
(9.96645 -0.00933624 0.00790753)
(9.98366 0.00447386 0.00162418)
(9.98101 0.00486613 -0.0165971)
(9.97275 0.00069648 -0.0208666)
(9.97848 0.0075158 0.012392)
(9.97706 0.0142445 0.0230378)
(9.98159 -0.000147676 0.00174249)
(9.9888 -0.00486352 -0.000263344)
(9.98327 0.0185203 0.00433522)
(9.98567 0.0208639 0.00408838)
(9.98419 -0.000910745 -0.0155018)
(9.97956 -0.00417607 -0.0185332)
(9.94341 0.000705727 -0.00329775)
(9.91518 0.00863353 -0.0116386)
(9.95197 0.0276757 -0.0182839)
(10.0326 -0.00935268 0.0313259)
(10.035 -0.0386119 0.0564783)
(9.99225 -0.0331758 -0.00232149)
(9.96602 -0.0245806 -0.0175744)
)
;

boundaryField
{
    wall
    {
        type            fixedValue;
        value           uniform (0 0 0);
    }
    outlet
    {
        type            cyclic;
    }
    inlet
    {
        type            cyclic;
    }
    procBoundary1to0
    {
        type            processor;
        value           nonuniform List<vector> 
256
(
(9.97432 0.00491144 -0.00839366)
(10.0016 0.00795313 -0.0146122)
(10.0131 -0.00754518 -0.00059288)
(9.98931 -0.00774166 0.00418653)
(9.9235 0.00748758 0.000510904)
(9.92673 0.00984692 0.0218296)
(9.93877 0.011399 0.0520803)
(9.926 0.00651077 0.0292648)
(9.92062 -0.00151942 0.00908284)
(9.96286 -0.000733969 -0.00716686)
(9.96334 0.00419783 -0.0264278)
(9.96816 0.00800774 -0.0329549)
(9.9635 0.00784711 0.00365656)
(9.94605 0.00472025 0.0214436)
(9.93235 0.00203359 0.00892689)
(9.94122 0.00552285 -0.0108922)
(9.95673 0.0123759 -0.0180912)
(9.96949 -0.00362585 -0.00714744)
(9.94701 -0.0204512 0.0112507)
(9.9421 -0.0145423 0.014887)
(9.94608 -0.000681544 -0.00130546)
(9.93573 0.00258255 -0.0260819)
(9.93755 0.00464491 -0.016169)
(9.97647 -0.00475136 0.0215554)
(9.98342 -0.00410119 0.0138734)
(9.97213 0.008256 -0.00850069)
(9.95672 0.00667821 0.00979157)
(9.94883 0.00475666 0.0163222)
(9.93974 -0.00408767 -0.00216859)
(9.9394 -0.00375669 -0.00395541)
(9.93182 0.00178731 0.00885794)
(9.92206 -0.0018753 0.0110344)
(10.1473 -0.00723446 -0.0227635)
(10.1866 -0.00480701 0.00547588)
(10.2275 -0.00326682 0.0211241)
(10.2144 0.00472528 0.00244623)
(10.1669 0.0119055 -0.00932142)
(10.1534 0.00857657 0.0107872)
(10.1356 0.010587 0.027549)
(10.1112 -0.00400815 0.00529924)
(10.1118 -0.0123941 -0.00749781)
(10.161 -0.013286 -0.010848)
(10.1571 -0.00660703 -0.0130256)
(10.154 0.00172974 -0.0115049)
(10.1543 -0.00311772 0.0141045)
(10.149 -0.00713062 0.0187496)
(10.1441 -0.0104511 0.00247239)
(10.1393 -0.00468863 -0.00346393)
(10.1517 0.00214237 -0.00587819)
(10.1578 -0.0014046 -0.00697849)
(10.121 -0.00999051 0.00525875)
(10.1129 -0.00485774 0.0123118)
(10.1093 0.000282307 0.0109713)
(10.1188 0.0284193 -0.0190483)
(10.1258 0.0316402 -0.0177737)
(10.1652 -0.0208737 0.0154484)
(10.1786 -0.0311421 0.0153828)
(10.1666 0.0123542 -0.00194241)
(10.1529 0.0176367 0.00676142)
(10.1537 0.00222193 0.00216001)
(10.1538 -0.00972945 -0.0066883)
(10.139 -0.00260042 0.00936785)
(10.1136 0.00101871 0.0209983)
(10.107 -0.00497436 0.0107732)
(10.1684 -0.040933 -0.0239779)
(10.1886 -0.0374681 -0.00809192)
(10.221 -0.0210181 0.0110937)
(10.2094 0.0176578 0.00731101)
(10.1687 0.0539451 0.00502698)
(10.1588 0.0481491 0.0146683)
(10.1418 0.0237438 0.0372231)
(10.1369 -0.0194829 0.00960428)
(10.1558 -0.0406964 -0.0139223)
(10.2015 -0.0158565 -0.0203163)
(10.1765 -0.00293226 -0.00661524)
(10.1628 0.00606177 -0.00770575)
(10.1667 0.00937544 -0.013252)
(10.1607 0.00885073 0.0129821)
(10.1575 0.00604169 0.0171633)
(10.1668 0.00855573 0.00921442)
(10.1406 -0.000997476 0.000466679)
(10.1042 -0.0122906 -0.00206378)
(10.1054 -0.00372759 0.00541679)
(10.1199 0.00906776 0.00590373)
(10.1124 0.0182588 -0.0104618)
(10.1154 0.017591 -0.0213786)
(10.1216 0.00974496 -0.0185412)
(10.1543 -0.0106748 0.00523461)
(10.1632 -0.00744021 0.00196158)
(10.1665 0.0157496 -0.0292975)
(10.1607 0.00855888 -0.0155498)
(10.1724 -0.0158455 0.0184809)
(10.1637 -0.00301431 0.024933)
(10.1248 0.0369707 0.0276765)
(10.1033 0.0265349 0.0263217)
(10.1233 0.000450787 0.00238581)
(10.1676 -0.0657998 -0.0134509)
(10.1866 -0.0501473 0.0125883)
(10.1787 -0.0114764 0.0153196)
(10.1429 0.0297883 0.00201314)
(10.138 0.0389471 0.00677546)
(10.1975 0.0108889 0.0127517)
(10.1839 -0.0174343 0.00255467)
(10.1322 -0.0418706 -0.0125885)
(10.132 -0.0406269 -0.0166291)
(10.2037 0.0173215 -0.0155168)
(10.2032 0.0266884 -0.00588273)
(10.189 0.0257147 0.00492768)
(10.1819 0.0217997 0.00509036)
(10.1526 0.0071993 0.00223539)
(10.1323 -0.00385762 0.000989683)
(10.111 -0.0111425 0.0185355)
(10.0768 -0.0192787 0.021329)
(10.0682 -0.0167238 0.00453519)
(10.1102 -0.0101973 -0.00466264)
(10.1381 -0.0026188 -0.0162651)
(10.1381 0.00306643 -0.0133295)
(10.1455 -0.0163244 -0.017621)
(10.1458 -0.0234421 -0.00954126)
(10.1368 -0.00980301 0.0118587)
(10.1331 -0.00218299 0.00029667)
(10.1248 -0.00521967 -0.00326836)
(10.1296 -0.0120712 0.00978523)
(10.1457 -0.00689721 0.0195361)
(10.1709 0.0335717 -0.00506795)
(10.1582 0.0606673 0.00769663)
(10.153 0.0642779 0.0204759)
(10.1678 -0.0175685 -0.0045307)
(10.1649 -0.0375129 0.0323145)
(10.1839 -0.0272192 -0.00961227)
(10.1546 -0.0288106 -0.0250849)
(10.1179 0.0100322 0.0126175)
(10.1183 0.0325025 0.0298299)
(10.1854 0.019826 0.0287657)
(10.188 -0.0167188 0.0241503)
(10.1531 -0.0263591 0.0177988)
(10.1546 -0.0035375 0.00316888)
(10.166 0.0314852 -0.030072)
(10.1614 0.0398844 -0.0260437)
(10.1719 0.0093693 0.0114627)
(10.1678 -0.0107586 0.0125395)
(10.1566 -0.0122435 -0.00606502)
(10.1588 -0.0126073 -0.0100333)
(10.1635 -0.0159312 0.0186238)
(10.1512 -0.0172628 0.0237281)
(10.1342 -0.00598894 0.00973494)
(10.1345 0.00179882 -0.00768432)
(10.1384 0.0039151 -0.00282771)
(10.1526 -0.022506 0.00793797)
(10.154 -0.0354068 0.000959218)
(10.1425 -0.0123032 -0.00429876)
(10.1265 0.0311181 0.000354074)
(10.1144 0.0342076 0.00476439)
(10.109 0.0110289 0.000453286)
(10.1165 0.0116421 0.000866019)
(10.1693 0.0123548 -0.00547981)
(10.1839 0.00435301 -0.0177847)
(10.1609 0.0186322 -0.0105855)
(10.1402 0.0324132 0.0170111)
(10.1448 -0.00807165 0.0313829)
(10.1364 -0.0596831 0.00122727)
(10.224 -0.00133976 -0.0252831)
(10.2417 0.0220556 -0.0244403)
(10.2053 0.00131949 0.00309636)
(10.179 -0.0145998 0.011597)
(10.1386 -0.0310327 0.0166564)
(10.1339 -0.0266133 0.0227746)
(10.1292 -0.00840863 0.0192829)
(10.133 0.0177078 -0.0134823)
(10.1456 0.0327179 -0.0329536)
(10.1442 0.0337796 -0.0163002)
(10.1527 0.00289123 0.0162976)
(10.1613 -0.0142127 0.0163241)
(10.1812 -0.00623799 0.00518033)
(10.1818 -0.00295357 0.00426545)
(10.1836 -0.01386 0.0126233)
(10.1557 -0.00896251 0.00748602)
(10.125 -0.00246202 -0.0015048)
(10.1338 0.000996997 -0.00365029)
(10.1531 0.00595539 -0.0103739)
(10.1544 -0.021064 -0.0104851)
(10.1487 -0.0282545 -0.0217981)
(10.1354 -0.0185454 -0.0379654)
(10.1543 0.0296298 -0.00213738)
(10.1696 0.0311929 0.013815)
(10.1873 0.0173432 0.00967152)
(10.1615 0.0104839 0.00732527)
(10.1365 -0.00397173 0.0101193)
(10.137 0.000798427 -0.00145205)
(10.1264 0.0143372 -0.0156133)
(10.1273 0.0177043 -0.0139277)
(10.1268 -0.0338356 -0.00249626)
(10.1653 -0.0531128 -0.0175578)
(10.1595 -0.0552797 -0.0214264)
(10.1654 -0.0164335 -0.0157659)
(10.0673 0.0338627 0.00766719)
(10.0489 0.0346678 0.00895521)
(10.0903 -0.00753441 -0.0031596)
(10.1521 -0.0220965 0.010522)
(10.1621 -0.0104336 0.0181843)
(10.1616 0.00508952 -0.0158756)
(10.1524 0.0140946 -0.030246)
(10.1495 0.012763 -0.0214865)
(10.168 -0.00595714 0.0107527)
(10.1822 -0.00859837 0.0259081)
(10.1879 -0.000730913 0.0090154)
(10.1903 0.00406358 -0.00480015)
(10.151 -0.0147803 0.00297057)
(10.1404 -0.0182588 0.00578685)
(10.1556 0.00554013 0.00335609)
(10.161 0.00510969 0.00332989)
(10.1614 -0.00190771 0.0072174)
(10.133 -0.0202609 0.00897633)
(10.1212 -0.0226977 -0.00819404)
(10.1326 -0.0262367 -0.0189891)
(10.1567 0.0310431 0.000900992)
(10.1653 0.0361324 0.00500746)
(10.1755 0.00649636 2.80258e-07)
(10.1519 0.00412839 0.00281742)
(10.1262 0.0239587 0.0072768)
(10.1453 0.0175326 -0.00154126)
(10.1585 -0.000944399 -0.00924175)
(10.1585 0.01284 -0.0116321)
(10.1765 0.018381 -0.0129307)
(9.97708 -0.0238347 -0.0103347)
(9.97807 -0.0100912 -0.0225735)
(9.94965 0.00948147 -0.0176298)
(9.86818 0.0236734 0.0155395)
(9.87788 0.0178764 0.0107739)
(9.9721 0.0113612 0.00834846)
(9.96895 0.0103899 0.0161309)
(9.94202 0.00385901 0.028695)
(9.98218 -0.000113058 0.00200842)
(10.004 0.00714665 -0.0278821)
(9.99144 0.00904458 -0.0296833)
(9.96994 -0.00363698 0.0158418)
(9.96901 -0.00770827 0.0280738)
(9.97888 -0.00565134 0.00658345)
(9.98528 -0.00433389 -0.0040239)
(9.95248 -0.0022871 0.00720841)
(9.9451 -0.000713124 0.00646766)
(9.95745 0.00431782 -0.00529633)
(9.95795 0.00250239 -0.00472129)
(9.95156 -0.000265222 0.00705663)
(9.94112 -0.00561262 0.0218837)
(9.93254 -0.00354686 0.00744959)
(9.95704 -0.0142211 -0.0190206)
(9.9961 0.00736781 -0.0198802)
(10.0031 0.0380904 0.00127563)
(9.96578 0.0242462 0.00463403)
(9.92819 0.00942356 0.00354864)
(9.96804 0.0165667 0.00623758)
(10.0103 0.000357599 0.00555846)
(9.99728 -0.0215786 0.00606057)
(9.93862 -0.0217332 -0.00874118)
(9.9362 -0.0252002 -0.0116613)
)
;
    }
    procBoundary1to2
    {
        type            processor;
        value           nonuniform List<vector> 
256
(
(10.001 -0.0072283 0.0652398)
(9.96943 -0.016935 -0.0113106)
(9.95776 -0.00351563 -0.0422847)
(9.96798 -0.00737255 -0.0144948)
(9.96148 -0.00351915 0.0166742)
(9.97642 0.000514243 0.0163445)
(9.97168 -0.00263857 -0.0815354)
(9.96105 -0.00394239 -0.0938325)
(9.96918 -0.00248432 -0.0757139)
(10.0056 -0.00073047 0.011447)
(9.98032 0.00365281 0.0310251)
(9.95441 0.0160434 0.0476942)
(9.97913 0.00908959 0.00456895)
(9.98544 0.000609384 -0.0285229)
(9.97597 0.00689586 -0.00819646)
(9.97282 0.00255111 0.0129951)
(9.97863 0.00500324 0.0114009)
(9.9846 0.0121347 -0.00540257)
(9.97508 -0.00437804 -0.0384952)
(9.96562 -0.00360868 -0.0420152)
(9.91813 0.00350121 -0.00906407)
(9.89379 0.00426235 0.0143222)
(9.89155 -0.0018653 0.00996942)
(9.95662 -0.00632863 -0.0184144)
(9.96628 -0.00755827 -0.0282638)
(9.94022 -0.00631251 -0.00196626)
(9.94382 -0.00810147 0.012385)
(9.99353 0.00137096 -0.00276856)
(9.97843 0.00779312 -0.0148377)
(9.95365 -0.00451171 -0.0264164)
(9.98014 -0.000976184 -0.00345688)
(10.0084 6.28798e-05 0.0597366)
(10.1058 -0.000605071 0.0162249)
(10.1058 0.014072 -0.000264089)
(10.1007 0.0447497 0.00296815)
(10.1037 0.0417515 0.00793099)
(10.1484 0.0075438 0.0278502)
(10.1939 -0.0065083 0.0200662)
(10.2052 -0.0133694 -0.0220488)
(10.152 -0.0234041 -0.0405779)
(10.1522 -0.0216361 -0.0197127)
(10.182 -0.0116194 0.0100229)
(10.1641 -0.00261355 0.016814)
(10.162 0.00431119 0.0262361)
(10.1729 -0.00463536 0.00974433)
(10.1588 -0.00189199 -0.00532957)
(10.1323 0.0173308 -0.0146738)
(10.1405 0.00123359 -0.00463245)
(10.1592 -0.0117042 0.00721114)
(10.1719 0.00355876 -0.0171607)
(10.1858 0.00763115 -0.0265648)
(10.1692 0.000907835 -0.0189316)
(10.156 -0.00573825 -0.0169315)
(10.1605 -0.00625533 -0.0215151)
(10.114 -0.00776969 0.0139961)
(10.1236 -0.0141585 0.00931096)
(10.1336 -0.0233846 -0.00288551)
(10.1228 -0.0237338 0.0065626)
(10.1292 -0.0193215 0.00929722)
(10.1641 -0.00790689 -0.0142555)
(10.1618 -0.00374083 -0.0111415)
(10.1639 -0.000933979 0.00244652)
(10.1627 -0.00413242 0.00950125)
(10.1159 -0.00668494 0.0224161)
(10.1319 -0.0342841 0.00898195)
(10.1227 0.00205999 -0.00895757)
(10.0773 0.0329352 0.0126861)
(10.0998 0.021335 0.0076076)
(10.1937 -0.00545008 0.0118857)
(10.2387 -0.00455167 0.0109392)
(10.2495 0.00550912 -0.0177989)
(10.1617 0.00227996 -0.0332212)
(10.1417 -0.00620879 -0.0274482)
(10.1602 -0.0256258 -0.000446032)
(10.1441 -0.00695634 0.00539921)
(10.1123 0.0269994 0.00854766)
(10.1465 0.0260338 0.00270349)
(10.1793 0.0164415 -0.00426331)
(10.2064 0.0107494 -0.00137484)
(10.1611 0.00123007 0.00185926)
(10.116 -0.000916245 -0.0100812)
(10.1289 -0.00110723 -0.0137729)
(10.1235 -0.00392916 -0.0123546)
(10.1282 -0.0090322 -0.0152303)
(10.14 -0.0244817 -0.020213)
(10.1226 -0.0134737 -0.00685661)
(10.1095 0.0236064 0.0193434)
(10.1255 0.020461 0.0229873)
(10.1327 -0.0193336 -0.00544993)
(10.1439 -0.0249214 -0.00402648)
(10.1725 -0.0131068 0.000310456)
(10.1583 0.0167949 -0.0163513)
(10.1474 0.0168546 -0.0128521)
(10.1587 -0.00298201 0.0131859)
(10.1524 -0.0188083 0.0280548)
(10.1235 -0.0496471 0.0295231)
(10.1845 0.0296901 0.0147855)
(10.1773 0.00290997 0.00398724)
(10.1647 -0.0125287 0.00195254)
(10.1534 0.00673848 0.0124423)
(10.1632 0.0013268 0.0196371)
(10.1763 -0.00714096 -0.00633716)
(10.1755 -0.00108856 -0.0224819)
(10.1874 0.00609254 -0.0112353)
(10.1921 -0.0124198 -0.00541752)
(10.1671 -0.056854 0.00309651)
(10.1578 -0.0240549 0.0231863)
(10.1483 0.0295771 0.0338117)
(10.1683 0.0147299 0.0259026)
(10.1886 -0.0204594 0.0113311)
(10.153 -0.00886465 -0.00329803)
(10.1181 0.0234145 -0.0104138)
(10.1183 0.0279701 -0.005148)
(10.1546 0.00549477 -0.00672142)
(10.1588 -0.00955197 -0.0111371)
(10.1596 -0.00026983 -0.0222548)
(10.167 0.00468542 -0.0278956)
(10.1566 -0.0184796 -0.0048963)
(10.1601 -0.0195552 0.0081034)
(10.1671 0.00308031 -0.00641528)
(10.159 0.0104191 -0.0139981)
(10.1356 0.0125203 -0.00760234)
(10.1245 0.00290457 -0.00963652)
(10.1506 -0.0151575 -0.00562093)
(10.1483 -0.0173379 0.00476525)
(10.1266 -0.0275723 0.0173784)
(10.13 -0.0472826 0.0266158)
(10.1649 -0.0130404 0.0320811)
(10.1654 -0.0352721 0.00578149)
(10.1621 0.0313502 -0.00704576)
(10.133 0.0494189 0.000161424)
(10.1096 0.0384472 0.0126214)
(10.1227 0.0340816 0.00249224)
(10.1369 -0.00508961 -0.00487657)