/*--------------------------------*- C++ -*----------------------------------*\
| =========                 |                                                 |
| \\      /  F ield         | OpenFOAM: The Open Source CFD Toolbox           |
|  \\    /   O peration     | Version:  2506                                  |
|   \\  /    A nd           | Website:  www.openfoam.com                      |
|    \\/     M anipulation  |                                                 |
\*---------------------------------------------------------------------------*/
FoamFile
{
    version     2.0;
    format      ascii;
    arch        "LSB;label=32;scalar=64";
    class       volScalarField;
    location    "0.05";
    object      Ksl;
}
// * * * * * * * * * * * * * * * * * * * * * * * * * * * * * * * * * * * * * //

dimensions      [1 -3 -1 0 0 0 0];

internalField   nonuniform List<scalar> 
1152
(
188953
154652
118382
152364
147097
241894
210842
185862
126416
221692
201888
185766
241765
228832
197851
111910
191435
184903
251024
321825
340614
231409
237185
206817
280489
279755
172954
265705
205393
117411
216145
407622
284616
305838
180318
145924
146361
241908
206359
251820
412933
224763
240333
235174
220573
187092
285473
194716
220433
340987
274062
181148
177243
232672
397691
279951
333016
215771
277317
295018
192780
215926
205305
236384
153231
519150
170444
277375
235119
421139
230031
235598
218523
220500
327612
249241
295383
221917
156952
269853
255933
118861
285771
376898
169155
225886
226762
171116
268340
252693
222898
191212
94949.7
230171
261381
306622
40258.6
86000.5
45220
20486.8
75581.7
85783.5
38938
15013.8
39198
39056.3
34376
26035.6
61549.5
30618.3
21859.4
37757.1
0
0
0
0
0
0
0
0
0
0
0
0
0
0
0
0
0
0
0
0
0
0
0
0
0
0
0
0
0
0
0
0
0
0
0
0
0
0
0
0
0
0
0
0
0
0
0
0
0
0
0
0
0
0
0
0
0
0
0
0
0
0
0
0
0
0
0
0
0
0
0
0
0
0
0
0
0
0
0
0
0
0
0
0
0
0
0
0
0
0
0
0
0
0
0
0
0
0
0
0
0
0
0
0
0
0
0
0
0
0
0
0
0
0
0
0
0
0
0
0
0
0
0
0
0
0
0
0
0
0
0
0
0
0
0
0
0
0
0
0
0
0
0
0
0
0
0
0
0
0
0
0
0
0
0
0
0
0
0
0
0
0
0
0
0
0
0
0
0
0
0
0
0
0
0
0
0
0
0
0
0
0
0
0
0
0
0
0
0
0
0
0
0
0
0
0
0
0
0
0
0
0
0
0
0
0
0
0
0
0
0
0
0
0
0
0
0
0
0
0
0
0
0
0
0
0
0
0
0
0
0
0
0
0
0
0
0
0
0
0
0
0
0
0
0
0
0
0
0
0
0
0
0
0
0
0
0
0
0
0
0
0
0
0
0
0
0
0
0
0
0
0
186663
171720
170256
184727
206177
258363
187764
190143
280421
230512
178787
210997
231961
181941
141516
200016
208033
244643
219545
265546
203274
177550
261700
330595
208982
243717
180955
295023
234907
252479
305854
146351
278176
245965
182511
96825.2
199157
257032
255027
261171
276574
151378
243983
298605
156216
232838
194366
178478
193955
256710
242889
294209
330617
148875
240962
296484
287130
240316
137813
193224
269757
213379
167473
211517
222777
328860
149709
358142
187969
348100
348750
175059
210398
169149
201422
419437
234433
225745
208740
91751.1
180823
237374
169091
254716
350610
193997
126110
135710
121128
297775
184515
280219
393483
232936
202116
168195
28206.9
35941.8
36752.7
41780.9
48154.2
23334
19222.4
29054.1
27906.5
63235.7
56803.6
57412.1
44220.2
42401.4
99555
49719.2
0
0
0
0
0
0
0
0
0
0
0
0
0
0
0
0
0
0
0
0
0
0
0
0
0
0
0
0
0
0
0
0
0
0
0
0
0
0
0
0
0
0
0
0
0
0
0
0
0
0
0
0
0
0
0
0
0
0
0
0
0
0
0
0
0
0
0
0
0
0
0
0
0
0
0
0
0
0
0
0
0
0
0
0
0
0
0
0
0
0
0
0
0
0
0
0
0
0
0
0
0
0
0
0
0
0
0
0
0
0
0
0
0
0
0
0
0
0
0
0
0
0
0
0
0
0
0
0
0
0
0
0
0
0
0
0
0
0
0
0
0
0
0
0
0
0
0
0
0
0
0
0
0
0
0
0
0
0
0
0
0
0
0
0
0
0
0
0
0
0
0
0
0
0
0
0
0
0
0
0
0
0
0
0
0
0
0
0
0
0
0
0
0
0
0
0
0
0
0
0
0
0
0
0
0
0
0
0
0
0
0
0
0
0
0
0
0
0
0
0
0
0
0
0
0
0
0
0
0
0
0
0
0
0
0
0
0
0
0
0
0
0
0
0
0
0
0
0
0
0
0
0
0
0
0
0
0
0
0
0
0
0
0
0
0
0
0
0
0
0
0
0
214744
153059
281389
243175
189203
232347
169119
151388
140378
211389
154336
269146
338277
143007
335783
176248
273072
185589
138347
265420
190067
240217
234310
172521
366503
205788
126059
275103
207247
263504
176559
194577
363416
306521
355402
167206
201276
252952
196040
274680
175417
303829
124375
205859
258210
164148
270587
161851
297706
269708
206714
312567
261749
207849
196389
233028
186946
229035
242243
150239
174960
240301
236335
158592
283410
227410
239033
191027
278845
296736
232500
229045
173274
359074
180657
192152
175298
197438
267965
191370
184163
203596
190632
188572
154203
253579
165922
175109
169152
358628
177576
308008
310500
243943
240186
200300
36233.2
30683
41106.8
41677
20321.7
52434.7
23946.6
27064.1
37519.1
23142.8
31026.3
34576.5
10869.9
84238.2
41977
41477.1
0
0
0
0
0
0
0
0
0
0
0
0
0
0
0
0
0
0
0
0
0
0
0
0
0
0
0
0
0
0
0
0
0
0
0
0
0
0
0
0
0
0
0
0
0
0
0
0
0
0
0
0
0
0
0
0
0
0
0
0
0
0
0
0
0
0
0
0
0
0
0
0
0
0
0
0
0
0
0
0
0
0
0
0
0
0
0
0
0
0
0
0
0
0
0
0
0
0
0
0
0
0
0
0
0
0
0
0
0
0
0
0
0
0
0
0
0
0
0
0
0
0
0
0
0
0
0
0
0
0
0
0
0
0
0
0
0
0
0
0
0
0
0
0
0
0
0
0
0
0
0
0
0
0
0
0
0
0
0
0
0
0
0
0
0
0
0
0
0
0
0
0
0
0
0
0
0
0
0
0
0
0
0
0
0
0
0
0
0
0
0
0
0
0
0
0
0
0
0
0
0
0
0
0
0
0
0
0
0
0
0
0
0
0
0
0
0
0
0
0
0
0
0
0
0
0
0
0
0
0
0
0
0
0
0
0
0
0
0
0
0
0
0
0
0
0
0
0
0
0
0
0
0
0
0
0
0
0
0
0
0
0
0
0
0
0
0
0
0
0
0
0
)
;

boundaryField
{
    inlet
    {
        type            zeroGradient;
    }
    outlet
    {
        type            zeroGradient;
    }
    wall
    {
        type            zeroGradient;
    }
    procBoundary3to1
    {
        type            processor;
        value           nonuniform List<scalar> 
192
(
206929
242794
293988
509141
253120
394639
165215
190776
222836
301032
252718
246090
208755
187985
201577
313096
363870
154405
295845
138871
310028
230916
303838
198973
166533
92468.7
137795
30602.3
0
426.97
426.328
0
0
0
0
0
0
0
0
0
0
0
0
0
0
0
0
0
0
0
0
0
0
0
0
0
0
0
0
0
0
0
0
0
0
0
0
0
0
0
0
0
0
0
0
0
0
0
0
0
0
0
0
0
0
0
0
0
0
0
0
0
0
0
0
0
145469
311630
108984
140403
212753
243246
230172
176306
186235
197827
202830
314485
185379
317182
157902
226092
204580
210680
198870
190531
256278
273478
301632
320911
58797.2
23336.4
63644.5
45864.9
0
0
0
0
0
0
0
0
0
0
0
0
0
0
0
0
0
0
0
0
0
0
0
0
0
0
0
0
0
0
0
0
0
0
0
0
0
0
0
0
0
0
0
0
0
0
0
0
0
0
0
0
0
0
0
0
0
0
0
0
0
0
0
0
0
0
0
0
)
;
    }
    procBoundary3to2
    {
        type            processor;
        value           nonuniform List<scalar> 
192
(
168057
293005
315657
181263
174543
228396
215759
433029
281043
477315
262867
237541
174241
339375
179845
556953
311184
240430
250617
239331
227870
355085
223409
579621
75265.2
66545.8
44543.2
22125.7
0
0
0
0
0
0
0
0
0
0
0
0
0
0
0
0
0
0
0
0
0
0
0
0
0
0
0
0
0
0
0
0
0
0
0
0
0
0
0
0
0
0
0
0
0
0
0
0
0
0
0
0
0
0
0
0
0
0
0
0
0
0
0
0
0
0
0
0
118225
217684
168387
138733
348439
333565
202183
208137
127945
237413
278378
334266
295905
296110
96422.1
155983
339884
307641
287125
210047
319658
200571
295527
156491
59609.7
60574.4
53120.9
125277
0
0
0
0
0
0
0
0
0
0
0
0
0
0
0
0
0
0
0
0
0
0
0
0
0
0
0
0
0
0
0
0
0
0
0
0
0
0
0
0
0
0
0
0
0
0
0
0
0
0
0
0
0
0
0
0
0
0
0
0
0
0
0
0
0
0
0
0
)
;
    }
}


// ************************************************************************* //
