/*--------------------------------*- C++ -*----------------------------------*\
| =========                 |                                                 |
| \\      /  F ield         | OpenFOAM: The Open Source CFD Toolbox           |
|  \\    /   O peration     | Version:  2506                                  |
|   \\  /    A nd           | Website:  www.openfoam.com                      |
|    \\/     M anipulation  |                                                 |
\*---------------------------------------------------------------------------*/
FoamFile
{
    version     2.0;
    format      ascii;
    arch        "LSB;label=32;scalar=64";
    class       volVectorField;
    location    "0.05";
    object      U;
}
// * * * * * * * * * * * * * * * * * * * * * * * * * * * * * * * * * * * * * //

dimensions      [0 1 -1 0 0 0 0];

internalField   nonuniform List<vector> 
1152
(
(-3.72438e-05 0.000632347 0.0133118)
(0.00137361 0.0016981 0.0165059)
(0.00156164 0.00135721 0.0231761)
(0.000530825 0.00241756 0.0186508)
(0.00115564 -0.000167815 0.0193505)
(0.000589174 -0.000126329 0.0106417)
(0.00135023 0.000103998 0.0117776)
(0.00133919 0.0011083 0.0143662)
(0.00157157 0.000896552 0.0203283)
(0.00103093 0.00233297 0.0116796)
(0.00145013 0.00115196 0.0123405)
(0.000627717 0.00125 0.0138994)
(0.00231754 0.00135317 0.00996172)
(0.00177887 0.00150305 0.0104343)
(-0.000401012 0.000840536 0.012548)
(0.000436339 0.00103884 0.0239449)
(-0.000514931 0.000424046 0.0289224)
(0.000378343 0.000828788 0.0290588)
(0.00194609 0.000222018 0.0200394)
(0.000519943 -0.000260357 0.0150206)
(0.00107144 -0.000783383 0.0138409)
(0.000834734 0.00140445 0.0226534)
(0.000871919 0.00128087 0.0211723)
(0.00104928 -0.00034962 0.026521)
(0.000683118 0.000903736 0.017471)
(0.00246123 0.000811487 0.0182345)
(0.000530947 0.00104882 0.0315908)
(0.00155575 0.000589763 0.0191115)
(0.00212441 0.00327172 0.0269253)
(0.000328126 0.00135148 0.0499859)
(-0.000772923 0.00150122 0.0250741)
(0.00117016 0.00186773 0.0107887)
(-0.000887404 -0.000264818 0.0204469)
(0.000190977 -0.00148392 0.0185571)
(0.00239959 -0.000677093 0.0353372)
(0.00049154 -0.000129208 0.0433793)
(0.000796152 0.000334296 0.0441293)
(-0.00117751 0.000813773 0.0237008)
(-0.000442294 -0.00012147 0.0286863)
(0.00058535 0.000485534 0.0231364)
(0.000471912 -0.000180798 0.012494)
(-0.000314516 -0.00075062 0.0257692)
(0.000692835 0.00118162 0.0237684)
(0.00233973 0.00205745 0.0244388)
(-0.000517664 0.000860723 0.0265534)
(0.00116553 0.00076437 0.0316419)
(0.00214866 0.00152107 0.0198813)
(0.00243716 0.00165993 0.0310533)
(-0.000298688 -7.4916e-05 0.0275801)
(-0.000545454 -0.00115332 0.0163658)
(-0.000656179 -0.000941761 0.021498)
(0.000551711 -0.00193937 0.034628)
(-0.00179058 0.000210537 0.0358854)
(0.000328307 0.000503866 0.0260276)
(0.000524803 0.000209934 0.0140178)
(0.00019151 0.00103074 0.0211541)
(-1.3281e-05 0.00030658 0.0160355)
(-0.00100199 0.00093554 0.0279048)
(0.000194143 0.00121036 0.0215484)
(0.00047731 0.00027168 0.0199622)
(0.000188051 -0.000975884 0.0344882)
(0.0014145 -0.000125334 0.028881)
(0.000187873 0.00123476 0.030398)
(-0.000638392 -0.00184539 0.0242187)
(0.00503607 0.00124434 0.0405398)
(0.000383102 0.000316138 0.00901605)
(-0.00352165 0.00315635 0.03592)
(0.00101326 0.0013492 0.021092)
(0.000971124 0.00100292 0.0244379)
(0.000816952 -0.000719653 0.0119592)
(0.00171697 0.00107452 0.0261127)
(0.000949427 0.00228327 0.0258425)
(0.000711229 0.00294891 0.0262292)
(0.000635802 0.000165187 0.0268395)
(0.00108833 -0.000653638 0.0171413)
(-0.000156467 -0.00148817 0.0238101)
(0.000367844 -8.54946e-05 0.018591)
(-0.00213668 0.000133457 0.026486)
(-0.000542095 1.12051e-05 0.0408131)
(-0.000501808 -0.000499402 0.0218918)
(-0.000446718 0.000853357 0.0132677)
(0.0013915 0.00471974 0.0294778)
(0.00221049 0.00178735 0.0111622)
(0.000722267 0.000753577 0.00835462)
(-0.000262075 0.0015391 0.0223255)
(0.00172037 0.00188074 0.0151071)
(0.00235492 0.00154486 0.0149339)
(0.00100018 -0.000739353 0.0193871)
(0.000449572 0.000659063 0.0120115)
(0.000856942 0.00108039 0.0132127)
(0.000902926 0.000405372 0.0147103)
(-0.000374834 -0.000420231 0.0177702)
(-0.00187286 0.000732019 0.0375598)
(0.00115231 0.000342854 0.0141017)
(0.000153412 -0.000976297 0.012305)
(0.000317168 -0.000566434 0.0104635)
(-0.000111309 -0.00066072 0.0234067)
(0.000163048 -0.000115662 0.0120494)
(6.41148e-05 -0.000581602 0.0179311)
(0.000233948 0.000483044 0.0136846)
(7.70571e-05 6.18222e-05 0.0130419)
(0.000104317 -4.47255e-05 0.00995471)
(-0.000327504 0.000100229 0.0150967)
(-0.000339731 -0.000345746 0.0212112)
(6.48659e-06 -0.000138813 0.0167771)
(0.000362973 -0.000299086 0.0148479)
(6.33027e-05 -3.41595e-06 0.0130872)
(-6.05792e-05 0.000102929 0.0161843)
(8.42109e-05 -2.57206e-05 0.0126548)
(-6.54771e-05 -0.000105275 0.0173622)
(0.000268801 -0.000381593 0.0204656)
(-0.000696578 -0.000630563 0.0110308)
(-0.00028236 -0.000424986 0.0261989)
(-0.000143791 -3.36869e-05 0.0213594)
(-0.0005845 -0.00039424 0.0217935)
(-0.000194373 -0.000319689 0.022318)
(-0.000306599 -7.99164e-05 0.0200627)
(-0.000546285 -0.000166822 0.0161688)
(-0.00103421 -0.000108587 0.0207606)
(-0.000423608 0.000112232 0.023098)
(-0.000291541 -0.000318435 0.021852)
(-0.000370632 -0.000396819 0.0201447)
(-0.000489383 -0.000199768 0.0201089)
(-0.000269684 0.000785549 0.0209795)
(-0.0004274 -0.00010392 0.0229776)
(-0.000596298 0.000136345 0.0229614)
(1.97879e-05 0.000300231 0.0241881)
(-4.17933e-05 0.000768011 0.0189264)
(-0.000113401 -0.00062819 0.00707365)
(0.000145594 -0.000452371 0.0064497)
(-0.000463019 -0.000866771 0.00675257)
(-0.000398361 -0.0002562 0.00743405)
(-0.000226708 -0.000136628 0.00619502)
(-0.000332952 -0.000323455 0.00583414)
(-0.000801556 -0.000471555 0.0067932)
(-0.000429732 -0.000247616 0.00763918)
(-0.00032918 -0.000667912 0.00661937)
(-0.000329764 -0.000887192 0.00652552)
(-0.000526239 -0.000835754 0.00685847)
(-0.000365324 -0.000409798 0.00711637)
(-0.000634688 -0.000602013 0.00695543)
(-0.000574193 -0.000678242 0.00725726)
(-0.000379819 -0.000968145 0.00775491)
(-0.000237324 -0.00104971 0.00685368)
(-0.000119642 -0.000338681 0.0115784)
(-0.000131314 -0.000330626 0.0114004)
(-0.000408676 -0.000458482 0.0115135)
(-0.00040775 -0.000262449 0.011908)
(-0.000213902 -0.000227084 0.0113288)
(-0.000314289 -0.000313224 0.0112469)
(-0.000506334 -0.000365723 0.0116156)
(-0.000384744 -0.000241527 0.0119721)
(-0.000285769 -0.000447066 0.0115925)
(-0.000329857 -0.000530568 0.0115974)
(-0.00039315 -0.000500552 0.0118218)
(-0.000287079 -0.000304202 0.0119859)
(-0.000424511 -0.00044719 0.0118687)
(-0.00039602 -0.000484343 0.0120175)
(-0.00029659 -0.000547648 0.0123074)
(-0.000140011 -0.00049854 0.012223)
(-8.98552e-05 -0.000167983 0.0106695)
(-0.000156941 -0.000196771 0.0106692)
(-0.00027228 -0.000241308 0.0107754)
(-0.000275115 -0.0002013 0.0109856)
(-0.000145342 -0.000186087 0.0106452)
(-0.000225151 -0.000231562 0.0106798)
(-0.000308587 -0.000262572 0.0108534)
(-0.000276639 -0.00023649 0.0110352)
(-0.000191913 -0.00027051 0.0107833)
(-0.000252247 -0.000316718 0.0108397)
(-0.000295157 -0.000331856 0.0109744)
(-0.000258066 -0.000299538 0.0110776)
(-0.000259042 -0.000270202 0.0109365)
(-0.00029368 -0.000307732 0.0110308)
(-0.00029532 -0.000353306 0.0111681)
(-0.000240865 -0.000377081 0.0111838)
(-6.79733e-05 -8.87059e-05 0.0108535)
(-0.000120887 -0.000112542 0.0108784)
(-0.000172761 -0.000133993 0.0109455)
(-0.00017705 -0.000131446 0.0110476)
(-9.7897e-05 -0.000122467 0.0108768)
(-0.000149437 -0.000147085 0.0109156)
(-0.000188244 -0.000163032 0.0110014)
(-0.000180168 -0.000158207 0.0110967)
(-0.000124344 -0.000159338 0.0109506)
(-0.000166047 -0.000182932 0.0109993)
(-0.000188286 -0.000193257 0.0110812)
(-0.000171422 -0.00018473 0.0111589)
(-0.000155622 -0.00016047 0.011033)
(-0.000183893 -0.000180318 0.0110977)
(-0.000188945 -0.000195145 0.0111865)
(-0.000160187 -0.000201318 0.011253)
(-4.83594e-05 -4.80545e-05 0.0109596)
(-7.98285e-05 -6.3431e-05 0.0109804)
(-0.000104064 -7.61782e-05 0.0110199)
(-0.000106554 -8.1108e-05 0.0110722)
(-6.48651e-05 -7.28077e-05 0.0109818)
(-9.43975e-05 -8.71116e-05 0.0110091)
(-0.000113078 -9.67315e-05 0.0110546)
(-0.000110194 -9.8252e-05 0.0111057)
(-7.98567e-05 -9.07374e-05 0.0110217)
(-0.000104587 -0.000103695 0.011054)
(-0.000116197 -0.000110454 0.0111002)
(-0.000107659 -0.000109446 0.0111463)
(-9.53924e-05 -9.12414e-05 0.0110661)
(-0.000113643 -0.000101748 0.0111049)
(-0.000118242 -0.000108057 0.0111537)
(-0.000103562 -0.00011033 0.0111969)
(-3.35891e-05 -2.66536e-05 0.0110194)
(-5.06387e-05 -3.61933e-05 0.0110335)
(-6.21505e-05 -4.42072e-05 0.0110566)
(-6.31298e-05 -4.91794e-05 0.011085)
(-4.32084e-05 -4.19868e-05 0.011034)
(-5.90462e-05 -5.05173e-05 0.0110517)
(-6.80102e-05 -5.65779e-05 0.0110777)
(-6.62257e-05 -5.90522e-05 0.0111067)
(-5.18921e-05 -5.13252e-05 0.0110562)
(-6.53309e-05 -5.86916e-05 0.011077)
(-7.09751e-05 -6.29108e-05 0.0111042)
(-6.59259e-05 -6.34692e-05 0.0111322)
(-6.00006e-05 -5.14905e-05 0.0110807)
(-7.02488e-05 -5.71434e-05 0.0111047)
(-7.25464e-05 -6.00783e-05 0.0111334)
(-6.42146e-05 -6.0733e-05 0.011161)
(-2.32358e-05 -1.5044e-05 0.0110542)
(-3.22722e-05 -2.09914e-05 0.0110632)
(-3.77191e-05 -2.60576e-05 0.0110768)
(-3.78307e-05 -2.96861e-05 0.0110926)
(-2.90791e-05 -2.41513e-05 0.0110629)
(-3.734e-05 -2.92704e-05 0.0110741)
(-4.1521e-05 -3.30834e-05 0.0110893)
(-4.00612e-05 -3.51063e-05 0.0111059)
(-3.421e-05 -2.92194e-05 0.0110753)
(-4.11993e-05 -3.34697e-05 0.0110883)
(-4.36905e-05 -3.60489e-05 0.0111045)
(-4.03686e-05 -3.67324e-05 0.0111212)
(-3.85961e-05 -2.9326e-05 0.0110888)
(-4.39468e-05 -3.23834e-05 0.0111036)
(-4.46984e-05 -3.38264e-05 0.0111207)
(-3.96196e-05 -3.3923e-05 0.0111375)
(-1.61584e-05 -8.63973e-06 0.0110737)
(-2.09385e-05 -1.23543e-05 0.0110795)
(-2.34435e-05 -1.55374e-05 0.0110876)
(-2.31321e-05 -1.79313e-05 0.0110967)
(-1.97657e-05 -1.39982e-05 0.0110787)
(-2.40249e-05 -1.70713e-05 0.0110858)
(-2.58517e-05 -1.94367e-05 0.0110949)
(-2.4603e-05 -2.08305e-05 0.0111047)
(-2.28262e-05 -1.68103e-05 0.0110857)
(-2.63665e-05 -1.92689e-05 0.0110939)
(-2.72838e-05 -2.08154e-05 0.0111037)
(-2.49658e-05 -2.13227e-05 0.0111137)
(-2.52497e-05 -1.68968e-05 0.0110933)
(-2.79066e-05 -1.85426e-05 0.0111025)
(-2.78771e-05 -1.9263e-05 0.0111128)
(-2.46032e-05 -1.91886e-05 0.011123)
(-1.137e-05 -5.10817e-06 0.0110843)
(-1.38523e-05 -7.38883e-06 0.0110881)
(-1.4942e-05 -9.35759e-06 0.011093)
(-1.44727e-05 -1.08638e-05 0.0110984)
(-1.35694e-05 -8.20895e-06 0.0110872)
(-1.57336e-05 -1.00548e-05 0.0110918)
(-1.64304e-05 -1.14983e-05 0.0110974)
(-1.53924e-05 -1.23879e-05 0.0111032)
(-1.53851e-05 -9.79113e-06 0.0110912)
(-1.7135e-05 -1.12071e-05 0.0110964)
(-1.73253e-05 -1.21174e-05 0.0111025)
(-1.56694e-05 -1.24418e-05 0.0111085)
(-1.67324e-05 -9.84504e-06 0.0110955)
(-1.79896e-05 -1.07206e-05 0.0111013)
(-1.76547e-05 -1.10753e-05 0.0111076)
(-1.54737e-05 -1.09668e-05 0.0111138)
(-8.0948e-06 -3.13338e-06 0.0110901)
(-9.30836e-06 -4.49047e-06 0.0110926)
(-9.7326e-06 -5.67941e-06 0.0110957)
(-9.25108e-06 -6.59983e-06 0.011099)
(-9.39425e-06 -4.86115e-06 0.0110918)
(-1.04518e-05 -5.96907e-06 0.0110948)
(-1.06352e-05 -6.83664e-06 0.0110983)
(-9.80669e-06 -7.38038e-06 0.0111019)
(-1.04514e-05 -5.75951e-06 0.0110941)
(-1.12797e-05 -6.57037e-06 0.0110975)
(-1.11744e-05 -7.09565e-06 0.0111013)
(-9.9862e-06 -7.28584e-06 0.011105)
(-1.11946e-05 -5.78225e-06 0.0110966)
(-1.1746e-05 -6.24106e-06 0.0111003)
(-1.13456e-05 -6.40648e-06 0.0111042)
(-9.86631e-06 -6.30434e-06 0.011108)
(-5.77913e-06 -1.96268e-06 0.0110932)
(-6.30558e-06 -2.75105e-06 0.011095)
(-6.42749e-06 -3.45618e-06 0.011097)
(-6.00559e-06 -4.00889e-06 0.0110991)
(-6.52289e-06 -2.88027e-06 0.0110942)
(-7.00008e-06 -3.54598e-06 0.0110963)
(-6.97236e-06 -4.0648e-06 0.0110985)
(-6.33674e-06 -4.39232e-06 0.0111008)
(-7.12628e-06 -3.39311e-06 0.0110956)
(-7.48721e-06 -3.85871e-06 0.0110979)
(-7.29202e-06 -4.15902e-06 0.0111003)
(-6.44547e-06 -4.26626e-06 0.0111026)
(-7.53078e-06 -3.39943e-06 0.0110971)
(-7.74017e-06 -3.63822e-06 0.0110995)
(-7.37655e-06 -3.70983e-06 0.011102)
(-6.36764e-06 -3.62764e-06 0.0111044)
(-4.06833e-06 -1.20641e-06 0.0110949)
(-4.26051e-06 -1.66944e-06 0.0110962)
(-4.25759e-06 -2.08687e-06 0.0110975)
(-3.92222e-06 -2.41676e-06 0.0110989)
(-4.49607e-06 -1.68039e-06 0.0110956)
(-4.6863e-06 -2.08457e-06 0.011097)
(-4.58943e-06 -2.39703e-06 0.0110985)
(-4.12028e-06 -2.59545e-06 0.0110999)
(-4.83895e-06 -1.97806e-06 0.0110964)
(-4.975e-06 -2.2489e-06 0.0110979)
(-4.77912e-06 -2.42142e-06 0.0110995)
(-4.18538e-06 -2.48162e-06 0.011101)
(-5.05676e-06 -1.98249e-06 0.0110973)
(-5.11336e-06 -2.10713e-06 0.0110989)
(-4.81947e-06 -2.13522e-06 0.0111005)
(-4.13396e-06 -2.07473e-06 0.011102)
(-2.77666e-06 -7.01599e-07 0.0110959)
(-2.83682e-06 -9.82373e-07 0.0110968)
(-2.79079e-06 -1.23003e-06 0.0110977)
(-2.53981e-06 -1.42535e-06 0.0110987)
(-3.02991e-06 -9.55346e-07 0.0110963)
(-3.09424e-06 -1.19774e-06 0.0110973)
(-2.99088e-06 -1.3838e-06 0.0110983)
(-2.6576e-06 -1.50282e-06 0.0110993)
(-3.22512e-06 -1.12961e-06 0.0110968)
(-3.26371e-06 -1.28624e-06 0.0110979)
(-3.10193e-06 -1.38424e-06 0.0110989)
(-2.69519e-06 -1.41699e-06 0.0110999)
(-3.34059e-06 -1.1352e-06 0.0110973)
(-3.33863e-06 -1.19935e-06 0.0110984)
(-3.11955e-06 -1.20745e-06 0.0110995)
(-2.66091e-06 -1.16479e-06 0.0111005)
(-1.79872e-06 -3.89405e-07 0.0110965)
(-1.82238e-06 -5.52826e-07 0.0110971)
(-1.76717e-06 -6.94432e-07 0.0110978)
(-1.58795e-06 -8.05823e-07 0.0110985)
(-1.94666e-06 -5.31487e-07 0.0110967)
(-1.96457e-06 -6.64597e-07 0.0110974)
(-1.87947e-06 -7.67411e-07 0.0110982)
(-1.65447e-06 -8.3428e-07 0.0110989)
(-2.05464e-06 -6.27458e-07 0.011097)
(-2.05721e-06 -7.11943e-07 0.0110978)
(-1.94006e-06 -7.63603e-07 0.0110985)
(-1.674e-06 -7.79092e-07 0.0110992)
(-2.11293e-06 -6.29777e-07 0.0110973)
(-2.09446e-06 -6.60104e-07 0.0110981)
(-1.94506e-06 -6.58822e-07 0.0110989)
(-1.65009e-06 -6.29728e-07 0.0110996)
(-1.0723e-06 -2.1885e-07 0.0110968)
(-1.08428e-06 -3.0401e-07 0.0110973)
(-1.03616e-06 -3.77859e-07 0.0110979)
(-9.18904e-07 -4.35899e-07 0.0110984)
(-1.14872e-06 -2.9674e-07 0.0110969)
(-1.15088e-06 -3.58665e-07 0.0110975)
(-1.09105e-06 -4.07835e-07 0.0110981)
(-9.5211e-07 -4.40738e-07 0.0110986)
(-1.2029e-06 -3.40981e-07 0.0110971)
(-1.19455e-06 -3.80193e-07 0.0110977)
(-1.11959e-06 -4.03368e-07 0.0110983)
(-9.60116e-07 -4.08803e-07 0.0110988)
(-1.22902e-06 -3.37068e-07 0.0110973)
(-1.20968e-06 -3.48362e-07 0.0110979)
(-1.11833e-06 -3.43347e-07 0.0110985)
(-9.43963e-07 -3.25256e-07 0.011099)
(-6.10991e-07 -1.70279e-07 0.0110969)
(-6.11352e-07 -2.11593e-07 0.0110974)
(-5.77431e-07 -2.47135e-07 0.0110978)
(-5.09174e-07 -2.74007e-07 0.0110983)
(-6.47751e-07 -2.03932e-07 0.011097)
(-6.41633e-07 -2.31732e-07 0.0110975)
(-6.01664e-07 -2.53152e-07 0.011098)
(-5.22205e-07 -2.65745e-07 0.0110984)
(-6.72741e-07 -2.16961e-07 0.0110971)
(-6.59974e-07 -2.32743e-07 0.0110976)
(-6.11652e-07 -2.39971e-07 0.0110981)
(-5.20739e-07 -2.37243e-07 0.0110985)
(-6.82377e-07 -2.06001e-07 0.0110973)
(-6.62684e-07 -2.06381e-07 0.0110978)
(-6.04793e-07 -1.97602e-07 0.0110982)
(-5.0409e-07 -1.81536e-07 0.0110986)
(0.000781046 0.000990862 0.0142164)
(0.00119583 -0.00119411 0.0153332)
(0.000630812 -0.000731178 0.0160756)
(-2.60576e-05 -0.00029932 0.0156777)
(0.000269683 -0.000465116 0.0130147)
(0.000524552 -0.000512111 0.00978846)
(0.00102438 0.00062776 0.0135942)
(0.000683352 0.000299398 0.0145265)
(-0.000473287 -5.72874e-05 0.00910598)
(0.00142847 -0.000372682 0.0122959)
(0.00139796 0.00107297 0.0150296)
(0.00135589 0.00193015 0.0124729)
(-0.000537902 0.00023382 0.0123714)
(0.00160605 6.27798e-05 0.0153912)
(0.00223989 -0.00053998 0.0195503)
(0.0016477 0.00119512 0.0136161)
(0.000658541 0.00138907 0.0260719)
(0.00140238 0.00106978 0.0209907)
(0.00268494 0.000554652 0.0244342)
(0.000373924 0.00120307 0.0187076)
(0.00134073 0.00174707 0.0271769)
(0.000689607 0.0031099 0.0324593)
(0.000188022 0.000348703 0.019287)
(0.000167275 -0.000647685 0.0140964)
(0.00239348 0.00162334 0.0263861)
(0.000152576 -0.000191505 0.0220973)
(-0.000819313 0.000220492 0.0322665)
(0.00101843 0.000666236 0.0170455)
(0.00152049 0.000885 0.0225263)
(-0.00113087 -0.000890883 0.0205223)
(0.000156703 -0.000344912 0.0168587)
(0.00238072 -3.00271e-05 0.0408362)
(0.000394662 -7.06452e-06 0.0201661)
(0.00117174 0.00241076 0.0222947)
(0.00257158 0.00151985 0.0336369)
(0.00214008 0.00148972 0.0622276)
(0.000909007 -9.21625e-05 0.0299082)
(0.001585 0.000977543 0.021076)
(0.00109903 0.00184239 0.0213834)
(0.000840039 0.00134184 0.0206173)
(-0.000946215 0.000597897 0.0189175)
(0.00277385 6.75815e-05 0.0393061)
(0.00165854 0.00106504 0.0235697)
(-0.000806054 0.000877776 0.0181801)
(0.00024926 -9.05149e-06 0.0371928)
(0.00192358 -0.000310286 0.023608)
(0.000366676 0.000688207 0.0305314)
(-0.00231497 7.63354e-05 0.0363455)
(0.00355558 0.000110195 0.0330642)
(0.00125079 -0.000180636 0.0228174)
(-0.000216522 0.000234514 0.0248361)
(0.000328466 0.00240827 0.0189264)
(0.00112174 -2.30436e-05 0.0159259)
(0.00132618 0.000218051 0.0419426)
(0.00156431 -0.000102526 0.0238911)
(0.00125711 0.00355481 0.0179098)
(0.000477885 -0.0013446 0.0186599)
(0.000673435 7.99205e-06 0.0226996)
(0.00269056 0.000140348 0.0437592)
(0.00107662 0.00448312 0.0288532)
(0.000401412 -0.00174134 0.0196978)
(0.00210024 -0.000257465 0.0255006)
(0.00275952 -0.00105834 0.0335334)
(0.00085943 0.00294336 0.0266291)
(0.00112431 -0.00230595 0.0266467)
(0.000519114 -0.00132738 0.0163384)
(0.00101738 0.00247328 0.0419279)
(-0.000262185 0.0014466 0.0152359)
(-5.33974e-05 0.00083046 0.0319405)
(0.000971678 -0.00115041 0.015195)
(0.000658338 -0.00162695 0.014594)
(-0.00286294 -0.000748138 0.0329115)
(0.00411299 -0.00117596 0.0279394)
(-0.0022712 0.000315422 0.035395)
(-0.000842243 -0.0040565 0.027696)
(-0.000370817 -0.00110808 0.0116098)
(0.00121285 -0.0027144 0.0263)
(0.000195169 -1.46009e-05 0.025218)
(5.24625e-05 -0.000869548 0.0261861)
(0.000435192 3.54808e-05 0.0673693)
(0.00114458 0.000187809 0.0189727)
(3.01491e-05 0.000213858 0.0138514)
(-0.000418338 -0.000913615 0.0200847)
(0.000593344 -0.00234805 0.0123995)
(0.00089687 -0.000448851 0.00830415)
(0.000399676 -0.00242002 0.0186042)
(-0.00247226 -0.00281193 0.0275664)
(-0.00227479 -0.00342248 0.0263209)
(0.000432326 -3.60504e-05 0.0301249)
(-0.000491505 -0.00132583 0.0112281)
(-0.00157578 -0.00456383 0.0194946)
(-0.00130329 -0.00334849 0.0114084)
(0.00107221 -8.80702e-05 0.00806239)
(-0.00137941 0.000588399 0.0143935)
(-0.00262282 -0.00121491 0.0177742)
(-0.00140936 -0.00528191 0.0213772)
(-8.12031e-05 -7.94315e-05 0.0206463)
(-2.62962e-05 -0.000348593 0.0132247)
(-4.82662e-05 -0.000359474 0.0177148)
(-0.000183696 -0.000653807 0.0133166)
(5.86605e-05 -0.000485089 0.0133351)
(-0.000171998 -8.08824e-05 0.0187578)
(4.6659e-05 0.000243378 0.0290232)
(0.000153531 -0.000516689 0.023987)
(0.000338959 -0.000291546 0.0261975)
(0.000362718 -0.000395177 0.0131987)
(0.000645485 0.00092395 0.0159931)
(-0.000521275 -0.000441407 0.0145017)
(0.000148204 0.000255705 0.0145541)
(0.000347604 -0.00113781 0.017221)
(0.000742171 -0.000886941 0.0114447)
(-0.000357633 -0.000316441 0.0262845)
(-0.00039786 0.000203451 0.0244381)
(-5.92326e-05 0.000186264 0.0215877)
(4.43824e-05 0.000370022 0.0249657)
(0.000113519 0.000664826 0.022307)
(-0.000514703 -0.000126345 0.0222498)
(-0.000259638 0.000523231 0.0234366)
(0.000422877 0.000781908 0.0295975)
(0.000706932 0.000708365 0.0265076)
(-0.000133487 8.30197e-05 0.0306166)
(0.00085875 0.000465974 0.0218091)
(0.000805014 0.00122428 0.0263186)
(0.000346636 0.000623462 0.0263377)
(-0.000344557 0.000560374 0.0221884)
(0.000747188 -0.000138527 0.0232377)
(0.000433003 0.000257405 0.0220132)
(-0.000131125 0.000149487 0.0345397)
(-0.000720052 -0.000373071 0.00734924)
(-0.00067315 -0.000412236 0.0072373)
(-0.000742581 -0.000803778 0.00802609)
(-0.000301221 -0.00136781 0.00757839)
(-0.000862717 -0.000580857 0.00709782)
(-0.000884673 -8.02217e-05 0.00754363)
(-0.00083659 -0.000240279 0.00886011)
(-0.000251022 -0.00124251 0.00826452)
(-0.000644816 5.58914e-05 0.00832277)
(-0.000329672 0.000147837 0.00699896)
(-0.000828055 0.000550138 0.00804516)
(-0.000479715 -0.000942431 0.00853341)
(-0.00101333 0.000575789 0.00653623)
(-0.000569931 0.000172841 0.00680093)
(-0.00108188 0.000706072 0.00715808)
(-0.000448936 -0.000339834 0.00961287)
(-0.000483205 -0.000373851 0.0121437)
(-0.000421763 -0.000377926 0.0122395)
(-0.00036096 -0.000507656 0.0127117)
(-0.000177055 -0.00065039 0.0127824)
(-0.000556711 -0.000380192 0.0122318)
(-0.000466006 -0.000212921 0.0124419)
(-0.000394889 -0.000297152 0.0131363)
(-0.000177972 -0.000651497 0.0132182)
(-0.000498432 -3.89193e-05 0.0126531)
(-0.000289717 -1.64697e-05 0.012385)
(-0.000412636 6.65464e-05 0.013099)
(-0.000218131 -0.000501189 0.0136025)
(-0.000633726 0.000200334 0.0120041)
(-0.000373124 9.46512e-05 0.012288)
(-0.000494266 0.000254328 0.0129086)
(-0.000141311 -0.000180378 0.0140419)
(-0.000306129 -0.000214615 0.0110917)
(-0.000329424 -0.000228309 0.0111707)
(-0.000335536 -0.000276548 0.0113394)
(-0.000238847 -0.000355103 0.0113629)
(-0.00034758 -0.000158259 0.0111966)
(-0.00034499 -0.000116311 0.0112866)
(-0.000345551 -0.000146565 0.0115072)
(-0.000211005 -0.000294641 0.0115204)
(-0.000341723 -1.92545e-06 0.0113483)
(-0.00029624 1.11785e-05 0.0113107)
(-0.000339332 2.64652e-05 0.0115457)
(-0.000179864 -0.000188511 0.0116822)
(-0.00038648 8.07672e-05 0.0111559)
(-0.000318962 8.51756e-05 0.0112785)
(-0.000348101 0.000146633 0.0115113)
(-0.000116165 -3.55033e-05 0.0118311)
(-0.000179785 -0.000129906 0.0111108)
(-0.000197573 -0.000139921 0.0111804)
(-0.000197223 -0.000154961 0.0112835)
(-0.000151651 -0.000177687 0.0113565)
(-0.000199928 -8.67079e-05 0.0111617)
(-0.000202432 -8.07818e-05 0.0112386)
(-0.000195371 -9.44509e-05 0.0113626)
(-0.000130198 -0.000144723 0.0114361)
(-0.000204141 -1.44269e-05 0.0112014)
(-0.000188997 -9.4351e-06 0.011256)
(-0.00018604 -1.26889e-05 0.011395)
(-0.000102682 -8.82476e-05 0.0115047)
(-0.000217624 2.62365e-05 0.0111391)
(-0.000191325 4.20404e-05 0.0112396)
(-0.000176538 5.98413e-05 0.0113937)
(-6.19841e-05 -1.1989e-05 0.0115569)
(-0.000108199 -7.46976e-05 0.0111083)
(-0.000120263 -8.02172e-05 0.0111513)
(-0.000120108 -8.43286e-05 0.0112033)
(-9.59814e-05 -9.12383e-05 0.0112449)
(-0.000117647 -4.90071e-05 0.0111388)
(-0.000121481 -4.86255e-05 0.0111869)
(-0.000115486 -5.2642e-05 0.0112454)
(-8.07895e-05 -7.03206e-05 0.0112843)
(-0.000120685 -1.44132e-05 0.0111562)
(-0.000115703 -1.03572e-05 0.0112038)
(-0.000106289 -1.14206e-05 0.0112698)
(-6.17292e-05 -3.9282e-05 0.0113179)
(-0.00012452 8.47554e-06 0.0111411)
(-0.000112498 2.12751e-05 0.011203)
(-9.54417e-05 2.88967e-05 0.0112783)
(-3.77247e-05 -7.43834e-07 0.0113415)
(-6.65592e-05 -4.24486e-05 0.011104)
(-7.34518e-05 -4.53322e-05 0.0111307)
(-7.25121e-05 -4.63476e-05 0.0111604)
(-5.8898e-05 -4.80443e-05 0.0111864)
(-7.09194e-05 -2.81626e-05 0.0111215)
(-7.34674e-05 -2.8234e-05 0.0111516)
(-6.84356e-05 -2.9123e-05 0.0111836)
(-4.91285e-05 -3.5559e-05 0.0112072)
(-7.22278e-05 -1.05515e-05 0.011131)
(-7.01393e-05 -7.42842e-06 0.0111634)
(-6.16116e-05 -7.23466e-06 0.0111986)
(-3.71842e-05 -1.82572e-05 0.0112242)
(-7.29359e-05 2.9705e-06 0.0111292)
(-6.67079e-05 1.14724e-05 0.0111664)
(-5.35337e-05 1.53049e-05 0.0112056)
(-2.32138e-05 2.19532e-06 0.0112355)
(-4.19265e-05 -2.44228e-05 0.0111017)
(-4.54585e-05 -2.5811e-05 0.0111182)
(-4.4202e-05 -2.58763e-05 0.0111356)
(-3.61595e-05 -2.59662e-05 0.0111512)
(-4.38576e-05 -1.65681e-05 0.0111117)
(-4.50438e-05 -1.63732e-05 0.0111303)
(-4.11788e-05 -1.62392e-05 0.0111486)
(-3.00413e-05 -1.85911e-05 0.0111626)
(-4.41694e-05 -7.07632e-06 0.0111174)
(-4.28314e-05 -4.75947e-06 0.0111378)
(-3.65277e-05 -4.13355e-06 0.0111575)
(-2.27112e-05 -8.75724e-06 0.0111716)
(-4.39549e-05 1.14237e-06 0.0111184)
(-4.01984e-05 6.5446e-06 0.0111408)
(-3.11256e-05 8.7133e-06 0.0111621)
(-1.44887e-05 2.5361e-06 0.0111774)
(-2.69333e-05 -1.4221e-05 0.0111006)
(-2.8579e-05 -1.4817e-05 0.0111108)
(-2.73537e-05 -1.46091e-05 0.0111212)
(-2.24193e-05 -1.42858e-05 0.0111305)
(-2.77261e-05 -9.8572e-06 0.0111064)
(-2.80605e-05 -9.48436e-06 0.0111179)
(-2.52443e-05 -9.07788e-06 0.0111287)
(-1.85996e-05 -9.91956e-06 0.0111369)
(-2.76098e-05 -4.52958e-06 0.0111099)
(-2.65243e-05 -2.84103e-06 0.0111225)
(-2.21792e-05 -2.1749e-06 0.0111339)
(-1.41041e-05 -4.22973e-06 0.0111419)
(-2.71986e-05 5.11909e-07 0.0111113)
(-2.46833e-05 3.94039e-06 0.0111247)
(-1.87056e-05 5.27353e-06 0.0111368)
(-9.19755e-06 2.19206e-06 0.011145)
(-1.7575e-05 -8.34701e-06 0.0110997)
(-1.82551e-05 -8.55295e-06 0.0111061)
(-1.72206e-05 -8.29894e-06 0.0111125)
(-1.41049e-05 -7.93711e-06 0.0111181)
(-1.78503e-05 -5.86891e-06 0.0111031)
(-1.77751e-05 -5.46111e-06 0.0111103)
(-1.57862e-05 -5.04548e-06 0.0111168)
(-1.17043e-05 -5.32718e-06 0.0111217)
(-1.7601e-05 -2.79295e-06 0.0111054)
(-1.67054e-05 -1.5802e-06 0.0111131)
(-1.37924e-05 -1.01395e-06 0.0111199)
(-8.92578e-06 -1.97927e-06 0.0111245)
(-1.72141e-05 2.94078e-07 0.0111064)
(-1.54664e-05 2.49688e-06 0.0111146)
(-1.15921e-05 3.36364e-06 0.0111216)
(-5.95741e-06 1.75105e-06 0.0111263)
(-1.16055e-05 -4.91905e-06 0.011099)
(-1.18224e-05 -4.94913e-06 0.0111031)
(-1.10134e-05 -4.72135e-06 0.011107)
(-9.00852e-06 -4.41842e-06 0.0111105)
(-1.16563e-05 -3.48219e-06 0.0111011)
(-1.14299e-05 -3.11827e-06 0.0111056)
(-1.00497e-05 -2.77208e-06 0.0111096)
(-7.48594e-06 -2.84543e-06 0.0111126)
(-1.14002e-05 -1.67412e-06 0.0111025)
(-1.06913e-05 -8.13884e-07 0.0111073)
(-8.75762e-06 -3.74348e-07 0.0111114)
(-5.75068e-06 -8.47918e-07 0.0111142)
(-1.10912e-05 2.09057e-07 0.0111032)
(-9.8713e-06 1.64423e-06 0.0111083)
(-7.36838e-06 2.2276e-06 0.0111125)
(-3.93015e-06 1.3536e-06 0.0111152)
(-7.72133e-06 -2.89498e-06 0.0110985)
(-7.73776e-06 -2.85689e-06 0.0111011)
(-7.13479e-06 -2.67509e-06 0.0111036)
(-5.83056e-06 -2.44464e-06 0.0111058)
(-7.68418e-06 -2.05296e-06 0.0110998)
(-7.43859e-06 -1.75921e-06 0.0111027)
(-6.492e-06 -1.49432e-06 0.0111052)
(-4.85626e-06 -1.49196e-06 0.011107)
(-7.46602e-06 -9.80853e-07 0.0111007)
(-6.93335e-06 -3.76337e-07 0.0111037)
(-5.65488e-06 -4.96296e-08 0.0111063)
(-3.76182e-06 -2.88066e-07 0.011108)
(-7.23517e-06 1.63521e-07 0.0111012)
(-6.39374e-06 1.1094e-06 0.0111043)
(-4.77566e-06 1.51081e-06 0.0111069)
(-2.63118e-06 1.02663e-06 0.0111086)
(-5.13775e-06 -1.69054e-06 0.0110982)
(-5.08512e-06 -1.63448e-06 0.0110999)
(-4.65087e-06 -1.4989e-06 0.0111015)
(-3.79954e-06 -1.33172e-06 0.0111028)
(-5.0752e-06 -1.19816e-06 0.0110989)
(-4.86736e-06 -9.74942e-07 0.0111008)
(-4.22581e-06 -7.81671e-07 0.0111024)
(-3.17445e-06 -7.55826e-07 0.0111036)
(-4.90514e-06 -5.62622e-07 0.0110995)
(-4.52547e-06 -1.42464e-07 0.0111015)
(-3.68491e-06 9.39105e-08 0.0111031)
(-2.48115e-06 -2.70324e-08 0.0111042)
(-4.73911e-06 1.28825e-07 0.0110998)
(-4.17189e-06 7.55032e-07 0.0111018)
(-3.12756e-06 1.03356e-06 0.0111035)
(-1.77336e-06 7.6318e-07 0.0111045)
(-3.36994e-06 -9.69788e-07 0.0110979)
(-3.30692e-06 -9.17365e-07 0.011099)
(-3.00602e-06 -8.21251e-07 0.0111001)
(-2.45659e-06 -7.05037e-07 0.011101)
(-3.30959e-06 -6.85618e-07 0.0110984)
(-3.15545e-06 -5.25079e-07 0.0110996)
(-2.73081e-06 -3.89911e-07 0.0111007)
(-2.06095e-06 -3.62357e-07 0.0111014)
(-3.18563e-06 -3.13861e-07 0.0110987)
(-2.92936e-06 -2.91451e-08 0.0111001)
(-2.38637e-06 1.36537e-07 0.0111011)
(-1.62558e-06 7.58984e-08 0.0111018)
(-3.07116e-06 9.76515e-08 0.011099)
(-2.70113e-06 5.07593e-07 0.0111003)
(-2.0361e-06 6.98814e-07 0.0111014)
(-1.18416e-06 5.48987e-07 0.011102)
(-2.11982e-06 -5.37496e-07 0.0110977)
(-2.06774e-06 -4.97324e-07 0.0110985)
(-1.8721e-06 -4.33162e-07 0.0110992)
(-1.53134e-06 -3.58127e-07 0.0110998)
(-2.07306e-06 -3.7785e-07 0.011098)
(-1.96927e-06 -2.7123e-07 0.0110989)
(-1.70234e-06 -1.82427e-07 0.0110996)
(-1.29148e-06 -1.61977e-07 0.0111001)
(-1.98983e-06 -1.67943e-07 0.0110983)
(-1.8273e-06 1.42528e-08 0.0110992)
(-1.49166e-06 1.23422e-07 0.0110999)
(-1.02741e-06 9.38387e-08 0.0111004)
(-1.91629e-06 6.8734e-08 0.0110984)
(-1.68624e-06 3.2607e-07 0.0110993)
(-1.27867e-06 4.51006e-07 0.0111001)
(-7.59636e-07 3.69985e-07 0.0111005)
(-1.22722e-06 -2.86036e-07 0.0110975)
(-1.1902e-06 -2.59872e-07 0.0110982)
(-1.07479e-06 -2.20875e-07 0.0110987)
(-8.8046e-07 -1.77343e-07 0.0110991)
(-1.19649e-06 -1.9986e-07 0.0110978)
(-1.132e-06 -1.36867e-07 0.0110984)
(-9.78044e-07 -8.41952e-08 0.011099)
(-7.45361e-07 -7.18595e-08 0.0110993)
(-1.14641e-06 -8.78979e-08 0.011098)
(-1.05038e-06 1.72858e-08 0.0110987)
(-8.58466e-07 8.17364e-08 0.0110992)
(-5.96333e-07 6.77645e-08 0.0110995)
(-1.10385e-06 4.14976e-08 0.0110981)
(-9.69667e-07 1.89045e-07 0.0110988)
(-7.36709e-07 2.6198e-07 0.0110993)
(-4.43607e-07 2.19909e-07 0.0110996)
(-6.76833e-07 -1.73415e-07 0.0110974)
(-6.4645e-07 -1.56938e-07 0.011098)
(-5.75344e-07 -1.33838e-07 0.0110984)
(-4.68486e-07 -1.065e-07 0.0110987)
(-6.57369e-07 -1.21897e-07 0.0110976)
(-6.11523e-07 -8.69352e-08 0.0110982)
(-5.19865e-07 -5.87271e-08 0.0110986)
(-3.94502e-07 -4.89861e-08 0.0110989)
(-6.29224e-07 -5.69534e-08 0.0110978)
(-5.65863e-07 -8.14119e-10 0.0110983)
(-4.53479e-07 3.11888e-08 0.0110987)
(-3.13163e-07 2.53016e-08 0.011099)
(-6.0634e-07 1.91795e-08 0.0110979)
(-5.20828e-07 9.74435e-08 0.0110984)
(-3.85269e-07 1.3214e-07 0.0110988)
(-2.29025e-07 1.08941e-07 0.011099)
(0.00154882 0.000694535 0.0117319)
(0.00308284 0.00100919 0.0162418)
(-0.00100096 0.000215044 0.00791582)
(-0.00167389 0.000169568 0.00960043)
(0.000468251 0.00159711 0.0134953)
(0.00103302 0.00107347 0.0102288)
(0.00184438 0.00188646 0.0148915)
(0.000635927 0.00140578 0.0163255)
(0.00219125 0.00074667 0.0191368)
(0.00225322 0.00155496 0.0118356)
(-0.000109021 -0.00021792 0.0174877)
(-0.00143589 -0.000354184 0.009334)
(0.000344301 0.00020727 0.00675603)
(0.00292693 -0.00028917 0.0197672)
(0.00072 -0.000212545 0.0072505)
(-7.75434e-05 0.00172548 0.0156949)
(-0.00065729 0.000301421 0.0183872)
(0.00120306 8.92961e-06 0.0283561)
(0.00377181 0.00285176 0.0407814)
(0.00117997 0.000804112 0.0183737)