/*--------------------------------*- C++ -*----------------------------------*\
| =========                 |                                                 |
| \\      /  F ield         | OpenFOAM: The Open Source CFD Toolbox           |
|  \\    /   O peration     | Version:  2506                                  |
|   \\  /    A nd           | Website:  www.openfoam.com                      |
|    \\/     M anipulation  |                                                 |
\*---------------------------------------------------------------------------*/
FoamFile
{
    version     2.0;
    format      ascii;
    arch        "LSB;label=32;scalar=64";
    class       surfaceScalarField;
    location    "0.002";
    object      phi;
}
// * * * * * * * * * * * * * * * * * * * * * * * * * * * * * * * * * * * * * //

dimensions      [0 3 -1 0 0 0 0];

oriented        oriented;

internalField   nonuniform List<scalar> 
1200
(
0.00280736
3.97138e-08
-3.46908e-08
0.00280736
-1.30877e-08
-1.26836e-07
0.0028072
-3.95799e-08
-5.20007e-08
0.0028072
-3.35997e-08
-2.3219e-07
0.00280745
-6.87198e-09
-6.13396e-07
0.00280771
7.91736e-09
-6.24497e-07
0.00280781
3.81575e-09
-3.09328e-07
0.00280778
-1.94058e-08
1.85487e-08
0.00280759
-1.60634e-08
3.49084e-07
0.00280737
1.97894e-08
3.94848e-07
0.00280726
2.2857e-08
2.16107e-07
0.00280721
9.46127e-09
8.14162e-08
0.00280724
5.92857e-10
-1.04438e-07
0.00280735
1.5845e-08
-3.10628e-07
0.00280754
5.51907e-08
-4.89768e-07
0.00280774
6.87518e-08
-4.98706e-07
0.00280777
5.09942e-08
-1.54938e-07
0.00280753
1.35412e-08
3.22421e-07
0.00280731
1.02953e-08
3.25413e-07
0.00280733
7.19486e-08
-1.15093e-07
0.00280754
1.00185e-07
-4.4228e-07
0.00280776
4.46453e-08
-3.64222e-07
0.0028077
-4.07127e-08
1.61454e-07
0.0028076
-1.06359e-07
4.06601e-07
0.00280761
-1.19907e-07
3.62861e-07
0.00280746
-9.89336e-08
6.08993e-07
0.00280723
-7.17394e-08
7.18009e-07
0.00280716
-2.51262e-08
4.50095e-07
0.00280716
1.93712e-08
2.74752e-07
0.0028071
3.41334e-08
3.22174e-07
0.00280707
6.52842e-08
2.60828e-07
8.15487e-08
1.37772e-07
0.00281376
3.73908e-08
-6.59156e-08
0.00281378
-2.46593e-08
-1.17757e-07
0.00281366
-4.18555e-08
-7.95183e-08
0.00281368
-2.64539e-08
-2.97143e-07
0.00281392
-1.83931e-09
-6.126e-07
0.00281416
3.24385e-08
-6.1907e-07
0.00281424
6.84712e-08
-3.55313e-07
0.00281424
5.65173e-08
-1.253e-07
0.00281408
-1.26813e-08
2.814e-07
0.00281383
-4.6354e-08
5.30109e-07
0.0028137
-2.61216e-08
3.22257e-07
0.00281366
1.6477e-08
8.24299e-08
0.00281371
6.24264e-08
-1.98089e-07
0.00281385
4.53135e-08
-3.46909e-07
0.00281401
3.54812e-08
-3.58649e-07
0.00281418
1.14384e-07
-4.07359e-07
0.00281419
1.09237e-07
-1.18333e-07
0.00281399
4.48567e-09
3.10607e-07
0.00281383
-1.57745e-08
2.97793e-07
0.00281381
4.42165e-08
6.84231e-08
0.00281394
7.71536e-08
-1.63456e-07
0.00281413
5.24838e-08
-2.64262e-07
0.0028141
-9.18005e-09
4.57093e-08
0.00281404
-8.20044e-08
1.58708e-07
0.00281409
-1.58864e-07
1.7893e-07
0.00281395
-1.98214e-07
5.51889e-07
0.00281373
-1.29264e-07
6.4544e-07
0.00281366
-3.96212e-08
4.24617e-07
0.00281363
2.79681e-09
3.42219e-07
0.00281359
5.74038e-08
3.08855e-07
0.00281354
1.15939e-07
2.7926e-07
1.05103e-07
1.84787e-07
0.0028137
4.5744e-08
-1.62061e-07
0.00281377
-4.21611e-08
-1.58738e-07
0.00281368
-8.17085e-08
-4.42798e-08
0.00281371
-2.82266e-08
-2.86901e-07
0.00281396
2.96755e-08
-6.4231e-07
0.00281421
6.4884e-08
-6.09539e-07
0.00281424
8.13788e-08
-2.13757e-07
0.00281418
5.8402e-08
3.9313e-08
0.00281405
1.67761e-08
2.01658e-07
0.00281385
-2.07964e-08
3.429e-07
0.00281375
-2.26491e-08
2.23139e-07
0.00281371
3.55233e-08
7.31071e-08
0.0028137
6.36413e-08
-3.52108e-08
0.00281384
3.04028e-08
-2.90967e-07
0.00281409
5.63978e-08
-4.85562e-07
0.00281418
1.334e-07
-2.34735e-07
0.0028141
1.13059e-07
9.68667e-08
0.00281397
1.55604e-10
2.0792e-07
0.00281389
-3.54319e-08
1.88311e-07
0.00281385
2.95368e-08
1.06041e-07
0.00281392
7.65809e-08
-7.80974e-08
0.00281407
3.85215e-08
-1.63511e-07
0.00281403
-6.21783e-08
1.5321e-07
0.00281397
-1.21488e-07
1.97409e-07
0.00281406
-1.38226e-07
-1.28099e-09
0.00281402
-1.38882e-07
1.67389e-07
0.00281383
-1.01108e-07
4.64513e-07
0.00281371
-4.34241e-08
4.36244e-07
0.00281369
3.10021e-09
2.92971e-07
0.00281365
5.35493e-08
3.2475e-07
0.00281353
8.21374e-08
4.38176e-07
7.66367e-08
2.44855e-07
0.00281361
3.11809e-08
-1.27191e-07
0.00281373
-2.415e-08
-2.86263e-07
0.00281374
-4.35387e-08
-2.46331e-07
0.00281377
2.56464e-08
-3.47066e-07
0.00281399
8.75907e-08
-6.20638e-07
0.00281422
7.99794e-08
-5.35461e-07
0.00281422
9.05793e-08
-1.28266e-07
0.00281414
1.26519e-07
1.37109e-08
0.00281402
7.59935e-08
1.64786e-07
0.00281385
-9.04905e-09
2.97235e-07
0.00281381
-2.34285e-08
1.44949e-07
0.00281374
-2.82195e-08
2.09995e-07
0.00281367
-5.62124e-08
1.91217e-07
0.00281387
-2.01004e-08
-3.06316e-07
0.00281417
9.02543e-08
-5.32988e-07
0.00281416
1.54001e-07
-6.94475e-08
0.00281398
1.18911e-07
2.44395e-07
0.00281394
2.7678e-08
7.83394e-08
0.00281396
-1.19041e-08
4.47158e-09
0.0028139
2.60142e-08
1.2944e-07
0.00281388
1.95873e-08
1.24188e-07
0.00281397
-5.83521e-08
2.42018e-08
0.00281397
-1.19123e-07
9.35949e-08
0.00281396
-9.73035e-08
3.41787e-08
0.00281406
-3.93492e-08
-1.59965e-07
0.00281406
-3.2537e-08
1.60269e-08
0.00281389
-7.96682e-08
4.0417e-07
0.00281375
-6.406e-08
4.39826e-07
0.00281374
5.30972e-09
2.68233e-07
0.00281367
2.29618e-09
3.85092e-07
0.00281352
-2.7704e-08
5.3328e-07
1.04898e-08
2.70012e-07
0.00281356
7.38156e-08
-1.45088e-07
0.00281372
3.49336e-08
-3.93609e-07
0.00281381
-1.38442e-09
-3.60285e-07
0.00281383
1.75899e-08
-2.5101e-07
0.00281399
7.643e-08
-4.20917e-07
0.00281423
8.60871e-08
-5.0484e-07
0.00281425
9.10017e-08
-1.04997e-07
0.00281409
1.23889e-07
2.39887e-07
0.00281393
1.11594e-07
2.57805e-07
0.00281384
1.00181e-07
1.02598e-07
0.00281381
7.05968e-08
1.36429e-08
0.00281371
-6.31503e-08
1.82951e-07
0.0028137
-1.52836e-07
5.9917e-08
0.00281398
-9.82164e-08
-3.74929e-07
0.00281423
2.08628e-08
-3.32111e-07
0.00281413
1.09778e-07
1.81694e-07
0.00281389
1.22902e-07
3.61433e-07
0.0028139
1.03997e-07
-2.39379e-08
0.002814
4.4827e-08
-1.24562e-07
0.00281389
-3.72635e-08
2.5734e-07
0.0028138
-8.75557e-08
2.76335e-07
0.00281391
-1.17651e-07
-5.23479e-08
0.00281399
-1.1321e-07
-1.12966e-07
0.00281401
-6.10036e-08
-5.10523e-08
0.00281406
-3.03672e-08
-6.74211e-09
0.00281401
-7.46875e-08
2.37497e-07
0.0028139
-1.41108e-07
3.98267e-07
0.00281382
-1.25478e-07
3.92186e-07
0.00281373
-2.20955e-08
3.59298e-07
0.00281364
3.13447e-08
2.86934e-07
0.00281356
3.45249e-08
2.01586e-07
6.73011e-08
9.09114e-08
0.00281352
8.22083e-08
-5.81917e-08
0.00281368
2.51582e-08
-3.24011e-07
0.00281383
1.85419e-08
-3.99973e-07
0.00281389
4.35479e-08
-3.15474e-07
0.002814
4.57549e-08
-3.06776e-07
0.00281424
3.52141e-08
-3.98531e-07
0.00281428
3.50284e-08
-3.49021e-08
0.00281408
6.72764e-08
4.0322e-07
0.00281392
9.02558e-08
3.6955e-07
0.00281381
9.93088e-08
2.87509e-07
0.00281367
8.19715e-08
2.44823e-07
0.00281362
1.18551e-08
-2.3486e-08
0.00281376
-4.76912e-08
-4.01815e-07
0.0028141
-1.22709e-07
-5.66843e-07
0.00281432
-8.04533e-08
-2.64129e-07
0.00281414
8.18303e-08
3.00796e-07
0.00281387
1.02758e-07
4.83787e-07
0.00281384
7.86898e-08
1.80363e-07
0.00281391
2.75928e-08
4.52828e-09
0.00281384
-1.19826e-07
2.29435e-07
0.00281377
-2.04598e-07
2.26378e-07
0.00281391
-1.96399e-07
-1.21575e-07
0.00281404
-1.08118e-07
-2.09433e-07
0.00281404
1.04641e-08
-7.60559e-08
0.00281402
-8.87415e-09
7.06039e-08
0.00281395
-1.15431e-07
2.44693e-07
0.00281392
-2.15112e-07
2.65094e-07
0.00281391
-1.36531e-07
1.93519e-07
0.00281376
1.1581e-07
2.21104e-07
0.00281363
1.81433e-07
1.76877e-07
0.00281359
1.37324e-07
8.21145e-08
1.28165e-07
9.98076e-08
0.00281345
8.77206e-08
-2.31124e-08
0.00281367
2.62775e-08
-3.92238e-07
0.00281384
-6.75975e-09
-3.82657e-07
0.00281388
-1.82979e-08
-1.77689e-07
0.00281398
3.10946e-09
-2.59045e-07
0.00281416
3.55201e-08
-3.81967e-07
0.00281417
4.18365e-09
-1.83211e-08
0.00281402
-6.31681e-09
3.86726e-07
0.00281392
5.49182e-08
3.70048e-07
0.00281378
8.53215e-08
3.78517e-07
0.00281359
5.94428e-08
3.79091e-07
0.00281355
2.42653e-08
3.49029e-08
0.00281368
2.7534e-08
-3.86455e-07
0.00281374
8.51811e-08
-6.17806e-07
0.00281369
5.04888e-08
-2.93663e-07
0.00281376
-7.04252e-08
2.25305e-07
0.00281384
-6.73355e-08
3.49309e-07
0.00281378
-1.74671e-08
3.28822e-07
0.00281376
-5.39264e-08
1.93813e-07
0.00281375
-1.37054e-07
2.99129e-08
0.00281377
-1.54348e-07
-1.61278e-07
0.00281388
-7.34035e-08
-4.01308e-07
0.00281392
2.69044e-09
-2.77934e-07
0.0028139
1.28483e-08
5.1103e-08
0.0028139
-2.77802e-08
1.06701e-07
0.00281384
-7.37662e-08
1.148e-07
0.00281335
-8.45874e-08
4.21889e-07
0.00281276
-3.52137e-08
5.947e-07
0.00281295
3.29637e-08
1.6203e-07
0.00281346
5.94537e-08
-1.2286e-07
0.00281357
1.09175e-07
1.04254e-07
1.4106e-07
2.28507e-07
0.00280694
1.19854e-07
0.00280718
-3.87705e-07
0.00280738
-4.48671e-07
0.00280745
-3.11522e-07
0.00280755
-3.1395e-07
0.00280764
-2.26122e-07
0.00280755
4.23529e-08
0.00280743
2.6064e-07
0.00280741
3.31305e-07
0.0028073
4.75175e-07
0.0028071
4.59123e-07
0.0028071
4.61236e-08
0.00280728
-3.1604e-07
0.00280756
-4.67966e-07
0.00280773
-2.92545e-07
0.00280762
1.23304e-07
0.00280744
3.11672e-07
0.00280729
2.86928e-07
0.00280722
6.8777e-08
0.00280728
-2.82345e-07
0.0028074
-4.61406e-07
0.00280751
-3.88804e-07
0.00280749
-8.40439e-08
0.00280741
1.54662e-07
0.0028074
7.63936e-08
0.00280737
4.03051e-08
0.00280707
3.6642e-07
0.00280666
5.94419e-07
0.0028067
1.84534e-07
0.00280709
-1.80253e-07
0.00280715
2.33602e-07
5.3837e-07
0.00280723
9.20057e-09
0.00280741
-3.52871e-09
0.002807
-6.71094e-08
0.0028068
-9.84343e-08
0.00280742
-5.42519e-09
0.00280802
1.41794e-08
0.00280797
-4.19037e-08
0.00280779
-1.63302e-07
0.00280747
-8.4333e-08
0.00280718
1.54096e-07
0.00280712
1.28273e-07
0.00280702
1.01487e-08
0.00280703
-9.26003e-08
0.00280666
-1.95884e-08
0.00280606
1.86457e-07
0.00280636
1.60595e-07
0.00280712
8.81008e-08
0.00280713
2.02524e-09
0.00280682
-1.71831e-08
0.00280649
2.5528e-07
0.00280657
3.78326e-07
0.00280772
1.44139e-07
0.00280792
-1.56478e-07
0.00280755
-3.5396e-07
0.00280758
-3.03334e-07
0.00280703
-1.56427e-07
0.00280669
-1.44917e-07
0.00280697
-5.10258e-08
0.00280719
8.5958e-08
0.00280702
2.02026e-08
0.00280692
8.35058e-08
1.28515e-07
0.00281369
-5.83209e-08
0.0028138
-6.51254e-08
0.00281343
-6.99995e-09
0.00281335
-1.66151e-08
0.0028139
-3.15414e-08
0.00281442
4.19643e-08
0.00281396
2.10326e-07
0.00281314
2.21057e-07
0.00281284
-9.14452e-08
0.00281312
-2.32808e-07
0.00281346
-1.24415e-07
0.00281337
8.12021e-09
0.00281291
2.25096e-07
0.00281247
1.01129e-07
0.00281253
-9.03153e-08
0.00281263
2.86581e-07
0.00281301
3.23693e-07
0.00281349
-9.80742e-08
0.00281359
-1.2534e-07
0.00281357
8.17016e-08
0.00281372
1.62706e-07
0.0028142
1.52815e-07
0.00281409
9.81147e-08
0.00281346
-4.34162e-08
0.00281316
-3.38749e-07
0.00281325
-5.82046e-07
0.00281341
-3.09781e-07
0.00281356
-2.86317e-08
0.00281355
-4.67381e-08
0.00281347
7.36665e-08
0.00281339
2.75153e-07
1.65012e-07
0.00281369
8.02533e-08
0.00281387
-1.69733e-07
0.00281342
-2.83082e-07
0.00281334
-8.78651e-08
0.00281367
5.14992e-08
0.0028139
1.38494e-07
0.00281387
1.66548e-07
0.00281383
3.3101e-08
0.00281381
-2.00499e-08
0.00281363
-6.66119e-08
0.0028136
-1.00799e-07
0.0028133
1.72292e-07
0.00281285
2.89455e-07
0.00281271
1.47251e-08
0.00281242
9.1126e-09
0.00281231
2.98562e-07
0.00281284
2.60601e-07
0.00281336
-1.29417e-07
0.0028136
-2.18857e-07
0.00281356
5.43393e-08
0.00281314
2.78923e-07
0.0028131
2.26049e-07
0.00281343
-1.22401e-07
0.00281377
-2.85068e-07
0.0028139
-2.96638e-07
0.00281368
-2.90152e-07
0.00281348
-1.61267e-07
0.00281291
-3.94756e-08
0.00281235
-2.15565e-08
0.00281294
1.1348e-07
0.00281323
1.76726e-07
1.0169e-07
0.00281344
1.36074e-08
0.00281376
-1.31565e-07
0.00281362
-1.5784e-07
0.00281348
1.21202e-07
0.00281354
2.87118e-07
0.00281356
1.10805e-07
0.00281355
1.13987e-07
0.00281324
3.52824e-07
0.00281286
1.69356e-07
0.00281286
-2.03016e-07
0.00281311
-1.54722e-07
0.00281316
-5.63869e-08
0.00281305
-1.88039e-07
0.002813
-8.84051e-08
0.0028127
2.90649e-07
0.00281255
4.04362e-07
0.00281294
2.35877e-07
0.00281339
-7.48188e-08
0.00281384
-1.40349e-07
0.00281389
1.54258e-07
0.00281378
1.71642e-07
0.00281396
-1.34788e-07
0.00281376
-3.24425e-07
0.00281368
-1.8238e-07
0.00281359
1.13339e-07
0.00281316
1.88663e-07
0.00281327
-8.58725e-08
0.00281304
-1.11904e-07
0.00281256
9.6288e-08
0.00281284
-9.60024e-08
0.00281302
-3.5899e-07
-1.67788e-07
0.0028133
1.60665e-07
0.00281321
1.04379e-07
0.00281285
-4.10757e-08
0.00281312
-4.70194e-08
0.00281347
1.9014e-07
0.00281335
1.92233e-07
0.00281332
1.60916e-07
0.00281368
2.86789e-07
0.00281377
2.23287e-07
0.00281325
2.8478e-07
0.00281253
3.01088e-07
0.00281212
-2.68702e-07
0.00281206
-6.12867e-07
0.00281214
-2.8941e-07
0.00281238
8.92734e-08
0.00281248
2.30522e-07
0.00281279
2.45776e-07
0.00281307
3.08113e-07
0.00281312
1.73378e-07
0.00281331
-6.61759e-08
0.00281347
-1.38241e-07
0.0028132
-1.86935e-07
0.00281266
-2.09519e-07
0.00281267
-8.59014e-08
0.00281298
4.75158e-08
0.00281331
-6.77241e-08
0.00281345
-2.74594e-07
0.00281324
-3.23451e-07
0.00281338
-1.59564e-07
0.00281355
-7.83077e-08
0.00281344
-8.456e-08
7.64756e-08
0.00281325
1.1685e-07
0.00281359
-4.27658e-08
0.00281325
3.65836e-08
0.0028126
1.81571e-07
0.00281271
9.30005e-08
0.00281287
5.11747e-08
0.00281289
5.1667e-08
0.00281339
5.10723e-08
0.00281377
9.07404e-08
0.00281364
1.90379e-07
0.00281334
2.1626e-07
0.00281295
7.05694e-08
0.00281237
-3.19549e-08
0.00281218
-1.7222e-07
0.00281263
-1.0881e-07
0.00281302
6.41075e-09
0.00281323
-3.15741e-08
0.00281328
2.26946e-07
0.00281329
2.15816e-07
0.00281329
-3.19459e-07
0.00281334
-5.90858e-07
0.00281347
-4.74668e-07
0.00281347
-1.75852e-07
0.00281383
1.37676e-07
0.00281418
2.69516e-08
0.00281396
-2.4535e-07
0.0028132
-5.9166e-08
0.00281231
2.63334e-07
0.00281239
5.67178e-08
0.00281305
-1.18087e-07
0.00281332
1.58939e-07
2.56034e-07
0.00281308
2.30714e-07
0.00281367
3.0252e-08
0.00281404
-7.33407e-08
0.00281379
-1.52337e-07
0.0028132
-5.1789e-08
0.00281266
1.90977e-07
0.00281278
6.5136e-08
0.00281337
-1.31474e-07
0.00281382
1.69203e-08
0.00281372
1.8242e-07
0.00281324
1.39831e-07
0.00281313
3.57057e-08
0.00281344
9.72022e-08
0.00281381
2.33218e-07
0.00281371
4.97272e-08
0.00281349
-1.72871e-07
0.00281352
-1.04578e-07
0.00281349
-5.90144e-08
0.00281359
-1.78263e-07
0.00281355
-4.4812e-07
0.00281353
-4.54373e-07
0.00281348
-6.23755e-08
0.0028132
1.95698e-07
0.00281343
1.16287e-07
0.0028139
-5.80647e-08
0.0028135
-1.4797e-07
0.00281287
-1.38523e-07
0.00281298
-3.42176e-08
0.00281335
5.57577e-08
0.00281371
1.8671e-09
0.00281368
2.38145e-07
4.50714e-07
0.00280642
0.00280711
0.00280741
0.00280674
0.00280602
0.00280597
0.00280615
0.00280643
0.00280709
0.00280719
0.00280669
0.00280673
0.00280712
0.0028073
0.00280709
0.00280698
0.00280708
0.00280682
0.00280674
0.00280658
0.00280594
0.00280588
0.00280641
0.00280691
0.00280724
0.00280695
0.00280659
0.0028067
0.00280677
0.00280689
0.00280663
)
;

boundaryField
{
    wall
    {
        type            calculated;
        value           uniform 0;
    }
    outlet
    {
        type            cyclic;
        value           nonuniform List<scalar> 
16
(
0.00280717
0.00281359
0.00281352
0.00281348
0.00281351
0.00281351
0.00281345
0.00280694
0.00280697
0.00281331
0.00281309
0.00281307
0.00281326
0.0028132
0.00281319
0.00280621
)
;
    }
    inlet
    {
        type            cyclic;
        value           nonuniform List<scalar> 
16
(
-0.00280717
-0.00281359
-0.00281352
-0.00281348
-0.00281351
-0.00281351
-0.00281345
-0.00280694
-0.00280697
-0.00281331
-0.00281309
-0.00281307
-0.00281326
-0.0028132
-0.00281319
-0.00280621
)
;
    }
    procBoundary2to1
    {
        type            processor;
        value           nonuniform List<scalar> 
256
(
-1.89065e-07
1.40058e-07
2.46501e-07
2.70778e-07
3.69351e-07
3.5202e-07
2.06001e-07
2.6777e-08
-1.3735e-07
-1.92114e-07
-1.33269e-07
-4.00433e-08
7.51072e-08
1.82973e-07
2.47743e-07
2.22747e-07
7.50491e-08
-9.54207e-08
-1.092e-07
2.18771e-08
1.31538e-07
1.02286e-07
-7.00014e-08
-1.95466e-07
-2.54834e-07
-3.62425e-07
-4.12892e-07
-3.50561e-07
-2.96317e-07
-2.97904e-07
-2.97048e-07
-3.19755e-07
-1.04983e-07
1.11025e-07
2.03226e-07
2.73177e-07
3.67466e-07
3.47522e-07
2.09204e-07
4.87577e-08
-1.21627e-07
-2.08393e-07
-1.50677e-07
-4.31392e-08
8.31466e-08
1.81466e-07
2.17354e-07
1.85601e-07
5.04485e-08
-9.62018e-08
-1.09596e-07
-2.70805e-08
5.93612e-08
6.86995e-08
-4.62717e-08
-1.30265e-07
-1.86331e-07
-3.11013e-07
-3.73498e-07
-3.33399e-07
-2.97605e-07
-2.89038e-07
-2.84651e-07
-2.56776e-07
-2.78006e-08
1.11382e-07
1.72658e-07
2.62424e-07
3.60904e-07
3.28589e-07
1.676e-07
1.53291e-08
-1.03578e-07
-1.67264e-07
-1.26276e-07
-4.89981e-08
4.38249e-08
1.61701e-07
2.15207e-07
1.24245e-07
-1.09931e-08
-8.2611e-08
-8.63725e-08
-5.08418e-08
8.79078e-09
2.66047e-08
-5.80198e-08
-1.00804e-07
-1.03361e-07
-1.93304e-07
-2.98803e-07
-3.08243e-07
-2.76679e-07
-2.80415e-07
-2.88376e-07
-2.06733e-07
1.29522e-08
1.47643e-07
2.04341e-07
2.63465e-07
3.36306e-07
2.91518e-07
1.25902e-07
-6.86961e-09
-1.0063e-07
-1.43275e-07
-1.03615e-07
-7.32181e-08
-1.80031e-10
1.53404e-07
1.98755e-07
5.45314e-08
-6.82297e-08
-6.20762e-08
-4.74519e-08
-6.74369e-08
-5.06872e-08
-1.56964e-08
-3.55927e-08
-4.37538e-08
-3.93072e-08
-1.27247e-07
-2.51427e-07
-2.83291e-07
-2.57208e-07
-2.70447e-07
-2.72364e-07
-1.64339e-07
4.55603e-08
1.80697e-07
2.28518e-07
2.36481e-07
2.75148e-07
2.51409e-07
8.55813e-08
-7.61966e-08
-1.35052e-07
-1.17523e-07
-7.64504e-08
-5.07837e-08
4.33939e-08
1.75629e-07
1.47806e-07
-3.28889e-08
-1.27405e-07
-6.03726e-08
-2.84492e-08
-9.14478e-08
-8.00671e-08
5.99319e-09
2.44128e-08
-6.72262e-09
-5.16674e-08
-1.4637e-07
-2.25121e-07
-2.47901e-07
-2.45763e-07
-2.25262e-07
-1.80243e-07
-9.41529e-08
3.57361e-08
1.74386e-07
2.34751e-07
2.29448e-07
2.2944e-07
2.0692e-07
4.41742e-08
-1.40492e-07
-1.90682e-07
-1.72671e-07
-1.21181e-07
2.27319e-10
1.58935e-07
2.49539e-07
1.42027e-07
-9.22993e-08
-1.93644e-07
-1.2284e-07
-6.07363e-08
-7.60956e-08
-4.04804e-08
6.02346e-08
7.42716e-08
4.87617e-09
-6.61162e-08
-1.32966e-07
-1.61307e-07
-1.73212e-07
-2.08663e-07
-1.97782e-07
-1.427e-07
-8.29048e-08
1.45637e-08
1.79128e-07
2.30446e-07
2.02215e-07
2.06112e-07
1.97987e-07
3.95254e-08
-1.6712e-07
-2.32794e-07
-2.24548e-07
-1.69355e-07
-6.14368e-09
1.89427e-07
3.45131e-07
2.13819e-07
-1.45809e-07
-2.58411e-07
-1.73542e-07
-8.84712e-08
-4.20882e-09
8.57598e-08
1.77763e-07
1.26616e-07
-3.49098e-08
-9.43268e-08
-9.2073e-08
-5.99074e-08
-1.08505e-07
-2.71473e-07
-2.67655e-07
-1.79683e-07
-1.24683e-07
-2.69856e-08
1.73758e-07
2.43214e-07
2.22841e-07
2.10735e-07
1.77041e-07
4.72371e-08
-1.46246e-07
-2.5945e-07
-2.75895e-07
-2.03537e-07
-1.91603e-08
1.67788e-07
2.72002e-07
1.71587e-07
-8.14442e-08
-1.9647e-07
-1.57792e-07
-5.25634e-08
8.66413e-08
1.82654e-07
2.08673e-07
1.02496e-07
-6.16591e-08
-9.4955e-08
-8.49866e-08
-1.47939e-07
-2.1545e-07
-1.983e-07
-1.42914e-07
-1.84391e-07
-1.93652e-07
)
;
    }
    procBoundary2to3
    {
        type            processor;
        value           nonuniform List<scalar> 
256
(
-3.12556e-07
-2.94518e-07
4.21332e-07
6.46035e-08
-1.23073e-06
-1.23061e-06
-2.24141e-07
3.61972e-07
7.54959e-07
5.30614e-07
1.48421e-07
1.72917e-07
-2.06779e-08
8.03714e-08
-7.67788e-08
-9.65297e-07
-9.97045e-07
3.1059e-07
6.48842e-07
-3.74135e-08
-9.04556e-07
-1.65911e-06
1.1882e-07
1.1313e-06
6.33326e-07
1.31922e-06
1.20612e-06
2.18479e-07
-3.16317e-08
4.73505e-07
2.75979e-07
-3.73699e-08
-3.74486e-07
-1.69832e-07
2.35786e-07
-3.02869e-07
-1.1374e-06
-1.16331e-06
-1.48174e-07
3.11027e-07
5.88339e-07
6.31926e-07
2.39907e-07
1.70701e-07
-5.98547e-08
-2.6322e-08
-1.35836e-07
-6.38852e-07
-7.3069e-07
-6.49141e-08
3.01355e-07
2.57042e-07
-9.27851e-08
-7.55686e-07
-9.42298e-08
4.77413e-07
5.09217e-07
8.95187e-07
6.47974e-07
2.49242e-07
4.88155e-07
3.30116e-07
1.71965e-07
2.26322e-07
-8.9499e-07
-2.33406e-07
6.74773e-07
-1.33895e-07
-1.04986e-06
-9.38837e-07
-1.41087e-07
2.69704e-07
1.44946e-07
3.64882e-07
2.28577e-07
2.07078e-07
3.51754e-07
-6.47011e-08
-2.93914e-07
-1.39505e-07
-3.75132e-07
-2.78388e-07
4.31189e-08
1.72795e-07
2.26138e-07
-1.97397e-07
4.83951e-08
9.83875e-08
-1.79381e-07
9.74435e-08
5.2288e-07
1.01017e-06
8.32338e-07
-3.06251e-07
2.40677e-07
4.48408e-07
-4.28027e-07
-6.43744e-07
-2.36908e-07
-4.16281e-07
-9.08113e-07
-5.28922e-07
-7.29649e-08
3.86267e-09
3.59153e-07
4.32527e-07
-4.64485e-08
3.87431e-07
7.77895e-07
-1.51166e-07
-5.20197e-07
-2.18454e-08
-1.17761e-07
-4.31051e-07
-5.25147e-07
-1.54765e-08
3.42349e-07
2.00311e-07
4.9725e-07
8.97602e-09
-4.72891e-07
-3.82951e-08
2.17466e-07
7.45256e-07
6.25105e-07
3.22667e-07
8.80952e-07
4.9164e-07
-3.36118e-07
-5.37661e-07
-1.1823e-07
-3.54289e-07
-6.66704e-07
-4.72548e-07
-1.20762e-07
-5.11966e-08
1.11948e-07
1.3215e-07
2.81849e-07
8.04489e-07
5.43351e-07
-2.56771e-07
-3.64349e-07
2.51908e-07
4.04709e-08
-6.83801e-07
-4.91341e-07
2.85537e-07
4.31456e-07
2.6568e-07
3.15943e-07
-1.60853e-07
-2.50173e-07
1.67817e-07
4.4616e-07
8.14607e-07
4.71885e-07
1.05231e-07
3.51269e-08
2.54741e-08
-5.88572e-08
-5.23171e-07
-1.38274e-07
1.10865e-07
-3.20692e-07
-4.14434e-07
5.43281e-08
1.32933e-07
1.23481e-07
5.15905e-07
6.30539e-07
2.8448e-08
-4.05801e-07
-4.99318e-07
-5.11627e-07
1.34119e-07
5.47828e-07
2.15502e-07
-4.81701e-08
4.83394e-07
6.29753e-07
3.58903e-08
-2.41639e-07
-6.62382e-07
-2.59808e-07
6.47027e-07
8.09742e-07
4.90936e-07
-7.51718e-08
-4.41498e-07
-4.32274e-07
3.87948e-08
-2.52863e-08
-1.05284e-06
-6.45057e-07
4.03811e-07
4.72529e-07
2.42275e-08
-1.52423e-07
-2.75424e-08
-2.72521e-09
4.8359e-07
9.35178e-07
1.86632e-07
-8.28636e-07
-1.39391e-06
-3.47821e-07
6.24334e-07
3.88185e-07
6.42364e-07
4.94061e-07
1.92696e-07
-2.74709e-07
-7.59564e-07
-3.76444e-07
-1.52162e-07
-2.83931e-07
4.2485e-07
1.12565e-06
7.80786e-07
-2.0232e-07
-6.01269e-07
5.01968e-08
5.26322e-07
1.36776e-07
-1.04224e-06
-8.21485e-07
2.00766e-07
3.54927e-07
2.14189e-08
-8.0182e-08
-1.51284e-07
-3.07998e-07
5.60296e-07
1.10059e-06
3.24241e-08
-6.04219e-07
-4.16741e-07
-3.18841e-08
6.15768e-08
1.05964e-07
4.92422e-07
-3.18073e-08
-5.73604e-07
-2.71024e-07
-3.90546e-07
-4.17769e-07
-2.36307e-07
-3.06675e-07
1.81168e-07
5.85255e-07
4.54631e-07
1.70085e-07
-2.97941e-07
7.29914e-07
1.40936e-06
)
;
    }
}


// ************************************************************************* //
