/*--------------------------------*- C++ -*----------------------------------*\
| =========                 |                                                 |
| \\      /  F ield         | OpenFOAM: The Open Source CFD Toolbox           |
|  \\    /   O peration     | Version:  2506                                  |
|   \\  /    A nd           | Website:  www.openfoam.com                      |
|    \\/     M anipulation  |                                                 |
\*---------------------------------------------------------------------------*/
FoamFile
{
    version     2.0;
    format      ascii;
    arch        "LSB;label=32;scalar=64";
    class       volVectorField;
    location    "0.002";
    object      U_0;
}
// * * * * * * * * * * * * * * * * * * * * * * * * * * * * * * * * * * * * * //

dimensions      [0 1 -1 0 0 0 0];

internalField   nonuniform List<vector> 
512
(
(8.99581 5.77533e-05 0.000616222)
(8.99594 5.20374e-05 0.000546246)
(8.99601 4.09764e-05 0.000424632)
(8.99604 2.96459e-05 0.000316488)
(8.99604 2.06045e-05 0.000231449)
(8.99603 1.40671e-05 0.000177796)
(8.99601 9.69551e-06 0.000144513)
(8.99599 6.5208e-06 0.000126214)
(8.99596 4.39739e-06 0.000117396)
(8.99593 2.14796e-06 0.000105686)
(8.99591 6.70235e-07 9.48758e-05)
(8.99589 3.48028e-07 8.22531e-05)
(8.99587 1.78629e-07 7.27073e-05)
(8.99586 2.2538e-07 6.41448e-05)
(8.99585 8.69469e-07 5.80976e-05)
(8.99584 8.69023e-07 5.90006e-05)
(8.99583 1.78694e-08 6.71574e-05)
(8.99581 -8.28836e-07 8.4511e-05)
(8.99578 2.2181e-07 8.74056e-05)
(8.99576 2.57021e-06 7.67514e-05)
(8.99574 3.75581e-06 6.97983e-05)
(8.99573 3.99659e-06 7.19278e-05)
(8.99571 4.13101e-06 7.94034e-05)
(8.99569 4.3091e-06 9.01043e-05)
(8.99567 5.30014e-06 0.000100814)
(8.99565 7.41537e-06 0.000118047)
(8.99563 1.04224e-05 0.000149971)
(8.9956 1.48268e-05 0.000192651)
(8.99558 2.06087e-05 0.000248321)
(8.99557 2.8902e-05 0.000325143)
(8.9956 3.99493e-05 0.000429199)
(8.99568 5.11953e-05 0.000548304)
(9.01304 0.000144843 0.000511815)
(9.01315 0.000131905 0.000466874)
(9.01322 0.000105998 0.000376649)
(9.01325 7.84877e-05 0.000288736)
(9.01326 5.56715e-05 0.000215817)
(9.01325 3.89379e-05 0.000168507)
(9.01324 2.71861e-05 0.000139826)
(9.01321 1.80279e-05 0.000123783)
(9.01319 1.1312e-05 0.000117985)
(9.01316 6.14904e-06 0.000103255)
(9.01314 2.79442e-06 9.05007e-05)
(9.01312 2.3507e-06 7.8917e-05)
(9.0131 2.54309e-06 6.88862e-05)
(9.01309 2.48967e-06 6.0509e-05)
(9.01308 3.01564e-06 5.83781e-05)
(9.01307 3.20681e-06 5.9459e-05)
(9.01306 1.27681e-06 6.4968e-05)
(9.01304 -9.62366e-07 7.87808e-05)
(9.01302 1.45374e-06 8.42917e-05)
(9.01299 6.50431e-06 8.10988e-05)
(9.01297 9.39788e-06 7.55531e-05)
(9.01296 1.04215e-05 7.59463e-05)
(9.01294 1.15494e-05 8.15322e-05)
(9.01292 1.32634e-05 8.87063e-05)
(9.0129 1.70468e-05 9.69861e-05)
(9.01288 2.24219e-05 0.000114348)
(9.01286 2.9972e-05 0.000144947)
(9.01284 4.0684e-05 0.000185685)
(9.01282 5.54485e-05 0.000233054)
(9.01282 7.67385e-05 0.000295592)
(9.01285 0.0001042 0.000378179)
(9.01293 0.000130597 0.000465914)
(9.01306 0.000175949 0.000391616)
(9.01314 0.000163647 0.000364424)
(9.01321 0.000136773 0.000306093)
(9.01324 0.000105811 0.00024357)
(9.01325 7.8698e-05 0.000186958)
(9.01325 5.76755e-05 0.000151134)
(9.01324 4.10269e-05 0.00013068)
(9.01322 2.73274e-05 0.000116938)
(9.0132 1.69298e-05 0.000110748)
(9.01317 1.05101e-05 9.74473e-05)
(9.01315 7.60319e-06 8.3033e-05)
(9.01313 7.55157e-06 7.4468e-05)
(9.01312 7.28803e-06 6.86436e-05)
(9.0131 6.6477e-06 6.0647e-05)
(9.0131 6.26735e-06 5.77719e-05)
(9.01308 6.30087e-06 6.16486e-05)
(9.01307 4.4209e-06 6.42636e-05)
(9.01306 2.01324e-06 7.1834e-05)
(9.01304 3.13056e-06 8.23518e-05)
(9.01301 7.07473e-06 8.64603e-05)
(9.01299 1.10135e-05 8.20174e-05)
(9.01298 1.34736e-05 8.03606e-05)
(9.01296 1.57502e-05 8.54322e-05)
(9.01294 2.01058e-05 9.08984e-05)
(9.01293 2.69693e-05 9.96981e-05)
(9.01291 3.42489e-05 0.000113929)
(9.01289 4.39419e-05 0.000140172)
(9.01287 5.7378e-05 0.000172297)
(9.01286 7.69104e-05 0.000204865)
(9.01287 0.000103428 0.000248573)
(9.0129 0.00013512 0.000307362)
(9.01297 0.000162901 0.00036315)
(9.01306 0.000167268 0.000283709)
(9.01313 0.000159888 0.000269869)
(9.01318 0.000139938 0.000238742)
(9.01321 0.000113609 0.000199345)
(9.01323 8.81081e-05 0.000162427)
(9.01323 6.68028e-05 0.000140599)
(9.01322 4.90127e-05 0.000124567)
(9.01321 3.38838e-05 0.000111199)
(9.01319 2.19631e-05 0.00010472)
(9.01317 1.52901e-05 9.13961e-05)
(9.01315 1.30755e-05 8.19051e-05)
(9.01313 1.26814e-05 7.85091e-05)
(9.01312 1.0756e-05 7.21697e-05)
(9.0131 8.42334e-06 6.50228e-05)
(9.01309 7.74078e-06 6.25654e-05)
(9.01308 7.5847e-06 6.68193e-05)
(9.01307 6.98401e-06 6.72506e-05)
(9.01306 5.80689e-06 7.17657e-05)
(9.01304 4.78864e-06 7.9534e-05)
(9.01302 7.00805e-06 8.37158e-05)
(9.013 1.02993e-05 8.44202e-05)
(9.01298 1.27846e-05 8.48487e-05)
(9.01296 1.55474e-05 8.69578e-05)
(9.01295 2.20333e-05 9.30125e-05)
(9.01293 3.11477e-05 0.000103201)
(9.01292 4.00922e-05 0.000112881)
(9.0129 5.00435e-05 0.000133474)
(9.01289 6.35318e-05 0.000156348)
(9.01288 8.38909e-05 0.000178005)
(9.0129 0.000109414 0.000204056)
(9.01293 0.000136065 0.000241523)
(9.01298 0.000157682 0.000270913)
(9.01306 0.000140793 0.0002063)
(9.01312 0.00013645 0.000205129)
(9.01316 0.000123366 0.00019447)
(9.01319 0.000104576 0.000170714)
(9.0132 8.37507e-05 0.000143655)
(9.01321 6.47501e-05 0.000130041)
(9.01321 4.94788e-05 0.000120204)
(9.01319 3.67473e-05 0.000107404)
(9.01318 2.58954e-05 9.79124e-05)
(9.01316 1.91781e-05 8.81285e-05)
(9.01315 1.52435e-05 8.39335e-05)
(9.01313 1.21285e-05 8.59828e-05)
(9.01311 9.29274e-06 7.87585e-05)
(9.0131 6.55562e-06 6.6027e-05)
(9.01309 5.69671e-06 6.44722e-05)
(9.01308 5.67029e-06 6.94451e-05)
(9.01307 7.11008e-06 7.07543e-05)
(9.01305 7.90841e-06 7.48631e-05)
(9.01304 7.43581e-06 7.69703e-05)
(9.01302 8.27709e-06 8.43898e-05)
(9.013 9.07589e-06 8.58021e-05)
(9.01298 1.05688e-05 8.35854e-05)
(9.01297 1.43742e-05 8.24525e-05)
(9.01296 2.12603e-05 9.14482e-05)
(9.01294 3.01516e-05 0.000106307)
(9.01293 4.04511e-05 0.000114606)
(9.01291 4.99698e-05 0.00012749)
(9.01291 6.13162e-05 0.00014038)
(9.01291 7.77998e-05 0.00015534)
(9.01292 9.8467e-05 0.00017151)
(9.01295 0.000118447 0.000189274)
(9.013 0.000133849 0.000199977)
(9.01306 0.000107066 0.000157493)
(9.01311 0.000102882 0.00015992)
(9.01315 9.35779e-05 0.000162144)
(9.01317 8.10238e-05 0.000153534)
(9.01319 6.75241e-05 0.000134595)
(9.0132 5.35597e-05 0.000124675)
(9.01319 4.20612e-05 0.000119883)
(9.01318 3.36175e-05 0.000111084)
(9.01317 2.64766e-05 0.000100989)
(9.01316 2.008e-05 9.0935e-05)
(9.01314 1.39462e-05 8.64619e-05)
(9.01313 8.21039e-06 8.45231e-05)
(9.01311 5.04085e-06 7.73284e-05)
(9.0131 4.12885e-06 6.43059e-05)
(9.01309 3.76947e-06 6.21943e-05)
(9.01308 4.87649e-06 6.50846e-05)
(9.01307 7.51284e-06 7.05848e-05)
(9.01306 9.72971e-06 7.71106e-05)
(9.01304 9.65933e-06 8.09282e-05)
(9.01302 7.24542e-06 8.84038e-05)
(9.013 6.07274e-06 8.6589e-05)
(9.01298 7.9663e-06 8.21495e-05)
(9.01298 1.24817e-05 8.33285e-05)
(9.01297 1.90715e-05 9.24365e-05)
(9.01295 2.66997e-05 0.00010495)
(9.01294 3.56423e-05 0.000117927)
(9.01292 4.42005e-05 0.000127109)
(9.01292 5.21176e-05 0.000132451)
(9.01292 6.27786e-05 0.000137889)
(9.01294 7.71467e-05 0.000145848)
(9.01297 9.20364e-05 0.000153775)
(9.01301 0.000103139 0.000154461)
(9.01304 6.80573e-05 0.000136107)
(9.01309 6.48006e-05 0.00013707)
(9.01312 5.79737e-05 0.000142906)
(9.01314 5.01185e-05 0.000138027)
(9.01316 4.2651e-05 0.000128917)
(9.01317 3.46737e-05 0.000122179)
(9.01317 2.6727e-05 0.000119862)
(9.01316 2.2071e-05 0.00011563)
(9.01315 1.93971e-05 0.000109054)
(9.01313 1.59838e-05 9.74532e-05)
(9.01312 1.08025e-05 8.79614e-05)
(9.01311 5.62251e-06 8.11048e-05)
(9.01309 3.06808e-06 7.19722e-05)
(9.01308 3.77411e-06 6.18926e-05)
(9.01308 4.39164e-06 5.92228e-05)
(9.01307 5.82633e-06 6.6641e-05)
(9.01306 8.20755e-06 7.49473e-05)
(9.01304 9.7055e-06 8.60028e-05)
(9.01302 7.96674e-06 8.98178e-05)
(9.013 3.79838e-06 8.76884e-05)
(9.01298 2.8932e-06 8.149e-05)
(9.01297 5.59888e-06 7.88988e-05)
(9.01296 8.90341e-06 8.18045e-05)
(9.01296 1.36299e-05 9.56568e-05)
(9.01294 1.92143e-05 0.000111973)
(9.01293 2.40846e-05 0.000124471)
(9.01291 2.97612e-05 0.000134377)
(9.01291 3.44477e-05 0.000131567)
(9.01291 4.08659e-05 0.000129001)
(9.01293 4.95104e-05 0.000132257)
(9.01296 5.9454e-05 0.000137679)
(9.013 6.64651e-05 0.000136596)
(8.99581 2.33751e-05 0.000127976)
(8.99585 2.226e-05 0.000129186)
(8.99589 1.95761e-05 0.000132963)
(8.99591 1.70312e-05 0.000131315)
(8.99592 1.44004e-05 0.000124401)
(8.99593 1.18658e-05 0.000121148)
(8.99593 8.6681e-06 0.000114927)
(8.99593 7.1373e-06 0.000112751)
(8.99592 6.86793e-06 0.000112225)
(8.9959 6.30094e-06 0.00010476)
(8.99589 4.5032e-06 9.31644e-05)
(8.99587 2.40809e-06 8.18502e-05)
(8.99586 1.48756e-06 7.15762e-05)
(8.99585 2.1609e-06 6.6117e-05)
(8.99585 2.69924e-06 6.5511e-05)
(8.99584 2.99843e-06 7.17388e-05)
(8.99583 3.98268e-06 8.33833e-05)
(8.99581 4.22405e-06 9.47597e-05)
(8.99578 2.8532e-06 9.29388e-05)
(8.99577 9.62609e-07 8.3931e-05)
(8.99575 9.68391e-07 7.88595e-05)
(8.99574 2.46544e-06 8.15566e-05)
(8.99574 3.58043e-06 8.42374e-05)
(8.99573 4.93703e-06 9.7388e-05)
(8.99572 6.74105e-06 0.000114814)
(8.9957 8.04361e-06 0.00012416)
(8.99569 9.87925e-06 0.00013347)
(8.99568 1.16354e-05 0.000128337)
(8.99569 1.40669e-05 0.000124616)
(8.99571 1.70081e-05 0.000125473)
(8.99574 2.06688e-05 0.000132879)
(8.99577 2.29929e-05 0.000130751)
(8.99581 2.52794e-05 0.000421238)
(8.99587 2.66114e-05 0.000384542)
(8.99593 2.51906e-05 0.000310129)
(8.99597 1.95594e-05 0.000254006)
(8.99599 1.43965e-05 0.000189666)
(8.996 9.80744e-06 0.00016303)
(8.99599 7.57001e-06 0.000142062)
(8.99598 5.42998e-06 0.000134546)
(8.99595 5.5827e-06 0.000141482)
(8.99592 5.91588e-07 0.000129243)
(8.99589 -2.57756e-06 0.000122157)
(8.99587 -2.12712e-06 9.99398e-05)
(8.99586 -2.9125e-06 9.04803e-05)
(8.99585 -2.86046e-06 7.70929e-05)
(8.99584 1.07495e-06 5.96963e-05)
(8.99584 1.16732e-06 6.03945e-05)
(8.99585 -1.75417e-06 7.34056e-05)
(8.99582 -5.48701e-06 0.000128629)
(8.99577 -2.46201e-06 0.000128403)
(8.99574 5.85445e-06 8.43237e-05)
(8.99574 7.97478e-06 6.50147e-05)
(8.99573 6.77841e-06 7.27079e-05)
(8.99572 5.52287e-06 8.63639e-05)
(8.9957 2.95464e-06 0.000105929)
(8.99568 2.16163e-06 0.000111008)
(8.99567 4.92842e-06 0.000117628)
(8.99566 7.72244e-06 0.00015445)
(8.99564 1.23753e-05 0.000189953)
(8.99563 1.46807e-05 0.000224338)
(8.99564 1.74359e-05 0.000263042)
(8.99568 2.17676e-05 0.000313416)
(8.99574 2.33195e-05 0.0003897)
(9.01304 7.34704e-05 0.000360278)
(9.0131 7.10114e-05 0.000345986)
(9.01316 6.42573e-05 0.000290717)
(9.01319 5.01534e-05 0.000242361)
(9.01321 3.61987e-05 0.000183979)
(9.01322 2.60222e-05 0.000155899)
(9.01322 2.06669e-05 0.000140008)
(9.01321 1.31584e-05 0.000133453)
(9.01318 7.74847e-06 0.000158075)
(9.01314 8.45643e-07 0.00012554)
(9.01312 -6.01084e-06 0.000110587)
(9.0131 -3.53345e-06 9.353e-05)
(9.01309 -6.24576e-07 7.56096e-05)
(9.01308 -5.53404e-07 5.98204e-05)
(9.01308 2.41769e-06 6.4769e-05)
(9.01307 5.15704e-06 6.24806e-05)
(9.01307 -1.02132e-06 6.65988e-05)
(9.01305 -1.12622e-05 0.0001077)
(9.01302 -2.69694e-06 0.000113412)
(9.01298 1.40403e-05 0.000100737)
(9.01297 1.83869e-05 8.24324e-05)
(9.01296 1.62044e-05 8.26017e-05)
(9.01295 1.5807e-05 9.13808e-05)
(9.01293 1.36004e-05 9.69523e-05)
(9.01291 1.65144e-05 9.15125e-05)
(9.01291 2.07602e-05 0.000106919)
(9.0129 2.6145e-05 0.000144611)
(9.01288 3.28836e-05 0.000191972)
(9.01286 3.69235e-05 0.000219561)
(9.01287 4.56479e-05 0.000245695)
(9.01291 6.00813e-05 0.000285671)
(9.01297 6.7111e-05 0.000337269)
(9.01306 9.44276e-05 0.000315299)
(9.01311 9.01703e-05 0.000292959)
(9.01316 8.36726e-05 0.000250263)
(9.01319 6.89615e-05 0.000209458)
(9.01321 5.57711e-05 0.000149629)
(9.01323 4.63408e-05 0.000128777)
(9.01323 3.48504e-05 0.000130346)
(9.01321 2.07586e-05 0.000123122)
(9.01319 8.60287e-06 0.000137427)
(9.01316 2.6176e-06 0.000117298)
(9.01314 1.54991e-06 8.46072e-05)
(9.01313 7.48807e-06 7.55619e-05)
(9.01311 9.7555e-06 7.90976e-05)
(9.0131 9.97004e-06 6.01428e-05)
(9.0131 9.04361e-06 5.3589e-05)
(9.01309 1.18402e-05 7.06133e-05)
(9.01308 6.11451e-06 6.66051e-05)
(9.01307 -3.66224e-06 7.95767e-05)
(9.01305 -6.493e-07 0.000109965)
(9.01301 8.70331e-06 0.000125268)
(9.01299 1.7349e-05 0.000101066)
(9.01298 1.98812e-05 8.85087e-05)
(9.01297 1.96243e-05 0.000103241)
(9.01295 2.34621e-05 0.000102502)
(9.01294 3.27366e-05 0.000106966)
(9.01293 3.52993e-05 0.000114663)
(9.01292 4.02678e-05 0.000150043)
(9.0129 4.49325e-05 0.000185879)
(9.01289 5.31378e-05 0.000189124)
(9.01291 6.54315e-05 0.00020416)
(9.01295 8.37317e-05 0.000247813)
(9.013 9.15128e-05 0.000283652)
(9.01306 9.19933e-05 0.000227677)
(9.01311 9.63694e-05 0.000214337)
(9.01315 9.71867e-05 0.000198673)
(9.01318 8.51858e-05 0.000169861)
(9.0132 7.12427e-05 0.000138536)
(9.01322 6.00878e-05 0.000141814)
(9.01321 4.62019e-05 0.000133074)
(9.0132 2.93603e-05 0.000117365)
(9.01318 1.34771e-05 0.000131287)
(9.01315 8.85073e-06 0.000100381)
(9.01314 1.42663e-05 8.63854e-05)
(9.01313 2.20359e-05 9.35579e-05)
(9.01311 1.84768e-05 8.42805e-05)
(9.0131 1.21084e-05 7.53224e-05)
(9.0131 1.25813e-05 6.97523e-05)
(9.01309 1.32996e-05 8.71969e-05)
(9.01307 1.17297e-05 7.55093e-05)
(9.01306 8.08723e-06 7.95258e-05)
(9.01305 -7.52023e-09 0.000100848)
(9.01302 4.77356e-06 0.000103339)
(9.013 1.28491e-05 0.000104643)
(9.01298 1.50213e-05 0.000106755)
(9.01297 1.26842e-05 0.000105737)
(9.01296 2.23459e-05 0.000109158)
(9.01294 3.71206e-05 0.000121414)
(9.01293 4.26685e-05 0.000113813)
(9.01293 4.50232e-05 0.000146838)
(9.01291 4.83284e-05 0.000172197)
(9.0129 6.30832e-05 0.000174228)
(9.01292 7.87873e-05 0.000173999)
(9.01296 8.88233e-05 0.000211876)
(9.013 9.14219e-05 0.000223796)
(9.01306 8.69584e-05 0.000163625)
(9.01312 9.09152e-05 0.000181096)
(9.01315 9.45284e-05 0.000193605)
(9.01316 8.99484e-05 0.000166085)
(9.01319 7.48569e-05 0.000125574)
(9.0132 5.94942e-05 0.000132309)
(9.0132 4.98091e-05 0.000135394)
(9.01318 3.8745e-05 0.000112327)
(9.01317 2.36398e-05 0.00010399)
(9.01316 1.90508e-05 9.04758e-05)
(9.01315 1.88435e-05 9.27088e-05)
(9.01313 1.66756e-05 0.00012528)
(9.0131 1.32161e-05 0.000111252)
(9.01309 5.53821e-06 6.94166e-05)
(9.0131 5.03551e-06 7.4043e-05)
(9.01309 3.51108e-06 9.54687e-05)
(9.01307 8.96207e-06 8.65173e-05)
(9.01306 1.13575e-05 9.36484e-05)
(9.01304 7.6888e-06 8.42367e-05)
(9.01302 1.17914e-05 0.000106686)
(9.013 1.07002e-05 0.00010971)
(9.01298 8.25685e-06 9.93286e-05)
(9.01297 1.13826e-05 8.01152e-05)
(9.01297 2.06797e-05 9.86227e-05)
(9.01296 3.15529e-05 0.000137946)
(9.01294 4.59486e-05 0.000127122)
(9.01293 4.8723e-05 0.000140132)
(9.01292 5.0298e-05 0.00014556)
(9.01292 6.01209e-05 0.000159406)
(9.01293 7.48963e-05 0.00016573)
(9.01296 8.12674e-05 0.000173368)
(9.013 8.3302e-05 0.000161193)
(9.01306 7.86683e-05 0.000122994)
(9.01312 7.36742e-05 0.000135405)
(9.01315 7.23348e-05 0.00016866)
(9.01316 6.88347e-05 0.000176751)
(9.01317 6.47154e-05 0.000134805)
(9.01319 5.22449e-05 0.000132397)
(9.01319 4.43219e-05 0.000144174)
(9.01317 4.12831e-05 0.000132197)
(9.01316 3.55029e-05 0.000114761)
(9.01315 2.71068e-05 9.78903e-05)
(9.01314 1.66851e-05 0.000102207)
(9.01312 3.8305e-06 0.000111406)
(9.0131 -6.13237e-07 0.000104733)
(9.01309 7.52319e-07 6.44563e-05)
(9.01309 -8.60605e-07 6.77767e-05)
(9.01309 1.84482e-06 6.79936e-05)
(9.01308 9.67922e-06 7.87591e-05)
(9.01306 1.73651e-05 8.97176e-05)
(9.01305 1.92069e-05 8.99863e-05)
(9.01302 9.47974e-06 0.000124674)
(9.01299 2.47458e-06 0.000115252)
(9.01298 4.19569e-06 9.39199e-05)
(9.01298 1.19647e-05 9.17046e-05)
(9.01298 2.22831e-05 0.000103197)
(9.01297 3.08923e-05 0.000119261)
(9.01295 4.41373e-05 0.000141395)
(9.01293 5.22952e-05 0.000145761)
(9.01292 5.05766e-05 0.000143686)
(9.01292 5.12057e-05 0.000139917)
(9.01294 6.04233e-05 0.000142019)
(9.01296 7.12227e-05 0.000144365)
(9.01301 7.80208e-05 0.00011836)
(9.01304 5.86954e-05 0.000124153)
(9.01309 5.35902e-05 0.000122087)
(9.01313 4.54426e-05 0.000158015)
(9.01314 4.00517e-05 0.000150069)
(9.01315 3.96302e-05 0.000142483)
(9.01317 3.49833e-05 0.000135205)
(9.01317 2.40869e-05 0.00014972)
(9.01316 2.37222e-05 0.000150327)
(9.01314 2.82216e-05 0.000143649)
(9.01312 2.66757e-05 0.000115076)
(9.01311 1.58219e-05 9.93772e-05)
(9.0131 3.36879e-06 9.59076e-05)
(9.01308 -1.56386e-06 8.13723e-05)
(9.01308 5.41487e-06 5.62011e-05)
(9.01308 6.86199e-06 5.13548e-05)
(9.01308 1.06391e-05 7.39562e-05)
(9.01307 1.75871e-05 8.38853e-05)
(9.01305 2.29669e-05 0.000115233)
(9.01302 1.69856e-05 0.000124797)
(9.01299 -2.92317e-07 0.000115884)
(9.01298 -3.32352e-06 9.14102e-05)
(9.01297 5.46614e-06 8.0483e-05)
(9.01297 9.60231e-06 7.94291e-05)
(9.01298 1.73982e-05 0.00011314)
(9.01296 2.71093e-05 0.000144931)
(9.01294 2.91642e-05 0.000162308)
(9.01292 3.62942e-05 0.000185556)
(9.0129 3.42269e-05 0.000156649)
(9.01291 3.56921e-05 0.000134355)
(9.01294 4.12385e-05 0.000135444)
(9.01296 5.37151e-05 0.000143228)
(9.01299 6.08549e-05 0.000128955)
(8.99581 2.1229e-05 0.00012449)
(8.99586 2.02317e-05 0.000128946)
(8.99589 1.50554e-05 0.000144072)
(8.9959 1.43471e-05 0.000148456)
(8.99592 1.2498e-05 0.000134787)
(8.99593 1.22708e-05 0.000144353)
(8.99593 5.12569e-06 0.000127009)
(8.99593 4.85361e-06 0.000131777)
(8.99591 9.31852e-06 0.000149714)
(8.99589 1.21327e-05 0.000142303)
(8.99587 8.69696e-06 0.000119867)
(8.99586 3.0724e-06 9.90518e-05)
(8.99585 1.25629e-06 7.9794e-05)
(8.99585 5.75547e-06 7.7317e-05)
(8.99585 7.87769e-06 7.69349e-05)
(8.99585 6.85618e-06 8.67568e-05)
(8.99585 1.05216e-05 0.00011377)
(8.99581 1.09846e-05 0.000144738)
(8.99578 5.0607e-06 0.000128601)
(8.99575 -2.23677e-06 9.45062e-05)
(8.99575 -1.00995e-06 8.28371e-05)
(8.99575 4.96185e-06 9.97766e-05)
(8.99575 5.6762e-06 9.09042e-05)
(8.99575 6.26531e-06 0.000114874)
(8.99573 9.03313e-06 0.000153239)
(8.99571 7.77441e-06 0.000152695)
(8.99569 9.5442e-06 0.000178254)
(8.99567 1.0044e-05 0.000147371)
(8.99568 1.24192e-05 0.000136352)
(8.99571 1.41435e-05 0.000126325)
(8.99574 2.03548e-05 0.00015375)
(8.99576 2.2436e-05 0.00013738)
)
;

boundaryField
{
    wall
    {
        type            fixedValue;
        value           uniform (0 0 0);
    }
    outlet
    {
        type            cyclic;
    }
    inlet
    {
        type            cyclic;
    }
    procBoundary2to1
    {
        type            processor;
        value           nonuniform List<vector> 
256
(
(0.0343584 0.000130868 0.00105385)
(0.0346153 0.000107031 0.000839891)
(0.0347122 7.39883e-05 0.000578474)
(0.0347122 4.79183e-05 0.000384188)
(0.0346764 3.04726e-05 0.000257965)
(0.0346339 1.94369e-05 0.000181736)
(0.0345937 1.25346e-05 0.000136938)
(0.0345574 8.10301e-06 0.000111128)
(0.0345241 5.21794e-06 9.58092e-05)
(0.0344942 3.22538e-06 8.38488e-05)
(0.0344683 1.97918e-06 7.38894e-05)
(0.0344464 1.36652e-06 6.49846e-05)
(0.034428 1.04793e-06 5.78504e-05)
(0.0344123 8.98262e-07 5.23885e-05)
(0.0343988 9.06039e-07 4.94107e-05)
(0.0343859 8.22221e-07 4.99895e-05)
(0.0343717 5.64148e-07 5.40874e-05)
(0.0343537 4.05297e-07 6.05764e-05)
(0.0343325 8.19494e-07 6.31185e-05)
(0.0343115 1.65425e-06 6.13232e-05)
(0.0342923 2.35367e-06 5.9922e-05)
(0.0342736 2.89774e-06 6.18684e-05)
(0.0342534 3.54607e-06 6.72486e-05)
(0.0342304 4.52516e-06 7.58092e-05)
(0.0342041 6.18292e-06 8.80532e-05)
(0.0341738 8.85309e-06 0.000107732)
(0.034137 1.30344e-05 0.000140012)
(0.0340929 1.9711e-05 0.000189662)
(0.0340451 3.04236e-05 0.000266878)
(0.0340058 4.76107e-05 0.000390193)
(0.0340045 7.36109e-05 0.000581824)
(0.0341014 0.00010676 0.000841314)
(0.0430356 0.000299259 0.000768788)
(0.0432358 0.000253882 0.000655131)
(0.0433307 0.000183611 0.000482137)
(0.0433463 0.000123679 0.000336888)
(0.0433255 8.1134e-05 0.000234819)
(0.0432934 5.30249e-05 0.000170171)
(0.0432597 3.4777e-05 0.000131151)
(0.0432274 2.26772e-05 0.000108082)
(0.0431965 1.46214e-05 9.42092e-05)
(0.0431681 9.28704e-06 8.2208e-05)
(0.0431436 6.0138e-06 7.21186e-05)
(0.0431226 4.40935e-06 6.36727e-05)
(0.0431046 3.57855e-06 5.68223e-05)
(0.0430893 3.06743e-06 5.16685e-05)
(0.0430758 2.85501e-06 4.94763e-05)
(0.0430626 2.62245e-06 5.01598e-05)
(0.0430482 2.00158e-06 5.35048e-05)
(0.0430309 1.57726e-06 5.91553e-05)
(0.0430106 2.52465e-06 6.2528e-05)
(0.0429899 4.4791e-06 6.26542e-05)
(0.0429704 6.30165e-06 6.19255e-05)
(0.0429516 7.90949e-06 6.35018e-05)
(0.0429318 9.93037e-06 6.81654e-05)
(0.0429097 1.2979e-05 7.55963e-05)
(0.0428851 1.78239e-05 8.67314e-05)
(0.0428572 2.51042e-05 0.000105104)
(0.0428244 3.62313e-05 0.000134662)
(0.0427867 5.36068e-05 0.000178747)
(0.0427494 8.08556e-05 0.00024379)
(0.0427252 0.000122842 0.000342305)
(0.0427399 0.000182742 0.000484633)
(0.0428351 0.000253317 0.000655825)
(0.0430524 0.000322535 0.000511184)
(0.0431936 0.000287177 0.000459123)
(0.0432762 0.00022158 0.00036297)
(0.0433038 0.000158353 0.000270788)
(0.0432998 0.000109161 0.000199296)
(0.0432815 7.42493e-05 0.000151381)
(0.0432572 5.01089e-05 0.000121239)
(0.043231 3.33433e-05 0.000102167)
(0.0432045 2.18685e-05 8.99333e-05)
(0.0431793 1.44764e-05 7.89168e-05)
(0.0431571 1.01456e-05 6.9349e-05)
(0.0431376 7.89615e-06 6.22032e-05)
(0.0431202 6.47214e-06 5.65689e-05)
(0.0431052 5.45643e-06 5.18465e-05)
(0.0430919 4.85644e-06 4.98548e-05)
(0.0430786 4.4799e-06 5.09231e-05)
(0.0430641 3.83201e-06 5.33292e-05)
(0.0430477 3.35286e-06 5.75801e-05)
(0.0430288 4.10856e-06 6.19802e-05)
(0.0430086 6.08643e-06 6.41466e-05)
(0.0429891 8.48202e-06 6.4249e-05)
(0.0429706 1.09792e-05 6.54791e-05)
(0.0429517 1.41989e-05 6.9524e-05)
(0.0429315 1.91561e-05 7.6035e-05)
(0.0429094 2.65222e-05 8.61507e-05)
(0.0428853 3.67661e-05 0.000101819)
(0.0428586 5.17404e-05 0.000126306)
(0.0428305 7.42694e-05 0.000160799)
(0.0428072 0.000108187 0.000208175)
(0.0428005 0.000156967 0.000275484)
(0.0428278 0.000220388 0.000364975)
(0.0429109 0.000286515 0.000459519)
(0.0430528 0.000277309 0.000335888)
(0.0431514 0.000255665 0.000312987)
(0.0432184 0.00020881 0.000264098)
(0.0432504 0.000158042 0.000210818)
(0.0432579 0.000114545 0.00016552)
(0.0432509 8.11814e-05 0.0001335)
(0.0432354 5.66788e-05 0.000111601)
(0.0432157 3.88942e-05 9.6225e-05)
(0.0431942 2.63125e-05 8.5608e-05)
(0.0431729 1.81695e-05 7.58371e-05)
(0.0431536 1.33658e-05 6.81996e-05)
(0.0431354 1.05212e-05 6.29483e-05)
(0.0431187 8.36189e-06 5.78601e-05)
(0.0431042 6.72844e-06 5.33514e-05)
(0.0430913 5.88106e-06 5.15454e-05)
(0.0430781 5.5031e-06 5.27005e-05)
(0.0430636 5.23935e-06 5.44305e-05)
(0.0430477 5.05813e-06 5.76354e-05)
(0.0430299 5.37396e-06 6.1473e-05)
(0.0430108 6.84395e-06 6.41993e-05)
(0.0429918 9.06444e-06 6.54953e-05)
(0.0429739 1.17965e-05 6.69641e-05)
(0.0429565 1.56639e-05 7.02039e-05)
(0.0429386 2.1796e-05 7.63689e-05)
(0.0429192 3.05118e-05 8.58011e-05)
(0.0428989 4.19911e-05 9.83658e-05)
(0.0428784 5.77052e-05 0.000117077)
(0.0428597 8.0246e-05 0.000141664)
(0.0428486 0.000112608 0.000173177)
(0.042854 0.00015585 0.000214595)
(0.042886 0.000206911 0.000265626)
(0.0429538 0.000254595 0.000313334)
(0.0430535 0.000213174 0.000227833)
(0.0431251 0.000200863 0.000219019)
(0.0431786 0.000171127 0.000196355)
(0.0432096 0.000135759 0.000167196)
(0.043223 0.000102689 0.000139303)
(0.0432237 7.54185e-05 0.00011879)
(0.043215 5.44936e-05 0.000103873)
(0.0432007 3.88601e-05 9.17642e-05)
(0.0431838 2.73707e-05 8.22827e-05)
(0.0431664 1.95119e-05 7.41432e-05)
(0.0431495 1.42866e-05 6.8431e-05)
(0.0431326 1.06617e-05 6.47346e-05)
(0.0431164 8.05735e-06 5.96953e-05)
(0.0431027 6.25511e-06 5.42788e-05)
(0.0430907 5.40667e-06 5.25489e-05)
(0.0430779 5.24571e-06 5.39248e-05)
(0.0430637 5.62795e-06 5.58865e-05)
(0.0430479 6.01256e-06 5.88262e-05)
(0.0430306 6.2946e-06 6.16137e-05)
(0.0430123 7.1035e-06 6.47234e-05)
(0.0429941 8.53155e-06 6.6116e-05)
(0.0429772 1.09562e-05 6.69341e-05)
(0.0429618 1.50119e-05 6.94336e-05)
(0.0429463 2.12557e-05 7.59114e-05)
(0.0429296 2.98034e-05 8.54938e-05)
(0.0429125 4.09026e-05 9.59454e-05)
(0.0428968 5.50883e-05 0.000109227)
(0.0428854 7.41949e-05 0.000125156)
(0.0428828 0.000100237 0.000144818)
(0.0428948 0.000133104 0.000168779)
(0.0429265 0.000169016 0.000195439)
(0.0429813 0.000199754 0.000217752)
(0.0430539 0.000148862 0.0001652)
(0.0431093 0.000141732 0.000162374)
(0.0431533 0.000123899 0.000153376)
(0.0431819 0.000101522 0.000138784)
(0.0431976 7.94531e-05 0.000122054)
(0.0432027 6.01066e-05 0.000108955)
(0.0431988 4.46628e-05 9.92182e-05)
(0.0431885 3.30566e-05 9.0377e-05)
(0.0431748 2.43607e-05 8.22166e-05)
(0.0431598 1.77819e-05 7.47304e-05)
(0.0431447 1.2657e-05 6.91667e-05)
(0.0431292 8.70831e-06 6.48125e-05)
(0.0431142 6.17285e-06 5.95566e-05)
(0.0431015 4.8866e-06 5.40089e-05)
(0.0430903 4.38867e-06 5.2268e-05)
(0.0430783 4.6487e-06 5.37488e-05)
(0.0430644 5.48593e-06 5.68656e-05)
(0.0430484 6.22531e-06 6.05838e-05)
(0.043031 6.35926e-06 6.34237e-05)
(0.043013 6.18106e-06 6.5987e-05)
(0.0429956 6.78643e-06 6.63707e-05)
(0.0429803 8.88219e-06 6.65845e-05)
(0.0429668 1.26125e-05 6.9366e-05)
(0.0429533 1.80744e-05 7.6039e-05)
(0.0429389 2.52264e-05 8.51789e-05)
(0.0429242 3.42727e-05 9.50115e-05)
(0.0429117 4.54088e-05 0.000104697)
(0.0429048 5.93897e-05 0.00011408)
(0.0429075 7.75448e-05 0.000124791)
(0.0429227 9.9676e-05 0.000137661)
(0.0429526 0.000122817 0.000150982)
(0.0429979 0.000141401 0.00016066)
(0.0430373 8.79674e-05 0.000133059)
(0.0430836 8.40772e-05 0.000132066)
(0.0431218 7.43685e-05 0.000128846)
(0.0431486 6.20188e-05 0.000121226)
(0.043165 4.95856e-05 0.000111529)
(0.0431724 3.82776e-05 0.000103076)
(0.0431714 2.88218e-05 9.6496e-05)
(0.0431639 2.18385e-05 9.03865e-05)
(0.043152 1.67697e-05 8.40556e-05)
(0.0431381 1.26499e-05 7.67937e-05)
(0.0431239 8.94056e-06 7.00984e-05)
(0.0431096 5.88462e-06 6.42744e-05)
(0.0430961 4.05091e-06 5.84363e-05)
(0.0430844 3.47674e-06 5.35067e-05)
(0.0430739 3.41941e-06 5.21115e-05)
(0.0430625 3.8472e-06 5.47465e-05)
(0.0430487 4.62839e-06 5.91238e-05)
(0.0430322 5.13581e-06 6.39295e-05)
(0.043014 4.79663e-06 6.62801e-05)
(0.0429962 4.01917e-06 6.63975e-05)
(0.0429802 4.25449e-06 6.53887e-05)
(0.0429665 5.90231e-06 6.58277e-05)
(0.0429544 8.53168e-06 6.92209e-05)
(0.0429424 1.22597e-05 7.69633e-05)
(0.0429293 1.70251e-05 8.67094e-05)
(0.0429161 2.26935e-05 9.58285e-05)
(0.0429054 2.96765e-05 0.000103607)
(0.042901 3.80943e-05 0.000108292)
(0.0429066 4.87258e-05 0.000113121)
(0.0429235 6.13735e-05 0.000119838)
(0.0429517 7.43555e-05 0.000127036)
(0.0429908 8.43145e-05 0.000131353)
(0.0343602 2.91148e-05 0.000119603)
(0.0344022 2.78689e-05 0.000119173)
(0.0344377 2.47433e-05 0.000117575)
(0.0344635 2.0807e-05 0.000112929)
(0.0344801 1.67756e-05 0.000106132)
(0.0344882 1.30694e-05 0.000100005)
(0.0344886 9.84032e-06 9.41583e-05)
(0.0344828 7.51687e-06 8.94669e-05)
(0.0344719 5.93226e-06 8.50052e-05)
(0.0344584 4.6251e-06 7.87637e-05)
(0.0344443 3.31532e-06 7.14953e-05)
(0.0344307 2.17006e-06 6.44896e-05)
(0.0344183 1.51501e-06 5.8318e-05)
(0.0344073 1.40406e-06 5.43546e-05)
(0.0343971 1.46381e-06 5.36085e-05)
(0.034386 1.62078e-06 5.65274e-05)
(0.0343722 1.92564e-06 6.17888e-05)
(0.0343551 2.04585e-06 6.67527e-05)
(0.0343364 1.76144e-06 6.77257e-05)
(0.0343191 1.35924e-06 6.59252e-05)
(0.0343042 1.46914e-06 6.4675e-05)
(0.0342913 2.14726e-06 6.60551e-05)
(0.0342798 3.08173e-06 6.97009e-05)
(0.0342685 4.34724e-06 7.75649e-05)
(0.034256 5.97147e-06 8.74346e-05)
(0.0342436 7.84743e-06 9.56451e-05)
(0.0342339 1.01945e-05 0.000102341)
(0.0342307 1.30272e-05 0.000105003)
(0.0342375 1.65652e-05 0.000107509)
(0.0342551 2.06877e-05 0.000111632)
(0.0342823 2.48993e-05 0.000116893)
(0.0343181 2.80306e-05 0.000119187)
)
;
    }
    procBoundary2to3
    {
        type            processor;
        value           nonuniform List<vector> 
256
(
(0.0343196 -4.01373e-06 0.00030318)
(0.0343253 1.27434e-05 0.000286607)
(0.0343857 2.09251e-05 0.000197729)
(0.0344519 1.75131e-05 0.000179662)
(0.0344764 1.4553e-05 0.000123397)
(0.0344876 6.62393e-06 0.000111634)
(0.0344906 7.38567e-06 0.000117381)
(0.0344933 5.14779e-06 0.000136578)
(0.034468 2.07128e-05 0.000144406)
(0.0344363 -1.80229e-06 0.000128586)
(0.0343874 -1.11331e-05 0.000132782)
(0.0343704 -6.25316e-06 0.000100903)
(0.0343506 -1.48649e-05 9.76539e-05)
(0.0343356 -1.71902e-05 8.63918e-05)
(0.0343561 5.82727e-06 4.78047e-05)
(0.0343685 2.83925e-06 4.4749e-05)
(0.0343809 -6.92668e-06 5.88512e-05)
(0.0343589 -2.20037e-05 0.00016112)
(0.0342629 -1.50155e-05 0.000158075)
(0.0342121 1.88207e-05 6.0303e-05)
(0.0342563 2.10488e-05 3.15449e-05)
(0.034249 1.37513e-05 4.76229e-05)
(0.0341035 8.98218e-06 7.6101e-05)
(0.0342493 -4.87018e-06 0.000113997)
(0.0341663 -1.44075e-05 0.000111373)
(0.0341933 -3.51891e-06 0.000103731)
(0.0342164 1.86172e-07 0.000145997)
(0.0342008 1.64815e-05 0.000163911)
(0.0341626 1.5401e-05 0.000181831)
(0.0341718 1.10506e-05 0.00019022)
(0.0342621 1.16034e-05 0.000201845)
(0.034288 -1.97806e-06 0.000276299)
(0.0430118 3.80172e-05 0.000246123)
(0.0430329 3.95697e-05 0.00025164)
(0.0430809 4.55065e-05 0.000207487)
(0.0431011 3.34518e-05 0.000184905)
(0.0431286 1.52702e-05 0.000131089)
(0.0431547 4.37358e-06 0.000119557)
(0.0431609 1.51973e-05 0.000117274)
(0.0431899 6.24749e-06 0.000125241)
(0.0431009 6.92429e-06 0.000190007)
(0.0430785 -6.04467e-06 0.000131075)
(0.0430407 -3.49881e-05 0.000119248)
(0.0430532 -2.22183e-05 9.51935e-05)
(0.0430285 -9.01284e-06 7.44008e-05)
(0.0430303 -1.46075e-05 7.76469e-05)
(0.0430466 -3.20609e-06 6.30922e-05)
(0.0430245 1.33097e-05 5.21991e-05)
(0.0430434 -5.67035e-06 5.20346e-05)
(0.0430143 -5.04102e-05 0.000137722)
(0.0429633 -1.72315e-05 0.000126361)
(0.0429067 4.69607e-05 0.000102647)
(0.0429176 4.53229e-05 7.03097e-05)
(0.0429331 2.60826e-05 5.4918e-05)
(0.0428995 2.82599e-05 8.36557e-05)
(0.0428871 9.63403e-06 9.22291e-05)
(0.0428692 1.27916e-05 5.87952e-05)
(0.042894 1.92186e-05 7.72784e-05)
(0.0429135 2.53061e-05 0.000129525)
(0.0428708 3.62447e-05 0.000184468)
(0.0428205 1.9804e-05 0.000192541)