/*--------------------------------*- C++ -*----------------------------------*\
| =========                 |                                                 |
| \\      /  F ield         | OpenFOAM: The Open Source CFD Toolbox           |
|  \\    /   O peration     | Version:  2506                                  |
|   \\  /    A nd           | Website:  www.openfoam.com                      |
|    \\/     M anipulation  |                                                 |
\*---------------------------------------------------------------------------*/
FoamFile
{
    version     2.0;
    format      ascii;
    arch        "LSB;label=32;scalar=64";
    class       volScalarField;
    location    "0.001";
    object      p;
}
// * * * * * * * * * * * * * * * * * * * * * * * * * * * * * * * * * * * * * //

dimensions      [0 2 -2 0 0 0 0];

internalField   nonuniform List<scalar> 
512
(
-0.144719
-0.248882
-0.289349
-0.308569
-0.319372
-0.326256
-0.331056
-0.334614
-0.337359
-0.339523
-0.341246
-0.342615
-0.343688
-0.344505
-0.345092
-0.345462
-0.345619
-0.345557
-0.345267
-0.344736
-0.34395
-0.34289
-0.341525
-0.339805
-0.337644
-0.334905
-0.331347
-0.326536
-0.319624
-0.308774
-0.289493
-0.248956
-0.257335
-0.280471
-0.299825
-0.312678
-0.321232
-0.327199
-0.331575
-0.334917
-0.337544
-0.33964
-0.341322
-0.342666
-0.343724
-0.344532
-0.345114
-0.345481
-0.345637
-0.345577
-0.34529
-0.344766
-0.343991
-0.342947
-0.341608
-0.339928
-0.337836
-0.335213
-0.331869
-0.32748
-0.321483
-0.312882
-0.299968
-0.280545
-0.295143
-0.301404
-0.310167
-0.317863
-0.32396
-0.328712
-0.332454
-0.335448
-0.337874
-0.339851
-0.341461
-0.342761
-0.343791
-0.344583
-0.345154
-0.345517
-0.345671
-0.345613
-0.345333
-0.344821
-0.344066
-0.343052
-0.341759
-0.340152
-0.338178
-0.335753
-0.332754
-0.328995
-0.324211
-0.318065
-0.310307
-0.301475
-0.311484
-0.313645
-0.317896
-0.3225
-0.326726
-0.330383
-0.333484
-0.336095
-0.338288
-0.340121
-0.341641
-0.342885
-0.34388
-0.344649
-0.345208
-0.345564
-0.345716
-0.345661
-0.34539
-0.344893
-0.344162
-0.343187
-0.341952
-0.340436
-0.338605
-0.33641
-0.33379
-0.330668
-0.326975
-0.322697
-0.318033
-0.313715
-0.319945
-0.320898
-0.323208
-0.326107
-0.329095
-0.331921
-0.334481
-0.336746
-0.338716
-0.340406
-0.341834
-0.343018
-0.343976
-0.344722
-0.345267
-0.345615
-0.345767
-0.345715
-0.345452
-0.344971
-0.344266
-0.34333
-0.342156
-0.340733
-0.339044
-0.33707
-0.334792
-0.332207
-0.329341
-0.3263
-0.323339
-0.320965
-0.324729
-0.325253
-0.326685
-0.328671
-0.330899
-0.333157
-0.335317
-0.337309
-0.339096
-0.340664
-0.34201
-0.343141
-0.344064
-0.344789
-0.345321
-0.345664
-0.345814
-0.345765
-0.34551
-0.345043
-0.34436
-0.34346
-0.34234
-0.340999
-0.339432
-0.33764
-0.335632
-0.333442
-0.331141
-0.328859
-0.326813
-0.325317
-0.327403
-0.327753
-0.328781
-0.330297
-0.332096
-0.334009
-0.335911
-0.337718
-0.339377
-0.340857
-0.342144
-0.343235
-0.344132
-0.34484
-0.345363
-0.345701
-0.345851
-0.345805
-0.345555
-0.345098
-0.344432
-0.343558
-0.342479
-0.341197
-0.339719
-0.338053
-0.336228
-0.334294
-0.332336
-0.330482
-0.328907
-0.327817
-0.328615
-0.328901
-0.329768
-0.331083
-0.33269
-0.334441
-0.336218
-0.337933
-0.339526
-0.34096
-0.342216
-0.343286
-0.344168
-0.344868
-0.345386
-0.345722
-0.345872
-0.345827
-0.34558
-0.345128
-0.34447
-0.343611
-0.342553
-0.341303
-0.33987
-0.33827
-0.336536
-0.334726
-0.332929
-0.331267
-0.329892
-0.328964
-0.257553
-0.280685
-0.300033
-0.312879
-0.32143
-0.327397
-0.331777
-0.335124
-0.337753
-0.339848
-0.341523
-0.342859
-0.343907
-0.344708
-0.345287
-0.345656
-0.345819
-0.345766
-0.345484
-0.34496
-0.344182
-0.343137
-0.341798
-0.34012
-0.338031
-0.335414
-0.332076
-0.327693
-0.3217
-0.3131
-0.300187
-0.280764
-0.285505
-0.294791
-0.306441
-0.315894
-0.32295
-0.328218
-0.332246
-0.335405
-0.337927
-0.339958
-0.341596
-0.342908
-0.343943
-0.344735
-0.345309
-0.345676
-0.345837
-0.345786
-0.345508
-0.344991
-0.344224
-0.343195
-0.34188
-0.340241
-0.338214
-0.335702
-0.332551
-0.328515
-0.323219
-0.316113
-0.306593
-0.294869
-0.303984
-0.307579
-0.313836
-0.320008
-0.325265
-0.329561
-0.333051
-0.335901
-0.33824
-0.34016
-0.34173
-0.343
-0.344009
-0.344786
-0.34535
-0.345712
-0.345872
-0.345822
-0.345552
-0.345048
-0.344301
-0.343301
-0.342031
-0.34046
-0.338543
-0.33621
-0.333362
-0.329861
-0.325533
-0.320222
-0.313984
-0.307654
-0.314986
-0.316544
-0.319958
-0.323904
-0.327691
-0.331073
-0.334004
-0.336509
-0.338634
-0.340419
-0.341905
-0.343122
-0.344098
-0.344854
-0.345406
-0.345762
-0.345919
-0.345872
-0.34561
-0.345122
-0.3444
-0.343437
-0.342223
-0.340738
-0.338955
-0.336833
-0.334323
-0.331374
-0.327955
-0.324112
-0.320101
-0.316616
-0.321651
-0.32244
-0.324449
-0.32706
-0.329822
-0.332487
-0.334938
-0.337127
-0.339045
-0.340696
-0.342094
-0.343255
-0.344195
-0.344928
-0.345467
-0.345816
-0.345972
-0.345928
-0.345674
-0.345201
-0.344504
-0.34358
-0.342425
-0.341029
-0.339381
-0.337462
-0.335263
-0.332788
-0.33008
-0.327261
-0.324585
-0.322508
-0.325728
-0.326198
-0.327512
-0.329365
-0.331474
-0.333638
-0.335728
-0.337666
-0.339413
-0.340948
-0.342269
-0.343378
-0.344284
-0.344996
-0.345523
-0.345867
-0.346023
-0.345982
-0.345735
-0.345275
-0.3446
-0.34371
-0.342607
-0.341291
-0.339759
-0.33801
-0.336057
-0.333937
-0.331727
-0.329559
-0.327642
-0.326263
-0.328099
-0.328429
-0.329404
-0.330852
-0.332585
-0.334439
-0.336293
-0.338061
-0.339687
-0.341139
-0.342402
-0.343472
-0.344352
-0.345048
-0.345566
-0.345907
-0.346063
-0.346025
-0.345783
-0.345332
-0.344672
-0.343808
-0.342745
-0.341487
-0.340039
-0.33841
-0.336625
-0.334737
-0.332833
-0.331042
-0.32953
-0.328492
-0.329196
-0.32947
-0.330306
-0.331578
-0.333139
-0.334847
-0.336586
-0.338269
-0.339834
-0.341242
-0.342474
-0.343522
-0.344388
-0.345076
-0.34559
-0.345929
-0.346086
-0.34605
-0.34581
-0.345363
-0.344711
-0.343861
-0.342819
-0.341592
-0.340188
-0.33862
-0.33692
-0.335145
-0.333386
-0.331766
-0.33043
-0.329532
)
;

boundaryField
{
    wall
    {
        type            zeroGradient;
    }
    outlet
    {
        type            cyclic;
    }
    inlet
    {
        type            cyclic;
    }
    procBoundary0to1
    {
        type            processor;
        value           nonuniform List<scalar> 
256
(
-0.295799
-0.302046
-0.310788
-0.318465
-0.324551
-0.329304
-0.33306
-0.336071
-0.338508
-0.34048
-0.342069
-0.343339
-0.344339
-0.345106
-0.345668
-0.346038
-0.346216
-0.346186
-0.345921
-0.345406
-0.344639
-0.343619
-0.342326
-0.340726
-0.338762
-0.336355
-0.333377
-0.329637
-0.324862
-0.31872
-0.310964
-0.302135
-0.30442
-0.308006
-0.314248
-0.320407
-0.325657
-0.329954
-0.333453
-0.336316
-0.338663
-0.340579
-0.342134
-0.343384
-0.344372
-0.345133
-0.345691
-0.346058
-0.346234
-0.346203
-0.345944
-0.34544
-0.344686
-0.343681
-0.34241
-0.340842
-0.338932
-0.336611
-0.333778
-0.330289
-0.325967
-0.320658
-0.314421
-0.308092
-0.313037
-0.314903
-0.318853
-0.323281
-0.327422
-0.331045
-0.334138
-0.336751
-0.338942
-0.340761
-0.342256
-0.343471
-0.344438
-0.345185
-0.345735
-0.346098
-0.34627
-0.346239
-0.345988
-0.345501
-0.344769
-0.343792
-0.342561
-0.341055
-0.33924
-0.337068
-0.334476
-0.331384
-0.327729
-0.323524
-0.319018
-0.314985
-0.319641
-0.32065
-0.323119
-0.326204
-0.329357
-0.332312
-0.334968
-0.337295
-0.339301
-0.341001
-0.342422
-0.343591
-0.344528
-0.345257
-0.345795
-0.346152
-0.346321
-0.346292
-0.346049
-0.345578
-0.344872
-0.343931
-0.342752
-0.341326
-0.33963
-0.337636
-0.335316
-0.332651
-0.329655
-0.326436
-0.323274
-0.320727
-0.324303
-0.324902
-0.326517
-0.328711
-0.331124
-0.33353
-0.335798
-0.337859
-0.339683
-0.341263
-0.342606
-0.343724
-0.344628
-0.345335
-0.345861
-0.346212
-0.34638
-0.346353
-0.346117
-0.345662
-0.34498
-0.344075
-0.342952
-0.341609
-0.340035
-0.338217
-0.336154
-0.333864
-0.33141
-0.328927
-0.326658
-0.324971
-0.327428
-0.327827
-0.328971
-0.330619
-0.332537
-0.334545
-0.336514
-0.33836
-0.340033
-0.341508
-0.342779
-0.343847
-0.344718
-0.345404
-0.34592
-0.346268
-0.346438
-0.346416
-0.346186
-0.34574
-0.345077
-0.344205
-0.343133
-0.341865
-0.340399
-0.338731
-0.336875
-0.334873
-0.33281
-0.330821
-0.329101
-0.32789
-0.329349
-0.329648
-0.330544
-0.331886
-0.333507
-0.335262
-0.337034
-0.338733
-0.3403
-0.341698
-0.342913
-0.343941
-0.344786
-0.345457
-0.345966
-0.346313
-0.346487
-0.346469
-0.346242
-0.345801
-0.34515
-0.344302
-0.343269
-0.34206
-0.340672
-0.339111
-0.337399
-0.335588
-0.333772
-0.33208
-0.330669
-0.32971
-0.330264
-0.330521
-0.331309
-0.332513
-0.333996
-0.33563
-0.337304
-0.338931
-0.340444
-0.341803
-0.342987
-0.343993
-0.344823
-0.345487
-0.345994
-0.346341
-0.346517
-0.346501
-0.346274
-0.345833
-0.345189
-0.344355
-0.343344
-0.342164
-0.340819
-0.339312
-0.337673
-0.335956
-0.334258
-0.332705
-0.331434
-0.330583
)
;
    }
}


// ************************************************************************* //
