/*--------------------------------*- C++ -*----------------------------------*\
| =========                 |                                                 |
| \\      /  F ield         | OpenFOAM: The Open Source CFD Toolbox           |
|  \\    /   O peration     | Version:  2506                                  |
|   \\  /    A nd           | Website:  www.openfoam.com                      |
|    \\/     M anipulation  |                                                 |
\*---------------------------------------------------------------------------*/
FoamFile
{
    version     2.0;
    format      ascii;
    arch        "LSB;label=32;scalar=64";
    class       surfaceScalarField;
    location    "0.001";
    object      phi;
}
// * * * * * * * * * * * * * * * * * * * * * * * * * * * * * * * * * * * * * //

dimensions      [0 3 -1 0 0 0 0];

oriented        oriented;

internalField   nonuniform List<scalar> 
1200
(
6.6476e-06
1.3993e-06
1.40201e-06
5.85817e-06
3.93385e-07
3.96045e-07
5.59455e-06
1.3052e-07
1.33103e-07
5.48963e-06
5.1202e-08
5.3713e-08
5.4408e-06
2.31814e-08
2.56512e-08
5.41483e-06
1.17472e-08
1.4223e-08
5.39937e-06
6.46803e-09
8.9898e-09
5.38923e-06
3.7791e-09
6.35948e-09
5.38201e-06
2.30468e-09
4.91933e-09
5.37651e-06
1.45336e-09
4.04684e-09
5.3721e-06
9.45962e-10
3.4621e-09
5.36842e-06
6.38649e-10
3.04162e-09
5.36523e-06
4.51207e-10
2.73644e-09
5.36236e-06
3.3745e-10
2.53163e-09
5.35967e-06
2.70678e-10
2.42765e-09
5.35701e-06
2.35509e-10
2.42184e-09
5.35429e-06
2.25268e-10
2.49487e-09
5.35144e-06
2.41241e-10
2.60738e-09
5.34844e-06
2.89361e-10
2.71103e-09
5.34527e-06
3.76095e-10
2.79522e-09
5.34186e-06
5.11165e-10
2.89826e-09
5.33806e-06
7.16407e-10
3.07915e-09
5.33363e-06
1.03489e-09
3.39828e-09
5.32815e-06
1.54433e-09
3.93316e-09
5.32094e-06
2.38755e-09
4.82313e-09
5.31075e-06
3.84452e-09
6.34857e-09
5.29514e-06
6.50989e-09
9.09565e-09
5.26896e-06
1.17646e-08
1.44214e-08
5.2199e-06
2.31787e-08
2.58783e-08
5.11481e-06
5.11873e-08
5.3906e-08
4.85107e-06
1.30503e-07
1.33232e-07
3.93375e-07
3.96107e-07
6.99484e-06
4.71204e-07
3.51374e-07
6.94836e-06
2.61186e-07
1.78681e-07
6.86731e-06
1.28984e-07
8.25779e-08
6.81368e-06
6.46711e-08
4.01638e-08
6.78139e-06
3.40243e-08
2.14505e-08
6.76154e-06
1.88698e-08
1.27295e-08
6.74864e-06
1.09683e-08
8.39306e-09
6.7397e-06
6.62482e-09
6.09638e-09
6.73309e-06
4.12677e-09
4.79211e-09
6.72792e-06
2.64071e-09
3.97924e-09
6.7237e-06
1.73761e-09
3.42465e-09
6.72014e-06
1.18273e-09
3.02333e-09
6.71702e-06
8.40241e-10
2.73104e-09
6.71419e-06
6.30374e-10
2.53467e-09
6.71152e-06
5.06619e-10
2.43595e-09
6.70888e-06
4.4202e-10
2.431e-09
6.70618e-06
4.23785e-10
2.50061e-09
6.70336e-06
4.52447e-10
2.61069e-09
6.70039e-06
5.37607e-10
2.71925e-09
6.69726e-06
6.92103e-10
2.813e-09
6.69392e-06
9.35755e-10
2.92116e-09
6.69023e-06
1.30828e-09
3.09768e-09
6.68598e-06
1.88429e-09
3.40122e-09
6.68082e-06
2.79437e-09
3.90393e-09
6.67421e-06
4.26917e-09
4.72859e-09
6.66521e-06
6.73711e-09
6.11028e-09
6.65217e-06
1.10378e-08
8.51422e-09
6.6321e-06
1.88948e-08
1.29338e-08
6.59959e-06
3.40135e-08
2.1675e-08
6.54579e-06
6.46405e-08
4.03487e-08
6.46464e-06
1.28951e-07
8.26985e-08
2.61165e-07
1.78738e-07
6.78746e-06
2.04071e-07
1.1033e-07
6.81878e-06
1.52784e-07
7.70817e-08
6.80552e-06
9.64373e-08
4.58068e-08
6.78557e-06
5.78391e-08
2.67794e-08
6.76879e-06
3.45054e-08
1.63024e-08
6.7562e-06
2.08534e-08
1.06067e-08
6.74686e-06
1.28444e-08
7.45516e-09
6.73977e-06
8.06795e-09
5.65181e-09
6.73417e-06
5.16351e-09
4.56465e-09
6.72958e-06
3.36894e-09
3.855e-09
6.72572e-06
2.2488e-09
3.3567e-09
6.72236e-06
1.54596e-09
2.99169e-09
6.71937e-06
1.10467e-09
2.72295e-09
6.71663e-06
8.31294e-10
2.54052e-09
6.71402e-06
6.70018e-10
2.44932e-09
6.71143e-06
5.87315e-10
2.44582e-09
6.70878e-06
5.65696e-10
2.51029e-09
6.70601e-06
6.02576e-10
2.61525e-09
6.70311e-06
7.07717e-10
2.72801e-09
6.70007e-06
8.99396e-10
2.83253e-09
6.69686e-06
1.20633e-09
2.94625e-09
6.69337e-06
1.67936e-09
3.11488e-09
6.68945e-06
2.40753e-09
3.3931e-09
6.68487e-06
3.53969e-09
3.84355e-09
6.67925e-06
5.32476e-09
4.56065e-09
6.67208e-06
8.19472e-09
5.71074e-09
6.6626e-06
1.29189e-08
7.60097e-09
6.64981e-06
2.08723e-08
1.0816e-08
6.63282e-06
3.44809e-08
1.65169e-08
6.61272e-06
5.77922e-08
2.69469e-08
6.59937e-06
9.63907e-08
4.59109e-08
1.52756e-07
7.71286e-08
6.73644e-06
1.05622e-07
4.3722e-08
6.76251e-06
9.05187e-08
3.61873e-08
6.76693e-06
6.62716e-08
2.57503e-08
6.76223e-06
4.50016e-08
1.75347e-08
6.75513e-06
2.95526e-08
1.20544e-08
6.74818e-06
1.91812e-08
8.61717e-09
6.74209e-06
1.2444e-08
6.49741e-09
6.73687e-06
8.11577e-09
5.17394e-09
6.73238e-06
5.3386e-09
4.31579e-09
6.72847e-06
3.55411e-09
3.72327e-09
6.72502e-06
2.40637e-09
3.2928e-09
6.72192e-06
1.66871e-09
2.9705e-09
6.7191e-06
1.19738e-09
2.72666e-09
6.71647e-06
9.02979e-10
2.55762e-09
6.71394e-06
7.30282e-10
2.47384e-09
6.71141e-06
6.44453e-10
2.47286e-09
6.70882e-06
6.25334e-10
2.53405e-09
6.70612e-06
6.66229e-10
2.63343e-09
6.70331e-06
7.74447e-10
2.74483e-09
6.70038e-06
9.70642e-10
2.85327e-09
6.69733e-06
1.28873e-09
2.96827e-09
6.6941e-06
1.78344e-09
3.1266e-09
6.69059e-06
2.54235e-09
3.37731e-09
6.68665e-06
3.70284e-09
3.77244e-09
6.68212e-06
5.48159e-09
4.37388e-09
6.67681e-06
8.22831e-09
5.27947e-09
6.67056e-06
1.25063e-08
6.66334e-09
6.66342e-06
1.9188e-08
8.82038e-09
6.65614e-06
2.95159e-08
1.22462e-08
6.65132e-06
4.49441e-08
1.76738e-08
6.65566e-06
6.62173e-08
2.58301e-08
9.04867e-08
3.62206e-08
6.72139e-06
5.97102e-08
2.13111e-08
6.7383e-06
5.43438e-08
1.92606e-08
6.74567e-06
4.33936e-08
1.551e-08
6.74678e-06
3.19872e-08
1.19017e-08
6.74476e-06
2.25005e-08
9.0791e-09
6.74145e-06
1.54201e-08
7.07217e-09
6.73776e-06
1.04308e-08
5.70079e-09
6.73409e-06
7.02287e-09
4.76311e-09
6.73059e-06
4.73306e-09
4.10336e-09
6.72732e-06
3.20811e-09
3.61745e-09
6.72428e-06
2.19814e-09
3.24837e-09
6.72145e-06
1.53369e-09
2.96182e-09
6.71881e-06
1.10321e-09
2.73656e-09
6.7163e-06
8.33828e-10
2.5767e-09
6.71385e-06
6.77692e-10
2.4998e-09
6.71139e-06
6.03242e-10
2.50447e-09
6.70886e-06
5.90519e-10
2.56844e-09
6.70623e-06
6.29992e-10
2.66595e-09
6.7035e-06
7.25577e-10
2.77242e-09
6.7007e-06
8.96768e-10
2.87645e-09
6.69783e-06
1.17809e-09
2.98462e-09
6.69486e-06
1.62044e-09
3.12938e-09
6.69175e-06
2.29715e-09
3.3556e-09
6.68843e-06
3.31595e-09
3.70398e-09
6.68487e-06
4.83812e-09
4.20582e-09
6.68109e-06
7.10664e-09
4.90302e-09
6.67724e-06
1.04756e-08
5.87725e-09
6.67375e-06
1.54188e-08
7.25952e-09
6.67157e-06
2.24623e-08
9.23761e-09
6.67258e-06
3.19327e-08
1.20028e-08
6.67989e-06
4.33446e-08
1.5558e-08
5.43157e-08
1.92762e-08
6.71603e-06
3.33658e-08
1.24766e-08
6.72737e-06
3.12048e-08
1.18072e-08
6.73427e-06
2.61585e-08
1.03302e-08
6.7373e-06
2.02884e-08
8.67147e-09
6.73767e-06
1.4934e-08
7.18996e-09
6.73645e-06
1.06271e-08
6.01361e-09
6.73435e-06
7.40822e-09
5.12905e-09
6.73179e-06
5.10792e-09
4.46689e-09
6.72906e-06
3.50769e-09
3.95817e-09
6.72631e-06
2.41134e-09
3.55311e-09
6.72361e-06
1.66729e-09
3.22534e-09
6.72102e-06
1.16837e-09
2.95807e-09
6.71854e-06
8.4209e-10
2.74236e-09
6.71614e-06
6.38617e-10
2.58948e-09
6.71378e-06
5.22593e-10
2.52057e-09
6.71138e-06
4.6971e-10
2.53503e-09
6.70889e-06
4.63357e-10
2.60856e-09
6.70632e-06
4.94144e-10
2.70945e-09
6.70367e-06
5.63472e-10
2.81005e-09
6.70098e-06
6.87161e-10
2.90202e-09
6.69827e-06
8.945e-10
2.99648e-09
6.69554e-06
1.22453e-09
3.12785e-09
6.69277e-06
1.72822e-09
3.33714e-09
6.68995e-06
2.47695e-09
3.65258e-09
6.68714e-06
3.57303e-09
4.08091e-09
6.68446e-06
5.16183e-09
4.62559e-09
6.68219e-06
7.43758e-09
5.31038e-09
6.68079e-06
1.06249e-08
6.1846e-09
6.68103e-06
1.49061e-08
7.31601e-09
6.68398e-06
2.02503e-08
8.73774e-09
6.69085e-06
2.61255e-08
1.0352e-08
3.11865e-08
1.18098e-08
6.71131e-06
1.51304e-08
8.69991e-09
6.71976e-06
1.43203e-08
8.43623e-09
6.72584e-06
1.23017e-08
7.77741e-09
6.72938e-06
9.80654e-09
6.94114e-09
6.7308e-06
7.40566e-09
6.10551e-09
6.73067e-06
5.38673e-09
5.37378e-09
6.72948e-06
3.82311e-09
4.77321e-09
6.72763e-06
2.67466e-09
4.28517e-09
6.7254e-06
1.85864e-09
3.87791e-09
6.72299e-06
1.28959e-09
3.5257e-09
6.72054e-06
8.97166e-10
3.21943e-09
6.71812e-06
6.30712e-10
2.95772e-09
6.71577e-06
4.55573e-10
2.7449e-09
6.71346e-06
3.46897e-10
2.59849e-09
6.71116e-06
2.85756e-10
2.53914e-09
6.7088e-06
2.58687e-10
2.56596e-09
6.70636e-06
2.56275e-10
2.65132e-09
6.70382e-06
2.72616e-10
2.75657e-09
6.70123e-06
3.08105e-10
2.84892e-09
6.69862e-06
3.72088e-10
2.92379e-09
6.69603e-06
4.81585e-10
3.00308e-09
6.69347e-06
6.57426e-10
3.12535e-09
6.69095e-06
9.25028e-10
3.32628e-09
6.68848e-06
1.31936e-09
3.62375e-09
6.68616e-06
1.88916e-09
4.00691e-09
6.68416e-06
2.70087e-09
4.4548e-09
6.6828e-06
3.83798e-09
4.96065e-09
6.68251e-06
5.38589e-09
5.53666e-09
6.68381e-06
7.39206e-09
6.21228e-09
6.68728e-06
9.78819e-09
6.9884e-09
6.69333e-06
1.22863e-08
7.78796e-09
1.43121e-08
8.43504e-09
5.35861e-06
7.23621e-09
5.36584e-06
7.09356e-09
5.37143e-06
6.70972e-09
5.37506e-06
6.17923e-09
5.37686e-06
5.60495e-09
5.37718e-06
5.06575e-09
5.37641e-06
4.59473e-09
5.37489e-06
4.19126e-09
5.37292e-06
3.83678e-09
5.37069e-06
3.51261e-09
5.36837e-06
3.21603e-09
5.36605e-06
2.95496e-09
5.36376e-06
2.74308e-09
5.36151e-06
2.60178e-09
5.35924e-06
2.54963e-09
5.35692e-06
2.58451e-09
5.3545e-06
2.67712e-09
5.35199e-06
2.7837e-09
5.34943e-06
2.86826e-09
5.34687e-06
2.9304e-09
5.34435e-06
3.00058e-09
5.34189e-06
3.11917e-09
5.33949e-06
3.31676e-09
5.33721e-06
3.60559e-09
5.33513e-06
3.96631e-09
5.33347e-06
4.3662e-09
5.33252e-06
4.78652e-09
5.33268e-06
5.2259e-09
5.33437e-06
5.70412e-09
5.33793e-06
6.22006e-09
5.3435e-06
6.71856e-09
7.09306e-09
5.65571e-06
3.48656e-07
5.6092e-06
1.76017e-07
5.52817e-06
7.99906e-08
5.47456e-06
3.76481e-08
5.44232e-06
1.89761e-08
5.42251e-06
1.02489e-08
5.40962e-06
5.86649e-09
5.40066e-06
3.51107e-09
5.39399e-06
2.17245e-09
5.38877e-06
1.3808e-09
5.38451e-06
9.03723e-10
5.38094e-06
6.15775e-10
5.37785e-06
4.41445e-10
5.37507e-06
3.36307e-10
5.37247e-06
2.74863e-10
5.36989e-06
2.40498e-10
5.3672e-06
2.2668e-10
5.36434e-06
2.40024e-10
5.36131e-06
2.92932e-10
5.35815e-06
3.89206e-10
5.35481e-06
5.29434e-10
5.35115e-06
7.3037e-10
5.34692e-06
1.03328e-09
5.34179e-06
1.51052e-09
5.3352e-06
2.28835e-09
5.32621e-06
3.60144e-09
5.31316e-06
5.92351e-09
5.29307e-06
1.02719e-08
5.26054e-06
1.89702e-08
5.20672e-06
3.76248e-08
5.12557e-06
7.99642e-08
1.76e-07
6.83941e-06
2.31023e-07
6.86916e-06
1.59803e-07
6.84179e-06
9.23921e-08
6.81182e-06
5.13921e-08
6.78948e-06
2.89353e-08
6.77399e-06
1.67809e-08
6.76311e-06
1.00504e-08
6.75515e-06
6.1925e-09
6.74901e-06
3.90702e-09
6.74409e-06
2.52145e-09
6.74002e-06
1.67294e-09
6.73656e-06
1.15333e-09
6.73353e-06
8.33742e-10
6.73079e-06
6.37413e-10
6.72821e-06
5.20939e-10
6.72564e-06
4.57674e-10
6.72298e-06
4.34283e-10
6.72015e-06
4.57892e-10
6.71716e-06
5.47394e-10
6.71404e-06
7.129e-10
6.71076e-06
9.62545e-10
6.70719e-06
1.32787e-09
6.70313e-06
1.87964e-09
6.69829e-06
2.73916e-09
6.69222e-06
4.10912e-09
6.68422e-06
6.34998e-09
6.67318e-06
1.01447e-08
6.6574e-06
1.68109e-08
6.63479e-06
2.89146e-08
6.60463e-06
5.1344e-08
6.57715e-06
9.23428e-08
1.59773e-07
6.77105e-06
1.3758e-07
6.80436e-06
1.12071e-07
6.80334e-06
7.65275e-08
6.79192e-06
4.86918e-08
6.7799e-06
3.03185e-08
6.76983e-06
1.89016e-08
6.76183e-06
1.19103e-08
6.75544e-06
7.60504e-09
6.75021e-06
4.9243e-09
6.74583e-06
3.24354e-09
6.74208e-06
2.18912e-09
6.73882e-06
1.52765e-09
6.73591e-06
1.11042e-09
6.73326e-06
8.49934e-10
6.73073e-06
6.95786e-10
6.7282e-06
6.15448e-10
6.72558e-06
5.90523e-10
6.72282e-06
6.21911e-10
6.71991e-06
7.2589e-10
6.71687e-06
9.21824e-10
6.7137e-06
1.2306e-09
6.71032e-06
1.6942e-09
6.70657e-06
2.39624e-09
6.70224e-06
3.47517e-09
6.69704e-06
5.14787e-09
6.6906e-06
7.7786e-09
6.68243e-06
1.20049e-08
6.6721e-06
1.89146e-08
6.65982e-06
3.02712e-08
6.64824e-06
4.86164e-08
6.64713e-06
7.64564e-08
1.12029e-07
6.74565e-06
8.33486e-08
6.76886e-06
7.37279e-08
6.77551e-06
5.6141e-08
6.77355e-06
3.94472e-08
6.76848e-06
2.66305e-08
6.76284e-06
1.76713e-08
6.75753e-06
1.16704e-08
6.75276e-06
7.72002e-09
6.74853e-06
5.13613e-09
6.74477e-06
3.45493e-09
6.74142e-06
2.36642e-09
6.7384e-06
1.66312e-09
6.73565e-06
1.20949e-09
6.7331e-06
9.23743e-10
6.73065e-06
7.57614e-10
6.72818e-06
6.7728e-10
6.72562e-06
6.60904e-10
6.72292e-06
7.00008e-10
6.7201e-06
8.03505e-10
6.71718e-06
9.95651e-10
6.71417e-06
1.30749e-09
6.71102e-06
1.78958e-09
6.70765e-06
2.52542e-09
6.70391e-06
3.64132e-09
6.69968e-06
5.32374e-09
6.69483e-06
7.86713e-09
6.68934e-06
1.17433e-08
6.68347e-06
1.76623e-08
6.67818e-06
2.65605e-08
6.67607e-06
3.93516e-08
6.68266e-06
5.6055e-08
7.36782e-08
6.73606e-06
5.09723e-08
6.7513e-06
4.69818e-08
6.75883e-06
3.82896e-08
6.76073e-06
2.88144e-08
6.75952e-06
2.06524e-08
6.75683e-06
1.43899e-08
6.75357e-06
9.87838e-09
6.75018e-06
6.73967e-09
6.74684e-06
4.59665e-09
6.74368e-06
3.14973e-09
6.74072e-06
2.1792e-09
6.73795e-06
1.53282e-09
6.73537e-06
1.11109e-09
6.73294e-06
8.4819e-10
6.73057e-06
6.99773e-10
6.72816e-06
6.34966e-10
6.72565e-06
6.3176e-10
6.72303e-06
6.74655e-10
6.7203e-06
7.64551e-10
6.71749e-06
9.24014e-10
6.71465e-06
1.19218e-09
6.71176e-06
1.62197e-09
6.70877e-06
2.28301e-09
6.7056e-06
3.27075e-09
6.70222e-06
4.72223e-09
6.69871e-06
6.84241e-09
6.69527e-06
9.9281e-09
6.69237e-06
1.43723e-08
6.69097e-06
2.05818e-08
6.69277e-06
2.8725e-08
6.70026e-06
3.82144e-08
4.69407e-08
6.73208e-06
2.96474e-08
6.74262e-06
2.78891e-08
6.74936e-06
2.36529e-08
6.75257e-06
1.85952e-08
6.75325e-06
1.3877e-08
6.75232e-06
1.0007e-08
6.75043e-06
7.06613e-09
6.74803e-06
4.93568e-09
6.74539e-06
3.43392e-09
6.74271e-06
2.3884e-09
6.74007e-06
1.66449e-09
6.73753e-06
1.17022e-09
6.7351e-06
8.46242e-10
6.73279e-06
6.48858e-10
6.7305e-06
5.4217e-10
6.72815e-06
5.01531e-10
6.72569e-06
5.06971e-10
6.72312e-06
5.42163e-10
6.72045e-06
6.03374e-10
6.71776e-06
7.10236e-10
6.71508e-06
9.02808e-10
6.71242e-06
1.22436e-09
6.70975e-06
1.7206e-09
6.70705e-06
2.45274e-09
6.70434e-06
3.50568e-09
6.7018e-06
5.00063e-09
6.69971e-06
7.10165e-09
6.69857e-06
9.99667e-09
6.6991e-06
1.38298e-08
6.70225e-06
1.85379e-08
6.70897e-06
2.36085e-08
2.7867e-08
6.72774e-06
1.37079e-08
6.73581e-06
1.30172e-08
6.74172e-06
1.12693e-08
6.74527e-06
9.07455e-09
6.7468e-06
6.92953e-09
6.7468e-06
5.09839e-09
6.74572e-06
3.66053e-09
6.74395e-06
2.59374e-09
6.74177e-06
1.82829e-09
6.73941e-06
1.28559e-09
6.737e-06
9.01577e-10
6.73462e-06
6.34783e-10
6.73233e-06
4.59847e-10
6.7301e-06
3.558e-10
6.72788e-06
3.01633e-10
6.72558e-06
2.82649e-10
6.72315e-06
2.87665e-10
6.7206e-06
3.05575e-10
6.71798e-06
3.33513e-10
6.71537e-06
3.85027e-10
6.71282e-06
4.8575e-10
6.71034e-06
6.58439e-10
6.7079e-06
9.2357e-10
6.70552e-06
1.31055e-09
6.70326e-06
1.85966e-09
6.70132e-06
2.62567e-09
6.70002e-06
3.68017e-09
6.69983e-06
5.09514e-09
6.70123e-06
6.9085e-09
6.70473e-06
9.04978e-09
6.71064e-06
1.12523e-08
1.30096e-08
5.37128e-06
5.37828e-06
5.38373e-06
5.38732e-06
5.38916e-06
5.38955e-06
5.38885e-06
5.38738e-06
5.38543e-06
5.38323e-06
5.38094e-06
5.37866e-06
5.37644e-06
5.37427e-06
5.37209e-06
5.36981e-06
5.3674e-06
5.36487e-06
5.36228e-06
5.35972e-06
5.35725e-06
5.35486e-06
5.35255e-06
5.35034e-06
5.34829e-06
5.34665e-06
5.34572e-06
5.34591e-06
5.34764e-06
5.3512e-06
5.35666e-06
)
;

boundaryField
{
    wall
    {
        type            calculated;
        value           uniform 0;
    }
    outlet
    {
        type            cyclic;
        value           nonuniform List<scalar> 
16
(
4.06159e-06
6.41812e-06
6.63065e-06
6.68171e-06
6.69679e-06
6.70217e-06
6.70177e-06
5.35072e-06
5.07902e-06
6.60687e-06
6.68041e-06
6.70586e-06
6.7155e-06
6.71952e-06
6.71872e-06
5.36366e-06
)
;
    }
    inlet
    {
        type            cyclic;
        value           nonuniform List<scalar> 
16
(
-4.06159e-06
-6.41812e-06
-6.63065e-06
-6.68171e-06
-6.69679e-06
-6.70217e-06
-6.70177e-06
-5.35072e-06
-5.07902e-06
-6.60687e-06
-6.68041e-06
-6.70586e-06
-6.7155e-06
-6.71952e-06
-6.71872e-06
-5.36366e-06
)
;
    }
    procBoundary0to1
    {
        type            processor;
        value           nonuniform List<scalar> 
256
(
4.76669e-07
2.66532e-07
1.34148e-07
6.96675e-08
3.89211e-08
2.37864e-08
1.60039e-08
1.18148e-08
9.41647e-09
7.88876e-09
6.81051e-09
5.99782e-09
5.38837e-09
4.96909e-09
4.75816e-09
4.76498e-09
4.95401e-09
5.23022e-09
5.44355e-09
5.56449e-09
5.707e-09
6.01335e-09
6.5908e-09
7.5553e-09
9.12335e-09
1.17367e-08
1.62249e-08
2.42418e-08
3.94416e-08
7.0092e-08
1.34421e-07
2.66659e-07
2.36469e-07
1.65137e-07
9.75521e-08
5.63859e-08
3.38287e-08
2.16939e-08
1.5084e-08
1.13804e-08
9.1924e-09
7.75656e-09
6.72646e-09
5.95089e-09
5.36883e-09
4.96897e-09
4.77316e-09
4.78187e-09
4.95684e-09
5.22154e-09
5.45268e-09
5.60988e-09
5.77185e-09
6.06974e-09
6.61434e-09
7.51695e-09
8.97319e-09
1.13584e-08
1.53411e-08
2.21665e-08
3.43446e-08
5.67893e-08
9.78001e-08
1.65247e-07
1.13127e-07
9.15078e-08
6.26924e-08
4.08974e-08
2.69441e-08
1.85523e-08
1.35943e-08
1.06308e-08
8.78152e-09
7.51336e-09
6.58245e-09
5.88239e-09
5.35304e-09
4.98346e-09
4.80455e-09
4.81624e-09
4.97083e-09
5.21405e-09
5.46136e-09
5.65995e-09
5.84625e-09
6.13157e-09
6.62806e-09
7.43836e-09
8.71553e-09
1.07233e-08
1.39142e-08
1.90401e-08
2.74385e-08
4.12603e-08
6.29025e-08
9.15957e-08
5.8164e-08
5.13151e-08
3.94898e-08
2.8746e-08
2.08111e-08
1.54865e-08
1.20488e-08
9.82487e-09
8.33751e-09
7.26558e-09
6.46421e-09
5.85569e-09
5.37755e-09
5.0329e-09
4.86822e-09
4.88371e-09
5.02413e-09
5.24558e-09
5.48709e-09
5.70289e-09
5.90453e-09
6.17569e-09
6.62258e-09
7.34299e-09
8.43297e-09
1.00354e-08
1.24135e-08
1.59517e-08
2.12468e-08
2.90409e-08
3.96439e-08
5.13726e-08
3.31277e-08
3.07627e-08
2.5837e-08
2.06327e-08
1.62714e-08
1.30347e-08
1.07532e-08
9.14244e-09
7.97329e-09
7.0834e-09
6.39895e-09
5.86299e-09
5.41699e-09
5.08166e-09
4.92803e-09
4.9555e-09
5.10254e-09
5.3171e-09
5.54255e-09
5.7518e-09
5.94277e-09
6.18761e-09
6.5922e-09
7.24449e-09
8.18095e-09
9.43896e-09
1.11377e-08
1.34498e-08
1.66163e-08
2.08281e-08
2.59068e-08
3.07727e-08
2.12447e-08
2.03551e-08
1.82306e-08
1.56802e-08
1.32825e-08
1.13274e-08
9.82912e-09
8.67406e-09
7.75513e-09
6.99868e-09
6.37913e-09
5.86675e-09
5.43035e-09
5.10374e-09
4.96491e-09
5.01555e-09
5.19215e-09
5.42068e-09
5.63282e-09
5.81079e-09
5.96699e-09
6.18478e-09
6.56693e-09
7.1766e-09
8.00216e-09
9.01292e-09
1.02238e-08
1.1696e-08
1.35365e-08
1.57816e-08
1.82344e-08
2.03348e-08
1.56149e-08
1.52393e-08
1.42475e-08
1.29135e-08
1.15235e-08
1.02846e-08
9.25648e-09
8.40163e-09
7.66143e-09
6.99102e-09
6.39167e-09
5.86886e-09
5.42782e-09
5.11576e-09
5.00032e-09
5.0858e-09
5.29966e-09
5.54585e-09
5.73469e-09
5.85824e-09
5.97227e-09
6.1758e-09
6.55473e-09
7.15113e-09
7.9156e-09
8.76924e-09
9.67532e-09
1.06366e-08
1.17287e-08
1.29727e-08
1.42341e-08
1.52196e-08
1.3321e-08
1.31117e-08
1.25232e-08
1.16633e-08
1.06952e-08
9.7743e-09
8.96068e-09
8.25541e-09
7.61649e-09
6.99782e-09
6.40535e-09
5.86918e-09
5.42422e-09
5.12768e-09
5.03249e-09
5.13975e-09
5.37631e-09
5.62707e-09
5.78915e-09
5.87059e-09
5.96174e-09
6.1651e-09
6.54543e-09
7.13482e-09
7.86781e-09
8.63981e-09
9.3978e-09
1.01217e-08
1.08837e-08
1.17123e-08
1.25166e-08
1.31016e-08
)
;
    }
}


// ************************************************************************* //
