FoamFile
{version 2.0; format ascii;class vectorField; location 0;object  v;}
2499
(
( -0.000231696 5.81722e-05 0.000556944 )  
( -0.000426103 0.00043993 0.00105863 )  
( 0.000221962 0.00011424 0.000938466 )  
( 0.000171147 5.57996e-05 0.000222471 )  
( 0.00046803 -0.000368342 0.000505601 )  
( -4.06424e-05 0.000266485 0.000998074 )  
( -8.19243e-05 0.00013682 5.43207e-05 )  
( 0.000153608 -1.01192e-05 0.000115594 )  
( -7.52187e-05 0.000218555 0.000602285 )  
( -0.000182225 0.000317748 0.000190515 )  
( -0.000527411 0.000189786 0.00104549 )  
( 0.000832967 -0.000780466 0.000366784 )  
( 0.000155176 0.000434511 0.000542137 )  
( 0.000245421 -0.000103857 -5.31153e-05 )  
( -0.000258506 0.000521653 0.00019227 )  
( 5.94547e-05 0.000204447 0.000200443 )  
( 0.000193546 -8.26555e-05 -3.16211e-05 )  
( -4.80594e-05 -0.00079787 0.000406548 )  
( -0.00010895 0.000287206 0.000702124 )  
( -3.05839e-05 5.73559e-05 3.43475e-05 )  
( 6.75383e-05 8.08564e-05 0.000288844 )  
( -0.000231607 -0.000144665 0.00017169 )  
( -4.48769e-05 0.000468659 6.27806e-05 )  
( -9.20023e-05 7.10562e-05 0.000609242 )  
( -0.000265713 0.000538355 0.000548383 )  
( -4.97691e-05 2.65179e-05 0.000173744 )  
( -0.000189955 0.000233937 0.00074938 )  
( -0.000116834 0.000247954 0.000672178 )  
( -5.76785e-05 0.000506393 0.000662823 )  
( -0.000186075 -0.000328674 -7.75552e-05 )  
( 2.25504e-05 0.000361425 0.000325184 )  
( 9.83168e-05 0.000484728 0.000365194 )  
( -0.000182755 2.27062e-05 0.000617776 )  
( -9.22349e-06 -4.51863e-05 0.000406883 )  
( 1.9716e-05 -8.70739e-05 0.000510866 )  
( -2.94601e-05 -0.000489955 0.000360901 )  
( -0.000177259 -0.00021329 6.91168e-05 )  
( 9.15428e-05 9.65548e-05 0.000294647 )  
( 4.73438e-05 5.84333e-05 1.16099e-05 )  
( -0.000158958 0.000136956 0.000479154 )  
( -1.54684e-06 0.000246617 0.000742631 )  
( -0.000306769 0.000254971 0.000683691 )  
( -4.92419e-05 0.000301533 0.000142928 )  
( -0.000518843 0.000946437 0.000182181 )  
( -0.000281106 7.29194e-05 6.32795e-05 )  
( -7.51548e-05 -0.000120548 -3.46049e-05 )  
( 0.000560428 -0.000708387 1.18491e-06 )  
( -0.000168039 -0.000534385 0.00119884 )  
( 0.000223732 0.000159303 0.000287198 )  
( -5.65083e-05 0.000252991 0.000606066 )  
( -6.85927e-05 0.000290668 0.000352698 )  
( 6.01407e-06 2.12729e-05 0.000362198 )  
( -0.000162786 0.000212758 0.000158621 )  
( -0.000105293 0.000538371 0.000578466 )  
( 0.00208958 0.000402819 -1.7012e-07 )  
( 0.000435156 0.000592492 -1.46431e-05 )  
( -9.37663e-05 -6.73768e-05 -2.2029e-05 )  
( -4.05966e-05 5.26496e-05 0.000140248 )  
( -0.000270525 0.000254716 0.000494567 )  
( -0.000172148 -0.000717395 -1.60898e-05 )  
( -0.000283545 0.000293785 0.000227376 )  
( -0.000513273 0.000104798 0.000641466 )  
( 0.000214858 0.00016461 4.46427e-05 )  
( 0.000312309 0.000144358 0.000525632 )  
( -0.000322386 0.000546781 0.000283572 )  
( -5.15244e-05 -0.000103572 0.000747825 )  
( -0.000363665 -0.000132316 0.000857923 )  
( 0.000221291 -8.7174e-05 0.000423851 )  
( 6.3158e-05 0.000172247 0.000516414 )  
( 7.29786e-05 0.000361395 0.000206457 )  
( -0.000258196 0.000172328 4.26565e-05 )  
( -4.23952e-05 0.000134848 2.24914e-05 )  
( -9.31519e-05 -6.86179e-05 0.000300919 )  
( -0.000377682 0.000203181 0.000538543 )  
( 0.000269818 -8.57764e-05 0.00060328 )  
( -0.00250065 -7.70217e-05 0.00431977 )  
( 2.05164e-06 -0.000151363 0.0004049 )  
( -7.90154e-05 0.000334179 0.000454209 )  
( 0.00049907 0.000355335 0.000559719 )  
( 0.000507695 -8.13408e-05 0.00122221 )  
( -5.63061e-05 0.000254633 0.000136763 )  
( -4.44149e-05 0.000132094 4.27147e-05 )  
( -0.000371942 -0.000296358 0.000601933 )  
( 0.000194154 0.000126518 -2.1173e-05 )  
( -0.000257372 0.000476152 0.000221146 )  
( 0.000716383 0.000282095 8.57102e-08 )  
( 5.23099e-05 0.0013981 0.000454121 )  
( 7.23093e-05 0.000192088 0.00023046 )  
( -5.92193e-05 0.000359313 0.000531105 )  
( -0.000294861 0.000623509 3.82547e-09 )  
( 0.000292406 0.00011399 0.00017707 )  
( 0.000112304 0.000168208 0.000516452 )  
( -0.000105199 0.000372254 0.000120979 )  
( -0.000331372 0.000108241 0.000755751 )  
( 0.000354796 0.0002521 3.48751e-05 )  
( 8.74831e-06 0.000341012 0.000557831 )  
( 2.99094e-05 1.58341e-05 6.53315e-05 )  
( -0.000559519 0.000293955 -0.000171421 )  
( 0.000120716 -0.000154156 9.45471e-05 )  
( 0.000300241 0.000326278 0.000133806 )  
( -2.61106e-05 2.53893e-05 4.91608e-05 )  
( -3.26838e-05 0.000583241 0.000838599 )  
( 0.000150442 0.000195776 0.000148961 )  
( -1.68081e-05 0.000262758 0.000591555 )  
( -0.000425914 0.000302253 0.000968959 )  
( -4.7023e-05 -1.38621e-05 0.000735565 )  
( 9.23935e-05 0.000139448 0.000286972 )  
( 7.82715e-05 -8.03438e-05 0.000141157 )  
( -0.000130062 0.000175645 0.000485281 )  
( 7.52962e-05 3.50597e-06 -9.05458e-10 )  
( -0.000101612 0.000397572 1.12415e-05 )  
( -5.55455e-05 -0.000228592 0.00019502 )  
( -2.34165e-05 0.00013406 0.000749646 )  
( 4.29402e-05 -1.7766e-05 -0.000493954 )  
( -5.8287e-05 0.000209555 0.00109272 )  
( 0.000674345 6.56493e-07 -0.000481622 )  
( -0.000152822 0.000278227 0.000571818 )  
( 0.000237824 0.000292465 0.000786071 )  
( -0.00011754 0.000151285 4.0886e-05 )  
( 0.000198018 0.000299067 0.000345333 )  
( 4.46753e-05 0.000301828 0.00078383 )  
( -0.00011538 -0.000133901 6.54301e-05 )  
( -5.24269e-05 -0.000174762 -0.000126555 )  
( 5.949e-05 0.000163005 0.000495622 )  
( 0.000145203 0.000474333 0.000410664 )  
( -4.0724e-05 0.000579784 0.00088675 )  
( -0.000251477 0.000127953 0.000135989 )  
( 1.96775e-05 0.000256535 0.000398094 )  
( 0.000357649 0.000553118 0.000482795 )  
( -0.000131504 0.000184502 5.33375e-05 )  
( -1.30679e-05 -2.83167e-05 0.000313112 )  
( -6.14052e-05 0.000295763 0.000497833 )  
( -7.61165e-05 0.000129601 -7.10123e-05 )  
( 0.000153548 0.000427715 0.000141621 )  
( 2.18245e-05 -0.000392521 0.00065378 )  
( -0.000320223 -0.000453051 0.00101543 )  
( -0.000121333 0.000511911 0.00070684 )  
( 0.000328701 -0.000146463 0.000266314 )  
( -0.000100175 -0.00101327 0.000163839 )  
( -6.12258e-05 0.00010689 0.000191044 )  
( -0.000127836 5.36747e-05 8.11117e-06 )  
( 0.000650519 -0.000204916 4.56473e-05 )  
( -2.14094e-05 0.000251184 7.4079e-05 )  
( -0.000326054 0.000191283 0.000698429 )  
( -0.000111711 0.000185071 0.000311801 )  
( 0.000219024 -3.26054e-05 0.000262682 )  
( -0.000229883 0.000484406 -0.000337426 )  
( -0.000213379 0.000645871 0.000757011 )  
( -0.000105056 -0.000193913 0.000568241 )  
( 1.65089e-05 -0.000490743 0.000165557 )  
( -0.000191526 0.000254665 0.000163248 )  
( -0.000235363 0.000189223 0.00042655 )  
( 0.000172499 0.00141054 0.000430556 )  
( -0.00028231 -0.000300432 0.00035247 )  
( 1.82502e-05 0.000115328 0.000548434 )  
( 2.41153e-05 -3.23845e-05 0.000497338 )  
( -5.73854e-05 -6.19632e-05 0.000177183 )  
( -0.000239375 0.000278335 0.000685578 )  
( 3.00296e-05 0.000164127 0.000343648 )  
( -0.000203709 0.000532213 0.000526115 )  
( -5.16272e-05 0.000546418 0.000789918 )  
( 0.000177605 0.000609464 0.000848661 )  
( -6.3853e-05 4.86543e-06 9.20485e-06 )  
( -0.000230497 -0.000124857 0.000533759 )  
( -6.17639e-05 0.000303329 0.000847908 )  
( -0.000463658 -8.87814e-05 -3.87448e-05 )  
( -7.19404e-05 0.000180919 0.000145771 )  
( 2.25429e-05 -0.000269117 2.20789e-05 )  
( -0.000212739 0.000450642 0.0008351 )  
( -0.000258566 0.000223427 0.000592453 )  
( 5.369e-05 -4.40284e-06 8.69242e-06 )  
( -0.000215553 0.000293307 0.000536374 )  
( 0.000110564 0.00021645 4.51731e-05 )  
( -0.000163636 0.000248118 0.000104637 )  
( -2.70169e-05 0.000255791 0.000557553 )  
( 0.000149795 0.000184833 8.45533e-05 )  
( 0.000116522 0.000237944 0.000567084 )  
( -0.000157829 0.000176508 0.00016511 )  
( -0.000176729 -5.78616e-05 0.000456023 )  
( -0.000156544 -0.000146145 -0.000166439 )  
( -0.000217351 0.000181223 0.000762526 )  
( -9.32884e-05 -7.68701e-05 6.10201e-05 )  
( -4.12643e-05 0.000303706 0.000627272 )  
( 8.32578e-05 -8.59834e-06 0.000714336 )  
( 6.23248e-05 1.47168e-05 0.00112156 )  
( -0.000235083 0.000239272 0.000264766 )  
( -0.000377033 0.000379732 0.000632841 )  
( -6.1809e-05 0.000189512 0.000657693 )  
( -0.000144439 6.57703e-05 0.000654748 )  
( -0.000314084 -9.83684e-05 0.000849668 )  
( 6.43654e-05 -0.000318862 0.000636246 )  
( -6.39609e-05 -3.63669e-05 0.000177845 )  
( 2.09067e-05 0.000133088 -5.43108e-05 )  
( 0.000186569 -0.00026779 -4.06265e-05 )  
( -4.23651e-06 0.000255345 9.44442e-05 )  
( 0.00322235 -5.15624e-05 -5.49293e-07 )  
( 7.40995e-06 6.31312e-05 0.000163506 )  
( 0.000125895 0.000182154 -0.000155525 )  
( 5.99241e-05 0.000259663 0.000577468 )  
( 0.000289368 -0.000142922 0.000535391 )  
( 5.77437e-06 0.000172151 0.000410153 )  
( -0.000617872 0.000376032 3.39053e-05 )  
( 0.000506883 2.4965e-05 0.000956447 )  
( -0.000137279 -0.000359917 0.000419966 )  
( 0.000359469 0.000200591 0.000414211 )  
( 0.000124261 -5.21946e-05 8.85854e-05 )  
( 0.000389113 0.000101096 0.000552104 )  
( -0.000122953 4.93802e-05 0.000207893 )  
( -0.000191887 0.000175213 0.000185557 )  
( 0.000212202 -0.000108593 -3.17856e-05 )  
( 5.90921e-05 -5.57318e-06 5.47698e-06 )  
( -2.75652e-05 0.000142649 0.000235618 )  
( 1.216e-05 -0.000347222 0.000302561 )  
( -5.41881e-05 3.12231e-05 0.000728452 )  
( -0.000120449 0.000119199 0.000326559 )  
( 5.52023e-05 0.000121849 0.000731683 )  
( -0.000141086 -0.000254453 0.000295473 )  
( 2.63321e-05 0.000194248 0.000237235 )  
( 2.39231e-05 0.000200433 0.000459599 )  
( 0.000330496 0.000209231 0.000270388 )  
( 0.000137981 3.3049e-05 0.000123277 )  
( 0.00012147 -0.000108164 0.000373119 )  
( 6.05362e-05 0.000563415 0.000758489 )  
( -3.03354e-05 0.000228296 0.000707073 )  
( 0.000698188 -0.000151644 0.00024174 )  
( -0.000138512 0.000136651 0.000143781 )  
( -0.000786207 0.000238212 0.000101532 )  
( -7.61683e-05 0.000316199 0.000480184 )  
( -9.63553e-05 -0.000132713 0.000334778 )  
( -7.37202e-05 0.000143138 -2.34494e-05 )  
( -0.000198883 -1.44722e-05 0.000217389 )  
( -0.00013768 6.56816e-05 0.000784321 )  
( -7.47013e-05 -2.02447e-05 2.19636e-05 )  
( 0.000103126 0.000111274 8.12529e-05 )  
( 8.71064e-05 8.30391e-05 -0.000108664 )  
( -5.04465e-06 -5.85199e-05 0.000101979 )  
( 0.000681622 0.000164792 0.000753522 )  
( -2.41007e-05 -5.46635e-05 0.000602396 )  
( -1.79035e-05 -3.33424e-05 -4.99729e-06 )  
( 0.000153591 0.000524384 0.000248194 )  
( 9.06533e-05 -0.000112016 0.000276381 )  
( -0.00015166 0.000468628 0.000560002 )  
( 0.000265876 -0.000400163 0.000935854 )  
( 0.000414634 0.000973827 0.000148196 )  
( 1.10836e-05 0.000289864 0.000202898 )  
( -0.000105977 -1.31546e-05 0.000537589 )  
( -0.000712889 0.000313755 4.09046e-05 )  
( 0.000137054 -0.00055559 0.00126149 )  
( -0.000794792 0.000709088 0.00067798 )  
( 0.000113491 0.000281478 0.000267118 )  
( 4.77943e-06 -0.00012002 0.000589153 )  
( -0.000233936 0.000499566 -2.55025e-05 )  
( -0.000207285 -0.000113411 0.000112331 )  
( 5.65269e-05 0.000187903 0.000638891 )  
( 3.54844e-06 2.63821e-05 -1.73421e-05 )  
( -0.000815136 3.72841e-05 -1.90538e-06 )  
( -0.00065733 0.00136528 0.000372424 )  
( 0.000336625 -0.00031169 0.000940514 )  
( -1.44979e-05 -3.73685e-05 0.000287601 )  
( 0.000384617 8.49307e-05 0.000313993 )  
( -0.000320453 7.71749e-05 0.000365145 )  
( -0.000135715 6.83419e-05 0.000498363 )  
( 6.79494e-06 -0.000102513 0.000596616 )  
( 0.000441513 0.000486487 0.000371242 )  
( 0.000180409 0.00052354 0.000615621 )  
( -0.000147056 0.000515522 0.000650418 )  
( 4.70652e-05 2.76062e-05 0.000266563 )  
( 4.94067e-06 -7.9357e-05 -0.000219215 )  
( -0.000223109 0.000119271 0.00071881 )  
( -0.000178079 0.000140795 0.000481538 )  
( -1.89011e-05 0.000439016 0.000878087 )  
( -0.000628883 0.00022378 0.000777989 )  
( -2.49816e-05 -7.7197e-05 0.000183949 )  
( -0.000324826 3.81925e-05 0.000590734 )  
( 9.27315e-05 1.82834e-06 5.80267e-05 )  
( -0.000171472 4.78788e-05 0.000888327 )  
( 0.00030522 8.51058e-05 0.000690746 )  
( -0.00027878 0.000600465 0.00111715 )  
( 1.00365e-05 7.56127e-05 6.57808e-06 )  
( 8.07405e-05 -0.000326891 0.000302651 )  
( -9.54239e-05 0.000140892 0.000606034 )  
( -1.19347e-05 0.000371577 0.000791538 )  
( -0.000294432 0.000369751 0.000665886 )  
( -0.000127398 0.000350858 0.000820052 )  
( -3.0163e-05 3.0645e-05 0.00022619 )  
( -1.98883e-05 2.84106e-05 1.69e-05 )  
( -2.0974e-05 -8.95771e-05 0.000143782 )  
( 0.000136418 -4.01007e-05 0.000556152 )  
( -0.000123935 0.000248996 0.000414598 )  
( 0.000220435 0.000560782 0.000199015 )  
( -1.35426e-05 2.47435e-05 0.000118615 )  
( -0.000121452 0.000108232 0.000473147 )  
( -0.000283615 0.000337429 0.00105626 )  
( 8.72395e-06 0.000129994 0.000513495 )  
( 0.000510442 0.000183678 -9.51888e-09 )  
( -0.000294534 0.000506461 0.000668781 )  
( -0.000152052 -5.89688e-05 7.32681e-05 )  
( 3.80442e-05 0.000120941 0.000256396 )  
( 0.000758861 -0.000182312 4.32348e-05 )  
( -0.000203555 0.000160318 0.000653528 )  
( -0.000162649 -0.000111253 0.000522634 )  
( -0.000252188 0.000177845 7.09844e-07 )  
( -8.31526e-05 0.000146897 0.000270298 )  
( 0.000301532 -1.2778e-05 0.000132945 )  
( -1.4128e-05 2.58682e-05 4.2888e-05 )  
( -8.59391e-06 7.03294e-05 0.000595971 )  
( -0.000127622 0.000450602 0.000830675 )  
( -0.00023869 0.000387906 0.000545146 )  
( 3.71414e-05 9.0436e-05 0.000419619 )  
( -4.68432e-05 0.000315031 0.000726978 )  
( 0.000172145 0.000259079 0.000366069 )  
( -0.000229949 7.82375e-05 0.00083608 )  
( -0.000518934 -6.84199e-05 0.000258435 )  
( -5.64887e-05 0.000212873 0.000277094 )  
( 0.000203323 0.000197234 0.000292069 )  
( -9.62744e-05 -2.11714e-05 0.000387952 )  
( -0.000506976 0.000407299 0.00059407 )  
( -0.000174868 3.98237e-06 0.000462851 )  
( -0.00013359 1.9346e-05 0.00016544 )  
( 0.000437306 0.000174404 0.000287744 )  
( -0.000131685 0.00019164 0.000201085 )  
( -0.000143987 0.000130219 0.000754075 )  
( -2.65148e-05 -8.70954e-05 2.26548e-05 )  
( 3.23701e-05 0.000633975 0.000454516 )  
( -0.000298536 -0.00033684 0.000575539 )  
( 0.000240345 0.000379636 0.000256832 )  
( -0.000156181 4.44263e-05 6.38417e-05 )  
( -0.000189281 0.000527228 0.000380155 )  
( -0.000136653 0.000198265 0.000253306 )  
( 3.43579e-05 -6.66029e-05 -4.38431e-05 )  
( 0.000196226 -0.000148677 0.000399587 )  
( 0.000135297 0.000292096 0.000402783 )  
( 0.000153467 -9.8113e-05 4.28763e-05 )  
( -5.11857e-06 0.000252025 0.000461746 )  
( -0.000226032 0.000109188 0.000224195 )  
( 9.69325e-05 0.000277256 -0.000118404 )  
( -0.000210362 0.000136836 0.000472687 )  
( -3.9302e-05 -1.17716e-05 8.91438e-05 )  
( -6.84816e-05 0.000284198 0.000454099 )  
( 0.000272661 -0.00043123 0.000863607 )  
( 0.000518544 0.000958997 0.00018527 )  
( 0.000229295 7.32224e-06 0.000750662 )  
( 7.06783e-05 -6.84184e-05 0.000458935 )  
( 9.09049e-06 0.000472363 0.000131214 )  
( -0.000130657 0.000112969 6.80482e-05 )  
( -0.000911797 0.00225155 3.67024e-07 )  
( -6.00574e-05 0.000244297 0.000691562 )  
( -0.000288191 0.000412465 0.000210366 )  
( 6.05381e-05 0.000137636 2.6022e-05 )  
( 0.000193784 0.00120273 0.000194615 )  
( -0.000132276 0.000445633 0.00111826 )  
( -5.6031e-05 0.000373899 0.000451288 )  
( -0.000309628 0.000101928 0.000727847 )  
( 1.17888e-06 7.86882e-05 -3.58685e-05 )  
( 0.00055473 -0.000120785 0.0001825 )  
( -0.000195455 8.87403e-05 1.67945e-05 )  
( -0.000167407 0.000753114 0.000902535 )  
( -2.03538e-05 0.000109208 0.000625091 )  
( -0.000473432 1.78864e-05 0.000902646 )  
( 0.000219227 -1.01009e-05 0.000699475 )  
( 9.11755e-05 2.21392e-06 0.000286902 )  
( 6.77664e-05 8.00931e-05 5.69675e-05 )  
( 0.000181252 9.91349e-05 0.000293282 )  
( 0.000215903 0.00037311 0.000827356 )  
( -8.09677e-05 0.000460209 0.000363321 )  
( 0.000237519 0.000409757 0.000465045 )  
( -3.95272e-05 3.36522e-05 9.81092e-05 )  
( 0.000382629 -0.000295636 0.000433634 )  
( 4.61887e-05 -6.45285e-05 0.000115997 )  
( -5.45244e-06 0.000414669 0.000974194 )  
( 0.000127627 0.000154999 9.99802e-05 )  
( -0.000189907 -3.0924e-05 0.000941424 )  
( -0.000238035 0.00022417 -0.000223952 )  
( -0.000123294 0.000285498 3.17436e-05 )  
( 0.000243499 0.000258398 0.000619613 )  
( 0.000103198 0.000262426 4.66626e-05 )  
( 0.00141129 0.00164225 0.000648913 )  
( -0.000127125 -5.69796e-07 6.0363e-05 )  
( -6.65723e-05 0.000135594 0.000343965 )  
( 2.59939e-05 0.00040304 0.0004595 )  
( -0.000397832 2.78323e-05 0.000917222 )  
( -8.56348e-05 0.000289049 0.000782908 )  
( -7.93049e-05 -2.35496e-05 5.48928e-05 )  
( 0.000215288 0.000516009 0.000139114 )  
( -0.000150664 -3.07355e-05 -0.000122313 )  
( -0.000357192 8.38125e-05 0.000708709 )  
( -0.000508105 -0.000526556 1.26471e-05 )  
( -0.000172183 0.000226667 0.000382093 )  
( -0.000101898 -0.00021966 0.000460501 )  
( -0.000101801 0.000802368 0.000555126 )  
( -0.000294141 0.000282575 0.000884109 )  
( -0.000154001 0.000201069 0.000698774 )  
( 8.23091e-05 0.000270606 0.00022077 )  
( -0.000237264 4.18669e-05 0.000279942 )  
( 3.45819e-05 -8.37053e-05 0.000491142 )  
( -0.000313688 0.000300327 0.000624951 )  
( 0.000215692 0.000100002 0.000182206 )  
( -0.000103505 0.000471657 0.000633626 )  
( -6.94848e-05 0.000221932 0.000497081 )  
( 0.000519266 0.000992559 3.97295e-05 )  
( -2.96566e-05 0.000219966 6.24655e-07 )  
( 0.000318396 0.000692727 0.000984822 )  
( -0.000140816 -1.68472e-06 -0.000153906 )  
( 0.00026242 0.000326319 0.000488162 )  
( -5.37609e-05 0.000257385 -7.07268e-05 )  
( -0.000149816 0.00055132 0.000855504 )  
( 3.81636e-05 0.000130614 0.000347554 )  
( 0.000274365 -0.000193343 0.000671384 )  
( -0.000107212 0.000336512 0.000704573 )  
( 7.006e-06 0.000380229 0.000956332 )  
( 0.000180457 0.000351885 0.000257094 )  
( -8.50197e-05 0.000210727 0.000776112 )  
( 2.47269e-05 4.92378e-05 0.00051387 )  
( -0.000288512 0.000281219 0.000643532 )  
( 0.000576187 0.000465431 -3.4407e-06 )  
( 0.000189208 -0.000126145 4.64443e-05 )  
( 0.000424547 0.000371601 0.000852687 )  
( 0.000444515 0.00022384 0.000239157 )  
( -0.000310048 0.000115205 0.000609167 )  
( -1.07025e-05 0.000103917 6.6018e-05 )  
( -0.000229865 0.000168831 0.000422022 )  
( -1.38541e-05 0.000312696 0.000393356 )  
( 0.000298108 -1.11657e-05 0.000368626 )  
( -0.000243098 5.49167e-05 0.000199613 )  
( 1.71741e-05 0.000178637 8.25483e-05 )  
( 6.99057e-05 1.59675e-05 4.56721e-05 )  
( -6.64098e-05 4.49874e-05 0.000668856 )  
( 2.22922e-05 0.000128524 8.72862e-05 )  
( 4.21132e-05 -0.000109387 0.000626782 )  
( 8.22243e-05 8.3322e-05 8.68742e-05 )  
( 9.21962e-05 7.21121e-05 2.39394e-05 )  
( -3.03979e-05 5.95487e-05 0.000196415 )  
( 1.45447e-05 0.000249662 0.000555889 )  
( -6.25991e-05 9.23109e-05 7.78617e-05 )  
( -0.000282275 0.000334443 0.000555259 )  
( 3.76611e-05 3.7529e-05 -0.000138366 )  
( -7.6263e-05 0.000305269 0.000960986 )  
( -0.000616772 0.000592824 9.82484e-05 )  
( 0.00101766 -0.000188125 0.000945448 )  
( -0.000260403 0.000268073 0.000626064 )  
( -0.000265942 0.000332905 0.000791706 )  
( -0.000415147 0.000730011 0.00112796 )  
( -0.0002385 5.4843e-05 0.000522543 )  
( 0.000120077 0.000267356 0.000258214 )  
( -4.6598e-05 3.28766e-05 0.000402255 )  
( 0.000332122 0.000357457 0.000550702 )  
( -0.000170112 9.04839e-05 4.84325e-05 )  
( 0.000468187 0.000132129 0.00108166 )  
( 0.000255535 0.000369453 0.000444836 )  
( -0.000200943 0.000206896 0.000773987 )  
( 5.88641e-06 -0.000149118 0.000259793 )  
( 9.75614e-05 0.000463911 0.000264144 )  
( -0.000365035 0.000225088 0.000961384 )  
( -0.00038661 0.000328165 0.00058611 )  
( 0.000460483 0.00048287 6.2519e-08 )  
( 7.91331e-05 0.00011512 0.000385906 )  
( 0.000191436 0.000203325 9.70909e-05 )  
( -5.58396e-05 -2.88018e-05 -4.20826e-05 )  
( -0.000344144 0.000252783 0.000206326 )  
( 0.000210114 0.000482166 0.000499526 )  
( 2.10087e-05 0.000193744 0.000555337 )  
( 0.00061968 -0.000295031 9.21135e-05 )  
( 8.42422e-05 1.14197e-06 1.62477e-05 )  
( 0.00055316 0.000420354 0.00105934 )  
( 0.000263483 0.000359976 0.000523644 )  
( -0.000196215 -1.06502e-05 -0.00137731 )  
( 0.000182223 -1.68976e-05 0.000445929 )  
( 7.60686e-05 0.000228715 0.00103153 )  
( -0.000112913 1.25711e-05 0.000190877 )  
( -0.000126177 0.000105326 0.000700532 )  
( 9.40266e-05 7.43694e-05 0.000159947 )  
( 0.00013317 0.00024042 0.000571131 )  
( -7.68974e-05 4.91394e-05 0.000119466 )  
( -0.00048175 0.000194683 0.000326983 )  
( -4.34598e-05 0.000259411 0.00028138 )  
( 0.000112632 0.000252258 0.000776692 )  
( 0.000288344 8.2032e-05 1.29888e-05 )  
( -0.000111903 -4.32476e-05 0.000831465 )  
( -8.97475e-05 -2.89157e-05 0.00010442 )  
( -0.000208308 0.00102114 0.000729396 )  
( 0.000302485 2.60266e-05 0.000279488 )  
( 0.000103032 7.21495e-05 1.09106e-06 )  
( 9.27184e-05 0.000138022 0.000906026 )  
( -0.000598815 0.000143145 0.00087825 )  
( -2.12852e-05 0.000215519 -5.88016e-06 )  
( -0.000175536 -0.00010254 0.000304403 )  
( 0.000501004 0.000682582 0.000140827 )  
( -0.000181829 0.000201836 0.000332216 )  
( -0.000210119 0.00015699 1.29671e-06 )  
( 0.000178804 0.000161169 0.000585403 )  
( 0.000233648 0.000140315 0.000468852 )  
( 2.92812e-05 5.12551e-05 5.33178e-05 )  
( -0.000121014 0.000490633 0.000793688 )  
( -0.0001241 0.000222587 5.69979e-05 )  
( -9.567e-05 0.000228438 0.000923373 )  
( -1.43425e-05 0.000621304 5.63914e-05 )  
( 1.52755e-05 0.000119615 0.000750491 )  
( 0.00278204 -0.0004831 -3.34384e-07 )  
( 7.52468e-05 0.000265129 0.00053262 )  
( 2.1607e-05 4.3487e-05 3.36883e-05 )  
( 4.05529e-05 -1.33775e-05 0.000147893 )  
( 0.000106019 1.22104e-06 0.000313297 )  
( -6.74658e-05 0.00029319 0.000601509 )  
( 0.000107724 0.000318821 0.00044835 )  
( -5.95083e-05 1.66122e-05 7.57666e-05 )  
( 3.52543e-05 0.000144745 0.000387156 )  
( 0.000423684 1.75696e-06 -2.52069e-05 )  
( -0.000162229 0.000345609 0.000792415 )  
( 0.00016934 -4.856e-05 0.00052363 )  
( 0.000238747 -1.59429e-05 -6.26651e-05 )  
( -0.000385585 0.000230478 0.000114119 )  
( -0.000420671 0.000246775 0.000416148 )  
( -0.000219606 0.000144383 0.000381811 )  
( -1.39589e-05 0.000624996 0.000849141 )  
( 3.02696e-05 0.00043485 -0.000516673 )  
( 0.000348496 2.90036e-05 0.000506482 )  
( 0.00079565 0.00029502 -8.1471e-07 )  
( -9.40849e-05 0.000360026 0.000533396 )  
( -0.000578897 0.000512981 0.00070015 )  
( 0.00013609 0.000212942 0.000635026 )  
( 4.24049e-05 -4.84175e-05 4.16319e-05 )  
( -2.42779e-05 0.00063526 0.00126543 )  
( -0.00033203 -0.000417246 0.00122752 )  
( 0.000253108 -4.18668e-05 0.000465639 )  
( -0.000277437 6.94278e-05 -6.91916e-05 )  
( -0.000121988 -0.000325162 0.000879795 )  
( 0.000146296 -0.000202789 0.000219952 )  
( 5.5984e-05 3.06552e-05 -7.53516e-05 )  
( 4.99799e-05 0.000430413 0.000284067 )  
( -0.000289373 0.000204779 0.00061134 )  
( -0.000236521 0.000335278 0.000815157 )  
( -0.000278157 0.00045921 0.0004082 )  
( 0.000158112 0.000484052 0.00041718 )  
( -1.63152e-05 -7.83301e-05 0.000599413 )  
( -0.000157786 0.000267654 0.000748679 )  
( 0.000238582 0.000266142 7.36414e-05 )  
( -0.000123682 0.000485039 0.000447659 )  
( -0.00029823 -8.85953e-05 0.0006921 )  
( -0.000177517 0.000410952 0.00069377 )  
( -0.0004566 0.000479306 0.000645719 )  
( 0.000129434 0.000268168 0.000548546 )  
( -7.49388e-05 0.000190542 0.000607085 )  
( 7.65016e-06 3.86276e-05 5.55534e-05 )  
( 0.000260365 0.000155557 2.27085e-05 )  
( -0.000232817 0.000239529 3.84638e-05 )  
( -6.95435e-05 -1.16648e-05 0.000328421 )  
( -1.85012e-05 -0.000172439 0.000373146 )  
( -2.66152e-06 0.000191054 4.0192e-05 )  
( 0.000146034 0.000172429 0.000822807 )  
( -6.22884e-05 3.00414e-05 0.000350172 )  
( -0.00025341 -1.30656e-05 0.000415048 )  
( 6.27684e-05 -0.00012552 5.67386e-05 )  
( -0.000295132 0.000170967 0.000608735 )  
( 2.77997e-05 9.77231e-05 2.00485e-05 )  
( -0.000108537 -0.000194096 -0.000308841 )  
( 0.000254205 0.000270177 0.000147659 )  
( 0.000455963 0.000285635 0.000549377 )  
( -3.97803e-05 0.000485354 0.000605466 )  
( -2.76396e-05 0.000128821 3.42464e-05 )  
( -3.79539e-05 0.000174979 0.00023886 )  
( 0.000130313 1.82765e-05 0.000499443 )  
( -0.00144671 4.38677e-05 -7.32737e-05 )  
( 5.93222e-05 -0.000160721 -4.90378e-06 )  
( -0.000114987 0.000256181 0.000486138 )  
( -0.000226963 -0.000221601 0.000219927 )  
( 0.000309104 0.000157529 3.07725e-05 )  
( -0.000246073 0.000263972 0.000222041 )  
( -0.000276558 0.000553684 0.000475708 )  
( 3.00683e-05 0.000781495 0.000910921 )  
( 2.86387e-05 0.000105529 0.000969142 )  
( -0.000199068 0.000741188 0.000509262 )  
( -5.20913e-05 0.000416183 0.000510452 )  
( -0.000421597 0.00017588 0.000657045 )  
( 0.000364421 0.000159273 -3.52491e-05 )  
( 0.000204828 0.000231777 0.000239848 )  
( -1.0952e-05 2.78598e-05 0.000246194 )  
( -0.000282667 0.000236894 0.000291582 )  
( 3.48154e-05 -0.00032498 0.00115162 )  
( 4.31615e-05 0.00043395 0.000434552 )  
( 0.000112881 1.10062e-05 1.12057e-06 )  
( -0.000140593 0.000174277 1.98004e-05 )  
( -0.000154709 0.000446459 0.00088112 )  
( -4.68987e-05 -0.000116416 0.00010208 )  
( 0.000158956 -3.41492e-06 0.000638629 )  
( -0.000206527 1.64561e-05 0.00060383 )  
( -0.000229954 -0.000116457 0.000383827 )  
( -0.000104351 0.000593331 0.000893587 )  
( -0.000225523 0.000167003 0.000349616 )  
( 0.000206597 9.9978e-05 0.000397648 )  
( -8.06949e-05 0.000114546 4.07425e-05 )  
( 0.000301833 0.000255203 0.000317078 )  
( 1.7036e-05 -9.97172e-05 0.00023699 )  
( 0.000217101 -0.000131013 0.000404315 )  
( 7.79955e-05 0.000725979 0.000399873 )  
( 0.000722196 0.00261102 -0.00150077 )  
( 0.000130772 -4.89372e-05 0.000321763 )  
( -8.98882e-06 0.000230926 0.00033722 )  
( 0.000116837 0.000251736 4.33828e-05 )  
( -7.83046e-05 0.000277029 1.52722e-05 )  
( 1.39868e-05 1.82038e-05 6.44632e-05 )  
( 4.60054e-05 -4.23586e-05 -5.31019e-05 )  
( -9.53672e-05 0.000440625 0.000825489 )  
( -0.000143638 0.000269663 -0.000349593 )  
( -0.000121441 0.000102051 0.000717897 )  
( 0.000140585 -0.000134575 0.000581542 )  
( -1.46457e-05 0.000153606 0.000443074 )  
( -0.000363551 -7.06078e-05 0.000352218 )  
( 5.5852e-06 3.51878e-05 9.16219e-05 )  
( -0.000251018 0.000144272 0.000561264 )  
( -0.000292268 2.19753e-06 0.000476038 )  
( -0.000240644 0.000278758 5.44783e-05 )  
( 0.000154926 0.000571891 -0.000137198 )  
( 0.00025275 0.000207979 0.000116896 )  
( 5.94622e-05 4.71044e-05 0.000309751 )  
( -0.000145424 4.28141e-05 0.000260991 )  
( 4.71943e-05 0.000352301 0.000396275 )  
( 0.000197564 -1.14711e-05 5.49382e-06 )  
( -0.000269257 0.00027793 0.000527188 )  
( -0.000436431 3.09356e-05 0.000551165 )  
( 0.000188158 0.000307445 0.000406485 )  
( 0.000359354 -0.000367936 0.00045503 )  
( -0.000161216 0.000213788 0.000514045 )  
( -0.000288351 -3.76692e-05 0.000136717 )  
( -0.000319515 0.000295647 0.000919646 )  
( -8.90479e-05 -1.62141e-05 0.000701718 )  
( -0.000503662 1.08316e-05 0.000835072 )  
( -4.54145e-05 -8.66614e-05 0.000716365 )  
( 5.14894e-05 0.000381119 0.000598747 )  
( -0.000212373 5.6745e-05 0.00072414 )  
( -0.000316739 -0.000136189 0.000953154 )  
( 4.79212e-07 3.42241e-05 0.000248322 )  
( -0.000233037 -0.000159949 -5.01676e-05 )  
( -6.73531e-05 -0.000535449 0.000375705 )  
( -0.000528507 0.00038874 0.000638066 )  
( -0.000102592 0.000567978 0.0008073 )  
( -0.000214762 0.000140939 0.000379371 )  
( -0.000112621 -4.01568e-05 0.000218567 )  
( -0.000102863 0.00033989 0.00101919 )  
( -0.000393118 0.000470057 0.000149488 )  
( 0.000395916 0.000103045 0.000378504 )  
( 0.000895417 0.00166363 -4.04417e-06 )  
( 2.764e-05 0.00021787 0.000269625 )  
( -7.73796e-05 0.000289306 0.000376107 )  
( -0.000104932 0.000215912 0.000443513 )  
( 0.000124543 0.00036757 7.60188e-05 )  
( -1.5489e-05 0.000267231 0.000168386 )  
( -4.50436e-05 0.000181092 0.000491399 )  
( -0.000107706 0.000310595 0.000817898 )  
( 9.45484e-05 4.26507e-05 0.000850627 )  
( 2.03196e-06 -0.000165065 0.000355409 )  
( 0.000146567 0.00134706 0.000714531 )  
( -0.00014141 -0.000142191 0.000433688 )  
( 0.000100221 -0.000338144 0.000214893 )  
( -6.07917e-05 0.000578902 0.00162873 )  
( -0.000771943 0.000885537 0.000681472 )  
( -7.12873e-05 -5.16331e-05 -0.000219303 )  
( -0.000110566 0.000256509 0.00047371 )  
( -4.2439e-05 0.000203915 -1.86866e-05 )  
( 0.00010373 0.000199317 0.000394426 )  
( 0.000968936 0.00031641 -2.62129e-07 )  
( -7.73982e-05 9.31481e-05 0.000111422 )  
( -3.16852e-05 9.03106e-05 0.000343945 )  
( -2.63591e-05 1.35302e-05 2.24296e-05 )  
( -0.00115192 0.000152267 0.000654995 )  
( 0.000248981 -0.000514915 -8.35922e-06 )  
( 0.000284133 0.00014066 0.000466145 )  
( -0.000115675 0.000356541 0.000488804 )  
( -4.60684e-05 0.000138077 0.000417846 )  
( -0.000114714 0.000352554 6.67028e-05 )  
( 0.000127243 0.000211307 0.000473664 )  
( -0.000760083 0.000300767 1.61262e-05 )  
( -8.03943e-05 6.01932e-05 3.25687e-05 )  
( -1.12197e-05 1.84136e-05 0.000147007 )  
( -0.000231081 -0.000161525 0.000385763 )  
( 6.00556e-06 0.000615937 0.000314383 )  
( 7.25036e-05 9.08577e-05 9.20308e-05 )  
( -0.00197503 0.00357331 -0.00539465 )  
( -0.00018484 0.000416495 0.000545822 )  
( 5.06176e-05 -6.06527e-05 0.00022872 )  
( 0.00177381 -0.00158837 -3.41111e-07 )  
( -0.00182533 0.00063576 0.00189731 )  
( -8.52831e-05 -0.000193151 0.00113108 )  
( -0.000517784 0.000236844 0.000861487 )  
( -0.000140847 0.000123915 0.000302903 )  
( -0.000217513 0.000438089 0.000587123 )  
( 2.68447e-05 -1.14883e-05 0.00032261 )  
( -0.000152675 0.000287898 0.000453409 )  
( -0.00029302 0.000213481 0.000199325 )  
( -3.58865e-05 -0.000154062 0.000297945 )  
( -7.38818e-05 -7.66901e-05 0.000188618 )  
( 0.00125424 0.00134963 -0.00309661 )  
( -0.000234042 -2.25516e-05 1.5852e-05 )  
( -0.000174826 -0.000216704 0.000306799 )  
( -0.000485879 0.000238803 0.000950123 )  
( -0.000380269 0.000186236 0.000218411 )  
( 7.52285e-05 -1.51606e-05 8.31898e-05 )  
( -0.000126484 -0.000230198 -2.0775e-07 )  
( -0.000180543 0.000138374 0.000922337 )  
( 0.000245366 0.000303366 -6.59459e-06 )  
( 0.000163099 0.000263434 0.0010189 )  
( -0.000477974 3.29483e-05 0.000949812 )  
( 7.07914e-05 9.79973e-05 4.66246e-05 )  
( -6.9507e-05 0.00043054 0.000913843 )  