/*--------------------------------*- C++ -*----------------------------------*\
| =========                 |                                                 |
| \\      /  F ield         | OpenFOAM: The Open Source CFD Toolbox           |
|  \\    /   O peration     | Version:  2506                                  |
|   \\  /    A nd           | Website:  www.openfoam.com                      |
|    \\/     M anipulation  |                                                 |
\*---------------------------------------------------------------------------*/
FoamFile
{
    version     2.0;
    format      ascii;
    arch        "LSB;label=32;scalar=64";
    class       volScalarField;
    location    "0.007";
    object      Ksl;
}
// * * * * * * * * * * * * * * * * * * * * * * * * * * * * * * * * * * * * * //

dimensions      [1 -3 -1 0 0 0 0];

internalField   uniform 0;

boundaryField
{
    wall
    {
        type            zeroGradient;
    }
    outlet
    {
        type            cyclic;
    }
    inlet
    {
        type            cyclic;
    }
    procBoundary2to1
    {
        type            processor;
        value           uniform 0;
    }
    procBoundary2to3
    {
        type            processor;
        value           nonuniform List<scalar> 
256
(
0
0.0363565
1.59875
0
0
0
0
0
0
0
0
0
0
0
0
0
0
0
0
0
0
0
0
0
0
0.124568
0
0
0
0
0
0
0
0
0
0
0
0
0
0
0
0
0
0
0
3.64446
0
0
0
0
0
0
0
0
0
0
0
0
0
0
0
0
0
0
0
0
1.24367
0
0
2.3581
0
0
0
0
0
0
0
0
0
0
0
3.65378
0
0
0
0
0
0
0
0
0
0
0
0
0
0
0
0
0
0
0
0
0
0
0
2.39495
0
0
0.124674
0
0
0
0
0
0
0.124299
0
0
0.247281
0
0
2.88351
0
0
0
3.63843
0
0
0
0
0
0
3.6043
0
0
0
0
0
0
0
0
0
0
0
0
0.750367
3.51344
0
0
0.124345
4.10155
0
0
0
0
0
0
0
0
0
0
0
1.24901
0
0
0
3.51218
0
2.3803
0
0
0
0
0
0
0
0
0
0.12534
0
0
0
0
0
3.65929
0
0
0
0
0
0
0
0
0
0
0
0
0
0
0
0
0
0
0
0
0
3.65513
0
0
0
0
0
0
0
0
0
0
0
0
0
0
0
0
0
0
0
0
2.35857
0
0
0
0
0
0
0
0.50889
0
0
0
0
0
0
0
0
0
0
0
0
0
0
0
0
1.62243
0
0
0
)
;
    }
}


// ************************************************************************* //
