/*--------------------------------*- C++ -*----------------------------------*\
| =========                 |                                                 |
| \\      /  F ield         | OpenFOAM: The Open Source CFD Toolbox           |
|  \\    /   O peration     | Version:  2506                                  |
|   \\  /    A nd           | Website:  www.openfoam.com                      |
|    \\/     M anipulation  |                                                 |
\*---------------------------------------------------------------------------*/
FoamFile
{
    version     2.0;
    format      ascii;
    arch        "LSB;label=32;scalar=64";
    class       volScalarField;
    location    "0.007";
    object      p;
}
// * * * * * * * * * * * * * * * * * * * * * * * * * * * * * * * * * * * * * //

dimensions      [0 2 -2 0 0 0 0];

internalField   nonuniform List<scalar> 
512
(
0.749176
1.01447
0.309915
-0.333209
0.121718
0.783562
1.20858
-0.084959
-1.52654
-1.28506
-0.791217
-0.866254
-0.65877
0.113905
0.412238
0.35711
0.584606
0.786523
1.00307
0.989225
0.89525
1.13721
0.690854
-0.00651465
0.247337
0.702838
0.490964
0.590507
0.785842
0.558798
0.0414101
0.263622
0.567255
0.479105
0.139614
-0.164226
0.172452
0.762821
1.10698
-0.201412
-1.69345
-1.40337
-0.969073
-0.799377
-0.380319
0.239533
0.602473
0.602817
0.558655
0.592872
0.69684
0.934138
1.05153
1.15214
0.419697
-0.0753361
0.519893
0.935797
0.649258
0.672691
0.683372
0.534272
0.603895
0.769778
0.0882256
0.34333
0.604616
0.213525
0.2706
0.832796
1.09085
-0.277352
-1.53121
-1.14846
-0.628521
-0.638088
-0.646172
-0.124929
0.685658
0.942581
0.510132
0.237239
0.49027
0.921689
1.03348
0.978195
0.417954
0.0736472
0.518341
0.490691
0.496562
0.918615
0.849659
0.773116
0.928097
0.611486
0.224064
0.530198
0.721523
0.352767
0.10406
0.585113
1.02343
0.180227
-1.16699
-1.91221
-1.53631
-0.496565
0.0147353
0.0121566
0.126614
0.551188
0.510813
0.259443
0.757445
0.98618
0.85487
0.580025
0.294071
0.247211
0.129074
0.287277
0.864907
1.11924
0.960951
0.783161
0.833465
0.499155
0.584278
0.316735
0.60246
0.653304
0.229371
-0.0934507
0.00266919
-0.203625
-0.947446
-1.59271
-1.29895
-0.578429
-0.367631
-0.0655682
0.374465
0.549226
0.437634
0.610553
0.960519
1.01508
0.781241
0.588283
0.411475
0.651499
0.642714
0.605638
0.844145
0.940329
0.774112
0.657757
0.761523
0.78308
0.312223
0.325083
1.05533
1.57094
0.804086
-0.405789
-0.951629
-1.08209
-1.05082
-0.962883
-0.800023
-0.709198
-0.528269
0.239373
0.338891
0.0410709
0.516819
0.948056
0.951351
0.951369
0.813165
0.325751
0.123984
0.608044
0.661539
0.427338
0.658053
0.995648
1.2332
1.26732
0.707131
0.27534
0.103595
0.2181
1.30066
1.28937
0.498007
-0.488513
-1.17072
-0.883379
-0.512992
-0.551714
-1.08425
-1.5353
-0.699896
0.356475
1.00805
0.767714
0.438739
0.835707
1.29037
1.07706
0.668544
0.155521
0.146952
0.315362
0.113831
0.697687
1.12447
0.984862
0.837792
1.06187
0.889341
0.601158
0.00364458
-0.292147
0.924126
1.45578
0.866276
-0.0517318
-0.731753
-0.735913
-0.470431
-0.838639
-1.58137
-1.60628
-0.439118
0.619739
0.914791
0.46304
0.0389166
0.650223
1.39898
0.823315
0.124317
0.0739769
0.0306585
0.297229
1.05739
1.22395
1.00959
0.861379
0.868459
1.04583
1.18187
0.871213
0.785867
0.640251
0.0579758
-0.0264904
0.71247
1.29729
0.893801
-0.527695
-1.79755
-1.55863
-0.721001
-0.370377
-0.470441
0.00653456
0.631887
0.457479
0.380325
0.509467
0.382501
0.789877
0.956393
0.68838
0.186496
0.14039
0.40455
0.469735
0.432531
0.994751
1.41109
0.85477
0.298306
0.481266
0.599752
0.27685
0.0593247
0.312556
0.842262
1.30477
0.779133
-0.82642
-1.71971
-1.38128
-0.890602
-0.554258
-0.326326
0.142609
0.547128
0.724867
0.784062
0.512416
0.456457
0.88909
0.883267
0.74987
0.403162
0.16396
0.426681
0.809557
0.659515
0.604937
0.818316
0.68968
0.554487
0.589284
0.203005
0.452433
0.886579
0.662507
0.577461
1.07194
0.945237
-0.478231
-1.75895
-1.35539
-0.666508
-0.58125
-0.584631
-0.0400576
0.0443941
0.235915
0.481884
0.395778
0.697782
1.05464
1.02341
0.645519
0.10408
0.106741
0.344111
0.442037
0.720462
0.920868
0.896526
0.903185
0.960077
0.661989
0.657408
0.877373
0.668961
0.0654065
0.227518
0.804464
0.9693
0.132625
-1.07071
-1.72128
-1.59495
-0.754646
-0.29859
0.0351674
0.132239
0.2509
0.660671
0.73491
0.835181
0.986864
0.950848
0.495198
0.123958
0.403515
0.522204
0.526153
0.565861
0.644988
0.870549
0.967658
0.736818
0.56094
0.62698
0.620795
0.606871
0.644833
0.531316
0.379213
0.134063
-0.428746
-0.908725
-1.0704
-1.00817
-0.932903
-0.128797
0.239841
0.431022
0.593245
0.410617
0.40506
0.874559
0.871845
0.72438
0.418768
0.164225
0.634269
0.788977
0.59821
0.4854
0.854601
0.92841
0.605585
0.66958
0.712911
-0.153252
-0.107217
0.770472
1.30869
0.724231
-0.109501
-0.644219
-0.650502
-0.256456
-0.36618
-0.926724
-1.1666
-0.263718
0.523336
0.461908
0.359885
0.391196
0.634403
0.663548
0.476352
0.765486
0.576236
0.00540628
0.355353
0.782853
0.624485
0.93055
1.15206
1.14366
1.06191
0.882148
0.592511
0.0556393
-0.192408
0.841456
1.3554
0.362604
-0.519902
-0.621439
-0.496847
-0.566002
-0.662738
-0.902952
-0.949368
-0.586146
0.626817
1.1802
0.669863
0.517455
0.538226
0.683956
0.580923
0.469948
0.261672
0.245992
0.30155
0.325727
0.634265
0.820632
1.15823
1.29987
1.02558
0.787581
0.801653
-0.114946
-0.354638
1.08367
1.36127
0.269089
-0.446806
-0.612938
-0.488336
-0.7009
-1.08308
-1.05906
-0.746623
-0.322694
0.706663
0.919437
0.47956
0.404493
0.410361
0.667267
0.628916
0.228137
0.0378528
0.553806
1.07507
0.808656
0.825545
0.871671
1.22367
1.43038
0.999855
0.927677
0.966275
)
;

boundaryField
{
    wall
    {
        type            zeroGradient;
    }
    outlet
    {
        type            cyclic;
    }
    inlet
    {
        type            cyclic;
    }
    procBoundary2to1
    {
        type            processor;
        value           nonuniform List<scalar> 
256
(
0.588245
1.19932
0.929454
-0.000941884
-0.539186
-0.776365
0.0640055
0.258373
-0.423501
-0.791786
-1.01736
-1.45783
-0.652405
0.500413
1.19194
0.509473
-0.31471
0.265569
1.00188
1.03536
1.22514
1.07014
0.355055
0.368364
0.832842
0.775799
0.560008
0.442221
0.0376508
-0.0121565
0.564488
0.736976
0.382659
0.976626
0.982067
0.176249
-0.359015
-0.6613
0.0533825
0.198843
-0.458535
-0.938465
-0.893905
-0.919712
-0.804692
0.173417
0.833467
0.471699
-0.167051
0.143034
0.66851
0.904418
1.28181
1.31073
0.486172
0.155741
0.792772
0.973227
0.766266
0.692216
0.238993
-0.0317865
0.544164
0.698449
0.232501
0.681283
0.829405
0.526982
0.138923
-0.291793
0.469749
0.119897
-1.00199
-1.04758
-0.808898
-0.892295
-0.655759
0.0687458
0.438589
0.303137
0.513168
0.546901
0.397829
0.533453
1.08684
0.987601
0.529182
0.800295
0.703606
0.401091
0.428041
0.916002
0.750852
0.348476
0.636728
0.527563
-0.118614
0.421337
0.782633
0.62318
0.312685
0.45078
0.73551
-0.184602
-1.22358
-1.68344
-1.03903
-0.495354
-0.280585
-0.384518
-0.17743
0.38236
0.770374
0.636247
0.481449
0.775147
0.992496
0.698621
0.564811
0.709094
0.677315
0.511423
0.376783
0.882586
1.25623
0.920053
0.825826
0.329421
0.527633
0.308498
0.466032
0.666957
0.68857
0.507395
0.136701
-0.847019
-1.57378
-1.37393
-0.86831
-0.582409
-0.287314
-0.121438
-0.0458743
0.0698575
0.567881
0.87004
0.864706
0.828748
0.785641
0.611786
0.355281
0.549206
0.956774
0.856416
0.788478
0.801527
1.01866
0.924805
0.683129
0.691584
0.338927
0.231923
0.920154
1.51049
1.26889
0.196217
-0.80023
-1.39968
-1.33273
-0.922657
-0.843262
-1.04034
-0.935216
-0.459389
-0.0153581
0.358716
0.943934
1.08569
1.03152
1.15516
1.15272
0.565973
-0.0382465
0.187981
0.755755
0.925434
0.734357
0.657759
0.89678
1.11075
0.912837
0.561167
0.00318517
0.139401
1.24134
2.02948
0.856924
-0.50971
-1.23601
-0.991057
-0.887351
-0.964903
-1.07288
-1.39634
-1.08178
-0.0293981
0.408825
0.340772
0.482796
0.701316
1.15005
1.63052
1.28776
0.574969
-0.0169529
0.0636971
0.723875
1.13915
1.18927
0.612606
0.164351
1.18147
1.56582
0.748653
-0.0580237
-0.190515
0.656073
1.45597
0.750167
-0.121149
-0.471559
-0.67838
-0.918043
-1.17581
-1.27848
-1.28851
-0.603498
0.336968
0.705475
0.616543
0.267038
0.231525
0.982826
1.31083
0.696108
0.137866
0.195666
0.491204
0.995023
1.43379
1.128
0.363808
0.275938
1.05168
1.42312
0.781843
)
;
    }
    procBoundary2to3
    {
        type            processor;
        value           nonuniform List<scalar> 
256
(
0.70184
0.769281
0.439059
0.381739
1.16809
1.22471
0.390699
-0.65311
-1.73172
-1.74576
-1.08016
-0.392284
-0.207381
-0.225421
0.330433
0.53965
0.547732
0.595313
0.504169
0.865022
1.02239
0.706496
0.436666
0.281695
0.460532
0.533723
0.576221
1.07712
1.28009
0.66799
0.154786
0.420973
0.733969
0.491509
0.376401
0.475669
0.874938
1.15654
0.0164717
-1.31002
-1.43487
-1.17716
-0.949826
-0.208819
0.208399
0.277782
0.304496
0.37835
0.652134
0.811874
0.456095
0.603542
0.818517
0.813108
0.579638
0.184138
0.207856
0.434106
0.69508
1.06626
0.998564
0.585495
0.266863
0.524828
0.769016
0.794117
0.885568
0.484434
0.515225
1.01704
0.404841
-0.725549
-1.52714
-1.60632
-0.863082
0.0933672
0.149445
-0.237256
-0.347722
0.275826
0.617544
0.332951
0.350548
0.544466
0.758158
0.741438
0.456699
0.616571
1.03712
0.74611
0.288741
0.400696
0.778588
0.847197
0.491576
0.596686
0.475332
0.71627
0.550365
0.255868
0.457925
0.770103
0.264176
-0.44863
-1.00641
-1.3626
-1.08324
0.0636608
0.37392
-0.0169265
-0.284356
-0.210527
0.377824
0.745747
0.764774
0.757262
0.873657
0.624573
0.239277
0.601787
0.999179
0.680672
0.275026
0.627563
1.05492
1.07178
0.429099
-0.0406593
0.848935
0.651764
0.378018
0.684463
0.926655
0.721829
0.173453
-0.617138
-1.12147
-1.25618
-1.28916
-0.385318
0.187602
0.0820248
0.174026
0.215376
0.166609
0.483758
0.778089
0.759286
0.716501
0.445473
0.231189
0.635336
0.774433
0.607052
0.674558
0.797571
0.684151
0.498561
0.549337
0.758857
0.695957
0.373345
0.5934
0.816256
0.698001
0.590234
0.205327
-0.808861
-1.29678
-0.825434
-0.719368
-0.739764
-0.213075
0.297368
0.316005
0.135313
0.145104
0.58143
0.805281
0.842978
0.919121
0.575633
0.0322615
0.36808
0.842595
0.603621
0.7638
0.902618
0.817545
0.539137
0.255683
0.757451
0.560344
0.407411
0.447272
0.560098
0.132472
0.00570789
0.256502
-0.435058
-0.890877
-0.592182
-0.667632
-0.777571
-0.13278
0.550364
0.404185
-0.32452
-0.383834
0.207137
0.432034
0.824284
1.18413
0.979168
0.487193
0.47771
0.47314
0.171743
0.724357
1.10328
0.89538
0.804913
0.726825
0.672175
0.332896
0.366785
0.709394
0.675717
0.19263
-0.174108
-0.314844
-0.489379
-0.467341
-0.397123
-0.551211
-0.761177
-0.0925674
0.836087
0.567933
-0.202694
-0.522145
0.066717
0.551686
0.878591
0.791665
0.541054
0.534934
0.674307
0.291772
0.40622
1.09883
1.2089
0.902832
0.743684
0.877095
0.699498
)
;
    }
}


// ************************************************************************* //
