/*--------------------------------*- C++ -*----------------------------------*\
| =========                 |                                                 |
| \\      /  F ield         | OpenFOAM: The Open Source CFD Toolbox           |
|  \\    /   O peration     | Version:  2506                                  |
|   \\  /    A nd           | Website:  www.openfoam.com                      |
|    \\/     M anipulation  |                                                 |
\*---------------------------------------------------------------------------*/
FoamFile
{
    version     2.0;
    format      ascii;
    arch        "LSB;label=32;scalar=64";
    class       volVectorField;
    location    "0.007";
    object      U;
}
// * * * * * * * * * * * * * * * * * * * * * * * * * * * * * * * * * * * * * //

dimensions      [0 1 -1 0 0 0 0];

internalField   nonuniform List<vector> 
512
(
(9.94378 -0.0432169 -0.0775208)
(9.92075 -0.0131847 -0.0651313)
(9.96175 0.0241867 0.00110902)
(10.0328 -0.0130809 0.0761595)
(10.0146 -0.0147539 0.0622258)
(9.9925 -0.00667781 -0.107342)
(9.84715 -0.0122202 -0.133742)
(9.8446 -0.02089 -0.101964)
(10.0613 -0.00627313 0.0200111)
(10.0135 -0.00298998 0.0640013)
(9.93894 0.0189146 0.0652918)
(10.0233 0.0227353 -0.00253603)
(10.0542 0.0116411 -0.0496525)
(10.0017 0.0251498 -0.0253667)
(10.0033 0.0363543 -0.0014944)
(10.0354 -0.00956164 0.0290466)
(10.0316 -0.00537082 0.00461747)
(9.98099 -0.036923 -0.0672531)
(9.92913 -0.0224856 -0.0333424)
(9.89026 0.010425 0.00237145)
(9.88701 0.00951329 0.0347455)
(9.88701 -0.0225562 -0.0198908)
(9.94097 -0.00686131 -0.0613291)
(10.018 0.00999156 -0.0650257)
(9.97002 0.0072277 -0.00280039)
(9.96424 0.00603633 0.0114517)
(10.0377 0.00617102 -0.0077731)
(9.99789 0.00663152 0.0322778)
(9.90968 -0.0251554 0.0655365)
(9.98591 0.0094449 0.0532696)
(10.04 0.0545408 0.0613441)
(10.0343 -0.0174955 0.02032)
(10.0369 -0.00296827 -0.0160216)
(10.0408 0.0726359 -0.0293938)
(10.082 0.0809034 0.00226439)
(10.178 -0.0369816 0.0877966)
(10.1932 -0.0395654 0.096891)
(10.1654 -0.0250392 -0.0482983)
(9.94687 -0.0297651 -0.0978211)
(9.94854 -0.0391227 -0.0590824)
(10.1943 -0.00364472 0.0179645)
(10.1708 0.00560184 0.0214418)
(10.1262 0.0196573 0.0312379)
(10.1612 -0.00343035 0.015765)
(10.1386 -0.00675351 -0.0294129)
(10.1033 0.0547181 -0.0425062)
(10.1223 0.0461282 0.0145703)
(10.1295 -0.0304971 0.0514041)
(10.1466 -0.0267929 0.00520641)
(10.1645 -0.0345879 -0.033354)
(10.127 -0.0207657 -0.0251501)
(10.0984 -0.00562461 -0.0312659)
(10.1041 -0.0130133 -0.0172134)
(9.97839 -0.0281988 0.0462043)
(10.0371 -0.0139325 0.0122596)
(10.1573 -0.0150026 -0.0488906)
(10.1005 -0.0323425 -0.00526843)
(10.0876 -0.0161829 -0.00373429)
(10.1271 0.019534 -0.0456195)
(10.1101 0.0125385 0.0148669)
(10.1074 -0.000627413 0.0538238)
(10.1018 0.0123483 0.0230049)
(10.0307 0.0398628 0.00578982)
(10.0295 -0.0072034 0.0312932)
(10.0935 0.0288307 -0.0169396)
(10.054 0.066153 0.0232454)
(10.1094 0.0318038 0.035993)
(10.2082 -0.0129519 0.0292049)
(10.2264 -0.00665911 0.0504342)
(10.1663 0.00574038 -0.043323)
(9.93276 0.0212327 -0.08341)
(9.92321 -0.00818898 -0.0613972)
(10.1772 -0.0495317 0.0138529)
(10.1461 -0.0170751 0.0293438)
(10.0475 0.0449155 0.0125961)
(10.1412 0.0619723 0.00283747)
(10.244 0.0369016 -0.0122614)
(10.2206 -0.0233182 -0.0379619)
(10.0689 -0.01028 -0.00827217)
(9.97518 -0.000734343 -0.0111733)
(10.078 -0.0269713 -0.0249889)
(10.1495 -0.036426 -9.6454e-05)
(10.1166 -0.0169468 0.0189417)
(10.1072 -0.0273366 -0.00433994)
(10.0213 -0.0262742 -0.000716448)
(10.0007 0.0224213 0.00605059)
(10.0791 0.00738047 -0.0190366)
(10.1274 -0.0508995 -0.0415252)
(10.1351 -0.0376234 -0.0249249)
(10.1536 0.0122557 0.00750794)
(10.1251 0.059199 -0.0124634)
(10.0837 0.0343928 0.0218413)
(10.0932 -0.00960123 0.0688668)
(10.0903 -0.0300937 0.0521289)
(10.0106 -0.073431 0.028831)
(10.0498 -0.039484 -0.0129607)
(10.1475 -0.0104387 -7.31229e-06)
(10.1485 -0.0633545 0.0128992)
(10.076 0.0292212 0.000481388)
(10.1144 0.0130823 0.00407352)
(10.1581 -0.0520773 -0.020163)
(10.1622 -0.0637082 -0.0337675)
(10.0151 0.00970648 0.0147074)
(10.0054 -0.00694069 0.0195339)
(10.0134 -0.0766751 0.00416548)
(10.191 -0.0389503 0.0606398)
(10.2124 0.0543385 0.0261103)
(10.1873 0.0247643 -0.0137649)
(10.134 -0.0160789 -0.00676104)
(10.0773 0.00162147 0.0022504)
(10.0685 0.0265347 -0.00252612)
(10.0768 0.020508 -0.00213937)
(10.1104 0.00392481 0.00452604)
(10.17 -0.00310094 -0.00231565)
(10.1499 -0.00600396 -0.0122847)
(10.13 0.0139177 -0.0424806)
(10.0628 -0.0617495 -0.000358724)
(10.0689 -0.0427301 -0.00362581)
(10.1205 0.046064 -0.030023)
(10.1124 0.0400849 -0.0293207)
(10.1236 0.020726 0.000578373)
(10.0997 0.016665 -0.00691473)
(10.1233 -0.0328035 -0.00873089)
(10.1083 -0.029335 0.00570493)
(10.0162 -0.0533188 0.0230454)
(10.0882 -0.0714236 0.0294653)
(10.1186 0.0383916 0.0415729)
(10.1255 0.0919092 0.00742846)
(10.0796 0.0921213 -0.0262781)
(10.07 0.0829094 0.0179046)
(10.0469 0.0600497 0.0327797)
(10.0551 0.053373 -0.00271479)
(10.072 -0.0432978 -0.0241078)
(10.0962 -0.106722 -0.00552787)
(10.1426 -0.0432174 0.0153789)
(10.034 0.0680064 0.0153563)
(9.97676 0.0623178 -0.0263267)
(10.1961 -0.000268832 0.00830438)
(10.2285 -0.0357808 0.00435334)
(10.1673 -0.0288704 -0.0198784)
(10.119 0.051543 -0.00781441)
(10.0781 0.0346299 0.0288601)
(10.0275 -0.017495 0.0115171)
(10.0277 -0.00686089 -0.00806886)
(10.1295 0.0181576 -0.00602233)
(10.1568 -0.00837772 0.00853703)
(10.1085 -0.0314077 0.0103914)
(10.086 -0.0238886 0.00571817)
(10.0894 -0.0199544 -0.0194839)
(10.085 -0.000970906 -0.020835)
(10.126 0.0267719 -0.0182963)
(10.1335 0.0204883 -0.0333702)
(10.1268 0.0075474 -0.0394977)
(10.1193 -0.000267862 -0.029593)
(10.0715 0.0100338 -0.00640916)
(10.0615 -0.0181368 -0.015776)
(10.0754 -0.0357432 -0.00106717)
(10.1115 -0.0849772 0.0368503)
(10.1327 -0.0655884 0.0397912)
(10.1089 0.0239587 -0.00696273)
(10.0974 -0.0247169 0.00245694)
(10.1709 0.0932674 -0.0120504)
(10.1005 0.065115 -0.0365564)
(9.9808 0.044281 -0.0252821)
(9.99179 -0.00189938 0.0157218)
(10.0487 -0.0737557 0.0645124)
(10.0827 -0.0204826 0.0646525)
(10.0947 0.0622354 0.0184441)
(10.1129 0.0349973 -0.0382644)
(10.1555 -0.0414765 -0.0188488)
(10.1541 -0.0614491 0.0192879)
(10.143 -0.0169886 0.0350309)
(10.1269 0.0688093 0.00963052)
(10.0843 0.0595925 -0.00737481)
(10.0789 0.00404398 -0.0139196)
(10.169 -0.017797 -0.0243205)
(10.1617 0.0107341 -0.00689862)
(10.1489 0.0259518 0.0138804)
(10.0725 -0.0334836 -0.0338664)
(10.0515 -0.0360952 -0.0344673)
(10.0434 0.0114332 -0.0237398)
(10.0976 0.012156 -0.0242726)
(10.1225 -0.0299689 0.00768544)
(10.0958 -0.0365264 -0.00124861)
(10.104 -0.00196266 -0.0251748)
(10.1275 0.0351479 -0.0266288)
(10.0712 0.0147207 0.0227475)
(10.0872 0.0126867 0.0158762)
(10.1052 0.0423542 0.0017627)
(10.0717 0.00953384 0.000576191)
(10.0891 -0.0577652 0.0252078)
(10.0809 -0.100234 -0.0133128)
(10.1127 -0.0362558 0.0135215)
(10.1781 0.023443 -0.011312)
(10.0658 -0.00399721 -0.0180639)
(10.0141 -0.0125213 0.0103387)
(10.0384 0.00488583 0.0464543)
(10.0465 -0.00959204 0.0502665)
(10.1048 0.0135591 0.0218823)
(10.1135 0.00954066 0.00272253)
(10.0936 -0.0240338 -0.00375991)
(10.1094 -0.0431093 0.0177292)
(10.1763 -0.0365904 0.0558266)
(10.2243 0.0310605 0.0366257)
(10.1994 0.00220543 0.0292046)
(10.1527 0.0298443 0.0393345)
(10.0002 0.00709096 -0.0152592)
(9.96717 -0.0237122 -0.0285078)
(10.0772 0.0279113 -0.00444889)
(10.1083 0.0634928 0.0111163)
(10.0524 -0.0112157 -0.00945475)
(10.0351 -0.0597043 -0.000928802)
(10.0613 -0.0331196 0.0191256)
(10.0976 0.0137611 0.0177249)
(10.1069 -0.0185832 -0.01415)
(10.1234 -0.019434 -0.030142)
(10.1394 0.0305589 -0.0140261)
(10.1063 0.0154593 -0.0497234)
(10.1048 -0.00326035 -0.0136865)
(10.1167 -0.0153474 0.0851504)
(10.1383 -0.00632931 0.0204961)
(10.1 0.0439423 -0.120355)
(10.0932 0.0191025 -0.0564095)
(10.0369 -0.0771975 0.0297389)
(10.0656 -0.00632086 0.000944119)
(10.089 0.027462 0.0383107)
(9.94281 0.0289136 0.020836)
(9.919 0.0195774 0.00518689)
(9.93407 0.0129588 0.00863182)
(9.91529 0.00773513 0.0202924)
(9.96119 0.0276765 0.018926)
(10.0027 0.0226681 -0.0214575)
(9.94225 -0.0021807 -0.0245091)
(9.87947 -0.00578181 0.0157041)
(10.0271 0.00932819 0.0255268)
(10.0857 0.0210206 0.012748)
(10.0632 0.00655984 0.0220763)
(10.0015 -0.0323317 -0.0427527)
(9.94749 -0.020022 -0.0177751)
(9.97431 0.000443891 0.0310213)
(10.0407 -0.00385413 0.019333)
(10.0373 -0.00841436 0.00565074)
(9.91823 -0.0545173 0.00453272)
(9.90885 -0.0536403 0.031227)
(9.99538 -0.0185269 -0.0361891)
(10.0043 -0.0184797 -0.031866)
(10.0137 -0.00702984 0.0142875)
(10.0115 0.0433284 -0.0124669)
(9.99302 0.0296799 -0.0150951)
(9.9531 -0.0300518 -0.0434878)
(9.92396 -0.0171337 0.020377)
(9.90487 0.0340831 0.0934799)
(9.95798 0.00390884 0.00510252)
(9.95697 -0.0121159 -0.0370896)
(9.9267 -0.0101187 -0.000555711)
(9.94096 -0.0163131 0.00674159)
(10.02 0.000961406 -0.00894563)
(9.87644 -0.02998 -0.00873282)
(9.93385 -0.032689 0.0242811)
(10.005 -0.0154774 0.0411434)
(10.042 0.00369276 -0.00191053)
(9.85449 -0.016883 -0.167866)
(9.80188 -0.0180816 -0.0876597)
(9.84636 -0.0137023 0.0835674)
(10.0214 -0.000124838 0.0313758)
(10.0208 -0.005961 0.0323571)
(9.96588 0.00975205 0.0505001)
(9.97148 0.0229989 0.0266529)
(9.99832 -0.000494878 -0.0469771)
(9.96044 -0.00238645 -0.0510753)
(9.93953 0.0304475 0.000797506)
(9.97148 0.0314654 0.00440899)
(9.9935 -0.0315428 -0.0245441)
(10.0004 -0.0166188 -0.0316458)
(10.0059 0.0238693 -0.0192021)
(9.92879 0.0163262 0.0159789)
(9.91348 0.0268069 0.0104987)
(9.91012 0.00828864 0.0244449)
(9.99462 0.00260272 0.0175327)
(9.99998 0.00927777 -0.00326658)
(9.9881 0.0379645 -0.0228498)
(10.0125 0.00670827 -0.014581)
(10.0482 -0.0433436 0.014585)
(9.97116 -0.0379419 0.0241172)
(9.82532 -0.0665165 0.0213443)
(9.92697 -0.0415156 0.0385505)
(10.0281 0.0294603 0.0691382)
(10.0618 0.00992299 0.024911)
(10.136 -0.0213531 -0.0227093)
(10.173 0.0765844 -0.00812537)
(10.1611 0.0868317 0.0137888)
(10.1191 -0.0190217 0.00493172)
(10.1625 -0.0211921 -0.0241008)
(10.0466 0.00595421 -0.0995522)
(9.96128 -0.0117229 -0.0575826)
(10.0522 -0.0539254 0.068304)
(10.1826 0.00452647 0.0526624)
(10.1613 0.00556065 0.0292712)
(10.1172 -0.0237205 0.0473988)
(10.1112 -0.0194207 0.0376236)
(10.1342 -0.0265166 -0.0173851)
(10.1323 -0.0381052 -0.0270615)
(10.1201 0.0177966 -0.0265002)
(10.0642 0.0158743 0.0107563)
(10.037 -0.0138614 0.0153765)
(10.0877 -0.00172289 -0.0113079)
(10.1348 0.0197283 0.0132513)
(10.1217 0.0164448 0.0149238)
(10.0893 0.0253939 0.0226992)
(10.0477 -0.0035983 0.0292709)
(10.1048 -0.00513297 -0.0144346)
(10.1205 -0.00937963 -0.0363775)
(10.082 0.0219741 -0.0278022)
(10.0948 0.0389579 -0.00993294)
(10.1233 -0.0160028 -0.00540962)
(10.079 -0.0363787 0.0247828)
(10.0695 -0.0264845 0.0484482)
(10.1264 0.0139047 0.0195547)
(10.123 0.0132069 0.0112465)
(10.0992 -0.0202982 0.0121101)
(10.1706 -0.00655816 0.0348249)
(10.1715 0.0513801 -0.0140396)
(10.1685 0.0696322 -0.00150674)
(10.1431 -0.0113616 -0.00786594)
(10.1395 -0.0334017 0.00362446)
(10.0524 0.0505611 -0.0807322)
(9.99154 0.0425021 -0.0246337)
(10.0071 -0.0146323 0.0561062)
(10.1743 -0.0503171 0.00730179)
(10.1318 -0.0055585 -0.0149391)
(10.0966 0.0179044 0.0205682)
(10.1128 -0.00897001 0.021606)
(10.1519 -0.01375 -0.0416563)
(10.1454 -0.0203785 -0.0563968)
(10.1096 -0.0208297 -0.0017454)
(10.07 0.0151571 0.0122781)
(10.1 0.0254128 -0.0253386)
(10.1339 0.0129266 -0.0568421)
(10.116 -0.0317904 -0.0730889)
(10.0593 -0.0128383 -0.0330879)
(10.0207 -0.0329947 0.0302693)
(10.0611 -0.0157523 0.0221179)
(10.1723 0.04186 0.0361302)
(10.1538 0.0261306 0.0308717)
(10.1052 -0.0103812 0.0179051)
(10.1184 0.0083287 -0.0219432)
(10.0817 -8.38292e-05 -0.0399848)
(10.0488 -0.00735127 -0.010047)
(10.083 0.0148044 0.0281442)
(10.1178 -0.0133962 0.016553)
(10.1116 -0.0171295 0.0281684)
(10.1023 -0.0308012 0.0652353)
(10.1629 -0.0129491 -0.00372325)
(10.0697 -0.0285887 -0.0204331)
(10.0725 -0.00238072 -0.00460745)
(10.1658 -2.13926e-05 -0.00755391)
(10.1458 -0.0492253 -0.0208437)
(10.0966 -0.0303964 -0.0763396)
(10.0111 0.0137984 -0.0326207)
(10.0324 0.0304741 0.0646756)
(10.0304 0.00232077 0.0535782)
(10.1704 -0.0272721 0.048699)
(10.2061 0.0052204 0.0307321)
(10.1591 -0.0035034 0.000760704)
(10.0983 0.0517236 -0.0180061)
(10.1064 0.0629906 -0.010117)
(10.1473 0.0393807 -0.0146064)
(10.1235 -0.0126575 0.00761242)
(10.119 -0.00997087 0.0209458)
(10.1337 -0.0062883 0.00392039)
(10.1303 -0.00610728 -0.0106363)
(10.1259 -0.00105054 0.0205571)
(10.0583 -0.0266614 0.036473)
(10.0585 -0.0114185 0.00246479)
(10.1588 0.0304466 0.0047946)
(10.1511 0.0218634 0.0126362)
(10.0651 -0.010038 -0.000650901)
(10.0718 -0.0150024 -0.0560218)
(10.0982 -0.00770324 -0.0570936)
(10.089 -0.0229689 0.00783322)
(10.0954 -0.00806484 0.0279173)
(10.0894 0.00899963 -0.00584466)
(10.1165 0.017415 -0.0203989)
(10.1504 0.0123166 0.00553501)
(10.1308 -0.0158028 0.0361633)
(10.1153 0.0250654 0.0196981)
(10.0828 0.0914411 0.00437759)
(10.0834 0.0287087 0.0172296)
(10.0841 -0.0857663 0.0284711)
(10.0378 -0.0587696 -0.0525755)
(10.0428 -0.026582 -0.0786749)
(10.0611 0.0927922 0.0233117)
(10.0914 0.0553854 0.061089)
(10.1115 -0.00869005 -0.013405)
(10.1859 -0.021446 -0.00948953)
(10.2114 0.0398986 0.0736111)
(10.1892 0.0446933 0.0458023)
(10.1368 -0.00751878 -0.0209886)
(10.0711 -0.0485466 -0.0386574)
(10.0697 -0.0537438 -0.0545178)
(10.1481 -0.0362045 -0.0355516)
(10.1663 -0.00840995 -0.0096495)
(10.1267 -0.0102077 -0.0276771)
(10.0883 -0.017464 -0.0205687)
(10.0708 0.00772149 -0.0108299)
(10.087 0.0236124 -0.00781208)
(10.1459 0.00837798 -0.0109022)
(10.1226 0.00320912 -0.00798743)
(10.0644 -0.0230806 0.0112755)
(10.0865 0.00416358 0.00187568)
(10.1193 0.0392007 0.00718313)
(10.0902 0.00791306 -0.0235984)
(10.0968 0.00918149 -0.0080788)
(10.1117 0.00445689 0.0406005)
(10.0772 0.0190736 0.0410518)
(10.1181 -0.0110861 0.038486)
(10.2329 -0.00468562 0.0157942)
(10.2163 0.0545663 -0.0407746)
(10.1106 0.0931476 -0.061615)
(10.0284 -0.00463943 0.00961616)
(10.0329 -0.0808795 0.0522405)
(10.0764 -0.0524723 0.0405046)
(10.1691 0.0059885 -0.0161836)
(10.1632 0.00828462 -0.0152361)
(10.0583 0.0176833 0.0268959)
(10.0342 0.0135698 0.0126047)
(10.1251 -0.0308906 -0.015094)
(10.21 0.0142235 0.0228289)
(10.1861 0.083937 0.00119733)
(10.1317 0.045996 -0.0146715)
(10.1022 -0.0459994 0.0152184)
(10.1228 -0.0377981 0.00882051)
(10.1462 -0.0146625 -0.000202971)
(10.1196 -0.0248276 0.0106607)
(10.1084 -0.0125575 0.0198803)
(10.0719 0.0220152 0.0335172)
(10.0536 0.0207643 0.0259582)
(10.0901 0.00874235 0.0046879)
(10.1557 -0.0116393 -0.00619137)
(10.1154 -0.0175065 0.0192284)
(10.1083 0.00187568 0.00783068)
(10.1194 0.00644059 -0.0494139)
(10.1129 -0.00216612 -0.0618127)
(10.0967 -0.0101044 -0.0389479)
(10.1044 0.00517101 -0.01212)
(10.1154 0.00375572 0.0260534)
(10.0139 -0.0508946 0.0669711)
(10.0668 -0.0718495 0.0561266)
(10.1835 0.0400234 -0.0121687)
(10.1705 0.0454776 -0.0533193)
(10.0796 0.0203405 -0.0370046)
(10.0084 -0.0493965 0.0187375)
(10.0534 -0.0525786 0.0379621)
(10.1547 -0.016525 0.0778397)
(10.1685 -0.0144775 0.0526886)
(10.102 -0.0352213 -0.0171955)
(10.1154 -0.0346555 0.00815417)
(10.1534 -0.0016181 0.0237179)
(10.1238 -0.00561716 -0.0061835)
(10.1729 -0.00436254 -0.0259708)
(10.2237 0.0470775 0.00735752)
(10.201 0.0798048 0.0147286)
(10.0168 -0.0025764 -0.05933)
(9.96459 -0.0237121 -0.0529492)
(10.0179 -0.0190872 -0.0564004)
(10.0641 -0.0408321 -0.0763083)
(10.0654 -0.0291232 -0.0254967)
(10.1231 -0.0221353 0.0597338)
(10.1497 -0.00992285 0.0586865)
(10.1604 0.0394694 0.0140444)
(10.1441 0.0253551 0.00495839)
(10.0758 -0.00748252 -0.000392822)
(10.1126 0.000873092 -0.0185492)
(10.1371 -0.00279538 -0.00423432)
(10.0627 -0.0192885 0.028529)
(10.0805 -0.0251997 0.0106251)
(10.0961 -0.0387575 -0.0130663)
(10.084 -0.0294919 -0.0335309)
(10.0433 0.0364149 0.0567004)
(10.0661 0.0400116 0.0913695)
(10.0933 -0.00833713 -0.0217014)
(10.0751 0.0259151 -0.0329323)
(9.94523 0.0073801 -0.0375187)
(9.87328 0.00404978 -0.00217891)
(9.91416 0.0414085 0.0130213)
(9.9543 0.00730219 0.0221634)
(9.94038 -0.0210902 -0.0113616)
(9.94637 -0.0339357 -0.0246774)
(9.98338 -0.0521999 0.036344)
(10.0282 -0.00171014 0.0742663)
(10.0077 0.0357758 0.0126208)
(10.0329 0.0333362 -0.0114797)
(10.0553 -0.0100626 0.0151437)
(9.9829 -0.0148939 -0.0283983)
(9.98195 0.01006 -0.0272259)
(9.99101 0.0381778 0.0426851)
(10.0071 0.0204547 0.00156915)
(9.99202 0.00216758 -0.0878861)
(9.9494 -0.0137349 -0.00221596)
(9.93723 -0.0462865 0.0616052)
(10.0025 -0.0132171 0.0238422)
(10.0394 0.0262168 0.00571427)
(9.98708 0.0321087 0.0111548)
(9.97757 0.0248024 -0.00524517)
(9.96642 0.00799601 -0.0862211)
(9.94743 0.00126351 -0.0592001)
(9.91031 0.00127477 0.0226526)
(9.953 -0.0143793 0.00754726)
(9.98064 -0.0245906 -0.0060795)
(9.9821 -0.0208294 -0.0214175)
(9.92321 0.00747372 0.021717)
(9.95168 -0.0101399 0.024585)
)
;

boundaryField
{
    wall
    {
        type            fixedValue;
        value           uniform (0 0 0);
    }
    outlet
    {
        type            cyclic;
    }
    inlet
    {
        type            cyclic;
    }
    procBoundary2to1
    {
        type            processor;
        value           nonuniform List<vector> 
256
(
(10.0375 0.00461475 0.029431)
(9.98652 0.0139463 -0.0150946)
(9.91855 0.0245525 0.00503902)
(9.8999 0.0282718 0.0996208)
(9.94343 0.0194382 0.0839407)
(9.99546 0.0176333 0.0308311)
(9.93473 -0.00944318 -0.0941068)
(9.97376 -0.0180566 -0.103475)
(10.0362 -0.00121129 -0.0201177)
(9.91408 0.0253246 0.0434912)
(9.83754 0.0397538 0.0443833)
(10.0631 -0.0145523 -0.000917724)
(10.0926 -0.0102837 -0.00430523)
(10.0885 -0.00536137 -0.0201153)
(9.84103 0.00946306 -0.00459253)
(9.80725 0.00962034 -0.00235223)
(9.9825 -0.0125611 0.022092)
(9.98976 -0.015924 0.0341319)
(9.98521 -0.0130188 0.0239687)
(9.99651 -0.00255635 -0.000285457)
(9.94065 0.012821 0.03357)
(9.92842 0.00472392 0.0125629)
(10.029 -0.00405438 -0.109602)
(10.0264 0.00238678 -0.127844)
(9.9494 0.0272922 0.0265433)
(9.96134 0.0158984 0.0379149)
(9.94311 0.00535359 0.0117068)
(9.92801 -0.0020334 0.0199367)
(9.98359 -0.0132602 0.0411885)
(10.0051 -0.0236648 0.0152898)
(9.94282 -0.0260351 -0.0075996)
(9.95195 -0.0164799 -0.0188552)
(10.1569 0.0164831 -0.0266651)
(10.1037 0.0102998 -0.0391602)
(10.0412 0.0478098 0.0240675)
(10.0305 0.0916855 0.104819)
(10.073 0.0548509 0.0552652)
(10.1032 0.0459443 0.00125071)
(10.0387 -0.0320751 -0.099689)
(10.0924 -0.0628956 -0.10125)
(10.1625 -0.0270257 -0.019341)
(10.1632 0.0330752 0.0701519)
(10.0457 0.0107708 0.0438505)
(10.0133 -0.0107162 -0.0022759)
(10.1586 -0.0495769 0.00369903)
(10.2119 -0.0558345 0.0342954)
(10.055 0.0189829 0.00474599)
(10.011 0.0573896 -0.0214718)
(10.1325 -0.00454979 -0.0135809)
(10.1444 -0.0417453 0.014693)
(10.1478 -0.0321537 0.0213926)
(10.1592 -0.0160154 -0.00389413)
(10.0895 0.0173311 -0.00525548)
(10.0716 0.0318217 -0.00399795)
(10.1394 -0.000229805 -0.0573079)
(10.1666 -0.0372555 -0.0620622)
(10.0927 0.0188464 0.0363063)
(10.0807 0.0230217 0.0208796)
(10.0613 0.0189294 -0.00340877)
(10.0536 0.0288056 0.0315743)
(10.1001 0.00483847 0.0577774)
(10.1315 -0.0370139 0.0295621)
(10.0635 -0.0428737 0.0249888)
(10.0953 -0.0242449 -0.0157185)
(10.1762 0.0133875 0.000608481)
(10.1433 0.0214116 0.0306048)
(10.0398 0.0931935 0.0691102)
(10.0563 0.101431 0.0578386)
(10.0708 0.0792225 0.0364784)
(10.1124 0.0150314 -0.0351774)
(9.9653 -0.0561917 -0.103207)
(9.94849 -0.0898128 -0.120025)
(10.1627 -0.0530717 -0.00910862)
(10.1599 -0.0151945 0.0306121)
(10.09 0.0371791 0.0140588)
(10.1612 0.0227597 0.0146751)
(10.1861 -0.0664854 0.00887497)
(10.122 -0.0645971 0.0136102)
(10.0387 0.0608073 -0.00132044)
(10.1204 0.0658625 -0.0284895)
(10.1296 0.0124364 -0.00469963)
(10.0995 -0.00947923 0.035944)
(10.1437 0.00853495 0.0376792)
(10.1975 0.0309642 -0.00341256)
(10.1324 0.0222199 0.0056132)
(10.0669 0.0248828 -0.00216079)
(10.0908 -0.015811 -0.0697608)
(10.1029 -0.0400373 -0.0610326)
(10.0718 -0.0343171 -0.0105413)
(10.0655 0.0194061 0.0246849)
(10.0757 0.0320881 0.0043344)
(10.0601 0.061834 -0.0148108)
(10.0906 0.0446094 0.00290744)
(10.1168 -0.0524106 0.0664674)
(10.0553 -0.0648657 0.0611491)
(10.0982 -0.0407693 -0.00573403)
(10.2298 -0.0124338 0.00486997)
(10.1882 0.0144049 0.0127174)
(10.0941 0.0632522 0.0231715)
(10.0979 0.0620929 0.0403743)
(10.0818 0.0435445 0.0794547)
(10.0704 -0.0483875 0.0408187)
(9.95987 -0.0480808 -0.0307825)
(9.93672 -0.0227475 -0.0878819)
(10.163 -0.0158285 -0.0573324)
(10.2483 0.00605256 0.0120255)
(10.1956 0.026414 0.0399736)
(10.159 0.0300971 0.042534)
(10.0571 -0.0468784 0.0149893)
(10.0474 -0.0591657 0.0172991)
(10.1341 0.0107099 -0.0174617)
(10.1151 0.00997812 -0.0397658)
(10.0926 0.00632347 -0.0349463)
(10.1285 0.018247 -0.0204989)
(10.1732 0.0260196 -0.0237886)
(10.1113 -0.0377975 5.48765e-05)
(10.1091 -0.0262142 0.00440619)
(10.1183 0.0234072 -0.0138557)
(10.1255 0.0205774 -0.0157083)
(10.137 0.0108997 -0.0167904)
(10.0505 -0.00159952 -0.0245124)
(10.0672 -0.0105111 0.0145872)
(10.1399 -0.013393 0.0104904)
(10.1232 0.0449565 -0.0215494)
(10.0538 0.0538849 0.0292719)
(10.0466 -0.0224977 0.0736077)
(10.0237 -0.0489083 0.0424684)
(10.1346 -0.033076 -0.054687)
(10.1467 -0.0184351 -0.0222583)
(10.1309 0.0672088 0.02767)
(10.0668 0.101258 0.0382873)
(10.0648 0.0850485 0.00453053)
(10.0355 -0.0336701 -0.0231694)
(10.0549 -0.155103 -0.0188433)
(10.0362 -0.0687709 0.0105097)
(9.99724 0.0648709 -0.00066694)
(10.163 0.0496033 -0.0123494)
(10.1795 0.0141576 0.00334723)
(10.0991 -0.0385353 0.00861732)
(10.1391 -0.0211041 -0.0138135)
(10.1479 0.0194315 -0.0105154)
(10.1095 -0.000273211 0.0334107)
(10.1378 -0.031698 0.0152668)
(10.1861 -0.022659 -0.0147713)
(10.1671 0.0166688 -0.00815329)
(10.1059 0.0125143 0.016109)
(10.0534 0.000618159 0.0207411)
(10.0588 -0.00283337 0.00223327)
(10.0851 -0.0111138 -0.0348129)
(10.1101 -0.0117821 0.00180336)
(10.1452 0.0348108 0.0289131)
(10.1428 0.0219729 -0.00894378)
(10.1261 -0.0191322 -0.01051)
(10.1068 -0.00680545 0.0400695)
(10.1117 0.024336 0.0239185)
(10.1237 -0.0297149 -0.0510857)
(10.0817 0.00842346 -0.0278297)
(10.067 0.0437563 0.0812972)
(10.1066 -0.0485618 0.0376841)
(10.1231 -0.0581456 -0.0113259)
(10.0974 -0.0358015 -0.00783943)
(10.0989 0.118921 0.0288012)
(10.0659 0.130191 0.0383857)
(10.1004 0.0833632 -0.000314756)
(10.008 -0.101831 -0.039528)
(9.99372 -0.115458 -0.0296953)
(10.0392 0.0216444 0.0413295)
(10.117 0.0689591 0.0665261)
(10.1519 -0.00347865 0.0307189)
(10.1297 -0.0283341 0.00791431)
(10.0632 -0.0327798 -0.024717)
(10.1426 -0.0257103 -0.0140596)
(10.1952 0.00736497 0.0321831)
(10.1753 0.023173 0.0184478)
(10.1616 -0.00855913 -0.0291953)
(10.157 -0.0272415 -0.0256368)
(10.085 -0.0172957 0.00370455)
(10.0642 0.00383559 -0.000766864)
(10.0574 0.0498801 -0.0482297)
(10.0443 0.015736 -0.0431723)
(10.0252 -0.00766176 -0.023062)
(10.0485 0.0105892 -0.0100131)
(10.1565 0.0195585 0.0187863)
(10.1557 0.000840377 0.00121705)
(10.0954 0.0140022 -0.0423473)
(10.0696 0.0223169 -0.00383806)
(10.0343 -0.0247383 0.0388273)
(10.1062 -0.0122678 0.00801744)
(10.1388 0.0414716 -0.00366378)
(10.1066 0.0429412 -0.0145243)
(10.1219 -0.0318032 -0.00759223)
(10.0886 -0.0748106 -0.00316796)
(10.1127 -0.0316134 0.017141)
(10.094 0.0124213 -0.0193347)
(10.0286 -0.0174987 -0.0779437)
(9.94793 -0.0012232 -0.00202738)
(9.97573 0.0265936 0.0201288)
(10.0784 0.0629343 -0.0105528)
(10.1154 0.0677572 0.0410724)
(10.0927 -0.00136914 0.067099)
(10.1194 -0.0218677 0.0306397)
(10.1082 -0.019967 -0.0243103)
(10.0573 0.00247338 -0.0449297)
(10.1738 0.0220333 -0.0101447)
(10.2308 0.0118758 0.0213504)
(10.1519 0.0294714 0.0424031)
(10.1076 0.0335931 0.003965)
(10.1343 -0.036263 -0.0148872)
(10.1416 -0.0321953 0.0236611)
(10.1319 -0.0140668 0.037414)
(10.1139 -0.0418819 -0.0107311)
(10.0301 -0.0440376 0.0040677)
(10.0219 -0.0165909 0.0150427)
(10.0564 0.0402121 0.0396337)
(10.1475 0.000690387 -0.0219709)
(10.1703 -0.0239969 -0.0705489)
(10.1531 -0.0207901 -0.0309159)
(10.0489 0.0596463 0.0235353)
(10.0539 0.0695402 0.0552908)
(10.154 -0.00747213 0.0310793)
(10.1933 -0.0248153 -0.0644471)
(10.1266 0.0282596 -0.0877373)
(10.1008 -0.013675 -0.0388235)
(10.0781 -0.0748061 0.0195341)
(9.9498 -0.0113681 0.00411574)
(9.9823 -0.0182546 -0.0465338)
(9.84426 -0.0157646 0.00105926)
(9.83521 0.0301008 0.055497)
(9.89858 0.0658156 0.0516405)
(9.94959 0.0364745 -0.0170997)
(9.9439 0.0247552 0.0315009)
(9.94223 0.00562046 0.0692884)
(9.97048 0.00342911 0.0173377)
(9.94939 0.00502793 -0.0431311)
(9.91402 0.0107675 -0.019686)
(10.0474 0.0129872 0.0230866)
(10.0765 -0.00366434 0.0197741)
(10.063 0.0212486 0.0158236)
(9.98873 0.02552 -0.0279446)
(9.94403 -0.00326038 -0.0310935)
(9.99879 -0.00493658 0.030035)
(10.0286 0.000251177 0.0553994)
(9.96453 -0.0341612 -0.0316681)
(9.96255 -0.0396622 -0.0414038)
(10.0147 0.0178123 -0.00589691)
(10.0301 0.0322922 -0.00960409)
(10.0165 0.00818903 -0.0150921)
(10.0024 -0.00136427 -0.0230455)
(9.98064 0.0110021 -0.0116397)
(9.90439 0.0213843 -0.0225753)
(9.97767 0.0302387 0.0150028)
(10.0923 -0.000892096 0.0954328)
(10.091 -0.0885169 0.0705109)
(9.92971 -0.0461986 -0.108028)
(9.8812 -0.0179636 -0.0697502)
(9.85641 -0.0201571 0.0238916)
)
;
    }
    procBoundary2to3
    {
        type            processor;
        value           nonuniform List<vector> 
256
(
(9.98365 -0.0195552 0.0176797)
(9.96691 -0.00327913 -0.00681289)
(9.98235 -0.0262554 -0.0213983)
(10.0088 -0.0220854 -0.0228619)
(9.98217 -0.001259 -0.0388963)
(9.84806 -0.00344639 -0.0377414)
(9.89551 -0.0280169 0.0195934)
(10.0044 -0.0253666 0.0316843)
(10.0332 0.0143985 0.0652962)
(10.0396 0.0132378 0.028834)
(9.98404 0.0427664 0.00760344)
(9.97337 0.0608248 -0.00295192)
(10.0236 0.0394784 -0.0331696)
(10.0423 -0.00864759 -0.0350136)
(10.0298 0.00287687 -0.0208488)
(10.007 0.0187806 0.00367114)
(9.99527 0.00446468 0.0154763)
(10.0136 0.000870173 -0.0102189)
(10.0281 8.70044e-05 -0.0264707)
(10.0008 0.00404155 -0.0441066)
(9.93474 0.03018 0.0291265)
(9.89975 0.00445671 0.0427689)
(9.97474 -0.014372 0.00192002)
(9.98237 -0.00952987 -0.0192191)
(9.9657 0.00490672 -0.00130001)
(9.97959 0.010866 0.0164356)
(10.0231 0.0114654 -0.00476353)
(9.95689 0.00252363 -0.0130607)
(9.86637 -0.0166852 -0.00454339)
(9.9429 -0.0111711 -0.0113011)
(10.0091 0.000580004 -0.0423065)
(10.0224 -0.0105446 -0.0245202)
(10.161 0.0244712 0.0128633)
(10.1433 0.0524431 0.00907235)
(10.1439 0.0144007 0.0131076)
(10.1067 -0.059666 -0.0435801)
(10.078 0.00193205 -0.0908557)
(9.96586 -0.000247687 -0.0256729)
(9.96441 -0.0273248 0.0109364)
(10.171 -0.00751296 0.0284291)
(10.1753 -0.0112427 0.0139348)
(10.1834 -0.0144878 0.0276526)
(10.1742 0.0267424 0.0711501)
(10.1415 0.0279971 0.0479446)
(10.1235 0.0154686 0.00857354)
(10.131 0.0103678 -0.0108181)
(10.1453 0.00896461 -0.0228885)
(10.1258 -0.0228993 -0.015819)
(10.0804 -0.0326187 0.00174621)
(10.0849 -0.0206372 -0.00709666)
(10.1425 -0.0509185 -0.0263527)
(10.1583 -0.0540852 -0.0143438)
(10.0697 -0.0118799 -0.0226657)
(10.0697 -0.00122504 0.00723288)
(10.0911 0.00379974 0.0167168)
(10.0948 0.00295978 -0.0234113)
(10.0824 0.00458759 -0.0319918)
(10.1174 -0.0112043 0.00505043)
(10.1116 -0.0194124 -0.0133879)
(10.0689 0.00433472 -0.021077)
(10.0598 0.0211701 0.0490461)
(10.1147 0.0191237 0.0362461)
(10.1373 0.0141223 -0.00689534)
(10.1537 0.00890229 -0.00871594)
(10.1137 0.0193901 -0.0146933)
(10.1263 0.044966 -0.106211)
(10.1194 0.0520906 -0.0875849)
(10.0901 -0.0111345 0.0102181)
(10.0872 -0.0368572 0.0144709)
(10.0005 0.0235963 -0.038089)
(10.0159 0.0498337 -0.0401529)
(10.1228 0.00594362 0.0790147)
(10.1605 -0.00630772 0.0670188)
(10.1643 0.000344861 -0.0464576)
(10.1599 0.00657134 -0.0194282)
(10.1207 -0.00375623 0.00527753)
(10.0969 -0.00505749 -0.00271744)
(10.1625 -0.00398806 -0.015165)
(10.1899 0.0200561 -0.015756)
(10.1265 -0.00779101 0.00933901)
(10.1174 -0.0195788 0.0275994)
(10.1111 -0.0268878 -0.0166713)
(10.1186 -0.0378334 -0.0183409)
(10.1226 -0.0388042 0.0183035)
(10.0405 -0.0133016 0.0399198)
(10.0287 -0.000659317 0.0490102)
(10.0982 0.0517934 0.0300943)
(10.0996 0.0478127 0.0174243)
(10.081 0.017278 0.0257407)
(10.0498 -0.0260481 -0.00709747)
(10.0774 -0.0216147 -0.0632473)
(10.0588 -0.0095396 -0.0618894)
(10.0997 0.00340413 0.0198318)
(10.1325 -0.023997 0.0143648)
(10.1256 -0.0406917 0.0173027)
(10.102 -0.0122991 0.0349071)
(10.1565 -0.0403917 -0.00282616)
(10.0758 -0.0449092 -0.0130334)
(10.0806 -0.00668043 0.00314393)
(10.0967 -0.01161 0.0307505)
(10.0787 -0.0495564 0.0397069)
(9.99158 -0.0238622 -0.103433)
(9.98102 0.00258828 -0.114893)
(10.1115 0.0430435 0.035865)
(10.1419 0.0455891 0.0641843)
(10.1228 -0.0194937 0.066287)
(10.1951 -0.0205784 0.0698669)
(10.2168 -0.00291685 0.0512742)
(10.1767 0.0701769 0.0161264)
(10.1203 0.0247351 -0.012118)
(10.0851 -0.0127795 -0.0222222)
(10.1546 -0.0208762 0.000656638)
(10.1724 0.0107193 -0.00884928)
(10.15 0.0184736 -0.0250923)
(10.1599 0.0458759 -0.0492211)
(10.1521 0.00367523 -0.027052)
(10.0746 -0.0514954 0.0128973)
(10.0825 -0.0383885 0.0363498)
(10.1364 -0.0042144 0.000406098)
(10.1188 -0.00943213 -0.00591977)
(10.0673 0.00603348 -0.0213488)
(10.0302 0.0442778 -0.0268182)
(10.1046 0.00828392 -0.0176428)
(10.1261 -0.0274797 -0.0281711)
(10.0485 -0.0366435 -0.00174137)
(10.0333 0.00547206 0.0315808)
(10.1388 0.0485636 0.0390267)
(10.1873 -0.00927852 -0.0029479)
(10.0828 0.0228589 -0.00734411)
(10.0962 0.0443797 -0.0179198)
(10.1133 0.0375906 -0.0270474)
(10.1121 0.0212875 -0.00770668)
(10.0438 -0.0166292 0.0194192)
(10.0115 -0.0539162 -0.0436527)
(10.0389 -0.049744 -0.0515999)
(10.0744 0.0238565 -0.00205198)
(10.0726 0.0880404 -0.002134)
(10.1124 0.04315 0.0222261)
(10.2156 -0.0681647 0.0549888)
(10.2009 -0.0367669 0.022156)
(10.2011 0.0432311 -0.0061395)
(10.1006 -0.0134587 -0.0511011)
(10.0675 -0.046741 -0.0370579)
(10.1327 -0.0319318 -0.00599616)
(10.1861 -0.0100606 -0.012118)
(10.1961 -0.000480357 -0.0130527)
(10.1001 0.00529213 -0.00658553)
(10.085 -0.00857593 -0.00436344)
(10.0709 -0.00595566 0.0118586)
(10.0732 0.0076829 0.0192545)