/*--------------------------------*- C++ -*----------------------------------*\
| =========                 |                                                 |
| \\      /  F ield         | OpenFOAM: The Open Source CFD Toolbox           |
|  \\    /   O peration     | Version:  2506                                  |
|   \\  /    A nd           | Website:  www.openfoam.com                      |
|    \\/     M anipulation  |                                                 |
\*---------------------------------------------------------------------------*/
FoamFile
{
    version     2.0;
    format      ascii;
    arch        "LSB;label=32;scalar=64";
    class       volScalarField;
    location    "0.07";
    object      p;
}
// * * * * * * * * * * * * * * * * * * * * * * * * * * * * * * * * * * * * * //

dimensions      [0 2 -2 0 0 0 0];

internalField   nonuniform List<scalar> 
1152
(
16.9181
17.2401
17.2876
17.4958
17.0395
17.2855
17.4918
17.57
17.4363
17.3664
17.5
17.4666
17.3895
17.4919
17.2689
17.3616
14.6016
14.8056
14.9548
14.8664
15.1062
15.0313
15.089
15.0771
14.547
15.0704
15.041
15.1477
14.6785
14.9258
14.8856
14.7096
12.2365
11.581
11.8395
11.8672
12.3546
12.0805
11.8202
11.8644
12.3122
12.2197
11.9521
11.9041
11.9375
11.9396
12.1587
12.3266
8.4464
7.67811
7.89234
8.41405
8.72183
8.44981
7.96743
8.17383
8.64791
8.50239
8.37778
8.36301
8.29607
8.38853
8.51901
8.64311
5.03083
5.21728
5.22167
4.802
4.88084
4.99543
4.95043
4.89414
5.13749
5.13413
5.04532
5.06888
4.81928
4.99374
4.95
5.08473
2.64135
2.51187
2.18408
1.63395
2.16354
1.84437
1.66954
1.37128
1.89118
1.93692
1.7024
1.56228
2.04374
1.45196
1.88547
1.91335
1.01046
1.01887
1.01533
1.00973
1.02004
1.02054
1.02132
1.01336
1.00747
1.00535
1.01094
1.01632
0.985308
1.01711
1.00471
1.01688
1.00457
1.00505
1.00346
1.001
1.00335
1.00402
1.003
1.00123
1.00306
1.0028
1.00176
1.0009
1.00319
1.00229
1.0012
1.00056
1.0096
1.00999
1.00855
1.00754
1.00881
1.00919
1.00873
1.00767
1.00799
1.00801
1.00777
1.00752
1.00686
1.00753
1.00726
1.00743
1.00637
1.00626
1.00558
1.00499
1.00585
1.00581
1.00549
1.00496
1.00538
1.0053
1.00507
1.0048
1.00486
1.00496
1.00479
1.00465
1.00615
1.00597
1.00558
1.00522
1.00582
1.0057
1.00546
1.00515
1.00551
1.00542
1.00525
1.00504
1.00523
1.00519
1.00507
1.00496
1.00548
1.00532
1.0051
1.00486
1.00526
1.00515
1.00498
1.00479
1.00506
1.00497
1.00484
1.00469
1.00487
1.00482
1.00472
1.00461
1.00495
1.00483
1.00469
1.00454
1.0048
1.00471
1.0046
1.00447
1.00467
1.00459
1.0045
1.00441
1.00455
1.00449
1.00442
1.00435
1.00448
1.0044
1.0043
1.00421
1.00438
1.00431
1.00423
1.00415
1.00428
1.00423
1.00416
1.0041
1.0042
1.00416
1.0041
1.00405
1.00403
1.00398
1.00391
1.00385
1.00396
1.00391
1.00386
1.0038
1.0039
1.00385
1.00381
1.00376
1.00384
1.0038
1.00376
1.00373
1.0036
1.00356
1.00352
1.00347
1.00355
1.00352
1.00348
1.00344
1.0035
1.00347
1.00344
1.00341
1.00346
1.00344
1.00341
1.00338
1.00318
1.00315
1.00312
1.00309
1.00314
1.00311
1.00309
1.00306
1.00311
1.00308
1.00306
1.00303
1.00308
1.00305
1.00303
1.00301
1.00276
1.00273
1.00271
1.00269
1.00273
1.00271
1.00269
1.00267
1.0027
1.00268
1.00267
1.00265
1.00268
1.00266
1.00265
1.00263
1.00233
1.00232
1.0023
1.00229
1.00231
1.0023
1.00228
1.00227
1.00229
1.00228
1.00227
1.00226
1.00228
1.00227
1.00225
1.00224
1.00191
1.0019
1.00189
1.00188
1.0019
1.00188
1.00187
1.00186
1.00188
1.00187
1.00186
1.00185
1.00187
1.00186
1.00185
1.00185
1.00149
1.00148
1.00147
1.00146
1.00148
1.00147
1.00146
1.00145
1.00147
1.00146
1.00145
1.00145
1.00146
1.00145
1.00145
1.00144
1.00106
1.00106
1.00105
1.00105
1.00105
1.00105
1.00104
1.00104
1.00105
1.00104
1.00104
1.00104
1.00104
1.00104
1.00103
1.00103
1.00064
1.00063
1.00063
1.00063
1.00063
1.00063
1.00063
1.00062
1.00063
1.00063
1.00062
1.00062
1.00063
1.00062
1.00062
1.00062
1.00021
1.00021
1.00021
1.00021
1.00021
1.00021
1.00021
1.00021
1.00021
1.00021
1.00021
1.00021
1.00021
1.00021
1.00021
1.00021
17.4149
17.5062
17.2424
17.2438
17.4957
17.5199
17.3044
17.2124
17.3331
17.286
17.1808
17.0481
17.3122
17.3245
17.2201
17.0164
15.1579
14.8795
14.9591
14.4374
15.0188
14.7439
14.9964
14.6347
15.0801
14.9248
14.8597
14.8849
14.88
14.7651
14.998
14.8271
11.8701
11.6564
11.8576
12.2658
11.8363
11.7176
11.6824
11.7479
11.5836
11.9344
11.8494
12.1512
12.2524
12.1348
11.8506
12.1488
7.9376
7.98512
8.46878
9.16712
7.27368
8.23283
8.53113
8.94832
7.21163
7.84052
8.56356
8.95005
7.75999
8.43218
8.7157
9.01672
4.25245
4.7457
4.84739
5.31168
3.88488
4.49964
5.09487
5.3726
3.45271
4.59821
5.0009
5.34652
3.9985
4.50187
4.89124
5.47299
1.87887
1.82952
1.71689
1.57432
1.87049
1.62744
1.52217
1.65399
1.77376
1.48298
1.62553
1.55624
1.31452
1.43154
1.54856
1.72388
0.972665
1.01119
1.00934
1.0078
1.00411
1.00072
1.00874
1.00991
1.05248
1.02107
1.01476
1.01021
1.03211
1.01498
1.01001
1.011
1.00097
1.00068
1.0006
1.00019
0.997899
0.999616
1.0004
0.999971
0.999778
1.00153
1.00065
0.999845
1.00371
1.00205
1.00054
0.999658
1.00669
1.00711
1.00718
1.00727
1.00821
1.00711
1.0072
1.00716
1.00748
1.00754
1.00737
1.00712
1.00758
1.00756
1.00734
1.00718
1.00464
1.00472
1.00464
1.00452
1.00483
1.00466
1.0046
1.00442
1.00472
1.00476
1.00463
1.00438
1.0046
1.00465
1.00451
1.00428
1.00505
1.00505
1.00499
1.00495
1.00499
1.00497
1.00493
1.0049
1.00491
1.00494
1.00491
1.00487
1.00488
1.00494
1.00492
1.00489
1.00475
1.00471
1.00464
1.00457
1.00468
1.00465
1.00459
1.00452
1.00462
1.00461
1.00456
1.0045
1.00458
1.00458
1.00454
1.00447
1.00446
1.00442
1.00436
1.00432
1.00439
1.00436
1.00433
1.00429
1.00435
1.00433
1.0043
1.00427
1.00433
1.00432
1.00429
1.00426
1.00414
1.0041
1.00406
1.00402
1.00409
1.00406
1.00403
1.004
1.00406
1.00403
1.00401
1.00399
1.00404
1.00402
1.004
1.00398
1.00379
1.00376
1.00373
1.00371
1.00375
1.00373
1.00371
1.00369
1.00373
1.00371
1.00369
1.00368
1.00372
1.0037
1.00368
1.00367
1.00343
1.0034
1.00338
1.00336
1.0034
1.00338
1.00336
1.00335
1.00338
1.00337
1.00335
1.00334
1.00338
1.00336
1.00335
1.00334
1.00305
1.00303
1.00301
1.003
1.00303
1.00301
1.003
1.00299
1.00302
1.003
1.00299
1.00298
1.00301
1.003
1.00299
1.00298
1.00266
1.00265
1.00263
1.00262
1.00265
1.00263
1.00262
1.00262
1.00264
1.00263
1.00262
1.00261
1.00263
1.00262
1.00261
1.00261
1.00226
1.00225
1.00224
1.00224
1.00225
1.00224
1.00224
1.00223
1.00225
1.00224
1.00223
1.00223
1.00224
1.00223
1.00223
1.00223
1.00186
1.00185
1.00184
1.00184
1.00185
1.00184
1.00184
1.00184
1.00185
1.00184
1.00184
1.00183
1.00184
1.00184
1.00183
1.00183
1.00145
1.00144
1.00144
1.00144
1.00144
1.00144
1.00144
1.00143
1.00144
1.00144
1.00143
1.00143
1.00144
1.00144
1.00143
1.00143
1.00104
1.00103
1.00103
1.00103
1.00103
1.00103
1.00103
1.00103
1.00103
1.00103
1.00103
1.00103
1.00103
1.00103
1.00103
1.00102
1.00062
1.00062
1.00062
1.00062
1.00062
1.00062
1.00062
1.00062
1.00062
1.00062
1.00062
1.00062
1.00062
1.00062
1.00062
1.00062
1.00021
1.00021
1.00021
1.00021
1.00021
1.00021
1.00021
1.00021
1.00021
1.00021
1.00021
1.00021
1.00021
1.00021
1.00021
1.00021
17.4355
17.3502
17.2711
17.1705
17.5627
17.44
17.3793
17.368
17.6251
17.5177
17.459
17.3421
17.3426
17.4194
17.2774
17.2004
15.2843
15.5439
14.7588
14.5298
14.9929
15.0171
14.8317
14.8492
14.8764
14.8869
15.1476
15.067
14.9604
15.0541
15.1092
15.0464
11.5624
11.2555
11.4889
11.1703
11.7363
11.6963
11.7794
11.4695
11.9234
11.612
11.6634
11.6216
12.4989
12.143
12.1355
12.2386
8.24051
8.20215
8.34978
8.44837
8.63686
8.38463
8.38627
8.47152
8.59687
8.54694
8.61556
8.53293
8.71664
8.40648
8.69209
8.90953
4.85545
4.92766
5.06114
5.67469
4.87691
5.01067
5.04127
5.23579
5.11571
5.01316
5.15269
5.3922
5.14378
5.15293
5.21291
5.19444
1.68456
1.6205
1.68835
1.83367
1.47999
1.68156
1.38616
1.63375
1.56879
1.90111
1.81011
2.10107
1.86395
2.03304
2.01813
2.12607
1.00927
1.00746
1.00916
0.999811
1.0057
1.00611
1.01156
1.00712
1.00884
1.01671
1.00573
1.0085
1.02651
1.01574
1.01095
1.00258
0.99863
0.996632
0.994936
0.993387
0.999269
0.99789
0.997559
0.996077
0.999482
0.99875
0.997967
0.997457
1.00009
0.999575
0.999028
0.998486
1.00625
1.00523
1.00462
1.00377
1.00642
1.00573
1.00543
1.00502
1.00675
1.00645
1.00595
1.00584
1.00706
1.0068
1.00657
1.00642
1.00432
1.00376
1.0034
1.00292
1.00434
1.00392
1.00368
1.00336
1.00434
1.00407
1.00383
1.00361
1.00432
1.00415
1.00406
1.0039
1.00481
1.00447
1.00422
1.00407
1.0048
1.00454
1.00436
1.00427
1.00481
1.00463
1.00451
1.00446
1.00484
1.00475
1.0047
1.00469
1.00462
1.00442
1.00427
1.00417
1.00458
1.00442
1.0043
1.00423
1.00453
1.00442
1.00434
1.00429
1.0045
1.00444
1.0044
1.00437
1.00439
1.00427
1.00418
1.00413
1.00435
1.00424
1.00417
1.00414
1.00431
1.00424
1.00419
1.00416
1.00429
1.00425
1.00422
1.00421
1.00411
1.00403
1.00397
1.00394
1.00407
1.004
1.00396
1.00393
1.00403
1.00398
1.00395
1.00393
1.00401
1.00398
1.00396
1.00395
1.00379
1.00373
1.0037
1.00368
1.00375
1.00371
1.00368
1.00366
1.00372
1.00369
1.00366
1.00365
1.0037
1.00368
1.00366
1.00366
1.00343
1.0034
1.00337
1.00336
1.0034
1.00337
1.00335
1.00334
1.00338
1.00335
1.00334
1.00333
1.00336
1.00335
1.00334
1.00333
1.00306
1.00304
1.00302
1.00301
1.00303
1.00301
1.003
1.00299
1.00301
1.003
1.00299
1.00298
1.003
1.00299
1.00298
1.00298
1.00267
1.00265
1.00264
1.00264
1.00265
1.00264
1.00263
1.00262
1.00264
1.00262
1.00262
1.00261
1.00262
1.00262
1.00261
1.00261
1.00227
1.00226
1.00225
1.00225
1.00226
1.00225
1.00224
1.00224
1.00225
1.00224
1.00223
1.00223
1.00224
1.00223
1.00223
1.00223
1.00187
1.00186
1.00185
1.00185
1.00186
1.00185
1.00184
1.00184
1.00185
1.00184
1.00184
1.00184
1.00184
1.00184
1.00183
1.00183
1.00146
1.00145
1.00145
1.00144
1.00145
1.00144
1.00144
1.00144
1.00144
1.00144
1.00143
1.00143
1.00144
1.00143
1.00143
1.00143
1.00104
1.00104
1.00104
1.00103
1.00104
1.00103
1.00103
1.00103
1.00103
1.00103
1.00103
1.00103
1.00103
1.00103
1.00103
1.00103
1.00063
1.00062
1.00062
1.00062
1.00062
1.00062
1.00062
1.00062
1.00062
1.00062
1.00062
1.00062
1.00062
1.00062
1.00062
1.00062
1.00021
1.00021
1.00021
1.00021
1.00021
1.00021
1.00021
1.00021
1.00021
1.00021
1.00021
1.00021
1.00021
1.00021
1.00021
1.00021
)
;

boundaryField
{
    inlet
    {
        type            zeroGradient;
    }
    outlet
    {
        type            fixedValue;
        value           uniform 1;
    }
    wall
    {
        type            zeroGradient;
    }
    procBoundary3to1
    {
        type            processor;
        value           nonuniform List<scalar> 
192
(
17.2273
17.291
17.1392
17.2668
14.255
14.8079
14.8566
15.1393
8.6754
10.9805
11.9959
11.9476
7.49395
8.21152
8.33232
8.28961
8.02489
5.95243
5.1993
4.80724
3.0271
2.03317
1.56931
1.53404
1.00829
1.02765
1.03067
1.01612
1.00853
1.00697
1.00584
1.00185
1.00984
1.0106
1.00978
1.00803
1.00668
1.00663
1.0061
1.00529
1.00637
1.0062
1.00583
1.00539
1.00564
1.00549
1.00525
1.00498
1.00508
1.00496
1.0048
1.00464
1.00458
1.00449
1.00438
1.00428
1.00411
1.00404
1.00397
1.0039
1.00366
1.00361
1.00356
1.00352
1.00322
1.00318
1.00315
1.00312
1.00278
1.00276
1.00274
1.00271
1.00235
1.00234
1.00232
1.0023
1.00192
1.00191
1.0019
1.00189
1.0015
1.00149
1.00148
1.00147
1.00107
1.00106
1.00106
1.00105
1.00064
1.00064
1.00063
1.00063
1.00021
1.00021
1.00021
1.00021
17.5476
17.5133
17.2082
17.1943
14.7403
14.7887
14.8303
14.1403
11.6495
11.2435
10.8684
9.53453
8.40818
8.18224
7.84028
8.32089
5.02843
5.10713
5.6478
6.56474
1.55375
1.52482
1.27003
1.50966
1.00366
1.00562
1.00549
1.00722
0.998464
0.995903
0.994456
0.993776
1.00621
1.00511
1.00454
1.00456
1.00445
1.00386
1.00352
1.00332
1.00493
1.00457
1.00432
1.00423
1.00473
1.00451
1.00436
1.00428
1.00448
1.00435
1.00426
1.00421
1.00418
1.0041
1.00404
1.00401
1.00384
1.00379
1.00375
1.00373
1.00347
1.00344
1.00342
1.0034
1.00309
1.00307
1.00305
1.00304
1.00269
1.00268
1.00267
1.00266
1.00229
1.00228
1.00227
1.00227
1.00188
1.00187
1.00187
1.00186
1.00146
1.00146
1.00146
1.00145
1.00105
1.00104
1.00104
1.00104
1.00063
1.00063
1.00063
1.00063
1.00021
1.00021
1.00021
1.00021
)
;
    }
    procBoundary3to2
    {
        type            processor;
        value           nonuniform List<scalar> 
192
(
17.1971
17.3842
17.3131
17.4659
14.22
14.4216
15.1259
15.1924
12.9148
12.2954
12.1235
11.9703
8.73798
8.95974
8.39847
8.50292
5.42846
5.22983
5.15649
4.96272
0.910921
1.99788
2.06889
1.41859
1.03793
0.999599
1.0166
0.997852
1.0016
1.00077
1.0026
1.00256
1.01408
1.00954
1.00861
1.00713
1.0076
1.00618
1.00563
1.00493
1.00659
1.006
1.00564
1.00528
1.00567
1.00537
1.00514
1.00494
1.00506
1.00488
1.00473
1.0046
1.00455
1.00444
1.00433
1.00425
1.00409
1.00401
1.00394
1.00387
1.00364
1.00359
1.00354
1.00349
1.00321
1.00317
1.00313
1.0031
1.00278
1.00275
1.00272
1.0027
1.00235
1.00233
1.00231
1.00229
1.00192
1.00191
1.00189
1.00188
1.00149
1.00148
1.00147
1.00146
1.00107
1.00106
1.00105
1.00105
1.00064
1.00064
1.00063
1.00063
1.00021
1.00021
1.00021
1.00021
17.6104
17.578
17.5
17.5608
14.767
14.818
15.1479
15.1386
11.6313
11.6912
11.7069
11.3314
8.43851
8.48334
7.68046
7.73075
4.84971
3.91813
4.02473
3.75128
1.44801
1.49229
1.04826
1.26842
1.01935
1.03912
1.09954
1.05404
1.00082
0.995973
0.978512
0.99937
1.00669
1.0062
1.00509
1.00652
1.00461
1.0044
1.00431
1.00432
1.00505
1.0049
1.00483
1.00482
1.00478
1.00468
1.00462
1.00459
1.00449
1.00442
1.00438
1.00435
1.00417
1.00412
1.00409
1.00407
1.00382
1.00378
1.00376
1.00375
1.00345
1.00343
1.00341
1.0034
1.00307
1.00305
1.00304
1.00303
1.00268
1.00266
1.00265
1.00265
1.00228
1.00227
1.00226
1.00225
1.00187
1.00186
1.00186
1.00185
1.00146
1.00145
1.00145
1.00145
1.00104
1.00104
1.00104
1.00104
1.00063
1.00062
1.00062
1.00062
1.00021
1.00021
1.00021
1.00021
)
;
    }
}


// ************************************************************************* //
