/*--------------------------------*- C++ -*----------------------------------*\
| =========                 |                                                 |
| \\      /  F ield         | OpenFOAM: The Open Source CFD Toolbox           |
|  \\    /   O peration     | Version:  2506                                  |
|   \\  /    A nd           | Website:  www.openfoam.com                      |
|    \\/     M anipulation  |                                                 |
\*---------------------------------------------------------------------------*/
FoamFile
{
    version     2.0;
    format      ascii;
    arch        "LSB;label=32;scalar=64";
    class       volVectorField;
    location    "0.07";
    object      U;
}
// * * * * * * * * * * * * * * * * * * * * * * * * * * * * * * * * * * * * * //

dimensions      [0 1 -1 0 0 0 0];

internalField   nonuniform List<vector> 
1152
(
(-0.000498919 0.00647347 0.0517145)
(-0.00282023 2.95365e-05 0.0129491)
(-0.00264956 -0.00395413 0.0154902)
(-0.000127954 -0.000375569 0.00125592)
(0.00203818 -0.0135307 0.0405702)
(-0.00443082 -0.00154412 0.0156768)
(-0.00354906 -0.00240014 0.0187218)
(-0.00113901 -0.000318778 0.0161539)
(0.00022728 -0.00126081 0.00608116)
(-0.000424369 -0.002588 0.0179681)
(-0.00122695 0.00228385 0.0175527)
(-0.00214697 0.00271113 0.0255253)
(1.36847e-05 -5.45015e-05 0.0186442)
(0.00105698 -0.001286 0.0146679)
(0.000954749 0.00280629 0.0191359)
(-0.00135158 0.00404222 0.0288949)
(-0.00891069 -0.0104143 0.0473753)
(-0.00197117 -0.00180631 0.0205022)
(0.000392794 -0.00243152 0.0444326)
(-0.00243185 0.00100549 0.0357058)
(-0.00688823 0.00039824 0.0396231)
(4.47786e-05 -0.00237633 0.0278866)
(-3.92575e-05 -0.000497847 0.0162864)
(0.000937955 -0.00160653 0.0236777)
(0.00026597 -0.000810326 0.00160525)
(-0.00422167 0.000978252 0.0434164)
(-0.00022167 0.000406482 0.0158349)
(0.00179387 0.00185216 0.0244787)
(0.00342561 -0.00687965 0.0394591)
(-0.00083246 0.000809303 0.0203326)
(0.0035447 0.00146886 0.0522371)
(0.000307439 0.00049356 0.00120718)
(0.00151417 -0.00412927 0.00941886)
(0.00148221 -0.00482794 0.023609)
(-0.00103515 0.000492329 0.011726)
(0.00262945 0.000937992 0.0397855)
(0.000632562 -0.00119671 0.00562455)
(0.00293556 -0.00311062 0.0267581)
(0.00137409 -1.78831e-05 0.0298889)
(0.00107918 -0.00064129 0.0241928)
(-0.00111401 0.0018838 0.0303806)
(0.0022793 0.000861256 0.0307888)
(0.00258481 -0.00174648 0.0295548)
(0.000513359 -0.00204531 0.0283727)
(-0.000317332 0.00161509 0.0283117)
(-0.00117869 0.00210247 0.0237072)
(-0.000958801 0.000769094 0.0212929)
(-0.00206837 -0.00276958 0.0364086)
(0.00106408 -0.00150984 0.00850231)
(0.00171717 -0.00107839 0.0204557)
(-0.00639345 0.00305142 0.0448709)
(-0.00172793 0.000783434 0.0286488)
(0.00454844 -0.00263027 0.0518119)
(0.00276237 -0.00373392 0.0236354)
(0.00112305 -0.00230884 0.0235634)
(-0.00225086 0.000451783 0.0191459)
(-0.000852217 0.00107057 0.0247791)
(0.00152583 -0.000166942 0.0288821)
(0.00142322 -0.00266629 0.0219288)
(-0.00142127 -0.00355254 0.0370501)
(0.00100437 0.00477901 0.0439762)
(-0.000672881 0.00167898 0.0228659)
(-0.00166992 -0.00094511 0.0423253)
(-0.00111173 -0.0075202 0.0422449)
(0.000108812 -8.17007e-05 0.00339904)
(-0.00441421 0.0117589 0.0571764)
(0.000195336 -0.000256347 0.00357278)
(0.000989636 9.92818e-05 0.0130281)
(0.000771185 -0.000822629 0.0151837)
(-0.000142729 -0.000176125 0.0169575)
(0.000749952 0.0018093 0.0489759)
(0.000374699 -0.00170775 0.0382627)
(0.000151439 -5.89147e-05 0.0199376)
(0.000655995 -0.000140699 0.031545)
(0.000432945 -0.000112527 0.0304705)
(-0.000470234 -0.00162542 0.0447809)
(-9.15675e-05 0.00563666 0.0331582)
(-0.000197165 0.00141741 0.0194136)
(-6.02378e-05 0.000717863 0.0177274)
(-0.00155831 -0.00279988 0.0457603)
(-0.017656 0.00904538 0.0348844)
(0.00175157 0.000880489 0.0170439)
(0.00631558 -0.00110499 0.0253388)
(0.00333508 0.00115555 0.0217106)
(0.0022945 0.00961227 0.040427)
(0.00282606 0.00376508 0.0207098)
(0.00207025 0.00244336 0.0160769)
(0.000788351 0.000592366 0.0135421)
(0.000452836 0.000754835 0.00887831)
(0.00100777 0.00192915 0.0143901)
(0.00135128 -0.000302471 0.0123074)
(0.000818197 -0.00254617 0.0186138)
(-4.61068e-05 0.00071061 0.0324205)
(0.000308506 0.000557654 0.00521713)
(-0.00431428 0.000155376 0.0306129)
(0.000373039 0.00105844 0.0328626)
(0.00064217 0.000569554 0.00775675)
(0.00243559 -0.000148096 0.0190085)
(0.00018551 0.000456698 0.011945)
(-3.56159e-05 0.000183558 0.0169857)
(-0.000209878 0.000899986 0.0170215)
(-6.84548e-05 0.00111108 0.0245274)
(0.000323379 0.000425022 0.0292332)
(0.000800955 -0.000457664 0.0246425)
(0.000514656 0.00126436 0.0157838)
(0.000653588 0.000639148 0.0120889)
(-3.39849e-05 0.000760308 0.0170668)
(0.00041557 0.000280843 0.0285713)
(0.000124634 0.000531068 0.00458222)
(-0.000348677 5.50231e-05 0.0160054)
(-0.000122966 0.000527809 0.0104876)
(-0.000318128 0.000806571 0.0208286)
(0.0022096 0.00135003 0.0193437)
(0.000556907 0.000277768 0.0293561)
(-0.000385517 0.000914343 0.0260475)
(-0.000258296 0.000267274 0.0273598)
(-0.000261485 0.000623792 0.0319025)
(-0.000754874 8.79036e-05 0.0324037)
(-0.000785363 0.000180399 0.0340173)
(0.000127508 -0.000173632 0.0306036)
(0.000238228 -0.000600094 0.0212157)
(-7.25201e-05 -0.000140992 0.0193854)
(-0.000629714 0.00080783 0.0252991)
(1.07373e-05 0.000973237 0.0327746)
(-0.000179792 -0.00042049 0.00834913)
(0.000614311 -0.000150767 0.0230991)
(0.00034344 0.000159058 0.0210694)
(0.000273299 0.0007121 0.0313993)
(0.00310779 -0.000635291 0.0069905)
(7.19265e-05 0.000221336 0.00755747)
(0.000339673 0.000407072 0.00727053)
(-0.000326242 7.08735e-05 0.00751988)
(0.000193676 0.000935145 0.00764995)
(-0.000683716 0.00131482 0.00803636)
(-0.000315851 0.000246625 0.00849866)
(0.00017851 -0.00026172 0.00837368)
(0.000492001 0.00159982 0.00557735)
(-0.000702461 0.00135489 0.00550853)
(-0.00132522 0.00121659 0.00668472)
(-0.000686411 0.000415137 0.00835174)
(-0.000511485 -0.000652901 0.00409924)
(-0.00103739 -0.000518881 0.00553249)
(-0.00121861 -0.000178394 0.00584853)
(-0.000820005 0.000289414 0.00755836)
(0.000801734 1.6903e-05 0.0165997)
(-0.000114823 0.00025339 0.0171065)
(-9.45539e-06 0.000250937 0.0165759)
(-0.000308778 0.000112868 0.0167034)
(-6.6486e-05 0.000516528 0.0165926)
(-0.000445526 0.000649581 0.016986)
(-0.000334611 0.000252633 0.0170629)
(-0.000189098 8.36037e-05 0.0170537)
(5.43457e-05 0.000603774 0.0155649)
(-0.000429357 0.000634483 0.0157502)
(-0.000639198 0.000610745 0.0162057)
(-0.000398085 0.000458574 0.0169013)
(-0.000181499 -0.00043011 0.01476)
(-0.00042778 -0.000248936 0.0154566)
(-0.000496464 -1.23783e-06 0.0157726)
(-0.000236697 0.000332473 0.0165543)
(0.000173673 7.28949e-05 0.0139312)
(-9.51154e-05 0.000118537 0.0141302)
(-6.47769e-05 8.18684e-05 0.0139442)
(-0.000186798 3.01909e-05 0.0139921)
(-7.21908e-05 0.000211604 0.0138032)
(-0.00023345 0.000245313 0.0139992)
(-0.000215442 9.48128e-05 0.0140446)
(-0.000206004 2.15191e-05 0.0140829)
(-3.47759e-05 0.000176306 0.0134301)
(-0.000240577 0.000210384 0.0135427)
(-0.000328668 0.000183043 0.0136844)
(-0.00030061 0.000122808 0.0138894)
(-7.53186e-05 -0.000248687 0.0131917)
(-0.000223576 -0.000167127 0.0133755)
(-0.000299463 -9.13164e-05 0.0134561)
(-0.000274334 -3.483e-05 0.0136166)
(2.47722e-05 5.84148e-05 0.0144937)
(-5.52418e-05 6.00126e-05 0.0145692)
(-4.90001e-05 3.92468e-05 0.0145036)
(-9.99635e-05 2.66265e-05 0.0145139)
(-4.41375e-05 8.96564e-05 0.0144239)
(-0.000103802 0.000100046 0.0145071)
(-0.000100726 5.93473e-05 0.0145232)
(-0.000111157 4.67183e-05 0.0145422)
(-2.59614e-05 4.5754e-05 0.0142947)
(-9.83238e-05 7.59522e-05 0.0143493)
(-0.000120636 8.52566e-05 0.014395)
(-0.00011569 9.62429e-05 0.0144557)
(-1.40749e-05 -0.000136077 0.0142256)
(-6.36317e-05 -8.35677e-05 0.0142814)
(-7.84012e-05 -2.78674e-05 0.0143089)
(-6.12743e-05 2.98249e-05 0.0143545)
(-1.59863e-06 3.10743e-05 0.0144902)
(-2.71323e-05 2.73251e-05 0.0145171)
(-2.90832e-05 1.7733e-05 0.014493)
(-5.11376e-05 1.58215e-05 0.0144857)
(-1.9678e-05 3.15452e-05 0.0144542)
(-4.27812e-05 3.59661e-05 0.0144852)
(-4.59913e-05 2.65098e-05 0.0144838)
(-5.58641e-05 2.57104e-05 0.0144787)
(-1.04647e-05 1.70613e-06 0.0144036)
(-3.61845e-05 1.78143e-05 0.0144213)
(-4.56253e-05 2.80319e-05 0.0144209)
(-5.10107e-05 3.97253e-05 0.014414)
(3.7782e-06 -7.37474e-05 0.0143756)
(-1.47387e-05 -4.92818e-05 0.014381)
(-2.21344e-05 -2.33754e-05 0.0143612)
(-2.52422e-05 8.58213e-08 0.0143298)
(-1.8228e-06 1.38183e-05 0.0145005)
(-1.06147e-05 1.12259e-05 0.0145082)
(-1.45763e-05 8.41751e-06 0.0144959)
(-2.44736e-05 9.41548e-06 0.0144815)
(-6.09446e-06 9.02121e-06 0.0144826)
(-1.45792e-05 1.14645e-05 0.0144916)
(-1.80961e-05 1.11035e-05 0.0144845)
(-2.45666e-05 1.40955e-05 0.0144693)
(-5.49841e-07 -7.83349e-06 0.0144592)
(-9.32967e-06 7.66022e-07 0.0144617)
(-1.36737e-05 8.5267e-06 0.0144506)
(-1.78865e-05 1.79246e-05 0.0144286)
(8.80078e-06 -3.96101e-05 0.0144404)
(3.08275e-06 -2.80781e-05 0.014434)
(6.66687e-07 -1.44238e-05 0.0144099)
(-2.25892e-06 -1.22595e-06 0.0143707)
(6.10515e-07 5.33862e-06 0.0145117)
(-3.35021e-06 4.37282e-06 0.0145114)
(-6.66639e-06 3.759e-06 0.0145011)
(-1.14737e-05 5.02777e-06 0.0144829)
(-1.37282e-07 1.22988e-06 0.0145018)
(-3.85423e-06 2.75911e-06 0.0145014)
(-6.6323e-06 4.16515e-06 0.0144909)
(-1.05149e-05 6.88395e-06 0.0144702)
(2.99288e-06 -7.74449e-06 0.0144872)
(-3.79199e-07 -3.36847e-06 0.0144828)
(-2.84886e-06 1.56208e-06 0.0144674)
(-5.87858e-06 7.21913e-06 0.0144391)
(8.03233e-06 -2.15417e-05 0.0144685)
(6.30247e-06 -1.61482e-05 0.014458)
(5.0278e-06 -9.12454e-06 0.0144328)
(2.65488e-06 -2.31642e-06 0.0143905)
(1.81948e-06 1.70258e-06 0.0145188)
(-2.89374e-07 1.46184e-06 0.0145154)
(-2.5538e-06 1.50894e-06 0.0145049)
(-5.17557e-06 2.42628e-06 0.0144844)
(1.88767e-06 -9.54504e-07 0.0145121)
(-3.6396e-08 -1.27095e-08 0.0145081)
(-1.91586e-06 1.21118e-06 0.0144959)
(-4.2398e-06 3.0318e-06 0.0144724)
(3.57715e-06 -5.64512e-06 0.0145001)
(2.01787e-06 -3.40713e-06 0.0144932)
(5.00629e-07 -6.12466e-07 0.0144763)
(-1.45391e-06 2.4697e-06 0.0144458)
(6.12383e-06 -1.1843e-05 0.0144801)
(5.48209e-06 -9.30258e-06 0.0144688)
(4.57701e-06 -5.78539e-06 0.014444)
(2.84396e-06 -2.34545e-06 0.0144016)
(2.08486e-06 2.92673e-07 0.0145229)
(8.69264e-07 2.96581e-07 0.0145184)
(-5.49407e-07 4.71478e-07 0.0145073)
(-2.06822e-06 1.02422e-06 0.0144855)
(2.26679e-06 -1.27605e-06 0.0145175)
(1.18151e-06 -7.17571e-07 0.0145121)
(-3.37674e-08 7.24104e-08 0.0144991)
(-1.45954e-06 1.12362e-06 0.0144743)
(3.14934e-06 -3.70149e-06 0.0145061)
(2.31667e-06 -2.56963e-06 0.0144984)
(1.33532e-06 -1.09006e-06 0.014481)
(6.68948e-08 5.236e-07 0.0144496)
(4.39821e-06 -6.56426e-06 0.0144849)
(4.05474e-06 -5.39878e-06 0.0144736)
(3.3947e-06 -3.68504e-06 0.0144493)
(2.25831e-06 -1.97155e-06 0.0144073)
(1.93248e-06 -1.61773e-07 0.0145253)
(1.22327e-06 -1.11391e-07 0.0145205)
(3.42473e-07 2.92258e-08 0.0145089)
(-5.69568e-07 3.38505e-07 0.0144864)
(2.06615e-06 -1.04619e-06 0.0145204)
(1.43791e-06 -7.43061e-07 0.0145146)
(6.70095e-07 -2.94423e-07 0.0145012)
(-2.28873e-07 2.78801e-07 0.0144757)
(2.50578e-06 -2.29852e-06 0.0145091)
(2.03022e-06 -1.74952e-06 0.0145012)
(1.39371e-06 -1.00165e-06 0.0144836)
(5.64986e-07 -1.86412e-07 0.0144519)
(3.09053e-06 -3.66382e-06 0.0144871)
(2.8747e-06 -3.1599e-06 0.014476)
(2.41567e-06 -2.34904e-06 0.0144521)
(1.7074e-06 -1.50283e-06 0.0144103)
(1.62539e-06 -2.51583e-07 0.0145268)
(1.23616e-06 -2.16624e-07 0.0145218)
(6.82378e-07 -1.2979e-07 0.01451)
(1.05584e-07 3.32188e-08 0.0144871)
(1.6976e-06 -7.18379e-07 0.014522)
(1.34386e-06 -5.81502e-07 0.0145161)
(8.55612e-07 -3.55108e-07 0.0145024)
(2.78692e-07 -6.4587e-08 0.0144766)
(1.90377e-06 -1.37391e-06 0.0145106)
(1.62858e-06 -1.13609e-06 0.0145027)
(1.21554e-06 -7.79466e-07 0.0144851)
(6.76945e-07 -3.85983e-07 0.0144532)
(2.15464e-06 -2.03878e-06 0.0144881)
(2.01459e-06 -1.86403e-06 0.0144772)
(1.70729e-06 -1.48693e-06 0.0144536)
(1.26038e-06 -1.09462e-06 0.0144119)
(1.28083e-06 -2.26125e-07 0.0145277)
(1.07652e-06 -2.07075e-07 0.0145227)
(7.28438e-07 -1.58515e-07 0.0145108)
(3.58299e-07 -7.73982e-08 0.0144876)
(1.31109e-06 -4.55992e-07 0.014523)
(1.11898e-06 -4.05757e-07 0.014517)
(8.08724e-07 -3.03823e-07 0.0145033)
(4.35196e-07 -1.67061e-07 0.0144772)
(1.40174e-06 -8.03184e-07 0.0145114)
(1.24425e-06 -7.11349e-07 0.0145036)
(9.75911e-07 -5.5663e-07 0.0144859)
(6.27928e-07 -3.80389e-07 0.014454)
(1.50041e-06 -1.13895e-06 0.0144886)
(1.40861e-06 -1.09536e-06 0.0144779)
(1.19836e-06 -9.35501e-07 0.0144544)
(9.20413e-07 -7.71304e-07 0.0144128)
(9.60043e-07 -1.58799e-07 0.0145283)
(8.33321e-07 -1.5314e-07 0.0145232)
(6.27039e-07 -1.27789e-07 0.0145112)
(3.98469e-07 -9.0074e-08 0.014488)
(9.66976e-07 -2.89884e-07 0.0145235)
(8.55955e-07 -2.6767e-07 0.0145176)
(6.64792e-07 -2.20914e-07 0.0145038)
(4.28601e-07 -1.59346e-07 0.0144777)
(1.00191e-06 -4.67466e-07 0.0145118)
(9.10824e-07 -4.34743e-07 0.014504)
(7.40213e-07 -3.70794e-07 0.0144864)
(5.19509e-07 -2.99519e-07 0.0144545)
(1.03526e-06 -6.37505e-07 0.0144889)
(9.77855e-07 -6.443e-07 0.0144783)
(8.35069e-07 -5.86532e-07 0.0144548)
(6.63755e-07 -5.20967e-07 0.0144133)
(6.99661e-07 -8.34041e-08 0.0145286)
(5.99985e-07 -8.65466e-08 0.0145235)
(4.89633e-07 -7.50803e-08 0.0145115)
(3.56415e-07 -5.90109e-08 0.0144882)
(6.96457e-07 -1.81482e-07 0.0145238)
(6.20972e-07 -1.63149e-07 0.0145179)
(5.10853e-07 -1.37849e-07 0.0145041)
(3.66977e-07 -1.10517e-07 0.014478)
(7.0616e-07 -2.66355e-07 0.014512)
(6.48343e-07 -2.52977e-07 0.0145043)
(5.44842e-07 -2.27018e-07 0.0144867)
(4.08424e-07 -2.0175e-07 0.0144548)
(7.13263e-07 -3.50791e-07 0.014489)
(6.75323e-07 -3.69373e-07 0.0144784)
(5.83079e-07 -3.53381e-07 0.0144551)
(4.77803e-07 -3.32749e-07 0.0144136)
(5.33967e-07 -1.9167e-08 0.0145287)
(4.5973e-07 -2.48268e-08 0.0145237)
(4.00107e-07 -2.10854e-08 0.0145117)
(3.194e-07 -1.48647e-08 0.0144884)
(5.29883e-07 -9.18073e-08 0.0145239)
(4.74952e-07 -7.88372e-08 0.014518)
(4.11942e-07 -6.61376e-08 0.0145042)
(3.22451e-07 -5.46294e-08 0.0144781)
(5.29442e-07 -1.32722e-07 0.0145122)
(4.87935e-07 -1.28956e-07 0.0145044)
(4.25374e-07 -1.21091e-07 0.0144869)
(3.38543e-07 -1.15249e-07 0.014455)
(5.24283e-07 -1.75457e-07 0.014489)
(4.95592e-07 -1.93868e-07 0.0144785)
(4.37655e-07 -1.95788e-07 0.0144552)
(3.68868e-07 -1.93324e-07 0.0144138)
(5.27699e-07 4.55548e-08 0.0145288)
(4.82906e-07 4.42648e-08 0.0145238)
(4.31252e-07 4.53125e-08 0.0145119)
(3.61692e-07 4.68131e-08 0.0144886)
(5.25756e-07 8.47933e-09 0.014524)
(4.85263e-07 8.57993e-09 0.0145181)
(4.32114e-07 8.81016e-09 0.0145044)
(3.58308e-07 7.85884e-09 0.0144783)
(5.19197e-07 -2.01759e-08 0.0145122)
(4.84594e-07 -2.73232e-08 0.0145046)
(4.30609e-07 -3.32284e-08 0.014487)
(3.55983e-07 -4.01328e-08 0.0144552)
(5.07824e-07 -4.76672e-08 0.0144891)
(4.78095e-07 -6.73183e-08 0.0144786)
(4.25889e-07 -8.21766e-08 0.0144554)
(3.57211e-07 -9.44809e-08 0.014414)
(0.00200137 -0.00136914 0.0288828)
(0.00160051 -0.000306453 0.013896)
(0.00549926 -0.00237003 0.0307504)
(-4.97124e-05 0.00191588 0.0148431)
(0.000427851 0.00108041 0.0139275)
(0.00138034 0.00172354 0.0120308)
(0.00495223 -0.000217747 0.0219958)
(0.00145588 0.00351857 0.0170341)
(0.00304787 0.00301794 0.0259742)
(0.00173571 0.00223294 0.0199802)
(0.00348294 0.000426244 0.0214327)
(0.00186735 0.00550676 0.0261286)
(0.000139805 0.000236699 0.000797302)
(0.000480187 -0.000241841 0.00979395)
(0.00300686 -0.00172813 0.0214924)
(0.00131886 0.000509999 0.0191234)
(-0.000343112 -0.00312744 0.0290132)
(0.00106037 0.00111242 0.0175252)
(0.00334602 -0.00197953 0.0310072)
(0.00180983 0.00136261 0.0414123)
(0.00083657 0.000563106 0.0323721)
(0.000625532 0.000341723 0.0237257)
(0.000667776 0.000815552 0.00319704)
(-4.39719e-05 -0.00216916 0.0191501)
(0.00215926 0.000925468 0.0247577)
(0.00288881 0.000104551 0.0405941)
(0.000821355 0.000688589 0.0339549)
(-0.00295515 -0.00130804 0.0462465)
(0.00567048 0.00317346 0.0540493)
(-1.69569e-05 0.00238918 0.0422231)
(8.05258e-05 -0.000304626 0.014481)
(0.0011413 0.00127953 0.044299)
(0.000434318 -0.000610787 0.0134998)
(-2.62838e-06 0.000323665 0.0311204)
(-0.00228504 0.00462411 0.0274031)
(0.000853307 -0.000484045 0.00286758)
(0.000187539 -0.000265069 0.0152203)
(0.000460587 -0.00324919 0.0405825)
(-0.000922854 -0.00042906 0.0233779)
(-0.00284101 0.00380176 0.0445898)
(-0.00332183 -0.00390602 0.0371749)
(-0.00173253 -0.0016615 0.0138736)
(-0.00205359 -0.00240362 0.0546167)
(-0.00119326 -0.00230554 0.0197085)
(-0.00307863 -0.00343132 0.022869)
(0.000677432 -0.00220032 0.0406683)
(0.00098971 -0.000719535 0.0320213)
(-0.00183145 0.000764119 0.0463617)
(0.00136055 0.00472838 0.0273615)
(-0.00303553 0.00131243 0.0340989)
(-0.00159152 0.000543045 0.0116718)
(-0.00161239 -0.00209122 0.0314798)
(0.00116101 0.00230054 0.025262)
(-0.00448069 0.0011481 0.0286491)
(-0.00327669 0.000184089 0.0323114)
(0.000404683 0.00102332 0.0414345)
(-0.00109947 -0.00354315 0.0448325)
(-0.00660058 -0.000673667 0.0366554)
(-0.00481906 -0.00036483 0.031633)
(-0.000708232 -0.00112242 0.0233676)
(-0.00298085 -0.00287197 0.0343468)
(-0.00394921 -0.00178854 0.0262517)
(-0.00181541 -0.000913409 0.0267147)
(-0.00100098 -0.00106435 0.0432144)
(0.000699022 0.00447835 0.0235782)
(-0.00583994 0.00674962 0.0510573)
(-0.00306969 0.000133813 0.0291576)
(-0.00130408 -0.00121615 0.0209741)
(-0.00429183 0.00922859 0.0460816)
(-0.00248207 0.000986688 0.0137835)
(-0.00375691 0.000284264 0.028258)
(-0.000503088 -0.000721252 0.0331257)
(-0.000405205 -0.000397295 0.00162889)
(-0.0106296 0.00184638 0.0480495)
(-0.00404261 0.00327371 0.0529917)
(-0.000219459 -0.000781769 0.0161838)
(-0.00229029 -0.002047 0.0193393)
(-0.00269848 0.00122908 0.0251941)
(-0.00198962 0.00126776 0.0206818)
(-0.00238371 -0.000942737 0.0416412)
(-0.00544948 0.00394015 0.0382346)
(0.000487246 -0.000119591 0.0130312)
(0.00151172 0.00207963 0.0183379)
(-0.000127456 0.000518328 0.00498337)
(-0.000187914 0.000347382 0.00207675)
(0.00223341 0.00295229 0.0234789)
(5.37551e-05 0.000428882 0.0114539)
(-0.00178065 0.00168076 0.021271)
(-0.00365902 0.00507529 0.0192059)
(0.000614268 0.00128991 0.0147835)
(-0.00010159 -8.91292e-05 0.0180229)
(-0.00114783 0.000452905 0.015053)
(-0.000402641 0.0019589 0.0107207)
(-0.000754736 0.000410241 0.0183754)
(-0.000949999 0.0012176 0.0221556)
(-0.00217407 0.000215022 0.0174171)
(0.000126834 0.000345195 0.00433656)
(-0.000788069 0.00100244 0.0195087)
(-5.56701e-06 0.000259723 0.0182721)
(-4.21877e-05 0.000914212 0.0127162)
(0.000435525 -0.00071917 0.0112353)
(0.000148611 0.000137052 0.012708)
(-0.000223345 0.000307517 0.0172939)
(0.000340377 0.000293028 0.0178696)
(0.00465 0.000792951 0.0416906)
(0.00143849 -0.000541166 0.0273406)
(0.000660179 -0.000156906 0.0236594)
(0.000305804 0.000204885 0.0183991)
(0.00200708 0.00153642 0.0156934)
(0.000585809 0.000480364 0.0166137)
(-1.35223e-05 0.000232277 0.0184509)
(0.000208679 0.000178943 0.0211672)
(0.000104356 -0.000284452 0.0162267)
(0.000540803 0.000305328 0.0252981)
(0.000236778 -0.000127272 0.0247763)
(0.000264776 0.000128053 0.0250331)
(-7.4681e-05 -0.000762672 0.0546983)
(0.000730884 -0.000949334 0.026188)
(0.000118133 -0.000453152 0.0252856)
(0.000341477 -0.00018278 0.0250109)
(-0.00131652 0.000109915 0.0436199)
(0.000659891 -0.00083913 0.0325893)
(0.000799491 -0.00027976 0.0299992)
(0.000529274 -0.00013253 0.0264135)
(0.00087024 -8.04636e-05 0.0256448)
(0.000965159 1.28759e-05 0.0255416)
(0.000716938 -6.33982e-05 0.027409)
(0.00049298 -0.000191615 0.0281241)
(-3.34546e-05 -0.00396666 0.0062182)
(-0.000115865 -0.00142415 0.00643277)
(-0.000483514 -0.000794709 0.00643596)
(-0.000439809 2.53244e-05 0.00665248)
(0.000541295 -0.00211733 0.0115939)
(0.0016966 -0.00154191 0.00730923)
(-4.08999e-05 -0.000868394 0.00675367)
(-0.000253942 -0.000249251 0.00642913)
(0.00106566 0.00157723 0.0102805)
(0.000941562 -0.000365316 0.0086758)
(0.000208178 -0.000524887 0.00755764)
(-0.000139735 -0.000469219 0.00659808)
(0.0012944 0.000809192 0.00774692)
(0.000265144 0.000283496 0.0072501)
(-4.7715e-05 3.96711e-05 0.00721999)
(-2.14044e-05 -0.00028505 0.00681309)
(5.93074e-05 -0.00169519 0.0161256)
(5.41035e-05 -0.000865003 0.0161157)
(-4.32359e-05 -0.000437753 0.016115)
(-1.55987e-05 4.75372e-05 0.0163268)
(0.000361136 -0.00118032 0.0186427)
(0.000717101 -0.000901984 0.0167824)
(0.000268604 -0.000524533 0.0163452)
(0.000111912 -8.31636e-05 0.0162327)
(0.000700381 0.000239957 0.0181087)
(0.000685323 -0.000267619 0.0171584)
(0.000487322 -0.000280681 0.0165869)
(0.000244592 -0.000107604 0.0162335)
(0.000896301 0.00023786 0.0168921)
(0.000506329 3.55871e-05 0.0165606)
(0.000424852 -9.9028e-05 0.0164311)
(0.00025381 -0.000119203 0.0162604)
(2.50614e-05 -0.000677939 0.013704)
(-5.10476e-05 -0.000425281 0.0136303)
(-0.000153253 -0.000232967 0.0135273)
(-0.000151794 -0.000100735 0.0134623)
(0.000167885 -0.000547194 0.0145052)
(0.000173135 -0.000421247 0.0139071)
(-1.40034e-05 -0.000237572 0.0135684)
(-7.46024e-05 -9.15239e-05 0.0133371)
(0.000325123 -0.000130186 0.0144855)
(0.000224909 -0.000239816 0.0140251)
(8.01541e-05 -0.000193971 0.0135725)
(-2.4214e-05 -0.00011592 0.0132215)
(0.000427064 -1.35335e-05 0.014012)
(0.000197057 -8.19076e-05 0.0137126)
(0.000106563 -9.90142e-05 0.0133716)
(2.46168e-05 -8.41117e-05 0.0130627)
(4.08975e-05 -0.000303018 0.0144012)
(2.33986e-05 -0.000208985 0.0143747)
(7.55718e-06 -0.000112578 0.014333)
(9.68691e-07 -2.52116e-05 0.014318)
(0.000112603 -0.000267104 0.0146238)
(0.000117953 -0.000210542 0.0144535)
(8.33675e-05 -0.000123437 0.0143194)
(4.06448e-05 -3.42761e-05 0.014252)
(0.000188749 -0.000100481 0.014622)
(0.000170016 -0.000123775 0.0144563)
(0.000142545 -9.4468e-05 0.0142711)
(7.37708e-05 -3.65158e-05 0.0141671)
(0.000241472 -2.17324e-05 0.0144457)
(0.000179165 -5.90972e-05 0.014332)
(0.00016287 -7.68938e-05 0.0141696)
(8.34113e-05 -4.84773e-05 0.0140732)
(3.06552e-05 -0.000136889 0.0144226)
(2.17232e-05 -0.000100404 0.0143922)
(1.31924e-05 -5.67513e-05 0.0143334)
(6.62217e-06 -2.2463e-05 0.0142662)
(6.5038e-05 -0.000129317 0.0144679)
(6.19998e-05 -0.000105287 0.0143881)
(4.80271e-05 -6.30914e-05 0.014281)
(2.4378e-05 -2.57578e-05 0.0141868)
(0.000100174 -6.99096e-05 0.0144278)
(8.97593e-05 -7.59047e-05 0.0143348)
(7.49941e-05 -5.78515e-05 0.0141972)
(3.55361e-05 -3.21149e-05 0.0140871)
(0.000124822 -2.40142e-05 0.0142834)
(0.000100798 -4.29991e-05 0.0142047)
(8.79992e-05 -4.98254e-05 0.0140673)
(4.22711e-05 -3.5323e-05 0.0139614)
(2.19004e-05 -6.42168e-05 0.0144371)
(1.97692e-05 -4.89877e-05 0.0144149)
(1.78094e-05 -2.84045e-05 0.0143713)
(1.37696e-05 -1.17605e-05 0.0143153)
(3.80129e-05 -6.2174e-05 0.014417)
(3.77427e-05 -5.18528e-05 0.0143756)
(3.44634e-05 -3.22096e-05 0.0143096)
(2.18901e-05 -1.40451e-05 0.014244)
(5.36679e-05 -3.91892e-05 0.0143498)
(5.16912e-05 -4.10923e-05 0.0143008)
(4.78106e-05 -3.16205e-05 0.0142205)
(2.69314e-05 -1.75856e-05 0.0141521)
(6.54343e-05 -1.55521e-05 0.0142231)
(5.98078e-05 -2.59662e-05 0.0141796)
(5.57614e-05 -3.04584e-05 0.0140989)
(2.93971e-05 -2.16567e-05 0.014038)
(1.43924e-05 -3.13347e-05 0.0144443)
(1.41168e-05 -2.45712e-05 0.0144252)
(1.32894e-05 -1.47105e-05 0.0143877)
(1.0651e-05 -6.7593e-06 0.0143341)
(2.18579e-05 -3.0585e-05 0.0143988)
(2.23339e-05 -2.6191e-05 0.0143704)
(2.09902e-05 -1.70202e-05 0.0143209)
(1.40062e-05 -8.51734e-06 0.014264)
(2.89244e-05 -2.08257e-05 0.0143173)
(2.9017e-05 -2.18841e-05 0.0142848)
(2.70918e-05 -1.73039e-05 0.0142285)
(1.57574e-05 -1.05686e-05 0.014173)
(3.4553e-05 -8.85141e-06 0.0141912)
(3.36525e-05 -1.46465e-05 0.0141613)
(3.10395e-05 -1.70929e-05 0.014106)
(1.68039e-05 -1.27255e-05 0.0140586)
(9.17877e-06 -1.58069e-05 0.014447)
(9.22293e-06 -1.26267e-05 0.0144298)
(8.62823e-06 -7.83058e-06 0.014396)
(7.01531e-06 -3.92417e-06 0.0143449)
(1.26567e-05 -1.54453e-05 0.0143908)
(1.31117e-05 -1.35165e-05 0.0143683)
(1.22712e-05 -9.21931e-06 0.0143274)
(8.4573e-06 -5.09646e-06 0.0142758)
(1.58926e-05 -1.09992e-05 0.0143022)
(1.63574e-05 -1.16588e-05 0.0142775)
(1.51287e-05 -9.51969e-06 0.0142338)
(9.10235e-06 -6.15186e-06 0.0141858)
(1.86898e-05 -4.90014e-06 0.0141744)
(1.8937e-05 -8.15868e-06 0.0141519)
(1.72217e-05 -9.57206e-06 0.0141111)
(9.62739e-06 -7.33974e-06 0.0140723)
(5.85249e-06 -8.18154e-06 0.0144477)
(5.86193e-06 -6.63761e-06 0.0144318)
(5.39855e-06 -4.28342e-06 0.0144)
(4.47328e-06 -2.42192e-06 0.0143503)
(7.48301e-06 -7.98496e-06 0.0143868)
(7.74897e-06 -7.13389e-06 0.0143672)
(7.12837e-06 -5.1411e-06 0.0143305)
(5.0453e-06 -3.17909e-06 0.0142816)
(8.98902e-06 -5.84861e-06 0.0142947)
(9.34302e-06 -6.28846e-06 0.0142738)
(8.46792e-06 -5.35687e-06 0.0142363)
(5.25458e-06 -3.70305e-06 0.0141921)
(1.04373e-05 -2.7116e-06 0.0141656)
(1.07707e-05 -4.5785e-06 0.0141469)
(9.60916e-06 -5.43315e-06 0.0141134)
(5.5719e-06 -4.33539e-06 0.0140788)
(3.76948e-06 -4.30909e-06 0.0144478)
(3.75202e-06 -3.54907e-06 0.0144327)
(3.42174e-06 -2.38478e-06 0.014402)
(2.91328e-06 -1.53201e-06 0.0143532)
(4.5523e-06 -4.19952e-06 0.0143848)
(4.68175e-06 -3.84335e-06 0.0143667)
(4.23736e-06 -2.94142e-06 0.0143322)
(3.10711e-06 -2.03765e-06 0.0142847)
(5.26377e-06 -3.1403e-06 0.0142909)
(5.46607e-06 -3.45136e-06 0.0142721)
(4.87023e-06 -3.08453e-06 0.0142377)
(3.14233e-06 -2.29049e-06 0.0141953)
(6.0471e-06 -1.51514e-06 0.014161)
(6.27393e-06 -2.61906e-06 0.0141444)
(5.51145e-06 -3.15235e-06 0.0141147)
(3.33428e-06 -2.6406e-06 0.0140823)
(2.46087e-06 -2.29231e-06 0.0144479)
(2.43753e-06 -1.92054e-06 0.0144332)
(2.21305e-06 -1.35376e-06 0.0144031)
(1.9248e-06 -9.79114e-07 0.0143547)
(2.84592e-06 -2.2472e-06 0.0143837)
(2.89061e-06 -2.10499e-06 0.0143664)
(2.58373e-06 -1.73368e-06 0.014333)
(1.97405e-06 -1.32509e-06 0.0142862)
(3.18673e-06 -1.70943e-06 0.0142889)
(3.27741e-06 -1.9369e-06 0.0142712)
(2.88718e-06 -1.81528e-06 0.0142384)
(1.94818e-06 -1.44475e-06 0.0141969)
(3.62511e-06 -8.62035e-07 0.0141585)
(3.74512e-06 -1.53804e-06 0.0141431)
(3.26052e-06 -1.88035e-06 0.0141154)
(2.06375e-06 -1.65599e-06 0.0140841)
(1.6371e-06 -1.23037e-06 0.0144478)
(1.61241e-06 -1.06123e-06 0.0144335)
(1.44621e-06 -7.78529e-07 0.0144037)
(1.29111e-06 -6.2366e-07 0.0143555)
(1.81199e-06 -1.21095e-06 0.0143832)
(1.82135e-06 -1.18598e-06 0.0143663)
(1.62178e-06 -1.04673e-06 0.0143335)
(1.29055e-06 -8.64241e-07 0.0142871)
(1.9778e-06 -9.38729e-07 0.0142879)
(2.01375e-06 -1.09792e-06 0.0142707)
(1.76684e-06 -1.08642e-06 0.0142388)
(1.24694e-06 -9.23331e-07 0.0141978)
(2.23656e-06 -4.99174e-07 0.0141573)
(2.29013e-06 -9.15212e-07 0.0141425)
(1.98277e-06 -1.14597e-06 0.0141157)
(1.31363e-06 -1.06006e-06 0.014085)
(1.09071e-06 -6.6258e-07 0.0144478)
(1.06924e-06 -5.8931e-07 0.0144337)
(9.5827e-07 -4.50999e-07 0.0144041)
(8.76486e-07 -3.94825e-07 0.014356)
(1.16879e-06 -6.57633e-07 0.0143829)
(1.16486e-06 -6.74645e-07 0.0143663)
(1.03849e-06 -6.32294e-07 0.0143338)
(8.55302e-07 -5.60425e-07 0.0142876)
(1.24905e-06 -5.16436e-07 0.0142873)
(1.25979e-06 -6.29824e-07 0.0142705)
(1.10474e-06 -6.58017e-07 0.014239)
(8.11741e-07 -5.92033e-07 0.0141983)
(1.4042e-06 -2.88605e-07 0.0141566)
(1.42089e-06 -5.50887e-07 0.0141422)
(1.22878e-06 -7.08276e-07 0.014116)
(8.47981e-07 -6.83796e-07 0.0140856)
(7.31679e-07 -3.53002e-07 0.0144478)
(7.13842e-07 -3.2381e-07 0.0144337)
(6.41347e-07 -2.58676e-07 0.0144042)
(5.9557e-07 -2.46742e-07 0.0143563)
(7.6407e-07 -3.54481e-07 0.0143827)
(7.54976e-07 -3.82669e-07 0.0143663)
(6.73947e-07 -3.79271e-07 0.014334)
(5.69078e-07 -3.56687e-07 0.0142878)
(8.00357e-07 -2.82482e-07 0.0142871)
(7.98768e-07 -3.62633e-07 0.0142704)
(7.00549e-07 -3.99373e-07 0.0142391)
(5.31277e-07 -3.76819e-07 0.0141986)
(8.91209e-07 -1.67271e-07 0.0141562)
(8.89256e-07 -3.3272e-07 0.0141421)
(7.67985e-07 -4.38654e-07 0.0141161)
(5.47592e-07 -4.38821e-07 0.0140859)
(5.25672e-07 -1.7603e-07 0.0144478)
(5.07524e-07 -1.69205e-07 0.0144338)
(4.59871e-07 -1.46893e-07 0.0144044)
(4.24105e-07 -1.53908e-07 0.0143564)
(5.33904e-07 -1.80829e-07 0.0143826)
(5.20908e-07 -2.09833e-07 0.0143663)
(4.65187e-07 -2.22092e-07 0.014334)
(3.95873e-07 -2.23613e-07 0.014288)
(5.45416e-07 -1.46585e-07 0.0142869)
(5.3597e-07 -2.06763e-07 0.0142704)
(4.69416e-07 -2.41562e-07 0.0142392)
(3.6405e-07 -2.39583e-07 0.0141987)
(5.9193e-07 -9.45919e-08 0.014156)
(5.78519e-07 -2.02196e-07 0.014142)
(4.97743e-07 -2.73758e-07 0.0141162)
(3.63963e-07 -2.83567e-07 0.014086)
(4.96614e-07 -5.86958e-08 0.0144478)
(4.69234e-07 -7.40468e-08 0.0144339)
(4.19146e-07 -8.33065e-08 0.0144045)
(3.65224e-07 -1.0311e-07 0.0143566)
(4.87953e-07 -7.00279e-08 0.0143826)
(4.60539e-07 -1.05328e-07 0.0143663)
(4.02949e-07 -1.29439e-07 0.0143342)
(3.32461e-07 -1.45132e-07 0.0142882)
(4.81302e-07 -6.73824e-08 0.0142869)
(4.52688e-07 -1.23514e-07 0.0142704)
(3.85945e-07 -1.60509e-07 0.0142393)
(2.9765e-07 -1.72525e-07 0.0141989)
(4.87367e-07 -5.67859e-08 0.014156)
(4.55343e-07 -1.38201e-07 0.014142)
(3.79499e-07 -1.92433e-07 0.0141163)
(2.77017e-07 -2.06764e-07 0.0140862)
(0.00346937 -0.000556571 0.02603)
(0.00590431 0.00123387 0.0323889)
(0.00243698 -0.000341651 0.0113399)
(0.00114954 -0.0011822 0.0162294)
(0.00224849 -0.00257708 0.0209518)
(0.00295429 -0.00121274 0.0210669)
(0.00067207 -0.00100372 0.0127067)
(0.000493564 -0.00103133 0.0164062)
(-0.000800219 -0.000337873 0.00268731)
(0.00130951 0.000363743 0.0208793)
(0.00206042 0.00169307 0.0210738)
(0.00112189 0.00211509 0.0235542)
(-0.00676559 0.00667849 0.0375198)
(0.000200626 0.00110171 0.0122816)
(0.00211187 0.00576943 0.0239908)
(-0.000443274 0.00317151 0.0202838)
(-0.00249111 -0.00184749 0.0196752)
(0.00309061 -0.000860433 0.0154302)
(0.0138621 0.00124093 0.0527257)
(0.00294342 -0.00541319 0.0457538)
(0.00149084 0.000753014 0.0110381)
(0.00183715 0.00374005 0.0278018)
(0.00325703 -0.00199535 0.0391499)
(0.00141102 -0.00330089 0.0308151)
(0.00247646 -3.91983e-06 0.0284663)
(-0.000473505 -0.000881952 0.016778)
(0.000389666 -0.0010993 0.0088721)
(0.00153339 -0.00145685 0.030811)
(-0.00529806 0.00158604 0.024424)
(-0.00044045 -0.000311841 0.00422969)
(-0.000615837 0.000806915 0.0214941)
(0.000349725 0.00122787 0.0371606)