/*--------------------------------*- C++ -*----------------------------------*\
| =========                 |                                                 |
| \\      /  F ield         | OpenFOAM: The Open Source CFD Toolbox           |
|  \\    /   O peration     | Version:  2506                                  |
|   \\  /    A nd           | Website:  www.openfoam.com                      |
|    \\/     M anipulation  |                                                 |
\*---------------------------------------------------------------------------*/
FoamFile
{
    version     2.0;
    format      ascii;
    arch        "LSB;label=32;scalar=64";
    class       volScalarField;
    location    "0.07";
    object      voidfraction;
}
// * * * * * * * * * * * * * * * * * * * * * * * * * * * * * * * * * * * * * //

dimensions      [0 0 0 0 0 0 0];

internalField   nonuniform List<scalar> 
1152
(
0.570764
0.41803
0.415396
0.339029
0.547064
0.436463
0.428563
0.431196
0.341663
0.44173
0.407496
0.478597
0.44963
0.420663
0.46543
0.462797
0.51283
0.41803
0.46543
0.444363
0.475963
0.43383
0.396963
0.396963
0.349563
0.462797
0.39433
0.41803
0.444363
0.415396
0.47333
0.378529
0.354829
0.357463
0.375896
0.428563
0.323229
0.383796
0.373263
0.375896
0.428563
0.412763
0.407496
0.39433
0.39433
0.389063
0.399596
0.431196
0.267929
0.370629
0.444363
0.399596
0.439097
0.367996
0.39433
0.362729
0.381163
0.40223
0.383796
0.439097
0.436463
0.399596
0.428563
0.444363
0.331129
0.499664
0.378529
0.339029
0.357463
0.370629
0.45753
0.42593
0.38643
0.404863
0.41803
0.452263
0.42593
0.365363
0.381163
0.45753
0.48913
0.415396
0.404863
0.428563
0.483863
0.41803
0.40223
0.389063
0.352196
0.370629
0.381163
0.40223
0.460163
0.333763
0.444363
0.462797
0.486497
0.525997
0.562864
0.683998
0.583931
0.665565
0.712965
0.794599
0.589197
0.565497
0.655031
0.736665
0.47333
0.710332
0.581297
0.623431
1
1
1
1
1
1
1
1
1
1
1
1
1
1
1
1
1
1
1
1
1
1
1
1
1
1
1
1
1
1
1
1
1
1
1
1
1
1
1
1
1
1
1
1
1
1
1
1
1
1
1
1
1
1
1
1
1
1
1
1
1
1
1
1
1
1
1
1
1
1
1
1
1
1
1
1
1
1
1
1
1
1
1
1
1
1
1
1
1
1
1
1
1
1
1
1
1
1
1
1
1
1
1
1
1
1
1
1
1
1
1
1
1
1
1
1
1
1
1
1
1
1
1
1
1
1
1
1
1
1
1
1
1
1
1
1
1
1
1
1
1
1
1
1
1
1
1
1
1
1
1
1
1
1
1
1
1
1
1
1
1
1
1
1
1
1
1
1
1
1
1
1
1
1
1
1
1
1
1
1
1
1
1
1
1
1
1
1
1
1
1
1
1
1
1
1
1
1
1
1
1
1
1
1
1
1
1
1
1
1
1
1
1
1
1
1
1
1
1
1
1
1
1
1
1
1
1
1
1
1
1
1
1
1
1
1
1
1
1
1
1
1
1
1
1
1
1
1
1
1
1
1
1
1
1
1
1
1
1
1
1
1
1
1
1
1
1
1
1
1
1
1
0.463745
0.390948
0.496098
0.421705
0.403047
0.392208
0.434943
0.408839
0.489644
0.435479
0.459173
0.480198
0.382564
0.403512
0.480367
0.484719
0.428663
0.390948
0.451164
0.469896
0.429578
0.411202
0.354616
0.401586
0.422388
0.458737
0.456737
0.480198
0.497103
0.472117
0.406444
0.492813
0.358499
0.40719
0.386972
0.334084
0.365461
0.439692
0.410014
0.463241
0.396673
0.359364
0.47379
0.409035
0.387933
0.445437
0.415141
0.487417
0.378546
0.420724
0.345248
0.404181
0.378727
0.406454
0.426633
0.459614
0.426344
0.422793
0.437248
0.399753
0.400461
0.382549
0.412967
0.44695
0.411122
0.469448
0.393391
0.369133
0.469375
0.382712
0.398934
0.405212
0.343263
0.460851
0.456737
0.365718
0.368247
0.380643
0.382528
0.428065
0.501333
0.404483
0.409439
0.329703
0.361039
0.43257
0.371235
0.394332
0.418432
0.41645
0.415322
0.384283
0.402251
0.420663
0.428186
0.401087
0.53391
0.621034
0.630899
0.653899
0.717
0.643872
0.703622
0.666339
0.71515
0.75474
0.700353
0.715347
0.774502
0.731294
0.702135
0.678961
1
1
1
1
1
1
1
1
1
1
1
1
1
1
1
1
1
1
1
1
1
1
1
1
1
1
1
1
1
1
1
1
1
1
1
1
1
1
1
1
1
1
1
1
1
1
1
1
1
1
1
1
1
1
1
1
1
1
1
1
1
1
1
1
1
1
1
1
1
1
1
1
1
1
1
1
1
1
1
1
1
1
1
1
1
1
1
1
1
1
1
1
1
1
1
1
1
1
1
1
1
1
1
1
1
1
1
1
1
1
1
1
1
1
1
1
1
1
1
1
1
1
1
1
1
1
1
1
1
1
1
1
1
1
1
1
1
1
1
1
1
1
1
1
1
1
1
1
1
1
1
1
1
1
1
1
1
1
1
1
1
1
1
1
1
1
1
1
1
1
1
1
1
1
1
1
1
1
1
1
1
1
1
1
1
1
1
1
1
1
1
1
1
1
1
1
1
1
1
1
1
1
1
1
1
1
1
1
1
1
1
1
1
1
1
1
1
1
1
1
1
1
1
1
1
1
1
1
1
1
1
1
1
1
1
1
1
1
1
1
1
1
1
1
1
1
1
1
1
1
1
1
1
1
1
1
1
1
1
1
1
1
1
1
1
1
1
1
1
1
1
1
0.488804
0.522438
0.416454
0.438044
0.428845
0.446815
0.433365
0.434003
0.335619
0.426633
0.432375
0.476018
0.483039
0.397959
0.452352
0.490115
0.393581
0.36325
0.479754
0.464889
0.369293
0.411202
0.462965
0.430192
0.40623
0.379545
0.361727
0.43036
0.439229
0.347184
0.424505
0.476626
0.383558
0.325664
0.418432
0.448782
0.436965
0.425447
0.429136
0.3997
0.390182
0.451562
0.383652
0.434709
0.447991
0.354438
0.412129
0.44695
0.426158
0.434
0.459973
0.473837
0.372
0.411202
0.414336
0.458777
0.396601
0.465412
0.405578
0.478192
0.395419
0.347184
0.384283
0.390296
0.41864
0.387571
0.382826
0.398671
0.344931
0.43257
0.429136
0.374926
0.348457
0.426633
0.349546
0.439057
0.452372
0.448733
0.418317
0.411879
0.453722
0.442844
0.469863
0.414778
0.396362
0.413576
0.420679
0.43972
0.383763
0.484801
0.398269
0.432534
0.325322
0.347184
0.393565
0.428065
0.659203
0.69268
0.693391
0.643856
0.718483
0.677111
0.824512
0.704614
0.691881
0.645454
0.637013
0.591251
0.57066
0.532149
0.58849
0.549467
1
1
1
1
1
1
1
1
1
1
1
1
1
1
1
1
1
1
1
1
1
1
1
1
1
1
1
1
1
1
1
1
1
1
1
1
1
1
1
1
1
1
1
1
1
1
1
1
1
1
1
1
1
1
1
1
1
1
1
1
1
1
1
1
1
1
1
1
1
1
1
1
1
1
1
1
1
1
1
1
1
1
1
1
1
1
1
1
1
1
1
1
1
1
1
1
1
1
1
1
1
1
1
1
1
1
1
1
1
1
1
1
1
1
1
1
1
1
1
1
1
1
1
1
1
1
1
1
1
1
1
1
1
1
1
1
1
1
1
1
1
1
1
1
1
1
1
1
1
1
1
1
1
1
1
1
1
1
1
1
1
1
1
1
1
1
1
1
1
1
1
1
1
1
1
1
1
1
1
1
1
1
1
1
1
1
1
1
1
1
1
1
1
1
1
1
1
1
1
1
1
1
1
1
1
1
1
1
1
1
1
1
1
1
1
1
1
1
1
1
1
1
1
1
1
1
1
1
1
1
1
1
1
1
1
1
1
1
1
1
1
1
1
1
1
1
1
1
1
1
1
1
1
1
1
1
1
1
1
1
1
1
1
1
1
1
1
1
1
1
1
1
)
;

boundaryField
{
    inlet
    {
        type            fixedValue;
        value           uniform 1;
    }
    outlet
    {
        type            fixedValue;
        value           uniform 1;
    }
    wall
    {
        type            zeroGradient;
    }
    procBoundary3to1
    {
        type            processor;
        value           nonuniform List<scalar> 
192
(
0.41013
0.44173
0.510197
0.515464
0.404863
0.375896
0.328496
0.42593
0.40223
0.454897
0.470697
0.41013
0.339029
0.381163
0.431196
0.341663
0.462797
0.299529
0.446997
0.423296
0.44963
0.378529
0.439097
0.439097
0.470697
0.623431
0.794599
0.752465
0.997367
1
1
1
1
1
1
1
1
1
1
1
1
1
1
1
1
1
1
1
1
1
1
1
1
1
1
1
1
1
1
1
1
1
1
1
1
1
1
1
1
1
1
1
1
1
1
1
1
1
1
1
1
1
1
1
1
1
1
1
1
1
1
1
1
1
1
1
0.353487
0.387571
0.473819
0.450572
0.41864
0.343352
0.428323
0.366457
0.426158
0.394203
0.376891
0.470258
0.416134
0.414102
0.367001
0.377195
0.386064
0.411891
0.434257
0.493524
0.38857
0.418524
0.386782
0.377195
0.694285
0.723633
0.853619
0.808505
1
1
1
1
1
1
1
1
1
1
1
1
1
1
1
1
1
1
1
1
1
1
1
1
1
1
1
1
1
1
1
1
1
1
1
1
1
1
1
1
1
1
1
1
1
1
1
1
1
1
1
1
1
1
1
1
1
1
1
1
1
1
1
1
1
1
1
1
)
;
    }
    procBoundary3to2
    {
        type            processor;
        value           nonuniform List<scalar> 
192
(
0.357463
0.339029
0.525997
0.44963
0.320596
0.436463
0.431196
0.39433
0.48123
0.475963
0.40223
0.352196
0.44963
0.420663
0.423296
0.357463
0.44963
0.365363
0.468063
0.315329
0.310062
0.42593
0.389063
0.325862
0.615531
0.547064
0.602364
0.591831
1
1
1
1
1
1
1
1
1
1
1
1
1
1
1
1
1
1
1
1
1
1
1
1
1
1
1
1
1
1
1
1
1
1
1
1
1
1
1
1
1
1
1
1
1
1
1
1
1
1
1
1
1
1
1
1
1
1
1
1
1
1
1
1
1
1
1
1
0.406111
0.434
0.459973
0.445203
0.361005
0.391992
0.414476
0.400461
0.46124
0.478219
0.384804
0.396882
0.443699
0.383149
0.382826
0.432675
0.401099
0.378727
0.422388
0.40404
0.371029
0.469375
0.327438
0.493524
0.70932
0.64625
0.788341
0.833561
1
1
1
1
1
1
1
1
1
1
1
1
1
1
1
1
1
1
1
1
1
1
1
1
1
1
1
1
1
1
1
1
1
1
1
1
1
1
1
1
1
1
1
1
1
1
1
1
1
1
1
1
1
1
1
1
1
1
1
1
1
1
1
1
1
1
1
1
)
;
    }
}


// ************************************************************************* //
