/*--------------------------------*- C++ -*----------------------------------*\
| =========                 |                                                 |
| \\      /  F ield         | OpenFOAM: The Open Source CFD Toolbox           |
|  \\    /   O peration     | Version:  2506                                  |
|   \\  /    A nd           | Website:  www.openfoam.com                      |
|    \\/     M anipulation  |                                                 |
\*---------------------------------------------------------------------------*/
FoamFile
{
    version     2.0;
    format      ascii;
    arch        "LSB;label=32;scalar=64";
    class       volScalarField;
    location    "0.1";
    object      Ksl;
}
// * * * * * * * * * * * * * * * * * * * * * * * * * * * * * * * * * * * * * //

dimensions      [1 -3 -1 0 0 0 0];

internalField   nonuniform List<scalar> 
4608
(
131927
129764
156440
176731
129004
82467.4
148973
163205
164016
109586
108562
164149
101405
176703
141692
235072
126312
187380
221055
184365
152122
143020
250386
103358
174064
75628.1
155518
102973
134747
221582
183230
270081
126516
226439
323210
164535
200970
209065
122342
231476
141610
235276
129135
165629
110698
164295
231093
113676
133036
144753
154946
257430
76427
196619
208054
136244
230739
267873
163585
152358
291183
222237
140453
89845.1
196193
115491
222678
111493
319460
109215
233607
134980
125855
162601
119693
148395
122904
140926
127038
126994
133919
116293
166076
168083
150247
167753
102162
158466
128967
120187
129736
127799
139160
126847
154757
88740.3
136678
135856
115596
93401.8
110627
60107.2
193063
202957
185655
128581
151042
187756
139867
126660
117716
159126
201306
76600
113775
136413
144826
133396
94339.3
166153
129403
134249
124543
162770
106035
72240.9
109067
192286
215869
205595
245044
261792
218347
147413
246689
250737
286873
160292
198808
312400
203832
201575
238236
262709
226891
169555
268228
204367
345832
217964
246276
243464
177247
343181
338147
161026
213912
346380
188087
319621
630919
180789
233213
278060
215659
399057
196617
114495
242433
243918
255766
213471
329088
249562
181308
284481
204203
339954
335267
314932
308080
254884
284616
252807
262970
128192
189665
380171
140212
170675
257915
232035
180617
158991
278235
178997
394428
325112
256394
235379
228059
257104
231450
328970
206651
279626
196900
240113
215560
245135
253934
272521
250549
297041
258835
235055
153413
319442
307629
379840
229169
168593
198693
263701
231086
211609
159368
170143
335668
253314
248684
176079
185210
313171
224190
228785
254831
233721
315902
302846
331145
205251
238002
170416
357844
199528
233341
279991
162589
316982
198986
235717
476955
212672
179890
207067
184173
227366
223525
268815
191293
245426
259631
214682
237831
256811
137191
120256
405117
234912
255428
213039
270370
207662
388027
276346
234417
196147
267814
176341
291530
318250
473311
313355
227721
155993
342809
174952
301334
219850
172982
249764
156945
490420
161476
414211
300481
291430
212597
282318
190118
367384
264109
242272
138699
306922
190760
259309
233874
214108
374143
197179
219988
377346
357520
197219
243457
342357
191460
234511
199452
240346
291818
111906
361415
196249
266773
263363
122180
257482
249277
304416
247383
412430
208755
214542
156010
345048
209713
164601
255260
218582
209540
339362
381923
150775
204356
149299
384407
185633
279024
149834
155412
484233
235184
251800
196684
186179
241837
231837
209502
280080
321965
345233
217530
243857
197752
224678
162521
269386
167589
239046
219383
252788
313784
205990
206427
246621
307095
362312
173149
248881
216929
287626
34849.2
49711.6
66618.3
93594.9
86062.8
168381
120979
72468.3
115248
50403.1
181590
146251
153984
185319
215114
113586
61753.3
98432.2
173946
252156
145423
113307
303623
146432
61768.5
76575.8
91659.9
106049
373125
156941
160827
110409
77942.2
72854.3
106516
137403
90736.4
120383
120074
61806.8
122330
100619
136717
142991
96304.9
210495
72108.5
34757
33466.6
59269.3
124749
82611.8
119501
75920.6
86076.1
77967.7
64138.7
94194
139379
61674.2
78821
60816.1
60408.4
81519.1
0
0
0
0
0
0
0
0
0
0
119.973
149.461
982.838
154.989
485.517
0
0
0
268.452
86.7656
123.294
109.582
498.7
0
0
0
1057.5
600.652
43.0844
1992.18
2687.31
0
0
0
0
0
0
362.571
0
0
0
0
0
0
0
0
0
0
0
0
0
0
0
0
0
0
0
0
0
0
0
0
0
0
0
0
0
0
0
0
0
0
0
0
0
0
0
0
0
0
0
0
0
0
0
0
0
0
0
0
0
0
0
0
0
0
0
0
0
0
0
0
0
0
0
0
0
0
0
0
0
0
0
0
0
0
0
0
0
0
0
0
0
0
0
0
0
0
0
0
0
0
0
0
0
0
0
0
0
0
0
0
0
0
0
0
0
0
0
0
0
0
0
0
0
0
0
0
0
0
0
0
0
0
0
0
0
0
0
0
0
0
0
0
0
0
0
0
0
0
0
0
0
0
0
0
0
0
0
0
0
0
0
0
0
0
0
0
0
0
0
0
0
0
0
0
0
0
0
0
0
0
0
0
0
0
0
0
0
0
0
0
0
0
0
0
0
0
0
0
0
0
0
0
0
0
0
0
0
0
0
0
0
0
0
0
0
0
0
0
0
0
0
0
0
0
0
0
0
0
0
0
0
0
0
0
0
0
0
0
0
0
0
0
0
0
0
0
0
0
0
0
0
0
0
0
0
0
0
0
0
0
0
0
0
0
0
0
0
0
0
0
0
0
0
0
0
0
0
0
0
0
0
0
0
0
0
0
0
0
0
0
0
0
0
0
0
0
0
0
0
0
0
0
0
0
0
0
0
0
0
0
0
0
0
0
0
0
0
0
0
0
0
0
0
0
0
0
0
0
0
0
0
0
0
0
0
0
0
0
0
0
0
0
0
0
0
0
0
0
0
0
0
0
0
0
0
0
0
0
0
0
0
0
0
0
0
0
0
0
0
0
0
0
0
0
0
0
0
0
0
0
0
0
0
0
0
0
0
0
0
0
0
0
0
0
0
0
0
0
0
0
0
0
0
0
0
0
0
0
0
0
0
0
0
0
0
0
0
0
0
0
0
0
0
0
0
0
0
0
0
0
0
0
0
0
0
0
0
0
0
0
0
0
0
0
0
0
0
0
0
0
0
0
0
0
0
0
0
0
0
0
0
0
0
0
0
0
0
0
0
0
0
0
0
0
0
0
0
0
0
0
0
0
0
0
0
0
0
0
0
0
0
0
0
0
0
0
0
0
0
0
0
0
0
0
0
0
0
0
0
0
0
0
0
0
0
0
0
0
0
0
0
0
0
0
0
0
0
0
0
0
0
0
0
0
0
0
0
0
0
0
0
0
0
0
0
0
0
0
0
0
0
0
0
0
0
0
0
0
0
0
0
0
0
0
0
0
0
0
0
0
0
0
0
0
0
0
0
0
0
0
0
0
0
0
0
0
0
0
0
0
0
0
0
0
0
0
0
0
0
0
0
0
0
0
0
0
0
0
0
0
0
0
0
0
0
0
0
0
0
0
0
0
0
0
0
0
0
0
0
0
0
0
0
0
0
0
0
0
0
0
0
0
0
0
0
0
0
0
0
0
0
0
0
0
0
0
0
0
0
0
0
0
0
0
0
0
0
0
0
0
0
0
0
0
0
0
0
0
0
0
0
0
0
0
0
0
0
0
0
0
0
0
0
0
0
0
0
0
0
0
0
0
0
0
0
0
0
0
0
0
0
0
0
0
0
0
0
0
0
0
0
0
0
0
0
0
0
0
0
0
0
0
0
0
0
0
0
0
0
0
0
0
0
0
0
0
0
0
0
0
0
0
0
0
0
0
0
0
0
0
0
0
0
0
0
0
0
0
0
0
0
0
0
0
0
0
0
0
0
0
0
0
0
0
0
0
0
0
0
0
0
0
0
0
0
0
0
0
0
0
0
0
0
0
0
0
0
0
0
0
0
0
0
0
0
0
0
0
0
0
0
0
0
0
0
0
0
0
0
0
0
0
0
0
0
0
0
0
0
0
0
0
0
0
0
0
0
0
0
0
0
0
0
0
0
0
0
0
0
0
0
0
0
0
0
0
0
0
0
0
0
0
0
0
0
0
0
0
0
0
0
0
0
0
0
0
0
0
0
0
0
0
0
0
0
0
0
0
0
0
0
0
0
0
0
0
0
0
0
0
0
0
0
0
0
0
0
0
0
0
0
0
0
0
0
0
0
0
0
0
0
0
0
0
0
0
0
0
0
0
0
0
0
0
0
0
0
0
0
0
0
0
0
0
0
0
0
0
0
0
0
0
0
0
0
0
0
0
0
0
0
0
0
0
0
0
0
0
0
0
0
0
0
0
0
0
0
0
0
0
0
0
0
0
0
0
0
0
0
0
0
0
0
0
0
0
0
0
0
0
0
0
0
0
0
0
0
0
0
0
0
0
0
0
0
0
0
0
0
0
0
0
0
0
0
0
0
0
0
0
0
0
0
0
0
0
0
0
0
0
0
0
0
0
0
0
128442
207977
185203
138110
126616
154234
142962
224618
216336
144112
122280
215584
190335
244369
182126
158048
131327
163605
158668
152832
162179
223875
126397
202911
168259
155516
203862
141845
155941
160776
150783
163355
324244
98613.4
170826
157242
152236
132742
157712
377236
153480
159396
130341
210880
103476
100826
161297
194155
187986
107999
104606
147582
118107
128897
149012
140043
120692
151708
112353
107429
205181
157603
170714
127445
334685
237748
353931
157375
258998
279055
242133
142379
339285
311044
201999
199676
367645
262312
225484
255882
166060
148313
202476
230360
315258
179081
200802
364155
217390
320275
180913
247295
222084
236935
203735
167483
125130
307087
164084
241006
212823
292027
231392
213195
277686
161980
293312
255322
317142
163889
320499
319533
307150
290569
164094
111978
387392
236580
179539
232473
230683
190007
319909
134008
299374
197293
128354
208230
213677
197912
185971
235206
259236
167020
152949
413919
246829
219982
234355
315488
229831
271147
240383
258232
255667
263366
367682
225179
183941
202106
261218
187014
200549
245262
222884
217715
241185
232075
182348
124035
86446.3
282511
150518
382063
229095
251232
196407
207083
313374
331778
234673
150250
317671
347351
197832
187565
302880
209310
290677
336884
138212
261714
153094
293178
217542
249600
141529
147951
351639
251060
150953
170318
83209
91495.3
81166.7
83496.9
78882.4
39055.3
63537.4
73167.7
122148
99757.6
86637.2
133278
99904.3
71887.5
57880.2
37344.8
76929.7
41015.9
98069.3
102523
41625
121315
58957.4
117572
65095.6
59869.8
80785.8
150835
51166.1
74077
170989
67591.6
0
0
0
0
0
0
0
0
0
0
0
0
0
0
0
0
3488.54
0
0
0
0
0
0
0
0
0
0
1221.93
0
0
0
0
0
0
0
0
0
0
0
0
0
0
0
0
0
0
0
0
0
0
0
0
0
0
0
0
0
0
0
0
0
0
0
0
0
0
0
0
0
0
0
0
0
0
0
0
0
0
0
0
0
0
0
0
0
0
0
0
0
0
0
0
0
0
0
0
0
0
0
0
0
0
0
0
0
0
0
0
0
0
0
0
0
0
0
0
0
0
0
0
0
0
0
0
0
0
0
0
0
0
0
0
0
0
0
0
0
0
0
0
0
0
0
0
0
0
0
0
0
0
0
0
0
0
0
0
0
0
0
0
0
0
0
0
0
0
0
0
0
0
0
0
0
0
0
0
0
0
0
0
0
0
0
0
0
0
0
0
0
0
0
0
0
0
0
0
0
0
0
0
0
0
0
0
0
0
0
0
0
0
0
0
0
0
0
0
0
0
0
0
0
0
0
0
0
0
0
0
0
0
0
0
0
0
0
0
0
0
0
0
0
0
0
0
0
0
0
0
0
0
0
0
0
0
0
0
0
0
0
0
0
0
0
0
0
0
0
0
0
0
0
0
0
0
0
0
0
0
0
0
0
0
0
0
0
0
0
0
0
0
0
0
0
0
0
0
0
0
0
0
0
0
0
0
0
0
0
0
0
0
0
0
0
0
0
0
0
0
0
0
0
0
0
0
0
0
0
0
0
0
0
0
0
0
0
0
0
0
0
0
0
0
0
0
0
0
0
0
0
0
0
0
0
0
0
0
0
0
0
0
0
0
0
0
0
0
0
0
0
0
0
0
0
0
0
0
0
0
0
0
0
0
0
0
0
0
0
0
0
0
0
0
0
0
0
0
0
0
0
0
0
0
0
0
0
0
0
0
0
0
0
0
0
0
0
0
0
0
0
0
0
0
0
0
0
0
0
0
0
0
0
0
0
0
0
0
0
0
0
0
0
0
0
0
0
0
0
0
0
0
0
0
0
0
0
0
0
0
0
0
0
0
0
0
0
0
0
0
0
0
0
0
0
0
0
0
0
0
0
0
0
0
0
0
0
0
0
0
0
0
0
0
0
0
0
0
0
0
0
0
0
0
0
0
0
0
0
0
0
0
0
0
0
0
0
0
0
0
0
0
0
0
0
0
0
0
0
0
0
0
0
0
0
0
0
0
0
0
0
0
0
0
0
0
215038
115960
105564
141396
138748
227554
171280
223999
180487
159493
100199
196899
117975
179920
219721
131988
156659
109423
135703
196561
140305
177449
185669
206278
162346
119387
137094
148365
139306
223279
135409
184546
116456
182188
133910
93644.1
140414
62606.2
133725
205852
124420
170668
184603
224595
107725
212025
296338
107809
240268
117945
75615.5
199403
206626
190500
71222.9
161976
89878.7
126199
216472
100660
55274.4
153583
70901.6
108769
180384
218225
280245
254095
235919
210406
179707
183507
217997
197279
239803
316798
297317
172330
149642
182660
127835
262157
257690
223584
192886
150455
190690
335841
157955
195154
266303
255539
205454
238492
257169
143967
236109
271214
162998
603483
176028
169472
213648
195975
239225
214566
179760
271339
270874
351700
255204
302057
251587
96274.3
189820
213144
161372
290857
177269
362591
224554
235086
251760
176839
185685
168395
299555
307853
238860
195503
120769
220544
285137
157849
435226
167928
195757
272651
270486
413983
177218
231201
175423
277452
224008
188506
248552
277388
254621
204577
227418
189639
292169
189762
217927
318976
122768
426065
138246
689173
88394.7
249354
319219
115166
249248
215011
305166
295430
252195
218575
149502
219331
202454
192421
259071
207814
207721
239863
224505
210372
260139
307910
261909
337316
230064
176462
336649
217659
200120
241433
355935
358307
116563
82924.6
45536.7
47097.3
153587
138301
117916
111831
140692
110633
112370
129443
69712.9
172563
97813.7
109464
175729
90440.7
88244.6
145078
112767
79113.3
79502.8
81355.4
159727
42452.4
70562.4
81144.2
98271.3
130591
61694.5
108498
0
0
0
0
1346.09
0
0
0
383.614
0
0
0
0
683.704
6525.47
0
429.188
0
0
0
0
0
0
0
233.473
0
0
0
0
0
0
0
0
0
0
0
0
0
0
0
0
0
0
0
0
0
0
0
0
0
0
0
0
0
0
0
0
0
0
0
0
0
0
0
0
0
0
0
0
0
0
0
0
0
0
0
0
0
0
0
0
0
0
0
0
0
0
0
0
0
0
0
0
0
0
0
0
0
0
0
0
0
0
0
0
0
0
0
0
0
0
0
0
0
0
0
0
0
0
0
0
0
0
0
0
0
0
0
0
0
0
0
0
0
0
0
0
0
0
0
0
0
0
0
0
0
0
0
0
0
0
0
0
0
0
0
0
0
0
0
0
0
0
0
0
0
0
0
0
0
0
0
0
0
0
0
0
0
0
0
0
0
0
0
0
0
0
0
0
0
0
0
0
0
0
0
0
0
0
0
0
0
0
0
0
0
0
0
0
0
0
0
0
0
0
0
0
0
0
0
0
0
0
0
0
0
0
0
0
0
0
0
0
0
0
0
0
0
0
0
0
0
0
0
0
0
0
0
0
0
0
0
0
0
0
0
0
0
0
0
0
0
0
0
0
0
0
0
0
0
0
0
0
0
0
0
0
0
0
0
0
0
0
0
0
0
0
0
0
0
0
0
0
0
0
0
0
0
0
0
0
0
0
0
0
0
0
0
0
0
0
0
0
0
0
0
0
0
0
0
0
0
0
0
0
0
0
0
0
0
0
0
0
0
0
0
0
0
0
0
0
0
0
0
0
0
0
0
0
0
0
0
0
0
0
0
0
0
0
0
0
0
0
0
0
0
0
0
0
0
0
0
0
0
0
0
0
0
0
0
0
0
0
0
0
0
0
0
0
0
0
0
0
0
0
0
0
0
0
0
0
0
0
0
0
0
0
0
0
0
0
0
0
0
0
0
0
0
0
0
0
0
0
0
0
0
0
0
0
0
0
0
0
0
0
0
0
0
0
0
0
0
0
0
0
0
0
0
0
0
0
0
0
0
0
0
0
0
0
0
0
0
0
0
0
0
0
0
0
0
0
0
0
0
0
0
0
0
0
0
0
0
0
0
0
0
0
0
0
0
0
0
0
0
0
0
0
0
0
0
0
0
0
0
0
0
0
0
0
0
0
0
0
0
0
0
0
0
0
0
0
0
0
0
0
0
0
0
0
0
0
0
0
0
0
0
0
0
0
0
0
0
0
0
133558
141668
216856
195065
165415
207161
106432
218644
217678
132587
184368
100499
242486
209452
162576
145102
163335
236706
164729
229181
142884
140047
166546
144414
177690
181589
113085
311663
138124
181399
165915
215036
116322
174742
106064
80883.7
156916
112494
105414
142494
130130
144857
106197
146611
195949
95497.9
189161
141172
115496
152161
114077
121278
143782
149717
119263
62845.8
131123
220889
100288
147998
105660
123326
153906
151352
196666
189258
240233
169965
259568
201581
225219
173932
371218
269237
197011
226274
136890
234466
304387
261561
152698
198377
304702
256876
219717
190107
170530
248228
196210
336898
214856
205597
364504
351818
217089
220919
143668
244229
224182
281297
213169
284360
224277
143803
136135
168140
238930
246360
250872
214545
230004
246625
304689
277426
362021
180244
198462
181726
258648
185723
279794
238786
197369
215480
229000
185477
240909
253693
183336
226041
198505
156311
210323
201984
151114
188614
239697
275740
158983
275828
216779
350295
163995
240033
161681
175458
223960
419304
141821
163338
203943
390993
257361
287858
254059
305763
372267
224221
350749
228249
187869
290115
249806
272144
221233
190211
278368
190735
315638
219270
175218
358514
178928
252010
246783
218771
145635
243979
298426
245144
215638
285949
275737
306819
453881
184114
162316
398268
155902
213869
242049
186465
56861.3
65217.6
82483.8
70251.2
67318.1
89446.8
68494
156604
114325
35970.5
48653.6
60648.7
74631.3
74566.7
168299
125537
67413
41334.4
76624.5
93048.9
66549.9
68583.3
38744.5
160978
79181.4
88989.9
64415.3
55874.1
63317
115214
57067.8
51917.7
0
0
0
0
0
0
0
0
0
0
0
0
0
0
0
0
0
0
0
0
0
0
0
0
0
0
0
0
0
0
0
0
0
0
0
0
0
0
0
0
0
0
0
0
0
0
0
0
0
0
0
0
0
0
0
0
0
0
0
0
0
0
0
0
0
0
0
0
0
0
0
0
0
0
0
0
0
0
0
0
0
0
0
0
0
0
0
0
0
0
0
0
0
0
0
0
0
0
0
0
0
0
0
0
0
0
0
0
0
0
0
0
0
0
0
0
0
0
0
0
0
0
0
0
0
0
0
0
0
0
0
0
0
0
0
0
0
0
0
0
0
0
0
0
0
0
0
0
0
0
0
0
0
0
0
0
0
0
0
0
0
0
0
0
0
0
0
0
0
0
0
0
0
0
0
0
0
0
0
0
0
0
0
0
0
0
0
0
0
0
0
0
0
0
0
0
0
0
0
0
0
0
0
0
0
0
0
0
0
0
0
0
0
0
0
0
0
0
0
0
0
0
0
0
0
0
0
0
0
0
0
0
0
0
0
0
0
0
0
0
0
0
0
0
0
0
0
0
0
0
0
0
0
0
0
0
0
0
0
0
0
0
0
0
0
0
0
0
0
0
0
0
0
0
0
0
0
0
0
0
0
0
0
0
0
0
0
0
0
0
0
0
0
0
0
0
0
0
0
0
0
0
0
0
0
0
0
0
0
0
0
0
0
0
0
0
0
0
0
0
0
0
0
0
0
0
0
0
0
0
0
0
0
0
0
0
0
0
0
0
0
0
0
0
0
0
0
0
0
0
0
0
0
0
0
0
0
0
0
0
0
0
0
0
0
0
0
0
0
0
0
0
0
0
0
0
0
0
0
0
0
0
0
0
0
0
0
0
0
0
0
0
0
0
0
0
0
0
0
0
0
0
0
0
0
0
0
0
0
0
0
0
0
0
0
0
0
0
0
0
0
0
0
0
0
0
0
0
0
0
0
0
0
0
0
0
0
0
0
0
0
0
0
0
0
0
0
0
0
0
0
0
0
0
0
0
0
0
0
0
0
0
0
0
0
0
0
0
0
0
0
0
0
0
0
0
0
0
0
0
0
0
0
0
0
0
0
0
0
0
0
0
0
0
0
0
0
0
0
0
0
0
0
0
0
0
0
0
0
0
0
0
0
0
0
0
0
0
0
0
0
0
0
0
0
0
0
0
0
0
0
0
0
0
0
0
0
0
0
0
0
0
0
0
185648
216263
172977
215113
128821
176958
145761
129573
194573
147826
142860
122266
153881
217012
118805
109486
197550
158106
207146
227835
146320
196924
210088
124416
129799
197897
145485
215858
214373
187747
214160
178916
59501
99401.5
157733
75986.1
109290
222958
210504
127307
182781
145886
166746
170627
89140.1
114365
157593
133547
149836
134723
92061.5
146193
102914
129500
117995
94061.9
282938
107100
98194.9
193295
169514
104597
165254
137473
329992
209324
256406
210315
188871
325774
166631
252782
171750
206348
289531
259285
251313
158918
191414
280131
315566
283433
245964
159386
294058
308963
212491
256649
148279
307068
151271
174998
307142
163917
311920
221590
202176
297920
323349
181023
293981
218584
196796
161795
224210
221580
216401
206295
316797
331918
199428
217119
276147
225559
221095
290452
218348
249150
167156
178929
162019
207814
152081
173101
250105
240961
228845
143420
228650
306509
229534
166881
317495
289198
231633
219797
322731
256385
215354
194056
180085
180798
165379
295216
265903
208210
308741
193606
293916
269298
239763
272731
206207
361066
214188
197543
115956
202724
402355
184967
208623
354808
231356
191113
107124
186483
160497
192795
214314
303401
263239
175284
419383
268007
301226
282267
152140
161211
183723
168661
184305
267820
182205
248692
152359
315993
170668
276014
289358
486440
255659
178984
111582
125835
132578
121706
68923.8
66169.3
102604
141648
58572.8
64426.4
50657.1
222389
114317
61877.1
91404
96763.6
54713.1
60223.1
87893.6
60771.1
132388
46777.9
45198.9
44784.6
45719.4
61697.1
60686.4
71324
48290.6
95990.7
117353
56374.4
0
0
0
0
0
0
0
200.574
0
0
0
46350.2
0
0
0
0
0
0
0
0
0
0
0
0
0
0
0
0
0
0
0
0
0
0
0
0
0
0
0
0
0
0
0
0
0
0
0
0
0
0
0
0
0
0
0
0
0
0
0
0
0
0
0
0
0
0
0
0
0
0
0
0
0
0
0
0
0
0
0
0
0
0
0
0
0
0
0
0
0
0
0
0
0
0
0
0
0
0
0
0
0
0
0
0
0
0
0
0
0
0
0
0
0
0
0
0
0
0
0
0
0
0
0
0
0
0
0
0
0
0
0
0
0
0
0
0
0
0
0
0
0
0
0
0
0
0
0
0
0
0
0
0
0
0
0
0
0
0
0
0
0
0
0
0
0
0
0
0
0
0
0
0
0
0
0
0
0
0
0
0
0
0
0
0
0
0
0
0
0
0
0
0
0
0
0
0
0
0
0
0
0
0
0
0
0
0
0
0
0
0
0
0
0
0
0
0
0
0
0
0
0
0
0
0
0
0
0
0
0
0
0
0
0
0
0
0
0
0
0
0
0
0
0
0
0
0
0
0
0
0
0
0
0
0
0
0
0
0
0
0
0
0
0
0
0
0
0
0
0
0
0
0
0
0
0
0
0
0
0
0
0
0
0
0
0
0
0
0
0
0
0
0
0
0
0
0
0
0
0
0
0
0
0
0
0
0
0
0
0
0
0
0
0
0
0
0
0
0
0
0
0
0
0
0
0
0
0
0
0
0
0
0
0
0
0
0
0
0
0
0
0
0
0
0
0
0
0
0
0
0
0
0
0
0
0
0
0
0
0
0
0
0
0
0
0
0
0
0
0
0
0
0
0
0
0
0
0
0
0
0
0
0
0
0
0
0
0
0
0
0
0
0
0
0
0
0
0
0
0
0
0
0
0
0
0
0
0
0
0
0
0
0
0
0
0
0
0
0
0
0
0
0
0
0
0
0
0
0
0
0
0
0
0
0
0
0
0
0
0
0
0
0
0
0
0
0
0
0
0
0
0
0
0
0
0
0
0
0
0
0
0
0
0
0
0
0
0
0
0
0
0
0
0
0
0
0
0
0
0
0
0
0
0
0
0
0
0
0
0
0
0
0
0
0
0
0
0
0
0
0
0
0
0
0
0
0
0
0
0
0
0
0
0
0
0
0
0
0
0
0
0
0
0
0
0
0
0
0
0
0
0
0
0
0
0
0
0
0
0
0
0
0
0
0
)
;

boundaryField
{
    inlet
    {
        type            zeroGradient;
    }
    outlet
    {
        type            zeroGradient;
    }
    wall
    {
        type            zeroGradient;
    }
}


// ************************************************************************* //
