/*--------------------------------*- C++ -*----------------------------------*\
| =========                 |                                                 |
| \\      /  F ield         | OpenFOAM: The Open Source CFD Toolbox           |
|  \\    /   O peration     | Version:  2506                                  |
|   \\  /    A nd           | Website:  www.openfoam.com                      |
|    \\/     M anipulation  |                                                 |
\*---------------------------------------------------------------------------*/
FoamFile
{
    version     2.0;
    format      ascii;
    arch        "LSB;label=32;scalar=64";
    class       surfaceScalarField;
    location    "0.1";
    object      phi;
}
// * * * * * * * * * * * * * * * * * * * * * * * * * * * * * * * * * * * * * //

dimensions      [0 3 -1 0 0 0 0];

oriented        oriented;

internalField   nonuniform List<scalar> 
13248
(
2.92827e-09
-6.3835e-10
5.1597e-08
5.56876e-09
9.02909e-12
-4.66802e-09
7.34635e-10
7.27331e-08
-7.50874e-09
7.90031e-11
4.4431e-09
4.22363e-08
7.54302e-09
-6.59544e-10
-6.57208e-10
6.3134e-08
-2.48138e-09
9.96309e-09
4.44495e-09
4.09323e-08
3.29214e-09
-1.17567e-08
-6.91626e-09
9.41933e-08
-5.88832e-09
3.55509e-09
2.87193e-09
4.12337e-08
1.9606e-10
-9.15293e-10
5.29795e-08
1.66463e-09
9.37133e-09
3.2907e-09
3.25925e-10
6.10179e-08
-5.76257e-09
-2.28168e-09
-6.401e-10
6.64412e-08
-5.097e-09
-8.13398e-09
7.46749e-08
4.61819e-09
-2.19965e-09
5.13602e-08
-2.86274e-09
-5.69516e-09
7.61943e-08
2.12509e-10
-2.71727e-09
5.1898e-08
-7.64867e-10
-3.5331e-10
6.34501e-08
3.45317e-09
5.14521e-08
2.43611e-09
1.7058e-09
8.05631e-10
6.67636e-08
-9.15166e-09
-4.98262e-09
6.02692e-09
5.94294e-08
7.09286e-10
5.44202e-09
4.0123e-08
2.5432e-09
1.07794e-08
4.48237e-08
-7.82159e-10
3.33456e-09
5.36186e-08
2.54361e-09
9.39676e-10
5.21161e-08
1.00269e-09
-2.5808e-09
6.20747e-08
2.82098e-09
6.63508e-08
-5.66999e-09
7.68674e-09
-2.65434e-09
5.74453e-08
-2.06453e-09
-8.60721e-09
-1.17122e-08
9.35627e-08
2.91347e-09
-2.2848e-09
5.57584e-08
-3.86887e-09
2.31645e-09
7.46434e-08
-2.53601e-09
2.41399e-09
5.91914e-08
-1.25333e-09
8.19614e-09
5.01518e-08
4.51624e-09
1.91129e-09
4.90595e-08
-5.36211e-09
6.92448e-08
2.19682e-09
1.74567e-10
-3.63839e-09
6.4548e-08
-4.32101e-09
-3.84882e-10
-1.10029e-09
4.9945e-08
4.4037e-09
5.87989e-10
5.22057e-08
-1.19442e-09
-6.8485e-09
7.39608e-08
4.78456e-09
-2.48816e-10
5.64079e-08
-1.55718e-08
-6.88301e-09
9.51149e-08
-8.77135e-09
2.03364e-10
5.38988e-08
7.60322e-09
3.57201e-08
2.35596e-09
7.14098e-10
3.77726e-09
5.21362e-08
-9.43028e-10
6.85814e-10
7.75766e-09
5.08534e-08
-1.91044e-09
3.00565e-09
6.11433e-08
6.58828e-09
-6.95154e-10
4.45578e-08
-6.28729e-10
2.09131e-09
6.48401e-08
-3.10394e-09
-7.66079e-10
5.55389e-08
4.24487e-10
2.76689e-09
5.32492e-08
-1.23558e-09
6.49247e-08
3.67958e-09
1.06004e-08
-2.61202e-09
5.02515e-08
4.129e-09
-4.85823e-09
-8.48954e-09
9.14245e-08
-3.39534e-09
-5.22569e-09
6.61027e-08
1.0511e-08
-3.17926e-09
4.70352e-08
-2.38531e-09
-5.89542e-09
8.05706e-08
1.57876e-09
4.48359e-09
5.01008e-08
-4.14742e-09
-2.27765e-10
6.89094e-08
1.29025e-10
5.48091e-08
-6.52036e-10
1.0228e-09
4.98406e-08
-1.61061e-09
7.2701e-09
2.51571e-09
4.73396e-08
1.49875e-09
-1.7903e-09
6.19312e-08
-3.71515e-09
4.54744e-09
5.10557e-08
-1.09356e-09
4.33132e-09
5.72454e-08
-3.38499e-09
-5.29514e-09
8.1937e-08
-7.98756e-09
-8.22255e-09
7.14948e-08
-9.18044e-09
7.11699e-08
-1.42677e-08
-5.64827e-09
-9.55152e-11
-3.86282e-09
4.84263e-08
6.73459e-10
6.45565e-09
-4.97676e-10
-3.27081e-09
7.34669e-08
2.9392e-09
1.09721e-09
-9.24733e-10
4.07131e-08
8.53077e-10
-3.71073e-09
-2.35643e-09
6.75428e-08
2.7556e-09
9.43952e-10
-2.17033e-09
3.30971e-08
5.35073e-09
6.57137e-09
4.1196e-09
7.8081e-08
6.36529e-09
5.42966e-09
1.14593e-09
3.75656e-08
3.66387e-09
1.35642e-09
4.99597e-08
2.76115e-09
4.33187e-09
-3.41519e-09
-4.47881e-09
6.02918e-08
4.75724e-09
-3.16033e-09
-2.94925e-10
6.32104e-08
7.07334e-10
2.68577e-09
6.71968e-08
-1.45449e-10
1.24094e-09
4.86156e-08
7.22334e-09
1.9272e-09
6.47279e-08
4.15094e-09
1.84176e-09
5.72482e-08
5.22818e-09
3.17161e-09
6.03471e-08
-8.49124e-10
5.74548e-08
1.43094e-09
-2.42795e-11
4.38405e-10
6.09586e-08
9.12027e-10
-1.02181e-09
-1.00043e-08
7.01363e-08
-2.99031e-10
-1.97686e-09
4.40628e-08
-1.22221e-09
-3.02841e-09
5.00162e-08
3.97477e-09
1.64037e-09
4.87083e-08
6.57878e-09
2.49901e-09
4.88549e-08
6.73247e-10
2.02117e-09
6.91306e-08
8.37247e-09
5.18782e-08
5.92414e-09
-1.22845e-08
-1.21345e-09
6.6455e-08
4.92662e-09
5.35233e-09
1.15335e-08
5.43882e-08
3.4358e-09
6.47836e-09
4.92198e-08
4.18305e-09
4.37587e-09
6.64919e-08
7.69379e-09
1.62464e-09
5.56962e-08
7.10351e-09
-1.20003e-09
5.44411e-08
4.97184e-09
-3.05728e-09
5.62696e-08
7.28027e-09
7.466e-08
6.48673e-10
5.30736e-09
3.27535e-09
5.15509e-08
3.20096e-09
2.23122e-09
1.77551e-09
6.27789e-08
-1.89878e-09
-2.98296e-09
6.57968e-08
1.3444e-10
9.75866e-10
7.53273e-08
3.08177e-09
-6.11258e-09
6.11979e-08
7.37415e-09
4.41793e-10
8.91805e-08
1.10121e-08
7.77564e-10
4.64258e-08
-9.63581e-09
6.41089e-08
-4.60603e-10
1.15866e-09
3.75087e-09
4.62629e-08
4.23903e-09
-2.6374e-09
6.73163e-10
5.57518e-08
1.00302e-09
1.29077e-09
5.32291e-08
-2.52884e-09
1.08646e-09
4.79791e-08
9.1532e-09
-2.17953e-09
4.92249e-08
8.40261e-09
1.79688e-09
5.49343e-08
-1.5239e-10
-5.55479e-10
6.31372e-08
-2.59138e-10
4.99673e-08
5.42825e-09
-3.46097e-10
5.00876e-09
4.47655e-08
4.57411e-09
-1.76708e-09
1.04796e-08
8.3039e-08
1.03019e-09
4.60998e-09
5.99861e-08
-7.62988e-09
1.58203e-09
5.51996e-08
1.10468e-08
1.4591e-08
4.51232e-08
5.45925e-09
3.59039e-09
5.38948e-08
2.30659e-09
1.32076e-09
7.01857e-08
1.48703e-09
4.90456e-08
6.3238e-09
2.51223e-09
5.55511e-08
-3.12331e-09
-9.07394e-11
-3.01826e-09
6.72001e-08
-3.8505e-09
-1.89936e-09
6.48537e-08
5.68533e-10
3.73944e-09
4.30258e-08
3.973e-09
3.28608e-09
7.50298e-08
-2.74012e-09
-2.42299e-09
9.26321e-08
-1.39576e-09
-2.39431e-09
7.05217e-08
2.26512e-09
4.9286e-08
9.658e-09
1.13186e-08
-1.77327e-09
-2.9585e-09
6.78408e-08
-9.78888e-09
-4.89394e-09
8.4002e-11
-2.73225e-09
7.68189e-08
-2.4771e-09
-5.86569e-10
4.75574e-10
5.02293e-08
-9.32125e-09
2.68197e-09
2.96199e-10
6.602e-08
-2.042e-09
-4.53595e-09
-1.0922e-09
4.70305e-08
-5.62329e-09
4.91512e-09
1.54431e-09
6.57914e-08
1.2942e-09
-3.3939e-09
-1.67545e-09
4.97635e-08
-2.21346e-09
1.52472e-09
5.18953e-08
-1.03418e-09
-5.82009e-09
9.3027e-10
1.25661e-10
5.24189e-08
3.85847e-09
-2.18029e-09
-5.6752e-09
6.92639e-08
-3.92518e-10
-4.31721e-10
6.63163e-08
3.35702e-09
1.54015e-09
4.36221e-08
1.99262e-10
2.67064e-10
6.65264e-08
1.4155e-09
1.76675e-09
5.58095e-08
2.27267e-10
-2.07482e-09
6.19347e-08
3.00356e-09
5.48073e-08
1.39594e-09
-5.12757e-10
5.99179e-10
5.98336e-08
1.16429e-09
2.25131e-09
-5.39198e-09
6.7089e-08
1.00164e-09
-3.5338e-09
4.84145e-08
2.20452e-10
-4.93166e-09
5.72692e-08
2.41086e-09
-2.61632e-10
4.70466e-08
-7.27089e-10
-6.14697e-10
5.43743e-08
6.06409e-09
6.24505e-09
5.40195e-08
-1.99682e-09
5.76443e-08
5.29836e-09
-7.64692e-09
-2.7252e-09
8.04543e-08
-3.02794e-09
4.37744e-10
4.42296e-09
3.64886e-08
3.69435e-09
3.99722e-09
3.84322e-08
3.33458e-09
-8.79675e-10
6.28001e-08
3.06925e-09
-5.9777e-09
6.16772e-08
1.64159e-09
-8.85467e-09
6.41087e-08
-6.81403e-09
-5.59559e-10
7.15298e-08
1.63193e-08
5.0321e-08
-7.91162e-10
1.89974e-09
3.9604e-09
4.13987e-08
1.56682e-09
2.69567e-09
-3.92311e-09
7.0329e-08
-3.71866e-09
-8.26586e-10
7.70349e-08
-4.45749e-09
5.975e-09
6.92111e-08
-6.85371e-09
1.72802e-09
5.58887e-08
1.87446e-08
6.83502e-09
4.78925e-08
7.68429e-09
-5.0334e-09
6.19599e-08
-5.20394e-09
1.00238e-07
-6.92147e-09
-5.43374e-09
-1.66617e-09
6.06768e-08
-3.35357e-09
3.51006e-09
-5.0358e-09
4.79207e-08
3.76204e-09
-3.77013e-09
5.59207e-08
-3.4481e-09
4.40342e-10
6.07238e-08
2.18586e-10
-1.19991e-10
4.74062e-08
4.04858e-09
1.2026e-09
5.67367e-08
3.16246e-09
-3.22901e-09
6.22189e-08
3.72386e-09
4.59357e-08
-1.73381e-09
-6.89404e-09
1.66627e-10
5.3308e-08
-3.48119e-09
4.20167e-09
1.23662e-08
5.45413e-08
5.8075e-09
5.81801e-09
4.87921e-08
-2.24944e-09
-2.47021e-10
6.39439e-08
2.40617e-09
1.72341e-09
3.86242e-08
4.59102e-10
-3.33518e-09
6.03796e-08
9.03416e-09
5.09148e-09
5.32901e-08
4.46191e-09
4.97676e-08
7.57407e-09
-3.85528e-09
6.73144e-08
4.25121e-09
-1.19926e-08
4.85356e-09
7.23883e-08
-1.53097e-09
2.32039e-09
6.69196e-08
6.28529e-09
-5.00292e-09
4.62223e-08
3.87982e-09
-2.32909e-09
6.88386e-08
5.24069e-09
8.22278e-09
7.46254e-08
4.11966e-09
1.08891e-08
6.72611e-08
5.68572e-09
5.93463e-08
4.58136e-09
7.09263e-10
-2.29722e-09
-4.91616e-10
7.55559e-08
1.23046e-10
-5.04931e-09
3.93635e-09
-3.79914e-09
7.43431e-08
4.13644e-11
1.49999e-09
3.74134e-09
5.34708e-08
-4.54651e-09
-4.88622e-10
1.10197e-08
6.60542e-08
-9.0652e-09
-4.3705e-09
-1.48653e-09
5.46924e-08
-2.29344e-09
3.08107e-09
3.92451e-09
4.85777e-08
5.83757e-09
2.16392e-09
3.0388e-09
5.03905e-08
-2.74869e-09
3.31181e-09
5.85942e-08
-4.73254e-09
-3.11428e-09
-2.20849e-09
-3.00752e-09
6.11119e-08
-3.96859e-09
9.40367e-09
2.74837e-10
5.35777e-08
6.10938e-09
-6.75433e-09
8.01062e-08
-1.27924e-08
-9.14275e-09
8.26864e-08
-2.41604e-09
3.72023e-09
5.09432e-08
1.59076e-09
4.89275e-09
5.08345e-08
3.43549e-09
2.37264e-09
6.07561e-08
3.17518e-09
6.11309e-08
-2.75154e-09
1.74222e-09
-1.88099e-09
5.92417e-08
-2.27691e-09
3.93449e-09
2.03208e-09
6.31395e-08
1.50435e-09
-2.34142e-10
4.43244e-08
3.13425e-09
-4.09759e-09
5.05942e-08
1.00751e-09
-1.33192e-09
5.42254e-08
-9.83209e-10
3.36733e-09
5.78904e-08
4.82962e-09
1.92917e-10
5.03864e-08
1.41695e-09
6.81351e-08
-3.90292e-09
6.58705e-09
7.30165e-09
7.08096e-08
-6.12502e-09
1.4739e-09
7.73464e-10
4.28604e-08
-1.42634e-09
4.20082e-09
3.68976e-08
7.0488e-09
8.31566e-09
4.19121e-08
5.34832e-09
3.4392e-09
5.86061e-08
-8.14643e-09
-4.19682e-09
8.51674e-08
5.91706e-09
1.73002e-09
5.59291e-08
-1.10498e-08
6.88268e-08
-1.22043e-10
5.30919e-10
2.2442e-09
5.21762e-08
-6.25096e-09
5.31003e-09
1.05162e-09
6.52717e-08
-9.48868e-10
1.52249e-09
8.5972e-08
5.85934e-09
1.12817e-09
6.95898e-08
-3.6036e-09
6.59556e-10
6.81317e-08
-1.09385e-09
-1.50159e-09
4.26877e-08
-7.76714e-09
-2.13724e-09
7.25005e-08
8.92249e-09
6.37459e-08
8.75248e-09
7.8884e-10
4.07669e-09
6.00881e-08
-2.03264e-09
4.30734e-09
8.14225e-10
4.46396e-08
-4.00558e-10
1.48697e-09
6.06642e-08
6.0264e-09
2.87189e-09
5.25531e-08
-5.87309e-09
-1.43305e-09
6.13984e-08
-1.95655e-09
1.93533e-09
4.93832e-08
2.66823e-09
3.91303e-09
5.15438e-08
3.5919e-09
5.30555e-08
8.79021e-10
-2.32856e-09
-7.16623e-09
7.58235e-08
-8.94406e-09
6.10801e-09
-8.90656e-09
5.58255e-08
6.84333e-10
-7.72664e-09
6.34294e-08
3.48983e-09
-2.47062e-09
6.64809e-08
-1.39229e-09
-5.67018e-09
4.77434e-08
4.3348e-10
-5.92885e-09
6.6418e-08
5.25318e-09
4.76254e-09
4.76209e-08
-5.26495e-10
6.24416e-08
-3.30245e-09
-9.4747e-09
7.4748e-08
3.19592e-09
-8.3211e-09
8.10934e-09
3.96124e-08
6.28536e-09
7.2707e-09
5.30284e-08
7.00313e-09
-4.93115e-09
6.15561e-08
-5.60258e-09
5.63933e-09
4.71283e-08
5.46966e-09
1.15459e-08
5.46217e-08
8.16823e-09
2.72312e-09
7.47667e-08
6.07973e-09
6.16925e-08
-4.87581e-09
4.72628e-09
-3.0711e-09
5.22527e-09
7.42156e-08
1.66904e-09
-2.48289e-09
3.56375e-09
2.80599e-09
6.06035e-08
4.29882e-09
4.08562e-09
-1.93226e-09
5.30954e-08
1.78587e-09
-3.39496e-09
-7.62947e-09
8.82094e-08
-7.04514e-09
-1.91619e-09
-4.50504e-09
5.67095e-08
1.00928e-09
-2.88655e-09
-4.82584e-09
5.72743e-08
-2.90033e-09
9.6018e-10
-8.86623e-10
4.76545e-08
-2.24097e-10
2.83443e-09
5.66689e-08
-1.78234e-09
1.83344e-09
-3.75686e-09
-1.97304e-09
8.33654e-08
-1.12983e-08
-2.27357e-10
3.45558e-10
5.25086e-08
2.55215e-09
3.14701e-09
7.22475e-08
-6.78728e-09
4.37655e-09
8.00199e-08
-7.48447e-10
-1.62962e-10
4.05624e-08
5.60576e-10
2.4899e-09
4.22097e-08
4.35721e-09
1.93515e-09
5.41377e-08
-1.86976e-09
6.03652e-08
9.82713e-09
-1.38857e-09
-8.6065e-09
6.97754e-08
-2.5116e-09
2.48805e-09
5.59899e-09
5.40094e-08
1.83683e-09
1.47498e-09
4.66478e-08
-4.9655e-09
1.48815e-09
6.02849e-08
2.68319e-10
-1.45521e-09
5.0284e-08
2.8799e-10
-2.32498e-09
6.26857e-08
1.13431e-09
-1.25476e-09
5.27301e-08
6.22615e-09
5.89196e-08
2.25392e-09
1.10434e-08
6.08622e-09
4.29162e-08
2.15731e-09
5.90486e-10
-9.3432e-09
6.82556e-08
1.40585e-09
-1.09778e-08
4.8535e-08
-8.9892e-09
-9.50949e-09
6.33048e-08
-1.31851e-09
5.35939e-09
4.41208e-08
-1.38979e-09
5.66051e-09
7.72531e-08
7.19728e-09
4.86356e-09
4.12236e-08
-1.91614e-09
8.41974e-08
-3.11622e-11
-2.70049e-09
-2.54394e-09
7.04425e-08
-6.93566e-09
-1.9895e-09
1.35313e-09
5.38644e-08
4.2075e-11
1.01016e-09
7.19525e-08
7.26664e-09
-3.72733e-10
5.32284e-08
1.53371e-09
1.19959e-09
7.80244e-08
-2.29347e-09
-5.61587e-10
5.2737e-08
-7.4562e-10
6.72046e-09
6.90958e-08
5.11229e-09
5.09673e-08
5.0045e-09
2.14214e-09
4.93993e-09
5.64081e-08
-5.94605e-09
-2.07643e-09
-1.02382e-10
5.03137e-08
-7.05752e-10
5.2948e-09
5.50089e-08
6.76817e-09
1.67638e-09
4.303e-08
-4.8176e-10
3.11054e-09
6.67374e-08
2.64511e-09
-5.35078e-10
4.62298e-08
1.81739e-09
-2.15643e-09
6.12484e-08
-1.39796e-09
6.17869e-08
-4.03765e-10
-3.36964e-09
-8.07163e-09
1.02852e-07
-1.06477e-08
1.23346e-09
2.7053e-11
5.1093e-08
-3.64058e-09
-5.11286e-09
7.87111e-08
6.76167e-09
1.50182e-09
5.62531e-08
-3.57849e-09
2.18688e-09
5.90073e-08
5.62913e-10
-1.6123e-11
6.17576e-08
4.41917e-09
1.83364e-10
4.14248e-08
-4.52527e-09
7.27339e-08
-2.74579e-09
2.81439e-09
6.48303e-08
2.5824e-09
-3.55073e-09
-1.71209e-09
4.58413e-08
-1.67536e-09
3.16807e-09
4.04372e-08
2.59822e-09
9.47442e-09
5.89373e-08
-2.18575e-09
-3.74156e-09
6.68342e-08
-4.30304e-09
2.95779e-10
4.9906e-08
6.62195e-10
-5.76405e-10
7.30485e-08
2.77365e-09
5.60363e-08
5.60584e-10
-6.10826e-12
2.2705e-09
-1.39618e-08
9.90113e-08
-1.42159e-08
1.11151e-09
-3.22796e-09
-1.68606e-09
7.12728e-08
-3.48477e-09
-1.15452e-08
-1.11509e-08
7.09674e-08
1.59608e-09
5.21157e-09
-1.9747e-08
6.91654e-08
2.20344e-08
-4.91114e-09
-6.05353e-09
6.71359e-08
5.74983e-09
3.19081e-09
-5.02163e-09
4.69591e-08
7.23483e-09
2.51745e-09
-8.09172e-09
4.73445e-08
9.07513e-09
-5.74739e-09
6.76241e-08
3.01501e-09
-5.70541e-09
1.17588e-08
5.32235e-09
5.55037e-08
-3.18106e-09
-1.40201e-08
-3.18884e-09
7.97903e-08
-1.11194e-09
4.97748e-09
4.3211e-08
5.02601e-09
2.27202e-09
5.1863e-08
-9.81478e-10
-4.24825e-09
4.47646e-08
2.16969e-10
-2.12649e-09
3.81161e-08
6.32918e-09
-3.08073e-09
4.30145e-08
-2.34094e-09
5.49016e-08
8.38635e-09
1.87747e-10
7.38344e-09
7.43349e-08
-6.8084e-09
-6.55729e-09
1.05618e-09
5.65095e-08
-6.2517e-09
5.81537e-09
4.55042e-08
-8.24944e-10
5.59868e-09
5.15316e-08
-1.07031e-09
-3.04596e-09
4.93272e-08
-1.45805e-09
-4.03329e-09
6.49802e-08
3.653e-09
4.11061e-09
4.04276e-08
3.50607e-09
4.71045e-08
9.62113e-09
-5.93999e-09
-8.68788e-09
7.42473e-08
-9.31984e-09
-5.30443e-09
3.90705e-09
6.47693e-08
-9.75668e-09
-5.44462e-09
6.42471e-08
-8.78957e-09
-5.11469e-10
6.84472e-08
-5.29318e-10
4.85998e-09
2.79552e-08
5.85986e-09
1.05798e-08
5.62509e-08
3.33796e-09
3.08661e-09
4.47696e-08
1.88628e-08
6.67754e-08
5.40329e-09
7.27791e-09
-4.67698e-11
6.29843e-08
-8.46086e-09
-7.57126e-09
-1.51157e-09
7.41321e-08
-1.51118e-09
7.68257e-10
5.96797e-08
-1.90507e-09
2.64835e-09
5.04631e-08
1.27048e-09
4.71305e-09
7.49952e-08
1.93516e-09
4.42997e-09
5.82222e-08
1.04686e-08
9.85791e-09
5.3791e-08
6.10683e-09
7.55828e-08
-1.39095e-09
3.7091e-09
6.11968e-09
4.71406e-08
-6.07914e-10
-5.78917e-09
3.33888e-09
5.49615e-08
7.09266e-10
1.37131e-09
4.79074e-08
-1.85723e-09
2.46745e-09
4.57773e-08
1.37078e-09
4.12182e-09
6.41007e-08
7.60143e-09
5.26768e-09
3.91615e-08
9.06654e-09
4.92948e-09
6.47117e-08
-6.0077e-09
8.87804e-08
-5.81247e-09
3.81639e-09
-5.75567e-09
1.12693e-07
-1.78179e-09
-1.46513e-08
-2.5642e-09
7.54638e-08
5.97321e-09
4.61629e-09
5.48416e-08
-2.16198e-09
4.23185e-09
6.26239e-08
3.69455e-09
4.87642e-09
5.23962e-08
4.07666e-09
3.78916e-09
6.2854e-08
-2.56971e-09
-2.31851e-09
5.53192e-08
-6.95623e-11
6.30407e-08
1.18532e-09
4.12641e-09
7.11153e-08
-1.64231e-08
2.56059e-10
-2.66615e-09
5.46621e-08
-4.59247e-09
3.80476e-09
4.12295e-08
-2.64687e-09
-5.79985e-09
7.44832e-08
-1.70946e-09
4.7903e-09
5.92791e-08
1.84144e-09
-5.12337e-09
6.45356e-08
-9.26742e-10
-1.332e-09
7.28535e-08
-5.91481e-09
5.7774e-08
-1.62603e-09
-1.51325e-09
3.33401e-09
4.33765e-09
8.31638e-08
8.5677e-10
7.31933e-09
2.54006e-09
-2.37725e-09
7.15698e-08
2.87417e-09
3.6746e-09
6.6541e-09
6.16049e-08
1.57332e-09
2.10931e-09
1.50633e-09
6.72194e-08
2.00521e-09
2.62321e-09
2.24998e-09
6.1452e-08
2.91985e-09
-1.0265e-09
-3.0622e-10
4.79929e-08
2.92188e-09
-2.96095e-09
2.47148e-09
4.94399e-08
-2.63243e-09
1.11063e-09
6.36923e-08
7.51896e-12
-1.47233e-10
-2.97693e-09
-3.88451e-09
6.65293e-08
1.7353e-10
1.13924e-08
1.59286e-09
6.14505e-08
-2.87417e-11
-1.42213e-09
6.27078e-08
-4.89938e-10
3.94693e-10
5.3435e-08
4.13899e-11
-1.83689e-09
4.83199e-08
5.20544e-10
-2.99297e-09
4.03232e-08
-3.68245e-09
6.60278e-10
4.90285e-08
1.43575e-09
5.3292e-08
-2.39826e-09
1.95346e-09
9.26283e-11
6.48762e-08
3.52808e-09
3.4975e-09
-1.35039e-09
5.79086e-08
1.77795e-09
-3.41985e-09
4.92211e-08
-3.6038e-09
-6.83868e-09
6.41462e-08
-8.81283e-10
3.40984e-09
4.13572e-08
4.83818e-09
8.88415e-10
5.53789e-08
-4.65924e-09
-2.80818e-09
5.33932e-08
9.63421e-10
4.63587e-08
-3.44115e-09
1.76121e-09
4.21678e-11
7.09639e-08
1.57326e-09
3.07097e-09
-2.72653e-09
6.48351e-08
-2.17639e-09
-2.68088e-09
6.87554e-08
6.67317e-09
-7.10334e-10
5.34695e-08
-3.31884e-09
-1.12487e-08
5.26055e-08
-1.36926e-10
-2.50295e-09
5.64603e-08
-4.10002e-09
-3.77277e-09
4.96973e-08
-2.16099e-10
6.25994e-08
1.25542e-09
-1.56407e-09
1.87131e-09
6.04512e-08
2.2673e-09
9.06785e-10
2.34212e-09
6.65934e-08
-4.49145e-10
1.01462e-09
5.73405e-08
-3.6294e-09
5.49548e-11
5.28782e-08
4.05501e-09
1.71544e-09
5.43468e-08
-2.76151e-09
-8.32944e-10
6.33685e-08
-2.81339e-09
-1.76903e-09
5.18391e-08
-2.52062e-09
7.21116e-08
2.96219e-09
-1.0659e-09
-8.75066e-09
5.86597e-08
1.68832e-10
-2.24879e-10
-2.3401e-09
5.88024e-08
-1.47949e-09
-6.28743e-10
5.08057e-08
-2.86567e-09
-2.79013e-09
5.00086e-08
2.12637e-09
1.19054e-09
5.96336e-08
-4.87514e-09
-4.39533e-09
4.97255e-08
-3.7849e-09
2.37631e-09
5.94763e-08
5.29621e-10
7.10267e-08
1.09187e-08
2.24801e-09
4.59321e-09
8.80167e-08
9.08415e-09
1.12721e-09
3.18735e-09
7.10576e-08
-3.19723e-09
-2.79781e-11
5.85653e-08
-4.49246e-11
-1.93121e-09
5.86127e-08
-3.54218e-09
-3.32402e-09
6.04081e-08
-3.36099e-10
-1.78007e-09
5.70327e-08
-8.59869e-10
-1.55192e-09
5.97711e-08
-2.04262e-09
6.60459e-08
-1.29281e-09
1.85706e-09
6.78531e-08
2.00603e-09
3.99234e-09
8.68374e-10
5.6156e-08
2.68205e-09
-3.79553e-09
4.86896e-08
-2.82402e-09
9.00962e-11
6.66102e-08
2.05637e-09
-3.5683e-09
6.16146e-08
-2.00118e-09
-3.23852e-09
6.81114e-08
-5.68579e-09
1.04293e-09
7.2447e-08
-5.42683e-09
6.43831e-08
-3.25162e-09
-4.35721e-09
-1.40917e-08
-2.00186e-08
8.72126e-08
9.64982e-09
2.0412e-08
-2.28094e-08
-2.75141e-08
8.48618e-08
2.29395e-08
-2.04994e-08
-5.5119e-08
7.95246e-08
3.48899e-08
-1.74284e-08
-6.22366e-08
8.35752e-08
4.28115e-08
-1.26579e-08
-6.9776e-08
7.6428e-08
5.00292e-08
1.19435e-08
-6.75795e-08
3.29887e-08
5.79822e-08
3.06394e-08
-6.78852e-08
5.02711e-08
4.83584e-08
-3.11703e-08
7.74726e-08
2.45964e-08
2.3433e-08
-2.34701e-08
-8.98617e-09
6.72958e-08
1.16718e-08
-5.04443e-08
-1.32327e-08
7.41422e-08
-3.09675e-08
-2.29211e-08
1.10329e-08
-2.65815e-08
-3.7866e-08
2.46796e-08
-1.01561e-08
-3.28064e-08
-5.07308e-09
1.40858e-08
-1.59589e-08
-3.55396e-08
6.26584e-08
-2.92405e-08
-3.81894e-08
-1.24187e-08
5.61782e-08
4.10192e-08
-2.92175e-08
-1.18792e-09
7.58526e-08
1.04424e-08
-6.08414e-08
5.79478e-09
7.05046e-08
-4.30009e-08
2.04992e-08
-1.20398e-08
-2.28543e-08
1.52347e-08
-9.10117e-09
-1.7111e-09
-4.64111e-09
-7.94803e-09
1.03773e-08
6.32727e-09
2.1004e-08
7.48107e-08
2.53608e-08
-6.56413e-08
1.94818e-08
3.53655e-08
5.39027e-08
-1.99643e-08
2.94569e-09
7.98804e-08
6.91302e-09
-4.18235e-08
7.46174e-09
8.50282e-08
-4.60661e-08
2.60978e-08
6.73961e-08
-4.47558e-08
4.62741e-08
2.11088e-08
1.9417e-08
7.83763e-08
-9.45735e-08
2.37294e-08
3.28002e-08
2.56754e-08
4.75269e-08
4.09524e-08
1.03087e-08
2.5309e-08
6.49767e-08
3.93234e-08
-1.54832e-08
6.48575e-09
6.69505e-08
5.44354e-09
-2.33553e-08
1.05239e-08
7.1402e-08
-2.89891e-08
1.77417e-08
7.1334e-08
-2.22858e-08
3.20725e-08
6.03875e-08
6.16564e-11
4.88072e-08
6.15584e-08
3.24375e-08
3.92518e-08
2.45408e-08
3.56389e-08
3.65203e-08
5.30681e-08
2.34038e-08
8.15638e-08
2.80892e-08
-1.16299e-08
1.1288e-08
5.49347e-08
1.0553e-08
-1.67943e-08
1.2688e-08
6.18024e-08
-1.49564e-08
1.64682e-08
5.024e-08
-6.75138e-09
2.76294e-08
4.62479e-08
5.24889e-10
3.49166e-08
6.62466e-08
2.35662e-08
3.97356e-08
2.6201e-08
2.37906e-08
2.76889e-08
6.80835e-08
1.84876e-08
8.0098e-08
1.96354e-08
-1.1012e-08
1.20467e-08
8.711e-08
1.11601e-08
-1.27218e-08
1.39986e-08
7.14566e-08
-4.744e-09
1.61744e-08
5.0881e-08
-1.0753e-09
1.90517e-08
6.35223e-08
4.53271e-09
2.5772e-08
6.39445e-08
1.07296e-08
2.49702e-08
6.56012e-08
1.61954e-08
2.06838e-08
6.131e-08
1.46534e-08
7.02997e-08
1.57751e-08
-1.00791e-08
7.14757e-08
8.88952e-09
9.61461e-09
-1.09673e-08
5.57236e-08
1.53196e-08
-1.8117e-09
3.9348e-08
1.63605e-08
3.56498e-09
6.60839e-08
1.42027e-08
4.23332e-09
7.25717e-08
1.41467e-08
5.38784e-09
7.78527e-08
1.4075e-08
1.03122e-08
7.51975e-08
1.30088e-08
6.85077e-08
1.10847e-08
9.75563e-09
6.08544e-09
1.17157e-08
7.25867e-08
2.43287e-09
-5.60745e-09
1.34523e-08
1.53147e-08
6.96401e-08
-7.45897e-09
1.06661e-08
3.52829e-08
6.29744e-08
-1.5947e-08
1.35183e-08
3.94917e-08
6.04571e-08
-1.9227e-08
1.32525e-08
5.09235e-08
5.56832e-08
-2.99128e-08
-5.83164e-09
4.18119e-08
4.5019e-08
-3.47575e-08
-1.94432e-08
4.70027e-08
4.78408e-08
-3.09609e-08
1.80026e-08
5.98223e-08
-9.98938e-09
-9.80638e-09
9.9793e-09
3.52974e-09
6.15005e-08
4.00159e-09
3.13752e-08
6.91551e-09
6.11443e-08
2.02243e-08
1.47321e-08
4.27345e-08
2.25779e-08
2.13937e-08
4.04232e-08
1.06118e-08
2.32523e-08
3.45638e-08
-1.18709e-08
-2.40019e-10
2.89954e-08
-4.74915e-08
1.53921e-08
2.90414e-08
6.7773e-09
4.98793e-08
-2.99676e-08
1.45855e-08
-7.45983e-10
6.33759e-08
2.16653e-09
4.00976e-08
-5.49891e-09
5.74065e-08
2.5306e-08
-2.06809e-08
3.8166e-08
1.47899e-08
-1.05516e-08
3.3363e-08
-2.69439e-09
1.49275e-09
3.12923e-08
-4.97781e-09
-1.13843e-08
3.44314e-08
-4.95085e-08
-2.9941e-08
2.42219e-08
-1.55281e-08
4.47634e-08
-3.66017e-08
6.17894e-09
-1.13425e-10
6.46439e-08
8.42404e-09
2.47653e-08
-3.0696e-09
6.40137e-08
3.50703e-08
-1.52582e-08
5.16687e-08
3.5774e-08
-2.94812e-08
3.93329e-08
-2.2873e-08
-5.79388e-08
2.35061e-08
-1.96158e-08
-2.42657e-08
3.52996e-08
-3.6923e-08
-3.75909e-08
3.52654e-08
-1.77576e-08
5.29941e-08
-2.27119e-08
2.01003e-09
-2.51072e-09
6.11318e-08
6.20571e-09
1.16864e-08
-2.29178e-09
6.09457e-08
1.68883e-08
-5.85144e-09
5.67242e-08
1.37107e-08
-1.56292e-08
4.97134e-08
1.16731e-09
-3.0396e-08
4.65568e-08
-1.82355e-08
-2.23673e-08
4.20442e-08
-2.59012e-08
-2.46279e-08
4.77697e-08
-1.06336e-08
6.2168e-08
-1.36297e-08
2.9244e-09
-8.73021e-09
5.87944e-08
-5.64469e-10
9.25232e-09
-5.11484e-09
5.82979e-08
7.33454e-09
-6.30552e-09
5.26117e-08
2.24555e-09
-1.46718e-08
5.03798e-08
1.70412e-09
-1.69612e-08
5.3353e-08
-1.67153e-08
-2.40995e-08
4.63526e-08
-1.58327e-08
-1.42708e-08
5.68438e-08
-5.50128e-09
6.65338e-08
-7.40163e-09
5.94035e-09
-1.45246e-10
7.08229e-08
1.76166e-09
8.96547e-09
-3.12422e-10
6.36292e-08
1.54772e-09
-2.5465e-09
5.45397e-08
-6.36973e-10
-6.25702e-09
5.72926e-08
-1.91972e-09
-1.01383e-08
5.84042e-08
-6.47672e-09
-1.29337e-08
5.89925e-08
-8.89416e-09
-1.04811e-08
5.99377e-08
-3.90108e-09
6.4966e-08
-5.16121e-09
6.40484e-09
6.50828e-08
2.09396e-09
-2.25123e-09
5.45638e-09
5.8308e-08
-1.94789e-09
-5.09486e-09
5.26221e-08
-5.26915e-09
-5.30008e-09
6.02452e-08
-2.11985e-10
-4.36855e-09
6.41861e-08
-2.68423e-09
-3.79759e-09
6.72761e-08
-2.92796e-09
-3.15834e-09
6.79758e-08
-3.89895e-09
6.61604e-08
-2.83209e-09
-1.8804e-09
3.88345e-09
8.50035e-09
6.5193e-08
8.09989e-10
-5.80017e-09
7.27537e-09
9.42264e-09
6.35845e-08
-6.75802e-09
6.38268e-09
1.38232e-08
6.03423e-08
-1.02988e-08
5.50731e-09
1.47508e-08
5.83035e-08
-1.17216e-08
4.23266e-09
1.58577e-08
5.58832e-08
-1.47828e-08
-1.59284e-09
1.22646e-08
5.26709e-08
-1.4091e-08
-6.4882e-09
1.22814e-08
5.32957e-08
-1.28412e-08
6.4032e-09
5.7852e-08
-5.77707e-09
-5.14405e-09
4.70516e-09
3.68013e-09
6.04495e-08
1.16613e-09
1.09611e-08
5.12408e-09
5.91859e-08
8.19012e-09
6.19398e-09
5.31344e-08
5.70938e-09
7.26054e-09
5.03936e-08
2.19762e-09
7.57249e-09
4.63623e-08
-4.36188e-09
3.22972e-09
4.45897e-08
-1.22311e-08
4.33276e-09
4.48594e-08
1.87509e-09
5.39145e-08
-1.17382e-08
6.49027e-09
7.52645e-10
5.96982e-08
1.14125e-10
1.20896e-08
-2.24307e-10
5.71553e-08
8.75013e-09
-2.67501e-09
5.03741e-08
3.98317e-09
-1.58843e-09
4.6978e-08
1.76401e-10
-7.66909e-10
4.34395e-08
-4.49228e-09
-2.47468e-09
4.48032e-08
-1.33862e-08
-4.74946e-09
4.21973e-08
-4.52878e-09
5.22669e-08
-1.44861e-08
3.95253e-09
-4.25815e-10
5.98382e-08
2.03116e-09
1.01586e-08
-1.1677e-09
5.87507e-08
1.02335e-08
-4.64981e-09
5.35695e-08
6.40443e-09
-6.98375e-09
4.85504e-08
-2.23975e-09
-1.11385e-08
4.25275e-08
-7.68651e-09
-7.78124e-09
4.60537e-08
-1.29615e-08
-1.0673e-08
4.64634e-08
-7.91072e-09
5.49036e-08
-1.14896e-08
2.85053e-09
-2.43164e-09
5.94e-08
8.86838e-10
6.40765e-09
-2.27654e-09
5.84975e-08
6.47882e-09
-3.71351e-09
5.57161e-08
3.41009e-09
-6.82808e-09
5.26328e-08
-8.67564e-10
-1.08665e-08
5.05554e-08
-7.53165e-09
-9.52616e-09
5.04522e-08
-1.2028e-08
-1.09574e-08
5.25504e-08
-7.29772e-09
5.89361e-08
-9.40911e-09
3.19642e-09
-5.25898e-09
5.96521e-08
-1.2269e-09
5.24207e-09
-4.30709e-09
5.82827e-08
3.38491e-09
-4.80333e-09
5.5558e-08
4.6511e-10
-7.76385e-09
5.42364e-08
-1.73002e-09
-9.70046e-09
5.4381e-08
-7.71038e-09
-1.11092e-08
5.3916e-08
-9.82753e-09
-9.08059e-09
5.7084e-08
-5.34858e-09
6.15957e-08
-6.83887e-09
4.13877e-09
-1.3582e-09
6.32061e-08
-4.2294e-10
5.03245e-09
-2.01796e-09
6.04468e-08
1.18033e-09
-3.48806e-09
5.70763e-08
-1.16308e-09
-5.36199e-09
5.72338e-08
-2.87276e-09
-7.61788e-09
5.80314e-08
-5.0711e-09
-8.67986e-09
5.87617e-08
-6.75042e-09
-7.65127e-09
6.01875e-08
-4.33623e-09
6.27062e-08
-5.5035e-09
3.58004e-09
6.20273e-08
-5.2117e-10
-1.36167e-09
2.91483e-09
5.96196e-08
-2.66431e-09
-1.57391e-09
5.74924e-08
-3.8693e-09
-3.46301e-09
5.90059e-08
-2.23359e-09
-4.00272e-09
6.0944e-08
-3.83597e-09
-3.97586e-09
6.25271e-08
-3.95781e-09
-3.62743e-09
6.36898e-08
-3.71357e-09
6.414e-08
-2.81505e-09
-3.12817e-09
2.61348e-09
5.26821e-09
6.22392e-08
-3.44548e-10
-4.58304e-09
4.1747e-09
5.71706e-09
6.13208e-08
-5.01453e-09
4.05052e-09
7.0631e-09
5.96882e-08
-6.28477e-09
3.32399e-09
7.7308e-09
5.83829e-08
-7.08326e-09
1.95445e-09
8.41557e-09
5.71102e-08
-8.2725e-09
-7.49423e-10
7.24219e-09
5.60164e-08
-7.88396e-09
-3.26351e-09
6.52875e-09
5.62495e-08
-6.96829e-09
3.56026e-09
5.80962e-08
-3.89782e-09
-3.17018e-09
2.98467e-09
3.05266e-09
5.99862e-08
-3.05745e-10
5.3243e-09
3.54931e-09
5.90138e-08
4.88366e-09
4.03878e-09
5.65994e-08
3.73993e-09
4.3606e-09
5.49078e-08
1.09074e-09
4.37461e-09
5.30535e-08
-2.22184e-09
2.68665e-09
5.24578e-08
-6.13392e-09
2.4684e-09
5.28319e-08
8.85174e-10
5.63501e-08
-5.89447e-09
3.56417e-09
9.92741e-10
5.90909e-08
-8.97168e-10
5.7634e-09
6.59687e-10
5.78457e-08
5.04099e-09
3.50167e-11
5.51005e-08
3.29752e-09
-1.28265e-10
5.32099e-08
7.57268e-11
-3.97469e-10
5.14352e-08
-2.84759e-09
-1.35548e-09
5.17682e-08
-7.39764e-09
-2.46868e-09
5.16843e-08
-2.43517e-09
5.57271e-08
-7.53767e-09
2.89114e-09
-4.67476e-10
5.89499e-08
-5.42452e-10
5.08534e-09
-8.31216e-10
5.80479e-08
4.98987e-09
-2.09949e-09
5.5801e-08
3.1972e-09
-3.37064e-09
5.35831e-08
-1.03184e-09
-5.14991e-09
5.15143e-08
-3.95231e-09
-4.90499e-09
5.25247e-08
-7.30114e-09
-5.74575e-09
5.30898e-08
-4.68034e-09
5.67491e-08
-6.90135e-09
2.39667e-09
-1.7706e-09
5.90346e-08
-7.28086e-10
3.71429e-09
-1.91757e-09
5.82668e-08
3.37644e-09
-2.766e-09
5.67207e-08
1.65127e-09
-4.25246e-09
5.52452e-08
-1.20697e-09
-5.97689e-09
5.42385e-08
-4.19951e-09
-6.0463e-09
5.45862e-08
-6.67678e-09
-6.42727e-09
5.57091e-08
-5.03506e-09
5.86413e-08
-6.0275e-09
2.30069e-09
-2.78482e-09
5.95248e-08
-1.15922e-09
2.92423e-09
-2.84178e-09
5.85838e-08
1.90429e-09
-3.41118e-09
5.72228e-08
1.39584e-10
-4.69459e-09
5.6444e-08
-1.82883e-09
-5.94061e-09
5.63135e-08
-4.24291e-09
-6.36823e-09
5.66523e-08
-5.71968e-09
-5.92891e-09
5.80624e-08
-4.46644e-09
6.02478e-08
-4.94057e-09
2.23546e-09
-1.70224e-09
6.07316e-08
-8.43502e-10
2.41953e-09
-2.16487e-09
5.95859e-08
7.76952e-10
-2.93975e-09
5.82474e-08
-8.9126e-10
-3.7998e-09
5.80072e-08
-2.29773e-09
-4.88312e-09
5.83807e-08
-3.61638e-09
-5.26699e-09
5.89789e-08
-4.48312e-09
-4.8927e-09
6.00177e-08
-3.66368e-09
6.14478e-08
-4.02817e-09
1.78948e-09
6.07644e-08
-1.28334e-09
-9.45548e-10
1.47285e-09
5.98112e-08
-2.03975e-09
-3.40189e-10
5.88854e-08
-2.51964e-09
-1.93877e-09
5.90929e-08
-2.28863e-09
-2.7322e-09
5.99748e-08
-3.12006e-09
-3.196e-09
6.08462e-08
-3.1223e-09
-3.28564e-09
6.174e-08
-2.85328e-09
6.25384e-08
-2.44006e-09
-2.90808e-09
1.59866e-09
3.15723e-09
6.09786e-08
-4.81864e-10
-3.01319e-09
2.33618e-09
3.40838e-09
6.04475e-08
-3.27259e-09
2.31752e-09
3.87604e-09
5.96176e-08
-3.78675e-09
1.83617e-09
4.15919e-09
5.88688e-08
-4.1632e-09
9.39665e-10
4.33412e-09
5.82311e-08
-4.55853e-09
-3.84621e-10
3.80691e-09
5.78237e-08
-4.28933e-09
-1.60004e-09
3.20455e-09
5.79483e-08
-3.68768e-09
1.85815e-09
5.8705e-08
-2.30624e-09
-1.76066e-09
1.83164e-09
2.07921e-09
5.98165e-08
-5.84044e-10
2.75157e-09
2.2613e-09
5.92407e-08
2.61594e-09
2.43223e-09
5.8179e-08
1.91755e-09
2.48646e-09
5.72799e-08
4.68435e-10
2.357e-09
5.64798e-08
-1.17934e-09
1.65268e-09
5.62599e-08
-2.91186e-09
1.21728e-09
5.65518e-08
3.76622e-10
5.79043e-08
-2.9843e-09
2.05275e-09
8.32295e-10
5.92093e-08
-9.24403e-10
2.90806e-09
7.06321e-10
5.85456e-08
2.62498e-09
4.35107e-10
5.73812e-08
1.68075e-09
2.2048e-10
5.64206e-08
-5.42909e-11
-1.2466e-10
5.56528e-08
-1.7139e-09
-6.49503e-10
5.57301e-08
-3.68922e-09
-1.16242e-09
5.60396e-08
-1.36127e-09
5.76598e-08
-3.88392e-09
1.84311e-09
-2.50545e-10
5.90328e-08
-8.43017e-10
2.60497e-09