/*--------------------------------*- C++ -*----------------------------------*\
| =========                 |                                                 |
| \\      /  F ield         | OpenFOAM: The Open Source CFD Toolbox           |
|  \\    /   O peration     | Version:  2506                                  |
|   \\  /    A nd           | Website:  www.openfoam.com                      |
|    \\/     M anipulation  |                                                 |
\*---------------------------------------------------------------------------*/
FoamFile
{
    version     2.0;
    format      ascii;
    arch        "LSB;label=32;scalar=64";
    class       volVectorField;
    location    "0.1";
    object      Us;
}
// * * * * * * * * * * * * * * * * * * * * * * * * * * * * * * * * * * * * * //

dimensions      [0 1 -1 0 0 0 0];

internalField   nonuniform List<vector> 
4608
(
(2.21538e-05 -5.03419e-05 -1.68925e-05)
(0.000430271 0.000593885 -0.00040697)
(0.000172052 0.000288677 -0.000190159)
(-5.68857e-05 -0.00014755 -8.89058e-05)
(-0.000136927 -0.000193714 -7.80997e-05)
(5.8609e-05 0.000135452 5.7348e-05)
(-1.46722e-06 7.78484e-05 3.54443e-05)
(5.66927e-05 5.19838e-05 1.13746e-05)
(1.75658e-05 -6.39833e-06 -7.3769e-07)
(5.56429e-05 0.000174397 -6.59495e-06)
(-7.60242e-05 0.000106232 -8.23131e-05)
(-6.20088e-05 4.22873e-05 7.18419e-06)
(-0.000145951 -0.000599168 -0.000338165)
(3.99124e-05 -0.000311077 -0.000118451)
(-1.08768e-05 -0.000305464 -9.31836e-05)
(-8.45415e-06 0.00021058 -0.000169151)
(2.8103e-05 3.64035e-05 0.000100953)
(0.000142019 0.000143909 -3.62894e-05)
(7.68562e-05 7.65378e-05 -4.19595e-05)
(0.000108478 8.21917e-05 4.31966e-05)
(2.2763e-05 0.000104012 -6.65051e-05)
(0.000212433 -4.5042e-05 -0.000145386)
(0.000208873 -0.000122808 -0.00041471)
(-0.000767875 0.000349837 -0.000167197)
(-3.8504e-06 0.000135457 3.31495e-05)
(-3.12913e-05 5.57137e-05 6.28604e-06)
(2.9865e-05 8.03439e-05 1.39617e-05)
(4.57771e-05 6.44694e-05 -4.08586e-05)
(-2.61655e-05 3.86532e-05 3.20254e-05)
(-2.97496e-05 0.000162357 -0.000283431)
(-0.000105192 -0.00038917 -6.64487e-05)
(0.000457434 -0.000149111 -0.000264078)
(0.000171653 0.0002228 -3.36377e-05)
(-2.3658e-05 6.1946e-06 0.00016721)
(0.00020378 -6.89095e-05 0.000121052)
(3.84778e-05 3.14841e-05 -0.000110017)
(-6.49718e-05 0.000114381 7.33772e-05)
(-0.000399502 0.000176634 5.77415e-05)
(-0.0015001 -9.21274e-05 -0.000184917)
(-0.000817965 -2.95471e-05 0.000103423)
(0.000186455 0.000143451 -6.67222e-05)
(-0.00045581 -0.000139959 5.87448e-05)
(-0.000344838 -0.000178847 0.000513248)
(-0.000216783 -0.000370553 -0.000105568)
(1.96767e-06 0.000245867 0.000161208)
(-0.000324558 -4.87314e-05 -0.000115875)
(-0.000204705 -9.02398e-05 -5.90346e-05)
(-5.54365e-05 -0.000119827 -6.11543e-05)
(0.000474926 7.85013e-05 -0.000325284)
(0.000397377 -0.000124073 7.25135e-05)
(4.33395e-06 -0.000620823 -6.23951e-05)
(-0.000110044 -0.000399876 -0.0003623)
(0.00039674 -0.000148047 6.46727e-05)
(0.000145124 -0.000218989 -6.85806e-05)
(0.000285832 2.133e-05 0.000233848)
(9.21884e-05 -0.000461598 5.5288e-05)
(0.000391456 -0.000282337 -0.000130138)
(0.000978838 -0.000196208 -0.000237237)
(0.000788193 -0.000393672 -0.000131515)
(0.000416925 -0.000686431 -1.16502e-05)
(0.000288335 -6.42282e-05 9.34785e-06)
(-0.000201196 -0.000112516 0.000112799)
(-0.000188897 -0.000410417 3.6018e-05)
(-0.000475084 -0.000271424 -6.00442e-05)
(2.11498e-07 -0.00211077 0.0120379)
(0.000645045 -0.001639 0.0153391)
(0.000801775 0.000190523 0.0110802)
(-0.000780218 -7.20826e-07 0.01259)
(-0.000704263 -0.00102576 0.0055127)
(0.00262746 -0.000470734 0.0126317)
(0.00262873 -0.000712717 0.00950663)
(0.00132534 0.000165093 0.0113281)
(-0.000582226 -0.00157832 0.0143636)
(-0.000918093 -7.03437e-05 0.0140484)
(0.000377596 0.000411279 0.0133451)
(-5.64153e-05 0.000704422 0.0120855)
(0.0016664 0.000264923 0.0121068)
(0.00257556 0.00157387 0.0134655)
(0.0020382 0.00095594 0.0139258)
(0.00140374 0.000884665 0.0145688)
(-0.000365768 -0.000987415 0.0145895)
(-0.000365175 -0.000979352 0.0142197)
(9.5638e-05 -0.000284563 0.0114239)
(5.68393e-05 -0.000795994 0.0118599)
(0.000732562 0.000792069 0.0134651)
(0.00247968 0.00104342 0.0116157)
(0.00189145 0.000233986 0.0153079)
(0.00172489 0.00100962 0.0141049)
(-0.00230528 0.000345215 0.0142918)
(-0.00128175 -0.000283895 0.0104505)
(0.00241913 0.000565795 0.00980832)
(0.00174716 8.32416e-05 0.0123209)
(0.00224973 0.000756567 0.0127364)
(0.00314884 0.000287322 0.0138151)
(0.00227664 -4.89203e-05 0.0138689)
(0.00175459 0.000690523 0.0154069)
(0.00061895 0.00119672 0.0122869)
(0.00137957 0.00261812 0.013713)
(0.0011779 0.00123253 0.0157861)
(0.000515197 0.00082322 0.0144741)
(0.000373808 -0.000918741 0.01238)
(0.00196497 7.12493e-05 0.0128193)
(0.00373189 -0.000854435 0.00878529)
(0.00250219 -0.000966476 0.0116996)
(-0.000152761 0.00192943 0.0137195)
(9.41871e-05 0.000585335 0.0145445)
(-4.78041e-05 -0.000224498 0.0156505)
(-0.000104819 -6.26596e-05 0.0131384)
(0.000801067 -0.00105742 0.00996397)
(0.00457046 0.000375576 0.0108732)
(0.00191061 -8.94301e-05 0.0127139)
(0.000810772 -0.0017197 0.0138897)
(-0.000687437 0.00215385 0.011319)
(0.000264997 0.0015652 0.0146252)
(-8.5314e-06 0.000799871 0.0139653)
(-0.000550884 0.000849149 0.0145313)
(0.000586108 0.00223764 0.00741788)
(0.00261499 0.000546397 0.0116073)
(0.00217033 0.000390785 0.0140882)
(0.00220298 0.00120975 0.0131591)
(0.00120083 -0.000404606 0.0130342)
(0.000843978 0.000586921 0.0134557)
(6.10986e-05 0.000946497 0.0154074)
(9.27042e-06 0.0019895 0.0121193)
(0.00138884 0.00163143 0.011969)
(0.000612596 0.000312017 0.014407)
(-0.00018379 0.00126848 0.0150148)
(0.00225708 0.00241193 0.0115422)
(0.000969221 0.00103445 0.0168888)
(0.000239679 0.000813645 0.0177325)
(0.000775707 0.00245993 0.0170987)
(0.000718898 0.0015357 0.0166678)
(0.000842893 0.00120161 0.0165355)
(0.000423544 0.00105732 0.0161922)
(0.00056184 0.00102366 0.0171136)
(-0.0006359 0.000812251 0.016086)
(0.000758388 0.000934604 0.0165121)
(-0.000527797 -0.00064362 0.019318)
(5.14268e-05 0.00115394 0.0170324)
(0.00171263 0.000995912 0.0175393)
(0.00119219 0.00120103 0.0177295)
(0.000835693 0.00110744 0.0172503)
(0.000863737 0.000331632 0.0184727)
(0.000441977 0.00124956 0.0172075)
(0.000982412 3.92553e-05 0.0167558)
(0.000944265 -9.11381e-05 0.0175518)
(0.000628764 -0.000389036 0.0174141)
(0.000611509 -0.00012239 0.0180472)
(0.000989696 0.000616095 0.017693)
(0.00145065 0.000456116 0.0184197)
(0.00162635 0.000359078 0.0180098)
(0.00215093 0.00104911 0.0187944)
(-0.000149235 -0.000383467 0.016551)
(-0.000275065 -0.000218561 0.0154952)
(0.00057552 -5.58727e-05 0.0167096)
(0.00101614 -0.000114624 0.0192381)
(0.00102413 -0.00011249 0.0180934)
(0.00126957 -0.0014714 0.01714)
(-0.00019006 0.00104345 0.018733)
(-1.95913e-06 0.00181409 0.0190158)
(0.000174305 0.000408928 0.0146973)
(0.000584316 -0.000658673 0.0184772)
(0.00144098 -0.000224041 0.0185275)
(-0.00103966 0.000560741 0.0174772)
(-0.00175364 -0.00115818 0.0188767)
(0.00254524 -0.00133404 0.0172544)
(0.0033408 -0.000292659 0.0177956)
(-9.83854e-05 -4.90335e-05 0.0180308)
(-0.000238999 0.00107587 0.0172509)
(0.000242219 -0.000739652 0.017372)
(0.00147064 -0.000117711 0.0180126)
(0.00125465 0.000348762 0.0176021)
(-0.000283039 0.000431997 0.0187146)
(0.00133981 1.12982e-05 0.0178917)
(0.00166951 -0.000998605 0.0176544)
(-0.000748957 -0.000132336 0.0175644)
(0.000866397 -0.000342843 0.0169334)
(0.00152829 0.000468091 0.0164992)
(0.00184734 0.000210165 0.0162898)
(0.000768672 0.000482305 0.0159038)
(0.000685989 -2.37867e-05 0.0165561)
(0.00117951 -0.000155202 0.0174956)
(0.00230605 0.000690926 0.0166796)
(0.000282008 0.000395788 0.0166297)
(0.00128579 -0.000686448 0.0153942)
(0.00138191 0.000581343 0.0170687)
(0.00145551 0.000649785 0.0167194)
(0.000431315 -1.3982e-05 0.0155372)
(0.000366265 0.00138284 0.0171368)
(0.000866185 0.00040506 0.0180449)
(0.00170604 0.00102227 0.0173309)
(0.00204973 0.00019682 0.017494)
(0.000467919 0.00198343 0.0169799)
(0.000780459 0.00132259 0.0172533)
(0.00076098 0.00123707 0.0175303)
(0.000847319 0.00153013 0.0174827)
(0.000414159 0.00125663 0.0171826)
(-0.000291143 0.00134107 0.0165345)
(0.0005162 0.00152577 0.0177929)
(-0.000191676 0.00186161 0.0172838)
(0.00115345 0.0013705 0.0182721)
(0.000636841 0.00124601 0.0179465)
(0.000715875 0.000679879 0.0178127)
(0.000408768 0.000541189 0.0181748)
(0.00016591 0.000864563 0.0181839)
(-0.000325138 0.00129706 0.0173722)
(0.000263098 0.0014386 0.0176307)
(0.000279188 0.00109699 0.019644)
(0.0015931 0.00142614 0.0189663)
(0.00138921 0.00103199 0.0182556)
(0.000992547 0.00045399 0.0181594)
(0.00054344 -3.2708e-05 0.0184467)
(0.000948085 0.000264754 0.0189573)
(0.000711057 0.000969316 0.0186698)
(0.000685371 0.00111129 0.0186051)
(0.000967802 0.000950268 0.0188681)
(0.00176378 0.000641321 0.0179743)
(0.00126118 0.000497763 0.0182423)
(0.00111293 0.000627463 0.0185477)
(0.000854788 0.000368754 0.0192019)
(0.000919828 0.000231634 0.0196814)
(0.000205287 0.000591495 0.0193519)
(-0.000241557 0.000319037 0.0192682)
(0.000413765 0.000367412 0.0201587)
(0.00143163 0.00114788 0.0180781)
(0.000656088 0.000737032 0.0194838)
(0.000718564 0.000284237 0.0186456)
(0.000408404 0.000440821 0.0189298)
(-0.000121587 0.00014173 0.0189834)
(-0.000319463 0.00029083 0.0195459)
(-0.000460955 0.000498566 0.0192764)
(-0.000796512 0.000427677 0.0191248)
(0.00193865 9.17607e-05 0.0180864)
(0.00135525 0.000421453 0.018493)
(0.000860034 0.000407272 0.0186047)
(0.000600954 0.000431821 0.0191142)
(0.0004438 0.000123716 0.019014)
(0.000374439 -0.000214158 0.019628)
(-0.000357719 0.000305705 0.0196481)
(-0.000676261 0.000684398 0.0194465)
(0.00160376 -0.000451982 0.0178417)
(0.00163389 -0.000106387 0.0177554)
(0.000927728 -0.000301192 0.0180047)
(0.00113491 -0.000472 0.0182969)
(0.000876531 -0.000465478 0.0183575)
(0.000506448 -0.000646385 0.0181377)
(0.000645969 0.000162993 0.0188608)
(-3.31237e-05 8.10416e-05 0.0191993)
(0.00151738 -0.000730398 0.0178962)
(0.00120039 -0.000389311 0.0176089)
(0.000842635 -0.000490791 0.0178944)
(0.00132781 -0.00122137 0.0177836)
(0.00118298 -0.000921156 0.0178711)
(0.000301222 -0.000283471 0.0179924)
(0.000860862 -0.000452929 0.0185205)
(-0.000210619 -0.000769279 0.0181191)
(0.000571909 0.000330554 0.0169002)
(0.000877024 0.000660573 0.017711)
(0.000231733 -5.93361e-05 0.018303)
(0.00046116 0.000415921 0.0180871)
(-1.96988e-05 0.000416566 0.0189217)
(0.000122267 0.000268903 0.0180218)
(-0.000121613 0.000679683 0.0173914)
(-0.000413086 0.000718941 0.017915)
(0.000493421 0.000314536 0.0179004)
(0.000630831 0.000535373 0.0181771)
(0.000262345 0.000124551 0.0185697)
(0.000407362 -0.000217116 0.0187885)
(0.000484717 -0.000248698 0.0187072)
(0.000274526 0.000146022 0.0183926)
(0.000100238 0.000258842 0.0185488)
(-0.000882607 0.000555208 0.0189564)
(0.00078732 0.000153068 0.0182154)
(0.000830161 0.000247353 0.0185132)
(0.000754493 0.000451369 0.0187077)
(0.000670477 -0.00028205 0.0192435)
(0.000597926 -0.000247479 0.0192287)
(0.000109667 -2.4495e-05 0.0191757)
(4.61056e-05 0.000151952 0.0189696)
(-8.27006e-05 0.000377448 0.0189786)
(0.000963486 -9.33956e-05 0.0184268)
(0.00102325 9.43927e-05 0.0189051)
(0.000889061 0.00038404 0.018932)
(0.000557932 0.000153803 0.0190287)
(-0.000763476 0.000433444 0.0199469)
(-0.000319676 0.000204355 0.0198247)
(-8.73074e-05 0.000372976 0.0194231)
(-2.0567e-05 0.000489565 0.0192623)
(0.00126307 -0.000103533 0.018841)
(0.000920457 -5.78165e-05 0.0194109)
(0.000307093 -2.23329e-05 0.0190308)
(2.71543e-06 -9.82538e-05 0.0192863)
(4.4257e-05 0.000183625 0.0194926)
(-0.000201194 3.34147e-05 0.0198408)
(-0.000300961 0.000294653 0.019723)
(-0.000698288 0.000425255 0.0194167)
(0.00181551 -0.000508678 0.0188667)
(0.00110068 -0.000146233 0.0202777)
(0.000109369 0.00022263 0.0194444)
(0.000642115 0.000257606 0.0199924)
(-0.00021629 0.000204616 0.019469)
(-8.93772e-05 -0.000187022 0.0199733)
(-9.47405e-05 0.000211267 0.0200404)
(-0.000702702 -0.00011494 0.0201883)
(0.00107341 -0.000418353 0.0182844)
(0.000794068 -0.000346623 0.0192567)
(0.000208544 -0.000105882 0.0194337)
(0.000462397 0.00025258 0.018893)
(-0.00015955 -0.000471193 0.0194091)
(4.51113e-06 -0.000264188 0.0200103)
(-6.35837e-05 1.76583e-05 0.0201007)
(-0.000304586 0.000335834 0.0202235)
(0.00109033 -0.000558049 0.0177248)
(0.000757778 -0.000449643 0.0180038)
(0.000409214 -0.000586167 0.0182517)
(0.000201914 -0.000834814 0.018373)
(1.17527e-06 -0.000612508 0.0181367)
(-0.000157124 -0.00104499 0.0186651)
(-0.000563412 -0.00131737 0.0196561)
(-0.000497098 -0.00042641 0.0193946)
(0.00075471 -0.000281074 0.0180738)
(-0.00010159 0.000427366 0.0175863)
(0.000147013 0.000177525 0.0182457)
(0.000356408 -0.000205416 0.0182986)
(0.000596309 -0.00118475 0.0186569)
(-0.000114981 -0.00135057 0.0180272)
(-0.000371314 -1.76526e-05 0.0170746)
(-0.000512886 6.53484e-05 0.0178488)
(0.0004407 -8.65733e-07 0.0177275)
(0.000118058 -0.000198701 0.0178979)
(0.000215915 0.000177822 0.0184765)
(0.000450574 -0.000709974 0.0186256)
(0.000401224 -0.000766288 0.018781)
(0.000706959 -0.000638677 0.0183866)
(6.31262e-05 -0.000547536 0.0182668)
(-0.000594967 0.000160037 0.018251)
(0.000272993 -3.11614e-05 0.0181653)
(9.23932e-05 -5.69189e-05 0.0186403)
(0.000190076 -3.46031e-05 0.018867)
(-3.08235e-05 -0.000274605 0.0188783)
(-0.000236591 -0.000680679 0.018791)
(5.78697e-05 -0.000516355 0.0192273)
(-0.000126673 -8.90377e-06 0.0191292)
(-0.000578041 0.000286686 0.0191771)
(0.000599165 -0.000328942 0.0187724)
(0.000498614 -0.000148509 0.019206)
(0.000357012 -0.000225257 0.0193992)
(0.000252302 -0.000121388 0.0194143)
(-0.000290298 -0.000451793 0.0195945)
(-0.000332732 -0.000169689 0.0195893)
(-0.000170218 -1.08036e-05 0.0194284)
(-0.000247734 0.000438249 0.0194125)
(0.00113812 -0.000194658 0.0188775)
(0.000260608 -0.000394764 0.0193622)
(0.000173588 -4.42258e-05 0.0194305)
(-0.000265322 -0.000209171 0.0194006)
(-0.000591918 0.000193384 0.019638)
(-0.000505546 0.000237096 0.0199002)
(-0.000202832 4.30566e-05 0.0195359)
(0.000227541 0.000233403 0.0201345)
(0.00103483 4.78758e-05 0.0191224)
(0.000375245 0.000123797 0.0199329)
(-2.19942e-05 3.07287e-05 0.0191679)
(-0.000232882 -4.37412e-05 0.0193758)
(-0.000396672 -4.64347e-05 0.0195534)
(-0.000254257 -0.00042479 0.0200397)
(-0.000133967 -6.74189e-05 0.0199695)
(0.000752002 4.80305e-05 0.0203099)
(0.000558387 -0.000293398 0.0187162)
(0.000142344 0.000291358 0.0192715)
(0.000156786 6.57093e-05 0.0196114)
(-9.90137e-05 -0.000359369 0.0194888)
(-0.000584651 -0.000442378 0.0195571)
(-0.000144781 -0.000353981 0.0197724)
(2.89485e-05 2.10342e-05 0.0200783)
(-2.46526e-05 -0.000565318 0.0202167)
(0.000546049 -7.98253e-06 0.017879)
(0.00105743 -1.87973e-05 0.0183326)
(2.09687e-06 -7.99253e-06 0.0188226)
(-0.00033068 -0.000358496 0.0183562)
(-0.000941928 -0.000468044 0.0178788)
(-0.00170544 -0.000839062 0.0194371)
(-0.00170271 -6.5377e-06 0.0204313)
(-0.000317776 3.36433e-05 0.0198258)
(-0.000102358 -0.000262353 0.0166329)
(4.18024e-05 -0.000256896 0.017197)
(0.00109017 -0.0003481 0.0183594)
(0.00140343 -0.00157108 0.0185868)
(0.000962443 -0.000865984 0.017977)
(-0.000320787 -0.00110895 0.0183919)
(-9.85221e-05 -0.000126443 0.0182247)
(-0.00128492 1.98696e-05 0.0176262)
(0.000247537 -0.000917426 0.0179228)
(-0.000131905 -0.000687256 0.017945)
(-5.29336e-06 -0.000426995 0.018151)
(0.000526324 -0.00105665 0.0184439)
(-0.000239084 -0.000567414 0.0189209)
(-2.73065e-05 -0.000573955 0.018412)
(-6.77092e-05 -0.000369733 0.0180969)
(0.000139013 0.000496434 0.0172413)
(9.8037e-05 -0.000629497 0.0179524)
(-2.76935e-05 -0.000640813 0.0184062)
(-4.54257e-05 -0.00060328 0.0186506)
(-1.72361e-05 -0.000597436 0.0188037)
(-0.000301715 -0.000489983 0.0185128)
(-0.000266351 -0.000798348 0.0188914)
(-8.77486e-05 -0.000632862 0.0188229)
(-0.000430138 0.000190886 0.0188852)
(0.000216503 -0.000140493 0.0189627)
(0.000128301 -0.000522062 0.0191006)
(-0.00017336 -0.000653546 0.0192058)
(-0.000260844 -0.000648481 0.0191102)
(-0.000165015 -0.000340129 0.0194358)
(-0.000329031 -0.000708494 0.0192192)
(-0.000133259 -0.000249928 0.0190283)
(-0.000190846 0.000866029 0.0193285)
(-8.18498e-06 -0.000172562 0.018987)
(-0.00053939 -0.000266818 0.0191402)
(-0.000386994 5.14685e-05 0.0192302)
(-0.000349798 -0.000157854 0.0193791)
(-0.000343345 8.60716e-05 0.0192942)
(-0.000295423 -0.00043306 0.0192783)
(-0.000750836 -0.000432852 0.0194335)
(0.000254102 0.000416919 0.0194742)
(-0.000399952 0.000401155 0.0186557)
(-0.000191236 0.000180171 0.0189541)
(-0.00085725 2.27662e-05 0.019209)
(-0.000518572 -0.000170917 0.0194955)
(-0.000439853 -4.60776e-05 0.0192128)
(-8.04289e-06 -0.000566668 0.0195431)
(-0.000740206 -1.81341e-05 0.0196316)
(-0.000664729 -0.00153175 0.019056)
(-0.000906137 -8.96903e-05 0.0189905)
(-0.000827925 0.00036075 0.0190434)
(-0.000830422 -0.000198545 0.0196614)
(-0.000917035 -0.000720739 0.0193011)
(-0.000606007 -0.000546681 0.0196896)
(-0.00076891 -0.000302919 0.019303)
(-0.000469747 0.0006711 0.019901)
(-4.16337e-05 -0.0014469 0.0190396)
(-2.46876e-05 0.000702878 0.0181665)
(-0.00034338 -0.000142604 0.0184536)
(0.000117041 -0.000311983 0.0184716)
(-0.000208279 -5.88418e-05 0.018572)
(-0.00116997 -0.00119447 0.0185908)
(-0.00100725 -0.00114249 0.0190583)
(-0.00107135 -0.000242466 0.0200134)
(0.000255514 -0.000505943 0.0192969)
(0 0 0)
(0 0 0)
(0 0 0)
(0 0 0)
(0 0 0)
(0 0 0)
(0 0 0)
(0 0 0)
(0 0 0)
(0 0 0)
(0.000118176 -0.001871 0.0178156)
(0.000118176 -0.001871 0.0178156)
(-2.97612e-05 -0.000916394 0.0190557)
(-0.000643242 -0.000435299 0.0176384)
(0.00067016 -0.000760891 0.0175084)
(0 0 0)
(0 0 0)
(0 0 0)
(0.000118176 -0.001871 0.0178156)
(0.000118176 -0.001871 0.0178156)
(0.000414263 -0.000336733 0.018172)
(0.000198046 -0.000870081 0.0190989)
(0.000145473 -0.000953046 0.0191222)
(0 0 0)
(0 0 0)
(0 0 0)
(-0.00101385 -0.000566505 0.0188283)
(-0.00101385 -0.000566505 0.0188283)
(-3.24651e-05 -0.00067647 0.0192067)
(0.000197823 -0.000710287 0.0193578)
(7.86951e-05 -0.00055088 0.018779)
(0 0 0)
(0 0 0)
(0 0 0)
(0 0 0)
(0 0 0)
(0 0 0)
(-0.000213592 -0.000566688 0.0194139)
(0 0 0)
(0 0 0)
(0 0 0)
(0 0 0)
(0 0 0)
(0 0 0)
(0 0 0)
(0 0 0)
(0 0 0)
(0 0 0)
(0 0 0)
(0 0 0)
(0 0 0)
(0 0 0)
(0 0 0)
(0 0 0)
(0 0 0)
(0 0 0)
(0 0 0)
(0 0 0)
(0 0 0)
(0 0 0)
(0 0 0)
(0 0 0)
(0 0 0)
(0 0 0)
(0 0 0)
(0 0 0)
(0 0 0)
(0 0 0)
(0 0 0)
(0 0 0)
(0 0 0)
(0 0 0)
(0 0 0)
(0 0 0)
(0 0 0)
(0 0 0)
(0 0 0)
(0 0 0)
(0 0 0)
(0 0 0)
(0 0 0)
(0 0 0)
(0 0 0)
(0 0 0)
(0 0 0)
(0 0 0)
(0 0 0)
(0 0 0)
(0 0 0)
(0 0 0)
(0 0 0)
(0 0 0)
(0 0 0)
(0 0 0)
(0 0 0)
(0 0 0)
(0 0 0)
(0 0 0)
(0 0 0)
(0 0 0)
(0 0 0)
(0 0 0)
(0 0 0)
(0 0 0)
(0 0 0)
(0 0 0)
(0 0 0)
(0 0 0)
(0 0 0)
(0 0 0)
(0 0 0)
(0 0 0)
(0 0 0)
(0 0 0)
(0 0 0)
(0 0 0)
(0 0 0)
(0 0 0)
(0 0 0)
(0 0 0)
(0 0 0)
(0 0 0)
(0 0 0)
(0 0 0)
(0 0 0)
(0 0 0)
(0 0 0)
(0 0 0)
(0 0 0)
(0 0 0)
(0 0 0)
(0 0 0)
(0 0 0)
(0 0 0)
(0 0 0)
(0 0 0)
(0 0 0)
(0 0 0)
(0 0 0)
(0 0 0)
(0 0 0)
(0 0 0)
(0 0 0)
(0 0 0)
(0 0 0)
(0 0 0)
(0 0 0)
(0 0 0)
(0 0 0)
(0 0 0)
(0 0 0)
(0 0 0)
(0 0 0)
(0 0 0)
(0 0 0)
(0 0 0)
(0 0 0)
(0 0 0)
(0 0 0)
(0 0 0)
(0 0 0)
(0 0 0)
(0 0 0)
(0 0 0)
(0 0 0)
(0 0 0)
(0 0 0)
(0 0 0)
(0 0 0)
(0 0 0)
(0 0 0)
(0 0 0)
(0 0 0)
(0 0 0)
(0 0 0)
(0 0 0)
(0 0 0)
(0 0 0)
(0 0 0)
(0 0 0)
(0 0 0)
(0 0 0)
(0 0 0)
(0 0 0)
(0 0 0)
(0 0 0)
(0 0 0)
(0 0 0)
(0 0 0)
(0 0 0)
(0 0 0)
(0 0 0)
(0 0 0)
(0 0 0)
(0 0 0)
(0 0 0)
(0 0 0)
(0 0 0)
(0 0 0)
(0 0 0)
(0 0 0)
(0 0 0)
(0 0 0)
(0 0 0)
(0 0 0)
(0 0 0)
(0 0 0)
(0 0 0)
(0 0 0)
(0 0 0)
(0 0 0)
(0 0 0)
(0 0 0)
(0 0 0)
(0 0 0)
(0 0 0)
(0 0 0)
(0 0 0)
(0 0 0)
(0 0 0)
(0 0 0)
(0 0 0)
(0 0 0)
(0 0 0)
(0 0 0)
(0 0 0)
(0 0 0)
(0 0 0)
(0 0 0)
(0 0 0)
(0 0 0)
(0 0 0)
(0 0 0)
(0 0 0)
(0 0 0)
(0 0 0)
(0 0 0)
(0 0 0)
(0 0 0)
(0 0 0)
(0 0 0)
(0 0 0)
(0 0 0)
(0 0 0)
(0 0 0)
(0 0 0)
(0 0 0)
(0 0 0)
(0 0 0)
(0 0 0)
(0 0 0)
(0 0 0)
(0 0 0)
(0 0 0)
(0 0 0)
(0 0 0)
(0 0 0)
(0 0 0)
(0 0 0)
(0 0 0)
(0 0 0)
(0 0 0)
(0 0 0)
(0 0 0)
(0 0 0)
(0 0 0)
(0 0 0)
(0 0 0)
(0 0 0)
(0 0 0)
(0 0 0)
(0 0 0)
(0 0 0)
(0 0 0)
(0 0 0)
(0 0 0)
(0 0 0)
(0 0 0)
(0 0 0)
(0 0 0)
(0 0 0)
(0 0 0)
(0 0 0)
(0 0 0)
(0 0 0)
(0 0 0)
(0 0 0)
(0 0 0)
(0 0 0)
(0 0 0)
(0 0 0)
(0 0 0)
(0 0 0)
(0 0 0)
(0 0 0)
(0 0 0)
(0 0 0)
(0 0 0)
(0 0 0)
(0 0 0)
(0 0 0)
(0 0 0)
(0 0 0)
(0 0 0)
(0 0 0)
(0 0 0)
(0 0 0)
(0 0 0)
(0 0 0)
(0 0 0)
(0 0 0)
(0 0 0)
(0 0 0)
(0 0 0)
(0 0 0)
(0 0 0)
(0 0 0)
(0 0 0)
(0 0 0)
(0 0 0)
(0 0 0)
(0 0 0)
(0 0 0)
(0 0 0)
(0 0 0)
(0 0 0)
(0 0 0)
(0 0 0)
(0 0 0)
(0 0 0)
(0 0 0)
(0 0 0)
(0 0 0)
(0 0 0)
(0 0 0)
(0 0 0)
(0 0 0)
(0 0 0)
(0 0 0)
(0 0 0)
(0 0 0)
(0 0 0)
(0 0 0)
(0 0 0)
(0 0 0)
(0 0 0)
(0 0 0)
(0 0 0)
(0 0 0)
(0 0 0)
(0 0 0)
(0 0 0)
(0 0 0)
(0 0 0)
(0 0 0)
(0 0 0)
(0 0 0)
(0 0 0)
(0 0 0)
(0 0 0)
(0 0 0)
(0 0 0)
(0 0 0)
(0 0 0)
(0 0 0)
(0 0 0)
(0 0 0)
(0 0 0)
(0 0 0)
(0 0 0)
(0 0 0)
(0 0 0)
(0 0 0)
(0 0 0)
(0 0 0)
(0 0 0)
(0 0 0)
(0 0 0)
(0 0 0)
(0 0 0)
(0 0 0)
(0 0 0)
(0 0 0)
(0 0 0)
(0 0 0)
(0 0 0)
(0 0 0)
(0 0 0)
(0 0 0)
(0 0 0)
(0 0 0)
(0 0 0)
(0 0 0)
(0 0 0)
(0 0 0)
(0 0 0)
(0 0 0)
(0 0 0)
(0 0 0)
(0 0 0)
(0 0 0)
(0 0 0)
(0 0 0)
(0 0 0)
(0 0 0)
(0 0 0)
(0 0 0)
(0 0 0)
(0 0 0)
(0 0 0)
(0 0 0)
(0 0 0)
(0 0 0)
(0 0 0)
(0 0 0)
(0 0 0)
(0 0 0)
(0 0 0)
(0 0 0)
(0 0 0)
(0 0 0)
(0 0 0)
(0 0 0)
(0 0 0)
(0 0 0)
(0 0 0)
(0 0 0)
(0 0 0)
(0 0 0)
(0 0 0)
(0 0 0)
(0 0 0)
(0 0 0)
(0 0 0)
(0 0 0)
(0 0 0)
(0 0 0)
(0 0 0)
(0 0 0)
(0 0 0)
(0 0 0)
(0 0 0)
(0 0 0)
(0 0 0)
(0 0 0)
(0 0 0)
(0 0 0)
(0 0 0)
(0 0 0)
(0 0 0)
(0 0 0)
(0 0 0)
(0 0 0)
(0 0 0)
(0 0 0)
(0 0 0)
(0 0 0)
(0 0 0)
(0 0 0)
(0 0 0)
(0 0 0)
(0 0 0)
(0 0 0)
(0 0 0)
(0 0 0)
(0 0 0)
(0 0 0)
(0 0 0)
(0 0 0)
(0 0 0)
(0 0 0)
(0 0 0)
(0 0 0)
(0 0 0)
(0 0 0)
(0 0 0)
(0 0 0)
(0 0 0)
(0 0 0)
(0 0 0)
(0 0 0)
(0 0 0)
(0 0 0)
(0 0 0)
(0 0 0)
(0 0 0)
(0 0 0)
(0 0 0)
(0 0 0)
(0 0 0)
(0 0 0)
(0 0 0)
(0 0 0)
(0 0 0)
(0 0 0)
(0 0 0)
(0 0 0)
(0 0 0)
(0 0 0)
(0 0 0)
(0 0 0)
(0 0 0)
(0 0 0)
(0 0 0)
(0 0 0)
(0 0 0)
(0 0 0)
(0 0 0)
(0 0 0)
(0 0 0)
(0 0 0)
(0 0 0)
(0 0 0)
(0 0 0)
(0 0 0)
(0 0 0)
(0 0 0)
(0 0 0)
(0 0 0)
(0 0 0)
(0 0 0)
(0 0 0)
(0 0 0)
(0 0 0)
(0 0 0)
(0 0 0)
(0 0 0)
(0 0 0)
(0 0 0)
(0 0 0)
(0 0 0)
(0 0 0)
(0 0 0)
(0 0 0)
(0 0 0)
(0 0 0)
(0 0 0)
(0 0 0)
(0 0 0)
(0 0 0)
(0 0 0)
(0 0 0)
(0 0 0)
(0 0 0)
(0 0 0)
(0 0 0)
(0 0 0)
(0 0 0)
(0 0 0)
(0 0 0)
(0 0 0)
(0 0 0)
(0 0 0)
(0 0 0)
(0 0 0)
(0 0 0)
(0 0 0)
(0 0 0)
(0 0 0)
(0 0 0)
(0 0 0)
(0 0 0)
(0 0 0)
(0 0 0)
(0 0 0)
(0 0 0)
(0 0 0)
(0 0 0)
(0 0 0)
(0 0 0)
(0 0 0)
(0 0 0)
(0 0 0)
(0 0 0)
(0 0 0)
(0 0 0)
(0 0 0)
(0 0 0)
(0 0 0)
(0 0 0)
(0 0 0)
(0 0 0)
(0 0 0)
(0 0 0)
(0 0 0)
(0 0 0)
(0 0 0)
(0 0 0)
(0 0 0)
(0 0 0)
(0 0 0)
(0 0 0)
(0 0 0)
(0 0 0)
(0 0 0)
(0 0 0)
(0 0 0)
(0 0 0)
(0 0 0)
(0 0 0)
(0 0 0)
(0 0 0)
(0 0 0)
(0 0 0)
(0 0 0)
(0 0 0)
(0 0 0)
(0 0 0)
(0 0 0)
(0 0 0)
(0 0 0)
(0 0 0)
(0 0 0)
(0 0 0)
(0 0 0)
(0 0 0)
(0 0 0)
(0 0 0)
(0 0 0)
(0 0 0)
(0 0 0)
(0 0 0)
(0 0 0)
(0 0 0)
(0 0 0)
(0 0 0)
(0 0 0)
(0 0 0)
(0 0 0)
(0 0 0)
(0 0 0)
(0 0 0)
(0 0 0)
(0 0 0)
(0 0 0)
(0 0 0)
(0 0 0)
(0 0 0)
(0 0 0)
(0 0 0)
(0 0 0)
(0 0 0)
(0 0 0)
(0 0 0)
(0 0 0)
(0 0 0)
(0 0 0)
(0 0 0)
(0 0 0)
(0 0 0)
(0 0 0)
(0 0 0)
(0 0 0)
(0 0 0)
(0 0 0)
(0 0 0)
(0 0 0)
(0 0 0)
(0 0 0)
(0 0 0)
(0 0 0)
(0 0 0)
(0 0 0)
(0 0 0)
(0 0 0)
(0 0 0)
(0 0 0)
(0 0 0)
(0 0 0)
(0 0 0)
(0 0 0)
(0 0 0)
(0 0 0)
(0 0 0)
(0 0 0)
(0 0 0)
(0 0 0)
(0 0 0)
(0 0 0)
(0 0 0)
(0 0 0)
(0 0 0)
(0 0 0)
(0 0 0)
(0 0 0)
(0 0 0)
(0 0 0)
(0 0 0)
(0 0 0)
(0 0 0)
(0 0 0)
(0 0 0)
(0 0 0)
(0 0 0)
(0 0 0)
(0 0 0)
(0 0 0)
(0 0 0)
(0 0 0)
(0 0 0)
(0 0 0)
(0 0 0)
(0 0 0)
(0 0 0)
(0 0 0)
(0 0 0)
(0 0 0)
(0 0 0)
(0 0 0)
(0 0 0)
(0 0 0)
(0 0 0)
(0 0 0)
(0 0 0)
(0 0 0)
(0 0 0)
(0 0 0)
(0 0 0)
(0 0 0)
(0 0 0)
(0 0 0)
(0 0 0)
(0 0 0)
(0 0 0)
(0 0 0)
(0 0 0)
(0 0 0)
(0 0 0)
(0 0 0)
(0 0 0)
(0 0 0)
(0 0 0)
(0 0 0)
(0 0 0)
(0 0 0)
(0 0 0)
(0 0 0)
(0 0 0)
(0 0 0)
(0 0 0)
(0 0 0)
(0 0 0)
(0 0 0)
(0 0 0)
(0 0 0)
(0 0 0)
(0 0 0)
(0 0 0)
(0 0 0)
(0 0 0)
(0 0 0)
(0 0 0)
(0 0 0)
(0 0 0)
(0 0 0)
(0 0 0)
(0 0 0)
(0 0 0)
(0 0 0)
(0 0 0)
(0 0 0)
(0 0 0)
(0 0 0)
(0 0 0)
(0 0 0)
(0 0 0)
(0 0 0)
(0 0 0)
(0 0 0)
(0 0 0)
(0 0 0)
(0 0 0)
(0 0 0)
(0 0 0)
(0 0 0)
(0 0 0)
(0 0 0)
(0 0 0)
(0 0 0)
(0 0 0)
(0 0 0)
(0 0 0)
(0 0 0)
(0 0 0)
(0 0 0)
(0 0 0)
(0 0 0)
(0 0 0)
(0 0 0)
(0 0 0)
(0 0 0)
(0 0 0)
(0 0 0)
(0 0 0)
(0 0 0)
(0 0 0)
(0 0 0)
(0 0 0)
(0 0 0)
(0 0 0)
(0 0 0)
(0 0 0)
(0 0 0)
(0 0 0)
(0 0 0)
(0 0 0)
(0 0 0)
(0 0 0)
(0 0 0)
(0 0 0)
(0 0 0)
(0 0 0)
(0 0 0)
(0 0 0)
(0 0 0)
(0 0 0)
(0 0 0)
(0 0 0)
(0 0 0)
(0 0 0)
(0 0 0)
(0 0 0)
(0 0 0)
(0 0 0)
(0 0 0)
(0 0 0)
(0 0 0)
(0 0 0)
(0 0 0)
(0 0 0)
(0 0 0)
(0 0 0)
(0 0 0)
(0 0 0)
(0 0 0)
(0 0 0)
(0 0 0)
(0 0 0)
(0 0 0)
(0 0 0)
(0 0 0)
(0 0 0)
(0 0 0)
(0 0 0)
(0 0 0)
(0 0 0)
(0 0 0)
(0 0 0)
(0 0 0)
(0 0 0)
(0 0 0)
(0 0 0)
(0 0 0)
(0 0 0)
(0 0 0)
(0 0 0)
(0 0 0)
(0 0 0)
(0 0 0)
(0 0 0)
(0 0 0)
(0 0 0)
(0 0 0)
(0 0 0)
(0 0 0)
(0 0 0)
(0 0 0)
(0 0 0)
(0 0 0)
(0 0 0)
(0 0 0)
(0 0 0)
(0 0 0)
(0 0 0)
(0 0 0)
(0 0 0)
(0 0 0)
(0 0 0)
(0 0 0)
(0 0 0)
(0 0 0)
(0 0 0)
(0 0 0)
(0 0 0)
(0 0 0)
(0 0 0)
(0 0 0)
(0 0 0)
(0 0 0)
(0 0 0)
(0 0 0)
(0 0 0)
(0 0 0)
(0 0 0)
(0 0 0)
(0 0 0)
(0 0 0)
(0 0 0)
(0 0 0)
(0 0 0)
(0 0 0)
(0 0 0)
(0 0 0)
(0 0 0)
(0 0 0)
(0 0 0)
(0 0 0)
(0 0 0)
(0 0 0)
(0 0 0)
(0 0 0)
(0 0 0)
(0 0 0)
(0 0 0)
(0 0 0)
(0 0 0)
(0 0 0)
(0 0 0)
(0 0 0)
(0 0 0)
(0 0 0)
(0 0 0)
(0 0 0)
(0 0 0)
(0 0 0)
(0 0 0)
(0 0 0)
(0 0 0)
(0 0 0)
(0 0 0)
(0 0 0)
(0 0 0)
(0 0 0)
(0 0 0)
(0 0 0)
(0 0 0)
(0 0 0)
(0 0 0)
(0 0 0)
(0 0 0)
(0 0 0)
(0 0 0)
(0 0 0)
(0 0 0)
(0 0 0)
(0 0 0)
(0 0 0)
(0 0 0)
(0 0 0)
(0 0 0)
(0 0 0)
(0 0 0)
(0 0 0)
(0 0 0)
(0 0 0)
(0 0 0)
(0 0 0)
(0 0 0)
(0 0 0)
(0 0 0)
(0 0 0)
(0 0 0)
(0 0 0)
(0 0 0)
(0 0 0)
(0 0 0)
(0 0 0)
(0 0 0)
(0 0 0)
(0 0 0)
(0 0 0)
(0 0 0)
(0 0 0)
(0 0 0)
(0 0 0)
(0 0 0)
(0 0 0)
(0 0 0)
(0 0 0)
(0 0 0)
(0 0 0)
(0 0 0)
(0 0 0)
(0 0 0)
(0 0 0)
(0 0 0)
(0 0 0)
(0 0 0)
(0 0 0)
(0 0 0)
(0 0 0)
(0 0 0)
(0 0 0)
(0 0 0)
(0 0 0)
(0 0 0)
(0 0 0)
(0 0 0)
(0 0 0)
(0 0 0)
(0 0 0)
(0 0 0)
(0 0 0)
(0 0 0)
(0 0 0)
(0 0 0)
(0 0 0)
(0 0 0)
(0 0 0)
(0 0 0)
(0 0 0)
(0 0 0)
(0 0 0)
(0 0 0)
(0 0 0)
(0 0 0)
(0 0 0)
(0 0 0)
(0 0 0)
(0 0 0)
(0 0 0)
(0 0 0)
(0 0 0)
(0 0 0)
(0 0 0)
(0 0 0)
(0 0 0)
(0 0 0)
(0 0 0)
(0 0 0)
(0 0 0)
(0 0 0)
(0 0 0)
(0 0 0)
(0 0 0)
(0 0 0)
(0 0 0)
(0 0 0)
(0 0 0)
(0 0 0)
(0 0 0)
(0 0 0)
(0 0 0)
(0 0 0)
(0 0 0)
(0 0 0)
(0 0 0)
(0 0 0)
(0 0 0)
(0 0 0)
(0 0 0)
(0 0 0)
(0 0 0)
(0 0 0)
(0 0 0)
(0 0 0)
(0 0 0)
(0 0 0)
(0 0 0)
(0 0 0)
(0 0 0)
(0 0 0)
(0 0 0)
(0 0 0)
(0 0 0)
(0 0 0)
(0 0 0)
(0 0 0)
(0 0 0)
(0 0 0)
(0 0 0)
(0 0 0)
(0 0 0)
(0 0 0)
(0 0 0)
(0 0 0)
(0 0 0)
(0 0 0)
(0 0 0)
(0 0 0)
(0 0 0)
(0 0 0)
(0 0 0)
(0 0 0)
(0 0 0)
(0 0 0)
(0 0 0)
(0 0 0)
(0.000356894 -0.000202598 -3.48264e-06)
(0.000179369 -0.000101521 -0.000269551)
(0.000269894 -0.000299589 -4.64109e-05)
(0.00111502 1.69193e-05 -0.000329017)
(-0.000445663 -0.000901547 -8.51807e-05)
(-0.000160865 -7.34184e-05 9.46043e-05)
(7.64925e-05 -0.000288967 1.37564e-05)
(-0.000289436 -0.000280536 -0.000558156)
(5.6677e-05 -0.000111898 3.85009e-05)
(8.22815e-05 -0.000209613 -0.000114241)
(-0.000453127 -0.000447285 -0.000199615)
(-0.000396292 -0.000324581 -0.000580689)
(-0.00102619 -0.00108959 -0.000382401)
(-0.000269592 -0.00014561 -3.31691e-05)
(-0.000245914 -0.000125272 -0.000125732)
(8.15723e-05 0.000112882 -5.72881e-05)
(4.58137e-05 -6.64844e-05 -2.83293e-05)
(0.000111272 -6.53858e-05 -6.70208e-05)
(6.61327e-05 -0.000228439 -7.30161e-05)
(-0.000644599 -0.000384673 -0.000171661)
(-0.000903293 -0.000661631 -0.00024712)
(-0.000105992 -0.000104967 -0.000359799)
(-0.000508483 -9.72443e-06 -0.000292322)
(4.28115e-05 6.1197e-05 -0.000136322)
(1.20226e-05 -2.32218e-05 7.09212e-05)
(5.44647e-05 2.77289e-05 -3.45955e-05)
(7.80173e-05 4.03113e-05 -5.69082e-05)
(5.76748e-05 -5.57104e-05 -0.000254069)
(-0.000684509 -0.000596077 -0.000201722)
(-0.000774936 -0.000156071 -0.000551054)
(7.78223e-05 -9.76074e-05 -0.0001507)
(0.000232077 -0.000197694 -0.000259919)
(-0.000490467 -0.000145866 0.00919096)
(0.000967324 1.53948e-05 0.0136454)
(0.000526859 0.000392495 0.0134493)
(-4.33558e-05 0.00173972 0.0142069)
(-0.000579248 0.00021643 0.0117064)
(0.0019678 0.00074287 0.0134479)
(0.00223101 0.000954251 0.0140667)
(0.00201163 0.00176473 0.00926136)
(-0.000617306 0.000379489 0.00980795)
(0.00106484 -0.000133838 0.010169)
(0.000833446 4.0537e-06 0.0131278)
(0.000610293 -0.000409636 0.0114574)
(0.000467616 -0.000266664 0.0119573)
(0.000322064 0.000423928 0.0128747)
(0.000924931 -0.000383739 0.0128792)
(0.0012586 0.000448652 0.0113102)
(-0.000429571 0.000627664 0.00907077)
(0.00145676 -0.000115627 0.0118411)
(0.00119377 0.000114419 0.0136766)
(0.000765199 -0.00103298 0.0141094)
(0.000903495 -0.000584565 0.0133797)
(0.000641239 -0.00157869 0.0131885)
(0.00138501 -0.000830789 0.0126315)
(0.00163649 -0.000895773 0.0122714)
(-0.0021716 -0.000896361 0.0100269)
(0.00212937 0.000250785 0.0109137)
(0.00249811 0.000442342 0.0115463)
(0.000265434 -4.46237e-05 0.0125577)
(0.00161369 -0.000869663 0.0106418)
(0.00192032 -0.00157459 0.0117011)
(0.00116569 -0.000512686 0.0113816)
(0.00195741 -0.00149681 0.0133213)
(0.00134951 -0.00116203 0.0138873)
(0.000909464 -0.000292619 0.0150229)
(0.00102521 0.000638974 0.016296)
(0.000898364 0.000298912 0.017204)
(0.000520377 -0.000836175 0.0154779)
(0.00163818 0.000288869 0.016423)
(0.00155278 0.000137775 0.0165501)
(0.00114868 0.000636431 0.0156651)
(0.00363761 -0.00165943 0.0135376)
(0.00205228 -0.000710336 0.0144898)
(0.00171155 -0.000710532 0.0163554)
(0.000689901 -4.42097e-05 0.0167756)
(0.0010446 -0.000915527 0.0153903)
(0.00119276 6.11506e-05 0.0151981)
(0.00131013 -4.04263e-05 0.0164261)
(0.000472744 0.000218805 0.0165055)
(0.00325612 -0.000676525 0.0150798)
(0.00165541 -0.000965163 0.0135527)
(0.00273565 -0.000666042 0.0141694)
(0.00258848 -0.000707193 0.0148144)
(0.00156174 0.000480373 0.0157371)
(0.00226756 -0.00121049 0.0159188)
(0.00168385 -0.000390923 0.0156806)
(-0.000617595 -3.72572e-05 0.0151417)
(0.00297602 0.00126381 0.014975)
(0.000771397 0.000128347 0.0109271)
(0.00240893 -1.58935e-05 0.0148799)
(0.00337114 -3.82906e-05 0.013756)
(0.00143789 0.000883335 0.0145325)
(0.00216607 -0.00195093 0.0126372)
(0.000503606 -0.000188374 0.0131882)
(-0.000105235 0.000158552 0.0128156)