/*--------------------------------*- C++ -*----------------------------------*\
| =========                 |                                                 |
| \\      /  F ield         | OpenFOAM: The Open Source CFD Toolbox           |
|  \\    /   O peration     | Version:  2506                                  |
|   \\  /    A nd           | Website:  www.openfoam.com                      |
|    \\/     M anipulation  |                                                 |
\*---------------------------------------------------------------------------*/
FoamFile
{
    version     2.0;
    format      ascii;
    arch        "LSB;label=32;scalar=64";
    class       volScalarField;
    location    "0.05";
    object      Ksl;
}
// * * * * * * * * * * * * * * * * * * * * * * * * * * * * * * * * * * * * * //

dimensions      [1 -3 -1 0 0 0 0];

internalField   nonuniform List<scalar> 
4608
(
173744
210395
198735
139775
210803
124918
232164
190377
189561
136332
158730
199512
120976
234429
184777
223420
204617
261492
253284
201053
177391
171177
225332
135051
234690
86523.1
194317
104642
206929
242794
293988
509141
155586
261550
332999
168057
188953
154652
118382
152364
222801
189520
167364
293005
147097
241894
210842
185862
142845
185335
173750
315657
126416
221692
201888
185766
256563
253003
234783
181263
241765
228832
197851
111910
239946
151663
308003
202268
539859
180284
252939
253715
204658
270657
193175
261816
262542
209583
213575
276535
195383
196979
400434
304032
350737
312396
221875
241392
204126
237133
258501
208578
253120
394639
165215
190776
312592
318415
164289
174543
191435
184903
251024
321825
319790
278523
203964
228396
340614
231409
237185
206817
259038
208893
204396
215759
280489
279755
172954
265705
292853
242784
163470
433029
205393
117411
216145
407622
186686
210348
258278
249744
169668
206589
241404
234482
267046
298948
229807
296836
263797
249289
260314
247547
273995
140627
271952
139781
250595
181864
240608
231961
202265
347364
295814
145044
222836
301032
252718
246090
469054
145091
256813
281043
284616
305838
180318
145924
251177
274447
280826
477315
146361
241908
206359
251820
214491
217250
322249
262867
412933
224763
240333
235174
216367
189813
235391
237541
220573
187092
285473
194716
139039
190271
176964
178892
305637
219292
270008
227277
303211
230224
208595
234753
200516
187663
238059
184522
163292
291015
284357
244069
303572
243190
357360
246845
240574
247485
357168
489447
208755
187985
201577
313096
183330
239534
167975
174241
220433
340987
274062
181148
204927
256383
219607
339375
177243
232672
397691
279951
273399
277878
245217
179845
333016
215771
277317
295018
191959
205488
289696
556953
192780
215926
205305
236384
202347
306275
250889
174473
275144
280360
233802
238202
159155
249494
157842
122405
474116
309384
233411
219426
232744
223535
297877
273468
180488
212098
161336
187835
268298
292094
417905
217327
363870
154405
295845
138871
285072
206303
155102
311184
153231
519150
170444
277375
228561
337896
211355
240430
235119
421139
230031
235598
115893
337447
181520
250617
218523
220500
327612
249241
234463
428488
259278
239331
295383
221917
156952
269853
205348
247131
207088
290285
206447
224926
294674
256027
184446
258490
169261
291021
168821
287438
255489
229210
207097
279393
297531
172888
239792
164017
272824
374998
409166
176981
203129
143326
310028
230916
303838
198973
159658
368387
328104
227870
255933
118861
285771
376898
235032
250274
325982
355085
169155
225886
226762
171116
112534
248922
209573
223409
268340
252693
222898
191212
241794
191960
281508
579621
94949.7
230171
261381
306622
28057.9
35374.6
35708.5
42703.7
44043.3
53189
81457.5
37082.8
53396.8
29200.6
116421
62741.1
155999
127935
94015.5
57663.4
39287.2
60082
68094.8
82766.2
86848.9
68439.3
152992
78259
24770.8
18600.9
60221.3
75217.6
166533
92468.7
137795
30602.3
40209
65409.6
40038.4
75265.2
40258.6
86000.5
45220
20486.8
49211
44893.9
60559.2
66545.8
75581.7
85783.5
38938
15013.8
12239.5
25682.1
80522.2
44543.2
39198
39056.3
34376
26035.6
40075.9
38885.2
87800
22125.7
61549.5
30618.3
21859.4
37757.1
0
0
0
0
0
0
0
0
0
0
0
0
0
0
0
0
0
0
0
0
0
0
0
0
0
0
0
0
0
426.97
426.328
0
0
0
0
0
0
0
0
0
0
0
0
0
0
0
0
0
0
0
0
0
0
0
0
0
0
0
0
0
0
0
0
0
0
0
0
0
0
0
0
0
0
0
0
0
0
0
0
0
0
0
0
0
0
0
0
0
0
0
0
0
0
0
0
0
0
0
0
0
0
0
0
0
0
0
0
0
0
0
0
0
0
0
0
0
0
0
0
0
0
0
0
0
0
0
0
0
0
0
0
0
0
0
0
0
0
0
0
0
0
0
0
0
0
0
0
0
0
0
0
0
0
0
0
0
0
0
0
0
0
0
0
0
0
0
0
0
0
0
0
0
0
0
0
0
0
0
0
0
0
0
0
0
0
0
0
0
0
0
0
0
0
0
0
0
0
0
0
0
0
0
0
0
0
0
0
0
0
0
0
0
0
0
0
0
0
0
0
0
0
0
0
0
0
0
0
0
0
0
0
0
0
0
0
0
0
0
0
0
0
0
0
0
0
0
0
0
0
0
0
0
0
0
0
0
0
0
0
0
0
0
0
0
0
0
0
0
0
0
0
0
0
0
0
0
0
0
0
0
0
0
0
0
0
0
0
0
0
0
0
0
0
0
0
0
0
0
0
0
0
0
0
0
0
0
0
0
0
0
0
0
0
0
0
0
0
0
0
0
0
0
0
0
0
0
0
0
0
0
0
0
0
0
0
0
0
0
0
0
0
0
0
0
0
0
0
0
0
0
0
0
0
0
0
0
0
0
0
0
0
0
0
0
0
0
0
0
0
0
0
0
0
0
0
0
0
0
0
0
0
0
0
0
0
0
0
0
0
0
0
0
0
0
0
0
0
0
0
0
0
0
0
0
0
0
0
0
0
0
0
0
0
0
0
0
0
0
0
0
0
0
0
0
0
0
0
0
0
0
0
0
0
0
0
0
0
0
0
0
0
0
0
0
0
0
0
0
0
0
0
0
0
0
0
0
0
0
0
0
0
0
0
0
0
0
0
0
0
0
0
0
0
0
0
0
0
0
0
0
0
0
0
0
0
0
0
0
0
0
0
0
0
0
0
0
0
0
0
0
0
0
0
0
0
0
0
0
0
0
0
0
0
0
0
0
0
0
0
0
0
0
0
0
0
0
0
0
0
0
0
0
0
0
0
0
0
0
0
0
0
0
0
0
0
0
0
0
0
0
0
0
0
0
0
0
0
0
0
0
0
0
0
0
0
0
0
0
0
0
0
0
0
0
0
0
0
0
0
0
0
0
0
0
0
0
0
0
0
0
0
0
0
0
0
0
0
0
0
0
0
0
0
0
0
0
0
0
0
0
0
0
0
0
0
0
0
0
0
0
0
0
0
0
0
0
0
0
0
0
0
0
0
0
0
0
0
0
0
0
0
0
0
0
0
0
0
0
0
0
0
0
0
0
0
0
0
0
0
0
0
0
0
0
0
0
0
0
0
0
0
0
0
0
0
0
0
0
0
0
0
0
0
0
0
0
0
0
0
0
0
0
0
0
0
0
0
0
0
0
0
0
0
0
0
0
0
0
0
0
0
0
0
0
0
0
0
0
0
0
0
0
0
0
0
0
0
0
0
0
0
0
0
0
0
0
0
0
0
0
0
0
0
0
0
0
0
0
0
0
0
0
0
0
0
0
0
0
0
0
0
0
0
0
0
0
0
0
0
0
0
0
0
0
0
0
0
0
0
0
0
0
0
0
0
0
0
0
0
0
0
0
0
0
0
0
0
0
0
0
0
0
0
0
0
0
0
0
0
0
0
0
0
0
0
0
0
0
0
0
0
0
0
0
0
0
0
0
0
0
0
0
0
0
0
0
0
0
0
0
0
0
0
0
0
0
0
0
0
0
0
0
0
0
0
0
0
0
0
0
0
0
0
0
0
0
0
0
0
0
0
0
0
0
0
0
0
0
0
0
0
0
0
0
0
0
0
0
0
0
0
0
0
0
0
0
0
0
0
0
0
0
0
0
0
0
0
0
0
0
0
0
0
0
0
0
0
0
0
0
0
0
0
0
0
0
0
0
0
0
0
0
0
0
0
0
0
0
0
0
0
0
0
0
0
0
0
0
0
0
0
0
0
0
0
0
0
0
0
0
0
0
0
0
0
0
0
0
0
0
0
0
0
0
0
0
0
0
0
0
0
0
0
0
0
0
0
0
0
0
0
0
0
0
0
0
0
0
0
0
0
0
0
0
0
0
0
0
0
0
0
0
0
0
0
0
0
0
0
0
0
0
0
0
0
0
0
0
0
0
0
0
0
0
0
0
0
0
0
0
0
0
0
0
0
0
0
0
0
0
0
0
0
0
0
0
0
0
0
0
0
0
0
0
0
0
0
0
0
0
0
0
0
0
0
0
0
0
0
0
0
0
0
0
0
0
0
0
172671
349181
178701
118225
186663
171720
170256
184727
250414
157229
158495
217684
206177
258363
187764
190143
139483
173778
151918
168387
280421
230512
178787
210997
228757
168810
191422
138733
231961
181941
141516
200016
292957
92687.4
317389
348439
208033
244643
219545
265546
318596
314579
201078
333565
203274
177550
261700
330595
275325
188451
188568
202183
208982
243717
180955
295023
179883
300305
181985
208137
234907
252479
305854
146351
269684
319584
267270
127945
278176
245965
182511
96825.2
239694
265118
191283
237413
199157
257032
255027
261171
176940
177168
223812
278378
276574
151378
243983
298605
215663
252682
177275
334266
156216
232838
194366
178478
121177
256589
141332
295905
193955
256710
242889
294209
504043
205109
335716
296110
330617
148875
240962
296484
246582
326268
207721
96422.1
287130
240316
137813
193224
257632
208114
276824
155983
269757
213379
167473
211517
239718
179694
252986
339884
222777
328860
149709
358142
274888
173900
212401
307641
187969
348100
348750
175059
287084
242738
212625
287125
210398
169149
201422
419437
208044
315178
248361
210047
234433
225745
208740
91751.1
75224.2
311955
119195
319658
180823
237374
169091
254716
220291
288207
210874
200571
350610
193997
126110
135710
280322
172100
300146
295527
121128
297775
184515
280219
261000
248673
124154
156491
393483
232936
202116
168195
67840.7
27769
65287.9
59609.7
28206.9
35941.8
36752.7
41780.9
83274.6
57485.7
80249.9
60574.4
48154.2
23334
19222.4
29054.1
61991.9
24913.4
35883.4
53120.9
27906.5
63235.7
56803.6
57412.1
50396
50561.4
81645.6
125277
44220.2
42401.4
99555
49719.2
0
0
0
0
0
0
0
0
0
0
0
0
0
0
0
0
0
0
0
0
0
0
0
0
0
0
0
0
0
0
0
0
0
0
0
0
0
0
0
0
0
0
0
0
0
0
0
0
0
0
0
0
0
0
0
0
0
0
0
0
0
0
0
0
0
0
0
0
0
0
0
0
0
0
0
0
0
0
0
0
0
0
0
0
0
0
0
0
0
0
0
0
0
0
0
0
0
0
0
0
0
0
0
0
0
0
0
0
0
0
0
0
0
0
0
0
0
0
0
0
0
0
0
0
0
0
0
0
0
0
0
0
0
0
0
0
0
0
0
0
0
0
0
0
0
0
0
0
0
0
0
0
0
0
0
0
0
0
0
0
0
0
0
0
0
0
0
0
0
0
0
0
0
0
0
0
0
0
0
0
0
0
0
0
0
0
0
0
0
0
0
0
0
0
0
0
0
0
0
0
0
0
0
0
0
0
0
0
0
0
0
0
0
0
0
0
0
0
0
0
0
0
0
0
0
0
0
0
0
0
0
0
0
0
0
0
0
0
0
0
0
0
0
0
0
0
0
0
0
0
0
0
0
0
0
0
0
0
0
0
0
0
0
0
0
0
0
0
0
0
0
0
0
0
0
0
0
0
0
0
0
0
0
0
0
0
0
0
0
0
0
0
0
0
0
0
0
0
0
0
0
0
0
0
0
0
0
0
0
0
0
0
0
0
0
0
0
0
0
0
0
0
0
0
0
0
0
0
0
0
0
0
0
0
0
0
0
0
0
0
0
0
0
0
0
0
0
0
0
0
0
0
0
0
0
0
0
0
0
0
0
0
0
0
0
0
0
0
0
0
0
0
0
0
0
0
0
0
0
0
0
0
0
0
0
0
0
0
0
0
0
0
0
0
0
0
0
0
0
0
0
0
0
0
0
0
0
0
0
0
0
0
0
0
0
0
0
0
0
0
0
0
0
0
0
0
0
0
0
0
0
0
0
0
0
0
0
0
0
0
0
0
0
0
0
0
0
0
0
0
0
0
0
0
0
0
0
0
0
0
0
0
0
0
0
0
0
0
0
0
0
0
0
0
0
0
0
0
0
0
0
0
0
0
0
0
0
0
0
0
0
0
0
0
0
0
0
0
0
0
0
0
0
0
0
0
0
0
0
0
0
0
0
0
0
0
0
0
0
0
0
0
0
0
0
0
0
0
0
0
0
0
0
0
0
0
0
0
0
0
0
0
0
0
244451
148199
156350
219391
165031
238395
187297
289179
199335
189241
130429
220131
165097
220430
286619
162158
226556
137710
144366
224302
152492
202257
181207
250433
235617
134669
152007
167176
157578
205020
130162
236472
182837
211675
240776
109612
245362
119958
233458
359850
192531
294647
290049
349120
143215
240586
353292
218632
214920
205745
135550
361524
280072
229774
121159
251646
127476
141571
323078
218417
117503
286531
144226
233520
210264
221402
240449
207748
177315
349131
173187
175333
254052
143273
256392
204093
314976
169838
188144
181342
188379
220226
212904
239749
189237
174104
290180
277718
188262
197781
235534
222535
310294
269331
219047
148183
239273
252325
155945
267942
213938
174376
295718
200972
231627
208951
219070
330908
299807
427751
250705
214316
162534
103116
179214
285326
173725
291739
201115
331785
268051
227901
227099
196107
182156
220480
248048
364431
206087
151777
181242
265849
241015
161930
432920
189816
173569
291982
226805
410526
149260
252617
249212
344177
196534
220586
231718
259027
244415
200776
222344
273748
243574
206557
260716
248671
139962
467155
148493
388659
68626.1
244170
252557
161139
235701
269888
250051
289043
209111
175224
208674
209448
183969
191650
266111
125063
248964
199108
193867
241123
224045
300450
215354
248678
232620
195278
397519
349734
256078
195634
263646
380450
77929.6
40507.5
27575.5
25145.9
101704
69009.4
74232.9
47156.9
121798
62430.1
74870.5
61725.5
81449.5
83619
72575.7
74749.6
68289.5
72119.4
49659.5
75502.4
82459.1
47887
30961.8
44657.6
100016
28964.6
44992.7
39170.1
73752.1
109703
32788.2
50513.2
0
0
0
0
0
0
0
0
0
0
0
0
0
0
0
0
0
0
0
0
0
0
0
0
0
0
0
0
0
0
0
0
0
0
0
0
0
0
0
0
0
0
0
0
0
0
0
0
0
0
0
0
0
0
0
0
0
0
0
0
0
0
0
0
0
0
0
0
0
0
0
0
0
0
0
0
0
0
0
0
0
0
0
0
0
0
0
0
0
0
0
0
0
0
0
0
0
0
0
0
0
0
0
0
0
0
0
0
0
0
0
0
0
0
0
0
0
0
0
0
0
0
0
0
0
0
0
0
0
0
0
0
0
0
0
0
0
0
0
0
0
0
0
0
0
0
0
0
0
0
0
0
0
0
0
0
0
0
0
0
0
0
0
0
0
0
0
0
0
0
0
0
0
0
0
0
0
0
0
0
0
0
0
0
0
0
0
0
0
0
0
0
0
0
0
0
0
0
0
0
0
0
0
0
0
0
0
0
0
0
0
0
0
0
0
0
0
0
0
0
0
0
0
0
0
0
0
0
0
0
0
0
0
0
0
0
0
0
0
0
0
0
0
0
0
0
0
0
0
0
0
0
0
0
0
0
0
0
0
0
0
0
0
0
0
0
0
0
0
0
0
0
0
0
0
0
0
0
0
0
0
0
0
0
0
0
0
0
0
0
0
0
0
0
0
0
0
0
0
0
0
0
0
0
0
0
0
0
0
0
0
0
0
0
0
0
0
0
0
0
0
0
0
0
0
0
0
0
0
0
0
0
0
0
0
0
0
0
0
0
0
0
0
0
0
0
0
0
0
0
0
0
0
0
0
0
0
0
0
0
0
0
0
0
0
0
0
0
0
0
0
0
0
0
0
0
0
0
0
0
0
0
0
0
0
0
0
0
0
0
0
0
0
0
0
0
0
0
0
0
0
0
0
0
0
0
0
0
0
0
0
0
0
0
0
0
0
0
0
0
0
0
0
0
0
0
0
0
0
0
0
0
0
0
0
0
0
0
0
0
0
0
0
0
0
0
0
0
0
0
0
0
0
0
0
0
0
0
0
0
0
0
0
0
0
0
0
0
0
0
0
0
0
0
0
0
0
0
0
0
0
0
0
0
0
0
0
0
0
0
0
0
0
0
0
0
0
0
0
0
0
0
0
0
0
0
0
0
0
0
0
0
0
0
0
0
0
0
0
0
0
0
0
0
0
0
0
0
0
0
0
0
0
0
0
0
0
0
0
0
0
0
0
0
159748
174723
247240
222527
175834
229267
148224
202705
149521
162463
175430
192036
205305
238607
195168
205603
170857
272575
175625
226333
156446
182623
191149
187489
175976
243183
134269
301366
133002
204346
171320
236731
176740
236767
216886
223809
204512
202223
153427
216960
245936
202122
198265
252144
261883
171182
300566
250986
209304
268958
253608
227978
191767
220038
214488
101921
315167
347766
174556
228378
252027
253477
281360
243536
212252
143532
256668
188542
206589
212468
213357
160186
283176
198973
181246
243763
206942
210942
212579
234404
193625
168068
277781
187685
261029
238965
145762
340949
345625
249574
225691
233794
288474
278999
229639
227266
153327
264382
239783
253892
185331
199302
222840
143607
192321
145764
261476
144177
258695
274536
272629
265130
217108
322607
311594
259082
200549
157186
266256
177090
293698
205967
175041
196998
372658
282203
242858
312221
214162
199107
222343
210588
172449
256006
149370
201504
283624
262143
142360
287402
266970
322396
172400
334570
154905
185879
262378
401436
161054
200814
190600
385343
218773
273247
325332
264476
236790
152204
318034
198698
187493
239782
245833
199565
203061
164103
241468
193145
344575
244738
208425
221485
234650
291038
204540
178651
121165
350490
239037
260847
261099
262717
418268
230209
289695
163489
173939
287930
103553
219560
181536
241368
35094.9
40102.7
54455.6
49360
54100.1
51810.3
47078.8
137743
72729.7
33316.5
28730.7
27988.1
50665.3
46716.7
75961.2
82800.3
58684.3
24376.2
42410.9
36213.9
39587.6
20254.2
27674.4
71593.1
51116.3
15732.8
39044.8
38435
40846.4
79185.7
19312.3
35792.6
0
0
0
0
0
0
0
0
0
0
0
0
0
0
0
0
0
0
0
0
0
0
0
0
0
0
0
0
0
0
0
0
0
0
0
0
0
0
0
0
0
0
0
0
0
0
0
0
0
0
0
0
0
0
0
0
0
0
0
0
0
0
0
0
0
0
0
0
0
0
0
0
0
0
0
0
0
0
0
0
0
0
0
0
0
0
0
0
0
0
0
0
0
0
0
0
0
0
0
0
0
0
0
0
0
0
0
0
0
0
0
0
0
0
0
0
0
0
0
0
0
0
0
0
0
0
0
0
0
0
0
0
0
0
0
0
0
0
0
0
0
0
0
0
0
0
0
0
0
0
0
0
0
0
0
0
0
0
0
0
0
0
0
0
0
0
0
0
0
0
0
0
0
0
0
0
0
0
0
0
0
0
0
0
0
0
0
0
0
0
0
0
0
0
0
0
0
0
0
0
0
0
0
0
0
0
0
0
0
0
0
0
0
0
0
0
0
0
0
0
0
0
0
0
0
0
0
0
0
0
0
0
0
0
0
0
0
0
0
0
0
0
0
0
0
0
0
0
0
0
0
0
0
0
0
0
0
0
0
0
0
0
0
0
0
0
0
0
0
0
0
0
0
0
0
0
0
0
0
0
0
0
0
0
0
0
0
0
0
0
0
0
0
0
0
0
0
0
0
0
0
0
0
0
0
0
0
0
0
0
0
0
0
0
0
0
0
0
0
0
0
0
0
0
0
0
0
0
0
0
0
0
0
0
0
0
0
0
0
0
0
0
0
0
0
0
0
0
0
0
0
0
0
0
0
0
0
0
0
0
0
0
0
0
0
0
0
0
0
0
0
0
0
0
0
0
0
0
0
0
0
0
0
0
0
0
0
0
0
0
0
0
0
0
0
0
0
0
0
0
0
0
0
0
0
0
0
0
0
0
0
0
0
0
0
0
0
0
0
0
0
0
0
0
0
0
0
0
0
0
0
0
0
0
0
0
0
0
0
0
0
0
0
0
0
0
0
0
0
0
0
0
0
0
0
0
0
0
0
0
0
0
0
0
0
0
0
0
0
0
0
0
0
0
0
0
0
0
0
0
0
0
0
0
0
0
0
0
0
0
0
0
0
0
0
0
0
0
0
0
0
0
0
0
0
0
0
0
0
0
0
0
0
0
0
0
0
0
0
0
0
0
0
0
0
0
0
0
0
0
0
0
0
0
0
0
0
0
0
0
0
0
0
0
220121
198980
169990
211426
162256
191228
203636
146598
270380
195490
165062
180211
145469
311630
108984
140403
214744
153059
281389
243175
189203
232347
169119
151388
140378
211389
154336
269146
338277
143007
335783
176248
175800
165795
366774
122976
232301
327410
314441
188454
248132
219872
331736
250331
212753
243246
230172
176306
273072
185589
138347
265420
190067
240217
234310
172521
366503
205788
126059
275103
207247
263504
176559
194577
330377
214501
286444
264149
202752
241518
160797
220764
212784
183241
222320
198506
186235
197827
202830
314485
363416
306521
355402
167206
201276
252952
196040
274680
175417
303829
124375
205859
258210
164148
270587
161851
350139
266523
266273
152089
201296
247836
184952
264605
252094
212860
253122
160869
185379
317182
157902
226092
297706
269708
206714
312567
261749
207849
196389
233028
186946
229035
242243
150239
174960
240301
236335
158592
194654
414913
209407
135308
191505
346164
190433
208983
294775
209108
245149
262136
204580
210680
198870
190531
283410
227410
239033
191027
278845
296736
232500
229045
173274
359074
180657
192152
175298
197438
267965
191370
155698
300230
247667
196905
105328
200087
174481
213561
243038
229590
204724
166483
256278
273478
301632
320911
184163
203596
190632
188572
154203
253579
165922
175109
169152
358628
177576
308008
310500
243943
240186
200300
66713.1
100195
83294.5
46608.5
56354.2
43441.3
78571.5
111039
24277.7
29791.3
29620
163686
58797.2
23336.4
63644.5
45864.9
36233.2
30683
41106.8
41677
20321.7
52434.7
23946.6
27064.1
37519.1
23142.8
31026.3
34576.5
10869.9
84238.2
41977
41477.1
0
0
0
0
0
0
0
0
0
0
0
240.781
0
0
0
0
0
0
0
0
0
0
0
0
0
0
0
0
0
0
0
0
0
0
0
0
0
0
0
0
0
0
0
0
0
0
0
0
0
0
0
0
0
0
0
0
0
0
0
0
0
0
0
0
0
0
0
0
0
0
0
0
0
0
0
0
0
0
0
0
0
0
0
0
0
0
0
0
0
0
0
0
0
0
0
0
0
0
0
0
0
0
0
0
0
0
0
0
0
0
0
0
0
0
0
0
0
0
0
0
0
0
0
0
0
0
0
0
0
0
0
0
0
0
0
0
0
0
0
0
0
0
0
0
0
0
0
0
0
0
0
0
0
0
0
0
0
0
0
0
0
0
0
0
0
0
0
0
0
0
0
0
0
0
0
0
0
0
0
0
0
0
0
0
0
0
0
0
0
0
0
0
0
0
0
0
0
0
0
0
0
0
0
0
0
0
0
0
0
0
0
0
0
0
0
0
0
0
0
0
0
0
0
0
0
0
0
0
0
0
0
0
0
0
0
0
0
0
0
0
0
0
0
0
0
0
0
0
0
0
0
0
0
0
0
0
0
0
0
0
0
0
0
0
0
0
0
0
0
0
0
0
0
0
0
0
0
0
0
0
0
0
0
0
0
0
0
0
0
0
0
0
0
0
0
0
0
0
0
0
0
0
0
0
0
0
0
0
0
0
0
0
0
0
0
0
0
0
0
0
0
0
0
0
0
0
0
0
0
0
0
0
0
0
0
0
0
0
0
0
0
0
0
0
0
0
0
0
0
0
0
0
0
0
0
0
0
0
0
0
0
0
0
0
0
0
0
0
0
0
0
0
0
0
0
0
0
0
0
0
0
0
0
0
0
0
0
0
0
0
0
0
0
0
0
0
0
0
0
0
0
0
0
0
0
0
0
0
0
0
0
0
0
0
0
0
0
0
0
0
0
0
0
0
0
0
0
0
0
0
0
0
0
0
0
0
0
0
0
0
0
0
0
0
0
0
0
0
0
0
0
0
0
0
0
0
0
0
0
0
0
0
0
0
0
0
0
0
0
0
0
0
0
0
0
0
0
0
0
0
0
0
0
0
0
0
0
0
0
0
0
0
0
0
0
0
0
0
0
0
0
0
0
0
0
0
0
0
0
0
0
0
0
0
0
0
0
0
0
0
0
0
0
0
0
0
0
0
0
0
0
0
0
0
0
0
0
0
0
0
0
0
0
0
)
;

boundaryField
{
    inlet
    {
        type            zeroGradient;
    }
    outlet
    {
        type            zeroGradient;
    }
    wall
    {
        type            zeroGradient;
    }
}


// ************************************************************************* //
