/*--------------------------------*- C++ -*----------------------------------*\
| =========                 |                                                 |
| \\      /  F ield         | OpenFOAM: The Open Source CFD Toolbox           |
|  \\    /   O peration     | Version:  2506                                  |
|   \\  /    A nd           | Website:  www.openfoam.com                      |
|    \\/     M anipulation  |                                                 |
\*---------------------------------------------------------------------------*/
FoamFile
{
    version     2.0;
    format      ascii;
    arch        "LSB;label=32;scalar=64";
    class       volVectorField;
    location    "0.05";
    object      Us;
}
// * * * * * * * * * * * * * * * * * * * * * * * * * * * * * * * * * * * * * //

dimensions      [0 1 -1 0 0 0 0];

internalField   nonuniform List<vector> 
4608
(
(0.000160384 5.7615e-05 1.09685e-05)
(-0.00022066 -8.59891e-05 4.92286e-05)
(-3.90359e-05 2.3029e-05 -9.4027e-05)
(-0.000139704 -0.00024635 -0.000118942)
(0.000303986 -0.000254481 9.30201e-06)
(0.000185009 -5.21366e-05 0.000133683)
(6.61228e-05 -6.19751e-05 0.000145335)
(9.59422e-05 3.53531e-05 9.98965e-05)
(0.000181449 9.96289e-05 8.88041e-05)
(-0.000202109 -0.000141222 0.000147298)
(-0.000816519 -0.000614565 0.00011769)
(6.77446e-05 -0.000118273 5.16437e-05)
(2.99324e-05 -7.46701e-05 0.000219566)
(-9.17991e-05 8.36711e-05 0.000201647)
(-3.1205e-05 2.24435e-05 1.06267e-05)
(6.42737e-05 6.96689e-07 9.79667e-05)
(-9.41653e-05 0.000493441 -1.4e-05)
(-0.000196468 3.78682e-05 0.000106944)
(-8.63062e-05 0.000336929 -0.00011362)
(8.03141e-05 1.9288e-05 3.52485e-05)
(4.02732e-05 7.21659e-06 0.000171343)
(0.000111677 0.000106956 -4.89718e-05)
(0.000155536 0.00022151 7.75525e-05)
(-0.000105336 3.67022e-05 0.000177196)
(0.000266178 0.000326798 0.000254372)
(0.000158514 0.000410609 9.90739e-05)
(0.000168572 0.000183644 6.35735e-05)
(0.000257535 0.000130166 3.23692e-05)
(8.49919e-05 0.000131204 4.88496e-06)
(0.000188557 1.69699e-05 -0.000307258)
(0.00017206 0.000405857 -3.24588e-05)
(0.00048803 5.77114e-05 4.34498e-05)
(7.30552e-05 0.000174254 8.64644e-05)
(0.000123822 0.000182231 0.000184765)
(0.000195667 -7.63894e-05 0.000132495)
(3.97982e-05 0.000162597 9.88613e-06)
(0.000139953 0.000311878 0.000125474)
(0.000294034 0.000226254 0.000206214)
(0.000525668 0.000277609 8.22466e-05)
(0.000563461 0.00036063 6.8797e-05)
(4.4789e-05 0.000253986 2.8306e-05)
(0.000150893 0.000372168 -5.98053e-05)
(-5.66876e-05 0.000247407 -4.30427e-06)
(-5.46165e-05 -2.48305e-05 5.68601e-05)
(0.000358172 -0.000295359 0.000116382)
(0.000190852 5.94307e-05 0.000125793)
(-0.000148665 -0.000107943 -5.81857e-05)
(-0.000175118 0.000422215 0.000189709)
(-3.96704e-05 0.000472619 0.000125043)
(-0.00036667 0.00056313 0.000111839)
(4.19491e-05 0.000261313 0.000136014)
(0.000197943 0.000326762 -0.000358333)
(-1.59127e-05 -0.00016549 0.000125211)
(0.000220486 9.94533e-05 0.000165473)
(0.000102546 -0.000201009 -6.51905e-05)
(-0.000544866 0.000285273 0.000199899)
(-0.000267768 3.01135e-05 0.00023126)
(-0.000269756 0.000138685 0.000125727)
(4.63293e-05 0.000218213 0.000219002)
(0.000332899 0.000753735 6.92167e-05)
(0.000554409 0.000618599 -7.16353e-05)
(0.000724997 0.000290594 0.000203965)
(-0.000311416 -3.77277e-05 -0.000190459)
(2.02613e-05 0.000138566 -0.000186753)
(0.000213507 -0.000229663 0.000968141)
(0.000129256 -4.29321e-05 0.000814513)
(-0.000114718 0.000115628 0.000221074)
(-0.000154461 -0.000341355 0.000203056)
(2.34106e-05 -0.000377082 8.51979e-05)
(0.000360029 0.000130624 0.000330226)
(9.02186e-05 0.000475909 0.000771562)
(-0.000183595 -0.000182922 0.00106919)
(0.000423111 3.86649e-05 0.000607267)
(-6.56942e-05 0.000321369 0.00112793)
(-6.84733e-05 0.000191291 0.00072297)
(0.000249118 4.52185e-05 0.000581845)
(0.000476379 -0.000275962 0.0007896)
(0.000286968 0.00019463 0.000719566)
(-9.87989e-05 0.000327091 0.000382428)
(0.000147929 9.21708e-05 0.000418735)
(0.000206794 -0.000263972 0.00150899)
(4.52901e-05 0.000200971 0.00105684)
(0.000291276 0.000267921 0.000182574)
(0.00018385 3.19115e-05 0.000722632)
(-0.000160583 0.000128909 0.000267595)
(0.000423923 0.000428608 0.000624131)
(-0.000301612 5.28541e-05 0.000779705)
(-0.000552205 0.000219998 0.000768513)
(-0.000369829 4.66079e-05 0.00103209)
(1.26343e-05 0.000434262 0.000638762)
(0.000113783 0.000279201 0.000581691)
(0.000313779 4.4863e-05 0.000534735)
(0.000193941 0.0002987 0.000718003)
(-0.000163493 0.000256638 0.00027686)
(7.25308e-05 0.000706687 0.00103906)
(-0.000165195 0.000274702 0.000616409)
(1.43111e-05 7.7383e-05 0.000483512)
(-0.000120494 0.000311014 0.000350538)
(-0.000211806 0.000203036 0.00122595)
(0.000243163 -0.000142306 0.000293725)
(4.37632e-05 0.000130097 0.000648049)
(0.000295221 0.000451934 0.000920805)
(0.000238303 0.000432123 0.000701488)
(-4.3056e-05 0.00025497 0.000805988)
(-0.000100481 0.00021765 0.00076378)
(0.000146905 -9.7188e-05 0.000996197)
(0.000321512 -6.48397e-05 0.000848173)
(0.00044039 0.000403606 0.000606462)
(0.000705745 -0.000148409 0.000401011)
(0.000431154 2.20156e-05 0.000524312)
(0.000572377 0.000284951 0.000420527)
(0.000309026 0.00040032 0.00158007)
(-2.59708e-05 0.000214704 0.000653966)
(-8.06923e-05 0.000180478 0.000754431)
(0.000258094 -4.20156e-05 0.000186327)
(0.000401638 0.000133568 0.000164812)
(0.000165387 0.000392391 0.000639645)
(0.000747545 1.36655e-05 0.000701587)
(0.000733559 0.000422645 0.00124493)
(0.00079325 0.000528532 0.0012763)
(0.000213697 0.000335362 0.000687188)
(0.000328235 -0.00010143 0.000382567)
(0.000640824 0.000342175 0.000888681)
(0.000438288 5.97585e-05 0.000207635)
(0.000762842 0.000438734 0.000934926)
(-8.65847e-05 -0.000253092 0.00135334)
(-6.40925e-05 9.5002e-05 0.000716834)
(0.000250766 0.000126411 0.000608211)
(0.000199459 -0.000355269 0.00136546)
(0.000113991 -0.000525293 0.00141089)
(0.000417066 -0.000130265 0.000707917)
(8.31344e-05 0.000174765 0.000775914)
(-0.000684753 -0.000125638 0.00175651)
(3.34593e-06 4.17387e-05 0.000920435)
(-0.000251582 3.36511e-05 0.00187476)
(-0.000135226 3.92126e-05 0.00136854)
(0.000494966 0.000351555 0.000969256)
(0.000583697 -0.000767378 0.00163475)
(0.000471896 -0.000255128 0.000937987)
(0.000287742 -0.000273432 0.00130189)
(0.000399027 0.0003763 0.00100758)
(2.20503e-05 8.19015e-05 0.00106495)
(-5.26465e-06 4.09116e-05 0.00142898)
(-0.000133326 0.000353297 0.00138129)
(0.000224031 3.7124e-05 0.000910782)
(-8.61837e-05 -8.86893e-05 0.00112733)
(0.0002264 -9.28692e-05 0.000952537)
(0.000180802 -0.00115734 0.00246095)
(0.000256969 0.000104466 0.000759246)
(5.86244e-05 -5.79678e-05 0.00114305)
(-0.00023668 -0.000216875 0.00169047)
(9.17022e-05 0.00014074 0.00085011)
(-0.000258114 0.00015333 0.00157262)
(0.000624917 -0.000180171 0.000980458)
(0.000364327 -0.000124523 0.000636495)
(0.000240755 9.64999e-05 0.000867983)
(0.00028165 0.000235376 0.0013126)
(0.000303793 0.000102456 0.00126064)
(-2.56948e-05 -0.000141448 0.00117191)
(-0.000165042 -6.13799e-07 0.00140787)
(0.000141609 -0.000109123 0.000676909)
(0.000133549 -0.000361139 0.000659254)
(-6.82694e-05 5.8253e-05 0.0013285)
(3.93277e-05 0.000455274 0.000901068)
(-0.00020756 -0.000409291 0.0015644)
(0.000338614 -0.000350134 0.00129057)
(0.000209694 0.000213712 0.00089014)
(-0.000580704 0.000466264 0.000862374)
(0.000335797 6.01583e-05 0.000976928)
(0.000268404 0.000177346 0.000779117)
(0.000395065 0.000136786 0.000697472)
(0.000383769 0.00024035 0.000844619)
(0.000286403 -9.4423e-05 0.00100678)
(8.10063e-05 -0.000285833 0.0012852)
(-0.000295624 0.00028554 0.00171608)
(-0.00018741 0.000562186 0.00127821)
(3.26241e-05 0.0002166 0.000648908)
(0.000328739 0.000272819 0.000683869)
(0.000574398 0.000177593 0.000670247)
(0.000400742 7.14257e-05 0.000655983)
(0.000675159 -2.71453e-05 0.000795749)
(0.000520547 -0.000183734 0.00091972)
(0.000379008 -0.000126768 0.00123292)
(0.000196802 0.000320499 0.000963635)
(0.000112072 0.000285907 0.000759544)
(0.000143175 8.84948e-05 0.000662731)
(0.000390089 -9.3356e-05 0.000859954)
(0.000497452 0.000133803 0.000571472)
(0.000371839 0.000235179 0.000869359)
(0.00064357 -0.000175633 0.000737961)
(0.000496542 -6.3934e-05 0.0013881)
(0.00102069 4.90951e-05 0.00115168)
(-0.000121718 0.000517408 0.00287315)
(0.000370279 -0.000241592 0.00121598)
(0.000162723 -0.000239753 0.00146243)
(-7.01364e-05 -8.09189e-05 0.00173952)
(-1.18712e-05 1.90379e-05 0.0012341)
(-6.89864e-05 -6.59534e-05 0.00168769)
(0.000334151 3.31511e-06 0.00104525)
(0.000186916 8.81418e-05 0.00115847)
(0.000822088 -5.18995e-06 0.00146023)
(0.000364283 -0.00035468 0.00114782)
(0.000599639 -0.000342003 0.00121594)
(0.00061015 -0.000694191 0.00082724)
(0.000295814 0.000271198 0.00084647)
(0.000208339 0.000150474 0.00081426)
(0.000232961 2.89656e-05 0.000924385)
(1.33209e-05 0.000403405 0.00104484)
(8.30802e-05 -0.00042967 0.00220689)
(0.000348058 -0.00012719 0.000928044)
(0.000399523 -0.000258644 0.00137293)
(0.000320099 -0.000200174 0.00137013)
(0.000283957 0.000143341 0.000942487)
(0.00010307 0.000216312 0.00100306)
(0.000213338 5.49445e-05 0.000939636)
(0.00027988 6.78671e-05 0.00106052)
(0.000375368 -0.00044161 0.000962221)
(0.000318842 -0.000135488 0.000888809)
(0.000257123 -8.77971e-05 0.000978008)
(7.02237e-05 0.000234704 0.0011699)
(0.00020236 0.00012998 0.001137)
(0.000150205 0.000261852 0.00133914)
(8.46333e-05 -0.000320282 0.00100598)
(-0.00025153 -0.000128795 0.00145256)
(0.000275975 1.20373e-05 0.000992151)
(0.000268829 -1.83064e-05 0.000843214)
(0.000152898 0.000186231 0.000885766)
(-0.000211304 0.000838061 0.00164354)
(-4.49462e-05 2.53483e-05 0.00138609)
(2.03945e-05 -0.000114956 0.00124485)
(-0.000218499 -0.000282735 0.00168493)
(-0.000358697 4.05887e-05 0.00190193)
(0.000181368 0.000109296 0.000943007)
(-3.10136e-05 4.60166e-05 0.00112801)
(2.09369e-05 0.000119311 0.00101026)
(0.000210405 9.22306e-05 0.00127182)
(0.000538153 1.36664e-05 0.00158127)
(0.000434347 0.000331202 0.00151076)
(0.000162273 0.0002331 0.00143677)
(-1.34849e-05 0.000416523 0.00129086)
(0.000258369 -0.000215748 0.00104526)
(9.98027e-05 -0.000414407 0.00182713)
(0.000381214 -0.000295463 0.000891146)
(0.000362176 -0.000172215 0.000984712)
(0.000451507 -4.60809e-06 0.000905776)
(0.000276797 0.000179862 0.0012122)
(0.000138784 -5.55164e-05 0.00172934)
(0.000172796 0.000311981 0.00190649)
(0.000334002 -0.000343039 0.00171726)
(-0.000230879 -0.000141832 0.00116494)
(0.0001336 -0.000208508 0.00119918)
(0.000533454 -0.00022404 0.000679759)
(0.000349029 -6.85962e-05 0.000789649)
(0.00028942 -0.000149607 0.000952077)
(0.000190352 -5.70237e-05 0.00180132)
(0.00017629 -0.000381038 0.00146732)
(0.00012781 0.000248581 0.00141411)
(0.00029614 -0.000321236 0.00117792)
(0.000336783 -0.000196354 0.00145659)
(0.000659227 -0.000216075 0.00137281)
(2.5459e-05 -1.11856e-05 0.00171096)
(0.000160343 6.88496e-05 0.000990541)
(9.95031e-05 0.000169889 0.00102879)
(0.000142006 0.000303845 0.00152399)
(0.000135693 -0.00025836 0.00129064)
(0.00032313 3.89069e-05 0.000998293)
(0.000328622 -4.69346e-05 0.00109468)
(0.000448617 -0.000309777 0.0010737)
(0.000377178 -0.000234919 0.000988032)
(-0.000136384 -9.44884e-05 0.00108998)
(0.000209319 9.37022e-05 0.00102906)
(-6.76737e-05 -2.61349e-05 0.000965877)
(0.000185617 -0.000308727 0.000930461)
(0.000248745 -0.000106889 0.000972791)
(0.000361131 4.85151e-05 0.00105379)
(0.000401 -0.000162896 0.00108074)
(0.000367595 -0.000208222 0.00117127)
(-1.17706e-05 -6.25581e-05 0.00116816)
(-4.3192e-05 2.70711e-05 0.000881297)
(0.000223527 6.48285e-06 0.00152078)
(0.000190629 -0.000258723 0.000933019)
(0.000204938 -0.000187643 0.000964185)
(0.00026079 9.37198e-05 0.0011384)
(0.000273254 0.000120624 0.00113118)
(5.14092e-05 0.000102456 0.00132292)
(0.000130804 0.000193291 0.00146799)
(8.18194e-05 -4.23864e-05 0.00106815)
(0.000185504 0.000314086 0.00136148)
(-1.98589e-05 3.74792e-05 0.0009885)
(-1.2366e-05 -7.93052e-05 0.000902103)
(7.78217e-05 -3.60425e-05 0.00108245)
(3.50533e-05 0.00018426 0.0012289)
(0.000139207 0.000141954 0.00123168)
(0.000267344 -9.74877e-07 0.00127281)
(0.000149041 3.37707e-06 0.00134272)
(-2.34478e-05 -0.000122493 0.00163098)
(1.6091e-05 0.000170177 0.00111181)
(0.000115508 3.70511e-05 0.00111541)
(6.81228e-05 -3.86048e-05 0.00112899)
(0.000238838 0.000216948 0.00160736)
(0.000107901 -3.83114e-05 0.00132895)
(0.000172043 -4.65572e-06 0.001341)
(0.000199124 7.82196e-05 0.00138617)
(0.000139563 0.000182471 0.00139261)
(-7.45973e-05 0.000121525 0.00160071)
(7.37555e-05 6.68431e-06 0.00111998)
(3.26498e-05 -0.000210256 0.000963535)
(0.000203407 -3.9162e-05 0.00104531)
(0.000192506 -9.59118e-05 0.00114112)
(0.00033799 -8.53224e-05 0.00143668)
(0.00031437 -0.000136122 0.001665)
(0.000331935 0.000111552 0.00152047)
(0.000283856 5.65181e-06 0.00154546)
(0.00034014 -0.00010126 0.000972446)
(0.000340661 -0.000307649 0.000925042)
(0.000876038 -0.000385864 0.0021585)
(0.000364346 -0.000101948 0.00125241)
(0.000153402 -0.000140964 0.00100738)
(0.000282999 -0.000112746 0.0016436)
(0.00026564 -0.000113387 0.00147958)
(0.000171124 -0.000177297 0.00101134)
(9.24068e-05 -4.16079e-05 0.000962636)
(4.72593e-05 9.54134e-06 0.00117622)
(0.000269898 -4.05768e-05 0.00110833)
(4.05022e-07 -0.000202606 0.00110693)
(0.000163309 8.17637e-06 0.00121296)
(1.0227e-05 -8.63522e-05 0.00104619)
(0.000149487 8.67564e-05 0.00102534)
(0.000100572 -0.000187943 0.000992514)
(0.000138942 -3.40055e-05 0.00089797)
(0.000141899 -4.68942e-05 0.00102224)
(0.000228593 -8.32322e-06 0.00103781)
(0.00022935 1.897e-05 0.00104801)
(5.74783e-05 -0.000121237 0.00120842)
(0.000266036 -7.29669e-05 0.00103801)
(9.05699e-05 -3.78274e-05 0.000971629)
(9.34182e-05 -0.000123615 0.000932009)
(0.000106097 -7.40302e-05 0.000968969)
(0.000133784 -0.000118513 0.00102648)
(0.000147225 -6.2715e-05 0.00103785)
(0.000188126 -0.000119253 0.00112919)
(6.60232e-05 -3.54844e-05 0.00111571)
(3.35802e-05 -3.36466e-05 0.00110522)
(6.54551e-05 2.20683e-05 0.000979237)
(8.56927e-05 -0.000120278 0.00085578)
(5.74719e-05 -3.78326e-05 0.000931314)
(-4.09606e-05 -3.74857e-05 0.0010502)
(-0.00037417 0.000314479 0.0010729)
(5.77474e-05 -2.26959e-05 0.00115404)
(6.06121e-05 -1.70702e-05 0.00113372)
(-1.36354e-05 1.44393e-05 0.00103163)
(9.22077e-05 -1.25286e-05 0.00112588)
(0.000152101 -0.000217057 0.000688979)
(-5.89841e-06 -0.000187974 0.000819606)
(2.4441e-05 -0.000114102 0.000996547)
(2.82101e-05 -4.41906e-05 0.00112997)
(7.5196e-05 -1.26815e-05 0.00126059)
(0.000379476 0.000119336 0.00126164)
(4.31908e-06 -5.16564e-05 0.00123632)
(7.53347e-05 -0.000126884 0.00129849)
(0.000176914 -0.000244056 0.000955668)
(0.000199271 -0.000185854 0.000857552)
(7.30984e-05 -0.000152608 0.00096351)
(7.12564e-05 2.8921e-05 0.00123295)
(2.21019e-05 -2.85187e-05 0.00138822)
(8.73203e-05 -0.000121433 0.00134812)
(0.000146103 7.35095e-06 0.00134968)
(0.000149093 -8.54172e-05 0.00139234)
(0.000172707 -0.00029689 0.0010582)
(0.000177925 -9.12416e-05 0.00107085)
(0.000203286 -0.000238095 0.00103415)
(0.000192788 -0.000147898 0.00125693)
(0.000164532 -0.000112829 0.00134268)
(0.000114414 -0.000131033 0.00135971)
(0.000244489 -0.000131025 0.00137322)
(0.000116185 -5.92848e-05 0.00141787)
(0.000231629 -0.000239913 0.000902538)
(0.000230576 -0.00030837 0.000857797)
(0.000155263 -0.000275849 0.00089339)
(3.7995e-05 -0.000179546 0.00109658)
(0.000132749 -9.3906e-05 0.00108533)
(3.56228e-06 -0.000128196 0.000957756)
(-0.000183776 -0.00027202 0.0014015)
(-2.74583e-05 -0.000186339 0.00141585)
(0.000274084 -0.000355389 0.000772608)
(0.000414911 -0.00110901 0.000799151)
(2.33263e-05 -1.32382e-05 0.00117251)
(0.000453328 -8.64405e-05 0.000856561)
(7.40804e-06 0.000170306 0.000715396)
(0.000113441 -5.2273e-05 0.00106269)
(0.000148748 -0.000304307 0.00108699)
(-0.00019201 0.000162783 0.000682988)
(0.000658683 0.000465151 0.000980361)
(0.000106636 -2.44432e-05 0.000994077)
(0.000131711 -3.34885e-05 0.00108201)
(0.00398568 -0.00200415 -0.00127489)
(6.91248e-05 5.15842e-05 0.000958583)
(6.54489e-05 -8.95215e-05 0.00110772)
(0.000203173 -0.000147907 0.000954002)
(0.000259834 3.84962e-05 0.000799873)
(0.000153709 2.0439e-05 0.000988872)
(0.000113809 -9.22421e-05 0.000961898)
(4.51246e-05 -0.000167199 0.00102601)
(-3.72346e-06 -7.92637e-05 0.00105038)
(0.000150057 -9.95305e-05 0.00113404)
(7.96488e-05 -0.000133484 0.00119121)
(6.00053e-05 -0.000213632 0.000962735)
(-0.00026053 0.000717058 0.000793936)
(-1.30396e-05 2.20215e-05 0.000799378)
(3.50278e-05 -0.00018179 0.00106586)
(-0.000224235 -0.000291314 0.000967843)
(-0.00047214 -0.000192499 0.000974749)
(-3.43498e-05 -0.000106457 0.00115804)
(-6.26592e-05 -0.000129875 0.00112101)
(5.94088e-05 -0.00020531 0.00107035)
(0.000206267 -0.000215139 0.0010764)
(-6.08896e-05 -9.73179e-05 0.00066169)
(-0.000111261 -0.00032865 0.00103558)
(-8.81146e-05 -0.000257092 0.000985058)
(-8.45485e-05 -9.20537e-05 0.00116336)
(2.59087e-05 -0.000126227 0.00125799)
(6.30326e-05 -0.000259357 0.00115999)
(1.04582e-05 -0.00023664 0.00125324)
(1.5754e-05 -0.000178967 0.00131229)
(-7.86362e-05 -0.00120524 0.00141095)
(0.000244774 -0.000110305 0.000889079)
(-3.52623e-05 -0.000207948 0.000995841)
(-5.07797e-05 -0.000127325 0.00113558)
(1.83489e-05 -7.67749e-05 0.00130266)
(0.000116548 -7.38488e-05 0.00130094)
(2.75594e-05 -9.21916e-05 0.00138401)
(-0.000117825 -0.000410853 0.00122283)
(0.000328277 -0.000424643 0.000914742)
(7.87772e-05 -0.000255969 0.0010145)
(-8.38027e-05 -0.00019701 0.000999854)
(-6.45739e-05 -0.000144113 0.00114907)
(-2.85917e-05 -9.83353e-06 0.00129055)
(0.000280092 4.78774e-05 0.00114802)
(8.96063e-05 0.0001794 0.00135509)
(0.0001344 -0.00030893 0.00129568)
(0.000115675 -0.000215657 0.000819383)
(0.000515538 -0.000269697 0.00074571)
(4.71795e-05 -0.000197356 0.00091654)
(-4.85441e-05 -0.000122133 0.00104129)
(0.000162649 6.37727e-05 0.000792253)
(-3.01148e-05 -0.000203282 0.00102029)
(-0.000247032 -0.000179588 0.00118346)
(-0.000842447 -0.000780529 0.00111506)
(0 0 0)
(0 0 0)
(0 0 0)
(0 0 0)
(0 0 0)
(0 0 0)
(0 0 0)
(0 0 0)
(0 0 0)
(0 0 0)
(0 0 0)
(0 0 0)
(0 0 0)
(0 0 0)
(0 0 0)
(0 0 0)
(0 0 0)
(0 0 0)
(0 0 0)
(0 0 0)
(0 0 0)
(0 0 0)
(0 0 0)
(0 0 0)
(0 0 0)
(0 0 0)
(0 0 0)
(0 0 0)
(0 0 0)
(4.70134e-05 -2.59464e-05 0.00113864)
(-1.75894e-05 -0.000168223 0.00114985)
(0 0 0)
(0 0 0)
(0 0 0)
(0 0 0)
(0 0 0)
(0 0 0)
(0 0 0)
(0 0 0)
(0 0 0)
(0 0 0)
(0 0 0)
(0 0 0)
(0 0 0)
(0 0 0)
(0 0 0)
(0 0 0)
(0 0 0)
(0 0 0)
(0 0 0)
(0 0 0)
(0 0 0)
(0 0 0)
(0 0 0)
(0 0 0)
(0 0 0)
(0 0 0)
(0 0 0)
(0 0 0)
(0 0 0)
(0 0 0)
(0 0 0)
(0 0 0)
(0 0 0)
(0 0 0)
(0 0 0)
(0 0 0)
(0 0 0)
(0 0 0)
(0 0 0)
(0 0 0)
(0 0 0)
(0 0 0)
(0 0 0)
(0 0 0)
(0 0 0)
(0 0 0)
(0 0 0)
(0 0 0)
(0 0 0)
(0 0 0)
(0 0 0)
(0 0 0)
(0 0 0)
(0 0 0)
(0 0 0)
(0 0 0)
(0 0 0)
(0 0 0)
(0 0 0)
(0 0 0)
(0 0 0)
(0 0 0)
(0 0 0)
(0 0 0)
(0 0 0)
(0 0 0)
(0 0 0)
(0 0 0)
(0 0 0)
(0 0 0)
(0 0 0)
(0 0 0)
(0 0 0)
(0 0 0)
(0 0 0)
(0 0 0)
(0 0 0)
(0 0 0)
(0 0 0)
(0 0 0)
(0 0 0)
(0 0 0)
(0 0 0)
(0 0 0)
(0 0 0)
(0 0 0)
(0 0 0)
(0 0 0)
(0 0 0)
(0 0 0)
(0 0 0)
(0 0 0)
(0 0 0)
(0 0 0)
(0 0 0)
(0 0 0)
(0 0 0)
(0 0 0)
(0 0 0)
(0 0 0)
(0 0 0)
(0 0 0)
(0 0 0)
(0 0 0)
(0 0 0)
(0 0 0)
(0 0 0)
(0 0 0)
(0 0 0)
(0 0 0)
(0 0 0)
(0 0 0)
(0 0 0)
(0 0 0)
(0 0 0)
(0 0 0)
(0 0 0)
(0 0 0)
(0 0 0)
(0 0 0)
(0 0 0)
(0 0 0)
(0 0 0)
(0 0 0)
(0 0 0)
(0 0 0)
(0 0 0)
(0 0 0)
(0 0 0)
(0 0 0)
(0 0 0)
(0 0 0)
(0 0 0)
(0 0 0)
(0 0 0)
(0 0 0)
(0 0 0)
(0 0 0)
(0 0 0)
(0 0 0)
(0 0 0)
(0 0 0)
(0 0 0)
(0 0 0)
(0 0 0)
(0 0 0)
(0 0 0)
(0 0 0)
(0 0 0)
(0 0 0)
(0 0 0)
(0 0 0)
(0 0 0)
(0 0 0)
(0 0 0)
(0 0 0)
(0 0 0)
(0 0 0)
(0 0 0)
(0 0 0)
(0 0 0)
(0 0 0)
(0 0 0)
(0 0 0)
(0 0 0)
(0 0 0)
(0 0 0)
(0 0 0)
(0 0 0)
(0 0 0)
(0 0 0)
(0 0 0)
(0 0 0)
(0 0 0)
(0 0 0)
(0 0 0)
(0 0 0)
(0 0 0)
(0 0 0)
(0 0 0)
(0 0 0)
(0 0 0)
(0 0 0)
(0 0 0)
(0 0 0)
(0 0 0)
(0 0 0)
(0 0 0)
(0 0 0)
(0 0 0)
(0 0 0)
(0 0 0)
(0 0 0)
(0 0 0)
(0 0 0)
(0 0 0)
(0 0 0)
(0 0 0)
(0 0 0)
(0 0 0)
(0 0 0)
(0 0 0)
(0 0 0)
(0 0 0)
(0 0 0)
(0 0 0)
(0 0 0)
(0 0 0)
(0 0 0)
(0 0 0)
(0 0 0)
(0 0 0)
(0 0 0)
(0 0 0)
(0 0 0)
(0 0 0)
(0 0 0)
(0 0 0)
(0 0 0)
(0 0 0)
(0 0 0)
(0 0 0)
(0 0 0)
(0 0 0)
(0 0 0)
(0 0 0)
(0 0 0)
(0 0 0)
(0 0 0)
(0 0 0)
(0 0 0)
(0 0 0)
(0 0 0)
(0 0 0)
(0 0 0)
(0 0 0)
(0 0 0)
(0 0 0)
(0 0 0)
(0 0 0)
(0 0 0)
(0 0 0)
(0 0 0)
(0 0 0)
(0 0 0)
(0 0 0)
(0 0 0)
(0 0 0)
(0 0 0)
(0 0 0)
(0 0 0)
(0 0 0)
(0 0 0)
(0 0 0)
(0 0 0)
(0 0 0)
(0 0 0)
(0 0 0)
(0 0 0)
(0 0 0)
(0 0 0)
(0 0 0)
(0 0 0)
(0 0 0)
(0 0 0)
(0 0 0)
(0 0 0)
(0 0 0)
(0 0 0)
(0 0 0)
(0 0 0)
(0 0 0)
(0 0 0)
(0 0 0)
(0 0 0)
(0 0 0)
(0 0 0)
(0 0 0)
(0 0 0)
(0 0 0)
(0 0 0)
(0 0 0)
(0 0 0)
(0 0 0)
(0 0 0)
(0 0 0)
(0 0 0)
(0 0 0)
(0 0 0)
(0 0 0)
(0 0 0)
(0 0 0)
(0 0 0)
(0 0 0)
(0 0 0)
(0 0 0)
(0 0 0)
(0 0 0)
(0 0 0)
(0 0 0)
(0 0 0)
(0 0 0)
(0 0 0)
(0 0 0)
(0 0 0)
(0 0 0)
(0 0 0)
(0 0 0)
(0 0 0)
(0 0 0)
(0 0 0)
(0 0 0)
(0 0 0)
(0 0 0)
(0 0 0)
(0 0 0)
(0 0 0)
(0 0 0)
(0 0 0)
(0 0 0)
(0 0 0)
(0 0 0)
(0 0 0)
(0 0 0)
(0 0 0)
(0 0 0)
(0 0 0)
(0 0 0)
(0 0 0)
(0 0 0)
(0 0 0)
(0 0 0)
(0 0 0)
(0 0 0)
(0 0 0)
(0 0 0)
(0 0 0)
(0 0 0)
(0 0 0)
(0 0 0)
(0 0 0)
(0 0 0)
(0 0 0)
(0 0 0)
(0 0 0)
(0 0 0)
(0 0 0)
(0 0 0)
(0 0 0)
(0 0 0)
(0 0 0)
(0 0 0)
(0 0 0)
(0 0 0)
(0 0 0)
(0 0 0)
(0 0 0)
(0 0 0)
(0 0 0)
(0 0 0)
(0 0 0)
(0 0 0)
(0 0 0)
(0 0 0)
(0 0 0)
(0 0 0)
(0 0 0)
(0 0 0)
(0 0 0)
(0 0 0)
(0 0 0)
(0 0 0)
(0 0 0)
(0 0 0)
(0 0 0)
(0 0 0)
(0 0 0)
(0 0 0)
(0 0 0)
(0 0 0)
(0 0 0)
(0 0 0)
(0 0 0)
(0 0 0)
(0 0 0)
(0 0 0)
(0 0 0)
(0 0 0)
(0 0 0)
(0 0 0)
(0 0 0)
(0 0 0)
(0 0 0)
(0 0 0)
(0 0 0)
(0 0 0)
(0 0 0)
(0 0 0)
(0 0 0)
(0 0 0)
(0 0 0)
(0 0 0)
(0 0 0)
(0 0 0)
(0 0 0)
(0 0 0)
(0 0 0)
(0 0 0)
(0 0 0)
(0 0 0)
(0 0 0)
(0 0 0)
(0 0 0)
(0 0 0)
(0 0 0)
(0 0 0)
(0 0 0)
(0 0 0)
(0 0 0)
(0 0 0)
(0 0 0)
(0 0 0)
(0 0 0)
(0 0 0)
(0 0 0)
(0 0 0)
(0 0 0)
(0 0 0)
(0 0 0)
(0 0 0)
(0 0 0)
(0 0 0)
(0 0 0)
(0 0 0)
(0 0 0)
(0 0 0)
(0 0 0)
(0 0 0)
(0 0 0)
(0 0 0)
(0 0 0)
(0 0 0)
(0 0 0)
(0 0 0)
(0 0 0)
(0 0 0)
(0 0 0)
(0 0 0)
(0 0 0)
(0 0 0)
(0 0 0)
(0 0 0)
(0 0 0)
(0 0 0)
(0 0 0)
(0 0 0)
(0 0 0)
(0 0 0)
(0 0 0)
(0 0 0)
(0 0 0)
(0 0 0)
(0 0 0)
(0 0 0)
(0 0 0)
(0 0 0)
(0 0 0)
(0 0 0)
(0 0 0)
(0 0 0)
(0 0 0)
(0 0 0)
(0 0 0)
(0 0 0)
(0 0 0)
(0 0 0)
(0 0 0)
(0 0 0)
(0 0 0)
(0 0 0)
(0 0 0)
(0 0 0)
(0 0 0)
(0 0 0)
(0 0 0)
(0 0 0)
(0 0 0)
(0 0 0)
(0 0 0)
(0 0 0)
(0 0 0)
(0 0 0)
(0 0 0)
(0 0 0)
(0 0 0)
(0 0 0)
(0 0 0)
(0 0 0)
(0 0 0)
(0 0 0)
(0 0 0)
(0 0 0)
(0 0 0)
(0 0 0)
(0 0 0)
(0 0 0)
(0 0 0)
(0 0 0)
(0 0 0)
(0 0 0)
(0 0 0)
(0 0 0)
(0 0 0)
(0 0 0)
(0 0 0)
(0 0 0)
(0 0 0)
(0 0 0)
(0 0 0)
(0 0 0)
(0 0 0)
(0 0 0)
(0 0 0)
(0 0 0)
(0 0 0)
(0 0 0)
(0 0 0)
(0 0 0)
(0 0 0)
(0 0 0)
(0 0 0)
(0 0 0)
(0 0 0)
(0 0 0)
(0 0 0)
(0 0 0)
(0 0 0)
(0 0 0)
(0 0 0)
(0 0 0)
(0 0 0)
(0 0 0)
(0 0 0)
(0 0 0)
(0 0 0)
(0 0 0)
(0 0 0)
(0 0 0)
(0 0 0)
(0 0 0)
(0 0 0)
(0 0 0)
(0 0 0)
(0 0 0)
(0 0 0)
(0 0 0)
(0 0 0)
(0 0 0)
(0 0 0)
(0 0 0)
(0 0 0)
(0 0 0)
(0 0 0)
(0 0 0)
(0 0 0)
(0 0 0)
(0 0 0)
(0 0 0)
(0 0 0)
(0 0 0)
(0 0 0)
(0 0 0)
(0 0 0)
(0 0 0)
(0 0 0)
(0 0 0)
(0 0 0)
(0 0 0)
(0 0 0)
(0 0 0)
(0 0 0)
(0 0 0)
(0 0 0)
(0 0 0)
(0 0 0)
(0 0 0)
(0 0 0)
(0 0 0)
(0 0 0)
(0 0 0)
(0 0 0)
(0 0 0)
(0 0 0)
(0 0 0)
(0 0 0)
(0 0 0)
(0 0 0)
(0 0 0)
(0 0 0)
(0 0 0)
(0 0 0)
(0 0 0)
(0 0 0)
(0 0 0)
(0 0 0)
(0 0 0)
(0 0 0)
(0 0 0)
(0 0 0)
(0 0 0)
(0 0 0)
(0 0 0)
(0 0 0)
(0 0 0)
(0 0 0)
(0 0 0)
(0 0 0)
(0 0 0)
(0 0 0)
(0 0 0)
(0 0 0)
(0 0 0)
(0 0 0)
(0 0 0)
(0 0 0)
(0 0 0)
(0 0 0)
(0 0 0)
(0 0 0)
(0 0 0)
(0 0 0)
(0 0 0)
(0 0 0)
(0 0 0)
(0 0 0)
(0 0 0)
(0 0 0)
(0 0 0)
(0 0 0)
(0 0 0)
(0 0 0)
(0 0 0)
(0 0 0)
(0 0 0)
(0 0 0)
(0 0 0)
(0 0 0)
(0 0 0)
(0 0 0)
(0 0 0)
(0 0 0)
(0 0 0)
(0 0 0)
(0 0 0)
(0 0 0)
(0 0 0)
(0 0 0)
(0 0 0)
(0 0 0)
(0 0 0)
(0 0 0)
(0 0 0)
(0 0 0)
(0 0 0)
(0 0 0)
(0 0 0)
(0 0 0)
(0 0 0)
(0 0 0)
(0 0 0)
(0 0 0)
(0 0 0)
(0 0 0)
(0 0 0)
(0 0 0)
(0 0 0)
(0 0 0)
(0 0 0)
(0 0 0)
(0 0 0)
(0 0 0)
(0 0 0)
(0 0 0)
(0 0 0)
(0 0 0)
(0 0 0)
(0 0 0)
(0 0 0)
(0 0 0)
(0 0 0)
(0 0 0)
(0 0 0)
(0 0 0)
(0 0 0)
(0 0 0)
(0 0 0)
(0 0 0)
(0 0 0)
(0 0 0)
(0 0 0)
(0 0 0)
(0 0 0)
(0 0 0)
(0 0 0)
(0 0 0)
(0 0 0)
(0 0 0)
(0 0 0)
(0 0 0)
(0 0 0)
(0 0 0)
(0 0 0)
(0 0 0)
(0 0 0)
(0 0 0)
(0 0 0)
(0 0 0)
(0 0 0)
(0 0 0)
(0 0 0)
(0 0 0)
(0 0 0)
(0 0 0)
(0 0 0)
(0 0 0)
(0 0 0)
(0 0 0)
(0 0 0)
(0 0 0)
(0 0 0)
(0 0 0)
(0 0 0)
(0 0 0)
(0 0 0)
(0 0 0)
(0 0 0)
(0 0 0)
(0 0 0)
(0 0 0)
(0 0 0)
(0 0 0)
(0 0 0)
(0 0 0)
(0 0 0)
(0 0 0)
(0 0 0)
(0 0 0)
(0 0 0)
(0 0 0)
(0 0 0)
(0 0 0)
(0 0 0)
(0 0 0)
(0 0 0)
(0 0 0)
(0 0 0)
(0 0 0)
(0 0 0)
(0 0 0)
(0 0 0)
(0 0 0)
(0 0 0)
(0 0 0)
(0 0 0)
(0 0 0)
(0 0 0)
(0 0 0)
(0 0 0)
(0 0 0)
(0 0 0)
(0 0 0)
(0 0 0)
(0 0 0)
(0 0 0)
(0 0 0)
(0 0 0)
(0 0 0)
(0 0 0)
(0 0 0)
(0 0 0)
(0 0 0)
(0 0 0)
(0 0 0)
(0 0 0)
(0 0 0)
(0 0 0)
(0 0 0)
(0 0 0)
(0 0 0)
(0 0 0)
(0 0 0)
(0 0 0)
(0 0 0)
(0 0 0)
(0 0 0)
(0 0 0)
(0 0 0)
(0 0 0)
(0 0 0)
(0 0 0)
(0 0 0)
(0 0 0)
(0 0 0)
(0 0 0)
(0 0 0)
(0 0 0)
(0 0 0)
(0 0 0)
(0 0 0)
(0 0 0)
(0 0 0)
(0 0 0)
(0 0 0)
(0 0 0)
(0 0 0)
(0 0 0)
(0 0 0)
(0 0 0)
(0 0 0)
(0 0 0)
(0 0 0)
(0 0 0)
(0 0 0)
(0 0 0)
(0 0 0)
(0 0 0)
(0 0 0)
(0 0 0)
(0 0 0)
(0 0 0)
(0 0 0)
(0 0 0)
(0 0 0)
(0 0 0)
(0 0 0)
(0 0 0)
(0 0 0)
(0 0 0)
(0 0 0)
(0 0 0)
(0 0 0)
(0 0 0)
(0 0 0)
(0 0 0)
(0 0 0)
(0 0 0)
(0 0 0)
(0 0 0)
(0 0 0)
(0 0 0)
(0 0 0)
(0 0 0)
(0 0 0)
(0 0 0)
(0 0 0)
(0 0 0)
(0 0 0)
(0 0 0)
(0 0 0)
(0 0 0)
(0 0 0)
(0 0 0)
(0 0 0)
(0 0 0)
(0 0 0)
(0 0 0)
(0 0 0)
(0 0 0)
(0 0 0)
(0 0 0)
(0 0 0)
(0 0 0)
(0 0 0)
(0 0 0)
(0 0 0)
(0 0 0)
(0 0 0)
(0 0 0)
(0 0 0)
(0 0 0)
(0 0 0)
(0 0 0)
(0 0 0)
(0 0 0)
(0 0 0)
(0 0 0)
(0 0 0)
(0 0 0)
(0 0 0)
(0 0 0)
(0 0 0)
(0 0 0)
(0 0 0)
(0 0 0)
(0 0 0)
(0 0 0)
(0 0 0)
(0 0 0)
(0 0 0)
(0 0 0)
(0 0 0)
(0 0 0)
(0 0 0)
(0 0 0)
(0 0 0)
(0 0 0)
(0 0 0)
(0 0 0)
(0 0 0)
(0 0 0)
(0 0 0)
(0 0 0)
(0 0 0)
(0 0 0)
(0 0 0)
(0 0 0)
(0 0 0)
(0 0 0)
(0 0 0)
(0 0 0)
(0 0 0)
(0 0 0)
(0 0 0)
(0 0 0)
(0 0 0)
(0 0 0)
(0 0 0)
(0 0 0)
(0 0 0)
(0 0 0)
(0 0 0)
(0 0 0)
(0 0 0)
(0 0 0)
(0 0 0)
(0 0 0)
(0 0 0)
(0 0 0)
(0 0 0)
(0 0 0)
(0 0 0)
(0 0 0)
(0 0 0)
(0 0 0)
(0 0 0)
(0 0 0)
(0 0 0)
(0 0 0)
(0 0 0)
(0 0 0)
(0 0 0)
(0 0 0)
(0 0 0)
(0 0 0)
(0 0 0)
(0 0 0)
(0 0 0)
(0 0 0)
(0 0 0)
(0 0 0)
(0 0 0)
(0 0 0)
(0 0 0)
(0 0 0)
(0 0 0)
(0 0 0)
(0 0 0)
(0 0 0)
(0 0 0)
(0 0 0)
(0 0 0)
(0 0 0)
(0 0 0)
(0 0 0)
(0 0 0)
(0 0 0)
(0 0 0)
(0 0 0)
(0 0 0)
(0 0 0)
(0 0 0)
(0 0 0)
(0 0 0)
(0 0 0)
(0 0 0)
(0 0 0)
(0 0 0)
(0 0 0)
(0 0 0)
(0 0 0)
(0 0 0)
(0 0 0)
(0 0 0)
(0 0 0)
(0 0 0)
(0 0 0)
(0 0 0)
(0 0 0)
(0 0 0)
(0 0 0)
(0 0 0)
(0 0 0)
(0 0 0)
(0 0 0)
(0 0 0)
(0 0 0)
(0 0 0)
(0 0 0)
(0 0 0)
(0 0 0)
(0 0 0)
(0 0 0)
(0 0 0)
(0 0 0)
(0 0 0)
(0 0 0)
(0 0 0)
(0 0 0)
(0 0 0)
(0 0 0)
(0 0 0)
(0 0 0)
(0 0 0)
(0 0 0)
(0 0 0)
(0 0 0)
(0 0 0)
(0 0 0)
(0 0 0)
(0 0 0)
(0 0 0)
(0 0 0)
(0 0 0)
(0 0 0)
(0 0 0)
(0 0 0)
(0 0 0)
(0 0 0)
(0 0 0)
(0 0 0)
(0 0 0)
(0 0 0)
(0 0 0)
(0 0 0)
(0 0 0)
(0 0 0)
(0 0 0)
(0 0 0)
(0 0 0)
(0 0 0)
(0 0 0)
(0 0 0)
(0 0 0)
(0 0 0)
(0 0 0)
(0 0 0)
(0 0 0)
(7.01357e-05 0.000174728 0.000236161)
(-4.42775e-05 0.000342619 0.000521576)
(6.29699e-05 -0.000113478 -2.56717e-05)
(0.000167738 0.000353388 -7.33078e-05)
(0.000322908 0.000467106 6.41733e-06)
(0.000352561 3.96991e-07 0.000153507)
(0.000175851 -0.00100185 -3.44279e-05)
(-2.8131e-05 -0.000137964 -0.000102988)
(6.45436e-05 7.44997e-05 0.000183294)
(0.000223008 -1.47401e-05 1.29908e-05)
(0.000104536 -0.000109525 -3.74537e-05)
(-0.000200552 0.000152847 4.94399e-05)
(-0.000208187 0.000155546 -1.61657e-05)
(1.95203e-05 -5.86919e-07 9.20239e-06)
(0.000180172 -0.000162223 -0.000385589)
(-4.59051e-05 5.74528e-05 0.000107405)
(0.000166319 0.000116644 9.95116e-05)
(0.000834401 0.000344686 -9.50547e-05)
(8.44251e-05 -0.000283046 2.52743e-05)
(-6.07817e-05 -0.000128353 0.000182901)
(-1.94218e-05 -1.68548e-05 -1.81158e-05)
(0.000159214 -0.000194569 0.000114405)
(-0.000182082 0.000235064 -8.05814e-06)
(7.79673e-05 2.95918e-05 0.000220268)
(0.000240008 0.000176571 6.9155e-05)
(0.000134288 -1.90457e-05 3.19754e-05)
(0.000275805 4.70663e-05 -4.3884e-05)
(-0.000227272 6.46908e-05 0.000102581)
(1.76824e-05 -5.2106e-05 5.38243e-05)
(0.000111781 -5.24696e-05 -5.97552e-05)
(-5.66643e-05 -3.16365e-05 2.86933e-05)
(0.000157176 -0.00014329 0.000406245)
(0.000115088 0.000242752 0.000934952)
(0.000104298 0.000319731 0.00140899)
(0.000306317 5.71675e-05 0.000427041)
(0.000473128 0.000303818 0.000245978)
(0.000212066 0.000166865 0.000507799)
(0.00048922 6.77323e-05 0.000517173)
(0.000593394 0.000437041 0.000835533)
(-0.000147466 0.000112055 0.000608241)
(0.000237024 -1.47026e-05 0.00063649)
(0.0001474 0.000341699 0.000748187)
(5.25412e-05 0.000129991 0.000505355)
(2.2355e-05 -0.000241046 0.000820628)
(-3.37976e-05 0.000131829 0.000971392)
(0.000136758 1.31137e-05 0.000827177)
(9.92996e-05 -7.01249e-05 0.00031352)
(-0.000138784 0.00025267 0.000447044)
(0.000367166 3.38878e-05 0.000275836)
(0.000178019 0.000186588 0.000541256)
(0.000272004 7.18476e-05 0.000287506)
(0.000502415 -0.000321629 0.00146092)
(0.000139832 0.000135905 0.000653261)
(0.000214497 -0.000153039 0.000545629)
(-0.000170206 -7.76072e-05 0.00128864)
(5.80014e-05 0.00020155 0.000801094)
(0.000296415 7.08309e-05 0.000558866)
(0.000466677 5.80617e-05 7.79797e-05)
(0.000183213 -6.3627e-05 0.000619066)
(-3.56836e-05 0.000140542 0.000582473)
(8.25663e-05 -0.000124775 0.000355629)
(-0.000196339 -7.66305e-05 0.000311016)
(-0.000161879 3.92448e-05 0.000730403)
(-0.000163668 -1.57802e-05 0.00120609)
(0.000179525 0.000107556 0.00117336)
(0.000122751 0.000160916 0.000667117)
(0.000176147 -6.20551e-05 0.00083459)
(-7.38045e-05 -0.000222477 0.000862424)
(0.000326484 -0.000189147 0.00142006)
(0.000522526 4.49435e-05 0.000765062)
(0.00117127 -0.000370059 0.00160027)
(0.000644514 -3.90562e-05 0.000808907)
(0.000109818 0.000319556 0.00105719)
(6.98234e-05 0.000139133 0.000784757)
(0.000247919 -8.35917e-06 0.000936401)
(5.13655e-05 0.000348023 0.00126431)
(0.000140543 -0.000380608 0.001588)
(0.000233139 -0.000145818 0.000818676)
(0.000559523 -3.5559e-05 0.000850186)
(0.000680005 -3.59632e-05 0.000802492)
(0.000234911 4.78742e-05 0.00109148)
(0.000107045 -0.00013585 0.000835077)
(0.000316846 -0.000170829 0.000537242)
(0.00025671 -0.000191362 0.00111116)
(6.88431e-05 6.67709e-05 0.000698784)
(-3.4547e-05 -0.000142839 0.000604311)
(0.000759815 -0.000422804 0.00109953)