FoamFile
{version 2.0; format ascii;class vectorField; location 0;object  v;}
2509
(
( -0.000248634 -0.000166266 7.11224e-05 )  
( -0.000426287 -0.000161072 4.69185e-06 )  
( 0.00292245 0.00199331 0.0150131 )  
( -0.000345322 0.0024075 0.0113213 )  
( -0.000441624 0.000768924 -0.000129691 )  
( 0.0014638 -0.000324171 0.0147103 )  
( 0.00303447 -0.000904833 0.0104226 )  
( 0.000248052 3.47392e-06 -0.00022209 )  
( -0.00113273 0.00256474 0.0153601 )  
( 0.00041448 0.00287881 0.0179103 )  
( 0.00124595 -0.000781591 0.0143263 )  
( 0.000900239 -0.000420744 0.0154137 )  
( -0.00161872 -0.000607987 0.0106907 )  
( 5.43001e-05 0.000456129 -5.39121e-05 )  
( 7.03306e-05 2.66418e-05 -3.52944e-05 )  
( -0.000277988 0.000211991 1.98521e-05 )  
( -0.000207417 0.000560857 0.000115909 )  
( -0.00115267 0.000827311 1.64498e-05 )  
( -3.73027e-05 -7.12382e-05 -6.00834e-05 )  
( 0.000648426 -3.37608e-05 0.0147459 )  
( 0.00106927 1.37235e-05 0.0143614 )  
( 0.000307086 2.07619e-05 -0.00037955 )  
( 0.00147319 0.00314285 0.0120485 )  
( -0.00106275 -9.45811e-05 0.000140011 )  
( 0.000212658 -0.00074228 0.01326 )  
( 0.000230728 -7.67494e-05 0.0102365 )  
( 0.000693036 0.000142529 0.0125263 )  
( 0.000157821 0.000781293 0.013046 )  
( -3.01666e-05 2.22696e-05 6.75036e-05 )  
( 0.000583447 -0.000219382 0.0153124 )  
( -0.00030969 -0.00130317 0.00861305 )  
( -4.73164e-05 -0.000410459 0.00158365 )  
( -0.00179747 0.000358661 0.0172123 )  
( 0.000520272 -0.00266533 0.0119196 )  
( 0.000449156 0.000165559 -8.74539e-06 )  
( -0.00203772 -0.00201423 0.0096156 )  
( -0.00148248 -0.00148028 0.0152134 )  
( 0.000663414 -0.000124432 0.0124832 )  
( -0.000294407 -0.00116773 0.0115492 )  
( 0.0015421 -0.000822849 0.00948208 )  
( 7.20862e-05 3.49376e-05 -1.58708e-05 )  
( 0.000849254 0.000118745 0.0120914 )  
( 0.0027151 0.00248791 0.0147298 )  
( -0.00347829 -0.00149767 0.010193 )  
( 0.00140913 0.000260251 0.0103808 )  
( 0.000157098 0.000772881 3.85606e-05 )  
( 0.00151368 -0.00591112 0.0150544 )  
( 0.000100839 -3.00954e-05 -6.7712e-05 )  
( -0.000574088 -4.06755e-05 5.96152e-05 )  
( -0.000220288 0.000509479 0.0128351 )  
( 3.45555e-05 -0.000513616 0.00882806 )  
( -0.000562607 0.00217659 0.0100027 )  
( -2.65477e-06 -2.73366e-05 0.000181024 )  
( 0.000522481 -0.000181489 0.00994855 )  
( -8.41599e-05 -1.20831e-07 0.0126803 )  
( -0.00116381 -0.00186655 0.0164772 )  
( -0.000404996 -0.00320051 0.0091337 )  
( 0.00054299 1.66096e-05 4.78543e-05 )  
( 0.00116371 0.000195898 0.0149675 )  
( 0.00348771 0.00157263 0.0115419 )  
( 0.000150908 0.00249833 0.010845 )  
( 0.00141173 -0.000549031 0.0136872 )  
( 0.00166447 0.000112933 0.00741668 )  
( 0.000599785 -0.000941039 0.014125 )  
( 0.00192675 -0.00196165 0.0131995 )  
( 0.00556212 0.000475191 4.89748e-06 )  
( 0.00109723 0.000423113 0.0139229 )  
( 0.00040208 -6.84966e-05 0.0136599 )  
( 0.0021491 0.00028756 0.0128443 )  
( 0.000319837 -0.000841666 0.0128867 )  
( -0.00071188 0.00104841 0.0130672 )  
( 0.00124123 5.28399e-05 0.0130762 )  
( -0.000548925 -0.000504671 0.000101334 )  
( 0.00127091 0.000586914 0.0118646 )  
( -0.00233765 0.0014826 0.00797797 )  
( 0.000399468 -0.000432909 -5.01677e-07 )  
( 0.000489234 0.000432397 0.0114693 )  
( 7.07136e-05 0.00202002 0.0179659 )  
( 0.000138721 0.000129154 -2.44265e-07 )  
( 0.000246475 -6.20653e-05 1.09653e-05 )  
( -3.90265e-05 -3.36053e-05 7.53925e-05 )  
( -6.70059e-05 -1.88963e-05 1.74589e-05 )  
( 0.0017647 -0.00187385 0.0111246 )  
( 0.000924853 0.00073212 0.0132867 )  
( 0.000278988 -0.000784038 0.0107397 )  
( 0.00109072 0.000342649 0.0136766 )  
( 0.00106875 0.00040355 0.0149202 )  
( -5.36296e-05 -2.2046e-05 2.88505e-05 )  
( -0.00239152 -0.00313868 0.00776174 )  
( 0.00105826 -0.000566012 0.0156317 )  
( -1.21379e-05 -4.37281e-05 -1.31531e-05 )  
( 0.000744921 0.000570806 0.0129235 )  
( 0.000914618 0.000307007 0.0150125 )  
( 0.00127238 -0.000107794 -0.000281555 )  
( -0.00159181 -0.0012123 0.00857285 )  
( 0.000105965 -0.000170356 0.0139047 )  
( 0.000447536 -0.000852872 -0.00207658 )  
( 0.000460562 0.000278159 -0.000136398 )  
( 0.00318836 -0.0020823 0.0107203 )  
( 0.00419454 0.000364257 0.0124602 )  
( -0.000898172 -0.000673089 3.95759e-06 )  
( 0.00133403 0.000155296 0.0132367 )  
( -0.0005901 -0.00172884 0.0146313 )  
( 0.00344101 0.00210896 0.014262 )  
( 0.00148406 0.0012749 0.0114119 )  
( -1.72664e-05 -0.000443278 0.000133459 )  
( 0.00223231 -0.00139746 0.011368 )  
( -0.00114486 -0.00115602 0.0123237 )  
( 0.0014269 -0.000409996 0.0152794 )  
( 0.00115047 0.000931973 0.0157834 )  
( 0.00037918 0.00122151 0.0138966 )  
( -0.00208727 0.000284295 0.000638292 )  
( 0.00111235 0.000360777 0.012331 )  
( -0.00143867 -0.000881588 0.00013833 )  
( 0.00206027 -0.000909767 0.0141895 )  
( -0.000728633 7.53796e-05 -9.95275e-05 )  
( -0.00603465 -0.000343466 0.0122807 )  
( 0.000443162 0.0003887 0.0122439 )  
( -0.00277677 -0.00452769 0.00969511 )  
( -0.000166722 -0.000186384 -0.000112183 )  
( 0.000807886 0.0003105 0.0153442 )  
( 0.00264138 -0.000813737 0.012566 )  
( 0.00124871 -0.000761733 0.0139247 )  
( 7.98209e-05 2.1911e-05 -0.000231497 )  
( 0.00112576 -0.00108712 0.0125267 )  
( 0.00134895 -0.000313848 0.0133019 )  
( 0.00093937 0.000156986 0.013639 )  
( 0.000950034 -0.000665763 0.0145036 )  
( -6.6746e-05 -3.79777e-05 -5.12234e-05 )  
( 0.000607234 0.000692249 0.00802232 )  
( 0.000427431 -0.000869414 0.0125202 )  
( 0.00028362 0.000960545 0.01184 )  
( 0.00103566 0.000757789 0.0147463 )  
( 0.00244872 -0.000144519 0.0128532 )  
( 0.00239363 -0.00199128 0.00772752 )  
( 0.000150794 -2.96521e-05 4.47256e-05 )  
( -0.00136493 0.00250855 0.0131264 )  
( -0.00232708 0.000878996 0.0114111 )  
( -0.0020383 -8.02776e-05 0.00958856 )  
( -0.000551366 -0.00252331 0.0152023 )  
( 0.000720339 -0.000679632 0.0138938 )  
( -0.000251004 -0.000686079 0.0126766 )  
( -0.000212072 6.46554e-05 5.16061e-05 )  
( 0.00230356 -0.00298816 0.0158849 )  
( -0.00206352 -0.00155062 0.0162929 )  
( 0.000149921 1.33401e-05 -0.000380212 )  
( 0.0035959 -0.00171572 0.00916849 )  
( 0.00265372 0.00172493 0.0123731 )  
( 0.00172267 -0.00155587 0.0133358 )  
( 0.00160917 0.00153235 0.0150974 )  
( 0.000388243 -2.3705e-06 -0.000444017 )  
( -3.27331e-05 -2.50784e-05 3.01858e-06 )  
( -0.00119059 -0.00403438 -0.00243581 )  
( -0.000627482 0.00134184 0.0130999 )  
( 0.000902189 -0.000396563 0.0152833 )  
( 0.00306238 -0.00368778 0.0117666 )  
( 0.000905625 0.00171296 0.016279 )  
( -0.000378349 -0.000505027 -0.000426363 )  
( 0.00143005 -0.00146418 0.01149 )  
( 0.000100435 0.000157573 -0.000221712 )  
( 0.00417403 -0.00267108 0.0104716 )  
( 0.00274532 -0.00562535 0.0112422 )  
( -0.00277986 0.000451813 0.0115184 )  
( -0.000947233 -0.00218659 0.0162437 )  
( -0.000538042 -0.00049826 -0.000423019 )  
( 0.00294712 9.1452e-05 0.0130234 )  
( 0.00198365 0.000503525 0.013032 )  
( 0.00115 -0.000969876 0.013384 )  
( 0.00168837 0.00103181 -0.00121937 )  
( 0.000302898 -0.000228131 -0.00123429 )  
( 0.00124701 0.000863683 0.0145661 )  
( 0.00138695 0.000727686 0.0125061 )  
( 0.000812262 0.000375166 0.0157124 )  
( 0.00165808 -0.00010615 -0.000536761 )  
( 0.000978197 -0.00139218 0.000371221 )  
( -0.000396532 -0.00323853 0.0122178 )  
( 0.000106778 7.55168e-05 2.1359e-05 )  
( 0.00226158 -0.00209038 0.0124136 )  
( -0.00147297 0.00113699 0.00869032 )  
( -0.00206383 -0.00134859 0.0103978 )  
( 0.000666187 -0.000294787 1.0164e-05 )  
( 0.000366069 0.00168688 0.0133032 )  
( -0.00180939 -0.00296802 0.0108753 )  
( -0.00175331 0.0015289 0.0124414 )  
( 0.000685208 0.000112215 0.0106622 )  
( 0.00234605 -0.00165475 0.0128442 )  
( -0.00088726 0.000922047 -0.00107805 )  
( 0.000939376 -0.000242006 -0.000624905 )  
( -1.23615e-05 -0.000791212 -9.33312e-05 )  
( 0.000144072 0.00182398 0.0144452 )  
( 0.00285672 -0.00171486 0.0122451 )  
( -7.35308e-06 -0.000180465 3.57149e-05 )  
( -0.00405677 0.000339456 -0.00162536 )  
( -0.000795879 -0.000929719 0.014719 )  
( 0.00246691 -0.000962255 0.012525 )  
( -0.00132055 0.000966907 0.01278 )  
( 0.0014234 -0.000180233 0.0147708 )  
( 0.00212306 -0.000961976 0.015802 )  
( -0.000719301 0.000438786 0.000738417 )  
( 0.000442754 0.00153732 0.0136368 )  
( -0.000527694 -0.000463308 -1.94495e-05 )  
( -0.000461058 -0.000213192 0.00015125 )  
( 3.75705e-05 -8.6693e-06 4.54646e-05 )  
( 0.000190478 -4.37479e-05 0.0112552 )  
( 0.000334338 -0.000905069 0.00941686 )  
( 0.00131968 0.000430688 0.0138558 )  
( -9.58281e-05 -0.00283064 0.0095049 )  
( 0.000190637 -0.000264763 -0.000122725 )  
( -0.000411927 3.17031e-05 -5.57353e-05 )  
( 0.000154692 -0.00102053 0.000455825 )  
( 0.00344852 -0.00142439 0.0101516 )  
( 0.00235323 -0.00253601 0.00804264 )  
( 0.00073961 0.000391715 -0.00106354 )  
( 0.000673165 0.00146678 0.0138004 )  
( 0.00267318 -0.00112665 0.0133895 )  
( 0.00633993 0.00379642 0.0011892 )  
( 0.000504753 -0.000119536 -6.04704e-05 )  
( 0.00110025 0.00231895 0.0113877 )  
( 0.000101801 -0.00304444 0.0122385 )  
( 0.00139731 -0.000804996 0.0144957 )  
( 0.00182091 -0.000381918 0.0144388 )  
( 0.00188766 -0.000249851 0.0145955 )  
( 0.00297071 -0.00214701 0.0123155 )  
( 0.000909261 0.000162517 0.00989261 )  
( 0.0053021 0.00436167 0.012133 )  
( 0.00257812 -0.000696339 0.0133901 )  
( 0.000995269 -0.000319543 0.013581 )  
( -0.000510443 -0.000615541 0.00786365 )  
( 0.0010784 0.000806697 0.0121454 )  
( 0.000198306 0.00187687 0.0123296 )  
( 0.00168901 -0.000756547 0.013906 )  
( -0.0005343 -0.000297027 7.79014e-05 )  
( 0.000821653 -0.000271696 0.000105038 )  
( 0.00159897 -0.000150528 0.00762175 )  
( -0.000669952 -0.000188482 -0.000219544 )  
( 0.000546789 -0.000235415 0.0141919 )  
( 0.000980528 -0.000448071 0.0141649 )  
( -0.000244781 0.000210912 2.9446e-06 )  
( -0.00282703 0.000797523 0.0120052 )  
( -0.000372706 0.000213512 0.00933055 )  
( 0.000669978 -0.000336705 0.000364619 )  
( 0.000525703 0.000193548 0.0135993 )  
( 0.00136466 0.000892961 0.0139983 )  
( -0.00269702 9.2452e-05 0.0161194 )  
( -0.00116291 0.000923293 -0.00015086 )  
( 0.00201487 -0.00161454 0.0131331 )  
( -0.000118203 -5.35605e-05 8.7403e-05 )  
( 0.000331373 0.000673922 0.0120499 )  
( 0.000325512 -0.000153119 -0.000632536 )  
( -0.000614957 0.00135667 0.0150878 )  
( 0.000123317 -7.76184e-05 2.42521e-05 )  
( 0.00042521 -0.00110783 0.0141016 )  
( 0.000636141 -0.000986996 0.0147577 )  
( 1.44954e-05 7.19936e-05 0.0140324 )  
( 0.00520056 0.00149172 -0.00303663 )  
( -0.000882023 -0.0021031 0.0121773 )  
( -5.95846e-05 0.00113904 0.0125527 )  
( 0.000912754 -0.000265879 0.013479 )  
( 0.00124611 0.000379201 0.0125035 )  
( 0.00219153 -0.000662729 0.013249 )  
( 0.000665763 -0.000148231 2.96438e-05 )  
( -0.000353411 -0.000536418 -0.000270106 )  
( 0.00128887 -0.000616113 0.0113538 )  
( 0.00159391 0.000465549 0.013799 )  
( 7.27226e-06 0.000512162 0.0146129 )  
( 0.00172712 0.00416684 0.0116753 )  
( 0.00196237 -0.00177778 0.0116392 )  
( 0.00126024 -0.000947002 0.0123998 )  
( -0.00079923 -2.33663e-05 0.000424479 )  
( -0.000321162 0.000115457 0.0139302 )  
( 9.77481e-05 -1.05304e-06 -6.99212e-06 )  
( -0.00504519 -0.00201971 0.0107627 )  
( 0.00256059 0.000467013 0.0127542 )  
( 0.000889496 0.00203546 0.0144684 )  
( 0.000391322 -9.83353e-05 -3.08186e-05 )  
( -0.000107018 -0.000174666 -4.2434e-05 )  
( 0.000468219 -0.000734275 0.0139877 )  
( 0.00160962 -0.000472037 0.0139011 )  
( 0.00154436 -0.000980479 0.0138884 )  
( 0.00180218 0.000551842 -7.98298e-05 )  
( -0.000603772 -0.00201119 0.0108643 )  
( 0.0032577 -0.0031816 0.00878441 )  
( -0.00197086 -0.00417817 0.00873409 )  
( 0.00137954 -0.000174844 0.0137595 )  
( 0.00347428 -0.000694235 0.0113538 )  
( -0.000312629 -0.00102327 0.0137518 )  
( -0.00113191 0.000694542 0.0147445 )  
( 0.00151874 0.000663199 0.0135462 )  
( 0.00139903 -0.000758698 0.0134862 )  
( 0.00121533 -0.000501293 0.013754 )  
( 0.00250989 -0.000441624 0.0147702 )  
( 7.39241e-05 2.93525e-05 0.000103019 )  
( 0.00321626 -0.00199868 0.0102124 )  
( 0.000109785 -0.00158616 0.0121819 )  
( -0.000243789 -0.000926632 0.00735783 )  
( -0.000490994 -0.00216851 0.0128944 )  
( -0.000748112 -0.000952304 0.0105793 )  
( 0.000687765 -0.00227773 0.0103709 )  
( -0.000639297 0.000430586 -1.2165e-05 )  
( 0.00306932 0.000414305 0.0146788 )  
( 0.000128849 -0.000323376 0.00825938 )  
( 0.00118673 -0.000343794 0.0105375 )  
( 3.74655e-05 -0.00259867 0.00806574 )  
( -1.90329e-05 -4.77195e-06 -0.000165781 )  
( 0.000487012 -0.000182885 0.0133374 )  
( 0.00155447 -0.00179665 0.0115861 )  
( -0.00398794 -0.00397052 0.0107849 )  
( 0.000284896 0.00162194 0.0122502 )  
( 0.00284284 0.000276508 0.0135658 )  
( 0.000216593 0.000901565 -0.000533005 )  
( 0.000423439 0.000119806 -0.00142478 )  
( -0.000282941 -0.00038815 0.0100492 )  
( -0.00219243 -0.00167894 0.0122244 )  
( 0.00124026 -0.00254219 0.0132143 )  
( 0.000178885 -5.79402e-05 -2.51586e-06 )  
( 0.00162355 -0.00139536 0.0121985 )  
( 0.000461998 0.000309898 0.000760119 )  
( 0.00137917 0.00087344 0.0159406 )  
( 0.00172146 0.000782413 0.0146611 )  
( 0.00423303 -0.000842555 0.0126796 )  
( 0.00231022 0.000361693 0.0132113 )  
( -0.000466878 -0.000706393 -0.000120503 )  
( 1.21517e-05 -3.25102e-06 9.80376e-05 )  
( -0.00100602 0.00266307 0.0168623 )  
( -0.00175057 0.000228412 0.00686942 )  
( 0.00241445 -0.00500616 -0.00102741 )  
( 0.0017683 -0.000824982 0.0105129 )  
( 0.00131952 -0.000410593 0.00889115 )  
( 0.000224772 0.000933504 0.0137702 )  
( 0.0012633 -0.000862893 0.0140977 )  
( -0.000123507 3.35947e-05 -1.89521e-05 )  
( 0.000349631 0.000461453 0.0130789 )  
( 0.00307729 -0.000565672 0.0105472 )  
( 0.000516009 -1.19093e-06 -8.91168e-05 )  
( 0.0023236 -0.000528899 0.0134975 )  
( 2.43041e-05 -4.26011e-05 -2.41675e-05 )  
( -0.000520293 -0.00313169 0.0103696 )  
( 0.00323621 0.000404681 0.0152041 )  
( 0.00104953 0.0006307 0.00987289 )  
( 0.00213388 -0.000457686 0.0143591 )  
( 0.00194882 -0.000392316 0.0140078 )  
( -0.000368857 0.000662733 0.00044415 )  
( 0.000170093 0.000307077 7.27142e-05 )  
( -0.000120811 0.000122852 3.54812e-05 )  
( 0.000181224 7.91454e-05 0.0141116 )  
( -4.72921e-05 8.70682e-05 -4.58511e-05 )  
( -0.00121707 0.000665689 0.0113254 )  
( 0.000182017 -0.000230738 0.0115301 )  
( -0.000326682 -0.000118172 -2.33164e-05 )  
( 0.000586062 -0.00174327 0.00793123 )  
( 1.04198e-05 -0.00166387 0.00902892 )  
( -3.01766e-05 -0.000133795 6.51679e-05 )  
( 0.000902318 -0.000266938 -0.000274634 )  
( -0.000577995 0.00237551 0.0109395 )  
( 0.00011242 -0.00128249 0.0145742 )  
( 0.00091028 8.18222e-05 0.0149341 )  
( 0.00130637 -0.000366953 0.0142234 )  
( -0.000313346 0.00264904 0.0121161 )  
( 0.000681109 -0.000848244 0.00515842 )  
( 0.00191406 -0.00163666 0.0127083 )  
( 0.000273009 -0.000537975 0.0127442 )  
( 0.000480328 0.00066261 0.0147734 )  
( 0.00125905 -0.000173485 0.013738 )  
( 0.00133122 -0.000508646 0.0114661 )  
( -0.00281021 -0.0015154 0.0128328 )  
( -0.000885418 -0.0022964 0.0073351 )  
( 0.000724026 -0.00431478 0.0113003 )  
( 0.00200485 -5.49928e-06 0.0141919 )  
( 9.78532e-05 0.00197595 0.0103235 )  
( 0.000362264 0.00275976 0.00969225 )  
( 0.000326706 0.000303364 0.0147378 )  
( 0.00224947 -0.00206793 0.0114835 )  
( 0.000488485 -0.000928761 0.0131808 )  
( -0.00105972 -0.00102115 -0.000445427 )  
( -0.000202293 0.000257148 2.27411e-05 )  
( 0.00384683 0.00035997 0.0124279 )  
( 9.3476e-05 0.0010895 -0.00050572 )  
( 0.00043882 -2.75517e-06 -0.000540634 )  
( -0.000398679 -0.000219875 -5.99823e-06 )  
( 0.000608175 0.000785271 0.0117977 )  
( -0.000756206 -0.00149183 0.0225479 )  
( -0.00361501 -0.00130931 0.0031408 )  
( -0.00112799 -0.00120348 0.0153359 )  
( -0.000183086 -0.000117574 0.000104507 )  
( 0.000485314 -0.000761093 0.000282868 )  
( 0.00153486 -0.000160938 0.0146595 )  
( 0.000398882 -8.67087e-05 -0.000634639 )  
( -0.000146843 -0.000446006 5.43395e-05 )  
( -0.00469041 0.00169929 -0.000120618 )  
( 0.000742274 0.000656483 0.00904821 )  
( -0.00247944 3.41368e-05 0.0145448 )  
( 0.00083567 0.00033977 0.0118964 )  
( 0.00186849 -0.00151739 0.0163167 )  
( 0.00064187 -0.00022322 -7.13254e-05 )  
( 0.000298967 0.00112207 -6.5379e-05 )  
( 0.00295607 -0.000156997 0.0130834 )  
( 0.000400542 0.000277186 -0.000189716 )  
( 0.000405655 0.00227981 0.0119664 )  
( 0.000856505 -0.000635655 0.0130116 )  
( -0.000214506 -0.00054994 0.0136648 )  
( 0.00279893 -0.00110101 0.0116483 )  
( 0.00309411 -0.000253108 0.013499 )  
( 0.00125233 -0.000973623 0.0122087 )  
( 0.00424095 0.00267997 0.0122581 )  
( 0.00124552 5.26361e-05 0.0151397 )  
( -0.000747403 0.00148789 0.0101531 )  
( 0.00277081 0.00126688 0.0117935 )  
( 0.000383953 0.000765107 0.0138033 )  
( -3.32348e-05 0.000198909 0.000316579 )  
( -0.00122459 -0.0015854 0.0108307 )  
( 0.000978063 -0.00249699 0.0126258 )  
( -0.000151263 9.3272e-05 -2.16498e-05 )  
( -0.000832572 -0.000179097 0.0118192 )  
( 0.00288229 0.000632198 0.0117836 )  
( 0.000676709 0.000655457 0.012327 )  
( 5.73672e-05 -0.000208167 8.14979e-05 )  
( 0.000985682 -0.000468119 0.0114429 )  
( 2.47015e-05 -0.000171161 6.33054e-05 )  
( 4.24503e-06 -0.000184014 -5.32744e-05 )  
( -0.000857471 -0.00219035 0.0144812 )  
( 0.00101033 0.000493104 0.0148139 )  
( 0.00184414 -0.000807783 0.0123343 )  
( 0.00101076 0.000637081 0.0143039 )  
( 0.00380731 -0.00208287 0.0129467 )  
( 0.000786427 0.00102381 0.0138153 )  
( -0.000269955 -3.27787e-05 -2.13994e-05 )  
( 0.00160782 -0.000182098 0.0101098 )  
( -0.00125793 -0.000402381 -0.000248116 )  
( 0.00104008 -0.000584568 0.0134975 )  
( -3.58127e-05 0.000124331 -1.0667e-05 )  
( -0.00119546 0.00127769 0.0122452 )  
( 0.00172053 0.00202194 0.0138702 )  
( -0.000407911 0.000114441 -0.000126342 )  
( 0.000371447 -0.00151325 0.012973 )  
( -0.000130537 0.000258945 0.0001055 )  
( -4.40677e-05 -0.000123124 2.57752e-06 )  
( 0.00198115 0.000852346 0.0147853 )  
( 0.00015462 -0.00126725 0.0140435 )  
( -0.000234877 -0.000730344 -0.000272364 )  
( 0.00123973 0.00323868 0.0147018 )  
( -0.000142869 -0.00143826 0.0115058 )  
( 0.00383161 -0.000536567 0.0176434 )  
( 0.000356965 -0.000859556 0.0135607 )  
( 0.00159877 -0.000767252 0.0114561 )  
( 0.000673431 -0.00171708 0.0132163 )  
( 0.000588038 -8.60768e-05 -1.11034e-05 )  
( 0.00166092 -0.00593986 0.00867431 )  
( -0.00105354 0.0021767 0.0124018 )  
( -0.00182607 -0.000471405 4.4468e-05 )  
( -0.000484404 -0.000475063 0.00779895 )  
( 0.000134125 0.000156955 4.15401e-05 )  
( 0.00189069 -0.000668199 0.0139339 )  
( -0.00350424 0.000296202 0.0183867 )  
( 0.00324781 0.00132294 0.0132677 )  
( 0.000467768 0.000261008 0.0141328 )  
( 0.000258896 -4.25085e-05 -0.000438111 )  
( 0.000632363 -0.000253459 0.0133694 )  
( 0.00143159 9.32242e-05 0.0132285 )  
( 0.00114447 -0.000148548 0.0123028 )  
( 0.00126922 -0.00112424 0.013531 )  
( 0.00235006 -0.000495808 0.0119881 )  
( 5.56005e-05 -0.000754374 -0.00102152 )  
( 0.00013057 -0.000332791 -2.96608e-05 )  
( -0.000541197 0.000184259 0.000120809 )  
( 0.00102562 -0.000115408 0.0152175 )  
( 0.00111778 -0.000315661 0.0137472 )  
( 0.000781555 0.00379565 0.0128006 )  
( 0.000717787 -0.00169005 0.0131774 )  
( 0.00125196 0.0013839 0.0144881 )  
( 0.000117707 0.00046253 7.09383e-05 )  
( -0.000826119 -0.000397929 -0.000105806 )  
( -5.08001e-05 -4.8705e-05 -4.61971e-05 )  
( 0.00122659 -0.00110321 0.00942437 )  
( 0.000948856 -0.000415591 0.0126608 )  
( -0.000261853 0.000178296 -0.000166752 )  
( -0.000110885 0.00042716 0.0139018 )  
( 0.000747169 0.00107482 0.0170787 )  
( 0.00146269 -0.000708093 0.0133822 )  
( 8.98294e-05 -9.7935e-06 0.0134382 )  
( 0.0021023 -0.0024083 0.014722 )  
( 0.00185008 0.000453929 0.0131529 )  
( 0.00208346 0.0001001 0.0141703 )  
( -0.000228432 -0.000381451 0.0132962 )  
( -0.000112972 -1.74474e-05 3.79002e-05 )  
( 5.29235e-05 8.28448e-05 -0.00019431 )  
( 0.00107979 0.000235399 0.0156729 )  
( 0.00341904 -0.000790541 0.0120338 )  
( 0.00112316 -0.0013505 0.0105439 )  
( 0.00173056 0.0008681 0.0136537 )  
( 0.00282685 -0.0013429 0.00955752 )  
( -0.000396836 0.0012677 -3.62627e-07 )  
( 0.00172886 -0.000727963 0.013856 )  
( 0.00114849 -0.000353326 0.013997 )  
( 0.00031315 -0.000320505 -7.59794e-05 )  
( -0.00349633 0.00357332 -0.00111235 )  
( -0.000129674 -0.000104534 4.78336e-06 )  
( 0.00148802 0.00198794 0.0118028 )  
( -0.00217053 0.00109826 0.0152681 )  
( -0.00029426 -0.000209835 3.40481e-05 )  
( 0.00127683 -1.06927e-05 0.0150157 )  
( 0.000239407 -0.000122389 0.0143246 )  
( -0.00120613 0.000975049 0.0121896 )  
( -0.000504427 -0.000455176 5.29462e-05 )  
( 0.00391829 -0.000778498 0.00889276 )  
( 0.00136281 -0.000549937 0.0139929 )  
( 0.00138039 -9.23929e-05 0.0126296 )  
( -0.00155308 0.000751332 0.00732742 )  
( 0.000746491 0.00039331 -0.000534626 )  
( 0.00433547 -0.00154195 0.0103275 )  
( 0.000556866 -0.000224961 1.33456e-05 )  
( 6.68881e-05 2.80517e-05 2.58926e-05 )  
( 0.00115574 -0.000710725 0.0154881 )  
( -0.00071436 0.000275756 3.081e-05 )  
( -0.00354133 0.000136384 -0.000994516 )  
( 0.00102473 -0.000436115 0.0131314 )  
( 0.00215385 0.000530928 0.0145643 )  
( 0.000178274 -0.000473231 0.000117507 )  
( 0.00752595 0.000441053 0.00941607 )  
( 0.00113936 -0.00075625 0.0158197 )  
( 0.00295225 0.00154609 0.0119146 )  
( 0.00137597 -0.00024265 0.0132693 )  
( -0.000833352 0.000504137 0.0105055 )  
( 0.000186329 1.08954e-05 0.0157731 )  
( 0.0011212 -0.000385063 0.0132461 )  
( 0.000585725 0.000230305 -0.000695537 )  
( 0.0014158 -0.000388157 0.0149269 )  
( 0.00215262 -0.00080788 0.0133519 )  
( 0.000406329 1.03435e-05 0.0134218 )  
( 0.00107372 0.000303783 0.015574 )  
( 0.00088089 0.000918219 0.011237 )  
( -0.000505116 -0.00247193 0.0113754 )  
( 8.33266e-05 -0.000141167 0.00932775 )  
( 0.000125832 -3.28451e-05 -6.24574e-05 )  
( 0.00162885 -3.66348e-05 0.0133598 )  
( 5.30562e-05 -1.13606e-05 4.99713e-05 )  
( 8.24329e-05 0.000103545 -7.71068e-05 )  
( -0.000760238 0.000192863 0.000499224 )  
( 0.00250448 0.000174763 0.0131612 )  
( 0.000266055 5.83038e-05 -5.9299e-06 )  
( -0.00234644 -0.000353551 0.0131525 )  
( -0.000133257 -0.000699377 0.014309 )  
( -4.94361e-05 1.04342e-05 0.0117966 )  
( -0.00055991 -0.000896621 0.0145185 )  
( -0.000463696 -0.000698408 -0.000292868 )  
( -0.000905374 0.000317485 0.0102776 )  
( -0.000116855 -0.000131345 -0.000291672 )  
( 0.00150774 -0.000719491 0.0144307 )  
( 0.000163094 -0.00127807 0.0107297 )  
( 0.000757769 -0.00209831 0.0108871 )  
( 4.86531e-05 -4.01657e-05 5.20324e-06 )  
( 0.000919938 0.000229219 0.0148276 )  
( 0.000527533 -0.000923313 0.0108471 )  
( 0.00284631 0.00156898 0.00744646 )  
( 0.00112063 -0.0105287 -0.00642837 )  
( 0.000839208 -0.000217926 6.80526e-05 )  
( 0.000574911 -0.00225933 0.0143943 )  
( 0.000678121 -4.70105e-05 0.0143768 )  
( -0.00137518 -0.000144301 -0.000507394 )  
( -0.000338936 1.45553e-05 2.16955e-05 )  
( 4.69741e-05 -6.53249e-06 0.000133369 )  
( -0.000433209 -0.000397443 -0.000112276 )  
( 0.000317629 -0.00100721 -0.000754528 )  
( 0.00115802 0.000213177 0.0144109 )  
( 0.000652958 0.000689688 0.0144997 )  
( 0.000102779 -1.72686e-05 8.79285e-06 )  
( 0.000131427 0.000224677 0.0139921 )  
( 0.000131551 0.000236717 0.0139608 )  
( -0.000226005 -4.66886e-05 -0.000105523 )  
( 0.000214198 -0.00136134 0.0146513 )  
( 2.61834e-05 1.1729e-05 2.30434e-05 )  
( 6.76789e-06 6.79898e-05 2.51246e-05 )  
( -0.000544409 -0.000590949 0.0132099 )  
( 1.25448e-05 -7.40552e-05 0.000227355 )  
( -0.000104888 -0.000169223 0.000108086 )  
( 0.0018349 -0.000932246 0.0103142 )  
( 0.000375658 0.000863883 0.000393852 )  
( -0.001597 -0.00169609 0.00927546 )  
( 0.00127844 -0.00139312 0.012213 )  
( 0.00118948 -0.00127093 0.0133947 )  
( -0.002123 -0.00457623 0.00911195 )  
( 0.00224643 0.00175213 0.0130429 )  
( -1.31251e-06 -0.000150587 -0.000559595 )  
( 0.00165383 0.0028124 0.0124286 )  
( 0.000934023 -0.00115118 0.0149708 )  
( 0.00195728 -0.000777016 0.0104976 )  
( 1.53737e-05 -2.01645e-05 -9.87143e-06 )  
( 0.000602926 -0.000938447 0.0146773 )  
( -0.000973384 0.00139589 0.00998614 )  
( -0.00337517 -0.00497231 0.0139653 )  
( -0.000909121 0.00149128 0.0157757 )  
( -0.00159951 0.00904656 -0.00861415 )  
( -0.000838618 -0.000465534 0.0113576 )  
( 3.80977e-05 -0.000122732 7.76743e-05 )  
( 0.000797791 0.000665439 0.0143363 )  
( 0.00117176 -0.000592831 0.0121516 )  
( 0.00034362 -0.00279609 0.0122289 )  
( -0.000433577 0.00265333 0.0126903 )  
( 0.00329569 0.00258581 0.0144249 )  
( -2.91743e-05 -7.29096e-05 4.78181e-05 )  
( 0.00129614 0.000411223 0.0149965 )  
( 0.00109995 0.00216448 0.0122151 )  
( 0.00118026 -0.00133315 0.011232 )  
( 0.000202789 -0.000672417 0.0135163 )  
( 0.000784344 0.00206467 0.014588 )  
( -0.000133877 -0.00313864 0.00919132 )  
( 0.000201797 -0.000931365 6.45169e-05 )  
( 0.00340299 0.00011429 0.0128804 )  
( 0.00133988 -0.000186198 0.00996576 )  
( -0.000234226 0.000130418 -0.000384628 )  
( 0.00358929 -0.000308015 0.0164149 )  
( 0.00204144 0.000962273 0.0141516 )  
( 0.0018049 -0.00189332 0.0111009 )  
( 0.00173745 -8.13099e-06 0.0147055 )  
( 0.00405175 0.0019375 0.00844175 )  
( 0.0022347 -0.0024039 0.0121784 )  
( 0.000675034 0.000121529 -0.000916753 )  
( 0.000695701 -0.000802006 0.0143801 )  
( 8.58022e-05 1.65719e-05 2.86304e-05 )  
( 0.000529773 -0.00350758 0.0130892 )  
( -0.000738588 -0.000157157 -2.92378e-05 )  
( -0.00271118 -0.00269391 0.0151441 )  
( 0.000635176 0.00112237 0.0112685 )  
( 0.000549235 -0.00126927 0.0134059 )  
( 0.00220677 -0.00153409 0.0113255 )  
( -2.20019e-05 -0.000117807 -0.000251469 )  
( -0.000680281 -0.00017595 3.53534e-05 )  
( 0.00273211 -0.00174062 0.013998 )  
( 0.00110272 0.00125599 0.0130362 )  
( 3.40847e-05 6.10505e-05 3.29241e-05 )  
( 0.000707051 -0.00112116 0.015323 )  
( 0.0017178 0.00165533 0.0116638 )  
( 0.00271943 0.000584087 0.0124536 )  
( 0.00208897 0.000191753 0.0129218 )  
( 0.0047803 0.00050474 0.0136593 )  
( 0.000869513 -0.000887845 -0.00126205 )  
( 0.00148271 -0.000537663 0.0128109 )  
( -0.00114439 0.000949879 0.0135608 )  
( 0.000270147 -0.000111744 0.0117768 )  
( 0.000700553 0.000671457 0.0113237 )  
( 0.000486145 0.000521804 0.0149262 )  
( 0.000502983 0.000103976 0.0121957 )  
( 0.00214883 -0.00174553 0.0138521 )  
( -7.39186e-05 -0.00014247 -0.000154546 )  
( -0.00141695 0.00255764 0.0196611 )  
( -0.00123129 -0.00148522 0.0172028 )  
( -0.00315527 -0.000818206 0.00939379 )  
( -0.000847784 2.30047e-05 0.000745691 )  
( 0.00028158 -0.0014187 -0.000261132 )  
( 0.000893885 0.000406281 0.0142164 )  
( 3.38926e-05 -0.000715468 0.0101293 )  
( -0.000644817 -0.00193175 -0.000357089 )  
( 0.00302635 0.000327277 0.0115413 )  
( 0.00165259 -0.000346986 0.0150151 )  
( 0.000119964 -0.000334024 9.07124e-06 )  
( 0.00035549 3.40026e-05 0.0144134 )  
( -0.00391902 -0.002751 0.00896197 )  
( -0.00171612 0.000372625 0.01604 )  
( 0.00129801 -0.00157957 0.0112351 )  
( 0.00179073 -0.0016464 0.00866715 )  
( 0.00172279 0.000208515 0.0135292 )  
( 0.00137378 -0.000240379 0.0116478 )  
( 0.00317621 -0.000993582 0.0143624 )  
( -0.00120827 0.00296079 0.0177047 )  
( -0.000441827 -0.000662911 0.0137045 )  
( -0.00128328 -0.000716673 0.0118836 )  
( 0.000563722 -0.000515276 -0.000306124 )  
( 0.000424815 0.000126377 0.0133676 )  
( 0.000313553 -0.00235316 0.0115797 )  
( 0.000278256 -0.00179863 0.0110019 )  
( -0.000326593 0.000308953 0.0134635 )  
( 0.00439225 -0.00122151 0.0118954 )  
( 0.000167515 -0.000118955 6.65328e-05 )  
( 6.82954e-05 -0.000486454 -3.55723e-05 )  
( -3.19092e-05 -6.09472e-05 1.85561e-05 )  
( -0.00305621 -0.00166319 0.0100038 )  
( -0.0011102 -0.000147448 0.000401847 )  
( -0.00490765 0.000805434 0.00458853 )  
( 0.00240621 0.000428054 0.0132974 )  
( 3.96217e-05 0.000154298 -0.000270783 )  
( 0.000911047 -0.00028673 0.0152506 )  
( 0.000223214 -0.00034444 0.0138405 )  
( 6.65418e-05 -5.51917e-08 -3.52219e-05 )  
( -0.00399481 -0.00153406 0.0102013 )  
( -0.00313979 -0.00388646 0.0120005 )  
( -0.000336923 -0.000272784 -1.43479e-05 )  
( 0.000126227 -0.00051912 -5.06339e-05 )  
( -0.000193038 -0.000157895 -0.00048896 )  
( -0.00158965 -0.000163068 0.0105954 )  
( -0.00119267 -0.00309925 0.0107546 )  
( 0.00113864 -0.00141732 0.0147154 )  
( 0.000654166 7.19443e-06 0.0144119 )  
( -0.000633495 3.66923e-06 9.29485e-05 )  
( 0.00328504 -0.00126062 0.0100869 )  
( 0.000763306 -0.000649803 0.0129797 )  
( -4.20569e-05 8.71789e-06 1.81456e-05 )  
( 0.00473986 -0.00209144 0.0104786 )  
( 0.00197286 -0.0011038 1.57328e-05 )  
( 0.000438161 -0.000340867 -0.00133161 )  
( -0.000577234 -9.00487e-05 5.88813e-05 )  
( -0.000229815 0.000154064 -0.000588302 )  
( -0.00471645 0.0017082 0.0118784 )  
( 0.000820618 -4.19105e-05 0.0141794 )  
( -0.000512719 0.000179534 0.00923493 )  
( -0.000323987 -0.00302093 0.0116319 )  
( -0.000269739 7.38866e-05 -7.50378e-06 )  
( 0.00258302 0.0004109 0.00912736 )  
( 0.00105497 -0.001004 0.0011148 )  
( 0.00266572 0.000322772 0.00957156 )  
( 0.000839317 0.000807245 0.0135138 )  
( -0.000197436 -0.00179646 0.0144125 )  
( 0.00148061 -7.5841e-05 0.0143835 )  
( -0.000365183 -0.000936016 0.00799245 )  
( 0.000242948 0.00229991 0.0130576 )  
( -2.66933e-05 5.45122e-05 -0.000840633 )  
( -6.00469e-05 0.000154754 -2.48364e-05 )  
( -0.000165076 0.0027204 0.0146295 )  
( -0.000307214 -0.000153225 4.919e-05 )  
( -0.000162694 -0.000267746 0.00031555 )  
( 0.000545276 -0.000507713 2.32612e-08 )  
( -0.000680352 -0.00226441 0.009451 )  
( 0.000211993 -2.48184e-05 0.0141201 )  
( 0.000617772 0.000920886 0.0131262 )  
( 0.00268343 -0.0033611 0.0131386 )  
( 0.00144616 -0.000938408 0.0132146 )  
( -0.000233655 0.000146975 0.00930277 )  
( -0.00350428 -0.00115812 0.00290551 )  
( 0.000820197 -1.58239e-05 0.0148132 )  
( -5.46043e-05 -8.66124e-05 -0.000643354 )  
( 0.00034245 -0.000712531 -0.000271378 )  
( 0.000551042 -0.00056272 0.0137469 )  
( -0.000985508 -0.00225702 0.00907657 )  
( -0.000454615 0.00148237 9.19272e-05 )  
( -0.000532142 -0.0024797 0.0140724 )  
( 0.00120631 1.70689e-05 -4.01318e-06 )  