FoamFile
{version 2.0; format ascii;class vectorField; location 0;object  v;}
2497
(
( -0.00188486 0.00054289 0.0119843 )  
( 0.000818162 0.00226163 0.00964119 )  
( -0.000464383 0.00307229 0.00476125 )  
( -0.00640563 -5.26238e-05 0.00692675 )  
( 0.000740041 -0.000118413 0.00625483 )  
( 2.69954e-05 0.00296302 0.0114962 )  
( 0.000258505 0.000151229 -0.000152103 )  
( -0.000687777 -0.000226419 -0.000244128 )  
( -0.000844576 0.00128637 0.0116026 )  
( -0.00032386 -0.000328616 0.006705 )  
( -0.000673628 0.000195776 0.0114831 )  
( 0.000715006 6.60987e-05 0.00770428 )  
( -0.000448135 0.00286885 0.00637037 )  
( 0.000229532 -0.000126818 2.08862e-05 )  
( 0.000559749 0.00115245 0.00916521 )  
( 0.000784677 0.00116517 0.00737142 )  
( -0.00144876 -0.000714776 6.74679e-05 )  
( 5.75037e-07 8.02239e-05 0.00783045 )  
( -0.00115925 0.00164057 0.00883144 )  
( -0.00168648 -0.000179824 -0.00120878 )  
( -0.00079273 0.000845154 5.63225e-06 )  
( 0.000511732 -0.000276019 0.000117766 )  
( -0.00153086 0.000381177 0.00773275 )  
( -0.00329577 -0.000515382 -0.00255523 )  
( -0.000551801 0.00270015 0.0103921 )  
( 0.0022084 -0.000824341 -0.00054776 )  
( -0.00192848 -0.00131565 0.00748288 )  
( -0.000895919 0.000868383 0.009641 )  
( 0.000266919 0.00159632 0.00784843 )  
( -0.000664124 -0.000536474 0.000185497 )  
( -2.11869e-05 -4.69793e-05 -0.000181999 )  
( -0.000336895 0.00157693 0.00972973 )  
( -0.000828677 -0.000246248 0.00519044 )  
( 0.000374103 -0.00139064 0.00538617 )  
( -0.000367131 0.00159415 0.0059589 )  
( -0.000723514 8.14477e-05 -8.23198e-05 )  
( 0.00174086 0.00142965 0.00213908 )  
( 0.000251033 0.000166653 -1.78595e-05 )  
( 0.000411604 0.00187741 0.00755291 )  
( -0.000129245 0.0011516 0.0107298 )  
( 0.000603076 0.000916311 0.0116554 )  
( -0.00141153 0.000172985 0.00702831 )  
( -9.88365e-05 -0.000443394 9.83481e-06 )  
( 0.000921962 0.00205686 0.00698808 )  
( -0.000246413 0.00026953 -4.08777e-05 )  
( -0.000905731 0.00137978 6.14576e-05 )  
( -0.00108634 -0.000269649 0.0108483 )  
( 0.00411957 -0.00358166 0.0120252 )  
( -0.0017616 0.00157345 0.00993474 )  
( 0.000533312 0.0036643 -0.000678608 )  
( -0.000361794 -0.00140089 0.00471766 )  
( -0.000165517 0.00105536 0.00758309 )  
( -0.00109396 0.00186476 0.0106944 )  
( -0.00080481 0.000102763 0.000589139 )  
( 0.000280159 0.000374576 2.76306e-05 )  
( -7.0125e-05 -6.98575e-05 2.48621e-06 )  
( 0.000384748 0.000153835 -0.00143416 )  
( 0.000186519 0.00165027 0.0094542 )  
( -0.00148805 -0.000147941 0.0116231 )  
( -0.000473914 -0.000609594 0.000742468 )  
( 0.00229077 0.00316136 0.00982634 )  
( -0.00100805 -0.000724115 0.0119569 )  
( -0.00174168 0.000555403 0.00953171 )  
( -0.000666671 8.12171e-05 0.00775502 )  
( -0.000643121 0.0013887 0.0121291 )  
( -0.00261507 0.000170955 0.00671908 )  
( 0.000191371 0.000930093 0.00815725 )  
( 2.19916e-06 0.00236504 0.00590355 )  
( 0.00224246 -0.000778547 -0.000835323 )  
( -0.000790106 -5.81053e-05 9.05196e-06 )  
( 0.00405117 -0.0013482 -2.88893e-05 )  
( -0.00057872 -0.00164679 0.0044126 )  
( -9.47143e-06 0.0012606 0.0089367 )  
( 0.00190382 0.00161651 -0.000598335 )  
( -0.00200983 -0.000564297 0.0106484 )  
( 0.000332821 0.000956209 0.00492002 )  
( -0.00159942 -0.000413711 0.006171 )  
( 0.000122684 0.000622866 0.00621842 )  
( -0.00156325 0.000587127 0.00886503 )  
( -0.000826203 0.00169919 0.00679467 )  
( -8.87309e-05 6.15054e-05 5.11747e-05 )  
( -0.000838887 0.00226361 -0.000244483 )  
( -0.00121578 0.00253488 0.0061472 )  
( -0.000366119 0.00177081 0.00758854 )  
( 0.00279787 -0.000538155 -7.68008e-09 )  
( -0.000812084 0.00246317 0.0114623 )  
( 0.000430239 -0.000538716 0.000210388 )  
( -0.000841549 0.00129118 0.00825951 )  
( 4.17841e-05 -0.000337872 4.16664e-09 )  
( 0.00134495 0.00238969 0.00576596 )  
( -0.00100186 0.00238898 0.00981196 )  
( -0.000210514 0.000405489 0.00715207 )  
( -0.00233886 0.000931094 0.00121077 )  
( -0.000131251 1.93102e-05 -3.21849e-05 )  
( -0.00075121 0.00207244 0.00862095 )  
( 0.000535228 -0.000861037 -0.000392796 )  
( 0.0018903 0.00106216 0.00888656 )  
( 1.55979e-05 -7.22548e-05 -2.17415e-05 )  
( -0.00118228 0.00188257 0.0106537 )  
( 6.92673e-05 -3.39816e-05 -4.16549e-05 )  
( -0.000781627 0.00205491 0.0103799 )  
( -0.000307778 -0.000358167 0.000161959 )  
( -0.00418999 0.0013101 0.00428685 )  
( -0.000612095 0.000358355 0.0101516 )  
( 0.000863217 0.00146642 0.0110093 )  
( -0.000429221 0.000186553 0.000480261 )  
( -0.000150965 6.31648e-05 -0.000115458 )  
( -0.000691874 0.00122101 0.00779496 )  
( -4.72967e-05 -3.42948e-07 -5.60123e-06 )  
( 7.45161e-05 0.000481088 -6.94397e-06 )  
( -0.00127665 0.000477053 0.0100873 )  
( -0.000212267 0.00119245 0.0107319 )  
( -0.000353219 -0.000324841 -0.000197378 )  
( -0.0013468 0.00105218 0.0106942 )  
( 0.00020801 0.000113169 3.1912e-05 )  
( 0.000339614 0.00177429 0.00855568 )  
( 0.00339527 0.00286378 0.0100452 )  
( 0.000524851 0.000626077 -5.99766e-05 )  
( -0.00155055 0.00120879 0.00834615 )  
( -0.000170697 0.00211397 0.0112978 )  
( -0.0014793 0.00066851 0.00616727 )  
( 0.000593743 0.000818619 -0.000933091 )  
( -0.000485425 0.00302007 0.0102784 )  
( -0.00120771 0.000776096 0.00795214 )  
( -0.00116325 0.00162405 0.00959321 )  
( 0.00150943 0.00119313 0.00061013 )  
( 0.000959356 0.000845322 0.000392698 )  
( 0.000205802 0.00144048 0.00740063 )  
( 4.36808e-05 9.59576e-05 -3.22247e-05 )  
( -0.000983928 -0.00093053 0.00862709 )  
( 7.76784e-05 0.00292108 0.00740832 )  
( -0.000856466 0.0022086 0.000854613 )  
( -0.000999737 0.00184811 0.00771543 )  
( 0.000430549 0.000127271 0.00906978 )  
( -0.000633755 0.00144854 0.00584883 )  
( -0.000952449 0.00118327 0.00821706 )  
( -0.00310183 0.00422519 0.00761393 )  
( -0.00050523 0.000717842 0.0062989 )  
( 0.0023104 0.00114708 -0.000383683 )  
( 5.76201e-05 -0.000151591 0.000264675 )  
( 0.00221515 -0.000384796 -5.69284e-05 )  
( -0.00014775 -0.000117439 0.00014168 )  
( -0.0016948 0.0016739 0.00989184 )  
( 0.00170785 0.000272136 0.00496516 )  
( -1.91017e-06 -0.000186788 0.00910817 )  
( -0.0018877 0.00151328 0.007041 )  
( -0.000129063 0.00111384 0.00842668 )  
( -0.00140026 0.00137619 0.00755893 )  
( 0.00132356 -0.000654343 -0.00097393 )  
( 0.00129337 0.00100442 0.000364979 )  
( 0.00387715 0.00282421 0.0112044 )  
( -0.00122754 -0.000987154 0.000199245 )  
( -0.000289424 -7.53218e-06 0.000459693 )  
( 0.000690397 0.000938567 0.00760312 )  
( 0.0025219 -0.000370174 0.00385675 )  
( -0.00116613 -0.000477588 -5.14826e-05 )  
( -0.00023104 0.00175227 0.00907113 )  
( 0.0017654 0.000290934 0.00641353 )  
( 0.000174811 0.00220979 0.00382279 )  
( -0.00149995 0.00119053 0.00484614 )  
( -0.000782482 0.000147731 0.00517313 )  
( -0.00333754 -0.000915099 0.00183652 )  
( -0.00113482 0.00113292 0.0110422 )  
( -7.90077e-07 -7.67706e-05 -9.85221e-05 )  
( -0.000745095 0.0012645 0.00845586 )  
( -0.000211726 8.99265e-05 0.00496759 )  
( -0.000432094 0.0022581 0.00982974 )  
( -0.00115176 0.00283009 0.00203441 )  
( 0.00028466 -1.72189e-05 9.46607e-06 )  
( -0.0010597 0.00161563 0.0102136 )  
( -0.00169392 -0.00102482 0.0059963 )  
( -0.000226037 0.000982033 -8.77209e-06 )  
( -0.00142334 -0.000892084 0.0103011 )  
( 0.000748025 0.000247566 0.00567744 )  
( -0.00350961 -3.78528e-05 0.00678687 )  
( 0.00246222 -0.000117012 0.00576944 )  
( -0.000796946 -0.000421569 0.000328322 )  
( -0.000609473 -0.000251485 -0.000466431 )  
( -0.00193562 0.00183639 0.010212 )  
( -3.55064e-05 -3.64264e-05 5.1957e-06 )  
( 0.000826332 0.00106988 0.00687417 )  
( -5.73771e-05 -0.000857165 0.00457611 )  
( 0.000184913 0.000716575 0.0130389 )  
( -0.000402615 -0.000886174 0.000510959 )  
( -0.0024901 0.00155456 0.00246986 )  
( -8.88099e-05 0.00215375 0.00927166 )  
( -0.00098908 0.00155275 0.0106499 )  
( -0.000539741 0.000321341 0.0113592 )  
( -0.00205124 -0.00125112 0.00892175 )  
( 0.000474143 -0.000726371 0.000337622 )  
( -4.22161e-05 -0.000350109 4.22324e-05 )  
( -7.78819e-05 5.75548e-06 -3.75451e-05 )  
( 0.000148728 6.18503e-05 -4.60319e-05 )  
( -3.0396e-05 0.000423737 -3.09014e-06 )  
( -0.000132396 -0.000212734 -0.000117536 )  
( 0.00130018 0.00170402 0.00684683 )  
( -0.000461456 0.000941169 0.00906126 )  
( 0.00108951 -0.000171849 0.0042863 )  
( -0.000282789 0.00105483 0.00964614 )  
( 0.000325867 -1.86401e-05 -0.000420804 )  
( -0.00248741 0.00201552 0.00825162 )  
( 0.00343259 0.00155023 0.00618163 )  
( -0.000740996 0.00315087 0.00908887 )  
( 0.00168586 0.000529656 0.000561034 )  
( -0.000695473 0.00122595 0.00798281 )  
( -7.49948e-05 -0.000197525 -0.000247312 )  
( -0.00022613 -0.000585379 -0.000274467 )  
( 0.000722287 0.00025444 0.00724148 )  
( 0.000203032 8.03459e-05 3.0245e-06 )  
( -0.00016208 0.00132405 0.00738786 )  
( -0.000105584 7.33822e-05 0.00844022 )  
( -0.000956912 0.000948272 0.00990469 )  
( -0.00123069 0.00096399 0.00165879 )  
( 0.000762219 0.000641107 0.00942996 )  
( 0.000229477 0.00146408 0.000524508 )  
( -0.00037559 -0.000516432 -0.000147484 )  
( 0.000438405 0.00118883 0.006143 )  
( -0.00256132 0.0028934 0.00482827 )  
( -0.00240648 -0.000115299 0.00725991 )  
( 0.000792604 -0.000588262 0.00811289 )  
( 0.00358159 0.00122917 0.00885802 )  
( -0.000889069 0.0013714 0.00816424 )  
( 0.000661771 -0.00141107 0.00780868 )  
( -0.000114748 -0.000132794 0.00487851 )  
( 0.000335406 0.000640878 -0.000376848 )  
( 0.000376744 0.00131069 0.00864249 )  
( -0.00165512 -0.00144435 0.00861248 )  
( -0.000454384 -0.000621768 -0.000542253 )  
( -0.00123448 -0.000240565 -1.3114e-05 )  
( -0.00150829 0.000821384 0.00970454 )  
( -6.70909e-06 -1.37256e-05 2.11143e-06 )  
( -0.000122897 -0.000488579 0.000119106 )  
( 0.00192027 0.000830295 0.00498309 )  
( 0.000690853 0.00112333 0.0084482 )  
( 0.000176671 0.00184501 0.007051 )  
( -0.00221732 -0.00259013 0.0118433 )  
( -0.000687334 -0.000868459 0.000405342 )  
( -0.00102104 0.00393052 0.00715562 )  
( -5.28363e-05 0.0019445 0.00861113 )  
( -5.69009e-06 0.000721033 0.00908627 )  
( -0.000506873 0.00165597 0.00610103 )  
( -0.00252497 0.00406893 0.00871394 )  
( 0.000933651 -1.60928e-05 0.00575869 )  
( 0.000118912 -0.00103429 0.00648128 )  
( 0.00256564 0.00377052 0.00804396 )  
( -0.00271936 -0.0018483 -0.00303742 )  
( -0.000553741 0.000397568 0.010576 )  
( 1.91019e-05 0.00228297 0.00508566 )  
( -0.000362332 -0.000720801 0.00472888 )  
( -0.00244382 0.000955455 0.00393656 )  
( -0.000514673 -0.00100563 -4.13617e-05 )  
( -0.000101912 0.00128697 0.00852386 )  
( -0.000145524 -0.000806742 -0.00059583 )  
( -0.000897517 0.000482318 1.16519e-05 )  
( -0.00304944 -0.000649181 0.00232712 )  
( -0.00157132 0.00174613 0.0100001 )  
( 0.00155667 0.000686724 0.00811645 )  
( -0.000561626 0.000813081 0.00056516 )  
( 0.00107864 -1.42837e-05 -0.000972019 )  
( -0.000870004 0.001768 0.00958761 )  
( -0.00228715 0.00305301 0.00115182 )  
( -0.000198119 0.00285033 0.00757944 )  
( 0.00220957 0.000464588 0.00310154 )  
( -0.000275803 0.00271585 0.00982426 )  
( 9.68114e-05 -0.000139792 0.00859747 )  
( 0.000151273 0.000260103 2.1732e-05 )  
( -0.00256788 0.00226723 0.00963186 )  
( 6.87554e-05 0.00175322 0.00880781 )  
( 0.000580384 0.000220785 0.00832565 )  
( -4.5699e-05 0.0020073 0.00994273 )  
( -1.05856e-05 0.000328811 0.00238149 )  
( -5.91662e-05 0.00135959 0.0110727 )  
( -7.47578e-05 -8.71439e-05 3.52852e-05 )  
( -0.00128653 0.0024235 0.0114534 )  
( -0.00113087 0.00159699 0.00808584 )  
( -0.000967515 0.00095578 0.00751919 )  
( -0.000207226 -0.000272183 -7.58578e-05 )  
( 0.00458876 0.00150052 0.00947794 )  
( -0.000752361 0.000694311 0.00848018 )  
( -0.000740086 0.000952972 0.0117353 )  
( -8.85046e-05 0.0011825 0.0119468 )  
( 8.37113e-05 0.000847425 0.0103331 )  
( 0.000751199 0.000940179 0.00205395 )  
( 1.09471e-05 9.63744e-05 -3.3341e-06 )  
( -0.000519304 0.00363062 0.00127906 )  
( 0.000805201 -0.00102485 0.00384472 )  
( 0.00328278 -0.00132525 -0.000548271 )  
( -0.00241161 0.000851116 0.00750851 )  
( -0.000343988 -0.000479655 0.000939592 )  
( 0.000962974 -8.3285e-05 0.0110251 )  
( -0.000717702 0.000461564 0.00866629 )  
( 0.000247637 0.00182097 0.00827195 )  
( -0.000416742 0.000552342 -5.2114e-05 )  
( 0.000485111 0.00163294 0.00807214 )  
( 0.00271062 0.00190516 0.00630995 )  
( -0.000371154 -0.000163924 -0.000657805 )  
( 0.000813248 -0.000192339 3.05587e-05 )  
( -0.000787317 0.0017252 0.00989027 )  
( -0.000110931 0.00112784 0.00218204 )  
( 0.00135531 -0.000595383 -0.00127761 )  
( -0.00232193 -0.000990408 0.00818525 )  
( 0.00145339 0.000264249 0.00720341 )  
( -6.94234e-05 -2.3148e-07 -0.000390727 )  
( 0.000243568 0.00086299 0.0074013 )  
( -0.00114495 0.00142108 0.0120506 )  
( -0.00189003 0.00353494 0.00302166 )  
( -0.000500789 0.000359578 0.00400055 )  
( -0.000278645 0.00140275 0.0105449 )  
( -0.00113178 -0.000391198 0.00563138 )  
( -0.00118099 0.00154098 0.0129877 )  
( -0.000424439 -0.000578069 -0.00064988 )  
( -0.000695068 0.00206428 0.0105726 )  
( -0.00340236 -0.00024559 0.0100929 )  
( 0.00109265 0.000900672 0.0104299 )  
( -0.000483378 0.00238072 0.0105093 )  
( 0.00136605 0.00152534 0.00820166 )  
( 0.00272314 -0.00167689 0.00304831 )  
( -0.00459233 0.00101992 0.00946992 )  
( 0.000646849 0.000772528 0.000211296 )  
( -0.000874372 -0.000533147 0.00584779 )  
( -0.000728123 0.00021048 0.00847429 )  
( -0.00176441 0.00151683 0.00863245 )  
( -0.00211288 0.000941841 0.00684821 )  
( -0.000784128 0.00342425 0.010045 )  
( 0.000507244 0.00191146 0.0067758 )  
( -0.00286147 0.00179246 0.000483684 )  
( -0.00202481 0.00127271 0.00715573 )  
( -7.73572e-05 -0.000135894 0.000118976 )  
( 0.00116898 -0.00071873 0.000278005 )  
( -0.000653073 0.00165986 0.0100116 )  
( -0.00559537 0.0031798 0.0112231 )  
( -8.05931e-05 0.00251348 0.00707077 )  
( 0.00116863 0.000720781 0.00716248 )  
( -0.00094193 0.00331212 0.00640203 )  
( -0.000959496 0.00116203 0.00266199 )  
( 0.00180634 0.000744965 0.005619 )  
( -0.000449749 0.00116113 0.00848541 )  
( -0.00220762 0.00134219 0.00497152 )  
( 0.000996552 0.000296434 0.00614182 )  
( 0.000655521 -0.00166252 0.00737788 )  
( 0.00330587 -0.00190973 0.00619425 )  
( 0.000116442 0.000731376 0.00711409 )  
( 0.000101002 9.28056e-05 7.98878e-05 )  
( -0.00102565 -2.64373e-05 5.0863e-05 )  
( -0.000142122 -0.00146642 0.00992656 )  
( -3.13774e-05 -0.000194332 -0.000102426 )  
( -0.00045568 0.000902825 -3.27081e-05 )  
( 0.000476797 0.00122233 0.00758091 )  
( 0.00021034 0.00105974 0.0105792 )  
( 0.000639908 0.00222002 0.0077862 )  
( -0.000449681 0.000764853 0.00929613 )  
( -0.000193956 -4.22915e-06 -0.000123876 )  
( 0.00107561 0.00134274 0.0075538 )  
( 0.00157782 0.000240336 -0.000117913 )  
( -0.00194308 0.000936836 0.0102346 )  
( 0.000304214 0.0016145 0.0079645 )  
( -0.00388187 0.00349559 0.00619343 )  
( 0.0021301 0.00128926 0.00819396 )  
( 0.000321089 0.00101775 0.0056612 )  
( -0.000172817 -9.87829e-05 -7.41423e-05 )  
( 9.07503e-05 0.00087067 0.000323023 )  
( -0.000597274 0.00115077 0.0069187 )  
( 7.12062e-05 0.000881082 0.00534451 )  
( -0.000604344 0.00161329 0.00718128 )  
( 0.00149831 0.000105534 0.000293816 )  
( -4.99851e-06 -0.00233668 0.00661773 )  
( 0.000196644 0.000548531 -9.48075e-05 )  
( -2.96819e-05 0.000166157 0.00613568 )  
( -4.56445e-05 0.00180361 0.00852534 )  
( -0.00129551 -0.000461487 0.0103153 )  
( -0.000447397 0.000233041 -0.000394031 )  
( 0.00016757 0.000294069 -2.42036e-05 )  
( 0.00197722 0.00131505 0.00831223 )  
( -4.43897e-05 -0.000234835 -6.43777e-05 )  
( 0.00276766 0.00402074 0.00588617 )  
( 0.000165102 0.000187237 1.84408e-05 )  
( -0.000315223 -0.000267511 -2.04285e-05 )  
( -0.0027959 0.00190933 0.00809748 )  
( -0.00224807 0.00245524 0.00710145 )  
( -0.000962439 0.00020413 0.0136894 )  
( -5.47436e-05 -4.92223e-05 -5.26311e-05 )  
( -0.00317058 0.000756357 0.00561085 )  
( -0.000789265 -0.000332454 -0.000413732 )  
( -0.000813847 0.000474255 0.00926082 )  
( 0.000452667 0.000225691 -1.91089e-05 )  
( -0.000288434 0.00104909 0.00732755 )  
( 0.00213789 0.000371968 -3.27022e-05 )  
( 0.00229645 0.0068267 0.0139228 )  
( -0.00108966 0.000123828 0.0113572 )  
( -0.00161994 0.00300833 0.0106586 )  
( -0.000113742 6.41665e-05 -5.89314e-05 )  
( -0.00148183 0.00107741 0.00642479 )  
( -0.00186467 0.00111 0.00676688 )  
( -0.00241546 0.00155575 0.010524 )  
( 0.00120836 0.000900405 0.00607738 )  
( -4.46534e-05 0.00234817 0.00936704 )  
( 0.00275371 0.00253274 0.0103615 )  
( 0.00143007 0.00264347 -8.52915e-07 )  
( 0.00244921 -0.00253878 0.000374773 )  
( 0.00031429 0.00154206 0.00861193 )  
( -0.00230776 0.000167096 0.00863889 )  
( 0.000201648 0.00328233 0.00570207 )  
( 0.000521835 -0.000138935 0.000464493 )  
( -0.0021888 0.00133051 0.00561258 )  
( 0.000423709 0.00113258 0.00127987 )  
( 0.0031696 0.000252142 -0.00260739 )  
( -0.000684351 0.00197906 0.010657 )  
( 0.000803639 0.000212463 0.0115501 )  
( 0.00193458 0.00105027 0.00914714 )  
( -0.000742613 -0.000262152 0.0113004 )  
( 0.00284725 -0.000125998 -0.00081026 )  
( 0.00163813 0.00110731 0.00851374 )  
( 0.000240621 -0.000503667 1.46624e-05 )  
( -0.000135468 -8.34948e-05 -0.000149058 )  
( -0.00116316 0.000120791 0.00864604 )  
( -0.00360149 0.00176908 0.0104432 )  
( -0.000312562 0.000521648 0.00870124 )  
( 0.000348428 -0.000106916 5.81777e-05 )  
( 0.00120009 0.0017474 0.00949385 )  
( -0.00122541 0.00444372 0.00191086 )  
( 0.00359368 0.00110925 0.00218841 )  
( -0.000579387 0.0016702 0.00833827 )  
( -0.000652495 -1.99885e-05 0.000571923 )  
( -0.000151827 -0.000100592 3.87139e-05 )  
( 0.000421925 0.00167235 0.0101687 )  
( -0.000349811 -0.000145137 6.01592e-05 )  
( -0.000685339 -0.000687808 0.0114474 )  
( -0.000177011 -0.000845362 0.000105074 )  
( 0.000643136 -0.000204836 5.82105e-05 )  
( -0.000361578 0.000520683 -0.000958227 )  
( -0.000428357 0.00172164 0.00621855 )  
( 0.00174368 -0.000925348 -0.000771275 )  
( 0.00167931 0.00134642 0.0095513 )  
( -0.000643148 -0.000832741 0.00945382 )  
( 0.000292518 0.00173709 0.00696755 )  
( -9.15901e-05 4.72663e-05 -0.000143769 )  
( 0.00291582 0.000292341 0.00608139 )  
( -0.000745659 0.000301626 0.00916111 )  
( -0.00102039 0.00277312 0.0100703 )  
( -0.000489445 0.000618458 0.00918999 )  
( 0.000466988 0.000800593 0.00224129 )  
( -0.000958198 0.000181391 0.00540281 )  
( 2.8301e-05 -0.000199041 0.00907306 )  
( -0.000514673 0.000219822 0.00948491 )  
( 0.00151819 0.00128024 0.00257622 )  
( 0.00356796 -0.000424976 0.00632245 )  
( -0.00158943 0.0004999 0.00180842 )  
( 0.000700431 0.000598056 -0.000393681 )  
( -0.00079181 -0.000441666 0.00522512 )  
( -0.00280336 0.00265441 0.00119275 )  
( -0.000563224 0.00176862 0.0129747 )  
( 0.000476495 0.00138422 0.0105713 )  
( -0.000180763 0.000229443 -1.4182e-06 )  
( 0.00272886 0.00166986 0.00617716 )  
( 0.00231811 0.0015249 0.0101227 )  
( -0.000103584 5.96686e-05 9.93605e-05 )  
( -0.0010841 -0.000434365 0.000511858 )  
( 0.000652349 0.00128427 0.00770036 )  
( -0.00057271 2.658e-05 0.00970762 )  
( 0.00246938 0.000445769 0.00586131 )  
( -7.81305e-05 6.31717e-05 5.34585e-05 )  
( -0.000143235 0.00260286 0.00736698 )  
( -0.000149926 0.00137883 0.00723179 )  
( -0.00187667 -0.0010875 0.000564204 )  
( 0.000786884 0.00137951 0.00853561 )  
( -0.00108229 -0.000496139 0.0116091 )  
( 0.000204483 0.000521474 0.00619197 )  
( -0.00204507 0.000390796 0.00190339 )  
( -0.000104662 0.0009826 -0.000724883 )  
( -3.67532e-05 -0.000836084 0.0049842 )  
( -2.79803e-05 0.000159734 -0.000129391 )  
( -0.00064423 5.76083e-05 0.008393 )  
( 0.00165434 0.000803823 0.00905051 )  
( 0.00079771 0.00186809 0.011658 )  
( -4.18537e-05 0.000239222 3.10628e-05 )  
( -0.00210708 0.00218616 0.00870672 )  
( 7.86733e-05 0.0022007 0.00186416 )  
( -0.0020157 0.000490443 0.00781314 )  
( -0.00165694 0.00166752 0.00372358 )  
( -0.00057675 0.00453184 0.00544037 )  
( 0.00160728 0.00380777 0.010098 )  
( -0.000371749 0.000542519 0.0105211 )  
( 0.000208908 0.00040489 -1.05862e-05 )  
( 6.12289e-05 0.000411112 -5.57513e-05 )  
( -0.0013851 0.0028399 0.00900864 )  
( 0.000479941 -0.000395704 0.00915203 )  
( -0.000928216 0.000485453 -0.00078343 )  
( 0.000479103 0.00242439 0.0074858 )  
( 0.00165108 -0.000234569 -0.000115922 )  
( 1.3067e-05 0.000130843 2.44584e-05 )  
( -0.000758452 0.00158736 0.00979156 )  
( -0.000393482 -0.000184239 5.88428e-05 )  
( 0.000510003 0.00260069 0.0128547 )  
( 0.000112789 0.00300857 0.0139844 )  
( -0.000182979 0.00270993 0.0069451 )  
( 0.00255579 -0.000434158 -5.3418e-05 )  
( 0.00107331 0.00288212 0.00555651 )  
( 0.000171593 -4.89219e-07 -3.43415e-07 )  
( -0.00154668 0.000572465 0.000723284 )  
( 0.000898047 0.00245154 0.00806211 )  
( -0.00198139 0.00286773 0.00785674 )  
( -0.00041487 0.00209077 0.00726387 )  
( 0.000963578 0.000240985 -0.000495754 )  
( -5.50742e-05 -5.72161e-05 -6.54703e-05 )  
( 5.76372e-06 -0.000120232 0.000144178 )  
( -0.00102837 0.00133762 0.00746384 )  
( -0.00074875 0.00133343 0.0060838 )  
( -0.000439722 1.89636e-05 -4.89989e-05 )  
( -0.000360304 0.000549796 -1.59692e-05 )  
( -0.00027496 0.000808649 0.0101362 )  
( 0.00113267 0.00439528 0.010027 )  
( 0.00087996 0.000766112 0.0105262 )  
( 0.000802735 0.00482845 0.0105572 )  
( -0.000330764 -0.00027085 0.000263528 )  
( -6.49327e-05 5.76498e-06 -8.93451e-06 )  
( -0.000109312 0.0011315 0.0012204 )  
( -0.00224414 0.00134085 0.0080821 )  
( -0.000181247 0.0013831 0.00776403 )  
( 0.000923535 -0.00115608 0.000192243 )  
( -0.000577558 0.00124337 0.00818507 )  
( 8.58639e-06 -0.000906701 0.00995117 )  
( -0.000764526 0.00347048 0.00887364 )  
( -0.000367191 -0.000378126 0.000467304 )  
( -0.00266212 0.00108028 0.00279539 )  
( 0.0039298 -0.00473455 -0.00662068 )  
( -0.00188008 0.00103381 0.00143897 )  
( 0.00168183 0.00114709 0.0105905 )  
( -0.00272895 0.00224686 -0.000311404 )  
( 0.000923206 -0.00151548 0.0119893 )  
( 0.000639607 0.00245904 0.00852377 )  
( -0.00011694 0.00216922 0.00722153 )  
( -0.00182044 0.000341447 0.0101789 )  
( -0.000264 0.00228883 0.0123379 )  
( 0.000321661 -9.76974e-05 0.0005932 )  
( -0.00139512 -0.000946159 0.0124494 )  
( 0.000567033 -0.00383447 0.0105468 )  
( -0.000253103 -0.00165474 0.0107798 )  
( -0.000441913 -0.000420223 0.0104342 )  
( -0.00114437 0.000840541 0.00857068 )  
( -0.000716691 0.000222671 0.0108587 )  
( 3.32821e-05 7.16753e-05 9.39392e-05 )  
( 0.000168936 0.00106645 0.0107018 )  
( -0.000429332 0.000576672 0.000213383 )  
( -0.00292304 0.00192856 0.00293242 )  
( 0.000105248 0.00112228 0.00431022 )  
( 0.000262111 0.000227917 -1.97825e-05 )  
( -0.000473253 0.00277917 0.0105627 )  
( -0.00022362 0.00120418 0.00431899 )  
( 0.00111382 0.00132916 0.00959547 )  
( -0.000803295 -0.000736324 0.000168109 )  
( -0.00148876 0.000770127 0.0118746 )  
( -0.000553536 -0.000482381 0.00784139 )  
( -0.00100112 0.00158044 0.000783235 )  
( -0.00100883 0.00217997 0.00098268 )  
( -0.00038327 0.00177421 0.00965221 )  
( -9.17809e-07 0.0026055 0.00960533 )  
( 0.000121576 -1.40022e-05 -2.01573e-05 )  
( 0.000891361 0.00282267 -0.000699901 )  
( 0.00258086 0.000227583 0.00622947 )  
( 0.000682896 0.00130703 0.00850925 )  
( -0.000186321 0.000212198 0.000191518 )  
( -0.000196969 0.00174778 0.00898272 )  
( -0.00100692 -0.00107458 0.00745133 )  
( -7.59923e-05 -3.2099e-05 -8.92446e-05 )  
( -0.00376393 0.000546869 -0.002428 )  
( 0.00372749 0.00317328 0.00907281 )  
( -0.000212287 0.00121279 0.00847517 )  
( -0.00321544 -0.00215685 0.00322069 )  
( 0.000898611 0.00075659 0.0116926 )  
( -0.000660255 0.00358607 0.00962622 )  
( -0.00112498 0.00261281 0.0101739 )  
( 0.00205724 0.000964567 0.000140228 )  
( 0.000387797 0.00190585 0.00811584 )  
( -0.000292427 -0.000268756 -0.000476701 )  
( -0.000206861 0.000366705 0.000115153 )  
( -0.00198162 0.00195493 0.00752396 )  
( -0.000676972 0.00204895 0.00822208 )  
( 0.000245197 0.000159948 -5.64582e-05 )  
( -0.000103997 -6.19861e-05 -9.1609e-05 )  
( -8.41535e-05 0.00231718 0.00724674 )  
( -0.000957763 -0.000221299 -4.50212e-05 )  
( -0.000818281 6.17969e-05 0.00983358 )  
( 0.0011467 0.000501007 0.00857386 )  
( -0.00154636 0.00144842 0.00910107 )  
( 0.00132456 0.00201113 0.00925452 )  
( 0.00221165 0.00232161 0.000326689 )  
( -7.62964e-05 0.00135596 0.00759556 )  
( -0.000350509 -0.000109651 -4.39006e-05 )  
( -0.000625615 0.00237056 0.00779634 )  
( 0.000427461 0.000402222 6.0466e-05 )  
( 0.000641242 0.000711098 1.60887e-05 )  
( -0.000204709 0.000565302 0.00741605 )  
( 0.000336038 -1.41308e-05 9.69787e-05 )  
( -0.00123654 0.00135508 0.00804222 )  
( -0.00224406 -0.000929475 0.0051184 )  
( 0.000181277 -0.000674589 -4.68809e-07 )  
( -0.00139132 0.0012794 -0.000260735 )  
( 5.32518e-05 -6.91131e-06 -1.62108e-05 )  
( -0.00105339 -0.000300265 0.000363219 )  
( 0.00158332 0.00231336 0.0119962 )  
( -0.000395534 -0.000172442 0.000242973 )  
( 0.00159064 0.00111712 0.0117578 )  
( 0.00114861 -7.10446e-05 -0.000886067 )  
( -0.00209631 0.00153955 0.000104024 )  
( 0.00292422 0.000516436 -0.00255876 )  
( 0.00167601 0.00077095 0.00668256 )  
( 0.000117913 0.00199637 0.00960684 )  
( 0.000327674 -0.00107306 5.30894e-05 )  
( 4.72421e-05 -6.7368e-05 -2.37257e-05 )  
( -0.00292433 0.00119851 -0.00284457 )  
( -4.67773e-05 -3.18885e-05 -8.58924e-05 )  
( -0.000376941 -0.000625101 0.0049435 )  
( -0.00364605 0.000322989 -0.0010795 )  
( -0.00119368 0.00383246 0.0102117 )  
( -0.00288635 0.00288231 0.00960468 )  
( -1.4059e-05 0.000887079 0.00899459 )  
( 6.26974e-05 0.000889254 0.000285833 )  
( -7.60329e-06 0.00159134 0.00801679 )  
( 0.000686559 0.000190391 0.00753373 )  
( 0.00106533 -0.000664057 0.0105857 )  
( 0.00104928 0.00032538 0.00710203 )  
( -0.002437 0.00392701 0.0119879 )  
( -0.00333786 0.000267696 0.00486828 )  
( -0.000661923 0.000999254 0.00949334 )  
( -0.00169406 0.0011194 0.00595157 )  
( -0.000828746 0.0023177 0.011704 )  
( 0.00109529 0.000716587 0.0103773 )  
( -0.00137306 0.000697786 0.0115051 )  
( 0.00189486 0.00250113 0.00609879 )  
( -0.00421053 0.0010697 -0.00466906 )  
( -0.000714473 0.000640597 0.00523248 )  
( -0.000654406 0.000215851 0.01003 )  
( 0.00124932 0.000752593 0.0091652 )  
( -0.000609363 0.00262725 0.00885358 )  
( 0.000777846 0.0017892 0.00904375 )  
( 0.000678589 0.00186391 0.00718162 )  
( -0.00176817 0.00202625 0.0124343 )  
( -0.000163793 0.00222851 0.00683986 )  
( 0.00263647 0.000857317 -0.00074909 )  
( 2.54161e-05 0.000397429 -2.06024e-06 )  
( -0.000727304 0.0015676 0.00849812 )  
( -0.000604435 0.00221416 0.00807182 )  
( -0.00343224 0.00203536 0.000389999 )  
( 0.00335997 -0.00197789 0.00848988 )  
( 0.000579782 0.000297329 0.00818844 )  
( 2.0257e-05 0.00147864 0.00834389 )  
( -0.000902005 0.00191553 0.0100731 )  
( -0.000354273 -0.00151504 0.011328 )  
( 0.00125226 0.00234632 0.00109803 )  
( -0.000376306 0.000900621 0.00796711 )  
( 0.00410282 -0.00018808 0.0127423 )  
( 0.000744766 0.00124489 0.00718459 )  
( -0.00177894 0.000386795 0.0131348 )  
( -0.00238563 0.000865397 0.010847 )  
( -0.000390705 -0.00014857 -0.000402616 )  
( 0.000207604 8.97937e-05 0.00791532 )  
( -0.000225215 -0.000137398 -0.000692114 )  
( 0.00113298 0.00102175 0.00767276 )  
( 0.00132838 -0.00129867 0.000164208 )  
( 0.000454793 -0.00107395 -0.00105191 )  
( 0.000183233 -0.00131886 -0.000802605 )  
( 0.000451973 0.000553598 0.000255008 )  
( 0.000973053 0.00107034 0.0132148 )  
( -0.00101059 0.000382564 -8.77997e-06 )  
( 0.000747142 0.000231537 -0.000789949 )  
( -0.0025625 0.00369199 0.00041085 )  
( -0.00175725 0.000831503 0.00827918 )  
( 0.000678905 0.000262278 -0.000241715 )  
( 0.00146035 0.00485954 0.00377378 )  
( -0.000832124 -1.61659e-05 -0.000888556 )  
( -0.000292292 -0.000518193 0.000187005 )  
( 5.70882e-05 0.000217643 0.00912558 )  
( 0.000248311 3.81516e-05 0.00965313 )  
( -0.0018168 0.00217485 0.00321012 )  
( -2.98385e-05 2.77899e-05 4.37772e-05 )  
( 0.00111709 7.71619e-05 0.00464108 )  
( -0.000921282 0.000675801 0.0100431 )  
( 0.00277829 0.00139342 0.00224861 )  
( -0.000304808 0.000191476 0.000141996 )  
( -6.50471e-05 -0.000944769 0.00992686 )  
( -0.00197534 0.00173883 0.0110326 )  
( 0.00032283 -0.000720854 0.0101691 )  
( 0.00157346 0.00213444 0.00938421 )  
( 0.000259311 0.00203826 0.00858284 )  
( 0.00386497 -0.000603987 0.000705505 )  
( -0.000803663 -8.6586e-05 0.00941406 )  
( 0.000670771 0.00130479 0.00760559 )  
( -0.000316101 -0.000407912 0.00802034 )  
( 0.00026184 -3.22862e-06 -0.000112193 )  
( 0.000125894 -9.36279e-05 -0.000168167 )  
( 5.6307e-05 -1.98749e-05 7.65178e-05 )  
( 0.000871883 0.00145148 0.00467994 )  
( -0.000711985 0.000929683 0.0114662 )  
( -0.000724527 0.000512485 -1.23418e-05 )  
( -0.00189886 0.0010054 0.000422487 )  
( -0.000517724 -0.000584558 -6.23503e-05 )  
( -7.22199e-05 0.000699778 0.0106945 )  
( 0.00293032 0.00463947 0.0108459 )  
( -0.00084108 0.0013159 0.00840132 )  
( -0.000821545 -4.27572e-06 0.0106638 )  
( 0.000211774 -2.59495e-05 -1.20763e-05 )  
( 0.000425223 0.000322984 0.0111183 )  
( 0.000903174 0.000475278 0.00515346 )  
( 0.00120393 -0.00252034 0.0125201 )  
( -0.00178809 0.000124585 0.00202618 )  
( -0.00151685 0.00092984 0.00859481 )  
( -0.000339294 0.000913414 0.00461639 )  
( 0.000523109 -0.001274 0.00815635 )  
( -0.000868566 0.000775758 0.00912836 )  
( -3.82229e-05 -0.000525908 0.00774292 )  
( 0.000902627 -0.000107692 -1.34936e-05 )  
( 0.00109167 -0.000816694 -0.000383946 )  
( 0.000302772 -0.000303136 -0.000282336 )  
( -0.000624848 0.00143697 0.0139612 )  
( 0.000473259 0.000732469 0.00761804 )  
( -0.000516207 -0.001273 -0.000274002 )  
( 0.000698298 -0.00119769 2.01105e-05 )  
( 0.000274642 0.00093999 -0.000122903 )  
( -0.00320607 0.00243349 0.00816663 )  
( -0.00108415 0.00189689 0.0109327 )  
( -0.00287044 0.00176343 0.00810638 )  
( 0.00100447 -0.00189653 -0.0034465 )  
( -0.00177665 -0.00176265 0.000247244 )  
( 0.00158045 -0.000286659 -7.7738e-05 )  
( -0.000445444 0.000383794 -6.46437e-08 )  
( 0.00266145 0.00222719 0.00976432 )  
( -0.00168501 0.00181223 0.0108416 )  
( 0.00222442 0.000979578 0.00303207 )  