/*--------------------------------*- C++ -*----------------------------------*\
| =========                 |                                                 |
| \\      /  F ield         | OpenFOAM: The Open Source CFD Toolbox           |
|  \\    /   O peration     | Version:  2506                                  |
|   \\  /    A nd           | Website:  www.openfoam.com                      |
|    \\/     M anipulation  |                                                 |
\*---------------------------------------------------------------------------*/
FoamFile
{
    version     2.0;
    format      ascii;
    arch        "LSB;label=32;scalar=64";
    class       volScalarField;
    location    "0.02";
    object      p;
}
// * * * * * * * * * * * * * * * * * * * * * * * * * * * * * * * * * * * * * //

dimensions      [0 2 -2 0 0 0 0];

internalField   nonuniform List<scalar> 
1152
(
8.64825
8.5925
8.58873
8.70583
8.60503
8.5923
8.66892
8.68173
8.59869
8.58113
8.56408
8.61775
8.59134
8.55664
8.58112
8.62016
7.52865
7.56707
7.60496
7.55986
7.588
7.60296
7.49877
7.45813
7.64205
7.59467
7.60821
7.45139
7.60202
7.69547
7.66024
7.61615
5.94101
5.96787
6.18132
5.63498
5.82065
6.05304
5.8746
5.78291
6.01078
6.03879
6.03768
5.70606
6.03035
5.89402
5.91667
5.55371
4.37059
4.38636
4.36285
4.37239
4.30822
4.27392
4.33738
4.30136
4.27782
4.28962
4.31512
4.01226
4.10726
4.37504
4.27014
4.12793
2.80571
2.7076
2.6092
2.7343
2.82598
2.71741
2.79685
2.74148
2.60226
2.67919
2.8174
2.81892
2.62878
2.82693
2.89115
2.96017
1.16746
1.2567
1.28678
1.35528
1.1736
1.26894
1.37999
1.44085
1.22269
1.31487
1.35135
1.40411
1.2369
1.35643
1.48674
1.54388
1.00834
1.01133
1.01091
1.01077
1.01287
1.01178
1.0104
1.00602
1.00976
1.01152
1.00796
1.02102
1.01196
1.00805
1.00694
1.01746
1.00479
1.00491
1.00488
1.0049
1.00503
1.00494
1.00488
1.00479
1.00484
1.00491
1.00493
1.00533
1.00499
1.0048
1.00499
1.00498
1.00757
1.00765
1.00754
1.00753
1.00757
1.0076
1.00746
1.00738
1.00743
1.00758
1.00748
1.00804
1.00751
1.00741
1.0073
1.00768
1.00621
1.00625
1.00624
1.00626
1.00622
1.00623
1.0062
1.00621
1.00619
1.00621
1.00619
1.00634
1.00619
1.00616
1.00612
1.0062
1.00603
1.00604
1.00603
1.00605
1.00601
1.00601
1.00601
1.00603
1.00599
1.006
1.006
1.00606
1.00597
1.00597
1.00597
1.00601
1.00556
1.00557
1.00558
1.00559
1.00555
1.00556
1.00557
1.00559
1.00554
1.00555
1.00556
1.00559
1.00553
1.00554
1.00555
1.00558
1.00513
1.00513
1.00514
1.00516
1.00512
1.00513
1.00514
1.00515
1.00511
1.00512
1.00514
1.00515
1.00511
1.00512
1.00513
1.00515
1.00469
1.0047
1.00471
1.00472
1.00469
1.00469
1.0047
1.00472
1.00468
1.00469
1.0047
1.00472
1.00468
1.00469
1.0047
1.00472
1.00425
1.00426
1.00427
1.00428
1.00425
1.00426
1.00426
1.00428
1.00425
1.00425
1.00426
1.00428
1.00424
1.00425
1.00426
1.00428
1.00381
1.00382
1.00382
1.00383
1.00381
1.00381
1.00382
1.00383
1.00381
1.00381
1.00382
1.00383
1.00381
1.00381
1.00382
1.00383
1.00337
1.00337
1.00338
1.00338
1.00336
1.00337
1.00338
1.00338
1.00336
1.00337
1.00337
1.00338
1.00336
1.00337
1.00337
1.00338
1.00292
1.00292
1.00293
1.00293
1.00292
1.00292
1.00293
1.00293
1.00292
1.00292
1.00293
1.00293
1.00292
1.00292
1.00293
1.00293
1.00247
1.00248
1.00248
1.00248
1.00247
1.00248
1.00248
1.00248
1.00247
1.00248
1.00248
1.00248
1.00247
1.00248
1.00248
1.00248
1.00203
1.00203
1.00203
1.00203
1.00203
1.00203
1.00203
1.00203
1.00202
1.00203
1.00203
1.00203
1.00202
1.00203
1.00203
1.00203
1.00158
1.00158
1.00158
1.00158
1.00158
1.00158
1.00158
1.00158
1.00158
1.00158
1.00158
1.00158
1.00158
1.00158
1.00158
1.00158
1.00113
1.00113
1.00113
1.00113
1.00113
1.00113
1.00113
1.00113
1.00113
1.00113
1.00113
1.00113
1.00113
1.00113
1.00113
1.00113
1.00068
1.00068
1.00068
1.00068
1.00068
1.00068
1.00068
1.00068
1.00068
1.00068
1.00068
1.00068
1.00068
1.00068
1.00068
1.00068
1.00023
1.00023
1.00023
1.00023
1.00023
1.00023
1.00023
1.00023
1.00023
1.00023
1.00023
1.00023
1.00023
1.00023
1.00023
1.00023
8.48351
8.52313
8.55522
8.58809
8.66337
8.56435
8.57472
8.57953
8.6106
8.58602
8.61765
8.64851
8.6904
8.62144
8.58127
8.57637
7.39376
7.46196
7.56644
7.54487
7.31308
7.45558
7.55565
7.51072
7.47174
7.58138
7.51556
7.54932
7.49057
7.52599
7.64555
7.56677
6.02936
6.00874
5.94506
5.93669
5.93153
5.89533
5.88971
5.87264
5.81924
5.7937
5.80715
5.88788
5.77517
5.97152
5.98283
5.9291
4.37796
4.44552
4.35662
4.49139
4.51492
4.39423
4.37058
4.39577
4.16683
4.27807
4.2596
4.23773
4.16198
4.14317
4.13716
4.33398
2.81909
2.81046
2.73105
2.59176
2.72689
2.7996
2.68291
2.69535
2.71214
2.66177
2.71011
2.62503
2.61242
2.55104
2.5531
2.57805
1.34574
1.2182
1.19929
1.17834
1.37927
1.19518
1.16767
1.15749
1.20035
1.10143
1.12204
1.18139
1.28226
1.19694
1.14333
1.20504
1.01065
1.00998
1.01433
1.01382
1.01267
1.0134
1.0108
1.01304
1.01396
1.01191
1.00653
1.0052
1.00959
1.01142
1.01216
1.00805
1.00461
1.00458
1.00486
1.00499
1.00333
1.00452
1.00482
1.00516
1.00505
1.00544
1.00501
1.00499
1.00476
1.00471
1.00514
1.00516
1.00789
1.00784
1.00782
1.00773
1.00785
1.00785
1.00762
1.00752
1.00774
1.00762
1.00732
1.00725
1.00716
1.00731
1.00736
1.00737
1.00616
1.0062
1.00621
1.0062
1.00616
1.00626
1.00622
1.0062
1.00629
1.00631
1.00621
1.00617
1.00612
1.00619
1.00619
1.00616
1.00608
1.00606
1.00606
1.00605
1.00603
1.00602
1.00601
1.00601
1.00601
1.006
1.00598
1.00597
1.00593
1.00594
1.00595
1.00595
1.00555
1.00555
1.00555
1.00555
1.00553
1.00554
1.00554
1.00554
1.00553
1.00553
1.00553
1.00553
1.0055
1.00551
1.00551
1.00552
1.00512
1.00512
1.00512
1.00512
1.00511
1.00511
1.00511
1.00511
1.0051
1.0051
1.0051
1.00511
1.00509
1.00509
1.00509
1.0051
1.00468
1.00468
1.00468
1.00469
1.00467
1.00468
1.00468
1.00468
1.00467
1.00467
1.00467
1.00468
1.00466
1.00466
1.00467
1.00467
1.00424
1.00424
1.00425
1.00425
1.00424
1.00424
1.00424
1.00424
1.00423
1.00423
1.00424
1.00424
1.00423
1.00423
1.00423
1.00424
1.0038
1.0038
1.00381
1.00381
1.0038
1.0038
1.0038
1.0038
1.0038
1.0038
1.0038
1.0038
1.00379
1.00379
1.0038
1.0038
1.00336
1.00336
1.00336
1.00336
1.00336
1.00336
1.00336
1.00336
1.00335
1.00336
1.00336
1.00336
1.00335
1.00335
1.00336
1.00336
1.00292
1.00292
1.00292
1.00292
1.00291
1.00291
1.00292
1.00292
1.00291
1.00291
1.00291
1.00292
1.00291
1.00291
1.00291
1.00292
1.00247
1.00247
1.00247
1.00247
1.00247
1.00247
1.00247
1.00247
1.00247
1.00247
1.00247
1.00247
1.00247
1.00247
1.00247
1.00247
1.00202
1.00202
1.00202
1.00202
1.00202
1.00202
1.00202
1.00202
1.00202
1.00202
1.00202
1.00202
1.00202
1.00202
1.00202
1.00202
1.00157
1.00157
1.00158
1.00158
1.00157
1.00157
1.00157
1.00157
1.00157
1.00157
1.00157
1.00157
1.00157
1.00157
1.00157
1.00157
1.00113
1.00113
1.00113
1.00113
1.00112
1.00112
1.00113
1.00113
1.00112
1.00112
1.00112
1.00113
1.00112
1.00112
1.00112
1.00112
1.00068
1.00068
1.00068
1.00068
1.00067
1.00068
1.00068
1.00068
1.00067
1.00067
1.00067
1.00068
1.00067
1.00067
1.00067
1.00068
1.00023
1.00023
1.00023
1.00023
1.00022
1.00023
1.00023
1.00023
1.00022
1.00022
1.00022
1.00023
1.00022
1.00022
1.00022
1.00023
8.49583
8.58525
8.6091
8.63739
8.56602
8.55848
8.58519
8.57531
8.59311
8.59301
8.56936
8.56086
8.60099
8.6258
8.61999
8.60737
7.50683
7.47025
7.54408
7.39784
7.50501
7.43319
7.49444
7.48111
7.34069
7.49951
7.52629
7.62857
7.46495
7.44868
7.54115
7.43652
5.93462
5.95617
5.9185
5.77666
5.93632
5.89888
5.97756
5.97326
5.95299
5.98371
6.07004
5.943
5.95409
5.98505
6.00106
6.01689
4.3416
4.34488
4.34471
4.28928
4.39988
4.38588
4.38402
4.33941
4.55218
4.2946
4.4072
4.3343
4.45493
4.4395
4.35974
4.43384
2.86573
2.76146
2.7801
2.83479
2.76837
2.80688
2.8116
2.82622
2.78214
2.75132
2.77302
2.7038
2.85742
2.70627
2.71998
2.64411
1.51794
1.49662
1.45953
1.49834
1.4329
1.56999
1.415
1.40522
1.34616
1.34403
1.23245
1.20117
1.22399
1.24135
1.23739
1.29255
1.00964
1.01428
1.01634
1.02208
1.0183
1.01181
1.01179
1.01057
1.01437
1.01606
1.0124
1.01128
1.00772
1.01208
1.01118
1.01159
1.00441
1.00488
1.00525
1.00503
1.00431
1.00409
1.0051
1.00467
1.00458
1.00494
1.00512
1.00514
1.00464
1.00494
1.00493
1.00483
1.00791
1.00794
1.00728
1.00795
1.00797
1.00782
1.00738
1.00744
1.00789
1.00792
1.00757
1.00759
1.00771
1.00775
1.00756
1.00756
1.00614
1.00621
1.0062
1.0065
1.00618
1.00621
1.00623
1.00637
1.00619
1.00626
1.00626
1.00636
1.00618
1.00625
1.00625
1.0063
1.00609
1.0061
1.00605
1.00615
1.00607
1.00607
1.00604
1.0061
1.00607
1.00607
1.00605
1.00609
1.00605
1.00606
1.00605
1.00607
1.00555
1.00557
1.00557
1.00563
1.00556
1.00558
1.00558
1.00562
1.00556
1.00557
1.00558
1.00561
1.00556
1.00557
1.00558
1.0056
1.00513
1.00514
1.00515
1.00517
1.00513
1.00514
1.00515
1.00517
1.00513
1.00514
1.00515
1.00517
1.00513
1.00514
1.00515
1.00516
1.00469
1.0047
1.00471
1.00472
1.00469
1.0047
1.00471
1.00472
1.00469
1.0047
1.00471
1.00472
1.00469
1.0047
1.00471
1.00472
1.00425
1.00426
1.00426
1.00428
1.00425
1.00426
1.00427
1.00428
1.00425
1.00426
1.00427
1.00428
1.00425
1.00426
1.00427
1.00428
1.00381
1.00381
1.00382
1.00383
1.00381
1.00381
1.00382
1.00383
1.00381
1.00381
1.00382
1.00383
1.00381
1.00382
1.00382
1.00383
1.00337
1.00337
1.00337
1.00338
1.00337
1.00337
1.00337
1.00338
1.00337
1.00337
1.00338
1.00338
1.00337
1.00337
1.00338
1.00338
1.00292
1.00292
1.00293
1.00293
1.00292
1.00292
1.00293
1.00293
1.00292
1.00292
1.00293
1.00293
1.00292
1.00292
1.00293
1.00293
1.00247
1.00248
1.00248
1.00248
1.00247
1.00248
1.00248
1.00248
1.00247
1.00248
1.00248
1.00248
1.00247
1.00248
1.00248
1.00248
1.00202
1.00203
1.00203
1.00203
1.00203
1.00203
1.00203
1.00203
1.00203
1.00203
1.00203
1.00203
1.00203
1.00203
1.00203
1.00203
1.00158
1.00158
1.00158
1.00158
1.00158
1.00158
1.00158
1.00158
1.00158
1.00158
1.00158
1.00158
1.00158
1.00158
1.00158
1.00158
1.00113
1.00113
1.00113
1.00113
1.00113
1.00113
1.00113
1.00113
1.00113
1.00113
1.00113
1.00113
1.00113
1.00113
1.00113
1.00113
1.00068
1.00068
1.00068
1.00068
1.00068
1.00068
1.00068
1.00068
1.00068
1.00068
1.00068
1.00068
1.00068
1.00068
1.00068
1.00068
1.00023
1.00023
1.00023
1.00023
1.00023
1.00023
1.00023
1.00023
1.00023
1.00023
1.00023
1.00023
1.00023
1.00023
1.00023
1.00023
)
;

boundaryField
{
    inlet
    {
        type            zeroGradient;
    }
    outlet
    {
        type            fixedValue;
        value           uniform 1;
    }
    wall
    {
        type            zeroGradient;
    }
    procBoundary0to1
    {
        type            processor;
        value           nonuniform List<scalar> 
192
(
8.55647
8.59609
8.57862
8.58868
7.64588
7.63351
7.57899
7.47109
5.94762
5.90764
5.80632
5.81669
4.44078
4.16453
4.09035
3.9638
2.70955
2.6024
2.75204
2.70598
1.22333
1.35767
1.34204
1.60971
1.01046
1.01117
1.00738
1.00875
1.00486
1.00468
1.0045
1.00451
1.00749
1.00753
1.00751
1.00737
1.00626
1.00625
1.00623
1.00617
1.00606
1.00605
1.00605
1.00603
1.00561
1.00561
1.00561
1.0056
1.00518
1.00517
1.00518
1.00517
1.00473
1.00473
1.00473
1.00473
1.00429
1.00429
1.00429
1.00429
1.00384
1.00384
1.00384
1.00384
1.00339
1.00339
1.00339
1.00339
1.00294
1.00294
1.00294
1.00294
1.00249
1.00249
1.00249
1.00249
1.00203
1.00204
1.00204
1.00204
1.00158
1.00158
1.00158
1.00158
1.00113
1.00113
1.00113
1.00113
1.00068
1.00068
1.00068
1.00068
1.00023
1.00023
1.00023
1.00023
8.55213
8.58089
8.55967
8.55511
7.82134
7.65836
7.63989
7.65991
6.1826
6.08835
5.94372
6.04813
4.30866
4.26592
4.28539
4.29616
2.80061
2.60733
2.7761
2.70215
1.6859
1.33106
1.22359
1.1453
1.00265
1.01816
1.01278
1.01116
1.00378
1.00447
1.00484
1.00493
1.00652
1.00719
1.00734
1.00745
1.00624
1.00633
1.00629
1.00628
1.006
1.00603
1.00605
1.00606
1.00558
1.00559
1.0056
1.00561
1.00516
1.00517
1.00517
1.00517
1.00472
1.00473
1.00473
1.00473
1.00428
1.00428
1.00429
1.00429
1.00384
1.00384
1.00384
1.00384
1.00339
1.00339
1.00339
1.00339
1.00294
1.00294
1.00294
1.00294
1.00249
1.00249
1.00249
1.00249
1.00203
1.00203
1.00203
1.00203
1.00158
1.00158
1.00158
1.00158
1.00113
1.00113
1.00113
1.00113
1.00068
1.00068
1.00068
1.00068
1.00023
1.00023
1.00023
1.00023
)
;
    }
    procBoundary0to2
    {
        type            processor;
        value           nonuniform List<scalar> 
192
(
8.59487
8.64937
8.63162
8.61167
7.5253
7.51236
7.51979
7.26211
5.95333
5.97974
5.96659
5.91832
4.35713
4.31299
4.30373
4.37859
2.62973
2.76734
2.87758
2.9096
1.30401
1.35985
1.42817
1.49154
1.00781
1.01037
1.01266
1.01161
1.00471
1.00485
1.00498
1.00465
1.00733
1.00744
1.00753
1.00769
1.00614
1.00615
1.00616
1.0062
1.00595
1.00597
1.00598
1.00602
1.00552
1.00553
1.00555
1.00558
1.0051
1.00511
1.00513
1.00515
1.00468
1.00469
1.0047
1.00472
1.00424
1.00425
1.00426
1.00427
1.0038
1.00381
1.00382
1.00383
1.00336
1.00337
1.00337
1.00338
1.00292
1.00292
1.00293
1.00293
1.00247
1.00247
1.00248
1.00248
1.00202
1.00203
1.00203
1.00203
1.00158
1.00158
1.00158
1.00158
1.00113
1.00113
1.00113
1.00113
1.00068
1.00068
1.00068
1.00068
1.00023
1.00023
1.00023
1.00023
8.5358
8.48138
8.61436
8.58163
7.30673
7.24197
7.39477
7.45916
5.70982
5.76814
5.78629
5.8601
4.28519
4.46631
4.38327
4.36593
2.68275
2.53903
2.67921
2.65551
1.22694
1.17137
1.14059
1.19006
1.01303
1.01361
1.00838
1.00949
1.00505
1.00561
1.0048
1.00498
1.00753
1.00759
1.00727
1.00734
1.00625
1.0063
1.00617
1.00616
1.00596
1.00596
1.00593
1.00594
1.0055
1.00551
1.0055
1.00551
1.00508
1.00508
1.00509
1.00509
1.00466
1.00466
1.00466
1.00467
1.00423
1.00423
1.00423
1.00424
1.00379
1.00379
1.00379
1.0038
1.00335
1.00335
1.00335
1.00336
1.00291
1.00291
1.00291
1.00291
1.00247
1.00247
1.00247
1.00247
1.00202
1.00202
1.00202
1.00202
1.00157
1.00157
1.00157
1.00157
1.00112
1.00112
1.00112
1.00112
1.00067
1.00067
1.00067
1.00068
1.00022
1.00022
1.00022
1.00023
)
;
    }
}


// ************************************************************************* //
