/*--------------------------------*- C++ -*----------------------------------*\
| =========                 |                                                 |
| \\      /  F ield         | OpenFOAM: The Open Source CFD Toolbox           |
|  \\    /   O peration     | Version:  2506                                  |
|   \\  /    A nd           | Website:  www.openfoam.com                      |
|    \\/     M anipulation  |                                                 |
\*---------------------------------------------------------------------------*/
FoamFile
{
    version     2.0;
    format      ascii;
    arch        "LSB;label=32;scalar=64";
    class       surfaceScalarField;
    location    "0.02";
    object      phi;
}
// * * * * * * * * * * * * * * * * * * * * * * * * * * * * * * * * * * * * * //

dimensions      [0 3 -1 0 0 0 0];

oriented        oriented;

internalField   nonuniform List<scalar> 
3120
(
1.61585e-09
1.11454e-09
1.02587e-08
2.48809e-09
1.35547e-09
9.59538e-11
7.49654e-11
1.95071e-08
-1.22977e-09
-3.13851e-09
-2.62661e-09
2.38896e-08
-1.25923e-09
4.55304e-10
3.96216e-09
7.21374e-10
3.68839e-10
2.87767e-10
1.63022e-08
1.1952e-09
-2.29815e-09
5.39444e-10
1.90271e-08
-2.98731e-10
3.80647e-09
8.2949e-09
2.05807e-09
1.22431e-08
5.37854e-10
3.08283e-10
1.80748e-08
-1.83454e-09
1.6616e-10
1.51297e-09
1.6308e-08
-2.56617e-09
-5.89131e-10
2.38859e-08
1.31157e-11
1.44698e-08
2.09981e-09
1.43624e-08
6.15092e-10
-1.95059e-09
2.7679e-08
-1.62966e-09
1.77488e-08
1.33874e-08
-7.11579e-10
-1.04431e-09
1.05943e-08
-3.74099e-10
1.79431e-09
-1.15264e-09
-9.73833e-10
1.8754e-08
2.16802e-09
9.40006e-10
2.31293e-09
1.80147e-08
1.46935e-09
1.00676e-09
2.66656e-09
1.93297e-09
-2.88586e-10
-9.26357e-10
1.5075e-08
1.39784e-09
1.73669e-09
2.02201e-10
1.58258e-08
3.7073e-10
-2.07776e-09
1.40516e-08
1.95727e-10
1.60014e-08
1.0029e-09
8.13891e-10
1.40475e-08
1.28422e-09
-2.29388e-10
-1.7503e-09
1.94928e-08
3.25093e-09
-1.47973e-09
1.98076e-08
-1.00414e-09
2.01257e-08
-1.41272e-09
1.40511e-08
6.75633e-10
5.76196e-10
2.23253e-08
7.49603e-10
1.33053e-08
8.37898e-09
-3.01234e-10
7.95134e-10
1.00014e-08
2.56702e-10
-1.57648e-10
-2.12441e-09
-8.63741e-10
2.21796e-08
-7.3873e-10
1.50556e-09
4.78742e-09
7.64204e-09
1.95524e-09
-1.02604e-09
2.10969e-08
-7.86001e-09
-1.31247e-09
-2.01027e-09
2.08409e-08
-1.64793e-09
2.98628e-09
2.17771e-10
1.04456e-08
2.04504e-09
-2.40731e-09
2.21875e-08
2.31444e-09
1.64561e-08
-4.66676e-10
-2.30509e-10
1.14131e-08
1.32129e-09
3.74175e-11
3.70459e-09
1.55019e-08
6.94026e-09
7.76298e-10
9.72118e-09
3.38916e-09
2.84124e-08
2.88263e-09
8.41992e-09
1.75224e-09
-4.73942e-10
3.11864e-08
1.329e-09
1.27215e-08
2.6232e-08
-3.303e-10
1.7987e-09
1.18817e-08
-1.12097e-09
-2.22771e-09
4.18939e-10
2.61785e-09
1.97966e-08
-9.84035e-10
-2.91366e-10
3.24971e-10
7.90947e-09
1.17903e-10
1.62325e-09
2.14576e-08
-1.05493e-09
8.94139e-10
7.48996e-10
2.35663e-08
-2.5699e-09
-1.26626e-09
-2.63723e-10
1.54875e-08
6.93088e-10
3.65069e-10
2.01881e-08
2.87292e-09
1.384e-08
-2.12304e-10
9.84516e-10
1.08703e-08
5.1957e-10
-4.38432e-10
-2.13479e-09
1.75991e-08
6.72811e-10
7.20272e-10
8.25473e-09
3.65705e-12
3.38135e-08
-5.49541e-09
2.12466e-08
-2.77908e-09
2.78752e-09
1.94369e-08
5.42343e-09
1.13376e-08
3.70105e-08
7.68793e-10
-1.21169e-10
9.53753e-09
2.54231e-09
-8.4577e-10
5.20238e-10
-1.40172e-10
1.99307e-08
2.54577e-10
-1.5457e-09
-2.72475e-09
1.40972e-08
-1.39708e-09
-2.39336e-10
1.78923e-08
1.83051e-09
1.60906e-09
3.16513e-09
1.61532e-08
2.51775e-09
-1.72679e-09
7.80366e-10
1.79028e-08
7.38803e-10
-3.92347e-10
1.53901e-08
-2.49841e-09
1.47885e-08
-1.53658e-09
-7.04431e-10
1.65925e-08
-3.16091e-10
-2.13842e-09
-2.07339e-09
2.10547e-08
-3.16124e-10
-4.19505e-10
6.4596e-09
-3.02527e-09
3.21413e-08
-4.81084e-09
2.36688e-08
1.39805e-09
-5.17308e-10
1.2237e-08
-1.62252e-09
1.17081e-08
2.4336e-08
-2.28526e-09
8.56524e-11
1.22708e-08
4.01913e-11
-5.73839e-10
-1.13043e-09
-3.94109e-10
1.88761e-08
2.93876e-10
-1.95424e-09
-2.28785e-09
1.58869e-08
1.32197e-09
-2.44358e-09
1.4735e-08
2.08114e-09
-2.05187e-09
-9.97222e-10
1.88805e-08
4.07462e-10
-2.09193e-09
-1.02061e-09
1.85694e-08
-1.42659e-09
2.73961e-10
1.21629e-08
9.33686e-10
7.24203e-09
-2.38743e-09
-2.95663e-11
1.70935e-08
9.18861e-10
-7.17978e-10
-8.65826e-10
1.92305e-08
-1.07345e-09
-2.00004e-09
9.08908e-09
-3.95893e-09
3.50103e-08
-2.04242e-09
2.64048e-08
7.94614e-10
-2.73073e-09
1.19708e-08
-1.65269e-09
7.64023e-09
1.89494e-08
-3.76483e-10
-1.0925e-09
1.55674e-08
-2.83947e-09
1.01187e-09
1.57396e-10
4.90854e-11
1.92909e-08
-9.97743e-10
-1.5452e-10
-8.05527e-11
1.61585e-08
1.20907e-10
2.26241e-10
1.49075e-08
1.03709e-10
4.83138e-10
9.46797e-10
2.09612e-08
-4.60308e-09
2.35715e-10
3.25494e-10
1.85404e-08
-5.18776e-10
1.93665e-10
1.26432e-08
-1.80378e-09
1.04154e-08
-2.6097e-10
-8.43018e-11
1.84659e-08
-8.03805e-11
6.48865e-10
4.20821e-10
1.82253e-08
-1.75735e-09
-4.91364e-10
1.21804e-08
1.22156e-09
2.87496e-08
1.16854e-09
2.46687e-08
-9.3921e-11
1.02957e-09
1.33758e-08
7.78573e-10
8.80964e-09
1.83469e-08
1.36678e-10
-3.29496e-09
1.67485e-08
-1.63726e-09
3.61449e-09
-3.65522e-10
-1.13586e-09
1.95864e-08
1.34259e-09
-5.51149e-10
9.28908e-11
1.64807e-08
-2.2943e-10
-1.64084e-10
1.61031e-08
-6.87739e-10
1.3399e-09
-1.22423e-09
1.86643e-08
-1.11358e-09
9.3755e-10
-2.92557e-10
1.80996e-08
3.38333e-10
2.4837e-10
1.30871e-08
-9.35405e-10
1.14174e-08
1.38535e-09
-1.04901e-09
1.91118e-08
-2.20631e-09
7.42271e-10
2.2907e-10
1.83469e-08
-6.12311e-10
4.30122e-10
1.33533e-08
2.29498e-09
2.35269e-08
2.8977e-09
2.27289e-08
-2.26973e-09
1.8758e-09
1.5231e-08
1.15322e-09
9.92599e-09
1.86638e-08
1.32435e-09
8.1506e-10
1.80163e-08
-2.21168e-09
-1.19545e-09
1.85938e-09
1.25351e-09
1.83329e-08
-5.34985e-10
6.96217e-10
1.52834e-09
1.69084e-08
-7.92852e-10
7.41474e-10
1.69078e-08
-1.40529e-09
1.2891e-09
4.61785e-10
1.78518e-08
-1.23144e-10
2.4522e-09
8.49014e-10
1.73411e-08
9.19972e-10
5.86187e-10
1.55616e-08
-2.4742e-09
1.5512e-08
5.04689e-10
1.24623e-10
1.78356e-08
1.10873e-09
9.69281e-10
1.49655e-09
1.72349e-08
-1.49891e-09
6.69089e-10
1.57387e-08
-2.45167e-10
1.87822e-08
2.04687e-09
1.86023e-08
1.24777e-09
1.68748e-09
1.62999e-08
-1.77386e-09
1.47002e-08
1.73606e-08
7.02998e-10
1.36657e-10
1.77292e-08
-9.16388e-10
3.6385e-10
7.57419e-10
3.68237e-10
1.76214e-08
2.88966e-10
2.52982e-10
5.32163e-10
1.70662e-08
-1.85344e-10
3.56077e-10
1.71345e-08
-6.37952e-10
8.30669e-10
2.14354e-10
1.7462e-08
-5.18339e-10
9.82225e-10
3.64113e-10
1.71938e-08
2.78139e-10
2.37006e-10
1.6561e-08
-6.38223e-10
1.6657e-08
6.27247e-10
2.40672e-10
1.74369e-08
-2.54717e-10
5.17093e-10
5.70938e-10
1.71383e-08
-4.49854e-10
2.75424e-10
1.66673e-08
-4.5258e-11
1.75406e-08
9.29029e-10
1.74909e-08
-6.01796e-11
6.46348e-10
1.68023e-08
-6.05415e-10
1.63105e-08
1.71521e-08
6.95139e-10
3.88168e-10
1.75084e-08
-7.57235e-10
-1.05187e-10
6.13451e-10
3.07764e-10
1.73885e-08
6.91069e-12
3.30398e-10
2.63446e-10
1.7172e-08
-8.61231e-11
1.62727e-10
1.71872e-08
-2.35811e-10
5.85492e-10
3.5153e-10
1.7377e-08
-4.63782e-10
5.80787e-10
2.77197e-10
1.72292e-08
2.71775e-10
1.40387e-10
1.69932e-08
-1.7345e-10
1.70228e-08
4.14304e-10
3.02468e-10
1.73235e-08
-2.51741e-10
3.45178e-10
3.02105e-10
1.71827e-08
1.07692e-11
1.26254e-10
1.70159e-08
-5.04154e-11
1.72568e-08
3.87433e-10
1.72526e-08
-9.22696e-11
2.77341e-10
1.70427e-08
-1.60896e-10
1.68916e-08
1.71546e-08
3.38294e-10
1.09518e-10
1.73306e-08
-3.27401e-10
5.74082e-11
3.05969e-10
8.46809e-11
1.72721e-08
6.4101e-11
2.09555e-10
7.21986e-11
1.71887e-08
7.59412e-12
4.68709e-11
1.71821e-08
-6.7989e-11
3.03834e-10
1.45354e-10
1.72919e-08
-2.54505e-10
2.94467e-10
1.00958e-10
1.72224e-08
1.85783e-10
4.23585e-11
1.71318e-08
-6.11383e-11
1.71289e-08
2.35702e-10
1.5255e-10
1.72616e-08
-1.80922e-10
2.02589e-10
1.18757e-10
1.71981e-08
8.46707e-11
3.93604e-11
1.71369e-08
-4.19698e-11
1.71908e-08
1.93801e-10
1.72103e-08
-1.09097e-10
1.50984e-10
1.71409e-08
8.29972e-12
1.70914e-08
1.71714e-08
2.11188e-10
5.19493e-11
1.72482e-08
-2.02386e-10
2.16352e-11
1.9194e-10
2.87609e-11
1.7227e-08
3.56291e-11
1.53373e-10
1.57056e-11
1.71917e-08
1.98334e-11
2.27875e-12
1.71784e-08
-6.72811e-12
1.84454e-10
7.16793e-11
1.72492e-08
-1.6147e-10
1.77565e-10
4.09909e-11
1.72172e-08
1.38642e-10
9.08596e-12
1.71775e-08
-3.15778e-11
1.71646e-08
1.4657e-10
7.50543e-11
1.72344e-08
-1.22763e-10
1.34987e-10
4.51618e-11
1.72055e-08
9.70633e-11
6.05331e-12
1.71779e-08
-3.19735e-11
1.71824e-08
1.15348e-10
1.72075e-08
-8.59233e-11
1.01103e-10
1.71817e-08
5.57336e-11
1.71626e-08
1.71806e-08
1.27667e-10
1.5692e-11
1.72025e-08
-1.16897e-10
1.91891e-11
1.22118e-10
3.35128e-12
1.72043e-08
2.4843e-11
1.08985e-10
-4.26867e-12
1.71895e-08
1.97049e-11
-1.075e-11
1.71773e-08
1.07896e-11
1.14061e-10
2.96627e-11
1.72217e-08
-1.00561e-10
1.13013e-10
1.19226e-11
1.72097e-08
1.01088e-10
-5.31674e-12
1.71905e-08
-2.21004e-11
1.71779e-08
9.49834e-11
3.13187e-11
1.72189e-08
-8.11152e-11
9.38532e-11
1.27561e-11
1.72059e-08
8.22711e-11
-6.35355e-12
1.71906e-08
-2.52727e-11
1.71843e-08
7.63002e-11
1.7207e-08
-6.24235e-11
7.43471e-11
1.71968e-08
6.2706e-11
1.71866e-08
1.71865e-08
8.07228e-11
6.45213e-13
1.71775e-08
-7.18335e-11
1.54903e-11
8.07493e-11
-5.35069e-12
1.71918e-08
1.79686e-11
7.70777e-11
-9.75787e-12
1.71869e-08
1.61133e-11
-1.33266e-11
1.71779e-08
1.31852e-11
7.38796e-11
8.80579e-12
1.72045e-08
-6.47427e-11
7.59557e-11
-5.38546e-13
1.72029e-08
7.31347e-11
-9.16565e-12
1.71929e-08
-1.70815e-11
1.71829e-08
6.41169e-11
1.00209e-11
1.72085e-08
-5.48321e-11
6.66184e-11
-5.46339e-13
1.72035e-08
6.44624e-11
-1.05279e-11
1.71942e-08
-1.95673e-11
1.71866e-08
5.38881e-11
1.72047e-08
-4.52386e-11
5.62879e-11
1.72006e-08
5.48949e-11
1.71938e-08
1.71892e-08
5.28806e-11
-4.97539e-12
1.71632e-08
-4.60671e-11
1.25346e-11
5.48689e-11
-7.71429e-12
1.71842e-08
1.33872e-11
5.45484e-11
-9.94599e-12
1.71847e-08
1.25046e-11
-1.16852e-11
1.71789e-08
1.13092e-11
4.96093e-11
-3.40189e-13
1.71933e-08
-4.30956e-11
5.25623e-11
-5.1241e-12
1.71975e-08
5.27869e-11
-9.45991e-12
1.71922e-08
-1.32258e-11
1.7185e-08
4.46599e-11
5.45166e-13
1.7201e-08
-3.80383e-11
4.79588e-11
-5.15768e-12
1.72003e-08
4.88029e-11
-1.0403e-11
1.71943e-08
-1.48099e-11
1.71879e-08
3.91405e-11
1.72012e-08
-3.28661e-11
4.26421e-11
1.72001e-08
4.41409e-11
1.71952e-08
1.71901e-08
3.5655e-11
-6.30832e-12
1.71545e-08
-3.06541e-11
9.95988e-12
3.7992e-11
-7.50741e-12
1.71794e-08
1.00569e-11
3.87138e-11
-8.52524e-12
1.71831e-08
9.45334e-12
-9.22859e-12
1.71798e-08
8.71896e-12
3.41888e-11
-3.75853e-12
1.7186e-08
-2.94557e-11
3.70021e-11
-6.19038e-12
1.71934e-08
3.80757e-11
-8.32219e-12
1.71911e-08
-1.0067e-11
1.7186e-08
3.16912e-11
-3.08678e-12
1.71955e-08
-2.68462e-11
3.47567e-11
-6.20226e-12
1.71973e-08
3.63004e-11
-8.92149e-12
1.71935e-08
-1.10482e-11
1.71884e-08
2.87409e-11
1.71976e-08
-2.40285e-11
3.20323e-11
1.71982e-08
3.40728e-11
1.71946e-08
1.71901e-08
2.45265e-11
-6.02782e-12
1.71492e-08
-2.0897e-11
7.76361e-12
2.65813e-11
-6.42493e-12
1.71763e-08
7.57964e-12
2.75044e-11
-6.81541e-12
1.7182e-08
7.03649e-12
-7.01381e-12
1.71804e-08
6.46356e-12
2.39155e-11
-4.57142e-12
1.71812e-08
-2.05109e-11
2.62507e-11
-5.77612e-12
1.71905e-08
2.73983e-11
-6.80748e-12
1.719e-08
-7.59888e-12
1.71865e-08
2.26781e-11
-4.04389e-12
1.71915e-08
-1.91432e-11
2.51837e-11
-5.76287e-12
1.71948e-08
2.6642e-11
-7.19786e-12
1.71924e-08
-8.25124e-12
1.71886e-08
2.11127e-11
1.71944e-08
-1.75847e-11
2.3767e-11
1.71962e-08
2.55579e-11
1.71936e-08
1.71899e-08
1.70365e-11
-5.10011e-12
1.71458e-08
-1.44447e-11
5.91739e-12
1.86628e-11
-5.15375e-12
1.71742e-08
5.6589e-12
1.94808e-11
-5.24209e-12
1.71813e-08
5.19956e-12
-5.20274e-12
1.7181e-08
4.7006e-12
1.683e-11
-4.26747e-12
1.71779e-08
-1.44035e-11
1.8624e-11
-4.83873e-12
1.71885e-08
1.96035e-11
-5.34108e-12
1.71891e-08
-5.65258e-12
1.71868e-08
1.62278e-11
-3.8789e-12
1.71885e-08
-1.36796e-11
1.81499e-11
-4.83483e-12
1.71929e-08
1.92898e-11
-5.57843e-12
1.71916e-08
-6.15117e-12
1.71887e-08
1.53972e-11
1.71918e-08
-1.28058e-11
1.73752e-11
1.71944e-08
1.87337e-11
1.71927e-08
1.71898e-08
1.18109e-11
-4.02339e-12
1.71436e-08
-9.9876e-12
4.38915e-12
1.30137e-11
-3.93728e-12
1.71729e-08
4.15376e-12
1.36566e-11
-3.89783e-12
1.71808e-08
3.76573e-12
-3.77692e-12
1.71814e-08
3.37606e-12
1.17759e-11
-3.53528e-12
1.71757e-08
-1.00764e-11
1.30964e-11
-3.80646e-12
1.71871e-08
1.38427e-11
-4.0106e-12
1.71886e-08
-4.1283e-12
1.71871e-08
1.14982e-11
-3.25609e-12
1.71865e-08
-9.6893e-12
1.28894e-11
-3.78076e-12
1.71915e-08
1.3741e-11
-4.18135e-12
1.71909e-08
-4.49766e-12
1.71888e-08
1.1049e-11
1.71899e-08
-9.19934e-12
1.24764e-11
1.7193e-08
1.344e-11
1.71919e-08
1.71897e-08
8.02718e-12
-2.97311e-12
1.71423e-08
-6.77943e-12
3.13807e-12
8.86943e-12
-2.85398e-12
1.71721e-08
2.94124e-12
9.33429e-12
-2.77631e-12
1.71806e-08
2.64317e-12
-2.6482e-12
1.71817e-08
2.34705e-12
8.05921e-12
-2.68426e-12
1.71743e-08
-6.89664e-12
8.97579e-12
-2.79712e-12
1.71861e-08
9.5151e-12
-2.88225e-12
1.71882e-08
-2.90518e-12
1.71872e-08
7.93524e-12
-2.48523e-12
1.7185e-08
-6.69028e-12
8.90048e-12
-2.77558e-12
1.71905e-08
9.50891e-12
-2.99766e-12
1.71904e-08
-3.15536e-12
1.71889e-08
7.6912e-12
1.71885e-08
-6.41275e-12
8.68892e-12
1.7192e-08
9.3531e-12
1.71913e-08
1.71897e-08
5.17929e-12
-2.00171e-12
1.71414e-08
-4.36874e-12
2.08009e-12
5.72868e-12
-1.89795e-12
1.71715e-08
1.93047e-12
6.04061e-12
-1.82406e-12
1.71804e-08
1.7234e-12
-1.71813e-12
1.71819e-08
1.51459e-12
5.22537e-12
-1.82715e-12
1.71734e-08
-4.47064e-12
5.81985e-12
-1.8755e-12
1.71855e-08
6.18213e-12
-1.90175e-12
1.71879e-08
-1.88846e-12
1.71874e-08
5.17516e-12
-1.68828e-12
1.71841e-08
-4.36383e-12
5.80074e-12
-1.85471e-12
1.71899e-08
6.20822e-12
-1.96978e-12
1.71901e-08
-2.03812e-12
1.71889e-08
5.04563e-12
1.71875e-08
-4.21381e-12
5.69356e-12
1.71913e-08
6.13721e-12
1.71909e-08
1.71896e-08
2.97196e-12
-1.01752e-12
1.71409e-08
-2.49653e-12
1.08299e-12
3.29932e-12
-9.45201e-13
1.71712e-08
9.7737e-13
3.4968e-12
-8.92199e-13
1.71802e-08
8.52077e-13
-8.18464e-13
1.7182e-08
7.20464e-13
3.01559e-12
-9.09473e-13
1.71728e-08
-2.56696e-12
3.36544e-12
-9.21122e-13
1.71851e-08
3.58894e-12
-9.21935e-13
1.71878e-08
-9.01963e-13
1.71874e-08
3.00355e-12
-8.14874e-13
1.71835e-08
-2.52781e-12
3.36863e-12
-8.9469e-13
1.71895e-08
3.61748e-12
-9.44509e-13
1.71899e-08
-9.67285e-13
1.71889e-08
2.94291e-12
1.71869e-08
-2.46769e-12
3.31993e-12
1.71908e-08
3.59119e-12
1.71907e-08
1.71895e-08
1.43487e-12
8.15364e-14
-1.15302e-12
7.09507e-14
1.65579e-12
1.56195e-13
-3.04013e-14
1.81663e-12
2.02143e-13
-1.2259e-13
2.47582e-13
-2.05104e-13
1.49555e-12
1.97533e-13
-1.22518e-12
1.72067e-12
2.28916e-13
1.88134e-12
2.50952e-13
2.72564e-13
1.52382e-12
2.8587e-13
-1.25702e-12
1.74444e-12
2.81115e-13
1.90712e-12
2.78881e-13
2.78568e-13
1.52464e-12
-1.2697e-12
1.74153e-12
1.90565e-12
-3.24618e-09
-2.75863e-09
2.26863e-08
-1.92107e-10
-2.94817e-09
-1.00533e-09
1.57316e-08
-6.43949e-10
-3.01692e-09
-3.62626e-10
1.34688e-08
-8.26691e-10
9.48213e-10
8.99284e-09
-3.36659e-10
5.0068e-09
7.59807e-10
1.17606e-08
-3.61336e-10
-7.54592e-10
2.32619e-08
1.01819e-10
-1.19056e-09
1.6318e-08
-2.16045e-09
1.82864e-08
1.60601e-09
-1.2938e-09
2.37163e-08
-1.91283e-09
-9.95353e-10
2.46423e-08
-8.26907e-10
1.23974e-09
1.50912e-08
2.33763e-09
9.18286e-09
2.11185e-09
1.81547e-08
1.92947e-09
1.7213e-08
2.72749e-10
2.38591e-08
2.08919e-08
-3.90621e-09
8.4407e-10
2.71835e-08
-1.4054e-09
-3.14989e-09
2.39027e-10
1.49468e-08
-2.10529e-10
7.27351e-10
1.5562e-10
7.88156e-09
1.55438e-09
2.80795e-10
8.11785e-09
9.47458e-10
-4.19822e-09
-1.36695e-09
1.82567e-08
-2.96125e-09
-1.74651e-09
2.40104e-08
9.39465e-10
3.69247e-10
1.22036e-08
-2.81489e-10
2.1186e-08
-2.57558e-09
-1.96902e-10
2.52613e-08
9.95894e-10
5.05767e-10
1.88186e-08
-4.25102e-10
-1.50484e-09
1.83863e-08
-9.87509e-11
9.85923e-09
-8.06032e-10
1.76103e-08
-3.27066e-09
1.64643e-08
1.73746e-09
1.49157e-08
2.19702e-08
1.22019e-09
1.70616e-09
2.31432e-08
1.09656e-09
1.72562e-09
1.38724e-09
1.2543e-08
5.11125e-10
-1.93982e-11
2.98075e-10
9.46601e-09
-1.37504e-10
1.32752e-09
7.21043e-09
-1.828e-10
1.81309e-09
1.69125e-09
1.65605e-08
2.2518e-10
1.4335e-09
2.55521e-08
6.31015e-10
1.16729e-09
1.09286e-08
-1.08321e-10
2.16049e-08
8.84021e-10
4.30859e-10
2.57985e-08
-2.22982e-10
-1.50627e-09
2.28653e-08
-1.31514e-09
-1.99459e-09
2.26403e-08
-3.92729e-10
1.01498e-08
-2.33158e-09
1.97284e-08
-3.56545e-11
7.48008e-09
1.07316e-09
9.98251e-09
2.2321e-08
-1.65249e-09
-5.08095e-10
2.49937e-08
3.38441e-10
2.2755e-09
5.71395e-10
7.83505e-09
2.08534e-10
-1.72424e-09
-1.11926e-10
1.49858e-08
-1.4081e-09
3.86682e-10
3.5032e-09
4.75345e-10
3.90737e-09
2.63302e-09
9.55929e-09
8.7797e-10
2.26859e-09
2.68843e-08
-7.89229e-10
1.43592e-09
1.10479e-08
2.48786e-09
1.61446e-08
-3.73281e-09
8.65239e-11
3.20959e-08
5.60387e-10
1.4563e-09
1.93844e-08
4.47799e-10
1.69727e-09
2.24915e-08
-1.36464e-09
1.49697e-08
3.08731e-10
2.12568e-08
5.74458e-11
1.34233e-08
-3.17221e-09
1.73422e-08
1.54438e-08
8.26756e-10
1.30884e-09
2.3784e-08
-6.28731e-10
2.72686e-09
5.61876e-11
5.66021e-09
2.18553e-10
3.46494e-09
2.18401e-10
1.45543e-08
-5.25018e-10
-7.70024e-10
1.18006e-08
-1.52016e-09
-1.98976e-09
2.1561e-10
1.26923e-08
2.90542e-09
1.46705e-09
2.05782e-08
-2.0805e-10
-3.97437e-10
1.47772e-08
1.20354e-09
1.64807e-08
1.74304e-09
1.66359e-09
2.89018e-08
-9.41498e-10
1.16509e-09
2.23709e-08
2.11051e-09
2.8201e-09
1.6222e-08
6.39189e-10
1.73284e-08
1.47759e-09
2.23971e-08
8.0325e-11
1.58028e-08
-3.39116e-10
2.22231e-08
1.84189e-08
2.59893e-09
-5.72472e-11
2.25648e-08
-1.23803e-09
3.2835e-10
1.26962e-10
9.31715e-09
-1.51333e-09
4.42096e-10
4.04342e-10
1.556e-08
-1.52379e-09
6.80044e-10
1.25028e-08
-8.9985e-10
5.62183e-09
1.81334e-09
5.35745e-09
1.30789e-09
1.64715e-09
2.3372e-08
5.28747e-10
6.01903e-10
1.53588e-08
-1.72033e-10
1.8269e-08
3.69384e-09
-8.17703e-10
2.81854e-08
-3.51155e-10
-1.11083e-09
2.91739e-08
-1.11973e-09
-2.34913e-10
1.78274e-08
-1.71004e-10
1.71265e-08
2.10165e-09
1.82282e-08
1.18807e-09
1.4886e-08
-2.12309e-09
2.53041e-08
1.64578e-08
-3.31425e-09
2.31863e-09
2.2643e-08
-2.05497e-10
-5.55067e-09
9.17713e-10
1.63544e-08
-5.71857e-09
5.78325e-10
-8.27314e-09
1.75482e-08
1.56071e-10
-4.84099e-09
1.36899e-08
1.39286e-09
5.59573e-09
3.61294e-09
1.05276e-08
1.87381e-09
2.29768e-10
2.77819e-08
4.86673e-09
-1.29532e-08
1.7046e-08
-3.62473e-09
1.73165e-08
4.90592e-09
-9.61979e-10
3.04068e-08
4.17045e-09
-3.51682e-09
3.3656e-08
6.40575e-10
-7.24269e-09
1.56468e-08
1.09526e-09
1.29668e-08
7.24106e-09
1.61553e-08
3.83873e-09
1.83505e-08
6.8438e-10
2.30119e-08
1.67543e-08
-2.15436e-09
-1.28476e-09
2.41692e-08
1.913e-09
-3.32522e-09
-3.39398e-09
1.88005e-08
2.1189e-09
-6.7451e-10
-3.30825e-09
1.5912e-08
2.29386e-09
-3.13797e-09
1.21475e-08
2.36918e-09
-8.99936e-09
-5.79357e-09
2.40359e-08
-4.06121e-09
-5.63077e-09
2.50807e-08
-1.57939e-09
-5.47345e-09
1.67294e-08
-2.40542e-09
1.38912e-08
-2.41518e-10
-2.71561e-09
2.75705e-08
4.65658e-09
-2.33277e-09
2.54601e-08
3.32661e-09
-3.80091e-09
1.53043e-08
-2.25131e-09
1.39331e-08
-1.11137e-09
1.80508e-08
-3.57055e-11
1.94213e-08
3.19484e-09
1.76761e-08
1.71798e-08
2.53143e-09
9.42972e-10
1.92281e-08
1.4667e-09
2.77505e-09
5.59338e-10
1.69263e-08
1.07128e-09
2.74331e-09
1.21353e-09
1.41492e-08
5.81239e-10
1.23438e-09
1.11983e-08
2.46992e-10
7.68463e-10
2.32251e-09
2.1888e-08
2.7907e-09
2.39466e-09
2.12233e-08
1.23824e-09
2.28403e-09
1.72114e-08
1.80625e-09
1.44346e-08
1.35556e-09
3.25681e-09
2.52808e-08
2.58792e-09
2.79793e-09
2.38247e-08
1.201e-10
1.08283e-09
1.89734e-08
4.21089e-10
1.65473e-08
-1.75556e-09
2.28715e-08
-1.23598e-09
2.19203e-08
-1.59442e-09
1.94811e-08
1.76827e-08
3.71005e-10
-9.69205e-11
1.79918e-08
9.62242e-10
1.00182e-09
-2.47787e-10
1.56597e-08
8.83715e-10
1.15417e-09
-5.52786e-11
1.33663e-08
6.85908e-10
-6.71464e-12
1.09502e-08
4.93023e-10
-2.05302e-12
3.8738e-10
2.14059e-08
1.06615e-09
4.12017e-10
1.94954e-08
8.97327e-10
4.63488e-10
1.68614e-08
3.84434e-10
1.44227e-08
3.09884e-10
1.28063e-09
2.40778e-08
1.17577e-09
1.25723e-09
2.21138e-08
6.56494e-10
7.81809e-10
1.91745e-08
5.1575e-10
1.68178e-08
-4.84434e-10
2.40898e-08
-3.57412e-11
2.22738e-08
-5.57364e-11
1.99449e-08
1.7858e-08
5.78971e-10
1.99998e-10
1.68042e-08
4.08621e-10
7.34218e-10
1.70545e-10
1.49374e-08
3.96535e-10
7.84099e-10
2.01256e-10
1.27917e-08
3.23518e-10
1.7783e-10
1.05509e-08
2.48618e-10
3.86008e-10
5.26185e-10
2.06938e-08
6.40233e-10
5.16684e-10
1.88951e-08
5.65287e-10
5.13056e-10
1.66245e-08
4.11276e-10
1.42909e-08
3.06115e-10
8.41508e-10
2.34565e-08
5.10761e-10
8.03901e-10
2.16221e-08
3.43581e-10
6.31327e-10
1.92235e-08
4.74384e-10
1.68467e-08
5.45957e-11
2.44336e-08
1.36767e-10
2.26022e-08
4.96923e-11
2.03194e-08
1.80194e-08
1.448e-10
5.96041e-12
1.64497e-08
2.03773e-10
3.02249e-10
-3.50097e-12
1.45819e-08
2.01513e-10
3.54692e-10
-2.13732e-12
1.25598e-08
1.81626e-10
-6.81137e-12
1.04295e-08
1.55716e-10
1.19481e-10
1.83779e-10
2.03966e-08
2.85592e-10
1.76688e-10
1.85489e-08
3.04025e-10
1.65913e-10
1.6438e-08
1.28141e-10
1.42056e-08
8.95177e-11
3.55732e-10
2.31952e-08
2.20811e-10
3.33231e-10
2.13344e-08
2.11599e-10
2.74466e-10
1.91242e-08
2.05908e-10
1.67997e-08
2.59565e-11
2.45099e-08
1.04456e-10
2.26265e-08
9.85747e-11
2.0401e-08
1.80596e-08
1.08782e-10
5.68595e-12
1.62352e-08
1.0008e-10
1.70358e-10
-2.31758e-12
1.44199e-08
1.02702e-10
2.00533e-10
-7.41189e-12
1.24383e-08
9.87585e-11
-1.38103e-11
1.03505e-08
9.10475e-11
9.10371e-11
9.79725e-11
2.02133e-08
1.56379e-10
8.69978e-11
1.83942e-08
1.72828e-10
7.66363e-11
1.63375e-08
5.45322e-11
1.41487e-08
6.02476e-11
1.69507e-10
2.30634e-08
1.17619e-10
1.52178e-10
2.12119e-08
1.29437e-10
1.27723e-10
1.90613e-08
9.57725e-11
1.67652e-08
3.53577e-11
2.45025e-08
7.19299e-11
2.26177e-08
7.95911e-11
2.0418e-08
1.80716e-08
5.27725e-11
-6.49259e-12
1.61357e-08
5.32098e-11
9.1037e-11
-1.23229e-11
1.43378e-08
5.61943e-11
1.11487e-10
-1.68174e-11
1.23776e-08
5.70618e-11
-2.12193e-11
1.03106e-08
5.58355e-11
5.0826e-11
4.24168e-11
2.01136e-08
8.72922e-11
3.45005e-11
1.8311e-08
1.01588e-10
2.68011e-11
1.62796e-08
1.53308e-11
1.41133e-08
3.6818e-11
7.7664e-11
2.29914e-08
6.81066e-11
6.67024e-11
2.11484e-08
8.04951e-11
5.5366e-11
1.90204e-08
3.86834e-11
1.67413e-08
2.64958e-11
2.44797e-08
4.71541e-11
2.26019e-08
5.80464e-11
2.04143e-08
1.80709e-08
3.03065e-11
-9.30432e-12
1.60841e-08
3.05479e-11
5.27218e-11
-1.38668e-11
1.4296e-08
3.32745e-11
6.62625e-11
-1.74239e-11
1.23463e-08
3.52307e-11
-2.04014e-11
1.02894e-08
3.60437e-11
3.00806e-11
1.65332e-11
2.00577e-08
5.17986e-11
1.04526e-11
1.8265e-08
6.26383e-11
5.10733e-12
1.62462e-08
-1.0654e-12
1.40919e-08
2.33243e-11
3.50277e-11
2.29496e-08
4.23861e-11
2.74541e-11
2.11124e-08
5.23518e-11
2.07297e-11
1.89948e-08
1.25469e-11
1.67252e-08
1.81862e-11
2.44597e-08
3.23351e-11
2.25866e-08
4.11008e-11
2.04051e-08
1.80661e-08
1.79392e-11
-9.28031e-12
1.60565e-08
1.89573e-11
3.1948e-11
-1.26634e-11
1.42735e-08
2.11492e-11
4.11964e-11
-1.52784e-11
1.23293e-08
2.304e-11
-1.74231e-11
1.02776e-08
2.42965e-11
1.84117e-11
4.35901e-12
2.00256e-08
3.21397e-11
-1.68967e-14
1.82386e-08
4.01652e-11
-3.6646e-12
1.62266e-08
-7.22831e-12
1.40789e-08
1.53558e-11
1.4605e-11
2.29239e-08
2.7676e-11
9.56391e-12
2.10905e-08
3.51529e-11
5.2168e-12
1.89785e-08
6.76585e-13
1.67145e-08
1.25871e-11
2.44442e-08
2.26962e-11
2.2574e-08
2.95185e-11
2.03962e-08
1.80602e-08
1.1118e-11
-8.05026e-12
1.6041e-08
1.24881e-11
2.02188e-11
-1.05511e-11
1.42609e-08
1.41349e-11
2.66773e-11
-1.24914e-11
1.23197e-08
1.57144e-11
-1.4061e-11
1.02708e-08
1.68759e-11
1.16829e-11
-8.21174e-13
2.00067e-08
2.07472e-11
-4.01369e-12
1.8223e-08
2.66472e-11
-6.49688e-12
1.62147e-08
-8.63687e-12
1.40706e-08
1.03948e-11
5.18936e-12
2.29075e-08
1.8676e-11
1.70388e-12
2.10765e-08
2.42594e-11
-1.33502e-12
1.89677e-08
-3.75656e-12
1.6707e-08
8.89203e-12
2.44326e-08
1.62867e-11
2.25643e-08
2.1323e-11
2.03886e-08
1.80549e-08
7.13898e-12
-6.57862e-12
1.60319e-08
8.5627e-12
1.32312e-11
-8.38227e-12
1.42535e-08
9.77336e-12
1.78057e-11
-9.81309e-12
1.2314e-08
1.09913e-11
-1.09462e-11
1.02666e-08
1.19237e-11
7.63816e-12
-2.7187e-12
1.99952e-08
1.3805e-11
-4.9862e-12
1.82135e-08
1.81295e-11
-6.69524e-12
1.62074e-08
-8.03717e-12
1.40654e-08
7.11361e-12
9.64185e-13
2.28967e-08
1.29998e-11
-1.71418e-12
2.10673e-08
1.70257e-11
-3.43362e-12
1.89605e-08
-4.9039e-12
1.67018e-08
6.45414e-12
2.4424e-08
1.17132e-11
2.25569e-08
1.5473e-11
2.03827e-08
1.80506e-08
4.70121e-12
-5.1547e-12
1.60264e-08
5.99515e-12
8.86461e-12
-6.45608e-12
1.4249e-08
6.87261e-12
1.2118e-11
-7.49016e-12
1.23105e-08
7.77696e-12
-8.30341e-12
1.02641e-08
8.47708e-12
5.10298e-12
-3.07088e-12
1.9988e-08
9.37045e-12
-4.69282e-12
1.82075e-08
1.2517e-11
-5.84391e-12
1.62027e-08
-6.72953e-12
1.40619e-08
4.97784e-12
-8.42055e-13
2.28894e-08
9.08163e-12
-2.60096e-12
2.10611e-08
1.20331e-11
-3.82099e-12
1.89555e-08
-4.68593e-12
1.66981e-08
4.64652e-12
2.44177e-08
8.45396e-12
2.25514e-08
1.12046e-11
2.03782e-08
1.80472e-08
3.13702e-12
-3.89722e-12
1.60229e-08
4.21102e-12
5.99568e-12
-4.81305e-12
1.42462e-08
4.83084e-12
8.29571e-12
-5.55416e-12
1.23083e-08
5.48342e-12
-6.1297e-12
1.02624e-08
5.99004e-12
3.43373e-12
-2.74434e-12
1.99834e-08
6.38943e-12
-3.89347e-12
1.82037e-08
8.66154e-12
-4.69858e-12
1.61996e-08
-5.27199e-12
1.40597e-08
3.46675e-12
-1.33369e-12
2.28845e-08
6.34327e-12
-2.57411e-12
2.10569e-08
8.45557e-12
-3.38718e-12
1.89521e-08
-3.92966e-12
1.66956e-08
3.32702e-12
2.44131e-08
6.04027e-12
2.25474e-08
8.02227e-12
2.03749e-08
1.80446e-08
2.08492e-12
-2.81679e-12
1.60208e-08
2.90005e-12
4.01678e-12
-3.44262e-12
1.42445e-08
3.32791e-12
5.60609e-12
-3.95804e-12
1.2307e-08
3.78064e-12
-4.35282e-12
1.02614e-08
4.13218e-12
2.29809e-12
-2.18298e-12
1.99804e-08
4.30593e-12
-2.95882e-12
1.82013e-08
5.89673e-12
-3.50962e-12
1.61977e-08
-3.88509e-12
1.40582e-08
2.37059e-12
-1.28717e-12
2.28813e-08
4.34562e-12
-2.12639e-12
2.10541e-08
5.8147e-12
-2.66444e-12
1.89498e-08
-3.01655e-12
1.66938e-08
2.32437e-12
2.44099e-08
4.21302e-12
2.25445e-08
5.60088e-12
2.03725e-08
1.80428e-08
1.33545e-12
-1.88498e-12
1.60195e-08
1.88553e-12
2.57769e-12
-2.28803e-12
1.42434e-08
2.16252e-12
3.61567e-12
-2.62298e-12
1.23061e-08
2.45855e-12
-2.87589e-12
1.02608e-08
2.68707e-12
1.47747e-12
-1.53384e-12
1.99786e-08
2.77752e-12
-2.0405e-12
1.81997e-08
3.82151e-12
-2.38808e-12
1.61965e-08
-2.62101e-12
1.40572e-08
1.55001e-12
-9.80998e-13
2.28791e-08
2.82705e-12
-1.51924e-12
2.10523e-08
3.79641e-12
-1.86685e-12
1.89483e-08
-2.07139e-12
1.66927e-08
1.5408e-12
2.44077e-08
2.78813e-12
2.25426e-08
3.69355e-12
2.0371e-08
1.80416e-08
7.92923e-13
-1.02734e-12
1.60187e-08
1.04031e-12
1.49938e-12
-1.24988e-12
1.42428e-08
1.19566e-12
2.0884e-12
-1.43388e-12
1.23056e-08
1.36211e-12
-1.57184e-12
1.02604e-08
1.49029e-12
8.72107e-13
-8.2027e-13
1.99775e-08
1.61555e-12
-1.09665e-12
1.81988e-08
2.21153e-12
-1.28339e-12
1.61957e-08
-1.40472e-12
1.40566e-08
9.18772e-13
-4.9229e-13
2.28778e-08
1.65463e-12
-7.8404e-13
2.10512e-08
2.21167e-12
-9.61264e-13
1.89474e-08
-1.06447e-12
1.6692e-08
9.15304e-13
2.44064e-08
1.64548e-12
2.25415e-08
2.16881e-12
2.037e-08
1.80408e-08
3.95094e-13
-2.21424e-13
3.19822e-13
7.64621e-13
-3.09439e-13
3.90744e-13
1.02308e-12
-3.65825e-13
4.55418e-13
-4.0515e-13
5.07272e-13
4.3779e-13
-1.89093e-14
8.32664e-13
-1.15126e-13
1.10543e-12
-1.60354e-13
-1.81827e-13
4.63764e-13
2.25903e-13
8.58505e-13
1.35929e-13
1.12827e-12
1.01183e-13
9.32299e-14
4.593e-13
8.53607e-13
1.12211e-12
-1.80745e-09
-5.97066e-09
2.40086e-08
-4.15382e-10
1.81074e-09
1.72102e-08
-4.85358e-10
1.40142e-09
2.19547e-08
1.879e-09
1.96835e-08
2.05317e-10
-1.20752e-09
8.80623e-09
-7.568e-10
-2.16554e-09
2.30476e-08
1.99079e-10
8.1539e-10
2.05143e-08
9.00256e-10
2.37759e-08
2.44604e-10
-9.91581e-11
1.01481e-08
8.19803e-10
-1.36049e-09
1.45801e-08
4.49253e-10
-2.04596e-09
2.18414e-08
-1.51533e-09
2.28054e-08
-3.47164e-10
1.13667e-08
3.07764e-10
1.05964e-08
4.70048e-10
1.29564e-08
1.56398e-08
4.862e-10
1.18956e-10
2.18574e-08
-7.86839e-10
1.19705e-09
1.73475e-08
1.53621e-09
1.27908e-09
1.83011e-08
-3.31887e-09
3.03136e-08
3.44771e-10
2.54292e-09
5.82696e-09
-6.1876e-10
-1.49083e-09
2.6699e-08
2.39949e-10
-9.70037e-10
2.19047e-08
-3.90597e-09
2.76363e-08
-1.68826e-09
-4.3916e-09
2.03252e-08
-4.98715e-10
1.29067e-09
1.06091e-08
-1.62498e-09
-2.21763e-10
2.22194e-08
5.53806e-09
1.1862e-08
8.37767e-10
8.87907e-09
-7.38218e-10
1.5631e-08
2.23361e-09
1.12322e-08
3.16587e-08
1.31499e-11
-1.3641e-10
2.31068e-08
3.26113e-10
2.79011e-09
1.43934e-08
1.62389e-09
-1.49433e-09
1.85492e-08
-5.22553e-09
4.12699e-08
6.52843e-10
-1.29961e-09
6.84845e-09
-1.52333e-09
-1.55357e-09
3.32189e-08
5.76788e-11
-2.21522e-09
2.10446e-08
5.8824e-10
2.32181e-08
-1.19808e-09
1.26984e-10
1.99592e-08
-7.95674e-10
7.36119e-11
8.5795e-09
1.42861e-09
1.38416e-09
1.63957e-08
-1.63431e-09
1.55216e-08
-5.96823e-10
9.26241e-09
-2.93839e-10
1.46629e-08
-5.07167e-10
1.47849e-08
2.22894e-08
-4.33547e-11
-2.49374e-09
2.59801e-08
-4.85603e-11
-1.42815e-09
1.5836e-08
8.95068e-10
-8.38175e-10
1.84831e-08
-2.58034e-09
4.48861e-08
1.52396e-10
-2.441e-09
6.85184e-09
5.27374e-12
2.58009e-09
2.93578e-08
6.36944e-10
-4.15913e-10
1.99906e-08
-5.68277e-11
2.0718e-08
2.0693e-09
2.96762e-09
1.10732e-08
-1.07916e-09
-1.85546e-09
1.61635e-08
8.78423e-10
8.41422e-10
1.31808e-08
-1.68145e-09
1.71947e-08
-1.75146e-11
1.04952e-08
7.69713e-10
1.10362e-08
-8.98721e-10
1.74127e-08
1.74384e-08
1.21212e-09
3.65079e-09
2.04869e-08
-2.64019e-11
-1.66758e-09
1.88126e-08
-6.46377e-10
-7.42209e-10
1.99555e-08
1.92072e-10
4.34235e-08
-4.09129e-10
-5.8028e-10
1.17106e-08
-4.36092e-11
2.39201e-09
2.49327e-08
-1.3187e-10
7.32877e-10
1.86038e-08
1.98223e-09
1.60799e-08
4.7895e-10
-1.92286e-09
1.14118e-08
-4.01268e-10
1.13785e-09
1.82979e-08
5.9765e-10
9.15884e-10
1.19989e-08
1.02786e-09
1.98935e-08
1.78735e-09
4.41902e-09
-4.59881e-10
1.46758e-08
1.29625e-09
1.51754e-08
2.25686e-08
4.34731e-10
4.76629e-09
1.41711e-08
7.4578e-10
-3.61724e-09
2.19589e-08
-5.22887e-10
1.43564e-09
1.98378e-08
3.95821e-09
3.93172e-08
-2.27239e-09
4.09669e-09
1.31393e-08
2.66945e-09