/*--------------------------------*- C++ -*----------------------------------*\
| =========                 |                                                 |
| \\      /  F ield         | OpenFOAM: The Open Source CFD Toolbox           |
|  \\    /   O peration     | Version:  2506                                  |
|   \\  /    A nd           | Website:  www.openfoam.com                      |
|    \\/     M anipulation  |                                                 |
\*---------------------------------------------------------------------------*/
FoamFile
{
    version     2.0;
    format      ascii;
    arch        "LSB;label=32;scalar=64";
    class       volScalarField;
    location    "0.02";
    object      voidfraction;
}
// * * * * * * * * * * * * * * * * * * * * * * * * * * * * * * * * * * * * * //

dimensions      [0 0 0 0 0 0 0];

internalField   nonuniform List<scalar> 
1152
(
0.39433
0.44963
0.45753
0.383796
0.431196
0.460163
0.381163
0.381163
0.47333
0.436463
0.46543
0.436463
0.41013
0.541797
0.47333
0.42593
0.39433
0.44963
0.47333
0.304796
0.428563
0.44963
0.352196
0.381163
0.404863
0.446997
0.470697
0.344296
0.42593
0.38643
0.420663
0.357463
0.357463
0.399596
0.344296
0.312696
0.352196
0.352196
0.431196
0.41803
0.391696
0.407496
0.370629
0.452263
0.367996
0.460163
0.344296
0.370629
0.399596
0.452263
0.357463
0.44173
0.48123
0.396963
0.436463
0.41803
0.349563
0.399596
0.38643
0.325862
0.367996
0.46543
0.431196
0.51283
0.362729
0.352196
0.349563
0.407496
0.391696
0.41803
0.420663
0.389063
0.404863
0.42593
0.354829
0.48123
0.47333
0.352196
0.344296
0.357463
0.357463
0.46543
0.444363
0.446997
0.41013
0.423296
0.404863
0.444363
0.444363
0.454897
0.375896
0.468063
0.444363
0.415396
0.412763
0.428563
0.752465
0.710332
0.691898
0.618164
0.789332
0.705065
0.604998
0.539164
0.736665
0.676098
0.612898
0.705065
0.749832
0.615531
0.547064
0.602364
1
1
1
1
1
1
1
1
1
1
1
1
1
1
1
1
1
1
1
1
1
1
1
1
1
1
1
1
1
1
1
1
1
1
1
1
1
1
1
1
1
1
1
1
1
1
1
1
1
1
1
1
1
1
1
1
1
1
1
1
1
1
1
1
1
1
1
1
1
1
1
1
1
1
1
1
1
1
1
1
1
1
1
1
1
1
1
1
1
1
1
1
1
1
1
1
1
1
1
1
1
1
1
1
1
1
1
1
1
1
1
1
1
1
1
1
1
1
1
1
1
1
1
1
1
1
1
1
1
1
1
1
1
1
1
1
1
1
1
1
1
1
1
1
1
1
1
1
1
1
1
1
1
1
1
1
1
1
1
1
1
1
1
1
1
1
1
1
1
1
1
1
1
1
1
1
1
1
1
1
1
1
1
1
1
1
1
1
1
1
1
1
1
1
1
1
1
1
1
1
1
1
1
1
1
1
1
1
1
1
1
1
1
1
1
1
1
1
1
1
1
1
1
1
1
1
1
1
1
1
1
1
1
1
1
1
1
1
1
1
1
1
1
1
1
1
1
1
1
1
1
1
1
1
1
1
1
1
1
1
1
1
1
1
1
1
1
1
1
1
1
1
0.468532
0.430693
0.463241
0.44361
0.384702
0.44212
0.448792
0.464002
0.443532
0.471422
0.413576
0.396362
0.416568
0.410519
0.471586
0.466251
0.473928
0.433788
0.394332
0.373514
0.378179
0.439684
0.396164
0.40302
0.422569
0.384736
0.375589
0.382827
0.380775
0.42041
0.420735
0.408616
0.473928
0.427599
0.379825
0.417324
0.460799
0.437248
0.401704
0.48005
0.407323
0.412222
0.427821
0.366586
0.382564
0.376891
0.33893
0.446204
0.406483
0.390471
0.405212
0.294655
0.345566
0.459173
0.404474
0.431906
0.432097
0.435479
0.43257
0.401776
0.416568
0.35711
0.367672
0.411122
0.476626
0.353342
0.423346
0.347228
0.395573
0.420195
0.382315
0.40623
0.456872
0.384736
0.423073
0.40719
0.411199
0.398651
0.420735
0.391075
0.409181
0.353342
0.426973
0.465515
0.393399
0.408014
0.421093
0.438325
0.405417
0.433365
0.363718
0.431552
0.434465
0.416454
0.438422
0.453722
0.681659
0.702971
0.786022
0.802854
0.639083
0.768565
0.811648
0.833102
0.765597
0.879484
0.833807
0.756379
0.67428
0.748778
0.818703
0.761943
1
1
1
1
1
1
1
1
1
1
1
1
1
1
1
1
1
1
1
1
1
1
1
1
1
1
1
1
1
1
1
1
1
1
1
1
1
1
1
1
1
1
1
1
1
1
1
1
1
1
1
1
1
1
1
1
1
1
1
1
1
1
1
1
1
1
1
1
1
1
1
1
1
1
1
1
1
1
1
1
1
1
1
1
1
1
1
1
1
1
1
1
1
1
1
1
1
1
1
1
1
1
1
1
1
1
1
1
1
1
1
1
1
1
1
1
1
1
1
1
1
1
1
1
1
1
1
1
1
1
1
1
1
1
1
1
1
1
1
1
1
1
1
1
1
1
1
1
1
1
1
1
1
1
1
1
1
1
1
1
1
1
1
1
1
1
1
1
1
1
1
1
1
1
1
1
1
1
1
1
1
1
1
1
1
1
1
1
1
1
1
1
1
1
1
1
1
1
1
1
1
1
1
1
1
1
1
1
1
1
1
1
1
1
1
1
1
1
1
1
1
1
1
1
1
1
1
1
1
1
1
1
1
1
1
1
1
1
1
1
1
1
1
1
1
1
1
1
1
1
1
1
1
1
1
1
1
1
1
1
1
1
1
1
1
1
1
1
1
1
1
1
0.495511
0.426012
0.468306
0.391513
0.412129
0.451865
0.424908
0.412498
0.412466
0.415554
0.439692
0.476008
0.421705
0.40623
0.41531
0.373534
0.457741
0.432534
0.390172
0.423727
0.356436
0.395833
0.431251
0.450082
0.390705
0.421093
0.453937
0.403047
0.430467
0.386972
0.401776
0.463745
0.414576
0.382528
0.407323
0.434465
0.393565
0.483535
0.422793
0.410519
0.506762
0.346306
0.411202
0.374305
0.386657
0.454373
0.401776
0.463745
0.465835
0.410792
0.3997
0.495313
0.368812
0.44212
0.418565
0.424366
0.387079
0.393394
0.38746
0.414102
0.430467
0.354876
0.401776
0.37604
0.460439
0.393399
0.411135
0.450572
0.375
0.464045
0.407993
0.402607
0.408839
0.437713
0.380338
0.38536
0.364752
0.412649
0.412603
0.41864
0.436159
0.456451
0.432097
0.493524
0.436882
0.451865
0.414336
0.398651
0.401586
0.421093
0.385086
0.425157
0.338465
0.422277
0.412603
0.458734
0.573747
0.593425
0.580743
0.663542
0.653466
0.544439
0.591938
0.639982
0.666339
0.678693
0.724594
0.796594
0.706471
0.733606
0.732017
0.684261
1
1
0.996189
1
1
1
1
1
1
1
1
1
1
1
1
1
1
1
1
1
1
1
1
1
1
1
1
1
1
1
1
1
1
1
1
1
1
1
1
1
1
1
1
1
1
1
1
1
1
1
1
1
1
1
1
1
1
1
1
1
1
1
1
1
1
1
1
1
1
1
1
1
1
1
1
1
1
1
1
1
1
1
1
1
1
1
1
1
1
1
1
1
1
1
1
1
1
1
1
1
1
1
1
1
1
1
1
1
1
1
1
1
1
1
1
1
1
1
1
1
1
1
1
1
1
1
1
1
1
1
1
1
1
1
1
1
1
1
1
1
1
1
1
1
1
1
1
1
1
1
1
1
1
1
1
1
1
1
1
1
1
1
1
1
1
1
1
1
1
1
1
1
1
1
1
1
1
1
1
1
1
1
1
1
1
1
1
1
1
1
1
1
1
1
1
1
1
1
1
1
1
1
1
1
1
1
1
1
1
1
1
1
1
1
1
1
1
1
1
1
1
1
1
1
1
1
1
1
1
1
1
1
1
1
1
1
1
1
1
1
1
1
1
1
1
1
1
1
1
1
1
1
1
1
1
1
1
1
1
1
1
1
1
1
1
1
1
1
1
1
1
1
)
;

boundaryField
{
    inlet
    {
        type            fixedValue;
        value           uniform 1;
    }
    outlet
    {
        type            fixedValue;
        value           uniform 1;
    }
    wall
    {
        type            zeroGradient;
    }
    procBoundary0to1
    {
        type            processor;
        value           nonuniform List<scalar> 
192
(
0.525997
0.444363
0.44963
0.404863
0.404863
0.396963
0.412763
0.399596
0.48123
0.367996
0.389063
0.412763
0.344296
0.367996
0.41013
0.346929
0.43383
0.42593
0.431196
0.462797
0.362729
0.47333
0.381163
0.346929
0.715598
0.662931
0.641864
0.515464
1
1
1
0.997367
1
1
1
1
1
1
1
1
1
1
1
1
1
1
1
1
1
1
1
1
1
1
1
1
1
1
1
1
1
1
1
1
1
1
1
1
1
1
1
1
1
1
1
1
1
1
1
1
1
1
1
1
1
1
1
1
1
1
1
1
1
1
1
1
0.534686
0.446126
0.48043
0.483792
0.416568
0.412498
0.425157
0.441193
0.359299
0.382826
0.391992
0.325923
0.344981
0.34722
0.447266
0.363511
0.395092
0.410519
0.427367
0.383558
0.334243
0.473819
0.394203
0.383558
0.711863
0.728997
0.745742
0.832107
1
1
1
1
1
1
1
1
1
1
1
1
1
1
1
1
1
1
1
1
1
1
1
1
1
1
1
1
1
1
1
1
1
1
1
1
1
1
1
1
1
1
1
1
1
1
1
1
1
1
1
1
1
1
1
1
1
1
1
1
1
1
1
1
1
1
1
1
)
;
    }
    procBoundary0to2
    {
        type            processor;
        value           nonuniform List<scalar> 
192
(
0.420663
0.381163
0.407496
0.360096
0.431196
0.367996
0.407496
0.310062
0.396963
0.404863
0.399596
0.491764
0.41803
0.362729
0.39433
0.404863
0.352196
0.404863
0.428563
0.436463
0.45753
0.39433
0.381163
0.349563
0.649764
0.615531
0.599731
0.604998
1
1
1
1
1
1
1
1
1
1
1
1
1
1
1
1
1
1
1
1
1
1
1
1
1
1
1
1
1
1
1
1
1
1
1
1
1
1
1
1
1
1
1
1
1
1
1
1
1
1
1
1
1
1
1
1
1
1
1
1
1
1
1
1
1
1
1
1
0.445203
0.461951
0.372094
0.453722
0.366457
0.406563
0.327875
0.361005
0.45773
0.525251
0.425157
0.46124
0.450572
0.463929
0.40968
0.426158
0.443413
0.386782
0.367672
0.433675
0.439834
0.507447
0.387571
0.438687
0.754815
0.86351
0.803227
0.794519
1
1
1
1
1
1
1
1
1
1
1
1
1
1
1
1
1
1
1
1
1
1
1
1
1
1
1
1
1
1
1
1
1
1
1
1
1
1
1
1
1
1
1
1
1
1
1
1
1
1
1
1
1
1
1
1
1
1
1
1
1
1
1
1
1
1
1
1
)
;
    }
}


// ************************************************************************* //
