/*--------------------------------*- C++ -*----------------------------------*\
| =========                 |                                                 |
| \\      /  F ield         | OpenFOAM: The Open Source CFD Toolbox           |
|  \\    /   O peration     | Version:  2506                                  |
|   \\  /    A nd           | Website:  www.openfoam.com                      |
|    \\/     M anipulation  |                                                 |
\*---------------------------------------------------------------------------*/
FoamFile
{
    version     2.0;
    format      ascii;
    arch        "LSB;label=32;scalar=64";
    class       volScalarField;
    location    "0.07";
    object      Ksl;
}
// * * * * * * * * * * * * * * * * * * * * * * * * * * * * * * * * * * * * * //

dimensions      [1 -3 -1 0 0 0 0];

internalField   nonuniform List<scalar> 
1152
(
138544
122785
235309
195762
117856
229161
143096
217122
184287
159057
262577
131327
185515
254526
257734
309662
436827
172659
232636
230131
243968
211589
246873
212244
277057
294868
185574
235618
260734
287980
175192
181862
219335
173680
239977
226283
246905
180474
226145
286709
296225
226740
253024
211294
184836
379821
200358
227697
342040
239387
313812
226516
230142
208123
219246
219524
255718
241709
310728
262241
224432
183569
242161
374702
274347
271577
218739
247918
450896
245034
232193
234081
192277
216293
205985
212963
365755
133428
277061
139474
174969
230243
263140
266727
173052
336269
238454
221498
253344
169789
299241
326083
303470
238354
291606
172512
48309.4
59290.2
84148.8
42361.1
161226
133348
110103
66238.5
99278.1
71270.9
171454
92623.8
209408
96083
150896
36612.2
0
0
0
0
0
0
0
0
0
0
551.302
0
0
1343.41
1048.33
0
0
0
0
0
0
0
0
0
0
0
0
0
0
0
0
0
0
0
0
0
0
0
0
0
0
0
0
0
0
0
0
0
0
0
0
0
0
0
0
0
0
0
0
0
0
0
0
0
0
0
0
0
0
0
0
0
0
0
0
0
0
0
0
0
0
0
0
0
0
0
0
0
0
0
0
0
0
0
0
0
0
0
0
0
0
0
0
0
0
0
0
0
0
0
0
0
0
0
0
0
0
0
0
0
0
0
0
0
0
0
0
0
0
0
0
0
0
0
0
0
0
0
0
0
0
0
0
0
0
0
0
0
0
0
0
0
0
0
0
0
0
0
0
0
0
0
0
0
0
0
0
0
0
0
0
0
0
0
0
0
0
0
0
0
0
0
0
0
0
0
0
0
0
0
0
0
0
0
0
0
0
0
0
0
0
0
0
0
0
0
0
0
0
0
0
0
0
0
0
0
0
0
0
0
0
0
0
0
0
0
0
0
0
0
0
0
0
0
0
0
0
0
0
0
0
0
0
0
0
0
0
0
0
0
0
0
0
0
0
0
0
0
0
0
0
0
0
0
0
0
0
0
0
0
0
0
171640
209636
145640
225641
299011
235787
203498
213874
159520
173520
185272
188013
125707
185205
161795
244229
180452
215705
136798
165651
249755
163248
271371
246280
172866
214464
178854
95346.1
238319
232172
294811
264125
193838
204524
218364
200847
159683
197866
268568
238884
262328
182453
169914
270032
282018
282228
205689
244336
197578
219702
219945
133458
266770
292224
264874
259415
214251
176982
286743
221171
421877
272458
256875
206716
194809
230997
145901
220425
208210
302816
185644
263321
166031
181037
178350
508643
201022
185832
350581
259539
191190
162810
259049
191933
222249
294014
194418
183027
249358
299460
346335
210679
150855
215945
221848
247714
62013.3
50487.7
47783.6
141369
51705
55881
82561.3
88263.3
43889.5
23418.6
33300.7
75914.7
38768.8
88978.9
23587.3
43323.3
0
0
0
0
0
0
0
0
0
0
0
0
0
0
0
0
0
0
0
0
0
0
0
0
0
0
0
0
0
0
0
0
0
0
0
0
0
0
0
0
0
0
0
0
0
0
0
0
0
0
0
0
0
0
0
0
0
0
0
0
0
0
0
0
0
0
0
0
0
0
0
0
0
0
0
0
0
0
0
0
0
0
0
0
0
0
0
0
0
0
0
0
0
0
0
0
0
0
0
0
0
0
0
0
0
0
0
0
0
0
0
0
0
0
0
0
0
0
0
0
0
0
0
0
0
0
0
0
0
0
0
0
0
0
0
0
0
0
0
0
0
0
0
0
0
0
0
0
0
0
0
0
0
0
0
0
0
0
0
0
0
0
0
0
0
0
0
0
0
0
0
0
0
0
0
0
0
0
0
0
0
0
0
0
0
0
0
0
0
0
0
0
0
0
0
0
0
0
0
0
0
0
0
0
0
0
0
0
0
0
0
0
0
0
0
0
0
0
0
0
0
0
0
0
0
0
0
0
0
0
0
0
0
0
0
0
0
0
0
0
0
0
0
0
0
0
0
0
0
0
0
0
0
0
0
0
0
0
0
0
0
0
0
0
0
0
0
0
0
0
0
0
185163
213735
166182
200485
156250
213106
219044
151053
299519
200321
158358
155641
141241
288305
113731
146018
183511
121076
262787
95456.4
136201
320671
258489
159813
234084
209539
309265
250001
203432
250416
240760
161697
238365
284848
371517
218114
359849
224967
186385
240473
162975
202412
222684
198305
185766
165134
199965
328977
286003
210014
255540
186714
221613
214372
206498
211500
306706
241876
229045
169710
194890
441849
153203
208540
202924
468557
223685
148932
201372
347223
220706
250822
269256
192799
224007
259144
169102
162280
215187
200798
155488
331844
253005
202504
100362
193700
167873
206264
254247
267844
223696
176888
324762
278464
350001
312031
84110.7
103673
83376.9
47705.8
52483.9
41440.7
99353.1
113381
25336
34119
29594.2
161031
72829.6
26815.4
69689.7
48763.7
0
0
0
0
0
0
0
0
0
0
0
4612.73
0
0
0
0
0
0
0
0
0
0
0
0
0
0
0
0
0
0
0
0
0
0
0
0
0
0
0
0
0
0
0
0
0
0
0
0
0
0
0
0
0
0
0
0
0
0
0
0
0
0
0
0
0
0
0
0
0
0
0
0
0
0
0
0
0
0
0
0
0
0
0
0
0
0
0
0
0
0
0
0
0
0
0
0
0
0
0
0
0
0
0
0
0
0
0
0
0
0
0
0
0
0
0
0
0
0
0
0
0
0
0
0
0
0
0
0
0
0
0
0
0
0
0
0
0
0
0
0
0
0
0
0
0
0
0
0
0
0
0
0
0
0
0
0
0
0
0
0
0
0
0
0
0
0
0
0
0
0
0
0
0
0
0
0
0
0
0
0
0
0
0
0
0
0
0
0
0
0
0
0
0
0
0
0
0
0
0
0
0
0
0
0
0
0
0
0
0
0
0
0
0
0
0
0
0
0
0
0
0
0
0
0
0
0
0
0
0
0
0
0
0
0
0
0
0
0
0
0
0
0
0
0
0
0
0
0
0
0
0
0
0
0
0
0
0
0
0
0
0
0
0
0
0
0
0
0
0
0
0
0
)
;

boundaryField
{
    inlet
    {
        type            zeroGradient;
    }
    outlet
    {
        type            zeroGradient;
    }
    wall
    {
        type            zeroGradient;
    }
    procBoundary1to0
    {
        type            processor;
        value           nonuniform List<scalar> 
192
(
223876
200539
213912
104766
206277
215756
233791
173463
308281
283881
169911
175945
132276
271969
261115
413818
232635
120975
286579
311116
242954
276324
166523
154227
46133.4
65301
87446.7
81818.5
0
0
0
0
0
0
0
0
0
0
0
0
0
0
0
0
0
0
0
0
0
0
0
0
0
0
0
0
0
0
0
0
0
0
0
0
0
0
0
0
0
0
0
0
0
0
0
0
0
0
0
0
0
0
0
0
0
0
0
0
0
0
0
0
0
0
0
0
225776
138691
219135
299589
225860
197355
222221
213023
172828
240888
254599
238244
277942
141318
242767
195828
203965
388256
367915
261561
201402
221125
229830
362565
49713.1
31827.4
39786.8
48377.1
0
0
0
0
0
0
0
0
0
0
0
0
0
0
0
0
0
0
0
0
0
0
0
0
0
0
0
0
0
0
0
0
0
0
0
0
0
0
0
0
0
0
0
0
0
0
0
0
0
0
0
0
0
0
0
0
0
0
0
0
0
0
0
0
0
0
0
0
)
;
    }
    procBoundary1to3
    {
        type            processor;
        value           nonuniform List<scalar> 
192
(
174088
140346
98041.3
220399
173453
154701
224836
351708
298571
337921
192275
141622
236838
241651
286080
170915
137009
764955
192275
268431
226436
124353
252732
353841
51259.3
100435
57210.9
24783.7
0
0
0
0
0
0
0
0
0
0
0
0
0
0
0
0
0
0
0
0
0
0
0
0
0
0
0
0
0
0
0
0
0
0
0
0
0
0
0
0
0
0
0
0
0
0
0
0
0
0
0
0
0
0
0
0
0
0
0
0
0
0
0
0
0
0
0
0
236092
148666
283969
238568
261485
167545
116308
230979
333435
267369
393653
183493
262085
266455
184384
306931
317837
219682
290147
183538
160682
196770
174438
186489
28785.5
38206
49428.2
46510.7
0
0
0
0
0
0
0
0
0
0
0
0
0
0
0
0
0
0
0
0
0
0
0
0
0
0
0
0
0
0
0
0
0
0
0
0
0
0
0
0
0
0
0
0
0
0
0
0
0
0
0
0
0
0
0
0
0
0
0
0
0
0
0
0
0
0
0
0
)
;
    }
}


// ************************************************************************* //
