/*--------------------------------*- C++ -*----------------------------------*\
| =========                 |                                                 |
| \\      /  F ield         | OpenFOAM: The Open Source CFD Toolbox           |
|  \\    /   O peration     | Version:  2506                                  |
|   \\  /    A nd           | Website:  www.openfoam.com                      |
|    \\/     M anipulation  |                                                 |
\*---------------------------------------------------------------------------*/
FoamFile
{
    version     2.0;
    format      ascii;
    arch        "LSB;label=32;scalar=64";
    class       volVectorField;
    location    "0.07";
    object      U;
}
// * * * * * * * * * * * * * * * * * * * * * * * * * * * * * * * * * * * * * //

dimensions      [0 1 -1 0 0 0 0];

internalField   nonuniform List<vector> 
1152
(
(0.00214838 -0.000651069 0.0210496)
(-0.000464774 -0.000788259 0.0257612)
(-7.04572e-06 -0.000416236 0.0129622)
(0.00299393 -0.000717267 0.0143115)
(-3.9954e-05 -0.00126055 0.0247988)
(-0.000216489 -0.00126608 0.0126912)
(0.000536766 -0.000304073 0.0211039)
(0.00107548 0.000340109 0.0125619)
(-0.000510664 0.000462627 0.0147868)
(0.00100987 -0.00119911 0.0190504)
(0.00151375 0.000687478 0.0100599)
(0.000339824 7.30346e-05 0.0238455)
(-0.00261886 0.00231544 0.0154231)
(0.000699439 0.00193958 0.0102639)
(0.00145625 0.0032122 0.00960223)
(0.00164489 0.000272174 0.00893139)
(-0.000150628 -0.000218309 0.0146209)
(0.00283917 0.000980318 0.0399199)
(0.0013581 -0.00132725 0.0296622)
(0.00114222 -0.000492762 0.0280396)
(0.00117822 0.00136179 0.0287544)
(0.00267287 0.00124094 0.0340871)
(0.00060695 -0.00015541 0.0282012)
(0.00128094 -0.000306074 0.032865)
(-0.00159748 0.00246196 0.0253224)
(0.00185902 -0.000100744 0.0243745)
(0.00236379 0.000994269 0.0372425)
(0.00271467 0.00139592 0.0295922)
(0.00131461 0.00081065 0.0268843)
(0.002196 -0.000653176 0.0249889)
(0.00362556 -0.00227253 0.0409658)
(0.000443025 0.00418907 0.040099)
(-0.00272061 0.000630878 0.0347761)
(-0.00120569 0.00107845 0.0437339)
(0.000248421 -0.000174808 0.03178)
(-0.000497251 0.00137721 0.0328072)
(0.000524514 0.000308161 0.0315714)
(0.000375851 0.00232446 0.0421508)
(0.000355308 -6.12418e-05 0.034078)
(-0.000198822 0.000605508 0.0265207)
(0.000805355 0.000389102 0.0266965)
(-0.000351734 0.00192824 0.0344562)
(-0.000309039 0.000412174 0.0300902)
(0.00132245 0.000217872 0.0363821)
(0.00437546 -0.00109985 0.0424062)
(0.000712865 -0.0013139 0.0204297)
(-0.00170009 -0.000102046 0.0378495)
(0.00120388 0.00176543 0.0341823)
(-0.000936241 -0.00105066 0.0221634)
(3.70476e-06 -0.00138891 0.0323876)
(0.00115088 0.000924732 0.0245701)
(0.00073388 0.00146805 0.0337737)
(-0.00335333 0.000514456 0.0333789)
(0.00026841 0.00234783 0.0366319)
(0.00193512 0.00148801 0.0348448)
(0.00146288 0.00110322 0.0356651)
(0.00176599 -6.64203e-05 0.0297996)
(0.0002212 0.00270264 0.0316911)
(0.00014615 0.000541583 0.0247571)
(-0.000722895 0.0014562 0.0292378)
(0.00412127 0.00116277 0.0342351)
(0.00130656 -3.02192e-06 0.0424791)
(0.00031511 -0.000345288 0.0320519)
(0.00040085 -6.63497e-05 0.0215954)
(0.00138045 -0.00108338 0.0272081)
(-0.00128724 -0.00144164 0.0280408)
(4.93334e-05 -0.000749595 0.034973)
(0.000649019 0.0011582 0.0318502)
(-0.000262732 -0.000836093 0.0158366)
(-0.00105287 -8.09003e-06 0.0297698)
(0.0017149 -9.72913e-05 0.0318756)
(0.00315937 0.000368147 0.0320359)
(-0.00123978 -0.00107192 0.0377628)
(-0.000493343 0.00109609 0.0343622)
(0.000268849 0.00084109 0.0351289)
(0.00161033 0.000900441 0.0361182)
(-0.00172947 0.000114267 0.0203366)
(0.000531028 0.00447304 0.0540281)
(0.00118394 0.00101168 0.0269853)
(0.00107634 -0.000103852 0.0567873)
(-0.000688494 -0.00380126 0.0273084)
(-0.000483724 -0.0019952 0.0212461)
(0.000392986 -0.00367062 0.0188449)
(-0.000484769 -0.000832718 0.0188256)
(0.000526225 -0.00334327 0.0284649)
(-1.43906e-05 -0.00146934 0.0160567)
(0.00113055 -0.00279957 0.0217109)
(0.00147472 -0.00134236 0.0223887)
(-0.000660264 -0.000102056 0.0201914)
(-0.000937384 -0.0014477 0.0295642)
(0.0009827 2.74947e-05 0.01735)
(0.00281308 0.000263135 0.0167097)
(-0.00136192 0.000752135 0.0172619)
(0.000284803 0.000686439 0.0216134)
(0.00191252 0.00203692 0.0179968)
(0.00290666 0.00459888 0.0292775)
(-6.5248e-05 0.000685507 0.0234342)
(0.000332525 8.06093e-05 0.0196957)
(-0.000264552 -0.000391387 0.0157956)
(-0.000759225 -6.56344e-05 0.0209137)
(-0.00133896 1.20349e-07 0.0114611)
(-0.000411081 -0.000201914 0.0145451)
(-0.000586114 0.000346191 0.0162549)
(-0.000657584 0.000271602 0.0194682)
(-0.000256822 0.000348017 0.0185572)
(0.000781094 -0.000165106 0.0249706)
(-0.00024782 3.10746e-05 0.0131033)
(-0.00133264 -0.000216098 0.0162314)
(-4.65843e-05 -0.000320601 0.0109985)
(-6.012e-05 0.000106329 0.0208637)
(-0.000279964 -0.000617523 0.0131598)
(-0.00176997 -0.000443172 0.0311019)
(-0.000118938 -0.000688398 0.0290657)
(9.43063e-05 -0.00142875 0.0216067)
(0.000428803 -0.00138214 0.018765)
(0.00111482 -0.00137686 0.0263601)
(-0.000631827 -0.000903462 0.0137549)
(-0.000397669 -0.00178991 0.00924249)
(0.000354987 -0.00212163 0.0115792)
(0.000868913 -0.00162169 0.0233008)
(-0.00129129 -0.000643894 0.0176567)
(-0.00121964 -0.00139522 0.0231765)
(0.00015557 -0.001077 -0.00651521)
(0.0012109 -0.00123104 0.0179531)
(-0.00156715 -0.00016872 0.00193307)
(-0.00114354 0.000209593 0.0104007)
(0.000272989 0.000503054 -0.000523523)
(0.00130401 -0.000276798 0.0303324)
(0.000905246 0.00154147 0.0107053)
(0.000778407 0.00139093 0.00913317)
(-0.000421661 0.00171136 0.00876105)
(-0.00077627 0.000652256 0.00983251)
(0.00126312 0.00110775 0.00856638)
(0.000619687 0.000533036 0.00762033)
(-0.000986091 0.00131401 0.00777317)
(-0.00191834 0.000447839 0.00982117)
(0.000548036 0.00054035 0.00878527)
(0.000932881 7.32472e-05 0.00933017)
(-0.000520249 0.000159799 0.00709146)
(-0.0023272 -0.000376199 0.00958243)
(0.000639378 -0.000872506 0.00759124)
(0.000153874 -0.000637232 0.00865341)
(-0.00145455 -0.00165356 0.00794133)
(-0.00189362 -0.00106888 0.0112096)
(0.000502157 0.000923445 0.0154249)
(0.000414524 0.000826411 0.0147167)
(-0.000107181 0.00081128 0.0145777)
(-0.000324656 0.000167022 0.0152178)
(0.000575143 0.000671071 0.0142854)
(0.000262427 0.000383156 0.0137375)
(-0.000472955 0.000524198 0.0136709)
(-0.00089236 4.23699e-05 0.014908)
(0.000264016 0.000279695 0.01405)
(0.00026467 9.49387e-06 0.0139485)
(-0.000424598 -6.21927e-05 0.0131661)
(-0.00115722 -0.000307451 0.0146288)
(0.000205615 -0.000423923 0.0136313)
(-9.43701e-05 -0.000436854 0.013596)
(-0.000784677 -0.000824421 0.0134965)
(-0.0010746 -0.000643029 0.0151173)
(0.000223347 0.000485576 0.0142139)
(0.000122078 0.000447044 0.0139496)
(-0.000123442 0.000431936 0.0138872)
(-0.000271782 0.000202654 0.0140741)
(0.000219964 0.000371365 0.0137478)
(5.52702e-05 0.000266077 0.0135562)
(-0.000254232 0.000252898 0.0135543)
(-0.000430543 7.7138e-05 0.0140003)
(0.000112977 0.000143349 0.0136054)
(4.91363e-06 2.73325e-05 0.0135764)
(-0.000292985 -3.85298e-05 0.0134123)
(-0.000527947 -0.000132502 0.0139715)
(4.54683e-05 -0.000181538 0.0134746)
(-0.000129579 -0.00024453 0.0135019)
(-0.000407131 -0.000365681 0.0135501)
(-0.000527896 -0.000336046 0.0141563)
(0.000103872 0.000267709 0.0143548)
(4.11095e-05 0.000237911 0.0142686)
(-6.18637e-05 0.000208396 0.01427)
(-0.000129773 9.59735e-05 0.014362)
(8.33527e-05 0.000201903 0.0141589)
(-3.16285e-06 0.000150053 0.0140989)
(-0.000131135 0.000110135 0.0141227)
(-0.000203357 2.19474e-05 0.0142939)
(3.49811e-05 7.22034e-05 0.0140743)
(-4.93689e-05 1.39454e-05 0.0140635)
(-0.000179742 -3.53602e-05 0.0140708)
(-0.000262291 -9.01727e-05 0.0142798)
(-1.24948e-05 -8.85049e-05 0.0140381)
(-0.000110828 -0.000137712 0.0140579)
(-0.000231102 -0.000188849 0.0141231)
(-0.000284407 -0.00020014 0.0143457)
(4.59758e-05 0.000142569 0.0144209)
(9.27733e-06 0.000122066 0.0143891)
(-3.72147e-05 9.99121e-05 0.0143928)
(-6.98132e-05 4.80809e-05 0.0144247)
(2.80143e-05 0.000104271 0.0143334)
(-1.80575e-05 7.53589e-05 0.0143145)
(-7.31074e-05 4.64351e-05 0.0143316)
(-0.000104033 2.88111e-06 0.0143956)
(1.16823e-06 3.43179e-05 0.0142885)
(-4.81259e-05 2.31277e-06 0.0142877)
(-0.000105371 -2.83403e-05 0.0143128)
(-0.000137044 -6.00168e-05 0.0143967)
(-2.77607e-05 -4.74171e-05 0.0142793)
(-8.04236e-05 -7.77019e-05 0.014294)
(-0.000133597 -0.000105237 0.0143381)
(-0.00015599 -0.0001206 0.0144311)
(1.92389e-05 7.38788e-05 0.0144634)
(-7.549e-07 6.05493e-05 0.0144508)
(-2.23117e-05 4.59265e-05 0.0144545)
(-3.77783e-05 2.0276e-05 0.0144689)
(6.49136e-06 5.16538e-05 0.0144212)
(-1.75308e-05 3.46067e-05 0.0144155)
(-4.21936e-05 1.65024e-05 0.0144267)
(-5.61938e-05 -6.39747e-06 0.0144545)
(-9.65557e-06 1.41756e-05 0.014398)
(-3.58585e-05 -4.26205e-06 0.014401)
(-6.16103e-05 -2.26351e-05 0.0144194)
(-7.48742e-05 -4.11447e-05 0.0144575)
(-2.71021e-05 -2.81427e-05 0.0143954)
(-5.41456e-05 -4.62137e-05 0.0144067)
(-7.82199e-05 -6.24265e-05 0.0144337)
(-8.77746e-05 -7.43315e-05 0.0144778)
(6.69577e-06 3.74123e-05 0.014491)
(-3.92143e-06 2.90519e-05 0.0144859)
(-1.43418e-05 1.98803e-05 0.0144883)
(-2.18921e-05 6.57234e-06 0.0144951)
(-1.69057e-06 2.44742e-05 0.0144703)
(-1.41391e-05 1.42737e-05 0.0144691)
(-2.57227e-05 3.33685e-06 0.0144758)
(-3.23783e-05 -9.16905e-06 0.014489)
(-1.16088e-05 4.10089e-06 0.0144588)
(-2.51139e-05 -6.74134e-06 0.0144622)
(-3.714e-05 -1.76577e-05 0.0144736)
(-4.30128e-05 -2.84317e-05 0.0144922)
(-2.22819e-05 -1.81247e-05 0.0144584)
(-3.58058e-05 -2.90093e-05 0.0144664)
(-4.70212e-05 -3.87994e-05 0.0144823)
(-5.10738e-05 -4.67013e-05 0.0145048)
(8.35064e-07 1.82896e-05 0.0145078)
(-4.75363e-06 1.31305e-05 0.0145057)
(-9.94578e-06 7.51242e-06 0.0145072)
(-1.36978e-05 3.40892e-07 0.0145108)
(-4.50385e-06 1.07145e-05 0.0144975)
(-1.09554e-05 4.56602e-06 0.0144977)
(-1.65821e-05 -1.9851e-06 0.0145018)
(-1.97971e-05 -8.99997e-06 0.0145086)
(-1.06231e-05 -5.49454e-07 0.014492)
(-1.75135e-05 -7.01058e-06 0.0144948)
(-2.32724e-05 -1.34891e-05 0.0145017)
(-2.5884e-05 -1.97521e-05 0.0145116)
(-1.72095e-05 -1.24037e-05 0.0144924)
(-2.3858e-05 -1.89932e-05 0.0144979)
(-2.91415e-05 -2.49229e-05 0.0145073)
(-3.07281e-05 -2.98463e-05 0.0145195)
(-1.74165e-06 8.42953e-06 0.0145176)
(-4.68172e-06 5.25179e-06 0.0145169)
(-7.32423e-06 1.8387e-06 0.0145179)
(-9.169e-06 -2.13839e-06 0.01452)
(-5.09867e-06 3.96167e-06 0.0145125)
(-8.45509e-06 2.16999e-07 0.0145132)
(-1.12319e-05 -3.71507e-06 0.0145158)
(-1.2744e-05 -7.7194e-06 0.0145197)
(-8.87623e-06 -2.35567e-06 0.01451)
(-1.24003e-05 -6.26216e-06 0.0145123)
(-1.51689e-05 -1.01309e-05 0.0145165)
(-1.62485e-05 -1.37841e-05 0.0145221)
(-1.29344e-05 -8.83452e-06 0.0145108)
(-1.62155e-05 -1.2816e-05 0.0145146)
(-1.86639e-05 -1.63952e-05 0.0145203)
(-1.91145e-05 -1.9374e-05 0.0145273)
(-2.67567e-06 3.48499e-06 0.0145234)
(-4.22253e-06 1.51415e-06 0.0145233)
(-5.58135e-06 -5.5022e-07 0.0145241)
(-6.45111e-06 -2.8342e-06 0.0145254)
(-4.79151e-06 8.19202e-07 0.014521)
(-6.54148e-06 -1.49737e-06 0.0145218)
(-7.90209e-06 -3.88191e-06 0.0145235)
(-8.55246e-06 -6.19625e-06 0.0145258)
(-7.12912e-06 -2.77318e-06 0.01452)
(-8.94697e-06 -5.17303e-06 0.0145217)
(-1.02394e-05 -7.5131e-06 0.0145244)
(-1.05819e-05 -9.65756e-06 0.0145277)
(-9.61424e-06 -6.42885e-06 0.0145208)
(-1.12738e-05 -8.82441e-06 0.0145234)
(-1.23373e-05 -1.09777e-05 0.014527)
(-1.22715e-05 -1.27534e-05 0.0145312)
(-2.79494e-06 1.11387e-06 0.0145268)
(-3.62093e-06 -1.21148e-07 0.014527)
(-4.29366e-06 -1.40079e-06 0.0145276)
(-4.65504e-06 -2.73294e-06 0.0145286)
(-4.13272e-06 -5.08201e-07 0.0145258)
(-5.05309e-06 -1.95804e-06 0.0145265)
(-5.6876e-06 -3.40952e-06 0.0145277)
(-5.89916e-06 -4.77284e-06 0.0145292)
(-5.58591e-06 -2.58558e-06 0.0145255)
(-6.53171e-06 -4.07543e-06 0.0145268)
(-7.08416e-06 -5.5004e-06 0.0145286)
(-7.08034e-06 -6.76721e-06 0.0145307)
(-7.10443e-06 -4.7033e-06 0.0145262)
(-7.96198e-06 -6.14053e-06 0.0145281)
(-8.34875e-06 -7.43117e-06 0.0145305)
(-8.07355e-06 -8.47932e-06 0.0145331)
(-2.5056e-06 5.99929e-08 0.0145288)
(-2.94543e-06 -7.19047e-07 0.0145291)
(-3.25808e-06 -1.5121e-06 0.0145297)
(-3.37089e-06 -2.30049e-06 0.0145304)
(-3.35251e-06 -9.44632e-07 0.0145284)
(-3.83342e-06 -1.85306e-06 0.0145291)
(-4.0987e-06 -2.73926e-06 0.01453)
(-4.10438e-06 -3.54543e-06 0.0145311)
(-4.25696e-06 -2.16235e-06 0.0145285)
(-4.74125e-06 -3.08461e-06 0.0145295)
(-4.93217e-06 -3.9493e-06 0.0145308)
(-4.79019e-06 -4.69465e-06 0.0145323)
(-5.18285e-06 -3.40185e-06 0.0145291)
(-5.61483e-06 -4.2619e-06 0.0145305)
(-5.6879e-06 -5.0293e-06 0.0145322)
(-5.36787e-06 -5.64052e-06 0.0145339)
(-2.01807e-06 -3.33386e-07 0.0145299)
(-2.24616e-06 -8.19612e-07 0.0145303)
(-2.37947e-06 -1.30412e-06 0.0145308)
(-2.38166e-06 -1.76951e-06 0.0145313)
(-2.54782e-06 -9.54179e-07 0.0145299)
(-2.78741e-06 -1.51353e-06 0.0145305)
(-2.88014e-06 -2.04656e-06 0.0145312)
(-2.81048e-06 -2.51868e-06 0.014532)
(-3.1057e-06 -1.6646e-06 0.0145301)
(-3.33582e-06 -2.22503e-06 0.014531)
(-3.36999e-06 -2.73854e-06 0.0145319)
(-3.20426e-06 -3.16954e-06 0.014533)
(-3.66343e-06 -2.38225e-06 0.0145306)
(-3.85628e-06 -2.89379e-06 0.0145317)
(-3.80991e-06 -3.34201e-06 0.014533)
(-3.533e-06 -3.6917e-06 0.0145342)
(-1.46706e-06 -4.05363e-07 0.0145306)
(-1.57448e-06 -6.96517e-07 0.014531)
(-1.62656e-06 -9.81863e-07 0.0145314)
(-1.59223e-06 -1.2482e-06 0.0145319)
(-1.78601e-06 -7.70529e-07 0.0145307)
(-1.89035e-06 -1.10033e-06 0.0145313)
(-1.91476e-06 -1.40904e-06 0.0145319)
(-1.83881e-06 -1.67823e-06 0.0145325)
(-2.11868e-06 -1.17134e-06 0.014531)
(-2.20921e-06 -1.4981e-06 0.0145317)
(-2.19318e-06 -1.79076e-06 0.0145325)
(-2.05982e-06 -2.03232e-06 0.0145333)
(-2.44278e-06 -1.572e-06 0.0145315)
(-2.50552e-06 -1.86997e-06 0.0145324)
(-2.43844e-06 -2.12355e-06 0.0145333)
(-2.2404e-06 -2.31765e-06 0.0145342)
(-9.53663e-07 -3.29337e-07 0.0145311)
(-9.94855e-07 -4.91824e-07 0.0145314)
(-1.00969e-06 -6.49529e-07 0.0145318)
(-9.73799e-07 -7.93581e-07 0.0145321)
(-1.13169e-06 -5.249e-07 0.0145312)
(-1.16681e-06 -7.05651e-07 0.0145317)
(-1.16657e-06 -8.73995e-07 0.0145322)
(-1.11099e-06 -1.02057e-06 0.0145327)
(-1.31655e-06 -7.35298e-07 0.0145315)
(-1.34052e-06 -9.12512e-07 0.0145321)
(-1.31649e-06 -1.06943e-06 0.0145327)
(-1.22946e-06 -1.19873e-06 0.0145334)
(-1.49149e-06 -9.43971e-07 0.0145319)
(-1.49762e-06 -1.10718e-06 0.0145326)
(-1.44522e-06 -1.24248e-06 0.0145334)
(-1.3235e-06 -1.34494e-06 0.0145341)
(-5.58553e-07 -2.19162e-07 0.0145313)
(-5.76162e-07 -3.0536e-07 0.0145317)
(-5.79152e-07 -3.88268e-07 0.014532)
(-5.56741e-07 -4.61771e-07 0.0145322)
(-6.51743e-07 -3.17872e-07 0.0145315)
(-6.65661e-07 -4.122e-07 0.0145319)
(-6.60108e-07 -4.99951e-07 0.0145323)
(-6.2722e-07 -5.75646e-07 0.0145328)
(-7.47794e-07 -4.23631e-07 0.0145318)
(-7.55368e-07 -5.15201e-07 0.0145323)
(-7.36827e-07 -5.9638e-07 0.0145328)
(-6.86363e-07 -6.63163e-07 0.0145333)
(-8.37501e-07 -5.26765e-07 0.0145321)
(-8.35781e-07 -6.09912e-07 0.0145328)
(-8.02054e-07 -6.78496e-07 0.0145334)
(-7.32033e-07 -7.30028e-07 0.014534)
(0.000549722 -0.00214628 0.0180571)
(0.0015815 0.000691132 0.0137253)
(0.00278842 -0.00239879 0.0201341)
(0.000792901 0.000233783 0.0114665)
(0.000201127 -0.000384876 0.0101189)
(0.00158991 -0.00039696 0.0124521)
(0.0015798 -0.00176989 0.0139264)
(0.000341149 0.00167873 0.0127418)
(0.00146073 0.00104645 0.0179935)
(0.000764899 -0.00099378 0.0177917)
(0.00241155 -0.000808721 0.0155924)
(0.00187434 -0.00103358 0.0148357)
(0.00171448 -0.00156939 0.0229357)
(0.000323137 2.30436e-05 0.0151948)
(0.00172093 -0.00218123 0.0184047)
(0.00195979 -0.00322838 0.0106027)
(-0.00177387 0.00038069 0.037988)
(-0.00188301 -0.000754508 0.0320175)
(-0.000853031 0.000520383 0.0479455)
(0.00158368 -0.00135862 0.0415849)
(0.000732439 -0.00246834 0.0271786)
(-0.0026098 -0.00237632 0.0425982)
(-0.00124437 0.00101293 0.0240916)
(0.00232974 -0.00149241 0.0263111)
(0.00148955 -0.00673573 0.0397914)
(0.00164927 -0.00208498 0.0327407)
(0.000613938 -0.000896008 0.0386039)
(-0.000309247 -0.00209885 0.0730414)
(-0.000641016 -0.00270026 0.0270373)
(0.00272088 -0.00180277 0.0281055)
(0.00221513 -0.00117591 0.0227937)
(0.00127312 3.54859e-05 0.0260919)
(-0.000354811 3.48038e-05 0.0378611)
(-0.00124893 -0.00133943 0.033994)
(0.00115748 0.00117624 0.0334278)
(0.00210672 -0.00257471 0.0370053)
(-0.00184873 -0.00063359 0.0456021)
(-0.00108379 0.000280942 0.0354974)
(-0.000157757 0.000130995 0.0266281)
(0.00227161 -0.00426342 0.0287771)
(-6.08962e-06 -0.000920208 0.0302524)
(-0.00117993 0.00136712 0.0416534)
(-0.0028754 -0.00129736 0.0436769)
(0.000558863 -0.000609424 0.0263475)
(-0.00175064 0.000246719 0.0275041)
(-0.000234008 2.6584e-05 0.0271626)
(-0.000571787 0.000479497 0.0355742)
(-0.00109244 0.00318328 0.0295578)
(0.00059746 -0.00073041 0.0389494)
(0.00256045 -0.000256616 0.033328)
(0.000564783 -0.00036383 0.0338136)
(-0.00149929 -0.00122177 0.0582336)
(-4.61672e-06 0.00153673 0.0289853)
(0.000848004 0.00158888 0.025184)
(0.000871044 -0.00156842 0.0282022)
(-0.000381696 -0.000790815 0.0291339)
(-0.000276415 0.00346782 0.0372051)
(-0.00293446 0.00292519 0.0442933)
(0.000550083 -0.00190553 0.0260815)
(6.18534e-05 -0.000560744 0.0352553)
(0.00022338 9.13332e-05 0.0179208)
(-0.00197538 -0.000816677 0.0280076)
(-0.00108022 -2.69048e-05 0.0294498)
(0.000593358 0.00179113 0.0376726)
(0.000193659 -0.000150258 0.038012)
(-0.000115286 -0.000736251 0.0309441)
(-0.00502551 -0.00121304 0.0523396)
(-0.00151171 0.00127205 0.033717)
(0.000876072 0.000300908 0.0369312)
(-0.000110292 -0.000859261 0.0240673)
(-0.000830449 0.000707059 0.0392391)
(-0.00151913 0.00192912 0.0261641)
(-0.000769825 0.0032087 0.0479863)
(-0.000162291 0.000904467 0.0443932)
(0.000512925 0.000153432 0.0449185)
(-0.000556356 0.000626521 0.0146881)
(0.00182718 0.00167956 0.0375023)
(-0.00186638 0.000610778 0.0407627)
(-0.00045315 0.000374542 0.0221765)
(-0.000619984 0.00121003 0.0297483)
(-0.000597581 0.000998715 0.0244197)
(-0.00106315 0.00169137 0.0281007)
(-0.00113602 -0.000251822 0.0153465)
(-0.00181443 0.00171093 0.0256376)
(-0.000671294 0.000940527 0.0212958)
(-0.00086105 0.00126719 0.0155459)
(-0.003953 0.00318173 0.0236395)
(-0.00303643 0.00479209 0.0260452)
(0.000533793 0.000371964 0.0200237)
(0.000948936 -0.00071449 0.0163636)
(-0.00153175 0.00253591 0.0151474)
(-0.00315518 0.00363373 0.0227153)
(-0.00263709 -0.00118496 0.0304627)
(0.00178206 -0.00201841 0.0221957)
(0.00103825 -0.00140097 0.0216476)
(-0.00232241 0.000796177 0.0201535)
(-8.31793e-05 -0.00112591 0.0199565)
(2.05466e-05 -0.000224846 0.0212969)
(0.00122937 0.00103548 0.0265338)
(0.000741321 -0.000395456 0.0122289)
(0.00064891 -0.000534956 0.0198038)
(0.000686293 -0.000235456 0.0160318)
(0.000702349 -0.00051189 0.0164863)
(0.000168941 -0.000967536 0.0184699)
(0.000422431 -0.000723606 0.0221959)
(0.00037532 -0.000192346 0.0216858)
(0.00140384 -0.00015303 0.020834)
(0.000884665 -0.000559712 0.0167561)
(0.000520619 -0.000195687 0.026109)
(-0.00298766 -0.00100134 0.0140368)
(-0.000546769 0.000435209 0.0216531)
(0.00057641 -0.000941646 0.0208888)
(0.00048994 -0.000387033 0.027775)
(0.000404345 -0.000276489 0.0300488)
(0.000633664 -1.34221e-05 0.0355185)
(0.000243169 -0.000316612 0.0199659)
(0.000699336 -0.000914535 0.0267981)
(0.00077632 -0.00103948 0.0246834)
(0.000919178 -0.00104065 0.027188)
(0.000757505 -0.000831533 0.0215286)
(0.000173825 -0.00112021 0.0303656)
(0.000437489 -0.000968227 0.0298006)
(0.00112478 -0.00141214 0.028996)
(0.0012186 -0.00112572 0.022703)
(0.000188936 -0.000859768 0.0336327)
(-6.58388e-05 -0.000995729 0.0231443)
(0.000347073 -0.0011087 0.0265113)
(0.00119341 -0.0012661 0.0265395)
(-9.39196e-05 6.04058e-06 0.00996996)
(-0.000501593 0.000109274 0.0102762)
(0.00039615 0.000777081 0.0112367)
(0.000358278 7.83169e-06 0.00831365)
(0.000212525 -0.000176353 0.00985977)
(-0.00012071 5.27262e-05 0.00957984)
(7.16697e-05 0.000850653 0.0100043)
(0.00046805 -0.000167791 0.00858757)
(-8.07071e-05 -0.000265685 0.0107814)
(0.000178927 0.000192801 0.010459)
(0.00014882 0.000723555 0.0102199)
(0.000502009 -0.00020323 0.00901251)
(0.000328156 0.00054178 0.0115338)
(0.000448069 0.000911387 0.0097251)
(-0.000262883 0.00117212 0.0100114)
(4.74864e-05 0.000116054 0.00971958)
(7.76919e-05 0.000100819 0.0160372)
(-6.86363e-06 0.000155374 0.0160959)
(0.000486849 0.000538207 0.0167633)
(0.000315629 0.000165379 0.0152029)
(0.000195191 0.000155454 0.015898)
(0.000122181 0.000274441 0.0157021)
(0.000303946 0.000686203 0.0161621)
(0.000308577 9.71161e-05 0.0152737)
(0.000134434 0.000203731 0.0160717)
(0.000271137 0.000382676 0.0157765)
(0.00027277 0.000656765 0.0158684)
(0.000265288 4.73308e-05 0.0153818)
(0.000292235 0.000559218 0.0160759)
(0.000368898 0.000662464 0.0153703)
(9.90809e-05 0.000739998 0.0154377)
(6.95288e-05 9.86522e-05 0.0154661)
(8.41856e-05 5.51556e-05 0.0148392)
(1.41471e-05 6.50845e-05 0.0147129)
(0.000176059 0.000205811 0.0148605)
(0.00011126 6.79635e-05 0.0140553)
(0.000121174 0.000124545 0.0147226)
(4.54351e-05 0.000150853 0.0145374)
(8.67342e-05 0.000296255 0.0146126)
(8.67759e-05 4.98156e-05 0.0140765)
(0.000117421 0.000198474 0.0146806)
(8.35048e-05 0.000232784 0.0144655)
(2.96685e-05 0.000326155 0.0144262)
(2.46306e-05 6.11898e-05 0.0141097)
(0.000164764 0.000352923 0.0145492)
(0.000109098 0.000365033 0.0142626)
(-4.65467e-05 0.000389925 0.0142163)
(-8.3875e-05 0.000137271 0.0141348)
(8.20228e-05 4.33742e-05 0.014702)
(5.35005e-05 5.11323e-05 0.0146241)
(0.000110202 0.000111289 0.014704)
(6.4186e-05 4.92024e-05 0.0144215)
(9.0076e-05 0.000108928 0.0146541)
(5.39878e-05 0.000113966 0.014566)
(6.49143e-05 0.00016756 0.0146179)
(4.38804e-05 5.01101e-05 0.0144301)
(9.00105e-05 0.000166611 0.0146055)
(5.75479e-05 0.000165618 0.0145153)
(2.8339e-05 0.000192252 0.0145308)
(7.4799e-06 5.91477e-05 0.0144377)
(9.79065e-05 0.00023068 0.014516)
(5.48873e-05 0.000218444 0.0144201)
(-1.19009e-05 0.000212058 0.0144264)
(-4.25238e-05 8.63298e-05 0.0144257)
(6.04488e-05 2.83853e-05 0.0146379)
(4.5549e-05 3.29138e-05 0.0145824)
(5.82136e-05 5.51276e-05 0.0145964)
(2.87066e-05 2.39444e-05 0.0144633)
(5.96993e-05 7.19755e-05 0.0146075)
(3.91935e-05 6.9282e-05 0.0145532)
(3.46736e-05 8.37936e-05 0.014558)
(1.68061e-05 2.70732e-05 0.0144641)
(5.65168e-05 0.000107316 0.0145654)
(3.29976e-05 9.78338e-05 0.0145166)
(1.28037e-05 9.81572e-05 0.0145132)
(-2.98117e-06 3.39e-05 0.0144625)
(5.29672e-05 0.000135225 0.0145047)
(2.40649e-05 0.000120012 0.0144636)
(-9.50867e-06 0.000106537 0.0144619)
(-2.74378e-05 4.72375e-05 0.0144532)
(3.83749e-05 1.67051e-05 0.0145881)
(3.00567e-05 1.92275e-05 0.0145542)
(2.95639e-05 2.68067e-05 0.0145521)
(1.17792e-05 1.05429e-05 0.0144935)
(3.59276e-05 4.21994e-05 0.01457)
(2.43632e-05 3.87074e-05 0.0145392)
(1.75818e-05 4.06147e-05 0.0145349)
(5.29259e-06 1.27671e-05 0.0144931)
(3.21861e-05 6.19774e-05 0.0145433)
(1.80557e-05 5.35896e-05 0.0145178)
(5.58739e-06 4.80364e-05 0.0145131)
(-4.73782e-06 1.6469e-05 0.0144908)
(2.69646e-05 7.43784e-05 0.0145076)
(1.02401e-05 6.28765e-05 0.0144889)
(-6.71369e-06 5.13964e-05 0.0144878)
(-1.66727e-05 2.22624e-05 0.0144846)
(2.20937e-05 9.35735e-06 0.0145596)
(1.73957e-05 1.05962e-05 0.0145403)
(1.40165e-05 1.2566e-05 0.0145351)
(3.61375e-06 3.67723e-06 0.014509)
(1.98936e-05 2.34925e-05 0.0145495)
(1.34324e-05 2.06673e-05 0.0145324)
(7.84688e-06 1.89814e-05 0.0145272)
(7.77967e-08 4.81283e-06 0.0145084)
(1.68236e-05 3.40139e-05 0.014534)
(8.84097e-06 2.80834e-05 0.0145206)
(1.34178e-06 2.25115e-05 0.0145167)
(-5.01833e-06 6.49389e-06 0.0145067)
(1.25448e-05 3.94708e-05 0.0145142)
(3.3505e-06 3.18003e-05 0.0145052)
(-5.48739e-06 2.36393e-05 0.0145043)
(-1.09989e-05 8.7868e-06 0.0145031)
(1.16369e-05 5.01966e-06 0.014545)
(8.9377e-06 5.46968e-06 0.0145343)
(5.79926e-06 5.43427e-06 0.0145298)
(-2.02713e-07 2.61987e-07 0.0145182)
(1.00309e-05 1.25566e-05 0.0145394)
(6.40628e-06 1.04871e-05 0.0145301)
(2.56143e-06 8.25159e-06 0.0145261)
(-2.14663e-06 6.79009e-07 0.0145177)
(7.8238e-06 1.7925e-05 0.0145307)
(3.39618e-06 1.40108e-05 0.0145237)
(-1.00302e-06 9.77342e-06 0.014521)
(-4.77666e-06 1.28631e-06 0.0145167)
(4.80098e-06 2.02148e-05 0.0145199)
(-1.65489e-07 1.53184e-05 0.0145156)
(-4.86793e-06 9.93661e-06 0.014515)
(-7.88154e-06 2.04859e-06 0.0145147)
(5.45374e-06 2.55877e-06 0.0145375)
(3.85578e-06 2.56703e-06 0.0145317)
(1.60665e-06 1.92755e-06 0.0145287)
(-1.79746e-06 -1.26371e-06 0.0145237)
(4.36537e-06 6.42606e-06 0.0145344)
(2.29979e-06 4.9468e-06 0.0145295)
(-1.38128e-07 3.04544e-06 0.014527)
(-2.88426e-06 -1.2391e-06 0.0145234)
(2.86691e-06 9.05015e-06 0.0145297)
(4.10011e-07 6.51266e-06 0.0145261)
(-2.1357e-06 3.58334e-06 0.0145245)
(-4.28832e-06 -1.12689e-06 0.0145228)
(8.41631e-07 9.89521e-06 0.0145239)
(-1.83381e-06 6.80035e-06 0.0145219)
(-4.37097e-06 3.35782e-06 0.0145216)
(-5.97159e-06 -9.94834e-07 0.0145218)
(2.04641e-06 1.22353e-06 0.0145338)
(1.07892e-06 1.0181e-06 0.0145308)
(-3.86234e-07 2.69647e-07 0.0145291)
(-2.28257e-06 -1.78102e-06 0.014527)
(1.32772e-06 3.12826e-06 0.0145322)
(1.28737e-07 2.05954e-06 0.0145297)
(-1.36154e-06 6.1668e-07 0.0145283)
(-2.90522e-06 -1.91696e-06 0.0145269)
(3.2525e-07 4.342e-06 0.0145297)
(-1.04615e-06 2.67246e-06 0.0145279)
(-2.50796e-06 7.06356e-07 0.0145272)
(-3.68869e-06 -1.98876e-06 0.0145266)
(-1.01424e-06 4.53901e-06 0.0145266)
(-2.47128e-06 2.56262e-06 0.0145258)
(-3.82517e-06 3.8391e-07 0.0145258)
(-4.63104e-06 -2.09677e-06 0.0145262)
(3.07868e-07 5.28782e-07 0.0145322)
(-2.82801e-07 2.41367e-07 0.0145307)
(-1.19732e-06 -4.31393e-07 0.0145299)
(-2.22375e-06 -1.78885e-06 0.0145291)
(-1.69311e-07 1.42042e-06 0.0145313)
(-8.64918e-07 6.38949e-07 0.0145301)
(-1.75754e-06 -4.10788e-07 0.0145295)
(-2.59938e-06 -1.96399e-06 0.014529)
(-8.37813e-07 1.93416e-06 0.01453)
(-1.60599e-06 8.16468e-07 0.0145292)
(-2.4354e-06 -4.88482e-07 0.0145289)
(-3.05859e-06 -2.07791e-06 0.0145289)
(-1.72315e-06 1.85993e-06 0.0145284)
(-2.51255e-06 5.80478e-07 0.0145282)
(-3.22487e-06 -8.20071e-07 0.0145283)
(-3.614e-06 -2.26835e-06 0.0145288)
(-4.70625e-07 1.85467e-07 0.0145315)
(-8.35028e-07 -1.07964e-07 0.0145309)
(-1.3796e-06 -6.50911e-07 0.0145305)
(-1.91139e-06 -1.55542e-06 0.0145303)
(-7.88006e-07 5.6505e-07 0.014531)
(-1.19758e-06 -4.65157e-09 0.0145306)
(-1.70899e-06 -7.46941e-07 0.0145303)
(-2.14582e-06 -1.71748e-06 0.0145303)
(-1.23058e-06 7.37776e-07 0.0145303)
(-1.66764e-06 -1.00234e-08 0.0145301)
(-2.12023e-06 -8.69824e-07 0.0145301)
(-2.42359e-06 -1.82956e-06 0.0145303)
(-1.81164e-06 5.78166e-07 0.0145295)
(-2.24375e-06 -2.55039e-07 0.0145296)
(-2.60295e-06 -1.15004e-06 0.0145299)
(-2.76213e-06 -2.0167e-06 0.0145303)
(-7.08146e-07 2.35389e-08 0.0145313)
(-9.35957e-07 -2.28922e-07 0.0145311)
(-1.24618e-06 -6.33375e-07 0.014531)
(-1.5029e-06 -1.22743e-06 0.0145311)
(-9.15541e-07 1.519e-07 0.014531)
(-1.15757e-06 -2.48912e-07 0.0145309)
(-1.43963e-06 -7.52058e-07 0.0145309)
(-1.65153e-06 -1.35633e-06 0.0145311)
(-1.20283e-06 1.70076e-07 0.0145307)
(-1.45094e-06 -3.16297e-07 0.0145307)
(-1.68749e-06 -8.69309e-07 0.0145309)
(-1.81987e-06 -1.44967e-06 0.0145311)
(-1.57485e-06 1.26461e-08 0.0145303)
(-1.8067e-06 -5.18748e-07 0.0145305)
(-1.98144e-06 -1.0804e-06 0.0145308)
(-2.02698e-06 -1.60027e-06 0.0145312)
(-6.63587e-07 -3.97235e-08 0.0145313)
(-8.00836e-07 -2.26389e-07 0.0145313)
(-9.68101e-07 -5.0658e-07 0.0145313)
(-1.08172e-06 -8.81589e-07 0.0145315)
(-7.90304e-07 -2.37415e-08 0.0145311)
(-9.28925e-07 -2.84061e-07 0.0145312)
(-1.07996e-06 -6.06985e-07 0.0145313)
(-1.17471e-06 -9.72008e-07 0.0145316)
(-9.67799e-07 -6.24376e-08 0.0145309)
(-1.10173e-06 -3.6241e-07 0.0145311)
(-1.22279e-06 -7.00474e-07 0.0145313)
(-1.27308e-06 -1.0426e-06 0.0145316)
(-1.19568e-06 -1.8774e-07 0.0145307)
(-1.31012e-06 -5.10333e-07 0.014531)
(-1.39437e-06 -8.47505e-07 0.0145313)
(-1.39517e-06 -1.14985e-06 0.0145317)
(-4.96616e-07 -4.73116e-08 0.0145313)
(-5.70747e-07 -1.71289e-07 0.0145315)
(-6.51767e-07 -3.4514e-07 0.0145316)
(-6.96858e-07 -5.65833e-07 0.0145317)
(-5.67455e-07 -6.82571e-08 0.0145313)
(-6.40112e-07 -2.23329e-07 0.0145314)
(-7.12957e-07 -4.12199e-07 0.0145316)
(-7.51906e-07 -6.19654e-07 0.0145318)
(-6.6824e-07 -1.16121e-07 0.0145311)
(-7.33647e-07 -2.85043e-07 0.0145314)
(-7.89992e-07 -4.75719e-07 0.0145316)
(-8.05875e-07 -6.66043e-07 0.0145318)
(-7.97942e-07 -2.02903e-07 0.0145311)
(-8.46978e-07 -3.82733e-07 0.0145314)
(-8.83866e-07 -5.69275e-07 0.0145316)
(-8.73217e-07 -7.33715e-07 0.0145319)
(-3.17573e-07 -3.73572e-08 0.0145314)
(-3.5653e-07 -1.1368e-07 0.0145316)
(-3.95273e-07 -2.15262e-07 0.0145317)
(-4.12789e-07 -3.38852e-07 0.0145319)
(-3.52519e-07 -6.00561e-08 0.0145314)
(-3.90107e-07 -1.48047e-07 0.0145316)
(-4.24535e-07 -2.53154e-07 0.0145317)
(-4.39537e-07 -3.66352e-07 0.0145319)
(-4.06192e-07 -9.48882e-08 0.0145313)
(-4.39155e-07 -1.86945e-07 0.0145315)
(-4.65016e-07 -2.89986e-07 0.0145317)
(-4.68711e-07 -3.91089e-07 0.0145319)
(-4.75537e-07 -1.4806e-07 0.0145313)
(-4.99652e-07 -2.41006e-07 0.0145315)
(-5.14633e-07 -3.36624e-07 0.0145318)
(-5.04653e-07 -4.19674e-07 0.014532)
(0.00381224 -0.000655682 0.0150779)
(0.000932551 -0.0031186 0.0119232)
(0.0034247 -0.00375425 0.0156682)
(0.00270652 -0.0014037 0.0114966)
(-0.000130792 -0.00260738 0.0191818)
(-0.000680307 -0.00141509 0.0134043)
(0.00231184 -0.00173449 0.01382)
(0.00171431 -0.00377102 0.0178821)
(-2.05272e-05 -0.000843958 0.00972275)
(0.00188639 0.000249372 0.0159146)
(0.00256104 0.00110398 0.0189539)
(0.000927684 -2.40968e-05 0.0190097)
(0.0019317 -6.56778e-06 0.0227131)
(0.00196124 0.000275679 0.00973334)
(0.00615125 0.00221251 0.0261291)
(0.000853908 -0.000923315 0.0186008)
(0.000865015 -0.00125507 0.0370509)
(0.000235431 -0.000485855 0.0535097)
(0.000432942 -0.000306799 0.0226189)
(-0.000377582 -0.00359302 0.0683626)
(0.00344743 0.00335465 0.0503731)
(0.00242652 0.00137772 0.021833)
(0.000236051 0.00101017 0.025962)
(-0.00291531 8.34016e-06 0.0412889)
(0.00224823 0.00104059 0.0302309)
(-0.00051257 0.00251231 0.0339297)
(-0.000304324 1.64738e-05 0.0220949)
(7.51125e-05 -0.00136934 0.0282781)
(0.00181863 -0.000356875 0.0351364)