ITEM: TIMESTEP
20000
ITEM: NUMBER OF ATOMS
10000
ITEM: BOX BOUNDS mm mm mm
-0.015 0.015
-0.015 0.015
-0.001 0.0554
ITEM: ATOMS id type x y z vx vy vz fx fy fz f_dragforce[1] f_dragforce[2] f_dragforce[3] radius 
1359 1 -0.00149307 -0.0132662 0.000499729 0.000369341 0.000149908 -5.33437e-05 2.26607e-07 8.08924e-08 -1.88552e-09 4.64388e-07 4.46886e-07 2.14696e-06 0.0005 
637 1 -0.00304408 -0.0122378 0.000499638 0.000566298 -1.05813e-05 -8.60291e-05 3.50426e-07 -6.1008e-08 -7.31328e-08 4.17928e-07 3.33933e-07 1.42813e-06 0.0005 
1496 1 -0.00206633 -0.012447 0.000499684 0.000612899 0.000311224 -0.000144779 4.38826e-08 -2.9447e-07 -1.33847e-07 5.40238e-07 5.88894e-07 1.53431e-06 0.0005 
502 1 -0.000773119 -0.0125217 0.000499593 -7.4358e-05 0.000453359 -5.84752e-05 6.87059e-07 6.86807e-09 -1.65481e-07 3.9794e-07 6.06527e-07 1.40089e-06 0.0005 
1195 1 -0.00707649 -0.0111112 0.000499725 -0.000906815 -0.000299782 1.52405e-05 1.34187e-07 -4.15062e-07 -7.55205e-08 -1.43063e-07 -2.17178e-07 1.78893e-06 0.0005 
1356 1 -0.0063138 -0.0117583 0.000499777 -4.56919e-05 0.000337079 -1.76112e-05 9.82497e-08 1.58918e-08 -1.60001e-07 -8.18779e-08 -7.13887e-08 1.98052e-06 0.0005 
939 1 -0.00515107 -0.0116594 0.000499672 6.25083e-05 -2.38614e-05 4.68758e-05 6.38931e-07 2.35536e-07 -8.99931e-08 1.65388e-07 -3.9006e-09 1.49645e-06 0.0005 
1758 1 -0.00414819 -0.0116523 0.000499733 0.000267926 7.45415e-05 4.3916e-06 -6.8511e-07 -4.50623e-07 1.07501e-08 4.06589e-07 1.10057e-07 1.30294e-06 0.0005 
656 1 -0.00322228 -0.0112539 0.000499678 0.000185726 -2.20968e-05 -8.17699e-05 6.91877e-07 3.72025e-07 -1.30514e-08 7.91218e-07 3.44431e-07 1.28621e-06 0.0005 
758 1 -0.00220601 -0.0114569 0.000499758 0.000203728 0.000279847 -9.65018e-05 2.36118e-07 -4.93491e-07 -2.96105e-07 5.58268e-07 6.36696e-07 1.25201e-06 0.0005 
319 1 -0.00114811 -0.0115426 0.000499757 -0.000517111 0.000437143 -9.88957e-05 -3.67244e-07 -3.42937e-07 6.61686e-08 3.12213e-07 7.79961e-07 1.23657e-06 0.0005 
511 1 -1.18584e-05 -0.0111081 0.000499608 -0.000242092 -4.53799e-05 -0.000106423 -3.11643e-07 -4.839e-07 -1.14011e-07 -2.8395e-07 2.13007e-08 1.27108e-06 0.0005 
1144 1 -0.0080286 -0.010666 0.000499777 -0.000117919 2.5608e-05 7.19106e-06 1.48008e-07 -2.86163e-07 1.05482e-07 -2.33138e-07 -3.87581e-07 1.71277e-06 0.0005 
353 1 -0.00577515 -0.0108783 0.000499663 7.72043e-05 4.92223e-05 -2.01343e-05 3.23796e-07 -5.51784e-08 1.29253e-07 1.15127e-07 -1.60339e-07 1.37577e-06 0.0005 
1818 1 -0.00394003 -0.0105579 0.000499709 9.61875e-05 -0.00018176 4.26198e-05 5.15292e-07 7.65393e-07 -2.59695e-07 8.60625e-07 5.62973e-08 1.28521e-06 0.0005 
1873 1 -0.00258437 -0.0104839 0.000499633 0.000119614 7.66729e-05 -0.000117543 4.43322e-09 -2.31697e-08 -4.16739e-08 8.20326e-07 8.28553e-08 1.24274e-06 0.0005 
2211 1 -0.000756311 -0.0104399 0.000499549 7.49089e-06 0.000156505 -0.000108938 -9.71518e-08 -2.15873e-07 8.20163e-08 6.93842e-08 7.16929e-08 1.0521e-06 0.0005 
647 1 -0.00886231 -0.00998418 0.000499783 -6.91074e-05 5.92979e-05 -2.78491e-05 2.90332e-07 -3.1874e-07 -7.14136e-08 -1.39218e-07 -5.54019e-07 1.67844e-06 0.0005 
542 1 -0.00734008 -0.00994077 0.000499533 2.80597e-05 -0.000206013 -1.57546e-05 2.96604e-07 -6.95621e-07 9.64239e-08 -1.98814e-07 -4.97884e-07 1.29001e-06 0.0005 
1585 1 -0.00535626 -0.0099374 0.000499641 2.12877e-05 -0.000125883 5.42783e-05 -1.49322e-07 -1.04499e-07 -2.53524e-07 3.82163e-07 -3.02533e-07 1.36368e-06 0.0005 
2142 1 -0.00325415 -0.00974163 0.000499549 0.00018083 0.00010075 -0.000119378 5.65113e-07 3.44619e-07 2.39494e-07 1.01699e-06 -2.89572e-07 1.08422e-06 0.0005 
2090 1 -0.00147921 -0.00974886 0.000499793 1.94169e-05 -0.000308214 1.20226e-05 3.38328e-07 -7.79243e-07 1.35982e-07 4.1179e-07 -8.023e-07 6.7574e-07 0.0005 
2330 1 -0.00886354 -0.00898421 0.00049954 6.68068e-05 -1.82308e-05 -4.89933e-05 1.36768e-07 -4.85599e-07 -2.52251e-08 -1.59075e-07 -6.43721e-07 1.22246e-06 0.0005 
733 1 -0.00681055 -0.00907308 0.0004997 2.12816e-05 7.31538e-06 -1.36812e-05 3.81183e-07 -1.79019e-07 2.245e-07 2.20774e-08 -4.99916e-07 1.29852e-06 0.0005 
1443 1 -0.00575215 -0.00889572 0.000499663 5.24864e-05 -0.000202239 -4.68454e-06 3.06026e-07 -4.87572e-07 -4.95387e-08 3.37023e-07 -4.73045e-07 1.3478e-06 0.0005 
1221 1 -0.00475265 -0.00887044 0.000499578 0.000116451 -0.000136637 4.56674e-07 3.02554e-07 -1.56157e-08 -3.23288e-07 6.02592e-07 -4.69815e-07 1.34839e-06 0.0005 
388 1 -0.00320696 -0.00874278 0.000499772 3.1898e-05 -5.53792e-05 -3.75415e-05 4.7053e-07 -5.24852e-07 -4.62327e-07 8.99156e-07 -5.99028e-07 1.07752e-06 0.0005 
823 1 -0.00235671 -0.00926924 0.000499709 0.000471088 -9.79845e-05 5.86938e-05 3.16349e-07 -9.08184e-07 4.32304e-07 8.51581e-07 -6.92322e-07 9.98403e-07 0.0005 
714 1 -0.00108576 -0.00881613 0.000499536 -0.000349663 -0.000539092 -0.000361926 5.79014e-07 2.61865e-07 -3.88907e-07 2.20972e-07 -1.31272e-06 7.35295e-07 0.0005 
462 1 -8.70936e-05 -0.00886567 0.000499597 -0.000211376 -0.000209581 -0.000311724 -3.24472e-08 -5.67906e-07 -1.92901e-07 -3.4495e-07 -9.83973e-07 9.72101e-07 0.0005 
529 1 -0.0102104 -0.00860073 0.000499823 -2.93094e-05 4.06944e-05 -8.97754e-06 1.41552e-07 -1.78334e-07 5.13605e-08 3.19459e-07 -8.5334e-07 1.78136e-06 0.0005 
359 1 -0.00934151 -0.00810592 0.000499689 6.1083e-06 -3.56608e-05 -4.54735e-06 2.2318e-07 -2.14809e-07 7.7068e-08 -7.39994e-08 -5.88777e-07 1.34861e-06 0.0005 
1505 1 -0.00808336 -0.00835863 0.000499749 -0.000141986 0.000111156 -1.88756e-05 7.26283e-08 -1.81912e-07 -3.6707e-08 -1.2312e-07 -4.97015e-07 1.1876e-06 0.0005 
2252 1 -0.0061417 -0.00797125 0.00049971 -0.000455019 -0.000419667 7.33268e-05 -1.46183e-08 -5.65687e-07 1.90355e-07 1.7248e-07 -3.70514e-07 1.30564e-06 0.0005 
2042 1 -0.00232608 -0.00826965 0.000499786 -7.72069e-05 -0.000116849 -9.23853e-05 1.8966e-07 -2.71954e-07 -6.46442e-07 4.60832e-07 -9.73462e-07 1.18111e-06 0.0005 
1539 1 -0.0108397 -0.00779267 0.000499779 3.01878e-05 1.14644e-05 -2.05205e-05 7.28966e-10 7.87384e-08 4.74057e-08 4.73214e-07 -7.36912e-07 2.05965e-06 0.0005 
986 1 -0.00816736 -0.0073605 0.000499809 -0.00375211 -0.000157617 7.62369e-07 -1.586e-08 -3.64722e-07 2.13804e-09 -1.49407e-07 -4.48806e-07 1.31454e-06 0.0005 
1847 1 -0.00710353 -0.00769787 0.000499603 -0.000398426 -1.7904e-05 -3.31006e-05 -2.93723e-07 -4.68582e-07 -3.39435e-08 2.40978e-08 -3.66351e-07 1.35026e-06 0.0005 
1848 1 -0.00459917 -0.00723781 0.000499673 6.25786e-06 0.000473385 6.1718e-05 4.12409e-07 8.73004e-09 -9.35106e-08 2.75585e-07 -1.57744e-07 1.38226e-06 0.0005 
2417 1 -0.00359162 -0.00732457 0.000499711 -0.000209105 0.000679226 5.18027e-05 2.24713e-07 -2.93159e-07 -3.079e-07 1.99863e-07 -3.75672e-07 1.29475e-06 0.0005 
1462 1 -0.00259193 -0.00730567 0.00049952 -6.83402e-05 -0.000179401 -7.32895e-05 -1.55149e-07 -2.78943e-07 -2.07301e-07 1.36986e-07 -7.73199e-07 1.19866e-06 0.0005 
46 1 -0.00131138 -0.00784203 0.000499783 -0.000127854 -0.000452323 0.000132454 3.14204e-07 1.13509e-07 -1.42556e-07 2.98078e-07 -1.9153e-06 9.67208e-07 0.0005 
1432 1 -0.000190342 -0.00787125 0.000499614 -1.00977e-05 -0.000222902 -8.44472e-05 4.30483e-08 -4.43261e-07 -9.51832e-08 7.16343e-08 -1.32361e-06 1.05906e-06 0.0005 
2195 1 -0.0115946 -0.00660485 0.000499678 0.000114042 -1.6469e-05 -1.82823e-05 3.21648e-07 -1.17559e-07 1.07717e-07 7.51632e-07 -3.90624e-07 2.36127e-06 0.0005 
1429 1 -0.0105942 -0.00682224 0.000499807 0.00017469 4.19335e-05 -3.9858e-06 3.94817e-07 -3.21688e-07 -1.5759e-08 5.29362e-07 -4.36712e-07 1.43141e-06 0.0005 
551 1 -0.00960012 -0.00693114 0.000499628 0.000199927 5.18571e-05 7.91674e-05 2.75193e-07 -3.56147e-07 2.24254e-07 1.71607e-07 -4.57711e-07 1.36488e-06 0.0005 
1263 1 -0.00880158 -0.00632897 0.000499805 -0.000394549 0.000762022 9.78372e-07 6.95087e-08 -3.63382e-07 9.76479e-10 9.65035e-08 -4.27492e-07 1.33287e-06 0.0005 
490 1 -0.00779233 -0.00634256 0.000499707 -0.00040888 0.000174324 -0.000101869 3.68459e-07 -1.06496e-06 2.06082e-07 5.5217e-09 -2.77185e-07 1.35116e-06 0.0005 
1485 1 -0.00647326 -0.00657041 0.000499767 -0.000440169 0.000842595 7.67311e-05 3.66934e-07 -5.46534e-07 -4.05161e-07 2.34535e-07 -2.34842e-07 1.34616e-06 0.0005 
1447 1 -0.00559213 -0.00710034 0.000499806 0.00044711 0.000849937 -1.21996e-06 1.34456e-07 -2.09714e-07 2.34453e-08 2.0425e-07 -2.14376e-07 1.31956e-06 0.0005 
74 1 -0.00404994 -0.00638981 0.000499668 0.000151089 -0.000148206 -4.36174e-05 5.049e-07 -3.25687e-07 2.58108e-07 2.50921e-07 5.93267e-09 1.25832e-06 0.0005 
606 1 -0.0109728 -0.0058215 0.000499811 8.87379e-05 -0.000189243 2.30248e-05 -7.49211e-07 -4.67778e-07 -7.58327e-08 6.6545e-07 -2.70769e-07 1.60748e-06 0.0005 
1293 1 -0.00999094 -0.00601071 0.000499796 1.83295e-05 -0.000256852 -8.79264e-06 -3.43719e-07 3.30824e-07 -1.55313e-07 6.30666e-07 -2.76422e-07 1.43549e-06 0.0005 
1248 1 -0.00702505 -0.00570132 0.00049972 -8.94219e-05 -0.000163065 1.70552e-05 1.36634e-07 -9.6219e-07 -4.103e-07 1.42149e-07 -1.95151e-07 1.36019e-06 0.0005 
1101 1 -0.00561045 -0.00601248 0.000499568 8.10008e-05 8.97122e-05 -5.20377e-05 6.89258e-07 -6.20568e-07 7.67113e-08 3.4259e-07 -1.54751e-07 1.34825e-06 0.0005 
817 1 -0.00467801 -0.0056041 0.000499699 -0.000247868 -0.00040164 -6.85178e-06 3.61007e-07 -7.89409e-08 -2.22435e-07 2.82716e-07 8.48872e-08 1.2594e-06 0.0005 
1969 1 -0.00334847 -0.00558647 0.000499793 3.77382e-05 2.51385e-05 -1.8995e-05 2.49852e-07 -1.6015e-06 -7.47474e-07 -3.09114e-07 -2.67355e-07 1.2086e-06 0.0005 
266 1 -0.00224933 -0.00609302 0.000499679 -7.66262e-06 -0.00013246 2.63948e-05 2.11264e-07 -5.84941e-07 -1.95964e-07 -4.83941e-07 -7.66571e-07 1.17731e-06 0.0005 
1477 1 -0.000922672 -0.00625068 0.000499658 -0.000175543 0.000112366 -0.000102329 1.35455e-07 -4.52674e-07 -1.1386e-07 1.79783e-07 -9.31398e-07 1.51241e-06 0.0005 
740 1 -7.94614e-05 -0.00559432 0.000499697 0.000223594 -0.000251021 -2.36095e-05 4.93699e-07 -5.97837e-07 -8.57605e-08 6.80736e-07 -5.51424e-07 1.22156e-06 0.0005 
1091 1 -0.0121714 -0.00548493 0.000499779 -9.81657e-05 2.56265e-05 7.73178e-05 6.65431e-07 -7.65451e-07 -3.3015e-07 5.64916e-07 -2.12176e-07 2.47603e-06 0.0005 
900 1 -0.0113604 -0.00489969 0.00049972 8.1019e-05 -0.000224229 2.1613e-05 3.40298e-07 -2.38429e-07 -2.3082e-07 4.89639e-07 -1.88511e-07 1.30651e-06 0.0005 
1315 1 -0.0103075 -0.0048363 0.000499697 9.00512e-05 -0.00035696 -2.25255e-06 3.93773e-07 2.05569e-07 1.99402e-07 5.3507e-07 -2.25139e-07 1.42019e-06 0.0005 
53 1 -0.00867584 -0.00527687 0.00049963 -8.07882e-05 4.64008e-05 -6.9892e-05 2.42829e-07 -3.58666e-07 -3.88877e-07 3.09435e-07 -4.29733e-07 1.37051e-06 0.0005 
1403 1 -0.0056484 -0.00495832 0.000499715 -0.000147236 -0.000428595 -3.81476e-05 4.52803e-07 -3.21755e-07 5.48181e-08 2.83995e-07 -1.2659e-07 1.37553e-06 0.0005 
2181 1 -0.00395597 -0.00479265 0.000499592 0.000164526 0.000281141 -9.27585e-06 7.52794e-07 -6.9689e-07 -1.27783e-07 -1.82648e-07 -8.59927e-08 1.25473e-06 0.0005 
152 1 -0.00257387 -0.00495433 0.000499794 -0.000412872 0.000859975 2.46456e-05 -1.16197e-07 -9.96444e-07 -3.56521e-07 -4.49819e-07 -3.28742e-07 1.43322e-06 0.0005 
262 1 -0.000950865 -0.00508704 0.000499739 0.000439574 0.000802847 -1.39862e-05 2.78708e-07 -1.81426e-07 2.60026e-07 2.29895e-07 -3.19879e-07 1.53673e-06 0.0005 
890 1 -0.0125479 -0.00455811 0.000499795 0.000116335 -0.000157001 -8.15301e-06 -6.09569e-07 2.65416e-07 2.29034e-07 2.54266e-07 -9.64851e-08 2.30927e-06 0.0005 
2 1 -0.0108849 -0.00401992 0.000499734 -0.000101897 -0.000137723 -9.09608e-05 8.19461e-07 -3.64452e-07 -7.07689e-07 2.88186e-07 -2.17285e-07 1.34906e-06 0.0005 
12 1 -0.00938285 -0.00444438 0.000499806 0.000340099 0.000930063 5.74617e-06 2.56945e-07 -3.12042e-07 5.62724e-09 3.27306e-07 -3.50906e-07 1.38909e-06 0.0005 
1415 1 -0.00838921 -0.00431898 0.000499695 -0.000291578 0.000219833 0.000148527 -3.96892e-08 -6.22663e-07 -1.1944e-07 3.04003e-07 -3.91882e-07 1.32026e-06 0.0005 
93 1 -0.00728501 -0.00467025 0.00049981 -0.000222395 0.000992859 -5.49878e-06 2.41272e-07 -3.18965e-07 1.86054e-07 2.62277e-07 -3.1334e-07 1.27046e-06 0.0005 
2064 1 -0.00594872 -0.00400464 0.000499478 -2.39799e-05 -0.000149288 7.7124e-05 1.68912e-07 -7.69027e-08 5.4639e-07 3.38762e-07 -1.95779e-07 1.38194e-06 0.0005 
1452 1 -0.00494934 -0.00402875 0.000499659 -5.2254e-05 -7.283e-05 1.56159e-05 7.32938e-07 2.86896e-07 -2.05755e-07 1.5954e-07 -7.91489e-08 1.28334e-06 0.0005 
1459 1 -0.00318313 -0.00414656 0.000499748 4.31139e-05 0.000506178 -2.49793e-05 5.41612e-09 -3.81134e-07 -3.04632e-07 -4.27676e-07 -1.66046e-07 1.46362e-06 0.0005 
1507 1 -0.00173856 -0.00440477 0.000499756 9.38507e-05 0.000254169 8.3328e-06 3.07748e-07 -6.74648e-07 6.11649e-07 -1.79536e-07 -1.27204e-07 1.52523e-06 0.0005 
2217 1 -0.000779912 -0.00410173 0.000499709 0.000401243 0.00084416 -8.08099e-06 4.09481e-07 -7.5077e-07 5.52488e-08 3.87304e-07 1.59667e-07 1.55257e-06 0.0005 
982 1 -0.0128905 -0.00345367 0.000499745 0.000148478 -0.000668866 -0.000441017 1.04827e-06 -3.08504e-06 -2.52717e-06 1.41013e-07 -6.95134e-08 2.27366e-06 0.0005 
1544 1 -0.00999506 -0.00355616 0.000499806 -0.000321406 0.00137891 -7.91317e-06 1.71368e-07 -2.53243e-07 -7.59954e-08 2.04781e-07 -2.86729e-07 1.39773e-06 0.0005 
2007 1 -0.00899573 -0.00351888 0.000499804 -5.58696e-05 -0.00057185 7.71977e-05 1.58716e-07 -8.67031e-08 -2.02048e-07 1.70007e-07 -3.13034e-07 1.4511e-06 0.0005 
1617 1 -0.00781055 -0.00350351 0.000499609 -9.20486e-05 0.000213667 2.17662e-05 -6.78723e-07 -1.52017e-07 -8.97878e-08 3.84753e-07 -3.57584e-07 1.41004e-06 0.0005 
230 1 -0.00402004 -0.00359949 0.00049973 1.89824e-05 0.000641783 6.92908e-05 7.30188e-07 5.58869e-07 -1.94085e-08 -8.42391e-08 -7.57463e-08 1.24421e-06 0.0005 
1067 1 -0.00239621 -0.00352358 0.000499701 3.50037e-05 0.000389507 8.03013e-05 2.66611e-07 -4.19125e-07 -4.37918e-10 -4.05484e-07 -4.31521e-09 1.38364e-06 0.0005 
9 1 -0.0130671 -0.00246945 0.000499785 0.000324027 -9.22021e-05 0.000181345 5.78184e-07 -1.31849e-06 -1.59249e-07 1.48728e-07 -1.70108e-07 2.29157e-06 0.0005 
2406 1 -0.0116593 -0.00306108 0.000499662 -5.82126e-05 -8.19837e-06 2.09275e-05 3.52805e-07 -5.67521e-07 -2.58901e-07 1.75802e-07 -1.75134e-07 1.40737e-06 0.0005 
178 1 -0.00952741 -0.0026706 0.00049981 -0.000119029 -0.000256677 -2.98676e-07 5.91799e-07 -1.95897e-07 -6.10998e-08 9.85899e-08 -3.13875e-07 1.454e-06 0.0005 
1238 1 -0.00852618 -0.00263598 0.000499703 -8.81171e-05 -0.000309625 8.29504e-05 -1.66715e-07 1.67558e-07 -7.2674e-07 2.52698e-07 -3.49947e-07 1.45381e-06 0.0005 
1610 1 -0.00703174 -0.00271156 0.000499801 0.000352428 -0.000206614 1.90879e-05 3.58005e-07 -1.9567e-07 3.19466e-08 5.38561e-07 -2.89085e-07 1.42766e-06 0.0005 
391 1 -0.00604579 -0.00287908 0.000499812 0.000223256 5.42877e-05 3.59801e-05 -3.97075e-07 -6.78003e-10 -8.13591e-08 6.81015e-07 -1.54472e-07 1.36299e-06 0.0005 
1178 1 -0.00505802 -0.00303475 0.00049978 5.91926e-05 -0.000132608 -1.01986e-05 4.20302e-07 1.81962e-07 -7.42551e-08 3.92174e-07 -1.73682e-07 1.27044e-06 0.0005 
1798 1 -0.00415633 -0.0026023 0.000499724 4.3785e-05 -3.76566e-05 -6.1564e-05 -2.97604e-07 -1.11655e-06 -6.06634e-07 2.04045e-07 -2.37554e-07 1.22559e-06 0.0005 
619 1 -0.00322349 -0.00296219 0.000499691 0.000625437 0.00134863 1.5473e-05 -2.0043e-07 -3.70056e-07 -9.40877e-08 -2.97499e-07 -7.1448e-09 1.22001e-06 0.0005 
38 1 -0.00210577 -0.00247041 0.000499714 2.27493e-05 0.000132196 -0.000100933 9.93758e-07 5.22367e-08 6.69858e-08 -3.57868e-07 8.25089e-08 1.21627e-06 0.0005 
736 1 -0.000807161 -0.00292859 0.000499729 -0.000547853 0.000936916 9.71906e-05 5.82927e-07 -7.44572e-08 3.41667e-07 5.68888e-09 1.70404e-07 1.64794e-06 0.0005 
186 1 -0.0124316 -0.00169751 0.000499648 0.000261745 -9.6697e-05 1.47819e-05 -3.69878e-08 -4.57876e-07 -1.48191e-07 2.05583e-07 -2.58342e-07 1.53285e-06 0.0005 
459 1 -0.0114383 -0.0020859 0.000499759 4.63671e-05 6.02106e-05 7.21089e-05 -4.7728e-07 -1.95789e-07 -7.78941e-08 1.89819e-07 -2.67317e-07 1.42782e-06 0.0005 
866 1 -0.0104713 -0.00234034 0.000499785 0.000160908 -8.16949e-05 -2.11099e-05 -7.11752e-07 1.1905e-07 -1.65006e-07 1.3499e-07 -3.20906e-07 1.32587e-06 0.0005 
1411 1 -0.00937753 -0.00168181 0.000499803 -8.70622e-05 -0.000338343 -6.82074e-05 -2.57541e-07 2.75628e-07 -6.73847e-07 1.37262e-07 -4.41154e-07 1.34964e-06 0.0005 
1278 1 -0.0077455 -0.00201118 0.000499717 5.92027e-05 -0.000362867 5.70689e-06 7.60701e-08 -2.83333e-07 -2.61748e-07 4.01925e-07 -3.31022e-07 1.4505e-06 0.0005 
62 1 -0.00596956 -0.00188187 0.000499783 0.000343186 -0.00017765 -0.000121547 9.48853e-07 -3.58477e-09 -5.14495e-07 5.98024e-07 -2.86465e-07 1.37428e-06 0.0005 
1669 1 -0.00498155 -0.00203781 0.000499682 9.51987e-05 -0.000153124 0.000108655 -1.0921e-07 -4.67746e-07 2.04752e-07 4.26683e-07 -3.35562e-07 1.20405e-06 0.0005 
1060 1 -0.00385611 -0.00158152 0.000499704 8.67156e-05 0.000130233 1.85491e-06 9.13078e-08 5.12322e-07 -5.68918e-07 8.67212e-08 -5.07997e-07 1.1925e-06 0.0005 
2261 1 -0.00289475 -0.00185612 0.000499733 1.14404e-05 -2.82707e-05 -0.000114357 -2.36578e-07 -3.96089e-07 -3.69995e-07 -2.25578e-07 -1.97255e-07 1.22783e-06 0.0005 
695 1 -0.00123891 -0.00197148 0.00049976 0.000328801 -3.01476e-05 -4.12313e-05 1.91359e-07 -3.9212e-08 -3.94912e-07 -1.48425e-07 2.24388e-08 1.61276e-06 0.0005 
1530 1 -0.0132924 -0.00118826 0.000499828 -9.27337e-05 6.64574e-05 2.75717e-05 1.79047e-07 -1.88942e-07 5.87314e-08 1.67485e-07 -1.87723e-07 2.4015e-06 0.0005 
1654 1 -0.010711 -0.00136957 0.000499687 -0.000434837 -0.000186302 0.000119948 3.67928e-07 -3.85519e-08 -4.45679e-07 1.78621e-07 -3.27621e-07 1.44557e-06 0.0005 
299 1 -0.00768311 -0.000980146 0.000499808 -0.000801036 -0.000174502 6.72585e-06 2.65233e-07 -1.77517e-07 -1.60729e-08 3.07169e-07 -2.32933e-07 1.43577e-06 0.0005 
98 1 -0.0066743 -0.00106242 0.000499637 0.000249243 -0.000169357 0.000145138 5.72357e-08 -7.05677e-07 -4.5908e-07 4.89362e-07 -2.85723e-07 1.40848e-06 0.0005 
781 1 -0.00204442 -0.00133014 0.000499685 0.0003675 -0.000308457 5.10639e-05 -1.18515e-07 -4.55679e-07 6.52752e-07 -1.97278e-07 -2.98639e-07 1.27509e-06 0.0005 
1955 1 -0.000319945 -0.00147842 0.000499704 0.000606393 0.000164804 2.59488e-05 6.35541e-07 -4.75529e-07 -8.837e-08 -5.07389e-08 -1.42438e-07 1.4495e-06 0.0005 
967 1 -0.0133467 -0.000189644 0.000499832 -0.000139333 0.000296501 -1.60983e-06 1.65092e-07 9.83338e-09 3.01127e-08 1.61519e-07 -1.11702e-08 2.4723e-06 0.0005 
1675 1 -0.012442 -0.000615807 0.000499778 -0.000382983 0.000284903 8.35468e-05 -2.68391e-07 1.17776e-07 -3.52806e-07 1.82088e-07 -1.94155e-07 1.53275e-06 0.0005 
2125 1 -0.011502 -9.86099e-05 0.000499805 0.000366814 0.000500904 5.62468e-05 -1.17922e-07 2.44193e-08 -7.97923e-08 6.45521e-08 -7.96155e-08 1.50392e-06 0.0005 
2169 1 -0.00953197 -0.000693898 0.000499677 -0.000352638 -0.00012973 9.93427e-05 3.25164e-09 -1.85564e-07 -3.22856e-07 1.21655e-07 -4.37789e-07 1.3374e-06 0.0005 
6577 1 -0.00858479 -0.000373865 0.000499711 -0.000128252 7.08838e-05 5.77218e-05 -5.24662e-07 -3.74309e-07 -4.85437e-07 2.8793e-07 -2.33728e-07 1.36618e-06 0.0005 
6638 1 -0.00682827 -7.46533e-05 0.000499681 0.000462026 0.000144515 0.000106335 -3.98942e-07 4.44069e-08 -2.7064e-07 4.00682e-07 -1.51306e-07 1.19525e-06 0.0005 
1600 1 -0.00576572 -0.000645045 0.000499621 0.000185523 8.47152e-05 -3.49495e-06 -3.54679e-07 -4.61755e-07 1.11233e-07 4.43963e-07 -3.97367e-07 1.40091e-06 0.0005 
108 1 -0.00325966 -0.000775378 0.000499758 -0.000306499 -0.00172561 0.000179936 4.84221e-07 -5.2991e-07 -3.48993e-07 -3.06447e-08 -5.63939e-07 1.24213e-06 0.0005 
288 1 -0.00178448 -0.000335398 0.000499762 -0.000161232 -0.000840706 -4.61376e-05 -1.59094e-07 -2.22437e-07 9.96603e-08 4.60758e-09 -3.97588e-07 1.32212e-06 0.0005 
1934 1 -0.000387585 -0.000480809 0.000499537 0.00029292 0.000276871 9.45508e-05 8.97307e-07 -4.4827e-07 3.16812e-08 6.81389e-08 -1.19407e-07 1.45218e-06 0.0005 
1180 1 -0.00374247 -0.0128149 0.00092221 0.000233464 -0.000135802 -0.000596332 6.35692e-07 -2.60874e-07 -3.63572e-07 2.65365e-07 6.61533e-08 2.6444e-06 0.0005 
1047 1 -0.00271156 -0.0130718 0.000939118 0.000720851 -0.000177828 -0.000789745 5.23882e-07 -1.66314e-07 -4.68564e-07 3.89757e-07 2.69348e-07 2.74476e-06 0.0005 
2053 1 -0.00467578 -0.0125046 0.000742809 0.00031924 -9.78141e-05 -0.000928408 9.41505e-07 1.27603e-07 -5.50937e-07 1.50564e-07 4.55983e-08 2.4229e-06 0.0005 
427 1 -0.00477552 -0.0110102 0.00116083 0.00027335 -0.000300333 0.000264515 2.47786e-07 1.73354e-07 1.24529e-08 4.12925e-07 -5.1843e-08 2.54129e-06 0.0005 
2081 1 -0.00166492 -0.0106862 0.000835818 0.000122834 0.000133467 -0.000380284 -2.21913e-07 -8.76195e-07 1.6461e-07 4.90624e-07 4.47648e-07 1.79671e-06 0.0005 
1375 1 -0.00811465 -0.00948287 0.000935177 4.38897e-05 -0.000236078 -3.92884e-05 2.53243e-07 -6.92506e-07 1.81912e-07 -2.64104e-07 -6.23057e-07 2.36642e-06 0.0005 
1658 1 -0.00634799 -0.0100595 0.000533898 2.34381e-05 -1.75963e-05 -1.58932e-05 1.42238e-07 -3.57648e-07 -1.35545e-07 5.9303e-08 -3.65923e-07 1.45288e-06 0.0005 
110 1 -0.00455602 -0.0100373 0.00109053 0.000166111 -0.000194593 -6.23723e-06 3.1544e-07 5.60648e-07 -2.4278e-06 5.69378e-07 -2.24474e-07 2.31479e-06 0.0005 
1487 1 -0.00224 -0.00991984 0.00124986 0.000136897 -0.000267438 8.69777e-06 6.80374e-07 -4.48509e-07 2.01436e-07 7.09657e-07 -5.0417e-07 1.95631e-06 0.0005 
2461 1 -0.0095875 -0.00929034 0.00111716 4.09382e-05 -0.000141931 -5.33917e-05 6.5377e-08 -1.93039e-07 -8.6813e-09 9.36722e-08 -7.30915e-07 2.87074e-06 0.0005 
106 1 -0.00621855 -0.00935848 0.00125325 9.21714e-05 -0.00044993 -0.00025091 6.48501e-07 -6.80652e-07 -1.07587e-07 1.46043e-07 -3.98419e-07 2.67243e-06 0.0005 
1750 1 -0.00396377 -0.00923795 0.000991742 0.000113908 -0.000110828 -0.00021042 -2.62369e-07 3.99221e-07 3.81084e-08 1.011e-06 -4.63423e-07 2.27081e-06 0.0005 
243 1 -0.00695722 -0.00838548 0.00121062 1.63446e-05 2.99852e-05 -1.15426e-05 3.12572e-07 2.4594e-07 -1.23155e-07 7.18119e-08 -4.05408e-07 3.07219e-06 0.0005 
948 1 -0.00517916 -0.00800686 0.000767843 -9.18516e-06 0.00018743 -0.000833705 5.39313e-07 -5.54367e-08 -4.74645e-07 3.32628e-07 -2.95175e-07 2.01054e-06 0.0005 
793 1 -0.00402959 -0.00820456 0.000682451 5.50281e-06 0.000277961 -0.00115586 8.47192e-07 -1.71982e-07 -1.1634e-07 4.64967e-07 -3.61409e-07 1.45142e-06 0.0005 
1694 1 -0.00169785 -0.00852529 0.00123444 5.10599e-06 -0.000241987 -0.00058391 4.88659e-07 -5.16333e-07 -6.82621e-07 3.16984e-07 -1.28116e-06 1.87976e-06 0.0005 
842 1 -0.0100261 -0.00764083 0.00106072 6.71167e-05 5.06243e-05 -7.56383e-05 2.66667e-08 2.35188e-07 1.86168e-07 1.96576e-07 -6.55419e-07 2.59482e-06 0.0005 
239 1 -0.00900883 -0.00741676 0.00114316 0.000154923 -0.000122801 6.1357e-05 8.00542e-07 -4.90973e-07 -2.46867e-08 -1.82059e-07 -5.11805e-07 2.94133e-06 0.0005 
13 1 -0.003044 -0.0078624 0.00119601 -0.000182148 8.76027e-05 -6.69782e-05 -7.38375e-08 2.88215e-08 -1.768e-07 2.70743e-07 -6.2523e-07 2.60403e-06 0.0005 
1059 1 -0.00718121 -0.0067365 0.00118606 -0.000537077 0.000117408 -0.000212336 3.18509e-07 -9.79274e-07 -1.29619e-07 2.96673e-08 -1.97076e-07 2.85276e-06 0.0005 
830 1 -0.0048834 -0.00642092 0.00105094 0.000303659 0.000757999 3.53082e-05 5.58707e-07 -8.33987e-07 -7.94435e-08 3.11527e-07 9.91928e-09 2.37921e-06 0.0005 
515 1 -0.00310615 -0.00650592 0.000808194 5.29364e-05 -0.000151152 -0.000113671 4.71295e-08 -8.36398e-07 -8.69397e-09 -2.98408e-07 -4.6515e-07 1.73447e-06 0.0005 
2336 1 -0.00167375 -0.00691037 0.000520266 0.000118232 -0.000268451 -0.000798342 2.16478e-08 -4.37018e-07 -2.88749e-06 -2.69155e-09 -1.07406e-06 1.05286e-06 0.0005 
2421 1 -0.000545267 -0.00705594 0.00095664 -9.18205e-05 -4.56641e-05 -0.000546644 -1.631e-07 -6.61911e-07 -9.51201e-09 2.92522e-07 -1.52647e-06 2.07909e-06 0.0005 
1645 1 -0.0062627 -0.0056075 0.00113973 -0.00017614 -0.000372401 0.000107451 -1.52084e-08 -1.18395e-06 -8.33112e-08 3.50925e-07 -2.21971e-07 2.83446e-06 0.0005 
100 1 -0.00401244 -0.00566672 0.00124311 -0.000101673 0.000513472 3.04558e-05 8.83119e-07 -4.97548e-07 -7.57602e-07 1.54966e-07 8.81112e-08 2.76481e-06 0.0005 
2208 1 -0.00152798 -0.00568321 0.00105759 3.53015e-05 0.00068864 -0.000587558 -9.83081e-08 -8.0966e-07 -1.24405e-07 -1.13731e-07 -5.73123e-07 2.71787e-06 0.0005 
220 1 -0.00940058 -0.00552291 0.00114271 0.000156873 -0.000512236 1.65475e-05 5.26495e-07 6.62048e-08 -1.07383e-06 4.97836e-07 -3.49062e-07 3.02665e-06 0.0005 
1211 1 -0.00785135 -0.0054922 0.0010223 -1.85693e-05 1.26422e-05 -2.483e-05 -5.39784e-08 -3.35297e-07 -1.81292e-07 1.06352e-07 -3.15094e-07 2.32484e-06 0.0005 
565 1 -0.00328892 -0.00481425 0.00124401 0.000161482 -0.0002562 -4.16057e-05 7.37131e-07 -9.06415e-07 -5.67193e-07 -3.3851e-07 -1.71471e-07 2.78621e-06 0.0005 
2300 1 -0.0118163 -0.00398004 0.000860821 0.000270615 -0.000247011 -7.98738e-05 -1.12299e-06 4.17368e-07 4.44934e-07 2.29911e-07 -7.40869e-08 2.45877e-06 0.0005 
1986 1 -0.00646991 -0.00463144 0.00107813 2.48032e-05 -0.000185197 6.13306e-05 -2.6346e-07 -5.39484e-07 -2.89061e-07 2.74285e-07 -2.21097e-07 2.66074e-06 0.0005 
1236 1 -0.00464101 -0.00465581 0.00121469 -0.00149384 -0.00217335 -0.00125632 2.56862e-07 -1.56984e-07 -7.89728e-08 5.4807e-09 -1.70657e-08 2.69403e-06 0.0005 
483 1 -0.00252639 -0.00416757 0.00125332 -0.000129587 0.000318052 0.000200915 1.86659e-08 -3.6976e-07 -3.86119e-07 -6.2974e-07 -2.32891e-07 3.53977e-06 0.0005 
696 1 -0.00686593 -0.00370308 0.000758681 -0.000173966 -0.000462017 0.000164736 -3.8404e-07 -2.95068e-07 1.13348e-06 3.85215e-07 -2.57011e-07 1.77603e-06 0.0005 
704 1 -0.0014875 -0.00353114 0.000916306 3.79291e-05 0.000206926 0.000152342 7.32786e-07 -3.34387e-07 8.13568e-07 9.49652e-10 1.36193e-07 2.48135e-06 0.0005 
2160 1 -8.52739e-05 -0.0034988 0.000891547 -0.00017385 0.00116027 8.09433e-05 6.54115e-08 -7.04633e-07 -2.55826e-07 2.68563e-07 7.01372e-09 2.2798e-06 0.0005 
532 1 -0.0107914 -0.00315228 0.000987723 0.000132693 -0.000104884 -6.32703e-05 8.88085e-07 -5.14946e-07 -1.45788e-06 1.35546e-07 -2.54801e-07 2.63173e-06 0.0005 
1201 1 -0.00778949 -0.00275742 0.00116484 0.00103309 0.00115713 -0.000728332 -1.46524e-07 9.06528e-07 -1.10513e-06 4.69742e-07 -3.77149e-07 3.29634e-06 0.0005 
2224 1 -0.00855261 -0.00180283 0.00105182 -5.39476e-06 -9.87898e-05 0.000111144 -3.3358e-08 -3.40555e-07 -1.64499e-06 2.27598e-07 -3.02739e-07 2.43116e-06 0.0005 
1596 1 -0.00696214 -0.00181645 0.00108962 0.000259843 -0.00046579 5.90266e-05 3.2678e-08 -4.47241e-07 -7.92243e-07 4.4097e-07 -2.24864e-07 2.39278e-06 0.0005 
2459 1 -0.00350714 -0.00226033 0.00117889 -0.000259585 0.000500115 -0.000338579 -8.22552e-07 9.90603e-08 -2.21563e-07 -3.39124e-08 -1.49939e-07 2.60834e-06 0.0005 
78 1 -0.0116446 -0.0011491 0.000781747 -6.88845e-05 0.000381588 -0.000333601 -5.9762e-07 6.07298e-08 -1.6138e-06 2.07282e-07 -2.73642e-07 2.25631e-06 0.0005 
367 1 -0.0100507 -0.001155 0.00121926 -0.000419441 -0.000221005 0.000282958 2.91673e-08 -3.59806e-07 -7.893e-07 1.27175e-07 -4.71413e-07 3.21419e-06 0.0005 
5 1 -0.00506895 -0.00116985 0.000987827 -3.1231e-06 -7.40626e-05 0.000120764 1.01213e-07 -4.74545e-07 4.62956e-07 3.56713e-07 -5.66989e-07 2.33874e-06 0.0005 
1357 1 -0.00115037 -0.00103343 0.000834518 0.000518207 -0.000161614 0.000108922 7.9053e-07 -2.87527e-07 -3.31192e-07 -1.50419e-07 -3.02418e-07 2.37885e-06 0.0005 
2095 1 -0.0104801 -0.000405781 0.000631976 -0.000576622 -0.000157082 0.000364368 3.80928e-07 -6.95419e-07 -7.24703e-07 1.44861e-07 -2.60067e-07 1.68607e-06 0.0005 
42 1 -0.00418963 -0.000711256 0.000861827 -5.0081e-05 0.000154784 -1.56639e-05 1.51388e-07 1.68568e-07 -2.75082e-07 1.92588e-07 -8.32628e-07 2.01257e-06 0.0005 
548 1 -0.00252035 -0.000561146 0.00113797 -0.00030371 -0.000181584 -3.9713e-05 -4.25081e-07 6.91145e-08 3.97769e-07 -9.8347e-08 -5.38518e-07 2.87046e-06 0.0005 
805 1 -0.00295564 -0.0130174 0.00190726 -0.00127731 0.000388349 -0.00149863 5.22272e-07 -3.50976e-07 -2.90798e-07 3.1753e-07 3.95943e-08 4.01289e-06 0.0005 
643 1 -0.00198666 -0.0132015 0.00161532 0.000132383 -1.88478e-05 -0.000244951 7.29921e-07 -6.32304e-07 -1.16382e-06 4.50713e-07 3.54522e-07 3.7297e-06 0.0005 
1951 1 -0.000905449 -0.0133176 0.00130699 9.45479e-05 0.00013304 4.90762e-05 1.23655e-07 1.70719e-07 2.40794e-08 4.46889e-07 3.53684e-07 3.23429e-06 0.0005 
1971 1 -0.000137562 -0.0126723 0.00125637 2.65165e-05 0.000183771 -0.000332919 4.88861e-07 -5.37548e-07 -2.33153e-07 1.09396e-07 -7.52435e-08 2.68987e-06 0.0005 
2416 1 -0.000185693 -0.0133479 0.00200036 9.4821e-05 6.93628e-05 2.38693e-05 1.62394e-07 2.33038e-07 1.91427e-07 1.81378e-07 6.62527e-08 3.83574e-06 0.0005 
2017 1 -0.00570821 -0.0119929 0.00126002 8.71031e-06 -0.00294287 -0.00113655 2.67929e-07 -3.50106e-07 -7.37724e-07 -2.07276e-08 -3.67859e-08 3.19434e-06 0.0005 
527 1 -0.00435884 -0.0126184 0.00168459 -0.000170595 0.000216986 -0.000995447 -2.19949e-08 -6.11746e-08 -1.17765e-06 2.07772e-07 3.49606e-08 3.65628e-06 0.0005 
2327 1 -0.00336469 -0.0120672 0.00146808 0.000123114 -0.000132615 -0.000736473 -7.85987e-07 -3.91241e-08 4.59906e-07 4.00432e-07 1.32968e-07 3.27973e-06 0.0005 
886 1 -0.00238505 -0.0122636 0.00142933 -1.39548e-05 -0.000483662 -0.000333375 2.737e-08 2.21798e-08 -2.08145e-08 4.64773e-07 3.60372e-07 3.07773e-06 0.0005 
848 1 -0.00141813 -0.0124595 0.00126081 0.000153737 0.000184255 -1.40659e-05 4.67043e-07 -6.3841e-07 -7.5449e-07 5.29368e-07 7.42486e-07 3.16789e-06 0.0005 
125 1 -0.000672353 -0.0119386 0.00167583 0.000372191 0.000208594 -0.000268309 -6.64763e-07 -2.32985e-07 -1.09957e-07 2.42036e-07 5.64977e-07 3.4395e-06 0.0005 
2456 1 -0.00681985 -0.0114767 0.00139425 0.00128958 -0.000690275 -0.000707752 3.87604e-07 -2.95597e-07 -4.15349e-07 -7.2836e-08 -6.69965e-08 3.30587e-06 0.0005 
461 1 -0.00540743 -0.0112655 0.00189251 -0.000709672 -0.00128832 -0.000770145 4.9262e-07 -5.21914e-07 2.56711e-08 1.34904e-07 -1.14505e-07 3.98081e-06 0.0005 
2263 1 -0.0044826 -0.0116453 0.00187858 -6.83921e-05 0.000250868 -0.000700479 5.88989e-07 -1.17361e-07 -5.10811e-07 2.85874e-07 -3.77157e-08 3.87299e-06 0.0005 
1851 1 -0.003802 -0.0111819 0.00131122 0.000525113 0.000109452 -0.00012915 2.38035e-07 3.51993e-07 -1.90156e-07 7.53966e-07 1.64267e-07 3.06861e-06 0.0005 