ITEM: TIMESTEP
15000
ITEM: NUMBER OF ATOMS
10000
ITEM: BOX BOUNDS mm mm mm
-0.015 0.015
-0.015 0.015
-0.001 0.0554
ITEM: ATOMS id type x y z vx vy vz fx fy fz f_dragforce[1] f_dragforce[2] f_dragforce[3] radius 
1359 1 -0.00149174 -0.0132658 0.000499705 -0.000118821 -3.83217e-05 4.66016e-05 -1.61775e-07 3.03158e-07 -5.01283e-08 8.24181e-08 1.22988e-07 1.84382e-06 0.0005 
2191 1 -4.9977e-05 -0.0133448 0.000499808 0.00132132 -0.000450668 3.27296e-07 5.08449e-08 -1.35151e-08 3.58662e-09 1.09605e-07 -1.48276e-08 1.30721e-06 0.0005 
637 1 -0.00304779 -0.0122404 0.000498773 -0.000117004 0.000142328 -3.28922e-05 6.84279e-09 1.23072e-08 -1.8052e-08 -3.68981e-08 1.53732e-07 1.15472e-06 0.0005 
1496 1 -0.00207143 -0.012451 0.000498828 -5.73808e-05 0.00025848 0.00012299 -4.77786e-08 2.91317e-07 -2.60281e-09 4.61131e-08 1.73372e-07 1.3416e-06 0.0005 
502 1 -0.000771699 -0.0125188 0.000499063 -8.07264e-05 0.000229071 3.93954e-05 4.68236e-08 2.89367e-07 -5.10962e-09 1.01537e-07 1.43613e-07 1.23885e-06 0.0005 
1195 1 -0.0070609 -0.0111025 0.000499497 -0.000136002 -0.000154322 2.08416e-05 6.52566e-08 3.50738e-07 6.47682e-08 -1.94051e-07 6.04422e-08 1.41031e-06 0.0005 
1356 1 -0.00631141 -0.0117641 0.00049952 -2.02396e-05 -4.52266e-05 4.28354e-05 -3.41287e-08 2.55277e-08 6.92995e-08 -1.70583e-07 1.46662e-07 1.588e-06 0.0005 
939 1 -0.0051489 -0.0116607 0.000499657 -0.000120994 -9.24548e-05 -2.11237e-05 -3.48664e-08 -2.88051e-08 6.73218e-08 -1.11548e-07 1.50187e-07 1.19944e-06 0.0005 
1758 1 -0.00414816 -0.0116606 0.000499791 3.84984e-05 -3.48379e-05 -1.78607e-05 -1.41411e-07 2.50276e-07 -3.27608e-08 -6.73759e-08 1.423e-07 1.05476e-06 0.0005 
656 1 -0.00321953 -0.0112571 0.00049921 -0.000214474 0.000212642 8.2808e-05 1.30811e-07 2.58383e-08 -4.62394e-08 -1.68142e-08 1.71217e-07 1.07442e-06 0.0005 
758 1 -0.00220757 -0.0114603 0.000499795 -0.000275872 0.000134989 -5.02506e-07 1.92969e-09 1.47127e-07 1.52129e-09 -6.6518e-09 1.88993e-07 1.08739e-06 0.0005 
319 1 -0.00111971 -0.0115643 0.000499774 0.000136159 7.98812e-05 -0.000102207 8.3402e-07 -1.17337e-07 -2.79293e-07 1.28669e-08 1.77444e-07 1.0931e-06 0.0005 
511 1 -1.42481e-05 -0.0111167 0.00049776 6.61286e-05 0.00014564 0.000183125 1.1988e-07 -1.7478e-07 -2.4744e-08 3.24663e-08 3.05679e-08 9.30361e-07 0.0005 
1144 1 -0.00802289 -0.0106629 0.00049979 -0.00111419 -0.000611146 4.35126e-05 -1.42315e-07 -1.47804e-07 1.87409e-08 -2.56269e-07 -5.54182e-08 1.32785e-06 0.0005 
353 1 -0.00578149 -0.0108867 0.000499548 0.000241446 0.00022757 -4.27211e-05 -2.37925e-07 -2.4244e-07 1.06469e-07 -1.07742e-07 8.57277e-08 1.11821e-06 0.0005 
1818 1 -0.00393819 -0.0105641 0.000498497 -0.000410182 0.000157617 0.000117914 2.00489e-07 2.18993e-07 1.75242e-08 -2.17064e-08 1.01973e-07 1.07089e-06 0.0005 
1873 1 -0.00258386 -0.0104866 0.000499766 1.07515e-06 7.57326e-05 -6.44938e-05 -1.93345e-08 1.96122e-07 -2.9202e-08 -1.2961e-08 1.02095e-07 1.06398e-06 0.0005 
2211 1 -0.000754836 -0.010446 0.000498819 -7.01208e-05 -2.15101e-05 6.79191e-05 6.42439e-09 -1.99591e-07 -5.11693e-08 -1.68033e-08 8.18093e-08 1.03707e-06 0.0005 
647 1 -0.00885443 -0.00999167 0.000499692 -0.000357358 0.0004802 -0.000164804 -3.00351e-07 -1.21395e-07 2.49222e-07 -2.01221e-07 -1.54557e-07 1.29896e-06 0.0005 
542 1 -0.00733726 -0.00993481 0.000499159 -0.00056761 -0.000904493 6.23517e-05 -2.69149e-07 3.4389e-07 -1.52429e-08 -2.0707e-07 -1.52374e-07 1.00755e-06 0.0005 
1585 1 -0.00535574 -0.00994819 0.000499064 -0.000444304 0.000560837 -2.45155e-06 1.00014e-07 1.27946e-07 3.62493e-08 -2.44546e-08 -1.86804e-10 1.1226e-06 0.0005 
2142 1 -0.00325967 -0.00975044 0.000499328 -4.74987e-05 8.97964e-05 5.43363e-05 -4.22611e-08 5.01188e-08 -1.38317e-07 8.54649e-10 -1.92527e-08 1.04433e-06 0.0005 
2330 1 -0.00886448 -0.0089866 0.000498874 -8.14869e-06 0.000424374 -7.68386e-05 -4.77708e-07 6.21285e-08 2.08484e-07 -1.86292e-07 -2.40347e-07 9.77161e-07 0.0005 
733 1 -0.00681197 -0.00906914 0.000499225 1.09415e-05 -0.000155655 4.69376e-06 3.00597e-07 -1.8046e-07 -1.54826e-07 -1.10923e-07 -1.61309e-07 1.08302e-06 0.0005 
1443 1 -0.00575624 -0.00889375 0.000499541 0.000192116 0.000269867 9.47989e-05 1.3429e-07 -5.43409e-07 -3.47576e-07 -3.87585e-08 -1.69313e-07 1.11183e-06 0.0005 
1221 1 -0.00475685 -0.00887305 0.000499376 0.000206214 0.000377772 6.6119e-05 1.5473e-07 -3.42342e-07 5.59864e-08 -4.08755e-09 -1.66587e-07 1.11334e-06 0.0005 
388 1 -0.00321085 -0.0087517 0.000499774 0.000265301 3.66971e-05 -1.09799e-05 2.99261e-07 2.8202e-08 3.57464e-08 -2.49991e-09 -8.80835e-08 1.04541e-06 0.0005 
823 1 -0.0023602 -0.00927777 0.000499797 1.50964e-05 -8.94194e-05 2.80477e-06 6.5045e-08 3.19776e-08 -1.67349e-07 9.43745e-09 -7.10336e-08 1.02345e-06 0.0005 
714 1 -0.00108432 -0.00881178 0.000499199 3.41879e-05 2.0003e-05 5.63472e-05 -3.41069e-08 2.06608e-07 5.57185e-08 1.74926e-08 -1.36528e-07 9.76863e-07 0.0005 
462 1 -8.64439e-05 -0.00886533 0.000499228 4.27082e-05 -3.57416e-05 9.57108e-05 1.25649e-07 1.11837e-07 -1.01261e-07 -3.19336e-08 -4.80129e-08 9.08188e-07 0.0005 
529 1 -0.0102101 -0.00860153 0.000499531 -0.000175572 0.000307691 3.27301e-05 -2.48464e-08 -1.39263e-07 -9.27142e-08 7.01127e-08 -3.44217e-07 1.4065e-06 0.0005 
359 1 -0.00934099 -0.00810826 0.000499001 -0.000135819 0.000492134 1.90558e-05 -2.33986e-07 8.80128e-08 2.39244e-08 -1.45593e-07 -2.05988e-07 1.04083e-06 0.0005 
1505 1 -0.00808053 -0.00836613 0.00049968 6.0606e-05 0.000759749 5.87169e-05 -2.7116e-07 -3.08368e-09 5.46062e-08 -1.69894e-07 -1.4743e-07 1.04606e-06 0.0005 
2252 1 -0.00613509 -0.00796862 0.000499698 -4.894e-05 -7.79162e-06 -0.000109587 -3.95932e-07 -1.68545e-07 -1.28119e-07 -5.12976e-08 -1.1745e-07 1.12893e-06 0.0005 
2042 1 -0.00233211 -0.00827451 0.000499791 0.000280712 -7.58038e-05 4.68916e-06 2.91149e-07 5.96332e-08 -4.14892e-08 -1.61796e-09 -9.03041e-08 1.06426e-06 0.0005 
1539 1 -0.0108375 -0.00779657 0.00049889 -0.000149281 0.000168792 2.93373e-05 -3.21652e-08 -2.10257e-07 -4.20352e-08 1.74706e-07 -2.92102e-07 1.6235e-06 0.0005 
986 1 -0.00812134 -0.007367 0.000499794 0.000647173 0.000844478 1.25654e-05 -2.86535e-07 5.40188e-08 -6.75507e-09 -2.61e-07 -1.03847e-07 9.89965e-07 0.0005 
1847 1 -0.00709643 -0.00769382 0.000499115 -0.000200906 -0.000369331 4.09066e-05 -4.11196e-09 1.31189e-07 -1.6579e-07 -1.26206e-07 -9.79569e-08 1.14799e-06 0.0005 
1447 1 -0.0056113 -0.00711697 0.000499719 0.000146626 -5.03506e-05 -4.75592e-05 -1.13359e-07 -3.80339e-07 -1.05422e-08 -1.63517e-08 -7.34571e-08 1.10064e-06 0.0005 
1848 1 -0.00461876 -0.00723972 0.000499094 0.00019882 0.000186289 4.99799e-06 -3.24343e-07 1.8445e-07 6.25249e-08 -4.28138e-08 -8.1636e-09 1.14215e-06 0.0005 
2417 1 -0.00359366 -0.00736094 0.000499707 4.17489e-05 0.000544305 1.26035e-05 6.64479e-08 9.65785e-08 -3.27468e-08 -5.70168e-08 -6.33544e-09 1.10505e-06 0.0005 
1462 1 -0.00259516 -0.00730956 0.000498665 0.000153921 4.44608e-05 6.79073e-05 3.06539e-07 1.53725e-07 1.0655e-07 -4.55978e-08 -5.2403e-08 1.06582e-06 0.0005 
46 1 -0.00131646 -0.00783938 0.000499716 0.000307052 0.000115155 1.79072e-05 -7.7693e-07 -1.7225e-07 -1.1591e-07 7.30779e-08 -2.76324e-07 1.16882e-06 0.0005 
1432 1 -0.000187042 -0.00787102 0.000499301 -0.000128449 2.02772e-05 -2.91422e-05 4.11457e-07 -2.17965e-08 8.44202e-08 6.5109e-08 -1.2626e-07 1.02284e-06 0.0005 
2195 1 -0.0115994 -0.0066039 0.000498793 -2.06297e-05 0.000339973 0.000128633 -4.71854e-07 4.3381e-08 9.5743e-08 3.62783e-07 -1.23272e-07 1.85677e-06 0.0005 
1429 1 -0.0105939 -0.00682496 0.000499797 -7.7754e-05 0.000805394 1.80364e-08 1.65233e-07 -1.33164e-07 -6.07108e-10 2.07224e-07 -1.40123e-07 1.14678e-06 0.0005 
551 1 -0.00959763 -0.00693262 0.000499183 -0.000187287 -9.85123e-05 7.15226e-05 -1.19124e-06 -1.43137e-06 2.03995e-07 -1.19223e-08 -1.35352e-07 1.05088e-06 0.0005 
1263 1 -0.00879622 -0.00633304 0.000499795 -0.000452286 -0.00063909 -3.3985e-08 -9.3265e-08 -7.37914e-08 -1.07342e-09 -1.16033e-07 -1.11536e-07 1.00075e-06 0.0005 
490 1 -0.00778515 -0.00634836 0.000499273 -0.000361096 0.000192412 3.14522e-05 -3.19502e-07 -2.29143e-07 2.19803e-07 -2.53093e-07 -5.94976e-08 1.05182e-06 0.0005 
1485 1 -0.00646832 -0.00656737 0.000499764 -0.000149657 -0.000742484 5.37639e-05 1.78578e-07 -9.16802e-08 -9.1935e-09 -7.59454e-08 -1.02452e-07 1.11233e-06 0.0005 
74 1 -0.00405038 -0.00639673 0.000499509 3.53001e-05 0.000350826 2.69973e-05 6.12741e-08 -5.81273e-08 8.91375e-08 9.73397e-08 8.94626e-08 9.95894e-07 0.0005 
606 1 -0.0109799 -0.00581923 0.000499893 -7.42959e-05 0.000272639 -6.1342e-05 -5.11314e-08 -1.71456e-07 2.21746e-07 3.21106e-07 -7.05235e-08 1.25359e-06 0.0005 
1293 1 -0.00999757 -0.00600533 0.000499723 -0.000101299 -1.64795e-05 1.44917e-05 3.77754e-08 9.25433e-07 2.24415e-07 2.79455e-07 -4.48409e-08 1.09262e-06 0.0005 
1248 1 -0.00701999 -0.00570431 0.000499796 -0.000103855 0.000300737 -6.04602e-07 -1.56844e-07 -3.49968e-08 -1.17393e-08 -1.82615e-07 -3.7134e-08 1.07876e-06 0.0005 
1101 1 -0.00560486 -0.00601154 0.000498771 -0.000172086 -0.000112179 2.19519e-05 5.23705e-08 6.71729e-08 -9.26671e-09 2.1139e-08 -5.62715e-08 1.11219e-06 0.0005 
817 1 -0.00467944 -0.00561272 0.000499507 -0.00041314 0.000279337 2.39612e-05 -2.43367e-07 -3.40754e-08 -2.55198e-08 1.18089e-07 9.96901e-08 9.97811e-07 0.0005 
1969 1 -0.00335356 -0.00559079 0.000499402 -5.51461e-05 4.58055e-05 0.000108186 2.74834e-07 2.19759e-08 -4.71254e-08 -1.32369e-07 3.26983e-08 9.7728e-07 0.0005 
266 1 -0.00225331 -0.00609055 0.000498977 4.92705e-05 0.000184091 6.51998e-05 1.55198e-07 -8.70046e-08 8.46024e-09 -2.37944e-07 -8.3647e-08 9.69177e-07 0.0005 
1477 1 -0.00092027 -0.00626325 0.000499295 2.64789e-05 0.000379456 5.67378e-05 6.7458e-07 3.40588e-07 6.89853e-08 4.66846e-08 -1.45565e-07 1.13196e-06 0.0005 
740 1 -8.82035e-05 -0.00558916 0.000499498 -9.23641e-05 0.000111234 7.87913e-05 5.59276e-08 -4.26215e-07 -6.26356e-08 1.9419e-07 -4.67638e-08 9.36607e-07 0.0005 
1091 1 -0.0121732 -0.00548268 0.00049859 -0.000199498 0.000407475 6.15034e-05 -1.00713e-07 3.34895e-07 7.26946e-08 2.83514e-07 -7.06277e-08 1.92565e-06 0.0005 
900 1 -0.0113638 -0.00489602 0.000499599 -0.000124314 0.000183292 9.03032e-06 1.59632e-08 1.71409e-07 1.08125e-08 2.18791e-07 -8.02119e-08 1.05335e-06 0.0005 
1315 1 -0.0103205 -0.00483723 0.000499138 1.70853e-05 -0.000340996 -1.35929e-05 2.0759e-07 -2.71573e-08 -2.93623e-07 2.38279e-07 -5.51905e-08 1.07008e-06 0.0005 
53 1 -0.0086768 -0.00528133 0.000498522 0.000166794 -8.49919e-05 9.20785e-05 5.62214e-07 7.23239e-08 -1.76701e-08 -9.5537e-09 -1.442e-07 1.02029e-06 0.0005 
1403 1 -0.00564888 -0.0049523 0.000499705 -0.000764146 -0.000214127 3.85616e-05 -3.63609e-08 1.02922e-07 1.74311e-07 2.51185e-08 4.13227e-08 1.0404e-06 0.0005 
2181 1 -0.00395232 -0.00479073 0.000499018 -0.000118304 9.57254e-05 5.05167e-05 4.41495e-07 3.38591e-08 5.36712e-08 -9.44123e-08 6.61092e-08 9.49823e-07 0.0005 
152 1 -0.00257328 -0.00496657 0.0005 1.90599e-05 6.65974e-05 9.00882e-05 7.38301e-08 2.43783e-07 2.44981e-07 -2.04471e-07 5.17361e-08 1.15695e-06 0.0005 
262 1 -0.000966459 -0.00511155 0.000499522 8.40341e-05 0.000241931 -2.41001e-05 5.97828e-08 -5.11903e-08 -9.36817e-08 4.81618e-08 5.3597e-08 1.19208e-06 0.0005 
890 1 -0.0125488 -0.00455661 0.000499992 -0.000118149 0.000575012 5.01184e-05 -1.54643e-07 1.01441e-07 -2.02355e-07 1.26827e-07 -6.12205e-08 1.76494e-06 0.0005 
2 1 -0.0108903 -0.00401541 0.00049984 0.000287783 -8.16682e-05 -1.33385e-05 7.17254e-08 1.42985e-07 -2.54162e-07 1.25251e-07 -1.06856e-07 9.76643e-07 0.0005 
12 1 -0.00938785 -0.0044539 0.000499302 0.000267509 -0.000152427 5.76492e-05 5.22092e-07 3.15084e-07 7.4411e-08 6.53182e-08 -1.112e-07 1.03271e-06 0.0005 
1415 1 -0.00839489 -0.0043225 0.000499118 -3.60058e-05 7.18791e-05 7.35757e-05 -6.07132e-07 3.13506e-07 -2.3167e-07 -4.93128e-09 -1.09037e-07 1.022e-06 0.0005 
93 1 -0.00728771 -0.00463741 0.000499422 -0.000127549 -0.000408792 6.49708e-05 -7.37259e-07 2.44767e-07 -4.40083e-08 -6.72928e-08 -7.25537e-08 1.04475e-06 0.0005 
2064 1 -0.00595399 -0.0040002 0.00049854 -1.49462e-05 -1.90755e-05 5.24226e-05 -8.00368e-08 1.77518e-07 -8.17184e-08 4.62402e-08 7.79762e-08 1.01995e-06 0.0005 
1452 1 -0.00495409 -0.00400516 0.000499769 4.67109e-05 -0.000508172 2.39739e-05 1.30936e-07 -1.60287e-07 3.3857e-08 2.55363e-08 7.76751e-08 9.6792e-07 0.0005 
1459 1 -0.00317169 -0.00416586 0.000499078 -0.00012376 2.95122e-05 8.4887e-05 8.2186e-08 1.01417e-07 -1.20056e-07 -1.75037e-07 9.89101e-08 1.17512e-06 0.0005 
1507 1 -0.00173768 -0.00441858 0.000499754 -0.000126693 0.000363136 2.53104e-05 1.32191e-07 3.45021e-07 6.9674e-08 -9.88481e-08 1.3086e-07 1.22428e-06 0.0005 
2217 1 -0.000782302 -0.00412549 0.000499226 -0.000115276 0.000505029 0.000132588 -5.01703e-07 5.68996e-07 8.73473e-08 1.22176e-07 2.34856e-07 1.23753e-06 0.0005 
982 1 -0.0128881 -0.00348191 0.000499179 -9.82085e-05 0.000254393 4.39909e-05 1.08934e-07 -1.053e-07 -2.5784e-08 8.00547e-08 -1.02222e-08 1.74229e-06 0.0005 
1544 1 -0.00999964 -0.0035609 0.00049978 0.000357912 -0.000330248 -1.72266e-05 2.26532e-07 4.54777e-07 2.38068e-07 6.04564e-08 -8.24993e-08 1.02031e-06 0.0005 
2007 1 -0.00900029 -0.00352559 0.000499796 0.000376337 -0.000743502 3.59909e-06 9.55373e-08 -2.3962e-08 -1.52534e-08 -2.68969e-08 -6.96518e-08 1.06911e-06 0.0005 
1617 1 -0.0078159 -0.00350731 0.000499324 2.09331e-06 6.32815e-05 2.35041e-05 -5.77577e-07 2.86243e-08 1.55821e-07 1.97535e-08 -4.26073e-08 1.02944e-06 0.0005 
230 1 -0.0040416 -0.00359634 0.000499402 -9.95419e-05 1.76749e-05 8.11859e-05 1.72574e-07 8.41989e-08 -5.17552e-08 -1.70345e-08 9.86422e-08 9.64415e-07 0.0005 
1067 1 -0.00238905 -0.00354386 0.000499163 -0.000226055 0.000262585 7.69437e-05 -2.77423e-07 3.17322e-07 -1.5202e-07 -1.60886e-07 1.57123e-07 1.11747e-06 0.0005 
9 1 -0.0130652 -0.00247452 0.000499569 4.59309e-05 -9.42749e-05 -2.30172e-05 -1.08021e-07 2.15858e-07 -1.29445e-08 1.07933e-07 4.53041e-08 1.75956e-06 0.0005 
2406 1 -0.0116637 -0.00306293 0.0004989 0.000197992 -8.51649e-05 2.59596e-05 -3.91869e-07 1.35076e-07 -4.24033e-08 1.16241e-07 -2.76112e-08 1.03929e-06 0.0005 
178 1 -0.00953242 -0.00267552 0.000499798 9.86841e-05 -0.000513968 -4.55863e-08 -4.62474e-09 -1.44201e-08 -1.0743e-09 1.04698e-08 -3.34397e-08 1.07019e-06 0.0005 
1238 1 -0.00853069 -0.00262942 0.000499346 1.8523e-05 7.00073e-05 4.08762e-05 -3.12874e-08 6.03973e-08 1.15113e-07 1.98248e-08 -2.46958e-08 1.04951e-06 0.0005 
1610 1 -0.00704642 -0.00272653 0.000499794 0.000665293 0.000133909 -6.77815e-08 5.85633e-08 1.56345e-08 -1.38961e-09 9.5363e-08 2.47337e-08 1.02008e-06 0.0005 
391 1 -0.00605636 -0.00288487 0.000499797 0.000682218 -0.000306295 -1.09132e-07 1.32659e-07 7.1132e-08 -2.21849e-09 1.77923e-07 7.15587e-08 1.00005e-06 0.0005 
1178 1 -0.00506204 -0.00300495 0.000499793 -0.000181067 7.29089e-05 3.71949e-07 1.36847e-07 6.64686e-08 -3.24035e-09 1.54221e-07 8.0101e-08 9.94423e-07 0.0005 
1798 1 -0.00415232 -0.00258952 0.00049975 -0.000409512 -0.00011568 8.23179e-06 -2.22446e-07 -1.06179e-07 2.39907e-08 1.65622e-07 7.63635e-08 9.94488e-07 0.0005 
619 1 -0.00323316 -0.00300785 0.000499751 -0.000302996 0.000129564 3.86407e-06 -1.38667e-07 4.7236e-08 -1.2762e-07 -7.51106e-08 1.4806e-07 9.74026e-07 0.0005 
38 1 -0.00211752 -0.00249472 0.000499796 -0.000699919 6.77586e-05 2.50145e-06 -8.98062e-08 1.37573e-07 -1.26757e-08 -1.39258e-07 1.4452e-07 9.67261e-07 0.0005 
736 1 -0.000793204 -0.00295349 0.000499779 -0.000263197 0.000459884 7.20498e-06 -1.41034e-07 1.63798e-07 -1.19624e-07 -4.49744e-08 1.29122e-07 1.21028e-06 0.0005 
186 1 -0.0124288 -0.00170343 0.000499132 -5.9874e-05 4.97002e-05 6.41919e-05 1.72367e-08 6.22793e-08 -5.96316e-08 1.72183e-07 8.66969e-08 1.18789e-06 0.0005 
459 1 -0.0114498 -0.00208728 0.000499869 0.000231443 -2.99852e-05 -6.41885e-05 1.00983e-07 -2.93493e-08 -1.03299e-07 1.97531e-07 7.04082e-08 1.05892e-06 0.0005 
866 1 -0.0104729 -0.00233405 0.00049959 0.00011524 -8.94688e-05 8.08957e-06 -2.01055e-08 -1.66497e-07 1.0703e-07 1.19109e-07 -8.6712e-09 9.92951e-07 0.0005 
1411 1 -0.00937971 -0.00168364 0.000499665 -5.14868e-05 -7.36791e-05 4.89223e-05 -3.88557e-07 -6.31798e-07 8.1834e-08 1.16413e-07 -1.30754e-08 9.262e-07 0.0005 
1278 1 -0.00775154 -0.00200333 0.000499571 4.18796e-05 -4.64129e-05 3.35387e-05 3.28197e-08 -3.76936e-08 9.17814e-08 7.07008e-08 2.1092e-08 1.01632e-06 0.0005 
62 1 -0.0060125 -0.00187697 0.000499773 0.000881456 -0.000106693 -5.9125e-06 -2.70317e-08 9.25085e-09 8.60635e-08 1.67931e-07 3.67428e-08 9.99902e-07 0.0005 
1669 1 -0.00496906 -0.00200774 0.000499676 9.94849e-05 -4.24442e-05 2.91051e-06 1.70788e-07 2.63111e-07 1.33849e-07 1.76027e-07 1.88307e-08 9.6142e-07 0.0005 
695 1 -0.0012543 -0.0019772 0.000499301 0.000322809 -0.000392454 4.41363e-05 3.97213e-07 8.3586e-08 1.75609e-07 -1.14115e-07 4.73084e-08 1.18083e-06 0.0005 
1530 1 -0.0132945 -0.00120387 0.000499571 -0.000113859 -5.21603e-05 -2.43515e-05 -6.15232e-08 -1.65931e-07 -1.83675e-08 1.33598e-07 1.33868e-07 1.84278e-06 0.0005 
1654 1 -0.010715 -0.00136418 0.00049936 0.00013136 -7.49888e-05 5.03574e-05 2.58408e-07 6.4201e-09 5.71625e-08 2.07357e-07 1.16987e-07 1.07822e-06 0.0005 
299 1 -0.00769931 -0.000979896 0.000499798 0.00038123 0.000186826 -9.11918e-08 2.03514e-08 6.10632e-08 -2.19323e-09 3.68734e-08 7.66904e-08 9.87522e-07 0.0005 
98 1 -0.00667827 -0.00106346 0.000499151 1.3827e-05 -5.78333e-05 2.93227e-06 1.20934e-08 -1.25932e-07 -1.21675e-07 1.04944e-07 4.51276e-08 9.96806e-07 0.0005 
1060 1 -0.00391258 -0.00157495 0.000499484 0.000848116 -0.000117045 8.04602e-05 -5.06263e-07 -7.57042e-08 -2.0069e-07 4.05212e-08 -9.57271e-08 9.05354e-07 0.0005 
781 1 -0.00210368 -0.00129086 0.000499763 0.00588599 0.00258052 7.97617e-05 2.61272e-07 6.53202e-08 -1.92134e-07 -1.93463e-07 -1.17477e-07 9.11887e-07 0.0005 
1955 1 -0.000341245 -0.0014837 0.000499448 0.000342845 4.0254e-05 9.42157e-05 1.74333e-07 -2.50826e-07 -3.15798e-07 -2.47378e-08 1.15994e-08 1.05737e-06 0.0005 
1675 1 -0.0124416 -0.000621134 0.000499297 3.17141e-05 -8.60193e-05 -2.16788e-05 -7.1347e-08 -1.76426e-07 -3.85062e-08 1.58206e-07 1.77919e-07 1.18662e-06 0.0005 
2125 1 -0.0115144 -0.000115035 0.000499322 -1.86335e-05 3.667e-05 9.16844e-05 -1.01995e-07 -3.01307e-07 -2.53803e-08 4.30409e-08 2.36117e-07 1.11977e-06 0.0005 
2169 1 -0.00953391 -0.0006957 0.000499799 0.000148142 -8.59408e-05 8.88071e-05 8.86227e-08 3.29922e-07 2.70649e-08 1.27934e-07 1.96396e-08 9.15181e-07 0.0005 
6577 1 -0.00859088 -0.000365126 0.00049888 0.000208393 -0.00022266 2.79583e-05 1.94497e-07 1.45654e-07 -2.8965e-08 5.3739e-08 4.92858e-08 9.48453e-07 0.0005 
6638 1 -0.00683832 -7.73691e-05 0.000499308 0.000431075 3.89377e-05 5.52968e-05 1.56961e-07 -2.82877e-08 2.61873e-08 4.44618e-08 6.18105e-08 9.28393e-07 0.0005 
1600 1 -0.00576961 -0.000646369 0.00049918 -8.29265e-05 0.000195792 5.62726e-05 2.13308e-07 -2.09832e-07 -8.8083e-08 1.02313e-07 -5.74343e-09 1.00025e-06 0.0005 
108 1 -0.00326112 -0.000748599 0.00049908 0.000350266 -8.00473e-05 0.000138173 3.12083e-07 -7.04401e-08 9.98937e-08 -1.04866e-07 -2.00334e-07 9.00173e-07 0.0005 
288 1 -0.00178161 -0.000342294 0.000499421 0.000357969 -0.000165284 4.91725e-05 2.16477e-07 9.24244e-08 -1.31373e-07 -6.94805e-08 -1.52546e-07 9.64222e-07 0.0005 
1934 1 -0.000386992 -0.000485005 0.000499503 3.44234e-05 7.39428e-05 5.82038e-05 -1.41289e-07 -3.89245e-08 -2.71822e-07 2.66186e-08 -6.9978e-09 1.03187e-06 0.0005 
1180 1 -0.00374271 -0.0128155 0.000927655 3.86298e-05 1.44354e-05 0.000114113 -5.99582e-08 -1.62378e-08 -8.71334e-08 -8.50457e-08 9.62721e-08 2.13489e-06 0.0005 
1047 1 -0.00271686 -0.0130727 0.000939397 -4.41751e-05 0.000169946 0.000130699 -1.84931e-08 7.70795e-08 -7.21732e-08 -1.16873e-08 1.14967e-07 2.36257e-06 0.0005 
1971 1 -0.000138146 -0.0126732 0.00125568 -0.00039518 0.000142281 0.000262758 5.39172e-08 1.99504e-07 1.30565e-07 4.90952e-08 -1.94348e-08 2.01932e-06 0.0005 
2053 1 -0.00467604 -0.0125047 0.00075091 -3.14361e-08 3.02583e-05 0.000179645 4.19138e-08 -2.49605e-08 -1.12515e-07 -1.15826e-07 1.26916e-07 1.9816e-06 0.0005 
427 1 -0.00477418 -0.0110275 0.00117652 -0.000321453 0.000240533 -0.000249393 1.04957e-07 8.03315e-07 -4.08213e-07 -3.58143e-08 1.22838e-07 2.25087e-06 0.0005 
2081 1 -0.00166416 -0.0106894 0.000832976 -0.000136123 5.64132e-05 0.000155489 -1.90193e-08 -1.09203e-07 -3.6229e-07 -2.62728e-08 1.34939e-07 1.69009e-06 0.0005 
1375 1 -0.00811345 -0.00948056 0.000934029 -0.000158906 2.16816e-05 0.000167877 -3.99586e-07 7.59634e-08 -1.86313e-07 -2.40929e-07 -2.45591e-07 1.82744e-06 0.0005 
1658 1 -0.00634732 -0.0100634 0.000541271 -0.000412506 -0.000154685 3.43957e-05 -1.20407e-07 3.66664e-08 4.08024e-07 -9.85169e-08 -3.32649e-08 1.20972e-06 0.0005 
110 1 -0.00455875 -0.0100549 0.00109136 -0.000480756 0.000324609 8.09568e-05 3.10927e-07 6.45473e-07 5.36984e-08 -4.49198e-08 2.49409e-08 2.09898e-06 0.0005 
1487 1 -0.00223656 -0.00992627 0.00125088 0.000367557 -9.98661e-05 -3.2427e-05 -1.68563e-07 6.16937e-07 -3.79947e-07 -6.21114e-08 -2.69274e-08 2.24446e-06 0.0005 
2090 1 -0.00144077 -0.00973341 0.00064711 -0.000109511 -2.4304e-05 -0.000394026 8.55259e-07 -1.00798e-07 3.96231e-07 -7.94381e-09 -4.93636e-08 1.18653e-06 0.0005 
2461 1 -0.00958394 -0.00929524 0.00111889 0.000173381 -7.5022e-05 4.73573e-05 -6.431e-07 3.03176e-07 -1.03719e-08 -6.63248e-08 -2.61026e-07 2.28184e-06 0.0005 
1750 1 -0.0039729 -0.00925177 0.000990793 -1.70099e-05 7.83623e-05 0.000251252 5.19547e-07 3.6051e-07 1.56984e-07 4.78291e-09 -1.16855e-07 2.06086e-06 0.0005 
243 1 -0.00695812 -0.00838686 0.00121535 -0.000261229 0.000192629 -0.000304969 6.42978e-07 -5.51386e-08 -2.47598e-07 -6.60777e-08 -8.48836e-08 3.03707e-06 0.0005 
948 1 -0.00517938 -0.00801468 0.000789627 2.42522e-06 0.00033144 3.13023e-06 -5.59179e-07 -9.80496e-08 1.88044e-07 -4.98763e-08 -9.51484e-08 1.7178e-06 0.0005 
793 1 -0.00402985 -0.0082289 0.000735836 0.000417048 0.000261022 -1.37107e-05 -3.83607e-09 1.21144e-07 1.45752e-07 -6.26762e-08 -7.10152e-08 1.41275e-06 0.0005 
1694 1 -0.00170223 -0.00853144 0.00123275 0.000138169 -0.000138523 0.000220662 1.29306e-09 8.28578e-09 2.13002e-07 -2.27011e-08 -1.40703e-07 2.24514e-06 0.0005 
842 1 -0.0100249 -0.0076424 0.0010588 -0.000282484 -9.38638e-05 0.000378158 -7.90197e-07 -1.02121e-06 5.08503e-07 -1.42615e-08 -2.54498e-07 2.07815e-06 0.0005 
239 1 -0.00900859 -0.00742018 0.00114283 7.66986e-05 0.000424413 4.99622e-05 -8.67258e-08 -3.59032e-07 1.27378e-07 -2.38584e-07 -1.55655e-07 2.26692e-06 0.0005 
13 1 -0.00304997 -0.00787048 0.00118849 0.000265442 -0.000125237 9.17961e-05 6.02336e-07 1.32277e-07 3.87197e-07 -5.2468e-08 -3.73342e-08 2.36198e-06 0.0005 
1059 1 -0.0071773 -0.00674086 0.00118841 -0.000493443 -0.000336728 -5.71285e-05 -2.52379e-07 1.01317e-07 2.05297e-07 -2.23064e-07 -8.87538e-08 2.36277e-06 0.0005 
830 1 -0.00488194 -0.00642152 0.00105298 1.26092e-05 0.000191555 0.000120857 -2.3572e-08 2.28342e-07 1.21372e-07 8.49571e-08 -3.19502e-09 2.0121e-06 0.0005 
515 1 -0.00310656 -0.00650865 0.000807644 2.6802e-05 1.87315e-05 0.000101448 1.16225e-07 6.97006e-08 2.33674e-08 -1.75083e-07 -3.85822e-08 1.49085e-06 0.0005 
2336 1 -0.00168088 -0.00690941 0.000544266 0.000202756 7.23298e-05 0.000102552 5.25332e-07 2.26306e-07 3.53506e-07 -4.75106e-08 -1.35641e-07 1.0314e-06 0.0005 
2421 1 -0.000540578 -0.007064 0.000971202 -7.79488e-05 0.000206452 -0.000289412 -3.61081e-07 -3.06598e-07 -1.37014e-07 8.37068e-08 -2.17071e-07 2.06571e-06 0.0005 
1645 1 -0.00625447 -0.0056004 0.00113578 -1.14854e-05 2.38716e-05 0.000128021 7.55296e-08 6.3038e-08 3.06525e-08 -1.043e-08 -8.72331e-08 2.34769e-06 0.0005 
100 1 -0.00401514 -0.00568898 0.00124241 -0.000332853 0.000184582 2.95077e-06 -1.17989e-08 3.77372e-08 -1.53954e-07 1.17268e-07 1.093e-07 2.3012e-06 0.0005 
2208 1 -0.00152681 -0.00571092 0.00107032 -1.94481e-05 0.000465316 6.52686e-05 2.59362e-07 5.48434e-08 -1.47709e-07 -7.85214e-08 -4.67897e-08 2.1765e-06 0.0005 
220 1 -0.00940193 -0.005522 0.00114104 5.99299e-05 -0.00020477 0.000157141 6.61261e-07 3.01218e-07 5.69164e-08 1.59545e-07 -1.00944e-07 2.29619e-06 0.0005 
1211 1 -0.00785059 -0.00549591 0.00101717 0.000373011 0.000353693 4.3263e-05 5.12186e-07 -9.50419e-08 -1.79822e-07 -1.36692e-07 -9.64126e-08 1.94246e-06 0.0005 
565 1 -0.00329157 -0.00481717 0.00124829 -0.000157641 9.31265e-05 0.000145225 8.23541e-07 -7.71473e-08 -2.57341e-07 -1.18417e-07 6.23621e-08 2.3907e-06 0.0005 
2300 1 -0.0118218 -0.003978 0.000868081 0.000525181 -0.00013149 9.83697e-05 -3.28854e-08 -3.79364e-08 -3.05852e-07 1.11219e-07 -5.74119e-08 1.86046e-06 0.0005 
1986 1 -0.00647066 -0.00462683 0.00107992 0.000127073 0.000128723 0.000417738 4.81613e-08 3.88225e-08 -2.68028e-07 -2.46333e-08 1.30473e-08 2.1015e-06 0.0005 
1236 1 -0.00459944 -0.00458997 0.00123285 -9.12325e-05 -0.000106542 0.000250145 4.97456e-07 -3.97597e-08 -3.20605e-08 -4.64854e-08 3.63915e-08 2.245e-06 0.0005 
483 1 -0.00250786 -0.00419687 0.00124592 -0.000223776 0.000300667 0.000272244 3.39966e-07 4.10766e-07 -2.23308e-07 -2.72225e-07 9.70808e-08 2.84923e-06 0.0005 
696 1 -0.00687255 -0.00370693 0.000761667 9.88026e-05 0.000211776 3.26161e-05 -4.64124e-07 -4.6262e-07 3.80505e-07 2.23965e-08 -7.28128e-09 1.46241e-06 0.0005 
704 1 -0.00148131 -0.00354603 0.000917937 -0.000224191 0.000430435 1.82427e-05 -3.67534e-07 7.24223e-07 -1.51237e-07 -1.61027e-08 1.55659e-07 1.96072e-06 0.0005 
2160 1 -7.76722e-05 -0.00355324 0.000916681 0.000127797 0.00026223 0.000384145 -4.94412e-07 4.61036e-07 3.51323e-07 1.45716e-08 1.17679e-07 1.88168e-06 0.0005 
532 1 -0.0107952 -0.00314632 0.000985079 0.000175244 -9.75018e-05 8.86245e-05 -4.34678e-07 -1.40273e-07 -1.26139e-08 7.18034e-08 -1.02405e-07 1.89367e-06 0.0005 
1201 1 -0.0078185 -0.00277951 0.00118487 0.000319402 0.000258062 -0.000168138 6.24275e-07 2.64804e-07 -2.10022e-07 5.53606e-08 -1.00546e-08 2.36034e-06 0.0005 
2459 1 -0.00351341 -0.00240464 0.0012463 0.00332215 0.00826275 -0.00522456 5.93035e-07 1.07087e-06 -9.58456e-07 4.78097e-08 1.00136e-07 2.30551e-06 0.0005 
2224 1 -0.00855679 -0.00179914 0.00105576 7.87206e-05 1.42942e-05 0.000112501 -4.60076e-08 -2.45624e-08 3.68622e-07 5.99752e-08 2.41077e-11 1.89677e-06 0.0005 
1596 1 -0.00697402 -0.001808 0.00109644 0.000144022 -0.000121994 8.65889e-05 4.17036e-07 -2.45747e-07 -1.08524e-07 9.18208e-08 4.88879e-08 1.9478e-06 0.0005 
2261 1 -0.0029552 -0.00177012 0.000711831 0.00427083 -0.00244481 -0.0171401 8.616e-08 -7.4288e-07 -3.98694e-06 -1.25571e-07 -2.10271e-08 1.32715e-06 0.0005 
78 1 -0.0116472 -0.00115217 0.000790074 8.14909e-05 -3.94037e-05 6.3558e-06 5.48924e-08 -2.07875e-07 1.59861e-07 2.43101e-07 1.69018e-07 1.71209e-06 0.0005 
367 1 -0.0100613 -0.00114203 0.0012224 9.60461e-05 -5.31619e-05 2.82912e-05 9.84831e-08 1.09961e-07 9.66884e-08 2.1025e-07 5.29461e-08 2.29735e-06 0.0005 
5 1 -0.0050639 -0.001145 0.00100111 5.80956e-05 0.000193435 7.32652e-05 9.44795e-08 -8.98313e-08 -9.98368e-08 1.08834e-07 -9.93012e-08 1.78112e-06 0.0005 
1357 1 -0.00116709 -0.00104662 0.000853007 0.000129398 -0.00027762 0.000143916 4.40907e-07 1.13682e-07 -4.17679e-08 -1.13256e-07 -7.15345e-08 1.7142e-06 0.0005 
967 1 -0.0133492 -0.000207683 0.00055881 3.39242e-05 -2.36202e-05 3.52177e-05 -8.20099e-08 -1.34561e-07 -9.16077e-08 1.39105e-07 2.54127e-07 1.90921e-06 0.0005 
2095 1 -0.0104799 -0.000402348 0.000632967 7.56364e-05 -5.02807e-05 2.4355e-05 1.84243e-07 1.31546e-07 -1.49071e-07 1.02511e-07 1.47646e-07 1.25252e-06 0.0005 
42 1 -0.00418019 -0.000693083 0.00088761 0.00025927 -0.000122106 0.000113765 -5.69715e-09 -2.79981e-08 4.97166e-08 4.39606e-08 -2.49027e-07 1.51224e-06 0.0005 
548 1 -0.00252022 -0.000549829 0.00114008 0.000384791 4.7015e-05 0.000160593 4.23811e-07 -2.91321e-07 -4.63082e-07 -1.52465e-07 -2.22319e-07 2.14344e-06 0.0005 
805 1 -0.0029235 -0.0130129 0.00191447 8.26307e-05 -0.0001632 0.000229996 -3.03345e-07 3.86136e-07 -1.24753e-07 -9.07653e-08 5.47072e-08 3.63397e-06 0.0005 
643 1 -0.00198982 -0.0132018 0.0016122 2.59718e-05 4.69954e-05 1.67335e-05 -2.21884e-07 4.06166e-08 -5.04604e-08 1.40955e-08 9.93347e-08 3.3794e-06 0.0005 
1951 1 -0.000908715 -0.0133191 0.0013101 -0.000198342 0.00012245 0.000279389 5.53688e-08 2.51786e-09 -4.74155e-07 5.2747e-08 8.87211e-08 2.89348e-06 0.0005 
2416 1 -0.000184617 -0.0133488 0.00199892 -0.000113084 5.36866e-06 0.000361645 -5.96686e-08 2.89299e-07 -4.09842e-07 -1.00897e-07 2.52328e-08 3.47168e-06 0.0005 
2017 1 -0.00570882 -0.0119582 0.00127281 -7.39081e-05 0.00153252 0.00053948 9.35538e-08 1.50786e-07 5.76424e-08 -1.38281e-07 1.47326e-07 2.67671e-06 0.0005 
527 1 -0.00434948 -0.0126218 0.00169809 0.000245554 -4.39486e-05 0.000208226 -4.87905e-07 2.45629e-07 -5.94458e-07 -8.01431e-08 8.3266e-08 3.18927e-06 0.0005 
2327 1 -0.00336628 -0.0120787 0.00148816 -0.000121244 0.000142043 3.23521e-05 -3.78284e-07 2.42956e-07 -3.77621e-07 -8.83036e-08 1.02612e-07 2.88055e-06 0.0005 
886 1 -0.00238677 -0.0122694 0.00143257 0.00013439 0.000178549 0.000408421 -4.13188e-07 1.2426e-07 3.23809e-07 -2.65213e-08 1.0865e-07 2.83238e-06 0.0005 
848 1 -0.00142078 -0.0124619 0.00125637 -1.72492e-05 0.000257298 0.000189776 7.52866e-08 7.68135e-08 7.71706e-08 7.53577e-08 1.75404e-07 2.83199e-06 0.0005 
125 1 -0.000677575 -0.0119454 0.0016781 -0.000126076 0.000367618 0.000441521 -3.30692e-08 2.05167e-07 2.9927e-07 -6.65291e-08 1.42075e-07 3.18816e-06 0.0005 
2456 1 -0.0068329 -0.011469 0.00140111 0.000138226 -5.93797e-05 3.04529e-06 -4.4193e-07 2.95373e-07 1.93562e-07 -1.53917e-07 1.35213e-07 2.81052e-06 0.0005 
461 1 -0.0054196 -0.0112624 0.00193188 0.000289643 -0.00127675 -0.000712102 -3.70908e-06 3.05155e-06 6.05456e-06 -6.25353e-08 1.47023e-07 3.56863e-06 0.0005 
2263 1 -0.00450702 -0.0116694 0.00195789 0.00109761 0.000342044 -0.000459054 1.34373e-07 3.85101e-07 8.4821e-08 -3.69993e-08 1.32436e-07 3.5674e-06 0.0005 
1851 1 -0.00379775 -0.0111944 0.00131211 -0.000361547 3.77313e-05 3.38929e-05 1.73389e-07 3.32509e-07 -3.50952e-07 -3.16865e-08 1.57153e-07 2.61141e-06 0.0005 
947 1 -0.00270847 -0.0113264 0.0013551 1.7337e-05 0.000227714 0.000133444 -1.93909e-07 1.03916e-07 4.56753e-08 -4.31141e-08 1.3377e-07 2.64608e-06 0.0005 