/*--------------------------------*- C++ -*----------------------------------*\
| =========                 |                                                 |
| \\      /  F ield         | OpenFOAM: The Open Source CFD Toolbox           |
|  \\    /   O peration     | Version:  2506                                  |
|   \\  /    A nd           | Website:  www.openfoam.com                      |
|    \\/     M anipulation  |                                                 |
\*---------------------------------------------------------------------------*/
FoamFile
{
    version     2.0;
    format      ascii;
    arch        "LSB;label=32;scalar=64";
    class       volScalarField;
    location    "0.09";
    object      Ksl;
}
// * * * * * * * * * * * * * * * * * * * * * * * * * * * * * * * * * * * * * //

dimensions      [1 -3 -1 0 0 0 0];

internalField   nonuniform List<scalar> 
4608
(
134688
145643
167957
181584
122891
86082.5
165974
176244
172225
132912
111675
167596
105508
180960
142205
239059
136151
200539
220775
200615
156564
142254
258491
123813
170907
75650.2
171035
102462
132577
224840
262830
258773
129836
264164
365340
160239
208190
205673
79154.3
233318
162734
266920
122797
164215
112052
171759
231668
119224
136664
147439
173333
270178
104702
186133
213191
161653
229480
254498
167676
148510
253693
222420
149950
100956
197265
127121
271369
156624
423072
130367
210877
156789
120970
165313
153796
190057
186313
152228
183769
154096
166086
146501
215088
196525
184900
222085
129799
172380
147439
157855
168868
135960
174998
159369
160030
136168
197790
177880
127572
145960
155635
89561.2
220562
227520
206392
166072
148672
201340
186998
178371
148293
190744
208005
118278
185806
156473
203289
153035
103083
187551
148675
169773
118255
203238
122049
81334.1
152634
218994
244280
206132
246136
291333
182469
206062
252413
240743
320549
206885
210936
257006
246811
173722
269148
290603
273330
149330
302022
219539
342205
183206
232323
237063
215898
391373
320298
157809
245787
429705
170784
333330
515808
197872
239561
212617
261513
368420
171542
139821
202513
253535
250451
235901
336258
262386
171895
290819
286801
276616
355322
390701
267813
279972
301561
252604
279898
148911
198945
378841
172157
211450
304411
200225
176121
177767
255841
132558
363664
331179
256021
239790
234921
194817
216396
303509
203405
226241
175584
213424
195229
245706
292656
222235
224021
284761
283402
290855
218144
280885
374440
418688
188188
186125
224436
248861
217966
198246
178587
198289
278819
268163
324164
158745
192097
320385
213465
298042
248993
248208
345689
244713
239289
251217
206968
176576
402486
192356
240501
297247
185915
308435
246504
287362
272760
188999
189813
211414
213213
242741
251685
261535
225546
267929
254988
269008
226408
259457
145120
112508
466652
281454
244477
184824
227229
198015
328916
299185
198720
251549
258573
212023
251867
283439
351524
304300
298748
134496
326346
121092
325600
246524
142813
283747
133726
549798
151803
410993
353491
284149
243920
235198
224231
348055
246473
288298
133019
307780
222968
216059
220610
233929
343156
214284
212747
338818
300164
184132
317777
386974
185916
234599
244227
206597
293279
134641
418478
177116
260742
269360
146725
321870
188355
349531
177679
407487
215566
216464
185540
415224
243576
170294
248384
159079
205907
354297
441667
169545
206257
140681
331243
247220
269390
215842
164715
356912
259613
210666
218520
122502
235054
316994
166132
266613
317951
367419
164718
231919
194084
173574
150574
266678
174861
219821
306763
207472
328542
192148
217059
279662
367838
460263
143677
191861
283340
279608
53390.1
49794.6
61216
80767.7
59383.1
118178
111447
63896.6
120251
52306.5
182898
113751
156827
164455
161229
86226.3
50131
81598
123283
138177
128036
115078
225009
105320
37497.4
36451.3
78920.9
82077.4
350193
117664
167560
60225.6
58613.4
77688.4
72325.5
97860.2
67625.2
117374
89182.1
54007.6
117245
70604.8
105781
98346.5
88769.2
134401
73603.8
42682.5
25015.6
43308.9
94463.3
75856.9
70344.4
57169.8
83361.1
63224.6
58884
78527.3
113121
49355
55157
45680.9
46711.9
61661.5
0
0
0
0
0
0
0
0
0
0
0
0
0
0
121.827
0
0
0
0
0
0
0
768.23
0
0
0
0
0
0
61447.1
740.591
0
0
0
0
0
0
0
0
0
0
0
0
0
0
0
0
0
0
0
0
0
0
0
0
0
0
0
0
0
0
0
0
0
0
0
0
0
0
0
0
0
0
0
0
0
0
0
0
0
0
0
0
0
0
0
0
0
0
0
0
0
0
0
0
0
0
0
0
0
0
0
0
0
0
0
0
0
0
0
0
0
0
0
0
0
0
0
0
0
0
0
0
0
0
0
0
0
0
0
0
0
0
0
0
0
0
0
0
0
0
0
0
0
0
0
0
0
0
0
0
0
0
0
0
0
0
0
0
0
0
0
0
0
0
0
0
0
0
0
0
0
0
0
0
0
0
0
0
0
0
0
0
0
0
0
0
0
0
0
0
0
0
0
0
0
0
0
0
0
0
0
0
0
0
0
0
0
0
0
0
0
0
0
0
0
0
0
0
0
0
0
0
0
0
0
0
0
0
0
0
0
0
0
0
0
0
0
0
0
0
0
0
0
0
0
0
0
0
0
0
0
0
0
0
0
0
0
0
0
0
0
0
0
0
0
0
0
0
0
0
0
0
0
0
0
0
0
0
0
0
0
0
0
0
0
0
0
0
0
0
0
0
0
0
0
0
0
0
0
0
0
0
0
0
0
0
0
0
0
0
0
0
0
0
0
0
0
0
0
0
0
0
0
0
0
0
0
0
0
0
0
0
0
0
0
0
0
0
0
0
0
0
0
0
0
0
0
0
0
0
0
0
0
0
0
0
0
0
0
0
0
0
0
0
0
0
0
0
0
0
0
0
0
0
0
0
0
0
0
0
0
0
0
0
0
0
0
0
0
0
0
0
0
0
0
0
0
0
0
0
0
0
0
0
0
0
0
0
0
0
0
0
0
0
0
0
0
0
0
0
0
0
0
0
0
0
0
0
0
0
0
0
0
0
0
0
0
0
0
0
0
0
0
0
0
0
0
0
0
0
0
0
0
0
0
0
0
0
0
0
0
0
0
0
0
0
0
0
0
0
0
0
0
0
0
0
0
0
0
0
0
0
0
0
0
0
0
0
0
0
0
0
0
0
0
0
0
0
0
0
0
0
0
0
0
0
0
0
0
0
0
0
0
0
0
0
0
0
0
0
0
0
0
0
0
0
0
0
0
0
0
0
0
0
0
0
0
0
0
0
0
0
0
0
0
0
0
0
0
0
0
0
0
0
0
0
0
0
0
0
0
0
0
0
0
0
0
0
0
0
0
0
0
0
0
0
0
0
0
0
0
0
0
0
0
0
0
0
0
0
0
0
0
0
0
0
0
0
0
0
0
0
0
0
0
0
0
0
0
0
0
0
0
0
0
0
0
0
0
0
0
0
0
0
0
0
0
0
0
0
0
0
0
0
0
0
0
0
0
0
0
0
0
0
0
0
0
0
0
0
0
0
0
0
0
0
0
0
0
0
0
0
0
0
0
0
0
0
0
0
0
0
0
0
0
0
0
0
0
0
0
0
0
0
0
0
0
0
0
0
0
0
0
0
0
0
0
0
0
0
0
0
0
0
0
0
0
0
0
0
0
0
0
0
0
0
0
0
0
0
0
0
0
0
0
0
0
0
0
0
0
0
0
0
0
0
0
0
0
0
0
0
0
0
0
0
0
0
0
0
0
0
0
0
0
0
0
0
0
0
0
0
0
0
0
0
0
0
0
0
0
0
0
0
0
0
0
0
0
0
0
0
0
0
0
0
0
0
0
0
0
0
0
0
0
0
0
0
0
0
0
0
0
0
0
0
0
0
0
0
0
0
0
0
0
0
0
0
0
0
0
0
0
0
0
0
0
0
0
0
0
0
0
0
0
0
0
0
0
0
0
0
0
0
0
0
0
0
0
0
0
0
0
0
0
0
0
0
0
0
0
0
0
0
0
0
0
0
0
0
0
0
0
0
0
0
0
0
0
0
0
0
0
0
0
0
0
0
0
0
0
0
0
0
0
0
0
0
0
0
0
0
0
0
0
0
0
0
0
0
0
0
0
0
0
0
0
0
0
0
0
0
0
0
0
0
0
0
0
0
0
0
0
0
0
0
0
0
0
0
0
0
0
0
0
0
0
0
0
0
0
0
0
0
0
0
0
0
0
0
0
0
0
0
0
0
0
0
0
0
0
0
0
0
0
0
0
0
0
0
0
0
0
0
0
0
0
0
0
0
0
0
0
0
0
0
0
0
0
0
0
0
0
0
0
0
0
0
0
0
0
0
0
0
0
0
0
0
0
0
0
0
0
0
0
0
0
0
0
0
0
0
0
0
0
0
0
0
0
0
0
0
0
0
0
0
0
0
0
0
0
0
0
0
0
0
0
0
0
0
0
0
0
0
0
0
0
0
0
0
0
0
0
0
0
0
0
0
0
0
0
0
0
0
0
0
0
132433
208093
190952
139252
144265
152929
200505
236022
239955
144493
125636
199560
187713
255080
180922
188028
139436
155774
156017
162222
173925
222161
134051
202912
183080
160198
205049
141128
179390
173144
151672
169447
358762
113945
189904
182646
194122
159854
161532
378533
216974
223535
162634
241473
141290
126195
192065
209308
204289
132369
132205
164742
159571
166795
160051
162556
132301
185637
131366
149821
221952
191625
191826
141924
280083
237682
458440
123889
369892
302483
196020
114055
308685
274357
170786
182799
313781
260646
256032
309050
154431
193841
234832
256308
280662
151151
251745
351479
239119
334104
162473
182847
224979
230146
204253
167294
162800
309990
150917
234460
219820
280959
254966
242602
294308
179355
302139
302893
397116
158092
239579
300357
283126
275693
186249
144432
292897
219617
150791
207187
257631
157107
365920
163697
264880
233205
150935
189922
257597
181211
160272
374733
175255
197171
174157
429466
277266
199104
211280
285598
180423
306681
241554
228758
283589
239585
250277
295241
179459
197032
285060
299365
229852
338362
228346
176968
263983
196641
184402
116259
86123.9
282546
124237
447890
156550
220470
142687
321896
286040
224564
204228
165344
356698
252706
197227
191642
244187
196314
289711
351338
138986
271454
154741
284436
202521
205148
133791
156817
367353
248062
164660
173933
151273
66775.5
62592.3
80154.1
55417.4
38506
49603.8
135866
92344.3
81800.8
85208.8
82886.6
76906.8
68544.7
36916.8
34716.7
63432.1
28290.3
73182
84129.8
38502.7
77138.2
63690.9
79862.3
61715
59730.8
76082.8
137896
54489.3
54894.5
155286
55215.4
0
0
0
0
0
0
0
0
0
0
0
0
0
0
0
0
0
0
0
0
0
0
0
0
0
0
0
384.342
0
0
0
0
0
0
0
0
0
0
0
0
0
0
0
0
0
0
0
0
0
0
0
0
0
0
0
0
0
0
0
0
0
0
0
0
0
0
0
0
0
0
0
0
0
0
0
0
0
0
0
0
0
0
0
0
0
0
0
0
0
0
0
0
0
0
0
0
0
0
0
0
0
0
0
0
0
0
0
0
0
0
0
0
0
0
0
0
0
0
0
0
0
0
0
0
0
0
0
0
0
0
0
0
0
0
0
0
0
0
0
0
0
0
0
0
0
0
0
0
0
0
0
0
0
0
0
0
0
0
0
0
0
0
0
0
0
0
0
0
0
0
0
0
0
0
0
0
0
0
0
0
0
0
0
0
0
0
0
0
0
0
0
0
0
0
0
0
0
0
0
0
0
0
0
0
0
0
0
0
0
0
0
0
0
0
0
0
0
0
0
0
0
0
0
0
0
0
0
0
0
0
0
0
0
0
0
0
0
0
0
0
0
0
0
0
0
0
0
0
0
0
0
0
0
0
0
0
0
0
0
0
0
0
0
0
0
0
0
0
0
0
0
0
0
0
0
0
0
0
0
0
0
0
0
0
0
0
0
0
0
0
0
0
0
0
0
0
0
0
0
0
0
0
0
0
0
0
0
0
0
0
0
0
0
0
0
0
0
0
0
0
0
0
0
0
0
0
0
0
0
0
0
0
0
0
0
0
0
0
0
0
0
0
0
0
0
0
0
0
0
0
0
0
0
0
0
0
0
0
0
0
0
0
0
0
0
0
0
0
0
0
0
0
0
0
0
0
0
0
0
0
0
0
0
0
0
0
0
0
0
0
0
0
0
0
0
0
0
0
0
0
0
0
0
0
0
0
0
0
0
0
0
0
0
0
0
0
0
0
0
0
0
0
0
0
0
0
0
0
0
0
0
0
0
0
0
0
0
0
0
0
0
0
0
0
0
0
0
0
0
0
0
0
0
0
0
0
0
0
0
0
0
0
0
0
0
0
0
0
0
0
0
0
0
0
0
0
0
0
0
0
0
0
0
0
0
0
0
0
0
0
0
0
0
0
0
0
0
0
0
0
0
0
0
0
0
0
0
0
0
0
0
0
0
0
0
0
0
0
0
0
0
0
0
0
0
0
0
0
0
0
0
0
0
0
0
0
0
0
0
0
0
0
0
0
205519
121273
109095
153211
162529
225663
173760
252636
190781
171499
112161
225046
134738
188156
249760
132547
204647
118551
144847
201483
152063
179863
182569
206171
170373
123953
143730
144138
139414
230252
134754
201123
126648
196097
172647
118378
173556
71591.1
169758
239400
133191
232423
214631
234578
124589
218355
299950
150427
211171
151130
77613.1
271711
217514
208285
90444.1
209986
114465
144592
267503
130271
82977.8
154731
86489.4
116320
174417
277254
257679
212621
208140
237461
223050
202526
246757
177910
222198
331852
296185
179702
185381
172079
149371
295543
299870
245582
173222
161756
222965
332108
155105
197384
228471
203196
224714
294491
267924
157922
316703
318754
167322
436353
191694
188366
217725
141736
265661
187108
206097
295925
280571
372083
243601
258736
197574
80139.9
159302
226268
189432
321067
202392
297581
229305
210754
211760
251944
189899
184400
306972
247910
193434
185934
154231
194544
264497
172212
483218
169845
180590
273456
236475
417331
151813
221984
253246
274726
209508
216495
230022
264913
250390
231993
230308
221525
292624
171529
245151
275746
175579
559742
141006
507554
82641.1
288387
348499
215745
247344
255060
299046
363178
225411
229555
182701
220744
210507
191010
222875
217013
232591
198725
179406
218409
246457
321433
204662
259291
268944
196017
358594
204123
184722
168692
327883
449596
118728
58792.2
40159
41834.4
132063
90212.9
122852
65895.8
147026
92615.3
92934.4
82097.2
67943.8
140930
89054.9
100746
134163
82591.2
74979.5
129637
99280.8
65679.1
64782.8
85297
116996
31789.8
64972.4
97548.9
97566.3
116107
44611.6
101071
0
0
0
0
0
0
0
0
0
0
0
0
-5.97129e-13
2489.82
5351.62
0
523.979
0
0
0
0
0
0
0
0
0
0
0
0
0
0
0
0
0
0
0
0
0
0
0
0
0
0
0
0
0
0
0
0
0
0
0
0
0
0
0
0
0
0
0
0
0
0
0
0
0
0
0
0
0
0
0
0
0
0
0
0
0
0
0
0
0
0
0
0
0
0
0
0
0
0
0
0
0
0
0
0
0
0
0
0
0
0
0
0
0
0
0
0
0
0
0
0
0
0
0
0
0
0
0
0
0
0
0
0
0
0
0
0
0
0
0
0
0
0
0
0
0
0
0
0
0
0
0
0
0
0
0
0
0
0
0
0
0
0
0
0
0
0
0
0
0
0
0
0
0
0
0
0
0
0
0
0
0
0
0
0
0
0
0
0
0
0
0
0
0
0
0
0
0
0
0
0
0
0
0
0
0
0
0
0
0
0
0
0
0
0
0
0
0
0
0
0
0
0
0
0
0
0
0
0
0
0
0
0
0
0
0
0
0
0
0
0
0
0
0
0
0
0
0
0
0
0
0
0
0
0
0
0
0
0
0
0
0
0
0
0
0
0
0
0
0
0
0
0
0
0
0
0
0
0
0
0
0
0
0
0
0
0
0
0
0
0
0
0
0
0
0
0
0
0
0
0
0
0
0
0
0
0
0
0
0
0
0
0
0
0
0
0
0
0
0
0
0
0
0
0
0
0
0
0
0
0
0
0
0
0
0
0
0
0
0
0
0
0
0
0
0
0
0
0
0
0
0
0
0
0
0
0
0
0
0
0
0
0
0
0
0
0
0
0
0
0
0
0
0
0
0
0
0
0
0
0
0
0
0
0
0
0
0
0
0
0
0
0
0
0
0
0
0
0
0
0
0
0
0
0
0
0
0
0
0
0
0
0
0
0
0
0
0
0
0
0
0
0
0
0
0
0
0
0
0
0
0
0
0
0
0
0
0
0
0
0
0
0
0
0
0
0
0
0
0
0
0
0
0
0
0
0
0
0
0
0
0
0
0
0
0
0
0
0
0
0
0
0
0
0
0
0
0
0
0
0
0
0
0
0
0
0
0
0
0
0
0
0
0
0
0
0
0
0
0
0
0
0
0
0
0
0
0
0
0
0
0
0
0
0
0
0
0
0
0
0
0
0
0
0
0
0
0
0
0
0
0
0
0
0
0
0
0
0
0
0
0
0
0
0
0
0
0
0
0
0
0
167144
146355
208682
196604
163364
210575
108007
214433
181864
154134
182114
100370
274449
224549
175518
156744
168880
234162
164553
220139
140644
160369
169739
130894
186154
188107
143290
307933
138257
184480
167741
237477
127854
203484
136325
108706
209576
144679
118589
189884
145134
150878
120757
185791
228362
118446
253009
185263
126014
174712
157368
142298
160604
161981
148524
63902
175982
243561
109247
161575
125993
158531
206928
183783
206984
177554
243034
136598
255710
245186
230584
143283
236939
231388
211208
224969
146178
221114
270900
229854
192163
212566
307597
291278
231107
197188
159759
305611
188594
282771
245615
189206
373903
360606
196590
314754
154723
267600
246033
282010
190540
202278
194749
153588
232688
192781
251632
148865
368190
235298
245068
301130
196819
369683
329018
211168
219545
140393
253230
200280
290157
256811
199767
223461
263609
208733
279096
199208
203768
205274
209917
247882
207810
204533
190242
204232
262850
235258
167656
320197
201409
305999
165709
201850
140121
157545
240403
397440
157173
187790
224773
350113
230014
364136
293918
300513
298098
221812
321036
264025
178353
264551
209979
214069
212009
190166
223122
204978
307808
299605
202457
343935
206887
347500
233827
244657
119600
327476
236994
229865
232062
294072
329437
344960
321317
148837
173318
378778
125549
230074
246289
200027
40682.1
64432.9
66511.5
65316.2
65918.5
72852.2
60128.8
124854
89974.2
46388.9
35196.8
58599.2
56496.5
85305.3
118190
103706
60626.5
42250.4
56127.7
60395.4
62987.8
43780
50091.4
93453
62158.7
51402.4
44591.7
48375.5
49276.5
116905
49528.7
40612.5
0
0
0
0
0
0
0
0
0
0
0
0
0
0
0
0
0
0
0
0
0
0
0
0
0
0
0
0
0
0
0
0
0
0
0
0
0
0
0
0
0
0
0
0
0
0
0
0
0
0
0
0
0
0
0
0
0
0
0
0
0
0
0
0
0
0
0
0
0
0
0
0
0
0
0
0
0
0
0
0
0
0
0
0
0
0
0
0
0
0
0
0
0
0
0
0
0
0
0
0
0
0
0
0
0
0
0
0
0
0
0
0
0
0
0
0
0
0
0
0
0
0
0
0
0
0
0
0
0
0
0
0
0
0
0
0
0
0
0
0
0
0
0
0
0
0
0
0
0
0
0
0
0
0
0
0
0
0
0
0
0
0
0
0
0
0
0
0
0
0
0
0
0
0
0
0
0
0
0
0
0
0
0
0
0
0
0
0
0
0
0
0
0
0
0
0
0
0
0
0
0
0
0
0
0
0
0
0
0
0
0
0
0
0
0
0
0
0
0
0
0
0
0
0
0
0
0
0
0
0
0
0
0
0
0
0
0
0
0
0
0
0
0
0
0
0
0
0
0
0
0
0
0
0
0
0
0
0
0
0
0
0
0
0
0
0
0
0
0
0
0
0
0
0
0
0
0
0
0
0
0
0
0
0
0
0
0
0
0
0
0
0
0
0
0
0
0
0
0
0
0
0
0
0
0
0
0
0
0
0
0
0
0
0
0
0
0
0
0
0
0
0
0
0
0
0
0
0
0
0
0
0
0
0
0
0
0
0
0
0
0
0
0
0
0
0
0
0
0
0
0
0
0
0
0
0
0
0
0
0
0
0
0
0
0
0
0
0
0
0
0
0
0
0
0
0
0
0
0
0
0
0
0
0
0
0
0
0
0
0
0
0
0
0
0
0
0
0
0
0
0
0
0
0
0
0
0
0
0
0
0
0
0
0
0
0
0
0
0
0
0
0
0
0
0
0
0
0
0
0
0
0
0
0
0
0
0
0
0
0
0
0
0
0
0
0
0
0
0
0
0
0
0
0
0
0
0
0
0
0
0
0
0
0
0
0
0
0
0
0
0
0
0
0
0
0
0
0
0
0
0
0
0
0
0
0
0
0
0
0
0
0
0
0
0
0
0
0
0
0
0
0
0
0
0
0
0
0
0
0
0
0
0
0
0
0
0
0
0
0
0
0
0
0
0
0
0
0
0
0
0
0
0
0
0
0
0
0
0
0
0
0
0
0
178811
221198
171733
215710
148673
185185
192846
140123
198262
151708
154053
128475
137427
287453
118154
128472
206246
157475
207777
227866
146135
196787
213557
136044
137900
199197
160431
238685
219885
192658
280033
176030
104599
116489
200962
86843.9
133081
285149
217639
141389
201638
186504
218132
212098
151357
115563
199703
140523
213531
170838
98375.9
188140
148042
162941
132806
135720
266209
129457
125305
225920
227000
125540
145011
139682
260474
281729
308242
220699
165815
258419
154833
234298
218566
202222
217248
242919
178220
212939
177075
280279
258217
283500
317290
183413
257368
269220
228001
245640
157149
322168
126188
215735
301219
165975
421207
212689
218534
287386
285999
169291
307233
236504
211329
194210
204955
205022
250759
184355
247225
271384
185313
294932
296197
256723
215769
214817
224299
213574
198386
170328
129769
219167
194027
143635
275205
232859
230291
154814
242129
377041
188446
151331
272793
280998
196148
213015
306390
250932
231272
217531
223851
225993
186892
259953
256464
194167
258722
192076
259494
311953
231724
245395
244131
358327
202173
195152
137294
263448
236580
181066
165532
307799
328776
187581
92424.6
205198
164932
223202
241570
320004
220214
172373
303742
230386
260258
302187
157454
159042
213107
168044
260555
214383
190670
223064
139149
302603
192494
286452
224310
284944
222744
186717
79130.9
114256
101306
89683.6
57296.3
66957.9
114477
136554
48515.7
66790.9
40013
200720
114149
51705.5
84667.7
82359
45491.5
50166.3
69589.2
57630.5
43931.4
42079.2
29240.7
34980.5
35235.8
63171.2
47974.4
55746.8
53288.5
82523.4
87368.9
52276.3
0
0
0
0
0
0
0
0
0
0
0
22853.6
0
0
0
0
0
0
0
0
0
0
0
0
0
0
0
0
0
0
0
0
0
0
0
0
0
0
0
0
0
0
0
0
0
0
0
0
0
0
0
0
0
0
0
0
0
0
0
0
0
0
0
0
0
0
0
0
0
0
0
0
0
0
0
0
0
0
0
0
0
0
0
0
0
0
0
0
0
0
0
0
0
0
0
0
0
0
0
0
0
0
0
0
0
0
0
0
0
0
0
0
0
0
0
0
0
0
0
0
0
0
0
0
0
0
0
0
0
0
0
0
0
0
0
0
0
0
0
0
0
0
0
0
0
0
0
0
0
0
0
0
0
0
0
0
0
0
0
0
0
0
0
0
0
0
0
0
0
0
0
0
0
0
0
0
0
0
0
0
0
0
0
0
0
0
0
0
0
0
0
0
0
0
0
0
0
0
0
0
0
0
0
0
0
0
0
0
0
0
0
0
0
0
0
0
0
0
0
0
0
0
0
0
0
0
0
0
0
0
0
0
0
0
0
0
0
0
0
0
0
0
0
0
0
0
0
0
0
0
0
0
0
0
0
0
0
0
0
0
0
0
0
0
0
0
0
0
0
0
0
0
0
0
0
0
0
0
0
0
0
0
0
0
0
0
0
0
0
0
0
0
0
0
0
0
0
0
0
0
0
0
0
0
0
0
0
0
0
0
0
0
0
0
0
0
0
0
0
0
0
0
0
0
0
0
0
0
0
0
0
0
0
0
0
0
0
0
0
0
0
0
0
0
0
0
0
0
0
0
0
0
0
0
0
0
0
0
0
0
0
0
0
0
0
0
0
0
0
0
0
0
0
0
0
0
0
0
0
0
0
0
0
0
0
0
0
0
0
0
0
0
0
0
0
0
0
0
0
0
0
0
0
0
0
0
0
0
0
0
0
0
0
0
0
0
0
0
0
0
0
0
0
0
0
0
0
0
0
0
0
0
0
0
0
0
0
0
0
0
0
0
0
0
0
0
0
0
0
0
0
0
0
0
0
0
0
0
0
0
0
0
0
0
0
0
0
0
0
0
0
0
0
0
0
0
0
0
0
0
0
0
0
0
0
0
0
0
0
0
0
0
0
0
0
0
0
0
0
0
0
0
0
0
0
0
0
0
0
0
0
0
0
0
0
0
0
0
0
0
0
0
0
0
0
0
0
0
0
0
0
0
0
0
0
0
0
0
0
0
0
0
0
0
)
;

boundaryField
{
    inlet
    {
        type            zeroGradient;
    }
    outlet
    {
        type            zeroGradient;
    }
    wall
    {
        type            zeroGradient;
    }
}


// ************************************************************************* //
