/*--------------------------------*- C++ -*----------------------------------*\
| =========                 |                                                 |
| \\      /  F ield         | OpenFOAM: The Open Source CFD Toolbox           |
|  \\    /   O peration     | Version:  2506                                  |
|   \\  /    A nd           | Website:  www.openfoam.com                      |
|    \\/     M anipulation  |                                                 |
\*---------------------------------------------------------------------------*/
FoamFile
{
    version     2.0;
    format      ascii;
    arch        "LSB;label=32;scalar=64";
    class       surfaceScalarField;
    location    "0.09";
    object      phi;
}
// * * * * * * * * * * * * * * * * * * * * * * * * * * * * * * * * * * * * * //

dimensions      [0 3 -1 0 0 0 0];

oriented        oriented;

internalField   nonuniform List<scalar> 
13248
(
8.05639e-10
-8.93894e-10
5.28189e-08
2.27246e-09
-9.09515e-10
-4.78262e-09
-6.71452e-10
6.62922e-08
-5.7021e-09
-7.68618e-10
3.12384e-09
3.95426e-08
7.31728e-09
3.13761e-09
-1.53508e-11
5.10563e-08
-9.07011e-10
9.19938e-09
3.6608e-10
4.59707e-08
2.09227e-09
-9.79262e-09
-6.52586e-09
8.73621e-08
-7.0934e-09
1.51657e-09
1.46837e-10
4.38008e-08
-1.75318e-10
-8.39397e-10
4.92622e-08
3.12629e-09
4.33363e-09
-2.76157e-10
-3.00448e-09
6.30528e-08
-6.64297e-09
-3.37174e-09
-2.70069e-09
6.12979e-08
-4.71407e-09
-8.99574e-09
6.77151e-08
5.03635e-09
-2.1571e-09
4.65827e-08
5.43573e-10
-4.9063e-09
6.27472e-08
-9.64874e-10
-3.23878e-09
5.20117e-08
-2.21426e-10
-4.25935e-10
5.30636e-08
2.14864e-09
4.58317e-08
1.03625e-09
7.16351e-10
1.82068e-10
5.92152e-08
-7.88487e-09
-4.34835e-09
5.25328e-09
5.15805e-08
1.40808e-09
4.42247e-09
3.49054e-08
2.74659e-09
1.02603e-08
4.09394e-08
7.89214e-10
2.44383e-09
4.85488e-08
1.96236e-09
-4.61252e-10
4.94217e-08
1.45157e-09
1.12126e-09
5.18467e-08
-5.00895e-10
6.16935e-08
-4.57114e-09
6.6218e-09
-3.53986e-09
5.46217e-08
-3.15732e-09
-8.20057e-09
-1.51936e-08
8.93522e-08
5.18133e-09
-2.04993e-09
4.80462e-08
-4.49089e-09
-3.4451e-09
7.75068e-08
-2.58816e-09
-1.15042e-09
5.58752e-08
1.22117e-09
5.39492e-09
4.29651e-08
1.61347e-09
1.19409e-08
4.20455e-08
-7.41771e-10
5.20066e-08
4.04634e-09
-3.21085e-10
-2.27331e-09
5.42377e-08
-1.16755e-09
9.9803e-10
-1.40241e-09
3.86945e-08
3.05163e-09
2.18292e-09
4.87724e-08
-1.33576e-09
-1.45542e-09
5.58693e-08
3.82209e-09
2.62781e-09
4.51814e-08
-4.85225e-09
-3.6675e-09
7.20598e-08
-1.53299e-08
-4.00801e-09
8.05625e-08
4.47174e-09
3.42239e-08
-1.50013e-09
4.5671e-10
4.1779e-09
4.7925e-08
-3.47067e-10
5.47314e-09
6.02087e-09
4.08914e-08
-1.4712e-09
-2.72471e-09
6.57297e-08
3.31594e-09
-6.06354e-10
4.47822e-08
-1.13519e-09
1.61496e-09
6.01559e-08
-1.95687e-10
2.05575e-09
4.72894e-08
8.00198e-10
3.18612e-09
4.61213e-08
-1.36444e-09
6.1266e-08
-1.80927e-10
2.8221e-09
-1.71845e-09
5.11311e-08
5.18053e-09
-3.4147e-09
-4.19409e-09
6.85575e-08
-7.74449e-10
1.65685e-09
4.78277e-08
7.25143e-09
7.33963e-10
4.29902e-08
2.1754e-09
-1.14675e-09
6.27811e-08
3.75926e-09
5.00492e-09
5.04324e-08
-3.90464e-09
-1.96506e-09
6.76532e-08
1.77677e-10
5.03644e-08
-3.63488e-10
-5.90184e-10
4.61018e-08
-7.24893e-10
7.65463e-09
4.52162e-09
4.06142e-08
3.2862e-09
-1.86528e-09
6.56932e-08
-3.53823e-09
4.34871e-09
4.83491e-08
2.87195e-10
4.87735e-09
5.54062e-08
-2.98165e-09
-5.28524e-09
7.76092e-08
-8.29921e-09
-3.92081e-09
5.6963e-08
-5.99416e-09
6.71193e-08
-1.16849e-08
-4.95956e-09
2.17132e-09
-2.87584e-09
4.63307e-08
6.17295e-10
6.57542e-09
8.62812e-11
-2.43922e-09
6.79344e-08
2.88212e-09
-1.67854e-10
-1.42192e-09
3.89773e-08
2.24132e-09
-4.10368e-09
-1.9699e-09
5.42224e-08
2.73963e-09
3.21385e-10
-9.87788e-10
3.97684e-08
2.76501e-09
7.29454e-09
8.09323e-09
6.58567e-08
6.43904e-09
4.78268e-09
1.25252e-09
4.16648e-08
3.39535e-09
1.15562e-09
4.8238e-08
1.01421e-09
3.63708e-09
-2.54236e-09
-4.79355e-09
6.19968e-08
5.51607e-09
-3.02847e-09
1.67573e-09
5.7669e-08
1.76736e-09
2.04999e-09
5.94474e-08
-1.71668e-09
1.23706e-09
4.68598e-08
8.49145e-09
3.20347e-09
4.83478e-08
1.74904e-09
2.4665e-09
6.43808e-08
4.844e-09
4.07759e-09
4.71436e-08
-1.70453e-09
5.06501e-08
2.88578e-09
2.09078e-09
-1.27647e-09
5.15886e-08
2.01874e-09
-1.32867e-09
-1.28471e-08
6.95228e-08
9.82226e-10
-2.15503e-09
3.67995e-08
-1.33419e-09
-3.4243e-09
4.79173e-08
4.94801e-09
1.3707e-09
4.40993e-08
6.15262e-09
1.44504e-09
4.92386e-08
2.48501e-10
1.54343e-09
6.0285e-08
5.59058e-09
5.0252e-08
4.39489e-09
-9.54268e-09
-1.07795e-09
5.87856e-08
5.18033e-09
7.45455e-09
1.13378e-08
4.81701e-08
3.33106e-09
6.77706e-09
4.32377e-08
2.48641e-09
2.91534e-09
7.20118e-08
7.70378e-09
1.97977e-09
5.00488e-08
9.35036e-09
-2.65738e-09
4.5421e-08
2.26098e-09
-9.50813e-09
6.01864e-08
3.75508e-09
5.60404e-08
6.26897e-11
6.71783e-09
5.49768e-09
3.81914e-08
2.75283e-09
2.08208e-09
1.23091e-09
5.34371e-08
-5.35146e-10
-4.59074e-09
6.27574e-08
-2.48785e-10
-1.81416e-09
6.03125e-08
2.37904e-09
-5.32123e-09
4.98546e-08
3.66072e-11
-7.50131e-10
7.24949e-08
1.27435e-08
4.64218e-09
5.37053e-08
-8.21473e-09
5.93905e-08
-4.53227e-10
1.30642e-09
1.34929e-09
4.90171e-08
1.74988e-09
-2.69579e-09
-1.4494e-09
4.75739e-08
1.21468e-09
4.80608e-10
5.67479e-08
-2.55282e-09
1.54149e-09
4.51941e-08
8.21579e-09
1.54066e-09
4.25254e-08
7.68481e-09
1.45605e-09
4.56142e-08
-4.84125e-10
-1.34516e-09
6.02776e-08
2.0934e-09
4.65642e-08
3.90955e-09
1.85865e-09
5.47621e-09
4.0246e-08
4.89954e-09
-2.86601e-10
7.33261e-09
6.19207e-08
1.07486e-09
3.66713e-09
4.32797e-08
-4.67926e-09
1.13329e-09
4.91525e-08
8.02896e-09
1.08074e-08
4.08061e-08
5.61183e-09
4.07876e-09
5.02269e-08
2.08755e-09
1.44635e-09
6.8386e-08
2.58446e-09
4.72802e-08
4.6807e-09
4.19062e-09
4.92909e-08
-2.72427e-09
8.207e-10
-2.95729e-09
5.84681e-08
-3.37333e-09
-1.63073e-09
6.71154e-08
9.18399e-10
5.06894e-09
3.56431e-08
7.13966e-09
4.27598e-09
6.95843e-08
-2.57781e-09
1.76418e-10
8.5668e-08
1.19512e-10
-3.85729e-10
5.29428e-08
6.0287e-09
5.0702e-08
1.14625e-08
7.15366e-09
-4.79187e-10
-3.61541e-09
5.98985e-08
-6.11775e-09
-3.35543e-09
3.87945e-09
-1.86231e-10
6.68504e-08
-3.08841e-09
4.10225e-09
5.22714e-10
4.74897e-08
-9.25796e-09
-3.21922e-09
-1.16514e-09
7.16807e-08
-8.97171e-09
-6.56963e-09
2.33552e-09
4.92118e-08
-8.42852e-09
3.89636e-09
6.5652e-09
4.70455e-08
1.77995e-09
-1.33502e-09
2.21573e-09
4.57033e-08
-1.02292e-09
2.89007e-09
4.96113e-08
-2.49239e-09
-3.10603e-09
3.59923e-09
2.10837e-09
4.58143e-08
6.85945e-09
1.63078e-09
-3.46538e-09
6.29166e-08
1.96492e-09
-1.03072e-09
6.06667e-08
1.91081e-09
3.5535e-10
4.53935e-08
-1.31917e-09
1.29719e-09
5.26161e-08
4.4572e-09
3.44423e-09
6.17254e-08
-2.45934e-10
-3.662e-09
5.77245e-08
1.08752e-09
4.99287e-08
2.27805e-09
7.28856e-10
-1.37131e-09
5.48548e-08
-5.15337e-10
2.55748e-09
-5.45233e-09
6.96811e-08
2.83574e-09
-3.0053e-09
3.84959e-08
2.02831e-09
-6.42872e-09
5.55088e-08
1.07303e-09
1.68974e-10
4.61828e-08
-1.65864e-09
6.11857e-10
5.48026e-08
3.25006e-09
3.69108e-09
4.80232e-08
1.31744e-09
4.79987e-08
5.27346e-09
-1.77309e-09
2.69429e-09
5.5804e-08
6.89021e-10
6.41386e-10
4.29018e-09
3.60132e-08
4.11918e-09
3.79012e-09
3.29645e-08
7.0886e-09
3.60973e-09
5.90041e-08
1.40855e-09
-3.74588e-09
5.96436e-08
-1.8369e-10
-5.71144e-09
5.33365e-08
-1.4199e-09
-1.26747e-09
6.63812e-08
8.24248e-09
4.67431e-08
9.52407e-10
1.06516e-09
2.33145e-09
3.89526e-08
-1.46348e-09
-1.19418e-09
-3.4802e-09
6.34669e-08
-1.02771e-09
-8.19284e-10
6.72004e-08
-1.99962e-09
8.23725e-10
6.40703e-08
-5.09593e-09
-2.75742e-10
4.94809e-08
1.45297e-08
4.73003e-09
4.24278e-08
1.20687e-08
-4.50661e-09
5.94054e-08
-4.73366e-09
8.68179e-08
-2.38263e-09
-3.6421e-09
-1.82429e-09
6.02091e-08
-3.39415e-09
2.08615e-09
-3.34419e-09
4.17097e-08
2.46652e-09
4.4421e-10
5.51041e-08
6.02584e-11
1.2158e-09
4.72083e-08
-4.80578e-10
-1.30819e-09
4.40987e-08
1.88151e-09
2.18129e-10
4.7764e-08
5.42576e-09
-4.80439e-09
5.70311e-08
1.2173e-09
4.52259e-08
8.13092e-10
-2.58848e-09
-2.60852e-09
4.72507e-08
-3.63194e-09
5.62448e-09
3.54578e-09
4.68178e-08
2.26291e-09
-2.50286e-09
4.95884e-08
-1.23234e-09
-1.04464e-09
5.49082e-08
8.4249e-10
-1.15436e-09
3.85775e-08
-2.00241e-09
-3.3825e-09
5.66724e-08
7.9128e-09
6.21187e-09
4.74545e-08
4.70553e-09
4.29158e-08
8.78896e-09
-7.23598e-10
5.62489e-08
1.78445e-09
-1.06274e-08
1.52379e-09
6.19565e-08
-2.18998e-09
3.33224e-09
5.63427e-08
6.46134e-09
-3.07209e-09
3.602e-08
4.98271e-09
-2.19615e-09
6.25718e-08
4.98219e-09
8.18269e-09
6.75773e-08
4.32934e-09
7.21439e-09
5.62246e-08
3.89841e-09
5.80742e-08
3.52069e-09
1.027e-09
-3.03975e-09
1.22463e-09
6.40551e-08
4.52703e-10
-2.79423e-09
3.46696e-09
-1.98747e-10
6.12114e-08
-6.69016e-10
3.18657e-09
4.3921e-09
4.73019e-08
-3.92384e-09
-3.96637e-09
1.37791e-08
7.64754e-08
-1.14208e-08
-7.43356e-10
2.14174e-09
4.36672e-08
1.79888e-10
2.18001e-09
4.3494e-10
4.05321e-08
3.15511e-09
9.9464e-10
2.31584e-09
4.73675e-08
-2.7946e-09
6.21776e-09
4.75807e-08
-3.31005e-09
1.17537e-10
-2.8741e-10
-1.13467e-09
5.2978e-08
-4.51691e-09
9.13434e-09
-2.64248e-09
5.59386e-08
5.93521e-09
-4.24208e-09
7.25e-08
-9.04059e-09
-8.13209e-09
8.22804e-08
-4.03424e-09
4.86233e-09
4.48891e-08
5.51966e-09
4.08427e-09
4.85222e-08
4.48731e-09
3.89946e-10
6.06827e-08
1.14416e-09
6.38283e-08
-4.3388e-09
-5.99364e-10
-1.7691e-09
6.04956e-08
-4.407e-09
4.39089e-09
3.3802e-09
5.86682e-08
1.25665e-09
2.69851e-10
3.71182e-08
3.96218e-09
-4.89949e-09
4.95706e-08
-2.26751e-09
9.51736e-11
5.71796e-08
4.70273e-10
9.11074e-09
4.70384e-08
3.043e-09
3.79811e-10
4.54606e-08
5.55177e-09
4.98602e-08
-3.22616e-09
5.45733e-09
3.33532e-09
5.23103e-08
-7.06799e-09
1.64214e-09
-2.99096e-10
4.35076e-08
-1.60869e-09
4.08014e-09
3.2405e-08
8.86449e-09
6.1523e-09
3.74792e-08
6.64205e-09
8.16205e-09
5.37989e-08
-1.01843e-08
-4.05283e-09
8.33264e-08
8.8026e-09
1.5843e-09
4.61897e-08
-1.31746e-08
8.16903e-08
-7.41828e-09
1.84373e-09
-7.0218e-12
4.62723e-08
-5.82112e-09
7.72674e-09
2.08405e-10
5.70764e-08
-2.87922e-09
-1.5526e-09
8.3439e-08
9.93556e-09
2.18516e-09
5.52225e-08
-4.98808e-09
-2.42518e-09
7.49918e-08
-1.27768e-09
-1.75475e-09
3.64193e-08
-4.55296e-09
-2.18989e-09
6.64549e-08
4.84459e-09
6.09384e-08
3.30728e-09
1.85231e-09
7.75686e-09
5.25089e-08
-1.91603e-09
4.0369e-09
5.54066e-10
3.91794e-08
2.31716e-09
1.80559e-09
5.34656e-08
3.55254e-09
2.42489e-09
4.57331e-08
-5.06013e-09
-1.49011e-09
5.17763e-08
-2.99631e-09
1.13719e-09
4.28083e-08
2.33603e-09
3.7626e-09
4.57463e-08
2.45332e-09
4.98283e-08
1.24909e-10
-4.91482e-09
-8.11721e-09
7.81581e-08
-1.01185e-08
4.94007e-09
-6.21864e-09
4.37356e-08
4.66326e-09
-5.52512e-09
5.71959e-08
7.39841e-10
-1.71294e-09
6.29694e-08
-1.70637e-09
-4.69686e-09
4.42304e-08
-7.26148e-10
-3.29883e-09
6.01282e-08
2.24264e-09
4.69972e-09
4.35486e-08
-1.0224e-09
5.1509e-08
-2.87476e-09
-6.98598e-09
6.39984e-08
6.58213e-10
-9.53896e-09
5.89316e-09
3.70811e-08
5.77765e-09
6.5099e-09
4.44186e-08
5.78225e-09
-3.38832e-09
5.42102e-08
-1.00049e-08
2.89735e-09
4.40893e-08
7.50004e-09
6.97223e-09
5.44223e-08
5.78124e-09
-2.44563e-09
6.92195e-08
1.12271e-09
5.60539e-08
-5.40738e-09
3.95967e-09
4.00733e-10
2.95376e-09
5.66761e-08
-8.42847e-11
4.10882e-09
9.38794e-10
-1.95385e-09
5.62775e-08
6.3497e-09
6.04106e-10
7.81876e-11
4.5884e-08
1.67438e-09
3.03159e-09
1.80691e-09
7.47038e-08
-2.46286e-09
9.99779e-10
-1.0175e-09
4.27339e-08
3.98263e-09
-3.25988e-09
-5.77194e-09
5.48888e-08
-4.32513e-09
1.4085e-09
-1.55181e-09
4.50824e-08
-8.31521e-10
2.57385e-09
4.56338e-08
-3.11411e-09
3.89564e-09
-3.04454e-09
-7.18673e-10
7.02426e-08
-1.05477e-08
4.6943e-09
2.35758e-09
4.38884e-08
1.81753e-09
3.11898e-09
7.2336e-08
2.17302e-12
5.46846e-09
8.04342e-08
-2.38121e-09
-4.22067e-10
4.6677e-08
8.88325e-10
5.3434e-09
3.41373e-08
6.48403e-09
4.01267e-09
4.95225e-08
-1.30038e-09
6.04892e-08
1.36974e-08
-2.35407e-10
-1.44719e-09
6.22013e-08
-7.41735e-10
3.53197e-09
6.99704e-09
5.02613e-08
1.28973e-09
3.02238e-09
3.9457e-08
-3.02891e-09
5.39031e-09
5.39674e-08
3.31314e-09
-1.41662e-10
5.05571e-08
-1.89747e-09
-2.74875e-09
6.03411e-08
-9.89392e-10
-2.57082e-10
4.88223e-08
1.93364e-09
4.62972e-08
-6.60381e-10
7.25652e-09
3.95236e-09
4.0737e-08
-1.08283e-09
1.98106e-09
-6.08582e-09
6.1866e-08
2.48767e-09
-1.01506e-08
4.50713e-08
-7.88897e-09
-6.39548e-09
5.96416e-08
2.16238e-09
8.97302e-09
3.46327e-08
-1.12917e-09
1.40341e-08
6.9835e-08
1.95397e-09
5.48764e-09
3.73618e-08
-4.53545e-09
8.91231e-08
9.90172e-10
-2.61882e-09
2.86798e-11
5.88513e-08
-6.03651e-09
2.42331e-09
2.52112e-09
4.34273e-08
4.24787e-09
-4.70953e-10
7.19348e-08
4.16667e-09
-4.49112e-10
4.93571e-08
8.12888e-09
4.36115e-09
7.56414e-08
-6.92237e-09
-1.18121e-09
6.66858e-08
-7.30427e-09
5.92301e-09
6.64014e-08
6.28293e-09
3.63137e-08
6.50203e-09
1.787e-10
1.30892e-09
5.6607e-08
-5.55702e-09
-1.67545e-09
1.97077e-10
4.33576e-08
3.14704e-09
3.28742e-09
4.48847e-08
5.89905e-09
3.25669e-10
4.22063e-08
-3.44098e-10
-5.77899e-11
6.24383e-08
1.13263e-09
-8.46584e-10
4.09969e-08
7.01755e-10
-3.40917e-09
5.55093e-08
-1.40392e-09
6.164e-08
-3.42307e-09
-1.96943e-09
-7.77118e-09
9.80083e-08
-8.80069e-09
2.09286e-11
-1.41946e-09
4.33618e-08
2.97004e-10
-2.42477e-09
6.2632e-08
5.70283e-09
2.69484e-10
5.76197e-08
-1.98687e-09
4.0132e-09
4.78491e-08
-5.00731e-10
9.78887e-10
5.68166e-08
3.27799e-09
-4.91271e-10
3.6852e-08
-4.92403e-09
6.33282e-08
-5.02112e-09
1.71626e-09
5.53557e-08
4.76599e-09
-5.61073e-09
-2.24954e-10
3.78327e-08
-2.29884e-10
3.9393e-09
3.45295e-08
3.30013e-09
9.05066e-09
5.32228e-08
-3.85451e-09
-3.11246e-09
6.39941e-08
-3.72858e-09
-1.56482e-09
5.26603e-08
1.1933e-09
-6.23167e-10
6.24709e-08
5.3156e-09
5.03703e-08
-2.29403e-11
1.5931e-10
1.14978e-09
-8.91284e-09
6.65366e-08
-8.53821e-10
-1.24363e-09
-2.13495e-09
-2.09255e-10
6.11655e-08
-1.39402e-09
-7.94604e-09
-1.3814e-08
6.26267e-08
2.8824e-09
7.2753e-09
-1.57874e-08
6.02268e-08
1.50431e-08
-7.43682e-09
-1.18289e-08
7.02742e-08
-9.9931e-10
1.67288e-09
-4.44357e-09
4.58187e-08
4.40403e-09
3.29776e-09
-6.551e-09
4.23428e-08
7.66571e-09
-4.81033e-09
5.85394e-08
2.36366e-09
-7.16113e-09
8.5995e-09
6.9252e-09
4.41738e-08
1.63127e-09
-1.44999e-08
-8.2566e-10
6.76041e-08
-2.34082e-09
6.70586e-09
3.9657e-08
4.14345e-09
4.74544e-09
5.3417e-08
3.47472e-10
-2.27958e-09
4.09237e-08
-1.27273e-09
-4.13065e-09
3.54445e-08
5.13685e-09
-2.94428e-09
3.95062e-08
5.89584e-10
5.38082e-08
6.41788e-09
1.032e-09
7.45658e-09
6.45886e-08
-3.95071e-09
-5.00791e-09
3.16565e-09
5.23099e-08
-5.8794e-09
5.18453e-09
4.18498e-08
-2.65014e-09
7.57308e-09
4.79105e-08
-1.64657e-09
2.02423e-10
4.70715e-08
-9.07206e-10
-2.53302e-09
5.80041e-08
5.46619e-09
3.00715e-09
3.64975e-08
-1.85624e-10
4.76528e-08
4.88578e-09
-3.81885e-09
-9.1214e-09
7.10653e-08
-9.93142e-09
-8.49106e-09
-2.23121e-09
7.1935e-08
-9.71572e-09
-3.24266e-09
5.47231e-08
-7.87404e-09
2.08957e-09
6.32834e-08
-1.61291e-09
3.81828e-09
2.47556e-08
3.83675e-09
9.05107e-09
5.28013e-08
3.6131e-09
3.16064e-09
3.7432e-08
1.09141e-08
7.82819e-08
3.35463e-09
3.66767e-09
-3.54524e-09
5.92606e-08
-9.65312e-09
-4.00683e-09
9.71747e-11
4.87734e-08
-7.20423e-10
2.2026e-09
6.32031e-08
-2.77655e-09
3.39654e-09
5.01061e-08
-2.81102e-09
4.85153e-09
7.46427e-08
5.97491e-09
9.99321e-09
5.69577e-08
1.00446e-08
7.82967e-09
5.76627e-08
-5.57312e-10
6.2274e-08
-4.44427e-09
6.47323e-09
6.60987e-09
4.26832e-08
-2.70452e-09
-3.26122e-09
2.22124e-09
5.0968e-08
8.38533e-11
-3.93641e-10
4.41359e-08
-3.3085e-09
1.36599e-09
4.76291e-08
1.31142e-09
8.01545e-09
5.46545e-08
5.5548e-09
7.1413e-09
3.96054e-08
7.43875e-09
4.95202e-09
5.65031e-08
-2.08097e-09
6.84552e-08
2.14725e-09
6.2751e-09
-4.73552e-09
1.08191e-07
-5.11231e-09
-1.02735e-08
-2.01059e-09
6.41422e-08
2.75857e-09
2.02087e-09
4.71855e-08
1.65986e-09
5.44265e-09
5.46418e-08
2.52018e-10
6.32137e-10
5.66402e-08
3.2551e-09
3.60349e-09
5.73513e-08
-1.50547e-09
-3.54644e-10
4.69192e-08
1.42291e-09
5.72647e-08
1.05418e-09
3.76606e-09
6.08226e-08
-1.51349e-08
1.16641e-09
-1.93892e-09
4.62773e-08
-4.75022e-09
2.5321e-09
3.90861e-08
-7.00684e-09
-7.78718e-09
6.98603e-08
-8.75576e-10
3.26648e-09
5.75494e-08
-3.97674e-09
-6.76123e-10
6.11733e-08
-9.66937e-10
-1.21399e-09
7.14457e-08
-8.79152e-09
5.46782e-08
-1.14277e-09
-2.95617e-09
-6.99386e-10
1.58683e-09
6.37348e-08
-1.29424e-10
2.04388e-09
6.82383e-10
-1.84189e-09
6.1124e-08
5.01629e-10
1.24449e-09
2.98092e-09
5.85499e-08
5.33827e-10
-1.6342e-09
-6.41074e-10
6.21002e-08
1.64637e-09
2.15422e-09
1.71273e-09
6.24066e-08
2.36637e-09
-1.02377e-09
-2.0829e-09
4.73058e-08
3.77372e-09
-6.5636e-09
1.32352e-09
4.77066e-08
-1.14762e-09
1.78893e-10
5.5381e-08
-6.01762e-10
-2.98252e-09
-3.6181e-09
-4.92184e-09
5.75309e-08
-3.2303e-09
4.36374e-09
3.95335e-10
5.73851e-08
-1.56323e-09
-8.11055e-10
4.93759e-08
-3.4687e-11
5.77259e-10
5.06701e-08
-9.30829e-10
-8.92366e-10
4.44251e-08
4.96227e-10
-3.30539e-09
3.52397e-08
-4.36147e-09
-2.49289e-10
4.59368e-08
1.08477e-09
5.23331e-08
-3.79237e-09
1.43923e-09
-1.21058e-09
5.69649e-08
2.47323e-09
1.24622e-09
-3.47726e-09
5.63755e-08
-5.22757e-10
-1.34335e-09
4.4151e-08
-1.22216e-09
-1.29954e-09
5.04869e-08
-1.91603e-09
2.36392e-09
4.45087e-08
3.04491e-09
-2.10412e-09
5.18421e-08
-5.71046e-09
-1.78231e-09
4.67855e-08
-1.12926e-09
4.80835e-08
-3.9268e-09
-9.07691e-11
1.9246e-09
6.5046e-08
2.97494e-09
2.57472e-09
4.61326e-09
6.1179e-08
-1.60417e-09
4.23746e-11
5.75164e-08
3.03938e-09
2.30021e-09
5.50401e-08
-4.50567e-09
-4.97309e-09
3.96379e-08
3.43397e-09
1.79418e-09
4.09636e-08
-8.86621e-09
-4.28666e-09
5.22368e-08
4.6058e-09
6.02309e-08
3.44977e-09
2.3451e-09
3.44305e-09
5.32125e-08
2.18436e-09
-1.16028e-09
5.04039e-10
5.63879e-08
6.42255e-10
2.40436e-09
5.90384e-08
-3.57313e-09
1.32451e-09
5.52975e-08
7.82878e-10
3.20953e-09
6.21039e-08
-1.34735e-09
1.57909e-09
5.93029e-08
-1.19208e-09
1.30465e-09
5.1916e-08
2.3211e-09
6.40411e-08
-6.73729e-10
-1.58623e-09
-8.44569e-09
5.58812e-08
2.76834e-10
1.17521e-09
-6.61889e-10
4.93724e-08
-6.93048e-10
6.88415e-10
4.77202e-08
-1.33324e-09
8.39068e-10
4.87547e-08
1.15066e-09
2.25784e-10
5.51547e-08
-2.64178e-09
-2.51089e-09
4.74877e-08
-2.53322e-09
3.51759e-09
5.41818e-08
2.67816e-09
6.47517e-08
8.13605e-10
3.39784e-09
5.91462e-09
7.9314e-08
1.11186e-08
1.65862e-09
5.81507e-09
5.94044e-08
-1.92488e-09
1.39821e-09
5.00592e-08
-1.17266e-09
-2.36928e-10
5.49658e-08
-1.23267e-09
-1.3568e-09
5.82827e-08
1.28887e-09
-1.85122e-10
5.25039e-08
-9.57098e-10
-1.53072e-09
5.42137e-08
1.61145e-10
6.01602e-08
-1.33559e-09
7.97811e-10
5.75339e-08
4.76801e-09
3.63768e-09
6.70402e-11
5.12985e-08
1.52463e-09
-4.58572e-09
4.86104e-08
-3.47323e-09
-1.33615e-10
6.19412e-08
3.23027e-09
-2.83949e-09
6.00598e-08
-1.16151e-09
-1.98388e-09
6.12869e-08
-1.15418e-09
2.73673e-09
6.88961e-08
-3.70188e-09
5.69899e-08
2.9632e-09
-2.37688e-09
-6.88244e-09
-1.10941e-08
6.42599e-08
5.62875e-09
1.18221e-08
-8.50959e-09
-1.20322e-08
6.34763e-08
1.13072e-08
-8.04396e-09
-1.62261e-08
5.9727e-08
1.45831e-08
-8.37167e-09
-1.74791e-08
6.27426e-08
1.71658e-08
-3.43441e-09
-2.24203e-08
6.00423e-08
1.98466e-08
3.85706e-10
-2.15417e-08
4.37785e-08
2.12496e-08
1.44567e-08
-3.61004e-08
4.45327e-08
2.52043e-08
-1.74953e-08
5.92727e-08
1.46992e-08
1.33622e-08
-9.18942e-09
-5.92775e-09
5.46665e-08
6.88723e-09
-1.36304e-08
-5.57522e-09
5.53691e-08
-9.85987e-09
-5.00968e-09
3.43896e-08
-1.39298e-08
-9.267e-09
4.65266e-08
-7.23724e-09
-1.40037e-08
2.93181e-08
-7.265e-09
2.8186e-09
1.09075e-08
2.8858e-08
-1.97151e-08
-6.57172e-09
-9.32788e-09
5.39179e-08
1.9106e-08
-1.00456e-08
-4.00021e-09
5.87245e-08
6.35826e-09
-1.30572e-08
-7.00209e-10
5.45124e-08
-1.4996e-08
1.18611e-09
3.9894e-08
-1.81371e-08
2.48818e-09
4.18697e-08
-1.50977e-08
-7.67225e-09
3.51429e-08
-9.38936e-09
1.13198e-08
3.76297e-08
3.38173e-08
7.24373e-09
-2.3381e-08
6.66011e-09
4.22987e-08
2.36128e-08
-6.95999e-09
4.75761e-10
6.21267e-08
5.40335e-09
-1.04718e-08
1.36426e-09
6.2626e-08
-1.14225e-08
2.0357e-09
5.76224e-08
-2.54158e-09
5.24568e-09
4.34141e-08
1.25143e-08
2.04222e-08
-3.52039e-09
-1.59978e-08
-1.04577e-09
8.18476e-08
1.1362e-08
2.58154e-08
6.30664e-09
9.909e-09
5.27234e-08
1.56242e-08
-7.2748e-09
1.07191e-09
5.40611e-08
5.82947e-09
-1.01051e-08
1.52943e-09
5.90528e-08
-9.71496e-09
2.19278e-09
5.84873e-08
-1.01007e-08
5.93692e-09
5.49869e-08
-1.26016e-09
1.55433e-08
5.81556e-08
6.31815e-09
-2.07471e-09
5.27457e-08
1.50885e-08
1.97331e-08
4.92305e-08
1.20081e-08
6.37696e-08
1.32622e-08
-6.91519e-09
3.62967e-09
5.02061e-08
1.00329e-08
-9.00116e-09
3.95101e-09
4.90374e-08
-6.00496e-09
4.80841e-09
4.211e-08
-2.25755e-09
7.49336e-09
4.34459e-08
4.26813e-09
1.15694e-08
5.26095e-08
1.05795e-09
8.70422e-09
3.99196e-08
8.39555e-09
1.26616e-08
5.39158e-08
9.71982e-09
6.55765e-08
9.85948e-09
-7.00126e-09
6.97459e-09
7.23386e-08
1.06318e-08
-7.69211e-09
7.23207e-09
5.68146e-08
-3.48661e-09
6.75372e-09
4.39097e-08
9.57724e-10
6.95135e-09
5.10627e-08
3.76168e-09
9.86258e-09
5.71873e-08
1.92017e-09
9.30399e-09
5.37466e-08
6.54305e-09
1.01507e-08
5.21016e-08
9.0615e-09
5.96226e-08
7.73998e-09
-7.4123e-09
5.78247e-08
5.53072e-09
8.5651e-09
-8.67164e-09
5.22969e-08
7.49337e-09
-4.03183e-09
4.23452e-08
8.37961e-09
2.72823e-09
5.30195e-08
9.11252e-09
3.14167e-09
6.26537e-08
6.85609e-09
1.4733e-09
6.53484e-08
6.91115e-09
5.49753e-09
6.57742e-08
9.24907e-09
5.79387e-08
7.37869e-09
6.23159e-09
2.72892e-09
5.31194e-09
6.0193e-08
-1.16458e-09
-2.80936e-09
4.7893e-09
6.06209e-09
5.88832e-08
-3.52898e-09
3.45803e-09
9.57281e-09
5.64743e-08
-4.98863e-09
5.29383e-09
9.0503e-09
5.60515e-08
-4.19481e-09
6.29987e-09
1.45146e-08
5.39362e-08
-9.41472e-09
2.13384e-09
1.02548e-08
4.73562e-08
-9.66617e-09
-7.78246e-09
2.13804e-08
4.61901e-08
-1.31211e-08
6.25862e-09
5.37407e-08
-4.25014e-09
-4.26016e-09
2.312e-09
1.02806e-09
5.42574e-08
2.3812e-09
8.02512e-09
1.18327e-09
5.45351e-08
4.52559e-09
7.86467e-10
4.66756e-08
9.80371e-09
2.50729e-09
4.77941e-08
7.20371e-09
5.60761e-09
4.08219e-08
2.33098e-09
-1.03109e-08
3.63472e-08
-2.15752e-08
6.1636e-09
3.25515e-08
1.30494e-09
4.97555e-08
-1.24588e-08
2.08395e-09
-4.85576e-10
5.53145e-08
2.8397e-09
6.92485e-09
-1.8493e-09
5.27037e-08
5.18847e-09
-4.90442e-09
4.73215e-08
7.28336e-09
-3.37e-09
4.5652e-08
6.46447e-09
1.96915e-09
3.95995e-08
1.09872e-08
-1.84735e-08
4.12723e-08
-2.10294e-08
-1.25756e-08
2.73752e-08
-8.61551e-09
4.59609e-08
-1.47712e-08
-5.25272e-10
2.78322e-10
5.61096e-08
5.77788e-09
4.3764e-09
-2.35579e-10
5.61093e-08
6.47691e-09
-2.17361e-09
5.27869e-08
3.5873e-09
-5.01984e-09
4.79448e-08
-1.14791e-08
-1.86822e-08
3.22007e-08
1.15773e-08
-3.6839e-09
4.39926e-08
-6.40804e-09
-2.08358e-08
3.25549e-08
-7.92652e-09
5.23675e-08
-6.74177e-09
-1.40333e-09
-1.48367e-09
5.40796e-08
3.14757e-09
1.78987e-09
6.61379e-10
5.49639e-08
2.36443e-09
1.5945e-09
5.41487e-08
2.63255e-09
-1.67731e-09
5.13781e-08
8.87956e-10
-8.54399e-09
4.97528e-08
-1.75954e-09
3.08849e-09
4.8627e-08
-8.91796e-09
-1.1413e-08
4.69623e-08
-5.30902e-09
5.7038e-08
-4.80456e-09
1.61005e-09
-5.6186e-09
5.29889e-08
-2.58087e-10
2.83322e-09
-2.94901e-09
5.14242e-08
2.20153e-11
-1.75855e-09
4.82739e-08
-1.89612e-09
-4.41036e-09
4.8098e-08
-2.03795e-09
-6.47736e-09
5.06827e-08
-3.73733e-09
-4.5231e-09
4.92315e-08
-7.67868e-09
-6.66135e-09
5.31059e-08
-2.83744e-09
5.90311e-08
-3.60441e-09
3.95986e-09
2.24444e-10
6.12932e-08
1.24268e-09
3.96778e-09
-1.42454e-09
5.52826e-08
-1.24594e-09
-2.09449e-09
4.94596e-08
-3.36176e-09
-2.74018e-09
5.1508e-08
-2.27647e-09
-4.91633e-09
5.45417e-08
-2.33184e-09
-5.81701e-09
5.50958e-08
-4.99074e-09
-6.61979e-09
5.47197e-08
-2.73193e-09
5.8018e-08
-3.49156e-09
2.27253e-09
5.65138e-08
3.80647e-10
-1.11771e-09
1.99509e-09
5.3586e-08
-2.43542e-09
-3.42233e-09
4.91321e-08
-3.46373e-09
-5.73545e-09
5.31477e-08
-5.54471e-10
-3.76187e-09
5.77096e-08
-1.9454e-09
-2.49234e-09
5.98177e-08
-1.55553e-09
-1.23041e-09
6.08557e-08
-2.96302e-09
5.83712e-08
-3.65577e-09
-7.3868e-10
1.7693e-09
3.88417e-09
5.71756e-08
-1.97432e-10
-2.43841e-09
3.22877e-09
4.33259e-09
5.62803e-08
-3.18841e-09
3.1614e-09
5.85773e-09
5.48476e-08
-4.16335e-09
3.44123e-09
6.26658e-09
5.39204e-08
-4.41502e-09
3.3673e-09
8.32767e-09
5.26088e-08
-6.92601e-09
6.64923e-10
6.37705e-09
5.04372e-08
-6.75554e-09
-3.60666e-09
8.04045e-09
4.99723e-08
-7.55148e-09
3.05675e-09
5.27074e-08
-2.94116e-09
-2.68859e-09
1.64208e-09
1.41606e-09
5.44256e-08
6.5831e-10
4.58966e-09
2.00093e-09
5.39199e-08
3.90019e-09
1.84883e-09
5.13742e-08
4.97418e-09
2.69772e-09
5.02889e-08
2.59946e-09
3.95875e-09
4.75667e-08
-7.29356e-10
-1.87454e-10
4.62396e-08
-8.23565e-09
2.85268e-09
4.52455e-08
3.80358e-10
5.08447e-08
-6.64914e-09
2.10701e-09
1.19864e-10
5.3961e-08
5.43183e-10
4.36307e-09
-4.19358e-10
5.28689e-08
4.29798e-09
-1.44216e-09
5.06782e-08
4.86889e-09
-1.22893e-09
4.90088e-08
2.27495e-09
5.92847e-11
4.60924e-08
1.74467e-10
-3.43562e-09
4.6621e-08
-9.37222e-09
-3.38456e-09
4.31596e-08
-4.03685e-09
4.96689e-08
-8.66212e-09
9.7191e-10
-3.75547e-10
5.40256e-08
1.60823e-09
3.54714e-09
-4.99804e-10
5.36157e-08
4.59366e-09
-1.57561e-09
5.18745e-08
4.70477e-09
-2.98566e-09
4.95837e-08
-5.99958e-10
-7.87554e-09
4.54487e-08
-1.74084e-09
-6.49602e-09
4.81951e-08
-8.56862e-09
-9.28254e-09
4.52792e-08
-5.58931e-09
5.16665e-08
-6.31662e-09
7.01358e-10
-1.11744e-09
5.38941e-08
2.26506e-10
2.08052e-09
-4.8656e-10
5.35724e-08
2.60286e-09
-5.6165e-10
5.26138e-08
2.21582e-09
-2.31001e-09
5.10982e-08
-2.32469e-11
-5.81336e-09
4.99223e-08
-3.19924e-09
-4.97334e-09
5.02793e-08
-7.33953e-09
-8.01593e-09
4.98364e-08
-4.98936e-09
5.4172e-08
-5.07267e-09
1.66956e-09
-2.9631e-09
5.39759e-08
-8.1059e-10
2.16232e-09
-2.35043e-09
5.27957e-08
6.88843e-10
-2.16357e-09
5.13493e-08
-7.5514e-10
-3.68739e-09
5.09216e-08
-1.76111e-09
-5.51013e-09
5.13858e-08
-3.49421e-09
-5.76143e-09
5.17531e-08
-5.64857e-09
-5.82248e-09
5.30677e-08
-3.53988e-09
5.58102e-08
-3.87672e-09
2.30837e-09
-3.36902e-10
5.64574e-08
-9.8282e-11
2.36794e-09
-1.42028e-09
5.42937e-08
-4.29848e-10
-2.06178e-09
5.21561e-08
-2.142e-09
-2.91671e-09
5.24518e-08
-2.40623e-09
-4.33469e-09
5.36313e-08
-2.67477e-09
-4.79013e-09
5.43942e-08
-3.88023e-09
-4.95197e-09
5.50553e-08
-2.84772e-09
5.65096e-08
-3.06314e-09
1.15183e-09
5.53327e-08
-7.49302e-11
-2.32087e-10
1.04613e-09
5.4118e-08
-1.84565e-09
-1.84351e-09
5.25235e-08
-2.56292e-09
-3.56642e-09
5.34947e-08
-1.53965e-09
-3.10559e-09
5.54065e-08
-2.49128e-09
-2.477e-09
5.66236e-08
-2.22399e-09
-1.68747e-09
5.74983e-08
-2.38358e-09
5.74099e-08
-2.3318e-09
-1.24131e-09
1.48515e-09
2.6672e-09
5.57578e-08
-5.31528e-10
-2.20279e-09
2.1763e-09
2.78394e-09
5.52136e-08
-2.40768e-09
2.2029e-09
3.19604e-09
5.44007e-08
-2.77533e-09
1.97815e-09
3.45581e-09
5.37122e-08
-3.02113e-09
1.45386e-09
4.04142e-09
5.30057e-08
-3.91263e-09
6.55112e-11
3.41387e-09
5.22539e-08
-3.84185e-09
-1.69748e-09
3.46361e-09
5.21342e-08
-3.86179e-09
1.67178e-09
5.31391e-08
-2.06127e-09
-1.73905e-09
1.38041e-09
1.46491e-09
5.44108e-08
-1.62904e-10
2.49363e-09
1.63925e-09
5.39521e-08
2.5027e-09
1.64661e-09
5.29156e-08
2.37588e-09
1.80588e-09
5.20681e-08
1.05562e-09
1.97017e-09
5.09608e-08
-6.08102e-10
8.66246e-10
5.04514e-08
-3.33959e-09
1.17281e-09
5.02677e-08
9.92723e-11
5.22666e-08
-3.18834e-09
1.53446e-09
4.06524e-10
5.38766e-08
-3.91315e-10
2.45771e-09
2.5813e-10
5.33277e-08
2.53166e-09
-4.89052e-11
5.2301e-08
2.25573e-09
-2.31791e-10
5.13257e-08
6.34023e-10
-4.58512e-10
5.01456e-08
-7.59823e-10
-1.32663e-09
5.02079e-08
-4.09833e-09
-1.7982e-09
4.94697e-08
-2.01933e-09
5.19002e-08
-4.21089e-09
1.21208e-09
-3.63818e-10
5.37895e-08
-2.04405e-10
2.13898e-09
-4.32967e-10
5.33822e-08
2.38165e-09
-8.94192e-10
5.24806e-08
1.94764e-09
-1.60747e-09
5.13992e-08
-2.7514e-10
-2.98607e-09
5.02071e-08
-1.43788e-09
-2.86883e-09
5.09044e-08
-4.19795e-09
-4.08762e-09
5.03307e-08
-3.33698e-09
5.26144e-08
-3.82586e-09
1.08903e-09
-9.12512e-10
5.39042e-08
-5.49303e-10
1.5411e-09
-7.98404e-10
5.34875e-08
1.46895e-09
-1.02814e-09
5.28224e-08
7.74987e-10
-1.91887e-09
5.21116e-08
-6.73102e-10
-3.22255e-09
5.16126e-08
-1.77507e-09
-3.4242e-09
5.1938e-08
-3.77935e-09
-4.34639e-09
5.21022e-08
-3.49736e-09
5.38693e-08
-3.31421e-09
1.20796e-09
-1.56993e-09
5.41526e-08
-7.26634e-10
1.29051e-09
-1.57601e-09
5.34917e-08
5.71163e-10
-1.73738e-09
5.2779e-08
-3.96638e-10
-2.48099e-09
5.24561e-08
-1.38692e-09
-3.40854e-09
5.25644e-08
-2.28525e-09
-3.7351e-09
5.29633e-08
-3.29704e-09
-3.88805e-09
5.36217e-08
-3.10539e-09
5.49136e-08
-2.79158e-09
1.2133e-09
-8.12654e-10
5.49369e-08
-4.49373e-10
1.11626e-09
-1.30545e-09
5.4121e-08
-8.08382e-11
-1.67927e-09
5.3296e-08
-1.18134e-09
-2.18333e-09
5.32573e-08
-1.78962e-09
-2.90299e-09
5.37364e-08
-2.21297e-09
-3.17943e-09
5.42628e-08
-2.67268e-09
-3.24574e-09
5.48735e-08
-2.62862e-09
5.56926e-08
-2.33161e-09
7.20671e-10
5.48079e-08
-6.66337e-10
-3.41587e-10
5.28049e-10
5.42883e-08
-1.28213e-09
-7.39356e-10
5.3684e-08
-1.57167e-09
-1.87908e-09
5.38933e-08
-1.44088e-09
-2.14644e-09
5.47057e-08
-1.93339e-09
-2.17025e-09
5.53885e-08
-1.91991e-09
-1.9874e-09
5.60183e-08
-1.948e-09
5.64372e-08
-2.04041e-09
-1.60205e-09
9.33647e-10
1.61376e-09
5.50838e-08
-4.08312e-10
-1.46474e-09
1.27916e-09
1.67623e-09
5.47686e-08
-1.57616e-09
1.29579e-09
1.80244e-09
5.43286e-08
-1.74636e-09
1.08069e-09
1.89653e-09
5.39186e-08
-1.88605e-09
6.72517e-10
2.02118e-09
5.35593e-08
-2.1653e-09
-2.66328e-11
1.7633e-09
5.32693e-08
-2.07849e-09
-7.77942e-10
1.55145e-09
5.32567e-08
-1.92193e-09
7.91906e-10
5.36454e-08
-1.14267e-09
-9.33002e-10
9.35593e-10
1.03443e-09
5.44001e-08
-3.45254e-10
1.37013e-09
1.08366e-09
5.41107e-08
1.39142e-09
1.08405e-09
5.36137e-08
1.14485e-09
1.07079e-09
5.31428e-08
4.53948e-10
1.00232e-09
5.26723e-08
-3.70909e-10
5.7252e-10
5.24683e-08
-1.47921e-09
4.22833e-10
5.25056e-08
-9.58204e-11
5.32446e-08
-1.56835e-09
1.00182e-09
3.71348e-10
5.40513e-08
-5.13136e-10
1.36499e-09
3.14135e-10
5.37346e-08
1.34538e-09
1.72198e-10
5.32334e-08
1.01222e-09
-4.3528e-12
5.27368e-08
1.79082e-10
-2.857e-10
5.22684e-08
-5.99537e-10
-6.84557e-10
5.22452e-08
-1.92817e-09
-9.92911e-10
5.22151e-08
-1.16309e-09
5.31359e-08
-2.09569e-09
9.05358e-10
-2.08855e-10
5.39551e-08
-4.90178e-10