/*--------------------------------*- C++ -*----------------------------------*\
| =========                 |                                                 |
| \\      /  F ield         | OpenFOAM: The Open Source CFD Toolbox           |
|  \\    /   O peration     | Version:  2506                                  |
|   \\  /    A nd           | Website:  www.openfoam.com                      |
|    \\/     M anipulation  |                                                 |
\*---------------------------------------------------------------------------*/
FoamFile
{
    version     2.0;
    format      ascii;
    arch        "LSB;label=32;scalar=64";
    class       volVectorField;
    location    "0.09";
    object      U;
}
// * * * * * * * * * * * * * * * * * * * * * * * * * * * * * * * * * * * * * //

dimensions      [0 1 -1 0 0 0 0];

internalField   nonuniform List<vector> 
4608
(
(-0.000787333 0.000128372 0.0193012)
(-0.00103238 0.00183749 0.0179889)
(-0.00128837 -0.000999249 0.0153931)
(0.000326063 0.000376504 0.0142309)
(0.00266465 -0.000608397 0.0224753)
(-0.000574003 0.000308297 0.0310727)
(-0.00105799 9.84083e-05 0.0158453)
(0.00190804 -0.0016142 0.0146449)
(0.00225391 -0.000951661 0.0143058)
(-0.000963432 -0.00110927 0.0208241)
(-0.00228326 -0.00230729 0.0241332)
(-8.08095e-05 -0.000648301 0.015352)
(0.00192113 -0.00151359 0.0247226)
(-0.000233664 -0.00165362 0.0136942)
(-0.000386957 -0.000601991 0.0182724)
(0.000273756 -7.08251e-05 0.00868592)
(0.00312465 -0.000693745 0.0197544)
(-0.00125816 5.83093e-05 0.0124632)
(-0.00076319 -0.000292541 0.0111389)
(0.00110553 0.00099177 0.0129011)
(0.000886311 -0.000227935 0.0162792)
(0.000937498 -0.00131394 0.0189854)
(0.000933614 0.000646312 0.00862557)
(-0.00112614 0.000705363 0.0216353)
(0.00152153 -0.000798647 0.0147298)
(-0.000607602 -0.00330331 0.034521)
(-5.77608e-05 0.000575779 0.0145661)
(0.000450429 0.00243981 0.0259043)
(-0.00198329 0.000186189 0.0194917)
(-0.0001462 0.00158496 0.0100853)
(0.00100208 0.00170576 0.00855287)
(0.00163259 -0.00011083 0.0092646)
(0.000129651 -0.00179571 0.0203397)
(0.000709565 -0.00241105 0.00870411)
(0.000796527 -8.01663e-05 0.00587965)
(0.000726097 -0.00129572 0.0153146)
(0.000825317 0.000296787 0.0111483)
(0.000582225 0.000782024 0.0107157)
(-0.00683019 0.00246903 0.0348691)
(-0.00240379 0.000147269 0.0110189)
(9.97322e-05 0.000505168 0.0170485)
(0.00142798 0.00100859 0.00872538)
(0.00138207 0.000200274 0.0213892)
(0.000118629 -0.000205253 0.0141935)
(0.000890641 0.0013289 0.0231759)
(-0.000394967 -0.000533969 0.0144138)
(4.44023e-05 0.000384089 0.0102867)
(0.000351347 0.00140079 0.0227722)
(-0.000593549 0.000738993 0.0195236)
(-0.000392896 0.000759279 0.0167415)
(-0.00102449 -0.000241781 0.0151054)
(0.000675551 -0.000113258 0.00783849)
(0.00324117 6.75932e-05 0.0256878)
(0.00172423 0.00220098 0.0134061)
(0.000191306 0.000549524 0.0110265)
(-0.00150707 -0.000140854 0.0170096)
(-0.00229919 -0.000502396 0.0107388)
(0.000893119 -0.000211845 0.00933411)
(0.00126881 -0.000519863 0.0152828)
(0.000908816 0.000326011 0.0182036)
(0.00249314 -0.000903185 0.00889624)
(0.000173033 -0.000608583 0.00949591)
(-0.00242169 -0.00276419 0.0169454)
(-0.00371226 -0.00556347 0.028372)
(0.000119128 -0.00248851 0.0378232)
(0.000801475 -0.00214569 0.0560642)
(0.000383812 -0.00070174 0.0299)
(-0.00235348 -0.00204951 0.0493095)
(-0.000584115 -0.000157642 0.0182048)
(0.00257379 0.00016709 0.0524228)
(0.00290881 -0.00102711 0.0343048)
(0.00186346 -0.000117649 0.0425466)
(-0.00287509 -0.00209356 0.057612)
(-0.00162988 0.000757466 0.0448392)
(-6.37701e-05 0.000456229 0.0465925)
(-0.000289163 0.000593699 0.0401317)
(0.00187984 0.000449148 0.038113)
(0.00303455 0.00310168 0.0482047)
(0.00160267 0.0016799 0.0413235)
(0.00223922 -0.000233807 0.0476109)
(-0.000489353 -0.00148006 0.0455755)
(4.09231e-05 -0.00347161 0.0497588)
(0.000408531 -0.000291626 0.0343219)
(-0.000183975 -0.000717475 0.0375261)
(0.000700251 0.00130243 0.0407257)
(0.00330967 0.00102041 0.0345511)
(0.00173798 0.00172698 0.0547602)
(0.00163674 0.000719371 0.0431129)
(-0.00430866 -0.00102004 0.049329)
(-0.000675784 -0.000380709 0.0437171)
(0.00371003 0.000916098 0.0405228)
(0.00113645 -5.3075e-05 0.0511922)
(0.00231971 0.00124942 0.0424207)
(0.005573 0.000216734 0.0453093)
(0.0033955 -0.00274173 0.0462669)
(-9.51963e-05 0.00367064 0.0545387)
(0.0010589 0.00191548 0.0384896)
(0.00276617 0.00393106 0.0417251)
(0.000344745 0.00103169 0.0564423)
(-0.000325774 -0.000151579 0.0495628)
(0.000263682 -0.00131987 0.0452286)
(-0.000497175 -0.00128515 0.0673079)
(0.00537171 -0.00159423 0.0323143)
(0.00349661 -0.00193872 0.0331895)
(0.000128295 0.00191901 0.037774)
(-1.88047e-05 5.13647e-06 0.0438962)
(-0.00064217 -0.00140338 0.0495293)
(-0.000782438 -0.000233407 0.0380138)
(0.00154661 -0.00134009 0.0379945)
(0.00502527 -9.32255e-06 0.0408334)
(0.00183607 0.00144394 0.0472025)
(0.000912147 -0.00261758 0.0407725)
(-0.000542139 0.00206502 0.0350402)
(0.000896697 0.00130006 0.0576463)
(3.24908e-05 0.000834301 0.0414196)
(-0.00156749 0.000802045 0.048608)
(0.000864227 0.00301307 0.0342025)
(0.00408495 0.00105973 0.0457369)
(0.00201158 -0.000114512 0.064471)
(0.00244815 0.00175671 0.0406975)
(0.00147433 9.38983e-05 0.0472417)
(0.00101095 0.00130444 0.0421022)
(-0.00191931 0.00167775 0.0588437)
(0.000262913 0.00244349 0.0353832)
(0.00328343 0.00278508 0.0567495)
(0.000776413 0.00123407 0.0764349)
(-0.000451954 0.00222083 0.0479)
(0.00280587 0.00550546 0.0349323)
(0.00186699 -0.00052436 0.0364829)
(0.000722636 0.000489441 0.042935)
(0.00268839 0.00326077 0.037214)
(0.000649607 0.00195771 0.0322656)
(-0.00339931 0.00412559 0.0464647)
(-0.000541949 0.00100813 0.0424485)
(0.000917378 0.00110914 0.0354997)
(-0.00172566 0.00215264 0.0369678)
(-0.000450693 -0.000313608 0.0299354)
(0.00144708 -0.00128056 0.0438991)
(0.00137239 -0.000373283 0.0446726)
(0.00123779 -0.000148556 0.0381477)
(0.000418825 0.00120593 0.0379164)
(0.000846068 0.00310337 0.0484957)
(0.000998717 -0.000646944 0.0343441)
(0.000532919 0.00126304 0.0322641)
(0.000447081 0.000166609 0.0341204)
(0.000910586 -0.00337794 0.0562827)
(0.0012571 -0.00141982 0.0316651)
(0.00180285 -0.00152312 0.0414974)
(0.000747165 0.000552771 0.0298634)
(-0.000245835 0.0011567 0.0473749)
(0.000508837 -0.000387307 0.038752)
(0.00264205 0.000505677 0.0388028)
(-0.00101649 0.0007005 0.0401117)
(8.9792e-05 0.000181673 0.0265976)
(0.000935263 4.11563e-05 0.0298751)
(0.00407499 -0.00102283 0.0540497)
(0.00196497 -0.00109039 0.0376863)
(0.000874345 -0.00173358 0.0252002)
(-0.00112113 0.0012827 0.051042)
(-2.56052e-05 0.0021188 0.0314287)
(0.000683876 0.00119913 0.0212014)
(2.82226e-05 0.000574534 0.044241)
(-0.000947835 0.00120388 0.0395205)
(-0.00103682 0.00103705 0.0431242)
(-0.00269801 -0.00153126 0.0375105)
(0.000984166 -0.00154213 0.0290473)
(0.00942688 -0.00195877 0.0530374)
(0.00240096 0.00109363 0.0599777)
(-0.000185882 0.000668294 0.0428609)
(-0.000242009 -0.00193643 0.0354066)
(0.00150774 -0.000106076 0.0376781)
(0.000970726 0.000793477 0.0390163)
(-0.000314868 -0.000611284 0.031392)
(0.000287379 0.00213228 0.035398)
(0.00280604 -0.00337491 0.0494137)
(0.00127316 -0.000474875 0.0333135)
(0.00018422 -0.0018163 0.0333962)
(0.00152018 -0.000488415 0.0335025)
(0.00247322 -0.000456237 0.0281929)
(0.000696298 -5.95656e-05 0.0260473)
(-0.000601263 -0.000919456 0.0358855)
(-0.000320453 -0.00071929 0.0332663)
(0.00176872 0.00145891 0.0314686)
(0.00458838 0.0017043 0.0363068)
(0.00186187 -0.000185463 0.032017)
(-7.69495e-05 0.000827975 0.0531802)
(0.00163443 0.00186292 0.0423237)
(0.000567252 -0.000137034 0.0263983)
(-0.00255096 0.00241767 0.0501151)
(0.00259743 0.000582839 0.0410918)
(0.00397105 0.00328437 0.0320873)
(0.00319183 0.00236666 0.0448207)
(-0.00189691 0.000794173 0.054375)
(0.000401542 -0.000104393 0.0555189)
(0.00172807 0.00219478 0.0398717)
(-0.00107551 0.00928281 0.0705886)
(-0.000406506 0.000845229 0.0298615)
(7.79297e-05 -0.000235327 0.0317776)
(0.00139945 0.00172825 0.0398476)
(0.000348808 0.00315503 0.0423151)
(0.00100941 0.000357081 0.0437165)
(0.00261643 -0.00103324 0.0504056)
(0.00478066 -0.000156186 0.045666)
(-0.000436023 0.000155681 0.0344403)
(-0.00495572 0.00219165 0.0480222)
(0.000152754 0.00142736 0.0433584)
(0.0034183 0.000705419 0.0540986)
(-0.00110584 0.00217857 0.0475477)
(0.00118333 -0.000986965 0.0512303)
(0.00151335 0.000673617 0.0414915)
(0.00168485 -0.00103751 0.0358815)
(0.00154565 -0.005555 0.0460301)
(0.000353255 0.00145887 0.0451259)
(-0.000311195 0.00331272 0.0373515)
(0.00105739 0.000528617 0.0376088)
(9.18415e-05 0.00202784 0.0370629)
(0.00426552 0.000421739 0.0458621)
(0.00214355 0.000894516 0.0387652)
(-9.89658e-05 0.000884437 0.0313216)
(0.000827623 2.64276e-05 0.0295728)
(0.00596244 0.00308226 0.0528002)
(-0.00146613 0.00185449 0.0543983)
(0.000158689 0.000542033 0.0453134)
(0.000196766 -0.00072236 0.0428215)
(0.00224008 0.00111326 0.0452648)
(0.00259306 -5.55247e-05 0.0501014)
(0.00142522 0.00114448 0.0566826)
(0.00293058 0.00377591 0.0515813)
(0.000678255 0.000982031 0.0395763)
(-0.00204834 -0.00152817 0.04256)
(-0.00125024 -0.000583196 0.0343378)
(-0.000136789 -0.00328264 0.0596096)
(0.000960164 0.00266487 0.0512334)
(0.00170625 0.000223857 0.0337493)
(0.00221166 0.000200788 0.0468274)
(0.00185616 0.000853075 0.0364248)
(-0.000522835 -0.00134534 0.0427321)
(-0.00267917 -0.00025565 0.0429845)
(-0.000425822 0.000463242 0.0334835)
(0.00110217 0.00214175 0.0439445)
(0.00164252 -6.23386e-05 0.0426558)
(-7.04958e-05 -0.00199984 0.041962)
(0.00292688 -0.00125431 0.048839)
(0.00154327 0.000544689 0.055768)
(0.000121947 -0.0016491 0.0295886)
(-0.00120627 -0.000543283 0.0534005)
(0.000557004 0.00272221 0.0446775)
(0.000450148 0.000398769 0.0361496)
(0.000120474 -0.00278458 0.0537431)
(0.000352219 -6.3895e-05 0.0339373)
(0.00436503 -0.000377471 0.0421267)
(0.000910754 -0.00312512 0.0363931)
(-0.000435681 -0.000116532 0.0402783)
(0.00291066 0.0013788 0.0559742)
(0.00121732 0.00181283 0.0535864)
(0.000786281 -0.00213489 0.0463404)
(9.79647e-05 -0.000472064 0.0472464)
(0.000131928 -0.00386607 0.0420233)
(0.000573987 -0.00082387 0.0408424)
(0.00118294 0.00118276 0.0388742)
(0.00131474 -0.00239804 0.0449923)
(-0.000740983 -0.000658151 0.0383185)
(-0.000652461 -0.000196455 0.0397722)
(0.00143015 0.00183405 0.0389409)
(0.0013426 0.000748833 0.0433607)
(0.000109899 0.000199939 0.0409163)
(0.00208398 0.00120314 0.0618309)
(0.000323624 0.0026318 0.0765108)
(-0.000474698 -2.18831e-05 0.0251897)
(-0.00100887 -0.000318798 0.0370823)
(0.00202218 0.000846454 0.0402469)
(0.00768971 0.000422968 0.0521349)
(0.000161278 -0.000731669 0.0447409)
(0.00127802 0.00353806 0.0523287)
(0.00127075 0.00164944 0.0322258)
(-0.000173139 0.00258312 0.0346377)
(-0.000112047 -0.000442128 0.046655)
(0.000364149 0.00129342 0.0400926)
(-0.000915585 0.00107917 0.0386047)
(-0.000479653 -0.000100812 0.0467095)
(0.00279613 0.00119994 0.0427494)
(0.00318818 -5.80328e-05 0.0385106)
(0.00148821 -0.000118933 0.0315282)
(-0.00188231 -0.000214781 0.0358629)
(-0.00231899 0.0012778 0.0343421)
(0.000369832 0.00558001 0.0662816)
(1.32302e-05 0.000761972 0.0327296)
(0.0010963 -0.00145881 0.0775583)
(0.00119241 0.00119751 0.0329304)
(-0.00065521 -0.00127565 0.0432269)
(0.00244209 -0.00481149 0.0673866)
(0.001369 -0.00253418 0.0371538)
(0.0053708 0.00512344 0.0683813)
(-1.14639e-05 0.000735028 0.0242815)
(-0.00679747 0.00474513 0.0633131)
(0.000602375 0.00135879 0.0300239)
(0.00149395 -7.32416e-05 0.0313999)
(-0.000344761 0.000744084 0.0378231)
(0.000173165 0.00100547 0.0425356)
(0.00287451 6.20127e-05 0.04316)
(0.00166177 0.000820352 0.0436203)
(0.00022675 -0.000812547 0.0320479)
(0.00077498 -0.000207385 0.0434241)
(-0.000834715 0.00239828 0.0391478)
(0.00243632 -0.00185294 0.0724554)
(2.26127e-05 -0.000442506 0.0356338)
(3.3329e-05 6.66108e-05 0.0440123)
(0.00177879 0.000262365 0.0459154)
(0.00116178 0.00168187 0.045768)
(-0.000836845 0.00027535 0.0443441)
(0.000527293 -0.00115103 0.0339578)
(-0.000218845 -0.0022033 0.0488496)
(0.00318052 0.000210359 0.0456938)
(0.00047677 -0.000612251 0.0331433)
(0.000903926 -0.000153295 0.0348551)
(0.00515152 -0.00165709 0.0552593)
(0.00057618 0.000173204 0.0346399)
(-0.0013252 0.000123415 0.0307093)
(-0.00096546 0.00139811 0.0558466)
(4.13034e-05 -0.00112784 0.0450493)
(0.000418148 -0.00120233 0.030309)
(-0.000382498 0.00041555 0.0340914)
(-0.0017678 -0.00382747 0.0275435)
(-8.8853e-05 -0.0134777 0.0494965)
(-2.50998e-05 -0.00218027 0.0227082)
(-0.00300748 -0.00369298 0.0384144)
(0.00176318 -0.00438437 0.0297396)
(-0.000338437 -0.00171046 0.0291779)
(0.00270421 -0.00119409 0.0441931)
(-0.00158081 -0.000631848 0.0256717)
(-0.00708122 -0.00292916 0.037723)
(0.000373386 -0.00122265 0.0257105)
(0.00195876 -0.00607306 0.0394024)
(-0.000287489 -0.00112565 0.0235915)
(0.000971267 -0.00333731 0.0343593)
(0.00235451 -0.00141586 0.0334175)
(0.001914 0.00518024 0.0372688)
(-0.000997725 0.000275598 0.0227141)
(-0.00352259 0.00308492 0.0308514)
(-0.00302705 0.00386738 0.0409159)
(-0.00100742 -0.000308816 0.0315089)
(-0.000788703 -0.0028109 0.0440256)
(0.00217814 0.000223401 0.0366532)
(0.0021122 -4.09479e-05 0.0258507)
(0.00152502 0.000118301 0.0220632)
(-0.00471577 0.000487199 0.0391398)
(-0.00414653 0.00057788 0.0337701)
(-0.00671887 0.00286519 0.0439535)
(-0.001507 0.000887455 0.026628)
(0.000752289 0.000962235 0.0318642)
(0.00200067 0.00165491 0.0304957)
(0.00280615 0.00414772 0.0354746)
(0.00468001 -0.00530206 0.0405926)
(-0.000363153 -0.000392291 0.0251219)
(-0.00188236 2.14769e-05 0.0302599)
(-0.00120554 0.00190538 0.0349419)
(-0.00131488 0.002775 0.0334585)
(0.00120897 0.0073675 0.0499409)
(0.00492596 0.00325405 0.0329812)
(0.00191406 0.00275817 0.0282639)
(0.00339331 0.000576442 0.0404312)
(0.000128489 0.000736905 0.029023)
(-0.00107327 0.000692551 0.0264052)
(-0.000380532 0.00109372 0.0247145)
(-0.00113307 0.0048596 0.0404326)
(0.00189456 0.00360697 0.0319564)
(0.00375714 0.00457926 0.035985)
(0.00299584 -0.000951703 0.0392027)
(0.0040433 0.000353804 0.0430975)
(-0.00113088 6.44019e-05 0.0288847)
(-0.00299154 0.000842664 0.0395013)
(0.00139767 0.00319279 0.0338608)
(0.000388745 0.00151761 0.026938)
(0.00128927 0.00357689 0.0348282)
(0.000711804 0.000999743 0.0267357)
(-0.000589784 -0.000165869 0.0363452)
(0.00079838 -0.00234559 0.0319204)
(0.00010389 -0.00192347 0.0272044)
(0.000839952 -0.000870725 0.024185)
(-0.000313416 0.000481832 0.0214283)
(-0.00227983 -0.000810971 0.0426954)
(0.000667011 0.000781638 0.0367011)
(-0.000980297 -0.0014872 0.0297017)
(-0.000952022 0.000111894 0.0292209)
(-0.000387576 0.000132685 0.0269625)
(0.000178079 -0.000513532 0.0263805)
(0.000362139 0.000904203 0.0271812)
(0.000237976 -0.000540376 0.0286849)
(3.92273e-05 0.000304528 0.0271429)
(1.38834e-05 -0.000951681 0.0246893)
(-0.000538558 0.0004595 0.0235907)
(-0.00337218 -0.000734511 0.0246515)
(0.000161794 -0.000567094 0.0226037)
(0.000422085 -9.30397e-05 0.0263305)
(-0.00012878 0.000106439 0.0224476)
(-0.000298921 2.78343e-05 0.0294932)
(-0.000388554 -0.000240865 0.0233478)
(-0.000179134 -0.00144612 0.0229572)
(-0.000523184 0.000104995 0.0231939)
(-0.00171776 0.000671951 0.028598)
(-2.55988e-05 -0.00158554 0.0294177)
(0.000594414 -0.000626072 0.0229369)
(-2.15274e-05 -0.000531113 0.0242581)
(-0.000373949 1.19309e-05 0.0255845)
(-0.000708355 0.00071026 0.0273783)
(0.000689931 -0.00125003 0.0297421)
(-0.000535253 -0.000668643 0.0213601)
(-0.00251561 -9.27223e-05 0.0259507)
(-0.000721848 0.0002024 0.0168348)
(0.0005271 0.000302741 0.0290163)
(-5.31248e-05 -0.000330392 0.0273335)
(0.00107466 0.000129367 0.0312242)
(-0.000509899 0.000189473 0.0190023)
(-0.000474872 -6.41561e-05 0.0303426)
(-0.000457916 -0.00111512 0.0234671)
(-0.00187493 0.000446888 0.0377444)
(6.2003e-05 0.00123781 0.0284842)
(0.000141647 0.000785203 0.0230088)
(-4.92737e-05 0.000625402 0.0317552)
(-0.00054843 0.000727466 0.0272864)
(-0.000597541 -0.00141254 0.0371612)
(-0.000234533 0.000800462 0.0275409)
(-0.00060105 -0.00111985 0.0302706)
(-0.0003426 0.00145032 0.0221839)
(-0.000405787 0.000179025 0.0222101)
(3.96908e-05 2.60296e-05 0.0234539)
(9.39466e-05 0.000518174 0.0240992)
(-0.000500379 0.000576751 0.0246894)
(-2.26893e-05 0.000915858 0.0284018)
(-0.000104739 0.000196057 0.0229889)
(-0.00102402 0.000853837 0.0275899)
(-0.000694133 0.000992193 0.0275452)
(-0.00238068 -0.00138753 0.0435495)
(0.0011641 0.000916624 0.0232722)
(-0.000402313 0.000732275 0.02564)
(-0.00071632 0.000181413 0.0274532)
(-0.000448521 -0.000369701 0.0258973)
(-8.2096e-06 -0.000825182 0.0271977)
(0.000119884 0.0012071 0.0207869)
(-0.000521752 9.03303e-05 0.0250791)
(-0.000774768 0.00175664 0.0292219)
(0.000358368 0.000983336 0.0216321)
(-0.000675101 -0.000302213 0.0215713)
(-0.000855833 0.000672907 0.0203244)
(-0.000851751 -0.000644454 0.0278757)
(-0.00102461 -0.000315894 0.0259988)
(0.000218951 -0.00113824 0.0257947)
(0.000710246 0.000843786 0.0233819)
(-0.00171704 -0.00303211 0.0290287)
(-0.00199426 -0.0031604 0.0279228)
(-0.00208345 -0.00404665 0.0248814)
(-0.00216259 -0.00457011 0.0241342)
(-0.00145211 -0.00549472 0.0251198)
(-0.000818194 -0.00585845 0.00431201)
(0.00173188 -0.00827327 0.00531161)
(0.00397397 -0.00450349 0.0254044)
(-0.00214016 -0.00218978 0.0116184)
(-0.00286487 -0.00225915 0.0234503)
(-0.0029865 -0.00276965 -0.00543646)
(-0.00311609 -0.00355392 0.00789849)
(-0.00234576 -0.00510059 -0.00654676)
(-0.00277595 -0.00495116 -0.0151787)
(0.00221096 -0.00792576 -0.036844)
(0.00726524 -0.00384209 0.0150253)
(-0.00207361 -0.0013306 0.026446)
(-0.00286297 -0.000751166 0.0155592)
(-0.00360464 -0.00028342 0.000719144)
(-0.00464787 -0.000693857 0.00129522)
(-0.00276146 -0.00236935 -0.00292918)
(-0.00383564 0.00570573 0.0032073)
(0.00185515 -0.000587928 -0.0579194)
(0.00931857 -0.000135065 0.00432289)
(-0.0015372 -0.000274337 0.0288676)
(-0.00212339 0.000148598 0.0278709)
(-0.00309979 0.000545032 0.0181177)
(-0.00512461 0.00121412 0.0135298)
(0.00489072 0.00166541 -0.0431624)
(0.000128348 0.000107334 0.016998)
(-0.00307327 0.00442558 -0.0352744)
(0.0067331 0.00247074 0.0229487)
(-0.00166429 0.000311826 0.0209471)
(-0.00213466 0.000391073 0.02011)
(-0.00259657 0.000561793 0.0229216)
(-0.00320499 0.00152846 0.0137555)
(-0.000635286 0.00444701 0.023614)
(0.000455047 -0.00302353 0.0105517)
(0.00167185 0.0058374 0.00919329)
(0.0042591 0.00299461 0.0247442)
(-0.00217049 0.00043375 0.00877304)
(-0.00195502 0.000554784 0.0131184)
(-0.00197491 0.000804384 0.00473046)
(-0.00121056 0.00170185 0.00671595)
(0.000512473 0.00381618 0.0138343)
(0.000653216 0.00331841 0.000677486)
(0.000939566 0.0043947 0.0158683)
(0.00253257 0.00275591 0.0283121)
(-0.00242592 0.00123247 0.0392918)
(-0.00169308 0.00138342 0.02467)
(-0.00158088 0.00142473 0.0083646)
(-0.00035035 0.00174775 0.0159474)
(0.000781823 0.00266547 0.02056)
(0.000624962 0.00242651 0.020122)
(0.000913382 0.00290285 0.0100291)
(0.00188181 0.0023068 0.0227314)
(-0.00212535 0.00167307 0.0247199)
(-0.00199218 0.00196682 0.0159986)
(-0.0017944 0.00197319 0.00574485)
(-8.74444e-05 0.00203592 0.0227847)
(0.000978425 0.00208809 0.0266175)
(0.000461724 0.00203458 0.0287655)
(0.000786931 0.00237517 0.0296115)
(0.00159937 0.00202152 0.0216619)
(0.000705117 0.00126724 0.0185668)
(0.00098915 0.00141744 0.0184296)
(0.00106542 0.00217472 0.0182629)
(0.00102649 0.00199469 0.0187073)
(0.0015836 0.00347421 0.0188124)
(0.00141206 0.00329584 0.0162408)
(-0.000906139 0.00476885 0.0166376)
(-0.00194208 0.00165613 0.0180657)
(1.08929e-05 0.00093023 0.0167186)
(0.00145451 0.00109065 0.0178238)
(0.0015742 0.00148537 0.0157319)
(0.0017531 0.00169523 0.0168914)
(0.00218116 0.00258673 0.0157072)
(0.00210188 0.000603743 0.014255)
(-0.00219967 0.00410953 0.0150511)
(-0.00524065 0.00125727 0.0179169)
(-0.000205019 -0.00012225 0.0177058)
(0.00130467 -0.000257262 0.017022)
(0.00156505 -0.000830806 0.0159352)
(0.00205286 -0.000213775 0.0163757)
(0.000461771 0.000877926 0.0163948)
(0.00284709 -0.00600937 0.0160053)
(-0.00035377 -0.00110803 0.0141863)
(-0.00618452 -0.000905331 0.0168743)
(-0.000981437 -3.11661e-05 0.0182794)
(0.000618337 -0.000450921 0.0185699)
(0.00149561 -0.00116701 0.017834)
(0.00342021 -0.00132975 0.0169499)
(-0.0036085 -0.00226933 0.0145102)
(0.000290402 -0.00235035 0.0115286)
(0.0030123 -0.00495649 0.0145082)
(-0.00415623 -0.00246497 0.0182157)
(-0.000833498 7.96163e-05 0.0171599)
(0.000104163 0.000372679 0.0178051)
(0.000649702 0.000201263 0.0181713)
(0.00104726 -0.000665066 0.0173741)
(-0.000267356 -0.00352882 0.0189525)
(0.000279665 0.00232278 0.0165795)
(-0.000773303 -0.004019 0.0175117)
(-0.00248282 -0.00174088 0.0192334)
(4.04251e-05 -0.00117752 0.0164805)
(0.000727231 -0.000296428 0.0163177)
(0.000437919 0.000131436 0.0156417)
(-0.000305453 -0.000511841 0.0158689)
(-0.000552532 -0.00162679 0.017119)
(-0.000561074 -0.000887159 0.0155227)
(-0.00153098 -0.00218311 0.0177793)
(-0.00161566 -0.000957402 0.0192971)
(0.000143474 -0.000708677 0.0198881)
(0.00138764 -0.000617039 0.0176328)
(0.000376914 -0.000579763 0.0154959)
(-0.000775637 -0.00110233 0.0166239)
(-0.000756799 -0.00157793 0.0177191)
(-0.000500391 -0.00171092 0.0175745)
(-0.000973683 -0.00172234 0.0172423)
(-0.00117858 -0.000632946 0.0181223)
(0.000361666 0.000443805 0.0173858)
(0.000831865 -0.000447285 0.01639)
(-0.000115073 -0.000824011 0.014947)
(-0.0013673 -0.000502785 0.0170003)
(-0.00123722 -0.000950446 0.0183353)
(-0.000818239 -0.00102599 0.0189249)
(-0.000451796 -0.00132285 0.0193346)
(-0.000219773 -0.00085205 0.0176588)
(0.000308774 0.000913807 0.0200746)
(0.000668799 0.00108468 0.0196076)
(0.000840576 0.00144948 0.0188982)
(0.000825027 0.00154115 0.0185316)
(0.000932805 0.00217185 0.0178834)
(0.000656928 0.00195185 0.0167509)
(-0.000462349 0.00220274 0.0164491)
(-0.0010194 0.000928458 0.0179608)
(0.000114099 0.000759378 0.0187818)
(0.000868075 0.000906921 0.0184814)
(0.00110711 0.0011095 0.0171372)
(0.00116854 0.001275 0.0167609)
(0.000991142 0.00163723 0.015221)
(0.000537397 0.00091805 0.0142903)
(-0.00108636 0.0015879 0.013316)
(-0.00232749 0.000563385 0.0168961)
(0.000114026 0.00012827 0.0185667)
(0.000892375 0.000109219 0.0180734)
(0.00113875 -4.58464e-05 0.0169603)
(0.00131751 0.000148718 0.0162242)
(0.000555176 0.000501149 0.0146644)
(0.000596811 -0.000895023 0.0151348)
(-0.000841526 -0.000137724 0.0119473)
(-0.00285549 -0.000443458 0.0161863)
(-0.000195981 -6.69143e-05 0.0186156)
(0.000626346 -0.000223425 0.0184675)
(0.00109812 -0.000532318 0.0176673)
(0.00169777 -0.000682135 0.0165314)
(-1.21952e-05 -0.00109478 0.0140133)
(-8.25042e-05 -0.00114119 0.0184719)
(-0.000668893 -0.00185907 0.013775)
(-0.00249425 -0.00139045 0.0173892)
(-9.55026e-05 -0.000124085 0.0184625)
(0.000400581 -3.26794e-06 0.0184059)
(0.000649468 -0.000152617 0.017997)
(0.000732087 -0.00066509 0.017351)
(0.000106705 -0.00184553 0.0167525)
(-0.000195704 -0.000952877 0.0172371)
(-0.00114614 -0.00228171 0.0165363)
(-0.00185258 -0.00143301 0.0186232)
(0.000240153 -0.000638638 0.0185404)
(0.000581816 -0.00036178 0.0179758)
(0.000410649 -0.000254982 0.0172815)
(-2.50437e-05 -0.000690737 0.0171032)
(-0.000354631 -0.00136143 0.0174056)
(-0.000616948 -0.00137167 0.017549)
(-0.00122053 -0.00173332 0.0180763)
(-0.00131691 -0.00105503 0.0193353)
(0.000190733 -0.000434984 0.0197971)
(0.00077407 -0.00051877 0.018672)
(0.000293998 -0.000578409 0.0176322)
(-0.000415465 -0.000912418 0.0177977)
(-0.000620997 -0.00130559 0.0183796)
(-0.000626048 -0.00143269 0.0186795)
(-0.000859373 -0.0013799 0.0189361)
(-0.000910705 -0.000768054 0.0195792)
(9.83214e-05 0.00012367 0.0192155)
(0.000428858 -0.000390745 0.0185646)
(-1.84174e-05 -0.000629471 0.0177581)
(-0.00079342 -0.000598176 0.0182326)
(-0.000913008 -0.000896971 0.0191605)
(-0.000717883 -0.000931611 0.0197142)
(-0.000524285 -0.000976549 0.0201052)
(-0.000336716 -0.000675703 0.0199871)
(0.000288844 0.000685299 0.0188455)
(0.000490172 0.000727293 0.0186395)
(0.000576733 0.000838927 0.0182825)
(0.000535032 0.000906605 0.0180078)
(0.000464649 0.0011049 0.0176805)
(0.000242675 0.00102334 0.017272)
(-0.00024192 0.00102621 0.0171754)
(-0.000539111 0.000560962 0.0177124)
(0.000206189 0.000572427 0.0182329)
(0.000526954 0.000614824 0.0180576)
(0.00065784 0.0006743 0.0175234)
(0.000647685 0.00073064 0.0171921)
(0.000461337 0.000818608 0.0166094)
(0.000141294 0.000583118 0.0163504)
(-0.000510629 0.000660647 0.0161699)
(-0.000990869 0.000273576 0.0173073)
(0.000219736 0.000220939 0.0180528)
(0.000537103 0.000216079 0.0178049)
(0.000660307 0.000175856 0.0173021)
(0.000660722 0.000192141 0.0168752)
(0.000304737 0.000192887 0.0162297)
(7.41837e-05 -0.00013726 0.0163425)
(-0.000550329 -9.13393e-05 0.0157233)
(-0.00123551 -0.000239824 0.0171086)
(0.000132661 -1.54208e-05 0.0180407)
(0.000449075 -6.25962e-05 0.0178914)
(0.000606255 -0.000177479 0.0174736)
(0.00064586 -0.0002909 0.0169499)
(0.000122861 -0.000495822 0.0160817)
(-0.000146341 -0.000594192 0.0168563)
(-0.000613703 -0.000831646 0.0161362)
(-0.0011788 -0.000741301 0.0174985)
(0.000168785 -0.00015967 0.0180668)
(0.000358089 -0.00014288 0.0179207)
(0.000412032 -0.000238863 0.0176445)
(0.000323286 -0.00046999 0.0173095)
(-9.90296e-06 -0.000844069 0.0169986)
(-0.000276081 -0.000805237 0.0171463)
(-0.000710809 -0.0011271 0.0171239)
(-0.000998943 -0.00091305 0.018077)
(0.000234272 -0.000359717 0.0181318)
(0.000361602 -0.000318577 0.0178317)
(0.00026552 -0.000346607 0.0174947)
(2.36328e-05 -0.000555486 0.0173692)
(-0.000237164 -0.000837454 0.0174387)
(-0.000456628 -0.000923006 0.0175878)
(-0.000739968 -0.00105033 0.0178825)
(-0.000826172 -0.000840363 0.0185164)
(0.000204714 -0.000320617 0.018579)
(0.000366452 -0.000385328 0.0181507)
(0.000161367 -0.000452616 0.0177268)
(-0.000185667 -0.000621022 0.0177435)
(-0.0003996 -0.000829839 0.0179873)
(-0.000509131 -0.000914339 0.0182018)
(-0.000639573 -0.000920949 0.0184294)
(-0.000659069 -0.000723841 0.0187894)
(0.000137319 -0.000159764 0.0184046)
(0.000222618 -0.00033427 0.0181706)
(1.40503e-05 -0.000433217 0.0178595)
(-0.000369657 -0.00047796 0.0180121)
(-0.000545501 -0.000630418 0.0184288)
(-0.000556671 -0.000668723 0.0187269)
(-0.00053768 -0.000687292 0.0189658)
(-0.000461839 -0.000618137 0.0190577)
(0.000185843 0.000424097 0.0185883)
(0.000294133 0.000445738 0.0184505)
(0.000339122 0.000485868 0.0182544)
(0.000307891 0.000516703 0.0180789)
(0.000234453 0.000571071 0.0179183)
(9.6733e-05 0.000529746 0.0177734)
(-0.000116285 0.000483781 0.0177592)
(-0.000261826 0.000286067 0.0179611)
(0.000169149 0.000360059 0.0182737)
(0.000307447 0.000375354 0.0181536)
(0.000364783 0.000393375 0.0179198)
(0.00033675 0.000405093 0.0177159)
(0.000216395 0.000411103 0.0174862)
(2.81648e-05 0.000320096 0.0173934)
(-0.000250307 0.000276897 0.017386)
(-0.000447473 0.000106803 0.0177714)
(0.000188479 0.000174981 0.0181314)
(0.000314362 0.000174502 0.0179912)
(0.00035915 0.00015598 0.0177601)
(0.00032002 0.000135797 0.017538)
(0.000145303 9.25413e-05 0.0172992)
(-4.05825e-05 -2.38742e-05 0.0173145)
(-0.000325229 -7.45405e-05 0.017233)
(-0.000571755 -0.000160567 0.0177077)
(0.00016857 9.46259e-06 0.0180976)
(0.000281025 -9.5541e-06 0.0179797)
(0.0003178 -6.22061e-05 0.0177718)
(0.000265768 -0.000133767 0.0175425)
(5.14895e-05 -0.000237976 0.017299)
(-0.000141594 -0.000319468 0.0174363)
(-0.00038539 -0.000414649 0.0173825)
(-0.000588328 -0.000418058 0.0178596)
(0.000173173 -0.000107889 0.018133)
(0.000236314 -0.000122467 0.0180123)
(0.000227909 -0.000182558 0.0178482)
(0.000136043 -0.000292625 0.0176919)
(-4.75845e-05 -0.000436801 0.0175932)
(-0.000224425 -0.000496054 0.0176643)
(-0.000428236 -0.000591353 0.0177516)
(-0.000551347 -0.000548234 0.0181357)
(0.000164519 -0.000197502 0.0181966)
(0.000202887 -0.000219859 0.0180423)
(0.000141676 -0.000267919 0.0178811)
(2.40139e-06 -0.00037314 0.0178031)
(-0.000161599 -0.000501242 0.0178246)
(-0.000307051 -0.000566697 0.0179272)
(-0.000447078 -0.00061538 0.0180968)
(-0.000498308 -0.000555038 0.0183937)
(0.000129264 -0.000196457 0.0183611)
(0.000161956 -0.000252508 0.0181914)
(6.66003e-05 -0.000312589 0.0180221)
(-0.000106918 -0.000402749 0.0180038)
(-0.000250754 -0.000505469 0.0181024)
(-0.000347413 -0.000556438 0.0182353)
(-0.000422371 -0.000566728 0.0183998)
(-0.000432135 -0.000503065 0.0186147)
(6.94685e-05 -0.000149667 0.0183667)
(8.53602e-05 -0.000234197 0.0182554)
(-1.47417e-05 -0.000293981 0.018132)
(-0.000199692 -0.000340719 0.0181671)
(-0.000323463 -0.000415587 0.0183356)
(-0.000372215 -0.000442122 0.0184997)
(-0.000388636 -0.000445061 0.0186692)
(-0.000352474 -0.000420236 0.0188185)
(0.000114902 0.000252089 0.0184443)
(0.000168877 0.000262124 0.0183672)
(0.000188511 0.000276135 0.0182628)
(0.00016647 0.000284566 0.018163)
(0.000116503 0.000292791 0.0180806)
(3.79747e-05 0.000265175 0.0180218)
(-6.01433e-05 0.000225726 0.0180227)
(-0.000129779 0.000134705 0.0181006)
(0.000113857 0.000211894 0.0182858)
(0.00017303 0.000218224 0.018213)
(0.000193137 0.000221183 0.0180991)
(0.000166774 0.000217135 0.0179891)
(9.60281e-05 0.000204023 0.01789)
(-6.22452e-06 0.000158558 0.0178509)
(-0.000129983 0.00011358 0.0178693)
(-0.000214693 3.14829e-05 0.0180143)
(0.000124867 0.000114252 0.0181996)
(0.000173107 0.000112662 0.0181203)
(0.000183645 0.000100139 0.0180054)
(0.000146977 7.90431e-05 0.0178933)
(5.61332e-05 4.47062e-05 0.0177979)
(-5.36555e-05 -1.13026e-05 0.0177945)
(-0.00018468 -5.60832e-05 0.0178138)
(-0.000280436 -0.000109007 0.0179984)
(0.000118798 1.54573e-05 0.0181717)
(0.000156489 3.3981e-06 0.0180968)
(0.000156472 -2.51354e-05 0.0179911)
(0.000108644 -6.68302e-05 0.0178868)
(3.73298e-06 -0.000122155 0.0178079)
(-0.00010793 -0.000174121 0.0178394)
(-0.000226306 -0.000221878 0.0178822)
(-0.000306975 -0.00024289 0.0180742)
(0.000113509 -6.09738e-05 0.0181915)
(0.000131016 -7.88514e-05 0.0181169)
(0.000110884 -0.00011511 0.0180292)
(4.70188e-05 -0.000170796 0.017956)
(-5.35074e-05 -0.000237852 0.0179227)
(-0.00015562 -0.00028298 0.0179643)
(-0.000254673 -0.000324743 0.0180411)
(-0.000307948 -0.0003238 0.0182154)
(9.54025e-05 -0.000111835 0.0182308)
(0.000101532 -0.000137647 0.0181547)