/*--------------------------------*- C++ -*----------------------------------*\
| =========                 |                                                 |
| \\      /  F ield         | OpenFOAM: The Open Source CFD Toolbox           |
|  \\    /   O peration     | Version:  2506                                  |
|   \\  /    A nd           | Website:  www.openfoam.com                      |
|    \\/     M anipulation  |                                                 |
\*---------------------------------------------------------------------------*/
FoamFile
{
    version     2.0;
    format      ascii;
    arch        "LSB;label=32;scalar=64";
    class       volVectorField;
    location    "0.09";
    object      Us;
}
// * * * * * * * * * * * * * * * * * * * * * * * * * * * * * * * * * * * * * //

dimensions      [0 1 -1 0 0 0 0];

internalField   nonuniform List<vector> 
4608
(
(-5.70703e-05 -3.19726e-05 -2.21681e-05)
(0.0003777 0.000385438 6.12062e-05)
(0.00025523 0.000147549 -5.53774e-05)
(-8.32064e-05 -4.23364e-05 -4.03937e-05)
(-0.000192864 -9.59426e-05 0.000118778)
(-8.03345e-06 0.000122706 0.000216825)
(-2.31689e-05 -0.000141147 0.000323077)
(8.24198e-05 0.000106414 7.30625e-05)
(-0.000153432 -5.84323e-05 -4.64589e-05)
(-0.000421467 0.000159366 0.000712928)
(-0.000113559 5.63989e-05 3.45855e-05)
(-8.41553e-05 4.11329e-05 1.22336e-05)
(0.000312228 -0.000312353 -0.000421362)
(-5.61948e-05 -2.31056e-05 -0.000127328)
(6.55782e-05 -0.000474327 -0.000324125)
(0.000147044 6.28416e-05 -0.00140453)
(0.000128954 0.000268844 0.000379776)
(6.41822e-05 2.07437e-05 0.000108592)
(0.000131685 4.74289e-05 -2.63385e-05)
(0.000140321 7.79437e-06 0.000186701)
(2.33237e-05 7.97914e-05 -7.52578e-05)
(0.000560771 -5.57517e-05 -0.000275593)
(0.000614042 0.0010076 -0.000437258)
(-0.000298715 0.00150515 -0.000401986)
(6.44179e-05 -4.63804e-05 7.25228e-05)
(-0.000133811 -0.000115444 -2.71671e-05)
(4.56017e-05 -7.19686e-05 0.000278719)
(2.32658e-05 -4.03107e-05 -9.57479e-06)
(-0.000135615 -3.67015e-05 9.43788e-06)
(0.000221866 0.000434441 -0.000526056)
(0.000955714 0.00120522 -0.000308424)
(0.00123325 0.000555806 1.44862e-05)
(-0.000153588 -1.507e-05 -4.97453e-05)
(0.000840018 -0.0011546 -0.000120705)
(0.000393402 -4.11988e-05 0.000307517)
(-2.5235e-05 1.59802e-05 -0.000239421)
(-5.65425e-05 0.00026342 -1.33182e-05)
(-0.000248248 0.000359114 5.76565e-05)
(-0.000770961 0.00130172 -7.54581e-06)
(-0.00116598 -0.00029555 -0.000306191)
(0.000251114 0.000242452 0.000115127)
(0.000861498 0.00035327 -0.000283291)
(5.59151e-06 -0.000249992 -9.87359e-05)
(-0.000268195 0.00108393 -0.0013045)
(0.000159088 0.000406842 0.000191269)
(-0.000263256 0.000323503 -7.11784e-05)
(-0.000116167 3.43061e-05 5.33969e-05)
(3.8965e-05 -0.000168055 0.000103874)
(-0.000143357 0.000465191 -0.000324061)
(-0.000159611 0.000645229 -0.000719631)
(0.00022989 -0.000462004 0.000241456)
(0.000162027 7.20869e-05 -0.000617404)
(0.000366788 3.91872e-05 0.000282476)
(0.000787959 3.15383e-06 0.000281035)
(0.000533055 -0.000147962 0.000235543)
(0.000123761 -0.000309904 0.000451698)
(-0.000309464 -0.000167673 1.1612e-06)
(0.000317124 -0.000108427 -0.00032628)
(0.000800036 -0.00030961 -1.57516e-05)
(0.000715862 -0.000106619 -1.40721e-05)
(0.000594821 -0.000444017 -1.94134e-05)
(-0.000357426 -0.000392342 -4.80558e-06)
(-4.74671e-05 -0.000347582 4.98251e-05)
(-0.000263598 -0.00128038 2.22144e-05)
(0.000309674 -0.00157007 0.0123482)
(0.000978521 -0.00130491 0.0133293)
(0.00027598 -8.76485e-05 0.0123505)
(-0.00203409 -0.000123042 0.0133834)
(-0.000112841 0.000271743 0.00889366)
(0.00238611 0.000228241 0.0133389)
(0.00151777 -0.000364618 0.0111822)
(0.000419871 0.000359231 0.0110833)
(-0.00085088 -0.00112918 0.0135513)
(-0.000805276 0.000853571 0.0134726)
(0.000208958 0.000789814 0.0126037)
(0.000315526 0.00126626 0.013332)
(0.00135679 0.000944829 0.0115598)
(0.00118189 0.00159733 0.0136887)
(0.00100492 0.000668931 0.0137108)
(0.00119638 0.000244452 0.0132558)
(-0.00085641 -0.000762862 0.0146277)
(-0.000225044 -0.000452975 0.0141442)
(0.000762955 4.73255e-05 0.0124547)
(0.000302567 -9.4696e-05 0.0117567)
(0.000247723 0.000899838 0.0135921)
(0.00203265 0.00112728 0.0132608)
(0.00159763 9.48266e-05 0.0138078)
(0.00143304 0.000295896 0.013705)
(-0.00101412 -0.000106852 0.0139027)
(-3.95659e-05 -0.000242422 0.013457)
(0.00219969 0.000551814 0.012123)
(0.000823733 1.62415e-05 0.0135129)
(0.00116745 0.000936715 0.014009)
(0.00316121 0.000988439 0.0128972)
(0.0021145 -0.000268564 0.0142311)
(0.000306436 0.00106644 0.0147156)
(0.00124232 0.00150835 0.0136696)
(0.00149296 0.0014665 0.0122935)
(0.00096275 0.000513864 0.0135134)
(0.000432783 -0.000964286 0.0138855)
(0.000444431 -0.000352365 0.0133326)
(0.00137093 0.00016156 0.0133213)
(0.0033705 -0.000916291 0.0112369)
(0.00187406 -0.000832416 0.0118725)
(0.000490808 0.00132283 0.0133698)
(0.000705244 0.000389719 0.0133581)
(-0.00013964 -0.000787895 0.0145273)
(2.20254e-05 -0.000482968 0.0139316)
(0.00162504 -0.000508687 0.0125103)
(0.00294424 -0.000465505 0.0139152)
(0.00161838 -0.000496585 0.0136261)
(0.000747401 -0.000666252 0.0141714)
(-2.93181e-05 0.00140936 0.0113328)
(0.000845585 -0.000769451 0.0131691)
(-0.000208101 -0.000181177 0.0141059)
(-0.000402654 0.000492404 0.0139736)
(0.000850446 0.00118564 0.0115532)
(0.00203353 -0.000260029 0.0125523)
(0.00188913 -0.000145606 0.0146026)
(0.00100534 0.00157479 0.0135586)
(0.00104185 2.15666e-05 0.0116237)
(0.00145572 0.000683109 0.0124655)
(0.00033474 0.000223009 0.0128247)
(0.000114369 0.00136956 0.0118402)
(0.00213164 0.000882547 0.0130331)
(0.000959163 -0.000107634 0.0116211)
(0.000393964 0.000679858 0.0131132)
(0.00116058 0.0020642 0.0120558)
(0.00112528 0.000502658 0.0131756)
(0.000314766 0.000374266 0.0145057)
(0.000879834 0.00179086 0.014298)
(0.000764308 0.00183248 0.0139405)
(0.000642517 0.00177708 0.0133233)
(0.00046406 0.00154748 0.0135893)
(0.000748445 0.000790253 0.0143988)
(-3.51936e-05 0.00127785 0.0146797)
(0.000448911 0.000195261 0.013742)
(-0.000286861 -0.000550063 0.0155306)
(0.000889797 0.00118272 0.0151293)
(0.00100304 0.00157088 0.0148516)
(0.000962099 0.00163593 0.0152354)
(0.000929358 0.00155747 0.0143499)
(0.00113324 -7.85089e-05 0.0145697)
(0.00116482 0.000972015 0.0145815)
(0.00121101 -0.000163421 0.0139339)
(0.00132025 0.000384691 0.0143514)
(0.000825887 0.000387792 0.0146174)
(0.00100566 0.000571342 0.0151266)
(0.000702936 0.000989255 0.0147614)
(0.0011922 0.000960502 0.0151522)
(0.000971911 0.000310803 0.0151882)
(0.00135924 0.000596802 0.0150468)
(0.000948996 0.00048454 0.0137327)
(0.000813083 9.52139e-06 0.0143067)
(0.000563519 0.000153551 0.0143505)
(0.000517881 0.000392621 0.0152843)
(0.000588661 0.000483215 0.014511)
(0.000876284 4.42742e-05 0.0145917)
(-0.000520556 0.000777304 0.0159668)
(-7.53573e-05 0.00120153 0.0156052)
(0.000918934 0.000778701 0.0127886)
(0.000782595 -0.000864764 0.0143469)
(-0.000384446 -0.000248947 0.0154751)
(-0.00013412 -6.69567e-06 0.0149896)
(0.000125406 -0.000801259 0.0152628)
(0.000445758 -0.000743273 0.0155714)
(0.00149731 -0.000407822 0.0156339)
(0.000596876 2.82912e-05 0.0153842)
(0.00043086 0.000448413 0.0139704)
(0.000858943 -0.000427009 0.013828)
(0.00119605 -0.000408587 0.014792)
(0.00124031 -5.12951e-05 0.0146837)
(0.000225928 -0.000726151 0.0155549)
(0.000431007 -0.00035517 0.0146481)
(0.000360795 -0.000155605 0.0146059)
(-3.87034e-05 -6.51841e-05 0.014767)
(0.00100467 -0.001415 0.0134919)
(0.00188851 -0.000554662 0.0142092)
(0.0013319 -0.000305583 0.0135493)
(0.00115666 -0.000146571 0.0135732)
(0.000465881 -0.000441444 0.0148579)
(0.000730774 -6.72907e-05 0.013987)
(0.0004749 0.000629328 0.0143948)
(-0.000164304 0.000207998 0.0140405)
(0.00134917 -0.00139803 0.0129652)
(0.00165656 -0.000955663 0.0133002)
(0.00109673 -0.0003944 0.0136326)
(0.000879127 -0.0005126 0.013283)
(0.000333412 0.000734148 0.0146041)
(0.000777679 -0.000215942 0.0139824)
(0.00109387 0.000600808 0.0145512)
(0.000744033 0.000221388 0.0141815)
(-0.000841653 0.000914407 0.0141664)
(0.000242653 0.000429765 0.0146892)
(0.000951961 0.000593414 0.0146991)
(0.000965099 0.00125078 0.0144895)
(0.00078942 0.00138489 0.014322)
(0.000271129 0.000967506 0.0138707)
(0.00077399 0.000925882 0.0144919)
(0.000194737 0.00185729 0.0146176)
(0.00110443 0.00128318 0.0140561)
(0.000930817 0.000452087 0.0148332)
(0.00103796 0.000620193 0.0146031)
(0.000953031 0.000852313 0.0147691)
(0.000786679 0.00101154 0.0150839)
(0.00032492 0.000684317 0.0147809)
(0.000214829 0.000720338 0.0148392)
(-0.000238872 0.000964022 0.0153284)
(0.00128953 0.000823788 0.0146747)
(0.00120474 0.000602568 0.0145116)
(0.000940507 0.000330044 0.0147784)
(0.000796042 0.000406583 0.0153348)
(0.000864286 0.000663869 0.0155169)
(0.00069479 0.000724271 0.0157622)
(0.000232452 0.000723504 0.0153521)
(0.0002044 0.000756094 0.0153283)
(0.00180272 0.000197427 0.0142723)
(0.00150066 0.000273204 0.0150202)
(0.00106963 0.000388494 0.0152988)
(0.000543253 -1.13814e-05 0.0156574)
(0.000399718 0.000253079 0.0156443)
(0.000102459 0.000321193 0.0162342)
(-0.000302266 -0.00018242 0.0157929)
(-0.000119279 0.000519372 0.0165886)
(0.00153385 0.000179377 0.0141858)
(0.00121712 0.00021329 0.0151667)
(0.00100053 0.000144585 0.0151431)
(0.000626209 -0.000157507 0.0151538)
(0.000226033 -0.000146996 0.0155633)
(0.000165166 -7.01317e-06 0.0157914)
(-0.000341351 -0.000140826 0.0155488)
(-0.000849615 0.000383016 0.0148386)
(0.00144812 -0.000344275 0.0142272)
(0.00128328 2.40173e-05 0.0146089)
(0.00101613 0.000196125 0.0148252)
(0.000849956 -0.00029386 0.015352)
(0.000266631 -1.33518e-06 0.0154948)
(0.000254764 -8.03707e-05 0.0155121)
(-0.000530701 0.000429564 0.0154776)
(-0.00069813 0.000499316 0.0159076)
(0.00064814 -0.000568794 0.0142387)
(0.00105879 -0.000189583 0.0143698)
(0.00109141 7.83712e-06 0.0143649)
(0.00104663 -0.000169066 0.0147926)
(0.000697662 -0.000376138 0.01494)
(0.000362088 -0.000509904 0.0149183)
(3.31635e-05 0.000134908 0.0155082)
(0.000139686 -8.51397e-05 0.0148184)
(0.00125844 -0.000718807 0.0139312)
(0.000987217 -0.000843376 0.0140668)
(0.000955907 -0.000210702 0.0143124)
(0.00107469 -0.000604326 0.0144529)
(0.00068343 -0.000907022 0.0146019)
(6.89365e-05 -0.00084955 0.0143632)
(6.03972e-05 -0.00029099 0.015071)
(3.78599e-05 -0.000511727 0.0149182)
(0.000797786 0.000219312 0.0139145)
(2.8753e-05 -0.000504406 0.0142325)
(0.000493615 0.000295804 0.014778)
(0.000598686 0.000622473 0.0147674)
(0.000360986 0.00045476 0.0149728)
(0.000273409 0.000541926 0.0146531)
(0.000214049 0.000800867 0.0147687)
(0.000252432 0.00109159 0.0148102)
(0.00068087 0.000557776 0.0141479)
(0.000682573 0.0003266 0.0145033)
(0.000580146 0.000278757 0.0149631)
(0.000519632 0.000497723 0.0152264)
(0.000172696 0.000428647 0.0153733)
(2.42369e-05 0.000117426 0.015674)
(0.000212548 0.000672646 0.015069)
(-0.000158185 0.000715779 0.0148338)
(0.000731156 0.000496143 0.0144653)
(0.00076561 0.000443535 0.0148203)
(0.000634437 0.000321549 0.0153537)
(0.000582207 0.000228844 0.0155337)
(0.000417757 0.000202627 0.0157186)
(0.000185161 -1.993e-05 0.0159946)
(-0.000360091 0.000288619 0.0154034)
(-0.000865084 0.000235088 0.0159843)
(0.000896732 0.000366119 0.014794)
(0.00109577 0.000187564 0.015363)
(0.000595234 0.000396136 0.0153106)
(2.25891e-05 6.9258e-05 0.0159167)
(0.000297177 0.000139141 0.0156953)
(0.000165696 0.000366517 0.0162118)
(-0.000103793 8.49757e-05 0.015901)
(-0.000346202 0.000472605 0.0166343)
(0.00102111 -6.84696e-06 0.0146227)
(0.000693955 -0.000208433 0.0153369)
(0.000646391 0.000212243 0.0153933)
(0.000257941 -0.000107469 0.0156329)
(0.00010193 -2.50548e-05 0.0156491)
(7.66549e-05 0.000146725 0.0160118)
(1.94909e-05 0.000137677 0.0161546)
(-0.000280559 0.000144927 0.0160243)
(0.00114396 -0.00054399 0.0148799)
(0.00103213 -0.00046878 0.0152826)
(0.000555792 0.000163613 0.0152293)
(0.000639997 0.000104576 0.0157689)
(0.000204047 0.000114483 0.0155381)
(2.85063e-05 0.000242244 0.0159927)
(-0.000163324 -0.000237672 0.0161608)
(-0.000451011 -0.000116624 0.0165617)
(0.00133331 -0.000752794 0.0145064)
(0.00097789 -0.000470009 0.0148822)
(0.000775661 -0.000133911 0.0149746)
(0.000429628 -0.000184205 0.015116)
(0.00046396 2.51486e-05 0.015483)
(5.76798e-05 0.000412186 0.0159093)
(-0.000194854 -0.000491036 0.0162635)
(-0.000207164 -0.000238281 0.0166251)
(0.001537 -0.000933754 0.013996)
(0.0011305 -0.000579984 0.0144654)
(0.000928165 -0.000232673 0.0146968)
(0.000242234 -0.000865574 0.0150852)
(3.10715e-05 -0.000332988 0.0150425)
(-0.00013986 -0.000416509 0.0153704)
(-0.000141857 -0.000797687 0.0162652)
(0.000219333 -7.85394e-05 0.0158795)
(0.000208218 -0.000147482 0.014107)
(0.000240633 0.000433088 0.014401)
(2.53612e-05 -5.90665e-05 0.0146922)
(-0.000248654 -0.000492315 0.0151529)
(0.000257382 -0.000635823 0.014742)
(-0.000519328 -0.000742173 0.0147722)
(0.000182314 2.51551e-06 0.0148384)
(-0.000448921 0.00050525 0.0146878)
(0.00046503 -0.000230309 0.0138868)
(0.000223608 -0.000270444 0.014467)
(0.000182787 9.0804e-06 0.0150818)
(6.86522e-05 3.46264e-05 0.0152371)
(-0.000154654 -0.000104 0.015461)
(-0.000229472 -0.000105426 0.0152025)
(-0.000406471 -0.000400778 0.0146148)
(-0.00030139 0.000373254 0.0148453)
(0.000423088 9.76545e-05 0.0145086)
(5.58067e-05 4.88974e-05 0.0146268)
(7.26502e-05 -6.31271e-06 0.0152768)
(-2.01312e-05 0.000251474 0.0156273)
(-0.000301765 0.000311153 0.0154323)
(-0.00047094 -0.000190309 0.0159628)
(-0.000704329 -0.00014927 0.0158897)
(-0.000813225 -4.86535e-05 0.0159149)
(0.000522194 0.000203372 0.0147317)
(0.000317115 9.06703e-05 0.0152719)
(0.000156553 0.000161209 0.0155133)
(7.02607e-05 2.06016e-05 0.0157085)
(-2.51204e-05 0.000106836 0.0157911)
(-3.56447e-05 -1.92073e-05 0.0159986)
(-0.000310623 -4.46101e-05 0.0161496)
(-0.000173878 0.000145404 0.0165012)
(0.00089822 -0.00010658 0.0148912)
(0.00055764 -0.000108394 0.0156456)
(0.000363412 0.000267515 0.015585)
(-9.17319e-06 0.000213715 0.015655)
(-1.8188e-05 0.000263499 0.0156959)
(-0.000186789 3.23467e-05 0.0162927)
(-7.54939e-05 0.000102927 0.016534)
(-8.75316e-05 0.000509732 0.0163536)
(0.0008568 -0.000362465 0.0152553)
(0.000383673 -0.000142858 0.0154223)
(-7.47491e-06 0.000255667 0.0150603)
(0.000112233 0.000224876 0.0156242)
(-0.000100734 0.000129738 0.0155311)
(0.000167477 -6.03114e-05 0.0158315)
(-8.08341e-05 -0.000140572 0.0161386)
(-0.000180539 0.000297341 0.0165019)
(0.000720839 -0.000125901 0.0146977)
(0.000241007 -3.48389e-05 0.0151383)
(6.65302e-05 -7.91646e-05 0.0153557)
(2.83918e-05 1.00137e-06 0.0156885)
(-0.000206668 -0.000129592 0.0155423)
(-0.000240372 0.000309823 0.0158169)
(0.000360039 7.78186e-08 0.0163215)
(-8.70305e-05 7.55921e-05 0.0160999)
(0.000175813 8.88977e-06 0.0135709)
(5.28913e-05 3.81889e-05 0.0143414)
(0.000193556 -0.000586516 0.0148108)
(-0.000591609 -0.000132106 0.0150819)
(-0.000776817 -0.000402847 0.0152201)
(-0.000665082 -0.000339701 0.0158162)
(-0.000986818 -0.000325196 0.0165709)
(6.37297e-05 0.000378647 0.0162103)
(-0.000856997 -0.000598235 0.0138173)
(8.16409e-05 -0.000141645 0.0144928)
(0.000302303 -0.000215227 0.0146368)
(0.000501474 -0.000680294 0.0143827)
(-0.000480879 -0.000540791 0.014743)
(-0.000247725 -0.00105539 0.0149364)
(-0.000154123 -0.000491033 0.0142829)
(-0.00351364 -0.00112081 0.010987)
(0.000169549 -0.000527386 0.0143073)
(-0.000201957 -0.000254619 0.0144585)
(-0.000231886 -4.83251e-05 0.0149224)
(-8.2472e-05 -0.000190523 0.0144437)
(-0.000532128 -0.000354007 0.0151642)
(-0.000549011 -0.00116833 0.0152646)
(-0.000337094 -0.00073459 0.0147974)
(-0.000203691 0.000368165 0.0149694)
(0.000182729 -0.000547672 0.0140855)
(7.36792e-06 -0.000638259 0.0146259)
(-0.000222513 -0.000132909 0.0151381)
(-0.00017076 0.000190738 0.0154946)
(-0.000307878 0.000145602 0.0154839)
(-0.000649993 -0.000472842 0.0157878)
(-0.000668701 -0.000696009 0.0155672)
(-0.000916978 0.000119197 0.015619)
(0.000552182 -2.1345e-05 0.0148963)
(-0.000122714 -0.000264748 0.0152885)
(-2.97272e-05 0.000185152 0.0154982)
(-0.000218192 0.000335266 0.0154905)
(-0.000410254 0.000266925 0.0157142)
(-0.000466639 -0.00026305 0.0160199)
(-0.000662462 -0.000242728 0.0160177)
(-0.00056325 0.00073037 0.0165976)
(0.000497453 0.000503621 0.0150588)
(0.000150573 0.000462886 0.01558)
(6.95451e-05 0.000347369 0.0154419)
(-0.000202746 0.000386305 0.0153608)
(-0.000383904 0.000269634 0.0156699)
(-0.000482483 -5.56086e-05 0.0158714)
(-0.000561258 4.76841e-05 0.0164296)
(-0.000385211 0.00108228 0.0155907)
(-0.000371817 0.00046483 0.0146255)
(0.000124804 0.000519298 0.0151311)
(3.8426e-05 0.000334901 0.0153848)
(-0.00026945 0.000640453 0.0154155)
(-0.000355361 0.000427755 0.0155198)
(-0.000120408 0.000178253 0.0154487)
(-0.00026112 0.000440859 0.0164221)
(-0.000674207 0.000606422 0.0168007)
(-0.000261927 0.000415535 0.0141885)
(-0.000230035 0.000641755 0.014799)
(-0.00058672 0.000643934 0.0156634)
(-0.000573958 0.00056758 0.0160041)
(-0.000363708 -0.000367445 0.0157124)
(-0.000298156 6.5319e-05 0.0157021)
(-6.98272e-06 0.0014014 0.0160583)
(0.000108363 -0.000328035 0.0156102)
(-0.000686918 0.000352771 0.0145967)
(-0.000220916 0.000876884 0.0144081)
(-0.000420598 -0.00011168 0.0150436)
(9.1786e-06 0.000490969 0.015079)
(-0.0010199 -0.000451939 0.0157891)
(-0.000796414 -4.72883e-05 0.015457)
(-8.25257e-05 -0.000380238 0.0167543)
(0.000655894 4.20172e-05 0.0159687)
(0 0 0)
(0 0 0)
(0 0 0)
(0 0 0)
(0 0 0)
(0 0 0)
(0 0 0)
(0 0 0)
(0 0 0)
(0 0 0)
(0 0 0)
(0 0 0)
(0 0 0)
(0 0 0)
(0.000575112 -0.0005768 0.0146498)
(0 0 0)
(0 0 0)
(0 0 0)
(0 0 0)
(0 0 0)
(0 0 0)
(0 0 0)
(-0.0018379 -0.00134856 0.0153529)
(0 0 0)
(0 0 0)
(0 0 0)
(0 0 0)
(0 0 0)
(0 0 0)
(0.000191525 -0.000198214 0.0163401)
(-0.00235656 -0.000834147 0.0161685)
(0 0 0)
(0 0 0)
(0 0 0)
(0 0 0)
(0 0 0)
(0 0 0)
(0 0 0)
(0 0 0)
(0 0 0)
(0 0 0)
(0 0 0)
(0 0 0)
(0 0 0)
(0 0 0)
(0 0 0)
(0 0 0)
(0 0 0)
(0 0 0)
(0 0 0)
(0 0 0)
(0 0 0)
(0 0 0)
(0 0 0)
(0 0 0)
(0 0 0)
(0 0 0)
(0 0 0)
(0 0 0)
(0 0 0)
(0 0 0)
(0 0 0)
(0 0 0)
(0 0 0)
(0 0 0)
(0 0 0)
(0 0 0)
(0 0 0)
(0 0 0)
(0 0 0)
(0 0 0)
(0 0 0)
(0 0 0)
(0 0 0)
(0 0 0)
(0 0 0)
(0 0 0)
(0 0 0)
(0 0 0)
(0 0 0)
(0 0 0)
(0 0 0)
(0 0 0)
(0 0 0)
(0 0 0)
(0 0 0)
(0 0 0)
(0 0 0)
(0 0 0)
(0 0 0)
(0 0 0)
(0 0 0)
(0 0 0)
(0 0 0)
(0 0 0)
(0 0 0)
(0 0 0)
(0 0 0)
(0 0 0)
(0 0 0)
(0 0 0)
(0 0 0)
(0 0 0)
(0 0 0)
(0 0 0)
(0 0 0)
(0 0 0)
(0 0 0)
(0 0 0)
(0 0 0)
(0 0 0)
(0 0 0)
(0 0 0)
(0 0 0)
(0 0 0)
(0 0 0)
(0 0 0)
(0 0 0)
(0 0 0)
(0 0 0)
(0 0 0)
(0 0 0)
(0 0 0)
(0 0 0)
(0 0 0)
(0 0 0)
(0 0 0)
(0 0 0)
(0 0 0)
(0 0 0)
(0 0 0)
(0 0 0)
(0 0 0)
(0 0 0)
(0 0 0)
(0 0 0)
(0 0 0)
(0 0 0)
(0 0 0)
(0 0 0)
(0 0 0)
(0 0 0)
(0 0 0)
(0 0 0)
(0 0 0)
(0 0 0)
(0 0 0)
(0 0 0)
(0 0 0)
(0 0 0)
(0 0 0)
(0 0 0)
(0 0 0)
(0 0 0)
(0 0 0)
(0 0 0)
(0 0 0)
(0 0 0)
(0 0 0)
(0 0 0)
(0 0 0)
(0 0 0)
(0 0 0)
(0 0 0)
(0 0 0)
(0 0 0)
(0 0 0)
(0 0 0)
(0 0 0)
(0 0 0)
(0 0 0)
(0 0 0)
(0 0 0)
(0 0 0)
(0 0 0)
(0 0 0)
(0 0 0)
(0 0 0)
(0 0 0)
(0 0 0)
(0 0 0)
(0 0 0)
(0 0 0)
(0 0 0)
(0 0 0)
(0 0 0)
(0 0 0)
(0 0 0)
(0 0 0)
(0 0 0)
(0 0 0)
(0 0 0)
(0 0 0)
(0 0 0)
(0 0 0)
(0 0 0)
(0 0 0)
(0 0 0)
(0 0 0)
(0 0 0)
(0 0 0)
(0 0 0)
(0 0 0)
(0 0 0)
(0 0 0)
(0 0 0)
(0 0 0)
(0 0 0)
(0 0 0)
(0 0 0)
(0 0 0)
(0 0 0)
(0 0 0)
(0 0 0)
(0 0 0)
(0 0 0)
(0 0 0)
(0 0 0)
(0 0 0)
(0 0 0)
(0 0 0)
(0 0 0)
(0 0 0)
(0 0 0)
(0 0 0)
(0 0 0)
(0 0 0)
(0 0 0)
(0 0 0)
(0 0 0)
(0 0 0)
(0 0 0)
(0 0 0)
(0 0 0)
(0 0 0)
(0 0 0)
(0 0 0)
(0 0 0)
(0 0 0)
(0 0 0)
(0 0 0)
(0 0 0)
(0 0 0)
(0 0 0)
(0 0 0)
(0 0 0)
(0 0 0)
(0 0 0)
(0 0 0)
(0 0 0)
(0 0 0)
(0 0 0)
(0 0 0)
(0 0 0)
(0 0 0)
(0 0 0)
(0 0 0)
(0 0 0)
(0 0 0)
(0 0 0)
(0 0 0)
(0 0 0)
(0 0 0)
(0 0 0)
(0 0 0)
(0 0 0)
(0 0 0)
(0 0 0)
(0 0 0)
(0 0 0)
(0 0 0)
(0 0 0)
(0 0 0)
(0 0 0)
(0 0 0)
(0 0 0)
(0 0 0)
(0 0 0)
(0 0 0)
(0 0 0)
(0 0 0)
(0 0 0)
(0 0 0)
(0 0 0)
(0 0 0)
(0 0 0)
(0 0 0)
(0 0 0)
(0 0 0)
(0 0 0)
(0 0 0)
(0 0 0)
(0 0 0)
(0 0 0)
(0 0 0)
(0 0 0)
(0 0 0)
(0 0 0)
(0 0 0)
(0 0 0)
(0 0 0)
(0 0 0)
(0 0 0)
(0 0 0)
(0 0 0)
(0 0 0)
(0 0 0)
(0 0 0)
(0 0 0)
(0 0 0)
(0 0 0)
(0 0 0)
(0 0 0)
(0 0 0)
(0 0 0)
(0 0 0)
(0 0 0)
(0 0 0)
(0 0 0)
(0 0 0)
(0 0 0)
(0 0 0)
(0 0 0)
(0 0 0)
(0 0 0)
(0 0 0)
(0 0 0)
(0 0 0)
(0 0 0)
(0 0 0)
(0 0 0)
(0 0 0)
(0 0 0)
(0 0 0)
(0 0 0)
(0 0 0)
(0 0 0)
(0 0 0)
(0 0 0)
(0 0 0)
(0 0 0)
(0 0 0)
(0 0 0)
(0 0 0)
(0 0 0)
(0 0 0)
(0 0 0)
(0 0 0)
(0 0 0)
(0 0 0)
(0 0 0)
(0 0 0)
(0 0 0)
(0 0 0)
(0 0 0)
(0 0 0)
(0 0 0)
(0 0 0)
(0 0 0)
(0 0 0)
(0 0 0)
(0 0 0)
(0 0 0)
(0 0 0)
(0 0 0)
(0 0 0)
(0 0 0)
(0 0 0)
(0 0 0)
(0 0 0)
(0 0 0)
(0 0 0)
(0 0 0)
(0 0 0)
(0 0 0)
(0 0 0)
(0 0 0)
(0 0 0)
(0 0 0)
(0 0 0)
(0 0 0)
(0 0 0)
(0 0 0)
(0 0 0)
(0 0 0)
(0 0 0)
(0 0 0)
(0 0 0)
(0 0 0)
(0 0 0)
(0 0 0)
(0 0 0)
(0 0 0)
(0 0 0)
(0 0 0)
(0 0 0)
(0 0 0)
(0 0 0)
(0 0 0)
(0 0 0)
(0 0 0)
(0 0 0)
(0 0 0)
(0 0 0)
(0 0 0)
(0 0 0)
(0 0 0)
(0 0 0)
(0 0 0)
(0 0 0)
(0 0 0)
(0 0 0)
(0 0 0)
(0 0 0)
(0 0 0)
(0 0 0)
(0 0 0)
(0 0 0)
(0 0 0)
(0 0 0)
(0 0 0)
(0 0 0)
(0 0 0)
(0 0 0)
(0 0 0)
(0 0 0)
(0 0 0)
(0 0 0)
(0 0 0)
(0 0 0)
(0 0 0)
(0 0 0)
(0 0 0)
(0 0 0)
(0 0 0)
(0 0 0)
(0 0 0)
(0 0 0)
(0 0 0)
(0 0 0)
(0 0 0)
(0 0 0)
(0 0 0)
(0 0 0)
(0 0 0)
(0 0 0)
(0 0 0)
(0 0 0)
(0 0 0)
(0 0 0)
(0 0 0)
(0 0 0)
(0 0 0)
(0 0 0)
(0 0 0)
(0 0 0)
(0 0 0)
(0 0 0)
(0 0 0)
(0 0 0)
(0 0 0)
(0 0 0)
(0 0 0)
(0 0 0)
(0 0 0)
(0 0 0)
(0 0 0)
(0 0 0)
(0 0 0)
(0 0 0)
(0 0 0)
(0 0 0)
(0 0 0)
(0 0 0)
(0 0 0)
(0 0 0)
(0 0 0)
(0 0 0)
(0 0 0)
(0 0 0)
(0 0 0)
(0 0 0)
(0 0 0)
(0 0 0)
(0 0 0)
(0 0 0)
(0 0 0)
(0 0 0)
(0 0 0)
(0 0 0)
(0 0 0)
(0 0 0)
(0 0 0)
(0 0 0)
(0 0 0)
(0 0 0)
(0 0 0)
(0 0 0)
(0 0 0)
(0 0 0)
(0 0 0)
(0 0 0)
(0 0 0)
(0 0 0)
(0 0 0)
(0 0 0)
(0 0 0)
(0 0 0)
(0 0 0)
(0 0 0)
(0 0 0)
(0 0 0)
(0 0 0)
(0 0 0)
(0 0 0)
(0 0 0)
(0 0 0)
(0 0 0)
(0 0 0)
(0 0 0)
(0 0 0)
(0 0 0)
(0 0 0)
(0 0 0)
(0 0 0)
(0 0 0)
(0 0 0)
(0 0 0)
(0 0 0)
(0 0 0)
(0 0 0)
(0 0 0)
(0 0 0)
(0 0 0)
(0 0 0)
(0 0 0)
(0 0 0)
(0 0 0)
(0 0 0)
(0 0 0)
(0 0 0)
(0 0 0)
(0 0 0)
(0 0 0)
(0 0 0)
(0 0 0)
(0 0 0)
(0 0 0)
(0 0 0)
(0 0 0)
(0 0 0)
(0 0 0)
(0 0 0)
(0 0 0)
(0 0 0)
(0 0 0)
(0 0 0)
(0 0 0)
(0 0 0)
(0 0 0)
(0 0 0)
(0 0 0)
(0 0 0)
(0 0 0)
(0 0 0)
(0 0 0)
(0 0 0)
(0 0 0)
(0 0 0)
(0 0 0)
(0 0 0)
(0 0 0)
(0 0 0)
(0 0 0)
(0 0 0)
(0 0 0)
(0 0 0)
(0 0 0)
(0 0 0)
(0 0 0)
(0 0 0)
(0 0 0)
(0 0 0)
(0 0 0)
(0 0 0)
(0 0 0)
(0 0 0)
(0 0 0)
(0 0 0)
(0 0 0)
(0 0 0)
(0 0 0)
(0 0 0)
(0 0 0)
(0 0 0)
(0 0 0)
(0 0 0)
(0 0 0)
(0 0 0)
(0 0 0)
(0 0 0)
(0 0 0)
(0 0 0)
(0 0 0)
(0 0 0)
(0 0 0)
(0 0 0)
(0 0 0)
(0 0 0)
(0 0 0)
(0 0 0)
(0 0 0)
(0 0 0)
(0 0 0)
(0 0 0)
(0 0 0)
(0 0 0)
(0 0 0)
(0 0 0)
(0 0 0)
(0 0 0)
(0 0 0)
(0 0 0)
(0 0 0)
(0 0 0)
(0 0 0)
(0 0 0)
(0 0 0)
(0 0 0)
(0 0 0)
(0 0 0)
(0 0 0)
(0 0 0)
(0 0 0)
(0 0 0)
(0 0 0)
(0 0 0)
(0 0 0)
(0 0 0)
(0 0 0)
(0 0 0)
(0 0 0)
(0 0 0)
(0 0 0)
(0 0 0)
(0 0 0)
(0 0 0)
(0 0 0)
(0 0 0)
(0 0 0)
(0 0 0)
(0 0 0)
(0 0 0)
(0 0 0)
(0 0 0)
(0 0 0)
(0 0 0)
(0 0 0)
(0 0 0)
(0 0 0)
(0 0 0)
(0 0 0)
(0 0 0)
(0 0 0)
(0 0 0)
(0 0 0)
(0 0 0)
(0 0 0)
(0 0 0)
(0 0 0)
(0 0 0)
(0 0 0)
(0 0 0)
(0 0 0)
(0 0 0)
(0 0 0)
(0 0 0)
(0 0 0)
(0 0 0)
(0 0 0)
(0 0 0)
(0 0 0)
(0 0 0)
(0 0 0)
(0 0 0)
(0 0 0)
(0 0 0)
(0 0 0)
(0 0 0)
(0 0 0)
(0 0 0)
(0 0 0)
(0 0 0)
(0 0 0)
(0 0 0)
(0 0 0)
(0 0 0)
(0 0 0)
(0 0 0)
(0 0 0)
(0 0 0)
(0 0 0)
(0 0 0)
(0 0 0)
(0 0 0)
(0 0 0)
(0 0 0)
(0 0 0)
(0 0 0)
(0 0 0)
(0 0 0)
(0 0 0)
(0 0 0)
(0 0 0)
(0 0 0)
(0 0 0)
(0 0 0)
(0 0 0)
(0 0 0)
(0 0 0)
(0 0 0)
(0 0 0)
(0 0 0)
(0 0 0)
(0 0 0)
(0 0 0)
(0 0 0)
(0 0 0)
(0 0 0)
(0 0 0)
(0 0 0)
(0 0 0)
(0 0 0)
(0 0 0)
(0 0 0)
(0 0 0)
(0 0 0)
(0 0 0)
(0 0 0)
(0 0 0)
(0 0 0)
(0 0 0)
(0 0 0)
(0 0 0)
(0 0 0)
(0 0 0)
(0 0 0)
(0 0 0)
(0 0 0)
(0 0 0)
(0 0 0)
(0 0 0)
(0 0 0)
(0 0 0)
(0 0 0)
(0 0 0)
(0 0 0)
(0 0 0)
(0 0 0)
(0 0 0)
(0 0 0)
(0 0 0)
(0 0 0)
(0 0 0)
(0 0 0)
(0 0 0)
(0 0 0)
(0 0 0)
(0 0 0)
(0 0 0)
(0 0 0)
(0 0 0)
(0 0 0)
(0 0 0)
(0 0 0)
(0 0 0)
(0 0 0)
(0 0 0)
(0 0 0)
(0 0 0)
(0 0 0)
(0 0 0)
(0 0 0)
(0 0 0)
(0 0 0)
(0 0 0)
(0 0 0)
(0 0 0)
(0 0 0)
(0 0 0)
(0 0 0)
(0 0 0)
(0 0 0)
(0 0 0)
(0 0 0)
(0 0 0)
(0 0 0)
(0 0 0)
(0 0 0)
(0 0 0)
(0 0 0)
(0 0 0)
(0 0 0)
(0 0 0)
(0 0 0)
(0 0 0)
(0 0 0)
(0 0 0)
(0 0 0)
(0 0 0)
(0 0 0)
(0 0 0)
(0 0 0)
(0 0 0)
(0 0 0)
(0 0 0)
(0 0 0)
(0 0 0)
(0 0 0)
(0 0 0)
(0 0 0)
(0 0 0)
(0 0 0)
(0 0 0)
(0 0 0)
(0 0 0)
(0 0 0)
(0 0 0)
(0 0 0)
(0 0 0)
(0 0 0)
(0 0 0)
(0 0 0)
(0 0 0)
(0 0 0)
(0 0 0)
(0 0 0)
(0 0 0)
(0 0 0)
(0 0 0)
(0 0 0)
(0 0 0)
(0 0 0)
(0 0 0)
(0 0 0)
(0 0 0)
(0 0 0)
(0 0 0)
(0 0 0)
(0 0 0)
(0 0 0)
(0 0 0)
(0 0 0)
(0 0 0)
(0 0 0)
(0 0 0)
(0 0 0)
(0 0 0)
(0 0 0)
(0 0 0)
(0 0 0)
(0 0 0)
(0 0 0)
(0 0 0)
(0 0 0)
(0 0 0)
(0 0 0)
(0 0 0)
(0 0 0)
(0 0 0)
(0 0 0)
(0 0 0)
(0 0 0)
(0 0 0)
(0 0 0)
(0 0 0)
(0 0 0)
(0 0 0)
(0 0 0)
(0 0 0)
(0 0 0)
(0 0 0)
(0 0 0)
(0 0 0)
(0 0 0)
(0 0 0)
(0 0 0)
(0 0 0)
(0 0 0)
(0 0 0)
(0 0 0)
(0 0 0)
(0 0 0)
(0 0 0)
(0 0 0)
(0 0 0)
(0 0 0)
(0 0 0)
(0 0 0)
(0 0 0)
(0 0 0)
(0 0 0)
(0 0 0)
(0 0 0)
(0 0 0)
(0 0 0)
(0 0 0)
(0 0 0)
(0 0 0)
(0 0 0)
(0 0 0)
(0 0 0)
(0 0 0)
(0 0 0)
(0 0 0)
(0 0 0)
(0 0 0)
(0 0 0)
(0 0 0)
(0 0 0)
(0 0 0)
(0 0 0)
(0 0 0)
(0 0 0)
(0 0 0)
(0 0 0)
(0 0 0)
(0 0 0)
(0 0 0)
(0 0 0)
(0 0 0)
(0 0 0)
(0 0 0)
(0 0 0)
(0 0 0)
(0 0 0)
(0 0 0)
(0 0 0)
(0 0 0)
(0 0 0)
(0 0 0)
(0 0 0)
(0 0 0)
(0 0 0)
(0 0 0)
(0 0 0)
(0 0 0)
(0 0 0)
(0 0 0)
(0 0 0)
(0 0 0)
(0 0 0)
(0 0 0)
(0 0 0)
(0 0 0)
(0 0 0)
(0 0 0)
(0 0 0)
(0 0 0)
(0 0 0)
(0 0 0)
(0 0 0)
(0 0 0)
(0 0 0)
(0 0 0)
(0 0 0)
(0 0 0)
(0 0 0)
(0 0 0)
(0 0 0)
(0 0 0)
(0 0 0)
(0 0 0)
(0 0 0)
(0 0 0)
(0 0 0)
(0 0 0)
(0 0 0)
(0 0 0)
(0 0 0)
(0 0 0)
(0 0 0)
(0 0 0)
(0 0 0)
(0 0 0)
(0 0 0)
(0 0 0)
(0 0 0)
(0 0 0)
(0 0 0)
(0 0 0)
(0 0 0)
(0 0 0)
(0 0 0)
(0 0 0)
(0 0 0)
(0 0 0)
(0 0 0)
(0 0 0)
(0 0 0)
(0 0 0)
(0 0 0)
(0 0 0)
(0 0 0)
(0 0 0)
(0 0 0)
(0 0 0)
(0 0 0)
(0 0 0)
(0 0 0)
(0 0 0)
(0 0 0)
(0 0 0)
(0 0 0)
(0 0 0)
(0 0 0)
(0 0 0)
(0 0 0)
(0 0 0)
(0 0 0)
(0 0 0)
(0 0 0)
(0 0 0)
(0 0 0)
(0 0 0)
(0 0 0)
(0 0 0)
(0 0 0)
(0 0 0)
(0 0 0)
(0 0 0)
(0 0 0)
(0 0 0)
(0 0 0)
(0 0 0)
(0 0 0)
(0 0 0)
(0 0 0)
(0 0 0)
(0 0 0)
(0 0 0)
(0 0 0)
(0 0 0)
(0 0 0)
(0 0 0)
(0 0 0)
(0 0 0)
(0 0 0)
(0 0 0)
(0 0 0)
(0 0 0)
(0 0 0)
(0 0 0)
(0 0 0)
(0 0 0)
(0 0 0)
(0 0 0)
(0 0 0)
(0 0 0)
(0 0 0)
(0 0 0)
(0 0 0)
(0 0 0)
(0 0 0)
(0 0 0)
(0 0 0)
(0 0 0)
(0 0 0)
(0 0 0)
(0 0 0)
(0 0 0)
(0 0 0)
(0 0 0)
(0 0 0)
(0 0 0)
(0 0 0)
(0 0 0)
(0 0 0)
(0 0 0)
(0 0 0)
(0 0 0)
(0 0 0)
(0 0 0)
(0 0 0)
(0 0 0)
(0 0 0)
(0 0 0)
(0 0 0)
(-0.000105608 -0.000146028 0.000302266)
(-0.000237619 0.000309083 -0.000189889)
(5.97571e-05 -0.000395895 -3.87247e-05)
(0.000755123 -0.000181751 -0.000282013)
(-0.00033641 -0.000279068 -0.000346666)
(-0.000151723 -0.000525587 2.48146e-05)
(0.000677306 -0.000234735 0.000536392)
(0.000793348 -5.95675e-05 -0.000244098)
(-0.000270414 -0.000117513 0.000224112)
(-0.000447963 3.80217e-05 -0.000296514)
(-0.000526997 -0.000588523 -2.90431e-05)
(-0.000360382 -0.000160017 -0.000261051)
(0.000461886 -0.000774942 -0.000706917)
(-0.000376262 -0.00034056 8.89126e-05)
(-5.00334e-05 -0.000266125 -0.00042593)
(0.000349722 0.000336464 0.000175607)
(-2.33191e-05 -0.00015535 0.000172141)
(-0.000358454 6.38183e-05 4.78243e-05)
(5.44189e-06 -0.000403763 -9.12857e-05)
(-0.000348345 -0.000412216 -4.94579e-05)
(-0.00042699 -0.000593592 1.39232e-05)
(-0.000311319 -0.000154709 7.74664e-06)
(-0.00084184 0.000224751 -0.000367263)
(-0.000106487 0.000282495 -0.000345867)
(3.32045e-06 -5.88634e-05 0.000229811)
(-6.42134e-05 -1.56787e-05 -4.20506e-05)
(0.00020536 -0.00012697 -0.000415976)
(0.000205253 1.67446e-05 -0.000179124)
(-4.7347e-05 -0.000388343 0.000255029)
(-0.000108302 -0.000106467 7.98435e-05)
(0.000326348 0.000184989 -0.00222663)
(0.000258833 -7.98516e-05 -9.11977e-05)
(0.000204783 -0.000193783 0.0106724)
(0.00109292 0.000567958 0.0133133)
(0.000170774 3.41087e-05 0.0122533)
(-0.000126108 0.00171917 0.0121338)
(0.000433765 -0.00020797 0.0133927)
(0.00176962 0.000707157 0.0127919)
(0.00163909 0.00107772 0.0124698)
(0.000744818 0.00226282 0.0103086)
(-3.83011e-05 -0.00017115 0.00991238)
(0.00147401 -5.99539e-05 0.0100139)
(0.00103643 -5.47009e-05 0.0122752)
(0.000291976 0.000462742 0.0112342)
(0.000993617 -0.000623556 0.0105152)
(0.000203778 0.00118592 0.0117749)
(-7.82633e-05 0.000713098 0.0111102)
(0.000981913 0.000672457 0.0109071)
(-0.000105473 0.000159265 0.00954151)
(0.00116944 0.000167603 0.010308)
(0.000891734 3.27757e-05 0.0117576)
(0.000429971 -0.000245205 0.0120268)
(0.000780123 -0.000176268 0.0115493)
(0.000422819 -0.000762936 0.0121161)
(0.000601287 -6.4211e-05 0.0104771)
(0.000406838 -0.000270484 0.0117986)
(-0.000625129 -0.000654619 0.00983601)
(0.00317531 0.00135205 0.0103763)
(0.0026171 0.000917192 0.0112933)
(0.000988281 -0.00011608 0.0111818)
(0.00177778 -0.000652478 0.0104273)
(0.00180206 -0.000762321 0.0104536)
(0.000758018 -0.000143186 0.0090017)
(0.000501238 -0.000709899 0.0092692)
(0.00281739 -0.00158904 0.0119873)
(0.00215293 -0.000861359 0.0125848)
(0.00153789 -3.52596e-05 0.0132377)
(0.000974909 -0.000155916 0.0140514)
(0.000928779 -0.00096991 0.0137447)
(0.000835189 -0.000356582 0.0134431)
(0.00100778 0.000109314 0.0135433)
(0.000349179 0.000421999 0.0126652)
(0.00316045 -0.00129553 0.0105752)
(0.00213656 7.25637e-05 0.0118454)
(0.000979093 0.00013282 0.0134856)
(0.000693628 -0.000140587 0.0133447)
(0.000865131 -0.00190098 0.0128567)
(0.000937105 -0.000807352 0.0132639)
(0.000461248 0.000254467 0.0132274)
(0.000563121 0.0001624 0.012869)
(0.00234199 -0.000783795 0.0114957)
(0.00149465 0.00105616 0.0116347)
(0.00145477 -0.000108234 0.0122571)
(0.00182121 -0.0011452 0.0128265)
(0.00151077 -0.000103323 0.0128411)
(0.00118534 0.000178645 0.0124863)
(-9.82669e-05 0.000254742 0.0129055)
(-0.000546895 0.000954507 0.0117058)
(0.00193847 0.000550822 0.0112019)
(0.000992555 0.000296333 0.00934366)
(0.00165935 -0.000229596 0.0126877)
(0.00302099 -0.000335458 0.0119974)
(0.00178229 0.000194073 0.0114382)
(0.00169509 -0.000387037 0.0115214)
(0.000190476 -0.000455124 0.0112341)
(-0.00167728 0.00113419 0.0108575)
(0.00310219 -0.000685087 0.0127631)
(0.00182443 -0.000565299 0.0124839)
(0.00122343 -0.000204545 0.0144836)
(0.00170596 -0.00126338 0.0148284)
(0.000741207 -0.000815632 0.0150508)
(0.00045934 -0.000958722 0.014523)
(0.00013343 1.93464e-05 0.0142604)
(-0.00132349 -0.000744599 0.0127171)
(0.00329002 -0.0016245 0.0106287)
(0.00172326 -0.000211592 0.0123318)