FoamFile
{version 2.0; format ascii;class Cloud<passiveParticle>; location 0;object  positions;}
2510
(
( 0.00589044 2.57336e-06 0.000497327 ) 0 
( 0.00232202 0.000202492 0.000499228 ) 0 
( 0.00114022 0.00012005 0.00702497 ) 0 
( 0.00902582 2.06923e-05 0.00565317 ) 0 
( 0.00927348 0.000140583 0.00469266 ) 0 
( 0.0124782 5.05961e-05 0.000498731 ) 0 
( 0.000890338 0.000654874 0.00150564 ) 0 
( 0.00682672 0.000180845 0.00180862 ) 0 
( 0.00998246 0.000162807 0.00539945 ) 0 
( 0.00919184 0.000312801 0.0105178 ) 0 
( 0.0123901 0.000211469 0.0142949 ) 0 
( 0.00115527 0.000107 0.01383 ) 0 
( 0.00255227 0.000498183 0.0146518 ) 0 
( 0.00573661 0.00136598 0.0147078 ) 0 
( 0.00664482 0.00103229 0.0144564 ) 0 
( 0.00892703 0.000260365 0.0133614 ) 0 
( 0.0094629 0.000503413 0.0145887 ) 0 
( 0.0113686 8.44079e-05 0.0130038 ) 0 
( 0.0133362 0.000609817 0.00796723 ) 0 
( 0.00462297 0.000713831 0.0147993 ) 0 
( 0.00940729 0.00186276 0.0146016 ) 0 
( 0.0100238 0.000403064 0.0110644 ) 0 
( 0.00790203 5.69729e-05 0.00911458 ) 0 
( 0.00742718 0.0060384 0.0154999 ) 0 
( 0.00374003 0.00811573 0.0155096 ) 0 
( 0.00829339 0.000305017 0.0148933 ) 0 
( 0.00202933 0.000785928 0.0129461 ) 0 
( 0.00214445 0.000240808 0.0137762 ) 0 
( 0.011933 0.00106224 0.0140365 ) 0 
( 0.0114857 0.000274122 0.0147168 ) 0 
( 0.0104888 4.27626e-05 0.0144821 ) 0 
( 0.00236659 0.000172126 0.00901446 ) 0 
( 0.00347063 0.00374491 0.00260565 ) 0 
( 0.00174154 0.005437 0.0078916 ) 0 
( 0.000225899 0.0127731 0.00564519 ) 0 
( 0.00708007 0.00504223 0.00214241 ) 0 
( 0.00678784 0.00474192 0.00526887 ) 0 
( 0.0089675 0.00551743 0.00668663 ) 0 
( 0.000329638 0.0133124 0.0035234 ) 0 
( 0.00616881 0.00339984 0.00425217 ) 0 
( 0.00548595 0.0121504 0.00461211 ) 0 
( 0.0103032 0.00530612 0.00558158 ) 0 
( 0.000906513 0.00735083 0.00446554 ) 0 
( 0.00713131 0.0103256 0.000499561 ) 0 
( 0.00635488 0.00976966 0.00162915 ) 0 
( 0.00223356 0.0122943 0.00395546 ) 0 
( 0.001886 0.00315229 0.000498655 ) 0 
( 0.00442085 0.00759948 0.00190152 ) 0 
( 0.0107325 0.00371347 0.00377089 ) 0 
( 0.0112984 0.00536491 0.00562736 ) 0 
( 0.00473052 0.00334924 0.00405459 ) 0 
( 0.00825435 0.00272609 0.00672153 ) 0 
( 0.00873971 0.00267834 0.00480301 ) 0 
( 0.00261867 0.0100655 0.00622981 ) 0 
( 0.00724429 0.00683522 0.00118663 ) 0 
( 0.00670597 0.00468892 0.00407102 ) 0 
( 0.00550893 0.00765944 0.00319758 ) 0 
( 0.0037357 0.0128169 0.00568361 ) 0 
( 0.00251629 0.0079642 0.00304897 ) 0 
( 0.0116735 0.00436826 0.000497593 ) 0 
( 0.00112721 0.00226423 0.00322455 ) 0 
( 0.00529144 0.00687524 0.00451878 ) 0 
( 0.0109983 0.00372542 0.000858461 ) 0 
( 0.00933467 0.00222542 0.00414108 ) 0 
( 0.00275388 0.00148429 0.00622278 ) 0 
( 0.00684067 0.000174631 0.00831027 ) 0 
( 0.00090186 0.0060911 0.00468888 ) 0 
( 0.00184647 0.00812947 0.00778331 ) 0 
( 0.00154778 0.00797116 0.00280342 ) 0 
( 0.0090541 0.00979355 0.00418798 ) 0 
( 0.0128479 0.00362902 0.00653567 ) 0 
( 0.00256298 0.00710064 0.00131958 ) 0 
( 0.00993405 0.00322559 0.00541488 ) 0 
( 0.00277911 0.000672939 0.00126192 ) 0 
( 0.00719157 0.00571038 0.00568648 ) 0 
( 0.00579396 0.0046932 0.00566066 ) 0 
( 0.000752835 0.000337221 0.00244365 ) 0 
( 0.00121289 0.00588627 0.00561591 ) 0 
( 0.0087433 0.00128865 0.00683918 ) 0 
( 0.00139142 0.0118905 0.00431199 ) 0 
( 0.00295473 0.00800568 0.00394667 ) 0 
( 0.00746338 0.00212568 0.00544441 ) 0 
( 0.00900897 0.00985328 0.00766618 ) 0 
( 0.0121264 0.00412455 0.00220909 ) 0 
( 0.00570706 0.00823931 0.00644737 ) 0 
( 0.00292693 0.00707205 0.0028627 ) 0 
( 0.0080672 0.00056975 0.00716719 ) 0 
( 0.0100111 0.00527369 0.00311672 ) 0 
( 0.000352892 0.00376104 0.00617378 ) 0 
( 0.00274261 0.00101213 0.00534154 ) 0 
( 0.00396666 0.0101177 0.00316999 ) 0 
( 0.0035714 0.00215688 0.00194297 ) 0 
( 0.00580626 0.00507521 0.0035876 ) 0 
( 0.00827248 0.00136901 0.00773001 ) 0 
( 0.00313397 0.0124196 0.00499132 ) 0 
( 0.00133975 0.00885714 0.00321761 ) 0 
( 0.000928229 0.0123483 0.00507062 ) 0 
( 0.0058373 0.0041237 0.00307434 ) 0 
( 0.0077477 0.00290362 0.00488471 ) 0 
( 0.00188714 0.00999028 0.000499466 ) 0 
( 0.00907019 0.00849509 0.00401423 ) 0 
( 0.00491408 0.0049638 0.00799425 ) 0 
( 0.00935931 6.25745e-05 0.00232455 ) 0 
( 0.00477107 0.00724477 0.00698057 ) 0 
( 0.00223665 0.00522982 0.00704847 ) 0 
( 0.0102113 0.0085187 0.00373495 ) 0 
( 0.00473537 0.00120938 0.00588096 ) 0 
( 0.00693959 0.00362755 0.00743022 ) 0 
( 0.00695371 0.00669475 0.00414886 ) 0 
( 0.000772619 0.00775186 0.00641188 ) 0 
( 0.00641454 0.00641499 0.00207268 ) 0 
( 0.000659804 0.00287894 0.00259068 ) 0 
( 0.0118745 0.00610511 0.00596946 ) 0 
( 0.000936239 0.00127731 0.00470014 ) 0 
( 0.00709439 0.0102243 0.00709381 ) 0 
( 0.00106027 0.00295139 0.00167893 ) 0 
( 0.00798466 0.0106995 0.00205101 ) 0 
( 0.00457157 0.00343411 0.0059092 ) 0 
( 0.00364961 0.0114103 0.00704272 ) 0 
( 0.011104 0.00130935 0.00432652 ) 0 
( 0.000762081 0.0133286 0.00049913 ) 0 
( 0.00219156 0.000661041 0.00609826 ) 0 
( 0.000509272 0.00912779 0.00273106 ) 0 
( 0.0067341 0.000701556 0.000499178 ) 0 
( 0.00499122 0.00197413 0.00647038 ) 0 
( 0.00336909 0.00512576 0.00128994 ) 0 
( 0.000910992 0.00457763 0.0060387 ) 0 
( 0.000910279 0.00339248 0.000498396 ) 0 
( 0.0114664 0.0029119 0.000499257 ) 0 
( 0.00472757 0.0115124 0.00593627 ) 0 
( 0.00320153 0.00567576 0.00719141 ) 0 
( 0.00271309 0.00115747 0.00307717 ) 0 
( 0.00840573 0.00248333 0.00132296 ) 0 
( 0.00645999 0.00667309 0.00573739 ) 0 
( 0.0122648 0.00527384 0.00369468 ) 0 
( 0.0024813 0.011393 0.00294314 ) 0 
( 0.00455753 0.0011269 0.0021914 ) 0 
( 0.00260012 0.0112106 0.000497382 ) 0 
( 0.01235 0.00507116 0.00466955 ) 0 
( 0.00087385 0.00795249 0.00201639 ) 0 
( 0.00455997 0.00913733 0.00497899 ) 0 
( 0.00268224 0.00545246 0.00441687 ) 0 
( 0.00325003 0.00938139 0.00304813 ) 0 
( 0.00488537 0.00943111 0.00255612 ) 0 
( 0.00369016 0.0096185 0.00507591 ) 0 
( 0.00315542 0.00434541 0.0018737 ) 0 
( 0.00640291 0.0107369 0.00546215 ) 0 
( 0.011089 0.007421 0.00478869 ) 0 
( 0.00711196 0.00104294 0.00222518 ) 0 
( 0.00705593 0.00852535 0.00384505 ) 0 
( 0.0108976 0.00532283 0.00138961 ) 0 
( 0.00942494 0.00817535 0.00489113 ) 0 
( 0.0129441 0.00327382 0.00239445 ) 0 
( 0.000431061 0.00900385 0.00371882 ) 0 
( 0.00392245 0.0127031 0.000498732 ) 0 
( 0.00874015 0.0100837 0.00226477 ) 0 
( 0.00199803 0.00908248 0.00120157 ) 0 
( 0.00613383 0.00537547 0.00457313 ) 0 
( 0.0068318 0.00383016 0.00486247 ) 0 
( 0.00791971 0.00723482 0.0020659 ) 0 
( 0.000393116 0.0106917 0.00659126 ) 0 
( 3.54475e-05 0.00172598 0.00627402 ) 0 
( 0.0124326 0.00432336 0.00532694 ) 0 
( 0.0104364 0.00189647 0.00145409 ) 0 
( 0.0120014 0.000868591 0.000814743 ) 0 
( 0.0111718 0.00195796 0.000499198 ) 0 
( 0.00557484 0.000817489 0.00722967 ) 0 
( 0.00877053 0.000441011 0.0038794 ) 0 
( 0.0100072 0.00201695 0.00234746 ) 0 
( 0.00176642 0.00784065 0.00654267 ) 0 
( 0.00810021 0.00868577 0.00360059 ) 0 
( 0.00863582 0.00635547 0.00233621 ) 0 
( 0.00652322 0.00279512 0.00596527 ) 0 
( 0.00597309 0.00399858 0.00149565 ) 0 
( 0.000710453 0.00313466 0.00548385 ) 0 
( 0.00860092 0.00446624 0.00507543 ) 0 
( 0.00227253 0.012307 0.000506628 ) 0 
( 0.0122157 0.00455467 0.00131322 ) 0 
( 0.00625797 0.00343394 0.00668596 ) 0 
( 0.00457852 0.00806094 0.00752454 ) 0 
( 0.00891954 0.00751903 0.00416904 ) 0 
( 0.0060725 0.00221511 0.00393599 ) 0 
( 0.000982708 0.00416844 0.00419105 ) 0 
( 0.0105055 0.00675061 0.00267521 ) 0 
( 0.00402487 0.00362617 0.00694575 ) 0 
( 0.000284535 0.00452425 0.00681622 ) 0 
( 0.00359693 0.00540609 0.00365961 ) 0 
( 0.0119714 0.00117091 0.00385073 ) 0 
( 0.00220418 0.00138596 0.00440021 ) 0 
( 0.00854538 0.00898714 0.00168725 ) 0 
( 0.00313972 0.0109125 0.0037405 ) 0 
( 0.0023602 0.0122306 0.00645303 ) 0 
( 0.0103879 0.00838672 0.00141705 ) 0 
( 0.00268539 0.00415733 0.00306635 ) 0 
( 0.000731131 0.0119565 0.0029996 ) 0 
( 0.00161023 0.00616015 0.0031241 ) 0 
( 0.00371206 0.00278925 0.00276331 ) 0 
( 0.00511001 0.00013945 0.0056054 ) 0 
( 0.00645231 0.000297272 0.00725974 ) 0 
( 0.00754856 0.000695761 0.00134664 ) 0 
( 0.0100058 0.00532362 0.000498815 ) 0 
( 0.00650396 0.00483174 0.00134126 ) 0 
( 0.00177742 0.0123511 0.00144864 ) 0 
( 0.00631344 0.0117651 0.00238515 ) 0 
( 0.00434186 0.008766 0.00310513 ) 0 
( 0.00514127 0.0113765 0.00375927 ) 0 
( 0.00315908 0.0103969 0.00461738 ) 0 
( 0.00300321 0.0111346 0.00197963 ) 0 
( 0.00386856 0.00600809 0.0065251 ) 0 
( 0.00986181 0.0070692 0.0059805 ) 0 
( 0.00460079 0.00303337 0.00499397 ) 0 
( 0.0032207 0.0119928 0.000499773 ) 0 
( 0.00267788 0.00421766 0.00406403 ) 0 
( 0.00465593 0.00955827 0.0036276 ) 0 
( 0.00395307 0.003524 0.00345204 ) 0 
( 0.00944665 0.00100736 0.00569677 ) 0 
( 0.00399038 0.0108748 0.0043343 ) 0 
( 0.00476523 0.00436116 0.000498783 ) 0 
( 0.00341714 0.00839588 0.00302372 ) 0 
( 0.00340984 0.00775074 0.00225672 ) 0 
( 0.00809649 0.00523613 0.00723822 ) 0 
( 0.00738296 0.00839778 0.00670993 ) 0 
( 0.00283154 0.00237645 0.0044316 ) 0 
( 0.000243353 0.00159436 0.00750619 ) 0 
( 0.00702023 0.00831622 0.00568536 ) 0 
( 0.0092599 0.00961814 0.00514942 ) 0 
( 0.0107209 0.000809818 0.00695602 ) 0 
( 0.00408035 0.00281674 0.00752869 ) 0 
( 0.0108991 0.00270803 0.00669042 ) 0 
( 0.00399182 0.0110278 0.0020771 ) 0 
( 0.00566565 0.000148252 0.00379771 ) 0 
( 0.00803271 0.00976171 0.00108449 ) 0 
( 0.00683359 0.00891153 0.00192417 ) 0 
( 0.00510915 0.00567546 0.00133771 ) 0 
( 0.00695429 0.00229546 0.00440889 ) 0 
( 0.00303223 0.00174656 0.00120809 ) 0 
( 0.000256553 0.00655472 0.00408385 ) 0 
( 0.00358027 0.0119602 0.00165583 ) 0 
( 0.00329078 0.00389329 0.00765423 ) 0 
( 0.0106519 0.0063284 0.00744384 ) 0 
( 0.00480467 0.00563523 0.00228873 ) 0 
( 0.0031789 0.000574651 0.00622838 ) 0 
( 0.000537146 0.00263205 0.00634532 ) 0 
( 0.012021 0.00374325 0.00456832 ) 0 
( 0.00891455 0.00735212 0.0051549 ) 0 
( 0.00528434 0.00675105 0.00253122 ) 0 
( 0.0100671 0.00247278 0.00477347 ) 0 
( 0.00749044 0.00751522 0.000496929 ) 0 
( 0.00195304 0.00802263 0.00396019 ) 0 
( 0.0114649 6.02462e-05 0.00146004 ) 0 
( 0.00159923 0.00348151 0.00457026 ) 0 
( 0.00636762 0.00802211 0.00498733 ) 0 
( 0.00359834 0.00131219 0.00263853 ) 0 
( 0.00816397 0.00432235 0.0068407 ) 0 
( 0.0133183 0.00092967 0.00421275 ) 0 
( 0.00279375 0.0130561 0.00218027 ) 0 
( 0.0105128 0.0037233 0.00476949 ) 0 
( 0.00975113 0.0043061 0.000498581 ) 0 
( 0.00442889 0.00534428 0.00720732 ) 0 
( 0.00949661 0.00883617 0.0014255 ) 0 
( 0.00672719 0.00501207 0.00622898 ) 0 
( 0.0106555 0.00628846 0.0014786 ) 0 
( 0.00440734 0.00386601 0.0015276 ) 0 
( 0.00193079 0.00704936 0.00279999 ) 0 
( 0.00301236 0.00468581 0.00496392 ) 0 
( 0.0133499 5.50621e-05 0.0013632 ) 0 
( 0.00516765 0.00356906 0.000951885 ) 0 
( 0.00604619 0.00835618 0.00218898 ) 0 
( 0.00554877 0.0121425 0.00560973 ) 0 
( 0.00111053 0.00928133 0.00194859 ) 0 
( 0.00924947 0.00923049 0.00235358 ) 0 
( 0.00215046 0.0107877 0.00366311 ) 0 
( 0.00201151 0.0113067 0.00617168 ) 0 
( 0.00449318 0.0116226 0.00142705 ) 0 
( 0.00178251 0.00504696 0.00617505 ) 0 
( 0.00801093 0.00795016 0.00427199 ) 0 
( 0.00125852 0.00997581 0.00478166 ) 0 
( 0.00312093 0.00726914 0.00469118 ) 0 
( 0.00167556 0.000749675 0.00524677 ) 0 
( 0.0133503 9.47521e-05 0.00551739 ) 0 
( 0.00351143 0.000589703 0.00194861 ) 0 
( 0.0118721 0.00179551 0.00187265 ) 0 
( 0.0104417 6.13426e-05 0.00310571 ) 0 
( 0.00231624 0.00043015 0.00363462 ) 0 
( 0.0072725 0.00765576 0.00338144 ) 0 
( 0.00866712 0.0081282 0.00218335 ) 0 
( 0.0112412 0.00526216 0.00375289 ) 0 
( 0.00400481 0.00792403 0.00368019 ) 0 
( 0.00450077 0.0119619 0.00300502 ) 0 
( 0.00988448 0.000390059 0.00730642 ) 0 
( 0.00965391 0.00800892 0.00233371 ) 0 
( 0.0042931 0.00627845 0.000498327 ) 0 
( 0.00401771 0.00902663 0.00581054 ) 0 
( 0.0111438 0.00449559 0.00484175 ) 0 
( 0.01334 0.000554009 0.000498591 ) 0 
( 0.00177614 0.00547446 0.00383275 ) 0 
( 0.00795281 0.00519168 0.00530238 ) 0 
( 3.98845e-05 0.00401171 0.00448167 ) 0 
( 0.00167955 0.00336445 0.00555955 ) 0 
( 0.00039564 0.00131872 0.0020812 ) 0 
( 0.000647732 0.0115578 0.000499786 ) 0 
( 0.00505192 0.00841025 0.00374122 ) 0 
( 0.0100342 0.00342757 0.00308222 ) 0 
( 0.000409622 0.0121903 0.00643583 ) 0 
( 0.00862335 0.00906066 0.000499751 ) 0 
( 0.00869838 0.000452605 0.0014054 ) 0 
( 0.00222853 0.0018443 0.00699313 ) 0 
( 0.00759419 0.0085921 0.00491461 ) 0 
( 0.00180631 0.00394657 0.0036564 ) 0 
( 0.000143552 0.00957816 0.00542826 ) 0 
( 0.00125738 0.00331533 0.00646457 ) 0 
( 0.00392774 0.00515352 0.00213405 ) 0 
( 0.000905042 0.000960107 0.00790389 ) 0 
( 0.00318167 0.00663382 0.00615463 ) 0 
( 0.00177517 0.0132128 0.0053585 ) 0 
( 0.00705642 0.00766646 0.00435712 ) 0 
( 0.00648618 0.000999753 0.00584867 ) 0 
( 0.00251094 0.00377871 0.00136383 ) 0 
( 0.00817086 0.00601026 0.00632825 ) 0 
( 0.00560862 0.00176088 0.00469644 ) 0 
( 0.00102155 0.0106416 0.00548648 ) 0 
( 0.00770652 0.00131003 0.00487464 ) 0 
( 0.00573742 0.00302994 0.00156759 ) 0 
( 0.00652598 0.00181926 0.00527835 ) 0 
( 0.00222109 0.0104979 0.00703756 ) 0 
( 0.00202017 0.00265644 0.00494242 ) 0 
( 0.0110492 0.0074935 0.00713913 ) 0 
( 0.00698638 0.00200942 0.00201275 ) 0 
( 6.56073e-05 0.00500574 0.0079482 ) 0 
( 0.0020131 0.00994151 0.00543636 ) 0 
( 0.00737686 0.0107431 0.00385937 ) 0 
( 0.00166269 0.00083846 0.000898507 ) 0 
( 0.00080874 0.00586291 0.000499788 ) 0 
( 0.00104892 0.00163343 0.00137909 ) 0 
( 0.00736517 0.00276275 0.00254856 ) 0 
( 0.00127895 0.00914601 0.00422725 ) 0 
( 0.00110903 0.00962971 0.00101261 ) 0 
( 0.00813011 0.00125166 0.00333016 ) 0 
( 0.0075485 0.000188004 0.00249797 ) 0 
( 0.00554594 0.005867 0.00295506 ) 0 
( 0.0122734 0.00185978 0.00310498 ) 0 
( 0.00403449 0.00205354 0.00674812 ) 0 
( 0.00278676 0.00127901 0.00205611 ) 0 
( 0.00221521 0.00693974 0.00636979 ) 0 
( 0.0128647 0.00196127 0.00581047 ) 0 
( 0.00364889 0.0114422 0.00296631 ) 0 
( 0.0112817 0.0034465 0.00536143 ) 0 
( 0.010038 0.000304963 0.00049842 ) 0 
( 0.000186714 0.00251817 0.00386047 ) 0 
( 0.00123618 0.0107493 0.000499783 ) 0 
( 0.00182705 0.00926262 0.00614648 ) 0 
( 0.00642846 0.00119777 0.00682693 ) 0 
( 0.00728535 0.00600393 0.00234194 ) 0 
( 0.00223882 0.00897766 0.00401036 ) 0 
( 0.0120224 0.00302598 0.00380035 ) 0 
( 0.00331328 0.00936547 0.00643679 ) 0 
( 0.0010525 0.00188507 0.00678438 ) 0 
( 0.00709463 0.00694789 0.00260875 ) 0 
( 0.00727274 0.0107648 0.0028663 ) 0 
( 0.00549971 0.000924861 0.000499615 ) 0 
( 0.00289719 0.00744645 0.00564823 ) 0 
( 0.00496854 0.007599 0.00606443 ) 0 
( 0.00585709 0.00175842 0.00601911 ) 0 
( 0.00502338 0.0123693 0.00375327 ) 0 
( 0.00355121 0.00396 0.00102103 ) 0 
( 0.00186178 0.00735575 0.000498802 ) 0 
( 0.00722632 0.00314588 0.00660346 ) 0 
( 0.00776333 0.00171284 0.00135059 ) 0 
( 0.00275552 0.0120622 0.0022555 ) 0 
( 0.00437563 0.00514675 0.00622875 ) 0 
( 0.00468831 0.0028886 0.00673811 ) 0 
( 0.00462465 0.00981458 0.000603023 ) 0 
( 0.00890694 0.00722695 0.00182487 ) 0 
( 0.00217774 0.0102455 0.00450003 ) 0 
( 0.00462421 0.00186748 0.00513659 ) 0 
( 0.0026209 0.0050561 0.00349967 ) 0 
( 0.00329405 0.0117441 0.00427263 ) 0 
( 0.0107626 0.00385757 0.0022892 ) 0 
( 0.00136358 0.00731215 0.00357826 ) 0 
( 0.00517106 0.00193311 0.00209278 ) 0 
( 0.0128879 0.00264592 0.00317052 ) 0 
( 0.00711783 0.0112956 0.000737765 ) 0 
( 0.0102185 0.00073148 0.00239871 ) 0 
( 0.00541742 0.00669846 0.00351975 ) 0 
( 0.0114188 0.00424071 0.00293783 ) 0 
( 0.00725559 0.0092795 0.00555659 ) 0 
( 0.00013828 0.00365372 0.00347847 ) 0 
( 0.00622569 0.00659909 0.000618911 ) 0 
( 0.00460043 0.0081042 0.0052842 ) 0 
( 0.00645647 0.0116281 0.00140823 ) 0 
( 0.00438853 0.0013868 0.00429264 ) 0 
( 0.00474487 0.00291667 0.00158036 ) 0 
( 0.00723551 0.00417963 0.000499703 ) 0 
( 0.00343539 0.00628586 0.00321293 ) 0 
( 0.00245821 0.00505789 0.00179452 ) 0 
( 0.0120421 0.00264148 0.00136756 ) 0 
( 0.00366766 0.00954531 0.000499038 ) 0 
( 0.00193872 0.00899827 0.00496392 ) 0 
( 0.00560691 0.0104354 0.00695177 ) 0 
( 0.000856966 0.000298049 0.00489227 ) 0 
( 0.00139802 0.00351326 0.00755399 ) 0 
( 0.0035526 0.00479359 0.00688272 ) 0 
( 0.0115809 0.0044283 0.00583907 ) 0 
( 0.00337443 0.00624749 0.00421001 ) 0 
( 0.00574457 0.00186587 0.00711796 ) 0 
( 0.00226257 0.000561082 0.00764796 ) 0 
( 0.00788581 0.0107459 0.00572963 ) 0 
( 0.00264238 0.00990605 0.00133127 ) 0 
( 0.00160214 0.00175276 0.000499579 ) 0 
( 0.00821125 0.00503209 0.00435171 ) 0 
( 0.00382864 0.00797381 0.00466242 ) 0 
( 0.00299955 7.01221e-06 0.00726417 ) 0 
( 0.0027312 0.00476572 0.00631418 ) 0 
( 0.0118535 0.00164667 0.00553904 ) 0 
( 0.00619963 0.0056051 0.00562327 ) 0 
( 0.00275215 0.00321752 0.00215375 ) 0 
( 0.00642471 0.00192215 0.00304736 ) 0 
( 0.00516835 0.0122236 0.00185465 ) 0 
( 0.00870856 0.00296059 0.000499376 ) 0 
( 0.00345128 0.00573886 0.000499775 ) 0 
( 0.00694874 0.00513755 0.000499706 ) 0 
( 0.000957099 0.0108403 0.00250185 ) 0 
( 0.0052264 0.00498325 0.00672604 ) 0 
( 0.00602482 0.0108476 0.00211166 ) 0 
( 0.00291822 0.00482088 0.00765448 ) 0 
( 0.0018291 0.00470143 0.00300247 ) 0 
( 0.0117032 0.00519607 0.00287172 ) 0 
( 0.00489088 0.00382042 0.00317547 ) 0 
( 0.00979202 0.00266011 0.00144693 ) 0 
( 0.00205552 0.00162122 0.00138082 ) 0 
( 0.00641635 0.00750543 0.00767822 ) 0 
( 0.00867708 0.00486334 0.00598941 ) 0 
( 0.00576704 0.00547465 0.00206264 ) 0 
( 0.00411814 0.0119021 0.00524651 ) 0 
( 0.00844699 0.00587629 0.00387382 ) 0 
( 0.00932245 0.00409603 0.00137651 ) 0 
( 0.00265675 0.00935222 0.000499421 ) 0 
( 0.00954273 0.00157203 0.00341569 ) 0 
( 0.0115129 0.00431776 0.00392963 ) 0 
( 0.00431296 0.00200919 0.00259684 ) 0 
( 0.00344393 0.000690765 0.0035732 ) 0 
( 0.00540179 0.0112057 0.00138746 ) 0 
( 0.00462285 9.80119e-05 0.00751802 ) 0 
( 0.00853536 0.0102643 0.00631574 ) 0 
( 0.00652626 0.00816592 0.00133377 ) 0 
( 0.00641968 0.00807768 0.00307386 ) 0 
( 0.0023815 0.00997965 0.0029107 ) 0 
( 0.000611703 0.000987733 0.00679984 ) 0 
( 0.00822854 0.0105137 0.00300628 ) 0 
( 0.00801186 3.65294e-05 0.00336916 ) 0 
( 0.00269911 0.00925058 0.00565749 ) 0 
( 0.00485143 0.00438241 0.00577088 ) 0 
( 0.00702759 0.00839909 0.000498835 ) 0 
( 0.00395427 0.00106299 0.00662895 ) 0 
( 0.00132193 0.00704668 0.0018368 ) 0 
( 0.000990549 0.00896288 0.00660485 ) 0 
( 0.00348505 0.00264907 0.00372638 ) 0 
( 0.00434504 0.00881061 0.000499624 ) 0 
( 0.00348701 0.0074794 0.00127039 ) 0 
( 0.0097131 0.00134609 0.00660283 ) 0 
( 0.0119691 0.00358343 0.00104049 ) 0 
( 0.011323 0.00658666 0.00529134 ) 0 
( 0.00209051 0.0122292 0.00494129 ) 0 
( 0.00662397 0.00562803 0.00373903 ) 0 
( 0.0113342 0.00128948 0.00309186 ) 0 
( 0.00656873 0.0105395 0.00441031 ) 0 
( 0.000282436 0.00243046 0.00132913 ) 0 
( 0.00440702 0.0108102 0.00657685 ) 0 
( 0.00878521 0.00181818 0.00281314 ) 0 
( 0.0131491 0.00231045 0.000655889 ) 0 
( 0.00237573 5.57624e-05 0.00506013 ) 0 
( 0.0126717 0.0042055 0.000497977 ) 0 
( 0.012805 0.00378255 0.00154653 ) 0 
( 0.00648498 0.0093415 0.00375664 ) 0 
( 0.00804284 0.00210156 0.00436824 ) 0 
( 0.00986453 0.00568145 0.00142043 ) 0 
( 0.00428986 0.00525871 0.00441278 ) 0 
( 0.00590607 0.00274715 0.000498741 ) 0 
( 0.00496277 0.00626447 0.00702015 ) 0 
( 0.00689784 0.00471496 0.0030703 ) 0 
( 0.00820328 0.00322737 0.00405667 ) 0 
( 0.0100477 0.00711358 0.00498925 ) 0 
( 0.00900599 0.00633714 0.00138365 ) 0 
( 0.00106186 0.00532506 0.00314779 ) 0 
( 0.00541486 0.00749784 0.00188035 ) 0 
( 0.00434116 0.00246192 0.00588863 ) 0 
( 0.007256 0.00570128 0.00138864 ) 0 
( 0.00153624 0.0132619 0.00438885 ) 0 
( 0.00699899 0.0113686 0.00595728 ) 0 
( 0.00500073 0.00526078 0.00531973 ) 0 
( 0.00570899 0.00459096 0.00751659 ) 0 
( 0.00642133 0.00906926 0.000921803 ) 0 
( 0.00540853 0.00242335 0.00541823 ) 0 
( 0.00548862 0.0118357 0.00294264 ) 0 
( 0.00157533 0.0115763 0.00337707 ) 0 
( 0.0015589 0.000638087 0.00425179 ) 0 
( 0.00958833 0.00335501 0.000757928 ) 0 
( 0.0119965 0.00270516 0.00490021 ) 0 
( 0.00873561 0.00142739 0.00410404 ) 0 
( 0.00731901 0.00925781 0.00721409 ) 0 
( 0.00985936 0.00408049 0.00408765 ) 0 
( 0.00984738 0.00465474 0.00618809 ) 0 
( 0.0128202 0.00372607 0.00327553 ) 0 
( 0.0108496 0.00253177 0.00570824 ) 0 
( 0.0127419 0.00320915 0.00049945 ) 0 
( 0.00879098 0.00781159 0.00604496 ) 0 
( 0.0114906 0.000822333 0.00510758 ) 0 
( 6.70996e-05 0.00450678 0.00178975 ) 0 
( 0.00162672 0.0103869 0.00624169 ) 0 
( 0.000119083 0.00506209 0.000499725 ) 0 
( 0.00886718 0.00672654 0.00356209 ) 0 
( 0.00304656 0.0121962 0.00717929 ) 0 
( 0.000947916 0.00802403 0.0073578 ) 0 
( 0.00356817 0.010287 0.0067268 ) 0 
( 0.00846272 0.00103019 0.00586873 ) 0 
( 0.00392596 0.00704834 0.00274457 ) 0 
( 0.00690783 0.00785339 0.0022314 ) 0 
( 0.00844175 0.00350258 0.00528128 ) 0 
( 0.0107567 0.00498046 0.00238349 ) 0 
( 0.00614508 0.00727909 0.00252662 ) 0 
( 0.00993675 0.00190419 0.00558739 ) 0 
( 0.0109046 0.00142996 0.00220216 ) 0 
( 0.0124372 0.000441234 0.00674211 ) 0 
( 8.83596e-05 0.00235273 0.00549665 ) 0 
( 0.000730536 0.0126153 0.00411801 ) 0 
( 0.00401434 0.00176891 0.00776908 ) 0 
( 0.00475715 0.00132039 0.00317466 ) 0 
( 0.00169477 0.000445889 0.00276106 ) 0 
( 0.00417789 0.00794882 0.00656546 ) 0 
( 0.00123927 0.0052515 0.00698928 ) 0 
( 0.00603474 0.000561942 0.00462844 ) 0 
( 0.0132911 0.00126194 0.00650789 ) 0 
( 0.00973499 0.00635195 0.00323692 ) 0 
( 0.00308337 0.00582371 0.00194194 ) 0 
( 0.00750949 0.0047401 0.00128806 ) 0 
( 0.00923988 0.00480442 0.00438543 ) 0 
( 0.00799914 0.00540253 0.00198538 ) 0 
( 0.00384511 0.00835497 0.00159075 ) 0 
( 0.00408748 0.012708 0.00365961 ) 0 
( 0.0103257 0.00846262 0.00721354 ) 0 
( 0.0132528 0.0016083 0.00136019 ) 0 
( 0.00169931 0.00982155 0.00362314 ) 0 
( 0.00667871 0.00308011 0.00189549 ) 0 
( 0.00205509 0.00640234 0.0020505 ) 0 
( 0.00544274 0.00671558 0.005754 ) 0 
( 0.00188675 0.013217 0.0025649 ) 0 
( 0.000111984 0.00183122 0.00459561 ) 0 
( 0.000754113 0.0065421 0.00764759 ) 0 
( 0.00867709 0.00660483 0.00453439 ) 0 
( 0.00356282 0.00654803 0.00523482 ) 0 
( 4.17112e-05 0.00068176 0.00585549 ) 0 
( 0.002269 0.00767239 0.0020852 ) 0 
( 0.00361113 0.0101434 0.00129851 ) 0 
( 0.00473841 0.00769172 0.00436107 ) 0 
( 0.00126147 0.00683879 0.00598597 ) 0 
( 3.68285e-05 0.000842423 0.00471703 ) 0 
( 0.000242646 0.012472 0.00049912 ) 0 
( 0.00582898 0.0086517 0.00554496 ) 0 
( 0.000105336 0.0117876 0.00555334 ) 0 
( 0.0102274 0.00360571 0.00148388 ) 0 
( 0.00142262 0.00815792 0.00479627 ) 0 
( 0.00152039 0.00972279 0.00698126 ) 0 
( 0.00202833 0.0107478 0.00233243 ) 0 
( 0.00126397 0.00710411 0.00699169 ) 0 
( 0.0126254 0.000201352 0.00483764 ) 0 
( 0.0104007 0.00689449 0.00374836 ) 0 
( 0.00828534 0.00616611 0.00534742 ) 0 
( 0.00904713 0.00404359 0.00642537 ) 0 
( 0.00196922 0.000737185 0.00184473 ) 0 
( 0.000339871 0.00561272 0.00184677 ) 0 
( 0.00898938 0.00694032 0.000499785 ) 0 
( 0.000196725 0.0125636 0.00216061 ) 0 
( 0.0013167 0.00425952 0.00689448 ) 0 
( 0.00534222 0.00147401 0.00794483 ) 0 
( 0.0106522 0.00608645 0.000499522 ) 0 
( 0.00600838 0.00613553 0.00644901 ) 0 
( 0.000427555 0.0101498 0.000499219 ) 0 
( 0.0106531 0.00254862 0.00386326 ) 0 
( 0.00206815 0.0131899 0.00354627 ) 0 
( 0.0106248 0.00111315 0.000503959 ) 0 
( 0.00898363 0.00544223 0.00182502 ) 0 
( 0.00993183 0.00891086 0.00536426 ) 0 
( 0.000873837 0.00723385 0.0027108 ) 0 
( 0.00637122 0.00762634 0.00602422 ) 0 
( 0.00763189 0.00341288 0.00325809 ) 0 
( 0.00380238 0.00329486 0.00441921 ) 0 
( 0.00922828 0.000475482 0.00651989 ) 0 
( 0.00209408 0.0123217 0.00295893 ) 0 
( 0.00393706 0.00612532 0.00236393 ) 0 
( 0.012349 0.00121048 0.00477457 ) 0 
( 0.00578531 0.0100913 0.00390791 ) 0 
( 0.000375707 0.0132063 0.00675294 ) 0 
( 0.0104731 0.00589932 0.00374169 ) 0 
( 0.00420948 0.00880354 0.00410601 ) 0 
( 0.00398476 0.00787408 0.000499154 ) 0 
( 0.00278221 0.00947326 0.00468664 ) 0 
( 1.06231e-05 0.00927805 0.00646486 ) 0 
( 0.00141599 0.00567972 0.00148323 ) 0 
( 0.00749891 0.00787527 0.00142718 ) 0 
( 0.0106045 0.0081122 0.00632101 ) 0 
( 0.000184903 0.00203233 0.00298665 ) 0 
( 0.00136285 0.00245006 0.00581148 ) 0 
( 0.00893911 0.00567206 0.0047766 ) 0 
( 0.0068512 0.00839601 0.00755491 ) 0 
( 0.00423924 0.0117632 0.00394891 ) 0 
( 0.0131643 0.00221948 0.00230932 ) 0 
( 0.0099738 0.00759295 0.00318049 ) 0 
( 0.00176039 0.00480141 0.0011268 ) 0 
( 0.00665623 0.00703054 0.00683297 ) 0 
( 0.00480533 0.0114234 0.0046997 ) 0 
( 0.00822057 0.00700677 0.00588262 ) 0 
( 0.0040541 0.00697279 0.00447516 ) 0 
( 0.00601787 0.00439531 0.00473351 ) 0 
( 0.00539321 0.00272329 0.00446451 ) 0 
( 0.00336257 0.00225062 0.00602079 ) 0 
( 0.00602635 0.00821186 0.00398265 ) 0 
( 0.00491539 0.0113463 0.00228821 ) 0 
( 0.00372664 0.00163046 0.000499142 ) 0 
( 0.00268025 0.000371897 0.00245994 ) 0 
( 0.00922868 0.0021565 0.000783656 ) 0 
( 0.00127321 0.0126596 0.00667573 ) 0 
( 0.0052402 0.000473872 0.00295501 ) 0 
( 0.00152542 0.00389275 0.00147047 ) 0 
( 0.00691862 0.00101978 0.00776965 ) 0 
( 0.00799181 0.00383009 0.00105246 ) 0 
( 0.00301962 0.010305 0.000498379 ) 0 
( 0.00973718 0.0080486 0.00583108 ) 0 
( 0.00839373 0.00402739 0.00305605 ) 0 
( 0.00367745 0.00452508 0.00319383 ) 0 
( 0.00023736 0.00587209 0.00540187 ) 0 
( 0.00153291 0.00678894 0.00502365 ) 0 
( 0.0028609 0.00758963 0.000499409 ) 0 
( 0.00441176 0.00484264 0.00131781 ) 0 
( 0.00514819 0.0104389 0.00600355 ) 0 
( 0.00634785 0.00719019 0.0014449 ) 0 
( 0.0039576 0.000155919 0.00116588 ) 0 
( 0.00428041 0.0108409 0.00531992 ) 0 
( 0.000177886 0.0118174 0.00382072 ) 0 
( 0.0118229 0.00256311 0.00593469 ) 0 
( 0.00157766 0.00653631 0.000994945 ) 0 
( 0.000681285 0.00133619 0.000498766 ) 0 
( 0.000995404 0.0133151 0.00597576 ) 0 
( 0.0126102 0.000688797 0.00158657 ) 0 
( 0.00685032 0.00188949 0.00623129 ) 0 
( 0.00442751 0.00338673 0.00240425 ) 0 
( 0.00489943 0.00272091 0.000499017 ) 0 
( 0.00800625 0.00321926 0.00186802 ) 0 
( 0.00960217 0.00252768 0.00313203 ) 0 
( 0.0130455 0.00281289 0.00151345 ) 0 
( 0.00674604 0.011521 0.00325021 ) 0 
( 0.00917293 0.00499128 0.000941066 ) 0 
( 0.00502979 0.000180454 0.000973623 ) 0 
( 0.00934532 0.00645584 0.00526141 ) 0 
( 0.00909557 0.0031594 0.0059555 ) 0 
( 0.0097783 0.00112723 0.00142978 ) 0 
( 0.00219044 0.00628229 0.00561737 ) 0 
( 0.00229317 0.00938915 0.00210992 ) 0 
( 0.0108578 0.00777089 0.00388177 ) 0 
( 0.00756164 0.00530022 0.00364249 ) 0 
( 0.0132485 0.00164671 0.0031543 ) 0 
( 0.00717952 0.00322869 0.00413036 ) 0 
( 0.00264517 0.0118078 0.00129628 ) 0 
( 0.00762618 0.0088595 0.00131853 ) 0 
( 0.0127799 0.00202943 0.00395033 ) 0 
( 0.00319024 0.0129568 0.00651037 ) 0 
( 0.00020975 0.00462267 0.0037099 ) 0 
( 0.00953714 0.000614671 0.00313579 ) 0 
( 0.00762715 0.0109571 0.00667167 ) 0 
( 0.00818358 0.00113264 0.00204617 ) 0 
( 0.00846865 0.00459338 0.00152857 ) 0 
( 0.00531364 0.00950737 0.00551857 ) 0 
( 0.000135892 0.0040608 0.00049885 ) 0 
( 0.00342129 0.0129073 0.00294196 ) 0 
( 0.00272596 0.013069 0.00563206 ) 0 
( 0.00463764 0.000552269 0.00380259 ) 0 
( 0.00615332 0.0117671 0.00631188 ) 0 
( 0.00054509 0.0037444 0.00135806 ) 0 
( 0.00510963 0.00583855 0.00612777 ) 0 
( 0.00400597 0.0105913 0.000498807 ) 0 
( 0.00785055 0.00483624 0.00279511 ) 0 
( 0.000332579 0.0110971 0.00135078 ) 0 
( 0.00774385 0.00619821 0.00450802 ) 0 
( 0.000379373 0.0104482 0.00474594 ) 0 
( 0.00922853 0.00823563 0.000497929 ) 0 
( 0.00778172 0.00810167 0.00264626 ) 0 
( 0.00451513 0.00438205 0.00237713 ) 0 
( 0.0117841 0.0021124 0.00412335 ) 0 
( 0.00711722 0.00938011 0.0045286 ) 0 
( 0.0130205 0.00294852 0.00582428 ) 0 
( 0.00426543 0.00999439 0.0058517 ) 0 
( 0.00977426 0.00495626 0.00220085 ) 0 
( 0.00381048 0.00696731 0.00697057 ) 0 
( 0.0110854 0.00741958 0.00578745 ) 0 
( 0.00773499 0.00415941 0.00206966 ) 0 
( 0.000237989 0.00938011 0.00145475 ) 0 
( 0.00948478 0.00939553 0.00337926 ) 0 
( 0.00340334 0.0129091 0.00139551 ) 0 
( 0.000730852 0.0101996 0.00174189 ) 0 
( 0.00954112 0.0078411 0.00135907 ) 0 
( 0.00204162 0.00405483 0.00618364 ) 0 
( 0.00256454 0.00225036 0.00198837 ) 0 
( 0.00644281 0.00591471 0.00732168 ) 0 
( 0.00437685 0.0126135 0.00138424 ) 0 
( 0.00602513 0.0112902 0.00741714 ) 0 
( 0.00872113 0.00144083 0.00126174 ) 0 
( 0.00648201 0.00395501 0.00580464 ) 0 
( 0.00831945 0.010443 0.00399785 ) 0 
( 0.00106375 0.00618425 0.00227158 ) 0 
( 0.00979259 0.00906858 0.000499525 ) 0 
( 0.00835888 0.00771586 0.00336507 ) 0 
( 0.0112355 0.00132212 0.00126621 ) 0 
( 0.000627324 0.00251341 0.00743455 ) 0 
( 0.00338245 0.0112362 0.00512732 ) 0 
( 0.0115509 0.00335928 0.00192255 ) 0 
( 0.00648967 0.00755615 0.00049978 ) 0 
( 0.00996708 0.00566459 0.00645241 ) 0 
( 0.000147307 0.00837782 0.00687464 ) 0 
( 0.00587689 0.0109526 0.00320281 ) 0 
( 0.00627387 0.00274474 0.00499899 ) 0 
( 0.00248632 0.0131143 0.00466256 ) 0 
( 0.00369 0.00265678 0.000499788 ) 0 
( 0.0128862 0.00349668 0.00499947 ) 0 
( 0.00497354 0.0110372 0.000499758 ) 0 
( 0.00593182 0.00992067 0.00252061 ) 0 
( 0.0003334 0.00681472 0.00508421 ) 0 
( 0.00393533 0.00178785 0.00349498 ) 0 
( 0.00544164 0.0023017 0.00299075 ) 0 
( 0.00267745 0.00312174 0.00553256 ) 0 
( 0.00643162 0.0023541 0.00125282 ) 0 
( 0.00342 0.0111676 0.00106798 ) 0 
( 0.0113744 0.0022789 0.00322683 ) 0 
( 0.00377185 0.00310696 0.00170421 ) 0 
( 0.00307531 0.00379603 0.00668436 ) 0 
( 0.00418413 0.00236211 0.00438104 ) 0 
( 0.00351514 0.00559077 0.00495051 ) 0 
( 0.0103416 0.000898771 0.00482584 ) 0 
( 0.0013873 0.011685 0.00685429 ) 0 
( 0.0122145 0.00277883 0.00682907 ) 0 
( 0.0106526 0.00797767 0.00229015 ) 0 
( 0.0127933 0.00139032 0.000499375 ) 0 
( 0.000261477 0.0132937 0.00136396 ) 0 
( 0.00572996 0.000520768 0.00628936 ) 0 
( 0.00388195 0.000516343 0.00445545 ) 0 
( 0.0094135 0.0015095 0.00483348 ) 0 
( 0.00466316 0.0125092 0.00589393 ) 0 
( 0.00306669 0.0075408 0.00662886 ) 0 
( 0.0046091 0.00618285 0.00310182 ) 0 
( 0.0066058 0.00491712 0.00721562 ) 0 
( 0.00354508 0.00261942 0.00510956 ) 0 
( 0.00298622 0.00274471 0.00120516 ) 0 
( 6.42725e-05 0.00821097 0.000498475 ) 0 
( 0.0109833 0.00759365 0.00129889 ) 0 
( 0.00636826 0.0117333 0.00512286 ) 0 