FoamFile
{version 2.0; format ascii;class vectorField; location 0;object  v;}
2510
(
( -1.11448e-05 0.000126867 8.37135e-05 )  
( 0.000433466 5.38496e-05 3.30275e-05 )  
( -0.000333582 6.49678e-05 0.000705341 )  
( 8.0074e-05 0.000292735 0.000567296 )  
( -0.000122901 9.90117e-05 0.000461567 )  
( -3.58048e-05 0.000103048 1.67583e-05 )  
( 3.45011e-05 0.000403061 -0.000284359 )  
( 3.33052e-05 0.000110349 0.000121956 )  
( 0.000141718 -0.00038453 0.00036547 )  
( -7.23615e-05 6.98833e-05 0.000649633 )  
( 2.44558e-05 -0.000223072 0.000703904 )  
( 1.83832e-05 -0.000153903 0.000592456 )  
( 3.31546e-05 -3.92486e-05 0.000537123 )  
( -0.000114175 -7.46029e-05 0.000850846 )  
( 3.09639e-05 -5.77689e-05 0.000950111 )  
( -7.69481e-05 0.000127472 0.000958965 )  
( -0.000549076 -0.000419818 0.000877215 )  
( -7.29246e-05 9.02725e-05 0.000851237 )  
( -7.10212e-05 -0.000418353 0.000486963 )  
( -5.43203e-05 6.51269e-05 0.000802264 )  
( 4.4596e-05 0.000333022 0.000564297 )  
( 5.11698e-05 -5.43664e-05 0.000608789 )  
( -5.51925e-05 -4.88812e-05 0.000607652 )  
( -0.00968119 -0.033069 -0.0116559 )  
( 0.0290576 0.0133493 -0.0281306 )  
( -0.00202308 0.00249649 0.00484938 )  
( -0.000155816 -0.000162591 0.000410271 )  
( 3.94168e-05 -3.1714e-05 0.000500122 )  
( -0.000134537 -0.000292522 0.00059987 )  
( 4.87319e-05 -0.000171301 0.000628311 )  
( -6.32649e-05 -0.000233086 0.000739895 )  
( -0.000560803 -6.55936e-05 0.000556463 )  
( -9.74658e-05 4.5346e-05 0.000425019 )  
( -0.000198513 -0.000216813 0.000480927 )  
( -4.3024e-06 -0.000107628 0.000321665 )  
( -0.000195785 -0.000124793 0.000511387 )  
( -0.000150345 6.7905e-06 0.000524719 )  
( -6.18607e-05 1.95081e-05 0.000361158 )  
( -6.12775e-06 3.37539e-06 0.000171923 )  
( 3.29385e-05 4.1129e-05 0.000396299 )  
( -0.000137492 0.00022734 0.000330603 )  
( -0.000184537 0.000255158 0.000484627 )  
( -0.000149132 -0.000165399 0.000388372 )  
( -5.74251e-07 -1.68578e-05 3.23131e-05 )  
( 0.000204705 5.5737e-05 8.28543e-05 )  
( -3.32509e-05 -5.03483e-05 0.000234171 )  
( 0.000165388 0.000143066 4.62e-05 )  
( -0.000187878 -0.000281245 0.000137625 )  
( -5.0813e-05 -6.90429e-05 0.000319501 )  
( -0.000113823 -9.03427e-06 0.000208722 )  
( -0.000169652 0.000207934 0.000696764 )  
( -8.81507e-05 -8.18415e-06 0.000430372 )  
( -8.2319e-05 7.91843e-05 0.000441889 )  
( -0.000184489 7.55245e-05 7.38649e-05 )  
( -3.79136e-05 -1.44112e-05 9.56282e-05 )  
( -0.00021426 -0.000138757 0.000516624 )  
( -6.25373e-05 0.00068909 0.000123725 )  
( 3.19079e-05 2.09241e-07 -2.93802e-05 )  
( 7.88825e-05 -7.32753e-05 0.000106774 )  
( -9.16105e-07 -4.98795e-05 2.32152e-05 )  
( 8.7902e-05 -8.59032e-05 0.000497127 )  
( -0.000206813 1.89817e-05 0.00035492 )  
( -6.68859e-05 1.96874e-05 4.34338e-05 )  
( -0.000279166 2.81534e-05 0.000349148 )  
( -0.000155662 -7.24686e-05 0.00080756 )  
( -0.000264267 4.04485e-05 0.000697156 )  
( -1.10471e-05 -0.000278707 0.000336389 )  
( 5.47188e-05 -6.84239e-05 0.000409889 )  
( 7.41319e-05 -0.000138573 2.8638e-05 )  
( -2.26348e-05 -0.000242344 0.000376274 )  
( -3.74626e-05 3.37375e-05 0.000336961 )  
( 0.00015187 -0.000197237 8.05996e-05 )  
( -7.61378e-05 0.000100302 0.000405876 )  
( -0.000124186 9.82577e-05 0.000144744 )  
( -0.000193182 -6.34047e-06 0.000305956 )  
( 1.47778e-05 3.78711e-05 0.000618727 )  
( 0.00068703 -0.000495044 -0.000497823 )  
( 2.14256e-05 -0.000167686 0.000397916 )  
( 1.94061e-05 5.28275e-05 0.000604633 )  
( -0.000101683 1.07973e-05 0.000332698 )  
( 7.78968e-05 3.91879e-05 9.90352e-05 )  
( 5.63306e-05 -8.70336e-05 0.000365078 )  
( -0.000165051 3.11954e-05 0.000339386 )  
( 9.71936e-05 -6.46192e-05 0.000127603 )  
( -0.000134541 -0.000133216 0.000579827 )  
( 0.000122893 -8.39248e-05 0.000190064 )  
( -0.000201917 -0.000131855 0.000623403 )  
( -0.000204728 -0.000115963 9.3427e-05 )  
( -7.96416e-06 -8.78935e-05 0.000571767 )  
( -0.00031179 -0.000192469 0.000977861 )  
( 0.000107137 6.34472e-05 0.000515185 )  
( -0.00028721 -8.5608e-05 0.000328621 )  
( -0.000227522 -0.000375857 0.000456402 )  
( -0.000115679 -5.29342e-05 0.000538118 )  
( -1.46697e-05 1.06283e-05 2.53364e-05 )  
( 0.000120203 -0.00012902 0.000101412 )  
( -9.38691e-05 9.67727e-05 0.000273072 )  
( -5.04047e-06 0.000126512 0.000337848 )  
( -7.94612e-05 2.71276e-05 0.000432816 )  
( 1.40364e-05 -1.44385e-05 2.60672e-05 )  
( 0.000117163 0.000124132 0.000296148 )  
( -0.000110588 -0.00016548 0.000593112 )  
( -9.844e-06 0.000306157 0.000146273 )  
( -0.000266905 -0.000249198 0.000612573 )  
( -9.41305e-05 -0.000226641 0.000625654 )  
( 4.61802e-06 4.96473e-05 8.17616e-05 )  
( 1.74498e-05 -0.000210652 0.000749255 )  
( -0.000199037 -2.62169e-05 0.000517858 )  
( -0.00027582 -7.2753e-06 0.00018192 )  
( 2.57683e-05 3.7246e-06 0.000411079 )  
( -0.00036256 -0.000221894 0.00014264 )  
( 0.000117494 -0.000173939 0.000260206 )  
( -7.4083e-06 -1.34215e-05 4.04605e-05 )  
( -0.000159967 -0.000238514 0.000884941 )  
( -0.000219404 0.000147079 0.000236165 )  
( 0.000216391 2.21881e-05 0.000254283 )  
( -2.89171e-05 7.37192e-05 0.000192627 )  
( -7.73865e-05 -0.000223202 0.000518092 )  
( 0.000148879 -0.000141997 0.000448189 )  
( -0.000161039 0.00014918 0.000476363 )  
( -7.19182e-06 -1.11979e-05 9.32286e-06 )  
( -0.000271125 6.64843e-05 0.000962201 )  
( 7.88308e-05 -0.000122337 0.000171633 )  
( -6.68111e-05 -3.82539e-05 3.44326e-05 )  
( -0.000143273 -0.000185067 0.000714105 )  
( -1.55982e-05 6.17426e-05 0.000173113 )  
( 0.00013323 -0.000190253 0.000426652 )  
( -0.000126759 -7.03925e-05 5.29779e-05 )  
( -6.48196e-05 -0.000144602 -4.37048e-05 )  
( -6.89939e-05 1.26362e-06 0.000523229 )  
( -0.000103723 -0.000129748 0.000518977 )  
( -0.000132171 -6.53211e-05 0.000799224 )  
( -0.000208006 -7.01531e-05 0.00010124 )  
( -0.000129776 -0.000192424 0.000372335 )  
( 7.26326e-05 -0.000145474 0.000228716 )  
( 3.22408e-05 -8.08416e-05 0.00018303 )  
( -0.000202529 -0.000170554 0.000229716 )  
( -1.1489e-05 2.46119e-05 3.06028e-05 )  
( 1.9481e-06 1.74947e-05 0.000298446 )  
( -0.000527341 -0.000645148 -0.000352637 )  
( 1.76116e-05 -0.000364503 0.000482351 )  
( -6.60176e-05 -0.000206234 0.000225064 )  
( 3.1407e-05 -7.04127e-05 0.000158187 )  
( 0.000359758 0.000754421 5.3507e-05 )  
( 0.000128756 -1.08266e-06 0.000431503 )  
( 6.2174e-05 2.77325e-05 0.000248566 )  
( -9.24408e-05 -0.00019286 0.000437212 )  
( -4.89978e-05 -0.000128131 -5.4844e-05 )  
( 1.01167e-05 0.000113472 0.000234295 )  
( -0.000707984 -0.0010364 -0.00138654 )  
( 2.51907e-05 -0.000144032 -5.06372e-05 )  
( 3.60095e-05 -5.10352e-05 0.000309197 )  
( -4.86555e-05 1.47727e-05 0.00012581 )  
( -8.92757e-05 -0.000135145 0.000202548 )  
( 4.94455e-06 4.60534e-06 1.7138e-05 )  
( 5.17408e-05 0.00018161 9.3551e-05 )  
( -0.00017198 0.000519165 -6.50285e-05 )  
( -0.000166159 -0.000130879 0.000383156 )  
( 6.8168e-06 4.86319e-05 0.00043431 )  
( -5.81849e-05 -0.000107319 0.000103055 )  
( -0.000146311 -0.000128356 0.000349434 )  
( -0.00026492 -0.000261297 0.000762866 )  
( -7.30164e-05 -0.000171062 0.000161072 )  
( -8.92276e-05 1.48493e-05 0.000156647 )  
( -0.000109346 7.27089e-05 -1.48705e-05 )  
( -7.46054e-05 -0.000205117 8.93841e-05 )  
( -0.000261991 7.59209e-06 0.000680914 )  
( -0.000167563 0.000202087 0.000341215 )  
( -0.000158549 -0.000252051 0.000156333 )  
( -3.71749e-05 -3.62724e-05 0.00044094 )  
( -0.000288028 -0.000897907 -0.000226302 )  
( -0.000196287 -0.000125733 0.00019959 )  
( -8.0361e-05 1.54812e-05 0.00050704 )  
( -0.000408983 -3.11564e-06 7.40153e-05 )  
( -4.55367e-05 -0.000196748 0.000680153 )  
( -2.70241e-05 8.35049e-05 0.000361004 )  
( -1.19543e-06 -2.09355e-05 4.18652e-05 )  
( -6.24544e-05 -9.53006e-05 0.000103019 )  
( 1.96953e-05 1.39282e-05 0.000548325 )  
( -0.000275473 -0.000181843 0.000552282 )  
( -7.74416e-05 0.000196072 0.000234521 )  
( -0.000138814 0.000156702 0.000414017 )  
( -0.000120574 -0.000282264 0.000368152 )  
( -5.30982e-05 -0.000190387 -0.000133188 )  
( -0.000123178 -9.17142e-05 0.00056999 )  
( 9.76133e-05 3.62493e-05 0.000460836 )  
( 0.000117948 -2.95374e-05 0.000521834 )  
( -0.000185204 -0.000160805 0.000484111 )  
( -0.000171216 -5.22704e-05 0.000675721 )  
( -4.83442e-05 5.49754e-05 0.000157453 )  
( -0.000379505 8.45024e-06 0.000100465 )  
( -8.65326e-05 -2.65752e-05 0.000301648 )  
( -2.61314e-05 -3.16174e-05 -5.91753e-06 )  
( -0.000266386 -0.00017483 0.000407137 )  
( -6.52877e-05 -0.000142831 0.000190984 )  
( -3.10589e-05 -0.000116946 0.000395096 )  
( -0.000241489 -1.12068e-05 0.000411627 )  
( -0.000163889 0.000538817 0.000541155 )  
( -0.000386429 3.44004e-05 0.000523671 )  
( 0.000114262 -0.000289634 -0.000195244 )  
( -9.99609e-05 -9.47788e-05 2.92133e-05 )  
( -0.00128759 0.000493681 -0.000739268 )  
( 0.000182377 -3.53852e-05 0.000190265 )  
( -2.35845e-05 -2.69026e-05 0.000152491 )  
( -0.00016633 0.000552503 -0.000161976 )  
( -7.31099e-06 0.000179392 0.000343748 )  
( 2.59857e-05 1.79191e-05 0.000150622 )  
( 6.40445e-05 -0.000132904 0.000172475 )  
( -8.89511e-05 -0.000244249 0.00053136 )  
( -9.15977e-05 0.000127146 0.000507418 )  
( -3.48119e-05 -0.000351861 0.000542543 )  
( 1.6102e-05 -5.6812e-06 1.20371e-05 )  
( -7.74945e-06 -0.000485113 0.000455073 )  
( 9.63842e-05 6.79268e-06 0.000529785 )  
( 4.09943e-06 0.000516031 0.000522611 )  
( -0.000182143 3.87224e-05 0.000394856 )  
( 0.000168763 -0.000163402 0.000123973 )  
( -6.55479e-06 2.0738e-05 7.43233e-05 )  
( 0.000119451 -0.000155786 8.57118e-05 )  
( 0.000409429 2.41133e-05 0.000394629 )  
( -0.00010892 0.000121103 0.000393426 )  
( 4.67942e-05 -4.14402e-06 0.000460221 )  
( -0.000222626 -1.39608e-05 0.00045417 )  
( -0.000132634 -0.000355302 0.000850111 )  
( 7.08375e-05 -0.000295249 0.000520696 )  
( -7.23638e-05 3.24107e-05 0.000459241 )  
( 4.6533e-06 -0.00021349 0.000529047 )  
( -0.000144054 -7.81702e-05 0.000718199 )  
( -0.000174266 3.72815e-05 0.000297416 )  
( 6.54568e-05 -0.000268362 0.000179507 )  
( -0.000608838 -5.69272e-05 0.000491779 )  
( -5.00265e-05 -1.90544e-05 0.000121372 )  
( -6.61983e-05 -1.14856e-05 7.17123e-05 )  
( 1.3815e-05 0.000145581 8.60186e-05 )  
( -0.000308847 -3.73492e-05 0.000639027 )  
( 7.86615e-05 -0.000105776 8.56078e-05 )  
( -7.83115e-06 -0.000183728 0.000381125 )  
( -4.02999e-05 1.34693e-05 -6.82756e-05 )  
( -0.000144217 -0.000277798 0.000545744 )  
( -1.9969e-05 -4.38917e-05 0.000305853 )  
( 7.84386e-05 0.000210243 0.000172484 )  
( -0.000363177 0.000135651 0.0006864 )  
( -0.000231667 0.00031656 0.0005601 )  
( 1.19001e-05 -0.00024432 0.000190216 )  
( -0.000136889 0.000221885 0.00019539 )  
( 8.17241e-05 -0.00015588 -0.000192202 )  
( -0.000202549 0.000111277 0.000342791 )  
( -1.86164e-06 -2.31243e-05 5.09827e-05 )  
( 3.02507e-05 0.00023061 0.000128973 )  
( 0.000103021 7.97309e-05 0.000169854 )  
( -0.000234338 -0.000302893 0.000643258 )  
( 1.3506e-05 -0.000215822 0.000547592 )  
( -0.000219701 -6.81961e-05 0.000376337 )  
( -0.000148251 4.48165e-05 0.000464963 )  
( 4.82521e-05 -0.000456632 0.000270203 )  
( -0.000118836 -6.69233e-06 7.53906e-05 )  
( -2.15944e-05 0.000192511 0.000511116 )  
( -2.40195e-05 -9.89539e-05 -1.15961e-05 )  
( -0.000220994 -0.000231115 0.000563963 )  
( -5.91335e-05 -2.7395e-05 2.72397e-05 )  
( -0.00020373 0.000120201 0.000474233 )  
( -0.000113916 -0.000153687 -7.39114e-05 )  
( -0.0001048 2.19648e-05 0.000331139 )  
( 9.0408e-05 -0.000192736 0.000455237 )  
( -0.000379247 -0.000318609 0.000284104 )  
( 8.38703e-05 8.41865e-06 8.04823e-05 )  
( -0.000271448 -0.000157882 8.56142e-05 )  
( -6.13931e-05 -0.000163515 3.93109e-05 )  
( 4.62739e-05 -7.54163e-05 0.000357236 )  
( 2.14143e-05 3.27806e-05 0.000106951 )  
( -6.74137e-05 0.000136234 0.000181758 )  
( -0.000157554 -6.89962e-05 0.000207428 )  
( -0.000132349 -2.0962e-05 0.000374475 )  
( -1.69425e-05 -9.03349e-05 0.000118034 )  
( -2.60993e-05 -4.41153e-06 0.000464017 )  
( -7.62698e-05 -8.22368e-05 0.000514152 )  
( -1.3437e-05 -7.63538e-05 0.00025579 )  
( -4.81987e-05 0.000123964 0.000242924 )  
( -0.000311295 -0.000321131 0.00114388 )  
( -2.39816e-05 -0.000254163 0.000359403 )  
( -0.000446464 3.55388e-05 -1.85582e-05 )  
( -9.51728e-05 4.97681e-05 0.000318703 )  
( 9.70652e-06 0.000128979 0.000268871 )  
( -0.000197914 -2.19122e-05 0.000791368 )  
( 0.000467745 0.000459697 0.000462332 )  
( 0.000102683 -1.16796e-05 0.00010099 )  
( -0.000140844 -7.13845e-05 0.000259049 )  
( 0.000137057 1.68132e-05 0.000218305 )  
( -4.50696e-05 4.23863e-05 0.000196443 )  
( -9.44617e-05 -1.25921e-06 0.000625728 )  
( -0.00016549 7.57218e-05 0.000138054 )  
( -6.67492e-05 -3.5875e-05 3.97523e-05 )  
( -6.18838e-05 4.1639e-05 0.000512568 )  
( 5.24351e-05 0.00010692 0.000336055 )  
( 1.40271e-05 -1.2836e-05 1.5354e-05 )  
( 0.000106675 -1.48523e-05 0.000410107 )  
( -6.3027e-05 6.8606e-05 0.000387273 )  
( -0.000101358 -4.73764e-05 0.000487615 )  
( -9.219e-05 -0.000130767 0.000593749 )  
( -0.000104444 0.000172837 0.0002972 )  
( -3.5594e-05 -4.14628e-05 -5.46839e-06 )  
( -0.000496038 -0.000252635 -0.000560684 )  
( -3.97994e-05 -2.67927e-05 0.000323239 )  
( -8.94643e-05 2.72909e-05 0.000522034 )  
( -6.26591e-05 4.24838e-05 7.50323e-06 )  
( 3.4622e-05 0.000101861 4.29619e-05 )  
( -0.000225421 -0.000127406 0.000776135 )  
( -0.000107631 -5.91458e-05 0.000502175 )  
( -3.64749e-05 -0.000135787 0.000250157 )  
( -0.000174616 -9.64104e-05 0.000309684 )  
( -0.000468179 0.000560196 0.000458026 )  
( -0.000178166 -1.24161e-05 0.000583803 )  
( -5.80093e-05 -0.000159295 0.000790703 )  
( -0.000203283 -0.00024142 0.000268216 )  
( -1.42909e-05 -3.65169e-05 0.000124997 )  
( -9.19312e-05 -6.49096e-05 0.000357866 )  
( -2.12347e-05 0.000132379 0.000544618 )  
( 0.000131093 -9.74626e-05 0.000199257 )  
( -0.000180076 -0.000129683 0.00028811 )  
( -0.000281989 0.000114996 0.000493509 )  
( 0.000203619 0.000316184 -5.22635e-05 )  
( -0.000178174 0.0001197 0.000381346 )  
( -0.000270886 -8.13052e-05 0.000207619 )  
( -4.37138e-05 -6.75994e-05 0.000280436 )  
( -0.000103309 -3.44097e-05 0.000209191 )  
( -0.000119554 -0.000274679 0.000714575 )  
( 0.000113151 -0.000115934 0.000201592 )  
( -0.000321899 0.000126355 0.000231243 )  
( -0.000245109 -0.000255238 0.000587361 )  
( -0.000123009 -7.60932e-05 0.000280024 )  
( 0.000107559 2.33896e-06 0.000443869 )  
( 0.000349789 4.00603e-05 7.71204e-05 )  
( -3.67115e-05 0.00174938 -2.51854e-07 )  
( 0.000333007 0.000356745 -0.000108705 )  
( -0.000103605 8.18354e-05 0.000227829 )  
( -0.000109619 -4.99227e-05 0.000193416 )  
( -2.8512e-05 2.32779e-05 4.98943e-05 )  
( -0.00034694 4.3994e-05 0.000307293 )  
( -5.10624e-05 5.55433e-05 0.000317524 )  
( -0.000204348 -0.000108149 0.000198403 )  
( -0.000113875 -0.000144758 -0.000121176 )  
( -0.000237785 -7.94446e-05 0.00065714 )  
( -8.71582e-05 6.02748e-05 0.000200621 )  
( -1.52656e-05 -6.75775e-05 0.000453732 )  
( 0.000105456 -7.26459e-05 0.000184573 )  
( -1.59462e-05 -6.77926e-05 0.000122898 )  
( -0.000172212 0.000443969 0.000342685 )  
( 0.000103912 1.35641e-05 1.40677e-05 )  
( -0.000123141 -0.00096305 0.000908155 )  
( 9.332e-05 6.09202e-05 8.36792e-06 )  
( -0.000286191 0.000279367 0.000517437 )  
( 9.70315e-06 5.71796e-05 0.000572219 )  
( -0.000377257 -4.58356e-05 0.000223199 )  
( -2.86804e-05 0.000283481 0.000229812 )  
( -0.000204672 0.000155756 0.00038324 )  
( -0.00031632 -3.13563e-05 0.000463633 )  
( -0.000511594 0.00010766 0.000294733 )  
( -0.000192925 -4.32341e-06 0.000281348 )  
( -3.1373e-05 0.000150277 0.0004102 )  
( 1.38917e-05 -2.61084e-05 7.27829e-05 )  
( -2.21543e-05 -0.000105097 0.000333931 )  
( -2.20849e-05 -0.000220742 0.00031865 )  
( 7.93381e-05 0.000761025 0.000534581 )  
( 5.38109e-05 3.14691e-05 0.000187386 )  
( -4.55646e-05 4.68065e-05 0.000254033 )  
( 3.48035e-05 -0.000152131 1.57255e-05 )  
( -0.000138439 -1.50763e-05 0.000506416 )  
( -0.000133314 0.00019225 6.40862e-05 )  
( 9.06611e-05 -7.77828e-05 0.000129897 )  
( -0.000130864 9.17002e-05 0.000470101 )  
( -0.000292242 -0.000209782 0.000552176 )  
( 0.000177048 -3.89679e-05 -0.0002561 )  
( -3.94307e-06 -6.32953e-05 7.8199e-05 )  
( 3.73966e-05 -0.000159824 0.000207739 )  
( 0.000155641 -0.000321939 0.000601018 )  
( 6.22136e-05 -0.000222053 0.000598807 )  
( -2.99045e-05 -8.15297e-05 0.000148739 )  
( -0.000530722 8.02795e-06 0.000117117 )  
( 2.30612e-05 4.53025e-05 0.000419265 )  
( -0.000370647 -5.14849e-05 3.60603e-05 )  
( -0.000156106 -0.000126817 5.21788e-06 )  
( -1.08161e-05 -3.77776e-06 9.06549e-05 )  
( -2.06207e-05 4.04439e-05 0.000134115 )  
( 0.000241016 -6.48954e-05 -0.000211825 )  
( -0.000659801 -6.96623e-05 0.000367293 )  
( -0.000218303 -0.00019077 0.000661149 )  
( 9.22364e-05 -0.000176231 0.00022934 )  
( 1.84723e-05 5.95202e-05 1.81663e-05 )  
( 0.000227919 -0.000325695 0.00020894 )  
( -4.10957e-06 -2.72948e-05 0.000126263 )  
( -0.000313607 2.26118e-05 0.000555515 )  
( -0.000219172 -3.96783e-05 0.000327507 )  
( -0.000149708 -0.000246617 -2.48265e-05 )  
( 0.000106557 -0.000112249 0.000333094 )  
( 0.000246286 -0.00014254 0.000130334 )  
( 3.83688e-05 -0.000114922 4.96967e-05 )  
( 0.000102385 4.8438e-05 1.84634e-05 )  
( -0.000207182 -7.43615e-05 0.000180285 )  
( -6.80745e-05 -0.000255814 -9.33875e-05 )  
( -0.000337857 -0.000276304 0.00124246 )  
( -0.000355997 -0.000299531 0.000443629 )  
( -0.000125756 -0.000195357 0.000644401 )  
( -2.54511e-05 -0.000418803 0.000287616 )  
( 0.000146003 -0.000334631 0.000316681 )  
( -0.000102675 -8.02853e-05 0.00061524 )  
( -0.000217414 -5.38379e-05 0.00063158 )  
( 9.67472e-05 -0.000213782 0.000203687 )  
( 3.4276e-05 -9.15786e-05 6.7803e-05 )  
( 0.000153353 1.03843e-05 -6.78707e-05 )  
( -4.27287e-05 0.000129524 0.000338084 )  
( 4.56434e-05 4.7406e-05 0.000247603 )  
( -2.16673e-05 0.000103865 0.000855109 )  
( -5.60019e-05 -9.4637e-05 0.000561296 )  
( 0.000423138 -0.00031785 3.99056e-05 )  
( -0.00019182 0.000161644 0.000390035 )  
( -0.000110013 8.9681e-05 0.000429479 )  
( -0.000209681 6.47054e-06 0.000391088 )  
( 4.70241e-05 -7.12468e-05 4.00038e-05 )  
( -0.000242591 -0.000240528 -3.77324e-07 )  
( -0.000131563 -7.366e-05 1.35754e-05 )  
( 0.000611509 -3.39182e-05 3.77803e-05 )  
( 6.17553e-05 -8.44281e-05 0.000160648 )  
( -0.000189661 -0.000103392 0.000538257 )  
( 0.000109463 -3.70175e-05 -5.1465e-06 )  
( -0.00013478 -0.00030149 0.000610029 )  
( 0.000177355 -0.000132793 0.000192483 )  
( -3.04066e-05 -0.000116482 0.000254511 )  
( -3.53852e-05 9.35544e-05 0.000200108 )  
( -0.000248927 -3.2062e-06 -7.8319e-05 )  
( 4.37393e-05 0.000293457 -6.78983e-05 )  
( -0.000171392 -0.000165141 0.00045718 )  
( -0.000133036 2.9133e-05 0.000426464 )  
( -0.000118281 7.2705e-05 0.000146375 )  
( 3.74782e-05 6.39703e-05 0.000421059 )  
( -6.30236e-05 0.000159319 0.000293875 )  
( -0.000299696 0.000177497 -0.000100474 )  
( 7.81943e-05 -2.2633e-06 -4.77839e-06 )  
( -0.000120529 6.62538e-05 0.000362087 )  
( -2.46328e-06 -3.20508e-05 0.000311687 )  
( -0.000275763 -9.8109e-06 0.000333076 )  
( -5.02055e-05 2.99719e-06 0.000709946 )  
( 2.32984e-05 1.4986e-05 1.13302e-05 )  
( -0.000453957 -0.000141493 0.000606406 )  
( -1.70676e-05 2.09516e-05 0.000547833 )  
( -2.16149e-05 4.27087e-06 4.93072e-05 )  
( 0.000644986 0.000636365 0.000252274 )  
( 0.000118258 -0.000306542 0.000230852 )  
( -0.000652674 0.000373566 0.000372253 )  
( 9.78256e-06 -5.1784e-05 0.000291543 )  
( -0.000111618 7.0933e-05 0.000352252 )  
( -0.000232485 -0.000199812 0.000425029 )  
( 6.40091e-05 -0.000229493 0.000550569 )  
( 2.88082e-05 3.46904e-05 2.09508e-05 )  
( -0.000117781 -0.000308827 0.000403401 )  
( -1.32493e-06 -3.14594e-05 0.00037246 )  
( -0.000258474 -4.39176e-05 0.00048325 )  
( -0.000227345 0.000112665 0.00040672 )  
( -2.18873e-05 -2.92777e-05 -1.77436e-05 )  
( 6.47484e-05 -3.98674e-05 -8.39578e-05 )  
( 0.000105761 -7.24837e-05 0.000366175 )  
( -8.26628e-05 -0.000103271 8.70517e-05 )  
( -0.000153768 -0.000120064 9.16517e-05 )  
( -3.78653e-05 -1.81767e-05 0.000272256 )  
( -0.000325625 -0.000173486 0.00026798 )  
( -0.000198965 -9.68367e-05 0.000398055 )  
( -6.52455e-05 -5.97289e-05 0.000260931 )  
( 0.000369771 -0.000261695 0.000268805 )  
( -5.18807e-05 -0.00062059 0.000240905 )  
( -5.90551e-05 0.000103447 0.000190806 )  
( 3.93884e-05 -6.03395e-05 4.43776e-05 )  
( -0.000205752 -0.000368971 0.00130313 )  
( 1.40085e-06 -4.80751e-07 3.29968e-05 )  
( -7.3931e-06 -5.39018e-05 5.47732e-05 )  
( -8.8751e-05 -0.00027424 0.000132461 )  
( -0.000272799 7.52924e-05 0.000175855 )  
( -0.000185309 -0.000160752 7.45007e-05 )  
( 8.87425e-06 -0.0002478 0.000503964 )  
( -0.000145905 0.000123821 6.5297e-05 )  
( -0.000207769 -0.000241801 0.000565258 )  
( -0.000164766 1.58474e-05 0.000317587 )  
( -0.000168833 4.60963e-05 0.000367519 )  
( -0.000303334 0.000165269 0.000199467 )  
( -0.000138676 -8.8012e-05 3.03198e-05 )  
( 7.11722e-05 -0.00018382 0.000210579 )  
( -6.09802e-05 0.000401882 0.000442501 )  
( 6.15346e-05 -0.000293534 0.000560616 )  
( -0.000247198 5.80834e-05 8.83976e-05 )  
( -0.000161112 -5.40992e-06 0.000142667 )  
( 0.000154995 -0.000164656 0.000128065 )  
( -5.13262e-05 -0.000138491 0.000600392 )  
( -9.71952e-05 -7.57381e-05 0.000551352 )  
( -4.33891e-05 -5.67726e-06 5.42709e-05 )  
( 5.31227e-05 0.000417138 0.0004725 )  
( 3.01528e-06 -3.67421e-06 0.000266234 )  
( 8.833e-05 -2.20905e-05 -0.000140008 )  
( -0.000120724 -0.000209771 0.000893819 )  
( -0.000223088 -9.68732e-05 -0.000147957 )  
( -0.000201288 -0.00037377 0.000228854 )  
( -0.000485281 4.21908e-05 0.000513326 )  
( -0.000609419 1.82624e-05 0.000253303 )  
( -0.000128824 -6.12789e-06 0.000158769 )  
( -9.9327e-05 0.000126213 0.000517774 )  
( 1.66617e-05 0.000138566 7.88044e-05 )  
( -0.000112965 -0.000590666 0.000359603 )  
( -4.14683e-05 -4.07078e-05 2.28893e-05 )  
( -3.75121e-05 -7.38214e-05 0.000450275 )  
( -0.000195066 -0.000182655 0.000382731 )  
( 0.000135106 -0.000100784 0.000224776 )  
( -0.000201719 -6.4897e-05 0.000305653 )  
( 4.6527e-05 -0.000147071 8.8933e-06 )  
( -0.000168531 0.00022795 0.000246535 )  
( -1.62131e-05 -0.000260325 0.000308859 )  
( -1.30606e-05 7.76477e-05 0.000424925 )  
( -0.000230649 -0.000122071 0.00073543 )  
( -0.000207783 -0.000151786 0.000422191 )  
( -2.36556e-05 -4.68327e-05 0.000793224 )  
( 2.15107e-05 -1.68879e-05 6.66748e-05 )  
( -9.34148e-05 7.69391e-05 0.000448396 )  
( -0.000290658 -0.000343965 -0.000189699 )  
( -8.32386e-06 0.000177753 0.000378079 )  
( -0.000239655 -0.000138595 0.000346018 )  
( 1.14852e-05 9.68136e-05 0.000266045 )  
( -0.000306962 0.000159186 0.000416699 )  
( -0.000124132 -9.87051e-05 0.000635832 )  
( -0.00018522 -8.44911e-05 0.000298919 )  
( -0.000195843 -7.65136e-05 0.000526388 )  
( -0.000160264 6.56349e-05 0.000397794 )  
( 0.000415568 0.000319687 -0.000188853 )  
( 5.36149e-05 -0.000255946 0.000582705 )  
( -4.23001e-05 -0.000201506 0.000493514 )  
( -0.000517211 2.74653e-05 0.000471073 )  
( 1.532e-05 -0.000123042 0.000372482 )  
( -0.000296641 3.71884e-05 7.41156e-05 )  
( -1.5534e-05 1.77926e-05 0.000356289 )  
( -0.000459329 1.14639e-05 -8.5303e-05 )  
( -4.92215e-05 7.28534e-05 0.000330523 )  
( -0.000301384 2.74006e-05 0.000229364 )  
( 8.28744e-05 -7.3384e-05 1.91523e-05 )  
( -3.47011e-05 -4.98614e-05 0.000105818 )  
( 3.27055e-05 -1.88933e-05 0.000309289 )  
( -2.26816e-06 -8.45741e-05 4.5107e-06 )  
( -0.000631635 -0.000183273 -0.000398575 )  
( -0.00029017 7.32393e-05 0.00034595 )  
( -4.23606e-05 -9.47128e-05 0.000255423 )  
( -0.000152707 -0.000155317 0.000521687 )  
( -0.00018474 -1.07698e-05 6.06619e-05 )  
( -0.00014121 -0.000203069 0.00066802 )  
( -0.000110269 -0.000331993 0.000642601 )  
( 3.72106e-06 6.79357e-05 0.000290891 )  
( -0.000392125 -0.000224794 0.000229944 )  
( 7.66303e-05 0.000199826 0.0011361 )  
( 4.92148e-05 -7.40739e-05 -1.97319e-06 )  
( 3.62072e-05 -6.45677e-05 5.51372e-05 )  
( -0.000130584 -2.85938e-06 -0.00011096 )  
( -0.000175058 -5.1697e-05 0.000567735 )  
( -0.000151653 -0.000184704 0.000661969 )  
( -3.72379e-05 -3.1456e-05 4.2701e-05 )  
( -0.00026974 -0.000346122 0.000405879 )  
( -0.000106851 -9.28408e-05 0.000258615 )  
( -0.000136419 -0.000154089 -0.000143273 )  
( 3.33042e-06 -0.000229858 0.000262783 )  
( -5.68596e-05 -0.000120353 0.00031541 )  
( 0.000234948 -0.000188005 0.000118733 )  
( -8.64516e-05 -5.8567e-05 0.000476894 )  
( -4.62492e-05 0.000298181 0.000543952 )  
( -0.000173171 -4.55018e-05 6.96789e-05 )  
( -0.000297157 -4.6685e-05 0.000247361 )  
( -0.000149595 7.54332e-05 0.000437004 )  
( 0.00030819 0.00264866 0.000438968 )  
( 0.00012246 -7.75573e-05 0.00012033 )  
( -0.000434575 0.00115712 -1.03367e-07 )  
( -7.54531e-05 -5.92414e-05 0.000105737 )  
( -0.00011983 -0.000201321 0.00054509 )  
( -0.00027557 7.33604e-05 0.000591794 )  
( -5.57869e-05 -0.000100697 -1.17495e-06 )  
( 9.07833e-05 -1.81175e-05 0.000589365 )  
( -7.0776e-05 -3.98605e-05 2.00745e-05 )  
( -2.06142e-05 1.91913e-05 0.000188371 )  
( -0.000161165 -2.32336e-05 9.93836e-05 )  
( 7.42747e-05 8.17836e-05 0.000185663 )  
( -0.000270204 -6.11753e-05 9.95516e-05 )  
( 3.60698e-05 4.0709e-05 0.000253074 )  
( 3.07719e-05 4.34831e-05 0.00038953 )  
( -0.000207708 -0.000276633 0.000569997 )  
( -0.000154148 8.48188e-05 0.000310993 )  
( -0.000237502 -0.000111153 0.000600743 )  
( -0.000120554 3.47162e-05 0.000695261 )  
( 6.00082e-05 2.6646e-05 -1.98715e-06 )  
( 3.61585e-05 0.000159086 0.000184456 )  
( -2.58292e-05 -0.000596484 0.000457757 )  
( 1.85132e-05 -0.000164006 0.000196073 )  
( 0.000123471 -3.37374e-06 0.000232041 )  
( -0.00019465 -6.23454e-05 8.19032e-05 )  
( -4.13163e-05 -4.82948e-05 0.000409512 )  
( 0.000143418 -2.28265e-05 -2.20225e-05 )  
( 0.000111638 -8.14654e-05 0.000435242 )  
( -0.000264716 -5.38248e-05 0.000437853 )  
( 0.000101676 -7.54571e-05 0.000245439 )  
( 4.87383e-05 -3.61361e-05 8.24172e-05 )  
( -5.12385e-06 -5.19985e-05 0.000306346 )  
( 9.84738e-05 -5.96943e-05 0.000396865 )  
( -0.000226205 -6.68682e-05 0.000721825 )  
( -4.98732e-05 7.08917e-05 0.000389997 )  
( -0.000141088 -0.00013901 0.000437241 )  
( 4.39203e-05 3.12254e-05 0.000276877 )  
( -6.07878e-05 -0.000153305 -1.13623e-05 )  
( -0.000312213 2.95418e-05 0.000198701 )  
( 0.000232294 -0.000254497 0.000166517 )  
( -0.00018507 -7.67591e-05 0.000357967 )  
( 4.52282e-05 -2.9679e-05 0.000398126 )  
( -0.000114407 -4.69476e-05 0.000286585 )  
( -0.000248837 8.04276e-05 0.000508162 )  
( -0.000144035 -7.05662e-05 0.000630754 )  
( -7.64307e-05 0.000120117 0.000440737 )  
( -0.000177674 -0.000121616 0.000794189 )  
( 0.000517626 0.000437426 0.0002372 )  
( -2.30958e-05 3.08193e-05 0.000222334 )  
( 0.000112353 2.5474e-05 -6.99459e-07 )  
( -0.000309837 0.000149038 0.000421653 )  
( -3.07442e-05 -7.52021e-05 2.63817e-05 )  
( -0.000180871 -5.28497e-05 0.000317367 )  
( -0.000196703 0.000148277 0.00032088 )  
( 6.82445e-05 -0.000242919 0.000194619 )  
( -0.000197472 -2.2839e-05 0.000450104 )  
( -0.0001265 -7.6538e-05 -2.78756e-05 )  
( 1.18274e-05 7.26521e-06 5.06705e-05 )  
( -0.000100136 0.000133625 0.000393622 )  
( -0.000131776 -8.86206e-08 0.000324166 )  
( 1.50838e-05 -6.3627e-05 0.000519312 )  
( 2.88613e-05 -0.000264118 0.000434497 )  
( -0.000197117 -0.000219991 0.000579813 )  
( 4.37247e-05 0.000128648 -4.02279e-06 )  
( -0.000295111 8.95508e-05 0.000364305 )  
( 0.000475589 -0.000791976 -0.000931989 )  
( 8.81565e-05 3.93118e-05 0.000499017 )  
( 8.84323e-05 0.000277173 7.13656e-05 )  
( -9.06838e-05 0.000120348 0.000520082 )  
( -0.000421492 -0.000999975 -0.000130251 )  
( 4.84489e-05 -0.00027617 -6.55741e-05 )  
( 9.92292e-05 -0.000130231 0.000148404 )  
( 0.000240834 3.43324e-05 5.29893e-05 )  
( 6.736e-05 -5.21772e-05 0.000188876 )  
( -0.000105047 -0.00019522 -3.644e-05 )  
( -4.02451e-05 -3.25993e-05 0.0004648 )  
( -0.00014774 -3.04502e-05 0.000323957 )  
( -0.000450482 -0.000154825 7.45153e-05 )  
( -8.45019e-05 -1.42143e-05 9.66738e-05 )  
( -0.000164008 5.16388e-05 0.000289462 )  
( -9.21663e-05 -5.60015e-05 0.000101999 )  
( -0.000169442 9.65429e-05 0.000294501 )  
( -0.00024814 -0.000169349 -0.000337064 )  
( 6.41993e-05 6.03033e-05 0.000269073 )  
( -0.000226939 0.000266949 0.000593541 )  
( -5.18296e-05 7.55272e-05 0.000462871 )  
( -0.000126935 -0.00021673 4.12714e-05 )  
( -1.72777e-05 -9.70213e-05 0.000462738 )  
( 2.64308e-05 -0.000157464 8.05242e-05 )  
( -4.02595e-05 -1.97398e-05 -4.89816e-05 )  
( -0.000196219 6.80631e-05 0.000434285 )  
( -4.34622e-05 6.52123e-05 -5.86557e-05 )  
( -7.50713e-05 -0.000112085 0.000325773 )  
( 0.000273393 -1.72502e-06 6.83439e-05 )  
( -2.90594e-05 7.72551e-06 6.76565e-05 )  
( -0.000248643 -0.000146931 -2.0517e-05 )  
( -0.000163367 -0.000514288 -7.04093e-05 )  
( -0.00012558 -0.000182781 0.000382198 )  
( 2.26972e-05 4.70948e-05 0.000335109 )  
( 0.000279527 -0.000181084 0.000262545 )  
( -7.10494e-05 0.000226031 0.000126166 )  
( -0.000399461 6.80321e-05 -0.000350323 )  
( -1.68986e-05 -0.000182785 0.000378414 )  
( -1.78624e-05 -0.000313451 5.30347e-05 )  
( -1.96606e-05 -1.7025e-05 4.94517e-05 )  
( -2.9757e-05 1.17926e-05 -2.22505e-05 )  
( -0.000473507 3.50993e-05 0.000444429 )  
( 0.000274902 -3.66146e-05 0.000207893 )  
( -1.09119e-05 -0.000147066 0.000196601 )  
( 0.000125636 -0.000194364 0.000634887 )  
( 1.69467e-05 -8.56356e-05 -2.73169e-06 )  
( -0.000191661 -9.59104e-05 0.00017228 )  
( 5.78582e-05 -0.000211934 -7.56681e-06 )  
( -0.000267816 -8.91651e-05 0.000200072 )  
( -6.29756e-05 -0.000165009 0.000232322 )  
( 6.36806e-05 -2.76015e-05 3.62144e-05 )  
( 2.87307e-05 0.000177838 -3.13483e-05 )  
( -0.000102589 -9.75708e-06 0.000350774 )  
( -9.18353e-05 2.40865e-05 0.000198447 )  
( -0.00014417 -0.000269797 0.000166024 )  
( 1.41328e-06 -4.63118e-05 0.000427171 )  
( -0.000166978 0.000110159 0.000620363 )  
( -0.000320109 -5.99382e-05 2.2807e-05 )  
( -0.000284761 -0.000448965 0.000374024 )  
( -0.000137087 -1.06252e-05 -3.70221e-06 )  
( -0.000151455 5.16737e-05 -5.73042e-05 )  
( -1.85149e-05 -8.25367e-05 0.000100658 )  