ITEM: TIMESTEP
5000
ITEM: NUMBER OF ATOMS
1000
ITEM: BOX BOUNDS pp ff ff
0 0.4
0 0.1
0 0.1
ITEM: ATOMS id type type x y z ix iy iz vx vy vz fx fy fz omegax omegay omegaz radius 
49 1 1 0.0759994 0.0226156 0.0629713 0 0 0 0 0 1.49045 0 0 1.0273e-05 0 0 0 0.0005 
106 1 1 0.0891961 0.0193135 0.0637114 0 0 0 0 0 1.49045 0 0 1.0273e-05 0 0 0 0.0005 
203 1 1 0.053183 0.046213 0.0640676 0 0 0 0 0 1.49045 0 0 1.0273e-05 0 0 0 0.0005 
139 1 1 0.0430293 0.0934076 0.0637355 0 0 0 0 0 1.49045 0 0 1.0273e-05 0 0 0 0.0005 
58 1 1 0.0514745 0.032082 0.0650692 0 0 0 0 0 1.49045 0 0 1.0273e-05 0 0 0 0.0005 
147 1 1 0.0641181 0.0326592 0.0650494 0 0 0 0 0 1.49045 0 0 1.0273e-05 0 0 0 0.0005 
116 1 1 0.0619647 0.0399894 0.0644414 0 0 0 0 0 1.49045 0 0 1.0273e-05 0 0 0 0.0005 
136 1 1 0.0374813 0.0481409 0.0658077 0 0 0 0 0 1.49045 0 0 1.0273e-05 0 0 0 0.0005 
119 1 1 0.0703018 0.0626824 0.0661024 0 0 0 0 0 1.49045 0 0 1.0273e-05 0 0 0 0.0005 
229 1 1 0.0931459 0.00243978 0.0676767 0 0 0 0 0 1.49045 0 0 1.0273e-05 0 0 0 0.0005 
189 1 1 0.0695327 0.035783 0.0676645 0 0 0 0 0 1.49045 0 0 1.0273e-05 0 0 0 0.0005 
115 1 1 0.0220386 0.00322524 0.0688403 0 0 0 0 0 1.49045 0 0 1.0273e-05 0 0 0 0.0005 
48 1 1 0.0225493 0.0852625 0.0697336 0 0 0 0 0 1.49045 0 0 1.0273e-05 0 0 0 0.0005 
246 1 1 0.0948119 0.00368946 0.0710127 0 0 0 0 0 1.49045 0 0 1.0273e-05 0 0 0 0.0005 
63 1 1 0.0234632 0.0461479 0.0703623 0 0 0 0 0 1.49045 0 0 1.0273e-05 0 0 0 0.0005 
100 1 1 0.079965 0.0722799 0.0704647 0 0 0 0 0 1.49045 0 0 1.0273e-05 0 0 0 0.0005 
112 1 1 0.00627855 0.0236693 0.0717213 0 0 0 0 0 1.49045 0 0 1.0273e-05 0 0 0 0.0005 
83 1 1 0.0906796 0.0527227 0.0720102 0 0 0 0 0 1.49045 0 0 1.0273e-05 0 0 0 0.0005 
82 1 1 0.0571997 0.0559475 0.0720975 0 0 0 0 0 1.49045 0 0 1.0273e-05 0 0 0 0.0005 
89 1 1 0.0432011 0.0816094 0.0719215 0 0 0 0 0 1.49045 0 0 1.0273e-05 0 0 0 0.0005 
227 1 1 0.0554368 0.0261564 0.0728072 0 0 0 0 0 1.49045 0 0 1.0273e-05 0 0 0 0.0005 
185 1 1 0.0206719 0.0329809 0.0730118 0 0 0 0 0 1.49045 0 0 1.0273e-05 0 0 0 0.0005 
1 1 1 0.0287104 0.0356584 0.0725274 0 0 0 0 0 1.49045 0 0 1.0273e-05 0 0 0 0.0005 
122 1 1 0.0163363 0.0635218 0.0730657 0 0 0 0 0 1.49045 0 0 1.0273e-05 0 0 0 0.0005 
20 1 1 0.0151829 0.0794021 0.0729113 0 0 0 0 0 1.49045 0 0 1.0273e-05 0 0 0 0.0005 
149 1 1 0.0342644 0.0810799 0.0726838 0 0 0 0 0 1.49045 0 0 1.0273e-05 0 0 0 0.0005 
4 1 1 0.0923906 0.00891957 0.0734661 0 0 0 0 0 1.49045 0 0 1.0273e-05 0 0 0 0.0005 
32 1 1 0.064296 0.0231697 0.0746634 0 0 0 0 0 1.49045 0 0 1.0273e-05 0 0 0 0.0005 
71 1 1 0.0143884 0.0255734 0.0749763 0 0 0 0 0 1.49045 0 0 1.0273e-05 0 0 0 0.0005 
132 1 1 0.0971452 0.0194986 0.0754273 0 0 0 0 0 1.49045 0 0 1.0273e-05 0 0 0 0.0005 
7 1 1 0.0184186 0.0613562 0.0757873 0 0 0 0 0 1.49045 0 0 1.0273e-05 0 0 0 0.0005 
191 1 1 0.0552847 0.0701025 0.0757348 0 0 0 0 0 1.49045 0 0 1.0273e-05 0 0 0 0.0005 
75 1 1 0.0816975 0.0895706 0.0755438 0 0 0 0 0 1.49045 0 0 1.0273e-05 0 0 0 0.0005 
134 1 1 0.0798419 0.00201192 0.0765175 0 0 0 0 0 1.49045 0 0 1.0273e-05 0 0 0 0.0005 
193 1 1 0.0957911 0.0613028 0.0775846 0 0 0 0 0 1.49045 0 0 1.0273e-05 0 0 0 0.0005 
155 1 1 0.0624449 0.011526 0.0790283 0 0 0 0 0 1.49045 0 0 1.0273e-05 0 0 0 0.0005 
169 1 1 0.0285035 0.0586076 0.0795455 0 0 0 0 0 1.49045 0 0 1.0273e-05 0 0 0 0.0005 
125 1 1 0.0302548 0.0930932 0.0796402 0 0 0 0 0 1.49045 0 0 1.0273e-05 0 0 0 0.0005 
228 1 1 0.0342479 0.00484432 0.0806824 0 0 0 0 0 1.49045 0 0 1.0273e-05 0 0 0 0.0005 
39 1 1 0.0837183 0.0536989 0.0803611 0 0 0 0 0 1.49045 0 0 1.0273e-05 0 0 0 0.0005 
101 1 1 0.0641145 0.0725542 0.081144 0 0 0 0 0 1.49045 0 0 1.0273e-05 0 0 0 0.0005 
188 1 1 0.0391351 0.0432808 0.0820317 0 0 0 0 0 1.49045 0 0 1.0273e-05 0 0 0 0.0005 
114 1 1 0.00384148 0.063796 0.0815231 0 0 0 0 0 1.49045 0 0 1.0273e-05 0 0 0 0.0005 
197 1 1 0.025441 0.0869233 0.0819568 0 0 0 0 0 1.49045 0 0 1.0273e-05 0 0 0 0.0005 
35 1 1 0.0725404 0.0865603 0.0820282 0 0 0 0 0 1.49045 0 0 1.0273e-05 0 0 0 0.0005 
51 1 1 0.0241705 0.0341179 0.0825763 0 0 0 0 0 1.49045 0 0 1.0273e-05 0 0 0 0.0005 
142 1 1 0.0270526 0.0729589 0.0826549 0 0 0 0 0 1.49045 0 0 1.0273e-05 0 0 0 0.0005 
211 1 1 0.0621164 0.090053 0.0824907 0 0 0 0 0 1.49045 0 0 1.0273e-05 0 0 0 0.0005 
153 1 1 0.0704762 0.092897 0.0822891 0 0 0 0 0 1.49045 0 0 1.0273e-05 0 0 0 0.0005 
70 1 1 0.0527626 0.0805332 0.0833195 0 0 0 0 0 1.49045 0 0 1.0273e-05 0 0 0 0.0005 
31 1 1 0.0646222 0.00457085 0.084572 0 0 0 0 0 1.49045 0 0 1.0273e-05 0 0 0 0.0005 
146 1 1 0.0391814 0.0213972 0.0846195 0 0 0 0 0 1.49045 0 0 1.0273e-05 0 0 0 0.0005 
37 1 1 0.065431 0.0987042 0.0845229 0 0 0 0 0 1.49045 0 0 1.0273e-05 0 0 0 0.0005 
21 1 1 0.0830791 0.0102947 0.0856666 0 0 0 0 0 1.49045 0 0 1.0273e-05 0 0 0 0.0005 
38 1 1 0.0405652 0.0788911 0.0855786 0 0 0 0 0 1.49045 0 0 1.0273e-05 0 0 0 0.0005 
145 1 1 0.0765448 0.087935 0.0858318 0 0 0 0 0 1.49045 0 0 1.0273e-05 0 0 0 0.0005 
23 1 1 0.0994523 0.0953367 0.0857748 0 0 0 0 0 1.49045 0 0 1.0273e-05 0 0 0 0.0005 
109 1 1 0.0904769 0.0446793 0.0871676 0 0 0 0 0 1.49045 0 0 1.0273e-05 0 0 0 0.0005 
45 1 1 0.0750015 0.0497546 0.0879855 0 0 0 0 0 1.49045 0 0 1.0273e-05 0 0 0 0.0005 
247 1 1 0.0747282 0.0572098 0.0877519 0 0 0 0 0 1.49045 0 0 1.0273e-05 0 0 0 0.0005 
127 1 1 0.0255407 0.0631954 0.0874195 0 0 0 0 0 1.49045 0 0 1.0273e-05 0 0 0 0.0005 
97 1 1 0.0918823 0.0659859 0.0879774 0 0 0 0 0 1.49045 0 0 1.0273e-05 0 0 0 0.0005 
163 1 1 0.0559095 0.071085 0.0874416 0 0 0 0 0 1.49045 0 0 1.0273e-05 0 0 0 0.0005 
33 1 1 0.0311583 0.0783736 0.0879936 0 0 0 0 0 1.49045 0 0 1.0273e-05 0 0 0 0.0005 
135 1 1 0.0929425 0.0840022 0.0874977 0 0 0 0 0 1.49045 0 0 1.0273e-05 0 0 0 0.0005 
90 1 1 0.0487808 0.0592328 0.0885828 0 0 0 0 0 1.49045 0 0 1.0273e-05 0 0 0 0.0005 
219 1 1 0.0375814 0.0298821 0.0898768 0 0 0 0 0 1.49045 0 0 1.0273e-05 0 0 0 0.0005 
194 1 1 0.0283003 0.0427339 0.0911459 0 0 0 0 0 1.49045 0 0 1.0273e-05 0 0 0 0.0005 
140 1 1 0.0653862 0.0453935 0.0909546 0 0 0 0 0 1.49045 0 0 1.0273e-05 0 0 0 0.0005 
94 1 1 0.0572888 0.0520277 0.0909873 0 0 0 0 0 1.49045 0 0 1.0273e-05 0 0 0 0.0005 
244 1 1 0.0143307 0.0553893 0.0903758 0 0 0 0 0 1.49045 0 0 1.0273e-05 0 0 0 0.0005 
230 1 1 0.00589412 0.062553 0.0904939 0 0 0 0 0 1.49045 0 0 1.0273e-05 0 0 0 0.0005 
120 1 1 0.0472711 0.085948 0.090978 0 0 0 0 0 1.49045 0 0 1.0273e-05 0 0 0 0.0005 
238 1 1 0.00686217 0.0324704 0.0920616 0 0 0 0 0 1.49045 0 0 1.0273e-05 0 0 0 0.0005 
113 1 1 0.0838138 0.0583762 0.0912917 0 0 0 0 0 1.49045 0 0 1.0273e-05 0 0 0 0.0005 
27 1 1 0.0300635 0.0777491 0.0919097 0 0 0 0 0 1.49045 0 0 1.0273e-05 0 0 0 0.0005 
128 1 1 0.0231694 0.00753439 0.0927513 0 0 0 0 0 1.49045 0 0 1.0273e-05 0 0 0 0.0005 
218 1 1 0.00898601 0.0278354 0.0922279 0 0 0 0 0 1.49045 0 0 1.0273e-05 0 0 0 0.0005 
181 1 1 0.0837042 0.0160309 0.0934259 0 0 0 0 0 1.49045 0 0 1.0273e-05 0 0 0 0.0005 
141 1 1 0.0370485 0.0736081 0.0939527 0 0 0 0 0 1.49045 0 0 1.0273e-05 0 0 0 0.0005 
184 1 1 0.025649 0.0824913 0.0933455 0 0 0 0 0 1.49045 0 0 1.0273e-05 0 0 0 0.0005 
213 1 1 0.0712287 0.0400209 0.094184 0 0 0 0 0 1.49045 0 0 1.0273e-05 0 0 0 0.0005 
223 1 1 0.0825991 0.0423176 0.0944657 0 0 0 0 0 1.49045 0 0 1.0273e-05 0 0 0 0.0005 
44 1 1 0.0749323 0.0866027 0.0945268 0 0 0 0 0 1.49045 0 0 1.0273e-05 0 0 0 0.0005 
248 1 1 0.0104991 0.0168692 0.0954708 0 0 0 0.176901 -0.0136705 1.30485 0 0 1.0273e-05 -50.9273 -659.02 6.30119e-14 0.0005 
61 1 1 0.03153 0.0248071 0.0956158 0 0 0 0 0 1.49045 0 0 1.0273e-05 0 0 0 0.0005 
178 1 1 0.0735083 0.0547411 0.0953608 0 0 0 0 0 1.49045 0 0 1.0273e-05 0 0 0 0.0005 
161 1 1 0.054389 0.0162691 0.0971484 0 0 0 0 0 1.49045 0 0 1.0273e-05 0 0 0 0.0005 
110 1 1 0.0891842 0.0189882 0.0961786 0 0 0 0 0 1.49045 0 0 1.0273e-05 0 0 0 0.0005 
199 1 1 0.0861941 0.0650345 0.0971218 0 0 0 0 0 1.49045 0 0 1.0273e-05 0 0 0 0.0005 
84 1 1 0.0376628 0.0992345 0.096286 0 0 0 0 0 1.49045 0 0 1.0273e-05 0 0 0 0.0005 
179 1 1 0.0916485 0.0355825 0.0976181 0 0 0 0 0 1.49045 0 0 1.0273e-05 0 0 0 0.0005 
207 1 1 0.0689265 0.047637 0.0975791 0 0 0 0 0 1.49045 0 0 1.0273e-05 0 0 0 0.0005 
148 1 1 0.0483104 0.0524148 0.0972078 0 0 0 0 0 1.49045 0 0 1.0273e-05 0 0 0 0.0005 
12 1 1 0.020439 0.0184885 0.0989759 0 0 0 0 0 1.49045 0 0 1.0273e-05 0 0 0 0.0005 
131 1 1 0.013181 0.0322268 0.0985919 0 0 0 0 0 1.49045 0 0 1.0273e-05 0 0 0 0.0005 
237 1 1 0.0764406 0.0365524 0.0990625 0 0 0 0 0 1.49045 0 0 1.0273e-05 0 0 0 0.0005 
186 1 1 0.0733839 0.0630116 0.0984909 0 0 0 0 0 1.49045 0 0 1.0273e-05 0 0 0 0.0005 
152 1 1 0.00972659 0.0748281 0.0987271 0 0 0 0 0 1.49045 0 0 1.0273e-05 0 0 0 0.0005 
53 1 1 0.0223719 0.00472051 0.0994766 0 0 0 0 0 -0.405979 0 0 1.0273e-05 0 0 0 0.0005 
209 1 1 0.0830678 0.0200772 0.0991871 0 0 0 0 0 1.49045 0 0 1.0273e-05 0 0 0 0.0005 
126 1 1 0.0757318 0.0246705 0.0994444 0 0 0 0 0 1.49045 0 0 1.0273e-05 0 0 0 0.0005 
159 1 1 0.0527272 0.0862997 0.0992636 0 0 0 0 0 -0.429094 0 0 1.0273e-05 0 0 0 0.0005 
180 1 1 0.0316225 0.0786185 0.098579 0 0 0 0 0 -0.403332 0 0 1.0273e-05 0 0 0 0.0005 
165 1 1 0.0264999 0.0834319 0.0987541 0 0 0 0 0 -0.38981 0 0 1.0273e-05 0 0 0 0.0005 
160 1 1 0.0935295 0.0511419 0.0984447 0 0 0 0 0 -0.381217 0 0 1.0273e-05 0 0 0 0.0005 
29 1 1 0.0939134 0.00240631 0.0981031 0 0 0 0 0 -0.361881 0 0 1.0273e-05 0 0 0 0.0005 
157 1 1 0.0232423 0.0332863 0.0982105 0 0 0 0 0 -0.393262 0 0 1.0273e-05 0 0 0 0.0005 
96 1 1 0.087883 0.0498091 0.0981681 0 0 0 0 0 -0.390844 0 0 1.0273e-05 0 0 0 0.0005 
36 1 1 0.0115369 0.00131155 0.098002 0 0 0 0 0 -0.358158 0 0 1.0273e-05 0 0 0 0.0005 
65 1 1 0.0884539 0.0451147 0.0979028 0 0 0 0 0 -0.382483 0 0 1.0273e-05 0 0 0 0.0005 
118 1 1 0.0652351 0.00683316 0.0974745 0 0 0 0 0 -0.374063 0 0 1.0273e-05 0 0 0 0.0005 
234 1 1 0.0842644 0.0324593 0.0977324 0 0 0 0 0 -0.376965 0 0 1.0273e-05 0 0 0 0.0005 
60 1 1 0.011964 0.0786306 0.097509 0 0 0 0 0 -0.371543 0 0 1.0273e-05 0 0 0 0.0005 
129 1 1 0.0340158 0.00325132 0.0974781 0 0 0 0 0 -0.368691 0 0 1.0273e-05 0 0 0 0.0005 
22 1 1 0.0621296 0.0128783 0.0974257 0 0 0 0 0 -0.337569 0 0 1.0273e-05 0 0 0 0.0005 
124 1 1 0.0936351 0.0257977 0.0930232 0 0 0 0 0 -0.0266755 0 0 1.0273e-05 0 0 0 0.0005 
59 1 1 0.0819915 0.0317811 0.0972787 0 0 0 0 0 -0.367904 0 0 1.0273e-05 0 0 0 0.0005 
206 1 1 0.0580701 0.0846064 0.0929613 0 0 0 0 0 -0.0511201 0 0 1.0273e-05 0 0 0 0.0005 
47 1 1 0.0624324 0.000944971 0.0939225 0 0 0 0 0 0.000180028 0 0 1.0273e-05 0 0 0 0.0005 
81 1 1 0.0231988 0.00148629 0.0937143 0 0 0 0 0 -0.0233318 0 0 1.0273e-05 0 0 0 0.0005 
5 1 1 0.0075923 0.0038425 0.093903 0 0 0 0 0 -0.0104137 0 0 1.0273e-05 0 0 0 0.0005 
133 1 1 0.070721 0.00717237 0.0972183 0 0 0 0 0 -0.359788 0 0 1.0273e-05 0 0 0 0.0005 
102 1 1 0.050557 0.0111316 0.0946391 0 0 0 0 0 0.074251 0 0 1.0273e-05 0 0 0 0.0005 
111 1 1 0.0367416 0.0153139 0.0938705 0 0 0 0 0 -0.0158237 0 0 1.0273e-05 0 0 0 0.0005 
16 1 1 0.0586253 0.0159152 0.0949316 0 0 0 0 0 0.0700862 0 0 1.0273e-05 0 0 0 0.0005 
177 1 1 0.0663305 0.0174003 0.0970757 0 0 0 0 0 -0.356884 0 0 1.0273e-05 0 0 0 0.0005 
86 1 1 0.0192372 0.0196156 0.0938219 0 0 0 0 0 -0.0277404 0 0 1.0273e-05 0 0 0 0.0005 
52 1 1 0.0227001 0.0199199 0.0953032 0 0 0 0 0 0.119781 0 0 1.0273e-05 0 0 0 0.0005 
85 1 1 0.0416267 0.0207105 0.0939481 0 0 0 0 0 -0.00118415 0 0 1.0273e-05 0 0 0 0.0005 
76 1 1 0.0274541 0.0218883 0.0937862 0 0 0 0 0 -0.0456221 0 0 1.0273e-05 0 0 0 0.0005 
174 1 1 0.0910408 0.022317 0.0938975 0 0 0 0 0 -0.00508608 0 0 1.0273e-05 0 0 0 0.0005 
41 1 1 0.0909576 0.0244531 0.0938388 0 0 0 0 0 0.00530901 0 0 1.0273e-05 0 0 0 0.0005 
235 1 1 0.0862334 0.0252568 0.0949598 0 0 0 0 0 0.100131 0 0 1.0273e-05 0 0 0 0.0005 
62 1 1 0.0788201 0.0286294 0.0934519 0 0 0 0 0 -0.0863263 0 0 1.0273e-05 0 0 0 0.0005 
137 1 1 0.0935402 0.0299455 0.0953621 0 0 0 0 0 0.119699 0 0 1.0273e-05 0 0 0 0.0005 
242 1 1 0.0321436 0.0378166 0.0940846 0 0 0 0 0 0.017356 0 0 1.0273e-05 0 0 0 0.0005 
88 1 1 0.0472625 0.0405482 0.0954503 0 0 0 0 0 0.123091 0 0 1.0273e-05 0 0 0 0.0005 
68 1 1 0.0546285 0.0414812 0.0936773 0 0 0 0 0 -0.0840136 0 0 1.0273e-05 0 0 0 0.0005 
57 1 1 0.0716514 0.0449743 0.0939891 0 0 0 0 0 0.0049084 0 0 1.0273e-05 0 0 0 0.0005 
172 1 1 0.0968432 0.0442069 0.0947493 0 0 0 0 0 0.0537427 0 0 1.0273e-05 0 0 0 0.0005 
46 1 1 0.035744 0.048901 0.093732 0 0 0 0 0 -0.0291295 0 0 1.0273e-05 0 0 0 0.0005 
196 1 1 0.0411227 0.0498421 0.095996 0 0 0 0 0 0.154204 0 0 1.0273e-05 0 0 0 0.0005 
226 1 1 0.0149373 0.0516622 0.0948132 0 0 0 0 0 0.063605 0 0 1.0273e-05 0 0 0 0.0005 
19 1 1 0.00614947 0.0542021 0.0937207 0 0 0 0 0 -0.0820247 0 0 1.0273e-05 0 0 0 0.0005 
202 1 1 0.0451511 0.0548696 0.0954055 0 0 0 0 0 0.120178 0 0 1.0273e-05 0 0 0 0.0005 
87 1 1 0.0203222 0.056035 0.0939097 0 0 0 0 0 -0.00951391 0 0 1.0273e-05 0 0 0 0.0005 
43 1 1 0.0492923 0.0562255 0.093668 0 0 0 0 0 -0.00169458 0 0 1.0273e-05 0 0 0 0.0005 
13 1 1 0.050637 0.0566128 0.0951504 0 0 0 0 0 0.107694 0 0 1.0273e-05 0 0 0 0.0005 
168 1 1 0.0190611 0.0591466 0.0934847 0 0 0 0 0 -0.0558109 0 0 1.0273e-05 0 0 0 0.0005 
74 1 1 0.0347331 0.0600158 0.0940992 0 0 0 0 0 0.0310452 0 0 1.0273e-05 0 0 0 0.0005 
158 1 1 0.0794884 0.0613429 0.09536 0 0 0 0 0 0.103117 0 0 1.0273e-05 0 0 0 0.0005 
190 1 1 0.000503586 0.0637636 0.0937772 0 0 0 0 0 -0.0649182 0 0 1.0273e-05 0 0 0 0.0005 
14 1 1 0.0183178 0.0673761 0.0949304 0 0 0 0 0 0.0924244 0 0 1.0273e-05 0 0 0 0.0005 
182 1 1 0.0731045 0.0678459 0.0939634 0 0 0 0 0 0.0347832 0 0 1.0273e-05 0 0 0 0.0005 
18 1 1 0.0210311 0.069631 0.094472 0 0 0 0 0 0.0575195 0 0 1.0273e-05 0 0 0 0.0005 
79 1 1 0.0859386 0.0705507 0.0972106 0 0 0 0 0 -0.359569 0 0 1.0273e-05 0 0 0 0.0005 
138 1 1 0.0402615 0.0747781 0.0957826 0 0 0 0 0 0.141241 0 0 1.0273e-05 0 0 0 0.0005 
104 1 1 0.066001 0.0781395 0.0949678 0 0 0 0 0 0.0953325 0 0 1.0273e-05 0 0 0 0.0005 
54 1 1 0.00765034 0.0793298 0.0958713 0 0 0 0 0 0.146585 0 0 1.0273e-05 0 0 0 0.0005 
154 1 1 0.0955959 0.0795605 0.0936727 0 0 0 0 0 -0.0827248 0 0 1.0273e-05 0 0 0 0.0005 
2 1 1 0.0320807 0.0811198 0.0934144 0 0 0 0 0 -0.0311631 0 0 1.0273e-05 0 0 0 0.0005 
67 1 1 0.0109052 0.0834227 0.0942798 0 0 0 0 0 0.0405909 0 0 1.0273e-05 0 0 0 0.0005 
167 1 1 0.0490203 0.0846719 0.093749 0 0 0 0 0 -0.023172 0 0 1.0273e-05 0 0 0 0.0005 
92 1 1 0.0723916 0.0854046 0.0957031 0 0 0 0 0 0.136168 0 0 1.0273e-05 0 0 0 0.0005 
150 1 1 0.0607954 0.0881711 0.0948942 0 0 0 0 0 0.0970075 0 0 1.0273e-05 0 0 0 0.0005 
164 1 1 0.0947873 0.0900212 0.0947351 0 0 0 0 0 0.0604051 0 0 1.0273e-05 0 0 0 0.0005 
183 1 1 0.0259709 0.0923657 0.09478 0 0 0 0 0 0.0900374 0 0 1.0273e-05 0 0 0 0.0005 
25 1 1 0.0303269 0.0034686 0.0962234 0 0 0 0 0 0.16134 0 0 1.0273e-05 0 0 0 0.0005 
241 1 1 0.0943479 0.00521651 0.0937603 0 0 0 0 0 -0.0821066 0 0 1.0273e-05 0 0 0 0.0005 
187 1 1 0.088666 0.00988114 0.0936521 0 0 0 0 0 -0.103124 0 0 1.0273e-05 0 0 0 0.0005 
201 1 1 0.0641289 0.0138866 0.095787 0 0 0 0 0 0.120589 0 0 1.0273e-05 0 0 0 0.0005 
107 1 1 0.0616895 0.0158206 0.0971834 0 0 0 0 0 0.184673 0 0 1.0273e-05 0 0 0 0.0005 
93 1 1 0.00906621 0.01698 0.0940316 0 0 0 -0.176901 0.0136705 0.0593557 0 0 1.0273e-05 -50.9273 -659.02 6.30119e-14 0.0005 
236 1 1 0.0714118 0.0174182 0.0968088 0 0 0 0 0 -0.345269 0 0 1.0273e-05 0 0 0 0.0005 
151 1 1 0.0798552 0.0258046 0.0972769 0 0 0 0 0 0.19033 0 0 1.0273e-05 0 0 0 0.0005 
216 1 1 0.018506 0.0305747 0.0939273 0 0 0 0 0 -0.138068 0 0 1.0273e-05 0 0 0 0.0005 
30 1 1 0.0880664 0.0320384 0.0939557 0 0 0 0 0 -0.123141 0 0 1.0273e-05 0 0 0 0.0005 
99 1 1 0.0960453 0.0336567 0.0940627 0 0 0 0 0 -0.138832 0 0 1.0273e-05 0 0 0 0.0005 
28 1 1 0.0898694 0.0353168 0.0939873 0 0 0 0 0 -0.127853 0 0 1.0273e-05 0 0 0 0.0005 
6 1 1 0.0947962 0.0400707 0.0939322 0 0 0 0 0 -0.132863 0 0 1.0273e-05 0 0 0 0.0005 
130 1 1 0.059091 0.0431884 0.0934 0 0 0 0 0 -0.163601 0 0 1.0273e-05 0 0 0 0.0005 
34 1 1 0.0720746 0.0582478 0.0938938 0 0 0 0 0 -0.111006 0 0 1.0273e-05 0 0 0 0.0005 
210 1 1 0.00145529 0.059017 0.0965201 0 0 0 0 0 0.174807 0 0 1.0273e-05 0 0 0 0.0005 
42 1 1 0.0271829 0.0624781 0.0935992 0 0 0 0 0 -0.148081 0 0 1.0273e-05 0 0 0 0.0005 
225 1 1 0.0240831 0.064775 0.0937789 0 0 0 0 0 -0.0806866 0 0 1.0273e-05 0 0 0 0.0005 
214 1 1 0.0144266 0.068559 0.0937207 0 0 0 0 0 -0.119206 0 0 1.0273e-05 0 0 0 0.0005 
217 1 1 0.01404 0.0699826 0.0971112 0 0 0 0 0 0.18197 0 0 1.0273e-05 0 0 0 0.0005 
91 1 1 0.0746873 0.0694394 0.0933629 0 0 0 0 0 -0.157811 0 0 1.0273e-05 0 0 0 0.0005 
173 1 1 0.0221915 0.0718568 0.0974259 0 0 0 0 0 0.19447 0 0 1.0273e-05 0 0 0 0.0005 
176 1 1 0.0400828 0.0716053 0.0932297 0 0 0 0 0 -0.14288 0 0 1.0273e-05 0 0 0 0.0005 
121 1 1 0.0299979 0.0754903 0.0936231 0 0 0 0 0 -0.185686 0 0 1.0273e-05 0 0 0 0.0005 
123 1 1 0.0791742 0.0809988 0.0969383 0 0 0 0 0 -0.35349 0 0 1.0273e-05 0 0 0 0.0005 
144 1 1 0.0897711 0.082739 0.0963747 0 0 0 0 0 0.149325 0 0 1.0273e-05 0 0 0 0.0005 
221 1 1 0.0967625 0.0877727 0.0965651 0 0 0 0 0 0.163119 0 0 1.0273e-05 0 0 0 0.0005 
200 1 1 0.0887183 0.0885343 0.0960811 0 0 0 0 0 0.155208 0 0 1.0273e-05 0 0 0 0.0005 
231 1 1 0.0960559 0.0957872 0.0978805 0 0 0 0.21143 0.218918 -0.257635 0 0 1.0273e-05 441.202 -426.112 -2.00319e-12 0.0005 
9 1 1 0.023502 0.0972807 0.096266 0 0 0 0 0 0.163636 0 0 1.0273e-05 0 0 0 0.0005 
156 1 1 0.0927114 0.00090215 0.0940779 0 0 0 0 0 -0.217046 0 0 1.0273e-05 0 0 0 0.0005 
208 1 1 0.0757007 0.00182443 0.0939794 0 0 0 0 0 -0.210174 0 0 1.0273e-05 0 0 0 0.0005 
222 1 1 0.00573044 0.0114574 0.0940762 0 0 0 0 0 -0.180157 0 0 1.0273e-05 0 0 0 0.0005 
220 1 1 0.0230209 0.0124033 0.0944834 0 0 0 0 0 -0.185019 0 0 1.0273e-05 0 0 0 0.0005 
10 1 1 0.0649918 0.0170136 0.0967136 0 0 0 0 0 -0.341782 0 0 1.0273e-05 0 0 0 0.0005 
17 1 1 0.0185712 0.0262131 0.0942579 0 0 0 0 0 -0.177915 0 0 1.0273e-05 0 0 0 0.0005 
251 1 1 0.0712045 0.0336555 0.0967538 0 0 0 0 0 -0.344365 0 0 1.0273e-05 0 0 0 0.0005 
204 1 1 0.0471644 0.0359858 0.0944291 0 0 0 -0.0525256 -0.038534 -0.153817 0 0 1.0273e-05 -78.0678 106.414 8.92528e-15 0.0005 
232 1 1 0.0501674 0.0381889 0.098032 0 0 0 0.0424813 0.0311653 0.221636 0 0 1.0273e-05 -114.548 156.14 8.92528e-15 0.0005 
166 1 1 0.0691938 0.0407666 0.0942646 0 0 0 0 0 -0.187398 0 0 1.0273e-05 0 0 0 0.0005 
233 1 1 0.0153365 0.0597231 0.0940911 0 0 0 0 0 -0.14957 0 0 1.0273e-05 0 0 0 0.0005 
95 1 1 0.0876101 0.0623906 0.0978297 0 0 0 0 0 0.20982 0 0 1.0273e-05 0 0 0 0.0005 
40 1 1 0.0932868 0.0715921 0.0968187 0 0 0 0 0 -0.312632 0 0 1.0273e-05 0 0 0 0.0005 
72 1 1 0.0904253 0.0775489 0.094378 0 0 0 0 0 -0.174161 0 0 1.0273e-05 0 0 0 0.0005 
80 1 1 0.0874445 0.0798753 0.0942084 0 0 0 0 0 -0.18138 0 0 1.0273e-05 0 0 0 0.0005 
195 1 1 0.0521797 0.0835107 0.0942723 0 0 0 0 0 -0.165915 0 0 1.0273e-05 0 0 0 0.0005 
243 1 1 0.0820543 0.0865034 0.0941392 0 0 0 0 0 -0.220916 0 0 1.0273e-05 0 0 0 0.0005 
103 1 1 0.0715052 0.0878363 0.0942639 0 0 0 0 0 -0.165197 0 0 1.0273e-05 0 0 0 0.0005 
66 1 1 0.0921663 0.0917598 0.0991421 0 0 0 -0.0596396 -0.0617516 -0.123338 0 0 1.0273e-05 -118.888 114.822 -2.00319e-12 0.0005 
55 1 1 0.0733205 0.0970288 0.0944595 0 0 0 0 0 -0.181621 0 0 1.0273e-05 0 0 0 0.0005 
239 1 1 0.0430893 0.00255608 0.0944136 0 0 0 0 0 -0.2379 0 0 1.0273e-05 0 0 0 0.0005 
192 1 1 0.0384851 0.0191438 0.0964557 0 0 0 0 0 -0.334322 0 0 1.0273e-05 0 0 0 0.0005 
98 1 1 0.00897406 0.0269983 0.094879 0 0 0 0 0 -0.213173 0 0 1.0273e-05 0 0 0 0.0005 
198 1 1 0.0106878 0.0297887 0.0950392 0 0 0 0 0 -0.229466 0 0 1.0273e-05 0 0 0 0.0005 
175 1 1 0.0159775 0.0332158 0.0946411 0 0 0 0 0 -0.250833 0 0 1.0273e-05 0 0 0 0.0005 
56 1 1 0.0322576 0.0540702 0.0950067 0 0 0 0 0 -0.227875 0 0 1.0273e-05 0 0 0 0.0005 
205 1 1 0.0853668 0.0593592 0.0965339 0 0 0 0 0 -0.311208 0 0 1.0273e-05 0 0 0 0.0005 
143 1 1 0.0442655 0.0697484 0.0946819 0 0 0 0 0 -0.198394 0 0 1.0273e-05 0 0 0 0.0005 
215 1 1 0.0279571 0.0753822 0.0966836 0 0 0 0 0 -0.310599 0 0 1.0273e-05 0 0 0 0.0005 
3 1 1 0.0404648 0.0923164 0.0945908 0 0 0 0 0 -0.2028 0 0 1.0273e-05 0 0 0 0.0005 
8 1 1 0.0204019 0.094262 0.0946128 0 0 0 0 0 -0.19917 0 0 1.0273e-05 0 0 0 0.0005 
245 1 1 0.00590868 0.00204289 0.098718 0 0 0 -0.177264 0.00522987 -0.0706997 0 0 1.0273e-05 10.0003 338.955 -2.51232e-14 0.0005 
171 1 1 0.0164188 0.00173281 0.0980886 0 0 0 0.385063 -0.0113606 -0.117523 0 0 1.0273e-05 -22.7435 -770.881 -2.51232e-14 0.0005 
73 1 1 0.0419063 0.0189716 0.0955913 0 0 0 0 0 -0.25629 0 0 1.0273e-05 0 0 0 0.0005 
212 1 1 0.0847636 0.0215657 0.0954301 0 0 0 0 0 -0.29009 0 0 1.0273e-05 0 0 0 0.0005 
69 1 1 0.00701064 0.0278073 0.0953051 0 0 0 0 0 -0.24355 0 0 1.0273e-05 0 0 0 0.0005 
11 1 1 0.00156662 0.0301633 0.0953054 0 0 0 0 0 -0.286161 0 0 1.0273e-05 0 0 0 0.0005 
249 1 1 0.0360583 0.0319718 0.09612 0 0 0 0 0 -0.320295 0 0 1.0273e-05 0 0 0 0.0005 
170 1 1 0.0842889 0.0441397 0.0955499 0 0 0 0 0 -0.25636 0 0 1.0273e-05 0 0 0 0.0005 
24 1 1 0.0801185 0.0519936 0.0952504 0 0 0 0 0 -0.238408 0 0 1.0273e-05 0 0 0 0.0005 
50 1 1 0.0228151 0.053469 0.0955306 0 0 0 0 0 -0.294364 0 0 1.0273e-05 0 0 0 0.0005 
250 1 1 0.0744187 0.0551529 0.0956994 0 0 0 0 0 -0.263068 0 0 1.0273e-05 0 0 0 0.0005 
240 1 1 0.00240118 0.056569 0.0955203 0 0 0 0 0 -0.261686 0 0 1.0273e-05 0 0 0 0.0005 
26 1 1 0.0834279 0.0728479 0.0955896 0 0 0 0 0 -0.255249 0 0 1.0273e-05 0 0 0 0.0005 
15 1 1 0.0753183 0.0747278 0.0964487 0 0 0 0 0 -0.296714 0 0 1.0273e-05 0 0 0 0.0005 
78 1 1 0.0937992 0.0827842 0.0954612 0 0 0 0 0 -0.292194 0 0 1.0273e-05 0 0 0 0.0005 
117 1 1 0.0279054 0.0803831 0.0991572 0 0 0 -0.0676205 -0.302023 0.0686968 0 0 1.0273e-05 -603.652 135.153 -9.32672e-12 0.0005 
108 1 1 0.0301481 0.0904001 0.098761 0 0 0 0.0356824 0.159373 0.0640877 0 0 1.0273e-05 230.632 -51.6366 -9.32672e-12 0.0005 
162 1 1 0.0357707 0.0979922 0.0956461 0 0 0 0 0 -0.265197 0 0 1.0273e-05 0 0 0 0.0005 
77 1 1 0.0685251 0.00117523 0.0961038 0 0 0 0 0 -0.283744 0 0 1.0273e-05 0 0 0 0.0005 
105 1 1 0.0257842 0.0553848 0.0961699 0 0 0 0 0 -0.293347 0 0 1.0273e-05 0 0 0 0.0005 
64 1 1 0.0423195 0.064393 0.0957694 0 0 0 0 0 -0.305593 0 0 1.0273e-05 0 0 0 0.0005 
224 1 1 0.0480331 0.0927323 0.0960959 0 0 0 0 0 -0.318111 0 0 1.0273e-05 0 0 0 0.0005 
492 1 1 0.180931 0.000856838 0.0631279 0 0 0 0 0 1.49045 0 0 1.0273e-05 0 0 0 0.0005 
312 1 1 0.108536 0.0725293 0.0627619 0 0 0 0 0 1.49045 0 0 1.0273e-05 0 0 0 0.0005 
393 1 1 0.149301 0.00983526 0.0635109 0 0 0 0 0 1.49045 0 0 1.0273e-05 0 0 0 0.0005 
300 1 1 0.123278 0.0300649 0.0632451 0 0 0 0 0 1.49045 0 0 1.0273e-05 0 0 0 0.0005 
349 1 1 0.196902 0.0304993 0.0638678 0 0 0 0 0 1.49045 0 0 1.0273e-05 0 0 0 0.0005 
482 1 1 0.145471 0.0314929 0.0636657 0 0 0 0 0 1.49045 0 0 1.0273e-05 0 0 0 0.0005 
319 1 1 0.109356 0.0505981 0.0638099 0 0 0 0 0 1.49045 0 0 1.0273e-05 0 0 0 0.0005 
355 1 1 0.12043 0.0686441 0.0633303 0 0 0 0 0 1.49045 0 0 1.0273e-05 0 0 0 0.0005 
346 1 1 0.150546 0.0214674 0.06462 0 0 0 0 0 1.49045 0 0 1.0273e-05 0 0 0 0.0005 
466 1 1 0.116617 0.0863451 0.0644745 0 0 0 0 0 1.49045 0 0 1.0273e-05 0 0 0 0.0005 
333 1 1 0.145091 0.0396979 0.065243 0 0 0 0 0 1.49045 0 0 1.0273e-05 0 0 0 0.0005 
285 1 1 0.120685 0.0485395 0.0656955 0 0 0 0 0 1.49045 0 0 1.0273e-05 0 0 0 0.0005 
379 1 1 0.187557 0.0654551 0.0654195 0 0 0 0 0 1.49045 0 0 1.0273e-05 0 0 0 0.0005 
459 1 1 0.155374 0.0696498 0.0658648 0 0 0 0 0 1.49045 0 0 1.0273e-05 0 0 0 0.0005 
322 1 1 0.195566 0.0721903 0.0652223 0 0 0 0 0 1.49045 0 0 1.0273e-05 0 0 0 0.0005 
411 1 1 0.183066 0.090409 0.0657398 0 0 0 0 0 1.49045 0 0 1.0273e-05 0 0 0 0.0005 
278 1 1 0.157776 0.0486288 0.0662751 0 0 0 0 0 1.49045 0 0 1.0273e-05 0 0 0 0.0005 
290 1 1 0.141962 0.056328 0.0666904 0 0 0 0 0 1.49045 0 0 1.0273e-05 0 0 0 0.0005 
354 1 1 0.112022 0.0468558 0.0677646 0 0 0 0 0 1.49045 0 0 1.0273e-05 0 0 0 0.0005 
373 1 1 0.194211 0.00881811 0.0682865 0 0 0 0 0 1.49045 0 0 1.0273e-05 0 0 0 0.0005 
453 1 1 0.181313 0.032344 0.068597 0 0 0 0 0 1.49045 0 0 1.0273e-05 0 0 0 0.0005 
352 1 1 0.174299 0.0371635 0.0688242 0 0 0 0 0 1.49045 0 0 1.0273e-05 0 0 0 0.0005 
254 1 1 0.119507 0.0554654 0.0688821 0 0 0 0 0 1.49045 0 0 1.0273e-05 0 0 0 0.0005 
337 1 1 0.16936 0.0350692 0.0700165 0 0 0 0 0 1.49045 0 0 1.0273e-05 0 0 0 0.0005 
297 1 1 0.165119 0.060862 0.0700427 0 0 0 0 0 1.49045 0 0 1.0273e-05 0 0 0 0.0005 
483 1 1 0.193388 0.0747728 0.0695164 0 0 0 0 0 1.49045 0 0 1.0273e-05 0 0 0 0.0005 
255 1 1 0.165293 0.0806276 0.0701284 0 0 0 0 0 1.49045 0 0 1.0273e-05 0 0 0 0.0005 
381 1 1 0.127605 0.0506759 0.072306 0 0 0 0 0 1.49045 0 0 1.0273e-05 0 0 0 0.0005 
306 1 1 0.160557 0.088916 0.0728081 0 0 0 0 0 1.49045 0 0 1.0273e-05 0 0 0 0.0005 
449 1 1 0.163534 0.0184453 0.0731748 0 0 0 0 0 1.49045 0 0 1.0273e-05 0 0 0 0.0005 
485 1 1 0.176568 0.0719945 0.0739405 0 0 0 0 0 1.49045 0 0 1.0273e-05 0 0 0 0.0005 
392 1 1 0.199207 0.0723396 0.0740635 0 0 0 0 0 1.49045 0 0 1.0273e-05 0 0 0 0.0005 
425 1 1 0.130974 0.0812704 0.0731664 0 0 0 0 0 1.49045 0 0 1.0273e-05 0 0 0 0.0005 
276 1 1 0.114297 0.0875416 0.0740807 0 0 0 0 0 1.49045 0 0 1.0273e-05 0 0 0 0.0005 
298 1 1 0.171736 0.0637956 0.0751673 0 0 0 0 0 1.49045 0 0 1.0273e-05 0 0 0 0.0005 
491 1 1 0.149098 0.0903263 0.0758087 0 0 0 0 0 1.49045 0 0 1.0273e-05 0 0 0 0.0005 
382 1 1 0.110906 0.0956812 0.0757658 0 0 0 0 0 1.49045 0 0 1.0273e-05 0 0 0 0.0005 
260 1 1 0.138915 0.0414598 0.0763893 0 0 0 0 0 1.49045 0 0 1.0273e-05 0 0 0 0.0005 
419 1 1 0.115376 0.020534 0.0776537 0 0 0 0 0 1.49045 0 0 1.0273e-05 0 0 0 0.0005 
429 1 1 0.138587 0.0244728 0.0773119 0 0 0 0 0 1.49045 0 0 1.0273e-05 0 0 0 0.0005 
484 1 1 0.125658 0.0330824 0.077696 0 0 0 0 0 1.49045 0 0 1.0273e-05 0 0 0 0.0005 
345 1 1 0.183916 0.0753267 0.0775622 0 0 0 0 0 1.49045 0 0 1.0273e-05 0 0 0 0.0005 
456 1 1 0.197411 0.0816514 0.0771878 0 0 0 0 0 1.49045 0 0 1.0273e-05 0 0 0 0.0005 
311 1 1 0.133742 0.00501677 0.0790233 0 0 0 0 0 1.49045 0 0 1.0273e-05 0 0 0 0.0005 
496 1 1 0.166773 0.0570248 0.0782556 0 0 0 0 0 1.49045 0 0 1.0273e-05 0 0 0 0.0005 
434 1 1 0.164448 0.0694601 0.0783451 0 0 0 0 0 1.49045 0 0 1.0273e-05 0 0 0 0.0005 
400 1 1 0.103533 0.0788491 0.0783378 0 0 0 0 0 1.49045 0 0 1.0273e-05 0 0 0 0.0005 
324 1 1 0.140892 0.0784088 0.0791592 0 0 0 0 0 1.49045 0 0 1.0273e-05 0 0 0 0.0005 
288 1 1 0.177853 0.0824369 0.0789227 0 0 0 0 0 1.49045 0 0 1.0273e-05 0 0 0 0.0005 
269 1 1 0.187373 0.0850846 0.0783833 0 0 0 0 0 1.49045 0 0 1.0273e-05 0 0 0 0.0005 
261 1 1 0.13913 0.0504741 0.0806323 0 0 0 0 0 1.49045 0 0 1.0273e-05 0 0 0 0.0005 
301 1 1 0.123198 0.0887974 0.0801887 0 0 0 0 0 1.49045 0 0 1.0273e-05 0 0 0 0.0005 
465 1 1 0.112546 0.0540977 0.0816656 0 0 0 0 0 1.49045 0 0 1.0273e-05 0 0 0 0.0005 
361 1 1 0.130788 0.05524 0.0815205 0 0 0 0 0 1.49045 0 0 1.0273e-05 0 0 0 0.0005 
294 1 1 0.147991 0.0897138 0.0814706 0 0 0 0 0 1.49045 0 0 1.0273e-05 0 0 0 0.0005 
501 1 1 0.169376 0.0083073 0.0830451 0 0 0 0 0 1.49045 0 0 1.0273e-05 0 0 0 0.0005 
448 1 1 0.167084 0.0785162 0.0839888 0 0 0 0 0 1.49045 0 0 1.0273e-05 0 0 0 0.0005 
323 1 1 0.153936 0.00317859 0.0847312 0 0 0 0 0 1.49045 0 0 1.0273e-05 0 0 0 0.0005 
404 1 1 0.125048 0.0748332 0.0841809 0 0 0 0 0 1.49045 0 0 1.0273e-05 0 0 0 0.0005 
408 1 1 0.136845 0.0524438 0.0860083 0 0 0 0 0 1.49045 0 0 1.0273e-05 0 0 0 0.0005 
422 1 1 0.116213 0.0839248 0.086075 0 0 0 0 0 1.49045 0 0 1.0273e-05 0 0 0 0.0005 
284 1 1 0.150344 0.0301615 0.0864912 0 0 0 0 0 1.49045 0 0 1.0273e-05 0 0 0 0.0005 
365 1 1 0.196889 0.0192257 0.0881231 0 0 0 0 0 1.49045 0 0 1.0273e-05 0 0 0 0.0005 
455 1 1 0.136565 0.0560079 0.0874061 0 0 0 0 0 1.49045 0 0 1.0273e-05 0 0 0 0.0005 
427 1 1 0.1763 0.075833 0.0878755 0 0 0 0 0 1.49045 0 0 1.0273e-05 0 0 0 0.0005 
321 1 1 0.131885 0.0855492 0.087281 0 0 0 0 0 1.49045 0 0 1.0273e-05 0 0 0 0.0005 
289 1 1 0.116504 0.0894226 0.0878431 0 0 0 0 0 1.49045 0 0 1.0273e-05 0 0 0 0.0005 
366 1 1 0.14819 0.0350108 0.0884043 0 0 0 0 0 1.49045 0 0 1.0273e-05 0 0 0 0.0005 
380 1 1 0.168857 0.0724951 0.088229 0 0 0 0 0 1.49045 0 0 1.0273e-05 0 0 0 0.0005 
399 1 1 0.16984 0.0982761 0.0889356 0 0 0 0 0 1.49045 0 0 1.0273e-05 0 0 0 0.0005 
481 1 1 0.142627 0.0332794 0.0892356 0 0 0 0 0 1.49045 0 0 1.0273e-05 0 0 0 0.0005 
271 1 1 0.166105 0.0213381 0.090918 0 0 0 0 0 1.49045 0 0 1.0273e-05 0 0 0 0.0005 
272 1 1 0.121618 0.0338686 0.0916393 0 0 0 0 0 1.49045 0 0 1.0273e-05 0 0 0 0.0005 
369 1 1 0.177393 0.0445486 0.0912433 0 0 0 0 0 1.49045 0 0 1.0273e-05 0 0 0 0.0005 
280 1 1 0.191792 0.0445249 0.0920406 0 0 0 0 0 1.49045 0 0 1.0273e-05 0 0 0 0.0005 
350 1 1 0.189424 0.0411871 0.093255 0 0 0 0 0 1.49045 0 0 1.0273e-05 0 0 0 0.0005 
428 1 1 0.186533 0.0660874 0.0939772 0 0 0 0 0 1.49045 0 0 1.0273e-05 0 0 0 0.0005 
378 1 1 0.183434 0.0793914 0.0939206 0 0 0 0 0 1.49045 0 0 1.0273e-05 0 0 0 0.0005 
286 1 1 0.108531 0.0801351 0.093404 0 0 0 0 0 1.49045 0 0 1.0273e-05 0 0 0 0.0005 
477 1 1 0.155993 0.0727157 0.0951504 0 0 0 0 0 1.49045 0 0 1.0273e-05 0 0 0 0.0005 
353 1 1 0.192464 0.0362547 0.0951716 0 0 0 0 0 1.49045 0 0 1.0273e-05 0 0 0 0.0005 
309 1 1 0.144585 0.0417346 0.095885 0 0 0 0 0 1.49045 0 0 1.0273e-05 0 0 0 0.0005 
499 1 1 0.197987 0.0642907 0.0952294 0 0 0 0 0 1.49045 0 0 1.0273e-05 0 0 0 0.0005 
374 1 1 0.154155 0.0875429 0.0953371 0 0 0 0 0 1.49045 0 0 1.0273e-05 0 0 0 0.0005 
446 1 1 0.109895 0.00946238 0.0965223 0 0 0 0 0 1.49045 0 0 1.0273e-05 0 0 0 0.0005 
302 1 1 0.194291 0.0464886 0.0965754 0 0 0 0 0 1.49045 0 0 1.0273e-05 0 0 0 0.0005 
397 1 1 0.15145 0.0239862 0.0981056 0 0 0 0 0 1.49045 0 0 1.0273e-05 0 0 0 0.0005 
257 1 1 0.149435 0.0521292 0.0975029 0 0 0 0 0 1.49045 0 0 1.0273e-05 0 0 0 0.0005 
283 1 1 0.184088 0.0587693 0.0976193 0 0 0 0 0 1.49045 0 0 1.0273e-05 0 0 0 0.0005 
341 1 1 0.139796 0.0497909 0.0987147 0 0 0 0 0 1.49045 0 0 1.0273e-05 0 0 0 0.0005 
304 1 1 0.147417 0.0351305 0.0993906 0 0 0 0 0 -0.427736 0 0 1.0273e-05 0 0 0 0.0005 
293 1 1 0.178685 0.0553423 0.0994078 0 0 0 0 0 -0.404871 0 0 1.0273e-05 0 0 0 0.0005 
281 1 1 0.189705 0.0636543 0.0995058 0 0 0 0 0 -0.470122 0 0 0.00475707 0 0 0 0.0005 
494 1 1 0.171042 0.0985148 0.0994994 0 0 0 0 0 -0.430545 0 0 1.0273e-05 0 0 0 0.0005 