/*--------------------------------*- C++ -*----------------------------------*\
| =========                 |                                                 |
| \\      /  F ield         | OpenFOAM: The Open Source CFD Toolbox           |
|  \\    /   O peration     | Version:  2506                                  |
|   \\  /    A nd           | Website:  www.openfoam.com                      |
|    \\/     M anipulation  |                                                 |
\*---------------------------------------------------------------------------*/
FoamFile
{
    version     2.0;
    format      ascii;
    arch        "LSB;label=32;scalar=64";
    class       volScalarField;
    location    "0.07";
    object      Ksl;
}
// * * * * * * * * * * * * * * * * * * * * * * * * * * * * * * * * * * * * * //

dimensions      [1 -3 -1 0 0 0 0];

internalField   nonuniform List<scalar> 
1152
(
132864
144156
98724.9
389549
148266
116000
170952
151749
126234
264936
87304.3
127729
136995
51641.7
100947
125695
240118
153679
127955
539705
178325
129741
792708
215787
266156
112209
149682
685984
187644
541626
190364
245620
284424
258522
440109
1.41693e+07
961893
654111
132795
201226
212776
251324
633260
129816
388859
113995
434964
512353
243010
166857
483698
167560
124540
239213
222000
157855
456238
403735
232224
1.71206e+07
346608
118172
206649
129593
290964
271217
400652
204560
269474
168691
188265
709434
211298
185512
304377
110913
138651
715126
390070
7.61784e+06
265945
159410
150818
209041
143825
217187
259195
118853
258911
141822
998201
163264
174548
150624
171525
345074
60493
48140.2
76459.4
76031.2
33856.5
52392.3
97222.9
308301
43931.4
55973.6
107461
40412.1
38684.8
113137
175012
66115.2
0
0
0
0
0
0
0
0
0
0
0
0
0
0
0
0
0
0
0
0
0
0
0
0
0
0
0
0
0
0
0
0
0
0
0
0
0
0
0
0
0
0
0
0
0
0
0
0
0
0
0
0
0
0
0
0
0
0
0
0
0
0
0
0
0
0
0
0
0
0
0
0
0
0
0
0
0
0
0
0
0
0
0
0
0
0
0
0
0
0
0
0
0
0
0
0
0
0
0
0
0
0
0
0
0
0
0
0
0
0
0
0
0
0
0
0
0
0
0
0
0
0
0
0
0
0
0
0
0
0
0
0
0
0
0
0
0
0
0
0
0
0
0
0
0
0
0
0
0
0
0
0
0
0
0
0
0
0
0
0
0
0
0
0
0
0
0
0
0
0
0
0
0
0
0
0
0
0
0
0
0
0
0
0
0
0
0
0
0
0
0
0
0
0
0
0
0
0
0
0
0
0
0
0
0
0
0
0
0
0
0
0
0
0
0
0
0
0
0
0
0
0
0
0
0
0
0
0
0
0
0
0
0
0
0
0
0
0
0
0
0
0
0
0
0
0
0
0
0
0
0
0
0
0
0
0
0
0
0
0
0
0
0
0
0
0
0
0
0
0
0
0
127514
107632
87765.5
153736
194846
109756
107592
82548.9
159628
84226.5
112862
194135
194597
223656
94320.9
98833.5
108178
161530
296839
207600
627861
141443
247416
203780
152420
294956
390802
181506
221610
143567
133292
181054
175481
227782
327558
281982
146247
173440
340362
123024
212505
205633
165596
443669
331880
698000
778159
185050
196104
311082
172267
2.92104e+07
5.34691e+06
137994
330669
205936
204380
167962
240637
292779
239796
484071
254058
191831
121484
316104
189950
681954
256057
184809
254484
174426
153543
397438
144491
165497
244380
241186
204448
394376
268176
900979
185056
111395
189449
230466
174493
199557
266881
120899
1.51299e+06
339344
171948
280651
150871
133968
44128.6
67267.3
30906.2
29187.7
89737.2
35537.2
27259.2
21728.3
31869
19005.3
52965.3
37182.6
75401.1
50588.3
19341
44279.5
0
0
0
0
0
0
0
0
0
0
0
0
0
0
0
0
0
0
0
0
0
0
0
0
0
0
0
0
0
0
0
0
0
0
0
0
0
0
0
0
0
0
0
0
0
0
0
0
0
0
0
0
0
0
0
0
0
0
0
0
0
0
0
0
0
0
0
0
0
0
0
0
0
0
0
0
0
0
0
0
0
0
0
0
0
0
0
0
0
0
0
0
0
0
0
0
0
0
0
0
0
0
0
0
0
0
0
0
0
0
0
0
0
0
0
0
0
0
0
0
0
0
0
0
0
0
0
0
0
0
0
0
0
0
0
0
0
0
0
0
0
0
0
0
0
0
0
0
0
0
0
0
0
0
0
0
0
0
0
0
0
0
0
0
0
0
0
0
0
0
0
0
0
0
0
0
0
0
0
0
0
0
0
0
0
0
0
0
0
0
0
0
0
0
0
0
0
0
0
0
0
0
0
0
0
0
0
0
0
0
0
0
0
0
0
0
0
0
0
0
0
0
0
0
0
0
0
0
0
0
0
0
0
0
0
0
0
0
0
0
0
0
0
0
0
0
0
0
0
0
0
0
0
0
0
0
0
0
0
0
0
0
0
0
0
0
0
0
0
0
0
0
116555
231886
124408
345335
133411
102027
158646
155268
142179
110170
125387
84830.9
106337
172497
117587
666110
182060
122021
317313
137750
664370
244552
154982
144346
211832
212566
155302
345787
184999
242381
216950
129147
261659
272504
289561
210614
301526
191697
176126
179415
93598.1
1.58305e+07
190067
378867
444011
157763
207771
170452
178365
224105
233108
136289
550834
155089
324933
228013
153549
275145
286517
173370
201491
339647
198229
291563
155725
384534
257027
153906
283160
144038
185971
209673
248152
191327
220523
604012
189876
217585
226796
150949
192716
151363
209961
122258
195883
135734
304215
235617
201671
209598
726132
128822
6.94169e+06
154969
174261
163549
100698
83533.8
63554
62695.4
61363.3
109903
79306.4
83205
51027.4
58428
64184
33321.6
113231
44932.7
66390.1
54576.6
0
0
0
0
0
0
201.728
0
0
0
0
0
0
0
0
0
0
0
0
0
0
0
0
0
0
0
0
0
0
0
0
0
0
0
0
0
0
0
0
0
0
0
0
0
0
0
0
0
0
0
0
0
0
0
0
0
0
0
0
0
0
0
0
0
0
0
0
0
0
0
0
0
0
0
0
0
0
0
0
0
0
0
0
0
0
0
0
0
0
0
0
0
0
0
0
0
0
0
0
0
0
0
0
0
0
0
0
0
0
0
0
0
0
0
0
0
0
0
0
0
0
0
0
0
0
0
0
0
0
0
0
0
0
0
0
0
0
0
0
0
0
0
0
0
0
0
0
0
0
0
0
0
0
0
0
0
0
0
0
0
0
0
0
0
0
0
0
0
0
0
0
0
0
0
0
0
0
0
0
0
0
0
0
0
0
0
0
0
0
0
0
0
0
0
0
0
0
0
0
0
0
0
0
0
0
0
0
0
0
0
0
0
0
0
0
0
0
0
0
0
0
0
0
0
0
0
0
0
0
0
0
0
0
0
0
0
0
0
0
0
0
0
0
0
0
0
0
0
0
0
0
0
0
0
0
0
0
0
0
0
0
0
0
0
0
0
0
0
0
0
0
0
)
;

boundaryField
{
    inlet
    {
        type            zeroGradient;
    }
    outlet
    {
        type            zeroGradient;
    }
    wall
    {
        type            zeroGradient;
    }
    procBoundary0to1
    {
        type            processor;
        value           nonuniform List<scalar> 
192
(
56574.8
139724
101400
193954
209077
212683
168256
237472
115057
441997
285263
149392
410364
425711
154161
3.18192e+07
166093
209822
385063
125205
1.03024e+06
119587
354901
119809
54137.2
53738.6
102870
360644
0
0
0
604.355
0
0
0
0
0
0
0
0
0
0
0
0
0
0
0
0
0
0
0
0
0
0
0
0
0
0
0
0
0
0
0
0
0
0
0
0
0
0
0
0
0
0
0
0
0
0
0
0
0
0
0
0
0
0
0
0
0
0
0
0
0
0
0
0
73979.5
135548
124442
85411.4
272202
279411
157771
196018
225081
283684
272355
1.94471e+07
810445
963040
156016
270947
274803
200360
164316
313099
6.87909e+06
124436
312339
201973
128958
37378.1
35009.8
30032.2
0
0
0
0
0
0
0
0
0
0
0
0
0
0
0
0
0
0
0
0
0
0
0
0
0
0
0
0
0
0
0
0
0
0
0
0
0
0
0
0
0
0
0
0
0
0
0
0
0
0
0
0
0
0
0
0
0
0
0
0
0
0
0
0
0
0
0
0
)
;
    }
    procBoundary0to2
    {
        type            processor;
        value           nonuniform List<scalar> 
192
(
127263
471109
150405
223925
235517
181722
182826
2.45653e+07
152686
1.29038e+06
216811
123485
209349
8.76268e+06
331245
144881
2.28206e+06
208989
205583
117564
117417
259208
292900
5.47452e+06
108966
83695.2
63284.2
16947.1
0
0
0
0
0
0
0
0
0
0
0
0
0
0
0
0
0
0
0
0
0
0
0
0
0
0
0
0
0
0
0
0
0
0
0
0
0
0
0
0
0
0
0
0
0
0
0
0
0
0
0
0
0
0
0
0
0
0
0
0
0
0
0
0
0
0
0
0
112914
73226
151366
105565
379181
445658
1.4199e+06
724346
155399
110083
211754
157523
170601
187347
302016
188186
155844
225353
300968
189972
189207
95149.5
428257
142728
35877.5
15639.9
57772
22657.8
0
0
0
0
0
0
0
0
0
0
0
0
0
0
0
0
0
0
0
0
0
0
0
0
0
0
0
0
0
0
0
0
0
0
0
0
0
0
0
0
0
0
0
0
0
0
0
0
0
0
0
0
0
0
0
0
0
0
0
0
0
0
0
0
0
0
0
0
)
;
    }
}


// ************************************************************************* //
