/*--------------------------------*- C++ -*----------------------------------*\
| =========                 |                                                 |
| \\      /  F ield         | OpenFOAM: The Open Source CFD Toolbox           |
|  \\    /   O peration     | Version:  2506                                  |
|   \\  /    A nd           | Website:  www.openfoam.com                      |
|    \\/     M anipulation  |                                                 |
\*---------------------------------------------------------------------------*/
FoamFile
{
    version     2.0;
    format      ascii;
    arch        "LSB;label=32;scalar=64";
    class       volScalarField;
    location    "0.07";
    object      p;
}
// * * * * * * * * * * * * * * * * * * * * * * * * * * * * * * * * * * * * * //

dimensions      [0 2 -2 0 0 0 0];

internalField   nonuniform List<scalar> 
1152
(
17.7907
17.6375
17.568
17.8349
17.7235
17.5332
17.7278
17.7178
17.7164
17.463
17.4263
17.5257
17.6028
17.3827
17.3993
17.4141
15.2249
15.1504
15.1964
14.9543
15.2156
15.1653
14.8407
14.7394
15.2295
15.0999
15.1077
14.4369
15.2425
15.3414
15.1849
14.7043
11.8002
12.2023
12.3665
10.8371
11.5605
12.2929
11.6566
10.9052
12.0911
12.3465
11.4959
9.80492
12.0671
11.8737
11.8309
10.6347
8.61375
8.77201
9.042
9.5343
8.47026
8.44143
8.8835
9.02766
8.38317
8.53082
8.68074
8.3617
8.29854
8.76049
8.56586
8.19386
5.18591
5.10454
4.96452
5.53553
5.1565
5.15406
5.52908
5.8528
4.84449
5.03468
6.11296
7.17333
4.75697
5.46513
5.68235
7.49542
1.42496
1.65034
1.83035
1.98872
1.45793
1.72486
2.06889
2.2681
1.48302
1.81378
1.86248
2.29289
1.65278
1.92079
2.08487
2.20451
1.01081
1.02343
1.02403
1.02648
1.01954
1.02341
1.02052
1.017
1.01831
1.02579
1.0213
1.06057
1.02456
1.01334
1.00379
1.02464
1.00487
1.00639
1.00756
1.00814
1.00569
1.00693
1.00836
1.00994
1.00534
1.00666
1.00825
1.01078
1.00473
1.00512
1.00551
1.00571
1.01098
1.0118
1.0119
1.01225
1.01107
1.01155
1.01146
1.0118
1.01074
1.01142
1.01139
1.01308
1.01007
1.01004
1.00975
1.01183
1.0077
1.00798
1.008
1.00804
1.0076
1.00778
1.00775
1.00783
1.00737
1.00761
1.00758
1.00796
1.00687
1.00694
1.00684
1.00741
1.00731
1.00738
1.00733
1.00729
1.00712
1.00719
1.00714
1.00714
1.00694
1.00703
1.00699
1.00704
1.00658
1.00665
1.00659
1.00669
1.00639
1.00641
1.00635
1.0063
1.00626
1.00627
1.00622
1.00617
1.00612
1.00614
1.00609
1.00605
1.00588
1.0059
1.00584
1.00581
1.00568
1.00566
1.00561
1.00555
1.00557
1.00556
1.00551
1.00545
1.00546
1.00545
1.0054
1.00534
1.00529
1.00529
1.00524
1.00519
1.00504
1.00502
1.00497
1.00492
1.00496
1.00494
1.0049
1.00484
1.00487
1.00485
1.00481
1.00475
1.00476
1.00474
1.0047
1.00465
1.00445
1.00443
1.0044
1.00436
1.0044
1.00438
1.00434
1.0043
1.00433
1.00431
1.00428
1.00423
1.00425
1.00423
1.0042
1.00416
1.00392
1.0039
1.00387
1.00384
1.00388
1.00386
1.00383
1.0038
1.00383
1.00381
1.00378
1.00375
1.00377
1.00375
1.00373
1.0037
1.00341
1.0034
1.00338
1.00335
1.00338
1.00337
1.00335
1.00332
1.00335
1.00333
1.00331
1.00328
1.00331
1.00329
1.00327
1.00325
1.00293
1.00292
1.0029
1.00288
1.00291
1.00289
1.00288
1.00286
1.00288
1.00287
1.00285
1.00283
1.00285
1.00284
1.00282
1.00281
1.00246
1.00245
1.00244
1.00243
1.00244
1.00243
1.00242
1.00241
1.00242
1.00242
1.0024
1.00239
1.0024
1.0024
1.00238
1.00237
1.002
1.00199
1.00199
1.00198
1.00199
1.00198
1.00197
1.00196
1.00198
1.00197
1.00196
1.00195
1.00196
1.00196
1.00195
1.00194
1.00155
1.00155
1.00154
1.00153
1.00154
1.00154
1.00153
1.00152
1.00153
1.00153
1.00152
1.00152
1.00152
1.00152
1.00151
1.0015
1.0011
1.0011
1.0011
1.00109
1.0011
1.0011
1.00109
1.00109
1.00109
1.00109
1.00109
1.00108
1.00109
1.00108
1.00108
1.00107
1.00066
1.00066
1.00066
1.00065
1.00066
1.00066
1.00065
1.00065
1.00066
1.00065
1.00065
1.00065
1.00065
1.00065
1.00065
1.00064
1.00022
1.00022
1.00022
1.00022
1.00022
1.00022
1.00022
1.00022
1.00022
1.00022
1.00022
1.00022
1.00022
1.00022
1.00022
1.00021
17.4772
17.5899
17.6815
17.7528
18.0556
17.7368
17.7514
17.6933
17.8337
17.7846
17.8422
17.8112
18.1219
17.8739
17.6882
17.6737
15.1548
15.2168
15.3425
15.2143
14.8459
15.1047
15.2844
15.1626
15.1662
15.3851
15.2576
15.2608
15.2779
15.3333
15.4565
15.338
12.3817
12.2917
11.9181
11.2406
11.7078
11.8417
11.8152
11.732
11.9087
11.749
11.8045
11.9897
11.848
12.4438
12.5193
12.0345
8.83561
9.15327
9.4568
9.56609
9.32864
8.95447
8.80162
8.71973
8.30394
8.49095
8.30719
8.1928
8.14713
8.16704
8.13304
8.50349
5.4765
5.51148
5.36093
5.02664
5.18409
5.34955
4.98286
4.99316
4.91366
4.7444
4.83134
4.83167
4.60997
4.47165
4.4568
4.60357
1.85252
1.45632
1.428
1.40271
1.7487
1.44392
1.31428
1.31557
1.41528
1.27392
1.25103
1.36475
1.60483
1.33949
1.27287
1.45637
1.02254
1.01085
1.01747
1.01833
1.01112
1.01784
1.01746
1.01955
1.01664
1.0175
1.01945
1.01712
1.00856
1.00896
1.01542
1.01507
1.00414
1.00397
1.00442
1.00465
1.00359
1.00414
1.00453
1.00505
1.00353
1.00441
1.00429
1.00462
1.00226
1.00261
1.00367
1.00373
1.01109
1.01074
1.0109
1.01106
1.00978
1.01006
1.01035
1.01072
1.00996
1.01003
1.01009
1.01032
1.00841
1.00856
1.00909
1.00944
1.00746
1.0075
1.00752
1.00757
1.00703
1.00721
1.00732
1.00744
1.00698
1.00713
1.00715
1.00723
1.00619
1.00636
1.00655
1.00665
1.00739
1.00735
1.00734
1.00732
1.00699
1.007
1.00703
1.00707
1.00683
1.00684
1.00687
1.0069
1.00629
1.00632
1.00639
1.00648
1.00642
1.00642
1.00641
1.00639
1.00622
1.00625
1.00625
1.00625
1.0061
1.00612
1.00612
1.00612
1.00576
1.00578
1.00581
1.00584
1.00574
1.00573
1.00571
1.00569
1.0056
1.00561
1.0056
1.00559
1.0055
1.0055
1.00549
1.00548
1.00526
1.00527
1.00528
1.00529
1.00509
1.00509
1.00507
1.00505
1.00501
1.00501
1.005
1.00498
1.00493
1.00493
1.00491
1.00489
1.00477
1.00477
1.00477
1.00476
1.0045
1.0045
1.00449
1.00447
1.00445
1.00444
1.00443
1.00442
1.00439
1.00438
1.00437
1.00435
1.00428
1.00428
1.00428
1.00427
1.00395
1.00395
1.00394
1.00393
1.00392
1.00391
1.00391
1.00389
1.00387
1.00387
1.00386
1.00384
1.0038
1.0038
1.0038
1.00379
1.00344
1.00344
1.00343
1.00342
1.00341
1.00341
1.0034
1.00339
1.00338
1.00338
1.00337
1.00336
1.00334
1.00333
1.00333
1.00332
1.00295
1.00295
1.00294
1.00293
1.00293
1.00293
1.00292
1.00291
1.00291
1.0029
1.0029
1.00289
1.00288
1.00287
1.00287
1.00286
1.00247
1.00247
1.00247
1.00246
1.00246
1.00246
1.00246
1.00245
1.00244
1.00244
1.00244
1.00243
1.00242
1.00242
1.00242
1.00241
1.00201
1.00201
1.00201
1.002
1.002
1.002
1.002
1.00199
1.00199
1.00199
1.00199
1.00198
1.00198
1.00198
1.00197
1.00197
1.00156
1.00156
1.00155
1.00155
1.00155
1.00155
1.00155
1.00155
1.00154
1.00154
1.00154
1.00154
1.00153
1.00153
1.00153
1.00153
1.00111
1.00111
1.00111
1.00111
1.00111
1.0011
1.0011
1.0011
1.0011
1.0011
1.0011
1.0011
1.00109
1.00109
1.00109
1.00109
1.00066
1.00066
1.00066
1.00066
1.00066
1.00066
1.00066
1.00066
1.00066
1.00066
1.00066
1.00066
1.00066
1.00066
1.00065
1.00065
1.00022
1.00022
1.00022
1.00022
1.00022
1.00022
1.00022
1.00022
1.00022
1.00022
1.00022
1.00022
1.00022
1.00022
1.00022
1.00022
17.71
17.6661
17.7991
17.8125
17.8183
17.7002
17.7107
17.6726
17.7798
17.6922
17.6295
17.6237
17.7648
17.7821
17.6485
17.6704
15.3204
15.1131
15.3423
15.0146
15.2217
15.0639
15.0832
15.0989
14.8856
14.653
15.0804
15.37
15.1394
14.9484
15.1172
14.915
12.1188
12.3175
11.9796
11.9089
12.1254
11.7556
12.1803
12.1171
12.2303
12.4278
12.1014
11.8245
12.1803
12.3027
12.1977
12.1694
8.64068
8.83206
8.63846
8.53206
8.91816
8.80443
8.83129
8.72509
9.27349
9.41054
8.979
8.79197
8.92678
9.05583
8.93972
9.04246
5.37331
5.10869
5.1928
5.16288
5.27077
5.25295
5.27102
5.14078
5.4175
5.26889
5.3315
5.04417
5.23629
5.06092
5.13463
5.14331
2.18573
2.08249
1.89488
2.10574
1.89361
2.19931
1.96962
1.85724
1.68798
1.86032
1.57356
1.54119
1.35344
1.68755
1.75833
1.78064
1.01706
1.02106
1.0194
1.0227
1.01922
1.01921
1.01945
1.01335
1.01693
1.02198
1.01863
1.02634
1.01955
1.02451
1.02306
1.02628
1.00411
1.00463
1.00507
1.00509
1.00439
1.00486
1.00524
1.00528
1.00454
1.0053
1.00596
1.00648
1.0045
1.00569
1.00668
1.00693
1.0111
1.01172
1.01157
1.01204
1.01107
1.01158
1.01132
1.01142
1.01114
1.01175
1.01161
1.01211
1.01136
1.01193
1.01187
1.01208
1.00754
1.00788
1.0078
1.00766
1.00761
1.00793
1.00785
1.00769
1.00764
1.00797
1.00795
1.00801
1.0077
1.008
1.00801
1.00801
1.00749
1.00761
1.0075
1.00735
1.00745
1.00755
1.00744
1.00731
1.00744
1.00753
1.00745
1.00736
1.00742
1.00748
1.00741
1.00734
1.00649
1.00659
1.00652
1.00644
1.00649
1.00658
1.00652
1.00643
1.00648
1.00654
1.00649
1.00641
1.00645
1.00649
1.00643
1.00637
1.0058
1.00584
1.00578
1.00572
1.00578
1.00582
1.00577
1.0057
1.00576
1.00578
1.00573
1.00567
1.00573
1.00573
1.00568
1.00562
1.00513
1.00515
1.00512
1.00507
1.00512
1.00514
1.0051
1.00506
1.0051
1.00511
1.00507
1.00503
1.00508
1.00507
1.00503
1.00498
1.00453
1.00454
1.00452
1.00448
1.00452
1.00453
1.0045
1.00447
1.00451
1.00451
1.00448
1.00444
1.00449
1.00448
1.00445
1.00441
1.00397
1.00398
1.00396
1.00394
1.00397
1.00397
1.00395
1.00393
1.00396
1.00396
1.00394
1.00391
1.00394
1.00393
1.00391
1.00388
1.00345
1.00346
1.00344
1.00342
1.00345
1.00345
1.00344
1.00342
1.00344
1.00344
1.00342
1.0034
1.00343
1.00342
1.0034
1.00338
1.00296
1.00296
1.00295
1.00294
1.00295
1.00295
1.00295
1.00293
1.00295
1.00295
1.00294
1.00292
1.00294
1.00293
1.00292
1.0029
1.00248
1.00248
1.00247
1.00246
1.00248
1.00248
1.00247
1.00246
1.00247
1.00247
1.00246
1.00245
1.00247
1.00246
1.00245
1.00244
1.00202
1.00202
1.00201
1.002
1.00201
1.00201
1.00201
1.002
1.00201
1.00201
1.002
1.002
1.00201
1.002
1.002
1.00199
1.00156
1.00156
1.00156
1.00155
1.00156
1.00156
1.00156
1.00155
1.00156
1.00156
1.00155
1.00155
1.00155
1.00155
1.00155
1.00154
1.00111
1.00111
1.00111
1.0011
1.00111
1.00111
1.00111
1.0011
1.00111
1.00111
1.00111
1.0011
1.00111
1.0011
1.0011
1.0011
1.00066
1.00066
1.00066
1.00066
1.00066
1.00066
1.00066
1.00066
1.00066
1.00066
1.00066
1.00066
1.00066
1.00066
1.00066
1.00066
1.00022
1.00022
1.00022
1.00022
1.00022
1.00022
1.00022
1.00022
1.00022
1.00022
1.00022
1.00022
1.00022
1.00022
1.00022
1.00022
)
;

boundaryField
{
    inlet
    {
        type            zeroGradient;
    }
    outlet
    {
        type            fixedValue;
        value           uniform 1;
    }
    wall
    {
        type            zeroGradient;
    }
    procBoundary0to1
    {
        type            processor;
        value           nonuniform List<scalar> 
192
(
17.4609
17.5307
17.3688
17.2273
15.33
15.1214
14.7881
14.255
12.089
11.7072
10.4119
8.6754
9.34768
8.55226
8.30429
7.49395
5.36025
5.20262
6.61962
8.02489
1.62529
1.99726
2.23988
3.0271
1.0276
1.04198
1.03069
1.00829
1.00768
1.00982
1.00954
1.00853
1.01193
1.01193
1.01144
1.00984
1.00773
1.00758
1.00726
1.00668
1.00705
1.00688
1.00667
1.00637
1.00612
1.00598
1.00584
1.00564
1.00542
1.00532
1.00521
1.00508
1.00483
1.00476
1.00467
1.00458
1.0043
1.00424
1.00418
1.00411
1.0038
1.00375
1.00371
1.00366
1.00332
1.00329
1.00325
1.00322
1.00286
1.00284
1.00281
1.00278
1.00241
1.00239
1.00237
1.00235
1.00197
1.00195
1.00194
1.00192
1.00152
1.00152
1.00151
1.0015
1.00109
1.00108
1.00108
1.00107
1.00065
1.00065
1.00065
1.00064
1.00022
1.00022
1.00021
1.00021
17.6486
17.7155
17.5956
17.4706
15.7976
15.4666
15.2624
14.869
12.381
12.222
11.5474
12.0378
8.748
8.40948
8.71982
9.86131
4.87206
4.6243
5.21764
5.21214
1.52255
1.61972
1.45973
1.3877
0.993245
1.01962
1.01905
1.02238
1.00214
1.00453
1.00546
1.00675
1.01008
1.01097
1.0113
1.01155
1.00687
1.00731
1.00757
1.00767
1.00699
1.00702
1.00708
1.00709
1.00622
1.00623
1.00622
1.00618
1.00557
1.00556
1.00553
1.00549
1.00497
1.00495
1.00492
1.00489
1.00441
1.00439
1.00437
1.00434
1.00388
1.00387
1.00386
1.00383
1.00339
1.00338
1.00337
1.00335
1.00291
1.0029
1.00289
1.00288
1.00245
1.00244
1.00243
1.00242
1.00199
1.00199
1.00198
1.00198
1.00154
1.00154
1.00154
1.00153
1.0011
1.0011
1.0011
1.00109
1.00066
1.00066
1.00066
1.00065
1.00022
1.00022
1.00022
1.00022
)
;
    }
    procBoundary0to2
    {
        type            processor;
        value           nonuniform List<scalar> 
192
(
17.6775
17.6241
17.4879
17.1971
15.0088
15.0149
14.8156
14.22
11.9792
12.2742
12.4515
12.9148
8.84509
7.85039
8.57997
8.73798
4.48444
5.53139
5.36502
5.42846
1.80512
1.87771
1.8104
0.910921
1.01105
1.01255
1.01006
1.03793
1.00354
1.00371
1.00182
1.0016
1.00925
1.00961
1.01007
1.01408
1.00643
1.0066
1.00672
1.0076
1.00631
1.0064
1.00642
1.00659
1.00568
1.00571
1.00568
1.00567
1.00514
1.00514
1.0051
1.00506
1.00465
1.00463
1.00459
1.00455
1.00417
1.00415
1.00412
1.00409
1.00372
1.0037
1.00367
1.00364
1.00327
1.00325
1.00323
1.00321
1.00282
1.00281
1.00279
1.00278
1.00238
1.00237
1.00236
1.00235
1.00195
1.00194
1.00193
1.00192
1.00151
1.00151
1.0015
1.00149
1.00108
1.00108
1.00107
1.00107
1.00065
1.00065
1.00064
1.00064
1.00022
1.00022
1.00021
1.00021
17.9018
17.8104
17.9633
17.7719
15.1182
15.1882
15.1907
15.2088
11.6024
11.7519
11.8147
11.7993
8.39229
8.68803
8.65573
8.63439
4.77661
4.4623
4.78547
4.7415
1.47135
1.33721
1.26893
1.4126
1.01257
1.01637
1.00792
1.01834
1.00188
1.00335
1.00249
1.00368
1.00862
1.00888
1.00849
1.00916
1.00607
1.00625
1.00617
1.00636
1.00611
1.00612
1.00613
1.00623
1.00559
1.00561
1.00562
1.00565
1.00513
1.00513
1.00513
1.00514
1.00466
1.00466
1.00466
1.00465
1.0042
1.0042
1.00419
1.00419
1.00374
1.00374
1.00374
1.00373
1.00329
1.00329
1.00328
1.00328
1.00284
1.00284
1.00284
1.00283
1.0024
1.0024
1.0024
1.00239
1.00196
1.00196
1.00196
1.00195
1.00152
1.00152
1.00152
1.00152
1.00109
1.00109
1.00108
1.00108
1.00065
1.00065
1.00065
1.00065
1.00022
1.00022
1.00022
1.00022
)
;
    }
}


// ************************************************************************* //
