/*--------------------------------*- C++ -*----------------------------------*\
| =========                 |                                                 |
| \\      /  F ield         | OpenFOAM: The Open Source CFD Toolbox           |
|  \\    /   O peration     | Version:  2506                                  |
|   \\  /    A nd           | Website:  www.openfoam.com                      |
|    \\/     M anipulation  |                                                 |
\*---------------------------------------------------------------------------*/
FoamFile
{
    version     2.0;
    format      ascii;
    arch        "LSB;label=32;scalar=64";
    class       volVectorField;
    location    "0.07";
    object      U;
}
// * * * * * * * * * * * * * * * * * * * * * * * * * * * * * * * * * * * * * //

dimensions      [0 1 -1 0 0 0 0];

internalField   nonuniform List<vector> 
1152
(
(0.000915122 6.35548e-05 0.0177387)
(0.00176232 0.00219605 0.0164488)
(-0.00269527 -0.000934095 0.0239437)
(3.6758e-05 0.000174293 0.00623033)
(0.00104541 1.71531e-05 0.0158141)
(-5.29171e-05 0.00159899 0.020552)
(-0.00106207 0.00161099 0.0137906)
(0.00157097 0.00311216 0.0161415)
(0.003883 0.000961495 0.0184785)
(0.00112517 0.000449729 0.00755329)
(-0.0015417 0.00504746 0.026629)
(0.000817265 0.00356082 0.0217204)
(0.00203841 4.8484e-05 0.0147415)
(0.00452174 -0.00546964 0.0452945)
(-0.000472787 -0.00159762 0.0226359)
(0.0020282 0.00307885 0.0191324)
(0.000168367 -0.00146988 0.0252932)
(0.00103298 -0.00385017 0.0392344)
(0.00223448 0.00271949 0.04517)
(-0.000220071 0.00090801 0.0104986)
(7.12886e-05 -0.000781898 0.0349226)
(0.00532153 -3.8832e-05 0.0450972)
(0.00231125 0.000370247 0.00873168)
(-0.00156721 0.00291458 0.029012)
(0.000339658 -0.000455849 0.0211882)
(0.00120598 -0.00265867 0.0522873)
(0.00699837 -0.00359522 0.0419295)
(0.000963555 -0.000139014 0.01146)
(8.14468e-05 0.00200009 0.0300214)
(0.000638136 0.000731616 0.0105151)
(0.004943 0.00193746 0.030147)
(0.00392588 0.00150671 0.0249049)
(-0.00453522 0.00254051 0.0217818)
(-0.00221973 -0.00020548 0.0260028)
(0.00403715 0.000444449 0.0151258)
(0.000261814 -0.000326161 0.0034779)
(-0.000565808 -0.000496835 0.00849185)
(-4.67683e-05 -3.60115e-05 0.0119943)
(0.0143943 0.0073055 0.0484633)
(-0.000706274 0.00517574 0.030331)
(-0.00250117 -0.00320479 0.0313856)
(0.00240388 0.00203082 0.0274554)
(0.00456498 -0.00104698 0.0117633)
(0.0101976 0.00204315 0.0498967)
(7.45842e-05 -0.000284321 0.0195603)
(0.00313529 0.000282468 0.0658981)
(0.00282745 -0.00306186 0.0164185)
(0.00615905 -0.00725304 0.0146821)
(0.00443492 0.00334581 0.0271371)
(-0.00353175 0.00549181 0.0427781)
(-0.00102407 0.00116004 0.0157223)
(-0.00254807 -0.000557727 0.0355242)
(0.00316223 0.0025671 0.0570613)
(-0.00228954 0.00111524 0.0295129)
(-0.00310528 0.00164445 0.0291468)
(0.00309359 0.00897663 0.0358764)
(-0.00141381 4.54693e-05 0.0160874)
(-0.00122956 -0.00122428 0.0184498)
(0.00062845 0.00133495 0.0245818)
(-0.000173385 -9.26771e-05 0.00380112)
(-0.00150504 -0.00182184 0.0218555)
(-0.00377405 0.00761466 0.0616551)
(0.00309572 0.000408505 0.0321706)
(0.0111547 -0.00401223 0.0311715)
(-0.000333697 0.000970261 0.0226904)
(0.000977536 -0.000126724 0.0256412)
(-0.000995905 -0.000993625 0.0172692)
(-0.00209053 -0.00375541 0.0352538)
(-0.00110007 0.00172873 0.0266826)
(-0.00273556 0.000585973 0.04141)
(-0.00449661 -0.00767725 0.0362194)
(0.000530902 -0.0027961 0.0100686)
(-0.00156276 0.00252732 0.0332337)
(-0.00883156 -0.00176985 0.037196)
(-0.00752852 -0.000974959 0.0222886)
(-0.00538436 -0.0186908 0.058559)
(-0.00855161 0.00305221 0.0504071)
(-0.00165885 -0.000911717 0.0108973)
(-0.00529131 0.00147174 0.0156071)
(-0.000597197 6.41519e-05 0.00389252)
(-0.00111726 -0.000504593 0.0158691)
(-0.00287586 -0.000389038 0.0272378)
(-0.00238007 -0.00274572 0.0282009)
(0.00177226 -0.00286638 0.0229241)
(-0.00388522 -0.000716206 0.0306096)
(-0.00339896 -0.00121408 0.0209966)
(-0.00241814 -0.000262087 0.0183122)
(0.000744961 -0.00327606 0.04385)
(-0.00188856 -0.00107295 0.0173689)
(-0.00346267 -0.00215977 0.0316869)
(-0.000568469 -0.000201572 0.00710902)
(-0.00327414 0.000691814 0.039776)
(-0.00355043 -0.0022189 0.0253729)
(-0.0036649 -0.000599021 0.0311734)
(-0.00178893 0.000685064 0.0274017)
(-0.00285013 0.00425092 0.0171742)
(-0.00026232 -0.000509386 0.0142377)
(-0.000517661 -0.00073696 0.0227742)
(0.000200232 -0.000657034 0.0178777)
(-0.000109552 -0.000521553 0.0188413)
(-0.000182842 -0.000697837 0.0252144)
(-0.000106005 -0.000669268 0.0232819)
(0.000483001 -0.000141743 0.0165332)
(-0.00044333 -0.000670812 0.00751334)
(-0.000272775 -0.000242941 0.0212141)
(-0.000212664 0.000136421 0.0232096)
(-0.000245872 0.000626996 0.013718)
(-0.000509963 -0.000647858 0.0456309)
(8.63464e-05 0.000888935 0.0291738)
(0.00018259 0.000389725 0.013805)
(-8.33061e-05 0.000419844 0.0107866)
(0.000187236 0.000530185 0.0241633)
(0.00115918 -0.000935326 0.0279005)
(0.000526834 -0.00074837 0.0324258)
(0.000177453 -0.000554935 0.0272825)
(-0.000233749 -0.000861472 0.0268592)
(0.00130553 -0.00102481 0.0309316)
(0.00102482 -0.000652303 0.0303465)
(-3.70889e-05 -0.000469786 0.0217458)
(-0.00030144 -0.0011001 0.0191109)
(0.00107359 -9.68448e-05 0.030524)
(0.000876256 1.10908e-05 0.0305981)
(-0.000424785 3.33743e-05 0.0237929)
(4.6289e-06 9.39413e-05 0.0457767)
(0.000897857 0.000319637 0.0326731)
(0.00105112 0.00021073 0.0217073)
(0.000196855 0.000128327 0.0160836)
(-0.000811444 -0.000752072 0.0365829)
(0.000397438 0.000466808 0.00830329)
(0.000538146 0.000486443 0.00868609)
(0.000403577 0.0007048 0.00745982)
(-0.000349975 0.000616129 0.00730798)
(0.000315708 -0.000142643 0.00893914)
(0.00106561 9.4175e-05 0.00839745)
(0.0004569 6.49906e-05 0.0067692)
(-0.000648932 -0.00154198 0.0072053)
(-2.52161e-05 0.000272539 0.00866964)
(0.000605993 0.000721208 0.00801834)
(-0.00131291 0.000453168 0.00704295)
(-0.00024864 -0.00133789 0.0106448)
(0.00040532 0.000430357 0.00851723)
(0.00116339 0.000616465 0.00630098)
(-0.00165076 -0.000390638 0.00559222)
(-0.000218823 -0.0018401 0.00889061)
(3.78927e-05 -0.000255065 0.0170471)
(0.00023106 -5.21809e-06 0.0172714)
(0.00014902 0.000169694 0.0167106)
(-8.04159e-05 0.000167499 0.016857)
(0.00014941 -0.000196757 0.0171051)
(0.000467124 4.43099e-08 0.0169923)
(0.000146555 1.37153e-05 0.0162596)
(-0.000170896 -0.000549307 0.0166163)
(0.000157832 0.000146493 0.0169718)
(0.000354139 0.000348294 0.016924)
(-0.000454983 0.000271563 0.0165097)
(-0.00012873 -0.000324906 0.0182332)
(0.000310706 0.000247808 0.0166697)
(0.000537317 0.00036924 0.0160286)
(-0.000560898 7.3108e-05 0.0156613)
(-0.000210134 -0.000300842 0.0176615)
(0.000152349 5.15308e-05 0.0140582)
(0.000182171 8.87444e-05 0.0141528)
(9.8625e-05 0.000105954 0.0139658)
(3.0971e-05 9.27159e-05 0.0140668)
(9.4011e-05 4.65136e-05 0.0141455)
(0.000196995 8.34559e-05 0.0141007)
(6.34669e-05 6.39899e-05 0.0138553)
(-1.16179e-05 -0.000129563 0.0140321)
(0.000102702 0.000147113 0.0141319)
(0.000150441 0.000193563 0.0140933)
(-0.000143758 0.000154488 0.0139414)
(-4.12432e-05 -4.43081e-05 0.0145282)
(0.000104443 0.00012575 0.0139464)
(0.000174818 0.000173907 0.0137439)
(-0.000196221 9.71568e-05 0.0136047)
(-0.000104159 1.46327e-06 0.0142765)
(4.26389e-05 -1.59355e-05 0.0145749)
(6.69972e-05 3.12796e-05 0.0145939)
(4.18465e-05 4.12204e-05 0.0145259)
(3.69333e-05 4.74654e-05 0.0145682)
(3.3949e-05 1.50088e-05 0.0145683)
(7.25559e-05 4.57593e-05 0.0145659)
(2.71931e-05 4.11962e-05 0.0144893)
(1.74292e-05 -1.81899e-05 0.0145592)
(6.39808e-05 7.52634e-05 0.0145525)
(6.85572e-05 9.34503e-05 0.0145521)
(-3.6499e-05 8.03442e-05 0.0145078)
(-8.58419e-06 1.21973e-05 0.0147039)
(4.90024e-05 6.88308e-05 0.0144521)
(6.54843e-05 8.95134e-05 0.0144186)
(-6.4608e-05 7.22626e-05 0.0143835)
(-4.38058e-05 4.35131e-05 0.01461)
(3.93848e-05 1.1051e-05 0.0144598)
(4.36506e-05 2.68091e-05 0.0144992)
(3.09772e-05 2.45327e-05 0.0144907)
(3.1776e-05 2.78861e-05 0.0145147)
(2.64902e-05 2.34335e-05 0.0144852)
(3.8379e-05 3.44846e-05 0.0145074)
(2.0933e-05 2.93209e-05 0.0144929)
(2.00189e-05 1.02738e-05 0.014523)
(4.25992e-05 4.7515e-05 0.014497)
(3.83337e-05 5.13218e-05 0.0145096)
(8.79569e-07 4.37379e-05 0.0145014)
(5.29574e-06 1.90398e-05 0.014568)
(2.68952e-05 4.05252e-05 0.0144544)
(2.98309e-05 4.76791e-05 0.014461)
(-1.5165e-05 4.30871e-05 0.0144566)
(-1.37447e-05 3.15158e-05 0.0145359)
(2.30531e-05 8.80705e-06 0.0144402)
(2.46065e-05 1.64021e-05 0.0144756)
(2.03048e-05 1.38648e-05 0.0144838)
(2.16984e-05 1.59681e-05 0.0144962)
(1.67216e-05 1.59019e-05 0.0144685)
(2.09174e-05 2.08885e-05 0.0144941)
(1.54954e-05 1.79241e-05 0.0144985)
(1.54712e-05 1.18941e-05 0.0145116)
(2.55311e-05 2.63892e-05 0.0144848)
(2.17853e-05 2.69314e-05 0.0145018)
(8.92037e-06 2.30093e-05 0.0145058)
(7.89085e-06 1.41081e-05 0.0145277)
(1.59884e-05 2.17883e-05 0.0144686)
(1.60523e-05 2.41366e-05 0.014485)
(1.25668e-06 2.21309e-05 0.0144902)
(-9.02658e-07 1.73862e-05 0.0145186)
(1.41137e-05 6.26537e-06 0.0144281)
(1.4728e-05 9.54062e-06 0.0144658)
(1.33659e-05 7.99954e-06 0.0144817)
(1.4029e-05 9.10257e-06 0.014491)
(1.08469e-05 9.79473e-06 0.0144625)
(1.26536e-05 1.19276e-05 0.0144906)
(1.11136e-05 1.03385e-05 0.0145022)
(1.08373e-05 8.15441e-06 0.0145098)
(1.52572e-05 1.38864e-05 0.0144817)
(1.31946e-05 1.38873e-05 0.0145023)
(8.63992e-06 1.19242e-05 0.0145112)
(7.17731e-06 8.52295e-06 0.0145201)
(1.04256e-05 1.09623e-05 0.0144792)
(1.02889e-05 1.16435e-05 0.0144989)
(5.27086e-06 1.07017e-05 0.0145078)
(3.21021e-06 8.6952e-06 0.0145187)
(8.63412e-06 3.74433e-06 0.0144223)
(9.05457e-06 5.23646e-06 0.0144611)
(8.79123e-06 4.489e-06 0.0144804)
(9.00504e-06 4.9759e-06 0.0144892)
(7.07704e-06 5.48025e-06 0.0144597)
(8.0716e-06 6.45977e-06 0.0144892)
(7.69068e-06 5.71679e-06 0.0145035)
(7.36763e-06 4.74543e-06 0.0145098)
(9.24861e-06 7.09056e-06 0.0144805)
(8.39335e-06 7.00977e-06 0.0145033)
(6.68069e-06 6.06127e-06 0.0145143)
(5.63999e-06 4.613e-06 0.0145198)
(6.95759e-06 5.35543e-06 0.0144849)
(6.96595e-06 5.48706e-06 0.0145059)
(5.14336e-06 4.9889e-06 0.0145159)
(3.87053e-06 4.10068e-06 0.0145217)
(5.42591e-06 2.03974e-06 0.0144189)
(5.7535e-06 2.75663e-06 0.0144586)
(5.79578e-06 2.43304e-06 0.0144796)
(5.83018e-06 2.63589e-06 0.0144885)
(4.6988e-06 2.91769e-06 0.0144581)
(5.31691e-06 3.38427e-06 0.0144884)
(5.25469e-06 3.04323e-06 0.014504)
(5.01016e-06 2.58372e-06 0.0145103)
(5.72876e-06 3.55359e-06 0.0144799)
(5.48538e-06 3.46167e-06 0.014504)
(4.81964e-06 3.01788e-06 0.014516)
(4.19529e-06 2.35301e-06 0.0145209)
(4.6582e-06 2.54259e-06 0.0144875)
(4.79003e-06 2.48303e-06 0.0145092)
(4.09827e-06 2.22285e-06 0.0145198)
(3.40148e-06 1.8211e-06 0.0145243)
(3.46322e-06 9.83891e-07 0.0144171)
(3.72629e-06 1.37641e-06 0.0144573)
(3.83784e-06 1.26068e-06 0.0144792)
(3.84039e-06 1.35493e-06 0.0144885)
(3.1478e-06 1.45671e-06 0.0144573)
(3.57136e-06 1.70571e-06 0.014488)
(3.58095e-06 1.55886e-06 0.0145043)
(3.43926e-06 1.33615e-06 0.0145109)
(3.63334e-06 1.73905e-06 0.0144797)
(3.653e-06 1.6493e-06 0.0145045)
(3.38468e-06 1.4454e-06 0.0145171)
(3.05169e-06 1.12576e-06 0.014522)
(3.12119e-06 1.19426e-06 0.0144887)
(3.30183e-06 1.0716e-06 0.0145109)
(3.04246e-06 9.25807e-07 0.0145218)
(2.68409e-06 7.3154e-07 0.0145261)
(2.25715e-06 4.15869e-07 0.0144161)
(2.46222e-06 6.24962e-07 0.0144566)
(2.56694e-06 6.03024e-07 0.014479)
(2.57402e-06 6.63332e-07 0.0144886)
(2.07683e-06 6.93442e-07 0.0144568)
(2.40127e-06 8.09084e-07 0.0144878)
(2.45599e-06 7.51125e-07 0.0145045)
(2.38859e-06 6.41119e-07 0.0145114)
(2.30738e-06 8.16812e-07 0.0144796)
(2.43868e-06 7.57269e-07 0.0145048)
(2.35616e-06 6.46364e-07 0.0145177)
(2.20503e-06 4.77144e-07 0.0145228)
(2.09337e-06 5.3499e-07 0.0144892)
(2.25217e-06 4.43283e-07 0.0145118)
(2.17154e-06 3.46865e-07 0.014523)
(2.02389e-06 2.43817e-07 0.0145273)
(1.4812e-06 1.25209e-07 0.0144155)
(1.6368e-06 2.42858e-07 0.0144563)
(1.73535e-06 2.54312e-07 0.0144789)
(1.7441e-06 3.02208e-07 0.0144887)
(1.38189e-06 2.99896e-07 0.0144565)
(1.62475e-06 3.59955e-07 0.0144878)
(1.68764e-06 3.34387e-07 0.0145047)
(1.66232e-06 2.80856e-07 0.0145117)
(1.4879e-06 3.63208e-07 0.0144795)
(1.6321e-06 3.23536e-07 0.014505)
(1.63287e-06 2.60332e-07 0.0145181)
(1.57566e-06 1.67557e-07 0.0145234)
(1.40082e-06 2.20752e-07 0.0144895)
(1.5373e-06 1.6184e-07 0.0145122)
(1.53075e-06 1.02442e-07 0.0145236)
(1.49416e-06 4.87022e-08 0.0145281)
(9.80724e-07 -5.16448e-09 0.0144152)
(1.09087e-06 6.43589e-08 0.0144561)
(1.16683e-06 8.69815e-08 0.0144789)
(1.1776e-06 1.31557e-07 0.0144889)
(9.27617e-07 1.10342e-07 0.0144563)
(1.09853e-06 1.43107e-07 0.0144878)
(1.157e-06 1.41072e-07 0.0145048)
(1.14743e-06 1.23878e-07 0.014512)
(9.7969e-07 1.49801e-07 0.0144794)
(1.10234e-06 1.31286e-07 0.0145051)
(1.13426e-06 1.03973e-07 0.0145184)
(1.10664e-06 6.26482e-08 0.0145237)
(9.4923e-07 8.13406e-08 0.0144896)
(1.0633e-06 4.84855e-08 0.0145125)
(1.08853e-06 1.41126e-08 0.014524)
(1.07086e-06 -1.33864e-08 0.0145286)
(6.5112e-07 -5.04396e-08 0.014415)
(7.27435e-07 -2.62937e-09 0.014456)
(7.77656e-07 2.36049e-08 0.0144789)
(7.88685e-07 6.4675e-08 0.014489)
(6.29073e-07 2.85004e-08 0.0144562)
(7.43457e-07 5.14219e-08 0.0144877)
(7.87393e-07 6.39841e-08 0.0145049)
(7.82754e-07 7.18639e-08 0.0145121)
(6.57576e-07 5.94961e-08 0.0144794)
(7.53677e-07 5.70234e-08 0.0145051)
(7.90237e-07 5.60005e-08 0.0145185)
(7.67887e-07 5.08948e-08 0.0145239)
(6.56236e-07 3.36432e-08 0.0144896)
(7.47325e-07 1.74756e-08 0.0145126)
(7.81729e-07 6.71395e-11 0.0145242)
(7.49908e-07 -1.57131e-08 0.0145288)
(4.56869e-07 -4.8086e-08 0.0144149)
(5.10139e-07 -1.31215e-08 0.014456)
(5.4103e-07 1.07673e-08 0.0144789)
(5.54463e-07 4.55785e-08 0.014489)
(4.53645e-07 3.9235e-09 0.0144561)
(5.28313e-07 2.16058e-08 0.0144877)
(5.57582e-07 4.04251e-08 0.0145049)
(5.61326e-07 5.88858e-08 0.0145122)
(4.70821e-07 3.12483e-08 0.0144793)
(5.42987e-07 3.39688e-08 0.0145051)
(5.73549e-07 4.58763e-08 0.0145185)
(5.61375e-07 5.72068e-08 0.014524)
(4.7883e-07 2.95007e-08 0.0144896)
(5.48398e-07 2.13715e-08 0.0145126)
(5.81396e-07 1.62796e-08 0.0145242)
(5.5393e-07 9.35851e-09 0.0145289)
(3.89308e-07 -2.23039e-08 0.0144147)
(4.47898e-07 5.33608e-09 0.0144559)
(4.87329e-07 3.35929e-08 0.0144789)
(5.06014e-07 6.41112e-08 0.014489)
(4.06395e-07 1.27159e-08 0.014456)
(4.70648e-07 3.41382e-08 0.0144876)
(5.08926e-07 5.57039e-08 0.0145049)
(5.22823e-07 7.75835e-08 0.0145122)
(4.26919e-07 3.88185e-08 0.0144792)
(4.90476e-07 5.15524e-08 0.014505)
(5.27484e-07 6.58897e-08 0.0145185)
(5.34993e-07 8.14003e-08 0.0145241)
(4.40143e-07 5.31952e-08 0.0144895)
(5.02324e-07 5.63052e-08 0.0145126)
(5.3948e-07 6.00797e-08 0.0145242)
(5.39049e-07 6.11834e-08 0.0145289)
(-0.000589485 -0.00403391 0.0189039)
(-0.00404461 -0.00166664 0.0210051)
(-0.00401076 -0.0014104 0.0268743)
(-0.00173761 0.000203274 0.0155698)
(0.0027602 -0.000278673 0.0138032)
(0.00478764 0.000283391 0.0232697)
(0.00118854 -0.00156484 0.0219968)
(0.000854994 -0.00133119 0.0309534)
(0.000126775 -0.000606358 0.0158931)
(0.00026636 -0.00159335 0.0288665)
(-6.01246e-05 0.000398214 0.0208599)
(0.00119622 -8.57881e-05 0.0117089)
(0.00161508 8.33313e-05 0.0127243)
(0.00256054 -2.5975e-05 0.0100003)
(0.00305614 -0.00191773 0.0241581)
(0.000879749 0.000338057 0.0237189)
(-0.00464918 0.00351111 0.0562908)
(-0.00443751 9.18077e-05 0.0364762)
(0.00110099 -0.0015722 0.0183664)
(0.00108909 -0.000322612 0.030104)
(-0.00124977 0.000154127 0.00973229)
(-0.00643698 -0.00365618 0.0444121)
(-0.000994031 -0.000506829 0.0232338)
(0.000117177 -0.000557633 0.0314593)
(-0.00162924 -0.00342864 0.0413265)
(-0.000482113 -0.00108356 0.0195082)
(0.000957369 -0.000888 0.0148889)
(0.000175943 -0.00178154 0.032362)
(-0.000726352 0.00118693 0.0267251)
(-0.00219892 0.00320453 0.0398852)
(-0.000619452 0.00165078 0.0431274)
(0.00167274 0.000477442 0.0314553)
(0.000365959 0.00284572 0.0393763)
(0.00269234 0.00327545 0.0285166)
(0.00508971 0.00175066 0.0202728)
(-0.000193833 0.00124813 0.0211442)
(-0.00398681 0.0022033 0.0416737)
(-0.00332459 0.00246096 0.0396393)
(0.00057813 0.000140561 0.0200454)
(0.00682496 -0.00723936 0.0581243)
(0.000935598 -0.00106856 0.0330604)
(0.00112666 -0.00267849 0.033155)
(-0.00133181 -0.00526446 0.0423021)
(-0.000926267 -0.00140336 0.0167662)
(-0.00219982 0.000903495 0.0212503)
(-0.000399392 0.000211587 0.0125532)
(0.00031911 0.000353337 0.0100538)
(0.00264895 0.00122815 0.0375603)
(-0.000843352 -0.00424191 0.0361219)
(-0.00370674 -0.000915121 0.0224374)
(-0.00660723 0.00109822 0.039472)
(-0.000163095 -0.000481195 0.00403695)
(1.68053e-05 4.37154e-05 0.00402944)
(0.00421371 0.00838383 0.0514156)
(4.15186e-05 0.00430494 0.0213043)
(-0.00125223 0.00802281 0.034593)
(-0.00239978 0.00419849 0.0339907)
(-0.0014756 0.00462118 0.0438283)
(0.00144367 0.00358904 0.0301373)
(-0.000912609 0.000775017 0.0246068)
(-0.000267871 -0.000649038 0.0294241)
(-0.000358428 -0.000241228 0.0158141)
(-0.00150242 -0.00156516 0.0293691)
(-0.00123698 -0.00316229 0.0390544)
(0.000302259 0.000128981 0.0625862)
(0.00079463 0.000534462 0.022027)
(0.00294689 0.00412077 0.0385686)
(0.000236132 0.000778731 0.0113347)
(-0.00162914 0.00111741 0.0279073)
(0.00032619 0.00358123 0.0408549)
(0.00154439 0.00283048 0.0290233)
(-0.000907508 0.00165963 0.0429348)
(0.000977998 0.00340871 0.0460442)
(0.000215179 0.00214093 0.0188684)
(-0.0010231 0.00381732 0.0510027)
(-0.00055372 0.0035296 0.0437257)
(0.000966382 0.000203323 0.0267869)
(0.00110932 0.00145851 0.0271806)
(-0.000586108 3.23928e-05 0.0338179)
(-0.00118682 0.000749632 0.0190773)
(0.00141514 0.00218893 0.0164335)
(0.000796844 0.000648096 0.00549453)
(-0.000755122 0.00250417 0.023744)
(-0.000183011 0.00122786 0.0386251)
(0.00145871 0.00270054 0.0220726)
(0.00236314 0.00168718 0.0186887)
(0.00102055 0.00172068 0.0243926)
(-0.00120593 0.000559762 0.0222817)
(0.000764921 0.000558522 0.0148409)
(0.00199778 0.00147128 0.0333494)
(0.000317645 9.22295e-05 0.00550318)
(-0.000601759 -0.000145138 0.0136159)
(0.00205285 -0.000170635 0.0219859)
(0.00180278 -9.8206e-05 0.0143731)
(-0.000503111 -0.000510965 0.0258042)
(-0.00410671 -0.00063318 0.0308196)
(0.000470575 0.000120229 0.0291753)
(0.000362763 -0.000217833 0.0120936)
(-0.000356747 -5.29682e-05 0.0247343)
(-0.00037586 0.00055905 0.0265774)
(-0.000223302 0.000212931 0.0128119)
(-0.000319561 -0.000306835 0.0224961)
(-4.97519e-05 -0.000384342 0.0233025)
(-0.000223561 0.000267299 0.0281253)
(-0.000301422 0.000345545 0.0229166)
(-0.00120639 -0.000785107 0.0284)
(-0.000481897 7.31325e-05 0.0120095)
(-2.29201e-06 0.000271494 0.019503)
(-6.28467e-06 5.85565e-05 0.0139693)
(-0.000204849 -0.001278 0.0143249)
(-0.00100163 0.00052293 0.0277418)
(-0.000563984 0.000277577 0.0199135)
(0.00095927 -0.00104348 0.0321265)
(0.000676336 -0.00160986 0.025619)
(0.000385789 -0.00189373 0.0293484)
(0.00107461 -0.00139654 0.0316211)
(9.35015e-05 -0.00160621 0.0216922)
(-0.000161768 -0.00239433 0.0275953)
(0.000179296 -0.00150581 0.0292347)
(0.000873235 -0.000800902 0.0314246)
(-0.000401665 -0.000220139 0.0298088)
(0.000169079 -0.00011087 0.0303081)
(0.00139089 -7.21209e-05 0.0286466)
(0.0011476 0.000376565 0.0281383)
(-0.000521496 0.000151706 0.0224685)
(-0.00127369 -0.000544149 0.0239153)
(-8.78717e-05 0.000335148 0.028233)
(0.00076386 -0.00017056 0.028381)
(0.000156623 0.000585493 0.00842109)
(0.000213081 0.000360389 0.00773881)
(-0.000235579 2.43523e-06 0.00835336)
(6.94253e-05 0.000213898 0.00883781)
(-0.000433176 -0.000212593 0.00651721)
(-0.000717165 -0.000590449 0.0078528)
(-0.000711474 -0.00018924 0.00863579)
(-0.000311548 0.000166124 0.0091483)
(0.000162766 0.000166974 0.00871708)
(0.000415112 0.000406078 0.00916813)
(0.000365995 0.00043381 0.00853849)
(-4.82519e-05 0.000538375 0.00846603)
(-0.000233597 -0.000381447 0.00659444)
(-0.000632711 -0.000553694 0.00739251)
(-0.000526312 9.20413e-05 0.00845146)
(-0.000367047 -4.02685e-05 0.00833994)
(9.36983e-05 -0.000102493 0.0171329)
(8.10617e-05 -0.00023544 0.0169213)
(3.36654e-05 -0.000324284 0.0170563)
(5.23101e-05 -0.000297151 0.0171857)
(-9.25018e-05 -0.000457272 0.0157934)
(-0.00028122 -0.00061718 0.0163377)
(-0.000170941 -0.000441851 0.0167652)
(-1.19012e-05 -0.000260021 0.0170539)
(1.94459e-05 -7.60003e-05 0.0168382)
(0.000131205 1.42879e-06 0.0168778)
(0.000277277 6.5274e-05 0.0167443)
(0.000174599 0.00013325 0.0168072)
(-0.000185099 -0.000287249 0.0155125)
(-0.000336285 -0.000303814 0.01587)
(-0.000126184 -3.43807e-05 0.0162871)
(2.44534e-05 3.40913e-05 0.0164916)
(1.54197e-05 0.000112399 0.0137402)
(7.86074e-05 0.000109083 0.0138245)
(6.77955e-05 6.32253e-05 0.013929)
(0.000101954 5.60754e-05 0.0140243)
(-4.02267e-05 -2.2402e-05 0.0134224)
(-8.82611e-05 -5.05084e-05 0.0137459)
(-9.42172e-05 -9.93398e-06 0.0139738)
(-1.17842e-05 4.50706e-05 0.0141068)
(4.64379e-05 0.000103196 0.0139901)
(0.00012442 0.000137704 0.0141433)
(0.000126061 0.000149888 0.014127)
(9.97893e-05 0.000158373 0.0141244)
(-3.23463e-05 -8.08382e-05 0.0133592)
(-7.03081e-05 -7.15544e-05 0.0136556)
(-6.05601e-05 1.3385e-05 0.0138563)
(-5.05034e-06 5.84091e-05 0.0139312)
(6.36011e-06 7.53603e-06 0.014417)
(2.57633e-05 5.02979e-06 0.0144779)
(4.27715e-05 1.36058e-07 0.0145345)
(4.52062e-05 -4.47272e-06 0.0145716)
(-1.0218e-05 -5.53496e-05 0.0141822)
(-3.55979e-05 -6.09775e-05 0.0143318)
(-1.82622e-05 -3.60045e-05 0.0144602)
(1.17268e-05 -7.25247e-06 0.0145412)
(1.17422e-05 4.92371e-05 0.0144061)
(5.07063e-05 6.24433e-05 0.0144856)
(7.81003e-05 7.06094e-05 0.0145199)
(7.52939e-05 7.25903e-05 0.0145429)
(-2.92587e-05 -1.83922e-05 0.0140545)
(-4.16711e-05 -1.05889e-05 0.0142065)
(-1.54419e-05 1.90939e-05 0.0143373)
(1.38867e-05 4.19928e-05 0.0144199)
(5.32606e-06 1.77829e-05 0.0141753)
(2.40274e-05 2.34122e-05 0.0142807)
(3.3422e-05 2.14776e-05 0.0143583)
(3.69553e-05 1.85881e-05 0.014415)
(-4.70108e-06 -7.404e-06 0.0141138)
(-8.04127e-06 -6.48243e-06 0.0142581)
(-3.89653e-07 3.79141e-06 0.0143675)
(1.46127e-05 1.57691e-05 0.0144413)
(6.23944e-06 4.52857e-05 0.0142573)
(3.19752e-05 5.02978e-05 0.0143713)
(4.64749e-05 5.17298e-05 0.0144369)
(4.79372e-05 4.97787e-05 0.0144751)
(-1.21493e-05 9.94922e-06 0.0140891)
(-1.29789e-05 1.3556e-05 0.014241)
(-9.96664e-07 2.31156e-05 0.0143504)
(1.29532e-05 3.16208e-05 0.0144201)
(3.23539e-06 7.4742e-06 0.0141533)
(1.26301e-05 1.21512e-05 0.0142567)
(1.89278e-05 1.3446e-05 0.0143357)
(2.12233e-05 1.3041e-05 0.0143939)
(-1.13726e-06 -2.58029e-06 0.0141298)
(-1.0622e-06 9.1852e-08 0.0142569)
(3.61176e-06 5.92718e-06 0.0143548)
(1.11907e-05 1.20118e-05 0.0144238)
(3.23069e-06 2.6968e-05 0.0142083)
(1.78015e-05 2.99025e-05 0.014325)
(2.61493e-05 3.00304e-05 0.0144039)
(2.80963e-05 2.83658e-05 0.0144542)
(-5.36228e-06 1.16629e-05 0.0141274)
(-4.36724e-06 1.34375e-05 0.014265)
(1.93421e-06 1.65561e-05 0.0143652)
(9.54313e-06 1.92415e-05 0.0144315)
(2.32048e-06 3.92552e-06 0.0141217)
(7.6921e-06 7.23105e-06 0.0142298)
(1.13092e-05 8.47726e-06 0.0143137)
(1.26546e-05 8.65168e-06 0.0143766)
(-3.0882e-08 -1.06462e-07 0.0141269)
(1.09816e-06 1.86808e-06 0.0142508)
(3.90544e-06 4.97244e-06 0.0143463)
(7.98785e-06 8.06849e-06 0.0144153)
(1.76231e-06 1.49671e-05 0.0141789)
(1.00358e-05 1.64481e-05 0.0143003)
(1.49335e-05 1.62884e-05 0.0143871)
(1.645e-05 1.51179e-05 0.014445)
(-2.3884e-06 8.29928e-06 0.014145)
(-1.14306e-06 8.9907e-06 0.0142779)
(2.55759e-06 9.82168e-06 0.0143753)
(7.01255e-06 1.03973e-05 0.0144405)
(1.69511e-06 1.59689e-06 0.0141069)
(4.55872e-06 3.67735e-06 0.0142167)
(6.56621e-06 4.69412e-06 0.0143029)
(7.3847e-06 5.0802e-06 0.0143682)
(4.12569e-07 6.55606e-08 0.0141245)
(1.45688e-06 1.41506e-06 0.0142473)
(3.17283e-06 3.118e-06 0.014342)
(5.46029e-06 4.68923e-06 0.0144111)
(1.12462e-06 7.61057e-06 0.0141628)
(5.71682e-06 8.3655e-06 0.0142872)
(8.42672e-06 8.25335e-06 0.0143781)
(9.55545e-06 7.70244e-06 0.0144403)
(-9.80084e-07 4.86129e-06 0.0141529)
(1.79372e-07 5.05301e-06 0.0142842)
(2.54436e-06 5.23014e-06 0.0143806)
(5.15108e-06 5.31165e-06 0.0144454)
(1.28339e-06 4.53767e-07 0.0140981)
(2.79593e-06 1.73019e-06 0.0142091)
(3.90457e-06 2.47341e-06 0.0142967)
(4.43412e-06 2.82431e-06 0.0143634)
(4.80866e-07 -1.20842e-08 0.0141222)
(1.28676e-06 8.35288e-07 0.0142446)
(2.32234e-06 1.76296e-06 0.0143392)
(3.65814e-06 2.5682e-06 0.0144086)
(7.10794e-07 3.66121e-06 0.0141537)
(3.24387e-06 4.09596e-06 0.0142798)
(4.80952e-06 4.06485e-06 0.014373)
(5.64009e-06 3.85843e-06 0.0144377)
(-2.8042e-07 2.59179e-06 0.014156)
(6.54331e-07 2.63097e-06 0.0142869)
(2.0942e-06 2.6409e-06 0.0143827)
(3.6252e-06 2.61296e-06 0.0144474)
(9.8399e-07 -7.98012e-08 0.0140933)
(1.76824e-06 7.01209e-07 0.0142049)
(2.36625e-06 1.20836e-06 0.0142933)
(2.69998e-06 1.47202e-06 0.0143608)
(4.57147e-07 -1.49224e-07 0.0141205)
(1.01824e-06 3.62901e-07 0.014243)
(1.61769e-06 8.67719e-07 0.0143376)
(2.41963e-06 1.29756e-06 0.0144073)
(4.69036e-07 1.68727e-06 0.0141488)
(1.8883e-06 1.94096e-06 0.0142758)
(2.81036e-06 1.94148e-06 0.0143704)
(3.39881e-06 1.88907e-06 0.0144364)
(-1.34086e-08 1.33736e-06 0.0141572)
(6.64193e-07 1.32527e-06 0.0142878)
(1.537e-06 1.29991e-06 0.0143834)
(2.469e-06 1.27246e-06 0.0144482)
(7.5007e-07 -2.67973e-07 0.0140907)
(1.14997e-06 2.18639e-07 0.0142026)
(1.4552e-06 5.48329e-07 0.0142914)
(1.65594e-06 7.51538e-07 0.0143593)
(3.8782e-07 -1.98674e-07 0.0141193)
(7.57376e-07 1.11607e-07 0.0142419)
(1.10772e-06 3.95082e-07 0.0143365)
(1.58967e-06 6.36657e-07 0.0144065)
(3.26777e-07 7.35048e-07 0.0141461)
(1.14736e-06 8.64072e-07 0.0142737)
(1.68831e-06 8.67319e-07 0.0143689)
(2.08007e-06 8.6904e-07 0.0144356)
(5.08357e-08 6.74557e-07 0.0141574)
(5.15579e-07 6.42889e-07 0.014288)
(1.08531e-06 6.07742e-07 0.0143836)
(1.68453e-06 5.86554e-07 0.0144485)
(5.60875e-07 -3.13931e-07 0.0140892)
(7.63224e-07 -9.09431e-09 0.0142013)
(9.11158e-07 2.0565e-07 0.0142903)
(1.03507e-06 3.52723e-07 0.0143585)
(3.09071e-07 -1.9791e-07 0.0141185)
(5.50286e-07 1.05091e-09 0.0142411)
(7.55576e-07 1.56453e-07 0.0143359)
(1.05116e-06 2.85561e-07 0.014406)
(2.34321e-07 2.88884e-07 0.0141446)
(7.10288e-07 3.54665e-07 0.0142725)
(1.00866e-06 3.56178e-07 0.0143681)
(1.28451e-06 3.78741e-07 0.0144351)
(6.70292e-08 3.29802e-07 0.0141572)
(3.86847e-07 2.86172e-07 0.0142879)
(7.54465e-07 2.5798e-07 0.0143835)
(1.13353e-06 2.57939e-07 0.0144485)
(4.09924e-07 -2.82176e-07 0.0140883)
(5.10059e-07 -9.79869e-08 0.0142006)
(5.88417e-07 4.02796e-08 0.0142897)
(6.75209e-07 1.43957e-07 0.014358)
(2.29667e-07 -1.75872e-07 0.014118)
(3.87808e-07 -5.43518e-08 0.0142407)
(5.17137e-07 3.649e-08 0.0143355)
(7.10195e-07 1.06975e-07 0.0144057)
(1.59758e-07 8.81855e-08 0.0141438)
(4.39816e-07 1.25315e-07 0.0142718)
(6.20269e-07 1.28398e-07 0.0143676)
(8.20715e-07 1.52715e-07 0.0144349)
(6.061e-08 1.59423e-07 0.014157)
(2.7607e-07 1.21719e-07 0.0142877)
(5.1557e-07 1.0388e-07 0.0143834)
(7.65241e-07 1.07088e-07 0.0144485)
(2.91632e-07 -2.23796e-07 0.0140878)
(3.48607e-07 -1.11827e-07 0.0142002)
(3.97926e-07 -2.44145e-08 0.0142894)
(4.56589e-07 4.24983e-08 0.0143577)
(1.67129e-07 -1.41069e-07 0.0141176)
(2.75324e-07 -6.76704e-08 0.0142404)
(3.58781e-07 -1.55386e-08 0.0143352)
(4.86279e-07 2.63427e-08 0.0144055)
(1.07817e-07 7.58049e-09 0.0141433)
(2.79883e-07 2.877e-08 0.0142715)
(4.02117e-07 3.2889e-08 0.0143673)
(5.43338e-07 5.6142e-08 0.0144347)
(4.95512e-08 7.97317e-08 0.0141568)
(1.96958e-07 5.42635e-08 0.0142876)
(3.5856e-07 4.31692e-08 0.0143833)
(5.27484e-07 4.60575e-08 0.0144484)
(2.0818e-07 -1.68167e-07 0.0140876)
(2.54042e-07 -9.7626e-08 0.0142)
(2.87615e-07 -4.38725e-08 0.0142892)
(3.29556e-07 -2.95739e-09 0.0143576)
(1.22889e-07 -1.04855e-07 0.0141175)
(2.05751e-07 -5.80725e-08 0.0142403)
(2.63817e-07 -2.73447e-08 0.0143351)
(3.50872e-07 -2.53834e-10 0.0144054)
(7.57219e-08 -1.60983e-08 0.0141431)
(1.93816e-07 -1.90575e-10 0.0142713)
(2.82027e-07 4.98417e-09 0.0143672)
(3.81146e-07 2.50193e-08 0.0144346)
(4.44339e-08 4.81819e-08 0.0141567)
(1.54312e-07 3.4576e-08 0.0142875)
(2.66675e-07 2.78992e-08 0.0143832)
(3.84236e-07 3.2913e-08 0.0144484)
(1.65947e-07 -1.49387e-07 0.0140873)
(2.15004e-07 -1.06092e-07 0.0141998)
(2.64099e-07 -6.32405e-08 0.014289)
(3.10194e-07 -2.50787e-08 0.0143574)
(9.92427e-08 -9.94723e-08 0.0141172)
(1.77263e-07 -6.43347e-08 0.0142401)
(2.53593e-07 -3.1378e-08 0.0143349)
(3.32485e-07 -3.22715e-09 0.0144052)
(5.8408e-08 -2.69749e-08 0.0141428)
(1.59932e-07 -6.07303e-09 0.0142711)
(2.58695e-07 1.10298e-08 0.014367)
(3.51018e-07 2.82369e-08 0.0144345)
(4.19831e-08 4.40186e-08 0.0141565)
(1.47641e-07 4.64093e-08 0.0142873)
(2.57476e-07 4.86603e-08 0.0143831)
(3.58553e-07 5.1369e-08 0.0144483)
(-0.00221578 -0.000497342 0.0212275)
(-0.000548827 1.37299e-05 0.0102314)
(-0.000725746 0.00159617 0.0192704)
(0.000520802 0.000304509 0.00689122)
(-0.00129066 -0.000223232 0.0171018)
(0.000366904 -0.000593749 0.024523)
(0.000330407 0.00147989 0.0150082)
(4.99328e-05 0.00179027 0.0146794)
(0.000115963 0.000743831 0.0186572)
(0.00096111 -0.00144309 0.0246906)
(0.000365433 0.000733114 0.0193955)
(0.000532699 -0.000355125 0.026651)
(-0.000383867 5.20735e-05 0.0234584)
(0.00025164 0.000100636 0.0138994)
(0.000806127 0.000305968 0.0202329)
(0.000166833 -0.000382806 0.00335721)
(0.000521425 0.00134431 0.03133)
(-0.000905474 0.00132691 0.0495528)
(-0.00014239 0.00175 0.0177875)
(-0.00434863 -0.000754744 0.0451532)
(0.000950253 0.00140677 0.00779637)
(0.00118951 0.00271395 0.0229513)
(0.000271076 0.00254699 0.0388324)
(-0.00501375 -0.00330635 0.0419614)
(0.00357732 -0.00152016 0.0268099)
(-0.00110247 0.000799363 0.0250815)
(-0.00585827 0.00139658 0.0382224)
(-0.00129475 0.000914114 0.0168588)
(0.000201781 -0.00592973 0.0306683)
(-0.0010203 -0.00437213 0.0227243)
(0.00022824 -0.00166774 0.0274352)
(0.00280958 0.0045394 0.0450426)
(-0.00024149 0.000359403 0.0246732)
(0.00163876 0.00389941 0.0254494)
(0.000279212 -0.00129249 0.022338)
(-0.00306988 -0.0017299 0.032424)
(0.00126231 -0.00102106 0.0230963)
(-8.476e-05 0.000346165 0.0340997)
(-0.00321641 0.00017904 0.0395263)
(-0.00151171 0.000708876 0.0381411)
(-0.00642763 0.00338186 0.0725345)
(-0.000450204 0.000528493 0.0044143)
(0.00228053 -0.000523483 0.0345601)