/*--------------------------------*- C++ -*----------------------------------*\
| =========                 |                                                 |
| \\      /  F ield         | OpenFOAM: The Open Source CFD Toolbox           |
|  \\    /   O peration     | Version:  2506                                  |
|   \\  /    A nd           | Website:  www.openfoam.com                      |
|    \\/     M anipulation  |                                                 |
\*---------------------------------------------------------------------------*/
FoamFile
{
    version     2.0;
    format      ascii;
    arch        "LSB;label=32;scalar=64";
    class       volVectorField;
    location    "0.07";
    object      Us;
}
// * * * * * * * * * * * * * * * * * * * * * * * * * * * * * * * * * * * * * //

dimensions      [0 1 -1 0 0 0 0];

internalField   nonuniform List<vector> 
1152
(
(2.05248e-05 -0.000265676 0.00011926)
(-0.00012249 -0.000118149 -2.05996e-05)
(2.19673e-05 0.000101333 0.000115356)
(-0.000262899 0.000321526 1.62589e-05)
(-0.00022123 -0.000605523 0.000124708)
(0.000113091 -0.000406995 1.24178e-05)
(0.000145499 0.000733697 -0.000124479)
(0.000133397 0.000888759 -0.000517139)
(0.000442722 -0.000247284 -0.000344639)
(-0.000180987 -0.000216629 -0.000710849)
(-0.000316627 0.000100867 -4.18006e-05)
(0.000329051 0.000708146 -0.000458985)
(-0.000378737 -0.000314276 -0.000710668)
(-0.000877958 -0.000759306 -0.0022457)
(0.000148796 -0.000812331 4.94843e-05)
(0.0004554 -3.02283e-05 -0.000646372)
(-0.000113995 -0.000977817 0.00348404)
(0.000833985 -0.00179557 0.00410994)
(0.000212307 -0.000103799 0.00338338)
(1.0149e-05 0.000608883 0.00144154)
(0.000169416 -0.000750323 0.00356988)
(0.00149152 -0.000536454 0.00348067)
(0.00172648 0.000249646 0.00244478)
(-8.42208e-05 0.000310031 0.00264759)
(-0.000365731 -0.000338266 0.00231081)
(-0.000124936 -0.000433894 0.00337931)
(0.00144292 -0.000565991 0.00309084)
(0.000479759 -0.000191995 0.00264435)
(0.000141123 0.000538253 0.00279829)
(0.000523383 0.000554522 0.00179184)
(0.00104584 7.88002e-05 0.00362284)
(-8.73031e-06 0.000558243 0.00308435)
(-0.00042108 -0.000137505 0.00335127)
(0.000345568 -0.00027903 0.00445557)
(0.000684638 -0.00085814 0.00376289)
(0.00024539 -0.000402551 0.00323156)
(-1.01607e-05 -0.000195732 0.0032599)
(9.64916e-05 0.000178766 0.00439986)
(0.00125411 -0.000875572 0.00471694)
(-0.00041611 -0.000781667 0.00361878)
(-0.000556677 -0.000512047 0.00388238)
(-0.000279027 5.24644e-05 0.00441756)
(0.000397464 -0.000769923 0.00377941)
(-0.000195568 -0.000593333 0.00382028)
(-0.000377444 -0.000612195 0.00471943)
(0.000337477 -0.000782914 0.00488482)
(-4.92509e-05 -0.0008525 0.00472613)
(-0.000411588 -0.000758712 0.004307)
(-0.000565455 0.000762846 0.0034633)
(-0.000402055 0.000749206 0.00370695)
(0.000427204 0.00105836 0.00512153)
(-0.00018328 -0.000665613 0.00372502)
(-0.000251595 2.33712e-05 0.00410473)
(-0.0002938 -6.42961e-05 0.00356751)
(7.93852e-05 -0.000368272 0.00383012)
(0.000428598 -0.000370275 0.00499588)
(-0.000641425 -0.000342662 0.00381722)
(-0.000443043 -0.000386916 0.00383193)
(-0.000217238 -0.000287361 0.00391594)
(-0.000194836 -0.000139501 0.00368846)
(-0.000682136 -0.00032963 0.00411451)
(-0.000765933 -0.000258587 0.00446169)
(-0.000323578 -0.000243885 0.00417874)
(-0.000162142 -0.000173123 0.00362552)
(0.000121855 0.000628308 0.00322914)
(5.35394e-05 0.000263985 0.00345791)
(0.000107881 -8.60351e-06 0.00338204)
(0.000134895 0.000130623 0.00309846)
(-0.000328053 0.000241453 0.00377851)
(-3.55104e-05 9.0895e-06 0.00354734)
(-0.000157638 -0.000493771 0.00322506)
(6.62313e-05 -0.000473985 0.002794)
(-0.00044859 0.000274615 0.00394677)
(-0.000717307 0.000271262 0.00397934)
(-7.96404e-05 -0.000436099 0.00409185)
(0.000114224 -0.000341239 0.00319552)
(-0.000625392 -0.000288329 0.00393404)
(-0.000373506 -0.000233203 0.00376746)
(-0.000395029 -0.000365569 0.00364707)
(-0.000269761 -0.00018071 0.00325953)
(-7.66182e-05 -1.08199e-05 0.00302556)
(0.000330754 -0.00014315 0.00288914)
(0.000464287 -0.000123691 0.00297025)
(0.000542406 4.05059e-06 0.00268627)
(-0.000194777 -0.000221014 0.00362204)
(4.94384e-06 -0.000312127 0.00361709)
(1.37691e-05 -0.000126482 0.00303187)
(-0.000141384 -3.25104e-05 0.00273783)
(0.000200709 -0.00017874 0.00410015)
(4.72658e-05 -0.000342861 0.00331412)
(-0.000110297 -0.000187209 0.00345592)
(-0.000314015 8.45936e-05 0.00299606)
(-3.63559e-06 0.000233061 0.00385451)
(-0.000163411 -6.971e-05 0.00365321)
(2.95974e-05 0.000354644 0.00335923)
(-0.000108669 0.000175698 0.00291162)
(-0.00019876 -0.000589984 0.00288874)
(-4.66566e-05 -0.000895543 0.00274877)
(0.000302196 -0.000790779 0.00251179)
(-4.30451e-05 -0.000855637 0.00238383)
(-5.35656e-05 -0.000227216 0.00333749)
(-0.000166228 -0.000624521 0.00335653)
(0.000363278 -0.000226511 0.00296679)
(-0.000342044 -0.000511119 0.00261939)
(-2.38665e-05 1.22322e-05 0.00377539)
(-0.000257269 -0.00022039 0.00274889)
(0.000256037 0.000348286 0.00313483)
(-0.000240619 -0.000237243 0.0028813)
(-0.000133888 0.000579017 0.00385598)
(-0.000155399 0.000195444 0.00324384)
(5.14577e-06 0.000327029 0.00335016)
(0.000153389 0.000624741 0.00282331)
(0 0 0)
(0 0 0)
(0 0 0)
(0 0 0)
(0 0 0)
(0 0 0)
(0 0 0)
(0 0 0)
(0 0 0)
(0 0 0)
(0 0 0)
(0 0 0)
(0 0 0)
(0 0 0)
(0 0 0)
(0 0 0)
(0 0 0)
(0 0 0)
(0 0 0)
(0 0 0)
(0 0 0)
(0 0 0)
(0 0 0)
(0 0 0)
(0 0 0)
(0 0 0)
(0 0 0)
(0 0 0)
(0 0 0)
(0 0 0)
(0 0 0)
(0 0 0)
(0 0 0)
(0 0 0)
(0 0 0)
(0 0 0)
(0 0 0)
(0 0 0)
(0 0 0)
(0 0 0)
(0 0 0)
(0 0 0)
(0 0 0)
(0 0 0)
(0 0 0)
(0 0 0)
(0 0 0)
(0 0 0)
(0 0 0)
(0 0 0)
(0 0 0)
(0 0 0)
(0 0 0)
(0 0 0)
(0 0 0)
(0 0 0)
(0 0 0)
(0 0 0)
(0 0 0)
(0 0 0)
(0 0 0)
(0 0 0)
(0 0 0)
(0 0 0)
(0 0 0)
(0 0 0)
(0 0 0)
(0 0 0)
(0 0 0)
(0 0 0)
(0 0 0)
(0 0 0)
(0 0 0)
(0 0 0)
(0 0 0)
(0 0 0)
(0 0 0)
(0 0 0)
(0 0 0)
(0 0 0)
(0 0 0)
(0 0 0)
(0 0 0)
(0 0 0)
(0 0 0)
(0 0 0)
(0 0 0)
(0 0 0)
(0 0 0)
(0 0 0)
(0 0 0)
(0 0 0)
(0 0 0)
(0 0 0)
(0 0 0)
(0 0 0)
(0 0 0)
(0 0 0)
(0 0 0)
(0 0 0)
(0 0 0)
(0 0 0)
(0 0 0)
(0 0 0)
(0 0 0)
(0 0 0)
(0 0 0)
(0 0 0)
(0 0 0)
(0 0 0)
(0 0 0)
(0 0 0)
(0 0 0)
(0 0 0)
(0 0 0)
(0 0 0)
(0 0 0)
(0 0 0)
(0 0 0)
(0 0 0)
(0 0 0)
(0 0 0)
(0 0 0)
(0 0 0)
(0 0 0)
(0 0 0)
(0 0 0)
(0 0 0)
(0 0 0)
(0 0 0)
(0 0 0)
(0 0 0)
(0 0 0)
(0 0 0)
(0 0 0)
(0 0 0)
(0 0 0)
(0 0 0)
(0 0 0)
(0 0 0)
(0 0 0)
(0 0 0)
(0 0 0)
(0 0 0)
(0 0 0)
(0 0 0)
(0 0 0)
(0 0 0)
(0 0 0)
(0 0 0)
(0 0 0)
(0 0 0)
(0 0 0)
(0 0 0)
(0 0 0)
(0 0 0)
(0 0 0)
(0 0 0)
(0 0 0)
(0 0 0)
(0 0 0)
(0 0 0)
(0 0 0)
(0 0 0)
(0 0 0)
(0 0 0)
(0 0 0)
(0 0 0)
(0 0 0)
(0 0 0)
(0 0 0)
(0 0 0)
(0 0 0)
(0 0 0)
(0 0 0)
(0 0 0)
(0 0 0)
(0 0 0)
(0 0 0)
(0 0 0)
(0 0 0)
(0 0 0)
(0 0 0)
(0 0 0)
(0 0 0)
(0 0 0)
(0 0 0)
(0 0 0)
(0 0 0)
(0 0 0)
(0 0 0)
(0 0 0)
(0 0 0)
(0 0 0)
(0 0 0)
(0 0 0)
(0 0 0)
(0 0 0)
(0 0 0)
(0 0 0)
(0 0 0)
(0 0 0)
(0 0 0)
(0 0 0)
(0 0 0)
(0 0 0)
(0 0 0)
(0 0 0)
(0 0 0)
(0 0 0)
(0 0 0)
(0 0 0)
(0 0 0)
(0 0 0)
(0 0 0)
(0 0 0)
(0 0 0)
(0 0 0)
(0 0 0)
(0 0 0)
(0 0 0)
(0 0 0)
(0 0 0)
(0 0 0)
(0 0 0)
(0 0 0)
(0 0 0)
(0 0 0)
(0 0 0)
(0 0 0)
(0 0 0)
(0 0 0)
(0 0 0)
(0 0 0)
(0 0 0)
(0 0 0)
(0 0 0)
(0 0 0)
(0 0 0)
(0 0 0)
(0 0 0)
(0 0 0)
(0 0 0)
(0 0 0)
(0 0 0)
(0 0 0)
(0 0 0)
(0 0 0)
(0 0 0)
(0 0 0)
(0 0 0)
(0 0 0)
(0 0 0)
(0 0 0)
(0 0 0)
(0 0 0)
(0 0 0)
(0 0 0)
(0 0 0)
(0 0 0)
(0 0 0)
(0 0 0)
(0 0 0)
(0 0 0)
(0 0 0)
(0 0 0)
(0 0 0)
(0 0 0)
(0 0 0)
(0 0 0)
(0 0 0)
(0 0 0)
(-0.000227775 -0.000155391 1.5222e-05)
(-0.000197961 9.28475e-05 -3.34474e-05)
(9.16361e-05 -6.27151e-05 0.000117994)
(-3.91747e-05 -0.00012142 2.65537e-05)
(6.24274e-05 -0.00010379 2.8187e-05)
(-3.15487e-05 1.73623e-05 8.05243e-05)
(6.76976e-05 -0.00014098 0.000105386)
(0.000129172 -0.000502442 0.000238364)
(-0.000131705 -0.000254073 -0.000234227)
(0.000102501 -0.000104601 -4.75487e-05)
(0.00025959 -0.00016501 9.71582e-05)
(0.000348083 -0.000296538 -0.000145984)
(-6.38935e-05 0.00020259 -0.000572395)
(0.000191028 -0.000112993 -0.000201384)
(0.00044051 -0.000672307 -0.000187876)
(0.000110126 -0.000164858 -0.000124188)
(-0.00120479 0.00049273 0.00472798)
(-0.00194342 0.000446088 0.00319523)
(0.000207123 -0.000619396 0.00167728)
(-0.000154063 -0.000616184 0.00271311)
(-0.00071863 0.000434013 0.00153955)
(-0.00209565 -0.000635018 0.0041368)
(-0.000479697 -0.000609178 0.00228318)
(-0.000531782 -0.000388301 0.0038933)
(-0.000419268 -0.000679553 0.00436785)
(-0.000275981 -0.000335496 0.00181244)
(0.000528178 -0.000538639 0.0020943)
(-0.000235465 -0.00069336 0.00296272)
(-0.000501637 0.0010122 0.00223243)
(-0.000509304 0.00184998 0.00289463)
(-0.000674066 0.00102146 0.00347518)
(0.000153498 7.95492e-05 0.00251965)
(0.000508155 -4.29783e-05 0.0045931)
(-6.87136e-06 0.000374408 0.00464975)
(0.000511725 -0.000853503 0.00497453)
(-0.000651416 -0.000406074 0.00368331)
(-0.0011109 0.000448596 0.00274662)
(-0.00101139 0.000165631 0.00454655)
(0.000289366 -0.000232381 0.00370383)
(0.000289984 -0.000111012 0.0042905)
(-0.00015704 -0.000829817 0.00410618)
(0.000109303 -0.000126348 0.00254341)
(-8.31805e-05 -0.000576765 0.00343814)
(-0.000372169 -0.000691915 0.00394084)
(-0.000215284 0.000366527 0.00324943)
(0.000680879 0.000285425 0.00327542)
(-0.000261164 0.000331126 0.0033735)
(-0.0005813 -0.00011343 0.00342614)
(-3.82437e-05 -0.000104767 0.00300467)
(-0.000735038 0.000670308 0.00317406)
(-0.000826523 -0.000475632 0.00433003)
(-0.000189097 -0.00049262 0.00390353)
(-4.81029e-05 -6.97433e-05 0.00309178)
(0.000117878 0.00159686 0.00539458)
(0.000431256 0.000805672 0.00298148)
(-0.000167776 0.000448768 0.00412888)
(8.88091e-06 1.33467e-05 0.00288265)
(-0.000336706 0.000424536 0.00408661)
(0.000559382 0.000666544 0.00395456)
(-0.00029586 7.152e-05 0.00412257)
(-9.80749e-05 -0.000320436 0.00272996)
(-0.000310768 9.17752e-05 0.00310249)
(-5.38929e-05 -0.000278701 0.00421309)
(-0.000266526 -0.000493722 0.00411042)
(0.00145886 -0.00124474 0.0037726)
(9.77053e-05 0.000313203 0.00245798)
(-0.000171449 0.000643863 0.00248527)
(-5.60831e-05 0.00034793 0.00294812)
(-0.00015833 -0.000122371 0.00220655)
(0.000199248 -0.000393007 0.00410066)
(0.000432899 0.000373911 0.00368995)
(0.000801319 0.000390241 0.00471751)
(0.000258398 -0.000107454 0.00278406)
(0.000403337 0.000312698 0.00389983)
(0.000564848 5.57715e-05 0.00380159)
(0.000113005 0.000703388 0.00419934)
(0.000444993 -0.000272918 0.00256297)
(0.000499689 0.000440816 0.00330483)
(0.00042019 -0.000124702 0.003676)
(-0.000262303 0.000544039 0.00433915)
(8.68086e-05 -8.95701e-05 0.00165612)
(0.000412866 4.02021e-06 0.00174406)
(1.40305e-05 0.000689566 0.00220307)
(-0.000172857 0.000387534 0.00305993)
(1.00557e-05 -5.20525e-05 0.00194822)
(0.000136888 4.32156e-05 0.00280936)
(0.000344137 0.00042522 0.00354075)
(-0.000114365 0.000416137 0.0038493)
(0.000338247 4.55843e-05 0.00194549)
(0.000448647 0.000287075 0.00351642)
(0.00038828 7.57437e-05 0.0035895)
(0.00012588 0.00034242 0.00404958)
(2.46289e-05 -6.39378e-05 0.00224414)
(0.000304489 -1.11407e-05 0.00323483)
(0.00041377 -0.000379494 0.00335313)
(-0.000462565 -0.000136626 0.00410726)
(-0.00010915 -0.000503567 0.00153012)
(0.000183536 -0.000399792 0.00157502)
(0.000295425 0.00033345 0.00178093)
(-0.00116434 0.000592357 0.00335655)
(-5.21175e-05 0.000238219 0.00145561)
(-5.72891e-05 0.000189017 0.00244373)
(-5.87752e-05 -6.45757e-05 0.00347242)
(-0.00013692 0.000202797 0.0036387)
(-0.00030057 0.000277204 0.0014271)
(-0.00103094 -0.00162924 0.00292643)
(-0.000510492 2.10412e-05 0.0035862)
(-0.000149531 4.51063e-05 0.00368429)
(-5.48095e-06 2.20401e-05 0.00227381)
(9.18315e-05 -0.00131669 0.00300084)
(-0.000423167 -0.000472605 0.00338707)
(-0.000291185 0.000363435 0.00332667)
(0 0 0)
(0 0 0)
(0 0 0)
(0 0 0)
(0 0 0)
(0 0 0)
(0 0 0)
(0 0 0)
(0 0 0)
(0 0 0)
(0 0 0)
(0 0 0)
(0 0 0)
(0 0 0)
(0 0 0)
(0 0 0)
(0 0 0)
(0 0 0)
(0 0 0)
(0 0 0)
(0 0 0)
(0 0 0)
(0 0 0)
(0 0 0)
(0 0 0)
(0 0 0)
(0 0 0)
(0 0 0)
(0 0 0)
(0 0 0)
(0 0 0)
(0 0 0)
(0 0 0)
(0 0 0)
(0 0 0)
(0 0 0)
(0 0 0)
(0 0 0)
(0 0 0)
(0 0 0)
(0 0 0)
(0 0 0)
(0 0 0)
(0 0 0)
(0 0 0)
(0 0 0)
(0 0 0)
(0 0 0)
(0 0 0)
(0 0 0)
(0 0 0)
(0 0 0)
(0 0 0)
(0 0 0)
(0 0 0)
(0 0 0)
(0 0 0)
(0 0 0)
(0 0 0)
(0 0 0)
(0 0 0)
(0 0 0)
(0 0 0)
(0 0 0)
(0 0 0)
(0 0 0)
(0 0 0)
(0 0 0)
(0 0 0)
(0 0 0)
(0 0 0)
(0 0 0)
(0 0 0)
(0 0 0)
(0 0 0)
(0 0 0)
(0 0 0)
(0 0 0)
(0 0 0)
(0 0 0)
(0 0 0)
(0 0 0)
(0 0 0)
(0 0 0)
(0 0 0)
(0 0 0)
(0 0 0)
(0 0 0)
(0 0 0)
(0 0 0)
(0 0 0)
(0 0 0)
(0 0 0)
(0 0 0)
(0 0 0)
(0 0 0)
(0 0 0)
(0 0 0)
(0 0 0)
(0 0 0)
(0 0 0)
(0 0 0)
(0 0 0)
(0 0 0)
(0 0 0)
(0 0 0)
(0 0 0)
(0 0 0)
(0 0 0)
(0 0 0)
(0 0 0)
(0 0 0)
(0 0 0)
(0 0 0)
(0 0 0)
(0 0 0)
(0 0 0)
(0 0 0)
(0 0 0)
(0 0 0)
(0 0 0)
(0 0 0)
(0 0 0)
(0 0 0)
(0 0 0)
(0 0 0)
(0 0 0)
(0 0 0)
(0 0 0)
(0 0 0)
(0 0 0)
(0 0 0)
(0 0 0)
(0 0 0)
(0 0 0)
(0 0 0)
(0 0 0)
(0 0 0)
(0 0 0)
(0 0 0)
(0 0 0)
(0 0 0)
(0 0 0)
(0 0 0)
(0 0 0)
(0 0 0)
(0 0 0)
(0 0 0)
(0 0 0)
(0 0 0)
(0 0 0)
(0 0 0)
(0 0 0)
(0 0 0)
(0 0 0)
(0 0 0)
(0 0 0)
(0 0 0)
(0 0 0)
(0 0 0)
(0 0 0)
(0 0 0)
(0 0 0)
(0 0 0)
(0 0 0)
(0 0 0)
(0 0 0)
(0 0 0)
(0 0 0)
(0 0 0)
(0 0 0)
(0 0 0)
(0 0 0)
(0 0 0)
(0 0 0)
(0 0 0)
(0 0 0)
(0 0 0)
(0 0 0)
(0 0 0)
(0 0 0)
(0 0 0)
(0 0 0)
(0 0 0)
(0 0 0)
(0 0 0)
(0 0 0)
(0 0 0)
(0 0 0)
(0 0 0)
(0 0 0)
(0 0 0)
(0 0 0)
(0 0 0)
(0 0 0)
(0 0 0)
(0 0 0)
(0 0 0)
(0 0 0)
(0 0 0)
(0 0 0)
(0 0 0)
(0 0 0)
(0 0 0)
(0 0 0)
(0 0 0)
(0 0 0)
(0 0 0)
(0 0 0)
(0 0 0)
(0 0 0)
(0 0 0)
(0 0 0)
(0 0 0)
(0 0 0)
(0 0 0)
(0 0 0)
(0 0 0)
(0 0 0)
(0 0 0)
(0 0 0)
(0 0 0)
(0 0 0)
(0 0 0)
(0 0 0)
(0 0 0)
(0 0 0)
(0 0 0)
(0 0 0)
(0 0 0)
(0 0 0)
(0 0 0)
(0 0 0)
(0 0 0)
(0 0 0)
(0 0 0)
(0 0 0)
(0 0 0)
(0 0 0)
(0 0 0)
(0 0 0)
(0 0 0)
(0 0 0)
(0 0 0)
(0 0 0)
(0 0 0)
(0 0 0)
(0 0 0)
(0 0 0)
(0 0 0)
(0 0 0)
(0 0 0)
(0 0 0)
(0 0 0)
(0 0 0)
(0 0 0)
(0 0 0)
(0 0 0)
(0 0 0)
(0 0 0)
(0 0 0)
(0 0 0)
(0 0 0)
(0 0 0)
(0 0 0)
(0 0 0)
(0 0 0)
(0 0 0)
(0 0 0)
(0 0 0)
(0 0 0)
(0 0 0)
(-0.000355425 2.91389e-05 -4.99846e-05)
(-0.000101281 0.000144149 -7.76988e-05)
(4.13424e-05 0.000334802 -0.00093)
(0.000150785 -0.000144138 -4.49889e-05)
(-0.000436066 2.22896e-05 -0.000208589)
(-0.00024637 0.000306592 1.44116e-05)
(-0.000136545 0.000155235 -8.46704e-05)
(-3.00111e-05 0.000377272 -0.000338499)
(-0.000269669 -3.93511e-05 7.59011e-05)
(-0.000114892 0.000129794 4.22812e-05)
(-0.000299859 0.000248845 0.000118115)
(9.54449e-05 -0.000347017 -0.000552787)
(-8.30108e-05 -0.000119797 6.6621e-05)
(-0.000381835 6.26199e-05 -7.89742e-05)
(-0.000168676 8.86422e-05 0.000129139)
(-0.000100803 -6.28897e-05 4.46288e-06)
(-0.000429659 0.000529035 0.00208179)
(-0.000693704 0.000931431 0.00473408)
(-0.000681086 0.000751257 0.00176591)
(-0.00132554 0.000333534 0.0035174)
(0.00030186 0.000569161 0.000837124)
(-4.19883e-05 0.000442698 0.000873142)
(-0.000105878 0.000141986 0.00386627)
(-0.00220993 -7.14195e-05 0.00408525)
(0.000304369 -0.000120253 0.00337746)
(-0.000496446 -0.000243901 0.00226872)
(-0.00100516 0.000536302 0.00320569)
(-0.000779798 0.000257502 0.0018857)
(-0.000747814 -0.00143308 0.00334248)
(-0.000678501 -0.00130767 0.00242206)
(-1.59655e-05 -0.00106632 0.00263479)
(0.000566864 0.00030444 0.00255841)
(-0.000139013 0.000574813 0.00240805)
(8.58548e-05 0.00143539 0.00583773)
(-0.000550564 -0.000214855 0.00277247)
(-0.0013131 -0.000440512 0.00278328)
(0.000198814 0.00038207 0.00514813)
(0.000178753 0.00111986 0.00411253)
(-0.00119993 0.000579401 0.00600356)
(-0.00128085 0.000305877 0.00513607)
(-0.000242529 0.000488915 0.00723535)
(-0.000444088 0.00057349 0.0041548)
(-0.000885188 0.000254223 0.00538924)
(0.000193937 0.000680232 0.00427522)
(-0.000300213 -0.00074568 0.00452322)
(-0.000458798 -5.62306e-05 0.00455815)
(-0.000223258 -0.000683517 0.00498565)
(-8.9975e-05 0.000137592 0.00374358)
(-3.54997e-05 -0.000589207 0.00239573)
(0.000595864 -0.00019719 0.00255874)
(0.000825919 0.000165051 0.00227315)
(0.000553709 -8.54446e-06 0.00263254)
(-0.00050097 -0.00126065 0.00629296)
(0.000650188 9.26096e-05 0.00344686)
(0.000293201 0.000541415 0.00318282)
(0.000300132 2.48213e-05 0.00344237)
(0.000214593 -0.000920523 0.00858805)
(-0.000480314 0.000268905 0.00390637)
(-0.000297422 0.000744291 0.00367925)
(-0.00038949 -0.000328972 0.00340149)
(0.000348025 0.0012024 0.00379585)
(0.000405259 0.00138407 0.00402332)
(0.00021533 0.000944894 0.00508291)
(0.000373917 0.000236664 0.00465677)
(2.08474e-05 -0.000118175 0.00202937)
(7.91517e-05 -0.000185374 0.00178671)
(-9.5743e-05 -0.000209544 0.00209247)
(-0.000396374 -0.000831841 0.00269726)
(-0.000338704 4.95643e-05 0.00275156)
(-0.00043318 0.000809804 0.00294502)
(-0.000534251 0.000568562 0.0035932)
(-0.000543994 -9.73713e-06 0.00268463)
(-0.000154494 0.000994582 0.00315614)
(-0.000338102 0.00110297 0.00323388)
(0.000274848 0.00018287 0.00283645)
(7.68643e-05 0.000165573 0.00329295)
(-5.85137e-05 0.000906983 0.00277141)
(-0.000122144 0.000580883 0.00309212)
(0.000117333 0.000226312 0.00321903)
(0.000469854 0.000309636 0.00392253)
(0.000134298 3.34886e-05 0.00149648)
(0.000277209 -0.000489423 0.00129292)
(0.000278506 -0.000136187 0.00107294)
(-0.000313622 0.000735145 0.00141383)
(0.000459691 0.000408947 0.00229404)
(0.00027007 0.000132336 0.00200042)
(0.00053661 0.000553652 0.00185883)
(0.000162297 0.000519611 0.00174588)
(-0.000267394 8.92009e-05 0.00227084)
(0.000425368 0.000208395 0.00220432)
(0.000835119 0.000506453 0.00176736)
(0.00068333 0.000182576 0.00242905)
(-0.000240543 -0.000129735 0.00234675)
(0.000338011 -0.000303355 0.00232296)
(0.000671014 0.000354752 0.00213181)
(0.000821347 4.91795e-05 0.00229587)
(0.000150426 -3.16374e-05 0.000983157)
(-0.000227019 0.000295895 0.000557692)
(0.000380987 0.000317609 0.000406693)
(0.000282842 -9.83078e-05 0.00034857)
(0.000583201 0.000242682 0.00170977)
(0.000422047 0.00167899 0.000774755)
(0.000198776 0.00133316 0.000831742)
(-7.39519e-05 0.000217358 0.00161679)
(0.00152037 0.00105475 0.00174553)
(0.00198855 0.00167352 0.00181531)
(0.000982204 0.000912447 0.00161408)
(0.000734542 0.000260705 0.0024472)
(0.000510943 0.0015814 0.00204941)
(0.00093002 0.00153814 0.0010643)
(0.000587625 -1.07287e-05 0.00206108)
(0.000528143 2.69703e-05 0.00193928)
(0 0 0)
(0 0 0)
(0 0 0)
(0 0 0)
(0 0 0)
(0 0 0)
(-0.000595544 0.00284959 -0.00110398)
(0 0 0)
(0 0 0)
(0 0 0)
(0 0 0)
(0 0 0)
(0 0 0)
(0 0 0)
(0 0 0)
(0 0 0)
(0 0 0)
(0 0 0)
(0 0 0)
(0 0 0)
(0 0 0)
(0 0 0)
(0 0 0)
(0 0 0)
(0 0 0)
(0 0 0)
(0 0 0)
(0 0 0)
(0 0 0)
(0 0 0)
(0 0 0)
(0 0 0)
(0 0 0)
(0 0 0)
(0 0 0)
(0 0 0)
(0 0 0)
(0 0 0)
(0 0 0)
(0 0 0)
(0 0 0)
(0 0 0)
(0 0 0)
(0 0 0)
(0 0 0)
(0 0 0)
(0 0 0)
(0 0 0)
(0 0 0)
(0 0 0)
(0 0 0)
(0 0 0)
(0 0 0)
(0 0 0)
(0 0 0)
(0 0 0)
(0 0 0)
(0 0 0)
(0 0 0)
(0 0 0)
(0 0 0)
(0 0 0)
(0 0 0)
(0 0 0)
(0 0 0)
(0 0 0)
(0 0 0)
(0 0 0)
(0 0 0)
(0 0 0)
(0 0 0)
(0 0 0)
(0 0 0)
(0 0 0)
(0 0 0)
(0 0 0)
(0 0 0)
(0 0 0)
(0 0 0)
(0 0 0)
(0 0 0)
(0 0 0)
(0 0 0)
(0 0 0)
(0 0 0)
(0 0 0)
(0 0 0)
(0 0 0)
(0 0 0)
(0 0 0)
(0 0 0)
(0 0 0)
(0 0 0)
(0 0 0)
(0 0 0)
(0 0 0)
(0 0 0)
(0 0 0)
(0 0 0)
(0 0 0)
(0 0 0)
(0 0 0)
(0 0 0)
(0 0 0)
(0 0 0)
(0 0 0)
(0 0 0)
(0 0 0)
(0 0 0)
(0 0 0)
(0 0 0)
(0 0 0)
(0 0 0)
(0 0 0)
(0 0 0)
(0 0 0)
(0 0 0)
(0 0 0)
(0 0 0)
(0 0 0)
(0 0 0)
(0 0 0)
(0 0 0)
(0 0 0)
(0 0 0)
(0 0 0)
(0 0 0)
(0 0 0)
(0 0 0)
(0 0 0)
(0 0 0)
(0 0 0)
(0 0 0)
(0 0 0)
(0 0 0)
(0 0 0)
(0 0 0)
(0 0 0)
(0 0 0)
(0 0 0)
(0 0 0)
(0 0 0)
(0 0 0)
(0 0 0)
(0 0 0)
(0 0 0)
(0 0 0)
(0 0 0)
(0 0 0)
(0 0 0)
(0 0 0)
(0 0 0)
(0 0 0)
(0 0 0)
(0 0 0)
(0 0 0)
(0 0 0)
(0 0 0)
(0 0 0)
(0 0 0)
(0 0 0)
(0 0 0)
(0 0 0)
(0 0 0)
(0 0 0)
(0 0 0)
(0 0 0)
(0 0 0)
(0 0 0)
(0 0 0)
(0 0 0)
(0 0 0)
(0 0 0)
(0 0 0)
(0 0 0)
(0 0 0)
(0 0 0)
(0 0 0)
(0 0 0)
(0 0 0)
(0 0 0)
(0 0 0)
(0 0 0)
(0 0 0)
(0 0 0)
(0 0 0)
(0 0 0)
(0 0 0)
(0 0 0)
(0 0 0)
(0 0 0)
(0 0 0)
(0 0 0)
(0 0 0)
(0 0 0)
(0 0 0)
(0 0 0)
(0 0 0)
(0 0 0)
(0 0 0)
(0 0 0)
(0 0 0)
(0 0 0)
(0 0 0)
(0 0 0)
(0 0 0)
(0 0 0)
(0 0 0)
(0 0 0)
(0 0 0)
(0 0 0)
(0 0 0)
(0 0 0)
(0 0 0)
(0 0 0)
(0 0 0)
(0 0 0)
(0 0 0)
(0 0 0)
(0 0 0)
(0 0 0)
(0 0 0)
(0 0 0)
(0 0 0)
(0 0 0)
(0 0 0)
(0 0 0)
(0 0 0)
(0 0 0)
(0 0 0)
(0 0 0)
(0 0 0)
(0 0 0)
(0 0 0)
(0 0 0)
(0 0 0)
(0 0 0)
(0 0 0)
(0 0 0)
(0 0 0)
(0 0 0)
(0 0 0)
(0 0 0)
(0 0 0)
(0 0 0)
(0 0 0)
(0 0 0)
(0 0 0)
(0 0 0)
(0 0 0)
(0 0 0)
(0 0 0)
(0 0 0)
(0 0 0)
(0 0 0)
(0 0 0)
(0 0 0)
(0 0 0)
(0 0 0)
(0 0 0)
(0 0 0)
(0 0 0)
(0 0 0)
(0 0 0)
(0 0 0)
(0 0 0)
(0 0 0)
(0 0 0)
(0 0 0)
(0 0 0)
(0 0 0)
(0 0 0)
)
;

boundaryField
{
    inlet
    {
        type            zeroGradient;
    }
    outlet
    {
        type            zeroGradient;
    }
    wall
    {
        type            zeroGradient;
    }
    procBoundary0to1
    {
        type            processor;
        value           nonuniform List<vector> 
192
(
(-7.14457e-05 7.4022e-05 0.000208516)
(-4.68853e-05 -4.78858e-05 -0.000715444)
(0.000446626 0.000637663 -2.79202e-05)
(-0.000268363 0.000240862 -0.000487003)
(-0.00126426 0.000969038 0.00120822)
(-0.00102362 0.000909198 0.00160548)
(-0.00124803 0.000573166 0.00294329)
(-0.000807056 0.00022203 0.00256156)
(-0.000530401 0.000224452 0.00431734)
(-6.84577e-06 -0.000458342 0.00348828)
(-0.000466904 -0.000463781 0.003466)
(-0.000312043 4.35494e-05 0.00430526)
(-0.00022432 -0.000369781 0.0037301)
(-0.000419576 -0.000178429 0.00335006)
(-0.000369516 -0.000171594 0.00360778)
(-0.000228039 -0.000205286 0.00373899)
(0.000150599 -0.000140119 0.00352231)
(-0.00012798 3.53747e-07 0.00330566)
(-0.000390247 -4.7967e-05 0.00334274)
(0.000120529 -0.00014252 0.00322823)
(0.000118406 -0.000212494 0.0024523)
(-0.000169224 2.77315e-05 0.00256986)
(-0.000196756 -0.000170169 0.00282248)
(0.000574656 -0.000510734 0.00337182)
(0.000522134 -0.000203296 0.00189116)
(-2.11061e-05 1.30782e-05 0.00268288)
(-0.000208602 -1.95304e-05 0.00237306)
(7.5196e-05 0.000131715 0.00254449)
(0 0 0)
(0 0 0)
(0 0 0)
(0.000858952 -9.42842e-05 0.00248963)
(0 0 0)
(0 0 0)
(0 0 0)
(0 0 0)
(0 0 0)
(0 0 0)
(0 0 0)
(0 0 0)
(0 0 0)
(0 0 0)
(0 0 0)
(0 0 0)
(0 0 0)
(0 0 0)
(0 0 0)
(0 0 0)
(0 0 0)
(0 0 0)
(0 0 0)
(0 0 0)
(0 0 0)
(0 0 0)
(0 0 0)
(0 0 0)
(0 0 0)
(0 0 0)
(0 0 0)
(0 0 0)
(0 0 0)
(0 0 0)
(0 0 0)
(0 0 0)
(0 0 0)
(0 0 0)
(0 0 0)
(0 0 0)
(0 0 0)
(0 0 0)
(0 0 0)
(0 0 0)
(0 0 0)
(0 0 0)
(0 0 0)
(0 0 0)
(0 0 0)
(0 0 0)
(0 0 0)
(0 0 0)
(0 0 0)
(0 0 0)
(0 0 0)
(0 0 0)
(0 0 0)
(0 0 0)
(0 0 0)
(0 0 0)
(0 0 0)
(0 0 0)
(0 0 0)
(0 0 0)
(0 0 0)
(0 0 0)
(0 0 0)
(0 0 0)
(-0.000258044 2.43656e-05 -0.000187319)
(-3.67691e-05 0.000231793 -0.000202678)
(-3.34549e-05 -2.44999e-05 -0.000353269)
(6.52724e-05 -0.000196638 -3.35606e-05)
(-0.00160204 0.00142324 0.00108458)
(-0.00214526 0.00114336 0.0019795)
(-0.00212805 0.00164736 0.00268986)
(-0.00141887 0.000164491 0.00206328)
(-0.00067653 9.71694e-05 0.00360025)
(-0.0010643 0.00110286 0.0029538)
(-0.000237637 0.00128555 0.00285859)
(-7.476e-05 0.000812725 0.00331622)
(-0.000199825 -8.18185e-05 0.00111504)
(-3.401e-05 0.000226304 0.00173354)
(-0.00014032 0.000493891 0.00358475)
(-0.000170644 -0.000871549 0.00453351)
(-0.000356818 0.000418332 0.00100827)
(-0.000347958 0.000758199 0.00155483)
(-0.000360529 -0.000297927 0.00314297)
(-0.000586894 -0.00085469 0.00340235)
(-0.000245168 0.000233784 0.000644672)
(0.000384036 0.000324979 0.00142193)
(0.000302024 6.50496e-05 0.00229852)
(0.000477751 -6.78351e-05 0.00251478)
(0.000296186 -0.000210014 0.000478615)
(0.000282632 -0.000420325 0.00133292)
(0.000402847 0.000261215 0.00226961)
(0.00145873 0.00080131 0.00209254)
(0 0 0)
(0 0 0)
(0 0 0)
(0 0 0)
(0 0 0)
(0 0 0)
(0 0 0)
(0 0 0)
(0 0 0)
(0 0 0)
(0 0 0)
(0 0 0)
(0 0 0)
(0 0 0)
(0 0 0)
(0 0 0)
(0 0 0)
(0 0 0)
(0 0 0)
(0 0 0)
(0 0 0)
(0 0 0)
(0 0 0)
(0 0 0)
(0 0 0)
(0 0 0)
(0 0 0)
(0 0 0)
(0 0 0)
(0 0 0)
(0 0 0)
(0 0 0)
(0 0 0)
(0 0 0)
(0 0 0)
(0 0 0)
(0 0 0)
(0 0 0)
(0 0 0)
(0 0 0)
(0 0 0)
(0 0 0)
(0 0 0)
(0 0 0)
(0 0 0)
(0 0 0)
(0 0 0)
(0 0 0)
(0 0 0)
(0 0 0)
(0 0 0)
(0 0 0)
(0 0 0)
(0 0 0)
(0 0 0)
(0 0 0)
(0 0 0)
(0 0 0)
(0 0 0)
(0 0 0)
(0 0 0)
(0 0 0)
(0 0 0)
(0 0 0)
(0 0 0)
(0 0 0)
(0 0 0)
(0 0 0)
)
;
    }
    procBoundary0to2
    {
        type            processor;
        value           nonuniform List<vector> 
192
(
(0.000132192 0.000141665 -0.000173022)
(-0.000139234 -0.000427858 -5.95449e-05)
(-9.1288e-05 -0.00041637 -5.05571e-05)
(0.000218038 0.000237819 -0.000215138)
(-0.000115257 0.000101192 0.0022277)
(0.000422066 -2.85776e-05 0.00234697)
(0.00122727 -0.00030047 0.00264916)
(-0.000529388 -9.65011e-05 0.00203996)
(0.000179839 -0.000551282 0.00385693)
(0.000312685 -0.000197633 0.00313246)
(-0.000533935 -5.71067e-05 0.00390134)
(-0.000639043 -0.000871685 0.00446496)
(-0.000244315 -0.000411244 0.00367742)
(-0.000439853 -0.000493016 0.00352557)
(-0.000373732 -0.000159795 0.00407831)
(-0.000419446 -0.000643325 0.00411702)
(-0.000223882 -0.000384568 0.00359988)
(-0.000179468 -7.52458e-05 0.00345251)
(-0.000205539 -0.000232862 0.0034543)
(-3.73675e-05 -0.000540001 0.00350359)
(1.16383e-05 0.000215268 0.00364279)
(0.000112018 0.00010702 0.00315482)
(-7.24969e-05 4.91064e-05 0.0030776)
(7.95823e-05 -1.19021e-05 0.00267506)
(0.000214717 0.000645147 0.00362696)
(6.30936e-05 0.000556382 0.00326582)
(-0.00029811 0.000734667 0.0029809)
(0.000330291 0.000657348 0.00258105)
(0 0 0)
(0 0 0)
(0 0 0)
(0 0 0)
(0 0 0)
(0 0 0)
(0 0 0)
(0 0 0)
(0 0 0)
(0 0 0)
(0 0 0)
(0 0 0)
(0 0 0)
(0 0 0)
(0 0 0)
(0 0 0)
(0 0 0)
(0 0 0)
(0 0 0)
(0 0 0)
(0 0 0)
(0 0 0)
(0 0 0)
(0 0 0)
(0 0 0)
(0 0 0)
(0 0 0)
(0 0 0)
(0 0 0)
(0 0 0)
(0 0 0)
(0 0 0)
(0 0 0)
(0 0 0)
(0 0 0)
(0 0 0)
(0 0 0)
(0 0 0)
(0 0 0)
(0 0 0)
(0 0 0)
(0 0 0)
(0 0 0)
(0 0 0)
(0 0 0)
(0 0 0)
(0 0 0)
(0 0 0)
(0 0 0)
(0 0 0)
(0 0 0)
(0 0 0)
(0 0 0)
(0 0 0)
(0 0 0)
(0 0 0)
(0 0 0)
(0 0 0)
(0 0 0)
(0 0 0)
(0 0 0)
(0 0 0)
(0 0 0)
(0 0 0)
(0 0 0)
(0 0 0)
(0 0 0)
(0 0 0)
(0.000214837 0.000356706 -0.000213404)
(8.9098e-05 0.000181191 -0.000103625)
(-0.000206925 7.8858e-05 -0.000158069)
(-0.000140124 0.000377635 -0.000903426)
(-0.000272484 0.000634939 0.00163948)
(-0.000167038 0.0013081 0.00143438)
(-0.000568721 0.000705096 0.000885813)
(-0.00036793 0.000201851 0.000436444)
(0.000196298 -7.77596e-05 0.00313779)
(0.000478432 0.000591526 0.0037297)
(-0.000801431 -1.39656e-05 0.0037248)
(-0.000781315 -0.000765193 0.00337091)
(0.000142282 -0.000584528 0.00301097)
(0.000387402 -0.000413124 0.00365801)
(0.000199768 -0.000860675 0.00354342)
(-0.0003045 -0.000335117 0.00352913)
(0.000227973 -0.000249943 0.00369853)
(0.000756743 8.62105e-05 0.00366086)
(0.000180669 9.55164e-06 0.0037348)
(0.000159861 -2.25714e-05 0.00377116)
(-0.000147156 -2.19842e-05 0.00268515)
(-0.000235075 0.000194483 0.00324268)
(-0.000116996 0.00034321 0.0033938)
(-3.47081e-05 2.60897e-05 0.00359984)
(-0.000557331 -0.00053373 0.00174479)
(-0.0003266 0.000506004 0.00284162)
(-0.00105334 0.000362203 0.00281644)
(-0.000613999 0.00056052 0.00301493)
(0 0 0)
(0 0 0)
(0 0 0)
(0 0 0)
(0 0 0)
(0 0 0)
(0 0 0)
(0 0 0)
(0 0 0)
(0 0 0)
(0 0 0)
(0 0 0)
(0 0 0)
(0 0 0)
(0 0 0)
(0 0 0)
(0 0 0)
(0 0 0)
(0 0 0)
(0 0 0)
(0 0 0)
(0 0 0)
(0 0 0)
(0 0 0)
(0 0 0)
(0 0 0)
(0 0 0)
(0 0 0)
(0 0 0)
(0 0 0)
(0 0 0)
(0 0 0)
(0 0 0)
(0 0 0)
(0 0 0)
(0 0 0)
(0 0 0)
(0 0 0)
(0 0 0)
(0 0 0)
(0 0 0)
(0 0 0)
(0 0 0)
(0 0 0)
(0 0 0)
(0 0 0)
(0 0 0)
(0 0 0)
(0 0 0)
(0 0 0)
(0 0 0)
(0 0 0)
(0 0 0)
(0 0 0)
(0 0 0)
(0 0 0)
(0 0 0)
(0 0 0)
(0 0 0)
(0 0 0)
(0 0 0)
(0 0 0)
(0 0 0)
(0 0 0)
(0 0 0)
(0 0 0)
(0 0 0)
(0 0 0)
)
;
    }
}


// ************************************************************************* //
