/*--------------------------------*- C++ -*----------------------------------*\
| =========                 |                                                 |
| \\      /  F ield         | OpenFOAM: The Open Source CFD Toolbox           |
|  \\    /   O peration     | Version:  2506                                  |
|   \\  /    A nd           | Website:  www.openfoam.com                      |
|    \\/     M anipulation  |                                                 |
\*---------------------------------------------------------------------------*/
FoamFile
{
    version     2.0;
    format      ascii;
    arch        "LSB;label=32;scalar=64";
    class       volScalarField;
    location    "0.07";
    object      voidfraction;
}
// * * * * * * * * * * * * * * * * * * * * * * * * * * * * * * * * * * * * * //

dimensions      [0 0 0 0 0 0 0];

internalField   nonuniform List<scalar> 
1152
(
0.420663
0.439097
0.460163
0.383796
0.42593
0.46543
0.378529
0.391696
0.44173
0.420663
0.468063
0.42593
0.41013
0.568131
0.475963
0.42593
0.40223
0.45753
0.475963
0.320596
0.41803
0.475963
0.375896
0.38643
0.41013
0.49703
0.454897
0.360096
0.42593
0.391696
0.41803
0.365363
0.365363
0.40223
0.373263
0.294262
0.341663
0.339029
0.44963
0.431196
0.39433
0.404863
0.360096
0.452263
0.381163
0.48913
0.352196
0.373263
0.399596
0.423296
0.317962
0.462797
0.475963
0.399596
0.420663
0.439097
0.354829
0.370629
0.407496
0.331129
0.38643
0.486497
0.431196
0.494397
0.362729
0.389063
0.354829
0.40223
0.404863
0.439097
0.420663
0.349563
0.412763
0.423296
0.373263
0.468063
0.44963
0.341663
0.331129
0.367996
0.375896
0.439097
0.446997
0.43383
0.43383
0.420663
0.404863
0.47333
0.412763
0.46543
0.328496
0.460163
0.462797
0.431196
0.41013
0.352196
0.731398
0.697165
0.662931
0.594464
0.768265
0.681365
0.581297
0.544431
0.739298
0.665565
0.618164
0.686631
0.718232
0.599731
0.557597
0.581297
1
1
1
1
1
1
1
1
1
1
1
1
1
1
1
1
1
1
1
1
1
1
1
1
1
1
1
1
1
1
1
1
1
1
1
1
1
1
1
1
1
1
1
1
1
1
1
1
1
1
1
1
1
1
1
1
1
1
1
1
1
1
1
1
1
1
1
1
1
1
1
1
1
1
1
1
1
1
1
1
1
1
1
1
1
1
1
1
1
1
1
1
1
1
1
1
1
1
1
1
1
1
1
1
1
1
1
1
1
1
1
1
1
1
1
1
1
1
1
1
1
1
1
1
1
1
1
1
1
1
1
1
1
1
1
1
1
1
1
1
1
1
1
1
1
1
1
1
1
1
1
1
1
1
1
1
1
1
1
1
1
1
1
1
1
1
1
1
1
1
1
1
1
1
1
1
1
1
1
1
1
1
1
1
1
1
1
1
1
1
1
1
1
1
1
1
1
1
1
1
1
1
1
1
1
1
1
1
1
1
1
1
1
1
1
1
1
1
1
1
1
1
1
1
1
1
1
1
1
1
1
1
1
1
1
1
1
1
1
1
1
1
1
1
1
1
1
1
1
1
1
1
1
1
1
1
1
1
1
1
1
1
1
1
1
1
1
1
1
1
1
1
0.476626
0.439976
0.466867
0.430467
0.384702
0.446992
0.440483
0.467211
0.443532
0.471422
0.418325
0.412603
0.418358
0.410519
0.476008
0.466251
0.506302
0.467822
0.394332
0.404181
0.371657
0.446992
0.401704
0.435116
0.43972
0.397422
0.380338
0.423431
0.398671
0.45206
0.473797
0.428663
0.444252
0.412129
0.390705
0.3998
0.476018
0.456737
0.393394
0.47684
0.41304
0.420679
0.427821
0.369293
0.386144
0.416454
0.325664
0.426158
0.433461
0.405941
0.426973
0.285893
0.352089
0.451865
0.407244
0.428697
0.418757
0.439708
0.41595
0.385534
0.40762
0.355132
0.365461
0.416134
0.473928
0.368812
0.394332
0.320941
0.399921
0.417758
0.396164
0.415858
0.445437
0.378393
0.446815
0.442379
0.416568
0.38876
0.414102
0.378546
0.409181
0.34406
0.423346
0.461134
0.421663
0.388525
0.423863
0.425487
0.405417
0.448165
0.347099
0.390948
0.434465
0.414476
0.453899
0.46124
0.673566
0.690594
0.786022
0.798473
0.623864
0.753948
0.808878
0.813845
0.763692
0.845655
0.783949
0.756379
0.668911
0.756691
0.83418
0.734379
1
1
1
1
1
1
1
1
1
1
1
1
1
1
1
1
1
1
1
1
1
1
1
1
1
1
1
1
1
1
1
1
1
1
1
1
1
1
1
1
1
1
1
1
1
1
1
1
1
1
1
1
1
1
1
1
1
1
1
1
1
1
1
1
1
1
1
1
1
1
1
1
1
1
1
1
1
1
1
1
1
1
1
1
1
1
1
1
1
1
1
1
1
1
1
1
1
1
1
1
1
1
1
1
1
1
1
1
1
1
1
1
1
1
1
1
1
1
1
1
1
1
1
1
1
1
1
1
1
1
1
1
1
1
1
1
1
1
1
1
1
1
1
1
1
1
1
1
1
1
1
1
1
1
1
1
1
1
1
1
1
1
1
1
1
1
1
1
1
1
1
1
1
1
1
1
1
1
1
1
1
1
1
1
1
1
1
1
1
1
1
1
1
1
1
1
1
1
1
1
1
1
1
1
1
1
1
1
1
1
1
1
1
1
1
1
1
1
1
1
1
1
1
1
1
1
1
1
1
1
1
1
1
1
1
1
1
1
1
1
1
1
1
1
1
1
1
1
1
1
1
1
1
1
1
1
1
1
1
1
1
1
1
1
1
1
1
1
1
1
1
1
0.479324
0.428186
0.472117
0.391513
0.409035
0.439684
0.418565
0.416454
0.419719
0.415554
0.437318
0.476008
0.439229
0.390182
0.431552
0.368523
0.438857
0.473844
0.401606
0.448782
0.371906
0.417758
0.452394
0.454038
0.412466
0.423863
0.453937
0.40968
0.417324
0.412649
0.455914
0.46124
0.401087
0.391225
0.388266
0.443413
0.393565
0.422631
0.435479
0.428323
0.506762
0.357386
0.418325
0.372094
0.382276
0.435116
0.401776
0.431169
0.441554
0.408618
0.418757
0.477417
0.368812
0.451865
0.391079
0.414476
0.4306
0.401704
0.394583
0.434
0.408562
0.383763
0.40719
0.386064
0.465835
0.382528
0.401606
0.455941
0.387377
0.464045
0.422793
0.408541
0.405212
0.421093
0.396957
0.36325
0.395419
0.39981
0.401776
0.436181
0.428065
0.456451
0.428286
0.475627
0.418317
0.466482
0.388964
0.402607
0.397959
0.407244
0.356596
0.440633
0.303417
0.438325
0.439672
0.453722
0.568351
0.604296
0.63982
0.62059
0.637995
0.571236
0.591938
0.634047
0.698979
0.642684
0.691356
0.772274
0.710852
0.695091
0.683293
0.676744
1
1
1
1
1
1
0.997886
1
1
1
1
1
1
1
1
1
1
1
1
1
1
1
1
1
1
1
1
1
1
1
1
1
1
1
1
1
1
1
1
1
1
1
1
1
1
1
1
1
1
1
1
1
1
1
1
1
1
1
1
1
1
1
1
1
1
1
1
1
1
1
1
1
1
1
1
1
1
1
1
1
1
1
1
1
1
1
1
1
1
1
1
1
1
1
1
1
1
1
1
1
1
1
1
1
1
1
1
1
1
1
1
1
1
1
1
1
1
1
1
1
1
1
1
1
1
1
1
1
1
1
1
1
1
1
1
1
1
1
1
1
1
1
1
1
1
1
1
1
1
1
1
1
1
1
1
1
1
1
1
1
1
1
1
1
1
1
1
1
1
1
1
1
1
1
1
1
1
1
1
1
1
1
1
1
1
1
1
1
1
1
1
1
1
1
1
1
1
1
1
1
1
1
1
1
1
1
1
1
1
1
1
1
1
1
1
1
1
1
1
1
1
1
1
1
1
1
1
1
1
1
1
1
1
1
1
1
1
1
1
1
1
1
1
1
1
1
1
1
1
1
1
1
1
1
1
1
1
1
1
1
1
1
1
1
1
1
1
1
1
1
1
1
)
;

boundaryField
{
    inlet
    {
        type            fixedValue;
        value           uniform 1;
    }
    outlet
    {
        type            fixedValue;
        value           uniform 1;
    }
    wall
    {
        type            zeroGradient;
    }
    procBoundary0to1
    {
        type            processor;
        value           nonuniform List<scalar> 
192
(
0.539164
0.44173
0.452263
0.41013
0.43383
0.415396
0.436463
0.404863
0.470697
0.378529
0.378529
0.40223
0.38643
0.328496
0.444363
0.339029
0.412763
0.407496
0.415396
0.462797
0.375896
0.47333
0.399596
0.44963
0.694531
0.670831
0.610264
0.470697
1
1
1
0.997367
1
1
1
1
1
1
1
1
1
1
1
1
1
1
1
1
1
1
1
1
1
1
1
1
1
1
1
1
1
1
1
1
1
1
1
1
1
1
1
1
1
1
1
1
1
1
1
1
1
1
1
1
1
1
1
1
1
1
1
1
1
1
1
1
0.529317
0.446126
0.473797
0.486298
0.421937
0.42041
0.425157
0.433675
0.395092
0.368979
0.378727
0.3159
0.348561
0.335351
0.449477
0.383558
0.391513
0.414476
0.425157
0.378546
0.35035
0.471841
0.398625
0.403605
0.692177
0.723063
0.76343
0.802037
1
1
1
1
1
1
1
1
1
1
1
1
1
1
1
1
1
1
1
1
1
1
1
1
1
1
1
1
1
1
1
1
1
1
1
1
1
1
1
1
1
1
1
1
1
1
1
1
1
1
1
1
1
1
1
1
1
1
1
1
1
1
1
1
1
1
1
1
)
;
    }
    procBoundary0to2
    {
        type            processor;
        value           nonuniform List<scalar> 
192
(
0.42593
0.381163
0.407496
0.357463
0.415396
0.420663
0.42593
0.320596
0.47333
0.333763
0.407496
0.48123
0.399596
0.391696
0.370629
0.44963
0.352196
0.375896
0.41013
0.44963
0.478597
0.399596
0.383796
0.310062
0.618164
0.599731
0.599731
0.615531
1
1
1
1
1
1
1
1
1
1
1
1
1
1
1
1
1
1
1
1
1
1
1
1
1
1
1
1
1
1
1
1
1
1
1
1
1
1
1
1
1
1
1
1
1
1
1
1
1
1
1
1
1
1
1
1
1
1
1
1
1
1
1
1
1
1
1
1
0.45773
0.456016
0.378727
0.458734
0.375406
0.380848
0.341141
0.358499
0.454151
0.465907
0.425157
0.446204
0.452361
0.442169
0.398625
0.441193
0.438044
0.396673
0.365461
0.408616
0.441623
0.491623
0.378727
0.446204
0.751236
0.855597
0.798805
0.794519
1
1
1
1
1
1
1
1
1
1
1
1
1
1
1
1
1
1
1
1
1
1
1
1
1
1
1
1
1
1
1
1
1
1
1
1
1
1
1
1
1
1
1
1
1
1
1
1
1
1
1
1
1
1
1
1
1
1
1
1
1
1
1
1
1
1
1
1
)
;
    }
}


// ************************************************************************* //
