/*--------------------------------*- C++ -*----------------------------------*\
| =========                 |                                                 |
| \\      /  F ield         | OpenFOAM: The Open Source CFD Toolbox           |
|  \\    /   O peration     | Version:  2506                                  |
|   \\  /    A nd           | Website:  www.openfoam.com                      |
|    \\/     M anipulation  |                                                 |
\*---------------------------------------------------------------------------*/
FoamFile
{
    version     2.0;
    format      ascii;
    arch        "LSB;label=32;scalar=64";
    class       volScalarField;
    location    "0.002";
    object      p;
}
// * * * * * * * * * * * * * * * * * * * * * * * * * * * * * * * * * * * * * //

dimensions      [0 2 -2 0 0 0 0];

internalField   nonuniform List<scalar> 
512
(
-0.227982
-0.349715
-0.371001
-0.334865
-0.287552
-0.264187
-0.253995
-0.251239
-0.251808
-0.252809
-0.252799
-0.251763
-0.250691
-0.25097
-0.253734
-0.259335
-0.267165
-0.276003
-0.284759
-0.293105
-0.301408
-0.31009
-0.31896
-0.327051
-0.332954
-0.335018
-0.331287
-0.319389
-0.297274
-0.267883
-0.242137
-0.270071
-0.252123
-0.353808
-0.359704
-0.313426
-0.280104
-0.26119
-0.252784
-0.250839
-0.251762
-0.252913
-0.252999
-0.252059
-0.251104
-0.251518
-0.254416
-0.260083
-0.26785
-0.276511
-0.28506
-0.293199
-0.301247
-0.309591
-0.318095
-0.325909
-0.331766
-0.334177
-0.331466
-0.322017
-0.304615
-0.278211
-0.246184
-0.22908
-0.24273
-0.324259
-0.335506
-0.295769
-0.270621
-0.256572
-0.250786
-0.250176
-0.251727
-0.253149
-0.253374
-0.252578
-0.251812
-0.252462
-0.255602
-0.261402
-0.269057
-0.277381
-0.285515
-0.293233
-0.300795
-0.308544
-0.316428
-0.323777
-0.329529
-0.332423
-0.331075
-0.324247
-0.311123
-0.291346
-0.265246
-0.230794
-0.255904
-0.297705
-0.302497
-0.276926
-0.260435
-0.251493
-0.248635
-0.249592
-0.251879
-0.253582
-0.253902
-0.253197
-0.252604
-0.253534
-0.257002
-0.262997
-0.270523
-0.278399
-0.285943
-0.293037
-0.299918
-0.306912
-0.314066
-0.320884
-0.326482
-0.329822
-0.32982
-0.325538
-0.316222
-0.301363
-0.280876
-0.253376
-0.272067
-0.276233
-0.272817
-0.261341
-0.251973
-0.247239
-0.246965
-0.249428
-0.252406
-0.254288
-0.254573
-0.253811
-0.253284
-0.254474
-0.258316
-0.264555
-0.271973
-0.279366
-0.286201
-0.292507
-0.298574
-0.304768
-0.311218
-0.317521
-0.322874
-0.326417
-0.327481
-0.32566
-0.320121
-0.309675
-0.294716
-0.278606
-0.277591
-0.269391
-0.261117
-0.252507
-0.246414
-0.244239
-0.245876
-0.249689
-0.253307
-0.255264
-0.255377
-0.254398
-0.253796
-0.255157
-0.259331
-0.26582
-0.273167
-0.280111
-0.286216
-0.291672
-0.296912
-0.302387
-0.308252
-0.314057
-0.318933
-0.322123
-0.323545
-0.32423
-0.323245
-0.316822
-0.304363
-0.289641
-0.280474
-0.26734
-0.256465
-0.248117
-0.243182
-0.242093
-0.245042
-0.250378
-0.254609
-0.25637
-0.25619
-0.25493
-0.25418
-0.255599
-0.259983
-0.26665
-0.273944
-0.280532
-0.286026
-0.290751
-0.295317
-0.300268
-0.305714
-0.311025
-0.315062
-0.316848
-0.316627
-0.319966
-0.326859
-0.325264
-0.312492
-0.296047
-0.282162
-0.266919
-0.254834
-0.246277
-0.241435
-0.239572
-0.243417
-0.252059
-0.256898
-0.257367
-0.256765
-0.255278
-0.254417
-0.255844
-0.260305
-0.267031
-0.274282
-0.280672
-0.285819
-0.290128
-0.294328
-0.299014
-0.30423
-0.309145
-0.312205
-0.311344
-0.302891
-0.307965
-0.334456
-0.34074
-0.321121
-0.300206
-0.253291
-0.343635
-0.348456
-0.305329
-0.272614
-0.254565
-0.247989
-0.248413
-0.251466
-0.253737
-0.253634
-0.251512
-0.248938
-0.247946
-0.250229
-0.256366
-0.265476
-0.275577
-0.284867
-0.293053
-0.301197
-0.310409
-0.320621
-0.330406
-0.338029
-0.341747
-0.339482
-0.329495
-0.311058
-0.284127
-0.252934
-0.237221
-0.248883
-0.331875
-0.339347
-0.295964
-0.267621
-0.252273
-0.247099
-0.248175
-0.25148
-0.253861
-0.253854
-0.251857
-0.249447
-0.248653
-0.251155
-0.257424
-0.266437
-0.276263
-0.285312
-0.293347
-0.301247
-0.309988
-0.3196
-0.328877
-0.336294
-0.340272
-0.338887
-0.330583
-0.314791
-0.291614
-0.261813
-0.231078
-0.2502
-0.306935
-0.314005
-0.281044
-0.259692
-0.248547
-0.245702
-0.247898
-0.251614
-0.25412
-0.254228
-0.252441
-0.250314
-0.249849
-0.252734
-0.259272
-0.268127
-0.277419
-0.285956
-0.293618
-0.301035
-0.308999
-0.317668
-0.32615
-0.333212
-0.337539
-0.337452
-0.331508
-0.319128
-0.300387
-0.275612
-0.243768
-0.265029
-0.281688
-0.281336
-0.264427
-0.251088
-0.244565
-0.244373
-0.247904
-0.252095
-0.25466
-0.254763
-0.253081
-0.251192
-0.251129
-0.254567
-0.2615
-0.270181
-0.278782
-0.286558
-0.293581
-0.300271
-0.307268
-0.314892
-0.322576
-0.329309
-0.33397
-0.33518
-0.331707
-0.322855
-0.308436
-0.289214
-0.268365
-0.27282
-0.269366
-0.262811
-0.252385
-0.244377
-0.241493
-0.243635
-0.24848
-0.25312
-0.255612
-0.255485
-0.253604
-0.251738
-0.252089
-0.25623
-0.26368
-0.27225
-0.280138
-0.286967
-0.293048
-0.298767
-0.30475
-0.311484
-0.318572
-0.325012
-0.329778
-0.331945
-0.330894
-0.325723
-0.31523
-0.299932
-0.283347
-0.27665
-0.264784
-0.254393
-0.245502
-0.240133
-0.239548
-0.243427
-0.249442
-0.254564
-0.256978
-0.256458
-0.254075
-0.251963
-0.252587
-0.25739
-0.265407
-0.273985
-0.281263
-0.287067
-0.291974
-0.296614
-0.301745
-0.307899
-0.314574
-0.320538
-0.324817
-0.32722
-0.328703
-0.328149
-0.321508
-0.308119
-0.291697
-0.279336
-0.263484
-0.250879
-0.242089
-0.237786
-0.238369
-0.243394
-0.250454
-0.256075
-0.25841
-0.257496
-0.254595
-0.252154
-0.252836
-0.258035
-0.266472
-0.275086
-0.281901
-0.286809
-0.290615
-0.294336
-0.298924
-0.30482
-0.311177
-0.316303
-0.319051
-0.319853
-0.324139
-0.331391
-0.329462
-0.315743
-0.297526
-0.281115
-0.263355
-0.249643
-0.240669
-0.236651
-0.237545
-0.243198
-0.251247
-0.257278
-0.259421
-0.258211
-0.254994
-0.252365
-0.253059
-0.258369
-0.266889
-0.275477
-0.282051
-0.286445
-0.289615
-0.292856
-0.297238
-0.303054
-0.309125
-0.313277
-0.313441
-0.307124
-0.313499
-0.33821
-0.343231
-0.323699
-0.301593
)
;

boundaryField
{
    wall
    {
        type            zeroGradient;
    }
    outlet
    {
        type            cyclic;
    }
    inlet
    {
        type            cyclic;
    }
    procBoundary0to1
    {
        type            processor;
        value           nonuniform List<scalar> 
256
(
-0.242716
-0.306934
-0.312846
-0.274001
-0.247886
-0.235737
-0.23586
-0.243187
-0.251875
-0.256897
-0.256251
-0.251356
-0.245092
-0.240942
-0.241949
-0.249379
-0.261847
-0.275279
-0.285633
-0.292748
-0.299881
-0.310169
-0.323761
-0.337506
-0.348833
-0.356084
-0.356257
-0.347453
-0.330481
-0.30667
-0.277067
-0.241063
-0.24766
-0.298547
-0.302126
-0.267115
-0.244318
-0.234273
-0.235504
-0.243182
-0.251911
-0.25704
-0.256531
-0.251822
-0.245811
-0.242005
-0.243487
-0.251242
-0.263494
-0.276325
-0.286381
-0.293655
-0.300675
-0.310101
-0.322381
-0.334948
-0.345682
-0.353109
-0.354256
-0.347096
-0.332142
-0.310483
-0.282568
-0.246798
-0.259748
-0.277931
-0.276325
-0.254917
-0.238479
-0.2321
-0.235354
-0.243717
-0.252262
-0.257152
-0.256782
-0.252563
-0.247132
-0.2438
-0.245965
-0.254446
-0.266397
-0.278011
-0.287312
-0.294561
-0.301287
-0.309506
-0.319962
-0.330822
-0.340508
-0.347987
-0.350639
-0.346072
-0.334233
-0.316126
-0.292644
-0.266258
-0.267242
-0.264584
-0.257131
-0.243369
-0.232787
-0.230262
-0.235761
-0.244996
-0.253363
-0.257736
-0.257191
-0.253265
-0.248273
-0.245537
-0.248814
-0.258304
-0.269902
-0.28
-0.288122
-0.294955
-0.301061
-0.307796
-0.316308
-0.325674
-0.334636
-0.342246
-0.346245
-0.344331
-0.335954
-0.321542
-0.301953
-0.280414
-0.270898
-0.257872
-0.246368
-0.235648
-0.229042
-0.2295
-0.237005
-0.247308
-0.255533
-0.259121
-0.257885
-0.253422
-0.248285
-0.246376
-0.251345
-0.262145
-0.273543
-0.282199
-0.288792
-0.294491
-0.299347
-0.304477
-0.311588
-0.320284
-0.329025
-0.336536
-0.341149
-0.341659
-0.337102
-0.326104
-0.308981
-0.288815
-0.273848
-0.255463
-0.241195
-0.231411
-0.227091
-0.229566
-0.238616
-0.25
-0.258439
-0.261548
-0.259323
-0.253418
-0.247419
-0.246091
-0.252757
-0.265106
-0.276739
-0.284371
-0.28917
-0.29283
-0.295961
-0.299913
-0.306545
-0.315236
-0.323612
-0.330167
-0.334438
-0.3376
-0.338335
-0.331278
-0.315511
-0.295013
-0.276855
-0.255215
-0.23914
-0.229488
-0.226196
-0.229767
-0.239806
-0.252133
-0.2611
-0.264097
-0.261084
-0.253902
-0.246973
-0.245581
-0.253169
-0.266768
-0.278741
-0.285662
-0.288799
-0.29021
-0.291702
-0.295161
-0.302187
-0.311261
-0.318748
-0.323031
-0.324942
-0.331438
-0.341582
-0.339721
-0.323258
-0.300846
-0.279187
-0.255618
-0.238431
-0.228612
-0.225743
-0.229861
-0.240324
-0.2532
-0.262714
-0.265805
-0.262353
-0.254501
-0.247193
-0.24588
-0.253566
-0.267104
-0.27908
-0.285755
-0.28793
-0.288032
-0.28877
-0.292354
-0.299875
-0.308994
-0.315337
-0.316431
-0.309978
-0.319194
-0.349565
-0.355009
-0.331829
-0.305517
)
;
    }
}


// ************************************************************************* //
