/*--------------------------------*- C++ -*----------------------------------*\
| =========                 |                                                 |
| \\      /  F ield         | OpenFOAM: The Open Source CFD Toolbox           |
|  \\    /   O peration     | Version:  2506                                  |
|   \\  /    A nd           | Website:  www.openfoam.com                      |
|    \\/     M anipulation  |                                                 |
\*---------------------------------------------------------------------------*/
FoamFile
{
    version     2.0;
    format      ascii;
    arch        "LSB;label=32;scalar=64";
    class       surfaceScalarField;
    location    "0.002";
    object      phi;
}
// * * * * * * * * * * * * * * * * * * * * * * * * * * * * * * * * * * * * * //

dimensions      [0 3 -1 0 0 0 0];

oriented        oriented;

internalField   nonuniform List<scalar> 
1200
(
0.00280254
1.7363e-06
1.75054e-06
0.00280162
5.01119e-07
4.20483e-07
0.00280157
6.91748e-08
-2.06559e-08
0.00280186
-1.12177e-07
-1.76082e-07
0.00280198
-3.17086e-08
-9.06816e-08
0.00280205
-9.48349e-09
-6.12981e-08
0.00280209
-1.52477e-09
-3.80877e-08
0.0028021
1.68037e-09
-1.50914e-08
0.0028021
2.68087e-09
3.6861e-09
0.00280208
2.79842e-09
1.31146e-08
0.00280207
2.92325e-09
1.1579e-08
0.00280206
3.31005e-09
1.98436e-09
0.00280207
4.02778e-09
-1.09218e-08
0.00280208
5.00866e-09
-2.17816e-08
0.0028021
6.02584e-09
-2.5948e-08
0.00280212
6.53646e-09
-2.15006e-08
0.00280212
5.9969e-09
-1.0752e-08
0.00280212
4.54937e-09
-8.30973e-11
0.00280211
2.88739e-09
4.51262e-09
0.00280211
1.28522e-09
3.294e-09
0.00280211
-6.54873e-10
2.09253e-09
0.0028021
-3.18709e-09
6.72702e-09
0.00280209
-5.81497e-09
1.83062e-08
0.00280206
-7.44583e-09
3.31217e-08
0.00280202
-6.72161e-09
4.86185e-08
0.00280196
-1.91118e-09
6.44103e-08
0.00280187
1.00729e-08
8.02351e-08
0.00280173
3.72959e-08
1.03105e-07
0.00280149
9.11995e-08
1.48488e-07
0.00280113
1.51503e-07
2.04475e-07
0.00280068
1.96106e-07
2.56079e-07
1.25234e-07
1.96919e-07
0.00280778
6.26013e-07
3.89921e-07
0.00280814
1.04735e-07
3.93519e-08
0.0028083
-2.97861e-08
-6.39428e-08
0.00280835
-6.12997e-08
-9.30782e-08
0.00280843
-3.39527e-08
-7.57466e-08
0.00280849
-1.34617e-08
-5.74584e-08
0.00280852
-2.0965e-09
-3.62572e-08
0.00280854
3.26739e-09
-1.41184e-08
0.00280853
5.18981e-09
4.01809e-09
0.00280851
5.47645e-09
1.32095e-08
0.0028085
5.44633e-09
1.17232e-08
0.00280849
5.89722e-09
2.38474e-09
0.0028085
7.00961e-09
-1.01375e-08
0.00280852
8.67698e-09
-2.04862e-08
0.00280854
1.05248e-08
-2.39312e-08
0.00280855
1.15524e-08
-1.89445e-08
0.00280856
1.06079e-08
-8.46203e-09
0.00280855
7.83762e-09
1.40102e-09
0.00280854
4.50712e-09
5.73474e-09
0.00280854
1.21506e-09
4.99487e-09
0.00280854
-2.50781e-09
3.88155e-09
0.00280853
-6.96122e-09
7.40691e-09
0.00280852
-1.13552e-08
1.70336e-08
0.0028085
-1.40216e-08
2.98903e-08
0.00280846
-1.29477e-08
4.39923e-08
0.00280841
-5.66197e-09
5.88912e-08
0.00280833
1.13546e-08
7.31227e-08
0.00280824
4.35142e-08
8.84707e-08
0.00280811
9.90333e-08
1.13275e-07
0.00280791
1.94573e-07
1.64073e-07
0.00280754
3.29313e-07
2.35549e-07
3.61964e-07
2.37669e-07
0.00280787
3.93126e-07
2.00362e-07
0.00280803
-1.49985e-08
-4.51016e-08
0.00280827
-1.45929e-07
-1.19394e-07
0.00280838
-7.9908e-08
-8.75033e-08
0.00280845
-3.89468e-08
-6.95132e-08
0.0028085
-1.45847e-08
-5.28189e-08
0.00280853
-8.55532e-10
-3.2488e-08
0.00280854
5.85422e-09
-1.1489e-08
0.00280854
8.13355e-09
5.12603e-09
0.00280852
8.09898e-09
1.32377e-08
0.00280851
7.39015e-09
1.16129e-08
0.0028085
7.20776e-09
2.8713e-09
0.00280851
8.04798e-09
-8.82725e-09
0.00280853
1.0005e-08
-1.83735e-08
0.00280855
1.25249e-08
-2.06394e-08
0.00280856
1.40393e-08
-1.45122e-08
0.00280856
1.29437e-08
-4.42251e-09
0.00280855
9.2816e-09
3.802e-09
0.00280855
4.5076e-09
7.31325e-09
0.00280854
-4.26815e-10
6.99206e-09
0.00280854
-5.68055e-09
5.92035e-09
0.00280854
-1.13298e-08
7.92155e-09
0.00280853
-1.64458e-08
1.48213e-08
0.00280851
-1.93702e-08
2.48545e-08
0.00280847
-1.82736e-08
3.67338e-08
0.00280843
-1.07679e-08
5.01988e-08
0.00280837
6.69085e-09
6.322e-08
0.0028083
3.84125e-08
7.4831e-08
0.00280822
8.81577e-08
8.85114e-08
0.00280815
1.60086e-07
1.10672e-07
0.00280807
2.58189e-07
1.45921e-07
3.92165e-07
2.06467e-07
0.00280807
2.77397e-07
1.32563e-07
0.0028082
-5.66674e-08
-8.56993e-08
0.00280835
-1.58367e-07
-1.42166e-07
0.00280842
-6.98636e-08
-8.09744e-08
0.00280848
-3.11385e-08
-6.19043e-08
0.00280852
-9.92279e-09
-4.6304e-08
0.00280854
2.63479e-09
-2.6902e-08
0.00280855
9.42566e-09
-7.20026e-09
0.00280854
1.14914e-08
7.54605e-09
0.00280852
1.06154e-08
1.39559e-08
0.00280851
8.79396e-09
1.159e-08
0.0028085
7.32715e-09
3.01818e-09
0.00280851
7.23591e-09
-8.1051e-09
0.00280853
9.01156e-09
-1.66198e-08
0.00280855
1.18892e-08
-1.70023e-08
0.00280856
1.38126e-08
-9.19583e-09
0.00280856
1.28976e-08
5.18347e-10
0.00280855
8.93917e-09
6.69663e-09
0.00280854
3.19002e-09
8.78974e-09
0.00280854
-3.10329e-09
8.34042e-09
0.00280853
-9.44652e-09
6.89573e-09
0.00280853
-1.54537e-08
7.1215e-09
0.00280852
-2.03061e-08
1.13647e-08
0.00280851
-2.30492e-08
1.90998e-08
0.00280848
-2.2736e-08
2.93426e-08
0.00280845
-1.73996e-08
4.15612e-08
0.0028084
-2.86792e-09
5.34959e-08
0.00280835
2.64755e-08
6.31055e-08
0.0028083
7.16385e-08
7.14939e-08
0.00280825
1.28909e-07
8.2265e-08
0.0028082
2.03256e-07
1.03345e-07
3.30808e-07
1.71877e-07
0.00280854
1.26264e-07
3.43984e-08
0.0028085
1.59459e-08
-3.16846e-08
0.00280844
-3.94855e-08
-6.277e-08
0.00280846
-3.09825e-08
-5.88114e-08
0.0028085
-1.6341e-08
-5.1229e-08
0.00280853
-4.46419e-09
-3.84868e-08
0.00280855
4.79443e-09
-2.0193e-08
0.00280855
1.15066e-08
-1.57513e-09
0.00280854
1.3804e-08
1.14176e-08
0.00280852
1.23992e-08
1.58664e-08
0.0028085
9.62544e-09
1.19535e-08
0.0028085
6.92893e-09
2.2521e-09
0.00280851
5.72219e-09
-9.21219e-09
0.00280853
6.77121e-09
-1.64401e-08
0.00280855
9.33202e-09
-1.40739e-08
0.00280856
1.1321e-08
-3.97836e-09
0.00280855
1.07249e-08
5.72344e-09
0.00280854
7.03839e-09
9.98569e-09
0.00280854
1.10159e-09
1.00828e-08
0.00280853
-5.74115e-09
8.34458e-09
0.00280853
-1.22516e-08
5.58489e-09
0.00280853
-1.76445e-08
4.016e-09
0.00280852
-2.16117e-08
6.67369e-09
0.00280851
-2.43979e-08
1.36675e-08
0.00280849
-2.63408e-08
2.3387e-08
0.00280846
-2.62752e-08
3.45012e-08
0.00280843
-1.88522e-08
4.49936e-08
0.0028084
8.52586e-09
5.32527e-08
0.00280836
5.58123e-08
5.89448e-08
0.00280832
1.0194e-07
6.22011e-08
0.00280832
1.38022e-07
6.4045e-08
1.64464e-07
6.49317e-08
0.00280843
6.87071e-08
8.74964e-09
0.00280844
2.46813e-08
-2.26585e-08
0.00280845
-3.82435e-09
-4.22667e-08
0.00280848
-9.51858e-09
-4.6819e-08
0.00280851
-7.01597e-09
-4.2767e-08
0.00280854
-3.71584e-09
-3.10974e-08
0.00280856
2.90215e-09
-1.36032e-08
0.00280855
1.25129e-08
3.87686e-09
0.00280853
1.55052e-08
1.57478e-08
0.00280851
1.24248e-08
1.90387e-08
0.0028085
8.98854e-09
1.3339e-08
0.0028085
5.98077e-09
1.28661e-09
0.00280851
4.30843e-09
-1.15946e-08
0.00280853
4.523e-09
-1.7963e-08
0.00280855
6.11046e-09
-1.28475e-08
0.00280855
7.52058e-09
-8.87753e-11
0.00280855
7.07724e-09
1.02871e-08
0.00280854
4.16118e-09
1.32164e-08
0.00280853
-8.25962e-10
1.08412e-08
0.00280852
-6.73496e-09
6.39411e-09
0.00280852
-1.20681e-08
1.52146e-09
0.00280852
-1.59916e-08
-1.18605e-09
0.00280852
-1.88054e-08
1.48407e-09
0.00280851
-2.19177e-08
9.14472e-09
0.00280849
-2.7431e-08
1.87813e-08
0.00280847
-3.69871e-08
2.85818e-08
0.00280846
-4.76681e-08
3.76671e-08
0.00280845
-2.14472e-08
4.54836e-08
0.0028084
4.97687e-08
5.05905e-08
0.00280836
9.71772e-08
5.06735e-08
0.00280835
1.02521e-07
4.50675e-08
9.5029e-08
3.28281e-08
0.00280838
3.42926e-08
2.14285e-09
0.00280841
1.56342e-08
-2.08677e-08
0.00280844
2.83418e-09
-3.61703e-08
0.00280847
-2.24703e-09
-4.09846e-08
0.00280851
-4.66943e-09
-3.68496e-08
0.00280854
-1.37653e-08
-2.39015e-08
0.00280856
-8.41459e-09
-7.40123e-09
0.00280855
1.74995e-08
6.33028e-09
0.00280852
2.14832e-08
1.73862e-08
0.0028085
1.00142e-08
2.17206e-08
0.00280849
5.97974e-09
1.52107e-08
0.00280849
3.73792e-09
1.19702e-09
0.00280851
2.57799e-09
-1.31955e-08
0.00280853
2.49429e-09
-1.95739e-08
0.00280855
3.0584e-09
-1.28853e-08
0.00280855
3.51506e-09
1.90653e-09
0.00280854
3.15156e-09
1.30493e-08
0.00280853
1.53389e-09
1.50956e-08
0.00280852
-1.30577e-09
1.03412e-08
0.00280851
-4.67831e-09
2.7792e-09
0.00280851
-7.58123e-09
-4.16785e-09
0.00280851
-9.55032e-09
-7.04694e-09
0.00280851
-1.11127e-08
-3.04913e-09
0.00280849
-1.38756e-08
6.06521e-09
0.00280847
-2.12238e-08
1.56562e-08
0.00280845
-4.2117e-08
2.42675e-08
0.00280848
-1.08957e-07
3.34606e-08
0.00280851
-9.25544e-08
4.21079e-08
0.00280844
7.2741e-08
4.60281e-08
0.00280835
1.41546e-07
4.43043e-08
0.00280833
8.8159e-08
3.74761e-08
5.37385e-08
2.35786e-08
0.00280193
9.52479e-10
0.00280196
-2.01891e-08
0.002802
-3.42566e-08
0.00280204
-3.84509e-08
0.00280206
-3.23752e-08
0.00280206
-1.01928e-08
0.00280205
4.24725e-09
0.00280207
-1.14608e-09
0.00280208
8.30953e-09
0.00280207
2.17862e-08
0.00280206
1.63518e-08
0.00280206
1.60583e-09
0.00280208
-1.34012e-08
0.0028021
-1.97233e-08
0.00280211
-1.2748e-08
0.00280211
2.23634e-09
0.0028021
1.35079e-08
0.00280209
1.51905e-08
0.00280208
9.04892e-09
0.00280208
-3.57836e-10
0.00280208
-8.25529e-09
0.00280208
-1.06479e-08
0.00280207
-5.40029e-09
0.00280205
4.60983e-09
0.00280202
1.41816e-08
0.00280195
2.32373e-08
0.0028018
4.15264e-08
0.00280166
5.29223e-08
0.00280169
3.8859e-08
0.0028018
2.90787e-08
0.00280186
3.04254e-08
2.10085e-08
0.00280695
3.76202e-07
0.00280719
1.19888e-07
0.00280726
2.60179e-08
0.00280729
-2.90808e-08
0.00280737
-1.66836e-08
0.00280744
-5.56946e-09
0.00280748
3.5908e-10
0.00280749
2.67939e-09
0.00280747
3.01212e-09
0.00280745
2.87511e-09
0.00280742
3.04641e-09
0.00280741
3.69938e-09
0.00280742
4.81862e-09
0.00280745
6.32808e-09
0.00280748
8.0769e-09
0.0028075
9.12468e-09
0.0028075
8.30528e-09
0.00280749
6.0354e-09
0.00280748
4.10111e-09
0.00280747
2.97484e-09
0.00280748
1.12312e-09
0.00280748
-2.52253e-09
0.00280747
-7.11642e-09
0.00280745
-1.0724e-08
0.0028074
-1.14115e-08
0.00280734
-7.50735e-09
0.00280726
2.8794e-09
0.00280716
2.25902e-08
0.00280704
5.59387e-08
0.00280685
1.11086e-07
0.00280655
1.75587e-07
1.66074e-07
0.0028132
3.19376e-07
0.00281341
5.93161e-09
0.00281364
-8.84326e-08
0.00281374
-5.62839e-08
0.00281383
-2.7752e-08
0.00281389
-8.8067e-09
0.00281393
1.69394e-09
0.00281394
5.91697e-09
0.00281393
6.31809e-09
0.0028139
5.52486e-09
0.00281388
5.35291e-09
0.00281387
6.39492e-09
0.00281388
8.32641e-09
0.0028139
1.07969e-08
0.00281393
1.38273e-08
0.00281395
1.59958e-08
0.00281396
1.46572e-08
0.00281394
1.02486e-08
0.00281393
6.09467e-09
0.00281393
3.21686e-09
0.00281393
-4.70814e-10
0.00281393
-6.45506e-09
0.00281392
-1.35804e-08
0.0028139
-1.90689e-08
0.00281386
-2.02078e-08
0.00281381
-1.43359e-08
0.00281373
1.50058e-09
0.00281365
2.99628e-08
0.00281355
7.43639e-08
0.00281345
1.40929e-07
0.00281333
2.37107e-07
3.17953e-07
0.00281335
3.07901e-07
0.00281349
-5.98994e-08
0.00281368
-1.69812e-07
0.00281378
-7.36909e-08
0.00281385
-3.13907e-08
0.00281391
-8.06046e-09
0.00281394
4.7535e-09
0.00281395
1.01689e-08
0.00281393
1.05803e-08
0.00281391
8.84213e-09
0.00281389
7.38645e-09
0.00281388
7.36637e-09
0.00281389
8.77756e-09
0.00281391
1.17679e-08
0.00281394
1.61748e-08
0.00281396
1.93695e-08
0.00281396
1.78977e-08
0.00281395
1.21888e-08
0.00281394
5.99402e-09
0.00281393
9.24853e-10
0.00281393
-4.71088e-09
0.00281393
-1.21437e-08
0.00281393
-1.99197e-08
0.00281391
-2.51394e-08
0.00281388
-2.56698e-08
0.00281383
-1.93927e-08
0.00281377
-2.99208e-09
0.0028137
2.6767e-08
0.00281363
7.12444e-08
0.00281357
1.3168e-07
0.00281351
2.15045e-07
3.54026e-07
0.00281395
1.76795e-07
0.00281388
-3.81422e-09
0.0028138
-7.93935e-08
0.00281383
-4.78219e-08
0.00281388
-2.04806e-08
0.00281393
-2.08888e-09
0.00281395
9.37084e-09
0.00281395
1.50794e-08
0.00281393
1.53908e-08
0.00281391
1.2551e-08
0.00281389
9.17627e-09
0.00281388
6.57379e-09
0.00281389
6.14008e-09
0.00281392
9.20405e-09
0.00281394
1.48313e-08
0.00281396
1.90437e-08
0.00281395
1.81156e-08
0.00281394
1.22389e-08
0.00281393
4.48932e-09
0.00281392
-3.10076e-09
0.00281392
-1.07679e-08
0.00281392
-1.85755e-08
0.00281392
-2.50147e-08
0.00281391
-2.84975e-08
0.00281388
-2.87038e-08
0.00281385
-2.44611e-08
0.0028138
-1.13473e-08
0.00281375
1.66884e-08
0.00281369
5.92051e-08
0.00281365
1.08986e-07
0.00281365
1.63961e-07
2.2319e-07
0.00281386
1.00265e-07
0.00281385
2.47132e-08
0.00281383
-1.90567e-08
0.00281386
-1.89705e-08
0.0028139
-7.85989e-09
0.00281394
2.95037e-09
0.00281396
1.14142e-08
0.00281395
1.69873e-08
0.00281393
1.81591e-08
0.0028139
1.5591e-08
0.00281388
1.10238e-08
0.00281388
5.97425e-09
0.0028139
3.35304e-09
0.00281392
5.26367e-09
0.00281395
1.05739e-08
0.00281396
1.52244e-08
0.00281395
1.52992e-08
0.00281393
1.02743e-08
0.00281392
1.85962e-09
0.00281392
-7.69687e-09
0.00281392
-1.63255e-08
0.00281392
-2.2861e-08
0.00281392
-2.68176e-08
0.00281391
-2.89386e-08
0.00281389
-3.0966e-08
0.00281386
-3.2212e-08
0.00281383
-2.61804e-08
0.00281379
7.99871e-10
0.00281375
4.75682e-08
0.00281371
9.05738e-08
0.00281371
1.19192e-07
1.32357e-07
0.00281379
6.20964e-08
0.00281381
2.64715e-08
0.00281383
2.29414e-09
0.00281387
-3.65861e-09
0.00281391
-1.07761e-09
0.00281395
3.49774e-09
0.00281396
9.13126e-09
0.00281395
1.50009e-08
0.00281393
1.71665e-08
0.0028139
1.51184e-08
0.00281388
1.08687e-08
0.00281388
5.89824e-09
0.0028139
2.71592e-09
0.00281393
2.92376e-09
0.00281395
6.08631e-09
0.00281396
9.52653e-09
0.00281394
9.84565e-09
0.00281393
6.04213e-09
0.00281391
-1.32844e-09
0.00281391
-1.03538e-08
0.00281391
-1.77626e-08
0.00281391
-2.18601e-08
0.00281391
-2.33499e-08
0.0028139
-2.5015e-08
0.00281389
-3.05822e-08
0.00281387
-4.13385e-08
0.00281386
-5.19229e-08
0.00281384
-2.48235e-08
0.00281379
4.5312e-08
0.00281374
9.09631e-08
0.00281372
9.50637e-08
8.58542e-08
0.00281374
3.31629e-08
0.00281378
1.63302e-08
0.00281382
4.73958e-09
0.00281386
2.65565e-10
0.00281391
-2.18532e-10
0.00281394
-7.05148e-11
0.00281396
3.24332e-09
0.00281395
1.00595e-08
0.00281392
1.24555e-08
0.00281389
1.01301e-08
0.00281387
7.1619e-09
0.00281387
4.16867e-09
0.00281389
2.37078e-09
0.00281393
2.32594e-09
0.00281395
3.17993e-09
0.00281395
3.85222e-09
0.00281393
3.63808e-09
0.00281391
1.66074e-09
0.0028139
-2.57476e-09
0.00281389
-7.8053e-09
0.0028139
-1.16727e-08
0.00281391
-1.31656e-08
0.00281391
-1.34772e-08
0.00281389
-1.53346e-08
0.00281387
-2.2696e-08
0.00281385
-4.31542e-08
0.00281388
-1.00937e-07
0.0028139
-8.17449e-08
0.00281383
6.57406e-08
0.00281373
1.2654e-07
0.0028137
8.12737e-08
5.12805e-08
0.00280727
0.00280731
0.00280736
0.00280741
0.00280745
0.00280749
0.00280751
0.00280749
0.00280746
0.00280743
0.00280741
0.00280741
0.00280744
0.00280747
0.00280749
0.00280749
0.00280747
0.00280745
0.00280744
0.00280743
0.00280744
0.00280745
0.00280745
0.00280743
0.00280739
0.00280734
0.00280724
0.00280715
0.00280715
0.00280719
0.00280722
)
;

boundaryField
{
    wall
    {
        type            calculated;
        value           uniform 0;
    }
    outlet
    {
        type            cyclic;
        value           nonuniform List<scalar> 
16
(
0.00280036
0.00280706
0.00280784
0.00280809
0.00280842
0.00280838
0.00280835
0.00280189
0.00280619
0.00281306
0.00281337
0.00281378
0.00281378
0.00281374
0.00281371
0.00280724
)
;
    }
    inlet
    {
        type            cyclic;
        value           nonuniform List<scalar> 
16
(
-0.00280036
-0.00280706
-0.00280784
-0.00280809
-0.00280842
-0.00280838
-0.00280835
-0.00280189
-0.00280619
-0.00281306
-0.00281337
-0.00281378
-0.00281378
-0.00281374
-0.00281371
-0.00280724
)
;
    }
    procBoundary0to1
    {
        type            processor;
        value           nonuniform List<scalar> 
256
(
6.22715e-07
5.20272e-08
-1.17848e-07
-1.68329e-07
-1.54246e-07
-1.25198e-07
-7.97611e-08
-2.78552e-08
1.59181e-08
3.68367e-08
3.09109e-08
6.76107e-09
-2.4777e-08
-5.1643e-08
-6.25884e-08
-5.18662e-08
-2.36764e-08
4.46092e-09
1.36429e-08
4.90346e-09
-3.37362e-09
5.94768e-09
3.48333e-08
6.90769e-08
1.01998e-07
1.34891e-07
1.61155e-07
1.81598e-07
2.13841e-07
2.80261e-07
3.78932e-07
3.87137e-07
3.05554e-07
-5.66557e-08
-1.80416e-07
-1.65603e-07
-1.49298e-07
-1.21243e-07
-7.66662e-08
-2.65436e-08
1.58062e-08
3.68659e-08
3.13457e-08
7.72174e-09
-2.30714e-08
-4.8741e-08
-5.75658e-08
-4.52147e-08
-1.79953e-08
7.44747e-09
1.61949e-08
1.0077e-08
2.92063e-09
8.97261e-09
3.19094e-08
6.05291e-08
9.01112e-08
1.22039e-07
1.4846e-07
1.67041e-07
1.90109e-07
2.32399e-07
3.02443e-07
3.5061e-07
2.29948e-07
-1.19331e-07
-2.30433e-07
-1.63447e-07
-1.41004e-07
-1.12461e-07
-6.82338e-08
-2.07531e-08
1.70804e-08
3.53156e-08
3.0117e-08
8.93496e-09
-1.93072e-08
-4.37276e-08
-5.00345e-08
-3.38582e-08
-7.84601e-09
1.18672e-08
1.86007e-08
1.54197e-08
9.88768e-09
1.2357e-08
2.78941e-08
4.87911e-08
7.2338e-08
1.01268e-07
1.28357e-07
1.46657e-07
1.62281e-07
1.85842e-07
2.25206e-07
3.08639e-07
9.58441e-08
-7.40867e-08
-1.49133e-07
-1.37289e-07
-1.24863e-07
-9.86575e-08
-5.58066e-08
-1.1205e-08
2.16579e-08
3.53418e-08
2.88959e-08
9.40828e-09
-1.70835e-08
-3.98569e-08
-4.14943e-08
-2.01856e-08
4.34258e-09
1.71348e-08
2.03563e-08
1.90641e-08
1.44623e-08
1.26159e-08
2.05963e-08
3.55544e-08
5.55557e-08
8.22465e-08
1.08678e-07
1.26389e-07
1.37388e-07
1.47778e-07
1.58753e-07
1.68561e-07
2.81383e-08
-5.47663e-08
-1.02606e-07
-1.12008e-07
-1.06156e-07
-8.2658e-08
-4.09977e-08
2.36638e-09
3.07303e-08
3.87081e-08
2.85847e-08
6.37407e-09
-2.14781e-08
-4.0822e-08
-3.41889e-08
-6.24019e-09
1.75644e-08
2.42688e-08
2.26036e-08
1.9708e-08
1.27717e-08
5.9742e-09
9.62657e-09
2.38689e-08
4.42719e-08
6.88176e-08
9.14812e-08
1.07575e-07
1.16933e-07
1.18335e-07
1.09871e-07
8.65329e-08
5.02198e-09
-5.04967e-08
-8.56696e-08
-9.65374e-08
-9.10257e-08
-6.81608e-08
-2.70698e-08
1.61662e-08
4.26315e-08
4.74548e-08
3.24558e-08
2.43232e-09
-3.05673e-08
-4.73585e-08
-3.2075e-08
4.1067e-09
2.98689e-08
3.31594e-08
2.50661e-08
1.49105e-08
2.53276e-09
-7.02818e-09
-2.56729e-09
1.50243e-08
3.62146e-08
5.65358e-08
7.37179e-08
8.96844e-08
1.02893e-07
1.02442e-07
8.59103e-08
5.47651e-08
2.29194e-10
-4.85257e-08
-7.88195e-08
-8.78105e-08
-8.12595e-08
-5.80433e-08
-1.76342e-08
2.51488e-08
5.20883e-08
5.67623e-08
3.85244e-08
2.15883e-09
-3.58742e-08
-5.3678e-08
-3.39988e-08
9.16846e-09
3.75208e-08
3.87872e-08
2.42876e-08
4.47526e-09
-1.39741e-08
-2.31528e-08
-1.32737e-08
1.01657e-08
3.08752e-08
4.48138e-08
5.52457e-08
7.49295e-08
1.00513e-07
1.02798e-07
8.16389e-08
4.80143e-08
1.76686e-09
-4.68733e-08
-7.66276e-08
-8.48346e-08
-7.65823e-08
-5.10017e-08
-1.20446e-08
2.72153e-08
5.5382e-08
6.25029e-08
4.30967e-08
3.81013e-09
-3.5775e-08
-5.29489e-08
-3.33676e-08
8.56517e-09
3.71402e-08
3.83708e-08
2.01219e-08
-5.32946e-09
-2.6072e-08
-3.24774e-08
-1.78039e-08
8.35729e-09
2.75891e-08
3.63712e-08
3.62678e-08
6.08514e-08
1.08877e-07
1.13591e-07
8.43735e-08
5.01661e-08
)
;
    }
}


// ************************************************************************* //
