/*--------------------------------*- C++ -*----------------------------------*\
| =========                 |                                                 |
| \\      /  F ield         | OpenFOAM: The Open Source CFD Toolbox           |
|  \\    /   O peration     | Version:  2506                                  |
|   \\  /    A nd           | Website:  www.openfoam.com                      |
|    \\/     M anipulation  |                                                 |
\*---------------------------------------------------------------------------*/
FoamFile
{
    version     2.0;
    format      ascii;
    arch        "LSB;label=32;scalar=64";
    class       volVectorField;
    location    "0.002";
    object      U_0;
}
// * * * * * * * * * * * * * * * * * * * * * * * * * * * * * * * * * * * * * //

dimensions      [0 1 -1 0 0 0 0];

internalField   nonuniform List<vector> 
512
(
(8.98718 0.00447949 0.00448817)
(8.99293 0.00126114 0.00126965)
(8.98956 0.000418271 0.000426536)
(8.98838 0.00016403 0.000172067)
(8.98789 7.42455e-05 8.21507e-05)
(8.98765 3.76177e-05 4.55424e-05)
(8.98752 2.07102e-05 2.87818e-05)
(8.98744 1.20996e-05 2.03586e-05)
(8.98738 7.37858e-06 1.57472e-05)
(8.98734 4.65289e-06 1.29537e-05)
(8.98731 3.0284e-06 1.10818e-05)
(8.98728 2.0445e-06 9.73582e-06)
(8.98726 1.44442e-06 8.75901e-06)
(8.98724 1.08027e-06 8.10348e-06)
(8.98722 8.66513e-07 7.77065e-06)
(8.98721 7.53893e-07 7.75195e-06)
(8.98719 7.21099e-07 7.98552e-06)
(8.98717 7.72251e-07 8.34551e-06)
(8.98715 9.26313e-07 8.67723e-06)
(8.98713 1.20399e-06 8.9469e-06)
(8.98711 1.63641e-06 9.27698e-06)
(8.98709 2.29349e-06 9.85616e-06)
(8.98706 3.31314e-06 1.08779e-05)
(8.98703 4.94417e-06 1.25903e-05)
(8.98699 7.64391e-06 1.54397e-05)
(8.98693 1.2309e-05 2.03239e-05)
(8.98685 2.08442e-05 2.91205e-05)
(8.98672 3.76734e-05 4.61772e-05)
(8.98648 7.42367e-05 8.28774e-05)
(8.98598 0.000163983 0.000172685)
(8.9848 0.000418217 0.000426952)
(8.98143 0.00126111 0.00126985)
(9.00437 0.00598892 0.0011268)
(9.00607 0.00209684 0.0005728)
(9.00566 0.000831137 0.000264623)
(9.00523 0.000371055 0.000128665)
(9.00495 0.000183163 6.86997e-05)
(9.00479 9.80204e-05 4.07614e-05)
(9.00468 5.58186e-05 2.6872e-05)
(9.00461 3.33043e-05 1.95168e-05)
(9.00456 2.05872e-05 1.53402e-05)
(9.00453 1.31049e-05 1.27375e-05)
(9.0045 8.5898e-06 1.09621e-05)
(9.00447 5.82994e-06 9.67739e-06)
(9.00445 4.13367e-06 8.74184e-06)
(9.00443 3.09781e-06 8.11328e-06)
(9.00441 2.48796e-06 7.79726e-06)
(9.0044 2.1686e-06 7.78135e-06)
(9.00438 2.07744e-06 8.00398e-06)
(9.00436 2.22032e-06 8.35613e-06)
(9.00434 2.64696e-06 8.70355e-06)
(9.00432 3.41913e-06 9.00381e-06)
(9.0043 4.63142e-06 9.35024e-06)
(9.00428 6.48084e-06 9.91551e-06)
(9.00425 9.34413e-06 1.08874e-05)
(9.00422 1.38881e-05 1.24969e-05)
(9.00419 2.13084e-05 1.51373e-05)
(9.00414 3.38732e-05 1.95614e-05)
(9.00407 5.61753e-05 2.72597e-05)
(9.00396 9.81562e-05 4.1415e-05)
(9.00379 0.000183119 6.94179e-05)
(9.00352 0.00037091 0.000129256)
(9.00308 0.000830978 0.000265009)
(9.00267 0.00209675 0.000572982)
(9.00439 0.00216182 0.000353635)
(9.00499 0.00132444 0.000247008)
(9.00505 0.000721457 0.00014675)
(9.00494 0.000392133 8.57729e-05)
(9.00482 0.000219355 5.2206e-05)
(9.00473 0.000127148 3.39619e-05)
(9.00466 7.62194e-05 2.38683e-05)
(9.00461 4.70275e-05 1.80932e-05)
(9.00457 2.97352e-05 1.4612e-05)
(9.00453 1.92347e-05 1.23398e-05)
(9.00451 1.27589e-05 1.07446e-05)
(9.00448 8.7334e-06 9.57615e-06)
(9.00446 6.22481e-06 8.71599e-06)
(9.00445 4.67817e-06 8.13206e-06)
(9.00443 3.76591e-06 7.8401e-06)
(9.00441 3.29445e-06 7.82881e-06)
(9.00439 3.16687e-06 8.035e-06)
(9.00438 3.37663e-06 8.37083e-06)
(9.00436 3.98571e-06 8.7317e-06)
(9.00434 5.09372e-06 9.06627e-06)
(9.00432 6.85598e-06 9.43044e-06)
(9.0043 9.56231e-06 9.97045e-06)
(9.00427 1.37366e-05 1.08612e-05)
(9.00425 2.02731e-05 1.23034e-05)
(9.00422 3.07071e-05 1.45994e-05)
(9.00417 4.77928e-05 1.82819e-05)
(9.00412 7.66802e-05 2.43348e-05)
(9.00405 0.000127288 3.46313e-05)
(9.00395 0.000219243 5.28924e-05)
(9.00384 0.000391885 8.6309e-05)
(9.00373 0.000721203 0.000147083)
(9.00379 0.00132428 0.000247159)
(9.00439 0.000990171 0.000140078)
(9.00465 0.000778291 0.000115924)
(9.00474 0.000520631 8.24759e-05)
(9.00474 0.000329114 5.61536e-05)
(9.00471 0.000205015 3.85984e-05)
(9.00466 0.000128133 2.75896e-05)
(9.00462 8.0938e-05 2.08011e-05)
(9.00458 5.17976e-05 1.6563e-05)
(9.00455 3.3613e-05 1.38152e-05)
(9.00452 2.21578e-05 1.19181e-05)
(9.0045 1.48993e-05 1.05401e-05)
(9.00448 1.02888e-05 9.50833e-06)
(9.00446 7.36792e-06 8.72782e-06)
(9.00444 5.5507e-06 8.18674e-06)
(9.00443 4.48178e-06 7.91853e-06)
(9.00441 3.94238e-06 7.91531e-06)
(9.00439 3.81197e-06 8.11108e-06)
(9.00438 4.06087e-06 8.42909e-06)
(9.00436 4.74375e-06 8.78557e-06)
(9.00434 5.98519e-06 9.13263e-06)
(9.00432 7.98565e-06 9.50087e-06)
(9.0043 1.1083e-05 1.00079e-05)
(9.00428 1.58425e-05 1.08106e-05)
(9.00426 2.31804e-05 1.20756e-05)
(9.00423 3.45868e-05 1.40012e-05)
(9.0042 5.25636e-05 1.69007e-05)
(9.00416 8.13753e-05 2.13319e-05)
(9.00412 0.000128215 2.82398e-05)
(9.00407 0.000204819 3.92121e-05)
(9.00403 0.000328779 5.6599e-05)
(9.00403 0.000520309 8.27315e-05)
(9.00413 0.000778099 0.00011603)
(9.00439 0.000528788 6.82555e-05)
(9.00452 0.00046341 6.1684e-05)
(9.0046 0.000350879 4.96676e-05)
(9.00463 0.00024636 3.8109e-05)
(9.00462 0.00016658 2.90688e-05)
(9.00461 0.000110736 2.26415e-05)
(9.00458 7.32095e-05 1.82499e-05)
(9.00456 4.84511e-05 1.52474e-05)
(9.00454 3.22346e-05 1.3135e-05)
(9.00452 2.16428e-05 1.15793e-05)
(9.0045 1.4737e-05 1.03978e-05)
(9.00448 1.02495e-05 9.48043e-06)
(9.00446 7.36326e-06 8.7594e-06)
(9.00444 5.55882e-06 8.24778e-06)
(9.00443 4.50636e-06 8.00162e-06)
(9.00441 3.99337e-06 8.01648e-06)
(9.00439 3.89147e-06 8.22112e-06)
(9.00438 4.14868e-06 8.53318e-06)
(9.00436 4.80096e-06 8.8739e-06)
(9.00434 5.97678e-06 9.20685e-06)
(9.00433 7.89521e-06 9.55317e-06)
(9.00431 1.08943e-05 1.00167e-05)
(9.00429 1.54891e-05 1.0741e-05)
(9.00427 2.2464e-05 1.18564e-05)
(9.00424 3.30285e-05 1.34629e-05)
(9.00422 4.90794e-05 1.56951e-05)
(9.0042 7.35519e-05 1.88146e-05)
(9.00417 0.000110754 2.3241e-05)
(9.00415 0.00016634 2.95761e-05)
(9.00415 0.000246001 3.8433e-05)
(9.00418 0.000350549 4.98215e-05)
(9.00426 0.000463218 6.17342e-05)
(9.00439 0.000297738 3.99517e-05)
(9.00447 0.000273682 3.7807e-05)
(9.00453 0.000222532 3.30755e-05)
(9.00456 0.000167272 2.7763e-05)
(9.00457 0.000119792 2.30184e-05)
(9.00457 8.33566e-05 1.92514e-05)
(9.00456 5.70909e-05 1.64189e-05)
(9.00454 3.88236e-05 1.42987e-05)
(9.00452 2.63744e-05 1.267e-05)
(9.00451 1.79852e-05 1.13732e-05)
(9.00449 1.23716e-05 1.0324e-05)
(9.00447 8.64816e-06 9.4684e-06)
(9.00446 6.2261e-06 8.77794e-06)
(9.00444 4.7127e-06 8.28866e-06)
(9.00443 3.84164e-06 8.06813e-06)
(9.00441 3.43412e-06 8.11433e-06)
(9.00439 3.37309e-06 8.34955e-06)
(9.00438 3.59798e-06 8.67234e-06)
(9.00436 4.12578e-06 8.99429e-06)
(9.00434 5.06953e-06 9.28865e-06)
(9.00433 6.63347e-06 9.59112e-06)
(9.00431 9.10548e-06 1.00118e-05)
(9.00429 1.28833e-05 1.06819e-05)
(9.00427 1.85402e-05 1.16917e-05)
(9.00426 2.69197e-05 1.30628e-05)
(9.00424 3.92642e-05 1.48066e-05)
(9.00422 5.73281e-05 1.69992e-05)
(9.00421 8.33454e-05 1.97986e-05)
(9.00421 0.000119581 2.34219e-05)
(9.00422 0.000166976 2.79753e-05)
(9.00425 0.00022227 3.31457e-05)
(9.00431 0.000273533 3.78155e-05)
(9.00437 0.000155156 2.78544e-05)
(9.00443 0.000145658 2.70098e-05)
(9.00448 0.000123063 2.48996e-05)
(9.00451 9.63042e-05 2.22214e-05)
(9.00452 7.14918e-05 1.95455e-05)
(9.00453 5.12506e-05 1.72023e-05)
(9.00452 3.59462e-05 1.52793e-05)
(9.00451 2.49092e-05 1.37167e-05)
(9.0045 1.71761e-05 1.24128e-05)
(9.00448 1.18458e-05 1.12853e-05)
(9.00447 8.20838e-06 1.03049e-05)
(9.00445 5.75859e-06 9.46719e-06)
(9.00444 4.15362e-06 8.78608e-06)
(9.00442 3.15448e-06 8.31753e-06)
(9.00441 2.58743e-06 8.12761e-06)
(9.00439 2.33156e-06 8.21335e-06)
(9.00438 2.30353e-06 8.48638e-06)
(9.00436 2.45439e-06 8.82307e-06)
(9.00435 2.78988e-06 9.11859e-06)
(9.00433 3.39053e-06 9.35832e-06)
(9.00431 4.40461e-06 9.61226e-06)
(9.0043 6.02379e-06 1.00038e-05)
(9.00428 8.49245e-06 1.06471e-05)
(9.00426 1.2151e-05 1.15993e-05)
(9.00425 1.74828e-05 1.28257e-05)
(9.00423 2.51656e-05 1.42595e-05)
(9.00422 3.60878e-05 1.58791e-05)
(9.00422 5.1241e-05 1.77236e-05)
(9.00422 7.13591e-05 1.98873e-05)
(9.00424 9.61233e-05 2.23729e-05)
(9.00427 0.000122908 2.49336e-05)
(9.00431 0.000145573 2.70061e-05)
(8.98718 4.8417e-05 2.31657e-05)
(8.98723 4.58262e-05 2.27089e-05)
(8.98727 3.93688e-05 2.14797e-05)
(8.9873 3.13858e-05 1.97809e-05)
(8.98732 2.37033e-05 1.79421e-05)
(8.98733 1.72422e-05 1.62156e-05)
(8.98732 1.22378e-05 1.47075e-05)
(8.98732 8.56187e-06 1.34158e-05)
(8.98731 5.94989e-06 1.22808e-05)
(8.98729 4.12832e-06 1.12432e-05)
(8.98728 2.87213e-06 1.02939e-05)
(8.98726 2.01914e-06 9.45826e-06)
(8.98725 1.45845e-06 8.78016e-06)
(8.98723 1.11054e-06 8.32797e-06)
(8.98722 9.14827e-07 8.16106e-06)
(8.9872 8.28204e-07 8.27261e-06)
(8.98719 8.20499e-07 8.56887e-06)
(8.98717 8.72816e-07 8.90983e-06)
(8.98716 9.86414e-07 9.18043e-06)
(8.98714 1.1912e-06 9.37949e-06)
(8.98712 1.54171e-06 9.60426e-06)
(8.98711 2.10462e-06 9.98398e-06)
(8.98709 2.96126e-06 1.06165e-05)
(8.98708 4.22356e-06 1.1541e-05)
(8.98706 6.04756e-06 1.26955e-05)
(8.98705 8.64581e-06 1.39756e-05)
(8.98704 1.22854e-05 1.53213e-05)
(8.98704 1.72395e-05 1.67282e-05)
(8.98705 2.36598e-05 1.82596e-05)
(8.98706 3.13271e-05 1.99117e-05)
(8.98709 3.93197e-05 2.1508e-05)
(8.98713 4.57998e-05 2.27073e-05)
(8.9958 0.0011181 0.0060151)
(8.9975 0.000564273 0.00212246)
(8.99709 0.000256342 0.000855928)
(8.99666 0.000120613 0.00039508)
(8.99638 6.07795e-05 0.000206738)
(8.99622 3.28215e-05 0.000121679)
(8.99611 1.8785e-05 8.00042e-05)
(8.99604 1.12419e-05 5.81711e-05)
(8.99599 6.95553e-06 4.58823e-05)
(8.99595 4.42071e-06 3.8199e-05)
(8.99592 2.89322e-06 3.28761e-05)
(8.9959 1.97128e-06 2.89294e-05)
(8.99588 1.41317e-06 2.60024e-05)
(8.99586 1.07661e-06 2.40053e-05)
(8.99584 8.79912e-07 2.29976e-05)
(8.99583 7.69866e-07 2.30006e-05)
(8.99581 7.25616e-07 2.38387e-05)
(8.99579 7.68352e-07 2.50819e-05)
(8.99577 9.37745e-07 2.60962e-05)
(8.99575 1.24601e-06 2.67535e-05)
(8.99573 1.69497e-06 2.75402e-05)
(8.99571 2.33831e-06 2.91001e-05)
(8.99568 3.30813e-06 3.19699e-05)
(8.99565 4.83611e-06 3.67694e-05)
(8.99562 7.32659e-06 4.46377e-05)
(8.99557 1.15313e-05 5.7887e-05)
(8.9955 1.89676e-05 8.10502e-05)
(8.99539 3.2895e-05 0.00012377)
(8.99522 6.07606e-05 0.00020913)
(8.99495 0.000120538 0.000397056)
(8.99451 0.000256257 0.000857217)
(8.9941 0.000564218 0.00212307)
(9.01303 0.00185727 0.00188339)
(9.01387 0.00107579 0.00110138)
(9.01388 0.000552125 0.000576919)
(9.0137 0.000285143 0.000309175)
(9.01353 0.000153412 0.000176992)
(9.01341 8.65406e-05 0.000110203)
(9.01332 5.09569e-05 7.51518e-05)
(9.01326 3.10637e-05 5.59398e-05)
(9.01322 1.94613e-05 4.47586e-05)
(9.01318 1.24912e-05 3.75599e-05)
(9.01315 8.24777e-06 3.24877e-05)
(9.01313 5.66269e-06 2.87211e-05)
(9.01311 4.08168e-06 2.5923e-05)
(9.01309 3.11673e-06 2.4015e-05)
(9.01307 2.54725e-06 2.30725e-05)
(9.01306 2.23472e-06 2.30842e-05)
(9.01304 2.11556e-06 2.38664e-05)
(9.01302 2.23384e-06 2.50649e-05)
(9.013 2.68977e-06 2.61518e-05)
(9.01298 3.52783e-06 2.69555e-05)
(9.01296 4.7759e-06 2.78209e-05)
(9.01294 6.58859e-06 2.93399e-05)
(9.01292 9.3245e-06 3.20549e-05)
(9.01289 1.36037e-05 3.65536e-05)
(9.01285 2.04793e-05 4.38554e-05)
(9.01281 3.18572e-05 5.59145e-05)
(9.01275 5.14414e-05 7.6362e-05)
(9.01266 8.671e-05 0.000112368)
(9.01254 0.000153327 0.00017936)
(9.01237 0.000284914 0.000311058)
(9.01219 0.000551883 0.000578099)
(9.01219 0.00107564 0.00110192)
(9.01305 0.00117924 0.000715756)
(9.01345 0.000870098 0.000539953)
(9.01355 0.000540693 0.000347451)
(9.01351 0.000320374 0.000216696)
(9.01343 0.000189675 0.000138456)
(9.01336 0.00011422 9.33453e-05)
(9.0133 7.02946e-05 6.7379e-05)
(9.01326 4.41639e-05 5.21165e-05)
(9.01322 2.82672e-05 4.27154e-05)
(9.01319 1.84522e-05 3.63841e-05)
(9.01316 1.23613e-05 3.18096e-05)
(9.01314 8.58096e-06 2.84008e-05)
(9.01312 6.22266e-06 2.58466e-05)
(9.0131 4.76057e-06 2.40802e-05)
(9.01309 3.89438e-06 2.32157e-05)
(9.01307 3.43471e-06 2.32416e-05)
(9.01306 3.28001e-06 2.39422e-05)
(9.01304 3.456e-06 2.5056e-05)
(9.01302 4.07531e-06 2.62079e-05)
(9.013 5.23224e-06 2.7178e-05)
(9.01298 7.01968e-06 2.81389e-05)
(9.01296 9.67293e-06 2.95923e-05)
(9.01294 1.36861e-05 3.20724e-05)
(9.01291 1.98908e-05 3.61082e-05)
(9.01288 2.96299e-05 4.24923e-05)
(9.01284 4.52236e-05 5.26016e-05)
(9.0128 7.08994e-05 6.88687e-05)
(9.01274 0.000114357 9.55747e-05)
(9.01267 0.000189457 0.000140724)
(9.01259 0.000319979 0.000218393)
(9.01255 0.000540308 0.000348456)
(9.01265 0.000869867 0.000540385)
(9.01305 0.000706691 0.000326278)
(9.01325 0.00059446 0.000280199)
(9.01335 0.000424548 0.000208892)
(9.01336 0.000282081 0.000148172)
(9.01334 0.00018227 0.000105213)
(9.0133 0.000117058 7.7158e-05)
(9.01327 7.54749e-05 5.93638e-05)
(9.01324 4.90512e-05 4.80065e-05)
(9.01321 3.22005e-05 4.04975e-05)
(9.01318 2.14398e-05 3.51695e-05)
(9.01316 1.45809e-05 3.12267e-05)
(9.01314 1.02128e-05 2.82472e-05)
(9.01312 7.42544e-06 2.59366e-05)
(9.0131 5.67708e-06 2.42928e-05)
(9.01309 4.65194e-06 2.34976e-05)
(9.01307 4.13764e-06 2.35438e-05)
(9.01306 4.00542e-06 2.41887e-05)
(9.01304 4.231e-06 2.52152e-05)
(9.01302 4.89503e-06 2.63442e-05)
(9.013 6.1372e-06 2.73818e-05)
(9.01298 8.12364e-06 2.83956e-05)
(9.01296 1.11505e-05 2.97707e-05)
(9.01294 1.57528e-05 3.2004e-05)
(9.01292 2.27778e-05 3.55749e-05)
(9.0129 3.35166e-05 4.09892e-05)
(9.01287 5.00776e-05 4.90179e-05)
(9.01283 7.60111e-05 6.10616e-05)
(9.0128 0.000117071 7.92961e-05)
(9.01276 0.000181895 0.00010722)
(9.01274 0.000281534 0.000149561)
(9.01275 0.000424045 0.00020964)
(9.01285 0.000594167 0.00028049)
(9.01305 0.000429676 0.000174303)
(9.01316 0.000386183 0.00016016)
(9.01324 0.000302152 0.000132372)
(9.01327 0.000218442 0.000104152)
(9.01327 0.00015132 8.11495e-05)
(9.01326 0.00010261 6.43602e-05)
(9.01324 6.89678e-05 5.26651e-05)
(9.01322 4.62798e-05 4.45062e-05)
(9.01319 3.11512e-05 3.86515e-05)
(9.01317 2.11394e-05 3.42475e-05)
(9.01315 1.45492e-05 3.08753e-05)
(9.01314 1.02293e-05 2.82423e-05)
(9.01312 7.42753e-06 2.60941e-05)
(9.0131 5.67145e-06 2.45098e-05)
(9.01309 4.66467e-06 2.3772e-05)
(9.01307 4.20011e-06 2.38746e-05)
(9.01306 4.13744e-06 2.45496e-05)
(9.01304 4.3999e-06 2.5548e-05)
(9.01302 5.0189e-06 2.66101e-05)
(9.013 6.14426e-06 2.76126e-05)
(9.01299 8.00061e-06 2.85702e-05)
(9.01297 1.09192e-05 2.98177e-05)
(9.01295 1.53901e-05 3.18372e-05)
(9.01293 2.21231e-05 3.50401e-05)
(9.01291 3.21535e-05 3.96437e-05)
(9.01289 4.70794e-05 4.59026e-05)
(9.01286 6.93602e-05 5.44597e-05)
(9.01284 0.000102525 6.62878e-05)
(9.01283 0.000150869 8.276e-05)
(9.01283 0.000217849 0.000105101)
(9.01286 0.000301635 0.00013275)
(9.01293 0.000385892 0.000160242)
(9.01305 0.000257908 0.000107955)
(9.01312 0.000239533 0.000102962)
(9.01318 0.000198191 9.14281e-05)
(9.01321 0.000151706 7.79502e-05)
(9.01322 0.000110499 6.553e-05)
(9.01322 7.80773e-05 5.55043e-05)
(9.01321 5.42298e-05 4.78753e-05)
(9.0132 3.73674e-05 4.20577e-05)
(9.01318 2.57027e-05 3.74877e-05)
(9.01317 1.77257e-05 3.377e-05)
(9.01315 1.23025e-05 3.07378e-05)
(9.01313 8.6516e-06 2.82423e-05)
(9.01312 6.2648e-06 2.61555e-05)
(9.0131 4.79157e-06 2.46215e-05)
(9.01309 3.97507e-06 2.39567e-05)
(9.01307 3.63763e-06 2.41647e-05)
(9.01306 3.64487e-06 2.49647e-05)
(9.01304 3.89484e-06 2.60185e-05)
(9.01302 4.37847e-06 2.70192e-05)
(9.01301 5.23079e-06 2.7883e-05)
(9.01299 6.70535e-06 2.86857e-05)
(9.01297 9.1101e-06 2.98038e-05)
(9.01295 1.28141e-05 3.16972e-05)
(9.01294 1.83187e-05 3.4658e-05)
(9.01292 2.63342e-05 3.8671e-05)
(9.0129 3.7904e-05 4.36496e-05)
(9.01289 5.45026e-05 4.97181e-05)
(9.01288 7.7988e-05 5.72307e-05)
(9.01288 0.000110121 6.67464e-05)
(9.01289 0.000151236 7.84877e-05)
(9.01292 0.000197808 9.15109e-05)
(9.01297 0.00023933 0.000102906)
(9.01303 0.000138712 7.78342e-05)
(9.01309 0.000130882 7.57865e-05)
(9.01313 0.000111744 7.05005e-05)
(9.01316 8.85447e-05 6.35514e-05)
(9.01318 6.6587e-05 5.64256e-05)
(9.01318 4.83442e-05 5.01167e-05)
(9.01318 3.4332e-05 4.49021e-05)
(9.01317 2.40997e-05 4.0603e-05)
(9.01316 1.68435e-05 3.69299e-05)
(9.01314 1.17602e-05 3.3657e-05)
(9.01313 8.21389e-06 3.07586e-05)
(9.01311 5.77774e-06 2.8248e-05)
(9.0131 4.18072e-06 2.61557e-05)
(9.01308 3.21588e-06 2.46889e-05)
(9.01307 2.70106e-06 2.41296e-05)
(9.01305 2.51028e-06 2.44884e-05)
(9.01304 2.54383e-06 2.54453e-05)
(9.01302 2.71383e-06 2.65693e-05)
(9.01301 2.9991e-06 2.74691e-05)
(9.01299 3.50594e-06 2.81045e-05)
(9.01297 4.44468e-06 2.87239e-05)
(9.01296 6.02667e-06 2.97672e-05)
(9.01294 8.46372e-06 3.16233e-05)
(9.01293 1.20458e-05 3.44837e-05)
(9.01291 1.71735e-05 3.81562e-05)
(9.0129 2.44098e-05 4.23218e-05)
(9.01289 3.45086e-05 4.68416e-05)
(9.01288 4.8301e-05 5.17637e-05)
(9.01289 6.63686e-05 5.74244e-05)
(9.0129 8.82822e-05 6.38928e-05)
(9.01293 0.000111548 7.04919e-05)
(9.01298 0.000130787 7.57199e-05)
(8.9958 4.38654e-05 6.57998e-05)
(8.99585 4.16566e-05 6.4673e-05)
(8.99589 3.60655e-05 6.15593e-05)
(8.99592 2.90435e-05 5.71077e-05)
(8.99593 2.21797e-05 5.21699e-05)
(8.99594 1.63196e-05 4.74957e-05)
(8.99594 1.17177e-05 4.33832e-05)
(8.99593 8.30309e-06 3.98338e-05)
(8.99592 5.85292e-06 3.66538e-05)
(8.99591 4.11571e-06 3.36362e-05)
(8.9959 2.88639e-06 3.07911e-05)
(8.99588 2.03225e-06 2.824e-05)
(8.99587 1.47218e-06 2.61382e-05)
(8.99585 1.13909e-06 2.47372e-05)
(8.99584 9.65743e-07 2.42656e-05)
(8.99582 9.05027e-07 2.472e-05)
(8.99581 9.2111e-07 2.57727e-05)
(8.99579 9.7843e-07 2.69157e-05)
(8.99578 1.06782e-06 2.77052e-05)
(8.99576 1.23267e-06 2.81653e-05)
(8.99574 1.55507e-06 2.86822e-05)
(8.99573 2.10793e-06 2.97129e-05)
(8.99571 2.95672e-06 3.15627e-05)
(8.9957 4.1955e-06 3.43729e-05)
(8.99569 5.95332e-06 3.78728e-05)
(8.99567 8.40534e-06 4.16233e-05)
(8.99567 1.17806e-05 4.5395e-05)
(8.99566 1.63092e-05 4.91197e-05)
(8.99567 2.21124e-05 5.30908e-05)
(8.99569 2.89642e-05 5.73958e-05)
(8.99572 3.60108e-05 6.15666e-05)
(8.99575 4.16323e-05 6.46389e-05)
)
;

boundaryField
{
    wall
    {
        type            fixedValue;
        value           uniform (0 0 0);
    }
    outlet
    {
        type            cyclic;
    }
    inlet
    {
        type            cyclic;
    }
    procBoundary0to1
    {
        type            processor;
        value           nonuniform List<vector> 
256
(
(0.034359 0.000344838 0.002206)
(0.0349609 0.000238408 0.00136752)
(0.0350181 0.000138423 0.000762772)
(0.034912 7.76822e-05 0.000431883)
(0.0347953 4.4245e-05 0.000258123)
(0.0347022 2.59805e-05 0.00016615)
(0.0346327 1.57442e-05 0.000116416)
(0.03458 9.78008e-06 8.88066e-05)
(0.0345385 6.18111e-06 7.2645e-05)
(0.0345047 3.94954e-06 6.18153e-05)
(0.0344767 2.58269e-06 5.37627e-05)
(0.0344531 1.78459e-06 4.73829e-05)
(0.0344331 1.31781e-06 4.24597e-05)
(0.0344156 1.04591e-06 3.89678e-05)
(0.0343997 8.98797e-07 3.71971e-05)
(0.0343844 7.9478e-07 3.73887e-05)
(0.0343684 7.04407e-07 3.93186e-05)
(0.0343507 7.08593e-07 4.21246e-05)
(0.0343314 9.33539e-07 4.38799e-05)
(0.0343114 1.35695e-06 4.42952e-05)
(0.0342912 1.86732e-06 4.48194e-05)
(0.0342702 2.48183e-06 4.68675e-05)
(0.034247 3.34312e-06 5.11269e-05)
(0.0342202 4.6673e-06 5.81852e-05)
(0.034188 6.79063e-06 6.93451e-05)
(0.0341475 1.02492e-05 8.76453e-05)
(0.0340943 1.60407e-05 0.000118291)
(0.0340226 2.61059e-05 0.000170375)
(0.0339267 4.4208e-05 0.000262924)
(0.0338077 7.75374e-05 0.000435587)
(0.0337004 0.000138257 0.000765039)
(0.0337571 0.000238298 0.00136854)
(0.043036 0.000689532 0.00122299)
(0.0434326 0.000514285 0.000912901)
(0.0435355 0.000322612 0.000581881)
(0.0434958 0.000192624 0.000360016)
(0.0434213 0.000114835 0.000228311)
(0.0433513 6.96417e-05 0.000153084)
(0.043294 4.31471e-05 0.000110388)
(0.0432478 2.72021e-05 8.58377e-05)
(0.04321 1.73718e-05 7.10466e-05)
(0.0431783 1.12419e-05 6.07385e-05)
(0.0431517 7.47664e-06 5.29519e-05)
(0.043129 5.25688e-06 4.6869e-05)
(0.0431094 3.93578e-06 4.2176e-05)
(0.0430922 3.1324e-06 3.88645e-05)
(0.0430765 2.66655e-06 3.72948e-05)
(0.0430612 2.36947e-06 3.75129e-05)
(0.0430453 2.13912e-06 3.92327e-05)
(0.0430279 2.15041e-06 4.18425e-05)
(0.0430089 2.71344e-06 4.3846e-05)
(0.0429892 3.79876e-06 4.47885e-05)
(0.0429691 5.18598e-06 4.55641e-05)
(0.0429484 6.92959e-06 4.75169e-05)
(0.0429259 9.40308e-06 5.1463e-05)
(0.0429004 1.3183e-05 5.79859e-05)
(0.0428702 1.91182e-05 6.83343e-05)
(0.0428333 2.85418e-05 8.51351e-05)
(0.0427866 4.39462e-05 0.000112585)
(0.042727 6.99115e-05 0.000157517)
(0.0426542 0.000114664 0.000233091)
(0.0425776 0.000192196 0.000363494)
(0.0425369 0.000322167 0.00058386)
(0.0426395 0.000514007 0.000913707)
(0.0430527 0.00060885 0.000652216)
(0.0432886 0.000505793 0.000548239)
(0.0433911 0.000354813 0.00039572)
(0.0433987 0.000231882 0.000271247)
(0.0433666 0.000147998 0.00018634)
(0.0433247 9.43469e-05 0.000132953)
(0.0432842 6.05776e-05 0.000100459)
(0.0432481 3.91845e-05 8.05903e-05)
(0.0432164 2.55311e-05 6.79444e-05)
(0.0431886 1.68811e-05 5.87297e-05)
(0.0431644 1.15223e-05 5.1632e-05)
(0.0431432 8.27618e-06 4.62206e-05)
(0.0431246 6.25034e-06 4.20382e-05)
(0.0431079 4.96491e-06 3.89936e-05)
(0.0430925 4.19829e-06 3.75765e-05)
(0.0430774 3.76034e-06 3.78484e-05)
(0.0430617 3.49529e-06 3.92803e-05)
(0.0430447 3.53328e-06 4.15491e-05)
(0.0430264 4.18569e-06 4.37992e-05)
(0.0430072 5.52974e-06 4.53316e-05)
(0.0429876 7.44377e-06 4.64313e-05)
(0.0429677 1.00114e-05 4.82785e-05)
(0.0429465 1.37119e-05 5.1831e-05)
(0.0429232 1.93333e-05 5.76722e-05)
(0.0428965 2.78998e-05 6.68226e-05)
(0.0428654 4.09879e-05 8.10603e-05)
(0.0428286 6.15269e-05 0.000103308)
(0.0427861 9.44608e-05 0.000137598)
(0.0427416 0.000147524 0.000190957)
(0.0427076 0.00023114 0.00027435)
(0.0427144 0.000354127 0.000397366)
(0.0428168 0.000505393 0.000548848)
(0.0430529 0.000450619 0.000366283)
(0.0431951 0.000399992 0.00032998)
(0.0432782 0.000306553 0.000262768)
(0.0433055 0.000217202 0.000197996)
(0.0433003 0.000148101 0.000147797)
(0.0432805 9.93936e-05 0.000113114)
(0.0432553 6.63794e-05 9.02026e-05)
(0.0432293 4.42868e-05 7.50171e-05)
(0.0432042 2.96137e-05 6.4648e-05)
(0.0431809 2.00638e-05 5.67628e-05)
(0.0431596 1.39935e-05 5.07362e-05)
(0.0431403 1.01501e-05 4.61843e-05)
(0.0431226 7.62958e-06 4.24255e-05)
(0.0431067 5.99101e-06 3.95604e-05)
(0.0430918 5.04676e-06 3.82569e-05)
(0.043077 4.583e-06 3.85582e-05)
(0.0430616 4.42669e-06 3.97848e-05)
(0.0430451 4.56076e-06 4.17394e-05)
(0.0430275 5.15513e-06 4.38793e-05)
(0.043009 6.43125e-06 4.56428e-05)
(0.0429901 8.43233e-06 4.70265e-05)
(0.0429712 1.13296e-05 4.88233e-05)
(0.0429518 1.56378e-05 5.19758e-05)
(0.0429311 2.21569e-05 5.72513e-05)
(0.0429084 3.18046e-05 6.52266e-05)
(0.0428835 4.59655e-05 7.66777e-05)
(0.0428566 6.71225e-05 9.34258e-05)
(0.0428296 9.91744e-05 0.000117429)
(0.0428074 0.000147248 0.000151821)
(0.0428007 0.000216119 0.000200483)
(0.0428276 0.000305601 0.00026394)
(0.0429107 0.00039945 0.000330355)
(0.0430533 0.000311481 0.000222832)
(0.0431446 0.000287063 0.000209442)
(0.0432083 0.000234089 0.000179981)
(0.0432403 0.000176611 0.000147207)
(0.0432488 0.000127217 0.000118614)
(0.043243 8.92949e-05 9.70761e-05)
(0.0432291 6.18616e-05 8.16626e-05)
(0.0432114 4.25953e-05 7.04332e-05)
(0.0431922 2.92867e-05 6.20564e-05)
(0.0431729 2.02848e-05 5.54594e-05)
(0.0431545 1.42764e-05 5.04168e-05)
(0.0431369 1.02643e-05 4.6529e-05)
(0.0431204 7.5963e-06 4.29746e-05)
(0.0431053 5.89816e-06 4.0045e-05)
(0.0430911 4.97413e-06 3.88056e-05)
(0.0430768 4.62198e-06 3.92139e-05)
(0.0430617 4.67497e-06 4.05143e-05)
(0.0430455 4.96003e-06 4.23762e-05)
(0.0430283 5.48513e-06 4.42781e-05)
(0.0430105 6.48945e-06 4.60384e-05)
(0.0429926 8.20046e-06 4.73721e-05)
(0.0429749 1.09483e-05 4.89245e-05)
(0.0429574 1.5212e-05 5.17421e-05)
(0.0429393 2.15903e-05 5.66904e-05)
(0.0429203 3.07738e-05 6.38177e-05)
(0.0429007 4.38053e-05 7.29738e-05)
(0.0428819 6.23496e-05 8.50017e-05)
(0.0428662 8.89009e-05 0.000100773)
(0.0428586 0.000126186 0.00012167)
(0.0428659 0.0001754 0.000148665)
(0.0428978 0.000233092 0.000180231)
(0.0429618 0.000286523 0.000209275)
(0.0430535 0.00020184 0.00014978)
(0.0431177 0.000189834 0.00014466)
(0.0431677 0.000161087 0.000131742)
(0.0431986 0.000126993 0.000115312)
(0.043213 9.52984e-05 9.91659e-05)
(0.0432151 6.92732e-05 8.59217e-05)
(0.0432086 4.94376e-05 7.57283e-05)
(0.0431967 3.4995e-05 6.75974e-05)
(0.0431819 2.47035e-05 6.08674e-05)
(0.0431658 1.74293e-05 5.51353e-05)
(0.0431496 1.22788e-05 5.04736e-05)
(0.0431336 8.67048e-06 4.66166e-05)
(0.0431183 6.2997e-06 4.30553e-05)
(0.0431041 4.90092e-06 4.01441e-05)
(0.0430905 4.20668e-06 3.89989e-05)
(0.0430767 4.05466e-06 3.96038e-05)
(0.0430619 4.27537e-06 4.12753e-05)
(0.0430459 4.62631e-06 4.33521e-05)
(0.043029 4.99279e-06 4.5155e-05)
(0.0430117 5.57129e-06 4.6602e-05)
(0.0429946 6.79997e-06 4.75575e-05)
(0.0429782 9.07255e-06 4.88603e-05)
(0.0429624 1.26942e-05 5.15975e-05)
(0.0429466 1.80195e-05 5.63838e-05)
(0.0429306 2.5484e-05 6.28764e-05)
(0.042915 3.5759e-05 7.05008e-05)
(0.0429017 4.98202e-05 7.91538e-05)
(0.0428934 6.89815e-05 8.90993e-05)
(0.0428939 9.44748e-05 0.000101188)
(0.0429076 0.000126088 0.000115737)
(0.0429387 0.000160439 0.00013132)
(0.0429891 0.000189537 0.000144216)
(0.043037 0.000113425 0.000113785)
(0.0430873 0.000107772 0.000111642)
(0.043129 9.35486e-05 0.000105688)
(0.043158 7.5756e-05 9.70227e-05)
(0.0431745 5.8369e-05 8.75684e-05)
(0.0431806 4.34314e-05 7.9105e-05)
(0.0431783 3.16063e-05 7.20953e-05)
(0.0431701 2.28095e-05 6.61223e-05)
(0.0431581 1.64455e-05 6.07142e-05)
(0.043144 1.17995e-05 5.55155e-05)
(0.0431292 8.33662e-06 5.07713e-05)
(0.0431144 5.82158e-06 4.65856e-05)
(0.0431001 4.19456e-06 4.28826e-05)
(0.0430867 3.32387e-06 4.01399e-05)
(0.0430737 2.94806e-06 3.92191e-05)
(0.0430603 2.93904e-06 4.02249e-05)
(0.0430457 3.16566e-06 4.23552e-05)
(0.0430297 3.40821e-06 4.47066e-05)
(0.0430128 3.53459e-06 4.62588e-05)
(0.0429958 3.73347e-06 4.69885e-05)
(0.0429795 4.46468e-06 4.74531e-05)
(0.0429643 6.0015e-06 4.86965e-05)
(0.0429498 8.43482e-06 5.15404e-05)
(0.0429356 1.19552e-05 5.6446e-05)
(0.0429216 1.67909e-05 6.27097e-05)
(0.0429086 2.32675e-05 6.93423e-05)
(0.0428986 3.19211e-05 7.59077e-05)
(0.0428944 4.33226e-05 8.21746e-05)
(0.0428991 5.79422e-05 8.90926e-05)
(0.0429154 7.53259e-05 9.71046e-05)
(0.0429447 9.33181e-05 0.000105239)
(0.0429867 0.000107709 0.000111345)
(0.0343601 3.66016e-05 9.88449e-05)
(0.0344043 3.49246e-05 9.76667e-05)
(0.0344421 3.06212e-05 9.41853e-05)
(0.0344698 2.51118e-05 8.86163e-05)
(0.034487 1.9593e-05 8.20071e-05)
(0.0344946 1.47452e-05 7.57098e-05)
(0.0344943 1.08254e-05 7.00837e-05)
(0.0344879 7.88539e-06 6.52111e-05)
(0.0344772 5.75539e-06 6.06773e-05)
(0.0344641 4.17998e-06 5.59177e-05)
(0.03445 2.96917e-06 5.11022e-05)
(0.0344358 2.06917e-06 4.66339e-05)
(0.0344222 1.49392e-06 4.28431e-05)
(0.0344093 1.20851e-06 4.03273e-05)
(0.0343966 1.09929e-06 3.96409e-05)
(0.0343834 1.10899e-06 4.08621e-05)
(0.0343689 1.19913e-06 4.32766e-05)
(0.0343528 1.27267e-06 4.56861e-05)
(0.0343359 1.2776e-06 4.68624e-05)
(0.0343192 1.30833e-06 4.70248e-05)
(0.0343035 1.55797e-06 4.72765e-05)
(0.0342889 2.1113e-06 4.86426e-05)
(0.0342751 2.96684e-06 5.15665e-05)
(0.0342617 4.18676e-06 5.64894e-05)
(0.0342487 5.84825e-06 6.26079e-05)
(0.0342369 8.04367e-06 6.86529e-05)
(0.0342285 1.09494e-05 7.41794e-05)
(0.0342262 1.47227e-05 7.87416e-05)
(0.0342327 1.94733e-05 8.33856e-05)
(0.0342498 2.50001e-05 8.86583e-05)
(0.0342778 3.05878e-05 9.39474e-05)
(0.0343158 3.49305e-05 9.75562e-05)
)
;
    }
}


// ************************************************************************* //
