FoamFile
{version 2.0; format ascii;class Cloud<passiveParticle>; location 0;object  positions;}
2495
(
( -0.0108887 -0.00401521 0.000499793 ) 0 
( -0.00506039 -0.00114991 0.000995314 ) 0 
( -0.00678357 -0.00689604 0.00295654 ) 0 
( -0.000979751 -0.00188013 0.00281198 ) 0 
( -0.0130648 -0.00247458 0.000499792 ) 0 
( -0.00938569 -0.00445419 0.000499627 ) 0 
( -0.00304324 -0.00786963 0.00119235 ) 0 
( -0.000105523 -0.00571152 0.00457807 ) 0 
( -0.00876526 -0.00184438 0.0053698 ) 0 
( -0.00936513 -0.00378655 0.00149978 ) 0 
( -0.00914101 -0.00626637 0.00272267 ) 0 
( -0.00626006 -0.00313589 0.00271702 ) 0 
( -0.0106389 -0.00701177 0.00325707 ) 0 
( -0.00904305 -0.00167141 0.00643861 ) 0 
( -0.00389928 -0.00462658 0.00461225 ) 0 
( -0.00229507 -0.00784435 0.00671655 ) 0 
( -0.00221341 -0.00582476 0.00718021 ) 0 
( -0.00536151 -0.00777559 0.00718847 ) 0 
( -0.0025616 -0.00856375 0.00174166 ) 0 
( -0.00915158 -0.00239598 0.00391475 ) 0 
( -0.00212389 -0.00249232 0.00049974 ) 0 
( -0.00428546 -0.00831799 0.00468642 ) 0 
( -0.00417513 -0.000699398 0.000883813 ) 0 
( -0.00131514 -0.00783891 0.000499741 ) 0 
( -0.000529477 -0.00210209 0.00126081 ) 0 
( -0.00973496 -0.00787887 0.00515032 ) 0 
( -0.00867574 -0.0052818 0.000499416 ) 0 
( -0.00945106 -0.00707159 0.00672931 ) 0 
( -0.00984326 -0.00465421 0.00136556 ) 0 
( -0.0131275 -0.00242032 0.00247871 ) 0 
( -0.00599828 -0.00187795 0.000499797 ) 0 
( -0.00407334 -0.0118965 0.00533644 ) 0 
( -0.00205017 -0.0115098 0.00281748 ) 0 
( -0.00227559 -0.00677591 0.00443465 ) 0 
( -0.000688638 -0.0130233 0.00467742 ) 0 
( -0.0013116 -0.00632501 0.00685743 ) 0 
( -0.0050725 -0.00988286 0.0026928 ) 0 
( -0.00664211 -0.000359895 0.0064879 ) 0 
( -0.00336222 -0.00472568 0.00694851 ) 0 
( -0.00405041 -0.00639527 0.000499625 ) 0 
( -0.0101408 -0.00181124 0.0030386 ) 0 
( -0.0116464 -0.00115244 0.00079071 ) 0 
( -0.000790025 -0.00963495 0.00229606 ) 0 
( -0.00780011 -0.00347232 0.00209304 ) 0 
( -0.00108292 -0.00323315 0.00530824 ) 0 
( -0.00138078 -0.00828797 0.00361541 ) 0 
( -0.00837161 -0.00201351 0.00441128 ) 0 
( -0.00124944 -0.00232699 0.00378242 ) 0 
( -0.00682004 -0.00962861 0.00483278 ) 0 
( -0.000795121 -0.00384254 0.00278897 ) 0 
( -0.0072885 -0.0046435 0.000499708 ) 0 
( -0.00463975 -0.00638534 0.00576552 ) 0 
( -0.00132373 -0.0101246 0.00160656 ) 0 
( -0.00667574 -0.0010634 0.000499431 ) 0 
( -0.0112246 -0.00377294 0.00627484 ) 0 
( -0.00401455 -0.0056874 0.00124245 ) 0 
( -0.0120901 -0.00563806 0.00596045 ) 0 
( -0.00209595 -0.0107107 0.00185431 ) 0 
( -0.00622 -0.00934944 0.00125648 ) 0 
( -0.00325354 -0.000748877 0.000499561 ) 0 
( -2.15848e-05 -0.0118521 0.00490396 ) 0 
( -0.00455992 -0.0100476 0.00109194 ) 0 
( -0.00217165 -0.00975161 0.00447403 ) 0 
( -0.00914086 -0.00564591 0.00351059 ) 0 
( -0.00613506 -0.0118515 0.00502167 ) 0 
( -0.00292016 -0.00388305 0.00294781 ) 0 
( -0.00444654 -0.0125881 0.00595414 ) 0 
( -0.00870773 -0.00666037 0.0035331 ) 0 
( -0.000677775 -0.0119423 0.00168424 ) 0 
( -0.00762687 -0.00499332 0.00435684 ) 0 
( -0.00559269 -0.00220449 0.00736569 ) 0 
( -0.00726493 -0.0111873 0.00367409 ) 0 
( -0.0121917 -0.00267404 0.00221904 ) 0 
( -0.00683301 -0.0109724 0.00227206 ) 0 
( -0.00333828 -0.00654842 0.00280843 ) 0 
( -0.00533085 -0.0015569 0.00331471 ) 0 
( -0.0055607 -0.00289649 0.00197016 ) 0 
( -0.0117364 -0.00636281 0.00221031 ) 0 
( -0.0025726 -0.00496512 0.000499809 ) 0 
( -0.00288964 -0.00336457 0.00209335 ) 0 
( -0.00216919 -0.0123052 0.005339 ) 0 
( -0.00821259 -0.00156108 0.00353213 ) 0 
( -0.0125438 -0.00455 0.00214683 ) 0 
( -0.00301888 -0.00623073 0.00404751 ) 0 
( -0.00491754 -0.0012401 0.00510994 ) 0 
( -0.00485784 -0.00864251 0.00652417 ) 0 
( -0.00852928 -0.00300876 0.00259618 ) 0 
( -0.01037 -0.00483727 0.00327087 ) 0 
( -0.000117424 -0.00322282 0.00318789 ) 0 
( -0.00953071 -0.00267608 0.000499802 ) 0 
( -0.00426589 -0.00515582 0.00699454 ) 0 
( -0.00451588 -0.00952516 0.00194301 ) 0 
( -0.00190115 -0.000388084 0.0073655 ) 0 
( -0.00141494 -0.00937648 0.00678868 ) 0 
( -0.012429 -0.0017028 0.000499486 ) 0 
( -0.00465806 -0.0105087 0.00461396 ) 0 
( -0.00290581 -0.0130292 0.00291791 ) 0 
( -0.000252709 -0.00199671 0.00814696 ) 0 
( -0.00478227 -0.00164746 0.0075431 ) 0 
( -0.00494936 -0.00578437 0.00767922 ) 0 
( -0.00384886 -0.00265832 0.00718807 ) 0 
( -0.0105536 -0.00475064 0.0066732 ) 0 
( -0.0112066 -0.00556541 0.00183475 ) 0 
( -0.00262091 -0.00423587 0.00439388 ) 0 
( -0.00281381 -0.0130504 0.00685714 ) 0 
( -0.00974001 -0.00666661 0.00352647 ) 0 
( -0.00751708 -0.00512107 0.00605648 ) 0 
( -0.00203948 -0.00353931 0.00397195 ) 0 
( -0.0067118 -0.00583461 0.00592972 ) 0 
( -0.00667304 -0.00656113 0.00662807 ) 0 
( -0.00150927 -0.00175688 0.00527513 ) 0 
( -0.0094012 -0.00552314 0.00114309 ) 0 
( -0.00704281 -0.0104841 0.00128405 ) 0 
( -0.00991722 -0.000836497 0.00298492 ) 0 
( -0.00948789 -0.00496839 0.0052939 ) 0 
( -0.00246448 -0.0113812 0.00697988 ) 0 
( -0.0101369 -0.0025173 0.00376837 ) 0 
( -0.0040419 -0.00359627 0.000499586 ) 0 
( -0.0021799 -0.00894164 0.00631411 ) 0 
( -0.00132393 -0.0114369 0.00350111 ) 0 
( -0.00900835 -0.00741845 0.00114332 ) 0 
( -0.0043764 -0.00605753 0.00289307 ) 0 
( -0.0104244 -0.00516225 0.0023095 ) 0 
( -0.00695798 -0.00838284 0.00121169 ) 0 
( -0.00543851 -0.00662062 0.00732337 ) 0 
( -0.0107811 -0.00787352 0.00663906 ) 0 
( -0.0119694 -0.00266952 0.0065848 ) 0 
( -0.00341297 -0.00931464 0.00542771 ) 0 
( -0.0019597 -0.0132055 0.00318911 ) 0 
( -0.00939628 -0.00156752 0.0024174 ) 0 
( -0.00611194 -0.00724082 0.00467263 ) 0 
( -0.00542443 -0.00672245 0.00399386 ) 0 
( -0.00266752 -0.0121833 0.00241138 ) 0 
( -0.000967998 -0.00510821 0.000499589 ) 0 
( -0.00959962 -0.000659533 0.0020523 ) 0 
( -0.00225238 -0.00609122 0.00049945 ) 0 
( -0.00749617 -0.0045013 0.00527252 ) 0 
( -0.00395587 -0.00661925 0.0036054 ) 0 
( -0.0109637 -0.00588547 0.00356074 ) 0 
( -0.0104098 -0.00319325 0.00549961 ) 0 
( -0.00817503 -0.00263013 0.00517349 ) 0 
( -0.0132701 -0.00146005 0.00192662 ) 0 
( -0.00473468 -0.00619045 0.00675878 ) 0 
( -0.00964524 -0.000924519 0.00615841 ) 0 
( -0.00177849 -0.000335809 0.000499734 ) 0 
( -0.00958024 -0.00327906 0.00410571 ) 0 
( -0.000669979 -0.00476718 0.00758935 ) 0 
( -0.00896658 -0.00287972 0.00136366 ) 0 
( -0.00125892 -0.00882699 0.00593009 ) 0 
( -0.00140063 -0.00259282 0.00127123 ) 0 
( -0.00769389 -0.000978404 0.000499802 ) 0 
( -0.00188153 -0.00405925 0.00313254 ) 0 
( -0.0046719 -0.0124988 0.00369641 ) 0 
( -0.00273733 -0.00502796 0.00206123 ) 0 
( -0.0098445 -0.00340441 0.00232445 ) 0 
( -0.0054143 -0.000677177 0.00284706 ) 0 
( -0.00316616 -0.000711537 0.0055312 ) 0 
( -0.00491806 -0.000124372 0.00351875 ) 0 
( -0.0062918 -0.00347755 0.00678839 ) 0 
( -0.00112126 -0.0115616 0.000499737 ) 0 
( -0.00442657 -0.0108477 0.00589267 ) 0 
( -0.00515108 -0.00728465 0.00495019 ) 0 
( -0.00107921 -0.00210454 0.00735516 ) 0 
( -0.00969608 -0.00148155 0.00532963 ) 0 
( -0.0113818 -0.00201188 0.0061135 ) 0 
( -0.00380174 -0.012797 0.00329796 ) 0 
( -0.0047373 -0.00601491 0.00382885 ) 0 
( -0.00321303 -0.0103849 0.00127 ) 0 
( -0.00362114 -0.0128486 0.0042821 ) 0 
( -0.00467642 -0.00599048 0.00192787 ) 0 
( -0.0103664 -0.00527969 0.00750036 ) 0 
( -0.00570872 -0.00752886 0.00284471 ) 0 
( -0.00492036 -0.0117086 0.00602113 ) 0 
( -0.00577851 -0.0108839 0.000499651 ) 0 
( -0.0112843 -0.00268227 0.003989 ) 0 
( -0.0103462 -0.00674327 0.00517207 ) 0 
( -0.00934104 -0.00810723 0.000499507 ) 0 
( -0.00199866 -0.00635065 0.00805313 ) 0 
( -0.00298571 -0.00206067 0.0070927 ) 0 
( -0.010361 -0.00382626 0.00157967 ) 0 
( -0.00622634 -0.00554889 0.00506753 ) 0 
( -0.0100585 -0.00114412 0.0012214 ) 0 
( -0.00320295 -0.001076 0.0034434 ) 0 
( -0.00555607 -0.0111489 0.00314449 ) 0 
( -0.00695285 -0.00220822 0.00341376 ) 0 
( -0.0115167 -0.00459245 0.0049735 ) 0 
( -0.0133161 -0.00095414 0.00447038 ) 0 
( -0.00173478 -0.0103508 0.00358703 ) 0 
( -0.00621488 -0.00393451 0.00331691 ) 0 
( -0.0109688 -0.00434491 0.00417457 ) 0 
( -0.00800723 -0.00786815 0.00703903 ) 0 
( -0.00320837 -0.00874873 0.000499757 ) 0 
( -0.00785807 -0.00453962 0.00131479 ) 0 
( -0.00669187 -0.0114549 0.00575149 ) 0 
( -0.00605688 -0.00288835 0.000499801 ) 0 
( -3.90864e-05 -0.00636189 0.00294961 ) 0 
( -0.00102211 -0.00580872 0.00591191 ) 0 
( -0.00468299 -0.0116338 0.00309488 ) 0 
( -0.00390423 -0.00166757 0.00706572 ) 0 
( -0.00896393 -0.00914715 0.00463775 ) 0 
( -0.0127455 -0.00397194 0.00135648 ) 0 
( -0.00993494 -0.00891707 0.00457445 ) 0 
( -0.000914877 -0.00130825 0.00844096 ) 0 
( -0.00183511 -0.00478283 0.00410544 ) 0 
( -0.000384782 -0.00254637 0.00550943 ) 0 
( -0.00760505 -0.0109723 0.00469236 ) 0 
( -0.00477404 -0.0110211 0.00117058 ) 0 
( -0.00294101 -0.00300643 0.00742509 ) 0 
( -0.00538574 -0.00772032 0.00404291 ) 0 
( -0.00711914 -0.00144908 0.00514144 ) 0 
( -0.0110305 -0.00564439 0.00612912 ) 0 
( -0.0066835 -0.00616677 0.00184276 ) 0 
( -0.00713719 -0.00795299 0.00410348 ) 0 
( -0.000268507 -0.0133474 0.00689692 ) 0 
( -0.00922945 -0.00964502 0.00653962 ) 0 
( -0.005262 -0.0103457 0.00643348 ) 0 
( -0.00370717 -0.0128251 0.00527807 ) 0 
( -0.00295839 -0.00274155 0.00543035 ) 0 
( -0.0107589 -0.000969291 0.00584443 ) 0 
( -0.00879133 -0.00341157 0.00484035 ) 0 
( -0.00268592 -0.00247734 0.00250695 ) 0 
( -0.0113596 -0.00486117 0.00341238 ) 0 
( -0.0114459 -0.00208726 0.000499685 ) 0 
( -0.00588093 -0.011985 0.0059989 ) 0 
( -0.00541233 -0.0112596 0.00192819 ) 0 
( -8.6114e-05 -0.00886548 0.000499654 ) 0 
( -0.0125197 -0.00116346 0.00133623 ) 0 
( -0.0115693 -0.00666173 0.00314958 ) 0 
( -0.00666127 -0.00777648 0.00249942 ) 0 
( -0.00434736 -0.00410323 0.00216592 ) 0 
( -0.0121368 -0.00556072 0.00382343 ) 0 
( -0.00251198 -0.00419203 0.00124954 ) 0 
( -0.00340004 -0.00492145 0.00280238 ) 0 
( -0.00778615 -0.00634637 0.000499563 ) 0 
( -0.0067084 -0.0106236 0.00637592 ) 0 
( -0.00888702 -0.00257516 0.00604115 ) 0 
( -0.00874307 -0.0064644 0.00621639 ) 0 
( -0.00211882 -0.00638263 0.00534027 ) 0 
( -0.000771041 -0.0125168 0.000499562 ) 0 
( -0.00647297 -0.00818806 0.00339165 ) 0 
( -0.00388784 -0.00310105 0.0030082 ) 0 
( -0.00259754 -0.00904804 0.00389323 ) 0 
( -1.3757e-05 -0.0111156 0.000499322 ) 0 
( -0.0031065 -0.00650883 0.000808357 ) 0 
( -0.00585199 -0.0119994 0.00706326 ) 0 
( -0.0053464 -0.0122328 0.00216322 ) 0 
( -0.00218772 -0.00116673 0.00185614 ) 0 
( -0.00100113 -0.00659651 0.00308776 ) 0 
( -0.00435105 -0.0126211 0.00169825 ) 0 
( -0.0102105 -0.0086008 0.000499797 ) 0 
( -0.00435744 -0.00911332 0.00568694 ) 0 
( -0.0107939 -0.00314668 0.000988044 ) 0 
( -0.00399022 -0.00501976 0.00198635 ) 0 
( -0.00183578 -0.00168173 0.00427257 ) 0 
( -0.00856215 -0.00906047 0.00342075 ) 0 
( -0.00734068 -0.00994103 0.00049951 ) 0 
( -0.00066661 -0.00670103 0.00618939 ) 0 
( -0.00693502 -0.00272699 0.00643739 ) 0 
( -0.00500864 -0.00813827 0.00321652 ) 0 
( -0.00617868 -0.00696796 0.00216333 ) 0 
( -0.00251462 -0.000547817 0.00114236 ) 0 
( -0.00527781 -0.00545002 0.00128376 ) 0 
( -0.00959952 -0.00693342 0.000499471 ) 0 
( -0.00294559 -0.00647294 0.00750458 ) 0 
( -0.00741137 -0.00771777 0.00315806 ) 0 
( -0.00106523 -0.000837273 0.00671577 ) 0 
( -0.000159985 -0.0103644 0.00256198 ) 0 
( -0.00329234 -0.00481697 0.00124939 ) 0 
( -0.00988796 -0.00585201 0.0050519 ) 0 
( -0.0029906 -0.00129996 0.00450936 ) 0 
( -0.00389521 -0.00211112 0.00222124 ) 0 
( -0.00566484 -0.000679202 0.00388558 ) 0 
( -0.00757316 -0.00893719 0.0061566 ) 0 
( -0.00769144 -0.00605007 0.00638125 ) 0 
( -0.0015188 -0.00787438 0.00608714 ) 0 
( -0.00748134 -0.0100428 0.00701597 ) 0 
( -0.00642357 -0.00632103 0.00443416 ) 0 
( -0.000657328 -0.012575 0.00245827 ) 0 
( -0.000188802 -0.00399162 0.00180871 ) 0 
( -0.000254743 -0.00236877 0.00368974 ) 0 
( -0.00905781 -0.00383713 0.00278168 ) 0 
( -0.00991894 -8.55618e-05 0.00568919 ) 0 
( -0.0106448 -0.0040728 0.00508244 ) 0 
( -0.0102907 -0.000923431 0.00390898 ) 0 
( -0.0109769 -0.00582061 0.000499797 ) 0 
( -0.00355987 -0.00229138 0.00630419 ) 0 
( -0.00120965 -0.0132952 0.00386815 ) 0 
( -0.00818179 -0.00525567 0.00193271 ) 0 
( -0.00544947 -0.00114955 0.00672434 ) 0 
( -0.00456478 -0.0125456 0.00270254 ) 0 
( -0.0129716 -0.00281752 0.00640158 ) 0 
( -0.00323429 -0.00300511 0.000499794 ) 0 
( -0.00517113 -0.00681943 0.00218851 ) 0 
( -0.000283871 -0.00886986 0.006147 ) 0 
( -0.00473848 -0.0108109 0.00252984 ) 0 
( -0.0101374 -0.00378931 0.00319953 ) 0 
( -0.00464087 -0.00852653 0.00145862 ) 0 
( -0.00209624 -0.0123843 0.0070596 ) 0 
( -0.00260616 -0.00934123 0.00246467 ) 0 
( -0.0117862 -0.0011018 0.00285105 ) 0 
( -0.00304785 -0.0122389 0.000499313 ) 0 
( -0.00420763 -0.0091505 0.00718116 ) 0 
( -0.00431369 -0.00171996 0.0014008 ) 0 
( -0.00808453 -0.00142264 0.00657387 ) 0 
( -0.00590145 -0.00533069 0.00358165 ) 0 
( -0.00198738 -0.0132015 0.00161289 ) 0 
( -0.00274323 -0.0104493 0.00404266 ) 0 
( -0.00478773 -0.00189701 0.00657519 ) 0 
( -0.00885919 -0.00998687 0.000499734 ) 0 
( -0.0123901 -0.00497096 0.00527894 ) 0 
( -0.00155429 -0.00923384 0.00506591 ) 0 
( -0.00555588 -0.00748317 0.00154726 ) 0 
( -0.0113452 -0.00703656 0.00480746 ) 0 
( -0.011836 -0.00378708 0.0054839 ) 0 
( -0.00322221 -0.0112553 0.000499868 ) 0 
( -0.00756805 -0.0099308 0.00215962 ) 0 
( -0.00299333 -0.00974535 0.00329575 ) 0 
( -0.00773247 -0.00669682 0.00324724 ) 0 
( -0.0100513 -0.00734568 0.00436604 ) 0 
( -0.00248844 -0.00599186 0.00216474 ) 0 
( -0.0101519 -0.00866965 0.00295553 ) 0 
( -0.00859533 -0.00939935 0.00580347 ) 0 
( -0.0106117 -0.000970392 0.00203603 ) 0 
( -0.00579657 -0.00833802 0.00636301 ) 0 
( -0.0115156 -0.00481993 0.00242554 ) 0 
( -0.00652205 -0.00748636 0.00129022 ) 0 
( -0.00767624 -0.00349588 0.00681302 ) 0 
( -0.00799529 -0.00259009 0.00333284 ) 0 
( -0.00259801 -0.00597006 0.00315867 ) 0 
( -0.00163834 -0.00584231 0.00340848 ) 0 
( -0.00974794 -0.00440026 0.00232779 ) 0 
( -0.00823638 -0.00737673 0.00270751 ) 0 
( -0.00302582 -0.00948337 0.0063463 ) 0 
( -0.00319673 -0.00964389 0.00442764 ) 0 
( -0.00125408 -0.0019742 0.000499651 ) 0 
( -0.00687005 -0.00370322 0.000761311 ) 0 
( -0.00596952 -0.00232192 0.00323294 ) 0 
( -0.00165965 -0.00499465 0.00602067 ) 0 
( -0.00693233 -0.00420207 0.00401941 ) 0 
( -0.0014831 -0.00354227 0.000918084 ) 0 
( -0.00280676 -0.0130516 0.00490709 ) 0 
( -0.00136271 -0.0132803 0.00238961 ) 0 
( -0.00108438 -0.00881169 0.000499375 ) 0 
( -0.0106049 -0.00641784 0.0015404 ) 0 
( -0.00619138 -0.00181718 0.00666567 ) 0 
( -0.012165 -0.00303735 0.00486807 ) 0 
( -0.0113716 -0.00294002 0.00574221 ) 0 
( -0.0106815 -0.000164848 0.0045122 ) 0 
( -0.000836792 -0.00220474 0.00468564 ) 0 
( -0.000551326 -0.0108116 0.00338892 ) 0 
( -0.00942165 -0.00330097 0.00560869 ) 0 
( -0.00488001 -0.0113626 0.00508401 ) 0 
( -0.00681007 -0.00906908 0.000499669 ) 0 
( -0.000795975 -0.00294875 0.000499768 ) 0 
( -0.00619978 -0.00726953 0.00367715 ) 0 
( -0.011543 -0.00632098 0.00547693 ) 0 
( -9.02331e-05 -0.00558714 0.000499642 ) 0 
( -0.000200556 -0.00752191 0.0018243 ) 0 
( -0.0018501 -0.00777989 0.00288903 ) 0 
( -0.00327336 -0.00507906 0.00524804 ) 0 
( -0.00277229 -0.00524762 0.00610026 ) 0 
( -0.000696288 -0.00586464 0.00378622 ) 0 
( -0.00638477 -0.00328094 0.00581271 ) 0 
( -0.00602476 -0.0100899 0.00583968 ) 0 
( -0.00220777 -0.011458 0.000499749 ) 0 
( -0.00180717 -0.00740592 0.00381537 ) 0 
( -0.00572557 -0.00938217 0.00212475 ) 0 
( -0.00898987 -0.00623061 0.00527605 ) 0 
( -0.00858304 -0.0019014 0.0072962 ) 0 
( -0.000692686 -0.0100847 0.00630493 ) 0 
( -0.00775013 -0.00282244 0.00427552 ) 0 
( -0.00474731 -0.0112542 0.0068946 ) 0 
( -0.00754365 -0.00732895 0.00479024 ) 0 
( -0.00419475 -0.0116733 0.00436942 ) 0 
( -0.00934653 -0.00148533 0.00355081 ) 0 
( -0.00206441 -0.00130241 0.000499691 ) 0 
( -0.00921931 -0.00746824 0.00382519 ) 0 
( -0.0114224 -0.0020711 0.00243002 ) 0 
( -0.00604474 -0.00984031 0.00680764 ) 0 
( -0.012301 -0.00167305 0.00631376 ) 0 
( -0.00402777 -0.00822386 0.000729307 ) 0 
( -0.0046269 -0.00544161 0.00610536 ) 0 
( -0.00554376 -0.00580924 0.00438309 ) 0 
( -0.0082784 -0.00674746 0.00127186 ) 0 
( -0.00292141 -0.0130155 0.00191823 ) 0 
( -0.00766225 -0.000682002 0.00222545 ) 0 
( -0.00733899 -0.00338572 0.00355055 ) 0 
( -0.0114792 -0.00108169 0.0047265 ) 0 
( -0.00528072 -0.00114955 0.00197054 ) 0 
( -0.00389082 -0.00308801 0.00200827 ) 0 
( -0.00168168 -0.00822147 0.00740982 ) 0 
( -0.00467907 -0.00561143 0.000499577 ) 0 
( -0.0108951 -3.88999e-05 0.00548053 ) 0 
( -0.000251907 -0.00430086 0.0056545 ) 0 
( -0.00237283 -0.00486862 0.00693486 ) 0 
( -0.00309011 -0.006051 0.00508023 ) 0 
( -0.00235969 -0.00927746 0.000499774 ) 0 
( -0.00477439 -0.00380615 0.00563851 ) 0 
( -0.00862585 -0.000440759 0.00211176 ) 0 
( -0.00488297 -0.00642675 0.00105214 ) 0 
( -0.00593687 -0.0101021 0.00484372 ) 0 
( -0.00228785 -0.0103189 0.00275405 ) 0 
( -0.0104899 -0.00107582 0.00487694 ) 0 
( -0.0076602 -0.00904019 0.00260414 ) 0 
( -0.0100257 -0.00764277 0.00106073 ) 0 
( -0.0013549 -0.0032085 0.00332234 ) 0 
( -0.0068012 -0.0104848 0.00534891 ) 0 
( -0.00294773 -0.00832746 0.00613319 ) 0 
( -0.00290838 -0.000597038 0.00228005 ) 0 
( -0.00141962 -0.0124592 0.00125805 ) 0 
( -0.00328569 -0.00143831 0.0078497 ) 0 
( -0.0065671 -0.006069 0.00347468 ) 0 
( -0.00153238 -0.0039502 0.00472931 ) 0 
( -0.0103848 -0.00254767 0.00473659 ) 0 
( -0.00377254 -0.00742855 0.00304737 ) 0 
( -0.00823209 -0.0105102 0.0037868 ) 0 
( -0.00231016 -0.000880009 0.00390926 ) 0 
( -0.00214893 -0.00329284 0.00798718 ) 0 
( -0.000100937 -0.00341539 0.00417043 ) 0 
( -0.0104724 -0.00233564 0.00049972 ) 0 
( -0.00405986 -0.00348227 0.00439108 ) 0 
( -0.00182654 -0.00147604 0.00660539 ) 0 
( -0.00100307 -0.00730665 0.00459984 ) 0 
( -0.00569696 -0.00374802 0.00525764 ) 0 
( -0.000397329 -0.00339155 0.00604353 ) 0 
( -0.00371743 -0.00676552 0.00569989 ) 0 
( -0.011837 -1.63503e-06 0.00581218 ) 0 
( -0.00679579 -0.00889133 0.00415771 ) 0 
( -0.0124929 -0.00470634 0.00420682 ) 0 
( -0.00238495 -0.0122676 0.00143445 ) 0 
( -0.00223783 -0.00336465 0.00512747 ) 0 
( -0.00130592 -0.00661268 0.00142924 ) 0 
( -0.0125493 -0.00455475 0.000499893 ) 0 
( -0.00128242 -0.00821005 0.00512234 ) 0 
( -0.00996072 -0.002782 0.00140293 ) 0 
( -0.00316985 -0.0102542 0.00228758 ) 0 
( -0.00384423 -0.00193921 0.00320716 ) 0 
( -0.00656507 -0.0116242 0.00307167 ) 0 
( -0.0113635 -0.00489521 0.000499682 ) 0 
( -0.000460908 -0.00834261 0.00233379 ) 0 
( -0.00419421 -0.00566376 0.00522644 ) 0 
( -0.00855692 -0.00748031 0.00629932 ) 0 
( -0.000686894 -0.00889423 0.00470239 ) 0 
( -0.00699852 -0.00414914 0.0064331 ) 0 
( -0.00435257 -0.00987247 0.00633772 ) 0 
( -0.00757126 -2.26461e-05 0.00633816 ) 0 
( -0.00824717 -0.00938924 0.00674074 ) 0 
( -0.0115395 -0.00401922 0.00182714 ) 0 
( -0.00179491 -0.00712786 0.00213296 ) 0 
( -0.00981836 -0.00239042 0.00572817 ) 0 
( -0.00803363 -0.00832012 0.00435182 ) 0 
( -0.00162659 -0.00926939 0.00378205 ) 0 
( -0.0104431 -0.00380775 0.00698624 ) 0 
( -0.00398748 -0.0110881 0.00356191 ) 0 
( -0.000683247 -0.000842865 0.00310413 ) 0 
( -0.00586319 -0.00656619 0.00129321 ) 0 
( -0.00613093 -0.00461885 0.00445622 ) 0 
( -0.00953279 -0.0044487 0.00651837 ) 0 
( -0.0075629 -0.00811671 0.00223442 ) 0 
( -0.00514891 -0.0116605 0.000499618 ) 0 
( -0.00382059 -0.00485279 0.00605354 ) 0 
( -0.00703092 -0.000773912 0.0013879 ) 0 
( -0.00837788 -0.0103943 0.00577523 ) 0 
( -0.00643062 -0.00173187 0.00763681 ) 0 
( -0.00270852 -0.0113247 0.00135484 ) 0 
( -0.00518023 -0.00801591 0.000789266 ) 0 
( -0.00355983 -0.0114477 0.00720463 ) 0 
( -0.000334105 -0.00838782 0.00134261 ) 0 
( -0.0117334 -0.00113348 0.00569217 ) 0 
( -0.00326637 -0.000554478 0.00738283 ) 0 
( -0.0107153 -0.00422705 0.00251085 ) 0 
( -0.0108659 -0.00566526 0.0051432 ) 0 
( -0.00738885 -0.00701984 0.00212595 ) 0 
( -0.0133489 -0.000206842 0.000559415 ) 0 
( -0.00725644 -0.000332733 0.00396442 ) 0 
( -0.00885709 -0.00539451 0.00464574 ) 0 
( -0.00499137 -0.00492873 0.00209186 ) 0 
( -0.00498256 -0.0087815 0.0024206 ) 0 
( -0.00718513 -0.0018109 0.00677163 ) 0 
( -0.0128892 -0.00347741 0.000499651 ) 0 
( -0.00681545 -0.000836033 0.00785644 ) 0 
( -0.00137829 -0.0123938 0.00313465 ) 0 
( -0.00812163 -0.00736315 0.000499766 ) 0 
( -0.00332014 -0.00169928 0.00553524 ) 0 
( -0.000569232 -0.00663595 0.00210505 ) 0 
( -0.0114966 -0.00499668 0.00689643 ) 0 
( -0.00921732 -0.000565556 0.00392047 ) 0 
( -0.00277117 -0.00033957 0.00467967 ) 0 
( -0.0123978 -0.00067859 0.00628778 ) 0 
( -0.00340587 -0.00864857 0.0034614 ) 0 
( -0.00218204 -0.000189896 0.00558071 ) 0 
( -0.007046 -0.00412939 0.00172882 ) 0 
( -0.00789695 -0.00863743 0.00144286 ) 0 
( -0.00223071 -0.000463865 0.00300335 ) 0 
( -0.000246217 -0.00911993 0.00383392 ) 0 
( -0.00759274 -0.000905412 0.00587024 ) 0 
( -0.0044901 -0.0125722 0.00469358 ) 0 
( -0.00640671 -0.0107137 0.00345352 ) 0 
( -0.000434919 -0.00600889 0.0013379 ) 0 
( -0.00604771 -0.00417441 0.00611319 ) 0 
( -0.00415712 -0.00804693 0.00373255 ) 0 
( -0.00208426 -0.00760969 0.00130608 ) 0 
( -0.00770381 -0.00259366 0.00724283 ) 0 
( -0.00718221 -0.00647636 0.00528838 ) 0 
( -0.000561505 -0.00122205 0.00218605 ) 0 
( -0.00926543 -0.0083582 0.00330703 ) 0 
( -0.00271651 -0.0130714 0.000941309 ) 0 
( -0.012176 -0.00547564 0.0020607 ) 0 
( -0.00228542 -0.00415066 0.00222244 ) 0 
( -0.00336264 -0.00424513 0.00206655 ) 0 
( -0.00459975 -0.00152265 0.00261774 ) 0 
( -0.00765602 -0.00461825 0.00339522 ) 0 
( -0.00553417 -0.00320218 0.00737947 ) 0 
( -0.00642604 -0.000288083 0.00550992 ) 0 
( -0.00717867 -0.00673918 0.00118948 ) 0 
( -0.00390195 -0.00158531 0.000499719 ) 0 
( -0.00269234 -0.00199896 0.00385942 ) 0 
( -0.00653584 -0.00268487 0.00735312 ) 0 
( -0.00343348 -0.00361572 0.00129278 ) 0 
( -0.0031511 -0.00882564 0.00708876 ) 0 
( -0.00239095 -0.00354244 0.000499494 ) 0 
( -0.00525743 -0.00524126 0.00689847 ) 0 
( -0.00695416 -0.00138597 0.00217464 ) 0 
( -0.00455575 -0.00474071 0.00535783 ) 0 
( -0.0132119 -0.00191668 0.00471971 ) 0 
( -0.00457559 -0.000184764 0.00258021 ) 0 
( -0.0108791 -0.00180935 0.00137983 ) 0 
( -0.00393919 -0.00775667 0.00211761 ) 0 
( -0.0030312 -0.00704792 0.00503028 ) 0 
( -0.000944355 -0.00450853 0.00140664 ) 0 
( -0.0121735 -0.00548113 0.000499401 ) 0 
( -0.00702517 -0.00742599 0.00624525 ) 0 
( -0.00415346 -0.00397791 0.00640322 ) 0 
( -0.00560686 -0.00601486 0.000499443 ) 0 
( -0.00675248 -0.00837216 0.00607176 ) 0 
( -0.00135155 -0.000181845 0.00344494 ) 0 
( -0.00580166 -0.00769788 0.00558719 ) 0 
( -0.00598799 -0.000444662 0.00723934 ) 0 
( -0.00575663 -0.00646485 0.00291742 ) 0 
( -0.0123966 -0.00495534 0.00304891 ) 0 
( -0.0101999 -0.00861313 0.0015109 ) 0 
( -0.00376563 -0.00560544 0.00432498 ) 0 
( -0.00380084 -0.00653592 0.00666941 ) 0 
( -0.00404853 -0.00856133 0.00270063 ) 0 
( -0.0120442 -0.00359518 0.00257915 ) 0 
( -0.0019671 -0.00592564 0.00621651 ) 0 
( -0.00788054 -0.000500365 0.00318417 ) 0 
( -0.000885392 -0.00984154 0.00343195 ) 0 
( -0.00463036 -0.00258595 0.00350465 ) 0 
( -0.0101374 -0.00570767 0.00409469 ) 0 
( -0.00802887 -0.0106661 0.000499728 ) 0 
( -0.0100278 -0.00668839 0.00253484 ) 0 
( -0.00242054 -0.00947495 0.00550329 ) 0 
( -0.000449708 -0.00526761 0.00673565 ) 0 
( -0.00785272 -0.00907042 0.00518613 ) 0 
( -0.00198749 -0.00675305 0.00304008 ) 0 
( -0.00372547 -0.00768362 0.00609488 ) 0 
( -0.00114023 -0.00657313 0.00526535 ) 0 
( -0.00843923 -0.00503329 0.0056798 ) 0 
( -0.00255363 -0.00140221 0.00275646 ) 0 
( -0.000805501 -0.00283561 0.00257424 ) 0 
( -0.00929221 -0.00254779 0.00489286 ) 0 
( -0.00295205 -0.000142585 0.00369969 ) 0 
( -0.00458047 -0.00726861 0.00149842 ) 0 
( -0.00506501 -0.00301562 0.000499797 ) 0 
( -0.00374256 -0.012815 0.000929016 ) 0 
( -0.0131109 -0.00151864 0.00291191 ) 0 
( -0.00705516 -0.00382957 0.00268272 ) 0 
( -0.00882779 -0.00214529 0.00300267 ) 0 
( -0.0109086 -0.00463048 0.00134966 ) 0 
( -0.00363038 -0.0110157 0.00517104 ) 0 
( -0.00675937 -0.00907774 0.00303634 ) 0 
( -0.00284654 -0.00520957 0.00435325 ) 0 
( -0.00989025 -0.00755009 0.00204682 ) 0 
( -5.229e-05 -0.000151384 0.00482975 ) 0 
( -0.00782266 -0.00692307 0.00591269 ) 0 
( -0.00706349 -0.0111037 0.000499636 ) 0 
( -0.00839943 -0.0103768 0.00677429 ) 0 
( -0.0122156 -0.00241289 0.00564702 ) 0 
( -0.00781743 -0.00277573 0.00118388 ) 0 
( -0.00070052 -0.0124346 0.00386919 ) 0 
( -0.00985731 -0.00631986 0.00593472 ) 0 
( -0.00361093 -0.00856578 0.00163074 ) 0 
( -0.00475888 -0.000409339 0.00448966 ) 0 
( -0.000550453 -0.00111623 0.00482251 ) 0 
( -0.00119802 -0.00341194 0.00827147 ) 0 
( -0.007849 -0.00549467 0.00101922 ) 0 
( -0.00520424 -0.00339123 0.00335588 ) 0 
( -0.00782679 -0.00186427 0.00571368 ) 0 
( -0.00475343 -0.00887227 0.00049965 ) 0 
( -0.001646 -0.00686687 0.00607625 ) 0 
( -0.00448473 -0.00422458 0.00387306 ) 0 
( -0.00405042 -0.00135724 0.00612675 ) 0 
( -0.00894978 -0.00990595 0.00746345 ) 0 
( -0.0070013 -0.00569936 0.00701391 ) 0 
( -0.00686369 -0.00315383 0.00463473 ) 0 
( -0.00739778 -0.00184028 0.00426442 ) 0 
( -0.00460052 -0.00459367 0.00123469 ) 0 
( -0.000726738 -0.0133305 0.00600883 ) 0 
( -0.00853134 -0.00262847 0.000499559 ) 0 
( -0.000516629 -0.00764921 0.00651158 ) 0 
( -0.0013737 -0.00654221 0.00407177 ) 0 
( -0.00689299 -0.00314641 0.00182737 ) 0 
( -0.00990631 -0.00174941 0.00436781 ) 0 
( -0.00277618 -0.00879724 0.00485613 ) 0 
( -0.00701998 -0.00570374 0.0004998 ) 0 
( -1.09663e-05 -0.00157648 0.00300647 ) 0 
( -0.0056672 -0.00595148 0.00205705 ) 0 
( -0.00797747 -0.00397267 0.00408721 ) 0 
( -0.00968373 -0.000485231 0.00480332 ) 0 
( -0.0087977 -0.00633584 0.000499799 ) 0 
( -0.00966028 -0.00673862 0.00147807 ) 0 
( -0.00130161 -0.0048632 0.00326345 ) 0 
( -0.00154905 -0.00127411 0.00766617 ) 0 
( -0.00573849 -0.00269403 0.00650617 ) 0 
( -0.0131771 -0.0021433 0.00569267 ) 0 
( -0.00434051 -0.00514824 0.00351819 ) 0 
( -0.00718547 -0.00254391 0.00535849 ) 0 
( -0.00674345 -0.00889358 0.00204842 ) 0 
( -0.00134483 -0.00165222 0.00162473 ) 0 
( -0.00587592 -0.00918788 0.00441567 ) 0 
( -0.0113967 -0.00288125 0.00301549 ) 0 
( -0.00775093 -0.00200309 0.000499631 ) 0 
( -0.000587412 -0.00305569 0.00162353 ) 0 
( -0.00546267 -0.00444507 0.00373321 ) 0 
( -0.00205517 -0.000981683 0.00495667 ) 0 
( -0.000920315 -0.00919516 0.0014078 ) 0 
( -0.00541819 -0.00199414 0.00139332 ) 0 
( -0.00568716 -0.00645931 0.00512901 ) 0 
( -0.00186365 -0.0132192 0.00462058 ) 0 
( -0.00999444 -0.00600711 0.000499801 ) 0 
( -0.0117053 -0.00641757 0.00410959 ) 0 
( -0.00179646 -0.00928651 0.00188077 ) 0 
( -0.00179354 -0.0132295 0.00662036 ) 0 
( -0.0119957 -0.00487506 0.00127441 ) 0 
( -0.00888091 -0.0069715 0.00205911 ) 0 
( -0.0016931 -0.0122347 0.00219324 ) 0 
( -0.00272336 -0.0130695 0.00390109 ) 0 
( -0.00171009 -0.00246689 0.00666954 ) 0 
( -0.000244439 -0.00292339 0.00777237 ) 0 
( -0.0128859 -0.0034897 0.00312052 ) 0 
( -0.000565023 -0.013338 0.00309815 ) 0 
( -0.00266253 -0.002865 0.00436792 ) 0 
( -0.00794557 -0.00422008 0.00612029 ) 0 
( -0.00452676 -0.00722264 0.00416202 ) 0 
( -0.00349766 -0.00826602 0.00530037 ) 0 
( -0.0111757 -0.00324303 0.00480976 ) 0 
( -0.0103161 -0.00483895 0.000499458 ) 0 
( -0.00573043 -0.000970636 0.00573269 ) 0 
( -0.00818378 -0.00683046 0.00697676 ) 0 
( -0.0119936 -0.00586359 0.00692961 ) 0 
( -0.00307758 -0.0118977 0.00524729 ) 0 
( -0.00672708 -0.00936465 0.00579708 ) 0 
( -0.00344607 -0.00265184 0.00378461 ) 0 
( -0.00898213 -0.000927989 0.00130244 ) 0 
( -0.00393891 -0.00217583 0.00806445 ) 0 
( -0.0021044 -0.00334269 0.00698984 ) 0 
( -0.0051023 -0.0102051 0.00545663 ) 0 
( -0.00222652 -0.00821077 0.00545091 ) 0 
( -0.00859591 -0.00322442 0.00384829 ) 0 
( -0.0064386 -0.00222555 0.00234445 ) 0 
( -0.0103102 -0.00494793 0.00472143 ) 0 
( -0.00316672 -0.00570522 0.00690333 ) 0 
( -0.000704551 -0.000430408 0.00553406 ) 0 
( -0.00780827 -0.0035382 0.00497132 ) 0 
( -0.00579211 -0.00542115 0.00607297 ) 0 
( -0.0100974 -0.00873318 0.00622013 ) 0 
( -0.00883726 -0.000805723 0.00301872 ) 0 
( -0.0129236 -0.00334751 0.00211684 ) 0 
( -0.0122249 -0.00311887 0.00132385 ) 0 
( -0.00631221 -0.0117635 0.000499758 ) 0 
( -0.00116573 -0.00104284 0.000852381 ) 0 
( -0.00149422 -0.0132662 0.000499693 ) 0 
( -0.00228642 -0.00304752 0.0013617 ) 0 
( -0.00808581 -0.00117367 0.0050387 ) 0 
( -0.00542467 -0.00930223 0.00602867 ) 0 
( -0.00591883 -0.00843447 0.00237832 ) 0 
( -0.00618467 -0.0039997 0.0022194 ) 0 
( -0.00476359 -0.00262948 0.00772798 ) 0 
( -0.00811328 -0.00948045 0.000935008 ) 0 
( -0.00282599 -0.0111091 0.00605136 ) 0 
( -0.00300283 -0.00427841 0.00601455 ) 0 
( -0.00541469 -0.0120416 0.00420809 ) 0 
( -0.00793444 -0.00117802 0.00753166 ) 0 
( -0.00345273 -0.000304346 0.00643282 ) 0 
( -0.00058062 -0.00805701 0.00765382 ) 0 
( -0.0124788 -0.000636492 0.00524816 ) 0 
( -0.00379103 -0.00656955 0.00459036 ) 0 
( -0.0035848 -0.00582248 0.0060029 ) 0 
( -0.0055373 -0.0121475 0.00319141 ) 0 
( -0.00840043 -0.00340371 0.00576534 ) 0 
( -0.0056489 -0.00495268 0.000499775 ) 0 
( -0.00948377 -0.00844158 0.0022468 ) 0 
( -0.00230464 -0.00663626 0.00139163 ) 0 
( -0.00546005 -0.00420131 0.00156079 ) 0 
( -0.009379 -0.00168369 0.000499667 ) 0 
( -0.00740239 -0.00497184 0.00249517 ) 0 
( -0.0112742 -0.00529788 0.00430777 ) 0 
( -0.00839457 -0.00432236 0.000499624 ) 0 
( -0.000545417 -0.0012653 0.00745476 ) 0 
( -0.00391611 -0.00408507 0.00747978 ) 0 
( -0.000111062 -0.00620893 0.00685881 ) 0 
( -0.000962532 -0.0126277 0.00689298 ) 0 
( -2.43909e-05 -0.0102803 0.00558106 ) 0 
( -0.00547898 -0.00268886 0.00402326 ) 0 
( -0.00997808 -0.00427925 0.00405645 ) 0 
( -0.0105939 -0.0068228 0.0004998 ) 0 
( -0.000187653 -0.0078709 0.000499477 ) 0 
( -0.0105716 -0.00815284 0.00467648 ) 0 
( -0.00665751 -0.00123329 0.00600166 ) 0 
( -0.0032173 -0.00362385 0.00386711 ) 0 
( -0.00774236 -0.00799303 0.00584056 ) 0 
( -0.00806464 -0.00934542 0.0042418 ) 0 
( -0.00575301 -0.00889273 0.000499721 ) 0 
( -0.0126957 -0.00403257 0.00503619 ) 0 
( -0.00737354 -0.0034184 0.00586337 ) 0 