FoamFile
{version 2.0; format ascii;class vectorField; location 0;object  v;}
2495
(
( -5.30033e-05 0.000207652 9.14625e-06 )  
( 0.000493152 -0.000482132 -0.000400719 )  
( -2.60682e-05 0.000383253 0.00102025 )  
( -0.000492441 0.000730562 0.000268274 )  
( 2.33637e-05 0.000184806 -2.00511e-05 )  
( 0.000228907 0.000380718 4.46536e-05 )  
( 0.00108006 0.000164955 0.000741803 )  
( -0.000350736 0.00114267 -7.21582e-05 )  
( -0.00139566 9.57723e-05 0.000847443 )  
( 0.000197477 2.53273e-05 -7.32623e-05 )  
( -0.000812425 0.000196135 0.00078146 )  
( -5.4983e-05 -2.59535e-05 0.000818799 )  
( -0.000152357 0.000806062 0.000927948 )  
( -0.000196605 6.84944e-05 0.000488037 )  
( 0.0036825 -0.000802158 0.00321726 )  
( -0.000283838 -0.000555057 0.0012548 )  
( -0.000209666 -2.44527e-05 0.00101536 )  
( -0.000705703 6.08049e-05 0.000638174 )  
( -8.85229e-05 -0.000280385 -0.00017114 )  
( -0.000210428 -0.000189988 -0.000408131 )  
( -0.000331082 0.000269985 1.4307e-05 )  
( -0.000326912 0.000548441 0.000251719 )  
( 0.000701403 -0.00109803 -0.000446109 )  
( 0.000164138 -2.18385e-05 -2.17507e-05 )  
( 8.40551e-06 0.000348656 0.000388612 )  
( -9.1307e-05 0.00043262 0.000373915 )  
( 6.13045e-05 -0.000137234 9.64506e-05 )  
( -0.000349061 0.000216457 9.73451e-05 )  
( 0.000184176 0.000124818 3.5505e-05 )  
( -0.000183706 0.00022852 -2.27804e-05 )  
( 0.00194876 -5.09117e-05 -3.65808e-07 )  
( 0.000587551 0.000755766 0.000932855 )  
( -0.000302407 -0.000357329 0.00172639 )  
( 0.000408433 -0.000263085 0.000704989 )  
( 8.38145e-05 -0.000779427 0.00234807 )  
( -0.000464374 -0.000305709 0.00169792 )  
( 0.000362044 0.000356888 9.65535e-05 )  
( 0.000686505 -0.000737303 0.000814078 )  
( -0.000491473 -0.000445502 0.00212919 )  
( -0.000243634 0.000280755 9.23745e-05 )  
( -0.00015855 0.000869108 -0.000535861 )  
( -0.000224473 -0.000320862 0.000201063 )  
( -0.000807805 -0.000414796 6.69577e-05 )  
( -0.000233128 -0.00111055 -0.00104815 )  
( -5.49396e-05 0.000742551 0.000844497 )  
( 0.00227058 -0.000230448 0.00176088 )  
( -0.00146139 0.000686148 0.00174031 )  
( 0.000313977 -0.000275203 0.00203399 )  
( 0.00205797 0.000819129 0.00191321 )  
( -0.000292952 0.000964122 -0.000527255 )  
( 7.85179e-05 -0.000925019 6.15898e-05 )  
( -0.000253492 0.00145797 0.00158841 )  
( 0.000421975 5.66478e-05 -0.00115134 )  
( 0.000537178 6.11961e-05 3.89235e-06 )  
( 0.00115752 0.000885587 0.000951678 )  
( 4.47571e-06 -6.08184e-05 1.74898e-05 )  
( -0.000402743 -0.000387069 0.000460989 )  
( 0.000819178 0.000373297 0.000308186 )  
( 0.00028021 -0.000101156 -0.000273341 )  
( 0.00103264 2.32631e-06 1.93398e-05 )  
( 0.000602399 -0.00124657 0.00114839 )  
( 0.00051424 0.000923942 -2.79038e-05 )  
( -0.000457306 0.000994982 -0.000294005 )  
( -0.000416813 -0.000261733 0.00147704 )  
( 0.000140469 0.00061422 0.00236314 )  
( -0.00143481 0.000399396 0.000118434 )  
( 0.000845282 -0.000201094 0.000174358 )  
( -0.000951552 -0.000102034 0.000609708 )  
( 0.000317841 0.000219311 0.000286456 )  
( -0.000520301 0.000756961 0.00604289 )  
( -7.70688e-05 0.000266184 0.000960265 )  
( -0.000219976 0.00096529 0.00653131 )  
( 0.000289329 -9.79175e-05 -7.9522e-05 )  
( 0.000443654 -0.000323081 -9.35958e-05 )  
( 0.000202914 -0.000252432 0.000273921 )  
( 0.000244892 -0.000126659 0.000645011 )  
( 0.000233464 -0.000116277 0.000281042 )  
( 0.000113186 -0.000234668 0.000470499 )  
( 0.000324446 5.68929e-05 -9.28872e-05 )  
( -0.00019799 0.000723605 0.000165277 )  
( 0.00030005 -0.00115938 0.00141088 )  
( -0.00083782 -0.00074823 0.0016104 )  
( -0.000379726 0.00048405 0.000217475 )  
( 0.000455674 -0.000394347 6.25253e-05 )  
( -0.00145482 -0.00274628 0.00923351 )  
( 0.000376607 -0.000368363 0.0011986 )  
( 0.000578157 -0.000223928 -0.000311796 )  
( 0.000191636 -0.00131942 0.00395179 )  
( -0.0007783 0.000515695 0.00061979 )  
( -8.47011e-05 0.000126255 6.04007e-07 )  
( -0.000119028 0.00126526 0.00148839 )  
( 0.000685148 0.000491751 0.000293356 )  
( 5.14924e-05 -0.000133678 0.00116195 )  
( 2.95828e-05 0.000892604 0.0011599 )  
( 0.000294321 0.000207384 -2.26362e-05 )  
( -0.000586841 0.000291689 0.000609736 )  
( -0.000527599 2.03066e-05 0.000314763 )  
( -8.8012e-06 0.000179739 0.00124404 )  
( 3.12404e-06 0.000176845 0.00120569 )  
( -0.000212499 0.000447793 0.000904624 )  
( -0.000396127 0.000335134 0.00127168 )  
( -0.000287165 4.32661e-05 0.000207283 )  
( 0.000102758 0.000723719 0.00070472 )  
( 0.00181696 0.00130258 0.00264712 )  
( 0.000170287 7.42545e-05 0.00128761 )  
( -0.000436708 0.00132292 0.00140126 )  
( 0.000591072 -0.000224573 0.00202628 )  
( 0.00101825 0.000468464 0.000918474 )  
( -0.000960574 -0.000218068 0.00778785 )  
( -0.00093996 0.000336486 0.000652076 )  
( 0.00014887 -0.000911493 0.00241936 )  
( -2.14589e-05 -0.000285997 0.000144953 )  
( 0.00034278 -6.61649e-06 -2.40083e-05 )  
( -0.00108295 0.000318468 0.00143771 )  
( -0.000385755 -0.000159896 0.000396025 )  
( 0.00132782 0.0019323 0.00339518 )  
( -8.70662e-05 -0.000506942 -0.000336547 )  
( -6.96476e-05 0.000111396 7.0125e-05 )  
( -0.000885135 0.000685866 0.00209107 )  
( -0.00238437 0.000503776 0.00404378 )  
( 0.000217232 -1.79429e-05 0.000122568 )  
( 0.000273709 -0.000423875 0.00069033 )  
( 0.000496388 0.00027263 0.000360155 )  
( 3.31738e-05 0.000264977 -0.000270952 )  
( 3.98201e-05 0.000610057 0.000851152 )  
( -0.000204359 0.000439253 0.000722843 )  
( -0.00151356 0.00250569 0.00113505 )  
( 8.59785e-05 0.000114817 0.00331987 )  
( -0.000787587 0.000207884 0.00194997 )  
( 0.000847811 -0.000112854 0.000455992 )  
( 5.72703e-05 3.83395e-05 0.00115587 )  
( -0.000500826 0.000374753 0.0011713 )  
( 0.000161949 -8.52595e-05 0.000595619 )  
( -0.000105809 0.000300625 6.4752e-05 )  
( 0.000297302 0.000115302 0.00100572 )  
( 0.000193882 -0.000391584 5.52762e-05 )  
( 0.000958915 -0.00110494 0.0013869 )  
( 0.000517273 4.09207e-06 0.000760535 )  
( -0.00117674 -0.00117309 0.000899806 )  
( -0.000556194 -7.88713e-06 0.000447451 )  
( -0.00158658 -0.0004794 0.000777102 )  
( 9.31972e-05 -0.00095519 -0.000164175 )  
( 0.000998761 0.000882501 0.00192602 )  
( -0.00022596 0.000439717 0.00137548 )  
( 0.000247335 0.00102419 0.00016783 )  
( 0.00106661 -0.000717041 0.00116089 )  
( 5.33934e-05 0.000227567 0.00116622 )  
( 0.000163037 -2.80501e-06 -5.30977e-05 )  
( -0.000506522 -0.000273522 0.00100759 )  
( -0.000121236 0.0006395 1.57201e-05 )  
( 0.000697075 0.000304879 -4.08313e-07 )  
( 0.000647282 0.00107237 0.000120173 )  
( 0.000414901 0.000791826 0.000372663 )  
( 4.22923e-05 0.000886303 -0.000544213 )  
( -0.000258676 0.000165189 0.000963054 )  
( 0.000710547 -0.000465834 -0.000349356 )  
( -0.000170004 -0.000299412 0.000669674 )  
( -0.00148438 0.000507999 -0.000958545 )  
( -0.000604957 0.000807997 0.00154378 )  
( 0.000170742 0.000155757 0.000114481 )  
( -0.0024889 0.00307063 0.0114121 )  
( -0.000996905 -6.66603e-05 0.000564199 )  
( -0.000155746 0.000689717 0.00131027 )  
( -0.0011777 0.000819377 0.00118136 )  
( 0.00021254 -1.65275e-05 1.87676e-06 )  
( 8.56284e-06 -7.90618e-05 -0.000480039 )  
( 0.00149372 -0.00176057 0.00261899 )  
( 6.25101e-05 -1.19617e-05 -3.73451e-06 )  
( 0.000384368 0.000282176 0.000981105 )  
( -0.000494824 -0.000144017 -0.000444572 )  
( -0.000536851 0.00033501 0.000426574 )  
( 0.000274626 0.000433867 0.000688252 )  
( 1.21872e-05 -0.00056137 0.0011394 )  
( 0.000277281 0.000120115 1.36583e-05 )  
( -0.00215527 0.000238153 -0.000160489 )  
( -0.00410882 -0.00125314 0.00357026 )  
( -9.87077e-05 0.000220059 7.40613e-05 )  
( -0.00216516 0.00026919 0.00901629 )  
( -0.000286037 -0.000284065 0.00203638 )  
( 0.000274679 5.46089e-05 0.000607872 )  
( 0.000747331 -0.00209234 0.00291407 )  
( 0.000427894 -0.00112166 -0.000278851 )  
( 0.000283424 0.00115094 0.000408121 )  
( 0.000224899 0.000500691 0.000222446 )  
( 0.000121139 -0.000111178 0.000611713 )  
( 0.000315321 -0.000168346 0.000850435 )  
( 0.000404935 -0.000157678 0.000726057 )  
( -0.000982567 -0.00113715 0.0020564 )  
( -0.000494663 -0.000302368 0.000635561 )  
( -0.000119479 0.000273114 0.000657643 )  
( -9.7852e-05 -0.00143571 0.00188377 )  
( 0.000284731 -0.000350243 -3.48019e-05 )  
( 0.000271025 -0.000108113 0.000219012 )  
( -0.000367959 0.000512964 0.00187046 )  
( 0.000245737 -0.000108324 1.3618e-06 )  
( 0.000362546 0.000740908 0.00064022 )  
( 0.000523199 0.000176482 0.00109405 )  
( 0.000272022 0.000127288 0.00048899 )  
( 0.000330676 0.000346554 0.0020151 )  
( -0.000550533 -0.000498821 0.000409841 )  
( -9.3754e-05 0.00034166 1.71706e-06 )  
( -0.000907874 -0.000323581 0.00578914 )  
( -2.87108e-05 -1.19938e-05 0.00145887 )  
( -0.000406071 -0.000835041 0.000450825 )  
( 0.000150888 0.000466174 0.00141522 )  
( 9.95402e-05 0.000177375 0.000120813 )  
( -3.71773e-05 0.00102978 -0.000946893 )  
( 0.000295469 6.35028e-05 0.00134463 )  
( -0.000126085 0.000368469 0.00108228 )  
( -0.00114448 -0.000176366 0.00113124 )  
( -0.00170557 1.50306e-05 0.000214256 )  
( -0.000417386 0.000299611 0.000845455 )  
( -0.000181919 0.00028357 0.00286491 )  
( -0.00141116 -0.000138632 0.00107018 )  
( -0.000444193 -0.000439091 0.000986821 )  
( 0.000908973 -0.000582913 0.000949117 )  
( -0.000776142 0.000171862 0.000803405 )  
( 0.000223965 0.000575097 0.000789788 )  
( 0.00175793 -7.98511e-05 0.00403728 )  
( -0.000668271 -0.00021305 0.00190234 )  
( 0.00122985 0.000461011 0.000214187 )  
( -0.000254016 0.000557803 0.00032494 )  
( 0.000827784 -0.00011447 -1.03283e-05 )  
( -0.000444777 0.000414512 0.00171417 )  
( 0.00159105 0.000857559 -0.00113809 )  
( -7.23865e-05 5.37006e-05 2.26293e-05 )  
( 4.92097e-05 -0.00017571 0.00016197 )  
( -0.000316442 0.000814363 0.00110489 )  
( 0.000165413 0.000122748 0.00139342 )  
( 0.000178779 -0.00057486 -0.000395758 )  
( 9.89269e-05 -0.000216485 0.00177519 )  
( -0.000510776 0.000447659 0.000430787 )  
( 0.000556833 0.000277804 0.00014473 )  
( 3.50869e-05 0.00016891 1.54589e-05 )  
( -0.00153573 0.000237229 0.00764901 )  
( -0.000203673 -0.000182206 0.000696299 )  
( 0.00135981 0.000373581 0.000649355 )  
( -0.000272879 6.80087e-05 0.0007858 )  
( 0.000236081 0.000274679 4.88777e-06 )  
( -0.000185671 0.000249333 0.000330027 )  
( 0.000300671 0.000203409 0.00070226 )  
( 0.00015838 -0.000671751 -0.000207608 )  
( 0.000496522 0.00051807 0.000156906 )  
( -0.000123083 9.12422e-05 -1.91936e-05 )  
( 0.000897918 -0.00029899 0.000525566 )  
( -7.3979e-05 -1.76197e-05 8.0017e-05 )  
( -0.000392556 0.000367908 0.00123803 )  
( 0.000260683 0.000688293 -1.36674e-05 )  
( -0.000552389 0.000131467 -0.000447397 )  
( -1.22966e-05 3.09769e-05 3.17769e-05 )  
( -0.000487021 7.5487e-06 0.00116794 )  
( 0.000493416 -0.000199142 0.000199833 )  
( 0.00157605 -0.000171978 0.000132136 )  
( 0.000351909 0.000577897 0.00153953 )  
( -0.000305221 0.000241909 0.000647672 )  
( 0.000103779 8.13897e-05 3.58944e-05 )  
( -0.000235758 -0.000277893 0.000913105 )  
( -0.000327929 3.40343e-05 0.000884349 )  
( -0.000321318 -9.99538e-05 0.00112238 )  
( -0.000341984 0.00027385 0.000869888 )  
( 0.000661493 9.27151e-05 0.000276982 )  
( -0.000318373 -0.000455638 -0.000155216 )  
( 0.000116072 -1.53379e-05 5.31572e-05 )  
( -0.000254917 0.00106006 0.0022183 )  
( -0.000939842 -0.0024389 0.000243798 )  
( -4.60153e-05 0.0002563 0.00175389 )  
( -0.000155652 0.0003806 0.000683105 )  
( -0.000117108 -0.000179563 6.16366e-05 )  
( -0.000790434 3.08619e-05 0.000552904 )  
( -0.000567125 0.000551904 0.000474799 )  
( -0.000576389 0.000297248 -0.000120945 )  
( -0.000192203 -0.000311291 0.000775746 )  
( -0.00119459 0.00187408 0.00417331 )  
( 0.000401312 -0.00074834 0.000698489 )  
( -0.000320888 -0.0002611 0.0011345 )  
( -0.00144651 0.000503077 0.00115956 )  
( -0.000489851 0.00024595 0.00247008 )  
( -0.000623826 0.000590347 0.000877929 )  
( -0.000244848 0.0011775 0.000222835 )  
( 0.000194823 0.000154828 0.00167087 )  
( 0.000386358 -5.97448e-05 0.000577646 )  
( -1.00276e-05 -1.33987e-05 0.000218806 )  
( -0.00343311 -0.000412292 0.00186256 )  
( -0.00238055 0.00231646 0.00125856 )  
( 0.000258316 1.21737e-05 -4.82926e-07 )  
( -7.9763e-05 1.18889e-05 0.00118334 )  
( 0.000421269 2.85301e-05 0.00164302 )  
( 0.000274713 -9.24858e-05 0.000504469 )  
( -0.000654664 0.00012338 0.00408357 )  
( -2.58716e-05 0.000161052 -9.48679e-05 )  
( -0.000223666 0.000479611 0.000560424 )  
( -0.00019854 0.000374837 -4.45372e-05 )  
( 0.000684931 -0.000654982 -0.000174889 )  
( -0.00018634 0.000566525 0.000563233 )  
( 0.000693845 0.000285995 0.000485911 )  
( -0.000139532 0.000370981 0.00115907 )  
( 0.000550996 0.000524653 -0.000308741 )  
( 0.000608807 -0.000698487 0.00331376 )  
( 0.000572151 0.000931805 0.000936473 )  
( -0.000603048 0.00118333 0.00174967 )  
( 5.85314e-05 7.62025e-05 0.000115343 )  
( -5.19071e-05 8.1531e-05 0.00123046 )  
( 0.000425103 -0.00120218 -0.00122003 )  
( -0.000292675 0.000925104 0.000630532 )  
( 0.000671309 -1.07267e-06 0.000753783 )  
( 0.000624966 -9.53342e-05 -0.000230824 )  
( -0.000741715 0.000499497 0.000859353 )  
( -0.000570344 -0.000961521 0.00146434 )  
( -0.000637005 0.000583922 9.87851e-06 )  
( 3.49543e-05 6.69378e-05 0.0006748 )  
( -0.000200772 -0.000222348 0.000607648 )  
( 0.000201833 -0.000316836 -0.000216225 )  
( 0.000362066 -0.000647922 0.00179909 )  
( -0.00150326 -0.0023742 0.00732271 )  
( -0.000215746 6.68116e-05 2.67413e-05 )  
( 4.54018e-05 4.95502e-05 0.000226199 )  
( -0.00250787 -0.000481061 0.00105775 )  
( 0.00061838 -0.00121007 -0.000904231 )  
( 0.000606604 0.00104305 0.000514343 )  
( 9.09178e-06 0.000564879 0.000261561 )  
( -0.000451691 0.000522053 0.00111461 )  
( 0.00134137 -0.00222496 0.00257821 )  
( 0.000323782 -0.000511456 -0.000605881 )  
( -1.23376e-05 0.000213145 0.0037481 )  
( 0.000347149 0.000108098 0.000439576 )  
( 8.82751e-05 0.000306307 5.42675e-05 )  
( 0.000253966 -3.20161e-05 0.0009408 )  
( 0.000625944 -0.000483013 0.00146042 )  
( 0.000532949 0.000716983 0.000610107 )  
( 0.000739496 0.000441568 0.000600034 )  
( 0.000538645 -6.53282e-05 0.00012899 )  
( 1.80037e-05 1.50728e-05 0.000418863 )  
( 0.000471566 -0.00207119 0.00142865 )  
( -0.000569096 0.000280106 0.000267225 )  
( -3.6769e-05 0.000691044 -3.65948e-05 )  
( 4.74547e-05 -0.000242804 6.47737e-05 )  
( 0.000762901 -0.000578433 0.000642679 )  
( 0.000706971 0.00034935 0.00147184 )  
( -0.00132765 -0.00198678 0.00645841 )  
( -0.000309863 0.000235765 -2.77611e-05 )  
( -0.000734498 0.000128776 0.00130292 )  
( -0.000395433 0.000207133 0.000768481 )  
( 1.03975e-05 8.7422e-05 6.00782e-05 )  
( 0.000197145 3.09834e-05 0.000434615 )  
( -0.000560798 -0.000345881 0.000938782 )  
( -0.000326826 -0.000910499 0.000830748 )  
( 0.000130156 3.55853e-05 -0.000280697 )  
( -0.000831973 0.000232678 0.000206076 )  
( 8.0183e-05 0.00127429 0.00184114 )  
( -0.00160913 -0.00023565 0.00277333 )  
( -0.000778482 -0.000694978 0.00210787 )  
( 1.98418e-05 0.000327652 0.00137034 )  
( 0.000127174 7.71714e-05 -2.83769e-05 )  
( -0.000519153 0.000574807 -9.33204e-05 )  
( -0.000244965 0.000161525 0.00114316 )  
( 5.75426e-05 -0.000452446 0.00128045 )  
( -5.42183e-05 0.000369309 1.44811e-05 )  
( 0.000389323 -0.000376967 -0.000138831 )  
( 0.00151157 0.000995585 0.000656079 )  
( 0.00106179 0.000944476 0.00144945 )  
( 0.00121775 -0.000122022 0.00173321 )  
( -0.000221132 0.000790101 -0.000184942 )  
( -6.34224e-05 -0.000376493 0.00121978 )  
( -0.000230833 -0.000453743 0.00228734 )  
( -0.000176539 8.23476e-05 -4.07815e-05 )  
( 0.00121171 -0.000502498 0.00130312 )  
( -0.000261842 -0.000298764 0.000113942 )  
( -0.000757157 -0.000333388 0.00100152 )  
( -0.000120497 0.000252036 0.000322759 )  
( -0.000398386 -0.000291301 0.00109027 )  
( -0.000793111 -0.000434915 0.00188785 )  
( 5.68573e-05 -0.000652036 0.00134935 )  
( -0.000282109 0.000339549 0.000882083 )  
( -1.97371e-05 -0.000270561 0.00085648 )  
( -0.000689149 0.000235908 0.000786945 )  
( 0.0011372 -0.00326461 9.27613e-05 )  
( 2.08207e-05 -0.000859817 0.000195471 )  
( 0.000365695 -0.000140617 -6.46673e-05 )  
( -0.000760211 0.000460881 0.00211305 )  
( 0.000312219 6.56588e-05 0.000291105 )  
( 0.00060298 -2.91224e-05 -0.000503574 )  
( 0.000842208 0.000281993 0.00116124 )  
( 0.00108465 0.000663335 0.000995793 )  
( 0.000205086 1.51695e-05 4.70799e-05 )  
( 0.000153171 -0.000314524 0.000304212 )  
( 0.000392938 -0.000255486 0.000271724 )  
( 0.000745598 -0.000520462 0.000511349 )  
( -0.00123825 0.000181223 0.00120111 )  
( -0.00140586 -0.000261898 -0.000804666 )  
( -0.000265285 6.8962e-05 0.000367291 )  
( 7.08059e-05 -0.000164724 0.00139947 )  
( 4.53851e-05 0.000219823 9.01033e-06 )  
( -0.000146347 0.000218856 0.000464489 )  
( 0.0004096 0.000592264 0.00127696 )  
( -0.000299254 0.000253471 0.0021943 )  
( 0.000250393 0.000738779 0.00108445 )  
( 0.000237001 -7.24744e-05 -2.9508e-05 )  
( 0.000131716 0.000338318 0.000801866 )  
( 0.00035487 0.000120136 0.000214536 )  
( -0.000533915 -0.000759537 -0.000187185 )  
( 0.00279842 0.00145481 0.00244739 )  
( 0.000256897 -0.000753816 0.000767549 )  
( -0.00162817 0.000236731 0.00105646 )  
( 0.000376333 0.000139595 0.000358261 )  
( -0.000206504 0.000183551 0.000161607 )  
( 9.33863e-05 0.000708682 0.000264839 )  
( 0.00064778 -0.000216 0.000598523 )  
( -0.00105419 0.000371984 0.00111261 )  
( 0.000496957 -0.000505041 0.00109976 )  
( 0.000279552 0.000135887 4.15631e-05 )  
( 6.52448e-06 0.0001547 0.00175486 )  
( 0.000167161 0.000331925 0.00113714 )  
( 0.00026601 0.000231526 0.00113224 )  
( -0.000639299 -0.00107335 -0.00049951 )  
( -0.000168583 0.000444874 -0.000149486 )  
( -0.000152093 0.000244515 0.000460625 )  
( -0.000208284 -0.000290717 0.000392084 )  
( 0.00015878 0.000357917 0.00123709 )  
( 3.87326e-05 0.000306675 0.00177832 )  
( 2.2522e-05 -0.000173512 -1.80595e-05 )  
( -0.000221502 0.000141806 0.00103689 )  
( 5.42902e-06 7.42803e-05 0.00213554 )  
( 2.3602e-05 0.000248406 0.000877793 )  
( -4.75967e-06 -0.00050646 0.00137896 )  
( -0.000169621 0.00060523 0.000761155 )  
( -0.000510976 0.000551004 0.000338207 )  
( 9.62779e-05 0.000622825 0.00124778 )  
( -4.1974e-05 0.000294504 0.00104988 )  
( 0.000183765 -0.00050453 0.00592531 )  
( 5.8707e-05 0.000175528 0.000461491 )  
( -4.2732e-05 -6.4448e-05 0.00126358 )  
( 8.64744e-05 0.00028773 -0.000101321 )  
( 8.55699e-05 -0.000162447 -4.20025e-05 )  
( -0.000542886 -0.000278318 0.000746038 )  
( 0.000273619 0.00127166 -0.000778697 )  
( -2.77193e-05 -0.000478294 0.00107689 )  
( 2.96629e-05 0.00042824 0.000963521 )  
( -0.000311626 0.000283605 4.64298e-05 )  
( 0.000277312 -2.68838e-05 3.538e-05 )  
( -0.000775864 8.30767e-05 0.000336481 )  
( 0.000907228 0.000244407 0.000462322 )  
( 0.00033327 -0.00100678 0.00190489 )  
( -0.000154852 -2.07654e-05 0.000668959 )  
( 0.00011943 0.000626913 0.00189056 )  
( -0.00223799 0.00103521 0.00228784 )  
( 0.000411797 -0.000828143 0.00263829 )  
( -0.000838096 0.000310332 0.00357457 )  
( -0.000175791 -0.000207951 6.67575e-05 )  
( 9.05163e-05 0.000330162 4.38688e-06 )  
( 6.98991e-05 0.000354338 0.000171786 )  
( 0.000221949 -0.000509917 0.00355603 )  
( 0.000259751 0.000305245 5.96577e-07 )  
( 0.000724574 -0.000480711 0.00172102 )  
( 1.18929e-05 -0.000303988 0.001128 )  
( 0.000209087 0.000428453 0.000999115 )  
( -0.000609499 -0.000585932 -2.69138e-05 )  
( 0.000242136 -0.000815709 0.000256548 )  
( 0.000177689 -0.000569551 0.000170921 )  
( 0.000555732 3.20683e-05 -9.42602e-05 )  
( -4.25801e-05 -1.86459e-05 -1.00246e-05 )  
( 0.000696692 0.000459805 0.00121698 )  
( 0.000284486 -7.43696e-05 -0.000148598 )  
( 2.98865e-05 0.000216448 0.000632997 )  
( -1.25454e-05 0.000218287 0.00111288 )  
( -9.93156e-05 0.000192896 -7.55877e-05 )  
( -0.000179349 -0.000349443 -0.00024808 )  
( 0.000793178 0.000772225 0.00098081 )  
( -0.000348374 -0.000108979 -1.91509e-05 )  
( 0.00205932 0.000220452 0.00208535 )  
( 0.00135212 0.000411872 0.00232289 )  
( 0.000538191 0.000171341 0.00059305 )  
( -0.000843791 -6.17104e-05 0.000286564 )  
( -0.000678129 0.000832946 -1.06178e-05 )  
( 3.54028e-05 0.000650365 0.000145579 )  
( -6.83959e-05 0.00100434 0.000895547 )  
( 0.000869937 0.000425548 0.00125437 )  
( 0.000129756 -0.000590324 0.000331296 )  
( -8.80641e-05 0.000115377 1.95494e-05 )  
( -0.000505091 0.00119012 0.00248815 )  
( -0.000173059 0.000498015 4.15638e-05 )  
( 0.000890641 6.03254e-05 0.00324564 )  
( -0.000769713 0.000743257 0.00368628 )  
( 5.97941e-05 0.000119608 -1.61492e-05 )  
( -0.000326451 -0.000271875 0.000796161 )  
( 0.00039197 -0.000208212 -0.000323182 )  
( -0.000319475 0.000658749 0.00102303 )  
( -0.000137157 0.000419436 0.00032434 )  
( 0.000696315 -9.89004e-06 0.0021331 )  
( 0.000238309 0.000129405 0.000779998 )  
( 8.45113e-05 -0.000100316 0.000408277 )  
( 0.000226297 -0.000939264 0.00139376 )  
( 0.000405231 -0.00031255 0.000499067 )  
( 0.000237468 -0.00093092 -0.000346643 )  
( 0.000871809 0.000111606 0.000954953 )  
( 0.000198355 0.000353455 0.000709597 )  
( -0.000656432 -0.000480509 0.00164838 )  
( 0.000447027 -0.000118447 0.0021813 )  
( -0.000108753 0.000196071 5.51574e-05 )  
( 0.000142743 8.27929e-05 5.81826e-05 )  
( -0.000886964 0.000240204 0.00161566 )  
( 0.000320815 0.000439216 0.00023898 )  
( -4.98787e-05 0.000125386 0.000289443 )  
( 8.57773e-05 4.58527e-05 0.000902189 )  
( -0.000939022 6.64109e-05 0.00125286 )  
( -0.000298462 0.000370963 -0.000120048 )  
( -0.000483356 0.00106955 0.00400705 )  
( 0.000186418 8.62477e-05 0.000215257 )  
( -0.000121091 0.000540886 0.000325206 )  
( 4.26779e-05 0.000803666 0.000321345 )  
( 0.000347255 0.000357759 -0.000189412 )  
( -0.000614003 0.00076221 -0.00081181 )  
( -0.000102364 -0.000440329 0.000786711 )  
( -1.73356e-06 0.000223546 0.0010915 )  
( 0.000677097 -0.000801864 0.00136047 )  
( 0.000321777 0.000463522 4.8928e-05 )  
( 0.00294725 -0.00134093 -2.81089e-05 )  
( 0.00232448 -0.0012771 0.00362918 )  
( 0.000264973 5.22879e-05 0.000851586 )  
( -0.000119446 0.000381954 4.8248e-05 )  
( 0.000741463 0.000200182 0.000329746 )  
( -0.000330352 0.00014111 4.82148e-05 )  
( -3.68369e-05 0.000399786 0.000777499 )  
( 0.000620133 -0.000112661 -0.000265552 )  
( 0.000602319 0.000368213 0.00065241 )  
( -6.26039e-05 -0.000399113 -0.00022898 )  
( -3.68171e-05 -0.00171892 -0.000902976 )  
( -0.000322467 9.37777e-05 0.00014494 )  
( 0.000300824 -0.000186082 0.000168915 )  
( 0.000138951 0.000553856 0.000614291 )  
( 0.000236325 0.000609847 -0.000104544 )  
( 0.000256857 -0.000149263 0.000179641 )  
( 0.00152029 0.000660026 0.0018451 )  
( 0.000301723 0.000442302 0.000909607 )  
( -0.000651435 -0.000503089 5.44307e-05 )  
( 0.000105506 2.26885e-05 0.00330206 )  
( -0.000644112 0.000145801 0.000253868 )  
( -0.000314578 -0.000146591 0.00116485 )  
( -1.55989e-06 0.000524549 0.00174592 )  
( 0.00181039 -0.00130778 0.00081633 )  
( -2.89586e-05 0.000277577 8.76024e-05 )  
( -3.37375e-05 -3.50453e-05 0.000398199 )  
( 0.000810645 0.00059324 0.000460605 )  
( 0.000909721 0.00100568 0.000432478 )  
( -0.000191457 0.000127843 0.00056668 )  
( -0.000902613 -0.000401392 -0.000223322 )  
( 0.000453593 0.000219842 0.000982451 )  
( -0.000132367 -0.000439809 7.86212e-05 )  
( -0.000635412 -0.00073365 -7.64484e-05 )  
( -0.000664332 -0.00068556 0.00100163 )  
( -0.000938366 -0.000194527 0.000388312 )  
( -0.000213103 0.000220859 3.02057e-06 )  
( -0.000450175 -0.000268022 0.000164218 )  
( -0.000431089 0.00160595 0.00127626 )  
( -0.000173409 0.000553823 0.00122773 )  
( 0.000496535 0.000420248 0.000372799 )  
( 0.000175047 0.000631196 0.000197992 )  
( -0.00108074 0.000955077 0.00143927 )  
( -0.000184704 0.000492974 0.000746352 )  
( -0.000701994 -0.000139932 0.00535131 )  
( 0.000340785 -0.000651356 0.00134082 )  
( 0.000180559 0.000984676 -0.000111169 )  
( -0.000577741 -1.07174e-05 -0.00029171 )  
( 0.000561605 0.00078076 0.00163547 )  
( 0.000339293 -0.000373789 4.83067e-05 )  
( 0.000126988 -0.0011061 -6.86847e-06 )  
( 6.0563e-05 1.19767e-05 7.95637e-05 )  
( -7.86103e-05 8.31018e-05 -9.8574e-05 )  
( -6.96414e-05 -0.000307045 0.000520344 )  
( 0.0014099 -0.000107757 4.71275e-05 )  
( 0.00017666 0.000269748 3.75715e-05 )  
( 0.000870441 0.000932302 0.00193208 )  
( 0.000428007 2.57026e-05 0.000291477 )  
( 0.000168808 0.00120095 0.000779344 )  
( -0.000324529 -0.000455478 0.000343062 )  
( -0.00039779 -5.18122e-05 0.00165523 )  
( 0.00032812 -0.00117106 0.00170109 )  
( 0.000101048 5.56853e-05 -3.69011e-05 )  
( -0.000255408 0.000125297 0.000632715 )  
( -0.000114112 -0.000158564 0.000297464 )  
( 4.02875e-05 -0.000118863 0.00015086 )  
( 4.98385e-05 0.000381158 0.00309022 )  
( 0.000274454 -0.000465424 0.000253477 )  
( 0.00149199 -0.000242427 0.000812531 )  
( 0.000620502 0.000334989 0.00187342 )  
( -0.00115941 -0.0011099 0.00205813 )  
( 0.000222523 -2.27668e-05 0.000823503 )  
( 4.01547e-05 -2.27752e-05 0.000200501 )  
( -0.000797088 -0.000564542 0.000336903 )  
( -0.000995173 -0.000398451 0.000259164 )  
( 0.000506172 -3.37063e-05 -1.30011e-05 )  
( -0.000299642 0.000113825 0.000567622 )  
( -3.75753e-07 0.00011202 0.00100136 )  
( 0.000296623 0.000390914 0.00216977 )  
( 0.000157619 2.48086e-05 0.00106852 )  
( -0.000396563 0.000416363 0.000652024 )  
( 0.000575801 -0.000155982 0.000713726 )  
( -0.00126597 -0.00097488 0.00160917 )  
( -0.000594216 -0.000757827 -0.000142605 )  
( -0.00107716 3.36818e-05 0.000915042 )  
( 0.000279019 0.000125804 3.63834e-05 )  
( 0.00054984 0.000623542 0.00119749 )  
( 0.000391305 0.000272734 0.000832382 )  
( 0.000178896 -0.00019273 0.000715783 )  
( 7.1737e-05 8.00943e-06 0.000297504 )  
( -0.00018284 -0.00079544 0.00225121 )  
( 7.35986e-05 0.000159935 3.91085e-07 )  
( 0.00033126 0.000479878 0.00088404 )  
( -0.000607373 -0.000516019 -0.000149268 )  
( -0.000704937 -0.000814871 0.000957743 )  
( 0.000227937 -0.000490946 0.000563806 )  
( 0.000341321 -4.66506e-05 -2.19765e-07 )  
( 0.000165487 -1.23355e-05 4.43221e-05 )  
( -0.000706001 -3.55019e-05 0.000473966 )  
( 0.000404072 0.000361143 0.0020092 )  
( 0.000230496 0.000141568 0.0010229 )  
( 1.90072e-05 4.98539e-05 -1.31162e-05 )  
( -8.4184e-05 -6.22237e-05 0.000977103 )  
( -0.00197735 -0.00179879 0.000955979 )  
( -0.000740312 0.000987037 1.02181e-05 )  
( 0.000174759 0.00138261 0.000259334 )  
( -0.000103651 5.1951e-05 0.000867953 )  
( 2.21065e-05 -0.000565597 -0.000360332 )  
( 0.000239398 0.000300383 -3.75202e-05 )  
( 9.43381e-05 0.000795404 -9.61342e-05 )  
( 0.000155149 0.000356258 0.000242119 )  
( 0.00116274 -0.000147279 0.0032541 )  
( 0.000149542 -0.000487454 -0.000187802 )  
( 0.000101687 -0.00013888 0.000148013 )  
( -0.000483335 0.000776267 0.000597387 )  
( -0.00138058 -0.000582705 5.81897e-05 )  
( 0.000300354 -0.000535993 -3.16203e-06 )  
( -0.00011923 -0.00120475 0.00175979 )  
( 4.04834e-05 -0.000111369 -1.32007e-05 )  
( -6.40731e-05 -0.000111775 0.00200203 )  
( 0.000453509 -0.000160187 0.000180587 )  
( -0.000223896 -0.000107036 0.000536939 )  
( 0.000217421 -0.00168874 0.000605334 )  
( 0.000203308 7.22782e-05 0.000594446 )  
( -7.19715e-06 4.42183e-05 0.00151628 )  
( 0.000146006 0.000296235 0.00123541 )  
( 0.000408437 -0.00117327 0.00336806 )  
( -0.0010863 0.000162793 0.00151915 )  
( 0.000487062 0.000134331 0.000632441 )  
( 0.000463016 -0.00025562 0.000837668 )  
( -9.06276e-05 0.000558156 0.000574812 )  
( -0.00115388 -0.000670909 0.000956378 )  
( 0.000666044 0.000272842 -0.000382063 )  
( 0.000524682 -0.000202229 6.6108e-05 )  
( 0.00119361 0.000385826 0.00360826 )  
( -0.00110116 -0.00183648 0.00180527 )  
( -0.000256141 0.00045081 0.000670953 )  
( 0.000781814 0.000336822 0.00260056 )  
( 0.00134108 -0.000408567 0.00375496 )  
( 0.000907002 0.000432388 0.000320024 )  
( 7.38281e-05 9.94575e-05 0.000291184 )  
( -1.93946e-05 0.000231713 0.000935573 )  
( -3.31894e-05 0.0004065 0.00113636 )  
( 0.00116954 0.000482836 0.00128081 )  
( 8.49314e-06 -0.00080506 0.0021173 )  
( -0.00142029 -0.00123046 0.0010777 )  
( 0.000997965 0.000123605 0.000422346 )  
( -0.00133293 -0.000290901 0.000328363 )  
( -0.000248074 -0.000275315 0.00125606 )  
( 0.00051711 -0.00126992 0.00183053 )  
( -0.000479746 -0.000523128 0.000877428 )  
( -0.000147432 0.000316693 0.000887855 )  
( 0.000302064 -0.000606665 0.000188732 )  
( -0.00035975 0.000779231 0.000539867 )  
( -1.66262e-05 0.000145051 0.000198385 )  
( 0.000206237 0.00017633 -0.000299182 )  
( -0.000128552 -0.000235867 3.57849e-05 )  
( 0.00035498 0.000528645 -0.00012894 )  
( -0.00043372 2.91271e-05 5.35908e-05 )  
( -0.000243734 0.000598695 -4.78416e-05 )  
( -0.000630905 0.00141025 0.00192306 )  
( 0.00102661 -0.0013297 0.000334957 )  
( -0.000219694 -0.000197619 0.000503879 )  
( 0.000278374 -0.000111532 0.000816404 )  
( -0.000138214 0.000152945 0.00107715 )  
( 6.33193e-06 3.44329e-05 0.000126504 )  
( -0.000755823 -0.000418038 0.00643021 )  
( 0.00180582 -0.000255619 0.00213597 )  
( 6.10539e-05 0.000107772 0.00536922 )  
( 0.0003013 -0.000395474 0.000990307 )  
( -0.00030569 -0.000557634 0.00228217 )  
( 9.12379e-05 -0.0028585 0.00452926 )  
( 0.000787719 0.00212625 0.00629811 )  
( -0.000157093 0.000360943 0.000900937 )  
( 0.000868286 0.000426764 0.000632045 )  
( -8.06377e-05 0.000249835 -0.000270002 )  
( -0.00021502 -0.000455245 0.00100759 )  
( 0.000174372 6.40224e-05 -1.0021e-05 )  
( -0.00103611 -0.00110142 -0.000396621 )  
( 1.52802e-05 0.00103504 5.41075e-06 )  
( -0.000185509 -0.000202338 0.000176612 )  
( 0.00012614 -0.000377124 3.96503e-05 )  
( -0.000619529 0.000206328 0.00032085 )  
( 0.000622312 0.000628055 8.52526e-05 )  
( 0.000282378 -1.5904e-06 8.58397e-05 )  
( 3.57333e-06 0.000468036 0.00185213 )  
( -0.000425296 0.000627466 0.000821889 )  
( -0.000237278 -0.000222845 0.00111993 )  
( -0.00140804 -0.000354656 0.00694697 )  
( 0.000581644 -0.000252324 9.74903e-05 )  
( -0.00043828 -0.000168223 0.00174926 )  
( -2.25709e-05 -0.000526765 0.000680662 )  
( -6.16276e-05 -0.00034574 -3.67815e-07 )  
( -0.000199465 8.24811e-05 6.33317e-06 )  