/*--------------------------------*- C++ -*----------------------------------*\
| =========                 |                                                 |
| \\      /  F ield         | OpenFOAM: The Open Source CFD Toolbox           |
|  \\    /   O peration     | Version:  2506                                  |
|   \\  /    A nd           | Website:  www.openfoam.com                      |
|    \\/     M anipulation  |                                                 |
\*---------------------------------------------------------------------------*/
FoamFile
{
    version     2.0;
    format      ascii;
    arch        "LSB;label=32;scalar=64";
    class       volScalarField;
    location    "0.05";
    object      p;
}
// * * * * * * * * * * * * * * * * * * * * * * * * * * * * * * * * * * * * * //

dimensions      [0 2 -2 0 0 0 0];

internalField   nonuniform List<scalar> 
1152
(
15.5102
15.5686
15.4188
15.0413
15.4181
15.4704
15.488
15.3709
15.4153
15.4684
15.46
15.3258
15.3239
15.3697
15.4228
15.4093
13.4385
13.5346
13.5503
13.0128
13.5283
13.4458
13.5661
13.4343
13.5481
13.5299
13.5141
13.7209
13.3773
13.5976
13.5858
13.7047
10.5062
10.7625
11.1049
11.5094
10.5939
10.6863
10.8627
10.9793
10.7384
10.6939
10.6334
10.7133
10.6568
10.7172
10.5803
10.5364
7.65522
7.45222
7.78738
8.00199
7.76665
7.78795
7.71454
7.92062
7.54895
7.59858
7.77499
7.5531
7.6268
7.3844
7.42293
7.64666
4.13368
4.59199
4.82444
5.07418
4.46346
4.58775
4.79932
4.81925
4.26642
4.46317
4.48642
4.76307
4.11385
4.3323
4.48212
4.59976
1.62224
1.69773
1.81423
1.86662
1.55411
1.72793
1.80992
1.8755
1.49117
1.70284
1.93655
1.94618
1.62528
1.73183
1.98347
1.5323
1.01476
1.01486
1.01543
1.01756
1.01877
1.01755
1.01042
1.01301
1.01619
1.0173
1.01913
1.02051
1.02279
1.01784
1.01073
1.01746
1.00552
1.0052
1.00468
1.00393
1.00574
1.00548
1.00498
1.00422
1.00576
1.00562
1.00543
1.00502
1.0056
1.00561
1.00569
1.00579
1.01039
1.01005
1.00958
1.00947
1.01054
1.01024
1.0096
1.00953
1.01081
1.01057
1.01031
1.01027
1.01115
1.01072
1.01026
1.01037
1.00774
1.00745
1.00704
1.00676
1.00778
1.00754
1.00715
1.0069
1.0079
1.00769
1.00744
1.0072
1.00795
1.00775
1.0075
1.00739
1.00733
1.00711
1.00681
1.00653
1.00739
1.0072
1.00693
1.00669
1.00749
1.00732
1.00711
1.00689
1.00757
1.00741
1.00722
1.00706
1.00656
1.00639
1.00617
1.00594
1.00661
1.00646
1.00626
1.00606
1.00668
1.00655
1.00637
1.00619
1.00672
1.00661
1.00647
1.00631
1.0059
1.00577
1.00561
1.00542
1.00594
1.00582
1.00567
1.0055
1.00599
1.00588
1.00575
1.0056
1.00603
1.00593
1.00582
1.00568
1.00529
1.00518
1.00506
1.00492
1.00532
1.00522
1.00511
1.00498
1.00535
1.00527
1.00516
1.00505
1.00538
1.00531
1.00521
1.00511
1.00471
1.00463
1.00454
1.00444
1.00473
1.00466
1.00458
1.00448
1.00476
1.00469
1.00461
1.00452
1.00478
1.00472
1.00465
1.00456
1.00416
1.0041
1.00403
1.00396
1.00418
1.00412
1.00406
1.00398
1.0042
1.00415
1.00409
1.00402
1.00421
1.00417
1.00411
1.00405
1.00363
1.00359
1.00354
1.00348
1.00365
1.00361
1.00356
1.0035
1.00366
1.00362
1.00358
1.00352
1.00367
1.00364
1.00359
1.00354
1.00312
1.00309
1.00305
1.00301
1.00313
1.0031
1.00307
1.00303
1.00314
1.00311
1.00308
1.00304
1.00315
1.00312
1.00309
1.00306
1.00263
1.0026
1.00257
1.00254
1.00263
1.00261
1.00258
1.00255
1.00264
1.00262
1.00259
1.00256
1.00265
1.00263
1.0026
1.00257
1.00214
1.00212
1.0021
1.00208
1.00214
1.00213
1.00211
1.00209
1.00215
1.00213
1.00211
1.00209
1.00215
1.00214
1.00212
1.0021
1.00166
1.00164
1.00163
1.00161
1.00166
1.00165
1.00163
1.00162
1.00166
1.00165
1.00164
1.00162
1.00167
1.00165
1.00164
1.00163
1.00118
1.00117
1.00116
1.00115
1.00118
1.00117
1.00117
1.00116
1.00118
1.00118
1.00117
1.00116
1.00119
1.00118
1.00117
1.00116
1.00071
1.0007
1.0007
1.00069
1.00071
1.0007
1.0007
1.00069
1.00071
1.0007
1.0007
1.00069
1.00071
1.00071
1.0007
1.0007
1.00024
1.00023
1.00023
1.00023
1.00024
1.00023
1.00023
1.00023
1.00024
1.00023
1.00023
1.00023
1.00024
1.00023
1.00023
1.00023
15.238
15.3857
15.3385
15.4483
15.2428
15.3726
15.3972
15.4292
15.2335
15.2083
15.2651
15.3553
15.1661
15.2679
15.2106
15.3745
13.4771
13.4314
13.7421
13.1376
13.4297
13.3398
13.5955
13.1882
13.3642
13.3304
13.3543
13.5062
13.3678
13.2066
13.4358
13.4449
10.6953
10.5384
10.5548
10.3182
10.4249
10.1755
10.3219
10.3324
10.3177
10.4209
10.2879
10.3049
10.3143
10.389
10.3925
10.0513
7.30118
7.39785
7.32776
7.62044
7.49963
7.44238
7.32765
7.60909
7.56818
7.33945
7.25443
7.01473
7.51515
7.21875
7.46309
7.0366
4.36838
4.45467
4.4338
4.58829
4.40872
4.61713
4.36683
3.91864
4.64314
4.53117
4.3805
4.06067
4.62712
4.48344
4.43913
3.77147
1.49017
1.55043
1.63889
1.46802
1.53888
1.60854
1.4386
1.57401
1.56748
1.63043
1.62633
1.28635
1.65733
1.51061
1.41503
1.29314
1.02181
1.01582
1.01823
1.01934
1.01411
1.01364
1.01469
1.0094
1.01225
1.01694
1.01661
1.00116
1.01913
1.02088
1.01014
1.01092
1.00537
1.00571
1.0062
1.00636
1.0054
1.00581
1.00653
1.00664
1.00552
1.00609
1.00669
1.00776
1.0057
1.00668
1.00646
1.00788
1.01143
1.01102
1.0108
1.01087
1.01127
1.01105
1.01083
1.01109
1.01124
1.01129
1.01102
1.01175
1.01145
1.01159
1.01066
1.01154
1.00796
1.00784
1.00771
1.00763
1.00796
1.00789
1.00776
1.00775
1.00799
1.00797
1.00782
1.00788
1.00796
1.00799
1.00768
1.00786
1.00766
1.00752
1.00739
1.00727
1.00771
1.0076
1.00748
1.00743
1.00774
1.00765
1.00755
1.00756
1.00778
1.00771
1.00756
1.00761
1.00677
1.00668
1.00658
1.00646
1.0068
1.00675
1.00666
1.00657
1.00683
1.00678
1.00671
1.00665
1.00683
1.0068
1.00672
1.00668
1.00607
1.00599
1.00589
1.00578
1.0061
1.00604
1.00596
1.00586
1.00612
1.00607
1.006
1.00591
1.00613
1.00608
1.00601
1.00594
1.00541
1.00535
1.00527
1.00517
1.00543
1.00538
1.00531
1.00523
1.00545
1.00541
1.00534
1.00526
1.00546
1.00542
1.00536
1.00528
1.0048
1.00475
1.00469
1.00461
1.00482
1.00478
1.00472
1.00464
1.00483
1.00479
1.00474
1.00467
1.00484
1.0048
1.00475
1.00468
1.00423
1.00419
1.00414
1.00408
1.00424
1.00421
1.00416
1.0041
1.00425
1.00422
1.00418
1.00412
1.00426
1.00422
1.00418
1.00413
1.00368
1.00365
1.00361
1.00357
1.00369
1.00367
1.00363
1.00358
1.0037
1.00367
1.00364
1.00359
1.0037
1.00368
1.00364
1.0036
1.00316
1.00313
1.0031
1.00307
1.00317
1.00314
1.00312
1.00308
1.00317
1.00315
1.00312
1.00309
1.00317
1.00315
1.00313
1.00309
1.00265
1.00263
1.00261
1.00258
1.00266
1.00264
1.00262
1.00259
1.00266
1.00264
1.00262
1.0026
1.00266
1.00265
1.00263
1.0026
1.00215
1.00214
1.00213
1.00211
1.00216
1.00215
1.00213
1.00211
1.00216
1.00215
1.00213
1.00212
1.00216
1.00215
1.00214
1.00212
1.00167
1.00166
1.00165
1.00163
1.00167
1.00166
1.00165
1.00164
1.00167
1.00166
1.00165
1.00164
1.00167
1.00166
1.00165
1.00164
1.00119
1.00118
1.00117
1.00116
1.00119
1.00118
1.00118
1.00117
1.00119
1.00118
1.00118
1.00117
1.00119
1.00118
1.00118
1.00117
1.00071
1.00071
1.0007
1.0007
1.00071
1.00071
1.0007
1.0007
1.00071
1.00071
1.0007
1.0007
1.00071
1.00071
1.00071
1.0007
1.00024
1.00024
1.00023
1.00023
1.00024
1.00024
1.00023
1.00023
1.00024
1.00024
1.00023
1.00023
1.00024
1.00024
1.00023
1.00023
15.4608
15.3528
15.5789
15.5024
15.3318
15.3379
15.4306
15.4008
15.0152
15.171
15.2965
15.2789
15.2054
15.2511
15.2245
15.2853
13.1932
13.099
13.2849
13.4124
13.2156
13.2446
13.3541
13.6574
13.1708
13.3853
13.4014
13.5853
13.2293
13.1569
13.4602
13.4687
10.1561
10.2106
10.2131
10.3221
10.6618
10.2853
10.3309
10.616
10.5871
10.2978
10.4018
10.346
10.3814
10.4421
10.4272
10.5764
7.26887
7.57617
7.50525
7.51722
7.17645
7.4396
7.3689
7.36173
7.70118
7.42469
7.50202
7.39384
7.53927
7.64069
7.5199
7.45683
4.1059
3.99943
4.29652
4.25835
4.17421
4.33808
4.40908
4.38734
4.69236
4.52186
4.37508
4.52068
4.78771
4.70077
4.62157
4.45202
1.40171
1.30862
1.25398
1.36165
1.40129
1.59834
1.52752
1.54132
1.53913
1.67075
1.57366
1.61034
1.76598
1.66371
1.51501
1.40202
1.01789
1.02218
1.01425
1.0208
1.01834
1.01332
1.0185
1.01095
1.0185
1.01994
1.01676
1.01958
1.01626
1.01361
1.01533
1.01699
1.00643
1.00751
1.00619
1.00653
1.00609
1.00561
1.00597
1.00574
1.00596
1.00588
1.00581
1.00584
1.00564
1.00555
1.00556
1.00564
1.01115
1.0113
1.01074
1.01085
1.01095
1.01063
1.01077
1.0105
1.01144
1.01134
1.01115
1.01102
1.01111
1.01093
1.01103
1.01114
1.0083
1.00839
1.00816
1.00803
1.00809
1.00806
1.00803
1.00789
1.00818
1.00821
1.00814
1.00804
1.00792
1.00795
1.00794
1.00794
1.00777
1.00773
1.00763
1.00751
1.0077
1.00764
1.00759
1.00751
1.00782
1.00777
1.00771
1.00762
1.00776
1.00772
1.0077
1.00766
1.00689
1.00687
1.0068
1.0067
1.00686
1.00684
1.00679
1.00672
1.00691
1.0069
1.00685
1.00678
1.00684
1.00684
1.00681
1.00678
1.00616
1.00613
1.00608
1.006
1.00616
1.00613
1.00609
1.00603
1.00618
1.00616
1.00613
1.00607
1.00615
1.00614
1.00612
1.00609
1.00549
1.00547
1.00543
1.00537
1.00549
1.00547
1.00544
1.00539
1.00551
1.00549
1.00546
1.00542
1.00548
1.00547
1.00546
1.00543
1.00486
1.00485
1.00482
1.00477
1.00487
1.00486
1.00483
1.00479
1.00488
1.00487
1.00484
1.00481
1.00486
1.00485
1.00484
1.00482
1.00428
1.00427
1.00424
1.00421
1.00429
1.00428
1.00425
1.00422
1.00429
1.00428
1.00426
1.00424
1.00428
1.00427
1.00426
1.00424
1.00372
1.00371
1.0037
1.00367
1.00373
1.00372
1.00371
1.00368
1.00373
1.00372
1.00371
1.00369
1.00372
1.00372
1.00371
1.00369
1.00319
1.00318
1.00317
1.00315
1.0032
1.00319
1.00318
1.00316
1.00319
1.00319
1.00318
1.00316
1.00319
1.00318
1.00318
1.00317
1.00268
1.00267
1.00266
1.00265
1.00268
1.00267
1.00267
1.00265
1.00268
1.00267
1.00267
1.00266
1.00267
1.00267
1.00266
1.00266
1.00217
1.00217
1.00216
1.00215
1.00218
1.00217
1.00217
1.00216
1.00218
1.00217
1.00217
1.00216
1.00217
1.00217
1.00216
1.00216
1.00168
1.00168
1.00167
1.00167
1.00168
1.00168
1.00168
1.00167
1.00168
1.00168
1.00168
1.00167
1.00168
1.00168
1.00167
1.00167
1.0012
1.0012
1.00119
1.00119
1.0012
1.0012
1.00119
1.00119
1.0012
1.0012
1.00119
1.00119
1.00119
1.00119
1.00119
1.00119
1.00072
1.00072
1.00071
1.00071
1.00072
1.00072
1.00071
1.00071
1.00072
1.00072
1.00071
1.00071
1.00071
1.00071
1.00071
1.00071
1.00024
1.00024
1.00024
1.00024
1.00024
1.00024
1.00024
1.00024
1.00024
1.00024
1.00024
1.00024
1.00024
1.00024
1.00024
1.00024
)
;

boundaryField
{
    inlet
    {
        type            zeroGradient;
    }
    outlet
    {
        type            fixedValue;
        value           uniform 1;
    }
    wall
    {
        type            zeroGradient;
    }
    procBoundary2to0
    {
        type            processor;
        value           nonuniform List<scalar> 
192
(
15.4758
15.3711
15.3976
15.4027
13.5939
13.7283
13.8113
13.8156
10.6659
10.5597
10.7657
10.5328
7.36775
7.80083
7.73078
7.7608
4.24695
4.70665
4.71271
5.20495
1.44931
1.74322
1.89861
1.78661
1.02044
1.01165
0.999595
1.00828
1.00563
1.00489
1.0041
1.00326
1.01028
1.00968
1.00869
1.00881
1.00764
1.00731
1.00679
1.00654
1.00724
1.00703
1.00668
1.0064
1.0065
1.00633
1.0061
1.00585
1.00585
1.00572
1.00555
1.00536
1.00525
1.00515
1.00502
1.00488
1.00468
1.0046
1.00451
1.0044
1.00414
1.00408
1.00401
1.00393
1.00362
1.00357
1.00352
1.00346
1.00311
1.00308
1.00304
1.00299
1.00262
1.00259
1.00256
1.00253
1.00213
1.00211
1.00209
1.00207
1.00165
1.00164
1.00162
1.00161
1.00118
1.00117
1.00116
1.00115
1.0007
1.0007
1.00069
1.00069
1.00023
1.00023
1.00023
1.00023
15.707
15.5966
15.5109
15.4757
13.3595
13.4823
13.7228
13.5632
9.94286
10.5108
10.5244
10.4794
7.08953
7.05208
7.0352
7.39786
4.27657
4.02485
4.02493
4.15319
1.56939
1.32027
1.23665
1.35937
1.01442
1.0148
1.01781
1.01764
1.00592
1.00607
1.0065
1.00592
1.01039
1.01036
1.01045
1.01043
1.00795
1.00799
1.00795
1.00784
1.00756
1.00752
1.00747
1.00739
1.00678
1.00676
1.0067
1.00662
1.00609
1.00607
1.00602
1.00595
1.00544
1.00543
1.00539
1.00533
1.00483
1.00482
1.00479
1.00474
1.00426
1.00425
1.00422
1.00419
1.00371
1.0037
1.00368
1.00365
1.00318
1.00317
1.00316
1.00314
1.00267
1.00266
1.00265
1.00264
1.00217
1.00216
1.00216
1.00215
1.00168
1.00167
1.00167
1.00166
1.00119
1.00119
1.00119
1.00118
1.00071
1.00071
1.00071
1.00071
1.00024
1.00024
1.00024
1.00024
)
;
    }
    procBoundary2to3
    {
        type            processor;
        value           nonuniform List<scalar> 
192
(
15.0309
15.1705
15.412
15.3787
13.5972
13.9658
13.3427
13.3618
11.5453
10.831
10.6448
10.5531
7.89678
7.6802
7.61967
7.41362
3.96756
4.30911
4.69255
4.43152
2.14824
1.93311
1.79791
1.9512
0.995796
1.01524
1.0072
1.00407
1.00407
1.00335
1.00416
1.00618
1.00791
1.00909
1.00941
1.00944
1.00611
1.00651
1.00679
1.00705
1.00613
1.00636
1.00659
1.00681
1.00566
1.0058
1.00596
1.00611
1.00521
1.00531
1.00542
1.00552
1.00477
1.00484
1.00491
1.00498
1.00432
1.00437
1.00442
1.00447
1.00387
1.0039
1.00394
1.00397
1.00342
1.00344
1.00347
1.00349
1.00296
1.00298
1.003
1.00302
1.00251
1.00252
1.00253
1.00255
1.00205
1.00206
1.00207
1.00208
1.0016
1.0016
1.00161
1.00161
1.00114
1.00115
1.00115
1.00115
1.00069
1.00069
1.00069
1.00069
1.00023
1.00023
1.00023
1.00023
15.3359
15.3956
15.2686
15.3307
13.5557
13.4028
13.4767
13.2508
10.6375
10.4879
10.2428
10.8214
7.14995
6.77892
6.81999
7.06524
4.03662
4.09097
3.95508
4.05495
1.83353
1.41563
1.49647
1.3257
1.01725
1.03905
1.0238
1.01445
1.00665
1.00741
1.00747
1.00739
1.0104
1.01136
1.01131
1.01093
1.00741
1.00777
1.00788
1.00777
1.00703
1.00722
1.00734
1.00737
1.00625
1.00638
1.00646
1.00648
1.00562
1.0057
1.00576
1.00578
1.00505
1.0051
1.00514
1.00516
1.00452
1.00455
1.00457
1.00459
1.00401
1.00403
1.00405
1.00406
1.00351
1.00353
1.00354
1.00355
1.00303
1.00304
1.00305
1.00305
1.00256
1.00256
1.00257
1.00257
1.00209
1.00209
1.00209
1.0021
1.00162
1.00162
1.00163
1.00163
1.00116
1.00116
1.00116
1.00116
1.00069
1.00069
1.00069
1.00069
1.00023
1.00023
1.00023
1.00023
)
;
    }
}


// ************************************************************************* //
