/*--------------------------------*- C++ -*----------------------------------*\
| =========                 |                                                 |
| \\      /  F ield         | OpenFOAM: The Open Source CFD Toolbox           |
|  \\    /   O peration     | Version:  2506                                  |
|   \\  /    A nd           | Website:  www.openfoam.com                      |
|    \\/     M anipulation  |                                                 |
\*---------------------------------------------------------------------------*/
FoamFile
{
    version     2.0;
    format      ascii;
    arch        "LSB;label=32;scalar=64";
    class       volVectorField;
    location    "0.05";
    object      stored_U;
}
// * * * * * * * * * * * * * * * * * * * * * * * * * * * * * * * * * * * * * //

dimensions      [0 1 -1 0 0 0 0];

internalField   nonuniform List<vector> 
1152
(
(0.000507025 0.000216925 0.013983)
(0.00120596 -0.000613035 0.00705604)
(0.00719874 -0.00114763 0.0114785)
(0.00357625 -0.000131713 0.0163081)
(-8.96689e-05 0.00141543 0.024804)
(0.000155397 0.000710177 0.0185693)
(0.00198409 -0.00106955 0.0116734)
(0.000722696 -0.000892468 0.00157781)
(-0.00120095 0.000732828 0.0122842)
(0.000386181 0.000955263 0.0153107)
(0.00274596 0.000111847 0.0168125)
(0.00276202 -0.0024043 0.0266538)
(-0.000687303 0.00227007 0.0178118)
(-0.000974558 0.000495717 0.0176766)
(0.000279097 0.000548981 0.0136717)
(0.00167182 -0.00285522 0.0175767)
(-0.000116574 6.02784e-06 0.021478)
(0.000148781 0.000448245 0.0121101)
(0.0144417 0.000816334 0.0202102)
(-0.000259688 2.69209e-06 0.000766989)
(0.00106393 -0.000329152 0.0117234)
(0.000217155 -0.00061882 0.0173906)
(0.000339096 -0.000668532 0.0230807)
(-0.00085146 -0.0137657 0.0191008)
(0.000335682 0.000891786 0.018645)
(0.000237553 -0.000726826 0.0165254)
(-0.000121527 5.41249e-05 0.00498298)
(0.00229299 -0.00207428 0.0285432)
(-0.00034949 0.000404248 0.014339)
(-0.00144511 0.000764153 0.0267951)
(-0.000592416 -0.00127227 0.018257)
(0.000776031 0.00138714 0.0101775)
(-0.00254138 0.0003909 0.0281883)
(-0.00130596 -5.53474e-05 0.00977457)
(-0.00653027 -0.000901521 0.021469)
(-0.00127532 -0.00746341 0.0287362)
(-0.000310363 -0.00228751 0.0422833)
(-0.00268714 0.000445109 0.0381479)
(-0.000616281 0.000840813 0.00532666)
(0.00167017 0.00834537 0.0286369)
(-0.00141567 -0.000582784 0.0176313)
(0.000672552 -0.000415649 0.0253589)
(0.00010356 0.00289126 0.037013)
(0.000998625 0.00305721 0.0225763)
(-0.00188839 0.00070713 0.0502743)
(3.03295e-05 -4.52843e-05 0.0102833)
(0.000655271 3.96345e-05 0.0266899)
(0.000521472 0.00173007 0.0156015)
(0.000290358 -0.00299354 0.0335582)
(1.17146e-05 -5.01839e-05 0.00218705)
(-0.00281348 0.000199592 0.0213052)
(0.00024385 -0.00208894 0.0394003)
(-0.00209996 0.000152879 0.0255334)
(0.000382376 -0.00104503 0.0240716)
(-0.000482264 0.0001107 0.0224481)
(0.000938748 0.00304702 0.0286856)
(-0.000184202 -2.20603e-05 0.00581836)
(-0.000691656 0.00116578 0.0171318)
(0.000495748 0.00100224 0.0184104)
(0.00170313 0.00195083 0.0311922)
(0.000238512 0.00104493 0.0144603)
(0.00125489 0.000963817 0.0248853)
(-0.000741307 0.0019975 0.0228334)
(-2.1446e-05 9.62986e-05 0.0019103)
(-0.000264827 -0.00011353 0.00275835)
(-0.00396173 0.000868662 0.0265585)
(-0.00333207 -0.000385045 0.0301554)
(0.00738507 0.00409523 0.0382207)
(-0.00133774 -0.00042362 0.0284619)
(-0.00205909 0.00108949 0.0277694)
(-0.000879807 0.00143488 0.0194715)
(0.00154145 0.00101577 0.0145797)
(0.000286178 0.00126738 0.0140177)
(-0.00123873 0.00154158 0.02627)
(-0.00119529 0.00142729 0.0187926)
(-0.00152398 0.00214926 0.0439146)
(0.00166574 -0.000592704 0.0334672)
(-0.0017261 -3.43653e-05 0.0203513)
(-0.00171966 0.000435908 0.0299529)
(0.000235548 0.000355662 0.0104609)
(-0.00407663 -0.00113654 0.0281409)
(-0.000967238 0.000219052 0.0101923)
(-0.000768126 0.000520222 0.0123664)
(-0.000380776 6.67939e-05 0.00254644)
(-0.00119613 0.000771942 0.0144258)
(-0.00160245 0.000249509 0.0160574)
(-0.000459759 -2.89702e-05 0.00700018)
(-0.00084335 -0.000363385 0.0177443)
(-0.000487805 -8.69641e-05 0.0110503)
(-0.0018909 0.000283588 0.0109047)
(-0.0023176 -0.00118917 0.0244809)
(0.000296004 0.00116725 0.00928999)
(-0.00551215 0.00157583 0.0338885)
(-0.00262742 0.00133405 0.0193963)
(0.00117636 0.00194503 0.0165999)
(4.3444e-05 0.000229322 0.00154849)
(-0.000105391 0.000341832 0.0106744)
(-0.000303495 0.000166075 0.0132386)
(-0.000445349 -0.000115631 0.0159953)
(0.000613042 0.00024705 0.0183836)
(-0.000429018 0.000154364 0.0165775)
(-2.12659e-05 0.000302337 0.0142741)
(-0.000122515 0.000296848 0.0104229)
(-0.000337013 0.000183527 0.01272)
(-0.000208442 -2.65365e-05 0.0141583)
(-0.000342067 0.000114572 0.0146087)
(-0.000170704 0.000297026 0.0120284)
(-5.94237e-05 0.000106501 0.0182525)
(-0.00046373 -0.000513358 0.0210072)
(-2.79142e-05 0.000160848 0.0134819)
(-0.000320754 0.000153721 0.00756196)
(-2.17474e-06 0.000161223 0.00682354)
(0.00163128 0.000692396 0.0210096)
(0.000952273 0.000365645 0.0186713)
(0.000450031 0.000197866 0.0202335)
(-1.78554e-05 0.000196959 0.0270918)
(0.000681366 0.000718947 0.0213887)
(0.00079693 0.00047136 0.0199779)
(0.000381149 0.000285541 0.0158493)
(-0.000236194 0.000182172 0.0215043)
(0.000419974 0.000552147 0.0217382)
(0.00039795 0.00045896 0.0208314)
(4.55345e-05 0.000173259 0.020339)
(-0.000227012 7.68505e-06 0.0234903)
(0.000252965 0.000358734 0.0289442)
(0.000267809 0.000430885 0.0209891)
(-0.000207857 0.000262747 0.0144581)
(-0.000794014 0.000518122 0.0160369)
(0.000736835 0.00025852 0.00535048)
(0.000600376 1.79369e-05 0.00447631)
(-0.000606274 -0.000250756 0.00467974)
(-6.79473e-05 0.000249217 0.00641168)
(0.00017272 -0.000179993 0.00507884)
(0.000681587 -0.0001713 0.0044716)
(-0.000336398 -0.000111527 0.00391052)
(-0.000979789 0.000332419 0.00505498)
(0.000456817 -0.000883552 0.00538931)
(0.000566972 -0.000402264 0.0047057)
(-0.000204938 -0.000199796 0.00416749)
(-0.000113809 0.000419903 0.00464156)
(0.000562942 -0.000968873 0.00639632)
(0.00122113 -0.000645221 0.00467315)
(0.000371373 -0.000707249 0.00338809)
(0.000298026 -0.000379208 0.00325366)
(0.000428294 0.000174221 0.0124591)
(0.000291941 0.000133827 0.0121513)
(-0.0003268 7.27185e-05 0.0121474)
(-0.000242704 0.000282961 0.0130642)
(0.000198643 2.81432e-06 0.0123421)
(0.000289783 7.28901e-06 0.0120864)
(-0.000220447 7.09761e-05 0.0118385)
(-0.000502494 0.000307864 0.0125369)
(0.000264066 -0.000266794 0.0126804)
(0.000300999 -0.000148867 0.012334)
(-8.61218e-05 -5.23912e-05 0.0120979)
(-0.00016833 0.000250756 0.0124253)
(0.000134396 -0.0002161 0.0131353)
(0.000425627 -0.000265382 0.0124155)
(0.000106855 -0.000327493 0.0118481)
(8.00164e-07 -0.000176251 0.0118586)
(0.000164494 5.59341e-05 0.0105444)
(9.81258e-05 7.13548e-05 0.0104058)
(-0.000161542 6.66843e-05 0.0103844)
(-0.000182001 0.000143626 0.0107254)
(9.75379e-05 -4.30408e-05 0.010436)
(9.6254e-05 -1.44603e-05 0.0103201)
(-0.000124391 2.76177e-05 0.0102412)
(-0.000243639 0.000128118 0.0105093)
(0.000163103 -0.00020949 0.0105279)
(0.000145832 -0.00013654 0.0103835)
(-4.42777e-05 -7.19092e-05 0.0102879)
(-0.000118637 5.89506e-05 0.0104209)
(0.000157929 -0.000249202 0.0105794)
(0.000200853 -0.000230365 0.0103826)
(3.79715e-05 -0.000222666 0.0102179)
(-3.33766e-05 -0.000157562 0.010243)
(6.90098e-05 3.47502e-05 0.0110173)
(2.82303e-05 4.44218e-05 0.010975)
(-8.35595e-05 4.64567e-05 0.0109669)
(-0.000115397 7.2796e-05 0.0110938)
(3.5795e-05 -3.95e-06 0.0109701)
(2.05394e-05 2.00417e-06 0.0109343)
(-7.37269e-05 1.66392e-05 0.0109146)
(-0.000126737 5.54226e-05 0.0110182)
(5.72286e-05 -7.597e-05 0.0110194)
(4.13235e-05 -6.28067e-05 0.0109638)
(-3.87138e-05 -4.1971e-05 0.010929)
(-7.87942e-05 6.35633e-06 0.0109864)
(2.7077e-05 -9.28597e-05 0.0110504)
(4.2302e-05 -0.000110897 0.0109808)
(-1.65832e-05 -0.000116174 0.0109264)
(-4.1791e-05 -9.94496e-05 0.0109451)
(2.51785e-05 1.85578e-05 0.0110434)
(8.8201e-07 2.34352e-05 0.0110345)
(-4.74351e-05 2.62969e-05 0.0110351)
(-7.13808e-05 3.55678e-05 0.0110853)
(9.79758e-06 -1.33831e-06 0.0110134)
(-3.18064e-06 8.27799e-07 0.0110112)
(-4.41186e-05 7.45727e-06 0.0110122)
(-7.06082e-05 2.2447e-05 0.0110559)
(2.13463e-05 -4.05413e-05 0.0110201)
(7.83937e-06 -3.46158e-05 0.0110154)
(-2.82435e-05 -2.48167e-05 0.0110125)
(-5.07302e-05 -6.05258e-06 0.0110405)
(1.06559e-05 -5.64081e-05 0.0110056)
(8.08492e-06 -6.07381e-05 0.0110119)
(-1.95718e-05 -5.97247e-05 0.0110108)
(-3.31389e-05 -5.37932e-05 0.0110297)
(5.06809e-06 1.00372e-05 0.0110715)
(-9.26488e-06 1.22724e-05 0.0110759)
(-3.11843e-05 1.43551e-05 0.0110811)
(-4.57391e-05 1.81417e-05 0.0111027)
(-2.67789e-06 3.53986e-07 0.0110541)
(-1.1084e-05 7.49595e-07 0.0110634)
(-2.94195e-05 3.83451e-06 0.0110701)
(-4.33397e-05 9.97004e-06 0.0110903)
(2.42595e-06 -1.8881e-05 0.0110492)
(-6.08799e-06 -1.70779e-05 0.0110602)
(-2.25805e-05 -1.27222e-05 0.0110667)
(-3.43671e-05 -5.16344e-06 0.0110818)
(-3.12764e-06 -2.76291e-05 0.0110286)
(-6.45438e-06 -2.98022e-05 0.0110504)
(-1.88176e-05 -2.87369e-05 0.011061)
(-2.55261e-05 -2.62592e-05 0.0110748)
(-3.2368e-06 5.89232e-06 0.0110891)
(-1.16398e-05 6.95671e-06 0.0110995)
(-2.24295e-05 8.23447e-06 0.0111067)
(-3.08227e-05 1.00777e-05 0.0111181)
(-6.83719e-06 4.69233e-07 0.0110776)
(-1.21514e-05 6.34219e-07 0.0110919)
(-2.12061e-05 2.30673e-06 0.0111006)
(-2.882e-05 5.29175e-06 0.0111117)
(-4.52124e-06 -9.07966e-06 0.0110666)
(-9.76773e-06 -8.29426e-06 0.0110849)
(-1.79241e-05 -6.07836e-06 0.0110953)
(-2.4297e-05 -2.45911e-06 0.0111055)
(-6.74792e-06 -1.37681e-05 0.0110407)
(-9.68974e-06 -1.4201e-05 0.0110697)
(-1.583e-05 -1.32952e-05 0.0110852)
(-1.95584e-05 -1.18678e-05 0.0110964)
(-6.05563e-06 3.71327e-06 0.0110999)
(-1.09955e-05 4.25733e-06 0.011113)
(-1.67031e-05 5.03627e-06 0.0111207)
(-2.15432e-05 6.0941e-06 0.011128)
(-7.51905e-06 5.58842e-07 0.0110913)
(-1.0957e-05 7.54095e-07 0.0111074)
(-1.58447e-05 1.75596e-06 0.0111165)
(-2.01586e-05 3.40249e-06 0.011124)
(-6.43626e-06 -4.26013e-06 0.0110776)
(-9.71869e-06 -3.79935e-06 0.0110987)
(-1.40926e-05 -2.53044e-06 0.0111103)
(-1.76832e-05 -5.38713e-07 0.0111182)
(-7.15697e-06 -6.59454e-06 0.0110492)
(-9.4119e-06 -6.40042e-06 0.0110805)
(-1.2758e-05 -5.72656e-06 0.0110975)
(-1.49996e-05 -4.808e-06 0.0111073)
(-6.31893e-06 2.47223e-06 0.0111068)
(-9.30078e-06 2.77699e-06 0.0111208)
(-1.25282e-05 3.27156e-06 0.0111284)
(-1.54037e-05 3.95305e-06 0.0111339)
(-6.82964e-06 6.09682e-07 0.0110993)
(-9.10011e-06 8.22401e-07 0.011116)
(-1.19304e-05 1.46172e-06 0.011125)
(-1.44674e-05 2.44907e-06 0.0111309)
(-6.25892e-06 -1.90464e-06 0.0110844)
(-8.38033e-06 -1.56264e-06 0.0111064)
(-1.09098e-05 -7.61096e-07 0.0111183)
(-1.30292e-05 4.35052e-07 0.0111251)
(-6.34821e-06 -3.02817e-06 0.0110546)
(-8.00867e-06 -2.65162e-06 0.0110867)
(-1.00017e-05 -2.14571e-06 0.011104)
(-1.14389e-05 -1.543e-06 0.0111129)
(-5.56022e-06 1.70454e-06 0.0111113)
(-7.42567e-06 1.89953e-06 0.0111256)
(-9.34451e-06 2.22628e-06 0.011133)
(-1.10866e-05 2.68095e-06 0.0111375)
(-5.6932e-06 6.0156e-07 0.0111043)
(-7.20951e-06 7.99524e-07 0.0111212)
(-8.93278e-06 1.22286e-06 0.0111299)
(-1.04731e-05 1.84055e-06 0.0111348)
(-5.34277e-06 -7.6111e-07 0.0110888)
(-6.75326e-06 -4.89697e-07 0.0111111)
(-8.30307e-06 3.97462e-08 0.0111229)
(-9.60427e-06 7.91614e-07 0.011129)
(-5.17931e-06 -1.26267e-06 0.0110583)
(-6.4098e-06 -8.90688e-07 0.0110906)
(-7.67682e-06 -5.35307e-07 0.0111078)
(-8.62998e-06 -1.4455e-07 0.0111162)
(-4.50326e-06 1.1945e-06 0.0111143)
(-5.70504e-06 1.32625e-06 0.0111286)
(-6.88887e-06 1.54005e-06 0.0111357)
(-7.93266e-06 1.8268e-06 0.0111395)
(-4.4987e-06 5.30941e-07 0.0111075)
(-5.51894e-06 6.97583e-07 0.0111243)
(-6.60751e-06 9.85006e-07 0.0111328)
(-7.55473e-06 1.38031e-06 0.0111371)
(-4.26047e-06 -2.40657e-07 0.0110918)
(-5.21389e-06 -2.57737e-08 0.0111141)
(-6.20289e-06 3.32686e-07 0.0111257)
(-7.02182e-06 8.1786e-07 0.0111313)
(-4.02694e-06 -4.52035e-07 0.0110608)
(-4.92937e-06 -1.27625e-07 0.0110931)
(-5.77033e-06 1.1807e-07 0.0111101)
(-6.4125e-06 3.65971e-07 0.0111181)
(-3.45019e-06 8.31458e-07 0.0111164)
(-4.24011e-06 9.20839e-07 0.0111306)
(-4.99249e-06 1.05782e-06 0.0111374)
(-5.59312e-06 1.22167e-06 0.0111407)
(-3.40445e-06 4.21948e-07 0.0111097)
(-4.09416e-06 5.51366e-07 0.0111263)
(-4.79865e-06 7.50689e-07 0.0111345)
(-5.37413e-06 1.00951e-06 0.0111384)
(-3.23446e-06 -3.08887e-08 0.0110938)
(-3.88482e-06 1.32604e-07 0.011116)
(-4.53052e-06 3.78662e-07 0.0111273)
(-5.04696e-06 6.98401e-07 0.0111326)
(-3.0131e-06 -1.04421e-07 0.0110626)
(-3.665e-06 1.50745e-07 0.0110948)
(-4.23173e-06 3.20904e-07 0.0111116)
(-4.66157e-06 4.78137e-07 0.0111193)
(-2.50373e-06 5.66885e-07 0.0111177)
(-3.0236e-06 6.27992e-07 0.0111318)
(-3.50603e-06 7.15649e-07 0.0111384)
(-3.83828e-06 8.02958e-07 0.0111414)
(-2.455e-06 3.09853e-07 0.0111111)
(-2.91585e-06 4.04603e-07 0.0111276)
(-3.37238e-06 5.43132e-07 0.0111356)
(-3.71256e-06 7.14284e-07 0.0111392)
(-2.33386e-06 3.8301e-08 0.0110952)
(-2.77183e-06 1.58281e-07 0.0111172)
(-3.19295e-06 3.26597e-07 0.0111284)
(-3.51166e-06 5.3803e-07 0.0111334)
(-2.15673e-06 2.28545e-08 0.0110639)
(-2.61037e-06 2.14398e-07 0.0110959)
(-2.98914e-06 3.3029e-07 0.0111126)
(-3.2679e-06 4.30193e-07 0.01112)
(-1.6679e-06 3.78341e-07 0.0111186)
(-1.99404e-06 4.19673e-07 0.0111326)
(-2.29059e-06 4.7569e-07 0.011139)
(-2.47021e-06 5.23942e-07 0.0111419)
(-1.62958e-06 2.21857e-07 0.011112)
(-1.92037e-06 2.86544e-07 0.0111284)
(-2.20258e-06 3.78161e-07 0.0111362)
(-2.39508e-06 4.87293e-07 0.0111397)
(-1.54777e-06 6.04084e-08 0.0110961)
(-1.82552e-06 1.42534e-07 0.011118)
(-2.08726e-06 2.52517e-07 0.0111291)
(-2.27368e-06 3.86113e-07 0.0111339)
(-1.42422e-06 6.31398e-08 0.0110648)
(-1.71564e-06 1.96601e-07 0.0110967)
(-1.95558e-06 2.71074e-07 0.0111132)
(-2.1246e-06 3.3148e-07 0.0111205)
(-8.89218e-07 2.40324e-07 0.0111192)
(-1.05771e-06 2.64143e-07 0.011133)
(-1.21037e-06 2.95837e-07 0.0111394)
(-1.29737e-06 3.22602e-07 0.0111421)
(-8.65903e-07 1.5797e-07 0.0111125)
(-1.01566e-06 1.94254e-07 0.0111289)
(-1.16102e-06 2.44895e-07 0.0111366)
(-1.25567e-06 3.04479e-07 0.01114)
(-8.2077e-07 7.12124e-08 0.0110966)
(-9.63294e-07 1.16731e-07 0.0111185)
(-1.09834e-06 1.77123e-07 0.0111295)
(-1.19151e-06 2.48008e-07 0.0111342)
(-7.50246e-07 7.65873e-08 0.0110653)
(-9.01798e-07 1.50606e-07 0.0110971)
(-1.02728e-06 1.89809e-07 0.0111136)
(-1.11347e-06 2.18117e-07 0.0111208)
(-6.78461e-08 6.93026e-08 0.0111194)
(-8.65957e-08 7.17506e-08 0.0111332)
(-1.09963e-07 7.83313e-08 0.0111395)
(-1.24052e-07 8.49705e-08 0.0111422)
(-6.61309e-08 5.13579e-08 0.0111128)
(-7.88585e-08 5.35637e-08 0.0111291)
(-9.89225e-08 6.21776e-08 0.0111368)
(-1.1372e-07 7.5497e-08 0.0111401)
(-6.15091e-08 3.28005e-08 0.0110968)
(-7.17127e-08 3.42916e-08 0.0111187)
(-8.73362e-08 4.27568e-08 0.0111296)
(-1.0075e-07 5.54829e-08 0.0111343)
(-5.22513e-08 4.45679e-08 0.0110655)
(-6.46426e-08 5.28989e-08 0.0110973)
(-7.67027e-08 5.10291e-08 0.0111138)
(-8.71289e-08 4.58093e-08 0.0111209)
(-0.00160929 0.00114183 0.0236901)
(-0.000350288 -0.000426636 0.00899918)
(-0.000194022 -0.000356121 0.0267641)
(0.000689964 -0.000873958 0.0151891)
(-0.00141799 -0.000377058 0.0147455)
(-0.00149798 0.00139 0.0149989)
(-0.000232307 0.000287679 0.0132114)
(0.000802458 0.000457558 0.0186259)
(-0.000378437 0.00140083 0.0169385)
(-0.000519232 0.0013436 0.0181718)
(-0.00143837 0.00193038 0.0182121)
(0.000589011 0.000149905 0.0164722)
(-0.0017247 0.000599963 0.0207995)
(0.000414369 -0.00053921 0.0126593)
(-0.000988007 0.000825699 0.0203637)
(-0.000292654 -0.000447873 0.0163398)
(0.00041814 -9.64657e-05 0.0372902)
(-0.0016456 0.00153104 0.0231702)
(0.00166527 -0.000128073 0.0192781)
(0.000356905 0.000462471 0.00613251)
(0.000312403 0.00170135 0.0269551)
(-0.000445396 0.000563882 0.00440495)
(0.000426362 0.0014339 0.013974)
(0.000602252 -0.00130334 0.0101273)
(-0.000891889 -0.000111211 0.0100414)
(-0.000853161 0.00177894 0.039134)
(-0.000709585 0.000666557 0.0222763)
(-0.000398872 -0.00195671 0.0196053)
(-0.000219151 -0.000288175 0.0245729)
(-0.000356665 0.000793561 0.0186638)
(-0.000791736 -0.000958633 0.0242635)
(0.00103278 -0.000101653 0.0158945)
(-0.000120475 0.00214237 0.0146485)
(0.000402004 0.00402562 0.0274534)
(0.000941094 0.00167164 0.0278413)
(-0.000407164 0.0026228 0.0435645)
(0.000157707 0.00308571 0.0191803)
(0.000562796 0.00111335 0.0292017)
(-0.000416389 0.000593361 0.0116757)
(-0.00101411 -0.000149036 0.0427026)
(-0.000585843 0.00106248 0.0275437)
(0.000567932 -0.000513125 0.0154438)
(0.00137702 -0.000137702 0.037144)
(6.96132e-05 0.000732947 0.0159878)
(-0.000308323 -0.000134108 0.0281155)
(-0.000391241 -3.24875e-05 0.0342261)
(0.00204896 -0.000320997 0.0256465)
(-0.000954918 0.00134416 0.0217577)
(0.000661253 0.00045145 0.0234972)
(1.75049e-05 -0.000550127 0.0156876)
(-0.000478003 9.60279e-05 0.0110135)
(0.00191289 -0.000338617 0.0350882)
(0.00169884 -0.00264784 0.0332874)
(0.00115316 0.0010854 0.0390059)
(-0.000470721 -0.000125046 0.0194157)
(0.00239812 0.0024468 0.0205949)
(0.00132178 0.000781588 0.025536)
(0.00133908 0.00303437 0.0344297)
(0.00253758 -0.0011284 0.0328638)
(0.0010794 0.00194206 0.0179346)
(0.00129066 0.00130746 0.0345452)
(-0.000167547 0.000555431 0.016298)
(0.00179067 -0.00112153 0.0260871)
(0.00190503 0.00011762 0.0358678)
(-8.38472e-05 -0.00403816 0.0499191)
(-0.000373133 -0.00276521 0.0281351)
(-0.00147452 0.000341979 0.0352625)
(0.00208332 0.00361035 0.0259618)
(0.000138003 -0.000338618 0.00530387)
(-2.1286e-05 -0.000828284 0.0146234)
(0.00151267 0.000427194 0.0156096)
(0.00081342 0.00119419 0.0131183)
(0.000544171 -0.000668827 0.0110058)
(0.000950017 0.000945086 0.0222503)
(0.00331548 -0.000379055 0.0431454)
(0.0014519 0.00104795 0.0295746)
(0.000921319 0.000703795 0.0261926)
(0.000856044 0.00129474 0.0472494)
(0.000943444 2.6683e-05 0.00757427)
(0.00100087 0.0019377 0.0219784)
(1.25121e-05 -3.97009e-05 0.00130109)
(-0.000330115 6.98272e-05 0.00671888)
(0.000102546 0.00192653 0.00959321)
(-0.000262082 0.000126344 0.00452113)
(-7.66977e-05 -0.00230537 0.0236289)
(0.00100719 -0.000867726 0.0192401)
(0.000446343 0.000145138 0.0113768)
(0.00026189 0.00259232 0.0284897)
(0.000597304 -0.000909204 0.0139035)
(-0.00028051 0.000363045 0.0175727)
(0.00212074 0.000545326 0.0205599)
(-6.29255e-05 -9.53064e-05 0.00119161)
(0.00171957 -0.000181844 0.02164)
(0.000474589 0.000619349 0.00912637)
(0.000330707 0.000920483 0.011854)
(0.000786638 -0.00058826 0.0305306)
(-0.000143822 0.000999957 0.0166946)
(0.00023404 0.000642874 0.0152021)
(-0.000459256 -1.25393e-05 0.0172976)
(8.73567e-05 0.000678165 0.0155684)
(2.2799e-05 0.000965877 0.0125117)
(-5.46759e-05 0.000417875 0.0110563)
(0.000246669 0.000531738 0.0158367)
(-0.000497478 0.000581484 0.0105681)
(2.1812e-05 -0.000114857 0.011187)
(0.000175911 -0.000370368 0.0127758)
(0.000435229 0.000533551 0.0205346)
(-0.000776814 -0.000204347 0.00703242)
(0.000243131 -0.000165552 0.0172014)
(0.00113385 -0.00037605 0.0253731)
(0.0029988 0.000977587 0.00947084)
(-0.000980551 -0.00024951 0.0248274)
(0.000176953 0.000937397 0.0304588)
(0.000181354 0.000674225 0.0220989)
(7.51161e-05 0.000365232 0.021276)
(-0.000367387 0.00124329 0.0205511)
(0.000139639 0.000929232 0.0230348)
(4.24325e-05 0.000642999 0.0197079)
(0.000424986 0.000701989 0.0222776)
(-0.000793549 0.00280958 0.0259906)
(0.00029065 0.00034521 0.0200908)
(0.000474836 -0.000221443 0.0220619)
(0.00170945 0.000709735 0.028619)
(-0.000447049 -0.000173109 0.0402131)
(9.56513e-05 -1.11343e-05 0.0230578)
(0.0007069 -0.000270509 0.0249881)
(0.000913525 0.000423954 0.0182262)
(-0.000258717 -0.0021195 0.0314268)
(0.00023511 -0.00013809 0.00625559)
(0.00070277 -0.000576068 0.00495665)
(2.73666e-06 -0.00168314 0.00455544)
(0.000473029 -0.00237424 0.00411917)
(-0.000125462 0.000180817 0.00532755)
(9.83609e-05 -0.000616604 0.00460538)
(-0.000925248 -0.00177371 0.00513649)
(-3.25479e-05 -0.0032697 0.00536928)
(-0.000219012 -0.000329958 0.0047772)
(-0.000276772 -0.000914566 0.00484978)
(-0.00199261 -0.000506682 0.00595685)
(0.000255743 -0.00147474 0.00603902)
(-0.000283506 -0.000476238 0.0050186)
(0.000272086 -0.000266512 0.00559581)
(-0.00140184 0.000377901 0.0045)
(0.000158971 0.000130764 0.00709013)
(-9.04422e-06 -9.49551e-05 0.0132814)
(0.000162195 -0.000373221 0.0127946)
(-4.49707e-05 -0.000749481 0.0126256)
(5.86263e-05 -0.000925631 0.0126995)
(-0.00016524 -4.53242e-05 0.013098)
(-7.05093e-05 -0.000377773 0.0128936)
(-0.000347717 -0.000737271 0.0132119)
(-0.00011208 -0.00107826 0.0140271)
(-0.000278321 -0.000102151 0.0129127)
(-0.000232918 -0.000341462 0.0130949)
(-0.000642287 -0.000220734 0.0137734)
(-3.79475e-05 -0.000629833 0.0154855)
(-0.000305583 -0.000187548 0.0129025)
(-0.000122951 -0.000138044 0.0132304)
(-0.000665229 4.29946e-05 0.0129469)
(-4.77336e-05 -0.000169158 0.0150625)
(8.9161e-05 -0.000205062 0.0105658)
(0.000143948 -0.000268593 0.0104956)
(2.8047e-06 -0.000386463 0.010464)
(5.18144e-06 -0.000462409 0.0105174)
(1.09184e-05 -0.000152672 0.0104847)
(6.67995e-05 -0.00023864 0.0105298)
(-0.00011116 -0.000366137 0.0106538)
(-2.7335e-05 -0.00053161 0.0109123)
(-4.21141e-05 -0.000158181 0.0103683)
(1.11491e-05 -0.000211126 0.0105432)
(-0.000229969 -0.000206506 0.0107577)
(-9.43719e-06 -0.000375798 0.0112262)
(-9.25478e-05 -0.00013432 0.0102357)
(7.1494e-06 -8.59351e-05 0.010474)
(-0.000264389 -6.97534e-05 0.0104324)
(-7.79556e-06 -0.000130174 0.0111893)
(-1.02789e-06 -0.000106099 0.0110703)
(1.25329e-05 -0.000151459 0.0110393)
(-3.51061e-05 -0.000192952 0.0110207)
(-2.33416e-05 -0.000225724 0.0110551)
(-3.92327e-05 -9.08908e-05 0.0110399)
(-2.04158e-05 -0.000138415 0.0110514)
(-8.05453e-05 -0.000180278 0.0110814)
(-2.59523e-05 -0.000248197 0.0111973)
(-7.33735e-05 -7.76269e-05 0.0109716)
(-5.04874e-05 -0.000102804 0.0110262)
(-0.000132783 -0.000103422 0.0110772)
(-2.19264e-05 -0.000168091 0.0112904)
(-9.09226e-05 -7.31616e-05 0.0108866)
(-5.95623e-05 -5.26299e-05 0.01096)
(-0.000154758 -4.4265e-05 0.0109392)
(-1.91752e-05 -5.70184e-05 0.0112474)
(2.19282e-07 -6.60349e-05 0.0109814)
(1.07923e-06 -8.17848e-05 0.0110144)
(-2.36858e-05 -9.23149e-05 0.0110322)
(-2.18809e-05 -0.000104307 0.0110639)
(-1.6984e-05 -5.70182e-05 0.0109309)
(-9.67231e-06 -7.37196e-05 0.010989)
(-3.99039e-05 -8.67656e-05 0.0110299)
(-1.84921e-05 -0.000113489 0.0110978)
(-3.16557e-05 -5.17679e-05 0.0108487)
(-2.05402e-05 -5.77826e-05 0.0109262)
(-5.93417e-05 -5.83585e-05 0.0109766)
(-1.55986e-05 -8.25094e-05 0.0110869)
(-4.25576e-05 -4.3075e-05 0.0107376)
(-2.71623e-05 -2.97009e-05 0.0108181)
(-6.92819e-05 -2.77032e-05 0.010846)
(-1.24684e-05 -3.03831e-05 0.010993)
(-5.7022e-06 -3.49645e-05 0.0109957)
(-8.11003e-06 -4.24649e-05 0.0110327)
(-1.90738e-05 -4.43282e-05 0.0110535)
(-1.88513e-05 -4.75529e-05 0.0110748)
(-1.40241e-05 -2.98917e-05 0.0109415)
(-1.16994e-05 -3.76751e-05 0.0109904)
(-2.42226e-05 -4.08577e-05 0.0110218)
(-1.52846e-05 -5.12443e-05 0.0110603)
(-2.12123e-05 -2.7416e-05 0.0108595)
(-1.5999e-05 -3.0038e-05 0.0109148)
(-3.14638e-05 -2.9449e-05 0.0109498)
(-1.30285e-05 -3.90085e-05 0.0110067)
(-2.56369e-05 -2.34362e-05 0.0107517)
(-1.91045e-05 -1.66841e-05 0.0108021)
(-3.5381e-05 -1.4779e-05 0.0108269)
(-1.02304e-05 -1.4946e-05 0.0108962)
(-6.10212e-06 -1.90063e-05 0.0109999)
(-9.40516e-06 -2.22533e-05 0.011041)
(-1.49461e-05 -2.1662e-05 0.0110645)
(-1.55414e-05 -2.14519e-05 0.011081)
(-9.93619e-06 -1.59309e-05 0.0109412)
(-1.01935e-05 -1.93852e-05 0.0109892)
(-1.60435e-05 -1.96495e-05 0.0110198)
(-1.27124e-05 -2.29417e-05 0.0110455)
(-1.3031e-05 -1.52258e-05 0.0108561)
(-1.14033e-05 -1.60781e-05 0.0109059)
(-1.81981e-05 -1.49036e-05 0.0109388)
(-1.07995e-05 -1.79582e-05 0.0109734)
(-1.45067e-05 -1.29318e-05 0.010745)
(-1.21143e-05 -9.27384e-06 0.0107874)
(-1.88379e-05 -7.63539e-06 0.010814)
(-8.17675e-06 -7.00748e-06 0.0108528)
(-5.49394e-06 -1.03308e-05 0.0110047)
(-8.64759e-06 -1.18415e-05 0.0110465)
(-1.173e-05 -1.07209e-05 0.0110708)
(-1.25367e-05 -9.48815e-06 0.0110848)
(-7.29599e-06 -8.2942e-06 0.010944)
(-8.50868e-06 -9.98489e-06 0.0109901)
(-1.14717e-05 -9.59239e-06 0.0110203)
(-1.04692e-05 -1.01354e-05 0.0110401)
(-8.53935e-06 -8.32985e-06 0.0108576)
(-8.58529e-06 -8.68438e-06 0.0109033)
(-1.17335e-05 -7.69644e-06 0.0109353)
(-8.88667e-06 -8.17978e-06 0.0109596)
(-8.61741e-06 -7.17148e-06 0.0107451)
(-8.22814e-06 -5.29541e-06 0.0107819)
(-1.11076e-05 -4.05353e-06 0.0108086)
(-6.60713e-06 -3.26578e-06 0.0108335)
(-4.55117e-06 -5.77762e-06 0.0110082)
(-7.20606e-06 -6.46695e-06 0.0110501)
(-9.09779e-06 -5.34824e-06 0.0110745)
(-9.88877e-06 -4.04315e-06 0.0110873)
(-5.378e-06 -4.36922e-06 0.0109464)
(-6.75576e-06 -5.18613e-06 0.0109914)
(-8.4884e-06 -4.68268e-06 0.0110214)
(-8.43175e-06 -4.36847e-06 0.0110384)
(-5.77841e-06 -4.67788e-06 0.0108593)
(-6.40004e-06 -4.79383e-06 0.0109028)
(-8.10688e-06 -4.03596e-06 0.0109344)
(-7.19717e-06 -3.68805e-06 0.0109542)
(-5.30795e-06 -4.09412e-06 0.0107457)
(-5.65004e-06 -3.08978e-06 0.0107798)
(-7.0968e-06 -2.22069e-06 0.0108064)
(-5.33091e-06 -1.52945e-06 0.0108253)
(-3.59396e-06 -3.2849e-06 0.0110109)
(-5.72811e-06 -3.6398e-06 0.0110527)
(-6.96832e-06 -2.70348e-06 0.0110769)
(-7.63207e-06 -1.59215e-06 0.011089)
(-3.9702e-06 -2.30908e-06 0.0109486)
(-5.24043e-06 -2.74513e-06 0.010993)
(-6.3476e-06 -2.29274e-06 0.0110226)
(-6.61011e-06 -1.78236e-06 0.0110383)
(-4.00811e-06 -2.68977e-06 0.0108612)
(-4.77468e-06 -2.72567e-06 0.0109034)
(-5.81796e-06 -2.1658e-06 0.0109346)
(-5.67896e-06 -1.62698e-06 0.0109524)
(-3.38933e-06 -2.40513e-06 0.0107469)
(-3.96437e-06 -1.86402e-06 0.0107795)
(-4.80664e-06 -1.2678e-06 0.0108059)
(-4.21296e-06 -7.18811e-07 0.0108221)
(-2.74516e-06 -1.93178e-06 0.011013)
(-4.38455e-06 -2.11488e-06 0.0110546)
(-5.2425e-06 -1.38666e-06 0.0110786)
(-5.7612e-06 -5.25321e-07 0.0110903)
(-2.91101e-06 -1.23312e-06 0.0109505)
(-3.95531e-06 -1.48567e-06 0.0109944)
(-4.71819e-06 -1.12465e-06 0.0110237)
(-5.04753e-06 -6.46875e-07 0.0110388)
(-2.81616e-06 -1.58824e-06 0.0108628)
(-3.51662e-06 -1.59983e-06 0.0109044)
(-4.22168e-06 -1.19232e-06 0.0109353)
(-4.36152e-06 -6.91967e-07 0.0109521)
(-2.22733e-06 -1.45657e-06 0.010748)
(-2.79234e-06 -1.15583e-06 0.0107799)
(-3.35619e-06 -7.51182e-07 0.0108061)
(-3.25029e-06 -3.42904e-07 0.010821)
(-2.03734e-06 -1.17376e-06 0.0110145)
(-3.25121e-06 -1.26645e-06 0.011056)
(-3.84919e-06 -7.22902e-07 0.0110798)
(-4.23349e-06 -8.98092e-08 0.0110911)
(-2.10589e-06 -6.71473e-07 0.0109519)
(-2.90707e-06 -8.20518e-07 0.0109955)
(-3.44507e-06 -5.4955e-07 0.0110246)
(-3.74021e-06 -1.7034e-07 0.0110393)
(-1.98115e-06 -9.62365e-07 0.0108642)
(-2.54349e-06 -9.62961e-07 0.0109054)
(-3.04045e-06 -6.72331e-07 0.010936)
(-3.24745e-06 -2.73827e-07 0.0109522)
(-1.48885e-06 -9.04707e-07 0.0107491)
(-1.95671e-06 -7.30335e-07 0.0107805)
(-2.35887e-06 -4.58996e-07 0.0108065)
(-2.43126e-06 -1.65528e-07 0.0108208)
(-1.45156e-06 -7.24824e-07 0.0110157)
(-2.30947e-06 -7.66603e-07 0.011057)
(-2.72125e-06 -3.79622e-07 0.0110807)
(-2.98899e-06 6.57513e-08 0.0110918)
(-1.47609e-06 -3.66134e-07 0.0109531)
(-2.05349e-06 -4.56512e-07 0.0109965)
(-2.42894e-06 -2.63602e-07 0.0110253)
(-2.65582e-06 1.24209e-08 0.0110397)
(-1.36357e-06 -5.85535e-07 0.0108653)
(-1.77778e-06 -5.83184e-07 0.0109062)
(-2.1261e-06 -3.81914e-07 0.0109366)
(-2.31399e-06 -9.08811e-08 0.0109526)
(-9.86215e-07 -5.63161e-07 0.01075)
(-1.33666e-06 -4.59553e-07 0.0107812)
(-1.62335e-06 -2.81638e-07 0.010807)
(-1.73812e-06 -7.91371e-08 0.010821)
(-9.50972e-07 -4.27961e-07 0.0110165)
(-1.51268e-06 -4.44032e-07 0.0110577)
(-1.78042e-06 -1.88498e-07 0.0110813)
(-1.95136e-06 1.033e-07 0.0110922)
(-9.57533e-07 -1.84703e-07 0.0109539)
(-1.33973e-06 -2.40599e-07 0.0109972)
(-1.58579e-06 -1.14703e-07 0.0110259)
(-1.73958e-06 6.78261e-08 0.0110401)
(-8.73048e-07 -3.36559e-07 0.0108662)
(-1.1505e-06 -3.3492e-07 0.0109069)
(-1.37981e-06 -2.06667e-07 0.0109371)
(-1.51793e-06 -1.4142e-08 0.0109529)
(-6.10393e-07 -3.29096e-07 0.0107507)
(-8.47042e-07 -2.69882e-07 0.0107817)
(-1.03925e-06 -1.62514e-07 0.0108073)
(-1.1388e-06 -3.43365e-08 0.0108212)
(-4.82131e-07 -2.02119e-07 0.011017)
(-7.89545e-07 -2.11002e-07 0.0110582)
(-9.32091e-07 -7.00098e-08 0.0110816)
(-1.02228e-06 8.93251e-08 0.0110925)
(-4.85917e-07 -5.88344e-08 0.0109544)
(-6.9422e-07 -9.30376e-08 0.0109976)
(-8.25932e-07 -2.88138e-08 0.0110262)
(-9.09538e-07 6.71077e-08 0.0110404)
(-4.37875e-07 -1.44923e-07 0.0108667)
(-5.87581e-07 -1.49113e-07 0.0109073)
(-7.10928e-07 -8.56313e-08 0.0109374)
(-7.89052e-07 1.45181e-08 0.0109531)
(-2.8747e-07 -1.39024e-07 0.0107511)
(-4.13738e-07 -1.15117e-07 0.010782)
(-5.17065e-07 -6.67368e-08 0.0108076)
(-5.76886e-07 -6.93459e-09 0.0108213)
(2.08266e-08 -3.56025e-08 0.0110173)
(-4.46926e-08 -5.56162e-08 0.0110583)
(-6.15711e-08 -2.70037e-08 0.0110818)
(-7.11032e-08 7.11132e-09 0.0110926)
(-7.27672e-10 2.97233e-08 0.0109546)
(-3.32065e-08 1.58425e-09 0.0109978)
(-4.45471e-08 1.33365e-09 0.0110264)
(-4.89612e-08 9.06897e-09 0.0110405)
(-5.0992e-09 2.11459e-08 0.0108669)
(-1.73804e-08 3.9018e-09 0.0109075)
(-2.34598e-08 1.55348e-09 0.0109376)
(-2.36018e-08 5.18487e-09 0.0109532)
(2.94858e-08 4.28524e-08 0.0107513)
(2.49994e-08 3.59872e-08 0.0107822)
(2.71223e-08 2.73869e-08 0.0108077)
(3.47692e-08 1.27607e-08 0.0108214)
(0.00150016 0.00260967 0.0197081)
(-0.00141338 0.00284749 0.0287846)
(-0.000620739 0.000170743 0.0122201)
(0.00196118 0.000432509 0.0204117)
(0.000427086 0.00102479 0.00602412)
(-0.000528981 0.00162508 0.0196038)
(0.000252427 0.00174811 0.0137806)
(0.00162894 0.00222615 0.0170032)
(-0.00219529 0.0024978 0.0193465)
(-0.00408671 0.0025945 0.0174188)
(-0.000432755 0.00167772 0.0123391)
(-0.000754864 0.00180492 0.0202595)
(-0.00144713 -0.00137304 0.0147158)
(-0.00044365 -0.000393652 0.00872162)
(-0.000147721 0.001187 0.025887)
(-0.00054495 0.000592685 0.0105818)
(0.000113205 -0.000216579 0.00869769)
(-0.000579846 0.00103783 0.0233848)
(-0.000288614 0.000506068 0.00654158)
(0.0001721 -1.164e-05 0.00671602)
(-0.000326127 -4.42977e-05 0.0327176)
(-0.000669237 -0.000794412 0.0150275)
(-0.002324 -0.000332947 0.0214952)