/*--------------------------------*- C++ -*----------------------------------*\
| =========                 |                                                 |
| \\      /  F ield         | OpenFOAM: The Open Source CFD Toolbox           |
|  \\    /   O peration     | Version:  2506                                  |
|   \\  /    A nd           | Website:  www.openfoam.com                      |
|    \\/     M anipulation  |                                                 |
\*---------------------------------------------------------------------------*/
FoamFile
{
    version     2.0;
    format      ascii;
    arch        "LSB;label=32;scalar=64";
    class       volVectorField;
    location    "0.05";
    object      U;
}
// * * * * * * * * * * * * * * * * * * * * * * * * * * * * * * * * * * * * * //

dimensions      [0 1 -1 0 0 0 0];

internalField   nonuniform List<vector> 
1152
(
(-0.000161885 0.00059688 0.0143631)
(0.000558822 -0.00043811 0.00711065)
(0.0048168 -0.000770588 0.0123859)
(0.00318092 0.000445779 0.013053)
(-0.000854498 0.00185945 0.0249677)
(-0.000581014 0.00129039 0.0189642)
(0.00107426 -0.000375991 0.0120921)
(0.000540935 -0.000486881 0.00163531)
(-0.00154721 0.00089417 0.0124778)
(-0.000273757 0.00123677 0.0156774)
(0.00179782 0.000662735 0.0173789)
(0.00126038 -0.00101487 0.0272562)
(-0.00114577 0.00246281 0.0180776)
(-0.00158925 0.000938505 0.0178111)
(-0.000320523 0.00101934 0.0138903)
(0.000856185 -0.00218978 0.0181167)
(-0.000506183 0.000299518 0.0218622)
(-0.000388692 0.000611079 0.0129454)
(0.00457035 0.00171682 0.0243012)
(-0.000283631 -5.79583e-05 0.000878069)
(0.00105655 -0.00018035 0.0119979)
(-0.000107948 -0.000306343 0.0179788)
(-9.48887e-06 0.000244096 0.024375)
(-0.00290435 -0.00541762 0.0248482)
(0.000276563 0.000937609 0.0190413)
(7.49646e-05 -0.000573869 0.01702)
(-7.95739e-05 0.000168084 0.00511932)
(0.00143275 -0.0018938 0.027229)
(-0.000405674 0.000432824 0.0147124)
(-0.00171894 0.000923645 0.0271916)
(-0.000832556 -0.00112385 0.0185999)
(0.000585537 0.0014402 0.0108383)
(-0.00250433 0.000536163 0.029066)
(-0.000679243 -0.000108313 0.00947571)
(-0.00402828 -0.000644218 0.0239634)
(-0.00403665 -0.00467776 0.035866)
(-0.000280147 -0.00222116 0.0431866)
(-0.00235496 0.000380529 0.0397291)
(-0.000392231 0.000627226 0.00585304)
(0.000619572 0.00550333 0.032017)
(-0.00151383 -0.000686381 0.0180266)
(0.000647047 -0.000447584 0.0259003)
(7.66461e-05 0.00253529 0.0379271)
(3.01498e-05 0.00191531 0.0230469)
(-0.00208444 0.000715185 0.0510327)
(7.86376e-05 5.23118e-05 0.0104864)
(0.000520101 -3.28871e-05 0.027544)
(0.000341041 0.00144062 0.0162574)
(0.000524968 -0.00286579 0.0343399)
(8.70423e-05 -7.97507e-05 0.00221293)
(-0.00259689 0.000235211 0.0220841)
(-0.00107604 -0.00205088 0.0416378)
(-0.00218303 0.000214656 0.026222)
(0.000333109 -0.00123526 0.0244474)
(-0.00057705 -0.000180335 0.0225298)
(0.000218412 0.00228843 0.0301091)
(-0.000101538 7.09912e-05 0.00595073)
(-0.000620559 0.00125589 0.0177911)
(0.00048276 0.000831148 0.0186344)
(0.00116118 0.00173266 0.0316444)
(0.000226687 0.000969014 0.0145777)
(0.00123956 0.00101852 0.0252979)
(-0.000947793 0.00203461 0.0234882)
(4.42602e-05 6.38628e-05 0.00190103)
(-0.000261698 -6.43712e-05 0.00288105)
(-0.00424911 0.000826485 0.0271221)
(-0.00325886 -0.000532298 0.0299837)
(0.00661143 0.00308952 0.0377253)
(-0.00130595 -0.000791671 0.0291431)
(-0.00225028 0.00103138 0.0281762)
(-0.00102621 0.00144344 0.019956)
(0.00141612 0.0009679 0.0148476)
(0.000339156 0.00119695 0.0143571)
(-0.00128476 0.00141628 0.0272126)
(-0.00128013 0.00132097 0.0190466)
(-0.0020589 0.0023205 0.0453991)
(0.0017631 -0.00108967 0.0342286)
(-0.00169458 -0.000104461 0.0206953)
(-0.00186376 0.000407011 0.030598)
(0.000136167 0.000450756 0.0109338)
(-0.00425034 -0.00119972 0.0297409)
(-0.000884112 0.000224426 0.0105551)
(-0.000799663 0.00046815 0.0127043)
(-0.000394592 -6.67902e-05 0.00263478)
(-0.00113827 0.000796056 0.0148735)
(-0.00159379 0.000153916 0.0166429)
(-0.000444285 -0.000122872 0.00715288)
(-0.000760107 -0.000389192 0.0182719)
(-0.000488367 -0.000164596 0.0114366)
(-0.00186462 0.000181847 0.0111592)
(-0.00242459 -0.00140224 0.0252237)
(0.000244034 0.00108625 0.00969921)
(-0.00556704 0.000788887 0.0349823)
(-0.00263128 0.00121052 0.0198268)
(0.00116404 0.00186048 0.0170656)
(-5.83044e-05 0.000178803 0.00158663)
(-2.6761e-05 0.000228541 0.0104862)
(-0.000305115 0.000105724 0.0135942)
(-0.000360125 -0.000119104 0.0163596)
(0.000420453 0.000109739 0.0183509)
(-0.000389625 0.000137867 0.0170897)
(4.72215e-05 0.000224048 0.0148247)
(-5.08417e-05 0.00021025 0.0107889)
(-0.000439153 0.000230969 0.012892)
(-0.000249008 -8.76631e-05 0.0147801)
(-0.00020737 6.2894e-05 0.0151499)
(-0.00012574 0.000204066 0.0124988)
(8.6474e-05 9.54339e-05 0.0189258)
(-0.0004496 -0.000244368 0.0218694)
(9.87391e-05 7.80112e-05 0.0138826)
(-0.000306084 0.000110538 0.00780267)
(1.71559e-06 0.000108338 0.00692237)
(0.00171476 0.00064313 0.0212807)
(0.0010619 0.000281626 0.0190017)
(0.000613622 7.30282e-05 0.0203541)
(9.26281e-05 7.41282e-05 0.0268231)
(0.00071931 0.000673177 0.0218079)
(0.000870154 0.000399574 0.0203773)
(0.000531597 0.000168629 0.0161586)
(-1.11229e-05 3.17565e-05 0.0216873)
(0.000444956 0.000547523 0.0221308)
(0.000437149 0.000416381 0.021229)
(0.000132579 7.26266e-05 0.0207694)
(-5.51104e-05 -0.000196067 0.0238195)
(0.000241999 0.000423096 0.0292545)
(0.000245856 0.000396119 0.02144)
(-0.000218765 0.000151034 0.0147981)
(-0.000784962 0.00029858 0.0165039)
(0.000830762 0.000208559 0.00550292)
(0.000710003 -4.79949e-05 0.00461881)
(-0.000454543 -0.000341033 0.00479765)
(0.000127858 0.000138009 0.0064649)
(0.000246072 -0.000227304 0.00524261)
(0.000775687 -0.000234622 0.00463486)
(-0.000214592 -0.000204602 0.00406286)
(-0.00083003 0.000197123 0.00517252)
(0.000511151 -0.000918005 0.00555304)
(0.0006303 -0.000460959 0.00487043)
(-0.000124877 -0.000286853 0.00434132)
(2.50166e-06 0.000272842 0.00480317)
(0.00058575 -0.000995423 0.00655767)
(0.0012619 -0.000695287 0.00485404)
(0.000406331 -0.000768022 0.00357784)
(0.000378511 -0.00047896 0.00346184)
(0.00049958 0.000146977 0.0126543)
(0.000385678 9.86263e-05 0.0123342)
(-0.000209687 2.54123e-05 0.0123133)
(-0.00011511 0.000221392 0.0131993)
(0.000258423 -2.39994e-05 0.0125476)
(0.000370148 -3.06981e-05 0.0122825)
(-0.000122459 1.20549e-05 0.0120202)
(-0.000390272 0.000231893 0.0127013)
(0.00031421 -0.000288546 0.0128933)
(0.000361996 -0.000182836 0.0125413)
(-7.23865e-06 -0.000105383 0.0122998)
(-7.60438e-05 0.000169622 0.0126198)
(0.000169805 -0.000234 0.013355)
(0.000473942 -0.000295436 0.0126368)
(0.000157771 -0.000371385 0.0120629)
(6.43156e-05 -0.000249294 0.0120851)
(0.000219616 3.47751e-05 0.0107038)
(0.000170475 4.54405e-05 0.0105543)
(-7.30213e-05 3.28728e-05 0.0105153)
(-8.53862e-05 0.000100702 0.0108377)
(0.000146289 -6.6079e-05 0.0105988)
(0.000160416 -4.48603e-05 0.0104744)
(-4.68139e-05 -1.48965e-05 0.0103814)
(-0.000156202 7.41623e-05 0.0106362)
(0.000205474 -0.000230768 0.010694)
(0.000198291 -0.0001654 0.0105431)
(2.03392e-05 -0.000113716 0.01044)
(-4.36097e-05 2.20995e-06 0.0105604)
(0.000191816 -0.000269988 0.0107474)
(0.00024392 -0.000259436 0.0105464)
(8.73969e-05 -0.00026332 0.0103748)
(2.57941e-05 -0.000213804 0.0103998)
(0.000111894 1.84018e-05 0.0111659)
(8.27655e-05 2.48142e-05 0.0111149)
(-1.73418e-05 2.22966e-05 0.0110932)
(-4.08358e-05 4.27389e-05 0.0112056)
(7.53226e-05 -2.20621e-05 0.0111221)
(7.02858e-05 -2.09708e-05 0.0110793)
(-1.37924e-05 -1.23782e-05 0.0110479)
(-5.84308e-05 1.88793e-05 0.0111402)
(9.21836e-05 -9.24667e-05 0.0111749)
(8.47516e-05 -8.50592e-05 0.0111136)
(1.37367e-05 -7.18439e-05 0.0110712)
(-1.90367e-05 -3.20112e-05 0.0111189)
(5.56143e-05 -0.000108597 0.0112088)
(7.83499e-05 -0.000133113 0.0111349)
(2.703e-05 -0.0001467 0.0110748)
(1.03193e-05 -0.000138103 0.0110891)
(5.86523e-05 5.87812e-06 0.0111804)
(4.26179e-05 8.54883e-06 0.0111647)
(2.47995e-06 8.45975e-06 0.0111557)
(-1.4522e-05 1.4124e-05 0.0111945)
(4.12635e-05 -1.49729e-05 0.0111534)
(3.55168e-05 -1.59398e-05 0.0111451)
(2.00656e-06 -1.31595e-05 0.0111377)
(-1.79386e-05 -2.72753e-06 0.0111716)
(4.97861e-05 -5.30388e-05 0.0111628)
(4.25202e-05 -5.11502e-05 0.0111533)
(1.31906e-05 -4.60247e-05 0.0111435)
(-3.25444e-06 -3.24716e-05 0.0111636)
(3.47096e-05 -6.85808e-05 0.0111504)
(3.79432e-05 -7.75807e-05 0.011153)
(1.65685e-05 -8.15112e-05 0.011147)
(9.2996e-06 -8.01347e-05 0.01116)
(3.10874e-05 3.78545e-07 0.0111996)
(2.27592e-05 9.98291e-07 0.0111986)
(6.53831e-06 1.1197e-06 0.0111966)
(-2.97519e-06 2.6531e-06 0.0112095)
(2.19943e-05 -9.68328e-06 0.0111845)
(1.88395e-05 -1.14387e-05 0.0111888)
(5.85801e-06 -1.09092e-05 0.0111891)
(-3.28374e-06 -7.61324e-06 0.0112016)
(2.5032e-05 -2.81407e-05 0.0111817)
(2.12083e-05 -2.90466e-05 0.0111886)
(9.72492e-06 -2.77577e-05 0.0111896)
(2.43381e-06 -2.34645e-05 0.011198)
(1.64242e-05 -3.6716e-05 0.0111628)
(1.76264e-05 -4.2111e-05 0.0111813)
(1.00845e-05 -4.4118e-05 0.0111876)
(7.93085e-06 -4.43801e-05 0.0111959)
(1.68875e-05 -1.55981e-06 0.0112105)
(1.28009e-05 -1.61187e-06 0.0112166)
(5.97884e-06 -1.60059e-06 0.0112184)
(1.05155e-06 -1.16299e-06 0.011223)
(1.22962e-05 -6.89913e-06 0.0112005)
(1.08458e-05 -8.25267e-06 0.0112109)
(5.63846e-06 -8.27049e-06 0.0112147)
(1.33545e-06 -7.09695e-06 0.0112197)
(1.3152e-05 -1.57945e-05 0.0111911)
(1.14597e-05 -1.68623e-05 0.011206)
(6.9774e-06 -1.66837e-05 0.011212)
(3.74025e-06 -1.51884e-05 0.0112168)
(8.75969e-06 -2.03626e-05 0.0111664)
(9.38058e-06 -2.30385e-05 0.0111927)
(6.83389e-06 -2.41025e-05 0.0112045)
(6.31887e-06 -2.43894e-05 0.0112111)
(9.33274e-06 -1.9774e-06 0.0112161)
(7.49156e-06 -2.19734e-06 0.0112257)
(4.56765e-06 -2.24849e-06 0.0112292)
(2.09299e-06 -2.09205e-06 0.0112316)
(7.13407e-06 -4.87139e-06 0.0112085)
(6.5635e-06 -5.73519e-06 0.0112216)
(4.42592e-06 -5.85312e-06 0.0112268)
(2.37381e-06 -5.37499e-06 0.0112297)
(7.18536e-06 -9.09333e-06 0.011196)
(6.58974e-06 -9.9235e-06 0.0112143)
(4.88948e-06 -1.00285e-05 0.0112225)
(3.47476e-06 -9.44766e-06 0.0112262)
(4.92411e-06 -1.13428e-05 0.0111683)
(5.42068e-06 -1.27059e-05 0.0111974)
(4.71782e-06 -1.33248e-05 0.0112114)
(4.68761e-06 -1.35083e-05 0.0112174)
(5.29164e-06 -1.82541e-06 0.0112188)
(4.54589e-06 -2.04861e-06 0.0112303)
(3.26877e-06 -2.11399e-06 0.0112347)
(2.04959e-06 -2.04736e-06 0.0112364)
(4.26679e-06 -3.39594e-06 0.0112121)
(4.10402e-06 -3.91587e-06 0.0112265)
(3.22103e-06 -4.02027e-06 0.0112325)
(2.24629e-06 -3.7953e-06 0.0112348)
(4.11328e-06 -5.38708e-06 0.011198)
(3.99105e-06 -5.95229e-06 0.0112179)
(3.3815e-06 -6.08304e-06 0.0112271)
(2.77217e-06 -5.82546e-06 0.0112306)
(2.91475e-06 -6.43392e-06 0.0111687)
(3.3399e-06 -7.13937e-06 0.011199)
(3.27291e-06 -7.49727e-06 0.0112139)
(3.35977e-06 -7.60522e-06 0.0112199)
(3.10345e-06 -1.50319e-06 0.0112201)
(2.83882e-06 -1.67146e-06 0.0112325)
(2.27346e-06 -1.7207e-06 0.0112375)
(1.67434e-06 -1.68615e-06 0.0112391)
(2.61485e-06 -2.33328e-06 0.0112137)
(2.62179e-06 -2.64322e-06 0.0112288)
(2.26379e-06 -2.71786e-06 0.0112353)
(1.80662e-06 -2.60431e-06 0.0112375)
(2.45436e-06 -3.26018e-06 0.0111988)
(2.50636e-06 -3.63339e-06 0.0112195)
(2.31338e-06 -3.73897e-06 0.0112292)
(2.06164e-06 -3.60605e-06 0.0112328)
(1.79435e-06 -3.68985e-06 0.0111685)
(2.13027e-06 -4.07746e-06 0.0111994)
(2.26205e-06 -4.30193e-06 0.0112148)
(2.36928e-06 -4.36405e-06 0.0112209)
(1.88696e-06 -1.15665e-06 0.0112207)
(1.82236e-06 -1.26738e-06 0.0112336)
(1.58271e-06 -1.29652e-06 0.0112389)
(1.24627e-06 -1.26088e-06 0.0112406)
(1.64032e-06 -1.5739e-06 0.0112144)
(1.70593e-06 -1.75806e-06 0.0112299)
(1.57349e-06 -1.81787e-06 0.0112366)
(1.34871e-06 -1.77234e-06 0.0112389)
(1.52052e-06 -2.00195e-06 0.011199)
(1.61623e-06 -2.25379e-06 0.0112201)
(1.57219e-06 -2.32861e-06 0.0112301)
(1.47531e-06 -2.2561e-06 0.0112338)
(1.12335e-06 -2.1498e-06 0.0111682)
(1.38699e-06 -2.37011e-06 0.0111994)
(1.56228e-06 -2.51402e-06 0.011215)
(1.65683e-06 -2.55036e-06 0.0112212)
(1.18793e-06 -8.46609e-07 0.011221)
(1.20076e-06 -9.18665e-07 0.0112341)
(1.1147e-06 -9.35576e-07 0.0112396)
(8.82306e-07 -8.87349e-07 0.0112414)
(1.05178e-06 -1.03603e-06 0.0112146)
(1.12582e-06 -1.15442e-06 0.0112303)
(1.09448e-06 -1.21277e-06 0.0112372)
(9.67512e-07 -1.2009e-06 0.0112396)
(9.68589e-07 -1.2313e-06 0.011199)
(1.0511e-06 -1.40342e-06 0.0112203)
(1.07244e-06 -1.45073e-06 0.0112304)
(1.04015e-06 -1.41447e-06 0.0112343)
(7.18798e-07 -1.24697e-06 0.0111678)
(9.19925e-07 -1.38612e-06 0.0111992)
(1.08297e-06 -1.47352e-06 0.011215)
(1.14288e-06 -1.51511e-06 0.0112213)
(7.6755e-07 -5.92635e-07 0.0112211)
(8.02031e-07 -6.4088e-07 0.0112344)
(7.815e-07 -6.5215e-07 0.0112399)
(6.14923e-07 -6.04585e-07 0.0112418)
(6.8801e-07 -6.64784e-07 0.0112146)
(7.50399e-07 -7.44684e-07 0.0112305)
(7.57448e-07 -7.92252e-07 0.0112375)
(6.7624e-07 -7.97117e-07 0.0112399)
(6.32539e-07 -7.49999e-07 0.0111988)
(6.93446e-07 -8.65009e-07 0.0112203)
(7.32771e-07 -8.92725e-07 0.0112305)
(7.17977e-07 -8.7858e-07 0.0112344)
(4.76718e-07 -7.1539e-07 0.0111675)
(6.20828e-07 -7.94793e-07 0.011199)
(7.46416e-07 -8.56793e-07 0.0112149)
(7.74613e-07 -8.93413e-07 0.0112213)
(5.04476e-07 -3.83305e-07 0.0112211)
(5.37559e-07 -4.15077e-07 0.0112345)
(5.41e-07 -4.23096e-07 0.0112401)
(4.36507e-07 -3.89171e-07 0.011242)
(4.59203e-07 -4.04291e-07 0.0112146)
(5.05032e-07 -4.54824e-07 0.0112305)
(5.21509e-07 -4.86833e-07 0.0112376)
(4.71317e-07 -4.96464e-07 0.0112401)
(4.24596e-07 -4.34047e-07 0.0111987)
(4.67542e-07 -5.06465e-07 0.0112202)
(5.02153e-07 -5.21723e-07 0.0112305)
(4.92694e-07 -5.19399e-07 0.0112345)
(3.31442e-07 -3.90292e-07 0.0111673)
(4.27535e-07 -4.36398e-07 0.0111988)
(5.11476e-07 -4.78243e-07 0.0112147)
(5.20241e-07 -5.06428e-07 0.0112212)
(3.55173e-07 -1.98598e-07 0.0112211)
(3.8501e-07 -2.17014e-07 0.0112345)
(3.98456e-07 -2.22868e-07 0.0112401)
(3.51389e-07 -2.05835e-07 0.011242)
(3.31452e-07 -2.0033e-07 0.0112146)
(3.67496e-07 -2.30791e-07 0.0112305)
(3.86858e-07 -2.47934e-07 0.0112376)
(3.64936e-07 -2.56507e-07 0.0112401)
(3.09183e-07 -2.04834e-07 0.0111986)
(3.45122e-07 -2.45372e-07 0.0112201)
(3.74671e-07 -2.56063e-07 0.0112305)
(3.72483e-07 -2.59964e-07 0.0112345)
(2.58094e-07 -1.66189e-07 0.0111671)
(3.23004e-07 -1.96775e-07 0.0111987)
(3.7449e-07 -2.2453e-07 0.0112146)
(3.80227e-07 -2.46312e-07 0.0112211)
(3.36973e-07 -7.71762e-08 0.011221)
(3.79194e-07 -8.8054e-08 0.0112344)
(4.07642e-07 -9.43115e-08 0.0112401)
(4.08901e-07 -9.20701e-08 0.011242)
(3.23549e-07 -6.90895e-08 0.0112145)
(3.68942e-07 -8.75773e-08 0.0112304)
(3.99804e-07 -9.99152e-08 0.0112376)
(4.08123e-07 -1.08581e-07 0.0112401)
(3.07321e-07 -5.6654e-08 0.0111985)
(3.5262e-07 -8.41902e-08 0.0112201)
(3.87438e-07 -9.90037e-08 0.0112305)
(4.02652e-07 -1.09719e-07 0.0112345)
(2.7409e-07 -2.77643e-08 0.011167)
(3.30635e-07 -5.90648e-08 0.0111986)
(3.75349e-07 -8.31322e-08 0.0112145)
(3.94122e-07 -1.03752e-07 0.0112211)
(-0.00216933 0.00119367 0.0242372)
(-0.000624055 -0.000358212 0.00925528)
(-0.00109263 0.00010783 0.027246)
(9.61045e-05 -0.000521042 0.0153129)
(-0.0016766 -0.000209482 0.0151487)
(-0.00182774 0.00141468 0.015277)
(-0.000640441 0.000446878 0.0134555)
(0.000119323 0.000734221 0.0187763)
(-0.000566645 0.00147797 0.0171316)
(-0.000890982 0.00142582 0.0183987)
(-0.00202753 0.00199288 0.0185138)
(-1.43972e-05 0.000322726 0.0168455)
(-0.0019818 0.000485703 0.0211927)
(0.00022678 -0.000554341 0.0128923)
(-0.001508 0.000735589 0.0206102)
(-0.000841803 -0.000474822 0.0165379)
(8.36068e-05 -7.70076e-05 0.0380336)
(-0.001964 0.0016776 0.0235537)
(0.00136808 -4.14419e-05 0.0198119)
(0.000234319 0.000484958 0.00634247)
(0.000125174 0.0019059 0.0278002)
(-0.000550147 0.000571118 0.00443496)
(0.000169081 0.00152335 0.0146586)
(0.00045013 -0.00118605 0.0112259)
(-0.00105264 -2.84718e-05 0.0102925)
(-0.00093601 0.00165089 0.0399214)
(-0.0010962 0.000713901 0.0229032)
(-0.00064392 -0.00169907 0.0200809)
(-0.000264475 -0.000292331 0.0250501)
(-0.000397681 0.00082092 0.019141)
(-0.00100965 -0.00102314 0.0251241)
(0.000845291 2.65738e-05 0.0162449)
(-0.000223046 0.00225323 0.0153337)
(0.00031369 0.00404496 0.027812)
(0.000816889 0.00157312 0.028719)
(-0.00088772 0.00246427 0.044187)
(6.54187e-05 0.00323917 0.0193434)
(0.000515991 0.00119923 0.0306074)
(-0.000567681 0.000632361 0.011583)
(-0.0014377 -3.07424e-05 0.0430701)
(-0.00059335 0.00127295 0.0282121)
(0.000638521 -0.000462278 0.0159472)
(0.00109775 -7.86415e-05 0.038162)
(-1.41042e-05 0.000760864 0.016649)
(-0.000310122 -4.2993e-05 0.0287577)
(-0.000590699 -5.9703e-05 0.0350039)
(0.00198389 -0.000437242 0.0261351)
(-0.00114652 0.00138126 0.0225106)
(0.000705572 0.000481844 0.0235587)
(5.81415e-05 -0.000515405 0.0159002)
(-0.000531287 0.000100722 0.0112155)
(0.00159885 -9.96217e-05 0.0360226)
(0.0016762 -0.00258397 0.0336536)
(0.00138811 0.00130703 0.040519)
(-0.000626195 7.49134e-05 0.0197485)
(0.00219354 0.00249412 0.0202127)
(0.00118735 0.000826155 0.02608)
(0.00126676 0.00338564 0.0352496)
(0.00250725 -0.00109268 0.0343836)
(0.00107627 0.00197362 0.0186484)
(0.00122103 0.00139724 0.0352796)
(-8.12854e-05 0.000692138 0.0169011)
(0.00163867 -0.0011639 0.0262041)
(0.00181916 1.95315e-05 0.0368725)
(3.40153e-05 -0.00417923 0.0505117)
(3.50386e-05 -0.00271203 0.0285957)
(-0.00148434 0.000496497 0.0361657)
(0.00192637 0.00393562 0.0266261)
(0.000234764 -0.000308244 0.00542712)
(6.74746e-05 -0.000665963 0.0149342)
(0.00164061 0.000500968 0.0160712)
(0.000643977 0.00146199 0.0133005)
(0.000455246 -0.000623408 0.011674)
(0.000924353 0.00122457 0.0228806)
(0.00396286 -9.49119e-05 0.0454281)
(0.00208573 0.00117127 0.0298698)
(0.000904339 0.000779315 0.0268226)
(0.000986097 0.00140178 0.0485377)
(0.000994643 0.000130411 0.00753969)
(0.00124126 0.00179557 0.0225524)
(0.000142814 -5.22329e-05 0.00128793)
(-0.000224749 0.00016537 0.00675192)
(7.06526e-05 0.00203419 0.0100528)
(-0.000273114 9.18383e-05 0.00464948)
(-0.000213567 -0.00182002 0.0243723)
(0.000997344 -0.000780418 0.0196889)
(0.000299993 0.000140377 0.0116738)
(2.73206e-05 0.00232338 0.0288874)
(0.000529281 -0.000783488 0.0139003)
(-0.000395334 0.000475051 0.0181694)
(0.00193066 0.000430173 0.020814)
(-6.68931e-05 -5.06442e-05 0.00109797)
(0.0018077 -0.000167449 0.0222666)
(0.000483187 0.00067349 0.00943824)
(0.000432404 0.00103323 0.0120704)
(0.000645738 -9.22327e-05 0.0306018)
(-0.000104873 0.000833998 0.0191233)
(8.84825e-05 0.000501017 0.0158263)
(-0.000335245 -0.000124552 0.0178904)
(8.65506e-05 0.000560307 0.0163909)
(0.000154878 0.000498118 0.0131556)
(-9.78729e-05 0.000225576 0.0114243)
(0.000198775 0.000480806 0.0165602)
(-0.000510414 0.000621678 0.0106228)
(-2.98651e-05 -0.000325709 0.0115438)
(0.000103873 -0.000312004 0.0133806)
(0.000484385 0.000685424 0.021018)
(-0.00067276 1.74856e-05 0.00910129)
(0.000248686 -0.000177801 0.0176442)
(0.00107063 -0.000371245 0.0262207)
(0.00292315 0.00111896 0.00960551)
(-0.000955549 -0.000639995 0.0253849)
(0.000145236 0.0009057 0.0300498)
(8.12988e-05 0.000562431 0.0223484)
(-1.12397e-05 0.000228152 0.0216357)
(-0.000415831 0.00103591 0.0210482)
(0.000114605 0.000812217 0.0230886)
(-3.48797e-05 0.000482725 0.0199862)
(0.000314169 0.000583937 0.022531)
(-0.000826339 0.00229846 0.0255845)
(0.000237234 0.000246045 0.0202383)
(0.000402395 -0.000359962 0.0223866)
(0.00136651 0.000630803 0.0283588)
(-0.00050999 -0.00032815 0.0374136)
(3.88105e-05 -6.38869e-05 0.0233399)
(0.000654582 -0.000328088 0.0254528)
(0.00078516 0.000414329 0.0183605)
(-0.000347444 -0.00189342 0.0308347)
(0.000238223 -0.000153957 0.00638317)
(0.000732668 -0.000600727 0.00514219)
(2.92759e-05 -0.00168922 0.00478977)
(0.000481759 -0.00235848 0.0044033)
(-0.000122816 0.000160307 0.00547443)
(0.000142885 -0.000634826 0.00481292)
(-0.000871411 -0.00172157 0.00542336)
(-8.16216e-05 -0.0031747 0.00573504)
(-0.000215701 -0.000357211 0.00493864)
(-0.000201981 -0.000931803 0.00509849)
(-0.00188713 -0.000486925 0.00626877)
(0.000200349 -0.0014765 0.00673618)
(-0.000290477 -0.000493008 0.00518331)
(0.000318311 -0.000274331 0.00585578)
(-0.00133774 0.000360965 0.00478923)
(0.000129774 7.77646e-05 0.00755408)
(1.07819e-05 -0.000103687 0.0135033)
(0.000196333 -0.000387283 0.0130223)
(-1.15678e-05 -0.000774596 0.0128474)
(9.59669e-05 -0.000969242 0.0129299)
(-0.000148287 -5.31505e-05 0.0133184)
(-4.03896e-05 -0.000387847 0.0131229)
(-0.000324647 -0.000744221 0.0134236)
(-0.000100355 -0.00111017 0.0142308)
(-0.000264929 -0.000107383 0.0131369)
(-0.000202175 -0.000347083 0.0133314)
(-0.000628048 -0.000223117 0.0139638)
(-4.06947e-05 -0.000640539 0.0156524)
(-0.000298733 -0.000187878 0.0131223)
(-9.98416e-05 -0.000136745 0.0134693)
(-0.000647194 4.26095e-05 0.0131471)
(-5.01946e-05 -0.000164295 0.015261)
(0.000108832 -0.000217253 0.0107346)
(0.000175297 -0.000285243 0.0106622)
(3.79089e-05 -0.000416173 0.010627)
(5.31413e-05 -0.000507919 0.0106832)
(2.71716e-05 -0.000163088 0.0106539)
(9.06078e-05 -0.000251796 0.0106972)
(-8.73676e-05 -0.00038627 0.0108167)
(6.77373e-06 -0.000566592 0.0110819)
(-2.97026e-05 -0.000163645 0.0105384)
(2.98284e-05 -0.000217807 0.0107124)
(-0.000215467 -0.000216347 0.0109175)
(1.44632e-05 -0.000394164 0.0114023)
(-8.58084e-05 -0.00013438 0.0103995)
(2.01995e-05 -8.59908e-05 0.0106395)
(-0.00025411 -7.13432e-05 0.0105879)
(9.96499e-06 -0.0001335 0.011354)
(1.62696e-05 -0.00011476 0.0112313)
(4.00935e-05 -0.000163368 0.0111977)
(-1.24457e-06 -0.000214522 0.0111766)
(2.14368e-05 -0.000258248 0.0112098)
(-2.4515e-05 -9.89243e-05 0.0112025)
(6.07481e-07 -0.000148346 0.0112124)
(-5.52203e-05 -0.000196341 0.0112413)
(9.93407e-06 -0.000272891 0.0113597)
(-6.1941e-05 -8.04035e-05 0.0111354)
(-3.47618e-05 -0.000106793 0.011189)
(-0.00011439 -0.000110817 0.0112393)
(6.5441e-06 -0.000181509 0.011459)
(-8.43195e-05 -7.19133e-05 0.0110449)
(-4.89335e-05 -5.16911e-05 0.0111194)
(-0.00014184 -4.47477e-05 0.0110978)
(3.00301e-06 -5.99591e-05 0.0114128)
(1.54381e-05 -7.18572e-05 0.011128)
(2.51524e-05 -8.98984e-05 0.0111587)
(6.38598e-06 -0.00010721 0.0111738)
(1.54295e-05 -0.000126486 0.0112019)
(-3.78174e-06 -6.26194e-05 0.0110789)
(9.18025e-06 -8.07496e-05 0.0111356)
(-1.60574e-05 -9.83148e-05 0.0111752)
(1.35544e-05 -0.000130538 0.0112414)
(-2.12081e-05 -5.32136e-05 0.0109977)
(-6.11414e-06 -6.00862e-05 0.0110742)
(-4.05492e-05 -6.35422e-05 0.011124)
(1.11795e-05 -9.1849e-05 0.0112345)
(-3.61e-05 -4.13678e-05 0.0108818)
(-1.72672e-05 -2.83017e-05 0.0109628)
(-5.54897e-05 -2.76252e-05 0.0109907)
(8.83982e-06 -3.2469e-05 0.0111389)
(7.07563e-06 -3.86995e-05 0.0111313)
(1.1978e-05 -4.76825e-05 0.0111661)
(5.87924e-06 -5.4264e-05 0.0111838)
(1.10615e-05 -6.24503e-05 0.0112009)
(-2.76998e-06 -3.36843e-05 0.0110783)
(4.49941e-06 -4.23486e-05 0.0111256)
(-3.56613e-06 -4.87556e-05 0.0111551)
(1.10642e-05 -6.29895e-05 0.0111904)
(-1.21364e-05 -2.78649e-05 0.010997)
(-3.32928e-06 -3.11689e-05 0.0110511)
(-1.46633e-05 -3.28551e-05 0.0110848)
(9.80686e-06 -4.5506e-05 0.0111393)
(-1.98906e-05 -2.15833e-05 0.0108855)
(-1.02399e-05 -1.51028e-05 0.0109358)
(-2.26447e-05 -1.42905e-05 0.01096)
(8.18871e-06 -1.62092e-05 0.0110276)
(4.31601e-06 -2.1199e-05 0.0111267)
(6.85792e-06 -2.54606e-05 0.0111657)
(5.02892e-06 -2.81947e-05 0.0111863)
(7.82937e-06 -3.14747e-05 0.0111988)
(-6.13899e-07 -1.83158e-05 0.0110689)
(3.22826e-06 -2.23388e-05 0.0111153)
(9.42421e-07 -2.48467e-05 0.0111437)
(7.99351e-06 -3.08382e-05 0.011166)
(-5.41037e-06 -1.50697e-05 0.0109843)
(-6.75969e-07 -1.63998e-05 0.0110329)
(-4.04287e-06 -1.69398e-05 0.0110641)
(7.52091e-06 -2.24953e-05 0.0110958)
(-9.5578e-06 -1.11311e-05 0.0108702)
(-4.442e-06 -7.67289e-06 0.0109122)
(-7.99368e-06 -6.94611e-06 0.0109378)
(6.85171e-06 -7.92456e-06 0.0109742)
(2.79882e-06 -1.15529e-05 0.0111245)
(4.19305e-06 -1.3736e-05 0.0111645)
(3.87698e-06 -1.50015e-05 0.0111863)
(5.41108e-06 -1.62857e-05 0.011197)
(2.15789e-07 -9.7617e-06 0.0110645)
(2.26458e-06 -1.17935e-05 0.0111092)
(2.00062e-06 -1.29608e-05 0.0111373)
(5.51231e-06 -1.54202e-05 0.011154)
(-2.3217e-06 -7.88538e-06 0.0109785)
(1.89759e-07 -8.56642e-06 0.0110229)
(-2.92837e-07 -8.8075e-06 0.0110531)
(5.28429e-06 -1.11212e-05 0.0110747)
(-4.51283e-06 -5.56081e-06 0.0108635)
(-1.83198e-06 -3.82562e-06 0.0108998)
(-2.18351e-06 -3.29217e-06 0.0109252)
(5.11691e-06 -3.76982e-06 0.0109478)
(1.91516e-06 -6.39338e-06 0.0111227)
(2.7233e-06 -7.53445e-06 0.0111631)
(2.86183e-06 -8.15118e-06 0.0111854)
(3.70415e-06 -8.67242e-06 0.0111955)
(5.36064e-07 -5.23262e-06 0.0110614)
(1.66823e-06 -6.26116e-06 0.0111052)
(1.93353e-06 -6.86493e-06 0.0111332)
(3.72601e-06 -7.93686e-06 0.0111477)
(-8.2442e-07 -4.1409e-06 0.0109745)
(5.58494e-07 -4.48228e-06 0.0110169)
(8.47204e-07 -4.6172e-06 0.0110468)
(3.61883e-06 -5.61716e-06 0.0110641)
(-1.99373e-06 -2.73176e-06 0.0108589)
(-5.06499e-07 -1.83412e-06 0.0108924)
(-2.79884e-08 -1.51542e-06 0.0109178)
(3.63177e-06 -1.79877e-06 0.0109345)
(1.3365e-06 -3.53286e-06 0.0111214)
(1.80185e-06 -4.18873e-06 0.011162)
(2.04021e-06 -4.51797e-06 0.0111846)
(2.52127e-06 -4.7398e-06 0.0111945)
(5.86402e-07 -2.77752e-06 0.0110594)
(1.19764e-06 -3.35001e-06 0.0111027)
(1.54564e-06 -3.69391e-06 0.0111308)
(2.50087e-06 -4.1934e-06 0.0111445)
(-1.42275e-07 -2.17736e-06 0.010972)
(6.08447e-07 -2.37045e-06 0.0110134)
(1.02241e-06 -2.45877e-06 0.0110431)
(2.4566e-06 -2.90372e-06 0.0110589)
(-7.78779e-07 -1.31105e-06 0.010856)
(5.6886e-08 -8.51663e-07 0.0108881)
(6.41808e-07 -6.77155e-07 0.0109134)
(2.5549e-06 -8.61593e-07 0.0109278)
(9.3227e-07 -1.93388e-06 0.0111204)
(1.21102e-06 -2.33027e-06 0.0111611)
(1.42958e-06 -2.52711e-06 0.0111839)
(1.70908e-06 -2.64331e-06 0.0111939)
(5.33374e-07 -1.44196e-06 0.0110581)
(8.53087e-07 -1.79e-06 0.0111012)
(1.13819e-06 -2.00548e-06 0.0111292)
(1.66348e-06 -2.26935e-06 0.0111427)
(1.5176e-07 -1.15972e-06 0.0109704)
(5.60464e-07 -1.28842e-06 0.0110112)
(8.914e-07 -1.34759e-06 0.0110409)
(1.64827e-06 -1.54633e-06 0.0110561)
(-2.18524e-07 -6.13276e-07 0.0108542)
(2.73915e-07 -3.89003e-07 0.0108856)
(7.51539e-07 -2.9732e-07 0.0109108)
(1.78108e-06 -4.19978e-07 0.0109243)
(6.54994e-07 -1.05188e-06 0.0111197)
(8.12597e-07 -1.29408e-06 0.0111605)
(9.84831e-07 -1.42175e-06 0.0111834)
(1.14981e-06 -1.50238e-06 0.0111934)
(4.51584e-07 -7.45699e-07 0.0110572)
(6.1114e-07 -9.53667e-07 0.0111001)
(8.05474e-07 -1.09926e-06 0.0111282)
(1.09466e-06 -1.24706e-06 0.0111416)
(2.37205e-07 -6.11755e-07 0.0109694)
(4.68762e-07 -7.09883e-07 0.0110099)
(6.97134e-07 -7.57014e-07 0.0110396)
(1.10019e-06 -8.54703e-07 0.0110546)
(1.52499e-08 -2.59032e-07 0.0108531)
(3.13956e-07 -1.59264e-07 0.0108841)
(6.52421e-07 -1.22389e-07 0.0109093)
(1.22062e-06 -2.16341e-07 0.0109225)
(4.74678e-07 -5.61992e-07 0.0111192)
(5.54884e-07 -7.19145e-07 0.01116)
(6.72611e-07 -8.07717e-07 0.011183)
(7.65435e-07 -8.65104e-07 0.0111931)
(3.55929e-07 -3.71754e-07 0.0110565)
(4.38661e-07 -5.11769e-07 0.0110995)
(5.59979e-07 -6.07338e-07 0.0111276)
(7.20788e-07 -7.01261e-07 0.011141)
(2.3195e-07 -3.03257e-07 0.0109687)
(3.64166e-07 -3.82833e-07 0.0110091)
(5.11712e-07 -4.20896e-07 0.0110387)
(7.28682e-07 -4.74708e-07 0.0110537)
(1.02241e-07 -8.67225e-08 0.0108523)
(2.83533e-07 -4.64309e-08 0.0108832)
(5.06794e-07 -3.85104e-08 0.0109084)
(8.21004e-07 -1.09188e-07 0.0109214)
(3.43103e-07 -2.80284e-07 0.0111189)
(3.85583e-07 -3.82854e-07 0.0111597)
(4.61244e-07 -4.44534e-07 0.0111827)
(5.10127e-07 -4.81526e-07 0.0111929)
(2.73384e-07 -1.65442e-07 0.0110562)
(3.1634e-07 -2.56212e-07 0.011099)
(3.91226e-07 -3.21064e-07 0.0111272)
(4.78444e-07 -3.83288e-07 0.0111406)
(2.00503e-07 -1.27012e-07 0.0109683)
(2.77461e-07 -1.87048e-07 0.0110086)
(3.66605e-07 -2.18926e-07 0.0110382)
(4.82384e-07 -2.54991e-07 0.0110532)
(1.24687e-07 2.58429e-09 0.0108518)
(2.35771e-07 1.07788e-08 0.0108826)
(3.7415e-07 3.32078e-09 0.0109078)
(5.43795e-07 -4.93403e-08 0.0109209)
(2.63855e-07 -1.00911e-07 0.0111187)
(2.92756e-07 -1.68052e-07 0.0111595)
(3.42997e-07 -2.0821e-07 0.0111825)
(3.69264e-07 -2.32821e-07 0.0111927)
(2.23744e-07 -4.13551e-08 0.0110559)
(2.51075e-07 -9.63013e-08 0.0110988)
(3.00384e-07 -1.41035e-07 0.0111269)
(3.47338e-07 -1.8287e-07 0.0111404)
(1.81622e-07 -1.83672e-08 0.010968)
(2.29071e-07 -5.92442e-08 0.0110083)
(2.84356e-07 -8.78491e-08 0.0110379)
(3.45079e-07 -1.2066e-07 0.0110529)
(1.38099e-07 5.62946e-08 0.0108515)
(2.06629e-07 4.83358e-08 0.0108823)
(2.87833e-07 2.94659e-08 0.0109074)
(3.76492e-07 -1.57834e-08 0.0109205)
(2.61709e-07 1.95645e-09 0.0111185)
(3.01783e-07 -4.24234e-08 0.0111594)
(3.49589e-07 -7.03698e-08 0.0111824)
(3.77197e-07 -9.60773e-08 0.0111926)
(2.29998e-07 3.25862e-08 0.0110558)
(2.70857e-07 -4.86406e-10 0.0110986)
(3.18989e-07 -3.47232e-08 0.0111268)
(3.55178e-07 -7.20575e-08 0.0111403)
(1.98233e-07 5.88057e-08 0.0109678)
(2.46608e-07 3.14098e-08 0.0110081)
(2.98222e-07 -1.47638e-09 0.0110378)
(3.41645e-07 -4.10086e-08 0.0110528)
(1.68818e-07 1.05224e-07 0.0108513)
(2.25682e-07 8.78633e-08 0.0108821)
(2.86955e-07 5.7098e-08 0.0109072)
(3.42615e-07 8.21438e-09 0.0109203)
(0.00148894 0.00277963 0.0199858)
(-0.00165577 0.00317622 0.0292867)
(-0.000812626 0.000305799 0.0123754)
(0.00149231 0.000778526 0.020614)
(0.000418706 0.000999877 0.00604641)
(-0.000707251 0.00171906 0.0199168)
(5.85255e-05 0.00198902 0.0140327)
(0.00110459 0.0026411 0.0175473)
(-0.0023144 0.00247877 0.0196348)
(-0.00433015 0.00265495 0.0176797)
(-0.000621053 0.00185266 0.0125214)
(-0.00117867 0.00211147 0.0207443)
(-0.00159866 -0.00155194 0.0149755)
(-0.000518623 -0.000409818 0.00892409)
(-0.000507824 0.0012111 0.0261022)
(-0.000780128 0.000645839 0.0107745)
(0.000132499 -0.000173254 0.00883287)
(-0.000585189 0.00111338 0.0237344)
(-0.000252879 0.000476758 0.00663496)
(0.000212237 2.68903e-05 0.00689538)
(-0.00027403 -2.96816e-05 0.0332785)
(-0.000640499 -0.000846414 0.0152725)
(-0.00244739 -0.000272365 0.02189)
(-0.00108519 -0.000418333 0.0211357)
(-0.00291358 0.00118199 0.0408071)
(-0.00119116 0.000589341 0.0198071)
(-0.00113633 -0.000258737 0.0167493)
(-0.000996814 0.00245901 0.0407878)
(-0.00015567 -0.00125302 0.020236)