/*--------------------------------*- C++ -*----------------------------------*\
| =========                 |                                                 |
| \\      /  F ield         | OpenFOAM: The Open Source CFD Toolbox           |
|  \\    /   O peration     | Version:  2506                                  |
|   \\  /    A nd           | Website:  www.openfoam.com                      |
|    \\/     M anipulation  |                                                 |
\*---------------------------------------------------------------------------*/
FoamFile
{
    version     2.0;
    format      ascii;
    arch        "LSB;label=32;scalar=64";
    class       volScalarField;
    location    "0.005";
    object      p;
}
// * * * * * * * * * * * * * * * * * * * * * * * * * * * * * * * * * * * * * //

dimensions      [0 2 -2 0 0 0 0];

internalField   nonuniform List<scalar> 
512
(
6.02975
6.27795
4.73208
4.84095
7.28186
10.4981
10.5802
5.9382
2.48461
1.7833
0.199926
-1.10534
0.496494
2.30894
1.60273
0.393958
1.29238
2.67663
4.03798
4.10246
3.60744
3.3197
2.70609
3.30653
4.32715
4.53408
4.77857
5.0991
3.77649
2.83742
2.71569
3.50988
4.59809
5.24309
4.95621
5.98935
8.31066
10.9219
10.5306
5.55784
2.03589
0.867646
-0.486587
-0.558716
0.768104
2.06124
1.98326
1.11633
1.0692
2.41035
3.88241
4.40419
4.55801
3.08021
1.6214
2.97978
4.44285
4.81627
5.11656
5.08252
3.94811
3.86703
3.96072
3.7503
4.29464
5.41233
5.36249
6.3015
8.51958
10.9113
10.6416
5.1705
1.4779
1.23936
0.907654
-0.211821
-0.907907
0.0136709
1.51439
1.6984
1.81299
2.95548
3.67658
4.08649
3.97589
2.78172
1.69579
2.39856
3.27255
4.49559
5.88971
6.33565
4.80026
4.12363
3.66137
3.02137
5.61892
7.20599
6.32125
5.34756
6.75952
8.97318
10.0206
6.70653
1.9428
-0.373396
-1.69175
-1.10488
-0.0896061
0.68987
1.09317
1.85459
2.14131
2.11015
2.84519
3.79686
3.6659
3.06263
3.22243
3.46583
3.24862
4.11139
6.06884
6.93814
4.75959
3.09808
3.42493
4.08693
5.86258
6.2554
6.97361
6.61629
6.29019
6.37614
6.43283
6.21259
3.3087
0.0587513
-1.4661
-1.59909
-1.15716
0.453587
2.62177
2.55105
1.33172
1.49114
3.0581
3.71944
2.98979
3.11229
4.1364
4.39972
3.85995
4.72587
5.85381
5.74093
4.65256
3.84706
4.2297
5.72428
4.12806
6.60582
8.92773
9.28122
7.32635
5.00397
3.82223
4.00586
3.55437
0.436207
-1.4087
-1.34972
-0.194297
1.49287
2.01515
1.42011
1.69526
2.53292
3.02082
3.16994
2.74805
2.36231
3.12992
3.83664
4.16162
4.94773
4.53267
4.0237
5.38344
6.97361
5.90427
4.23123
4.29088
8.14054
10.5492
9.33074
6.56363
4.29113
2.92648
3.48511
3.91202
1.243
-1.27825
-1.72638
-0.0439871
1.36416
2.59232
1.88108
1.45099
3.41532
4.03298
3.24113
2.53762
1.93578
1.96686
2.62292
3.50021
3.77041
3.82933
4.10289
5.05507
6.75436
6.82294
4.67934
5.30052
8.75287
10.999
9.67171
7.15429
4.90287
3.08932
3.61332
3.08212
0.133066
-2.01924
-1.82672
0.464361
3.32431
3.85091
1.65232
1.46344
3.71208
3.90708
2.26974
1.66695
2.03563
2.2653
2.16425
2.9589
4.12761
4.53518
4.80503
4.92075
5.37306
5.37774
4.75183
6.7512
5.28037
3.98687
5.39647
8.47697
10.3718
9.24995
4.83744
1.5878
0.186562
-0.137284
0.0152687
0.284821
1.03499
1.42511
1.84108
1.9314
2.2171
3.66257
5.47142
5.30201
3.10727
1.22991
1.78336
3.38005
3.39737
3.95548
5.86572
5.14529
3.44785
4.2419
6.08181
4.51421
4.75709
5.44758
7.37741
10.9984
11.1026
7.69514
4.01999
1.66973
0.399168
0.216384
0.392277
0.331533
0.585484
1.48492
2.34735
1.84061
2.03222
4.27546
5.28069
3.80364
2.15748
1.04457
1.99907
3.83086
4.42854
4.44557
5.16074
4.59997
4.09225
4.74081
5.36028
3.5814
5.24565
7.21996
8.32389
9.45715
10.4817
9.55812
4.59401
1.26855
0.752159
0.866284
0.084721
-0.564686
-0.238253
1.3537
1.57965
1.12666
2.35562
4.34128
5.42543
4.38811
2.66566
1.03591
2.12572
3.74222
4.14369
4.7082
5.41442
4.26282
3.91921
4.59052
4.53838
6.26351
7.12503
6.68285
6.35384
7.14119
9.00233
9.64073
6.37014
2.24851
0.0659217
-1.95966
-1.47719
-0.655968
0.829799
1.91152
1.68397
1.51927
2.65407
3.5042
4.18627
4.21239
2.79111
1.88408
3.3739
4.77099
4.72347
5.00575
4.64122
4.35701
3.70635
3.63523
4.18775
4.80733
6.1856
6.69504
7.1483
7.63065
7.6802
6.71271
5.23086
3.59546
0.77364
-1.4185
-2.29504
-0.91763
1.80445
3.44638
1.9612
1.2352
2.03991
2.94415
3.3902
3.283
2.60565
3.1046
4.23346
4.58293
4.09034
4.48029
4.5407
4.32726
4.73492
4.6637
4.02773
3.57377
5.59188
7.95733
8.97168
7.33334
5.80662
4.98019
4.80696
4.7014
1.7755
-0.861657
-1.81003
0.138909
1.94219
1.82932
1.42441
1.82955
2.29048
2.22914
2.39426
2.65865
2.85559
3.8561
3.73458
3.22202
3.81316
4.42348
4.72623
5.98091
6.58268
5.09801
3.65977
4.83714
7.2547
8.94677
8.86973
6.30367
4.61954
4.60847
4.39552
3.83136
1.9198
-0.554455
-1.64524
0.729812
2.65921
2.83277
1.30336
0.910421
2.23186
2.72669
2.74369
2.41756
2.61133
2.82617
2.93592
2.52867
3.46376
4.79872
5.20463
5.69707
5.86477
4.83745
4.14
5.17038
7.80073
9.58198
9.30502
6.49324
4.34867
3.89613
3.57759
1.96094
0.808717
-0.582145
-0.67619
1.82947
4.18052
3.79015
1.55137
0.624834
2.02392
2.86298
1.97472
1.43626
2.44422
3.20373
3.00931
3.74651
4.42573
4.9899
5.30006
5.14501
5.24067
4.83978
4.76675
)
;

boundaryField
{
    wall
    {
        type            zeroGradient;
    }
    outlet
    {
        type            cyclic;
    }
    inlet
    {
        type            cyclic;
    }
    procBoundary2to1
    {
        type            processor;
        value           nonuniform List<scalar> 
256
(
4.35244
6.74314
6.58176
5.08074
5.1246
8.09166
9.54165
6.94867
4.98337
3.49684
-0.389716
-2.31786
-0.296231
2.99336
4.28502
2.15034
0.953229
2.20146
2.81732
3.49438
4.25098
3.66732
4.29997
5.93149
6.22141
5.0775
5.04621
4.0304
1.83656
2.01359
1.84597
1.70842
3.72276
6.98513
7.11134
5.40687
5.32422
8.62158
9.76364
6.58885
3.90252
2.35759
-0.273304
-1.27924
-0.508124
2.34526
3.77832
2.39355
1.48601
2.15507
2.76963
3.51552
4.29849
3.27962
3.07783
4.82898
5.97624
5.62722
5.71369
4.53743
2.71908
2.40781
2.00355
1.24742
3.99603
7.131
6.48293
5.72744
6.3215
9.54959
10.165
5.91134
2.51703
1.60102
0.519649
-1.02213
0.0300862
1.75769
2.27509
2.19954
3.24975
3.35696
2.71569
3.10594
3.24113
2.7704
2.78117
4.24275
4.60834
4.87547
5.44752
5.58101
4.25408
3.12397
2.1059
1.41985
4.41783
6.34338
6.26305
5.96552
7.1408
9.33907
9.44977
4.8398
1.12453
-0.32391
-0.958241
0.0796444
1.10036
0.266538
0.470132
2.57897
3.32626
2.98631
3.02143
3.02863
2.73942
3.02415
3.79665
4.83002
4.34441
4.12393
4.94033
5.93011
5.85143
3.53757
2.3904
2.26641
5.16319
6.00659
6.46487
6.79309
7.746
8.20721
7.00243
3.58039
0.0899297
-0.487508
-1.08135
-0.925149
0.434563
1.15037
1.50894
1.85029
2.20846
2.80563
3.23881
3.32923
3.02561
3.34539
3.28372
4.17068
5.28952
5.41932
5.01016
5.35487
5.67336
4.52402
3.42692
4.06098
5.04602
5.94387
7.70652
9.24398
7.91294
5.45901
3.91208
2.33463
0.727368
-0.0499493
-0.511094
-1.08486
0.0418105
0.915491
1.14917
1.77625
2.55455
3.16064
4.0076
4.45733
3.51529
2.14411
1.86359
3.21663
5.09036
5.82709
4.24383
3.70536
5.46147
6.50448
5.39097
5.04955
4.79431
6.79966
9.81008
11.058
7.03992
3.60623
2.82741
2.31831
1.0247
0.23161
-0.689621
-1.63273
-0.209166
1.42976
2.13177
2.16225
2.57156
3.43972
4.29093
4.83394
3.0693
1.55371
1.12851
2.68169
4.67742
4.5722
3.65653
3.03996
4.59065
7.39498
7.88219
5.19559
5.29864
8.42602
10.6737
9.39504
6.85977
4.68221
3.31642
2.4128
0.718378
-0.268582
-1.20561
-1.8108
-0.0734582
2.0673
3.51513
2.67924
2.27357
3.37133
3.57018
2.91041
2.05254
1.81732
1.77482
2.65483
4.31148
4.02251
3.44539
3.77185
4.68335
6.26621
7.68193
5.63854
)
;
    }
    procBoundary2to3
    {
        type            processor;
        value           nonuniform List<scalar> 
256
(
5.4298
5.52837
5.26299
7.00094
8.98082
8.63028
7.53686
4.75538
1.80152
-0.431839
-0.611467
-0.00531656
0.118318
0.301565
1.07536
2.09762
2.48816
2.82149
3.6216
5.37351
5.31725
3.06038
1.15588
2.06959
3.51537
3.93608
4.46859
5.84291
5.28448
3.3646
3.47794
4.53813
4.78615
5.78307
6.48655
8.19825
10.7258
9.95976
6.52496
2.9698
1.60144
0.367079
-0.499704
0.473719
1.07273
0.560919
0.648708
2.16404
2.8574
2.84676
3.90833
4.76802
3.73222
2.1834
1.4878
2.87869
3.80088
3.37929
4.37603
5.63623
4.96259
3.23907
3.40893
4.3717
4.45226
6.47505
7.84386
8.33254
9.55605
9.63206
7.3189
3.29946
0.990675
0.169461
0.260153
0.941046
0.794364
0.523067
1.05686
1.88457
2.01679
2.20357
2.71556
4.00981
3.91648
2.88417
1.70066
3.13285
4.99031
4.90105
4.36384
4.27154
3.86094
3.104
3.92652
4.19255
5.21957
6.8083
7.05418
7.55872
8.43931
8.64188
6.79515
3.51888
1.79668
0.653319
-1.02252
-0.368029
1.13926
2.05112
2.12315
0.989145
0.33484
2.44881
3.53192
3.49343
3.72525
2.8487
2.04524
3.99111
5.97677
5.14415
4.13015
4.67706
4.73935
4.25886
3.38416
3.2197
5.00163
6.19847
6.7421
7.79223
8.59667
7.76074
5.81482
4.89602
2.97451
0.65818
-1.53244
-1.29544
1.10519
3.0569
2.55937
1.18424
1.41627
2.56941
3.06353
2.55366
2.14865
2.69638
3.27296
3.96471
4.80786
4.36799
4.11183
4.21935
4.34877
4.7784
4.26134
3.98249
5.06818
6.61786
7.64189
7.80492
8.09815
7.262
5.4974
4.81227
2.85378
0.795337
-0.665904
-0.848559
0.641043
2.01711
1.91102
1.47009
1.90305
2.28681
2.55989
2.64912
2.75132
2.95015
3.78169
3.60418
3.13253
3.36154
4.45657
5.18781
5.22223
4.56863
4.03429
3.93744
5.59501
7.06035
8.07387
7.82206
6.29527
5.76628
5.52723
4.19228
2.48538
1.16711
-0.042648
-0.319654
1.82898
2.78777
2.40966
1.02493
0.209848
0.71896
1.95627
3.22194
4.28143
3.34932
2.81478
3.2032
2.95082
3.11048
4.77554
5.33442
5.5289
4.87024
3.84665
4.21986
5.98198
8.40841
8.95501
7.12818
5.6655
5.01421
4.04011
2.9314
2.1722
1.66762
0.613319
0.203126
2.47768
4.50275
3.53852
1.40491
-0.383832
-0.345497
1.81473
3.12287
2.57134
2.70218
3.16671
3.41972
3.12855
3.84073
5.86026
5.57704
4.65891
3.77551
4.15919
4.83905
)
;
    }
}


// ************************************************************************* //
