/*--------------------------------*- C++ -*----------------------------------*\
| =========                 |                                                 |
| \\      /  F ield         | OpenFOAM: The Open Source CFD Toolbox           |
|  \\    /   O peration     | Version:  2506                                  |
|   \\  /    A nd           | Website:  www.openfoam.com                      |
|    \\/     M anipulation  |                                                 |
\*---------------------------------------------------------------------------*/
FoamFile
{
    version     2.0;
    format      ascii;
    arch        "LSB;label=32;scalar=64";
    class       volVectorField;
    location    "0.005";
    object      U;
}
// * * * * * * * * * * * * * * * * * * * * * * * * * * * * * * * * * * * * * //

dimensions      [0 1 -1 0 0 0 0];

internalField   nonuniform List<vector> 
512
(
(9.93729 -0.0865195 -0.144312)
(9.95129 0.0146646 -0.111745)
(10.0936 0.0275464 0.0327853)
(10.163 -0.00420621 0.146343)
(10.1218 0.00881353 0.0899973)
(9.85557 -0.00986977 -0.191349)
(9.4789 -0.0279204 -0.0692576)
(9.76446 -0.0292831 -0.076948)
(10.039 -0.00761553 -0.0715881)
(9.83936 -0.0257574 -0.0181733)
(9.91636 0.0286781 0.0743352)
(10.147 0.0333996 -0.0102292)
(10.0984 0.0203664 -0.0614624)
(9.94945 0.0447983 -0.058276)
(9.98963 0.0261521 -0.00271625)
(10.0513 -0.0170898 0.0475851)
(10.042 -0.022111 -0.0272647)
(9.96617 -0.0515485 -0.0460213)
(9.87452 0.0234057 0.0910901)
(9.86327 0.0383024 0.064732)
(9.93445 -0.0109504 0.0213212)
(9.9318 -0.0820042 -0.201065)
(10.0532 0.00628519 -0.216172)
(10.0091 0.0252972 -0.121484)
(10.0009 0.0335565 -0.0302139)
(10.0605 0.0346323 -0.0222991)
(10.0344 0.022043 0.0130383)
(9.81306 0.00802959 0.199831)
(9.9084 -0.0139347 0.214696)
(10.146 0.106127 0.140071)
(10.1282 0.0207866 0.138034)
(10.1283 -0.104972 0.0623663)
(10.0792 0.00720499 -0.145937)
(10.1052 0.0774707 -0.0939333)
(10.2761 -0.00185427 0.0970047)
(10.2944 -0.0490184 0.219747)
(10.2241 0.00381843 0.191941)
(9.85694 -0.0338227 -0.210264)
(9.55212 -0.0436363 -0.0978922)
(9.86328 -0.0308301 -0.0560378)
(10.121 0.0142953 -0.0696658)
(10.0339 0.020089 -0.0323767)
(10.0913 0.0138253 0.0425633)
(10.1726 -0.018656 0.0264187)
(10.1079 -0.0083947 -0.0766135)
(10.0824 0.0617617 -0.0501469)
(10.0675 0.0043063 0.0785852)
(10.0649 -0.0152431 0.0634312)
(10.1891 -0.00660568 -0.0313907)
(10.1464 -0.0652391 0.00953164)
(10.051 -0.0108958 0.0549965)
(10.0689 0.00453188 -0.00754396)
(9.91335 -0.0418274 0.0248255)
(9.88428 -0.0667295 -0.0119484)
(10.2456 -0.0374377 -0.167107)
(10.1993 -0.0393526 -0.124233)
(10.0706 -0.0148928 -0.0317338)
(10.1227 0.0666432 -0.0667747)
(10.0624 0.0860288 -0.0504288)
(9.97835 0.0340469 0.162537)
(10.0617 0.0265624 0.124962)
(10.0115 0.103681 0.0661518)
(10.0287 0.0372903 0.149301)
(10.1007 -0.0953925 0.123061)
(10.1135 0.124419 -0.0124363)
(10.1014 0.085169 0.0274879)
(10.3338 -0.0690617 0.110972)
(10.3074 -0.0811277 0.0970566)
(10.2067 -0.0435061 0.0803237)
(9.82128 -0.0260638 -0.136122)
(9.53392 0.0182398 -0.0677109)
(9.85659 -0.0141521 -0.0393896)
(10.1736 -0.0225847 -0.0031863)
(9.93632 -0.0293644 -0.0190308)
(9.94852 0.00421164 0.000415391)
(10.2581 0.0532063 -0.00652859)
(10.2429 -0.0370796 -0.0850652)
(10.1323 -0.0978972 -0.0830306)
(9.88323 0.00427237 -0.00089147)
(9.99927 0.0148464 -0.0604776)
(10.1586 -0.0519676 -0.0510371)
(10.1143 -0.0562774 0.092061)
(10.0835 -0.019341 0.108017)
(9.99037 -0.0494695 0.0299489)
(9.90551 -0.0150654 0.0287282)
(10.001 0.0803713 -0.0818753)
(10.1825 -0.043832 -0.156562)
(10.1789 -0.0627462 -0.0839953)
(10.2044 0.00235588 -0.00610698)
(10.155 0.0680035 -0.00244848)
(10.0425 0.115043 0.0112374)
(9.94208 0.030402 0.0997611)
(10.0444 -0.0303748 0.105067)
(9.97745 -0.0698162 0.0814175)
(10.0039 -0.0261542 0.121206)
(10.1919 0.0972803 0.0112475)
(10.2033 -0.0971396 0.0919545)
(10.0182 -0.00327008 -0.0144025)
(10.0135 0.0903109 -0.0351277)
(10.2765 -0.141089 -0.0154786)
(10.2222 -0.200486 -0.0359884)
(10.0393 -0.157738 0.013902)
(9.69567 -0.0335875 0.0803846)
(9.65477 0.0423475 0.0523382)
(9.91113 -0.0665109 0.0192937)
(10.1758 -0.0297166 0.00821411)
(10.22 -0.0307006 -0.104556)
(10.1897 -0.0731335 -0.0873971)
(10.0105 0.0242911 0.0271323)
(10.0266 0.0525789 0.0628961)
(10.0794 0.0566212 0.0328398)
(10.0607 -0.0312357 -0.0542551)
(10.1276 -0.0444369 0.00113852)
(10.1708 -0.0167765 0.00449236)
(10.1372 0.016007 0.00206032)
(10.0283 -0.0425191 0.0432801)
(9.98275 -0.0729966 0.0367851)
(10.0973 0.128218 -0.110383)
(10.1201 0.135156 -0.120195)
(10.1025 0.0377413 0.00540338)
(10.1669 0.0181892 0.0303718)
(10.1632 -0.0118962 -0.000579681)
(10.1403 -0.0848756 0.0101726)
(9.8441 -0.00983338 -0.0314301)
(9.95341 -0.0229082 0.00332571)
(10.1668 0.0562187 0.0613767)
(10.1843 0.19073 0.0815354)
(10.1915 0.110637 0.0607864)
(10.0326 0.0718282 0.0129654)
(10.0612 0.0631608 0.0411187)
(10.0404 0.142957 -0.00402757)
(10.0572 0.110305 -0.0437084)
(10.0789 -0.265271 -0.0344927)
(10.0796 -0.264149 0.0186814)
(10.0433 -0.0863739 0.0415172)
(9.64165 0.101738 0.0702777)
(9.84671 0.0425572 0.0229566)
(10.1591 0.0288444 0.00582997)
(10.1852 0.0148463 -0.0700577)
(10.1307 0.0179118 -0.0728845)
(10.0996 0.0880764 0.0635472)
(10.0814 0.0113228 0.125133)
(9.93875 -0.0433045 0.0450736)
(9.99732 -0.00369155 -0.0139722)
(10.1822 0.0279112 -0.00930191)
(10.1576 -0.0213435 0.00203338)
(10.0499 -0.0320121 0.00748531)
(10.0658 -0.018612 0.00228828)
(10.0691 -0.0254536 -0.0599923)
(10.1095 0.024117 -0.0396887)
(10.1359 0.0228703 -0.0305583)
(10.0979 0.0300019 -0.057007)
(10.1288 0.00766849 -0.0535396)
(10.1123 -0.0597702 -0.0113845)
(10.0013 -0.0986376 0.0193025)
(9.99144 -0.0766256 -0.0564762)
(10.076 0.0737176 0.0146794)
(10.1358 0.00465283 0.0895)
(10.1719 0.087362 0.00898282)
(10.0689 0.0914827 -0.0781158)
(10.2883 0.158844 -0.0543911)
(10.2517 0.207412 -0.0791402)
(9.92666 0.0867059 -0.0512588)
(9.87004 0.0594238 -0.00682499)
(9.84819 -0.132534 0.0453775)
(9.97407 -0.167179 0.0908997)
(10.0648 -0.0251803 0.0780835)
(9.98225 0.0421713 0.0855023)
(9.96499 0.0312511 0.033777)
(10.0727 -0.018808 0.0654278)
(10.0539 0.0255731 0.000179823)
(10.1272 0.10059 0.0228295)
(10.1594 0.105157 0.0525188)
(10.0081 -0.00680368 0.0482003)
(10.0766 -0.0369958 -0.00955907)
(10.1603 -0.00873502 -0.0301414)
(10.1407 0.0882157 -0.00254983)
(10.067 0.0395801 -0.0794612)
(10.0021 -0.0292202 -0.125985)
(10.0025 0.011329 -0.044753)
(10.0172 -0.0367482 -0.00466272)
(10.1366 -0.126933 0.0715981)
(10.139 -0.132663 0.0744204)
(10.0741 -0.0779076 -0.0849005)
(10.1163 -0.0104603 -0.0794841)
(10.0372 -0.0397285 0.0526073)
(10.0915 -0.0608698 0.105572)
(10.2373 0.0278443 0.0359566)
(10.1108 0.135321 -0.00850303)
(9.928 0.020085 -0.010017)
(9.98809 -0.0904973 -0.0331295)
(10.0952 -0.117403 -0.105542)
(10.3353 0.0738451 -0.0387072)
(10.2528 0.0830176 -0.0756543)
(9.83246 -0.026451 -0.0583886)
(9.88755 -0.0077071 -0.0143075)
(9.87473 0.0109297 0.0259487)
(10.0124 -0.0102715 0.0795557)
(10.1051 0.0141846 0.068302)
(10.04 -0.0222916 0.0481619)
(9.92369 -0.0103426 0.0808391)
(9.97282 -0.0436086 0.0966644)
(10.15 -0.0175898 0.0537993)
(10.238 0.0241354 0.0645295)
(10.1634 0.0310224 0.0932301)
(10.0601 0.0882284 0.0644006)
(9.83925 0.0180398 -0.0300908)
(9.99334 -0.0104252 -0.0408347)
(10.1986 0.0714766 -0.0024877)
(10.0959 0.067591 -0.0232382)
(9.92483 -0.0772584 -0.075888)
(9.94715 -0.11051 -0.0384718)
(10.0162 -0.0287025 0.0321094)
(10.0764 -0.0269277 0.0229758)
(10.1399 -0.122212 -0.000809744)
(10.1482 -0.0424318 -0.0659984)
(10.1202 0.0190833 -0.0550454)
(10.1431 -0.00884695 -0.0602576)
(10.1682 -0.00105392 0.185571)
(10.169 -0.0075326 0.149892)
(10.1845 0.0212417 -0.167532)
(10.0059 0.0263508 -0.235769)
(9.91509 -0.0240961 0.0172937)
(10.0815 -0.0423055 0.0231119)
(10.2329 0.0394299 -0.00727938)
(10.1266 0.0409352 0.00598246)
(9.79943 0.0148337 -0.0113014)
(9.86959 0.0299777 -0.0259352)
(9.77292 0.0405388 -0.0302633)
(9.81766 0.0423958 -0.0017859)
(10.0157 0.0554697 -0.0106113)
(9.97057 -0.0444798 -0.0224453)
(9.66317 -0.0374502 0.051027)
(9.82403 -0.0116466 0.0717771)
(10.1357 -0.00205284 0.0501422)
(10.1961 0.0222669 0.0775307)
(10.14 0.00822696 0.0950162)
(9.90829 0.00353696 -0.0329362)
(9.85373 0.00114033 0.0096632)
(10.0338 -0.0200763 -0.00431652)
(10.1297 -0.0286644 -0.0395483)
(9.99056 -0.0436696 -0.0144242)
(9.75968 -0.0813863 -0.0190281)
(9.89807 -0.0610521 -0.0304141)
(10.0456 -0.0421586 -0.0759745)
(10.0179 0.00604206 0.0824141)
(10.0266 0.0183484 0.038116)
(10.0833 0.0339541 -0.000411866)
(10.0518 -0.0101155 -0.00716551)
(9.9719 -0.00777027 0.0469413)
(9.94423 0.0336084 0.170928)
(10.0143 0.0537417 0.122975)
(10.1088 -0.0673709 -0.0961891)
(9.89475 -0.0362503 -0.131133)
(9.89488 0.0156709 -0.013213)
(10.121 0.0225569 -0.00136061)
(9.80613 -0.0612194 -0.0462223)
(9.81641 -0.0206826 0.0145551)
(10.2371 0.055207 0.101295)
(10.2208 0.0630739 0.0831714)
(10.0022 0.0301956 -0.164561)
(9.63482 -0.0509444 -0.264783)
(9.50831 -0.0668202 0.0583917)
(9.74125 -0.0131703 0.0648618)
(9.97846 0.0193382 -0.0788828)
(10.0085 0.0167063 -0.0330743)
(9.95666 0.018652 0.0183513)
(9.99687 0.00742737 -0.0419859)
(10.0207 -0.0121985 -0.0843509)
(9.95843 0.0354008 -0.0330367)
(9.95452 0.0425787 0.0739985)
(9.98269 -0.00930408 0.0419958)
(10.0206 -0.0348928 -0.00377466)
(10.0762 0.046375 -0.0083452)
(10.0189 0.0495641 0.0230215)
(9.86209 -0.0248749 0.100693)
(9.81716 -0.00698161 0.0043096)
(9.88841 -0.00613649 -0.0478782)
(10.0956 0.0403948 -0.0813258)
(10.0525 0.0492406 -0.0486679)
(10.0828 0.0495278 -0.0210172)
(10.102 -0.036111 0.00489865)
(10.0912 -0.0462935 0.038987)
(9.76562 -0.0903369 0.0984044)
(9.78379 -0.0972659 0.0908834)
(10.2252 0.0687571 0.119675)
(10.1544 0.0350571 0.109619)
(10.0802 -0.100507 -0.0206371)
(10.2312 0.0349191 -0.0207788)
(10.225 0.201731 0.0569357)
(10.2263 0.111592 0.0882832)
(10.2411 -0.0373988 0.0609004)
(10.1308 -0.00319694 -0.0731092)
(9.63491 0.0011652 -0.215116)
(9.6715 -0.0489565 -0.124941)
(9.96518 -0.046015 0.0730244)
(10.0848 0.050252 0.0221026)
(10.0819 -0.00294588 0.00910382)
(10.0579 -0.0463042 0.0549015)
(10.0834 -0.0391559 0.0237537)
(10.1508 -0.0801022 -0.0572642)
(10.1372 -0.0434596 -0.0494363)
(10.0332 0.0376397 0.0293371)
(9.95008 -0.0350848 0.0933969)
(10.0548 -0.0152982 0.0292197)
(10.1953 0.0445014 0.00845596)
(10.1287 0.0571946 0.0686367)
(9.97095 -0.00534469 0.00169011)
(9.95599 -0.00922941 -0.0115908)
(10.018 -0.0199322 -0.032999)
(10.1664 0.0141109 -0.0640631)
(10.1137 0.0458687 -0.0626757)
(10.1212 0.0795336 -0.0605132)
(10.129 0.0362141 -0.0292267)
(10.0521 -0.0546215 0.020391)
(10.0058 -0.0383571 0.076862)
(10.1172 -0.00762992 0.0720369)
(10.1707 0.0532402 -0.00423734)
(10.0538 -0.0350089 0.0299228)
(10.1064 -0.115342 0.0280579)
(10.2671 0.120773 0.016915)
(10.283 0.133686 0.0417241)
(10.188 -0.0484449 0.0929002)
(10.1373 -0.155617 0.0179705)
(10.071 -0.0964149 -0.0375474)
(9.84735 0.106874 -0.212219)
(9.61469 0.0703618 -0.0354637)
(9.86405 -0.0194566 0.00695811)
(10.1238 -0.00321935 -0.0779169)
(10.0056 -0.0425444 -0.0542084)
(10.0254 -0.103881 0.0607305)
(10.071 -0.0613473 0.0474321)
(10.1681 0.00259269 -0.0323256)
(10.1187 -0.013725 -0.0300891)
(10.0322 -0.0155121 0.0001187)
(10.0343 0.0183511 -0.0286298)
(10.1893 0.0314654 -0.0705875)
(10.1713 -0.0191838 -0.0753383)
(10.0392 -0.0898594 -0.0404981)
(9.91385 0.00966724 0.0458736)
(9.93915 -0.0166126 0.0648285)
(10.1274 0.0738261 0.00234901)
(10.1893 0.0718842 0.0537921)
(10.1394 0.0298912 0.0723932)
(10.1277 0.0201177 0.0371182)
(10.1485 0.0402295 -0.0911917)
(9.97902 -0.0180091 -0.111441)
(9.98508 -0.00708228 0.0180106)
(10.1086 0.0116587 0.0382081)
(10.1668 -0.0553734 0.0217097)
(10.0803 -0.0333035 0.113601)
(10.1298 0.0425346 0.0731129)
(10.0682 -0.0147591 -0.0348977)
(9.99105 -0.0602555 -0.00473066)
(10.1756 -0.0610078 0.0592803)
(10.2313 -0.0725409 0.036672)
(10.1155 -0.153487 -0.0527092)
(10.0383 -0.0729814 -0.113792)
(9.69499 -0.0154039 -0.0623824)
(9.71782 0.098182 0.00508155)
(9.86576 0.0291614 0.0512062)
(10.1365 -0.0651485 0.0887649)
(10.2058 -0.0624108 0.0566294)
(10.1079 0.0209539 0.0209258)
(10.1215 0.167582 0.0372109)
(10.1586 0.126251 0.0329976)
(10.0806 0.0248514 -0.0333749)
(10.0596 -0.010253 -0.0466846)
(10.137 -0.0125041 0.0268608)
(10.1248 -0.0483364 0.0288717)
(10.1132 -0.0521066 0.0120812)
(10.0242 -0.063482 0.0615637)
(9.94127 -0.0251259 0.0218201)
(10.1091 0.101912 -0.0593908)
(10.2322 0.1064 0.00972768)
(10.0915 0.0227353 0.0885281)
(10.0429 -0.00245419 0.0443792)
(10.0878 -0.00909859 -0.129696)
(10.0326 -0.0340946 -0.0791611)
(10.0262 -0.0292279 0.0326259)
(10.0949 0.0715726 0.0395713)
(10.0832 0.0344882 -0.0422167)
(10.2397 -0.00678296 -0.0482174)
(10.2343 0.00087154 -0.0206277)
(10.105 -0.110037 0.0115647)
(10.0937 0.0954272 -0.0106962)
(10.1179 0.143068 0.00759943)
(10.1314 -0.0789181 0.121535)
(9.99913 -0.158112 0.0432211)
(9.91486 -0.149038 -0.0847902)
(9.89377 -0.0428134 -0.058856)
(9.88949 0.142636 0.0183151)
(9.8917 0.0882077 0.0173311)
(10.0214 0.0893767 -0.0287852)
(10.2062 0.0635306 0.115697)
(10.2594 0.0505733 0.145106)
(10.2298 0.0270201 0.0184105)
(10.056 -0.0413025 -0.0238343)
(9.94673 -0.0599306 -0.082866)
(10.0411 -0.0295339 -0.0724826)
(10.1655 -0.0244061 0.039328)
(10.1393 -0.0213132 0.00766301)
(10.0712 -0.0591245 -0.0792271)
(10.0387 -0.0514936 -0.0346167)
(10.0186 0.0378894 -0.0282942)
(10.1431 0.0593864 -0.03969)
(10.1906 0.0127915 -0.0421902)
(10.0468 -0.0890441 0.0353477)
(10.0317 -0.0437253 0.0345836)
(10.1327 0.0523111 -0.0533112)
(10.075 0.023813 -0.0463825)
(10.0384 0.0630927 -0.0764775)
(10.1275 0.146134 0.0661923)
(10.04 0.0688067 0.0790399)
(10.0653 0.0055396 -0.0259029)
(10.2075 -0.132642 -0.0181422)
(10.2873 0.0529727 -0.0451104)
(10.2535 0.0949134 -0.106493)
(10.0897 0.126346 -0.0758488)
(9.9047 -0.15322 0.0773597)
(9.95964 -0.168828 0.0971026)
(10.0686 -0.0753523 0.0850455)
(10.0888 -0.019338 0.024091)
(10.0248 0.0256926 -0.00900637)
(9.77814 0.0897298 0.01426)
(9.88114 0.083737 -0.0100505)
(10.1667 0.0283288 0.0179478)
(10.2834 0.102281 0.0576191)
(10.183 0.123759 -0.00351901)
(10.0121 -0.0871955 0.000564712)
(10.0152 -0.0883839 0.0374118)
(10.1251 -0.0108169 0.00083118)
(10.0831 0.00418107 0.0141446)
(10.0538 0.00598371 0.0122343)
(10.0725 0.0353376 0.0185809)
(10.0478 0.0264729 0.0253962)
(10.0507 -0.0449685 0.0171716)
(10.1399 -0.0488385 0.0147386)
(10.0925 -0.0779008 -0.00151214)
(10.0843 -0.113702 -0.00683451)
(10.1769 -0.0382012 -0.0878811)
(10.1085 -0.0158349 -0.0499596)
(10.1307 0.00613392 0.0162667)
(10.1431 0.0535825 0.00733079)
(10.0909 0.095964 -0.0624405)
(9.89935 -0.0285898 -0.00528127)
(9.89821 -0.0547826 0.032715)
(10.2717 -0.0097201 0.017645)
(10.2288 0.0898972 -0.0836968)
(10.2015 0.0692237 -0.107191)
(9.96382 -0.0366186 -0.0528448)
(9.90644 -0.0944165 0.0076945)
(10.0579 -0.0880345 0.107502)
(10.116 -0.0702534 0.154444)
(10.0641 -0.0631859 0.016376)
(9.99043 -0.0811579 -0.0613186)
(10.0055 -0.0894901 0.00760917)
(9.95858 0.0345259 0.0422451)
(10.0223 0.0429814 0.0320283)
(10.3117 0.10328 0.0806839)
(10.2682 0.137595 0.109234)
(9.95715 0.0598565 -0.0716151)
(9.79889 -0.0303232 -0.170607)
(9.93547 -0.0737938 -0.108307)
(10.1093 -0.0597228 -0.140588)
(10.0975 -0.0180664 -0.0848305)
(10.0707 0.0213446 0.0478331)
(10.0844 -0.0489126 0.113118)
(10.1027 -0.0168645 0.0836058)
(10.1067 0.00261418 0.0566313)
(10.037 -0.0520929 0.00642232)
(10.0711 0.00747061 -0.00281363)
(10.2454 0.00381917 0.00191598)
(10.1169 -0.0239434 0.0783126)
(10.0802 -0.0141152 0.0601281)
(10.1964 -0.0129269 -0.00210326)
(10.0236 -0.0657757 -0.0942181)
(9.95489 0.0501417 -0.0646388)
(9.97644 0.128952 0.0601386)
(10.2072 0.0978362 0.0233515)
(10.1634 0.0304785 -0.0341793)
(10.1511 0.0547409 -0.069707)
(9.77824 0.000264654 -0.103266)
(9.76934 0.0241706 -0.0696039)
(9.85247 0.0383683 -0.0337883)
(9.93403 -0.0758033 0.0213857)
(9.90249 -0.0797616 -0.0318594)
(9.9287 -0.08183 0.00595243)
(9.92757 -0.0655359 0.112121)
(9.94692 0.0415871 0.133998)
(10.0195 0.0668359 0.0997898)
(10.1761 0.0466716 0.105572)
(10.0964 0.00345675 0.0784678)
(9.8587 0.0299212 -0.0448549)
(9.86581 0.0406958 -0.0259781)
(9.97013 0.0016152 -0.0456412)
(10.0614 -0.0421204 -0.207155)
(9.99729 -0.0207511 -0.168417)
(9.87394 -0.0515115 0.11963)
(9.95718 -0.0768477 0.0940475)
(10.0998 0.0301029 0.0212574)
(10.0202 0.0529604 0.0455903)
(9.99231 0.0397074 0.0688351)
(10.0291 0.0462587 -0.049041)
(10.0187 0.0358467 -0.0831851)
(9.96578 0.00646239 0.108564)
(9.99976 0.00376703 0.108302)
(10.1087 -0.0359035 -0.0522094)
(9.94863 -0.0324541 -0.10972)
(9.92155 0.0135368 -0.054316)
(9.94364 0.0491484 0.012489)
(10.116 0.00145512 -0.0161148)
)
;

boundaryField
{
    wall
    {
        type            fixedValue;
        value           uniform (0 0 0);
    }
    outlet
    {
        type            cyclic;
    }
    inlet
    {
        type            cyclic;
    }
    procBoundary2to1
    {
        type            processor;
        value           nonuniform List<vector> 
256
(
(10.2392 0.00188776 0.126715)
(9.85496 0.0363439 -0.118138)
(9.7485 0.0356337 0.0432014)
(9.9374 0.0262934 0.149484)
(10.0757 0.017317 0.0968099)
(9.95796 0.00681007 0.032999)
(9.74797 -0.0330483 -0.121343)
(9.87175 -0.0276883 -0.131501)
(9.83796 -0.00130021 -0.0609947)
(9.5272 0.0159753 -0.00488503)
(9.85003 0.0389273 -0.00245671)
(10.2266 -0.00771973 -0.00798531)
(10.1971 -0.0128367 -0.0173894)
(9.88012 -0.0192152 -0.0622183)
(9.57958 -0.00310082 -0.0312017)
(9.82299 0.00573333 0.00273389)
(10.0711 -0.0104495 0.0552555)
(10.0021 -0.0122507 0.105097)
(10.0299 -0.0128787 0.0595033)
(9.94981 0.00870714 0.0304207)
(9.90627 0.0144871 0.0426455)
(10.0258 -0.0344468 -0.1809)
(10.1157 -0.0270562 -0.256876)
(9.89976 0.0141174 -0.179195)
(9.81712 0.0509475 0.039004)
(9.96734 0.0253615 0.0217368)
(9.78846 0.0249803 0.0371958)
(9.79036 0.0133093 0.0668473)
(10.0137 -0.0140872 0.0931852)
(9.97759 -0.0269719 0.0562904)
(9.97383 -0.0215739 0.126814)
(10.1949 0.00184802 0.160332)
(10.3111 0.0153305 0.00613947)
(9.95473 -0.0109539 -0.101577)
(9.83974 0.097325 0.0968348)
(10.0397 0.113678 0.158016)
(10.1612 0.0476763 0.0770352)
(9.99217 0.0125941 0.00979349)
(9.80135 -0.0717639 -0.122227)
(9.94244 -0.104428 -0.148528)
(9.9903 -0.0278982 -0.0378728)
(9.87016 0.00168862 -0.0400213)
(9.81755 0.00903448 -0.00888034)
(10.0752 -0.0163468 0.013229)
(10.3041 -0.0616667 0.035802)
(10.1203 -0.0402969 0.0284552)
(9.7684 0.0237995 -0.0322512)
(9.95099 0.0644242 -0.0494037)
(10.1387 0.0196121 -0.0139916)
(10.1114 -0.0362941 0.0644791)
(10.1435 -0.0324238 0.0576944)
(10.0728 -0.0105411 0.0374199)
(9.9896 0.0129104 0.063265)
(10.0898 -0.0304774 -0.124438)
(10.1799 -0.060794 -0.201211)
(10.1023 -0.0304019 -0.126524)
(9.96333 0.0434952 0.0344333)
(10.0269 0.0103861 0.00441975)
(9.87937 0.0744024 0.0618587)
(9.87617 0.0848912 0.0731837)
(10.0701 0.0135533 0.101868)
(10.0458 -0.0288906 0.122936)
(10.0438 -0.0141526 0.182108)
(10.3094 0.0222557 0.0431145)
(10.3083 0.0300807 0.0516551)
(9.95648 0.0121062 0.0242489)
(9.91796 0.103803 0.0570113)
(10.1074 0.107314 0.0868836)
(10.1145 0.034641 0.0639387)
(9.97058 -0.0517392 -0.0466874)
(9.58973 -0.104146 -0.0994775)
(9.81886 -0.141811 -0.131783)
(10.1243 -0.0939044 -0.0333139)
(9.91298 -0.0412926 -0.0231042)
(9.93648 0.0403271 -0.0253709)
(10.2127 0.000115659 0.0159864)
(10.1902 -0.0858718 -0.0173035)
(9.92122 -0.055002 0.0274521)
(9.96692 0.0634271 -0.0173518)
(10.1606 0.0641725 -0.0569982)
(9.9924 0.0183527 0.0494272)
(9.98946 0.0355339 0.0405917)
(10.1741 0.040465 0.0181042)
(10.1269 -0.00665318 0.0226449)
(9.99696 -0.0232296 0.0396124)
(10.0394 0.0122971 -0.114637)
(10.132 -0.0141554 -0.194262)
(10.0197 -0.0622359 -0.112072)
(9.98966 -0.039509 -0.0358599)
(10.0254 0.0151365 0.0517189)
(9.99737 0.049267 0.0484652)
(9.9056 0.140964 0.0298768)
(10.0248 0.0532546 0.0990123)
(9.98896 -0.013568 0.164787)
(10.0385 0.0178208 0.152921)
(10.301 0.0426916 0.0470861)
(10.3017 0.0273712 0.121741)
(10.0281 0.0183554 0.0107599)
(10.01 0.064366 0.0307031)
(10.0961 0.0434566 0.0617463)
(10.0662 -0.011534 0.0711576)
(9.91783 -0.188119 -0.0400229)
(9.55625 -0.104325 -0.0356759)
(9.78877 -0.0591552 -0.0929643)
(10.1001 -0.0501903 -0.0459074)
(10.1029 -0.0160465 -0.0423661)
(10.1265 -0.000118216 -0.0392752)
(9.9897 -0.0208221 0.011509)
(9.91048 -0.0542357 0.00152924)
(10.0717 -0.03316 0.00557313)
(10.1864 0.00982785 -0.0370017)
(10.0213 -0.0404639 -0.0870344)
(10.002 -0.0140265 -0.0521547)
(10.1244 0.0589773 -0.0436669)
(10.0419 0.00945912 -0.0245797)
(10.0163 -0.0542452 0.0124921)
(10.1316 0.066405 -0.0259864)
(10.1098 0.0686505 -0.0463924)
(10.1066 -0.024685 -0.0301341)
(9.96898 -0.0189105 -0.0705639)
(9.94522 0.0165972 -0.0552182)
(10.1302 -0.0099572 0.107437)
(10.148 -0.0103141 0.0900127)
(9.94615 0.136891 0.0272656)
(9.8771 0.0962615 0.0593389)
(9.92448 -0.0173061 0.0887954)
(10.1045 0.051086 0.0440302)
(10.2894 0.0799115 0.0818297)
(10.1502 0.0693833 0.01443)
(10.0377 0.145007 0.0551729)
(10.0079 0.123398 0.00762489)
(10.0474 0.0485901 -0.0674359)
(9.97228 -0.237125 -0.112982)
(9.9085 -0.275284 -0.0724748)
(9.68095 -0.0376136 0.0748315)
(9.83187 0.0492001 0.0466097)
(10.1428 0.0362073 -0.00175379)
(9.97585 0.0152947 -0.00564521)
(9.99129 -0.0701114 -0.0559531)
(10.2028 -0.0402203 -0.0871916)
(10.0334 0.0203183 0.00175171)
(10.0211 -0.0161931 0.050361)
(10.1467 -0.0356984 0.0142047)
(10.1139 0.00277284 -0.0258608)
(10.0775 0.0356921 -0.0458126)
(9.97542 0.0189749 -0.0245184)
(9.97448 0.0673635 0.0108554)
(10.0669 0.0449516 -0.0389708)
(10.0562 -0.00351303 -0.037584)
(10.0851 -0.0732017 0.0867284)
(10.1358 -0.0568484 0.0642319)
(10.1418 -0.0693868 -0.00939603)
(10.023 -0.00657062 0.0178918)
(10.0143 0.0342319 0.0580115)
(10.0741 -0.0695499 -0.0059202)
(10.1018 -0.0995924 -0.0449266)
(9.93511 0.203042 0.0564413)
(10.0037 0.0892448 0.122374)
(10.0756 -0.0299851 0.0406611)
(10.1728 0.0996065 0.0184927)
(10.136 0.13965 -0.00151153)
(10.1244 0.21065 0.0544483)
(10.0872 0.181204 0.0446537)
(9.95724 -0.071266 -0.0475317)
(9.72863 -0.245344 -0.0736148)
(9.81642 -0.132061 -0.0311146)
(9.9116 0.0138132 0.0752045)
(10.0029 0.0414653 0.109132)
(10.0789 -0.00244426 0.0401459)
(9.89175 0.00634636 0.0189825)
(9.95326 -0.043745 -0.00397878)
(10.1973 -0.0542001 0.0111283)
(10.1685 0.00497926 0.0388012)
(10.091 0.0366297 -0.0113046)
(10.0989 -0.0138001 -0.0822644)
(10.0578 0.00243338 -0.0408634)
(9.99327 0.0359654 -0.0266435)
(10.0253 0.0947695 -0.057129)
(10.0061 0.109206 -0.0865267)
(9.90313 -0.00207972 -0.0224325)
(9.88148 -0.0281917 -0.0125148)
(10.0569 -0.0802281 0.0739909)
(10.1894 -0.0812203 0.0802996)
(10.1632 -0.0949192 -0.0122564)
(9.98251 -0.00987658 -0.0875522)
(9.89932 -0.0437381 0.0488271)
(10.0773 -0.090251 0.0294971)
(10.2407 -0.0104962 -0.0165466)
(10.1122 0.127941 0.00358788)
(9.9773 0.154122 0.00172842)
(10.0141 -0.0269267 0.00336622)
(9.99871 -0.0189331 -0.061977)
(10.1783 0.0698947 -0.0310714)
(10.1245 0.0688504 -0.0341501)
(9.94159 -0.0136375 -0.0737026)
(9.73035 -0.00164164 0.0137779)
(9.80407 0.0148322 -0.0145497)
(9.96677 0.0399738 -0.0197041)
(10.0043 0.0369189 0.107993)
(9.95562 -0.00807629 0.16162)
(10.0138 -0.0107997 0.0767721)
(9.8659 -0.00987525 -0.00297026)
(9.98045 0.00820591 -0.0360569)
(10.2503 0.0205228 -0.000732107)
(10.2024 0.0457414 0.0497165)
(10.043 0.107675 0.0522126)
(10.0359 0.0250318 -0.0254709)
(10.078 -0.0667403 -0.0214901)
(10.1204 -0.0245449 0.041338)
(10.0937 -0.0270278 0.0222643)
(9.99395 -0.079216 -0.0476984)
(9.82201 -0.0619836 0.00288428)
(9.8774 -0.0135937 0.023355)
(10.043 0.0121193 0.0412966)
(10.2006 -0.0490029 -0.0512112)
(10.2072 -0.0600997 -0.0885912)
(9.99063 0.00555383 -0.0142006)
(9.94796 0.0628682 0.012675)
(10.1553 0.0105205 0.112309)
(10.251 -0.0838013 -0.0174507)
(10.2569 -0.0297036 -0.0908594)
(10.0112 0.12692 -0.152965)
(9.88289 -0.0358868 0.012546)
(9.92951 -0.0694456 -0.0299624)
(10.1033 0.0199391 -0.0170781)
(9.97749 -0.00383775 -0.0710046)
(9.71539 -0.031787 0.0218885)
(9.8005 0.0443021 0.113379)
(9.82602 0.0687532 0.0131618)
(9.8347 0.0474882 -0.0209604)
(9.82975 0.0364491 0.132981)
(9.81786 -0.0043702 0.134408)
(9.87286 -0.00735087 0.0453284)
(9.77841 -0.00457441 -0.0242985)
(9.92906 0.0170416 -0.0304251)
(10.1792 0.0251266 -0.00343041)
(10.1091 0.0293885 0.0453109)
(10.039 0.0720219 0.0360208)
(9.82989 0.0402973 -0.0455188)
(9.88164 -0.0283274 -0.030747)
(10.0539 -0.0180098 0.0454028)
(10.0017 -0.0473348 -0.00418306)
(9.87029 -0.0842916 -0.101721)
(9.90136 -0.0395519 -0.0493773)
(9.93284 0.00811192 -0.0205534)
(9.99291 0.0247894 0.015025)
(10.0129 0.000514729 0.00493289)
(10.032 -0.00573989 -0.0581253)
(9.90305 0.00582217 0.0119703)
(9.90928 0.0165487 -0.000910272)
(10.1738 0.0213214 0.186854)
(10.1588 -0.0677894 0.137661)
(10.0361 -0.117231 -0.105828)
(9.86539 -0.0169318 -0.274209)
(9.71832 0.0139207 -0.00736912)
(9.87261 -0.0165332 0.0363792)
)
;
    }
    procBoundary2to3
    {
        type            processor;
        value           nonuniform List<vector> 
256
(
(9.93672 -0.0362598 0.0256815)
(9.99306 0.0161157 0.100435)
(10.0638 -0.00271185 0.0917306)
(10.1508 0.0444072 -0.0248537)
(9.77346 0.0221284 -0.191526)
(9.67576 -0.0395721 -0.146964)
(9.76442 -0.163733 -0.00629801)
(9.74721 -0.0046481 0.0672345)
(9.84835 0.0778534 0.0845205)
(10.009 0.0685507 -0.0588885)
(9.93574 0.100375 -0.0205309)
(9.99514 0.076904 0.061896)
(10.0622 0.000757754 0.00723166)
(10.059 0.0022411 -0.0243571)
(10.0161 0.0313298 -0.0157715)
(9.9519 0.0117394 0.0878594)
(9.96954 -0.012743 0.076476)
(10.0387 0.0225693 -0.0823639)
(10.0236 0.00908744 -0.105371)
(9.85399 -0.019898 -0.0917751)
(9.7556 -0.0140455 0.0531566)
(9.8492 -0.0294715 0.0659847)
(10.0446 0.0156462 0.0277485)
(9.99311 0.0166607 0.0613875)
(10.0073 -0.00228764 0.116954)
(10.0479 0.00711152 0.0872186)
(10.036 0.0132275 -0.000210988)
(9.7721 -0.0366273 -0.0325036)
(9.78991 -0.0474291 -0.00289719)
(10.0935 0.00348838 -0.0403384)
(10.0664 -0.0202845 -0.129473)
(10.069 -0.0493093 -0.0880393)
(10.1466 0.0660307 0.0821096)
(10.1404 0.0907566 0.0390649)
(10.1615 -0.0172181 0.00280552)
(10.1218 -0.0652672 -0.154732)
(9.83351 0.065893 -0.170028)
(9.59221 -0.0457265 -0.0186217)
(9.81675 -0.0833961 0.0125096)
(10.0477 -0.0391479 0.0145337)
(10.0042 0.00773421 -0.00409647)
(10.0953 0.0664421 0.0108618)
(10.1227 0.0877172 0.0379328)
(10.0603 0.0614684 0.0790742)
(10.0688 0.0302522 0.0811556)
(10.1375 -0.0129354 -0.0303161)
(10.0817 -0.0631223 -0.0536819)
(10.0085 -0.0737582 0.0361507)
(10.0248 -0.0492396 0.0652729)
(10.1029 -0.0770213 -0.0625811)
(10.0937 -0.0933407 -0.131502)
(9.94063 -0.0525854 -0.0147375)
(9.91391 0.00795656 0.0161769)
(10.0292 0.0327607 0.13062)
(10.0761 0.0423935 0.0344543)
(10.0477 0.078902 -0.0192975)
(10.0912 0.0722604 -0.00438522)
(10.1549 -0.00424893 0.00515394)
(10.0465 -0.0535751 -0.0654554)
(9.91982 -0.0175061 0.0579328)
(9.97864 -0.0114258 0.116092)
(10.1448 0.0269981 -0.0540432)
(10.1298 -0.00290185 -0.0721095)
(10.2222 -0.0244759 0.00731158)
(10.2089 0.0681929 -0.040129)
(10.1843 0.0552473 -0.105388)
(10.0459 -0.0485623 -0.0136837)
(10.0447 -0.106908 0.00930551)
(9.9674 -0.0901729 -0.0573651)
(9.74099 0.0786638 -0.178932)
(9.77617 0.0655774 -0.0440701)
(9.90135 0.0212065 0.0643743)
(10.0531 0.0124757 -0.0985923)
(10.1079 -0.0129251 -0.0964546)
(10.1607 -0.0153258 0.0393848)
(9.97206 0.00812012 0.100202)
(10.01 0.048454 0.0693069)
(10.1589 0.0310565 -0.0171139)
(10.1077 -0.0565255 -0.0377117)
(10.0071 -0.139979 0.0611461)
(10.0584 -0.0609295 0.0296594)
(10.0904 -0.0505595 -0.0729578)
(10.0834 -0.0505863 -0.0506686)
(9.98491 -0.0213355 0.014825)
(9.91277 0.042288 0.0498802)
(10.0016 0.0670189 0.123236)
(10.1398 0.0986817 0.113384)
(10.1354 0.0991301 0.12869)
(9.96778 0.0619615 0.102794)
(9.93579 -0.0048579 -0.0563931)
(9.99286 -0.0386901 -0.17127)
(10.0138 -0.00190078 -0.0332368)
(10.0887 0.0116871 0.0874066)
(10.1215 -0.0575964 -0.00988332)
(10.0824 -0.0486681 -0.0400922)
(10.1009 0.00667683 0.0213222)
(10.0968 -0.0830083 -0.0602167)
(10.0352 -0.0952185 -0.0414871)
(10.0898 -0.0417154 0.0849191)
(10.09 -0.0483145 0.100857)
(9.91748 -0.0919923 -0.03825)
(9.78217 -0.0566367 -0.278933)
(9.78099 0.0764907 -0.15094)
(9.99442 0.141194 0.103777)
(9.93535 0.0474346 0.0863648)
(10.0659 -0.10175 0.145696)
(10.2425 -0.0709889 0.137829)
(10.19 0.0515198 0.0446353)
(10.0042 0.116902 0.0269881)
(9.93865 0.0500433 -0.0281814)
(9.99685 -0.024124 -0.0502498)
(10.1442 -0.0411791 -0.0161707)
(10.1903 0.0342871 -0.0622173)
(10.1028 0.0579738 -0.0683665)
(10.0699 -0.00773574 -0.04923)
(10.0211 -0.114826 -0.0216244)
(9.93472 -0.079629 0.0215189)
(10.0949 0.0481119 0.0852647)
(10.1595 0.0338863 0.0592526)
(10.1233 -0.0154252 0.058974)
(9.92882 0.0166199 -0.0254948)
(9.98186 0.0337644 -0.0857211)
(10.1054 -0.0284561 -0.0868937)
(9.98803 -0.0287487 -0.0027691)
(9.94315 0.0256477 0.026585)
(10.0668 0.100782 0.0808183)
(10.1739 0.00588412 0.0447498)
(10.2015 -0.0594644 -0.0197)
(10.0644 0.013266 0.0161639)
(10.1377 0.0247461 0.0164237)
(10.1438 0.0201354 -0.00358631)
(10.1131 0.00585913 0.0303531)
(9.85057 -0.114976 -0.0175802)
(9.8122 -0.086061 -0.0833927)
(9.86654 0.0574643 -0.0666146)
(9.84249 0.107164 -0.0604912)
(9.91524 0.0624803 -0.00895723)
(10.0349 -0.030466 0.117637)
(10.2076 -0.0671116 0.156559)
(10.2499 0.000918264 0.0647453)
(10.0723 0.00999339 -0.0284273)
(9.91435 -0.0480824 -0.108553)
(9.96199 -0.0204982 -0.0636658)
(10.1653 0.0488664 0.0220993)
(10.1805 0.0103372 -0.00800254)
(10.0627 -0.0187395 -0.0356944)
(9.98138 -0.0207548 -0.0315314)
(10.0354 -0.034789 -0.0116066)
(10.0063 0.0131133 0.0221012)
(10.0663 0.0561957 0.000252609)
(10.1362 0.0088986 -0.0333147)
(10.0554 -0.145417 -0.0272881)
(9.99671 -0.0836415 0.0128816)
(10.0586 -0.00369918 -0.0138116)
(10.0563 -0.0271786 -0.0242976)
(10.05 -0.0103393 0.0231874)
(10.1023 0.00610872 0.041825)
(10.0316 0.0756138 0.00257852)
(10.0245 0.0814411 -0.00881045)
(10.0986 0.0145604 -0.00199957)
(10.1283 0.0615362 0.0192292)
(10.096 0.0626909 -0.027629)
(10.1118 0.0152309 0.0363037)
(10.0043 -0.154695 0.151061)