/*--------------------------------*- C++ -*----------------------------------*\
| =========                 |                                                 |
| \\      /  F ield         | OpenFOAM: The Open Source CFD Toolbox           |
|  \\    /   O peration     | Version:  2506                                  |
|   \\  /    A nd           | Website:  www.openfoam.com                      |
|    \\/     M anipulation  |                                                 |
\*---------------------------------------------------------------------------*/
FoamFile
{
    version     2.0;
    format      ascii;
    arch        "LSB;label=32;scalar=64";
    class       volVectorField;
    location    "0.005";
    object      U_0;
}
// * * * * * * * * * * * * * * * * * * * * * * * * * * * * * * * * * * * * * //

dimensions      [0 1 -1 0 0 0 0];

internalField   nonuniform List<vector> 
512
(
(9.89944 -0.0978805 -0.193498)
(9.97599 0.0370109 -0.200347)
(10.2148 0.0178564 -0.00198643)
(10.2321 0.0247327 0.172089)
(10.1084 0.0307208 0.0574694)
(9.58047 -0.0329691 -0.237878)
(9.11803 -0.0474506 -0.0590373)
(9.53316 -0.0324855 -0.124056)
(9.73503 -0.0199548 -0.173833)
(9.52368 -0.0689567 -0.0843475)
(9.75053 0.0284976 0.0662581)
(9.93942 0.0426331 -0.0151111)
(9.8991 0.0208876 -0.0884306)
(9.73778 0.0393213 -0.109598)
(9.77313 0.00838694 -0.0192856)
(9.88788 -0.00580033 0.0352941)
(9.94346 -0.0159123 -0.0520564)
(9.7779 -0.0153429 0.0532945)
(9.74562 0.0559661 0.224096)
(9.75684 0.0385533 0.16186)
(9.90895 -0.0456508 -0.0311211)
(9.98966 -0.0925178 -0.321395)
(10.0731 -0.0116161 -0.353426)
(9.85154 0.0263952 -0.252611)
(9.93787 0.0452797 -0.0981922)
(10.0251 0.0549079 -0.0570692)
(9.80191 0.0358446 0.120201)
(9.51047 0.028868 0.305282)
(9.83764 0.0510232 0.290553)
(10.117 0.146357 0.261307)
(10.1833 -0.0512892 0.32992)
(10.2381 -0.140719 0.22328)
(10.127 0.0167622 -0.254271)
(10.157 0.0459779 -0.124326)
(10.3918 -0.0573516 0.13733)
(10.3556 -0.0297135 0.308365)
(10.0719 0.0145468 0.149547)
(9.55186 -0.0888115 -0.290807)
(9.18973 -0.0622609 -0.135888)
(9.62248 -0.028535 -0.093342)
(9.77927 -0.0129609 -0.148473)
(9.73803 -0.0189369 -0.0623419)
(9.87929 -0.00673805 0.0646203)
(9.95449 -0.0315713 0.00655157)
(9.90634 -0.0500519 -0.11589)
(9.87641 0.0159054 -0.0457193)
(9.82409 -0.0187606 0.046313)
(9.9206 0.0466159 0.000363876)
(10.0848 0.044033 -0.0708783)
(9.95104 -0.0434012 0.101026)
(9.87113 0.0190838 0.186328)
(9.91935 0.00867616 0.0533137)
(9.7112 -0.0651277 0.0363957)
(9.96828 -0.0969833 -0.155271)
(10.3377 -0.0762465 -0.295287)
(10.0233 -0.0704186 -0.192783)
(9.98809 0.0212103 -0.105865)
(10.0847 0.141959 -0.0910471)
(9.84157 0.145113 0.050298)
(9.71195 0.0803046 0.236384)
(9.88094 0.0971821 0.141949)
(9.84663 0.190563 0.200812)
(10.0703 -0.0104749 0.395085)
(10.2267 -0.125566 0.182957)
(10.0772 0.189164 -0.0890668)
(10.1142 0.0412489 -0.0253785)
(10.431 -0.145578 0.146087)
(10.3411 -0.172553 0.160369)
(10.0283 -0.141833 0.0327877)
(9.54523 -0.10695 -0.179907)
(9.19298 0.00128281 -0.0725142)
(9.62714 -0.00297117 -0.0599313)
(9.85224 -0.0388075 -0.0564326)
(9.61119 -0.0936698 -0.0721353)
(9.7868 -0.0363414 -0.00333162)
(9.98048 -0.025065 -0.0417067)
(10.006 -0.0901314 -0.151035)
(9.87225 -0.0960885 -0.084972)
(9.73625 0.0314975 -0.00451164)
(9.97607 0.0438559 -0.121417)
(10.0371 -0.0411269 -0.0862049)
(9.89326 -0.0698791 0.169405)
(9.89403 -0.0331066 0.181594)
(9.78602 -0.0568135 0.0898649)
(9.77069 0.0309755 0.0685216)
(10.0574 0.115296 -0.18859)
(10.1915 -0.0353251 -0.249999)
(10.098 -0.0426693 -0.0883115)
(10.1759 0.0254843 -0.00238288)
(10.1078 0.114483 -0.0018976)
(9.83244 0.142005 0.0477251)
(9.66741 0.0616125 0.114274)
(9.84351 -0.0255619 0.101744)
(9.77589 -0.0340731 0.182725)
(10.1099 0.117518 0.271309)
(10.3316 0.207853 0.0989157)
(10.1732 -0.0864193 0.104713)
(9.79623 0.0847616 -0.115485)
(10.0454 0.0300994 -0.0523301)
(10.3409 -0.286595 -0.00530112)
(10.1258 -0.346348 -0.0422334)
(9.82806 -0.2793 0.0224316)
(9.38797 -0.095548 0.0807331)
(9.2669 0.0947112 0.0582107)
(9.66182 -0.0547652 -0.0232918)
(9.87847 -0.0859602 -0.101122)
(9.98256 -0.145531 -0.181106)
(9.95733 -0.112665 -0.0757116)
(9.81557 0.0928909 0.036316)
(9.88516 0.119711 0.105208)
(9.93175 0.087065 0.0375764)
(9.89256 -0.0485603 -0.111333)
(9.96247 -0.106801 -0.00525756)
(9.97419 -0.0643077 0.00474507)
(9.9869 0.00356757 0.0456273)
(9.87384 -0.0575645 0.150973)
(9.93513 0.0438461 0.0258032)
(10.0722 0.250549 -0.169158)
(10.0536 0.166419 -0.142368)
(10.0331 0.0455678 0.0229445)
(10.1337 0.0131292 0.0529372)
(10.1321 -0.0618259 0.0189308)
(9.93048 -0.137092 0.0260685)
(9.49556 0.00701888 -0.081348)
(9.87749 0.111239 0.0226742)
(10.097 0.229945 0.122488)
(10.2233 0.276206 0.16679)
(10.2887 0.106018 0.137207)
(10.0174 0.00631695 0.025115)
(10.0035 0.102151 -0.0180586)
(9.9545 0.243624 -0.039966)
(10.0103 -0.0214739 -0.0441792)
(10.0368 -0.407467 -0.0357584)
(9.9449 -0.366058 0.0222496)
(9.76836 -0.156456 0.0308068)
(9.31807 0.0846734 0.112022)
(9.60813 0.0711662 0.0629775)
(9.7726 0.0388871 -0.0850867)
(9.93923 0.0199719 -0.11629)
(9.97283 0.0684445 -0.0409372)
(9.97861 0.102535 0.0855012)
(9.96723 0.00576087 0.162446)
(9.71796 -0.0263783 0.0489973)
(9.7686 0.00468317 -0.0337174)
(10.0192 -0.0110551 0.000179203)
(9.99328 -0.0526273 -0.0109743)
(9.91178 -0.0123829 0.00650725)
(9.97925 3.12904e-05 0.0174476)
(10.0239 -0.0168326 -0.050756)
(10.1017 0.0379127 -0.0331451)
(10.0504 0.00828442 -0.00356656)
(9.94603 0.0336857 -0.0508735)
(10.0448 -0.0426066 -0.0612115)
(10.0283 -0.180138 0.0139151)
(9.8878 -0.259145 0.0626011)
(9.86788 -0.0579946 -0.100051)
(9.96046 0.290788 0.0219092)
(10.0296 0.199658 0.142523)
(10.1225 0.252991 -0.0292272)
(10.0395 0.073566 -0.110837)
(10.3723 0.208004 -0.10943)
(10.1108 0.27841 -0.105031)
(9.78123 0.142108 -0.0184592)
(9.73613 0.0382451 0.00187711)
(9.68127 -0.22489 0.0240815)
(9.91173 -0.233092 0.0965005)
(9.96811 -0.114319 0.0823699)
(9.72184 -0.0013429 0.1471)
(9.59056 0.0587373 0.131637)
(9.73372 0.0345147 0.0554189)
(9.83492 0.10522 -0.0637944)
(10.0133 0.18273 0.0241338)
(9.99063 0.124574 0.093741)
(9.79204 -0.0670966 0.0706003)
(9.90377 -0.0730304 -0.0380623)
(9.91203 0.0212164 -0.0321813)
(9.95163 0.12639 -0.00440159)
(9.90732 0.0723936 -0.170218)
(9.88555 0.0110042 -0.155154)
(9.88617 0.0385775 -0.00604137)
(9.97423 -0.136036 0.076799)
(10.1032 -0.243885 0.176003)
(10.0578 -0.222245 0.109051)
(9.9572 -0.132623 -0.173164)
(10.005 -0.0358169 -0.116576)
(9.82578 -0.20678 0.156626)
(10.1343 -0.154653 0.16975)
(10.3022 0.0243447 0.0543466)
(10.0212 0.233382 -0.0481119)
(9.74884 0.171414 -0.0597075)
(9.81658 0.00108407 -0.128091)
(10.1267 -0.0412657 -0.189435)
(10.4467 0.190083 -0.0877158)
(10.0766 0.149579 -0.0996493)
(9.60426 0.0205983 -0.0707594)
(9.7044 0.00398317 -0.0554867)
(9.70191 -0.00282134 0.00743816)
(9.9518 -0.0437673 0.114198)
(10.0048 -0.0553042 0.089925)
(9.80137 -0.0903679 0.109788)
(9.59749 -0.0234187 0.181315)
(9.66636 -0.018831 0.108154)
(9.96354 0.0371207 0.00344253)
(10.0833 0.0594933 0.0924633)
(9.90525 0.0919242 0.159953)
(9.79699 0.120145 0.0477102)
(9.66311 0.0217992 -0.0699666)
(9.93432 0.00184643 -0.101435)
(10.0769 0.10461 -0.0424302)
(9.89568 0.0710553 -0.0664663)
(9.75571 -0.0583238 -0.0944713)
(9.79469 -0.116427 0.0171033)
(9.85998 -0.0594863 0.10816)
(10.0318 -0.123137 0.096825)
(10.1082 -0.228722 0.0437751)
(10.066 -0.11875 -0.153185)
(9.92188 -0.0732561 -0.0880458)
(10.0855 -0.0771861 0.121742)
(10.1782 0.00580244 0.349554)
(10.237 0.0177518 0.0562608)
(10.2298 0.0109689 -0.256856)
(9.80266 6.05232e-05 -0.295954)
(9.67481 0.0335562 -0.0756166)
(10.1713 0.0696866 -0.0599185)
(10.3173 0.0956031 -0.0357237)
(9.95546 0.0636007 -0.0418309)
(9.58253 0.0273586 -0.0610542)
(9.68632 0.0481058 -0.0481308)
(9.55252 0.0555752 -0.0672999)
(9.73032 0.0511973 -0.0188833)
(9.90297 0.0137306 -0.0191641)
(9.73039 -0.124628 0.0159527)
(9.36802 -0.0624497 0.120192)
(9.67981 -0.00487792 0.106557)
(9.97962 0.0125324 0.0718869)
(10.0772 0.0358637 0.149478)
(9.93412 0.0297872 0.155622)
(9.66034 0.0686575 0.0112925)
(9.63145 0.0238318 -0.0140133)
(9.92281 -0.0441573 -0.134126)
(10.0154 -0.0244915 -0.113142)
(9.77044 -0.0431544 -0.0106936)
(9.57386 -0.0756489 -0.00421252)
(9.79418 -0.0719249 -0.0361364)
(9.93205 -0.0486469 0.0562085)
(9.93241 0.0278718 0.208101)
(9.94068 -0.00473749 -0.0208159)
(9.99818 -0.0430309 -0.0242098)
(9.96661 -0.0747211 0.0434172)
(9.95561 0.0218369 0.245144)
(9.98505 0.0655668 0.305646)
(10.1161 0.0305303 0.0269286)
(10.1331 -0.112315 -0.186316)
(9.74035 -0.0435869 -0.268071)
(9.83947 0.0394221 -0.135356)
(10.2068 0.0758276 -0.0564326)
(9.63024 -0.10791 -0.0854091)
(9.95068 0.0548647 0.0293209)
(10.4021 0.128737 0.102038)
(10.2757 0.113486 0.0479666)
(9.86823 0.0382762 -0.280073)
(9.43094 -0.0854576 -0.26193)
(9.20117 -0.116021 0.0349489)
(9.46121 0.00410997 -0.0512139)
(9.6816 0.0220968 -0.19419)
(9.78263 0.0135031 -0.109492)
(9.73912 0.0291886 -0.013032)
(9.8003 0.00343787 -0.0849314)
(9.82666 -0.0160493 -0.115095)
(9.79959 0.0522443 -0.000517893)
(9.81948 0.0332645 0.130864)
(9.80127 -0.0340238 0.109782)
(9.9294 -0.0111102 0.0285366)
(10.0032 0.0769365 0.0453193)
(9.8621 0.0437592 0.137227)
(9.71387 -0.0630711 0.199072)
(9.61127 -0.0643246 0.0207587)
(9.88071 -0.00178967 -0.14334)
(10.0791 0.0611553 -0.194041)
(9.97503 0.0681223 -0.0927092)
(10.0811 0.0408292 -0.0221955)
(10.0684 -0.0201982 0.0143163)
(9.94152 -0.04173 0.0683145)
(9.45976 -0.12725 0.144468)
(9.79193 -0.0214268 0.17005)
(10.291 0.131692 0.198858)
(10.1705 -0.0265244 0.159854)
(9.9652 -0.183274 -0.0156917)
(10.2597 0.0834303 -0.0117959)
(10.2693 0.243037 0.0871286)
(10.3121 0.0975546 0.121255)
(10.3342 -0.0094797 0.0747982)
(9.86411 0.000101414 -0.170289)
(9.31347 -0.0387458 -0.32282)
(9.43176 -0.0952815 -0.181513)
(9.62337 -0.0410739 -0.0189328)
(9.78232 0.0380754 -0.0385948)
(9.84964 -0.0280889 -0.0170786)
(9.82807 -0.0462354 0.0597667)
(9.8499 -0.0470992 -0.00901874)
(9.94222 -0.128296 -0.0958019)
(9.95639 -0.0191735 -0.0538919)
(9.81333 0.0435396 0.10756)
(9.74372 -0.0677606 0.165132)
(10.0333 0.0272193 0.0249895)
(10.1577 0.0721936 0.0389257)
(9.89976 0.0470183 0.151668)
(9.70545 -0.0423649 0.0433408)
(9.75886 -0.0516466 -0.0353074)
(10.0287 -0.00342568 -0.0722918)
(10.1737 0.0363031 -0.0939347)
(10.0129 0.103072 -0.0836199)
(10.0917 0.134595 -0.0747232)
(10.0642 0.0423928 -0.0341612)
(9.87783 -0.0469909 0.0296165)
(9.80601 -0.0359746 0.0853795)
(10.044 0.0376829 0.0848162)
(10.1189 0.0994622 0.0334872)
(9.93479 -0.10347 0.125154)
(10.0885 -0.18806 0.0547748)
(10.2751 0.202237 -0.0104051)
(10.3086 0.133209 0.102851)
(10.208 -0.185238 0.144256)
(10.1736 -0.263609 0.0219672)
(9.8896 -0.152139 -0.137545)
(9.5834 0.0645139 -0.271057)
(9.27346 0.0805703 -0.122771)
(9.60418 -0.0180496 -0.122185)
(9.81752 0.00348336 -0.149233)
(9.74292 -0.154677 -0.0287375)
(9.80054 -0.220416 0.0688587)
(9.81341 -0.0550036 0.0436435)
(9.9631 0.0231167 0.00847664)
(9.98735 0.0305892 0.0140326)
(9.83329 0.016214 0.0339897)
(9.89993 0.0344175 -0.0484994)
(10.0876 0.0397004 -0.0824368)
(10.0483 -0.0761151 -0.0803567)
(9.82901 -0.137518 0.0351459)
(9.69639 0.0138993 0.11989)
(9.85611 0.0605349 0.076568)
(10.0861 0.144525 0.0144994)
(10.1378 0.100748 0.0630206)
(10.0785 0.0721407 0.107731)
(10.0898 0.0758705 0.03285)
(10.0553 0.0659038 -0.143014)
(9.78246 -0.0180772 -0.174786)
(9.80177 -0.00327631 0.0180435)
(9.9992 0.025634 0.0270672)
(10.1118 -0.064882 0.0703467)
(10.0098 -0.0395137 0.244514)
(10.1423 0.146412 0.0418341)
(9.93527 0.0329828 -0.0953447)
(9.93369 -0.0895413 0.0163639)
(10.2241 -0.124516 0.125249)
(10.2197 -0.189816 0.0719113)
(10.0226 -0.259667 -0.0842948)
(9.88978 -0.159632 -0.154238)
(9.34123 -0.0577046 -0.163329)
(9.33955 0.150909 -0.115998)
(9.56361 0.0353664 0.0474)
(9.85883 -0.148335 0.0890009)
(9.99448 -0.137747 0.0638522)
(9.9325 0.0690606 0.0637406)
(9.99423 0.230464 0.107661)
(10.0251 0.172415 0.0798454)
(9.82374 0.0426061 -0.0328055)
(9.86424 -0.0065634 -0.066795)
(10.0149 -0.0215285 0.0209985)
(9.95455 -0.122012 0.0591191)
(9.96946 -0.110797 0.0479397)
(9.87168 -0.0988735 0.105195)
(9.82724 0.0626384 0.00209108)
(10.098 0.218982 -0.0765892)
(10.1913 0.168034 0.0242829)
(9.99453 0.0377313 0.158938)
(9.99261 -0.0121211 0.0281418)
(10.022 -0.0254852 -0.158696)
(9.80606 -0.0718161 -0.119798)
(9.84428 0.0269421 0.0351431)
(9.96864 0.17599 0.0456499)
(10.0554 0.0616763 -0.0317316)
(10.2588 -0.00686349 -0.0267106)
(10.2482 0.023502 -0.0463374)
(10.0124 -0.133178 -0.0445233)
(10.0572 0.174287 -0.0527361)
(10.1169 0.148057 0.0607242)
(10.0997 -0.140413 0.21521)
(9.84523 -0.253475 0.00705635)
(9.79085 -0.293098 -0.088117)
(9.66351 -0.0662357 -0.0830653)
(9.61481 0.140104 -0.0628362)
(9.47591 0.174616 -0.0540861)
(9.78168 0.129824 0.021026)
(9.99685 0.0814215 0.182659)
(10.0985 0.0669969 0.156146)
(10.1149 0.0548149 0.0540305)
(9.85565 -0.0559225 0.00786269)
(9.69369 -0.0679605 -0.106579)
(9.85959 -0.0119924 -0.031246)
(9.98125 -0.0349875 0.119587)
(9.95963 -0.0608097 0.00372776)
(9.95693 -0.0820671 -0.0843949)
(9.94672 -0.0468912 -0.0144007)
(9.96142 0.0713338 -0.0334889)
(10.1154 0.100183 -0.0556511)
(10.124 0.0123912 -0.0555432)
(9.89089 -0.180062 0.0710415)
(9.97373 -0.0565815 0.0286402)
(10.0681 0.000735457 -0.0883727)
(9.89146 -0.0818825 -0.0841591)
(9.94904 0.184716 -0.0656463)
(10.0682 0.301926 0.0928153)
(9.82546 0.158669 0.0972333)
(10.0522 -0.0467274 -0.094288)
(10.226 -0.197681 -0.0788029)
(10.2775 0.112873 -0.110344)
(10.2371 0.154662 -0.138202)
(9.94821 0.124964 -0.0373554)
(9.7674 -0.219376 0.105137)
(9.86817 -0.216179 0.121493)
(9.94468 -0.149183 0.116697)
(9.90418 -0.0541673 -0.00672339)
(9.76329 0.0182638 -0.0418505)
(9.41789 0.140613 -0.0462294)
(9.60173 0.167233 0.00383809)
(10.001 0.104568 0.0867074)
(10.1565 0.188047 0.101083)
(9.9356 0.102065 0.00969577)
(9.77273 -0.155946 0.0253676)
(9.82851 -0.108154 0.0199614)
(9.9436 -0.0273888 -0.00177337)
(9.85522 -0.00197244 0.0694609)
(9.90355 0.0561892 0.0273484)
(9.97695 0.0731714 0.0249335)
(9.95729 0.0233153 0.036096)
(10.0038 -0.0913419 0.0373015)
(10.1078 -0.0790864 0.047449)
(9.90351 -0.166422 -0.00617353)
(9.97741 -0.224844 -0.0820146)
(10.1426 -0.111601 -0.156221)
(9.96964 -0.0677927 0.0221282)
(10.0889 0.00519196 0.129269)
(10.1485 0.115322 0.0465438)
(9.96811 0.14506 -0.159469)
(9.63882 -0.00735216 -0.12384)
(9.86497 0.023969 -0.00775648)
(10.2776 0.0412933 -0.00982243)
(10.2419 0.171624 -0.134867)
(10.0969 0.105051 -0.172513)
(9.81363 -0.0335879 -0.0843203)
(9.76941 -0.108551 0.0105599)
(9.95021 -0.128812 0.145979)
(9.98065 -0.131911 0.177205)
(9.87823 -0.136538 -0.0640495)
(9.81847 -0.163302 -0.106161)
(9.70625 -0.102436 -0.00697154)
(9.5624 0.108668 0.0593283)
(9.92213 0.136413 0.121706)
(10.2296 0.194238 0.173297)
(9.92849 0.190189 0.138586)
(9.61115 0.0542049 -0.114892)
(9.55531 -0.0346871 -0.208133)
(9.88632 -0.127309 -0.118652)
(10.024 -0.0947105 -0.17236)
(9.97618 0.07149 -0.0488424)
(9.95304 0.0667207 0.0910606)
(9.93534 -0.0874738 0.171703)
(9.94955 -0.0318906 0.140998)
(9.97541 -0.0606322 0.0903484)
(9.88157 -0.181397 -0.00481209)
(10.047 -0.0231077 -0.0189057)
(10.2126 -0.0272598 0.0365998)
(10.0162 -0.0441394 0.207048)
(10.088 0.00189784 0.124269)
(10.1899 -0.0113819 0.0215143)
(9.86584 -0.107531 -0.195742)
(9.81513 0.13232 -0.170609)
(9.91397 0.204519 -0.0474877)
(10.22 0.160031 -0.0229002)
(10.1852 0.074635 -0.0704734)
(10.0016 0.0762542 -0.167161)
(9.61302 0.012173 -0.178063)
(9.6026 0.044483 -0.128599)
(9.71763 -0.0162902 -0.05194)
(9.80285 -0.133429 0.00569643)
(9.77018 -0.12182 -0.0490089)
(9.78508 -0.130552 0.00275541)
(9.70654 -0.0673165 0.128417)
(9.69269 0.0670695 0.191675)
(9.9189 0.10417 0.193175)
(10.0918 0.0798286 0.205186)
(9.81549 0.0355462 0.111595)
(9.55453 0.101473 -0.0108319)
(9.54764 0.0495817 -0.0692525)
(9.85287 -0.0577659 -0.19682)
(10.0031 -0.0710238 -0.328672)
(9.85595 -0.00635861 -0.108077)
(9.71547 -0.0457903 0.174728)
(9.8934 -0.0870256 0.10845)
(10.0284 0.0363118 0.0649008)
(9.84007 0.0506968 0.0986194)
(9.88286 -0.00709004 0.0931664)
(10.0013 0.025224 -0.0443877)
(10.0014 0.0378687 0.0527718)
(9.92449 0.00841501 0.289243)
(10.0283 -0.010183 0.140143)
(10.0858 -0.0493706 -0.0845664)
(9.83531 -0.0493108 -0.212592)
(9.8516 0.0443179 -0.129426)
(9.95347 0.0730183 -0.0637861)
(10.1342 0.0445226 -0.0479801)
)
;

boundaryField
{
    wall
    {
        type            fixedValue;
        value           uniform (0 0 0);
    }
    outlet
    {
        type            cyclic;
    }
    inlet
    {
        type            cyclic;
    }
    procBoundary2to1
    {
        type            processor;
        value           nonuniform List<vector> 
256
(
(9.36451 0.00751676 0.16542)
(8.34157 0.0517563 -0.20326)
(8.67975 0.026376 0.0501319)
(9.34361 0.00498223 0.129105)
(9.45161 -0.000173539 0.073712)
(8.73048 -0.0168516 -0.0272369)
(8.39182 -0.0437258 -0.130876)
(8.59822 -0.0337929 -0.156108)
(8.09605 -0.0119866 -0.091465)
(7.76276 -0.0151013 -0.0709802)
(8.79689 0.0239581 -0.0327412)
(9.2935 -0.000234416 -0.0315934)
(9.03156 -0.0173573 -0.0535864)
(8.12366 -0.0245922 -0.113657)
(7.92682 -0.00741898 -0.0948866)
(8.80253 0.0167251 -0.051489)
(8.91779 0.00655796 0.0361617)
(8.76414 0.00908915 0.151371)
(8.90116 0.0136772 0.10579)
(8.65015 0.021806 0.0908004)
(8.77736 -0.0114322 0.0296408)
(9.18157 -0.0728865 -0.296621)
(9.24987 -0.0611395 -0.377037)
(8.3795 0.0093953 -0.247915)
(8.67043 0.0407789 -0.0608551)
(8.86789 0.0361158 0.00885781)
(8.09224 0.047978 0.125071)
(8.56413 0.0336207 0.158369)
(9.10148 0.00855954 0.151688)
(8.97303 -0.00638403 0.158563)
(9.07167 0.00413405 0.377385)
(9.45809 0.00621797 0.352696)
(9.50657 0.0275339 0.0338361)
(8.50914 -0.000998818 -0.156251)
(8.74149 0.0869379 0.103328)
(9.41423 0.064556 0.175097)
(9.49271 -0.00101502 0.0996607)
(8.71689 -0.0566465 -0.0450712)
(8.43942 -0.101642 -0.14452)
(8.6934 -0.126793 -0.168512)
(8.37029 -0.0566336 -0.0865612)
(8.07284 -0.043462 -0.144943)
(8.09412 0.00611509 -0.0357275)
(9.0095 -0.0283305 0.0217322)
(9.16068 -0.0628947 0.0107291)
(8.35839 -0.032926 -0.0389455)
(8.09447 -0.00346929 -0.0985271)
(8.88945 0.0824936 -0.113733)
(8.96591 0.0607825 -0.0190244)
(8.90019 0.00917631 0.106907)
(9.10483 0.0136892 0.0957904)
(8.8923 0.00144484 0.0950924)
(8.76223 -0.0227614 0.119224)
(9.21397 -0.104184 -0.274738)
(9.44159 -0.118625 -0.334819)
(8.84174 -0.0552081 -0.196999)
(8.80398 -0.00503044 -0.056648)
(8.9262 0.0241022 0.0084239)
(8.22497 0.151821 0.169964)
(8.64618 0.141647 0.149947)
(9.12986 0.0670455 0.174793)
(9.02896 0.0293642 0.273707)
(9.16343 0.0579459 0.347567)
(9.54466 0.0610299 0.161803)
(9.40075 0.0557592 0.0931322)
(8.84664 -0.0422603 -0.0565725)
(9.02104 0.0728169 0.0201687)
(9.35545 0.0572153 0.140358)
(9.31937 -0.0547849 0.0831348)
(8.55684 -0.175349 -0.110635)
(7.77469 -0.159184 -0.0937791)
(8.58423 -0.174529 -0.121714)
(8.80924 -0.13224 -0.079693)
(8.11356 -0.0861347 -0.0868097)
(8.70813 0.0172919 -0.0371202)
(9.09905 -0.0135776 -0.0184455)
(8.80719 -0.0889337 -0.0985055)
(8.20857 -0.0665205 -0.0256498)
(8.88396 0.036382 -0.110133)
(9.0392 0.061294 -0.101574)
(8.29921 0.0373175 0.0791692)
(8.81216 0.0718818 0.0513277)
(9.24874 0.0631504 0.0233373)
(9.16184 -0.0504299 0.0572448)
(8.90945 -0.0285015 0.0511213)
(9.12836 0.0444021 -0.233429)
(9.31242 -0.011445 -0.276246)
(8.9845 -0.123144 -0.199129)
(8.8922 -0.0726763 -0.0592647)
(8.93033 0.0127885 0.102269)
(8.76626 0.0974834 0.159929)
(8.66252 0.195754 0.128738)
(8.97045 0.124041 0.164611)
(8.85458 0.0809648 0.279622)
(9.16533 0.15601 0.260752)
(9.5272 0.140253 0.156027)
(9.29425 0.0140441 0.155977)
(8.93934 -0.0432027 -0.0268817)
(8.95474 0.0421217 0.023923)
(9.14347 -0.0143912 0.0538111)
(9.10767 -0.146046 -0.0149913)
(8.29636 -0.327987 -0.121136)
(7.76909 -0.186369 -0.000653567)
(8.56509 -0.0868606 -0.0445265)
(8.76774 -0.0914518 -0.0667299)
(8.82894 -0.0676577 -0.113967)
(8.91644 -0.0530128 -0.0929723)
(8.42242 -0.0502099 -0.0418408)
(8.56136 -0.0354178 -0.0717076)
(9.05854 0.00301987 -0.0319557)
(9.05807 0.0105897 -0.0709402)
(8.42071 -0.0834863 -0.138882)
(8.83788 -0.0689689 -0.0615186)
(8.94419 0.0535003 -0.0482044)
(8.76417 0.00133207 -0.0225183)
(8.92234 0.0124021 0.0127756)
(8.68046 0.147034 -0.0284212)
(9.08233 0.085941 -0.0495538)
(9.01926 -0.0839886 -0.0301008)
(8.78244 -0.0364277 -0.119621)
(8.90572 0.0312062 -0.0194034)
(9.10608 -0.0338397 0.178319)
(9.06405 -0.0243983 0.184366)
(8.43684 0.170644 0.0979562)
(8.41751 0.187681 0.0339151)
(8.77815 0.115993 0.122608)
(9.17325 0.26802 0.178531)
(9.45526 0.216138 0.239798)
(9.0122 0.0378102 0.00263369)
(8.80623 0.142402 0.013455)
(8.97429 0.116187 -0.0387804)
(9.04446 -0.0527354 -0.147955)
(8.64796 -0.351832 -0.189123)
(8.4334 -0.354915 -0.0946162)
(7.93618 -0.131789 0.121303)
(8.57672 0.00846684 0.121884)
(8.78051 0.00973288 0.0242697)
(8.18325 0.00435968 -0.0529956)
(8.78601 -0.0787637 -0.162057)
(9.00835 -0.0284742 -0.154382)
(8.35522 0.0395542 -0.0134157)
(8.8659 -0.0209258 0.0499903)
(9.15376 0.00149182 0.0184513)
(9.02604 -0.00784689 -0.057356)
(8.8697 -0.000898318 -0.111105)
(8.33588 0.0121991 -0.0863519)
(8.66221 0.143798 -0.015318)
(8.88328 0.0972398 -0.0534795)
(8.69664 -0.0250933 0.0173742)
(9.04322 -0.158051 0.164136)
(9.27509 -0.153403 0.126734)
(8.99282 -0.118977 0.00983802)
(8.89159 0.0368578 -0.0189808)
(8.89264 -0.0132248 0.0761046)
(9.00117 -0.253038 0.0578632)
(9.02087 -0.0767055 0.0104877)
(8.33572 0.425204 0.0776446)
(8.9441 0.241366 0.12983)
(9.1906 0.224968 0.0933338)
(8.99751 0.228043 0.10644)
(9.19384 0.207177 -0.026353)
(9.08896 0.245372 0.064589)
(8.53875 0.182029 0.0251808)
(8.30741 -0.150796 -0.0918018)
(8.09622 -0.312881 -0.115396)
(8.70071 -0.187222 -0.0547844)
(8.75111 -0.084717 0.106304)
(8.71497 -0.00313778 0.218947)
(8.7534 -0.00325986 0.0970617)
(8.098 0.036819 -0.0148054)
(8.84052 -0.0270485 -0.0704639)
(9.21755 -0.0242139 -0.00380956)
(9.09394 0.0242429 0.0341562)
(9.09052 0.0151048 -0.0723084)
(9.11232 -0.0128527 -0.0974488)
(9.02903 0.0511261 -0.0641461)
(8.85207 0.110997 -0.0992098)
(8.94249 0.135609 -0.10735)
(8.85917 0.12508 -0.110234)
(8.61453 0.00168591 0.000227757)
(8.69654 -0.112324 0.0543217)
(9.07191 -0.242397 0.21098)
(9.18782 -0.169306 0.161906)
(8.90699 -0.134688 -0.0503878)
(8.62127 -0.0824663 -0.0960172)
(8.67216 -0.208288 0.0879805)
(9.18534 -0.171788 0.0282156)
(9.21247 -0.0213447 -0.0107866)
(8.90257 0.279782 0.0134261)
(8.84363 0.364086 0.0272335)
(9.03959 0.122072 0.0101529)
(8.84262 0.101186 -0.110839)
(9.23397 0.152165 -0.0667304)
(9.05337 0.153022 0.0102815)
(8.35592 0.0540683 -0.0238137)
(8.09275 -0.0088912 -0.0186585)
(8.46327 -0.0254535 -0.076535)
(8.82661 -0.01599 -0.0335702)
(8.62688 -0.0379451 0.185518)
(8.54282 -0.0427719 0.273143)
(8.55866 -0.0138539 0.132608)
(8.13204 -0.000175181 -0.00954471)
(8.88544 0.0230675 -0.0777641)
(9.20642 0.0272867 0.00720783)
(9.07429 0.0840377 0.0730621)
(8.85546 0.135174 0.00744056)
(8.88248 0.0110353 -0.0774911)
(9.06162 -0.043454 -0.0571996)
(9.12591 0.0279762 0.0105085)
(9.1183 -0.00976355 -0.00993568)
(8.66375 -0.0965305 -0.0537895)
(8.35963 -0.0894285 0.0132726)
(8.7632 -0.0562902 0.0881978)
(9.00164 -0.0606991 0.110066)
(9.22987 -0.0922513 -0.013997)
(9.12228 -0.109483 -0.116537)
(8.71829 -0.0862204 -0.0354536)
(8.89218 -0.0688915 0.0517443)
(9.04633 -0.0715189 0.170845)
(9.39793 -0.0779457 -0.00992656)
(9.36372 0.0119764 -0.129703)
(8.47786 0.213203 -0.175451)
(8.66667 0.104157 -0.0203697)
(8.92047 0.0246238 -0.143453)
(9.18514 0.0665288 -0.0352625)
(8.8498 0.0477446 -0.00687903)
(8.57452 0.00422734 0.0474509)
(8.65671 0.0386153 0.117901)
(8.4477 0.0584955 -0.0326042)
(8.61744 0.0397959 -0.0159917)
(8.41114 0.00212572 0.192352)
(8.35508 -0.0303573 0.204532)
(8.38078 -0.0173278 0.0779984)
(8.10073 -0.00979506 -0.0341097)
(8.86985 0.0220727 -0.0671196)
(9.03694 0.0281265 0.0106247)
(8.9257 0.0508626 0.0902886)
(8.86124 0.104092 0.0327133)
(8.15217 0.0508132 -0.0752941)
(8.78031 -0.0496424 -0.0554384)
(8.92716 -0.0151242 0.00403507)
(8.74483 -0.0632993 -0.0505115)
(8.6175 -0.09827 -0.0991569)
(8.66785 -0.0493368 -0.0168357)
(8.88844 -0.0110381 0.0620194)
(8.81725 0.0234845 0.106788)
(8.96594 -0.00710355 -0.00315738)
(8.97126 -0.0383437 -0.154643)
(8.71165 -0.0520112 0.0129379)
(8.93558 -0.0286224 0.151314)
(8.81454 0.0112941 0.305341)
(8.98158 -0.0934989 0.0572223)
(8.85728 -0.0803534 -0.234446)
(8.41192 0.0167906 -0.328569)
(8.51735 0.0605018 -0.0908187)
(8.90515 0.0129912 -0.0392001)
)
;
    }
    procBoundary2to3
    {
        type            processor;
        value           nonuniform List<vector> 
256
(
(8.61796 -0.0360138 0.00937217)
(9.13501 0.0562962 0.211999)
(9.20484 0.0428762 0.177674)
(8.87369 0.100817 -0.0500935)
(8.13433 0.0324285 -0.334472)
(8.38729 -0.114099 -0.242041)
(8.32088 -0.245202 -0.126801)
(8.27826 0.0360232 0.0610172)
(8.58225 0.124198 0.0130783)
(8.76495 0.084131 -0.15731)
(8.69251 0.116582 0.0130198)
(8.76274 0.0732639 0.114204)
(8.85265 -0.0135556 0.0161475)
(8.88074 0.00962406 -0.0266487)
(8.8383 0.0299942 0.0196336)
(8.76984 -0.00295665 0.180012)
(8.86943 -0.0202284 0.136129)
(8.97864 0.0399199 -0.104721)
(8.96459 0.0100427 -0.136064)
(8.38861 -0.0603082 -0.0941993)
(8.52024 -0.0804227 0.073776)
(8.81636 -0.0148232 0.0814163)
(9.00066 0.0654009 0.0345586)
(9.08815 0.0496098 0.122473)
(9.14896 0.00227344 0.196754)
(9.11782 -4.18242e-05 0.138816)
(8.65752 -0.00310975 -0.00308326)
(8.51828 -0.0557838 -0.0749716)
(8.7262 -0.0314662 0.0151385)
(8.8407 0.0143227 -0.0318807)
(9.12824 -0.0461512 -0.21463)
(9.00768 -0.0658119 -0.124556)
(8.7073 0.0822544 0.136031)
(9.14321 0.121628 0.0629286)
(9.20122 -0.00454006 -0.0120109)
(8.87846 -0.0347311 -0.234414)
(8.29315 0.0759976 -0.22714)
(7.87489 -0.103898 -0.085327)
(8.57015 -0.152906 -0.0781175)
(8.83468 -0.0925231 -0.0744035)
(8.58991 0.0404576 -0.0394342)
(8.8407 0.108868 -0.0191414)
(9.04521 0.112901 -0.00369629)
(8.95956 0.0773021 0.12241)
(8.85373 0.0294727 0.117671)
(8.93605 -0.0279911 -0.0241616)
(9.12196 -0.0870005 -0.0526761)
(9.00392 -0.0889468 0.124288)
(8.89363 -0.0584327 0.12699)
(9.03183 -0.121739 -0.0990521)
(9.07225 -0.121745 -0.192522)
(8.7437 -0.0735834 0.0146091)
(8.77338 0.0253192 0.13233)
(8.52759 0.067763 0.202723)
(9.0353 0.0956012 0.0357628)
(9.18331 0.174735 0.00747171)
(9.19814 0.120343 0.0454267)
(9.08645 -0.00622638 -0.00416382)
(8.64408 -0.0776662 -0.0853576)
(8.66552 -0.0420977 0.101059)
(8.8468 -0.00900521 0.0985363)
(9.04544 0.0405245 -0.119964)
(9.04651 -0.0135555 -0.0980584)
(8.81273 -0.0423612 0.0402606)
(9.11763 0.0857224 0.0242395)
(8.95008 0.0350935 -0.0422763)
(8.77931 -0.126968 0.0144518)
(8.97435 -0.176587 -0.0268878)
(8.66553 -0.111754 -0.169169)
(8.02908 0.063909 -0.287206)
(8.4004 0.0223173 -0.134344)
(8.59787 -0.0194536 -0.0293196)
(8.37895 -0.00307234 -0.169813)
(8.85735 -0.0372356 -0.0754927)
(8.84822 -0.038293 0.0682492)
(8.37596 0.0205645 0.147616)
(8.92083 0.111086 0.112705)
(9.12916 0.0902036 0.0209833)
(8.74969 -0.121113 -0.0117446)
(8.79012 -0.20707 0.0985032)
(9.12645 -0.0503652 -0.00164406)
(9.15672 -0.0781614 -0.0932927)
(9.07555 -0.0908638 -0.0518595)
(8.88972 -0.0202893 0.0256815)
(8.69768 0.10834 0.106755)
(8.55905 0.126124 0.19517)
(9.10506 0.141694 0.177344)
(9.05462 0.15688 0.220074)
(8.59562 0.111866 0.149969)
(8.59455 0.0100546 -0.127286)
(8.80881 -0.0473341 -0.267065)
(9.05631 0.0163614 0.0397118)
(8.92957 0.0292399 0.122902)
(9.04035 -0.0527552 -0.0649814)
(9.24242 -0.0344609 -0.0975879)
(9.26584 0.0491587 0.0305935)
(9.02627 -0.0816731 -0.108924)
(9.0017 -0.125336 -0.0037803)
(9.07116 -0.079092 0.135869)
(9.09138 -0.111586 0.125318)
(8.45783 -0.16456 -0.122576)
(8.33894 -0.126302 -0.392963)
(8.37254 0.121394 -0.205052)
(8.36998 0.184945 0.0247111)
(8.19718 0.00513499 0.0709775)
(8.83988 -0.152693 0.204352)
(8.98827 -0.082177 0.176796)
(8.62999 0.0913688 0.0583433)
(8.63075 0.151005 0.0617246)
(8.60815 0.109025 -0.0226516)
(8.87007 -0.0328658 -0.0489391)
(8.9178 -0.0345233 -0.0354647)
(9.00951 0.0466973 -0.0919263)
(9.02491 0.0534442 -0.073846)
(8.99935 -0.106034 -0.0104412)
(9.02995 -0.183288 -0.0172749)
(8.70598 -0.0197239 0.0514226)
(9.05083 0.143326 0.134707)
(9.27607 0.0713572 0.112386)
(8.91132 -0.0165193 0.109922)
(8.34168 0.00825843 -0.0265697)
(8.90956 -0.010338 -0.150711)
(9.08634 -0.0538529 -0.155526)
(8.86925 0.0104327 0.0467521)
(8.84778 0.172087 0.0683244)
(8.60598 0.160045 0.0938306)
(9.10773 -0.0314754 0.0351975)
(9.13114 -0.0642992 -0.0452367)
(9.24121 -0.00439802 0.0299787)
(9.21829 0.0161083 0.0593575)
(9.13443 0.0146773 0.0498103)
(8.91206 -0.0556123 0.0661967)
(8.24526 -0.195647 -0.0531615)
(8.4322 -0.116286 -0.119749)
(8.41499 0.0822903 -0.134758)
(8.51058 0.159305 -0.182311)
(8.63201 0.0259315 0.0129193)
(8.36755 -0.0341696 0.191343)
(8.98318 -0.00867093 0.201305)
(9.05827 0.0332027 0.124692)
(8.39901 -0.00452199 -0.0179149)
(8.65799 -0.0699613 -0.12569)
(8.74937 0.0117288 -0.0449147)
(8.95507 0.0770532 0.0643919)
(9.18639 0.015766 0.0101947)
(9.00587 -0.0508257 -0.0476409)
(8.787 -0.0376662 -0.0382735)
(8.49242 -0.0342514 -0.00924725)
(8.58343 0.0452451 0.0362366)
(9.062 0.104493 -0.00276771)
(9.06051 -0.0551723 -0.0503957)
(8.95306 -0.26706 -0.0362369)
(9.02772 -0.149776 0.0268986)
(8.86542 -0.0120167 -0.043242)
(8.48508 -0.0206842 -0.0256425)
(8.93767 0.0557575 0.063215)
(9.2078 0.0886294 0.0258381)
(9.01823 0.160805 -0.0682505)
(8.96917 0.0895229 -0.0120341)
(9.06568 0.0241933 -0.00320306)
(9.13415 0.102192 -0.0123471)
(9.21259 0.0913962 -0.0156048)
(8.89771 -0.0348389 0.134468)
(8.51068 -0.214814 0.200143)
(8.33528 -0.123221 -0.0246831)
(8.23244 -0.0223879 -0.270265)
(8.71896 -0.0738453 -0.175692)
(8.81273 0.02011 -0.267548)
(8.68386 0.165334 -0.0753721)
(8.26195 0.219186 0.196369)
(8.91104 0.073155 0.0944155)
(9.22165 0.116479 -0.0367861)
(8.82824 0.0100976 -0.0408501)
(8.70087 -0.180916 0.0925425)
(8.76809 -0.141205 0.0689197)
(8.91028 -0.0824917 -0.0241197)
(8.91715 -0.0578582 0.0767715)
(8.7347 -0.0348896 0.163555)
(8.78995 0.127129 -0.000930743)