/*--------------------------------*- C++ -*----------------------------------*\
| =========                 |                                                 |
| \\      /  F ield         | OpenFOAM: The Open Source CFD Toolbox           |
|  \\    /   O peration     | Version:  2506                                  |
|   \\  /    A nd           | Website:  www.openfoam.com                      |
|    \\/     M anipulation  |                                                 |
\*---------------------------------------------------------------------------*/
FoamFile
{
    version     2.0;
    format      ascii;
    arch        "LSB;label=32;scalar=64";
    class       volVectorField;
    location    "0.001";
    object      U;
}
// * * * * * * * * * * * * * * * * * * * * * * * * * * * * * * * * * * * * * //

dimensions      [0 1 -1 0 0 0 0];

internalField   nonuniform List<vector> 
512
(
(8.99577 -4.01373e-06 0.00030318)
(8.99578 1.27434e-05 0.000286607)
(8.99344 2.09251e-05 0.000197729)
(8.9959 1.75131e-05 0.000179662)
(8.99593 1.4553e-05 0.000123397)
(8.99594 6.62393e-06 0.000111634)
(8.99595 7.38567e-06 0.000117381)
(8.99595 5.14779e-06 0.000136578)
(8.99592 2.07128e-05 0.000144406)
(8.99589 -1.80229e-06 0.000128586)
(8.99584 -1.11331e-05 0.000132782)
(8.99582 -6.25316e-06 0.000100903)
(8.99581 -1.48649e-05 9.76539e-05)
(8.99579 -1.71902e-05 8.63918e-05)
(8.99581 5.82727e-06 4.78047e-05)
(8.99582 2.83925e-06 4.4749e-05)
(8.99584 -6.92668e-06 5.88512e-05)
(8.99582 -2.20037e-05 0.00016112)
(8.99572 -1.50155e-05 0.000158075)
(8.99567 1.88207e-05 6.0303e-05)
(8.99571 2.10488e-05 3.15449e-05)
(8.9957 1.37513e-05 4.76229e-05)
(8.99556 8.98218e-06 7.6101e-05)
(8.9957 -4.87018e-06 0.000113997)
(8.99562 -1.44075e-05 0.000111373)
(8.99565 -3.51891e-06 0.000103731)
(8.99567 1.86172e-07 0.000145997)
(8.99565 1.64815e-05 0.000163911)
(8.99562 1.5401e-05 0.000181831)
(8.99563 1.10506e-05 0.00019022)
(8.99571 1.16034e-05 0.000201845)
(8.99574 -1.97806e-06 0.000276299)
(9.01302 3.80172e-05 0.000246123)
(9.01304 3.95697e-05 0.00025164)
(9.01309 4.55065e-05 0.000207487)
(9.01311 3.34518e-05 0.000184905)
(9.01314 1.52702e-05 0.000131089)
(9.01316 4.37358e-06 0.000119557)
(9.01317 1.51973e-05 0.000117274)
(9.0132 6.24749e-06 0.000125241)
(9.01311 6.92429e-06 0.000190007)
(9.01309 -6.04467e-06 0.000131075)
(9.01305 -3.49881e-05 0.000119248)
(9.01306 -2.22183e-05 9.51935e-05)
(9.01304 -9.01284e-06 7.44008e-05)
(9.01279 -1.46075e-05 7.76469e-05)
(9.01305 -3.20609e-06 6.30922e-05)
(9.01303 1.33097e-05 5.21991e-05)
(9.01305 -5.67035e-06 5.20346e-05)
(9.01303 -5.04102e-05 0.000137722)
(9.01297 -1.72315e-05 0.000126361)
(9.01292 4.69607e-05 0.000102647)
(9.01293 4.53229e-05 7.03097e-05)
(9.01294 2.60826e-05 5.4918e-05)
(9.01291 2.82599e-05 8.36557e-05)
(9.01289 9.63403e-06 9.22291e-05)
(9.01288 1.27916e-05 5.87952e-05)
(9.0129 1.92186e-05 7.72784e-05)
(9.01292 2.53061e-05 0.000129525)
(9.01288 3.62447e-05 0.000184468)
(9.01283 1.9804e-05 0.000192541)
(9.01287 1.73519e-05 0.000181686)
(9.0129 3.79956e-05 0.000190617)
(9.01297 2.38011e-05 0.000228251)
(9.01303 4.33473e-05 0.000277129)
(9.01301 3.19978e-05 0.000227724)
(9.0131 4.47284e-05 0.000187782)
(9.01312 3.32809e-05 0.000164251)
(9.01315 3.32555e-05 8.70081e-05)
(9.0132 4.35906e-05 7.691e-05)
(9.01318 3.40931e-05 0.000107694)
(9.01317 1.14687e-05 0.000110881)
(9.01317 -9.85824e-06 0.000151848)
(9.01308 -1.46493e-05 0.000127664)
(9.01307 -1.64829e-05 5.89208e-05)
(9.01307 7.59696e-06 4.61032e-05)
(9.01308 1.59587e-05 9.29182e-05)
(9.01304 2.20863e-05 5.09802e-05)
(9.01308 1.12508e-05 1.46383e-05)
(9.01304 3.11386e-05 6.79217e-05)
(9.01306 1.33309e-05 5.66226e-05)
(9.01159 -2.60032e-05 8.12829e-05)
(9.01306 -9.43346e-06 0.000126096)
(9.01296 9.67629e-06 0.000168349)
(9.01293 3.32231e-05 0.000110644)
(9.01295 3.72886e-05 7.4151e-05)
(9.01294 3.01055e-05 0.000101709)
(9.01292 3.23109e-05 9.45835e-05)
(9.0129 5.68689e-05 8.57797e-05)
(9.01292 4.1142e-05 9.24118e-05)
(9.01291 4.61675e-05 0.000142446)
(9.01288 3.76015e-05 0.000202113)
(9.01286 3.16181e-05 0.000140338)
(9.01291 3.17606e-05 0.000131004)
(9.01292 6.13243e-05 0.000177813)
(9.01303 4.94267e-05 0.000207185)
(9.01303 1.59143e-05 0.000152667)
(9.01308 4.80257e-05 0.000137149)
(9.0131 8.32792e-05 0.000139921)
(9.01312 7.02357e-05 0.000121014)
(9.01316 6.40608e-05 9.43148e-05)
(9.01318 7.03335e-05 0.000125089)
(9.01317 5.40607e-05 0.000120113)
(9.01316 2.30897e-05 9.40957e-05)
(9.01312 -1.14735e-05 0.000146047)
(9.0131 -1.15312e-05 8.905e-05)
(9.01312 2.11772e-05 6.83254e-05)
(9.01308 6.22794e-05 9.40461e-05)
(9.01307 4.29091e-05 8.55258e-05)
(9.01307 1.7697e-05 7.47852e-05)
(9.01307 2.81941e-05 5.56314e-05)
(9.01305 3.24431e-05 9.40453e-05)
(9.01303 2.65092e-05 7.08888e-05)
(9.01305 1.98528e-05 7.02805e-05)
(9.01302 -2.09105e-05 0.000106248)
(9.01296 -1.15244e-05 0.000102541)
(9.01296 1.89435e-05 0.000106862)
(9.01294 2.36032e-05 0.000125858)
(9.01293 -7.577e-06 0.000112284)
(9.01295 1.81534e-05 0.00010416)
(9.0129 6.19801e-05 0.000115382)
(9.01288 5.25684e-05 8.62586e-05)
(9.01292 4.01392e-05 0.000145352)
(9.01285 2.3098e-05 0.000181683)
(9.01285 5.41724e-05 0.000147098)
(9.01049 7.09645e-05 0.000115691)
(9.01295 6.16201e-05 0.000173242)
(9.01299 3.52242e-05 0.000166217)
(9.01305 3.61107e-05 6.91972e-05)
(9.01309 5.75173e-05 0.000125323)
(9.0131 9.33531e-05 0.00018226)
(9.01308 0.000111465 0.000148469)
(9.01289 8.00169e-05 0.000102701)
(9.01318 5.53319e-05 0.000114596)
(9.01314 6.05778e-05 0.000130708)
(9.01313 5.15781e-05 8.82088e-05)
(9.01311 9.36978e-06 8.6303e-05)
(9.01311 1.66879e-05 6.39096e-05)
(9.01312 3.12103e-05 6.67322e-05)
(9.01308 2.99375e-05 0.000173335)
(9.01303 2.97442e-05 0.000150017)
(9.01304 -4.3101e-06 5.67746e-05)
(9.01307 3.67199e-06 6.94103e-05)
(9.01306 -1.35321e-05 0.000120472)
(9.01305 1.03593e-05 0.000103847)
(9.01301 1.80999e-05 0.000102048)
(9.01059 -3.42382e-06 5.04014e-05)
(9.01299 2.96109e-05 0.000104623)
(9.01295 1.95021e-05 0.000126663)
(9.0129 -2.39345e-06 0.000109541)
(9.01294 3.4151e-07 5.28644e-05)
(9.01299 1.53268e-05 8.20201e-05)
(9.01292 2.80241e-05 0.00016266)
(9.01289 6.8069e-05 0.000112422)
(9.01288 4.892e-05 0.000132435)
(9.01288 3.28056e-05 0.000128513)
(9.0129 4.34893e-05 0.000145766)
(9.0129 6.64585e-05 0.00014247)
(9.01293 5.09361e-05 0.000138933)
(9.01296 2.84133e-05 9.3485e-05)
(9.01305 6.75932e-05 4.91549e-05)
(9.01308 4.35243e-05 8.61245e-05)
(9.01315 5.79826e-05 0.000168132)
(9.0131 6.5009e-05 0.000195561)
(9.01312 8.44285e-05 0.00011299)
(9.01316 5.64555e-05 0.000114276)
(9.01315 5.63865e-05 0.000144124)
(9.01312 7.15514e-05 0.000132053)
(9.01309 6.61347e-05 0.000111035)
(9.01312 4.46802e-05 8.20916e-05)
(9.01312 2.06151e-05 9.40373e-05)
(9.01311 -2.11609e-05 0.00012466)
(9.01302 -2.48376e-05 0.000125073)
(9.01303 -9.08641e-06 4.76822e-05)
(9.01306 -1.88844e-05 7.40153e-05)
(9.01304 -1.65256e-05 6.19739e-05)
(9.01306 5.01631e-06 6.76447e-05)
(9.01303 3.12889e-05 8.16406e-05)
(9.01304 5.01906e-05 7.68786e-05)
(9.01299 1.64436e-05 0.000149735)
(9.01295 -1.2146e-05 0.000138703)
(9.01295 -1.0879e-05 9.44966e-05)
(9.01296 1.17955e-05 8.40506e-05)
(9.01298 3.35881e-05 9.40918e-05)
(9.0115 3.36797e-05 0.00010014)
(9.01294 7.07421e-05 0.000139923)
(9.01292 8.96243e-05 0.000136739)
(9.01289 6.32061e-05 0.000129108)
(9.01288 3.77087e-05 0.000114406)
(9.01292 4.67844e-05 0.000113281)
(9.01291 6.18965e-05 0.000113766)
(9.01294 7.0899e-05 3.24832e-05)
(9.013 6.97909e-05 8.88123e-05)
(9.0131 5.85869e-05 8.51713e-05)
(9.01309 3.36339e-05 0.000167504)
(9.01308 2.21897e-05 0.000142709)
(9.01311 4.28914e-05 0.000133366)
(9.01314 4.69065e-05 0.000121693)
(9.01315 9.80618e-06 0.000159067)
(9.01311 2.19045e-05 0.000167838)
(9.01308 5.4637e-05 0.000162214)
(9.01305 6.06686e-05 0.000116127)
(9.01307 2.86928e-05 8.50892e-05)
(9.01307 -6.60528e-06 9.56704e-05)
(9.01304 -2.1717e-05 7.85936e-05)
(9.01302 1.67829e-05 4.15287e-05)
(9.01058 1.36937e-05 5.1338e-05)
(9.01304 2.47557e-05 7.238e-05)
(9.01306 4.34365e-05 6.8874e-05)
(9.01304 6.50025e-05 0.000130215)
(9.01298 4.68269e-05 0.000149754)
(9.01294 -2.61864e-05 0.000137313)
(9.01293 -2.93615e-05 8.20353e-05)
(9.01292 1.16471e-05 6.74859e-05)
(9.01295 8.27778e-06 5.18716e-05)
(9.01298 2.55267e-05 0.000111004)
(9.01294 5.33807e-05 0.000162224)
(9.01291 3.56086e-05 0.000190124)
(9.01287 6.26356e-05 0.000222229)
(9.01283 3.84159e-05 0.000158522)
(9.01288 3.75879e-05 0.000116427)
(9.01289 3.40544e-05 0.000120279)
(9.01292 6.91326e-05 0.000135581)
(9.01293 8.51901e-05 9.94908e-05)
(8.99579 2.38404e-05 0.000104176)
(8.99585 2.93652e-05 0.000103426)
(8.99586 6.04527e-06 0.000137775)
(8.99586 1.57024e-05 0.000147777)
(8.9959 6.96293e-06 0.00012084)
(8.99589 2.12907e-05 0.000147488)
(8.9959 -1.37987e-05 0.000108939)
(8.99591 -1.11913e-05 0.000127021)
(8.99589 1.31691e-05 0.000176541)
(8.99582 3.39844e-05 0.000166075)
(8.99581 2.52229e-05 0.000122834)
(8.99581 5.7419e-06 0.000103952)
(8.99581 7.16085e-08 8.21229e-05)
(8.99582 2.35523e-05 8.20305e-05)
(8.99583 2.83929e-05 7.85587e-05)
(8.99586 1.59652e-05 8.79495e-05)
(8.99586 3.40849e-05 0.00012859)
(8.99578 3.40059e-05 0.000183786)
(8.99572 6.91333e-06 0.000152356)
(8.99568 -1.99802e-05 9.72419e-05)
(8.99571 -7.44469e-06 6.32798e-05)
(8.99571 2.21935e-05 0.000114599)
(8.9957 1.523e-05 7.2046e-05)
(8.99576 6.91531e-06 0.000113563)
(8.99573 1.53414e-05 0.000183811)
(8.99567 -1.35288e-06 0.000146032)
(8.99564 2.93275e-06 0.000195456)
(8.99558 2.63922e-06 0.000152266)
(8.99417 1.63477e-05 0.000126842)
(8.99569 8.13237e-06 0.000117344)
(8.99567 3.18477e-05 0.000178733)
(8.99572 3.15057e-05 0.00013774)
(8.96518 -3.17799e-05 0.000550416)
(8.95269 -8.98997e-06 0.000263488)
(8.95991 -6.84181e-06 0.000144075)
(8.97995 2.42196e-05 0.000277839)
(8.97216 2.16088e-05 3.70811e-05)
(8.95342 1.75055e-05 0.000379345)
(8.95585 2.4291e-05 0.000135717)
(8.95513 -2.93914e-05 4.72539e-06)
(8.96071 4.41696e-05 0.000224712)
(8.9703 3.00322e-06 0.000249801)
(8.95763 -1.61344e-05 0.000430637)
(8.963 -8.04417e-06 0.000143429)
(8.9523 -2.58974e-05 0.000297063)
(8.95827 -6.93213e-06 0.000201065)
(8.97253 1.58945e-05 -7.14554e-05)
(8.96363 8.54409e-06 0.000122082)
(8.93516 -5.37575e-06 -5.04387e-05)
(8.94436 -2.88372e-05 0.000709213)
(8.97203 -3.4001e-05 0.000600137)
(8.96497 4.73758e-05 -5.93932e-05)
(8.97329 4.64759e-05 -8.82652e-05)
(8.94975 1.40308e-05 0.000429746)
(8.80615 1.25286e-05 1.86893e-05)
(8.97996 -1.90275e-05 5.66399e-05)
(8.9353 -4.97624e-05 0.000346591)
(8.95007 -2.16535e-05 -6.59841e-05)
(8.96567 -0.000115093 0.000202384)
(8.97786 3.22528e-05 0.000264386)
(8.9606 2.48437e-05 0.000275572)
(8.95862 8.40673e-06 0.000166723)
(8.98022 1.01055e-05 7.44157e-05)
(8.95057 -2.05267e-05 0.000567184)
(8.98303 -3.55064e-05 -1.62428e-05)
(8.97281 -2.49585e-06 0.000331372)
(8.985 2.198e-05 0.000162855)
(8.97537 3.40903e-05 0.000424495)
(8.9765 -1.66102e-07 0.000218596)
(8.96802 -8.34455e-06 0.000314703)
(8.96858 1.04859e-05 0.0001966)
(8.97707 -0.000115727 7.62184e-05)
(8.94405 -4.91416e-05 0.000903843)
(8.98724 -4.67067e-07 5.9816e-05)
(8.95717 -7.8952e-05 0.000272369)
(8.9889 -5.80371e-05 0.00019697)
(8.98047 -5.35928e-06 -2.87362e-05)
(8.97309 -3.57165e-05 0.000156884)
(8.98422 -3.07092e-05 0.000279557)
(8.97365 2.8153e-05 7.69277e-05)
(8.96173 -9.10963e-06 -0.000147753)
(8.95079 -0.000248109 0.000379026)
(8.97397 -3.50161e-05 0.000207251)
(8.96571 -0.000219824 0.00015304)
(8.98117 9.65119e-05 -1.89037e-05)
(8.98432 4.26276e-05 0.000289176)
(8.96434 4.06751e-05 0.000149484)
(8.98314 -6.10881e-06 9.25452e-05)
(8.9754 -9.21247e-06 -0.000196869)
(8.97569 -4.42614e-06 -0.000138396)
(8.98337 6.18476e-05 -2.55162e-05)
(8.97565 7.04184e-05 0.000457816)
(8.96554 -4.65877e-06 0.000367194)
(8.99444 -1.37897e-05 0.000256555)
(8.96941 3.5348e-05 9.90908e-05)
(8.98354 -2.16169e-06 0.000132353)
(8.97496 1.00412e-06 0.000740583)
(8.94194 -2.37786e-05 0.000394234)
(8.98513 1.61376e-05 9.3724e-05)
(8.99183 -2.67357e-05 0.000353395)
(8.99016 1.9127e-05 -0.000250511)
(8.98277 5.15264e-05 -0.00018065)
(8.96185 3.76001e-05 0.000263126)
(8.95222 0.000230178 -7.39014e-05)
(8.98974 -3.48532e-05 0.000297735)
(8.96784 -3.89759e-05 0.00034628)
(8.97428 7.22251e-05 -0.000127668)
(8.94676 2.48516e-05 -0.000165531)
(8.98877 2.08548e-05 0.000130382)
(8.97414 -5.9154e-05 -0.000113388)
(8.98306 1.73099e-06 -0.000102974)
(8.95795 0.00018106 0.000196917)
(8.99725 2.46986e-05 -9.80848e-05)
(8.97253 9.02028e-05 0.000130018)
(8.98803 -2.07634e-05 0.000317399)
(8.96662 8.41152e-06 0.000744019)
(8.98866 5.32566e-05 0.00012556)
(8.98142 -0.000263331 -7.95244e-05)
(8.97583 4.75505e-05 0.00038248)
(8.98969 3.50941e-05 0.000148635)
(8.97475 8.80923e-05 0.000275619)
(8.97466 4.40939e-05 9.48138e-05)
(8.96308 5.54732e-05 0.000267194)
(8.97731 4.18891e-05 0.000331253)
(8.99657 5.08463e-05 5.27044e-05)
(8.99992 2.98964e-05 5.95402e-05)
(8.94815 6.56666e-05 0.000186599)
(9.00432 2.93395e-05 8.36478e-05)
(8.99671 0.000219469 0.000154848)
(8.9972 -5.81262e-06 -8.52816e-05)
(8.97846 9.07532e-05 -3.14102e-05)
(8.98233 6.92865e-05 -5.59842e-05)
(8.97536 9.50571e-05 -2.64309e-05)
(8.96523 9.68327e-05 0.000451808)
(8.98525 6.88512e-05 0.000270597)
(8.97098 6.83763e-06 8.7218e-05)
(8.95889 -5.14346e-05 0.000656162)
(8.98944 -5.44465e-05 -5.06522e-05)
(8.98555 2.19168e-05 6.0158e-05)
(8.96268 2.37885e-05 0.000199122)
(8.97838 7.48493e-05 -0.000125115)
(8.99666 1.78564e-05 0.000271542)
(8.97538 6.67801e-05 0.000167416)
(8.96701 6.92728e-05 0.000454614)
(8.97487 -0.000346649 -4.59147e-05)
(8.98611 1.96495e-06 -7.09545e-05)
(8.97044 -4.55487e-05 0.000468511)
(8.95002 -7.47431e-06 8.08179e-07)
(8.97513 2.85047e-05 0.000118664)
(8.97566 4.95193e-05 0.000327069)
(8.97195 -3.52153e-05 0.000295596)
(8.99685 9.78919e-06 0.000277139)
(8.97424 -4.08373e-05 0.000489997)
(8.9508 8.16449e-05 -0.000178449)
(8.97404 4.23339e-05 0.000303413)
(8.93941 -0.000146102 0.00043933)
(8.97465 6.78871e-05 0.000223766)
(8.97148 8.95426e-05 -2.35208e-05)
(8.98204 4.96099e-05 0.000291384)
(8.99724 -2.18928e-05 0.000198826)
(8.97964 -1.6049e-05 0.000169166)
(8.95141 3.93155e-05 0.000460949)
(8.96924 0.000121884 0.000599381)
(8.97495 0.000162875 0.000132168)
(8.98315 9.31783e-05 -6.9945e-05)
(8.97383 4.8074e-05 0.000200377)
(8.96468 7.3199e-05 0.000366411)
(8.97865 7.61083e-05 -4.66045e-05)
(8.96323 -1.07217e-05 -2.79594e-05)
(8.97191 1.21667e-05 2.87786e-05)
(8.9439 0.000197198 9.87972e-05)
(8.9424 6.55596e-06 0.000683656)
(8.98193 5.1868e-05 0.00041995)
(8.99019 -2.11117e-05 -0.000183347)
(8.96173 -2.81136e-05 0.00012855)
(8.97501 -2.76879e-05 0.000538327)
(8.99103 5.36838e-06 8.31054e-05)
(8.96829 2.24216e-05 0.000450787)
(8.98597 -2.09285e-05 -5.20116e-05)
(8.96111 5.78093e-05 0.00029729)
(8.96579 -0.000148567 0.000220415)
(8.96066 -0.000156315 0.00012968)
(8.97814 -1.68627e-05 -0.000434829)
(8.98307 3.87023e-05 -2.10579e-05)
(8.95973 4.29801e-05 0.000841606)
(8.97572 0.000136994 5.72306e-05)
(8.96242 6.85856e-05 0.00020702)
(8.96674 -2.18031e-06 -9.1584e-05)
(8.98926 2.73793e-05 0.000272282)
(8.98416 4.18791e-05 0.000299163)
(8.99683 2.16976e-05 0.000294716)
(8.98047 -4.98207e-05 2.01721e-05)
(8.981 9.75398e-05 -1.32411e-05)
(8.93744 -0.000332282 -0.000190585)
(8.97636 5.21995e-05 0.000139671)
(8.97571 6.29784e-05 0.000808168)
(8.9904 8.97053e-05 -5.96323e-05)
(8.96583 5.91417e-05 0.000171381)
(8.96722 7.19594e-05 0.000445089)
(8.9809 5.17557e-05 0.000284515)
(8.96963 0.000110208 2.67663e-05)
(8.98768 7.90849e-05 -5.01258e-05)
(8.97713 3.5199e-05 0.000288449)
(8.98944 -7.31435e-05 0.000332916)
(8.967 -7.13076e-05 0.000556445)
(8.97631 -1.44173e-05 -0.000195646)
(8.98108 1.67944e-05 0.000189665)
(8.95454 6.91967e-05 -0.000257118)
(8.98063 0.000116299 3.30431e-05)
(8.97514 1.84024e-05 5.06496e-05)
(8.98308 8.81225e-05 -0.000252388)
(8.95345 4.19269e-05 0.000715421)
(8.98986 4.29674e-05 0.000331843)
(9.00416 -3.7608e-05 4.55958e-05)
(8.98987 1.07491e-05 0.000271083)
(8.99565 5.08362e-05 0.000140055)
(8.9886 3.05054e-05 1.74971e-05)
(8.98934 3.04028e-05 0.000303732)
(9.00391 0.000141139 5.72064e-05)
(8.98818 7.99001e-05 0.000222759)
(8.97519 1.52427e-06 0.000105608)
(8.98973 -4.20187e-05 8.82639e-05)
(8.98273 6.75657e-05 0.000267915)
(8.96818 8.28738e-05 -0.000282332)
(8.98173 0.000112732 0.000150449)
(8.98999 7.00204e-05 -0.000199452)
(8.95312 -1.4068e-05 0.000559572)
(8.96671 7.82475e-05 -3.30518e-05)
(8.97416 4.74794e-05 0.000334713)
(8.97937 6.7842e-05 1.99558e-05)
(8.9816 -1.03787e-05 0.00061152)
(8.9636 1.89511e-05 0.000571587)
(8.98162 9.32304e-05 0.000542721)
(8.97467 0.000110089 5.20814e-07)
(8.98235 4.4563e-05 -8.09122e-05)
(8.98971 -8.40057e-05 7.47286e-05)
(8.99505 -4.37437e-05 6.41249e-05)
(8.98312 3.94934e-05 -0.00015606)
(8.93729 1.14255e-05 0.000207327)
(8.95036 3.62574e-05 4.45691e-05)
(8.9748 7.81395e-05 -0.000185531)
(8.96604 0.000124036 0.000320031)
(8.97426 9.17228e-05 0.000501846)
(8.98938 -5.1353e-05 0.000298417)
(8.99719 -7.7978e-05 -5.365e-06)
(8.97309 2.55143e-05 -0.000133578)
(8.96874 -2.05231e-06 -0.000241885)
(8.96787 3.68809e-05 0.000322305)
(8.95468 7.34729e-07 0.000494798)
(8.95228 -3.65923e-05 0.000334463)
(8.97132 0.000136419 0.000944634)
(8.98801 5.78289e-05 0.000313592)
(9.0041 7.54399e-05 5.02591e-05)
(8.95871 4.16208e-05 0.00022865)
(8.97495 0.00011807 0.000233089)
(8.96591 -0.000419052 0.000139406)
(8.98005 -7.93942e-05 4.4541e-05)
(8.97242 3.81171e-05 0.000287562)
(8.94782 0.000128414 0.000209734)
(8.95909 1.95126e-05 0.000291182)
(8.97371 5.08206e-07 5.47727e-06)
(8.95692 3.76843e-05 0.000523941)
(8.97355 -4.40604e-05 -6.24581e-05)
(8.95317 -6.90272e-05 3.2318e-05)
(8.95728 -2.97124e-05 0.000450824)
(8.94377 0.000255354 0.000521081)
(8.96457 4.62768e-05 0.000337853)
(8.97187 1.1369e-05 0.000172571)
(8.9606 1.46272e-05 -3.02538e-05)
(8.95958 0.000179989 0.000232105)
(8.96974 -4.01921e-07 0.000210606)
(8.97326 2.24166e-05 0.000118807)
(8.96704 6.96201e-05 0.000450089)
(8.94972 6.41204e-05 0.00077358)
(8.97929 1.79119e-05 0.000347991)
(8.95057 0.000224519 -0.000159004)
(8.94441 -1.89509e-05 -8.86932e-05)
(8.95244 0.00030737 0.000458368)
(8.93978 2.58014e-05 5.08272e-05)
(8.95757 3.36992e-05 5.06328e-05)
(8.96503 3.06024e-05 0.00059241)
(8.93419 -0.000115502 0.000103718)
(8.94609 -2.12834e-06 0.000709162)
(8.93815 3.07255e-06 -7.44795e-05)
(8.9663 5.00184e-05 0.000369166)
(8.95848 1.21175e-05 -0.000145795)
(8.91926 0.000444586 0.000469675)
(8.97232 -0.000122123 2.36401e-05)
)
;

boundaryField
{
    wall
    {
        type            fixedValue;
        value           uniform (0 0 0);
    }
    outlet
    {
        type            cyclic;
    }
    inlet
    {
        type            cyclic;
    }
    procBoundary3to2
    {
        type            processor;
        value           nonuniform List<vector> 
256
(
(0.0343563 2.52794e-05 0.000421238)
(0.0344236 2.66114e-05 0.000384542)
(0.0344824 2.51906e-05 0.000310129)
(0.034519 1.95594e-05 0.000254006)
(0.0345377 1.43965e-05 0.000189666)
(0.0345469 9.80744e-06 0.00016303)
(0.0345421 7.57001e-06 0.000142062)
(0.0345302 5.42998e-06 0.000134546)
(0.0345036 5.5827e-06 0.000141482)
(0.0344716 5.91588e-07 0.000129243)
(0.0344448 -2.57756e-06 0.000122157)
(0.0344242 -2.12712e-06 9.99398e-05)
(0.0344098 -2.9125e-06 9.04803e-05)
(0.0343977 -2.86046e-06 7.70929e-05)
(0.0343936 1.07495e-06 5.96963e-05)
(0.0343949 1.16732e-06 6.03945e-05)
(0.0343971 -1.75417e-06 7.34056e-05)
(0.0343739 -5.48701e-06 0.000128629)
(0.0343247 -2.46201e-06 0.000128403)
(0.0342938 5.85445e-06 8.43237e-05)
(0.0342875 7.97478e-06 6.50147e-05)
(0.0342832 6.77841e-06 7.27079e-05)
(0.0342714 5.52287e-06 8.63639e-05)
(0.0342518 2.95464e-06 0.000105929)
(0.034232 2.16163e-06 0.000111008)
(0.0342229 4.92842e-06 0.000117628)
(0.0342116 7.72244e-06 0.00015445)
(0.0341912 1.23753e-05 0.000189953)
(0.0341776 1.46807e-05 0.000224338)
(0.0341866 1.74359e-05 0.000263042)
(0.0342277 2.17676e-05 0.000313416)
(0.0342884 2.33195e-05 0.0003897)
(0.0430365 7.34704e-05 0.000360278)
(0.0431006 7.10114e-05 0.000345986)
(0.0431526 6.42573e-05 0.000290717)
(0.0431854 5.01534e-05 0.000242361)
(0.0432052 3.61987e-05 0.000183979)
(0.0432174 2.60222e-05 0.000155899)
(0.043215 2.06669e-05 0.000140008)
(0.0432055 1.31584e-05 0.000133453)
(0.0431759 7.74847e-06 0.000158075)
(0.0431406 8.45643e-07 0.00012554)
(0.0431192 -6.01084e-06 0.000110587)
(0.0431009 -3.53345e-06 9.353e-05)
(0.0430861 -6.24576e-07 7.56096e-05)
(0.0430787 -5.53404e-07 5.98204e-05)
(0.0430747 2.41769e-06 6.4769e-05)
(0.0430691 5.15704e-06 6.24806e-05)
(0.0430675 -1.02132e-06 6.65988e-05)
(0.0430502 -1.12622e-05 0.0001077)
(0.0430129 -2.69694e-06 0.000113412)
(0.0429811 1.40403e-05 0.000100737)
(0.0429652 1.83869e-05 8.24324e-05)
(0.0429576 1.62044e-05 8.26017e-05)
(0.0429445 1.5807e-05 9.13808e-05)
(0.0429251 1.36004e-05 9.69523e-05)
(0.0429107 1.65144e-05 9.15125e-05)
(0.0429051 2.07602e-05 0.000106919)
(0.0428957 2.6145e-05 0.000144611)
(0.0428748 3.28836e-05 0.000191972)
(0.0428592 3.69235e-05 0.000219561)
(0.0428703 4.56479e-05 0.000245695)
(0.0429102 6.00813e-05 0.000285671)
(0.0429687 6.7111e-05 0.000337269)
(0.0430536 9.44276e-05 0.000315299)
(0.043108 9.01703e-05 0.000292959)
(0.0431553 8.36726e-05 0.000250263)
(0.0431847 6.89615e-05 0.000209458)
(0.0432074 5.57711e-05 0.000149629)
(0.0432252 4.63408e-05 0.000128777)
(0.043223 3.48504e-05 0.000130346)
(0.0432111 2.07586e-05 0.000123122)
(0.043185 8.60287e-06 0.000137427)
(0.0431515 2.6176e-06 0.000117298)
(0.0431341 1.54991e-06 8.46072e-05)
(0.0431231 7.48807e-06 7.55619e-05)
(0.0431064 9.7555e-06 7.90976e-05)
(0.0430943 9.97004e-06 6.01428e-05)
(0.0430929 9.04361e-06 5.3589e-05)
(0.043085 1.18402e-05 7.06133e-05)
(0.0430743 6.11451e-06 6.66051e-05)
(0.0430657 -3.66224e-06 7.95767e-05)
(0.0430434 -6.493e-07 0.000109965)
(0.0430082 8.70331e-06 0.000125268)
(0.042983 1.7349e-05 0.000101066)
(0.042974 1.98812e-05 8.85087e-05)
(0.0429622 1.96243e-05 0.000103241)
(0.0429457 2.34621e-05 0.000102502)
(0.0429324 3.27366e-05 0.000106966)
(0.0429257 3.52993e-05 0.000114663)
(0.0429169 4.02678e-05 0.000150043)
(0.0428951 4.49325e-05 0.000185879)
(0.0428835 5.31378e-05 0.000189124)
(0.0429029 6.54315e-05 0.00020416)
(0.0429423 8.37317e-05 0.000247813)
(0.0429951 9.15128e-05 0.000283652)
(0.0430517 9.19933e-05 0.000227677)
(0.0431064 9.63694e-05 0.000214337)
(0.0431479 9.71867e-05 0.000198673)
(0.043174 8.51858e-05 0.000169861)
(0.0431991 7.12427e-05 0.000138536)
(0.043213 6.00878e-05 0.000141814)
(0.0432059 4.62019e-05 0.000133074)
(0.0431958 2.93603e-05 0.000117365)
(0.0431743 1.34771e-05 0.000131287)
(0.0431501 8.85073e-06 0.000100381)
(0.0431406 1.42663e-05 8.63854e-05)
(0.0431257 2.20359e-05 9.35579e-05)
(0.0431051 1.84768e-05 8.42805e-05)
(0.0430945 1.21084e-05 7.53224e-05)
(0.0430931 1.25813e-05 6.97523e-05)
(0.0430827 1.32996e-05 8.71969e-05)
(0.0430685 1.17297e-05 7.55093e-05)
(0.04306 8.08723e-06 7.95258e-05)
(0.0430418 -7.52023e-09 0.000100848)
(0.0430156 4.77356e-06 0.000103339)
(0.0429929 1.28491e-05 0.000104643)
(0.0429764 1.50213e-05 0.000106755)
(0.0429646 1.26842e-05 0.000105737)
(0.0429548 2.23459e-05 0.000109158)
(0.0429391 3.71206e-05 0.000121414)
(0.0429292 4.26685e-05 0.000113813)
(0.0429219 4.50232e-05 0.000146838)
(0.0429041 4.83284e-05 0.000172197)
(0.0428963 6.30832e-05 0.000174228)
(0.0429174 7.87873e-05 0.000173999)
(0.0429528 8.88233e-05 0.000211876)
(0.0429959 9.14219e-05 0.000223796)
(0.0430586 8.69584e-05 0.000163625)
(0.0431132 9.09152e-05 0.000181096)
(0.0431441 9.45284e-05 0.000193605)
(0.0431587 8.99484e-05 0.000166085)
(0.0431823 7.48569e-05 0.000125574)
(0.0432002 5.94942e-05 0.000132309)
(0.0431923 4.98091e-05 0.000135394)
(0.0431784 3.8745e-05 0.000112327)
(0.0431645 2.36398e-05 0.00010399)
(0.0431523 1.90508e-05 9.04758e-05)
(0.0431472 1.88435e-05 9.27088e-05)
(0.0431274 1.66756e-05 0.00012528)
(0.0430964 1.32161e-05 0.000111252)
(0.0430884 5.53821e-06 6.94166e-05)
(0.0430941 5.03551e-06 7.4043e-05)
(0.0430842 3.51108e-06 9.54687e-05)
(0.0430691 8.96207e-06 8.65173e-05)
(0.043054 1.13575e-05 9.36484e-05)
(0.0430401 7.6888e-06 8.42367e-05)
(0.0430211 1.17914e-05 0.000106686)
(0.0429932 1.07002e-05 0.00010971)
(0.0429738 8.25685e-06 9.93286e-05)
(0.0429696 1.13826e-05 8.01152e-05)
(0.0429702 2.06797e-05 9.86227e-05)
(0.0429527 3.15529e-05 0.000137946)
(0.0429336 4.59486e-05 0.000127122)
(0.0429226 4.8723e-05 0.000140132)
(0.0429132 5.0298e-05 0.00014556)
(0.0429139 6.01209e-05 0.000159406)
(0.0429287 7.48963e-05 0.00016573)
(0.042955 8.12674e-05 0.000173368)
(0.0429983 8.3302e-05 0.000161193)
(0.0430593 7.86683e-05 0.000122994)
(0.0431139 7.36742e-05 0.000135405)
(0.0431469 7.23348e-05 0.00016866)
(0.0431543 6.88347e-05 0.000176751)
(0.0431687 6.47154e-05 0.000134805)
(0.0431879 5.22449e-05 0.000132397)
(0.0431852 4.43219e-05 0.000144174)
(0.0431696 4.12831e-05 0.000132197)
(0.0431546 3.55029e-05 0.000114761)
(0.0431453 2.71068e-05 9.78903e-05)
(0.0431382 1.66851e-05 0.000102207)
(0.04312 3.8305e-06 0.000111406)
(0.043094 -6.13237e-07 0.000104733)
(0.0430863 7.52319e-07 6.44563e-05)
(0.043091 -8.60605e-07 6.77767e-05)
(0.0430866 1.84482e-06 6.79936e-05)
(0.0430764 9.67922e-06 7.87591e-05)
(0.0430587 1.73651e-05 8.97176e-05)
(0.0430422 1.92069e-05 8.99863e-05)
(0.0430186 9.47974e-06 0.000124674)
(0.0429894 2.47458e-06 0.000115252)
(0.0429771 4.19569e-06 9.39199e-05)
(0.042977 1.19647e-05 9.17046e-05)
(0.0429749 2.22831e-05 0.000103197)
(0.0429643 3.08923e-05 0.000119261)
(0.0429463 4.41373e-05 0.000141395)
(0.0429262 5.22952e-05 0.000145761)
(0.0429156 5.05766e-05 0.000143686)
(0.0429208 5.12057e-05 0.000139917)
(0.0429386 6.04233e-05 0.000142019)
(0.0429612 7.12227e-05 0.000144365)
(0.0430016 7.80208e-05 0.00011836)
(0.0430377 5.86954e-05 0.000124153)
(0.0430904 5.35902e-05 0.000122087)
(0.0431227 4.54426e-05 0.000158015)
(0.0431346 4.00517e-05 0.000150069)
(0.0431492 3.96302e-05 0.000142483)
(0.0431633 3.49833e-05 0.000135205)
(0.0431648 2.40869e-05 0.00014972)
(0.043153 2.37222e-05 0.000150327)
(0.0431338 2.82216e-05 0.000143649)
(0.043117 2.66757e-05 0.000115076)
(0.0431075 1.58219e-05 9.93772e-05)
(0.0430936 3.36879e-06 9.59076e-05)
(0.0430769 -1.56386e-06 8.13723e-05)
(0.0430716 5.41487e-06 5.62011e-05)
(0.0430786 6.86199e-06 5.13548e-05)
(0.0430782 1.06391e-05 7.39562e-05)
(0.043068 1.75871e-05 8.38853e-05)
(0.043047 2.29669e-05 0.000115233)
(0.0430157 1.69856e-05 0.000124797)
(0.0429879 -2.92317e-07 0.000115884)
(0.0429714 -3.32352e-06 9.14102e-05)
(0.0429668 5.46614e-06 8.0483e-05)
(0.0429711 9.60231e-06 7.94291e-05)
(0.0429726 1.73982e-05 0.00011314)
(0.042958 2.71093e-05 0.000144931)
(0.0429385 2.91642e-05 0.000162308)
(0.0429125 3.62942e-05 0.000185556)
(0.0428956 3.42269e-05 0.000156649)
(0.0429073 3.56921e-05 0.000134355)
(0.0429321 4.12385e-05 0.000135444)
(0.042956 5.37151e-05 0.000143228)
(0.0429892 6.08549e-05 0.000128955)
(0.0343586 2.1229e-05 0.00012449)
(0.0344071 2.02317e-05 0.000128946)
(0.0344397 1.50554e-05 0.000144072)
(0.0344549 1.43471e-05 0.000148456)
(0.0344699 1.2498e-05 0.000134787)
(0.0344787 1.22708e-05 0.000144353)
(0.0344802 5.12569e-06 0.000127009)
(0.03448 4.85361e-06 0.000131777)
(0.0344639 9.31852e-06 0.000149714)
(0.0344393 1.21327e-05 0.000142303)
(0.0344214 8.69696e-06 0.000119867)
(0.0344091 3.0724e-06 9.90518e-05)
(0.0344025 1.25629e-06 7.9794e-05)
(0.0344012 5.75547e-06 7.7317e-05)
(0.0344027 7.87769e-06 7.69349e-05)
(0.0344038 6.85618e-06 8.67568e-05)
(0.0343952 1.05216e-05 0.00011377)
(0.0343646 1.09846e-05 0.000144738)
(0.0343256 5.0607e-06 0.000128601)
(0.0343049 -2.23677e-06 9.45062e-05)
(0.0343017 -1.00995e-06 8.28371e-05)
(0.0342966 4.96185e-06 9.97766e-05)
(0.0342956 5.6762e-06 9.09042e-05)
(0.0342991 6.26531e-06 0.000114874)
(0.0342828 9.03313e-06 0.000153239)
(0.0342622 7.77441e-06 0.000152695)
(0.034238 9.5442e-06 0.000178254)
(0.0342217 1.0044e-05 0.000147371)
(0.0342346 1.24192e-05 0.000136352)
(0.0342633 1.41435e-05 0.000126325)
(0.0342875 2.03548e-05 0.00015375)
(0.0343132 2.2436e-05 0.00013738)
)
;
    }
}


// ************************************************************************* //
