/*--------------------------------*- C++ -*----------------------------------*\
| =========                 |                                                 |
| \\      /  F ield         | OpenFOAM: The Open Source CFD Toolbox           |
|  \\    /   O peration     | Version:  2506                                  |
|   \\  /    A nd           | Website:  www.openfoam.com                      |
|    \\/     M anipulation  |                                                 |
\*---------------------------------------------------------------------------*/
FoamFile
{
    version     2.0;
    format      ascii;
    arch        "LSB;label=32;scalar=64";
    class       volScalarField;
    location    "0.008";
    object      Ksl;
}
// * * * * * * * * * * * * * * * * * * * * * * * * * * * * * * * * * * * * * //

dimensions      [1 -3 -1 0 0 0 0];

internalField   uniform 0;

boundaryField
{
    wall
    {
        type            zeroGradient;
    }
    outlet
    {
        type            cyclic;
    }
    inlet
    {
        type            cyclic;
    }
    procBoundary2to1
    {
        type            processor;
        value           uniform 0;
    }
    procBoundary2to3
    {
        type            processor;
        value           nonuniform List<scalar> 
256
(
0
0.208837
1.52663
0
0
0
0
0
0
0
0
0
0
0
0
0
0
0
0
0
0
0
0
0
0
0.739411
0
0
0
0
0
0
0
0
0
0
0
0
0
0
0
0
0
0
0
3.61607
0
0
0
0
0
0
0
0
0
0
0
0
0
0
0
0
0
0
0
0
1.22795
0
0.122618
3.44947
0
0
0
0
0
0
0
0
0
0
0
3.61941
0
0
0
0
0
0
0
0
0
0
0
0
0
0
0
0
0
0
0
0
0
0
0
3.48235
0
0
0.737835
0
0
0
0
0
0
0.122657
0
0
0.488028
0
0
3.47973
0
0
0
3.60181
0
0
0
0
0
0
3.57873
0
0
0
0
0
0
0
0
0
0
0
0
0.739697
2.35617
1.24201
0
0.735227
4.42366
0
0
0
0
0
0
0
0
0
0
0
1.23524
0
0
0.1228
3.61117
0
2.8545
0
0
0
0.124577
0
0
0.122652
0
0
0.742842
0
0
0
0
0
3.62787
0
0
0
0
0
0
0
0
0
0
0
0
0
0
0
0
0
0
0
0
0.123866
3.61228
0
0
0
0
0
0
0
0
0
0
0
0
0
0
0
0
0
0
0
0
2.803
0
0
0
0
0
0
0
0.332348
0.165924
0
0
0
0
0
0
0
0
0
0
0
0
0
0
0
1.54959
0
0
0
)
;
    }
}


// ************************************************************************* //
