/*--------------------------------*- C++ -*----------------------------------*\
| =========                 |                                                 |
| \\      /  F ield         | OpenFOAM: The Open Source CFD Toolbox           |
|  \\    /   O peration     | Version:  2506                                  |
|   \\  /    A nd           | Website:  www.openfoam.com                      |
|    \\/     M anipulation  |                                                 |
\*---------------------------------------------------------------------------*/
FoamFile
{
    version     2.0;
    format      ascii;
    arch        "LSB;label=32;scalar=64";
    class       surfaceScalarField;
    location    "0.008";
    object      phi;
}
// * * * * * * * * * * * * * * * * * * * * * * * * * * * * * * * * * * * * * //

dimensions      [0 3 -1 0 0 0 0];

oriented        oriented;

internalField   nonuniform List<scalar> 
1200
(
0.00152584
-2.86869e-06
-3.57125e-07
0.00152138
5.20805e-06
-3.68637e-06
0.00151245
1.0118e-05
-2.19093e-06
0.00152395
-1.52926e-06
2.34869e-06
0.00152951
-3.02e-06
6.11995e-06
0.00153535
-1.92179e-06
-1.21484e-05
0.00153416
-2.27339e-06
-1.77124e-05
0.00152651
-3.3832e-06
-4.03269e-06
0.00152182
-9.42721e-07
5.10777e-06
0.00152167
2.264e-07
8.10348e-06
0.0015175
4.19193e-06
7.48163e-06
0.00151326
2.22665e-06
3.93496e-06
0.00151579
-1.1881e-06
-5.37743e-06
0.00151839
2.28585e-06
-6.74698e-06
0.00151994
4.64073e-06
-3.39153e-06
0.00152576
-2.65056e-06
8.76994e-07
0.00152589
-2.03891e-06
1.07218e-06
0.00152599
-2.441e-06
-3.35304e-06
0.00152524
-8.03363e-07
-2.75983e-06
0.00152183
5.1558e-07
3.31233e-07
0.00152361
3.8341e-08
2.28888e-06
0.00152413
-2.68052e-06
4.70355e-06
0.00151367
-1.13255e-06
1.38454e-06
0.00151072
-9.84638e-07
-5.07326e-06
0.00151812
-3.2759e-06
-4.3484e-06
0.00152616
-3.29066e-06
-1.36941e-07
0.0015277
-6.18985e-07
1.01585e-06
0.00152706
1.63701e-06
2.68003e-07
0.00152589
7.36823e-07
7.88123e-07
0.00152499
-1.49184e-07
6.69679e-07
0.0015231
1.19382e-06
7.14897e-06
-2.61132e-06
7.06386e-06
0.00153921
3.07672e-06
-7.2154e-07
0.00153588
8.15685e-06
-1.8407e-06
0.00153953
7.89039e-06
3.81842e-08
0.00155109
-2.44641e-06
2.46071e-06
0.00156116
-3.92505e-06
1.21517e-06
0.00156483
-2.83925e-06
-7.09525e-06
0.0015549
-1.28673e-06
-8.65465e-06
0.00154388
-2.58476e-06
-9.4777e-07
0.0015409
-3.7003e-06
5.35286e-06
0.00154747
-3.63458e-06
5.88471e-06
0.00155354
2.07072e-06
4.77191e-06
0.00155229
3.95814e-06
2.86283e-06
0.00154405
5.54896e-06
-1.39346e-06
0.00154276
4.28501e-06
-2.78546e-06
0.00154964
2.38054e-06
-2.94678e-06
0.00155226
-4.33146e-06
1.09178e-06
0.00154833
-2.74847e-06
2.46844e-06
0.00154584
-1.66652e-06
-2.56526e-06
0.0015451
-1.71136e-06
-6.14685e-07
0.00154761
-2.79877e-06
-1.11781e-06
0.00154966
-3.46824e-06
-5.82649e-07
0.00154342
-8.2698e-09
6.09168e-06
0.00153635
1.8418e-06
4.57179e-06
0.00153773
-3.89944e-06
-4.21165e-06
0.00154484
-6.47274e-06
-2.92611e-06
0.00154795
-1.68282e-06
-3.78696e-07
0.00154462
4.39168e-06
-3.09177e-06
0.00154163
3.53019e-06
1.16107e-07
0.00154261
-1.00866e-06
4.70536e-06
0.00154258
-2.92427e-06
4.30608e-06
0.00154689
-5.12626e-06
3.13052e-06
-4.57582e-06
4.50931e-06
0.00153577
2.15618e-06
6.97627e-07
0.00154579
9.42701e-07
7.80408e-07
0.00155283
5.75864e-06
2.38399e-06
0.00155911
9.61178e-07
-1.11718e-06
0.00156659
-2.9288e-06
1.86283e-07
0.0015643
-2.8518e-06
-3.36135e-06
0.00155407
1.07439e-06
-7.19229e-06
0.00154355
-1.91921e-06
-5.72028e-07
0.00154426
-8.74919e-06
2.50306e-06
0.00154572
-5.6931e-06
3.26371e-06
0.00153565
1.06436e-05
3.22053e-06
0.00153178
6.97125e-06
2.30138e-06
0.00154374
-1.34114e-06
-4.24869e-06
0.00155524
-1.82587e-06
-6.46315e-06
0.00154917
4.462e-06
3.5687e-07
0.00153202
4.25511e-06
3.20711e-06
0.00152734
-2.53817e-07
-1.3034e-06
0.00153929
-2.69734e-06
-6.9493e-06
0.00154927
-3.35666e-06
-5.36327e-06
0.00154916
2.07749e-08
-5.23652e-06
0.00154917
-4.33376e-06
-1.27182e-07
0.00154778
-1.70879e-06
4.20202e-06
0.00153981
4.50631e-06
4.71499e-06
0.0015337
-2.57387e-07
-3.35582e-07
0.00152419
-8.93201e-07
-3.90902e-08
0.00152426
6.79417e-07
-4.83985e-07
0.00153463
3.79538e-07
-5.38789e-06
0.00153794
7.12031e-07
-1.73331e-06
0.00153986
-5.62284e-06
3.9533e-06
0.00154321
-8.17725e-06
5.66238e-06
0.00154404
-5.91023e-06
4.33165e-06
6.27646e-07
4.26308e-06
0.00154936
4.59332e-06
-3.86818e-07
0.00155276
1.66986e-06
-1.73327e-06
0.00155359
6.80261e-06
-1.4699e-07
0.00154814
7.35944e-06
1.82432e-06
0.00155558
-1.9801e-07
-2.81284e-06
0.00157047
-5.12212e-06
-8.70742e-06
0.00157684
-1.11514e-06
-4.63835e-06
0.00156066
3.6365e-06
4.91267e-06
0.00154244
-1.26315e-06
4.39947e-06
0.0015373
-4.43984e-06
6.39067e-06
0.00154887
3.48711e-07
5.85025e-06
0.00155422
1.11571e-06
4.45238e-06
0.00154796
3.54011e-06
7.80515e-07
0.00154302
3.23328e-06
-9.70216e-07
0.00154744
5.25388e-07
-2.81362e-06
0.0015461
1.60334e-06
4.61932e-07
0.00154247
2.16028e-06
5.37667e-07
0.00154535
-2.74194e-06
-2.43203e-06
0.00154412
-4.73653e-06
-1.61735e-06
0.00154428
-1.72873e-06
-2.74761e-06
0.00154378
-4.00291e-06
6.9934e-07
0.00154408
-3.79869e-06
2.61082e-06
0.00154593
1.29638e-06
4.66709e-07
0.00154514
1.2452e-06
-2.75718e-06
0.00154637
2.59821e-07
-3.0887e-06
0.00155031
1.81258e-06
-4.51844e-06
0.00155212
3.90787e-07
-3.27411e-06
0.00155095
-1.22131e-06
6.87997e-07
0.00154798
-2.97147e-06
3.48183e-06
0.00155048
-6.83969e-06
2.5552e-06
0.00155527
-7.22743e-06
2.38484e-06
-9.64355e-07
1.71981e-06
0.0015437
1.1656e-06
1.65493e-06
0.00153636
9.36974e-06
1.17266e-06
0.00154086
5.66653e-06
1.67651e-06
0.00154476
3.59393e-06
2.20487e-06
0.0015449
9.03049e-09
-3.96676e-07
0.00155573
-9.18272e-06
-5.22149e-06
0.0015657
-4.32835e-06
-5.31324e-06
0.00155528
1.12433e-05
2.19102e-06
0.00153701
9.68354e-06
2.17294e-06
0.00153814
-2.43754e-06
-2.34461e-06
0.00155281
-8.84135e-06
-1.89605e-06
0.00155356
-6.04611e-06
6.32426e-06
0.00154489
5.62592e-06
3.02136e-06
0.00154395
6.68212e-06
-9.57856e-07
0.00154606
1.51899e-06
-1.75065e-06
0.00154677
3.35708e-07
-3.48732e-06
0.0015509
5.67762e-07
-4.55301e-06
0.00155183
2.78113e-07
-9.89486e-07
0.00155283
-2.14107e-06
-1.47245e-06
0.00155756
-4.00278e-06
-1.16451e-06
0.00155282
-1.69639e-06
-5.74482e-07
0.00154465
1.47342e-06
1.69317e-07
0.00154294
2.46686e-06
1.78354e-07
0.00154387
4.436e-07
-2.15614e-06
0.00154681
-1.55877e-06
-4.14179e-06
0.00154875
3.55129e-06
-3.45152e-06
0.00154708
2.30284e-06
1.24813e-06
0.00154229
-1.97845e-07
2.9664e-07
0.0015401
-1.53006e-06
-3.13778e-06
0.00154555
-7.30755e-06
3.36445e-06
0.00154486
-5.70796e-06
6.23592e-06
-5.75028e-06
4.05499e-06
0.00153804
-9.69392e-06
4.62549e-06
0.00154387
3.34311e-06
1.56357e-06
0.00154861
4.55119e-06
-3.20023e-06
0.00154772
6.30984e-06
-2.83818e-06
0.00153967
4.78633e-06
2.05752e-06
0.00153205
-3.00675e-06
5.80848e-06
0.00152912
-2.50002e-06
4.46179e-06
0.0015417
3.67455e-06
-9.92782e-07
0.00155426
1.6837e-06
-3.40267e-06
0.00155995
-5.24943e-06
-3.90885e-06
0.00155668
-5.82632e-06
-1.41876e-07
0.00154118
1.79287e-06
6.89998e-06
0.00153929
5.42704e-06
1.28949e-06
0.00154122
6.04762e-06
-2.46455e-06
0.0015415
-6.44092e-08
-1.52561e-06
0.00154813
-6.1671e-06
-2.55547e-06
0.00154999
-7.91311e-07
-7.02789e-07
0.00154697
5.37887e-06
1.52e-06
0.00154389
-1.38747e-06
9.40998e-08
0.00154227
-8.11811e-06
1.06801e-06
0.00154123
-3.47313e-06
6.79083e-07
0.00153879
1.99916e-06
-1.54236e-06
0.0015422
-1.90247e-06
9.19926e-07
0.00154026
-5.27395e-07
2.69288e-06
0.00153321
4.06339e-06
9.78236e-08
0.00154163
8.82849e-07
-6.92373e-06
0.0015518
-9.97215e-08
-5.27829e-06
0.00155411
1.0591e-06
-3.663e-06
0.00154742
3.61168e-06
-8.04762e-07
0.00152973
5.81721e-06
2.88117e-06
0.00152366
1.25617e-07
4.43039e-06
-1.36041e-05
7.879e-07
0.00153453
-6.09927e-06
5.10698e-06
0.00153456
4.30833e-06
-1.58383e-06
0.00153345
3.85401e-06
-3.72124e-06
0.00154247
3.48177e-07
-8.01969e-07
0.0015501
7.62067e-07
3.06139e-06
0.001541
-2.25459e-06
1.03985e-05
0.00153392
-1.46652e-06
7.06813e-06
0.00154121
9.32913e-07
-8.67961e-07
0.00154633
-6.5804e-08
-3.02267e-07
0.0015376
-1.64699e-06
2.76913e-06
0.00153398
-2.46931e-06
1.33632e-06
0.0015408
1.26015e-06
-3.9383e-06
0.00154399
1.57751e-06
7.94982e-07
0.00154717
3.03356e-07
5.4085e-06
0.00154794
7.65137e-07
-3.47836e-06
0.00154049
6.82915e-07
-5.13102e-06
0.0015416
2.71422e-06
-5.93547e-06
0.00154821
3.64172e-06
-3.26785e-06
0.00154893
-6.9404e-07
-2.84182e-06
0.00154327
-5.4547e-06
5.14488e-06
0.00154122
-3.94288e-06
8.02067e-06
0.00154598
5.58024e-07
3.75023e-06
0.00154372
1.03331e-06
7.66828e-07
0.00153956
-7.11981e-07
-2.61829e-06
0.00154726
3.25436e-07
-5.5021e-06
0.00155376
-2.11444e-06
-3.93111e-06
0.00155555
-2.12261e-06
-1.06564e-07
0.00155606
1.36701e-06
3.95045e-06
0.00155377
-8.03421e-08
3.53569e-06
0.00155522
1.7355e-06
-6.4998e-06
0.00155038
2.60578e-06
-4.98123e-06
-6.91108e-06
5.00025e-06
0.00151313
-1.66702e-07
0.00151839
-1.11259e-06
0.00152528
-3.27682e-06
0.00152828
1.85949e-07
0.00153001
3.36817e-06
0.00152269
5.65021e-06
0.00152122
3.52762e-06
0.00153017
-3.62522e-06
0.00152994
-2.6654e-07
0.00151554
8.18066e-06
0.00151285
1.3331e-06
0.00152307
-3.87943e-06
0.0015237
1.38276e-06
0.00152409
-2.42302e-06
0.00152636
-4.9818e-06
0.00152567
7.84918e-07
0.00152966
1.61449e-06
0.00153687
-1.4806e-06
0.00153258
3.0384e-07
0.00152105
6.25835e-06
0.00151592
1.30068e-06
0.00151775
-2.765e-06
0.00152372
-2.76529e-06
0.0015248
-3.01077e-06
0.00152597
-4.19746e-06
0.00152513
-5.33856e-06
0.0015209
-1.0418e-06
0.00152537
2.88745e-06
0.00153081
1.65012e-06
0.00153278
-1.06661e-06
0.00152783
1.96075e-06
2.94459e-06
0.00153013
-2.2202e-06
0.00152261
3.21671e-06
0.00151408
7.16887e-06
0.00151879
-1.32363e-06
0.00153415
-3.50583e-06
0.00153396
-1.35375e-06
0.00152697
-1.43727e-06
0.00152112
-3.65625e-06
0.00151915
-1.7763e-06
0.00152045
-5.12695e-07
0.00152032
4.45726e-07
0.00151922
1.12123e-06
0.0015198
-2.62163e-06
0.00152064
-3.61715e-06
0.00151923
6.8453e-07
0.00151906
1.98344e-06
0.00152489
-4.08516e-06
0.00152735
-2.71446e-06
0.00152596
2.99887e-06
0.0015271
2.63575e-06
0.00152587
4.84014e-06
0.0015262
1.25028e-06
0.00152347
5.694e-07
0.00151996
-3.39759e-07
0.00151683
2.20683e-06
0.00151527
3.0064e-06
0.0015205
-4.09768e-06
0.00152197
-2.38855e-06
0.00152132
-1.65088e-06
0.00152125
-2.24349e-06
0.00152408
1.05699e-06
-1.70848e-06
0.00155547
-3.02815e-06
0.00155246
4.20626e-06
0.00155239
7.1233e-06
0.00155618
1.11334e-07
0.0015615
-1.22453e-06
0.00155771
2.96827e-06
0.00154765
3.11758e-06
0.00154145
-5.20179e-06
0.00154459
-4.20955e-06
0.00154843
-2.58081e-06
0.00154657
5.85745e-09
0.00154425
-8.68112e-09
0.00154144
-1.21932e-07
0.00154118
-3.26443e-06
0.0015413
-1.25883e-06
0.00154092
3.79126e-06
0.00153547
2.3516e-06
0.00153091
2.16025e-06
0.00153689
-8.39498e-07
0.00153804
-4.73929e-07
0.00154351
-1.34619e-07
0.00155089
-3.18444e-07
0.00155013
4.52559e-06
0.00154644
1.95578e-06
0.00154772
5.98574e-07
0.00154643
3.72334e-06
0.00154025
-9.20391e-08
0.00154428
-4.04636e-06
0.00154697
-2.62258e-06
0.00154688
-2.1574e-06
0.00155054
-2.27082e-06
-4.67676e-06
0.00153455
-2.03824e-06
0.00154929
-6.76541e-07
0.00156211
5.36134e-06
0.0015586
4.7104e-06
0.00155873
-1.70375e-06
0.00156207
-7.50247e-08
0.00155994
2.88232e-06
0.001548
-6.73973e-07
0.00154446
-6.30985e-06
0.00154631
-3.54602e-06
0.00154497
5.69472e-06
0.00154653
1.83991e-06
0.00154403
2.17289e-06
0.00153689
1.68629e-06
0.00153871
-1.65725e-07
0.00154469
4.26087e-07
0.0015444
2.28244e-07
0.00154407
-9.37006e-07
0.00154574
-2.42863e-06
0.00154242
-2.8108e-07
0.00153968
-2.53643e-06
0.00154271
-2.57133e-06
0.00154757
2.00314e-06
0.00154555
3.01329e-06
0.00154914
-2.48514e-06
0.00155538
-2.09151e-06
0.00155104
2.30003e-07
0.00154915
-6.18885e-07
0.00155002
-6.98151e-08
0.00155201
-1.12375e-06
0.00154765
3.55756e-07
2.98012e-07
0.00154812
-3.67112e-06
0.00154894
-1.92468e-06
0.0015501
4.85598e-06
0.00155198
4.70762e-06
0.00155296
-7.48065e-06
0.00155605
-5.72996e-06
0.0015639
5.54382e-07
0.00155437
9.25682e-06
0.00153851
5.22982e-06
0.00153787
-3.87087e-06
0.00154943
-3.70282e-06
0.00154982
2.24421e-06
0.00154885
3.97917e-06
0.00154732
3.3306e-06
0.00154549
5.29201e-07
0.00155051
-5.01202e-06
0.00155262
-3.15905e-06
0.0015498
-3.10358e-07
0.00155339
-3.17797e-06
0.00155542
-2.60374e-06
0.00155131
-2.01264e-07
0.00154807
1.35325e-06
0.0015478
2.90599e-06
0.0015467
2.40547e-06
0.00154623
-2.20736e-06
0.0015474
-2.24598e-06
0.00154622
2.53351e-06
0.00154984
-9.08716e-07
0.00155461
-9.08776e-07
0.00155141
3.4084e-06
0.00154666
3.12096e-06
-7.57467e-07
0.00155232
-1.32243e-06
0.00154415
6.59908e-06
0.00154131
9.43392e-06
0.00154221
6.65015e-06
0.00154189
-8.85892e-06
0.00154154
-7.26664e-06
0.00154627
-6.9443e-08
0.00155461
4.43549e-06
0.00155457
2.60735e-06
0.00154653
-9.8571e-07
0.00154171
-3.94196e-06
0.00154455
2.87159e-06
0.00153812
8.442e-06
0.00153411
6.29761e-06
0.00154103
-3.58633e-06
0.00154263
-5.75344e-06
0.00154405
-5.55243e-06
0.00155057
-5.74194e-06
0.00155031
-2.36788e-06
0.00154825
1.23619e-06
0.00154758
1.52714e-06
0.00154608
2.4691e-06
0.00154814
2.60478e-06
0.00154917
1.85768e-06
0.00154582
-2.11642e-06
0.00154124
-1.38714e-06
0.0015475
-6.10034e-07
0.00155137
-2.79101e-06
0.00154758
-1.50993e-06
0.00154698
-4.40609e-07
0.00155123
-2.2475e-06
-4.16975e-06
0.00152497
8.94971e-07
0.00153701
3.06892e-06
0.00154102
9.3016e-06
0.00154343
1.59497e-06
0.00153364
-5.77001e-06
0.0015363
-4.45312e-06
0.00155448
-4.3372e-07
0.00156388
-1.5595e-06
0.00155652
-8.51946e-07
0.0015427
1.75426e-06
0.00153916
-2.61372e-06
0.00155078
-4.20341e-06
0.0015546
7.75134e-06
0.00155205
1.09166e-05
0.00154858
-3.32053e-06
0.00154431
-7.55803e-06
0.00154312
-4.14405e-06
0.00154445
-4.29181e-06
0.00154452
-4.17213e-06
0.00154679
-1.92365e-06
0.00154693
2.28262e-06
0.00154431
5.01812e-06
0.00154791
4.69852e-07
0.00155129
-9.93255e-07
0.00154493
1.47534e-06
0.00153693
9.55721e-07
0.0015375
-1.36734e-06
0.00153689
-2.66077e-06
0.00154174
-4.28011e-06
0.00154486
-2.54947e-06
0.00153742
-1.42852e-06
-1.26134e-06
0.00152783
2.77476e-06
0.00153555
3.7785e-06
0.00154487
2.44049e-06
0.0015462
-1.25864e-06
0.0015363
-1.76276e-07
0.00153948
-1.27551e-06
0.00154859
-3.78784e-06
0.00155143
-4.15979e-06
0.00155609
-4.25936e-06
0.00156333
-2.13066e-07
0.00155947
1.65552e-06
0.00155039
1.77443e-06
0.0015587
1.32562e-06
0.00157234
4.2294e-06
0.00156388
4.21507e-06
0.00154416
3.46324e-06
0.00153123
1.03552e-06
0.00152941
-2.67035e-06
0.00152746
-2.65437e-06
0.00153442
-5.58057e-06
0.00154813
-4.52861e-06
0.00155529
3.61835e-06
0.0015534
4.03381e-06
0.00155016
-1.21472e-07
0.00154759
6.07599e-08
0.00154672
-5.30318e-07
0.00154829
-1.96146e-06
0.00155198
-2.44727e-06
0.00155049
-4.80771e-06
0.00154485
-3.74378e-06
0.00153555
1.84546e-07
1.82527e-06
0.00151776
0.00152487
0.00152831
0.00152559
0.00152619
0.00152641
0.00152486
0.0015187
0.0015152
0.00152109
0.00152332
0.00152426
0.00152903
0.00153329
0.00153423
0.00152797
0.00152216
0.0015206
0.00152121
0.00151911
0.00151512
0.00152012
0.00152368
0.00152238
0.00152206
0.00152201
0.00152195
0.0015227
0.0015162
0.00151355
0.00151602
)
;

boundaryField
{
    wall
    {
        type            calculated;
        value           uniform 0;
    }
    outlet
    {
        type            cyclic;
        value           nonuniform List<scalar> 
16
(
0.00152414
0.00154622
0.00153562
0.00155393
0.00154594
0.00153222
0.00154053
0.00151841
0.00153067
0.00155622
0.00153946
0.00154682
0.00155425
0.0015272
0.00152742
0.00151614
)
;
    }
    inlet
    {
        type            cyclic;
        value           nonuniform List<scalar> 
16
(
-0.00152414
-0.00154622
-0.00153562
-0.00155393
-0.00154594
-0.00153222
-0.00154053
-0.00151841
-0.00153067
-0.00155622
-0.00153946
-0.00154682
-0.00155425
-0.0015272
-0.00152742
-0.00151614
)
;
    }
    procBoundary2to1
    {
        type            processor;
        value           nonuniform List<scalar> 
256
(
1.5225e-06
2.93424e-06
1.01231e-06
-1.23225e-05
-8.65853e-06
8.22595e-06
2.11733e-05
1.5071e-05
5.19606e-07
-8.17983e-06
-7.50477e-06
-1.91246e-06
4.02997e-06
1.8651e-06
-2.79901e-06
-4.05198e-06
8.34562e-07
5.69478e-06
4.31848e-06
2.56188e-06
-4.1037e-06
-2.55138e-06
1.02145e-05
9.00195e-06
2.25408e-07
-4.60545e-06
-1.93607e-06
-1.26523e-06
-3.62077e-07
3.85005e-07
-6.45232e-06
-5.49272e-06
1.79243e-06
2.22184e-06
-1.46673e-06
-1.31016e-05
-1.03801e-05
4.34535e-06
1.75989e-05
1.1166e-05
3.85437e-07
-8.59584e-06
-8.71756e-06
-3.34756e-06
2.90184e-06
2.07154e-06
-1.67392e-06
-2.03002e-06
2.17199e-06
4.28066e-06
2.26269e-06
1.9281e-06
2.03436e-06
-2.52428e-06
-4.79622e-07
5.74643e-06
-9.78628e-07
-4.34043e-06
1.40666e-06
9.86023e-07
-3.9403e-06
-1.50206e-06
-1.1277e-06
-1.87345e-06
7.30435e-08
-3.59512e-06
-7.28915e-06
-8.56744e-06
-8.66145e-06
5.6653e-06
1.5059e-05
1.04237e-05
1.83333e-06
-2.65953e-06
-1.72111e-06
-1.44982e-06
-8.24481e-07
1.07378e-06
3.64036e-06
5.35039e-06
3.49216e-06
-3.97632e-06
-2.96558e-06
2.52578e-06
9.86481e-07
-1.11458e-06
5.89984e-07
2.80327e-06
3.96709e-06
-1.94692e-06
-9.65108e-07
1.23543e-06
-1.25294e-06
-3.75991e-06
-4.38036e-06
-1.04317e-06
2.51846e-06
-2.3989e-06
-1.72115e-06
-2.77599e-06
-7.36094e-06
-3.90792e-06
4.51216e-07
5.71622e-06
6.33526e-06
-2.504e-06
-7.12774e-06
-3.94892e-06
6.00114e-07
8.55109e-07
2.3333e-06
3.5215e-06
6.84951e-07
-4.06669e-07
4.22729e-06
4.33672e-06
-5.32973e-07
-8.18354e-07
8.93454e-07
2.04857e-06
7.01475e-07
-5.52406e-07
1.45007e-06
2.41307e-06
-3.15773e-06
-6.39291e-06
-5.86239e-06
1.21914e-06
4.00957e-06
-1.52674e-06
-5.04594e-06
-2.33757e-06
4.55707e-08
-1.53963e-06
-1.44484e-06
6.16412e-07
5.15273e-06
-7.82842e-07
-3.58673e-06
8.62275e-08
3.56687e-06
-1.55664e-06
-1.35234e-06
4.04089e-06
2.0228e-06
-2.96699e-06
-2.1237e-06
-1.29073e-06
3.01133e-06
2.72613e-06
3.66896e-07
2.02122e-06
3.02831e-06
-2.35803e-07
-1.4827e-06
3.46585e-06
3.89103e-06
-8.35368e-06
-7.06446e-06
-3.4538e-07
4.13949e-07
-1.36732e-06
-4.18419e-07
1.00531e-06
1.22201e-06
-4.36407e-06
-3.36113e-06
-4.02396e-06
-1.15603e-06
1.03445e-06
3.97592e-07
7.60694e-07
7.95706e-07
1.1661e-06
2.83805e-06
2.4228e-06
2.05031e-07
-3.60276e-06
2.22786e-06
4.67006e-06
2.13685e-06
3.4629e-06
3.54073e-08
2.17302e-07
1.33327e-06
1.17415e-06
-2.49007e-06
9.44059e-08
2.34927e-06
1.68976e-06
-4.19765e-06
-1.49684e-06
-2.69666e-06
5.87241e-07
5.5313e-06
-2.25723e-06
-6.66637e-06
-2.04976e-06
-1.02083e-06
-3.68089e-06
-3.06627e-06
2.34951e-06
-1.07209e-06
-2.34427e-06
-1.35571e-07
-2.84915e-06
1.88598e-06
5.73006e-06
1.31593e-06
-1.60058e-06
1.42514e-06
-2.15053e-06
-5.49987e-06
-7.06806e-06
-1.44512e-06
6.96286e-06
1.5451e-06
4.24036e-07
3.3942e-07
-4.7642e-06
2.44195e-06
9.13219e-06
7.34128e-06
-1.84675e-06
-6.46449e-07
1.61178e-07
2.37901e-07
-2.83667e-06
-4.34078e-06
-5.7641e-07
-3.53122e-06
-4.39368e-06
4.36677e-07
4.56809e-06
-1.11333e-06
-5.07197e-06
-4.42656e-07
2.33771e-06
3.48203e-06
5.81047e-07
-2.89104e-06
-2.08435e-06
3.28948e-06
-1.84248e-07
-1.09969e-07
1.49629e-06
-2.17361e-06
1.21434e-06
3.35661e-06
4.06252e-06
3.15168e-06
-5.98755e-06
-7.17269e-06
8.28035e-07
5.59396e-06
-4.35304e-07
)
;
    }
    procBoundary2to3
    {
        type            processor;
        value           nonuniform List<scalar> 
256
(
2.40584e-06
6.1768e-07
-8.25464e-07
-1.04672e-06
-5.72849e-06
-1.06069e-05
-9.28628e-06
5.47386e-06
8.85289e-06
7.31911e-06
7.16233e-06
3.91957e-06
-3.33968e-06
-3.97182e-06
-2.66255e-06
-9.34966e-07
-6.765e-07
-3.09529e-06
-4.37165e-06
-3.44376e-06
-1.32404e-06
3.132e-06
3.54529e-06
-1.22348e-06
-3.43292e-06
-1.57645e-06
-1.16629e-07
1.17829e-06
3.08981e-06
2.98345e-06
3.26818e-06
2.1762e-06
8.30004e-07
1.87513e-07
1.50319e-07
-2.76038e-06
-6.38991e-06
-7.6267e-06
-3.14792e-06
6.79898e-06
4.64116e-06
4.11174e-06
7.07055e-06
6.31926e-06
-1.08355e-06
-2.88009e-06
-1.12338e-06
-3.38791e-07
1.48396e-06
-2.87737e-06
-2.75493e-06
8.38148e-07
-1.08152e-06
2.80804e-07
1.38009e-06
-2.81451e-06
-2.60543e-06
1.98059e-07
-9.13645e-07
-2.25896e-06
2.98311e-06
4.31417e-06
2.79347e-06
1.80311e-06
4.61665e-06
-9.07567e-06
-8.67954e-06
-2.20077e-06
5.34597e-07
-3.65926e-06
-4.8322e-06
6.84547e-06
8.13714e-06
2.37803e-06
-1.12478e-06
-1.10794e-06
-4.04446e-06
-4.26635e-06
-2.56432e-06
5.94901e-07
1.11322e-06
-3.52404e-06
-5.44297e-06
-2.10852e-06
5.01126e-06
3.42416e-06
2.37515e-06
6.34602e-07
-5.50302e-07
-9.11821e-07
-1.36709e-06
-3.26531e-06
5.21974e-07
2.64201e-06
6.06777e-06
7.48068e-06
-6.06837e-08
-1.30051e-06
-8.05387e-07
-5.21374e-08
1.98297e-06
-6.13678e-06
-1.01602e-05
4.5039e-06
8.72187e-06
7.359e-06
3.68595e-06
3.66042e-06
-5.80587e-08
-1.07945e-06
-1.68783e-06
8.80233e-07
1.81788e-06
-2.37843e-07
-4.45663e-06
-2.45235e-06
2.47158e-06
1.92627e-06
-1.62714e-07
-1.0531e-06
-2.90166e-06
-5.53222e-06
-4.39976e-06
-2.63301e-06
-4.55582e-07
1.22974e-06
4.36387e-06
2.62084e-06
1.2391e-06
8.11195e-07
-5.64879e-08
-6.42022e-07
1.30765e-06
-3.33951e-06
-9.41478e-06
-1.32856e-06
4.82997e-06
2.81331e-06
3.16388e-06
2.85367e-06
4.99276e-06
8.51845e-08
-4.55334e-06
-4.35183e-06
-3.5729e-06
-2.08127e-06
-2.02474e-06
-2.94383e-06
-1.63449e-06
5.5338e-07
-1.57974e-06
-2.63677e-06
-8.85026e-07
2.67214e-07
-1.86323e-06
-1.6936e-06
1.25816e-06
7.80668e-06
7.35986e-06
4.44745e-06
4.63803e-06
-6.94493e-06
-7.07322e-06
-1.92852e-07
8.75824e-06
3.37804e-07
-1.33543e-05
-4.39915e-06
7.41367e-06
7.16782e-06
2.0747e-06
2.35003e-06
-1.83732e-06
-4.53748e-06
1.68157e-06
3.51653e-06
-9.11847e-07
-1.26471e-06
1.82452e-06
1.96246e-06
-2.15538e-07
-1.47744e-06
-5.36276e-07
2.15741e-06
2.86728e-06
-1.26831e-06
-5.08897e-06
-3.18195e-06
-2.88666e-06
1.87404e-06
1.10503e-05
8.0937e-06
2.81539e-06
-1.00099e-05
-6.17503e-06
7.19295e-07
7.37067e-06
4.03465e-06
1.3109e-06
-1.10587e-06
-1.55156e-06
-2.50227e-06
9.18923e-07
-8.28867e-07
-1.09459e-06
-1.54434e-06
-2.55088e-06
3.56701e-06
1.8182e-06
-3.0773e-06
-2.40441e-06
1.84132e-06
1.12203e-06
-2.00869e-06
-9.08891e-07
-2.46766e-07
-1.5241e-06
-1.5716e-06
-1.0791e-06
4.52526e-08
5.55467e-06
3.30897e-07
2.71087e-06
1.00369e-05
9.87846e-07
-4.43699e-06
-4.28313e-06
1.65356e-06
2.5918e-06
4.1491e-06
1.29533e-06
-1.62743e-06
-1.02984e-06
2.08219e-06
7.58115e-07
-3.04322e-06
-2.06594e-06
-2.44764e-06
-1.70605e-06
1.0505e-05
8.46026e-06
-2.59536e-06
-2.95694e-06
2.7725e-06
7.61855e-07
-4.13862e-06
-2.29109e-06
-1.83629e-06
-3.81861e-06
-5.81871e-06
-2.94403e-06
-3.02877e-07
3.34005e-06
-2.16642e-06
-3.24975e-07
4.65092e-06
)
;
    }
}


// ************************************************************************* //
