FoamFile
{version 2.0; format ascii;class Cloud<passiveParticle>; location 0;object  positions;}
2494
(
( -0.0108925 -0.00401486 0.000499651 ) 0 
( -0.00506769 -0.00114585 0.000997566 ) 0 
( -0.00678597 -0.00690084 0.00293991 ) 0 
( -0.000965256 -0.00189557 0.00280138 ) 0 
( -0.0130612 -0.00247881 0.000499365 ) 0 
( -0.00939873 -0.0044298 0.000499398 ) 0 
( -0.00305484 -0.00787105 0.00118393 ) 0 
( -0.000104187 -0.00572682 0.00456001 ) 0 
( -0.00875943 -0.00185139 0.00533811 ) 0 
( -0.00936687 -0.0037877 0.00150128 ) 0 
( -0.00913755 -0.00626571 0.00270524 ) 0 
( -0.00625991 -0.00313416 0.00270315 ) 0 
( -0.0106335 -0.00701031 0.00324525 ) 0 
( -0.00904386 -0.00167304 0.0064084 ) 0 
( -0.00389976 -0.00460021 0.00460081 ) 0 
( -0.00229154 -0.00784104 0.00668614 ) 0 
( -0.00221315 -0.00582787 0.00714861 ) 0 
( -0.00536013 -0.00779109 0.00715018 ) 0 
( -0.00256552 -0.0085597 0.00173548 ) 0 
( -0.00915837 -0.00240067 0.00389596 ) 0 
( -0.00211342 -0.00249942 0.000499314 ) 0 
( -0.00427931 -0.00832225 0.00466727 ) 0 
( -0.00418506 -0.000692951 0.000884759 ) 0 
( -0.00132236 -0.00784267 0.000499742 ) 0 
( -0.000527813 -0.0021085 0.00126191 ) 0 
( -0.00973468 -0.00788216 0.00512337 ) 0 
( -0.00868144 -0.0052841 0.000496929 ) 0 
( -0.00945656 -0.00705974 0.00670325 ) 0 
( -0.00984872 -0.00465325 0.00136355 ) 0 
( -0.0131244 -0.00242003 0.00247573 ) 0 
( -0.00604597 -0.00188015 0.000499779 ) 0 
( -0.00408686 -0.011903 0.00531369 ) 0 
( -0.00204591 -0.0115039 0.00278327 ) 0 
( -0.00228443 -0.00678884 0.00441032 ) 0 
( -0.000696652 -0.0130255 0.00465321 ) 0 
( -0.00131042 -0.00633349 0.00682123 ) 0 
( -0.00508519 -0.00989363 0.00268089 ) 0 
( -0.00665914 -0.000352432 0.00645998 ) 0 
( -0.00335761 -0.00472671 0.00690623 ) 0 
( -0.00405076 -0.00639833 0.000499517 ) 0 
( -0.0101386 -0.00181313 0.00303019 ) 0 
( -0.0116487 -0.00115309 0.000788487 ) 0 
( -0.000784498 -0.00963602 0.00229 ) 0 
( -0.00780488 -0.00347166 0.00208123 ) 0 
( -0.00106345 -0.00325577 0.00526938 ) 0 
( -0.0013862 -0.0082991 0.00359169 ) 0 
( -0.00836889 -0.00202642 0.0043786 ) 0 
( -0.00125666 -0.00233186 0.00375231 ) 0 
( -0.00684874 -0.00962307 0.0047962 ) 0 
( -0.000784298 -0.00386045 0.00278788 ) 0 
( -0.00728956 -0.00463178 0.00049921 ) 0 
( -0.00463327 -0.00639313 0.00574857 ) 0 
( -0.00132671 -0.0101253 0.00160359 ) 0 
( -0.00667987 -0.00106263 0.000498128 ) 0 
( -0.0112258 -0.00377662 0.00625952 ) 0 
( -0.0040133 -0.00569411 0.00124075 ) 0 
( -0.0120976 -0.00564598 0.00594816 ) 0 
( -0.00208476 -0.0107252 0.00185544 ) 0 
( -0.00622916 -0.00933946 0.00126009 ) 0 
( -0.00326518 -0.000749452 0.000497513 ) 0 
( -3.33116e-05 -0.0118522 0.00488011 ) 0 
( -0.004557 -0.0100617 0.00108889 ) 0 
( -0.00217653 -0.00975718 0.00446089 ) 0 
( -0.00912654 -0.00563389 0.00349678 ) 0 
( -0.00613592 -0.0118567 0.00501003 ) 0 
( -0.002923 -0.00391041 0.00293447 ) 0 
( -0.00446334 -0.0125841 0.00593766 ) 0 
( -0.00869773 -0.0066535 0.0035123 ) 0 
( -0.000677083 -0.0119501 0.0016694 ) 0 
( -0.0076185 -0.00497865 0.00430668 ) 0 
( -0.00558714 -0.00219966 0.00732895 ) 0 
( -0.00726479 -0.0112003 0.0036284 ) 0 
( -0.0121955 -0.00267779 0.00221156 ) 0 
( -0.00683924 -0.0109766 0.0022657 ) 0 
( -0.00334266 -0.00655598 0.00280346 ) 0 
( -0.00533032 -0.00155633 0.00329605 ) 0 
( -0.00555965 -0.00289791 0.00195592 ) 0 
( -0.0117375 -0.00636544 0.00220181 ) 0 
( -0.00257439 -0.0049671 0.000499693 ) 0 
( -0.00288675 -0.003375 0.00209084 ) 0 
( -0.00217613 -0.0122873 0.00531411 ) 0 
( -0.00821707 -0.0015609 0.00350731 ) 0 
( -0.0125417 -0.00455549 0.00214129 ) 0 
( -0.00302049 -0.006233 0.00402912 ) 0 
( -0.00490131 -0.00123347 0.00500705 ) 0 
( -0.00485219 -0.00864603 0.00648107 ) 0 
( -0.00853227 -0.00300856 0.00258342 ) 0 
( -0.010338 -0.00479753 0.00323192 ) 0 
( -0.0001071 -0.00323534 0.00317361 ) 0 
( -0.00952918 -0.00267051 0.000499781 ) 0 
( -0.0042538 -0.00516577 0.00695403 ) 0 
( -0.00452551 -0.00953701 0.00193559 ) 0 
( -0.00188979 -0.000385991 0.00733331 ) 0 
( -0.0014113 -0.00939063 0.00675657 ) 0 
( -0.0124292 -0.00170434 0.000498057 ) 0 
( -0.00465957 -0.0105109 0.00459195 ) 0 
( -0.00290812 -0.0130306 0.0029051 ) 0 
( -0.000248766 -0.00200058 0.00810596 ) 0 
( -0.00477503 -0.00164572 0.00750354 ) 0 
( -0.0049524 -0.00580264 0.00764264 ) 0 
( -0.00384337 -0.00265645 0.00715228 ) 0 
( -0.010561 -0.00475182 0.00665571 ) 0 
( -0.0112105 -0.005567 0.00182575 ) 0 
( -0.00262709 -0.00424779 0.00435612 ) 0 
( -0.00283136 -0.0130469 0.00683376 ) 0 
( -0.00969896 -0.00665975 0.00347072 ) 0 
( -0.00751354 -0.00512042 0.00601547 ) 0 
( -0.00204324 -0.00354234 0.00395572 ) 0 
( -0.00670891 -0.00582334 0.00586442 ) 0 
( -0.00666546 -0.00656148 0.00659942 ) 0 
( -0.00150487 -0.00175121 0.00522958 ) 0 
( -0.00940769 -0.00551932 0.00113629 ) 0 
( -0.0070516 -0.0104739 0.00127898 ) 0 
( -0.00990412 -0.00084335 0.00296646 ) 0 
( -0.00948501 -0.00497253 0.00527968 ) 0 
( -0.00248091 -0.0113852 0.00694452 ) 0 
( -0.0101414 -0.00250742 0.00375555 ) 0 
( -0.00403894 -0.00359644 0.00049815 ) 0 
( -0.00217249 -0.00895197 0.00628155 ) 0 
( -0.00131619 -0.0114467 0.00346229 ) 0 
( -0.00901239 -0.00741694 0.00113804 ) 0 
( -0.00438102 -0.00605193 0.00288084 ) 0 
( -0.0104325 -0.0051641 0.00230658 ) 0 
( -0.00695218 -0.00838902 0.00122284 ) 0 
( -0.00544218 -0.00663713 0.00728532 ) 0 
( -0.0107799 -0.00787674 0.00661829 ) 0 
( -0.0119553 -0.00269221 0.00655531 ) 0 
( -0.00342102 -0.0093217 0.0053957 ) 0 
( -0.00196367 -0.013204 0.00318156 ) 0 
( -0.0094013 -0.00156835 0.00240277 ) 0 
( -0.00610885 -0.00724569 0.00464879 ) 0 
( -0.00540553 -0.00672589 0.00397047 ) 0 
( -0.00267313 -0.0121751 0.00239289 ) 0 
( -0.00096919 -0.00511486 0.000499239 ) 0 
( -0.00960011 -0.000665335 0.00203157 ) 0 
( -0.00225465 -0.00609256 0.000497231 ) 0 
( -0.00751028 -0.00448585 0.00522606 ) 0 
( -0.00395942 -0.006619 0.00358808 ) 0 
( -0.010965 -0.00588034 0.00354569 ) 0 
( -0.0104052 -0.00319819 0.00547915 ) 0 
( -0.00816425 -0.00263105 0.00514667 ) 0 
( -0.0132713 -0.00145999 0.00192408 ) 0 
( -0.00474001 -0.00619994 0.00672481 ) 0 
( -0.009653 -0.000933986 0.00612675 ) 0 
( -0.00178538 -0.000343185 0.000498695 ) 0 
( -0.00958967 -0.00327987 0.00408791 ) 0 
( -0.000666101 -0.0047694 0.00754799 ) 0 
( -0.00896816 -0.00288223 0.00135942 ) 0 
( -0.00125616 -0.00882647 0.0059034 ) 0 
( -0.00139904 -0.00259769 0.00127034 ) 0 
( -0.00770021 -0.00100236 0.00049978 ) 0 
( -0.00188716 -0.0040735 0.00312478 ) 0 
( -0.00466768 -0.0125062 0.00369238 ) 0 
( -0.00273846 -0.00503596 0.00205733 ) 0 
( -0.00984385 -0.00340568 0.00231371 ) 0 
( -0.00541902 -0.000672146 0.00284156 ) 0 
( -0.00315203 -0.000708006 0.00551329 ) 0 
( -0.00491086 -0.000123712 0.0035133 ) 0 
( -0.00628961 -0.00348292 0.00675968 ) 0 
( -0.00111263 -0.0115706 0.000499746 ) 0 
( -0.00440534 -0.0108732 0.00578039 ) 0 
( -0.00514117 -0.00728665 0.00492485 ) 0 
( -0.00107296 -0.00210983 0.00731915 ) 0 
( -0.00969167 -0.00149492 0.00529871 ) 0 
( -0.0113874 -0.00201152 0.00609301 ) 0 
( -0.00379853 -0.0127982 0.00329405 ) 0 
( -0.00472877 -0.00600677 0.00381708 ) 0 
( -0.00321294 -0.0103874 0.00127062 ) 0 
( -0.00362304 -0.0128493 0.00427553 ) 0 
( -0.00467271 -0.00599832 0.00192672 ) 0 
( -0.0103654 -0.00528002 0.00747993 ) 0 
( -0.00571274 -0.007541 0.00282197 ) 0 
( -0.00492525 -0.0117001 0.00599485 ) 0 
( -0.0057875 -0.0108921 0.000499382 ) 0 
( -0.0112627 -0.00267825 0.00398217 ) 0 
( -0.0103132 -0.00675628 0.00509415 ) 0 
( -0.00933808 -0.00811247 0.00049807 ) 0 
( -0.00198163 -0.00636111 0.00796197 ) 0 
( -0.00298043 -0.00206616 0.00705524 ) 0 
( -0.0103624 -0.0038233 0.00157058 ) 0 
( -0.00623245 -0.00554249 0.00503142 ) 0 
( -0.0100636 -0.00113947 0.00122255 ) 0 
( -0.00321283 -0.00108038 0.00344308 ) 0 
( -0.00556147 -0.0111492 0.00312948 ) 0 
( -0.00695242 -0.00221869 0.00341239 ) 0 
( -0.0115182 -0.00459833 0.00496173 ) 0 
( -0.0133171 -0.000950143 0.00445783 ) 0 
( -0.00173602 -0.0103592 0.00356479 ) 0 
( -0.00621661 -0.00393195 0.00330154 ) 0 
( -0.0109779 -0.00434661 0.00416089 ) 0 
( -0.00801335 -0.00785935 0.00700445 ) 0 
( -0.00321934 -0.00875139 0.000499754 ) 0 
( -0.00786315 -0.00454321 0.00131245 ) 0 
( -0.00669919 -0.0114639 0.00573637 ) 0 
( -0.00605819 -0.0028834 0.000498972 ) 0 
( -4.33522e-05 -0.00638303 0.00293412 ) 0 
( -0.0010266 -0.00581341 0.00588715 ) 0 
( -0.00469206 -0.0116391 0.00307827 ) 0 
( -0.00389597 -0.00166648 0.00702729 ) 0 
( -0.00897765 -0.00914335 0.00461427 ) 0 
( -0.0127441 -0.00397941 0.00135275 ) 0 
( -0.00994391 -0.00890824 0.00452545 ) 0 
( -0.000907802 -0.00130981 0.00839981 ) 0 
( -0.00182281 -0.00477171 0.00408143 ) 0 
( -0.000377993 -0.00255646 0.0054715 ) 0 
( -0.00760642 -0.0109732 0.004688 ) 0 
( -0.00477489 -0.0110333 0.00117968 ) 0 
( -0.00293269 -0.00301304 0.00738967 ) 0 
( -0.00538142 -0.00772267 0.00401845 ) 0 
( -0.00712015 -0.00145094 0.00511758 ) 0 
( -0.0110291 -0.00564825 0.0061125 ) 0 
( -0.00667751 -0.0061723 0.00183149 ) 0 
( -0.00713177 -0.00794902 0.0040724 ) 0 
( -0.000257372 -0.0133484 0.00688627 ) 0 
( -0.00924778 -0.00962879 0.00645157 ) 0 
( -0.00527012 -0.010348 0.00640468 ) 0 
( -0.00370783 -0.012826 0.00527011 ) 0 
( -0.00295949 -0.00274612 0.00540117 ) 0 
( -0.010772 -0.000963875 0.00580772 ) 0 
( -0.00878946 -0.00340813 0.00480805 ) 0 
( -0.0026911 -0.00248069 0.00248673 ) 0 
( -0.0113654 -0.00486487 0.00340053 ) 0 
( -0.0114537 -0.00208912 0.000499208 ) 0 
( -0.00588251 -0.011985 0.00598161 ) 0 
( -0.00542638 -0.0112561 0.00192827 ) 0 
( -8.66763e-05 -0.00886851 0.000497709 ) 0 
( -0.0125226 -0.00116394 0.00133302 ) 0 
( -0.0115657 -0.00666999 0.00313688 ) 0 
( -0.00666645 -0.00778374 0.00248963 ) 0 
( -0.00435122 -0.0041011 0.00215945 ) 0 
( -0.0121392 -0.0055559 0.00380686 ) 0 
( -0.00250254 -0.00419889 0.00124 ) 0 
( -0.00340284 -0.00492449 0.00279298 ) 0 
( -0.0077874 -0.00635102 0.000498321 ) 0 
( -0.00669741 -0.010637 0.00629841 ) 0 
( -0.0088873 -0.00257623 0.00601215 ) 0 
( -0.00874298 -0.00647076 0.00616653 ) 0 
( -0.00212331 -0.00638927 0.00531059 ) 0 
( -0.000773477 -0.0125208 0.000497213 ) 0 
( -0.00645652 -0.00819385 0.00337688 ) 0 
( -0.0038922 -0.00310574 0.00299248 ) 0 
( -0.00260496 -0.00904954 0.00388598 ) 0 
( -1.59341e-05 -0.0111189 0.000495901 ) 0 
( -0.00310682 -0.00650791 0.00080582 ) 0 
( -0.00586106 -0.0119965 0.00704935 ) 0 
( -0.00533988 -0.0122357 0.00215754 ) 0 
( -0.0021875 -0.00117121 0.00184283 ) 0 
( -0.00100561 -0.00661031 0.00307774 ) 0 
( -0.00435015 -0.0126221 0.00169433 ) 0 
( -0.0102058 -0.00860734 0.00050002 ) 0 
( -0.00436202 -0.00911375 0.00565992 ) 0 
( -0.0107951 -0.0031447 0.000981876 ) 0 
( -0.00399813 -0.00501841 0.00197647 ) 0 
( -0.00183941 -0.00168149 0.00425693 ) 0 
( -0.008565 -0.00906161 0.00339114 ) 0 
( -0.00732991 -0.00991789 0.000498529 ) 0 
( -0.000660749 -0.00670311 0.00615731 ) 0 
( -0.00693709 -0.00273167 0.00640823 ) 0 
( -0.00500562 -0.0081429 0.00319333 ) 0 
( -0.00618323 -0.00698172 0.00214201 ) 0 
( -0.00252488 -0.00055034 0.00113735 ) 0 
( -0.00527703 -0.00545286 0.00127976 ) 0 
( -0.00960139 -0.00692828 0.000497189 ) 0 
( -0.00295049 -0.00648358 0.00746328 ) 0 
( -0.00741307 -0.00769157 0.00314823 ) 0 
( -0.00105881 -0.000836549 0.00667345 ) 0 
( -0.000163017 -0.0103728 0.00255244 ) 0 
( -0.00328681 -0.00481817 0.00124548 ) 0 
( -0.00988671 -0.00585374 0.00503631 ) 0 
( -0.00299689 -0.00129647 0.00448696 ) 0 
( -0.00389427 -0.00210986 0.00221112 ) 0 
( -0.00565718 -0.000690201 0.00385584 ) 0 
( -0.00757198 -0.00892966 0.00611261 ) 0 
( -0.00769608 -0.00603853 0.00636453 ) 0 
( -0.00151809 -0.00787452 0.006055 ) 0 
( -0.0074736 -0.0100403 0.00698933 ) 0 
( -0.00640936 -0.0063244 0.00440304 ) 0 
( -0.000652447 -0.0125843 0.00243798 ) 0 
( -0.000181815 -0.00400805 0.00179931 ) 0 
( -0.000262503 -0.00237888 0.00366383 ) 0 
( -0.00906185 -0.00383471 0.00276756 ) 0 
( -0.00993103 -9.15694e-05 0.00566917 ) 0 
( -0.0106316 -0.00407496 0.00505747 ) 0 
( -0.010269 -0.000930608 0.00389254 ) 0 
( -0.0109846 -0.00581913 0.000499851 ) 0 
( -0.00355652 -0.0022954 0.006266 ) 0 
( -0.00121594 -0.0132949 0.00383826 ) 0 
( -0.00818839 -0.00526154 0.00192387 ) 0 
( -0.00544671 -0.00115617 0.00666749 ) 0 
( -0.00456221 -0.0125503 0.00269972 ) 0 
( -0.0129726 -0.0028137 0.00638866 ) 0 
( -0.00323099 -0.00300724 0.000499689 ) 0 
( -0.00518087 -0.00681709 0.00219185 ) 0 
( -0.000282729 -0.00887818 0.00611929 ) 0 
( -0.00474844 -0.0108175 0.00251704 ) 0 
( -0.0101254 -0.00376385 0.00320127 ) 0 
( -0.00465174 -0.00852603 0.00146641 ) 0 
( -0.00210784 -0.0123826 0.00701618 ) 0 
( -0.00261783 -0.00935095 0.00244072 ) 0 
( -0.0117779 -0.00111077 0.00283529 ) 0 
( -0.00304802 -0.0122426 0.000497597 ) 0 
( -0.00420655 -0.0091524 0.00714805 ) 0 
( -0.0043199 -0.00171366 0.00139935 ) 0 
( -0.0080856 -0.00142762 0.00654957 ) 0 
( -0.00590826 -0.00532817 0.0035624 ) 0 
( -0.00199096 -0.0132029 0.00161135 ) 0 
( -0.00274575 -0.0104536 0.00402907 ) 0 
( -0.00478311 -0.00189254 0.00653679 ) 0 
( -0.00884566 -0.0100002 0.000499035 ) 0 
( -0.0123901 -0.00497393 0.00526952 ) 0 
( -0.00155289 -0.009243 0.00504604 ) 0 
( -0.00555535 -0.00748119 0.00154564 ) 0 
( -0.0113492 -0.00703233 0.00478718 ) 0 
( -0.0118314 -0.00377869 0.00544042 ) 0 
( -0.00321833 -0.0112601 0.000498162 ) 0 
( -0.00757088 -0.00993344 0.0021516 ) 0 
( -0.00298509 -0.00974723 0.00328115 ) 0 
( -0.00773798 -0.00669795 0.00323624 ) 0 
( -0.0100478 -0.00735246 0.00433659 ) 0 
( -0.00248436 -0.00600615 0.00215647 ) 0 
( -0.010155 -0.00866868 0.00292922 ) 0 
( -0.00861124 -0.00938331 0.00572132 ) 0 
( -0.0106139 -0.000966984 0.00203929 ) 0 
( -0.00579329 -0.00833352 0.00632544 ) 0 
( -0.0115201 -0.00482162 0.00241482 ) 0 
( -0.00651987 -0.00748998 0.00128509 ) 0 
( -0.00768583 -0.00350042 0.0067773 ) 0 
( -0.00800126 -0.00258485 0.00331687 ) 0 
( -0.00260294 -0.00597707 0.00314823 ) 0 
( -0.00164304 -0.00585462 0.00339325 ) 0 
( -0.00975515 -0.00440142 0.00232525 ) 0 
( -0.00824592 -0.00736965 0.00269868 ) 0 
( -0.00301521 -0.00948999 0.00629337 ) 0 
( -0.0032034 -0.00965119 0.00441174 ) 0 
( -0.00125714 -0.0019799 0.00049861 ) 0 
( -0.00687629 -0.00370983 0.000762195 ) 0 
( -0.00597727 -0.00231787 0.00321456 ) 0 
( -0.00167538 -0.00500083 0.00599345 ) 0 
( -0.00691387 -0.00418169 0.00397345 ) 0 
( -0.00147861 -0.003551 0.000915303 ) 0 
( -0.00281445 -0.013049 0.00488202 ) 0 
( -0.00136472 -0.0132812 0.00238482 ) 0 
( -0.00108389 -0.00881317 0.000497905 ) 0 
( -0.0106135 -0.00641066 0.00154512 ) 0 
( -0.00619281 -0.00181827 0.00663295 ) 0 
( -0.0121666 -0.00303929 0.00485734 ) 0 
( -0.011368 -0.00294176 0.00573153 ) 0 
( -0.0106748 -0.000168252 0.00449385 ) 0 
( -0.000836216 -0.00221669 0.00465097 ) 0 
( -0.000541396 -0.0108244 0.00336006 ) 0 
( -0.00941662 -0.00330363 0.00557844 ) 0 
( -0.00488806 -0.0113643 0.00505569 ) 0 
( -0.00681193 -0.00906306 0.00049836 ) 0 
( -0.000791303 -0.00295594 0.000499676 ) 0 
( -0.00619172 -0.00726801 0.00365369 ) 0 
( -0.011546 -0.00631844 0.00545656 ) 0 
( -8.96159e-05 -0.00559025 0.000498757 ) 0 
( -0.000205769 -0.00752158 0.00181629 ) 0 
( -0.00186787 -0.00780106 0.00287092 ) 0 
( -0.00328562 -0.0050844 0.00522373 ) 0 
( -0.00277777 -0.00525234 0.00606829 ) 0 
( -0.000704434 -0.00588017 0.00377783 ) 0 
( -0.0063876 -0.00328637 0.00578504 ) 0 
( -0.00603713 -0.0100771 0.00579813 ) 0 
( -0.00220813 -0.0114649 0.000498387 ) 0 
( -0.00182013 -0.00742202 0.00379338 ) 0 
( -0.00573093 -0.00937759 0.00212276 ) 0 
( -0.00897796 -0.00622102 0.00522738 ) 0 
( -0.00859126 -0.00190359 0.00726839 ) 0 
( -0.000689803 -0.0100988 0.00627776 ) 0 
( -0.00773786 -0.00282354 0.00424993 ) 0 
( -0.00474496 -0.0112537 0.0068684 ) 0 
( -0.00753591 -0.00732301 0.00476493 ) 0 
( -0.00418202 -0.0116362 0.00435706 ) 0 
( -0.00934377 -0.0014882 0.00353801 ) 0 
( -0.00213866 -0.00130528 0.000499779 ) 0 
( -0.009206 -0.00746033 0.00381013 ) 0 
( -0.0114321 -0.00207029 0.00242163 ) 0 
( -0.00604489 -0.00983288 0.00676985 ) 0 
( -0.0123047 -0.00167443 0.00629677 ) 0 
( -0.00403736 -0.00822736 0.000736411 ) 0 
( -0.00463479 -0.00544783 0.00607535 ) 0 
( -0.00554968 -0.00581584 0.00435509 ) 0 
( -0.00827806 -0.00675202 0.00127196 ) 0 
( -0.00292444 -0.0130095 0.00190794 ) 0 
( -0.00766345 -0.000679333 0.00221593 ) 0 
( -0.00734107 -0.0033939 0.00353025 ) 0 
( -0.0114731 -0.00107995 0.00470686 ) 0 
( -0.00526601 -0.00114816 0.00197624 ) 0 
( -0.00389159 -0.00308455 0.00199474 ) 0 
( -0.00167914 -0.00822356 0.00737615 ) 0 
( -0.00467714 -0.00561934 0.000498545 ) 0 
( -0.0109041 -3.74294e-05 0.00545542 ) 0 
( -0.000245269 -0.0043089 0.00561368 ) 0 
( -0.00236904 -0.00487229 0.00689723 ) 0 
( -0.00307794 -0.00606703 0.00505661 ) 0 
( -0.00236762 -0.00927535 0.000499757 ) 0 
( -0.00477433 -0.0038167 0.00560866 ) 0 
( -0.00862776 -0.000447979 0.00209846 ) 0 
( -0.0048837 -0.00642706 0.00104938 ) 0 
( -0.00598311 -0.0101219 0.00476244 ) 0 
( -0.00230065 -0.0103191 0.00274224 ) 0 
( -0.0104848 -0.00107838 0.00485697 ) 0 
( -0.00767662 -0.00904436 0.0025918 ) 0 
( -0.010023 -0.00764366 0.00105147 ) 0 
( -0.00134771 -0.0032245 0.00331332 ) 0 
( -0.00682091 -0.0104732 0.00532005 ) 0 
( -0.00293928 -0.00833607 0.006109 ) 0 
( -0.00291941 -0.000593634 0.00227072 ) 0 
( -0.00142135 -0.0124665 0.00125284 ) 0 
( -0.00328595 -0.00144675 0.00779716 ) 0 
( -0.00656898 -0.00606993 0.00344959 ) 0 
( -0.00153046 -0.00395176 0.00470765 ) 0 
( -0.0103842 -0.00254569 0.00472356 ) 0 
( -0.0037755 -0.0074292 0.00303469 ) 0 
( -0.00823475 -0.0105118 0.00377722 ) 0 
( -0.00230694 -0.000875483 0.0038985 ) 0 
( -0.00214446 -0.00329576 0.00794887 ) 0 
( -9.76008e-05 -0.00341252 0.00415693 ) 0 
( -0.0104732 -0.00233181 0.000499309 ) 0 
( -0.00405808 -0.00347815 0.00437326 ) 0 
( -0.00181387 -0.00148299 0.00656817 ) 0 
( -0.00100638 -0.00732408 0.00457231 ) 0 
( -0.0056975 -0.00375075 0.00523417 ) 0 
( -0.000394067 -0.00340127 0.00600611 ) 0 
( -0.00371094 -0.00677128 0.00568027 ) 0 
( -0.0118397 -4.99693e-06 0.00579852 ) 0 
( -0.00679069 -0.00888759 0.00412316 ) 0 
( -0.0124969 -0.00469597 0.00416992 ) 0 
( -0.00238593 -0.0122717 0.0014289 ) 0 
( -0.00223854 -0.00336985 0.0051039 ) 0 
( -0.00130684 -0.00662376 0.00142657 ) 0 
( -0.0125488 -0.00455801 0.000498963 ) 0 
( -0.00127707 -0.00821383 0.00509764 ) 0 
( -0.00996195 -0.00279106 0.00140479 ) 0 
( -0.00317556 -0.0102488 0.0022662 ) 0 
( -0.00384591 -0.0019471 0.00319538 ) 0 
( -0.00656004 -0.0116276 0.00306256 ) 0 
( -0.011366 -0.00489515 0.000499652 ) 0 
( -0.000454511 -0.00834933 0.00233126 ) 0 
( -0.0042007 -0.00567502 0.0052045 ) 0 
( -0.00856034 -0.00747932 0.00626015 ) 0 
( -0.000686997 -0.00890363 0.00468294 ) 0 
( -0.00700775 -0.00415928 0.0063934 ) 0 
( -0.00434062 -0.00987218 0.00631049 ) 0 
( -0.0075885 -1.93793e-05 0.00630431 ) 0 
( -0.00823201 -0.00939699 0.00670016 ) 0 
( -0.0115428 -0.00401596 0.00182464 ) 0 
( -0.00179963 -0.00713898 0.00212694 ) 0 
( -0.00982327 -0.0023961 0.00570961 ) 0 
( -0.00803018 -0.00830912 0.00432372 ) 0 
( -0.00162806 -0.00928315 0.003773 ) 0 
( -0.0104501 -0.00380702 0.00695821 ) 0 
( -0.00400133 -0.011087 0.00354217 ) 0 
( -0.000692357 -0.000850255 0.00309478 ) 0 
( -0.00586037 -0.00656392 0.00129232 ) 0 
( -0.00613607 -0.0046197 0.00444016 ) 0 
( -0.00952949 -0.00444732 0.00649192 ) 0 
( -0.0075683 -0.00812215 0.00222997 ) 0 
( -0.00515053 -0.0116623 0.000499426 ) 0 
( -0.00382721 -0.00485967 0.00603306 ) 0 
( -0.00703438 -0.000773133 0.00138591 ) 0 
( -0.00837992 -0.0103951 0.00575198 ) 0 
( -0.00642663 -0.00173189 0.00759945 ) 0 
( -0.00270561 -0.0113259 0.0013524 ) 0 
( -0.00518037 -0.00801552 0.000788464 ) 0 
( -0.00356999 -0.0114536 0.00717659 ) 0 
( -0.000326427 -0.00839149 0.0013415 ) 0 
( -0.0117469 -0.00113513 0.00566639 ) 0 
( -0.00332158 -0.000571048 0.00731617 ) 0 
( -0.0107219 -0.00422877 0.00250474 ) 0 
( -0.0108637 -0.0056682 0.005128 ) 0 
( -0.00734725 -0.00703286 0.00212327 ) 0 
( -0.0133497 -0.000207418 0.000558379 ) 0 
( -0.00725663 -0.000349031 0.00393821 ) 0 
( -0.00886348 -0.00539979 0.00462578 ) 0 
( -0.00499327 -0.00492646 0.00208006 ) 0 
( -0.00497934 -0.00878487 0.00240714 ) 0 
( -0.00718679 -0.00182187 0.00673912 ) 0 
( -0.0128875 -0.00348573 0.000497904 ) 0 
( -0.00682403 -0.00084071 0.00780715 ) 0 
( -0.0013742 -0.0123996 0.00310837 ) 0 
( -0.00812455 -0.00736781 0.000499621 ) 0 
( -0.00331082 -0.00169405 0.00550719 ) 0 
( -0.000571752 -0.00663698 0.0021043 ) 0 
( -0.0115018 -0.00499634 0.00688212 ) 0 
( -0.00921697 -0.000569233 0.00390274 ) 0 
( -0.00278119 -0.000337275 0.00465893 ) 0 
( -0.0124014 -0.000682097 0.00627103 ) 0 
( -0.00340501 -0.00865232 0.00343989 ) 0 
( -0.00217429 -0.000183368 0.00555376 ) 0 
( -0.00705048 -0.00413039 0.00171728 ) 0 
( -0.00789371 -0.0086452 0.00144104 ) 0 
( -0.00224122 -0.000461508 0.00299193 ) 0 
( -0.000247174 -0.00912593 0.00381488 ) 0 
( -0.00760403 -0.000903172 0.00584101 ) 0 
( -0.00449587 -0.0125704 0.00467464 ) 0 
( -0.00640518 -0.0107148 0.00343897 ) 0 
( -0.000437224 -0.00601671 0.00133195 ) 0 
( -0.00604256 -0.00417676 0.00607936 ) 0 
( -0.00415764 -0.00805481 0.00371304 ) 0 
( -0.00208716 -0.00761465 0.0012982 ) 0 
( -0.00770891 -0.00260056 0.00721118 ) 0 
( -0.00717479 -0.00647406 0.00526514 ) 0 
( -0.000557965 -0.0012271 0.00217958 ) 0 
( -0.00926675 -0.00836159 0.00326655 ) 0 
( -0.00271701 -0.0130746 0.000936406 ) 0 
( -0.0121769 -0.00547999 0.00205238 ) 0 
( -0.00228178 -0.00416156 0.00221186 ) 0 
( -0.00336787 -0.00424788 0.00206165 ) 0 
( -0.0046002 -0.00153043 0.00261504 ) 0 
( -0.00765808 -0.00461963 0.00337461 ) 0 
( -0.00553285 -0.00319686 0.00734586 ) 0 
( -0.00643925 -0.00029223 0.00548682 ) 0 
( -0.00717579 -0.00674326 0.00118205 ) 0 
( -0.00391601 -0.00157363 0.000497877 ) 0 
( -0.00271753 -0.00199186 0.00382622 ) 0 
( -0.0065296 -0.0026847 0.00731867 ) 0 
( -0.00343048 -0.00361784 0.00128935 ) 0 
( -0.00315415 -0.00882899 0.00705556 ) 0 
( -0.00238663 -0.00354281 0.000497714 ) 0 
( -0.00525273 -0.00524962 0.00686837 ) 0 
( -0.00695818 -0.00138377 0.00217267 ) 0 
( -0.00456082 -0.00475334 0.00533503 ) 0 
( -0.0132134 -0.00191061 0.00470945 ) 0 
( -0.00458292 -0.000177814 0.0025728 ) 0 
( -0.0108775 -0.00181509 0.00137394 ) 0 
( -0.00394515 -0.00775314 0.0021061 ) 0 
( -0.00303581 -0.00706482 0.00500775 ) 0 
( -0.000943958 -0.00452014 0.00140365 ) 0 
( -0.0121736 -0.00548392 0.000497633 ) 0 
( -0.00702384 -0.00741925 0.00622335 ) 0 
( -0.00415395 -0.00398128 0.00637451 ) 0 
( -0.00560479 -0.0060143 0.000497404 ) 0 
( -0.00674426 -0.00835706 0.0060175 ) 0 
( -0.00135095 -0.000181767 0.00343707 ) 0 
( -0.00579874 -0.00769775 0.00555431 ) 0 
( -0.00598805 -0.000435156 0.007196 ) 0 
( -0.00578985 -0.00646642 0.00290323 ) 0 
( -0.0123971 -0.00496002 0.00304232 ) 0 
( -0.010204 -0.00860935 0.00149981 ) 0 
( -0.00377323 -0.00561257 0.00430589 ) 0 
( -0.00380461 -0.00654303 0.00664682 ) 0 
( -0.00404319 -0.00856651 0.00267643 ) 0 
( -0.0120308 -0.00358942 0.00258587 ) 0 
( -0.00197134 -0.00593484 0.00618616 ) 0 
( -0.00788423 -0.000500368 0.00317324 ) 0 
( -0.000886934 -0.00985192 0.00342331 ) 0 
( -0.00462455 -0.0025847 0.00348665 ) 0 
( -0.0101403 -0.00571225 0.00408197 ) 0 
( -0.00800338 -0.0106568 0.000499138 ) 0 
( -0.0100268 -0.00668048 0.00252677 ) 0 
( -0.00242151 -0.00948948 0.00547494 ) 0 
( -0.000445585 -0.00527395 0.00670048 ) 0 
( -0.0078461 -0.00906771 0.00516136 ) 0 
( -0.0019917 -0.00675799 0.00303027 ) 0 
( -0.00371449 -0.00769159 0.00606582 ) 0 
( -0.00113552 -0.00658928 0.0052398 ) 0 
( -0.00842979 -0.00503449 0.00562478 ) 0 
( -0.00257535 -0.00140418 0.00274423 ) 0 
( -0.000801049 -0.00285287 0.00256457 ) 0 
( -0.00930004 -0.00255187 0.00487309 ) 0 
( -0.0029549 -0.00014531 0.00368565 ) 0 
( -0.00458046 -0.0072674 0.00149364 ) 0 
( -0.00506478 -0.00300279 0.000499779 ) 0 
( -0.00374216 -0.0128169 0.000925999 ) 0 
( -0.0131044 -0.00151863 0.00290668 ) 0 
( -0.00705809 -0.00383198 0.00267142 ) 0 
( -0.00883523 -0.00214682 0.00298566 ) 0 
( -0.0109115 -0.00462807 0.00134916 ) 0 
( -0.0036411 -0.0110246 0.00515266 ) 0 
( -0.00677066 -0.00908276 0.00303722 ) 0 
( -0.00285518 -0.00522012 0.00433214 ) 0 
( -0.00988773 -0.00753486 0.002032 ) 0 
( -3.42828e-05 -0.000149054 0.00480585 ) 0 
( -0.00781829 -0.00691035 0.00589233 ) 0 
( -0.00705777 -0.0110976 0.00049884 ) 0 
( -0.00839496 -0.0103813 0.00674871 ) 0 
( -0.0122164 -0.0024131 0.00563228 ) 0 
( -0.00783851 -0.00280182 0.00120083 ) 0 
( -0.00069779 -0.01244 0.00384337 ) 0 
( -0.00985291 -0.00631946 0.00591808 ) 0 
( -0.0036309 -0.00856268 0.00161449 ) 0 
( -0.00478153 -0.00040205 0.0044647 ) 0 
( -0.000548732 -0.00112312 0.00480012 ) 0 
( -0.0011947 -0.00341347 0.00823526 ) 0 
( -0.00785095 -0.00549435 0.00100743 ) 0 
( -0.00517406 -0.00340868 0.00334935 ) 0 
( -0.00782558 -0.00186432 0.00568977 ) 0 
( -0.00476033 -0.00887446 0.000498478 ) 0 
( -0.00163859 -0.0068812 0.00605243 ) 0 
( -0.00448389 -0.00422086 0.00385898 ) 0 
( -0.00405179 -0.00136075 0.00608794 ) 0 
( -0.00895034 -0.00990502 0.0074281 ) 0 
( -0.00699366 -0.00570331 0.00698965 ) 0 
( -0.00686933 -0.00315614 0.0046135 ) 0 
( -0.00739763 -0.00184203 0.00424198 ) 0 
( -0.00459725 -0.00458638 0.00122903 ) 0 
( -0.000731905 -0.0133312 0.00600697 ) 0 
( -0.00852931 -0.00263124 0.000498509 ) 0 
( -0.000523088 -0.00765959 0.00648143 ) 0 
( -0.00138162 -0.00656151 0.00404881 ) 0 
( -0.00690203 -0.00314756 0.00180629 ) 0 
( -0.00990898 -0.00174165 0.00435354 ) 0 
( -0.00277337 -0.00880278 0.00483919 ) 0 
( -0.00701861 -0.00571243 0.000499119 ) 0 
( -8.51503e-06 -0.00157192 0.00299139 ) 0 
( -0.00566204 -0.00595104 0.00205601 ) 0 
( -0.00797403 -0.00396325 0.00405405 ) 0 
( -0.00967984 -0.000491024 0.00478826 ) 0 
( -0.00879086 -0.00632961 0.000499779 ) 0 
( -0.00967036 -0.00673307 0.00147253 ) 0 
( -0.00128133 -0.00486764 0.00324808 ) 0 
( -0.00155616 -0.00128539 0.00761149 ) 0 
( -0.00573843 -0.00269493 0.00647435 ) 0 
( -0.0131777 -0.00214206 0.00567968 ) 0 
( -0.00433346 -0.00514293 0.0035068 ) 0 
( -0.00718115 -0.0025402 0.00533541 ) 0 
( -0.00673098 -0.00889583 0.00205586 ) 0 
( -0.00134502 -0.00166204 0.00162375 ) 0 
( -0.00587771 -0.00919129 0.00439299 ) 0 
( -0.0114027 -0.00287317 0.00301284 ) 0 
( -0.00775244 -0.00200317 0.000499348 ) 0 
( -0.00058372 -0.00306154 0.00161199 ) 0 
( -0.0054676 -0.00444319 0.00371951 ) 0 
( -0.00205922 -0.000974145 0.00492846 ) 0 
( -0.000920768 -0.00919125 0.00140712 ) 0 
( -0.00542238 -0.0019924 0.00139077 ) 0 
( -0.00568306 -0.00646546 0.0051017 ) 0 
( -0.00187545 -0.0132178 0.00458497 ) 0 
( -0.0100024 -0.00600414 0.000498311 ) 0 
( -0.0117074 -0.00641166 0.00409086 ) 0 
( -0.00179781 -0.00928772 0.00187517 ) 0 
( -0.00179799 -0.0132286 0.00658275 ) 0 
( -0.0120004 -0.00487632 0.00127231 ) 0 
( -0.00888764 -0.00697246 0.00204394 ) 0 
( -0.00169879 -0.0122215 0.00217987 ) 0 
( -0.00272882 -0.0130697 0.00388652 ) 0 
( -0.00170191 -0.00247396 0.00663379 ) 0 
( -0.000235973 -0.00292719 0.00773368 ) 0 
( -0.0128787 -0.00346804 0.00310257 ) 0 
( -0.000562713 -0.0133393 0.0030837 ) 0 
( -0.0026686 -0.00287049 0.00434883 ) 0 
( -0.00795547 -0.00422686 0.00608207 ) 0 
( -0.00452195 -0.00722944 0.00414272 ) 0 
( -0.00349311 -0.00826782 0.00528054 ) 0 
( -0.0111865 -0.00324776 0.00479892 ) 0 
( -0.0103099 -0.00484001 0.000497157 ) 0 
( -0.00574892 -0.000983921 0.00569224 ) 0 
( -0.00818051 -0.00682465 0.00691326 ) 0 
( -0.0119968 -0.00586166 0.00691807 ) 0 
( -0.00309391 -0.0119083 0.00520285 ) 0 
( -0.00673319 -0.00936092 0.00575333 ) 0 
( -0.00345649 -0.00266297 0.00377226 ) 0 
( -0.00897782 -0.000928105 0.00129495 ) 0 
( -0.00393419 -0.00217324 0.00802274 ) 0 
( -0.00209418 -0.00333632 0.0069523 ) 0 
( -0.00511909 -0.0102138 0.00542685 ) 0 
( -0.00222046 -0.00821262 0.005426 ) 0 
( -0.00859294 -0.00321846 0.00381386 ) 0 
( -0.00644627 -0.00222544 0.00233515 ) 0 
( -0.0103057 -0.00495339 0.00471015 ) 0 
( -0.00316581 -0.00570649 0.00687409 ) 0 
( -0.000699032 -0.000423591 0.00549832 ) 0 
( -0.00780876 -0.00354133 0.00494193 ) 0 
( -0.00579117 -0.00542785 0.00604518 ) 0 
( -0.0101008 -0.00872941 0.00619363 ) 0 
( -0.0088429 -0.000805452 0.00300648 ) 0 
( -0.0129232 -0.00335413 0.00211069 ) 0 
( -0.0122266 -0.00312634 0.0013198 ) 0 
( -0.00631305 -0.0117636 0.000499179 ) 0 
( -0.00117441 -0.00104963 0.000852898 ) 0 
( -0.00148664 -0.0132655 0.000499786 ) 0 
( -0.00228165 -0.00305606 0.00136336 ) 0 
( -0.00807987 -0.00118045 0.00500713 ) 0 
( -0.00543878 -0.00930252 0.00600864 ) 0 
( -0.00590892 -0.008423 0.00237139 ) 0 
( -0.00618947 -0.0039974 0.00220452 ) 0 
( -0.00475923 -0.00262655 0.0076895 ) 0 
( -0.00811324 -0.00947664 0.000930928 ) 0 
( -0.00281969 -0.0110996 0.0059873 ) 0 
( -0.00301101 -0.00428449 0.00597746 ) 0 
( -0.00541193 -0.012046 0.00417626 ) 0 
( -0.00794912 -0.0011766 0.00750654 ) 0 
( -0.00345876 -0.000288766 0.00636708 ) 0 
( -0.000576923 -0.0080464 0.00760593 ) 0 
( -0.0124879 -0.000647018 0.00518285 ) 0 
( -0.00378806 -0.00657526 0.00457098 ) 0 
( -0.00359032 -0.00582705 0.0059786 ) 0 
( -0.00554566 -0.0121454 0.00319041 ) 0 
( -0.00840093 -0.00340331 0.00573433 ) 0 
( -0.00564704 -0.00494997 0.000499649 ) 0 
( -0.00948564 -0.00842715 0.00222906 ) 0 
( -0.00230502 -0.00664157 0.00138675 ) 0 
( -0.00546072 -0.00419848 0.00154821 ) 0 
( -0.00937855 -0.00168194 0.000498781 ) 0 
( -0.00740552 -0.00499831 0.00248671 ) 0 
( -0.011275 -0.00530111 0.00429623 ) 0 
( -0.00839872 -0.00432653 0.000498269 ) 0 
( -0.0005416 -0.00126918 0.00741023 ) 0 
( -0.00391687 -0.00409088 0.00743669 ) 0 
( -0.000102976 -0.00620617 0.00681899 ) 0 
( -0.000963463 -0.0126449 0.00683114 ) 0 
( -2.18003e-05 -0.0102872 0.00555848 ) 0 
( -0.00548211 -0.00270656 0.0039912 ) 0 
( -0.00998808 -0.0042843 0.00404133 ) 0 
( -0.0105979 -0.00682777 0.00049978 ) 0 
( -0.000182637 -0.0078743 0.000498854 ) 0 
( -0.0105772 -0.00814755 0.0046565 ) 0 
( -0.00667223 -0.00123126 0.00598335 ) 0 
( -0.00322518 -0.00363234 0.0038443 ) 0 
( -0.00769958 -0.00799963 0.00576981 ) 0 
( -0.0080747 -0.00931689 0.00422218 ) 0 
( -0.00575877 -0.00889939 0.000498352 ) 0 
( -0.0126868 -0.00405751 0.00500209 ) 0 
( -0.0073754 -0.00342022 0.00583188 ) 0 
( -0.00561115 -0.00711881 0.000499401 ) 0 