/*--------------------------------*- C++ -*----------------------------------*\
| =========                 |                                                 |
| \\      /  F ield         | OpenFOAM: The Open Source CFD Toolbox           |
|  \\    /   O peration     | Version:  2506                                  |
|   \\  /    A nd           | Website:  www.openfoam.com                      |
|    \\/     M anipulation  |                                                 |
\*---------------------------------------------------------------------------*/
FoamFile
{
    version     2.0;
    format      ascii;
    arch        "LSB;label=32;scalar=64";
    class       volScalarField;
    location    "0.09";
    object      Ksl;
}
// * * * * * * * * * * * * * * * * * * * * * * * * * * * * * * * * * * * * * //

dimensions      [1 -3 -1 0 0 0 0];

internalField   nonuniform List<scalar> 
1152
(
208190
205673
79154.3
233318
112052
171759
231668
119224
104702
186133
213191
161653
253693
222420
149950
100956
155635
89561.2
220562
227520
186998
178371
148293
190744
203289
153035
103083
187551
122049
81334.1
152634
218994
261513
368420
171542
139821
336258
262386
171895
290819
267813
279972
301561
252604
172157
211450
304411
200225
278819
268163
324164
158745
248993
248208
345689
244713
402486
192356
240501
297247
272760
188999
189813
211414
133726
549798
151803
410993
224231
348055
246473
288298
220610
233929
343156
214284
317777
386974
185916
234599
218520
122502
235054
316994
164718
231919
194084
173574
306763
207472
328542
192148
143677
191861
283340
279608
67625.2
117374
89182.1
54007.6
88769.2
134401
73603.8
42682.5
70344.4
57169.8
83361.1
63224.6
55157
45680.9
46711.9
61661.5
0
0
0
0
0
0
0
0
0
0
0
0
0
0
0
0
0
0
0
0
0
0
0
0
0
0
0
0
0
0
0
0
0
0
0
0
0
0
0
0
0
0
0
0
0
0
0
0
0
0
0
0
0
0
0
0
0
0
0
0
0
0
0
0
0
0
0
0
0
0
0
0
0
0
0
0
0
0
0
0
0
0
0
0
0
0
0
0
0
0
0
0
0
0
0
0
0
0
0
0
0
0
0
0
0
0
0
0
0
0
0
0
0
0
0
0
0
0
0
0
0
0
0
0
0
0
0
0
0
0
0
0
0
0
0
0
0
0
0
0
0
0
0
0
0
0
0
0
0
0
0
0
0
0
0
0
0
0
0
0
0
0
0
0
0
0
0
0
0
0
0
0
0
0
0
0
0
0
0
0
0
0
0
0
0
0
0
0
0
0
0
0
0
0
0
0
0
0
0
0
0
0
0
0
0
0
0
0
0
0
0
0
0
0
0
0
0
0
0
0
0
0
0
0
0
0
0
0
0
0
0
0
0
0
0
0
0
0
0
0
0
0
0
0
0
0
0
0
0
0
0
0
0
0
0
0
0
0
0
0
0
0
0
0
0
0
0
0
0
0
0
0
144265
152929
200505
236022
187713
255080
180922
188028
173925
222161
134051
202912
179390
173144
151672
169447
194122
159854
161532
378533
141290
126195
192065
209308
159571
166795
160051
162556
221952
191625
191826
141924
369892
302483
196020
114055
313781
260646
256032
309050
280662
151151
251745
351479
224979
230146
204253
167294
219820
280959
254966
242602
397116
158092
239579
300357
292897
219617
150791
207187
264880
233205
150935
189922
175255
197171
174157
429466
180423
306681
241554
228758
179459
197032
285060
299365
263983
196641
184402
116259
156550
220470
142687
321896
356698
252706
197227
191642
138986
271454
154741
284436
367353
248062
164660
173933
55417.4
38506
49603.8
135866
76906.8
68544.7
36916.8
34716.7
38502.7
77138.2
63690.9
79862.3
54489.3
54894.5
155286
55215.4
0
0
0
0
0
0
0
0
0
0
0
0
0
0
0
0
0
0
0
0
0
0
0
0
0
0
0
0
0
0
0
0
0
0
0
0
0
0
0
0
0
0
0
0
0
0
0
0
0
0
0
0
0
0
0
0
0
0
0
0
0
0
0
0
0
0
0
0
0
0
0
0
0
0
0
0
0
0
0
0
0
0
0
0
0
0
0
0
0
0
0
0
0
0
0
0
0
0
0
0
0
0
0
0
0
0
0
0
0
0
0
0
0
0
0
0
0
0
0
0
0
0
0
0
0
0
0
0
0
0
0
0
0
0
0
0
0
0
0
0
0
0
0
0
0
0
0
0
0
0
0
0
0
0
0
0
0
0
0
0
0
0
0
0
0
0
0
0
0
0
0
0
0
0
0
0
0
0
0
0
0
0
0
0
0
0
0
0
0
0
0
0
0
0
0
0
0
0
0
0
0
0
0
0
0
0
0
0
0
0
0
0
0
0
0
0
0
0
0
0
0
0
0
0
0
0
0
0
0
0
0
0
0
0
0
0
0
0
0
0
0
0
0
0
0
0
0
0
0
0
0
0
0
0
0
0
0
0
0
0
0
0
0
0
0
0
0
0
0
0
0
0
206246
157475
207777
227866
146135
196787
213557
136044
137900
199197
160431
238685
219885
192658
280033
176030
213531
170838
98375.9
188140
148042
162941
132806
135720
266209
129457
125305
225920
227000
125540
145011
139682
258217
283500
317290
183413
257368
269220
228001
245640
157149
322168
126188
215735
301219
165975
421207
212689
296197
256723
215769
214817
224299
213574
198386
170328
129769
219167
194027
143635
275205
232859
230291
154814
256464
194167
258722
192076
259494
311953
231724
245395
244131
358327
202173
195152
137294
263448
236580
181066
157454
159042
213107
168044
260555
214383
190670
223064
139149
302603
192494
286452
224310
284944
222744
186717
45491.5
50166.3
69589.2
57630.5
43931.4
42079.2
29240.7
34980.5
35235.8
63171.2
47974.4
55746.8
53288.5
82523.4
87368.9
52276.3
0
0
0
0
0
0
0
0
0
0
0
0
0
0
0
0
0
0
0
0
0
0
0
0
0
0
0
0
0
0
0
0
0
0
0
0
0
0
0
0
0
0
0
0
0
0
0
0
0
0
0
0
0
0
0
0
0
0
0
0
0
0
0
0
0
0
0
0
0
0
0
0
0
0
0
0
0
0
0
0
0
0
0
0
0
0
0
0
0
0
0
0
0
0
0
0
0
0
0
0
0
0
0
0
0
0
0
0
0
0
0
0
0
0
0
0
0
0
0
0
0
0
0
0
0
0
0
0
0
0
0
0
0
0
0
0
0
0
0
0
0
0
0
0
0
0
0
0
0
0
0
0
0
0
0
0
0
0
0
0
0
0
0
0
0
0
0
0
0
0
0
0
0
0
0
0
0
0
0
0
0
0
0
0
0
0
0
0
0
0
0
0
0
0
0
0
0
0
0
0
0
0
0
0
0
0
0
0
0
0
0
0
0
0
0
0
0
0
0
0
0
0
0
0
0
0
0
0
0
0
0
0
0
0
0
0
0
0
0
0
0
0
0
0
0
0
0
0
0
0
0
0
0
0
0
0
0
0
0
0
0
0
0
0
0
0
0
0
0
0
0
0
)
;

boundaryField
{
    inlet
    {
        type            zeroGradient;
    }
    outlet
    {
        type            zeroGradient;
    }
    wall
    {
        type            zeroGradient;
    }
    procBoundary3to1
    {
        type            processor;
        value           nonuniform List<scalar> 
192
(
132577
224840
262830
258773
174998
159369
160030
136168
245787
429705
170784
333330
188188
186125
224436
248861
298748
134496
326346
121092
331243
247220
269390
215842
350193
117664
167560
60225.6
0
61447.1
740.591
0
0
0
0
0
0
0
0
0
0
0
0
0
0
0
0
0
0
0
0
0
0
0
0
0
0
0
0
0
0
0
0
0
0
0
0
0
0
0
0
0
0
0
0
0
0
0
0
0
0
0
0
0
0
0
0
0
0
0
0
0
0
0
0
0
137427
287453
118154
128472
151357
115563
199703
140523
178220
212939
177075
280279
247225
271384
185313
294932
223851
225993
186892
259953
303742
230386
260258
302187
114149
51705.5
84667.7
82359
0
0
0
0
0
0
0
0
0
0
0
0
0
0
0
0
0
0
0
0
0
0
0
0
0
0
0
0
0
0
0
0
0
0
0
0
0
0
0
0
0
0
0
0
0
0
0
0
0
0
0
0
0
0
0
0
0
0
0
0
0
0
0
0
0
0
0
0
)
;
    }
    procBoundary3to2
    {
        type            processor;
        value           nonuniform List<scalar> 
192
(
160239
164215
270178
148510
145960
201340
156473
203238
212617
235901
390701
378841
198289
298042
176576
287362
283747
235198
216059
184132
210666
367419
219821
460263
97860.2
98346.5
75856.9
49355
0
0
0
0
0
0
0
0
0
0
0
0
0
0
0
0
0
0
0
0
0
0
0
0
0
0
0
0
0
0
0
0
0
0
0
0
0
0
0
0
0
0
0
0
0
0
0
0
0
0
0
0
0
0
0
0
0
0
0
0
0
0
0
0
0
0
0
0
139252
199560
162222
141128
182646
241473
164742
149821
123889
182799
256308
182847
234460
302893
144432
163697
374733
285598
295241
176968
447890
165344
351338
156817
80154.1
82886.6
84129.8
137896
0
0
0
384.342
0
0
0
0
0
0
0
0
0
0
0
0
0
0
0
0
0
0
0
0
0
0
0
0
0
0
0
0
0
0
0
0
0
0
0
0
0
0
0
0
0
0
0
0
0
0
0
0
0
0
0
0
0
0
0
0
0
0
0
0
0
0
0
0
)
;
    }
}


// ************************************************************************* //
