/*--------------------------------*- C++ -*----------------------------------*\
| =========                 |                                                 |
| \\      /  F ield         | OpenFOAM: The Open Source CFD Toolbox           |
|  \\    /   O peration     | Version:  2506                                  |
|   \\  /    A nd           | Website:  www.openfoam.com                      |
|    \\/     M anipulation  |                                                 |
\*---------------------------------------------------------------------------*/
FoamFile
{
    version     2.0;
    format      ascii;
    arch        "LSB;label=32;scalar=64";
    class       volVectorField;
    location    "0.09";
    object      U;
}
// * * * * * * * * * * * * * * * * * * * * * * * * * * * * * * * * * * * * * //

dimensions      [0 1 -1 0 0 0 0];

internalField   nonuniform List<vector> 
1152
(
(0.000825317 0.000296787 0.0111483)
(0.000582225 0.000782024 0.0107157)
(-0.00683019 0.00246903 0.0348691)
(-0.00240379 0.000147269 0.0110189)
(0.000890641 0.0013289 0.0231759)
(-0.000394967 -0.000533969 0.0144138)
(4.44023e-05 0.000384089 0.0102867)
(0.000351347 0.00140079 0.0227722)
(0.00324117 6.75932e-05 0.0256878)
(0.00172423 0.00220098 0.0134061)
(0.000191306 0.000549524 0.0110265)
(-0.00150707 -0.000140854 0.0170096)
(0.00249314 -0.000903185 0.00889624)
(0.000173033 -0.000608583 0.00949591)
(-0.00242169 -0.00276419 0.0169454)
(-0.00371226 -0.00556347 0.028372)
(0.000263682 -0.00131987 0.0452286)
(-0.000497175 -0.00128515 0.0673079)
(0.00537171 -0.00159423 0.0323143)
(0.00349661 -0.00193872 0.0331895)
(0.00154661 -0.00134009 0.0379945)
(0.00502527 -9.32255e-06 0.0408334)
(0.00183607 0.00144394 0.0472025)
(0.000912147 -0.00261758 0.0407725)
(0.000864227 0.00301307 0.0342025)
(0.00408495 0.00105973 0.0457369)
(0.00201158 -0.000114512 0.064471)
(0.00244815 0.00175671 0.0406975)
(0.00328343 0.00278508 0.0567495)
(0.000776413 0.00123407 0.0764349)
(-0.000451954 0.00222083 0.0479)
(0.00280587 0.00550546 0.0349323)
(-0.00269801 -0.00153126 0.0375105)
(0.000984166 -0.00154213 0.0290473)
(0.00942688 -0.00195877 0.0530374)
(0.00240096 0.00109363 0.0599777)
(-0.000314868 -0.000611284 0.031392)
(0.000287379 0.00213228 0.035398)
(0.00280604 -0.00337491 0.0494137)
(0.00127316 -0.000474875 0.0333135)
(-0.000601263 -0.000919456 0.0358855)
(-0.000320453 -0.00071929 0.0332663)
(0.00176872 0.00145891 0.0314686)
(0.00458838 0.0017043 0.0363068)
(-0.00255096 0.00241767 0.0501151)
(0.00259743 0.000582839 0.0410918)
(0.00397105 0.00328437 0.0320873)
(0.00319183 0.00236666 0.0448207)
(0.000678255 0.000982031 0.0395763)
(-0.00204834 -0.00152817 0.04256)
(-0.00125024 -0.000583196 0.0343378)
(-0.000136789 -0.00328264 0.0596096)
(-0.000522835 -0.00134534 0.0427321)
(-0.00267917 -0.00025565 0.0429845)
(-0.000425822 0.000463242 0.0334835)
(0.00110217 0.00214175 0.0439445)
(0.000121947 -0.0016491 0.0295886)
(-0.00120627 -0.000543283 0.0534005)
(0.000557004 0.00272221 0.0446775)
(0.000450148 0.000398769 0.0361496)
(-0.000435681 -0.000116532 0.0402783)
(0.00291066 0.0013788 0.0559742)
(0.00121732 0.00181283 0.0535864)
(0.000786281 -0.00213489 0.0463404)
(0.0053708 0.00512344 0.0683813)
(-1.14639e-05 0.000735028 0.0242815)
(-0.00679747 0.00474513 0.0633131)
(0.000602375 0.00135879 0.0300239)
(0.00166177 0.000820352 0.0436203)
(0.00022675 -0.000812547 0.0320479)
(0.00077498 -0.000207385 0.0434241)
(-0.000834715 0.00239828 0.0391478)
(0.00116178 0.00168187 0.045768)
(-0.000836845 0.00027535 0.0443441)
(0.000527293 -0.00115103 0.0339578)
(-0.000218845 -0.0022033 0.0488496)
(0.00057618 0.000173204 0.0346399)
(-0.0013252 0.000123415 0.0307093)
(-0.00096546 0.00139811 0.0558466)
(4.13034e-05 -0.00112784 0.0450493)
(-0.00131488 0.002775 0.0334585)
(0.00120897 0.0073675 0.0499409)
(0.00492596 0.00325405 0.0329812)
(0.00191406 0.00275817 0.0282639)
(-0.00113307 0.0048596 0.0404326)
(0.00189456 0.00360697 0.0319564)
(0.00375714 0.00457926 0.035985)
(0.00299584 -0.000951703 0.0392027)
(0.000388745 0.00151761 0.026938)
(0.00128927 0.00357689 0.0348282)
(0.000711804 0.000999743 0.0267357)
(-0.000589784 -0.000165869 0.0363452)
(-0.00227983 -0.000810971 0.0426954)
(0.000667011 0.000781638 0.0367011)
(-0.000980297 -0.0014872 0.0297017)
(-0.000952022 0.000111894 0.0292209)
(-0.000597541 -0.00141254 0.0371612)
(-0.000234533 0.000800462 0.0275409)
(-0.00060105 -0.00111985 0.0302706)
(-0.0003426 0.00145032 0.0221839)
(-2.26893e-05 0.000915858 0.0284018)
(-0.000104739 0.000196057 0.0229889)
(-0.00102402 0.000853837 0.0275899)
(-0.000694133 0.000992193 0.0275452)
(-0.000448521 -0.000369701 0.0258973)
(-8.2096e-06 -0.000825182 0.0271977)
(0.000119884 0.0012071 0.0207869)
(-0.000521752 9.03303e-05 0.0250791)
(-0.000851751 -0.000644454 0.0278757)
(-0.00102461 -0.000315894 0.0259988)
(0.000218951 -0.00113824 0.0257947)
(0.000710246 0.000843786 0.0233819)
(-0.000635286 0.00444701 0.023614)
(0.000455047 -0.00302353 0.0105517)
(0.00167185 0.0058374 0.00919329)
(0.0042591 0.00299461 0.0247442)
(0.000512473 0.00381618 0.0138343)
(0.000653216 0.00331841 0.000677486)
(0.000939566 0.0043947 0.0158683)
(0.00253257 0.00275591 0.0283121)
(0.000781823 0.00266547 0.02056)
(0.000624962 0.00242651 0.020122)
(0.000913382 0.00290285 0.0100291)
(0.00188181 0.0023068 0.0227314)
(0.000978425 0.00208809 0.0266175)
(0.000461724 0.00203458 0.0287655)
(0.000786931 0.00237517 0.0296115)
(0.00159937 0.00202152 0.0216619)
(-0.000267356 -0.00352882 0.0189525)
(0.000279665 0.00232278 0.0165795)
(-0.000773303 -0.004019 0.0175117)
(-0.00248282 -0.00174088 0.0192334)
(-0.000552532 -0.00162679 0.017119)
(-0.000561074 -0.000887159 0.0155227)
(-0.00153098 -0.00218311 0.0177793)
(-0.00161566 -0.000957402 0.0192971)
(-0.000756799 -0.00157793 0.0177191)
(-0.000500391 -0.00171092 0.0175745)
(-0.000973683 -0.00172234 0.0172423)
(-0.00117858 -0.000632946 0.0181223)
(-0.00123722 -0.000950446 0.0183353)
(-0.000818239 -0.00102599 0.0189249)
(-0.000451796 -0.00132285 0.0193346)
(-0.000219773 -0.00085205 0.0176588)
(0.000106705 -0.00184553 0.0167525)
(-0.000195704 -0.000952877 0.0172371)
(-0.00114614 -0.00228171 0.0165363)
(-0.00185258 -0.00143301 0.0186232)
(-0.000354631 -0.00136143 0.0174056)
(-0.000616948 -0.00137167 0.017549)
(-0.00122053 -0.00173332 0.0180763)
(-0.00131691 -0.00105503 0.0193353)
(-0.000620997 -0.00130559 0.0183796)
(-0.000626048 -0.00143269 0.0186795)
(-0.000859373 -0.0013799 0.0189361)
(-0.000910705 -0.000768054 0.0195792)
(-0.000913008 -0.000896971 0.0191605)
(-0.000717883 -0.000931611 0.0197142)
(-0.000524285 -0.000976549 0.0201052)
(-0.000336716 -0.000675703 0.0199871)
(-9.90296e-06 -0.000844069 0.0169986)
(-0.000276081 -0.000805237 0.0171463)
(-0.000710809 -0.0011271 0.0171239)
(-0.000998943 -0.00091305 0.018077)
(-0.000237164 -0.000837454 0.0174387)
(-0.000456628 -0.000923006 0.0175878)
(-0.000739968 -0.00105033 0.0178825)
(-0.000826172 -0.000840363 0.0185164)
(-0.0003996 -0.000829839 0.0179873)
(-0.000509131 -0.000914339 0.0182018)
(-0.000639573 -0.000920949 0.0184294)
(-0.000659069 -0.000723841 0.0187894)
(-0.000545501 -0.000630418 0.0184288)
(-0.000556671 -0.000668723 0.0187269)
(-0.00053768 -0.000687292 0.0189658)
(-0.000461839 -0.000618137 0.0190577)
(-4.75845e-05 -0.000436801 0.0175932)
(-0.000224425 -0.000496054 0.0176643)
(-0.000428236 -0.000591353 0.0177516)
(-0.000551347 -0.000548234 0.0181357)
(-0.000161599 -0.000501242 0.0178246)
(-0.000307051 -0.000566697 0.0179272)
(-0.000447078 -0.00061538 0.0180968)
(-0.000498308 -0.000555038 0.0183937)
(-0.000250754 -0.000505469 0.0181024)
(-0.000347413 -0.000556438 0.0182353)
(-0.000422371 -0.000566728 0.0183998)
(-0.000432135 -0.000503065 0.0186147)
(-0.000323463 -0.000415587 0.0183356)
(-0.000372215 -0.000442122 0.0184997)
(-0.000388636 -0.000445061 0.0186692)
(-0.000352474 -0.000420236 0.0188185)
(-5.35074e-05 -0.000237852 0.0179227)
(-0.00015562 -0.00028298 0.0179643)
(-0.000254673 -0.000324743 0.0180411)
(-0.000307948 -0.0003238 0.0182154)
(-0.000111956 -0.000292172 0.0180492)
(-0.000198156 -0.000332885 0.0181117)
(-0.000269654 -0.000357535 0.0182134)
(-0.000295227 -0.000343632 0.0183657)
(-0.000159737 -0.000301251 0.0181959)
(-0.000223974 -0.000331428 0.0182755)
(-0.000267141 -0.000340265 0.0183805)
(-0.000271364 -0.000320546 0.0185076)
(-0.000197197 -0.000260368 0.0183255)
(-0.000238761 -0.000277117 0.0184193)
(-0.000256923 -0.000278203 0.0185257)
(-0.000239155 -0.00026801 0.0186331)
(-4.56426e-05 -0.000134777 0.018106)
(-0.000101321 -0.000162623 0.018132)
(-0.000149837 -0.000184747 0.0181835)
(-0.00017326 -0.000192193 0.0182704)
(-7.65944e-05 -0.000170419 0.0181753)
(-0.000124739 -0.000194277 0.0182136)
(-0.000161104 -0.00020859 0.0182746)
(-0.000172691 -0.000207909 0.0183569)
(-0.000102408 -0.00017866 0.0182553)
(-0.000140357 -0.000196104 0.0183031)
(-0.000163903 -0.000202599 0.0183673)
(-0.000164649 -0.000196831 0.0184423)
(-0.000122308 -0.000159547 0.0183287)
(-0.000149327 -0.000169502 0.0183837)
(-0.000161233 -0.00017037 0.0184489)
(-0.000151052 -0.000165219 0.0185177)
(-3.51646e-05 -7.961e-05 0.0182092)
(-6.45659e-05 -9.59437e-05 0.0182259)
(-8.84438e-05 -0.000108852 0.0182574)
(-9.88044e-05 -0.000115874 0.018303)
(-5.21554e-05 -0.000101081 0.0182477)
(-7.80361e-05 -0.000114908 0.0182713)
(-9.62361e-05 -0.000123619 0.0183074)
(-0.000100901 -0.000125739 0.0183529)
(-6.64047e-05 -0.000107051 0.0182923)
(-8.73502e-05 -0.000117052 0.0183213)
(-9.93677e-05 -0.000121381 0.0183597)
(-9.83067e-05 -0.000119837 0.0184034)
(-7.72281e-05 -9.77605e-05 0.0183346)
(-9.26788e-05 -0.000103426 0.0183673)
(-9.88755e-05 -0.000103999 0.0184066)
(-9.22034e-05 -0.000101002 0.0184483)
(-2.58543e-05 -4.89399e-05 0.0182661)
(-4.10646e-05 -5.84664e-05 0.0182769)
(-5.27898e-05 -6.61795e-05 0.0182956)
(-5.72248e-05 -7.11504e-05 0.0183205)
(-3.54565e-05 -6.13188e-05 0.0182879)
(-4.8981e-05 -6.93639e-05 0.0183027)
(-5.78541e-05 -7.46851e-05 0.0183241)
(-5.92704e-05 -7.67564e-05 0.0183498)
(-4.34878e-05 -6.51665e-05 0.0183135)
(-5.45088e-05 -7.09099e-05 0.0183313)
(-6.02e-05 -7.3635e-05 0.0183542)
(-5.84634e-05 -7.32947e-05 0.0183797)
(-4.94827e-05 -6.03787e-05 0.0183383)
(-5.76233e-05 -6.35355e-05 0.0183582)
(-6.02344e-05 -6.3846e-05 0.0183817)
(-5.55218e-05 -6.19907e-05 0.0184065)
(-1.8546e-05 -3.11245e-05 0.0182971)
(-2.63488e-05 -3.67269e-05 0.0183041)
(-3.20205e-05 -4.13364e-05 0.0183153)
(-3.37254e-05 -4.45056e-05 0.0183293)
(-2.41053e-05 -3.81345e-05 0.0183098)
(-3.10185e-05 -4.28237e-05 0.0183191)
(-3.51696e-05 -4.60347e-05 0.0183319)
(-3.51745e-05 -4.75064e-05 0.0183467)
(-2.87064e-05 -4.04002e-05 0.0183249)
(-3.4281e-05 -4.37033e-05 0.0183359)
(-3.6707e-05 -4.53544e-05 0.0183497)
(-3.49187e-05 -4.53127e-05 0.0183646)
(-3.20711e-05 -3.77268e-05 0.0183397)
(-3.60766e-05 -3.94622e-05 0.0183519)
(-3.68041e-05 -3.95948e-05 0.0183661)
(-3.33894e-05 -3.84215e-05 0.0183807)
(-1.30985e-05 -2.03156e-05 0.0183139)
(-1.71245e-05 -2.36524e-05 0.0183185)
(-1.97752e-05 -2.6395e-05 0.0183253)
(-2.02481e-05 -2.83128e-05 0.0183334)
(-1.6386e-05 -2.42877e-05 0.0183216)
(-1.98579e-05 -2.70082e-05 0.0183276)
(-2.16659e-05 -2.89115e-05 0.0183353)
(-2.11482e-05 -2.98344e-05 0.018344)
(-1.90566e-05 -2.54995e-05 0.0183307)
(-2.17651e-05 -2.73926e-05 0.0183376)
(-2.26019e-05 -2.836e-05 0.018346)
(-2.10393e-05 -2.83593e-05 0.0183548)
(-2.09628e-05 -2.38666e-05 0.0183397)
(-2.2782e-05 -2.48039e-05 0.0183473)
(-2.26533e-05 -2.48286e-05 0.0183559)
(-2.01764e-05 -2.40756e-05 0.0183646)
(-9.13772e-06 -1.34933e-05 0.0183229)
(-1.12277e-05 -1.5498e-05 0.0183261)
(-1.23973e-05 -1.71221e-05 0.0183303)
(-1.23569e-05 -1.82471e-05 0.0183351)
(-1.11099e-05 -1.57411e-05 0.0183278)
(-1.28159e-05 -1.73142e-05 0.0183317)
(-1.3503e-05 -1.84246e-05 0.0183365)
(-1.28732e-05 -1.8964e-05 0.0183417)
(-1.26754e-05 -1.63171e-05 0.0183334)
(-1.39209e-05 -1.73985e-05 0.0183379)
(-1.40454e-05 -1.795e-05 0.018343)
(-1.27954e-05 -1.79354e-05 0.0183483)
(-1.37636e-05 -1.52429e-05 0.0183391)
(-1.44877e-05 -1.57398e-05 0.0183439)
(-1.40501e-05 -1.57108e-05 0.0183492)
(-1.2272e-05 -1.52241e-05 0.0183544)
(-6.28635e-06 -9.02667e-06 0.0183278)
(-7.3384e-06 -1.02273e-05 0.01833)
(-7.8176e-06 -1.11828e-05 0.0183327)
(-7.61001e-06 -1.18285e-05 0.0183356)
(-7.47087e-06 -1.02542e-05 0.018331)
(-8.26804e-06 -1.11737e-05 0.0183336)
(-8.45742e-06 -1.1819e-05 0.0183367)
(-7.89173e-06 -1.21221e-05 0.0183398)
(-8.39282e-06 -1.0491e-05 0.0183346)
(-8.90849e-06 -1.1113e-05 0.0183376)
(-8.76246e-06 -1.14231e-05 0.0183408)
(-7.82304e-06 -1.13966e-05 0.018344)
(-9.01815e-06 -9.75833e-06 0.0183383)
(-9.22362e-06 -1.00206e-05 0.0183414)
(-8.74296e-06 -9.97482e-06 0.0183447)
(-7.49024e-06 -9.66088e-06 0.0183479)
(-4.23471e-06 -5.99227e-06 0.0183305)
(-4.70865e-06 -6.69707e-06 0.0183321)
(-4.88909e-06 -7.25118e-06 0.0183338)
(-4.66976e-06 -7.61407e-06 0.0183357)
(-4.93456e-06 -6.60238e-06 0.0183327)
(-5.26299e-06 -7.15103e-06 0.0183345)
(-5.26051e-06 -7.52818e-06 0.0183365)
(-4.82029e-06 -7.6969e-06 0.0183385)
(-5.47402e-06 -6.6817e-06 0.0183351)
(-5.63703e-06 -7.04456e-06 0.0183371)
(-5.43024e-06 -7.21924e-06 0.0183392)
(-4.7629e-06 -7.19195e-06 0.0183412)
(-5.83334e-06 -6.18328e-06 0.0183375)
(-5.81464e-06 -6.32436e-06 0.0183396)
(-5.40535e-06 -6.28207e-06 0.0183417)
(-4.54948e-06 -6.08251e-06 0.0183437)
(-2.75993e-06 -3.84864e-06 0.0183321)
(-2.92711e-06 -4.24583e-06 0.0183332)
(-2.9838e-06 -4.55654e-06 0.0183344)
(-2.80809e-06 -4.75371e-06 0.0183357)
(-3.15763e-06 -4.10739e-06 0.0183336)
(-3.2555e-06 -4.43276e-06 0.0183349)
(-3.1972e-06 -4.65073e-06 0.0183362)
(-2.8871e-06 -4.74423e-06 0.0183376)
(-3.46405e-06 -4.12141e-06 0.0183353)
(-3.47136e-06 -4.33128e-06 0.0183367)
(-3.29008e-06 -4.42854e-06 0.0183381)
(-2.84397e-06 -4.40679e-06 0.0183394)
(-3.66579e-06 -3.7944e-06 0.018337)
(-3.5713e-06 -3.87049e-06 0.0183384)
(-3.2686e-06 -3.83816e-06 0.0183398)
(-2.71073e-06 -3.71443e-06 0.0183411)
(-1.73469e-06 -2.2966e-06 0.0183329)
(-1.76724e-06 -2.50599e-06 0.0183338)
(-1.76692e-06 -2.66876e-06 0.0183347)
(-1.63849e-06 -2.76934e-06 0.0183355)
(-1.94552e-06 -2.38769e-06 0.0183341)
(-1.94699e-06 -2.56572e-06 0.0183351)
(-1.88089e-06 -2.68284e-06 0.018336)
(-1.67611e-06 -2.73195e-06 0.0183369)
(-2.10708e-06 -2.37624e-06 0.0183354)
(-2.06239e-06 -2.48771e-06 0.0183364)
(-1.92779e-06 -2.53731e-06 0.0183374)
(-1.647e-06 -2.52282e-06 0.0183383)
(-2.21176e-06 -2.17654e-06 0.0183366)
(-2.11419e-06 -2.21211e-06 0.0183377)
(-1.91243e-06 -2.18899e-06 0.0183386)
(-1.56991e-06 -2.11725e-06 0.0183395)
(-1.16272e-06 -1.29962e-06 0.0183334)
(-1.16059e-06 -1.40244e-06 0.018334)
(-1.12376e-06 -1.4789e-06 0.0183347)
(-1.01887e-06 -1.52282e-06 0.0183354)
(-1.26515e-06 -1.33947e-06 0.0183344)
(-1.24171e-06 -1.41915e-06 0.0183351)
(-1.16956e-06 -1.46712e-06 0.0183358)
(-1.02307e-06 -1.47963e-06 0.0183365)
(-1.33869e-06 -1.31701e-06 0.0183354)
(-1.288e-06 -1.35928e-06 0.0183361)
(-1.17806e-06 -1.3684e-06 0.0183369)
(-9.89349e-07 -1.34269e-06 0.0183375)
(-1.38102e-06 -1.20084e-06 0.0183363)
(-1.29918e-06 -1.20032e-06 0.0183371)
(-1.15084e-06 -1.16717e-06 0.0183378)
(-9.25928e-07 -1.10534e-06 0.0183385)
(0.000737143 -0.00194244 0.01841)
(-0.000285064 -0.00425535 0.017172)
(-0.000869288 -0.00157161 0.0143558)
(0.000539138 -0.00161814 0.0120851)
(0.00102576 -0.00196611 0.0132554)
(-0.000616736 -0.0017973 0.00990011)
(-0.000352161 0.000245146 0.0151319)
(0.00132178 0.000682154 0.015793)
(-0.00173337 -0.00243633 0.0161075)
(0.000174654 -0.00159843 0.0129015)
(0.000950928 0.0010522 0.0217511)
(0.000758749 0.00183027 0.0131864)
(-0.00199084 -0.00148554 0.0168442)
(0.00141833 -0.000965065 0.0175774)
(0.00225846 -0.000557052 0.0173719)
(0.00121873 0.000744575 0.0170809)
(-0.000250854 -0.000376356 0.0389785)
(0.00363974 0.0014689 0.0447766)
(0.0047588 0.0008946 0.0461727)
(0.000966577 0.00285401 0.023189)
(0.00100085 8.86395e-05 0.0481446)
(0.00210091 0.00383483 0.0579599)
(0.000239212 0.000528702 0.0392014)
(0.00124546 -0.00145615 0.0354245)
(0.00187342 -7.72885e-05 0.0459576)
(0.00115753 -0.000943676 0.0465916)
(0.000655468 0.000521987 0.0475624)
(0.00202489 0.000304581 0.0468955)
(0.00181443 -0.000587389 0.0340151)
(0.00237504 -0.00179562 0.0397296)
(0.00178169 4.13893e-05 0.0391429)
(0.00190152 -0.000160981 0.0520012)
(0.000211327 -0.000795336 0.0274611)
(0.00175038 0.00201247 0.0312832)
(0.00468738 0.00205507 0.0449816)
(0.0026935 0.000415224 0.0678868)
(0.00102572 -0.00164957 0.0304613)
(0.0036861 0.00120975 0.034414)
(0.00180518 0.0026031 0.0351828)
(0.000410309 0.000975337 0.0299367)
(0.00160531 0.0019147 0.0328306)
(0.00559112 0.00130492 0.05478)
(0.00123983 0.00260583 0.035794)
(-0.000883259 0.00225088 0.0260929)
(0.00227023 0.00129581 0.0375347)
(0.00366469 -0.000623133 0.0370224)
(0.00150597 0.000710565 0.0412995)
(-0.00243623 0.00280975 0.0503317)
(0.00460202 0.00367673 0.0474988)
(-4.23385e-05 0.000341844 0.0382199)
(-0.00154676 0.00121337 0.0400925)
(-0.00107746 0.00127566 0.0396887)
(0.00131423 -0.000842314 0.0278196)
(-0.002071 -0.00325131 0.0589087)
(7.48637e-05 -0.000325121 0.040909)
(0.000305808 0.00328669 0.0328903)
(0.00145571 -0.00295549 0.0339895)
(-0.00113023 1.96292e-05 0.0423856)
(0.00225838 3.91679e-05 0.059684)
(0.0011103 0.00329672 0.0433945)
(0.00151519 -0.0020628 0.0351044)
(0.002738 0.000166046 0.0374028)
(0.0010956 -1.87729e-05 0.0569555)
(0.000177634 0.00264748 0.0471801)
(0.00358442 -0.00230402 0.0550236)
(-0.00113052 -0.00237539 0.0513708)
(-0.00145931 0.000247514 0.0562243)
(-0.0011825 0.000162055 0.0281008)
(-0.00115296 -0.000788395 0.0503052)
(0.000208442 -0.00228657 0.0344557)
(-0.000121467 -0.00386023 0.0398835)
(-0.00249854 -0.000507158 0.0418476)
(0.00339906 -0.00365496 0.0519193)
(-0.0016931 -0.0003686 0.0477526)
(-0.00110389 -0.00248259 0.0315322)
(-0.00111262 -0.00186283 0.0313227)
(0.000926837 -0.00167027 0.0340063)
(-0.000199251 0.000153718 0.0462608)
(-0.00163437 -0.00114309 0.0460763)
(-0.00082364 0.000679703 0.0720342)
(-0.000223769 -0.00154341 0.0413954)
(-0.000660339 -0.0006836 0.032351)
(-0.00194403 -0.00260045 0.0433657)
(0.00146501 -0.000559253 0.0269043)
(0.00111226 -0.00125104 0.0226273)
(0.000251229 -0.00264149 0.0295354)
(-0.00150128 -0.0053524 0.0329557)
(-0.00106585 -0.00353491 0.0341779)
(0.00047753 0.00134503 0.0421699)
(-0.00095035 -0.00301623 0.0268054)
(-0.00290107 -0.00978851 0.039277)
(-0.00259864 -0.00464411 0.0246305)
(0.00171696 0.000546386 0.0186408)
(-0.0027109 -0.00025969 0.0245142)
(-0.00591193 -0.00295846 0.0384479)
(-0.00184578 -0.00461332 0.0336469)
(-0.000854947 0.000286447 0.0300766)
(-0.000730196 0.000770513 0.0283364)
(0.000972539 -0.00251132 0.0292512)
(-0.000674822 -0.000128419 0.0199589)
(-0.000561403 -0.0016054 0.0236572)
(3.61231e-05 2.59038e-05 0.0226077)
(0.000331327 -0.00296233 0.030873)
(4.12448e-05 -0.00285861 0.0317578)
(0.000380598 -0.0020127 0.0337004)
(0.000386222 -0.000388888 0.0234897)
(0.00141442 -0.00176819 0.0289739)
(-0.000816602 -0.000148098 0.0232962)
(-0.000313019 0.000416535 0.018006)
(0.0022762 -0.000599032 0.0263379)
(0.00121335 -0.000250229 0.0198188)
(-0.00213174 0.000501036 0.0334764)
(0.000648725 0.0016479 0.0301984)
(0.000722483 0.00158579 0.0314712)
(0.000726743 0.00195485 0.0323232)
(0.00109318 0.00250055 0.0180146)
(0.000756963 0.00124414 0.0215918)
(0.000837629 0.0013112 0.0204146)
(0.000973537 0.00112177 0.03685)
(0.00118928 0.00257552 0.030632)
(0.00140645 0.000966806 0.0344668)
(0.000952047 0.000834334 0.0196648)
(0.00108593 9.6784e-05 0.0268216)
(0.000935928 0.00173419 0.029374)
(0.00226249 0.000482775 0.0231686)
(0.000544043 0.000160711 0.0264455)
(0.000901745 -0.000623371 0.00661537)
(0.000426945 0.000422709 0.0403293)
(-0.00128865 0.000145119 0.0185202)
(-0.00081591 0.000261322 0.018842)
(-0.000595092 -0.000253493 0.0194171)
(-0.000198789 -0.000805018 0.0178067)
(-0.00121595 0.000304936 0.0171359)
(-0.00100043 0.000962901 0.0171181)
(-0.000873874 0.000956063 0.0194799)
(-0.000384006 -0.000647095 0.0184524)
(-0.00107021 0.00073413 0.0180709)
(-0.000341504 0.00069527 0.0159311)
(-0.000944155 0.00194751 0.017405)
(-0.00097357 -0.00026443 0.0185626)
(-0.0017003 0.000870818 0.0158192)
(-0.000422359 0.000280326 0.0159256)
(-0.00146685 0.00156873 0.0147841)
(-0.0012799 0.000419107 0.0195219)
(-0.000965719 -0.000267605 0.0196219)
(-0.000681817 -0.000195392 0.0200567)
(-0.000508743 -0.000361405 0.0206069)
(-0.000311387 -0.000588294 0.020568)
(-0.000947164 -6.67873e-05 0.0193684)
(-0.000719729 0.000253178 0.0197176)
(-0.000637853 0.000265899 0.0207697)
(-0.000381443 -0.000494114 0.0210221)
(-0.000886943 0.000225165 0.0196077)
(-0.00042283 0.00028919 0.0193125)
(-0.000708668 0.000818285 0.0201627)
(-0.000561258 -0.000234278 0.021473)
(-0.00112099 0.000362255 0.0186614)
(-0.000430828 0.000187227 0.0190394)
(-0.000934373 0.000782216 0.0193187)
(-0.000604291 0.000174154 0.0219338)
(-0.000602129 -0.000322617 0.0187101)
(-0.000562381 -0.000301319 0.0189678)
(-0.000540727 -0.000326 0.0192368)
(-0.000422064 -0.000440757 0.0193315)
(-0.0006203 -0.000123251 0.0187042)
(-0.000560694 -1.65142e-05 0.0189349)
(-0.00057289 8.19712e-06 0.0193518)
(-0.000401096 -0.000306528 0.0195561)
(-0.000605702 7.65524e-05 0.0188029)
(-0.000466009 0.000132847 0.0188289)
(-0.000594738 0.00030402 0.019215)
(-0.000395315 -0.000120758 0.0197866)
(-0.000669484 0.000143165 0.0184754)
(-0.000461796 0.000155224 0.0187023)
(-0.000661431 0.000393353 0.0189488)
(-0.000339059 0.000102617 0.0199772)
(-0.000362401 -0.000266997 0.0184945)
(-0.000380615 -0.000264469 0.0186578)
(-0.000384003 -0.000259771 0.0188371)
(-0.00031766 -0.000298681 0.0189905)
(-0.000382082 -0.00013271 0.0185418)
(-0.000376963 -0.000101243 0.0187075)
(-0.000383029 -8.83463e-05 0.0189315)
(-0.000282214 -0.000208165 0.0191247)
(-0.000384078 -5.26514e-06 0.0185655)
(-0.000346892 2.56247e-05 0.0186924)
(-0.000377803 7.56601e-05 0.0189314)
(-0.000241996 -9.13838e-05 0.0192416)
(-0.000401014 5.03912e-05 0.0184583)
(-0.000338506 8.76607e-05 0.0186393)
(-0.000380089 0.000174404 0.0188688)
(-0.00017801 4.02771e-05 0.0193231)
(-0.000220801 -0.000184816 0.0184219)
(-0.000245454 -0.000186665 0.0185205)
(-0.000252287 -0.000179977 0.0186275)
(-0.000213365 -0.00019148 0.0187312)
(-0.000234339 -0.000105311 0.0184706)
(-0.000243658 -9.4778e-05 0.0185757)
(-0.000243656 -8.71761e-05 0.0186963)
(-0.000182804 -0.000133134 0.01881)
(-0.000238406 -2.96797e-05 0.0184881)
(-0.000230778 -1.12968e-05 0.018591)
(-0.000229766 6.88555e-06 0.0187241)
(-0.000146151 -6.08818e-05 0.0188752)
(-0.000243312 1.54409e-05 0.018459)
(-0.000220823 4.52637e-05 0.0185786)
(-0.000214651 8.01979e-05 0.0187196)
(-9.85631e-05 1.73169e-05 0.0189177)
(-0.000135807 -0.000119886 0.0183868)
(-0.000153628 -0.000121777 0.018446)
(-0.000157538 -0.000117132 0.0185104)
(-0.000133811 -0.000119191 0.0185749)
(-0.000143745 -7.42931e-05 0.0184225)
(-0.000152411 -6.98489e-05 0.0184871)
(-0.000149043 -6.53406e-05 0.0185561)
(-0.000112238 -8.31995e-05 0.0186212)
(-0.000146369 -2.92827e-05 0.0184384)
(-0.000145178 -1.82911e-05 0.0185063)
(-0.000136058 -1.05431e-05 0.0185815)
(-8.63072e-05 -3.94367e-05 0.0186578)
(-0.000147517 3.72457e-06 0.018435)
(-0.000136947 2.3133e-05 0.0185087)
(-0.000120675 3.80429e-05 0.0185894)
(-5.50853e-05 7.2223e-06 0.018681)
(-8.46784e-05 -7.63624e-05 0.0183696)
(-9.50372e-05 -7.74518e-05 0.0184051)
(-9.60787e-05 -7.4464e-05 0.0184436)
(-8.12063e-05 -7.36995e-05 0.0184819)
(-8.89181e-05 -5.0145e-05 0.0183934)
(-9.38505e-05 -4.7687e-05 0.0184326)
(-8.94468e-05 -4.48487e-05 0.0184727)
(-6.70456e-05 -5.18494e-05 0.018509)
(-9.00822e-05 -2.29751e-05 0.018406)
(-8.91151e-05 -1.62862e-05 0.0184481)
(-7.96451e-05 -1.25159e-05 0.0184909)
(-5.01751e-05 -2.55315e-05 0.01853)
(-8.99619e-05 -9.00031e-08 0.0184091)
(-8.30479e-05 1.17893e-05 0.0184536)
(-6.79503e-05 1.83811e-05 0.0184991)
(-3.06217e-05 2.43722e-06 0.018543)
(-5.35289e-05 -4.84603e-05 0.0183596)
(-5.87804e-05 -4.8939e-05 0.0183811)
(-5.82009e-05 -4.70383e-05 0.0184041)
(-4.86577e-05 -4.57436e-05 0.0184264)
(-5.56586e-05 -3.31239e-05 0.0183752)
(-5.76555e-05 -3.15154e-05 0.0183989)
(-5.34483e-05 -2.96826e-05 0.0184223)
(-3.9607e-05 -3.24735e-05 0.0184424)
(-5.5984e-05 -1.64882e-05 0.0183845)
(-5.4397e-05 -1.23384e-05 0.0184099)
(-4.66508e-05 -1.03349e-05 0.0184344)
(-2.89662e-05 -1.66136e-05 0.0184547)
(-5.54969e-05 -1.09461e-06 0.0183883)
(-5.01582e-05 6.0653e-06 0.018415)
(-3.8613e-05 9.0338e-06 0.0184406)
(-1.69257e-05 2.71081e-07 0.0184622)
(-3.42536e-05 -3.08397e-05 0.0183528)
(-3.65807e-05 -3.09837e-05 0.018366)
(-3.53686e-05 -2.97727e-05 0.0183798)
(-2.91371e-05 -2.86418e-05 0.0183927)
(-3.52675e-05 -2.165e-05 0.0183629)
(-3.56142e-05 -2.05329e-05 0.0183773)
(-3.20967e-05 -1.93464e-05 0.018391)
(-2.33834e-05 -2.04904e-05 0.0184022)
(-3.52154e-05 -1.13126e-05 0.0183693)
(-3.33635e-05 -8.70259e-06 0.0183848)
(-2.75563e-05 -7.59178e-06 0.0183988)
(-1.67302e-05 -1.08388e-05 0.0184094)
(-3.47024e-05 -1.13343e-06 0.0183726)
(-3.0495e-05 3.19378e-06 0.0183886)
(-2.22675e-05 4.52905e-06 0.018403)
(-9.34524e-06 -5.58003e-07 0.0184139)
(-2.21327e-05 -1.97374e-05 0.0183479)
(-2.29548e-05 -1.97241e-05 0.0183561)
(-2.16555e-05 -1.89458e-05 0.0183643)
(-1.75439e-05 -1.81083e-05 0.0183719)
(-2.25825e-05 -1.40973e-05 0.0183544)
(-2.21829e-05 -1.33125e-05 0.0183632)
(-1.94473e-05 -1.25464e-05 0.0183713)
(-1.38813e-05 -1.30448e-05 0.0183776)
(-2.24009e-05 -7.58695e-06 0.0183588)
(-2.06423e-05 -5.92784e-06 0.0183682)
(-1.64729e-05 -5.29886e-06 0.0183763)
(-9.71897e-06 -7.11042e-06 0.0183819)
(-2.19719e-05 -9.10134e-07 0.0183611)
(-1.87368e-05 1.73016e-06 0.0183708)
(-1.30604e-05 2.31893e-06 0.018379)
(-5.1725e-06 -7.78082e-07 0.0183846)
(-1.43863e-05 -1.26897e-05 0.0183443)
(-1.45084e-05 -1.26181e-05 0.0183494)
(-1.33659e-05 -1.21145e-05 0.0183544)
(-1.06411e-05 -1.15344e-05 0.0183589)
(-1.45637e-05 -9.16247e-06 0.0183485)
(-1.39247e-05 -8.61463e-06 0.018354)
(-1.1892e-05 -8.1215e-06 0.0183588)
(-8.30102e-06 -8.3528e-06 0.0183624)
(-1.43666e-05 -5.02304e-06 0.0183514)
(-1.28829e-05 -3.96039e-06 0.0183572)
(-9.96314e-06 -3.60056e-06 0.0183619)
(-5.68983e-06 -4.67088e-06 0.018365)
(-1.40419e-05 -6.62928e-07 0.018353)
(-1.16321e-05 9.65161e-07 0.018359)
(-7.78187e-06 1.21187e-06 0.0183637)
(-2.87768e-06 -7.33407e-07 0.0183666)
(-9.34831e-06 -8.15123e-06 0.0183416)
(-9.1892e-06 -8.07371e-06 0.0183449)
(-8.28304e-06 -7.74946e-06 0.018348)
(-6.48363e-06 -7.36114e-06 0.0183507)
(-9.40317e-06 -5.92467e-06 0.0183444)
(-8.76924e-06 -5.5498e-06 0.0183479)
(-7.31127e-06 -5.23518e-06 0.0183508)
(-4.98805e-06 -5.34803e-06 0.0183528)
(-9.23587e-06 -3.28644e-06 0.0183464)
(-8.07675e-06 -2.60516e-06 0.01835)
(-6.07252e-06 -2.39889e-06 0.0183528)
(-3.35067e-06 -3.05369e-06 0.0183544)
(-9.00491e-06 -4.57536e-07 0.0183475)
(-7.26599e-06 5.53312e-07 0.0183512)
(-4.68931e-06 6.45665e-07 0.018354)
(-1.60923e-06 -5.94453e-07 0.0183554)
(-6.00867e-06 -5.17252e-06 0.0183398)
(-5.77226e-06 -5.11192e-06 0.0183419)
(-5.10522e-06 -4.90794e-06 0.0183439)
(-3.93624e-06 -4.65435e-06 0.0183455)
(-6.01513e-06 -3.77391e-06 0.0183416)
(-5.48651e-06 -3.52587e-06 0.0183439)
(-4.47839e-06 -3.32927e-06 0.0183457)
(-2.98951e-06 -3.38636e-06 0.0183469)
(-5.89043e-06 -2.10898e-06 0.018343)
(-5.03858e-06 -1.67663e-06 0.0183453)
(-3.69671e-06 -1.55914e-06 0.018347)
(-1.97246e-06 -1.96462e-06 0.0183479)
(-5.73506e-06 -3.01718e-07 0.0183438)
(-4.52376e-06 3.24566e-07 0.0183461)
(-2.83251e-06 3.51118e-07 0.0183477)
(-9.02412e-07 -4.37412e-07 0.0183485)
(-3.75798e-06 -3.17521e-06 0.0183385)
(-3.53789e-06 -3.13476e-06 0.01834)
(-3.08066e-06 -3.01104e-06 0.0183413)
(-2.3482e-06 -2.84955e-06 0.0183423)
(-3.74968e-06 -2.32074e-06 0.0183398)
(-3.35581e-06 -2.16319e-06 0.0183413)
(-2.69201e-06 -2.04395e-06 0.0183425)
(-1.76564e-06 -2.07297e-06 0.0183432)
(-3.66577e-06 -1.3024e-06 0.0183408)
(-3.07879e-06 -1.03419e-06 0.0183423)
(-2.21548e-06 -9.67283e-07 0.0183434)
(-1.15046e-06 -1.21364e-06 0.0183439)
(-3.56818e-06 -1.86855e-07 0.0183413)
(-2.76429e-06 1.94971e-07 0.0183429)
(-1.69237e-06 1.98406e-07 0.0183439)
(-5.09027e-07 -2.89133e-07 0.0183443)
(-2.25615e-06 -1.8196e-06 0.0183378)
(-2.091e-06 -1.79023e-06 0.0183388)
(-1.80218e-06 -1.71605e-06 0.0183397)
(-1.36633e-06 -1.6191e-06 0.0183404)
(-2.24437e-06 -1.32914e-06 0.0183387)
(-1.98189e-06 -1.22915e-06 0.0183398)
(-1.57546e-06 -1.15555e-06 0.0183406)
(-1.02701e-06 -1.17028e-06 0.0183411)
(-2.19268e-06 -7.45616e-07 0.0183394)
(-1.82074e-06 -5.81323e-07 0.0183405)
(-1.30042e-06 -5.38058e-07 0.0183412)
(-6.73074e-07 -6.7848e-07 0.0183415)
(-2.13636e-06 -1.0208e-07 0.0183398)
(-1.64046e-06 1.26381e-07 0.0183409)
(-1.00125e-06 1.30531e-07 0.0183416)
(-3.07795e-07 -1.50285e-07 0.0183418)
(-1.39285e-06 -1.00497e-06 0.0183372)
(-1.26954e-06 -9.70855e-07 0.018338)
(-1.07328e-06 -9.13885e-07 0.0183387)
(-8.11977e-07 -8.3882e-07 0.0183392)
(-1.37843e-06 -7.35131e-07 0.018338)
(-1.19847e-06 -6.64071e-07 0.0183388)
(-9.38042e-07 -6.12024e-07 0.0183393)
(-6.21787e-07 -6.03303e-07 0.0183396)
(-1.34802e-06 -4.11352e-07 0.0183386)
(-1.10541e-06 -3.05187e-07 0.0183394)
(-7.80684e-07 -2.73731e-07 0.0183398)
(-4.22375e-07 -3.37842e-07 0.01834)
(-1.31745e-06 -4.94185e-08 0.0183389)
(-1.00364e-06 9.20324e-08 0.0183397)
(-6.11547e-07 9.80915e-08 0.0183401)
(-2.17048e-07 -4.71078e-08 0.0183402)
(0.000565608 -0.00031338 0.012595)
(0.00349733 -0.000945633 0.0165355)
(-0.00099863 -0.000372163 0.0112329)
(-0.00218892 -5.30594e-05 0.0110884)
(-0.000310216 0.00056066 0.0182901)
(0.00150284 0.000208448 0.0130352)
(0.00139664 -0.000986277 0.0111072)
(0.00135008 -0.00100139 0.019639)
(0.0016334 -0.0015151 0.0215805)
(0.00142848 -0.000103364 0.0132439)
(-0.00165239 -0.00234748 0.018197)
(-0.00144148 -0.0015605 0.0121578)
(0.000848549 -0.00134258 0.0121606)
(0.00224191 -0.00219091 0.013831)
(0.000448341 -0.000700198 0.00974418)
(1.06459e-05 0.000954594 0.0158054)
(-5.75232e-05 -0.000424062 0.0357461)
(0.000374189 0.00157788 0.0407736)
(0.00228959 0.00589417 0.0670524)
(0.000231946 0.00424177 0.0389252)
(0.00157042 0.00105068 0.0494715)
(0.000830763 0.00292373 0.0446789)
(-0.00160732 0.00313669 0.0542574)
(-0.00286221 0.00349517 0.0527353)