/*--------------------------------*- C++ -*----------------------------------*\
| =========                 |                                                 |
| \\      /  F ield         | OpenFOAM: The Open Source CFD Toolbox           |
|  \\    /   O peration     | Version:  2506                                  |
|   \\  /    A nd           | Website:  www.openfoam.com                      |
|    \\/     M anipulation  |                                                 |
\*---------------------------------------------------------------------------*/
FoamFile
{
    version     2.0;
    format      ascii;
    arch        "LSB;label=32;scalar=64";
    class       surfaceScalarField;
    location    "0.08";
    object      phi;
}
// * * * * * * * * * * * * * * * * * * * * * * * * * * * * * * * * * * * * * //

dimensions      [0 3 -1 0 0 0 0];

oriented        oriented;

internalField   nonuniform List<scalar> 
3120
(
-1.99746e-09
4.42688e-09
4.65131e-08
-1.40485e-09
-1.15298e-10
3.37644e-09
2.84979e-08
-1.93387e-09
1.36371e-09
4.21521e-08
6.90699e-10
1.4685e-08
-2.40329e-09
2.5777e-09
5.33435e-08
-1.02522e-09
-3.28803e-09
9.14844e-10
5.16238e-08
2.01151e-09
1.24582e-09
4.21187e-08
-1.47992e-09
3.92556e-08
-3.7724e-09
1.86138e-09
4.69367e-08
5.69091e-09
-2.6805e-09
6.66006e-09
3.95626e-08
9.78617e-09
2.7507e-09
3.33573e-08
-9.98982e-09
7.77476e-08
-1.24235e-09
4.65721e-08
3.06498e-09
5.83745e-11
-5.82572e-09
5.3925e-08
-6.93942e-10
-2.30845e-09
4.41648e-08
2.26474e-09
4.05028e-08
-3.71263e-09
-3.06209e-09
-3.52276e-09
6.05176e-08
-1.15275e-09
1.01235e-09
-3.36586e-09
3.27931e-08
7.78541e-09
-2.91958e-09
4.43232e-08
-1.77732e-08
8.58835e-08
-7.38215e-10
-3.65051e-09
5.71072e-08
-2.89775e-09
4.45302e-10
-3.29386e-09
5.03683e-08
5.77028e-09
-1.53282e-09
3.5407e-08
-1.77421e-08
6.5554e-08
4.95946e-10
5.92257e-09
3.85334e-08
-1.66571e-09
9.63906e-10
-7.90534e-10
3.65913e-08
-2.32616e-09
-6.15699e-09
4.12716e-08
-1.42958e-09
5.08268e-08
-7.14328e-09
6.79859e-08
-6.73243e-09
-1.61553e-09
-2.81787e-09
4.85996e-08
2.09533e-10
-2.09793e-09
4.45709e-08
-7.28299e-09
2.47809e-08
6.05237e-09
-4.79873e-09
-1.65866e-10
5.4761e-08
1.1788e-08
3.09249e-09
1.89718e-09
1.56621e-08
1.04732e-08
-2.29427e-09
3.76823e-08
-9.74991e-09
1.11631e-07
-1.49129e-09
-1.07083e-08
7.04737e-08
-1.33274e-09
-1.37289e-09
-6.75686e-10
5.28228e-08
4.96132e-09
3.7739e-09
2.30047e-08
1.07388e-09
5.98924e-08
2.13268e-09
3.79085e-09
1.77531e-08
4.14843e-09
1.7436e-09
-3.62969e-09
3.99344e-08
2.90517e-09
-9.63848e-10
4.48478e-08
-1.15587e-09
5.70497e-08
-4.68103e-09
6.7488e-08
-6.08997e-10
9.57879e-09
5.66038e-09
3.00291e-08
4.59941e-09
3.19282e-09
4.67389e-08
-6.64312e-10
2.61026e-08
7.22997e-10
5.08945e-09
-1.55633e-09
3.53628e-08
6.47739e-09
-8.03964e-10
-5.0379e-09
3.03905e-08
9.69048e-10
-1.10051e-09
3.52271e-08
-1.24777e-08
8.6331e-08
6.31058e-09
3.85335e-09
5.27977e-08
5.95577e-09
2.19235e-09
8.43879e-10
5.10593e-08
-3.0549e-09
-1.71599e-09
2.88675e-08
4.12012e-09
4.03808e-08
-1.28882e-09
-1.68143e-09
2.20877e-08
2.48909e-09
-2.77349e-09
3.56916e-09
3.86938e-08
9.40061e-09
5.71827e-09
2.52394e-08
-5.84946e-09
7.84993e-08
4.01735e-09
5.24502e-08
6.7819e-09
2.55714e-09
8.0136e-10
3.85723e-08
-1.75803e-09
2.66753e-10
5.23697e-08
6.22109e-10
1.15318e-08
3.20223e-09
3.98323e-10
-6.4596e-10
2.43968e-08
-5.5213e-10
-1.27047e-09
-2.24163e-09
3.60529e-08
7.2281e-10
-8.91991e-10
3.78259e-08
-4.1283e-09
6.73833e-08
-6.52481e-10
5.27107e-09
4.77229e-08
-1.89696e-10
5.29883e-10
1.59616e-09
4.60391e-08
-2.07235e-09
2.91317e-09
2.76646e-08
-2.40304e-09
3.21956e-08
-2.66266e-09
6.69433e-09
3.02338e-08
-6.90671e-09
1.35177e-09
4.02681e-09
3.22487e-08
-1.21337e-08
-2.74532e-09
4.43834e-08
2.44357e-09
5.85821e-08
-5.0334e-09
6.82647e-08
8.81037e-09
-1.28971e-08
-5.24871e-09
4.51993e-08
-2.38493e-09
-2.35835e-09
4.71112e-08
-3.77241e-10
1.14783e-08
-1.61423e-09
-3.11916e-09
-1.61781e-11
2.69019e-08
4.51448e-09
-1.40286e-09
-1.15062e-09
3.50917e-08
-5.0622e-09
-4.02252e-10
4.69717e-08
6.58924e-09
8.35601e-08
-6.82645e-09
1.23563e-09
5.18284e-08
1.46911e-09
-2.02916e-09
3.38512e-09
3.67061e-08
-3.47547e-09
-6.7815e-10
2.93868e-08
3.79784e-09
3.42203e-08
-2.8377e-09
-4.69842e-10
3.7471e-08
-2.69399e-09
-7.11834e-09
-1.41105e-10
4.00555e-08
-5.29631e-10
8.12865e-10
3.63036e-08
6.29474e-09
5.46491e-08
-8.86559e-09
6.42796e-08
8.39481e-09
3.98602e-09
-5.5013e-09
3.55561e-08
6.1378e-09
6.22526e-09
2.92108e-08
6.98676e-09
2.80495e-08
1.96884e-09
-1.5868e-10
-3.39209e-10
3.64813e-08
-3.51405e-09
-5.52447e-10
9.69681e-10
3.57281e-08
2.5545e-09
1.84061e-09
4.43653e-08
7.11468e-10
9.80413e-08
1.95391e-09
2.68625e-09
4.5585e-08
1.26398e-09
1.0193e-09
7.44546e-10
3.78653e-08
4.74946e-10
4.38182e-10
3.13336e-08
-2.02031e-13
3.77078e-08
-3.75066e-10
-5.90323e-10
4.2531e-08
-1.4083e-09
-5.60682e-10
1.37787e-09
3.96079e-08
-1.23376e-09
1.61566e-09
3.57986e-08
5.72369e-09
4.63397e-08
1.89045e-09
6.63169e-08
-7.50389e-09
2.98812e-09
1.35232e-09
3.7235e-08
2.37018e-10
2.03265e-09
2.96104e-08
5.35849e-10
3.7688e-08
-1.93128e-09
2.66936e-09
3.53035e-09
3.78694e-08
-4.47703e-09
-2.41242e-11
2.99657e-09
3.75204e-08
-3.64198e-09
2.19466e-09
5.13505e-08
6.92745e-09
1.03766e-07
1.40217e-09
4.73016e-09
4.38743e-08
-8.90955e-10
7.48147e-10
4.12437e-09
3.73912e-08
-9.45304e-10
2.82347e-09
3.23977e-08
4.31605e-09
4.606e-08
6.33723e-11
2.36335e-09
4.52777e-08
-4.42681e-10
-9.12402e-10
5.09057e-09
3.96167e-08
-1.39109e-09
4.16877e-09
3.49319e-08
6.12321e-09
4.57e-08
-1.23383e-09
6.61004e-08
1.82741e-09
1.98641e-09
-1.73834e-09
3.82769e-08
4.55308e-09
-1.87835e-09
3.0113e-08
3.80633e-09
3.79613e-08
7.98577e-09
6.60138e-10
-3.59447e-10
4.49835e-08
-3.97643e-09
-6.07136e-09
6.71771e-10
4.40944e-08
-1.12117e-08
2.74726e-09
4.90394e-08
9.31165e-09
6.6706e-08
3.13817e-09
-4.36735e-09
4.5371e-08
-6.26949e-10
8.66395e-11
-1.36146e-09
4.24767e-08
-6.69654e-09
6.48156e-10
4.12795e-08
4.78685e-09
4.82375e-08
3.73064e-09
-8.53192e-09
4.72245e-08
-1.51275e-09
1.20231e-09
-2.67056e-09
4.34537e-08
-2.97229e-09
-1.61077e-09
4.13659e-08
1.40433e-09
4.55089e-08
7.41559e-09
5.36939e-08
-5.51776e-09
1.97518e-09
3.39836e-09
4.38808e-08
-4.25726e-09
-1.70993e-09
4.03572e-08
-6.74686e-09
4.28549e-08
-4.84138e-09
7.86521e-10
5.37978e-10
4.71434e-08
-2.42545e-09
-2.43865e-09
1.16961e-09
4.67066e-08
-4.69362e-09
1.94675e-09
4.81376e-08
4.38248e-09
5.36569e-08
1.62374e-09
-1.44622e-09
4.66609e-08
-9.28928e-10
-2.71547e-10
-2.09238e-11
4.5563e-08
-3.20404e-09
8.56765e-10
4.53028e-08
2.88015e-09
4.8353e-08
2.03351e-09
-2.66078e-09
4.76262e-08
-1.22064e-09
6.78653e-10
-1.16915e-09
4.59573e-08
-1.41771e-09
-7.71348e-10
4.50906e-08
6.03858e-10
4.67944e-08
2.61988e-09
4.94532e-08
-1.85298e-09
8.13733e-10
1.31361e-09
4.63027e-08
-2.28464e-09
-7.11506e-10
4.49796e-08
-3.3681e-09
4.61201e-08
-2.90201e-09
5.87843e-10
-3.65268e-11
4.79964e-08
-1.18816e-09
-6.09942e-10
2.24339e-10
4.78061e-08
-1.54601e-09
4.76618e-10
4.81478e-08
1.1552e-09
4.9933e-08
8.06909e-10
-1.15912e-09
4.76161e-08
-6.39274e-10
-5.95284e-11
-5.57416e-10
4.72114e-08
-1.29863e-09
-8.75309e-11
4.7106e-08
6.87824e-10
4.83266e-08
1.16199e-09
-1.79065e-09
4.80274e-08
-9.31171e-10
4.08925e-10
-1.21829e-09
4.73717e-08
-6.0714e-10
-9.90787e-10
4.70101e-08
-4.69924e-10
4.77119e-08
1.40181e-09
4.85532e-08
-1.87475e-09
-4.17302e-10
7.30621e-10
4.75884e-08
-1.83211e-09
-2.9296e-10
4.70917e-08
-2.07901e-09
4.75549e-08
-1.91602e-09
3.87984e-10
-5.42609e-11
4.83093e-08
-6.52013e-10
-8.81695e-11
6.14744e-12
4.82544e-08
-5.18998e-10
4.69765e-11
4.83339e-08
2.15417e-10
4.89319e-08
3.78534e-10
-5.4115e-10
4.80837e-08
-3.5907e-10
1.13628e-11
-3.9153e-10
4.79765e-08
-5.16757e-10
-2.69084e-10
4.79501e-08
1.19667e-11
4.84108e-08
4.93949e-10
-7.87606e-10
4.82178e-08
-4.37466e-10
1.79105e-10
-7.30654e-10
4.80262e-08
-2.89961e-10
-7.07756e-10
4.7918e-08
-5.36853e-10
4.82132e-08
4.10786e-10
4.83369e-08
-8.82896e-10
-9.86369e-11
1.95671e-10
4.81042e-08
-1.03095e-09
-1.95912e-10
4.79749e-08
-1.19911e-09
4.81895e-08
-1.20677e-09
2.38893e-10
-9.79807e-11
4.84467e-08
-3.53543e-10
3.99184e-11
-8.73491e-11
4.84571e-08
-1.65737e-10
-8.32551e-11
4.84888e-08
-5.71578e-11
4.8696e-08
1.9175e-10
-3.42302e-10
4.83341e-08
-1.97527e-10
3.85631e-11
-3.01022e-10
4.83437e-08
-1.84212e-10
-2.67509e-10
4.83572e-08
-1.82655e-10
4.85375e-08
2.37384e-10
-4.82723e-10
4.83551e-08
-2.33954e-10
9.6977e-11
-4.77193e-10
4.8343e-08
-1.1411e-10
-4.76217e-10
4.83379e-08
-4.23171e-10
4.84663e-08
1.80214e-10
4.83423e-08
-5.68691e-10
-9.94106e-11
8.76195e-11
4.83467e-08
-6.27009e-10
-8.12469e-11
4.83517e-08
-6.8404e-10
4.84599e-08
-7.01801e-10
1.33513e-10
-1.01902e-10
4.85163e-08
-1.84199e-10
5.27606e-11
-1.13138e-10
4.8559e-08
-4.31874e-11
-1.19466e-10
4.8589e-08
-1.20087e-10
4.86671e-08
9.59071e-11
-2.14892e-10
4.84537e-08
-1.02257e-10
3.18166e-11
-2.13731e-10
4.85086e-08
-6.42418e-11
-2.08306e-10
4.85423e-08
-1.87314e-10
4.86195e-08
1.04038e-10
-2.8188e-10
4.84276e-08
-1.0929e-10
4.4951e-11
-2.98234e-10
4.84867e-08
-4.22537e-11
-3.04698e-10
4.85216e-08
-2.9263e-10
4.85873e-08
6.59345e-11
4.8357e-08
-3.22635e-10
-3.98177e-11
2.69065e-11
4.84466e-08
-3.59137e-10
-3.3982e-11
4.84973e-08
-3.89358e-10
4.85629e-08
-4.04535e-10
7.54149e-11
-8.9469e-11
4.85504e-08
-9.78404e-11
3.84448e-11
-1.02365e-10
4.86108e-08
-7.60631e-12
-1.11273e-10
4.86456e-08
-1.17828e-10
4.86813e-08
4.98183e-11
-1.42662e-10
4.85103e-08
-5.29717e-11
2.2664e-11
-1.50619e-10
4.85843e-08
-1.88031e-11
-1.53761e-10
4.86265e-08
-1.51195e-10
4.8666e-08
4.61109e-11
-1.74266e-10
4.84623e-08
-4.89968e-11
2.10913e-11
-1.88473e-10
4.85497e-08
-1.45751e-11
-1.9662e-10
4.86003e-08
-1.96578e-10
4.86408e-08
2.24535e-11
4.83649e-08
-1.9081e-10
-1.37382e-11
9.78206e-12
4.8483e-08
-2.12238e-10
-1.36739e-11
4.85514e-08
-2.27141e-10
4.85984e-08
-2.38351e-10
4.1625e-11
-7.35665e-11
4.85673e-08
-5.22201e-11
2.48136e-11
-8.48291e-11
4.8638e-08
3.44783e-12
-9.22249e-11
4.86765e-08
-9.77515e-11
4.86994e-08
2.67836e-11
-9.81412e-11
4.85358e-08
-2.75543e-11
1.47889e-11
-1.0654e-10
4.86182e-08
-3.26049e-12
-1.11463e-10
4.8664e-08
-1.13316e-10
4.86909e-08
2.06791e-11
-1.12092e-10
4.84768e-08
-2.10663e-11
1.05855e-11
-1.22268e-10
4.85757e-08
-3.7898e-12
-1.28821e-10
4.86323e-08
-1.31245e-10
4.86638e-08
6.60633e-12
4.83654e-08
-1.16064e-10
-3.09044e-12
3.08016e-12
4.84936e-08
-1.29423e-10
-4.85343e-12
4.85681e-08
-1.37465e-10
4.86078e-08
-1.44428e-10
2.33816e-11
-5.85045e-11
4.85761e-08
-2.78454e-11
1.55752e-11
-6.6345e-11
4.86522e-08
5.23396e-12
-7.15562e-11
4.86929e-08
-7.53229e-11
4.87123e-08
1.46722e-11
-6.92355e-11
4.85468e-08
-1.46396e-11
9.20576e-12
-7.56099e-11
4.86332e-08
1.21606e-12
-8.00433e-11
4.86806e-08
-8.21675e-11
4.87036e-08
9.12361e-12
-7.43893e-11
4.84817e-08
-8.55096e-12
5.76218e-12
-8.1417e-11
4.85851e-08
-1.16482e-13
-8.58794e-11
4.86442e-08
-8.81678e-11
4.86727e-08
8.59054e-13
4.83622e-08
-7.31889e-11
1.19543e-12
5.14093e-13
4.84941e-08
-8.16482e-11
-1.4805e-12
4.85706e-08
-8.63409e-11
4.86076e-08
-9.0203e-11
1.33489e-11
-4.49548e-11
4.85805e-08
-1.51312e-11
9.63641e-12
-5.01907e-11
4.86594e-08
4.39362e-12
-5.37575e-11
4.87017e-08
-5.61064e-11
4.87202e-08
8.08899e-12
-4.93212e-11
4.8551e-08
-7.71459e-12
5.89327e-12
-5.39689e-11
4.86393e-08
2.02478e-12
-5.70837e-11
4.86879e-08
-5.87464e-11
4.87097e-08
4.28116e-12
-5.05085e-11
4.84822e-08
-3.25869e-12
3.09903e-12
-5.50901e-11
4.85876e-08
7.86231e-13
-5.81633e-11
4.86477e-08
-5.98204e-11
4.86752e-08
-1.09306e-12
4.8358e-08
-4.74971e-11
2.48413e-12
-2.95458e-13
4.84913e-08
-5.29709e-11
-3.38424e-13
4.85684e-08
-5.58595e-11
4.86043e-08
-5.80091e-11
7.78893e-12
-3.36832e-11
4.85826e-08
-8.41599e-12
6.03261e-12
-3.7191e-11
4.86631e-08
3.27724e-12
-3.95606e-11
4.87062e-08
-4.10581e-11
4.87248e-08
4.52442e-12
-3.52183e-11
4.85523e-08
-4.00135e-12
3.67319e-12
-3.83912e-11
4.86416e-08
1.81068e-12
-4.0542e-11
4.86908e-08
-4.17285e-11
4.87123e-08
1.87146e-12
-3.47236e-11
4.84811e-08
-8.93659e-13
1.69981e-12
-3.77157e-11
4.85874e-08
8.61339e-13
-3.98001e-11
4.86479e-08
-4.0945e-11
4.86752e-08
-1.50897e-12
4.83539e-08
-3.14645e-11
2.50176e-12
-4.79252e-13
4.84877e-08
-3.50984e-11
3.65021e-14
4.85651e-08
-3.6917e-11
4.86005e-08
-3.81898e-11
4.69037e-12
-2.46277e-11
4.85834e-08
-4.80951e-12
3.89446e-12
-2.69948e-11
4.86648e-08
2.45825e-12
-2.85842e-11
4.87084e-08
-2.95937e-11
4.87271e-08
2.62428e-12
-2.49377e-11
4.85523e-08
-2.08004e-12
2.35291e-12
-2.70575e-11
4.86422e-08
1.48363e-12
-2.85396e-11
4.86916e-08
-2.93933e-11
4.87132e-08
7.92202e-13
-2.39034e-11
4.84794e-08
4.31088e-14
9.77393e-13
-2.5853e-11
4.85861e-08
7.6582e-13
-2.72654e-11
4.86469e-08
-2.80741e-11
4.86741e-08
-1.40588e-12
4.83505e-08
-2.10164e-11
2.08666e-12
-4.50671e-13
4.84843e-08
-2.34949e-11
1.63671e-13
4.85618e-08
-2.46546e-11
4.85971e-08
-2.54584e-11
2.94939e-12
-1.73986e-11
4.85836e-08
-2.85487e-12
2.61782e-12
-1.89857e-11
4.86654e-08
1.92836e-12
-2.00629e-11
4.87093e-08
-2.07737e-11
4.8728e-08
1.61337e-12
-1.7227e-11
4.85517e-08
-1.13541e-12
1.58814e-12
-1.86362e-11
4.86419e-08
1.24138e-12
-1.96508e-11
4.86915e-08
-2.02739e-11
4.87131e-08
3.78176e-13
-1.61807e-11
4.84779e-08
3.05427e-13
6.41868e-13
-1.74518e-11
4.85847e-08
6.99626e-13
-1.84063e-11
4.86456e-08
-1.89878e-11
4.86728e-08
-1.03842e-12
4.83477e-08
-1.38959e-11
1.51666e-12
-3.00228e-13
4.84816e-08
-1.55852e-11
2.55906e-13
4.85591e-08
-1.63498e-11
4.85944e-08
-1.68838e-11
1.99461e-12
-1.15344e-11
4.85835e-08
-1.82084e-12
1.89131e-12
-1.25628e-11
4.86655e-08
1.62251e-12
-1.32745e-11
4.87095e-08
-1.37756e-11
4.87282e-08
1.14938e-12
-1.12428e-11
4.85511e-08
-7.56033e-13
1.21642e-12
-1.21519e-11
4.86414e-08
1.13429e-12
-1.28267e-11
4.86911e-08
-1.32681e-11
4.87126e-08
3.44576e-13
-1.04038e-11
4.84765e-08
1.78969e-13
5.8724e-13
-1.12164e-11
4.85835e-08
7.41371e-13
-1.18441e-11
4.86444e-08
-1.22558e-11
4.86715e-08
-5.34019e-13
4.83457e-08
-8.78044e-12
8.70787e-13
-2.24444e-14
4.84795e-08
-9.88243e-12
4.2028e-13
4.8557e-08
-1.03914e-11
4.85923e-08
-1.07588e-11
1.57931e-12
-6.67576e-12
4.85832e-08
-1.37383e-12
1.60492e-12
-7.2768e-12
4.86653e-08
1.56431e-12
-7.70519e-12
4.87094e-08
-8.01857e-12
4.87281e-08
1.08175e-12
-6.42904e-12
4.85505e-08
-7.69316e-13
1.1995e-12
-6.96845e-12
4.86409e-08
1.23863e-12
-7.37893e-12
4.86906e-08
-7.66032e-12
4.87122e-08
6.15304e-13
-5.87347e-12
4.84756e-08
-2.32391e-13
8.22001e-13
-6.35768e-12
4.85825e-08
9.85899e-13
-6.74572e-12
4.86435e-08
-7.01799e-12
4.86707e-08
1.15549e-13
4.83444e-08
-4.898e-12
1.56785e-13
4.55694e-13
4.84782e-08
-5.53199e-12
7.71225e-13
4.85557e-08
-5.86531e-12
4.8591e-08
-6.11714e-12
1.53294e-12
-3.18598e-12
-1.28667e-12
1.63825e-12
-3.48125e-12
1.68758e-12
-3.69151e-12
-3.84623e-12
1.29319e-12
-3.02592e-12
-9.9619e-13
1.44763e-12
-3.31237e-12
1.54037e-12
-3.53484e-12
-3.68923e-12
1.04127e-12
-2.7204e-12
-6.96756e-13
1.25147e-12
-2.99146e-12
1.40604e-12
-3.21938e-12
-3.38856e-12
7.67518e-13
-2.21929e-12
-4.7542e-13
1.04292e-12
-2.54667e-12
1.27496e-12
-2.77682e-12
-2.95292e-12
-4.98163e-09
-1.49644e-09
3.89018e-08
-1.43242e-09
7.41192e-10
-5.39024e-09
3.93502e-08
-7.66438e-09
-1.47214e-08
6.46573e-08
-3.32897e-09
3.88152e-08
-5.47615e-09
-1.71118e-09
3.94283e-08
3.61712e-10
6.13556e-10
1.3095e-08
2.08661e-08
-3.87383e-09
6.11464e-09
3.69374e-08
6.0983e-09
4.08168e-08
-1.31237e-10
5.13375e-09
3.39657e-08
8.00717e-10
-3.00772e-09
-5.95843e-09
7.50964e-08
-3.72178e-09
5.71047e-09
6.09861e-08
-1.66229e-09
5.81203e-08
-4.37176e-09
5.36824e-08
2.46464e-09
1.28876e-09
4.73964e-08
-6.64662e-09
8.06102e-08
5.86906e-08
1.783e-09
5.46219e-09
2.30283e-08
1.896e-09
-8.27497e-09
-2.35561e-09
5.19734e-08
1.05914e-08
1.36066e-09
3.71473e-08
-6.41573e-09
6.88449e-08
2.43209e-09
2.96194e-09
3.94903e-08
6.25547e-12
-2.48219e-10
1.32237e-09
1.98685e-08
2.09596e-09
4.7209e-09
3.1233e-08
-4.35987e-09
3.77254e-08
-5.74052e-10
-3.13762e-09
3.79443e-08
2.69502e-09
-1.06518e-09
6.6191e-09
7.02908e-08
-2.42316e-09
-4.04487e-09
7.11098e-08
-4.77636e-10
5.06123e-08
9.00016e-10
4.80756e-08
2.38756e-09
-4.66151e-09
5.97063e-08
-5.18939e-10
7.2613e-08
5.32023e-08
2.99017e-09
1.71281e-09
1.48416e-08
2.87467e-09
5.04179e-09
1.56262e-08
3.8895e-08
7.44496e-09
2.44941e-09
3.16304e-08
-4.81295e-10
7.9159e-08
6.30896e-09
7.37429e-09
2.43206e-08
3.19921e-09
-3.23211e-10
-1.05933e-08
5.272e-08
2.31042e-09
3.00747e-09
2.80413e-08
-3.18378e-09
4.80978e-08
-1.8223e-10
2.96438e-09
4.36896e-08
-1.15323e-09
5.48335e-09
1.45164e-09
5.25804e-08
-9.02919e-10
-5.62981e-09
8.61334e-08
6.62698e-09
4.33783e-08
-2.15333e-09
5.45671e-08
-1.4064e-10
9.05095e-10
5.7163e-08
4.93669e-09
6.26716e-08
7.36715e-08
-3.41754e-09
-9.04346e-09
3.76259e-08
-3.54142e-09
1.69602e-09
2.70718e-09
2.93162e-08
-7.14594e-09
-1.30673e-09
4.24012e-08
7.44573e-09
6.15996e-08
1.91464e-09
-7.48551e-09
2.08942e-08
-4.61087e-11
2.01202e-09
1.48089e-09
5.38489e-08
-5.08024e-10
-3.26082e-09
3.25154e-08
4.55566e-09
4.52081e-08
5.18044e-09
-3.44991e-10
3.12203e-08
1.48429e-10
-5.51864e-10
3.4448e-09
5.63488e-08
3.54126e-09
-9.47471e-09
8.82542e-08
6.16831e-10
5.4271e-08
3.89856e-09
5.06793e-08
4.60953e-10
-2.80667e-09
6.84897e-08
6.36052e-09
4.44591e-08
8.75126e-08
-1.28335e-08
-9.76036e-09
8.18468e-08
-1.28167e-08
-3.14771e-09
-6.10842e-09
2.3354e-08
-7.89294e-09
7.09614e-10
4.60596e-08
1.02369e-08
3.02943e-08
-3.89583e-09
-7.84143e-09
2.91961e-08
-6.32507e-09
2.28183e-09
2.64489e-10
4.12984e-08
4.45066e-09
-5.785e-09
3.68412e-08
-4.54876e-09
6.52918e-08
1.69799e-09
1.77697e-09
2.09548e-08
-1.05092e-09
1.97006e-09
2.54801e-09
5.37932e-08
7.81668e-09
-3.70064e-09
8.03232e-08
1.00986e-08
4.63011e-08
2.38535e-09
5.35e-08
-3.58206e-09
-8.1937e-10
7.39846e-08
6.76736e-09
3.28034e-08
1.12377e-07
3.26821e-09
-7.51789e-09
9.69747e-08
-2.48339e-09
-4.15697e-10
-1.80445e-09
3.49801e-08
2.93366e-09
5.33399e-09
4.4363e-08
-1.81223e-09
5.02491e-08
-2.3282e-09
-7.056e-10
2.66146e-08
-1.90264e-09
4.402e-09
4.581e-10
3.23055e-08
-2.04968e-09
-4.37702e-09
5.3004e-08
1.98344e-08
4.08532e-08
-4.00414e-10
-5.60496e-09
2.75112e-08
-1.25666e-09
1.24773e-09
3.84704e-09
4.87561e-08
7.26943e-09
4.56556e-09
6.53589e-08
-2.06963e-08
9.78702e-08
2.07097e-09
4.79707e-08
-2.09112e-09
1.21827e-10
8.01475e-08
2.05647e-09
3.56951e-08
9.39262e-08
6.9352e-09
1.45346e-08
6.36728e-08
4.32796e-09
1.86307e-10
3.02317e-09
3.89443e-08
6.15704e-10
2.1237e-09
4.23455e-08
1.97232e-09
4.46887e-08
1.13992e-09
2.96375e-09
3.77485e-08
-6.99909e-10
-5.96604e-10
-2.82422e-10
3.73469e-08
1.35658e-09
2.63374e-10
5.29112e-08
-7.66702e-09
5.34114e-08
-2.43762e-10
-2.87318e-09
3.38248e-08
-2.33681e-10
9.10864e-10
-5.44844e-09
5.27678e-08
1.29691e-09
1.59172e-09
6.36445e-08
2.69761e-09
7.81643e-08
1.84864e-09
4.41293e-08
-4.39254e-10
7.28709e-09
7.48492e-08
2.51461e-09
4.32625e-08
9.03615e-08
3.52879e-09
1.03679e-08
5.18898e-08
-2.84061e-10
1.90476e-09
4.52872e-09
4.05919e-08
5.29226e-10
5.97657e-09
4.15508e-08
1.44986e-08
4.17249e-08
1.4557e-09
5.00683e-09
4.37897e-08
-2.13663e-09
2.43813e-09
2.00095e-10
4.06925e-08
5.57736e-09
5.00324e-09
5.07455e-08
1.01348e-08
6.31682e-08
7.047e-10
1.26871e-09
3.80646e-08
-1.20639e-09
4.13778e-09
-3.20612e-09
5.27406e-08
6.83925e-09
1.89233e-09
6.40543e-08
-4.12209e-09
9.9478e-08
5.5513e-10
4.56295e-08
-7.86894e-10
4.27397e-09
6.79242e-08
2.98293e-09
4.64462e-08
8.66054e-08
4.39339e-09
4.18909e-09
3.48237e-08
2.96724e-09
3.14196e-09
-1.98299e-09
3.95678e-08
-2.1603e-10
-5.72938e-09
4.38915e-08
-1.05957e-08
4.71014e-08
2.49435e-09
5.9466e-09
3.83643e-08
1.17113e-09
2.01401e-10
-4.37516e-09
4.53776e-08
-5.5308e-09
-2.54285e-09
5.3291e-08
-1.16685e-08
6.20891e-08
-2.5279e-10
1.74015e-09
4.14723e-08
1.05183e-09
-9.95886e-10
-4.46488e-09
5.35726e-08
-8.22673e-09
6.07049e-09
6.26721e-08
7.47553e-11
7.9302e-08
3.92253e-10
4.58457e-08
1.13056e-09
2.59922e-09
6.12525e-08
-5.16447e-09
6.02806e-08
7.9972e-08
7.53695e-10
3.86879e-10
3.08453e-08
9.84508e-10
4.28405e-10
-1.95544e-09
3.95645e-08
-8.78766e-10
-3.75278e-09
4.55833e-08
-5.88517e-09
4.96623e-08
-3.38475e-11
1.59899e-09
3.65442e-08
6.4271e-10
-7.81779e-10
-1.99345e-09
4.61631e-08
-2.95135e-09
-1.895e-09
5.3603e-08
-5.46897e-09
6.02914e-08
-7.30255e-10
1.58882e-09
4.1686e-08
5.25801e-10
-1.17507e-09
-8.51212e-10
5.28755e-08
-3.54713e-09
2.1642e-09
6.09852e-08
-3.1986e-10
7.09151e-08
-6.91012e-10
4.75766e-08
5.48959e-10
-2.26285e-10
5.99367e-08
-2.7226e-09
6.49413e-08
7.63216e-08
2.10179e-10
-1.17701e-09
2.93782e-08
5.60194e-10
1.44909e-10
-1.7583e-09
3.95563e-08
-5.46737e-10
-2.35918e-09
4.65553e-08
-3.29052e-09
5.07068e-08
6.62237e-12
-6.35389e-10
3.54551e-08
5.41027e-10
-1.8272e-10
-1.57435e-09
4.61688e-08
-1.2161e-09
-1.59088e-09
5.38683e-08
-3.03424e-09
5.92057e-08
-1.67466e-10
-5.38097e-10
4.1269e-08
4.87237e-10
-3.12236e-10
-1.2042e-09
5.26505e-08
-1.46639e-09
-1.6798e-10
6.07167e-08
-1.07693e-09
6.74576e-08
-1.63628e-10
4.67528e-08
4.49282e-10
-7.67823e-11
5.86458e-08
-1.24855e-09
6.59451e-08
7.358e-08
-1.80302e-10
-7.7293e-10
2.91336e-08
3.1545e-10
-2.09176e-10
-1.10107e-09
3.96556e-08
-4.29e-10
-1.37814e-09
4.69543e-08
-1.81356e-09
5.0973e-08
-2.77286e-10
-4.95098e-10
3.51252e-08
3.29757e-10
-3.45276e-10
-8.87157e-10
4.60231e-08
-6.67142e-10
-9.5984e-10
5.37722e-08
-1.59981e-09
5.83857e-08
-3.39958e-10
-1.54913e-10
4.09586e-08
3.10277e-10
-3.9712e-10
-4.08313e-10
5.22291e-08
-7.72812e-10
-1.5938e-10
6.02921e-08
-5.91031e-10
6.55854e-08
-3.71241e-10
4.66743e-08
2.949e-10
-3.48232e-10
5.82146e-08
-7.32403e-10
6.617e-08
7.19982e-08
-1.34333e-10
-5.24814e-10
2.90358e-08
1.88434e-10
-1.37989e-10
-6.57569e-10
3.969e-08
-2.08005e-10
-7.63549e-10
4.71039e-08
-9.46676e-10
5.10292e-08
-1.74762e-10
-3.99223e-10
3.49747e-08
1.99753e-10
-1.91676e-10
-5.44457e-10
4.59271e-08
-2.93899e-10
-5.81231e-10
5.36922e-08
-8.4669e-10
5.79714e-08
-1.94605e-10
-2.32869e-10
4.07935e-08
1.93317e-10
-2.11355e-10
-3.15666e-10
5.20171e-08
-3.4212e-10
-2.20172e-10
6.0062e-08
-4.15808e-10
6.47281e-08
-2.08373e-10
4.64625e-08
1.87193e-10
-2.07823e-10
5.78984e-08
-3.37842e-10
6.60798e-08
7.10885e-08
-1.02692e-10
-3.01111e-10
2.90023e-08
1.14661e-10
-9.46096e-11
-3.70344e-10
3.96931e-08
-1.02979e-10
-4.19952e-10
4.7143e-08
-5.01669e-10
5.10183e-08
-1.21779e-10
-2.33388e-10
3.49085e-08
1.20209e-10
-1.16789e-10
-3.0676e-10
4.58585e-08
-1.33843e-10
-3.32936e-10
5.36224e-08
-4.50724e-10
5.77551e-08
-1.30403e-10
-1.28602e-10
4.07023e-08
1.16658e-10
-1.2576e-10
-1.76143e-10
5.18819e-08
-1.5374e-10
-1.59168e-10
5.99163e-08
-2.55169e-10
6.43134e-08
-1.40825e-10
4.63596e-08
1.15094e-10
-1.3333e-10
5.77148e-08
-1.58901e-10
6.59463e-08
7.05807e-08
-6.91488e-11
-1.76956e-10
2.89861e-08
7.12963e-11
-6.07217e-11
-2.13365e-10
3.96857e-08
-5.14844e-11
-2.38159e-10
4.71448e-08
-2.75566e-10
5.09948e-08
-7.76461e-11
-1.38748e-10
3.48746e-08
7.32962e-11
-7.01716e-11
-1.7618e-10
4.58139e-08
-6.34601e-11
-1.92884e-10
5.35706e-08
-2.46192e-10
5.76368e-08
-8.02288e-11
-7.92654e-11
4.06525e-08
7.05192e-11
-7.33557e-11
-1.02473e-10
5.18013e-08
-7.11219e-11
-1.01809e-10
5.98231e-08
-1.46066e-10
6.41004e-08
-8.52712e-11
4.62954e-08
7.01611e-11
-7.80141e-11
5.76051e-08
-7.40665e-11
6.58406e-08
7.03054e-08
-4.58683e-11
-1.05962e-10
2.89758e-08
4.58587e-11
-3.88297e-11
-1.26458e-10
3.96757e-08
-2.6982e-11
-1.40026e-10
4.71356e-08
-1.57844e-10
5.09736e-08
-4.96956e-11
-8.25393e-11
3.48547e-08
4.61391e-11
-4.29906e-11
-1.0335e-10
4.57842e-08
-3.21853e-11
-1.13921e-10
5.35338e-08
-1.39022e-10
5.75697e-08
-4.99917e-11
-4.68545e-11
4.0623e-08
4.36872e-11
-4.38325e-11
-6.01077e-11
5.17518e-08
-3.39041e-11
-6.33322e-11
5.97626e-08
-8.38835e-11
6.39865e-08
-5.23994e-11
4.62574e-08
4.34829e-11
-4.60626e-11
5.75386e-08
-3.54093e-11
6.57667e-08
7.01545e-08
-3.04542e-11
-6.56924e-11
2.89683e-08
3.02267e-11
-2.52957e-11
-7.75057e-11
3.96664e-08
-1.55849e-11
-8.53224e-11
4.7125e-08
-9.43833e-11
5.0957e-08
-3.20805e-11
-5.06185e-11
3.48418e-08
2.99106e-11
-2.6887e-11
-6.24728e-11
4.57641e-08
-1.71816e-11
-6.92846e-11
5.35081e-08
-8.112e-11
5.75303e-08
-3.14538e-11
-2.85959e-11
4.06046e-08
2.78982e-11
-2.67277e-11
-3.61548e-11
5.17208e-08
-1.75538e-11
-3.931e-11
5.97235e-08
-4.91346e-11
6.39226e-08
-3.23993e-11
4.62336e-08
2.76465e-11
-2.74451e-11
5.74975e-08
-1.75197e-11
6.57174e-08
7.00698e-08
-2.04261e-11
-4.20155e-11
2.89627e-08
2.03241e-11
-1.65364e-11
-4.91342e-11
3.96587e-08
-9.29277e-12
-5.3767e-11
4.71157e-08
-5.83132e-11
5.09447e-08
-2.10929e-11
-3.19574e-11
3.48331e-08
1.98566e-11
-1.74277e-11
-3.88834e-11
4.57503e-08
-1.00866e-11
-4.33117e-11
5.34904e-08
-4.91822e-11
5.75055e-08
-2.01884e-11
-1.78701e-11
4.05925e-08
1.82583e-11
-1.67746e-11
-2.22651e-11
5.17007e-08
-9.8063e-12
-2.46707e-11
5.96979e-08
-2.95048e-11
6.38851e-08
-2.04147e-11
4.62183e-08
1.79828e-11
-1.67261e-11
5.74715e-08
-9.13931e-12
6.56851e-08
7.00206e-08
-1.37877e-11
-2.75488e-11
2.89586e-08
1.38207e-11
-1.09864e-11
-3.19117e-11
3.96528e-08
-5.78627e-12
-3.4754e-11
4.71084e-08
-3.71817e-11
5.09358e-08
-1.40492e-11
-2.07197e-11
3.4827e-08
1.34021e-11
-1.14077e-11
-2.48741e-11
4.57408e-08
-6.09518e-12
-2.77051e-11
5.34781e-08
-3.07379e-11
5.74898e-08
-1.31652e-11
-1.14771e-11
4.05844e-08
1.21628e-11
-1.0788e-11
-1.40804e-11
5.16875e-08
-5.69611e-12
-1.57803e-11
5.96807e-08
-1.81567e-11
6.38622e-08
-1.30791e-11
4.6208e-08
1.18978e-11
-1.04481e-11
5.74547e-08
-5.03576e-12
6.56638e-08
6.99912e-08
-9.30351e-12
-1.83126e-11
2.89555e-08
9.40869e-12
-7.37307e-12
-2.09903e-11
3.96483e-08
-3.69598e-12
-2.28295e-11
4.71028e-08
-2.4192e-11
5.09294e-08
-9.3926e-12
-1.36609e-11
3.48227e-08
9.07188e-12
-7.46358e-12
-1.61799e-11
4.57341e-08
-3.79065e-12
-1.79874e-11
5.34695e-08
-1.96118e-11
5.74794e-08
-8.64618e-12
-7.50796e-12
4.05787e-08
8.14632e-12
-6.92531e-12
-9.1094e-12
5.16787e-08
-3.38394e-12
-1.01991e-11
5.96693e-08
-1.1467e-11
6.38478e-08
-8.45945e-12
4.62011e-08
7.91929e-12
-6.65021e-12
5.74437e-08
-2.84829e-12
6.56497e-08
6.99731e-08
-6.14674e-12
-1.21246e-11
2.89533e-08
6.28028e-12
-4.82717e-12
-1.3765e-11
3.96451e-08
-2.31338e-12
-1.49414e-11
4.70988e-08
-1.57688e-11
5.09248e-08
-6.19686e-12
-9.00053e-12
3.48196e-08
6.03694e-12
-4.8454e-12
-1.05158e-11
4.57295e-08
-2.34055e-12
-1.16782e-11
5.34636e-08
-1.26057e-11
5.74725e-08
-5.61188e-12
-4.91913e-12
4.05748e-08
5.37802e-12
-4.41277e-12
-5.88984e-12
5.16727e-08
-1.99807e-12
-6.61682e-12
5.96616e-08
-7.29645e-12
6.38386e-08
-5.41103e-12
4.61963e-08
5.19386e-12
-4.13115e-12
5.74364e-08
-1.59586e-12
6.56404e-08
6.99618e-08
-3.81681e-12
-7.69711e-12
2.89517e-08
3.93633e-12
-2.92548e-12
-8.69098e-12
3.96428e-08
-1.24939e-12
-9.43104e-12
4.7096e-08
-9.94022e-12
5.09217e-08
-3.82776e-12
-5.71996e-12
3.48175e-08
3.77526e-12
-2.91358e-12
-6.60586e-12
4.57264e-08
-1.2697e-12
-7.34033e-12
5.34597e-08
-7.87632e-12
5.7468e-08
-3.43069e-12
-3.11725e-12
4.05723e-08
3.34044e-12
-2.60946e-12
-3.70624e-12
5.16688e-08
-1.04208e-12
-4.16073e-12
5.96566e-08
-4.536e-12
6.38328e-08
-3.25718e-12
4.61932e-08
3.20325e-12
-2.40211e-12
5.74317e-08
-7.55388e-13
6.56344e-08
6.99548e-08
-1.89838e-12
-4.3316e-12
2.89507e-08
2.04369e-12
-1.27525e-12
-4.90383e-12
3.96414e-08
-2.27045e-13
-5.33474e-12
4.70943e-08
-5.63218e-12
5.09198e-08
-1.8861e-12
-3.25737e-12
3.48162e-08
1.95227e-12
-1.26704e-12
-3.74334e-12
4.57245e-08
-2.56327e-13
-4.16349e-12
5.34574e-08
-4.45258e-12
5.74654e-08
-1.65123e-12
-1.80623e-12
4.05707e-08
1.7043e-12
-1.09239e-12
-2.12375e-12
5.16664e-08
-1.33259e-13
-2.38798e-12
5.96537e-08
-2.57494e-12
6.38296e-08
-1.54873e-12
4.61913e-08
1.61536e-12
-9.53618e-13
5.74289e-08
3.53504e-14
6.56309e-08
6.99508e-08
-4.57264e-13
-2.01253e-12
6.77371e-13
5.71347e-14
-2.34985e-12
7.24976e-13
-2.58942e-12
-2.74577e-12
-4.40635e-13
-1.54886e-12
6.3606e-13
3.9475e-14
-1.82996e-12
6.84902e-13
-2.04566e-12
-2.17922e-12
-3.31141e-13
-8.38918e-13
5.11567e-13
1.06418e-13
-1.01476e-12
7.22266e-13
-1.14823e-12
-1.23282e-12
-2.36101e-13
4.24935e-13
1.9499e-13
8.03895e-13
4.02312e-09
3.22618e-09
6.25504e-08
-8.50878e-09
2.89794e-09
7.21387e-08
6.17158e-09
4.43279e-09
2.70272e-08
7.42685e-09
4.22791e-08
-1.48848e-09
8.84404e-09
6.1106e-08
-2.61855e-09
9.21245e-09
5.36051e-08
4.68044e-09
3.56056e-09
4.7339e-08
8.68284e-09
4.91705e-08
-1.79575e-08
-4.13444e-09
8.91849e-08
-1.12767e-08
-1.81904e-09
5.39934e-08
4.01927e-09
1.60106e-09
3.31207e-08
-2.05902e-09
6.09886e-08
-4.53375e-09
4.91812e-08
-6.7067e-10
3.61346e-08
-5.44677e-09
4.17173e-08
2.04621e-08
-1.9502e-09
-1.02068e-09
6.97342e-08
-1.90842e-09
2.81938e-10
7.34039e-08
-2.78815e-09
-1.58229e-09
3.54823e-08
-3.58872e-09
4.30768e-08
-2.14182e-09
4.47131e-09
5.83668e-08
-3.52389e-09
-1.50263e-09
5.67718e-08
-8.85761e-09
-1.63749e-09
5.27279e-08
2.87101e-10
3.35393e-08
-2.27184e-08
-5.34864e-09
1.19809e-07
-5.16892e-09
2.0153e-09
3.2926e-08
-8.91583e-09
-1.19652e-09
3.64266e-08
3.59217e-09
4.7102e-08
3.68533e-09
4.23898e-08
-1.08381e-08
5.53684e-08
-3.76539e-10
3.00655e-08
2.39582e-08
-6.93644e-09
-1.11567e-08
9.5839e-08
-5.93008e-09
-6.43111e-09
9.1744e-08
-2.00779e-09
-4.38352e-09
4.33856e-08
-8.74161e-09
6.73177e-08
1.51155e-08
2.87221e-09
3.12997e-08
-5.11892e-09
-9.12687e-10
7.14878e-08
-2.97611e-09
-2.05959e-10
4.64075e-08
-1.01647e-09
2.15053e-08
8.14825e-09
5.06312e-10
1.15075e-07
-4.43319e-09
-3.26691e-09
4.78617e-08
-6.032e-09
-2.32338e-09
4.01429e-08
-1.41249e-09
4.56145e-08
-4.46812e-09
4.66907e-08
4.0556e-09
4.24245e-08
-7.71724e-09
4.27142e-08
2.72819e-08
-4.21008e-09
-4.73294e-10
9.79386e-08
-2.41873e-09
-3.94771e-09
9.34e-08
-2.38337e-09
-8.38537e-10
3.74484e-08
1.37749e-10
6.56749e-08
-5.79824e-09
-9.81863e-09
4.68577e-08
2.37068e-09
-2.46685e-09
6.1838e-08
-2.87378e-10
-8.29328e-09
5.65203e-08
3.40967e-10
2.69705e-08
2.3695e-08
7.32013e-09
7.45963e-08
3.71759e-09
-9.19684e-10
6.62919e-08
1.22223e-08
-2.45593e-09
2.58009e-08
-1.47809e-09
6.21449e-08
-1.34311e-09
5.57742e-08
5.66313e-09
3.46471e-08
1.54959e-09
4.43257e-08
2.63691e-08
1.56791e-08
-2.64765e-09
8.52607e-08
-6.56197e-09
-8.11163e-09
1.2189e-07
-3.00842e-09
-1.70091e-09
3.02171e-08
-3.32815e-10
5.78663e-08
2.90536e-09
-7.92533e-09
5.01992e-08
9.18718e-10
-4.71877e-09
6.04318e-08
-1.82181e-09
-2.35975e-11
5.75836e-08
7.02994e-10
2.39232e-08
1.68332e-08
1.10646e-09