/*--------------------------------*- C++ -*----------------------------------*\
| =========                 |                                                 |
| \\      /  F ield         | OpenFOAM: The Open Source CFD Toolbox           |
|  \\    /   O peration     | Version:  2506                                  |
|   \\  /    A nd           | Website:  www.openfoam.com                      |
|    \\/     M anipulation  |                                                 |
\*---------------------------------------------------------------------------*/
FoamFile
{
    version     2.0;
    format      ascii;
    arch        "LSB;label=32;scalar=64";
    class       volVectorField;
    location    "0.08";
    object      U;
}
// * * * * * * * * * * * * * * * * * * * * * * * * * * * * * * * * * * * * * //

dimensions      [0 1 -1 0 0 0 0];

internalField   nonuniform List<vector> 
1152
(
(-0.00068181 0.000713743 0.0157473)
(-0.00028906 -0.000479025 0.00567396)
(-0.00107529 -0.00108832 0.0171713)
(0.00169335 0.000275237 0.00919979)
(-0.000713847 0.00251033 0.0320651)
(-0.00150937 0.00188175 0.0201063)
(-0.000478388 0.000753778 0.0176955)
(0.000394893 -0.000327116 0.000686419)
(-0.00218868 0.00113391 0.017615)
(-0.00202012 0.00199008 0.0177199)
(0.00105898 0.00136779 0.0235205)
(-0.0020988 -0.000529547 0.0381139)
(-0.000149337 0.00102157 0.0163351)
(-0.00245509 0.00213309 0.0158352)
(-0.00220673 0.00122967 0.0187761)
(-0.000511908 -0.00342512 0.0247264)
(-0.000267448 0.000539975 0.0413138)
(-0.000798798 0.00126216 0.0340785)
(0.00250117 0.00089205 0.035076)
(-0.000457517 -0.000195909 0.00298601)
(0.000451658 -0.00164203 0.0156659)
(-0.000444473 -0.00225961 0.0423642)
(0.00197326 -0.00074789 0.0328969)
(-0.00412775 -0.00742372 0.0473241)
(0.000502063 0.000442207 0.0386086)
(0.000475717 -0.00138526 0.0289714)
(7.1511e-05 -0.000759414 0.00439306)
(0.000769965 -0.0050439 0.0404202)
(-0.000801413 -0.000412334 0.0384228)
(-0.0034954 0.000485862 0.0484432)
(-0.00147985 -0.00409783 0.0341624)
(0.000911571 0.000561941 0.0153721)
(-0.00559514 0.000755156 0.0495689)
(0.000123487 -0.000268701 0.0116416)
(0.00386955 -0.00167123 0.0387391)
(-0.00451014 -0.00829041 0.0609163)
(0.000442165 -0.00461533 0.0645972)
(-0.000589206 0.000990427 0.0337427)
(0.000357094 0.000352972 0.0244211)
(0.00207989 -0.00161316 0.0483895)
(-0.000916573 -0.000906963 0.0154031)
(0.00170704 -0.00175025 0.0302175)
(0.00188069 0.00124465 0.0492445)
(0.000259051 -0.000392107 0.030604)
(-0.00557906 0.00166575 0.0640076)
(0.000731101 -0.000573707 0.0147421)
(0.00391388 -0.000642895 0.0356062)
(0.000897419 -0.00031119 0.0242639)
(0.00156483 -0.00376439 0.0333689)
(0.000529052 -5.94923e-05 0.0131447)
(-0.000619085 -0.000930933 0.0202424)
(0.00244221 -0.0162171 0.0852073)
(-0.00111941 0.00152886 0.0394992)
(0.00390807 -0.00223964 0.0492248)
(-0.000315373 -0.000724787 0.0124722)
(-0.00172377 -0.000627228 0.0387318)
(-0.000844727 8.24938e-05 0.0163016)
(-0.00156174 0.00154923 0.0365068)
(0.00046175 0.000337799 0.0189525)
(0.00357811 -0.00231056 0.0532305)
(0.00019951 0.002271 0.031418)
(0.00152604 0.000554598 0.0337461)
(-0.00093552 0.00301788 0.0381704)
(0.000305001 5.31103e-05 0.00715551)
(0.000110078 -0.00241444 0.0240524)
(-0.000143281 -0.000136023 0.0292473)
(-0.000350643 0.00117712 0.0381784)
(0.0156714 -0.000390148 0.0360933)
(-0.00017904 0.00172516 0.040622)
(-1.85803e-05 -0.000218025 0.0318053)
(-0.00070553 0.000878032 0.0314536)
(0.00117946 -0.00134791 0.0252966)
(-1.92163e-05 0.00308205 0.0227714)
(-0.000396265 0.00178875 0.0287265)
(-0.0012816 0.000473856 0.0223548)
(-0.00402859 0.000142091 0.0630899)
(0.00229398 0.00449707 0.0441657)
(-0.00234207 0.000839868 0.0301642)
(-0.00338456 -0.00111255 0.0427617)
(0.000193535 -0.000216052 0.0120785)
(-0.00138688 0.000437817 0.0153793)
(-0.00179437 -0.000434551 0.0239464)
(-0.00324806 0.001428 0.0201557)
(-0.000255978 0.000423889 0.00732378)
(-0.00268907 0.000258585 0.0272805)
(-0.00305501 0.000741644 0.0311265)
(-0.00117337 3.29734e-05 0.0140524)
(-0.00194783 0.0028304 0.0243999)
(-0.000201533 0.000487349 0.0204861)
(-0.0021648 0.000910425 0.0203801)
(-0.00301531 -0.00029083 0.0349791)
(0.000304343 0.00347769 0.0179486)
(-0.00567311 0.00324755 0.0397339)
(-0.00367462 0.00240947 0.0297912)
(0.00175282 0.00263784 0.0256927)
(0.000152967 0.00105723 0.00663596)
(0.00024241 0.000878805 0.0136384)
(8.63802e-05 0.000529902 0.018583)
(0.000256774 0.00109796 0.0242781)
(-0.000271391 0.00162366 0.0176369)
(5.59751e-05 6.44394e-05 0.0251648)
(0.000797787 0.000394714 0.0183927)
(3.70463e-05 0.000330015 0.0164687)
(-0.000202825 0.000217277 0.0179217)
(0.000398425 0.000523693 0.0182143)
(-0.000256273 0.000400962 0.0198851)
(-0.000573675 0.00038105 0.0156894)
(8.75217e-05 0.00112221 0.0288715)
(-0.000380715 -0.00239025 0.0300135)
(0.000793034 0.000320451 0.0169231)
(0.000815042 0.0007256 0.0153501)
(0.000461596 0.000848036 0.00877426)
(0.00101411 0.000895923 0.0200119)
(0.000492035 0.000690989 0.0223646)
(-0.000839867 0.00117082 0.0315138)
(-0.00183443 0.00224865 0.0644903)
(0.000328886 0.00110179 0.0281053)
(0.000298141 0.000919376 0.0234774)
(4.59754e-05 0.000595802 0.0184454)
(-0.00107599 0.00167602 0.0250486)
(8.45839e-05 0.00133149 0.0277613)
(-0.000165205 0.00129348 0.0259426)
(-0.000207123 0.000890344 0.0221185)
(-0.000541148 0.00113833 0.0301016)
(-0.000325579 -0.000349601 0.0426547)
(-0.00037784 0.00107315 0.0236557)
(-0.000245734 0.000998348 0.0171286)
(-0.000748195 0.00165812 0.0138563)
(0.000746013 0.000474059 0.00872119)
(-0.00032655 -1.76774e-05 0.00817275)
(-0.00353382 -0.000472086 0.0102769)
(-0.000109769 -0.000379108 0.0172281)
(0.0003785 -0.00052439 0.00880054)
(0.000992927 0.000135524 0.0076426)
(-0.00116708 0.00106882 0.00743197)
(-0.00157525 0.00309046 0.00990977)
(0.000837078 -0.00172815 0.00916363)
(0.00112064 -0.000511162 0.00768809)
(-0.000697131 -0.000336969 0.00709105)
(-0.000351715 0.000372744 0.00867882)
(0.00108365 -0.00288243 0.011885)
(0.00206611 -0.00126007 0.00780165)
(-0.000415671 -0.000998259 0.00672027)
(-0.000248757 -9.09518e-05 0.00765522)
(0.000467357 0.000255507 0.0176485)
(-2.61817e-05 0.000156909 0.0174579)
(-0.00143738 -3.93761e-05 0.0182061)
(-0.000263321 7.49781e-05 0.0212598)
(0.000332983 -3.70363e-05 0.017596)
(0.000418228 0.000245566 0.0170201)
(-0.00064956 0.000656194 0.016775)
(-0.000703773 0.00144905 0.0183176)
(0.000462831 -0.00059287 0.0181815)
(0.000571395 -0.000191988 0.0173464)
(-0.000302441 -3.77733e-05 0.0168855)
(-0.000255038 0.000378056 0.0177898)
(0.000321865 -0.000854598 0.0193345)
(0.000804485 -0.000540624 0.0175844)
(-0.000160858 -0.000515585 0.016873)
(-0.000194001 -0.000201093 0.0175266)
(0.000245659 3.49028e-05 0.0156013)
(7.80946e-05 3.08862e-05 0.0155105)
(-0.000447676 -3.34356e-05 0.0157305)
(-0.000129198 -1.24436e-05 0.0167743)
(0.000205103 -9.43781e-05 0.0154356)
(0.000199413 3.12158e-05 0.015217)
(-0.000254525 0.000169782 0.0151502)
(-0.000287308 0.000411036 0.0157685)
(0.00029855 -0.000417044 0.0155997)
(0.000295778 -0.000251305 0.015278)
(-0.000107569 -0.000164059 0.0150933)
(-0.000137956 1.49089e-05 0.0154364)
(0.000281338 -0.000560093 0.0158322)
(0.000379565 -0.000441215 0.0153156)
(-3.37232e-05 -0.000407692 0.0150609)
(-9.52591e-05 -0.000293565 0.015286)
(0.000139332 -5.4379e-06 0.0162295)
(7.02005e-05 -3.52544e-06 0.0162005)
(-0.000133269 -2.37329e-05 0.0162471)
(-6.31474e-05 -2.39534e-05 0.0165827)
(0.000103248 -4.66753e-05 0.0161419)
(8.93089e-05 -1.34897e-05 0.0160715)
(-9.45657e-05 2.36829e-05 0.0160461)
(-0.000123399 9.23836e-05 0.0162825)
(0.000129322 -0.000187987 0.0162291)
(0.000119634 -0.000152988 0.0161096)
(-4.68255e-05 -0.000129871 0.0160396)
(-7.49925e-05 -6.74335e-05 0.016182)
(7.5043e-05 -0.000237153 0.0163296)
(0.000116423 -0.000244652 0.016158)
(-3.06402e-05 -0.000253521 0.0160641)
(-5.54947e-05 -0.000224952 0.016159)
(7.76588e-05 -2.17575e-05 0.0162729)
(4.59815e-05 -2.19248e-05 0.0162713)
(-3.33782e-05 -2.86956e-05 0.0162834)
(-2.91036e-05 -3.22959e-05 0.0163964)
(5.38745e-05 -4.3008e-05 0.0162196)
(4.28318e-05 -3.62569e-05 0.0162121)
(-2.98862e-05 -2.72446e-05 0.0162103)
(-4.94867e-05 -8.82875e-06 0.0163013)
(6.46256e-05 -0.000112382 0.0162373)
(5.38842e-05 -0.000102365 0.0162178)
(-1.37944e-05 -9.48134e-05 0.0162058)
(-3.37124e-05 -7.34929e-05 0.0162693)
(4.09081e-05 -0.000145003 0.0162406)
(4.74774e-05 -0.000150162 0.0162243)
(-1.03876e-05 -0.000153781 0.0162146)
(-2.39935e-05 -0.000146243 0.016265)
(4.18284e-05 -2.3449e-05 0.0162969)
(2.68834e-05 -2.55298e-05 0.0163078)
(-4.75239e-06 -2.91366e-05 0.0163166)
(-1.14583e-05 -3.26641e-05 0.0163574)
(2.70564e-05 -3.42811e-05 0.0162696)
(2.04891e-05 -3.63891e-05 0.0162833)
(-7.84537e-06 -3.59907e-05 0.0162913)
(-1.89083e-05 -3.25628e-05 0.0163288)
(2.86887e-05 -6.6202e-05 0.0162669)
(2.2607e-05 -6.63901e-05 0.0162791)
(-3.70453e-06 -6.51941e-05 0.0162859)
(-1.40891e-05 -5.9368e-05 0.0163155)
(1.45352e-05 -8.23386e-05 0.0162497)
(1.64094e-05 -8.84724e-05 0.0162705)
(-4.42927e-06 -9.15348e-05 0.0162824)
(-9.87018e-06 -9.05967e-05 0.0163096)
(2.26203e-05 -2.11994e-05 0.0163124)
(1.53537e-05 -2.36481e-05 0.0163307)
(2.42026e-06 -2.62184e-05 0.0163413)
(-3.88848e-06 -2.8831e-05 0.0163581)
(1.38503e-05 -2.7175e-05 0.0162962)
(1.04734e-05 -3.06202e-05 0.016319)
(-5.39131e-07 -3.21495e-05 0.0163319)
(-6.82075e-06 -3.24123e-05 0.0163495)
(1.26223e-05 -4.15704e-05 0.0162829)
(9.7162e-06 -4.37122e-05 0.0163092)
(-2.10747e-07 -4.46513e-05 0.0163242)
(-5.36196e-06 -4.37153e-05 0.0163409)
(4.95553e-06 -4.93619e-05 0.0162531)
(5.41895e-06 -5.34259e-05 0.0162898)
(-1.80743e-06 -5.55641e-05 0.0163107)
(-3.51142e-06 -5.63826e-05 0.0163287)
(1.22104e-05 -1.77627e-05 0.0163201)
(8.7219e-06 -1.99197e-05 0.0163426)
(3.23846e-06 -2.18099e-05 0.0163549)
(-8.55784e-07 -2.34928e-05 0.016364)
(7.21347e-06 -2.10644e-05 0.0163086)
(5.67601e-06 -2.38261e-05 0.0163353)
(1.26465e-06 -2.54024e-05 0.0163502)
(-2.19948e-06 -2.62476e-05 0.0163606)
(5.46757e-06 -2.73139e-05 0.0162901)
(4.31642e-06 -2.94026e-05 0.0163221)
(6.24193e-07 -3.06827e-05 0.0163404)
(-1.82742e-06 -3.10001e-05 0.016352)
(1.11036e-06 -3.06628e-05 0.0162543)
(1.53821e-06 -3.32738e-05 0.0162963)
(-7.34154e-07 -3.4718e-05 0.0163206)
(-1.07335e-06 -3.56282e-05 0.0163347)
(6.6352e-06 -1.42486e-05 0.0163238)
(5.04393e-06 -1.59343e-05 0.0163487)
(2.57823e-06 -1.72558e-05 0.0163621)
(2.5846e-07 -1.83188e-05 0.0163689)
(3.835e-06 -1.5965e-05 0.0163138)
(3.17768e-06 -1.78828e-05 0.0163423)
(1.33568e-06 -1.91197e-05 0.0163581)
(-4.95253e-07 -1.98297e-05 0.0163662)
(2.3305e-06 -1.85566e-05 0.0162927)
(1.97557e-06 -2.01468e-05 0.0163269)
(6.23851e-07 -2.12135e-05 0.0163464)
(-4.80038e-07 -2.16831e-05 0.0163563)
(-2.18937e-07 -1.97311e-05 0.0162535)
(2.24428e-07 -2.14148e-05 0.0162974)
(-2.99606e-07 -2.23434e-05 0.0163228)
(-2.213e-07 -2.2987e-05 0.0163355)
(3.67443e-06 -1.1082e-05 0.0163257)
(2.95804e-06 -1.22995e-05 0.0163519)
(1.78269e-06 -1.32103e-05 0.0163659)
(5.59517e-07 -1.38945e-05 0.0163722)
(2.04249e-06 -1.18885e-05 0.0163159)
(1.7953e-06 -1.31946e-05 0.0163453)
(1.0092e-06 -1.40509e-05 0.0163615)
(9.55781e-08 -1.4544e-05 0.0163689)
(8.9326e-07 -1.28517e-05 0.0162933)
(9.01354e-07 -1.39725e-05 0.0163284)
(4.70714e-07 -1.47379e-05 0.0163485)
(-6.49318e-09 -1.51227e-05 0.0163578)
(-6.1706e-07 -1.30355e-05 0.0162521)
(-1.9973e-07 -1.41072e-05 0.0162967)
(-1.39175e-07 -1.47316e-05 0.0163225)
(4.76503e-08 -1.51451e-05 0.0163347)
(2.08398e-06 -8.395e-06 0.0163267)
(1.77414e-06 -9.24244e-06 0.0163535)
(1.19485e-06 -9.85066e-06 0.0163679)
(5.44574e-07 -1.02953e-05 0.0163741)
(1.08506e-06 -8.72905e-06 0.0163166)
(1.03708e-06 -9.60217e-06 0.0163465)
(7.06907e-07 -1.01814e-05 0.0163629)
(2.53055e-07 -1.0514e-05 0.0163702)
(2.69785e-07 -8.98196e-06 0.016293)
(4.12168e-07 -9.74126e-06 0.0163286)
(3.24279e-07 -1.02721e-05 0.0163489)
(1.36469e-07 -1.05529e-05 0.0163581)
(-6.4196e-07 -8.76483e-06 0.0162506)
(-2.88346e-07 -9.46059e-06 0.0162955)
(-7.42963e-08 -9.87781e-06 0.0163215)
(1.14669e-07 -1.01483e-05 0.0163334)
(1.21766e-06 -6.18842e-06 0.0163271)
(1.09925e-06 -6.76733e-06 0.0163543)
(8.17379e-07 -7.16591e-06 0.0163689)
(4.32609e-07 -7.44338e-06 0.0163751)
(5.8211e-07 -6.29449e-06 0.0163167)
(6.18947e-07 -6.87686e-06 0.0163469)
(4.9722e-07 -7.27082e-06 0.0163634)
(2.5798e-07 -7.50265e-06 0.0163707)
(2.14116e-08 -6.26185e-06 0.0162925)
(1.92258e-07 -6.76675e-06 0.0163283)
(2.26131e-07 -7.13204e-06 0.0163487)
(1.61052e-07 -7.33668e-06 0.0163578)
(-5.417e-07 -5.92575e-06 0.0162493)
(-2.59027e-07 -6.38723e-06 0.0162943)
(-3.92906e-08 -6.66689e-06 0.0163203)
(1.17919e-07 -6.85217e-06 0.0163322)
(7.41939e-07 -4.39758e-06 0.0163272)
(7.11601e-07 -4.78545e-06 0.0163546)
(5.84401e-07 -5.04527e-06 0.0163693)
(3.32438e-07 -5.21126e-06 0.0163756)
(3.33244e-07 -4.4022e-06 0.0163166)
(3.94402e-07 -4.78951e-06 0.0163469)
(3.66969e-07 -5.05784e-06 0.0163635)
(2.29002e-07 -5.22438e-06 0.0163707)
(-4.49974e-08 -4.27802e-06 0.0162919)
(1.06099e-07 -4.61253e-06 0.0163278)
(1.75718e-07 -4.86162e-06 0.0163482)
(1.56397e-07 -5.01131e-06 0.0163574)
(-3.99975e-07 -3.95515e-06 0.0162483)
(-1.87719e-07 -4.26346e-06 0.0162933)
(-3.44195e-09 -4.45384e-06 0.0163193)
(1.13663e-07 -4.58469e-06 0.0163312)
(4.86825e-07 -2.92778e-06 0.0163272)
(4.95972e-07 -3.17736e-06 0.0163547)
(4.5038e-07 -3.34413e-06 0.0163695)
(2.88925e-07 -3.44309e-06 0.0163758)
(2.29406e-07 -2.89683e-06 0.0163164)
(2.91154e-07 -3.14691e-06 0.0163467)
(3.03521e-07 -3.32451e-06 0.0163634)
(2.22749e-07 -3.44289e-06 0.0163706)
(-1.64061e-08 -2.7695e-06 0.0162914)
(1.02648e-07 -2.98533e-06 0.0163273)
(1.73012e-07 -3.15021e-06 0.0163478)
(1.6951e-07 -3.25673e-06 0.0163569)
(-2.38539e-07 -2.51737e-06 0.0162475)
(-8.55342e-08 -2.71699e-06 0.0162925)
(5.36486e-08 -2.8452e-06 0.0163185)
(1.33487e-07 -2.93828e-06 0.0163304)
(3.74857e-07 -1.7001e-06 0.0163271)
(4.04405e-07 -1.84436e-06 0.0163547)
(4.02056e-07 -1.94282e-06 0.0163695)
(3.17966e-07 -2.00021e-06 0.0163758)
(2.28268e-07 -1.66694e-06 0.0163162)
(2.84987e-07 -1.81383e-06 0.0163465)
(3.12476e-07 -1.92114e-06 0.0163632)
(2.74716e-07 -1.99633e-06 0.0163705)
(8.55176e-08 -1.57337e-06 0.016291)
(1.72776e-07 -1.70204e-06 0.016327)
(2.32225e-07 -1.80307e-06 0.0163474)
(2.37966e-07 -1.87228e-06 0.0163566)
(-4.21546e-08 -1.41359e-06 0.016247)
(6.12493e-08 -1.52961e-06 0.0162919)
(1.57969e-07 -1.61239e-06 0.016318)
(2.10372e-07 -1.67593e-06 0.0163298)
(3.54061e-07 -8.13647e-07 0.016327)
(3.97989e-07 -8.84493e-07 0.0163546)
(4.23773e-07 -9.32472e-07 0.0163695)
(4.05809e-07 -9.60379e-07 0.0163758)
(2.86404e-07 -7.9003e-07 0.0163159)
(3.41355e-07 -8.64932e-07 0.0163463)
(3.80862e-07 -9.2016e-07 0.0163631)
(3.8273e-07 -9.59268e-07 0.0163703)
(2.14877e-07 -7.34595e-07 0.0162907)
(2.83318e-07 -8.046e-07 0.0163267)
(3.38409e-07 -8.61911e-07 0.0163472)
(3.59951e-07 -9.02512e-07 0.0163563)
(1.47222e-07 -6.45229e-07 0.0162466)
(2.23472e-07 -7.10154e-07 0.0162915)
(2.9553e-07 -7.65366e-07 0.0163176)
(3.38656e-07 -8.08631e-07 0.0163295)
(-0.00187506 0.000488888 0.0296407)
(-0.000431975 -0.00173682 0.010592)
(-0.00212481 -0.00398145 0.0344873)
(-4.03232e-06 -0.00132554 0.0092532)
(-0.00252199 -0.00137592 0.0159545)
(-0.00185235 0.000110975 0.0151287)
(-0.00115559 -0.000762603 0.0178486)
(0.00013632 -1.8343e-05 0.018144)
(-0.000880017 6.1815e-05 0.0192612)
(-0.00142584 0.00179492 0.0226934)
(-0.00264029 0.00217484 0.0215048)
(0.000356969 0.00114862 0.0193218)
(-0.00332948 -0.000858946 0.028353)
(-8.07546e-05 -0.00116513 0.014855)
(-0.00198127 0.000889456 0.0248311)
(0.000276563 -0.00064546 0.0208254)
(-0.000865992 -0.000625769 0.0368417)
(-0.00309167 -0.000944273 0.0535432)
(0.00205333 -0.00160948 0.0250079)
(-0.000172105 0.00134304 0.0421508)
(3.88147e-05 0.00272318 0.0521672)
(7.80159e-06 0.000214621 0.00598109)
(-3.24047e-05 0.00184929 0.0204566)
(0.00139195 -0.00217333 0.0211095)
(-0.000789778 -0.00107345 0.0281382)
(-0.00128217 0.00151438 0.0604782)
(-0.000851988 1.04367e-06 0.0360272)
(-0.000693897 -0.00143188 0.0325986)
(0.000307164 -0.00105119 0.0257657)
(-0.00136315 0.000317039 0.0331167)
(-0.00176435 -0.00132677 0.0408747)
(0.000912962 -0.000142303 0.0245063)
(-0.000677322 0.000588431 0.019797)
(0.00148803 0.00820157 0.0402093)
(0.00322163 0.000614206 0.0343454)
(0.00160387 0.00057805 0.0537043)
(0.0011976 0.00198624 0.0219545)
(0.00294633 0.00125466 0.0255274)
(0.000882714 0.00120087 0.0262717)
(-0.000943643 -0.000965136 0.0295391)
(-0.0013621 0.00266487 0.0390203)
(0.00304029 -0.00214546 0.0270691)
(0.00148017 0.000228381 0.0467688)
(-0.000825941 0.000529392 0.0260944)
(-0.00132939 -0.000203295 0.0456408)
(-0.000522189 0.000809398 0.0457139)
(0.00243511 -0.000580275 0.0335476)
(-0.00227901 0.0021132 0.0314861)
(0.000232684 -5.28341e-05 0.022253)
(-0.000812427 -0.000715503 0.0324252)
(-0.00022429 -0.000220204 0.0182765)
(-0.000593429 0.00230097 0.0570073)
(0.00259069 -0.00487466 0.0348146)
(0.00151222 0.00206823 0.0579523)
(0.000949306 -0.000859535 0.0176754)
(0.00114979 0.00238941 0.0411544)
(0.00270773 -0.000913523 0.0408013)
(0.00118911 0.00206904 0.0444901)
(0.00187036 -0.00300993 0.0542636)
(-8.25094e-05 0.000771458 0.0284714)
(0.00164217 0.000530216 0.0406371)
(0.00012064 0.000429746 0.0214634)
(0.00135565 -0.00135951 0.0373064)
(-0.000756968 0.000659461 0.051648)
(4.08731e-05 -0.000452693 0.0623635)
(-0.00229674 -0.00357134 0.0273459)
(-0.00476191 -0.000500986 0.0486286)
(0.0020958 0.00388883 0.0325191)
(0.00106134 -0.00225187 0.0116106)
(-0.0011817 -0.00218439 0.0254811)
(0.00372467 -0.000535658 0.0320928)
(0.000523641 0.000779493 0.0125216)
(0.00174195 -0.00224537 0.018289)
(0.00159106 0.00109288 0.0380715)
(0.00394872 -0.00230048 0.0504404)
(0.00224816 0.00107951 0.0403345)
(0.00122532 0.00196698 0.0370109)
(-0.000193398 0.000990641 0.0636147)
(0.00143326 0.0001887 0.0137849)
(0.000510331 0.0022501 0.0346453)
(0.000276204 -6.97085e-05 0.00507932)
(-0.000630605 0.000766744 0.0166546)
(0.000734085 0.00348259 0.0200579)
(-0.000583179 0.000578813 0.011341)
(0.000314799 -0.00225206 0.030791)
(0.00162399 -0.00035004 0.0293131)
(0.000757608 0.000740159 0.0165903)
(-0.00040742 0.00717391 0.0381719)
(0.00125558 -0.000384432 0.0171904)
(-0.000411722 0.00106054 0.0247487)
(0.00457182 0.000720599 0.030049)
(9.92301e-05 0.000259387 0.00656067)
(0.00281349 7.03876e-05 0.030161)
(0.000140354 0.000542119 0.0133452)
(0.000112978 0.000574927 0.0177976)
(0.00163312 -0.00702917 0.0453194)
(4.31698e-05 0.00114276 0.0112966)
(0.00135308 0.00114009 0.0210678)
(0.000166061 0.000317062 0.0234881)
(0.000756071 -0.000785384 0.0189636)
(-0.000880608 0.00337403 0.0181319)
(-0.000175698 0.000519917 0.016895)
(0.000194632 0.000412591 0.0214273)
(-0.000184541 0.00031554 0.0154304)
(0.000190136 -1.63019e-05 0.0162147)
(0.000131866 -0.000170337 0.0221861)
(0.0003572 0.000345484 0.0269464)
(0.00297234 -0.0015864 -0.0254224)
(0.000577653 -0.00018774 0.0244538)
(0.00303412 -0.00103544 0.0316502)
(0.00102554 0.00026591 0.0119825)
(0.00111495 0.00134757 0.0297203)
(-0.000234932 0.00138692 0.0581994)
(0.000414926 0.00128486 0.0314239)
(0.000293591 0.00110466 0.0280625)
(-0.000603857 0.00260715 0.0257981)
(-0.000394218 0.00193574 0.0372785)
(2.83616e-05 0.000652876 0.0263458)
(0.00130233 0.00134433 0.0293972)
(0.000540425 0.00302096 0.0316094)
(-6.85772e-05 0.000389235 0.027463)
(0.000517939 -0.000308447 0.0323347)
(0.00221343 0.00109672 0.0333547)
(0.000672805 0.000157393 0.048952)
(-0.000141688 -3.1482e-05 0.0298606)
(0.000833894 -0.000196843 0.0369664)
(0.00152739 0.000620794 0.0196442)
(0.00063111 -0.00112912 0.0355999)
(0.000461147 -1.68636e-05 0.0141635)
(0.00235577 -0.000398259 0.00936305)
(0.000309629 -0.00159867 0.00829548)
(-4.58593e-05 -0.00182433 0.00801786)
(-0.00050955 0.00146405 0.0111268)
(0.001304 -0.000189082 0.00870019)
(-0.000680699 -0.00135719 0.00910184)
(-0.00201012 -0.00312247 0.0103006)
(-0.000749781 0.000428823 0.00902399)
(0.00079382 -0.000738026 0.00922344)
(-0.00157041 0.000270017 0.00981097)
(-0.00202946 -0.000879211 0.0127234)
(-0.000599035 -0.0003568 0.00871288)
(0.00129552 2.78703e-05 0.0100816)
(-0.000673358 0.000888852 0.00749299)
(-0.00142882 0.000472748 0.01129)
(6.88231e-05 -0.000159975 0.0202572)
(0.000736668 -0.000457304 0.0186075)
(-2.67493e-05 -0.000954647 0.0179285)
(-0.000245704 -0.00113723 0.0181159)
(-0.000335371 0.000234035 0.0197325)
(0.000350389 -0.000334743 0.018788)
(-0.000454844 -0.000833856 0.0187149)
(-0.000993504 -0.00152867 0.0199447)
(-0.000544151 0.000114185 0.0191132)
(9.11203e-05 -0.000259121 0.0191175)
(-0.000836944 -5.86122e-07 0.0191611)
(-0.0010733 -0.000445218 0.0215644)
(-0.000497903 -0.000192845 0.0188697)
(0.000232222 4.51293e-06 0.0193446)
(-0.000584184 0.000247783 0.0179668)
(-0.000781319 0.000124741 0.0205803)
(0.000167498 -0.000356037 0.0160237)
(0.000374512 -0.000406225 0.015637)
(4.60816e-06 -0.000576375 0.0154424)
(-0.000118715 -0.000679495 0.0155787)
(2.9137e-06 -0.000198712 0.0159135)
(0.000265511 -0.000307573 0.0157604)
(-0.000154189 -0.000491584 0.0157747)
(-0.0003448 -0.000777605 0.0162767)
(-9.86945e-05 -0.000181292 0.0156954)
(0.000185056 -0.000226252 0.0158289)
(-0.000299337 -0.000183691 0.0158874)
(-0.000397536 -0.00038652 0.0167919)
(-0.000158622 -0.000186353 0.0154763)
(0.0001841 -4.50341e-05 0.0157567)
(-0.000264252 -2.49206e-05 0.0153865)
(-0.000315119 -7.93194e-05 0.0164448)
(2.19522e-05 -0.000206074 0.0164306)
(8.39156e-05 -0.000260233 0.0162979)
(-4.31527e-05 -0.000335434 0.0162216)
(-6.53433e-05 -0.000392478 0.0163046)
(-4.80445e-05 -0.000164888 0.0164233)
(3.58881e-05 -0.000217752 0.0163622)
(-0.000113959 -0.000285294 0.016345)
(-0.000131843 -0.000402255 0.0165644)
(-0.000109629 -0.000125082 0.016348)
(-7.71566e-06 -0.000135352 0.0163685)
(-0.00018627 -0.000125548 0.0163527)
(-0.000156727 -0.000209226 0.0167245)
(-0.000143871 -0.000119878 0.0162531)
(-2.1945e-05 -5.41315e-05 0.0163168)
(-0.000198253 -4.40401e-05 0.0161656)
(-0.000141216 -5.30966e-05 0.0166203)
(1.42283e-05 -0.000133765 0.0162397)
(3.30324e-05 -0.000156443 0.0162528)
(-1.955e-05 -0.000184513 0.0162611)
(-2.45548e-05 -0.000210417 0.0163208)
(-1.65831e-05 -0.000116914 0.0161981)
(1.30406e-05 -0.000135002 0.0162468)
(-5.06686e-05 -0.000159575 0.0162819)
(-4.26986e-05 -0.000205858 0.0163999)
(-4.44012e-05 -9.64039e-05 0.016116)
(-5.27157e-06 -9.20773e-05 0.0161948)
(-8.31538e-05 -9.11248e-05 0.0162325)
(-5.30948e-05 -0.000125258 0.0164153)
(-7.05614e-05 -7.87444e-05 0.0159981)
(-2.01038e-05 -4.28062e-05 0.0160873)
(-9.81808e-05 -4.08898e-05 0.0160803)
(-5.34806e-05 -4.04929e-05 0.0163082)
(1.45367e-06 -7.64916e-05 0.0162225)
(8.21595e-06 -8.94289e-05 0.0162588)
(-1.02838e-05 -0.000102039 0.0162815)
(-8.50038e-06 -0.000113963 0.0163169)
(-1.34646e-05 -6.86387e-05 0.0161696)
(-1.63067e-06 -7.80792e-05 0.0162201)
(-2.40235e-05 -8.7665e-05 0.0162542)
(-1.32004e-05 -0.000107434 0.0163157)
(-2.79422e-05 -5.65294e-05 0.0160876)
(-1.13847e-05 -5.51202e-05 0.0161464)
(-3.89219e-05 -5.54719e-05 0.0161804)
(-1.7166e-05 -7.08016e-05 0.0162698)
(-4.28249e-05 -4.62852e-05 0.0159791)
(-2.21411e-05 -2.9211e-05 0.0160345)
(-4.99241e-05 -2.65038e-05 0.0160507)
(-1.93426e-05 -2.49045e-05 0.0161574)
(-1.62302e-06 -4.49852e-05 0.0162096)
(1.05361e-06 -5.22131e-05 0.0162569)
(-5.19442e-06 -5.8084e-05 0.0162863)
(-2.5269e-06 -6.38643e-05 0.0163106)
(-9.02483e-06 -4.07936e-05 0.0161471)
(-4.04128e-06 -4.55105e-05 0.0162006)
(-1.16653e-05 -4.9528e-05 0.0162367)
(-3.7764e-06 -5.80355e-05 0.0162735)
(-1.62392e-05 -3.37083e-05 0.0160591)
(-9.15015e-06 -3.27816e-05 0.0161141)
(-1.86786e-05 -3.27685e-05 0.0161503)
(-5.16717e-06 -3.92779e-05 0.0161994)
(-2.45848e-05 -2.71775e-05 0.0159469)
(-1.55454e-05 -1.82469e-05 0.0159947)
(-2.49121e-05 -1.56247e-05 0.016022)
(-6.48089e-06 -1.40267e-05 0.0160781)
(-2.3096e-06 -2.71179e-05 0.0162029)
(-9.55549e-07 -3.13876e-05 0.0162531)
(-2.66917e-06 -3.43449e-05 0.0162845)
(-5.68731e-07 -3.72135e-05 0.0163037)
(-6.22789e-06 -2.45503e-05 0.0161359)
(-3.81585e-06 -2.70849e-05 0.0161883)
(-5.93821e-06 -2.88894e-05 0.0162243)
(-9.24499e-07 -3.26641e-05 0.0162502)
(-9.99095e-06 -2.01266e-05 0.016045)
(-6.62727e-06 -1.96615e-05 0.0160954)
(-9.36092e-06 -1.94585e-05 0.0161313)
(-1.37698e-06 -2.21866e-05 0.0161628)
(-1.46364e-05 -1.61194e-05 0.0159312)
(-1.0377e-05 -1.1294e-05 0.0159721)
(-1.27335e-05 -9.12895e-06 0.0160012)
(-1.95405e-06 -7.88074e-06 0.0160345)
(-2.06354e-06 -1.69312e-05 0.0161979)
(-1.26504e-06 -1.95093e-05 0.016249)
(-1.39646e-06 -2.10988e-05 0.0162808)
(2.87536e-09 -2.25559e-05 0.0162978)
(-4.23337e-06 -1.52299e-05 0.0161286)
(-2.94174e-06 -1.65747e-05 0.0161798)
(-3.15525e-06 -1.74371e-05 0.0162153)
(-1.25092e-07 -1.91422e-05 0.0162364)
(-6.25238e-06 -1.23529e-05 0.0160359)
(-4.52588e-06 -1.20237e-05 0.0160835)
(-4.85909e-06 -1.17678e-05 0.0161187)
(-2.44848e-07 -1.28673e-05 0.0161425)
(-8.88547e-06 -9.79371e-06 0.0159209)
(-6.70212e-06 -7.00461e-06 0.0159579)
(-6.66613e-06 -5.38057e-06 0.0159871)
(-4.52362e-07 -4.5116e-06 0.0160101)
(-1.63584e-06 -1.08967e-05 0.0161944)
(-1.12631e-06 -1.25047e-05 0.0162455)
(-7.83773e-07 -1.34033e-05 0.0162774)
(1.23844e-07 -1.4137e-05 0.0162933)
(-2.88985e-06 -9.7262e-06 0.0161238)
(-2.14142e-06 -1.04511e-05 0.0161741)
(-1.74973e-06 -1.08683e-05 0.0162091)
(4.83395e-08 -1.16362e-05 0.0162281)
(-4.01096e-06 -7.78702e-06 0.0160302)
(-3.05787e-06 -7.52249e-06 0.016076)
(-2.6348e-06 -7.2822e-06 0.0161105)
(4.92703e-08 -7.70886e-06 0.0161308)
(-5.53813e-06 -6.10488e-06 0.0159146)
(-4.32913e-06 -4.40346e-06 0.0159492)
(-3.6136e-06 -3.23728e-06 0.0159777)
(-8.7833e-10 -2.65307e-06 0.0159962)
(-1.22221e-06 -7.17324e-06 0.0161917)
(-8.83e-07 -8.20051e-06 0.0162428)
(-4.69718e-07 -8.72894e-06 0.0162746)
(1.21622e-07 -9.12316e-06 0.0162901)
(-1.972e-06 -6.36227e-06 0.0161205)
(-1.51006e-06 -6.74945e-06 0.0161702)
(-1.02952e-06 -6.95361e-06 0.0162047)
(6.23467e-08 -7.30854e-06 0.0162227)
(-2.61302e-06 -5.02956e-06 0.0160264)
(-2.04571e-06 -4.81288e-06 0.0160711)
(-1.49932e-06 -4.61303e-06 0.0161051)
(9.42779e-08 -4.75411e-06 0.0161238)
(-3.52557e-06 -3.89558e-06 0.0159103)
(-2.80059e-06 -2.81084e-06 0.0159436)
(-2.03353e-06 -1.99853e-06 0.0159716)
(1.05205e-07 -1.6032e-06 0.015988)
(-8.82659e-07 -4.77585e-06 0.0161897)
(-6.5332e-07 -5.44099e-06 0.0162407)
(-2.91505e-07 -5.76533e-06 0.0162724)
(9.818e-08 -5.99169e-06 0.0162877)
(-1.33522e-06 -4.21693e-06 0.0161181)
(-1.04751e-06 -4.4181e-06 0.0161674)
(-6.34291e-07 -4.52392e-06 0.0162017)
(4.88526e-08 -4.69176e-06 0.0162193)
(-1.70979e-06 -3.29557e-06 0.0160237)
(-1.35888e-06 -3.12738e-06 0.0160679)
(-8.89303e-07 -2.96762e-06 0.0161014)
(7.74396e-08 -3.00191e-06 0.0161194)
(-2.27083e-06 -2.52096e-06 0.0159075)
(-1.81104e-06 -1.81525e-06 0.0159399)
(-1.18553e-06 -1.25657e-06 0.0159675)
(1.07535e-07 -9.971e-07 0.015983)
(-6.0465e-07 -3.15696e-06 0.0161882)
(-4.53641e-07 -3.58887e-06 0.0162391)
(-1.71237e-07 -3.79123e-06 0.0162708)
(8.7607e-08 -3.93132e-06 0.016286)
(-8.78159e-07 -2.78142e-06 0.0161165)
(-7.00105e-07 -2.88232e-06 0.0161655)
(-3.87709e-07 -2.93967e-06 0.0161996)
(4.64994e-08 -3.02804e-06 0.0162169)
(-1.09961e-06 -2.15062e-06 0.0160219)
(-8.81714e-07 -2.02489e-06 0.0160657)
(-5.30879e-07 -1.91366e-06 0.0160989)
(6.70649e-08 -1.91186e-06 0.0161166)
(-1.44765e-06 -1.62153e-06 0.0159056)
(-1.1548e-06 -1.16372e-06 0.0159375)
(-6.97479e-07 -7.95152e-07 0.0159648)
(9.818e-08 -6.25867e-07 0.0159798)
(-3.60855e-07 -1.99474e-06 0.0161872)
(-2.60588e-07 -2.26823e-06 0.016238)
(-5.90241e-08 -2.39626e-06 0.0162697)
(1.08167e-07 -2.48735e-06 0.0162848)
(-5.23493e-07 -1.75343e-06 0.0161153)
(-4.12947e-07 -1.80578e-06 0.0161642)
(-1.95435e-07 -1.84202e-06 0.0161982)
(7.59085e-08 -1.89472e-06 0.0162154)
(-6.53966e-07 -1.34018e-06 0.0160207)
(-5.18028e-07 -1.25806e-06 0.0160642)
(-2.77641e-07 -1.19032e-06 0.0160973)
(8.80523e-08 -1.18541e-06 0.0161148)
(-8.67545e-07 -9.90521e-07 0.0159042)
(-6.80997e-07 -7.09081e-07 0.0159359)
(-3.7145e-07 -4.81308e-07 0.0159631)
(1.11337e-07 -3.82064e-07 0.0159778)
(-1.13542e-07 -1.1075e-06 0.0161865)
(-4.30704e-08 -1.26626e-06 0.0162373)
(8.57197e-08 -1.34769e-06 0.0162689)
(1.87853e-07 -1.40849e-06 0.0162841)
(-2.08214e-07 -9.61221e-07 0.0161146)
(-1.34267e-07 -9.96008e-07 0.0161633)
(4.01506e-09 -1.02605e-06 0.0161973)
(1.63431e-07 -1.06535e-06 0.0162145)
(-2.83812e-07 -7.1854e-07 0.0160199)
(-1.94993e-07 -6.78859e-07 0.0160633)
(-4.31562e-08 -6.53625e-07 0.0160963)
(1.67015e-07 -6.62077e-07 0.0161137)
(-4.07384e-07 -5.03768e-07 0.0159034)
(-2.87298e-07 -3.55648e-07 0.0159349)
(-9.4514e-08 -2.43311e-07 0.015962)
(1.80198e-07 -2.05547e-07 0.0159767)
(9.86571e-08 -4.98643e-07 0.016186)
(1.63269e-07 -5.8515e-07 0.0162368)
(2.49552e-07 -6.38195e-07 0.0162684)
(3.18385e-07 -6.79903e-07 0.0162836)
(3.68835e-08 -4.05398e-07 0.0161141)
(1.04632e-07 -4.42246e-07 0.0161628)
(2.01288e-07 -4.72996e-07 0.0161967)
(2.991e-07 -5.09984e-07 0.0162139)
(-1.18046e-08 -2.71245e-07 0.0160194)
(6.23877e-08 -2.7085e-07 0.0160627)
(1.69888e-07 -2.77361e-07 0.0160957)
(2.93701e-07 -3.06612e-07 0.0161131)
(-6.80233e-08 -1.42054e-07 0.0159028)
(1.84757e-08 -9.10859e-08 0.0159343)
(1.4499e-07 -6.23118e-08 0.0159613)
(2.97229e-07 -7.87803e-08 0.015976)
(0.00105364 0.00155607 0.0266082)
(-0.00159401 0.000470443 0.0331159)
(4.57211e-05 -0.000610922 0.0164322)
(0.0027706 0.000633236 0.0241019)
(0.000323006 0.00182371 0.011233)
(-0.000354694 0.00328906 0.0254181)
(0.000685548 0.00280291 0.0153512)
(0.00228466 0.00417141 0.022918)
(-0.00207121 0.00399496 0.0231534)
(-0.00606682 0.00519057 0.0252601)
(-0.000763706 0.0022036 0.0144116)
(-0.000266971 0.00185993 0.0277195)
(-0.00277257 -0.00172894 0.0191583)
(-0.000702164 -0.000358244 0.00620654)
(-0.00128281 0.00134966 0.0345991)
(-0.000942765 0.000272043 0.0151544)
(-5.39321e-05 0.000712219 0.00576089)
(-0.000544338 0.00115902 0.0195354)
(-0.00089088 0.000558331 0.0043394)
(-0.000728057 -0.000448172 0.01441)
(-0.000250157 -1.56074e-05 0.0440476)
(-0.000840425 -0.000411803 0.0184291)
(-0.00378899 -0.00125555 0.0410533)
(-0.000921151 -0.000938668 0.0329277)
(-0.00583064 0.00200579 0.0593648)