/*--------------------------------*- C++ -*----------------------------------*\
| =========                 |                                                 |
| \\      /  F ield         | OpenFOAM: The Open Source CFD Toolbox           |
|  \\    /   O peration     | Version:  2506                                  |
|   \\  /    A nd           | Website:  www.openfoam.com                      |
|    \\/     M anipulation  |                                                 |
\*---------------------------------------------------------------------------*/
FoamFile
{
    version     2.0;
    format      ascii;
    arch        "LSB;label=32;scalar=64";
    class       volVectorField;
    location    "0.08";
    object      Us;
}
// * * * * * * * * * * * * * * * * * * * * * * * * * * * * * * * * * * * * * //

dimensions      [0 1 -1 0 0 0 0];

internalField   nonuniform List<vector> 
1152
(
(-0.0001837 0.000236139 -0.000306182)
(9.07636e-05 -0.000211265 -7.91498e-05)
(0.000161768 -0.000214056 -0.000314338)
(0.000558259 6.48086e-05 -0.000656905)
(5.20734e-05 0.000361644 -0.000280147)
(0.000187964 0.000338114 -0.000190454)
(1.71602e-05 -0.000165551 -0.00054105)
(0.00032067 -0.000466944 -0.000108286)
(-0.000229024 0.000275379 -0.000240025)
(-0.000431702 0.000554556 -0.000869999)
(0.000223905 -0.000147842 -0.000542187)
(0.000514143 -0.000434396 -6.19535e-05)
(-0.000398021 0.000143277 -0.000796034)
(-0.00122831 0.00142819 -0.00247592)
(-0.00018462 -0.000472827 -0.000583619)
(0.000734506 -0.000849383 2.69797e-05)
(-0.00030416 1.7545e-05 0.00529285)
(5.10108e-05 -0.000187629 0.00469038)
(0.00142979 -0.000192172 0.00417055)
(-0.000383331 -0.000193134 0.0020748)
(-7.92405e-05 -0.000828552 0.00326887)
(0.000288878 -0.00112687 0.00506019)
(0.0012632 -0.000398351 0.00358316)
(0.000881802 -0.00184437 0.00366367)
(-0.000498201 -0.000111693 0.00383038)
(-0.000162659 -0.00123607 0.00349956)
(0.000296548 -0.000739425 0.000939104)
(0.000979127 -0.00231002 0.00397554)
(-0.000723562 0.000128261 0.00424758)
(-0.00163279 -0.000324078 0.00482352)
(-5.66344e-05 -0.00173161 0.00346543)
(0.000710946 -0.000787448 0.00260394)
(-8.18347e-05 -0.000307397 0.0069486)
(3.38632e-05 -0.000220734 0.00611727)
(-0.000501085 4.38231e-06 0.00653929)
(-0.0001275 0.000281626 0.00635903)
(-0.000537594 -0.000482542 0.00681165)
(3.29553e-05 -0.000253356 0.00623014)
(-0.000336283 0.000355358 0.00585135)
(-0.000207186 0.000202191 0.00593316)
(-0.000887663 -0.000634078 0.00571389)
(-0.000278515 -0.000341747 0.0062309)
(-0.000515461 -0.000133157 0.00545927)
(-0.000366656 -0.000519922 0.00573727)
(-0.000368227 -0.000436351 0.00535911)
(0.000417672 -0.000555551 0.00543502)
(0.000927872 -0.000450749 0.00542108)
(0.000119843 -0.000445011 0.00512507)
(-1.54894e-05 -0.000449557 0.00661328)
(-0.000360695 -9.17339e-05 0.00590871)
(-0.0011722 -0.000117184 0.0064788)
(-0.000574727 0.000195782 0.00676024)
(-0.000584542 -0.000539545 0.00632168)
(-0.00037166 -3.35958e-05 0.00620692)
(-0.000561571 -4.65206e-05 0.0060332)
(-0.00173969 0.000492649 0.00670136)
(-0.000637285 -0.000339832 0.00617294)
(-0.000318055 0.000141982 0.00585151)
(-0.000282131 0.000280128 0.00567051)
(-0.000135426 1.54982e-06 0.00562035)
(-0.000393268 -0.00032401 0.00560615)
(-4.92661e-05 5.08534e-05 0.0050234)
(0.000938591 0.000164252 0.0053846)
(0.000330305 0.00021329 0.00522083)
(-0.000316359 -4.43563e-05 0.00656316)
(-0.000291002 -4.15654e-06 0.00657014)
(-0.000402989 -9.6552e-05 0.00660165)
(-0.000235831 -7.60807e-05 0.00683887)
(-0.00018244 0.000470261 0.00619437)
(-0.000257334 0.000166333 0.00616074)
(-0.000342187 0.000175479 0.00598959)
(0.000104818 4.60606e-05 0.00651288)
(-0.000397073 0.0012493 0.00613391)
(-0.000235449 0.000303411 0.00571974)
(-0.00041462 0.000423741 0.00560485)
(-0.000179026 0.000465284 0.00605989)
(-0.000156456 0.000588587 0.0057736)
(0.00029347 0.000273253 0.0050082)
(3.75998e-05 -1.68563e-05 0.00523109)
(0.000285724 -8.25004e-05 0.00554514)
(3.60719e-05 0.000358039 0.00664487)
(7.76761e-06 0.000463642 0.00650055)
(-0.000241261 0.000510056 0.00666697)
(3.50597e-05 0.000301819 0.00671297)
(9.5706e-05 0.000279614 0.00627807)
(4.52243e-05 0.000493276 0.00625461)
(-0.000128727 0.000514389 0.00588548)
(0.000291678 0.000728927 0.00623813)
(0.000223639 0.000391977 0.00543974)
(0.000178313 0.000557017 0.00577943)
(0.000318813 0.000174043 0.00560238)
(0.000204866 0.000866703 0.00574367)
(0.000150499 0.000475823 0.00501277)
(0.000219305 0.000298263 0.00510766)
(0.000252938 6.49572e-05 0.00540178)
(0.00015195 0.000808523 0.00550205)
(0.000103931 0.000755749 0.00662955)
(0.000127697 0.000683488 0.00652572)
(-0.000601186 0.00105323 0.00640672)
(0.000318783 0.00103776 0.0063467)
(0.000479393 0.000445641 0.00627317)
(0.000572738 0.000568862 0.00619114)
(-0.000224088 0.000468473 0.00618472)
(0.000212231 0.00093647 0.00603804)
(0.000408324 0.000742049 0.00551832)
(-0.000246362 0.000381312 0.00483923)
(-0.000523662 0.00045831 0.0050291)
(0.000153363 0.000834241 0.00589204)
(-0.000697932 0.000507433 0.00503106)
(0.000451404 0.000349907 0.00534562)
(0.000481116 0.000833445 0.00555442)
(0.000452563 0.000832322 0.00562166)
(0 0 0)
(0 0 0)
(0 0 0)
(0 0 0)
(0 0 0)
(0 0 0)
(0 0 0)
(0 0 0)
(0 0 0)
(0 0 0)
(0 0 0)
(0 0 0)
(0 0 0)
(0 0 0)
(0 0 0)
(0 0 0)
(0 0 0)
(0 0 0)
(0 0 0)
(0 0 0)
(0 0 0)
(0 0 0)
(0 0 0)
(0 0 0)
(0 0 0)
(0 0 0)
(0 0 0)
(0 0 0)
(0 0 0)
(0 0 0)
(0 0 0)
(0 0 0)
(0 0 0)
(0 0 0)
(0 0 0)
(0 0 0)
(0 0 0)
(0 0 0)
(0 0 0)
(0 0 0)
(0 0 0)
(0 0 0)
(0 0 0)
(0 0 0)
(0 0 0)
(0 0 0)
(0 0 0)
(0 0 0)
(0 0 0)
(0 0 0)
(0 0 0)
(0 0 0)
(0 0 0)
(0 0 0)
(0 0 0)
(0 0 0)
(0 0 0)
(0 0 0)
(0 0 0)
(0 0 0)
(0 0 0)
(0 0 0)
(0 0 0)
(0 0 0)
(0 0 0)
(0 0 0)
(0 0 0)
(0 0 0)
(0 0 0)
(0 0 0)
(0 0 0)
(0 0 0)
(0 0 0)
(0 0 0)
(0 0 0)
(0 0 0)
(0 0 0)
(0 0 0)
(0 0 0)
(0 0 0)
(0 0 0)
(0 0 0)
(0 0 0)
(0 0 0)
(0 0 0)
(0 0 0)
(0 0 0)
(0 0 0)
(0 0 0)
(0 0 0)
(0 0 0)
(0 0 0)
(0 0 0)
(0 0 0)
(0 0 0)
(0 0 0)
(0 0 0)
(0 0 0)
(0 0 0)
(0 0 0)
(0 0 0)
(0 0 0)
(0 0 0)
(0 0 0)
(0 0 0)
(0 0 0)
(0 0 0)
(0 0 0)
(0 0 0)
(0 0 0)
(0 0 0)
(0 0 0)
(0 0 0)
(0 0 0)
(0 0 0)
(0 0 0)
(0 0 0)
(0 0 0)
(0 0 0)
(0 0 0)
(0 0 0)
(0 0 0)
(0 0 0)
(0 0 0)
(0 0 0)
(0 0 0)
(0 0 0)
(0 0 0)
(0 0 0)
(0 0 0)
(0 0 0)
(0 0 0)
(0 0 0)
(0 0 0)
(0 0 0)
(0 0 0)
(0 0 0)
(0 0 0)
(0 0 0)
(0 0 0)
(0 0 0)
(0 0 0)
(0 0 0)
(0 0 0)
(0 0 0)
(0 0 0)
(0 0 0)
(0 0 0)
(0 0 0)
(0 0 0)
(0 0 0)
(0 0 0)
(0 0 0)
(0 0 0)
(0 0 0)
(0 0 0)
(0 0 0)
(0 0 0)
(0 0 0)
(0 0 0)
(0 0 0)
(0 0 0)
(0 0 0)
(0 0 0)
(0 0 0)
(0 0 0)
(0 0 0)
(0 0 0)
(0 0 0)
(0 0 0)
(0 0 0)
(0 0 0)
(0 0 0)
(0 0 0)
(0 0 0)
(0 0 0)
(0 0 0)
(0 0 0)
(0 0 0)
(0 0 0)
(0 0 0)
(0 0 0)
(0 0 0)
(0 0 0)
(0 0 0)
(0 0 0)
(0 0 0)
(0 0 0)
(0 0 0)
(0 0 0)
(0 0 0)
(0 0 0)
(0 0 0)
(0 0 0)
(0 0 0)
(0 0 0)
(0 0 0)
(0 0 0)
(0 0 0)
(0 0 0)
(0 0 0)
(0 0 0)
(0 0 0)
(0 0 0)
(0 0 0)
(0 0 0)
(0 0 0)
(0 0 0)
(0 0 0)
(0 0 0)
(0 0 0)
(0 0 0)
(0 0 0)
(0 0 0)
(0 0 0)
(0 0 0)
(0 0 0)
(0 0 0)
(0 0 0)
(0 0 0)
(0 0 0)
(0 0 0)
(0 0 0)
(0 0 0)
(0 0 0)
(0 0 0)
(0 0 0)
(0 0 0)
(0 0 0)
(0 0 0)
(0 0 0)
(0 0 0)
(0 0 0)
(0 0 0)
(0 0 0)
(0 0 0)
(0 0 0)
(0 0 0)
(0 0 0)
(0 0 0)
(0 0 0)
(0 0 0)
(0 0 0)
(0 0 0)
(0 0 0)
(0 0 0)
(0 0 0)
(0 0 0)
(0 0 0)
(0 0 0)
(0 0 0)
(0 0 0)
(0 0 0)
(0 0 0)
(0 0 0)
(0 0 0)
(0 0 0)
(0 0 0)
(0 0 0)
(0 0 0)
(0 0 0)
(0 0 0)
(0 0 0)
(0 0 0)
(0 0 0)
(0 0 0)
(0 0 0)
(0 0 0)
(0 0 0)
(0 0 0)
(0 0 0)
(0 0 0)
(-0.000833432 9.03861e-05 -0.000906414)
(-0.000250413 0.000172229 0.00014456)
(0.00197275 -0.00130359 -0.00336328)
(0.000685699 -0.000532876 -0.000259527)
(-0.00056149 0.000307884 -0.000666)
(-0.000153274 -8.87812e-07 -0.000358177)
(-0.000128613 -0.000575704 -0.000275257)
(0.000302911 -0.000618057 -0.000146352)
(-0.000636564 -0.000192963 -2.31118e-05)
(-0.000244102 -0.000165358 0.000142264)
(-0.000309303 0.000118605 -0.000269083)
(6.56759e-05 -9.49734e-05 -0.00101666)
(-0.000830974 -0.000673524 -0.000384547)
(-0.000295681 -0.000137373 -1.29763e-05)
(-0.00034995 -8.83918e-05 -0.000115004)
(0.000188649 -0.000115878 -0.000524549)
(-0.00103841 0.000483523 0.00446764)
(-0.000483035 -0.00095568 0.00477155)
(0.00136158 -0.000705414 0.00335069)
(0.000547622 6.38933e-05 0.00421995)
(0.000277645 0.000551883 0.00447015)
(0.000167225 0.000270524 0.00161894)
(0.000490308 0.000889189 0.00250384)
(0.000742003 -0.000888738 0.00323613)
(-0.000410718 -0.000376231 0.00363021)
(-9.32071e-05 0.000314721 0.00516295)
(0.00037349 -0.000505243 0.00455674)
(0.00022332 -0.000977162 0.00390025)
(-7.19309e-05 -0.000484214 0.00324051)
(-0.000634059 -0.000395294 0.00477075)
(-0.000497945 -0.000225903 0.00467904)
(0.000661169 -0.000333379 0.0035568)
(-0.000439356 0.000714608 0.00465382)
(0.00107062 0.000544508 0.00477169)
(0.00155394 -0.000622011 0.00481956)
(0.000398687 -0.000615784 0.00508866)
(0.000608162 -2.46426e-05 0.00511063)
(0.00193369 0.000298969 0.00434935)
(0.0017016 0.000543324 0.00467887)
(-5.14216e-05 -0.000291337 0.0049397)
(0.000609257 -0.000254855 0.00610125)
(0.00208492 -0.000158436 0.00549759)
(0.000549143 0.0010562 0.00507968)
(0.000300922 -0.000149138 0.006255)
(-0.000159881 -0.000742653 0.00502678)
(0.000468256 0.00066748 0.0063666)
(0.000639276 0.000309342 0.00473538)
(-6.58294e-05 0.000313558 0.00511178)
(-1.47403e-05 -0.00039158 0.00432409)
(-8.84245e-06 -0.000211771 0.00430561)
(0.000335336 -0.000173938 0.00503966)
(-2.3519e-05 0.000657888 0.00592385)
(0.000686107 -0.00116613 0.00514787)
(0.000741727 -0.000318809 0.00421653)
(0.00114273 -0.000602811 0.00466756)
(-0.000217511 -0.000565 0.00572166)
(0.000327439 -0.000532027 0.00440774)
(0.000675707 -0.000489002 0.00467633)
(0.000448017 -0.000734725 0.00517114)
(0.000306695 -0.000595767 0.00474065)
(-0.000505857 -0.000821509 0.00377488)
(0.000417137 -0.000331972 0.00401303)
(0.000939033 0.000105808 0.00531874)
(-0.000894585 -1.2079e-05 0.00656722)
(0.000547575 3.52992e-05 0.0048702)
(-1.99286e-05 -6.29863e-05 0.00472732)
(-0.00071418 -0.000636259 0.00681924)
(-3.43475e-05 -4.60064e-05 0.00506086)
(0.000476252 -0.000333371 0.00437695)
(-0.000422368 -0.000150857 0.00507178)
(0.000367264 -0.000525654 0.00513735)
(5.75838e-05 -0.00023333 0.00503267)
(0.000243931 -0.000259818 0.00469429)
(0.000807717 7.68522e-05 0.00366707)
(0.00014221 0.00017945 0.00464607)
(5.51921e-06 -0.000148449 0.00500984)
(-8.37232e-05 8.411e-06 0.00272985)
(0.000220116 0.000224404 0.00322093)
(0.000464596 0.000323437 0.0050302)
(-0.000465257 -0.000397515 0.00566742)
(0.000288008 -6.19908e-05 0.00478341)
(0.000458966 0.000677961 0.00515337)
(9.75955e-05 6.06439e-05 0.00528737)
(-0.000228146 0.000344511 0.00492588)
(0.000344899 -8.93785e-06 0.00434469)
(0.000444922 0.00012736 0.00489703)
(0.00029638 7.14835e-05 0.00520707)
(-0.000208294 -0.000145594 0.00516212)
(0.000654555 0.00021696 0.00390656)
(0.000146326 -0.000213544 0.00379885)
(-0.000220778 -3.85611e-05 0.0044585)
(-6.66203e-05 6.29334e-05 0.00436795)
(0.000161974 0.000104811 0.00299769)
(-0.000173799 -0.000263151 0.00329557)
(-0.000247715 -0.000195427 0.00482831)
(-0.000456612 -0.000245254 0.0040113)
(7.74998e-05 0.000414623 0.00520237)
(0.000234489 0.000268107 0.00514605)
(0.000266388 0.000668646 0.00521497)
(-7.98627e-05 0.000234946 0.00547013)
(-0.000344562 0.000680852 0.00399628)
(-0.000114419 0.000538805 0.00487371)
(0.000272387 0.000319503 0.00559624)
(-0.000123875 0.000323833 0.00458202)
(0.000378591 0.000121362 0.00403587)
(0.000179884 0.000573955 0.00428722)
(0.000589647 -0.000190129 0.00582474)
(-0.00104677 -0.0004484 0.0037618)
(0.000652873 0.000354268 0.0034537)
(0.00258137 -0.000779113 0.00279092)
(0.00101874 -3.2654e-05 0.00387899)
(0.000866374 0.000942968 0.00403462)
(0 0 0)
(0 0 0)
(0 0 0)
(0 0 0)
(0 0 0)
(0 0 0)
(0 0 0)
(0 0 0)
(0 0 0)
(0 0 0)
(0 0 0)
(0 0 0)
(0 0 0)
(0 0 0)
(0 0 0)
(0 0 0)
(0 0 0)
(0 0 0)
(0 0 0)
(0 0 0)
(0 0 0)
(0 0 0)
(0 0 0)
(0 0 0)
(0 0 0)
(0 0 0)
(0 0 0)
(0 0 0)
(0 0 0)
(0 0 0)
(0 0 0)
(0 0 0)
(0 0 0)
(0 0 0)
(0 0 0)
(0 0 0)
(0 0 0)
(0 0 0)
(0 0 0)
(0 0 0)
(0 0 0)
(0 0 0)
(0 0 0)
(0 0 0)
(0 0 0)
(0 0 0)
(0 0 0)
(0 0 0)
(0 0 0)
(0 0 0)
(0 0 0)
(0 0 0)
(0 0 0)
(0 0 0)
(0 0 0)
(0 0 0)
(0 0 0)
(0 0 0)
(0 0 0)
(0 0 0)
(0 0 0)
(0 0 0)
(0 0 0)
(0 0 0)
(0 0 0)
(0 0 0)
(0 0 0)
(0 0 0)
(0 0 0)
(0 0 0)
(0 0 0)
(0 0 0)
(0 0 0)
(0 0 0)
(0 0 0)
(0 0 0)
(0 0 0)
(0 0 0)
(0 0 0)
(0 0 0)
(0 0 0)
(0 0 0)
(0 0 0)
(0 0 0)
(0 0 0)
(0 0 0)
(0 0 0)
(0 0 0)
(0 0 0)
(0 0 0)
(0 0 0)
(0 0 0)
(0 0 0)
(0 0 0)
(0 0 0)
(0 0 0)
(0 0 0)
(0 0 0)
(0 0 0)
(0 0 0)
(0 0 0)
(0 0 0)
(0 0 0)
(0 0 0)
(0 0 0)
(0 0 0)
(0 0 0)
(0 0 0)
(0 0 0)
(0 0 0)
(0 0 0)
(0 0 0)
(0 0 0)
(0 0 0)
(0 0 0)
(0 0 0)
(0 0 0)
(0 0 0)
(0 0 0)
(0 0 0)
(0 0 0)
(0 0 0)
(0 0 0)
(0 0 0)
(0 0 0)
(0 0 0)
(0 0 0)
(0 0 0)
(0 0 0)
(0 0 0)
(0 0 0)
(0 0 0)
(0 0 0)
(0 0 0)
(0 0 0)
(0 0 0)
(0 0 0)
(0 0 0)
(0 0 0)
(0 0 0)
(0 0 0)
(0 0 0)
(0 0 0)
(0 0 0)
(0 0 0)
(0 0 0)
(0 0 0)
(0 0 0)
(0 0 0)
(0 0 0)
(0 0 0)
(0 0 0)
(0 0 0)
(0 0 0)
(0 0 0)
(0 0 0)
(0 0 0)
(0 0 0)
(0 0 0)
(0 0 0)
(0 0 0)
(0 0 0)
(0 0 0)
(0 0 0)
(0 0 0)
(0 0 0)
(0 0 0)
(0 0 0)
(0 0 0)
(0 0 0)
(0 0 0)
(0 0 0)
(0 0 0)
(0 0 0)
(0 0 0)
(0 0 0)
(0 0 0)
(0 0 0)
(0 0 0)
(0 0 0)
(0 0 0)
(0 0 0)
(0 0 0)
(0 0 0)
(0 0 0)
(0 0 0)
(0 0 0)
(0 0 0)
(0 0 0)
(0 0 0)
(0 0 0)
(0 0 0)
(0 0 0)
(0 0 0)
(0 0 0)
(0 0 0)
(0 0 0)
(0 0 0)
(0 0 0)
(0 0 0)
(0 0 0)
(0 0 0)
(0 0 0)
(0 0 0)
(0 0 0)
(0 0 0)
(0 0 0)
(0 0 0)
(0 0 0)
(0 0 0)
(0 0 0)
(0 0 0)
(0 0 0)
(0 0 0)
(0 0 0)
(0 0 0)
(0 0 0)
(0 0 0)
(0 0 0)
(0 0 0)
(0 0 0)
(0 0 0)
(0 0 0)
(0 0 0)
(0 0 0)
(0 0 0)
(0 0 0)
(0 0 0)
(0 0 0)
(0 0 0)
(0 0 0)
(0 0 0)
(0 0 0)
(0 0 0)
(0 0 0)
(0 0 0)
(0 0 0)
(0 0 0)
(0 0 0)
(0 0 0)
(0 0 0)
(0 0 0)
(0 0 0)
(0 0 0)
(0 0 0)
(0 0 0)
(0 0 0)
(0 0 0)
(0 0 0)
(0 0 0)
(0 0 0)
(0 0 0)
(0 0 0)
(0 0 0)
(0 0 0)
(0 0 0)
(0 0 0)
(0 0 0)
(0 0 0)
(0 0 0)
(0 0 0)
(0 0 0)
(0 0 0)
(0 0 0)
(0 0 0)
(0 0 0)
(0 0 0)
(0 0 0)
(0 0 0)
(0 0 0)
(0 0 0)
(0 0 0)
(0.000152172 0.000467413 -0.000685396)
(-0.000130287 3.56401e-05 -0.000355383)
(-4.50051e-05 0.000300799 -0.000306276)
(-0.000174204 0.000630636 -0.000674901)
(-0.000174502 -0.000382484 -0.00052357)
(-0.000441391 -9.48954e-05 -0.000592452)
(-0.000167159 0.00046642 -0.000116354)
(9.56531e-05 0.00101529 -0.000268332)
(-9.49322e-05 0.000695337 7.93458e-05)
(-0.000878681 0.000999292 -0.00108308)
(-0.000496302 0.000475283 2.3466e-05)
(-0.000420275 0.00071741 0.00023101)
(-0.000669562 -0.000900188 -0.000548867)
(-0.00016725 -0.000324786 -0.000210073)
(-0.000582954 9.38538e-05 -0.000245418)
(-0.000452496 0.000332887 5.45015e-06)
(2.41644e-05 0.000732354 0.00302048)
(-0.000237781 0.00126699 0.00253453)
(-0.000848174 0.000521077 0.00187148)
(-0.00056703 -0.000106842 0.00206313)
(5.70564e-05 -0.000599493 0.00486943)
(-0.000338912 -0.000230355 0.00307465)
(-0.00107637 1.26773e-05 0.00341429)
(-0.000627495 0.000471149 0.00400099)
(-0.000872406 -0.000196983 0.00607412)
(-0.00210085 -0.00029072 0.00397712)
(-0.00193762 0.000179224 0.0051286)
(-0.000979081 -0.00041694 0.00461425)
(-0.000603049 -0.000647084 0.00662736)
(0.000169495 0.000238114 0.00342482)
(-0.000514768 -0.000187575 0.00235857)
(-0.000767134 0.000577311 0.00307123)
(0.000251892 0.000172416 0.00645532)
(-0.000156522 0.000229494 0.00542897)
(-6.49433e-05 -8.38006e-05 0.00510745)
(-0.000854585 -0.000952513 0.00589073)
(0.000362155 -0.00185339 0.00551428)
(0.00033027 -0.000789604 0.00502231)
(2.33038e-05 -0.000464167 0.00552398)
(-0.000185777 -0.00059529 0.00601467)
(0.000135606 -0.000535676 0.00900385)
(-0.00124778 -0.000581826 0.00604898)
(-0.00104834 -0.000626284 0.00560543)
(-0.00171719 -0.000422918 0.00636536)
(-1.75036e-05 0.000312731 0.00425886)
(0.000138333 0.000210844 0.00500828)
(-0.000644346 -0.000891911 0.00568997)
(-0.00205652 -0.000279089 0.00536124)
(0.000679511 -0.000751893 0.00602596)
(0.000421372 -0.000938915 0.00587781)
(-4.69227e-05 -0.000803787 0.00568748)
(-0.000260635 -0.000285293 0.00611358)
(4.14878e-05 -0.000487763 0.00459024)
(0.000221151 -0.00112404 0.00535454)
(0.000183426 -0.00093814 0.00579844)
(-3.17073e-05 -0.000634564 0.00617706)
(0.000712806 0.00106113 0.00849181)
(0.000169004 -0.000807394 0.0062588)
(0.00032099 -0.00104575 0.00531146)
(-4.31991e-05 -0.000554278 0.00698226)
(-7.53108e-05 -6.80543e-05 0.00482512)
(-0.00020278 -0.000292664 0.00493938)
(0.000116911 -0.000711499 0.00503043)
(-6.21399e-05 -0.000386602 0.00552958)
(0.000420808 -0.000543089 0.0055082)
(0.000910711 -0.000175636 0.0065869)
(0.000185372 -0.000309482 0.00623772)
(0.000160659 0.000134135 0.0065248)
(0.000351395 -0.00017316 0.0040747)
(0.000676786 -0.000327668 0.00499669)
(0.00054171 0.000410256 0.0057752)
(-3.48633e-05 0.000136323 0.00592772)
(0.000321254 -0.0001115 0.00520539)
(0.00112003 -0.000603482 0.00537391)
(0.00105163 -0.000759035 0.00559541)
(-9.7604e-05 0.000352438 0.00639129)
(0.000306392 -0.000378138 0.00398035)
(0.000716343 -0.000223746 0.00465521)
(0.000714092 -0.00056277 0.00473278)
(0.000299328 0.000159352 0.00560281)
(-0.000327513 0.000265791 0.00495294)
(-0.000330511 8.47098e-05 0.00604575)
(-0.000211527 0.000376569 0.00581484)
(2.79237e-05 0.000202635 0.00656676)
(0.000261327 9.00638e-05 0.00378488)
(-4.13381e-05 -0.000275194 0.00483684)
(0.000375775 0.000241255 0.00542931)
(0.000334248 0.000119952 0.00600373)
(0.000739293 0.000244104 0.00343475)
(0.000823801 -9.3035e-05 0.00447672)
(0.000371003 0.000107803 0.00602887)
(0.000135732 0.000435728 0.00585232)
(0.000776479 0.000198344 0.00320297)
(0.000477229 0.000114074 0.0039765)
(0.000779668 0.000482892 0.00469778)
(0.000432322 0.00047943 0.00528943)
(-0.000520188 -0.000245845 0.00476567)
(-0.000394578 0.00107917 0.00571464)
(-0.000774796 0.000497138 0.00521727)
(-0.000166855 0.000166301 0.00598548)
(-0.000757637 0.000213525 0.00331623)
(-1.5327e-05 0.000527922 0.00509027)
(-0.000259968 -2.59495e-06 0.00519707)
(6.78027e-05 0.000470223 0.00598813)
(0.000329288 -9.63215e-05 0.00413107)
(-0.000918239 -0.00202748 0.00571412)
(-0.000130137 0.000126056 0.0059322)
(0.000250409 0.000236575 0.00625026)
(-0.000157392 0.000464848 0.00348395)
(-9.65701e-05 0.000173859 0.00406134)
(-7.36019e-05 0.00120758 0.00463995)
(0.000208547 0.00135321 0.00514227)
(0 0 0)
(0 0 0)
(0 0 0)
(0 0 0)
(0 0 0)
(0 0 0)
(0 0 0)
(0 0 0)
(0 0 0)
(0 0 0)
(0 0 0)
(0 0 0)
(0 0 0)
(0 0 0)
(0 0 0)
(0 0 0)
(0 0 0)
(0 0 0)
(0 0 0)
(0 0 0)
(0 0 0)
(0 0 0)
(0 0 0)
(0 0 0)
(0 0 0)
(0 0 0)
(0 0 0)
(0 0 0)
(0 0 0)
(0 0 0)
(0 0 0)
(0 0 0)
(0 0 0)
(0 0 0)
(0 0 0)
(0 0 0)
(0 0 0)
(0 0 0)
(0 0 0)
(0 0 0)
(0 0 0)
(0 0 0)
(0 0 0)
(0 0 0)
(0 0 0)
(0 0 0)
(0 0 0)
(0 0 0)
(0 0 0)
(0 0 0)
(0 0 0)
(0 0 0)
(0 0 0)
(0 0 0)
(0 0 0)
(0 0 0)
(0 0 0)
(0 0 0)
(0 0 0)
(0 0 0)
(0 0 0)
(0 0 0)
(0 0 0)
(0 0 0)
(0 0 0)
(0 0 0)
(0 0 0)
(0 0 0)
(0 0 0)
(0 0 0)
(0 0 0)
(0 0 0)
(0 0 0)
(0 0 0)
(0 0 0)
(0 0 0)
(0 0 0)
(0 0 0)
(0 0 0)
(0 0 0)
(0 0 0)
(0 0 0)
(0 0 0)
(0 0 0)
(0 0 0)
(0 0 0)
(0 0 0)
(0 0 0)
(0 0 0)
(0 0 0)
(0 0 0)
(0 0 0)
(0 0 0)
(0 0 0)
(0 0 0)
(0 0 0)
(0 0 0)
(0 0 0)
(0 0 0)
(0 0 0)
(0 0 0)
(0 0 0)
(0 0 0)
(0 0 0)
(0 0 0)
(0 0 0)
(0 0 0)
(0 0 0)
(0 0 0)
(0 0 0)
(0 0 0)
(0 0 0)
(0 0 0)
(0 0 0)
(0 0 0)
(0 0 0)
(0 0 0)
(0 0 0)
(0 0 0)
(0 0 0)
(0 0 0)
(0 0 0)
(0 0 0)
(0 0 0)
(0 0 0)
(0 0 0)
(0 0 0)
(0 0 0)
(0 0 0)
(0 0 0)
(0 0 0)
(0 0 0)
(0 0 0)
(0 0 0)
(0 0 0)
(0 0 0)
(0 0 0)
(0 0 0)
(0 0 0)
(0 0 0)
(0 0 0)
(0 0 0)
(0 0 0)
(0 0 0)
(0 0 0)
(0 0 0)
(0 0 0)
(0 0 0)
(0 0 0)
(0 0 0)
(0 0 0)
(0 0 0)
(0 0 0)
(0 0 0)
(0 0 0)
(0 0 0)
(0 0 0)
(0 0 0)
(0 0 0)
(0 0 0)
(0 0 0)
(0 0 0)
(0 0 0)
(0 0 0)
(0 0 0)
(0 0 0)
(0 0 0)
(0 0 0)
(0 0 0)
(0 0 0)
(0 0 0)
(0 0 0)
(0 0 0)
(0 0 0)
(0 0 0)
(0 0 0)
(0 0 0)
(0 0 0)
(0 0 0)
(0 0 0)
(0 0 0)
(0 0 0)
(0 0 0)
(0 0 0)
(0 0 0)
(0 0 0)
(0 0 0)
(0 0 0)
(0 0 0)
(0 0 0)
(0 0 0)
(0 0 0)
(0 0 0)
(0 0 0)
(0 0 0)
(0 0 0)
(0 0 0)
(0 0 0)
(0 0 0)
(0 0 0)
(0 0 0)
(0 0 0)
(0 0 0)
(0 0 0)
(0 0 0)
(0 0 0)
(0 0 0)
(0 0 0)
(0 0 0)
(0 0 0)
(0 0 0)
(0 0 0)
(0 0 0)
(0 0 0)
(0 0 0)
(0 0 0)
(0 0 0)
(0 0 0)
(0 0 0)
(0 0 0)
(0 0 0)
(0 0 0)
(0 0 0)
(0 0 0)
(0 0 0)
(0 0 0)
(0 0 0)
(0 0 0)
(0 0 0)
(0 0 0)
(0 0 0)
(0 0 0)
(0 0 0)
(0 0 0)
(0 0 0)
(0 0 0)
(0 0 0)
(0 0 0)
(0 0 0)
(0 0 0)
(0 0 0)
(0 0 0)
(0 0 0)
(0 0 0)
(0 0 0)
(0 0 0)
(0 0 0)
(0 0 0)
(0 0 0)
(0 0 0)
(0 0 0)
(0 0 0)
(0 0 0)
(0 0 0)
(0 0 0)
(0 0 0)
(0 0 0)
(0 0 0)
(0 0 0)
(0 0 0)
(0 0 0)
(0 0 0)
(0 0 0)
(0 0 0)
(0 0 0)
(0 0 0)
(0 0 0)
(0 0 0)
(0 0 0)
(0 0 0)
(0 0 0)
(0 0 0)
)
;

boundaryField
{
    inlet
    {
        type            zeroGradient;
    }
    outlet
    {
        type            zeroGradient;
    }
    wall
    {
        type            zeroGradient;
    }
    procBoundary2to0
    {
        type            processor;
        value           nonuniform List<vector> 
192
(
(0.000199167 -7.95017e-05 -0.000152051)
(-0.00026865 -0.000210288 -0.000661185)
(0.000189124 0.000124887 -0.00017395)
(0.000820182 2.29769e-05 -0.000722461)
(0.00030901 0.000431454 0.00470769)
(0.000405252 0.000451552 0.00244243)
(0.00155008 0.000126783 0.00531143)
(0.000525411 0.000686534 0.00523234)
(-0.000413823 -0.000676843 0.00739298)
(-0.000472262 -0.000311105 0.00649969)
(-0.00010022 -0.000189514 0.00644861)
(-0.000597474 1.93737e-05 0.00626254)
(-0.000434458 -0.000512199 0.00709983)
(-0.000458598 -0.000647331 0.00652546)
(-0.000642552 -3.88562e-05 0.0067705)
(-0.000482055 6.56502e-05 0.00654096)
(-0.000272403 -0.000248558 0.00700245)
(-0.00023019 -6.92664e-05 0.00675963)
(-0.000325877 1.06874e-05 0.00678716)
(-0.000232485 -0.000241671 0.00673315)
(0.000263088 0.000479268 0.00716339)
(6.91028e-05 0.000279165 0.0068448)
(-6.53452e-05 0.0003005 0.0068906)
(-3.17276e-06 -8.74474e-05 0.0069718)
(0.000180363 0.000692281 0.00713476)
(0.000359971 0.00051143 0.00661922)
(0.000376607 0.000623936 0.00663839)
(0.000403217 0.00103248 0.00651403)
(0 0 0)
(0 0 0)
(0 0 0)
(0 0 0)
(0 0 0)
(0 0 0)
(0 0 0)
(0 0 0)
(0 0 0)
(0 0 0)
(0 0 0)
(0 0 0)
(0 0 0)
(0 0 0)
(0 0 0)
(0 0 0)
(0 0 0)
(0 0 0)
(0 0 0)
(0 0 0)
(0 0 0)
(0 0 0)
(0 0 0)
(0 0 0)
(0 0 0)
(0 0 0)
(0 0 0)
(0 0 0)
(0 0 0)
(0 0 0)
(0 0 0)
(0 0 0)
(0 0 0)
(0 0 0)
(0 0 0)
(0 0 0)
(0 0 0)
(0 0 0)
(0 0 0)
(0 0 0)
(0 0 0)
(0 0 0)
(0 0 0)
(0 0 0)
(0 0 0)
(0 0 0)
(0 0 0)
(0 0 0)
(0 0 0)
(0 0 0)
(0 0 0)
(0 0 0)
(0 0 0)
(0 0 0)
(0 0 0)
(0 0 0)
(0 0 0)
(0 0 0)
(0 0 0)
(0 0 0)
(0 0 0)
(0 0 0)
(0 0 0)
(0 0 0)
(0 0 0)
(0 0 0)
(0 0 0)
(0 0 0)
(-0.000149245 0.000107846 -0.00127422)
(-0.000155361 -2.388e-05 -0.000320827)
(4.38908e-05 -8.5789e-05 -0.000251028)
(0.000261553 -0.000285824 -9.45394e-05)
(-0.000667182 0.00059803 0.0048101)
(-2.23245e-05 0.000254861 0.00423684)
(-0.00038705 -0.000114717 0.00481676)
(-6.05917e-05 -0.000464194 0.00482885)
(-0.000578226 0.000570463 0.0057837)
(-0.000228357 -0.0003861 0.00553678)
(-0.000575925 -0.000160699 0.00575066)
(-0.000399113 0.000165808 0.00569375)
(-0.00040287 -0.000821916 0.00623762)
(0.000108994 -0.000239657 0.00609699)
(-0.000374546 -1.40563e-05 0.00710723)
(-4.68272e-05 0.000137299 0.00649209)
(0.000807396 -0.000569389 0.00485314)
(0.00067966 -0.000251537 0.00565056)
(0.000646444 -0.000377287 0.00668076)
(-7.61532e-05 0.000401122 0.00729026)
(0.000142549 0.000315232 0.00378617)
(0.000244843 -0.00032193 0.00610268)
(0.0001975 0.000111325 0.00633611)
(-4.65838e-05 0.000540693 0.00673468)
(1.97782e-06 -0.000107583 0.00371983)
(0.000295731 -0.00128879 0.00550298)
(-0.000592952 -9.3632e-05 0.00607197)
(0.000263063 0.000100226 0.00645574)
(0 0 0)
(0 0 0)
(0 0 0)
(0 0 0)
(0 0 0)
(0 0 0)
(0 0 0)
(0 0 0)
(0 0 0)
(0 0 0)
(0 0 0)
(0 0 0)
(0 0 0)
(0 0 0)
(0 0 0)
(0 0 0)
(0 0 0)
(0 0 0)
(0 0 0)
(0 0 0)
(0 0 0)
(0 0 0)
(0 0 0)
(0 0 0)
(0 0 0)
(0 0 0)
(0 0 0)
(0 0 0)
(0 0 0)
(0 0 0)
(0 0 0)
(0 0 0)
(0 0 0)
(0 0 0)
(0 0 0)
(0 0 0)
(0 0 0)
(0 0 0)
(0 0 0)
(0 0 0)
(0 0 0)
(0 0 0)
(0 0 0)
(0 0 0)
(0 0 0)
(0 0 0)
(0 0 0)
(0 0 0)
(0 0 0)
(0 0 0)
(0 0 0)
(0 0 0)
(0 0 0)
(0 0 0)
(0 0 0)
(0 0 0)
(0 0 0)
(0 0 0)
(0 0 0)
(0 0 0)
(0 0 0)
(0 0 0)
(0 0 0)
(0 0 0)
(0 0 0)
(0 0 0)
(0 0 0)
(0 0 0)
)
;
    }
    procBoundary2to3
    {
        type            processor;
        value           nonuniform List<vector> 
192
(
(-5.6672e-05 0.000680071 -0.000563241)
(-8.17793e-05 -0.000413738 1.41495e-05)
(0.000274784 -0.000738777 -8.10676e-05)
(0.000196679 -0.000996344 -0.000109293)
(-0.002113 -0.000226162 0.00422237)
(-0.000694419 -0.000882083 0.00436778)
(-8.88263e-05 -0.00133392 0.00226542)
(0.00033761 -0.00203187 0.00415859)
(0.000436389 0.000563655 0.006121)
(0.000137755 -0.000155805 0.00525748)
(-0.000511298 -0.000325126 0.00568644)
(-0.00104664 0.000321212 0.00655175)
(-3.23052e-05 0.000199018 0.00582797)
(0.000309053 5.80954e-05 0.00565483)
(-0.000110103 0.000195087 0.0056759)
(2.2084e-06 0.00035239 0.00562087)
(8.07566e-05 0.000192412 0.00644479)
(4.85371e-05 0.000589075 0.00594301)
(0.000132269 0.000773519 0.00558517)
(0.000220228 0.00044132 0.00545514)
(0.000309273 0.000306353 0.0065183)
(0.000339526 0.000759044 0.00612479)
(0.000217494 0.000956753 0.0056524)
(0.00025022 0.000557625 0.0055214)
(0.00060028 0.000987667 0.00605073)
(0.000318467 0.00127877 0.00587959)
(0.000400921 0.00088092 0.0054994)
(0.000196333 0.000385976 0.00531998)
(0 0 0)
(0 0 0)
(0 0 0)
(0 0 0)
(0 0 0)
(0 0 0)
(0 0 0)
(0 0 0)
(0 0 0)
(0 0 0)
(0 0 0)
(0 0 0)
(0 0 0)
(0 0 0)
(0 0 0)
(0 0 0)
(0 0 0)
(0 0 0)
(0 0 0)
(0 0 0)
(0 0 0)
(0 0 0)
(0 0 0)
(0 0 0)
(0 0 0)
(0 0 0)
(0 0 0)
(0 0 0)
(0 0 0)
(0 0 0)
(0 0 0)
(0 0 0)
(0 0 0)
(0 0 0)
(0 0 0)
(0 0 0)
(0 0 0)
(0 0 0)
(0 0 0)
(0 0 0)
(0 0 0)
(0 0 0)
(0 0 0)
(0 0 0)
(0 0 0)
(0 0 0)
(0 0 0)
(0 0 0)
(0 0 0)
(0 0 0)
(0 0 0)
(0 0 0)
(0 0 0)
(0 0 0)
(0 0 0)
(0 0 0)
(0 0 0)
(0 0 0)
(0 0 0)
(0 0 0)
(0 0 0)
(0 0 0)
(0 0 0)
(0 0 0)
(0 0 0)
(0 0 0)
(0 0 0)
(0 0 0)
(0.000644885 -0.00020271 -0.000248591)
(0.000506297 -6.1036e-05 -8.30056e-05)
(0.000532337 2.82941e-05 -0.000100998)
(-0.00015444 -1.79609e-05 -0.00109266)
(0.00084053 -0.000646794 0.00170686)
(0.00136713 0.00032057 0.00560317)
(0.00177755 -0.000366818 0.0052982)
(0.00168732 0.00038668 0.00394416)
(0.000160793 -0.00025052 0.00516777)
(-0.00036469 -0.000891752 0.00673165)
(-0.000946875 -0.0018573 0.00605593)
(-0.000826947 -0.00116877 0.00536852)
(-0.000186816 0.000790977 0.00565866)
(0.00036737 -5.11354e-06 0.00621085)
(-0.000561385 0.000166394 0.00614351)
(-0.000981172 -0.000503165 0.00491716)
(0.00053974 0.000991903 0.0057213)
(0.00038249 -0.000233248 0.0060109)
(0.000158252 -9.14984e-06 0.00496617)
(-0.000161272 0.000102926 0.0034256)
(0.000299427 0.000607054 0.00567033)
(-0.000151677 0.000213769 0.00511045)
(0.000449392 0.000434913 0.00436277)
(0.000247685 -0.000357904 0.00251868)
(0.000183485 0.000478767 0.00522108)
(0.000184787 0.000299918 0.00410075)
(0.000354678 0.00102039 0.00379825)
(0.00114235 0.000532905 0.00265269)
(0 0 0)
(0 0 0)
(0 0 0)
(0 0 0)
(0 0 0)
(0 0 0)
(0 0 0)
(0 0 0)
(0 0 0)
(0 0 0)
(0 0 0)
(0 0 0)
(0 0 0)
(0 0 0)
(0 0 0)
(0 0 0)
(0 0 0)
(0 0 0)
(0 0 0)
(0 0 0)
(0 0 0)
(0 0 0)
(0 0 0)
(0 0 0)
(0 0 0)
(0 0 0)
(0 0 0)
(0 0 0)
(0 0 0)
(0 0 0)
(0 0 0)
(0 0 0)
(0 0 0)
(0 0 0)
(0 0 0)
(0 0 0)
(0 0 0)
(0 0 0)
(0 0 0)
(0 0 0)
(0 0 0)
(0 0 0)
(0 0 0)
(0 0 0)
(0 0 0)
(0 0 0)
(0 0 0)
(0 0 0)
(0 0 0)
(0 0 0)
(0 0 0)
(0 0 0)
(0 0 0)
(0 0 0)
(0 0 0)
(0 0 0)
(0 0 0)
(0 0 0)
(0 0 0)
(0 0 0)
(0 0 0)
(0 0 0)
(0 0 0)
(0 0 0)
(0 0 0)
(0 0 0)
(0 0 0)
(0 0 0)
)
;
    }
}


// ************************************************************************* //
