/*--------------------------------*- C++ -*----------------------------------*\
| =========                 |                                                 |
| \\      /  F ield         | OpenFOAM: The Open Source CFD Toolbox           |
|  \\    /   O peration     | Version:  2506                                  |
|   \\  /    A nd           | Website:  www.openfoam.com                      |
|    \\/     M anipulation  |                                                 |
\*---------------------------------------------------------------------------*/
FoamFile
{
    version     2.0;
    format      ascii;
    arch        "LSB;label=32;scalar=64";
    class       volScalarField;
    location    "0.08";
    object      voidfraction;
}
// * * * * * * * * * * * * * * * * * * * * * * * * * * * * * * * * * * * * * //

dimensions      [0 0 0 0 0 0 0];

internalField   nonuniform List<scalar> 
1152
(
0.420663
0.381163
0.41013
0.354829
0.470697
0.43383
0.423296
0.336396
0.44173
0.43383
0.444363
0.525997
0.44173
0.436463
0.444363
0.44963
0.446997
0.42593
0.428563
0.328496
0.40223
0.44963
0.43383
0.46543
0.454897
0.423296
0.38643
0.439097
0.462797
0.483863
0.431196
0.396963
0.470697
0.354829
0.404863
0.483863
0.478597
0.415396
0.378529
0.452263
0.365363
0.39433
0.439097
0.396963
0.47333
0.360096
0.41013
0.383796
0.38643
0.436463
0.346929
0.49703
0.420663
0.420663
0.328496
0.428563
0.346929
0.391696
0.360096
0.454897
0.378529
0.381163
0.399596
0.325862
0.373263
0.383796
0.404863
0.41013
0.396963
0.38643
0.39433
0.39433
0.360096
0.373263
0.370629
0.470697
0.42593
0.40223
0.439097
0.331129
0.375896
0.40223
0.38643
0.333763
0.412763
0.43383
0.370629
0.39433
0.412763
0.40223
0.462797
0.378529
0.494397
0.452263
0.412763
0.320596
0.620798
0.581297
0.597097
0.602364
0.683998
0.570764
0.533897
0.53653
0.668198
0.626064
0.544431
0.599731
0.699798
0.597097
0.518097
0.578664
1
1
1
1
1
1
1
1
1
1
1
1
1
1
1
1
1
1
1
1
1
1
1
1
1
1
1
1
1
1
1
1
1
1
1
1
1
1
1
1
1
1
1
1
1
1
1
1
1
1
1
1
1
1
1
1
1
1
1
1
1
1
1
1
1
1
1
1
1
1
1
1
1
1
1
1
1
1
1
1
1
1
1
1
1
1
1
1
1
1
1
1
1
1
1
1
1
1
1
1
1
1
1
1
1
1
1
1
1
1
1
1
1
1
1
1
1
1
1
1
1
1
1
1
1
1
1
1
1
1
1
1
1
1
1
1
1
1
1
1
1
1
1
1
1
1
1
1
1
1
1
1
1
1
1
1
1
1
1
1
1
1
1
1
1
1
1
1
1
1
1
1
1
1
1
1
1
1
1
1
1
1
1
1
1
1
1
1
1
1
1
1
1
1
1
1
1
1
1
1
1
1
1
1
1
1
1
1
1
1
1
1
1
1
1
1
1
1
1
1
1
1
1
1
1
1
1
1
1
1
1
1
1
1
1
1
1
1
1
1
1
1
1
1
1
1
1
1
1
1
1
1
1
1
1
1
1
1
1
1
1
1
1
1
1
1
1
1
1
1
1
1
0.496182
0.428697
0.529
0.406111
0.448733
0.404474
0.446815
0.434
0.427599
0.459173
0.454508
0.456016
0.506302
0.436883
0.483552
0.448782
0.447991
0.470421
0.420724
0.433675
0.477748
0.371235
0.382712
0.391992
0.430693
0.490843
0.439708
0.42041
0.417274
0.439057
0.454966
0.402251
0.377895
0.422277
0.401776
0.46124
0.387079
0.390625
0.380338
0.407469
0.427599
0.393397
0.443936
0.380848
0.44695
0.432534
0.424475
0.398671
0.35599
0.39981
0.361172
0.468757
0.390705
0.473721
0.370841
0.403047
0.436882
0.44212
0.460851
0.396673
0.441554
0.395573
0.420663
0.434465
0.465515
0.380553
0.428845
0.371029
0.321797
0.385085
0.38746
0.367672
0.331684
0.439684
0.450279
0.400629
0.433461
0.480367
0.342529
0.409409
0.360371
0.380553
0.390948
0.363511
0.434226
0.418323
0.394583
0.458321
0.384283
0.425067
0.431251
0.343263
0.438857
0.402096
0.374926
0.500682
0.706471
0.659786
0.631862
0.706814
0.637325
0.626065
0.726969
0.637406
0.659654
0.6833
0.663825
0.77845
0.66817
0.752141
0.700803
0.828192
1
1
1
1
1
1
1
1
1
1
1
1
1
1
1
1
1
1
1
1
1
1
1
1
1
1
1
1
1
1
1
1
1
1
1
1
1
1
1
1
1
1
1
1
1
1
1
1
1
1
1
1
1
1
1
1
1
1
1
1
1
1
1
1
1
1
1
1
1
1
1
1
1
1
1
1
1
1
1
1
1
1
1
1
1
1
1
1
1
1
1
1
1
1
1
1
1
1
1
1
1
1
1
1
1
1
1
1
1
1
1
1
1
1
1
1
1
1
1
1
1
1
1
1
1
1
1
1
1
1
1
1
1
1
1
1
1
1
1
1
1
1
1
1
1
1
1
1
1
1
1
1
1
1
1
1
1
1
1
1
1
1
1
1
1
1
1
1
1
1
1
1
1
1
1
1
1
1
1
1
1
1
1
1
1
1
1
1
1
1
1
1
1
1
1
1
1
1
1
1
1
1
1
1
1
1
1
1
1
1
1
1
1
1
1
1
1
1
1
1
1
1
1
1
1
1
1
1
1
1
1
1
1
1
1
1
1
1
1
1
1
1
1
1
1
1
1
1
1
1
1
1
1
1
1
1
1
1
1
1
1
1
1
1
1
1
1
1
1
1
1
1
0.454151
0.454038
0.376516
0.456228
0.428286
0.439708
0.401705
0.477569
0.480367
0.476226
0.434943
0.521774
0.457741
0.387377
0.495881
0.421705
0.337823
0.390738
0.354407
0.391075
0.460683
0.393193
0.439692
0.434258
0.502109
0.420195
0.404474
0.486469
0.44695
0.477104
0.405212
0.430467
0.439834
0.465907
0.416313
0.443699
0.384455
0.454508
0.404079
0.366586
0.502109
0.383652
0.407244
0.354876
0.414576
0.446164
0.4306
0.417324
0.464889
0.457994
0.400836
0.46124
0.37302
0.427022
0.401705
0.372
0.480367
0.444556
0.354616
0.441535
0.465835
0.421411
0.423346
0.421705
0.427306
0.416454
0.367672
0.403605
0.422569
0.418565
0.418325
0.377414
0.380354
0.422631
0.357386
0.447954
0.433461
0.415223
0.445107
0.404181
0.446992
0.513382
0.380938
0.421146
0.384455
0.439708
0.425447
0.361172
0.397747
0.451865
0.426633
0.428697
0.39839
0.356436
0.394332
0.391038
0.747657
0.843728
0.785539
0.784496
0.761786
0.665939
0.681859
0.64269
0.68909
0.671119
0.673153
0.646947
0.614214
0.607055
0.673592
0.723996
1
1
1
1
1
1
1
1
1
1
1
1
1
1
1
1
1
1
1
1
1
1
1
1
1
1
1
1
1
1
1
1
1
1
1
1
1
1
1
1
1
1
1
1
1
1
1
1
1
1
1
1
1
1
1
1
1
1
1
1
1
1
1
1
1
1
1
1
1
1
1
1
1
1
1
1
1
1
1
1
1
1
1
1
1
1
1
1
1
1
1
1
1
1
1
1
1
1
1
1
1
1
1
1
1
1
1
1
1
1
1
1
1
1
1
1
1
1
1
1
1
1
1
1
1
1
1
1
1
1
1
1
1
1
1
1
1
1
1
1
1
1
1
1
1
1
1
1
1
1
1
1
1
1
1
1
1
1
1
1
1
1
1
1
1
1
1
1
1
1
1
1
1
1
1
1
1
1
1
1
1
1
1
1
1
1
1
1
1
1
1
1
1
1
1
1
1
1
1
1
1
1
1
1
1
1
1
1
1
1
1
1
1
1
1
1
1
1
1
1
1
1
1
1
1
1
1
1
1
1
1
1
1
1
1
1
1
1
1
1
1
1
1
1
1
1
1
1
1
1
1
1
1
1
1
1
1
1
1
1
1
1
1
1
1
1
1
1
1
1
1
1
)
;

boundaryField
{
    inlet
    {
        type            fixedValue;
        value           uniform 1;
    }
    outlet
    {
        type            fixedValue;
        value           uniform 1;
    }
    wall
    {
        type            zeroGradient;
    }
    procBoundary2to0
    {
        type            processor;
        value           nonuniform List<scalar> 
192
(
0.40223
0.53653
0.47333
0.412763
0.446997
0.41803
0.423296
0.45753
0.375896
0.478597
0.367996
0.365363
0.383796
0.415396
0.41013
0.483863
0.423296
0.383796
0.357463
0.378529
0.549697
0.381163
0.378529
0.45753
0.694531
0.599731
0.541797
0.541797
1
1
1
1
1
1
1
1
1
1
1
1
1
1
1
1
1
1
1
1
1
1
1
1
1
1
1
1
1
1
1
1
1
1
1
1
1
1
1
1
1
1
1
1
1
1
1
1
1
1
1
1
1
1
1
1
1
1
1
1
1
1
1
1
1
1
1
1
0.418358
0.408541
0.476008
0.466251
0.446992
0.471841
0.487063
0.433675
0.377195
0.416454
0.325664
0.423652
0.416568
0.376891
0.354407
0.41864
0.432675
0.307657
0.445055
0.38857
0.416568
0.434257
0.427367
0.433675
0.656384
0.727019
0.829758
0.734379
1
1
1
1
1
1
1
1
1
1
1
1
1
1
1
1
1
1
1
1
1
1
1
1
1
1
1
1
1
1
1
1
1
1
1
1
1
1
1
1
1
1
1
1
1
1
1
1
1
1
1
1
1
1
1
1
1
1
1
1
1
1
1
1
1
1
1
1
)
;
    }
    procBoundary2to3
    {
        type            processor;
        value           nonuniform List<scalar> 
192
(
0.560231
0.560231
0.341663
0.44963
0.518097
0.452263
0.404863
0.44173
0.378529
0.346929
0.396963
0.40223
0.241595
0.423296
0.375896
0.454897
0.331129
0.346929
0.40223
0.412763
0.499664
0.478597
0.370629
0.446997
0.494397
0.578664
0.554964
0.478597
1
1
1
1
1
1
1
1
1
1
1
1
1
1
1
1
1
1
1
1
1
1
1
1
1
1
1
1
1
1
1
1
1
1
1
1
1
1
1
1
1
1
1
1
1
1
1
1
1
1
1
1
1
1
1
1
1
1
1
1
1
1
1
1
1
1
1
1
0.471263
0.394203
0.505469
0.380775
0.381052
0.449477
0.444148
0.502472
0.398593
0.40968
0.416454
0.387933
0.343464
0.38536
0.394695
0.396882
0.393581
0.460531
0.343263
0.377195
0.498828
0.354407
0.424366
0.387933
0.523886
0.710367
0.711194
0.778081
1
1
1
1
1
1
1
1
1
1
1
1
1
1
1
1
1
1
1
1
1
1
1
1
1
1
1
1
1
1
1
1
1
1
1
1
1
1
1
1
1
1
1
1
1
1
1
1
1
1
1
1
1
1
1
1
1
1
1
1
1
1
1
1
1
1
1
1
)
;
    }
}


// ************************************************************************* //
