FoamFile
{version 2.0; format ascii;class vectorField; location 0;object  v;}
1000
(
( 0.21466 -0.00110935 -0.120495 )  
( 0.0121064 -0.000543109 0.0582901 )  
( 0.0424045 -0.000664417 0.332521 )  
( 0.198356 -0.00111485 -0.0883539 )  
( 0.00570615 -2.63619e-05 -0.0196707 )  
( 0.00853493 6.06565e-05 -0.0539183 )  
( 0.214979 0.000545576 -0.0708175 )  
( 0.037523 0.000158129 0.33627 )  
( 0.00379598 1.79538e-05 6.51658e-07 )  
( 0.193258 -0.000530411 0.193241 )  
( 0.196956 -0.000361257 0.2488 )  
( 0.215656 -0.000325829 0.0988077 )  
( 0.00355387 -0.000255201 2.69909e-08 )  
( 0.00447652 -4.33725e-05 3.59072e-07 )  
( 0.0583596 -0.000464454 0.238776 )  
( 0.00358871 -2.17034e-07 -1.27651e-07 )  
( 0.0206254 -0.000168516 0.357752 )  
( 0.00439871 -7.95531e-05 -2.59151e-06 )  
( 0.0137645 7.58581e-05 0.00764067 )  
( 0.212202 0.000573431 -0.0914943 )  
( 0.200537 -0.00152068 -0.000770034 )  
( 0.0791244 -0.000207014 0.198238 )  
( 0.0674943 0.000277207 0.000470936 )  
( 0.0802723 -0.000406452 0.295819 )  
( 0.00393535 -4.54279e-05 1.40386e-07 )  
( 0.0993778 -0.000573883 0.27824 )  
( -0.0375055 -0.0358297 2.15561e-07 )  
( 0.00925577 0.000119868 -0.0450071 )  
( 0.180504 -0.0071006 0.104545 )  
( 0.0097684 2.68949e-05 -0.0402456 )  
( 0.072568 -0.000158374 -0.00938264 )  
( 0.203848 -0.000939056 -0.0870496 )  
( -0.311315 -0.142854 0.00290256 )  
( 0.010602 -0.000145804 -0.0211127 )  
( 0.204925 -0.000712656 -0.0317362 )  
( 0.0193242 -2.9797e-05 0.179893 )  
( 0.0176697 -8.99009e-06 -0.0106082 )  
( 0.209349 -0.00206886 0.013675 )  
( 0.202407 -0.000312753 -0.035968 )  
( 0.185318 3.39339e-05 0.220761 )  
( 0.00468141 -9.62543e-05 -0.00596006 )  
( 0.00665413 -1.16082e-06 -0.0872846 )  
( 0.00743421 -0.000341181 0.0978542 )  
( 0.173038 -0.000470512 0.0601434 )  
( 0.140076 -0.000431743 0.0349827 )  
( 0.0101752 -0.000148418 0.0741802 )  
( 0.00481163 3.03469e-05 -0.016925 )  
( 0.210189 -0.000227704 -0.116721 )  
( 0.200836 -0.00154146 -0.166614 )  
( 0.140355 0.000451913 0.241164 )  
( 0.214236 -0.000972684 -0.00918793 )  
( 0.00424029 -9.07747e-05 2.32323e-08 )  
( 0.121926 -0.000404053 0.132253 )  
( 0.00402413 0.000170469 2.91245e-07 )  
( 0.0195817 7.64111e-05 0.354071 )  
( 0.0726783 0.000289834 0.307111 )  
( 0.00454149 -7.48995e-05 -0.00922736 )  
( 0.208196 -0.000867797 -0.16749 )  
( 0.200393 -0.00110098 0.167033 )  
( 0.198004 0.00102963 0.164939 )  
( 0.213827 -0.000573117 0.0751643 )  
( 0.011973 -0.000162721 -0.00756785 )  
( 0.215455 -0.000625479 -0.123943 )  
( 0.178089 -0.000427173 0.229822 )  
( 0.202835 -0.000267895 0.153094 )  
( -0.00687468 -0.0280095 -2.54657e-07 )  
( 0.00401859 0.000110845 -0.00231869 )  
( 0.0115467 -0.000198055 0.00776175 )  
( 0.0933742 -0.000388817 0.291392 )  
( 0.205778 -0.00149059 -0.0164131 )  
( 0.215279 -0.000327511 -0.0822818 )  
( 0.0103246 0.000103488 -0.098652 )  
( 0.107552 0.000254035 0.277625 )  
( 0.00417588 -6.08829e-06 -0.00618661 )  
( 0.20622 0.000108356 -0.0786329 )  
( 0.0112363 -9.8714e-05 0.0590812 )  
( 0.0153152 -2.36344e-05 0.252929 )  
( 0.20238 0.0008233 0.240373 )  
( 0.203064 -0.000975936 0.173676 )  
( 0.0246199 0.000130791 0.353955 )  
( 0.00972393 -8.50994e-05 0.0800252 )  
( 0.206735 -0.00221773 -0.139727 )  
( 0.202458 -8.56342e-05 -0.1039 )  
( 0.00865844 -0.000101697 0.0782317 )  
( 0.00523511 0.000115319 -0.0108555 )  
( 0.0095954 -0.000166213 0.0802386 )  
( 0.00580873 0.000125584 -0.0355833 )  
( 0.00366681 -0.000132405 1.63685e-07 )  
( 0.208961 -0.00248293 -0.0972889 )  
( 0.207704 -0.00163197 0.0206486 )  
( 0.0111408 -0.000175424 0.198613 )  
( 0.00352469 1.60719e-05 -4.7153e-07 )  
( -0.026279 0.00242896 0.00162009 )  
( 0.205794 -0.00192693 0.0588997 )  
( 0.00196351 -5.92742e-05 -3.53203e-07 )  
( 0.120072 1.34965e-05 0.145289 )  
( 0.204283 -0.000165886 0.0152377 )  
( 0.00277969 -0.106034 1.39537e-07 )  
( 0.00778214 0.000175192 -0.054944 )  
( 0.20558 -0.00130013 -0.153379 )  
( 0.20537 -0.00172069 -0.0346032 )  
( 0.00371139 0.000101149 -6.56745e-07 )  
( 0.00694137 5.21838e-05 -0.0913811 )  
( 0.00341946 -9.6541e-05 -4.72118e-07 )  
( 0.169774 0.000799164 0.24178 )  
( 0.0459742 0.286552 0.0597648 )  
( 0.00354709 -4.67943e-05 -1.29108e-07 )  
( 0.0835137 -0.0178468 4.09608e-07 )  
( 0.202896 4.99417e-05 -0.00214124 )  
( 0.0451242 -0.160653 0.0319203 )  
( 0.00476267 8.39942e-06 -0.0086142 )  
( 0.215449 4.11518e-05 -0.1004 )  
( 0.202709 -0.000511186 0.0333856 )  
( 0.213817 0.000999281 -0.0333483 )  
( 0.0670345 -3.60309e-05 -0.143072 )  
( 0.20397 -0.00112768 -0.158097 )  
( 0.0104189 -0.148497 3.84488e-07 )  
( 0.158861 -4.539e-05 0.160696 )  
( 0.20511 -0.00144922 -0.161699 )  
( 0.207337 -0.0020771 0.0412108 )  
( 0.0455445 -0.000508757 0.34944 )  
( 0.21546 0.000473821 -0.0906316 )  
( 0.204796 -0.000178685 0.179736 )  
( 0.011207 2.83843e-05 0.0534335 )  
( -0.0319973 -0.106722 0.0158868 )  
( 0.117842 -0.000970865 0.126786 )  
( 0.173318 2.69633e-05 0.0222052 )  
( 0.139153 -0.000212863 0.0532545 )  
( 0.071164 -0.000298934 0.168641 )  
( 0.0211214 -0.000229289 0.371831 )  
( 0.213161 -0.000856751 0.12144 )  
( 0.20184 -0.000827325 -0.0761585 )  
( 0.179749 -0.000415682 0.174418 )  
( 0.0318836 -0.000296522 -0.0725568 )  
( 0.20715 0.00038972 0.00722863 )  
( 0.211863 -0.000932889 -0.140382 )  
( 0.00346386 0.000106075 -2.71361e-08 )  
( 0.003629 -0.000167656 2.64752e-07 )  
( 0.196755 -0.00169534 -0.196413 )  
( 0.203387 -0.00101437 0.0567371 )  
( 0.159835 -0.0010051 0.0821447 )  
( 0.213332 -0.000583601 -0.0481847 )  
( 0.0335826 -5.92902e-05 0.337166 )  
( 0.00388404 0.000117993 -5.29013e-07 )  
( 0.181984 -0.000197286 0.0164384 )  
( 0.212671 -0.000196882 -0.0091062 )  
( 0.203839 -0.00115117 -0.189456 )  
( 0.208631 -0.00172786 0.0797993 )  
( 0.092312 0.289145 -0.00515568 )  
( 0.00358203 -9.56149e-05 -1.37669e-07 )  
( 0.0033093 -0.000128968 -2.24384e-07 )  
( 0.175349 0.00124379 0.122494 )  
( 0.180814 -0.000444039 -0.0103348 )  
( 0.012491 0.000210562 0.00950706 )  
( 0.189843 -0.000335234 -0.0497813 )  
( 0.0100091 -0.000134258 0.319603 )  
( 0.213451 -0.000975965 0.143308 )  
( 0.0035 -0.00011828 -6.11614e-07 )  
( 0.204457 -0.00158197 0.108774 )  
( 0.202613 -0.000457101 0.154257 )  
( 0.207579 0.000205854 0.100734 )  
( 0.0332541 -9.78655e-05 0.271352 )  
( 0.205005 -0.00143512 0.0121797 )  
( 0.00382665 0.000105084 -2.05562e-07 )  
( 0.201426 -0.00120825 0.14704 )  
( 0.0296163 -0.000148823 0.347761 )  
( 0.00874224 -0.000340963 0.0813098 )  
( 0.0129555 0.000173628 0.0366274 )  
( 0.21398 0.000384783 -0.0433952 )  
( 0.106041 -0.000306305 0.278029 )  
( 0.386323 -0.0112923 -8.89425e-07 )  
( 0.00357658 5.26022e-05 9.13799e-06 )  
( 0.00432903 -0.000107318 3.59989e-07 )  
( 0.00451235 -0.000149733 -0.0151206 )  
( 0.125073 -0.000628228 0.283422 )  
( 0.00623307 -0.00015345 -0.0914415 )  
( 0.203323 -0.000679644 0.178429 )  
( 0.200765 -0.00197078 0.0922121 )  
( 0.201967 0.000201751 0.111844 )  
( 0.150603 0.105011 4.69894e-07 )  
( 0.199523 -0.00180793 0.0556085 )  
( 0.00335614 -0.000166762 0.00611393 )  
( 0.00379079 -7.24498e-05 6.27018e-07 )  
( 0.210897 -0.000845438 0.0585506 )  
( 0.21441 -0.000916653 -0.100019 )  
( 0.171938 -0.00117627 0.0955401 )  
( 0.0107354 -0.000293916 -0.021748 )  
( 0.212853 -0.00110671 -0.0265037 )  
( 0.202612 -0.0012103 -0.136153 )  
( 0.0136192 0.000249303 0.0308584 )  
( 0.205192 -0.00142388 -0.0729368 )  
( 0.211579 3.42273e-06 0.1996 )  
( 0.203335 -7.39066e-07 -0.0602786 )  
( 0.215547 -0.000838171 0.0415835 )  
( 0.00681983 -0.000204771 -0.0886367 )  
( 0.00385569 -0.000156379 8.12769e-08 )  
( 0.184226 -0.000475602 -0.0287064 )  
( 0.074994 -0.000385278 0.3055 )  
( 0.170805 -0.000669987 0.105976 )  
( -0.0172181 -0.0155819 -2.53059e-07 )  
( 0.00344714 -8.02762e-05 9.83488e-08 )  
( 0.00371376 -0.000302513 -7.61033e-08 )  
( 0.206771 -0.00152016 -0.155729 )  
( -0.0451325 -0.0383037 -0.0682992 )  
( 0.122719 -0.000531334 0.223084 )  
( 0.0129705 -0.00014691 0.0201797 )  
( 0.203139 -0.000831847 0.0890455 )  
( 0.0280951 -0.000240908 0.325308 )  
( 0.199419 -0.00174245 0.115707 )  
( 0.00423534 7.47263e-05 1.1919e-07 )  
( 0.177914 -0.0011303 -0.024648 )  
( 0.127265 -0.00110672 0.244256 )  
( 0.202147 -0.000726512 0.0614124 )  
( 0.0113125 2.98069e-05 -0.0412978 )  
( 0.121122 -0.000817064 0.225543 )  
( 0.00881462 -0.000156039 -0.0623412 )  
( 0.00436906 1.95409e-05 3.594e-07 )  
( 0.102444 0.390239 0.156875 )  
( 0.212466 -0.000588523 0.031201 )  
( 0.0237254 -0.00014852 0.350732 )  
( 0.00385193 9.69205e-05 -3.15931e-07 )  
( 0.027246 -2.52079e-05 0.355406 )  
( 0.202806 -0.000236606 0.0601418 )  
( 0.196173 -0.00203041 0.217079 )  
( -0.060505 -0.153426 0.00539814 )  
( 0.00430401 6.2281e-05 3.35152e-07 )  
( 0.206712 -0.000625992 -0.0998192 )  
( 0.102312 -7.57409e-06 -0.0776496 )  
( -0.379878 0.0191656 0.00171065 )  
( 0.21415 0.000868037 0.0334396 )  
( 0.202379 -0.0621665 0.241124 )  
( 0.0113455 0.00566484 -1.16696e-07 )  
( 0.00748479 0.000166616 -0.0697586 )  
( 0.200763 -0.000810929 0.158331 )  
( 0.00335694 -8.48211e-05 -2.54236e-07 )  
( 0.201341 -0.001095 0.189865 )  
( 0.164021 -0.000731066 0.101033 )  
( 0.214926 -0.000549444 0.0442303 )  
( 0.0477317 0.000168255 0.297063 )  
( 0.127974 0.000209347 0.273147 )  
( 0.0110692 -0.000205928 0.0132549 )  
( 0.00622318 -6.79824e-05 0.0156065 )  
( 0.088448 0.000275559 0.31271 )  
( 0.214875 0.000378486 0.0355764 )  
( -0.169389 0.00514442 2.30018e-07 )  
( 0.0811618 -0.000410119 -0.115603 )  
( 0.203492 -0.00102275 0.0270694 )  
( 0.39959 -0.0170008 0.110149 )  
( 0.210376 -0.000408167 0.214241 )  
( 0.108104 -0.000245307 0.274149 )  
( 0.176134 -0.00145332 0.190066 )  
( 0.00356967 8.11218e-05 1.39939e-07 )  
( 0.00362241 -7.43544e-05 1.30943e-07 )  
( 0.205605 0.00104192 -0.118205 )  
( 0.200624 0.000489398 -0.128497 )  
( 0.0292347 0.000138919 0.327107 )  
( 0.188244 0.000508324 0.0908038 )  
( 0.20469 -0.000136226 0.141423 )  
( 0.0123847 -0.000128862 0.0126604 )  
( 0.206066 0.000661779 -0.0674183 )  
( 0.0336765 0.179937 0.0294002 )  
( 0.170573 0.000572452 0.187737 )  
( 0.00749325 0.000104141 0.315341 )  
( 0.0106242 7.5242e-05 -0.106208 )  
( 0.00386796 -6.56619e-05 5.51221e-05 )  
( 0.00352343 0.000199201 -7.74398e-09 )  
( 0.0551765 0.000129283 0.329169 )  
( 0.00915227 8.88093e-07 -0.0440212 )  
( 0.202327 -0.00193696 -0.055155 )  
( 0.0656352 5.13022e-06 0.31048 )  
( 0.205251 0.000628947 0.0389154 )  
( 0.205082 -0.00022495 0.0444019 )  
( 0.103365 0.000129492 0.280243 )  
( 0.0713388 0.00017618 0.217414 )  
( -0.138004 -0.076956 -1.01627e-07 )  
( 0.206424 0.00115883 -0.0907423 )  
( 0.0120214 -9.71447e-05 -0.0158674 )  
( 0.204351 0.000666952 -0.160364 )  
( 0.0191394 3.81631e-06 0.356189 )  
( 0.205053 -3.55593e-05 0.0480969 )  
( 0.160277 -0.00050363 0.125059 )  
( 0.00615374 0.000315459 -0.0773917 )  
( 0.204964 -0.00029741 0.105646 )  
( 0.204516 0.000721993 -0.0018773 )  
( 0.204961 0.000218195 -0.181983 )  
( 0.207031 0.0011603 0.0564981 )  
( 0.00384661 0.000161385 -0.002505 )  
( 0.201555 -0.00085652 -0.0896422 )  
( 0.206506 0.000973247 0.031978 )  
( 0.20562 0.000641357 -0.134163 )  
( 0.0055745 -0.000103093 0.0228099 )  
( 0.0418221 0.000201599 0.333358 )  
( 0.204064 -0.000124529 0.132173 )  
( 0.363616 0.171465 0.123182 )  
( 0.191415 0.00109213 0.183701 )  
( 0.0120684 -0.000625111 -0.0152541 )  
( 0.202678 -0.000229192 -0.116968 )  
( 0.203007 -0.000562924 -0.0837146 )  
( 0.00362779 3.62346e-05 -9.82057e-08 )  
( 0.205318 -0.000113105 -0.164497 )  
( 0.206594 0.00126781 -0.0408286 )  
( 0.204946 0.000117783 0.0976943 )  
( 0.0984422 0.000283677 0.288039 )  
( -0.154481 0.0245143 5.75688e-08 )  
( 0.204321 0.000662238 0.117441 )  
( 0.19913 0.00122323 -0.102492 )  
( 0.0100068 3.06591e-05 -0.0410579 )  
( 0.0118874 0.000226884 -0.017018 )  
( 0.206011 0.00117021 0.0758457 )  
( -0.120917 -0.0833025 0.148655 )  
( 0.111451 0.000168375 -0.053358 )  
( 0.205816 0.0015032 -0.203993 )  
( 0.0105653 0.000203014 -0.0259932 )  
( 0.123579 0.00029903 0.267676 )  
( 0.0747028 0.000230588 0.30798 )  
( 0.191974 0.00021868 0.19345 )  
( 0.0709334 0.000168877 0.116823 )  
( 0.00566596 -0.000319897 -0.0754445 )  
( 0.203797 0.000367232 -0.159357 )  
( 0.0122316 0.000160047 0.0419237 )  
( 0.205506 0.00195465 0.0307217 )  
( 0.206496 -0.00167323 -0.166898 )  
( 0.0657674 0.000269446 -0.00673505 )  
( 0.204153 0.00265865 -0.0470001 )  
( 0.183804 -0.00281507 0.246043 )  
( 0.172944 -0.00207799 0.142425 )  
( 0.00865938 -5.2523e-05 -0.0984036 )  
( 0.0116655 0.000320116 -0.00141237 )  
( 0.0106616 7.2488e-05 0.0617599 )  
( 0.0726714 4.09223e-05 0.301927 )  
( 0.00375064 -5.77916e-05 3.37284e-08 )  
( 0.00364523 9.87049e-05 -0.00182909 )  
( 0.20579 0.000995834 -0.148011 )  
( 0.135991 0.000281438 0.273876 )  
( 0.204327 0.000323322 0.177528 )  
( 0.0120571 -5.49222e-05 -0.00594034 )  
( 0.204392 0.000584082 -0.118519 )  
( 0.187614 5.32615e-05 0.173306 )  
( 0.0117764 -6.36499e-05 0.00555266 )  
( 0.0100654 1.22021e-05 -0.029008 )  
( 0.0280365 -0.0225468 -0.0612955 )  
( 0.14839 -9.14093e-05 0.215302 )  
( 0.00364479 6.55277e-05 1.47866e-07 )  
( 0.00495334 -7.41817e-06 -0.0223512 )  
( 0.204196 -0.00153136 -0.0625479 )  
( 0.203888 0.000567479 -0.150739 )  
( 0.00549217 0.000185295 0.00941951 )  
( 0.0166691 1.08674e-05 0.361347 )  
( 0.20581 -0.00139484 -0.154864 )  
( 0.20476 -0.000374827 0.0576995 )  
( 0.203507 -0.000236176 0.144829 )  
( 0.188765 0.000113644 -0.134572 )  
( 0.204892 -0.0010311 0.0846973 )  
( 0.203889 0.00025287 -0.136347 )  
( 0.205446 0.0019004 -0.162956 )  
( 0.0109212 0.00019865 0.0495477 )  
( 0.0111021 0.000172174 0.0577305 )  
( 0.00504203 7.76323e-05 -0.0252055 )  
( 0.00570704 -4.4304e-05 -0.0845072 )  
( 0.0113563 -4.36307e-05 -0.0235148 )  
( 0.205839 0.00110517 -0.0142327 )  
( 0.00867406 -8.38824e-05 -0.052678 )  
( 0.00496913 -0.000243456 -0.0349665 )  
( 0.0436093 0.00027798 0.306662 )  
( 0.20589 -0.00124983 0.00861643 )  
( 0.509804 -0.0705661 0.182208 )  
( 0.163896 0.000461948 0.179957 )  
( 0.00639826 0.000168747 -0.0876551 )  
( 0.203469 8.91226e-05 0.0402975 )  
( 0.00373439 -0.000261077 1.04279e-07 )  
( 0.00345443 -4.82364e-05 1.01026e-06 )  
( 0.00348441 8.34412e-05 2.98819e-08 )  
( 0.205222 -0.000684295 -0.134057 )  
( 0.199969 0.00131311 0.0944271 )  
( 0.00660665 -8.3242e-06 -0.0884491 )  
( 0.0123722 0.000119158 0.0336003 )  
( 0.00360001 1.12208e-05 2.00913e-07 )  
( 0.203538 -0.00136614 0.0844876 )  
( 0.420821 0.171568 0.0228781 )  
( 0.20191 -0.00046099 0.0190429 )  
( 0.205722 0.000682361 -0.09477 )  
( 0.0597005 0.000267005 -0.0748328 )  
( 0.127195 0.000575481 0.213255 )  
( 0.0251217 0.000194394 0.341558 )  
( 0.0746184 -0.000312003 0.323015 )  
( 0.00373657 0.000111771 -0.000187625 )  
( -0.205177 0.0102269 -0.0340179 )  
( 0.174067 0.000158839 0.1553 )  
( 0.192632 0.0211096 1.84413e-07 )  
( 0.00516224 5.73341e-05 -0.000946933 )  
( 0.0105585 -1.84668e-06 0.0659695 )  
( 0.206683 -0.00164955 -0.0883852 )  
( 0.17938 0.000291211 -0.162016 )  
( 0.0350368 -0.000193039 0.336411 )  
( 0.0904903 1.58506e-05 0.123197 )  
( 0.115398 0.000739602 0.24204 )  
( 0.169839 0.000601997 0.0956866 )  
( 0.0037732 9.98115e-06 -2.29432e-08 )  
( 0.0249108 0.000247205 0.00784577 )  
( 0.47627 0.221851 0.0849544 )  
( 0.133383 -0.000981444 0.265045 )  
( 0.00364274 -6.71058e-05 3.2111e-08 )  
( 0.155892 0.000938048 0.242978 )  
( 0.169566 0.00177648 -0.0124214 )  
( 0.00504085 -0.00031625 -0.0231884 )  
( 0.190868 -5.48736e-05 0.15256 )  
( 0.164138 0.000121874 0.216815 )  
( 0.205981 0.000908641 -8.20276e-05 )  
( 0.0103113 0.000235977 0.0707083 )  
( 0.00349631 0.000138672 5.09972e-07 )  
( 0.198254 -0.000729635 -0.140545 )  
( 0.0047078 0.000136085 -0.0236062 )  
( 0.00871066 0.000175571 0.0806452 )  
( 0.0129322 9.628e-05 0.0178274 )  
( 0.0117598 0.000116122 0.0371105 )  
( 0.0106324 0.000138434 0.055394 )  
( 0.0711632 -5.75612e-05 0.327237 )  
( 0.00597279 0.000168625 0.0383131 )  
( 0.20568 0.000529185 -0.068291 )  
( 0.044765 7.09437e-05 0.314779 )  
( 0.00332848 4.88754e-05 5.05258e-07 )  
( 0.206819 0.00134531 0.00424182 )  
( 0.00362181 0.000260973 3.05921e-07 )  
( 0.00349247 -0.0001803 3.28945e-07 )  
( 0.206561 0.00243317 -0.0878965 )  
( -0.122505 -0.0619518 -0.101521 )  
( 0.1667 -0.00080698 0.0359284 )  
( 0.204882 -0.000853381 0.0591174 )  
( 0.204265 -4.60014e-05 -0.0717485 )  
( 0.00365746 5.76779e-05 -2.08846e-07 )  
( 0.113908 0.000509879 0.295717 )  
( 0.0177292 0.000143116 0.362977 )  
( 0.00368741 0.000111592 3.98056e-07 )  
( 0.201894 -0.00022424 -0.053407 )  
( 0.00646642 3.89607e-05 -0.0765223 )  
( 0.0117193 0.000156834 0.0509388 )  
( 0.00357879 -0.000187579 3.16786e-07 )  
( 0.037253 -0.00031487 0.343558 )  
( 0.0039945 5.89537e-05 -0.00606469 )  
( 0.110953 -4.39868e-05 0.277524 )  
( 0.0297545 1.15197e-05 0.330815 )  
( -0.131065 -0.0815135 0.162682 )  
( 0.0106091 0.000226881 -0.0285743 )  
( 0.0888661 -0.000253869 0.283589 )  
( 0.00866943 -0.000382592 -0.0502241 )  
( 0.190428 0.000604909 0.082153 )  
( 0.00375547 0.000144605 3.24424e-07 )  
( 0.201232 0.000202492 -0.0122585 )  
( 0.2056 0.000545247 -0.131176 )  
( 0.159843 0.000631832 0.168247 )  
( 0.011375 0.000191445 -0.00998484 )  
( 0.00366193 8.12385e-07 1.84955e-07 )  
( 0.205207 -0.000817579 -0.121886 )  
( 0.0133617 -2.46972e-05 0.0330022 )  
( 0.205279 0.00103301 0.0324148 )  
( 0.206045 -0.00274736 -0.0645038 )  
( 0.00971031 1.30907e-05 -0.0318212 )  
( 0.134826 0.000605585 0.249659 )  
( 0.203411 0.000129112 -0.16095 )  
( 0.060483 -2.5547e-05 0.333756 )  
( 0.00403353 -0.000219939 -0.00290496 )  
( 0.0704649 0.000339327 0.28413 )  
( 0.269578 0.14446 -2.90769e-09 )  
( 0.00369717 -0.000179756 3.53476e-07 )  
( 0.204167 0.000679594 -0.0166072 )  
( 0.206665 0.0012203 -0.158809 )  
( 0.0036179 1.62741e-05 1.30035e-07 )  
( 0.0184464 -2.8356e-05 0.35517 )  
( 0.00395142 0.000125345 0.00457433 )  
( 0.00785028 0.000127327 0.0946451 )  
( 0.00320158 9.78902e-05 -3.54552e-07 )  
( 0.00369082 -0.00024601 -0.00750625 )  
( -0.0971215 -0.0847708 0.0439798 )  
( 0.00358383 8.12027e-05 1.07665e-07 )  
( 0.00348582 0.000116275 2.84129e-07 )  
( 0.00370045 -6.67497e-05 3.28288e-08 )  
( 0.202912 0.000566744 0.0663224 )  
( 0.00345068 0.000130425 -6.056e-08 )  
( 0.00827466 0.000136265 -0.0985852 )  
( 0.102537 0.000403002 0.289203 )  
( 0.204983 0.000163316 0.0349933 )  
( 0.204666 0.000328686 -0.164742 )  
( 0.205568 -0.00199359 -0.116981 )  
( 0.20529 -0.000309477 -0.0575219 )  
( 0.203051 -0.000922379 -0.0861799 )  
( 0.204978 -0.000543491 0.172274 )  
( 0.00365181 -2.55797e-05 2.02748e-07 )  
( 0.204532 0.00183093 0.158188 )  
( 0.166869 -0.00153587 0.237196 )  
( 0.00728652 0.000111851 -0.0666364 )  
( 0.150271 0.00118906 -0.0933516 )  
( 0.0103512 -5.38538e-05 -0.162642 )  
( 0.204521 7.44325e-06 0.20174 )  
( 0.0200892 0.000201261 0.108249 )  
( 0.00379767 -0.000186036 -2.83696e-07 )  
( 0.202607 -7.1809e-05 -0.0655291 )  
( 0.144166 -2.67291e-05 0.275664 )  
( 0.185973 -0.0005689 0.16662 )  
( 0.164243 -0.000428487 0.0939872 )  
( 0.204663 -0.000778938 0.128703 )  
( 0.206184 0.000250744 -0.0199252 )  
( 0.0112645 8.24924e-05 0.0579365 )  
( 0.0120238 -0.000120642 0.0393374 )  
( 0.0530141 7.98019e-05 -0.131272 )  
( 0.209628 0.0015928 0.224013 )  
( 0.209306 -0.000311272 -0.133909 )  
( 0.155813 6.83007e-05 0.152541 )  
( 0.206337 -0.000503684 -0.151964 )  
( 0.0850541 -0.000366337 0.295358 )  
( 0.212481 0.0016515 -0.0568008 )  
( 0.157499 -0.000150728 0.233641 )  
( 0.00778932 0.000158713 0.0886523 )  
( 0.00534161 -0.000180588 -0.0367605 )  
( 0.131342 0.00160331 0.262418 )  
( 0.207468 -0.000929976 0.0842686 )  
( 0.154118 0.00016809 0.188191 )  
( 0.205321 3.6428e-05 -0.0381853 )  
( 0.00370005 5.26425e-05 -3.84806e-07 )  
( 0.209415 0.00144069 0.120972 )  
( 0.206164 0.00017513 0.100192 )  
( 0.0536117 0.000508742 0.341256 )  
( 0.195645 -0.000654223 -0.0163045 )  
( 0.213608 0.00179736 -0.085393 )  
( 0.209472 0.000886963 0.0899984 )  
( -0.0126871 -0.252918 -3.91251e-07 )  
( 0.0645598 -0.000101648 -0.175621 )  
( 0.127594 0.000205607 0.20728 )  
( -0.134386 0.0291361 -0.061527 )  
( 0.0120447 0.000124328 0.0472499 )  
( 0.0109053 3.49491e-05 -0.100893 )  
( 0.0698932 -0.000748601 0.305764 )  
( 0.209749 -4.81405e-05 0.105775 )  
( 0.0851628 0.00013038 0.315617 )  
( 0.206663 -0.000549221 -0.0813472 )  
( 0.20417 0.333705 -0.045929 )  
( 0.0189981 1.77349e-05 0.355706 )  
( 0.143344 0.000284848 0.142966 )  
( 0.209677 -0.00142589 0.20957 )  
( 0.210689 0.0012314 -0.058447 )  
( 0.129121 1.81245e-05 -0.148438 )  
( 0.210295 0.000249153 0.0184244 )  
( 0.0816537 -0.000229531 0.130279 )  
( 0.212199 0.00234698 0.15335 )  
( 0.207777 -0.00059743 -0.119267 )  
( 0.208503 -0.000215097 -0.106123 )  
( 0.0061355 1.10801e-05 -0.0782781 )  
( 0.206559 -0.000687611 -0.114289 )  
( 0.142015 0.000613669 0.0130309 )  
( 0.0161774 5.49443e-05 -0.0308799 )  
( 0.0126472 0.000301166 0.0194002 )  
( 0.20734 -0.000909621 -0.107892 )  
( 0.00372674 0.000262914 1.11928e-07 )  
( 0.01342 0.000401073 0.000732733 )  
( 0.120787 0.000729252 0.238272 )  
( 0.208854 0.000904919 -0.044231 )  
( 0.00414902 -1.33656e-05 -1.042e-07 )  
( 0.00392927 -0.000234654 -4.37091e-08 )  
( 0.0130875 -2.02423e-05 0.0264943 )  
( 0.00407773 0.000130619 2.6229e-07 )  
( 0.0979744 0.000573892 -0.105062 )  
( 0.00365413 0.000118232 -3.48467e-07 )  
( 0.210601 0.00128662 -0.116309 )  
( 0.00515676 -0.000112944 -0.0218663 )  
( 0.206247 -0.000604259 0.162421 )  
( 0.209942 -0.00191919 -0.0142197 )  
( 0.171904 0.000516707 0.187563 )  
( 0.191987 0.000187962 0.0812966 )  
( 0.0770719 0.000890977 0.260874 )  
( 0.255559 -0.409098 0.136662 )  
( 0.180706 0.000125913 0.138106 )  
( 0.00425714 4.49531e-05 4.00506e-07 )  
( 0.00777496 7.64257e-05 -0.0945561 )  
( 0.00800941 0.000117562 -0.0599788 )  
( 0.037602 0.129994 0.0115096 )  
( 0.110643 0.000262004 0.276063 )  
( 0.196092 -0.000170978 0.0672053 )  
( 0.0721349 0.307177 -1.90178e-07 )  
( 0.0092655 -4.65741e-05 -0.100539 )  
( 0.0884274 0.000316898 0.243637 )  
( 0.208819 0.00211886 -0.0618483 )  
( 0.0110961 -0.00022936 0.0637548 )  
( 0.0121282 -0.000318164 0.0447643 )  
( 0.0121424 -0.000335401 -0.0131681 )  
( 0.084033 -0.000286403 0.0747898 )  
( 0.0601028 0.000239834 0.312551 )  
( 0.211128 1.53888e-05 -0.151465 )  
( 0.1499 -0.00102291 0.243185 )  
( 0.21089 0.000247602 -0.127678 )  
( 0.0604801 0.000270256 0.310666 )  
( 0.00523554 -7.16776e-05 -0.0202536 )  
( 0.2079 -0.000819839 0.177365 )  
( 0.208675 -0.00138616 -0.149431 )  
( 0.0040501 -0.16485 -4.62619e-08 )  
( 0.00346594 -9.78016e-06 3.25938e-07 )  
( 0.206602 -0.000533962 -0.0408681 )  
( 0.208818 -0.000526973 -0.131622 )  
( 0.205342 -0.00114486 -0.1367 )  
( 0.171436 -0.000422307 -0.113406 )  
( 0.0440466 -0.000144115 0.332072 )  
( 0.00416248 -1.6149e-05 -2.09578e-07 )  
( 0.172971 2.01876e-05 0.150846 )  
( 0.206289 0.000177167 0.196636 )  
( 0.209231 -7.73785e-05 -0.0680946 )  
( 0.162487 0.000216823 0.159584 )  
( 0.0133924 2.15581e-05 -0.00502893 )  
( 0.0398943 -0.000306141 0.318575 )  
( 0.208781 -0.00013155 0.166301 )  
( 0.213014 0.00222434 -0.133688 )  
( 0.00419258 5.72957e-05 -6.6998e-06 )  
( 0.206196 -0.000476913 0.0877157 )  
( 0.208632 -0.00227498 0.053252 )  
( 0.12574 0.00141844 0.230089 )  
( 0.21219 0.000982584 0.0715952 )  
( 0.211134 -0.0011993 -0.118409 )  
( 0.108937 8.59581e-05 -0.0425737 )  
( 0.0893843 0.000257929 0.248414 )  
( 0.208043 -0.00114526 -0.0602017 )  
( 0.00406812 -0.000106592 -4.84637e-08 )  
( 0.208127 0.00118835 -0.136873 )  
( 0.00416907 0.000313047 -4.18412e-07 )  
( 0.06426 -0.0595344 -0.0261198 )  
( 0.0077716 -0.000157976 -0.0943452 )  
( -0.0497517 -0.139088 0.0876437 )  
( 0.00393982 0.0002205 -1.12787e-07 )  
( 0.00395694 0.000107478 8.25324e-07 )  
( 0.208322 -0.000624571 0.0362119 )  
( 0.200458 0.00113344 -0.116051 )  
( 0.209614 -0.00102898 0.00432381 )  
( -0.0446613 0.11033 9.69242e-08 )  
( 0.00348155 -1.70844e-05 3.89755e-07 )  
( 0.0102217 -8.15589e-05 -0.0367198 )  
( 0.179503 -0.000148582 0.13504 )  
( 0.0131889 0.000137609 -0.00235065 )  
( 0.205968 0.000110858 -0.0760921 )  
( 0.0102492 0.000314688 -0.0409427 )  
( 0.20988 -0.000588998 -0.0158548 )  
( 0.210773 -0.000549637 -0.135974 )  
( 0.204861 0.000676855 0.0743883 )  
( 0.00501352 1.8698e-05 -0.042267 )  
( 0.0116811 0.000507654 -0.0221339 )  
( 0.00721403 2.18429e-05 -0.0704299 )  
( 0.0720305 0.000169198 0.32441 )  
( -0.0902229 -0.162562 0.0381018 )  
( 0.0279829 -0.000312296 0.351004 )  
( 0.0076973 -7.13924e-05 0.0911077 )  
( 0.208252 0.00055293 -0.024196 )  
( -0.0506624 -0.240744 0.00296406 )  
( -0.00494382 -0.00724122 3.89596e-07 )  
( 0.0076822 4.41418e-05 0.0900231 )  
( 0.00601066 0.000163916 0.00930497 )  
( 0.209164 -0.000373425 -0.123355 )  
( 0.00410329 -2.60067e-05 2.93653e-07 )  
( 0.00373637 6.36835e-06 -3.88332e-07 )  
( 0.210227 -0.00152875 -0.0437422 )  
( 0.00471952 2.76384e-05 0.00411886 )  
( 0.00543541 5.76788e-05 -0.019332 )  
( 0.135835 0.000454996 0.00424196 )  
( 0.00398158 -6.26311e-05 -5.65783e-07 )  
( 0.0728778 3.66265e-05 0.302465 )  
( 0.210824 -0.00176947 -0.165807 )  
( 0.207034 0.000369795 0.00839988 )  
( 0.214058 0.00174262 0.0541914 )  
( 0.00449328 5.13566e-05 -0.0131655 )  
( 0.0605988 0.0466484 -0.000618551 )  
( 0.206651 -0.000102276 -0.0340885 )  
( 0.00396072 3.53714e-06 8.11222e-07 )  
( 0.0121579 -0.000345754 -0.0176062 )  
( 0.209943 0.000540208 0.0997593 )  
( 0.144317 -0.000570454 0.204826 )  
( 0.211892 -0.00171542 0.101539 )  
( 0.0113679 2.35346e-05 0.0362741 )  
( 0.028173 0.00017048 0.343752 )  
( 0.00389894 4.03802e-05 -8.89979e-08 )  
( 0.0996283 -0.000688242 0.22813 )  
( 0.211543 0.00114806 -0.106864 )  
( 0.124022 -0.390395 0.0916336 )  
( 0.125341 2.68e-06 0.238288 )  
( 0.18459 6.62299e-05 0.238791 )  
( 0.0648292 9.40902e-05 -0.0438831 )  
( 0.0763696 0.000186979 0.0559258 )  
( 0.00409042 -4.17307e-05 -1.03182e-07 )  
( 0.163548 -0.00100259 0.239539 )  
( 0.206459 -1.12761e-05 0.0781705 )  
( 0.200944 -0.00051646 0.14785 )  
( 0.0575411 6.72406e-05 0.327914 )  
( 0.145717 0.00251569 -0.0161553 )  
( 0.0039297 -1.83208e-05 1.10145e-07 )  
( 0.00692939 0.000307507 -0.0694245 )  
( 0.212257 0.000986095 0.0377077 )  
( 0.0126602 0.000175459 0.00125023 )  
( 0.211412 0.000950901 -0.0103243 )  
( 0.00381718 5.61983e-05 8.41262e-07 )  
( 0.0039025 -8.48744e-05 3.49596e-08 )  
( 0.0126282 0.136465 6.30424e-07 )  
( 0.210284 0.00134664 0.104157 )  
( 0.209198 -0.00106225 -0.0712126 )  
( 0.137681 0.000258763 0.20403 )  
( 0.0555825 9.65291e-05 0.132273 )  
( 0.190977 0.00119316 0.22013 )  
( 0.206528 -8.36384e-05 0.0193402 )  
( 0.140024 -0.000214834 -0.106594 )  
( 0.206649 -0.000449167 0.0146953 )  
( 0.0038581 -5.55058e-05 -5.51282e-07 )  
( 0.093963 0.000361327 0.213215 )  
( 0.00380278 1.2349e-05 0.000253993 )  
( -0.263553 0.152021 0.277302 )  
( 0.210837 0.000382301 -0.0825497 )  
( -0.0215686 0.154123 -4.30469e-08 )  
( 0.00388923 8.94962e-05 -5.32431e-07 )  
( 0.0118931 4.33493e-05 0.0392896 )  
( 0.00653637 0.0930998 0.0491784 )  
( 0.208535 -0.00164637 -0.104323 )  
( 0.206234 7.02193e-05 -0.10801 )  
( 0.212443 -0.000674339 -0.0557015 )  
( 0.0107408 4.74328e-05 0.0605063 )  
( 0.208397 0.000209253 0.0012535 )  
( 0.210484 0.000572007 0.110715 )  
( 0.0111831 -0.000356072 -0.0298714 )  
( 0.0515689 0.000106431 -0.11664 )  
( -0.173769 -0.236146 0.00469306 )  
( 0.00383558 0.000253213 -1.42407e-09 )  
( 0.205258 -0.000874505 -0.127222 )  
( 0.00778578 0.000100507 -0.0927164 )  
( 0.208013 -0.00257233 -0.0865553 )  
( 0.0262283 -0.00022484 0.111821 )  
( 0.00648058 -4.86181e-05 -0.0790031 )  
( 0.210529 0.00133025 -0.0985733 )  
( 0.00412407 0.00010151 3.05968e-07 )  
( 0.00550975 0.0012118 -0.0101227 )  
( 0.167645 0.000120409 0.187852 )  
( 0.00371697 0.000127145 -7.60288e-07 )  
( 0.21043 0.00149783 -0.145845 )  
( 0.0234974 0.000131214 0.370083 )  
( 0.127004 -4.73347e-05 0.272478 )  
( 0.0706554 0.000283182 0.118267 )  
( 0.0107237 -0.000163747 -0.0273103 )  
( 0.179502 0.000737123 0.146062 )  
( 0.184377 0.00201478 0.254151 )  
( 0.00504611 0.000160043 0.00544576 )  
( 0.117128 0.00024983 0.276997 )  
( 0.208963 -1.00366e-05 -0.00242079 )  
( 0.20606 0.000795519 0.0377237 )  
( 0.209282 -0.00182843 0.0238459 )  
( 0.132334 -0.00151565 0.271099 )  
( 0.0191326 -1.82574e-06 0.36188 )  
( 0.0295111 -0.0266243 -0.00714008 )  
( 0.397814 -0.063975 0.157289 )  
( 0.00417946 3.8049e-05 -0.00111653 )  
( 0.165729 0.000710387 0.227735 )  
( 0.0813787 0.000376708 0.267033 )  
( 0.0729941 -0.000509055 0.306021 )  
( 0.213047 3.48172e-05 -0.0276713 )  
( 0.00442139 -2.79892e-05 -9.30875e-08 )  
( 0.192142 -0.000186573 -0.15812 )  
( 0.205862 -0.000826293 -0.0248878 )  
( 0.00871892 -0.000205318 -0.0532921 )  
( 0.010751 -0.000102313 0.0644932 )  
( 0.0278626 -0.00166366 4.75018e-07 )  
( 0.207395 0.000121142 0.0571638 )  
( 0.138731 0.000248019 0.19616 )  
( 0.0822733 -0.0864384 0.278294 )  
( 0.0343824 -0.000265436 0.335716 )  
( 0.213606 -0.00061867 -0.156474 )  
( 0.37609 -0.0919115 0.058311 )  
( 0.0874295 0.000834832 0.277318 )  
( 0.0134138 8.89401e-05 -0.00910251 )  
( 0.20872 0.000280961 -0.0870118 )  
( 0.0466661 -0.000138742 0.326169 )  
( 0.0814391 -0.000563083 0.0471235 )  
( 0.211544 0.00158851 0.109435 )  
( 0.00426365 0.000180698 3.42598e-07 )  
( 0.210608 7.40297e-05 0.134787 )  
( 0.114802 0.00024894 0.222722 )  
( 0.059065 0.000524704 0.261211 )  
( 0.214767 0.0004316 0.147886 )  
( 0.0124083 8.31624e-05 0.0432689 )  
( 0.0103081 -0.000192664 0.0756882 )  
( 0.21334 0.000653913 0.00832515 )  
( 0.144376 -0.0001195 0.253711 )  
( 0.15764 0.000848122 0.190563 )  
( 0.00401101 0.000118291 -0.00227109 )  
( 0.178387 -0.000615592 0.255384 )  
( 0.0101679 0.000120895 -0.101706 )  
( 0.210936 0.000352419 0.0748067 )  
( -0.132227 0.00944202 0.193029 )  
( 0.211329 -0.00065659 0.204965 )  
( 0.208746 0.00120199 -0.0762973 )  
( 0.211608 0.00149269 -0.0696763 )  