/*--------------------------------*- C++ -*----------------------------------*\
| =========                 |                                                 |
| \\      /  F ield         | OpenFOAM: The Open Source CFD Toolbox           |
|  \\    /   O peration     | Version:  2506                                  |
|   \\  /    A nd           | Website:  www.openfoam.com                      |
|    \\/     M anipulation  |                                                 |
\*---------------------------------------------------------------------------*/
FoamFile
{
    version     2.0;
    format      ascii;
    arch        "LSB;label=32;scalar=64";
    class       volScalarField;
    location    "0.06";
    object      Ksl;
}
// * * * * * * * * * * * * * * * * * * * * * * * * * * * * * * * * * * * * * //

dimensions      [1 -3 -1 0 0 0 0];

internalField   nonuniform List<scalar> 
1152
(
52094.2
164176
135592
376607
55357.3
162321
113641
131580
373016
121328
119384
99548
155472
154948
128785
93176.5
113379
315475
131505
224256
149241
176793
339675
213498
9.15239e+06
132137
294192
303006
148048
333494
105401
4.48846e+06
445542
261752
697868
104528
936399
255182
223394
388900
187587
221441
267143
206324
310751
265432
332054
143638
614655
319959
147021
450736
163390
252256
302120
283913
266873
231584
240374
212914
156908
279348
159933
189714
8.00244e+06
104226
4.75643e+06
222292
346071
471843
135142
203669
321433
196035
232870
150227
194432
336059
425809
148748
99510
261097
163137
203316
114950
188030
292846
276425
352852
358416
286320
207935
128978
724680
127502
178744
787423
81935.5
213713
59997.7
89662.2
53981.2
34404.1
24607.3
83164.9
96278.9
68415.4
33159.9
357443
45893.2
128558
60000.7
0
0
0
0
0
0
0
0
0
0
0
0
0
0
0
0
0
0
0
0
0
0
0
0
0
0
0
0
0
0
0
0
0
0
0
0
0
0
0
0
0
0
0
0
0
0
0
0
0
0
0
0
0
0
0
0
0
0
0
0
0
0
0
0
0
0
0
0
0
0
0
0
0
0
0
0
0
0
0
0
0
0
0
0
0
0
0
0
0
0
0
0
0
0
0
0
0
0
0
0
0
0
0
0
0
0
0
0
0
0
0
0
0
0
0
0
0
0
0
0
0
0
0
0
0
0
0
0
0
0
0
0
0
0
0
0
0
0
0
0
0
0
0
0
0
0
0
0
0
0
0
0
0
0
0
0
0
0
0
0
0
0
0
0
0
0
0
0
0
0
0
0
0
0
0
0
0
0
0
0
0
0
0
0
0
0
0
0
0
0
0
0
0
0
0
0
0
0
0
0
0
0
0
0
0
0
0
0
0
0
0
0
0
0
0
0
0
0
0
0
0
0
0
0
0
0
0
0
0
0
0
0
0
0
0
0
0
0
0
0
0
0
0
0
0
0
0
0
0
0
0
0
0
0
0
0
0
0
0
0
0
0
0
0
0
0
0
0
0
0
0
0
82190
131185
77641.9
158133
135335
227116
98566.5
121291
91208.4
93012.8
106014
83242
756493
221371
102178
117727
174733
307562
186300
160199
193270
217902
1.16237e+06
259105
228424
177984
154067
128828
115621
146168
288250
128615
467794
219163
253006
1.07343e+07
631162
168480
264372
131322
218276
472708
134378
302881
351880
192240
226157
145319
368831
174288
437075
211020
275736
254091
216974
168269
162286
207824
214586
300642
233001
249873
259436
177910
233868
139667
221232
405549
132124
406504
263762
215531
1.0451e+07
129245
134861
306631
269685
301115
253384
168259
96065.9
257183
208068
698178
3.67925e+06
166767
304284
186706
135269
248285
210579
291426
252522
179349
175356
238319
222762
63675.7
61381.9
62074.5
38369.3
76007.4
54548.9
71801.6
41316.1
28410.6
43448.1
46819.9
42689
46667.7
47514.7
48053.7
0
0
0
0
0
0
0
0
0
0
0
0
0
0
0
0
0
0
0
0
0
0
0
0
0
0
0
0
0
0
0
0
0
0
0
0
0
0
0
0
0
0
0
0
0
0
0
0
0
0
0
0
0
0
0
0
0
0
0
0
0
0
0
0
0
0
0
0
0
0
0
0
0
0
0
0
0
0
0
0
0
0
0
0
0
0
0
0
0
0
0
0
0
0
0
0
0
0
0
0
0
0
0
0
0
0
0
0
0
0
0
0
0
0
0
0
0
0
0
0
0
0
0
0
0
0
0
0
0
0
0
0
0
0
0
0
0
0
0
0
0
0
0
0
0
0
0
0
0
0
0
0
0
0
0
0
0
0
0
0
0
0
0
0
0
0
0
0
0
0
0
0
0
0
0
0
0
0
0
0
0
0
0
0
0
0
0
0
0
0
0
0
0
0
0
0
0
0
0
0
0
0
0
0
0
0
0
0
0
0
0
0
0
0
0
0
0
0
0
0
0
0
0
0
0
0
0
0
0
0
0
0
0
0
0
0
0
0
0
0
0
0
0
0
0
0
0
0
0
0
0
0
0
0
0
0
0
0
0
0
0
0
0
0
0
0
0
0
0
0
0
0
87496.2
78852.7
173992
152838
113741
98901.8
160028
133846
398767
107573
99371.3
99474.9
69656.3
168955
88722.5
112091
285736
295489
138155
131139
444293
249138
156699
212245
171241
307195
452935
198851
209854
1.01856e+06
244675
143374
310399
610532
216774
194702
163717
168177
236058
301774
387801
159929
255837
170613
122407
386188
218693
234909
189950
189936
152841
152430
488326
232250
241933
148055
256188
163769
262642
146394
356164
520504
280703
233618
189535
319841
292660
242201
313502
191583
172327
414462
511400
177737
475926
186178
143632
148016
198941
283165
143987
177674
110483
198066
195938
217874
217725
146496
420047
127478
185906
170916
617130
1.71824e+06
291628
162718
58102.7
54309.3
51866.9
89672.1
52526.5
70932.3
20059.4
49794.5
65230.6
49238.1
73858.4
122359
67002.5
101142
69487.1
115771
0
0
0
0
0
0
0
0
0
0
0
0
0
0
0
0
0
0
0
0
0
0
0
0
0
0
0
0
0
0
0
0
0
0
0
0
0
0
0
0
0
0
0
0
0
0
0
0
0
0
0
0
0
0
0
0
0
0
0
0
0
0
0
0
0
0
0
0
0
0
0
0
0
0
0
0
0
0
0
0
0
0
0
0
0
0
0
0
0
0
0
0
0
0
0
0
0
0
0
0
0
0
0
0
0
0
0
0
0
0
0
0
0
0
0
0
0
0
0
0
0
0
0
0
0
0
0
0
0
0
0
0
0
0
0
0
0
0
0
0
0
0
0
0
0
0
0
0
0
0
0
0
0
0
0
0
0
0
0
0
0
0
0
0
0
0
0
0
0
0
0
0
0
0
0
0
0
0
0
0
0
0
0
0
0
0
0
0
0
0
0
0
0
0
0
0
0
0
0
0
0
0
0
0
0
0
0
0
0
0
0
0
0
0
0
0
0
0
0
0
0
0
0
0
0
0
0
0
0
0
0
0
0
0
0
0
0
0
0
0
0
0
0
0
0
0
0
0
0
0
0
0
0
0
0
0
0
0
0
0
0
0
0
0
0
0
0
0
0
0
0
0
)
;

boundaryField
{
    inlet
    {
        type            zeroGradient;
    }
    outlet
    {
        type            zeroGradient;
    }
    wall
    {
        type            zeroGradient;
    }
    procBoundary3to1
    {
        type            processor;
        value           nonuniform List<scalar> 
192
(
240785
92898.1
57384.8
73502.2
242824
837645
2.71139e+07
205297
168656
166833
119110
6.93695e+06
4.6905e+06
205745
248034
362965
131147
9.75859e+06
105908
205579
142049
270181
230554
155200
197229
72924
21049.2
37485.8
239.34
0
0
0
0
0
0
0
0
0
0
0
0
0
0
0
0
0
0
0
0
0
0
0
0
0
0
0
0
0
0
0
0
0
0
0
0
0
0
0
0
0
0
0
0
0
0
0
0
0
0
0
0
0
0
0
0
0
0
0
0
0
0
0
0
0
0
0
254495
98651.8
88310.9
110596
240746
707360
221264
557156
153393
200992
275016
121305
220977
261370
1.3891e+06
3.70976e+06
261902
190214
187251
113551
282120
198973
313171
351225
55518.7
47481.1
19327.1
20204.9
0
0
0
0
0
0
0
0
0
0
0
0
0
0
0
0
0
0
0
0
0
0
0
0
0
0
0
0
0
0
0
0
0
0
0
0
0
0
0
0
0
0
0
0
0
0
0
0
0
0
0
0
0
0
0
0
0
0
0
0
0
0
0
0
0
0
0
0
)
;
    }
    procBoundary3to2
    {
        type            processor;
        value           nonuniform List<scalar> 
192
(
175971
2.33435e+06
63545.8
92879.1
2.8488e+07
175670
174415
325715
119885
154625
252862
272919
174165
229041
213179
3.31647e+06
129702
369336
114473
630097
4.25274e+06
190653
393640
2.21072e+06
70165.2
97878.2
66591.7
117630
0
0
0
0
0
0
0
0
0
0
0
0
0
0
0
0
0
0
0
0
0
0
0
0
0
0
0
0
0
0
0
0
0
0
0
0
0
0
0
0
0
0
0
0
0
0
0
0
0
0
0
0
0
0
0
0
0
0
0
0
0
0
0
0
0
0
0
0
138218
124058
106136
114238
917535
281736
221317
296238
120764
139212
317890
251792
165864
250617
351404
165716
204317
444406
182435
228032
864392
105068
6.34053e+06
97751
42369.2
84299.9
47874.1
18409.7
0
0
0
0
0
0
0
0
0
0
0
0
0
0
0
0
0
0
0
0
0
0
0
0
0
0
0
0
0
0
0
0
0
0
0
0
0
0
0
0
0
0
0
0
0
0
0
0
0
0
0
0
0
0
0
0
0
0
0
0
0
0
0
0
0
0
0
0
)
;
    }
}


// ************************************************************************* //
