/*--------------------------------*- C++ -*----------------------------------*\
| =========                 |                                                 |
| \\      /  F ield         | OpenFOAM: The Open Source CFD Toolbox           |
|  \\    /   O peration     | Version:  2506                                  |
|   \\  /    A nd           | Website:  www.openfoam.com                      |
|    \\/     M anipulation  |                                                 |
\*---------------------------------------------------------------------------*/
FoamFile
{
    version     2.0;
    format      ascii;
    arch        "LSB;label=32;scalar=64";
    class       volScalarField;
    location    "0.06";
    object      p;
}
// * * * * * * * * * * * * * * * * * * * * * * * * * * * * * * * * * * * * * //

dimensions      [0 2 -2 0 0 0 0];

internalField   nonuniform List<scalar> 
1152
(
17.3374
17.5372
17.42
17.6887
17.4084
17.5758
17.6663
17.71
17.7084
17.5888
17.6772
17.6605
17.6126
17.6957
17.4818
17.5628
15.4664
15.4455
15.388
14.9581
15.6882
15.4694
15.5005
15.4171
15.0975
15.384
15.4637
15.4945
15.2857
15.3715
15.3992
15.2833
13.4257
12.5423
12.5364
12.2591
12.6579
12.4964
12.1897
12.1518
12.324
12.4073
12.0945
11.9364
12.1231
12.0889
12.3205
12.0557
9.01842
8.08363
8.54456
9.09836
8.85827
8.68323
8.2893
8.39499
8.82484
8.66806
8.47552
8.39717
8.50337
8.57258
8.59702
8.6014
4.27942
4.8965
5.07865
4.81506
4.87992
4.92844
4.94449
4.89567
5.28839
5.29104
5.12803
5.08629
5.07317
5.26144
5.07101
5.20675
2.35001
2.26856
1.95161
1.64117
2.10756
1.77814
1.59728
1.34057
1.97701
1.87671
1.71206
1.57827
2.18739
1.55637
1.89779
1.90514
1.00186
1.01767
1.00417
1.01448
1.02247
1.01774
1.01989
1.01694
1.01363
1.00996
1.01356
1.01936
1.00903
1.01734
1.01102
1.01922
1.00142
1.00112
1.00101
1.00171
1.00115
1.00171
1.00248
1.0027
1.0013
1.00147
1.00172
1.00217
1.00115
1.00168
1.00125
1.00151
1.00682
1.00803
1.00724
1.00793
1.00781
1.00818
1.00832
1.00829
1.00745
1.00757
1.00767
1.00821
1.00693
1.00758
1.00761
1.00814
1.00473
1.0051
1.00503
1.00526
1.00503
1.00521
1.00537
1.00546
1.00494
1.00508
1.00518
1.00537
1.00481
1.00504
1.00511
1.00526
1.00495
1.0051
1.00514
1.00525
1.00504
1.00516
1.00526
1.00533
1.00503
1.00514
1.00522
1.00532
1.00501
1.00513
1.00521
1.00532
1.00457
1.00465
1.0047
1.00476
1.00459
1.00467
1.00473
1.00479
1.0046
1.00467
1.00472
1.00478
1.00459
1.00466
1.00471
1.00477
1.0042
1.00426
1.0043
1.00434
1.00422
1.00427
1.00431
1.00435
1.00422
1.00427
1.00431
1.00435
1.00422
1.00427
1.00431
1.00435
1.00384
1.00387
1.0039
1.00393
1.00385
1.00388
1.00391
1.00394
1.00385
1.00388
1.00391
1.00394
1.00385
1.00388
1.00391
1.00394
1.00347
1.0035
1.00352
1.00354
1.00348
1.0035
1.00352
1.00354
1.00348
1.0035
1.00352
1.00354
1.00348
1.0035
1.00352
1.00354
1.0031
1.00312
1.00314
1.00315
1.00311
1.00312
1.00314
1.00315
1.00311
1.00313
1.00314
1.00316
1.00311
1.00313
1.00314
1.00316
1.00274
1.00275
1.00276
1.00277
1.00274
1.00275
1.00276
1.00277
1.00274
1.00275
1.00276
1.00277
1.00274
1.00275
1.00277
1.00277
1.00237
1.00238
1.00239
1.0024
1.00237
1.00238
1.00239
1.0024
1.00237
1.00238
1.00239
1.0024
1.00238
1.00238
1.00239
1.0024
1.00201
1.00201
1.00202
1.00202
1.00201
1.00201
1.00202
1.00202
1.00201
1.00201
1.00202
1.00203
1.00201
1.00202
1.00202
1.00203
1.00164
1.00164
1.00165
1.00165
1.00164
1.00165
1.00165
1.00165
1.00164
1.00165
1.00165
1.00165
1.00164
1.00165
1.00165
1.00165
1.00128
1.00128
1.00128
1.00128
1.00128
1.00128
1.00128
1.00129
1.00128
1.00128
1.00128
1.00129
1.00128
1.00128
1.00128
1.00129
1.00091
1.00091
1.00092
1.00092
1.00091
1.00091
1.00092
1.00092
1.00091
1.00091
1.00092
1.00092
1.00091
1.00091
1.00092
1.00092
1.00055
1.00055
1.00055
1.00055
1.00055
1.00055
1.00055
1.00055
1.00055
1.00055
1.00055
1.00055
1.00055
1.00055
1.00055
1.00055
1.00018
1.00018
1.00018
1.00018
1.00018
1.00018
1.00018
1.00018
1.00018
1.00018
1.00018
1.00018
1.00018
1.00018
1.00018
1.00018
17.5675
17.6591
17.4526
17.4571
17.616
17.6516
17.467
17.3322
17.4786
17.4259
17.2928
17.1548
17.5319
17.4501
17.2907
17.1054
15.4957
15.2942
15.4726
15.1673
15.383
15.0578
15.3348
15.0221
15.3884
15.2823
15.1062
15.1366
15.1525
15.0681
15.2233
15.0567
12.1937
11.8115
12.1238
12.0217
12.048
11.9031
11.8233
11.7598
11.8766
12.0374
12.0155
12.1666
12.4767
12.3113
12.0525
12.2252
8.24847
8.27852
8.48311
8.7099
7.89914
8.47283
8.56208
8.78036
8.09753
8.10731
8.5582
8.79154
8.29291
8.629
8.676
8.87155
4.66509
5.06962
5.02214
5.3716
4.83771
4.9177
5.18681
5.37426
4.73079
4.97362
5.10339
5.31185
4.73939
4.83223
4.98258
5.37764
2.07697
1.92192
1.76899
1.59313
1.58141
1.69092
1.60655
1.73706
1.50062
1.52394
1.68764
1.57981
1.36568
1.47065
1.59854
1.70821
1.01339
1.01749
1.01596
1.01475
1.02059
1.01083
1.01246
1.01156
1.01195
1.01879
1.01712
1.01386
1.00965
1.01267
1.01521
1.01755
1.00064
1.00105
1.00109
1.00123
1.00087
1.00073
1.00091
1.00092
1.0007
1.00137
1.00102
1.00112
1.00104
1.00095
1.00081
1.00091
1.00727
1.00769
1.00779
1.00809
1.00753
1.00753
1.00775
1.00802
1.00709
1.00781
1.00788
1.00812
1.00689
1.00748
1.0079
1.0083
1.00486
1.00505
1.00507
1.00514
1.0049
1.00501
1.00507
1.00512
1.00483
1.00511
1.0051
1.00514
1.00471
1.00492
1.005
1.00507
1.00501
1.00513
1.00522
1.00535
1.00499
1.00512
1.00522
1.00536
1.00496
1.00513
1.00523
1.00536
1.00495
1.00513
1.00525
1.00539
1.00459
1.00466
1.00471
1.00476
1.00458
1.00466
1.00471
1.00477
1.00457
1.00466
1.00471
1.00477
1.00455
1.00465
1.0047
1.00475
1.00422
1.00427
1.00431
1.00435
1.00422
1.00427
1.00431
1.00436
1.00421
1.00427
1.00431
1.00436
1.00421
1.00427
1.00431
1.00436
1.00385
1.00388
1.00391
1.00394
1.00385
1.00389
1.00392
1.00394
1.00385
1.00389
1.00392
1.00395
1.00385
1.00389
1.00392
1.00395
1.00348
1.0035
1.00352
1.00354
1.00348
1.00351
1.00353
1.00355
1.00348
1.00351
1.00353
1.00355
1.00348
1.00351
1.00353
1.00355
1.00311
1.00313
1.00314
1.00316
1.00311
1.00313
1.00315
1.00316
1.00311
1.00313
1.00315
1.00316
1.00311
1.00313
1.00315
1.00316
1.00274
1.00276
1.00277
1.00278
1.00275
1.00276
1.00277
1.00278
1.00275
1.00276
1.00277
1.00278
1.00275
1.00276
1.00277
1.00278
1.00238
1.00239
1.00239
1.0024
1.00238
1.00239
1.00239
1.0024
1.00238
1.00239
1.00239
1.0024
1.00238
1.00239
1.00239
1.0024
1.00201
1.00202
1.00202
1.00203
1.00201
1.00202
1.00202
1.00203
1.00201
1.00202
1.00202
1.00203
1.00201
1.00202
1.00202
1.00203
1.00164
1.00165
1.00165
1.00166
1.00164
1.00165
1.00165
1.00166
1.00164
1.00165
1.00165
1.00166
1.00164
1.00165
1.00165
1.00166
1.00128
1.00128
1.00128
1.00129
1.00128
1.00128
1.00128
1.00129
1.00128
1.00128
1.00128
1.00129
1.00128
1.00128
1.00128
1.00129
1.00091
1.00091
1.00092
1.00092
1.00091
1.00091
1.00092
1.00092
1.00091
1.00092
1.00092
1.00092
1.00091
1.00092
1.00092
1.00092
1.00055
1.00055
1.00055
1.00055
1.00055
1.00055
1.00055
1.00055
1.00055
1.00055
1.00055
1.00055
1.00055
1.00055
1.00055
1.00055
1.00018
1.00018
1.00018
1.00018
1.00018
1.00018
1.00018
1.00018
1.00018
1.00018
1.00018
1.00018
1.00018
1.00018
1.00018
1.00018
17.6218
17.5452
17.4248
17.26
17.6924
17.5612
17.4771
17.4571
17.7037
17.5797
17.489
17.3712
17.498
17.5197
17.3445
17.2516
15.5794
15.6322
15.0347
14.8423
15.2743
15.1804
15.0554
15.0404
15.1859
15.126
15.2877
15.1229
15.2608
15.324
15.3161
15.2466
11.9099
11.5927
11.823
11.7713
11.9607
11.8106
11.867
11.5086
11.9843
11.6785
11.6616
11.5999
12.0889
11.9511
12.0719
12.2122
8.46146
8.35365
8.44596
8.52207
8.78142
8.53024
8.40982
8.49626
8.59532
8.53832
8.61885
8.61752
8.63292
8.34586
8.58763
8.72485
4.78903
4.86944
4.85384
5.31133
4.73438
4.94911
4.9522
5.15619
5.16686
5.07585
5.12648
5.41558
5.26853
5.26611
5.25594
5.19
1.68386
1.61047
1.6623
1.78605
1.49383
1.65505
1.39557
1.60171
1.51915
1.80729
1.81999
2.10771
1.95597
2.05609
1.96328
2.09671
1.01512
1.01441
1.01792
1.0097
1.01238
1.01291
1.0209
1.01657
1.00923
1.02242
1.01513
1.01149
1.01341
1.01098
1.01411
1.01265
1.00186
1.0021
1.00228
1.00236
1.00233
1.00246
1.00384
1.0032
1.00162
1.00201
1.00234
1.00282
1.00131
1.00132
1.00157
1.00147
1.008
1.00807
1.00818
1.0078
1.00811
1.00823
1.0087
1.00859
1.00805
1.00837
1.00821
1.00808
1.00812
1.0081
1.00813
1.00818
1.00535
1.00541
1.00545
1.00527
1.00543
1.00551
1.00568
1.00555
1.00532
1.00538
1.00536
1.00523
1.00518
1.00516
1.00516
1.00508
1.00531
1.00535
1.00537
1.00536
1.00538
1.00543
1.00549
1.00552
1.00538
1.00542
1.00544
1.00547
1.00538
1.0054
1.00542
1.00545
1.00481
1.00484
1.00486
1.00485
1.00483
1.00487
1.0049
1.0049
1.00482
1.00484
1.00486
1.00485
1.00479
1.0048
1.00481
1.0048
1.00437
1.0044
1.00441
1.00442
1.00438
1.00441
1.00443
1.00444
1.00438
1.0044
1.00441
1.00442
1.00437
1.00438
1.00439
1.0044
1.00396
1.00398
1.00399
1.004
1.00396
1.00398
1.004
1.004
1.00396
1.00398
1.00399
1.00399
1.00396
1.00396
1.00397
1.00397
1.00356
1.00357
1.00358
1.00359
1.00356
1.00357
1.00358
1.00359
1.00356
1.00357
1.00358
1.00358
1.00355
1.00356
1.00357
1.00357
1.00317
1.00318
1.00318
1.00319
1.00317
1.00318
1.00318
1.00319
1.00317
1.00317
1.00318
1.00318
1.00316
1.00317
1.00317
1.00317
1.00278
1.00279
1.00279
1.0028
1.00278
1.00279
1.00279
1.0028
1.00278
1.00279
1.00279
1.00279
1.00278
1.00278
1.00279
1.00279
1.0024
1.00241
1.00241
1.00241
1.0024
1.00241
1.00241
1.00241
1.0024
1.00241
1.00241
1.00241
1.0024
1.00241
1.00241
1.00241
1.00203
1.00203
1.00203
1.00204
1.00203
1.00203
1.00203
1.00204
1.00203
1.00203
1.00203
1.00203
1.00203
1.00203
1.00203
1.00203
1.00166
1.00166
1.00166
1.00166
1.00166
1.00166
1.00166
1.00166
1.00166
1.00166
1.00166
1.00166
1.00166
1.00166
1.00166
1.00166
1.00129
1.00129
1.00129
1.00129
1.00129
1.00129
1.00129
1.00129
1.00129
1.00129
1.00129
1.00129
1.00129
1.00129
1.00129
1.00129
1.00092
1.00092
1.00092
1.00092
1.00092
1.00092
1.00092
1.00092
1.00092
1.00092
1.00092
1.00092
1.00092
1.00092
1.00092
1.00092
1.00055
1.00055
1.00055
1.00055
1.00055
1.00055
1.00055
1.00055
1.00055
1.00055
1.00055
1.00055
1.00055
1.00055
1.00055
1.00055
1.00018
1.00018
1.00018
1.00018
1.00018
1.00018
1.00018
1.00018
1.00018
1.00018
1.00018
1.00018
1.00018
1.00018
1.00018
1.00018
)
;

boundaryField
{
    inlet
    {
        type            zeroGradient;
    }
    outlet
    {
        type            fixedValue;
        value           uniform 1;
    }
    wall
    {
        type            zeroGradient;
    }
    procBoundary3to1
    {
        type            processor;
        value           nonuniform List<scalar> 
192
(
17.6256
17.5054
17.169
17.3983
15.4522
15.6078
15.5366
15.4769
12.4988
12.4999
13.2333
12.4803
8.57888
8.67234
8.75553
8.3286
5.01572
5.11831
5.07885
4.79
2.3308
1.83447
1.51476
1.53517
0.999315
1.00544
1.02328
1.01723
1.00048
1.00089
1.00241
1.00215
1.00684
1.00788
1.00839
1.00839
1.00468
1.00504
1.00529
1.00541
1.00491
1.00508
1.00519
1.00529
1.00455
1.00464
1.0047
1.00477
1.00419
1.00425
1.00429
1.00434
1.00383
1.00387
1.0039
1.00393
1.00347
1.00349
1.00351
1.00353
1.0031
1.00312
1.00313
1.00315
1.00273
1.00275
1.00276
1.00277
1.00237
1.00238
1.00239
1.00239
1.002
1.00201
1.00202
1.00202
1.00164
1.00164
1.00165
1.00165
1.00128
1.00128
1.00128
1.00128
1.00091
1.00091
1.00091
1.00092
1.00055
1.00055
1.00055
1.00055
1.00018
1.00018
1.00018
1.00018
17.6904
17.5865
17.4617
17.468
15.0306
15.479
15.3897
14.7914
11.8735
11.7368
11.868
11.5457
8.6158
8.3417
8.04173
8.27506
4.98134
4.89404
4.91988
5.12495
1.53035
1.51061
1.25741
1.36976
1.01247
1.01365
1.01075
1.01362
1.00229
1.00255
1.0029
1.0027
1.00815
1.00818
1.00823
1.00836
1.00542
1.0055
1.00556
1.00555
1.00534
1.00539
1.00543
1.00547
1.00482
1.00486
1.00489
1.0049
1.00437
1.0044
1.00442
1.00444
1.00396
1.00398
1.00399
1.004
1.00355
1.00357
1.00358
1.00359
1.00316
1.00317
1.00318
1.00318
1.00278
1.00279
1.00279
1.00279
1.0024
1.00241
1.00241
1.00241
1.00203
1.00203
1.00203
1.00203
1.00166
1.00166
1.00166
1.00166
1.00129
1.00129
1.00129
1.00129
1.00092
1.00092
1.00092
1.00092
1.00055
1.00055
1.00055
1.00055
1.00018
1.00018
1.00018
1.00018
)
;
    }
    procBoundary3to2
    {
        type            processor;
        value           nonuniform List<scalar> 
192
(
17.584
17.6371
17.5288
17.6129
14.8057
14.9845
15.6353
15.6038
13.3631
12.6965
12.3608
12.1474
9.20238
9.20105
8.60535
8.80298
5.53359
5.37901
5.34268
5.22693
2.05392
2.06353
2.17193
1.78498
1.0248
1.01295
1.02205
1.00666
1.00094
1.00089
1.00141
1.00047
1.0083
1.00759
1.0078
1.00689
1.00504
1.00493
1.00497
1.00472
1.00501
1.00499
1.00499
1.00494
1.00455
1.00455
1.00455
1.00454
1.00417
1.00418
1.00418
1.00418
1.00381
1.00382
1.00382
1.00382
1.00345
1.00346
1.00346
1.00346
1.00309
1.00309
1.00309
1.0031
1.00273
1.00273
1.00273
1.00273
1.00236
1.00236
1.00237
1.00237
1.002
1.002
1.002
1.002
1.00164
1.00164
1.00164
1.00164
1.00127
1.00127
1.00127
1.00127
1.00091
1.00091
1.00091
1.00091
1.00055
1.00055
1.00055
1.00055
1.00018
1.00018
1.00018
1.00018
17.6571
17.6355
17.5446
17.5825
14.9119
15.0638
15.4299
15.3672
11.8728
11.901
11.9205
11.5687
8.81719
8.79871
8.18974
8.1697
5.25988
4.56159
4.77773
4.37422
1.59027
1.69644
1.39014
1.34872
1.0165
1.01035
1.00835
1.01545
1.00079
1.0007
1.00121
1.00238
1.00728
1.00691
1.00671
1.00724
1.00479
1.00471
1.00469
1.00477
1.00494
1.00491
1.00491
1.00495
1.00454
1.00453
1.00453
1.00453
1.00418
1.00418
1.00418
1.00418
1.00382
1.00382
1.00382
1.00382
1.00346
1.00346
1.00346
1.00346
1.0031
1.0031
1.0031
1.0031
1.00273
1.00273
1.00273
1.00273
1.00237
1.00237
1.00237
1.00237
1.002
1.00201
1.00201
1.00201
1.00164
1.00164
1.00164
1.00164
1.00128
1.00128
1.00128
1.00128
1.00091
1.00091
1.00091
1.00091
1.00055
1.00055
1.00055
1.00055
1.00018
1.00018
1.00018
1.00018
)
;
    }
}


// ************************************************************************* //
