/*--------------------------------*- C++ -*----------------------------------*\
| =========                 |                                                 |
| \\      /  F ield         | OpenFOAM: The Open Source CFD Toolbox           |
|  \\    /   O peration     | Version:  2506                                  |
|   \\  /    A nd           | Website:  www.openfoam.com                      |
|    \\/     M anipulation  |                                                 |
\*---------------------------------------------------------------------------*/
FoamFile
{
    version     2.0;
    format      ascii;
    arch        "LSB;label=32;scalar=64";
    class       surfaceScalarField;
    location    "0.06";
    object      phi;
}
// * * * * * * * * * * * * * * * * * * * * * * * * * * * * * * * * * * * * * //

dimensions      [0 3 -1 0 0 0 0];

oriented        oriented;

internalField   nonuniform List<scalar> 
3120
(
-1.40038e-08
-7.82425e-09
9.93198e-08
2.70859e-09
-9.37914e-10
2.21818e-08
-4.54103e-09
-7.76747e-09
3.95718e-08
-5.60816e-10
2.03397e-08
2.14938e-09
-1.07527e-08
-1.80516e-08
7.30789e-08
-3.04825e-09
-1.04935e-09
3.09499e-08
-2.18345e-09
-8.80059e-11
2.92979e-08
1.84374e-09
3.29719e-08
9.78664e-11
2.56494e-09
1.36213e-09
7.08366e-09
-3.29926e-09
-3.79618e-09
4.63528e-08
-4.52919e-10
6.72405e-09
2.80488e-08
4.85126e-09
3.75461e-08
-3.25941e-09
-2.69007e-09
3.84359e-08
1.86251e-09
5.80177e-09
2.50043e-08
5.52061e-10
-4.09046e-09
5.33864e-08
9.66096e-10
3.01102e-08
4.43332e-09
2.95987e-09
-1.17752e-09
-1.00036e-08
3.88484e-08
1.84433e-09
-8.68586e-10
2.07017e-08
1.20772e-08
-2.91394e-09
3.76816e-08
-7.67693e-09
5.97172e-08
-9.34167e-09
6.45878e-09
1.56614e-09
3.55895e-08
-1.01705e-10
2.65951e-09
3.39823e-08
1.16816e-09
3.92796e-10
2.47213e-08
-1.24122e-09
2.56507e-08
2.0537e-09
-3.39324e-09
-1.49356e-08
3.43171e-08
-1.67208e-09
3.05063e-11
4.72607e-08
3.17442e-11
1.58208e-09
2.51557e-08
-7.53971e-10
3.07752e-08
6.3154e-09
-1.73209e-09
3.76552e-08
-6.45579e-09
-6.05092e-10
2.35504e-08
3.57391e-10
3.0692e-09
5.50611e-08
-3.76692e-09
3.60473e-08
-2.77407e-09
-8.47885e-10
7.85673e-09
2.98203e-09
1.35489e-08
-8.02119e-10
-9.72931e-11
2.81752e-08
6.94736e-09
3.20703e-09
4.14081e-08
2.1074e-09
5.91837e-08
1.16834e-08
8.26696e-10
3.05729e-09
3.48715e-08
4.09245e-09
8.91377e-10
2.97279e-08
3.91597e-10
8.29257e-10
3.07999e-08
1.76375e-09
2.22759e-08
4.10995e-09
-2.11057e-09
2.79251e-09
3.66555e-08
4.84797e-09
4.20502e-09
3.69885e-08
3.36124e-09
-3.21577e-09
3.06874e-08
-3.92033e-09
3.93263e-08
4.94212e-10
2.15946e-10
4.15684e-08
-1.17551e-09
-2.74893e-09
2.74256e-08
3.29462e-09
5.58753e-09
4.1501e-08
2.00783e-09
5.63783e-08
-1.74343e-08
-1.22946e-09
5.9368e-09
1.86751e-09
7.49236e-09
-9.28146e-09
-7.13082e-09
5.91238e-08
-1.02284e-08
4.12431e-09
4.24922e-08
5.76507e-09
2.88001e-08
8.71074e-09
3.39673e-09
3.62518e-10
3.9401e-08
4.80948e-09
-4.51639e-10
2.16359e-08
-1.47633e-09
-3.60518e-09
4.48152e-08
-5.30917e-10
3.0842e-08
-3.74642e-09
2.00993e-09
6.25402e-09
2.50589e-08
3.25118e-09
1.01672e-09
3.42789e-08
1.61124e-09
-3.21774e-09
3.19399e-08
-4.89727e-09
4.9157e-08
-3.85316e-09
-1.18518e-09
4.85916e-08
4.84419e-09
-3.99641e-10
2.22074e-08
5.44944e-09
3.29443e-10
3.58305e-08
1.7236e-09
5.49555e-08
-3.14381e-09
-1.23334e-12
-1.72473e-08
-2.81617e-09
5.7191e-08
-1.59003e-09
-8.57672e-10
5.38487e-08
4.83558e-09
-2.72226e-09
3.21334e-08
-1.58825e-09
3.391e-08
6.47578e-10
-1.54256e-10
-3.82675e-09
4.47029e-08
-2.29487e-11
-4.49558e-09
2.51425e-08
1.44438e-09
-4.76494e-09
4.53906e-08
-5.02661e-09
3.32168e-08
2.50792e-09
-3.55599e-13
3.42648e-09
1.90168e-08
2.86358e-09
4.06944e-10
2.65124e-08
9.55917e-10
6.34891e-10
2.84478e-08
-4.25245e-09
5.0288e-08
-9.49213e-10
-2.56605e-09
4.86793e-08
8.01867e-09
1.58291e-09
1.40926e-08
4.37272e-09
-2.47641e-09
3.98388e-08
6.85948e-10
5.31095e-08
-3.48159e-09
-1.40127e-09
3.19857e-09
1.38583e-08
3.04604e-08
6.73931e-09
9.28393e-09
3.50784e-08
6.99869e-09
5.88307e-09
1.62318e-08
4.90773e-09
3.44711e-08
-1.12181e-09
1.09677e-08
4.18877e-09
4.22402e-08
3.02943e-09
-8.52324e-10
4.32169e-08
3.32446e-09
-1.1613e-09
5.21399e-08
-3.61165e-09
4.7726e-08
-2.66533e-09
9.13668e-10
-4.36854e-09
2.83684e-08
1.72865e-09
2.05191e-09
2.27932e-08
2.11341e-09
-4.29877e-09
3.12004e-08
-6.73734e-09
5.40777e-08
1.44937e-09
1.22561e-08
1.87547e-08
5.90361e-09
-6.68794e-09
3.86676e-08
-3.57905e-09
-4.96893e-10
2.57708e-08
3.57814e-09
4.24333e-08
4.17594e-09
-7.3405e-10
5.33525e-09
1.48523e-09
2.83856e-08
2.90936e-09
-6.24767e-10
3.50325e-08
-1.59735e-09
-3.61624e-09
1.98094e-08
-1.68172e-09
3.50482e-08
-5.55258e-10
8.15531e-10
1.34379e-09
4.10586e-08
-5.56873e-11
1.40262e-09
4.20607e-08
1.40243e-09
6.07924e-10
4.64574e-08
-1.72671e-09
4.78026e-08
1.37063e-09
6.24271e-10
8.44341e-10
2.9374e-08
-3.40228e-11
-9.46234e-10
2.58003e-08
-6.00231e-10
3.55194e-10
3.20193e-08
5.3834e-11
4.87449e-08
2.95196e-09
-1.07696e-09
1.98693e-08
1.94811e-10
2.71443e-09
3.40176e-08
-8.75865e-11
1.06995e-09
2.83777e-08
-6.07304e-10
4.15758e-08
-7.40048e-10
2.72124e-09
1.3386e-09
5.69704e-10
2.50421e-08
-6.12525e-10
-1.64841e-09
3.83678e-08
-3.20284e-09
-5.1108e-10
2.66897e-08
-1.97317e-09
3.56996e-08
-9.34698e-10
-2.79857e-09
3.96785e-11
4.3291e-08
-4.76057e-09
-2.13213e-10
4.25872e-08
-2.83948e-09
2.0721e-09
4.19529e-08
1.79109e-09
4.07373e-08
4.61371e-10
-9.50175e-10
-6.32622e-10
3.09569e-08
-2.38633e-09
-1.39164e-09
2.84146e-08
-2.9749e-09
1.22972e-09
3.34502e-08
3.59166e-09
4.36043e-08
3.65047e-10
-1.70739e-09
1.78755e-08
4.59345e-10
8.90698e-10
2.96273e-08
4.0001e-10
3.47305e-10
3.08391e-08
-6.88439e-10
4.31392e-08
9.38738e-10
1.43644e-09
-1.60953e-09
-2.81235e-09
3.45527e-08
-4.38298e-10
7.05625e-10
3.81144e-08
-3.43534e-09
-8.84023e-10
3.51349e-08
-1.67466e-09
3.74304e-08
-2.58253e-09
-2.89386e-09
2.33654e-09
3.85476e-08
-2.34075e-09
3.27693e-09
3.94624e-08
-1.70921e-09
6.5013e-10
3.97872e-08
-1.52916e-09
3.98043e-08
-9.21454e-10
-1.34867e-09
1.83386e-09
3.41237e-08
-3.88297e-09
-1.39489e-10
3.43651e-08
-5.79488e-09
-4.99552e-10
3.65118e-08
-1.09156e-09
4.01007e-08
-2.72876e-09
-4.43724e-09
2.99732e-08
-5.69898e-09
-4.61518e-09
3.36122e-08
-3.94668e-09
-6.21448e-09
3.52625e-08
-3.32352e-09
3.92015e-08
-8.2566e-10
-2.54315e-09
-9.93849e-10
1.27122e-10
3.70181e-08
-6.53254e-10
7.19299e-10
3.81002e-08
-1.6096e-09
1.26209e-10
3.73944e-08
-2.57947e-10
3.79289e-08
-1.60522e-09
-1.68608e-09
1.45005e-09
3.77473e-08
-1.65426e-09
1.73015e-09
3.84194e-08
-1.42949e-09
1.07021e-09
3.86181e-08
3.36239e-10
3.87914e-08
-1.01109e-09
-1.23909e-09
5.92109e-10
3.62445e-08
-2.16177e-09
3.34357e-10
3.66831e-08
-2.57125e-09
5.28363e-10
3.74629e-08
6.78397e-10
3.85688e-08
-1.38174e-09
-1.74656e-09
3.49981e-08
-2.69599e-09
-2.06405e-09
3.61189e-08
-1.85523e-09
-2.20737e-09
3.6884e-08
-9.5002e-10
3.806e-08
2.95032e-10
-6.82916e-10
-4.74082e-10
1.91179e-10
3.78836e-08
-4.11662e-10
2.93599e-10
3.82337e-08
-7.31589e-10
1.27522e-11
3.80938e-08
-2.35294e-10
3.82275e-08
-7.77069e-10
-8.10182e-10
4.20333e-10
3.79311e-08
-8.68889e-10
4.98445e-10
3.82729e-08
-8.72568e-10
2.2304e-10
3.84113e-08
-9.23631e-11
3.8511e-08
-7.353e-10
-6.88524e-10
-1.00073e-10
3.74246e-08
-1.09933e-09
-9.24477e-11
3.76844e-08
-1.32185e-09
-8.06766e-11
3.7989e-08
-1.76625e-10
3.832e-08
-9.88893e-10
-7.45417e-10
3.70668e-08
-1.33253e-09
-1.0953e-09
3.74319e-08
-1.05589e-09
-1.28987e-09
3.77133e-08
-7.15517e-10
3.79918e-08
-5.21268e-10
-8.77226e-10
-1.76503e-10
1.62884e-10
3.82039e-08
-1.92491e-10
1.65741e-10
3.83226e-08
-3.08914e-10
5.71907e-11
3.82986e-08
1.61426e-11
3.83193e-08
-3.75168e-10
-3.0849e-10
1.28524e-10
3.81574e-08
-3.48492e-10
1.81384e-10
3.82971e-08
-3.77402e-10
1.41058e-10
3.83562e-08
1.13473e-10
3.83836e-08
-3.47586e-10
-2.4272e-10
-1.51231e-10
3.79869e-08
-3.8434e-10
-8.33393e-11
3.80905e-08
-4.44204e-10
1.04411e-11
3.81794e-08
8.69505e-11
3.82395e-08
-3.37365e-10
-1.64389e-10
3.78801e-08
-6.71518e-10
-2.80984e-10
3.7978e-08
-5.1318e-10
-2.95699e-10
3.80228e-08
-2.84485e-10
3.80183e-08
-1.0869e-10
-1.26719e-10
-3.7223e-11
8.37917e-11
3.83557e-08
-7.2295e-11
7.88691e-11
3.83962e-08
-1.28214e-10
4.17378e-11
3.83838e-08
3.14384e-11
3.83678e-08
-1.66562e-10
-8.20659e-11
1.97155e-11
3.83189e-08
-1.1949e-10
4.56305e-11
3.83676e-08
-1.50133e-10
4.96087e-11
3.83789e-08
5.83323e-11
3.8361e-08
-1.54604e-10
-4.39019e-11
-1.27362e-10
3.82532e-08
-1.11599e-10
-8.07466e-11
3.82843e-08
-1.47248e-10
-2.48707e-11
3.82894e-08
1.89789e-11
3.82598e-08
-1.28374e-10
6.69699e-12
3.8208e-08
-3.34887e-10
-5.07685e-11
3.82183e-08
-2.63835e-10
-7.01258e-11
3.81818e-08
-1.64801e-10
3.80999e-08
-1.04601e-10
-2.85405e-11
1.39583e-11
3.92068e-11
3.84397e-08
-1.1415e-11
3.74215e-11
3.8446e-08
-4.26597e-11
2.9684e-11
3.84294e-08
3.19921e-11
3.83946e-08
-6.54751e-11
5.11554e-12
-7.36134e-12
3.84157e-08
-2.23991e-11
8.48308e-12
3.8424e-08
-4.42789e-11
2.02629e-11
3.841e-08
3.64049e-11
3.83683e-08
-5.61593e-11
2.4443e-11
-8.05617e-11
3.83813e-08
-6.92191e-12
-5.4272e-11
3.83783e-08
-2.70839e-11
-2.15071e-11
3.83511e-08
1.05641e-11
3.82887e-08
-3.0353e-11
5.8713e-11
3.83421e-08
-1.67508e-10
3.56295e-11
3.83214e-08
-1.34497e-10
1.88446e-11
3.82636e-08
-8.67205e-11
3.81571e-08
-5.10467e-11
2.29427e-11
3.22529e-11
1.89483e-11
3.8487e-08
1.36838e-11
1.96441e-11
3.84803e-08
-6.14309e-12
1.96408e-11
3.84585e-08
2.36044e-11
3.84129e-08
-2.12193e-11
3.14327e-11
-9.63591e-12
3.84706e-08
1.30706e-11
-7.28538e-13
3.84626e-08
-3.40552e-12
8.65228e-12
3.84374e-08
2.0136e-11
3.83835e-08
-1.52748e-11
4.22086e-11
-4.63403e-11
3.84443e-08
2.42041e-11
-3.26209e-11
3.8428e-08
8.99461e-12
-1.4465e-11
3.83894e-08
3.96688e-12
3.83146e-08
-9.62914e-13
6.00892e-11
3.8401e-08
-8.41608e-11
4.66716e-11
3.83712e-08
-6.92459e-11
3.40788e-11
3.83076e-08
-4.6012e-11
3.81954e-08
-2.85976e-11
2.82109e-11
3.39985e-11
1.02544e-11
3.85143e-08
2.13183e-11
1.14943e-11
3.85029e-08
8.57869e-12
1.28899e-11
3.84775e-08
1.59331e-11
3.84262e-08
-1.61695e-12
3.49784e-11
-6.07758e-12
3.85013e-08
2.2703e-11
-1.23753e-12
3.84876e-08
1.11348e-11
4.50029e-12
3.84574e-08
1.15432e-11
3.83974e-08
1.51419e-12
4.0732e-11
-2.48297e-11
3.84765e-08
2.937e-11
-1.79849e-11
3.84561e-08
1.86953e-11
-8.62417e-12
3.84131e-08
1.41226e-12
3.83335e-08
9.78763e-12
4.9512e-11
3.84287e-08
-4.21673e-11
4.09507e-11
3.83973e-08
-3.56137e-11
3.13198e-11
3.83331e-08
-2.45284e-11
3.82198e-08
-1.61169e-11
2.42613e-11
2.98215e-11
6.28044e-12
3.85299e-08
2.16074e-11
7.3515e-12
3.85172e-08
1.3302e-11
8.5408e-12
3.84901e-08
1.03593e-11
3.84359e-08
6.20695e-12
3.0805e-11
-2.70117e-12
3.85184e-08
2.28845e-11
-3.12041e-13
3.85033e-08
1.49924e-11
2.86961e-12
3.84709e-08
6.58285e-12
3.84082e-08
7.95836e-12
3.37017e-11
-1.24931e-11
3.84936e-08
2.64788e-11
-9.40484e-12
3.84724e-08
1.90367e-11
-4.73098e-12
3.84281e-08
3.89188e-13
3.83467e-08
1.19368e-11
3.79216e-11
3.84426e-08
-2.08992e-11
3.20321e-11
3.84118e-08
-1.81091e-11
2.51582e-11
3.83483e-08
-1.31317e-11
3.82354e-08
-9.44211e-12
1.93051e-11
2.41399e-11
4.27537e-12
3.8539e-08
1.89533e-11
4.99933e-12
3.85262e-08
1.34978e-11
5.78827e-12
3.84984e-08
6.76059e-12
3.8443e-08
8.5278e-12
2.48234e-11
-7.21214e-13
3.85282e-08
1.97746e-11
5.05617e-13
3.85129e-08
1.44582e-11
2.12759e-12
3.84799e-08
3.96129e-12
3.8416e-08
9.37434e-12
2.62432e-11
-5.85517e-12
3.85029e-08
2.15938e-11
-4.49984e-12
3.8482e-08
1.64787e-11
-2.31981e-12
3.84376e-08
1.69897e-13
3.83557e-08
1.12158e-11
2.80869e-11
3.84501e-08
-1.01303e-11
2.40963e-11
3.84204e-08
-9.08457e-12
1.92681e-11
3.83577e-08
-6.94013e-12
3.82453e-08
-5.57911e-12
1.50108e-11
1.87054e-11
3.13416e-12
3.85443e-08
1.54175e-11
3.55398e-12
3.85317e-08
1.17994e-11
3.99924e-12
3.85039e-08
4.46086e-12
3.8448e-08
8.3209e-12
1.91012e-11
3.80019e-13
3.85338e-08
1.58735e-11
9.21787e-13
3.85188e-08
1.22816e-11
1.70134e-12
3.84858e-08
2.50464e-12
3.84216e-08
8.69573e-12
1.9741e-11
-2.42555e-12
3.85081e-08
1.67419e-11
-1.92302e-12
3.84878e-08
1.32312e-11
-8.88813e-13
3.84437e-08
1.43081e-13
3.83618e-08
9.46331e-12
2.04026e-11
3.84543e-08
-4.70316e-12
1.77127e-11
3.84255e-08
-4.42472e-12
1.45266e-11
3.83637e-08
-3.70737e-12
3.82517e-08
-3.3098e-12
1.14623e-11
1.39666e-11
2.34981e-12
3.85474e-08
1.18744e-11
2.56131e-12
3.85352e-08
9.4734e-12
2.77633e-12
3.85075e-08
2.95621e-12
3.84514e-08
7.05634e-12
1.41611e-11
8.11359e-13
3.8537e-08
1.21002e-11
1.01412e-12
3.85224e-08
9.70862e-12
1.32606e-12
3.84896e-08
1.63336e-12
3.84254e-08
7.20067e-12
1.44184e-11
-7.27382e-13
3.85111e-08
1.24561e-11
-5.87283e-13
3.84913e-08
1.0134e-11
-2.99275e-13
3.84476e-08
1.6141e-13
3.83659e-08
7.46707e-12
1.45501e-11
3.84567e-08
-2.02254e-12
1.28089e-11
3.84287e-08
-2.09114e-12
1.06703e-11
3.83675e-08
-1.98302e-12
3.82559e-08
-1.99839e-12
8.54956e-12
1.00079e-11
1.71924e-12
3.85492e-08
8.69502e-12
1.80129e-12
3.85373e-08
7.1396e-12
1.89938e-12
3.85098e-08
1.95278e-12
3.84538e-08
5.47553e-12
1.00867e-11
8.4047e-13
3.85389e-08
8.79384e-12
8.85115e-13
3.85246e-08
7.24263e-12
9.853e-13
3.84921e-08
1.10202e-12
3.84279e-08
5.50802e-12
1.01596e-11
-6.33742e-14
3.85128e-08
8.91672e-12
-8.69217e-14
3.84935e-08
7.3472e-12
5.49821e-15
3.84501e-08
1.71736e-13
3.83686e-08
5.54033e-12
1.0105e-11
3.84581e-08
-7.73458e-13
8.97643e-12
3.84307e-08
-9.52984e-13
7.57536e-12
3.83699e-08
-1.04218e-12
3.82587e-08
-1.20825e-12
6.14359e-12
6.79672e-12
1.19878e-12
3.85501e-08
5.99278e-12
1.2194e-12
3.85386e-08
4.99858e-12
1.25251e-12
3.85113e-08
1.25871e-12
3.84553e-08
3.9218e-12
6.811e-12
7.03503e-13
3.85399e-08
6.02654e-12
6.8671e-13
3.8526e-08
5.02816e-12
7.03473e-13
3.84936e-08
7.16352e-13
3.84296e-08
3.9057e-12
6.80216e-12
2.01175e-13
3.85138e-08
6.05597e-12
9.95974e-14
3.84948e-08
5.05883e-12
1.03367e-13
3.84517e-08
1.38804e-13
3.83703e-08
3.86717e-12
6.71848e-12
3.8459e-08
-2.16726e-13
6.0147e-12
3.84319e-08
-4.07125e-13
5.13396e-12
3.83715e-08
-5.44706e-13
3.82604e-08
-7.23128e-13
4.19748e-12
4.3069e-12
7.31072e-13
3.85506e-08
3.84887e-12
7.28343e-13
3.85393e-08
3.26315e-12
7.37265e-13
3.85121e-08
7.27488e-13
3.84563e-08
2.6067e-12
4.29596e-12
4.69282e-13
3.85404e-08
3.85368e-12
4.32878e-13
3.85267e-08
3.2735e-12
4.16726e-13
3.84945e-08
3.99837e-13
3.84306e-08
2.58658e-12
4.26473e-12
2.01666e-13
3.85143e-08
3.84246e-12
1.07508e-13
3.84956e-08
3.26275e-12
7.1293e-14
3.84526e-08
7.16976e-14
3.83714e-08
2.53596e-12
4.18857e-12
3.84594e-08
-2.79907e-14
3.78423e-12
3.84326e-08
-1.7869e-13
3.25683e-12
3.83723e-08
-2.9957e-13
3.82615e-08
-4.30418e-13
2.67707e-12
2.45742e-12
2.48378e-13
2.23086e-12
2.45627e-13
1.92712e-12
2.50429e-13
2.49141e-13
1.57193e-12
2.45209e-12
1.30391e-13
2.22961e-12
1.04014e-13
1.92451e-12
8.34324e-14
6.2063e-14
1.55783e-12
2.42877e-12
1.31439e-14
2.21146e-12
-3.62611e-14
1.90656e-12
-8.58149e-14
-1.23832e-13
1.52315e-12
2.37456e-12
-8.28504e-14
2.17527e-12
-1.73562e-13
1.88908e-12
-2.55067e-13
-3.29906e-13
1.53164e-12
-2.71597e-09
-1.63195e-09
4.95489e-08
8.90316e-09
2.33924e-10
2.42467e-08
-1.23194e-09
-2.45586e-09
4.29644e-08
5.90752e-09
2.07046e-08
-1.38294e-09
-2.66018e-10
8.04057e-09
3.72621e-08
3.97346e-09
9.75746e-09
2.65752e-08
2.30727e-09
1.09769e-08
2.37117e-08
1.52473e-08
2.24162e-08
-2.42467e-09
2.07707e-09
-1.53293e-09
6.11317e-08
4.1865e-09
-6.97718e-10
5.61801e-08
3.61439e-09
1.08574e-09
5.16187e-08
6.07741e-09
5.02738e-08
-4.87995e-09
3.36629e-11
5.47208e-08
3.05841e-09
4.88995e-08
4.47058e-09
4.57975e-08
5.09412e-08
-2.73525e-09
3.24876e-09
2.38026e-09
3.04899e-08
-2.93791e-09
3.69471e-09
2.7096e-08
5.63588e-09
1.27468e-09
2.9349e-08
3.9301e-09
2.05798e-08
-9.43552e-10
5.0242e-09
-3.47168e-10
3.05316e-08
-1.7739e-09
-6.22296e-09
4.32909e-08
2.03993e-09
4.67097e-09
1.65016e-08
-5.98006e-09
3.55096e-08
-1.14337e-09
2.16205e-09
1.10076e-08
4.7844e-08
3.68086e-09
9.57989e-09
3.88585e-08
-1.1976e-09
-4.46828e-09
6.56364e-08
6.19273e-09
3.96961e-08
-2.79274e-09
3.10474e-09
6.71493e-08
-2.19356e-09
6.3666e-08
2.18027e-09
3.6967e-08
6.20025e-08
-2.80236e-09
4.15761e-09
6.60267e-10
1.8297e-08
-4.04222e-09
-3.4407e-09
4.20311e-08
5.08171e-09
4.65679e-09
1.75761e-08
-1.7007e-08
1.73845e-08
7.84972e-09
2.26455e-09
1.2322e-09
2.53839e-08
1.38208e-09
-3.96417e-09
4.46969e-08
1.52076e-09
-8.92116e-09
2.99409e-08
-1.98167e-08
4.14244e-08
-1.58428e-09
-1.75702e-09
-1.26558e-08
6.32569e-08
4.66377e-10
-7.12029e-09
3.97912e-08
-1.61272e-09
-2.36843e-09
6.11628e-08
-3.69429e-09
2.1241e-08
7.20005e-10
1.02215e-09
4.703e-08
3.20925e-09
5.52316e-08
-2.17491e-09
3.977e-08
5.63276e-08
2.0367e-10
-1.01264e-09
4.6487e-09
2.89912e-08
-2.92114e-09
-4.57244e-09
5.39615e-08
-1.89954e-09
-1.58972e-09
1.98678e-08
-3.6637e-09
1.50483e-08
9.56488e-10
-6.17517e-09
-4.76551e-09
5.14995e-08
-1.40217e-09
8.04402e-09
2.73074e-08
-2.86087e-09
-3.95053e-10
3.02049e-08
-1.54936e-09
3.22348e-08
4.21442e-09
-1.22489e-09
-5.36344e-09
6.53795e-08
-6.047e-09
-1.40393e-08
6.66967e-08
-1.97188e-09
-4.39058e-09
6.10832e-08
-3.79671e-09
2.00695e-08
1.44693e-09
-4.06989e-09
4.26527e-08
-1.01911e-09
3.878e-08
-2.22681e-09
3.76071e-08
4.95034e-08
1.45456e-09
-9.79247e-09
-4.8908e-09
6.14118e-08
3.48794e-10
4.07505e-09
4.41179e-08
-3.05182e-09
-2.97532e-09
2.69297e-08
-1.91141e-10
7.67704e-09
1.02895e-09
-1.03403e-09
-3.28291e-09
4.66611e-08
-2.37456e-09
-1.34215e-09
3.40651e-08
-1.98906e-09
2.65472e-09
2.41894e-08
1.05121e-09
2.74736e-08
1.52969e-09
4.96516e-09
-1.48766e-09
5.71573e-08
-2.92475e-09
5.79162e-09
6.74528e-08
-2.69881e-09
4.38011e-09
5.91318e-08
-2.83642e-09
2.06714e-08
5.86877e-10
-8.45933e-10
3.81491e-08
-1.28886e-09
4.44941e-08
-4.31899e-09
4.5048e-08
4.14275e-08
1.16615e-09
3.9095e-09
1.81464e-08
3.07454e-08
1.83957e-09
5.51511e-09
3.70936e-08
9.41692e-10
2.96979e-09
2.84359e-08
-2.26116e-09
1.60669e-08
-1.01109e-09
-1.69748e-09
2.03574e-09
6.67826e-08
6.78494e-10
5.12945e-09
3.20748e-08
-1.48727e-09
-1.86992e-09
3.11948e-08
4.85017e-09
2.03312e-08
-1.45622e-09
-4.92996e-10
4.63197e-09
5.30759e-08
-1.90102e-09
1.84463e-09
7.21457e-08
9.58405e-10
3.08023e-09
5.13222e-08
-3.49993e-09
3.18295e-08
-1.84956e-09
-1.36301e-09
4.36919e-08
-1.67615e-09
4.6572e-08
-1.14122e-09
4.75884e-08
4.01791e-08
-3.24415e-09
-5.59089e-10
-4.32336e-10
3.16195e-08
2.3104e-10
1.14538e-09
3.50705e-08
3.3215e-10
-1.36022e-09
2.90876e-08
-5.36969e-09
2.11994e-08
-1.70668e-10
1.12124e-09
3.30499e-09
6.01726e-08
-4.88011e-10
-1.70015e-09
3.65296e-08
6.58667e-10
-4.00301e-09
3.26909e-08
-6.32887e-09
2.09504e-08
9.98673e-10
-2.18444e-09
1.38528e-09
5.58803e-08
2.9646e-10
3.14528e-09
6.48195e-08
5.02166e-10
4.25668e-10
4.66878e-08
-6.0392e-09
3.21842e-08
-1.42316e-10
-1.01111e-09
4.71527e-08
-9.32205e-10
4.92988e-08
-1.2031e-09
4.86183e-08
4.07998e-08
1.87562e-10
-7.66729e-10
1.33843e-10
3.26622e-08
1.48973e-10
-5.55802e-10
3.51105e-08
2.55548e-10
-1.40636e-09
2.96987e-08
-2.20885e-10
2.2583e-08
3.13531e-11
-4.18609e-10
7.44709e-10
5.8329e-08
4.89014e-10
-4.9266e-09
3.99929e-08
1.03518e-09
-2.99747e-09
3.37357e-08
-2.80179e-09
2.45448e-08
2.10334e-11
-3.00381e-09
-4.39982e-10
5.78775e-08
1.62393e-09
-2.38565e-10
5.55038e-08
1.47364e-09
-2.9974e-10
4.41403e-08
-7.78581e-10
3.10616e-08
5.72384e-10
9.97377e-10
4.74182e-08
1.15891e-09
4.88987e-08
1.27587e-09
4.82016e-08
4.03178e-08
9.79011e-10
-1.13354e-09
-7.60388e-09
3.66709e-08
-1.39324e-09
-3.89445e-09
3.53175e-08
-1.70292e-09
-3.24006e-09
2.99249e-08
-1.4685e-09
2.20634e-08
-5.40665e-10
1.26713e-09
-5.22878e-10
4.97082e-08
-2.65382e-10
-4.47928e-09
4.21102e-08
-9.353e-10
-4.10108e-09
3.52666e-08
-3.38219e-09
2.61605e-08
-6.37614e-10
2.52173e-10
3.7237e-09
5.50472e-08
-2.61134e-10
3.80918e-10
5.11567e-08
-3.39486e-10
-1.88377e-09
4.20014e-08
-3.66366e-09
3.12493e-08
-2.46007e-10
5.59858e-10
5.39253e-08
-1.72781e-09
5.15673e-08
-1.04763e-09
4.56375e-08
3.57652e-08
-1.58872e-10
-3.27871e-11
-4.17793e-09
3.86565e-08
-1.77081e-10
-2.6286e-09
3.62349e-08
-2.36281e-10
-1.68998e-09
3.07239e-08
-3.35422e-10
2.27899e-08
-3.32435e-10
1.08766e-09
-1.72318e-09
4.6485e-08
8.44189e-10
-2.49056e-09
4.22155e-08
4.18887e-10
-1.7152e-09
3.57171e-08
-6.55179e-10
2.71367e-08
-2.3767e-10
1.13431e-09
1.17021e-09
5.22178e-08
1.25174e-09
1.7197e-10
4.83765e-08
8.14286e-10
-1.31565e-10
4.08552e-08
-8.94401e-11
3.15415e-08
-4.39049e-11
1.41861e-09
5.55601e-08
8.11713e-10
5.23461e-08
7.27031e-10
4.55905e-08
3.636e-08
4.26706e-11
-6.08036e-11
-1.94087e-09
3.96474e-08
-2.85034e-10
-1.41518e-09
3.68182e-08
-3.44984e-10
-9.22724e-10
3.0991e-08
-6.01123e-10
2.26323e-08
-1.07431e-10
3.67391e-10
-1.24318e-09
4.58828e-08
1.22799e-10
-1.35009e-09
4.23949e-08
-6.61883e-11
-9.52477e-10
3.59356e-08
-6.44783e-10
2.71871e-08
-7.31596e-11
5.88247e-10
-2.4332e-10
5.144e-08
3.6611e-10
-5.66588e-10
4.78149e-08
1.26621e-10
-6.45774e-10
4.07878e-08
-6.53126e-10
3.16624e-08
1.37783e-11
7.10657e-10
5.56549e-08
3.18815e-10
5.21713e-08
1.7174e-10
4.50917e-08
3.58396e-08
3.88898e-11
1.46121e-10
-9.53048e-10
4.00235e-08
1.191e-10
-7.21844e-10
3.70537e-08
6.94779e-11
-4.14206e-10
3.11701e-08
-1.67278e-10
2.27631e-08
-2.88703e-12
3.62723e-10
-6.89803e-10
4.56118e-08
3.47333e-10
-6.23798e-10
4.2312e-08
2.09672e-10
-3.46256e-10
3.6005e-08
-1.27155e-10
2.73312e-08
2.52523e-11
4.96092e-10
-1.30819e-10
5.08802e-08
4.90806e-10
-1.94129e-10
4.73902e-08
3.17406e-10
-8.44173e-11
4.06991e-08
8.56053e-12
3.17847e-08
5.89587e-11
5.70176e-10
5.55399e-08
5.18118e-10
5.2029e-08
3.63158e-10
4.5162e-08
3.6136e-08
7.50917e-11
1.41433e-10
-4.55792e-10
4.01835e-08
1.23868e-10
-3.57428e-10
3.71645e-08
7.41896e-11
-2.01166e-10
3.12559e-08
-1.05177e-10
2.28091e-08
2.86672e-11
2.40037e-10
-3.69056e-10
4.55252e-08
2.22038e-10
-3.15549e-10
4.22879e-08
1.3205e-10
-1.6996e-10
3.60634e-08
-8.48105e-11
2.74007e-08
4.19826e-11
3.04322e-10
-1.36853e-10
5.06455e-08
2.94584e-10
-1.53784e-10
4.72378e-08
1.8696e-10
-8.73965e-11
4.07238e-08
-5.41892e-11
3.18799e-08
6.08132e-11
3.38331e-10
5.53991e-08
3.12774e-10
5.19007e-08
2.03934e-10
4.51833e-08
3.62194e-08
6.60638e-11
1.18058e-10
-2.16424e-10
4.02475e-08
1.07951e-10
-1.73191e-10
3.7213e-08
7.1147e-11
-9.61297e-11
3.13018e-08
-4.47161e-11
2.28429e-08
3.08494e-11
1.62829e-10
-1.84965e-10
4.54889e-08
1.52322e-10
-1.52102e-10
4.2277e-08
9.78782e-11
-7.49036e-11
3.60962e-08
-2.90999e-11
2.7446e-08
3.66775e-11
1.90886e-10
-8.68384e-11
5.05381e-08
1.87359e-10
-8.26892e-11
4.71716e-08
1.22797e-10
-3.53084e-11
4.07484e-08
-1.06954e-11
3.19383e-08
4.57095e-11
2.06507e-10
5.52987e-08
2.00559e-10
5.18238e-08
1.35188e-10
4.52132e-08
3.62971e-08
4.65978e-11
8.71076e-11
-1.04585e-10
4.02752e-08
7.73658e-11
-8.42582e-11
3.72376e-08
5.12749e-11
-4.6432e-11
3.13282e-08
-2.28969e-11
2.28645e-08
2.38183e-11
1.04558e-10
-9.15433e-11
4.54742e-08
9.7376e-11
-7.53855e-11
4.22751e-08
6.30075e-11
-3.54477e-11
3.61194e-08
-1.39542e-11
2.74739e-08
2.59719e-11
1.18113e-10
-4.7925e-11
5.0489e-08
1.11484e-10
-4.30088e-11
4.71456e-08
7.32143e-11
-1.75464e-11
4.07685e-08
-6.40423e-12
3.19738e-08
2.999e-11
1.24106e-10
5.52415e-08
1.18017e-10
5.17867e-08
7.85757e-11
4.5235e-08
3.63395e-08
2.96466e-11
6.14874e-11
-5.14104e-11
4.02885e-08
5.28347e-11
-4.13482e-11
3.72518e-08
3.50345e-11
-2.29543e-11
3.13443e-08
-1.17079e-11
2.28782e-08
1.68809e-11
6.84933e-11
-4.49037e-11
4.54692e-08
6.12834e-11
-3.66628e-11
4.22774e-08
4.02739e-11
-1.70915e-11
3.61343e-08
-6.39932e-12
2.74911e-08
1.76285e-11
7.381e-11
-2.51925e-11
5.04667e-08
6.84436e-11
-2.21187e-11
4.71363e-08
4.48862e-11
-8.298e-12
4.0783e-08
-2.22051e-12
3.19949e-08
1.93741e-11
7.61027e-11
5.52115e-08
7.00778e-11
5.17705e-08
4.63008e-11
4.52504e-08
3.63647e-08
1.88284e-11
4.28076e-11
-2.51088e-11
4.02954e-08
3.57705e-11
-1.98811e-11
3.72605e-08
2.37546e-11
-1.12945e-11
3.13544e-08
-6.30743e-12
2.28869e-08
1.19469e-11
4.55793e-11
-2.23297e-11
4.54678e-08
3.93748e-11
-1.74723e-11
4.22811e-08
2.60851e-11
-8.11787e-12
3.61442e-08
-3.15646e-12
2.75018e-08
1.21651e-11
4.73714e-11
-1.26322e-11
5.04574e-08
4.24324e-11
-1.07534e-11
4.71343e-08
2.81618e-11
-4.00612e-12
4.0793e-08
-8.35929e-13
3.20079e-08
1.27256e-11
4.77079e-11
5.5197e-08
4.28693e-11
5.17645e-08
2.8264e-11
4.52609e-08
3.63797e-08
1.23147e-11
2.98201e-11
-1.21013e-11
4.02995e-08
2.44781e-11
-9.47453e-12
3.72661e-08
1.63404e-11
-5.38334e-12
3.13609e-08
-3.30921e-12
2.28925e-08
8.53183e-12
3.07553e-11
-1.09367e-11
4.54678e-08
2.59337e-11
-8.18979e-12
4.22844e-08
1.73141e-11
-3.62336e-12
3.61509e-08
-1.33557e-12
2.75086e-08
8.41531e-12
3.12603e-11
-6.45617e-12
5.04534e-08
2.72061e-11
-5.13073e-12
4.71352e-08
1.82227e-11
-1.65986e-12
4.07999e-08
-1.71985e-13
3.2016e-08
8.76222e-12
3.07391e-11
5.51903e-08
2.68549e-11
5.17632e-08
1.79211e-11
4.52681e-08
3.63891e-08
8.28347e-12
2.07592e-11
-5.63188e-12
4.0302e-08
1.68797e-11
-4.34599e-12
3.72698e-08
1.13621e-11
-2.49247e-12
3.13651e-08
-1.5998e-12
2.28962e-08
6.09101e-12
2.09241e-11
-5.14235e-12
4.54684e-08
1.74029e-11
-3.69141e-12
4.22872e-08
1.16559e-11
-1.46911e-12
3.61554e-08
-3.98326e-13
2.75131e-08
5.89643e-12
2.09596e-11
-3.12234e-12
5.0452e-08
1.78493e-11
-2.30316e-12
4.71369e-08
1.20596e-11
-5.5774e-13
4.08046e-08
9.55789e-14
3.20214e-08
6.12059e-12
2.02438e-11
5.51873e-08
1.72836e-11
5.17639e-08
1.16724e-11
4.52732e-08
3.63951e-08
5.66665e-12
1.43642e-11
-2.46461e-12
4.03036e-08
1.16043e-11
-1.86713e-12
3.72722e-08
7.92338e-12
-1.18704e-12
3.13679e-08
-7.30151e-13
2.28986e-08
4.32178e-12
1.42835e-11
-2.30682e-12
4.54691e-08
1.17803e-11
-1.53197e-12
4.22893e-08
7.87921e-12
-5.02725e-13
3.61584e-08
1.45152e-14
2.75161e-08
4.12669e-12
1.41035e-11
-1.42689e-12
5.04517e-08
1.1853e-11
-9.31996e-13
4.71385e-08
8.07033e-12
-1.18649e-13
4.08079e-08
2.11232e-13
3.20249e-08
4.25628e-12
1.34443e-11
5.51862e-08
1.13219e-11
5.1765e-08
7.7128e-12
4.52766e-08
3.63991e-08
3.90156e-12
9.76294e-12
-9.72823e-13
4.03046e-08
7.89245e-12
-7.37728e-13
3.72738e-08
5.41553e-12
-4.37625e-13
3.13698e-08
-3.16937e-13
2.29002e-08
2.99588e-12
9.62369e-12
-9.53079e-13
4.54697e-08
7.87898e-12
-5.40859e-13
4.22907e-08
5.29783e-12
-5.04506e-14
3.61604e-08
1.6651e-13
2.75181e-08
2.83942e-12
9.41297e-12
-6.00226e-13
5.04519e-08
7.82989e-12
-2.91831e-13
4.71398e-08
5.37185e-12
6.79838e-14
4.08101e-08
2.34071e-13
3.20272e-08
2.91233e-12
8.86669e-12
5.51859e-08
7.41073e-12
5.17662e-08
5.08405e-12
4.5279e-08
3.64017e-08
2.67044e-12
6.39077e-12
-3.1687e-13
4.03052e-08
5.18525e-12
-2.50608e-13
3.72748e-08
3.57273e-12
-1.22973e-13
3.13709e-08
-1.22325e-13
2.29012e-08
1.99021e-12
6.26246e-12
-3.36756e-13
4.54701e-08
5.10457e-12
-1.3097e-13
4.22917e-08
3.45686e-12
1.02436e-13
3.61618e-08
1.8661e-13
2.75194e-08
1.88141e-12
6.08049e-12
-2.13198e-13
5.04521e-08
5.03019e-12
-5.99328e-14
4.71407e-08
3.47599e-12
1.02192e-13
4.08116e-08
1.99092e-13
3.20287e-08
1.91984e-12
5.68896e-12
5.5186e-08
4.73139e-12
5.17671e-08
3.26098e-12
4.52806e-08
3.64034e-08
1.75859e-12
3.94897e-12
-6.73617e-14
4.03056e-08
3.21937e-12
-5.81128e-14
3.72754e-08
2.24817e-12
-2.8602e-14
3.13716e-08
-4.7812e-14
2.29019e-08
1.26158e-12
3.84773e-12
-9.57819e-14
4.54704e-08
3.14127e-12
5.81521e-15
4.22923e-08
2.15608e-12
1.11582e-13
3.61626e-08
1.44941e-13
2.75202e-08
1.19243e-12
3.72241e-12
-5.8446e-14
5.04523e-08
3.07518e-12
1.53053e-14
4.71413e-08
2.14713e-12
9.12794e-14
4.08125e-08
1.48266e-13
3.20296e-08
1.20883e-12
3.48283e-12
5.51861e-08
2.89253e-12
5.17677e-08
2.0121e-12
4.52815e-08
3.64044e-08
1.11565e-12
2.23771e-12
-8.49007e-14
1.84942e-12
-7.89172e-14
1.32358e-12
-8.43324e-14
-9.89927e-14
7.76617e-13
2.16925e-12
-8.208e-14
1.79859e-12
-3.07519e-14
1.27334e-12
1.5755e-14
2.24857e-14
7.51734e-13
2.10727e-12
-5.05282e-14
1.75737e-12
-1.04539e-14
1.25609e-12
2.83107e-14
4.34845e-14
7.48665e-13
2.01684e-12
1.69723e-12
1.213e-12
7.20178e-13
5.5595e-09
-3.29741e-09
4.16875e-08
7.2692e-09
-1.02222e-09
4.60414e-08
6.33797e-09
-1.66576e-09
5.40277e-08
-4.01187e-09
7.06643e-08
6.26429e-09
-8.89626e-10
2.87929e-08
4.67589e-09
-1.03163e-09
4.43224e-08
1.31444e-09
-1.01083e-09
4.82981e-08
2.05799e-09
4.81656e-08
1.93463e-09
5.75671e-09
1.85137e-08
4.81349e-09
4.65496e-10
3.16842e-08
9.05382e-09
3.63539e-09
3.26339e-08
3.25985e-09
5.42554e-08
-3.93956e-09
3.42281e-08
1.0526e-08
1.15498e-08
9.07979e-09
3.32811e-08
4.73127e-08
-8.01784e-10
1.82187e-09
2.4639e-08
1.85081e-08
4.15794e-09
2.13122e-08
1.22494e-08
-6.43907e-10
6.79457e-08
-4.83306e-09
8.43427e-08
1.20559e-09
-2.64509e-10
3.17274e-08
3.96093e-09
5.84819e-11
4.56665e-08
6.85393e-10
-3.24415e-09
5.41738e-08
-1.20305e-09
4.52448e-08
1.65608e-09
-2.2031e-09
2.51116e-08
-2.24013e-09
-9.93115e-10
3.66319e-08
3.3599e-09
-1.98176e-10
2.39879e-08
-1.66217e-09
5.80514e-08
-1.8069e-09
3.20405e-08
-7.55935e-10
8.36235e-09
3.06171e-09
2.64725e-08
4.57681e-08
3.14814e-09
-2.26113e-09
3.42848e-08
-2.96208e-09
-3.92601e-09
3.15116e-08
1.59677e-09
-9.68042e-10
6.46905e-08
2.28727e-09
7.95614e-08
5.82022e-09
-1.8782e-09
2.96342e-08
-9.81135e-10
1.69286e-09
4.6849e-08
8.47394e-09
1.33344e-09
4.24172e-08
-1.65967e-09
5.70046e-08
8.35279e-09
-3.61792e-09
1.89928e-08
1.04933e-09
-3.93459e-09
4.95628e-08
2.22817e-09
-3.99854e-09
2.8141e-08
-7.09828e-09
6.57083e-08
5.71015e-09
2.93326e-08
-2.35381e-09
1.09075e-08
-4.45146e-09
2.52916e-08
3.39202e-08
2.69758e-09
-4.90239e-09
4.72799e-08
-3.31747e-09
-3.84884e-09
4.06213e-08
-3.67941e-09
2.99408e-10
5.94307e-08
-2.84995e-10
6.77521e-08
3.16407e-09
1.37478e-09
1.64465e-08
2.52732e-09
-7.66594e-10
4.44035e-08
-2.93806e-09
-2.1705e-09
5.03526e-08
-2.8809e-09
5.54461e-08
1.2091e-09
-1.00233e-09
1.63076e-08
-2.16747e-09
1.88196e-09
5.02908e-08
4.85911e-10
-7.4189e-12
2.33245e-08
-2.12815e-09
6.53537e-08
4.44831e-09
2.48372e-08
-2.88041e-09
2.43326e-08
-2.99089e-09
2.68416e-08
2.98838e-08
-1.5418e-09
3.27206e-10
5.18037e-08
-3.27385e-10
-1.55152e-09
4.07192e-08
-9.65057e-09
-1.4543e-09
7.07419e-08
8.91003e-10
5.34919e-08
-3.82321e-09
-2.87886e-09
2.59837e-08
-3.83296e-10
-2.4989e-09
4.1911e-08
-4.70042e-09
-2.08719e-09
5.53026e-08
-2.54746e-09
5.38581e-08
2.35755e-09
-9.90547e-10
1.11126e-08
-1.34927e-09
-3.77316e-09
5.52719e-08
-7.7504e-09
-1.27108e-09
2.89095e-08
1.96471e-09
5.39112e-08
2.00699e-09
2.14674e-08
1.00451e-09
2.30916e-08
1.91845e-09
2.52435e-08
3.51654e-08
2.54573e-09
4.58701e-09
4.01391e-08
-2.03918e-09
-1.24043e-09
4.42173e-08