/*--------------------------------*- C++ -*----------------------------------*\
| =========                 |                                                 |
| \\      /  F ield         | OpenFOAM: The Open Source CFD Toolbox           |
|  \\    /   O peration     | Version:  2506                                  |
|   \\  /    A nd           | Website:  www.openfoam.com                      |
|    \\/     M anipulation  |                                                 |
\*---------------------------------------------------------------------------*/
FoamFile
{
    version     2.0;
    format      ascii;
    arch        "LSB;label=32;scalar=64";
    class       volVectorField;
    location    "0.06";
    object      stored_U;
}
// * * * * * * * * * * * * * * * * * * * * * * * * * * * * * * * * * * * * * //

dimensions      [0 1 -1 0 0 0 0];

internalField   nonuniform List<vector> 
1152
(
(0.00280381 0.00623225 0.0423098)
(-0.00141282 0.000651383 0.0123587)
(-0.00121697 -0.0017843 0.0150864)
(-0.000428963 -0.000579646 0.00564084)
(0.00074624 -0.00780501 0.0363221)
(-0.00189984 0.00012409 0.0124474)
(-0.00165353 -0.000884197 0.0186331)
(-0.000698618 0.00125013 0.0169658)
(-0.000158298 -0.00060825 0.0051804)
(0.000408385 -0.000730001 0.0174122)
(-0.00120518 0.00258998 0.0167249)
(-0.00125252 0.00243047 0.0221915)
(-0.00109591 0.0014575 0.0137709)
(0.000571567 -0.000468118 0.0139248)
(0.000588639 0.00255824 0.0163646)
(-0.000349332 0.00358664 0.0240583)
(-0.00689504 -0.00491135 0.0451097)
(0.000780589 -0.000504443 0.0160908)
(0.00565365 -0.000953106 0.0434469)
(-0.00164723 0.00164777 0.0247107)
(-0.00297993 0.00359479 0.0354216)
(0.00232803 0.000684859 0.0296948)
(0.000290946 -0.000356446 0.0150967)
(0.00113964 -0.00287091 0.0245818)
(0.000212099 -0.000257172 0.00101801)
(-0.00250578 0.00123675 0.0416693)
(6.30188e-06 0.000595019 0.0174301)
(0.00132206 0.000198661 0.0168461)
(0.00176202 -0.00314214 0.0365222)
(-0.00021653 0.000153285 0.0161808)
(0.00113218 -0.000700099 0.0529042)
(0.000133433 -0.000330594 0.00107762)
(0.000337295 -0.00084247 0.0167518)
(0.00301588 -0.00157176 0.0248654)
(-0.000195994 0.000369946 0.0100984)
(0.00368242 0.000554595 0.0657604)
(-0.000554777 0.00051822 0.00861324)
(0.00166819 -0.000498131 0.0245603)
(0.0012903 0.000805409 0.0288002)
(0.000881764 -0.00013011 0.0165191)
(-0.00127345 0.00231227 0.0317725)
(0.000425417 0.00157468 0.0288662)
(0.00223971 -0.00130919 0.0235852)
(0.000944219 3.61883e-05 0.0316747)
(-7.98789e-05 -0.000492567 0.0181521)
(-0.00111847 0.001844 0.0228969)
(0.000414491 -0.000509031 0.0191943)
(0.00190768 -0.0018204 0.0470481)
(0.00120184 -0.000329263 0.0102215)
(0.00159952 0.000143573 0.0205997)
(-0.00923519 0.00205493 0.0479024)
(-4.01463e-05 -0.000418042 0.0144023)
(0.00272461 0.000762996 0.0441343)
(0.00240897 -0.00299355 0.0257855)
(0.000824836 -0.000773343 0.0212996)
(-0.00239579 0.00214706 0.0212103)
(-0.000752751 0.00107828 0.0247385)
(0.00104414 8.29865e-06 0.0280336)
(0.00133616 -0.00260562 0.0274421)
(-0.00138785 -0.00172405 0.0307862)
(0.00191511 0.00370276 0.0435406)
(-0.000490979 0.00128922 0.0227686)
(-0.000147797 -0.000358026 0.0437312)
(-0.000445017 -0.00256105 0.035799)
(0.000105799 0.000165455 0.0016493)
(-0.00920396 0.000968348 0.0607469)
(0.000271035 -0.000414352 0.00260393)
(0.00148776 -0.000726441 0.0295311)
(0.00122827 -0.00246021 0.0163265)
(8.29773e-06 -0.00091759 0.01242)
(0.000276248 -0.000887997 0.0487669)
(0.00107366 -0.00189426 0.0316201)
(0.000119178 -0.000716306 0.0182896)
(0.000821615 -0.00194472 0.0303407)
(0.000870206 -0.000946562 0.0264684)
(-0.000719441 -0.00298661 0.0454745)
(-0.000230963 0.003919 0.0305059)
(6.71545e-05 0.000708189 0.0171633)
(0.000231554 0.000237662 0.0134471)
(-0.00202957 -0.00328572 0.0454598)
(-0.00315615 0.00295071 0.035529)
(0.00180368 0.000477963 0.0150128)
(0.00453208 -0.000809643 0.0227345)
(0.00140163 0.000945838 0.0181667)
(0.00330624 0.00420806 0.0360176)
(0.00292973 0.00239736 0.0197034)
(0.00172456 0.000882689 0.0123374)
(0.000443754 0.00027412 0.012807)
(0.00086856 -0.000291262 0.0103673)
(0.000695974 0.000686877 0.0097736)
(0.00133856 -0.00123102 0.0128736)
(0.00160295 -0.00317999 0.0178526)
(0.00195126 -0.000995198 0.0316633)
(0.000331699 -8.77793e-06 0.00516788)
(-0.00365956 -0.000315766 0.0314459)
(-0.000542824 0.0003404 0.0228339)
(0.000398932 0.000356263 0.0028778)
(0.00118717 -0.000868096 0.019083)
(3.92869e-05 -0.00071122 0.00608518)
(-0.000575781 -0.000241449 0.0166307)
(0.000104807 -0.000329075 0.0178346)
(0.000112833 0.000244643 0.0214191)
(0.000216443 -0.000965298 0.026913)
(0.000570637 -0.000773902 0.0237709)
(0.000460206 0.000237786 0.0154584)
(0.000235571 5.14434e-05 0.0122955)
(-6.40826e-05 8.66931e-05 0.0150064)
(0.000489213 -0.000373564 0.0281229)
(-0.000184333 2.86224e-05 0.0039742)
(-5.62104e-05 -0.000529817 0.0186003)
(0.00134729 -0.000114386 0.0101094)
(0.000201337 0.00025663 0.0211749)
(0.000410066 -0.000149556 0.0141763)
(0.0003159 -0.000335967 0.027625)
(-0.000638441 0.000753778 0.0163903)
(-0.000463102 -1.26714e-05 0.0242952)
(-0.000370807 0.000308353 0.0312645)
(-0.00085104 -6.56038e-05 0.0295186)
(-0.00111164 -0.00017149 0.028558)
(-2.48316e-05 -0.000369831 0.0268499)
(8.81886e-06 -0.000204141 0.0218755)
(-0.000318618 -0.000212221 0.019362)
(-0.000928713 0.000632027 0.0224772)
(-9.0115e-05 0.00085405 0.0295736)
(-0.000498495 -0.000178092 0.0122848)
(3.91168e-05 -0.000356208 0.0212442)
(0.000168095 -0.000153537 0.0211262)
(0.000201558 0.000541772 0.0302445)
(0.000341385 -0.000497721 0.00537227)
(-0.00041595 9.4324e-05 0.00623201)
(-0.000168226 0.000546399 0.00535214)
(-0.000894546 0.00012627 0.00624468)
(-0.000558079 -0.000284354 0.00672859)
(-0.000648678 0.000430334 0.00695446)
(-0.000528172 -0.000461066 0.00723285)
(-0.000173276 -0.000681329 0.00730249)
(0.000255907 0.00105835 0.0049397)
(-0.000708446 0.000723276 0.00493708)
(-0.00141427 0.000434605 0.00591419)
(-0.000956174 -0.000283671 0.00743)
(-0.000415523 -0.000496931 0.0032886)
(-0.00123685 -0.000759418 0.0047097)
(-0.00149559 -0.000671315 0.00527241)
(-0.00110919 -0.000293939 0.00688277)
(3.92975e-05 6.26754e-05 0.0140502)
(-0.000233154 0.000184973 0.0147285)
(-0.000167391 0.00023552 0.0142038)
(-0.000401758 8.03716e-05 0.014574)
(-0.000293043 0.000143319 0.0146683)
(-0.000412419 0.00030168 0.0149595)
(-0.000370353 -1.86181e-07 0.0150075)
(-0.00022737 -0.000102492 0.0150623)
(-2.83405e-05 0.000467089 0.0139031)
(-0.000444119 0.000430549 0.0140645)
(-0.000656763 0.000360165 0.0144577)
(-0.000424323 0.000195357 0.0151004)
(-0.000149002 -0.000256539 0.0132155)
(-0.00051621 -0.000238788 0.0138632)
(-0.000594415 -7.76578e-05 0.0142879)
(-0.000310874 0.000155796 0.0150196)
(-2.53185e-06 8.3808e-05 0.012132)
(-0.000106465 9.58621e-05 0.0123318)
(-9.76722e-05 6.76944e-05 0.0122055)
(-0.000172965 8.16353e-06 0.012293)
(-0.000113414 7.71474e-05 0.0121939)
(-0.000198908 0.000101999 0.0123469)
(-0.000201157 -6.3946e-06 0.0123984)
(-0.000173162 -6.94506e-05 0.0124354)
(-3.24006e-05 0.000114015 0.011901)
(-0.000221446 0.000115974 0.0120086)
(-0.00031159 7.76271e-05 0.0121475)
(-0.000271452 2.38897e-06 0.0123203)
(-3.90672e-05 -0.000179757 0.0116861)
(-0.000235824 -0.000161837 0.0118748)
(-0.000310023 -0.000120276 0.0119899)
(-0.000264507 -0.000106179 0.0121287)
(6.30813e-06 6.04382e-05 0.012747)
(-3.49386e-05 5.54349e-05 0.0128111)
(-3.99781e-05 3.48692e-05 0.0127832)
(-7.08739e-05 1.86173e-05 0.0128019)
(-2.82251e-05 4.306e-05 0.0127426)
(-7.00447e-05 4.78265e-05 0.0128087)
(-7.52917e-05 1.88726e-05 0.0128358)
(-7.30741e-05 6.664e-06 0.0128534)
(5.98479e-07 2.2212e-05 0.0126551)
(-7.03045e-05 3.644e-05 0.0127056)
(-9.63696e-05 4.08004e-05 0.0127566)
(-8.23713e-05 4.1554e-05 0.01281)
(1.89974e-05 -0.000104842 0.0126022)
(-5.11303e-05 -7.94537e-05 0.0126637)
(-6.64314e-05 -3.80618e-05 0.0127057)
(-3.94374e-05 -2.59149e-06 0.0127476)
(1.56397e-05 3.32712e-05 0.0127934)
(-3.39116e-06 2.90304e-05 0.0128123)
(-1.06112e-05 1.90787e-05 0.0128035)
(-2.6309e-05 1.48784e-05 0.0128004)
(6.06097e-06 1.74533e-05 0.0127799)
(-1.52239e-05 1.91179e-05 0.0128023)
(-2.22755e-05 1.19923e-05 0.012808)
(-2.72157e-05 1.04413e-05 0.0128039)
(1.76171e-05 -5.15252e-06 0.0127484)
(-1.12203e-05 4.23779e-06 0.0127625)
(-2.31324e-05 1.16465e-05 0.0127678)
(-2.50903e-05 1.74157e-05 0.0127625)
(3.10643e-05 -5.92598e-05 0.0127295)
(3.60002e-06 -4.51113e-05 0.0127374)
(-5.67769e-06 -2.53446e-05 0.0127268)
(-5.58843e-06 -1.21028e-05 0.012699)
(1.90004e-05 1.76265e-05 0.0128266)
(9.167e-06 1.54853e-05 0.0128302)
(2.65512e-06 1.22123e-05 0.012823)
(-5.97853e-06 1.15957e-05 0.0128118)
(1.66855e-05 6.68492e-06 0.012817)
(6.16342e-06 7.99977e-06 0.0128218)
(3.10381e-07 7.60556e-06 0.0128179)
(-5.1679e-06 9.31427e-06 0.0128048)
(2.21874e-05 -8.07195e-06 0.0128029)
(1.00071e-05 -2.44665e-06 0.0128032)
(3.47585e-06 3.41411e-06 0.0127952)
(-7.94347e-07 9.45006e-06 0.0127761)
(2.98357e-05 -3.18673e-05 0.0127903)
(1.91412e-05 -2.42334e-05 0.0127845)
(1.4281e-05 -1.3808e-05 0.0127648)
(1.08935e-05 -5.42514e-06 0.0127301)
(1.79834e-05 9.62659e-06 0.0128478)
(1.22048e-05 8.89142e-06 0.0128454)
(7.30397e-06 7.98352e-06 0.012837)
(2.00645e-06 8.22059e-06 0.0128217)
(1.76436e-05 2.81832e-06 0.0128414)
(1.18032e-05 3.83868e-06 0.0128389)
(7.28888e-06 4.6952e-06 0.01283)
(2.88131e-06 6.3641e-06 0.012812)
(2.02784e-05 -5.71616e-06 0.0128321)
(1.43337e-05 -2.69466e-06 0.0128264)
(9.97495e-06 8.931e-07 0.012813)
(5.94822e-06 4.69974e-06 0.012788)
(2.41548e-05 -1.65777e-05 0.0128185)
(1.92949e-05 -1.26977e-05 0.0128079)
(1.58026e-05 -7.39087e-06 0.0127855)
(1.18609e-05 -3.06275e-06 0.0127472)
(1.51093e-05 5.6422e-06 0.01286)
(1.16616e-05 5.48464e-06 0.0128555)
(8.26113e-06 5.32999e-06 0.0128463)
(4.80202e-06 5.64246e-06 0.0128289)
(1.5207e-05 1.66819e-06 0.0128553)
(1.1821e-05 2.30656e-06 0.0128501)
(8.61973e-06 3.06083e-06 0.0128394)
(5.3594e-06 4.13764e-06 0.0128191)
(1.64555e-05 -3.08307e-06 0.012847)
(1.32374e-05 -1.57028e-06 0.0128394)
(1.02529e-05 3.56764e-07 0.0128244)
(7.03453e-06 2.4215e-06 0.0127973)
(1.83045e-05 -8.27767e-06 0.0128318)
(1.57288e-05 -6.37636e-06 0.0128203)
(1.31595e-05 -3.77406e-06 0.0127977)
(9.88481e-06 -1.59701e-06 0.012759)
(1.19647e-05 3.56113e-06 0.012867)
(9.91068e-06 3.58116e-06 0.012862)
(7.63053e-06 3.62358e-06 0.0128524)
(5.30199e-06 3.82986e-06 0.0128339)
(1.2101e-05 1.32207e-06 0.012863)
(1.0088e-05 1.66113e-06 0.0128572)
(7.91182e-06 2.11429e-06 0.0128458)
(5.60158e-06 2.68572e-06 0.0128245)
(1.26703e-05 -1.30747e-06 0.0128548)
(1.07998e-05 -6.03844e-07 0.0128469)
(8.75223e-06 3.31235e-07 0.0128315)
(6.39124e-06 1.32641e-06 0.0128038)
(1.34905e-05 -3.8956e-06 0.0128383)
(1.19678e-05 -3.00501e-06 0.0128271)
(1.01009e-05 -1.80475e-06 0.012805)
(7.65484e-06 -7.69909e-07 0.0127664)
(9.16195e-06 2.38779e-06 0.0128712)
(7.9182e-06 2.4398e-06 0.0128663)
(6.40998e-06 2.49855e-06 0.0128565)
(4.82716e-06 2.60644e-06 0.0128376)
(9.25411e-06 1.13477e-06 0.0128674)
(8.02947e-06 1.29211e-06 0.0128617)
(6.56365e-06 1.51956e-06 0.0128502)
(4.9612e-06 1.78524e-06 0.0128285)
(9.48812e-06 -3.30707e-07 0.0128591)
(8.34985e-06 -4.88372e-08 0.0128514)
(6.95601e-06 3.69627e-07 0.0128361)
(5.29129e-06 8.22329e-07 0.0128083)
(9.8055e-06 -1.6833e-06 0.0128417)
(8.85572e-06 -1.29647e-06 0.0128311)
(7.55642e-06 -7.67455e-07 0.0128095)
(5.80731e-06 -3.05883e-07 0.0127713)
(6.86014e-06 1.66545e-06 0.0128736)
(6.06016e-06 1.69691e-06 0.0128689)
(5.07478e-06 1.73185e-06 0.0128592)
(3.99852e-06 1.77475e-06 0.0128403)
(6.89641e-06 9.2266e-07 0.01287)
(6.1242e-06 9.90674e-07 0.0128645)
(5.14775e-06 1.0926e-06 0.0128531)
(4.04478e-06 1.19682e-06 0.0128314)
(6.96845e-06 1.07468e-07 0.0128615)
(6.2525e-06 1.97737e-07 0.0128542)
(5.30988e-06 3.59633e-07 0.012839)
(4.15513e-06 5.46064e-07 0.0128114)
(7.05772e-06 -6.19241e-07 0.0128437)
(6.44459e-06 -4.69648e-07 0.0128335)
(5.554e-06 -2.5458e-07 0.0128124)
(4.33674e-06 -7.34525e-08 0.0127746)
(5.00921e-06 1.16179e-06 0.012875)
(4.48707e-06 1.17881e-06 0.0128706)
(3.84268e-06 1.19433e-06 0.012861)
(3.11004e-06 1.20253e-06 0.0128421)
(5.01761e-06 7.07706e-07 0.0128715)
(4.52074e-06 7.32301e-07 0.0128662)
(3.87315e-06 7.72587e-07 0.012855)
(3.11881e-06 8.01588e-07 0.0128333)
(5.01987e-06 2.51049e-07 0.0128629)
(4.56289e-06 2.62231e-07 0.0128559)
(3.92847e-06 3.10136e-07 0.012841)
(3.13484e-06 3.74362e-07 0.0128135)
(5.01663e-06 -1.46258e-07 0.0128448)
(4.61841e-06 -1.00085e-07 0.0128351)
(4.01354e-06 -2.81091e-08 0.0128143)
(3.17954e-06 2.79537e-08 0.0127767)
(3.51744e-06 7.74158e-07 0.0128758)
(3.21592e-06 7.96998e-07 0.0128715)
(2.78952e-06 8.07893e-07 0.0128622)
(2.29417e-06 8.03506e-07 0.0128433)
(3.52867e-06 5.29977e-07 0.0128723)
(3.224e-06 5.27211e-07 0.0128673)
(2.7963e-06 5.34331e-07 0.0128562)
(2.28739e-06 5.36033e-07 0.0128347)
(3.51232e-06 2.65253e-07 0.0128637)
(3.22575e-06 2.46003e-07 0.0128569)
(2.80804e-06 2.46383e-07 0.0128422)
(2.27132e-06 2.59796e-07 0.0128149)
(3.48224e-06 4.28615e-08 0.0128455)
(3.22755e-06 4.77411e-08 0.0128361)
(2.82428e-06 6.03261e-08 0.0128155)
(2.26633e-06 6.23109e-08 0.0127781)
(2.32928e-06 4.82591e-07 0.0128762)
(2.19047e-06 5.1235e-07 0.0128721)
(1.91678e-06 5.23973e-07 0.0128629)
(1.59238e-06 5.20484e-07 0.0128441)
(2.35021e-06 3.85033e-07 0.0128728)
(2.18265e-06 3.68761e-07 0.0128679)
(1.91123e-06 3.61784e-07 0.012857)
(1.57985e-06 3.50252e-07 0.0128355)
(2.33778e-06 2.26915e-07 0.0128641)
(2.16995e-06 2.00019e-07 0.0128576)
(1.90381e-06 1.85367e-07 0.012843)
(1.55579e-06 1.76698e-07 0.0128158)
(2.30832e-06 9.84869e-08 0.0128459)
(2.15419e-06 8.84099e-08 0.0128367)
(1.89523e-06 7.91125e-08 0.0128163)
(1.53666e-06 6.30844e-08 0.012779)
(1.41703e-06 2.67831e-07 0.0128765)
(1.36266e-06 2.91604e-07 0.0128725)
(1.20267e-06 3.01975e-07 0.0128633)
(1.00857e-06 3.00205e-07 0.0128446)
(1.43506e-06 2.3904e-07 0.0128731)
(1.35345e-06 2.2391e-07 0.0128683)
(1.19471e-06 2.14667e-07 0.0128575)
(9.97606e-07 2.02157e-07 0.0128361)
(1.42752e-06 1.51377e-07 0.0128644)
(1.3395e-06 1.28416e-07 0.012858)
(1.18345e-06 1.12113e-07 0.0128435)
(9.77419e-07 9.99641e-08 0.0128163)
(1.40589e-06 8.04371e-08 0.0128462)
(1.3216e-06 6.62048e-08 0.0128371)
(1.16991e-06 5.17151e-08 0.0128168)
(9.60238e-07 3.35799e-08 0.0127796)
(7.2721e-07 9.23774e-08 0.0128766)
(6.96901e-07 1.01582e-07 0.0128727)
(6.21837e-07 1.0668e-07 0.0128636)
(5.26969e-07 1.0811e-07 0.012845)
(7.3262e-07 7.51246e-08 0.0128732)
(6.93678e-07 6.85306e-08 0.0128685)
(6.18748e-07 6.41002e-08 0.0128577)
(5.23214e-07 5.8555e-08 0.0128364)
(7.26479e-07 3.80072e-08 0.0128645)
(6.86193e-07 2.51706e-08 0.0128582)
(6.11859e-07 1.50447e-08 0.0128438)
(5.12562e-07 6.3886e-09 0.0128167)
(7.13094e-07 7.65449e-09 0.0128463)
(6.74991e-07 -6.52263e-09 0.0128373)
(6.01706e-07 -2.0368e-08 0.0128171)
(4.99985e-07 -3.41195e-08 0.0127799)
(-0.000121725 0.000620708 0.0244398)
(0.000801933 0.000323009 0.015171)
(0.00338713 -0.000314646 0.0267624)
(-7.46575e-05 0.00297461 0.0131219)
(-0.00020663 0.00131957 0.0145822)
(0.000971621 0.00135041 0.00927383)
(0.00354946 0.00143484 0.0194874)
(0.00149688 0.00476659 0.0172696)
(0.000966766 0.00117635 0.0241058)
(0.00182421 0.00236474 0.0222482)
(0.00290631 0.00184008 0.0205151)
(0.0021516 0.0059025 0.0250883)
(-5.3544e-05 0.000140123 0.00275902)
(0.000422451 -0.000266154 0.00952867)
(0.00263309 -0.00091793 0.0211678)
(0.000899789 0.00102267 0.0184337)
(-0.00263394 -0.000720354 0.0293041)
(0.000233523 0.00105229 0.0158701)
(0.000365026 -0.000313821 0.0281554)
(0.00265881 0.00137845 0.032178)
(-0.000167754 0.000336262 0.027378)
(0.000121706 0.00018762 0.0241539)
(0.000323109 8.88872e-05 0.00378121)
(0.000500909 0.00010591 0.0196919)
(0.000661609 0.00112465 0.0234739)
(0.00178933 -0.000440837 0.0300694)
(0.000945538 0.000626081 0.0353331)
(-0.00204587 0.000869188 0.0401613)
(0.0029605 0.00279514 0.0475263)
(7.5434e-05 0.00222966 0.0367029)
(-0.000513284 -0.000495146 0.0171505)
(0.000791219 0.0014801 0.0417558)
(0.000410798 -0.000216311 0.0124805)
(-6.20052e-05 9.15411e-05 0.0295084)
(-0.000572092 0.00189894 0.0232693)
(0.000205877 -0.000554767 0.00110754)
(0.000335142 0.000572478 0.0103453)
(0.00103273 -0.00238292 0.0381473)
(-0.000168239 -0.000313889 0.0233375)
(-0.00255123 -0.00365658 0.049394)
(-0.00118808 -0.00306277 0.0299311)
(-0.000710397 -0.00142435 0.014422)
(-0.00184465 -0.00236233 0.0502543)
(-0.00173184 -0.00279618 0.0208534)
(-0.00222296 -0.00228586 0.0174841)
(0.00121428 -0.00244299 0.0331927)
(0.000602654 -0.000377239 0.0288713)
(-0.00159602 -0.000140837 0.0439983)
(0.00147594 0.00224139 0.0179706)
(-0.00192453 0.00029594 0.0382991)
(-0.00108653 0.000177163 0.0142929)
(-0.00154704 -0.00178924 0.0287915)
(0.00165043 0.00048477 0.0233079)
(-0.00249025 0.00110442 0.0255786)
(-0.00174057 -0.000414356 0.0287106)
(-0.000191023 -0.00294406 0.038154)
(-0.000725148 -0.00284587 0.0424663)
(-0.00236529 -0.000907148 0.0333468)
(-0.00335401 4.404e-05 0.0312181)
(-0.000896463 -0.000713892 0.0208835)
(-0.00229379 -0.000291018 0.0309536)
(-0.00197692 -0.00230579 0.027694)
(-0.00137324 -0.000472296 0.0247819)
(-0.00114764 -0.000703419 0.0378404)
(0.00110783 0.00168538 0.025258)
(-0.00339347 0.00368101 0.0460984)
(-0.00184589 -0.000182442 0.0273172)
(-0.00107598 -0.000366265 0.0142094)
(-0.002456 -0.0016749 0.0478251)
(-0.000825608 0.000525123 0.0149553)
(-0.00193274 0.000154245 0.0236751)
(-0.000760513 0.000347739 0.029074)
(-0.000229834 -9.56457e-05 0.00120601)
(-0.00164854 0.0015097 0.0530713)
(-0.00185377 0.00272407 0.0519368)
(-0.000704044 -9.37832e-05 0.0203646)
(-0.00132393 0.00020536 0.0214129)
(-0.000183634 0.000532652 0.0199584)
(-0.00145061 0.00136958 0.0249808)
(-0.0018988 -0.000125787 0.0402062)
(-0.00457436 0.00926014 0.0420301)
(0.00125363 -0.000677638 0.0148418)
(0.00171975 0.00117581 0.0177924)
(-0.000312796 0.000316695 0.00515886)
(1.41669e-05 0.000232664 0.00134774)
(-2.23792e-05 0.0030907 0.021808)
(-0.000235772 0.000379854 0.0119505)
(-0.00168752 0.00157393 0.0205936)
(0.000241797 0.00190341 0.0261535)
(-0.000537664 0.00139236 0.0149922)
(-0.000238065 -1.76585e-05 0.0184407)
(-0.000523802 0.000671707 0.0126687)
(-0.000304385 0.000551017 0.0134666)
(-0.000891206 0.000524543 0.0197991)
(-0.000654181 0.00105828 0.0214037)
(-0.00170006 0.000272668 0.0161494)
(-0.000128354 -7.76646e-05 0.00618043)
(-1.39907e-05 0.000133948 0.0197856)
(0.000163358 -0.000172616 0.0177213)
(-0.000243236 -0.000722651 0.0139377)
(-7.9231e-05 5.5475e-05 0.0218333)
(0.000171867 -6.0607e-05 0.0136335)
(-0.000723728 -0.00141898 0.0164675)
(-0.00125343 -0.00308204 0.0131194)
(-0.00112783 0.000754488 0.0206111)
(-0.000260644 6.84375e-05 0.0299499)
(0.000279156 -0.000249576 0.0239118)
(-0.000137923 -0.000262048 0.0192147)
(0.000109743 0.000159895 0.0148688)
(-0.000272316 0.000496684 0.0164588)
(-0.000217395 7.97928e-05 0.0194957)
(-0.00174499 -0.00182221 0.0216292)
(-4.83866e-05 0.00014881 0.0219872)
(-2.79162e-06 0.000234236 0.0257486)
(0.0001034 -0.000276956 0.0253956)
(0.000218549 9.8798e-06 0.0255662)
(-0.000405366 7.14843e-05 0.0344091)
(-2.81583e-05 -0.000742281 0.0244647)
(5.77449e-05 -0.000674429 0.0244805)
(6.20474e-05 -0.000515111 0.023081)
(-0.00103545 0.000162066 0.0288998)
(-0.000232001 -0.000538184 0.0305329)
(0.000563445 -0.000548597 0.0284478)
(0.00022338 -0.000564378 0.0252729)
(0.000444103 -8.1115e-05 0.0207172)
(0.000174834 0.000247805 0.0236511)
(0.000446754 -0.00014843 0.0271244)
(0.000323792 -0.000394227 0.0284916)
(-4.63681e-05 -0.00197279 0.00507119)
(-0.000662974 -0.0010169 0.00563083)
(-0.000809897 -0.00077732 0.005744)
(-0.000684647 -0.000207407 0.00597357)
(0.000272184 -0.00110872 0.00795866)
(-1.7162e-05 -0.00106455 0.00619939)
(-0.000556195 -0.00073356 0.00587864)
(-0.000605926 -0.000370016 0.00548493)
(0.000758772 0.000610632 0.00783213)
(-0.000159438 -0.00029147 0.00761332)
(-0.000226524 -0.000565932 0.00662139)
(-0.000513805 -0.000624685 0.00572459)
(0.0011994 0.000507626 0.00621036)
(-0.000445811 0.000434609 0.00625443)
(-0.000432643 7.61122e-05 0.00638462)
(-0.000293544 -0.000254444 0.00602839)
(5.54463e-05 -0.000997495 0.0142238)
(-0.000186486 -0.000629468 0.0144898)
(-0.000193815 -0.000371128 0.01461)
(-0.000104413 -3.75553e-05 0.0148259)
(0.000280183 -0.000787171 0.0154473)
(0.000149694 -0.000686142 0.0149016)
(4.30819e-05 -0.000450099 0.0147565)
(7.7759e-06 -0.000145927 0.0146996)
(0.000566386 5.63192e-05 0.0154905)
(0.000251155 -0.000215721 0.0153822)
(0.000297873 -0.000272794 0.0149896)
(0.000154834 -0.000177436 0.0147185)
(0.00079581 0.000172972 0.0146266)
(0.00020035 9.02915e-05 0.0148062)
(0.000279703 -7.56757e-05 0.0148663)
(0.000205362 -0.0001362 0.0147679)
(4.81119e-05 -0.000457523 0.012029)
(-0.000126246 -0.000335049 0.0120809)
(-0.000190648 -0.000208406 0.0120321)
(-0.00015085 -0.000148668 0.0119737)
(0.000166376 -0.000400577 0.012466)
(1.1719e-05 -0.000336904 0.0122612)
(-7.63488e-05 -0.00020403 0.0120414)
(-8.22694e-05 -0.000127727 0.0118396)
(0.000304165 -0.000127004 0.0125322)
(8.33128e-05 -0.000201959 0.0123947)
(2.73357e-05 -0.000176961 0.0120384)
(-2.7908e-05 -0.000149976 0.0117224)
(0.000398891 -1.27175e-05 0.012152)
(8.89063e-05 -5.55561e-05 0.0120994)
(6.76473e-05 -8.53418e-05 0.0118454)
(3.0798e-05 -0.000101254 0.0115674)
(6.58539e-05 -0.000221404 0.0127205)
(8.68824e-06 -0.000171127 0.0127416)
(2.93195e-06 -0.000102068 0.0127258)
(1.37021e-05 -5.3788e-05 0.0127151)
(0.000124041 -0.000201635 0.012848)
(7.34418e-05 -0.00017177 0.012793)
(6.51528e-05 -0.000107941 0.0127046)
(4.92309e-05 -5.4416e-05 0.0126493)
(0.00018711 -7.59803e-05 0.0128463)
(0.00012064 -0.000100804 0.0127944)
(0.00012283 -8.49902e-05 0.0126514)
(8.31342e-05 -5.68761e-05 0.0125638)
(0.000228593 -1.25286e-05 0.0126853)
(0.000133684 -4.46239e-05 0.0126702)
(0.000144304 -6.80343e-05 0.0125458)
(9.33392e-05 -6.15038e-05 0.0124679)
(5.31461e-05 -0.0001048 0.0127591)
(2.81659e-05 -8.51992e-05 0.0127466)
(2.07143e-05 -5.39675e-05 0.0127017)
(2.00584e-05 -3.78382e-05 0.0126422)
(7.93434e-05 -9.95345e-05 0.0127786)
(5.53665e-05 -8.68553e-05 0.0127356)
(4.82648e-05 -5.52383e-05 0.0126506)
(3.53364e-05 -3.50714e-05 0.0125667)
(0.000106482 -5.29992e-05 0.0127305)
(7.7268e-05 -6.28292e-05 0.0126801)
(7.17238e-05 -5.20731e-05 0.0125661)
(4.5947e-05 -4.18363e-05 0.0124679)
(0.000123295 -1.75712e-05 0.012586)
(8.56836e-05 -3.5505e-05 0.0125484)
(8.22664e-05 -4.50523e-05 0.0124347)
(5.0506e-05 -4.20683e-05 0.012343)
(3.99762e-05 -5.03096e-05 0.0127844)
(3.01469e-05 -4.28134e-05 0.012768)
(2.6387e-05 -2.84022e-05 0.0127308)
(2.29173e-05 -2.07164e-05 0.0126801)
(5.12304e-05 -4.7878e-05 0.0127587)
(4.1722e-05 -4.34249e-05 0.0127292)
(3.87966e-05 -2.87471e-05 0.012672)
(2.95111e-05 -1.85775e-05 0.0126117)
(6.22997e-05 -3.00293e-05 0.0126879)
(5.14875e-05 -3.46084e-05 0.0126532)
(4.92229e-05 -2.91317e-05 0.0125829)
(3.39809e-05 -2.27965e-05 0.0125198)
(6.89904e-05 -1.21047e-05 0.0125588)
(5.63558e-05 -2.23182e-05 0.0125297)
(5.40867e-05 -2.77325e-05 0.0124601)
(3.40989e-05 -2.49892e-05 0.0124058)
(2.86022e-05 -2.45567e-05 0.0127972)
(2.41581e-05 -2.17873e-05 0.0127797)
(2.09799e-05 -1.55952e-05 0.0127456)
(1.70896e-05 -1.2237e-05 0.0126954)
(3.32779e-05 -2.33892e-05 0.0127527)
(2.87463e-05 -2.21845e-05 0.0127282)
(2.61033e-05 -1.54992e-05 0.0126823)
(1.96633e-05 -1.07329e-05 0.0126276)
(3.75835e-05 -1.60039e-05 0.0126707)
(3.28473e-05 -1.89883e-05 0.0126427)
(3.04444e-05 -1.6364e-05 0.0125901)
(2.09523e-05 -1.34924e-05 0.0125363)
(3.98467e-05 -7.12803e-06 0.0125424)
(3.48868e-05 -1.30805e-05 0.0125172)
(3.19987e-05 -1.59955e-05 0.0124665)
(2.00316e-05 -1.45998e-05 0.0124219)
(2.01244e-05 -1.21157e-05 0.0128034)
(1.78118e-05 -1.11868e-05 0.0127867)
(1.53187e-05 -8.71741e-06 0.0127551)
(1.20272e-05 -7.3039e-06 0.0127065)
(2.19094e-05 -1.15834e-05 0.012751)
(1.96101e-05 -1.14124e-05 0.0127294)
(1.72793e-05 -8.57448e-06 0.0126901)
(1.29601e-05 -6.21332e-06 0.0126393)
(2.35171e-05 -8.38422e-06 0.0126633)
(2.11752e-05 -1.0418e-05 0.0126396)
(1.9e-05 -9.39527e-06 0.0125968)
(1.329e-05 -7.95796e-06 0.0125487)
(2.40003e-05 -4.05878e-06 0.0125336)
(2.18204e-05 -7.66754e-06 0.0125122)
(1.93383e-05 -9.35339e-06 0.0124729)
(1.22202e-05 -8.60886e-06 0.0124348)
(1.41464e-05 -5.93607e-06 0.0128065)
(1.27632e-05 -5.81678e-06 0.0127908)
(1.09032e-05 -4.96604e-06 0.0127609)
(8.39761e-06 -4.45303e-06 0.0127134)
(1.46816e-05 -5.80235e-06 0.0127505)
(1.33715e-05 -5.96537e-06 0.0127308)
(1.15564e-05 -4.84995e-06 0.0126951)
(8.63236e-06 -3.71551e-06 0.0126464)
(1.51665e-05 -4.43023e-06 0.01266)
(1.39135e-05 -5.76448e-06 0.0126389)
(1.20947e-05 -5.55218e-06 0.0126013)
(8.58756e-06 -4.90623e-06 0.012556)
(1.50354e-05 -2.30455e-06 0.0125291)
(1.39067e-05 -4.53184e-06 0.0125103)
(1.19181e-05 -5.60702e-06 0.012477)
(7.66573e-06 -5.27741e-06 0.0124421)
(9.98356e-06 -2.84583e-06 0.0128083)
(9.09155e-06 -3.04018e-06 0.0127936)
(7.76582e-06 -2.87878e-06 0.0127647)
(5.93692e-06 -2.77722e-06 0.012718)
(1.00142e-05 -2.87493e-06 0.0127505)
(9.1896e-06 -3.16603e-06 0.0127323)
(7.87495e-06 -2.79824e-06 0.0126985)
(5.90276e-06 -2.26385e-06 0.012651)
(1.00537e-05 -2.34511e-06 0.0126588)
(9.29969e-06 -3.24804e-06 0.0126393)
(7.94951e-06 -3.36356e-06 0.0126044)
(5.72928e-06 -3.10245e-06 0.0125608)
(9.73708e-06 -1.33184e-06 0.0125271)
(9.0674e-06 -2.72505e-06 0.01251)
(7.59222e-06 -3.45595e-06 0.01248)
(4.97828e-06 -3.35174e-06 0.0124469)
(7.04088e-06 -1.32344e-06 0.0128094)
(6.45385e-06 -1.59948e-06 0.0127954)
(5.52734e-06 -1.69472e-06 0.0127673)
(4.22254e-06 -1.76458e-06 0.012721)
(6.91563e-06 -1.40137e-06 0.0127508)
(6.36398e-06 -1.70418e-06 0.0127335)
(5.433e-06 -1.648e-06 0.0127009)
(4.09823e-06 -1.40822e-06 0.0126541)
(6.8007e-06 -1.23539e-06 0.0126583)
(6.2965e-06 -1.88118e-06 0.01264)
(5.33469e-06 -2.09403e-06 0.0126066)
(3.9001e-06 -2.01191e-06 0.0125639)
(6.47066e-06 -7.80273e-07 0.0125263)
(6.01e-06 -1.68519e-06 0.0125103)
(4.96478e-06 -2.19282e-06 0.012482)
(3.31503e-06 -2.19129e-06 0.0124499)
(4.93763e-06 -5.8601e-07 0.0128101)
(4.54786e-06 -8.46276e-07 0.0127966)
(3.90983e-06 -1.01841e-06 0.012769)
(2.99705e-06 -1.13851e-06 0.0127231)
(4.78268e-06 -6.67028e-07 0.0127511)
(4.40685e-06 -9.28527e-07 0.0127345)
(3.76082e-06 -9.88825e-07 0.0127025)
(2.85842e-06 -8.92004e-07 0.0126562)
(4.63754e-06 -6.48455e-07 0.0126583)
(4.28608e-06 -1.11546e-06 0.0126407)
(3.61714e-06 -1.32684e-06 0.0126082)
(2.67847e-06 -1.32592e-06 0.012566)
(4.34783e-06 -4.61671e-07 0.012526)
(4.01931e-06 -1.0646e-06 0.0125107)
(3.29762e-06 -1.41754e-06 0.0124835)
(2.23681e-06 -1.45624e-06 0.012452)
(3.39793e-06 -2.36941e-07 0.0128106)
(3.14294e-06 -4.48805e-07 0.0127975)
(2.71334e-06 -6.15094e-07 0.0127701)
(2.09021e-06 -7.32629e-07 0.0127245)
(3.25985e-06 -3.04976e-07 0.0127514)
(3.00928e-06 -5.11537e-07 0.0127352)
(2.57286e-06 -5.98393e-07 0.0127036)
(1.96804e-06 -5.66789e-07 0.0126576)
(3.13111e-06 -3.37892e-07 0.0126584)
(2.89004e-06 -6.6805e-07 0.0126412)
(2.43669e-06 -8.45517e-07 0.0126093)
(1.82241e-06 -8.70693e-07 0.0125674)
(2.90514e-06 -2.75089e-07 0.012526)
(2.67286e-06 -6.75475e-07 0.0125112)
(2.18669e-06 -9.20196e-07 0.0124845)
(1.50157e-06 -9.63987e-07 0.0124534)
(2.24115e-06 -7.82527e-08 0.012811)
(2.08191e-06 -2.32282e-07 0.012798)
(1.80449e-06 -3.62473e-07 0.0127709)
(1.39772e-06 -4.55433e-07 0.0127254)
(2.13671e-06 -1.30569e-07 0.0127516)
(1.9777e-06 -2.7961e-07 0.0127357)
(1.69458e-06 -3.57135e-07 0.0127044)
(1.30292e-06 -3.52658e-07 0.0126586)
(2.03949e-06 -1.72353e-07 0.0126585)
(1.88226e-06 -3.95494e-07 0.0126417)
(1.58643e-06 -5.28779e-07 0.01261)
(1.19458e-06 -5.56753e-07 0.0125684)
(1.88045e-06 -1.6148e-07 0.0125261)
(1.72269e-06 -4.19938e-07 0.0125116)
(1.40725e-06 -5.84486e-07 0.0124852)
(9.75488e-07 -6.21121e-07 0.0124543)
(1.36166e-06 -2.11659e-08 0.0128112)
(1.27214e-06 -1.18582e-07 0.0127983)
(1.10856e-06 -2.03504e-07 0.0127713)
(8.68229e-07 -2.65327e-07 0.0127259)
(1.29449e-06 -5.61128e-08 0.0127518)
(1.20323e-06 -1.52663e-07 0.012736)
(1.03505e-06 -2.09482e-07 0.0127048)
(8.02862e-07 -2.14706e-07 0.0126591)
(1.23195e-06 -8.77758e-08 0.0126587)
(1.13915e-06 -2.26781e-07 0.012642)
(9.62309e-07 -3.15149e-07 0.0126105)
(7.3014e-07 -3.37238e-07 0.0125689)
(1.13644e-06 -9.24279e-08 0.0125261)
(1.04031e-06 -2.50544e-07 0.0125118)
(8.51436e-07 -3.54296e-07 0.0124856)
(5.96824e-07 -3.81003e-07 0.0124548)
(6.89693e-07 -2.963e-08 0.0128113)
(6.49548e-07 -7.36426e-08 0.0127985)
(5.71336e-07 -1.12315e-07 0.0127716)
(4.59014e-07 -1.42386e-07 0.0127263)
(6.58378e-07 -4.35354e-08 0.0127518)
(6.16771e-07 -9.41906e-08 0.0127362)
(5.34629e-07 -1.27534e-07 0.0127051)
(4.23422e-07 -1.38903e-07 0.0126595)
(6.31719e-07 -5.27923e-08 0.0126587)
(5.88112e-07 -1.26486e-07 0.0126421)
(4.9943e-07 -1.76604e-07 0.0126107)
(3.84395e-07 -1.94894e-07 0.0125693)
(5.98403e-07 -5.28373e-08 0.0125262)
(5.52259e-07 -1.42131e-07 0.012512)
(4.56423e-07 -2.03758e-07 0.0124859)
(3.30478e-07 -2.25547e-07 0.0124552)
(0.00272507 0.00117069 0.024775)
(0.00324037 0.00128808 0.0247303)
(0.00215734 0.000446984 0.0126362)
(0.00125029 0.000255297 0.014774)
(0.00148996 -0.000102011 0.0199859)
(0.00271506 0.000646558 0.0232594)
(0.00154503 -0.000487805 0.0137823)
(-5.77835e-05 -0.000365787 0.0170818)
(-0.00053054 0.000280679 0.00476738)
(0.00194814 0.00134554 0.0207848)
(0.00203836 0.00262762 0.0206556)
(0.000730518 0.00286827 0.0230375)
(-0.00238535 0.00478941 0.0328161)
(0.000701626 0.00179671 0.011634)
(0.00251008 0.00568428 0.0223428)
(-0.00019896 0.00299988 0.0191266)
(-0.00310855 -0.00105638 0.0169705)
(0.00183083 0.00096567 0.016574)
(0.00804443 0.00368417 0.041942)
(0.00287189 -0.00127241 0.0450662)
(0.000595896 0.000451719 0.0109841)
(0.00068251 0.00221227 0.0209249)
(0.00151177 -0.000898347 0.0358398)
(0.000369033 -0.00111901 0.0261711)
(0.00273603 2.0169e-05 0.0316415)
(-0.0001711 -0.000709925 0.016585)
(0.000174498 -0.000743415 0.0105825)
(0.0013427 -4.22767e-05 0.0270373)
(-0.000613709 -0.000839777 0.0247138)
(-6.85305e-05 -8.01203e-05 0.00487754)
(-0.000285612 0.000582794 0.0203505)
(0.000384754 0.00076734 0.037361)
(0.00211128 -0.000447126 0.0205528)
(0.000534561 -0.000942131 0.0102829)