/*--------------------------------*- C++ -*----------------------------------*\
| =========                 |                                                 |
| \\      /  F ield         | OpenFOAM: The Open Source CFD Toolbox           |
|  \\    /   O peration     | Version:  2506                                  |
|   \\  /    A nd           | Website:  www.openfoam.com                      |
|    \\/     M anipulation  |                                                 |
\*---------------------------------------------------------------------------*/
FoamFile
{
    version     2.0;
    format      ascii;
    arch        "LSB;label=32;scalar=64";
    class       volVectorField;
    location    "0.06";
    object      Us;
}
// * * * * * * * * * * * * * * * * * * * * * * * * * * * * * * * * * * * * * //

dimensions      [0 1 -1 0 0 0 0];

internalField   nonuniform List<vector> 
1152
(
(-0.000138959 0.00023176 0.000425174)
(-0.000465317 0.000304936 0.000159712)
(0.000239037 -0.000112843 0.0001455)
(-8.55419e-05 -0.000111131 -4.15697e-05)
(-0.000138977 -3.86413e-05 0.000123621)
(7.29895e-07 -0.000373484 0.000162464)
(-0.000223684 0.000230829 -9.00827e-05)
(-0.000534896 -9.95439e-05 -0.000155888)
(1.04615e-05 -0.000231965 -5.47954e-05)
(7.65619e-05 -0.000375511 -0.000126342)
(-0.00051511 5.04422e-06 -0.000138565)
(-0.000651156 -0.000255914 -0.000127337)
(-0.000253189 -0.000184484 -0.000815373)
(-0.000312768 -0.0003054 -8.7126e-05)
(-0.000658282 -0.000222551 -0.000128384)
(-0.000106402 -9.00493e-05 -0.000506003)
(-0.00091744 -0.000679914 0.00232898)
(-0.000294548 -0.00055542 0.00120805)
(0.000502438 -0.000226427 0.00204113)
(-0.000155375 0.000276116 0.000811587)
(6.57407e-05 -0.000324069 0.00124272)
(0.000458667 3.02384e-05 0.00104972)
(-7.7237e-05 -9.5302e-05 0.000993881)
(0.000118159 0.000145186 0.00147944)
(6.68588e-05 -0.000359172 0.000554065)
(6.24582e-05 3.55068e-06 0.00161498)
(0.000269365 7.18771e-05 0.000605473)
(0.000202923 -0.000294234 0.000894558)
(-0.000118165 -0.000704059 0.000454331)
(-4.05181e-05 -0.000329482 0.0013008)
(0.00013202 -0.000316258 0.00176787)
(-0.000101304 -0.000359441 0.000112408)
(0.000335839 -7.51787e-05 0.00263084)
(-0.000316429 -0.000580649 0.00154237)
(-0.00069255 -7.01954e-05 0.00156815)
(1.41434e-05 -0.000302266 0.00126314)
(-0.000465358 -0.000569389 0.00293665)
(1.67809e-05 -0.000252189 0.00170667)
(-0.000288819 -6.28764e-05 0.00153371)
(0.000167123 -0.000676453 0.00171429)
(-0.000396256 -0.000219214 0.00189895)
(-0.000179289 -0.000371581 0.00106786)
(0.000390411 -0.000528978 0.00164015)
(0.00078456 -0.000561478 0.00160378)
(-5.84083e-05 -0.000451043 0.00103892)
(-0.000161358 -0.000365207 0.00144356)
(1.6718e-05 -0.000260069 0.00166398)
(-2.12094e-05 -0.000545933 0.00114037)
(0.000156163 -3.05866e-05 0.00117582)
(-5.97093e-05 2.85307e-05 0.00130565)
(-3.1589e-05 -0.0004113 0.000981812)
(-2.42131e-05 -0.000277486 0.00146988)
(-4.62279e-05 -0.000316044 0.00142964)
(6.74373e-05 -0.00057991 0.00135193)
(-9.74935e-05 -0.000785168 0.000966547)
(-0.000246222 -0.000283046 0.000832708)
(-9.68508e-05 -7.46698e-05 0.00118799)
(-0.000246895 -0.000217111 0.000764824)
(0.000473947 -0.000515707 0.0015191)
(-0.000121541 -0.000337632 0.000818614)
(0.000163371 -0.000253216 0.000899156)
(-2.96244e-05 -0.000302116 0.00075971)
(0.000138243 -0.000212874 0.00102013)
(0.000413504 -0.000178087 0.00122891)
(-0.000121027 -8.30631e-05 0.000979159)
(4.6448e-05 1.27616e-05 0.00106175)
(0.000344935 -0.000523669 0.00151402)
(0.000277203 -0.000129963 0.00161021)
(6.1218e-05 -1.1636e-06 0.00110184)
(0.00018324 -2.73853e-05 0.000745752)
(6.21049e-05 -0.00015308 0.00077986)
(0.000109382 -7.84166e-05 0.000899331)
(1.54598e-05 -1.21561e-05 0.000988001)
(-4.62564e-06 2.90195e-05 0.000783551)
(7.90707e-06 -3.48921e-05 0.000720876)
(-1.67031e-05 -9.14226e-05 0.000723262)
(0.000211465 -4.04162e-05 0.00092447)
(2.09497e-05 4.33589e-05 0.00104775)
(4.56747e-05 2.33836e-05 0.000799093)
(0.000149425 -0.000288829 0.000854429)
(5.8635e-06 0.000237885 0.00101671)
(0.0003495 0.00025358 0.000866118)
(0.000321314 -0.000432352 0.00112223)
(-3.45504e-05 -0.000104492 0.000935327)
(-1.17384e-05 0.000276643 0.000941027)
(-9.18189e-05 0.000302285 0.000983489)
(0.00011357 0.000289315 0.000914291)
(1.29527e-05 7.17971e-05 0.000942778)
(2.77273e-05 0.000159451 0.000743707)
(7.56344e-05 0.000218244 0.00081865)
(6.22739e-05 -1.95473e-05 0.000903984)
(5.60517e-05 8.55821e-06 0.000890659)
(-4.77316e-05 0.000129489 0.000737848)
(1.11609e-05 8.29372e-05 0.000911042)
(-6.44458e-05 1.30563e-05 0.000822113)
(-3.53834e-06 -3.73705e-05 0.000789678)
(0.000569919 0.000542954 0.000927234)
(0.00165195 -0.000670601 0.000326297)
(-4.98734e-05 -0.000221115 8.61051e-05)
(-0.000320329 -0.000190916 0.00093529)
(0.00017049 0.000395009 0.000912958)
(-3.7043e-06 0.000157131 0.000730165)
(0.00021884 -0.000253798 0.000710569)
(-9.80486e-05 -0.000235792 0.000818675)
(0.000141991 0.000234698 0.000768501)
(9.75698e-05 0.000242957 0.000898327)
(0.000157439 0.000100251 0.000907207)
(6.61073e-05 -4.14026e-05 0.000888241)
(-0.000185678 0.000157984 0.00056937)
(9.62975e-05 -5.11318e-05 0.000810899)
(0.00118033 1.46641e-05 0.00106865)
(0.000231833 0.000160651 0.000756355)
(0 0 0)
(0 0 0)
(0 0 0)
(0 0 0)
(0 0 0)
(0 0 0)
(0 0 0)
(0 0 0)
(0 0 0)
(0 0 0)
(0 0 0)
(0 0 0)
(0 0 0)
(0 0 0)
(0 0 0)
(0 0 0)
(0 0 0)
(0 0 0)
(0 0 0)
(0 0 0)
(0 0 0)
(0 0 0)
(0 0 0)
(0 0 0)
(0 0 0)
(0 0 0)
(0 0 0)
(0 0 0)
(0 0 0)
(0 0 0)
(0 0 0)
(0 0 0)
(0 0 0)
(0 0 0)
(0 0 0)
(0 0 0)
(0 0 0)
(0 0 0)
(0 0 0)
(0 0 0)
(0 0 0)
(0 0 0)
(0 0 0)
(0 0 0)
(0 0 0)
(0 0 0)
(0 0 0)
(0 0 0)
(0 0 0)
(0 0 0)
(0 0 0)
(0 0 0)
(0 0 0)
(0 0 0)
(0 0 0)
(0 0 0)
(0 0 0)
(0 0 0)
(0 0 0)
(0 0 0)
(0 0 0)
(0 0 0)
(0 0 0)
(0 0 0)
(0 0 0)
(0 0 0)
(0 0 0)
(0 0 0)
(0 0 0)
(0 0 0)
(0 0 0)
(0 0 0)
(0 0 0)
(0 0 0)
(0 0 0)
(0 0 0)
(0 0 0)
(0 0 0)
(0 0 0)
(0 0 0)
(0 0 0)
(0 0 0)
(0 0 0)
(0 0 0)
(0 0 0)
(0 0 0)
(0 0 0)
(0 0 0)
(0 0 0)
(0 0 0)
(0 0 0)
(0 0 0)
(0 0 0)
(0 0 0)
(0 0 0)
(0 0 0)
(0 0 0)
(0 0 0)
(0 0 0)
(0 0 0)
(0 0 0)
(0 0 0)
(0 0 0)
(0 0 0)
(0 0 0)
(0 0 0)
(0 0 0)
(0 0 0)
(0 0 0)
(0 0 0)
(0 0 0)
(0 0 0)
(0 0 0)
(0 0 0)
(0 0 0)
(0 0 0)
(0 0 0)
(0 0 0)
(0 0 0)
(0 0 0)
(0 0 0)
(0 0 0)
(0 0 0)
(0 0 0)
(0 0 0)
(0 0 0)
(0 0 0)
(0 0 0)
(0 0 0)
(0 0 0)
(0 0 0)
(0 0 0)
(0 0 0)
(0 0 0)
(0 0 0)
(0 0 0)
(0 0 0)
(0 0 0)
(0 0 0)
(0 0 0)
(0 0 0)
(0 0 0)
(0 0 0)
(0 0 0)
(0 0 0)
(0 0 0)
(0 0 0)
(0 0 0)
(0 0 0)
(0 0 0)
(0 0 0)
(0 0 0)
(0 0 0)
(0 0 0)
(0 0 0)
(0 0 0)
(0 0 0)
(0 0 0)
(0 0 0)
(0 0 0)
(0 0 0)
(0 0 0)
(0 0 0)
(0 0 0)
(0 0 0)
(0 0 0)
(0 0 0)
(0 0 0)
(0 0 0)
(0 0 0)
(0 0 0)
(0 0 0)
(0 0 0)
(0 0 0)
(0 0 0)
(0 0 0)
(0 0 0)
(0 0 0)
(0 0 0)
(0 0 0)
(0 0 0)
(0 0 0)
(0 0 0)
(0 0 0)
(0 0 0)
(0 0 0)
(0 0 0)
(0 0 0)
(0 0 0)
(0 0 0)
(0 0 0)
(0 0 0)
(0 0 0)
(0 0 0)
(0 0 0)
(0 0 0)
(0 0 0)
(0 0 0)
(0 0 0)
(0 0 0)
(0 0 0)
(0 0 0)
(0 0 0)
(0 0 0)
(0 0 0)
(0 0 0)
(0 0 0)
(0 0 0)
(0 0 0)
(0 0 0)
(0 0 0)
(0 0 0)
(0 0 0)
(0 0 0)
(0 0 0)
(0 0 0)
(0 0 0)
(0 0 0)
(0 0 0)
(0 0 0)
(0 0 0)
(0 0 0)
(0 0 0)
(0 0 0)
(0 0 0)
(0 0 0)
(0 0 0)
(0 0 0)
(0 0 0)
(0 0 0)
(0 0 0)
(0 0 0)
(0 0 0)
(0 0 0)
(0 0 0)
(0 0 0)
(0 0 0)
(0 0 0)
(0 0 0)
(0 0 0)
(0 0 0)
(0 0 0)
(0 0 0)
(0 0 0)
(0 0 0)
(0 0 0)
(0 0 0)
(0 0 0)
(0 0 0)
(0 0 0)
(0 0 0)
(0 0 0)
(0 0 0)
(0 0 0)
(0 0 0)
(0 0 0)
(0 0 0)
(0 0 0)
(0 0 0)
(0 0 0)
(0 0 0)
(0 0 0)
(0 0 0)
(0 0 0)
(0 0 0)
(0 0 0)
(0 0 0)
(0 0 0)
(0 0 0)
(0 0 0)
(0 0 0)
(0 0 0)
(0.00043274 5.99556e-05 -0.000237943)
(0.000268155 -7.05736e-05 -0.000557759)
(0.000159185 3.83423e-05 -0.000870583)
(-0.000130055 -0.000325676 -0.000517755)
(0.000159725 0.000412766 0.000152642)
(0.000436333 0.000156928 -0.000601592)
(1.43459e-05 -5.7426e-05 -0.000285643)
(-8.2723e-06 -0.000465502 -0.000317872)
(9.55765e-05 3.26069e-05 0.00012696)
(-4.51603e-05 7.0462e-06 0.000118908)
(0.000238791 0.000175672 -5.32453e-06)
(-0.000107272 0.000105046 8.68889e-05)
(-0.000194136 0.000161139 9.79234e-05)
(-0.000272411 0.00011642 1.75716e-05)
(7.70441e-05 0.0001355 0.000127108)
(-3.53883e-05 0.00012256 0.000258236)
(0.000233885 -0.000375972 0.000245854)
(5.39062e-05 -0.000372204 0.00028855)
(-0.000167988 -0.000382699 0.000302105)
(0.000398543 -0.00051506 0.000320461)
(3.55457e-05 -0.000211152 0.000585727)
(0.000109677 2.00383e-05 0.000465982)
(9.03766e-05 -0.000249049 -9.14657e-06)
(0.000157822 -0.000317831 0.000637517)
(0.000158527 -5.58924e-05 0.00127572)
(0.000433171 -7.15781e-05 0.00163545)
(6.69919e-05 -0.000189482 0.00103111)
(-0.000873781 -3.71604e-05 0.000805929)
(0.000637168 4.46309e-05 0.00171903)
(0.00011043 9.16987e-06 0.000924769)
(-0.000113449 5.53932e-05 0.000794724)
(-3.85333e-05 8.42648e-05 0.00146406)
(0.000310466 -0.000236787 0.000626511)
(-6.09298e-05 -0.0007756 0.00165532)
(0.000249912 -0.00052116 0.001112)
(4.9573e-05 -0.000766857 0.000709815)
(0.000206854 -0.000101121 0.00119809)
(0.000208606 -0.000247652 0.00123376)
(-0.000343328 -0.000785998 0.000387728)
(8.74549e-06 -0.000754586 0.00138258)
(-0.00047918 -0.000666132 0.00159981)
(-0.000261856 -0.000570959 0.00245199)
(6.69159e-05 -0.000530622 0.00134926)
(-0.00036912 -0.000430628 0.00158869)
(-0.000603416 -0.000418838 0.00175353)
(-0.000176898 -0.000302843 0.00166971)
(0.000317929 -7.31011e-05 0.00293963)
(-0.000145745 -7.09697e-05 0.000796014)
(-4.55267e-05 0.000693289 0.00191232)
(-0.000106968 -0.00034058 0.00145132)
(-0.000148384 -0.000304741 0.0014013)
(-0.000236568 -0.000546893 0.000983441)
(0.000393301 -2.46193e-05 0.00072286)
(-0.000194743 -0.000172257 0.00127971)
(-0.000234537 -0.000440599 0.000702439)
(-1.18828e-05 -0.000483795 0.000938328)
(-0.000951628 0.00028508 0.00186239)
(-0.000303881 -0.000262281 0.0018562)
(7.48011e-05 -0.000376918 0.000539317)
(-0.000207459 -0.000326803 0.00104732)
(-0.000684843 0.000282384 0.00300731)
(-0.000383118 -0.00016948 0.00254575)
(-0.000453912 -0.000231128 0.000534936)
(-0.000109079 -0.000235233 0.000881741)
(0.000164783 0.000247933 0.00114647)
(-5.37819e-05 -0.000248312 0.00118378)
(-0.000282302 -0.000127114 0.00144772)
(-0.000229679 -0.000207865 0.000728184)
(0.000374215 -6.78212e-05 0.000624756)
(5.47149e-05 -0.000143958 0.000762187)
(-0.000287843 -9.34327e-05 0.00121053)
(-0.00014476 -0.000413163 0.000507132)
(-5.02444e-05 -0.000253126 0.000800637)
(0.000587367 9.7014e-05 0.000454503)
(-7.21286e-05 -0.000668508 0.000928415)
(-0.000117263 -0.000329376 0.000543525)
(-0.000282575 0.000141748 0.000939337)
(0.000100463 0.00020902 0.000613967)
(-0.000262411 0.000125805 0.000773292)
(-0.000154288 5.78073e-07 0.00049412)
(-0.000106346 5.16677e-05 0.000695168)
(-0.000123022 3.40985e-05 0.000819458)
(-9.71032e-05 -7.88884e-06 0.000746525)
(-7.17746e-05 -7.77695e-05 0.000590586)
(-9.90641e-06 -2.86937e-05 0.000494944)
(-6.96712e-05 0.000154919 0.000698542)
(-9.42604e-05 -5.00592e-05 0.000692722)
(3.77911e-05 -4.8067e-05 0.000446507)
(-7.0299e-05 7.87101e-05 0.000591796)
(2.75942e-05 0.000236484 0.000715559)
(5.57427e-05 -9.91743e-05 0.000574247)
(4.71226e-06 -7.21532e-05 0.000296199)
(-0.000119627 6.06658e-06 0.000100142)
(1.85818e-05 2.78319e-05 0.000542293)
(9.09513e-05 -4.6405e-05 0.00048795)
(-0.000115835 1.48508e-05 0.000222636)
(-0.00019928 0.000112578 0.00060359)
(1.918e-05 7.46067e-05 0.000716267)
(5.99393e-05 -1.43917e-05 0.000789151)
(-0.000287386 -0.00103475 1.21827e-05)
(-5.56964e-05 0.000150154 0.000565756)
(-5.69447e-05 0.000100747 0.000666066)
(-0.000617485 -0.00132722 -0.000313713)
(-0.00122859 -0.00326806 -0.00180886)
(-0.000250913 0.000123784 0.000633707)
(-5.21747e-05 0.000219499 0.00058927)
(0.000139954 -2.23302e-05 0.000419402)
(-4.85677e-05 0.000133423 0.000278722)
(-7.97247e-05 9.61334e-05 0.000235965)
(-0.000324793 0.000204917 0.000476069)
(-0.000148422 -3.76317e-05 0.000349721)
(-0.00188606 -0.00175267 -0.000467391)
(0 0 0)
(0 0 0)
(0 0 0)
(0 0 0)
(0 0 0)
(0 0 0)
(0 0 0)
(0 0 0)
(0 0 0)
(0 0 0)
(0 0 0)
(0 0 0)
(0 0 0)
(0 0 0)
(0 0 0)
(0 0 0)
(0 0 0)
(0 0 0)
(0 0 0)
(0 0 0)
(0 0 0)
(0 0 0)
(0 0 0)
(0 0 0)
(0 0 0)
(0 0 0)
(0 0 0)
(0 0 0)
(0 0 0)
(0 0 0)
(0 0 0)
(0 0 0)
(0 0 0)
(0 0 0)
(0 0 0)
(0 0 0)
(0 0 0)
(0 0 0)
(0 0 0)
(0 0 0)
(0 0 0)
(0 0 0)
(0 0 0)
(0 0 0)
(0 0 0)
(0 0 0)
(0 0 0)
(0 0 0)
(0 0 0)
(0 0 0)
(0 0 0)
(0 0 0)
(0 0 0)
(0 0 0)
(0 0 0)
(0 0 0)
(0 0 0)
(0 0 0)
(0 0 0)
(0 0 0)
(0 0 0)
(0 0 0)
(0 0 0)
(0 0 0)
(0 0 0)
(0 0 0)
(0 0 0)
(0 0 0)
(0 0 0)
(0 0 0)
(0 0 0)
(0 0 0)
(0 0 0)
(0 0 0)
(0 0 0)
(0 0 0)
(0 0 0)
(0 0 0)
(0 0 0)
(0 0 0)
(0 0 0)
(0 0 0)
(0 0 0)
(0 0 0)
(0 0 0)
(0 0 0)
(0 0 0)
(0 0 0)
(0 0 0)
(0 0 0)
(0 0 0)
(0 0 0)
(0 0 0)
(0 0 0)
(0 0 0)
(0 0 0)
(0 0 0)
(0 0 0)
(0 0 0)
(0 0 0)
(0 0 0)
(0 0 0)
(0 0 0)
(0 0 0)
(0 0 0)
(0 0 0)
(0 0 0)
(0 0 0)
(0 0 0)
(0 0 0)
(0 0 0)
(0 0 0)
(0 0 0)
(0 0 0)
(0 0 0)
(0 0 0)
(0 0 0)
(0 0 0)
(0 0 0)
(0 0 0)
(0 0 0)
(0 0 0)
(0 0 0)
(0 0 0)
(0 0 0)
(0 0 0)
(0 0 0)
(0 0 0)
(0 0 0)
(0 0 0)
(0 0 0)
(0 0 0)
(0 0 0)
(0 0 0)
(0 0 0)
(0 0 0)
(0 0 0)
(0 0 0)
(0 0 0)
(0 0 0)
(0 0 0)
(0 0 0)
(0 0 0)
(0 0 0)
(0 0 0)
(0 0 0)
(0 0 0)
(0 0 0)
(0 0 0)
(0 0 0)
(0 0 0)
(0 0 0)
(0 0 0)
(0 0 0)
(0 0 0)
(0 0 0)
(0 0 0)
(0 0 0)
(0 0 0)
(0 0 0)
(0 0 0)
(0 0 0)
(0 0 0)
(0 0 0)
(0 0 0)
(0 0 0)
(0 0 0)
(0 0 0)
(0 0 0)
(0 0 0)
(0 0 0)
(0 0 0)
(0 0 0)
(0 0 0)
(0 0 0)
(0 0 0)
(0 0 0)
(0 0 0)
(0 0 0)
(0 0 0)
(0 0 0)
(0 0 0)
(0 0 0)
(0 0 0)
(0 0 0)
(0 0 0)
(0 0 0)
(0 0 0)
(0 0 0)
(0 0 0)
(0 0 0)
(0 0 0)
(0 0 0)
(0 0 0)
(0 0 0)
(0 0 0)
(0 0 0)
(0 0 0)
(0 0 0)
(0 0 0)
(0 0 0)
(0 0 0)
(0 0 0)
(0 0 0)
(0 0 0)
(0 0 0)
(0 0 0)
(0 0 0)
(0 0 0)
(0 0 0)
(0 0 0)
(0 0 0)
(0 0 0)
(0 0 0)
(0 0 0)
(0 0 0)
(0 0 0)
(0 0 0)
(0 0 0)
(0 0 0)
(0 0 0)
(0 0 0)
(0 0 0)
(0 0 0)
(0 0 0)
(0 0 0)
(0 0 0)
(0 0 0)
(0 0 0)
(0 0 0)
(0 0 0)
(0 0 0)
(0 0 0)
(0 0 0)
(0 0 0)
(0 0 0)
(0 0 0)
(0 0 0)
(0 0 0)
(0 0 0)
(0 0 0)
(0 0 0)
(0 0 0)
(0 0 0)
(0 0 0)
(0 0 0)
(0 0 0)
(0 0 0)
(0 0 0)
(0 0 0)
(0 0 0)
(0 0 0)
(0 0 0)
(0 0 0)
(0 0 0)
(0 0 0)
(0 0 0)
(0 0 0)
(0 0 0)
(0 0 0)
(0 0 0)
(0 0 0)
(0 0 0)
(0 0 0)
(0 0 0)
(0 0 0)
(0 0 0)
(0 0 0)
(0 0 0)
(0 0 0)
(0 0 0)
(0 0 0)
(-4.9532e-05 4.67025e-05 -9.28947e-05)
(0.000147796 -0.000181126 -0.000103357)
(0.000234337 6.15268e-06 1.45844e-05)
(-5.3495e-05 -0.000264432 -0.000103406)
(-0.000197138 -0.000245813 0.000118222)
(-0.000145057 -0.000101182 0.000160363)
(0.00073811 -0.000799481 -0.000529748)
(-0.000120251 -0.000208036 -3.87572e-05)
(-0.000735939 -0.00053558 -0.000375235)
(-0.00038569 -0.00018377 -5.81578e-05)
(-0.000137818 -0.00013331 0.000119891)
(-1.32795e-06 -0.00011582 3.88478e-05)
(-4.3848e-05 -0.000333481 4.00213e-05)
(0.00022244 -0.000272826 0.000156657)
(-0.000124454 -8.08095e-05 0.000294587)
(-0.000115212 7.44334e-05 0.000159413)
(-0.000138486 -0.000390057 0.000495399)
(1.22504e-05 -0.000322114 0.00027156)
(0.000549828 5.52145e-05 0.000906541)
(0.000688236 -0.000807079 0.00189256)
(0.000228458 -0.00058019 0.000633554)
(0.000125034 -0.00025246 0.000763186)
(0.000136704 -0.000226817 0.000717099)
(9.56129e-05 -0.000347955 0.00054719)
(2.19295e-05 -0.000413728 0.000775)
(9.33122e-05 -0.00033401 0.00057835)
(-0.000156904 -0.000346879 0.000455383)
(8.20847e-06 4.06114e-06 0.000428219)
(-0.000139351 -0.000537246 0.000481058)
(-0.000102171 -1.14891e-05 0.000899296)
(-0.000498909 -4.64819e-05 0.000854823)
(2.91377e-05 4.60055e-05 0.00100355)
(0.000289133 -0.000492513 0.000598464)
(6.04477e-05 -0.00084062 0.00140648)
(0.000302585 -0.00012479 0.00126297)
(-0.000190233 -0.00046568 0.00107122)
(0.000507826 -0.000370225 0.00108623)
(0.000378926 -0.000250462 0.00152601)
(0.000261316 -0.000377753 0.00155493)
(0.000431975 -0.000490091 0.00148543)
(0.000587806 -0.000340113 0.00131305)
(7.81955e-05 -0.00028926 0.00146119)
(0.000318382 -0.000430592 0.00206381)
(9.97431e-05 -0.000178651 0.00115128)
(-1.29356e-05 -0.000463666 0.000998729)
(0.000131199 -0.000504929 0.00114436)
(8.60733e-05 -0.000107007 0.000867525)
(0.000260642 -3.67236e-06 0.000717711)
(5.72484e-05 -0.000590768 0.00201753)
(-0.000178333 -0.000507561 0.00127346)
(9.13001e-05 -7.85518e-05 0.00129514)
(-3.06782e-05 -0.000904417 0.00112969)
(-0.000230363 -0.000458161 0.000798606)
(1.8834e-05 -0.000685839 0.00164495)
(-0.000156992 -0.000124459 0.00107496)
(0.000413487 0.000184348 0.00155712)
(-7.0181e-05 -0.000161525 0.000797368)
(0.000154697 6.98488e-05 0.000875009)
(0.000267456 0.000116678 0.000893726)
(0.000244278 -0.000389947 0.00111369)
(0.0001187 -0.000269873 0.00112947)
(0.00020776 -0.000147065 0.000991992)
(0.000913291 -0.000111487 0.00126897)
(0.000458053 -0.000318077 0.00168184)
(-2.53001e-05 -0.000290916 0.00131664)
(1.42906e-05 -0.000289171 0.000998309)
(-0.000504756 2.57892e-05 0.00162807)
(-1.34456e-05 -0.000165967 0.000982777)
(-3.52877e-05 -0.000274761 0.000799824)
(-0.000154014 -0.000396581 0.00102179)
(7.88828e-05 -0.000269372 0.00104219)
(0.000161203 -3.32294e-05 0.000344402)
(1.51322e-05 -0.000247433 0.000797498)
(-3.70634e-05 -0.000236279 0.000769635)
(-0.000181443 -0.000245631 0.000892725)
(-0.000270439 -0.000185054 0.000924015)
(0.000191468 0.000851907 0.00138364)
(5.06581e-05 -6.35772e-05 0.000469725)
(1.47642e-05 -0.000354074 0.00104351)
(-0.000132886 8.18621e-06 0.00101528)
(6.79179e-06 -9.2237e-05 0.00120329)
(0.00011337 -0.000276624 0.00100456)
(0.0002655 -0.000369111 0.000872269)
(1.16686e-05 -0.000267408 0.000888528)
(1.74749e-07 -9.05958e-05 0.00111767)
(0.000140009 -0.000176916 0.00104925)
(7.66645e-05 -0.000456279 0.000679207)
(0.000195484 -2.07363e-05 0.00058555)
(0.000142642 -0.00010307 0.00100298)
(8.98623e-05 -0.000262734 0.000850443)
(-8.14562e-05 -0.000392361 0.000777683)
(6.48012e-05 -0.000389582 0.000254153)
(-9.68714e-05 -0.000160913 0.000613431)
(8.60513e-05 -0.000223947 0.000518517)
(6.85486e-05 -0.000181185 0.000323801)
(-3.07468e-05 -6.82558e-05 0.000584937)
(-2.80739e-05 -0.000105801 0.00103353)
(9.49836e-06 -1.68738e-05 0.000977746)
(-9.94982e-05 -9.45193e-05 0.000903139)
(-0.000267857 4.69948e-05 0.00119682)
(-0.000186042 -4.86023e-05 0.0010475)
(0.000104977 3.94547e-05 0.000932693)
(0.000286081 -0.000184455 0.000520723)
(-0.000326863 0.000135618 0.00156475)
(0.000212025 0.000521009 0.000816947)
(0.000268174 0.000264543 0.000557231)
(0.000106135 0.000203903 0.000404452)
(-0.00156534 0.00269294 0.000620594)
(0.00111123 0.00246733 -1.42561e-05)
(0.000101468 0.000218515 0.00062553)
(-3.36416e-05 0.000108388 0.000454395)
(2.6837e-05 -3.82079e-06 0.000318996)
(0 0 0)
(0 0 0)
(0 0 0)
(0 0 0)
(0 0 0)
(0 0 0)
(0 0 0)
(0 0 0)
(0 0 0)
(0 0 0)
(0 0 0)
(0 0 0)
(0 0 0)
(0 0 0)
(0 0 0)
(0 0 0)
(0 0 0)
(0 0 0)
(0 0 0)
(0 0 0)
(0 0 0)
(0 0 0)
(0 0 0)
(0 0 0)
(0 0 0)
(0 0 0)
(0 0 0)
(0 0 0)
(0 0 0)
(0 0 0)
(0 0 0)
(0 0 0)
(0 0 0)
(0 0 0)
(0 0 0)
(0 0 0)
(0 0 0)
(0 0 0)
(0 0 0)
(0 0 0)
(0 0 0)
(0 0 0)
(0 0 0)
(0 0 0)
(0 0 0)
(0 0 0)
(0 0 0)
(0 0 0)
(0 0 0)
(0 0 0)
(0 0 0)
(0 0 0)
(0 0 0)
(0 0 0)
(0 0 0)
(0 0 0)
(0 0 0)
(0 0 0)
(0 0 0)
(0 0 0)
(0 0 0)
(0 0 0)
(0 0 0)
(0 0 0)
(0 0 0)
(0 0 0)
(0 0 0)
(0 0 0)
(0 0 0)
(0 0 0)
(0 0 0)
(0 0 0)
(0 0 0)
(0 0 0)
(0 0 0)
(0 0 0)
(0 0 0)
(0 0 0)
(0 0 0)
(0 0 0)
(0 0 0)
(0 0 0)
(0 0 0)
(0 0 0)
(0 0 0)
(0 0 0)
(0 0 0)
(0 0 0)
(0 0 0)
(0 0 0)
(0 0 0)
(0 0 0)
(0 0 0)
(0 0 0)
(0 0 0)
(0 0 0)
(0 0 0)
(0 0 0)
(0 0 0)
(0 0 0)
(0 0 0)
(0 0 0)
(0 0 0)
(0 0 0)
(0 0 0)
(0 0 0)
(0 0 0)
(0 0 0)
(0 0 0)
(0 0 0)
(0 0 0)
(0 0 0)
(0 0 0)
(0 0 0)
(0 0 0)
(0 0 0)
(0 0 0)
(0 0 0)
(0 0 0)
(0 0 0)
(0 0 0)
(0 0 0)
(0 0 0)
(0 0 0)
(0 0 0)
(0 0 0)
(0 0 0)
(0 0 0)
(0 0 0)
(0 0 0)
(0 0 0)
(0 0 0)
(0 0 0)
(0 0 0)
(0 0 0)
(0 0 0)
(0 0 0)
(0 0 0)
(0 0 0)
(0 0 0)
(0 0 0)
(0 0 0)
(0 0 0)
(0 0 0)
(0 0 0)
(0 0 0)
(0 0 0)
(0 0 0)
(0 0 0)
(0 0 0)
(0 0 0)
(0 0 0)
(0 0 0)
(0 0 0)
(0 0 0)
(0 0 0)
(0 0 0)
(0 0 0)
(0 0 0)
(0 0 0)
(0 0 0)
(0 0 0)
(0 0 0)
(0 0 0)
(0 0 0)
(0 0 0)
(0 0 0)
(0 0 0)
(0 0 0)
(0 0 0)
(0 0 0)
(0 0 0)
(0 0 0)
(0 0 0)
(0 0 0)
(0 0 0)
(0 0 0)
(0 0 0)
(0 0 0)
(0 0 0)
(0 0 0)
(0 0 0)
(0 0 0)
(0 0 0)
(0 0 0)
(0 0 0)
(0 0 0)
(0 0 0)
(0 0 0)
(0 0 0)
(0 0 0)
(0 0 0)
(0 0 0)
(0 0 0)
(0 0 0)
(0 0 0)
(0 0 0)
(0 0 0)
(0 0 0)
(0 0 0)
(0 0 0)
(0 0 0)
(0 0 0)
(0 0 0)
(0 0 0)
(0 0 0)
(0 0 0)
(0 0 0)
(0 0 0)
(0 0 0)
(0 0 0)
(0 0 0)
(0 0 0)
(0 0 0)
(0 0 0)
(0 0 0)
(0 0 0)
(0 0 0)
(0 0 0)
(0 0 0)
(0 0 0)
(0 0 0)
(0 0 0)
(0 0 0)
(0 0 0)
(0 0 0)
(0 0 0)
(0 0 0)
(0 0 0)
(0 0 0)
(0 0 0)
(0 0 0)
(0 0 0)
(0 0 0)
(0 0 0)
(0 0 0)
(0 0 0)
(0 0 0)
(0 0 0)
(0 0 0)
(0 0 0)
(0 0 0)
(0 0 0)
(0 0 0)
(0 0 0)
(0 0 0)
(0 0 0)
(0 0 0)
(0 0 0)
(0 0 0)
(0 0 0)
(0 0 0)
(0 0 0)
(0 0 0)
(0 0 0)
(0 0 0)
(0 0 0)
(0 0 0)
(0 0 0)
(0 0 0)
(0 0 0)
(0 0 0)
(0 0 0)
(0 0 0)
(0 0 0)
(0 0 0)
(0 0 0)
(0 0 0)
(0 0 0)
(0 0 0)
(0 0 0)
(0 0 0)
)
;

boundaryField
{
    inlet
    {
        type            zeroGradient;
    }
    outlet
    {
        type            zeroGradient;
    }
    wall
    {
        type            zeroGradient;
    }
    procBoundary3to1
    {
        type            processor;
        value           nonuniform List<vector> 
192
(
(0.000286217 0.000340432 -0.00021332)
(0.000270067 9.10562e-05 -5.1953e-05)
(-0.000355405 0.000963494 -0.000326118)
(-0.000294499 -0.000204616 0.000141713)
(-0.000283973 0.00020621 0.00116239)
(-0.000771387 -2.63805e-05 0.000257519)
(-0.000219331 0.000302903 0.00140892)
(-0.000287459 0.000428766 0.00092604)
(-7.87781e-05 -0.000183024 0.00151544)
(-0.000388293 5.85233e-05 0.00220396)
(-0.0011387 -0.000430513 0.0020295)
(-0.000169166 0.000337473 0.000972372)
(-1.15402e-05 0.000131101 0.00120083)
(-0.000867036 -8.1549e-06 0.00129943)
(-0.000530806 -0.000156527 0.00143612)
(-0.000208691 4.16241e-05 0.000880971)
(1.2662e-05 -4.67405e-05 0.00110347)
(0.000156764 0.000212757 0.00139303)
(0.000124808 -0.000204072 0.00130556)
(-6.90343e-05 -0.000184462 0.00091518)
(0.000197687 -0.000347133 0.00119766)
(0.000169656 -0.000147852 0.00114218)
(0.000166027 -0.000512199 0.00164369)
(-6.62197e-05 -0.00013114 0.000930783)
(0.000306523 -1.72191e-05 0.00115815)
(0.00035823 -0.00093809 0.00184671)
(0.00200435 -0.00248916 0.00393144)
(0.000707238 -0.000112091 0.000947914)
(0.00105212 -0.000210779 0.000749983)
(0 0 0)
(0 0 0)
(0 0 0)
(0 0 0)
(0 0 0)
(0 0 0)
(0 0 0)
(0 0 0)
(0 0 0)
(0 0 0)
(0 0 0)
(0 0 0)
(0 0 0)
(0 0 0)
(0 0 0)
(0 0 0)
(0 0 0)
(0 0 0)
(0 0 0)
(0 0 0)
(0 0 0)
(0 0 0)
(0 0 0)
(0 0 0)
(0 0 0)
(0 0 0)
(0 0 0)
(0 0 0)
(0 0 0)
(0 0 0)
(0 0 0)
(0 0 0)
(0 0 0)
(0 0 0)
(0 0 0)
(0 0 0)
(0 0 0)
(0 0 0)
(0 0 0)
(0 0 0)
(0 0 0)
(0 0 0)
(0 0 0)
(0 0 0)
(0 0 0)
(0 0 0)
(0 0 0)
(0 0 0)
(0 0 0)
(0 0 0)
(0 0 0)
(0 0 0)
(0 0 0)
(0 0 0)
(0 0 0)
(0 0 0)
(0 0 0)
(0 0 0)
(0 0 0)
(0 0 0)
(0 0 0)
(0 0 0)
(0 0 0)
(0 0 0)
(0 0 0)
(0 0 0)
(0 0 0)
(-0.000114709 -0.000205613 -0.000192393)
(0.000247182 -1.27395e-05 -4.75529e-05)
(0.000170376 -0.000449465 4.73705e-05)
(0.000135861 4.57186e-05 5.94386e-05)
(1.67323e-05 0.000107198 0.000584035)
(3.0685e-05 -0.000128673 0.000364558)
(-0.000161495 -7.12788e-05 0.000400932)
(-0.00016548 7.87639e-05 0.000447587)
(-0.000230906 -0.000101942 0.000907361)
(-0.000270784 -0.000437126 0.000802174)
(0.00030756 -0.000134258 0.00170159)
(-0.000130122 0.000431811 0.0017122)
(5.10707e-05 -0.000154526 0.000930931)
(-1.16291e-05 -0.00012303 0.00101663)
(0.000172707 -0.000144975 0.00180191)
(-2.22644e-05 -0.000234038 0.00209863)
(8.10079e-05 -0.000167015 0.00113289)
(0.000254529 -0.000389951 0.000996565)
(0.000140906 -0.000332867 0.00130024)
(-0.000580801 0.000128001 0.00175835)
(7.58345e-05 -0.000190539 0.000991013)
(0.000106579 -0.000258521 0.000911824)
(7.27052e-05 -0.000391934 0.000932136)
(4.3199e-05 -0.000127818 0.000709872)
(0.00305545 -0.00068987 0.000409026)
(-0.000201469 -0.000223779 0.000936312)
(-0.000296599 -0.000819475 0.000886954)
(0.00372566 -0.00163517 0.00215523)
(0 0 0)
(0 0 0)
(0 0 0)
(0 0 0)
(0 0 0)
(0 0 0)
(0 0 0)
(0 0 0)
(0 0 0)
(0 0 0)
(0 0 0)
(0 0 0)
(0 0 0)
(0 0 0)
(0 0 0)
(0 0 0)
(0 0 0)
(0 0 0)
(0 0 0)
(0 0 0)
(0 0 0)
(0 0 0)
(0 0 0)
(0 0 0)
(0 0 0)
(0 0 0)
(0 0 0)
(0 0 0)
(0 0 0)
(0 0 0)
(0 0 0)
(0 0 0)
(0 0 0)
(0 0 0)
(0 0 0)
(0 0 0)
(0 0 0)
(0 0 0)
(0 0 0)
(0 0 0)
(0 0 0)
(0 0 0)
(0 0 0)
(0 0 0)
(0 0 0)
(0 0 0)
(0 0 0)
(0 0 0)
(0 0 0)
(0 0 0)
(0 0 0)
(0 0 0)
(0 0 0)
(0 0 0)
(0 0 0)
(0 0 0)
(0 0 0)
(0 0 0)
(0 0 0)
(0 0 0)
(0 0 0)
(0 0 0)
(0 0 0)
(0 0 0)
(0 0 0)
(0 0 0)
(0 0 0)
(0 0 0)
)
;
    }
    procBoundary3to2
    {
        type            processor;
        value           nonuniform List<vector> 
192
(
(0.000391555 0.000227365 8.084e-05)
(0.000370289 -0.000335272 0.00023999)
(-0.000105219 0.000157824 7.64512e-05)
(0.000780755 -0.00100465 -0.000214838)
(-0.000217032 -0.000350384 0.000840798)
(0.000234378 -0.00052473 0.00194287)
(3.11954e-05 -0.00053198 0.00163996)
(-0.000101498 -0.00050196 0.0009375)
(0.00041712 -0.00060034 0.0031985)
(0.000236424 -0.00113894 0.00388575)
(-0.000376642 -0.000695094 0.00197703)
(-8.43045e-05 -0.000163397 0.00137636)
(-0.000319295 -0.000115396 0.00190668)
(-0.000650563 -0.000598702 0.00503678)
(-0.000213146 -0.000298595 0.00102574)
(-0.000102697 -0.000281162 0.0012196)
(-7.91109e-05 -6.7018e-05 0.00136679)
(-0.000186292 -8.60484e-06 0.00112601)
(1.39789e-05 5.9489e-05 0.00114592)
(3.30386e-05 2.66755e-05 0.00081701)
(3.84733e-05 -2.83205e-05 0.00129942)
(1.83053e-05 9.67996e-05 0.00103142)
(-6.75137e-06 3.41753e-05 0.000826981)
(-1.57177e-05 4.01293e-05 0.000624619)
(0.000310314 0.000411802 0.00109668)
(2.04921e-05 0.000249212 0.00108064)
(7.38236e-05 0.000234589 0.000905442)
(-0.00019657 0.000190375 0.000458127)
(0 0 0)
(0 0 0)
(0 0 0)
(0 0 0)
(0 0 0)
(0 0 0)
(0 0 0)
(0 0 0)
(0 0 0)
(0 0 0)
(0 0 0)
(0 0 0)
(0 0 0)
(0 0 0)
(0 0 0)
(0 0 0)
(0 0 0)
(0 0 0)
(0 0 0)
(0 0 0)
(0 0 0)
(0 0 0)
(0 0 0)
(0 0 0)
(0 0 0)
(0 0 0)
(0 0 0)
(0 0 0)
(0 0 0)
(0 0 0)
(0 0 0)
(0 0 0)
(0 0 0)
(0 0 0)
(0 0 0)
(0 0 0)
(0 0 0)
(0 0 0)
(0 0 0)
(0 0 0)
(0 0 0)
(0 0 0)
(0 0 0)
(0 0 0)
(0 0 0)
(0 0 0)
(0 0 0)
(0 0 0)
(0 0 0)
(0 0 0)
(0 0 0)
(0 0 0)
(0 0 0)
(0 0 0)
(0 0 0)
(0 0 0)
(0 0 0)
(0 0 0)
(0 0 0)
(0 0 0)
(0 0 0)
(0 0 0)
(0 0 0)
(0 0 0)
(0 0 0)
(0 0 0)
(0 0 0)
(0 0 0)
(0.00040469 -0.000262756 -0.000491716)
(0.000296641 -0.000303347 -7.19422e-06)
(1.49017e-05 1.03967e-05 -0.0003121)
(-8.96749e-05 -0.00012165 3.47079e-05)
(4.29028e-05 -0.000590769 0.000636068)
(-0.000193754 -0.000411954 0.000988037)
(-0.000532113 -0.000545582 0.000445841)
(-9.75716e-05 -0.000306669 0.000451906)
(0.000365993 -0.000147577 0.00100926)
(-0.000113897 -0.000244795 0.00136476)
(-0.000318717 0.000296277 0.00201971)
(0.00018025 0.000406263 0.00159083)
(0.000223518 0.000129318 0.000825222)
(0.000666397 0.000242339 0.00137144)
(-3.38247e-06 -6.54858e-05 0.00066197)
(-0.000364641 -0.000120758 0.00246539)
(-5.12477e-05 -0.000138115 0.000361694)
(0.000207986 1.31281e-05 0.000469482)
(-0.000126575 -0.000126037 0.000410166)
(-3.15557e-07 5.55221e-05 0.00070306)
(-5.19012e-05 -0.000102803 0.000387811)
(3.9635e-05 -0.000128068 0.000354562)
(-1.66625e-05 -9.91818e-05 0.000215597)
(-5.37015e-05 -3.34368e-05 0.000379151)
(-0.000162572 0.000109991 0.000530261)
(-0.000160924 -1.10448e-05 0.000407933)
(6.63494e-05 0.000293886 4.51708e-05)
(-0.000109222 1.10323e-05 0.00010841)
(0 0 0)
(0 0 0)
(0 0 0)
(0 0 0)
(0 0 0)
(0 0 0)
(0 0 0)
(0 0 0)
(0 0 0)
(0 0 0)
(0 0 0)
(0 0 0)
(0 0 0)
(0 0 0)
(0 0 0)
(0 0 0)
(0 0 0)
(0 0 0)
(0 0 0)
(0 0 0)
(0 0 0)
(0 0 0)
(0 0 0)
(0 0 0)
(0 0 0)
(0 0 0)
(0 0 0)
(0 0 0)
(0 0 0)
(0 0 0)
(0 0 0)
(0 0 0)
(0 0 0)
(0 0 0)
(0 0 0)
(0 0 0)
(0 0 0)
(0 0 0)
(0 0 0)
(0 0 0)
(0 0 0)
(0 0 0)
(0 0 0)
(0 0 0)
(0 0 0)
(0 0 0)
(0 0 0)
(0 0 0)
(0 0 0)
(0 0 0)
(0 0 0)
(0 0 0)
(0 0 0)
(0 0 0)
(0 0 0)
(0 0 0)
(0 0 0)
(0 0 0)
(0 0 0)
(0 0 0)
(0 0 0)
(0 0 0)
(0 0 0)
(0 0 0)
(0 0 0)
(0 0 0)
(0 0 0)
(0 0 0)
)
;
    }
}


// ************************************************************************* //
