FoamFile
{version 2.0; format ascii;class vectorField; location 0;object  v;}
2493
(
( 0.00505542 -0.00130275 0.0163978 )  
( 0.00452491 -0.00497191 0.0153043 )  
( -6.22939e-05 -7.32458e-05 -5.83362e-05 )  
( -0.00036445 0.000691692 0.0140865 )  
( 0.000687767 -0.000940012 0.0112415 )  
( -0.000465727 0.000401076 0.010646 )  
( 0.000552058 0.000121828 0.0144376 )  
( 0.00250949 0.00258806 0.0152256 )  
( 0.000152247 -8.97443e-07 -1.7403e-05 )  
( -0.000547368 -3.98622e-06 0.0162104 )  
( 1.50714e-05 -0.000873856 0.0110795 )  
( 3.07139e-05 5.48167e-05 -5.73089e-05 )  
( -0.000245872 0.000171068 0.0116438 )  
( 0.00226276 -0.000748594 0.0147355 )  
( 0.000102149 0.000718707 0.0125957 )  
( -0.00049639 -0.000121445 0.0107599 )  
( -0.000924897 -0.000695824 0.0143729 )  
( 4.51489e-05 0.000516696 0.0150834 )  
( -0.000197851 -0.000556275 0.0137662 )  
( 0.0012477 0.001209 0.0156888 )  
( -0.000153039 -9.26302e-05 -3.13597e-05 )  
( 0.000868411 -0.0011113 0.00922836 )  
( 0.00147961 0.000799693 0.0134542 )  
( -0.000232298 -0.000855555 0.0126729 )  
( -0.000569509 -0.00155617 0.0120973 )  
( 0.00024981 -0.000266427 -0.000299154 )  
( 0.000134277 -8.56887e-05 -0.000158727 )  
( -2.81987e-05 6.8464e-05 -5.67672e-05 )  
( -0.000122554 0.000983322 0.0141103 )  
( 0.000517263 0.000227505 -0.000129032 )  
( 0.00154461 0.00206237 0.0130399 )  
( 0.00124794 0.000923191 0.0141821 )  
( -0.000445621 0.000541203 0.0134695 )  
( -0.000256041 1.26282e-05 0.000100837 )  
( 0.0006122 0.000621716 0.0112526 )  
( 3.4232e-05 -0.000331156 -0.000122101 )  
( -0.00128653 0.00048557 0.00666945 )  
( 0.00103392 -0.000711556 0.0103173 )  
( 0.00398078 -0.0023541 -0.00236015 )  
( -0.000116454 -8.18715e-05 0.000186562 )  
( 0.00275334 0.00197777 0.0126118 )  
( -0.00176372 -0.00160394 0.0128225 )  
( -0.00029295 -0.000462746 0.0127185 )  
( -0.00103902 0.000393923 0.0111076 )  
( 0.0014496 0.00107011 0.0143148 )  
( 0.00147933 -0.000420833 0.00973093 )  
( -0.00235326 -0.000582334 0.0125562 )  
( -0.00211725 0.0012286 0.0142942 )  
( 0.00147421 0.00251916 0.0141578 )  
( 0.000265353 0.00122317 0.0131261 )  
( -0.00120867 0.000135054 0.0149224 )  
( -0.000537894 0.000579798 0.0123802 )  
( 0.00164384 0.00141994 0.0134169 )  
( -0.000264441 0.000610906 0.0117484 )  
( -0.000738996 -0.000522086 0.00923993 )  
( 0.000370371 -0.000242621 0.0159318 )  
( 0.00198032 1.43708e-05 0.0145805 )  
( 2.86853e-05 -0.000165721 -0.000244757 )  
( 0.000708281 0.000177182 3.06379e-06 )  
( 0.00167896 0.00191036 0.0132502 )  
( 0.00345479 0.00154474 0.0104491 )  
( 0.00174453 9.16333e-05 0.0146909 )  
( 0.00130891 0.00144045 0.0148652 )  
( 0.000919757 0.00293909 0.014399 )  
( 0.000136677 -8.87509e-05 -1.88082e-05 )  
( 6.03427e-05 -0.000256061 0.0139735 )  
( 0.000282855 -0.000208901 -3.99218e-05 )  
( 0.00222714 0.000347132 0.0147735 )  
( 0.000787949 0.000442997 0.0148641 )  
( 0.00200967 0.00127594 0.0135527 )  
( -0.000176036 -9.8445e-05 7.23195e-05 )  
( 0.000378023 -0.000625204 0.0134359 )  
( 0.00177238 0.000632423 0.0129721 )  
( 0.000604751 -0.000241377 0.0001419 )  
( 0.00042629 0.0002732 6.93129e-05 )  
( -0.00236561 0.000663049 0.0106859 )  
( 0.000347711 -0.000543578 0.0149687 )  
( 0.00120428 0.00077969 0.0153462 )  
( 0.000348937 0.000429877 -5.46809e-05 )  
( -0.00150275 0.00476781 0.0205286 )  
( 3.26078e-05 -0.000144989 0.000244649 )  
( 8.38076e-05 -6.34017e-05 -7.02513e-05 )  
( 0.000282432 0.000145933 0.0154305 )  
( 0.000187049 1.40739e-05 -3.9517e-05 )  
( -1.82021e-05 0.00318431 0.0137915 )  
( 0.00152348 -0.000175335 0.0140472 )  
( -0.00289261 -0.00421716 0.0184945 )  
( -0.000155738 -0.0011235 0.0132298 )  
( 0.000398673 -0.00141614 0.0104229 )  
( -0.000560824 -0.000459763 0.0126349 )  
( -0.00152151 -0.000960131 0.0164231 )  
( -0.000367758 -0.000692603 0.0136928 )  
( 0.00116894 0.00164856 0.0146429 )  
( -3.43801e-05 -0.000123318 -4.72321e-05 )  
( -0.00390249 -0.00040546 0.0110997 )  
( -0.000151227 -0.00102018 -0.00108627 )  
( 0.000411088 0.000177944 0.0107599 )  
( 2.56291e-05 -0.00143778 0.0127006 )  
( 0.00123289 0.00182333 0.0129952 )  
( -0.000859844 0.00130919 0.0111879 )  
( 0.000525333 -0.000588091 0.0114222 )  
( 0.000191041 0.000242575 -0.000126451 )  
( 0.00176325 0.00090335 0.0140051 )  
( 6.04251e-05 -3.53035e-05 -2.84808e-05 )  
( 0.000295827 0.000695335 0.0152889 )  
( 0.000648797 3.53683e-05 0.0147027 )  
( -0.00152104 -0.0027086 0.0132791 )  
( 0.000890478 0.00166805 0.0136531 )  
( -0.00321069 -0.000147488 0.0124147 )  
( 0.00149792 0.000334913 0.014038 )  
( -4.17841e-05 -5.63176e-05 0.0122736 )  
( 0.000926518 -0.00136201 0.0134189 )  
( 0.0017529 -0.0015968 0.0150633 )  
( -6.63141e-05 4.62127e-05 -3.31115e-07 )  
( 0.00111611 -0.000806546 0.0139573 )  
( -0.0037019 -0.000119107 0.0132604 )  
( 0.000645328 -0.0027809 0.013902 )  
( 0.000742316 0.00133674 0.0138969 )  
( 0.00148799 -0.000497131 0.0134021 )  
( -0.000765358 0.00065434 0.0130301 )  
( -0.00230517 -7.50853e-05 0.0144652 )  
( 0.00169083 0.00044276 0.0121028 )  
( -0.000242348 2.82531e-05 -8.7851e-05 )  
( -0.00155519 -0.00166264 0.0100243 )  
( 3.82355e-05 -2.90955e-05 -1.83802e-06 )  
( 0.00275397 0.00109781 0.0150035 )  
( 0.000496962 -9.58672e-05 -0.000726768 )  
( -2.04719e-05 6.95682e-05 -1.19685e-05 )  
( 0.00339603 -0.0012388 0.0154436 )  
( -0.00112023 -0.000551745 0.0124356 )  
( -0.00106042 0.00112701 0.0135164 )  
( -0.00118907 0.00434814 0.0147545 )  
( 0.00166723 0.00457414 0.0174306 )  
( 0.00283103 0.0013015 0.0144085 )  
( 0.000696292 -8.06023e-05 -0.000537093 )  
( 0.000563035 0.000541143 0.0130583 )  
( -0.000843226 -2.63668e-05 0.0145551 )  
( -9.41191e-05 -9.43419e-05 4.59766e-05 )  
( 7.22724e-05 4.81055e-05 -8.56721e-06 )  
( 0.000794815 -0.00157999 0.0142255 )  
( 0.000930503 0.000196176 0.0120889 )  
( 0.000160612 0.00272386 0.0164197 )  
( 2.76768e-06 -1.12384e-05 2.43993e-05 )  
( -4.14946e-05 -0.000175728 -6.2003e-05 )  
( -0.00169851 -0.0011307 0.0146827 )  
( -0.000948523 -0.000465189 0.0153752 )  
( -0.000255548 -0.00127945 0.0120191 )  
( 0.00222165 0.000100232 -0.000401723 )  
( 0.000125821 4.44065e-05 -4.50297e-07 )  
( -0.000421966 -0.000494724 -2.45783e-05 )  
( 0.00126732 0.00150993 0.0113565 )  
( -0.00432374 -0.00183608 0.0105806 )  
( 0.00119598 -0.000639902 0.0150823 )  
( -0.000194876 -0.00149606 0.0136294 )  
( 0.00148139 0.000573946 0.0145911 )  
( -0.000113707 -5.95251e-06 -2.4791e-05 )  
( 0.000350285 -0.000209704 -0.000533613 )  
( -0.00209051 0.00159825 0.0135219 )  
( -0.00285901 0.000631045 0.0169522 )  
( -0.00315097 -0.00208556 0.0106176 )  
( 2.0746e-05 -0.00074083 2.21363e-05 )  
( 0.00117898 0.000345156 0.0152159 )  
( 0.00188952 0.000149606 0.0141793 )  
( 0.00336219 0.00262103 0.0122377 )  
( -4.86139e-05 0.00141858 0.0110617 )  
( -1.54102e-05 0.00149575 0.0144605 )  
( 0.000791477 0.00125192 0.0136174 )  
( 0.000741703 0.000144448 0.014974 )  
( 0.00205881 0.00178178 0.0141966 )  
( -0.000554564 -0.00145307 0.0128855 )  
( -0.000420575 -0.000801041 0.0124843 )  
( -0.000254388 0.00135945 -5.17424e-07 )  
( 0.000983457 0.000280864 0.0115621 )  
( 6.03583e-05 -2.95579e-05 3.85026e-05 )  
( 0.00110293 0.000791868 0.0142649 )  
( 0.0011165 0.000356007 0.0142095 )  
( -0.00322075 -0.00100891 0.0141891 )  
( -0.000550915 -0.000995655 0.0130402 )  
( 0.00159934 -5.25048e-05 0.0131496 )  
( 0.00114874 0.00142439 0.0148039 )  
( 0.00447213 0.000848153 0.0123545 )  
( 3.30734e-05 0.00239606 0.0132941 )  
( 0.00298675 0.00186564 0.0141575 )  
( 0.000760037 -0.0026519 0.011887 )  
( -9.60782e-05 -0.000106311 -0.00027068 )  
( 0.000221589 0.00180246 0.0133528 )  
( 0.000101167 -3.5757e-05 -1.69629e-05 )  
( -0.00133682 -0.00105248 0.0142936 )  
( 0.000154754 0.000148848 8.52425e-06 )  
( 0.00117595 0.000910917 0.0142349 )  
( -0.0035256 0.00121074 0.01003 )  
( 0.000331325 -0.000610338 -0.000275129 )  
( 0.000497548 0.000530806 0.0150383 )  
( 0.000293291 0.000264742 -2.14494e-05 )  
( 0.00343612 0.00174604 0.0153998 )  
( -9.19442e-05 0.00252687 0.000377452 )  
( -0.00018769 -0.00161094 0.0106083 )  
( 0.000328459 -0.000666633 -2.50038e-05 )  
( 0.00133169 -0.00209808 0.0147072 )  
( -0.00101782 7.18065e-05 0.0138315 )  
( 0.000979422 0.00125589 0.0129476 )  
( -4.16474e-05 -0.00149006 0.0109392 )  
( -0.00214433 -0.00164504 2.59335e-07 )  
( 0.00181262 -0.000824116 -0.00197868 )  
( 0.000211814 -0.000304755 -0.000113494 )  
( -0.000633129 -0.000765057 0.0127932 )  
( 0.00221012 0.000199333 0.0164063 )  
( -0.000747715 -0.00145485 0.0127877 )  
( -0.000837445 0.00251321 1.14555e-07 )  
( -6.40819e-06 -0.000269737 0.0132678 )  
( -0.00104021 -0.00168999 0.0104532 )  
( 0.000230042 0.00150899 0.0151918 )  
( -0.000597733 -3.54519e-05 0.0143096 )  
( 0.0024663 -0.00110944 0.0135305 )  
( -6.21018e-05 -3.20132e-05 -4.28252e-05 )  
( 0.000999063 0.00155846 0.0156547 )  
( -3.20326e-05 -7.1499e-05 -6.53487e-06 )  
( -0.000454453 0.00017408 0.0144981 )  
( 0.000579902 0.000948217 0.0130757 )  
( -0.000200612 -6.96094e-05 -4.44954e-05 )  
( 8.60266e-05 5.39069e-05 -0.000103128 )  
( 0.000417951 -2.07274e-05 0.0126712 )  
( 2.89459e-05 2.46242e-05 4.10692e-05 )  
( 0.000531896 0.000439572 0.012641 )  
( -0.000332559 5.3427e-05 -1.51345e-05 )  
( 7.36817e-05 0.000887933 0.0147722 )  
( -0.000284331 0.0011077 0.0146291 )  
( 0.00144803 0.00145164 0.0106081 )  
( 0.00024275 0.000847665 0.0150886 )  
( 0.00199895 0.00192522 0.014346 )  
( 0.000271493 -0.000244839 9.20248e-05 )  
( 0.00109444 0.000812535 0.0145493 )  
( 0.00094081 0.000746813 0.0119649 )  
( -0.000990899 -0.00144369 0.0125655 )  
( 0.00110893 0.00149529 0.0131202 )  
( -0.00187451 -0.00131433 0.0158583 )  
( 0.00293098 -0.00318494 0.0157044 )  
( 0.00140688 -0.0072317 -0.00180389 )  
( 0.0008144 0.00227579 0.0141039 )  
( -0.000334476 0.00171402 0.0131957 )  
( -0.00147254 -0.000426639 0.0143398 )  
( -0.00096282 -0.000654058 0.0130467 )  
( -0.00156059 -0.00287354 0.0106653 )  
( 0.00472165 -0.00207634 0.0154148 )  
( -6.5934e-05 -0.00113703 0.0112442 )  
( 0.000357106 2.14548e-05 0.0128527 )  
( 0.00199518 -0.00103723 0.00636204 )  
( -8.50677e-05 0.00142636 0.0137873 )  
( 6.9009e-05 -5.13508e-05 -2.28038e-05 )  
( -0.000148408 0.00101176 0.01278 )  
( 1.83214e-05 -5.81753e-05 -0.000156397 )  
( 0.00512206 0.0010553 -0.0022654 )  
( -0.00133704 -0.000568986 0.0175931 )  
( 0.000851489 0.000399146 0.0152228 )  
( 7.07505e-06 -0.000337763 1.00006e-05 )  
( 0.00122486 0.00238111 0.0143466 )  
( -0.000104679 -0.000107947 -2.68813e-05 )  
( 1.90687e-05 -0.000229299 0.0139779 )  
( -0.000236499 0.000875145 0.0128355 )  
( -0.00010919 -4.29871e-05 -4.86084e-05 )  
( 0.00202962 0.00188959 0.0113711 )  
( -0.000273479 0.000571 0.0104654 )  
( -0.00154795 -0.00133214 -0.00148142 )  
( 0.000400516 0.000546889 0.0144263 )  
( 0.000422409 0.00052359 0.0125101 )  
( -0.0020839 -0.00342472 0.0126235 )  
( -0.00108436 -1.27915e-05 -0.00236534 )  
( 4.05383e-05 0.0008563 0.0118782 )  
( 0.00379229 0.0015143 0.0117302 )  
( 0.00151138 0.00011476 0.0130214 )  
( 0.000986179 -0.000304828 0.013982 )  
( 2.63888e-05 -2.52171e-05 -3.07567e-05 )  
( -0.00285472 0.000910967 0.011201 )  
( 0.00201903 0.000151116 0.0133414 )  
( -0.000821536 -4.39332e-05 0.00991641 )  
( -0.000544301 -0.00223274 0.0146581 )  
( -7.21326e-05 5.8772e-05 -6.51785e-05 )  
( -1.11653e-05 -1.19554e-05 9.548e-06 )  
( -0.000257911 0.000796432 0.0133156 )  
( -0.00093718 0.00138899 0.0148171 )  
( 0.00100374 0.00152735 0.0134883 )  
( 0.000968347 0.000479753 0.01472 )  
( 0.000599134 -0.000563939 0.0126059 )  
( 0.00111474 0.000210333 5.78921e-05 )  
( 0.00284144 0.00234726 0.0204041 )  
( 0.000380514 -0.0012226 0.0122192 )  
( 0.00085853 0.000392549 0.0149348 )  
( 0.00043415 0.000369903 -4.31721e-06 )  
( 0.000396351 0.00152008 0.0129767 )  
( -0.000127064 -0.0021481 0.0134291 )  
( 0.00065254 -7.56343e-05 0.0125267 )  
( 2.28482e-05 -1.69564e-07 -8.47649e-05 )  
( 6.64469e-05 -9.16885e-05 -0.00010369 )  
( -0.000561905 -0.00374579 0.0137105 )  
( 0.00186384 0.000822445 0.0150218 )  
( -0.000688772 0.000260125 0.0153495 )  
( 0.00147105 0.0005375 0.01528 )  
( -0.00043703 -0.00291495 -0.000444025 )  
( -0.000354665 0.00168444 0.015196 )  
( 2.14313e-05 0.000108792 0.000110374 )  
( -1.22218e-05 8.10746e-06 2.79247e-05 )  
( 0.00169247 0.000830098 0.0136341 )  
( 0.000124 -0.000974501 0.0097624 )  
( -0.000497892 -0.00121987 0.0122425 )  
( 3.22624e-06 -4.06155e-05 1.55588e-05 )  
( 0.00133137 0.0016001 0.0122365 )  
( 0.000951811 -0.00169275 0.0145936 )  
( 0.000578563 0.000937323 0.014589 )  
( 0.00191768 -0.000815427 0.0119334 )  
( 0.000823419 -0.000871902 0.0134012 )  
( -1.71335e-05 0.000157799 0.000156104 )  
( 0.000460791 0.00341055 0.0156491 )  
( -0.000375229 0.00219531 0.0115364 )  
( 0.000598597 -0.00324652 0.0129526 )  
( -0.000239463 -0.000254644 -3.24959e-05 )  
( -0.00012811 0.000617676 -0.000613829 )  
( 0.00235706 -0.00122305 0.0122604 )  
( -0.000191379 -8.66445e-05 0.000272545 )  
( 0.00118893 -0.0020604 0.0129427 )  
( 0.00203053 0.00202273 0.0148824 )  
( 7.0456e-05 -0.000697783 -6.20065e-05 )  
( -9.74236e-06 4.68445e-05 0.000117359 )  
( 0.000643608 0.00223393 0.0130577 )  
( -0.000115545 -5.90566e-06 -0.000160404 )  
( 0.00124759 0.000412065 0.013098 )  
( 0.00115801 0.00283926 0.0145813 )  
( 8.71798e-05 -2.6323e-05 0.011646 )  
( 0.00225322 0.00266004 0.0107856 )  
( -0.00182054 -8.57123e-05 0.015089 )  
( -0.0027123 0.000401131 0.0147486 )  
( 1.00797e-05 -6.66113e-05 2.26161e-05 )  
( -0.00272574 0.0022073 0.0131349 )  
( 0.00107549 0.000287963 0.0150039 )  
( 0.00013249 -0.000114981 0.000207224 )  
( 0.000189539 3.68486e-05 6.80859e-05 )  
( -0.000478945 0.000844089 0.0132972 )  
( 0.00139752 0.00154501 0.0143962 )  
( 0.00179007 0.00146545 0.0117589 )  
( -0.000491911 -0.00193592 0.011531 )  
( 3.57609e-05 -2.85673e-05 7.77074e-05 )  
( -0.000937865 -0.00374539 0.0162443 )  
( 0.00147631 0.000308225 0.0144331 )  
( 0.000476077 0.0020729 0.0161739 )  
( 0.000944832 0.000428421 0.0126165 )  
( -0.000686074 -0.000811244 0.0117258 )  
( 0.000653281 0.000785971 0.013814 )  
( -4.51522e-05 -0.000392443 0.0110155 )  
( 0.000308728 4.65325e-05 -0.000227617 )  
( -0.00182109 -0.000644447 0.014558 )  
( -0.000602169 0.00229062 0.0147027 )  
( -4.16244e-05 -0.00226126 0.0125962 )  
( -1.62007e-05 -4.86115e-05 -4.02348e-05 )  
( 0.000874893 -0.00013521 -0.000247456 )  
( -0.00144557 0.0015182 0.0152667 )  
( 0.00106119 0.00052127 0.01516 )  
( 0.000926257 -0.00150789 0.0134415 )  
( 5.20608e-05 -0.000116338 -6.34554e-05 )  
( 0.00157302 0.0017047 -0.000520292 )  
( 0.000204738 -3.61013e-05 0.014032 )  
( 0.000128195 0.000300173 0.0129123 )  
( 0.00228322 0.00096108 0.0145178 )  
( -0.00130802 -0.000868572 0.0149518 )  
( 0.00257597 0.000700509 0.0191331 )  
( 0.000764178 -0.000144449 0.0131479 )  
( 3.2661e-05 -0.0012773 0.0138117 )  
( 0.000841161 0.00212504 0.0131633 )  
( -8.75479e-05 -0.00231006 0.0114778 )  
( 0.00239801 -0.000330483 0.0125562 )  
( -0.00136903 -0.00163475 0.0188396 )  
( 3.58036e-05 -1.44683e-05 5.75969e-05 )  
( -0.000294589 0.000675728 0.0136725 )  
( -0.000864535 0.00135469 0.0118781 )  
( 0.0012924 0.00218468 0.0121178 )  
( -3.71643e-05 1.36092e-05 -5.9818e-05 )  
( 0.00300382 0.000841642 0.0130371 )  
( 0.000257839 -0.00013297 -1.37698e-05 )  
( -2.13738e-06 -0.000165334 -8.45939e-05 )  
( 0.000821371 -0.00120015 0.0138924 )  
( -1.16595e-05 1.03342e-06 -2.2952e-05 )  
( 0.00112125 0.0014011 0.0147719 )  
( 0.00183011 -6.70461e-05 0.013597 )  
( -0.00024452 2.1513e-05 -7.16916e-05 )  
( 0.00124066 -0.000262719 0.0126145 )  
( -0.000127391 -3.689e-06 1.69036e-05 )  
( 0.00124689 0.000519222 0.0142149 )  
( 0.00254319 0.00112354 0.013212 )  
( 0.0041667 0.00264084 0.0116335 )  
( 0.000191918 -0.000241823 -0.00013608 )  
( 0.00101438 0.000658303 0.0165518 )  
( 0.00123985 0.00218275 0.01245 )  
( -1.39632e-05 -3.19226e-05 5.62244e-06 )  
( -3.49229e-05 -6.69714e-05 -3.70581e-05 )  
( 2.41388e-05 0.000251128 1.57265e-05 )  
( 0.000409491 -5.57045e-05 0.000303705 )  
( 1.71969e-05 -8.13741e-05 -7.12643e-05 )  
( 0.000875636 0.00330015 0.01428 )  
( -0.000773542 0.00044811 0.0155901 )  
( -0.000282049 0.000198802 -0.000166918 )  
( 0.00123141 -0.000570908 0.0153533 )  
( -0.00130517 0.00162245 0.00979101 )  
( 0.00207393 -0.00053149 0.0134128 )  
( 0.000154721 0.00221021 0.0136435 )  
( -4.35735e-05 -5.73854e-05 -6.30326e-05 )  
( 0.00074262 0.00117198 0.0131168 )  
( -0.00188837 0.000279496 0.0123037 )  
( 2.42324e-05 -0.000114145 -0.000178097 )  
( -0.000574039 -0.00082826 0.0130355 )  
( 0.000812198 5.94302e-05 0.0121333 )  
( 9.087e-05 -0.000189669 -1.1937e-05 )  
( -0.000155365 -5.25905e-05 -0.000161069 )  
( -0.00214581 -0.0011173 0.0152709 )  
( 4.96784e-05 0.00278548 0.0126062 )  
( 3.71136e-05 -0.000627112 9.49659e-05 )  
( 0.00189228 0.000732243 0.00987643 )  
( 0.00155047 -0.000713819 0.0144684 )  
( -0.000417579 9.42081e-05 -7.01282e-05 )  
( 0.000427404 0.000449676 0.0145673 )  
( 0.00114812 -0.000822704 -0.000144715 )  
( 0.000106881 0.000604488 -0.000423753 )  
( -0.00208297 0.00839173 0.00855705 )  
( -0.000453803 -0.00148364 0.0128547 )  
( 0.000691043 0.00164302 0.016367 )  
( 0.000631232 2.52198e-05 0.0153385 )  
( 4.70624e-05 -7.99943e-05 -6.31662e-05 )  
( -0.00152337 0.00147802 0.0155181 )  
( 0.00285794 0.00267898 0.0151074 )  
( -0.000417543 -0.000145945 -6.66848e-05 )  
( 0.00020182 -0.000565055 0.0124395 )  
( 0.00163735 0.000835387 0.0116049 )  
( 0.00172845 0.000823992 0.00959644 )  
( -0.00077152 0.00181644 0.0128916 )  
( 0.000143213 -0.000214219 -0.000110125 )  
( 0.00126399 -0.00174173 0.0122187 )  
( 1.05819e-05 4.02851e-05 1.55452e-06 )  
( 0.00226448 -0.0011413 0.00955117 )  
( 3.31308e-05 0.000133071 6.70224e-05 )  
( 0.000455233 -1.92976e-05 0.0166031 )  
( -0.000278497 3.92808e-05 0.0135962 )  
( -0.000146843 -0.000172356 -5.37297e-06 )  
( 0.00201613 -0.000326414 0.0127168 )  
( 5.14496e-05 -0.000279479 -8.10841e-05 )  
( 0.00220469 0.000487331 0.0103833 )  
( 0.000360762 0.000394779 -0.000318221 )  
( -0.00237819 -0.0030643 0.0157751 )  
( 0.00359107 0.00469107 0.0165564 )  
( 0.00120625 -0.000277058 0.0128391 )  
( -0.00230418 0.00194201 0.0112921 )  
( 0.000265899 0.00234379 0.0120488 )  
( 2.98279e-05 2.26784e-05 -1.73545e-05 )  
( 5.32419e-05 -0.000154183 -3.01928e-05 )  
( -0.000153158 -4.94128e-05 -3.15216e-05 )  
( 0.00278693 0.00314692 0.014962 )  
( 0.00348165 0.00164257 0.0133668 )  
( -0.000824231 -0.000434388 0.0127453 )  
( -0.000518632 0.00143118 0.0126949 )  
( 0.000113241 0.000420308 0.0145651 )  
( 0.0010867 0.000444231 0.0140941 )  
( 0.00229165 -0.000697637 0.0139406 )  
( 0.000153456 -0.00110769 0.0113138 )  
( 0.000337862 -0.001982 0.0114438 )  
( 0.000722721 0.00106832 0.0143213 )  
( -5.41293e-05 0.00100487 0.0145264 )  
( -0.00130186 -0.0019299 0.0126194 )  
( 0.000553512 0.00138969 0.0142398 )  
( 0.000910534 0.000564271 0.0140592 )  
( 0.00129657 0.00025137 0.0131397 )  
( -0.0011516 0.000958415 0.0128914 )  
( -0.000207982 -0.000118368 0.0140902 )  
( -0.000536382 0.000538823 0.015018 )  
( 0.000942019 0.000270173 0.0153194 )  
( -0.000532249 0.00205593 0.0137863 )  
( 0.00148546 0.00106383 0.0122768 )  
( 0.00182194 -0.000281863 0.0107251 )  
( 0.00133326 0.00171225 0.0145257 )  
( 0.00094184 8.29612e-05 0.0127723 )  
( -0.00180448 0.000819473 0.0136119 )  
( 0.0016581 0.000140392 0.0144281 )  
( 0.000971599 0.000209963 0.0152467 )  
( -2.10166e-05 -9.75736e-05 -0.000354881 )  
( 4.4204e-05 0.000166066 -6.27043e-05 )  
( 0.00197061 0.00171668 0.0131384 )  
( 0.00056076 0.00209396 0.0139829 )  
( 0.000267473 0.00161704 0.0126985 )  
( 0.00157631 0.0016831 0.00951065 )  
( -0.00128446 -0.000720346 3.06191e-07 )  
( 0.000516882 -8.68069e-05 0.0126338 )  
( -0.00226095 -5.0021e-05 0.0181396 )  
( 0.00176714 0.001053 0.011031 )  
( -0.00128102 -0.00265032 0.0143227 )  
( 0.00155604 -0.000196243 0.014984 )  
( -0.000747506 -8.78608e-05 0.0143197 )  
( -0.000262442 0.000236939 5.00991e-05 )  
( 0.00115671 0.000663562 0.0136603 )  
( -0.000245317 0.00273269 0.0109029 )  
( 0.000433918 0.00253801 0.0129527 )  
( -0.00156015 0.000392339 0.0119375 )  
( 0.00102703 0.00141323 0.0156819 )  
( 0.000418986 -0.000189464 0.0137154 )  
( -0.000835711 -0.000327055 0.0180708 )  
( -6.16348e-05 4.5128e-05 -4.63958e-05 )  
( -0.00049426 -0.0011244 0.0133533 )  
( -0.00235872 -0.00156519 2.58809e-07 )  
( -0.00184627 -0.00100922 0.0178809 )  
( -0.000343942 -0.00150179 0.0121007 )  
( 0.000297778 9.67454e-05 0.0142441 )  
( 2.42309e-05 -0.000370378 -0.00013424 )  
( -2.42943e-05 -0.000431385 -5.93994e-05 )  
( 0.000429857 -0.00011591 0.0128858 )  
( -0.000354326 8.0733e-05 0.0100939 )  
( -1.4486e-05 9.70778e-05 8.53185e-05 )  
( 0.000705487 0.00141869 0.0117606 )  
( 0.00100039 0.000970218 0.0124021 )  
( -0.000187087 -9.48678e-05 -0.00069686 )  
( 0.00177231 -0.00079431 0.0142114 )  
( -0.000275252 -0.000247968 -0.000127984 )  
( -9.50833e-05 -3.09946e-05 3.74018e-05 )  
( 8.8484e-05 0.00266256 0.0109742 )  
( 9.22174e-05 1.0393e-05 -0.000203672 )  
( -5.06057e-05 0.000213125 -0.000104859 )  
( 0.0010817 0.00160139 0.0144663 )  
( -6.63295e-05 -5.38972e-05 -5.77626e-05 )  
( 0.000679316 -0.000430792 0.0128539 )  
( -0.000292073 -9.99658e-05 -0.000110659 )  
( 0.00337045 0.00186883 0.0153601 )  
( 0.000648224 0.0020811 0.0147453 )  
( -0.000687323 0.00322938 0.00649905 )  
( -0.000915822 0.000675474 0.0117446 )  
( 2.24909e-05 0.00247654 0.0138769 )  
( 0.000339944 -0.00184629 0.0134909 )  
( 0.00125497 0.000951723 0.0151018 )  
( -0.00133764 9.05369e-05 0.0153646 )  
( 0.000660211 0.000336771 0.0149585 )  
( -0.00202569 0.00244109 0.0106866 )  
( -6.58435e-05 -5.65334e-05 -7.13116e-06 )  
( 0.00127189 0.000324303 0.014339 )  
( 2.09334e-07 2.10405e-05 -5.48225e-06 )  
( 0.00107393 0.00115894 0.0115977 )  
( -4.46688e-05 2.89113e-05 8.23454e-06 )  
( 0.00123956 0.00197361 0.0135546 )  
( -0.000932846 0.00194563 0.0129494 )  
( -0.000241873 0.00016931 1.87263e-05 )  
( 0.000680126 -0.00024918 7.50219e-05 )  
( 1.08044e-05 2.06566e-05 2.97529e-05 )  
( 0.00193904 -4.47975e-05 0.0129998 )  
( -9.38096e-05 -4.98913e-05 3.32203e-06 )  
( 8.01814e-05 0.000101763 -1.67942e-06 )  
( -0.000541715 0.000832382 -7.17934e-07 )  
( -0.000140234 -0.00144521 0.0121619 )  
( 0.00137027 0.00102468 0.0139706 )  
( 0.00061141 0.000315642 0.0129645 )  
( 0.00210062 -0.000420524 0.0141326 )  
( -0.000480314 -0.00113701 8.77619e-05 )  
( -0.00223006 0.00268934 0.0121353 )  
( 0.000487941 0.00049239 0.0133146 )  
( -0.00365886 0.000214795 0.0137732 )  
( 0.000578713 0.00256925 0.0108998 )  
( 0.00038935 -0.00105847 0.0149721 )  
( 0.000248548 -0.000285427 0.0131716 )  
( 0.00409628 0.000741725 0.0123522 )  
( 0.000596341 -0.00188601 0.0137004 )  
( 0.00120162 0.000192837 0.013701 )  
( 0.00125898 0.00113948 0.0148894 )  
( 0.00173822 -3.40313e-06 0.0148717 )  
( -0.000581355 -0.00142853 0.0131105 )  
( 1.42827e-06 9.85636e-06 3.8305e-05 )  
( 0.00154565 0.000499638 0.0163695 )  
( 0.00116768 0.000454602 0.0137359 )  
( 1.37934e-05 0.00122901 3.98444e-05 )  
( 0.000473134 -0.000470863 0.0119019 )  
( -0.00136319 -0.00544748 0.0144097 )  
( -6.11111e-05 0.00234815 0.0133793 )  
( 0.00123742 0.000497649 0.0144197 )  
( -0.00066595 0.00104497 0.0131997 )  
( -0.00206016 0.000691206 0.0109822 )  
( -8.38268e-05 0.000662094 -0.000405235 )  
( 2.64285e-05 0.000103221 -2.11243e-05 )  
( 0.000351122 2.37412e-05 5.8514e-05 )  
( 0.000294976 0.000403823 0.0149284 )  
( 0.00108225 0.0030613 0.0157857 )  
( -0.000211957 0.000316415 -0.000135708 )  
( 9.99559e-05 0.000597604 0.0131561 )  
( -0.000200473 -6.97193e-05 5.09812e-05 )  
( 0.00299021 0.00050117 0.0154726 )  
( 0.000788212 0.000400874 0.0151121 )  
( 0.000193147 -0.000112479 -0.00042378 )  
( 0.00184313 0.000657667 0.0134431 )  
( 0.00131275 0.00236524 0.0144344 )  
( 0.000336032 0.0013998 0.0136297 )  
( -7.29243e-05 0.000125753 -0.000182709 )  
( 0.000406456 0.00206973 0.0143716 )  
( -8.29315e-05 -0.000155849 -7.76586e-05 )  
( -0.00195214 -0.00111321 0.0134595 )  
( -0.00091673 0.004285 0.0108494 )  
( -2.10587e-05 -0.000153114 5.70996e-05 )  
( -0.0016862 -0.00168144 0.0152377 )  
( 0.000813083 0.000285006 0.012086 )  
( -0.00182416 -0.00297136 0.0120328 )  
( 0.00134916 0.000299083 -0.000495551 )  
( -0.000327231 -8.95938e-05 0.000114396 )  
( -0.000795178 -0.00276353 0.0134853 )  
( 0.00199097 0.00242012 0.0141182 )  
( 0.000569545 0.00119653 0.0146189 )  
( -0.000274603 0.000215237 0.000283524 )  
( -0.000208715 0.00130069 0.0125116 )  
( 0.000127872 0.000948517 0.0139494 )  
( 0.000431652 0.0011174 0.0145599 )  
( 0.00152478 0.00379465 0.0140788 )  
( 8.72441e-05 0.000137356 1.50768e-06 )  
( 0.000291464 0.000334499 -0.00216839 )  
( -0.000136716 -2.36926e-05 -8.02707e-05 )  
( 0.0027925 0.00064048 0.0132971 )  
( -0.00276481 -0.00127472 0.0105082 )  
( 0.000257641 -0.00032415 0.0120623 )  
( 7.25778e-05 0.00176976 0.0128307 )  
( 0.00170493 0.000495784 0.0142173 )  
( -0.00223821 -0.00611299 -0.00049087 )  
( 0.000497838 0.00249478 0.0155885 )  
( 0.00089118 0.000520003 0.0136223 )  
( 0.000852341 -0.000505503 0.0127657 )  
( 0.000472906 -0.00271628 0.0149705 )  
( 0.000250495 0.000725081 0.0146488 )  
( -8.66528e-05 -8.32123e-05 -0.000122373 )  
( 0.00182515 5.79494e-05 0.0123716 )  
( -5.43318e-05 2.41976e-05 -3.61864e-05 )  
( 0.00192371 -0.00106973 0.0119757 )  
( 0.00032288 -0.00114665 0.0113491 )  
( 0.000775527 0.00132478 0.0147822 )  
( 0.000657292 0.00279867 0.0150225 )  
( -0.000567445 0.000914316 0.016277 )  
( 0.000175753 -0.000320145 3.98788e-05 )  
( 0.0033022 0.001078 0.0150626 )  
( 0.00155054 -0.00285639 0.012374 )  
( 0.00203906 0.000417513 0.0128224 )  
( -0.000248196 -0.00021649 -5.64497e-06 )  
( 0.00245318 -0.000834877 0.0135072 )  
( -8.46711e-05 -0.000133411 -2.76393e-05 )  
( 0.00059348 0.00132136 0.0138441 )  
( 0.000681843 0.00181094 0.0131818 )  
( 0.00150975 0.0011054 0.016337 )  
( 0.000469645 0.0013015 0.0088706 )  
( -0.00021533 -0.000151459 -4.63844e-05 )  
( 0.000133245 0.000392603 -5.03448e-05 )  
( 0.00132582 6.87888e-05 0.0126647 )  
( 0.000318702 -0.0016436 0.0129227 )  
( -5.74363e-05 0.00220748 0.0123061 )  
( 0.000893516 -0.000629407 0.00604521 )  
( -0.00106842 0.00193711 0.013283 )  
( 0.000580384 0.000387085 0.0147222 )  
( -0.000160481 2.03777e-05 -2.51416e-05 )  
( 0.00207923 0.000517814 0.0134186 )  
( 0.00119456 -0.000971008 0.014639 )  
( 0.000574177 0.00111228 0.0138718 )  
( -0.000161157 0.000162362 -9.05085e-05 )  
( -0.000531703 -0.000150037 7.36158e-06 )  
( 0.00110523 0.000177113 0.0126743 )  
( 0.000575973 -0.000681104 0.000159124 )  
( 7.09182e-05 0.000310844 0.00977681 )  
( -0.00105232 -0.00244371 0.0103981 )  
( -0.000314114 0.00189529 0.0144131 )  
( 6.92663e-05 -0.000764518 -6.33739e-05 )  
( -0.0010192 -0.000969533 0.0120746 )  
( 0.000694478 0.00103876 0.0119316 )  
( 0.00105923 -0.0012033 0.0128569 )  
( 0.000795832 -0.00042896 0.0095164 )  
( 1.66509e-05 -0.000158059 0.000186444 )  
( -0.000151243 -0.000760225 5.49703e-06 )  
( 0.00145025 -0.0010757 0.0122953 )  
( -0.00493453 0.000779766 0.0157372 )  
( -3.78461e-06 -3.04028e-05 5.67204e-06 )  
( -0.000777757 0.00108593 0.012193 )  
( 0.000551732 0.00150679 0.0124153 )  
( 6.51613e-05 -7.02011e-05 -3.12546e-05 )  
( 0.00122775 -0.0017646 0.0143422 )  
( 0.000680658 0.000905719 0.0132243 )  
( 0.0013268 -0.000509413 0.0124492 )  
( 0.000457047 0.000223707 0.0143994 )  
( 0.000368794 0.000861748 0.0123818 )  
( -0.00119856 -0.00121328 0.0136685 )  
( 5.10088e-05 0.000137498 -0.000401263 )  
( 1.5936e-05 -1.09292e-05 -3.81808e-05 )  
( 0.000965012 -0.000410158 0.0126233 )  
( -1.31924e-05 3.24468e-05 -7.21698e-05 )  
( -0.000220807 -0.00141292 0.0110281 )  
( 0.00134819 0.000348533 0.0135785 )  
( -9.7492e-05 -2.30612e-05 -4.08895e-05 )  
( -0.000211666 -0.000138474 -1.88268e-05 )  
( 0.000484559 -0.000399015 0.0133408 )  
( 0.000136496 -7.62684e-05 -2.06923e-05 )  
( -9.30831e-05 -9.47953e-06 1.3623e-05 )  
( -0.00111319 0.000960982 0.013309 )  
( 2.29219e-05 0.00213173 0.0148573 )  
( -0.000141731 0.00328939 0.0108257 )  
( -0.00154675 -0.00143191 0.011571 )  
( 0.00492935 0.00194843 0.00962739 )  
( 0.00118209 -0.000447282 0.0138668 )  
( 0.000452656 0.00139835 0.0124616 )  
( 0.00015579 -7.169e-05 -0.000241751 )  
( 0.000721495 -7.02213e-05 0.000241234 )  
( 0.00032869 -0.000174145 -0.000191812 )  
( 0.00207403 0.00330675 0.0131623 )  
( -3.94372e-05 1.43862e-05 -1.18001e-05 )  
( -3.74898e-05 -5.93811e-06 3.74138e-05 )  
( -0.000701963 9.88624e-05 -0.000105359 )  
( 8.55447e-05 -2.11239e-05 -0.000139474 )  
( -0.000280558 0.000165693 8.61125e-05 )  
( -0.00047821 0.00220032 0.0135563 )  
( 7.25231e-05 0.000338396 0.0146734 )  
( 0.000681299 -0.000258469 0.0130722 )  
( 0.000396447 -0.000595755 0.015815 )  
( -0.000250413 0.000431553 0.0135421 )  
( 9.51425e-05 0.000214455 -1.40596e-05 )  
( -0.00019277 0.000151288 -4.83855e-06 )  
( 0.00308381 0.000910818 0.0152294 )  
( 0.000189447 -0.000107631 0.000211584 )  
( 0.00158003 0.00143349 0.00921149 )  
( 0.000901022 0.0008987 0.0143241 )  
( 9.21444e-05 -8.26298e-07 -8.56707e-05 )  
( 0.00228303 0.000167888 0.0126197 )  
( -0.0032892 -0.00274366 0.0144577 )  
( 0.00115225 0.000375131 0.0149562 )  
( 0.00108216 0.000424865 0.0152013 )  
( 0.00136286 0.00160747 0.0129579 )  
( 0.000123001 -0.000427438 0.0118405 )  
( 0.00121614 0.000443325 0.0130754 )  
( 0.00013896 0.00300629 0.0111793 )  
( 0.00152408 0.000390749 0.0176544 )  
( -0.00146341 0.000432754 0.000424393 )  
( -0.000279128 0.00227063 0.0123976 )  
( 0.00165518 0.000437688 0.0160486 )  
( 7.64338e-05 0.000813159 0.0127451 )  
( -8.66932e-05 -0.000104351 2.75362e-05 )  
( 0.00106448 0.000635486 0.0144809 )  
( -0.000549166 -6.08361e-05 -0.000375527 )  
( -0.00041115 0.00264008 0.0142834 )  
( -0.000820921 -0.00251412 0.0130631 )  
( 0.000145623 -0.000305592 0.0143103 )  
( 0.000543371 6.67133e-05 0.014725 )  
( 0.000527 -0.000832674 0.0115177 )  