FoamFile
{version 2.0; format ascii;class Cloud<passiveParticle>; location 0;object  positions;}
2473
(
( 0.00166304 0.00581427 0.00560994 ) 0 
( 0.000728282 0.00249059 0.00568008 ) 0 
( 0.0112344 0.00429827 0.00554909 ) 0 
( 0.00400947 0.00516315 0.00560232 ) 0 
( 0.00602493 0.00639968 0.000499848 ) 0 
( 0.00417281 0.00483727 0.00702225 ) 0 
( 0.00840383 0.00317223 0.00425126 ) 0 
( 0.00593842 0.00908524 0.00585117 ) 0 
( 0.00625075 0.00380776 0.0040354 ) 0 
( 0.00463328 0.00102622 0.00885966 ) 0 
( 0.00775962 0.00478973 0.00393832 ) 0 
( 0.00489611 0.0115133 0.00115797 ) 0 
( 0.00854297 0.00275313 0.000499513 ) 0 
( 0.00845949 0.00401143 0.00639777 ) 0 
( 0.00461868 0.0108331 0.00308027 ) 0 
( 0.000847653 0.000487869 0.0063184 ) 0 
( 0.00167066 0.00565054 0.00222951 ) 0 
( 0.00428031 0.000147571 0.00853904 ) 0 
( 0.00371307 0.00017816 0.00771638 ) 0 
( 0.00786551 0.00922982 0.000499622 ) 0 
( 0.00493534 0.00551609 0.00573631 ) 0 
( 0.00921701 0.006424 0.00345362 ) 0 
( 0.011469 0.00499822 0.00336776 ) 0 
( 0.000261897 0.00400573 0.00883511 ) 0 
( 0.00339452 0.00440642 0.00582714 ) 0 
( 0.00351782 0.00602907 0.00569307 ) 0 
( 0.00314776 0.011946 0.00128283 ) 0 
( 0.0120087 0.000554907 0.00299576 ) 0 
( 0.00459659 0.00322994 0.00734637 ) 0 
( 0.00230208 0.00237773 0.00492509 ) 0 
( 0.00713253 0.00577126 0.000499805 ) 0 
( 0.0012414 0.0103951 0.000499769 ) 0 
( 0.00235285 0.00164888 0.00424225 ) 0 
( 0.006492 0.00955189 0.00474505 ) 0 
( 0.00842807 0.010351 0.00527292 ) 0 
( 0.0102512 0.00426194 0.0051582 ) 0 
( 0.00456038 0.0111946 0.00481906 ) 0 
( 0.00936573 0.00546788 0.0042741 ) 0 
( 0.0132481 0.00164665 0.00289272 ) 0 
( 0.00424144 0.00566583 0.00194681 ) 0 
( 0.0104993 0.00674227 0.00328945 ) 0 
( 0.0133312 0.000625024 0.003033 ) 0 
( 0.00687927 0.0104406 0.0061041 ) 0 
( 0.00784203 0.0100675 0.00308269 ) 0 
( 0.00478708 0.0117783 0.00559823 ) 0 
( 0.0113698 0.00405131 0.00306239 ) 0 
( 0.00852655 0.000446758 0.00690349 ) 0 
( 0.00844433 0.00575249 0.00551833 ) 0 
( 0.00173848 0.00623992 0.00467305 ) 0 
( 0.0084625 0.00412565 0.00747588 ) 0 
( 0.0133479 0.000248326 0.00401055 ) 0 
( 0.00561199 0.00626682 0.00156923 ) 0 
( 0.000415066 0.00576279 0.00389145 ) 0 
( 0.012169 0.00189197 0.00640805 ) 0 
( 0.0112958 0.00433553 0.000499831 ) 0 
( 0.00563548 0.00223867 0.00782757 ) 0 
( 0.00155492 0.00104525 0.004291 ) 0 
( 0.000876721 0.00635863 0.00193432 ) 0 
( 0.000825894 0.00720463 0.00791356 ) 0 
( 0.00260091 0.00365967 0.00145609 ) 0 
( 0.00138415 0.00521213 0.00698802 ) 0 
( 0.0108239 0.00239989 0.00199696 ) 0 
( 0.00400219 0.00602723 0.00373928 ) 0 
( 0.00218656 0.010215 0.007223 ) 0 
( 0.0103714 0.00395437 0.00049976 ) 0 
( 0.00883535 0.00382722 0.00548195 ) 0 
( 0.00347205 0.00423113 0.00137682 ) 0 
( 0.00254629 0.00172326 0.00049978 ) 0 
( 0.00543755 0.00753013 0.00671841 ) 0 
( 0.00684418 0.00953193 0.00568055 ) 0 
( 0.0042253 0.00905006 0.00562919 ) 0 
( 0.0111732 0.00242306 0.000499774 ) 0 
( 0.00295339 0.00379034 0.00499606 ) 0 
( 0.0110355 0.00146342 0.00347165 ) 0 
( 0.00681173 0.00462422 0.000499516 ) 0 
( 0.0112188 0.00723666 0.00705369 ) 0 
( 0.00362399 0.00344502 0.00433969 ) 0 
( 0.00548405 0.00346883 0.00125964 ) 0 
( 0.000856777 0.00655182 0.00431833 ) 0 
( 0.00717982 0.00534582 0.00453431 ) 0 
( 0.00241058 0.00142035 0.00746459 ) 0 
( 0.0076153 0.00476357 0.0010777 ) 0 
( 0.0101368 0.00273822 0.00673618 ) 0 
( 0.00495422 0.0114158 0.00215136 ) 0 
( 0.00694274 0.00651998 0.00533504 ) 0 
( 0.0097369 0.0025989 0.00583064 ) 0 
( 0.00406312 0.00262773 0.00674646 ) 0 
( 0.00950759 1.6463e-05 0.00376668 ) 0 
( 0.00594013 0.00189683 0.00597609 ) 0 
( 0.00371202 0.00327982 0.00156824 ) 0 
( 0.011114 0.00333917 0.00217912 ) 0 
( 0.0038629 0.00427602 0.00345758 ) 0 
( 0.00294905 0.00976093 0.00200877 ) 0 
( 0.00912156 0.00187986 0.00751986 ) 0 
( 0.00622582 0.00295204 0.00349476 ) 0 
( 0.00018518 0.00817512 0.00742675 ) 0 
( 0.000447009 0.0133427 0.001366 ) 0 
( 0.013315 0.000966574 0.00192968 ) 0 
( 0.000323887 0.00580801 0.00548714 ) 0 
( 0.000591825 0.00357931 0.00799313 ) 0 
( 0.00611774 0.00969572 0.00370797 ) 0 
( 0.00356634 0.00129458 0.00872711 ) 0 
( 0.000719329 0.00398606 0.000499746 ) 0 
( 0.000601594 0.00117388 0.00456412 ) 0 
( 0.00393211 0.00776638 0.00338238 ) 0 
( 0.00246006 0.00926141 0.00129384 ) 0 
( 0.0133117 0.00101026 0.0047987 ) 0 
( 0.00186655 0.0108795 0.00484058 ) 0 
( 0.000440249 0.00663942 0.00341111 ) 0 
( 0.00140792 0.00291241 0.00508024 ) 0 
( 0.00436894 0.00658231 0.00749084 ) 0 
( 0.0111427 0.000361161 0.00617597 ) 0 
( 0.000933256 0.00411188 0.00362185 ) 0 
( 0.0104568 0.00682128 0.00559015 ) 0 
( 0.00314498 0.00225581 0.00109783 ) 0 
( 0.00503847 0.00394116 0.00049958 ) 0 
( 0.00482006 0.00323739 0.00197042 ) 0 
( 0.00751975 0.00485763 0.00613445 ) 0 
( 0.00146857 0.00560689 0.000499622 ) 0 
( 0.00686536 0.0031127 0.00758331 ) 0 
( 0.0100876 0.00468381 0.00136575 ) 0 
( 0.00986688 0.00633023 0.00420755 ) 0 
( 0.0100525 0.00448842 0.0042048 ) 0 
( 0.00296129 0.0101873 0.00453036 ) 0 
( 0.00918491 0.000396 0.00765426 ) 0 
( 0.000542357 0.0101285 0.0075407 ) 0 
( 0.00831909 0.00854035 0.00203856 ) 0 
( 0.00226411 0.00519049 0.00349137 ) 0 
( 0.0109581 0.00585378 0.00328647 ) 0 
( 0.0088817 0.004732 0.00295021 ) 0 
( 0.00662999 0.00215859 0.00776591 ) 0 
( 0.00562786 0.00984053 0.000499643 ) 0 
( 0.00475452 0.00223939 0.00735511 ) 0 
( 0.00919512 0.00545689 0.00610912 ) 0 
( 0.00182841 0.0125322 0.00303663 ) 0 
( 0.00449627 0.0105703 0.00404063 ) 0 
( 0.00173216 0.00511799 0.00138553 ) 0 
( 0.00144873 0.00350879 0.00423057 ) 0 
( 0.00856651 0.0053256 0.00369055 ) 0 
( 0.00493949 0.00739859 0.00757497 ) 0 
( 0.00440088 0.00688647 0.00569398 ) 0 
( 0.000857547 0.00817111 0.00278851 ) 0 
( 0.00352867 0.00879332 0.00780679 ) 0 
( 0.00442252 0.00640908 0.00286293 ) 0 
( 0.00285559 0.000241456 0.00136787 ) 0 
( 0.00435629 0.00642631 0.00130779 ) 0 
( 0.00624093 0.0110279 0.00385661 ) 0 
( 0.00929029 0.00855064 0.00141789 ) 0 
( 0.00919529 0.00280139 0.00132047 ) 0 
( 0.00599085 0.00672796 0.00470075 ) 0 
( 0.00168547 0.0132422 0.00372623 ) 0 
( 0.00201617 0.0115501 0.00302206 ) 0 
( 0.00873929 0.00258823 0.00350335 ) 0 
( 0.00132703 0.00494097 0.00322501 ) 0 
( 0.00813395 0.00326805 0.00698178 ) 0 
( 0.00296449 0.00901591 0.00515196 ) 0 
( 0.00618491 0.00599566 0.00572585 ) 0 
( 0.00626789 0.00796958 0.00581631 ) 0 
( 0.00133951 0.00181082 0.0048976 ) 0 
( 0.00302601 0.011025 0.0016524 ) 0 
( 0.00117083 0.00800742 0.00741763 ) 0 
( 0.00529504 0.00644779 0.00578232 ) 0 
( 0.00248379 0.00425968 0.00819805 ) 0 
( 0.00484736 0.00764092 0.00416134 ) 0 
( 0.000330457 8.15333e-05 0.00520432 ) 0 
( 0.00448814 0.0010543 0.00182536 ) 0 
( 0.00602148 0.00397355 0.00307634 ) 0 
( 0.00509218 0.00133672 0.00762062 ) 0 
( 0.00716366 0.00806096 0.00528352 ) 0 
( 0.00711813 0.00990716 0.000499616 ) 0 
( 0.00685272 0.0102529 0.00409429 ) 0 
( 2.57146e-05 0.0132957 0.00481614 ) 0 
( 0.00217512 0.00236451 0.00264458 ) 0 
( 0.0103125 0.00293412 0.000499726 ) 0 
( 0.00417142 0.000867579 0.00698868 ) 0 
( 0.00389766 0.0108618 0.00219144 ) 0 
( 0.00260511 0.00468237 0.00116714 ) 0 
( 0.00188046 0.00082825 0.0033706 ) 0 
( 0.0091841 0.00117444 0.00488924 ) 0 
( 7.88589e-05 0.00415792 0.00602794 ) 0 
( 0.00199462 0.00576978 0.00762715 ) 0 
( 0.00275097 0.00523742 0.00578567 ) 0 
( 0.00624952 0.00834682 0.00111797 ) 0 
( 0.003518 0.00119541 0.00372963 ) 0 
( 4.64731e-05 0.00561288 0.00181334 ) 0 
( 0.000490071 0.00820486 0.00379437 ) 0 
( 0.00542801 0.00515336 0.00437544 ) 0 
( 0.00599415 0.00309808 0.00823686 ) 0 
( 0.00267084 0.00236429 0.00587941 ) 0 
( 0.00628231 0.00785574 0.0038414 ) 0 
( 0.00697466 0.00342021 0.00102906 ) 0 
( 0.00436053 0.0125694 0.00409452 ) 0 
( 0.00923119 0.00474123 0.00764873 ) 0 
( 0.0106351 0.00303355 0.00319247 ) 0 
( 0.00811058 0.00812809 0.00372685 ) 0 
( 0.00325762 0.00536975 0.00385373 ) 0 
( 0.00590376 0.0103108 0.00446651 ) 0 
( 0.00682833 0.00897029 0.00212123 ) 0 
( 0.00831273 0.00246672 0.00755223 ) 0 
( 0.00154922 0.00893222 0.00284832 ) 0 
( 0.00852706 0.00594819 0.00290901 ) 0 
( 0.00425211 0.00566179 0.000499622 ) 0 
( 0.00365155 0.00872021 0.000499685 ) 0 
( 0.00772968 0.00906025 0.00285175 ) 0 
( 0.00257459 0.000460776 0.00720806 ) 0 
( 0.00344617 0.0128977 0.00135415 ) 0 
( 0.00179384 0.00874715 0.00825475 ) 0 
( 0.0106113 0.000780984 0.00125057 ) 0 
( 0.0078367 0.0104221 0.00682643 ) 0 
( 0.0069625 0.00229725 0.00366341 ) 0 
( 0.00368244 0.0101998 0.00147369 ) 0 
( 0.01069 0.00244988 0.00556802 ) 0 
( 0.00649689 0.00170158 0.00121726 ) 0 
( 0.00965492 0.00638719 0.00627906 ) 0 
( 0.00232943 0.0108721 0.000499674 ) 0 
( 0.00012062 0.00139658 0.00335119 ) 0 
( 0.000508022 0.012228 0.0026047 ) 0 
( 0.000204176 0.000521782 0.00391852 ) 0 
( 0.000920691 0.000606681 0.000499675 ) 0 
( 0.0101777 0.0032997 0.00406241 ) 0 
( 0.00522667 0.00125674 0.00313312 ) 0 
( 0.00130055 0.0096186 0.00597616 ) 0 
( 0.00300529 0.00834784 0.00130842 ) 0 
( 0.00220812 0.00457696 0.00207873 ) 0 
( 0.00652114 0.00450787 0.00519919 ) 0 
( 0.011109 0.00740411 0.00607444 ) 0 
( 0.0123781 0.000304146 0.0042477 ) 0 
( 0.00876088 0.00750586 0.000499631 ) 0 
( 0.00153936 0.00654119 0.00340509 ) 0 
( 0.00148914 0.00824052 0.00356872 ) 0 
( 0.000412667 0.00303439 0.00049955 ) 0 
( 0.00167324 0.00784032 0.00521222 ) 0 
( 0.00676272 0.00644356 0.00649693 ) 0 
( 0.00151851 0.00750536 0.000499648 ) 0 
( 0.00695833 0.00579494 0.00277878 ) 0 
( 0.00814395 0.00749597 0.00172575 ) 0 
( 0.00276095 0.00984482 0.00649348 ) 0 
( 0.000904168 0.010148 0.00401189 ) 0 
( 0.0104721 0.00499198 0.00344312 ) 0 
( 0.00339675 0.0129098 0.00400065 ) 0 
( 0.00197623 0.00893285 0.00493636 ) 0 
( 0.00754384 0.00279135 0.000499807 ) 0 
( 0.00896975 0.00739255 0.00347838 ) 0 
( 0.00506587 0.00517525 0.00222859 ) 0 
( 0.00919235 0.00749044 0.00140129 ) 0 
( 0.0084487 0.00347237 0.00118745 ) 0 
( 0.00377681 0.0126753 0.00310605 ) 0 
( 0.00836027 0.00509576 0.00049973 ) 0 
( 7.97201e-06 0.00221081 0.00704806 ) 0 
( 0.00314453 0.00233956 0.00426409 ) 0 
( 0.00405703 0.000279775 0.0052048 ) 0 
( 0.0103877 0.000267264 0.00682465 ) 0 
( 0.00840217 0.0082258 0.00109307 ) 0 
( 0.00533877 0.00598017 0.00758749 ) 0 
( 0.00741979 0.00161039 0.00491821 ) 0 
( 0.000426845 0.00216597 0.00804934 ) 0 
( 0.00819391 0.00474675 0.00189302 ) 0 
( 0.00143828 0.00313017 0.00605676 ) 0 
( 0.00349618 0.00529968 0.00644935 ) 0 
( 0.00378314 0.0118132 0.00493174 ) 0 
( 0.0121712 0.00236223 0.000499886 ) 0 
( 0.00165569 0.00786475 0.00654742 ) 0 
( 0.0110423 0.00749602 0.00405806 ) 0 
( 0.00656501 0.00353194 0.00494586 ) 0 
( 0.0020535 0.00980871 0.000499727 ) 0 
( 0.008641 0.0101773 0.00623379 ) 0 
( 0.00730748 0.0089688 0.00488998 ) 0 
( 0.00347039 0.00923215 0.00133916 ) 0 
( 0.000746183 0.00145693 0.00654206 ) 0 
( 0.00612282 0.00699382 0.00565529 ) 0 
( 0.000385 0.00729005 0.0016468 ) 0 
( 0.00204058 0.00691937 0.00534144 ) 0 
( 0.0119775 0.0058874 0.00329539 ) 0 
( 0.00247485 0.0131188 0.00126994 ) 0 
( 0.00214943 0.00636341 0.000499619 ) 0 
( 0.00543175 0.000728188 0.00833724 ) 0 
( 0.0102884 0.0085072 0.00137686 ) 0 
( 0.0016451 0.00611313 0.00134344 ) 0 
( 0.00458404 0.00167489 0.0037751 ) 0 
( 0.00234951 0.00150938 0.00641647 ) 0 
( 0.000293846 0.00154857 0.00148389 ) 0 
( 0.00451632 0.00103364 0.000499877 ) 0 
( 0.00654943 0.0116331 0.00462756 ) 0 
( 0.0105223 0.00496902 0.000499833 ) 0 
( 0.0083091 0.00661407 0.000499537 ) 0 
( 0.0100528 0.00731015 0.00636883 ) 0 
( 0.00640733 0.000357088 0.00299286 ) 0 
( 0.0030762 0.00125712 0.00133055 ) 0 
( 0.00969291 0.00151792 0.0057162 ) 0 
( 0.00554888 0.00937509 0.00446545 ) 0 
( 0.00033762 0.0105961 0.00564273 ) 0 
( 0.00799403 0.00767142 0.0067656 ) 0 
( 0.00235369 0.00311457 0.00645927 ) 0 
( 0.00385354 0.00180426 0.00163994 ) 0 
( 0.00754641 0.00698228 0.00618787 ) 0 
( 0.0035426 0.0082184 0.00214167 ) 0 
( 0.00145138 0.00475658 0.00429832 ) 0 
( 0.00352095 0.0086913 0.00332322 ) 0 
( 0.00482178 0.0067387 0.00661339 ) 0 
( 0.00801336 0.00335014 0.00579245 ) 0 
( 0.00212227 0.000450296 0.00541785 ) 0 
( 0.00625484 0.0104367 0.00305026 ) 0 
( 0.00886258 0.00763367 0.00251387 ) 0 
( 0.00244323 0.00558933 0.00439063 ) 0 
( 0.00368373 0.0108662 0.0055032 ) 0 
( 0.00242598 0.00416207 0.00575968 ) 0 
( 0.00933204 0.00215299 0.00503251 ) 0 
( 0.00504128 0.00159939 0.00119546 ) 0 
( 0.000779541 6.08902e-05 0.00132526 ) 0 
( 0.00505169 0.0049408 0.000499694 ) 0 
( 0.00749605 0.0083699 0.00149033 ) 0 
( 0.000763867 0.00200788 0.0038122 ) 0 
( 0.00643185 0.00881764 0.00406934 ) 0 
( 0.00626444 0.0053313 0.00648837 ) 0 
( 0.00428607 0.00143718 0.00284567 ) 0 
( 0.0128513 0.00361483 0.00227569 ) 0 
( 0.00378487 0.00967758 0.00480854 ) 0 
( 0.0023845 0.00478019 0.00497496 ) 0 
( 0.000586035 0.0112351 0.00269781 ) 0 
( 0.00283514 0.0120929 0.00335968 ) 0 
( 0.00582098 0.000900273 0.00699612 ) 0 
( 0.00182029 0.00326712 0.00333395 ) 0 
( 0.00222462 0.0121902 0.00632505 ) 0 
( 0.00417803 0.00111231 0.00795787 ) 0 
( 0.00988546 0.00897224 0.00666912 ) 0 
( 0.000278147 0.011698 0.00645243 ) 0 
( 0.00309179 0.00903066 0.00416031 ) 0 
( 0.000444607 0.00483353 0.00529781 ) 0 
( 0.00673783 0.00816809 0.00725042 ) 0 
( 0.00571211 0.0120664 0.00265901 ) 0 
( 0.0121603 0.00216487 0.00400994 ) 0 
( 0.00129579 2.05416e-05 0.00218056 ) 0 
( 0.00416121 0.00868136 0.00664398 ) 0 
( 0.00697772 0.00679893 0.000499864 ) 0 
( 0.00465411 0.00227923 0.00570238 ) 0 
( 0.00659075 0.0106263 0.00148205 ) 0 
( 0.00712286 0.000950285 0.0033674 ) 0 
( 0.00387859 0.00397643 0.00049967 ) 0 
( 0.000842237 0.00541815 0.00780229 ) 0 
( 0.00496125 0.00694375 0.0019129 ) 0 
( 0.00277013 0.00462343 0.00657738 ) 0 
( 0.0123824 0.00499011 0.00485909 ) 0 
( 0.010428 0.00172781 0.00049954 ) 0 
( 0.0128239 0.00371191 0.0071469 ) 0 
( 0.00964741 0.00204756 0.00208704 ) 0 
( 0.0124824 0.00461978 0.00667616 ) 0 
( 0.000406085 0.00248838 0.00186191 ) 0 
( 0.00932266 0.000525175 0.00141791 ) 0 
( 0.000327627 0.00492395 0.00325802 ) 0 
( 0.00451544 0.0108391 0.000499853 ) 0 
( 0.000133132 0.00728937 0.00410614 ) 0 
( 0.00191706 0.010407 0.00627951 ) 0 
( 0.00425527 0.00342651 0.00310502 ) 0 
( 0.00837535 0.00525734 0.00765805 ) 0 
( 5.42117e-06 0.000236992 0.00680129 ) 0 
( 0.00775992 0.00106184 0.00672172 ) 0 
( 0.000486369 0.0111306 0.000499681 ) 0 
( 0.00148211 0.00566994 0.00389251 ) 0 
( 0.00654226 0.00801297 0.00208204 ) 0 
( 0.00331657 0.0102765 0.00298408 ) 0 
( 0.00260136 0.00765711 0.00190779 ) 0 
( 0.00890134 0.00653103 0.00130075 ) 0 
( 0.00530826 0.0102611 0.00354578 ) 0 
( 0.00503114 0.0103232 0.00495402 ) 0 
( 0.00288392 0.00618151 0.0065679 ) 0 
( 0.000800305 0.0133262 0.00418351 ) 0 
( 0.00792904 0.00973109 0.0019628 ) 0 
( 0.00304517 0.00471798 0.00308099 ) 0 
( 0.00436736 0.0110956 0.00619582 ) 0 
( 0.00408818 0.0020769 0.0082053 ) 0 
( 0.00832842 0.00674099 0.00561349 ) 0 
( 0.00601982 0.0039856 0.00760554 ) 0 
( 0.00765188 0.000981345 0.00049959 ) 0 
( 0.00171532 0.00395156 0.00508733 ) 0 
( 0.00353651 0.010373 0.000499814 ) 0 
( 0.00087478 0.0128096 0.00333066 ) 0 
( 0.00327397 0.00527407 0.00493413 ) 0 
( 0.00101696 0.00988481 0.00198242 ) 0 
( 0.00857475 0.00913278 0.00338134 ) 0 
( 0.00630776 0.0057815 0.00475598 ) 0 
( 0.00521829 0.0101942 0.00605421 ) 0 
( 0.0042555 0.00936914 0.00331585 ) 0 
( 0.00239927 0.00247945 0.00361229 ) 0 
( 0.00647151 0.0007163 0.00495853 ) 0 
( 0.0019644 0.00958723 0.00209869 ) 0 
( 0.00442282 0.00951837 0.00144306 ) 0 
( 0.00551435 0.000239832 0.00342707 ) 0 
( 0.00206015 0.00272127 0.0013857 ) 0 
( 0.00956406 0.00401072 0.0028319 ) 0 
( 0.00667766 0.0106761 0.0049831 ) 0 
( 0.000273968 0.00914147 0.00718575 ) 0 
( 0.00531277 0.00312588 0.00565307 ) 0 
( 0.00213425 0.00815448 0.00432913 ) 0 
( 0.00196691 0.000711191 0.00148704 ) 0 
( 0.00743792 0.00719313 0.00390081 ) 0 
( 0.00509195 0.0123406 0.00342488 ) 0 
( 0.00832615 0.00416266 0.00468958 ) 0 
( 0.000379633 0.00982669 0.00498414 ) 0 
( 0.00293322 0.00185725 0.00819639 ) 0 
( 0.0111794 0.00571938 0.00187466 ) 0 
( 0.011397 0.00113596 0.00197397 ) 0 
( 0.00849064 0.00174337 0.0067563 ) 0 
( 0.00511963 0.0094286 0.00539158 ) 0 
( 0.00840188 0.00179329 0.00496069 ) 0 
( 0.00345959 0.00773736 0.000499759 ) 0 
( 0.00436445 0.00581335 0.00650144 ) 0 
( 0.0102981 0.00455836 0.00611196 ) 0 
( 0.000867589 0.00744254 0.00477257 ) 0 
( 0.00755872 0.0081105 0.00258953 ) 0 
( 0.0110732 0.00296561 0.00475722 ) 0 
( 0.00773859 0.00992978 0.00588335 ) 0 
( 0.00552427 0.00670134 0.00293048 ) 0 
( 0.000102934 0.00375665 0.00713668 ) 0 
( 0.00396914 0.00319813 0.0081592 ) 0 
( 0.0080128 0.000812019 0.00481399 ) 0 
( 0.00175659 0.000290498 0.00775711 ) 0 
( 0.00171082 0.00210356 0.00577861 ) 0 
( 0.00314283 0.00221134 0.00674752 ) 0 
( 0.00875156 0.000325598 0.000499688 ) 0 
( 0.00985278 0.00900833 0.00433317 ) 0 
( 0.00066279 0.0045716 0.00672592 ) 0 
( 0.00126026 0.00143105 0.00101216 ) 0 
( 0.00882302 0.00261892 0.00223044 ) 0 
( 0.00322356 0.00143711 0.00472599 ) 0 
( 0.00622399 0.00132811 0.00314582 ) 0 
( 0.00717117 0.00966406 0.00666198 ) 0 
( 0.00712364 0.0041983 0.00443376 ) 0 
( 0.00333939 0.00616112 0.00447726 ) 0 
( 0.0119414 0.00203967 0.0017009 ) 0 
( 0.00024472 0.0125021 0.00407484 ) 0 
( 0.000626968 0.0124355 0.00499666 ) 0 
( 0.00888541 0.0030156 0.00614832 ) 0 
( 0.0026995 0.000836782 0.00215588 ) 0 
( 0.013104 0.00229033 0.00192177 ) 0 
( 0.00228697 0.0112525 0.00666627 ) 0 
( 0.00321694 0.00448562 0.00431896 ) 0 
( 0.0054131 0.00940015 0.00137107 ) 0 
( 0.00795866 0.0107186 0.00211736 ) 0 
( 0.0104046 0.0039968 0.00337327 ) 0 
( 0.0102415 0.00197832 0.00737724 ) 0 
( 0.00602775 0.00241348 0.004314 ) 0 
( 0.00338364 0.00256528 0.00765275 ) 0 
( 0.00120687 0.00417166 0.00259757 ) 0 
( 0.0103331 0.00151374 0.00649656 ) 0 
( 0.000975841 0.00559716 0.00475889 ) 0 
( 0.00655731 0.000252959 0.0067938 ) 0 
( 0.00385451 0.00775158 0.00437922 ) 0 
( 0.0132521 0.00146324 0.000499661 ) 0 
( 0.00756543 0.00185162 0.0073026 ) 0 
( 0.00549823 0.000551494 0.00214929 ) 0 
( 0.00552639 0.0031982 0.00467893 ) 0 
( 0.002232 0.0014226 0.00521238 ) 0 
( 0.00101847 0.00908321 0.00518053 ) 0 
( 0.00871642 0.00561952 0.00166757 ) 0 
( 0.00963662 0.000310481 0.0052236 ) 0 
( 0.000831565 0.00166663 0.00270107 ) 0 
( 0.000521742 0.0110538 0.00367906 ) 0 
( 0.00486829 0.00367844 0.00649391 ) 0 
( 0.00273761 0.00671913 0.00805452 ) 0 
( 0.00214576 0.0046796 0.0073564 ) 0 
( 0.00972205 0.00086724 0.00226831 ) 0 
( 0.0118737 0.00372558 0.00165652 ) 0 
( 0.00382008 0.010295 0.00643779 ) 0 
( 0.0104206 0.00405081 0.00206443 ) 0 
( 0.00401516 0.00690609 0.000499694 ) 0 
( 0.00112192 0.00734029 0.00588328 ) 0 
( 0.000413462 0.0116341 0.00744097 ) 0 
( 0.00116681 0.000628903 0.00518352 ) 0 
( 0.0035333 0.0095778 0.00707544 ) 0 
( 0.000228147 0.0065075 0.00724029 ) 0 
( 0.00246708 0.000692194 0.00450994 ) 0 
( 0.0127503 0.0031773 0.000499567 ) 0 
( 0.0132926 0.00123501 0.00382458 ) 0 
( 0.00251442 0.00741147 0.000499774 ) 0 
( 0.00380438 0.000574226 0.00127579 ) 0 
( 0.0129939 0.0030626 0.00422034 ) 0 
( 0.00720977 0.0112336 0.00399153 ) 0 
( 0.00998183 0.00581021 0.000499815 ) 0 
( 0.0043316 0.0100505 0.00561429 ) 0 
( 0.00410168 0.00151587 0.00536828 ) 0 
( 0.0027127 0.0102183 0.0011516 ) 0 
( 0.00934143 0.00953772 0.00163528 ) 0 
( 0.00338518 0.00492435 0.000499768 ) 0 
( 0.00938981 0.00583464 0.00520386 ) 0 
( 0.0122207 0.00224066 0.00734345 ) 0 
( 0.00912696 0.00719335 0.00601015 ) 0 
( 0.00967625 0.00377268 0.001351 ) 0 
( 0.0112142 0.00180602 0.00612486 ) 0 
( 0.000916314 0.0133171 0.00649909 ) 0 
( 0.00727097 0.00932483 0.0012978 ) 0 
( 0.00178858 0.00465818 0.000499631 ) 0 
( 0.0124444 0.00054891 0.00524014 ) 0 
( 0.00282649 0.0111015 0.00501324 ) 0 
( 0.00450177 0.00433649 0.0042251 ) 0 
( 0.00833865 0.00399207 0.00367588 ) 0 
( 0.00683904 0.0114655 0.000999074 ) 0 
( 0.00403083 0.00742277 0.00802928 ) 0 
( 0.0126954 0.00324501 0.00328355 ) 0 
( 0.000432023 0.00165688 0.00049963 ) 0 
( 0.00247816 0.0120207 0.00727696 ) 0 
( 0.00106234 0.00735281 0.00374223 ) 0 
( 0.00297734 0.0038338 0.00359949 ) 0 
( 0.00379531 0.000812624 0.00600945 ) 0 
( 0.00816199 0.00938206 0.0066046 ) 0 
( 0.00653141 1.25346e-05 0.000499862 ) 0 
( 0.0111313 0.0035472 0.00389241 ) 0 
( 0.00521099 0.00343809 0.00339895 ) 0 
( 0.000435743 0.00309356 0.00646643 ) 0 
( 0.011552 0.00274546 0.00346831 ) 0 
( 0.00280733 0.0112479 0.00394952 ) 0 
( 0.00644926 0.00736349 0.00673185 ) 0 
( 0.00629803 0.0027295 0.0054797 ) 0 
( 0.0122555 0.00405498 0.00049973 ) 0 
( 0.00340002 0.0091402 0.00618634 ) 0 
( 0.0115542 4.38785e-05 0.000499632 ) 0 
( 0.00725271 0.0112082 0.00662477 ) 0 
( 0.00439928 0.00788892 0.00608274 ) 0 
( 0.0070523 0.00321342 0.0040994 ) 0 
( 0.00109036 0.00368503 0.00699807 ) 0 
( 0.0111481 0.00162485 0.004452 ) 0 
( 0.00398394 0.00270888 0.00376667 ) 0 
( 0.00267221 0.013079 0.00332865 ) 0 
( 0.000250226 0.000569003 0.00805194 ) 0 
( 0.00144277 0.00489178 0.00529207 ) 0 
( 0.00535205 0.00571688 0.00662268 ) 0 
( 0.00522529 0.00925138 0.00352775 ) 0 
( 0.010864 0.00636316 0.00414165 ) 0 
( 0.0106274 0.00342778 0.00131019 ) 0 
( 0.00745919 0.00144598 0.00136372 ) 0 
( 0.00741502 0.000280492 0.00620235 ) 0 
( 0.00174658 0.00139259 0.00226033 ) 0 
( 0.00324601 0.00626682 0.000499849 ) 0 
( 0.00137717 0.0092899 0.0042111 ) 0 
( 0.00833532 0.00576281 0.0065171 ) 0 
( 0.00720401 0.00813303 0.00414915 ) 0 
( 0.00288436 0.000735868 0.000499503 ) 0 
( 0.00635822 0.00688451 0.00132192 ) 0 
( 0.00122095 0.00900663 0.00747782 ) 0 
( 0.00184865 0.00905456 0.00670083 ) 0 
( 0.00325361 0.00319718 0.0068873 ) 0 
( 0.0019096 0.00743492 0.00315157 ) 0 
( 0.00642763 0.0058642 0.00731828 ) 0 
( 0.00344814 0.00308258 0.000624184 ) 0 
( 0.00310532 0.000579463 0.00527154 ) 0 
( 0.00695816 0.0076438 0.00106224 ) 0 
( 0.00141697 0.0118347 0.0021213 ) 0 
( 0.00898433 0.00587678 0.000499778 ) 0 
( 0.00220218 0.00857606 0.00197466 ) 0 
( 0.0119927 0.00318634 0.00425005 ) 0 
( 0.00192883 0.01279 0.000499689 ) 0 
( 0.0101503 0.00230972 0.0012636 ) 0 
( 0.00682565 0.00477836 0.00335819 ) 0 
( 0.000950864 0.00529871 0.00609059 ) 0 
( 0.0058622 0.0119865 0.00526214 ) 0 
( 0.00406993 0.00208594 0.00454539 ) 0 
( 0.0101462 0.00104255 0.00464834 ) 0 
( 0.00343153 0.006327 0.00296786 ) 0 
( 0.00612745 0.00337726 0.000499828 ) 0 
( 0.00799621 0.000329001 0.00366235 ) 0 
( 0.00675053 0.00880788 0.00636413 ) 0 
( 0.00155823 0.00858879 0.00586513 ) 0 
( 0.0123512 0.000644897 0.00117115 ) 0 
( 0.00493494 0.00561496 0.00122841 ) 0 
( 0.0133216 0.000100828 0.00142946 ) 0 
( 0.0112268 0.00448773 0.0016657 ) 0 
( 0.00549643 0.0110593 0.000499788 ) 0 
( 0.00595237 0.0119495 0.000499876 ) 0 
( 0.00519419 0.0122982 0.0017021 ) 0 
( 0.00301149 0.00952181 0.000499619 ) 0 
( 0.000601107 0.00888294 0.00619374 ) 0 
( 0.00565587 0.00773669 0.00171082 ) 0 
( 0.0117297 0.00637477 0.00714156 ) 0 
( 0.00931482 0.0083438 0.00494913 ) 0 
( 0.00159644 0.00113631 0.00695873 ) 0 
( 0.0114193 0.00519851 0.000989556 ) 0 
( 0.00438751 0.00984754 0.000499705 ) 0 
( 0.000994742 0.000903157 0.00181901 ) 0 
( 0.00381645 0.00867844 0.00475219 ) 0 
( 0.0103023 0.00608022 0.00256645 ) 0 
( 0.0121664 0.00136239 0.00049979 ) 0 
( 0.00367066 0.00235204 0.00586785 ) 0 
( 0.00448469 0.00205285 0.000499575 ) 0 
( 0.00230621 0.0131496 0.00546982 ) 0 
( 0.00160077 0.0123655 0.00761027 ) 0 
( 0.00117195 0.00835793 0.00450963 ) 0 
( 0.00149457 0.013262 0.00140525 ) 0 
( 0.00719918 0.00162982 0.00263749 ) 0 
( 0.000419616 0.00982608 0.00647155 ) 0 
( 0.00491357 0.00153699 0.00475843 ) 0 
( 0.00226605 0.00410262 0.00424898 ) 0 
( 0.0120009 0.00584459 0.00521123 ) 0 
( 0.000740669 0.00816827 0.00547239 ) 0 
( 0.00503867 0.0123562 0.000499882 ) 0 
( 0.00547906 0.00226929 0.00513745 ) 0 
( 0.00794209 0.00612506 0.00473803 ) 0 
( 0.00702708 0.00298272 0.00289715 ) 0 
( 0.00381364 0.00535516 0.00302275 ) 0 
( 0.0120011 0.00309531 0.00257958 ) 0 
( 0.0109178 0.00768312 0.00513387 ) 0 
( 0.00268608 0.00617327 0.0036163 ) 0 
( 0.00123543 0.00233456 0.00662736 ) 0 
( 0.00247581 0.0117782 0.00201276 ) 0 
( 0.008445 0.00516358 0.00471025 ) 0 
( 0.0128026 0.00378476 0.00129162 ) 0 
( 0.00501102 0.00786034 0.000499652 ) 0 
( 0.000539547 0.00312304 0.0046311 ) 0 
( 0.00086529 0.000317138 0.0073051 ) 0 
( 0.00697389 0.00855378 0.00327173 ) 0 
( 0.00850261 0.00875716 0.00536212 ) 0 
( 0.00992611 0.00765499 0.00543889 ) 0 
( 3.06019e-05 0.00896924 0.00537701 ) 0 
( 0.0107987 0.00690601 0.00217094 ) 0 
( 0.00980688 0.00137255 0.00119774 ) 0 
( 0.00364542 0.00596659 0.00717902 ) 0 
( 0.008697 0.00415425 0.000499728 ) 0 
( 0.00500407 0.00059465 0.00650743 ) 0 
( 0.0120582 0.00298497 0.00663596 ) 0 
( 0.00544621 0.0110282 0.00554918 ) 0 
( 0.00905755 0.00453018 0.0041156 ) 0 
( 0.00328063 0.0099587 0.00562478 ) 0 
( 0.00443841 0.00314143 0.000499753 ) 0 
( 0.00846085 0.00920164 0.0013021 ) 0 
( 0.007074 0.0010613 0.00567885 ) 0 
( 0.00779495 0.00622805 0.00721777 ) 0 
( 0.0103969 0.00369514 0.00660939 ) 0 
( 0.00866886 0.00873398 0.00429337 ) 0 
( 0.00834606 0.00731642 0.00430065 ) 0 
( 0.00737865 0.00996422 0.00495146 ) 0 
( 0.000433772 0.00556965 0.00690237 ) 0 
( 0.00722269 0.000530848 0.00426963 ) 0 
( 0.00294786 0.00771413 0.00776872 ) 0 
( 0.00246593 0.00294408 0.000499667 ) 0 
( 0.00589467 0.0119782 0.00395498 ) 0 
( 0.00753598 0.0103691 0.00128148 ) 0 
( 0.00939516 0.00367155 0.00670474 ) 0 
( 0.0110129 0.00585589 0.00606987 ) 0 
( 0.00759969 0.0085913 0.00684532 ) 0 
( 0.0124681 2.19625e-05 0.00194447 ) 0 
( 0.000929545 0.00583914 0.00303739 ) 0 
( 0.0130221 0.00279014 0.00681477 ) 0 
( 0.00106039 0.00712308 0.00694503 ) 0 
( 0.00776354 0.00136958 0.0040106 ) 0 
( 0.00501085 0.00424334 0.00730634 ) 0 
( 0.0066043 0.000990186 0.00191168 ) 0 
( 0.000332746 0.0133326 0.00266836 ) 0 
( 0.000708676 0.00871748 0.000499635 ) 0 
( 0.00692676 0.0024637 0.00474911 ) 0 
( 0.0096712 0.00791917 0.000499789 ) 0 
( 0.00479725 0.00254809 0.00320763 ) 0 
( 0.00806204 0.00738533 0.00305923 ) 0 
( 0.00121283 0.00418247 0.00598707 ) 0 
( 0.00970099 0.000639159 0.000499679 ) 0 
( 0.00161348 0.00346719 0.000499869 ) 0 
( 0.00710627 0.00300603 0.00603783 ) 0 
( 0.00362012 0.00737572 0.00530569 ) 0 
( 0.00800441 0.00814215 0.00474895 ) 0 
( 0.0086267 0.0101885 0.00137986 ) 0 
( 0.0103872 0.00548292 0.00431525 ) 0 
( 0.00686441 0.00148136 0.00657526 ) 0 
( 0.000150867 0.00701894 0.000499866 ) 0 
( 0.00125702 0.0116718 0.00485804 ) 0 
( 0.00842863 0.00477463 0.00572643 ) 0 
( 0.0119175 0.00392113 0.00492398 ) 0 
( 0.00775388 0.0108679 0.00474599 ) 0 
( 8.3279e-05 0.0053399 0.00049956 ) 0 
( 0.0116984 0.00643165 0.00140245 ) 0 
( 0.0107507 0.00239534 0.00395362 ) 0 
( 0.00200187 0.010069 0.00427007 ) 0 
( 0.00490704 0.00902647 0.00216643 ) 0 
( 0.00977576 0.00363944 0.00578063 ) 0 
( 0.0017185 0.00411433 0.00133558 ) 0 
( 0.00616283 0.00741866 0.000499715 ) 0 
( 0.00364425 0.00630308 0.00812006 ) 0 
( 0.00269932 0.00900284 0.00728851 ) 0 
( 0.00110428 0.00296138 0.00121763 ) 0 
( 0.00636056 0.00860956 0.00505227 ) 0 
( 0.000102186 0.00712842 0.00646693 ) 0 
( 0.0113762 0.00527663 0.00433057 ) 0 
( 0.00780427 0.00066934 0.00189036 ) 0 
( 0.00509532 0.00845496 0.0012989 ) 0 
( 0.00226449 0.0106443 0.00336536 ) 0 
( 0.00369788 0.00999445 0.00386427 ) 0 
( 0.00207276 0.0119258 0.00398724 ) 0 
( 0.0109723 0.00594646 0.000499603 ) 0 
( 0.00903598 0.00921956 0.0060909 ) 0 
( 0.00120152 0.00948428 0.00091029 ) 0 
( 0.00597377 0.00862528 0.00320164 ) 0 
( 0.00663186 0.00427478 0.00141876 ) 0 
( 0.00434797 0.00853761 0.00386397 ) 0 
( 0.00652903 0.00675502 0.00358678 ) 0 
( 0.0076785 0.0109209 0.00574308 ) 0 
( 0.00859507 0.00843854 0.00653338 ) 0 
( 0.00963681 0.00552596 0.00331347 ) 0 
( 0.0097831 0.00199464 0.00389075 ) 0 
( 0.00387162 0.00177696 0.0072766 ) 0 
( 0.00115607 0.00657333 0.000499852 ) 0 
( 0.00538175 0.00249958 0.00148247 ) 0 
( 0.011911 0.00382308 0.00611127 ) 0 
( 0.00478061 0.000368487 0.00766932 ) 0 
( 0.00481308 0.00874946 0.00472329 ) 0 
( 0.00582766 0.00870029 0.0019526 ) 0 
( 0.00423655 0.0048407 0.00106991 ) 0 
( 0.00232489 0.011872 0.000499948 ) 0 
( 0.0014593 0.0113709 0.000499731 ) 0 
( 0.00776354 0.00249769 0.00533358 ) 0 
( 0.0102168 0.0075197 0.00123629 ) 0 
( 0.00483284 0.00737263 0.00319729 ) 0 
( 7.95832e-05 0.000908689 0.0022216 ) 0 
( 0.0059704 0.00585611 0.00263651 ) 0 
( 0.00831758 0.000244831 0.00812758 ) 0 
( 0.00562512 0.0104563 0.00128724 ) 0 
( 0.0131606 0.00222098 0.00370671 ) 0 
( 0.0053727 0.00708102 0.00101109 ) 0 
( 0.00152686 0.00651511 0.00810194 ) 0 
( 0.00258307 0.00714406 0.00383154 ) 0 
( 0.00767784 0.00577487 0.00378082 ) 0 
( 0.00353329 0.00831428 0.00563922 ) 0 
( 0.00577679 0.00144994 0.00417631 ) 0 
( 0.0126397 0.00425217 0.00335841 ) 0 
( 0.00335083 0.00822166 0.00700631 ) 0 
( 0.00944639 0.00677795 0.000499773 ) 0 
( 0.00431668 0.00596666 0.00509281 ) 0 
( 0.00376798 0.0118671 0.00597504 ) 0 
( 0.00871772 0.00342683 0.00294231 ) 0 
( 0.00244861 0.00540951 0.000499495 ) 0 
( 0.00392547 0.0111722 0.00124136 ) 0 
( 0.00459904 0.00959477 0.00423415 ) 0 
( 0.000967707 0.0071778 0.00275396 ) 0 
( 0.0026652 0.00573252 0.00229336 ) 0 
( 0.012071 0.00124378 0.00439788 ) 0 
( 0.00373433 0.0110187 0.00350818 ) 0 
( 0.0012335 0.0124252 0.00420118 ) 0 
( 0.000870341 0.00474004 0.00853604 ) 0 
( 0.00545254 0.00834763 0.00537814 ) 0 
( 0.00563811 0.00884027 0.000499742 ) 0 
( 0.00658696 0.00101095 0.000499827 ) 0 
( 0.00636743 0.00482959 0.00426195 ) 0 
( 0.0026314 0.00595264 0.00131859 ) 0 
( 0.0102048 0.00860775 0.00532029 ) 0 
( 0.00294865 0.0130205 0.00737172 ) 0 
( 0.000880967 0.00630463 0.00628238 ) 0 
( 0.00230316 0.00689708 0.00133078 ) 0 
( 0.0123388 0.00506386 0.00285788 ) 0 
( 0.00797164 0.00584269 0.00103882 ) 0 
( 0.0110012 0.00436436 0.00449502 ) 0 
( 0.0091701 0.00853097 0.00284275 ) 0 
( 0.00958878 0.00101626 0.00381879 ) 0 
( 0.00926405 0.00775445 0.00682609 ) 0 
( 0.00313655 0.00344545 0.00592593 ) 0 
( 0.00292855 0.00184782 0.00212356 ) 0 
( 0.00605649 0.00190457 0.00698465 ) 0 
( 0.00997628 0.00887133 0.000499708 ) 0 
( 3.11441e-07 0.00192988 0.00607409 ) 0 