FoamFile
{version 2.0; format ascii;class vectorField; location 0;object  v;}
2473
(
( 0.000726918 -3.98897e-05 0.0150407 )  
( 0.000459041 -0.000979711 0.0157116 )  
( -0.00018912 0.00146923 0.0148559 )  
( 0.00127141 0.000688836 0.0139844 )  
( 0.000501034 -0.00320856 5.28193e-06 )  
( -0.000450038 0.00179 0.0163146 )  
( -0.00158997 7.7985e-05 0.0137929 )  
( 9.3619e-05 0.00232658 0.0151963 )  
( 0.000595376 0.00231441 0.013685 )  
( -0.000751763 -0.000153708 0.0157583 )  
( -0.0010862 0.000640963 0.0117082 )  
( 0.00154832 0.00132502 -0.000591392 )  
( 0.000283823 -4.8862e-05 -4.05651e-06 )  
( -0.00101169 0.00096963 0.0128971 )  
( 0.000240009 0.0020319 0.00988126 )  
( 0.000363777 -0.000867736 0.0157542 )  
( 0.000133516 -0.000396369 9.9738e-05 )  
( -0.000339089 -0.000447741 0.0154745 )  
( -0.000580181 -0.000760334 0.0156158 )  
( -0.000423869 0.000187359 1.12875e-05 )  
( 0.00100806 0.000705101 0.0149794 )  
( -0.000375708 0.00215006 0.0121984 )  
( -0.00180679 -0.000202774 0.011779 )  
( 0.000463053 2.48529e-05 0.0152976 )  
( 0.000691909 0.00188679 0.0130976 )  
( 0.00198309 0.000999387 0.0138529 )  
( -0.00118275 0.000311951 -0.000604697 )  
( -0.00217614 0.00441701 0.0112736 )  
( 0.000201979 0.00110589 0.0155479 )  
( 0.000416678 -0.000448821 0.0145004 )  
( 9.40731e-05 -0.000571515 -0.000119858 )  
( -0.000326676 2.80255e-05 2.39974e-05 )  
( -0.00028913 9.52365e-05 0.0151816 )  
( 8.86759e-05 6.9442e-05 0.0105016 )  
( -0.00183283 0.000989317 0.010708 )  
( -0.000929623 -0.000580312 0.0156487 )  
( 0.00064415 -0.000202814 0.0109009 )  
( -0.000581223 -0.000701602 0.0133874 )  
( -0.000310401 0.00250135 0.0119306 )  
( -0.000171567 -0.00042662 0.000108193 )  
( 0.00174738 0.00121016 0.0129597 )  
( -0.000597358 0.00395533 0.0097178 )  
( -0.000359943 0.00125651 0.0110472 )  
( -0.00122871 -0.00141766 0.0100585 )  
( 0.00110692 -0.000893764 0.0111828 )  
( -0.00153555 -0.000697807 0.0130453 )  
( 0.000353931 0.00245778 0.0157084 )  
( -0.00161234 -1.86054e-05 0.0135235 )  
( 0.00215976 -0.000287245 0.0132495 )  
( -0.000875876 0.00015749 0.0142239 )  
( -3.61492e-06 0.00118065 0.0112824 )  
( 0.000469729 -0.000794712 -0.000499624 )  
( 0.00147035 -0.000231919 0.011877 )  
( -0.00156826 -0.00019759 0.0153661 )  
( -9.8772e-05 -0.000169294 -1.40404e-05 )  
( -0.00119618 0.000156554 0.0157146 )  
( -0.000120255 -0.00164711 0.0149187 )  
( 0.000318429 -0.00071053 0.000776922 )  
( 0.000447041 -0.00102851 0.0149795 )  
( 0.000840676 0.000128966 -0.000149513 )  
( 0.000927238 -0.000727505 0.0146171 )  
( -0.000643316 0.000243734 0.00095631 )  
( 0.000714449 0.000442046 0.0133321 )  
( 0.000669914 -0.000495764 0.0114104 )  
( -2.11279e-05 -0.000316284 2.96693e-06 )  
( -0.00030102 0.000649699 0.0131638 )  
( 0.00154943 0.000733212 0.000285432 )  
( 0.000245765 -0.000717334 2.65789e-05 )  
( -0.00106301 9.44338e-06 0.0134856 )  
( -0.00160551 -0.000550023 0.011085 )  
( 0.00127058 -4.37364e-05 0.0125917 )  
( -5.82697e-05 -0.000768304 4.12051e-05 )  
( 0.00107378 0.00028607 0.0141829 )  
( 0.00133137 0.00298874 0.0120465 )  
( 0.000252181 -0.000328891 4.58552e-05 )  
( -0.000503115 0.000833797 0.00763983 )  
( 0.000987572 -0.000586094 0.014603 )  
( 0.000447972 -0.000231041 -9.70205e-06 )  
( 0.00187304 -0.000902726 0.012941 )  
( 0.00065425 0.000859936 0.0137366 )  
( 0.000412059 0.000200576 0.0156102 )  
( 0.000236411 -0.000346205 -2.43296e-05 )  
( -0.00159805 -0.000377062 0.015505 )  
( 0.00227607 -0.00133583 -0.000874364 )  
( 0.00146958 7.04246e-06 0.0122444 )  
( 0.000467199 -0.00122253 0.014717 )  
( -0.000657015 -0.000399288 0.0139205 )  
( -0.000207375 0.00125524 0.0128531 )  
( -0.000131365 -0.0010818 0.0152958 )  
( -0.00026834 0.0001706 -0.000173172 )  
( -0.00107163 0.000545885 0.00046902 )  
( 0.00152649 -0.000370283 0.0161297 )  
( -0.00056149 -0.000126364 0.00020927 )  
( -0.000862248 0.000899947 0.0150608 )  
( 0.000184403 -0.00146622 0.014147 )  
( 0.000493042 0.000986762 0.0158307 )  
( 0.000257614 8.55967e-07 -9.76646e-05 )  
( -0.000100477 0.000414294 -0.00076359 )  
( 0.00152352 0.000887658 0.0137139 )  
( 0.000193392 0.000228753 0.0151367 )  
( 0.00137248 -0.00204834 0.0110459 )  
( 0.000664421 4.26426e-05 0.0155698 )  
( -0.000169249 -0.000176994 -5.24563e-05 )  
( -5.85701e-05 -0.00125496 0.0150507 )  
( 0.000800594 0.000438114 0.0124688 )  
( -0.000233921 -0.000479592 0.000180206 )  
( -0.000256695 0.00521752 0.0113159 )  
( 0.00352306 -0.00100167 0.0145386 )  
( 0.000757983 0.000552112 0.013211 )  
( 0.000212287 0.000415138 0.0164137 )  
( 0.000272992 -0.000906819 0.0139538 )  
( 0.0011871 0.00321429 0.0153863 )  
( 0.000443587 0.00225608 0.0117965 )  
( -0.00335672 0.000381586 0.0129202 )  
( 0.000107915 0.000122906 -0.000466804 )  
( 0.000320197 -0.000261258 -1.62882e-07 )  
( 0.00061099 -0.000548809 9.41153e-05 )  
( -0.000709538 0.000606026 0.0140384 )  
( 2.34657e-05 -0.00029427 1.50994e-05 )  
( -0.0017344 0.000471002 0.0148464 )  
( 0.001241 0.000389579 -0.000601833 )  
( -0.00100422 -0.000373871 0.010442 )  
( -0.00158894 -0.000360138 0.0157969 )  
( 0.000755592 -0.00222094 0.0126657 )  
( 0.000909698 -0.00111642 0.0155599 )  
( 0.00152307 -0.00303395 0.0140759 )  
( -0.00125777 0.00036343 -0.000171825 )  
( 0.00216423 -0.000222407 0.0127109 )  
( -0.00231152 -0.000502433 0.012769 )  
( 0.000246962 0.00277563 0.0109004 )  
( -0.00123299 0.000490836 0.0150294 )  
( -0.000896153 0.000249374 -3.39118e-05 )  
( -0.00091028 0.00102372 0.0153288 )  
( -0.000794869 -0.000844367 0.0126852 )  
( 0.0021866 0.000101327 0.00947579 )  
( 0.000296177 -0.00136853 0.0117033 )  
( 0.00062629 -0.000400387 5.94977e-05 )  
( 0.00034945 0.0023591 0.0120078 )  
( -0.000325941 0.000358315 0.0124483 )  
( -0.000379755 -0.000365107 0.0138401 )  
( 0.00144291 0.000594932 0.0143951 )  
( -9.9172e-05 -0.000347209 0.0171243 )  
( 0.00122354 -0.001607 0.0144369 )  
( -0.000160619 0.000172048 0.0126104 )  
( 0.000240324 0.000637861 0.000125155 )  
( -0.000192676 -0.000332534 0.000133933 )  
( -0.000453765 0.000780454 0.00966996 )  
( 0.000343043 -0.000875139 -0.000406517 )  
( 0.000558967 -0.0002061 -2.75263e-05 )  
( 0.000773639 0.000201788 0.0125965 )  
( 0.000830944 -0.00101083 0.0100175 )  
( -0.000615153 -0.000530397 0.00987054 )  
( 0.000215245 0.00137409 0.0132644 )  
( 0.00124562 0.00150691 0.0109283 )  
( 0.00251574 0.000749069 0.0145401 )  
( -0.000303517 -0.00164758 0.0136226 )  
( 0.00128125 -1.05071e-05 0.0137643 )  
( 0.00111489 0.000192842 0.0120619 )  
( 0.000333118 -0.00177848 0.0158797 )  
( -0.00120557 0.000267118 -0.000567484 )  
( 0.000248104 -0.00025057 0.0154772 )  
( 0.00153292 0.000475067 0.0149047 )  
( 0.000207646 -0.000809273 0.0149839 )  
( 0.0012397 0.00205443 0.0132652 )  
( -5.04694e-05 0.000551976 0.0139005 )  
( 0.000501562 0.000484212 0.00096126 )  
( 0.00188913 0.0030569 0.013528 )  
( -0.000216766 0.000982965 0.0149946 )  
( -0.000109257 -0.000289781 0.0126879 )  
( -7.81518e-06 8.66914e-05 -4.68832e-05 )  
( -0.000704529 0.000384228 0.0121153 )  
( 0.00348 0.00155183 0.00745915 )  
( 0.00514339 0.000842802 0.0143794 )  
( -0.00012968 -0.000748335 -0.000135245 )  
( -0.000923619 0.000379162 0.0152264 )  
( 0.0022431 -0.000208753 -0.000632989 )  
( 0.00121293 0.000291641 0.000273982 )  
( 0.00168005 0.00100209 0.0149294 )  
( -0.000467644 0.00102063 0.0135676 )  
( 0.00137118 8.47028e-06 0.0142452 )  
( 0.000213834 -0.0011438 0.0143174 )  
( 0.000411502 -0.000588808 0.0140103 )  
( 0.000736588 -0.000231755 -0.000879066 )  
( 0.00400345 -0.000498012 0.0114725 )  
( 0.000137432 -0.00077942 -0.00116295 )  
( 0.000204087 -0.00161096 0.0127713 )  
( 0.000142801 0.000689899 0.0140758 )  
( 8.74839e-05 0.000117554 0.0170182 )  
( -5.26796e-05 -0.00182533 0.0145534 )  
( 0.00148468 -3.54865e-05 0.0101561 )  
( 0.000581256 -0.000670529 0.00014164 )  
( 0.00310236 -0.000224468 0.0102083 )  
( -0.000219828 -0.000212863 0.0132311 )  
( -0.000471341 0.00122122 0.0122273 )  
( 8.97421e-05 -0.00162967 0.013775 )  
( 0.00170501 -0.000728223 0.0124806 )  
( 0.000143089 -0.000221673 0.00921651 )  
( -0.000504049 0.00136051 0.000379928 )  
( -0.00139688 -0.0001296 0.0138916 )  
( 0.00079675 -0.000687488 0.0124631 )  
( 0.00547684 -0.000102073 0.0106165 )  
( -0.000202615 -0.000318894 2.41864e-05 )  
( -0.000282511 -5.2415e-05 0.000107563 )  
( 0.00116117 0.00246106 0.0130755 )  
( -0.000361706 0.000246503 0.0158644 )  
( -5.99183e-05 3.4659e-05 -2.41809e-06 )  
( 0.000360748 -0.0020233 0.0125861 )  
( -2.97193e-05 -0.000941744 0.000395921 )  
( -0.00344382 0.00254239 0.013116 )  
( 0.00137363 0.00099053 0.0177516 )  
( -0.00141456 -9.97054e-05 0.000348482 )  
( 0.000676462 0.000768973 0.0141309 )  
( -0.00116571 -0.000670564 -0.000149475 )  
( 0.000940148 0.000386187 0.0108178 )  
( -0.00040149 -0.000297313 1.25691e-05 )  
( 0.000798263 -0.00106578 0.0140722 )  
( 0.000155081 0.000353651 0.00983532 )  
( -0.000606818 -0.000145317 0.0142116 )  
( 6.88105e-05 0.000247252 6.11987e-06 )  
( -0.00128587 0.00124648 0.0146847 )  
( 0.00231098 -0.000772808 0.0127828 )  
( 0.000742095 -0.00301084 0.0131869 )  
( -9.99834e-05 -0.00072393 -0.000217869 )  
( 0.000166373 -0.00102569 -0.000210186 )  
( -0.000159337 -0.000226718 0.0132165 )  
( -0.00118703 0.00211143 0.00771911 )  
( 0.00109768 -0.000325993 0.0167938 )  
( 4.50798e-05 -4.99973e-05 -1.04862e-05 )  
( 0.00386154 0.00247994 0.0170813 )  
( 0.000427128 -0.000142209 0.0114789 )  
( 0.000283659 -0.000208789 -4.13527e-05 )  
( 0.000101443 -0.00035926 0.0142596 )  
( -0.00146257 0.000107512 0.0180549 )  
( 2.39288e-05 -0.000624147 5.77094e-05 )  
( 0.00350587 0.000371068 0.013402 )  
( 0.00467543 -0.00248216 -0.000584467 )  
( 0.00124781 -0.000366341 0.0118436 )  
( 0.000624424 -0.000455738 0.0109262 )  
( -0.00169361 0.0010874 0.0154313 )  
( 0.00229014 -0.00121739 0.0102397 )  
( 0.000447055 -0.000531592 0.0132636 )  
( 0.000121853 -0.000953208 -3.56059e-05 )  
( -0.000275518 0.00151271 0.0105485 )  
( 0.000528702 0.000424088 -0.000513396 )  
( 3.01862e-05 -2.18827e-05 -3.66798e-06 )  
( 0.000248002 -0.000187914 6.20768e-05 )  
( 0.000814168 -0.000737456 0.00962876 )  
( 0.000165913 -0.00023702 -5.4974e-06 )  
( 0.00108802 0.000392747 0.0156132 )  
( 0.00309639 -0.000803313 0.0157973 )  
( 0.00115896 0.00152618 0.0140738 )  
( 0.00201286 0.00140093 0.016106 )  
( -9.02208e-05 -0.000175658 9.30104e-05 )  
( 0.000432116 -0.00122598 0.0146202 )  
( -0.000416739 2.39601e-05 0.0128013 )  
( 0.000226034 6.17275e-05 0.0153751 )  
( -0.000223849 -0.00187525 2.25915e-05 )  
( -8.78499e-05 -0.000575965 0.0154441 )  
( 0.000754167 0.000574676 0.0135033 )  
( 0.0013615 0.00153156 0.00999597 )  
( -1.03153e-05 -3.31126e-05 2.29449e-05 )  
( 0.0008416 -0.00205582 0.014067 )  
( 0.000359584 -0.00186105 0.00958027 )  
( 9.30641e-05 1.32227e-05 0.0136124 )  
( -0.000272651 -8.41041e-05 2.22474e-05 )  
( -0.0028148 0.00236985 0.0112111 )  
( 0.000472051 0.000138302 0.0139692 )  
( -0.000680511 -0.000328554 0.000301519 )  
( 0.000537322 -0.000940607 0.0152203 )  
( 0.00153132 -9.86194e-05 0.012603 )  
( -0.000404436 0.000314557 1.59697e-05 )  
( 0.00091154 -8.12763e-05 0.0135089 )  
( -0.00100329 0.00268278 0.0110803 )  
( 1.13917e-05 -2.5102e-05 2.19418e-05 )  
( -1.74323e-05 -6.00179e-05 -2.19675e-05 )  
( -0.00107118 0.000586753 0.0153311 )  
( 0.000327263 -0.000325792 -0.00028259 )  
( -0.000161746 -0.000423971 0.000109483 )  
( 0.00159481 -0.000280339 0.0117164 )  
( 0.000253996 -0.00140357 0.014219 )  
( -0.000132101 -0.000177503 1.58796e-05 )  
( -0.00714031 0.00192608 3.32998e-07 )  
( 0.00189074 -0.00116837 0.00995425 )  
( 0.000107274 0.000109089 -4.07532e-05 )  
( 0.000107157 -1.16659e-05 2.13029e-05 )  
( 0.000848819 0.00331423 0.0127584 )  
( 0.00169758 -0.00064253 0.0117214 )  
( -0.000552696 0.000761311 0.000326468 )  
( 0.000735071 0.00291589 0.0152778 )  
( 0.000152193 -0.000385207 0.0113174 )  
( 0.000455185 0.00216556 0.01257 )  
( 0.00142569 0.00364787 0.0142639 )  
( 0.000718424 -0.00129003 0.0142566 )  
( -0.000212201 -7.64336e-06 0.00047279 )  
( 0.000321328 -0.000988272 0.020347 )  
( -0.000359479 -0.000469715 -3.85098e-05 )  
( 0.000669696 0.000232132 0.012674 )  
( -0.000994597 0.00114842 0.0134598 )  
( -1.49997e-06 -1.30963e-05 0.013965 )  
( 0.00018196 0.000286917 0.0131362 )  
( 0.00071448 -0.000337304 0.0151586 )  
( 0.00116812 -0.00127461 0.0112025 )  
( -0.000295724 0.000500955 0.0106508 )  
( 0.00182295 -0.00117381 0.0131707 )  
( 0.000848625 0.00161384 0.0144757 )  
( 0.000674881 0.000276198 0.0140848 )  
( -0.000615838 0.00123056 0.0141032 )  
( -0.000422448 -2.59967e-06 6.08524e-05 )  
( 5.45938e-05 -6.83755e-05 -0.000162928 )  
( -0.000223162 -0.000299534 -3.96653e-05 )  
( -0.000116491 0.000171696 5.72423e-05 )  
( 0.00122158 -0.00048637 0.0130826 )  
( 0.0020979 -0.00053177 0.0111241 )  
( 0.000402606 -0.000203339 0.0152927 )  
( 0.0032809 -0.00101897 0.00928685 )  
( 0.00132588 -0.00447674 -0.00076158 )  
( 0.00301936 0.000923615 0.0138326 )  
( 0.00031161 -0.000129766 0.0140498 )  
( -0.000210677 4.80892e-05 0.0115307 )  
( 0.00223277 -0.000822141 0.0130172 )  
( 0.00102934 -0.00121664 0.0152721 )  
( 0.00586016 -0.000677331 0.0156938 )  
( 0.00208712 0.000553765 0.0116921 )  
( 6.92977e-05 0.000173637 0.0151521 )  
( 0.000484183 -0.000556327 0.0159737 )  
( 0.000596301 0.000977501 0.0126443 )  
( 0.000200375 0.00192634 0.0137582 )  
( 0.000675496 0.000308933 0.0151481 )  
( -0.000840482 -0.000938082 0.0147201 )  
( 0.00050314 9.52694e-06 0.0068295 )  
( -0.00126209 0.00378293 0.0137076 )  
( 0.000556729 0.000896749 -0.000471391 )  
( 0.00113403 -0.000410294 0.0135012 )  
( 0.000991863 -0.00217024 -7.17177e-07 )  
( 0.000213781 0.000524825 0.0142369 )  
( -0.000550063 7.27755e-05 -0.00572761 )  
( 0.00194789 -0.000734386 0.012653 )  
( 0.000519661 0.000185505 -1.34626e-05 )  
( 0.00090545 -0.000547156 0.0146265 )  
( 0.000645661 -0.000752591 -0.000187394 )  
( 0.000373145 -0.00101769 0.0138116 )  
( -0.000596609 0.000698532 0.00950534 )  
( 0.000483577 -0.00110617 9.54816e-05 )  
( -0.000509538 0.00140251 0.0103035 )  
( -0.000481282 0.00016514 -0.000337692 )  
( 9.53355e-05 0.00115584 0.0147592 )  
( 3.39101e-05 0.000445647 0.00015445 )  
( -6.95354e-05 -0.000938767 -0.000286779 )  
( 0.00118591 0.00245973 0.0109564 )  
( -0.00143438 -0.00032347 0.000117508 )  
( -0.000600748 -2.99702e-06 0.0130213 )  
( -0.000494437 -0.000383161 0.01169 )  
( 0.00255873 -0.000326662 0.0172208 )  
( 0.000220179 -0.000130497 0.0130171 )  
( -0.000387299 -0.000772745 0.0159117 )  
( -0.000393587 0.000716006 0.0128535 )  
( -0.000423679 -0.000802317 -6.4624e-06 )  
( 0.00171839 0.000355912 0.0132041 )  
( 0.00190615 0.000736668 -0.000486303 )  
( 0.00173874 -0.000363783 0.0125687 )  
( -0.000260561 -0.000306005 0.000248274 )  
( 3.24322e-05 -0.000232965 -6.5575e-05 )  
( 0.00278501 0.00183705 0.0135296 )  
( 0.00142201 0.000266548 0.0120387 )  
( -0.000125395 0.00102654 0.0144939 )  
( 0.00106015 9.08942e-05 0.0094448 )  
( 0.00125918 -0.000131032 0.000589594 )  
( 0.00270033 0.000152578 0.0123728 )  
( 0.00417364 -0.00174171 0.011776 )  
( -0.00162121 -7.29543e-05 0.0157572 )  
( -0.000861698 -0.000375826 0.0182939 )  
( -0.000158242 0.0012956 0.0143511 )  
( -0.000538625 -0.000103422 -2.31496e-05 )  
( 0.000128717 -0.000201084 0.0141067 )  
( 0.000876642 -0.000559511 -3.82279e-05 )  
( 0.00259509 -0.00259886 0.0112276 )  
( 0.000987535 -0.000767326 0.0141989 )  
( -0.00119815 -0.000726342 -0.00120818 )  
( 0.0012613 0.00209012 0.0130326 )  
( 0.000618529 0.000586083 0.0134738 )  
( 0.000246347 0.000912778 0.0156925 )  
( -0.00141583 0.00184366 0.0119966 )  
( 0.00348742 -0.0020668 0.0150232 )  
( 0.000858987 0.0001545 0.0141895 )  
( -0.00129603 -0.000793796 -0.000267404 )  
( -0.000666995 -0.000330682 -0.000422047 )  
( 0.00231498 -0.00117284 0.0120316 )  
( -0.000107196 0.000380523 -0.000112006 )  
( -0.000365999 0.00195752 0.0136808 )  
( -0.00171419 -0.00109697 0.0126318 )  
( 0.000963813 0.00052285 0.0137551 )  
( -0.000348772 -3.34602e-05 0.0148815 )  
( 0.000487199 0.000322466 0.012918 )  
( -0.000390858 0.000387224 7.49875e-05 )  
( -0.000989192 0.0034632 0.0112346 )  
( 0.00269998 -0.00127197 0.0111955 )  
( -0.00117189 -0.00103264 0.0132991 )  
( -0.000546592 -0.00267694 0.0141707 )  
( 0.000672816 -0.000137669 0.0153671 )  
( 0.000209672 0.000152518 0.000445661 )  
( -0.000773862 -0.000257927 0.000936408 )  
( -0.000615922 0.000761677 0.014689 )  
( 0.000940333 0.00050618 0.0124712 )  
( -0.000671431 0.000637682 0.0148551 )  
( -4.83621e-05 -0.000261273 8.76392e-05 )  
( 0.00100908 0.000676665 0.0151735 )  
( -0.000911433 0.00123097 0.0150008 )  
( 0.00152543 -0.00106609 0.01358 )  
( 0.00192912 0.00308562 0.00894593 )  
( -0.000512 0.00605095 0.0148011 )  
( -0.00211043 0.000794396 0.0102665 )  
( 0.00216636 0.00270142 0.00997384 )  
( 0.00137281 -0.000121616 0.0149931 )  
( -0.000443299 0.000760648 0.0157999 )  
( 0.000321769 0.000465809 0.0148161 )  
( -0.00020281 -0.000393728 0.0158982 )  
( -0.000363245 -0.00118103 0.0159523 )  
( -9.91281e-05 0.000417879 0.0149218 )  
( -2.1439e-05 -9.94022e-05 -1.69079e-05 )  
( -0.000373029 0.000424363 0.00774283 )  
( 0.000695504 -0.000623532 0.0150818 )  
( 0.000705256 0.000691104 0.000127748 )  
( 8.34682e-05 0.000668506 -7.80706e-05 )  
( 0.00106378 -0.00446309 0.0166819 )  
( 0.00227032 -0.000342927 0.0131942 )  
( -0.000932736 0.00117474 0.0113421 )  
( -0.000303053 0.000164334 0.012535 )  
( 0.00083857 -0.00044622 0.0149529 )  
( -0.000182004 0.000386362 0.000262426 )  
( 0.00293255 -0.00125015 0.0114575 )  
( 0.00274064 -0.000880616 0.0118621 )  
( 0.000154574 -0.00040191 0.0130981 )  
( -0.000510104 5.70469e-05 5.49535e-05 )  
( -0.000505973 -0.00062174 1.85453e-06 )  
( -0.000321372 0.000383759 0.0111698 )  
( 0.00146503 -0.00044548 0.0127813 )  
( -0.000753003 -0.00026156 -0.000309529 )  
( -0.000101079 4.156e-05 6.22148e-05 )  
( -0.00320564 0.00113613 0.0177868 )  
( -0.000721373 -0.000269514 0.0159337 )  
( 0.000255824 -0.00172078 0.0142332 )  
( -0.000652915 0.000850063 0.0159401 )  
( 0.000948186 0.0021083 0.010172 )  
( -0.000695902 0.000460295 0.0153766 )  
( 0.00103404 4.62727e-05 0.0135965 )  
( -0.00316338 -0.000985899 0.0163804 )  
( 0.000781801 9.97191e-05 0.0126997 )  
( 5.1673e-05 -1.03249e-05 -9.82878e-06 )  
( -0.00130286 -0.000176309 0.0136221 )  
( -0.00667992 -0.00181201 -0.00304984 )  
( 0.00264397 -0.00013711 0.015563 )  
( -0.00089307 5.51739e-05 0.0160595 )  
( 0.000427252 -0.00162781 0.01235 )  
( -0.000143942 -0.000293068 -0.000241975 )  
( 0.000423288 0.00105053 0.0146394 )  
( 0.000880664 -0.000560124 0.0149503 )  
( 0.0014447 -0.00183811 0.011673 )  
( -0.000761486 0.000566976 0.014611 )  
( -0.000265793 -0.00166097 0.0141709 )  
( 0.000844121 -0.00115089 0.014504 )  
( -0.000387556 -9.83866e-05 -0.000568914 )  
( -0.00052695 -0.00355682 -0.00182705 )  
( 0.00125547 0.000618875 0.0127156 )  
( -0.000713206 -0.000770275 -0.000715542 )  
( -0.000202607 -0.000321465 6.57937e-05 )  
( 0.00150524 -0.00115801 0.0136592 )  
( 5.40884e-05 -0.00115575 0.0127367 )  
( 0.000796767 -0.00066443 0.0147859 )  
( 6.38704e-05 -0.000952499 0.0132331 )  
( 0.000262906 -0.000970372 0.013875 )  
( 0.00270355 0.000229019 0.0150733 )  
( -2.35859e-05 -1.59638e-05 1.53984e-05 )  
( -0.000411622 0.00227276 0.0108552 )  
( 0.000117029 -0.00081888 -6.78954e-05 )  
( 0.000776593 0.00254469 -0.00147068 )  
( -0.00112281 0.00416899 0.0104254 )  
( 0.000199654 -0.0010218 0.00715731 )  
( 3.29116e-05 1.10475e-05 -8.26262e-05 )  
( 0.00188939 -0.000103078 0.0129105 )  
( 0.00235887 -0.00155302 0.0153322 )  
( -0.000446325 -0.000400441 4.54761e-05 )  
( 0.00028599 -0.000252422 -0.000913157 )  
( 0.000320167 -0.000685718 7.671e-05 )  
( -0.00164554 0.000780213 0.0130887 )  
( -0.000128822 -0.00449328 0.0166672 )  
( 0.00184349 0.000632297 0.0114725 )  
( 0.00177114 8.22856e-05 -0.000194724 )  
( -0.00105324 -0.000133649 0.014495 )  
( -0.000244221 -0.000238903 0.0122459 )  
( -0.000457272 8.84527e-05 -7.62748e-05 )  
( 0.00056436 -0.000256614 -2.85046e-05 )  
( -0.00197645 0.00369829 0.0127995 )  
( 0.00132069 0.00332902 0.0126319 )  
( 0.00311926 -0.000508968 0.0149583 )  
( -0.00154108 0.000583786 0.0121789 )  
( -0.00222909 0.00126106 -0.00464419 )  
( 0.000673203 0.00391493 0.016614 )  
( -0.0050379 0.00725336 0.0125627 )  
( 0.000644808 0.000239565 5.82796e-05 )  
( -6.1315e-06 -0.000650636 0.0122249 )  
( -9.727e-05 0.00122957 0.014525 )  
( 0.00104723 -0.000435224 0.0128893 )  
( 0.00157355 -0.000945567 0.0156329 )  
( -0.00305017 0.00318535 0.012694 )  
( -0.00309159 -0.000495717 -4.15565e-07 )  
( -0.00121811 4.99426e-05 0.0136352 )  
( 0.00278603 -0.00128154 0.0157577 )  
( 3.56291e-05 -0.000933607 0.0152944 )  
( -0.000389215 0.000819748 0.0134607 )  
( 6.90736e-06 -0.00228129 0.0150924 )  
( -0.00135185 0.00158734 0.0115283 )  
( -2.92121e-05 0.000308972 0.0144421 )  
( -0.000101818 -0.000148555 4.36812e-05 )  
( 0.00134785 -0.000630434 0.0127461 )  
( -9.7669e-05 -8.16459e-06 7.85036e-05 )  
( -0.00327995 0.00182718 0.0113477 )  
( 0.00147919 -0.000160271 0.013609 )  
( -0.00121915 -0.000292656 0.0131052 )  
( 0.00139338 -0.000601792 0.0150042 )  
( -0.000675764 0.00170756 0.0126342 )  
( 0.000942931 -0.00105747 0.0151159 )  
( 0.00215448 -0.000939717 0.00968886 )  
( 0.000346988 0.000163979 0.0154131 )  
( 0.000518386 3.81179e-05 0.014602 )  
( 0.000679598 -0.000139864 0.015085 )  
( -0.00151599 0.00165916 0.0116934 )  
( -0.00091513 -0.00046052 0.0131676 )  
( 0.000135553 -0.000809714 -0.000319407 )  
( -0.000490778 -0.000131943 3.01818e-05 )  
( 0.000833294 -0.000316673 0.0138684 )  
( -0.000539047 -0.000349878 -0.000321567 )  
( 9.9864e-05 -0.000236076 -4.42078e-07 )  
( -0.000795669 -0.0012707 0.0105754 )  
( 2.85421e-05 0.000732888 0.0134066 )  
( -0.000106329 0.00306904 0.0139847 )  
( 0.000307879 0.000688007 6.80262e-05 )  
( -3.17606e-05 -0.000344255 -0.00082361 )  
( -0.000987462 -0.00167392 0.0134609 )  
( 0.00101195 -0.0017636 0.0147624 )  
( 0.000645494 0.00154982 0.0139867 )  
( 0.00386148 0.000586933 0.0124768 )  
( -0.000188291 -0.00113063 0.0162362 )  
( -0.000205366 0.000451794 -0.000299044 )  
( 0.000665151 -0.000318898 0.0155484 )  
( 0.000701628 -0.000343301 -7.74768e-05 )  
( 0.000390894 -0.00107174 -0.000415435 )  
( 4.88271e-05 -0.000143872 1.8759e-05 )  
( -0.000934421 -0.000354833 -6.37023e-06 )  
( 7.17857e-05 0.000774712 0.0134245 )  
( 9.23846e-05 -6.32206e-05 -1.12829e-05 )  
( 0.000513827 -0.000613427 -3.78222e-05 )  
( 0.000332514 0.000901466 0.0141916 )  
( -0.000257449 0.00142364 0.0160936 )  
( 0.00216913 -0.00267836 0.0109027 )  
( 0.00324096 -0.000553337 0.0152513 )  
( -2.6886e-05 0.00184011 0.0124088 )  
( -0.000190616 0.00206014 0.0133022 )  
( 0.000628807 0.000213621 -2.04431e-05 )  
( -0.00195262 0.00179406 0.0135555 )  
( 0.000588118 -0.000333137 0.0129575 )  
( -0.000946793 -0.00132245 0.0151565 )  
( -0.000806231 1.1801e-05 5.90508e-06 )  
( -0.00022351 -0.000354644 5.72598e-05 )  
( -0.000129628 -1.44136e-05 -3.15243e-05 )  
( -0.000798528 -0.00370367 -0.00413515 )  
( 0.000647518 -0.000634098 -1.99081e-05 )  
( 0.000332479 -0.000281981 -1.13549e-05 )  
( -0.000659127 0.000294161 0.00138622 )  
( -0.000175131 -0.00027251 3.98968e-06 )  
( 0.00378364 -0.00218903 0.0109843 )  
( 0.00274857 0.00084138 -0.00227035 )  
( -0.000618612 0.00114823 0.0289229 )  
( -0.0010497 -0.00116953 0.0130681 )  
( 0.000551607 -0.000299513 0.0156941 )  
( 5.21658e-05 -0.000145065 -0.000170084 )  
( -0.00163309 -0.000223516 -0.000133265 )  
( -0.00110983 0.000340358 -0.000301867 )  
( 7.31754e-05 4.45815e-05 0.0127733 )  
( -0.00253844 0.00164747 0.013653 )  
( -0.00062503 -5.54552e-05 -4.00569e-05 )  
( 8.11857e-05 -0.000961285 0.0148662 )  
( -0.000323494 9.25071e-05 3.20506e-05 )  
( 0.00172488 -0.000338431 0.00901652 )  
( 0.000338895 -0.000582752 0.0134223 )  
( 0.00147817 -0.00139857 0.0120404 )  
( 2.01567e-05 -0.000746623 -5.01326e-05 )  
( 0.00110141 0.000108484 0.0139015 )  
( 0.00210206 -0.00242296 0.0108129 )  
( 0.00410676 -0.00392932 0.015859 )  
( 0.00156141 -0.000483687 0.0134932 )  
( 0.000966665 0.000879196 0.0107224 )  
( 0.000544887 -0.00175133 0.012632 )  
( 2.89148e-05 -0.00056047 -4.41772e-07 )  
( 0.000490915 -0.000532357 0.014522 )  
( -0.00104129 -0.00014511 0.0129203 )  
( -0.000904869 0.00148393 0.0139162 )  
( 0.00181004 0.00119088 0.0124714 )  
( -0.00335068 0.00290879 0.0117212 )  
( -0.00109516 0.00182029 0.00746626 )  
( 0.00115407 -2.55159e-05 0.0142571 )  
( -0.000110814 -0.000281129 0.015734 )  
( -0.00105276 0.000129343 -0.000402045 )  
( 0.000476979 -8.06862e-05 0.0133785 )  
( 3.32618e-05 -8.99766e-05 4.29819e-05 )  
( 9.05367e-05 -0.000606056 6.14882e-08 )  
( 0.000384331 -0.00108342 0.0152935 )  
( -0.000107756 -0.00132803 0.0156004 )  
( 0.00161246 -0.00160272 0.0112662 )  
( 0.000234075 0.00302762 0.0129885 )  
( -0.00308237 0.000522451 0.0119986 )  
( 0.000981434 -0.000890131 0.013052 )  
( 3.26488e-05 -0.000107287 7.42714e-05 )  
( -5.05415e-05 -0.00103738 -0.000223173 )  
( -0.000191668 3.10574e-05 0.013979 )  
( 0.000174533 -0.0002678 3.70707e-05 )  
( -0.000198666 -0.000219437 0.0166914 )  
( -0.000926729 0.000591001 0.015728 )  
( -0.000439236 -0.00239629 0.0114639 )  
( -0.00151481 -0.000454592 0.0133148 )  
( 0.002288 0.000288733 0.0136102 )  
( -1.77071e-05 -0.000134482 6.53626e-05 )  
( 4.3639e-05 -0.000105128 -0.0003411 )  
( 0.00158459 0.00048432 0.0142405 )  
( -4.09213e-05 0.000948874 0.0135674 )  
( -0.00205596 -0.000727402 0.0126599 )  
( 0.000282665 -0.000426647 0.0121373 )  
( -0.000793085 0.000336382 0.0113594 )  
( -0.000114403 0.000557388 0.00949582 )  
( -0.00220569 -0.000876607 0.0157319 )  
( 0.00193368 -0.000546278 0.0131583 )  
( -0.00012225 -0.000761306 0.0149083 )  
( -0.000359366 0.000955602 2.39021e-06 )  
( -0.000494805 0.000263818 0.0123565 )  
( 0.000581027 -0.000159595 -0.000203756 )  
( -0.00135153 0.00022598 0.0138196 )  
( -0.00174034 0.0010524 0.0134715 )  
( 0.00102683 0.000499209 0.0127135 )  
( -5.54914e-05 0.000208072 1.44577e-05 )  
( 0.00463445 0.00369715 0.0140353 )  
( -0.000344229 0.000489034 0.0123656 )  
( 0.00442151 0.000890192 0.0157239 )  
( 0.00100704 -0.000973799 0.0137205 )  
( 0.000186862 7.71154e-05 0.0148446 )  
( -0.000342911 -0.000424452 8.00999e-05 )  
( 0.00263468 -0.00285034 0.012192 )  
( -0.000141398 -1.67923e-05 -1.09385e-06 )  
( 0.000154065 0.000763331 0.0145868 )  
( 1.07308e-05 8.14081e-06 -2.53011e-05 )  
( 0.00176959 0.000126079 0.0156484 )  
( -3.51167e-05 0.00212492 0.0101466 )  
( -1.1132e-05 -0.00214479 0.0155814 )  
( 4.70527e-05 0.000132604 1.62438e-06 )  
( 0.000970227 0.00179786 -9.53248e-09 )  
( 0.000491916 0.000621113 0.0154161 )  
( 0.000969592 -0.0010365 0.0134949 )  
( 0.000348254 0.000183246 0.0133045 )  
( 9.1194e-05 -6.40214e-05 -4.23596e-06 )  
( 0.000326428 0.000911628 0.014081 )  
( -0.00100729 0.000284908 0.0150558 )  
( 0.00110877 -0.00131927 -5.64399e-07 )  
( 0.00194764 -0.00203827 0.0120028 )  
( -0.00102672 -0.000138525 0.0134806 )  
( -0.00213928 0.000804656 0.0131015 )  
( -0.000726909 0.000510805 0.00857926 )  
( 0.000270791 0.000894411 -7.72305e-05 )  
( -1.95594e-05 8.45537e-06 -9.98951e-06 )  
( -0.00109893 0.00286209 0.0143991 )  
( -0.000360623 -0.00107622 0.0128053 )  
( 0.000498115 -0.0012474 -0.00209445 )  
( -0.00019429 0.000286717 0.0143256 )  
( 0.00133466 -0.000555858 -0.000230943 )  
( 0.000376691 0.00095096 -8.32949e-05 )  
( 0.000272955 -0.000447485 0.0141847 )  
( 0.00162909 -0.00166026 0.0120383 )  
( -0.000187549 0.000421621 0.000532741 )  
( 0.000271278 0.000649472 0.0127796 )  
( 0.0011076 -0.000799874 0.0138487 )  
( 0.00156727 -0.00106689 0.0137325 )  
( 9.13384e-05 -2.82672e-05 -0.000275845 )  
( -3.87743e-05 -0.000497737 -0.000252028 )  
( -0.00210484 0.00052132 0.013596 )  
( -0.00111404 0.000556966 0.0142792 )  
( 0.00125402 -0.000159102 0.0105246 )  
( 7.2966e-05 1.48889e-06 1.79827e-05 )  
( -0.00385101 0.00314424 0.0104441 )  
( -0.000545998 0.000194323 0.000142146 )  
( -0.000845164 0.00131967 0.0117541 )  
( 2.41815e-05 -0.00102873 -0.000169236 )  
( -0.000243731 0.000975945 0.0124738 )  
( 0.000871843 0.00531584 0.0124025 )  
( 0.000597689 -0.000410171 0.0109589 )  
( 0.00143316 0.00244211 0.0128207 )  
( -0.0010855 0.00176927 0.0133299 )  
( 2.6602e-06 0.00190447 0.0134959 )  
( -0.000464704 0.00036932 0.0153594 )  
( 0.00353103 -0.00189044 -1.93088e-06 )  
( -0.00035235 -6.58441e-05 -4.96532e-05 )  
( -0.00112416 -0.000186757 0.0146917 )  
( -0.000742673 -0.00108281 0.0161718 )  
( 0.000191256 7.37252e-05 0.0126442 )  
( 0.00146592 0.000488825 -0.000791023 )  
( -0.00048291 -0.000859421 -0.000600283 )  
( -0.000325285 -0.000239489 -2.73235e-05 )  
( -0.000389161 -0.000150112 4.69347e-05 )  
( -0.000361132 -0.000279705 0.0142664 )  
( -4.36024e-05 -0.000127237 -7.44711e-05 )  
( 0.00214668 0.000355536 0.0147337 )  
( -0.000934674 0.000192127 9.26599e-05 )  
( 0.00400755 0.0031167 0.0115884 )  
( 0.000542117 -0.000150887 0.0152106 )  
( -0.00168972 -0.000523467 0.000547286 )  
( -0.000559297 0.00402195 0.0110217 )  
( 0.00131572 -0.000520314 -0.000424102 )  
( 0.00101268 -0.00117134 0.0142743 )  
( 0.000965543 -0.000103659 0.0151731 )  
( 0.000367548 0.00146694 0.0138351 )  
( 0.000754647 -0.00065782 0.012722 )  
( 0.00305629 -0.00128671 0.0133851 )  
( -0.00251503 0.000809862 0.0118647 )  
( 0.00155028 -0.000946581 0.0137322 )  
( 5.56174e-05 -7.49947e-05 -1.27566e-05 )  
( 0.00162526 0.00122026 0.015047 )  
( 0.000650284 -0.00105811 0.0192618 )  
( 0.000125465 0.00120898 0.0112674 )  
( 9.63961e-05 9.6199e-05 9.03117e-05 )  
( -0.00126476 0.000718763 -0.000417437 )  
( -0.000114343 -0.00179869 0.00961085 )  
( 0.000843693 -6.20345e-05 0.0127649 )  
( 0.000156602 -7.69335e-05 6.39626e-05 )  
( -0.00171297 9.96197e-05 0.0107387 )  
( 0.000933118 -8.22512e-05 0.0128935 )  
( 0.00260637 0.000561335 0.0144985 )  
( 0.000684611 -0.000461897 0.0148449 )  