/*--------------------------------*- C++ -*----------------------------------*\
| =========                 |                                                 |
| \\      /  F ield         | OpenFOAM: The Open Source CFD Toolbox           |
|  \\    /   O peration     | Version:  2506                                  |
|   \\  /    A nd           | Website:  www.openfoam.com                      |
|    \\/     M anipulation  |                                                 |
\*---------------------------------------------------------------------------*/
FoamFile
{
    version     2.0;
    format      ascii;
    arch        "LSB;label=32;scalar=64";
    class       surfaceScalarField;
    location    "0.03";
    object      phi;
}
// * * * * * * * * * * * * * * * * * * * * * * * * * * * * * * * * * * * * * //

dimensions      [0 3 -1 0 0 0 0];

oriented        oriented;

internalField   nonuniform List<scalar> 
3120
(
-4.61696e-09
-9.02634e-09
5.20982e-08
3.88541e-09
-1.0706e-09
1.14351e-08
-2.39544e-09
-7.17731e-09
2.21483e-08
-2.20834e-09
1.28686e-08
9.75735e-10
-3.89152e-09
-9.56952e-09
3.51673e-08
-7.62178e-10
6.81248e-10
1.74591e-08
-1.01094e-10
-4.67277e-11
1.46855e-08
1.46527e-09
1.78097e-08
8.0819e-10
2.40914e-09
1.03437e-09
4.70839e-09
-1.50103e-09
-2.22676e-09
2.92289e-08
1.35695e-09
2.758e-09
1.69674e-08
4.85468e-09
2.11928e-08
-1.2023e-09
-5.16768e-10
2.23235e-08
1.89505e-09
2.9323e-09
1.63423e-08
4.11136e-10
1.52936e-09
2.40291e-08
2.39953e-09
2.6731e-08
1.19418e-09
8.94538e-10
3.02883e-10
-1.04039e-08
3.50084e-08
-1.11643e-09
-1.62751e-10
1.33858e-08
8.69227e-09
1.60765e-09
2.14541e-08
-3.81051e-09
3.39885e-08
-4.78921e-09
4.64012e-09
1.52817e-09
1.10965e-08
2.69097e-10
1.09039e-09
2.0577e-08
3.83199e-10
-1.5782e-10
1.63369e-08
-6.67945e-10
1.35483e-08
1.50202e-09
-1.92078e-09
-2.48394e-09
1.37067e-08
-8.82241e-10
-3.96421e-10
2.96771e-08
2.07827e-10
1.55794e-09
1.41615e-08
-3.19565e-11
1.64924e-08
4.27228e-09
-8.01709e-10
2.70562e-08
-2.24972e-09
1.15666e-09
1.28439e-08
1.14357e-09
-1.22893e-09
3.13516e-08
-3.37894e-09
2.78181e-08
1.04552e-09
-3.3935e-09
3.42273e-09
3.06817e-09
1.33756e-08
-7.13744e-10
7.74844e-10
1.53563e-08
3.37903e-09
2.16978e-09
2.34732e-08
3.65832e-09
3.63604e-08
8.05563e-09
-1.51598e-09
1.01556e-09
1.46419e-08
1.84124e-09
2.18456e-10
1.77762e-08
4.03613e-10
9.30472e-10
1.90138e-08
1.73736e-09
1.39081e-08
1.96478e-09
-2.9382e-09
-8.83296e-10
2.05886e-08
1.8853e-09
1.97229e-09
2.30998e-08
1.6492e-09
-1.69539e-09
1.70235e-08
-2.3439e-09
2.24745e-08
-2.51634e-10
2.86127e-10
2.67657e-08
-8.39246e-10
-1.65906e-09
1.49686e-08
1.79273e-09
3.72762e-09
2.40995e-08
1.6996e-10
3.6283e-08
-8.34322e-09
1.26203e-09
3.3831e-09
3.96689e-09
5.07622e-09
-6.05155e-09
-3.2219e-09
3.41595e-08
-5.97172e-09
2.44929e-09
2.03225e-08
4.2499e-09
1.7358e-08
5.19697e-09
-4.85087e-10
-3.57925e-10
2.28334e-08
1.9907e-09
6.39533e-10
1.14389e-08
-9.88161e-10
-1.72465e-09
2.61666e-08
1.3926e-09
1.78661e-08
-2.08892e-09
8.06092e-10
1.5119e-09
1.71225e-08
9.29506e-10
-1.80913e-11
2.3634e-08
2.55221e-09
-1.58343e-09
1.52596e-08
-4.73569e-09
3.52671e-08
-4.11214e-09
-4.26821e-10
2.70061e-08
2.31353e-09
-6.2306e-10
1.25763e-08
2.57048e-09
3.70114e-10
2.1233e-08
2.89865e-10
3.57052e-08
-2.36013e-09
-1.42771e-09
-9.06788e-09
-2.89094e-09
3.41579e-08
-3.79466e-09
-9.88912e-11
3.64504e-08
3.29079e-10
-4.15228e-11
1.50588e-08
-1.26321e-09
1.92016e-08
-4.65857e-10
-4.91536e-10
-3.83432e-09
2.75589e-08
-1.16295e-09
-4.17165e-09
1.61831e-08
8.9003e-12
-2.07318e-09
2.70264e-08
-3.90035e-09
1.92766e-08
1.23554e-09
-9.12745e-10
3.07793e-09
1.06134e-08
2.18441e-09
8.53147e-10
1.5512e-08
-1.36365e-09
-3.65123e-10
1.70996e-08
-2.3667e-09
3.36486e-08
-1.27882e-09
-2.56812e-09
3.06786e-08
3.26744e-09
2.87155e-10
8.29782e-09
2.27633e-09
-1.71444e-09
2.21208e-08
7.48723e-10
3.32032e-08
-9.39063e-10
-6.40057e-10
2.80882e-09
9.60027e-09
1.97719e-08
5.58467e-09
6.06272e-09
2.28533e-08
3.27132e-09
2.57355e-09
1.04394e-08
2.99497e-09
1.84517e-08
-1.93199e-10
6.02054e-09
2.86889e-09
2.65434e-08
1.70063e-09
-4.71501e-10
2.70372e-08
1.90532e-09
-7.10934e-10
3.01062e-08
-2.08504e-09
2.78272e-08
-1.56531e-09
8.79655e-11
-2.45155e-09
1.69141e-08
1.03551e-09
8.88196e-10
1.32048e-08
1.11635e-09
-2.01915e-09
1.83269e-08
-3.23488e-09
3.50557e-08
8.5905e-10
7.24684e-09
1.18623e-08
3.81012e-09
-3.19023e-09
2.13837e-08
-1.76061e-09
-1.07408e-09
1.6301e-08
1.68448e-09
2.73564e-08
3.1884e-09
-1.65057e-09
3.48623e-10
-7.72911e-10
2.01143e-08
5.48861e-10
-6.57069e-10
2.09186e-08
-9.28764e-10
-4.59372e-10
1.57171e-08
-5.07615e-10
2.06704e-08
-2.31398e-09
2.65166e-10
2.27347e-10
2.47309e-08
-4.26948e-10
1.15163e-09
2.59206e-08
3.81135e-10
1.18671e-09
2.76518e-08
-1.89942e-09
2.8941e-08
6.58947e-10
-3.51418e-09
4.3477e-10
1.94291e-08
-4.11583e-09
-5.49103e-10
1.55071e-08
-2.22645e-09
-2.95711e-09
2.05813e-08
-3.15139e-10
3.55254e-08
-4.28049e-09
-3.40655e-09
1.42017e-08
2.1762e-10
9.31379e-10
1.57358e-08
7.60881e-10
-1.03255e-09
1.6419e-08
-1.11123e-09
3.06582e-08
3.55178e-11
-4.68495e-09
-3.25653e-09
-3.08864e-09
2.33895e-08
-4.81051e-09
-2.21998e-09
2.34209e-08
-4.03479e-09
6.33975e-10
1.80277e-08
-1.16832e-09
2.19063e-08
-3.35473e-09
-3.14761e-09
-2.27582e-09
2.65081e-08
-5.43915e-09
-6.76307e-10
2.66681e-08
-4.21763e-09
1.25804e-09
2.58058e-08
-5.58369e-10
2.54976e-08
-1.38454e-09
-2.32772e-09
-1.81088e-09
2.04941e-08
-5.92e-09
-3.91538e-11
1.84621e-08
-7.5433e-09
1.21878e-09
2.22437e-08
-3.40169e-10
3.28496e-08
-5.08592e-09
-1.12526e-09
9.45227e-09
1.43382e-09
-3.11722e-09
1.44511e-08
3.23741e-09
-7.8125e-09
2.03316e-08
2.00144e-09
3.20447e-08
-1.8915e-09
-7.64781e-09
8.11386e-10
2.62646e-09
2.39854e-08
9.68304e-10
7.16331e-10
2.34939e-08
-1.39919e-09
-6.26185e-10
2.19051e-08
-2.03666e-09
2.28098e-08
-1.14353e-09
-1.39478e-09
3.50658e-09
2.39661e-08
-1.49824e-09
3.05238e-09
2.44352e-08
-1.11808e-09
5.34944e-10
2.42643e-08
-2.67377e-09
2.4425e-08
5.91476e-10
-1.56115e-09
3.66426e-09
2.14851e-08
-4.23357e-09
2.6772e-09
2.15097e-08
-5.71967e-09
1.14242e-09
2.31223e-08
-1.18087e-09
2.65013e-08
-8.64473e-10
-3.60714e-09
1.84034e-08
-1.43231e-09
-6.3073e-09
2.00301e-08
-2.01602e-10
-7.92041e-09
2.26233e-08
4.63887e-10
2.58769e-08
-3.65775e-11
-2.89711e-09
-5.46272e-11
8.88355e-10
2.33104e-08
1.70317e-10
3.55809e-10
2.30982e-08
-3.79391e-10
-5.27184e-11
2.25683e-08
-4.95682e-10
2.28087e-08
-3.40347e-10
-8.22981e-10
1.30767e-09
2.30155e-08
-5.81721e-10
1.2646e-09
2.32853e-08
-2.17993e-10
6.18612e-10
2.32292e-08
-9.57399e-11
2.33443e-08
4.62758e-10
-7.87265e-10
9.78853e-10
2.21239e-08
-1.32122e-09
9.69248e-10
2.2339e-08
-1.26269e-09
8.26117e-10
2.28562e-08
6.31332e-10
2.3763e-08
7.48526e-10
-1.12306e-09
2.12037e-08
-8.48e-10
-1.60421e-09
2.1781e-08
-3.00422e-10
-1.14803e-09
2.25915e-08
4.01776e-10
2.33371e-08
7.67609e-10
1.25537e-09
-5.50206e-11
3.43232e-10
2.28586e-08
8.23836e-11
1.45904e-10
2.28272e-08
-6.49496e-11
-2.63341e-11
2.26719e-08
-1.73614e-10
2.27385e-08
-6.70897e-11
-3.26392e-10
4.55748e-10
2.27102e-08
-1.69631e-10
4.25313e-10
2.28492e-08
-2.87057e-11
2.25058e-10
2.2837e-08
2.66328e-11
2.28871e-08
2.2833e-10
-3.13716e-10
2.49315e-10
2.24211e-08
-3.61233e-10
2.56893e-10
2.2555e-08
-2.16108e-10
2.38867e-10
2.26974e-08
1.77178e-10
2.29122e-08
4.84101e-10
-3.47997e-10
2.2162e-08
-4.24908e-10
-3.86275e-10
2.23618e-08
-2.85664e-10
-8.66983e-11
2.25337e-08
-2.88892e-12
2.26163e-08
7.06633e-11
7.40494e-10
-2.23617e-11
1.26887e-10
2.2671e-08
4.8617e-11
7.65723e-11
2.26828e-08
1.48855e-11
4.28667e-11
2.26344e-08
4.74567e-11
2.26395e-08
4.73526e-12
-9.08684e-11
1.45455e-10
2.26111e-08
5.66108e-12
1.58656e-10
2.26706e-08
6.72705e-11
1.57533e-10
2.26607e-08
1.86251e-10
2.26585e-08
1.57074e-10
-5.21437e-11
3.63094e-11
2.2517e-08
8.42409e-12
7.93548e-11
2.25738e-08
1.18075e-10
1.54808e-10
2.25905e-08
2.54914e-10
2.25983e-08
3.63334e-10
1.24435e-11
2.24338e-08
-2.3148e-10
1.10146e-10
2.24946e-08
-1.51046e-10
2.99333e-10
2.24873e-08
1.20626e-11
2.24051e-08
1.31271e-10
6.34256e-10
4.45459e-13
4.20206e-11
2.26054e-08
3.34419e-11
3.28031e-11
2.26157e-08
2.64046e-11
3.24023e-11
2.25983e-08
5.09784e-11
2.25872e-08
1.88744e-11
-9.90399e-12
3.94335e-11
2.25821e-08
3.46331e-11
5.46925e-11
2.26041e-08
5.96667e-11
7.43317e-11
2.25938e-08
1.09052e-10
2.2574e-08
8.61287e-11
1.67656e-11
-1.27732e-11
2.25506e-08
5.9635e-11
1.78055e-11
2.25678e-08
1.0496e-10
6.49746e-11
2.25546e-08
1.16765e-10
2.25184e-08
1.77144e-10
5.80316e-11
2.25202e-08
-1.14001e-10
1.22793e-10
2.2527e-08
-7.93543e-11
1.95709e-10
2.24868e-08
-7.39132e-12
2.23938e-08
2.98739e-11
2.93879e-10
1.60758e-11
1.18328e-11
2.25827e-08
2.86937e-11
1.37733e-11
2.25859e-08
2.66743e-11
2.10521e-11
2.25765e-08
3.74944e-11
2.25611e-08
2.05882e-11
1.81451e-11
7.3341e-12
2.25733e-08
3.74139e-11
2.0056e-11
2.25784e-08
4.69145e-11
3.75181e-11
2.25678e-08
6.22747e-11
2.25439e-08
5.21891e-11
3.37245e-11
-1.55069e-11
2.25613e-08
5.72897e-11
2.88568e-12
2.25614e-08
7.54485e-11
3.14335e-11
2.25425e-08
6.158e-11
2.25007e-08
9.39028e-11
5.93118e-11
2.25444e-08
-5.54443e-11
9.34048e-11
2.25345e-08
-3.87563e-11
1.22572e-10
2.24939e-08
-4.8147e-12
2.24114e-08
1.36031e-11
1.5301e-10
2.04373e-11
1.48464e-12
2.25744e-08
2.44334e-11
4.83297e-12
2.25736e-08
2.24422e-11
1.14636e-11
2.25662e-08
2.17612e-11
2.25499e-08
1.79099e-11
2.39598e-11
-1.24382e-12
2.25705e-08
3.15344e-11
6.61e-12
2.2569e-08
3.44438e-11
1.76107e-11
2.25587e-08
3.16885e-11
2.25352e-08
3.33144e-11
3.27188e-11
-1.11892e-11
2.25643e-08
4.36102e-11
-1.86808e-12
2.25589e-08
4.97186e-11
1.34855e-11
2.25405e-08
2.89928e-11
2.25013e-08
5.18823e-11
4.65739e-11
2.25507e-08
-2.79107e-11
6.19193e-11
2.25372e-08
-1.99251e-11
7.20987e-11
2.25018e-08
-4.62872e-12
2.243e-08
3.86161e-12
7.85896e-11
1.96131e-11
-1.67518e-12
2.25714e-08
2.0222e-11
8.86879e-13
2.2569e-08
1.82613e-11
5.24674e-12
2.25622e-08
1.13269e-11
2.25459e-08
1.46536e-11
2.2235e-11
-3.07163e-12
2.25695e-08
2.47574e-11
1.43226e-12
2.2566e-08
2.48143e-11
7.60359e-12
2.25564e-08
1.5046e-11
2.25339e-08
2.23965e-11
2.70361e-11
-7.60911e-12
2.2565e-08
3.1328e-11
-2.28807e-12
2.25584e-08
3.2791e-11
4.94236e-12
2.25418e-08
1.27971e-11
2.25055e-08
3.08592e-11
3.38475e-11
2.2552e-08
-1.46937e-11
4.05517e-11
2.25389e-08
-1.07003e-11
4.3473e-11
2.25078e-08
-4.07262e-12
2.24429e-08
3.94511e-13
4.29754e-11
1.66775e-11
-2.35156e-12
2.25705e-08
1.61496e-11
-7.04412e-13
2.25676e-08
1.43185e-11
1.86711e-12
2.25612e-08
5.09591e-12
2.25451e-08
1.15955e-11
1.82519e-11
-2.94778e-12
2.25693e-08
1.87882e-11
-5.67998e-13
2.25654e-08
1.78908e-11
2.7206e-12
2.25564e-08
6.46505e-12
2.2535e-08
1.5499e-11
2.07634e-11
-4.99965e-12
2.25652e-08
2.22655e-11
-2.3985e-12
2.25587e-08
2.19644e-11
1.14054e-12
2.25436e-08
4.95931e-12
2.25096e-08
1.94845e-11
2.40268e-11
2.2552e-08
-8.11701e-12
2.66401e-11
2.25401e-08
-6.25766e-12
2.68091e-11
2.2512e-08
-3.31243e-12
2.24512e-08
-1.35932e-12
2.47796e-11
1.32375e-11
-2.19646e-12
2.25703e-08
1.24622e-11
-1.28363e-12
2.25674e-08
1.09469e-11
1.5971e-13
2.25613e-08
1.96092e-12
2.25456e-08
8.88683e-12
1.41221e-11
-2.4377e-12
2.25693e-08
1.3925e-11
-1.24353e-12
2.25656e-08
1.28253e-11
4.60873e-13
2.25572e-08
2.31513e-12
2.25366e-08
1.0913e-11
1.53699e-11
-3.3552e-12
2.25653e-08
1.56959e-11
-2.16785e-12
2.25593e-08
1.48996e-11
-4.29046e-13
2.25453e-08
1.34114e-12
2.25127e-08
1.28023e-11
1.68611e-11
2.25518e-08
-4.70105e-12
1.77186e-11
2.2541e-08
-3.96807e-12
1.70806e-11
2.25148e-08
-2.66944e-12
2.24563e-08
-1.69988e-12
1.50043e-11
1.0008e-11
-1.87524e-12
2.25703e-08
9.28982e-12
-1.38656e-12
2.25677e-08
8.11608e-12
-5.89239e-13
2.25619e-08
3.79986e-13
2.25465e-08
6.62488e-12
1.05002e-11
-1.96268e-12
2.25694e-08
1.00948e-11
-1.37714e-12
2.2566e-08
9.12e-12
-5.15088e-13
2.25581e-08
4.09059e-13
2.25381e-08
7.67814e-12
1.1107e-11
-2.35227e-12
2.25654e-08
1.09833e-11
-1.82612e-12
2.25599e-08
1.01673e-11
-1.03815e-12
2.25467e-08
-1.79113e-13
2.25149e-08
8.60714e-12
1.1763e-11
2.25517e-08
-2.89414e-12
1.19312e-11
2.25416e-08
-2.66671e-12
1.11634e-11
2.25166e-08
-2.14394e-12
2.24595e-08
-1.64302e-12
9.44947e-12
7.23712e-12
-1.57707e-12
2.25703e-08
6.66547e-12
-1.30195e-12
2.25679e-08
5.80874e-12
-8.48228e-13
2.25625e-08
-3.07179e-13
2.25474e-08
4.76716e-12
7.52919e-12
-1.59734e-12
2.25694e-08
7.12435e-12
-1.30134e-12
2.25663e-08
6.36568e-12
-8.64068e-13
2.25589e-08
-3.86851e-13
2.25393e-08
5.33541e-12
7.83219e-12
-1.73119e-12
2.25653e-08
7.57454e-12
-1.50645e-12
2.25603e-08
6.88552e-12
-1.14608e-12
2.25476e-08
-7.48933e-13
2.25164e-08
5.79849e-12
8.12023e-12
2.25515e-08
-1.90546e-12
8.00186e-12
2.2542e-08
-1.87511e-12
7.3373e-12
2.25178e-08
-1.6894e-12
2.24614e-08
-1.43017e-12
6.08364e-12
4.96109e-12
-1.30734e-12
2.25702e-08
4.55571e-12
-1.1272e-12
2.25681e-08
3.96765e-12
-8.40496e-13
2.25629e-08
-5.28455e-13
2.2548e-08
3.27502e-12
5.16925e-12
-1.29238e-12
2.25693e-08
4.83752e-12
-1.12344e-12
2.25665e-08
4.29745e-12
-8.83821e-13
2.25594e-08
-6.23277e-13
2.25401e-08
3.59841e-12
5.33902e-12
-1.30152e-12
2.25653e-08
5.08318e-12
-1.20048e-12
2.25606e-08
4.57697e-12
-1.02754e-12
2.25483e-08
-8.28555e-13
2.25175e-08
3.8418e-12
5.47295e-12
2.25514e-08
-1.30958e-12
5.28361e-12
2.25423e-08
-1.33697e-12
4.77511e-12
2.25186e-08
-1.28124e-12
2.24626e-08
-1.14536e-12
3.91264e-12
3.19025e-12
-9.85977e-13
2.25701e-08
2.92689e-12
-8.37607e-13
2.25682e-08
2.55632e-12
-6.59446e-13
2.25632e-08
-4.67931e-13
2.25485e-08
2.12191e-12
3.34553e-12
-9.50372e-13
2.25692e-08
3.10996e-12
-8.40528e-13
2.25667e-08
2.75368e-12
-7.00829e-13
2.25598e-08
-5.50648e-13
2.25406e-08
2.31106e-12
3.45412e-12
-9.10301e-13
2.25652e-08
3.25226e-12
-8.59099e-13
2.25608e-08
2.91285e-12
-7.7061e-13
2.25487e-08
-6.63889e-13
2.25181e-08
2.44341e-12
3.52229e-12
2.25514e-08
-8.62103e-13
3.35147e-12
2.25425e-08
-8.94736e-13
3.00314e-12
2.2519e-08
-8.87482e-13
2.24634e-08
-8.13913e-13
2.44218e-12
1.97918e-12
-4.76172e-13
2.257e-08
1.82619e-12
-3.78909e-13
2.25682e-08
1.60748e-12
-2.79409e-13
2.25634e-08
-1.81818e-13
2.25488e-08
1.34567e-12
2.07577e-12
-4.532e-13
2.25692e-08
1.92536e-12
-3.94429e-13
2.25667e-08
1.7082e-12
-3.24632e-13
2.256e-08
-2.53358e-13
2.2541e-08
1.43657e-12
2.13344e-12
-4.29613e-13
2.25652e-08
1.99846e-12
-4.12255e-13
2.25609e-08
1.79041e-12
-3.76417e-13
2.2549e-08
-3.31833e-13
2.25185e-08
1.49553e-12
2.15968e-12
2.25514e-08
-4.0572e-13
2.04028e-12
2.25427e-08
-4.38071e-13
1.82246e-12
2.25193e-08
-4.51016e-13
2.24638e-08
-4.29565e-13
1.46816e-12
1.51995e-12
2.26169e-13
1.43415e-12
2.40636e-13
1.28761e-12
2.50628e-13
2.56989e-13
1.09343e-12
1.53412e-12
1.86196e-13
1.44396e-12
1.75678e-13
1.29376e-12
1.65386e-13
1.52856e-13
1.09326e-12
1.52259e-12
1.36341e-13
1.43422e-12
1.01284e-13
1.28224e-12
6.88144e-14
3.65852e-14
1.06962e-12
1.49069e-12
8.0375e-14
1.40285e-12
2.0733e-14
1.24018e-12
-3.77837e-14
-8.94491e-14
1.00233e-12
-1.65328e-09
-1.89708e-09
3.0677e-08
6.9445e-09
-6.66432e-10
1.4007e-08
5.19294e-10
-2.03263e-09
2.91379e-08
2.64913e-09
1.28197e-08
-1.02978e-10
-4.17215e-10
4.50022e-09
2.05602e-08
3.52266e-09
4.18934e-09
1.56868e-08
1.4851e-09
5.47909e-09
1.54967e-08
8.37644e-09
1.28635e-08
-1.02122e-09
6.34116e-10
-2.84355e-09
3.83941e-08
2.73325e-09
-3.90485e-11
2.97814e-08
2.25807e-09
2.7168e-11
2.9773e-08
5.22562e-09
2.62309e-08
-1.87523e-09
5.07027e-10
2.93274e-08
2.22879e-09
2.88356e-08
3.4683e-09
2.56866e-08
3.1758e-08
-1.38965e-09
2.04168e-09
2.81695e-09
1.85583e-08
-2.65294e-09
2.34025e-09
1.75049e-08
3.07193e-09
1.92116e-09
1.81129e-08
3.14236e-09
1.22618e-08
1.53303e-09
2.8144e-09
-2.08117e-09
2.00948e-08
-1.71341e-09
-2.7169e-09
2.52717e-08
9.3682e-10
4.4663e-09
1.03013e-08
-2.31862e-09
1.97382e-08
-4.76867e-10
2.5281e-09
6.67969e-09
2.68927e-08
9.91675e-10
3.80091e-09
2.48e-08
3.80118e-11
-3.70233e-09
3.88952e-08
3.81801e-09
2.13359e-08
-1.20365e-09
1.72866e-09
3.70773e-08
-1.89211e-09
3.62804e-08
2.13321e-09
1.79254e-08
3.9251e-08
-1.43459e-09
2.11898e-09
1.21164e-10
1.03988e-08
-3.2937e-09
-2.2819e-09
2.69922e-08
7.6293e-10
3.11731e-09
1.11089e-08
-6.19317e-09
9.10888e-09
1.76576e-09
4.22215e-10
1.2935e-09
1.53785e-08
4.85276e-10
-2.25473e-09
2.51815e-08
8.28278e-10
-4.95442e-09
1.803e-08
-9.82384e-09
2.45523e-08
-3.55215e-10
-1.24669e-09
-5.78621e-09
3.50061e-08
1.65614e-10
-3.78536e-09
2.49183e-08
-3.56784e-10
-9.30024e-10
3.53932e-08
-2.29219e-09
1.31423e-08
3.05133e-10
3.37925e-10
2.68021e-08
1.74415e-09
3.14087e-08
-7.78322e-10
1.94546e-08
3.61356e-08
1.89888e-10
-8.09658e-10
2.12083e-09
1.71197e-08
-2.13073e-09
-2.37772e-09
3.32615e-08
-8.00365e-10
-5.23275e-10
1.05917e-08
-1.0667e-09
6.81406e-09
2.01025e-10
-3.59922e-09
-5.1472e-09
3.21233e-08
-8.98902e-10
4.93213e-09
1.51713e-08
-1.43069e-09
-4.95787e-10
1.85343e-08
-1.86026e-09
2.16099e-08
2.30532e-09
1.33058e-09
-2.04998e-09
2.96022e-08
-4.01151e-09
-7.52016e-09
4.27127e-08
-1.35514e-09
-4.53002e-10
3.2694e-08
-2.67513e-09
1.1671e-08
9.31031e-10
-1.57983e-09
2.42534e-08
-5.47291e-11
2.24863e-08
-2.02461e-09
2.10822e-08
3.04144e-08
1.16921e-09
-7.4121e-09
-2.14165e-09
3.61268e-08
1.12243e-10
4.05374e-09
2.39597e-08
-1.3352e-09
-1.31308e-09
1.41009e-08
2.71914e-10
3.85211e-09
4.15771e-10
-1.62561e-09
-2.96505e-10
3.00984e-08
-1.89251e-09
-3.24673e-10
1.98166e-08
-1.38373e-09
1.52406e-09
1.51884e-08
8.3013e-10
1.85682e-08
1.09969e-09
-3.4361e-09
-5.09111e-10
3.15366e-08
-3.35445e-09
2.15827e-09
4.01481e-08
-1.6127e-09
3.26402e-09
2.92123e-08
-1.98477e-09
1.25404e-08
3.32798e-10
-5.83883e-10
2.24292e-08
-9.0673e-10
2.4836e-08
-2.7911e-09
2.63537e-08
2.47276e-08
9.11776e-10
-2.11621e-10
1.53087e-08
1.70989e-08
1.32177e-09
4.47015e-09
1.61956e-08
9.04725e-10
2.71945e-09
1.3483e-08
-2.63051e-09
1.15999e-08
-1.02417e-09
-3.74254e-09
2.78686e-09
4.5986e-08
1.54111e-10
1.46748e-09
1.89226e-08
-1.72719e-09
-2.55736e-09
2.23465e-08
3.36386e-09
1.16103e-08
-7.63692e-10
-7.77726e-10
2.9882e-09
2.85426e-08
-3.79762e-10
1.949e-09
3.92686e-08
9.85917e-10
9.44807e-10
2.43445e-08
-1.47218e-09
1.93438e-08
-9.81516e-10
-4.82869e-10
2.53351e-08
-1.43473e-09
2.79633e-08
-5.77515e-10
2.65676e-08
2.45273e-08
-1.71813e-09
4.02484e-09
-2.04423e-09
1.5198e-08
4.79417e-09
2.89998e-09
1.32871e-08
2.1098e-09
1.11568e-09
1.39404e-08
-5.3501e-09
1.5085e-08
4.01041e-09
2.99923e-09
3.34562e-09
3.84657e-08
8.8749e-10
1.19069e-09
2.27437e-08
3.4035e-09
6.98788e-10
2.02472e-08
-5.92007e-09
1.33648e-08
2.21909e-09
7.04619e-10
8.75961e-10
3.10342e-08
3.9873e-09
1.44015e-09
3.57365e-08
2.0094e-09
4.06188e-09
2.29593e-08
-1.92872e-09
1.83219e-08
-9.60065e-10
-2.87342e-09
3.06292e-08
-3.20343e-09
3.12809e-08
-3.66283e-10
2.8079e-08
2.33387e-08
1.21807e-10
7.14867e-11
7.70147e-11
1.63541e-08
-2.34876e-09
1.32721e-09
1.76175e-08
-3.92621e-09
-5.66288e-10
1.80855e-08
-4.77377e-09
1.54848e-08
-1.44349e-09
8.00358e-10
1.62489e-09
3.51494e-08
-9.89232e-10
-6.17604e-10
2.6478e-08
-9.18198e-10
-5.68803e-10
2.01783e-08
-6.65851e-09
1.5408e-08
-1.07699e-09
1.25858e-09
4.57498e-10
3.19896e-08
2.31514e-09
3.51032e-10
3.37113e-08
1.01827e-09
-1.80917e-10
2.38681e-08
-3.95911e-09
1.67914e-08
-1.50972e-10
2.45739e-09
3.12219e-08
2.27673e-09
3.18126e-08
2.18234e-09
2.79924e-08
2.10425e-08
5.19205e-10
-2.27217e-09
-4.33171e-09
2.17725e-08
-3.69269e-09
-2.30308e-09
2.11395e-08
-3.56604e-09
-3.54884e-10
1.87775e-08
-1.16565e-09
1.37952e-08
-7.47379e-10
-2.65846e-10
-1.05465e-10
2.98475e-08
-7.77582e-10
-2.05759e-09
2.67441e-08
-1.19522e-09
-1.23484e-09
2.14757e-08
-2.45238e-09
1.51915e-08
3.07644e-10
-7.5374e-11
8.8514e-10
3.16278e-08
7.1668e-10
-1.5782e-10
3.10194e-08
7.88448e-10
-1.421e-09
2.39823e-08
-2.81869e-09
1.66263e-08
1.31952e-09
7.70009e-10
3.28331e-08
8.80872e-10
3.15438e-08
1.56382e-09
2.58883e-08
1.82766e-08
1.51082e-09
-4.1694e-10
-1.91629e-09
2.31773e-08
-3.70239e-10
-1.08398e-09
2.18763e-08
2.62102e-11
1.24756e-10
1.8658e-08
6.69934e-10
1.36318e-08
2.87379e-10
4.00724e-10
-4.27396e-10
2.77096e-08
9.72423e-10
-6.40075e-10
2.57285e-08
1.02702e-09
2.28762e-10
2.13168e-08
5.01814e-10
1.56727e-08
7.13676e-10
7.37404e-10
4.09761e-10
3.04625e-08
1.80541e-09
4.15247e-10
2.8896e-08
1.83315e-09
5.034e-10
2.36798e-08
4.12783e-10
1.75174e-08
1.03094e-09
1.18663e-09
3.28815e-08
1.94111e-09
3.12045e-08
2.20642e-09
2.61264e-08
1.97643e-08
1.13143e-09
-9.52043e-11
-7.76768e-10
2.36121e-08
6.48663e-12
-5.09715e-10
2.19986e-08
1.8552e-10
1.18257e-11
1.84642e-08
2.58995e-10
1.33372e-08
2.91802e-10
1.77773e-10
-3.91635e-10
2.71514e-08
4.82979e-10
-3.89085e-10
2.53026e-08
5.15264e-10
7.03801e-11
2.12258e-08
2.60096e-10
1.57687e-08
4.18045e-10
3.52135e-10
-1.65622e-10
3.01291e-08
7.82319e-10
-1.87367e-10
2.8264e-08
7.82753e-10
-1.72575e-11
2.37668e-08
1.45844e-11
1.80478e-08
4.97701e-10
4.88491e-10
3.26048e-08
8.356e-10
3.067e-08
9.18453e-10
2.60262e-08
2.01606e-08
5.36692e-10
1.36367e-10
-3.61252e-10
2.36729e-08
2.86878e-10
-2.44325e-10
2.19414e-08
3.18848e-10
3.48133e-11
1.84095e-08
2.25976e-10
1.33638e-08
1.97597e-10
2.46847e-10
-2.33555e-10
2.68861e-08
4.70554e-10
-1.75242e-10
2.50097e-08
4.57625e-10
1.00395e-10
2.11731e-08
2.70615e-10
1.59345e-08
2.47127e-10
3.20708e-10
-5.97227e-11
2.98254e-08
5.86262e-10
-3.91701e-11
2.78624e-08
5.55888e-10
1.35541e-10
2.3762e-08
2.27071e-10
1.83684e-08
2.78662e-10
3.76203e-10
3.24072e-08
6.13433e-10
3.03936e-08
6.10957e-10
2.61642e-08
2.07082e-08
2.9035e-10
1.14802e-10
-1.63685e-10
2.3678e-08
1.82368e-10
-1.12327e-10
2.19068e-08
1.74785e-10
1.23258e-11
1.83973e-08
8.19467e-11
1.33814e-08
1.05129e-10
1.60465e-10
-1.25599e-10
2.67829e-08
2.52482e-10
-9.10923e-11
2.48965e-08
2.2425e-10
3.69877e-11
2.11766e-08
1.00796e-10
1.60166e-08
1.23292e-10
1.89631e-10
-5.48683e-11
2.96892e-08
2.95866e-10
-4.53833e-11
2.77104e-08
2.57919e-10
3.25365e-11
2.38043e-08
5.81766e-11
1.85343e-08
1.34584e-10
2.07064e-10
3.22843e-08
3.05056e-10
3.02502e-08
2.77179e-10
2.62246e-08
2.09052e-08
1.38325e-10
8.48124e-11
-7.54547e-11
2.36712e-08
1.14442e-10
-5.08956e-11
2.18893e-08
1.01708e-10
6.01813e-12
1.83992e-08
3.86352e-11
1.34032e-08
5.49086e-11
1.04466e-10
-6.30835e-11
2.67364e-08
1.4388e-10
-4.34985e-11
2.48496e-08
1.22005e-10
1.81239e-11
2.11863e-08
4.94491e-11
1.60653e-08
6.24305e-11
1.16471e-10
-3.20898e-11
2.96228e-08
1.62394e-10
-2.46953e-11
2.76456e-08
1.35809e-10
1.93315e-11
2.38296e-08
3.71196e-11
1.86151e-08
6.73345e-11
1.23778e-10
3.22142e-08
1.68433e-10
3.01808e-08
1.45538e-10
2.62668e-08
2.10185e-08
6.93754e-11
5.79291e-11
-3.65418e-11
2.36649e-08
6.88157e-11
-2.40322e-11
2.18825e-08
5.69052e-11
1.71331e-12
1.84047e-08
1.5918e-11
1.34182e-08
2.96729e-11
6.63618e-11
-3.20758e-11
2.67141e-08
8.12576e-11
-2.12032e-11
2.48318e-08
6.52893e-11
7.44976e-12
2.11965e-08
2.10527e-11
1.60924e-08
3.29149e-11
7.11292e-11
-1.75487e-11
2.95897e-08
8.89953e-11
-1.30064e-11
2.76195e-08
7.06865e-11
7.96278e-12
2.38473e-08
1.49157e-11
1.86568e-08
3.50467e-11
7.40521e-11
3.21765e-08
9.18295e-11
3.015e-08
7.48197e-11
2.62917e-08
2.10721e-08
3.60853e-11
3.89327e-11
-1.84456e-11
2.36607e-08
4.21662e-11
-1.18769e-11
2.18804e-08
3.32069e-11
-3.79858e-14
1.84096e-08
6.73887e-12
1.34276e-08
1.71607e-11
4.25289e-11
-1.65963e-11
2.67029e-08
4.744e-11
-1.04474e-11
2.48254e-08
3.68161e-11
3.04247e-12
2.1204e-08
9.67497e-12
1.61077e-08
1.85067e-11
4.43156e-11
-9.51106e-12
2.95727e-08
5.06549e-11
-6.60262e-12
2.76092e-08
3.89391e-11
3.52597e-12
2.38585e-08
7.17744e-12
1.86788e-08
1.94544e-11
4.5497e-11
3.21563e-08
5.20622e-11
3.01367e-08
4.08213e-11
2.63063e-08
2.11001e-08
1.99798e-11
2.61416e-11
-9.62694e-12
2.36583e-08
2.64053e-11
-6.20918e-12
2.18801e-08
2.02256e-11
-7.42816e-13
1.84131e-08
2.43743e-12
1.34333e-08
1.04958e-11
2.75691e-11
-8.75915e-12
2.66972e-08
2.85609e-11
-5.26137e-12
2.48234e-08
2.16908e-11
1.08372e-12
2.12091e-08
4.35301e-12
1.61163e-08
1.10571e-11
2.81158e-11
-5.19083e-12
2.95641e-08
2.97799e-11
-3.31364e-12
2.76055e-08
2.24099e-11
1.45749e-12
2.38654e-08
3.38429e-12
1.86907e-08
1.14355e-11
2.85609e-11
3.21455e-08
3.04549e-11
3.01314e-08
2.32185e-11
2.63149e-08
2.1115e-08
1.17387e-11
1.76798e-11
-5.2811e-12
2.36569e-08
1.6977e-11
-3.49897e-12
2.18803e-08
1.28182e-11
-9.39139e-13
1.84155e-08
6.6516e-13
1.34367e-08
6.77415e-12
1.80996e-11
-4.74749e-12
2.66942e-08
1.77624e-11
-2.79143e-12
2.4823e-08
1.33427e-11
2.66725e-13
2.12123e-08
1.94245e-12
1.61213e-08
6.97888e-12
1.81638e-11
-2.88003e-12
2.95596e-08
1.81286e-11
-1.69689e-12
2.76043e-08
1.34779e-11
6.28997e-13
2.38696e-08
1.60312e-12
1.86974e-08
7.11795e-12
1.83054e-11
3.21398e-08
1.84179e-11
3.01296e-08
1.38292e-11
2.63201e-08
2.11232e-08
7.23785e-12
1.20045e-11
-3.03369e-12
2.36562e-08
1.11418e-11
-2.14014e-12
2.18807e-08
8.32322e-12
-9.11057e-13
1.8417e-08
-1.40958e-13
1.34388e-08
4.52353e-12
1.2043e-11
-2.66966e-12
2.66927e-08
1.13563e-11
-1.57246e-12
2.48231e-08
8.51542e-12
-6.20602e-14
2.12144e-08
7.83477e-13
1.61242e-08
4.58605e-12
1.19149e-11
-1.61605e-12
2.95572e-08
1.13766e-11
-8.99903e-13
2.76041e-08
8.45918e-12
2.37293e-13
2.38722e-08
7.96925e-13
1.87013e-08
4.60934e-12
1.19376e-11
3.21368e-08
1.14741e-11
3.01291e-08
8.5421e-12
2.63232e-08
2.11279e-08
4.66708e-12
8.13278e-12
-1.84848e-12
2.36558e-08
7.37829e-12
-1.40502e-12
2.1881e-08
5.5077e-12
-8.20815e-13
1.8418e-08
-4.16596e-13
1.344e-08
3.06491e-12
8.05946e-12
-1.55818e-12
2.66919e-08
7.39486e-12
-9.56816e-13
2.48234e-08
5.51626e-12
-1.90032e-13
2.12157e-08
2.35458e-13
1.61259e-08
3.07563e-12
7.89607e-12
-9.36283e-13
2.9556e-08
7.29924e-12
-5.07866e-13
2.76043e-08
5.39835e-12
7.40446e-14
2.38739e-08
3.52427e-13
1.87035e-08
3.05709e-12
7.85451e-12
3.21353e-08
7.29817e-12
3.01291e-08
5.4235e-12
2.63252e-08
2.11307e-08
3.08047e-12
5.43207e-12
-1.18643e-12
2.36556e-08
4.85048e-12
-9.51148e-13
2.18812e-08
3.62344e-12
-6.64308e-13
1.84187e-08
-4.56814e-13
1.34408e-08
2.06233e-12
5.30059e-12
-9.45266e-13
2.66915e-08
4.77351e-12
-6.13336e-13
2.48236e-08
3.58157e-12
-2.16119e-13
2.12166e-08
8.45592e-15
1.6127e-08
2.05086e-12
5.18083e-12
-5.48828e-13
2.95554e-08
4.67473e-12
-3.00167e-13
2.76045e-08
3.46353e-12
5.0851e-15
2.38749e-08
1.5031e-13
1.87049e-08
2.02297e-12
5.1346e-12
3.21346e-08
4.65675e-12
3.01293e-08
3.46124e-12
2.63264e-08
2.11324e-08
2.03126e-12
3.47959e-12
-7.38536e-13
2.36555e-08
3.07218e-12
-6.11476e-13
2.18814e-08
2.29348e-12
-4.65899e-13
1.84191e-08
-3.62798e-13
1.34413e-08
1.3255e-12
3.37048e-12
-5.57627e-13
2.66913e-08
2.99377e-12
-3.70861e-13
2.48238e-08
2.24804e-12
-1.6307e-13
2.12171e-08
-4.95227e-14
1.61276e-08
1.30991e-12
3.26462e-12
-3.08072e-13
2.95552e-08
2.90388e-12
-1.65917e-13
2.76048e-08
2.15528e-12
-6.83648e-15
2.38756e-08
6.41838e-14
1.87057e-08
1.2863e-12
3.24041e-12
3.21342e-08
2.88703e-12
3.01296e-08
2.14569e-12
2.63271e-08
2.11333e-08
1.2872e-12
2.10199e-12
-3.28632e-13
2.36555e-08
1.82771e-12
-2.6983e-13
2.18816e-08
1.35149e-12
-2.06968e-13
1.84194e-08
-1.67336e-13
1.34416e-08
7.71459e-13
2.02601e-12
-2.32423e-13
2.66913e-08
1.76882e-12
-1.38814e-13
2.4824e-08
1.31664e-12
-4.00784e-14
2.12174e-08
1.29303e-14
1.6128e-08
7.5802e-13
1.95306e-12
-1.18491e-13
2.95551e-08
1.701e-12
-3.98503e-14
2.76049e-08
1.25116e-12
3.48694e-14
2.3876e-08
7.15344e-14
1.87062e-08
7.4091e-13
1.91874e-12
3.21341e-08
1.67762e-12
3.01298e-08
1.23306e-12
2.63276e-08
2.11339e-08
7.3671e-13
1.37322e-12
8.44637e-14
1.14595e-12
9.03026e-14
8.09847e-13
8.60828e-14
6.48852e-14
4.42761e-13
1.3008e-12
6.63419e-14
1.08816e-12
9.93983e-14
7.71437e-13
1.25842e-13
1.29044e-13
4.30005e-13
1.2271e-12
3.39743e-14
1.02399e-12
6.22433e-14
7.19694e-13
8.43466e-14
9.13764e-14
4.10709e-13
1.18279e-12
9.84474e-13
6.89721e-13
3.97979e-13
2.7187e-09
-3.94857e-09
2.61728e-08
4.28872e-09
-1.74223e-09
2.61264e-08
4.68885e-09
-1.19628e-09
3.09852e-08
-3.64216e-09
4.30316e-08
4.23873e-09
-2.72683e-10
1.45587e-08
2.37946e-09
-1.31632e-09
2.58433e-08
1.55665e-10
-7.60189e-10
2.94352e-08
5.07955e-10
2.6833e-08
1.66196e-09
4.43946e-09
1.05598e-08
2.58154e-09
5.04886e-10
1.80727e-08
4.65416e-09
1.98427e-09
1.89693e-08
1.42995e-09
3.05708e-08
-3.39956e-09
2.20069e-08
5.59225e-09
6.5781e-09
4.22757e-09
2.03159e-08
2.59881e-08
-5.64191e-10
2.05456e-09
1.56303e-08
1.06164e-08
2.4814e-09
1.21383e-08
4.65805e-09
-1.1716e-09
4.17771e-08
-2.14615e-09
4.7607e-08
9.24477e-10
3.95618e-10
1.67952e-08
-2.86481e-10
1.38594e-12
2.95343e-08
5.02812e-10
-1.80232e-09
2.92766e-08
-1.11245e-09
2.64275e-08
8.41186e-10
-6.09147e-11
1.44474e-08
-1.91945e-09
-2.07301e-10
2.1042e-08
1.14828e-09
-1.80743e-10
1.428e-08
-8.78221e-10
3.17211e-08
-2.61703e-09
2.27025e-08
-1.01945e-09
4.29635e-09
2.31339e-09
1.55987e-08
2.60404e-08
1.92213e-09
-4.09337e-10
2.00637e-08
-2.08672e-09
-2.09614e-09
1.90115e-08
4.4371e-09
-1.27381e-09
3.53472e-08
-5.87348e-10
4.80408e-08
3.5895e-09
-6.67333e-12
1.47678e-08
-3.39026e-09
1.55937e-09
3.28585e-08
4.37097e-09
1.6197e-09
1.86218e-08
-4.66854e-12
3.03957e-08
4.09593e-09
-2.53045e-09
1.26236e-08
2.64128e-10
-2.1627e-09
2.85959e-08
1.33451e-09
-2.29301e-09
1.71223e-08
-4.55944e-09
3.78085e-08
2.65939e-09
2.05404e-08
-2.13295e-09
6.57076e-09
-2.22258e-09
1.37004e-08
1.93785e-08
2.10855e-10
-2.35506e-09
2.88407e-08
-1.61949e-10
-2.55936e-09
2.19564e-08
-3.07273e-09
6.359e-10
3.52713e-08
-9.32526e-12
3.97386e-08
5.72364e-10
8.6049e-10
8.89098e-09
3.77907e-09
9.16337e-10
2.61761e-08
-3.09874e-09
-1.65554e-09
2.77911e-08
-1.29916e-09
2.87131e-08
6.25676e-10
-9.21114e-10
9.66742e-09
-9.86661e-10
1.10028e-09
3.00242e-08
5.03326e-10
1.33045e-10
1.38437e-08
-1.25623e-09
3.80975e-08
3.25188e-09
1.51407e-08
-1.86199e-09
1.50902e-08
-2.58373e-09
1.54862e-08
1.66814e-08
-1.37759e-09
7.01672e-10
3.10531e-08
9.67701e-10
-1.79723e-10
1.962e-08
-8.57245e-09
-7.62066e-10
4.78094e-08
1.74707e-09
2.9087e-08
-2.1041e-09
-1.35901e-09
1.42913e-08
1.48496e-09
-1.6587e-09
2.4066e-08
-2.29887e-09
-1.90957e-09
3.27224e-08
-2.61922e-09
3.09767e-08
1.50014e-09
-2.22884e-10
5.75233e-09
-4.55473e-10
-1.11573e-09
3.14369e-08
-4.59573e-09
-1.79099e-10
1.62535e-08
1.72352e-09
2.93017e-08
2.24072e-09
1.24528e-08
3.89609e-10
1.69253e-08
8.46692e-10
1.51828e-08
2.02273e-08
1.75449e-09
2.13007e-09
2.50718e-08
-5.28329e-09
-1.2083e-09
2.79166e-08
-3.00055e-09
1.69608e-09
3.84113e-08
1.59389e-09
2.26854e-08
-2.44959e-09
-1.378e-10
1.74435e-08
1.2357e-09
-1.0736e-09