/*--------------------------------*- C++ -*----------------------------------*\
| =========                 |                                                 |
| \\      /  F ield         | OpenFOAM: The Open Source CFD Toolbox           |
|  \\    /   O peration     | Version:  2506                                  |
|   \\  /    A nd           | Website:  www.openfoam.com                      |
|    \\/     M anipulation  |                                                 |
\*---------------------------------------------------------------------------*/
FoamFile
{
    version     2.0;
    format      ascii;
    arch        "LSB;label=32;scalar=64";
    class       volVectorField;
    location    "0.03";
    object      U;
}
// * * * * * * * * * * * * * * * * * * * * * * * * * * * * * * * * * * * * * //

dimensions      [0 1 -1 0 0 0 0];

internalField   nonuniform List<vector> 
1152
(
(0.00123458 0.00133195 0.0216784)
(0.000370217 -0.000721103 0.00628516)
(0.000343854 -0.0049618 0.00918979)
(-0.000311629 -0.00109055 0.00447517)
(0.00195698 -0.00631409 0.0203595)
(-0.000674286 -0.000259706 0.00888869)
(-0.000338093 -0.00198984 0.00920247)
(0.000198591 -0.000678248 0.00939219)
(6.20585e-05 -0.000405081 0.00360555)
(0.000689934 -0.000462711 0.01074)
(-6.50992e-05 0.00111321 0.0109294)
(-5.28503e-05 0.00169723 0.0117424)
(-6.79073e-05 0.00096139 0.00817433)
(0.000903751 -0.000433274 0.00999472)
(0.00087172 0.000938414 0.00559206)
(0.00102262 0.00188355 0.0153079)
(-0.00630749 -0.00637442 0.0291046)
(-0.000156219 7.54263e-05 0.00825623)
(0.00273468 0.00156051 0.0213253)
(2.87545e-05 -0.000210386 0.0134542)
(-0.000729317 0.00041808 0.010788)
(0.00170953 0.000166756 0.0133384)
(8.04718e-05 0.000241456 0.00832716)
(0.000795216 -0.00133652 0.0132066)
(1.56435e-06 -8.53035e-05 0.000744629)
(-0.00111256 0.000241902 0.0268304)
(-9.04098e-05 9.29619e-05 0.00880003)
(0.0012518 0.000573539 0.0123937)
(0.00155726 -0.00102376 0.0221166)
(-5.62557e-06 0.000278026 0.00773167)
(0.00224243 -0.000459608 0.030125)
(-0.000169368 -0.000107941 0.000433336)
(0.000151095 -0.000336921 0.0149512)
(0.000753264 -0.000140044 0.016638)
(-5.15872e-06 0.000884451 0.00485138)
(0.00509281 0.00271297 0.036875)
(-0.000209466 0.000204748 0.00212761)
(6.4413e-05 0.000355798 0.0189958)
(0.000769918 0.00151434 0.0196682)
(0.000474282 0.000803833 0.00833348)
(-0.000271688 0.000464999 0.0181246)
(-0.000247698 0.000709322 0.0134026)
(0.00123171 -0.000389709 0.0141843)
(0.000459387 0.000310744 0.0134128)
(0.000203401 -0.000635483 0.0169586)
(-0.000538834 0.00107781 0.0130006)
(-7.09033e-06 -0.000457795 0.0104811)
(0.00176891 -0.00203307 0.030308)
(0.00111066 0.00026253 0.00685999)
(0.000701373 -0.000169068 0.00740034)
(-0.00537277 0.00077281 0.0289793)
(6.46416e-05 -0.000200782 0.0118198)
(0.000863572 0.00201701 0.0209915)
(0.000548003 -0.00132323 0.0108262)
(0.000403697 -4.56609e-05 0.0103996)
(-0.0012477 0.00196521 0.0150968)
(-4.33984e-05 0.000201297 0.0155709)
(0.000658628 0.000322288 0.0213735)
(0.000787149 -0.000994549 0.0143818)
(-0.000517418 -0.000790488 0.0210615)
(0.000473014 0.00166933 0.025333)
(-0.00024886 0.000463216 0.0122313)
(-0.000106741 -0.000465934 0.0259223)
(-0.000635022 -0.00242302 0.0217488)
(-8.77363e-05 -0.000130545 0.000948835)
(-0.00232698 0.00446869 0.0375945)
(-0.000292976 -9.16445e-05 0.00374438)
(0.000299036 -0.000439332 0.0151917)
(0.00126868 -0.00164035 0.0148155)
(-0.000406493 -0.00100343 0.00945822)
(-0.000404939 -0.000742766 0.0302684)
(0.000535491 -0.00111395 0.0163831)
(-0.000386596 -0.000300507 0.0127446)
(0.000563978 -0.00135682 0.0188706)
(0.000263469 -0.000444438 0.0117453)
(-0.00122124 -0.00213387 0.033122)
(-0.000369057 0.00210449 0.0155096)
(-0.000532152 0.000488267 0.0104807)
(-0.000149768 4.67545e-05 0.00857739)
(-0.000956427 -0.00124301 0.0301849)
(-0.00136582 0.00451698 0.0251594)
(0.00201489 0.000166799 0.0116701)
(0.00279768 -0.000794525 0.0131225)
(0.000877816 0.000714888 0.0112449)
(0.00148977 0.00346519 0.0205075)
(0.00184442 0.00154075 0.0117086)
(0.000885555 0.000402589 0.00669453)
(0.000248763 0.000115227 0.00888025)
(0.000161068 3.6123e-05 0.00409082)
(0.000206759 0.000345981 0.00479832)
(0.000882633 -0.000737052 0.0105587)
(0.000581038 -0.00147808 0.0086243)
(0.00109625 -0.000431135 0.0221285)
(6.38529e-05 -4.02754e-05 0.0030119)
(-0.00194537 -7.55701e-05 0.0171522)
(-0.00109329 0.000939298 0.0122766)
(0.000251261 -0.000375123 0.00340408)
(0.000239355 -0.000436104 0.0116224)
(-0.00012039 0.00017854 0.00428552)
(-0.000385578 9.23583e-05 0.00886236)
(-9.80419e-05 -0.000229872 0.0109387)
(6.6975e-05 -3.70134e-05 0.0135579)
(-7.38473e-05 -7.93893e-05 0.0157513)
(0.000220963 -0.000488226 0.0140869)
(-1.41326e-05 0.000168219 0.00943812)
(-0.00304039 0.000713716 0.00697857)
(-0.000274706 0.000374916 0.00900225)
(-0.000712537 -0.000328596 0.018384)
(-0.000901056 1.48029e-05 0.00130363)
(0.000141919 -0.000889136 0.0105528)
(0.000234943 -0.00279888 0.00667178)
(-0.00052587 0.000123487 0.0142819)
(0.000120788 -0.000999666 0.0159803)
(-0.000955603 -0.000538453 0.0166625)
(-0.00127576 0.000790768 0.0116113)
(-0.000840131 7.72281e-05 0.0147196)
(-0.000387578 -0.000681832 0.0190495)
(-0.00108032 -0.000369058 0.0183731)
(-0.00138509 -8.2316e-05 0.0175517)
(-0.000597386 -0.000432267 0.016721)
(-0.000234292 -0.000636089 0.0146275)
(-0.00106941 -0.000119102 0.0127031)
(-0.00182719 0.000413095 0.0149177)
(-0.00157046 5.51125e-05 0.0222386)
(-0.000387228 -4.6117e-05 0.0059695)
(-0.000360212 0.000354751 0.00985575)
(-0.00144856 0.000345548 0.0132752)
(-0.00196319 -0.000208206 0.0221061)
(3.9651e-05 0.00141356 0.004024)
(0.000407495 0.000222733 0.00406336)
(-0.000118346 0.000171784 0.00371641)
(-0.000411243 -0.000236937 0.00406636)
(-0.000534611 0.000604637 0.00437234)
(-0.00028756 0.000376873 0.00465676)
(-0.000415773 -0.00023953 0.00471997)
(-7.69058e-05 -0.000696778 0.00481857)
(-0.000122224 0.00113553 0.00350344)
(-0.000721072 0.000929227 0.00346046)
(-0.0015117 0.000363988 0.00419263)
(-0.000964218 -0.000493987 0.00566646)
(-0.000197067 0.000355425 0.00251696)
(-0.00133837 0.000296277 0.00302763)
(-0.00206635 0.000144607 0.00400572)
(-0.00144799 -0.00013691 0.00534839)
(-9.40171e-05 0.000326922 0.00916226)
(8.36569e-05 7.73927e-05 0.0090085)
(-3.14151e-05 4.56987e-05 0.00866549)
(-0.000115709 -8.32965e-05 0.00883141)
(-0.000279112 0.000264511 0.00904154)
(-0.000152409 0.000187478 0.00913651)
(-0.000129692 -1.86573e-06 0.00908638)
(3.1919e-05 -0.000122826 0.00914033)
(-0.000130187 0.000390366 0.00853962)
(-0.000267684 0.000381312 0.00861188)
(-0.000431167 0.000251289 0.00890681)
(-9.4796e-05 8.43946e-05 0.00947106)
(-0.00011032 3.52961e-05 0.00795522)
(-0.000391516 8.36824e-05 0.00829681)
(-0.000478924 0.000154465 0.00880987)
(1.66035e-05 0.000210345 0.00936789)
(-5.45236e-05 9.26165e-05 0.00746609)
(2.62372e-05 2.6456e-05 0.00744851)
(5.35922e-06 -3.4656e-06 0.0073625)
(-2.33946e-05 -4.5443e-05 0.00741496)
(-0.000111597 0.000105907 0.00740607)
(-5.26033e-05 7.18712e-05 0.00747283)
(-2.93995e-05 9.10537e-06 0.00747013)
(2.53011e-05 -2.95465e-05 0.00749331)
(-6.34608e-05 0.000127435 0.00725589)
(-8.72985e-05 0.000125239 0.00731047)
(-0.000108267 8.82319e-05 0.00738624)
(1.98156e-05 4.47389e-05 0.00751101)
(-4.28443e-05 -1.93893e-05 0.00711227)
(-0.000110818 -7.52542e-06 0.00721022)
(-0.000106604 1.97315e-05 0.00730214)
(7.74299e-05 3.06022e-05 0.00735031)
(-2.23105e-05 2.97065e-05 0.00765647)
(9.08716e-06 1.28227e-05 0.00765716)
(1.17884e-05 4.03419e-06 0.00763029)
(2.27513e-06 -7.27943e-07 0.00764346)
(-3.59494e-05 3.82375e-05 0.00762858)
(-8.6013e-06 3.18714e-05 0.00765882)
(9.82179e-06 2.28718e-05 0.00765786)
(3.0769e-05 2.66969e-05 0.00766613)
(-1.586e-05 3.73123e-05 0.00757997)
(-7.44056e-06 4.50374e-05 0.00760919)
(9.42612e-06 5.21586e-05 0.0076289)
(6.20272e-05 6.81315e-05 0.0076593)
(3.41139e-06 -2.34192e-05 0.00753558)
(5.88899e-06 -9.09478e-06 0.00757391)
(4.22581e-05 2.02568e-05 0.00759185)
(0.000125481 5.30458e-05 0.00759473)
(-5.22118e-06 9.14924e-06 0.00760417)
(5.91378e-06 4.94799e-06 0.00760793)
(9.43772e-06 3.69909e-06 0.00759868)
(6.34222e-06 6.06133e-06 0.0075975)
(-7.73177e-06 1.21818e-05 0.00759229)
(3.49596e-06 1.25912e-05 0.00760366)
(1.27184e-05 1.39426e-05 0.0075997)
(1.97499e-05 2.03527e-05 0.0075943)
(1.03924e-06 8.31445e-06 0.00757577)
(8.42003e-06 1.49615e-05 0.00758511)
(1.98544e-05 2.33131e-05 0.00758137)
(3.73793e-05 3.50658e-05 0.00757167)
(1.24146e-05 -1.56439e-05 0.00755993)
(2.00122e-05 -7.65285e-06 0.00756684)
(3.84031e-05 6.37133e-06 0.00755249)
(6.57601e-05 1.90574e-05 0.00751791)
(2.21997e-06 2.36086e-06 0.007591)
(6.11409e-06 1.80931e-06 0.00759295)
(7.72433e-06 2.78595e-06 0.00758907)
(6.40188e-06 5.81578e-06 0.0075846)
(2.38899e-06 3.36072e-06 0.00758632)
(7.09635e-06 5.07544e-06 0.00758982)
(1.11328e-05 7.96624e-06 0.00758622)
(1.32762e-05 1.30144e-05 0.00757868)
(6.59208e-06 7.62677e-07 0.00758051)
(1.12037e-05 5.226e-06 0.00758224)
(1.69567e-05 1.12653e-05 0.00757603)
(2.26089e-05 1.88118e-05 0.00756247)
(1.2667e-05 -8.85807e-06 0.00757347)
(1.85172e-05 -4.37682e-06 0.00757172)
(2.72895e-05 3.02557e-06 0.00755747)
(3.68817e-05 9.92621e-06 0.00752876)
(4.57253e-06 1.19333e-07 0.00758704)
(5.86968e-06 4.34604e-07 0.00758722)
(6.27743e-06 1.58509e-06 0.00758456)
(5.38779e-06 3.73901e-06 0.00757922)
(5.17123e-06 4.58596e-07 0.00758509)
(7.1135e-06 1.83543e-06 0.00758526)
(8.61047e-06 4.02614e-06 0.00758171)
(8.94918e-06 7.0926e-06 0.00757375)
(7.21951e-06 -9.56694e-07 0.00758246)
(9.64065e-06 1.62792e-06 0.00758112)
(1.2073e-05 5.1203e-06 0.00757471)
(1.3507e-05 9.15112e-06 0.00756113)
(1.02955e-05 -4.97027e-06 0.00757757)
(1.35832e-05 -2.57712e-06 0.00757323)
(1.71893e-05 1.04811e-06 0.00756046)
(2.00769e-05 4.29079e-06 0.00753504)
(4.7652e-06 -5.58804e-07 0.00758567)
(5.13597e-06 -1.5788e-07 0.00758501)
(5.03805e-06 6.96465e-07 0.00758268)
(4.31928e-06 2.0203e-06 0.00757721)
(5.25149e-06 -3.8823e-07 0.00758481)
(6.01927e-06 4.98029e-07 0.00758379)
(6.43425e-06 1.83169e-06 0.00758045)
(6.17679e-06 3.53995e-06 0.00757278)
(6.28882e-06 -1.10848e-06 0.00758314)
(7.43265e-06 2.67401e-07 0.00758096)
(8.2976e-06 2.1512e-06 0.0075751)
(8.39579e-06 4.24052e-06 0.00756256)
(7.76371e-06 -2.84415e-06 0.00757871)
(9.43455e-06 -1.65011e-06 0.00757413)
(1.083e-05 1.21991e-07 0.00756312)
(1.14496e-05 1.71147e-06 0.00754053)
(4.16225e-06 -6.82467e-07 0.00758517)
(4.20925e-06 -3.81429e-07 0.00758422)
(3.9424e-06 1.66685e-07 0.00758203)
(3.36031e-06 9.33381e-07 0.00757661)
(4.47183e-06 -5.61613e-07 0.00758469)
(4.74052e-06 -5.69614e-08 0.00758337)
(4.73379e-06 6.87916e-07 0.00758027)
(4.33093e-06 1.59896e-06 0.00757296)
(4.99043e-06 -9.10529e-07 0.00758329)
(5.48529e-06 -2.19144e-07 0.00758104)
(5.68655e-06 7.37437e-07 0.00757576)
(5.40808e-06 1.76888e-06 0.00756404)
(5.66376e-06 -1.68129e-06 0.00757887)
(6.45114e-06 -1.12273e-06 0.00757466)
(6.88871e-06 -2.88858e-07 0.00756485)
(6.79036e-06 5.05311e-07 0.00754394)
(3.35171e-06 -6.16394e-07 0.00758505)
(3.28741e-06 -4.24729e-07 0.00758406)
(3.00964e-06 -9.77794e-08 0.00758198)
(2.55231e-06 3.29565e-07 0.00757666)
(3.5267e-06 -5.34055e-07 0.00758469)
(3.58689e-06 -2.64481e-07 0.00758339)
(3.4374e-06 1.38756e-07 0.00758051)
(3.05642e-06 6.04717e-07 0.00757349)
(3.77769e-06 -6.93761e-07 0.00758335)
(3.96855e-06 -3.62397e-07 0.00758125)
(3.915e-06 1.04511e-07 0.0075764)
(3.58267e-06 6.06312e-07 0.00756526)
(4.07238e-06 -1.03492e-06 0.00757885)
(4.41245e-06 -7.94746e-07 0.00757504)
(4.47185e-06 -4.21829e-07 0.00756602)
(4.2026e-06 -2.26751e-08 0.00754609)
(2.56589e-06 -5.07638e-07 0.00758505)
(2.46542e-06 -3.94375e-07 0.00758412)
(2.22998e-06 -2.05846e-07 0.00758214)
(1.88784e-06 3.13909e-08 0.00757693)
(2.658e-06 -4.62366e-07 0.00758473)
(2.63204e-06 -3.2094e-07 0.00758353)
(2.46157e-06 -1.06816e-07 0.00758083)
(2.15089e-06 1.33361e-07 0.00757403)
(2.77527e-06 -5.28309e-07 0.00758338)
(2.82281e-06 -3.72843e-07 0.00758147)
(2.69874e-06 -1.51404e-07 0.00757692)
(2.40954e-06 8.26155e-08 0.00756615)
(2.89818e-06 -6.73653e-07 0.00757881)
(3.02228e-06 -5.83417e-07 0.00757531)
(2.9427e-06 -4.24482e-07 0.00756677)
(2.68248e-06 -2.27634e-07 0.00754741)
(1.8813e-06 -4.0889e-07 0.00758506)
(1.77462e-06 -3.41168e-07 0.00758422)
(1.59507e-06 -2.31936e-07 0.00758235)
(1.3505e-06 -9.76901e-08 0.00757724)
(1.92865e-06 -3.92824e-07 0.00758475)
(1.8715e-06 -3.15043e-07 0.00758366)
(1.72489e-06 -1.98749e-07 0.00758112)
(1.49216e-06 -6.96489e-08 0.00757447)
(1.98231e-06 -4.12847e-07 0.00758339)
(1.96837e-06 -3.39513e-07 0.00758164)
(1.84572e-06 -2.32911e-07 0.00757731)
(1.62304e-06 -1.22047e-07 0.00756676)
(2.02942e-06 -4.66171e-07 0.00757877)
(2.0587e-06 -4.38836e-07 0.0075755)
(1.95176e-06 -3.74394e-07 0.00756726)
(1.73885e-06 -2.77203e-07 0.00754823)
(1.31514e-06 -3.19012e-07 0.00758506)
(1.21404e-06 -2.77117e-07 0.00758431)
(1.08871e-06 -2.1283e-07 0.00758253)
(9.23248e-07 -1.3448e-07 0.00757749)
(1.34057e-06 -3.28003e-07 0.00758474)
(1.27729e-06 -2.7817e-07 0.00758377)
(1.16669e-06 -2.10201e-07 0.00758134)
(1.0038e-06 -1.36167e-07 0.0075748)
(1.36587e-06 -3.24159e-07 0.00758339)
(1.33097e-06 -2.86216e-07 0.00758177)
(1.23216e-06 -2.31761e-07 0.00757758)
(1.07315e-06 -1.75361e-07 0.00756717)
(1.38231e-06 -3.3421e-07 0.00757874)
(1.37391e-06 -3.2899e-07 0.00757563)
(1.28054e-06 -3.02676e-07 0.00756757)
(1.12153e-06 -2.53207e-07 0.00754873)
(8.65528e-07 -2.21594e-07 0.00758502)
(7.80056e-07 -1.9585e-07 0.00758435)
(6.99985e-07 -1.58317e-07 0.00758265)
(5.95711e-07 -1.13152e-07 0.00757768)
(8.79895e-07 -2.4509e-07 0.00758472)
(8.23537e-07 -2.10322e-07 0.00758383)
(7.48284e-07 -1.68303e-07 0.00758149)
(6.42359e-07 -1.246e-07 0.00757503)
(8.91995e-07 -2.33386e-07 0.00758337)
(8.56037e-07 -2.11178e-07 0.00758184)
(7.85764e-07 -1.8158e-07 0.00757775)
(6.80535e-07 -1.50881e-07 0.00756744)
(8.96804e-07 -2.26573e-07 0.00757871)
(8.77832e-07 -2.27422e-07 0.00757571)
(8.09209e-07 -2.16089e-07 0.00756777)
(7.00545e-07 -1.90199e-07 0.00754904)
(5.436e-07 -9.0113e-08 0.00758497)
(4.84542e-07 -7.70105e-08 0.00758437)
(4.37809e-07 -5.88369e-08 0.00758272)
(3.75606e-07 -3.7352e-08 0.0075778)
(5.50847e-07 -1.16152e-07 0.00758469)
(5.09679e-07 -9.5739e-08 0.00758386)
(4.62674e-07 -7.37039e-08 0.00758158)
(3.98042e-07 -5.24695e-08 0.00757517)
(5.53887e-07 -1.10926e-07 0.00758335)
(5.26451e-07 -1.00442e-07 0.00758188)
(4.80893e-07 -8.68697e-08 0.00757786)
(4.15947e-07 -7.32719e-08 0.00756761)
(5.52532e-07 -1.07086e-07 0.0075787)
(5.3506e-07 -1.11128e-07 0.00757576)
(4.8986e-07 -1.08642e-07 0.00756789)
(4.22817e-07 -9.67304e-08 0.00754922)
(4.02772e-07 7.41936e-08 0.00758495)
(3.76444e-07 7.44874e-08 0.00758439)
(3.4706e-07 7.55646e-08 0.0075828)
(3.03194e-07 7.71742e-08 0.00757792)
(4.00379e-07 5.30144e-08 0.00758469)
(3.79602e-07 5.37564e-08 0.0075839)
(3.49114e-07 5.39659e-08 0.00758167)
(3.03458e-07 5.31829e-08 0.0075753)
(3.93469e-07 4.1151e-08 0.00758336)
(3.77075e-07 3.57548e-08 0.00758194)
(3.46428e-07 3.03064e-08 0.00757797)
(2.99615e-07 2.40098e-08 0.00756776)
(3.83037e-07 2.66595e-08 0.00757872)
(3.69236e-07 1.37511e-08 0.00757582)
(3.37382e-07 1.80214e-09 0.00756801)
(2.87377e-07 -7.07276e-09 0.00754939)
(5.35735e-05 -5.44208e-05 0.0156854)
(0.000715207 -0.00032406 0.00874403)
(0.00347179 -0.000255209 0.0186479)
(0.000516531 0.00100511 0.0103858)
(-8.78995e-05 0.000347255 0.00621312)
(0.000623561 0.000432683 0.0056234)
(0.00302149 0.000341456 0.012263)
(0.00117922 0.00228386 0.0110502)
(0.000905153 0.000372266 0.0154523)
(0.00109839 0.00104832 0.0099048)
(0.00204026 0.000499598 0.011732)
(0.00192552 0.00302176 0.0141382)
(5.07837e-05 -8.04287e-05 0.00159808)
(0.000659545 -0.000196471 0.00630068)
(0.00192478 -0.000876056 0.0117759)
(0.00118466 0.000572269 0.012404)
(-0.0016354 4.27425e-05 0.0171572)
(0.000116894 0.001052 0.0097751)
(0.000103007 -1.62627e-05 0.0170104)
(0.00221055 9.83218e-05 0.0161301)
(-0.000243822 4.53214e-05 0.0189578)
(-9.91293e-05 0.000390923 0.0141784)
(6.94088e-06 0.000395555 0.0026264)
(0.000535527 0.000228516 0.00880814)
(0.000540917 0.000278076 0.0146222)
(0.00123801 -0.000239385 0.0205749)
(0.000462486 0.000526531 0.0211173)
(-0.000363569 0.00030696 0.0207201)
(0.00170144 0.00166742 0.0271131)
(-0.00015662 0.000896953 0.0206077)
(-0.000261474 -0.000488151 0.0104389)
(0.00101374 0.000554462 0.0244821)
(-8.08421e-05 -0.000164634 0.00805167)
(-0.000203867 0.000273236 0.0189359)
(-0.000610122 0.00112164 0.0140548)
(-8.7293e-05 -0.000212948 0.000638225)
(-0.000238209 0.000156831 0.00442616)
(0.000310597 -0.00152223 0.0221237)
(0.000144529 -2.98854e-06 0.014491)
(-0.000559246 -0.000700428 0.0297605)
(-0.000704791 -0.00101099 0.0145804)
(-0.000468202 -0.000652724 0.00770671)
(-0.000697464 -0.00157746 0.0293562)
(-0.000800935 -0.00161728 0.0134629)
(-0.00116612 -0.00106165 0.00941106)
(0.000609716 -0.00143518 0.0203229)
(0.000335126 -0.000101779 0.012165)
(-0.000651057 -0.000331493 0.0292283)
(0.000763617 0.00085348 0.0094592)
(-0.00132795 0.000318144 0.0234342)
(-0.000827752 7.2236e-05 0.00961027)
(-0.000535595 -0.000631085 0.0127824)
(0.000666554 6.65066e-05 0.0155003)
(-0.00128316 0.000662866 0.0134243)
(-0.000976304 -8.85917e-05 0.0169966)
(0.000108566 -0.00157674 0.0212549)
(-8.23962e-05 -0.00206999 0.0271165)
(-0.0012005 -0.000303532 0.0214349)
(-0.00188115 0.000396192 0.0175922)
(-0.000612108 -0.000675462 0.0115189)
(-0.00121673 -0.000253434 0.0186859)
(-0.000727963 -0.00109659 0.0133324)
(-0.000440207 0.000161789 0.0145057)
(-0.000886759 -0.000552649 0.0230731)
(0.000436357 0.00076383 0.015331)
(-0.00243556 0.00264043 0.0276555)
(-0.000658456 0.00011031 0.0132087)
(-0.00044883 2.82279e-05 0.00840128)
(-0.00145135 -0.000448827 0.0279739)
(-0.000713224 0.000533758 0.00911635)
(-0.00124309 0.000151604 0.0154155)
(-0.000260746 0.000246979 0.0233435)
(-0.000137559 -2.08736e-05 0.000801867)
(-0.00184804 0.000902402 0.0314189)
(-0.00115541 0.00190822 0.0276957)
(-0.000427815 -3.69952e-05 0.0119848)
(-0.000778357 -4.51132e-05 0.0105659)
(-0.000464288 0.000422954 0.0142309)
(-0.000851667 0.000856981 0.0138927)
(-0.00123841 -0.000177579 0.0243883)
(-0.00318131 0.00631539 0.0243572)
(0.000496845 -8.07716e-05 0.00701455)
(0.0016376 0.000833711 0.0106407)
(-0.000200031 0.000156453 0.00222022)
(-0.000135459 0.000184218 0.00100088)
(-0.000408285 0.00202415 0.0124795)
(-0.000469534 0.000447338 0.00706622)
(-0.000996034 0.000104609 0.0111311)
(-0.000522425 0.000645809 0.0159017)
(-0.000437148 0.000849641 0.00951845)
(0.000408198 -0.00118414 0.00802175)
(-8.93883e-05 0.000562499 0.00807759)
(-9.9163e-05 0.000486946 0.00909621)
(-0.000499919 0.000478908 0.00985015)
(-0.0006861 0.000737722 0.0130621)
(-0.000757108 0.000145311 0.009604)
(1.72949e-05 2.93501e-05 0.00371224)
(0.00286443 0.00142841 0.00798007)
(0.00260544 0.00147095 0.00729857)
(0.000740543 -0.000108504 0.00922616)
(2.98173e-05 -0.000246195 0.0103514)
(0.0010283 0.000182257 0.00813357)
(-0.000388459 -0.00126093 0.0119305)
(0.00102878 -0.00432914 0.00745994)
(-2.60879e-05 0.000581683 0.010421)
(0.000756978 0.000429936 0.0160799)
(0.00285736 0.00120268 0.0117695)
(-3.50258e-05 -0.000240815 0.0116446)
(0.000157123 0.000135605 0.00841752)
(-0.00208455 0.000230584 0.0101624)
(-0.000299338 3.68351e-06 0.0108532)
(-0.000307224 -0.000397356 0.0131693)
(9.29217e-05 0.000285501 0.0103683)
(-2.05052e-05 0.000785981 0.0122413)
(-0.00112906 0.000405578 0.0148024)
(-0.00152773 -0.000588226 0.0173984)
(2.82561e-05 4.14792e-05 0.0211029)
(8.93286e-05 -0.000160045 0.0157696)
(-0.000562979 -0.000214414 0.0139794)
(-0.000962885 -0.00122142 0.0148397)
(0.000371397 0.000234226 0.0158751)
(0.000392785 -9.35157e-05 0.0180848)
(0.000554454 -0.000154655 0.0152585)
(-0.000211066 -0.00111468 0.0142949)
(0.00104746 -0.00012292 0.0137233)
(0.000437701 -4.72457e-05 0.0149835)
(0.000593326 -0.000309801 0.0160845)
(0.000582176 -0.000898601 0.0157068)
(-0.000153866 -0.000962072 0.00327994)
(-0.00100277 -0.000324425 0.00357239)
(-0.00136164 0.000184032 0.00409427)
(-0.000935652 5.23687e-05 0.00423005)
(-0.000193596 -0.000495707 0.00502399)
(-0.000220704 -0.000528935 0.00449618)
(-0.000497646 -4.33702e-05 0.00396392)
(-0.000393101 -0.000335577 0.00324394)
(0.000119297 0.000321099 0.00449774)
(-5.45655e-05 -0.000136102 0.00483091)
(0.000143385 -0.000339175 0.00372294)
(7.36405e-05 -0.000742342 0.00263157)
(0.000548249 6.41414e-05 0.00409614)
(7.33839e-06 5.91417e-05 0.00406636)
(0.000293951 -0.00028735 0.00355191)
(0.00051417 -0.00074266 0.00252119)
(-5.32776e-05 -0.000437087 0.0084283)
(-0.000203277 -0.000215139 0.0086816)
(-0.000106364 6.54858e-05 0.00890047)
(0.000261422 0.000157745 0.00896107)
(4.33873e-06 -0.000281055 0.00917281)
(0.00012458 -0.000242657 0.00911737)
(0.000308683 -2.94554e-05 0.00881591)
(0.000511687 -2.78541e-05 0.00853673)
(0.000184004 6.22766e-05 0.00894823)
(0.000288489 -4.3116e-05 0.00921384)
(0.000598848 -0.000127197 0.00866882)
(0.000665716 -0.000264035 0.00817645)
(0.000375056 2.78238e-05 0.00867935)
(0.000344503 -2.07805e-05 0.0089026)
(0.000630771 -0.000242747 0.00853521)
(0.000703484 -0.000473376 0.0080134)
(-1.83541e-05 -0.000178871 0.00727822)
(-5.37855e-05 -0.000117344 0.00733672)
(1.15987e-05 -3.07854e-06 0.00728905)
(0.000179918 2.35949e-05 0.00714495)
(1.94667e-05 -0.000133612 0.00748686)
(5.39908e-05 -0.000112392 0.00745347)
(0.000155841 -1.80338e-05 0.00720146)
(0.000265915 -2.25368e-05 0.00689913)
(8.9437e-05 -4.38205e-05 0.00740749)
(0.00011627 -7.39872e-05 0.00742436)
(0.000241999 -8.27683e-05 0.00705316)
(0.000288878 -0.000134445 0.00664948)
(0.000151938 -2.15676e-05 0.0072185)
(0.00013768 -5.26817e-05 0.00721312)
(0.000255926 -0.000130289 0.00686618)
(0.000292185 -0.000223039 0.00644844)
(2.16414e-05 -8.4099e-05 0.00758629)
(3.90916e-05 -5.99501e-05 0.00761563)
(9.7903e-05 -6.86377e-06 0.00758749)
(0.000166118 2.33945e-05 0.00753135)
(4.31749e-05 -6.85388e-05 0.00762727)
(8.15662e-05 -6.01508e-05 0.007633)
(0.000154286 -1.85566e-05 0.00753433)
(0.000197158 -4.15019e-06 0.00742603)
(7.10394e-05 -2.683e-05 0.00757056)
(0.00010954 -3.95951e-05 0.00758284)
(0.000187766 -3.96422e-05 0.0074372)
(0.000203716 -5.12083e-05 0.00729752)
(9.43165e-05 -9.93986e-06 0.00744902)
(0.000119382 -3.42973e-05 0.00746187)
(0.000187685 -7.54354e-05 0.00731544)
(0.000187373 -0.000111725 0.00717277)
(2.16006e-05 -3.80066e-05 0.00757217)
(3.37469e-05 -2.84611e-05 0.00757042)
(5.82715e-05 -5.85093e-06 0.0075306)
(8.21003e-05 3.44773e-06 0.00746512)
(3.19342e-05 -3.35074e-05 0.00756672)
(4.98578e-05 -3.02582e-05 0.00755281)
(7.82819e-05 -1.16544e-05 0.00747785)
(9.15933e-05 -8.268e-06 0.00738641)
(4.27055e-05 -1.87312e-05 0.00750647)
(6.02045e-05 -2.58123e-05 0.00748891)
(8.84672e-05 -2.34344e-05 0.00738831)
(8.97686e-05 -3.03393e-05 0.00728152)
(5.05767e-05 -8.17799e-06 0.0073819)
(6.40109e-05 -2.21619e-05 0.00736449)
(8.76401e-05 -3.84194e-05 0.00725869)
(8.21566e-05 -5.4023e-05 0.00715397)
(1.734e-05 -1.74968e-05 0.00757032)
(2.48199e-05 -1.34128e-05 0.00756302)
(3.57028e-05 -3.65443e-06 0.00753519)
(4.35349e-05 9.74174e-07 0.00748999)
(2.21554e-05 -1.6299e-05 0.00754769)
(3.14129e-05 -1.51705e-05 0.00753317)
(4.34679e-05 -7.13808e-06 0.00748738)
(4.68097e-05 -4.8762e-06 0.00742955)
(2.64537e-05 -1.06201e-05 0.00748342)
(3.56512e-05 -1.44268e-05 0.00746502)
(4.73542e-05 -1.28079e-05 0.0074059)
(4.57315e-05 -1.47253e-05 0.0073422)
(2.94098e-05 -5.11169e-06 0.00736283)
(3.76931e-05 -1.29948e-05 0.00734585)
(4.71278e-05 -2.05247e-05 0.00728507)
(4.17761e-05 -2.65076e-05 0.00722748)
(1.25228e-05 -8.48874e-06 0.00756833)
(1.64793e-05 -6.62378e-06 0.00755964)
(2.07045e-05 -2.3375e-06 0.00753717)
(2.27873e-05 -3.78523e-07 0.00749862)
(1.46417e-05 -8.23561e-06 0.00753933)
(1.92236e-05 -7.85734e-06 0.00752508)
(2.36843e-05 -4.42735e-06 0.00749083)
(2.36786e-05 -3.39003e-06 0.00744345)
(1.6366e-05 -5.86689e-06 0.00747229)
(2.09362e-05 -7.96712e-06 0.00745438)
(2.50026e-05 -7.32824e-06 0.00741162)
(2.26952e-05 -8.16544e-06 0.00736083)
(1.7517e-05 -3.03397e-06 0.00735172)
(2.18751e-05 -7.40862e-06 0.00733484)
(2.47836e-05 -1.10333e-05 0.00729219)
(2.07475e-05 -1.35669e-05 0.00724813)
(8.78755e-06 -4.33271e-06 0.00756694)
(1.07814e-05 -3.45322e-06 0.00755866)
(1.2329e-05 -1.57064e-06 0.00753967)
(1.25591e-05 -6.40722e-07 0.00750542)
(9.66822e-06 -4.31107e-06 0.00753535)
(1.1929e-05 -4.21815e-06 0.00752231)
(1.34687e-05 -2.80285e-06 0.00749425)
(1.27022e-05 -2.20082e-06 0.00745279)
(1.032e-05 -3.25616e-06 0.00746685)
(1.26077e-05 -4.44166e-06 0.00745043)
(1.38721e-05 -4.31959e-06 0.00741619)
(1.20172e-05 -4.57691e-06 0.00737252)
(1.0779e-05 -1.79877e-06 0.00734587)
(1.30372e-05 -4.27856e-06 0.00733036)
(1.37135e-05 -6.20278e-06 0.00729763)
(1.09729e-05 -7.24141e-06 0.00726131)
(6.11547e-06 -2.31905e-06 0.00756601)
(7.06153e-06 -1.92102e-06 0.00755841)
(7.54646e-06 -1.10805e-06 0.00754139)
(7.23529e-06 -6.37602e-07 0.00750935)
(6.44125e-06 -2.33389e-06 0.00753327)
(7.51592e-06 -2.36446e-06 0.00752134)
(7.93704e-06 -1.81904e-06 0.00749642)
(7.1416e-06 -1.50023e-06 0.00745781)
(6.6529e-06 -1.83546e-06 0.007464)
(7.75259e-06 -2.5411e-06 0.00744888)
(7.99009e-06 -2.62966e-06 0.00741885)
(6.66636e-06 -2.71483e-06 0.0073785)
(6.83078e-06 -1.0793e-06 0.00734268)
(7.93769e-06 -2.52686e-06 0.00732844)
(7.86594e-06 -3.61424e-06 0.00730062)
(6.07735e-06 -4.06515e-06 0.00726784)
(4.24763e-06 -1.29751e-06 0.00756548)
(4.67389e-06 -1.14247e-06 0.00755848)
(4.75443e-06 -8.06245e-07 0.00754258)
(4.36491e-06 -5.7935e-07 0.00751172)
(4.32885e-06 -1.30664e-06 0.00753221)
(4.82156e-06 -1.39033e-06 0.0075211)
(4.8469e-06 -1.21187e-06 0.00749785)
(4.21665e-06 -1.06e-06 0.00746072)
(4.36779e-06 -1.05822e-06 0.00746252)
(4.87727e-06 -1.50346e-06 0.00744838)
(4.78344e-06 -1.65253e-06 0.00742051)
(3.89157e-06 -1.68004e-06 0.00738187)
(4.43344e-06 -6.58666e-07 0.00734099)
(4.94706e-06 -1.53407e-06 0.00732774)
(4.69042e-06 -2.1891e-06 0.00730242)
(3.54556e-06 -2.39354e-06 0.00727147)
(2.9468e-06 -7.68534e-07 0.00756518)
(3.12149e-06 -7.2707e-07 0.00755861)
(3.06378e-06 -5.99229e-07 0.00754336)
(2.73476e-06 -4.91416e-07 0.00751315)
(2.93601e-06 -7.62215e-07 0.00753165)
(3.14275e-06 -8.57988e-07 0.00752111)
(3.04859e-06 -8.26925e-07 0.00749876)
(2.59806e-06 -7.67537e-07 0.00746242)
(2.91315e-06 -6.29273e-07 0.00746176)
(3.12895e-06 -9.23967e-07 0.00744827)
(2.9587e-06 -1.06822e-06 0.00742152)
(2.37132e-06 -1.09679e-06 0.00738379)
(2.93452e-06 -4.12287e-07 0.00734011)
(3.14958e-06 -9.5885e-07 0.00732753)
(2.88814e-06 -1.36766e-06 0.0073035)
(2.16042e-06 -1.48325e-06 0.00727352)
(2.02898e-06 -4.8387e-07 0.00756502)
(2.08882e-06 -4.86937e-07 0.00755874)
(1.99949e-06 -4.49703e-07 0.00754387)
(1.75448e-06 -3.98906e-07 0.00751403)
(1.99138e-06 -4.65184e-07 0.00753136)
(2.06299e-06 -5.51745e-07 0.00752119)
(1.95513e-06 -5.76439e-07 0.00749933)
(1.64955e-06 -5.58949e-07 0.00746344)
(1.95271e-06 -3.85585e-07 0.00746136)
(2.02941e-06 -5.83984e-07 0.0074483)
(1.8749e-06 -7.02051e-07 0.00742216)
(1.49439e-06 -7.36127e-07 0.00738492)
(1.95741e-06 -2.62176e-07 0.00733965)
(2.03265e-06 -6.10719e-07 0.00732751)
(1.82278e-06 -8.71041e-07 0.00730417)
(1.36163e-06 -9.49338e-07 0.00727472)
(1.36823e-06 -3.19586e-07 0.00756494)
(1.37995e-06 -3.3366e-07 0.00755884)
(1.29813e-06 -3.26744e-07 0.00754419)
(1.127e-06 -3.05435e-07 0.00751457)
(1.32965e-06 -2.92883e-07 0.00753121)
(1.34685e-06 -3.62249e-07 0.00752127)
(1.2548e-06 -3.96608e-07 0.0074997)
(1.05272e-06 -3.9653e-07 0.00746405)
(1.29437e-06 -2.38852e-07 0.00746116)
(1.3125e-06 -3.72629e-07 0.00744836)
(1.19319e-06 -4.6157e-07 0.00742256)
(9.4902e-07 -4.9332e-07 0.00738559)
(1.29354e-06 -1.67176e-07 0.00733941)
(1.30967e-06 -3.89486e-07 0.00732755)
(1.15566e-06 -5.56517e-07 0.00730459)
(8.65095e-07 -6.12421e-07 0.00727543)
(8.82626e-07 -2.03828e-07 0.00756489)
(8.77226e-07 -2.16736e-07 0.00755891)
(8.15298e-07 -2.18435e-07 0.0075444)
(7.03707e-07 -2.11001e-07 0.0075149)
(8.52669e-07 -1.79476e-07 0.00753114)
(8.49902e-07 -2.27794e-07 0.00752134)
(7.82053e-07 -2.56623e-07 0.00749993)
(6.54129e-07 -2.6222e-07 0.00746442)
(8.26391e-07 -1.43079e-07 0.00746107)
(8.23029e-07 -2.29547e-07 0.00744842)
(7.38799e-07 -2.89882e-07 0.00742281)
(5.87227e-07 -3.15044e-07 0.007386)
(8.23698e-07 -1.02267e-07 0.0073393)
(8.17776e-07 -2.40771e-07 0.00732761)
(7.12565e-07 -3.43944e-07 0.00730485)
(5.34609e-07 -3.81759e-07 0.00727586)
(5.40116e-07 -9.51409e-08 0.00756487)
(5.30664e-07 -1.06431e-07 0.00755896)
(4.89657e-07 -1.12246e-07 0.00754453)
(4.21034e-07 -1.11374e-07 0.00751509)
(5.18225e-07 -8.48601e-08 0.00753111)
(5.09504e-07 -1.17031e-07 0.0075214)
(4.64729e-07 -1.3852e-07 0.00750007)
(3.86451e-07 -1.43757e-07 0.00746463)
(4.98692e-07 -6.97029e-08 0.00746103)
(4.88275e-07 -1.22401e-07 0.00744847)
(4.33921e-07 -1.59773e-07 0.00742296)
(3.4293e-07 -1.75093e-07 0.00738623)
(4.93719e-07 -5.53536e-08 0.00733926)
(4.80019e-07 -1.3602e-07 0.00732766)
(4.12796e-07 -1.94723e-07 0.007305)
(3.07092e-07 -2.15091e-07 0.0072761)
(3.66943e-07 1.39248e-08 0.0075649)
(3.54291e-07 -2.3745e-09 0.00755904)
(3.22066e-07 -1.73298e-08 0.00754465)
(2.72333e-07 -3.03635e-08 0.00751526)
(3.45845e-07 -1.28254e-09 0.00753114)
(3.31082e-07 -2.76614e-08 0.00752147)
(2.94495e-07 -4.75886e-08 0.00750021)
(2.39599e-07 -5.71247e-08 0.00746481)
(3.25596e-07 -1.45472e-08 0.00746105)
(3.07006e-07 -5.09169e-08 0.00744855)
(2.63301e-07 -7.58219e-08 0.0074231)
(2.02245e-07 -8.41948e-08 0.00738642)
(3.13571e-07 -2.58217e-08 0.00733928)
(2.90256e-07 -7.48218e-08 0.00732774)
(2.38882e-07 -1.06983e-07 0.00730515)
(1.70618e-07 -1.13789e-07 0.00727631)
(0.00122192 -0.00101849 0.014825)
(0.00200746 -0.000454327 0.014013)
(0.00130993 -0.000171345 0.0074842)
(0.00130939 -0.000477506 0.0119902)
(0.00111708 -0.000699794 0.00914417)
(0.0021739 -0.000545456 0.0154224)
(0.000492509 -0.000541455 0.00889571)
(0.000151891 -0.00089607 0.00992863)
(-0.000102696 0.000334051 0.00396651)
(0.00132588 0.00032135 0.0123472)
(0.00121757 0.000813419 0.011915)
(0.000599714 0.000978921 0.0133917)
(-0.00170001 0.00259572 0.0212471)
(0.000241027 0.000861605 0.00699897)
(0.0015625 0.00280355 0.0132987)