/*--------------------------------*- C++ -*----------------------------------*\
| =========                 |                                                 |
| \\      /  F ield         | OpenFOAM: The Open Source CFD Toolbox           |
|  \\    /   O peration     | Version:  2506                                  |
|   \\  /    A nd           | Website:  www.openfoam.com                      |
|    \\/     M anipulation  |                                                 |
\*---------------------------------------------------------------------------*/
FoamFile
{
    version     2.0;
    format      ascii;
    arch        "LSB;label=32;scalar=64";
    class       volScalarField;
    location    "0.03";
    object      voidfraction;
}
// * * * * * * * * * * * * * * * * * * * * * * * * * * * * * * * * * * * * * //

dimensions      [0 0 0 0 0 0 0];

internalField   nonuniform List<scalar> 
1152
(
0.562864
0.412763
0.436463
0.365363
0.560231
0.42593
0.41013
0.420663
0.341663
0.452263
0.412763
0.470697
0.446997
0.439097
0.428563
0.46543
0.510197
0.396963
0.460163
0.431196
0.407496
0.412763
0.378529
0.396963
0.328496
0.470697
0.389063
0.383796
0.439097
0.396963
0.475963
0.352196
0.431196
0.367996
0.367996
0.502297
0.315329
0.404863
0.396963
0.365363
0.404863
0.391696
0.378529
0.373263
0.40223
0.378529
0.389063
0.460163
0.270562
0.344296
0.428563
0.378529
0.404863
0.344296
0.375896
0.381163
0.415396
0.42593
0.40223
0.444363
0.431196
0.404863
0.436463
0.446997
0.296896
0.510197
0.39433
0.389063
0.383796
0.375896
0.45753
0.404863
0.389063
0.407496
0.391696
0.483863
0.41013
0.360096
0.373263
0.475963
0.533897
0.44173
0.41013
0.428563
0.48123
0.420663
0.39433
0.399596
0.362729
0.339029
0.407496
0.39433
0.48123
0.336396
0.439097
0.428563
0.462797
0.549697
0.594464
0.683998
0.594464
0.670831
0.715598
0.815666
0.591831
0.602364
0.668198
0.744565
0.47333
0.702431
0.610264
0.633964
1
1
1
1
1
1
1
1
1
1
1
1
1
1
1
1
1
1
1
1
1
1
1
1
1
1
1
1
1
1
1
1
1
1
1
1
1
1
1
1
1
1
1
1
1
1
1
1
1
1
1
1
1
1
1
1
1
1
1
1
1
1
1
1
1
1
1
1
1
1
1
1
1
1
1
1
1
1
1
1
1
1
1
1
1
1
1
1
1
1
1
1
1
1
1
1
1
1
1
1
1
1
1
1
1
1
1
1
1
1
1
1
1
1
1
1
1
1
1
1
1
1
1
1
1
1
1
1
1
1
1
1
1
1
1
1
1
1
1
1
1
1
1
1
1
1
1
1
1
1
1
1
1
1
1
1
1
1
1
1
1
1
1
1
1
1
1
1
1
1
1
1
1
1
1
1
1
1
1
1
1
1
1
1
1
1
1
1
1
1
1
1
1
1
1
1
1
1
1
1
1
1
1
1
1
1
1
1
1
1
1
1
1
1
1
1
1
1
1
1
1
1
1
1
1
1
1
1
1
1
1
1
1
1
1
1
1
1
1
1
1
1
1
1
1
1
1
1
1
1
1
1
1
1
1
1
1
1
1
1
1
1
1
1
1
1
1
1
1
1
1
1
0.463745
0.390948
0.518565
0.44361
0.391992
0.377963
0.434943
0.423346
0.499535
0.422793
0.454301
0.47401
0.380775
0.403512
0.480367
0.490115
0.428663
0.377414
0.451164
0.421705
0.438422
0.411202
0.354616
0.394332
0.428323
0.454508
0.464045
0.464728
0.484575
0.468306
0.412967
0.492813
0.358499
0.409896
0.370924
0.329703
0.356617
0.427821
0.404474
0.466867
0.380848
0.367821
0.461609
0.418317
0.373616
0.432097
0.399921
0.476626
0.363511
0.439672
0.367715
0.373514
0.391992
0.396957
0.415554
0.448733
0.442169
0.429136
0.425067
0.393565
0.40404
0.378737
0.397747
0.444252
0.421146
0.461327
0.377343
0.35599
0.453899
0.38746
0.396164
0.4306
0.331395
0.473537
0.454301
0.387377
0.359299
0.38636
0.399921
0.430763
0.513863
0.396362
0.40302
0.31656
0.374305
0.420699
0.376775
0.397959
0.434257
0.422793
0.425067
0.384283
0.414778
0.411135
0.428186
0.401087
0.53391
0.6075
0.630899
0.715233
0.717
0.66524
0.731321
0.633698
0.725041
0.748397
0.707661
0.709159
0.778081
0.742729
0.702135
0.695148
1
1
1
1
1
1
1
1
1
1
1
1
1
1
1
1
1
1
1
1
1
1
1
1
1
1
1
1
1
1
1
1
1
1
1
1
1
1
1
1
1
1
1
1
1
1
1
1
1
1
1
1
1
1
1
1
1
1
1
1
1
1
1
1
1
1
1
1
1
1
1
1
1
1
1
1
1
1
1
1
1
1
1
1
1
1
1
1
1
1
1
1
1
1
1
1
1
1
1
1
1
1
1
1
1
1
1
1
1
1
1
1
1
1
1
1
1
1
1
1
1
1
1
1
1
1
1
1
1
1
1
1
1
1
1
1
1
1
1
1
1
1
1
1
1
1
1
1
1
1
1
1
1
1
1
1
1
1
1
1
1
1
1
1
1
1
1
1
1
1
1
1
1
1
1
1
1
1
1
1
1
1
1
1
1
1
1
1
1
1
1
1
1
1
1
1
1
1
1
1
1
1
1
1
1
1
1
1
1
1
1
1
1
1
1
1
1
1
1
1
1
1
1
1
1
1
1
1
1
1
1
1
1
1
1
1
1
1
1
1
1
1
1
1
1
1
1
1
1
1
1
1
1
1
1
1
1
1
1
1
1
1
1
1
1
1
1
1
1
1
1
1
0.49131
0.471586
0.418432
0.452361
0.40719
0.437318
0.435479
0.430192
0.361296
0.418323
0.432375
0.47167
0.474277
0.401586
0.455446
0.487417
0.378546
0.356617
0.463929
0.464889
0.366586
0.385086
0.452394
0.41304
0.419068
0.362926
0.356855
0.412967
0.439229
0.321797
0.421411
0.47123
0.378546
0.349985
0.424366
0.448782
0.418017
0.468182
0.399536
0.407323
0.380553
0.443252
0.388525
0.432534
0.483039
0.365318
0.384283
0.419972
0.416134
0.431789
0.436235
0.486365
0.350345
0.418325
0.391079
0.447343
0.409439
0.448792
0.420195
0.484715
0.3998
0.365318
0.384283
0.403785
0.428663
0.369883
0.42041
0.395092
0.328689
0.418325
0.437593
0.378737
0.342038
0.440483
0.366599
0.423838
0.456753
0.455987
0.418317
0.403785
0.451216
0.420735
0.479754
0.40762
0.409896
0.413576
0.429136
0.443532
0.351667
0.440483
0.412886
0.410792
0.360371
0.325424
0.384283
0.441554
0.674238
0.732477
0.699325
0.645646
0.734724
0.686607
0.849884
0.717954
0.714348
0.695312
0.619959
0.60647
0.579422
0.557536
0.607055
0.544071
1
1
1
1
1
1
1
1
1
1
1
1
1
1
1
1
1
1
1
1
1
1
1
1
1
1
1
1
1
1
1
1
1
1
1
1
1
1
1
1
1
1
1
1
1
1
1
1
1
1
1
1
1
1
1
1
1
1
1
1
1
1
1
1
1
1
1
1
1
1
1
1
1
1
1
1
1
1
1
1
1
1
1
1
1
1
1
1
1
1
1
1
1
1
1
1
1
1
1
1
1
1
1
1
1
1
1
1
1
1
1
1
1
1
1
1
1
1
1
1
1
1
1
1
1
1
1
1
1
1
1
1
1
1
1
1
1
1
1
1
1
1
1
1
1
1
1
1
1
1
1
1
1
1
1
1
1
1
1
1
1
1
1
1
1
1
1
1
1
1
1
1
1
1
1
1
1
1
1
1
1
1
1
1
1
1
1
1
1
1
1
1
1
1
1
1
1
1
1
1
1
1
1
1
1
1
1
1
1
1
1
1
1
1
1
1
1
1
1
1
1
1
1
1
1
1
1
1
1
1
1
1
1
1
1
1
1
1
1
1
1
1
1
1
1
1
1
1
1
1
1
1
1
1
1
1
1
1
1
1
1
1
1
1
1
1
1
1
1
1
1
1
)
;

boundaryField
{
    inlet
    {
        type            fixedValue;
        value           uniform 1;
    }
    outlet
    {
        type            fixedValue;
        value           uniform 1;
    }
    wall
    {
        type            zeroGradient;
    }
    procBoundary3to1
    {
        type            processor;
        value           nonuniform List<scalar> 
192
(
0.404863
0.446997
0.510197
0.515464
0.41013
0.357463
0.328496
0.420663
0.40223
0.44173
0.44963
0.331129
0.352196
0.431196
0.40223
0.341663
0.45753
0.291629
0.483863
0.42593
0.346929
0.389063
0.431196
0.43383
0.515464
0.565497
0.849899
0.749832
0.997367
1
1
1
1
1
1
1
1
1
1
1
1
1
1
1
1
1
1
1
1
1
1
1
1
1
1
1
1
1
1
1
1
1
1
1
1
1
1
1
1
1
1
1
1
1
1
1
1
1
1
1
1
1
1
1
1
1
1
1
1
1
1
1
1
1
1
1
0.350982
0.453899
0.473819
0.448782
0.386064
0.319032
0.38876
0.375406
0.446204
0.418524
0.380848
0.479206
0.421146
0.398625
0.372935
0.361088
0.401099
0.40968
0.426344
0.486365
0.373534
0.418524
0.382826
0.389723
0.761943
0.728055
0.8734
0.813874
1
1
1
1
1
1
1
1
1
1
1
1
1
1
1
1
1
1
1
1
1
1
1
1
1
1
1
1
1
1
1
1
1
1
1
1
1
1
1
1
1
1
1
1
1
1
1
1
1
1
1
1
1
1
1
1
1
1
1
1
1
1
1
1
1
1
1
1
)
;
    }
    procBoundary3to2
    {
        type            processor;
        value           nonuniform List<scalar> 
192
(
0.360096
0.346929
0.525997
0.460163
0.310062
0.407496
0.446997
0.373263
0.491764
0.439097
0.389063
0.341663
0.407496
0.41803
0.42593
0.331129
0.436463
0.375896
0.436463
0.339029
0.349563
0.41013
0.41803
0.323229
0.604998
0.597097
0.607631
0.602364
1
1
1
1
1
1
1
1
1
1
1
1
1
1
1
1
1
1
1
1
1
1
1
1
1
1
1
1
1
1
1
1
1
1
1
1
1
1
1
1
1
1
1
1
1
1
1
1
1
1
1
1
1
1
1
1
1
1
1
1
1
1
1
1
1
1
1
1
0.408616
0.427367
0.457994
0.450572
0.355993
0.365461
0.402607
0.391513
0.488804
0.48043
0.376891
0.387933
0.451216
0.394203
0.398651
0.445203
0.396087
0.378727
0.422388
0.40762
0.373534
0.460532
0.323482
0.493524
0.704308
0.659516
0.794275
0.833561
1
1
1
1
1
1
1
1
1
1
1
1
1
1
1
1
1
1
1
1
1
1
1
1
1
1
1
1
1
1
1
1
1
1
1
1
1
1
1
1
1
1
1
1
1
1
1
1
1
1
1
1
1
1
1
1
1
1
1
1
1
1
1
1
1
1
1
1
)
;
    }
}


// ************************************************************************* //
