/*--------------------------------*- C++ -*----------------------------------*\
| =========                 |                                                 |
| \\      /  F ield         | OpenFOAM: The Open Source CFD Toolbox           |
|  \\    /   O peration     | Version:  2506                                  |
|   \\  /    A nd           | Website:  www.openfoam.com                      |
|    \\/     M anipulation  |                                                 |
\*---------------------------------------------------------------------------*/
FoamFile
{
    version     2.0;
    format      ascii;
    arch        "LSB;label=32;scalar=64";
    class       volVectorField;
    location    "0.02";
    object      U;
}
// * * * * * * * * * * * * * * * * * * * * * * * * * * * * * * * * * * * * * //

dimensions      [0 1 -1 0 0 0 0];

internalField   nonuniform List<vector> 
1152
(
(0.00117945 0.00175365 0.0170234)
(-0.00012339 0.000262029 0.00542658)
(0.000218278 -0.00115735 0.00862499)
(7.14746e-05 -0.000407521 0.00353165)
(0.0015458 -0.00389984 0.0159626)
(-0.000552914 0.000330881 0.00716745)
(-8.57422e-05 -0.000515256 0.00745876)
(0.000590854 6.35654e-05 0.00733371)
(8.17636e-06 -0.000161042 0.00319292)
(0.000498181 -3.39887e-06 0.00787778)
(-3.83901e-05 0.00114409 0.00869711)
(0.000143976 0.00108658 0.00941901)
(7.5206e-06 0.000854238 0.0056456)
(0.000803226 -0.000343747 0.00816442)
(0.000468205 0.000687773 0.00463893)
(0.00060743 0.00131809 0.0122024)
(-0.00410347 -0.00528312 0.0245459)
(0.000343995 5.08729e-05 0.00668826)
(0.00212196 0.000580215 0.0188288)
(-0.000196672 0.000997229 0.0119281)
(-0.000421279 0.000513356 0.00807258)
(0.00167991 0.000219281 0.0104925)
(0.000245547 2.59246e-05 0.00671494)
(0.00064758 -0.000827896 0.0102728)
(-8.31914e-05 9.91908e-05 0.000746339)
(-0.000603229 9.00931e-05 0.020782)
(4.92154e-05 0.00014316 0.00671185)
(0.00102779 0.000545249 0.00976417)
(0.00121947 -0.000920848 0.0168456)
(0.000101557 0.000144606 0.00581909)
(0.00205374 -0.000503664 0.0232949)
(-6.45686e-05 0.000137775 0.000466514)
(-0.000278052 -0.000532893 0.0123142)
(0.00117397 -0.000913585 0.0128981)
(0.000120233 4.0269e-06 0.00357069)
(0.00164562 0.000974648 0.0284076)
(-8.40902e-05 0.000334521 0.00217332)
(0.000230134 -0.000423372 0.014409)
(0.00083574 4.81363e-05 0.0149841)
(0.000306837 0.000398985 0.00637463)
(-0.00015615 -0.000140947 0.0147993)
(0.000116554 0.000382924 0.0101923)
(0.00107778 -0.000366624 0.0106697)
(0.00032884 0.000261936 0.00988874)
(0.000322881 -0.000553476 0.0127135)
(-0.000175255 0.000745713 0.00984431)
(0.000270555 -0.000317189 0.00766571)
(0.00122942 -0.00279245 0.024036)
(0.00073479 -0.000348829 0.00469468)
(0.000782692 -0.000277311 0.00552656)
(-0.00442049 -0.000231674 0.020608)
(-6.68758e-05 -0.000699188 0.00910733)
(0.000807419 0.000926529 0.0152091)
(0.00063708 -0.00104305 0.00760786)
(0.000430666 -0.000190235 0.00770773)
(-0.00116066 0.00118278 0.0110289)
(6.4497e-05 -1.24129e-05 0.0104053)
(0.000612764 -0.000113594 0.0161725)
(0.000652484 -0.000848465 0.010478)
(-0.000611768 -0.000899155 0.0157876)
(0.000661238 0.000968802 0.0191854)
(-1.78185e-05 0.000249242 0.00924713)
(-8.16905e-05 -0.000616865 0.02006)
(-0.000946914 -0.00217442 0.0155202)
(-4.24493e-05 0.000161489 0.000684309)
(-0.00294332 -0.00046379 0.0261827)
(-1.50859e-05 3.53856e-05 0.00268569)
(0.000167511 -0.000378873 0.0102351)
(0.000999424 -0.00155715 0.0109718)
(0.000100654 -0.000680657 0.00751945)
(-0.000504685 -0.00120082 0.0229926)
(0.000278572 -0.000901529 0.0125072)
(-0.000159491 3.97295e-05 0.0109944)
(0.000348682 -0.00124741 0.0145741)
(0.000323369 -0.000100358 0.00899038)
(-0.000730382 -0.00178165 0.0254748)
(-0.000140331 0.00139486 0.0115895)
(-7.44308e-05 0.000255047 0.00777788)
(1.0232e-05 0.00015567 0.00634139)
(-0.001273 -0.00124428 0.0234846)
(-0.000677161 0.00133681 0.010991)
(0.00110168 0.000850721 0.00910658)
(0.00194543 -0.00039919 0.0101319)
(0.000615355 0.000314464 0.00875709)
(0.00138087 0.00209759 0.0156461)
(0.00158191 0.00152408 0.00845354)
(0.000708534 0.000427418 0.00532437)
(6.41982e-05 6.37204e-05 0.00659694)
(0.000291136 0.000122294 0.00290145)
(0.000410202 0.000382856 0.00396559)
(0.000398757 -0.000507882 0.00524943)
(0.000519368 -0.00111593 0.00747094)
(0.000645566 -0.000674503 0.0169497)
(0.000103425 1.1432e-06 0.00227847)
(-0.00137278 -0.000375672 0.015811)
(0.000405965 8.58166e-05 0.00844212)
(0.000803332 0.00024089 0.00458243)
(-0.000128599 -0.000597457 0.00758668)
(-0.00145144 0.00155439 0.00294903)
(-0.000744895 -5.29434e-05 0.00663113)
(0.000107154 0.000262626 0.00674444)
(-0.000558306 -1.16361e-05 0.00998233)
(-0.00162736 0.000716353 0.0126223)
(0.000651431 -0.000312169 0.0105038)
(0.000257193 0.000196892 0.00706573)
(-0.00242734 -0.00312891 0.00668426)
(-0.000115173 -0.000302999 0.00597963)
(0.000737575 -0.000129148 0.0140003)
(-0.000317167 5.82522e-05 0.00136782)
(0.000695489 -0.00143485 0.00821065)
(0.0017671 -0.0014026 0.00450887)
(-0.000211803 0.000432598 0.00943528)
(0.000216873 -4.89483e-05 0.0142658)
(-0.000520007 -0.000232451 0.0157658)
(-0.00113853 0.000365089 0.00918772)
(-0.00068848 2.11578e-05 0.0106278)
(-0.000338986 -0.00050979 0.0150689)
(-0.0010542 -0.000320501 0.0189679)
(-0.00119999 -0.000328696 0.0148175)
(-6.90121e-05 -0.000903101 0.0111704)
(-8.42009e-05 -0.000565066 0.0115384)
(-0.00107313 -0.000197187 0.0103207)
(-0.00223241 0.000306355 0.00978205)
(-0.00200846 -0.00105123 0.0166356)
(-0.000496997 -0.000161154 0.0025174)
(-0.00133397 0.000927679 0.00635837)
(-0.00333851 0.00089499 0.0128516)
(-0.004098 -0.00107053 0.0231055)
(-0.000401816 -0.000546886 0.00318674)
(1.97475e-05 -0.000779267 0.00342454)
(0.000321272 -0.00022697 0.00267027)
(2.51054e-05 -0.000418705 0.00297484)
(-0.000869199 0.000249484 0.00326111)
(-0.000260636 0.000311132 0.00396005)
(0.0002261 -4.66071e-05 0.00356674)
(0.000282468 -0.00090202 0.00363309)
(-0.000292604 0.000984257 0.00267451)
(-0.000511048 0.00113841 0.00270079)
(-0.00116582 0.000222552 0.0029525)
(-0.000892628 -0.00115906 0.0046875)
(-0.00026802 0.000156805 0.00188502)
(-0.00153246 0.00032377 0.00218587)
(-0.00250149 3.76527e-05 0.00333824)
(-0.00111333 -0.000622612 0.00523408)
(-0.00011703 -0.000126874 0.00702006)
(4.24637e-05 -0.000192602 0.00718128)
(0.000110155 -8.44324e-05 0.00682385)
(-2.53228e-05 -0.00015662 0.00679378)
(-0.000272177 4.95347e-05 0.00701421)
(-5.49339e-05 5.47932e-05 0.0073647)
(9.72472e-05 -3.40298e-05 0.00708606)
(0.000158294 -0.000217647 0.00706389)
(-0.000102564 0.000204576 0.00668273)
(-8.94256e-05 0.000273653 0.00684542)
(-0.000210613 0.000142673 0.006901)
(-6.22339e-07 -3.72925e-05 0.0075308)
(-5.26824e-05 -0.000134952 0.00615703)
(-0.00022759 -6.99225e-05 0.00647688)
(-0.000263035 3.73007e-05 0.0070208)
(0.000518686 0.000190035 0.00776011)
(-4.16849e-05 -5.69295e-05 0.00564968)
(2.52745e-05 -8.77388e-05 0.00569952)
(6.19555e-05 -7.92009e-05 0.00560044)
(1.68394e-05 -0.000102965 0.00561897)
(-9.42916e-05 -4.20532e-06 0.00564315)
(-9.14755e-06 -1.78522e-05 0.00574905)
(5.42283e-05 -4.73197e-05 0.00567374)
(7.20146e-05 -0.000103335 0.00568243)
(-5.42547e-05 4.32561e-05 0.00558301)
(-2.38591e-05 5.47692e-05 0.00564096)
(-2.53804e-05 2.61914e-05 0.00562678)
(4.22146e-05 -9.50341e-06 0.00576832)
(-2.21769e-05 -8.01723e-05 0.00548167)
(-3.88747e-05 -7.05162e-05 0.0055648)
(1.53581e-06 -3.89419e-05 0.00559539)
(0.000230004 8.19397e-06 0.00564228)
(-1.52176e-06 -2.87978e-05 0.00581284)
(2.28078e-05 -3.96158e-05 0.00583606)
(3.90125e-05 -3.79581e-05 0.00580502)
(2.56567e-05 -3.50459e-05 0.00580557)
(-1.58533e-05 -1.65246e-05 0.00581442)
(1.6311e-05 -1.95053e-05 0.00585667)
(4.6426e-05 -2.11973e-05 0.00583325)
(5.67099e-05 -1.98443e-05 0.00583513)
(-3.54131e-06 -6.96471e-06 0.00580274)
(1.82638e-05 3.95383e-06 0.00583813)
(4.16269e-05 1.50377e-05 0.00583132)
(7.58174e-05 3.64619e-05 0.00587015)
(1.60869e-05 -5.00307e-05 0.00577088)
(3.8813e-05 -3.93175e-05 0.0058115)
(8.97022e-05 -9.09754e-06 0.0058101)
(0.000187672 3.43263e-05 0.00581497)
(1.17221e-05 -1.74245e-05 0.00578546)
(2.13883e-05 -2.10145e-05 0.00579271)
(2.77179e-05 -1.96237e-05 0.00578155)
(2.34148e-05 -1.43834e-05 0.00577708)
(8.14941e-06 -1.52487e-05 0.00578858)
(2.12703e-05 -1.50651e-05 0.00580092)
(3.40556e-05 -1.25413e-05 0.00579019)
(3.82412e-05 -6.15598e-06 0.00578187)
(1.24623e-05 -1.44809e-05 0.00578886)
(2.44752e-05 -8.08632e-06 0.00579892)
(3.82854e-05 2.01907e-06 0.00578975)
(5.05905e-05 1.64838e-05 0.00578312)
(2.18922e-05 -2.93352e-05 0.00578299)
(3.8563e-05 -2.34216e-05 0.00578907)
(6.35608e-05 -8.78229e-06 0.00576991)
(9.55562e-05 8.07594e-06 0.0057358)
(1.47085e-05 -1.12341e-05 0.00577865)
(1.87179e-05 -1.22102e-05 0.00577921)
(2.09899e-05 -1.08312e-05 0.0057737)
(1.89493e-05 -7.02803e-06 0.00576848)
(1.38889e-05 -1.13091e-05 0.0057815)
(1.97729e-05 -1.04181e-05 0.00578324)
(2.50214e-05 -7.75398e-06 0.00577706)
(2.61215e-05 -3.04381e-06 0.00576866)
(1.57744e-05 -1.20889e-05 0.00578371)
(2.24265e-05 -8.59266e-06 0.00578438)
(2.9045e-05 -2.48527e-06 0.00577718)
(3.29489e-05 5.81079e-06 0.00576583)
(1.99887e-05 -1.745e-05 0.00578386)
(2.96161e-05 -1.42821e-05 0.00578121)
(4.13589e-05 -7.35351e-06 0.00576628)
(5.24156e-05 7.17038e-07 0.0057395)
(1.36409e-05 -7.49451e-06 0.00577676)
(1.53212e-05 -7.66028e-06 0.00577514)
(1.59528e-05 -6.63376e-06 0.00577131)
(1.45256e-05 -4.3846e-06 0.00576639)
(1.34836e-05 -7.92945e-06 0.00577883)
(1.62186e-05 -7.20336e-06 0.00577736)
(1.82113e-05 -5.3934e-06 0.00577276)
(1.79402e-05 -2.57783e-06 0.00576564)
(1.43576e-05 -8.69538e-06 0.00578069)
(1.79028e-05 -6.92879e-06 0.00577846)
(2.08414e-05 -3.75264e-06 0.00577239)
(2.15534e-05 4.6511e-07 0.00576203)
(1.61108e-05 -1.07447e-05 0.00578136)
(2.11778e-05 -9.22417e-06 0.00577698)
(2.63409e-05 -6.1264e-06 0.00576583)
(2.97591e-05 -2.43475e-06 0.00574487)
(1.13146e-05 -5.1034e-06 0.00577625)
(1.19789e-05 -5.07745e-06 0.0057742)
(1.19741e-05 -4.42142e-06 0.00577117)
(1.08278e-05 -3.15725e-06 0.00576686)
(1.12826e-05 -5.51068e-06 0.00577765)
(1.25548e-05 -5.06931e-06 0.0057755)
(1.31967e-05 -4.01979e-06 0.00577188)
(1.24724e-05 -2.46891e-06 0.00576607)
(1.16544e-05 -6.01149e-06 0.0057789)
(1.34782e-05 -5.18403e-06 0.00577619)
(1.46724e-05 -3.65098e-06 0.00577125)
(1.43219e-05 -1.64407e-06 0.00576249)
(1.23072e-05 -6.81549e-06 0.00577904)
(1.48754e-05 -6.17225e-06 0.00577494)
(1.70221e-05 -4.85881e-06 0.00576648)
(1.77917e-05 -3.23789e-06 0.00574965)
(8.86587e-06 -3.54047e-06 0.00577608)
(9.09372e-06 -3.49411e-06 0.00577418)
(8.86972e-06 -3.10928e-06 0.00577175)
(7.9498e-06 -2.41137e-06 0.00576803)
(8.84266e-06 -3.84082e-06 0.00577702)
(9.41818e-06 -3.61704e-06 0.00577501)
(9.51612e-06 -3.06525e-06 0.00577212)
(8.74792e-06 -2.25818e-06 0.00576729)
(8.96281e-06 -4.1273e-06 0.00577778)
(9.86664e-06 -3.78052e-06 0.00577536)
(1.02611e-05 -3.08509e-06 0.00577138)
(9.65946e-06 -2.17613e-06 0.00576392)
(9.14177e-06 -4.43094e-06 0.00577736)
(1.04171e-05 -4.21634e-06 0.00577392)
(1.12381e-05 -3.70572e-06 0.00576719)
(1.11286e-05 -3.03805e-06 0.00575283)
(6.70224e-06 -2.50064e-06 0.00577606)
(6.77078e-06 -2.46269e-06 0.00577449)
(6.49677e-06 -2.24568e-06 0.00577254)
(5.77999e-06 -1.86206e-06 0.00576932)
(6.68034e-06 -2.67781e-06 0.00577671)
(6.93259e-06 -2.58943e-06 0.00577503)
(6.827e-06 -2.32099e-06 0.00577273)
(6.16497e-06 -1.91538e-06 0.00576859)
(6.68845e-06 -2.83409e-06 0.00577712)
(7.12271e-06 -2.72017e-06 0.00577513)
(7.17807e-06 -2.42921e-06 0.00577191)
(6.60098e-06 -2.03791e-06 0.00576536)
(6.67923e-06 -2.93231e-06 0.0057763)
(7.3031e-06 -2.90898e-06 0.00577347)
(7.5629e-06 -2.74699e-06 0.00576784)
(7.21853e-06 -2.50413e-06 0.00575489)
(4.93832e-06 -1.77938e-06 0.00577614)
(4.95706e-06 -1.75254e-06 0.00577488)
(4.70383e-06 -1.63128e-06 0.0057733)
(4.16166e-06 -1.41839e-06 0.00577046)
(4.92022e-06 -1.8625e-06 0.00577657)
(5.02766e-06 -1.84466e-06 0.00577523)
(4.86672e-06 -1.72528e-06 0.00577337)
(4.34377e-06 -1.52804e-06 0.00576972)
(4.887e-06 -1.94447e-06 0.00577676)
(5.08973e-06 -1.93462e-06 0.00577516)
(5.01842e-06 -1.83133e-06 0.00577247)
(4.54457e-06 -1.67898e-06 0.00576654)
(4.81612e-06 -1.95889e-06 0.00577565)
(5.11582e-06 -2.00993e-06 0.00577331)
(5.14951e-06 -1.99096e-06 0.00576836)
(4.79645e-06 -1.92906e-06 0.00575625)
(3.55548e-06 -1.25431e-06 0.00577625)
(3.5519e-06 -1.2394e-06 0.00577524)
(3.34802e-06 -1.1725e-06 0.00577395)
(2.95206e-06 -1.05295e-06 0.00577139)
(3.53913e-06 -1.28955e-06 0.00577653)
(3.57961e-06 -1.29904e-06 0.00577547)
(3.42628e-06 -1.25142e-06 0.00577393)
(3.03582e-06 -1.15839e-06 0.00577061)
(3.49585e-06 -1.32723e-06 0.00577656)
(3.58646e-06 -1.35535e-06 0.00577526)
(3.48402e-06 -1.33261e-06 0.00577295)
(3.12358e-06 -1.28511e-06 0.00576742)
(3.41608e-06 -1.30918e-06 0.00577527)
(3.55678e-06 -1.37859e-06 0.00577327)
(3.51172e-06 -1.41014e-06 0.00576877)
(3.21965e-06 -1.41759e-06 0.00575715)
(2.47824e-06 -8.59527e-07 0.00577634)
(2.46067e-06 -8.54183e-07 0.00577554)
(2.31221e-06 -8.18325e-07 0.00577445)
(2.03592e-06 -7.50767e-07 0.00577209)
(2.46335e-06 -8.78323e-07 0.00577654)
(2.47183e-06 -8.92618e-07 0.00577568)
(2.34989e-06 -8.75869e-07 0.00577437)
(2.07315e-06 -8.32982e-07 0.00577128)
(2.42361e-06 -8.9028e-07 0.00577645)
(2.46056e-06 -9.24538e-07 0.00577538)
(2.36724e-06 -9.31015e-07 0.00577332)
(2.10881e-06 -9.25043e-07 0.00576806)
(2.3557e-06 -8.62745e-07 0.00577505)
(2.41931e-06 -9.25375e-07 0.00577329)
(2.35848e-06 -9.66637e-07 0.00576907)
(2.14062e-06 -9.93707e-07 0.00575776)
(1.62662e-06 -5.49376e-07 0.00577641)
(1.60492e-06 -5.49254e-07 0.00577575)
(1.50673e-06 -5.31198e-07 0.00577481)
(1.32644e-06 -4.93992e-07 0.00577259)
(1.61437e-06 -5.63198e-07 0.00577655)
(1.60989e-06 -5.74478e-07 0.00577583)
(1.52475e-06 -5.69822e-07 0.00577468)
(1.34191e-06 -5.50839e-07 0.00577175)
(1.58421e-06 -5.6352e-07 0.0057764)
(1.59662e-06 -5.91176e-07 0.00577548)
(1.52683e-06 -6.04255e-07 0.00577359)
(1.35459e-06 -6.11442e-07 0.00576849)
(1.53504e-06 -5.38602e-07 0.00577492)
(1.56163e-06 -5.85188e-07 0.00577332)
(1.50997e-06 -6.19791e-07 0.00576928)
(1.36164e-06 -6.46191e-07 0.00575815)
(9.51485e-07 -2.64652e-07 0.00577645)
(9.34308e-07 -2.6713e-07 0.00577589)
(8.77231e-07 -2.6078e-07 0.00577504)
(7.72488e-07 -2.44205e-07 0.0057729)
(9.42242e-07 -2.77082e-07 0.00577656)
(9.35012e-07 -2.85139e-07 0.00577594)
(8.83429e-07 -2.86217e-07 0.00577488)
(7.76035e-07 -2.8051e-07 0.00577204)
(9.22341e-07 -2.7847e-07 0.00577637)
(9.24243e-07 -2.97127e-07 0.00577555)
(8.79813e-07 -3.09201e-07 0.00577375)
(7.77789e-07 -3.18887e-07 0.00576875)
(8.91454e-07 -2.66653e-07 0.00577485)
(8.99988e-07 -2.96535e-07 0.00577335)
(8.64725e-07 -3.20342e-07 0.00576941)
(7.76015e-07 -3.3969e-07 0.00575839)
(5.05775e-07 5.557e-08 0.00577648)
(4.97483e-07 4.91371e-08 0.00577597)
(4.67508e-07 4.39496e-08 0.00577518)
(4.12508e-07 4.11996e-08 0.0057731)
(4.97082e-07 3.86111e-08 0.00577658)
(4.90757e-07 2.84736e-08 0.00577602)
(4.60942e-07 1.90031e-08 0.00577501)
(4.02928e-07 1.02888e-08 0.00577223)
(4.82049e-07 2.07125e-08 0.00577639)
(4.77551e-07 4.90482e-09 0.00577562)
(4.489e-07 -1.04306e-08 0.00577388)
(3.91369e-07 -2.69304e-08 0.00576894)
(4.61151e-07 4.18052e-09 0.00577485)
(4.57537e-07 -1.67292e-08 0.0057734)
(4.30491e-07 -3.74609e-08 0.00576952)
(3.77426e-07 -5.86298e-08 0.00575856)
(0.000134939 0.000108162 0.0120977)
(0.000696367 -0.000348504 0.00648484)
(0.00234635 -0.000292994 0.0145559)
(0.000106783 0.00071374 0.00580571)
(-4.06064e-05 0.000218304 0.00465123)
(0.000404246 0.00025778 0.00401173)
(0.00219641 0.000176534 0.0093155)
(0.000831147 0.00181188 0.00818892)
(0.000627939 0.00022153 0.0116738)
(0.000772183 0.000736864 0.00749495)
(0.00143666 0.000312589 0.00901011)
(0.00151662 0.00221441 0.0107171)
(3.72476e-05 -5.72908e-05 0.00121284)
(0.000479584 -0.000183263 0.00484903)
(0.00144994 -0.000718427 0.0088426)
(0.000921549 0.000336255 0.00923718)
(-0.00111283 1.83213e-05 0.0129735)
(0.000165205 0.000723614 0.00696057)
(0.000188094 -0.000320149 0.0127489)
(0.00189257 -0.000544134 0.0148755)
(-0.000205055 6.18972e-05 0.0146605)
(-0.000120541 0.000221105 0.0108948)
(3.85156e-05 0.000379494 0.0020317)
(0.000224847 -5.71575e-05 0.0063739)
(0.000364008 0.000207221 0.0108392)
(0.000851313 -0.000235017 0.0158386)
(0.000284384 0.000321955 0.0159028)
(-0.000209496 0.000202356 0.0156647)
(0.00120559 0.00126219 0.0203906)
(-0.000180465 0.000638653 0.0153421)
(-0.000181909 -0.000414078 0.00767172)
(0.000896612 0.000323948 0.0182062)
(2.54265e-05 -0.000114135 0.00614803)
(3.96081e-05 -2.8764e-05 0.0142938)
(-0.000445321 0.000601031 0.010416)
(4.19267e-05 -9.90676e-05 0.000609887)
(-0.000118732 0.00018575 0.00315491)
(0.000264439 -0.00136426 0.0166297)
(-3.93804e-05 -1.15179e-06 0.0109017)
(-0.000289764 -0.000983022 0.0212943)
(-0.000610429 -0.000794777 0.0111171)
(-0.000352769 -0.000424656 0.0056543)
(-0.000611328 -0.00106175 0.0226938)
(-0.000591519 -0.00100821 0.0102326)
(-0.000876531 -0.000977319 0.00720216)
(0.000434625 -0.000910499 0.0154769)
(2.07118e-05 -3.54918e-05 0.00885651)
(-0.000337577 -0.000177637 0.0220609)
(0.000670014 0.000614346 0.0071158)
(-0.000853067 3.4947e-06 0.0175684)
(-0.000615188 7.16977e-05 0.00669199)
(-0.000588803 -0.000606679 0.0104845)
(0.00056507 2.44296e-05 0.0117707)
(-0.000876077 0.000467068 0.0101724)
(-0.000683652 -0.000101255 0.0123777)
(5.68703e-05 -0.00133228 0.0166589)
(-0.000149294 -0.00149722 0.0207615)
(-0.000836811 -0.000301247 0.0158096)
(-0.00138784 0.00045509 0.0132246)
(-0.000330484 -0.000565228 0.0091624)
(-0.000945896 -9.81384e-05 0.014046)
(-0.000598035 -0.00084975 0.0103676)
(-0.000526862 0.000289216 0.0108823)
(-0.000682086 -0.000299995 0.0173421)
(0.000357779 0.000274256 0.0116718)
(-0.00154227 0.00163285 0.020851)
(-0.000437256 -0.000272385 0.0105997)
(-0.000196808 -0.000302819 0.00387902)
(-0.00111768 -0.000607036 0.0208012)
(-0.000289404 0.000358658 0.00679083)
(-0.000703888 1.67026e-05 0.0118516)
(-3.67443e-05 -0.000160086 0.0154586)
(-7.3061e-05 5.36167e-05 0.000888449)
(-0.00111477 0.000439495 0.0237894)
(-0.000505877 0.00136496 0.0219238)
(-0.000298904 -0.000139856 0.00860462)
(-0.000659337 0.000212787 0.00808159)
(-0.000483499 0.000262029 0.0110394)
(-0.00051169 0.000614458 0.010825)
(-0.000939403 -0.000134544 0.0182927)
(-0.00286843 0.00412534 0.0188439)
(0.000620957 -7.93644e-05 0.00515445)
(0.00110246 0.000923723 0.00701197)
(-0.000278141 0.000575145 0.00280976)
(2.27881e-05 0.000159049 0.00121304)
(0.000187574 0.00161153 0.00941519)
(-0.000115861 0.00124383 0.00444707)
(-0.000597461 0.00119896 0.00933748)
(-0.000895486 0.000944905 0.0122234)
(-7.64074e-05 0.000801639 0.00712143)
(0.000451758 -0.00104914 0.00605639)
(-9.5058e-05 0.000688625 0.00595746)
(-0.000294663 0.000298514 0.00766335)
(-0.000413392 0.000341736 0.00677255)
(-0.000346363 0.000108457 0.010248)
(-0.000728569 0.000191612 0.00706323)
(0.000182978 1.34106e-06 0.00278448)
(0.00174003 0.00068508 0.00619065)
(0.000225389 0.000707769 0.00728387)
(-0.00127666 0.00262514 0.00665663)
(-0.000137814 -8.79298e-05 0.0106356)
(-0.00100849 -0.00107543 0.00616822)
(-0.00172113 -0.000738145 0.00918617)
(-0.00433145 -0.0043328 0.00527509)
(-2.04735e-05 0.000331176 0.00810462)
(8.43315e-05 -0.00104005 0.0119318)
(0.00147538 -0.000115205 0.0114916)
(-0.000672357 -0.00013024 0.00951983)
(0.000131121 5.16704e-05 0.00691433)
(-0.00165077 -0.00100326 0.00689256)
(-0.000464559 -0.000174128 0.00816886)
(-0.000529065 -0.000622314 0.00995797)
(-0.000387492 0.000483702 0.00940245)
(-0.000738914 0.00253832 0.0137947)
(-0.00252415 0.00182009 0.0148495)
(-0.0025955 -0.000831021 0.0178142)
(-0.000622059 0.000303385 0.0152637)
(-0.000474724 0.000782282 0.0162032)
(-0.000681552 0.000652661 0.0147684)
(-0.00118054 -0.00218666 0.010715)
(0.000227345 0.000288446 0.0121326)
(0.000550987 0.000427724 0.0139893)
(0.000972985 6.16236e-05 0.0129901)
(0.000848995 -0.00255066 0.00899281)
(0.000888711 -1.97568e-05 0.0107805)
(0.000799198 -6.62949e-05 0.00996017)
(0.00125825 -0.000426572 0.0113124)
(0.0021993 -0.00240293 0.0105932)
(-0.000468335 -0.000704029 0.00316422)
(-0.00128499 -6.82043e-05 0.00331702)
(-0.00161968 0.000482229 0.00360741)
(-0.000401317 -1.197e-05 0.00368593)
(-0.00059228 -6.54224e-05 0.00395857)
(-0.000617926 0.000231552 0.00432405)
(-0.000326893 0.000417896 0.00354284)
(0.000519435 -0.000449638 0.0020481)
(-0.000111072 0.000317664 0.00353898)
(-3.55716e-05 0.000614637 0.00392947)
(0.000455362 0.000273485 0.00291179)
(0.000936548 -0.000898373 0.000972958)
(0.000354498 8.17887e-05 0.00321818)
(0.000123478 0.000262148 0.00301988)
(0.000477498 -6.6741e-05 0.00237867)
(0.00115469 -0.00108112 0.000704161)
(-9.72859e-05 -0.000397043 0.00677466)
(-6.83713e-05 -0.000250802 0.0070777)
(0.000170195 5.8435e-05 0.0072289)
(0.000842973 0.000201159 0.00733224)
(-7.19987e-05 -0.000113942 0.0071083)
(0.000187908 -3.82429e-05 0.00745708)
(0.000645579 6.7666e-05 0.00720425)
(0.00117437 -2.42496e-05 0.00677317)
(0.000111138 7.32754e-05 0.00689852)
(0.000395109 0.000142662 0.00722381)
(0.000882244 -1.8133e-05 0.00688395)
(0.00124091 -0.000387392 0.00626072)
(0.000286907 2.69494e-05 0.00663715)
(0.000427103 1.04223e-05 0.00677185)
(0.000807358 -0.000252076 0.00656968)
(0.00114661 -0.000740663 0.00602306)
(-2.96909e-05 -0.000169036 0.00570234)
(7.28341e-06 -0.000137924 0.00576558)
(0.0001166 -2.52955e-05 0.00564188)
(0.000351878 1.09053e-05 0.00545114)
(-8.22783e-06 -7.08517e-05 0.00579073)
(8.39017e-05 -5.40857e-05 0.00584399)
(0.000254407 3.76558e-06 0.00555347)
(0.000443334 -2.85478e-05 0.0051617)
(4.90007e-05 -1.82005e-05 0.00570593)
(0.000140515 -7.88907e-06 0.00572613)
(0.000309613 -3.9236e-05 0.00536353)
(0.000433045 -0.000156143 0.00487797)
(0.000101508 -1.11515e-05 0.0055269)
(0.000148301 -3.091e-05 0.00549005)
(0.000285029 -0.000115781 0.00514949)
(0.000391624 -0.000276222 0.00466937)
(2.12689e-05 -8.02308e-05 0.00584201)
(6.34548e-05 -7.09655e-05 0.00587761)
(0.000137956 -2.56436e-05 0.00583433)
(0.000229387 -3.63169e-07 0.005778)
(3.4764e-05 -4.62547e-05 0.00585546)
(9.34827e-05 -4.5822e-05 0.00588815)
(0.000187132 -2.18977e-05 0.00578893)
(0.000260802 -2.5159e-05 0.00567663)
(5.4229e-05 -1.73318e-05 0.00579849)
(0.000113187 -2.38073e-05 0.0058195)
(0.000206295 -3.60124e-05 0.00568845)
(0.000256685 -7.61538e-05 0.00554899)
(7.13279e-05 -7.24894e-06 0.00567546)
(0.000115834 -2.82543e-05 0.00568587)
(0.000193059 -7.45477e-05 0.00555479)
(0.000228631 -0.00014235 0.00541808)
(2.6149e-05 -3.91748e-05 0.00580548)
(4.84821e-05 -3.55028e-05 0.00580655)
(7.98172e-05 -1.77401e-05 0.00576566)
(0.000111366 -1.05048e-05 0.00570212)
(3.2812e-05 -2.75632e-05 0.00579955)
(5.99947e-05 -2.88541e-05 0.00579445)
(9.64205e-05 -1.87516e-05 0.00572367)
(0.00011939 -2.18384e-05 0.00563209)
(3.92514e-05 -1.4975e-05 0.00574614)
(6.59296e-05 -2.23345e-05 0.005734)
(0.000100733 -2.66208e-05 0.00564171)
(0.000112909 -4.43062e-05 0.00553379)
(4.36658e-05 -6.85382e-06 0.00562586)
(6.60315e-05 -2.08325e-05 0.00561031)
(9.46261e-05 -4.10992e-05 0.0055136)
(0.000100803 -6.88249e-05 0.0054071)
(2.23323e-05 -2.07246e-05 0.00578899)
(3.40964e-05 -1.90786e-05 0.00578267)
(4.78313e-05 -1.20926e-05 0.00575643)
(5.85925e-05 -8.45142e-06 0.00571391)
(2.51739e-05 -1.64316e-05 0.00577476)
(3.8709e-05 -1.76347e-05 0.00576279)
(5.38688e-05 -1.40623e-05 0.00571992)
(6.05693e-05 -1.44018e-05 0.00566184)
(2.70857e-05 -1.0508e-05 0.00572095)
(4.04109e-05 -1.54453e-05 0.00570391)
(5.47249e-05 -1.77522e-05 0.00564777)
(5.67567e-05 -2.40161e-05 0.00558074)
(2.79742e-05 -5.0768e-06 0.00560453)
(4.02008e-05 -1.36145e-05 0.00558723)
(5.2077e-05 -2.3832e-05 0.00552906)
(5.09159e-05 -3.48887e-05 0.00546651)
(1.71709e-05 -1.18402e-05 0.00578002)
(2.32006e-05 -1.1164e-05 0.00577256)
(2.9044e-05 -8.44969e-06 0.00575361)
(3.22285e-05 -6.62585e-06 0.00572024)
(1.82169e-05 -1.0002e-05 0.00576209)
(2.49865e-05 -1.09141e-05 0.00574961)
(3.10586e-05 -9.88155e-06 0.00571918)
(3.21698e-05 -9.68743e-06 0.00567413)
(1.8521e-05 -6.93015e-06 0.00570727)
(2.52629e-05 -9.95767e-06 0.00569027)
(3.0799e-05 -1.15898e-05 0.0056502)
(2.96718e-05 -1.38136e-05 0.00559834)
(1.83902e-05 -3.46671e-06 0.00559157)
(2.48648e-05 -8.54805e-06 0.00557458)
(2.93345e-05 -1.40517e-05 0.0055338)
(2.65962e-05 -1.86238e-05 0.00548681)
(1.26767e-05 -7.14042e-06 0.00577502)
(1.57304e-05 -6.9603e-06 0.00576827)
(1.81581e-05 -5.96325e-06 0.00575349)
(1.87915e-05 -5.02052e-06 0.00572547)
(1.29385e-05 -6.20517e-06 0.00575528)
(1.63491e-05 -6.90983e-06 0.00574404)
(1.87109e-05 -6.81817e-06 0.00572005)
(1.8223e-05 -6.59347e-06 0.00568208)
(1.27233e-05 -4.48186e-06 0.00569963)
(1.61592e-05 -6.3548e-06 0.00568415)
(1.81758e-05 -7.56071e-06 0.00565227)
(1.65545e-05 -8.34313e-06 0.00560853)
(1.23505e-05 -2.30615e-06 0.00558386)
(1.5743e-05 -5.38228e-06 0.00556837)
(1.72592e-05 -8.5308e-06 0.00553676)
(1.47871e-05 -1.05192e-05 0.00549838)
(9.19138e-06 -4.46967e-06 0.0057721)
(1.07236e-05 -4.52159e-06 0.0057663)
(1.16832e-05 -4.22585e-06 0.00575392)
(1.1531e-05 -3.77556e-06 0.00572885)
(9.14454e-06 -3.91432e-06 0.0057514)
(1.08581e-05 -4.47344e-06 0.00574149)
(1.17088e-05 -4.69089e-06 0.00572091)
(1.09293e-05 -4.5889e-06 0.00568665)
(8.80501e-06 -2.88753e-06 0.00569519)
(1.0546e-05 -4.09527e-06 0.00568122)
(1.11735e-05 -4.98072e-06 0.00565357)
(9.78743e-06 -5.31628e-06 0.00561405)
(8.42928e-06 -1.52366e-06 0.00557923)
(1.01747e-05 -3.44003e-06 0.00556524)
(1.05445e-05 -5.32809e-06 0.00553836)
(8.70423e-06 -6.30552e-06 0.00550449)
(6.60271e-06 -2.87031e-06 0.0057704)
(7.36787e-06 -3.0099e-06 0.00576539)
(7.70835e-06 -2.99132e-06 0.00575442)
(7.37301e-06 -2.80261e-06 0.005731)
(6.45616e-06 -2.50649e-06 0.00574917)
(7.31419e-06 -2.9483e-06 0.00574029)
(7.56391e-06 -3.23457e-06 0.0057216)
(6.87162e-06 -3.23905e-06 0.00568936)
(6.13283e-06 -1.86659e-06 0.00569259)
(7.00614e-06 -2.67645e-06 0.00567979)
(7.11087e-06 -3.31807e-06 0.00565442)
(6.08626e-06 -3.51779e-06 0.0056172)
(5.82014e-06 -1.00738e-06 0.00557649)
(6.7003e-06 -2.23757e-06 0.00556367)
(6.66436e-06 -3.41495e-06 0.00553932)
(5.39058e-06 -3.96504e-06 0.00550792)
(4.70438e-06 -1.87187e-06 0.0057694)
(5.08476e-06 -2.02666e-06 0.00576497)
(5.17227e-06 -2.1043e-06 0.00575485)
(4.84877e-06 -2.0426e-06 0.00573237)
(4.54565e-06 -1.62295e-06 0.00574787)
(4.97344e-06 -1.96434e-06 0.00573971)
(4.99637e-06 -2.22975e-06 0.0057221)
(4.46633e-06 -2.28809e-06 0.005691)
(4.27924e-06 -1.21244e-06 0.00569107)
(4.71237e-06 -1.76905e-06 0.00567907)
(4.64122e-06 -2.22874e-06 0.00565498)
(3.92363e-06 -2.37727e-06 0.00561904)
(4.03864e-06 -6.67914e-07 0.00557487)
(4.47263e-06 -1.47628e-06 0.00556288)
(4.32012e-06 -2.23193e-06 0.00553992)
(3.46202e-06 -2.57745e-06 0.00550991)
(3.30962e-06 -1.22682e-06 0.00576881)
(3.49744e-06 -1.36404e-06 0.00576479)
(3.49077e-06 -1.46181e-06 0.00575519)
(3.23149e-06 -1.4552e-06 0.00573326)
(3.17193e-06 -1.05505e-06 0.0057471)
(3.38382e-06 -1.31041e-06 0.00573943)
(3.33373e-06 -1.52659e-06 0.00572247)
(2.9533e-06 -1.60012e-06 0.00569201)
(2.96792e-06 -7.88216e-07 0.00569016)
(3.17953e-06 -1.17299e-06 0.00567871)
(3.06809e-06 -1.49792e-06 0.00565536)
(2.57831e-06 -1.61551e-06 0.00562016)
(2.79091e-06 -4.42349e-07 0.00557391)
(2.99881e-06 -9.79445e-07 0.00556247)
(2.83763e-06 -1.47225e-06 0.00554032)
(2.26691e-06 -1.7037e-06 0.0055111)
(2.26989e-06 -7.9548e-07 0.00576847)
(2.36161e-06 -9.02942e-07 0.00576471)
(2.32819e-06 -9.90144e-07 0.00575544)
(2.13803e-06 -1.00302e-06 0.00573384)
(2.16347e-06 -6.78755e-07 0.00574664)
(2.26712e-06 -8.61578e-07 0.00573929)
(2.20518e-06 -1.02385e-06 0.00572272)
(1.94355e-06 -1.09178e-06 0.00569265)
(2.0161e-06 -5.06354e-07 0.00568962)
(2.1171e-06 -7.6825e-07 0.00567853)
(2.01517e-06 -9.91944e-07 0.00565562)
(1.6887e-06 -1.08228e-06 0.00562085)
(1.8912e-06 -2.88795e-07 0.00557335)
(1.98665e-06 -6.42964e-07 0.00556227)
(1.85348e-06 -9.63192e-07 0.00554059)
(1.48004e-06 -1.11983e-06 0.00551183)
(1.47408e-06 -4.90686e-07 0.00576826)
(1.51722e-06 -5.66136e-07 0.00576468)
(1.48388e-06 -6.31618e-07 0.00575561)
(1.35519e-06 -6.47708e-07 0.00573421)
(1.39975e-06 -4.16264e-07 0.00574637)
(1.44841e-06 -5.38386e-07 0.00573923)
(1.39703e-06 -6.50124e-07 0.00572289)
(1.22707e-06 -7.02573e-07 0.00569305)
(1.30076e-06 -3.10418e-07 0.00568931)
(1.34641e-06 -4.79662e-07 0.00567843)
(1.26976e-06 -6.2516e-07 0.00565579)
(1.06199e-06 -6.89049e-07 0.00562128)
(1.21784e-06 -1.79964e-07 0.00557302)
(1.25835e-06 -4.03567e-07 0.00556217)
(1.16221e-06 -6.03388e-07 0.00554076)
(9.27789e-07 -7.04589e-07 0.00551228)
(8.53759e-07 -2.44488e-07 0.00576815)
(8.70674e-07 -2.90925e-07 0.00576468)
(8.45916e-07 -3.32963e-07 0.00575572)
(7.6769e-07 -3.45942e-07 0.00573442)
(8.0799e-07 -2.09918e-07 0.00574623)
(8.26531e-07 -2.81991e-07 0.0057392)
(7.91257e-07 -3.48928e-07 0.005723)
(6.90931e-07 -3.81363e-07 0.00569328)
(7.48564e-07 -1.59125e-07 0.00568913)
(7.64347e-07 -2.56165e-07 0.00567839)
(7.14446e-07 -3.39062e-07 0.00565589)
(5.93983e-07 -3.75767e-07 0.00562152)
(6.98446e-07 -9.65654e-08 0.00557284)
(7.09856e-07 -2.22041e-07 0.00556212)
(6.48457e-07 -3.31917e-07 0.00554087)
(5.13859e-07 -3.8636e-07 0.00551254)
(4.37395e-07 -1.14164e-08 0.00576814)
(4.34196e-07 -3.96309e-08 0.00576472)
(4.0972e-07 -6.6958e-08 0.00575583)
(3.61943e-07 -8.40288e-08 0.00573459)
(4.09877e-07 -2.44497e-08 0.0057462)
(4.03991e-07 -6.19555e-08 0.00573924)
(3.73217e-07 -9.52906e-08 0.00572311)
(3.15532e-07 -1.12623e-07 0.00569347)
(3.75537e-07 -3.31376e-08 0.0056891)
(3.65278e-07 -8.07041e-08 0.00567842)
(3.25288e-07 -1.17076e-07 0.00565601)
(2.5803e-07 -1.29373e-07 0.00562171)
(3.43107e-07 -3.33671e-08 0.0055728)
(3.27086e-07 -9.00987e-08 0.00556216)
(2.80457e-07 -1.32739e-07 0.00554099)
(2.07286e-07 -1.45621e-07 0.00551274)
(0.00225596 5.01069e-05 0.0117041)
(0.00257493 -0.00035925 0.0112184)
(0.00122239 -0.000312792 0.00565173)
(0.00119457 -0.000668425 0.00926058)
(0.00112265 -0.000474427 0.0070491)
(0.00203946 -0.000454089 0.0116046)
(0.000639027 -0.000553841 0.00688483)
(0.000251555 -0.000949631 0.00754825)
(-1.39465e-05 0.00044937 0.00297582)
(0.00137696 7.80293e-05 0.00949434)
(0.00115294 0.000388754 0.00935277)