/*--------------------------------*- C++ -*----------------------------------*\
| =========                 |                                                 |
| \\      /  F ield         | OpenFOAM: The Open Source CFD Toolbox           |
|  \\    /   O peration     | Version:  2506                                  |
|   \\  /    A nd           | Website:  www.openfoam.com                      |
|    \\/     M anipulation  |                                                 |
\*---------------------------------------------------------------------------*/
FoamFile
{
    version     2.0;
    format      ascii;
    arch        "LSB;label=32;scalar=64";
    class       volVectorField;
    location    "0.02";
    object      Us;
}
// * * * * * * * * * * * * * * * * * * * * * * * * * * * * * * * * * * * * * //

dimensions      [0 1 -1 0 0 0 0];

internalField   nonuniform List<vector> 
1152
(
(9.08228e-05 0.000107577 4.59055e-06)
(4.31715e-05 0.000418038 0.000105015)
(-0.000113318 1.53219e-06 2.67698e-05)
(-9.41188e-05 -5.07723e-05 -2.62249e-07)
(1.57696e-05 2.09143e-05 4.70666e-05)
(3.50041e-05 1.34778e-05 3.94848e-05)
(-5.87575e-05 -4.75594e-05 3.86705e-05)
(2.07151e-06 -2.78146e-05 -2.75241e-06)
(-3.29653e-05 6.79061e-06 5.51204e-05)
(-6.70264e-05 1.83142e-05 6.48719e-05)
(-8.42167e-05 1.63182e-05 8.06477e-05)
(-0.000107931 -6.45982e-05 -5.60656e-05)
(-3.253e-05 0.000240881 3.95762e-05)
(-5.7741e-05 -5.44029e-05 4.18865e-05)
(-0.000101595 2.8258e-05 5.3976e-05)
(-8.49022e-05 2.94738e-05 3.8088e-05)
(-1.07429e-05 -0.000174923 -0.000259361)
(-1.66325e-05 8.47762e-05 0.000195374)
(-1.32678e-05 5.29353e-05 0.000165856)
(2.21812e-06 6.00038e-05 0.000139633)
(-3.16575e-05 -8.81655e-06 0.000202342)
(-4.1759e-05 7.70993e-05 0.000165898)
(1.25681e-06 0.000112657 0.000178914)
(3.55196e-05 8.02457e-05 0.000113762)
(-0.00013021 1.84087e-05 0.000182416)
(-8.27523e-05 4.56602e-05 0.000153948)
(-6.67157e-06 0.000110447 0.000227054)
(-4.06018e-05 0.000107745 0.000178209)
(-4.95768e-05 -1.07298e-05 0.000171737)
(-7.18132e-06 1.91632e-05 0.00017439)
(2.10852e-06 0.000151531 0.000164749)
(-9.55212e-05 0.00012631 8.8107e-05)
(-0.000132406 6.66434e-05 0.000272535)
(3.04019e-05 0.000127651 0.000392355)
(7.41634e-05 0.000120424 0.000291323)
(0.000125552 0.000109187 0.00031464)
(-4.25556e-05 0.00016976 0.000305125)
(9.13887e-05 0.000124691 0.000278395)
(0.000129066 7.8802e-05 0.000352787)
(9.10588e-05 0.000124952 0.000246199)
(9.74509e-06 0.000128062 0.000333227)
(7.75299e-05 0.000135235 0.000363954)
(5.50501e-05 0.000130918 0.00031768)
(-4.29027e-06 0.000170506 0.000355955)
(3.01991e-05 0.000107404 0.000261595)
(2.09787e-05 0.000121396 0.000278741)
(-1.16651e-06 0.000133214 0.000318173)
(-5.62444e-05 7.90162e-05 0.000377687)
(-4.37255e-05 0.000153447 0.000474574)
(0.000120639 0.00018695 0.000520836)
(5.73846e-05 0.000115839 0.000501771)
(0.000156013 9.16288e-05 0.000470518)
(1.93194e-05 0.00017365 0.000564401)
(0.000108606 0.000211608 0.00052224)
(9.42898e-05 0.000195577 0.000524584)
(5.46494e-05 0.0001249 0.000508962)
(3.62219e-05 0.000186079 0.000482171)
(9.69059e-05 0.000136525 0.000453268)
(2.50528e-05 0.00021076 0.000471091)
(5.76652e-05 0.000176771 0.000624316)
(5.17866e-05 0.000153327 0.000450373)
(2.32576e-05 2.82596e-05 0.00045472)
(-3.91177e-05 8.35584e-06 0.000531444)
(5.14462e-05 8.70021e-05 0.00049258)
(-7.16539e-05 0.000159321 0.000482)
(3.94108e-05 0.000203158 0.000549288)
(4.9493e-06 7.93455e-05 0.000625754)
(0.000166059 4.21051e-05 0.000483978)
(-1.68139e-05 0.000291596 0.000570749)
(0.000119481 0.000213029 0.00063379)
(-1.94726e-05 0.000179681 0.000777029)
(-3.38517e-05 8.10435e-05 0.00070191)
(7.32771e-05 0.000213754 0.000586445)
(3.87754e-05 5.07137e-05 0.00068181)
(3.2532e-05 0.000171427 0.000761108)
(7.8636e-05 9.64973e-05 0.000813339)
(0.00011763 0.000110918 0.000551399)
(5.43463e-05 2.05752e-05 0.000615111)
(1.85102e-05 0.000115417 0.000567808)
(0.000142438 -5.3838e-06 0.000548774)
(-0.000160799 6.27199e-05 0.000496569)
(-0.000259326 -8.21392e-05 0.000739931)
(-6.69594e-05 0.00018815 0.00109831)
(2.83189e-05 -0.000130173 0.000544028)
(3.59711e-05 0.000157559 0.000527181)
(9.18033e-05 0.00026263 0.000713504)
(2.58887e-05 0.000111543 0.000708691)
(-0.000102972 1.9759e-05 0.000656065)
(9.71826e-05 0.000159013 0.000691992)
(0.000132021 0.000247637 0.000755614)
(0.00011018 -3.77588e-05 0.000932159)
(9.46034e-05 0.000150336 0.000839624)
(9.67696e-05 7.64282e-05 0.000633008)
(-4.00518e-05 0.000157571 0.000545419)
(0.000127293 -6.03194e-05 0.000455082)
(6.50895e-05 0.000152261 0.000221182)
(0.000738322 0.000244103 6.92993e-05)
(-0.000382063 -0.000466031 0.000651469)
(-0.00140551 0.0016131 0.00164435)
(-5.89204e-05 -4.69332e-05 0.000572928)
(0.000186342 0.000337888 0.000403083)
(-0.000178677 0.000125402 0.000527407)
(-0.00159328 0.00229579 0.000889818)
(5.25791e-05 1.72762e-05 6.48248e-05)
(0.000150134 -0.000146872 0.00053365)
(-0.00250419 -0.00319359 0.00153872)
(9.59902e-05 -0.000494106 0.000964361)
(0.00112474 -0.000206469 0.000163815)
(-0.000308623 5.83833e-05 0.000609106)
(0.00131585 -0.000374978 -0.000182746)
(0.00178882 -0.00130588 -0.000823171)
(-0.000509348 0.000318287 -0.000440448)
(0 0 0)
(0 0 0)
(0 0 0)
(0 0 0)
(0 0 0)
(0 0 0)
(0 0 0)
(0 0 0)
(0 0 0)
(0 0 0)
(0 0 0)
(0 0 0)
(0 0 0)
(0 0 0)
(0 0 0)
(0 0 0)
(0 0 0)
(0 0 0)
(0 0 0)
(0 0 0)
(0 0 0)
(0 0 0)
(0 0 0)
(0 0 0)
(0 0 0)
(0 0 0)
(0 0 0)
(0 0 0)
(0 0 0)
(0 0 0)
(0 0 0)
(0 0 0)
(0 0 0)
(0 0 0)
(0 0 0)
(0 0 0)
(0 0 0)
(0 0 0)
(0 0 0)
(0 0 0)
(0 0 0)
(0 0 0)
(0 0 0)
(0 0 0)
(0 0 0)
(0 0 0)
(0 0 0)
(0 0 0)
(0 0 0)
(0 0 0)
(0 0 0)
(0 0 0)
(0 0 0)
(0 0 0)
(0 0 0)
(0 0 0)
(0 0 0)
(0 0 0)
(0 0 0)
(0 0 0)
(0 0 0)
(0 0 0)
(0 0 0)
(0 0 0)
(0 0 0)
(0 0 0)
(0 0 0)
(0 0 0)
(0 0 0)
(0 0 0)
(0 0 0)
(0 0 0)
(0 0 0)
(0 0 0)
(0 0 0)
(0 0 0)
(0 0 0)
(0 0 0)
(0 0 0)
(0 0 0)
(0 0 0)
(0 0 0)
(0 0 0)
(0 0 0)
(0 0 0)
(0 0 0)
(0 0 0)
(0 0 0)
(0 0 0)
(0 0 0)
(0 0 0)
(0 0 0)
(0 0 0)
(0 0 0)
(0 0 0)
(0 0 0)
(0 0 0)
(0 0 0)
(0 0 0)
(0 0 0)
(0 0 0)
(0 0 0)
(0 0 0)
(0 0 0)
(0 0 0)
(0 0 0)
(0 0 0)
(0 0 0)
(0 0 0)
(0 0 0)
(0 0 0)
(0 0 0)
(0 0 0)
(0 0 0)
(0 0 0)
(0 0 0)
(0 0 0)
(0 0 0)
(0 0 0)
(0 0 0)
(0 0 0)
(0 0 0)
(0 0 0)
(0 0 0)
(0 0 0)
(0 0 0)
(0 0 0)
(0 0 0)
(0 0 0)
(0 0 0)
(0 0 0)
(0 0 0)
(0 0 0)
(0 0 0)
(0 0 0)
(0 0 0)
(0 0 0)
(0 0 0)
(0 0 0)
(0 0 0)
(0 0 0)
(0 0 0)
(0 0 0)
(0 0 0)
(0 0 0)
(0 0 0)
(0 0 0)
(0 0 0)
(0 0 0)
(0 0 0)
(0 0 0)
(0 0 0)
(0 0 0)
(0 0 0)
(0 0 0)
(0 0 0)
(0 0 0)
(0 0 0)
(0 0 0)
(0 0 0)
(0 0 0)
(0 0 0)
(0 0 0)
(0 0 0)
(0 0 0)
(0 0 0)
(0 0 0)
(0 0 0)
(0 0 0)
(0 0 0)
(0 0 0)
(0 0 0)
(0 0 0)
(0 0 0)
(0 0 0)
(0 0 0)
(0 0 0)
(0 0 0)
(0 0 0)
(0 0 0)
(0 0 0)
(0 0 0)
(0 0 0)
(0 0 0)
(0 0 0)
(0 0 0)
(0 0 0)
(0 0 0)
(0 0 0)
(0 0 0)
(0 0 0)
(0 0 0)
(0 0 0)
(0 0 0)
(0 0 0)
(0 0 0)
(0 0 0)
(0 0 0)
(0 0 0)
(0 0 0)
(0 0 0)
(0 0 0)
(0 0 0)
(0 0 0)
(0 0 0)
(0 0 0)
(0 0 0)
(0 0 0)
(0 0 0)
(0 0 0)
(0 0 0)
(0 0 0)
(0 0 0)
(0 0 0)
(0 0 0)
(0 0 0)
(0 0 0)
(0 0 0)
(0 0 0)
(0 0 0)
(0 0 0)
(0 0 0)
(0 0 0)
(0 0 0)
(0 0 0)
(0 0 0)
(0 0 0)
(0 0 0)
(0 0 0)
(0 0 0)
(0 0 0)
(0 0 0)
(0 0 0)
(0 0 0)
(0 0 0)
(0 0 0)
(0 0 0)
(0 0 0)
(0 0 0)
(0 0 0)
(0 0 0)
(0 0 0)
(0 0 0)
(0 0 0)
(0 0 0)
(0 0 0)
(0 0 0)
(0 0 0)
(0 0 0)
(0 0 0)
(0 0 0)
(0 0 0)
(0 0 0)
(0 0 0)
(0 0 0)
(0 0 0)
(0 0 0)
(0 0 0)
(0 0 0)
(0 0 0)
(0 0 0)
(0 0 0)
(0 0 0)
(0 0 0)
(0 0 0)
(0 0 0)
(0 0 0)
(0 0 0)
(0 0 0)
(0 0 0)
(0 0 0)
(0 0 0)
(-7.81271e-05 -0.000109789 1.96865e-05)
(0.000201536 -2.36102e-05 -8.94542e-05)
(-2.54433e-05 -3.28595e-05 2.12815e-05)
(-7.22799e-05 3.53189e-05 9.64922e-05)
(2.39042e-07 -3.59239e-05 2.16156e-05)
(-6.16931e-06 -3.63409e-05 -6.57029e-05)
(2.0717e-05 -3.82685e-05 1.03239e-05)
(-4.18155e-05 7.62416e-06 2.08294e-05)
(-3.99161e-05 -3.51664e-05 5.94969e-05)
(-2.34158e-05 -1.44106e-05 9.36125e-05)
(-4.61777e-05 4.71521e-06 7.49824e-05)
(3.36425e-05 -2.45006e-05 4.72097e-05)
(-4.59512e-06 1.04736e-05 5.24146e-05)
(-1.86957e-05 -2.33145e-05 2.52645e-05)
(9.3736e-06 -2.4042e-05 4.00048e-05)
(-1.08058e-05 -1.9135e-05 1.04217e-05)
(1.24355e-05 -1.37757e-05 0.000167187)
(4.39654e-05 8.36304e-05 3.98856e-05)
(-4.58026e-05 0.000257553 1.57989e-05)
(-8.579e-06 0.000294354 0.000192778)
(-5.93585e-05 -9.65861e-06 8.50937e-05)
(-4.02074e-05 2.36098e-05 0.000123838)
(-4.77021e-06 0.000205158 4.20482e-06)
(-8.50624e-05 1.46006e-05 3.11642e-06)
(-9.71827e-05 -0.000148392 0.000147349)
(-9.0067e-05 -2.31885e-05 0.000248629)
(1.22027e-05 1.06649e-05 0.000173345)
(4.71406e-06 -4.47854e-05 0.000112175)
(-7.86506e-05 -2.71437e-05 0.000109822)
(-4.80567e-05 -3.22099e-05 0.000133705)
(-2.1238e-05 -2.75017e-06 8.31685e-05)
(6.6592e-05 -7.5501e-05 0.000118333)
(-8.01261e-06 3.36481e-05 0.000211315)
(4.64182e-05 2.21604e-05 0.000216809)
(8.75858e-05 -2.2582e-05 0.000217817)
(3.18154e-05 -8.6572e-05 0.00045258)
(-6.60956e-05 3.44256e-05 0.000221052)
(8.86333e-06 2.07702e-05 0.000257353)
(-3.51472e-05 -1.76608e-05 0.000291445)
(1.38715e-06 -4.75645e-05 0.000399247)
(-3.38584e-05 -5.34966e-05 0.000268287)
(-4.00308e-05 -3.27647e-06 0.000246518)
(-0.000161604 -0.000120574 0.000211973)
(-0.000222376 -9.36173e-05 0.000294877)
(-1.63784e-05 -0.000156166 0.000230378)
(-4.15864e-05 8.95256e-07 0.000244423)
(-0.000170038 2.25382e-05 -4.392e-06)
(-4.04589e-06 -6.39226e-05 0.000215839)
(1.99562e-05 5.32361e-05 0.000423647)
(-5.18758e-05 6.48837e-06 0.000392837)
(-8.435e-05 3.66531e-06 0.000320491)
(-1.59507e-05 -2.57357e-05 0.000340077)
(-3.49195e-05 3.17469e-05 0.000365035)
(-4.33042e-05 3.48214e-06 0.000329546)
(-3.63894e-05 -1.17748e-05 0.000300923)
(1.13873e-05 -0.000208481 0.000323667)
(-7.90909e-05 -8.50984e-06 0.000331186)
(-2.85564e-05 -4.23819e-05 0.000304557)
(-6.92669e-05 7.43231e-05 0.000167614)
(-9.64803e-05 -0.000109131 0.000321957)
(-0.000108132 7.49176e-06 0.000204996)
(-7.383e-05 -1.19663e-05 0.000455582)
(-0.000163676 9.8915e-05 0.000166854)
(-9.56353e-05 7.95348e-05 0.000174938)
(1.73961e-05 1.70322e-05 0.000536612)
(8.16532e-05 9.31401e-05 0.000499684)
(-3.9481e-06 -1.30839e-05 0.000321843)
(1.00186e-05 -0.000253085 7.50496e-05)
(-1.16583e-05 -1.57259e-05 0.000426989)
(5.63495e-05 8.42998e-05 0.000361226)
(0.000125809 -4.86866e-05 0.000158067)
(0.000338537 -0.000150412 -0.000287842)
(-5.64727e-05 3.61101e-05 0.000377035)
(3.83771e-05 5.98411e-05 0.000316499)
(0.000225628 -0.000112809 0.00028829)
(1.98342e-05 -5.34068e-05 -1.0645e-05)
(-0.000135059 2.19056e-05 0.000224585)
(-0.000113764 5.72469e-05 0.000211224)
(-1.2768e-05 -4.09628e-05 0.000269952)
(-1.53014e-05 -1.70973e-06 7.13297e-05)
(2.47715e-05 0.00015179 0.000530042)
(8.57418e-05 0.000116513 0.000376134)
(0.00017243 0.000382105 6.72367e-05)
(-0.000186537 0.000641486 -0.000647018)
(1.40996e-05 -6.79298e-06 0.000452428)
(1.21206e-05 0.000126449 0.000110549)
(4.14716e-05 0.000864073 -0.000659791)
(0.000149597 0.000258829 9.3749e-05)
(-7.84058e-05 2.17012e-05 0.000413699)
(5.54406e-05 0.000190145 0.000211713)
(0.000465544 -0.00109202 -0.000513542)
(7.9682e-05 -0.000151337 0.000141793)
(-9.99606e-05 1.71471e-05 0.000190469)
(-0.000175977 -8.57168e-07 0.000164256)
(2.99692e-05 -0.000211987 0.000640093)
(-6.45692e-05 -8.44713e-05 0.000277993)
(0.000300418 0.000118834 0.000565728)
(0.00191754 0.00076043 -0.0015769)
(-0.00064695 0.00102223 -0.00122229)
(-0.00232173 0.00275816 -0.00421965)
(9.23864e-05 1.5125e-05 0.000387706)
(-0.00134974 -0.00164161 -0.00114026)
(-0.0027283 -0.000823976 0.00166156)
(-0.00440295 -0.00449188 0.00283669)
(-0.000104522 3.88949e-05 0.000305505)
(5.31344e-06 -0.00123591 -0.000348071)
(0.00116816 0.000255325 0.000447889)
(-0.000217399 0.000559409 0.000445115)
(1.72043e-05 2.389e-06 0.000156095)
(-0.00165793 -0.00112092 -0.00043661)
(-0.000489738 -0.000306363 0.000330366)
(-0.000260162 -0.000279647 0.000285176)
(0 0 0)
(0.0107425 0.00468211 -0.01138)
(0 0 0)
(0 0 0)
(0 0 0)
(0 0 0)
(0 0 0)
(0 0 0)
(0 0 0)
(0 0 0)
(0 0 0)
(0 0 0)
(0 0 0)
(0 0 0)
(0 0 0)
(0 0 0)
(0 0 0)
(0 0 0)
(0 0 0)
(0 0 0)
(0 0 0)
(0 0 0)
(0 0 0)
(0 0 0)
(0 0 0)
(0 0 0)
(0 0 0)
(0 0 0)
(0 0 0)
(0 0 0)
(0 0 0)
(0 0 0)
(0 0 0)
(0 0 0)
(0 0 0)
(0 0 0)
(0 0 0)
(0 0 0)
(0 0 0)
(0 0 0)
(0 0 0)
(0 0 0)
(0 0 0)
(0 0 0)
(0 0 0)
(0 0 0)
(0 0 0)
(0 0 0)
(0 0 0)
(0 0 0)
(0 0 0)
(0 0 0)
(0 0 0)
(0 0 0)
(0 0 0)
(0 0 0)
(0 0 0)
(0 0 0)
(0 0 0)
(0 0 0)
(0 0 0)
(0 0 0)
(0 0 0)
(0 0 0)
(0 0 0)
(0 0 0)
(0 0 0)
(0 0 0)
(0 0 0)
(0 0 0)
(0 0 0)
(0 0 0)
(0 0 0)
(0 0 0)
(0 0 0)
(0 0 0)
(0 0 0)
(0 0 0)
(0 0 0)
(0 0 0)
(0 0 0)
(0 0 0)
(0 0 0)
(0 0 0)
(0 0 0)
(0 0 0)
(0 0 0)
(0 0 0)
(0 0 0)
(0 0 0)
(0 0 0)
(0 0 0)
(0 0 0)
(0 0 0)
(0 0 0)
(0 0 0)
(0 0 0)
(0 0 0)
(0 0 0)
(0 0 0)
(0 0 0)
(0 0 0)
(0 0 0)
(0 0 0)
(0 0 0)
(0 0 0)
(0 0 0)
(0 0 0)
(0 0 0)
(0 0 0)
(0 0 0)
(0 0 0)
(0 0 0)
(0 0 0)
(0 0 0)
(0 0 0)
(0 0 0)
(0 0 0)
(0 0 0)
(0 0 0)
(0 0 0)
(0 0 0)
(0 0 0)
(0 0 0)
(0 0 0)
(0 0 0)
(0 0 0)
(0 0 0)
(0 0 0)
(0 0 0)
(0 0 0)
(0 0 0)
(0 0 0)
(0 0 0)
(0 0 0)
(0 0 0)
(0 0 0)
(0 0 0)
(0 0 0)
(0 0 0)
(0 0 0)
(0 0 0)
(0 0 0)
(0 0 0)
(0 0 0)
(0 0 0)
(0 0 0)
(0 0 0)
(0 0 0)
(0 0 0)
(0 0 0)
(0 0 0)
(0 0 0)
(0 0 0)
(0 0 0)
(0 0 0)
(0 0 0)
(0 0 0)
(0 0 0)
(0 0 0)
(0 0 0)
(0 0 0)
(0 0 0)
(0 0 0)
(0 0 0)
(0 0 0)
(0 0 0)
(0 0 0)
(0 0 0)
(0 0 0)
(0 0 0)
(0 0 0)
(0 0 0)
(0 0 0)
(0 0 0)
(0 0 0)
(0 0 0)
(0 0 0)
(0 0 0)
(0 0 0)
(0 0 0)
(0 0 0)
(0 0 0)
(0 0 0)
(0 0 0)
(0 0 0)
(0 0 0)
(0 0 0)
(0 0 0)
(0 0 0)
(0 0 0)
(0 0 0)
(0 0 0)
(0 0 0)
(0 0 0)
(0 0 0)
(0 0 0)
(0 0 0)
(0 0 0)
(0 0 0)
(0 0 0)
(0 0 0)
(0 0 0)
(0 0 0)
(0 0 0)
(0 0 0)
(0 0 0)
(0 0 0)
(0 0 0)
(0 0 0)
(0 0 0)
(0 0 0)
(0 0 0)
(0 0 0)
(0 0 0)
(0 0 0)
(0 0 0)
(0 0 0)
(0 0 0)
(0 0 0)
(0 0 0)
(0 0 0)
(0 0 0)
(0 0 0)
(0 0 0)
(0 0 0)
(0 0 0)
(0 0 0)
(0 0 0)
(0 0 0)
(0 0 0)
(0 0 0)
(0 0 0)
(0 0 0)
(0 0 0)
(0 0 0)
(0 0 0)
(0 0 0)
(0 0 0)
(0 0 0)
(0 0 0)
(0 0 0)
(0 0 0)
(0 0 0)
(0 0 0)
(0 0 0)
(0 0 0)
(0 0 0)
(0 0 0)
(0 0 0)
(0 0 0)
(0 0 0)
(0 0 0)
(0 0 0)
(0 0 0)
(0 0 0)
(0 0 0)
(0 0 0)
(0 0 0)
(0 0 0)
(0 0 0)
(0 0 0)
(0 0 0)
(0 0 0)
(0 0 0)
(0 0 0)
(0 0 0)
(0 0 0)
(0 0 0)
(0 0 0)
(0 0 0)
(0 0 0)
(-8.37481e-05 3.78817e-05 2.58352e-05)
(-6.17575e-05 -2.10769e-05 3.53409e-05)
(-9.01198e-05 -3.11502e-05 5.79437e-05)
(-1.7883e-05 1.42532e-05 3.55379e-05)
(-0.000146081 1.55903e-05 4.9554e-06)
(-8.9412e-05 -4.62971e-05 1.69289e-05)
(-4.70709e-05 8.04328e-06 2.06695e-05)
(-1.71942e-05 6.48924e-07 1.74707e-05)
(-0.000158431 0.000192954 -6.3017e-05)
(-0.000115932 -2.95995e-05 -2.92429e-05)
(-4.29167e-05 -1.99284e-05 4.57421e-05)
(-2.0655e-05 3.50776e-06 3.91489e-05)
(-3.61704e-05 0.000162078 6.64825e-05)
(-2.03047e-05 0.000311044 7.046e-05)
(2.89062e-06 0.000133894 4.8723e-05)
(-3.23861e-05 -2.60053e-05 7.34129e-06)
(-8.1966e-05 5.33627e-05 5.11262e-05)
(-8.4235e-05 1.03813e-05 0.000119827)
(-0.000175694 -8.77016e-07 0.000156181)
(-5.81533e-05 -5.55616e-07 0.000108851)
(-0.000110902 0.000118344 5.87521e-05)
(-0.000136086 2.46239e-05 9.18442e-05)
(-0.000106244 3.36094e-05 0.000136075)
(-5.51664e-05 1.59904e-05 6.24734e-05)
(-9.30637e-05 0.000103357 0.000142528)
(-0.000133377 4.79275e-05 0.000148939)
(-0.000161217 -1.90657e-05 0.000150773)
(-3.47372e-05 1.16664e-05 8.32711e-05)
(-0.000116988 0.000138599 0.000114088)
(-4.02549e-05 0.000173279 0.000263705)
(6.12007e-06 7.00098e-05 0.00015557)
(7.12536e-07 -1.04624e-05 8.30584e-05)
(7.69817e-05 9.08685e-05 0.000320904)
(3.51899e-05 0.000125096 0.000291467)
(-9.69334e-05 7.30953e-05 0.000239469)
(-5.88108e-05 -3.83737e-06 0.000142363)
(4.96438e-05 0.000117445 0.00027567)
(-9.69126e-05 0.000120946 0.000300072)
(-0.000119483 5.26099e-05 0.000246177)
(-3.3654e-05 2.70328e-05 0.000115752)
(-5.98313e-05 0.000153832 0.000295854)
(-2.35062e-05 6.23255e-05 0.000304134)
(-2.35641e-06 0.000124877 0.000164417)
(-7.65212e-06 2.46761e-05 6.63511e-05)
(-1.15185e-05 0.00011466 0.000335837)
(-2.69315e-05 2.98688e-05 0.000296357)
(-2.48917e-05 -3.62882e-05 0.000253281)
(2.87917e-05 -2.3271e-07 0.000228924)
(8.85598e-05 7.64384e-05 0.000516811)
(2.26025e-05 7.91237e-05 0.000463656)
(-7.79527e-05 9.22172e-05 0.000403029)
(-4.615e-05 -7.35408e-06 0.000187946)
(6.69842e-06 0.000150876 0.000560763)
(-3.42719e-05 2.69582e-05 0.00046517)
(-4.21113e-05 6.18646e-05 0.00035375)
(-8.21601e-06 -2.81266e-05 8.11815e-05)
(3.9987e-05 7.17659e-05 0.000525805)
(-2.06055e-05 5.5103e-05 0.000448043)
(-6.83528e-05 4.46745e-05 0.000274118)
(-2.43579e-05 -2.39804e-05 0.000118094)
(5.80906e-05 2.44116e-05 0.00034321)
(8.89628e-05 -2.1098e-05 0.000244324)
(9.07534e-05 8.61661e-06 0.000215249)
(1.30938e-05 -5.35728e-06 0.00016631)
(7.02516e-05 9.28315e-05 0.000521116)
(5.17481e-05 0.000146035 0.000534353)
(5.90718e-05 0.000163239 0.000520211)
(1.56115e-05 9.77505e-05 0.000268546)
(-8.31583e-05 0.000135058 0.000626021)
(8.95962e-07 0.000154455 0.000497238)
(8.73815e-05 4.59924e-05 0.000360541)
(3.78007e-05 3.07088e-05 0.000167455)
(-8.60232e-05 8.04668e-05 0.000644918)
(5.87028e-05 6.63486e-06 0.000419282)
(4.46481e-05 1.46728e-05 0.000339979)
(2.60875e-06 3.50553e-05 0.000204266)
(0.000170131 -5.62544e-05 0.000313503)
(0.000187939 -3.85629e-05 0.000202788)
(-2.36757e-05 0.000121164 0.000329845)
(-2.74088e-07 5.50238e-06 0.000171665)
(-9.01813e-05 1.93075e-05 0.000505897)
(-0.000129518 6.21735e-05 0.000483643)
(7.97987e-05 -1.32643e-05 0.000442727)
(-5.09423e-07 0.000143935 0.000277622)
(-8.04092e-05 3.43256e-06 0.000441349)
(8.16573e-05 9.13461e-05 0.000446451)
(0.000100875 5.06146e-05 0.000259998)
(5.50754e-05 3.89904e-05 0.000121444)
(6.32923e-05 0.00012116 0.000513318)
(-3.40275e-05 0.000180873 0.00047246)
(-8.53708e-05 3.07323e-05 0.000322361)
(-4.72232e-05 -2.28034e-05 0.000118964)
(0.000359494 0.000295523 -0.000227758)
(0.000371534 0.000405953 2.40655e-05)
(-9.98544e-05 0.000113975 0.000355037)
(-1.80208e-06 2.36478e-05 0.000263598)
(-0.0034764 -0.000223055 -0.00134853)
(-0.00089915 -0.000238614 -5.26889e-05)
(-0.000106527 0.000825268 0.000236471)
(1.62143e-05 -6.73086e-06 0.00021466)
(-0.000254215 -7.99316e-06 1.68221e-06)
(-1.15136e-05 1.07299e-06 0.000289878)
(0.0076461 -0.00852559 -0.00637386)
(-4.74133e-05 0.000246871 0.000155425)
(-0.0011506 0.00168406 0.000124117)
(-0.00249017 5.88018e-05 -0.000399227)
(-0.00210485 -0.000499089 -0.000196487)
(0.000120655 -0.00253016 0.000404846)
(-0.0070899 -0.0100515 0.00474629)
(-0.0009061 0.000350792 0.000193347)
(-0.00162722 0.00130102 -0.000483239)
(-0.00015052 -9.19422e-05 0.000236172)
(0 0 0)
(0 0 0)
(0 0 0)
(0 0 0)
(0 0 0)
(0 0 0)
(0 0 0)
(0 0 0)
(0 0 0)
(0 0 0)
(0 0 0)
(0 0 0)
(0 0 0)
(0 0 0)
(0 0 0)
(0 0 0)
(0 0 0)
(0 0 0)
(0 0 0)
(0 0 0)
(0 0 0)
(0 0 0)
(0 0 0)
(0 0 0)
(0 0 0)
(0 0 0)
(0 0 0)
(0 0 0)
(0 0 0)
(0 0 0)
(0 0 0)
(0 0 0)
(0 0 0)
(0 0 0)
(0 0 0)
(0 0 0)
(0 0 0)
(0 0 0)
(0 0 0)
(0 0 0)
(0 0 0)
(0 0 0)
(0 0 0)
(0 0 0)
(0 0 0)
(0 0 0)
(0 0 0)
(0 0 0)
(0 0 0)
(0 0 0)
(0 0 0)
(0 0 0)
(0 0 0)
(0 0 0)
(0 0 0)
(0 0 0)
(0 0 0)
(0 0 0)
(0 0 0)
(0 0 0)
(0 0 0)
(0 0 0)
(0 0 0)
(0 0 0)
(0 0 0)
(0 0 0)
(0 0 0)
(0 0 0)
(0 0 0)
(0 0 0)
(0 0 0)
(0 0 0)
(0 0 0)
(0 0 0)
(0 0 0)
(0 0 0)
(0 0 0)
(0 0 0)
(0 0 0)
(0 0 0)
(0 0 0)
(0 0 0)
(0 0 0)
(0 0 0)
(0 0 0)
(0 0 0)
(0 0 0)
(0 0 0)
(0 0 0)
(0 0 0)
(0 0 0)
(0 0 0)
(0 0 0)
(0 0 0)
(0 0 0)
(0 0 0)
(0 0 0)
(0 0 0)
(0 0 0)
(0 0 0)
(0 0 0)
(0 0 0)
(0 0 0)
(0 0 0)
(0 0 0)
(0 0 0)
(0 0 0)
(0 0 0)
(0 0 0)
(0 0 0)
(0 0 0)
(0 0 0)
(0 0 0)
(0 0 0)
(0 0 0)
(0 0 0)
(0 0 0)
(0 0 0)
(0 0 0)
(0 0 0)
(0 0 0)
(0 0 0)
(0 0 0)
(0 0 0)
(0 0 0)
(0 0 0)
(0 0 0)
(0 0 0)
(0 0 0)
(0 0 0)
(0 0 0)
(0 0 0)
(0 0 0)
(0 0 0)
(0 0 0)
(0 0 0)
(0 0 0)
(0 0 0)
(0 0 0)
(0 0 0)
(0 0 0)
(0 0 0)
(0 0 0)
(0 0 0)
(0 0 0)
(0 0 0)
(0 0 0)
(0 0 0)
(0 0 0)
(0 0 0)
(0 0 0)
(0 0 0)
(0 0 0)
(0 0 0)
(0 0 0)
(0 0 0)
(0 0 0)
(0 0 0)
(0 0 0)
(0 0 0)
(0 0 0)
(0 0 0)
(0 0 0)
(0 0 0)
(0 0 0)
(0 0 0)
(0 0 0)
(0 0 0)
(0 0 0)
(0 0 0)
(0 0 0)
(0 0 0)
(0 0 0)
(0 0 0)
(0 0 0)
(0 0 0)
(0 0 0)
(0 0 0)
(0 0 0)
(0 0 0)
(0 0 0)
(0 0 0)
(0 0 0)
(0 0 0)
(0 0 0)
(0 0 0)
(0 0 0)
(0 0 0)
(0 0 0)
(0 0 0)
(0 0 0)
(0 0 0)
(0 0 0)
(0 0 0)
(0 0 0)
(0 0 0)
(0 0 0)
(0 0 0)
(0 0 0)
(0 0 0)
(0 0 0)
(0 0 0)
(0 0 0)
(0 0 0)
(0 0 0)
(0 0 0)
(0 0 0)
(0 0 0)
(0 0 0)
(0 0 0)
(0 0 0)
(0 0 0)
(0 0 0)
(0 0 0)
(0 0 0)
(0 0 0)
(0 0 0)
(0 0 0)
(0 0 0)
(0 0 0)
(0 0 0)
(0 0 0)
(0 0 0)
(0 0 0)
(0 0 0)
(0 0 0)
(0 0 0)
(0 0 0)
(0 0 0)
(0 0 0)
(0 0 0)
(0 0 0)
(0 0 0)
(0 0 0)
(0 0 0)
(0 0 0)
(0 0 0)
(0 0 0)
(0 0 0)
(0 0 0)
(0 0 0)
(0 0 0)
(0 0 0)
(0 0 0)
(0 0 0)
(0 0 0)
(0 0 0)
(0 0 0)
(0 0 0)
(0 0 0)
(0 0 0)
(0 0 0)
(0 0 0)
(0 0 0)
(0 0 0)
(0 0 0)
(0 0 0)
(0 0 0)
(0 0 0)
(0 0 0)
(0 0 0)
(0 0 0)
(0 0 0)
(0 0 0)
(0 0 0)
(0 0 0)
(0 0 0)
(0 0 0)
(0 0 0)
(0 0 0)
(0 0 0)
(0 0 0)
)
;

boundaryField
{
    inlet
    {
        type            zeroGradient;
    }
    outlet
    {
        type            zeroGradient;
    }
    wall
    {
        type            zeroGradient;
    }
    procBoundary3to1
    {
        type            processor;
        value           nonuniform List<vector> 
192
(
(0.000751582 0.000321376 -0.000443928)
(-1.64005e-05 3.94254e-05 1.40761e-05)
(-0.000154041 0.000246532 -1.06378e-05)
(-7.83728e-05 4.52291e-05 -1.71841e-05)
(6.72292e-05 6.54367e-05 0.000107981)
(-5.96859e-05 6.59373e-05 0.000123042)
(1.36523e-06 2.73254e-05 0.000153989)
(6.65467e-06 0.000111167 9.07393e-05)
(-1.8215e-05 -6.71079e-06 0.000291487)
(2.60059e-05 5.2057e-05 0.000291653)
(9.40888e-05 4.6282e-05 0.000152788)
(7.8811e-05 5.42977e-05 0.000312425)
(-5.52311e-05 9.57103e-05 0.000528857)
(0.000155532 5.7452e-05 0.000420929)
(0.000241721 0.000160741 0.000331505)
(0.000177014 1.6327e-05 0.000330218)
(7.71187e-05 2.10066e-05 0.000675336)
(-2.09014e-07 -0.000122504 0.000516855)
(0.000134007 6.38153e-05 0.000492406)
(0.000192012 -5.3436e-05 0.00043356)
(0.000135273 -8.53947e-06 0.00050593)
(9.06193e-05 0.000111061 0.000564727)
(0.000122446 0.000121086 0.000769188)
(0.000220112 -3.74228e-06 0.000552998)
(-0.000249872 0.000869251 6.13912e-06)
(0.00165302 -0.00103187 0.000971979)
(0.000395345 0.00023229 0.000627536)
(0.000101094 3.01854e-05 0.000885644)
(0.00203561 -0.00158387 0.000707028)
(0 0 0)
(0 0 0)
(0 0 0)
(0 0 0)
(0 0 0)
(0 0 0)
(0 0 0)
(0 0 0)
(0 0 0)
(0 0 0)
(0 0 0)
(0 0 0)
(0 0 0)
(0 0 0)
(0 0 0)
(0 0 0)
(0 0 0)
(0 0 0)
(0 0 0)
(0 0 0)
(0 0 0)
(0 0 0)
(0 0 0)
(0 0 0)
(0 0 0)
(0 0 0)
(0 0 0)
(0 0 0)
(0 0 0)
(0 0 0)
(0 0 0)
(0 0 0)
(0 0 0)
(0 0 0)
(0 0 0)
(0 0 0)
(0 0 0)
(0 0 0)
(0 0 0)
(0 0 0)
(0 0 0)
(0 0 0)
(0 0 0)
(0 0 0)
(0 0 0)
(0 0 0)
(0 0 0)
(0 0 0)
(0 0 0)
(0 0 0)
(0 0 0)
(0 0 0)
(0 0 0)
(0 0 0)
(0 0 0)
(0 0 0)
(0 0 0)
(0 0 0)
(0 0 0)
(0 0 0)
(0 0 0)
(0 0 0)
(0 0 0)
(0 0 0)
(0 0 0)
(0 0 0)
(0 0 0)
(-2.03073e-05 7.20628e-06 1.94138e-05)
(2.7102e-06 -0.000102849 3.78079e-05)
(8.60142e-05 -2.00422e-05 4.41689e-05)
(-0.000532049 7.37525e-05 -1.71754e-06)
(-7.81658e-05 5.13478e-05 6.93574e-05)
(-8.78043e-05 -1.28243e-05 0.000139542)
(-9.7441e-05 -3.48242e-05 0.00020787)
(1.82951e-05 6.42225e-05 0.000143337)
(3.26727e-05 7.90188e-05 0.000257088)
(-2.21086e-05 8.98809e-05 0.000315555)
(-0.000161962 6.00325e-05 0.000291173)
(8.9744e-05 6.52414e-05 0.000279304)
(0.000127146 4.9465e-05 0.000361333)
(5.02457e-05 0.000106684 0.000375967)
(8.66014e-05 0.000120682 0.000346393)
(1.94334e-05 0.000125252 0.000450655)
(0.000159798 5.26609e-05 0.000502778)
(0.000121997 0.000148878 0.000409075)
(2.9663e-05 0.000160897 0.000471751)
(-4.59977e-05 0.000114267 0.00056102)
(8.31417e-05 -2.85052e-05 0.000507534)
(-4.86441e-05 0.000133296 0.00046725)
(-5.94127e-05 0.00013018 0.000466581)
(-4.61136e-05 6.93829e-05 0.000284777)
(-0.000187363 0.000448163 0.00071921)
(-3.57773e-05 8.25733e-05 0.00048886)
(-0.00024009 8.53813e-05 0.000522996)
(0.000846759 0.0017056 -0.000278382)
(0 0 0)
(0 0 0)
(0 0 0)
(0 0 0)
(0 0 0)
(0 0 0)
(0 0 0)
(0 0 0)
(0 0 0)
(0 0 0)
(0 0 0)
(0 0 0)
(0 0 0)
(0 0 0)
(0 0 0)
(0 0 0)
(0 0 0)
(0 0 0)
(0 0 0)
(0 0 0)
(0 0 0)
(0 0 0)
(0 0 0)
(0 0 0)
(0 0 0)
(0 0 0)
(0 0 0)
(0 0 0)
(0 0 0)
(0 0 0)
(0 0 0)
(0 0 0)
(0 0 0)
(0 0 0)
(0 0 0)
(0 0 0)
(0 0 0)
(0 0 0)
(0 0 0)
(0 0 0)
(0 0 0)
(0 0 0)
(0 0 0)
(0 0 0)
(0 0 0)
(0 0 0)
(0 0 0)
(0 0 0)
(0 0 0)
(0 0 0)
(0 0 0)
(0 0 0)
(0 0 0)
(0 0 0)
(0 0 0)
(0 0 0)
(0 0 0)
(0 0 0)
(0 0 0)
(0 0 0)
(0 0 0)
(0 0 0)
(0 0 0)
(0 0 0)
(0 0 0)
(0 0 0)
(0 0 0)
(0 0 0)
)
;
    }
    procBoundary3to2
    {
        type            processor;
        value           nonuniform List<vector> 
192
(
(8.28706e-05 -5.75116e-05 3.62259e-05)
(3.17986e-05 -2.97939e-05 3.40443e-05)
(-0.000124851 1.0926e-05 5.17929e-05)
(-2.67575e-05 -3.92365e-05 3.74428e-05)
(2.12048e-05 3.17785e-05 8.08847e-05)
(-3.55202e-05 2.23715e-05 0.000111379)
(-5.13979e-05 5.2631e-05 0.000131174)
(-7.51407e-05 6.04208e-05 0.000155109)
(-1.71323e-05 -1.80585e-05 0.000221978)
(-7.06379e-05 5.80701e-05 0.000231678)
(5.39345e-05 0.00015414 0.000277753)
(-2.34137e-05 7.00799e-05 0.000279781)
(-0.00020958 0.000133331 0.000450631)
(-1.32718e-05 0.000157814 0.000460339)
(2.49098e-05 0.000103496 0.000476022)
(-1.96739e-05 8.91267e-05 0.000461714)
(-0.000131111 0.00013168 0.000577639)
(4.26708e-05 0.000200363 0.000536886)
(2.05923e-05 0.000200535 0.000524833)
(1.62562e-05 0.000171603 0.00054035)
(-0.000130879 8.93332e-05 0.000492007)
(0.00014591 0.000172269 0.000530511)
(4.6845e-05 9.18936e-05 0.000558164)
(6.5162e-05 5.44946e-05 0.000533431)
(0.000441816 0.000467166 0.00025922)
(5.08621e-05 -8.04825e-05 0.000502556)
(-0.000544734 0.000409884 0.000537451)
(-0.000491456 -0.000379532 0.000489909)
(0 0 0)
(0 0 0)
(0 0 0)
(0 0 0)
(0 0 0)
(0 0 0)
(0 0 0)
(0 0 0)
(0 0 0)
(0 0 0)
(0 0 0)
(0 0 0)
(0 0 0)
(0 0 0)
(0 0 0)
(0 0 0)
(0 0 0)
(0 0 0)
(0 0 0)
(0 0 0)
(0 0 0)
(0 0 0)
(0 0 0)
(0 0 0)
(0 0 0)
(0 0 0)
(0 0 0)
(0 0 0)
(0 0 0)
(0 0 0)
(0 0 0)
(0 0 0)
(0 0 0)
(0 0 0)
(0 0 0)
(0 0 0)
(0 0 0)
(0 0 0)
(0 0 0)
(0 0 0)
(0 0 0)
(0 0 0)
(0 0 0)
(0 0 0)
(0 0 0)
(0 0 0)
(0 0 0)
(0 0 0)
(0 0 0)
(0 0 0)
(0 0 0)
(0 0 0)
(0 0 0)
(0 0 0)
(0 0 0)
(0 0 0)
(0 0 0)
(0 0 0)
(0 0 0)
(0 0 0)
(0 0 0)
(0 0 0)
(0 0 0)
(0 0 0)
(0 0 0)
(0 0 0)
(0 0 0)
(0 0 0)
(-3.62905e-05 -3.01564e-05 4.12753e-05)
(3.74954e-06 -4.04014e-05 6.58502e-05)
(-0.000101035 -6.68277e-05 9.38761e-06)
(1.29426e-05 -3.56874e-05 6.2687e-05)
(-3.32824e-06 -5.21792e-05 0.000174996)
(-3.89793e-06 -0.000108905 0.000202807)
(-4.87984e-05 -6.81166e-05 0.000196677)
(9.82076e-05 -1.61312e-05 0.000170346)
(3.8136e-05 -2.20792e-06 0.000274795)
(-1.28593e-05 -0.000122478 0.00033369)
(-4.57081e-05 -6.50852e-05 0.000303726)
(-1.59432e-05 -2.07306e-05 0.000264524)
(2.74305e-05 -1.2432e-05 0.000452151)
(-4.61488e-05 -9.62223e-05 0.000399269)
(-5.76437e-05 -8.80997e-05 0.000378938)
(-0.0001276 -3.68583e-05 0.000318711)
(-2.44356e-05 8.38069e-05 0.000515966)
(-6.28684e-05 -4.95502e-05 0.000471334)
(-1.48524e-05 -6.75749e-05 0.000403216)
(1.8822e-05 -8.14884e-07 0.000328724)
(-4.68501e-05 7.59293e-05 0.000556123)
(-2.79775e-05 1.31856e-05 0.00053985)
(1.24e-05 -4.83218e-05 0.000355255)
(2.81539e-05 -3.10215e-05 0.000367161)
(0.000381027 0.000525032 0.000967433)
(0.000782076 -0.000269611 0.000110885)
(0.00015097 -0.000170217 0.00031121)
(7.84472e-05 -0.00017813 0.000351812)
(0 0 0)
(0 0 0)
(0 0 0)
(0 0 0)
(0 0 0)
(0 0 0)
(0 0 0)
(0 0 0)
(0 0 0)
(0 0 0)
(0 0 0)
(0 0 0)
(0 0 0)
(0 0 0)
(0 0 0)
(0 0 0)
(0 0 0)
(0 0 0)
(0 0 0)
(0 0 0)
(0 0 0)
(0 0 0)
(0 0 0)
(0 0 0)
(0 0 0)
(0 0 0)
(0 0 0)
(0 0 0)
(0 0 0)
(0 0 0)
(0 0 0)
(0 0 0)
(0 0 0)
(0 0 0)
(0 0 0)
(0 0 0)
(0 0 0)
(0 0 0)
(0 0 0)
(0 0 0)
(0 0 0)
(0 0 0)
(0 0 0)
(0 0 0)
(0 0 0)
(0 0 0)
(0 0 0)
(0 0 0)
(0 0 0)
(0 0 0)
(0 0 0)
(0 0 0)
(0 0 0)
(0 0 0)
(0 0 0)
(0 0 0)
(0 0 0)
(0 0 0)
(0 0 0)
(0 0 0)
(0 0 0)
(0 0 0)
(0 0 0)
(0 0 0)
(0 0 0)
(0 0 0)
(0 0 0)
(0 0 0)
)
;
    }
}


// ************************************************************************* //
