/*--------------------------------*- C++ -*----------------------------------*\
| =========                 |                                                 |
| \\      /  F ield         | OpenFOAM: The Open Source CFD Toolbox           |
|  \\    /   O peration     | Version:  2506                                  |
|   \\  /    A nd           | Website:  www.openfoam.com                      |
|    \\/     M anipulation  |                                                 |
\*---------------------------------------------------------------------------*/
FoamFile
{
    version     2.0;
    format      ascii;
    arch        "LSB;label=32;scalar=64";
    class       volScalarField;
    location    "0.02";
    object      voidfraction;
}
// * * * * * * * * * * * * * * * * * * * * * * * * * * * * * * * * * * * * * //

dimensions      [0 0 0 0 0 0 0];

internalField   nonuniform List<scalar> 
1152
(
0.562864
0.412763
0.436463
0.365363
0.560231
0.42593
0.41013
0.420663
0.352196
0.44173
0.415396
0.468063
0.436463
0.44963
0.428563
0.46543
0.510197
0.396963
0.460163
0.43383
0.40223
0.412763
0.378529
0.396963
0.333763
0.470697
0.389063
0.38643
0.439097
0.396963
0.475963
0.344296
0.431196
0.367996
0.365363
0.499664
0.310062
0.404863
0.396963
0.365363
0.41013
0.391696
0.378529
0.373263
0.40223
0.378529
0.389063
0.46543
0.270562
0.344296
0.431196
0.381163
0.399596
0.339029
0.375896
0.381163
0.404863
0.42593
0.40223
0.444363
0.431196
0.404863
0.436463
0.446997
0.296896
0.510197
0.39433
0.38643
0.389063
0.381163
0.45753
0.404863
0.399596
0.407496
0.391696
0.483863
0.41013
0.360096
0.373263
0.475963
0.48913
0.44173
0.41013
0.431196
0.48123
0.420663
0.39433
0.399596
0.362729
0.339029
0.378529
0.399596
0.48123
0.336396
0.462797
0.428563
0.507564
0.549697
0.570764
0.683998
0.594464
0.670831
0.739298
0.815666
0.591831
0.602364
0.662931
0.749832
0.47333
0.691898
0.620798
0.633964
1
1
1
1
1
1
1
1
1
1
1
1
1
1
1
1
1
1
1
1
1
1
1
1
1
1
1
1
1
1
1
1
1
1
1
1
1
1
1
1
1
1
1
1
1
1
1
1
1
1
1
1
1
1
1
1
1
1
1
1
1
1
1
1
1
1
1
1
1
1
1
1
1
1
1
1
1
1
1
1
1
1
1
1
1
1
1
1
1
1
1
1
1
1
1
1
1
1
1
1
1
1
1
1
1
1
1
1
1
1
1
1
1
1
1
1
1
1
1
1
1
1
1
1
1
1
1
1
1
1
1
1
1
1
1
1
1
1
1
1
1
1
1
1
1
1
1
1
1
1
1
1
1
1
1
1
1
1
1
1
1
1
1
1
1
1
1
1
1
1
1
1
1
1
1
1
1
1
1
1
1
1
1
1
1
1
1
1
1
1
1
1
1
1
1
1
1
1
1
1
1
1
1
1
1
1
1
1
1
1
1
1
1
1
1
1
1
1
1
1
1
1
1
1
1
1
1
1
1
1
1
1
1
1
1
1
1
1
1
1
1
1
1
1
1
1
1
1
1
1
1
1
1
1
1
1
1
1
1
1
1
1
1
1
1
1
1
1
1
1
1
1
0.463745
0.390948
0.518565
0.426086
0.391992
0.377963
0.434943
0.423346
0.499535
0.422793
0.454301
0.47401
0.380775
0.403512
0.480367
0.490115
0.428663
0.374707
0.451164
0.439229
0.440633
0.413576
0.354616
0.394332
0.426344
0.456622
0.464045
0.464728
0.484575
0.4664
0.412967
0.492813
0.358499
0.409896
0.370924
0.338465
0.356617
0.427821
0.404474
0.459614
0.380848
0.367821
0.461609
0.418317
0.373616
0.432097
0.399921
0.476626
0.363511
0.439672
0.361296
0.373514
0.391992
0.396957
0.410014
0.448733
0.444148
0.427022
0.425067
0.393565
0.402251
0.378737
0.397747
0.444252
0.421146
0.461327
0.383763
0.334084
0.453899
0.38746
0.401704
0.423346
0.331395
0.473537
0.456737
0.384283
0.361088
0.38636
0.399921
0.430763
0.513863
0.396362
0.40302
0.338465
0.374305
0.420699
0.376775
0.405212
0.434257
0.414336
0.415322
0.384283
0.425516
0.3997
0.428186
0.39839
0.53391
0.585845
0.656576
0.715233
0.717
0.667614
0.734091
0.630071
0.725041
0.744168
0.732023
0.709159
0.78345
0.737012
0.702135
0.697846
1
0.997293
1
1
1
1
1
1
1
1
1
1
1
1
1
1
1
1
1
1
1
1
1
1
1
1
1
1
1
1
1
1
1
1
1
1
1
1
1
1
1
1
1
1
1
1
1
1
1
1
1
1
1
1
1
1
1
1
1
1
1
1
1
1
1
1
1
1
1
1
1
1
1
1
1
1
1
1
1
1
1
1
1
1
1
1
1
1
1
1
1
1
1
1
1
1
1
1
1
1
1
1
1
1
1
1
1
1
1
1
1
1
1
1
1
1
1
1
1
1
1
1
1
1
1
1
1
1
1
1
1
1
1
1
1
1
1
1
1
1
1
1
1
1
1
1
1
1
1
1
1
1
1
1
1
1
1
1
1
1
1
1
1
1
1
1
1
1
1
1
1
1
1
1
1
1
1
1
1
1
1
1
1
1
1
1
1
1
1
1
1
1
1
1
1
1
1
1
1
1
1
1
1
1
1
1
1
1
1
1
1
1
1
1
1
1
1
1
1
1
1
1
1
1
1
1
1
1
1
1
1
1
1
1
1
1
1
1
1
1
1
1
1
1
1
1
1
1
1
1
1
1
1
1
1
1
1
1
1
1
1
1
1
1
1
1
1
1
1
1
1
1
0.49131
0.473797
0.418432
0.452361
0.40719
0.434944
0.435479
0.430192
0.361296
0.418323
0.432375
0.47167
0.474277
0.401586
0.455446
0.487417
0.37604
0.356617
0.463929
0.464889
0.366586
0.385086
0.452394
0.41304
0.39981
0.362926
0.356855
0.412967
0.417324
0.321797
0.421411
0.47123
0.381052
0.343352
0.422388
0.448782
0.418017
0.465808
0.40165
0.403512
0.39981
0.443252
0.388525
0.432534
0.504944
0.365318
0.384283
0.419972
0.416134
0.436211
0.438213
0.486365
0.350345
0.420699
0.393193
0.447343
0.409439
0.462642
0.408014
0.484715
0.3998
0.361691
0.384283
0.403785
0.428663
0.361039
0.42041
0.391513
0.325983
0.413576
0.435479
0.365397
0.345248
0.432173
0.361727
0.428186
0.452372
0.455987
0.418317
0.403785
0.451216
0.429578
0.471841
0.411199
0.409896
0.418325
0.431251
0.456872
0.354876
0.446022
0.412886
0.410792
0.364752
0.329051
0.384283
0.441554
0.684261
0.721422
0.70526
0.645646
0.737431
0.686607
0.851998
0.717954
0.714348
0.698082
0.617523
0.604296
0.588184
0.557536
0.603961
0.544071
1
1
1
1
1
1
1
1
1
1
1
1
1
1
1
1
1
1
1
1
1
1
1
1
1
1
1
1
1
1
1
1
1
1
1
1
1
1
1
1
1
1
1
1
1
1
1
1
1
1
1
1
1
1
1
1
1
1
1
1
1
1
1
1
1
1
1
1
1
1
1
1
1
1
1
1
1
1
1
1
1
1
1
1
1
1
1
1
1
1
1
1
1
1
1
1
1
1
1
1
1
1
1
1
1
1
1
1
1
1
1
1
1
1
1
1
1
1
1
1
1
1
1
1
1
1
1
1
1
1
1
1
1
1
1
1
1
1
1
1
1
1
1
1
1
1
1
1
1
1
1
1
1
1
1
1
1
1
1
1
1
1
1
1
1
1
1
1
1
1
1
1
1
1
1
1
1
1
1
1
1
1
1
1
1
1
1
1
1
1
1
1
1
1
1
1
1
1
1
1
1
1
1
1
1
1
1
1
1
1
1
1
1
1
1
1
1
1
1
1
1
1
1
1
1
1
1
1
1
1
1
1
1
1
1
1
1
1
1
1
1
1
1
1
1
1
1
1
1
1
1
1
1
1
1
1
1
1
1
1
1
1
1
1
1
1
1
1
1
1
1
1
)
;

boundaryField
{
    inlet
    {
        type            fixedValue;
        value           uniform 1;
    }
    outlet
    {
        type            fixedValue;
        value           uniform 1;
    }
    wall
    {
        type            zeroGradient;
    }
    procBoundary3to1
    {
        type            processor;
        value           nonuniform List<scalar> 
192
(
0.404863
0.446997
0.51283
0.51283
0.399596
0.360096
0.315329
0.415396
0.412763
0.44173
0.462797
0.336396
0.346929
0.431196
0.399596
0.325862
0.462797
0.291629
0.483863
0.44173
0.346929
0.389063
0.43383
0.43383
0.515464
0.554964
0.849899
0.755098
0.997367
1
1
1
1
1
1
1
1
1
1
1
1
1
1
1
1
1
1
1
1
1
1
1
1
1
1
1
1
1
1
1
1
1
1
1
1
1
1
1
1
1
1
1
1
1
1
1
1
1
1
1
1
1
1
1
1
1
1
1
1
1
1
1
1
1
1
1
0.350982
0.449477
0.473819
0.448782
0.386064
0.319032
0.38876
0.375406
0.44871
0.418524
0.380848
0.479206
0.421146
0.398625
0.368979
0.361088
0.401099
0.40968
0.430301
0.486365
0.373534
0.372094
0.382826
0.389723
0.761943
0.774484
0.8734
0.813874
1
1
1
1
1
1
1
1
1
1
1
1
1
1
1
1
1
1
1
1
1
1
1
1
1
1
1
1
1
1
1
1
1
1
1
1
1
1
1
1
1
1
1
1
1
1
1
1
1
1
1
1
1
1
1
1
1
1
1
1
1
1
1
1
1
1
1
1
)
;
    }
    procBoundary3to2
    {
        type            processor;
        value           nonuniform List<scalar> 
192
(
0.360096
0.346929
0.525997
0.460163
0.310062
0.407496
0.446997
0.373263
0.491764
0.439097
0.367996
0.352196
0.404863
0.41803
0.42593
0.331129
0.436463
0.373263
0.43383
0.328496
0.349563
0.412763
0.420663
0.333763
0.604998
0.597097
0.607631
0.602364
1
1
1
1
1
1
1
1
1
1
1
1
1
1
1
1
1
1
1
1
1
1
1
1
1
1
1
1
1
1
1
1
1
1
1
1
1
1
1
1
1
1
1
1
1
1
1
1
1
1
1
1
1
1
1
1
1
1
1
1
1
1
1
1
1
1
1
1
0.408616
0.427367
0.457994
0.450572
0.355993
0.365461
0.400629
0.395092
0.488804
0.48043
0.376891
0.389723
0.451216
0.391992
0.398651
0.445203
0.396087
0.378727
0.422388
0.40762
0.373534
0.460532
0.321504
0.493524
0.699297
0.659516
0.796253
0.833561
1
1
1
1
1
1
1
1
1
1
1
1
1
1
1
1
1
1
1
1
1
1
1
1
1
1
1
1
1
1
1
1
1
1
1
1
1
1
1
1
1
1
1
1
1
1
1
1
1
1
1
1
1
1
1
1
1
1
1
1
1
1
1
1
1
1
1
1
)
;
    }
}


// ************************************************************************* //
