/*--------------------------------*- C++ -*----------------------------------*\
| =========                 |                                                 |
| \\      /  F ield         | OpenFOAM: The Open Source CFD Toolbox           |
|  \\    /   O peration     | Version:  2506                                  |
|   \\  /    A nd           | Website:  www.openfoam.com                      |
|    \\/     M anipulation  |                                                 |
\*---------------------------------------------------------------------------*/
FoamFile
{
    version     2.0;
    format      ascii;
    arch        "LSB;label=32;scalar=64";
    class       volVectorField;
    location    "0.1";
    object      U;
}
// * * * * * * * * * * * * * * * * * * * * * * * * * * * * * * * * * * * * * //

dimensions      [0 1 -1 0 0 0 0];

internalField   nonuniform List<vector> 
1152
(
(0.00202639 0.000291545 0.0124562)
(0.00175183 0.00229466 0.00847789)
(-0.00670823 -0.00366027 0.0247958)
(7.1306e-05 0.000556294 0.00176046)
(0.00149257 0.000531027 0.0134303)
(-0.000608344 0.00142451 0.0105879)
(-0.00165482 0.00062475 0.00821265)
(0.00319697 0.00345889 0.0169171)
(0.00424111 0.0013589 0.0146925)
(0.000922609 0.000838966 0.00761779)
(-0.00710448 0.00808794 0.0339249)
(0.000414651 0.00346203 0.0185907)
(0.00249336 -0.000823793 0.0142374)
(0.00311882 -0.00729127 0.0449885)
(-0.00181875 -0.00232163 0.0235359)
(0.0014935 -0.00102201 0.0124272)
(0.00146501 0.00153255 0.0527009)
(0.00130907 8.1151e-05 0.058362)
(0.00557845 0.00426725 0.0605813)
(0.000868431 0.00415139 0.0131659)
(0.00214589 0.00234857 0.0398839)
(0.00370969 0.00289395 0.0589407)
(0.00368563 0.00254964 0.0243655)
(0.00201705 0.00585678 0.0347393)
(-0.00127529 0.00444668 0.0433603)
(-0.00238206 0.00641989 0.0732262)
(0.0054328 0.00301244 0.0403254)
(0.00520163 0.00282657 0.0366641)
(-0.00160233 0.00679403 0.0430087)
(-0.00142005 0.0219913 0.0309376)
(0.000603244 0.00624151 0.0352817)
(0.0141701 0.002667 0.0600338)
(-0.00222311 0.00170538 0.0192662)
(2.38006e-06 0.00132391 0.0231701)
(0.00456106 0.00362542 0.0231031)
(0.000688686 0.00356288 0.0124639)
(-0.00148955 0.00123601 0.0211277)
(0.00183886 0.00237168 0.0233253)
(0.0105713 0.0079725 0.0468097)
(-0.00119162 0.00439258 0.035497)
(-0.00295503 -0.000508978 0.0329393)
(0.00361424 0.00541163 0.0302145)
(0.0070689 0.000208035 0.0261593)
(0.00666741 -0.00269772 0.0597285)
(0.00410053 -0.0013296 0.0278236)
(0.00173953 -0.0202519 0.0379226)
(-0.000254138 -0.000232298 0.0161004)
(-0.00166357 -0.00177773 0.0194009)
(0.00292002 -0.000252625 0.0527175)
(0.000860121 0.00176695 0.0576247)
(0.000324721 0.00179266 0.0438319)
(-0.000321819 0.00299466 0.0327334)
(0.00193464 -0.00035762 0.0496644)
(3.91506e-05 -0.00247195 0.0436918)
(0.00265664 -0.00123427 0.0504574)
(0.00222924 0.00415156 0.0468535)
(-0.00196131 -0.00253319 0.029992)
(-0.00165627 -0.0076695 0.0420462)
(0.00396859 -0.00401381 0.0350389)
(-0.000587196 0.000848002 0.0170701)
(-0.00549309 -0.0131517 0.0553717)
(-0.00111135 -0.0621305 0.0690037)
(0.00497679 -0.00684064 0.0403367)
(0.0232975 -0.0170882 0.0629849)
(-0.0037381 -8.56086e-05 0.0290692)
(0.000168646 -0.000571104 0.0284218)
(-0.000160947 -9.77213e-05 0.0232138)
(-0.000635405 -0.00348742 0.0459767)
(-0.000218188 -0.00145666 0.0488642)
(-0.00370491 -0.00195617 0.0534107)
(-0.00231471 -0.00727492 0.0487432)
(0.00758432 -0.0117245 0.0551783)
(-0.000649527 0.000817615 0.061619)
(-0.00517839 -0.00537648 0.0390088)
(-0.00735941 -0.00362866 0.0429605)
(-0.00377943 -0.0151457 0.0820664)
(-0.00726424 -0.00469372 0.048995)
(-0.00791471 -0.00631721 0.0517612)
(-0.00256967 -0.000130501 0.0374498)
(-0.0045397 0.00121128 0.0325767)
(-0.00151289 -0.0122053 0.0302967)
(-0.00350237 -0.00296649 0.0393292)
(-0.00243566 -0.00525808 0.0395067)
(0.00167431 -0.00374405 0.0310029)
(-0.00427866 -0.00249996 0.0402672)
(-0.00323153 -0.00264525 0.0303276)
(-0.00322761 -0.00124166 0.0307273)
(0.00180925 -0.00388574 0.0440745)
(-0.00194789 -0.000411222 0.0310775)
(-0.00850369 -0.00302531 0.0572538)
(-0.00209358 -0.00057547 0.026508)
(-0.000577451 -0.00176105 0.0441882)
(-0.00912815 0.000377655 0.0797315)
(-0.00213808 -6.9559e-05 0.0232282)
(-0.00396415 0.00183744 0.035026)
(-0.00968115 0.000511098 0.0555761)
(0.000793225 0.00237941 0.0220957)
(0.000188317 -0.000728358 0.0284787)
(-0.00028787 -0.000609447 0.0270491)
(0.000637195 -0.00196089 0.0270151)
(-0.00057396 -0.00136585 0.029395)
(-0.000461597 -0.000864459 0.0306792)
(-0.000924567 0.00011434 0.0258303)
(-0.000545165 -0.00025615 0.0228762)
(-0.000399831 -0.000999319 0.0360829)
(-0.000140935 -0.000500743 0.0310546)
(-0.000193306 0.000285465 0.0251597)
(-0.000135237 0.00453136 0.0602021)
(0.000388108 0.00237913 0.0404386)
(0.00101303 0.000863684 0.0235169)
(0.000932526 0.000308966 0.0232213)
(0.00124011 0.00315339 0.0330966)
(-0.00173086 -0.00253166 0.045204)
(-0.00337369 -0.00487694 0.0359287)
(-0.00514719 -0.00691124 0.0297486)
(-0.000772382 -0.0142264 0.022727)
(-0.00317774 -0.00259182 0.0380724)
(-0.00585949 -0.00304471 0.0342401)
(-0.0127255 -0.00288777 0.0108218)
(-0.000750761 -0.00290307 -0.0466861)
(-0.00259527 -0.0013598 0.0447612)
(-0.003513 -0.00116664 0.0355751)
(-0.0049252 0.000868662 0.017472)
(-0.00076152 0.0080468 0.0505747)
(-0.00303944 -0.000520746 0.0470273)
(-0.00326009 0.0001873 0.0124422)
(-0.00242778 0.00100721 0.00246175)
(-0.000729868 0.00383219 0.023428)
(0.00154403 0.00383697 0.0180627)
(0.00376532 0.00292455 0.0163757)
(0.00373841 0.00518917 0.0150641)
(-0.000514095 0.010168 0.0148209)
(0.00285082 0.00100762 0.0175288)
(0.00622312 0.000693629 0.0169246)
(0.0102872 0.00100299 0.0139638)
(-0.000922804 -0.00113209 0.0125166)
(0.00193889 0.000441011 0.0183282)
(0.00389895 0.000775724 0.0169131)
(0.00188589 -0.000645081 0.0147312)
(-0.000538629 -0.00875055 0.019641)
(0.00351974 0.0017314 0.0182631)
(0.00528054 0.00102082 0.0152543)
(0.000629019 -8.88708e-05 0.0147162)
(-0.000617779 -0.00258413 0.0198327)
(0.000457645 0.0006473 0.0234454)
(0.00125815 0.000799253 0.0218643)
(0.00113608 0.00163516 0.0201225)
(-7.59195e-05 0.00210328 0.0184793)
(0.0012004 8.08679e-06 0.0226691)
(0.00222098 0.000120399 0.020688)
(0.00217091 0.000319903 0.0170853)
(-0.000143964 -0.000471047 0.0118378)
(0.00100253 0.000183891 0.0226438)
(0.00159114 0.000317188 0.0210477)
(0.000506715 6.76941e-05 0.0191615)
(-0.000154834 -0.00178203 0.0198108)
(0.00155315 0.000804751 0.0220137)
(0.00207283 0.000502492 0.0197619)
(5.9488e-05 6.51159e-05 0.0180758)
(-0.000401746 -0.000909608 0.020323)
(0.000525084 0.000253945 0.0203156)
(0.000740462 0.000402911 0.0199699)
(0.000604023 0.000693319 0.0195256)
(0.000103397 0.000786052 0.0191998)
(0.000756411 7.22834e-05 0.0202826)
(0.00105549 0.000133945 0.0196704)
(0.000870126 0.000182348 0.0187491)
(5.98503e-05 -6.74871e-05 0.0181058)
(0.000689575 0.000139941 0.0203058)
(0.000825078 0.000126569 0.0198186)
(0.000372309 -1.37794e-05 0.0192836)
(1.41782e-05 -0.000600112 0.0196444)
(0.000784926 0.000288974 0.0199994)
(0.00086831 0.000167339 0.0193071)
(0.000117619 -3.45303e-05 0.0187365)
(-0.000155303 -0.000415349 0.0196197)
(0.000278701 2.29893e-05 0.0203291)
(0.000352302 0.000139627 0.0201684)
(0.000282529 0.000259697 0.0199704)
(9.13185e-05 0.000285159 0.0198453)
(0.000387949 -2.67671e-06 0.020301)
(0.00046998 5.21805e-05 0.0200455)
(0.000355787 7.89027e-05 0.0197087)
(6.43705e-05 8.59615e-06 0.0195268)
(0.000392026 4.53781e-05 0.0202877)
(0.000410268 4.10503e-05 0.0200754)
(0.000216447 -1.84268e-05 0.019857)
(3.21002e-05 -0.000195426 0.0199362)
(0.000405247 8.48543e-05 0.0201458)
(0.000387578 4.41335e-05 0.0199008)
(9.98423e-05 -3.9177e-05 0.019693)
(-4.82714e-05 -0.000180713 0.0199609)
(0.000169807 -2.13919e-06 0.0201758)
(0.000181353 4.69201e-05 0.0201388)
(0.000140308 8.87389e-05 0.0200708)
(5.96328e-05 9.55291e-05 0.0200285)
(0.000207066 -6.70815e-06 0.0202)
(0.000218668 2.03553e-05 0.0201152)
(0.000157027 3.04176e-05 0.0199991)
(4.53589e-05 7.66783e-06 0.0199446)
(0.000215793 1.18087e-05 0.0202148)
(0.000203509 1.09655e-05 0.0201353)
(0.000115549 -1.09624e-05 0.0200505)
(2.54302e-05 -6.54371e-05 0.0200621)
(0.000209037 1.28308e-05 0.0201623)
(0.000184731 -2.23558e-06 0.0200778)
(6.96409e-05 -3.38308e-05 0.0200059)
(-9.42001e-06 -8.20751e-05 0.0200822)
(9.7846e-05 -1.10911e-05 0.0201383)
(9.51945e-05 1.01327e-05 0.0201439)
(7.20382e-05 2.54368e-05 0.0201272)
(3.45145e-05 2.8157e-05 0.0201149)
(0.000112374 -1.16265e-05 0.0201758)
(0.000108131 9.46592e-07 0.0201591)
(7.6012e-05 5.29608e-06 0.0201251)
(2.67642e-05 -2.10657e-06 0.0201099)
(0.000117802 -5.31906e-06 0.0201986)
(0.000104941 -5.73682e-06 0.0201773)
(6.33967e-05 -1.42464e-05 0.0201497)
(1.72938e-05 -3.1393e-05 0.020152)
(0.000110703 -1.14452e-05 0.0201844)
(9.43274e-05 -1.83759e-05 0.020163)
(4.54106e-05 -3.10769e-05 0.0201418)
(2.55964e-06 -4.68907e-05 0.0201649)
(5.7207e-05 -1.29382e-05 0.0201265)
(5.23401e-05 -3.97564e-06 0.0201541)
(3.89786e-05 1.77891e-06 0.0201617)
(1.91655e-05 3.2186e-06 0.0201628)
(6.26753e-05 -1.32513e-05 0.0201728)
(5.66906e-05 -7.82507e-06 0.0201864)
(3.96685e-05 -6.24105e-06 0.020185)
(1.5442e-05 -8.82114e-06 0.0201841)
(6.52007e-05 -1.20711e-05 0.0202013)
(5.61748e-05 -1.26812e-05 0.0202089)
(3.5584e-05 -1.61142e-05 0.0202066)
(1.11375e-05 -2.19185e-05 0.0202096)
(6.01877e-05 -1.78695e-05 0.0202048)
(5.08295e-05 -2.16207e-05 0.0202119)
(2.84583e-05 -2.70049e-05 0.020212)
(5.21011e-06 -3.25521e-05 0.0202213)
(3.37971e-05 -1.26917e-05 0.0201246)
(2.9588e-05 -8.81348e-06 0.0201632)
(2.1714e-05 -6.42852e-06 0.0201821)
(1.05536e-05 -5.51455e-06 0.0201895)
(3.58395e-05 -1.31441e-05 0.0201751)
(3.1088e-05 -1.0902e-05 0.020203)
(2.17978e-05 -1.03405e-05 0.0202155)
(8.93179e-06 -1.12518e-05 0.0202207)
(3.66667e-05 -1.36823e-05 0.0202063)
(3.09928e-05 -1.43163e-05 0.0202282)
(2.03475e-05 -1.58301e-05 0.0202379)
(7.07886e-06 -1.79299e-05 0.0202432)
(3.34715e-05 -1.77079e-05 0.0202177)
(2.83469e-05 -1.99613e-05 0.0202384)
(1.74511e-05 -2.2449e-05 0.0202482)
(4.78104e-06 -2.45527e-05 0.0202551)
(2.02701e-05 -1.12984e-05 0.0201256)
(1.71432e-05 -9.5735e-06 0.0201702)
(1.24056e-05 -8.47977e-06 0.0201946)
(5.8994e-06 -7.87417e-06 0.0202053)
(2.09784e-05 -1.18263e-05 0.0201781)
(1.76471e-05 -1.09635e-05 0.0202131)
(1.23852e-05 -1.07813e-05 0.020232)
(5.20341e-06 -1.10967e-05 0.0202403)
(2.09926e-05 -1.27777e-05 0.0202104)
(1.75426e-05 -1.3346e-05 0.0202398)
(1.18191e-05 -1.40824e-05 0.0202554)
(4.46171e-06 -1.48645e-05 0.0202625)
(1.89923e-05 -1.53147e-05 0.0202251)
(1.61848e-05 -1.67604e-05 0.0202527)
(1.0604e-05 -1.80147e-05 0.0202673)
(3.61636e-06 -1.88591e-05 0.0202745)
(1.23207e-05 -9.45354e-06 0.0201276)
(1.01427e-05 -8.67397e-06 0.0201753)
(7.26202e-06 -8.11465e-06 0.0202028)
(3.39914e-06 -7.69693e-06 0.0202152)
(1.25162e-05 -9.95581e-06 0.0201808)
(1.02876e-05 -9.6722e-06 0.0202195)
(7.22886e-06 -9.63205e-06 0.0202416)
(3.10812e-06 -9.73013e-06 0.0202515)
(1.22305e-05 -1.08443e-05 0.0202135)
(1.01486e-05 -1.13112e-05 0.0202468)
(6.98137e-06 -1.17091e-05 0.0202655)
(2.82919e-06 -1.19998e-05 0.0202738)
(1.09617e-05 -1.23892e-05 0.0202293)
(9.40572e-06 -1.33439e-05 0.0202605)
(6.44644e-06 -1.40299e-05 0.0202778)
(2.54044e-06 -1.43885e-05 0.0202856)
(7.61098e-06 -7.54451e-06 0.0201294)
(6.12635e-06 -7.19329e-06 0.0201791)
(4.35835e-06 -6.88231e-06 0.0202081)
(2.03126e-06 -6.58882e-06 0.0202215)
(7.60729e-06 -7.96675e-06 0.0201829)
(6.13832e-06 -7.91844e-06 0.0202236)
(4.32656e-06 -7.93135e-06 0.0202474)
(1.91693e-06 -7.9524e-06 0.0202582)
(7.25565e-06 -8.66911e-06 0.0202156)
(5.99343e-06 -9.03394e-06 0.0202511)
(4.20253e-06 -9.27021e-06 0.0202714)
(1.82424e-06 -9.37594e-06 0.0202805)
(6.42786e-06 -9.60113e-06 0.0202317)
(5.5582e-06 -1.02413e-05 0.0202649)
(3.95002e-06 -1.06398e-05 0.0202836)
(1.74487e-06 -1.07973e-05 0.020292)
(4.77182e-06 -5.78153e-06 0.020131)
(3.77309e-06 -5.62431e-06 0.0201817)
(2.68152e-06 -5.44018e-06 0.0202116)
(1.2619e-06 -5.23443e-06 0.0202255)
(4.69974e-06 -6.10808e-06 0.0201844)
(3.74083e-06 -6.14573e-06 0.0202263)
(2.65482e-06 -6.17555e-06 0.020251)
(1.22308e-06 -6.17331e-06 0.0202623)
(4.38032e-06 -6.62423e-06 0.020217)
(3.61109e-06 -6.8982e-06 0.0202536)
(2.58167e-06 -7.04967e-06 0.0202749)
(1.20484e-06 -7.09057e-06 0.0202844)
(3.8304e-06 -7.18643e-06 0.020233)
(3.34179e-06 -7.61761e-06 0.0202673)
(2.44905e-06 -7.85752e-06 0.0202868)
(1.20205e-06 -7.92564e-06 0.0202956)
(3.01814e-06 -4.23708e-06 0.0201322)
(2.36231e-06 -4.16857e-06 0.0201835)
(1.69091e-06 -4.05579e-06 0.0202139)
(8.2284e-07 -3.91437e-06 0.0202281)
(2.93584e-06 -4.4748e-06 0.0201855)
(2.32113e-06 -4.53565e-06 0.020228)
(1.66941e-06 -4.56727e-06 0.0202532)
(8.14232e-07 -4.5624e-06 0.0202648)
(2.68202e-06 -4.83635e-06 0.0202179)
(2.21582e-06 -5.03501e-06 0.0202552)
(1.6197e-06 -5.13776e-06 0.0202769)
(8.19939e-07 -5.16011e-06 0.0202868)
(2.31659e-06 -5.17422e-06 0.0202338)
(2.04245e-06 -5.46302e-06 0.0202686)
(1.5389e-06 -5.61168e-06 0.0202886)
(8.39038e-07 -5.64169e-06 0.0202976)
(1.90605e-06 -2.92017e-06 0.0201331)
(1.49984e-06 -2.89241e-06 0.0201847)
(1.09991e-06 -2.8238e-06 0.0202154)
(5.82437e-07 -2.73052e-06 0.0202297)
(1.8375e-06 -3.08287e-06 0.0201863)
(1.46343e-06 -3.1403e-06 0.0202291)
(1.08345e-06 -3.16703e-06 0.0202546)
(5.83956e-07 -3.16444e-06 0.0202663)
(1.65516e-06 -3.3217e-06 0.0202185)
(1.38516e-06 -3.45885e-06 0.0202562)
(1.04798e-06 -3.52893e-06 0.0202781)
(5.93553e-07 -3.54536e-06 0.0202881)
(1.41919e-06 -3.51898e-06 0.0202342)
(1.27309e-06 -3.70659e-06 0.0202694)
(9.94566e-07 -3.79941e-06 0.0202896)
(6.135e-07 -3.81367e-06 0.0202987)
(1.20629e-06 -1.85164e-06 0.0201336)
(9.95153e-07 -1.84128e-06 0.0201854)
(7.85487e-07 -1.80047e-06 0.0202163)
(5.06615e-07 -1.74141e-06 0.0202306)
(1.16157e-06 -1.95924e-06 0.0201867)
(9.70847e-07 -2.00008e-06 0.0202297)
(7.76231e-07 -2.01663e-06 0.0202554)
(5.12618e-07 -2.01264e-06 0.0202672)
(1.04816e-06 -2.10054e-06 0.0202188)
(9.20839e-07 -2.18627e-06 0.0202567)
(7.54645e-07 -2.22992e-06 0.0202788)
(5.2118e-07 -2.23946e-06 0.0202889)
(9.08716e-07 -2.20516e-06 0.0202344)
(8.52325e-07 -2.31813e-06 0.0202697)
(7.21472e-07 -2.37446e-06 0.0202901)
(5.35332e-07 -2.38302e-06 0.0202993)
(9.22965e-07 -1.23453e-06 0.0201339)
(8.83239e-07 -1.23644e-06 0.0201858)
(8.10549e-07 -1.21548e-06 0.0202168)
(6.88704e-07 -1.17826e-06 0.0202313)
(8.98333e-07 -1.33716e-06 0.0201869)
(8.70239e-07 -1.36204e-06 0.0202301)
(8.10392e-07 -1.36801e-06 0.0202558)
(7.02193e-07 -1.35701e-06 0.0202678)
(8.41717e-07 -1.42051e-06 0.0202189)
(8.42749e-07 -1.47039e-06 0.0202569)
(8.01626e-07 -1.4949e-06 0.0202792)
(7.12323e-07 -1.49654e-06 0.0202893)
(7.69529e-07 -1.46658e-06 0.0202344)
(8.0128e-07 -1.5353e-06 0.0202699)
(7.82305e-07 -1.57328e-06 0.0202904)
(7.19798e-07 -1.58215e-06 0.0202997)
(0.0014487 -0.00390088 0.0131694)
(-0.00126742 -0.00167131 0.0141577)
(-0.00332467 -0.00162668 0.0243714)
(-0.000484266 0.000528873 0.0128513)
(0.00262472 0.000197831 0.00968898)
(0.00826069 0.00156839 0.0286403)
(0.0025986 4.30309e-05 0.0251804)
(0.0018064 -7.11606e-06 0.0374047)
(0.00107116 0.00129703 0.0153869)
(0.00291785 0.00264067 0.0304931)
(-0.000256114 0.00247833 0.0195617)
(0.000917577 0.000602787 0.0110023)
(0.00225495 -0.00152863 0.0108358)
(0.00248655 -0.00120896 0.0093291)
(0.000248114 -0.0056996 0.0387353)
(-0.00130577 -0.00115376 0.0186165)
(-0.00213744 0.00173008 0.0612337)
(-0.00433964 0.000669451 0.0618504)
(-0.00105378 -0.000230128 0.0380488)
(0.00118453 0.000481997 0.0381755)
(-0.000720659 0.000373232 0.0305846)
(-0.00266468 0.000133529 0.0530289)
(-0.00172479 0.0029597 0.0209681)
(0.000759983 0.00374302 0.0518436)
(-0.000435276 0.00249492 0.0477078)
(0.00282594 0.0049966 0.0332073)
(-0.000371672 0.0153637 0.0409186)
(-0.00438523 0.00631504 0.0412984)
(0.00285871 -0.000244815 0.0502964)
(0.0226206 -0.000477673 0.0618379)
(-0.000556169 0.00055642 0.0274366)
(-0.0180186 -0.00101417 0.0427114)
(-0.00353757 0.00345896 0.0582071)
(-0.000543768 0.00307047 0.021178)
(0.00204106 0.00367171 0.0294875)
(-0.00133779 0.00199515 0.0240324)
(-0.000792086 0.00319932 0.0364921)
(-0.00121845 0.00607696 0.0559565)
(-0.000322671 0.00241626 0.036796)
(-0.00143059 -0.00202595 0.0461051)
(0.000565118 0.000916628 0.0306888)
(0.00236012 -0.001287 0.0377366)
(-0.000989532 -0.0105402 0.0385331)
(-0.00182208 -0.00220034 0.0247019)
(-0.000265848 0.00228568 0.0132473)
(-0.0062956 0.000494731 0.0307739)
(0.000262951 0.00171692 0.00949567)
(0.00885769 -0.00202884 0.0344018)
(-0.0011584 -0.000109158 0.0418049)
(0.0011886 3.96708e-05 0.0481203)
(-0.00320679 -0.000690297 0.042708)
(0.00101392 0.00219008 0.0143099)
(-0.000722064 0.00305874 0.0198479)
(0.00070404 0.00135299 0.0658849)
(0.000357626 -0.000510298 0.024504)
(-0.000757696 -0.000283896 0.0693074)
(-0.00267164 0.00160569 0.0401488)
(-0.00685799 -0.000395041 0.0469538)
(-6.19386e-05 -0.0196582 0.0505492)
(0.000584593 -0.00470592 0.0438879)
(-0.00254109 0.00042211 0.0493904)
(-0.0134257 -0.00119578 0.0382867)
(-0.00361879 -0.0022473 0.0368855)
(0.011017 -0.0052166 0.047583)
(-0.000637955 -0.00111346 0.0761551)
(0.00175366 0.00176789 0.0232637)
(0.0114992 0.00276198 0.0425775)
(0.000732438 0.00125166 0.0156245)
(-0.00146445 0.00117777 0.0346287)
(-0.00014695 0.00171318 0.0507391)
(0.0012606 -0.00353182 0.0508635)
(0.00280741 -0.00755047 0.0468887)
(-0.000380647 0.00207364 0.0582142)
(-0.00326462 0.0025924 0.0477721)
(-0.00234767 -0.00231733 0.0512386)
(-8.56188e-05 -0.00125835 0.0488842)
(0.00114485 -0.000187908 0.0302863)
(0.000351974 0.000541178 0.0156741)
(-0.00549162 0.000150772 0.0790589)
(0.00153616 -0.00301773 0.0645391)
(0.00258751 0.00590476 0.0340198)
(0.00130875 0.00173604 0.0156903)
(0.00352593 0.00125788 0.0386995)
(0.0123435 -0.0111303 0.0397596)
(0.000501535 0.00230795 0.0215956)
(0.00291254 0.00208293 0.031117)
(0.00198277 0.000203431 0.0321299)
(-0.00115563 -0.000875138 0.0345978)
(0.00119924 0.00146071 0.026287)
(0.00112162 -3.04775e-06 0.038651)
(0.00124882 0.000467725 0.033475)
(0.000428302 0.000302846 0.0316532)
(0.00086225 -0.00157822 0.0332995)
(0.00192515 -0.000702973 0.0289301)
(0.00155813 0.00218679 0.0396797)
(-0.00243002 0.00301604 0.0346951)
(0.000294967 -0.000562859 0.0350173)
(-0.000458529 0.00142186 0.0164568)
(6.95647e-05 -0.000407037 0.0268999)
(-0.000696652 0.00206338 0.0285497)
(-0.00106871 0.00202555 0.0162438)
(0.000423575 0.00092379 0.028252)
(0.00172653 -0.000730261 0.0296634)
(-0.000348123 -0.000134538 0.0310821)
(-0.000287422 0.000888222 0.0300982)
(0.00152872 1.91869e-05 0.0339242)
(0.00189486 -6.1278e-05 0.0259796)
(0.000578808 0.000955635 0.0271783)
(8.82874e-05 0.000141069 0.0215114)
(-0.000300191 -0.00136782 0.0325536)
(-0.000316337 0.00133919 0.0377684)
(0.00018074 0.00186283 0.0340918)
(0.000253563 -0.000239325 0.0336902)
(0.000564403 -0.000631864 0.016284)
(0.0004144 -0.00145873 0.0311927)
(-0.00021623 -0.00191905 0.0437323)
(-0.000408618 -0.0006781 0.0195819)
(-0.000668777 -0.00147263 0.0336651)
(-0.000570826 -0.00168625 0.0372889)
(-0.00126357 -0.00185358 0.0386515)
(-0.0003949 -0.000435278 0.039759)
(-0.000520792 -0.000534561 0.0411643)
(-0.000517193 -0.000562625 0.0311497)
(-0.00149431 -0.000757996 0.0328532)
(-0.000666456 -0.000109371 0.0275251)
(-0.0017117 -0.00106162 0.043117)
(-0.00189276 -0.000551954 0.0430462)
(-0.00228865 -0.000582913 0.0424603)
(0.000191956 0.000228443 0.0126608)
(-0.000878046 -0.000320485 0.0119836)
(-0.00281585 -0.000156318 0.0143742)
(-0.00241743 0.00173979 0.0169359)
(-0.000439305 -0.00168156 0.0111629)
(-0.00116824 -0.00218333 0.0140019)
(-0.000893023 -0.000655442 0.0157619)
(9.63284e-05 0.00073241 0.0169183)
(0.000528446 -0.001034 0.0155296)
(0.00123757 -0.0011696 0.0165367)
(0.00110803 -0.000363957 0.0155532)
(0.000364399 0.000206237 0.0163951)
(-0.00110886 -0.000956313 0.0130215)
(-0.000732445 -0.00113512 0.01726)
(0.00105891 0.00020255 0.0172584)
(0.00133793 0.000892693 0.0171505)
(8.45019e-05 -0.000382056 0.0213158)
(-0.000353613 -0.000689375 0.0213385)
(-0.000773166 -0.000605153 0.0223086)
(-0.000635402 -4.1644e-05 0.0232415)
(3.1647e-05 -0.00124572 0.0205029)
(-0.000380491 -0.00147633 0.0217575)
(-0.000188116 -0.00089324 0.0226493)
(0.000257645 -0.000308554 0.0230348)
(0.000133917 -0.000706345 0.0229094)
(0.000384273 -0.000833698 0.0231514)
(0.000614652 -0.00041059 0.0226444)
(0.000478532 -5.26074e-05 0.0226753)
(-0.000540504 -0.000543878 0.0215905)
(-0.000354588 -0.000558061 0.0233274)
(0.000653975 6.29443e-05 0.0230772)
(0.000858461 0.00045934 0.0226326)
(0.000101186 -0.000130363 0.0191414)
(1.61815e-05 -0.000200866 0.0193882)
(-5.90725e-05 -0.000182404 0.0197899)
(8.01554e-05 -2.49163e-06 0.0201486)
(0.00010098 -0.000461968 0.0191068)
(-6.27533e-06 -0.00049376 0.0197039)
(7.63594e-05 -0.00029001 0.0201326)
(0.00032221 -5.97387e-05 0.020356)
(0.000136231 -0.000235949 0.0201244)
(0.000290254 -0.000254594 0.0204396)
(0.000398875 -9.46118e-05 0.0203769)
(0.000460818 5.90169e-05 0.0203819)
(-0.000104365 -0.000229656 0.0196082)
(3.47888e-05 -0.000196378 0.0204242)
(0.000407703 3.45015e-05 0.0204259)
(0.000558156 0.000198965 0.0202818)
(7.74395e-05 -0.000128491 0.0199038)
(5.33238e-05 -0.000153183 0.0200382)
(6.98435e-05 -0.00013514 0.0202004)
(0.000126523 -7.31276e-05 0.0203171)
(8.6213e-05 -0.000275486 0.0198392)
(5.19945e-05 -0.00027135 0.020087)
(0.000120518 -0.000184423 0.0202771)
(0.000228939 -8.27524e-05 0.0203632)
(7.14579e-05 -0.000133958 0.0202395)
(0.000151505 -0.000129853 0.0203762)
(0.00024658 -6.4419e-05 0.0203928)
(0.000308974 4.15607e-06 0.0203782)
(-2.57219e-05 -0.000123225 0.0199732)
(5.33236e-05 -9.39889e-05 0.0202839)
(0.000236211 -1.00936e-05 0.0203335)
(0.000332323 5.53951e-05 0.0202866)
(6.20208e-05 -6.94123e-05 0.0197992)
(6.80098e-05 -6.94943e-05 0.0199416)
(8.61066e-05 -6.27061e-05 0.0200603)
(0.000108892 -4.07361e-05 0.0201433)
(5.8738e-05 -0.000128038 0.0198231)
(6.02304e-05 -0.000119343 0.0200074)
(9.79e-05 -8.53195e-05 0.0201392)
(0.000144838 -4.26613e-05 0.0202074)
(4.44335e-05 -5.91699e-05 0.0200389)
(9.53167e-05 -5.19504e-05 0.0201755)
(0.000148758 -2.90788e-05 0.0202374)
(0.000183669 -3.22103e-06 0.0202497)
(4.61683e-06 -6.12142e-05 0.0199212)
(5.21747e-05 -4.63405e-05 0.0201251)
(0.000133913 -1.74666e-05 0.0202037)
(0.000183438 5.65988e-06 0.0202107)
(4.30642e-05 -4.46988e-05 0.0197998)
(4.9489e-05 -3.97877e-05 0.0199263)
(6.23496e-05 -3.55417e-05 0.0200258)
(7.02157e-05 -2.68805e-05 0.0200968)
(3.86242e-05 -6.87828e-05 0.0198273)
(4.50622e-05 -6.01607e-05 0.0199767)
(6.58633e-05 -4.49694e-05 0.0200861)
(8.5733e-05 -2.68548e-05 0.0201529)
(2.75575e-05 -3.12578e-05 0.0199402)
(5.80438e-05 -2.54905e-05 0.0200735)
(8.6931e-05 -1.78548e-05 0.0201544)
(0.000104499 -9.39749e-06 0.0201937)
(9.35244e-06 -3.30089e-05 0.0198887)
(3.70676e-05 -2.64451e-05 0.0200505)
(7.50858e-05 -1.79414e-05 0.0201429)
(0.00010029 -1.15301e-05 0.0201831)
(2.94106e-05 -2.90207e-05 0.0197776)
(3.39033e-05 -2.43204e-05 0.0199033)
(4.14894e-05 -2.22821e-05 0.0200018)
(4.29098e-05 -1.92166e-05 0.0200745)
(2.49533e-05 -3.92788e-05 0.0198133)
(3.06109e-05 -3.35283e-05 0.0199544)
(4.20762e-05 -2.69251e-05 0.0200602)
(5.00321e-05 -1.94265e-05 0.020132)
(1.73036e-05 -2.02281e-05 0.0198851)
(3.49246e-05 -1.67198e-05 0.0200215)
(5.06981e-05 -1.46887e-05 0.0201149)
(5.90728e-05 -1.24615e-05 0.0201722)
(7.4613e-06 -2.15216e-05 0.019868)
(2.3481e-05 -1.879e-05 0.0200182)
(4.25746e-05 -1.7125e-05 0.0201188)
(5.53817e-05 -1.62105e-05 0.0201775)
(2.00277e-05 -1.99903e-05 0.0197651)
(2.22086e-05 -1.66451e-05 0.019891)
(2.63976e-05 -1.58252e-05 0.0199905)
(2.54061e-05 -1.50251e-05 0.0200657)
(1.65249e-05 -2.4799e-05 0.0198025)
(2.00424e-05 -2.12602e-05 0.0199417)
(2.6266e-05 -1.84843e-05 0.0200479)
(2.91259e-05 -1.55044e-05 0.0201241)
(1.13089e-05 -1.5455e-05 0.0198541)
(2.10949e-05 -1.34414e-05 0.0199943)
(2.95996e-05 -1.32777e-05 0.0200955)
(3.34391e-05 -1.3043e-05 0.0201636)
(5.21616e-06 -1.61429e-05 0.0198549)
(1.4408e-05 -1.5052e-05 0.0200031)
(2.44449e-05 -1.54193e-05 0.0201085)
(3.10109e-05 -1.60027e-05 0.020177)
(1.37315e-05 -1.41162e-05 0.0197578)
(1.44478e-05 -1.1965e-05 0.0198843)
(1.66318e-05 -1.18297e-05 0.0199853)
(1.48928e-05 -1.19647e-05 0.0200625)
(1.11597e-05 -1.66806e-05 0.0197955)
(1.29959e-05 -1.46275e-05 0.0199346)
(1.63076e-05 -1.36237e-05 0.0200421)
(1.70241e-05 -1.25941e-05 0.0201213)
(7.59268e-06 -1.24178e-05 0.0198371)
(1.28339e-05 -1.12947e-05 0.01998)
(1.73778e-05 -1.16867e-05 0.0200859)
(1.90549e-05 -1.19987e-05 0.0201603)
(3.53883e-06 -1.27612e-05 0.019847)
(8.7768e-06 -1.23463e-05 0.0199954)
(1.42007e-05 -1.31546e-05 0.0201036)
(1.76199e-05 -1.39631e-05 0.0201774)
(9.48005e-06 -1.00991e-05 0.0197543)
(9.42409e-06 -8.7755e-06 0.0198814)
(1.05005e-05 -8.95915e-06 0.0199834)
(8.71374e-06 -9.43292e-06 0.0200619)
(7.66099e-06 -1.16687e-05 0.0197916)
(8.44875e-06 -1.05206e-05 0.0199311)
(1.01629e-05 -1.03113e-05 0.0200396)
(1.00168e-05 -1.0096e-05 0.0201208)
(5.18125e-06 -9.91952e-06 0.019828)
(7.88692e-06 -9.31021e-06 0.0199727)
(1.03008e-05 -9.8025e-06 0.0200814)
(1.09654e-05 -1.01871e-05 0.0201593)
(2.38331e-06 -1.00778e-05 0.0198423)
(5.35619e-06 -9.9406e-06 0.0199912)
(8.34945e-06 -1.07141e-05 0.0201011)
(1.01525e-05 -1.14098e-05 0.0201779)
(6.5719e-06 -7.23254e-06 0.019753)
(6.1935e-06 -6.43247e-06 0.0198805)
(6.68302e-06 -6.73113e-06 0.0199831)
(5.13028e-06 -7.27286e-06 0.0200623)
(5.3057e-06 -8.29424e-06 0.0197897)
(5.52841e-06 -7.6685e-06 0.0199296)
(6.38473e-06 -7.78256e-06 0.0200388)
(5.95255e-06 -7.87536e-06 0.0201211)
(3.56496e-06 -7.7161e-06 0.0198234)
(4.90652e-06 -7.39244e-06 0.0199691)
(6.18111e-06 -7.83749e-06 0.0200793)
(6.38898e-06 -8.16508e-06 0.0201592)
(1.60584e-06 -7.7972e-06 0.0198396)
(3.28927e-06 -7.77081e-06 0.0199889)
(4.96608e-06 -8.39319e-06 0.0200998)
(5.92681e-06 -8.91302e-06 0.0201782)
(4.54714e-06 -5.13997e-06 0.0197527)
(4.0934e-06 -4.659e-06 0.0198804)
(4.28683e-06 -4.96326e-06 0.0199834)
(3.05412e-06 -5.45421e-06 0.0200631)
(3.67627e-06 -5.89586e-06 0.0197889)
(3.63654e-06 -5.56022e-06 0.019929)
(4.04547e-06 -5.77197e-06 0.0200387)
(3.57956e-06 -5.95154e-06 0.0201216)
(2.45291e-06 -5.81179e-06 0.019821)
(3.08788e-06 -5.64451e-06 0.0199674)
(3.75837e-06 -6.00315e-06 0.0200785)
(3.77622e-06 -6.25458e-06 0.0201594)
(1.07882e-06 -5.85501e-06 0.0198379)
(2.0308e-06 -5.87561e-06 0.0199876)
(2.98191e-06 -6.34185e-06 0.0200991)
(3.50397e-06 -6.71253e-06 0.0201784)
(3.10304e-06 -3.57945e-06 0.0197528)
(2.69737e-06 -3.29219e-06 0.0198807)
(2.75587e-06 -3.54869e-06 0.0199839)
(1.84631e-06 -3.94212e-06 0.0200638)
(2.51388e-06 -4.11893e-06 0.0197886)
(2.38547e-06 -3.94167e-06 0.019929)
(2.57089e-06 -4.14905e-06 0.0200389)
(2.17847e-06 -4.32373e-06 0.0201222)
(1.66604e-06 -4.20841e-06 0.0198199)
(1.95308e-06 -4.12575e-06 0.0199666)
(2.30729e-06 -4.39396e-06 0.0200782)
(2.26372e-06 -4.57498e-06 0.0201596)
(7.17871e-07 -4.23428e-06 0.019837)
(1.25796e-06 -4.2666e-06 0.0199869)
(1.80441e-06 -4.59992e-06 0.0200987)
(2.09736e-06 -4.85421e-06 0.0201785)
(2.04639e-06 -2.39433e-06 0.0197531)
(1.74328e-06 -2.22797e-06 0.019881)
(1.75224e-06 -2.41465e-06 0.0199844)
(1.14098e-06 -2.69537e-06 0.0200644)
(1.65881e-06 -2.76072e-06 0.0197886)
(1.53645e-06 -2.66963e-06 0.019929)
(1.61958e-06 -2.82938e-06 0.0200391)
(1.34151e-06 -2.96416e-06 0.0201226)
(1.09322e-06 -2.8771e-06 0.0198194)
(1.22534e-06 -2.83931e-06 0.0199663)
(1.4179e-06 -3.02381e-06 0.0200781)
(1.37403e-06 -3.14539e-06 0.0201599)
(4.65518e-07 -2.88745e-06 0.0198364)
(7.78323e-07 -2.91918e-06 0.0199865)
(1.09795e-06 -3.14381e-06 0.0200985)
(1.27022e-06 -3.30985e-06 0.0201785)
(1.27631e-06 -1.50695e-06 0.0197533)
(1.10093e-06 -1.42458e-06 0.0198813)
(1.10453e-06 -1.53975e-06 0.0199847)
(7.62306e-07 -1.71064e-06 0.0200648)
(1.02944e-06 -1.73067e-06 0.0197886)
(9.66784e-07 -1.69121e-06 0.0199291)
(1.01602e-06 -1.7932e-06 0.0200393)
(8.66149e-07 -1.88049e-06 0.0201229)
(6.75762e-07 -1.81169e-06 0.0198191)
(7.6036e-07 -1.80082e-06 0.0199662)
(8.78904e-07 -1.915e-06 0.0200781)
(8.68939e-07 -1.99149e-06 0.02016)
(2.91392e-07 -1.80345e-06 0.0198361)
(4.88826e-07 -1.83313e-06 0.0199862)
(6.85338e-07 -1.97247e-06 0.0200983)
(8.01807e-07 -2.0766e-06 0.0201785)
(8.39194e-07 -1.00881e-06 0.0197535)
(8.10775e-07 -1.01511e-06 0.0198815)
(8.37405e-07 -1.08226e-06 0.0199849)
(7.4734e-07 -1.16658e-06 0.020065)
(6.63207e-07 -1.15143e-06 0.0197885)
(7.02133e-07 -1.16963e-06 0.0199291)
(7.70676e-07 -1.23177e-06 0.0200393)
(7.6664e-07 -1.28734e-06 0.020123)
(4.3271e-07 -1.19505e-06 0.0198189)
(5.48039e-07 -1.22546e-06 0.019966)
(6.67723e-07 -1.29692e-06 0.020078)
(7.3224e-07 -1.35413e-06 0.02016)
(1.96047e-07 -1.1606e-06 0.0198357)
(3.69965e-07 -1.21488e-06 0.0199859)
(5.39831e-07 -1.30675e-06 0.0200981)
(6.66515e-07 -1.38423e-06 0.0201784)
(-0.00351387 -0.00336673 0.0209299)
(-0.000231261 -0.000760417 0.00359993)
(0.000464433 0.00146932 0.0176928)
(0.00430822 0.00392249 0.0196629)
(-0.00221445 -0.00293476 0.0174132)
(0.000931375 -0.001205 0.0228176)
(0.00353864 0.00222397 0.0137295)
(0.00110344 0.00192298 0.00968742)
(0.000226708 -0.000367467 0.00904517)
(0.00240905 -0.00129984 0.0173558)
(0.00261807 6.95963e-05 0.0125063)
(0.00491792 -0.00860246 0.0314892)
(-5.09784e-05 -0.000436375 0.0196824)
(0.000653735 0.000862242 0.00747337)
(-0.000181152 -0.000143299 0.0110703)
(0.0014751 -0.00395376 0.0112675)
(-0.00053504 0.000604326 0.0650805)
(-0.00120586 0.0013357 0.0583538)
(0.000723663 0.00196859 0.0383132)
(-0.000800589 0.000219039 0.0252802)
(0.000429455 0.00219097 0.0170752)
(0.000945498 0.00249651 0.0313292)
(0.00301761 0.00288683 0.0507594)
(0.00334275 0.00460188 0.0728287)
(0.00430933 -0.000591038 0.0601774)
(0.00045525 0.000384023 0.0390038)
(0.00226826 0.00168478 0.0585487)
(0.000415852 0.00101358 0.00364423)
(0.00127098 -0.000816268 0.0398819)
(6.80797e-06 -0.00181891 0.0425718)
(0.00181598 0.000876908 0.0542027)
(0.000632928 0.00174537 0.0145237)
(0.00116009 0.00411712 0.0512065)
(0.00211223 0.00379785 0.0368341)
(5.89118e-05 -0.000937727 0.0253666)
(-0.00684946 -0.0054419 0.0452374)
(-0.000184021 1.69289e-05 0.0173823)
(-0.00152798 -0.00283396 0.0485612)