/*--------------------------------*- C++ -*----------------------------------*\
| =========                 |                                                 |
| \\      /  F ield         | OpenFOAM: The Open Source CFD Toolbox           |
|  \\    /   O peration     | Version:  2506                                  |
|   \\  /    A nd           | Website:  www.openfoam.com                      |
|    \\/     M anipulation  |                                                 |
\*---------------------------------------------------------------------------*/
FoamFile
{
    version     2.0;
    format      ascii;
    arch        "LSB;label=32;scalar=64";
    class       volVectorField;
    location    "0.1";
    object      Us;
}
// * * * * * * * * * * * * * * * * * * * * * * * * * * * * * * * * * * * * * //

dimensions      [0 1 -1 0 0 0 0];

internalField   nonuniform List<vector> 
1152
(
(-0.000273507 2.07634e-05 8.55045e-05)
(0.000261639 0.00039894 -0.00037173)
(0.000760837 0.00034457 -0.000558113)
(-7.57597e-05 0.000650315 -0.000516019)
(-0.000293588 -9.50517e-05 -0.00013248)
(-0.000339744 0.000234237 -0.000337576)
(8.94259e-05 0.000634847 -6.58991e-05)
(0.00035954 0.000607829 -0.000109069)
(0.000171638 -0.000114989 0.000195031)
(1.94314e-06 0.000311011 3.75679e-05)
(-0.000418704 0.00122418 -0.000247232)
(-0.000525324 0.000243904 0.000452731)
(0.000316268 -0.000118435 0.000193089)
(-9.83061e-05 1.67787e-05 0.000242431)
(3.9313e-05 -0.000196482 9.29772e-05)
(0.000269461 -4.82657e-05 0.000394131)
(-0.000143914 0.00157735 0.0104097)
(0.000906443 0.00205499 0.0107203)
(0.0023458 0.00457065 0.00918907)
(0.000639636 0.00434739 0.00542463)
(0.000651822 0.00181172 0.00928594)
(0.00133795 0.00255316 0.00864938)
(0.00323727 0.00275742 0.00688482)
(0.00167342 0.00423781 0.00884356)
(-0.00069991 0.00172836 0.00775142)
(-0.000416893 0.00095783 0.0104895)
(0.00193309 0.00242867 0.00940006)
(0.000881425 0.00197286 0.0127225)
(-0.00140051 0.00185351 0.00873004)
(-0.00106291 0.00239204 0.00563997)
(0.000827862 0.000449415 0.00818596)
(-0.000340231 -7.67499e-05 0.0115114)
(-0.000447238 0.00175003 0.0112704)
(0.000531572 0.00182508 0.0124089)
(0.000579286 0.00273448 0.0122459)
(0.000580995 0.00357518 0.0115673)
(0.000104017 0.00167822 0.0130633)
(0.00127566 0.00249414 0.0135074)
(0.000936909 0.00300552 0.0140484)
(-0.000395695 0.00278163 0.0137611)
(-0.000612718 0.00152563 0.0142612)
(0.000728792 0.00213914 0.0145408)
(0.00106554 0.00193592 0.0143425)
(-0.000387014 0.00242717 0.0149776)
(0.000642083 0.00106526 0.0151935)
(0.000780689 0.00219262 0.0145398)
(-0.000246388 0.000762308 0.0131796)
(-0.00129574 0.000773565 0.0149868)
(0.00105286 0.00308388 0.0131035)
(0.00135255 0.00290194 0.0139987)
(0.00113015 0.0028531 0.0146414)
(0.000532287 0.00207505 0.0143045)
(0.000675866 0.00176595 0.0145928)
(0.000599043 0.00220396 0.0160334)
(0.000439472 0.00250548 0.0160646)
(-0.000456633 0.00184413 0.0155833)
(-0.000509131 0.000546622 0.0165192)
(-0.000516521 0.000935637 0.0167395)
(-0.000686414 0.000979754 0.0165855)
(-0.000948183 0.00121553 0.0160624)
(-0.00036555 -0.000592207 0.0171535)
(-0.000538503 -0.000260403 0.0168346)
(-0.000748661 0.00056998 0.017254)
(-0.000856579 0.000337305 0.0159415)
(-1.05289e-05 0.00278062 0.0133382)
(0.000236234 0.00177052 0.0138754)
(0.000381788 0.00154595 0.0144675)
(0.000486796 0.00123875 0.0139267)
(-0.000128267 0.000652599 0.0152593)
(0.000124145 0.00097289 0.0150543)
(0.000430355 0.00123151 0.0152284)
(4.99297e-05 0.00132462 0.0146164)
(-0.00104954 0.00102834 0.0160988)
(-0.0014479 -0.000158426 0.0163693)
(-0.000340986 0.00057762 0.016535)
(-0.000625286 0.00108672 0.0165283)
(-0.0011513 6.34418e-05 0.0160465)
(-0.000671557 -0.000485284 0.0167445)
(-0.00165749 0.00049876 0.0163699)
(-0.00107914 0.000223678 0.0155277)
(0.000336722 0.000352605 0.0127152)
(0.000379804 0.00047197 0.0131639)
(0.000662846 0.000822698 0.0137483)
(0.000620959 0.00046574 0.013442)
(-0.00017948 -0.000100911 0.0145582)
(2.01415e-05 -0.000578823 0.0144304)
(-0.000195188 0.000762843 0.0141863)
(-0.000216466 0.000579335 0.0131719)
(0.000581725 0.00110018 0.016289)
(-0.00106618 -3.31185e-05 0.0149745)
(-0.000761271 0.000200792 0.0146169)
(0.00016894 0.000445487 0.0141542)
(-0.000228327 0.00194705 0.0163869)
(-0.00101206 6.13214e-05 0.0151623)
(-0.000436439 0.000660589 0.0148557)
(-0.000287409 0.00044273 0.013958)
(0.000502365 -1.90238e-05 0.0128226)
(0.000414734 -0.000317483 0.0126175)
(5.74867e-05 -0.00021063 0.0122869)
(0.000916352 -9.51685e-05 0.0123495)
(-0.000536275 -0.000407791 0.0124129)
(-0.000114886 -0.000322936 0.0128478)
(0.000273948 8.93135e-05 0.0126343)
(-0.000312928 0.000279965 0.0123053)
(0.000125577 -2.71917e-05 0.0145963)
(-0.000641378 -0.0005519 0.0128237)
(0.000487556 7.04777e-05 0.0135333)
(0.000243284 0.000417078 0.012329)
(-2.00723e-05 0.00196719 0.0146763)
(0.000623108 0.000887514 0.0134636)
(0.000874043 0.000576961 0.0129785)
(0.000740905 0.00210653 0.012667)
(0 0 0)
(0 0 0)
(0 0 0)
(0 0 0)
(0 0 0)
(0 0 0)
(0 0 0)
(-0.000213065 0.00154365 0.0121945)
(0 0 0)
(0 0 0)
(0 0 0)
(0 0 0)
(0 0 0)
(0 0 0)
(0 0 0)
(-0.000250305 0.00171244 0.0127099)
(0 0 0)
(0 0 0)
(0 0 0)
(0 0 0)
(0 0 0)
(0 0 0)
(0 0 0)
(0 0 0)
(0 0 0)
(0 0 0)
(0 0 0)
(0 0 0)
(0 0 0)
(0 0 0)
(0 0 0)
(0 0 0)
(0 0 0)
(0 0 0)
(0 0 0)
(0 0 0)
(0 0 0)
(0 0 0)
(0 0 0)
(0 0 0)
(0 0 0)
(0 0 0)
(0 0 0)
(0 0 0)
(0 0 0)
(0 0 0)
(0 0 0)
(0 0 0)
(0 0 0)
(0 0 0)
(0 0 0)
(0 0 0)
(0 0 0)
(0 0 0)
(0 0 0)
(0 0 0)
(0 0 0)
(0 0 0)
(0 0 0)
(0 0 0)
(0 0 0)
(0 0 0)
(0 0 0)
(0 0 0)
(0 0 0)
(0 0 0)
(0 0 0)
(0 0 0)
(0 0 0)
(0 0 0)
(0 0 0)
(0 0 0)
(0 0 0)
(0 0 0)
(0 0 0)
(0 0 0)
(0 0 0)
(0 0 0)
(0 0 0)
(0 0 0)
(0 0 0)
(0 0 0)
(0 0 0)
(0 0 0)
(0 0 0)
(0 0 0)
(0 0 0)
(0 0 0)
(0 0 0)
(0 0 0)
(0 0 0)
(0 0 0)
(0 0 0)
(0 0 0)
(0 0 0)
(0 0 0)
(0 0 0)
(0 0 0)
(0 0 0)
(0 0 0)
(0 0 0)
(0 0 0)
(0 0 0)
(0 0 0)
(0 0 0)
(0 0 0)
(0 0 0)
(0 0 0)
(0 0 0)
(0 0 0)
(0 0 0)
(0 0 0)
(0 0 0)
(0 0 0)
(0 0 0)
(0 0 0)
(0 0 0)
(0 0 0)
(0 0 0)
(0 0 0)
(0 0 0)
(0 0 0)
(0 0 0)
(0 0 0)
(0 0 0)
(0 0 0)
(0 0 0)
(0 0 0)
(0 0 0)
(0 0 0)
(0 0 0)
(0 0 0)
(0 0 0)
(0 0 0)
(0 0 0)
(0 0 0)
(0 0 0)
(0 0 0)
(0 0 0)
(0 0 0)
(0 0 0)
(0 0 0)
(0 0 0)
(0 0 0)
(0 0 0)
(0 0 0)
(0 0 0)
(0 0 0)
(0 0 0)
(0 0 0)
(0 0 0)
(0 0 0)
(0 0 0)
(0 0 0)
(0 0 0)
(0 0 0)
(0 0 0)
(0 0 0)
(0 0 0)
(0 0 0)
(0 0 0)
(0 0 0)
(0 0 0)
(0 0 0)
(0 0 0)
(0 0 0)
(0 0 0)
(0 0 0)
(0 0 0)
(0 0 0)
(0 0 0)
(0 0 0)
(0 0 0)
(0 0 0)
(0 0 0)
(0 0 0)
(0 0 0)
(0 0 0)
(0 0 0)
(0 0 0)
(0 0 0)
(0 0 0)
(0 0 0)
(0 0 0)
(0 0 0)
(0 0 0)
(0 0 0)
(0 0 0)
(0 0 0)
(0 0 0)
(0 0 0)
(0 0 0)
(0 0 0)
(0 0 0)
(0 0 0)
(0 0 0)
(0 0 0)
(0 0 0)
(0 0 0)
(0 0 0)
(0 0 0)
(0 0 0)
(0 0 0)
(0 0 0)
(0 0 0)
(0 0 0)
(0 0 0)
(0 0 0)
(0 0 0)
(0 0 0)
(0 0 0)
(0 0 0)
(0 0 0)
(0 0 0)
(0 0 0)
(0 0 0)
(0 0 0)
(0 0 0)
(0 0 0)
(0 0 0)
(0 0 0)
(0 0 0)
(0 0 0)
(0 0 0)
(0 0 0)
(0 0 0)
(0 0 0)
(0 0 0)
(0 0 0)
(0 0 0)
(0 0 0)
(0 0 0)
(0 0 0)
(0 0 0)
(0 0 0)
(0 0 0)
(0 0 0)
(0 0 0)
(0 0 0)
(0 0 0)
(0 0 0)
(0 0 0)
(0 0 0)
(0 0 0)
(0 0 0)
(0 0 0)
(0 0 0)
(0 0 0)
(0 0 0)
(0 0 0)
(0 0 0)
(0 0 0)
(0 0 0)
(0 0 0)
(0 0 0)
(0 0 0)
(0 0 0)
(0 0 0)
(0 0 0)
(0 0 0)
(0 0 0)
(0 0 0)
(0 0 0)
(0 0 0)
(0 0 0)
(0 0 0)
(0 0 0)
(0 0 0)
(0 0 0)
(0 0 0)
(0 0 0)
(0 0 0)
(4.33953e-05 -1.88007e-05 4.38179e-05)
(7.47413e-05 -8.31784e-05 7.22189e-05)
(-0.00125168 0.000407404 -4.97277e-05)
(-5.27945e-05 -7.92927e-06 -8.56829e-05)
(0.0001883 0.000117045 8.37758e-05)
(0.00020857 -0.000112695 0.00049287)
(7.07841e-05 5.85082e-05 3.32425e-05)
(-0.000103158 0.000162379 0.000183629)
(0.000310001 -3.62416e-05 -2.47881e-05)
(0.00034051 0.000281035 0.000139771)
(8.38962e-05 -6.13702e-05 3.41394e-05)
(0.000212277 0.000232474 0.000101016)
(0.000532146 -0.000102528 -0.000196413)
(0.000172709 6.4529e-05 0.000187313)
(-6.10069e-06 8.4704e-05 5.54765e-05)
(-0.0003582 0.000159792 0.000223075)
(-0.000756806 0.00168822 0.00928447)
(-0.00214001 0.0019097 0.0102818)
(-0.00160019 0.000670954 0.00662233)
(-0.000574509 0.00110193 0.00847154)
(-5.54736e-05 0.000735407 0.00783338)
(-0.000441033 0.000978044 0.0100049)
(-0.00101204 0.00170089 0.00552962)
(-6.86526e-05 0.00155297 0.0103857)
(-0.000115271 0.00173972 0.00722513)
(0.0011876 0.00250116 0.00735016)
(-2.11551e-05 0.0039129 0.00892793)
(-0.00152109 0.0025599 0.00980944)
(0.0009214 0.0015939 0.00748074)
(0.00360184 0.000548205 0.00882821)
(0.000143247 0.00105303 0.00471025)
(-0.00306963 0.000213015 0.00803904)
(-0.000337704 0.00183891 0.0128249)
(-0.000756355 0.00256665 0.013188)
(0.000210393 0.00168411 0.0122493)
(-0.000206252 0.00128333 0.01163)
(-0.000443472 0.00202231 0.0111268)
(0.000509015 0.002302 0.0125559)
(0.0010155 0.00123507 0.013866)
(0.000235817 0.000935676 0.0143726)
(-0.000217011 0.00234872 0.00914723)
(0.000973786 0.00151853 0.0111803)
(0.000738112 -0.000145527 0.0147221)
(0.000140715 0.000465654 0.0138344)
(-0.000191381 0.00221367 0.00904947)
(-5.66893e-06 0.00128369 0.0113683)
(0.000275768 0.00175978 0.00946774)
(0.000540869 0.000495364 0.0139878)
(-0.000905698 0.0015236 0.0117611)
(0.000543082 0.00218273 0.0131798)
(0.0012498 0.00165959 0.012768)
(0.00109192 0.0023096 0.0132732)
(-0.000828331 0.00303542 0.0119361)
(-0.000552124 0.0032222 0.0142193)
(0.000461695 0.00115377 0.0129227)
(0.000170478 0.0017573 0.0145335)
(-0.000246972 0.00189448 0.0096149)
(-0.00155446 0.00133484 0.0149597)
(0.000380638 -0.000531488 0.0161808)
(-0.000773878 0.00031587 0.0160948)
(-0.00143084 0.000924002 0.0111963)
(-0.000226969 0.000205001 0.0145529)
(-8.2782e-05 1.15061e-05 0.0154596)
(-0.000796419 -8.00468e-06 0.0167496)
(-0.000560595 0.00116637 0.0121416)
(4.06329e-05 0.00186625 0.0108302)
(0.00130553 0.00161529 0.0123321)
(0.000555408 0.00176739 0.0123984)
(-0.000518894 0.00164815 0.0113034)
(-3.04675e-05 0.00132245 0.0121777)
(0.000275984 0.00046147 0.0122688)
(0.000701578 -3.58994e-05 0.0147603)
(-0.000607658 0.00206045 0.0104964)
(-0.000761565 0.00113231 0.0137403)
(0.000261724 0.000576927 0.0158256)
(-0.000271188 5.66326e-05 0.0157116)
(0.000395095 -0.000162641 0.0112478)
(0.000495809 0.000522981 0.0140576)
(0.000668513 0.00130612 0.0159045)
(-0.000338804 0.000468166 0.0156612)
(2.41674e-05 0.00167972 0.012549)
(0.000271124 0.000761021 0.0100698)
(0.00113074 0.00123608 0.0117014)
(0.000418451 0.000648552 0.0130602)
(0.000169435 0.000704905 0.00843697)
(0.00120209 0.000829023 0.0110006)
(0.000975422 0.000461381 0.0126217)
(-0.00020607 0.00023952 0.0137008)
(0.000787546 0.00171447 0.00988603)
(0.00130657 0.0015797 0.0129461)
(0.00222543 0.00104843 0.0144935)
(0.00124734 0.00154031 0.0155914)
(0.00039059 -0.00107828 0.0100112)
(0.000250891 -0.000234326 0.0118777)
(0.000968798 0.00198378 0.014651)
(-5.99874e-05 0.00183352 0.0156401)
(-0.00126386 -0.00143812 0.0100704)
(-0.000856072 0.00136682 0.010379)
(0.00103955 0.000365064 0.0128027)
(0.0012122 0.000229692 0.0138588)
(-0.000694339 0.00214996 0.00689653)
(0.00091561 0.00226219 0.0101053)
(0.0018176 -0.000548938 0.0132396)
(-0.000612014 -0.000173642 0.0144068)
(-0.000466467 0.00157753 0.00974998)
(0.000753514 -3.1726e-05 0.0112516)
(0.00154604 6.46147e-05 0.0133261)
(0.00106217 0.00126937 0.0144899)
(0.000313079 0.000188604 0.0083784)
(0.000122705 -0.00117203 0.0126148)
(0.000167157 0.00131196 0.0137574)
(0.000655756 0.00241628 0.0140683)
(0 0 0)
(0 0 0)
(0 0 0)
(0 0 0)
(0 0 0)
(0 0 0)
(0 0 0)
(0 0 0)
(0 0 0)
(0 0 0)
(0 0 0)
(0 0 0)
(0 0 0)
(0 0 0)
(0 0 0)
(0 0 0)
(0 0 0)
(0 0 0)
(0 0 0)
(0 0 0)
(0 0 0)
(0 0 0)
(0 0 0)
(0 0 0)
(0 0 0)
(0 0 0)
(0 0 0)
(0 0 0)
(0 0 0)
(0 0 0)
(0 0 0)
(0 0 0)
(0 0 0)
(0 0 0)
(0 0 0)
(0 0 0)
(0 0 0)
(0 0 0)
(0 0 0)
(0 0 0)
(0 0 0)
(0 0 0)
(0 0 0)
(0 0 0)
(0 0 0)
(0 0 0)
(0 0 0)
(0 0 0)
(0 0 0)
(0 0 0)
(0 0 0)
(0 0 0)
(0 0 0)
(0 0 0)
(0 0 0)
(0 0 0)
(0 0 0)
(0 0 0)
(0 0 0)
(0 0 0)
(0 0 0)
(0 0 0)
(0 0 0)
(0 0 0)
(0 0 0)
(0 0 0)
(0 0 0)
(0 0 0)
(0 0 0)
(0 0 0)
(0 0 0)
(0 0 0)
(0 0 0)
(0 0 0)
(0 0 0)
(0 0 0)
(0 0 0)
(0 0 0)
(0 0 0)
(0 0 0)
(0 0 0)
(0 0 0)
(0 0 0)
(0 0 0)
(0 0 0)
(0 0 0)
(0 0 0)
(0 0 0)
(0 0 0)
(0 0 0)
(0 0 0)
(0 0 0)
(0 0 0)
(0 0 0)
(0 0 0)
(0 0 0)
(0 0 0)
(0 0 0)
(0 0 0)
(0 0 0)
(0 0 0)
(0 0 0)
(0 0 0)
(0 0 0)
(0 0 0)
(0 0 0)
(0 0 0)
(0 0 0)
(0 0 0)
(0 0 0)
(0 0 0)
(0 0 0)
(0 0 0)
(0 0 0)
(0 0 0)
(0 0 0)
(0 0 0)
(0 0 0)
(0 0 0)
(0 0 0)
(0 0 0)
(0 0 0)
(0 0 0)
(0 0 0)
(0 0 0)
(0 0 0)
(0 0 0)
(0 0 0)
(0 0 0)
(0 0 0)
(0 0 0)
(0 0 0)
(0 0 0)
(0 0 0)
(0 0 0)
(0 0 0)
(0 0 0)
(0 0 0)
(0 0 0)
(0 0 0)
(0 0 0)
(0 0 0)
(0 0 0)
(0 0 0)
(0 0 0)
(0 0 0)
(0 0 0)
(0 0 0)
(0 0 0)
(0 0 0)
(0 0 0)
(0 0 0)
(0 0 0)
(0 0 0)
(0 0 0)
(0 0 0)
(0 0 0)
(0 0 0)
(0 0 0)
(0 0 0)
(0 0 0)
(0 0 0)
(0 0 0)
(0 0 0)
(0 0 0)
(0 0 0)
(0 0 0)
(0 0 0)
(0 0 0)
(0 0 0)
(0 0 0)
(0 0 0)
(0 0 0)
(0 0 0)
(0 0 0)
(0 0 0)
(0 0 0)
(0 0 0)
(0 0 0)
(0 0 0)
(0 0 0)
(0 0 0)
(0 0 0)
(0 0 0)
(0 0 0)
(0 0 0)
(0 0 0)
(0 0 0)
(0 0 0)
(0 0 0)
(0 0 0)
(0 0 0)
(0 0 0)
(0 0 0)
(0 0 0)
(0 0 0)
(0 0 0)
(0 0 0)
(0 0 0)
(0 0 0)
(0 0 0)
(0 0 0)
(0 0 0)
(0 0 0)
(0 0 0)
(0 0 0)
(0 0 0)
(0 0 0)
(0 0 0)
(0 0 0)
(0 0 0)
(0 0 0)
(0 0 0)
(0 0 0)
(0 0 0)
(0 0 0)
(0 0 0)
(0 0 0)
(0 0 0)
(0 0 0)
(0 0 0)
(0 0 0)
(0 0 0)
(0 0 0)
(0 0 0)
(0 0 0)
(0 0 0)
(0 0 0)
(0 0 0)
(0 0 0)
(0 0 0)
(0 0 0)
(0 0 0)
(0 0 0)
(0 0 0)
(0 0 0)
(0 0 0)
(0 0 0)
(0 0 0)
(0 0 0)
(0 0 0)
(0 0 0)
(0 0 0)
(0 0 0)
(0 0 0)
(0 0 0)
(0 0 0)
(0 0 0)
(0 0 0)
(0 0 0)
(0 0 0)
(0 0 0)
(0 0 0)
(0 0 0)
(0 0 0)
(0 0 0)
(0 0 0)
(0 0 0)
(0 0 0)
(0 0 0)
(0 0 0)
(0 0 0)
(0 0 0)
(0 0 0)
(0 0 0)
(0 0 0)
(0 0 0)
(0 0 0)
(0 0 0)
(0 0 0)
(0 0 0)
(0 0 0)
(-0.000460651 0.000272015 2.83052e-05)
(0.000144266 -0.000763115 -0.000542449)
(9.34944e-05 7.72709e-05 -0.000665589)
(0.000233981 9.70038e-05 -0.000234958)
(-0.000101261 -6.8296e-06 -9.06882e-05)
(-0.000132578 -0.000217317 -0.000326634)
(0.000533879 0.000438757 -0.000320784)
(-8.91529e-05 3.93773e-05 -0.000216836)
(4.7637e-05 0.000146744 -0.000102147)
(0.000316754 4.58625e-05 -0.000399017)
(0.00029338 0.000209383 -0.000152717)
(0.000452016 7.5328e-05 -0.000408587)
(-0.000196115 0.000234707 -0.000197108)
(-0.00021023 0.000356607 -0.000334348)
(-2.90462e-05 0.000242158 -0.00024435)
(1.45739e-05 -0.00024776 -0.000561776)
(-0.00179202 0.00216511 0.0119087)
(-0.00173905 0.00138437 0.00994465)
(-9.67984e-05 0.000985211 0.00709138)
(-0.00162368 -8.24176e-05 0.00616508)
(-0.000165042 0.00226582 0.00561863)
(-0.000438282 0.00160857 0.00558013)
(0.00107208 0.000891639 0.00754295)
(-0.00112497 -0.000804653 0.00929425)
(-0.00118772 0.0013676 0.00953496)
(-0.00100043 0.00146534 0.00704626)
(-0.000799533 0.00211553 0.00949392)
(0.000260833 0.00102622 0.00305263)
(-0.00044423 0.000694847 0.00809343)
(-0.00083159 0.00217022 0.0103678)
(0.000697973 0.00362082 0.0102866)
(9.52604e-05 0.00264706 0.00491888)
(-0.00102873 0.00119202 0.0114641)
(-0.000864776 0.00204251 0.0113132)
(-0.00103799 6.08953e-05 0.0113819)
(-0.00371424 -0.000464359 0.0116879)
(-0.000679241 0.000153394 0.0122008)
(-0.000554843 0.000880891 0.0110861)
(-0.000603608 0.00119377 0.010723)
(-0.0022245 -0.000170588 0.0130205)
(-0.00269237 0.00119518 0.0145523)
(-0.0020253 0.00264139 0.0113349)
(-0.000992936 0.00275995 0.0135062)
(-0.00037059 0.00289254 0.012998)
(-0.0016389 0.00100854 0.0136836)
(-0.000730369 0.00255295 0.0134552)
(0.0015768 0.002251 0.0126675)
(0.00042577 0.00418044 0.0109535)
(-0.000517562 0.00126922 0.0106017)
(0.00035037 0.00126377 0.0103395)
(-0.000311715 0.00202601 0.01012)
(0.00113962 0.000115825 0.0120449)
(0.000666762 0.00147601 0.0130661)
(0.000987326 0.00249481 0.0107719)
(0.000554447 0.00267902 0.0114759)
(-0.000427682 0.00143445 0.0119801)
(0.00121136 0.00161301 0.0140852)
(-0.00109131 0.00332479 0.0124755)
(-0.000235913 0.00245518 0.0135146)
(0.000468751 0.00172443 0.0132723)
(0.000706147 0.00286781 0.0126687)
(0.00115533 0.00332183 0.0127292)
(0.000909259 0.00236535 0.0132338)
(7.80172e-05 0.00262738 0.0146527)
(-0.000834431 0.00115388 0.00989446)
(-3.22179e-05 0.000877265 0.00804151)
(-0.00108755 -3.27162e-05 0.00889344)
(-0.00176553 0.000107192 0.0101503)
(0.000343497 0.00243188 0.0106692)
(0.000141576 0.00292981 0.0103848)
(0.000341996 0.00155544 0.0103568)
(-0.000842382 0.00136646 0.0109922)
(0.000613527 0.00215821 0.0115103)
(-0.000121407 0.00274556 0.0114979)
(0.000208671 0.00194233 0.0117529)
(-0.00077621 0.00121214 0.0122462)
(0.000360679 0.00256071 0.0122733)
(0.000293333 0.00200704 0.0126403)
(0.000339633 0.00191978 0.0137524)
(0.000542659 0.00149571 0.0134423)
(-0.000192148 0.00094121 0.0081098)
(-0.000559861 0.00085043 0.00690619)
(7.16442e-05 0.000349231 0.00847125)
(-0.00157643 0.00170613 0.0100252)
(-1.32318e-05 0.00148394 0.0105873)
(7.2202e-05 0.00147302 0.00978224)
(0.00104159 0.00110723 0.0095708)
(0.000153892 0.000949641 0.0103145)
(-0.000158599 0.00137937 0.0120476)
(0.000142411 0.000881582 0.0111182)
(0.000552217 0.00143311 0.0111804)
(0.00011808 0.00123104 0.0124458)
(0.000316586 0.000505468 0.0118282)
(0.000545722 0.000523577 0.0120337)
(0.000739106 0.00107634 0.0130726)
(0.000641 0.000461193 0.013065)
(-0.000524444 0.000448151 0.0077197)
(-0.000727277 0.000331866 0.00675613)
(0.000916274 -0.000397214 0.00618311)
(0.000146692 -0.000737516 0.0075237)
(0.000968933 0.00199832 0.0109497)
(0.00151096 -0.00084897 0.00790908)
(0.00158588 -0.000930352 0.00802635)
(0.000318938 -0.000354467 0.00994146)
(0.00150251 -0.000333813 0.0127041)
(0.0017099 -0.00112715 0.0109674)
(0.00116297 0.0004714 0.0105153)
(0.000493194 0.000145959 0.0123232)
(0.00114605 -0.000749519 0.0121896)
(0.000848974 -0.00057405 0.0108189)
(0.000134977 -8.68143e-05 0.0115571)
(0.000442777 -0.000378221 0.0125202)
(0 0 0)
(0 0 0)
(0 0 0)
(0 0 0)
(0 0 0)
(0 0 0)
(0.000555904 -0.000524938 0.00599934)
(0 0 0)
(0 0 0)
(0 0 0)
(0 0 0)
(0 0 0)
(0 0 0)
(0 0 0)
(0 0 0)
(0 0 0)
(0 0 0)
(0 0 0)
(0 0 0)
(0 0 0)
(0 0 0)
(0 0 0)
(0 0 0)
(0 0 0)
(0 0 0)
(0 0 0)
(0 0 0)
(0 0 0)
(0 0 0)
(0 0 0)
(0 0 0)
(0 0 0)
(0 0 0)
(0 0 0)
(0 0 0)
(0 0 0)
(0 0 0)
(0 0 0)
(0 0 0)
(0 0 0)
(0 0 0)
(0 0 0)
(0 0 0)
(0 0 0)
(0 0 0)
(0 0 0)
(0 0 0)
(0 0 0)
(0 0 0)
(0 0 0)
(0 0 0)
(0 0 0)
(0 0 0)
(0 0 0)
(0 0 0)
(0 0 0)
(0 0 0)
(0 0 0)
(0 0 0)
(0 0 0)
(0 0 0)
(0 0 0)
(0 0 0)
(0 0 0)
(0 0 0)
(0 0 0)
(0 0 0)
(0 0 0)
(0 0 0)
(0 0 0)
(0 0 0)
(0 0 0)
(0 0 0)
(0 0 0)
(0 0 0)
(0 0 0)
(0 0 0)
(0 0 0)
(0 0 0)
(0 0 0)
(0 0 0)
(0 0 0)
(0 0 0)
(0 0 0)
(0 0 0)
(0 0 0)
(0 0 0)
(0 0 0)
(0 0 0)
(0 0 0)
(0 0 0)
(0 0 0)
(0 0 0)
(0 0 0)
(0 0 0)
(0 0 0)
(0 0 0)
(0 0 0)
(0 0 0)
(0 0 0)
(0 0 0)
(0 0 0)
(0 0 0)
(0 0 0)
(0 0 0)
(0 0 0)
(0 0 0)
(0 0 0)
(0 0 0)
(0 0 0)
(0 0 0)
(0 0 0)
(0 0 0)
(0 0 0)
(0 0 0)
(0 0 0)
(0 0 0)
(0 0 0)
(0 0 0)
(0 0 0)
(0 0 0)
(0 0 0)
(0 0 0)
(0 0 0)
(0 0 0)
(0 0 0)
(0 0 0)
(0 0 0)
(0 0 0)
(0 0 0)
(0 0 0)
(0 0 0)
(0 0 0)
(0 0 0)
(0 0 0)
(0 0 0)
(0 0 0)
(0 0 0)
(0 0 0)
(0 0 0)
(0 0 0)
(0 0 0)
(0 0 0)
(0 0 0)
(0 0 0)
(0 0 0)
(0 0 0)
(0 0 0)
(0 0 0)
(0 0 0)
(0 0 0)
(0 0 0)
(0 0 0)
(0 0 0)
(0 0 0)
(0 0 0)
(0 0 0)
(0 0 0)
(0 0 0)
(0 0 0)
(0 0 0)
(0 0 0)
(0 0 0)
(0 0 0)
(0 0 0)
(0 0 0)
(0 0 0)
(0 0 0)
(0 0 0)
(0 0 0)
(0 0 0)
(0 0 0)
(0 0 0)
(0 0 0)
(0 0 0)
(0 0 0)
(0 0 0)
(0 0 0)
(0 0 0)
(0 0 0)
(0 0 0)
(0 0 0)
(0 0 0)
(0 0 0)
(0 0 0)
(0 0 0)
(0 0 0)
(0 0 0)
(0 0 0)
(0 0 0)
(0 0 0)
(0 0 0)
(0 0 0)
(0 0 0)
(0 0 0)
(0 0 0)
(0 0 0)
(0 0 0)
(0 0 0)
(0 0 0)
(0 0 0)
(0 0 0)
(0 0 0)
(0 0 0)
(0 0 0)
(0 0 0)
(0 0 0)
(0 0 0)
(0 0 0)
(0 0 0)
(0 0 0)
(0 0 0)
(0 0 0)
(0 0 0)
(0 0 0)
(0 0 0)
(0 0 0)
(0 0 0)
(0 0 0)
(0 0 0)
(0 0 0)
(0 0 0)
(0 0 0)
(0 0 0)
(0 0 0)
(0 0 0)
(0 0 0)
(0 0 0)
(0 0 0)
(0 0 0)
(0 0 0)
(0 0 0)
(0 0 0)
(0 0 0)
(0 0 0)
(0 0 0)
(0 0 0)
(0 0 0)
(0 0 0)
(0 0 0)
(0 0 0)
(0 0 0)
(0 0 0)
(0 0 0)
(0 0 0)
(0 0 0)
(0 0 0)
(0 0 0)
(0 0 0)
(0 0 0)
(0 0 0)
(0 0 0)
(0 0 0)
(0 0 0)
(0 0 0)
(0 0 0)
(0 0 0)
(0 0 0)
(0 0 0)
(0 0 0)
(0 0 0)
(0 0 0)
(0 0 0)
(0 0 0)
(0 0 0)
(0 0 0)
(0 0 0)
(0 0 0)
(0 0 0)
(0 0 0)
(0 0 0)
(0 0 0)
)
;

boundaryField
{
    inlet
    {
        type            zeroGradient;
    }
    outlet
    {
        type            zeroGradient;
    }
    wall
    {
        type            zeroGradient;
    }
    procBoundary0to1
    {
        type            processor;
        value           nonuniform List<vector> 
192
(
(-0.000188241 1.17469e-05 9.74487e-05)
(0.000305319 0.000259205 -6.8577e-05)
(-0.000559784 0.000692394 0.000822372)
(-0.000671024 0.000356887 -0.000400101)
(-0.0026126 0.00314374 0.00415317)
(-0.00183974 0.00368382 0.00739649)
(-0.00236868 0.00197472 0.00916235)
(-0.000840106 0.00187947 0.00705927)
(-0.000188227 0.00255394 0.0129249)
(-0.00115236 0.00278221 0.0135525)
(-0.00160726 0.00270016 0.0145176)
(-0.000688508 0.00111581 0.0143121)
(2.67811e-05 0.00149585 0.0141516)
(-0.000494912 0.00202486 0.0138692)
(-0.00131829 0.00176911 0.0153993)
(-0.000728409 0.000352191 0.0156354)
(0.00112863 0.000810252 0.014829)
(0.000821075 0.00119325 0.0144864)
(0.000606071 0.000338877 0.0151144)
(0.000389298 0.000530711 0.01529)
(0.000106315 0.000632915 0.0131776)
(-0.000174766 5.88706e-05 0.0133513)
(0.000805084 0.000242248 0.0139694)
(0.000343842 0.00053242 0.013728)
(0.00113313 0.000250388 0.0114416)
(-0.000195295 0.00115648 0.0123014)
(8.81472e-05 0.00100736 0.0125166)
(0.000660559 0.000924909 0.0122888)
(0 0 0)
(0 0 0)
(0 0 0)
(0.0013299 0.000985628 0.0115959)
(0 0 0)
(0 0 0)
(0 0 0)
(0 0 0)
(0 0 0)
(0 0 0)
(0 0 0)
(0 0 0)
(0 0 0)
(0 0 0)
(0 0 0)
(0 0 0)
(0 0 0)
(0 0 0)
(0 0 0)
(0 0 0)
(0 0 0)
(0 0 0)
(0 0 0)
(0 0 0)
(0 0 0)
(0 0 0)
(0 0 0)
(0 0 0)
(0 0 0)
(0 0 0)
(0 0 0)
(0 0 0)
(0 0 0)
(0 0 0)
(0 0 0)
(0 0 0)
(0 0 0)
(0 0 0)
(0 0 0)
(0 0 0)
(0 0 0)
(0 0 0)
(0 0 0)
(0 0 0)
(0 0 0)
(0 0 0)
(0 0 0)
(0 0 0)
(0 0 0)
(0 0 0)
(0 0 0)
(0 0 0)
(0 0 0)
(0 0 0)
(0 0 0)
(0 0 0)
(0 0 0)
(0 0 0)
(0 0 0)
(0 0 0)
(0 0 0)
(0 0 0)
(0 0 0)
(0 0 0)
(0 0 0)
(0 0 0)
(0 0 0)
(0 0 0)
(0.000390386 0.000187172 -0.000293173)
(-0.000270221 -3.66537e-05 -0.000288359)
(-0.000440325 -0.000324382 -0.000241323)
(-0.000139504 -0.00033566 -0.000121347)
(-0.00272019 0.00149701 0.00523766)
(-0.00238121 0.0010178 0.00606873)
(-0.00116476 0.00129477 0.00687666)
(-0.000871057 0.00097839 0.00775265)
(-0.00185826 0.00229552 0.00917566)
(-0.00151701 0.00191405 0.0110161)
(-0.000152792 0.00281798 0.00950001)
(-0.0010204 0.00384019 0.0125495)
(0.000169063 -0.000158679 0.0087756)
(-0.000515681 0.000918018 0.0111086)
(-0.00010847 0.00256863 0.0111043)
(-0.00104879 0.00171503 0.0136425)
(-0.00110965 0.000667205 0.00807355)
(-0.00156325 0.0015949 0.00996231)
(-0.000971564 0.000812364 0.0114041)
(-0.000299071 0.000878332 0.0128881)
(-0.00104295 0.00060544 0.00668785)
(-0.000980152 0.000643677 0.00941918)
(-0.000195381 0.000155733 0.0111549)
(-0.000500527 -0.000522475 0.0122707)
(0.000808301 -0.000522422 0.00629809)
(0.00101802 -0.000928034 0.00908574)
(0.000254573 -0.000437938 0.0115171)
(0.000233426 -8.98766e-05 0.0115827)
(0 0 0)
(0 0 0)
(0 0 0)
(0 0 0)
(0 0 0)
(0 0 0)
(0 0 0)
(0 0 0)
(0 0 0)
(0 0 0)
(0 0 0)
(0 0 0)
(0 0 0)
(0 0 0)
(0 0 0)
(0 0 0)
(0 0 0)
(0 0 0)
(0 0 0)
(0 0 0)
(0 0 0)
(0 0 0)
(0 0 0)
(0 0 0)
(0 0 0)
(0 0 0)
(0 0 0)
(0 0 0)
(0 0 0)
(0 0 0)
(0 0 0)
(0 0 0)
(0 0 0)
(0 0 0)
(0 0 0)
(0 0 0)
(0 0 0)
(0 0 0)
(0 0 0)
(0 0 0)
(0 0 0)
(0 0 0)
(0 0 0)
(0 0 0)
(0 0 0)
(0 0 0)
(0 0 0)
(0 0 0)
(0 0 0)
(0 0 0)
(0 0 0)
(0 0 0)
(0 0 0)
(0 0 0)
(0 0 0)
(0 0 0)
(0 0 0)
(0 0 0)
(0 0 0)
(0 0 0)
(0 0 0)
(0 0 0)
(0 0 0)
(0 0 0)
(0 0 0)
(0 0 0)
(0 0 0)
(0 0 0)
)
;
    }
    procBoundary0to2
    {
        type            processor;
        value           nonuniform List<vector> 
192
(
(0.000157632 -4.48898e-05 0.000420172)
(-4.41699e-05 -0.00020944 5.37997e-05)
(-9.34734e-06 0.000240664 -0.000176306)
(0.000100365 0.000135927 -0.000316487)
(-0.000787922 -0.000965077 0.00821038)
(-0.000100654 -0.000992636 0.00526098)
(0.000420752 -0.000394169 0.00714972)
(-0.00046669 -0.00116454 0.00435642)
(-0.00109511 -0.0012395 0.0143551)
(8.31702e-05 4.82669e-05 0.0101949)
(-0.000202385 0.000271766 0.0124329)
(-0.00101381 0.000200224 0.0134386)
(-0.000232637 -0.000403493 0.0159037)
(-0.000588617 -0.000200473 0.0162569)
(-0.00191823 -0.000672663 0.0156041)
(-0.00196068 -4.16161e-05 0.0160663)
(0.000187003 0.000186162 0.01519)
(-0.000611778 -0.000233763 0.0155973)
(-0.000990338 -7.53137e-06 0.0147743)
(-0.000581298 -0.00055454 0.0147195)
(0.000711847 0.00116281 0.0145239)
(9.14503e-05 0.00102975 0.0140639)
(-0.0004344 0.000816606 0.0139599)
(0.000116529 -0.000211147 0.0133734)
(0.000802013 0.00238504 0.013918)
(0.00105219 0.0012076 0.0129187)
(9.86511e-05 0.00114961 0.0129243)
(0.000984513 0.00170695 0.0129906)
(0 0 0)
(0 0 0)
(-2.09688e-18 -1.28771e-19 -1.08128e-17)
(0.00199956 0.000732028 0.0130898)
(0 0 0)
(0 0 0)
(0 0 0)
(0 0 0)
(0 0 0)
(0 0 0)
(0 0 0)
(0 0 0)
(0 0 0)
(0 0 0)
(0 0 0)
(0 0 0)
(0 0 0)
(0 0 0)
(0 0 0)
(0 0 0)
(0 0 0)
(0 0 0)
(0 0 0)
(0 0 0)
(0 0 0)
(0 0 0)
(0 0 0)
(0 0 0)
(0 0 0)
(0 0 0)
(0 0 0)
(0 0 0)
(0 0 0)
(0 0 0)
(0 0 0)
(0 0 0)
(0 0 0)
(0 0 0)
(0 0 0)
(0 0 0)
(0 0 0)
(0 0 0)
(0 0 0)
(0 0 0)
(0 0 0)
(0 0 0)
(0 0 0)
(0 0 0)
(0 0 0)
(0 0 0)
(0 0 0)
(0 0 0)
(0 0 0)
(0 0 0)
(0 0 0)
(0 0 0)
(0 0 0)
(0 0 0)
(0 0 0)
(0 0 0)
(0 0 0)
(0 0 0)
(0 0 0)
(0 0 0)
(0 0 0)
(0 0 0)
(0 0 0)
(0 0 0)
(0.000463432 0.00130066 -0.000970722)
(0.000200341 0.00031983 0.000139257)
(1.4921e-05 0.000364005 0.000276064)
(0.00026159 0.000493466 0.000244008)
(0.000486203 0.000859909 0.00483715)
(0.00111219 0.000245523 0.00594232)
(0.000770558 -0.000316249 0.00472061)
(-0.000571568 -0.000491755 0.00523277)
(0.000471114 0.000595455 0.0106827)
(-0.000208161 -0.000117882 0.0128951)
(-0.00136491 0.000444251 0.013038)
(-0.00137296 -0.000976566 0.0144331)
(0.00152392 -0.000958406 0.0118238)
(3.64927e-05 -0.000708862 0.0144675)
(0.000156795 -0.000310688 0.0145078)
(-0.000698726 -0.00165716 0.0163335)
(-0.000942442 -0.00048568 0.0104784)
(0.000261946 0.000463635 0.013388)
(-0.000220795 1.21681e-05 0.0142301)
(0.000252216 0.000639424 0.015159)
(-0.000735404 -0.000655254 0.00888541)
(-0.00136256 0.000305965 0.0124177)
(-0.000525035 0.00157182 0.0131455)
(0.000248633 0.00119995 0.0138269)
(-0.00116676 0.000868041 0.00688324)
(0.000285556 0.000180364 0.0104911)
(-0.000584188 0.00199167 0.0116557)
(7.53588e-06 0.00220512 0.0130876)
(0 0 0)
(0 0 0)
(0 0 0)
(0 0 0)
(0 0 0)
(0 0 0)
(0 0 0)
(0 0 0)
(0 0 0)
(0 0 0)
(0 0 0)
(0 0 0)
(0 0 0)
(0 0 0)
(0 0 0)
(0 0 0)
(0 0 0)
(0 0 0)
(0 0 0)
(0 0 0)
(0 0 0)
(0 0 0)
(0 0 0)
(0 0 0)
(0 0 0)
(0 0 0)
(0 0 0)
(0 0 0)
(0 0 0)
(0 0 0)
(0 0 0)
(0 0 0)
(0 0 0)
(0 0 0)
(0 0 0)
(0 0 0)
(0 0 0)
(0 0 0)
(0 0 0)
(0 0 0)
(0 0 0)
(0 0 0)
(0 0 0)
(0 0 0)
(0 0 0)
(0 0 0)
(0 0 0)
(0 0 0)
(0 0 0)
(0 0 0)
(0 0 0)
(0 0 0)
(0 0 0)
(0 0 0)
(0 0 0)
(0 0 0)
(0 0 0)
(0 0 0)
(0 0 0)
(0 0 0)
(0 0 0)
(0 0 0)
(0 0 0)
(0 0 0)
(0 0 0)
(0 0 0)
(0 0 0)
(0 0 0)
)
;
    }
}


// ************************************************************************* //
