/*--------------------------------*- C++ -*----------------------------------*\
| =========                 |                                                 |
| \\      /  F ield         | OpenFOAM: The Open Source CFD Toolbox           |
|  \\    /   O peration     | Version:  2506                                  |
|   \\  /    A nd           | Website:  www.openfoam.com                      |
|    \\/     M anipulation  |                                                 |
\*---------------------------------------------------------------------------*/
FoamFile
{
    version     2.0;
    format      ascii;
    arch        "LSB;label=32;scalar=64";
    class       volScalarField;
    location    "0.1";
    object      voidfraction;
}
// * * * * * * * * * * * * * * * * * * * * * * * * * * * * * * * * * * * * * //

dimensions      [0 0 0 0 0 0 0];

internalField   nonuniform List<scalar> 
1152
(
0.420663
0.436463
0.47333
0.349563
0.428563
0.45753
0.383796
0.407496
0.444363
0.45753
0.48913
0.436463
0.40223
0.53653
0.475963
0.420663
0.494397
0.552331
0.539164
0.325862
0.468063
0.547064
0.43383
0.420663
0.499664
0.568131
0.47333
0.404863
0.486497
0.468063
0.475963
0.48913
0.349563
0.381163
0.360096
0.317962
0.378529
0.373263
0.444363
0.396963
0.39433
0.404863
0.365363
0.46543
0.41803
0.454897
0.349563
0.360096
0.423296
0.41803
0.375896
0.423296
0.423296
0.38643
0.43383
0.428563
0.352196
0.391696
0.378529
0.349563
0.41803
0.49703
0.420663
0.48913
0.352196
0.352196
0.357463
0.399596
0.41013
0.423296
0.431196
0.454897
0.439097
0.370629
0.389063
0.49703
0.415396
0.39433
0.370629
0.412763
0.360096
0.44173
0.431196
0.415396
0.42593
0.40223
0.375896
0.44173
0.404863
0.48123
0.373263
0.428563
0.531264
0.375896
0.367996
0.428563
0.668198
0.639231
0.612898
0.53653
0.694531
0.623431
0.51283
0.499664
0.681365
0.599731
0.52863
0.633964
0.657665
0.539164
0.478597
0.507564
1
1
1
1
1
1
1
0.997367
1
1
1
1
1
1
1
0.997367
1
1
1
1
1
1
1
1
1
1
1
1
1
1
1
1
1
1
1
1
1
1
1
1
1
1
1
1
1
1
1
1
1
1
1
1
1
1
1
1
1
1
1
1
1
1
1
1
1
1
1
1
1
1
1
1
1
1
1
1
1
1
1
1
1
1
1
1
1
1
1
1
1
1
1
1
1
1
1
1
1
1
1
1
1
1
1
1
1
1
1
1
1
1
1
1
1
1
1
1
1
1
1
1
1
1
1
1
1
1
1
1
1
1
1
1
1
1
1
1
1
1
1
1
1
1
1
1
1
1
1
1
1
1
1
1
1
1
1
1
1
1
1
1
1
1
1
1
1
1
1
1
1
1
1
1
1
1
1
1
1
1
1
1
1
1
1
1
1
1
1
1
1
1
1
1
1
1
1
1
1
1
1
1
1
1
1
1
1
1
1
1
1
1
1
1
1
1
1
1
1
1
1
1
1
1
1
1
1
1
1
1
1
1
1
1
1
1
1
1
1
1
1
1
1
1
1
1
1
1
1
1
1
1
1
1
1
1
1
1
1
1
1
1
1
1
1
1
1
1
1
1
1
1
1
1
0.460439
0.433788
0.463241
0.439229
0.391225
0.464045
0.454332
0.499307
0.445437
0.477765
0.427821
0.420724
0.425516
0.42041
0.462742
0.456228
0.538675
0.523515
0.470494
0.461134
0.43036
0.488407
0.446022
0.48005
0.477834
0.450279
0.453937
0.469448
0.482786
0.531185
0.500328
0.486298
0.468532
0.356436
0.376198
0.391038
0.439057
0.471354
0.407244
0.438325
0.403512
0.439708
0.413576
0.399069
0.377195
0.390738
0.325664
0.428663
0.414576
0.412129
0.401586
0.290274
0.356437
0.464045
0.385085
0.470421
0.416852
0.420679
0.420699
0.409896
0.418358
0.37887
0.361039
0.408616
0.487417
0.371906
0.387079
0.263988
0.399921
0.417758
0.429403
0.40302
0.451155
0.403764
0.411202
0.423431
0.387933
0.34722
0.427367
0.431169
0.428065
0.353342
0.455987
0.447991
0.395573
0.398269
0.404474
0.412649
0.407323
0.443936
0.392208
0.366586
0.418358
0.426344
0.427367
0.421146
0.622307
0.631807
0.70986
0.728377
0.615167
0.700353
0.731321
0.752863
0.723672
0.794912
0.698478
0.683293
0.640277
0.679544
0.756797
0.67925
1
1
1
1
1
1
1
1
1
1
1
1
1
1
1
1
1
1
1
1
1
1
1
1
1
1
1
1
1
1
1
1
1
1
1
1
1
1
1
1
1
1
1
1
1
1
1
1
1
1
1
1
1
1
1
1
1
1
1
1
1
1
1
1
1
1
1
1
1
1
1
1
1
1
1
1
1
1
1
1
1
1
1
1
1
1
1
1
1
1
1
1
1
1
1
1
1
1
1
1
1
1
1
1
1
1
1
1
1
1
1
1
1
1
1
1
1
1
1
1
1
1
1
1
1
1
1
1
1
1
1
1
1
1
1
1
1
1
1
1
1
1
1
1
1
1
1
1
1
1
1
1
1
1
1
1
1
1
1
1
1
1
1
1
1
1
1
1
1
1
1
1
1
1
1
1
1
1
1
1
1
1
1
1
1
1
1
1
1
1
1
1
1
1
1
1
1
1
1
1
1
1
1
1
1
1
1
1
1
1
1
1
1
1
1
1
1
1
1
1
1
1
1
1
1
1
1
1
1
1
1
1
1
1
1
1
1
1
1
1
1
1
1
1
1
1
1
1
1
1
1
1
1
1
1
1
1
1
1
1
1
1
1
1
1
1
1
1
1
1
1
1
0.498208
0.423838
0.470212
0.445203
0.424505
0.444556
0.424908
0.42041
0.426973
0.418323
0.437318
0.473797
0.439229
0.40302
0.423431
0.38857
0.544071
0.51298
0.454966
0.441623
0.430693
0.456737
0.507366
0.554922
0.495881
0.49588
0.529911
0.369883
0.465515
0.48005
0.510052
0.38857
0.455043
0.436883
0.384455
0.438044
0.35953
0.444556
0.40165
0.410519
0.426973
0.357386
0.449189
0.411891
0.369133
0.419068
0.404483
0.37604
0.401087
0.371657
0.428286
0.45773
0.402847
0.44212
0.427022
0.416454
0.44148
0.379545
0.361344
0.418524
0.44361
0.393391
0.401776
0.421146
0.452346
0.397747
0.430192
0.446992
0.421411
0.483535
0.399536
0.400629
0.347184
0.379545
0.399331
0.367672
0.426086
0.412649
0.399069
0.426158
0.455043
0.44558
0.41304
0.450572
0.402847
0.434812
0.439708
0.406563
0.394332
0.410014
0.337602
0.460532
0.338465
0.441535
0.428845
0.441193
0.514395
0.567335
0.611234
0.579428
0.594679
0.561492
0.536966
0.564813
0.637325
0.573437
0.650995
0.688258
0.640756
0.634109
0.64269
0.624121
1
1
1
1
1
1
0.997886
1
1
1
1
1
1
1
1
1
1
1
1
1
1
1
1
1
1
1
1
1
1
1
1
1
1
1
1
1
1
1
1
1
1
1
1
1
1
1
1
1
1
1
1
1
1
1
1
1
1
1
1
1
1
1
1
1
1
1
1
1
1
1
1
1
1
1
1
1
1
1
1
1
1
1
1
1
1
1
1
1
1
1
1
1
1
1
1
1
1
1
1
1
1
1
1
1
1
1
1
1
1
1
1
1
1
1
1
1
1
1
1
1
1
1
1
1
1
1
1
1
1
1
1
1
1
1
1
1
1
1
1
1
1
1
1
1
1
1
1
1
1
1
1
1
1
1
1
1
1
1
1
1
1
1
1
1
1
1
1
1
1
1
1
1
1
1
1
1
1
1
1
1
1
1
1
1
1
1
1
1
1
1
1
1
1
1
1
1
1
1
1
1
1
1
1
1
1
1
1
1
1
1
1
1
1
1
1
1
1
1
1
1
1
1
1
1
1
1
1
1
1
1
1
1
1
1
1
1
1
1
1
1
1
1
1
1
1
1
1
1
1
1
1
1
1
1
1
1
1
1
1
1
1
1
1
1
1
1
1
1
1
1
1
1
)
;

boundaryField
{
    inlet
    {
        type            fixedValue;
        value           uniform 1;
    }
    outlet
    {
        type            fixedValue;
        value           uniform 1;
    }
    wall
    {
        type            zeroGradient;
    }
    procBoundary0to1
    {
        type            processor;
        value           nonuniform List<scalar> 
192
(
0.523364
0.44173
0.454897
0.415396
0.531264
0.47333
0.462797
0.336396
0.48913
0.389063
0.346929
0.407496
0.396963
0.349563
0.486497
0.346929
0.43383
0.333763
0.367996
0.460163
0.367996
0.462797
0.396963
0.354829
0.649764
0.623431
0.552331
0.420663
1
1
1
0.986833
1
1
1
1
1
1
1
1
1
1
1
1
1
1
1
1
1
1
1
1
1
1
1
1
1
1
1
1
1
1
1
1
1
1
1
1
1
1
1
1
1
1
1
1
1
1
1
1
1
1
1
1
1
1
1
1
1
1
1
1
1
1
1
1
0.45952
0.450082
0.467164
0.481286
0.552583
0.461951
0.522438
0.526392
0.446992
0.392716
0.334508
0.413628
0.386144
0.353154
0.460531
0.34597
0.366457
0.414476
0.372094
0.37604
0.387933
0.465907
0.369883
0.383558
0.681439
0.679544
0.752375
0.761943
1
1
1
1
1
1
1
1
1
1
1
1
1
1
1
1
1
1
1
1
1
1
1
1
1
1
1
1
1
1
1
1
1
1
1
1
1
1
1
1
1
1
1
1
1
1
1
1
1
1
1
1
1
1
1
1
1
1
1
1
1
1
1
1
1
1
1
1
)
;
    }
    procBoundary0to2
    {
        type            processor;
        value           nonuniform List<scalar> 
192
(
0.42593
0.375896
0.41013
0.354829
0.499664
0.45753
0.48913
0.339029
0.423296
0.367996
0.407496
0.44963
0.431196
0.38643
0.38643
0.468063
0.370629
0.346929
0.381163
0.415396
0.373263
0.389063
0.357463
0.341663
0.573397
0.552331
0.578664
0.533897
1
1
1
0.997367
1
1
1
1
1
1
1
1
1
1
1
1
1
1
1
1
1
1
1
1
1
1
1
1
1
1
1
1
1
1
1
1
1
1
1
1
1
1
1
1
1
1
1
1
1
1
1
1
1
1
1
1
1
1
1
1
1
1
1
1
1
1
1
1
0.455941
0.456016
0.378727
0.456228
0.412989
0.414476
0.389782
0.433675
0.421937
0.436235
0.442844
0.466251
0.430885
0.461951
0.403047
0.431169
0.466679
0.418432
0.352196
0.358499
0.421937
0.497557
0.394203
0.386064
0.713653
0.812078
0.732477
0.784496
1
1
1
1
1
1
1
1
1
1
1
1
1
1
1
1
1
1
1
1
1
1
1
1
1
1
1
1
1
1
1
1
1
1
1
1
1
1
1
1
1
1
1
1
1
1
1
1
1
1
1
1
1
1
1
1
1
1
1
1
1
1
1
1
1
1
1
1
)
;
    }
}


// ************************************************************************* //
