FoamFile
{version 2.0; format ascii;class vectorField; location 0;object  v;}
2494
(
( -5.50551e-06 2.78589e-05 -2.26159e-05 )  
( -3.72499e-05 -3.57938e-05 5.86464e-05 )  
( 0.000222269 1.458e-05 2.58367e-05 )  
( -0.000132823 -3.57124e-05 -3.19433e-05 )  
( -1.52329e-06 1.41388e-05 1.74964e-05 )  
( -1.41927e-05 2.07267e-05 1.24017e-05 )  
( -4.55622e-07 -2.00388e-05 6.00535e-05 )  
( -6.19759e-05 -0.000117542 9.89886e-05 )  
( -7.47183e-05 -1.74493e-05 0.000205405 )  
( -9.61416e-06 -1.8603e-05 0.000114622 )  
( 4.88988e-05 -2.66207e-05 3.59404e-05 )  
( -3.27804e-05 -5.16365e-05 0.000103473 )  
( 1.29574e-05 -2.12161e-05 5.91416e-05 )  
( -4.30856e-05 1.63263e-05 0.000238551 )  
( -8.6052e-06 -0.000246585 0.000246629 )  
( -6.51668e-05 -3.65013e-05 0.000201225 )  
( -0.000142328 -9.5892e-06 0.000169479 )  
( 0.000116449 3.19504e-06 0.000291812 )  
( -7.50866e-05 3.39759e-05 -7.02366e-06 )  
( -6.99063e-06 8.4369e-06 0.000143482 )  
( -0.000248878 -0.000145111 -1.00931e-05 )  
( -5.92187e-05 -9.70481e-05 0.000233823 )  
( -5.89966e-05 -1.81114e-05 8.93561e-06 )  
( -2.3991e-05 -2.58987e-05 1.23541e-05 )  
( -6.64943e-05 -4.92277e-05 -5.30515e-05 )  
( -3.38846e-05 5.63884e-05 0.000178237 )  
( 1.53417e-05 -2.49207e-05 7.58757e-06 )  
( 9.37683e-05 -1.59319e-05 0.000291988 )  
( -8.02178e-06 -2.66315e-05 2.22751e-05 )  
( -5.70304e-05 -5.97296e-05 8.59034e-05 )  
( 0.000134808 -7.12367e-05 -1.8441e-07 )  
( 1.46553e-05 1.3702e-05 0.000125004 )  
( 1.80241e-05 -2.80259e-05 9.61939e-05 )  
( -8.72718e-05 -2.41664e-05 0.000156507 )  
( -1.42488e-05 1.09738e-05 4.67703e-05 )  
( -0.000136297 -7.56499e-05 0.000197836 )  
( 4.90824e-05 -2.05842e-05 7.96754e-05 )  
( -0.000199074 4.90508e-05 0.000128268 )  
( -0.000156895 2.64278e-06 0.0002568 )  
( -1.69506e-05 -3.10196e-05 -1.39625e-05 )  
( 1.21322e-05 -0.000192069 0.000158611 )  
( -4.08044e-05 2.26277e-05 -1.44905e-05 )  
( -0.000111013 -3.63284e-05 1.38904e-05 )  
( 4.26313e-05 -2.94165e-05 0.000145738 )  
( -0.000122169 1.06078e-06 -2.52202e-05 )  
( -0.000338177 -0.000124116 8.17334e-05 )  
( 4.67826e-06 1.88739e-05 0.000176524 )  
( -5.90221e-05 -0.000119529 4.14699e-05 )  
( 0.000266789 -8.5732e-06 0.00021291 )  
( -1.74992e-06 -5.77776e-05 1.0181e-05 )  
( -3.93152e-06 7.27213e-06 1.25483e-05 )  
( -8.98842e-05 -3.00902e-05 0.000190869 )  
( -0.000208529 -0.000163624 0.000304467 )  
( -4.26137e-05 -8.89759e-06 2.08734e-05 )  
( 4.26436e-05 4.12306e-05 0.00020471 )  
( -7.8862e-06 -5.52959e-05 1.92031e-05 )  
( 4.31308e-06 1.51931e-05 8.58044e-05 )  
( -4.65603e-05 -0.000351093 0.000591146 )  
( 1.84549e-05 -5.95984e-05 4.80168e-05 )  
( -3.97607e-05 -1.99451e-05 1.69331e-05 )  
( 2.54878e-05 -4.39727e-05 0.000118395 )  
( 2.50949e-05 4.4926e-05 3.5592e-05 )  
( -9.33695e-05 -0.000139518 0.000209112 )  
( -5.2335e-06 -0.00010183 4.03574e-05 )  
( 5.43352e-07 -2.15799e-05 5.23094e-05 )  
( -8.30504e-05 -0.00018295 3.349e-05 )  
( 2.63431e-05 4.99086e-05 0.000228523 )  
( 1.88855e-05 1.85463e-05 8.83019e-05 )  
( 1.7599e-05 8.94631e-06 3.1935e-05 )  
( 1.41537e-06 -3.7359e-05 0.000107873 )  
( -0.000104718 -1.21308e-05 0.000178493 )  
( -3.87294e-05 3.79038e-05 0.000110232 )  
( -1.64403e-05 -1.31876e-05 6.81471e-05 )  
( 2.67517e-09 3.29842e-05 1.21708e-05 )  
( -0.000102885 -5.08662e-05 6.46898e-05 )  
( 1.94566e-05 -2.05789e-06 0.00010703 )  
( -4.16075e-05 -6.82472e-05 0.000127348 )  
( 9.55451e-06 8.72107e-06 3.10279e-05 )  
( 2.82448e-06 -2.88316e-05 -8.92081e-06 )  
( -1.59806e-05 -8.86905e-05 4.15845e-05 )  
( -5.6811e-05 -5.18422e-05 0.000140028 )  
( 2.65956e-05 -3.91817e-05 0.000134837 )  
( 2.02515e-05 2.42885e-05 4.34626e-05 )  
( -6.8176e-05 -3.44998e-06 0.000145677 )  
( -4.28968e-05 0.000108377 0.000144656 )  
( -0.000599089 0.000493747 0.000316946 )  
( -6.45664e-06 -3.41698e-05 7.25063e-05 )  
( -3.39068e-06 -5.89407e-05 5.12782e-05 )  
( 1.86987e-06 -4.53189e-05 -1.73649e-07 )  
( -0.000186863 1.00721e-05 -1.03811e-06 )  
( -0.000110607 -9.31697e-05 0.000271234 )  
( 3.96502e-05 -1.0974e-05 8.27436e-05 )  
( -9.4714e-05 -1.12028e-05 -5.08021e-05 )  
( 4.14431e-05 -8.99515e-05 0.000204888 )  
( -2.99281e-05 6.26161e-06 2.36312e-05 )  
( -9.34414e-05 -0.000167186 0.00010198 )  
( -5.36055e-07 1.14828e-05 4.78121e-05 )  
( -0.000139251 -6.04052e-06 -7.54318e-05 )  
( -0.000145529 6.20784e-05 6.10223e-05 )  
( 1.73685e-06 5.79426e-05 0.00040344 )  
( -6.59554e-05 3.09977e-05 0.000134516 )  
( 4.07576e-05 -2.93448e-06 0.000201119 )  
( 1.2684e-05 1.37891e-05 5.06767e-05 )  
( -7.2081e-05 -5.59673e-05 0.000158751 )  
( 2.06185e-06 -4.56195e-06 0.000117917 )  
( 4.7885e-05 2.64194e-05 8.69561e-05 )  
( -0.000103746 -9.76205e-05 0.000265293 )  
( -5.85378e-05 -0.000107831 9.99752e-06 )  
( -0.000144541 -5.62354e-07 0.000178816 )  
( 5.79381e-06 -2.68903e-06 0.00030875 )  
( -5.08639e-05 9.11119e-05 -0.000118386 )  
( 1.25881e-05 -2.61741e-05 1.85471e-05 )  
( 9.28365e-05 -5.62393e-05 4.45234e-05 )  
( -0.000167214 -0.000166317 9.43895e-05 )  
( -1.40754e-05 -2.72444e-05 0.000177407 )  
( 7.23227e-05 -0.000144523 0.000219905 )  
( -5.38414e-06 -0.000187919 0.000203109 )  
( -1.22224e-05 -7.70303e-05 7.19178e-06 )  
( -7.47613e-05 -0.000121975 0.000294376 )  
( 4.54345e-05 -5.2419e-05 6.712e-05 )  
( 2.79933e-05 -4.05537e-05 3.00243e-05 )  
( -8.9518e-05 -7.14077e-05 9.57034e-05 )  
( 2.01238e-05 4.81006e-06 3.2335e-05 )  
( 9.73495e-05 -5.14821e-05 0.000134002 )  
( 3.60779e-05 5.42512e-05 0.000326926 )  
( -1.82756e-06 1.35326e-06 0.000157817 )  
( -1.76077e-06 6.52356e-05 0.000233827 )  
( 6.40103e-05 5.41359e-05 0.000253409 )  
( -1.53873e-05 -7.6504e-06 0.000111956 )  
( -5.13345e-05 -3.695e-05 0.000110272 )  
( -0.000128065 -8.21328e-05 0.000267715 )  
( 3.39223e-05 -3.72324e-05 0.000253067 )  
( 1.50511e-05 -2.26618e-05 7.22007e-05 )  
( -2.33375e-05 -3.27875e-05 -5.82165e-06 )  
( -4.79509e-05 1.33524e-05 0.000130387 )  
( -1.46857e-05 -3.15025e-05 6.75886e-06 )  
( -3.61644e-05 -2.50841e-05 0.000191376 )  
( -8.7521e-05 -5.11864e-05 0.000176156 )  
( 1.76412e-05 3.22276e-05 7.57321e-05 )  
( -8.52755e-05 -9.86724e-06 0.000229958 )  
( -6.33043e-05 -1.68542e-05 0.000198576 )  
( 2.55712e-05 -5.70531e-06 7.53427e-05 )  
( 1.00136e-05 4.92325e-05 0.000293811 )  
( -8.08025e-05 1.73301e-05 0.000298259 )  
( -5.21494e-05 9.87559e-06 8.19547e-06 )  
( -1.93918e-05 -7.06758e-06 8.78058e-05 )  
( -0.000151227 -4.73534e-05 0.000104753 )  
( 2.36272e-05 -2.51875e-05 4.00156e-05 )  
( -7.69347e-05 -0.000168974 0.000204034 )  
( -5.59172e-05 -4.15398e-05 -1.73593e-05 )  
( 7.92408e-05 0.000149146 -2.12358e-07 )  
( -6.46331e-05 -0.00015196 5.6706e-05 )  
( 9.24488e-06 2.92358e-05 4.93679e-05 )  
( -2.57945e-05 -0.000129719 9.01979e-05 )  
( 1.81659e-05 -5.35813e-05 1.49497e-05 )  
( 1.53679e-05 -2.18696e-05 9.01835e-05 )  
( -6.7354e-05 1.51672e-05 0.000105234 )  
( 1.02843e-05 3.67953e-05 6.01893e-05 )  
( -0.000103296 -3.07035e-05 0.000193497 )  
( 6.12163e-06 5.92687e-05 -8.15316e-06 )  
( -0.00114846 -0.000407857 0.000224911 )  
( -6.02038e-05 -6.95237e-05 0.000220249 )  
( -0.000156177 -1.95905e-05 2.30562e-05 )  
( -8.31523e-05 7.18988e-05 0.000174164 )  
( 0.000109389 7.58772e-05 0.000213624 )  
( -1.04361e-05 -4.4941e-05 4.55164e-05 )  
( -6.99496e-05 1.03413e-05 0.000135291 )  
( -5.19084e-05 4.76932e-05 1.50679e-06 )  
( 1.45344e-06 2.8864e-06 6.84279e-05 )  
( -1.55593e-05 -8.60895e-05 2.19276e-05 )  
( 1.57e-05 8.71298e-06 0.000238577 )  
( 0.000135788 0.00017851 0.000223175 )  
( -7.37928e-05 5.26246e-05 9.2501e-05 )  
( 8.0841e-05 0.000129661 -3.24148e-05 )  
( 1.99267e-06 2.49162e-05 9.15648e-05 )  
( 4.26792e-05 -3.00679e-05 9.95322e-05 )  
( 4.68382e-05 6.30601e-06 4.11269e-06 )  
( -4.453e-05 3.06112e-05 0.000168779 )  
( -0.000132776 -2.53785e-05 -0.000124723 )  
( -3.74484e-05 -3.05659e-05 2.55029e-05 )  
( -6.09045e-06 2.51304e-05 0.000228955 )  
( -4.36619e-05 9.75644e-06 2.2776e-05 )  
( 0.0001952 -0.000107928 3.72529e-06 )  
( -7.53126e-05 -5.30692e-05 4.89933e-05 )  
( 4.57609e-05 -8.11256e-05 0.000169452 )  
( 1.80855e-05 1.61641e-06 0.000146364 )  
( -2.78931e-05 5.83599e-05 0.000104193 )  
( -0.000189693 8.55652e-05 0.000424918 )  
( -3.78733e-05 -4.87111e-05 0.000147973 )  
( 5.60256e-05 -1.23191e-05 0.000139493 )  
( -1.67964e-05 5.95651e-06 0.000310929 )  
( 0.000118492 -0.000284126 2.75529e-05 )  
( 1.13607e-05 -3.44551e-05 3.05622e-05 )  
( 3.66894e-05 4.70458e-07 0.000131763 )  
( 9.39556e-05 -4.23716e-06 2.21302e-05 )  
( -0.00012567 -0.000136777 5.3688e-05 )  
( -6.02858e-05 -6.15904e-05 0.000223579 )  
( -2.28222e-05 -5.12997e-05 9.54088e-05 )  
( -0.000115472 1.49674e-05 6.32863e-05 )  
( -4.86377e-05 -9.15295e-06 9.68545e-05 )  
( 6.16952e-06 1.16745e-05 1.22074e-05 )  
( -2.1079e-05 -2.65231e-05 2.11415e-05 )  
( -0.000181283 2.40353e-05 -0.00011786 )  
( -0.00011837 -8.80631e-05 9.95667e-05 )  
( -9.84021e-05 -2.00345e-05 2.25883e-05 )  
( 3.26466e-06 1.55122e-05 0.00011468 )  
( 3.78899e-06 4.38502e-05 -7.32495e-06 )  
( -0.000160945 -1.56964e-05 8.92592e-05 )  
( -5.33951e-05 -4.08867e-05 0.000254279 )  
( -1.88669e-05 -6.33424e-05 0.000172117 )  
( 1.59968e-05 -1.7725e-05 0.00013478 )  
( -2.78691e-05 -3.94292e-05 4.30155e-05 )  
( -0.000245649 -0.000128636 4.7095e-05 )  
( -6.39735e-06 2.92082e-05 6.5274e-05 )  
( 0.000365766 -0.000323172 0.00097502 )  
( 3.10196e-05 1.40091e-05 0.00021278 )  
( -3.38861e-06 -8.3429e-06 0.000103143 )  
( -5.46831e-05 -7.72512e-05 5.8603e-05 )  
( -0.000354013 4.63124e-05 0.000133896 )  
( -8.97502e-05 -3.68229e-05 0.000204719 )  
( -2.89286e-05 -5.55919e-05 -3.18134e-05 )  
( 7.15469e-05 -4.36815e-08 7.69636e-05 )  
( -6.24269e-05 3.32936e-05 1.87328e-05 )  
( -1.42863e-05 -2.89537e-05 0.000133637 )  
( 8.23977e-05 -4.97371e-05 9.96795e-05 )  
( -2.49621e-05 -1.48865e-05 2.05367e-05 )  
( 2.99067e-05 2.12082e-05 3.51726e-05 )  
( 4.18603e-06 -2.14126e-05 3.13567e-05 )  
( 0.000126703 -3.52832e-05 5.95458e-05 )  
( -2.2817e-05 7.97314e-06 8.91659e-05 )  
( 4.32101e-06 -1.05515e-05 4.22567e-05 )  
( -3.90953e-05 -3.80915e-05 3.35349e-05 )  
( -6.55602e-05 -6.9969e-05 9.54663e-05 )  
( -2.86357e-05 -2.54176e-05 -7.91725e-06 )  
( -1.91333e-05 -3.82232e-05 0.000212854 )  
( -8.91404e-05 -1.80876e-05 0.000237059 )  
( 4.55903e-05 -2.38294e-05 0.000143319 )  
( 6.71618e-06 -5.68566e-05 0.000161984 )  
( -3.98815e-06 2.98015e-05 2.11935e-06 )  
( -0.000247896 -0.000198408 0.000109554 )  
( 5.67016e-05 -5.02289e-05 -1.99883e-06 )  
( -8.10869e-05 -2.14361e-05 0.000159793 )  
( -5.41217e-06 2.60207e-05 1.37399e-05 )  
( -3.05557e-05 -3.25106e-05 8.8679e-06 )  
( -2.62983e-05 -8.6326e-06 0.000128326 )  
( -4.44211e-07 -6.30545e-07 1.2734e-05 )  
( -5.08799e-05 -4.26474e-05 -3.03216e-05 )  
( -0.000110037 -6.42412e-05 0.000125105 )  
( 2.86335e-05 -1.83576e-05 2.77039e-05 )  
( -3.44929e-05 8.4551e-05 3.68776e-05 )  
( 8.49041e-05 -2.0213e-05 0.000182531 )  
( -1.24146e-05 1.66706e-05 2.14285e-05 )  
( -7.15824e-05 -5.18775e-05 3.01715e-05 )  
( -4.54508e-05 -5.69122e-05 5.30344e-05 )  
( 2.32893e-05 3.99755e-06 0.000158409 )  
( 4.38113e-05 -3.56505e-05 4.42808e-05 )  
( -0.000129148 -0.000100929 0.000210871 )  
( -4.27899e-05 -3.23711e-05 0.000199775 )  
( -0.000141495 6.6503e-05 0.000149055 )  
( 0.000147908 4.24494e-05 0.000101002 )  
( -4.37708e-05 1.3803e-06 5.31602e-06 )  
( 1.49106e-05 -5.3526e-05 3.54878e-05 )  
( 6.66638e-05 9.48753e-06 1.1619e-05 )  
( 7.44168e-05 0.000164939 0.000339909 )  
( -2.77843e-06 -0.000184355 -2.44882e-05 )  
( -0.000171175 -3.20601e-05 4.19802e-05 )  
( -4.5803e-05 1.05455e-05 5.14393e-05 )  
( -4.26854e-05 -8.0576e-05 5.8912e-05 )  
( 3.10818e-05 -3.28709e-05 0.000113436 )  
( -0.000106616 -4.69743e-05 3.92753e-05 )  
( -3.40966e-05 -3.05184e-05 -4.15229e-06 )  
( 2.29924e-05 2.822e-05 0.000113555 )  
( 1.92642e-05 -7.13614e-05 0.000328 )  
( -4.6955e-05 -0.000132926 0.000241078 )  
( -6.28487e-05 -0.000115503 0.000202651 )  
( 2.24404e-05 -1.04472e-05 0.000148792 )  
( -2.3216e-05 -0.000134753 0.000157639 )  
( -8.29882e-06 8.63944e-06 5.13587e-05 )  
( -4.21563e-05 -8.56075e-05 5.31681e-05 )  
( -3.64857e-05 -2.66695e-05 -3.47779e-05 )  
( -6.02929e-06 -2.64385e-05 6.21569e-05 )  
( 0.000104974 8.3296e-05 0.00034364 )  
( -2.13475e-05 -3.34403e-05 0.000203376 )  
( -0.000166767 -5.55062e-05 0.000129184 )  
( 1.17279e-05 1.14863e-05 -4.7496e-06 )  
( 5.71466e-05 1.86661e-05 0.000134545 )  
( -5.36048e-06 1.3856e-05 9.76867e-05 )  
( 5.05154e-05 -5.8524e-05 4.35962e-05 )  
( -6.39159e-05 7.37304e-05 0.000104732 )  
( 3.72196e-06 -6.00726e-06 2.46812e-05 )  
( 1.76393e-05 -1.25483e-05 6.17051e-05 )  
( -4.71861e-05 -7.62747e-05 5.72931e-06 )  
( 7.11645e-06 -9.74844e-05 -1.90601e-05 )  
( -4.92159e-05 -0.000164132 0.000213354 )  
( 6.37378e-05 -1.6456e-05 0.000135469 )  
( 6.78474e-05 -7.15323e-05 6.21365e-05 )  
( 0.000148203 -8.08679e-05 5.09562e-06 )  
( 2.98891e-05 -5.66176e-05 0.000210074 )  
( -1.7127e-05 1.14818e-05 0.000164456 )  
( -0.00015249 6.97162e-05 0.000118683 )  
( 4.02441e-06 7.45107e-06 9.05534e-06 )  
( 6.26116e-05 -2.14255e-05 0.000273484 )  
( -0.000225071 -2.46221e-05 6.07035e-05 )  
( -4.00589e-05 -6.43059e-06 0.000272224 )  
( 3.82605e-05 -4.37719e-05 0.000204263 )  
( 2.61454e-07 4.6484e-06 9.57196e-06 )  
( -5.39916e-05 -0.000157656 0.000171161 )  
( -0.000100913 2.51233e-05 8.97008e-05 )  
( -1.9247e-05 3.94237e-05 -7.67031e-07 )  
( -2.86729e-05 2.33638e-05 9.47634e-05 )  
( -0.000122445 -2.84283e-05 0.000144275 )  
( 8.53492e-06 -7.7536e-05 1.5774e-05 )  
( 7.73255e-06 5.00625e-06 6.64676e-05 )  
( 0.00012095 4.00545e-05 0.00013759 )  
( 6.20568e-06 8.35572e-06 1.58262e-05 )  
( 3.77048e-05 2.98996e-05 0.000151926 )  
( -6.53742e-05 -2.68354e-05 0.000130731 )  
( 3.5669e-05 -0.000105868 0.000135062 )  
( 2.44791e-05 1.80047e-05 8.41979e-05 )  
( -4.14394e-05 -0.000101902 3.46413e-05 )  
( 2.04251e-05 -2.27108e-06 1.73551e-05 )  
( 0.000766494 -0.000655791 0.00120208 )  
( -0.000107094 -4.09851e-05 7.88651e-07 )  
( -0.00027645 -8.98082e-05 0.000272063 )  
( 1.33018e-05 5.24933e-06 6.24452e-05 )  
( 8.97788e-06 -4.1745e-06 2.76027e-05 )  
( -3.9495e-05 -6.51022e-07 0.000269242 )  
( 3.59244e-05 -0.000126486 4.10758e-05 )  
( -8.11625e-05 -7.15451e-05 5.18765e-05 )  
( -9.18551e-05 -0.00012278 0.000101543 )  
( 1.55278e-05 -3.01999e-05 3.45747e-05 )  
( 0.000111238 -2.12704e-05 -3.52472e-05 )  
( -3.55199e-05 -0.000365101 0.000182113 )  
( -0.000136114 1.88265e-05 0.000117941 )  
( -0.000107877 -2.15018e-05 -7.64925e-06 )  
( 1.20654e-05 3.97618e-06 -2.63743e-05 )  
( 4.77184e-05 -7.46851e-05 9.40448e-05 )  
( -6.64359e-05 -2.94771e-05 0.000106308 )  
( 6.19339e-05 -2.89616e-06 0.000138498 )  
( -3.06195e-05 -9.87699e-06 4.45353e-06 )  
( -1.96052e-05 1.62653e-05 6.52595e-05 )  
( -3.20648e-05 1.93329e-05 3.80369e-05 )  
( -2.83397e-06 -1.39432e-05 5.77538e-06 )  
( 2.97122e-05 -9.51677e-06 1.75856e-05 )  
( -7.54844e-05 1.41912e-05 0.000189545 )  
( 2.00295e-05 2.19719e-05 0.00017478 )  
( 0.000127167 6.6502e-05 0.000176631 )  
( -5.2229e-05 0.000148092 0.000210049 )  
( -2.3307e-05 4.31876e-05 -1.45134e-05 )  
( -1.88296e-05 -3.03208e-05 4.24036e-05 )  
( -8.48789e-05 -1.90247e-05 0.00022483 )  
( -0.000143112 -0.000225619 -4.20993e-05 )  
( 4.37843e-05 -3.04002e-05 2.98951e-05 )  
( 7.87754e-06 -1.64585e-05 1.21377e-05 )  
( 3.88926e-05 6.18794e-05 0.000212965 )  
( 2.21186e-05 1.17107e-05 8.95863e-05 )  
( -5.70491e-05 -6.07747e-05 3.32294e-05 )  
( -4.22474e-05 -4.17663e-05 6.26278e-05 )  
( -0.000134468 -2.12212e-05 7.52592e-05 )  
( 1.78838e-05 -0.000108517 0.000219081 )  
( -6.36485e-05 -3.01002e-05 0.000236151 )  
( -8.93859e-05 -0.000102848 0.000113855 )  
( -5.31861e-05 -3.23469e-05 0.000191481 )  
( 5.1201e-05 3.00751e-05 0.000235641 )  
( 5.05499e-06 1.23222e-05 1.21172e-05 )  
( -0.000182162 -3.6411e-05 8.75181e-05 )  
( 2.86393e-05 -2.89459e-05 6.66292e-05 )  
( 1.71323e-05 -1.56868e-05 0.000176685 )  
( -6.72448e-05 3.76008e-05 0.000295282 )  
( -5.1444e-05 -4.39171e-05 0.000107214 )  
( -2.98958e-05 -0.000124904 6.68503e-05 )  
( 1.34113e-05 4.42329e-05 0.000150522 )  
( -1.74195e-05 -7.5742e-05 0.000236873 )  
( -0.000164869 -7.25058e-05 0.000109849 )  
( -6.92215e-06 7.95917e-06 9.93086e-05 )  
( -0.000117722 -0.000770835 -1.34094e-07 )  
( 6.03325e-05 3.48365e-05 0.000157825 )  
( -1.55426e-05 8.88802e-06 8.37017e-05 )  
( 6.58842e-05 3.65299e-05 0.000242751 )  
( 7.11457e-05 6.57794e-05 0.000122412 )  
( 9.80262e-05 -0.000108307 -0.000118397 )  
( -2.85382e-05 -2.59022e-05 0.000228088 )  
( -1.37206e-05 -3.14819e-05 0.000253936 )  
( 5.36146e-05 -5.85914e-05 6.15945e-05 )  
( 1.11908e-05 -1.34902e-05 3.81831e-05 )  
( -1.81188e-05 1.59664e-06 8.10689e-05 )  
( -2.57927e-05 -4.3157e-05 0.000137367 )  
( -9.22793e-05 -1.97717e-05 -3.58345e-05 )  
( 2.87054e-06 -8.12999e-06 8.83354e-05 )  
( -3.69023e-05 -5.68969e-05 -1.45177e-05 )  
( -5.17192e-05 -2.42828e-05 0.000187512 )  
( 2.73948e-06 -4.28854e-05 1.58034e-05 )  
( 0.000130291 0.000338453 0.000268699 )  
( 3.91135e-05 -9.41427e-05 -1.94233e-05 )  
( -0.000181101 -3.10409e-05 0.000238358 )  
( -0.000121133 -2.62229e-05 0.000284183 )  
( 0.00026782 -1.69972e-05 -1.36123e-05 )  
( -3.56865e-05 -4.55262e-05 0.000168805 )  
( -1.41988e-05 -3.37618e-05 9.05813e-05 )  
( -3.22793e-06 -0.00010055 -1.53417e-05 )  
( 0.000398672 9.79636e-05 0.000356761 )  
( -0.000213063 -0.000143664 0.000454848 )  
( -0.000121107 0.000118977 0.000185954 )  
( 0.000110173 4.59837e-05 0.000218834 )  
( 7.20951e-05 1.12208e-06 3.62976e-05 )  
( 3.40412e-07 -0.000128024 4.14506e-05 )  
( 0.000150001 3.5338e-06 0.000213872 )  
( -3.08454e-05 -5.16118e-05 0.000192318 )  
( -1.86926e-06 -2.54684e-05 -1.74363e-05 )  
( 3.00746e-06 1.15022e-05 1.85963e-05 )  
( -4.2029e-05 2.45875e-05 -0.000102822 )  
( 4.86847e-05 -4.3271e-05 0.000197753 )  
( -7.08627e-05 -9.71595e-05 2.24177e-05 )  
( 2.15766e-05 1.33412e-05 0.000234345 )  
( -0.00012736 -2.62793e-05 0.000172284 )  
( 1.75765e-05 -1.85196e-05 9.02982e-05 )  
( -0.000107999 -6.02569e-05 5.62963e-05 )  
( -0.000136114 -2.07142e-05 6.88405e-05 )  
( 1.84935e-05 -7.55629e-05 -9.72042e-06 )  
( 2.7726e-05 4.70466e-06 9.32162e-06 )  
( -4.04397e-05 -3.55193e-05 0.000101898 )  
( -5.70858e-05 -6.83108e-05 -5.47511e-05 )  
( -0.000101087 -6.42717e-05 0.000179171 )  
( -3.75398e-05 -4.30764e-05 0.0001845 )  
( -0.000149041 -0.000110196 -4.03662e-05 )  
( -6.80209e-05 -1.38343e-05 0.000202539 )  
( 7.40059e-05 0.000214959 0.000184923 )  
( 8.38356e-05 -5.80232e-05 0.000131305 )  
( -5.96829e-06 4.32596e-05 -0.000117621 )  
( -2.41978e-06 7.476e-06 2.29425e-05 )  
( -6.59385e-05 -0.00010514 4.53749e-05 )  
( -0.000103184 -2.34953e-05 2.19616e-05 )  
( 1.39538e-06 5.73533e-06 1.50771e-05 )  
( -4.42944e-05 -6.48779e-05 0.000127377 )  
( 1.91693e-05 1.88237e-05 -3.04885e-05 )  
( -2.00924e-06 -3.15325e-05 9.98252e-05 )  
( 3.58183e-05 -6.10917e-05 1.1011e-05 )  
( -5.10169e-05 1.87436e-05 9.49701e-05 )  
( 3.01216e-06 6.08625e-06 -1.47835e-05 )  
( -8.7609e-05 -0.000100631 0.000102351 )  
( -9.66452e-05 -1.68393e-05 0.000161675 )  
( 6.17344e-05 -6.56022e-05 0.000199575 )  
( -0.000115846 -9.04627e-05 8.32546e-05 )  
( -6.26876e-05 1.25628e-05 0.000321658 )  
( 5.71779e-05 -8.23236e-05 0.000191 )  
( -0.00021955 -3.02795e-05 0.000210582 )  
( -0.000129505 8.90642e-06 0.00026777 )  
( 1.22073e-05 -1.77037e-06 5.13698e-05 )  
( -7.10953e-05 -7.74459e-05 3.66912e-05 )  
( -6.96516e-05 5.64856e-05 0.000166091 )  
( -0.000233086 -0.00016025 0.000173881 )  
( -0.00012035 -9.15053e-05 0.000180161 )  
( 4.71043e-06 -5.57923e-06 0.000295484 )  
( -5.28022e-05 -3.0118e-05 0.000144077 )  
( -6.05417e-05 -6.84935e-05 5.04727e-05 )  
( -3.65935e-05 -8.45585e-05 1.68307e-05 )  
( -3.40073e-05 -8.67644e-05 0.000237571 )  
( -2.06369e-05 -4.21439e-05 0.000229833 )  
( 1.34271e-05 9.40892e-05 0.000195031 )  
( 1.36843e-05 3.39526e-05 5.9753e-06 )  
( -2.41677e-06 1.44322e-05 0.000162171 )  
( -4.41683e-05 -4.35792e-05 6.21551e-05 )  
( 9.78244e-07 5.08212e-06 0.000109487 )  
( -8.93918e-05 2.76681e-05 0.000223586 )  
( 6.8479e-06 -7.82628e-06 4.03686e-05 )  
( 6.88532e-06 -5.8807e-05 2.35656e-05 )  
( 0.000281385 0.000192149 0.000125147 )  
( -7.30481e-05 -5.29511e-05 5.41547e-05 )  
( -0.000200291 0.000109968 -7.32144e-05 )  
( 0.000927675 7.37656e-05 -0.000112933 )  
( 1.86125e-05 1.0596e-05 5.60726e-05 )  
( 2.23196e-05 -5.54809e-06 9.18545e-05 )  
( 0.000271102 -6.05877e-05 1.93022e-06 )  
( -1.33873e-06 5.24834e-06 -1.28201e-06 )  
( 2.95059e-05 2.03513e-05 0.00021927 )  
( 3.16775e-06 4.46899e-05 0.000135004 )  
( -2.06336e-05 -7.79049e-05 9.92961e-05 )  
( -1.04579e-06 -3.6315e-05 8.95779e-05 )  
( -5.69931e-05 -3.83691e-05 0.000239577 )  
( -1.06643e-06 1.6851e-05 5.99759e-06 )  
( -1.37997e-05 6.75282e-05 0.000322056 )  
( 3.94429e-05 2.74243e-06 5.42284e-05 )  
( -9.97248e-06 -3.08017e-05 1.44716e-05 )  
( 2.09538e-05 -2.31646e-05 5.49716e-05 )  
( -0.00016925 -8.42335e-05 4.87202e-05 )  
( 1.95858e-05 2.55603e-05 0.000166405 )  
( -7.14014e-07 -2.64534e-06 0.000166692 )  
( -0.000142869 -1.70462e-05 4.32241e-05 )  
( 4.51359e-05 7.46626e-05 6.38021e-05 )  
( -6.65562e-05 -5.09913e-05 0.000117732 )  
( -0.000173381 4.22231e-05 2.16807e-05 )  
( -5.61413e-06 -2.74469e-05 6.81197e-05 )  
( 4.01906e-05 5.91691e-05 -2.61095e-05 )  
( -5.51591e-05 -2.94308e-05 3.1397e-05 )  
( -0.00015111 -3.49247e-05 3.6301e-05 )  
( -8.91183e-05 -4.54851e-06 0.000113807 )  
( 2.27326e-05 -2.92155e-05 8.26475e-05 )  
( -1.41523e-05 -3.43017e-05 0.000197091 )  
( -9.64903e-05 -8.82387e-05 5.84058e-05 )  
( -9.6073e-05 -4.18731e-05 0.000251316 )  
( -9.41999e-05 -0.000109015 0.000165245 )  
( -6.53682e-05 -4.46788e-05 2.31217e-05 )  
( -7.07048e-05 -8.35826e-07 0.000289294 )  
( -7.08862e-05 -7.18644e-05 0.000255245 )  
( -3.24179e-05 -3.8852e-05 3.87858e-05 )  
( 5.1265e-05 -1.26806e-05 3.74878e-05 )  
( -4.26003e-06 5.35647e-06 1.51987e-05 )  
( 9.26195e-06 6.52995e-06 4.16058e-05 )  
( -4.32729e-05 -9.07804e-05 4.3437e-05 )  
( -3.45919e-05 -8.54487e-05 6.38011e-05 )  
( 1.84536e-05 -2.98974e-05 0.000117253 )  
( 1.29881e-05 -6.66379e-05 0.000103724 )  
( -8.89304e-05 -3.04302e-05 0.000170244 )  
( -6.16208e-05 4.10105e-05 0.000173939 )  
( -2.14762e-05 -1.32073e-05 -1.03664e-05 )  
( -0.000218085 -8.86617e-05 2.29283e-05 )  
( -2.1774e-05 -1.14212e-05 5.92458e-05 )  
( -4.76783e-05 1.81005e-05 0.000201586 )  
( -2.02371e-05 -9.80798e-05 3.32584e-05 )  
( 9.31032e-05 4.39297e-05 0.00020423 )  
( -1.32469e-05 -4.61326e-05 6.43104e-06 )  
( -6.16085e-05 5.15276e-05 0.000366698 )  
( -2.40966e-06 -2.33513e-06 0.000117993 )  
( -8.8882e-05 -5.24017e-05 0.000224442 )  
( -1.56919e-05 2.71119e-05 6.89146e-05 )  
( -3.45689e-05 3.12324e-06 3.29621e-05 )  
( -1.46974e-05 5.12486e-05 9.14061e-05 )  
( -1.16206e-06 -1.74628e-05 0.000127565 )  
( -5.18154e-05 -5.25637e-06 0.000192314 )  
( -1.91565e-05 -2.77558e-05 2.34905e-05 )  
( 4.29487e-06 4.88069e-06 7.19628e-06 )  
( 1.61502e-05 -0.000134498 0.000241045 )  
( -3.80287e-05 6.22609e-06 0.000171754 )  
( -2.0624e-06 -3.61771e-05 1.98238e-05 )  
( -0.000530075 -0.000345292 0.000690888 )  
( -8.6365e-05 -4.88489e-05 3.52672e-05 )  
( -4.54505e-05 -2.35848e-05 0.000307295 )  
( -0.000234753 2.16818e-05 9.66832e-05 )  
( 0.000338986 -3.06139e-05 0.000106365 )  
( 1.27372e-06 2.08366e-05 6.66588e-05 )  
( 3.60622e-05 -1.21397e-05 3.24079e-05 )  
( -8.22075e-05 -2.39735e-05 0.000132588 )  
( -3.19103e-05 -1.4729e-05 0.000244469 )  
( -1.862e-05 -1.47652e-05 0.000126098 )  
( -0.000114152 -4.93515e-05 6.07477e-05 )  
( -8.42416e-05 -1.67112e-05 0.00016543 )  
( -2.23757e-05 -6.70596e-06 9.31187e-05 )  
( -0.00011898 -7.09128e-05 0.00012093 )  
( -2.02097e-05 3.56711e-05 7.40392e-05 )  
( 3.37967e-05 -1.94218e-06 9.00667e-05 )  
( -4.87364e-05 1.92786e-05 1.12953e-05 )  
( 2.31177e-05 -1.95327e-06 7.13191e-05 )  
( -0.000103071 -4.36337e-05 0.000153928 )  
( -0.00018128 -4.00883e-05 0.000148595 )  
( -0.000107058 -4.93999e-05 0.000333802 )  
( -0.000107046 -8.78178e-05 3.86542e-05 )  
( -5.48013e-05 -1.13527e-05 0.000198264 )  
( -0.000126743 -0.000114321 0.000180387 )  
( -3.46372e-05 -7.86021e-05 6.53749e-05 )  
( 0.000113114 -9.42548e-06 -0.000114404 )  
( -7.08366e-05 -4.71981e-05 3.59677e-05 )  
( -7.62378e-05 5.30971e-06 0.000142376 )  
( -6.69232e-05 -3.33748e-05 0.00010183 )  
( -1.2449e-05 -8.90852e-05 3.54344e-05 )  
( -0.000197358 0.000137137 -1.58951e-07 )  
( 2.98847e-06 2.20616e-06 1.27e-05 )  
( 2.69314e-05 -4.02569e-06 0.000101088 )  
( -9.75789e-05 -8.89738e-05 7.44026e-05 )  
( 7.66972e-06 -3.97145e-05 0.000112945 )  
( -4.22516e-05 -2.28466e-05 -2.05604e-05 )  
( -0.000161464 -6.02871e-06 -4.90586e-05 )  
( -0.000770518 0.000146375 0.000560681 )  
( -3.39315e-05 -8.25376e-05 0.000195036 )  
( 7.26156e-05 -1.27352e-05 7.03447e-05 )  
( -0.000121614 -4.48889e-05 -0.000101487 )  
( -5.02083e-05 -0.000165238 0.00026182 )  
( 2.75585e-05 -3.50525e-05 2.22096e-05 )  
( 2.85352e-05 -4.52697e-05 0.000129087 )  
( 5.06855e-05 2.32422e-05 0.000185794 )  
( -2.4243e-05 -3.10523e-05 7.61736e-05 )  
( 3.79496e-05 -1.44282e-06 4.02228e-05 )  
( 5.85846e-05 4.3943e-05 0.000203918 )  
( 8.45248e-06 5.18933e-06 0.000132468 )  
( -3.75708e-05 -1.08903e-05 3.90936e-05 )  
( -0.000140046 -0.000122765 3.47184e-05 )  
( -0.000141682 -1.39203e-05 4.90082e-05 )  
( 7.13765e-06 -4.27707e-05 3.66485e-05 )  
( 0.000312488 -0.000256899 0.000249148 )  
( -5.52314e-05 -2.09393e-05 0.000218861 )  
( 1.86459e-05 -2.80286e-06 3.72388e-06 )  
( -0.000133909 -7.27673e-05 0.000189606 )  
( -2.2132e-05 -4.55404e-05 0.000111786 )  
( 6.43499e-05 -0.000101597 0.000177906 )  
( 1.92305e-05 5.31257e-06 0.00011457 )  
( -9.96385e-05 -4.61713e-05 0.00031451 )  
( -4.182e-05 -5.46674e-05 0.000175973 )  
( 2.33218e-05 8.62283e-06 0.000120768 )  
( -1.19905e-05 -9.54863e-05 7.88187e-05 )  
( 2.93606e-05 -8.72769e-06 1.51892e-05 )  
( 7.00627e-06 5.94119e-07 1.83928e-05 )  
( -0.000103549 -8.84893e-05 0.000148646 )  
( -8.88466e-05 -9.04033e-05 0.000134081 )  
( 1.56966e-05 -2.84539e-05 8.64757e-05 )  
( 1.74604e-05 -3.27598e-05 4.50335e-05 )  
( -5.56539e-05 1.15465e-05 0.000158939 )  
( 7.74436e-06 -4.83775e-05 3.07408e-05 )  
( -1.79928e-05 -9.78878e-05 -1.32194e-05 )  
( -3.41921e-05 -4.56239e-05 6.33957e-06 )  
( -2.77918e-05 -5.36744e-05 0.000128913 )  
( -6.23217e-05 4.23745e-05 0.000272144 )  
( -0.00039803 7.01281e-05 -1.6715e-07 )  
( 3.32725e-05 -1.07534e-05 1.20192e-05 )  
( -0.000144092 -8.19751e-05 6.1844e-05 )  
( -0.000118169 1.60492e-06 -1.20239e-05 )  
( -8.95585e-05 -8.04589e-06 0.000161483 )  
( -8.77687e-06 -1.12368e-05 6.94586e-05 )  
( -6.21961e-05 -3.79906e-05 9.30233e-05 )  
( -5.95162e-05 -4.13633e-05 0.000188473 )  
( -0.000661623 0.000156285 0.000543729 )  
( -6.328e-05 -6.12798e-05 -6.94947e-05 )  
( 2.88907e-05 -0.000104921 0.000209223 )  
( 3.48962e-05 1.81381e-05 8.64349e-05 )  
( -5.30005e-05 4.43305e-05 1.47447e-05 )  
( -8.14247e-05 -6.9277e-05 4.0385e-05 )  
( -3.58432e-05 -7.68142e-05 0.000159099 )  
( -0.000165092 -6.65201e-05 7.52822e-06 )  
( -0.000119432 -7.21219e-05 3.77245e-06 )  
( -6.13986e-05 -2.04057e-05 0.000108674 )  
( -8.37006e-05 -7.7178e-05 0.000207828 )  
( -1.46446e-06 1.99576e-05 0.00010894 )  
( 3.95922e-06 -1.18623e-05 3.73721e-06 )  
( 1.97519e-05 2.70118e-06 5.65956e-05 )  
( -9.0855e-05 -6.53719e-06 7.25743e-05 )  
( -6.18263e-06 -3.06609e-05 0.000131371 )  
( 6.95649e-05 2.14223e-06 3.94875e-06 )  
( -1.55425e-06 -3.70536e-05 7.25847e-05 )  
( 1.84474e-05 -2.47095e-05 5.22738e-05 )  
( -2.94021e-05 1.44453e-05 5.12908e-05 )  
( -0.000138338 -5.16508e-05 1.1896e-05 )  
( -9.29862e-05 -3.57203e-05 -8.46919e-06 )  
( -9.81554e-05 0.000150299 1.45235e-05 )  
( -4.14274e-05 1.14207e-06 4.38662e-05 )  
( -5.55727e-06 -5.3968e-05 3.1113e-05 )  
( -4.8076e-05 -5.68986e-05 0.000211283 )  
( -5.09006e-05 -8.14811e-05 0.000205337 )  
( -5.28229e-05 -1.20591e-05 0.000196046 )  
( 6.04066e-05 7.03598e-05 0.000126072 )  
( -1.78879e-06 -1.06877e-05 7.64192e-06 )  
( -7.87897e-05 2.46368e-05 0.000103539 )  
( 1.18428e-05 8.49748e-06 0.000168307 )  
( 9.47387e-06 6.08359e-06 6.98307e-05 )  
( 0.000106185 0.000462227 0.000398608 )  
( 3.36918e-05 6.31418e-05 0.000247066 )  
( 5.60681e-05 -5.24441e-05 1.0723e-05 )  
( -9.32982e-05 1.25906e-05 7.0406e-05 )  
( -9.92731e-05 0.000111112 5.88405e-05 )  
( -0.000160342 -3.02853e-05 7.35429e-05 )  
( 3.92893e-05 -0.000133281 0.000175953 )  
( -3.09995e-05 -6.95299e-06 0.000192702 )  
( -1.76616e-05 -2.03771e-05 0.000125192 )  
( -3.96668e-05 -4.17595e-05 7.22722e-05 )  
( 4.76991e-05 -7.7858e-06 0.000139491 )  
( -0.000163164 8.90849e-06 0.000227291 )  
( -7.75762e-05 -2.63479e-05 -7.43504e-05 )  
( -6.58348e-05 -2.14949e-05 0.000168353 )  
( -3.94431e-05 1.82216e-05 0.000384471 )  
( 3.68245e-05 -6.75838e-05 6.57283e-05 )  
( 5.68119e-05 -5.65533e-06 0.000148251 )  
( -1.30164e-06 -4.29418e-06 2.36578e-06 )  
( -1.3517e-05 4.48585e-05 2.41458e-05 )  
( 4.04756e-05 -1.59032e-05 -1.2898e-05 )  
( -0.000108959 -2.05292e-05 -2.27675e-05 )  
( 9.26826e-05 0.000178615 -2.54315e-07 )  
( -2.79138e-05 -8.05118e-05 4.40318e-05 )  
( -5.64531e-05 -4.96833e-05 0.000147764 )  
( 0.000138311 -0.000166443 0.000221245 )  
( -0.000169897 -0.000441955 0.000325566 )  
( -2.19023e-05 -6.64782e-05 0.000140377 )  
( -7.74879e-05 6.29322e-05 0.00016038 )  
( 2.14695e-05 -9.42558e-06 7.1633e-05 )  
( 7.72568e-05 -4.64678e-05 0.00030999 )  
( -8.58473e-06 9.57777e-06 0.000171316 )  
( -1.67705e-05 -7.40737e-05 8.3425e-06 )  
( -3.04925e-05 -2.06465e-05 0.000336368 )  
( -0.000161138 0.000115965 3.66022e-05 )  
( -0.000136061 -6.71033e-05 0.00021549 )  
( -1.62578e-05 -0.00012701 5.71556e-05 )  
( -6.83498e-05 -1.88425e-05 0.000189421 )  
( -0.000102068 -3.89454e-06 0.000185467 )  
( -2.38881e-05 -2.85789e-05 -2.63517e-05 )  
( -4.47484e-05 -3.33337e-05 0.000192285 )  
( 3.82948e-05 1.11437e-05 3.18895e-05 )  
( 7.76576e-05 -4.06287e-05 6.0454e-05 )  
( -0.00011883 5.02094e-05 0.000124269 )  