/*--------------------------------*- C++ -*----------------------------------*\
| =========                 |                                                 |
| \\      /  F ield         | OpenFOAM: The Open Source CFD Toolbox           |
|  \\    /   O peration     | Version:  2506                                  |
|   \\  /    A nd           | Website:  www.openfoam.com                      |
|    \\/     M anipulation  |                                                 |
\*---------------------------------------------------------------------------*/
FoamFile
{
    version     2.0;
    format      ascii;
    arch        "LSB;label=32;scalar=64";
    class       volScalarField;
    location    "0.008";
    object      p;
}
// * * * * * * * * * * * * * * * * * * * * * * * * * * * * * * * * * * * * * //

dimensions      [0 2 -2 0 0 0 0];

internalField   nonuniform List<scalar> 
512
(
0.296931
0.556904
0.159507
-0.44831
-0.199108
0.114424
0.253164
-0.163782
-0.704808
-0.604682
-0.352448
-0.459192
-0.545007
-0.1573
0.00128711
0.132526
0.346132
0.414416
0.675193
0.587282
0.506287
0.762287
0.414681
-0.297829
-0.155848
0.147369
0.149193
0.352666
0.516565
0.243437
-0.117879
-0.0963329
0.290892
0.235742
0.0756113
-0.20828
-0.279456
0.0199032
0.196612
-0.19499
-0.901278
-0.785041
-0.538425
-0.433098
-0.315354
-0.0366648
0.293576
0.424322
0.273959
0.0990248
0.261632
0.417458
0.491441
0.73834
0.317095
-0.238895
0.00661422
0.298832
0.275795
0.369923
0.196714
0.0984146
0.266324
0.424508
-0.165091
0.0631241
0.436366
0.127911
-0.24003
0.0738208
0.286564
-0.17457
-1.011
-0.774748
-0.341484
-0.330099
-0.599324
-0.158919
0.565321
0.769304
0.193962
-0.211708
0.0745786
0.507554
0.539285
0.566748
0.187399
-0.251317
0.0201362
0.105437
0.141188
0.414036
0.322005
0.312751
0.570821
0.365805
-0.0725289
-0.0918222
0.282841
0.37825
-0.0605245
-0.0642557
0.303523
0.0161903
-0.791054
-1.15265
-0.886994
-0.176819
0.0376432
-0.0680884
0.121014
0.501597
0.27356
-0.155885
0.0731982
0.299784
0.349455
0.305054
0.0518767
-0.186009
-0.122042
0.165232
0.414672
0.55555
0.454114
0.514565
0.46597
0.165098
0.297453
0.0854752
0.0916342
0.309429
0.0340213
-0.337971
-0.180978
-0.169692
-0.523671
-1.09204
-0.923849
-0.238146
-0.0673609
-0.0849891
0.220659
0.526405
0.39738
0.139947
0.292808
0.401175
0.27199
0.0867208
0.0759198
0.181002
0.186763
0.123689
0.353295
0.540271
0.234941
0.0565204
0.255942
0.391982
0.089606
0.0552789
0.450098
0.891988
0.452287
-0.347897
-0.622206
-0.634736
-0.518186
-0.65201
-0.773351
-0.542514
-0.278633
0.115219
0.260922
0.286858
0.364467
0.261172
0.316043
0.303512
0.15414
-0.0284924
-0.182178
0.178061
0.373515
0.125226
0.446303
0.684622
0.473768
0.350628
0.115489
-0.0650359
-0.0655199
0.0149485
0.492263
0.515999
0.223005
-0.332568
-0.730917
-0.667431
-0.359002
-0.470703
-0.957534
-1.20472
-0.411532
0.3192
0.692408
0.756721
0.312657
0.282565
0.604516
0.434823
0.0532142
-0.142968
-0.0756092
-0.107213
-0.106569
0.471051
0.745467
0.512112
0.16268
0.211376
0.257347
0.145348
-0.132134
-0.17528
0.449668
0.613306
0.305229
0.0255951
-0.358297
-0.522339
-0.351311
-0.588962
-1.07475
-1.11265
-0.380858
0.260906
0.494766
0.36586
-0.00933213
0.42399
0.810994
0.389231
-0.18745
-0.356895
-0.307127
0.0463929
0.461888
0.754979
0.681178
0.460519
0.186205
0.196513
0.269749
0.251074
0.218982
0.485999
0.275544
-0.148655
-0.190187
0.41859
0.185296
-0.697571
-1.26109
-0.844414
-0.239123
-0.0629358
-0.314039
-0.165087
0.186764
0.169035
0.188535
0.218283
0.203614
0.42407
0.544502
0.499864
0.330642
-0.150863
-0.136125
0.00840441
0.0372131
0.49513
0.852232
0.490338
-0.0909742
-0.16506
0.407993
0.216574
-0.0923092
-0.111587
0.163464
0.44709
0.155348
-0.690391
-1.2275
-0.883429
-0.458187
-0.12416
-0.10108
-0.192534
0.166973
0.478934
0.428921
0.132557
0.0265149
0.375687
0.521859
0.590541
0.311478
-0.209904
-0.117297
0.206782
0.26066
0.305058
0.3321
0.124178
0.0179615
0.143003
0.152611
0.0177087
0.209189
0.403566
0.113638
0.242837
0.138226
-0.484591
-1.17955
-0.868003
-0.438124
-0.259445
-0.242623
-0.239979
0.0299068
0.359932
0.307803
-0.00518916
0.0687568
0.426737
0.489611
0.350692
0.0108297
-0.163727
-0.135994
0.142745
0.33713
0.410486
0.438041
0.42263
0.364756
0.320188
-0.0833118
0.0615563
0.237517
0.079903
0.0931352
0.158431
0.177569
-0.108692
-0.703422
-0.985478
-0.94485
-0.502631
-0.257626
-0.118287
0.275462
0.45647
0.427631
0.314968
0.204839
0.282323
0.271361
0.109737
-0.022833
0.0135196
0.201422
0.285094
0.233911
0.272316
0.369672
0.481843
0.387798
0.121735
0.261351
0.0989111
0.207424
0.272471
0.182197
-0.00970838
-0.20048
-0.395105
-0.567711
-0.721782
-0.799173
-0.63401
-0.0195011
0.215024
0.291308
0.479513
0.306402
0.137126
0.473839
0.418493
0.10168
-0.168469
-0.170708
0.119806
0.341933
0.249856
0.0749016
0.281989
0.291144
0.000813296
0.376184
0.527603
0.0109815
-0.281302
0.272992
0.745902
0.324146
-0.273649
-0.588819
-0.4075
-0.23997
-0.403156
-0.784404
-0.844681
-0.233217
0.26284
0.374763
0.4432
0.24614
0.338923
0.43907
0.204764
0.0924312
-0.0823287
-0.420079
0.00856199
0.49152
0.386091
0.443874
0.659071
0.350027
0.0915897
0.453787
0.523058
-0.152509
-0.0832616
0.438868
0.837942
0.332543
-0.392381
-0.757942
-0.476905
-0.368163
-0.615795
-0.663654
-0.529813
-0.425913
0.12988
0.842661
0.813783
0.399113
0.230114
0.358202
0.238512
-0.132355
-0.192215
-0.0393924
0.103183
0.252008
0.344513
0.493467
0.668171
0.347717
0.0911006
0.246547
0.20024
-0.208002
0.102328
0.688672
0.692053
0.157179
-0.235637
-0.425525
-0.458
-0.649276
-0.860658
-0.747238
-0.65095
-0.456376
0.24474
0.590838
0.60181
0.540599
0.319856
0.325339
0.326434
-0.0495538
-0.323243
0.0620694
0.365746
0.290678
0.45639
0.6176
0.73003
0.413576
-0.15642
0.098192
0.203888
)
;

boundaryField
{
    wall
    {
        type            zeroGradient;
    }
    outlet
    {
        type            cyclic;
    }
    inlet
    {
        type            cyclic;
    }
    procBoundary2to1
    {
        type            processor;
        value           nonuniform List<scalar> 
256
(
0.467574
0.631068
0.467957
-0.151549
-0.509595
-0.844376
-0.381837
0.0860282
-0.0488976
-0.242998
-0.335806
-0.81217
-0.774186
-0.031649
0.615909
0.55033
-0.14439
-0.0868725
0.346743
0.440198
0.525437
0.596343
0.216365
0.0091393
0.33768
0.342733
0.210931
0.245158
-0.0593244
-0.216587
0.186185
0.549422
0.168572
0.410427
0.509548
-0.0167719
-0.447144
-0.744132
-0.310638
0.164338
-0.184196
-0.638628
-0.424015
-0.375927
-0.593417
-0.215502
0.452555
0.455349
-0.0888461
-0.188486
0.129246
0.448225
0.640655
0.689888
0.156321
-0.178325
0.319887
0.529892
0.318363
0.334275
0.0404894
-0.246443
0.264949
0.518992
0.0339469
0.217891
0.373285
0.216147
-0.110872
-0.35453
0.110297
0.160486
-0.557754
-0.867709
-0.552155
-0.450592
-0.594427
-0.175614
0.310173
0.474411
0.343057
0.100762
0.00604724
0.125376
0.438861
0.548368
0.271596
0.0850047
0.144716
0.209557
0.292477
0.39219
0.202444
0.0284229
0.368566
0.336315
-0.196491
0.107039
0.253653
0.26822
0.0649761
0.180001
0.314104
-0.0178366
-0.814522
-1.20261
-0.740896
-0.297923
-0.259671
-0.322044
-0.0263291
0.412269
0.488291
0.18314
-0.10287
0.259814
0.517428
0.467561
0.201217
-0.0813938
0.0827068
0.319544
0.27086
0.435026
0.599538
0.481784
0.321419
0.0569465
0.176399
0.185168
0.0653175
0.279306
0.204833
0.096496
-0.0812373
-0.404747
-0.793486
-0.932773
-0.58737
-0.25648
-0.305522
-0.147081
0.0527473
0.08638
0.391826
0.398307
0.281408
0.278633
0.233224
0.128909
0.00520832
0.0744056
0.252993
0.321046
0.424183
0.464176
0.367042
0.430995
0.360331
0.154443
0.10468
0.122151
0.337714
0.800431
0.663897
-0.0957156
-0.853961
-0.856441
-0.604788
-0.588426
-0.610844
-0.653756
-0.744849
-0.222756
0.224573
0.309599
0.622417
0.420793
0.289257
0.443878
0.343879
0.087866
-0.164343
0.00907823
0.442887
0.554785
0.483594
0.301987
0.0988039
0.334629
0.407815
0.0969376
-0.067717
0.00358651
0.558279
0.995948
0.539078
-0.438394
-1.12371
-0.642727
-0.378417
-0.645295
-0.81576
-0.938512
-0.8343
-0.0680716
0.324869
0.402722
0.321724
0.168896
0.389563
0.653617
0.367691
0.026501
-0.0668378
-0.0804804
0.42025
0.737205
0.691747
0.197581
-0.222039
0.39849
0.70181
0.225426
-0.15996
-0.202581
0.330261
0.624952
0.184008
-0.185601
-0.327758
-0.423917
-0.539955
-0.8061
-0.75904
-0.664558
-0.625009
0.0458964
0.476319
0.485319
0.155433
0.0303585
0.339841
0.394972
-0.0857525
-0.101436
0.228526
0.205474
0.398235
0.889618
0.755509
0.109824
-0.00919624
0.518068
0.559662
0.194516
)
;
    }
    procBoundary2to3
    {
        type            processor;
        value           nonuniform List<scalar> 
256
(
0.0839538
0.346167
0.246204
0.0841296
0.415313
0.679494
0.130803
-0.907235
-1.46506
-0.792421
-0.240813
-0.048388
-0.187234
-0.371669
-0.0325056
0.0737336
0.111416
0.304346
0.23867
0.446069
0.767989
0.657982
0.394196
0.0189761
-0.0891982
-0.0408734
0.0522587
0.359628
0.597049
0.359722
-0.163641
-0.272291
0.199357
0.116188
0.0756574
0.0600038
0.280305
0.490642
-0.0659919
-1.0672
-1.30084
-0.782904
-0.24588
0.173249
0.208614
-0.0773748
-0.138034
0.156316
0.282337
0.418961
0.3172
0.238735
0.68783
0.73639
0.349022
-0.142955
-0.285336
-0.0959141
0.200483
0.448494
0.545142
0.394789
-0.0612781
-0.0964091
0.402534
0.210452
0.259248
0.272877
0.217629
0.327068
-0.0368368
-0.708351
-1.24038
-1.02413
-0.289062
-0.0121266
-0.140215
-0.277528
-0.0800205
0.359501
0.421428
0.157025
0.0290832
0.0177448
0.392356
0.458285
0.2867
0.177615
0.276384
0.174602
-0.00522256
0.197455
0.471989
0.381682
0.000702038
0.226065
-0.0582654
0.0460697
0.130446
0.13915
0.155174
0.227233
0.00595058
-0.467349
-0.916942
-0.872771
-0.511634
-0.275342
-0.120247
0.0330606
0.233887
0.372819
0.354444
0.315416
0.257008
0.239934
0.246775
0.229805
0.157001
0.176854
0.262766
0.281857
0.109417
0.126718
0.474211
0.522398
0.116756
-0.119373
0.403968
0.170934
0.0683221
0.252659
0.323632
0.118098
-0.116374
-0.511571
-0.831897
-0.832157
-0.837515
-0.438521
-0.146627
0.168172
0.375959
0.515377
0.24646
0.0360653
0.441531
0.520371
0.196948
-0.13947
-0.12889
0.11399
0.280688
0.381443
0.457008
0.275912
0.0151954
-0.166752
0.295447
0.636421
0.356112
0.232492
0.282234
0.358938
0.321882
0.190526
-0.169544
-0.614536
-0.813042
-0.619279
-0.586603
-0.580957
-0.362396
0.0893232
0.280024
0.371943
0.274348
0.240734
0.520825
0.561748
0.339935
-0.0511641
-0.360325
0.0478346
0.431459
0.475746
0.565688
0.319222
0.0450372
-0.0978369
-0.00955419
0.36017
0.379007
0.262407
0.184227
0.240498
-0.0262902
-0.0942669
-0.176267
-0.412324
-0.47336
-0.375111
-0.454275
-0.620807
-0.579543
0.0974163
0.431632
0.104272
0.0684179
0.192331
0.297805
0.496916
0.558181
0.286497
-0.170069
-0.0160398
0.303684
0.189041
0.299451
0.382027
0.159137
0.275466
0.329962
0.249981
-0.0178291
0.220946
0.49053
0.401677
0.0491479
-0.289388
-0.3803
-0.353595
-0.314033
-0.380497
-0.352127
-0.521243
-0.613957
0.0683096
0.368724
0.260333
0.279777
0.225716
0.487915
0.657094
0.534949
0.0140798
-0.205561
0.0037271
-0.01014
0.0524599
0.49554
0.551884
0.396556
0.26506
0.278453
0.171056
)
;
    }
}


// ************************************************************************* //
