FoamFile
{version 2.0; format ascii;class Cloud<passiveParticle>; location 0;object  positions;}
2510
(
( -0.00966889 0.00548445 0.000499554 ) 0 
( -0.00615714 0.0118455 0.00125263 ) 0 
( -0.00592153 0.00139274 0.00328054 ) 0 
( -0.00124299 0.00853631 0.00280422 ) 0 
( -0.00870784 0.00305641 0.00110613 ) 0 
( -0.000411485 0.00250525 0.00500468 ) 0 
( -0.0077115 0.00849919 0.00512643 ) 0 
( -0.00914213 0.00685254 0.00182983 ) 0 
( -0.00966139 0.00168609 0.0028509 ) 0 
( -0.00473163 0.00737139 0.00276193 ) 0 
( -0.00419321 0.00507503 0.00453977 ) 0 
( -0.00140849 0.00211799 0.00790606 ) 0 
( -0.00772986 0.00835417 0.0033918 ) 0 
( -0.000886923 0.00787703 0.000499654 ) 0 
( -0.00489978 0.0115014 0.000499732 ) 0 
( -0.000284674 0.00874682 0.000499874 ) 0 
( -0.00827825 0.00238771 0.000499587 ) 0 
( -0.00867819 0.00208637 0.00136501 ) 0 
( -0.00650039 0.00937825 0.000499706 ) 0 
( -0.000876039 0.0016805 0.00713027 ) 0 
( -0.00342637 0.00475364 0.00734027 ) 0 
( -0.0129315 0.00328804 0.0017555 ) 0 
( -0.00490423 0.00108009 0.0034754 ) 0 
( -0.00751696 0.00548034 0.00141885 ) 0 
( -0.00142353 0.00501435 0.00490059 ) 0 
( -0.00754892 0.00888607 0.00421898 ) 0 
( -0.00106538 0.0100882 0.00367178 ) 0 
( -0.000607361 0.00430166 0.00324841 ) 0 
( -0.00706879 0.00386812 0.000706009 ) 0 
( -0.00331278 0.000926455 0.00659335 ) 0 
( -0.0107557 0.00604195 0.00678167 ) 0 
( -0.00385848 0.00179141 0.00127794 ) 0 
( -0.0123346 0.00382762 0.00554429 ) 0 
( -0.000186283 0.0106588 0.00460285 ) 0 
( -0.00227479 0.0106227 0.000499777 ) 0 
( -0.00842145 0.00308984 0.00343078 ) 0 
( -0.00170811 0.00348275 0.00293047 ) 0 
( -0.00833454 0.000509775 0.00411297 ) 0 
( -0.00837725 0.00248876 0.00442651 ) 0 
( -0.00459015 0.00748048 0.00710238 ) 0 
( -0.00714521 0.00289285 0.000499715 ) 0 
( -0.0057551 0.00628982 0.00273214 ) 0 
( -0.00350725 0.00176278 0.00238655 ) 0 
( -0.0118843 0.00365114 0.00444116 ) 0 
( -0.00450455 0.00922985 0.00274757 ) 0 
( -0.00499848 0.00625381 0.00205589 ) 0 
( -0.0118184 0.00180195 0.00252786 ) 0 
( -0.0026572 0.00304774 0.000499654 ) 0 
( -0.00219991 0.00855268 0.000499721 ) 0 
( -0.00280302 0.00634767 0.00248583 ) 0 
( -0.00766932 0.00975893 0.00370024 ) 0 
( -0.000110219 0.00832951 0.0027875 ) 0 
( -0.0115436 0.00670613 0.00179105 ) 0 
( -0.00514207 0.010607 0.0039543 ) 0 
( -0.00986259 0.00899742 0.00335101 ) 0 
( -0.0106841 0.00186965 0.00391203 ) 0 
( -0.0130369 0.00287443 0.00378123 ) 0 
( -0.0099255 0.00645077 0.000499677 ) 0 
( -0.00308467 0.00281189 0.00732417 ) 0 
( -0.00218143 0.0123481 0.00655889 ) 0 
( -0.0054953 0.0100228 0.00665853 ) 0 
( -0.0046367 0.00220208 0.00716785 ) 0 
( -5.40922e-05 0.0133502 0.00565633 ) 0 
( -0.00349166 0.00618283 0.00762469 ) 0 
( -0.00976104 0.00269543 0.00693471 ) 0 
( -0.0108262 3.1547e-05 0.00209224 ) 0 
( -0.0021591 0.00556183 0.00449308 ) 0 
( -0.00925115 0.000847354 0.0038988 ) 0 
( -0.00716258 0.00185468 0.00665536 ) 0 
( -0.00221568 0.00747724 0.00375385 ) 0 
( -0.00552673 0.000106593 0.00644292 ) 0 
( -0.00137739 0.0106233 0.00445714 ) 0 
( -0.00987579 0.00174316 0.00114863 ) 0 
( -0.00955861 0.00430313 0.00579802 ) 0 
( -0.00856305 0.00786447 0.00311432 ) 0 
( -0.00370441 0.0061409 0.000499887 ) 0 
( -7.41134e-05 0.0102432 0.00358587 ) 0 
( -0.0107121 0.00165681 0.00286203 ) 0 
( -0.00916612 0.0088578 0.00163484 ) 0 
( -9.45937e-05 0.00233394 0.00100891 ) 0 
( -0.00232464 0.000821448 0.000499683 ) 0 
( -0.00837228 0.00793664 0.000499792 ) 0 
( -0.00857737 0.00448929 0.00584274 ) 0 
( -0.0103335 0.000770685 0.0043024 ) 0 
( -0.00778556 0.0079143 0.00430579 ) 0 
( -0.00631891 0.00424045 0.00670183 ) 0 
( -0.00364608 0.00193208 0.00710857 ) 0 
( -0.00213918 0.0124291 0.000499776 ) 0 
( -0.00976392 0.00560666 0.00409454 ) 0 
( -0.000727977 0.00494759 0.00774943 ) 0 
( -0.00897135 0.00873707 0.000499657 ) 0 
( -0.00638751 0.00019532 0.0035403 ) 0 
( -0.00220907 0.000842159 0.00311797 ) 0 
( -0.00140406 0.00630893 0.00138613 ) 0 
( -0.0077593 0.0107677 0.00337328 ) 0 
( -0.00227214 0.00590294 0.00355998 ) 0 
( -0.0036363 0.00324032 0.00174689 ) 0 
( -0.00984079 0.00747943 0.00217384 ) 0 
( -0.0100414 0.00766282 0.0058537 ) 0 
( -0.00399929 0.0116261 0.00480961 ) 0 
( -0.00469377 0.00628619 0.000499763 ) 0 
( -0.00523385 0.00551648 0.00620595 ) 0 
( -0.000669151 0.00203826 0.0032222 ) 0 
( -0.00921142 0.00963473 0.00486482 ) 0 
( -0.00756308 0.00171039 0.00432232 ) 0 
( -0.00396904 6.38075e-05 0.00134798 ) 0 
( -0.00967764 0.00230638 0.00800987 ) 0 
( -0.00989929 0.00258942 0.00521457 ) 0 
( -0.000434845 0.00399225 0.00773447 ) 0 
( -0.00225362 0.00161739 0.00810573 ) 0 
( -0.00202866 0.00771143 0.0063253 ) 0 
( -0.00970809 0.00365869 0.0021388 ) 0 
( -0.00658833 0.0015689 0.00588856 ) 0 
( -0.00255256 0.00909467 0.0021955 ) 0 
( -0.0032231 0.00978979 0.00245881 ) 0 
( -0.00614358 0.00802719 0.0017937 ) 0 
( -0.012128 0.00478796 0.00535751 ) 0 
( -0.00627338 0.00542717 0.00297711 ) 0 
( -0.011751 0.00633539 0.00461195 ) 0 
( -0.00803103 0.00455609 0.00127457 ) 0 
( -0.00134577 0.00254892 0.00697342 ) 0 
( -0.00415251 0.00856687 0.00582073 ) 0 
( -0.0040751 0.00504166 0.00354736 ) 0 
( -0.0126667 0.00421652 0.00201527 ) 0 
( -0.00897371 0.000407874 0.00595537 ) 0 
( -0.00128659 0.00379691 0.00378101 ) 0 
( -0.000887127 0.0086294 0.00543275 ) 0 
( -0.00255794 0.00604921 0.00804145 ) 0 
( -0.00952595 0.00790518 0.000499658 ) 0 
( -0.00781748 0.0108218 0.00436999 ) 0 
( -0.00996472 0.00216026 0.0061152 ) 0 
( -0.00666885 0.00189629 0.00275582 ) 0 
( -0.00291777 0.00748328 0.0067237 ) 0 
( -0.00272423 0.00738475 0.00485989 ) 0 
( -0.00988789 0.0067163 0.00547269 ) 0 
( -0.0116605 0.00159505 0.000499912 ) 0 
( -0.00247397 0.00822632 0.00269748 ) 0 
( -0.0119806 0.00016078 0.00316058 ) 0 
( -0.0102999 0.00429254 0.00323814 ) 0 
( -0.0111623 0.000749761 0.00374357 ) 0 
( -0.00434867 0.00425907 0.00298814 ) 0 
( -0.0114589 0.00253266 0.00392414 ) 0 
( -0.00266865 0.00427988 0.00125856 ) 0 
( -0.0035111 0.000339275 0.0045966 ) 0 
( -0.00285423 0.0023978 0.00317199 ) 0 
( -0.00637037 0.00230364 0.000726771 ) 0 
( -0.00910296 0.00790781 0.00609796 ) 0 
( -0.00920998 0.000537999 0.006918 ) 0 
( -0.00158791 0.00564464 0.00688338 ) 0 
( -0.00402878 0.00586237 0.00297606 ) 0 
( -0.00286199 0.011679 0.00212033 ) 0 
( -0.0104274 0.0083369 0.000499726 ) 0 
( -0.00448068 0.00336641 0.00227063 ) 0 
( -0.0021476 0.00954203 0.00401598 ) 0 
( -0.000288506 0.0012042 0.00647675 ) 0 
( -0.00746869 0.0066004 0.00649327 ) 0 
( -0.0053641 0.000369616 0.00294281 ) 0 
( -0.00183337 0.0112963 0.00130244 ) 0 
( -0.00887281 0.00131188 0.00554013 ) 0 
( -0.00475757 0.001625 0.0016823 ) 0 
( -0.00818648 0.00821253 0.00635684 ) 0 
( -0.000694829 0.011358 0.00603992 ) 0 
( -0.00864552 0.00626289 0.0035754 ) 0 
( -0.0115523 0.00163112 0.00347741 ) 0 
( -0.00359767 0.00423205 0.00162513 ) 0 
( -0.00956458 0.00125553 0.00626002 ) 0 
( -0.00304301 0.0101367 0.00368603 ) 0 
( -0.00345142 0.00885609 0.00273431 ) 0 
( -0.00468359 0.00533062 0.00227562 ) 0 
( -0.00494159 0.0115674 0.00196194 ) 0 
( -0.00571881 0.000940422 0.00696014 ) 0 
( -0.00599428 0.00143035 0.0050965 ) 0 
( -0.00383736 0.000538348 0.0073508 ) 0 
( -0.0095122 0.00550589 0.00208855 ) 0 
( -0.00295416 0.0072243 0.0020066 ) 0 
( -0.0113941 0.0054767 0.00511815 ) 0 
( -0.0107323 0.0019665 0.000499594 ) 0 
( -0.0033677 0.007871 0.00546592 ) 0 
( -0.00766952 0.00177694 0.00269917 ) 0 
( -0.00453314 0.0124991 0.00631472 ) 0 
( -0.00309266 0.00693186 0.000499688 ) 0 
( -0.00260968 0.00423845 0.00241006 ) 0 
( -0.0109422 0.00411947 0.00401828 ) 0 
( -0.0128109 0.000471473 0.00595904 ) 0 
( -0.0128301 0.000356058 0.00399754 ) 0 
( -0.0109277 0.00748189 0.00542765 ) 0 
( -0.0106332 0.00506513 0.00224888 ) 0 
( -0.00566481 0.0054878 0.00212242 ) 0 
( -0.00312654 0.00999933 0.00049973 ) 0 
( -0.00537474 0.00309947 0.00370994 ) 0 
( -0.00539685 0.00753602 0.00648873 ) 0 
( -0.0131809 0.00211913 0.00148843 ) 0 
( -0.0113323 0.00333308 0.00222238 ) 0 
( -0.00165136 0.0118394 0.00374882 ) 0 
( -0.00749928 0.00543117 0.0071017 ) 0 
( -0.0083323 0.00691819 0.00288822 ) 0 
( -0.00193538 0.000120951 0.00375444 ) 0 
( -0.00119102 0.000788065 0.00377166 ) 0 
( -0.00922636 0.00256177 0.00205286 ) 0 
( -0.00126293 0.0112607 0.00303199 ) 0 
( -0.000629899 0.00976085 0.00049971 ) 0 
( -0.006961 0.00628817 0.00111319 ) 0 
( -0.00660654 0.0108547 0.00125907 ) 0 
( -2.28676e-05 0.0133502 0.00345226 ) 0 
( -0.00633598 0.00733445 0.00252613 ) 0 
( -0.00225603 0.00343619 0.00695231 ) 0 
( -0.00755162 0.00452565 0.00426399 ) 0 
( -0.00188954 0.00377849 0.00186532 ) 0 
( -0.0005177 0.00730274 0.00122983 ) 0 
( -0.0115784 0.00117952 0.00177482 ) 0 
( -0.00732151 0.00860257 0.00604135 ) 0 
( -0.0104036 0.00685467 0.00631787 ) 0 
( -8.75508e-05 0.0044231 0.000918243 ) 0 
( -0.00074434 0.00864328 0.00444323 ) 0 
( -0.0090047 0.00716234 0.00532924 ) 0 
( -0.00434098 0.0023797 0.00218889 ) 0 
( -0.00136589 0.00513498 0.000499772 ) 0 
( -0.00978788 0.00904891 0.00543417 ) 0 
( -0.0102107 0.000429072 0.00523387 ) 0 
( -0.00325796 0.00232768 0.00625706 ) 0 
( -0.00361608 0.00428532 0.00647758 ) 0 
( -0.000393901 0.00134307 0.0040084 ) 0 
( -0.00627396 0.00722159 0.00612636 ) 0 
( -0.0108247 0.00775041 0.00651151 ) 0 
( -0.00517938 0.0123037 0.00396601 ) 0 
( -0.00794904 0.000357475 0.00665742 ) 0 
( -0.000988861 0.00402649 0.00584432 ) 0 
( -0.00909509 0.00977176 0.00690113 ) 0 
( -0.0073671 0.00742533 0.00349171 ) 0 
( -1.33425e-05 0.00219854 0.00682746 ) 0 
( -0.00722883 0.000136218 0.00502159 ) 0 
( -0.00258478 0.0060276 0.0059209 ) 0 
( -0.00162868 0.00985222 0.000499589 ) 0 
( -0.00212484 0.0121803 0.00166748 ) 0 
( -0.0010439 0.0133092 0.00311813 ) 0 
( -0.00375825 0.00808943 0.00110362 ) 0 
( -0.00398752 0.00285638 0.00579249 ) 0 
( -0.0039916 0.00119167 0.00480295 ) 0 
( -0.00795013 0.000696982 0.00127162 ) 0 
( -0.00729055 0.00554268 0.00292781 ) 0 
( -0.00681635 0.00818727 0.00273099 ) 0 
( -0.00439977 0.00216646 0.000499869 ) 0 
( -0.000542448 0.00465492 0.0052074 ) 0 
( -0.00251207 0.00455094 0.00699064 ) 0 
( -0.00282404 0.000815766 0.00564133 ) 0 
( -0.00417852 0.00314217 0.000499732 ) 0 
( -0.00429432 0.00792961 0.00506338 ) 0 
( -0.00473655 0.000765662 0.00117177 ) 0 
( -0.000141384 0.00914353 0.00336727 ) 0 
( -0.00370598 0.0121856 0.00194457 ) 0 
( -0.00558604 0.00300884 0.00468296 ) 0 
( -0.0125579 0.00112136 0.001497 ) 0 
( -0.00227238 0.010933 0.00676798 ) 0 
( -0.00549522 0.000354954 0.00396243 ) 0 
( -0.00152375 0.00652866 0.00378179 ) 0 
( -0.000585093 0.00893758 0.00214544 ) 0 
( -0.00989102 0.00896607 0.00444307 ) 0 
( -0.00235208 0.0114476 0.00315293 ) 0 
( -0.0014852 0.00558742 0.0078761 ) 0 
( -0.00379595 0.00782418 0.002872 ) 0 
( -0.00409317 0.00602597 0.00483227 ) 0 
( -0.00221796 0.00681192 0.000968936 ) 0 
( -0.00258008 0.0106484 0.00145148 ) 0 
( -0.00379842 0.0105963 0.00261784 ) 0 
( -0.00214351 0.0103603 0.00530524 ) 0 
( -0.000735328 0.000117106 0.0052873 ) 0 
( -0.00847954 0.0103114 0.00494373 ) 0 
( -0.00588925 0.00502154 0.00485273 ) 0 
( -0.000717195 0.00572581 0.00543663 ) 0 
( -0.00543481 0.0064379 0.00117538 ) 0 
( -0.00228753 0.00649171 0.00508664 ) 0 
( -0.0122508 0.00342219 0.000499677 ) 0 
( -0.0097097 0.00460259 0.00246952 ) 0 
( -0.00380575 0.00946944 0.00344004 ) 0 
( -0.00570354 0.00218364 0.00399954 ) 0 
( -0.0104885 0.00436328 0.000499646 ) 0 
( -0.0032529 0.0113616 0.00125645 ) 0 
( -0.00426545 0.00202229 0.00528726 ) 0 
( -0.00516993 0.00316714 0.00781555 ) 0 
( -0.00315899 0.00530299 0.00632834 ) 0 
( -0.0103653 0.0058619 0.00170764 ) 0 
( -0.00889699 0.00542096 0.00640167 ) 0 
( -0.0117059 0.0060701 0.00758915 ) 0 
( -0.0118718 0.00610617 0.00304217 ) 0 
( -0.00550531 0.00480162 0.0068498 ) 0 
( -0.00653817 0.0107533 0.0026763 ) 0 
( -0.00052943 0.000631421 0.00303847 ) 0 
( -0.00134148 0.00434066 0.00257063 ) 0 
( -0.00574791 0.00390162 0.00426277 ) 0 
( -0.00371084 0.00700489 0.00709954 ) 0 
( -0.00812927 0.00459331 0.00706726 ) 0 
( -0.00311359 0.00330253 0.00645353 ) 0 
( -0.00857041 0.010236 0.00136121 ) 0 
( -0.00729449 0.00888898 0.00699891 ) 0 
( -0.00393664 0.0116972 0.00634859 ) 0 
( -0.0104251 0.00319626 0.00266107 ) 0 
( -0.00982142 0.00315293 0.00603661 ) 0 
( -0.0077323 0.00856735 0.00241484 ) 0 
( -0.00819635 0.00200162 0.00528067 ) 0 
( -0.0081987 0.00136408 0.000499851 ) 0 
( -0.00507927 0.00532072 0.00332047 ) 0 
( -0.0132922 0.00124284 0.00400065 ) 0 
( -0.00697932 0.0104306 0.00581636 ) 0 
( -0.00996525 0.00649902 0.0044986 ) 0 
( -0.0126458 0.00427987 0.000828275 ) 0 
( -0.00284402 0.0110744 0.00526151 ) 0 
( -0.0111524 0.000938054 0.00598207 ) 0 
( -0.0112384 0.00265581 0.00671266 ) 0 
( -0.00332138 0.010695 0.00446897 ) 0 
( -0.00222652 0.0124396 0.004369 ) 0 
( -0.00738268 0.00628922 0.00201983 ) 0 
( -0.00296202 0.0130173 0.00197379 ) 0 
( -0.0133205 0.000890745 0.00493613 ) 0 
( -0.0100439 0.00338946 0.00358669 ) 0 
( -0.00508613 0.00664686 0.00615394 ) 0 
( -0.00114822 0.000978579 0.000793772 ) 0 
( -0.00620477 0.00532975 0.00636921 ) 0 
( -9.69063e-05 0.00658703 0.00217195 ) 0 
( -0.00223236 0.00175545 0.00271146 ) 0 
( -0.000926119 0.00132093 0.00570867 ) 0 
( -0.00841713 0.00725551 0.00653711 ) 0 
( -0.00665925 1.71375e-05 0.0064303 ) 0 
( -0.011345 0.00240555 0.00183507 ) 0 
( -0.00196618 0.00508869 0.00279434 ) 0 
( -0.00904518 0.00894894 0.0026453 ) 0 
( -0.0026606 0.00518835 0.00207273 ) 0 
( -0.00477845 0.0106012 0.00302286 ) 0 
( -0.00995415 0.00797586 0.00694881 ) 0 
( -0.00632953 0.00322778 0.00344064 ) 0 
( -0.00582356 0.00583102 0.00715548 ) 0 
( -0.0058748 0.0112516 0.000499667 ) 0 
( -0.00199436 0.00866147 0.00346039 ) 0 
( -0.00580358 0.00831445 0.00696626 ) 0 
( -0.00358424 0.00679551 0.00135939 ) 0 
( -0.00135717 0.0120547 0.00467959 ) 0 
( -0.00123235 1.4271e-05 0.00135797 ) 0 
( -0.0110744 0.00593643 0.0024634 ) 0 
( -0.00442808 0.00368689 0.00613263 ) 0 
( -0.00750107 0.0110433 0.00244742 ) 0 
( -0.00428534 0.00430073 0.00535638 ) 0 
( -0.00425076 0.0114807 0.00273229 ) 0 
( -0.00968347 0.00308096 0.00132298 ) 0 
( -0.00572104 0.000159145 0.00197506 ) 0 
( -0.00169236 0.00448262 0.00118341 ) 0 
( -0.00593713 0.00238672 0.00538258 ) 0 
( -0.0123735 0.0050125 0.00148601 ) 0 
( -0.00222616 0.0123247 0.00268971 ) 0 
( -0.00770128 0.00616363 0.00390877 ) 0 
( -0.00611079 0.000654073 0.00119855 ) 0 
( -0.00551039 0.0121598 0.00632042 ) 0 
( -0.0118801 0.00424547 0.00363698 ) 0 
( -0.00449785 6.51723e-05 0.000499604 ) 0 
( -0.000882241 0.00596708 0.00216755 ) 0 
( -0.00686731 0.00469268 0.00259663 ) 0 
( -0.00293238 0.00114754 0.00470436 ) 0 
( -0.00277471 0.00146344 0.00725206 ) 0 
( -0.00487434 0.00551677 0.00714883 ) 0 
( -0.00127355 0.00752025 0.00335135 ) 0 
( -0.012021 0.0038599 0.00272027 ) 0 
( -0.00043233 0.0103323 0.00604238 ) 0 
( -0.00490131 0.00983977 0.00454861 ) 0 
( -0.00151306 0.000510758 0.00700017 ) 0 
( -0.000736284 0.00316911 0.00433099 ) 0 
( -0.00509859 0.00781511 0.00380297 ) 0 
( -0.0100963 0.00350147 0.00485447 ) 0 
( -0.0113718 0.00499336 0.00321017 ) 0 
( -0.0071187 0.00570539 0.00621834 ) 0 
( -0.0043256 0.00445153 0.00801735 ) 0 
( -0.00616013 0.00433144 0.00322175 ) 0 
( -0.0125141 0.00259403 0.00460324 ) 0 
( -0.000899161 0.000457941 0.00621286 ) 0 
( -0.00905997 0.00448668 0.0067183 ) 0 
( -0.00724472 0.00456501 0.00754681 ) 0 
( -0.00227657 0.0100558 0.00219742 ) 0 
( -0.00500743 0.00977638 0.000996697 ) 0 
( -0.00890874 0.0086917 0.00458151 ) 0 
( -0.00195148 0.00592209 0.00213153 ) 0 
( -0.00425288 0.00605221 0.00136601 ) 0 
( -0.00126959 0.00891919 0.000499842 ) 0 
( -0.00463033 0.0103105 0.00538812 ) 0 
( -0.0123549 0.00153255 0.00628495 ) 0 
( -0.00826309 0.00573872 0.0027678 ) 0 
( -0.00926508 0.00961151 0.0038666 ) 0 
( -0.0109648 0.0033918 0.00129443 ) 0 
( -0.00891693 0.00412827 0.00145194 ) 0 
( -0.00222552 0.00336833 0.00485318 ) 0 
( -0.00537625 0.00365222 0.00171412 ) 0 
( -0.00714267 0.00805509 0.00176045 ) 0 
( -0.00780807 0.00490656 0.00218417 ) 0 
( -0.00874416 0.00770854 0.00450295 ) 0 
( -0.012516 0.00147532 0.00503755 ) 0 
( -0.000423138 0.00956644 0.00423332 ) 0 
( -0.000754323 0.00622391 0.0081213 ) 0 
( -0.00687947 0.00316876 0.00144022 ) 0 
( -0.000998164 0.0131093 0.00207344 ) 0 
( -0.00500115 0.00685276 0.00405669 ) 0 
( -0.000166828 0.00636696 0.00119908 ) 0 
( -0.00689294 0.00110067 0.00335756 ) 0 
( -0.00172442 0.00875559 0.00490125 ) 0 
( -0.00368333 0.00382076 0.00359661 ) 0 
( -0.00394275 0.0110263 0.00560753 ) 0 
( -0.00648883 0.00151126 0.00752518 ) 0 
( -0.00711933 0.00609242 0.00484028 ) 0 
( -0.00698746 0.0113522 0.0037307 ) 0 
( -0.00314121 0.000480138 0.00806572 ) 0 
( -0.00863562 0.00872394 0.00362018 ) 0 
( -0.0042276 0.00891608 0.00434591 ) 0 
( -0.00668779 0.00216945 0.00475879 ) 0 
( -0.00554508 0.0072135 0.00179655 ) 0 
( -0.0107038 0.00797819 0.00422266 ) 0 
( -0.00810135 0.00646473 0.00477402 ) 0 
( -0.00605486 0.00323725 0.000499711 ) 0 
( -0.000646135 0.00980241 0.00280976 ) 0 
( -0.00324538 0.0129232 0.00618032 ) 0 
( -0.004502 0.00175485 0.00414249 ) 0 
( -0.00637201 0.00784234 0.000499749 ) 0 
( -0.00782926 0.00543686 0.00458359 ) 0 
( -0.00510057 0.00144142 0.000501105 ) 0 
( -0.00813638 8.87115e-05 0.000499867 ) 0 
( -0.00189105 0.0026057 0.00337456 ) 0 
( -0.00229831 0.00997733 0.00706291 ) 0 
( -0.00540438 0.00737278 0.00550224 ) 0 
( -0.00362598 0.00282957 0.00377032 ) 0 
( -0.0073832 0.00712962 0.00506183 ) 0 
( -0.00395649 0.00689719 0.00321063 ) 0 
( -0.00743819 0.00477387 0.000499694 ) 0 
( -0.0127877 0.00160374 0.00238361 ) 0 
( -0.000977805 0.00947747 0.00139314 ) 0 
( -7.51272e-05 0.00263097 0.0038084 ) 0 
( -0.00739206 0.00813401 0.000499887 ) 0 
( -0.00671054 0.00399176 0.00398519 ) 0 
( -0.00284947 0.0121715 0.00363409 ) 0 
( -0.004701 0.00889386 0.00135253 ) 0 
( -0.00661788 0.00460363 0.00581927 ) 0 
( -0.00522634 0.0107489 0.00107089 ) 0 
( -0.00413076 0.00119868 0.000499739 ) 0 
( -0.00900872 0.00302236 0.00500535 ) 0 
( -0.000766521 0.0063763 0.00712094 ) 0 
( -0.00209804 0.0110439 0.00223315 ) 0 
( -0.00680196 0.0102199 0.00350768 ) 0 
( -0.0095902 0.00013151 0.0045087 ) 0 
( -0.00127395 0.00815888 0.00680566 ) 0 
( -0.003056 0.00911748 0.00412362 ) 0 
( -0.0100177 0.00394705 0.00661138 ) 0 
( -0.00728182 0.00446319 0.00655322 ) 0 
( -0.000768587 0.00598147 0.000499812 ) 0 
( -0.011387 0.00696704 0.00617556 ) 0 
( -0.00082284 0.00712375 0.00417457 ) 0 
( -0.00986117 0.00250388 0.000499845 ) 0 
( -0.00616906 0.0118392 0.00563997 ) 0 
( -0.00237073 0.00485852 0.000499624 ) 0 
( -0.00805076 0.00139028 0.00801723 ) 0 
( -0.0118865 0.00320565 0.00618625 ) 0 
( -0.00269674 0.00708774 0.0058141 ) 0 
( -0.00321254 0.00741832 0.0039881 ) 0 
( -0.000545801 0.0133371 0.00121181 ) 0 
( -0.00676587 0.0058573 0.00373356 ) 0 
( -0.00280613 0.00415642 0.00505706 ) 0 
( -0.00415463 0.00907559 0.00668141 ) 0 
( -0.00113264 0.00621966 0.00620392 ) 0 
( -0.00665373 0.0087127 0.00463402 ) 0 
( -0.00289016 0.00969823 0.00147335 ) 0 
( -0.0037716 0.0109636 0.000499871 ) 0 
( -0.00610848 0.0097686 0.00134572 ) 0 
( -0.00223015 0.00229442 0.00736433 ) 0 
( -0.00436783 0.00466522 0.00701612 ) 0 
( -0.000455859 0.00624816 0.00383579 ) 0 
( -0.00566264 0.00440162 0.00560374 ) 0 
( -0.00189081 0.0106123 0.00346229 ) 0 
( -0.00824631 0.0072888 0.00191166 ) 0 
( -0.000278527 0.010623 0.000863963 ) 0 
( -0.0085815 0.00614384 0.000499801 ) 0 
( -0.00825862 0.00371641 0.00529452 ) 0 
( -0.00414073 0.00777664 0.0040872 ) 0 
( -0.00589638 0.00127706 0.00195064 ) 0 
( -0.00351518 0.00385094 0.00261136 ) 0 
( -0.00646174 0.00635838 0.00659488 ) 0 
( -0.00450493 0.00642064 0.00693519 ) 0 
( -0.00282562 0.00831597 0.0061787 ) 0 
( -0.00460502 0.00698421 0.00496543 ) 0 
( -0.00342879 0.00479456 0.00550959 ) 0 
( -0.00338768 0.0119226 0.00554392 ) 0 
( -0.0124767 0.000361408 0.0050233 ) 0 
( -0.0113514 0.00385868 0.00049947 ) 0 
( -0.00617903 0.004569 0.000499877 ) 0 
( -0.00253672 0.000299571 0.00647325 ) 0 
( -0.00811133 0.00672887 0.00573824 ) 0 
( -0.000364861 0.011718 0.00243142 ) 0 
( -0.000747901 0.012921 0.00399076 ) 0 
( -0.00817767 0.00769756 0.00549998 ) 0 
( -0.00513527 0.00362995 0.000499862 ) 0 
( -0.00420695 0.00201461 0.00628513 ) 0 
( -0.0079598 0.00374596 0.00756982 ) 0 
( -0.00220469 0.00068722 0.00148311 ) 0 
( -0.00615969 0.00409879 0.00221225 ) 0 
( -0.00915048 0.00972077 0.000499859 ) 0 
( -0.00667166 0.00210217 0.00376065 ) 0 
( -0.011517 0.00170005 0.00447467 ) 0 
( -0.00861215 0.00420339 0.000499823 ) 0 
( -0.0017217 0.00191171 0.0059805 ) 0 
( -0.00638242 0.00501967 0.00732518 ) 0 
( -0.00742067 0.00652967 0.00302163 ) 0 
( -0.00968004 0.00100864 0.000499522 ) 0 
( -0.00749923 0.0101293 0.00501736 ) 0 
( -0.00374001 0.00418267 0.00452697 ) 0 
( -0.00349879 0.00574895 0.00399276 ) 0 
( -0.00695349 0.0113963 0.00607374 ) 0 
( -0.00580712 0.0120211 0.00217256 ) 0 
( -0.00611397 0.00820321 0.00602219 ) 0 
( -0.00275002 0.00579012 0.000499756 ) 0 
( -0.00801435 0.00700312 0.000499678 ) 0 
( -0.00317126 0.00335373 0.0045289 ) 0 
( -0.00551901 0.00570602 0.000499621 ) 0 
( -0.00712084 0.0011875 0.0020877 ) 0 
( -0.00389335 0.00555139 0.00695982 ) 0 
( -0.00281911 0.00997004 0.00593045 ) 0 
( -0.00334948 0.00457445 0.000499769 ) 0 
( -0.00181059 0.0132269 0.00685799 ) 0 
( -0.00274103 0.00244068 0.0041651 ) 0 
( -0.00504785 0.00840728 0.00460703 ) 0 
( -0.00421248 0.00532145 0.005838 ) 0 
( -0.00691592 0.00488123 0.00357741 ) 0 
( -0.000145454 0.0029426 0.00754392 ) 0 
( -0.00271913 0.00432806 0.00603814 ) 0 
( -0.00504472 0.00544232 0.00133929 ) 0 
( -0.0026132 0.00156369 0.00627048 ) 0 
( -0.00262607 0.0115822 0.00609481 ) 0 
( -0.00270126 0.00932527 0.00321208 ) 0 
( -0.00307653 0.00556768 0.00305513 ) 0 
( -0.00312707 0.0121089 0.0067838 ) 0 
( -0.0100371 0.00477144 0.00505557 ) 0 
( -0.00820121 0.00708694 0.00392816 ) 0 
( -0.000823849 0.00187752 0.000499608 ) 0 
( -0.0011702 0.00389328 0.00487005 ) 0 
( -0.0126264 0.00012387 0.00149464 ) 0 
( -0.0100508 0.00878681 0.00209544 ) 0 
( -0.0101785 0.00231739 0.0022358 ) 0 
( -0.00475498 0.00975898 0.00356277 ) 0 
( -0.012221 0.00242276 0.000499747 ) 0 
( -0.0101832 0.00266236 0.00425878 ) 0 
( -0.00402455 0.000349428 0.00545464 ) 0 
( -0.00320372 0.0111669 0.00359531 ) 0 
( -0.000416 8.79994e-05 0.00434024 ) 0 
( -0.00137789 0.00348243 0.0010555 ) 0 
( -0.00743007 0.00270852 0.00416501 ) 0 
( -0.00721346 0.0025468 0.00214842 ) 0 
( -0.00756421 0.00111118 0.00718964 ) 0 
( -0.0043199 0.0106908 0.00451722 ) 0 
( -0.0109066 2.4271e-05 0.00464101 ) 0 
( -0.012613 0.00116529 0.000499737 ) 0 
( -0.00315018 0.00205079 0.00796858 ) 0 
( -0.00566409 0.00919324 0.00455755 ) 0 
( -0.00658416 0.0116135 0.00472771 ) 0 
( -0.00473068 0.000428413 0.00211301 ) 0 
( -0.00212836 0.00545045 0.00126787 ) 0 
( -0.0095843 0.00112316 0.00486318 ) 0 
( -0.00415633 0.00337231 0.00495141 ) 0 
( -0.00510609 0.00956602 0.00197203 ) 0 
( -0.00587668 0.0102482 0.00049971 ) 0 
( -0.0105012 0.0025063 0.00130859 ) 0 
( -0.00161038 0.00256424 0.00148332 ) 0 
( -0.00912448 0.00508191 0.00123508 ) 0 
( -0.00230791 0.00259785 0.0064104 ) 0 
( -0.00235086 0.00508162 0.00782235 ) 0 
( -0.00387883 0.0127743 0.000946733 ) 0 
( -0.00313885 0.00457859 0.00318726 ) 0 
( -0.00234452 0.00666771 0.00665026 ) 0 
( -0.00219288 0.00287651 0.00223363 ) 0 
( -0.00443931 0.000463992 0.00637552 ) 0 
( -0.0133332 0.000672335 0.00194111 ) 0 
( -0.0133369 0.000596023 0.000889644 ) 0 
( -3.46979e-05 0.00342611 0.00299042 ) 0 
( -0.0121855 0.00204676 0.00142959 ) 0 
( -0.0108238 0.00433561 0.00159269 ) 0 
( -0.00604138 0.00925793 0.00363125 ) 0 
( -0.00989098 0.00405531 0.00123941 ) 0 
( -0.00917906 0.00485767 0.00440602 ) 0 
( -0.00491677 0.00601393 0.00539891 ) 0 
( -0.000697082 0.00690814 0.00562435 ) 0 
( -0.0114401 0.00574171 0.00386986 ) 0 
( -0.00476898 0.00961483 0.006106 ) 0 
( -0.00419336 0.0084878 0.00211221 ) 0 
( -0.00801271 0.0106704 0.00575321 ) 0 
( -0.00334371 0.00424728 0.00821292 ) 0 
( -0.00568431 0.00826667 0.00310278 ) 0 
( -0.0118193 0.000705783 0.000927957 ) 0 
( -0.00232953 0.00342773 0.00584578 ) 0 
( -0.00756165 0.00021781 0.00341358 ) 0 
( -0.0116977 0.00535152 0.00606251 ) 0 
( -0.00252141 0.0114841 0.00428191 ) 0 
( -0.000656431 0.00268922 0.0017558 ) 0 
( -0.0105479 0.00815663 0.00325117 ) 0 
( -0.00701458 0.00707576 0.00049959 ) 0 
( -0.00189404 0.0112904 0.00503612 ) 0 
( -0.000321086 0.00543084 0.00456727 ) 0 
( -0.00444751 0.00322103 0.00335583 ) 0 
( -0.00134978 0.00963593 0.00461121 ) 0 
( -0.00632642 0.000651051 0.00265235 ) 0 
( -0.00609777 0.00136895 0.000499684 ) 0 
( -0.00489513 0.000364909 0.00824991 ) 0 
( -0.00133421 0.00577676 0.00315054 ) 0 
( -0.00944136 0.00355674 0.00732883 ) 0 
( -0.00338603 0.00916923 0.00506609 ) 0 
( -0.00332934 0.00115891 0.0031634 ) 0 
( -0.0121263 0.0027406 0.00236924 ) 0 
( -0.00407986 0.0111046 0.00175585 ) 0 
( -0.0016157 0.012722 0.00537757 ) 0 
( -0.00680369 0.00775148 0.00440325 ) 0 
( -0.00648311 0.00204369 0.00168565 ) 0 
( -0.00101753 0.0133107 0.00592127 ) 0 
( -0.00256337 0.00572764 0.00708941 ) 0 
( -0.00392576 0.0101375 0.00623005 ) 0 
( -0.00528718 0.00157723 0.00759881 ) 0 
( -0.00608002 0.0118743 0.00390074 ) 0 
( -0.00984381 0.00172041 0.00721754 ) 0 
( -0.00570457 0.00470802 0.00149766 ) 0 
( -0.00305307 0.00287143 0.00543772 ) 0 
( -0.00778685 0.0108439 0.00149526 ) 0 
( -0.0106569 0.00577486 0.00451202 ) 0 
( -0.00448322 0.00841998 0.000499657 ) 0 
( -0.0116305 0.0016517 0.00546677 ) 0 
( -0.00639187 0.00997885 0.00510598 ) 0 
( -0.00191026 0.00435653 0.00432633 ) 0 
( -0.00148096 0.0115949 0.00694513 ) 0 
( -0.00247905 0.00220649 0.00100959 ) 0 
( -0.00910787 0.00182924 0.000499727 ) 0 
( -0.00221917 0.00839425 0.00703051 ) 0 
( -0.00307157 0.00649119 0.00343824 ) 0 
( -0.00983451 0.00902851 0.000911306 ) 0 
( -0.00076851 0.00939114 0.00606923 ) 0 
( -0.00476292 0.0106825 0.00630639 ) 0 
( -0.0037769 0.0098082 0.00438029 ) 0 
( -0.00118183 0.0105992 0.00543731 ) 0 
( -0.00845629 0.00121467 0.0067431 ) 0 
( -0.00857849 0.00570679 0.00179275 ) 0 
( -0.00217551 0.00513944 0.00625187 ) 0 
( -0.0119942 0.000840874 0.00429062 ) 0 
( -0.00688776 0.00963043 0.00431072 ) 0 
( -0.0105428 0.00119767 0.00673092 ) 0 
( -0.0024701 0.00247967 0.0085634 ) 0 
( -0.00548328 0.000571029 0.00508285 ) 0 
( -0.00811774 0.00576166 0.0054846 ) 0 
( -0.00592543 0.00286985 0.00142049 ) 0 
( -0.00742978 0.00482231 0.0052781 ) 0 
( -0.00969279 0.00174401 0.00387675 ) 0 
( -0.00819349 0.00346666 0.00432856 ) 0 
( -0.00682613 0.00997728 0.00200991 ) 0 
( -0.00134724 0.0117028 0.00207628 ) 0 
( -0.00395231 0.00203746 0.00324343 ) 0 
( -0.00801372 0.00218399 0.00354521 ) 0 
( -0.00324953 0.00817956 0.00199418 ) 0 
( -0.00864756 0.00293177 0.00687228 ) 0 
( -0.00138003 0.00112402 0.00780231 ) 0 
( -0.000971021 0.00421268 0.000499838 ) 0 
( -0.00155085 0.00466401 0.00825254 ) 0 
( -0.0117964 0.00625054 0.00560712 ) 0 
( -0.00211247 0.00138476 0.00522588 ) 0 
( -0.00396683 0.0105092 0.00359964 ) 0 
( -0.00948353 0.00714093 0.00662386 ) 0 
( -0.00668386 0.000978483 0.00670233 ) 0 
( -0.00595139 0.00507589 0.00385623 ) 0 
( -0.00907028 0.00202561 0.0066629 ) 0 
( -0.0112563 0.000823694 0.00275082 ) 0 
( -0.000124635 0.0061619 0.00611346 ) 0 
( -0.00917047 0.00361003 0.00402089 ) 0 
( -0.00406668 0.00658261 0.00220883 ) 0 
( -0.00132612 0.00631294 0.00487292 ) 0 
( -0.0122539 0.00231267 0.00327035 ) 0 
( -0.00895954 0.00362432 0.00622216 ) 0 
( -0.00515585 0.00921498 0.0071407 ) 0 
( -0.00129903 0.0121491 0.0061332 ) 0 
( -0.0107295 0.00655822 0.00108978 ) 0 
( -0.00640077 0.00645497 0.00192889 ) 0 
( -0.00813203 0.00998164 0.000499585 ) 0 
( -0.00876322 0.0057664 0.00443522 ) 0 
( -0.000844474 0.00848384 0.00129307 ) 0 
( -0.0081602 0.0052478 0.00363401 ) 0 
( -0.00769972 0.00286086 0.00718463 ) 0 
( -0.00430395 0.0119035 0.00119463 ) 0 
( -0.00111694 0.00777388 0.00589638 ) 0 
( -0.0122376 0.00533632 0.00709233 ) 0 
( -0.0123111 0.00516301 0.00049965 ) 0 
( -0.0101124 0.00646637 0.00253195 ) 0 
( -0.0122883 0.00521747 0.00379439 ) 0 
( -0.00771117 0.0108979 0.000499767 ) 0 
( -0.0112639 0.00536055 0.00136319 ) 0 
( -0.00299902 0.00243093 0.00183368 ) 0 
( -0.00997061 0.00428919 0.00418226 ) 0 
( -0.0106105 0.00594318 0.00334924 ) 0 
( -0.00040104 0.00853821 0.0064442 ) 0 
( -0.00177021 0.00384415 0.00772478 ) 0 
( -0.00762333 0.00585856 0.000499621 ) 0 
( -0.00589587 0.00811708 0.00505021 ) 0 
( -0.00249416 0.00508542 0.00530575 ) 0 
( -0.00174525 6.63267e-06 0.000499811 ) 0 
( -0.00683996 0.00800237 0.00667976 ) 0 
( -0.0112833 0.00286062 0.000499866 ) 0 
( -0.000105521 0.0125588 0.0016602 ) 0 
( -0.00518327 0.00715803 0.000499739 ) 0 
( -0.00542031 0.00811263 0.000678991 ) 0 
( -0.0101515 0.00244247 0.00328396 ) 0 
( -0.00016063 0.00380519 0.00484433 ) 0 
( -0.00815238 0.00929573 0.00295717 ) 0 
( -0.00683516 0.00516988 0.00453133 ) 0 
( -0.00894215 0.00766049 0.00127362 ) 0 
( -0.00640266 0.0116994 0.00297058 ) 0 
( -0.00323069 0.00178832 0.000499728 ) 0 
( -0.00568725 0.0120784 0.00479722 ) 0 
( -3.61061e-06 0.00193375 0.00585552 ) 0 
( -0.0017587 0.00858521 0.00592101 ) 0 
( -0.00222434 0.00341705 0.00385455 ) 0 
( -0.000372459 0.00326221 0.00565662 ) 0 
( -0.00750649 0.0100299 0.00274738 ) 0 
( -0.00692554 0.00371605 0.00280327 ) 0 
( -0.00517719 0.00858566 0.00226159 ) 0 
( -0.0117802 0.00422409 0.00132502 ) 0 
( -0.000161006 0.0073362 0.00289014 ) 0 
( -0.00685338 0.0114567 0.000499807 ) 0 
( -0.00195587 0.00164102 0.00165067 ) 0 
( -0.00432405 0.00535609 0.000499879 ) 0 
( -0.011833 0.00618121 0.00660378 ) 0 
( -0.00139478 0.00482107 0.0036064 ) 0 
( -0.00137119 0.00705747 0.00669932 ) 0 
( -0.00459336 0.00380888 0.00416394 ) 0 
( -0.000519442 0.00449128 0.0065954 ) 0 
( -0.00681919 0.00934353 0.0029852 ) 0 
( -0.00911051 0.00625076 0.00262776 ) 0 
( -0.00483224 0.000610405 0.00728307 ) 0 
( -0.0048963 0.00793392 0.00155227 ) 0 
( -0.000614559 0.0052539 0.00121505 ) 0 
( -0.000166913 0.00797235 0.00565409 ) 0 
( -0.00784904 0.00333819 0.00264841 ) 0 
( -0.0077081 0.00263147 0.00128368 ) 0 
( -0.00697271 0.0036664 0.00719576 ) 0 