/*--------------------------------*- C++ -*----------------------------------*\
| =========                 |                                                 |
| \\      /  F ield         | OpenFOAM: The Open Source CFD Toolbox           |
|  \\    /   O peration     | Version:  2506                                  |
|   \\  /    A nd           | Website:  www.openfoam.com                      |
|    \\/     M anipulation  |                                                 |
\*---------------------------------------------------------------------------*/
FoamFile
{
    version     2.0;
    format      ascii;
    arch        "LSB;label=32;scalar=64";
    class       volScalarField;
    location    "0.003";
    object      p;
}
// * * * * * * * * * * * * * * * * * * * * * * * * * * * * * * * * * * * * * //

dimensions      [0 2 -2 0 0 0 0];

internalField   nonuniform List<scalar> 
512
(
4.35662
-7.72422
-9.88597
-18.4105
-39.1338
-24.5547
3.29344
18.7012
27.4205
33.5805
40.0705
47.5609
53.7839
58.6536
64.1982
70.7562
77.9662
86.2026
89.9639
87.8291
75.0094
41.3306
31.0639
45.3201
56.2955
59.682
64.2698
72.8406
83.8732
90.3905
74.0196
31.3661
3.36739
-2.50419
-4.05875
-16.6146
-38.5185
-22.6517
5.02182
19.6576
28.1758
34.5897
41.0491
48.0453
53.7212
58.2781
63.6428
69.82
75.7058
81.3654
86.8081
90.6277
79.5412
44.7712
32.9183
45.7398
55.7462
58.1388
62.419
70.6568
80.7887
86.6029
70.5478
27.5916
2.25601
3.41012
4.91586
-14.2266
-35.7841
-17.9853
7.58314
20.8505
29.2966
36.1771
42.7527
49.1047
53.8082
57.9173
63.1287
68.646
73.5262
78.1286
83.6082
87.9968
78.9767
51.9212
40.1408
48.5702
54.947
55.3746
59.1911
66.3648
74.0603
78.1453
63.8564
26.083
2.68383
10.0994
11.2434
-13.6655
-26.7017
-9.87624
10.398
21.8019
30.2537
37.8698
44.6247
50.0532
53.6713
57.653
63.1559
68.4524
72.6398
76.1292
79.8782
80.6683
73.6181
61.2549
52.3599
51.8909
54.0723
54.7596
56.6081
59.8737
63.8044
66.5254
54.9252
22.2386
5.25863
6.71508
6.21864
-3.72296
-7.0821
1.48991
13.2112
22.4955
30.4993
38.3724
45.4862
50.257
53.0837
57.1706
63.5505
69.9946
73.1061
74.0671
76.9307
78.7607
76.8005
72.2137
60.1077
47.296
52.8292
59.9589
55.9183
49.4557
48.3921
50.4768
43.4374
21.5105
7.41075
5.51707
6.31944
4.59577
4.55384
9.03571
15.9535
22.9952
29.9696
37.6546
44.9304
49.8669
53.4097
57.6202
63.0767
68.9603
71.746
72.5092
76.9001
83.1213
85.9894
79.2533
59.5733
47.6977
60.629
71.6504
59.131
33.4454
26.3817
33.0707
31.9647
18.8654
7.64343
5.71869
7.72622
9.34016
10.9311
14.0677
18.5873
23.5097
28.9519
36.2929
43.9956
49.4798
54.0193
58.3509
62.1819
66.9999
70.2657
72.5257
78.5505
87.4174
93.3594
83.0571
56.1729
54.2115
73.719
82.0913
62.0876
22.2111
6.05559
15.0215
21.6747
15.6903
5.5159
4.91834
8.48098
11.2308
13.5682
16.858
21.0597
24.3006
27.8468
34.9901
43.1878
48.5649
52.6893
57.7613
63.038
67.2417
69.8318
73.0992
79.9516
89.1662
94.7069
82.4542
57.5094
63.2334
85.4078
87.0348
55.5035
23.2054
3.37527
1.04735
11.8173
12.7837
2.06967
0.708135
-0.919468
-14.4981
-36.4517
-21.8113
4.53419
19.6264
29.179
35.865
42.0611
49.4289
56.357
62.1113
67.3845
71.3607
76.4056
85.9657
89.0516
82.7695
73.8876
49.9437
37.1352
48.3047
56.0641
55.2011
59.2159
68.9558
77.8377
80.0304
62.7591
21.6557
-0.615958
1.7717
2.60014
-12.7415
-34.0622
-18.9938
6.04804
20.5852
30.314
36.8787
42.5907
49.8952
56.6415
61.7449
66.3631
69.9347
74.321
81.8046
86.1413
85.4781
78.4719
55.3303
37.8267
47.2657
54.7111
52.2463
56.4818
66.3979
75.2364
78.5588
62.6494
20.5465
0.54042
5.61955
4.39908
-11.9474
-25.3805
-12.9184
7.45583
21.4408
31.4945
38.7309
44.9914
51.8414
57.3255
61.6272
65.0852
67.2535
72.2403
79.1565
84.8148
87.4514
80.1582
56.712
42.0536
51.6472
54.7199
44.623
50.6517
63.2141
70.2604
72.6621
57.6783
17.3798
5.25875
10.1647
6.13076
-7.82541
-13.9706
-5.52652
8.79455
22.1385
33.3029
41.4881
47.4421
53.429
57.3469
61.32
65.5961
67.0511
71.599
78.5828
86.0411
85.9998
69.4459
52.2532
49.9371
56.6582
54.6527
43.0575
48.3154
58.5175
60.8732
60.2876
46.9576
16.3093
11.3266
9.89248
7.80322
1.21186
-2.51461
1.32023
10.0838
21.6819
33.6435
43.3008
49.1938
51.9028
54.1058
58.9301
65.9786
76.0205
79.3218
75.507
79.6245
77.2977
66.4765
59.9251
55.4486
51.3309
52.8805
55.0921
51.6483
46.9947
44.5453
44.0825
37.0771
21.6751
10.3651
7.64341
8.63293
7.6612
6.71558
7.48343
11.6006
21.1636
32.4079
41.2103
46.367
50.2158
56.7148
61.1637
63.3507
72.7272
76.4128
70.6413
74.5575
80.655
78.4523
70.2649
58.9705
52.5032
61.574
70.9322
59.0984
28.8604
21.329
30.1974
31.8842
21.4222
6.67708
5.64305
10.1487
11.9905
12.2617
11.8869
13.4563
21.0782
30.9509
39.0025
44.2021
48.8493
57.5043
63.1242
61.8357
66.8771
71.7575
71.5378
76.0079
83.3803
87.0084
78.4865
58.8306
58.0757
73.7265
78.6558
58.1824
22.1637
7.21643
17.2913
25.6778
18.2633
-0.184856
1.0265
10.2921
13.0006
13.5424
14.3774
17.135
22.9045
30.2442
37.444
42.5422
46.5552
53.3616
60.2448
64.269
67.993
71.0847
73.4354
78.1419
84.724
87.9272
78.4318
63.0725
67.0231
82.1601
81.2038
53.6173
26.4084
7.1553
5.96602
19.351
17.7246
)
;

boundaryField
{
    wall
    {
        type            zeroGradient;
    }
    outlet
    {
        type            cyclic;
    }
    inlet
    {
        type            cyclic;
    }
    procBoundary1to0
    {
        type            processor;
        value           nonuniform List<scalar> 
256
(
1.11808
-19.3172
-18.0142
-19.1564
-36.7848
-25.8527
3.08354
21.2025
26.6871
28.742
37.4956
47.8415
51.7592
53.8469
61.0999
70.7243
77.703
81.2535
84.1826
88.3771
78.1146
43.3995
31.6635
44.6683
56.6408
62.025
67.6333
76.4563
88.5481
97.2571
83.514
39.0199
6.66136
-9.82779
-15.2414
-21.2631
-38.1819
-23.3308
5.79932
21.9693
27.4438
30.442
39.0839
48.1349
51.015
53.3562
60.9221
69.8902
75.6209
78.6604
82.6049
87.8043
78.4277
46.8029
35.7019
46.469
56.5193
61.0342
66.0693
74.0957
85.118
92.825
78.2301
35.7626
6.4816
-2.52511
-6.25583
-18.2404
-35.8258
-18.5591
8.88029
22.8554
28.6407
33.3023
41.9946
48.7298
49.5542
52.5585
61.1881
69.5353
73.1879
74.8124
78.5374
81.9141
75.2573
57.142
46.1348
49.8112
56.2495
59.674
63.3522
69.3474
77.9456
84.1207
70.6358
31.9314
4.31397
4.45577
3.68777
-19.0792
-29.2415
-9.49657
12.5171
23.2588
29.0638
35.9992
45.1283
49.3279
48.0941
52.0632
62.1388
70.4044
71.8561
70.8963
74.3291
77.8833
74.5271
65.107
55.5813
52.6028
55.871
59.2456
60.5438
62.4509
67.0692
71.3141
61.1346
29.8474
0.41061
7.0004
9.64503
-11.6848
-16.5917
0.538099
17.0726
23.7168
27.6959
36.5835
46.8897
49.6015
47.5056
52.3305
62.8858
70.5755
70.9843
69.1851
73.4138
79.3739
80.2843
74.8448
61.0035
49.3402
55.192
62.4795
58.5733
52.0987
52.5483
57.0811
50.5677
23.1334
-2.4059
1.60712
5.43741
1.79017
2.90517
11.3436
20.4842
24.2401
26.6583
36.0212
46.9538
49.4052
47.7423
53.4501
63.5144
69.4887
69.4502
69.1867
75.3897
85.0942
92.1455
84.5599
56.5808
45.4526
61.1637
73.1089
60.7532
35.7996
31.0659
41.0927
38.8802
14.6625
3.14777
3.91697
6.94105
8.59117
11.4445
17.4178
23.8744
24.8823
24.8961
34.4198
46.2934
49.1741
48.4762
55.0957
64.6809
68.2501
67.0088
69.2994
78.3533
90.36
98.9524
88.6299
54.442
49.6662
72.3335
83.9136
64.47
24.1231
7.99753
17.5259
22.1407
11.6051
0.89922
4.98861
8.00666
10.7997
14.7563
21.3474
29.0695
27.3231
20.2117
30.6967
45.7869
49.1359
48.8255
55.9435
65.4863
67.7319
65.6115
69.5171
80.3119
93.1526
101.991
90.0503
54.4473
55.6167
82.6308
89.5057
58.0053
24.8638
5.56691
4.35493
10.6407
4.75464
)
;
    }
    procBoundary1to2
    {
        type            processor;
        value           nonuniform List<scalar> 
256
(
16.296
12.1665
-8.17632
-22.9721
-28.5144
-16.2486
5.45779
22.112
32.3355
37.7209
43.7829
51.8653
58.885
64.3905
70.7888
73.336
70.8091
77.7462
83.8027
79.8369
77.6003
62.2611
46.8932
57.2569
60.2082
46.3696
51.296
67.8456
74.5912
62.5536
40.8467
19.6659
14.1629
11.2013
-8.15504
-25.8468
-25.1038
-10.7446
7.16474
22.9792
35.0541
39.8542
42.2281
51.0499
59.2997
64.4527
70.9998
72.0462
67.3058
73.2034
81.3392
82.8448
82.6935
68.0562
45.599
53.71
57.278
42.2699
47.9417
62.2025
67.2095
64.3525
51.2504
25.7475
13.4172
16.6016
-2.32477
-23.5039
-20.2171
-7.47159
6.94116
23.0451
35.0728
41.6237
47.3436
56.3448
61.3439
63.964
67.6741
64.7089
66.9562
75.9171
81.5592
83.323
82.8634
68.5984
51.3721
54.9662
49.933
33.7636
43.5959
60.1469
64.8312
62.693
48.7604
18.9581
12.6575
20.1402
10.6762
-9.93477
-14.2059
-7.511
6.08208
23.8994
39.7756
48.2284
49.7066
56.2588
59.9289
59.7424
66.1377
69.7867
72.3653
76.9192
80.3809
78.2787
72.7391
61.9242
54.7364
54.6137
47.1857
34.7906
44.4346
61.1861
61.4031
49.8938
36.2287
14.287
14.7404
14.7405
13.4191
5.97729
-1.72729
-0.657403
3.71466
18.4163
39.1423
54.1579
58.0306
51.5046
48.6952
54.9993
64.9867
75.7206
78.8783
76.4709
79.3862
75.4906
64.1024
54.5238
53.7672
56.173
53.0892
46.765
46.8725
47.116
42.8665
42.0436
36.4164
22.4006
7.01202
6.01333
11.4343
11.8365
11.3067
7.58026
2.76191
15.3206
35.3594
48.334
49.3185
46.1878
54.4874
62.5071
64.3496
74.6896
79.9441
75.7329
75.4765
73.82
70.0586
61.0247
57.1625
57.749
59.7798
64.3935
56.4643
30.5954
22.9097
33.9936
38.9766
25.6322
-0.162248
2.23993
14.2083
17.3543
15.3018
9.955
5.31668
15.2176
32.1959
44.6836
45.6547
42.0594
54.0375
65.3526
65.8943
69.5856
71.4263
71.7824
74.5485
77.704
80.0883
74.0522
62.7129
62.5566
70.101
69.0521
51.2644
29.0923
16.6858
24.597
34.1404
23.4566
-4.00447
0.101575
12.6703
15.7677
15.0207
13.78
14.9276
20.2055
29.9614
40.7554
42.694
39.0731
49.5177
63.2512
69.267
71.056
70.7624
72.202
76.3096
80.6628
80.1866
74.6456
73.5196
72.5864
69.0648
64.2727
49.7025
31.7867
22.2212
22.9893
23.7208
14.3023
)
;
    }
}


// ************************************************************************* //
