/*--------------------------------*- C++ -*----------------------------------*\
| =========                 |                                                 |
| \\      /  F ield         | OpenFOAM: The Open Source CFD Toolbox           |
|  \\    /   O peration     | Version:  2506                                  |
|   \\  /    A nd           | Website:  www.openfoam.com                      |
|    \\/     M anipulation  |                                                 |
\*---------------------------------------------------------------------------*/
FoamFile
{
    version     2.0;
    format      ascii;
    arch        "LSB;label=32;scalar=64";
    class       volScalarField;
    location    "0.1";
    object      Ksl;
}
// * * * * * * * * * * * * * * * * * * * * * * * * * * * * * * * * * * * * * //

dimensions      [1 -3 -1 0 0 0 0];

internalField   nonuniform List<scalar> 
1152
(
126516
226439
323210
164535
141610
235276
129135
165629
133036
144753
154946
257430
230739
267873
163585
152358
136678
135856
115596
93401.8
185655
128581
151042
187756
201306
76600
113775
136413
129403
134249
124543
162770
630919
180789
233213
278060
242433
243918
255766
213471
204203
339954
335267
314932
262970
128192
189665
380171
231086
211609
159368
170143
185210
313171
224190
228785
331145
205251
238002
170416
162589
316982
198986
235717
301334
219850
172982
249764
300481
291430
212597
282318
138699
306922
190760
259309
219988
377346
357520
197219
155412
484233
235184
251800
209502
280080
321965
345233
162521
269386
167589
239046
206427
246621
307095
362312
77942.2
72854.3
106516
137403
122330
100619
136717
142991
33466.6
59269.3
124749
82611.8
64138.7
94194
139379
61674.2
0
0
0
0
0
0
0
0
0
0
0
0
0
0
0
0
0
0
0
0
0
0
0
0
0
0
0
0
0
0
0
0
0
0
0
0
0
0
0
0
0
0
0
0
0
0
0
0
0
0
0
0
0
0
0
0
0
0
0
0
0
0
0
0
0
0
0
0
0
0
0
0
0
0
0
0
0
0
0
0
0
0
0
0
0
0
0
0
0
0
0
0
0
0
0
0
0
0
0
0
0
0
0
0
0
0
0
0
0
0
0
0
0
0
0
0
0
0
0
0
0
0
0
0
0
0
0
0
0
0
0
0
0
0
0
0
0
0
0
0
0
0
0
0
0
0
0
0
0
0
0
0
0
0
0
0
0
0
0
0
0
0
0
0
0
0
0
0
0
0
0
0
0
0
0
0
0
0
0
0
0
0
0
0
0
0
0
0
0
0
0
0
0
0
0
0
0
0
0
0
0
0
0
0
0
0
0
0
0
0
0
0
0
0
0
0
0
0
0
0
0
0
0
0
0
0
0
0
0
0
0
0
0
0
0
0
0
0
0
0
0
0
0
0
0
0
0
0
0
0
0
0
0
0
0
0
0
0
0
0
0
0
0
0
0
0
0
0
0
0
0
0
128442
207977
185203
138110
216336
144112
122280
215584
131327
163605
158668
152832
168259
155516
203862
141845
324244
98613.4
170826
157242
153480
159396
130341
210880
187986
107999
104606
147582
120692
151708
112353
107429
334685
237748
353931
157375
339285
311044
201999
199676
166060
148313
202476
230360
217390
320275
180913
247295
125130
307087
164084
241006
277686
161980
293312
255322
307150
290569
164094
111978
230683
190007
319909
134008
213677
197912
185971
235206
246829
219982
234355
315488
255667
263366
367682
225179
200549
245262
222884
217715
86446.3
282511
150518
382063
313374
331778
234673
150250
302880
209310
290677
336884
217542
249600
141529
147951
83209
91495.3
81166.7
83496.9
122148
99757.6
86637.2
133278
76929.7
41015.9
98069.3
102523
65095.6
59869.8
80785.8
150835
0
0
0
0
0
0
0
0
3488.54
0
0
0
0
0
0
1221.93
0
0
0
0
0
0
0
0
0
0
0
0
0
0
0
0
0
0
0
0
0
0
0
0
0
0
0
0
0
0
0
0
0
0
0
0
0
0
0
0
0
0
0
0
0
0
0
0
0
0
0
0
0
0
0
0
0
0
0
0
0
0
0
0
0
0
0
0
0
0
0
0
0
0
0
0
0
0
0
0
0
0
0
0
0
0
0
0
0
0
0
0
0
0
0
0
0
0
0
0
0
0
0
0
0
0
0
0
0
0
0
0
0
0
0
0
0
0
0
0
0
0
0
0
0
0
0
0
0
0
0
0
0
0
0
0
0
0
0
0
0
0
0
0
0
0
0
0
0
0
0
0
0
0
0
0
0
0
0
0
0
0
0
0
0
0
0
0
0
0
0
0
0
0
0
0
0
0
0
0
0
0
0
0
0
0
0
0
0
0
0
0
0
0
0
0
0
0
0
0
0
0
0
0
0
0
0
0
0
0
0
0
0
0
0
0
0
0
0
0
0
0
0
0
0
0
0
0
0
0
0
0
0
0
0
0
0
0
0
0
0
0
0
0
0
0
0
0
0
0
0
0
0
0
0
0
156659
109423
135703
196561
140305
177449
185669
206278
162346
119387
137094
148365
139306
223279
135409
184546
240268
117945
75615.5
199403
206626
190500
71222.9
161976
89878.7
126199
216472
100660
55274.4
153583
70901.6
108769
127835
262157
257690
223584
192886
150455
190690
335841
157955
195154
266303
255539
205454
238492
257169
143967
251587
96274.3
189820
213144
161372
290857
177269
362591
224554
235086
251760
176839
185685
168395
299555
307853
224008
188506
248552
277388
254621
204577
227418
189639
292169
189762
217927
318976
122768
426065
138246
689173
207721
239863
224505
210372
260139
307910
261909
337316
230064
176462
336649
217659
200120
241433
355935
358307
175729
90440.7
88244.6
145078
112767
79113.3
79502.8
81355.4
159727
42452.4
70562.4
81144.2
98271.3
130591
61694.5
108498
429.188
0
0
0
0
0
0
0
233.473
0
0
0
0
0
0
0
0
0
0
0
0
0
0
0
0
0
0
0
0
0
0
0
0
0
0
0
0
0
0
0
0
0
0
0
0
0
0
0
0
0
0
0
0
0
0
0
0
0
0
0
0
0
0
0
0
0
0
0
0
0
0
0
0
0
0
0
0
0
0
0
0
0
0
0
0
0
0
0
0
0
0
0
0
0
0
0
0
0
0
0
0
0
0
0
0
0
0
0
0
0
0
0
0
0
0
0
0
0
0
0
0
0
0
0
0
0
0
0
0
0
0
0
0
0
0
0
0
0
0
0
0
0
0
0
0
0
0
0
0
0
0
0
0
0
0
0
0
0
0
0
0
0
0
0
0
0
0
0
0
0
0
0
0
0
0
0
0
0
0
0
0
0
0
0
0
0
0
0
0
0
0
0
0
0
0
0
0
0
0
0
0
0
0
0
0
0
0
0
0
0
0
0
0
0
0
0
0
0
0
0
0
0
0
0
0
0
0
0
0
0
0
0
0
0
0
0
0
0
0
0
0
0
0
0
0
0
0
0
0
0
0
0
0
0
0
0
0
0
0
0
0
0
0
0
0
0
0
0
0
0
0
0
)
;

boundaryField
{
    inlet
    {
        type            zeroGradient;
    }
    outlet
    {
        type            zeroGradient;
    }
    wall
    {
        type            zeroGradient;
    }
    procBoundary2to0
    {
        type            processor;
        value           nonuniform List<scalar> 
192
(
174064
75628.1
155518
102973
128967
120187
129736
127799
177247
343181
338147
161026
153413
319442
307629
379840
291530
318250
473311
313355
381923
150775
204356
149299
61768.5
76575.8
91659.9
106049
0
0
1057.5
600.652
0
0
0
0
0
0
0
0
0
0
0
0
0
0
0
0
0
0
0
0
0
0
0
0
0
0
0
0
0
0
0
0
0
0
0
0
0
0
0
0
0
0
0
0
0
0
0
0
0
0
0
0
0
0
0
0
0
0
0
0
0
0
0
0
117975
179920
219721
131988
107725
212025
296338
107809
297317
172330
149642
182660
270874
351700
255204
302057
177218
231201
175423
277452
202454
192421
259071
207814
69712.9
172563
97813.7
109464
0
683.704
6525.47
0
0
0
0
0
0
0
0
0
0
0
0
0
0
0
0
0
0
0
0
0
0
0
0
0
0
0
0
0
0
0
0
0
0
0
0
0
0
0
0
0
0
0
0
0
0
0
0
0
0
0
0
0
0
0
0
0
0
0
0
0
0
0
0
0
)
;
    }
    procBoundary2to3
    {
        type            processor;
        value           nonuniform List<scalar> 
192
(
200970
110698
76427
291183
110627
139867
144826
106035
215659
329088
308080
140212
335668
254831
357844
476955
156945
190118
233874
243457
196684
217530
219383
173149
90736.4
96304.9
119501
78821
0
0
0
0
0
0
0
0
0
0
0
0
0
0
0
0
0
0
0
0
0
0
0
0
0
0
0
0
0
0
0
0
0
0
0
0
0
0
0
0
0
0
0
0
0
0
0
0
0
0
0
0
0
0
0
0
0
0
0
0
0
0
0
0
0
0
0
0
126616
190335
162179
155941
152236
103476
118107
205181
258998
367645
315258
222084
212823
317142
387392
299374
259236
229831
183941
241185
229095
317671
138212
351639
78882.4
99904.3
41625
51166.1
0
0
0
0
0
0
0
0
0
0
0
0
0
0
0
0
0
0
0
0
0
0
0
0
0
0
0
0
0
0
0
0
0
0
0
0
0
0
0
0
0
0
0
0
0
0
0
0
0
0
0
0
0
0
0
0
0
0
0
0
0
0
0
0
0
0
0
0
)
;
    }
}


// ************************************************************************* //
