/*--------------------------------*- C++ -*----------------------------------*\
| =========                 |                                                 |
| \\      /  F ield         | OpenFOAM: The Open Source CFD Toolbox           |
|  \\    /   O peration     | Version:  2506                                  |
|   \\  /    A nd           | Website:  www.openfoam.com                      |
|    \\/     M anipulation  |                                                 |
\*---------------------------------------------------------------------------*/
FoamFile
{
    version     2.0;
    format      ascii;
    arch        "LSB;label=32;scalar=64";
    class       volVectorField;
    location    "0.1";
    object      U;
}
// * * * * * * * * * * * * * * * * * * * * * * * * * * * * * * * * * * * * * //

dimensions      [0 1 -1 0 0 0 0];

internalField   nonuniform List<vector> 
1152
(
(0.00153972 -0.00179037 0.0197901)
(-0.000229674 -0.00135385 0.00964992)
(0.000761176 -0.000320093 0.00597927)
(0.00139142 -0.00139911 0.0130526)
(0.000682271 9.50767e-05 0.0179854)
(-1.68773e-05 0.00109919 0.00932849)
(-0.000238475 0.00126395 0.0193671)
(0.000739457 -0.00213178 0.0141597)
(0.00172297 0.000157973 0.0185218)
(0.00132835 -0.000418543 0.0152077)
(-0.00254893 -0.00092228 0.0145999)
(9.05863e-05 -0.000802079 0.00765601)
(-0.00135831 -0.00078925 0.0096144)
(0.00114864 -0.001158 0.00772789)
(0.000377017 -0.00237934 0.0145464)
(0.00111862 -0.00161519 0.0163494)
(0.000515366 0.000617562 0.0464692)
(0.00216757 0.00435659 0.049454)
(0.000338462 0.0012786 0.0582316)
(-0.000715773 0.00181371 0.0659814)
(-0.000473218 0.00203536 0.0386423)
(-0.000269288 -8.95891e-05 0.0507496)
(-0.000329882 -0.000978602 0.0463749)
(-0.000529085 1.46276e-05 0.0372596)
(-0.00105017 0.00287124 0.0333097)
(-0.000249874 0.00350242 0.0739613)
(7.91144e-05 0.00173993 0.0547594)
(-0.0022558 0.00062466 0.050647)
(0.0012902 -0.000600498 0.0508516)
(3.57727e-05 0.0010013 0.0486644)
(-0.00159784 0.00141067 0.0544721)
(6.46333e-06 0.00188436 0.0402674)
(-6.40666e-05 0.000558885 0.0205064)
(0.00148383 0.000627096 0.049298)
(0.000233743 0.00132129 0.0415226)
(-0.00273463 0.00166532 0.0353101)
(-0.000677588 0.00188917 0.0386104)
(-0.000777473 -0.00333778 0.0383186)
(0.00255559 -0.00180404 0.0383536)
(2.9055e-05 0.00217382 0.0431329)
(-0.0020012 -0.000775744 0.0446217)
(0.000238985 0.000621109 0.0300078)
(0.00378918 0.000122927 0.0305492)
(0.00104982 0.000194081 0.0315126)
(0.00151666 0.00201606 0.0351543)
(-0.000454032 0.00497112 0.0593724)
(0.00218752 0.00483016 0.0456332)
(-0.000169303 0.00036818 0.0281988)
(0.00191906 0.00263413 0.0482244)
(0.00118974 0.000693107 0.0524094)
(0.00148937 0.00199824 0.0659402)
(0.00227357 0.0039528 0.063635)
(0.000429681 0.00235008 0.0559652)
(0.00157981 0.000588794 0.038506)
(0.00136073 0.00106088 0.0485159)
(0.00189745 0.00118039 0.0480964)
(0.00169977 -0.00060619 0.0365957)
(0.000929593 -0.00335287 0.0542097)
(0.00181332 -0.00180718 0.0474803)
(0.00147123 0.00017556 0.0614098)
(-0.00127464 -0.0020499 0.0637682)
(0.000555821 8.41419e-05 0.037213)
(0.00533263 -0.00108814 0.0523618)
(-0.000592129 -0.00248299 0.0463317)
(0.00159353 0.00131372 0.0401361)
(-0.00154312 -0.00322467 0.0538724)
(-0.000798917 -0.00514095 0.0617041)
(0.00140438 -0.0039403 0.0453913)
(0.0024286 -0.000321071 0.0402457)
(0.000342936 0.000349655 0.0430864)
(-0.00154953 0.00189941 0.0517072)
(0.00174696 0.000519283 0.0421448)
(0.00258588 -0.000594209 0.0762676)
(7.36572e-05 -1.83963e-05 0.0414366)
(-0.00116709 -0.000446818 0.0560531)
(0.00136124 0.00120989 0.0445821)
(0.0027626 -0.000708918 0.0500972)
(0.000152782 -0.000494883 0.0348844)
(-5.1124e-05 -0.000755768 0.0353007)
(0.00461827 -0.000343341 0.0569744)
(0.00605637 -0.00387242 0.049159)
(-0.000602063 -0.000218972 0.0267533)
(-0.00406497 -0.00118702 0.0387133)
(-0.000996463 0.000914748 0.036922)
(0.0015162 0.00155253 0.0404126)
(-0.00117203 0.000481304 0.0348337)
(-0.00150479 0.000461452 0.0320135)
(-0.0002332 0.00141013 0.0306987)
(0.00192344 4.02467e-05 0.0478995)
(-0.00228077 0.000452022 0.0347776)
(-0.00332656 0.00245615 0.0486281)
(0.000756757 0.00283657 0.037872)
(0.00109922 -0.00299746 0.0398508)
(0.000488204 -0.00229339 0.0353999)
(0.000623093 0.000292937 0.0322489)
(0.000199757 0.000244837 0.028711)
(-0.000711811 0.000360266 0.032817)
(-0.000197988 -4.87854e-05 0.0290762)
(2.73003e-05 -8.20541e-05 0.033536)
(-0.000788221 -2.05388e-05 0.0305378)
(-0.000184908 4.00539e-05 0.0270316)
(-2.8954e-05 0.00020232 0.0280127)
(-0.000720353 0.000102026 0.0291245)
(-0.000874151 -0.000346964 0.0283519)
(-0.00183864 -0.00187411 0.0469902)
(0.000850764 0.000253088 0.0309767)
(-0.000707922 -0.000178064 0.0302171)
(-0.000793855 -0.00138692 0.0329303)
(-0.000242286 0.00125329 0.0352323)
(0.000391699 0.000144127 0.0279706)
(-9.69252e-05 -0.000551173 0.0257914)
(-0.00088968 0.000137234 0.0298817)
(-0.00246821 0.00125848 0.0170328)
(-0.0049034 0.002341 0.0163762)
(-0.00684096 0.00600955 0.00911872)
(-0.00731536 0.0109239 -0.00387152)
(-0.00286845 0.00230608 0.00292161)
(-0.0036069 0.0028326 0.00879695)
(-0.00414727 0.00414793 -0.00386347)
(-0.00302468 0.00749806 -0.00803445)
(-0.00309001 0.00285957 0.0430203)
(-0.00297368 0.00337728 0.0252615)
(-0.00235251 0.00409547 0.00112598)
(-0.000677641 0.00577344 0.0124571)
(-0.00265585 0.00279225 0.0274479)
(-0.00275878 0.00384992 0.00803841)
(-0.00176174 0.00420614 -0.00587878)
(0.000404143 0.00421026 0.0221301)
(-0.00102463 1.92892e-05 0.0230699)
(0.00189603 -0.000352849 0.0240788)
(0.00379138 -0.00243917 0.0249551)
(0.00426904 -0.00586812 0.0252481)
(0.000174462 -0.00184816 0.021443)
(0.00171567 -0.00116761 0.0221514)
(0.00226695 -0.00140241 0.0216222)
(0.000986668 -0.00368067 0.0223076)
(0.000268983 -0.00119462 0.0256344)
(0.00235713 -0.00056989 0.0233561)
(0.00131076 -0.000995227 0.0207915)
(-0.000225059 -0.00274347 0.0223856)
(0.00104613 0.000725386 0.0223884)
(0.00192706 -5.2899e-05 0.0202641)
(1.32217e-05 -0.00102486 0.0192344)
(-0.00164608 -0.000864355 0.0223305)
(-8.76484e-06 -0.000273275 0.0201384)
(0.00128406 -0.000329634 0.0198028)
(0.0017723 -0.000999762 0.0182691)
(0.00143126 -0.00185976 0.0161393)
(0.000454824 -0.00119152 0.0201859)
(0.00121356 -0.000946475 0.019631)
(0.0012061 -0.0010631 0.0181612)
(0.000442556 -0.00183537 0.0173376)
(0.00044949 -0.000900039 0.0220246)
(0.00139591 -0.000818781 0.0206702)
(0.000848591 -0.00107785 0.018957)
(-0.000128108 -0.00175825 0.0191307)
(0.000602071 -5.55013e-05 0.0213767)
(0.00102535 -0.000525853 0.0201384)
(0.000227589 -0.000971817 0.0189709)
(-0.00078971 -0.00099404 0.0199582)
(0.000327422 -0.000283768 0.0198015)
(0.000827571 -0.000342927 0.0195021)
(0.000968993 -0.000627152 0.018793)
(0.000713237 -0.00102493 0.0180923)
(0.000420552 -0.00065719 0.0199647)
(0.00072863 -0.000651485 0.0195649)
(0.000672693 -0.000801401 0.0189074)
(0.000271903 -0.00115883 0.0185583)
(0.000388801 -0.00060584 0.0206455)
(0.000683948 -0.000662862 0.0200624)
(0.000453689 -0.000835359 0.01936)
(-4.22837e-05 -0.00112274 0.0193027)
(0.000362645 -0.00034784 0.0205264)
(0.000499102 -0.000535278 0.0200403)
(0.000189736 -0.000717356 0.0195634)
(-0.000331983 -0.000794908 0.0197692)
(0.000301218 -0.000182607 0.0198472)
(0.000487978 -0.000232682 0.0196301)
(0.000507013 -0.000365512 0.019271)
(0.00032888 -0.000548364 0.018952)
(0.000293184 -0.000364907 0.0199778)
(0.000406609 -0.000410162 0.0197451)
(0.000350103 -0.000517472 0.0194366)
(0.000126411 -0.000690848 0.0192513)
(0.000250612 -0.000380307 0.0202442)
(0.000332544 -0.000449025 0.0199915)
(0.000217973 -0.000556802 0.0197055)
(-3.718e-05 -0.00069901 0.0196287)
(0.000191939 -0.000303456 0.0202991)
(0.000228535 -0.000400101 0.0200946)
(9.07395e-05 -0.000492904 0.0198928)
(-0.000175372 -0.000560066 0.0199086)
(0.000196472 -9.61021e-05 0.0199122)
(0.000261231 -0.000130618 0.0197796)
(0.000245745 -0.000196718 0.0195973)
(0.000134735 -0.00028388 0.0194433)
(0.000173781 -0.000202389 0.0199922)
(0.000209871 -0.000242362 0.0198653)
(0.000165797 -0.000306569 0.0197148)
(3.92512e-05 -0.00039231 0.019619)
(0.000138791 -0.000232215 0.0201152)
(0.000156965 -0.000280671 0.019998)
(9.25892e-05 -0.000343345 0.0198735)
(-4.3192e-05 -0.000416465 0.0198266)
(9.50781e-05 -0.000212351 0.020183)
(9.78539e-05 -0.000265321 0.0200929)
(2.58703e-05 -0.000316943 0.0200053)
(-0.000111901 -0.000360556 0.0199981)
(0.000111598 -4.75252e-05 0.0199803)
(0.000131763 -6.95723e-05 0.0199062)
(0.000112302 -0.000104563 0.0198165)
(4.66959e-05 -0.000148778 0.0197456)
(9.29009e-05 -0.000111659 0.0200242)
(0.000100826 -0.000138971 0.0199578)
(7.02654e-05 -0.000175784 0.0198855)
(-7.66359e-07 -0.000220186 0.0198406)
(6.88361e-05 -0.000138421 0.0200884)
(6.79821e-05 -0.000168891 0.0200321)
(2.99903e-05 -0.000204513 0.0199764)
(-4.31782e-05 -0.000243306 0.0199545)
(4.10251e-05 -0.000136965 0.0201388)
(3.41443e-05 -0.000167017 0.0200973)
(-6.13355e-06 -0.000196412 0.0200594)
(-7.83949e-05 -0.000222106 0.0200565)
(5.80792e-05 -2.33042e-05 0.0200357)
(6.2514e-05 -3.7074e-05 0.0199963)
(4.71671e-05 -5.65891e-05 0.019953)
(9.67112e-06 -8.04109e-05 0.0199213)
(4.53884e-05 -6.21101e-05 0.0200588)
(4.41603e-05 -7.92902e-05 0.0200252)
(2.41919e-05 -0.000100369 0.0199913)
(-1.53847e-05 -0.000124262 0.019972)
(3.00539e-05 -8.19049e-05 0.0200936)
(2.44888e-05 -0.000100251 0.020067)
(1.78336e-06 -0.000120705 0.0200426)
(-3.79331e-05 -0.000141689 0.0200349)
(1.32872e-05 -8.5706e-05 0.0201263)
(4.8966e-06 -0.000102989 0.0201079)
(-1.83275e-05 -0.000119814 0.0200927)
(-5.65012e-05 -0.000134505 0.0200946)
(2.77032e-05 -1.19082e-05 0.0200747)
(2.7092e-05 -2.04232e-05 0.0200545)
(1.66165e-05 -3.17105e-05 0.0200341)
(-4.51466e-06 -4.51671e-05 0.0200206)
(1.9618e-05 -3.52494e-05 0.0200867)
(1.61954e-05 -4.56934e-05 0.0200702)
(3.62199e-06 -5.79183e-05 0.020055)
(-1.83416e-05 -7.11892e-05 0.0200479)
(1.01662e-05 -4.87809e-05 0.0201059)
(4.51821e-06 -5.95979e-05 0.0200939)
(-9.07276e-06 -7.13605e-05 0.020084)
(-3.07004e-05 -8.29803e-05 0.0200829)
(5.13505e-08 -5.31199e-05 0.0201261)
(-6.7592e-06 -6.31524e-05 0.0201186)
(-2.04122e-05 -7.27503e-05 0.0201138)
(-4.08176e-05 -8.10854e-05 0.0201178)
(1.16114e-05 -6.68206e-06 0.0201005)
(9.7901e-06 -1.19278e-05 0.0200906)
(3.05814e-06 -1.86381e-05 0.0200813)
(-8.77589e-06 -2.64395e-05 0.0200762)
(6.56339e-06 -2.06554e-05 0.0201068)
(3.25527e-06 -2.6916e-05 0.0200992)
(-4.48787e-06 -3.40902e-05 0.0200928)
(-1.66484e-05 -4.16528e-05 0.0200911)
(7.6423e-07 -2.94262e-05 0.0201176)
(-3.63433e-06 -3.58111e-05 0.0201126)
(-1.17947e-05 -4.26031e-05 0.0201093)
(-2.36214e-05 -4.91811e-05 0.0201108)
(-5.2576e-06 -3.29543e-05 0.0201298)
(-1.0216e-05 -3.88358e-05 0.0201274)
(-1.82751e-05 -4.43255e-05 0.020127)
(-2.92608e-05 -4.90437e-05 0.0201312)
(3.59924e-06 -4.2545e-06 0.0201172)
(1.80235e-06 -7.49677e-06 0.0201125)
(-2.39486e-06 -1.15679e-05 0.0201086)
(-8.96453e-06 -1.61829e-05 0.0201071)
(4.54159e-07 -1.25703e-05 0.0201205)
(-2.13628e-06 -1.634e-05 0.0201173)
(-6.85043e-06 -2.058e-05 0.0201151)
(-1.35758e-05 -2.4981e-05 0.0201156)
(-3.08421e-06 -1.80916e-05 0.0201267)
(-6.23512e-06 -2.18754e-05 0.020125)
(-1.1116e-05 -2.583e-05 0.0201246)
(-1.75919e-05 -2.96097e-05 0.0201268)
(-6.66354e-06 -2.06412e-05 0.020134)
(-1.00979e-05 -2.40841e-05 0.0201339)
(-1.48601e-05 -2.72284e-05 0.0201351)
(-2.07863e-05 -2.98962e-05 0.0201389)
(-7.44475e-08 -3.03003e-06 0.0201277)
(-1.51693e-06 -5.05386e-06 0.0201257)
(-4.11289e-06 -7.52746e-06 0.0201244)
(-7.72536e-06 -1.03135e-05 0.0201244)
(-2.03304e-06 -7.96186e-06 0.0201296)
(-3.90822e-06 -1.02468e-05 0.0201285)
(-6.76695e-06 -1.27655e-05 0.0201281)
(-1.04696e-05 -1.53521e-05 0.0201293)
(-4.19026e-06 -1.13736e-05 0.0201332)
(-6.36023e-06 -1.36215e-05 0.020133)
(-9.27644e-06 -1.5932e-05 0.0201337)
(-1.28105e-05 -1.81169e-05 0.0201359)
(-6.32065e-06 -1.30906e-05 0.0201377)
(-8.63173e-06 -1.51e-05 0.0201384)
(-1.14468e-05 -1.68937e-05 0.02014)
(-1.46342e-05 -1.83923e-05 0.0201431)
(-1.50629e-06 -2.29939e-06 0.0201342)
(-2.57751e-06 -3.55772e-06 0.0201336)
(-4.17993e-06 -5.06476e-06 0.0201334)
(-6.15799e-06 -6.74683e-06 0.0201341)
(-2.72386e-06 -5.21987e-06 0.0201354)
(-4.03063e-06 -6.60496e-06 0.0201353)
(-5.76072e-06 -8.09935e-06 0.0201357)
(-7.78364e-06 -9.61784e-06 0.020137)
(-4.03693e-06 -7.28876e-06 0.0201376)
(-5.49608e-06 -8.62145e-06 0.0201381)
(-7.23545e-06 -9.9661e-06 0.0201391)
(-9.14835e-06 -1.12251e-05 0.020141)
(-5.30719e-06 -8.38538e-06 0.0201404)
(-6.82822e-06 -9.55161e-06 0.0201414)
(-8.48864e-06 -1.05652e-05 0.020143)
(-1.01875e-05 -1.13968e-05 0.0201454)
(-1.82036e-06 -1.76141e-06 0.0201382)
(-2.58085e-06 -2.53389e-06 0.0201383)
(-3.56129e-06 -3.4416e-06 0.0201386)
(-4.64222e-06 -4.44162e-06 0.0201394)
(-2.57029e-06 -3.48005e-06 0.020139)
(-3.45567e-06 -4.3122e-06 0.0201394)
(-4.49388e-06 -5.18924e-06 0.0201401)
(-5.5866e-06 -6.07261e-06 0.0201413)
(-3.36363e-06 -4.70568e-06 0.0201404)
(-4.32358e-06 -5.48845e-06 0.0201411)
(-5.35249e-06 -6.26212e-06 0.0201422)
(-6.37326e-06 -6.97989e-06 0.0201438)
(-4.11887e-06 -5.37441e-06 0.0201423)
(-5.09821e-06 -6.04423e-06 0.0201433)
(-6.06884e-06 -6.60846e-06 0.0201447)
(-6.95808e-06 -7.06282e-06 0.0201466)
(-1.61188e-06 -1.30461e-06 0.0201406)
(-2.12374e-06 -1.76671e-06 0.0201409)
(-2.70404e-06 -2.30132e-06 0.0201415)
(-3.28863e-06 -2.88185e-06 0.0201424)
(-2.06239e-06 -2.29303e-06 0.0201412)
(-2.63889e-06 -2.78101e-06 0.0201418)
(-3.24546e-06 -3.2853e-06 0.0201426)
(-3.82437e-06 -3.79133e-06 0.0201437)
(-2.53144e-06 -2.99326e-06 0.0201422)
(-3.1424e-06 -3.4427e-06 0.020143)
(-3.73622e-06 -3.87809e-06 0.020144)
(-4.26757e-06 -4.27903e-06 0.0201453)
(-2.97294e-06 -3.38065e-06 0.0201435)
(-3.584e-06 -3.75594e-06 0.0201444)
(-4.13751e-06 -4.06173e-06 0.0201456)
(-4.58817e-06 -4.30368e-06 0.0201472)
(-1.22521e-06 -9.28461e-07 0.0201419)
(-1.54434e-06 -1.1918e-06 0.0201424)
(-1.86609e-06 -1.49155e-06 0.020143)
(-2.17225e-06 -1.81354e-06 0.0201439)
(-1.48239e-06 -1.46031e-06 0.0201424)
(-1.83463e-06 -1.73127e-06 0.020143)
(-2.16897e-06 -2.0089e-06 0.0201438)
(-2.46284e-06 -2.28647e-06 0.0201448)
(-1.74514e-06 -1.83129e-06 0.0201432)
(-2.1125e-06 -2.07431e-06 0.020144)
(-2.43685e-06 -2.30633e-06 0.0201449)
(-2.70014e-06 -2.51787e-06 0.0201461)
(-1.98942e-06 -2.03453e-06 0.0201442)
(-2.35112e-06 -2.23155e-06 0.0201451)
(-2.65012e-06 -2.38601e-06 0.0201461)
(-2.86615e-06 -2.50489e-06 0.0201474)
(-9.31252e-07 -7.24388e-07 0.0201427)
(-1.12564e-06 -8.71437e-07 0.0201432)
(-1.30064e-06 -1.03337e-06 0.0201438)
(-1.45392e-06 -1.20218e-06 0.0201446)
(-1.07281e-06 -9.77394e-07 0.0201432)
(-1.28237e-06 -1.1178e-06 0.0201438)
(-1.46183e-06 -1.26232e-06 0.0201445)
(-1.60334e-06 -1.40366e-06 0.0201454)
(-1.20902e-06 -1.15064e-06 0.0201438)
(-1.42549e-06 -1.2684e-06 0.0201445)
(-1.59856e-06 -1.38112e-06 0.0201454)
(-1.72098e-06 -1.48137e-06 0.0201464)
(-1.32844e-06 -1.23555e-06 0.0201446)
(-1.54306e-06 -1.32432e-06 0.0201454)
(-1.703e-06 -1.39176e-06 0.0201463)
(-1.80009e-06 -1.43983e-06 0.0201474)
(-0.000702302 -0.00137576 0.0201208)
(-0.000150239 0.000173666 0.0106177)
(-0.000819195 -0.000114368 0.0130752)
(0.00215239 -0.00174444 0.0186322)
(-0.00157828 -0.000571244 0.0107753)
(0.000465429 0.000623343 0.017296)
(-0.00364224 0.0026678 0.0206457)
(-0.000587741 0.000133778 0.0110356)
(-0.00255631 0.000851874 0.0193338)
(0.000853108 0.000314521 0.0146975)
(-0.000770968 0.000598229 0.0148452)
(-0.0024299 0.00327856 0.0165007)
(-0.0032967 -0.00167792 0.0142271)
(0.000525925 -0.000732222 0.0158698)
(0.000687087 8.05909e-05 0.0108877)
(-0.00286201 0.00166934 0.0170401)
(-0.000660209 -0.000323144 0.0220554)
(0.00108481 -0.00157915 0.0645079)
(0.000150861 2.83797e-05 0.0420103)
(-0.000788788 0.00267712 0.0454)
(-0.00140178 0.00126144 0.0408955)
(0.000374983 0.000163901 0.0400726)
(0.00123329 0.00102977 0.0501771)
(0.000354941 0.000265639 0.0338018)
(-0.000689981 0.000894273 0.0330209)
(0.00137079 0.000359987 0.0582965)
(0.000830194 0.0021416 0.0618648)
(-0.000217162 -0.000823207 0.0505383)
(-0.00277617 -0.000959451 0.0502654)
(0.00249807 -0.000181546 0.0428295)
(0.00275769 0.00115953 0.0554421)
(-0.0012668 -3.78593e-05 0.0634067)
(0.000993789 -0.00167854 0.0279661)
(-0.000444594 0.000966328 0.0369039)
(0.00208142 0.00118599 0.0303405)
(-0.00179228 0.00309829 0.0531906)
(0.00522664 -0.0024668 0.0270828)
(0.00172248 0.000231206 0.02997)
(0.00246053 -0.00172906 0.0425641)
(-0.00252362 0.00357429 0.0441893)
(0.00450108 -0.00102764 0.0483931)
(0.0013833 -0.00150301 0.0515004)
(0.0060423 -0.000947546 0.0411715)
(0.0012251 -1.08628e-05 0.03815)
(0.00530846 0.00209016 0.0395103)
(0.000383463 0.000505479 0.0256619)
(0.00396263 -0.00101422 0.0452193)
(0.00455315 -0.00119078 0.0351918)
(0.00446011 0.00189887 0.0793847)
(0.00108275 0.00162908 0.0368694)
(-7.58385e-05 0.000576971 0.0616508)
(0.00149928 -0.00228045 0.0457021)
(0.00325471 -0.00289108 0.0381513)
(-6.69329e-05 -0.00342822 0.0607095)
(0.00070694 -0.00131704 0.0388582)
(0.00240385 0.000253279 0.0434885)
(0.000871696 -0.00076241 0.034449)
(0.00154719 0.000617011 0.0372765)
(0.00244238 -0.000600011 0.0580378)
(0.00962479 0.00285046 0.0777351)
(-0.000383363 0.00116397 0.0419674)
(-0.00143968 0.00202155 0.050917)
(-0.000157897 -0.000109757 0.0326443)
(0.00422586 0.000647687 0.067958)
(0.00242605 -0.00135611 0.0491414)
(0.000106442 -0.00282126 0.0533748)
(-0.000373882 0.00069483 0.0564912)
(0.00152808 0.000162357 0.0477456)
(0.000958693 -0.00289021 0.0401675)
(0.000869295 -4.02437e-06 0.0476107)
(0.0030307 -0.00137278 0.046286)
(0.00180618 -0.00369264 0.0358128)
(0.00139357 6.90976e-05 0.0382674)
(0.000179514 0.000264193 0.0417853)
(-0.00075425 0.0014533 0.0322849)
(0.00522322 -0.00473726 0.0452265)
(0.00108261 0.000143447 0.0481455)
(0.00282604 -3.50224e-05 0.0423208)
(-0.00129578 0.00537661 0.0450374)
(0.000427465 0.00117786 0.0425046)
(-0.00251195 -0.00570157 0.078919)
(0.000408967 -0.00130698 0.0318454)
(0.00191225 0.000285771 0.0496919)
(0.000868117 -0.00154771 0.0272212)
(-0.000842945 0.000300025 0.0261863)
(-0.00128503 0.00113547 0.0277279)
(-0.00149817 0.00148342 0.0351414)
(0.00178241 -0.00413286 0.0491708)
(0.000777923 -0.000284029 0.0238945)
(-0.00177628 -0.000239455 0.0344845)
(-0.00127738 -0.00127986 0.0297838)
(0.00117122 -0.0016675 0.0284892)
(0.00243003 0.000385758 0.0309976)
(-0.00178816 -0.00242117 0.0280772)
(-0.00520855 -0.00440693 0.0469505)
(0.00499174 -0.00331622 0.048325)
(0.000348483 0.0016218 0.0325921)
(0.000764106 0.00238962 0.0288137)
(-0.00024962 -0.000667249 0.0339026)
(-0.000420494 0.00106004 0.0284506)
(-0.000691336 0.0016171 0.0249164)
(-0.00292648 0.00187563 0.0227602)
(-0.00193251 -0.000114872 0.0297509)
(-6.4545e-05 0.000395287 0.0269697)
(0.000487837 -0.00119792 0.0266675)
(-0.00174843 0.000716422 0.0305748)
(-0.00137669 0.000448556 0.024665)
(-0.00140632 0.00171675 0.0276531)
(0.00102091 -0.000806941 0.0288032)
(-0.00134795 0.000697085 0.0252248)
(3.04424e-05 -0.00118091 0.0302323)
(5.97807e-05 0.000953576 0.0216555)
(-0.00145399 0.00215242 0.021392)
(-0.00198121 0.00372222 0.0172821)
(-0.00196971 0.00363297 0.0212994)
(0.000207489 0.0025327 0.0150909)
(-0.000805686 0.00141373 0.0114451)
(-0.00160183 0.00289597 0.0180265)
(-0.00273795 0.00248261 0.0141592)
(-7.28371e-05 0.00105257 -0.000588363)
(-0.000765521 0.00131659 0.0154304)
(-0.000961333 0.00192569 0.0354728)
(-0.00265047 0.000667206 0.0161703)
(-1.42438e-05 -0.00187378 0.00635477)
(-0.000281049 0.00112529 0.0285875)
(-0.00124797 0.000427781 0.0329966)
(-0.00411591 -0.00102 0.0261933)
(0.000688454 -0.00207634 -0.0160484)
(0.00043781 0.000536656 0.0207427)
(0.000800408 -0.000427467 0.0205321)
(0.000383568 -0.000682421 0.0211547)
(-0.000930593 0.000885803 0.0208404)
(0.000230084 0.000351112 0.0198217)
(0.000769055 -0.000565919 0.0202334)
(0.00129689 0.000187746 0.0196774)
(-0.000766333 0.00163642 0.0189038)
(-1.17269e-05 -0.000382554 0.0202647)
(0.000541164 -0.00058237 0.0222935)
(0.00223066 0.000331376 0.0200247)
(-0.00100961 0.00255688 0.0186536)
(-0.000159655 -0.000519403 0.020832)
(0.000486212 2.20523e-05 0.0220307)
(0.00339826 0.000831703 0.0211854)
(-0.000345352 0.00190385 0.0171621)
(0.000285528 -0.000117299 0.0211043)
(0.000561893 -0.00058106 0.0207594)
(0.000353127 -0.000649587 0.0201742)
(-0.000653647 -4.24879e-05 0.020136)
(0.000114594 -0.000179912 0.0210194)
(0.000472991 -0.000586673 0.0211238)
(0.000807745 -0.000272072 0.0202249)
(-0.000564849 0.000443255 0.0193486)
(-9.83454e-05 -0.000377215 0.0210802)
(0.000304705 -0.000477222 0.0219089)
(0.00127335 -5.78584e-05 0.0206596)
(-0.000629341 0.000877992 0.0187016)
(-0.000248833 -0.00036248 0.0213238)
(0.000167782 -0.00011039 0.0220925)
(0.0017393 0.000342458 0.0207673)
(-0.000305191 0.000645149 0.0167035)
(0.000200951 -0.00027837 0.0205126)
(0.000335355 -0.000432587 0.020341)
(0.000190002 -0.000484757 0.0200161)
(-0.000374303 -0.000328545 0.0199654)
(8.55644e-05 -0.00023133 0.020514)
(0.000264259 -0.000349089 0.0205536)
(0.000348359 -0.000273205 0.0201476)
(-0.00035448 -1.58314e-06 0.0197419)
(-3.67829e-05 -0.000215608 0.0205417)
(0.000165848 -0.000233032 0.0208494)
(0.000509864 -9.10507e-05 0.0203642)
(-0.000349744 0.000240622 0.0195084)
(-0.000125065 -0.000171161 0.020594)
(7.94602e-05 -6.32452e-05 0.0209546)
(0.000656679 0.000111656 0.0204247)
(-0.000237541 0.000196367 0.0188542)
(9.8608e-05 -0.000239737 0.020355)
(0.000148811 -0.000309185 0.0202509)
(5.94625e-05 -0.00035502 0.0200949)
(-0.000229448 -0.000331946 0.0200623)
(3.33253e-05 -0.00019209 0.020389)
(0.000102103 -0.00023453 0.020363)
(0.000100525 -0.000227617 0.0201934)
(-0.00023722 -0.000129035 0.0200344)
(-2.91131e-05 -0.000149331 0.0204087)
(4.86707e-05 -0.000150842 0.020467)
(0.000153592 -0.000103574 0.0202805)
(-0.00023011 2.80028e-05 0.0199497)
(-7.94129e-05 -0.00010662 0.0204198)
(1.45612e-07 -5.92314e-05 0.0205083)
(0.00020007 1.15136e-05 0.0203016)
(-0.000195525 4.71473e-05 0.0197423)
(4.06352e-05 -0.000170931 0.0202343)
(5.43032e-05 -0.000207194 0.0201855)
(-2.23862e-06 -0.000239695 0.0201194)
(-0.000147909 -0.000248135 0.0201103)
(5.71346e-06 -0.000137356 0.0202645)
(2.69656e-05 -0.000156722 0.0202507)
(2.80379e-06 -0.000163091 0.0201873)
(-0.000160081 -0.000133713 0.0201381)
(-2.67895e-05 -0.000103268 0.0202817)
(-1.75252e-06 -0.000102673 0.020299)
(1.55717e-05 -8.70499e-05 0.0202335)
(-0.000161267 -3.8011e-05 0.0201168)
(-5.53719e-05 -7.17294e-05 0.02029)
(-2.92576e-05 -4.92593e-05 0.0203218)
(2.62452e-05 -2.06701e-05 0.0202475)
(-0.00015356 -2.1693e-06 0.0200485)
(9.55086e-06 -0.000113447 0.0201756)
(9.43701e-06 -0.000133991 0.0201539)
(-2.53666e-05 -0.000155031 0.0201284)
(-9.93928e-05 -0.00016641 0.020131)
(-8.63146e-06 -9.29569e-05 0.0201968)
(-6.04816e-06 -0.00010357 0.0201925)
(-2.91886e-05 -0.000110567 0.0201721)
(-0.000108882 -0.000103875 0.0201646)
(-2.55996e-05 -7.08155e-05 0.0202099)
(-2.16298e-05 -7.07416e-05 0.0202189)
(-2.90616e-05 -6.54806e-05 0.0201991)
(-0.000112373 -4.75915e-05 0.0201684)
(-4.17388e-05 -5.02752e-05 0.0202166)
(-3.72796e-05 -3.91496e-05 0.0202325)
(-2.98561e-05 -2.61991e-05 0.0202096)
(-0.000112528 -1.4966e-05 0.0201499)
(-4.95572e-06 -7.32052e-05 0.0201504)
(-9.16316e-06 -8.53961e-05 0.0201423)
(-3.02613e-05 -9.82041e-05 0.0201347)
(-6.83933e-05 -0.000106686 0.0201416)
(-1.43834e-05 -6.15557e-05 0.0201639)
(-1.78913e-05 -6.80553e-05 0.0201652)
(-3.48366e-05 -7.32061e-05 0.0201622)
(-7.45604e-05 -7.25749e-05 0.0201683)
(-2.32564e-05 -4.83106e-05 0.0201727)
(-2.65281e-05 -4.87458e-05 0.0201806)
(-3.75139e-05 -4.67894e-05 0.0201791)
(-7.7571e-05 -3.93501e-05 0.0201785)
(-3.22956e-05 -3.58787e-05 0.0201776)
(-3.55611e-05 -3.00879e-05 0.020189)
(-4.06915e-05 -2.29822e-05 0.0201868)
(-7.92491e-05 -1.48473e-05 0.0201771)
(-1.04071e-05 -4.66369e-05 0.0201412)
(-1.48796e-05 -5.39846e-05 0.0201394)
(-2.75543e-05 -6.16231e-05 0.0201393)
(-4.74754e-05 -6.69893e-05 0.0201468)
(-1.51986e-05 -4.03194e-05 0.0201493)
(-1.98021e-05 -4.44133e-05 0.0201531)
(-3.10314e-05 -4.77165e-05 0.0201564)
(-5.11874e-05 -4.81783e-05 0.0201655)
(-1.97888e-05 -3.27537e-05 0.0201549)
(-2.46325e-05 -3.3284e-05 0.0201623)
(-3.35766e-05 -3.22755e-05 0.0201673)
(-5.32188e-05 -2.84168e-05 0.0201752)
(-2.47684e-05 -2.56085e-05 0.0201581)
(-2.98644e-05 -2.23603e-05 0.0201676)
(-3.64413e-05 -1.7724e-05 0.0201729)
(-5.472e-05 -1.15368e-05 0.0201782)
(-1.12357e-05 -2.9661e-05 0.020139)
(-1.49067e-05 -3.40758e-05 0.0201399)
(-2.24777e-05 -3.85533e-05 0.0201424)
(-3.29895e-05 -4.17133e-05 0.020149)
(-1.36318e-05 -2.63328e-05 0.0201438)
(-1.76666e-05 -2.88657e-05 0.020148)
(-2.47746e-05 -3.07954e-05 0.020153)
(-3.5142e-05 -3.1145e-05 0.0201613)
(-1.59527e-05 -2.21283e-05 0.0201471)
(-2.03573e-05 -2.2512e-05 0.0201536)
(-2.65887e-05 -2.17422e-05 0.02016)
(-3.63716e-05 -1.93006e-05 0.0201687)
(-1.86337e-05 -1.81722e-05 0.0201491)
(-2.33675e-05 -1.6172e-05 0.0201569)
(-2.86232e-05 -1.28456e-05 0.0201638)
(-3.741e-05 -8.18738e-06 0.0201721)
(-1.00709e-05 -1.89637e-05 0.0201396)
(-1.27971e-05 -2.15862e-05 0.0201414)
(-1.73061e-05 -2.41628e-05 0.0201444)
(-2.28784e-05 -2.59413e-05 0.0201497)
(-1.12333e-05 -1.72397e-05 0.0201423)
(-1.43258e-05 -1.87507e-05 0.0201462)
(-1.87228e-05 -1.97819e-05 0.0201509)
(-2.40969e-05 -1.9868e-05 0.0201576)
(-1.2362e-05 -1.49424e-05 0.0201443)
(-1.58053e-05 -1.51272e-05 0.0201495)
(-1.98759e-05 -1.44362e-05 0.0201554)
(-2.47921e-05 -1.27068e-05 0.0201627)
(-1.3763e-05 -1.28157e-05 0.0201454)
(-1.75166e-05 -1.14704e-05 0.0201516)
(-2.11907e-05 -9.00737e-06 0.0201579)
(-2.54411e-05 -5.56863e-06 0.0201654)
(-8.25378e-06 -1.22233e-05 0.020141)
(-1.01744e-05 -1.3755e-05 0.0201429)
(-1.28545e-05 -1.52054e-05 0.0201457)
(-1.58044e-05 -1.61649e-05 0.0201497)
(-8.78504e-06 -1.13372e-05 0.0201425)
(-1.10045e-05 -1.2196e-05 0.0201457)
(-1.36897e-05 -1.26865e-05 0.0201496)
(-1.64783e-05 -1.2594e-05 0.0201547)
(-9.29656e-06 -1.00935e-05 0.0201436)
(-1.18005e-05 -1.01201e-05 0.0201477)
(-1.43755e-05 -9.50177e-06 0.0201525)
(-1.68485e-05 -8.22745e-06 0.0201581)
(-9.99946e-06 -8.9801e-06 0.0201443)
(-1.27567e-05 -8.01707e-06 0.020149)
(-1.51807e-05 -6.19169e-06 0.0201542)
(-1.72309e-05 -3.70404e-06 0.02016)
(-6.39437e-06 -7.93057e-06 0.0201425)
(-7.70193e-06 -8.80593e-06 0.0201442)
(-9.28876e-06 -9.60031e-06 0.0201464)
(-1.08359e-05 -1.00934e-05 0.0201495)
(-6.60739e-06 -7.47626e-06 0.0201433)
(-8.13981e-06 -7.9375e-06 0.0201458)
(-9.76381e-06 -8.12662e-06 0.0201489)
(-1.11984e-05 -7.95427e-06 0.0201526)
(-6.80887e-06 -6.80801e-06 0.0201439)
(-8.55328e-06 -6.74191e-06 0.020147)
(-1.01508e-05 -6.21445e-06 0.0201507)
(-1.13818e-05 -5.27411e-06 0.0201549)
(-7.13995e-06 -6.23684e-06 0.0201442)
(-9.07513e-06 -5.52938e-06 0.0201478)
(-1.06241e-05 -4.19402e-06 0.0201518)
(-1.15956e-05 -2.42995e-06 0.0201562)
(-4.72145e-06 -5.13702e-06 0.0201436)
(-5.58728e-06 -5.62404e-06 0.020145)
(-6.5176e-06 -6.04363e-06 0.0201469)
(-7.31181e-06 -6.28214e-06 0.0201492)
(-4.78179e-06 -4.90461e-06 0.020144)
(-5.80906e-06 -5.13726e-06 0.020146)
(-6.77921e-06 -5.17342e-06 0.0201484)
(-7.50021e-06 -4.98809e-06 0.0201512)
(-4.83682e-06 -4.55034e-06 0.0201443)
(-6.0124e-06 -4.449e-06 0.0201467)
(-6.98577e-06 -4.02337e-06 0.0201495)
(-7.58157e-06 -3.34222e-06 0.0201526)
(-4.97677e-06 -4.25976e-06 0.0201445)
(-6.28752e-06 -3.74476e-06 0.0201472)
(-7.25251e-06 -2.79092e-06 0.0201503)
(-7.6939e-06 -1.5701e-06 0.0201535)
(-3.29754e-06 -3.26128e-06 0.0201444)
(-3.85138e-06 -3.52027e-06 0.0201456)
(-4.38394e-06 -3.72948e-06 0.0201471)
(-4.77599e-06 -3.83383e-06 0.0201489)
(-3.29409e-06 -3.14267e-06 0.0201446)
(-3.95757e-06 -3.24961e-06 0.0201462)
(-4.52284e-06 -3.21957e-06 0.0201481)
(-4.86931e-06 -3.0571e-06 0.0201502)
(-3.2882e-06 -2.96042e-06 0.0201448)
(-4.04926e-06 -2.86065e-06 0.0201466)
(-4.62559e-06 -2.53884e-06 0.0201488)
(-4.89969e-06 -2.06304e-06 0.0201512)
(-3.33489e-06 -2.813e-06 0.0201449)
(-4.18669e-06 -2.45285e-06 0.0201469)
(-4.76805e-06 -1.79876e-06 0.0201493)
(-4.95433e-06 -9.85186e-07 0.0201518)
(-2.15254e-06 -1.97677e-06 0.0201448)
(-2.48908e-06 -2.10208e-06 0.0201459)
(-2.77795e-06 -2.19209e-06 0.0201472)
(-2.96019e-06 -2.22583e-06 0.0201486)
(-2.1302e-06 -1.91793e-06 0.020145)
(-2.53496e-06 -1.95543e-06 0.0201463)
(-2.84727e-06 -1.90332e-06 0.0201479)
(-3.00307e-06 -1.77735e-06 0.0201496)
(-2.10524e-06 -1.83084e-06 0.0201451)
(-2.57014e-06 -1.74701e-06 0.0201466)
(-2.89498e-06 -1.52047e-06 0.0201484)
(-3.01243e-06 -1.20665e-06 0.0201503)
(-2.10912e-06 -1.75829e-06 0.0201451)
(-2.6318e-06 -1.52057e-06 0.0201468)
(-2.9664e-06 -1.09848e-06 0.0201487)
(-3.03813e-06 -5.8616e-07 0.0201507)
(-1.39902e-06 -1.19909e-06 0.0201451)
(-1.60632e-06 -1.24715e-06 0.0201461)
(-1.76403e-06 -1.27288e-06 0.0201471)
(-1.8441e-06 -1.2709e-06 0.0201483)
(-1.37749e-06 -1.16578e-06 0.0201452)
(-1.62346e-06 -1.16435e-06 0.0201464)
(-1.79842e-06 -1.11091e-06 0.0201477)
(-1.86567e-06 -1.01788e-06 0.0201491)
(-1.35115e-06 -1.12777e-06 0.0201453)
(-1.63495e-06 -1.05802e-06 0.0201466)
(-1.82396e-06 -9.04274e-07 0.0201481)
(-1.87358e-06 -7.00946e-07 0.0201497)
(-1.33334e-06 -1.09445e-06 0.0201453)
(-1.65799e-06 -9.38394e-07 0.0201468)
(-1.86233e-06 -6.71399e-07 0.0201484)
(-1.89142e-06 -3.5001e-07 0.02015)
(0.00222064 -0.00154014 0.017622)
(0.00642962 0.00123577 0.023068)
(-0.00262946 0.00553731 0.0165313)
(-0.00202018 -0.000514415 0.0122056)
(0.00175002 0.00287112 0.0188413)
(0.00347359 -7.80543e-05 0.0137866)
(-0.000470347 -0.00108797 0.0112216)
(-0.00216145 0.00152154 0.0113098)
(0.000229771 0.00508814 0.0127959)
(-0.00252312 0.00493188 0.0194093)
(-0.00112462 0.000439771 0.0171752)
(-0.000822869 0.00278325 0.0158779)
(-0.00660318 0.00248887 0.0130957)
(-0.00326529 0.00113825 0.00865036)
(-0.00397451 -0.000126485 0.0160566)
(-0.00552852 -0.000466211 0.0117958)
(-0.00148011 0.000729504 0.0295884)
(-0.00278409 0.000926299 0.058752)
(-0.000385611 -0.0013683 0.0791746)
(-0.00155446 5.14829e-05 0.0319189)
(0.000502121 -0.00234517 0.032859)
(-0.000477687 6.08824e-05 0.0329771)
(-0.00427824 -0.00146483 0.0794163)
(-0.00295727 -0.000540143 0.0384235)
(-0.00333929 -0.00185904 0.0631697)
(-0.00350964 -0.00157762 0.0441641)