/*--------------------------------*- C++ -*----------------------------------*\
| =========                 |                                                 |
| \\      /  F ield         | OpenFOAM: The Open Source CFD Toolbox           |
|  \\    /   O peration     | Version:  2506                                  |
|   \\  /    A nd           | Website:  www.openfoam.com                      |
|    \\/     M anipulation  |                                                 |
\*---------------------------------------------------------------------------*/
FoamFile
{
    version     2.0;
    format      ascii;
    arch        "LSB;label=32;scalar=64";
    class       volScalarField;
    location    "0.1";
    object      voidfraction;
}
// * * * * * * * * * * * * * * * * * * * * * * * * * * * * * * * * * * * * * //

dimensions      [0 0 0 0 0 0 0];

internalField   nonuniform List<scalar> 
1152
(
0.50493
0.412763
0.357463
0.46543
0.491764
0.415396
0.494397
0.460163
0.499664
0.486497
0.475963
0.396963
0.41013
0.38643
0.462797
0.47333
0.491764
0.502297
0.49703
0.549697
0.444363
0.48913
0.475963
0.44963
0.444363
0.576031
0.531264
0.494397
0.48123
0.486497
0.499664
0.454897
0.281096
0.44173
0.412763
0.381163
0.396963
0.40223
0.391696
0.420663
0.415396
0.354829
0.354829
0.370629
0.407496
0.48123
0.44173
0.362729
0.399596
0.420663
0.468063
0.454897
0.431196
0.365363
0.41013
0.415396
0.360096
0.415396
0.396963
0.454897
0.454897
0.360096
0.420663
0.404863
0.367996
0.415396
0.454897
0.40223
0.370629
0.370629
0.420663
0.373263
0.468063
0.370629
0.431196
0.391696
0.407496
0.331129
0.344296
0.423296
0.460163
0.325862
0.40223
0.389063
0.415396
0.389063
0.367996
0.341663
0.470697
0.391696
0.45753
0.39433
0.420663
0.399596
0.362729
0.344296
0.570764
0.610264
0.533897
0.502297
0.541797
0.599731
0.499664
0.510197
0.728765
0.707698
0.510197
0.576031
0.610264
0.620798
0.494397
0.665565
1
1
1
1
1
1
1
1
1
1
1
1
1
1
1
1
1
1
1
1
1
1
1
1
1
1
1
1
1
1
1
1
1
1
1
1
1
1
1
1
1
1
1
1
1
1
1
1
1
1
1
1
1
1
1
1
1
1
1
1
1
1
1
1
1
1
1
1
1
1
1
1
1
1
1
1
1
1
1
1
1
1
1
1
1
1
1
1
1
1
1
1
1
1
1
1
1
1
1
1
1
1
1
1
1
1
1
1
1
1
1
1
1
1
1
1
1
1
1
1
1
1
1
1
1
1
1
1
1
1
1
1
1
1
1
1
1
1
1
1
1
1
1
1
1
1
1
1
1
1
1
1
1
1
1
1
1
1
1
1
1
1
1
1
1
1
1
1
1
1
1
1
1
1
1
1
1
1
1
1
1
1
1
1
1
1
1
1
1
1
1
1
1
1
1
1
1
1
1
1
1
1
1
1
1
1
1
1
1
1
1
1
1
1
1
1
1
1
1
1
1
1
1
1
1
1
1
1
1
1
1
1
1
1
1
1
1
1
1
1
1
1
1
1
1
1
1
1
1
1
1
1
1
1
1
1
1
1
1
1
1
1
1
1
1
1
1
1
1
1
1
1
0.496182
0.438325
0.4505
0.49131
0.4306
0.487571
0.510918
0.425157
0.489481
0.468918
0.475651
0.475798
0.468532
0.476018
0.435909
0.491734
0.369133
0.537822
0.458621
0.466251
0.470494
0.459872
0.48955
0.420735
0.446164
0.512769
0.522166
0.469863
0.506302
0.473844
0.523572
0.525738
0.35599
0.40302
0.377414
0.438687
0.350811
0.371235
0.413576
0.431789
0.449258
0.466482
0.446051
0.416454
0.419972
0.365134
0.445437
0.409409
0.496182
0.364505
0.447793
0.411122
0.387079
0.457102
0.377963
0.394203
0.365718
0.373908
0.452394
0.527229
0.406483
0.434709
0.363492
0.495313
0.421705
0.419068
0.436965
0.38857
0.394332
0.412784
0.396957
0.358828
0.381189
0.37878
0.342449
0.406563
0.430763
0.393399
0.409229
0.423727
0.522468
0.393391
0.4505
0.325923
0.379825
0.360156
0.411202
0.469375
0.362624
0.432375
0.376278
0.349198
0.411879
0.391225
0.481646
0.466679
0.566279
0.605223
0.569603
0.589039
0.510388
0.581747
0.584518
0.524649
0.594679
0.702789
0.600395
0.554922
0.622307
0.658651
0.580743
0.482786
1
1
1
1
1
1
1
1
0.996906
1
1
1
1
1
1
0.987472
1
1
1
1
1
1
1
1
1
1
1
1
1
1
1
1
1
1
1
1
1
1
1
1
1
1
1
1
1
1
1
1
1
1
1
1
1
1
1
1
1
1
1
1
1
1
1
1
1
1
1
1
1
1
1
1
1
1
1
1
1
1
1
1
1
1
1
1
1
1
1
1
1
1
1
1
1
1
1
1
1
1
1
1
1
1
1
1
1
1
1
1
1
1
1
1
1
1
1
1
1
1
1
1
1
1
1
1
1
1
1
1
1
1
1
1
1
1
1
1
1
1
1
1
1
1
1
1
1
1
1
1
1
1
1
1
1
1
1
1
1
1
1
1
1
1
1
1
1
1
1
1
1
1
1
1
1
1
1
1
1
1
1
1
1
1
1
1
1
1
1
1
1
1
1
1
1
1
1
1
1
1
1
1
1
1
1
1
1
1
1
1
1
1
1
1
1
1
1
1
1
1
1
1
1
1
1
1
1
1
1
1
1
1
1
1
1
1
1
1
1
1
1
1
1
1
1
1
1
1
1
1
1
1
1
1
1
1
1
1
1
1
1
1
1
1
1
1
1
1
1
1
1
1
1
1
0.479206
0.531185
0.498117
0.438687
0.491174
0.452394
0.451563
0.428845
0.47167
0.515205
0.50419
0.483259
0.490115
0.418317
0.492255
0.447991
0.40762
0.507447
0.577711
0.438687
0.434003
0.439708
0.553653
0.461327
0.560812
0.498152
0.454332
0.515355
0.600725
0.467822
0.582923
0.513706
0.500682
0.398651
0.396414
0.403605
0.443532
0.469308
0.43257
0.358465
0.47167
0.437248
0.393394
0.393391
0.42267
0.409035
0.383452
0.469896
0.40404
0.537119
0.440633
0.426158
0.460683
0.374164
0.449189
0.342224
0.412967
0.415322
0.393394
0.419068
0.444252
0.452352
0.368945
0.377895
0.411199
0.444148
0.396414
0.373534
0.390172
0.420679
0.406454
0.431552
0.373831
0.420195
0.412784
0.348457
0.473928
0.32859
0.448733
0.303417
0.425516
0.396673
0.407469
0.421146
0.388266
0.367821
0.392208
0.344931
0.410792
0.451865
0.351846
0.40623
0.425368
0.390471
0.387079
0.329703
0.479206
0.564813
0.593188
0.511357
0.550252
0.610967
0.629627
0.618327
0.486889
0.680863
0.637145
0.621271
0.549467
0.523515
0.615564
0.579422
0.994631
1
1
1
1
1
1
1
0.997826
1
1
1
1
1
1
1
1
1
1
1
1
1
1
1
1
1
1
1
1
1
1
1
1
1
1
1
1
1
1
1
1
1
1
1
1
1
1
1
1
1
1
1
1
1
1
1
1
1
1
1
1
1
1
1
1
1
1
1
1
1
1
1
1
1
1
1
1
1
1
1
1
1
1
1
1
1
1
1
1
1
1
1
1
1
1
1
1
1
1
1
1
1
1
1
1
1
1
1
1
1
1
1
1
1
1
1
1
1
1
1
1
1
1
1
1
1
1
1
1
1
1
1
1
1
1
1
1
1
1
1
1
1
1
1
1
1
1
1
1
1
1
1
1
1
1
1
1
1
1
1
1
1
1
1
1
1
1
1
1
1
1
1
1
1
1
1
1
1
1
1
1
1
1
1
1
1
1
1
1
1
1
1
1
1
1
1
1
1
1
1
1
1
1
1
1
1
1
1
1
1
1
1
1
1
1
1
1
1
1
1
1
1
1
1
1
1
1
1
1
1
1
1
1
1
1
1
1
1
1
1
1
1
1
1
1
1
1
1
1
1
1
1
1
1
1
1
1
1
1
1
1
1
1
1
1
1
1
1
1
1
1
1
)
;

boundaryField
{
    inlet
    {
        type            fixedValue;
        value           uniform 1;
    }
    outlet
    {
        type            fixedValue;
        value           uniform 1;
    }
    wall
    {
        type            zeroGradient;
    }
    procBoundary2to0
    {
        type            processor;
        value           nonuniform List<scalar> 
192
(
0.468063
0.589197
0.48123
0.539164
0.499664
0.518097
0.502297
0.50493
0.44963
0.346929
0.349563
0.45753
0.468063
0.346929
0.354829
0.331129
0.362729
0.360096
0.304796
0.357463
0.331129
0.462797
0.42593
0.470697
0.660298
0.597097
0.581297
0.541797
1
1
0.994733
0.9921
1
1
1
1
1
1
1
1
1
1
1
1
1
1
1
1
1
1
1
1
1
1
1
1
1
1
1
1
1
1
1
1
1
1
1
1
1
1
1
1
1
1
1
1
1
1
1
1
1
1
1
1
1
1
1
1
1
1
1
1
1
1
1
1
0.522158
0.45206
0.420735
0.498828
0.527527
0.418432
0.367672
0.528898
0.371826
0.450082
0.469375
0.446204
0.377195
0.349198
0.394203
0.366017
0.446992
0.406563
0.425157
0.373534
0.430885
0.436235
0.394203
0.411122
0.602694
0.481732
0.542336
0.53391
1
0.992088
0.986734
1
1
1
1
1
1
1
1
1
1
1
1
1
1
1
1
1
1
1
1
1
1
1
1
1
1
1
1
1
1
1
1
1
1
1
1
1
1
1
1
1
1
1
1
1
1
1
1
1
1
1
1
1
1
1
1
1
1
1
1
1
1
1
1
1
)
;
    }
    procBoundary2to3
    {
        type            processor;
        value           nonuniform List<scalar> 
192
(
0.431196
0.52863
0.576031
0.38643
0.518097
0.494397
0.486497
0.531264
0.412763
0.346929
0.360096
0.48123
0.349563
0.383796
0.336396
0.296896
0.46543
0.436463
0.404863
0.39433
0.436463
0.41803
0.415396
0.452263
0.568131
0.552331
0.547064
0.586564
1
1
1
1
1
1
1
1
1
1
1
1
1
1
1
1
1
1
1
1
1
1
1
1
1
1
1
1
1
1
1
1
1
1
1
1
1
1
1
1
1
1
1
1
1
1
1
1
1
1
1
1
1
1
1
1
1
1
1
1
1
1
1
1
1
1
1
1
0.506345
0.445055
0.465907
0.475627
0.478781
0.531281
0.505469
0.427306
0.413628
0.336719
0.355132
0.409409
0.398593
0.356617
0.34722
0.375406
0.38857
0.400836
0.442169
0.389723
0.416134
0.354407
0.48371
0.355719
0.661709
0.571078
0.691413
0.667122
1
1
1
1
1
1
1
1
1
1
1
1
1
1
1
1
1
1
1
1
1
1
1
1
1
1
1
1
1
1
1
1
1
1
1
1
1
1
1
1
1
1
1
1
1
1
1
1
1
1
1
1
1
1
1
1
1
1
1
1
1
1
1
1
1
1
1
1
)
;
    }
}


// ************************************************************************* //
