/*--------------------------------*- C++ -*----------------------------------*\
| =========                 |                                                 |
| \\      /  F ield         | OpenFOAM: The Open Source CFD Toolbox           |
|  \\    /   O peration     | Version:  2506                                  |
|   \\  /    A nd           | Website:  www.openfoam.com                      |
|    \\/     M anipulation  |                                                 |
\*---------------------------------------------------------------------------*/
FoamFile
{
    version     2.0;
    format      ascii;
    arch        "LSB;label=32;scalar=64";
    class       volScalarField;
    location    "0.06";
    object      Ksl;
}
// * * * * * * * * * * * * * * * * * * * * * * * * * * * * * * * * * * * * * //

dimensions      [1 -3 -1 0 0 0 0];

internalField   nonuniform List<scalar> 
1152
(
190748
154065
115533
229549
148113
252896
210830
179164
126097
215209
197164
178774
243377
200840
198582
125816
182508
170220
252554
312827
317699
180814
255398
204454
278565
285370
161580
260926
197664
123960
222835
422918
298048
311644
183453
138173
160593
282481
204719
259865
410315
223455
231917
235943
215875
167657
245965
185812
224166
344542
271806
175857
176995
230770
358601
282709
339393
217682
272591
293866
172001
218091
216713
222257
135320
550266
166704
291917
234055
376930
249575
220148
227499
175268
354690
219161
329681
267969
132000
264640
306659
119988
283927
365347
171119
231311
216278
193675
265903
294158
222614
186910
94628.8
186346
253539
372391
39510.7
85982.4
45179.6
21514.3
75780.6
85347.1
39755.4
13702.8
41861.9
37818.1
35281.2
26353.9
61889.3
29231.9
20706.5
40197.3
0
0
0
0
0
0
0
0
0
0
0
0
0
0
0
0
0
0
0
0
0
0
0
0
0
0
0
0
0
0
0
0
0
0
0
0
0
0
0
0
0
0
0
0
0
0
0
0
0
0
0
0
0
0
0
0
0
0
0
0
0
0
0
0
0
0
0
0
0
0
0
0
0
0
0
0
0
0
0
0
0
0
0
0
0
0
0
0
0
0
0
0
0
0
0
0
0
0
0
0
0
0
0
0
0
0
0
0
0
0
0
0
0
0
0
0
0
0
0
0
0
0
0
0
0
0
0
0
0
0
0
0
0
0
0
0
0
0
0
0
0
0
0
0
0
0
0
0
0
0
0
0
0
0
0
0
0
0
0
0
0
0
0
0
0
0
0
0
0
0
0
0
0
0
0
0
0
0
0
0
0
0
0
0
0
0
0
0
0
0
0
0
0
0
0
0
0
0
0
0
0
0
0
0
0
0
0
0
0
0
0
0
0
0
0
0
0
0
0
0
0
0
0
0
0
0
0
0
0
0
0
0
0
0
0
0
0
0
0
0
0
0
0
0
0
0
0
0
0
0
0
0
0
0
0
0
0
0
0
0
0
0
0
0
0
0
0
0
0
0
0
0
191035
159228
195053
194863
199132
263278
187685
191067
285075
223427
179240
207722
230434
182544
141529
204564
195477
242158
183707
286153
210478
182848
258216
237024
202841
227751
184344
263746
239251
251261
268868
158083
280465
270398
193941
93417.3
194386
267839
254420
335378
275890
134901
244662
320033
149527
237434
210341
166908
204112
238439
272212
230615
477308
144400
241291
373894
301204
279195
133380
206289
274960
197871
173021
223991
222186
312925
153438
459268
188130
361086
310601
176623
209518
146687
203503
410688
239752
228044
207569
102042
173682
237417
168272
287329
351518
188574
139207
130205
116564
320541
192444
269385
390294
226456
196850
168332
29838.3
36343.6
36604
42317
49025.8
24401.1
18021.7
29835.6
31199.7
60839.9
60045.1
57847.3
43060.1
43481.1
102607
48134.4
0
0
0
0
0
0
0
0
0
0
0
0
0
0
0
0
0
0
0
0
0
0
0
0
0
0
0
0
0
0
0
0
0
0
0
0
0
0
0
0
0
0
0
0
0
0
0
0
0
0
0
0
0
0
0
0
0
0
0
0
0
0
0
0
0
0
0
0
0
0
0
0
0
0
0
0
0
0
0
0
0
0
0
0
0
0
0
0
0
0
0
0
0
0
0
0
0
0
0
0
0
0
0
0
0
0
0
0
0
0
0
0
0
0
0
0
0
0
0
0
0
0
0
0
0
0
0
0
0
0
0
0
0
0
0
0
0
0
0
0
0
0
0
0
0
0
0
0
0
0
0
0
0
0
0
0
0
0
0
0
0
0
0
0
0
0
0
0
0
0
0
0
0
0
0
0
0
0
0
0
0
0
0
0
0
0
0
0
0
0
0
0
0
0
0
0
0
0
0
0
0
0
0
0
0
0
0
0
0
0
0
0
0
0
0
0
0
0
0
0
0
0
0
0
0
0
0
0
0
0
0
0
0
0
0
0
0
0
0
0
0
0
0
0
0
0
0
0
0
0
0
0
0
0
0
0
0
0
0
0
0
0
0
0
0
0
0
0
0
0
0
0
236471
148846
284503
243325
180150
249529
173725
149683
130149
210942
148652
279546
296993
144343
313676
167487
273586
185203
131486
248434
178199
221807
213809
169582
395787
178693
149362
247657
178684
277200
201230
181965
357201
289908
391314
170554
207160
268390
214885
281109
168843
323299
117506
237252
294589
172071
253294
167902
279902
265348
213948
306770
273285
202871
191623
228899
156133
234403
221454
144673
168473
218048
223264
148473
287758
220225
245426
192044
279111
293463
244612
243477
217074
353208
188933
191739
195733
192003
272118
209036
189529
191135
181904
185785
156171
254553
165626
175131
150633
358540
175722
301505
285997
237834
241169
200339
34134.1
35055.1
45913.4
42055.3
19629.3
55315.2
23697.7
28253.9
36189.2
24661.4
31636.9
35018.4
12717.4
86178.5
42903.2
41654
0
0
0
0
0
0
0
0
0
0
0
0
0
0
0
0
0
0
0
0
0
0
0
0
0
0
0
0
0
0
0
0
0
0
0
0
0
0
0
0
0
0
0
0
0
0
0
0
0
0
0
0
0
0
0
0
0
0
0
0
0
0
0
0
0
0
0
0
0
0
0
0
0
0
0
0
0
0
0
0
0
0
0
0
0
0
0
0
0
0
0
0
0
0
0
0
0
0
0
0
0
0
0
0
0
0
0
0
0
0
0
0
0
0
0
0
0
0
0
0
0
0
0
0
0
0
0
0
0
0
0
0
0
0
0
0
0
0
0
0
0
0
0
0
0
0
0
0
0
0
0
0
0
0
0
0
0
0
0
0
0
0
0
0
0
0
0
0
0
0
0
0
0
0
0
0
0
0
0
0
0
0
0
0
0
0
0
0
0
0
0
0
0
0
0
0
0
0
0
0
0
0
0
0
0
0
0
0
0
0
0
0
0
0
0
0
0
0
0
0
0
0
0
0
0
0
0
0
0
0
0
0
0
0
0
0
0
0
0
0
0
0
0
0
0
0
0
0
0
0
0
0
0
0
0
0
0
0
0
0
0
0
0
0
0
0
0
0
0
0
0
0
)
;

boundaryField
{
    inlet
    {
        type            zeroGradient;
    }
    outlet
    {
        type            zeroGradient;
    }
    wall
    {
        type            zeroGradient;
    }
    procBoundary3to1
    {
        type            processor;
        value           nonuniform List<scalar> 
192
(
207898
246935
257077
305281
241156
310193
178154
194516
226613
389766
241283
234117
202497
183241
209441
315612
371411
129161
292608
135116
310709
248928
306027
198394
165631
90594.5
139890
30404.5
0
477.771
512.841
0
0
0
0
0
0
0
0
0
0
0
0
0
0
0
0
0
0
0
0
0
0
0
0
0
0
0
0
0
0
0
0
0
0
0
0
0
0
0
0
0
0
0
0
0
0
0
0
0
0
0
0
0
0
0
0
0
0
0
0
0
0
0
0
0
146540
300289
110725
142603
209038
246172
231826
174902
198119
196362
201511
323161
177454
344179
151373
218947
217388
207917
199642
194618
243597
281318
298932
325201
70082.8
24176.6
64508.8
46828
0
0
0
0
0
0
0
0
0
0
0
0
0
0
0
0
0
0
0
0
0
0
0
0
0
0
0
0
0
0
0
0
0
0
0
0
0
0
0
0
0
0
0
0
0
0
0
0
0
0
0
0
0
0
0
0
0
0
0
0
0
0
0
0
0
0
0
0
)
;
    }
    procBoundary3to2
    {
        type            processor;
        value           nonuniform List<scalar> 
192
(
163768
294609
347008
156214
174848
223154
210292
400122
251896
492156
263590
280338
187750
294532
166059
565226
301232
235303
280975
213397
236046
363872
210769
582996
72789.2
65843.5
47816.8
22284.3
0
0
0
0
0
0
0
0
0
0
0
0
0
0
0
0
0
0
0
0
0
0
0
0
0
0
0
0
0
0
0
0
0
0
0
0
0
0
0
0
0
0
0
0
0
0
0
0
0
0
0
0
0
0
0
0
0
0
0
0
0
0
0
0
0
0
0
0
140848
213692
151611
138121
333708
297871
201672
190249
139887
229616
289972
369129
298469
257941
94092.6
155875
370199
297066
285167
199259
311122
203727
315308
133650
62368.8
60840.9
57487.2
126486
0
0
0
0
0
0
0
0
0
0
0
0
0
0
0
0
0
0
0
0
0
0
0
0
0
0
0
0
0
0
0
0
0
0
0
0
0
0
0
0
0
0
0
0
0
0
0
0
0
0
0
0
0
0
0
0
0
0
0
0
0
0
0
0
0
0
0
0
)
;
    }
}


// ************************************************************************* //
