/*--------------------------------*- C++ -*----------------------------------*\
| =========                 |                                                 |
| \\      /  F ield         | OpenFOAM: The Open Source CFD Toolbox           |
|  \\    /   O peration     | Version:  2506                                  |
|   \\  /    A nd           | Website:  www.openfoam.com                      |
|    \\/     M anipulation  |                                                 |
\*---------------------------------------------------------------------------*/
FoamFile
{
    version     2.0;
    format      ascii;
    arch        "LSB;label=32;scalar=64";
    class       volVectorField;
    location    "0.06";
    object      Us;
}
// * * * * * * * * * * * * * * * * * * * * * * * * * * * * * * * * * * * * * //

dimensions      [0 1 -1 0 0 0 0];

internalField   nonuniform List<vector> 
1152
(
(0.000451168 0.000720572 -0.000349758)
(0.000432057 0.000112732 -3.97992e-05)
(0.000498054 0.000463518 8.93343e-05)
(0.00080418 0.00112672 -0.000240473)
(0.0005292 0.000323318 1.48076e-05)
(0.000762427 0.000116487 -0.000101194)
(0.000599175 -0.000210095 -3.78835e-05)
(0.000816109 0.000539228 0.000342096)
(0.00113473 0.000573838 -0.00082346)
(0.0014983 0.000683541 4.81626e-05)
(0.000755982 -0.000394052 0.000162529)
(0.0009376 0.000164181 -0.000102565)
(0.000685166 0.000767257 -0.000544316)
(0.000346682 0.000167559 -0.000310051)
(0.00019515 -0.00039776 -0.000213448)
(0.000406592 0.000449526 -1.73081e-05)
(-0.000219768 -5.20695e-05 0.0025927)
(0.00091088 -5.46128e-07 0.00396635)
(0.00112523 0.000149824 0.00231259)
(0.000213866 -6.13499e-05 0.00263142)
(0.00099468 -0.00070674 0.00283633)
(0.00112607 -0.000162512 0.00426801)
(0.00125044 5.40186e-05 0.00308894)
(0.000707562 0.000361285 0.00449879)
(0.000932748 0.000936158 0.00322511)
(0.00179162 0.00022538 0.00218966)
(0.00113913 0.000272136 0.00416623)
(0.0011453 0.00130329 0.00292105)
(0.00133195 0.00105012 0.0041881)
(0.000474999 -0.000348214 0.00372567)
(0.000866827 0.00111779 0.00464967)
(0.00082088 0.00157473 0.00240225)
(-0.000630126 -0.000340656 0.00315752)
(-0.000408689 -0.00115317 0.00405718)
(0.000640979 0.000528422 0.00341661)
(-3.78562e-05 0.000372446 0.00250974)
(-0.000151108 0.000195744 0.00322862)
(-0.000269008 -0.000165409 0.00340952)
(-0.000505317 -0.000604237 0.0040078)
(-9.71068e-05 0.000611601 0.00324175)
(0.000777704 -5.62461e-05 0.00227135)
(0.000318257 0.000166508 0.00241256)
(0.000232738 -0.000280569 0.00320638)
(0.000230127 0.000687958 0.00225661)
(0.000763258 0.000321004 0.00257695)
(-0.000238126 0.000425344 0.00303021)
(0.000277763 5.01234e-05 0.00318575)
(3.81783e-05 0.000233087 0.00266398)
(-0.000252606 0.000238364 0.00248682)
(-0.000328657 -0.000146809 0.00245443)
(-8.53969e-05 0.000232519 0.00297583)
(-0.000369616 0.000378965 0.00243448)
(-0.000295227 0.000420617 0.00316743)
(-9.49167e-05 -4.91955e-05 0.00347171)
(-0.000383717 -0.000478735 0.00328119)
(-0.000424555 -0.000313368 0.00260386)
(0.000441277 -0.000163382 0.00228384)
(0.000223676 9.85621e-05 0.00245288)
(-0.000136256 0.000297133 0.00268817)
(-0.000289113 -3.1749e-05 0.00312805)
(0.000352677 -2.69659e-05 0.00225272)
(0.000211276 0.000157885 0.00250007)
(0.000268404 -1.22629e-05 0.00314042)
(-1.89558e-05 -0.000258814 0.00341899)
(-1.67307e-05 0.000162294 0.00198141)
(-6.43051e-05 0.00014176 0.00190739)
(-0.000362442 0.00057083 0.0022084)
(-0.000171232 9.32129e-05 0.00198828)
(-0.000236811 0.000132006 0.00219308)
(0.00023372 -0.00013072 0.00261404)
(-1.06591e-05 0.00018698 0.00230669)
(-1.72381e-05 -0.000145996 0.00240641)
(-5.46254e-05 0.000119271 0.00225621)
(0.000327535 -0.000173458 0.00289081)
(-8.49892e-05 0.00020804 0.00262731)
(-5.18296e-05 -0.000230863 0.00248963)
(-0.00013307 -0.000101248 0.00238312)
(-4.63898e-06 1.45008e-05 0.00236635)
(-1.96976e-05 -0.000178595 0.00285589)
(0.000177233 3.1463e-05 0.0021748)
(-0.0002471 0.000253828 0.00199331)
(0.000308559 0.000464895 0.00196978)
(-0.000111682 0.000229107 0.00207852)
(6.97432e-05 -0.000138905 0.00221507)
(-0.000158353 0.000144552 0.00224441)
(-7.21178e-05 0.000108072 0.00221626)
(-2.20625e-05 -0.000178321 0.0020948)
(0.000121136 -0.000106615 0.0023102)
(-0.000193702 2.928e-05 0.00222807)
(9.80241e-06 2.75246e-05 0.00236693)
(-5.38875e-05 -9.27565e-05 0.00226718)
(7.66129e-05 -0.000216775 0.00221778)
(-0.000429749 -0.000134188 0.00199506)
(-0.000219339 5.84686e-05 0.0022028)
(-0.000299475 -0.000235341 0.00232504)
(-0.000152096 -9.91513e-05 0.00191363)
(-0.00016807 5.87459e-05 0.00194288)
(-0.0001426 -6.90398e-05 0.00184767)
(2.96006e-05 0.000108879 0.00197212)
(0.000376194 -8.22025e-05 0.00209036)
(-0.000147122 3.50295e-05 0.00209154)
(-5.92061e-06 8.45148e-05 0.00205476)
(-0.000438978 0.000448129 0.00206553)
(-0.000213052 -0.000193962 0.00201388)
(-0.000310551 0.000103363 0.00215739)
(-4.823e-05 0.000402207 0.00212277)
(-0.000102977 0.000562001 0.00217679)
(-0.000172504 -0.00017733 0.00240538)
(-0.000532964 7.85813e-05 0.00183522)
(-0.000460723 5.22605e-05 0.00191114)
(-0.000539102 6.99995e-05 0.0022096)
(-0.00115081 -0.000671752 0.00192191)
(0 0 0)
(0 0 0)
(0 0 0)
(0 0 0)
(0 0 0)
(0 0 0)
(0 0 0)
(0 0 0)
(0 0 0)
(0 0 0)
(0 0 0)
(0 0 0)
(0 0 0)
(0 0 0)
(0 0 0)
(0 0 0)
(0 0 0)
(0 0 0)
(0 0 0)
(0 0 0)
(0 0 0)
(0 0 0)
(0 0 0)
(0 0 0)
(0 0 0)
(0 0 0)
(0 0 0)
(0 0 0)
(0 0 0)
(0 0 0)
(0 0 0)
(0 0 0)
(0 0 0)
(0 0 0)
(0 0 0)
(0 0 0)
(0 0 0)
(0 0 0)
(0 0 0)
(0 0 0)
(0 0 0)
(0 0 0)
(0 0 0)
(0 0 0)
(0 0 0)
(0 0 0)
(0 0 0)
(0 0 0)
(0 0 0)
(0 0 0)
(0 0 0)
(0 0 0)
(0 0 0)
(0 0 0)
(0 0 0)
(0 0 0)
(0 0 0)
(0 0 0)
(0 0 0)
(0 0 0)
(0 0 0)
(0 0 0)
(0 0 0)
(0 0 0)
(0 0 0)
(0 0 0)
(0 0 0)
(0 0 0)
(0 0 0)
(0 0 0)
(0 0 0)
(0 0 0)
(0 0 0)
(0 0 0)
(0 0 0)
(0 0 0)
(0 0 0)
(0 0 0)
(0 0 0)
(0 0 0)
(0 0 0)
(0 0 0)
(0 0 0)
(0 0 0)
(0 0 0)
(0 0 0)
(0 0 0)
(0 0 0)
(0 0 0)
(0 0 0)
(0 0 0)
(0 0 0)
(0 0 0)
(0 0 0)
(0 0 0)
(0 0 0)
(0 0 0)
(0 0 0)
(0 0 0)
(0 0 0)
(0 0 0)
(0 0 0)
(0 0 0)
(0 0 0)
(0 0 0)
(0 0 0)
(0 0 0)
(0 0 0)
(0 0 0)
(0 0 0)
(0 0 0)
(0 0 0)
(0 0 0)
(0 0 0)
(0 0 0)
(0 0 0)
(0 0 0)
(0 0 0)
(0 0 0)
(0 0 0)
(0 0 0)
(0 0 0)
(0 0 0)
(0 0 0)
(0 0 0)
(0 0 0)
(0 0 0)
(0 0 0)
(0 0 0)
(0 0 0)
(0 0 0)
(0 0 0)
(0 0 0)
(0 0 0)
(0 0 0)
(0 0 0)
(0 0 0)
(0 0 0)
(0 0 0)
(0 0 0)
(0 0 0)
(0 0 0)
(0 0 0)
(0 0 0)
(0 0 0)
(0 0 0)
(0 0 0)
(0 0 0)
(0 0 0)
(0 0 0)
(0 0 0)
(0 0 0)
(0 0 0)
(0 0 0)
(0 0 0)
(0 0 0)
(0 0 0)
(0 0 0)
(0 0 0)
(0 0 0)
(0 0 0)
(0 0 0)
(0 0 0)
(0 0 0)
(0 0 0)
(0 0 0)
(0 0 0)
(0 0 0)
(0 0 0)
(0 0 0)
(0 0 0)
(0 0 0)
(0 0 0)
(0 0 0)
(0 0 0)
(0 0 0)
(0 0 0)
(0 0 0)
(0 0 0)
(0 0 0)
(0 0 0)
(0 0 0)
(0 0 0)
(0 0 0)
(0 0 0)
(0 0 0)
(0 0 0)
(0 0 0)
(0 0 0)
(0 0 0)
(0 0 0)
(0 0 0)
(0 0 0)
(0 0 0)
(0 0 0)
(0 0 0)
(0 0 0)
(0 0 0)
(0 0 0)
(0 0 0)
(0 0 0)
(0 0 0)
(0 0 0)
(0 0 0)
(0 0 0)
(0 0 0)
(0 0 0)
(0 0 0)
(0 0 0)
(0 0 0)
(0 0 0)
(0 0 0)
(0 0 0)
(0 0 0)
(0 0 0)
(0 0 0)
(0 0 0)
(0 0 0)
(0 0 0)
(0 0 0)
(0 0 0)
(0 0 0)
(0 0 0)
(0 0 0)
(0 0 0)
(0 0 0)
(0 0 0)
(0 0 0)
(0 0 0)
(0 0 0)
(0 0 0)
(0 0 0)
(0 0 0)
(0 0 0)
(0 0 0)
(0 0 0)
(0 0 0)
(0 0 0)
(0 0 0)
(0 0 0)
(0 0 0)
(0 0 0)
(0 0 0)
(0 0 0)
(0 0 0)
(0 0 0)
(0 0 0)
(0 0 0)
(0 0 0)
(0 0 0)
(0 0 0)
(0 0 0)
(0 0 0)
(0 0 0)
(0 0 0)
(0 0 0)
(0 0 0)
(0 0 0)
(0 0 0)
(0 0 0)
(0 0 0)
(0 0 0)
(0 0 0)
(0 0 0)
(0 0 0)
(0 0 0)
(0 0 0)
(0 0 0)
(0 0 0)
(0 0 0)
(0 0 0)
(0 0 0)
(0.000816574 0.000522602 0.00032612)
(0.000539248 -8.2212e-05 0.000161404)
(0.00133877 -0.000427117 -0.000216688)
(0.000335955 -0.00067985 -0.000503187)
(0.000407864 0.000396553 -0.000291724)
(0.000457931 5.52024e-05 -0.000210292)
(0.000569251 -0.00030708 -0.000922493)
(0.000184717 4.70222e-05 -0.000290723)
(7.05822e-05 -5.54637e-05 -5.84163e-05)
(0.000213118 0.00016346 -3.66634e-05)
(0.000240538 0.000394035 -0.000269199)
(0.00045266 -5.80538e-06 -4.12867e-05)
(-0.000209112 -0.000105022 0.000107519)
(5.92522e-05 -9.03089e-05 -0.00031667)
(-9.08804e-06 0.000199531 -0.000131347)
(0.000391507 -0.00020225 0.000272022)
(0.000491088 0.000823529 0.0031543)
(0.00127447 0.0013728 0.00248362)
(0.0014294 0.001016 0.00447225)
(0.00101712 0.000724707 0.00253828)
(0.000338266 0.000544534 0.0022249)
(0.000340543 0.000925229 0.00171037)
(-1.13613e-05 -9.7983e-05 0.0016953)
(0.00067049 0.000818824 0.00233637)
(0.000179023 0.000561484 0.00205184)
(-0.000319589 -1.51888e-05 0.00135648)
(-0.000815601 -0.000775032 0.00322443)
(0.000689461 0.000848109 0.00299449)
(0.000511825 0.000722528 0.00234616)
(-0.000795928 -8.52122e-07 0.00151069)
(6.99973e-05 -0.000535973 0.00221262)
(-0.000169855 0.000414684 0.0021503)
(0.000623366 0.000306636 0.00409789)
(-1.03375e-05 -5.50463e-05 0.00232177)
(1.30734e-05 0.000118112 0.00386105)
(0.000315368 0.00031691 0.00165737)
(-0.000308602 -0.000422057 0.00369917)
(0.00026301 1.02647e-06 0.00162357)
(0.000281591 0.000212408 0.00229985)
(0.0003472 -6.8516e-05 0.00196468)
(-0.000120573 0.000717592 0.00211732)
(0.000475992 -6.78254e-05 0.00157216)
(0.000470388 0.000407622 0.00265047)
(0.000300692 0.000118072 0.00319709)
(0.000502699 0.000231312 0.00278913)
(-0.000439046 7.47778e-05 0.00154469)
(0.000514418 -0.000281367 0.0025061)
(-8.51461e-05 5.74438e-05 0.00396524)
(0.000160409 0.000179401 0.00263017)
(0.000831055 -0.000377377 0.00283852)
(0.00139938 -0.000179374 0.00340595)
(-1.41572e-06 -0.00067994 0.00320923)
(0.000633104 2.14285e-05 0.001966)
(-0.00024601 -0.00076671 0.00236771)
(0.000301233 -9.47265e-05 0.00197293)
(-1.29476e-05 -0.000213406 0.0020627)
(0.000798623 -0.000198355 0.001316)
(0.000277673 -0.000212315 0.00169894)
(1.13347e-05 -0.000127213 0.00208347)
(-7.60833e-05 6.42903e-07 0.00168788)
(0.000789436 -0.000297967 0.00289823)
(-0.000128996 -5.57024e-05 0.00146013)
(-8.09916e-05 -4.90977e-05 0.00235955)
(-0.000103825 0.00045781 0.0028656)
(7.32711e-05 3.60665e-05 0.00196562)
(0.000356066 -8.37888e-05 0.00225727)
(0.000123751 -0.000321053 0.00222215)
(0.000247008 0.000378664 0.00272655)
(7.89066e-05 -9.56929e-05 0.00181912)
(0.000112302 -0.000303585 0.00195133)
(0.00014298 -0.000400117 0.00203684)
(-8.06396e-05 2.3916e-05 0.00231915)
(1.81606e-05 -0.000102572 0.00279955)
(-0.000100231 -0.000376722 0.00143616)
(-0.000176396 -0.000296308 0.001771)
(1.5012e-05 -7.62511e-05 0.00140137)
(0.000362092 -0.00120369 0.00162263)
(0.000632364 -0.000496616 0.00129832)
(-0.000235813 -0.000602748 0.00226381)
(-0.000401392 -0.000787017 0.00289281)
(-0.000359469 -0.000252771 0.0019077)
(-0.000269945 -0.00029887 0.00166938)
(-0.000410702 -0.000283026 0.00191726)
(-0.000482436 -0.000180462 0.00197625)
(-0.000299514 -0.000104288 0.00158585)
(-0.000186356 -0.000436698 0.00166112)
(0.000120395 -0.000428626 0.0014767)
(0.000204414 -0.00071078 0.00194919)
(0.000208854 -0.000304549 0.0015733)
(0.000122733 -0.00038649 0.00161844)
(9.83687e-06 -0.00052661 0.00112503)
(5.96668e-05 -0.000621476 0.00142597)
(0.000336649 -0.00019267 0.000795517)
(0.000238009 -0.000192009 0.000681654)
(-2.6831e-05 -4.57428e-06 0.000939982)
(1.16796e-05 -0.000634472 0.000904319)
(-0.000777068 -0.000532478 0.00154365)
(-0.000747226 -0.000351445 0.00124271)
(0.000144633 -6.16271e-05 0.00180597)
(-0.000184299 0.000166849 0.00163772)
(-0.00046357 -0.000129439 0.00143319)
(0.000100467 -0.000364697 0.00141288)
(0.000181979 -0.000696244 0.0013234)
(0.000181165 -0.000285652 0.00134496)
(0.000253742 5.9815e-05 0.00142862)
(-0.00013007 -0.000191017 0.00134768)
(0.000229305 -0.00127813 0.00121538)
(-0.000169957 -9.41071e-05 0.00123994)
(9.73114e-05 0.000177196 0.000865733)
(0.000476349 -0.00151505 0.000383496)
(0.000131739 -0.0012446 0.000859834)
(-2.8297e-05 0.000339163 0.00025858)
(0 0 0)
(0 0 0)
(0 0 0)
(0 0 0)
(0 0 0)
(0 0 0)
(0 0 0)
(0 0 0)
(0 0 0)
(0 0 0)
(0 0 0)
(0 0 0)
(0 0 0)
(0 0 0)
(0 0 0)
(0 0 0)
(0 0 0)
(0 0 0)
(0 0 0)
(0 0 0)
(0 0 0)
(0 0 0)
(0 0 0)
(0 0 0)
(0 0 0)
(0 0 0)
(0 0 0)
(0 0 0)
(0 0 0)
(0 0 0)
(0 0 0)
(0 0 0)
(0 0 0)
(0 0 0)
(0 0 0)
(0 0 0)
(0 0 0)
(0 0 0)
(0 0 0)
(0 0 0)
(0 0 0)
(0 0 0)
(0 0 0)
(0 0 0)
(0 0 0)
(0 0 0)
(0 0 0)
(0 0 0)
(0 0 0)
(0 0 0)
(0 0 0)
(0 0 0)
(0 0 0)
(0 0 0)
(0 0 0)
(0 0 0)
(0 0 0)
(0 0 0)
(0 0 0)
(0 0 0)
(0 0 0)
(0 0 0)
(0 0 0)
(0 0 0)
(0 0 0)
(0 0 0)
(0 0 0)
(0 0 0)
(0 0 0)
(0 0 0)
(0 0 0)
(0 0 0)
(0 0 0)
(0 0 0)
(0 0 0)
(0 0 0)
(0 0 0)
(0 0 0)
(0 0 0)
(0 0 0)
(0 0 0)
(0 0 0)
(0 0 0)
(0 0 0)
(0 0 0)
(0 0 0)
(0 0 0)
(0 0 0)
(0 0 0)
(0 0 0)
(0 0 0)
(0 0 0)
(0 0 0)
(0 0 0)
(0 0 0)
(0 0 0)
(0 0 0)
(0 0 0)
(0 0 0)
(0 0 0)
(0 0 0)
(0 0 0)
(0 0 0)
(0 0 0)
(0 0 0)
(0 0 0)
(0 0 0)
(0 0 0)
(0 0 0)
(0 0 0)
(0 0 0)
(0 0 0)
(0 0 0)
(0 0 0)
(0 0 0)
(0 0 0)
(0 0 0)
(0 0 0)
(0 0 0)
(0 0 0)
(0 0 0)
(0 0 0)
(0 0 0)
(0 0 0)
(0 0 0)
(0 0 0)
(0 0 0)
(0 0 0)
(0 0 0)
(0 0 0)
(0 0 0)
(0 0 0)
(0 0 0)
(0 0 0)
(0 0 0)
(0 0 0)
(0 0 0)
(0 0 0)
(0 0 0)
(0 0 0)
(0 0 0)
(0 0 0)
(0 0 0)
(0 0 0)
(0 0 0)
(0 0 0)
(0 0 0)
(0 0 0)
(0 0 0)
(0 0 0)
(0 0 0)
(0 0 0)
(0 0 0)
(0 0 0)
(0 0 0)
(0 0 0)
(0 0 0)
(0 0 0)
(0 0 0)
(0 0 0)
(0 0 0)
(0 0 0)
(0 0 0)
(0 0 0)
(0 0 0)
(0 0 0)
(0 0 0)
(0 0 0)
(0 0 0)
(0 0 0)
(0 0 0)
(0 0 0)
(0 0 0)
(0 0 0)
(0 0 0)
(0 0 0)
(0 0 0)
(0 0 0)
(0 0 0)
(0 0 0)
(0 0 0)
(0 0 0)
(0 0 0)
(0 0 0)
(0 0 0)
(0 0 0)
(0 0 0)
(0 0 0)
(0 0 0)
(0 0 0)
(0 0 0)
(0 0 0)
(0 0 0)
(0 0 0)
(0 0 0)
(0 0 0)
(0 0 0)
(0 0 0)
(0 0 0)
(0 0 0)
(0 0 0)
(0 0 0)
(0 0 0)
(0 0 0)
(0 0 0)
(0 0 0)
(0 0 0)
(0 0 0)
(0 0 0)
(0 0 0)
(0 0 0)
(0 0 0)
(0 0 0)
(0 0 0)
(0 0 0)
(0 0 0)
(0 0 0)
(0 0 0)
(0 0 0)
(0 0 0)
(0 0 0)
(0 0 0)
(0 0 0)
(0 0 0)
(0 0 0)
(0 0 0)
(0 0 0)
(0 0 0)
(0 0 0)
(0 0 0)
(0 0 0)
(0 0 0)
(0 0 0)
(0 0 0)
(0 0 0)
(0 0 0)
(0 0 0)
(0 0 0)
(0 0 0)
(0 0 0)
(0 0 0)
(0 0 0)
(0 0 0)
(0 0 0)
(0 0 0)
(0 0 0)
(0 0 0)
(0 0 0)
(0 0 0)
(0 0 0)
(0 0 0)
(0 0 0)
(0 0 0)
(0 0 0)
(0 0 0)
(0 0 0)
(0 0 0)
(0 0 0)
(0 0 0)
(0 0 0)
(0 0 0)
(0 0 0)
(0 0 0)
(0 0 0)
(0 0 0)
(0 0 0)
(0 0 0)
(0 0 0)
(0 0 0)
(0 0 0)
(0 0 0)
(0 0 0)
(0.00108942 0.000386193 -0.00226575)
(0.000399633 -0.000343798 -0.000519418)
(-0.000160852 -0.000198709 7.40869e-05)
(-0.000348172 -0.000130726 -0.000304248)
(0.00109162 0.000102035 -0.000690011)
(0.0012487 8.89845e-05 -0.000514009)
(0.00036885 -5.45807e-05 -0.000223918)
(-8.65997e-05 7.34562e-05 -0.000145151)
(0.000582353 0.000431424 -0.000312607)
(0.000263977 0.000151702 -0.000103463)
(7.15377e-05 0.00034629 1.92757e-05)
(-0.000115776 0.000412459 -9.05318e-05)
(0.000434665 -2.32195e-05 -0.000153445)
(0.000327217 -0.000343636 -0.00025858)
(6.05982e-05 0.000282995 -9.55816e-05)
(-0.000261646 0.000401253 -4.84682e-05)
(-0.000629434 0.000742896 0.00257141)
(0.000352909 0.000491213 0.00259791)
(0.00142012 0.00123745 0.00364356)
(0.00054691 0.00101534 0.00263152)
(0.000688702 0.000989015 0.00356052)
(0.00046045 0.00107642 0.00262575)
(2.84035e-05 0.00121772 0.00273239)
(-0.00020608 0.00103556 0.00201385)
(0.000593842 0.00131868 0.00142311)
(0.000779153 0.000689531 0.00263604)
(-8.47555e-05 0.00101045 0.00190119)
(-0.00026061 0.00107097 0.00163447)
(0.000887039 0.00086226 0.00268298)
(0.000454205 0.000906381 0.00164336)
(0.000260367 0.00142648 0.00203377)
(-0.000310956 0.000726087 0.00322147)
(-4.21169e-05 0.000654341 0.00217212)
(-0.000296673 0.000460012 0.00248624)
(-0.000141017 0.000761254 0.00255264)
(-5.70571e-05 0.000748506 0.00255878)
(-0.000619137 -3.15552e-05 0.00309265)
(-0.0003249 0.00070794 0.00258951)
(-0.000536152 0.000514998 0.00366697)
(-0.00081308 0.000909886 0.00327995)
(-9.78229e-05 0.000504742 0.00213197)
(7.04525e-05 3.90975e-05 0.00255409)
(0.000838086 -0.000269021 0.0049833)
(-1.83147e-05 0.000708108 0.00189474)
(0.000208265 -0.000422394 0.00313783)
(0.000608548 -4.41488e-05 0.00301827)
(1.81624e-05 0.000774577 0.00226509)
(-0.000155322 0.000729075 0.00250169)
(5.12314e-05 0.000417109 0.00184976)
(0.00038113 0.000235167 0.00215088)
(-1.38786e-05 0.000408558 0.00260221)
(-1.32025e-05 5.6108e-05 0.00240284)
(-7.76425e-05 -6.95943e-05 0.00216649)
(6.78801e-05 0.000331358 0.00249061)
(2.12577e-05 -0.000160739 0.00324255)
(4.54354e-05 -0.000497793 0.00296608)
(-0.000354764 0.000609803 0.0050803)
(-1.52152e-05 0.000115658 0.00242795)
(0.000270854 5.57523e-05 0.002246)
(-0.000147919 4.93634e-05 0.00301458)
(-0.000211536 -0.000322071 0.00251455)
(-0.00064698 0.000183183 0.00221261)
(-0.000393059 3.51299e-05 0.00180345)
(0.000364989 0.000263405 0.00208425)
(-0.000333242 0.000113693 0.00202662)
(-0.000368273 2.94993e-05 0.00200588)
(-0.000391392 -6.34886e-05 0.00177379)
(0.000276634 -0.000552372 0.00259278)
(-7.62411e-05 5.74116e-06 0.00286157)
(-0.000437071 0.000142096 0.00238898)
(-0.000152257 -0.000198627 0.00238874)
(0.000128195 -0.000440336 0.00238662)
(1.35126e-05 0.000154321 0.00292097)
(-0.000271935 7.06298e-05 0.00232258)
(-0.000135418 -1.18761e-05 0.0015245)
(6.2989e-05 -4.75761e-05 0.0013183)
(0.000129566 0.000365744 0.00280646)
(-0.000594638 0.000556662 0.00282193)
(-0.000468542 -0.000200641 0.0013983)
(-0.000351952 5.98559e-05 0.00221169)
(-0.000160908 -2.46626e-05 0.00227245)
(-0.000353841 0.000467015 0.00171661)
(-0.000674222 0.000516778 0.00190163)
(-0.000163967 0.000489467 0.000832688)
(0.000108244 9.10188e-05 0.00221361)
(-0.000163082 0.000438923 0.0021488)
(-0.000459386 0.000436106 0.00209829)
(-0.000153838 0.000593841 0.00122788)
(7.15898e-05 -4.05855e-05 0.00241084)
(8.38511e-05 -1.55046e-05 0.00253438)
(1.05113e-05 0.000171894 0.00143694)
(0.000246125 -0.000421788 0.000740052)
(-0.00034586 -8.22567e-05 0.00223824)
(-0.000221358 -0.000326654 0.0022468)
(-0.000254138 -3.45782e-05 0.00101889)
(0.000166311 -0.000199523 0.000752085)
(4.77789e-05 -0.000511629 0.00243128)
(0.000123544 0.00022139 0.00180776)
(0.00039164 0.000715076 0.00143056)
(0.00017789 0.000569181 0.000876825)
(-0.00025563 0.000170915 0.00216669)
(-0.000278222 3.26741e-05 0.00220982)
(2.68865e-05 0.000679883 0.00216746)
(0.00102587 0.000674473 0.00119766)
(-0.000135817 -0.000173911 0.00208976)
(5.35043e-05 -0.00021291 0.00236425)
(0.000168669 0.000824347 0.00144614)
(-0.00023878 0.000574679 0.000925788)
(-0.000473922 -0.00028012 0.00222101)
(0.000326273 0.000132117 0.00200603)
(0.000347978 -0.000635838 0.000759627)
(0.000176818 -0.000434786 0.000624609)
(0 0 0)
(0 0 0)
(0 0 0)
(0 0 0)
(0 0 0)
(0 0 0)
(0 0 0)
(0 0 0)
(0 0 0)
(0 0 0)
(0 0 0)
(0 0 0)
(0 0 0)
(0 0 0)
(0 0 0)
(0 0 0)
(0 0 0)
(0 0 0)
(0 0 0)
(0 0 0)
(0 0 0)
(0 0 0)
(0 0 0)
(0 0 0)
(0 0 0)
(0 0 0)
(0 0 0)
(0 0 0)
(0 0 0)
(0 0 0)
(0 0 0)
(0 0 0)
(0 0 0)
(0 0 0)
(0 0 0)
(0 0 0)
(0 0 0)
(0 0 0)
(0 0 0)
(0 0 0)
(0 0 0)
(0 0 0)
(0 0 0)
(0 0 0)
(0 0 0)
(0 0 0)
(0 0 0)
(0 0 0)
(0 0 0)
(0 0 0)
(0 0 0)
(0 0 0)
(0 0 0)
(0 0 0)
(0 0 0)
(0 0 0)
(0 0 0)
(0 0 0)
(0 0 0)
(0 0 0)
(0 0 0)
(0 0 0)
(0 0 0)
(0 0 0)
(0 0 0)
(0 0 0)
(0 0 0)
(0 0 0)
(0 0 0)
(0 0 0)
(0 0 0)
(0 0 0)
(0 0 0)
(0 0 0)
(0 0 0)
(0 0 0)
(0 0 0)
(0 0 0)
(0 0 0)
(0 0 0)
(0 0 0)
(0 0 0)
(0 0 0)
(0 0 0)
(0 0 0)
(0 0 0)
(0 0 0)
(0 0 0)
(0 0 0)
(0 0 0)
(0 0 0)
(0 0 0)
(0 0 0)
(0 0 0)
(0 0 0)
(0 0 0)
(0 0 0)
(0 0 0)
(0 0 0)
(0 0 0)
(0 0 0)
(0 0 0)
(0 0 0)
(0 0 0)
(0 0 0)
(0 0 0)
(0 0 0)
(0 0 0)
(0 0 0)
(0 0 0)
(0 0 0)
(0 0 0)
(0 0 0)
(0 0 0)
(0 0 0)
(0 0 0)
(0 0 0)
(0 0 0)
(0 0 0)
(0 0 0)
(0 0 0)
(0 0 0)
(0 0 0)
(0 0 0)
(0 0 0)
(0 0 0)
(0 0 0)
(0 0 0)
(0 0 0)
(0 0 0)
(0 0 0)
(0 0 0)
(0 0 0)
(0 0 0)
(0 0 0)
(0 0 0)
(0 0 0)
(0 0 0)
(0 0 0)
(0 0 0)
(0 0 0)
(0 0 0)
(0 0 0)
(0 0 0)
(0 0 0)
(0 0 0)
(0 0 0)
(0 0 0)
(0 0 0)
(0 0 0)
(0 0 0)
(0 0 0)
(0 0 0)
(0 0 0)
(0 0 0)
(0 0 0)
(0 0 0)
(0 0 0)
(0 0 0)
(0 0 0)
(0 0 0)
(0 0 0)
(0 0 0)
(0 0 0)
(0 0 0)
(0 0 0)
(0 0 0)
(0 0 0)
(0 0 0)
(0 0 0)
(0 0 0)
(0 0 0)
(0 0 0)
(0 0 0)
(0 0 0)
(0 0 0)
(0 0 0)
(0 0 0)
(0 0 0)
(0 0 0)
(0 0 0)
(0 0 0)
(0 0 0)
(0 0 0)
(0 0 0)
(0 0 0)
(0 0 0)
(0 0 0)
(0 0 0)
(0 0 0)
(0 0 0)
(0 0 0)
(0 0 0)
(0 0 0)
(0 0 0)
(0 0 0)
(0 0 0)
(0 0 0)
(0 0 0)
(0 0 0)
(0 0 0)
(0 0 0)
(0 0 0)
(0 0 0)
(0 0 0)
(0 0 0)
(0 0 0)
(0 0 0)
(0 0 0)
(0 0 0)
(0 0 0)
(0 0 0)
(0 0 0)
(0 0 0)
(0 0 0)
(0 0 0)
(0 0 0)
(0 0 0)
(0 0 0)
(0 0 0)
(0 0 0)
(0 0 0)
(0 0 0)
(0 0 0)
(0 0 0)
(0 0 0)
(0 0 0)
(0 0 0)
(0 0 0)
(0 0 0)
(0 0 0)
(0 0 0)
(0 0 0)
(0 0 0)
(0 0 0)
(0 0 0)
(0 0 0)
(0 0 0)
(0 0 0)
(0 0 0)
(0 0 0)
(0 0 0)
(0 0 0)
(0 0 0)
(0 0 0)
(0 0 0)
(0 0 0)
(0 0 0)
(0 0 0)
(0 0 0)
(0 0 0)
(0 0 0)
(0 0 0)
(0 0 0)
(0 0 0)
(0 0 0)
(0 0 0)
(0 0 0)
(0 0 0)
(0 0 0)
(0 0 0)
(0 0 0)
(0 0 0)
(0 0 0)
(0 0 0)
(0 0 0)
(0 0 0)
(0 0 0)
(0 0 0)
(0 0 0)
(0 0 0)
(0 0 0)
)
;

boundaryField
{
    inlet
    {
        type            zeroGradient;
    }
    outlet
    {
        type            zeroGradient;
    }
    wall
    {
        type            zeroGradient;
    }
    procBoundary3to1
    {
        type            processor;
        value           nonuniform List<vector> 
192
(
(0.000154902 0.000903142 0.000107917)
(0.000881867 0.000331198 -0.000595626)
(0.00136059 0.00105491 -0.00097537)
(0.00120578 0.000161316 -0.000270864)
(0.000382981 0.000557073 0.00368572)
(0.000844512 -7.14965e-05 0.0026202)
(0.000598696 4.73059e-05 0.00318944)
(0.000271514 0.00150696 0.00412265)
(5.03963e-05 -3.73483e-05 0.0024675)
(0.00034147 -0.000648627 0.00225919)
(-0.00033158 -0.00013085 0.00225067)
(-3.22194e-05 3.34117e-05 0.00305682)
(0.000142553 -0.000284448 0.00185775)
(0.000136573 -7.58352e-05 0.00207023)
(-0.000119092 7.32036e-05 0.00209124)
(-0.000176782 0.000175076 0.00270468)
(8.60164e-05 0.000208 0.00204121)
(-0.000132714 0.000224619 0.00187714)
(2.33173e-05 0.000208251 0.00215558)
(0.000159813 0.000341347 0.0020885)
(-3.55415e-05 0.000352092 0.00183769)
(-6.64611e-05 0.000144315 0.00189988)
(-5.41073e-05 3.15573e-05 0.0020014)
(-1.02323e-05 -2.61174e-05 0.00199511)
(-0.000230176 0.000104615 0.0018641)
(-0.000120088 7.59157e-05 0.00175416)
(-0.00010187 5.89909e-05 0.00191297)
(2.9126e-05 4.68029e-06 0.00185949)
(0 0 0)
(2.33542e-05 1.76575e-05 0.00164112)
(-0.000161244 0.000178362 0.00187212)
(0 0 0)
(0 0 0)
(0 0 0)
(0 0 0)
(0 0 0)
(0 0 0)
(0 0 0)
(0 0 0)
(0 0 0)
(0 0 0)
(0 0 0)
(0 0 0)
(0 0 0)
(0 0 0)
(0 0 0)
(0 0 0)
(0 0 0)
(0 0 0)
(0 0 0)
(0 0 0)
(0 0 0)
(0 0 0)
(0 0 0)
(0 0 0)
(0 0 0)
(0 0 0)
(0 0 0)
(0 0 0)
(0 0 0)
(0 0 0)
(0 0 0)
(0 0 0)
(0 0 0)
(0 0 0)
(0 0 0)
(0 0 0)
(0 0 0)
(0 0 0)
(0 0 0)
(0 0 0)
(0 0 0)
(0 0 0)
(0 0 0)
(0 0 0)
(0 0 0)
(0 0 0)
(0 0 0)
(0 0 0)
(0 0 0)
(0 0 0)
(0 0 0)
(0 0 0)
(0 0 0)
(0 0 0)
(0 0 0)
(0 0 0)
(0 0 0)
(0 0 0)
(0 0 0)
(0 0 0)
(0 0 0)
(0 0 0)
(0 0 0)
(0 0 0)
(0 0 0)
(0.00105929 0.000143083 -0.000925961)
(0.000352917 -0.000777962 -0.000369973)
(0.000790159 -0.000968149 -3.22433e-05)
(0.000148754 6.97084e-05 -0.000744516)
(0.000145365 -8.62307e-06 0.00243942)
(-0.000106588 -0.000355176 0.00234596)
(-0.000274524 -0.000311364 0.00197085)
(3.31274e-05 0.000991813 0.00411449)
(0.000592806 0.000738032 0.00292559)
(0.000843436 0.00103391 0.00291803)
(0.000799477 0.000483184 0.00262714)
(0.000263363 0.000575166 0.00234494)
(7.45754e-05 0.000543795 0.00328288)
(0.000136896 0.000741447 0.00214464)
(-0.000277018 0.000427291 0.00276273)
(0.000180158 0.000514647 0.00144295)
(0.000108433 0.000293922 0.00204972)
(-0.000269699 0.000200475 0.00218012)
(-0.000277687 0.000281932 0.0019028)
(0.000159252 6.40911e-05 0.00151665)
(-0.00011157 0.000110573 0.00200666)
(-0.000113955 0.000250402 0.00179138)
(0.000212983 0.000527654 0.0013696)
(4.36237e-05 0.000199123 0.000800564)
(0.000244809 4.35479e-05 0.00204784)
(0.000706095 -0.000177353 0.00155298)
(0.000601498 0.000704467 0.00122914)
(0.000169125 0.000326322 0.000963322)
(0 0 0)
(0 0 0)
(0 0 0)
(0 0 0)
(0 0 0)
(0 0 0)
(0 0 0)
(0 0 0)
(0 0 0)
(0 0 0)
(0 0 0)
(0 0 0)
(0 0 0)
(0 0 0)
(0 0 0)
(0 0 0)
(0 0 0)
(0 0 0)
(0 0 0)
(0 0 0)
(0 0 0)
(0 0 0)
(0 0 0)
(0 0 0)
(0 0 0)
(0 0 0)
(0 0 0)
(0 0 0)
(0 0 0)
(0 0 0)
(0 0 0)
(0 0 0)
(0 0 0)
(0 0 0)
(0 0 0)
(0 0 0)
(0 0 0)
(0 0 0)
(0 0 0)
(0 0 0)
(0 0 0)
(0 0 0)
(0 0 0)
(0 0 0)
(0 0 0)
(0 0 0)
(0 0 0)
(0 0 0)
(0 0 0)
(0 0 0)
(0 0 0)
(0 0 0)
(0 0 0)
(0 0 0)
(0 0 0)
(0 0 0)
(0 0 0)
(0 0 0)
(0 0 0)
(0 0 0)
(0 0 0)
(0 0 0)
(0 0 0)
(0 0 0)
(0 0 0)
(0 0 0)
(0 0 0)
(0 0 0)
)
;
    }
    procBoundary3to2
    {
        type            processor;
        value           nonuniform List<vector> 
192
(
(1.50629e-05 0.000326008 -0.00036997)
(-0.000441928 0.000932399 -0.000251861)
(-0.000374223 0.00115049 -0.000900879)
(0.000944837 0.00113952 -0.000851153)
(-0.000770648 0.000281651 0.00311122)
(0.00148293 0.000781493 0.00286667)
(7.26008e-05 0.000751404 0.00330324)
(0.000627057 0.00108454 0.000953551)
(-8.45225e-05 0.000773757 0.00271648)
(0.000520602 0.000628702 0.00222362)
(0.000471588 0.000183929 0.00163916)
(0.000967551 0.000149925 0.00202446)
(8.54041e-05 0.000687326 0.00226061)
(-0.000111372 7.47171e-05 0.00264781)
(0.000219626 4.74481e-05 0.00198395)
(0.000554172 -0.000427493 0.00199789)
(-7.57594e-05 -0.000638847 0.00220198)
(-0.000148807 0.000109995 0.00267189)
(-0.000141605 0.000206846 0.00186004)
(-0.000121591 -0.00052322 0.00344909)
(-0.000267241 9.62974e-06 0.00204741)
(-0.000239245 2.88682e-05 0.00204622)
(-0.000310682 7.97661e-05 0.00195506)
(-0.000513761 -7.41425e-05 0.00172605)
(-0.000373613 -7.09934e-05 0.0020074)
(0.00048421 -0.000328223 0.00138827)
(-0.000267774 0.000172265 0.00173549)
(-0.000429542 4.93904e-05 0.00155507)
(0 0 0)
(0 0 0)
(0 0 0)
(0 0 0)
(0 0 0)
(0 0 0)
(0 0 0)
(0 0 0)
(0 0 0)
(0 0 0)
(0 0 0)
(0 0 0)
(0 0 0)
(0 0 0)
(0 0 0)
(0 0 0)
(0 0 0)
(0 0 0)
(0 0 0)
(0 0 0)
(0 0 0)
(0 0 0)
(0 0 0)
(0 0 0)
(0 0 0)
(0 0 0)
(0 0 0)
(0 0 0)
(0 0 0)
(0 0 0)
(0 0 0)
(0 0 0)
(0 0 0)
(0 0 0)
(0 0 0)
(0 0 0)
(0 0 0)
(0 0 0)
(0 0 0)
(0 0 0)
(0 0 0)
(0 0 0)
(0 0 0)
(0 0 0)
(0 0 0)
(0 0 0)
(0 0 0)
(0 0 0)
(0 0 0)
(0 0 0)
(0 0 0)
(0 0 0)
(0 0 0)
(0 0 0)
(0 0 0)
(0 0 0)
(0 0 0)
(0 0 0)
(0 0 0)
(0 0 0)
(0 0 0)
(0 0 0)
(0 0 0)
(0 0 0)
(0 0 0)
(0 0 0)
(0 0 0)
(0 0 0)
(0.000623179 0.000727617 -0.000168918)
(-0.00060604 0.000615211 -0.000362481)
(-1.17063e-05 7.60061e-05 0.000301869)
(0.000555625 0.000420993 -0.000385666)
(0.00125381 0.000804575 0.00158354)
(0.00118475 -0.000132221 0.00235191)
(0.000814338 -0.000110995 0.00357861)
(0.000382552 -3.94201e-06 0.00218113)
(0.000890207 0.000164705 0.0021102)
(0.000349755 0.000663764 0.00300748)
(-5.45994e-05 0.000262382 0.0023233)
(0.000696602 -2.899e-05 0.00281536)
(0.000206535 -6.27025e-05 0.00194171)
(0.000322461 0.000159307 0.00250407)
(0.000226501 0.000204562 0.00171182)
(0.000571696 0.000137517 0.00235377)
(-0.000183151 -0.000181269 0.00219854)
(5.81658e-05 4.14334e-05 0.00161392)
(-0.000363907 9.00665e-05 0.0010261)
(-0.000525813 -0.000111404 0.00175258)
(-0.000176044 6.22153e-06 0.00177084)
(0.000102243 0.000343321 0.00133303)
(0.000207706 0.000152185 0.000968454)
(0.000247959 -1.16654e-05 0.000887843)
(-0.000297657 0.000218918 0.00130438)
(-0.000383835 0.000143741 0.00102122)
(0.00304393 -0.00430302 -0.0026497)
(0.000291682 0.000189413 0.000445579)
(0 0 0)
(0 0 0)
(0 0 0)
(0 0 0)
(0 0 0)
(0 0 0)
(0 0 0)
(0 0 0)
(0 0 0)
(0 0 0)
(0 0 0)
(0 0 0)
(0 0 0)
(0 0 0)
(0 0 0)
(0 0 0)
(0 0 0)
(0 0 0)
(0 0 0)
(0 0 0)
(0 0 0)
(0 0 0)
(0 0 0)
(0 0 0)
(0 0 0)
(0 0 0)
(0 0 0)
(0 0 0)
(0 0 0)
(0 0 0)
(0 0 0)
(0 0 0)
(0 0 0)
(0 0 0)
(0 0 0)
(0 0 0)
(0 0 0)
(0 0 0)
(0 0 0)
(0 0 0)
(0 0 0)
(0 0 0)
(0 0 0)
(0 0 0)
(0 0 0)
(0 0 0)
(0 0 0)
(0 0 0)
(0 0 0)
(0 0 0)
(0 0 0)
(0 0 0)
(0 0 0)
(0 0 0)
(0 0 0)
(0 0 0)
(0 0 0)
(0 0 0)
(0 0 0)
(0 0 0)
(0 0 0)
(0 0 0)
(0 0 0)
(0 0 0)
(0 0 0)
(0 0 0)
(0 0 0)
(0 0 0)
)
;
    }
}


// ************************************************************************* //
