/*--------------------------------*- C++ -*----------------------------------*\
| =========                 |                                                 |
| \\      /  F ield         | OpenFOAM: The Open Source CFD Toolbox           |
|  \\    /   O peration     | Version:  2506                                  |
|   \\  /    A nd           | Website:  www.openfoam.com                      |
|    \\/     M anipulation  |                                                 |
\*---------------------------------------------------------------------------*/
FoamFile
{
    version     2.0;
    format      ascii;
    arch        "LSB;label=32;scalar=64";
    class       volScalarField;
    location    "0.06";
    object      voidfraction;
}
// * * * * * * * * * * * * * * * * * * * * * * * * * * * * * * * * * * * * * //

dimensions      [0 0 0 0 0 0 0];

internalField   nonuniform List<scalar> 
1152
(
0.452263
0.475963
0.525997
0.41013
0.486497
0.423296
0.42593
0.47333
0.515464
0.431196
0.44963
0.470697
0.404863
0.43383
0.444363
0.49703
0.44173
0.44173
0.396963
0.362729
0.365363
0.43383
0.39433
0.42593
0.373263
0.38643
0.444363
0.38643
0.428563
0.486497
0.41803
0.325862
0.370629
0.362729
0.444363
0.48913
0.454897
0.381163
0.41803
0.399596
0.325862
0.412763
0.41013
0.404863
0.42593
0.460163
0.399596
0.431196
0.412763
0.344296
0.38643
0.444363
0.44963
0.404863
0.341663
0.375896
0.352196
0.412763
0.381163
0.375896
0.44963
0.415396
0.420663
0.423296
0.48913
0.299529
0.436463
0.367996
0.41013
0.333763
0.39433
0.412763
0.404863
0.439097
0.344296
0.412763
0.360096
0.381163
0.478597
0.383796
0.375896
0.491764
0.373263
0.339029
0.460163
0.407496
0.436463
0.436463
0.396963
0.375896
0.415396
0.446997
0.541797
0.43383
0.389063
0.352196
0.694531
0.589197
0.676098
0.789332
0.623431
0.597097
0.710332
0.836732
0.683998
0.707698
0.747198
0.773532
0.702431
0.744565
0.813032
0.734032
1
1
1
1
1
1
1
1
1
1
1
1
1
1
1
1
1
1
1
1
1
1
1
1
1
1
1
1
1
1
1
1
1
1
1
1
1
1
1
1
1
1
1
1
1
1
1
1
1
1
1
1
1
1
1
1
1
1
1
1
1
1
1
1
1
1
1
1
1
1
1
1
1
1
1
1
1
1
1
1
1
1
1
1
1
1
1
1
1
1
1
1
1
1
1
1
1
1
1
1
1
1
1
1
1
1
1
1
1
1
1
1
1
1
1
1
1
1
1
1
1
1
1
1
1
1
1
1
1
1
1
1
1
1
1
1
1
1
1
1
1
1
1
1
1
1
1
1
1
1
1
1
1
1
1
1
1
1
1
1
1
1
1
1
1
1
1
1
1
1
1
1
1
1
1
1
1
1
1
1
1
1
1
1
1
1
1
1
1
1
1
1
1
1
1
1
1
1
1
1
1
1
1
1
1
1
1
1
1
1
1
1
1
1
1
1
1
1
1
1
1
1
1
1
1
1
1
1
1
1
1
1
1
1
1
1
1
1
1
1
1
1
1
1
1
1
1
1
1
1
1
1
1
1
1
1
1
1
1
1
1
1
1
1
1
1
1
1
1
1
1
1
0.46124
0.466741
0.451164
0.434848
0.438422
0.396957
0.446022
0.45236
0.38876
0.41645
0.464045
0.424505
0.421937
0.45306
0.493412
0.441554
0.433675
0.404483
0.435116
0.364752
0.420735
0.427821
0.387855
0.394332
0.42041
0.410107
0.425067
0.384283
0.400461
0.388266
0.386876
0.463137
0.381052
0.380121
0.428697
0.509325
0.429578
0.401705
0.393394
0.358065
0.382826
0.481994
0.41045
0.368812
0.477417
0.409229
0.421663
0.455043
0.423652
0.401776
0.396601
0.408562
0.299133
0.472931
0.398934
0.329051
0.361066
0.382621
0.485971
0.418317
0.382564
0.434003
0.458625
0.425368
0.413628
0.361172
0.447954
0.31656
0.427367
0.347099
0.374005
0.419719
0.418432
0.452394
0.420195
0.350248
0.400461
0.41304
0.432534
0.527884
0.456228
0.41531
0.454373
0.382276
0.352196
0.43257
0.470951
0.499508
0.51536
0.37205
0.434812
0.384283
0.361088
0.411135
0.436883
0.455043
0.73939
0.772621
0.720767
0.732758
0.672781
0.800568
0.800568
0.782395
0.76856
0.644796
0.658938
0.65656
0.699336
0.677934
0.576031
0.654681
1
1
1
1
1
1
1
1
1
1
1
1
1
1
1
1
1
1
1
1
1
1
1
1
1
1
1
1
1
1
1
1
1
1
1
1
1
1
1
1
1
1
1
1
1
1
1
1
1
1
1
1
1
1
1
1
1
1
1
1
1
1
1
1
1
1
1
1
1
1
1
1
1
1
1
1
1
1
1
1
1
1
1
1
1
1
1
1
1
1
1
1
1
1
1
1
1
1
1
1
1
1
1
1
1
1
1
1
1
1
1
1
1
1
1
1
1
1
1
1
1
1
1
1
1
1
1
1
1
1
1
1
1
1
1
1
1
1
1
1
1
1
1
1
1
1
1
1
1
1
1
1
1
1
1
1
1
1
1
1
1
1
1
1
1
1
1
1
1
1
1
1
1
1
1
1
1
1
1
1
1
1
1
1
1
1
1
1
1
1
1
1
1
1
1
1
1
1
1
1
1
1
1
1
1
1
1
1
1
1
1
1
1
1
1
1
1
1
1
1
1
1
1
1
1
1
1
1
1
1
1
1
1
1
1
1
1
1
1
1
1
1
1
1
1
1
1
1
1
1
1
1
1
1
1
1
1
1
1
1
1
1
1
1
1
1
1
1
1
1
1
1
0.41864
0.476008
0.408541
0.400461
0.455914
0.406454
0.456622
0.489269
0.496098
0.432173
0.47379
0.386876
0.382276
0.474121
0.390471
0.452346
0.37604
0.440633
0.493601
0.396882
0.442379
0.411202
0.41645
0.454966
0.342038
0.443252
0.466482
0.397747
0.426086
0.390705
0.427599
0.438857
0.348476
0.365461
0.34722
0.448782
0.420724
0.38746
0.420679
0.378737
0.447954
0.368465
0.493279
0.410792
0.382276
0.44148
0.396659
0.455043
0.37604
0.387571
0.414476
0.368247
0.380121
0.420699
0.433365
0.407323
0.457583
0.404474
0.420195
0.480367
0.447991
0.437853
0.418317
0.476626
0.373534
0.411891
0.402607
0.434465
0.377414
0.370841
0.397422
0.397795
0.40623
0.351846
0.429939
0.436883
0.426086
0.408839
0.375
0.425368
0.438687
0.451688
0.446126
0.448782
0.472155
0.389834
0.465079
0.451155
0.464002
0.349076
0.429939
0.373831
0.382276
0.397959
0.399753
0.433461
0.797025
0.765641
0.6835
0.713653
0.767207
0.769704
0.799141
0.77322
0.781749
0.817187
0.761257
0.721703
0.833521
0.669965
0.681312
0.695148
1
1
1
1
1
1
1
1
1
1
1
1
1
1
1
1
1
1
1
1
1
1
1
1
1
1
1
1
1
1
1
1
1
1
1
1
1
1
1
1
1
1
1
1
1
1
1
1
1
1
1
1
1
1
1
1
1
1
1
1
1
1
1
1
1
1
1
1
1
1
1
1
1
1
1
1
1
1
1
1
1
1
1
1
1
1
1
1
1
1
1
1
1
1
1
1
1
1
1
1
1
1
1
1
1
1
1
1
1
1
1
1
1
1
1
1
1
1
1
1
1
1
1
1
1
1
1
1
1
1
1
1
1
1
1
1
1
1
1
1
1
1
1
1
1
1
1
1
1
1
1
1
1
1
1
1
1
1
1
1
1
1
1
1
1
1
1
1
1
1
1
1
1
1
1
1
1
1
1
1
1
1
1
1
1
1
1
1
1
1
1
1
1
1
1
1
1
1
1
1
1
1
1
1
1
1
1
1
1
1
1
1
1
1
1
1
1
1
1
1
1
1
1
1
1
1
1
1
1
1
1
1
1
1
1
1
1
1
1
1
1
1
1
1
1
1
1
1
1
1
1
1
1
1
1
1
1
1
1
1
1
1
1
1
1
1
1
1
1
1
1
1
)
;

boundaryField
{
    inlet
    {
        type            fixedValue;
        value           uniform 1;
    }
    outlet
    {
        type            fixedValue;
        value           uniform 1;
    }
    wall
    {
        type            zeroGradient;
    }
    procBoundary3to1
    {
        type            processor;
        value           nonuniform List<scalar> 
192
(
0.43383
0.404863
0.391696
0.378529
0.389063
0.354829
0.428563
0.428563
0.407496
0.325862
0.40223
0.404863
0.423296
0.444363
0.415396
0.370629
0.341663
0.478597
0.375896
0.483863
0.360096
0.39433
0.373263
0.43383
0.483863
0.570764
0.525997
0.715598
1
0.997367
0.997367
1
1
1
1
1
1
1
1
1
1
1
1
1
1
1
1
1
1
1
1
1
1
1
1
1
1
1
1
1
1
1
1
1
1
1
1
1
1
1
1
1
1
1
1
1
1
1
1
1
1
1
1
1
1
1
1
1
1
1
1
1
1
1
1
1
0.481286
0.378727
0.527229
0.51321
0.421146
0.398625
0.406563
0.450572
0.431169
0.431789
0.432279
0.359299
0.441193
0.356617
0.471841
0.420147
0.413628
0.427367
0.432279
0.427306
0.401099
0.383149
0.376891
0.35214
0.644168
0.76343
0.671632
0.667122
1
1
1
1
1
1
1
1
1
1
1
1
1
1
1
1
1
1
1
1
1
1
1
1
1
1
1
1
1
1
1
1
1
1
1
1
1
1
1
1
1
1
1
1
1
1
1
1
1
1
1
1
1
1
1
1
1
1
1
1
1
1
1
1
1
1
1
1
)
;
    }
    procBoundary3to2
    {
        type            processor;
        value           nonuniform List<scalar> 
192
(
0.45753
0.38643
0.38643
0.468063
0.44963
0.412763
0.412763
0.328496
0.39433
0.296896
0.38643
0.375896
0.439097
0.373263
0.44963
0.291629
0.365363
0.40223
0.381163
0.41013
0.399596
0.339029
0.420663
0.310062
0.641864
0.626064
0.691898
0.781432
1
1
1
1
1
1
1
1
1
1
1
1
1
1
1
1
1
1
1
1
1
1
1
1
1
1
1
1
1
1
1
1
1
1
1
1
1
1
1
1
1
1
1
1
1
1
1
1
1
1
1
1
1
1
1
1
1
1
1
1
1
1
1
1
1
1
1
1
0.488804
0.429578
0.491623
0.497103
0.34597
0.361039
0.42041
0.430885
0.473769
0.407469
0.372935
0.334243
0.378546
0.387571
0.539097
0.468468
0.333441
0.365461
0.374913
0.432675
0.366017
0.420735
0.359088
0.484575
0.651685
0.66836
0.639982
0.529317
1
1
1
1
1
1
1
1
1
1
1
1
1
1
1
1
1
1
1
1
1
1
1
1
1
1
1
1
1
1
1
1
1
1
1
1
1
1
1
1
1
1
1
1
1
1
1
1
1
1
1
1
1
1
1
1
1
1
1
1
1
1
1
1
1
1
1
1
)
;
    }
}


// ************************************************************************* //
