FoamFile
{version 2.0; format ascii;class Cloud<passiveParticle>; location 0;object  positions;}
1000
(
( 0.0290163 0.0356578 0.0878482 ) 0 
( 0.0320985 0.0811195 0.0991562 ) 0 
( 0.0405326 0.092316 0.0982667 ) 0 
( 0.0926882 0.00891901 0.0888499 ) 0 
( 0.0076014 0.00384249 0.0994837 ) 0 
( 0.0948085 0.0400708 0.0991108 ) 0 
( 0.0187249 0.0613565 0.0888489 ) 0 
( 0.0204613 0.0942621 0.0984885 ) 0 
( 0.0235075 0.0972807 0.0995002 ) 0 
( 0.0652796 0.0170134 0.0927463 ) 0 
( 0.0018118 0.0301631 0.0943967 ) 0 
( 0.0207455 0.0184884 0.0904013 ) 0 
( 0.0506425 0.0566127 0.0995002 ) 0 
( 0.0183238 0.0673761 0.0995002 ) 0 
( 0.0754061 0.0747276 0.094961 ) 0 
( 0.0586308 0.0159152 0.0995002 ) 0 
( 0.0186049 0.0262131 0.0993029 ) 0 
( 0.0210371 0.0696309 0.0995002 ) 0 
( 0.00616874 0.0542021 0.0989778 ) 0 
( 0.0154875 0.0794023 0.08887 ) 0 
( 0.0833776 0.010294 0.0891989 ) 0 
( 0.0622478 0.0128782 0.0936916 ) 0 
( 0.099551 0.0953368 0.0891903 ) 0 
( 0.080244 0.0519934 0.0969672 ) 0 
( 0.0303325 0.00346857 0.0995002 ) 0 
( 0.0835788 0.0728476 0.0963799 ) 0 
( 0.0279987 0.0759531 0.0995002 ) 0 
( 0.089883 0.0353168 0.0990712 ) 0 
( 0.103915 0.00197126 0.0989554 ) 0 
( 0.0880808 0.0320384 0.0990425 ) 0 
( 0.0647284 0.00457077 0.0891036 ) 0 
( 0.0645965 0.0231692 0.0885905 ) 0 
( 0.0148993 0.0710043 0.0995002 ) 0 
( 0.0720904 0.0582477 0.0990313 ) 0 
( 0.072841 0.08656 0.0888273 ) 0 
( 0.0115641 0.00131154 0.093138 ) 0 
( 0.0654569 0.0987042 0.0890303 ) 0 
( 0.0408686 0.0788901 0.0897709 ) 0 
( 0.0840182 0.0536988 0.0891373 ) 0 
( 0.0935615 0.0715921 0.0944532 ) 0 
( 0.0909648 0.024453 0.0994668 ) 0 
( 0.0271928 0.0624781 0.0993179 ) 0 
( 0.0493042 0.0562254 0.0994943 ) 0 
( 0.0751864 0.0866025 0.0896831 ) 0 
( 0.0752086 0.0497544 0.0902562 ) 0 
( 0.035759 0.0489009 0.0993126 ) 0 
( 0.0624405 0.000944987 0.0994778 ) 0 
( 0.0228526 0.0852624 0.0888071 ) 0 
( 0.0762985 0.0226149 0.0890327 ) 0 
( 0.0230187 0.0534692 0.0941709 ) 0 
( 0.024476 0.0341174 0.0896131 ) 0 
( 0.0227059 0.0199198 0.0995002 ) 0 
( 0.0225439 0.0047203 0.0919823 ) 0 
( 0.00765604 0.0793299 0.0995002 ) 0 
( 0.0733533 0.0970289 0.0993008 ) 0 
( 0.0323685 0.0540704 0.0973031 ) 0 
( 0.0716585 0.0449742 0.0994679 ) 0 
( 0.051777 0.0320816 0.0883937 ) 0 
( 0.0822907 0.0317806 0.0918754 ) 0 
( 0.012251 0.0786311 0.0919065 ) 0 
( 0.0318353 0.0248068 0.0901262 ) 0 
( 0.0788383 0.0286293 0.0989527 ) 0 
( 0.0237695 0.0461476 0.0883411 ) 0 
( 0.0425831 0.0643928 0.093792 ) 0 
( 0.088754 0.0451146 0.0916984 ) 0 
( 0.0894518 0.0887544 0.0995002 ) 0 
( 0.0109118 0.0834228 0.0995005 ) 0 
( 0.054646 0.0414811 0.0990174 ) 0 
( 0.00715065 0.0278071 0.0967393 ) 0 
( 0.0530639 0.0805325 0.0890583 ) 0 
( 0.0146946 0.0255732 0.0886317 ) 0 
( 0.0904482 0.0775489 0.0994833 ) 0 
( 0.0420682 0.0189717 0.0963244 ) 0 
( 0.034741 0.0600158 0.0994999 ) 0 
( 0.0819986 0.0895707 0.0886924 ) 0 
( 0.0274704 0.0218883 0.0992245 ) 0 
( 0.0685479 0.00117522 0.0953307 ) 0 
( 0.094098 0.0827846 0.0942187 ) 0 
( 0.0862386 0.0705502 0.0922647 ) 0 
( 0.0874851 0.0798754 0.0990626 ) 0 
( 0.023213 0.00148625 0.0993591 ) 0 
( 0.0575018 0.0559464 0.0872649 ) 0 
( 0.0909795 0.0527226 0.0887092 ) 0 
( 0.0376758 0.0992344 0.0900174 ) 0 
( 0.0416344 0.0207106 0.0994715 ) 0 
( 0.0192512 0.0196155 0.0993806 ) 0 
( 0.0203337 0.0560351 0.0995017 ) 0 
( 0.047268 0.0405481 0.0995002 ) 0 
( 0.0435043 0.0816082 0.088858 ) 0 
( 0.0490832 0.0592321 0.0893308 ) 0 
( 0.0747156 0.0694393 0.0995107 ) 0 
( 0.072397 0.0854046 0.0995002 ) 0 
( 0.00327218 0.0174283 0.0994978 ) 0 
( 0.0575901 0.0520267 0.090577 ) 0 
( 0.0876132 0.0623906 0.0995002 ) 0 
( 0.088062 0.0498092 0.0915048 ) 0 
( 0.0921831 0.0659859 0.089352 ) 0 
( 0.00884529 0.0175657 0.0995002 ) 0 
( 0.0960566 0.0336568 0.0991541 ) 0 
( 0.0802665 0.0722793 0.0873333 ) 0 
( 0.0644158 0.0725534 0.0889388 ) 0 
( 0.0505625 0.0111317 0.0995002 ) 0 
( 0.0715183 0.0878364 0.0993828 ) 0 
( 0.0660064 0.0781395 0.0995002 ) 0 
( 0.0260311 0.0553852 0.0948657 ) 0 
( 0.0896493 0.0302159 0.0979644 ) 0 
( 0.061695 0.0158206 0.0995002 ) 0 
( 0.0340319 0.0914917 0.0995002 ) 0 
( 0.0907771 0.0446793 0.0886829 ) 0 
( 0.0890078 0.0120797 0.096043 ) 0 
( 0.0367529 0.0153139 0.0995045 ) 0 
( 0.00658486 0.0236693 0.088838 ) 0 
( 0.0841138 0.058376 0.0892903 ) 0 
( 0.00414705 0.0637965 0.0888419 ) 0 
( 0.0221338 0.00322522 0.0881185 ) 0 
( 0.0622652 0.0399889 0.0889064 ) 0 
( 0.0246213 0.0646638 0.0995002 ) 0 
( 0.0654656 0.00683314 0.0917327 ) 0 
( 0.070603 0.0626817 0.0883015 ) 0 
( 0.0475731 0.085947 0.08962 ) 0 
( 0.0300694 0.07549 0.0982397 ) 0 
( 0.0166429 0.063522 0.0888342 ) 0 
( 0.0794751 0.0809987 0.0923265 ) 0 
( 0.0936525 0.0257977 0.0991404 ) 0 
( 0.0253024 0.0967412 0.092465 ) 0 
( 0.0759083 0.02467 0.0918714 ) 0 
( 0.025788 0.0631954 0.0896873 ) 0 
( 0.0233665 0.00753428 0.0897241 ) 0 
( 0.034118 0.00325116 0.0920338 ) 0 
( 0.0591273 0.0431883 0.0992319 ) 0 
( 0.0134853 0.0322264 0.0917793 ) 0 
( 0.097445 0.0194982 0.0888097 ) 0 
( 0.0709827 0.00717216 0.0922609 ) 0 
( 0.0798899 0.00201177 0.0886495 ) 0 
( 0.0932446 0.0840024 0.0890984 ) 0 
( 0.0377832 0.0481404 0.089049 ) 0 
( 0.0935457 0.0299455 0.0995002 ) 0 
( 0.040267 0.074778 0.0995002 ) 0 
( 0.0433158 0.0934067 0.0877714 ) 0 
( 0.0656866 0.045393 0.0905367 ) 0 
( 0.0372807 0.0736076 0.0908691 ) 0 
( 0.0273581 0.0729586 0.087795 ) 0 
( 0.0443204 0.0697484 0.0986004 ) 0 
( 0.0897767 0.082739 0.0995002 ) 0 
( 0.07681 0.0879349 0.0899658 ) 0 
( 0.039486 0.0213971 0.0891072 ) 0 
( 0.0644187 0.0326586 0.0876718 ) 0 
( 0.0486133 0.0524139 0.0898903 ) 0 
( 0.0299786 0.0924415 0.0923009 ) 0 
( 0.0608009 0.088171 0.0995002 ) 0 
( 0.0798606 0.0258045 0.0995002 ) 0 
( 0.00998031 0.0748288 0.0917864 ) 0 
( 0.0707409 0.0928968 0.0896851 ) 0 
( 0.0956139 0.0795606 0.0990229 ) 0 
( 0.0627218 0.0115258 0.0889185 ) 0 
( 0.0927272 0.000902082 0.0969724 ) 0 
( 0.0235473 0.0332857 0.091414 ) 0 
( 0.0794939 0.0613429 0.0995002 ) 0 
( 0.0530271 0.0862989 0.090498 ) 0 
( 0.0938293 0.0511417 0.0923097 ) 0 
( 0.0546912 0.0162692 0.091113 ) 0 
( 0.0358195 0.0979921 0.0958922 ) 0 
( 0.0562104 0.0710843 0.0892807 ) 0 
( 0.0947929 0.0900213 0.0995002 ) 0 
( 0.0267927 0.0834312 0.0921474 ) 0 
( 0.0692429 0.0407665 0.0987876 ) 0 
( 0.049034 0.0846717 0.0993715 ) 0 
( 0.0190794 0.0591467 0.0990889 ) 0 
( 0.0288093 0.0586078 0.0889277 ) 0 
( 0.0844523 0.0441395 0.0962794 ) 0 
( 0.0375985 0.00110808 0.0995002 ) 0 
( 0.0968488 0.044207 0.0995002 ) 0 
( 0.0221974 0.0718568 0.0995002 ) 0 
( 0.0910485 0.0223169 0.0994753 ) 0 
( 0.0161604 0.0332155 0.0956742 ) 0 
( 0.0400937 0.0716052 0.0993374 ) 0 
( 0.0666306 0.0174 0.0922783 ) 0 
( 0.0736835 0.0546841 0.0911504 ) 0 
( 0.0919482 0.0355826 0.0915452 ) 0 
( 0.0408382 0.0834022 0.0995002 ) 0 
( 0.0840025 0.01603 0.0897609 ) 0 
( 0.0731127 0.0678458 0.0995016 ) 0 
( 0.0259764 0.0923657 0.0995002 ) 0 
( 0.0259528 0.0824908 0.0898541 ) 0 
( 0.0209775 0.0329804 0.0885014 ) 0 
( 0.0736388 0.063011 0.0904479 ) 0 
( 0.0886824 0.00988099 0.0989891 ) 0 
( 0.0394401 0.0432802 0.0889803 ) 0 
( 0.0698326 0.0357825 0.08876 ) 0 
( 0.000520734 0.0637638 0.0990352 ) 0 
( 0.0555858 0.0701019 0.0888385 ) 0 
( 0.0387888 0.0191438 0.092898 ) 0 
( 0.0960915 0.0613028 0.0888656 ) 0 
( 0.0286067 0.0427334 0.0896067 ) 0 
( 0.0521932 0.0835106 0.0993946 ) 0 
( 0.0411284 0.049842 0.0995002 ) 0 
( 0.0257063 0.086923 0.0889145 ) 0 
( 0.0108013 0.0297885 0.0972481 ) 0 
( 0.0864475 0.0650342 0.0914441 ) 0 
( 0.0884615 0.088341 0.0995002 ) 0 
( 0.0641343 0.0138865 0.0995002 ) 0 
( 0.0451567 0.0548694 0.0995002 ) 0 
( 0.0534852 0.0462123 0.0890506 ) 0 
( 0.0442855 0.0338667 0.0992148 ) 0 
( 0.0855515 0.0593589 0.0942477 ) 0 
( 0.0580897 0.0846063 0.0989636 ) 0 
( 0.0692268 0.0476366 0.0903759 ) 0 
( 0.0757427 0.00182431 0.0972506 ) 0 
( 0.0833661 0.0200763 0.0913642 ) 0 
( 0.00146111 0.059017 0.0995002 ) 0 
( 0.0623772 0.0900524 0.0889715 ) 0 
( 0.0849572 0.0215651 0.0943049 ) 0 
( 0.0715285 0.0400206 0.0898892 ) 0 
( 0.0144417 0.068559 0.0990482 ) 0 
( 0.0281334 0.0753818 0.0944319 ) 0 
( 0.0185176 0.0305746 0.0991493 ) 0 
( 0.0140459 0.0699826 0.0995002 ) 0 
( 0.00942806 0.0489579 0.0956783 ) 0 
( 0.0378858 0.0298817 0.0895104 ) 0 
( 0.0230591 0.0124033 0.0991377 ) 0 
( 0.0967681 0.0877727 0.0995002 ) 0 
( 0.00577376 0.0114574 0.0989977 ) 0 
( 0.0828992 0.0423175 0.0897035 ) 0 
( 0.0483244 0.0927312 0.0934301 ) 0 
( 0.0236657 0.0638781 0.0989569 ) 0 
( 0.0149432 0.0516623 0.0995002 ) 0 
( 0.0557385 0.0261561 0.0886326 ) 0 
( 0.034394 0.0048443 0.0871547 ) 0 
( 0.0756483 0.00320707 0.0943335 ) 0 
( 0.00619998 0.0625535 0.0894105 ) 0 
( 0.105463 0.0971104 0.0971221 ) 0 
( 0.0508189 0.0386628 0.0995002 ) 0 
( 0.0153459 0.0597232 0.0992437 ) 0 
( 0.0845637 0.0324589 0.0918312 ) 0 
( 0.0862389 0.0252568 0.0995002 ) 0 
( 0.0717108 0.0174177 0.0926499 ) 0 
( 0.0766847 0.0365521 0.0905866 ) 0 
( 0.007168 0.0324701 0.0894836 ) 0 
( 0.0431589 0.00255616 0.0961596 ) 0 
( 0.00256607 0.0565691 0.0959576 ) 0 
( 0.0943652 0.00521641 0.0990307 ) 0 
( 0.0321523 0.0378166 0.0994766 ) 0 
( 0.082191 0.0865035 0.0968172 ) 0 
( 0.0146369 0.0553895 0.0895349 ) 0 
( 0.396242 0.00232828 0.0995002 ) 0 
( 0.0949345 0.00368925 0.0885156 ) 0 
( 0.0750284 0.0572093 0.0899538 ) 0 
( 0.0227312 0.0159442 0.0921352 ) 0 
( 0.0363616 0.0319716 0.0933338 ) 0 
( 0.0746239 0.0551705 0.0962233 ) 0 
( 0.0714688 0.0336548 0.0926443 ) 0 
( 0.155943 0.0375554 0.0995002 ) 0 
( 0.185448 0.0386442 0.0995002 ) 0 
( 0.119808 0.0554659 0.0889401 ) 0 
( 0.165592 0.0806278 0.0882448 ) 0 
( 0.11144 0.0136171 0.0980541 ) 0 
( 0.149713 0.0521294 0.0903726 ) 0 
( 0.194848 0.0605187 0.0922207 ) 0 
( 0.132441 0.0216144 0.0990129 ) 0 
( 0.139217 0.0414601 0.0888268 ) 0 
( 0.131484 0.0586262 0.0919338 ) 0 
( 0.150755 0.0707889 0.093282 ) 0 
( 0.138692 0.0992957 0.096802 ) 0 
( 0.122669 0.0948039 0.0994834 ) 0 
( 0.195268 0.0658765 0.0995003 ) 0 
( 0.137036 0.0704702 0.0995002 ) 0 
( 0.120084 0.0953331 0.0978342 ) 0 
( 0.139094 0.0336211 0.0991015 ) 0 
( 0.187673 0.0850836 0.088768 ) 0 
( 0.152481 0.0633165 0.0966759 ) 0 
( 0.166406 0.0213384 0.0895672 ) 0 
( 0.121919 0.0338685 0.0896408 ) 0 
( 0.144763 0.0548614 0.09636 ) 0 
( 0.167451 0.00330519 0.0939851 ) 0 
( 0.106465 0.0174999 0.0995002 ) 0 
( 0.114598 0.0875422 0.088554 ) 0 
( 0.137009 0.0205434 0.0989722 ) 0 
( 0.158077 0.0486291 0.0882384 ) 0 
( 0.148528 0.0598598 0.0993166 ) 0 
( 0.192093 0.0445249 0.0897091 ) 0 
( 0.18994 0.063654 0.0916591 ) 0 
( 0.127138 0.0642216 0.0992348 ) 0 
( 0.184389 0.0587692 0.0911605 ) 0 
( 0.150645 0.0301619 0.0887988 ) 0 
( 0.120986 0.0485396 0.0876283 ) 0 
( 0.108833 0.0801357 0.0897497 ) 0 
( 0.104854 0.0676854 0.0995005 ) 0 
( 0.178152 0.0824365 0.0871383 ) 0 
( 0.116806 0.0894231 0.0900711 ) 0 
( 0.142264 0.0563283 0.0890049 ) 0 
( 0.128576 0.0276661 0.0994923 ) 0 
( 0.104551 0.0762101 0.0983171 ) 0 
( 0.178986 0.0553422 0.0919733 ) 0 
( 0.164158 0.0981122 0.0967618 ) 0 
( 0.14065 0.0452404 0.0931231 ) 0 
( 0.190021 0.0796257 0.0989707 ) 0 
( 0.165419 0.0608618 0.0887214 ) 0 
( 0.172036 0.0637953 0.0885269 ) 0 
( 0.101697 0.0232342 0.0995002 ) 0 
( 0.123579 0.0300648 0.0889831 ) 0 
( 0.123499 0.0887981 0.0888455 ) 0 
( 0.194592 0.0464887 0.0910387 ) 0 
( 0.107008 0.0342512 0.0964989 ) 0 
( 0.137144 0.036721 0.0995002 ) 0 
( 0.108706 0.0560448 0.0908575 ) 0 
( 0.160855 0.0889166 0.0884755 ) 0 
( 0.149241 0.055017 0.0990398 ) 0 
( 0.10365 0.0656556 0.0989937 ) 0 
( 0.144887 0.0417353 0.0900345 ) 0 
( 0.0937656 0.0727252 0.0993152 ) 0 
( 0.133906 0.00501686 0.0886768 ) 0 
( 0.108838 0.0725301 0.0878106 ) 0 
( 0.103494 0.0618178 0.0990485 ) 0 
( 0.100715 0.0676537 0.0958877 ) 0 
( 0.150341 0.00640574 0.097138 ) 0 
( 0.112228 0.0177216 0.0935088 ) 0 
( 0.170003 0.00329862 0.0908679 ) 0 
( 0.18543 0.0896748 0.0992418 ) 0 
( 0.109657 0.0505982 0.0889683 ) 0 
( 0.116048 0.0129397 0.0990831 ) 0 
( 0.132186 0.0855502 0.0901245 ) 0 
( 0.195867 0.0721895 0.0883197 ) 0 
( 0.154033 0.00317872 0.0891348 ) 0 
( 0.141193 0.0784102 0.0889103 ) 0 
( 0.192331 0.0818189 0.0943272 ) 0 
( 0.199349 0.0905945 0.0920759 ) 0 
( 0.12583 0.023256 0.0994405 ) 0 
( 0.133222 0.0663102 0.0990099 ) 0 
( 0.148408 0.00884042 0.0991782 ) 0 
( 0.119673 0.0369642 0.0972116 ) 0 
( 0.128388 0.0164214 0.0995002 ) 0 
( 0.10058 0.0381261 0.0995002 ) 0 
( 0.145392 0.0396985 0.0889482 ) 0 
( 0.102516 0.0578961 0.0952669 ) 0 
( 0.194063 0.054849 0.0931132 ) 0 
( 0.177459 0.056921 0.0989818 ) 0 
( 0.169661 0.0350695 0.0886588 ) 0 
( 0.131154 0.00595847 0.0929174 ) 0 
( 0.167612 0.0640432 0.0990043 ) 0 
( 0.101997 0.0131654 0.0990527 ) 0 
( 0.145886 0.0435559 0.0993372 ) 0 
( 0.160957 0.0590973 0.0933716 ) 0 
( 0.147256 0.0372583 0.0995002 ) 0 
( 0.194967 0.0444327 0.0994919 ) 0 
( 0.184217 0.0753259 0.0887 ) 0 
( 0.150846 0.0214677 0.0890039 ) 0 
( 0.132135 0.0605394 0.0994682 ) 0 
( 0.143365 0.0544395 0.0994628 ) 0 
( 0.197204 0.0304987 0.0891045 ) 0 
( 0.189725 0.0411869 0.089849 ) 0 
( 0.104146 0.0209401 0.0914474 ) 0 
( 0.174575 0.0371635 0.0884218 ) 0 
( 0.192764 0.0362543 0.0907222 ) 0 
( 0.112322 0.0468559 0.0886351 ) 0 
( 0.120731 0.0686451 0.0889425 ) 0 
( 0.155595 0.0953221 0.0991196 ) 0 
( 0.103858 0.0464497 0.0991645 ) 0 
( 0.198413 0.0510729 0.0994936 ) 0 
( 0.160833 0.070302 0.099315 ) 0 
( 0.136777 0.0333415 0.0990023 ) 0 
( 0.131089 0.0552407 0.0896276 ) 0 
( 0.177946 0.0351739 0.0991106 ) 0 
( 0.185022 0.0834996 0.0995019 ) 0 
( 0.114151 0.0124508 0.0973685 ) 0 
( 0.197191 0.0192251 0.0888161 ) 0 
( 0.171165 0.0314681 0.0974927 ) 0 
( 0.17505 0.0907093 0.0923374 ) 0 
( 0.129451 0.0927451 0.0993488 ) 0 
( 0.177693 0.0445487 0.0895413 ) 0 
( 0.190285 0.0265655 0.0995002 ) 0 
( 0.19872 0.00302209 0.0995002 ) 0 
( 0.108252 0.0022604 0.0995002 ) 0 
( 0.194512 0.0088178 0.0885326 ) 0 
( 0.154453 0.0875435 0.0912209 ) 0 
( 0.193636 0.0445985 0.0993583 ) 0 
( 0.153612 0.0417789 0.0990402 ) 0 
( 0.145072 0.0288981 0.0995002 ) 0 
( 0.183735 0.0793908 0.0910271 ) 0 
( 0.201341 0.0722808 0.0960397 ) 0 
( 0.169156 0.0724949 0.0893217 ) 0 
( 0.127906 0.0506763 0.0888693 ) 0 
( 0.110993 0.0956813 0.0887527 ) 0 
( 0.159435 0.0251831 0.0941406 ) 0 
( 0.162824 0.0137897 0.0986117 ) 0 
( 0.176369 0.0665949 0.0971903 ) 0 
( 0.12739 0.0469618 0.0995002 ) 0 
( 0.142979 0.0521167 0.099502 ) 0 
( 0.124638 0.0407713 0.0921718 ) 0 
( 0.185407 0.0566501 0.0995002 ) 0 
( 0.143361 0.0366921 0.0994662 ) 0 
( 0.173939 0.026452 0.0992234 ) 0 
( 0.199509 0.0723388 0.088647 ) 0 
( 0.149569 0.00983541 0.0889579 ) 0 
( 0.191769 0.00447194 0.0985555 ) 0 
( 0.130876 0.003846 0.0909851 ) 0 
( 0.122333 0.0533086 0.0948567 ) 0 
( 0.151701 0.0239865 0.0904222 ) 0 
( 0.124758 0.0168972 0.0995002 ) 0 
( 0.169878 0.0982763 0.0885924 ) 0 
( 0.120169 0.0891462 0.0954572 ) 0 
( 0.187538 0.0209109 0.0949232 ) 0 
( 0.136009 0.0181767 0.0995002 ) 0 
( 0.130642 0.0537252 0.0951029 ) 0 
( 0.125295 0.0748341 0.0889633 ) 0 
( 0.192133 0.0207283 0.0994895 ) 0 
( 0.121514 0.0292283 0.0925108 ) 0 
( 0.182875 0.0451924 0.0942109 ) 0 
( 0.137146 0.0524443 0.0890311 ) 0 
( 0.105761 0.0648409 0.0992632 ) 0 
( 0.158274 0.0155288 0.0995002 ) 0 
( 0.183363 0.0904086 0.0890521 ) 0 
( 0.152809 0.00809692 0.0994903 ) 0 
( 0.131646 0.0533219 0.0993824 ) 0 
( 0.107967 0.0877358 0.0990028 ) 0 
( 0.167663 0.016587 0.0990917 ) 0 
( 0.152077 0.0810661 0.0991582 ) 0 
( 0.145784 0.0233333 0.09731 ) 0 
( 0.112683 0.0125767 0.0991119 ) 0 
( 0.115678 0.0205343 0.0884683 ) 0 
( 0.188547 0.0518332 0.0975203 ) 0 
( 0.164281 0.0856779 0.0995002 ) 0 
( 0.116514 0.0839255 0.0892229 ) 0 
( 0.126464 0.0814897 0.0995002 ) 0 
( 0.181215 0.0856243 0.0995002 ) 0 
( 0.131276 0.0812716 0.088865 ) 0 
( 0.143977 0.0520109 0.0994809 ) 0 
( 0.176546 0.0758326 0.0902435 ) 0 
( 0.186834 0.066087 0.0897131 ) 0 
( 0.138887 0.0244728 0.0883751 ) 0 
( 0.144158 0.0693933 0.0995002 ) 0 
( 0.106069 0.0434976 0.0961269 ) 0 
( 0.146349 0.0724797 0.099402 ) 0 
( 0.127345 0.0932229 0.0995002 ) 0 
( 0.164747 0.0694599 0.0888597 ) 0 
( 0.10929 0.0980346 0.0992418 ) 0 
( 0.117862 0.0112262 0.099133 ) 0 
( 0.181595 0.0823523 0.0995002 ) 0 
( 0.180145 0.0853252 0.0984694 ) 0 
( 0.126981 0.0406667 0.0994997 ) 0 
( 0.143713 0.0074109 0.096134 ) 0 
( 0.173845 0.0386185 0.0980591 ) 0 
( 0.138042 0.084506 0.0985746 ) 0 
( 0.104243 0.059908 0.0990395 ) 0 
( 0.101029 0.0218454 0.0960507 ) 0 
( 0.192654 0.0263322 0.0991256 ) 0 
( 0.110177 0.00946267 0.0902216 ) 0 
( 0.113249 0.0759085 0.0995002 ) 0 
( 0.167383 0.0785163 0.0890571 ) 0 
( 0.163835 0.0184456 0.0872352 ) 0 
( 0.112628 0.00580398 0.0928971 ) 0 
( 0.103548 0.0522505 0.0990224 ) 0 
( 0.187097 0.052573 0.0995002 ) 0 
( 0.181615 0.0323436 0.088939 ) 0 
( 0.173662 0.00644853 0.0990067 ) 0 
( 0.136866 0.0560085 0.090186 ) 0 
( 0.197712 0.08165 0.08873 ) 0 
( 0.15819 0.0527976 0.099061 ) 0 
( 0.114996 0.0794524 0.0952088 ) 0 
( 0.155674 0.0696497 0.0883374 ) 0 
( 0.153964 0.0558555 0.0976325 ) 0 
( 0.191921 0.0991541 0.0994982 ) 0 
( 0.110427 0.0775128 0.0965302 ) 0 
( 0.132863 0.0318387 0.0995002 ) 0 
( 0.19198 0.0133154 0.0995002 ) 0 
( 0.112846 0.054098 0.0894983 ) 0 
( 0.116919 0.0863457 0.0887992 ) 0 
( 0.186419 0.048973 0.0995002 ) 0 
( 0.136552 0.00415679 0.0993499 ) 0 
( 0.114293 0.0146181 0.0995004 ) 0 
( 0.13741 0.0458786 0.0994737 ) 0 
( 0.15456 0.0978336 0.0995002 ) 0 
( 0.194416 0.0203238 0.0995016 ) 0 
( 0.178602 0.0609303 0.0967514 ) 0 
( 0.154884 0.0378826 0.0995002 ) 0 
( 0.13571 0.095418 0.0995002 ) 0 
( 0.131487 0.0156896 0.0995002 ) 0 
( 0.156293 0.0727159 0.0897512 ) 0 
( 0.156429 0.00906758 0.0995002 ) 0 
( 0.102365 0.0413855 0.0994351 ) 0 
( 0.106111 0.0392551 0.0963898 ) 0 
( 0.142928 0.0332795 0.0898092 ) 0 
( 0.145772 0.0314931 0.0888183 ) 0 
( 0.193689 0.0747718 0.0888491 ) 0 
( 0.125959 0.0330822 0.088883 ) 0 
( 0.176868 0.071994 0.0887748 ) 0 
( 0.181656 0.0299957 0.0929979 ) 0 
( 0.138795 0.0295884 0.0995002 ) 0 
( 0.121486 0.0695518 0.0926019 ) 0 
( 0.194434 0.0280264 0.0949052 ) 0 
( 0.156891 0.000908582 0.099168 ) 0 
( 0.149321 0.0903269 0.0879737 ) 0 
( 0.180946 0.000856811 0.0891433 ) 0 
( 0.117878 0.0311744 0.0932099 ) 0 
( 0.171072 0.0985149 0.0906554 ) 0 
( 0.186982 0.0138748 0.0995002 ) 0 
( 0.167073 0.0570247 0.088418 ) 0 
( 0.105564 0.0152054 0.0953969 ) 0 
( 0.178681 0.0138597 0.0920194 ) 0 
( 0.198229 0.0642905 0.0911858 ) 0 
( 0.184397 0.0109855 0.0911152 ) 0 
( 0.169677 0.00830742 0.0890247 ) 0 
( 0.101709 0.0286892 0.0991649 ) 0 
( 0.283182 0.0394523 0.0991161 ) 0 
( 0.238884 0.0961686 0.0888915 ) 0 
( 0.298852 0.0186151 0.0936301 ) 0 
( 0.238499 0.0523355 0.0890091 ) 0 
( 0.215427 0.0233915 0.0923973 ) 0 
( 0.205982 0.0657523 0.089118 ) 0 
( 0.28058 0.042902 0.0969299 ) 0 
( 0.268998 0.0267764 0.0887429 ) 0 
( 0.241575 0.0459482 0.0938856 ) 0 
( 0.21285 0.065906 0.0994517 ) 0 
( 0.276704 0.0707848 0.0995025 ) 0 
( 0.280759 0.0230896 0.0957742 ) 0 
( 0.227026 0.0419779 0.09104 ) 0 
( 0.2272 0.0222317 0.0926068 ) 0 
( 0.215507 0.0570252 0.0877964 ) 0 
( 0.215441 0.0250251 0.0995002 ) 0 
( 0.265069 0.020316 0.0917036 ) 0 
( 0.219266 0.0210351 0.0904684 ) 0 
( 0.272096 0.0130404 0.0979321 ) 0 
( 0.259851 0.0907667 0.0889611 ) 0 
( 0.270385 0.0297988 0.0887895 ) 0 
( 0.244087 0.072401 0.0903692 ) 0 
( 0.207925 0.0398455 0.0995002 ) 0 
( 0.204463 0.00314157 0.0885879 ) 0 
( 0.247999 0.0721038 0.0939471 ) 0 
( 0.290956 0.0988871 0.0994848 ) 0 
( 0.284131 0.00577007 0.0991417 ) 0 
( 0.221664 0.0948513 0.0994919 ) 0 
( 0.209031 0.0876808 0.0973558 ) 0 
( 0.219265 0.0844789 0.0906615 ) 0 
( 0.215246 0.00413894 0.0968825 ) 0 
( 0.223402 0.0500689 0.0887859 ) 0 
( 0.238673 0.0913936 0.0994106 ) 0 
( 0.229864 0.0957675 0.099342 ) 0 
( 0.251839 0.0615662 0.0919549 ) 0 
( 0.269433 0.0564787 0.0931993 ) 0 
( 0.272292 0.0111755 0.0888765 ) 0 
( 0.23991 0.0072531 0.0890897 ) 0 
( 0.29327 0.088203 0.0892969 ) 0 
( 0.259796 0.0961944 0.091134 ) 0 
( 0.282742 0.024083 0.0916301 ) 0 
( 0.221284 0.0296726 0.0871953 ) 0 
( 0.245293 0.0415784 0.0885304 ) 0 
( 0.217583 0.058307 0.0993079 ) 0 
( 0.207991 0.0364612 0.0887347 ) 0 
( 0.267677 0.00497598 0.089277 ) 0 
( 0.27761 0.0988172 0.0887785 ) 0 
( 0.27923 0.0123506 0.0990486 ) 0 
( 0.224158 0.0402095 0.0888362 ) 0 
( 0.22403 0.0728744 0.0995002 ) 0 
( 0.28095 0.0136477 0.0989753 ) 0 
( 0.24057 0.0714736 0.0949539 ) 0 
( 0.262879 0.0161913 0.0889164 ) 0 
( 0.245164 0.0671146 0.0995002 ) 0 
( 0.269159 0.0605399 0.0995002 ) 0 
( 0.239142 0.0460508 0.0990245 ) 0 
( 0.286495 0.0314035 0.0995002 ) 0 
( 0.275879 0.0065041 0.088701 ) 0 
( 0.210356 0.0548399 0.0995002 ) 0 
( 0.28262 0.0107466 0.0886993 ) 0 
( 0.225174 0.0456405 0.0994874 ) 0 
( 0.213685 0.0304181 0.0927424 ) 0 
( 0.290453 0.0518835 0.0888416 ) 0 
( 0.246071 0.0713304 0.0933495 ) 0 
( 0.217156 0.00763582 0.0902391 ) 0 
( 0.28715 0.0260644 0.0947615 ) 0 
( 0.265175 0.0342592 0.0959651 ) 0 
( 0.228552 0.0236472 0.092054 ) 0 
( 0.290159 0.00690777 0.0995002 ) 0 
( 0.229052 0.0110826 0.0994114 ) 0 
( 0.280429 0.0844689 0.0991864 ) 0 
( 0.215371 0.0648418 0.099272 ) 0 
( 0.290479 0.0808566 0.0962366 ) 0 
( 0.212541 0.0106403 0.0897657 ) 0 
( 0.268797 0.0908543 0.0995002 ) 0 
( 0.24323 0.0311338 0.0994497 ) 0 
( 0.239713 0.0617334 0.0951114 ) 0 
( 0.234037 0.0662423 0.0888517 ) 0 
( 0.266101 0.08012 0.099211 ) 0 
( 0.262996 0.0760918 0.0990986 ) 0 
( 0.252536 0.0801612 0.098984 ) 0 
( 0.263119 0.0950813 0.0899993 ) 0 
( 0.241016 0.0798334 0.0976244 ) 0 
( 0.267506 0.0536625 0.0881415 ) 0 
( 0.207843 0.0732934 0.0949336 ) 0 
( 0.295823 0.0885291 0.0888269 ) 0 
( 0.213072 0.0526841 0.0973071 ) 0 
( 0.260511 0.0586471 0.099482 ) 0 
( 0.231875 0.0409257 0.092302 ) 0 
( 0.270588 0.0826198 0.0889031 ) 0 
( 0.264185 0.0529613 0.0995002 ) 0 
( 0.206896 0.0121259 0.0995002 ) 0 
( 0.202333 0.0390561 0.0885793 ) 0 
( 0.276252 0.0846671 0.0889905 ) 0 
( 0.201403 0.0221988 0.0890125 ) 0 
( 0.25553 0.0940801 0.0888068 ) 0 
( 0.290696 0.0752222 0.0982564 ) 0 
( 0.213845 0.0887187 0.0995002 ) 0 
( 0.214989 0.00981989 0.0916095 ) 0 
( 0.249609 0.0185249 0.0935994 ) 0 
( 0.236488 0.0540441 0.0871659 ) 0 
( 0.248577 0.0406582 0.0926574 ) 0 
( 0.218945 0.0943699 0.0989611 ) 0 
( 0.29832 0.0383267 0.097819 ) 0 
( 0.278858 0.0813021 0.0919885 ) 0 
( 0.279476 0.0214687 0.0888992 ) 0 
( 0.281758 0.00356926 0.0995002 ) 0 
( 0.217505 0.0482197 0.0909206 ) 0 
( 0.207924 0.0831563 0.0903076 ) 0 
( 0.28509 0.0252909 0.0938088 ) 0 
( 0.267547 0.0430143 0.0900127 ) 0 
( 0.278066 0.0521032 0.0881622 ) 0 
( 0.252185 0.00655196 0.0889363 ) 0 
( 0.248116 0.0637743 0.0949739 ) 0 
( 0.266506 0.0849113 0.0891668 ) 0 
( 0.26447 0.0517752 0.0995002 ) 0 
( 0.231448 0.0631891 0.0880934 ) 0 
( 0.279307 0.0187357 0.0995002 ) 0 
( 0.224885 0.0135156 0.0994609 ) 0 
( 0.264237 0.0896093 0.0994022 ) 0 
( 0.223841 0.0135628 0.0991924 ) 0 
( 0.222864 0.0787231 0.0995002 ) 0 
( 0.258173 0.0245431 0.0995002 ) 0 
( 0.232882 0.0504149 0.0893295 ) 0 
( 0.261995 0.0260022 0.0886071 ) 0 
( 0.28432 0.0760228 0.0892324 ) 0 
( 0.252303 0.0631988 0.0995002 ) 0 
( 0.207783 0.0155944 0.0995002 ) 0 
( 0.261947 0.0986832 0.0990687 ) 0 
( 0.240831 0.0254916 0.0918549 ) 0 
( 0.284507 0.0941795 0.098971 ) 0 
( 0.242271 0.0893504 0.0888643 ) 0 
( 0.225561 0.0663636 0.0990498 ) 0 
( 0.28839 0.0794381 0.088958 ) 0 
( 0.276208 0.0500864 0.0880605 ) 0 
( 0.212543 0.0584124 0.0907316 ) 0 
( 0.211747 0.000515827 0.0990955 ) 0 
( 0.233781 0.0804174 0.0989984 ) 0 
( 0.248991 0.0306222 0.0992157 ) 0 
( 0.221819 0.00858358 0.0972756 ) 0 
( 0.22207 0.0635573 0.0994354 ) 0 
( 0.258121 0.0701649 0.0989098 ) 0 
( 0.259433 0.0982733 0.0994841 ) 0 
( 0.219609 0.0762852 0.0890274 ) 0 
( 0.209623 0.0396715 0.0995001 ) 0 
( 0.207726 0.0235701 0.0995002 ) 0 
( 0.242117 0.0598013 0.0995005 ) 0 
( 0.269658 0.00798983 0.0994704 ) 0 
( 0.239534 0.0496225 0.0881719 ) 0 
( 0.297345 0.08287 0.0995002 ) 0 
( 0.204209 0.0489257 0.0995002 ) 0 
( 0.276716 0.056792 0.0888215 ) 0 
( 0.298376 0.0959234 0.0994985 ) 0 
( 0.257393 0.0487643 0.0994847 ) 0 
( 0.261202 0.00817096 0.0890612 ) 0 
( 0.262979 0.0971137 0.0995002 ) 0 
( 0.212645 0.00408509 0.0971883 ) 0 
( 0.280464 0.0537449 0.0874344 ) 0 
( 0.257404 0.0134128 0.0892315 ) 0 
( 0.281072 0.0330662 0.0904944 ) 0 
( 0.21023 0.00973298 0.0994723 ) 0 
( 0.215787 0.0303527 0.0994659 ) 0 
( 0.237068 0.0232116 0.08875 ) 0 
( 0.246709 0.0347049 0.0995002 ) 0 
( 0.286288 0.0485018 0.0989901 ) 0 
( 0.245943 0.0620241 0.0912481 ) 0 
( 0.272497 0.0875198 0.0929913 ) 0 
( 0.297149 0.0665449 0.0912238 ) 0 
( 0.24648 0.0969284 0.0991034 ) 0 
( 0.266287 0.00176515 0.0980048 ) 0 
( 0.231714 0.0271487 0.0995002 ) 0 
( 0.210377 0.0959924 0.0944963 ) 0 
( 0.26218 0.0406627 0.0889019 ) 0 
( 0.244648 0.0186439 0.0946866 ) 0 
( 0.222049 0.0909354 0.0946847 ) 0 
( 0.27678 0.0927741 0.0940964 ) 0 
( 0.279185 0.096925 0.088694 ) 0 
( 0.281528 0.0965925 0.0905374 ) 0 
( 0.245556 0.0703272 0.0995002 ) 0 
( 0.204844 0.0227552 0.0941092 ) 0 
( 0.238983 0.0191488 0.0901189 ) 0 
( 0.266957 0.0525933 0.0923106 ) 0 
( 0.22912 0.00395446 0.0977606 ) 0 
( 0.20856 0.00606765 0.0889718 ) 0 
( 0.245185 0.0330576 0.0995002 ) 0 
( 0.236136 0.0858136 0.0992109 ) 0 
( 0.267375 0.0441029 0.0895603 ) 0 
( 0.224063 0.0214241 0.0989775 ) 0 
( 0.290941 0.0348682 0.0890926 ) 0 
( 0.253449 0.0175698 0.0995002 ) 0 
( 0.231805 0.0447192 0.0995002 ) 0 
( 0.209791 0.0683825 0.0995002 ) 0 
( 0.299412 0.0175609 0.0910274 ) 0 
( 0.280459 0.0770813 0.0885761 ) 0 
( 0.249809 0.0601804 0.0929558 ) 0 
( 0.244241 0.00282273 0.0911311 ) 0 
( 0.294629 0.032002 0.0941882 ) 0 
( 0.2161 0.022028 0.0893506 ) 0 
( 0.248179 0.0919977 0.0888772 ) 0 
( 0.23865 0.0483562 0.089227 ) 0 
( 0.260665 0.0977207 0.0995002 ) 0 
( 0.26205 0.0496313 0.0932629 ) 0 
( 0.221007 0.058933 0.0995003 ) 0 
( 0.194913 0.037701 0.0984845 ) 0 
( 0.262222 0.0535381 0.0888627 ) 0 
( 0.218283 0.03346 0.0995002 ) 0 
( 0.225901 0.0156658 0.0995002 ) 0 
( 0.240667 0.00377091 0.0991048 ) 0 
( 0.247271 0.0483963 0.0994336 ) 0 
( 0.209595 0.0802817 0.0887467 ) 0 
( 0.245921 0.0216582 0.0888991 ) 0 
( 0.299369 0.0767424 0.0888766 ) 0 
( 0.249431 0.0150044 0.0992184 ) 0 
( 0.217794 0.0767612 0.0891634 ) 0 
( 0.256296 0.0512491 0.0907122 ) 0 
( 0.206601 0.0776205 0.09902 ) 0 
( 0.219271 0.00270769 0.0888929 ) 0 
( 0.252164 0.0549281 0.0994835 ) 0 
( 0.235466 0.0784317 0.0995002 ) 0 
( 0.205854 0.0168322 0.0888686 ) 0 
( 0.278047 0.00398444 0.0993887 ) 0 
( 0.203681 0.0842083 0.0888602 ) 0 
( 0.206255 0.0983303 0.0905435 ) 0 
( 0.226078 0.0376728 0.0992642 ) 0 
( 0.285976 0.0109907 0.0888691 ) 0 
( 0.256479 0.0391738 0.0995002 ) 0 
( 0.20753 0.0052183 0.0994697 ) 0 
( 0.277981 0.0405872 0.0925411 ) 0 
( 0.219707 0.0156953 0.0995002 ) 0 
( 0.299103 0.0202186 0.0890879 ) 0 
( 0.217786 0.0846891 0.0991722 ) 0 
( 0.236276 0.0291043 0.0952714 ) 0 
( 0.275707 0.00326283 0.0916811 ) 0 
( 0.202528 0.0170863 0.0990128 ) 0 
( 0.265343 0.0409083 0.092308 ) 0 
( 0.22982 0.0815715 0.0946423 ) 0 
( 0.276702 0.00743666 0.0994994 ) 0 
( 0.256024 0.0275218 0.0960788 ) 0 
( 0.234792 0.0566207 0.0891384 ) 0 
( 0.240272 0.082533 0.0902044 ) 0 
( 0.294321 0.0508366 0.089376 ) 0 
( 0.281817 0.0639996 0.0957344 ) 0 
( 0.216173 0.0941492 0.0993827 ) 0 
( 0.247954 0.0462268 0.0992595 ) 0 
( 0.314719 0.0940479 0.0965215 ) 0 
( 0.24035 0.0586594 0.0995001 ) 0 
( 0.267596 0.0398201 0.0944814 ) 0 
( 0.263815 0.0108622 0.0950272 ) 0 
( 0.310504 0.0413491 0.0972394 ) 0 
( 0.392472 0.053693 0.0894441 ) 0 
( 0.377598 0.0817634 0.0995002 ) 0 
( 0.311375 0.0240435 0.0891216 ) 0 
( 0.319302 0.0331655 0.0889149 ) 0 
( 0.311134 0.0285932 0.0991125 ) 0 
( 0.311484 0.0336751 0.0992104 ) 0 
( 0.347716 0.0926727 0.0995002 ) 0 
( 0.350565 0.0702821 0.0898289 ) 0 
( 0.386962 0.0903522 0.0935095 ) 0 
( 0.318126 0.0855307 0.099011 ) 0 
( 0.310677 0.0753888 0.0985087 ) 0 
( 0.315072 0.0846609 0.0890728 ) 0 
( 0.344181 0.0430547 0.0947833 ) 0 
( 0.335279 0.0481743 0.0954349 ) 0 
( 0.387882 0.0173662 0.0989763 ) 0 
( 0.318233 0.0467374 0.0887289 ) 0 
( 0.305017 0.0924591 0.0981433 ) 0 
( 0.331872 0.0964492 0.0904069 ) 0 
( 0.391288 0.0693611 0.0906516 ) 0 
( 0.374061 0.0382576 0.0995002 ) 0 
( 0.366253 0.0109324 0.0912398 ) 0 
( 0.373742 0.060597 0.0935905 ) 0 
( 0.341475 0.00297839 0.0956007 ) 0 
( 0.38031 0.0217318 0.0915463 ) 0 
( 0.382781 0.00712661 0.0991342 ) 0 
( 0.331252 0.0909965 0.0992933 ) 0 
( 0.385808 0.0410741 0.08871 ) 0 
( 0.369567 0.0155025 0.0954813 ) 0 
( 0.346365 0.0244335 0.0934827 ) 0 
( 0.340528 0.0446236 0.0995004 ) 0 
( 0.319341 0.0359166 0.0946793 ) 0 
( 0.308135 0.0598123 0.0994757 ) 0 
( 0.306255 0.0173639 0.0900758 ) 0 
( 0.331284 0.0434468 0.0989702 ) 0 
( 0.395037 0.0429965 0.0932724 ) 0 
( 0.333715 0.0452742 0.0886794 ) 0 
( 0.366428 0.0399136 0.0888244 ) 0 
( 0.36295 0.0250837 0.0992945 ) 0 
( 0.344272 0.0200786 0.0925361 ) 0 
( 0.331639 0.0580429 0.0886633 ) 0 
( 0.315174 0.0161781 0.0889769 ) 0 
( 0.386479 0.0928215 0.0929009 ) 0 
( 0.394275 0.069633 0.0888425 ) 0 
( 0.349623 0.0379173 0.0989953 ) 0 
( 0.345355 0.0369883 0.0953205 ) 0 
( 0.350517 0.0120613 0.0887256 ) 0 
( 0.363512 0.0461564 0.0902815 ) 0 
( 0.355275 0.0214918 0.0887744 ) 0 
( 0.356764 0.00146677 0.095117 ) 0 
( 0.3247 0.0503554 0.0887955 ) 0 
( 0.326765 0.0608881 0.0994681 ) 0 
( 0.376881 0.0945531 0.0942675 ) 0 
( 0.374194 0.00869539 0.092609 ) 0 
( 0.377741 0.0972509 0.0995002 ) 0 
( 0.382148 0.0781849 0.095167 ) 0 
( 0.377999 0.0247691 0.0995002 ) 0 
( 0.317788 0.00318518 0.0922752 ) 0 
( 0.323967 0.0077893 0.0899898 ) 0 
( 0.348064 0.0473526 0.0925905 ) 0 
( 0.376357 0.0679451 0.0950346 ) 0 
( 0.36197 0.0430455 0.0953699 ) 0 
( 0.316835 0.0862639 0.0934506 ) 0 
( 0.349004 0.0273589 0.0886899 ) 0 
( 0.323306 0.099019 0.0882156 ) 0 
( 0.379778 0.0361154 0.0995002 ) 0 
( 0.341716 0.0362549 0.090497 ) 0 
( 0.321872 0.0975499 0.0887095 ) 0 
( 0.294353 0.0516555 0.0995002 ) 0 
( 0.327509 0.0178779 0.0989531 ) 0 
( 0.347236 0.0966965 0.0989527 ) 0 
( 0.364293 0.000875848 0.0889539 ) 0 
( 0.326464 0.0366158 0.0890056 ) 0 
( 0.32331 0.0374298 0.0994705 ) 0 
( 0.307205 0.0657586 0.0871885 ) 0 
( 0.385932 0.0328766 0.0923657 ) 0 
( 0.388737 0.079893 0.0962456 ) 0 