FoamFile
{version 2.0; format ascii;class vectorField; location 0;object  v;}
2497
(
( 7.394e-05 -0.000133387 0.000324266 )  
( -0.000461413 -0.000671981 0.000536519 )  
( -9.71497e-05 0.000171435 0.000374438 )  
( -0.000356499 -0.000188383 0.000743265 )  
( 0.000227357 6.19733e-05 0.000737971 )  
( 9.77673e-05 -2.8569e-06 0.00068678 )  
( 9.05311e-05 -8.66972e-05 0.000165974 )  
( -0.000256377 0.000122362 0.000327994 )  
( 0.000229367 0.000790619 0.0030556 )  
( -8.79252e-05 -4.0688e-05 0.000950931 )  
( -0.000473536 -4.02382e-05 0.000784926 )  
( -5.22065e-05 0.000160175 0.000361034 )  
( 0.000420791 -0.000191451 0.000465359 )  
( 9.21307e-05 9.50514e-06 8.39203e-05 )  
( -0.000116499 -0.000191671 0.000469042 )  
( 0.000120989 0.000260765 0.000754489 )  
( -2.48999e-05 -0.000708368 0.000490638 )  
( 7.41615e-05 8.74702e-05 0.000828902 )  
( -0.000205276 0.000161891 0.000533376 )  
( -0.000200437 0.00116944 0.000667271 )  
( -0.000106645 0.000186588 0.00086478 )  
( 2.04461e-05 0.000195391 0.00101566 )  
( 0.000551318 0.000155369 0.000456856 )  
( 0.000258386 0.000205206 0.000869234 )  
( -0.000196513 -8.75827e-05 0.000674581 )  
( -7.73933e-05 -5.41147e-05 0.000900237 )  
( 0.000264591 -2.71296e-05 0.00084255 )  
( 0.000148893 -4.71775e-05 0.000927451 )  
( 8.6722e-05 2.52491e-05 0.000797999 )  
( 4.01358e-05 9.28229e-05 0.000789585 )  
( 0.000378458 0.000136308 0.00040315 )  
( 0.000307511 -0.000129231 4.46315e-05 )  
( 0.000240037 -0.000584781 0.00059577 )  
( 0.000152496 -0.000227143 0.000443498 )  
( 2.6121e-05 0.000280502 0.000265509 )  
( 0.000139331 -0.000150208 0.000355173 )  
( 0.000154723 -0.00025375 5.66833e-05 )  
( 0.00011849 -6.60298e-05 0.00028991 )  
( -2.92662e-05 0.000323745 0.000633642 )  
( 0.000135982 -0.000232369 0.000163291 )  
( 0.000542147 -0.000241443 4.30747e-05 )  
( -8.9522e-05 -1.68993e-05 0.000262784 )  
( 0.000303367 -0.00039833 -4.51429e-05 )  
( 0.000311443 0.000133387 2.37999e-05 )  
( 0.000746387 0.00130528 0.000859085 )  
( -0.00017787 -5.08704e-05 7.86877e-06 )  
( 0.000234603 0.000145239 4.94018e-06 )  
( -4.25555e-05 -1.48177e-05 0.000397193 )  
( -0.000956496 0.0011493 -7.25566e-05 )  
( 0.00174697 -0.00146854 0.000427028 )  
( -0.00077009 2.86132e-05 0.000580735 )  
( -0.00020267 -9.86973e-06 0.000590764 )  
( 2.81035e-05 -0.000108847 0.000415703 )  
( -7.46629e-05 -0.000267632 0.000591124 )  
( -0.000159829 -0.000106305 0.000454605 )  
( 9.04462e-05 -0.000132254 -1.10066e-05 )  
( 0.000265896 5.61984e-05 0.000421112 )  
( -0.000117347 -0.000156097 1.81213e-05 )  
( -6.71287e-05 -0.000138677 0.000292292 )  
( -0.000350914 -9.23585e-05 0.000136132 )  
( 0.000454987 -0.000494509 0.000517788 )  
( 1.19665e-05 -0.000160376 7.86578e-05 )  
( -0.000328721 -4.31229e-05 0.000409809 )  
( 3.97421e-05 9.95348e-05 0.000811835 )  
( 0.000186165 0.000133359 0.000120354 )  
( -0.000119274 -0.000155111 0.0005165 )  
( 4.65597e-05 8.35329e-05 6.4694e-05 )  
( 0.000129538 -0.000298818 0.000244038 )  
( -0.000446889 7.43493e-05 0.000382388 )  
( 0.000104101 -0.000103966 0.000519761 )  
( -9.33972e-05 -9.23021e-05 0.000528555 )  
( -0.000323984 0.000169629 0.00072873 )  
( 3.28876e-05 0.000120733 0.000201155 )  
( 4.11027e-05 -0.000192454 0.000351883 )  
( 0.000275254 -0.000132817 0.000588023 )  
( 0.000209476 0.000161797 0.000233541 )  
( -0.000180463 -2.92602e-05 6.55619e-05 )  
( 0.000126076 -0.000284839 3.53065e-05 )  
( 0.00015901 -0.000214788 0.000257407 )  
( 0.000308227 5.85543e-05 0.000137882 )  
( -0.000203461 0.000104299 0.000235503 )  
( -0.00015665 0.000552686 0.000729096 )  
( 0.000136174 -6.24713e-06 8.09764e-05 )  
( 0.00023637 8.68014e-05 4.91425e-05 )  
( -1.69182e-05 -0.000444165 0.000250564 )  
( 8.65486e-05 -0.000571463 -0.000345005 )  
( 0.000177696 0.000273746 0.00019695 )  
( 1.03808e-05 -0.000161248 0.00032521 )  
( 0.000997477 -4.62573e-05 0.000344461 )  
( -0.000187227 6.09873e-05 7.1311e-05 )  
( 0.000157899 -4.48513e-05 0.000192746 )  
( 0.0013342 -0.000797469 -0.000723598 )  
( 0.00017248 8.71822e-05 6.93553e-06 )  
( -6.2877e-06 -0.000111082 0.000447744 )  
( -0.000261433 4.65202e-05 0.000189282 )  
( 0.000126509 -0.000225661 0.000373934 )  
( 8.46801e-06 -4.36369e-05 0.000594571 )  
( 0.000307057 0.000162668 0.000717255 )  
( -0.00024201 -0.000135327 0.000403792 )  
( 1.74207e-05 -5.38288e-05 0.000277291 )  
( 0.000100413 0.000163718 -9.61551e-06 )  
( 0.000116876 -0.000197144 0.000312801 )  
( -0.000118687 1.75749e-05 0.000332687 )  
( -9.23495e-05 -0.000115882 3.36324e-05 )  
( 0.000103909 9.20883e-06 0.000759402 )  
( -0.00011345 -4.85214e-05 0.000138142 )  
( 0.000209599 -0.000390458 0.000821259 )  
( -0.00031587 0.000171734 0.000301137 )  
( 6.22521e-05 0.000137366 1.25656e-05 )  
( -0.000195584 -3.39513e-05 0.000705108 )  
( -9.89797e-05 9.63604e-05 0.000397183 )  
( 8.88278e-06 3.40188e-05 0.000153334 )  
( 6.28504e-05 -0.000449107 0.000509034 )  
( -9.51962e-06 -0.000113111 0.000305308 )  
( 0.000166468 3.91302e-05 0.000676899 )  
( -0.000672049 -5.95934e-05 0.000211881 )  
( 0.000213767 1.94783e-05 0.00035573 )  
( 7.09379e-05 -0.000209238 0.000409043 )  
( -0.000223538 -0.000253763 0.000204423 )  
( 2.70342e-05 -0.000155186 0.000164446 )  
( -7.70471e-05 -0.000337633 0.000718809 )  
( -2.57954e-05 -4.32014e-05 0.000109358 )  
( 0.00025371 0.000308126 0.000639786 )  
( 0.000148773 8.85517e-05 0.000650038 )  
( -0.000158132 -0.000291073 0.000552545 )  
( 0.000251861 -0.000407148 0.000771916 )  
( -0.000284358 0.000585395 0.000360963 )  
( -0.000107439 -0.000310498 -1.42248e-05 )  
( 8.45048e-05 -3.92534e-05 0.000916628 )  
( 5.63098e-05 9.22905e-05 0.000297637 )  
( -4.10167e-05 7.25165e-05 8.87038e-05 )  
( -0.000344917 -8.21574e-05 0.000170593 )  
( -0.000121128 -0.000428782 0.000492029 )  
( 0.000307132 0.000319802 0.000433589 )  
( -4.33541e-05 -0.000225795 0.000485495 )  
( 0.00221627 -0.00194685 0.00104729 )  
( -0.00012278 -0.000479436 0.00019843 )  
( -0.000298326 0.00011802 0.000163103 )  
( -0.000100126 -0.000330028 0.0008623 )  
( 9.25432e-06 -1.71037e-05 0.00059099 )  
( 0.000105769 3.77898e-05 4.61516e-05 )  
( 2.84744e-06 -0.000276323 0.000527816 )  
( 3.05026e-05 -0.000237574 0.000543889 )  
( -0.000161223 5.14889e-05 0.000659175 )  
( -9.22195e-05 -0.000225342 0.000334215 )  
( 0.00103365 6.14664e-05 0.00212356 )  
( 3.34393e-05 3.43343e-05 0.000458621 )  
( 0.000175889 0.00039926 0.000918876 )  
( -5.65089e-05 -6.23012e-05 0.000388731 )  
( -2.64111e-05 -0.000121133 0.000718694 )  
( 3.31381e-05 -3.46566e-05 -1.78285e-05 )  
( -0.000193604 -0.000317021 0.00071512 )  
( 7.55606e-05 -0.000120345 0.000644779 )  
( 7.57994e-05 0.000331698 0.000323234 )  
( 0.00020449 0.000192842 0.000412384 )  
( 0.000134026 0.000273646 0.000243308 )  
( 2.50335e-05 0.000200245 0.00018123 )  
( -0.00013067 -0.000143194 0.000507344 )  
( 0.000157735 0.000175379 0.000651981 )  
( 1.04122e-05 -0.000340118 0.000876134 )  
( 5.26094e-05 -0.000487955 0.000682526 )  
( 2.65007e-05 -9.83528e-05 0.000152874 )  
( 0.000248873 4.18744e-05 6.43993e-05 )  
( 0.000104512 0.000329688 0.000691594 )  
( -1.34544e-05 -0.000356176 0.000408759 )  
( 3.28316e-05 0.000456743 0.000681975 )  
( -0.000113408 0.000253304 -5.96061e-06 )  
( -0.000702728 -0.000466745 0.000390367 )  
( -0.000407955 -0.000734682 0.000488053 )  
( 3.83717e-05 7.33677e-05 0.000555635 )  
( 2.69176e-05 -1.08198e-05 9.02193e-05 )  
( -0.000233653 0.000507608 1.8132e-05 )  
( -3.79205e-05 0.000141564 0.000238462 )  
( 2.62265e-05 0.000151854 -1.00254e-05 )  
( -0.000278293 -0.000109514 1.05112e-05 )  
( 0.00012865 0.00030759 0.000155888 )  
( -2.63835e-05 0.000465859 0.000625389 )  
( 4.78695e-05 -4.11552e-05 0.000197729 )  
( 6.01792e-05 -0.000344428 0.000425808 )  
( -8.7936e-06 -0.000205151 0.000146005 )  
( 7.05243e-05 -1.59328e-05 0.000138313 )  
( -3.95738e-05 -4.9563e-05 -1.23531e-06 )  
( 0.000642263 -0.000133412 0.000450291 )  
( -1.33275e-05 -1.4896e-05 5.56244e-05 )  
( -0.000178908 -2.74783e-06 8.43043e-05 )  
( -0.000227879 -8.55645e-05 0.000646311 )  
( -0.000129528 -0.000324566 7.51727e-05 )  
( -5.62318e-05 -0.000353138 0.000499427 )  
( -0.000350854 0.000262395 0.000258835 )  
( -0.000203614 0.000169553 0.000157387 )  
( -0.000248454 0.000356866 0.00041852 )  
( -0.000176084 5.00852e-05 0.000221709 )  
( 0.000168218 8.92044e-05 5.90958e-05 )  
( 0.000178312 0.000395898 0.000283572 )  
( -0.000408131 -1.57603e-05 0.000252621 )  
( -0.000397675 0.000756058 0.000201495 )  
( 0.000226413 -0.000319309 0.000511376 )  
( -0.000112317 -0.000165006 0.000475355 )  
( 8.29174e-06 0.000201119 0.000434188 )  
( -0.000509819 -0.000274452 3.38655e-05 )  
( -0.000399943 0.000552878 -0.00186588 )  
( 0.000205135 7.76718e-06 0.000122977 )  
( -0.000349031 0.000175584 0.000244993 )  
( -0.000498973 2.53165e-05 0.000544821 )  
( 0.000155325 0.000265063 0.00083316 )  
( -0.000252818 -6.17481e-05 0.000455973 )  
( 2.12213e-05 3.35495e-06 5.55147e-05 )  
( -7.6765e-06 -7.51922e-05 3.54004e-05 )  
( 9.56775e-05 -2.98911e-05 0.000355637 )  
( -0.000216317 -0.000158882 0.000579767 )  
( 0.000448665 -0.00016564 9.12418e-05 )  
( 0.000204857 0.000125716 0.000212382 )  
( 0.000412866 -1.39996e-05 0.000292161 )  
( -8.13937e-05 -6.9811e-05 0.000704491 )  
( -1.65298e-05 4.48765e-05 0.000389585 )  
( -0.000237872 0.000343922 0.000452195 )  
( 0.000103025 2.28132e-05 9.5814e-05 )  
( -2.68046e-05 -9.42126e-05 0.000138988 )  
( 0.000112791 -0.000246149 0.000499074 )  
( 3.83486e-05 -0.000396187 0.000177145 )  
( -9.1222e-05 -0.000817714 0.000776325 )  
( -7.03164e-05 -0.000163812 0.000241645 )  
( 0.000186288 -0.000318787 0.000498514 )  
( -8.27248e-05 -0.000209286 0.000215217 )  
( -0.000112085 0.000127569 4.75224e-05 )  
( -0.000112286 -7.39535e-05 8.5035e-05 )  
( -8.29753e-05 -0.000106471 0.000768874 )  
( 3.93558e-06 0.00023327 0.000560796 )  
( -5.04065e-05 -0.000190134 0.000677639 )  
( -2.8891e-05 5.13281e-05 0.000288804 )  
( -0.000100911 0.000202257 0.000222658 )  
( -0.000220058 -0.000479689 0.000507452 )  
( 0.000284071 -0.00016776 -4.22113e-05 )  
( 0.000136947 -0.00018376 4.23316e-05 )  
( -0.000135609 0.000323262 0.000132193 )  
( 0.000114863 -4.884e-05 6.00621e-05 )  
( -0.000217264 -0.00117221 0.00102081 )  
( -0.000304961 -0.00030308 -8.05371e-08 )  
( -0.000168327 0.000269382 0.000210059 )  
( 0.000168574 0.000334073 0.000261284 )  
( 3.28027e-05 0.000538255 0.00109817 )  
( 0.000384913 0.000245813 0.00057222 )  
( -0.000148867 1.16215e-06 0.00028373 )  
( 0.000130402 -0.000152734 0.000606224 )  
( -0.00016147 -0.00015138 0.000305508 )  
( -8.37946e-05 -4.7354e-05 0.000119832 )  
( 0.0001406 0.000244852 0.000194084 )  
( -9.70713e-05 -0.000363525 0.000102659 )  
( 9.53911e-05 -0.000158957 0.000267259 )  
( -0.000126348 -3.35064e-05 0.000560045 )  
( 9.38973e-05 -0.000329898 0.000587134 )  
( -0.000171595 -8.67897e-05 0.000208303 )  
( 2.96063e-05 0.000195605 0.000210522 )  
( -3.6165e-05 -0.000226248 0.000464524 )  
( 6.79822e-05 -0.000281564 -8.59006e-06 )  
( -0.000114431 0.000329296 0.000521141 )  
( 0.000307476 0.000208162 0.000338545 )  
( 0.000373433 0.000344872 0.000373878 )  
( 1.30773e-05 -0.00040614 0.000410773 )  
( -9.27784e-05 0.000256431 7.55516e-05 )  
( -8.21882e-05 0.000249073 -1.47099e-05 )  
( 0.000271026 -0.000309402 0.00062949 )  
( 8.39061e-06 -1.86121e-05 5.15988e-05 )  
( 0.000224509 -2.32729e-05 0.000375133 )  
( -0.000135223 -0.000117615 0.000404013 )  
( 0.000183171 6.97057e-05 0.000114892 )  
( -0.000631656 -0.000196147 -0.000259298 )  
( 0.000216734 -0.000429504 0.000460917 )  
( -9.01685e-05 1.06751e-05 0.000397245 )  
( -0.000203061 -0.000484518 0.000523453 )  
( -0.000133279 -0.000271432 0.000349254 )  
( -2.55482e-05 -0.000233409 0.000144704 )  
( 0.00010854 -3.76146e-05 0.000770533 )  
( -6.86469e-05 -6.87471e-05 0.000316557 )  
( 5.63962e-05 4.59045e-05 0.000656295 )  
( -0.000347966 -0.000222419 6.10613e-05 )  
( -8.70937e-05 -0.000464824 0.000557868 )  
( 0.000127292 -0.000165015 0.000831981 )  
( 0.00018365 -0.000148617 0.000660559 )  
( 3.50716e-05 -0.000405261 -8.58911e-05 )  
( -0.000111186 -0.000300685 0.000733187 )  
( -4.55833e-05 -0.00037035 -8.10446e-05 )  
( -0.000131246 -9.43032e-05 7.99346e-05 )  
( 4.67323e-05 -4.39693e-05 0.000176051 )  
( -0.000246025 -0.000572407 0.000839749 )  
( 0.00029667 -0.000257521 0.000535379 )  
( -0.000105737 0.000354138 0.000580665 )  
( -0.000107551 -0.000105395 3.62031e-05 )  
( 0.000978026 0.00136222 0.000447329 )  
( -9.2225e-05 -0.000375713 0.000165442 )  
( 8.73386e-05 -0.000295553 0.000185275 )  
( -2.13479e-05 -0.000135975 0.000179364 )  
( -3.86126e-05 -7.29241e-05 8.96174e-05 )  
( -0.000203283 0.000153941 0.000396127 )  
( -0.000125998 -0.000364425 0.000442839 )  
( -0.000111097 -0.000189683 0.000612839 )  
( -0.000432782 -0.000485029 0.00112979 )  
( -0.000211477 -0.000232054 0.000383369 )  
( 5.12698e-05 1.8586e-05 1.93054e-05 )  
( 0.000203153 -5.56507e-05 0.000109496 )  
( 0.000228229 -0.000205283 0.000462532 )  
( -0.000166043 -0.000177641 7.7029e-05 )  
( 0.000205369 0.000379338 0.000179441 )  
( -0.000518006 -6.57739e-05 0.000335659 )  
( -0.000325381 9.69235e-05 0.000281064 )  
( 0.000133181 -0.000113408 0.000606008 )  
( 0.000364101 -0.000193698 0.000210994 )  
( -0.00144114 0.000539743 0.000106867 )  
( 0.000408752 -0.000120336 0.000493643 )  
( 0.000340057 -0.0001042 0.000187205 )  
( -0.000219389 0.000309711 -0.00041132 )  
( 0.000176331 -2.36149e-05 0.000409257 )  
( 9.55881e-05 -9.17968e-05 0.000162575 )  
( -0.000203236 0.000607989 0.000106023 )  
( -0.000138509 5.86282e-05 0.000102716 )  
( 0.000487515 0.000728646 0.000473707 )  
( 0.000222714 -0.000247938 -4.93777e-05 )  
( 0.000316947 -0.000322217 5.94274e-05 )  
( 0.0001881 0.00021035 0.000467601 )  
( -0.000220787 -0.000120582 0.000365745 )  
( -9.4921e-05 0.000471907 0.000747837 )  
( 5.52489e-06 7.79966e-05 0.000125301 )  
( 1.80526e-05 3.17999e-05 0.000337903 )  
( 0.000241143 0.000518148 0.000753017 )  
( 0.000321719 3.74186e-05 0.000102968 )  
( 0.000157635 -0.000120904 0.000773149 )  
( 3.39346e-06 -0.000307024 0.000446218 )  
( -0.000144312 -0.00016391 7.69116e-05 )  
( 2.93135e-05 -0.000369651 -0.000157923 )  
( -1.81693e-05 9.7088e-05 0.000367972 )  
( -0.000372765 0.00122698 -0.000547511 )  
( 1.73719e-05 -0.000473915 0.000349855 )  
( -0.000106827 0.000305774 0.000319195 )  
( -0.000362673 0.000473011 0.000629816 )  
( 0.000143615 0.000267139 -0.000152423 )  
( -6.27136e-05 2.71746e-05 0.000196018 )  
( -0.000418571 -0.000586451 -2.30556e-08 )  
( -0.00027915 0.000122372 0.000202686 )  
( 0.000134398 -0.000328997 0.000286545 )  
( -7.67117e-05 -0.000341589 0.000598331 )  
( -0.000436085 -0.000759309 0.00139558 )  
( 0.000864979 -0.000406832 0.000796796 )  
( -8.85141e-05 -0.000214394 0.00034696 )  
( 3.34291e-05 -0.00020567 0.000320037 )  
( 0.000561942 0.00070327 0.000558099 )  
( 0.000179239 -0.000271197 0.000589473 )  
( 7.84245e-06 -0.000199021 0.000525684 )  
( -0.000653736 0.000159653 0.000886969 )  
( 0.000258206 0.000271109 0.000510913 )  
( 2.88295e-05 -0.00030477 0.000475288 )  
( -3.91051e-06 -1.4169e-05 8.23565e-06 )  
( 0.000310925 3.66411e-05 0.000737359 )  
( 0.000318282 -4.189e-05 0.000613451 )  
( -6.63268e-05 -0.000370527 -3.44771e-05 )  
( -5.21017e-06 5.97114e-05 0.000197426 )  
( -0.00012 0.000141738 0.00035267 )  
( -2.14215e-05 -7.68424e-05 3.6376e-05 )  
( 0.0011021 0.00115359 0.00101763 )  
( 0.000143178 -8.62876e-05 0.000830225 )  
( -0.000512083 -0.00152391 -0.0015104 )  
( -0.000234994 -0.000429335 0.00016972 )  
( -0.000338072 -0.000277721 4.64425e-05 )  
( -0.000114701 0.000455853 0.000102118 )  
( -0.00147035 0.000445943 -8.35173e-08 )  
( 6.80341e-05 7.58559e-05 0.000627754 )  
( -5.03979e-05 4.88196e-05 3.74056e-05 )  
( -2.7839e-05 0.000255753 0.000656352 )  
( -0.000125341 -0.000103588 0.000198701 )  
( 0.000387636 0.000412112 0.000736502 )  
( 5.54918e-05 -0.00034563 0.00079625 )  
( 0.0019796 -0.00181919 -9.79015e-05 )  
( -8.25337e-05 5.5094e-05 0.000209435 )  
( -0.000189339 -0.000150136 0.000879918 )  
( -0.000268396 -0.000337648 0.000165437 )  
( 0.000247548 -0.000284243 1.79617e-05 )  
( 0.000102278 0.000302354 0.000540315 )  
( -0.000258823 -0.00014369 0.000543052 )  
( -0.000197286 -0.000239481 0.000281453 )  
( 0.000285856 -9.61303e-07 0.000260938 )  
( 4.78383e-05 0.000382467 0.000225538 )  
( 6.23174e-05 -5.02871e-05 -1.89176e-06 )  
( -0.000641958 0.000146919 -9.53e-05 )  
( 0.000105982 -0.000210962 0.000376329 )  
( -3.10835e-05 3.16538e-05 5.2509e-05 )  
( 0.000179271 -0.000293793 0.000579121 )  
( 0.000148312 6.61607e-05 8.96465e-05 )  
( -4.91127e-06 5.16339e-05 0.000432347 )  
( 4.25148e-05 -0.000364319 0.000776778 )  
( 0.000329094 0.00029209 0.000102942 )  
( -0.000188702 0.000190938 -1.21296e-06 )  
( 0.000294848 7.15851e-05 0.000470984 )  
( -0.000587847 -0.000329457 -1.45857e-05 )  
( -0.00026031 0.000357788 0.00053023 )  
( -0.000248137 -0.000222843 -2.29109e-05 )  
( 0.000157824 -0.000129463 5.8176e-05 )  
( 0.000129805 -0.000419286 0.000534157 )  
( 6.05791e-05 -5.47046e-05 0.000279947 )  
( 0.000419182 0.000798213 0.00073672 )  
( -0.000271876 -7.14373e-05 0.000177077 )  
( 2.44372e-05 -1.83405e-05 0.000377527 )  
( 5.83259e-05 -5.20904e-05 3.14186e-05 )  
( -0.00149118 -0.000423378 -3.40419e-07 )  
( 0.00018998 -6.419e-05 3.27475e-05 )  
( -3.59776e-05 0.000167719 4.82491e-05 )  
( -0.00132251 -0.000636299 0.000948827 )  
( 0.000201971 -5.54716e-05 0.000613082 )  
( -0.00114399 -0.000549703 0.000238868 )  
( 5.47464e-05 0.000414414 0.000136886 )  
( -9.1278e-05 -3.02322e-05 0.000399655 )  
( -0.000450096 -0.00041107 -0.000145438 )  
( 0.000231309 -2.12073e-05 0.000153768 )  
( -7.38506e-06 -0.000149574 0.000628977 )  
( -9.06928e-05 -0.00018529 9.09991e-05 )  
( 8.35125e-05 -0.000402073 0.000303499 )  
( -0.000171885 0.000277471 6.57414e-05 )  
( 0.000106591 -0.000135367 0.000529704 )  
( 0.000259077 -0.000504538 0.000433412 )  
( -0.00016858 -9.94646e-05 0.00020094 )  
( 5.94759e-05 -9.64327e-05 0.000276835 )  
( -0.000251869 -0.000125617 0.000363119 )  
( 6.13024e-06 3.9804e-05 0.000791354 )  
( 2.86589e-05 0.00059224 0.000757429 )  
( 2.57435e-05 9.95897e-05 0.000515403 )  
( 0.000291825 -0.000124178 0.000203722 )  
( 8.31255e-05 5.06256e-05 -0.000183205 )  
( 0.000192357 0.000294389 0.00068514 )  
( 5.55933e-05 -0.000210907 0.000438431 )  
( -0.000225841 0.000180093 2.95498e-05 )  
( 4.11619e-05 -6.77565e-05 0.0002728 )  
( 0.000113004 3.39009e-05 0.000443527 )  
( -0.000314548 -0.00039326 0.000415483 )  
( 0.000161088 -0.000155144 -3.90333e-05 )  
( -1.92776e-06 -0.000427913 0.000630332 )  
( 0.000373006 -3.85144e-06 0.000766775 )  
( -0.000163947 -0.000117174 0.00021334 )  
( 0.000341051 -0.000133118 0.000724066 )  
( 0.000658998 0.000740597 -0.000325764 )  
( 7.25755e-05 -5.07197e-05 7.53651e-05 )  
( -0.000812833 6.0891e-05 0.000206922 )  
( 0.000162876 -9.53699e-05 3.0018e-05 )  
( -1.11102e-05 0.000116581 -5.49614e-05 )  
( -6.20096e-05 0.000117129 0.000124932 )  
( -0.000183553 -0.000102287 0.000224088 )  
( 0.000200142 -3.37524e-05 0.000751599 )  
( 8.07327e-05 0.000185171 0.000205813 )  
( -0.0001441 -9.26272e-05 0.000123669 )  
( -0.000307323 -4.96377e-06 7.36097e-05 )  
( -0.000161145 -9.26895e-05 0.000524198 )  
( 0.000276364 0.000253256 0.000721769 )  
( 1.50412e-05 3.566e-05 1.72433e-05 )  
( 3.22351e-05 -0.000429095 0.000504542 )  
( -0.00119923 0.0013337 -0.00127588 )  
( 8.47641e-07 -3.01756e-06 0.000232437 )  
( -1.86912e-05 -0.000203813 0.000440459 )  
( -0.000135719 -0.000753583 0.00108804 )  
( -4.02278e-05 -7.66799e-05 4.64091e-05 )  
( 0.000177919 3.04771e-05 0.000204188 )  
( -0.00027925 -0.000315134 0.000196529 )  
( -3.73688e-05 -0.000136264 0.000286537 )  
( -9.80776e-05 0.000155747 0.000219536 )  
( 0.000292637 0.000349728 0.000522439 )  
( -3.11189e-05 0.000258472 0.000341758 )  
( -0.000203607 -0.000114027 0.000249256 )  
( 0.00075169 -0.000281425 0.00104148 )  
( -9.55332e-05 -0.000124679 8.5871e-05 )  
( -4.56294e-05 -0.000241901 0.000409029 )  
( -0.000605921 -0.000607656 0.00107597 )  
( 0.000149805 -0.000492574 0.000515317 )  
( -0.000168041 -0.000153165 0.000118809 )  
( -0.000328737 6.46648e-05 0.000373895 )  
( -3.93725e-05 -0.000361805 0.00037008 )  
( 0.000546336 -0.00032032 -2.06116e-05 )  
( 5.57799e-05 -0.000289289 0.000135805 )  
( -0.000483642 -0.000350216 -0.000251735 )  
( 3.94338e-05 -0.000313198 0.000431021 )  
( 4.50299e-07 1.57558e-05 0.00031051 )  
( 3.47709e-05 -0.000184522 0.000237783 )  
( -0.000143376 9.24618e-05 -4.01807e-05 )  
( 8.49446e-05 -0.000400368 6.05306e-05 )  
( -0.000268921 -4.22359e-05 0.000233521 )  
( -0.000249279 5.93212e-05 0.000601 )  
( -3.33287e-05 -0.00027519 0.00036233 )  
( 0.000123035 -0.000160278 0.000445887 )  
( 0.000190004 3.53253e-05 -2.7558e-05 )  
( -7.87416e-05 1.53639e-05 0.000756497 )  
( -9.03543e-05 -0.000304594 0.000312837 )  
( 0.000167166 1.39477e-05 0.000121062 )  
( -0.000212317 -0.000150492 0.000213428 )  
( 0.000236312 0.000129299 0.000408506 )  
( -4.07043e-05 -8.68601e-05 0.000681991 )  
( -0.000352266 3.23665e-05 0.000236839 )  
( -0.000281024 3.16683e-05 0.000266491 )  
( 2.40488e-05 -7.67968e-05 6.36567e-05 )  
( 1.02171e-06 0.000128263 0.000378328 )  
( -0.000131644 0.000241628 -1.12863e-05 )  
( -9.80303e-06 8.86277e-05 0.000389761 )  
( 0.000211044 6.08051e-05 2.85476e-05 )  
( 0.000141036 -4.76857e-05 0.00107022 )  
( -2.34589e-05 -0.00038496 0.000326476 )  
( -0.000208895 -0.000200784 0.000303532 )  
( 0.000106417 5.09183e-05 4.89619e-05 )  
( -0.000220066 -0.000272964 0.000519874 )  
( -9.26386e-05 -3.10723e-05 -4.15646e-05 )  
( 0.000199235 7.1438e-05 0.000460682 )  
( -0.000130099 -0.000428492 4.80163e-05 )  
( -0.000145893 -0.000364268 0.000772938 )  
( -1.89888e-05 -7.95071e-05 0.000407689 )  
( 0.000194055 4.3093e-05 7.74402e-05 )  
( 0.000504759 0.000155326 0.000712693 )  
( -2.2608e-05 6.68215e-05 1.41186e-05 )  
( 0.000129923 6.59441e-05 0.000618707 )  
( -3.75744e-06 -0.000246671 0.000653755 )  
( 0.000446806 -8.65144e-05 0.000310482 )  
( 1.77801e-05 -0.000195466 0.00051405 )  
( -0.00108117 0.0013639 -0.00113496 )  
( 0.000146045 -0.000402372 0.000618509 )  
( 0.000131884 0.000171836 0.000604068 )  
( 0.000272954 0.000150018 0.000315101 )  
( -4.44649e-05 -0.000159376 0.00014215 )  
( 0.000245713 0.000172794 0.000321117 )  
( -6.67491e-05 -8.35794e-05 0.000362533 )  
( 0.000132904 3.97945e-05 0.000183802 )  
( 4.94591e-05 -0.000108765 -0.000291453 )  
( 0.000136973 4.80591e-05 0.000378198 )  
( 0.000143857 0.000115094 9.81118e-05 )  
( 0.000154609 -0.000130901 0.000722249 )  
( 3.14698e-06 -4.49335e-05 3.74512e-05 )  
( 6.78987e-05 4.33292e-05 0.000763096 )  
( 2.95653e-06 -0.000307984 0.00046847 )  
( 0.000112166 -0.00012292 0.000303382 )  
( 0.000232194 -9.84934e-05 6.46518e-05 )  
( -0.000260943 -0.000228806 0.000188511 )  
( 0.00010962 0.000232299 0.000326328 )  
( 0.000587264 0.00036337 0.000621144 )  
( 0.00100858 0.00196911 0.00197959 )  
( -0.000343481 -0.000201626 0.000392122 )  
( 4.92808e-05 -6.14871e-05 0.000256154 )  
( -4.01174e-05 0.000105208 -4.38026e-06 )  
( -0.000189165 0.000448455 0.000390011 )  
( 7.26073e-05 -0.000130638 0.000543367 )  
( -4.70586e-06 2.44968e-06 0.000510577 )  
( -0.000149431 -0.000141149 -3.19336e-05 )  
( 0.00022005 -0.000157283 0.000652793 )  
( -0.00034643 0.000107097 0.000311825 )  
( -0.000119489 7.89766e-05 0.000465629 )  
( 0.000171183 -0.000477299 0.00107649 )  
( -0.00067639 0.00101343 4.22924e-08 )  
( 9.95913e-05 -0.000256528 0.000523264 )  
( 0.000411551 0.000206099 0.000272076 )  
( 0.000171127 -0.000344726 0.000545393 )  
( -2.24499e-05 9.68173e-05 3.67144e-06 )  
( -2.96544e-05 0.000219605 0.000359331 )  
( 0.000387366 -0.000269631 0.000787608 )  
( 9.79852e-06 0.000104537 0.000536316 )  
( 3.64991e-05 -0.000190839 0.000619518 )  
( 0.000305367 0.000126041 0.000413199 )  
( 0.000111715 0.000282862 0.000506371 )  
( 1.89128e-05 7.42976e-05 0.00044286 )  
( -0.00042765 9.61633e-05 5.28171e-05 )  
( 0.000383333 -1.57266e-05 0.00025186 )  
( 0.000295584 -0.000102853 6.32862e-05 )  
( 5.14666e-05 -0.000181897 0.000774149 )  
( 0.000177934 0.000136126 0.000670171 )  
( -0.000230132 -0.000147779 0.000670273 )  
( 0.000248225 0.000136881 7.05841e-05 )  
( -0.000177803 -0.000179465 0.000410088 )  
( 0.000108215 -4.53659e-05 0.000747545 )  
( -0.000110029 0.000396065 0.00032719 )  
( -0.000308747 1.70691e-05 0.0010275 )  
( 4.14422e-05 -1.63636e-05 0.000735825 )  
( 3.17961e-05 -6.99516e-05 0.000560352 )  
( 0.000257612 0.000107001 0.000144425 )  
( 0.00010208 -2.09689e-05 0.0003321 )  
( 0.000146465 -1.61636e-05 4.27725e-05 )  
( 0.000143579 -1.03832e-05 0.000819538 )  
( -2.34708e-05 0.000221806 0.000630766 )  
( 0.000163456 -0.00013639 0.000266621 )  
( -4.77627e-05 0.000346192 0.000205922 )  
( 0.000151692 0.000344801 5.27039e-05 )  
( -0.000117726 -0.000114147 -0.000289237 )  
( 0.000344797 -0.000343373 0.000381982 )  
( -0.000280307 -1.53365e-05 0.00106789 )  
( -0.00010957 8.74842e-05 -3.97211e-05 )  
( 0.000361363 0.00011869 0.000588668 )  
( -5.98264e-05 -7.02802e-05 0.000373405 )  
( -8.7706e-05 -2.17933e-05 0.000565442 )  
( -0.000275088 -0.000104591 0.0002066 )  
( -1.59479e-05 0.000116379 0.000498644 )  
( 6.66735e-05 0.000209429 0.000569053 )  
( 0.00022319 -0.000458321 0.000286728 )  
( 2.94869e-05 0.000214747 0.000317407 )  
( 0.000155778 0.000103063 0.00066863 )  
( 0.000114937 -0.000327945 0.000349506 )  
( 0.000181178 1.02786e-05 -7.61689e-05 )  
( 0.000158074 1.11988e-05 0.000353938 )  
( -1.08008e-05 -1.26118e-07 2.96273e-05 )  
( -3.67336e-05 -5.70841e-05 0.000376624 )  
( -0.000539202 0.000289936 0.000333021 )  
( -0.000282044 -0.000427267 0.000618079 )  
( 0.000242402 -4.64552e-05 0.00047841 )  
( 1.87433e-05 -4.13072e-05 0.000477683 )  
( -4.42764e-05 -4.18404e-05 -9.87595e-06 )  
( -0.000188565 -0.000179344 0.000209 )  
( 0.00048557 -9.9574e-05 0.00037255 )  
( -0.000108624 -0.000468027 0.00106065 )  
( -0.000267988 8.48036e-05 0.000435169 )  
( -0.000158133 -0.000336633 0.000177236 )  
( 0.000108392 7.39525e-05 5.66335e-05 )  
( 0.00075758 0.000257945 0.000245531 )  
( -0.00040052 -4.31624e-06 0.000706088 )  
( 0.000285707 -0.000444922 6.19115e-05 )  
( -0.000256477 -0.00020453 0.000406214 )  
( 4.28052e-05 -0.000366881 0.000334351 )  
( 0.000102239 8.51501e-05 0.000280474 )  
( 5.1475e-05 -0.000284514 0.000545117 )  
( 5.64004e-06 0.000166809 0.000313696 )  
( -1.47761e-05 -0.000432987 -7.75217e-05 )  
( -3.04338e-05 -7.03828e-05 0.000538954 )  
( -0.000179257 0.000193621 0.000148723 )  
( -0.000102206 -2.90517e-05 7.53e-05 )  
( -7.74734e-05 -1.22608e-05 0.000167733 )  
( 6.98299e-05 -0.000189699 0.000568903 )  
( -1.91635e-05 3.01046e-05 7.42106e-05 )  
( -0.000155123 -0.000445912 0.000280055 )  
( 0.00013307 0.000104381 0.000582303 )  
( 0.000449037 -0.000385363 0.000831769 )  
( 0.000160996 -7.16979e-05 7.39435e-05 )  
( -1.14263e-05 -0.000299542 0.00070129 )  
( -7.84239e-05 -0.0002339 -0.000209492 )  
( -0.00025896 3.46027e-05 0.000539618 )  
( -8.05844e-06 0.000235479 0.000444795 )  
( -9.15442e-05 -0.00045859 0.000152331 )  
( -0.000205595 -0.000150354 5.94245e-05 )  
( 0.000187546 -0.000302991 0.000237128 )  
( -8.86352e-05 -0.000360794 0.000405047 )  
( -0.000255471 -9.57179e-05 0.000151581 )  
( -0.000127985 -1.13877e-05 0.000118756 )  
( -3.92331e-08 0.000226088 0.00067017 )  
( 0.000149127 0.000219125 0.00051002 )  
( -1.73756e-05 0.000158313 -0.000120457 )  
( 0.000308657 -0.000131356 0.000332318 )  
( 4.96092e-05 -6.05991e-05 0.000355728 )  
( 6.46308e-05 0.000273805 0.000140221 )  
( 9.18733e-06 -0.000218152 0.000613993 )  
( -0.000293832 -0.000209821 0.000181808 )  
( -3.9285e-06 2.5683e-05 1.56571e-05 )  
( -0.00026186 0.000152074 0.000630035 )  
( 0.000200004 -0.000414497 0.000549424 )  
( 0.000124818 3.06317e-05 0.000102085 )  
( 0.000110491 2.67975e-05 0.000255895 )  
( 6.35492e-05 5.54606e-05 0.000315079 )  
( 0.000103491 0.000197661 -0.000151269 )  
( -0.000404356 -0.000483736 0.000114393 )  
( 4.10444e-05 -0.000200867 0.000169395 )  
( -3.26754e-05 -0.000102021 3.86725e-05 )  
( -3.12846e-05 -5.54431e-05 0.000109179 )  
( -7.40168e-05 -6.70226e-05 7.90363e-05 )  
( -3.73283e-06 8.21141e-05 0.000505522 )  
( -0.000143089 -0.000315187 0.000271006 )  
( -0.000101131 8.1653e-05 8.7909e-05 )  
( 0.000153252 0.000495669 -9.58541e-06 )  
( -0.000437062 0.000220996 0.00028489 )  
( -0.000302183 1.89883e-06 0.000251293 )  
( 0.000187667 -0.000103316 -2.87784e-05 )  
( 0.000153792 0.000545802 -6.2159e-05 )  
( -0.000147619 0.000647035 -0.000839323 )  
( -0.000164373 0.000135762 0.000528045 )  
( -1.15765e-05 -1.02128e-05 1.51064e-05 )  
( -0.000284097 -1.71399e-05 0.000190911 )  
( 0.00039831 -0.000500196 0.00125599 )  
( -8.66717e-05 0.000242633 0.000733728 )  
( -1.19456e-05 -7.74038e-05 4.76368e-05 )  
( -3.41218e-05 1.90322e-05 1.38533e-05 )  
( 0.000145805 5.57884e-05 0.000531626 )  
( 0.000143137 0.000276322 -0.000293564 )  
( 0.000135927 -0.000351787 0.000466736 )  
( 7.18672e-05 -0.000143778 0.000268609 )  
( 0.000251376 -0.00015774 0.000331467 )  
( -7.66982e-05 -0.000291561 0.000572532 )  
( 2.50682e-06 -0.000269942 0.000731166 )  
( 9.89454e-05 0.000106133 6.06623e-05 )  
( 0.000177622 -0.000531498 0.000749114 )  
( -2.0537e-05 -1.81958e-05 1.92834e-05 )  
( 0.000138034 -0.000117101 0.000408761 )  
( 0.000186318 -8.76983e-05 0.000135617 )  
( -0.000904323 -0.000588918 -0.000293214 )  
( -3.65541e-05 -8.95595e-05 -9.65755e-05 )  
( 0.000117965 7.95997e-05 3.4442e-06 )  
( 0.000171787 0.000121463 0.000288779 )  
( -0.000251871 0.000533299 0.000519936 )  
( 5.53961e-05 -7.57498e-05 0.000209945 )  
( 7.98585e-05 0.000156987 0.000463402 )  
( -0.000206942 0.000197601 0.000245009 )  
( -0.000235097 6.70385e-06 0.000726426 )  
( 0.000111361 7.67458e-05 0.000514821 )  
( -0.000458096 0.000195888 0.000115603 )  
( -0.000155479 -3.26072e-05 0.000375046 )  
( 0.000279285 -7.9204e-05 0.000439795 )  
( -0.000763217 -3.33294e-05 0.000444658 )  