/*--------------------------------*- C++ -*----------------------------------*\
| =========                 |                                                 |
| \\      /  F ield         | OpenFOAM: The Open Source CFD Toolbox           |
|  \\    /   O peration     | Version:  2506                                  |
|   \\  /    A nd           | Website:  www.openfoam.com                      |
|    \\/     M anipulation  |                                                 |
\*---------------------------------------------------------------------------*/
FoamFile
{
    version     2.0;
    format      ascii;
    arch        "LSB;label=32;scalar=64";
    class       volScalarField;
    location    "0.06";
    object      Ksl;
}
// * * * * * * * * * * * * * * * * * * * * * * * * * * * * * * * * * * * * * //

dimensions      [1 -3 -1 0 0 0 0];

internalField   nonuniform List<scalar> 
1152
(
53360.7
107519
97478.2
122063
106041
81820.6
190898
129371
100472
119335
116954
77460.5
240785
92898.1
57384.8
73502.2
329066
287165
211235
303843
209147
294094
287118
175262
174100
212915
198450
266254
242824
837645
2.71139e+07
205297
103458
371067
206419
1.30107e+06
485288
229414
172566
181056
294205
246579
233601
281665
168656
166833
119110
6.93695e+06
827886
168710
472856
256554
276676
486349
143063
215244
155864
272359
256362
346258
4.6905e+06
205745
248034
362965
151350
293727
167436
241045
171774
288781
286655
196389
1.50211e+06
155400
436207
181562
131147
9.75859e+06
105908
205579
1.18718e+06
151280
300914
136741
122584
528830
177714
741453
296652
141959
218206
312257
142049
270181
230554
155200
44580
41463.7
92966.4
38681.7
52972.3
110622
61770.1
124296
110012
41841.3
109311
55037
197229
72924
21049.2
37485.8
0
0
0
0
0
0
0
0
0
0
0
0
239.34
0
0
0
0
0
0
0
0
0
0
0
0
0
0
0
0
0
0
0
0
0
0
0
0
0
0
0
0
0
0
0
0
0
0
0
0
0
0
0
0
0
0
0
0
0
0
0
0
0
0
0
0
0
0
0
0
0
0
0
0
0
0
0
0
0
0
0
0
0
0
0
0
0
0
0
0
0
0
0
0
0
0
0
0
0
0
0
0
0
0
0
0
0
0
0
0
0
0
0
0
0
0
0
0
0
0
0
0
0
0
0
0
0
0
0
0
0
0
0
0
0
0
0
0
0
0
0
0
0
0
0
0
0
0
0
0
0
0
0
0
0
0
0
0
0
0
0
0
0
0
0
0
0
0
0
0
0
0
0
0
0
0
0
0
0
0
0
0
0
0
0
0
0
0
0
0
0
0
0
0
0
0
0
0
0
0
0
0
0
0
0
0
0
0
0
0
0
0
0
0
0
0
0
0
0
0
0
0
0
0
0
0
0
0
0
0
0
0
0
0
0
0
0
0
0
0
0
0
0
0
0
0
0
0
0
0
0
0
0
0
0
0
0
0
0
0
0
0
0
0
0
0
0
0
0
0
0
0
0
72813.3
168915
173076
101563
132952
91262.5
66845.3
105051
115442
185823
86062.2
83583.4
86345.3
98993
107208
221857
258240
182217
223483
158436
262885
171783
238027
269568
159786
246578
197179
226642
179488
398375
279301
205894
285991
205247
246676
177273
217703
286928
185223
171897
264677
229253
162306
480260
6.46984e+06
150662
1.35021e+06
147793
982271
190618
279626
134575
741288
196063
180201
517304
161589
240513
306917
258007
294193
1.01159e+06
150056
214781
275680
165931
170682
178803
197438
262528
304783
256997
164347
408497
152255
247750
297923
139841
686766
131317
8.59015e+06
135198
310590
173515
127782
202936
184257
160070
346322
172220
238337
213105
229866
501996
185128
273437
95755.4
95218.2
83258.1
49445.4
38449.1
43239.4
135042
139196
32849
42941.6
48880.9
35870.1
27456.7
43583.6
43850.4
58025
0
0
0
0
0
0
0
0
0
0
0
0
0
0
0
0
0
0
0
0
0
0
0
0
0
0
0
0
0
0
0
0
0
0
0
0
0
0
0
0
0
0
0
0
0
0
0
0
0
0
0
0
0
0
0
0
0
0
0
0
0
0
0
0
0
0
0
0
0
0
0
0
0
0
0
0
0
0
0
0
0
0
0
0
0
0
0
0
0
0
0
0
0
0
0
0
0
0
0
0
0
0
0
0
0
0
0
0
0
0
0
0
0
0
0
0
0
0
0
0
0
0
0
0
0
0
0
0
0
0
0
0
0
0
0
0
0
0
0
0
0
0
0
0
0
0
0
0
0
0
0
0
0
0
0
0
0
0
0
0
0
0
0
0
0
0
0
0
0
0
0
0
0
0
0
0
0
0
0
0
0
0
0
0
0
0
0
0
0
0
0
0
0
0
0
0
0
0
0
0
0
0
0
0
0
0
0
0
0
0
0
0
0
0
0
0
0
0
0
0
0
0
0
0
0
0
0
0
0
0
0
0
0
0
0
0
0
0
0
0
0
0
0
0
0
0
0
0
0
0
0
0
0
0
0
0
0
0
0
0
0
0
0
0
0
0
0
0
0
0
0
0
85596.1
94454.7
123209
70557.6
81962.1
179593
610652
129349
127403
122992
86582
126847
254495
98651.8
88310.9
110596
967100
143483
360932
276585
321203
288067
138779
123533
374754
124911
259199
173304
240746
707360
221264
557156
122912
190319
390098
193074
225897
175523
398415
202532
204136
404522
144405
382787
153393
200992
275016
121305
453780
197323
542646
163752
351928
358260
132991
300880
238782
192916
6.23899e+06
129771
220977
261370
1.3891e+06
3.70976e+06
355428
153187
401830
409566
196516
209308
221222
160310
224076
289250
115675
354223
261902
190214
187251
113551
2.01721e+06
185694
1.51041e+06
97300.8
154508
303148
108988
533096
205186
284961
259914
209405
282120
198973
313171
351225
54994.4
67703.4
58261.6
48869.3
49925.6
94570.3
52638.4
19446.4
86675.7
37867
20843.8
53787.9
55518.7
47481.1
19327.1
20204.9
0
0
0
0
0
0
0
0
0
0
0
0
0
0
0
0
0
0
0
0
0
0
0
0
0
0
0
0
0
0
0
0
0
0
0
0
0
0
0
0
0
0
0
0
0
0
0
0
0
0
0
0
0
0
0
0
0
0
0
0
0
0
0
0
0
0
0
0
0
0
0
0
0
0
0
0
0
0
0
0
0
0
0
0
0
0
0
0
0
0
0
0
0
0
0
0
0
0
0
0
0
0
0
0
0
0
0
0
0
0
0
0
0
0
0
0
0
0
0
0
0
0
0
0
0
0
0
0
0
0
0
0
0
0
0
0
0
0
0
0
0
0
0
0
0
0
0
0
0
0
0
0
0
0
0
0
0
0
0
0
0
0
0
0
0
0
0
0
0
0
0
0
0
0
0
0
0
0
0
0
0
0
0
0
0
0
0
0
0
0
0
0
0
0
0
0
0
0
0
0
0
0
0
0
0
0
0
0
0
0
0
0
0
0
0
0
0
0
0
0
0
0
0
0
0
0
0
0
0
0
0
0
0
0
0
0
0
0
0
0
0
0
0
0
0
0
0
0
0
0
0
0
0
0
0
0
0
0
0
0
0
0
0
0
0
0
0
0
0
0
0
0
)
;

boundaryField
{
    inlet
    {
        type            zeroGradient;
    }
    outlet
    {
        type            zeroGradient;
    }
    wall
    {
        type            zeroGradient;
    }
    procBoundary1to0
    {
        type            processor;
        value           nonuniform List<scalar> 
192
(
412698
151109
114322
115516
756804
215775
925127
264826
1.01813e+07
207369
131882
468484
161094
164453
8.27297e+06
118005
225202
650779
109793
5.16896e+06
237281
118397
185440
282195
76123.2
316763
40006.3
85174.3
0
0
0
0
0
0
0
0
0
0
0
0
0
0
0
0
0
0
0
0
0
0
0
0
0
0
0
0
0
0
0
0
0
0
0
0
0
0
0
0
0
0
0
0
0
0
0
0
0
0
0
0
0
0
0
0
0
0
0
0
0
0
0
0
0
0
0
0
303533
148345
82689.7
618469
150796
146372
328186
152463
220453
225154
392800
136121
134771
195523
186079
331589
141043
238855
392215
151826
121271
236626
153319
156020
62273.1
82406.1
27382.4
54905.9
0
0
0
0
0
0
0
0
0
0
0
0
0
0
0
0
0
0
0
0
0
0
0
0
0
0
0
0
0
0
0
0
0
0
0
0
0
0
0
0
0
0
0
0
0
0
0
0
0
0
0
0
0
0
0
0
0
0
0
0
0
0
0
0
0
0
0
0
)
;
    }
    procBoundary1to3
    {
        type            processor;
        value           nonuniform List<scalar> 
192
(
52094.2
164176
135592
376607
113379
315475
131505
224256
445542
261752
697868
104528
614655
319959
147021
450736
8.00244e+06
104226
4.75643e+06
222292
99510
261097
163137
203316
787423
81935.5
213713
59997.7
0
0
0
0
0
0
0
0
0
0
0
0
0
0
0
0
0
0
0
0
0
0
0
0
0
0
0
0
0
0
0
0
0
0
0
0
0
0
0
0
0
0
0
0
0
0
0
0
0
0
0
0
0
0
0
0
0
0
0
0
0
0
0
0
0
0
0
0
87496.2
78852.7
173992
152838
285736
295489
138155
131139
310399
610532
216774
194702
189950
189936
152841
152430
189535
319841
292660
242201
143987
177674
110483
198066
58102.7
54309.3
51866.9
89672.1
0
0
0
0
0
0
0
0
0
0
0
0
0
0
0
0
0
0
0
0
0
0
0
0
0
0
0
0
0
0
0
0
0
0
0
0
0
0
0
0
0
0
0
0
0
0
0
0
0
0
0
0
0
0
0
0
0
0
0
0
0
0
0
0
0
0
0
0
)
;
    }
}


// ************************************************************************* //
