/*--------------------------------*- C++ -*----------------------------------*\
| =========                 |                                                 |
| \\      /  F ield         | OpenFOAM: The Open Source CFD Toolbox           |
|  \\    /   O peration     | Version:  2506                                  |
|   \\  /    A nd           | Website:  www.openfoam.com                      |
|    \\/     M anipulation  |                                                 |
\*---------------------------------------------------------------------------*/
FoamFile
{
    version     2.0;
    format      ascii;
    arch        "LSB;label=32;scalar=64";
    class       surfaceScalarField;
    location    "0.06";
    object      phi;
}
// * * * * * * * * * * * * * * * * * * * * * * * * * * * * * * * * * * * * * //

dimensions      [0 3 -1 0 0 0 0];

oriented        oriented;

internalField   nonuniform List<scalar> 
3120
(
-6.21043e-09
-5.16891e-09
6.97397e-08
-8.87477e-10
5.60025e-10
1.35171e-09
2.99784e-08
-7.10161e-11
1.1567e-11
-6.3198e-11
3.7922e-08
6.88075e-10
4.78149e-09
2.60354e-08
4.56808e-10
6.8427e-09
-1.38892e-10
3.153e-09
3.68377e-08
-1.88592e-09
4.93173e-09
3.61742e-08
3.41515e-09
1.08539e-08
2.15799e-08
9.28422e-09
3.60364e-08
1.11998e-09
1.94744e-09
3.21121e-09
4.23606e-08
6.11927e-09
6.18044e-09
3.20025e-08
-2.51733e-09
2.12431e-08
3.55266e-08
7.62435e-09
4.29065e-08
-5.93367e-09
4.15009e-09
2.03139e-08
2.29847e-08
2.58743e-08
-1.95461e-08
1.15e-07
5.0552e-08
-1.25241e-08
-2.1195e-09
7.6732e-10
6.85734e-08
4.81233e-10
1.33036e-09
2.62426e-09
2.28433e-08
1.06093e-09
8.3725e-11
8.18296e-09
3.43597e-08
-3.374e-09
5.6998e-09
1.38289e-08
3.85404e-09
2.73641e-09
1.75726e-11
4.36931e-09
2.57712e-08
6.26633e-09
4.65179e-09
2.78979e-08
-2.48773e-09
2.37506e-09
3.61419e-08
-3.65783e-09
4.4988e-08
-2.08175e-09
7.60288e-10
4.6109e-09
3.75505e-08
6.12639e-09
4.52518e-10
3.08357e-08
-7.80106e-09
2.16507e-08
3.01784e-08
3.25828e-09
2.41634e-08
4.02593e-09
-2.52353e-09
3.28351e-08
-5.60898e-09
2.87389e-08
-1.13219e-08
1.36935e-07
2.51134e-08
7.09337e-09
2.72568e-09
-2.0192e-09
5.5824e-08
-8.88558e-09
-2.5997e-09
-2.88113e-09
3.43231e-08
-3.27332e-09
6.18018e-10
5.12213e-09
2.54675e-08
5.52316e-10
-6.13925e-10
1.76656e-08
-7.01404e-10
-1.90334e-09
-6.64905e-10
7.66783e-10
2.04108e-08
3.92296e-09
-2.08781e-09
2.25167e-08
-2.9745e-09
-9.53982e-09
5.77013e-08
-2.0431e-09
4.2624e-08
8.18612e-10
-3.05193e-09
-5.58418e-09
4.2194e-08
-2.8397e-09
-2.9651e-09
3.15007e-08
3.78448e-09
-2.03346e-08
3.4349e-08
4.43656e-10
2.1813e-08
3.64806e-09
-5.38819e-10
3.55784e-08
-2.53059e-08
5.18236e-08
5.37381e-10
7.60737e-08
1.43171e-08
5.46728e-09
4.4882e-09
4.66008e-09
3.77446e-08
4.296e-09
6.5579e-10
-1.62241e-09
3.83761e-08
1.40186e-09
1.01364e-09
-5.19092e-09
3.1832e-08
-1.53141e-09
-3.48048e-09
3.04591e-08
-1.97763e-09
-6.32185e-09
-3.06804e-09
-3.8851e-09
3.81014e-08
-2.71457e-09
2.07334e-09
1.84675e-08
3.90701e-09
-6.81465e-10
4.65702e-08
3.32591e-09
3.83992e-08
1.32545e-09
8.05408e-10
5.56683e-10
3.52447e-08
-4.8695e-09
-3.53827e-09
4.27872e-08
4.6236e-09
3.1354e-10
2.38609e-08
4.47191e-10
3.11403e-08
-1.82493e-09
-4.96386e-09
4.80186e-08
-2.60512e-09
3.7327e-08
4.42888e-09
6.50917e-08
2.86867e-08
-3.8142e-09
8.16573e-10
3.73801e-09
3.3313e-08
2.7546e-09
-6.24764e-10
-1.57119e-10
3.85738e-08
1.40072e-09
2.35604e-09
-5.00232e-09
3.49516e-08
-1.09813e-09
-5.7185e-09
4.56887e-08
-5.18066e-09
-1.97435e-09
-2.92725e-09
-9.1044e-09
5.6765e-08
-3.72826e-09
2.34059e-09
1.67708e-08
1.72181e-09
2.50719e-09
3.36106e-08
4.37475e-09
2.37962e-08
6.23147e-09
6.90627e-09
2.48279e-09
1.75735e-08
-2.77588e-09
3.41856e-10
5.44681e-08
1.11141e-09
-1.65238e-09
2.41331e-08
3.81014e-09
3.24664e-08
3.49961e-10
8.772e-10
5.36701e-08
5.59561e-09
2.34259e-08
9.15008e-09
6.65402e-08
4.53231e-08
-3.00981e-09
2.23985e-10
-8.98204e-09
4.23705e-08
2.95866e-09
-3.39413e-09
-2.79806e-09
4.34598e-08
1.53022e-09
3.358e-09
-1.17209e-10
2.34154e-08
4.9013e-09
-4.3705e-09
5.08249e-08
-1.79928e-09
4.39154e-09
3.72654e-09
-1.91852e-09
5.34739e-08
2.78323e-10
-1.09426e-09
1.85152e-08
-2.27334e-10
-2.29721e-10
3.42288e-08
9.00596e-10
1.58461e-08
2.45169e-09
3.07381e-09
-1.11322e-08
2.43933e-08
1.52859e-09
-2.44356e-09
5.73627e-08
1.42576e-09
2.5269e-09
2.14794e-08
1.58368e-09
3.38813e-08
-6.72236e-10
1.13313e-08
2.4288e-08
5.27535e-09
3.29839e-08
-3.32562e-10
8.44341e-08
4.91273e-08
9.8528e-11
-3.09733e-12
-1.12531e-09
4.13552e-08
1.57085e-09
7.44103e-10
1.79826e-09
3.95086e-08
1.40566e-09
-1.85477e-09
-1.35953e-09
2.81655e-08
-7.91724e-10
1.09529e-09
4.47348e-08
1.8462e-09
1.29381e-09
1.93507e-09
1.78846e-09
4.60671e-08
-5.37549e-10
-2.44251e-09
2.52286e-08
1.49555e-09
-6.47651e-10
3.14838e-08
-1.15594e-09
2.08714e-08
-1.27868e-09
-1.93568e-09
-2.46721e-11
3.12993e-08
2.02596e-09
-3.12678e-10
5.1271e-08
1.50978e-09
-1.14741e-08
3.28221e-08
-1.56678e-09
3.21428e-08
3.65915e-09
4.94595e-10
2.4301e-08
-3.76171e-10
3.66384e-08
6.61637e-09
7.05126e-08
4.7608e-08
6.63127e-09
-9.30136e-10
2.35572e-09
4.14885e-08
-2.76073e-09
-1.51427e-10
2.43826e-09
3.72942e-08
-1.00284e-09
-1.77056e-09
-3.66403e-10
3.06439e-08
-4.93269e-10
1.19577e-09
3.96266e-08
1.73204e-09
4.09445e-10
-3.16732e-11
2.95838e-09
4.53216e-08
-2.70929e-09
-3.62334e-10
3.0707e-08
-1.36801e-09
-1.41375e-09
3.11903e-08
-1.05615e-09
2.4519e-08
-2.76447e-09
-1.50298e-09
-2.44037e-10
3.76643e-08
-5.44271e-10
3.24181e-10
4.9625e-08
-1.17694e-09
-4.95942e-09
3.70005e-08
-1.50084e-09
3.20621e-08
-6.50862e-10
-2.92793e-09
2.89738e-08
-6.93846e-09
4.12355e-08
6.58438e-10
5.4176e-08
4.43374e-08
1.48106e-09
1.4597e-09
1.44997e-09
3.94495e-08
-9.37543e-10
1.9021e-09
8.90892e-10
3.78471e-08
-1.88644e-09
-1.13061e-09
5.00707e-10
3.52455e-08
-2.06975e-09
3.85868e-09
3.71951e-08
-2.3252e-09
-2.32992e-10
2.18993e-09
3.55031e-09
3.98049e-08
1.05756e-09
-3.274e-09
3.60038e-08
1.5982e-10
-2.32592e-09
3.49147e-08
-1.67851e-09
3.30225e-08
-2.80656e-09
-3.87249e-10
4.00661e-09
3.8844e-08
2.67552e-09
1.39611e-09
4.18912e-08
1.65241e-09
-1.97547e-09
3.76726e-08
-2.90959e-09
3.55267e-08
-5.81234e-10
-5.5111e-09
3.59324e-08
-4.17386e-09
3.96688e-08
4.67227e-10
4.29937e-08
4.01664e-08
8.18827e-10
9.94617e-10
7.12321e-10
3.86523e-08
-5.9504e-10
1.39044e-09
2.28978e-10
3.80269e-08
-8.05059e-10
2.48875e-10
-1.29754e-10
3.69484e-08
-4.31699e-10
3.83572e-10
3.72549e-08
-2.16288e-10
2.16325e-11
1.0107e-09
9.96205e-10
3.84828e-08
8.71737e-10
-1.17229e-09
3.75435e-08
2.25465e-10
-1.29215e-09
3.67231e-08
-1.23436e-09
3.61746e-08
-1.30892e-09
1.60625e-10
1.55019e-09
3.86124e-08
1.03389e-09
5.43083e-10
3.93017e-08
4.99959e-10
-9.84943e-10
3.78988e-08
-1.50403e-09
3.7117e-08
-8.21138e-10
-1.87944e-09
3.76134e-08
-1.58644e-09
3.88712e-08
-4.22802e-10
3.94143e-08
3.8733e-08
-7.39189e-10
4.76528e-10
4.88877e-10
3.84826e-08
-4.13988e-10
4.79458e-10
3.51324e-10
3.82337e-08
-5.61368e-10
-1.2557e-10
2.11617e-10
3.77633e-08
-4.21595e-10
4.81261e-10
3.77277e-08
-6.06747e-10
-4.73092e-10
4.13458e-10
4.23412e-10
3.83607e-08
3.61363e-10
-1.57717e-10
3.81043e-08
-9.63647e-11
-3.20414e-10
3.77127e-08
-2.38763e-10
3.75311e-08
-7.33054e-10
1.06184e-10
6.89449e-10
3.84861e-08
3.44961e-10
2.78962e-10
3.86256e-08
2.76398e-11
-2.54216e-10
3.81495e-08
-4.71393e-10
3.78858e-08
-5.08809e-10
-6.20018e-10
3.81451e-08
-5.14264e-10
3.85534e-08
-3.63763e-10
3.86162e-08
3.84665e-08
-5.87394e-10
3.15441e-10
2.72031e-10
3.84327e-08
-2.48385e-10
3.36004e-10
1.94174e-10
3.83123e-08
-2.93635e-10
9.34425e-11
6.66788e-11
3.80779e-08
-1.38913e-10
5.25195e-11
3.79763e-08
-1.23709e-10
-8.4163e-11
2.36784e-10
2.17768e-10
3.83942e-08
2.23052e-10
1.6514e-11
3.82953e-08
1.91713e-12
-1.08642e-10
3.81089e-08
-1.39433e-10
3.80041e-08
-2.79355e-10
9.57496e-11
3.24522e-10
3.84418e-08
1.41283e-10
1.38191e-10
3.84579e-08
-2.13275e-11
-7.93399e-11
3.82824e-08
-1.80708e-10
3.81746e-08
-2.69253e-10
-1.6834e-10
3.83196e-08
-1.64343e-10
3.84478e-08
-2.14636e-10
3.84404e-08
3.83974e-08
-3.69032e-10
1.84094e-10
1.64596e-10
3.84331e-08
-1.50727e-10
1.70762e-10
1.30204e-10
3.83649e-08
-1.6967e-10
4.48041e-11
6.838e-11
3.82303e-08
-9.50855e-11
5.73073e-11
3.81204e-08
-1.00449e-10
-5.63037e-11
1.3993e-10
1.39496e-10
3.84392e-08
1.11995e-10
6.35148e-11
3.83896e-08
-4.91764e-12
2.70288e-12
3.82911e-08
-2.10917e-11
3.8211e-08
-1.33752e-10
7.68988e-11
1.673e-10
3.84557e-08
6.63369e-11
8.62139e-11
3.84452e-08
-2.26964e-11
4.32715e-12
3.83695e-08
-4.23836e-11
3.83041e-08
-1.31204e-10
-2.15944e-11
3.84099e-08
-5.23121e-11
3.84466e-08
-1.06941e-10
3.84275e-08
3.83968e-08
-1.91241e-10
1.15926e-10
9.80865e-11
3.84407e-08
-8.98425e-11
1.01569e-10
8.25445e-11
3.83935e-08
-9.70721e-11
4.04982e-11
4.87834e-11
3.83005e-08
-5.8076e-11
3.59229e-11
3.81888e-08
-5.41967e-11
-9.84716e-12
9.2216e-11
8.80632e-11
3.84693e-08
6.94721e-11
5.88735e-11
3.84357e-08
1.00204e-11
2.77124e-11
3.83714e-08
1.31098e-11
3.8294e-08
-5.02464e-11
6.37506e-11
9.12467e-11
3.84813e-08
4.33622e-11
5.90731e-11
3.8465e-08
-3.76955e-12
2.37931e-11
3.84203e-08
3.12021e-12
3.83615e-08
-5.13727e-11
2.42482e-11
3.84651e-08
1.62071e-13
3.84676e-08
-3.94958e-11
3.84465e-08
3.84083e-08
-8.43188e-11
7.60669e-11
5.91522e-11
3.8448e-08
-5.42377e-11
6.46262e-11
5.24029e-11
3.84101e-08
-5.76783e-11
3.30863e-11
3.49743e-11
3.83345e-08
-3.75733e-11
2.75119e-11
3.82228e-08
-3.54826e-11
6.85401e-12
6.42767e-11
5.51548e-11
3.84881e-08
4.76266e-11
4.35758e-11
3.8461e-08
1.6505e-11
2.82576e-11
3.84091e-08
1.99286e-11
3.83304e-08
-1.24456e-11
5.17599e-11
5.21852e-11
3.85031e-08
3.45444e-11
3.9746e-11
3.84858e-08
8.33083e-12
2.49987e-11
3.84496e-08
1.51269e-11
3.83899e-08
-1.53888e-11
3.64507e-11
3.84993e-08
1.75118e-11
3.84907e-08
-6.87494e-12
3.84667e-08
3.84205e-08
-3.11305e-11
5.20634e-11
3.58553e-11
3.84533e-08
-3.28708e-11
4.39892e-11
3.31142e-11
3.84198e-08
-3.49689e-11
2.7107e-11
2.46905e-11
3.83518e-08
-2.53132e-11
2.06778e-11
3.824e-08
-2.40356e-11
1.31761e-11
4.66583e-11
3.41566e-11
3.84996e-08
3.54816e-11
2.95504e-11
3.84756e-08
1.8534e-11
2.24123e-11
3.84282e-08
1.81007e-11
3.8348e-08
3.50155e-12
4.14598e-11
3.07053e-11
3.85181e-08
2.92814e-11
2.60894e-11
3.85012e-08
1.40477e-11
2.0007e-11
3.84671e-08
1.56076e-11
3.84053e-08
1.11411e-12
3.55884e-11
3.85205e-08
2.24809e-11
3.85083e-08
7.61365e-12
3.84821e-08
3.84309e-08
-6.48417e-12
3.68297e-11
2.19159e-11
3.84567e-08
-2.01544e-11
3.13242e-11
2.10391e-11
3.84258e-08
-2.15659e-11
2.18322e-11
1.72439e-11
3.83612e-08
-1.72962e-11
1.53628e-11
3.82494e-08
-1.67846e-11
1.37823e-11
3.45517e-11
2.11386e-11
3.85065e-08
2.73164e-11
1.94491e-11
3.84843e-08
1.76264e-11
1.63419e-11
3.84387e-08
1.4282e-11
3.83576e-08
9.09761e-12
3.25055e-11
1.85834e-11
3.85277e-08
2.45052e-11
1.69695e-11
3.85114e-08
1.5368e-11
1.45935e-11
3.84778e-08
1.2739e-11
3.84146e-08
7.5132e-12
3.04313e-11
3.85333e-08
2.18564e-11
3.85203e-08
1.26546e-11
3.84929e-08
3.84389e-08
4.2445e-12
2.65069e-11
1.35427e-11
3.84588e-08
-1.24985e-11
2.28545e-11
1.3469e-11
3.84294e-08
-1.35188e-11
1.72912e-11
1.19132e-11
3.83667e-08
-1.18293e-11
1.11813e-11
3.8255e-08
-1.18146e-11
1.23558e-11
2.57002e-11
1.31594e-11
3.85106e-08
2.10777e-11
1.27209e-11
3.84896e-08
1.53163e-11
1.14676e-11
3.84449e-08
1.05943e-11
3.83634e-08
1.01013e-11
2.50407e-11
1.14483e-11
3.85336e-08
1.99161e-11
1.10587e-11
3.8518e-08
1.42572e-11
1.02252e-11
3.84847e-08
9.47949e-12
3.84207e-08
9.24352e-12
2.4436e-11
3.8541e-08
1.89558e-11
3.8528e-08
1.31427e-11
3.85002e-08
3.84449e-08
7.7545e-12
1.91545e-11
8.47375e-12
3.84601e-08
-7.83121e-12
1.67563e-11
8.70318e-12
3.84317e-08
-8.60078e-12
1.33198e-11
8.19617e-12
3.837e-08
-8.08251e-12
8.01424e-12
3.82584e-08
-8.36948e-12
1.0214e-11
1.89934e-11
8.29045e-12
3.85131e-08
1.60634e-11
8.32031e-12
3.84928e-08
1.25226e-11
7.90474e-12
3.84488e-08
7.59765e-12
3.83671e-08
9.20192e-12
1.88988e-11
7.20234e-12
3.85372e-08
1.56515e-11
7.2473e-12
3.85221e-08
1.20558e-11
7.03527e-12
3.84891e-08
6.78027e-12
3.84249e-08
8.72354e-12
1.88309e-11
3.85456e-08
1.53511e-11
3.8533e-08
1.16172e-11
3.85051e-08
3.84492e-08
8.05923e-12
1.3733e-11
5.36403e-12
3.84608e-08
-4.94423e-12
1.21797e-11
5.65706e-12
3.84331e-08
-5.5324e-12
1.00613e-11
5.57172e-12
3.8372e-08
-5.51388e-12
5.66302e-12
3.82607e-08
-5.86767e-12
8.00761e-12
1.38115e-11
5.29916e-12
3.85145e-08
1.19567e-11
5.46402e-12
3.84949e-08
9.70362e-12
5.38992e-12
3.84512e-08
5.31478e-12
3.83696e-08
7.56867e-12
1.39062e-11
4.66965e-12
3.85393e-08
1.18564e-11
4.81316e-12
3.85247e-08
9.55274e-12
4.79807e-12
3.84919e-08
4.72638e-12
3.84277e-08
7.30304e-12
1.4e-11
3.85483e-08
1.181e-11
3.8536e-08
9.39344e-12
3.85083e-08
3.84523e-08
7.00579e-12
9.61766e-12
3.41027e-12
3.84613e-08
-3.12746e-12
8.62649e-12
3.6711e-12
3.8434e-08
-3.55963e-12
7.28829e-12
3.74325e-12
3.83733e-08
-3.70584e-12
3.91378e-12
3.82622e-08
-4.03271e-12
5.91598e-12
9.75825e-12
3.40678e-12
3.85153e-08
8.60453e-12
3.5755e-12
3.84961e-08
7.20508e-12
3.61297e-12
3.84528e-08
3.63303e-12
3.83713e-08
5.82733e-12
9.8865e-12
3.06267e-12
3.85405e-08
8.6124e-12
3.19233e-12
3.85263e-08
7.13503e-12
3.23612e-12
3.84938e-08
3.21625e-12
3.84296e-08
5.63204e-12
9.99298e-12
3.85498e-08
8.63653e-12
3.85379e-08
7.08285e-12
3.85104e-08
3.84544e-08
5.49006e-12
6.4537e-12
2.13703e-12
3.84615e-08
-1.9525e-12
5.84586e-12
2.3341e-12
3.84345e-08
-2.24852e-12
5.02107e-12
2.43602e-12
3.83741e-08
-2.41496e-12
2.59656e-12
3.82632e-08
-2.67412e-12
4.1346e-12
6.58286e-12
2.15814e-12
3.85157e-08
5.88729e-12
2.28867e-12
3.84969e-08
5.02466e-12
2.34957e-12
3.84538e-08
2.39508e-12
3.83724e-08
4.13261e-12
6.68855e-12
1.98141e-12
3.85411e-08
5.92383e-12
2.07011e-12
3.85272e-08
5.01185e-12
2.10971e-12
3.84949e-08
2.11218e-12
3.84309e-08
4.0334e-12
6.76004e-12
3.85506e-08
5.95258e-12
3.8539e-08
4.98848e-12
3.85117e-08
3.84558e-08
3.96216e-12
4.06372e-12
1.2268e-12
3.84616e-08
-1.12634e-12
3.71308e-12
1.3606e-12
3.84348e-08
-1.31289e-12
3.23461e-12
1.44728e-12
3.83746e-08
-1.44803e-12
1.56957e-12
3.82638e-08
-1.62849e-12
2.69412e-12
4.1597e-12
1.24449e-12
3.8516e-08
3.76801e-12
1.33561e-12
3.84973e-08
3.26468e-12
1.39134e-12
3.84543e-08
1.43514e-12
3.83731e-08
2.71907e-12
4.23533e-12
1.15628e-12
3.85414e-08
3.80667e-12
1.20862e-12
3.85278e-08
3.27011e-12
1.24152e-12
3.84956e-08
1.25009e-12
3.84316e-08
2.66697e-12
4.27369e-12
3.8551e-08
3.82832e-12
3.85396e-08
3.26207e-12
3.85125e-08
3.84566e-08
2.63138e-12
2.29174e-12
5.04029e-13
-4.71544e-13
2.10442e-12
5.92531e-13
-5.88793e-13
1.84352e-12
6.65307e-13
-6.84185e-13
7.59854e-13
-8.23411e-13
1.54929e-12
2.35601e-12
5.00606e-13
2.15113e-12
5.64828e-13
1.88404e-12
6.17973e-13
6.70235e-13
1.57534e-12
2.41088e-12
4.5236e-13
2.19091e-12
4.90564e-13
1.90826e-12
5.24673e-13
5.52273e-13
1.57689e-12
2.44143e-12
2.21592e-12
1.92058e-12
1.57633e-12
-2.43662e-09
-5.21817e-09
6.92862e-08
3.684e-10
5.25761e-09
4.31941e-08
3.43717e-09
1.13331e-08
3.26059e-08
-7.55692e-09
4.69325e-08
1.13281e-09
3.11392e-09
2.91191e-09
3.9377e-08
4.7011e-09
-7.482e-09
5.90988e-08
2.52192e-10
-5.0556e-09
6.06591e-08
-2.93957e-09
2.78296e-08
1.8688e-10
-2.86475e-09
1.38657e-09
5.01755e-08
5.77014e-09
1.08999e-09
2.53002e-08
1.07467e-09
-7.62726e-09
4.27005e-08
-8.41651e-09
3.38734e-08
1.2941e-10
-4.36226e-09
4.98288e-08
1.41336e-09
3.2328e-08
-4.97177e-11
2.55434e-08
1.36454e-08
1.44289e-09
6.4277e-09
1.13794e-08
4.00639e-08
2.88598e-10
-6.38846e-09
5.61164e-08
1.47164e-09
-8.22838e-09
3.9711e-08
-4.24675e-09
5.41738e-08
-1.82544e-09
-5.17287e-10
2.83345e-09
4.09579e-08
-9.22742e-10
5.51238e-09
4.76034e-08
2.44035e-09
2.92064e-09
4.6147e-08
-5.31615e-09
3.19109e-08
-5.71586e-10
2.68265e-09
-6.58743e-10
4.95476e-08
-1.55376e-09
-1.03332e-10
3.51523e-08
4.9721e-10
-2.57829e-09
4.61484e-08
7.74298e-09
1.82824e-08
3.02909e-09
5.87978e-10
3.43543e-08
-1.60935e-09
3.54829e-08
4.59855e-09
1.33832e-08
2.90163e-08
8.24618e-10
3.33952e-09
3.69126e-09
2.56199e-08
1.6288e-10
-1.51379e-09
6.10919e-08
1.39048e-09
8.13027e-10
3.76632e-08
-5.61325e-09
6.10334e-08
1.34472e-10
2.63414e-09
6.30066e-09
3.20733e-08
2.26744e-09
2.33716e-09
4.41191e-08
-1.40775e-11
-7.73197e-10
5.00147e-08
9.86025e-10
2.56132e-08
-3.15643e-10
-1.01927e-10
2.5157e-09
5.18995e-08
4.25793e-10
5.03743e-10
3.6458e-08
4.29414e-10
7.4687e-09
3.79029e-08
3.84255e-09
1.56742e-08
1.81058e-10
3.56934e-09
2.06935e-08
4.02167e-09
3.2261e-08
-2.73686e-09
2.81627e-08
3.05892e-08
-1.16855e-09
-2.51627e-10
-9.7983e-11
2.40658e-08
-1.35188e-09
-5.13429e-09
6.71186e-08
-3.19227e-09
-5.88761e-09
4.54502e-08
-1.44786e-09
6.04112e-08
-9.24013e-10
-2.13091e-09
4.0558e-11
3.45083e-08
-3.10663e-09
-3.0644e-09
4.30249e-08
-6.84463e-10
2.74615e-09
3.89588e-08
4.83681e-09
1.8235e-08
4.09018e-10
-4.70419e-09
-2.15205e-09
6.18597e-08
4.13983e-10
8.9315e-10
2.73823e-08
5.57153e-10
1.83816e-09
3.86678e-08
6.31434e-10
2.13788e-08
-9.42075e-10
-1.81653e-10
2.52625e-08
6.22887e-11
3.43121e-08
6.27539e-10
2.79042e-08
3.34422e-08
-3.5717e-09
-1.05219e-09
6.61203e-09
2.17065e-08
-3.94785e-09
-6.32669e-10
7.04658e-08
-5.09746e-10
9.21236e-10
4.0709e-08
9.48402e-09
4.68075e-08
3.39725e-09
-4.97686e-09
-1.30809e-08
6.61921e-08
-1.95295e-09
3.78915e-10
3.89894e-08
1.48222e-09
3.15858e-09
3.32863e-08
-3.66654e-10
2.9652e-08
-8.4054e-11
1.5122e-09
1.98056e-09
4.47583e-08
-2.65413e-09
-1.77661e-09
3.37041e-08
7.8727e-10
-1.81108e-09
4.01961e-08
-1.35898e-09
2.3627e-08
-4.68565e-10
-8.86645e-10
3.03964e-08
-3.18202e-09
3.62316e-08
1.14445e-09
2.06685e-08
2.82875e-08
-2.40496e-10
-8.44713e-09
-3.55672e-09
3.50415e-08
-6.32271e-10
1.68727e-08
4.55127e-08
2.25858e-09
2.50771e-09
3.52532e-08
-2.27712e-09
4.80063e-08
3.51995e-09
-1.87547e-09
4.42129e-09
6.52307e-08
-4.94729e-09
4.26402e-09
5.46699e-08
1.49654e-09
7.2856e-09
2.20645e-08
9.7996e-09
1.69773e-08
2.09439e-09
-7.67453e-10
7.32018e-10
5.01404e-08
-3.31126e-09
-1.05776e-09
4.15697e-08
1.02052e-09
3.75854e-09
3.93914e-08
-2.42073e-09
3.80761e-08
-1.20829e-09
-1.87474e-09
4.40235e-08
-1.56687e-10
3.4986e-08
-2.29502e-09
3.14666e-08
2.08054e-08
9.67054e-10
-2.28428e-10
-3.25837e-09
4.01427e-08
-8.13258e-11
1.88365e-10
4.50272e-08
-1.22254e-09
6.54791e-10
3.56402e-08
2.41474e-09
4.40937e-08
-2.20135e-10
-6.77152e-10
3.2524e-10
6.15822e-08
2.07235e-10
8.85987e-10
5.3088e-08
-7.84051e-10
-1.58085e-09
2.52914e-08
-3.79409e-09
2.32125e-08
-8.10463e-10
1.03176e-09
-9.78292e-10
5.24952e-08
6.52529e-12
-6.69294e-10
4.41503e-08
-7.25283e-10
1.07157e-09
3.74707e-08
5.61523e-10
3.28368e-08
1.5847e-10
-2.32351e-10
4.56547e-08
-1.27498e-10
3.56175e-08
2.07909e-12
3.16169e-08
2.35034e-08
-2.88462e-10
6.39902e-10
-5.09091e-09
4.61411e-08
-4.58254e-10
-3.83611e-09
4.99616e-08
-2.5941e-09
-2.01698e-09
3.97926e-08
2.87604e-10
4.32105e-08
-1.99889e-09
1.01685e-09
-3.02043e-09
5.76188e-08
1.18924e-09
-2.02201e-09
5.11018e-08
-1.55592e-09
-4.73908e-09
3.07586e-08
-4.37568e-09
2.83708e-08
-2.05087e-09
1.71605e-09
-2.55457e-11
4.82827e-08
5.19685e-10
-4.66245e-11
4.33711e-08
-1.44567e-09
-1.56399e-09
3.62606e-08
-1.23392e-09
2.90894e-08
-8.40044e-10
1.4644e-09
4.03351e-08
3.43423e-10
3.56888e-08
-3.57453e-10
3.02603e-08
2.43584e-08
-7.14882e-10
1.88821e-09
-2.98626e-09
5.28079e-08
1.36217e-10
6.20243e-10
5.10936e-08
-2.0874e-09
3.99534e-10
4.16166e-08
4.3144e-09
3.74008e-08
-5.92609e-10
1.78296e-09
3.58271e-10
5.32017e-08
2.43978e-09
2.14331e-09
4.89221e-08
-1.3778e-09
-2.15625e-09
3.71319e-08
7.55188e-10
3.12248e-08
-6.73195e-10
1.46559e-09
1.43219e-09
4.71451e-08
1.00676e-09
2.73422e-09
4.3239e-08
-8.21275e-10
6.58831e-10
3.52736e-08
1.41648e-09
2.72806e-08
3.26263e-10
1.37712e-09
4.08446e-08
1.00218e-09
3.69112e-08
-2.50667e-10
3.0102e-08
2.23785e-08
8.20137e-10
1.54191e-09
-1.44081e-09
5.46944e-08
1.02462e-09
-5.39315e-10
5.21504e-08
-4.40715e-10
-8.78133e-10
4.39601e-08
2.57156e-10
3.73007e-08
-5.97666e-10
1.37718e-09
-3.94377e-11
5.09021e-08
1.69693e-09
5.66957e-10
4.74959e-08
-9.37335e-11
-1.13441e-09
3.91787e-08
3.72152e-11
3.18651e-08
-5.14226e-10
1.22279e-09
6.71313e-10
4.58479e-08
1.41789e-09
1.13263e-09
4.24781e-08
1.40864e-10
3.91006e-11
3.5377e-08
2.5731e-10
2.74048e-08
-2.03318e-10
1.14431e-09
4.0416e-08
1.32518e-09
3.70577e-08
3.48405e-10
3.0686e-08
2.27367e-08
3.10502e-11
6.09325e-10
7.52511e-11
5.49703e-08
3.00444e-10
4.89454e-10
5.19696e-08
-3.71974e-10
1.85995e-10
4.44463e-08
7.46825e-10
3.63996e-08
-2.17887e-10
5.49033e-10
2.64462e-10
5.06814e-08
4.88735e-10
5.82141e-10
4.74635e-08
-2.99297e-10
-4.87463e-12
4.01573e-08
5.33979e-10
3.19509e-08
-1.72347e-10
5.05751e-10
4.03141e-10
4.56997e-08
4.41744e-10
6.71045e-10
4.24532e-08
-1.35469e-10
2.17446e-10
3.57317e-08
5.47334e-10
2.73256e-08
-6.96098e-11
4.98122e-10
4.03854e-08
4.6125e-10
3.72041e-08
-7.76193e-12
3.09506e-08
2.26288e-08
4.05537e-11
3.96317e-10
-6.7481e-11
5.51176e-08
3.47172e-10
8.98326e-11
5.19289e-08
-4.429e-12
-1.08288e-10
4.49062e-08
6.7604e-11
3.6435e-08
-1.07561e-10
3.77232e-10
9.55859e-11
5.05e-08
4.0219e-10
2.63885e-10
4.72644e-08
1.92351e-11
-5.02161e-11
4.04821e-08
1.49603e-10
3.19665e-08
-7.85903e-11
3.70138e-10
2.21188e-10
4.55403e-08
3.98856e-10
3.44267e-10
4.2344e-08
7.02744e-11
8.87351e-11
3.59212e-08
1.62438e-10
2.74217e-08
-3.87036e-11
3.63323e-10
4.03257e-08
3.85599e-10
3.72322e-08
1.2074e-10
3.1165e-08
2.27807e-08
7.16414e-12
2.04636e-10
3.88017e-12
5.51617e-08
1.74892e-10
9.33244e-11
5.18652e-08
-2.15812e-13
-9.86406e-12
4.50911e-08
9.20622e-11
3.63844e-08
-4.17957e-11
2.01303e-10
6.46031e-11
5.0468e-08
2.03588e-10
1.52592e-10
4.72027e-08
1.15612e-11
1.00067e-11
4.0654e-08
1.08687e-10
3.19892e-08
-2.79383e-11
2.04957e-10
1.26014e-10
4.54986e-08
2.06994e-10
1.82419e-10
4.23119e-08
3.505e-11
5.99595e-11
3.6043e-08
1.06997e-10
2.74621e-08
-3.81907e-12
2.0895e-10
4.03114e-08
2.03312e-10
3.72504e-08
6.25643e-11
3.12704e-08
2.28361e-08
1.33062e-11
1.19232e-10
9.88271e-12
5.51794e-08
1.12973e-10
5.20469e-11
5.18193e-08
2.16153e-11
-5.06065e-12
4.51874e-08
3.17727e-11
3.63877e-08
-1.35521e-11
1.23043e-10
4.09407e-11
5.04626e-08
1.24766e-10
8.18348e-11
4.7171e-08
2.78823e-11
1.12018e-11
4.07344e-08
4.66837e-11
3.20025e-08
-4.42436e-13
1.27395e-10
7.35056e-11
4.54842e-08
1.24513e-10
9.76011e-11
4.22989e-08
3.91492e-11
3.75983e-11
3.61018e-08
5.20659e-11
2.74873e-08
8.44092e-12
1.30141e-10
4.03067e-08
1.21136e-10
3.72598e-08
5.05533e-11
3.13203e-08
2.28669e-08
1.71728e-11
7.47763e-11
9.10084e-12
5.51883e-08
7.02422e-11
2.88806e-11
5.17948e-08
2.28364e-11
1.5788e-13
4.52345e-08
1.67489e-11
3.63912e-08
2.5136e-12
7.90206e-11
2.71913e-11
5.0461e-08
7.69458e-11
4.56419e-11
4.71561e-08
2.72855e-11
1.07314e-11
4.07733e-08
2.54347e-11
3.20125e-08
8.49371e-12
8.22504e-11
4.48126e-11
4.54788e-08
7.68008e-11
5.52043e-11
4.22946e-08
3.22539e-11
2.54572e-11
3.61315e-08
3.08325e-11
2.75015e-08
1.26193e-11
8.41345e-11
4.03061e-08
7.51371e-11
3.72662e-08
3.81233e-11
3.13451e-08
2.2883e-08
1.70592e-11
4.93429e-11
7.04335e-12
5.51915e-08
4.55475e-11
1.61265e-11
5.17824e-08
2.00032e-11
1.76629e-12
4.52582e-08
8.41631e-12
3.63957e-08
7.03992e-12
5.2846e-11
1.77865e-11
5.04598e-08
4.9647e-11
2.59931e-11
4.71493e-08
2.31614e-11
8.69617e-12
4.07928e-08
1.44472e-11
3.20191e-08
1.05051e-11
5.49236e-11
2.75154e-11
4.54765e-08
4.96917e-11
3.2157e-11
4.22936e-08
2.56078e-11
1.75695e-11
3.61467e-08
1.92599e-11
2.75095e-08
1.27171e-11
5.63123e-11
4.03066e-08
4.92089e-11
3.72704e-08
2.87117e-11
3.13577e-08
2.28914e-08
1.51681e-11
3.35788e-11
5.06899e-12
5.51923e-08
3.03739e-11
9.1848e-12
5.17763e-08
1.59954e-11
2.03515e-12
4.52704e-08
4.85561e-12
3.63991e-08
7.71152e-12
3.61601e-11
1.15019e-11
5.04589e-08
3.30789e-11
1.51175e-11
4.71464e-08
1.81364e-11
6.69038e-12
4.0803e-08
8.88943e-12
3.20234e-08
9.85838e-12
3.76007e-11
1.7061e-11
4.54755e-08
3.3359e-11
1.9202e-11
4.22937e-08
1.97141e-11
1.22613e-11
3.61548e-08
1.27088e-11
2.75141e-08
1.12129e-11
3.87746e-11
4.03073e-08
3.36138e-11
3.72731e-08
2.1695e-11
3.13645e-08
2.28961e-08
1.27088e-11
2.33231e-11
3.47607e-12
5.51921e-08
2.07993e-11
5.28335e-12
5.17735e-08
1.24668e-11
1.73143e-12
4.52769e-08
2.86344e-12
3.64016e-08
7.02209e-12
2.52359e-11
7.38749e-12
5.04582e-08
2.26859e-11
8.95481e-12
4.71452e-08
1.40216e-11
4.86322e-12
4.08085e-08
5.62906e-12
3.20263e-08
8.39528e-12
2.6285e-11
1.0635e-11
4.54749e-08
2.30957e-11
1.16943e-11
4.22941e-08
1.50574e-11
8.48427e-12
3.61592e-08
8.56381e-12
2.75171e-08
9.18728e-12
2.72038e-11
4.03077e-08
2.35487e-11
3.72749e-08
1.63462e-11
3.13683e-08
2.28989e-08
1.01301e-11
1.63616e-11
2.33214e-12
5.51917e-08
1.44453e-11
3.09221e-12
5.17723e-08
9.45691e-12
1.33574e-12
4.52805e-08
1.76963e-12
3.64036e-08
5.75701e-12
1.77688e-11
4.75772e-12
5.04575e-08
1.57958e-11
5.40251e-12
4.71448e-08
1.0587e-11
3.42567e-12
4.08116e-08
3.68275e-12
3.20284e-08
6.66557e-12
1.85506e-11
6.67787e-12
4.54745e-08
1.62444e-11
7.23488e-12
4.22945e-08
1.12973e-11
5.82413e-12
3.61618e-08
5.86027e-12
2.7519e-08
7.18424e-12
1.92873e-11
4.0308e-08
1.67099e-11
3.72761e-08
1.21802e-11
3.13706e-08
2.29007e-08
7.79929e-12
1.14616e-11
1.54285e-12
5.51912e-08
1.0054e-11
1.84011e-12
5.17718e-08
6.96888e-12
9.75013e-13
4.52826e-08
1.10433e-12
3.6405e-08
4.44289e-12
1.248e-11
3.04675e-12
5.0457e-08
1.10261e-11
3.30416e-12
4.71448e-08
7.79328e-12
2.36644e-12
4.08135e-08
2.43024e-12
3.20299e-08
5.05506e-12
1.3042e-11
4.21549e-12
4.54742e-08
1.14104e-11
4.53001e-12
4.22949e-08
8.28652e-12
3.96235e-12
3.61634e-08
4.00062e-12
2.75203e-08
5.40467e-12
1.36321e-11
4.03082e-08
1.18395e-11
3.72769e-08
8.90347e-12
3.1372e-08
2.29018e-08
5.81191e-12
7.89942e-12
1.00252e-12
5.51908e-08
6.90534e-12
1.10807e-12
5.17718e-08
4.96644e-12
6.82647e-13
4.52839e-08
6.86905e-13
3.64061e-08
3.26214e-12
8.61538e-12
1.94172e-12
5.04566e-08
7.5905e-12
2.03147e-12
4.71449e-08
5.55945e-12
1.59969e-12
4.08146e-08
1.58979e-12
3.20309e-08
3.67069e-12
9.01271e-12
2.66162e-12
4.5474e-08
7.88851e-12
2.84646e-12
4.22953e-08
5.89528e-12
2.6528e-12
3.61644e-08
2.69051e-12
2.75212e-08
3.90142e-12
9.45637e-12
4.03082e-08
8.23556e-12
3.72775e-08
6.31884e-12
3.13729e-08
2.29026e-08
4.17473e-12
5.25611e-12
6.29355e-13
5.51905e-08
4.5925e-12
6.58317e-13
5.17718e-08
3.39019e-12
4.49711e-13
4.52847e-08
4.17641e-13
3.64068e-08
2.27179e-12
5.71721e-12
1.21436e-12
5.04564e-08
5.0454e-12
1.23358e-12
4.71451e-08
3.78974e-12
1.04229e-12
4.08153e-08
1.01258e-12
3.20316e-08
2.5328e-12
6.00734e-12
1.64932e-12
4.54739e-08
5.26141e-12
1.7649e-12
4.22955e-08
4.01306e-12
1.71651e-12
3.6165e-08
1.7501e-12
2.75219e-08
2.68249e-12
6.30993e-12
4.03083e-08
5.51239e-12
3.72778e-08
4.2878e-12
3.13735e-08
2.29031e-08
2.85622e-12
3.32233e-12
3.56629e-13
5.51903e-08
2.90458e-12
3.58784e-13
5.17719e-08
2.19002e-12
2.57416e-13
4.52851e-08
2.30044e-13
3.64073e-08
1.48606e-12
3.5848e-12
6.84041e-13
5.04562e-08
3.16188e-12
6.88808e-13
4.71452e-08
2.41325e-12
6.08465e-13
4.08158e-08
5.84644e-13
3.20321e-08
1.63028e-12
3.75807e-12
9.34269e-13
4.54738e-08
3.29641e-12
1.00327e-12
4.22956e-08
2.54325e-12
1.00984e-12
3.61654e-08
1.03663e-12
2.75222e-08
1.71322e-12
3.95428e-12
4.03083e-08
3.46016e-12
3.7278e-08
2.7128e-12
3.13738e-08
2.29035e-08
1.81382e-12
1.93596e-12
1.48723e-13
1.67856e-12
1.51617e-13
1.28321e-12
1.20702e-13
1.16409e-13
8.80858e-13
2.03316e-12
2.74732e-13
1.77789e-12
2.81504e-13
1.36482e-12
2.70909e-13
2.72638e-13
9.33735e-13
2.10795e-12
3.79328e-13
1.83181e-12
4.24378e-13
1.42423e-12
4.57985e-13
5.00422e-13
9.64389e-13
2.20487e-12
1.91151e-12
1.50524e-12
9.96152e-13
8.29337e-09
1.42818e-09
2.16382e-08
4.04029e-09
-2.67444e-09
3.47464e-08
1.39014e-08
2.24366e-11
2.29496e-08
3.48677e-09
4.88904e-08
-1.66016e-09
8.7605e-10
3.44559e-08
2.97314e-09
5.28742e-09
2.33547e-08
1.00615e-08
4.22991e-09
2.96861e-08
-2.1975e-09
6.17465e-08
7.6778e-09
-8.17128e-10
2.56245e-08
5.17585e-09
-2.69664e-09
5.3571e-08
1.59385e-09
-1.36198e-09
5.62588e-08
-1.10415e-09
5.36251e-08
3.62845e-09
2.04419e-08
8.8643e-09
3.55945e-08
1.76991e-10
5.75244e-08
5.05316e-08
-1.52574e-09
-4.79467e-10
2.72045e-08
-4.22909e-09
3.66286e-09
3.6816e-08
-2.4911e-09
5.1764e-09
1.54637e-08
7.0243e-09
3.82208e-08
5.62719e-09
2.4805e-09
2.3787e-08
2.22607e-09
-2.2416e-09
3.26603e-08
-3.74861e-09
-2.42362e-09
4.32608e-08
-6.39002e-10
6.56321e-08
1.45287e-09
4.03215e-09
2.66459e-08
3.72073e-09
-2.13201e-09
5.11936e-08
1.51634e-09
-1.2512e-09
5.72908e-08
4.72636e-09
4.99545e-08
-4.70954e-09
4.29637e-08
1.15666e-09
2.88577e-08
9.60196e-09
4.08125e-08
6.69868e-08
-3.39851e-09
-5.82819e-10
2.81138e-08
1.37299e-09
5.50995e-10
3.16746e-08
4.82805e-09
1.24968e-10
1.1568e-08
-3.96158e-09
4.71871e-08
-4.79461e-10
1.36506e-09
2.31373e-08
1.36639e-09
-1.74654e-09
3.3112e-08
-8.0655e-09
1.18138e-09
5.16363e-08
6.85952e-09
4.64799e-08
-4.13274e-09
2.03529e-09
3.37565e-08
6.78755e-09
4.15871e-09
3.43681e-08
8.47938e-09
-1.90273e-10
5.69706e-08
8.72065e-11
6.5735e-08
3.50416e-09
4.81126e-08
-2.44282e-09
3.88001e-08
1.23797e-08
2.54641e-08
8.46348e-08
6.46901e-09
1.82759e-09
9.92368e-09
3.37402e-10
1.22648e-09
3.56376e-08
-2.44007e-09
3.53705e-09
1.12174e-08
3.54125e-09
4.09595e-08
6.77987e-10
2.91105e-10
2.53212e-08
5.90492e-09
1.28386e-09
2.78277e-08
-9.18826e-10
5.04825e-09
5.69488e-08
3.07903e-09
4.59531e-08
1.89376e-09
-1.90518e-09
3.22341e-08
2.09207e-09
1.11064e-09
3.4343e-08
-1.43057e-08
-2.64761e-10
7.86814e-08
-2.17396e-09
5.77854e-08
5.22143e-09
3.50923e-08
3.64662e-09
4.22398e-08
-2.85196e-10
3.44535e-08
9.09159e-08
7.46156e-10
8.67346e-10
6.09534e-09
2.16753e-09
5.13071e-10
3.32346e-08
5.45606e-09
2.34976e-11
7.82134e-09
-3.76739e-09
5.34e-08
-1.41635e-09
-1.2835e-09
3.51199e-08
4.35061e-10
-1.36197e-09
2.78513e-08
-2.74048e-09
-3.15412e-09
6.33019e-08
-3.40114e-09
4.30317e-08
-1.48553e-09
-2.04618e-10
3.29907e-08
3.25155e-11
2.35794e-09
2.9105e-08
-7.92174e-09
4.48493e-09
7.89966e-08
4.01897e-09
4.27381e-08
2.06793e-09
2.71483e-08
-2.2328e-10
4.71281e-08
-1.04291e-08
4.86104e-08
8.99102e-08
-3.34586e-09
-3.71369e-09
1.85135e-08
6.05697e-09
5.09764e-11
2.25725e-08
-5.80047e-09
-1.44129e-09
2.32145e-08
5.27325e-09
4.59138e-08
5.65879e-11
-3.63398e-10
3.41647e-08
4.41045e-09
3.10306e-09
2.04454e-08
1.48495e-08
4.33326e-09
4.70884e-08
-1.20477e-09
6.43665e-08
6.52953e-09
2.34315e-09
2.30824e-08
-1.92906e-10
-1.54803e-09
4.04786e-08
-9.03807e-10
1.39911e-09