/*--------------------------------*- C++ -*----------------------------------*\
| =========                 |                                                 |
| \\      /  F ield         | OpenFOAM: The Open Source CFD Toolbox           |
|  \\    /   O peration     | Version:  2506                                  |
|   \\  /    A nd           | Website:  www.openfoam.com                      |
|    \\/     M anipulation  |                                                 |
\*---------------------------------------------------------------------------*/
FoamFile
{
    version     2.0;
    format      ascii;
    arch        "LSB;label=32;scalar=64";
    class       volScalarField;
    location    "0.06";
    object      voidfraction;
}
// * * * * * * * * * * * * * * * * * * * * * * * * * * * * * * * * * * * * * //

dimensions      [0 0 0 0 0 0 0];

internalField   nonuniform List<scalar> 
1152
(
0.544431
0.462797
0.45753
0.428563
0.46543
0.439097
0.38643
0.428563
0.452263
0.43383
0.423296
0.48913
0.420663
0.431196
0.52863
0.49703
0.404863
0.370629
0.404863
0.378529
0.41013
0.389063
0.38643
0.423296
0.439097
0.412763
0.42593
0.396963
0.40223
0.357463
0.325862
0.41013
0.491764
0.375896
0.383796
0.331129
0.336396
0.389063
0.446997
0.42593
0.375896
0.389063
0.415396
0.354829
0.40223
0.436463
0.47333
0.328496
0.357463
0.42593
0.367996
0.39433
0.378529
0.354829
0.470697
0.41803
0.44173
0.391696
0.399596
0.367996
0.341663
0.423296
0.41803
0.349563
0.43383
0.404863
0.41803
0.412763
0.439097
0.370629
0.375896
0.412763
0.39433
0.436463
0.365363
0.423296
0.452263
0.299529
0.45753
0.423296
0.362729
0.420663
0.399596
0.44173
0.47333
0.367996
0.40223
0.344296
0.381163
0.44963
0.404863
0.381163
0.454897
0.381163
0.439097
0.439097
0.707698
0.715598
0.620798
0.712965
0.670831
0.620798
0.649764
0.573397
0.628698
0.702431
0.636598
0.670831
0.475963
0.626064
0.791965
0.749832
1
1
1
1
1
1
1
1
1
1
1
1
0.997367
1
1
1
1
1
1
1
1
1
1
1
1
1
1
1
1
1
1
1
1
1
1
1
1
1
1
1
1
1
1
1
1
1
1
1
1
1
1
1
1
1
1
1
1
1
1
1
1
1
1
1
1
1
1
1
1
1
1
1
1
1
1
1
1
1
1
1
1
1
1
1
1
1
1
1
1
1
1
1
1
1
1
1
1
1
1
1
1
1
1
1
1
1
1
1
1
1
1
1
1
1
1
1
1
1
1
1
1
1
1
1
1
1
1
1
1
1
1
1
1
1
1
1
1
1
1
1
1
1
1
1
1
1
1
1
1
1
1
1
1
1
1
1
1
1
1
1
1
1
1
1
1
1
1
1
1
1
1
1
1
1
1
1
1
1
1
1
1
1
1
1
1
1
1
1
1
1
1
1
1
1
1
1
1
1
1
1
1
1
1
1
1
1
1
1
1
1
1
1
1
1
1
1
1
1
1
1
1
1
1
1
1
1
1
1
1
1
1
1
1
1
1
1
1
1
1
1
1
1
1
1
1
1
1
1
1
1
1
1
1
1
1
1
1
1
1
1
1
1
1
1
1
1
1
1
1
1
1
1
0.534686
0.432097
0.428186
0.473928
0.442169
0.486223
0.53713
0.436882
0.476008
0.399331
0.484801
0.510388
0.483792
0.453207
0.473631
0.3998
0.418358
0.430192
0.415141
0.44695
0.416454
0.439708
0.422631
0.402847
0.436211
0.399331
0.426633
0.412466
0.433675
0.377414
0.377343
0.412943
0.364668
0.416852
0.408618
0.449648
0.390738
0.393193
0.420195
0.427599
0.378727
0.418325
0.432173
0.358065
0.320911
0.420724
0.342038
0.44361
0.344981
0.422569
0.412967
0.479324
0.343263
0.414336
0.434812
0.368812
0.447266
0.401705
0.396164
0.387079
0.366017
0.339517
0.441535
0.421705
0.395092
0.447343
0.436883
0.430763
0.414476
0.391079
0.393397
0.387377
0.434
0.361344
0.434943
0.408839
0.386064
0.436965
0.351667
0.461134
0.35035
0.456872
0.402096
0.444252
0.469863
0.427022
0.425067
0.430693
0.391992
0.425447
0.412784
0.416093
0.396087
0.372
0.39981
0.382276
0.692177
0.578837
0.576031
0.678961
0.725041
0.695539
0.554183
0.569926
0.770063
0.736465
0.681463
0.72074
0.809554
0.710362
0.736815
0.65828
1
1
1
1
1
1
1
1
1
1
1
1
1
1
1
1
1
1
1
1
1
1
1
1
1
1
1
1
1
1
1
1
1
1
1
1
1
1
1
1
1
1
1
1
1
1
1
1
1
1
1
1
1
1
1
1
1
1
1
1
1
1
1
1
1
1
1
1
1
1
1
1
1
1
1
1
1
1
1
1
1
1
1
1
1
1
1
1
1
1
1
1
1
1
1
1
1
1
1
1
1
1
1
1
1
1
1
1
1
1
1
1
1
1
1
1
1
1
1
1
1
1
1
1
1
1
1
1
1
1
1
1
1
1
1
1
1
1
1
1
1
1
1
1
1
1
1
1
1
1
1
1
1
1
1
1
1
1
1
1
1
1
1
1
1
1
1
1
1
1
1
1
1
1
1
1
1
1
1
1
1
1
1
1
1
1
1
1
1
1
1
1
1
1
1
1
1
1
1
1
1
1
1
1
1
1
1
1
1
1
1
1
1
1
1
1
1
1
1
1
1
1
1
1
1
1
1
1
1
1
1
1
1
1
1
1
1
1
1
1
1
1
1
1
1
1
1
1
1
1
1
1
1
1
1
1
1
1
1
1
1
1
1
1
1
1
1
1
1
1
1
1
0.452372
0.45236
0.452352
0.525186
0.473631
0.410014
0.356855
0.47167
0.423431
0.451563
0.47988
0.460683
0.350982
0.453899
0.473819
0.443413
0.360371
0.437853
0.399753
0.414576
0.380553
0.410014
0.459173
0.502109
0.369293
0.475305
0.427022
0.434003
0.391075
0.343352
0.410519
0.370037
0.491801
0.434226
0.365718
0.42267
0.415858
0.423863
0.395833
0.417315
0.409896
0.375589
0.437593
0.376832
0.451216
0.400836
0.382826
0.472048
0.369133
0.419719
0.356436
0.44695
0.364505
0.385085
0.446992
0.402096
0.401776
0.406454
0.336107
0.475929
0.41864
0.407469
0.368979
0.373616
0.347228
0.4306
0.347154
0.368714
0.409439
0.412784
0.432375
0.43036
0.404483
0.389834
0.471422
0.401606
0.38857
0.414102
0.426344
0.480996
0.338465
0.419719
0.353342
0.498208
0.425487
0.398934
0.451865
0.386876
0.412603
0.38746
0.414336
0.3997
0.386064
0.414102
0.400629
0.384354
0.719615
0.637325
0.718441
0.727522
0.669414
0.612216
0.697917
0.828238
0.618327
0.764956
0.803369
0.727483
0.711826
0.723633
0.855597
0.808505
1
1
1
1
1
1
1
1
1
1
1
1
1
1
1
1
1
1
1
1
1
1
1
1
1
1
1
1
1
1
1
1
1
1
1
1
1
1
1
1
1
1
1
1
1
1
1
1
1
1
1
1
1
1
1
1
1
1
1
1
1
1
1
1
1
1
1
1
1
1
1
1
1
1
1
1
1
1
1
1
1
1
1
1
1
1
1
1
1
1
1
1
1
1
1
1
1
1
1
1
1
1
1
1
1
1
1
1
1
1
1
1
1
1
1
1
1
1
1
1
1
1
1
1
1
1
1
1
1
1
1
1
1
1
1
1
1
1
1
1
1
1
1
1
1
1
1
1
1
1
1
1
1
1
1
1
1
1
1
1
1
1
1
1
1
1
1
1
1
1
1
1
1
1
1
1
1
1
1
1
1
1
1
1
1
1
1
1
1
1
1
1
1
1
1
1
1
1
1
1
1
1
1
1
1
1
1
1
1
1
1
1
1
1
1
1
1
1
1
1
1
1
1
1
1
1
1
1
1
1
1
1
1
1
1
1
1
1
1
1
1
1
1
1
1
1
1
1
1
1
1
1
1
1
1
1
1
1
1
1
1
1
1
1
1
1
1
1
1
1
1
1
)
;

boundaryField
{
    inlet
    {
        type            fixedValue;
        value           uniform 1;
    }
    outlet
    {
        type            fixedValue;
        value           uniform 1;
    }
    wall
    {
        type            zeroGradient;
    }
    procBoundary1to0
    {
        type            processor;
        value           nonuniform List<scalar> 
192
(
0.383796
0.391696
0.42593
0.42593
0.315329
0.389063
0.352196
0.354829
0.299529
0.428563
0.444363
0.381163
0.44963
0.436463
0.341663
0.502297
0.404863
0.354829
0.468063
0.365363
0.41803
0.475963
0.44963
0.352196
0.604998
0.544431
0.686631
0.581297
1
1
1
1
1
1
1
1
1
1
1
1
1
1
1
1
1
1
1
1
1
1
1
1
1
1
1
1
1
1
1
1
1
1
1
1
1
1
1
1
1
1
1
1
1
1
1
1
1
1
1
1
1
1
1
1
1
1
1
1
1
1
1
1
1
1
1
1
0.391513
0.416454
0.476008
0.368523
0.436254
0.45206
0.407469
0.443699
0.429096
0.414476
0.374305
0.46124
0.477417
0.424366
0.420735
0.386064
0.470258
0.400629
0.380938
0.433675
0.477417
0.398651
0.416313
0.456228
0.62059
0.636025
0.796594
0.67925
1
1
1
1
1
1
1
1
1
1
1
1
1
1
1
1
1
1
1
1
1
1
1
1
1
1
1
1
1
1
1
1
1
1
1
1
1
1
1
1
1
1
1
1
1
1
1
1
1
1
1
1
1
1
1
1
1
1
1
1
1
1
1
1
1
1
1
1
)
;
    }
    procBoundary1to3
    {
        type            processor;
        value           nonuniform List<scalar> 
192
(
0.570764
0.41803
0.415396
0.339029
0.510197
0.404863
0.462797
0.428563
0.357463
0.360096
0.378529
0.51283
0.275829
0.370629
0.439097
0.362729
0.286362
0.499664
0.383796
0.389063
0.533897
0.42593
0.404863
0.428563
0.462797
0.549697
0.562864
0.683998
1
1
1
1
1
1
1
1
1
1
1
1
1
1
1
1
1
1
1
1
1
1
1
1
1
1
1
1
1
1
1
1
1
1
1
1
1
1
1
1
1
1
1
1
1
1
1
1
1
1
1
1
1
1
1
1
1
1
1
1
1
1
1
1
1
1
1
1
0.478781
0.469375
0.418432
0.438044
0.371029
0.369883
0.467885
0.479206
0.386064
0.336719
0.42041
0.450572
0.416134
0.431789
0.45206
0.472048
0.413628
0.387571
0.384804
0.409409
0.463745
0.442844
0.473819
0.412989
0.659203
0.69268
0.695369
0.642066
1
1
1
1
1
1
1
1
1
1
1
1
1
1
1
1
1
1
1
1
1
1
1
1
1
1
1
1
1
1
1
1
1
1
1
1
1
1
1
1
1
1
1
1
1
1
1
1
1
1
1
1
1
1
1
1
1
1
1
1
1
1
1
1
1
1
1
1
)
;
    }
}


// ************************************************************************* //
