/*--------------------------------*- C++ -*----------------------------------*\
| =========                 |                                                 |
| \\      /  F ield         | OpenFOAM: The Open Source CFD Toolbox           |
|  \\    /   O peration     | Version:  2506                                  |
|   \\  /    A nd           | Website:  www.openfoam.com                      |
|    \\/     M anipulation  |                                                 |
\*---------------------------------------------------------------------------*/
FoamFile
{
    version     2.0;
    format      ascii;
    arch        "LSB;label=32;scalar=64";
    class       surfaceScalarField;
    location    "0.05";
    object      phi;
}
// * * * * * * * * * * * * * * * * * * * * * * * * * * * * * * * * * * * * * //

dimensions      [0 3 -1 0 0 0 0];

oriented        oriented;

internalField   nonuniform List<scalar> 
13248
(
-1.44733e-09
-3.69885e-09
3.36137e-08
4.32181e-09
-2.60963e-11
-3.93716e-09
-2.85965e-09
4.11595e-08
-2.93583e-09
-4.48985e-10
-6.57073e-10
2.50083e-08
4.62106e-09
-3.93016e-09
-3.80176e-09
4.1989e-08
-2.31214e-09
5.17973e-09
5.49943e-10
1.84588e-08
4.64009e-09
-4.34447e-09
-5.53207e-09
4.97865e-08
-1.62119e-09
1.21503e-09
-7.16416e-10
2.55613e-08
2.74901e-09
-2.10884e-09
2.91879e-08
3.74309e-09
3.41269e-09
2.92898e-10
-1.32736e-09
3.34385e-08
-3.115e-09
-4.09076e-09
-3.58415e-09
3.82577e-08
-3.98353e-09
-6.84164e-09
3.91456e-08
1.24575e-10
-1.51588e-09
2.64872e-08
-1.99179e-09
-5.2693e-09
4.12854e-08
-1.5151e-10
-2.31599e-09
2.82609e-08
-3.92842e-10
-1.07744e-09
3.33648e-08
2.41305e-09
2.42385e-08
3.86271e-09
-8.68191e-10
-6.15219e-10
3.43692e-08
-1.52174e-09
-3.65814e-09
3.01382e-09
2.92352e-08
1.71355e-09
3.57175e-09
1.66159e-08
-1.6163e-09
7.52656e-09
2.71213e-08
-6.60925e-10
1.20022e-09
2.57995e-08
1.29418e-09
-1.80161e-09
3.01218e-08
3.60486e-09
1.50793e-09
2.80608e-08
-1.27779e-09
4.09445e-08
-4.13606e-10
4.70564e-09
-2.53103e-09
2.96987e-08
9.81278e-10
-6.36083e-09
-1.14074e-08
5.84906e-08
5.00723e-09
-1.25621e-09
2.63751e-08
-7.99786e-09
-2.32277e-09
5.56766e-08
-2.71717e-09
2.37106e-09
2.62943e-08
2.98442e-09
7.06636e-09
1.72687e-08
4.02752e-10
6.05842e-09
3.06683e-08
3.73415e-09
2.27142e-08
5.53667e-09
-1.01206e-09
-1.09102e-09
2.9658e-08
2.89306e-09
6.96675e-10
3.57992e-10
1.97964e-08
2.66159e-09
6.37024e-10
2.92621e-08
-1.29441e-09
-4.32804e-09
3.87213e-08
1.30458e-09
-1.1648e-09
3.40303e-08
4.75313e-09
-2.55928e-09
3.94981e-08
7.20841e-10
-2.75173e-09
4.58053e-08
2.53519e-09
3.39709e-08
8.77091e-10
1.48331e-10
6.38833e-09
2.18737e-08
3.31264e-09
1.98379e-09
3.84048e-09
2.72415e-08
-2.42816e-09
1.70444e-09
3.60641e-08
3.39973e-09
5.38054e-10
2.22039e-08
-6.4699e-10
1.77945e-09
3.4166e-08
2.30579e-09
1.55267e-09
2.60326e-08
2.86626e-09
2.26125e-09
2.699e-08
1.61677e-09
3.55194e-08
1.54286e-09
-3.12034e-09
-1.99707e-09
3.76032e-08
6.99011e-09
-3.69673e-10
-5.11111e-10
3.46546e-08
-2.36654e-09
1.48614e-09
3.53378e-08
4.69861e-09
2.71198e-09
2.24447e-08
-3.54976e-10
1.61137e-09
3.83071e-08
3.65387e-09
6.21057e-09
2.45448e-08
8.13972e-10
1.92002e-09
3.57247e-08
4.3769e-09
2.87454e-08
2.61559e-09
-1.01432e-09
2.05694e-08
5.11458e-09
6.73866e-09
1.41211e-09
2.35565e-08
6.604e-09
-1.37349e-09
3.52573e-08
2.38217e-09
2.6786e-09
2.29338e-08
8.65727e-09
5.51749e-09
2.80439e-08
3.2521e-09
-1.01455e-09
4.81062e-08
-2.03988e-09
1.79602e-09
3.12998e-08
-8.16099e-12
4.05656e-08
-1.12681e-09
-1.05669e-09
-1.97758e-09
-3.22994e-09
3.66224e-08
2.58993e-09
-3.91171e-10
-3.38116e-09
-6.24689e-09
4.69906e-08
1.81935e-09
-2.06794e-09
-1.46604e-09
2.44454e-08
7.15728e-10
1.48964e-09
-7.7961e-10
3.42057e-08
5.00533e-09
-2.37719e-09
-3.90564e-09
2.81545e-08
-1.92325e-09
3.08901e-09
1.58921e-09
4.15119e-08
1.21921e-09
8.62762e-10
-3.10345e-10
2.77002e-08
3.97728e-10
-2.08504e-10
2.72323e-08
2.07856e-09
9.48294e-10
-3.18326e-09
-8.37433e-10
3.00979e-08
4.13133e-09
2.31831e-10
5.01044e-09
2.35852e-08
-6.30082e-10
1.93385e-09
3.66076e-08
-2.6905e-09
4.07553e-09
2.36925e-08
5.14065e-09
1.86742e-09
2.76812e-08
6.46832e-10
1.20349e-09
3.31404e-08
1.80681e-09
1.48188e-09
3.04126e-08
-1.04287e-09
2.58036e-08
1.07604e-09
2.20826e-09
-2.02703e-09
3.21731e-08
1.17742e-09
-1.59329e-09
-1.17703e-08
4.98175e-08
1.84995e-09
-2.07755e-09
1.71841e-08
-3.5634e-09
-5.62597e-09
4.22361e-08
1.33895e-09
1.15247e-09
2.16121e-08
6.39023e-10
1.42549e-10
3.18826e-08
-1.40205e-09
2.21985e-09
2.93639e-08
4.91003e-09
2.99499e-08
3.63973e-09
-8.98466e-09
-4.23813e-09
3.78477e-08
3.04674e-09
3.9915e-09
8.94432e-09
2.47998e-08
1.35205e-09
4.84365e-09
2.20932e-08
1.42757e-09
2.77428e-10
4.96974e-08
1.63623e-10
-8.78749e-10
2.95897e-08
2.50568e-09
-1.43555e-09
1.65047e-08
2.81919e-09
-3.67702e-09
3.62517e-08
-2.66242e-10
3.21246e-08
-1.41491e-09
4.38601e-09
2.49244e-09
1.52745e-08
3.26697e-09
-3.52086e-09
-2.9258e-09
3.95734e-08
-3.81749e-09
-4.02983e-09
3.84323e-08
-4.187e-10
5.79188e-11
3.55423e-08
-1.03858e-09
1.73386e-09
3.20373e-08
1.79237e-09
4.27718e-09
3.09544e-08
3.73045e-09
3.31579e-09
3.68744e-08
-1.10838e-09
4.0138e-08
-1.59451e-09
-7.00389e-10
-2.54993e-11
2.32907e-08
1.80125e-09
-4.52577e-10
9.41801e-10
2.3126e-08
1.13081e-09
3.34127e-10
3.01167e-08
2.13277e-09
1.53476e-09
1.97252e-08
1.18405e-09
-3.04259e-09
3.98911e-08
1.68799e-09
1.09892e-09
2.8707e-08
8.33576e-10
1.02209e-09
3.01381e-08
5.26516e-10
3.15821e-08
3.1361e-09
1.88042e-10
3.92588e-09
3.10148e-08
2.44898e-09
-1.63413e-09
3.526e-09
3.38926e-08
1.86185e-09
4.45201e-09
2.77239e-08
-3.82588e-09
4.92469e-10
2.91747e-08
5.74522e-09
7.89545e-09
1.77979e-08
1.30178e-09
3.42696e-09
2.66602e-08
7.79302e-10
1.93406e-09
3.53351e-08
7.63242e-10
2.69425e-08
2.34541e-09
-4.575e-10
2.63648e-08
-1.63568e-09
2.23726e-10
-1.83629e-09
3.19185e-08
-3.45724e-09
-1.88809e-10
3.78655e-08
1.9635e-10
2.76503e-09
1.91575e-08
1.3149e-09
3.68715e-09
3.42164e-08
8.00819e-10
-2.01348e-09
5.72668e-08
-3.2938e-11
-6.83756e-10
2.83548e-08
3.54928e-09
2.74993e-08
7.11323e-09
6.03244e-09
-3.59867e-09
-4.34969e-09
5.23307e-08
-7.56209e-09
-1.97874e-10
3.46975e-09
-1.75475e-09
3.80754e-08
3.60164e-09
-1.00927e-09
-3.43916e-09
3.42656e-08
-1.90208e-09
-2.24943e-09
-1.09455e-09
3.69564e-08
-4.16012e-10
-4.16077e-09
2.57081e-10
3.17262e-08
-1.9174e-09
3.39309e-10
1.57306e-09
3.43068e-08
1.13194e-09
6.69953e-10
1.6424e-11
2.6505e-08
8.48159e-10
2.75502e-09
3.04017e-08
-3.12353e-09
-2.13089e-09
8.99283e-10
2.4051e-10
2.27545e-08
1.85394e-09
1.12371e-09
-3.95507e-09
2.55611e-08
9.48846e-10
-1.05944e-09
3.44028e-08
4.94776e-10
-3.74173e-09
2.67938e-08
-6.94439e-10
-3.42577e-10
2.94701e-08
-7.61241e-10
9.8961e-10
3.37907e-08
3.10136e-09
-1.02693e-09
2.75934e-08
-2.33556e-09
3.47438e-08
-7.4832e-10
-2.86758e-09
-1.39082e-09
3.6989e-08
-3.17043e-10
2.59862e-09
-7.4124e-10
4.11375e-08
-3.97249e-11
-2.57431e-09
2.13373e-08
1.53396e-09
-7.95004e-09
4.48707e-08
7.92946e-10
-4.52274e-10
2.24629e-08
-3.33661e-09
2.25431e-09
3.47475e-08
1.64944e-09
-3.96598e-10
2.37475e-08
-1.41287e-09
2.91912e-08
1.48537e-09
-3.93295e-10
3.79259e-09
3.21429e-08
9.14704e-10
-1.16366e-10
3.20582e-09
2.05758e-08
6.90269e-10
2.01207e-09
1.67002e-08
5.42214e-09
2.19415e-09
3.48211e-08
3.29515e-09
-1.62133e-09
3.28859e-08
-3.50414e-09
-5.33737e-09
3.08957e-08
1.71954e-10
-8.7453e-10
3.30536e-08
2.62864e-09
2.56494e-08
2.60567e-09
-3.0846e-09
-4.61333e-10
2.49049e-08
-2.29188e-09
-2.17143e-09
-1.01694e-09
4.2883e-08
-1.23564e-09
-8.02635e-10
4.03112e-08
-2.71449e-11
7.61184e-11
3.6452e-08
-1.96003e-09
2.67971e-09
2.96691e-08
3.13482e-09
1.85375e-09
1.86685e-08
4.50979e-09
-1.28949e-09
3.59143e-08
-2.81886e-09
5.21349e-08
-2.03969e-09
-1.64261e-09
-2.14728e-09
3.02977e-08
-3.67842e-09
-1.03628e-09
-2.0493e-09
2.35521e-08
-1.22413e-11
-5.98375e-10
2.88884e-08
4.52243e-09
1.85284e-09
1.34138e-08
-3.26751e-09
-1.9554e-09
5.23162e-08
-2.09042e-09
3.62038e-10
2.90216e-08
1.036e-09
2.68056e-10
2.54542e-08
2.81056e-09
2.5654e-08
1.33464e-09
-2.92503e-09
1.2719e-09
3.16214e-08
-1.10076e-09
3.50657e-11
5.54282e-10
2.83289e-08
2.91961e-09
-5.87922e-10
2.48289e-08
5.17482e-11
-9.28393e-10
3.48238e-08
8.38459e-10
4.97834e-10
1.4558e-08
-1.67547e-09
-3.345e-09
3.28812e-08
3.80998e-09
3.38756e-09
2.67302e-08
4.33386e-09
2.50417e-08
4.1875e-09
-4.05493e-09
3.72682e-08
9.33085e-10
-6.50969e-09
-1.86876e-09
3.7306e-08
-7.01938e-09
3.38117e-09
2.64104e-08
5.61724e-09
1.12629e-09
1.76653e-08
2.81876e-09
-2.96801e-09
3.74318e-08
1.37665e-09
5.57231e-09
4.0081e-08
5.30054e-09
3.99874e-09
3.13822e-08
1.93381e-09
3.22427e-08
1.21133e-09
2.37802e-09
-2.30807e-09
2.77182e-09
5.06186e-08
-1.2349e-09
2.48329e-09
3.11197e-09
1.06338e-09
3.03562e-08
1.23577e-09
2.22205e-09
2.34213e-09
3.51771e-08
-2.36375e-09
-4.87295e-09
3.08255e-09
4.44693e-08
-3.50043e-09
1.86066e-10
1.26475e-09
2.27459e-08
2.65657e-09
1.30817e-09
1.56604e-10
2.76706e-08
5.35748e-09
1.51679e-09
8.20919e-10
2.60388e-08
-5.63321e-10
1.48698e-09
2.97684e-08
-1.09292e-09
1.75599e-09
-4.74158e-10
-5.68099e-09
3.70426e-08
-5.3611e-09
3.59705e-09
-5.14654e-09
2.76998e-08
3.46295e-09
-5.27169e-09
4.21507e-08
-6.24623e-09
-1.05885e-08
5.01741e-08
-5.45901e-10
1.7228e-09
2.33118e-08
2.74096e-09
2.31791e-09
2.83425e-08
1.60606e-09
2.11877e-09
2.74305e-08
1.47336e-09
3.64648e-08
-1.01256e-10
-3.08488e-09
-2.79441e-09
4.13156e-08
-4.12828e-09
2.6218e-09
2.03541e-09
2.82489e-08
-1.79116e-09
-4.68112e-10
2.09467e-08
4.71049e-09
-4.31668e-10
2.82123e-08
-4.10641e-11
-1.59085e-09
3.05281e-08
2.42218e-09
3.40528e-09
3.11969e-08
-1.67704e-10
-2.56389e-09
3.10201e-08
9.31974e-10
3.22695e-08
-2.70455e-09
1.90757e-09
4.11056e-09
2.65108e-08
-3.18038e-09
2.74718e-10
-6.71875e-10
2.4916e-08
-9.55552e-10
3.74416e-09
1.37183e-08
3.26351e-09
5.78167e-09
2.43888e-08
5.74163e-09
4.01601e-09
2.48009e-08
-2.63499e-09
-3.76592e-09
4.64435e-08
2.83249e-09
-2.24446e-09
2.72666e-08
-7.43957e-09
4.09945e-08
-4.14105e-09
-2.92712e-09
2.09358e-09
3.31242e-08
-3.27518e-09
5.37275e-09
1.74644e-09
3.21649e-08
-2.59216e-09
1.59735e-09
5.0423e-08
3.29898e-09
3.70849e-09
3.26341e-08
-2.6731e-09
-4.94704e-09
4.46043e-08
-4.55093e-11
-1.12738e-09
1.34024e-08
-2.67504e-09
-5.60597e-10
3.686e-08
2.9971e-09
3.51563e-08
3.86693e-09
-2.2726e-09
3.81279e-09
3.32112e-08
-2.36004e-09
2.58955e-09
-8.62293e-10
2.12987e-08
3.66686e-10
9.29877e-10
3.17787e-08
-3.36783e-09
-4.69677e-10
2.13264e-08
-9.67168e-10
4.40086e-09
4.05677e-08
1.19832e-09
2.85876e-09
2.287e-08
8.60924e-10
5.54341e-10
2.46766e-08
6.70938e-10
2.9313e-08
-4.71903e-10
-4.96814e-09
-7.06573e-09
5.53872e-08
-7.91912e-09
4.01502e-09
-2.50992e-09
2.09934e-08
-8.4227e-10
-3.99377e-09
3.46099e-08
1.45151e-09
-2.20023e-09
3.42606e-08
-2.04735e-09
-2.47921e-09
2.49369e-08
-1.977e-10
-9.30233e-11
3.39833e-08
7.79955e-10
4.31614e-09
2.19907e-08
-3.69824e-10
2.66258e-08
2.36698e-10
-3.96997e-09
3.70488e-08
1.13905e-09
-4.01541e-09
1.94577e-09
2.51041e-08
3.77628e-09
9.83483e-10
2.38846e-08
-5.05667e-10
1.1257e-09
1.86751e-08
-3.35221e-09
-4.14064e-10
3.64858e-08
6.5511e-12
5.19892e-09
3.45802e-08
-2.05186e-10
-4.15282e-09
4.58435e-08
-7.93462e-10
2.80256e-08
-3.18626e-09
2.88077e-09
1.7193e-10
3.23914e-09
3.98931e-08
3.54398e-09
3.77041e-09
6.26939e-10
6.93043e-10
2.59954e-08
3.21278e-09
6.82863e-10
1.58312e-09
3.20967e-08
1.44136e-09
6.22114e-09
1.69602e-09
3.5943e-08
1.29206e-09
-2.1648e-09
-1.69453e-09
2.85293e-08
4.29705e-09
-2.61723e-10
-2.56009e-09
2.4995e-08
3.33265e-09
1.04703e-09
-9.44562e-10
2.39048e-08
1.76982e-09
-5.48048e-10
2.76093e-08
-4.55563e-10
4.20974e-09
-1.00027e-09
-3.69124e-09
4.79201e-08
-2.94674e-09
9.58683e-10
1.60456e-10
2.62734e-08
-5.05391e-10
4.51244e-10
4.47466e-08
2.18016e-09
3.48779e-09
4.56967e-08
-1.61691e-09
-2.36604e-10
2.5651e-08
1.78659e-09
3.52097e-09
1.8858e-08
1.51292e-09
1.21818e-09
2.55414e-08
-2.65779e-10
3.02795e-08
7.41601e-09
1.76616e-09
-2.43306e-10
3.388e-08
2.22146e-09
8.46829e-10
2.088e-09
2.72407e-08
1.45871e-09
1.87505e-09
1.89111e-08
-6.79946e-10
3.62383e-09
3.02148e-08
-3.06991e-11
-1.70449e-09
3.13468e-08
-1.69338e-09
-1.0511e-09
3.74316e-08
6.30224e-10
-7.07597e-10
3.06223e-08
3.25034e-09
2.73191e-08
2.06449e-09
3.02272e-09
1.36924e-09
1.85166e-08
3.35893e-09
1.00113e-09
-4.29945e-09
3.33251e-08
1.61677e-09
-7.54432e-09
2.2522e-08
-5.05312e-09
-5.86699e-09
4.05493e-08
8.90876e-10
2.24556e-09
1.49072e-08
-8.89783e-10
8.83879e-09
3.83343e-08
3.89819e-09
3.3226e-09
1.84484e-08
-2.31496e-09
5.21312e-08
-1.67321e-09
-2.56031e-09
1.24396e-09
3.64104e-08
-6.00514e-10
-1.31297e-09
1.79462e-09
2.48235e-08
1.37383e-09
1.70918e-09
3.84828e-08
2.89762e-09
1.25095e-09
2.39927e-08
8.28769e-09
7.31569e-10
4.07279e-08
-4.92623e-09
-1.52092e-09
3.6976e-08
-2.42562e-09
5.18149e-09
3.25006e-08
6.65457e-09
1.94111e-08
4.35009e-09
-1.21582e-09
6.86973e-09
2.99616e-08
-1.16034e-09
-1.45962e-09
1.58394e-09
2.17532e-08
1.3988e-09
3.81529e-09
2.68142e-08
1.45474e-09
1.1156e-09
2.14059e-08
1.29298e-09
3.00343e-09
3.84576e-08
2.4012e-09
-2.04691e-10
2.04455e-08
2.01509e-09
-6.35632e-10
3.08799e-08
-7.22752e-10
3.79855e-08
7.1996e-10
-3.56589e-09
-7.18825e-09
8.41982e-08
-1.11871e-08
-1.80764e-09
-7.91389e-10
2.16105e-08
-8.00262e-10
-4.19904e-10
3.78377e-08
3.39716e-09
1.87505e-09
2.93037e-08
-1.21823e-09
5.27621e-09
2.72796e-08
2.49604e-09
8.15206e-10
2.92492e-08
1.55002e-09
-2.44244e-09
2.47435e-08
-3.86346e-09
3.41545e-08
-2.83797e-09
4.60576e-10
2.78269e-08
3.92827e-09
-2.35519e-09
4.26243e-10
2.50572e-08
-7.10096e-10
2.35988e-09
2.18113e-08
-2.80257e-10
6.30186e-09
1.86231e-08
-2.01497e-09
-5.36056e-09
5.88311e-08
-5.40663e-09
-1.58443e-10
3.05423e-08
-3.49054e-10
-1.16982e-09
4.05152e-08
3.89726e-09
2.26921e-08
1.95829e-09
-1.65808e-09
1.749e-09
-5.49364e-09
4.58561e-08
-3.74311e-10
-1.84425e-09
-2.47063e-09
-1.12764e-09
2.98931e-08
1.44962e-09
-1.08831e-09
-1.00697e-08
3.89225e-08
1.86155e-09
-2.1217e-11
-4.76925e-09
3.74347e-08
2.21048e-09
-3.5755e-10
-9.20074e-09
3.76423e-08
4.24093e-10
-1.42281e-10
-4.26515e-09
3.03333e-08
-1.2884e-09
1.78529e-09
-3.33715e-09
1.93081e-08
6.00631e-09
-2.78041e-09
3.79316e-08
1.5926e-10
-5.91588e-09
4.72159e-09
3.18707e-09
3.34978e-08
1.01996e-09
-1.00251e-08
-1.31261e-09
4.12051e-08
-9.39108e-10
4.74981e-09
2.08411e-08
1.13566e-09
2.02581e-09
3.68269e-08
1.0569e-09
-8.70271e-10
1.73993e-08
5.53322e-10
-1.85991e-09
1.69563e-08
3.50473e-09
-3.82217e-09
2.3075e-08
-8.63319e-10
3.10819e-08
7.85213e-10
-5.48015e-12
2.33228e-09
3.70979e-08
-2.35762e-09
-1.60293e-09
3.64551e-09
2.388e-08
-3.81518e-09
1.55663e-09
2.43165e-08
-2.0362e-09
2.41672e-09
2.80449e-08
-8.09809e-11
8.58673e-10
2.76627e-08
-3.52813e-09
-5.25014e-10
3.95438e-08
4.23739e-09
3.10043e-09
1.59342e-08
2.52085e-09
2.31946e-08
4.97774e-09
3.79136e-11
-3.97222e-09
3.46851e-08
-9.90187e-09
-5.78915e-09
-3.69621e-09
4.64938e-08
-8.05197e-09
-2.69249e-10
2.66107e-08
-2.7785e-09
3.93319e-09
3.37591e-08
-1.33749e-09
2.79731e-09
1.15278e-08
1.71239e-09
7.38801e-09
2.73715e-08
5.18615e-09
3.33979e-09
1.47353e-08
5.16573e-09
5.35034e-08
1.16908e-09
-8.19129e-11
5.11228e-10
3.5382e-08
-3.37311e-09
-3.15488e-10
1.09526e-09
2.02657e-08
-1.40098e-09
-5.97207e-10
3.98963e-08
1.05818e-10
9.01454e-10
2.55179e-08
-3.0696e-09
-9.6212e-10
4.76626e-08
6.28399e-09
5.11559e-09
2.98948e-08
3.49145e-09
2.6504e-09
3.59825e-08
-7.10911e-10
3.08321e-08
-2.05299e-09
1.46921e-09
2.11404e-09
2.69384e-08
-4.87863e-11
-2.33958e-09
1.06567e-09
2.55915e-08
1.47082e-10
-1.63669e-09
2.5367e-08
-2.06915e-09
1.32678e-09
2.31968e-08
2.02959e-09
4.99473e-09
2.8402e-08
4.31297e-09
3.30116e-09
1.99766e-08
4.29407e-09
1.75798e-09
3.17912e-08
-1.56095e-09
4.45744e-08
-1.44483e-09
3.10077e-09
-4.15197e-09
8.67958e-08
5.67688e-10
-6.58318e-09
-2.46284e-09
3.48229e-08
4.20897e-09
3.93363e-10
2.50155e-08
4.70213e-10
2.19292e-09
3.21763e-08
1.00833e-09
-2.70123e-09
3.44374e-08
1.98501e-09
5.23716e-10
3.10499e-08
6.73505e-10
-3.36318e-10
2.81493e-08
-1.7344e-10
3.55007e-08
-2.06039e-09
1.80032e-09
3.45851e-08
-1.28953e-08
1.84662e-10
-3.48298e-09
2.93236e-08
-1.44597e-09
3.21934e-09
1.79249e-08
-2.42265e-09
-1.00097e-08
3.57338e-08
-1.68875e-09
6.99756e-09
3.40465e-08
5.07619e-09
7.13143e-10
3.69762e-08
3.74263e-10
9.31806e-11
4.48841e-08
-4.08537e-09
2.40081e-08
-2.14535e-09
7.4896e-10
2.25323e-09
4.46195e-10
4.09182e-08
-7.31976e-10
2.97031e-09
-1.97931e-10
-2.47236e-09
3.47707e-08
4.61628e-11
4.06628e-10
1.3758e-09
3.61856e-08
7.56965e-10
6.10545e-10
-3.34804e-09
3.81999e-08
2.37894e-09
8.18481e-10
1.15278e-09
3.7023e-08
-7.4165e-10
9.13805e-10
5.27433e-10
2.8753e-08
9.57304e-10
-1.34415e-09
-6.68157e-10
2.40285e-08
-1.79425e-09
6.63873e-10
3.57044e-08
-2.00381e-10
4.19339e-10
7.96668e-10
3.38251e-10
3.35945e-08
-7.85009e-10
2.26073e-09
8.51078e-10
3.64179e-08
3.89316e-09
-6.83436e-10
2.12681e-08
6.28829e-09
-1.75155e-09
3.28355e-08
2.95688e-10
-2.57261e-10
2.48015e-08
9.45883e-12
-1.55356e-09
1.93232e-08
2.11943e-10
-1.50025e-10
2.23543e-08
1.28065e-09
3.09274e-08
-2.50558e-10
1.22038e-09
3.51585e-10
3.56844e-08
1.795e-10
1.49852e-10
-2.01764e-09
2.78193e-08
-5.00957e-11
-7.95914e-10
2.4629e-08
1.20646e-10
-8.85241e-10
2.70081e-08
-5.43711e-10
4.6074e-10
2.76088e-08
1.2845e-09
4.33156e-10
3.57286e-08
-5.62333e-10
-2.87472e-10
1.79181e-08
-1.31807e-09
2.66155e-08
-1.38469e-09
-1.02274e-09
-8.43103e-10
3.64913e-08
4.11134e-10
4.97056e-10
1.48282e-09
4.14738e-08
-1.54798e-09
-1.49495e-09
2.93548e-08
5.67365e-10
3.53587e-10
3.04053e-08
-8.07162e-10
-3.05599e-09
1.64188e-08
6.04655e-10
-4.42244e-10
2.68347e-08
-2.70829e-09
-2.10419e-09
1.9865e-08
3.0818e-09
4.34098e-08
2.98547e-09
9.52692e-10
-1.18168e-09
3.37532e-08
1.01497e-09
-1.79352e-09
-8.7432e-10
2.53688e-08
6.14417e-10
3.52881e-10
3.56404e-08
-1.66029e-09
-1.2799e-10
2.82739e-08
1.05598e-09
9.81565e-10
4.09089e-08
-1.39337e-11
2.38436e-10
3.02842e-08
9.02416e-10
1.19625e-10
3.28426e-08
-1.57354e-09
3.72529e-08
-8.62921e-10
8.22526e-10
-7.66815e-09
3.24744e-08
1.27748e-10
-5.30148e-11
-2.00394e-09
2.7597e-08
3.34737e-11
-5.16819e-10
2.61501e-08
-2.95811e-10
-1.02306e-09
2.44211e-08
6.42193e-10
-4.64023e-10
2.89095e-08
-7.60797e-10
-9.95628e-10
2.26137e-08
-1.05026e-09
4.5262e-10
3.1748e-08
-1.28773e-10
4.29623e-08
-8.82663e-10
4.71012e-09
2.33143e-09
6.70922e-08
4.9944e-09
7.30303e-10
-2.81587e-10
3.70802e-08
-5.98209e-10
-1.42967e-10
2.59701e-08
-2.46755e-10
-8.39244e-11
3.0886e-08
6.35686e-10
-1.22099e-10
3.32128e-08
8.22609e-10
-8.16145e-10
3.06836e-08
-2.82265e-10
-1.72788e-09
3.14347e-08
-2.60505e-10
3.49441e-08
4.06158e-10
1.24404e-09
3.66502e-08
-1.37571e-09
3.98263e-10
1.5042e-09
3.12377e-08
-2.45587e-09
-1.635e-09
2.26623e-08
-1.74064e-09
-6.13374e-10
3.37622e-08
8.65706e-10
2.27674e-10
3.38476e-08
-7.63909e-10
-6.00031e-10
3.67862e-08
2.01523e-10
7.73485e-10
4.17989e-08
-1.61069e-11
2.90216e-08
-1.54659e-09
-2.95428e-09
-1.2037e-09
3.18965e-10
3.71954e-08
2.10538e-09
2.50451e-09
5.51731e-10
8.99897e-10
3.39006e-08
-1.78531e-09
9.64962e-10
2.02853e-09
3.39055e-08
-1.6153e-10
8.76031e-10
6.83728e-10
3.73684e-08
2.36753e-10
1.10491e-09
1.01026e-09
3.64933e-08
-7.10477e-10
1.08796e-09
-5.51802e-10
2.8802e-08
5.20125e-10
5.24861e-10
-2.2208e-10
2.63127e-08
-1.49831e-09
-1.12844e-09
3.34562e-08
1.52586e-09
2.37602e-09
-2.5455e-09
-7.63168e-10
3.46165e-08
2.60503e-09
1.72283e-09
4.53703e-10
3.25954e-08
9.81639e-10
-9.08899e-10
2.49467e-08
9.61091e-10
-9.10432e-10
3.44505e-08
4.00818e-10
-2.49714e-10
2.66205e-08
-1.31731e-10
-2.56501e-09
2.18686e-08
-2.10144e-10
-1.10598e-09
2.33167e-08
-2.00437e-09
3.18407e-08
-2.47678e-10
-1.35283e-09
-1.46157e-09
3.3911e-08
3.82473e-09
-1.27182e-10
-1.87774e-09
2.89242e-08
-3.01337e-11
-1.52892e-09
2.5152e-08
-3.64525e-10
-1.79851e-09
2.82313e-08
-1.00578e-09
-6.34807e-10
2.86338e-08
6.9874e-10
-1.07536e-09
3.25342e-08
-8.99688e-10
-2.33757e-09
2.07482e-08
-3.957e-09
2.96737e-08
-2.0056e-09
-3.39747e-09
-3.35779e-10
3.33981e-08
5.36496e-09
7.30078e-10
1.48671e-09
3.39817e-08
1.60769e-10
-1.16876e-09
2.95633e-08
8.01935e-10
-4.16824e-10
2.83849e-08
-2.026e-09
-3.13706e-09
2.17462e-08
-7.18668e-10
-2.80559e-10
2.47324e-08
-1.77793e-09
-1.81488e-09
2.04016e-08
-1.35653e-09
3.7746e-08
1.28504e-09
-1.50573e-09
-2.01186e-09
3.26193e-08
4.31534e-09
-2.1463e-09
-8.87934e-10
2.83829e-08
-7.29639e-10
1.05998e-10
3.29479e-08
-1.88253e-09
-5.29557e-10
2.95369e-08
-4.71104e-10
-4.17887e-10
3.678e-08
-1.71062e-09
-1.99321e-10
3.14432e-08
-1.97242e-09
-9.1698e-10
3.22065e-08
-9.66312e-10
3.46371e-08
2.53241e-10
-8.493e-10
-5.24461e-09
3.34134e-08
3.1435e-09
-7.53084e-10
-2.07006e-09
2.86827e-08
-1.0709e-09
-6.3677e-10
2.7211e-08
-1.34441e-09
-1.73474e-09
2.58993e-08
-1.36186e-09
-1.38529e-09
2.98943e-08
-3.31614e-09
-1.56306e-09
2.59316e-08
-3.66563e-09
-4.42833e-10
3.16238e-08
2.31699e-09
3.56418e-08
3.72434e-10
1.44171e-09
4.9061e-09
4.78305e-08
7.67009e-09
1.29553e-09
1.09784e-09
3.40579e-08
-1.18998e-09
8.80573e-10
2.69386e-08
-1.29691e-09
-3.37529e-10
2.95958e-08
-1.16781e-09
-5.6147e-10
3.22592e-08
-1.72914e-09
-6.84326e-10
3.03663e-08
-1.73823e-09
-1.84286e-10
3.11853e-08
3.36388e-09
3.23448e-08
-1.84925e-10
-1.1043e-09
3.75552e-08
2.10137e-09
3.00532e-09
-7.3174e-10
3.1981e-08
-1.87731e-11
-3.46104e-09
2.5844e-08
4.28717e-10
-1.7054e-09
2.97866e-08
1.88306e-09
-2.13601e-09
3.38432e-08
-1.26886e-10
-1.80696e-09
3.45273e-08
1.24615e-09
6.43267e-10
3.66499e-08
2.51412e-09
3.01491e-08
2.67482e-09
2.04286e-10
2.32683e-09
2.82087e-09
3.49262e-08
-1.74903e-09
-1.12934e-09
1.82569e-09
2.89617e-09
3.36574e-08
-2.15196e-09
4.13998e-10
3.93047e-09
3.28136e-08
-1.42721e-09
1.44163e-09
2.71029e-09
3.3866e-08
-2.36054e-10
2.85525e-09
4.4711e-09
3.35527e-08
-2.94413e-09
3.38596e-10
2.95959e-09
3.07453e-08
-2.38653e-09
-2.61531e-09
3.16836e-09
3.01694e-08
-4.07143e-09
1.45034e-09
3.24678e-08
-9.80053e-10
-2.09752e-09
1.35182e-09
1.51097e-09
3.3256e-08
1.31773e-09
2.4833e-09
2.16099e-09
3.21986e-08
3.16689e-10
1.47787e-09
2.95657e-08
2.62611e-09
2.84305e-09
3.2007e-08
2.22786e-09
1.75839e-09
2.97323e-08
-6.99892e-10
-2.32114e-10
2.79883e-08
-4.17901e-09
1.48513e-09
2.84791e-08
6.49453e-10
3.20913e-08
-3.62889e-09
2.05852e-09
5.93994e-10
3.27243e-08
4.50667e-11
2.05383e-09
2.38575e-10
3.08505e-08
2.80495e-10
-6.5526e-10
2.90584e-08
4.08621e-10
1.05917e-09
2.98866e-08
4.30814e-10
5.71822e-10
2.97983e-08
1.48559e-09
5.75314e-10
3.06722e-08
-3.51665e-09
-5.52016e-10
2.77878e-08
-1.39819e-09
3.15412e-08
-3.33674e-09
8.3876e-10
-4.41598e-10
3.2707e-08
8.87963e-10
2.17207e-09
6.13564e-10
3.22733e-08
1.69063e-09
-1.07854e-09
3.04686e-08
2.16031e-09
-5.45985e-10
2.95209e-08
2.8692e-10
-3.60591e-09
2.77962e-08
-9.17641e-10
-2.17724e-09
2.86901e-08
-5.01544e-09
-4.07129e-09
2.80196e-08
-9.49964e-10
3.36693e-08
-1.38676e-09
1.53887e-09
-1.65391e-09
3.26627e-08
-3.70214e-10
4.20763e-10
-7.88509e-10
3.09027e-08
2.22923e-10
3.59991e-10
3.17063e-08
-1.02179e-09
-2.88697e-10
3.05235e-08
3.6702e-10
-8.46253e-10
3.26321e-08
-6.41026e-10
-9.61837e-10
3.12354e-08
-2.11822e-09
-2.13405e-09
3.17457e-08
-1.1571e-09
3.34278e-08
-7.02029e-10
2.43888e-09
-3.72885e-09
3.34326e-08
-3.83161e-10
1.71879e-09
-2.51087e-09
3.11251e-08
3.76649e-10
-9.84033e-10
2.98973e-08
-1.23678e-09
-2.04421e-09
2.92673e-08
-7.45974e-10
-2.13202e-09
3.06905e-08
-2.67232e-09
-2.94094e-09
2.98373e-08
-2.65187e-09
-2.48117e-09
3.19504e-08
-1.16746e-09
3.3704e-08
-7.03683e-10
3.77777e-09
5.184e-10
3.78393e-08
1.96573e-09
3.13473e-09
-1.19745e-09
3.33872e-08
4.68896e-11
-1.22737e-09
3.027e-08
-1.61614e-09
-1.41774e-09
3.06316e-08
-1.00329e-09
-2.32373e-09
3.18391e-08
-1.90926e-09
-3.2465e-09
3.1578e-08
-1.78275e-09
-3.87124e-09
3.24488e-08
-2.54154e-09
3.30265e-08
-1.09087e-09
2.20794e-09
3.49107e-08
9.80779e-10
-2.64044e-11
2.1342e-09
3.27452e-08
-1.88841e-09
-1.02054e-09
3.01429e-08
-2.37141e-09
-2.82823e-09
3.10289e-08
-8.51372e-10
-2.02325e-09
3.29113e-08
-2.19714e-09
-2.31695e-09
3.34841e-08
-1.90951e-09
-8.62034e-10
3.46492e-08
-3.32642e-09
3.30695e-08
-5.30029e-09
-1.02495e-09
8.97671e-10
1.56122e-09
3.38125e-08
-4.92124e-10
-8.54173e-10
9.85188e-10
1.91421e-09
3.32293e-08
-1.57324e-09
4.17615e-10
2.3109e-09
3.26855e-08
-1.61527e-09
6.98014e-10
2.0488e-09
3.28533e-08
-1.31602e-09
1.20745e-09
2.54105e-09
3.27087e-08
-2.2066e-09
1.89517e-10
1.81011e-09
3.18006e-08
-1.8479e-09
-8.79352e-10
1.53507e-09
3.16981e-08
-1.99529e-09
2.58816e-10
3.24521e-08
-1.71406e-10
-9.51649e-10
6.85518e-10
8.3444e-10
3.28073e-08
4.90079e-10
1.20671e-09
1.26543e-09
3.23269e-08
4.0245e-10
1.20026e-09
3.14808e-08
9.76422e-10
1.61365e-09
3.18679e-08
7.63813e-10
1.19122e-09
3.12954e-08
-4.98424e-10
3.10863e-10
3.07498e-08
-1.95197e-09
5.37294e-10
3.09303e-08
-1.55178e-10
3.22871e-08
-1.73398e-09
1.17066e-09
2.52205e-10
3.25219e-08
-3.86238e-10
1.24991e-09
2.30907e-10
3.1806e-08
4.35847e-10
2.62164e-11
3.10463e-08
2.5834e-10
5.51231e-10
3.11258e-08
-6.41032e-12
2.43393e-10
3.10116e-08
-2.31051e-10
3.50224e-12
3.12041e-08
-2.09355e-09
-5.49684e-10
3.0737e-08
-9.08413e-10
3.21975e-08
-1.997e-09
9.03666e-10
-2.46527e-10
3.25379e-08
-2.35225e-10
1.31525e-09
1.40102e-11
3.20791e-08
9.46413e-10
-4.75451e-10
3.13395e-08
6.26711e-10
-4.82434e-10
3.0874e-08
-3.05059e-10
-1.52709e-09
3.04991e-08
-1.02562e-09
-1.31423e-09
3.07283e-08
-2.59082e-09
-1.88988e-09
3.09254e-08
-9.91966e-10
3.26643e-08
-1.50184e-09
1.14757e-09
-7.13471e-10
3.26496e-08
-6.66938e-10
6.39391e-10
-4.88171e-10
3.1914e-08
3.57482e-10
-2.07148e-10
3.17201e-08
-4.74978e-10
-4.73383e-10
3.13478e-08
-3.73471e-10
-8.29313e-10
3.18326e-08
-1.07791e-09
-1.02924e-09
3.16554e-08
-1.78045e-09
-1.46773e-09
3.20263e-08
-1.02281e-09
3.29215e-08
-1.2433e-09
1.34221e-09
-1.19578e-09
3.30527e-08
-4.80234e-10
1.08103e-09
-1.14843e-09
3.2047e-08
2.5354e-10
-8.32933e-10
3.13506e-08
-7.51696e-10
-1.26519e-09
3.1065e-08
-8.86753e-10
-1.52931e-09
3.15255e-08
-1.76067e-09
-1.84378e-09
3.15258e-08
-1.85867e-09
-1.71721e-09
3.2298e-08
-1.06239e-09
3.30811e-08
-1.19613e-09
1.45681e-09
5.08656e-10
3.42828e-08
3.95237e-10
1.39624e-09
-5.60299e-10
3.28601e-08
1.83359e-11
-8.68852e-10
3.16838e-08
-1.03577e-09
-1.17744e-09
3.15986e-08
-1.09476e-09
-1.71629e-09
3.20856e-08
-1.52716e-09
-2.05552e-09
3.22222e-08
-1.38432e-09
-2.16612e-09
3.27549e-08
-1.54215e-09
3.314e-08
-1.01835e-09
5.1523e-10
3.35798e-08
7.89501e-10
5.3488e-10
6.86088e-10
3.27725e-08
-7.58135e-10
-5.97865e-10
3.18308e-08
-1.27258e-09
-1.65057e-09
3.19443e-08
-1.03945e-09
-1.488e-09
3.27125e-08
-1.67951e-09
-1.53194e-09
3.30818e-08
-1.60922e-09
-7.74208e-10
3.36686e-08
-1.94347e-09
3.35941e-08
-2.26288e-09
-5.79175e-10
7.93204e-10
1.30226e-09
3.34073e-08
-6.11445e-10
-1.07813e-09
7.82963e-10
1.30405e-09
3.31122e-08
-1.17617e-09
4.73899e-10
1.33259e-09
3.28069e-08
-1.14462e-09
3.75787e-10
1.24985e-09
3.27486e-08
-1.0467e-09
3.53067e-10
1.30818e-09
3.26615e-08
-1.23838e-09
-1.63796e-10
1.02072e-09
3.23779e-08
-1.08105e-09
-6.30288e-10
8.74715e-10
3.23995e-08
-1.1094e-09
3.9894e-10
3.26817e-08
-4.47674e-10
-8.10771e-10
5.928e-10
7.88657e-10
3.28488e-08
-1.20254e-10
7.33973e-10
8.7929e-10
3.2611e-08
4.1072e-10
8.6273e-10
3.22743e-08
3.72188e-10
9.05966e-10
3.22505e-08
1.47449e-10
7.4385e-10
3.20843e-08
-4.1222e-10
3.92803e-10
3.19374e-08
-9.89128e-10
3.27426e-10
3.20544e-08
5.17729e-11
3.25718e-08
-9.26986e-10
7.26071e-10
3.4113e-10
3.26567e-08
-4.12995e-10
7.4113e-10
3.26864e-10
3.23437e-08
3.85181e-10
2.6328e-10
3.2002e-08
1.44743e-10
3.45899e-10
3.1926e-08
-1.56284e-10
1.88764e-10
3.18679e-08
-4.50552e-10
-2.39161e-11
3.19149e-08
-1.11642e-09
-2.43039e-10
3.19732e-08
-3.74398e-10
3.25481e-08
-1.04108e-09
6.64214e-10
-6.46181e-11
3.26286e-08
-3.4855e-10
7.32079e-10
-1.15695e-11
3.235e-08
4.73399e-10
-1.50747e-10
3.20125e-08
1.29926e-10
-2.38459e-10
3.18004e-08
-3.248e-10
-5.74127e-10
3.17177e-08
-7.73254e-10
-6.66023e-10
3.18189e-08
-1.28148e-09
-8.54318e-10
3.20446e-08
-6.95364e-10
3.26779e-08
-9.74618e-10
7.16725e-10
-3.45669e-10
3.27225e-08
-5.07919e-10
5.4967e-10
-3.05658e-10
3.23758e-08
2.50336e-10
-2.71533e-10
3.21403e-08
-2.2057e-10
-4.04456e-10
3.19857e-08
-4.48881e-10
-6.15099e-10
3.21007e-08
-8.47324e-10
-7.77282e-10
3.21649e-08
-1.14024e-09
-9.57822e-10
3.24228e-08
-8.61715e-10
3.28689e-08
-9.20952e-10
7.41238e-10
-5.5772e-10
3.29082e-08
-3.84346e-10
6.13564e-10
-6.04855e-10
3.24743e-08
1.53655e-10
-5.85045e-10
3.21241e-08
-4.10492e-10
-7.6013e-10
3.19854e-08
-6.91399e-10
-9.55624e-10
3.21468e-08
-1.086e-09
-1.12731e-09
3.22706e-08
-1.19315e-09
-1.18266e-09
3.26301e-08
-1.05206e-09
3.30269e-08
-9.48349e-10
7.12943e-10
-1.4336e-10
3.32818e-08
-1.25641e-10
6.31476e-10
-4.501e-10
3.27873e-08
1.80842e-11
-6.18467e-10
3.23308e-08
-5.93168e-10
-7.92251e-10
3.22423e-08
-8.43361e-10
-1.06674e-09
3.24471e-08
-1.11088e-09
-1.25329e-09
3.2616e-08
-1.10353e-09
-1.37185e-09
3.29369e-08
-1.31771e-09
3.32175e-08
-9.15258e-10
3.87831e-10
3.31163e-08
3.72966e-12
-7.06821e-11
3.50032e-10
3.2828e-08
-4.6738e-10
-2.4402e-10
3.24748e-08
-6.68298e-10
-8.79622e-10
3.24705e-08
-6.82419e-10
-1.05262e-09
3.27932e-08
-9.73989e-10
-1.20444e-09
3.30404e-08
-1.05977e-09
-1.03631e-09
3.33849e-08
-1.256e-09
3.35686e-08
-1.48744e-09
-8.41047e-10
3.96995e-10
7.70255e-10
3.31987e-08
-2.69094e-10
-6.89001e-10
4.19617e-10
7.74861e-10
3.30521e-08
-7.37157e-10
2.99271e-10
7.69878e-10
3.28955e-08
-7.38181e-10
2.01977e-10
7.31818e-10
3.28224e-08
-7.08267e-10
1.20452e-10
6.98492e-10
3.27684e-08
-7.2394e-10
-1.13703e-10
5.50134e-10
3.26769e-08
-6.15027e-10
-2.95398e-10
4.29571e-10
3.27067e-08
-5.55064e-10
1.84479e-10
3.28165e-08
-2.28451e-10
-3.86309e-10
3.33198e-10
5.04598e-10
3.29077e-08
-1.26319e-10
3.85825e-10
5.44533e-10
3.27889e-08
2.57118e-10
5.38532e-10
3.26344e-08
1.49035e-10
5.17289e-10
3.25734e-08
-9.8818e-12
4.30169e-10
3.2511e-08
-2.63207e-10
2.65931e-10
3.24749e-08
-4.83513e-10
1.54177e-10
3.255e-08
-1.03153e-11
3.2752e-08
-4.69264e-10
3.94238e-10
2.52766e-10
3.27871e-08
-2.72521e-10
3.89051e-10
2.54985e-10
3.26387e-08
2.23685e-10
2.26413e-10
3.24796e-08
4.76515e-11
2.08418e-10
3.24113e-08
-1.51793e-10
1.12863e-10
3.23838e-08
-3.68673e-10
-1.78544e-11
3.24156e-08
-6.04876e-10
-1.4039e-10
3.25039e-08
-2.34764e-10
3.27444e-08
-5.76959e-10
3.83152e-10