/*--------------------------------*- C++ -*----------------------------------*\
| =========                 |                                                 |
| \\      /  F ield         | OpenFOAM: The Open Source CFD Toolbox           |
|  \\    /   O peration     | Version:  2506                                  |
|   \\  /    A nd           | Website:  www.openfoam.com                      |
|    \\/     M anipulation  |                                                 |
\*---------------------------------------------------------------------------*/
FoamFile
{
    version     2.0;
    format      ascii;
    arch        "LSB;label=32;scalar=64";
    class       volVectorField;
    location    "0.05";
    object      U;
}
// * * * * * * * * * * * * * * * * * * * * * * * * * * * * * * * * * * * * * //

dimensions      [0 1 -1 0 0 0 0];

internalField   nonuniform List<vector> 
4608
(
(-0.00200946 -0.00132803 0.0155067)
(-0.00155083 0.000350671 0.0123293)
(-0.00115076 -0.000957275 0.012768)
(-0.00159951 -0.000319345 0.0189992)
(0.000320329 -0.00087574 0.0123758)
(0.000173343 -0.00135807 0.0218033)
(-0.000419727 -0.000877009 0.0112132)
(0.00167268 -0.00219699 0.0139647)
(0.00114145 -0.00142421 0.0136124)
(-0.00096797 -0.00227588 0.0193616)
(-0.00253168 -0.00304794 0.0165957)
(-0.000681801 -0.00125006 0.0126274)
(-0.000649939 -0.00141889 0.0215775)
(-0.000397811 -0.00137327 0.0107002)
(-0.000187858 -0.000619114 0.0142197)
(0.000817565 -9.63597e-05 0.0117646)
(0.000190977 -0.00041809 0.0128192)
(-0.00141783 -0.000272242 0.00969591)
(-0.000720297 -0.000176813 0.00978053)
(0.000237813 0.000725056 0.014147)
(-0.000708126 -0.000661195 0.0149673)
(0.000246377 -0.00141605 0.0164)
(0.00107183 0.000274845 0.0114631)
(0.00107055 0.000230938 0.0205312)
(0.000380426 -0.000649014 0.0109931)
(-0.000641154 -0.00328511 0.0294204)
(5.62823e-05 0.000728079 0.0126062)
(-0.00112683 0.00185543 0.0267799)
(-0.00212852 0.000940653 0.0122861)
(0.000390363 0.000956334 0.0101114)
(0.000893473 0.00128814 0.00784532)
(0.000864131 0.000242927 0.00392087)
(-0.00132246 -0.00134811 0.0164186)
(8.65516e-05 -0.000940513 0.0100349)
(0.000733244 -0.000255488 0.00660816)
(0.000644257 -0.00205504 0.0147225)
(-3.72438e-05 0.000632347 0.0133118)
(0.00137361 0.0016981 0.0165059)
(0.00156164 0.00135721 0.0231761)
(0.000530825 0.00241756 0.0186508)
(-0.001073 0.00104408 0.0115088)
(0.000639064 0.00112834 0.0137058)
(-0.000394073 0.000785491 0.0153545)
(-4.34451e-06 -0.000772853 0.00784082)
(0.00115564 -0.000167815 0.0193505)
(0.000589174 -0.000126329 0.0106417)
(0.00135023 0.000103998 0.0117776)
(0.00133919 0.0011083 0.0143662)
(-0.0029839 0.00149566 0.0190432)
(-0.000977545 0.00100366 0.0145084)
(-0.000983092 0.00095398 0.0148059)
(0.000272625 0.000769331 0.00711832)
(0.00157157 0.000896552 0.0203283)
(0.00103093 0.00233297 0.0116796)
(0.00145013 0.00115196 0.0123405)
(0.000627717 0.00125 0.0138994)
(-0.00227304 0.00059854 0.00997612)
(9.8583e-07 0.00212117 0.009846)
(0.000150588 0.00103057 0.0107305)
(0.000420563 0.00284991 0.0143686)
(0.00231754 0.00135317 0.00996172)
(0.00177887 0.00150305 0.0104343)
(-0.000401012 0.000840536 0.012548)
(0.000436339 0.00103884 0.0239449)
(-0.000632432 -0.000886552 0.0222826)
(-0.00209608 -0.0034457 0.0386874)
(-0.00110185 -0.000396279 0.0164212)
(-4.90614e-05 -0.00198948 0.0270697)
(-7.33742e-05 -0.00060712 0.00704148)
(-4.54965e-05 -6.8718e-05 0.0303309)
(0.00104251 -0.000208991 0.020717)
(0.000431246 -0.000933569 0.0204747)
(-0.00304092 -0.00117544 0.0265409)
(-0.000850672 0.000260587 0.0192101)
(-0.0002212 0.00022629 0.0286569)
(-0.0010228 0.00139568 0.0197881)
(0.000603208 -0.00122889 0.0196543)
(0.00206933 0.00083002 0.0267077)
(0.000694718 0.000366204 0.0255169)
(0.000833485 -0.000327533 0.0186402)
(-2.57143e-05 -0.00101188 0.0291942)
(-0.000225498 -0.00228054 0.0280977)
(0.000411902 -7.45197e-05 0.0109426)
(-0.000566171 -0.000103215 0.0162824)
(-0.000917297 0.000908328 0.0131272)
(0.0010122 0.000451131 0.0158719)
(-0.000324254 0.000790356 0.0242242)
(0.000625477 0.000902466 0.0221428)
(-0.00421652 -0.00225491 0.0270771)
(-0.00104447 0.000419469 0.0216123)
(0.00154677 0.000114797 0.0190785)
(0.00103156 -0.0021092 0.0250046)
(0.000525062 0.00033697 0.0204075)
(0.000243667 -0.000181167 0.0115118)
(0.00218771 -0.000489656 0.0346374)
(0.000299125 0.00153121 0.0295761)
(0.000271143 -7.1968e-05 0.0157803)
(0.000881159 0.0015219 0.0154295)
(-0.00268259 0.000542373 0.036075)
(-0.00101176 -7.12828e-05 0.0322607)
(-0.000514931 0.000424046 0.0289224)
(0.000378343 0.000828788 0.0290588)
(0.00194609 0.000222018 0.0200394)
(0.000519943 -0.000260357 0.0150206)
(-0.000840739 0.000917256 0.0157488)
(-0.000333936 -0.00102873 0.0184922)
(0.000163547 -0.00100391 0.0271993)
(0.00108626 0.000687139 0.0235857)
(0.00107144 -0.000783383 0.0138409)
(0.000834734 0.00140445 0.0226534)
(0.000871919 0.00128087 0.0211723)
(0.00104928 -0.00034962 0.026521)
(-0.000658986 0.00134571 0.0199268)
(-0.000493846 0.00169436 0.025861)
(0.00013388 0.0011283 0.0265397)
(-0.000838534 0.00063817 0.025136)
(0.000683118 0.000903736 0.017471)
(0.00246123 0.000811487 0.0182345)
(0.000530947 0.00104882 0.0315908)
(0.00155575 0.000589763 0.0191115)
(-0.000171168 0.000737342 0.0171065)
(-0.000582613 0.00050547 0.0210765)
(-0.000917084 0.00164037 0.0343648)
(0.000578479 0.000471617 0.00961904)
(0.00212441 0.00327172 0.0269253)
(0.000328126 0.00135148 0.0499859)
(-0.000772923 0.00150122 0.0250741)
(0.00117016 0.00186773 0.0107887)
(0.00116427 -0.00170803 0.0324131)
(0.000111073 -0.00193596 0.0280507)
(0.000786708 -0.000489731 0.0219447)
(-0.000765159 -0.000167359 0.0234478)
(-0.00248114 0.000742353 0.0362577)
(-0.000729808 8.42532e-05 0.029274)
(0.000209505 -0.000217595 0.0245444)
(-0.000860821 0.00182865 0.0247223)
(9.10852e-05 -0.000668388 0.0209856)
(0.00069052 -0.00140489 0.0189498)
(0.000721635 -0.00158001 0.0261534)
(0.000376717 -0.000916055 0.0195815)
(7.85857e-05 0.000158999 0.0223199)
(-0.000575136 0.000710581 0.0233792)
(0.000751561 -0.00024175 0.0224121)
(0.000711308 0.000278488 0.0235904)
(-0.00031196 -0.000368904 0.0200914)
(-0.000275348 -0.001588 0.0441223)
(0.000567923 -0.00117778 0.0199027)
(0.000435584 -0.00400184 0.0456086)
(0.000587336 -0.000341107 0.0231489)
(-0.000883629 0.00120114 0.0341087)
(-0.000484695 -0.000549046 0.0250803)
(0.00107204 -0.00125017 0.025584)
(-0.000777412 0.00139028 0.0296757)
(0.000224267 0.000266441 0.0154369)
(5.65674e-05 -0.000264643 0.0178462)
(0.00204638 -0.00100239 0.0442472)
(0.00239031 -0.00056528 0.0266491)
(-4.31656e-05 -0.00118253 0.0184986)
(-0.00131248 -0.000390291 0.0226319)
(0.000657372 -4.16332e-05 0.0238939)
(0.000188719 0.000373595 0.0102475)
(-0.00231143 0.000935083 0.0428969)
(-0.000888211 0.000485888 0.0225082)
(-0.000294801 0.000537164 0.0198869)
(-0.000887404 -0.000264818 0.0204469)
(0.000190977 -0.00148392 0.0185571)
(0.00239959 -0.000677093 0.0353372)
(0.00049154 -0.000129208 0.0433793)
(0.000796921 -0.00079987 0.0228976)
(-0.000905492 -0.000616043 0.0201189)
(-0.000384602 -0.000465985 0.0199429)
(0.000622755 0.000484135 0.00980005)
(0.000796152 0.000334296 0.0441293)
(-0.00117751 0.000813773 0.0237008)
(-0.000442294 -0.00012147 0.0286863)
(0.00058535 0.000485534 0.0231364)
(-0.000610824 -0.000343681 0.0291784)
(-0.000916118 -0.000523055 0.0268419)
(0.00105087 -0.000254938 0.0169891)
(0.000891289 0.000540609 0.0214585)
(0.000471912 -0.000180798 0.012494)
(-0.000314516 -0.00075062 0.0257692)
(0.000692835 0.00118162 0.0237684)
(0.00233973 0.00205745 0.0244388)
(0.000225418 0.000963817 0.0264899)
(-0.00201323 -0.0028809 0.0303858)
(0.000649536 0.0015578 0.0241009)
(0.00144703 0.000237922 0.0238393)
(-0.000517664 0.000860723 0.0265534)
(0.00116553 0.00076437 0.0316419)
(0.00214866 0.00152107 0.0198813)
(0.00243716 0.00165993 0.0310533)
(-0.000676271 5.16666e-05 0.0460254)
(0.000510955 -9.27855e-05 0.0316685)
(0.00156025 0.00140369 0.0336654)
(-0.00140362 0.00228037 0.0342368)
(-0.000886133 -0.000913137 0.0178338)
(0.000420139 -0.00205812 0.0272226)
(0.000940577 0.000387286 0.0205462)
(0.00114784 0.000691032 0.0255039)
(0.00142704 -0.000618214 0.0181883)
(0.000612894 -0.00170756 0.0249855)
(0.00230277 -0.00142109 0.0283503)
(-0.000624431 -0.00295984 0.0239956)
(-0.00229401 0.0012319 0.028996)
(0.00073345 0.000890741 0.0308912)
(0.00117493 0.00115471 0.0235122)
(0.000357359 0.00114281 0.0322262)
(0.000221916 -0.00331359 0.0387545)
(0.000375857 -0.000749846 0.018666)
(0.000416628 -0.00152972 0.0191526)
(0.0010668 -0.00339548 0.0238818)
(0.00136674 2.10264e-05 0.0172141)
(0.00087027 0.00146047 0.0228982)
(0.000620442 7.59134e-05 0.0143822)
(-0.000897366 0.000705385 0.0223325)
(0.00153635 0.000210416 0.0236891)
(0.000666337 0.000508672 0.0233416)
(-0.000335976 0.000398615 0.0146398)
(0.000169878 0.000708933 0.0102888)
(0.0031715 0.00061967 0.0278625)
(0.000973598 -0.000363124 0.0316667)
(0.000489703 -0.00196933 0.0292321)
(-0.000300137 -0.00129451 0.0176408)
(0.000183641 0.00218622 0.0325289)
(0.000523987 0.000369334 0.0232219)
(0.00118222 0.00222491 0.0372043)
(0.000276578 0.00434982 0.0365134)
(-0.000298688 -7.4916e-05 0.0275801)
(-0.000545454 -0.00115332 0.0163658)
(-0.000656179 -0.000941761 0.021498)
(0.000551711 -0.00193937 0.034628)
(0.000143864 0.00205187 0.0285578)
(5.71007e-05 0.000362867 0.0219061)
(0.000989073 0.000783215 0.0266006)
(-0.000456973 0.000516316 0.0157792)
(-0.00179058 0.000210537 0.0358854)
(0.000328307 0.000503866 0.0260276)
(0.000524803 0.000209934 0.0140178)
(0.00019151 0.00103074 0.0211541)
(0.000314648 -0.000748511 0.0215111)
(-0.000496851 -0.00111772 0.0212447)
(0.00131297 -0.00127782 0.0238857)
(0.000150704 -0.00125989 0.0338146)
(-1.3281e-05 0.00030658 0.0160355)
(-0.00100199 0.00093554 0.0279048)
(0.000194143 0.00121036 0.0215484)
(0.00047731 0.00027168 0.0199622)
(0.000844957 -0.00270897 0.032863)
(-0.000588682 0.000684156 0.0295871)
(0.000885436 -0.00121077 0.0198069)
(0.000668405 -0.00103894 0.00807784)
(0.000188051 -0.000975884 0.0344882)
(0.0014145 -0.000125334 0.028881)
(0.000187873 0.00123476 0.030398)
(-0.000638392 -0.00184539 0.0242187)
(-0.00147835 -0.000252505 0.0299717)
(0.000302126 -0.000879149 0.018056)
(0.000339313 -0.000299999 0.0226487)
(0.00276609 -7.45498e-05 0.0352687)
(0.000394828 -0.00204522 0.0203634)
(-0.000744535 -0.00146561 0.0190573)
(0.000201462 -0.00101489 0.0238265)
(0.00147064 -0.000150576 0.0243073)
(0.000443006 -0.000319504 0.0390007)
(0.00011346 0.000440497 0.0225195)
(0.000196462 0.000813031 0.0362648)
(0.000609967 0.00197909 0.0491921)
(-1.13415e-05 -0.000556001 0.00912585)
(-0.000537629 -5.80753e-05 0.0159969)
(0.00129423 -2.19107e-05 0.0228644)
(0.00245976 -0.000346758 0.0253751)
(-0.00052113 -0.000923114 0.0248955)
(0.000845395 0.000850023 0.0270115)
(0.000735903 0.000919017 0.0176144)
(0.000420107 0.00139407 0.0198093)
(-0.000251143 -0.00083949 0.0307885)
(-0.000493024 0.00111127 0.0260692)
(-0.000444508 0.000144741 0.0336701)
(0.00113202 0.000579867 0.0309984)
(-0.000278957 0.00032368 0.0213636)
(0.00137797 -0.000582767 0.0189781)
(0.000680309 -0.000328304 0.0117291)
(-0.00147153 -0.000990235 0.0265131)
(-0.00102112 9.26173e-05 0.0135495)
(8.63725e-06 0.00396829 0.037319)
(0.00044494 0.000501432 0.0171866)
(0.00101863 0.000246495 0.0455566)
(-0.000548197 0.000829558 0.019119)
(-0.00128368 -0.00090603 0.0288315)
(0.0001455 -0.00295397 0.0406512)
(0.000673873 -0.00109071 0.0166369)
(0.00503607 0.00124434 0.0405398)
(0.000383102 0.000316138 0.00901605)
(-0.00352165 0.00315635 0.03592)
(0.00101326 0.0013492 0.021092)
(-0.000142529 0.00163192 0.0247769)
(-0.000562208 0.00100227 0.0157573)
(-0.000214658 0.00144646 0.0273445)
(0.00091746 0.000902028 0.0233297)
(0.000971124 0.00100292 0.0244379)
(0.000816952 -0.000719653 0.0119592)
(0.00171697 0.00107452 0.0261127)
(0.000949427 0.00228327 0.0258425)
(0.00312842 -0.000222179 0.0571717)
(-0.000681005 0.000235084 0.0159918)
(-0.00113655 0.00107536 0.0319341)
(0.000846998 0.000960808 0.0222584)
(0.000711229 0.00294891 0.0262292)
(0.000635802 0.000165187 0.0268395)
(0.00108833 -0.000653638 0.0171413)
(-0.000156467 -0.00148817 0.0238101)
(0.00103325 1.21153e-05 0.0245239)
(0.000314759 -0.000369958 0.0114022)
(0.000739102 -0.000257735 0.0209959)
(0.00331443 -0.000295475 0.0253326)
(0.000367844 -8.54946e-05 0.018591)
(-0.00213668 0.000133457 0.026486)
(-0.000542095 1.12051e-05 0.0408131)
(-0.000501808 -0.000499402 0.0218918)
(0.00067958 -0.000683093 0.017719)
(-0.000216292 -0.000682375 0.0142208)
(-0.00132702 -0.00308424 0.0171236)
(-0.000118654 -0.00232303 0.0115981)
(-0.000251861 -0.00240061 0.0167245)
(-7.8514e-05 -0.00116588 0.0150216)
(0.000433228 -0.00233312 0.0109476)
(-0.000344608 -0.000733198 0.0129432)
(0.00116358 -0.000704709 0.0194699)
(-0.00106122 -0.00077535 0.0125977)
(-0.00425673 -0.00137546 0.0213128)
(0.000132167 -0.00115105 0.0111364)
(0.000836685 -0.00309037 0.0217441)
(0.000300508 -0.00159954 0.0121788)
(0.00130964 -0.00253457 0.0134848)
(0.00119113 -0.00134296 0.0149092)
(0.000722316 0.00196742 0.0172106)
(-0.000553146 0.000352022 0.0116987)
(-0.00123631 0.0012535 0.0108183)
(-0.00228563 0.00127988 0.0204207)
(-0.000417399 8.82018e-05 0.0145277)
(-0.00147234 -0.000889851 0.0225035)
(0.00101558 -6.86691e-05 0.0119446)
(0.00236579 0.00029832 0.00844251)
(0.000980153 -0.00015374 0.00716756)
(-0.00179078 -0.000165901 0.0193989)
(-0.00316089 0.00054963 0.0163326)
(-0.00392968 0.00229377 0.0249663)
(-0.000647761 0.00102888 0.0104342)
(0.000130787 0.00105297 0.0152975)
(0.00155256 0.00211183 0.0108649)
(0.00243805 0.00338785 0.0177555)
(0.00117718 -0.00159672 0.0221906)
(-0.000150084 -0.000423194 0.00806658)
(-0.000463501 -0.000288599 0.00982021)
(-0.000547638 0.0010328 0.0153535)
(-0.000446718 0.000853357 0.0132677)
(0.0013915 0.00471974 0.0294778)
(0.00221049 0.00178735 0.0111622)
(0.000722267 0.000753577 0.00835462)
(0.000472715 0.00038879 0.0143157)
(-0.00044291 0.000818951 0.0129636)
(-0.000613863 -0.000581721 0.00992919)
(-0.000244048 0.00055874 0.00880218)
(-0.000262075 0.0015391 0.0223255)
(0.00172037 0.00188074 0.0151071)
(0.00235492 0.00154486 0.0149339)
(0.00100018 -0.000739353 0.0193871)
(0.000787792 -0.000660981 0.0324748)
(-0.00125754 -0.000217199 0.0127859)
(-0.000919096 -0.000455063 0.0167256)
(0.00135623 0.0017183 0.0153677)
(0.000449572 0.000659063 0.0120115)
(0.000856942 0.00108039 0.0132127)
(0.000902926 0.000405372 0.0147103)
(-0.000374834 -0.000420231 0.0177702)
(0.000484325 -0.00177776 0.0135524)
(-0.000731812 -0.00144806 0.0177138)
(0.00081343 -0.000343154 0.0112635)
(0.000197992 -0.000162851 0.00496238)
(-0.00187286 0.000732019 0.0375598)
(0.00115231 0.000342854 0.0141017)
(0.000153412 -0.000976297 0.012305)
(0.000317168 -0.000566434 0.0104635)
(0.000536414 -0.000467187 0.0214209)
(0.000402036 -0.000915153 0.0137973)
(-0.000166813 0.000307828 0.0188502)
(0.00039684 -0.000455508 0.0184657)
(0.000155775 0.000548134 0.0180755)
(0.000362705 7.62023e-05 0.0152224)
(9.14711e-05 -0.000192553 0.0102223)
(-0.000331375 0.000228934 0.018413)
(0.000548846 0.000444097 0.0163285)
(0.000588265 7.91327e-05 0.0195948)
(8.20466e-05 9.20201e-06 0.00956673)
(0.00379825 -0.00186168 0.0184944)
(0.000193737 7.0432e-05 0.00719033)
(5.06058e-05 -0.00019216 0.00894457)
(7.09803e-05 -0.000104262 0.0118606)
(2.81922e-05 0.000179207 0.0155401)
(0.000156149 5.83075e-06 0.0177185)
(0.000225745 -0.000108441 0.0117597)
(4.54919e-06 -0.000328616 0.012618)
(-2.50111e-05 -6.47383e-05 0.0133545)
(-1.89842e-05 6.79293e-05 0.0141704)
(0.000236331 -0.000313145 0.0187969)
(0.000151586 -0.000141712 0.00862084)
(-0.000445199 0.00054008 0.0123196)
(-0.0002441 -8.08533e-05 0.0162672)
(6.0583e-05 6.22461e-05 0.0221269)
(-0.000304517 -0.000440402 0.0127468)
(-0.000182213 -0.00016919 0.0144513)
(-2.87589e-06 -0.000166224 0.00654435)
(-0.000109318 6.04371e-06 0.0138083)
(-2.2567e-05 -0.00029021 0.00802196)
(-0.000270481 -0.000261353 0.0261197)
(-2.8544e-05 -5.66245e-05 0.0169832)
(-0.000143925 -0.000160604 0.0106901)
(-0.000229532 -0.000175386 0.0195823)
(-0.000172465 8.40911e-05 0.0124975)
(-0.000111309 -0.00066072 0.0234067)
(0.000163048 -0.000115662 0.0120494)
(6.41148e-05 -0.000581602 0.0179311)
(0.000233948 0.000483044 0.0136846)
(2.89254e-05 -0.00148248 0.0134845)
(0.000255799 -0.000372995 0.0121515)
(-6.28675e-05 -6.21439e-05 0.0131913)
(-7.34769e-05 -0.00019347 0.0120266)
(7.70571e-05 6.18222e-05 0.0130419)
(0.000104317 -4.47255e-05 0.00995471)
(-0.000327504 0.000100229 0.0150967)
(-0.000339731 -0.000345746 0.0212112)
(-0.000431879 -0.000660306 0.0429993)
(0.000838471 -0.000413 0.0164153)
(-8.58377e-05 -0.000119038 0.0118127)
(-0.000178344 -0.000262263 0.0154044)
(6.48659e-06 -0.000138813 0.0167771)
(0.000362973 -0.000299086 0.0148479)
(6.33027e-05 -3.41595e-06 0.0130872)
(-6.05792e-05 0.000102929 0.0161843)
(2.0017e-05 -5.65083e-05 0.0171398)
(0.000751012 -0.000491884 0.0144025)
(2.21651e-05 -0.000300535 0.00942328)
(-0.000668916 0.000248249 0.0148672)
(8.42109e-05 -2.57206e-05 0.0126548)
(-6.54771e-05 -0.000105275 0.0173622)
(0.000268801 -0.000381593 0.0204656)
(-0.000696578 -0.000630563 0.0110308)
(-0.000468574 -0.000275388 0.0250036)
(-4.52788e-05 0.000391839 0.0223141)
(0.000256877 0.000423158 0.0233334)
(0.0002191 0.000154467 0.0258006)
(0.000278702 0.000337716 0.0251766)
(0.000295586 -7.89324e-05 0.0196977)
(9.60733e-05 0.000306645 0.0172076)
(0.000377623 -0.000248876 0.0231542)
(-0.000799934 0.000182384 0.023602)
(1.57123e-05 0.000335395 0.0223557)
(0.000386212 0.000215769 0.0158797)
(0.000336068 -5.20409e-06 0.0251024)
(9.37906e-05 6.34359e-05 0.0174714)
(4.61697e-05 -0.00037984 0.0137217)
(-6.36105e-05 -0.000232313 0.0157958)
(-8.03143e-05 -0.000420892 0.0217312)
(-0.000768807 -0.000395157 0.0233293)
(-9.72529e-05 -0.000331526 0.0192724)
(3.61187e-05 -0.000449406 0.0171898)
(-2.79177e-06 -0.000364663 0.0194045)
(-0.000242772 -7.75111e-05 0.0197822)
(2.77692e-05 -0.000520015 0.0241257)
(5.56241e-05 -0.000476019 0.0129386)
(-0.00043521 -0.000770501 0.0194684)
(-0.00124108 -0.000204451 0.0224311)
(-0.000151406 -4.64381e-05 0.0230169)
(0.000185879 -0.000409256 0.0201345)
(0.000175062 -0.000297066 0.0204113)
(-0.000165331 -0.000499053 0.0121699)
(-0.000322295 -0.000161758 0.0166641)
(-0.000357557 -0.000531978 0.0112393)
(-6.37791e-05 -0.000714018 0.0265053)
(-0.000759117 -6.53421e-05 0.0225208)
(-0.000368409 0.000311975 0.0183056)
(-0.000307475 1.48034e-06 0.0230517)
(-0.000301376 -3.18598e-05 0.0196802)
(-0.00028236 -0.000424986 0.0261989)
(-0.000143791 -3.36869e-05 0.0213594)
(-0.0005845 -0.00039424 0.0217935)
(-0.000194373 -0.000319689 0.022318)
(-0.000550557 -0.00136075 0.0220045)
(-5.49826e-05 -0.000605614 0.0187438)
(-0.000246818 -0.000108222 0.0183077)
(-0.000321824 -0.00029635 0.017087)
(-0.000306599 -7.99164e-05 0.0200627)
(-0.000546285 -0.000166822 0.0161688)
(-0.00103421 -0.000108587 0.0207606)
(-0.000423608 0.000112232 0.023098)
(-0.000852023 -3.58598e-05 0.032327)
(0.000930288 -4.28141e-05 0.0225417)
(-7.08847e-05 1.10246e-05 0.0179919)
(-0.000391597 -0.000363143 0.0202245)
(-0.000291541 -0.000318435 0.021852)
(-0.000370632 -0.000396819 0.0201447)
(-0.000489383 -0.000199768 0.0201089)
(-0.000269684 0.000785549 0.0209795)
(-0.000679939 0.00127878 0.0248273)
(-1.30246e-05 0.000166618 0.0211626)
(-0.000544904 0.000156303 0.0167124)
(-0.000739488 0.000244679 0.0200739)
(-0.0004274 -0.00010392 0.0229776)
(-0.000596298 0.000136345 0.0229614)
(1.97879e-05 0.000300231 0.0241881)
(-4.17933e-05 0.000768011 0.0189264)
(0.000556849 0.000584979 0.00750761)
(0.00061387 0.000741627 0.00706755)
(0.0002299 0.000789504 0.00678951)
(9.08333e-05 0.000420256 0.0072327)
(0.000648414 0.00110209 0.0071686)
(0.000543221 0.000868035 0.00602877)
(-0.000407593 0.00108234 0.00570543)
(-0.000686742 0.000453616 0.00665429)
(-2.83004e-06 0.00063753 0.00684366)
(0.000681184 0.000749901 0.00660133)
(0.000218784 0.000825546 0.00541329)
(0.000190329 0.000797755 0.00650067)
(0.000756704 0.000771468 0.00565504)
(0.000308007 0.000177669 0.00496259)
(-0.000691926 0.000606175 0.00517)
(-0.00118911 0.000325115 0.00653921)
(0.000180285 0.000223817 0.00672885)
(0.000664232 0.000182801 0.00603544)
(0.000251535 5.31975e-05 0.00534162)
(2.39359e-05 0.000539091 0.00569855)
(3.63367e-05 0.000455841 0.00575236)
(0.000427056 5.95513e-05 0.00617343)
(-0.000166895 0.000197504 0.00495916)
(-0.00112191 -0.000113516 0.00641718)
(-0.000110707 2.19924e-05 0.0068235)
(0.000466718 4.57288e-05 0.00689106)
(0.000523394 -0.000362565 0.00605884)
(0.000509516 -6.95305e-05 0.00576746)
(0.000257518 -0.000458417 0.00500219)
(6.37198e-05 -0.000145163 0.00559443)
(-0.000830764 -0.000657727 0.00529079)
(-0.000937088 -0.000368161 0.00759323)
(0.000129995 -0.000172201 0.00669082)
(0.00028335 0.000110363 0.00610801)
(0.000103838 1.48981e-05 0.00658374)
(-0.000135771 -7.77566e-05 0.00610221)
(-0.000113401 -0.00062819 0.00707365)
(0.000145594 -0.000452371 0.0064497)
(-0.000463019 -0.000866771 0.00675257)
(-0.000398361 -0.0002562 0.00743405)
(0.000253402 -0.000920716 0.00701795)
(0.000680327 -0.000539396 0.00621457)
(0.000308637 3.72529e-06 0.00580809)
(-0.000197458 -0.00020763 0.00560787)
(-0.000226708 -0.000136628 0.00619502)
(-0.000332952 -0.000323455 0.00583414)
(-0.000801556 -0.000471555 0.0067932)
(-0.000429732 -0.000247616 0.00763918)
(0.000130811 -0.000370746 0.00919825)
(0.00121722 -0.00043757 0.00719058)
(0.000411073 -0.00029886 0.00588494)
(-0.000342027 -0.000539022 0.00613425)
(-0.00032918 -0.000667912 0.00661937)
(-0.000329764 -0.000887192 0.00652552)
(-0.000526239 -0.000835754 0.00685847)
(-0.000365324 -0.000409798 0.00711637)
(0.000229975 0.000358093 0.0076394)
(0.00075431 -0.000448528 0.00676879)
(0.000194245 -0.000545008 0.00569999)
(-0.000611349 -0.000296991 0.00626226)
(-0.000634688 -0.000602013 0.00695543)
(-0.000574193 -0.000678242 0.00725726)
(-0.000379819 -0.000968145 0.00775491)
(-0.000237324 -0.00104971 0.00685368)
(0.000163845 0.000330273 0.012521)
(0.000275819 0.000481786 0.0121746)
(0.000170938 0.000544464 0.0119099)
(8.41092e-05 0.000466653 0.0120376)
(0.000286466 0.00067507 0.0119592)
(0.000237234 0.000541565 0.0114699)
(-0.000126448 0.000505535 0.0114187)
(-0.00025709 8.25202e-05 0.0118749)
(1.69833e-05 0.000337789 0.0120373)
(0.000316137 0.000446969 0.0117653)
(0.000179795 0.000503701 0.0113005)
(0.000119255 0.000509779 0.0115952)
(0.000275212 0.000485698 0.0112388)
(8.75051e-05 0.000221924 0.0109241)
(-0.000344649 0.000269357 0.0110106)
(-0.000555771 2.92828e-05 0.0117304)
(0.000176601 0.000118823 0.0118799)
(0.000366922 0.000153633 0.0114889)
(0.000211155 0.00013769 0.0111147)
(6.44579e-05 0.000294587 0.0112075)
(1.15105e-05 0.00023564 0.0111435)
(4.93003e-05 5.41427e-05 0.0112387)
(-0.000263474 1.01936e-05 0.0108693)
(-0.000620315 -0.00013111 0.0116065)
(0.000106727 -2.55451e-06 0.0118603)
(0.000321281 8.13993e-06 0.0116515)
(0.000307842 -0.000119896 0.011287)
(0.00020504 -4.86853e-05 0.011066)
(3.45522e-05 -0.000203565 0.0108065)
(-0.000127061 -0.000153361 0.0109038)
(-0.000505987 -0.000349271 0.0108903)
(-0.000585548 -0.000267671 0.0118529)
(0.000198004 -0.000103328 0.0119027)
(0.000260216 -2.22202e-05 0.011504)
(0.000149501 -6.0239e-05 0.0114985)
(-3.68205e-05 -0.000127976 0.0112855)
(-0.000119642 -0.000338681 0.0115784)
(-0.000131314 -0.000330626 0.0114004)
(-0.000408676 -0.000458482 0.0115135)
(-0.00040775 -0.000262449 0.011908)
(0.000201713 -0.000334176 0.012086)
(0.000377844 -0.000254765 0.0115632)
(0.000197203 -0.00010648 0.0112365)
(-9.73142e-05 -0.000190782 0.0110876)
(-0.000213902 -0.000227084 0.0113288)
(-0.000314289 -0.000313224 0.0112469)
(-0.000506334 -0.000365723 0.0116156)
(-0.000384744 -0.000241527 0.0119721)
(7.84546e-05 -9.56706e-05 0.012809)
(0.00048919 -0.000214468 0.011993)
(0.000205168 -0.00022676 0.0113829)
(-0.000183191 -0.00034557 0.0113577)
(-0.000285769 -0.000447066 0.0115925)
(-0.000329857 -0.000530568 0.0115974)
(-0.00039315 -0.000500552 0.0118218)
(-0.000287079 -0.000304202 0.0119859)
(-4.83526e-05 0.000241508 0.0124169)
(0.000245001 -0.000162217 0.0119477)
(5.78784e-05 -0.000294078 0.0114323)
(-0.000335252 -0.000293964 0.0114974)
(-0.000424511 -0.00044719 0.0118687)
(-0.00039602 -0.000484343 0.0120175)
(-0.00029659 -0.000547648 0.0123074)
(-0.000140011 -0.00049854 0.012223)
(0.000194447 0.00033377 0.0111421)
(0.000220162 0.000340315 0.0110426)
(0.000161418 0.000338782 0.0109237)
(9.01819e-05 0.000313242 0.0109312)
(0.000108094 0.000353608 0.0108937)
(4.4238e-05 0.000298478 0.0107254)
(-0.000117631 0.000279892 0.0107089)
(-0.000208252 0.000131896 0.0108292)
(0.000101232 0.000283351 0.0109223)
(0.000196703 0.000298166 0.0108304)
(0.000146558 0.000301876 0.0106645)
(8.72586e-05 0.000293511 0.010703)
(8.29524e-05 0.000272784 0.0105992)
(-1.65356e-05 0.000180464 0.0105084)
(-0.000195107 0.000160252 0.0105565)
(-0.00028301 6.69436e-05 0.0108174)
(0.000147819 0.000135266 0.0108614)
(0.000209951 0.000145351 0.0107142)
(0.000148176 0.000139141 0.0105543)
(6.13531e-05 0.000165955 0.0105467)
(-9.66854e-08 0.000131699 0.0105205)
(-5.9351e-05 5.76457e-05 0.0105658)
(-0.000207644 1.34099e-05 0.0105238)
(-0.000312457 -4.01017e-05 0.0108208)
(0.000125817 2.86395e-05 0.0108647)
(0.000196166 2.8896e-05 0.0107468)
(0.000164432 -6.67356e-06 0.0105866)
(7.8711e-05 -6.4117e-06 0.0104857)
(-2.4029e-05 -6.63042e-05 0.0104242)
(-0.000130481 -8.86857e-05 0.0104794)
(-0.000282177 -0.00015319 0.0105609)
(-0.000313814 -0.00014416 0.0109102)
(0.000153627 -5.41105e-05 0.0109085)
(0.000179655 -3.73951e-05 0.0107378)
(0.000113312 -5.3917e-05 0.0106631)
(-2.04871e-06 -8.97606e-05 0.010583)
(-8.98552e-05 -0.000167983 0.0106695)
(-0.000156941 -0.000196771 0.0106692)
(-0.00027228 -0.000241308 0.0107754)
(-0.000275115 -0.0002013 0.0109856)
(0.000145142 -0.000142159 0.0109883)
(0.000201832 -0.000131961 0.0107763)
(0.000111955 -0.000107839 0.010618)
(-4.21547e-05 -0.000143447 0.010554)
(-0.000145342 -0.000186087 0.0106452)
(-0.000225151 -0.000231562 0.0106798)
(-0.000308587 -0.000262572 0.0108534)
(-0.000276639 -0.00023649 0.0110352)
(0.000107283 -9.14372e-05 0.0111954)
(0.000214769 -0.00013887 0.0109351)
(9.93801e-05 -0.000160213 0.0107091)
(-8.82818e-05 -0.000210717 0.0106799)
(-0.000191913 -0.00027051 0.0107833)
(-0.000252247 -0.000316718 0.0108397)
(-0.000295157 -0.000331856 0.0109744)
(-0.000258066 -0.000299538 0.0110776)
(6.12154e-05 -1.20981e-05 0.0110488)
(0.000130909 -0.000123768 0.0109233)
(3.61604e-05 -0.000175153 0.0107558)
(-0.000158448 -0.000197218 0.0107731)
(-0.000259042 -0.000270202 0.0109365)
(-0.00029368 -0.000307732 0.0110308)
(-0.00029532 -0.000353306 0.0111681)
(-0.000240865 -0.000377081 0.0111838)
(9.29076e-05 0.000201272 0.0111878)
(0.000111957 0.000204933 0.0111141)
(9.41257e-05 0.000203213 0.0110394)
(5.9289e-05 0.000193599 0.0110113)
(4.59304e-05 0.00019322 0.0109882)
(6.23679e-06 0.000160864 0.0109392)
(-5.77291e-05 0.000136754 0.0109535)
(-9.71471e-05 6.24259e-05 0.0110153)
(6.49634e-05 0.000169698 0.0110495)
(0.00010189 0.000176558 0.0109935)
(8.52683e-05 0.000175522 0.0109179)
(4.97296e-05 0.000167145 0.0108987)
(2.32024e-05 0.000150037 0.0108649)
(-3.0037e-05 0.000107798 0.0108431)
(-0.000102029 7.82045e-05 0.010877)
(-0.000136684 2.64801e-05 0.0109811)
(8.85837e-05 9.31243e-05 0.010996)
(0.000108989 9.96117e-05 0.0109261)
(8.22443e-05 9.66499e-05 0.0108508)
(3.41419e-05 9.44564e-05 0.0108249)
(-1.19452e-05 7.2474e-05 0.0108119)
(-6.32134e-05 3.47009e-05 0.0108287)
(-0.000130269 2.42894e-06 0.0108548)
(-0.000164566 -3.06394e-05 0.0109737)
(8.47347e-05 2.89087e-05 0.0109818)
(0.000104778 2.86829e-05 0.0109165)
(7.9863e-05 1.62602e-05 0.0108414)
(2.58273e-05 5.46184e-06 0.010795)
(-3.58522e-05 -2.35722e-05 0.0107804)
(-9.86275e-05 -4.88744e-05 0.0108083)
(-0.000163493 -7.85979e-05 0.0108687)
(-0.00017877 -8.91809e-05 0.0110002)
(9.2604e-05 -1.94095e-05 0.011004)
(9.81584e-05 -2.12271e-05 0.0109248)
(5.97077e-05 -3.30681e-05 0.0108665)
(-6.20355e-06 -5.41059e-05 0.0108308)
(-6.79733e-05 -8.87059e-05 0.0108535)
(-0.000120887 -0.000112542 0.0108784)
(-0.000172761 -0.000133993 0.0109455)
(-0.00017705 -0.000131446 0.0110476)
(7.81035e-05 -5.30233e-05 0.0110415)
(9.26981e-05 -6.43799e-05 0.0109505)
(4.73103e-05 -7.19561e-05 0.0108745)
(-3.13399e-05 -9.41502e-05 0.0108438)
(-9.7897e-05 -0.000122467 0.0108768)
(-0.000149437 -0.000147085 0.0109156)
(-0.000188244 -0.000163032 0.0110014)
(-0.000180168 -0.000158207 0.0110967)
(5.31393e-05 -4.16299e-05 0.0111134)
(7.93401e-05 -7.43053e-05 0.0110158)
(2.93642e-05 -9.76841e-05 0.0109264)
(-5.86874e-05 -0.000126392 0.0109066)
(-0.000124344 -0.000159338 0.0109506)
(-0.000166047 -0.000182932 0.0109993)
(-0.000188286 -0.000193257 0.0110812)
(-0.000171422 -0.00018473 0.0111589)
(1.63978e-05 -1.70488e-05 0.0110943)
(3.60427e-05 -6.90502e-05 0.0110337)
(-5.88798e-06 -0.000102377 0.0109653)
(-9.44148e-05 -0.000124669 0.0109637)
(-0.000155622 -0.00016047 0.011033)
(-0.000183893 -0.000180318 0.0110977)
(-0.000188945 -0.000195145 0.0111865)
(-0.000160187 -0.000201318 0.011253)
(4.66362e-05 0.000119988 0.0111363)
(5.71219e-05 0.000119363 0.0111034)
(5.06664e-05 0.000116724 0.0110679)
(3.32754e-05 0.000110632 0.0110471)
(1.90972e-05 0.000103975 0.0110334)
(-4.0906e-06 8.52347e-05 0.0110171)
(-3.21049e-05 6.84559e-05 0.0110253)
(-5.10179e-05 3.3956e-05 0.0110472)
(3.70737e-05 0.000101679 0.011069)
(5.17469e-05 0.00010281 0.011042)
(4.44912e-05 9.98111e-05 0.011008)
(2.46622e-05 9.25693e-05 0.0109902)
(3.69281e-06 8.03655e-05 0.0109772)
(-2.50253e-05 5.84393e-05 0.0109728)
(-5.57507e-05 3.84437e-05 0.0109911)
(-7.09173e-05 1.17025e-05 0.0110314)
(4.64853e-05 6.19893e-05 0.0110381)
(5.32277e-05 6.35552e-05 0.0110052)
(4.0059e-05 5.99928e-05 0.0109705)
(1.40446e-05 5.32355e-05 0.0109528)
(-1.47184e-05 3.91433e-05 0.010947)
(-4.55352e-05 1.84947e-05 0.010956)
(-7.57412e-05 -1.3893e-06 0.01098)
(-8.90575e-05 -2.11889e-05 0.0110302)
(4.51172e-05 2.52032e-05 0.0110259)
(4.99479e-05 2.34277e-05 0.0109928)
(3.43655e-05 1.63572e-05 0.0109582)
(4.07207e-06 6.76182e-06 0.0109377)
(-3.07764e-05 -9.65259e-06 0.0109353)
(-6.50917e-05 -2.66133e-05 0.0109521)
(-9.40113e-05 -4.34372e-05 0.0109875)