/*--------------------------------*- C++ -*----------------------------------*\
| =========                 |                                                 |
| \\      /  F ield         | OpenFOAM: The Open Source CFD Toolbox           |
|  \\    /   O peration     | Version:  2506                                  |
|   \\  /    A nd           | Website:  www.openfoam.com                      |
|    \\/     M anipulation  |                                                 |
\*---------------------------------------------------------------------------*/
FoamFile
{
    version     2.0;
    format      ascii;
    arch        "LSB;label=32;scalar=64";
    class       volVectorField;
    location    "0.1";
    object      U;
}
// * * * * * * * * * * * * * * * * * * * * * * * * * * * * * * * * * * * * * //

dimensions      [0 1 -1 0 0 0 0];

internalField   nonuniform List<vector> 
4608
(
(-0.00112596 -0.000417478 0.0189777)
(-0.000423683 0.00286955 0.01859)
(-0.00101749 -0.000502808 0.0152243)
(-0.000163737 0.000787138 0.0130022)
(0.00149078 3.13112e-05 0.0197298)
(-0.000766622 -0.000212403 0.0307874)
(-0.000880934 0.000703534 0.0164727)
(0.00392093 -0.00134516 0.0142338)
(0.00246379 -7.43549e-05 0.0145355)
(0.000512432 -0.000181931 0.0230486)
(-0.00217175 -0.00168748 0.022688)
(-0.000144474 -0.00081438 0.0142878)
(0.00049753 -0.000716705 0.0244514)
(-0.0003782 -0.00176802 0.012898)
(-0.000218898 0.000552572 0.0167434)
(0.000318773 0.000346111 0.00900493)
(0.00364358 0.000329695 0.019761)
(-0.00123056 0.00065237 0.0119011)
(-0.00109848 -2.21636e-05 0.0102153)
(0.000862738 0.00117034 0.0130138)
(0.000488433 -0.000104889 0.0156359)
(0.000723523 -0.000474182 0.0171178)
(0.000811143 -0.000624051 0.0078761)
(-0.0016903 0.0024627 0.023368)
(0.0013974 -0.000352068 0.0134333)
(-0.000244909 -0.00226694 0.0328759)
(-0.000601878 0.000934788 0.0148301)
(-0.000170846 0.00434021 0.0239149)
(-0.00168193 0.00170174 0.0176526)
(-0.000782858 0.00255669 0.00945553)
(0.0011078 -0.000684899 0.0128782)
(0.00174295 -0.00131161 0.00671997)
(0.00153972 -0.00179037 0.0197901)
(-0.000229674 -0.00135385 0.00964992)
(0.000761176 -0.000320093 0.00597927)
(0.00139142 -0.00139911 0.0130526)
(0.00119472 0.000452792 0.0102522)
(-0.00128883 0.000954461 0.00884492)
(-0.00856181 0.000831822 0.020614)
(-0.000950292 -0.00072531 0.0107494)
(0.000682271 9.50767e-05 0.0179854)
(-1.68773e-05 0.00109919 0.00932849)
(-0.000238475 0.00126395 0.0193671)
(0.000739457 -0.00213178 0.0141597)
(0.00205525 0.000375301 0.0218225)
(-0.00127807 -0.00246962 0.0134925)
(-0.000693633 0.000749806 0.00929632)
(0.00138407 0.00260452 0.0220275)
(0.00172297 0.000157973 0.0185218)
(0.00132835 -0.000418543 0.0152077)
(-0.00254893 -0.00092228 0.0145999)
(9.05863e-05 -0.000802079 0.00765601)
(0.00316846 -0.00175324 0.031941)
(0.000168351 0.00119155 0.0108375)
(-0.000258934 0.000947685 0.0102424)
(-0.00178029 -0.000403138 0.0182221)
(-0.00135831 -0.00078925 0.0096144)
(0.00114864 -0.001158 0.00772789)
(0.000377017 -0.00237934 0.0145464)
(0.00111862 -0.00161519 0.0163494)
(0.00205315 -0.000770412 0.00674692)
(0.000406725 -0.000480657 0.00855112)
(-0.00323674 -0.00282056 0.0163857)
(-0.0052855 -0.00632609 0.0289608)
(-0.00039253 -0.00279253 0.0358077)
(-0.000326635 -0.0021455 0.059636)
(0.000652563 -0.000200319 0.031285)
(-0.00118955 -0.00193871 0.0583735)
(-0.0010613 -0.00127753 0.0179181)
(0.00242183 -0.000939069 0.0568542)
(0.00306924 -0.00105193 0.0277161)
(0.00229329 -0.000554694 0.0448821)
(-0.0027085 -0.00215827 0.0536285)
(-0.00188841 -0.000204595 0.0426758)
(-0.000299067 0.000668805 0.0538021)
(-0.00036483 0.000463074 0.0434511)
(0.00200423 -3.67108e-05 0.050733)
(0.00320102 0.00201815 0.0464381)
(0.0023833 0.00168763 0.0516914)
(0.00174409 0.000182088 0.051624)
(-0.000413206 -0.00117449 0.0504219)
(-0.000404794 -0.00291382 0.0555661)
(-0.000172145 -0.000251414 0.0389333)
(-0.000558915 -0.000962865 0.0390217)
(0.000443147 0.00103827 0.043782)
(0.00308995 0.00115827 0.0386317)
(0.00157193 0.00134518 0.061968)
(0.00225682 0.00142316 0.0426995)
(-0.00446352 -9.88499e-05 0.0520862)
(-0.00241788 4.90464e-05 0.0474331)
(0.00323305 0.000993918 0.0443627)
(0.00162807 1.5554e-05 0.0480663)
(0.00291198 0.00119685 0.0454011)
(0.00436684 0.000455951 0.0511096)
(0.00281789 -0.000377681 0.044178)
(0.00139209 0.00556676 0.0675681)
(0.000515366 0.000617562 0.0464692)
(0.00216757 0.00435659 0.049454)
(0.000338462 0.0012786 0.0582316)
(-0.000715773 0.00181371 0.0659814)
(0.00023699 -0.00154256 0.052662)
(0.00188005 -0.000489761 0.0779717)
(0.00536766 -0.00105234 0.0319817)
(0.00298415 -0.00164582 0.0333208)
(-0.000473218 0.00203536 0.0386423)
(-0.000269288 -8.95891e-05 0.0507496)
(-0.000329882 -0.000978602 0.0463749)
(-0.000529085 1.46276e-05 0.0372596)
(0.000674772 -0.00282597 0.0417768)
(0.0060274 0.000580046 0.0467271)
(0.00152923 0.000292274 0.0521842)
(0.000938106 -0.0039952 0.042769)
(-0.00105017 0.00287124 0.0333097)
(-0.000249874 0.00350242 0.0739613)
(7.91144e-05 0.00173993 0.0547594)
(-0.0022558 0.00062466 0.050647)
(0.000560703 0.00349519 0.0372723)
(0.00482142 0.00116321 0.0463696)
(0.00145375 3.66371e-05 0.0637608)
(0.00321445 0.000722766 0.0412726)
(0.0012902 -0.000600498 0.0508516)
(3.57727e-05 0.0010013 0.0486644)
(-0.00159784 0.00141067 0.0544721)
(6.46333e-06 0.00188436 0.0402674)
(0.00230294 0.00331087 0.0574008)
(9.1563e-05 0.000316399 0.0785493)
(-0.0022494 0.00124319 0.0602329)
(0.00362069 0.00479802 0.0365289)
(0.00292797 0.000368425 0.0434701)
(-0.000885503 -0.000123435 0.0453584)
(1.2838e-05 0.00305883 0.039204)
(0.000556078 0.000614281 0.0380695)
(9.66454e-05 0.0021195 0.0423478)
(-6.27909e-05 -0.000273264 0.0556159)
(0.000254426 0.000392906 0.0381567)
(-0.0040516 0.00106157 0.0362663)
(-0.000155777 -0.000403533 0.0345177)
(-0.000791138 -0.00302163 0.0557692)
(-0.00111952 -0.000120393 0.0476909)
(0.00151794 0.000722358 0.0349076)
(0.00112769 -0.000309609 0.0456429)
(0.000388362 0.00115244 0.0443789)
(0.000593843 -0.00137158 0.0400291)
(0.00024359 0.0015781 0.0372526)
(-0.000733166 3.42436e-05 0.0409227)
(0.000537579 -0.00365478 0.0508076)
(0.000810309 -0.00191337 0.0358968)
(0.000142825 -0.000912454 0.0452188)
(0.000853517 0.000218209 0.0317375)
(0.000561881 0.000664844 0.0437681)
(0.00163664 0.000781375 0.0394288)
(0.00356338 -0.000201916 0.0410375)
(-0.0025201 -0.00147568 0.0476007)
(-0.00144388 -0.000132439 0.0287652)
(0.00101298 3.43715e-05 0.0300205)
(0.00250095 -0.00215352 0.0535809)
(0.00190965 -0.00190357 0.0436718)
(0.00168015 -0.004214 0.0304956)
(-0.00257703 0.002418 0.0482002)
(-0.00154275 0.00223996 0.0342433)
(-6.40666e-05 0.000558885 0.0205064)
(0.00148383 0.000627096 0.049298)
(0.000233743 0.00132129 0.0415226)
(-0.00273463 0.00166532 0.0353101)
(-0.00592315 -0.00167121 0.0449505)
(0.00342353 -0.00191578 0.0282827)
(0.0102974 -0.00168516 0.0463689)
(-0.000979243 0.00393732 0.0699517)
(-0.000677588 0.00188917 0.0386104)
(-0.000777473 -0.00333778 0.0383186)
(0.00255559 -0.00180404 0.0383536)
(2.9055e-05 0.00217382 0.0431329)
(-0.00138479 0.000829601 0.033442)
(0.00143393 0.00386158 0.0384763)
(0.00305319 -0.00330977 0.0482443)
(-0.000410386 0.000270356 0.0359561)
(-0.0020012 -0.000775744 0.0446217)
(0.000238985 0.000621109 0.0300078)
(0.00378918 0.000122927 0.0305492)
(0.00104982 0.000194081 0.0315126)
(-0.00017096 -0.000126271 0.0328083)
(0.000774297 -0.000543561 0.0377031)
(0.00372942 0.00118884 0.0341085)
(0.00430883 0.00278249 0.0382028)
(0.00151666 0.00201606 0.0351543)
(-0.000454032 0.00497112 0.0593724)
(0.00218752 0.00483016 0.0456332)
(-0.000169303 0.00036818 0.0281988)
(-0.00324071 0.00323887 0.0567561)
(0.00224651 0.000559931 0.0506988)
(0.00535936 0.00408012 0.0384584)
(0.00447403 0.00234996 0.0416323)
(-0.00145475 0.0014166 0.0572688)
(0.000722354 -0.00198633 0.0644789)
(0.00128477 0.00245215 0.0411753)
(0.000153069 0.00755979 0.0599249)
(-0.00126736 0.000695267 0.0315032)
(-0.00131461 0.000375102 0.0353755)
(0.0022365 0.00161908 0.0428516)
(0.000135184 0.00274971 0.0461993)
(0.000255728 -0.00105762 0.0499445)
(0.00203873 -0.000460678 0.0439984)
(0.0056306 -0.00112104 0.0474117)
(-0.00117575 -0.000522782 0.0369805)
(-0.00615281 0.000367785 0.0521564)
(-0.000492272 0.00317193 0.0397696)
(0.00191593 0.00174343 0.0537736)
(-0.000159136 0.00188388 0.0483081)
(0.00117358 -0.0010765 0.0520965)
(0.00187136 0.00088378 0.0464674)
(0.00174594 -0.00223623 0.0448209)
(0.00125157 -0.00555984 0.0429221)
(0.0015382 0.000493711 0.0454862)
(5.60331e-06 0.00239269 0.0396368)
(0.00100892 0.000931468 0.0441839)
(0.000336095 0.00158838 0.0477934)
(0.00453863 0.00140891 0.0657813)
(0.00178006 0.000687658 0.038672)
(-0.000121451 0.000886971 0.0398638)
(0.00123055 0.00031748 0.0352362)
(0.00447804 0.000952111 0.0490567)
(-0.000821579 -0.000469726 0.0629745)
(-0.00026262 0.00032243 0.0548028)
(0.00196728 -0.00214874 0.0468766)
(0.00191906 0.00263413 0.0482244)
(0.00118974 0.000693107 0.0524094)
(0.00148937 0.00199824 0.0659402)
(0.00227357 0.0039528 0.063635)
(-8.59514e-05 0.00104862 0.0375204)
(-0.00179393 -0.00126371 0.048932)
(-0.00218201 -0.000260672 0.0463058)
(0.000825905 -0.000716082 0.0608878)
(0.000429681 0.00235008 0.0559652)
(0.00157981 0.000588794 0.038506)
(0.00136073 0.00106088 0.0485159)
(0.00189745 0.00118039 0.0480964)
(-2.40565e-05 -0.000194261 0.0452725)
(-0.00260601 1.17587e-06 0.0497436)
(0.000294667 0.000469588 0.0410201)
(0.00103396 0.00322555 0.0411474)
(0.00169977 -0.00060619 0.0365957)
(0.000929593 -0.00335287 0.0542097)
(0.00181332 -0.00180718 0.0474803)
(0.00147123 0.00017556 0.0614098)
(0.000632714 -0.00304038 0.0352201)
(-0.00078117 -0.00136257 0.0542912)
(0.00221589 0.00276828 0.0494327)
(0.00091546 0.00118268 0.0428066)
(-0.00127464 -0.0020499 0.0637682)
(0.000555821 8.41419e-05 0.037213)
(0.00533263 -0.00108814 0.0523618)
(-0.000592129 -0.00248299 0.0463317)
(0.000617476 -0.00125674 0.0293147)
(0.00527676 0.001865 0.0531883)
(0.00493668 0.00374913 0.0600799)
(0.00238459 -0.00123094 0.0514597)
(-0.00222305 0.00213476 0.0582578)
(0.000596442 -0.000787127 0.0501092)
(0.00224179 -0.00125379 0.0492206)
(0.000532021 0.00150816 0.0422916)
(-0.00207314 -0.00276501 0.0560003)
(-0.00136061 -0.000653917 0.0453591)
(-0.000641541 -0.000246801 0.0426761)
(0.000607644 0.00115392 0.0512139)
(0.00119669 0.000644756 0.046367)
(-0.000963467 0.000980565 0.0456461)
(0.000315146 0.000561238 0.0694388)
(-0.00251086 -0.00128708 0.0754105)
(-0.000472232 -0.000970588 0.0317355)
(-0.000251298 -0.000918026 0.0458461)
(0.00153706 0.000263771 0.0430477)
(0.00531424 0.000403878 0.0508859)
(0.000621482 -0.00364044 0.0429716)
(0.00038994 0.0023224 0.0537235)
(0.00120796 0.00116741 0.0325339)
(-0.000682157 0.00096384 0.0410533)
(-0.00160667 -0.000637704 0.045631)
(6.29296e-05 0.000184741 0.0530117)
(0.000333246 -3.85436e-06 0.0415698)
(0.00155442 0.0010302 0.0584905)
(0.00321591 -0.0006809 0.041962)
(0.00386599 -0.00091035 0.0389473)
(0.000803582 -0.000625429 0.0300626)
(-0.00147581 -0.00196241 0.0386387)
(-0.004329 0.00094794 0.0471123)
(-0.000871104 0.00199901 0.063658)
(0.00101253 0.00061393 0.0358142)
(0.00317451 0.000755262 0.0597354)
(0.00159353 0.00131372 0.0401361)
(-0.00154312 -0.00322467 0.0538724)
(-0.000798917 -0.00514095 0.0617041)
(0.00140438 -0.0039403 0.0453913)
(0.00350594 0.00214153 0.0649606)
(-0.000240447 0.000426622 0.0298217)
(-0.00111969 0.00466483 0.0647411)
(0.000828985 0.00110437 0.0338629)
(0.0024286 -0.000321071 0.0402457)
(0.000342936 0.000349655 0.0430864)
(-0.00154953 0.00189941 0.0517072)
(0.00174696 0.000519283 0.0421448)
(0.00215813 0.00152799 0.0555987)
(0.000613442 -0.000442583 0.0355857)
(0.00182802 0.000500817 0.0463355)
(0.000431516 0.00174665 0.0502987)
(0.00258588 -0.000594209 0.0762676)
(7.36572e-05 -1.83963e-05 0.0414366)
(-0.00116709 -0.000446818 0.0560531)
(0.00136124 0.00120989 0.0445821)
(0.00103638 0.00137784 0.0480342)
(-0.000857035 9.26487e-05 0.0539613)
(0.000919093 -0.000386896 0.0361718)
(0.00112357 -0.0017274 0.0579138)
(0.0027626 -0.000708918 0.0500972)
(0.000152782 -0.000494883 0.0348844)
(-5.1124e-05 -0.000755768 0.0353007)
(0.00461827 -0.000343341 0.0569744)
(0.000941466 -0.000739042 0.0487106)
(-0.000927943 -0.000379655 0.0376896)
(-6.81482e-05 0.000516157 0.0591534)
(-0.000108629 -0.000719776 0.0493305)
(0.00300559 -0.00259729 0.0394705)
(-0.000837436 0.000297821 0.0347089)
(-0.00230469 -0.00364066 0.0313717)
(-0.00286658 -0.0179893 0.0605616)
(-1.89087e-05 -0.00288971 0.0291589)
(-0.00100051 -0.00446575 0.0408958)
(0.00156295 -0.00484163 0.032619)
(-0.000398372 -0.00200413 0.033282)
(0.00571334 -0.00321387 0.055666)
(-0.00265224 -0.00191796 0.0334461)
(-0.00504959 -0.00261149 0.035195)
(0.00129869 -0.00237969 0.0315532)
(0.00117248 -0.00360709 0.0357023)
(0.000199807 -0.00140202 0.0270374)
(0.00194286 -0.00412858 0.0404285)
(0.00291851 -0.00308412 0.0384877)
(0.0024564 0.00469265 0.0473889)
(-0.00143277 -0.000676453 0.0299045)
(-0.00405912 0.00342747 0.0393933)
(-0.00234786 0.00252768 0.047517)
(-0.000599766 -0.00267202 0.0354024)
(-0.000681945 -0.00199322 0.0403458)
(0.00119799 0.000736006 0.0416536)
(0.00274632 6.52389e-05 0.0304504)
(0.00133668 -0.000400119 0.0288529)
(-0.00469648 0.00248494 0.0482293)
(-0.00330484 -0.000148584 0.039768)
(-0.00714949 0.00148011 0.049611)
(-0.00136422 -0.000120774 0.029403)
(0.00208694 0.00178868 0.0459787)
(0.00186096 0.00192135 0.0347671)
(0.00403711 0.00805012 0.0517065)
(0.00605637 -0.00387242 0.049159)
(-0.000602063 -0.000218972 0.0267533)
(-0.00406497 -0.00118702 0.0387133)
(-0.000996463 0.000914748 0.036922)
(-0.000381585 0.00391629 0.0430774)
(0.00103279 0.00488081 0.0442073)
(0.00351065 0.00372463 0.0372201)
(0.00325094 0.005701 0.0392385)
(0.0015162 0.00155253 0.0404126)
(-0.00117203 0.000481304 0.0348337)
(-0.00150479 0.000461452 0.0320135)
(-0.0002332 0.00141013 0.0306987)
(-0.000349974 0.0025812 0.0398132)
(0.0023568 0.00264185 0.0376841)
(0.00534411 0.00530794 0.0415048)
(0.00129901 0.000275128 0.0379419)
(0.00192344 4.02467e-05 0.0478995)
(-0.00228077 0.000452022 0.0347776)
(-0.00332656 0.00245615 0.0486281)
(0.000756757 0.00283657 0.037872)
(0.000338571 0.00229603 0.0389554)
(0.00261879 0.00292257 0.0362427)
(0.000637163 0.000529858 0.0324418)
(-0.000857944 -0.00219251 0.0407372)
(0.00109922 -0.00299746 0.0398508)
(0.000488204 -0.00229339 0.0353999)
(0.000623093 0.000292937 0.0322489)
(0.000199757 0.000244837 0.028711)
(-0.000419028 0.00264866 0.0433081)
(-0.00077172 0.000989796 0.0363244)
(-0.00237127 -0.00198563 0.0400404)
(-0.000508243 -5.99839e-05 0.0335686)
(0.000294904 -3.52249e-05 0.0407641)
(0.00086849 -0.0015474 0.0308534)
(0.00140702 0.00208139 0.0328687)
(0.0013773 -0.00012572 0.0331678)
(0.00137683 0.000357864 0.0322488)
(-0.00018057 -0.000651461 0.0269942)
(-0.000463303 0.0011209 0.0285666)
(-0.000843035 0.000304649 0.0332683)
(-0.000210034 -0.000675536 0.027922)
(0.00286521 5.8178e-05 0.0345265)
(0.000679573 0.000163211 0.0268939)
(0.000154706 0.000387784 0.0309945)
(-0.000343325 -0.000218695 0.028102)
(0.00021814 -0.000554943 0.0264686)
(-0.000467792 0.000672894 0.0253964)
(-0.00134574 0.000758286 0.0301278)
(-0.000428672 -0.000982963 0.0361751)
(0.00138334 -0.000212232 0.0289811)
(0.00108619 -0.000996741 0.0265878)
(-0.000254073 -0.000908609 0.0250697)
(-0.00147554 0.00110606 0.0299084)
(0.00172173 -0.000567217 0.0353662)
(-0.000130252 -0.00063547 0.0235823)
(-0.00227199 0.000318799 0.0293169)
(-1.424e-05 0.000176836 0.0290931)
(0.00106398 -0.000852295 0.032948)
(1.27011e-05 -0.00175587 0.0330797)
(0.00236006 -0.00248688 0.0343527)
(8.10275e-06 -0.000493658 0.0231167)
(-0.00145266 -0.000515442 0.0309341)
(-0.000732669 -0.00164359 0.0282363)
(-0.00113349 0.000581063 0.0336684)
(-0.000711811 0.000360266 0.032817)
(-0.000197988 -4.87854e-05 0.0290762)
(2.73003e-05 -8.20541e-05 0.033536)
(-0.000788221 -2.05388e-05 0.0305378)
(0.000125289 -0.00392524 0.0391321)
(0.000205803 -0.000773764 0.0319574)
(-0.00140606 -0.00154459 0.0312127)
(-0.000372935 -0.000234361 0.0335865)
(-0.000184908 4.00539e-05 0.0270316)
(-2.8954e-05 0.00020232 0.0280127)
(-0.000720353 0.000102026 0.0291245)
(-0.000874151 -0.000346964 0.0283519)
(-5.19465e-05 0.000819759 0.0347032)
(-7.69652e-06 -0.000854012 0.0250853)
(-0.0022847 -1.29668e-05 0.0325295)
(0.00178779 -0.000362194 0.0319125)
(-0.00183864 -0.00187411 0.0469902)
(0.000850764 0.000253088 0.0309767)
(-0.000707922 -0.000178064 0.0302171)
(-0.000793855 -0.00138692 0.0329303)
(-0.000625063 -0.000394564 0.0297078)
(-0.00103689 -0.00143239 0.0316463)
(-0.000261238 0.000624444 0.0262037)
(-0.000484251 -0.000762261 0.0296092)
(-0.000242286 0.00125329 0.0352323)
(0.000391699 0.000144127 0.0279706)
(-9.69252e-05 -0.000551173 0.0257914)
(-0.00088968 0.000137234 0.0298817)
(-0.000992269 -0.00149008 0.0308848)
(-0.00134558 -0.00151202 0.0287499)
(-0.000629481 -0.00080988 0.0331934)
(-6.49824e-05 -0.00081773 0.0280235)
(-0.00318929 -0.00541708 0.0422999)
(-0.00478698 -0.00695151 0.0332968)
(-0.0055416 -0.0120734 0.0219591)
(-0.00506169 -0.0141782 0.0180978)
(-0.0040113 -0.0168059 0.0161219)
(-0.000526527 -0.0172666 -0.0157571)
(0.00572747 -0.0166799 -0.00325444)
(0.00804355 -0.00801457 0.02278)
(-0.00453729 -0.00387997 0.0120941)
(-0.00968428 -0.00557406 0.0246644)
(-0.0103518 -0.0108142 -0.0432194)
(-0.00782647 -0.0133612 -0.0353905)
(-0.00458597 -0.013409 -0.0496377)
(-0.000343994 -0.0108659 -0.0722078)
(0.00949936 -0.0127853 -0.0753473)
(0.0157289 -0.00621489 0.00186251)
(-0.00500192 -0.00125288 0.0265491)
(-0.0120978 -0.000593616 0.00995803)
(-0.0132228 0.000392985 -0.0571531)
(-0.00920531 -0.00274811 -0.0750566)
(-0.00172704 -0.00646331 -0.0552015)
(-0.00013944 0.000878185 -0.0314979)
(0.00896306 0.00112019 -0.112785)
(0.0194191 0.00131194 -0.0134546)
(-0.00325755 0.000395849 0.0266889)
(-0.00822438 0.00227475 0.0264898)
(-0.0116139 0.00699866 -0.0013984)
(-0.013642 0.00838153 -0.028238)
(-0.00100804 0.00885956 -0.149241)
(0.00574079 0.00380975 -0.0334407)
(0.00724343 0.00751289 -0.0367165)
(0.0139611 0.00615844 0.00827669)
(-0.00246821 0.00125848 0.0170328)
(-0.0049034 0.002341 0.0163762)
(-0.00684096 0.00600955 0.00911872)
(-0.00731536 0.0109239 -0.00387152)
(-0.00277141 0.0176579 0.00325094)
(0.00385124 0.00916121 -0.0258321)
(0.00866325 0.0115809 -0.00291033)
(0.008827 0.0065366 0.0258232)
(-0.00286845 0.00230608 0.00292161)
(-0.0036069 0.0028326 0.00879695)
(-0.00414727 0.00414793 -0.00386347)
(-0.00302468 0.00749806 -0.00803445)
(-0.00118818 0.0110637 0.00883835)
(0.00278376 0.0107229 -0.0222345)
(0.00606426 0.0084698 0.0153808)
(0.00594162 0.00531412 0.033354)
(-0.00309001 0.00285957 0.0430203)
(-0.00297368 0.00337728 0.0252615)
(-0.00235251 0.00409547 0.00112598)
(-0.000677641 0.00577344 0.0124571)
(0.000455042 0.00756847 0.00461578)
(0.00181152 0.00825781 0.0140399)
(0.00345336 0.00614362 0.0095049)
(0.00424931 0.00417511 0.018346)
(-0.00265585 0.00279225 0.0274479)
(-0.00275878 0.00384992 0.00803841)
(-0.00176174 0.00420614 -0.00587878)
(0.000404143 0.00421026 0.0221301)
(0.0011629 0.0049199 0.0200606)
(0.00105784 0.00490611 0.0270625)
(0.00196246 0.00432642 0.0265532)
(0.0027104 0.00338036 0.0176104)
(0.000606749 0.00256368 0.025775)
(0.00269155 0.00322472 0.0256978)
(0.00308037 0.00700811 0.0258169)
(0.00292927 0.00801578 0.0266126)
(0.00376905 0.0111715 0.0268006)
(0.00136031 0.0110621 0.0232528)
(-0.00377921 0.0110194 0.0235616)
(-0.00443705 0.00424339 0.0250428)
(0.000533936 0.00217034 0.0229461)
(0.00562902 0.0033113 0.0255009)
(0.00659201 0.00742009 0.0237812)
(0.00540192 0.00854888 0.0255188)
(0.00466722 0.010146 0.0250196)
(0.000583328 0.00519049 0.022536)
(-0.00796749 0.00896665 0.0215512)
(-0.0113781 0.00370925 0.0242076)
(0.00101036 -3.3543e-05 0.0247173)
(0.00754014 -0.000243741 0.0250415)
(0.0085562 -0.00133217 0.023843)
(0.00558674 0.00126092 0.0256917)
(0.00019627 0.00423727 0.0267943)
(3.61729e-05 -0.00321273 0.0260424)
(-0.00549411 -0.00238331 0.0212533)
(-0.0129943 -0.00126883 0.0231912)
(-0.000767878 -9.92098e-05 0.025044)
(0.00415461 -0.00149186 0.0267122)
(0.00781269 -0.00567754 0.0262382)
(0.0110137 -0.00598716 0.0264905)
(0.000267394 -0.00722313 0.0239955)
(-0.00581661 -0.00474574 0.0255556)
(-0.00612108 -0.00952567 0.0230784)
(-0.00899643 -0.00480664 0.0242536)
(-0.00102463 1.92892e-05 0.0230699)
(0.00189603 -0.000352849 0.0240788)
(0.00379138 -0.00243917 0.0249551)
(0.00426904 -0.00586812 0.0252481)
(0.00190345 -0.0122676 0.0271348)
(-0.00193255 -0.0054923 0.0244516)
(-0.00579141 -0.00799497 0.0237711)
(-0.00560571 -0.00375571 0.0253417)
(0.000174462 -0.00184816 0.021443)
(0.00171567 -0.00116761 0.0221514)
(0.00226695 -0.00140241 0.0216222)
(0.000986668 -0.00368067 0.0223076)
(0.00096711 -0.00579136 0.0244012)
(-0.00141097 -0.00587639 0.0221407)
(-0.00462796 -0.00475824 0.0237355)
(-0.00314585 -0.00190727 0.0251711)
(0.000268983 -0.00119462 0.0256344)
(0.00235713 -0.00056989 0.0233561)
(0.00131076 -0.000995227 0.0207915)
(-0.000225059 -0.00274347 0.0223856)
(-0.000210884 -0.00347483 0.0229192)
(-0.000913584 -0.00486429 0.023126)
(-0.00210632 -0.00311231 0.0220805)
(-0.00196444 -0.00107778 0.0225011)
(0.00104613 0.000725386 0.0223884)
(0.00192706 -5.2899e-05 0.0202641)
(1.32217e-05 -0.00102486 0.0192344)
(-0.00164608 -0.000864355 0.0223305)
(-0.0012224 -0.00158713 0.0231853)
(-0.00104936 -0.00208264 0.0241662)
(-0.000871659 -0.00193644 0.0238494)
(-0.000684731 -0.000978845 0.0218583)
(0.000457155 0.00203149 0.0228275)
(0.00153408 0.0023039 0.02199)
(0.00180878 0.00340683 0.0201883)
(0.00150083 0.00372288 0.0191064)
(0.0013973 0.00435246 0.0173399)
(0.00050365 0.00386029 0.0151215)
(-0.00123849 0.00368112 0.0157014)
(-0.00186298 0.00189479 0.0189009)
(0.000386221 0.0016929 0.0205362)
(0.00222175 0.00208245 0.0196441)
(0.00255377 0.00292096 0.0153233)
(0.00182874 0.00314818 0.0136619)
(0.001126 0.00323594 0.0102071)
(-4.35751e-05 0.00209226 0.00888319)
(-0.00225479 0.00243784 0.00905637)
(-0.00370596 0.0012527 0.0161341)
(0.000570937 0.000423899 0.020237)
(0.00265262 0.000402452 0.0186073)
(0.00282544 0.000233209 0.0132375)
(0.00178723 0.000662336 0.010996)
(0.000308092 0.00101625 0.00807364)
(-0.000329552 -0.000230333 0.0100041)
(-0.00213607 -0.000216537 0.00708136)
(-0.00426184 -0.000375867 0.0149023)
(1.46145e-05 1.30123e-05 0.0204189)
(0.00194126 -0.000384734 0.0197804)
(0.00275975 -0.00130588 0.0165061)
(0.00260554 -0.00140804 0.0124271)
(0.000253443 -0.00164546 0.0065151)
(-0.00127789 -0.00141703 0.0115358)
(-0.00244947 -0.00229959 0.0108586)
(-0.0036877 -0.00181849 0.0170391)
(-8.76484e-06 -0.000273275 0.0201384)
(0.00128406 -0.000329634 0.0198028)
(0.0017723 -0.000999762 0.0182691)
(0.00143126 -0.00185976 0.0161393)
(0.00035504 -0.00313517 0.0142956)
(-0.000969371 -0.00218375 0.014114)
(-0.00261872 -0.00288904 0.0156138)
(-0.00306031 -0.00206058 0.0196002)
(0.000454824 -0.00119152 0.0201859)
(0.00121356 -0.000946475 0.019631)
(0.0012061 -0.0010631 0.0181612)
(0.000442556 -0.00183537 0.0173376)
(-8.25763e-05 -0.00257821 0.0173967)
(-0.00108679 -0.00266578 0.0165207)
(-0.00242282 -0.00253075 0.0186516)
(-0.00227595 -0.00157845 0.0210251)
(0.00044949 -0.000900039 0.0220246)
(0.00139591 -0.000818781 0.0206702)
(0.000848591 -0.00107785 0.018957)
(-0.000128108 -0.00175825 0.0191307)
(-0.000511439 -0.00226325 0.0194838)
(-0.000967183 -0.00264484 0.0196562)
(-0.00159145 -0.00215611 0.020326)
(-0.0016552 -0.00120258 0.0215356)
(0.000602071 -5.55013e-05 0.0213767)
(0.00102535 -0.000525853 0.0201384)
(0.000227589 -0.000971817 0.0189709)
(-0.00078971 -0.00099404 0.0199582)
(-0.00100311 -0.0014559 0.0209137)
(-0.00100622 -0.00164275 0.0215968)
(-0.000974121 -0.00152734 0.0220669)
(-0.000889617 -0.000976624 0.0221755)
(0.000418708 0.00136804 0.0212298)
(0.000918014 0.0014889 0.0208388)
(0.00109108 0.00184305 0.0200595)
(0.000953513 0.00203544 0.0195205)
(0.000724474 0.00229494 0.0189658)
(0.000213889 0.00211732 0.0183866)
(-0.000590069 0.00191302 0.0185129)
(-0.000995067 0.00110821 0.0194293)
(0.000422553 0.00113038 0.0201533)
(0.00113505 0.00127621 0.0197559)
(0.00136704 0.00155093 0.0184731)
(0.00114556 0.00167716 0.0178073)
(0.000661665 0.00174614 0.0170258)
(-6.89819e-05 0.00135152 0.0167738)
(-0.00112831 0.00125622 0.0169155)
(-0.00178389 0.000643973 0.018615)
(0.000512417 0.000477932 0.0198384)
(0.00127332 0.000485039 0.0192496)
(0.0014596 0.000451781 0.0178117)
(0.00114053 0.000513665 0.0170475)
(0.000393431 0.000507203 0.0163556)
(-0.000292612 9.09982e-05 0.0166198)
(-0.00130802 -3.95096e-05 0.0163964)
(-0.00215676 -0.000209741 0.0182953)
(0.000353611 4.15392e-05 0.0198163)
(0.00107424 -9.09301e-05 0.0194595)
(0.00136493 -0.000389212 0.0183354)
(0.00118478 -0.000560383 0.0172765)
(0.000232181 -0.000802035 0.0161893)
(-0.000623937 -0.000876344 0.0169116)
(-0.00144108 -0.00116141 0.0170082)
(-0.00201655 -0.00099361 0.0187968)
(0.000327422 -0.000283768 0.0198015)
(0.000827571 -0.000342927 0.0195021)
(0.000968993 -0.000627152 0.018793)
(0.000713237 -0.00102493 0.0180923)
(6.90006e-05 -0.00152547 0.0176128)
(-0.000665305 -0.00143549 0.0176882)
(-0.00145182 -0.00163267 0.0182204)
(-0.00175485 -0.00130329 0.0196637)
(0.000420552 -0.00065719 0.0199647)
(0.00072863 -0.000651485 0.0195649)
(0.000672693 -0.000801401 0.0189074)
(0.000271903 -0.00115883 0.0185583)
(-0.000199217 -0.00153872 0.0185491)
(-0.000759846 -0.00162156 0.0185653)
(-0.00133763 -0.00158861 0.0192964)
(-0.00144159 -0.00121862 0.0203421)
(0.000388801 -0.00060584 0.0206455)
(0.000683948 -0.000662862 0.0200624)
(0.000453689 -0.000835359 0.01936)
(-4.22837e-05 -0.00112274 0.0193027)
(-0.000415438 -0.00141381 0.0194782)
(-0.000746426 -0.00153263 0.0197063)
(-0.00106864 -0.00140307 0.0201438)
(-0.00114101 -0.00103894 0.0207869)
(0.000362645 -0.00034784 0.0205264)
(0.000499102 -0.000535278 0.0200403)
(0.000189736 -0.000717356 0.0195634)
(-0.000331983 -0.000794908 0.0197692)
(-0.000628012 -0.00102979 0.0202067)
(-0.000757159 -0.00109304 0.0205971)
(-0.000837919 -0.00102935 0.0209498)
(-0.000824515 -0.000818796 0.0212206)
(0.000288526 0.000843891 0.0206421)
(0.000525983 0.000910557 0.0204127)
(0.000616543 0.00104052 0.0200348)
(0.000543145 0.00112585 0.0197112)
(0.000373065 0.00120208 0.0194304)
(8.80393e-05 0.00110589 0.019232)
(-0.000282546 0.000957367 0.0192874)
(-0.000506748 0.000603647 0.0196501)
(0.000318114 0.000699623 0.0201143)
(0.000613212 0.000763047 0.0198743)
(0.000715324 0.000853242 0.019369)
(0.000604691 0.000898959 0.0189776)
(0.000324531 0.000901796 0.0186085)
(-7.02624e-05 0.000738203 0.0185085)
(-0.000550639 0.000606063 0.018626)
(-0.000848536 0.000315698 0.019283)
(0.000371871 0.000363449 0.0198699)
(0.00066212 0.000368308 0.0195757)
(0.000740998 0.000352903 0.0190209)
(0.000585336 0.000337579 0.0185988)
(0.000206612 0.00028086 0.0182403)
(-0.00021517 0.000112494 0.0182927)
(-0.00070722 -2.6877e-06 0.0183834)
(-0.00105547 -0.00012986 0.0191641)
(0.000326395 5.90202e-05 0.0198102)
(0.000592929 5.28169e-06 0.0195689)
(0.000673583 -0.000109412 0.0190868)
(0.000524113 -0.000220328 0.0186335)
(9.36109e-05 -0.000357581 0.0182465)
(-0.000358705 -0.000451036 0.0184212)
(-0.000794928 -0.000565655 0.0186125)
(-0.0010641 -0.000548624 0.0193662)
(0.000301218 -0.000182607 0.0198472)
(0.000487978 -0.000232682 0.0196301)
(0.000507013 -0.000365512 0.019271)
(0.00032888 -0.000548364 0.018952)
(-3.03422e-05 -0.000753697 0.0187558)
(-0.00043066 -0.000805309 0.0188491)
(-0.000811938 -0.000875027 0.019138)
(-0.000987229 -0.000775208 0.0197748)
(0.000293184 -0.000364907 0.0199778)
(0.000406609 -0.000410162 0.0197451)
(0.000350103 -0.000517472 0.0194366)
(0.000126411 -0.000690848 0.0192513)
(-0.000173011 -0.000873273 0.0192221)
(-0.000490816 -0.000938077 0.0193369)
(-0.000774982 -0.000937846 0.0196671)
(-0.00086826 -0.000800651 0.0201698)
(0.000250612 -0.000380307 0.0202442)
(0.000332544 -0.000449025 0.0199915)
(0.000217973 -0.000556802 0.0197055)
(-3.718e-05 -0.00069901 0.0196287)
(-0.000287823 -0.000847391 0.0197042)
(-0.000505012 -0.000902889 0.0198693)
(-0.000681615 -0.000861416 0.0201403)
(-0.000730439 -0.000719243 0.0205016)
(0.000191939 -0.000303456 0.0202991)
(0.000228535 -0.000400101 0.0200946)
(9.07395e-05 -0.000492904 0.0198928)
(-0.000175372 -0.000560066 0.0199086)
(-0.000385804 -0.000674582 0.0200921)
(-0.000509569 -0.000701795 0.0203057)
(-0.000589083 -0.000663203 0.0205484)
(-0.000589378 -0.000568895 0.0207924)
(0.000178088 0.000497889 0.0203701)
(0.000289565 0.000531527 0.0202392)
(0.000331125 0.000579899 0.0200462)
(0.000288983 0.00060858 0.0198657)
(0.000187233 0.000620063 0.0197212)
(3.68047e-05 0.000562809 0.0196398)
(-0.000135879 0.000471568 0.0196704)
(-0.000250626 0.000309648 0.0198256)
(0.000201931 0.000415885 0.0200958)
(0.000324252 0.000443155 0.0199543)
(0.00036237 0.000471002 0.0197205)
(0.000298337 0.00047811 0.0195115)
(0.000148439 0.000459051 0.0193425)
(-5.26133e-05 0.000379029 0.0193013)
(-0.000270086 0.00028749 0.0193785)
(-0.00040776 0.000146057 0.0196505)
(0.00022853 0.000239164 0.0199399)
(0.000339968 0.000241399 0.0197796)
(0.000362347 0.000229448 0.0195285)
(0.00027432 0.000205 0.0193111)
(8.5318e-05 0.000158458 0.0191503)
(-0.000137993 7.54732e-05 0.0191656)
(-0.000369099 -1.38865e-06 0.0192661)
(-0.000519519 -8.39991e-05 0.0196018)
(0.000215948 5.68911e-05 0.0198858)
(0.000311298 3.1558e-05 0.0197404)
(0.000322091 -1.95761e-05 0.0195134)
(0.000223873 -8.17465e-05 0.0193044)
(1.61831e-05 -0.000155545 0.01916)
(-0.000214307 -0.000220798 0.0192197)
(-0.000429023 -0.000281991 0.0193592)
(-0.000554143 -0.000304139 0.0196996)
(0.000196472 -9.61021e-05 0.0199122)
(0.000261231 -0.000130618 0.0197796)
(0.000245745 -0.000196718 0.0195973)
(0.000134735 -0.00028388 0.0194433)
(-5.68571e-05 -0.000377364 0.0193644)
(-0.000267199 -0.000427464 0.0194295)
(-0.000453609 -0.000464622 0.0195985)
(-0.000543501 -0.00044445 0.0199065)
(0.000173781 -0.000202389 0.0199922)
(0.000209871 -0.000242362 0.0198653)
(0.000165797 -0.000306569 0.0197148)
(3.92512e-05 -0.00039231 0.019619)
(-0.000131425 -0.000480248 0.0196068)
(-0.000305409 -0.000523035 0.0196918)
(-0.000448965 -0.000531155 0.0198725)
(-0.000503927 -0.00048523 0.0201345)