FoamFile
{version 2.0; format ascii;class vectorField; location 0;object  v;}
2494
(
( -3.48346e-05 9.07179e-05 -3.08161e-06 )  
( 3.43861e-05 0.000131736 0.000239974 )  
( 0.000106472 0.000161241 0.000240426 )  
( -0.000929778 0.000373332 0.000679674 )  
( -0.000113354 3.72403e-06 2.46391e-05 )  
( 0.000137966 -0.000140836 1.71268e-05 )  
( 0.000219725 5.54394e-05 0.000208371 )  
( -9.51703e-05 0.000180285 0.000462936 )  
( 0.000110967 0.000264711 0.000496095 )  
( 6.92716e-06 6.17757e-05 5.14479e-05 )  
( -8.2586e-06 5.36773e-05 0.000212031 )  
( 0.000239978 0.000105022 6.98513e-05 )  
( -6.7877e-05 -1.24133e-05 0.000130723 )  
( 0.00020656 4.76311e-05 0.000577902 )  
( -0.00015837 -0.000999379 0.000825773 )  
( -5.9679e-05 3.16827e-05 0.000629445 )  
( 0.000183725 0.000174726 0.000512102 )  
( 3.87843e-05 0.00039356 0.000676275 )  
( -3.08817e-05 0.000181225 0.000168666 )  
( 0.000106168 0.000317089 0.000359648 )  
( -0.000233683 3.04217e-05 5.71991e-05 )  
( -7.84419e-05 6.70918e-05 0.000347713 )  
( 6.95034e-05 4.13769e-05 0.000146393 )  
( -7.08637e-05 2.01008e-07 -7.135e-06 )  
( 0.000248556 9.70649e-06 2.63379e-05 )  
( -4.68729e-05 2.66468e-05 0.000429183 )  
( 0.000189011 3.22329e-05 9.53047e-05 )  
( 0.000230829 -0.000444599 0.000545001 )  
( 4.14938e-05 6.42589e-05 8.13332e-05 )  
( -0.000352966 6.07095e-05 0.000158425 )  
( 0.000970893 0.000111803 -1.31039e-07 )  
( 0.000199351 0.000109729 0.000479084 )  
( 0.000206706 -0.000424662 0.000699195 )  
( 3.82654e-05 0.000193821 0.000353016 )  
( -6.23672e-05 3.0055e-05 0.000368974 )  
( -5.99862e-05 0.000449515 0.00047888 )  
( 7.038e-05 9.62146e-05 0.000222646 )  
( 0.000320078 9.26588e-05 0.00051644 )  
( 0.000171796 0.000189117 0.00061834 )  
( -1.15915e-05 7.97165e-05 1.53295e-06 )  
( -0.000105757 1.206e-07 0.000175343 )  
( 8.79169e-05 5.77331e-05 -6.04817e-05 )  
( -9.53726e-05 7.37042e-05 0.0001676 )  
( -2.09634e-05 0.000108664 6.57583e-05 )  
( -7.56414e-05 0.000506101 0.00045824 )  
( -7.50346e-05 0.000145525 0.000264035 )  
( 2.49176e-05 0.000319413 0.000563348 )  
( 6.15466e-05 1.00851e-05 0.00081305 )  
( -1.4485e-05 -0.000212674 0.000343753 )  
( -1.43292e-05 0.000368327 4.15936e-05 )  
( -0.000129 -5.55152e-05 -2.31334e-05 )  
( -7.58949e-05 6.10831e-05 0.00016472 )  
( -0.000105572 9.43071e-06 0.000282183 )  
( -1.60401e-05 6.71082e-05 4.0543e-05 )  
( -4.53094e-05 9.10952e-05 0.000143523 )  
( 9.63249e-06 7.06269e-05 7.24683e-05 )  
( 0.000135589 0.000179262 0.000159675 )  
( -5.17422e-05 -5.45652e-06 0.000574483 )  
( 5.41925e-05 -1.52217e-05 5.95966e-05 )  
( 0.000213388 -3.97949e-06 5.88359e-05 )  
( 0.000514263 -0.000116935 0.000523617 )  
( -4.69775e-06 0.000156894 0.000101706 )  
( 0.000460953 -0.000494248 0.000330193 )  
( 0.000102252 -0.000196743 1.25345e-05 )  
( 1.15509e-05 2.466e-05 0.00024839 )  
( -3.23696e-06 0.000497534 0.000147825 )  
( 0.000102178 -2.13455e-05 0.00027161 )  
( -8.70294e-05 5.98731e-05 0.000304468 )  
( -2.66103e-05 0.000163537 0.000170192 )  
( 1.49165e-05 -0.000678971 3.70649e-06 )  
( 0.000221822 -3.31111e-05 0.000545294 )  
( -8.39865e-05 5.59314e-05 0.000176462 )  
( 4.40818e-05 -6.18786e-05 0.000154649 )  
( 3.69086e-05 5.95988e-05 0.000146294 )  
( -1.10439e-05 9.14912e-05 0.000209779 )  
( 7.66651e-05 2.87625e-05 0.000245851 )  
( -9.61315e-05 7.19193e-05 0.000201554 )  
( -3.0106e-06 6.50836e-05 0.000115578 )  
( 3.46502e-05 5.52484e-05 3.2033e-05 )  
( -3.32176e-05 0.000233549 0.000125129 )  
( 9.56921e-05 -0.000313438 0.000357287 )  
( 8.53769e-05 -2.05216e-05 0.00038884 )  
( 6.98469e-05 9.69591e-05 0.000156877 )  
( -0.00031156 -0.00014348 0.000384122 )  
( 1.83281e-05 0.000174814 0.000278308 )  
( 0.00065731 -0.000196518 0.000771036 )  
( 5.26291e-05 0.000125193 0.000153654 )  
( -1.24715e-05 -0.000127928 0.000376832 )  
( -2.06317e-05 0.00034122 0.000168466 )  
( 6.49639e-05 -0.000174944 1.36894e-06 )  
( 0.000125943 0.000120031 0.000460085 )  
( 1.19661e-05 0.000117764 0.000174729 )  
( 0.000101594 -6.10601e-05 0.000706245 )  
( -9.4756e-05 0.000341765 0.000628409 )  
( -9.22533e-06 -1.78532e-05 3.81844e-05 )  
( 0.000203371 4.45016e-06 0.00038698 )  
( -7.98048e-05 5.01571e-05 0.000250918 )  
( 0.000100999 0.000163943 0.000774853 )  
( 0.000308298 -0.000108001 0.00048062 )  
( 0.000510542 0.000611172 0.000614861 )  
( 0.00020328 -3.37612e-06 0.000563822 )  
( 5.94285e-05 9.80839e-05 0.000365067 )  
( 3.81086e-05 0.000138808 7.17798e-05 )  
( 4.34826e-05 0.000210352 0.000439751 )  
( 9.8451e-05 -7.99125e-05 0.0002777 )  
( -0.000142817 -7.41857e-05 0.000219605 )  
( 0.000130185 0.00017509 0.000358878 )  
( 0.000229522 5.39787e-05 0.000346167 )  
( 0.00029194 -3.56125e-05 0.000198472 )  
( 4.80987e-05 0.00017544 0.000449451 )  
( 0.000148714 0.000491415 0.000707907 )  
( 0.000133817 6.53106e-05 0.000153777 )  
( 5.67362e-05 -0.000117703 1.80464e-05 )  
( -9.54858e-05 -2.14538e-05 0.000248153 )  
( 0.000230869 -8.33764e-06 0.000335788 )  
( 0.000234386 -0.000103269 0.000162862 )  
( 0.000119185 -0.000109569 0.000345047 )  
( -8.57653e-05 9.74706e-05 -7.47883e-06 )  
( -0.000120322 0.000238165 0.000565153 )  
( 0.000581495 -0.000386913 0.000371882 )  
( -0.00016308 -0.000172007 0.000171347 )  
( -9.09141e-05 -6.29116e-06 0.000199461 )  
( 6.43407e-05 9.81909e-06 0.000177501 )  
( -0.000182424 3.24607e-05 -6.7623e-05 )  
( 9.83569e-05 0.000453752 0.000533283 )  
( 6.70658e-05 -4.56039e-05 0.000293737 )  
( 5.06073e-05 0.000129321 0.000391897 )  
( -0.000139978 0.0001505 0.000481612 )  
( 0.000528347 -6.18696e-05 7.91596e-05 )  
( -8.43867e-05 0.000100029 0.000227994 )  
( -6.01671e-05 9.86311e-05 0.000323949 )  
( -0.000267861 4.13404e-05 0.00040605 )  
( 7.8804e-05 -0.000197395 0.000426632 )  
( 1.39301e-05 4.49351e-05 -2.32582e-05 )  
( 4.68608e-06 0.000220243 0.00033071 )  
( 1.05913e-05 5.43365e-05 7.85661e-05 )  
( 0.000205648 0.000110386 0.000440205 )  
( -3.43806e-05 5.28355e-05 0.000468623 )  
( 6.22106e-05 1.32357e-05 0.000231816 )  
( 9.44915e-05 5.84516e-06 0.000393613 )  
( 8.26339e-06 0.000143378 0.000434999 )  
( -4.39003e-05 -8.38538e-05 -3.16297e-05 )  
( 0.00019194 0.000369619 0.000557493 )  
( 0.00019558 9.98536e-05 0.000642874 )  
( 0.000286157 -0.000324766 2.62007e-05 )  
( 0.000312053 0.000144039 2.63949e-05 )  
( 1.58053e-05 0.000262236 0.000839963 )  
( 6.40077e-05 6.86467e-05 0.000107853 )  
( -0.000138917 0.000190002 0.000439719 )  
( 5.83448e-05 0.000204529 2.15621e-05 )  
( -0.000147809 0.00101117 -1.72467e-07 )  
( 0.000121663 0.000176266 0.000191513 )  
( -0.000105256 5.08024e-05 8.65571e-05 )  
( -3.13077e-06 0.000241012 0.000170661 )  
( 3.63246e-05 5.66605e-05 0.00014846 )  
( 3.14516e-05 5.28044e-05 0.000275705 )  
( 4.20576e-05 2.80663e-05 0.000264765 )  
( 0.000142508 0.00010762 0.000371975 )  
( 9.26598e-06 0.000149553 0.000612549 )  
( -7.56716e-05 0.000131053 -1.35666e-05 )  
( 0.000164773 -3.24496e-06 0.000355548 )  
( -2.18812e-05 0.00023674 0.000537045 )  
( 4.09428e-05 0.000174048 0.000747991 )  
( 2.44756e-05 7.23769e-05 0.000463994 )  
( 4.78373e-05 7.36471e-05 0.000401413 )  
( -0.000102784 9.49424e-06 0.000130438 )  
( -0.000302981 0.000167713 2.50075e-05 )  
( -3.58034e-05 5.52698e-05 5.81551e-05 )  
( -1.78274e-06 7.32379e-05 0.000142632 )  
( 8.07801e-05 5.94811e-05 0.000140821 )  
( 2.27819e-05 0.000111117 0.000412327 )  
( -5.05345e-05 0.000118166 0.000364085 )  
( 8.59715e-05 1.47567e-05 0.000452689 )  
( 0.000138012 0.000150385 8.01936e-06 )  
( -0.00156817 -0.000479593 6.30777e-06 )  
( -0.000202034 7.40454e-05 0.000288197 )  
( -4.24326e-05 5.06564e-05 -1.08902e-07 )  
( 0.000235613 0.000170248 0.000540135 )  
( 0.000439212 0.000952029 0.000569288 )  
( -2.44212e-05 3.90026e-05 0.00012533 )  
( 0.000236299 0.000507227 0.000319969 )  
( -0.000109504 0.000114676 6.22824e-05 )  
( 0.000112801 6.78501e-05 0.000153781 )  
( 1.58912e-05 2.07434e-05 0.000294561 )  
( 8.49085e-05 0.000130437 0.000176851 )  
( 5.19203e-05 0.000238434 0.000238456 )  
( 3.55842e-05 -1.5207e-05 0.000364689 )  
( -0.000294223 0.000638247 0.000601985 )  
( 0.000192399 0.0001219 0.000114731 )  
( 0.000304646 -0.000101659 0.000246006 )  
( 0.000167837 8.67378e-05 0.000423109 )  
( 0.000120569 -7.13255e-05 9.97809e-06 )  
( -7.39882e-05 8.25364e-05 -4.24211e-05 )  
( 3.5355e-05 1.51126e-05 0.000221915 )  
( -0.000136054 -7.2098e-05 2.98388e-05 )  
( 0.000111309 0.00035556 0.000270703 )  
( -7.03073e-06 7.23058e-05 0.000363145 )  
( 2.67344e-05 1.35801e-05 0.000366241 )  
( 3.74471e-07 -1.86067e-05 0.000491616 )  
( 7.065e-05 1.3314e-05 0.000259057 )  
( 1.90653e-05 -3.95567e-06 3.06768e-05 )  
( 7.20608e-05 -1.49356e-05 0.000361178 )  
( 3.27379e-05 3.85635e-05 0.000625848 )  
( 1.88201e-05 0.000118872 0.000347839 )  
( -0.000120007 0.000418886 0.000888486 )  
( -4.21342e-05 2.09454e-05 3.22162e-05 )  
( -3.46401e-05 0.000111966 -9.8855e-05 )  
( 0.000138751 0.00029185 0.000737578 )  
( -0.000105152 -2.2792e-05 0.000375618 )  
( 0.000191929 8.42162e-05 0.000435536 )  
( 7.79009e-05 2.54025e-05 0.000235285 )  
( -4.47925e-05 0.00013985 0.00013962 )  
( 5.30883e-06 5.19164e-05 0.000213986 )  
( -0.000212052 1.64521e-05 0.000276148 )  
( -0.000242783 0.000225692 0.000465825 )  
( 0.000113395 9.07353e-05 0.000466491 )  
( 0.000114911 2.45182e-06 0.000161608 )  
( 0.000134027 0.000189555 0.000578485 )  
( 0.000245756 -8.41958e-05 0.00046286 )  
( 0.000196928 0.000214955 0.000305283 )  
( 0.000301965 0.0001763 0.000287315 )  
( 5.87325e-05 -1.99347e-05 0.000287961 )  
( -1.61595e-06 5.41435e-05 2.97541e-05 )  
( 6.79386e-05 -1.23673e-05 0.000213985 )  
( -2.80255e-05 4.67446e-06 0.000354231 )  
( -4.54265e-05 0.000123181 4.30401e-05 )  
( -5.63272e-05 -7.1701e-05 -1.25444e-06 )  
( -3.5306e-05 1.97114e-05 0.000108702 )  
( 9.76619e-05 0.000242088 9.69053e-05 )  
( -1.32081e-07 0.000117332 -0.000138433 )  
( 5.63523e-06 -3.69352e-05 0.000147096 )  
( -3.63845e-05 0.000133105 0.000136625 )  
( -9.81568e-05 4.98468e-05 0.000220193 )  
( -5.55198e-05 9.62196e-05 1.52055e-05 )  
( 0.000111694 0.000425109 0.000481766 )  
( 0.000185912 0.000122306 0.000373175 )  
( 0.000301667 0.00018288 0.000397506 )  
( 7.73007e-05 0.000263371 0.000377674 )  
( 7.09653e-05 -3.38617e-05 5.45628e-05 )  
( -0.000107815 8.5172e-05 8.49402e-05 )  
( 8.48232e-05 0.000232511 0.000111589 )  
( -6.46128e-06 0.000120459 0.000362255 )  
( 6.15549e-05 0.000113924 5.4757e-05 )  
( -3.61874e-05 1.29649e-06 5.49477e-05 )  
( 5.64879e-05 1.41396e-05 0.000284913 )  
( -0.000125271 6.0188e-05 0.00012556 )  
( 0.000170898 3.08726e-05 0.000450041 )  
( 6.87721e-05 0.000302322 0.000248395 )  
( -4.60527e-05 5.84e-05 7.87627e-05 )  
( -3.16396e-05 3.56261e-05 -1.06074e-05 )  
( -0.000154567 -7.47066e-05 0.000717153 )  
( -7.32708e-05 6.43636e-05 0.000112624 )  
( -3.44503e-05 8.59119e-05 0.00011093 )  
( 0.00038923 0.000108207 0.00068079 )  
( -1.79098e-05 6.04769e-05 0.000366902 )  
( -3.1376e-05 -0.000129617 9.82752e-06 )  
( -9.65022e-05 0.000113852 0.000655402 )  
( 0.000196975 0.000104136 0.000414125 )  
( -6.12616e-05 0.000118531 0.000298909 )  
( 0.000173289 0.000347334 0.000384902 )  
( 0.000250413 -0.00020068 0.0001257 )  
( -9.03613e-05 2.88328e-05 -3.61501e-05 )  
( -2.72737e-05 -0.000112083 7.06113e-05 )  
( 0.000187185 0.000284606 0.000673667 )  
( 7.66891e-05 -0.000128854 0.000147763 )  
( 0.000162374 8.16069e-05 0.000859785 )  
( 4.95836e-05 0.000167705 0.000210488 )  
( -1.91113e-05 0.000136262 0.000110543 )  
( 0.000151286 -3.78385e-05 0.000260775 )  
( 0.000214215 -6.571e-05 0.000161785 )  
( 5.31794e-05 0.000211256 -1.04139e-05 )  
( 8.93917e-05 0.000161891 0.00047416 )  
( -0.000117315 -0.000115379 0.000375192 )  
( 0.000145481 0.000140297 0.000300852 )  
( -0.000122691 0.000238511 0.000545756 )  
( 4.13159e-05 -0.000108651 0.000413797 )  
( -4.55797e-05 0.000126664 0.000349746 )  
( 1.3335e-05 0.000140769 0.000198842 )  
( -0.000102045 0.000208909 0.000270788 )  
( 7.04523e-05 2.22882e-05 0.000766384 )  
( 7.2838e-05 7.28025e-05 0.000124467 )  
( 0.00026878 4.77394e-06 0.000378961 )  
( 0.0002336 -1.59788e-05 0.000264942 )  
( -2.97583e-05 -9.44132e-05 0.000273145 )  
( 0.000145626 2.56115e-05 2.5162e-05 )  
( 0.000187853 0.000330171 0.00072502 )  
( 0.00027466 3.75806e-05 0.000477978 )  
( 2.48915e-05 5.75305e-05 3.78648e-05 )  
( 0.000101308 6.13296e-05 0.000532196 )  
( -4.54888e-05 6.66359e-05 9.12427e-05 )  
( 0.000104403 0.000510908 0.00021351 )  
( -0.000316164 -0.00213513 0.000310104 )  
( -0.00013114 0.000165591 0.000145361 )  
( -0.000138418 0.000265466 0.000649804 )  
( 5.00882e-05 2.86187e-05 0.000306353 )  
( 0.000211189 -0.000114042 0.000213746 )  
( -1.03261e-05 7.95237e-05 1.47601e-05 )  
( -0.00014686 0.000129608 0.00018416 )  
( 6.10945e-05 -9.02695e-05 0.000411373 )  
( -0.000180329 -0.000106586 0.000169903 )  
( 1.415e-05 4.78823e-05 5.3914e-05 )  
( 9.91067e-05 0.000105393 0.000664497 )  
( -0.000192396 0.000165921 8.47292e-05 )  
( 0.000261989 1.89268e-05 0.000540778 )  
( 0.000123732 8.93879e-05 0.00013038 )  
( 1.11335e-05 2.58388e-05 4.78962e-06 )  
( 0.000398662 -0.000601552 0.000405474 )  
( 0.000329569 7.93129e-05 0.000453583 )  
( -3.16719e-05 3.67211e-05 1.06304e-05 )  
( -2.68179e-05 0.000119906 5.62365e-05 )  
( 9.21756e-05 6.12941e-05 0.000376481 )  
( -0.00010244 7.7651e-05 0.00020675 )  
( 5.45613e-05 -3.34245e-05 0.000229325 )  
( -4.28674e-05 0.000176513 0.000295089 )  
( -6.51462e-06 5.41797e-05 1.40349e-05 )  
( 2.22633e-05 3.73561e-05 0.000162903 )  
( 0.000101475 -7.79674e-05 0.0004473 )  
( -4.06509e-05 0.00012755 0.000349828 )  
( -0.000197477 -0.000140893 0.000351684 )  
( 3.23388e-05 0.000235449 9.37773e-05 )  
( 1.65417e-05 1.18612e-05 0.000266248 )  
( -0.000642028 0.000645395 0.000262111 )  
( -0.000242352 -0.000282313 4.66468e-05 )  
( 4.27944e-05 -2.06804e-05 0.000303898 )  
( 4.85384e-05 4.13249e-05 0.000264336 )  
( -9.27249e-05 2.66517e-05 0.000130808 )  
( 1.43668e-05 7.13918e-05 0.000471119 )  
( 0.000128653 0.000118194 0.000155394 )  
( -2.82264e-05 0.000109524 8.88327e-05 )  
( -2.13629e-05 0.000189887 0.000159134 )  
( 8.28128e-05 8.10002e-05 0.000112334 )  
( 7.01926e-05 5.69728e-05 0.000306912 )  
( -0.000112563 0.000164778 0.000516106 )  
( 5.87988e-05 0.000148138 0.000431511 )  
( 0.000556319 -1.22222e-05 -2.83418e-05 )  
( 6.33102e-05 -2.84548e-05 1.38191e-06 )  
( -2.6947e-05 0.00018545 0.000211175 )  
( 0.000322502 0.000338902 0.000521843 )  
( 0.000130221 0.000223997 0.000231433 )  
( 2.36689e-05 0.000275848 2.97988e-05 )  
( 0.000277098 -7.24038e-05 0.000357659 )  
( 0.000145249 -2.36988e-05 -7.20814e-05 )  
( -5.69883e-05 -8.11703e-06 1.95819e-05 )  
( 2.81925e-05 4.7455e-05 4.46779e-05 )  
( 0.000180211 -3.42736e-05 0.000581379 )  
( 5.11309e-05 0.000225672 0.000318496 )  
( 0.000121947 0.000151844 7.47049e-05 )  
( -0.000180123 0.000143091 0.000563149 )  
( 2.89529e-05 0.000201268 0.000787168 )  
( 9.88502e-05 0.000199084 0.000234556 )  
( 0.000178951 6.38585e-05 0.000349946 )  
( 0.000144163 -1.16546e-05 0.000406687 )  
( -3.40871e-05 -0.000100031 3.51055e-05 )  
( 5.01892e-05 0.00015582 4.53646e-05 )  
( -0.000110471 1.32658e-05 0.000363327 )  
( 5.37012e-05 2.70578e-05 0.000197051 )  
( 1.46531e-05 0.000125075 1.24497e-05 )  
( 6.12173e-05 4.97424e-05 0.000190175 )  
( -3.9462e-05 0.000118484 0.000158854 )  
( 0.000102201 0.000197918 0.0002662 )  
( 5.47583e-05 0.000269002 0.000316121 )  
( 5.54915e-05 0.000205219 0.000265267 )  
( 0.00017729 6.63763e-05 0.000510015 )  
( 0.000156167 2.81432e-05 0.000174561 )  
( 2.98632e-05 0.000142647 5.65185e-05 )  
( -0.000164045 0.000191241 0.000148396 )  
( 2.78683e-05 2.64626e-05 0.000133803 )  
( 0.000237006 0.000260606 0.000468762 )  
( 0.000202226 9.57684e-06 0.000605171 )  
( 0.000112486 0.000120767 0.000377313 )  
( 0.000123335 0.000119474 0.000229397 )  
( -3.91856e-05 8.892e-05 0.000457934 )  
( -4.87209e-06 -0.000139868 0.000335345 )  
( -0.000536705 -0.00129206 0.00013648 )  
( -9.91365e-05 0.000189371 0.000107296 )  
( 0.000281994 0.000449294 -4.50059e-07 )  
( -0.000158635 5.59244e-05 0.000348216 )  
( -9.57722e-05 0.000145408 0.000278651 )  
( 0.000122764 6.58462e-05 0.000429744 )  
( 7.37773e-05 0.000189119 0.000555458 )  
( 6.21845e-05 -4.31807e-05 1.25404e-05 )  
( 0.000170613 0.000158081 0.000337567 )  
( -1.40613e-06 0.000132844 0.000294506 )  
( -0.000940276 0.000628031 -0.000333495 )  
( 5.10071e-05 -0.000108177 0.00019319 )  
( 8.15317e-05 0.000157498 0.000122372 )  
( 6.41497e-05 0.000165691 0.000259983 )  
( 8.51713e-05 -0.000140874 0.000573997 )  
( -8.86442e-05 9.98768e-05 0.00023087 )  
( -5.41426e-05 0.000226317 8.68834e-05 )  
( -9.08246e-05 0.00017997 0.00075095 )  
( -3.25803e-05 4.18305e-05 1.98791e-05 )  
( 0.000151126 4.64124e-06 0.00072023 )  
( -0.000356908 0.000265044 0.000836338 )  
( 0.000165995 0.000143083 0.000328356 )  
( -8.91488e-05 0.000228641 0.000561273 )  
( 0.000292497 -2.45047e-05 5.3913e-05 )  
( 0.00014556 0.000268163 0.000416 )  
( 5.8021e-05 0.00015699 0.000237439 )  
( 5.51286e-05 9.73138e-05 9.94239e-05 )  
( 9.36752e-05 0.00011833 0.000337012 )  
( -0.000152698 0.000300816 0.000453737 )  
( 7.48858e-05 4.14689e-05 0.000315308 )  
( 0.000159873 8.11229e-05 0.00016818 )  
( -6.42702e-05 -4.04516e-05 0.000131579 )  
( -6.08776e-05 0.000340529 0.000132097 )  
( 0.000189067 -0.000224819 0.000317761 )  
( -0.000110248 0.000194434 0.000447014 )  
( 0.000113602 -1.63004e-05 0.000263222 )  
( 1.3123e-05 0.000115499 8.7958e-05 )  
( 0.000191327 8.58916e-05 0.000651893 )  
( 8.34507e-05 0.00012668 0.000311937 )  
( 0.00015984 0.000239214 0.00054186 )  
( 0.000136035 2.06474e-05 0.000380981 )  
( 4.51132e-05 0.000126437 0.000318025 )  
( 4.86105e-05 5.46511e-06 0.000121124 )  
( 0.000197747 -5.01167e-05 0.000398279 )  
( 9.05472e-05 0.000405416 0.000714754 )  
( 5.18327e-05 4.28893e-05 0.000113754 )  
( -6.66649e-06 -2.50449e-05 -8.19209e-06 )  
( -0.000283887 -8.60909e-05 0.000173774 )  
( 6.27586e-05 0.000434603 0.000855715 )  
( 1.60836e-06 0.000296584 0.000458908 )  
( 0.000103737 0.000231188 0.000329569 )  
( 0.000140772 0.000264892 0.000903212 )  
( -0.000118867 0.000136156 0.000369982 )  
( -1.83726e-05 0.000197832 0.000342202 )  
( -0.000113186 6.60857e-05 0.000609659 )  
( -1.25473e-05 2.86354e-05 -0.000105258 )  
( -3.19136e-05 3.82064e-05 6.7509e-05 )  
( 4.97563e-05 3.52661e-05 0.000673587 )  
( -4.41358e-05 0.00013497 0.000142082 )  
( -4.8793e-06 2.4579e-05 8.84931e-06 )  
( -5.44413e-05 0.000148189 0.000478193 )  
( 3.71715e-05 -0.000147746 0.0001221 )  
( -7.86712e-05 -0.000208428 0.000186609 )  
( -1.4013e-05 3.807e-05 8.45516e-05 )  
( -1.73721e-05 4.78185e-05 0.00025004 )  
( 3.20283e-05 2.05268e-06 2.1381e-05 )  
( 3.79323e-05 7.18918e-05 9.39144e-05 )  
( -8.26312e-05 9.31203e-05 0.000397601 )  
( 0.00015046 4.47321e-05 0.000368985 )  
( 5.48236e-05 0.000226122 0.000432047 )  
( 3.4176e-05 4.99434e-05 0.000503903 )  
( -7.63744e-05 -0.000165076 0.000488451 )  
( 0.000334075 2.55715e-05 0.000530152 )  
( -0.000199375 6.94272e-05 0.00058037 )  
( -3.1446e-05 -2.67218e-05 5.91984e-05 )  
( -2.07358e-05 0.000138888 0.000169069 )  
( 0.000208132 3.19457e-05 0.000454834 )  
( 8.73599e-05 -4.59289e-05 0.000311618 )  
( -0.000106471 0.000255378 0.000181696 )  
( 0.000147589 0.000135321 0.000391363 )  
( -0.000123766 0.000480924 9.78079e-05 )  
( 0.000224605 0.000220704 0.00053834 )  
( -0.000103792 9.5967e-05 0.000123112 )  
( 0.000256135 0.000158931 0.000210715 )  
( 8.17897e-05 1.0812e-05 0.000313573 )  
( 0.000129058 0.000102852 6.72668e-05 )  
( -1.55494e-05 5.78992e-06 8.72977e-06 )  
( 0.000331041 0.000284995 0.000192474 )  
( 4.94529e-05 5.50286e-05 7.6358e-05 )  
( 7.18055e-05 -9.196e-06 0.000288164 )  
( 0.000207116 -3.31213e-05 0.000634483 )  
( -0.000139444 -0.000168159 8.28675e-05 )  
( 1.29529e-05 -1.27675e-05 9.02362e-06 )  
( 6.93857e-06 0.000114909 0.000572104 )  
( -0.000205981 0.000142551 3.50632e-05 )  
( 0.000104032 5.03135e-05 0.000590207 )  
( 0.000336172 -0.000166747 0.000641299 )  
( 4.4228e-05 4.18651e-06 0.000218728 )  
( 0.000157533 4.45902e-05 0.000241688 )  
( -0.000928551 0.000459203 5.49416e-05 )  
( 4.29663e-06 -6.13293e-06 1.87089e-05 )  
( 7.8881e-05 4.49747e-05 0.000497183 )  
( 0.000149234 0.000115576 0.000183998 )  
( -0.000192735 8.54735e-05 -0.000106797 )  
( -2.69657e-05 6.09695e-05 0.000303431 )  
( 0.000180499 -3.69901e-05 0.000569252 )  
( -1.79928e-05 3.87888e-05 2.04618e-05 )  
( 0.000183093 -3.11811e-05 0.000731953 )  
( 0.000193664 0.000372487 0.000322407 )  
( -0.000131067 3.00513e-05 7.85254e-05 )  
( 5.46931e-05 6.52414e-05 0.000440576 )  
( 0.00010018 9.22078e-05 -2.37891e-06 )  
( -4.49708e-06 9.07246e-05 0.000243641 )  
( -6.79389e-05 0.000136056 0.000334962 )  
( -0.000117461 -5.06711e-05 0.000179723 )  
( 0.000172537 0.000266522 0.000562358 )  
( -0.0001028 8.55803e-05 0.000478902 )  
( 4.2159e-05 -4.47589e-06 0.000779649 )  
( 1.73558e-05 4.87807e-05 -7.4137e-05 )  
( -0.000140363 2.64487e-05 2.55975e-05 )  
( 0.000201362 -0.000151955 0.000301399 )  
( -3.74358e-05 0.000232038 0.000322961 )  
( 0.000341209 5.16411e-05 0.000503232 )  
( -8.70981e-05 -3.94642e-05 5.8034e-05 )  
( 1.65126e-05 7.36362e-05 0.000273246 )  
( 3.88837e-05 0.000211714 9.68711e-05 )  
( 0.000104628 0.000126018 0.000724815 )  
( -7.57335e-05 0.000164667 0.000339268 )  
( -1.27219e-05 0.000128705 0.000128466 )  
( 0.000117378 0.000123988 0.000482517 )  
( -0.000117518 0.000120227 0.000399686 )  
( -0.00056658 3.37256e-05 0.000450864 )  
( -3.68313e-05 7.84328e-05 0.000450425 )  
( 2.09024e-06 4.28075e-05 8.07358e-05 )  
( 7.25909e-06 8.41882e-05 0.000160101 )  
( -2.28121e-05 0.000298974 0.000165265 )  
( 2.05604e-05 0.000125513 0.000214244 )  
( 2.59933e-05 9.53253e-05 0.000173933 )  
( 4.5734e-05 0.000193476 0.000330433 )  
( -8.27846e-05 -1.99326e-05 0.00084938 )  
( 0.00029839 0.000229695 0.000443266 )  
( -1.50042e-05 0.000136117 9.62999e-05 )  
( -0.000210275 -1.3063e-05 1.97985e-05 )  
( 0.000596449 -0.00031219 0.000554173 )  
( 0.000334036 2.34384e-05 0.000384801 )  
( -0.000134479 6.56034e-05 0.000120331 )  
( -0.000172794 0.000126049 0.000784968 )  
( 1.60382e-05 7.11226e-05 5.02752e-05 )  
( 0.00016122 0.000206837 0.000430179 )  
( 4.44484e-05 8.4379e-05 9.36694e-05 )  
( -0.00032992 -2.91683e-05 0.000356999 )  
( -1.17742e-05 -3.63463e-05 1.29162e-05 )  
( 0.000115579 7.14103e-05 0.000315721 )  
( 0.000254456 0.000102698 0.000130316 )  
( 0.000217175 -3.54272e-05 0.000301891 )  
( 6.02983e-05 0.000321974 0.000432698 )  
( -1.71189e-05 0.000178733 0.000118956 )  
( 2.03086e-05 -1.99201e-06 1.36447e-05 )  
( -0.000174809 0.000103201 0.000461611 )  
( 0.000196032 0.000137787 0.000378427 )  
( -1.29889e-05 -2.46485e-06 4.89851e-05 )  
( -8.57079e-05 -4.00003e-05 0.000471542 )  
( -7.27876e-05 -4.39931e-05 0.000496298 )  
( 2.16325e-05 0.000101272 0.0004705 )  
( 0.000314787 -5.04452e-05 0.000563646 )  
( 0.0002077 0.000513503 0.00026773 )  
( 5.42978e-06 0.000101658 0.000248447 )  
( 3.93395e-05 -1.91838e-05 0.000198313 )  
( 0.000131614 0.000176432 0.000387932 )  
( 0.000135338 0.00027697 0.000369114 )  
( -5.04497e-05 7.52444e-05 0.000430987 )  
( -0.00100523 -0.000278971 5.85014e-05 )  
( -2.47651e-05 0.000370193 0.000408507 )  
( -1.60258e-05 9.99945e-05 0.000140905 )  
( -3.76784e-05 0.000144929 0.000331798 )  
( -3.94226e-05 -8.22724e-06 0.000369674 )  
( 0.000107908 7.12453e-05 0.000223132 )  
( -0.000156525 -0.000138943 3.59292e-05 )  
( 8.6725e-06 -1.58812e-05 0.000159963 )  
( 0.000110861 0.000238681 0.000423001 )  
( 0.000123231 0.000361854 0.000616765 )  
( -0.000221831 -5.07099e-05 0.000414794 )  
( 7.31509e-05 0.00010944 0.000212707 )  
( -0.000212571 0.000130893 0.00042557 )  
( 7.66942e-05 0.00020746 0.000452613 )  
( 0.00011771 -3.56806e-05 0.000307409 )  
( 0.000218491 7.83117e-05 0.000348131 )  
( -5.50434e-05 0.000548306 0.000176328 )  
( 0.000208075 0.000285638 0.000386033 )  
( 0.000294693 1.45941e-05 0.000251078 )  
( -7.15746e-05 4.62171e-05 0.000127489 )  
( 0.000146627 -0.000741889 -1.81492e-06 )  
( -2.03303e-05 2.32684e-05 5.83003e-05 )  
( -0.000383913 0.000147593 -2.39486e-05 )  
( -1.34058e-05 8.72133e-05 -6.24677e-05 )  
( 1.87526e-06 0.000102643 0.000250403 )  
( 8.11637e-06 1.01762e-05 8.1578e-05 )  
( 0.00015794 0.000134199 0.000423437 )  
( 6.44903e-05 4.98868e-05 -2.76571e-06 )  
( 0.000158104 0.000181516 0.000294429 )  
( 7.24671e-06 -9.22855e-05 0.00019328 )  
( -0.000146457 -0.000140508 0.000824584 )  
( -0.000156247 8.75342e-05 0.000367274 )  
( -3.10281e-05 -9.43456e-05 1.41778e-05 )  
( -5.67837e-06 -4.19709e-06 0.000299378 )  
( -2.96985e-06 0.000253859 0.000403526 )  
( 0.000315277 0.000379102 -0.000211858 )  
( 0.000138792 2.21864e-05 0.00037572 )  
( -2.88024e-05 6.09135e-05 0.000328847 )  
( 0.000333424 -2.50904e-05 0.000271152 )  
( 0.000129933 0.000212019 0.000441506 )  
( -0.000154692 0.000885095 0.000449038 )  
( -3.77274e-07 0.000227067 0.000798154 )  
( -3.86066e-05 -0.000244633 0.000596129 )  
( -0.000505409 0.000325622 5.55323e-05 )  
( 0.00014944 0.000106754 0.00042348 )  
( 4.53888e-06 -4.26263e-05 2.5605e-05 )  
( -0.000140097 0.000343712 0.000425614 )  
( -0.000330182 0.000319962 -5.42655e-05 )  
( 2.1053e-05 0.000321661 0.000312776 )  
( 4.08558e-05 -1.2023e-05 0.000368745 )  
( 5.24518e-05 0.000256943 0.000375491 )  
( 0.000167909 0.000112493 0.000303138 )  
( 6.54481e-05 0.000151325 0.000408056 )  
( -8.29171e-05 0.000111317 -5.48036e-05 )  
( 0.000995925 -1.45285e-05 -0.000540109 )  
( 3.72436e-06 5.74539e-05 3.37274e-05 )  
( -0.000172697 0.000351605 0.00061574 )  
( -3.48102e-05 0.000201368 0.000211172 )  
( -2.54338e-05 6.93425e-05 8.05824e-05 )  
( 5.75127e-05 -0.000106966 0.000351365 )  
( -0.000133934 9.59872e-05 0.000355721 )  
( -0.000140748 0.00015051 -1.87249e-05 )  
( -3.22781e-05 -0.000115338 0.000645171 )  
( 2.40474e-05 0.000214958 5.52979e-05 )  
( 8.59638e-05 0.000173431 0.00041496 )  
( 3.37506e-05 0.000121961 0.000297813 )  
( -0.000177595 -0.000147555 -9.30731e-08 )  
( 3.02153e-05 -9.71213e-05 0.000157067 )  
( -0.00010436 0.000266401 0.000185237 )  
( 0.000156557 0.000106267 0.000868837 )  
( -1.11573e-05 -6.80152e-05 0.000636075 )  
( -4.07967e-05 0.000450779 7.95034e-05 )  
( -0.000210376 0.000211533 0.000123389 )  
( 0.000181219 0.000167937 0.000287743 )  
( -3.32695e-05 0.000115519 -4.32481e-06 )  
( 0.00020299 0.00021226 -7.65466e-05 )  
( 4.26702e-05 6.23492e-05 0.000392702 )  
( -0.00066997 -0.000266143 -0.000221338 )  
( -0.000100741 0.000163304 4.93999e-05 )  
( -0.000100081 3.74323e-05 0.000268299 )  
( 0.000196697 0.000101339 2.42262e-05 )  
( -0.000132911 0.000164957 0.000324964 )  
( -0.000119021 3.0768e-05 7.73988e-05 )  
( -9.15075e-05 0.000123751 9.65597e-05 )  
( -0.000204494 0.000149581 0.000346842 )  
( 0.000547531 -0.00014849 0.000858046 )  
( 0.000139985 7.54197e-05 5.42723e-05 )  
( 7.35141e-05 -3.15473e-05 0.000157029 )  
( -7.23476e-05 7.72592e-05 0.00020029 )  
( -0.000102527 -7.67922e-06 0.000538119 )  
( 3.2048e-05 6.63847e-05 -3.19041e-05 )  
( 5.26192e-05 5.29439e-07 0.000252144 )  
( 0.000102781 -0.000172383 0.000250498 )  
( 0.000202616 3.42334e-05 0.000225226 )  
( 6.1486e-05 0.000408042 0.000731514 )  
( 0.000108534 0.000271019 0.000690561 )  
( -0.000148371 0.000155177 7.92686e-06 )  
( 9.88275e-06 6.05003e-06 0.000102401 )  
( 0.000280346 0.000216714 0.000219355 )  
( 0.000207154 0.000163968 0.000442838 )  
( -0.000154067 7.92328e-05 0.000409588 )  
( -0.000104689 0.000159895 0.000414081 )  
( 0.000550083 5.68367e-06 0.000176354 )  
( -4.4962e-05 0.000113094 2.3521e-05 )  
( 0.000325567 0.000262805 0.000479838 )  
( 2.54573e-05 -3.67005e-05 0.000478936 )  
( 2.18362e-05 9.91944e-06 0.000214013 )  
( 0.00023425 0.00012511 0.0010459 )  
( -0.000159312 -0.000277179 0.000358781 )  
( 0.000196274 0.00017876 0.000203053 )  
( -0.000230462 2.10068e-05 0.000225477 )  
( 0.000177735 0.000115291 0.00064941 )  
( 6.23873e-05 0.000143774 0.000772151 )  
( 0.000251533 -6.22376e-05 0.000452115 )  
( -0.000132255 9.17977e-05 0.000402329 )  
( 0.000218912 0.000355893 0.000535591 )  
( 0.000115793 0.000113475 9.22617e-05 )  
( 0.000291212 -4.46623e-06 0.000336178 )  
( 0.000183655 0.000123709 0.000410196 )  
( -0.000209339 0.000445885 0.000970062 )  
( 0.000223878 0.000214142 0.000389999 )  
( 5.49929e-05 0.000162485 0.000342773 )  
( 2.31211e-05 1.33963e-05 0.000372939 )  
( 0.000165438 2.81779e-05 0.000189028 )  
( 1.28636e-05 -3.29346e-05 1.23573e-05 )  
( -0.000101393 0.000119008 4.91086e-05 )  
( 2.63352e-05 -1.33676e-05 -2.60765e-06 )  
( 0.00079515 -2.15447e-05 -0.000132709 )  
( -9.85805e-06 3.56433e-05 7.2173e-07 )  
( 1.54722e-05 0.000163814 7.16995e-05 )  
( 2.63986e-05 0.000204298 0.000590023 )  
( 0.000146773 0.000390357 0.000511194 )  
( -6.13818e-05 1.93236e-05 0.000162598 )  
( -3.66022e-05 0.000108034 4.10657e-05 )  
( 0.000196921 -2.33055e-05 0.000643532 )  
( 1.91221e-05 -3.14903e-05 5.22921e-05 )  
( -5.19407e-05 -0.000107845 0.000566949 )  
( 0.0003011 0.000461004 0.000552834 )  
( -5.38231e-05 -1.12419e-05 0.000223558 )  
( 0.00022989 -1.82285e-07 0.000562725 )  
( 0.000284464 -0.000287029 0.000557863 )  
( 0.000125211 0.000185102 0.000828531 )  
( 0.000101576 0.000232541 0.000435019 )  
( -0.000147049 0.000187505 0.000529199 )  
( 6.04361e-05 0.000188842 0.00039088 )  
( 3.19821e-05 -1.9997e-06 0.000201285 )  
( 0.000164738 7.46084e-05 0.000387117 )  
( 5.58339e-05 0.000103342 2.19731e-05 )  
( 7.6308e-05 -7.72408e-05 0.000298663 )  
( -4.55015e-05 0.000131339 9.49002e-05 )  
( -4.34606e-05 0.000157513 3.36992e-06 )  
( -0.000186267 1.41437e-05 3.99251e-05 )  
( 0.000518318 0.000788357 0.000237434 )  
( 2.31234e-05 0.000102773 0.000271226 )  
( -0.000170503 0.000101392 -4.27847e-06 )  
( 4.9177e-05 4.35749e-05 0.000907353 )  
( 0.00026902 0.000157234 0.000808862 )  
( -0.000155529 0.000151433 0.000753363 )  
( -0.000211546 0.000168359 0.000792397 )  
( 9.28916e-05 -8.27768e-05 0.000453258 )  
( 0.000169929 0.000650842 0.000199789 )  
( 0.000365099 -0.00013558 0.000260138 )  