/*--------------------------------*- C++ -*----------------------------------*\
| =========                 |                                                 |
| \\      /  F ield         | OpenFOAM: The Open Source CFD Toolbox           |
|  \\    /   O peration     | Version:  2506                                  |
|   \\  /    A nd           | Website:  www.openfoam.com                      |
|    \\/     M anipulation  |                                                 |
\*---------------------------------------------------------------------------*/
FoamFile
{
    version     2.0;
    format      ascii;
    arch        "LSB;label=32;scalar=64";
    class       volVectorField;
    location    "0.01";
    object      stored_U;
}
// * * * * * * * * * * * * * * * * * * * * * * * * * * * * * * * * * * * * * //

dimensions      [0 1 -1 0 0 0 0];

internalField   nonuniform List<vector> 
1152
(
(0.000978793 0.00175421 0.0111914)
(-0.000261232 9.07167e-05 0.00323803)
(8.90434e-05 -0.000390543 0.00597062)
(0.000143296 -0.000164532 0.00243876)
(0.000839825 -0.00184174 0.0105228)
(-0.000371351 0.000542926 0.00477009)
(-1.75759e-05 3.28418e-05 0.00490841)
(0.000293148 0.00030053 0.00528843)
(2.63723e-05 7.0394e-05 0.00188699)
(0.000351983 0.00041787 0.00521644)
(2.86126e-05 0.00114824 0.005661)
(4.35713e-06 0.00100542 0.00623969)
(-8.61892e-05 0.00086161 0.00376131)
(0.000720135 0.000127421 0.00453032)
(0.00072823 0.000848882 0.00433901)
(0.000263261 0.00117699 0.00774501)
(-0.000302406 -0.00294528 0.0160807)
(0.000242052 6.2567e-05 0.00443922)
(0.00131039 0.000663712 0.0112109)
(-0.00013354 0.000695124 0.00813274)
(-0.000252483 0.000574903 0.00494186)
(0.00114719 0.000256707 0.00662914)
(0.000175166 3.54561e-06 0.00444669)
(0.00044874 -0.000566612 0.00675463)
(9.99694e-05 0.00028262 0.000837571)
(-0.000307472 0.000546666 0.0136248)
(0.000142754 0.000184014 0.00450934)
(0.000757351 0.000360859 0.0065688)
(0.000952909 -0.00026618 0.011011)
(0.000164666 0.000315645 0.0042073)
(0.000895584 -0.000142136 0.0154863)
(0.000179978 0.000132374 0.000732331)
(-0.000277818 0.000137707 0.00394553)
(0.000947456 -0.000378436 0.00759824)
(0.000116046 -0.000126254 0.00340284)
(0.00118238 0.000952022 0.0189296)
(-0.000137765 0.00053105 0.00271396)
(0.000225128 -4.24294e-06 0.00915323)
(0.000643879 0.000180406 0.00958202)
(0.00028479 0.000335463 0.0043783)
(-0.000121471 0.000253616 0.00956131)
(4.87724e-05 0.000381463 0.00651554)
(0.000855537 -6.94438e-05 0.00689776)
(0.000387715 0.000306501 0.00644257)
(0.000208615 -0.000168883 0.00844132)
(-3.99173e-06 0.000613894 0.00627134)
(0.000382773 -0.000140698 0.00530772)
(0.0010545 -0.00127455 0.0164758)
(0.000461814 0.000110486 0.00279962)
(0.000437686 0.000210832 0.0033147)
(-0.00202085 0.000254536 0.0124883)
(0.000128487 -0.000370256 0.00578045)
(0.00043504 0.00108182 0.00936186)
(0.00038598 -0.000441349 0.00429912)
(0.000347511 1.66615e-07 0.00498372)
(-0.000541146 0.00088339 0.00719219)
(6.82034e-05 0.00022075 0.00547068)
(0.00039544 0.000306094 0.0106128)
(0.000392577 -0.000342982 0.00685984)
(-0.000270184 -0.000468577 0.0106624)
(0.000431271 0.00084527 0.0126518)
(2.604e-05 0.00038964 0.00610987)
(4.27191e-05 -3.38807e-05 0.0132498)
(-0.000434098 -0.00092566 0.0102678)
(-4.08769e-06 7.22483e-05 -0.000416827)
(0.00100378 0.00163827 0.0190425)
(8.5064e-05 -1.82872e-05 0.00241558)
(0.000153108 -0.000209393 0.0068407)
(0.000648512 7.02464e-05 0.00643846)
(7.99552e-05 -0.000318952 0.00445358)
(0.000268486 -0.000300047 0.0151127)
(0.000443566 -0.000475661 0.00853196)
(-0.000209039 0.000195513 0.00812372)
(0.00025583 -0.000490511 0.00898092)
(0.00028071 5.14792e-05 0.00557128)
(-0.000152737 -0.000820492 0.0147937)
(-0.000193037 0.00102003 0.00729577)
(-8.92629e-05 0.00026825 0.00480556)
(1.94291e-05 0.0001147 0.00453108)
(-0.000700541 -0.000645393 0.0139286)
(-0.000173938 0.00101417 0.0125196)
(0.000383887 0.000152646 0.00513247)
(0.00114789 -0.000239163 0.0061613)
(-0.000108491 0.00054482 0.00555529)
(0.00088713 -6.13477e-06 0.00962731)
(0.000973692 0.000267723 0.00525571)
(0.000554493 0.000221671 0.00306715)
(0.000188946 -4.22618e-05 0.00400205)
(-4.16796e-05 -0.000141364 0.00153946)
(0.000220344 -4.25373e-05 0.00202973)
(0.000268731 -0.000315855 0.00338374)
(0.000370191 -0.00159874 0.00616048)
(0.000803055 -0.000251995 0.0115732)
(-8.0999e-05 -0.000420165 0.00135593)
(-0.00180539 -0.000346324 0.0103239)
(9.9635e-05 0.000685983 0.00719018)
(-0.00251882 -0.00239193 -0.000952048)
(0.000331587 0.000846659 0.00588191)
(-0.00238523 -0.000134869 0.000480913)
(-0.000660414 -0.000169085 0.00577147)
(-0.000375812 -2.46293e-05 0.00422116)
(-0.000117789 -0.000338856 0.0070381)
(-0.00164613 -0.000763483 0.00895816)
(-0.000525101 -0.000476157 0.00870827)
(0.00144233 -0.00197272 0.00395358)
(-0.00147407 -0.0043841 0.00227921)
(-0.000738947 0.000136387 0.00427271)
(0.00134152 -0.000610597 0.00864077)
(8.66476e-05 -0.00042845 0.000826805)
(-0.000692528 -0.00234534 0.00681545)
(-0.000811765 -0.00128235 0.00498899)
(-0.00183428 -0.00425296 0.000653559)
(0.000327801 -0.000645524 0.0104291)
(-0.000345317 -0.00182706 0.00700705)
(-0.00105435 7.27439e-05 0.000210274)
(-0.000330073 -0.000362461 0.00951115)
(-1.25609e-05 -0.00051563 0.00973354)
(-0.000347536 -0.000277404 0.0121764)
(-0.000749327 -5.98426e-05 0.00817542)
(-0.000510064 -0.000606786 0.00950843)
(0.000615034 -0.000176332 0.00821847)
(-0.000105716 0.000823438 0.00799578)
(-0.00156082 0.00137363 0.00581786)
(-0.00239346 -0.00038972 0.0135509)
(0.000899046 -0.000769573 0.00383403)
(-0.00088109 0.00242315 0.00678136)
(-0.00465318 0.00321785 0.00839209)
(-0.00679927 0.000110239 0.0127516)
(-1.86919e-06 0.000345167 0.000943077)
(0.000616413 0.000541406 0.000738428)
(0.000140785 -0.000337831 0.00035107)
(-0.000973251 -0.000827492 0.00149229)
(-0.000468552 6.58605e-05 0.00134499)
(0.000160132 -7.46213e-05 0.00162815)
(0.000186168 -0.000545184 0.00143288)
(-0.000449096 -0.000641017 0.00194213)
(-0.000192946 8.45114e-05 0.00120469)
(-3.79835e-05 5.93845e-05 0.00106783)
(-0.000500686 -0.000142699 0.00105536)
(-0.00101127 -5.78353e-05 0.00248707)
(-0.000449806 -0.000949912 0.00113371)
(-0.000427008 -0.00128839 0.000922724)
(-0.000411703 -0.000366242 0.00103967)
(-0.000304981 0.00034468 0.00247773)
(3.7323e-05 0.000118581 0.00423029)
(0.00017244 9.99502e-05 0.00423387)
(7.99386e-05 -4.77159e-05 0.00373937)
(-0.000224684 -0.000152159 0.00415073)
(-0.000119925 2.25005e-05 0.00428825)
(8.04327e-05 -9.02623e-06 0.00449817)
(0.000118281 -7.59243e-05 0.00417671)
(-6.2884e-05 -8.35845e-05 0.00437912)
(-4.35802e-05 -1.21188e-05 0.00418741)
(6.91118e-05 3.38144e-05 0.00431598)
(-2.07431e-06 7.26516e-05 0.0042132)
(-0.000110703 0.000241379 0.00469558)
(-4.30153e-05 -0.000353585 0.0042022)
(0.00012734 -0.000371875 0.00448139)
(0.000288088 -0.000109824 0.00440044)
(0.000561043 0.000327343 0.00447385)
(2.52391e-05 8.00911e-05 0.00369036)
(7.84197e-05 5.53226e-05 0.00370461)
(6.52125e-05 1.64738e-05 0.00359019)
(-3.53705e-05 -3.2772e-06 0.00367778)
(-2.59679e-05 2.7324e-05 0.00371525)
(4.85198e-05 1.01869e-05 0.00377834)
(7.6793e-05 -5.15442e-06 0.00368172)
(1.69745e-05 1.1511e-05 0.00372648)
(-1.56393e-05 -2.02832e-05 0.00369527)
(4.57358e-05 -7.98723e-06 0.00373121)
(6.73626e-05 2.25604e-05 0.00367113)
(4.34641e-05 0.000122621 0.0037738)
(-1.0323e-05 -0.00013502 0.00372364)
(8.88845e-05 -0.000138242 0.00376176)
(0.000210967 -6.3572e-05 0.0036571)
(0.000321166 9.90015e-05 0.00358005)
(2.59225e-05 5.99938e-05 0.00374061)
(4.82391e-05 4.70505e-05 0.00374539)
(4.89421e-05 3.7103e-05 0.00370736)
(1.74774e-05 3.61906e-05 0.0037231)
(9.52572e-06 3.06551e-05 0.00374242)
(3.91121e-05 2.41734e-05 0.00376268)
(5.41834e-05 2.44981e-05 0.00372972)
(3.77984e-05 4.02719e-05 0.00373384)
(9.44216e-06 -1.3387e-06 0.00374194)
(4.21546e-05 4.85525e-06 0.00375793)
(6.60431e-05 2.62833e-05 0.00373328)
(6.47629e-05 7.64495e-05 0.00374216)
(1.45793e-05 -4.52172e-05 0.00376513)
(6.6353e-05 -4.08389e-05 0.00377863)
(0.000128547 -1.0193e-05 0.00373066)
(0.000176492 5.37509e-05 0.00366646)
(2.46938e-05 4.60648e-05 0.00375819)
(3.44848e-05 4.03335e-05 0.0037561)
(3.59821e-05 3.73663e-05 0.00374137)
(2.57713e-05 3.85367e-05 0.00373924)
(1.84432e-05 2.9184e-05 0.00375394)
(3.17639e-05 2.68797e-05 0.00375672)
(3.88275e-05 2.93125e-05 0.00374312)
(3.4218e-05 3.81277e-05 0.00373689)
(1.73992e-05 1.01558e-05 0.00375441)
(3.4642e-05 1.30143e-05 0.00375637)
(4.77964e-05 2.39088e-05 0.00374232)
(4.84911e-05 4.59837e-05 0.00373066)
(1.97671e-05 -1.07772e-05 0.00376533)
(4.51918e-05 -7.51265e-06 0.00376423)
(7.27527e-05 5.33967e-06 0.00373764)
(9.10007e-05 3.01493e-05 0.00369585)
(2.12516e-05 3.56761e-05 0.00376606)
(2.5786e-05 3.28445e-05 0.00376233)
(2.66474e-05 3.16389e-05 0.00375473)
(2.27482e-05 3.21771e-05 0.00374995)
(1.82728e-05 2.56458e-05 0.00376122)
(2.46922e-05 2.45697e-05 0.00375895)
(2.79287e-05 2.59892e-05 0.00375136)
(2.6094e-05 2.99956e-05 0.00374461)
(1.73358e-05 1.4145e-05 0.00376016)
(2.61377e-05 1.51862e-05 0.00375756)
(3.23707e-05 1.99493e-05 0.00374835)
(3.24084e-05 2.90254e-05 0.00373741)
(1.78863e-05 2.45871e-06 0.00376408)
(3.02443e-05 4.01478e-06 0.00375969)
(4.20404e-05 9.19073e-06 0.00374478)
(4.84078e-05 1.89057e-05 0.00372085)
(1.71506e-05 2.74175e-05 0.00377057)
(1.93709e-05 2.5813e-05 0.00376699)
(1.96798e-05 2.50226e-05 0.00376204)
(1.76839e-05 2.49141e-05 0.00375764)
(1.54816e-05 2.13289e-05 0.00376614)
(1.86315e-05 2.05498e-05 0.00376308)
(1.99744e-05 2.09666e-05 0.00375796)
(1.8792e-05 2.24054e-05 0.00375255)
(1.46561e-05 1.42151e-05 0.00376412)
(1.90115e-05 1.43227e-05 0.00376086)
(2.16982e-05 1.60672e-05 0.00375466)
(2.11959e-05 1.94738e-05 0.00374689)
(1.44252e-05 7.07204e-06 0.00376477)
(2.03153e-05 7.53823e-06 0.00376065)
(2.51839e-05 9.47456e-06 0.00375181)
(2.69745e-05 1.29888e-05 0.00373775)
(1.33183e-05 2.08354e-05 0.00377354)
(1.44219e-05 1.98293e-05 0.00377054)
(1.44088e-05 1.91771e-05 0.00376697)
(1.31231e-05 1.87552e-05 0.00376344)
(1.2284e-05 1.70625e-05 0.00376977)
(1.38047e-05 1.64204e-05 0.00376702)
(1.42201e-05 1.6299e-05 0.00376336)
(1.3279e-05 1.65552e-05 0.00375934)
(1.15962e-05 1.25654e-05 0.00376749)
(1.36602e-05 1.2293e-05 0.00376467)
(1.46385e-05 1.26969e-05 0.00376045)
(1.39463e-05 1.37409e-05 0.00375516)
(1.11308e-05 7.9915e-06 0.00376669)
(1.3828e-05 7.94522e-06 0.00376349)
(1.56671e-05 8.4381e-06 0.00375799)
(1.58038e-05 9.5002e-06 0.00374908)
(1.00903e-05 1.56571e-05 0.0037755)
(1.06171e-05 1.49881e-05 0.00377312)
(1.04559e-05 1.44443e-05 0.00377048)
(9.53406e-06 1.39437e-05 0.00376777)
(9.4127e-06 1.32678e-05 0.00377243)
(1.0107e-05 1.27497e-05 0.0037702)
(1.01e-05 1.24305e-05 0.00376755)
(9.32905e-06 1.22222e-05 0.00376463)
(8.86548e-06 1.03683e-05 0.00377027)
(9.78138e-06 9.99454e-06 0.00376806)
(9.98799e-06 9.88214e-06 0.00376516)
(9.30134e-06 9.99945e-06 0.0037615)
(8.3861e-06 7.36244e-06 0.00376896)
(9.55069e-06 7.12458e-06 0.00376658)
(1.00908e-05 7.05844e-06 0.00376297)
(9.68869e-06 7.17153e-06 0.00375675)
(7.50997e-06 1.16337e-05 0.0037768)
(7.73873e-06 1.11786e-05 0.00377497)
(7.53038e-06 1.07429e-05 0.00377301)
(6.8463e-06 1.02794e-05 0.00377097)
(7.05608e-06 1.00981e-05 0.00377436)
(7.33542e-06 9.69674e-06 0.00377264)
(7.1618e-06 9.3493e-06 0.00377071)
(6.54485e-06 9.00819e-06 0.00376857)
(6.6379e-06 8.20445e-06 0.00377249)
(6.99153e-06 7.84969e-06 0.00377081)
(6.88186e-06 7.57775e-06 0.00376878)
(6.28637e-06 7.37709e-06 0.00376614)
(6.22626e-06 6.18863e-06 0.00377111)
(6.66281e-06 5.91357e-06 0.00376934)
(6.67646e-06 5.66508e-06 0.00376683)
(6.1785e-06 5.45786e-06 0.00376207)
(5.50587e-06 8.53625e-06 0.00377765)
(5.59105e-06 8.22451e-06 0.00377626)
(5.38597e-06 7.88951e-06 0.00377482)
(4.8747e-06 7.5052e-06 0.00377327)
(5.1991e-06 7.54614e-06 0.00377574)
(5.28179e-06 7.24299e-06 0.00377444)
(5.06485e-06 6.93529e-06 0.00377303)
(4.5837e-06 6.5989e-06 0.00377143)
(4.88937e-06 6.29734e-06 0.0037742)
(4.98161e-06 6.00134e-06 0.00377293)
(4.76977e-06 5.71756e-06 0.00377148)
(4.28583e-06 5.44501e-06 0.00376949)
(4.56436e-06 4.92981e-06 0.00377291)
(4.67128e-06 4.68131e-06 0.00377159)
(4.4991e-06 4.41163e-06 0.00376975)
(4.04033e-06 4.14048e-06 0.0037658)
(3.96609e-06 6.15683e-06 0.00377822)
(3.9898e-06 5.94281e-06 0.00377717)
(3.81116e-06 5.69385e-06 0.00377609)
(3.43161e-06 5.39533e-06 0.0037749)
(3.75811e-06 5.52315e-06 0.00377673)
(3.75722e-06 5.29778e-06 0.00377574)
(3.55351e-06 5.04929e-06 0.00377469)
(3.18839e-06 4.76621e-06 0.00377346)
(3.53473e-06 4.69562e-06 0.00377548)
(3.51712e-06 4.46439e-06 0.00377451)
(3.29931e-06 4.22128e-06 0.00377344)
(2.92503e-06 3.97016e-06 0.00377185)
(3.29082e-06 3.76441e-06 0.00377433)
(3.26214e-06 3.56281e-06 0.00377333)
(3.05298e-06 3.32895e-06 0.0037719)
(2.68166e-06 3.08231e-06 0.00376841)
(2.77274e-06 4.30795e-06 0.0037786)
(2.77413e-06 4.16334e-06 0.00377779)
(2.63251e-06 3.98588e-06 0.00377696)
(2.35847e-06 3.76727e-06 0.00377601)
(2.63407e-06 3.90972e-06 0.00377742)
(2.6054e-06 3.74779e-06 0.00377665)
(2.43926e-06 3.56062e-06 0.00377585)
(2.17253e-06 3.34389e-06 0.00377487)
(2.47882e-06 3.36682e-06 0.00377639)
(2.42595e-06 3.1966e-06 0.00377565)
(2.24237e-06 3.00886e-06 0.00377482)
(1.96727e-06 2.80988e-06 0.00377349)
(2.30457e-06 2.74111e-06 0.00377539)
(2.23363e-06 2.59e-06 0.0037746)
(2.04859e-06 2.40829e-06 0.00377342)
(1.77129e-06 2.21595e-06 0.00377021)
(1.82469e-06 2.83486e-06 0.00377886)
(1.82078e-06 2.74164e-06 0.0037782)
(1.71967e-06 2.62343e-06 0.00377754)
(1.53423e-06 2.47539e-06 0.00377675)
(1.7364e-06 2.59571e-06 0.00377789)
(1.70655e-06 2.4871e-06 0.00377727)
(1.58636e-06 2.35768e-06 0.00377663)
(1.40472e-06 2.207e-06 0.0037758)
(1.63496e-06 2.25456e-06 0.00377702)
(1.58341e-06 2.13898e-06 0.00377642)
(1.44867e-06 2.00773e-06 0.00377575)
(1.2612e-06 1.8678e-06 0.00377458)
(1.519e-06 1.8543e-06 0.00377613)
(1.45098e-06 1.75042e-06 0.00377548)
(1.31285e-06 1.62289e-06 0.00377446)
(1.12236e-06 1.49013e-06 0.00377141)
(1.04297e-06 1.62442e-06 0.00377902)
(1.0399e-06 1.5707e-06 0.00377845)
(9.78804e-07 1.50205e-06 0.00377789)
(8.70273e-07 1.4155e-06 0.0037772)
(9.92725e-07 1.49691e-06 0.00377818)
(9.72158e-07 1.4331e-06 0.00377765)
(8.99421e-07 1.35604e-06 0.0037771)
(7.93013e-07 1.26645e-06 0.00377636)
(9.34653e-07 1.30715e-06 0.00377742)
(8.99443e-07 1.23933e-06 0.0037769)
(8.17407e-07 1.16115e-06 0.00377633)
(7.07595e-07 1.07772e-06 0.00377524)
(8.67606e-07 1.08213e-06 0.0037766)
(8.21283e-07 1.02075e-06 0.00377603)
(7.36607e-07 9.44837e-07 0.00377511)
(6.23961e-07 8.66253e-07 0.00377214)
(4.19541e-07 6.88206e-07 0.00377911)
(4.17526e-07 6.64784e-07 0.00377859)
(3.91847e-07 6.35088e-07 0.00377807)
(3.47081e-07 5.97602e-07 0.00377742)
(3.97876e-07 6.37224e-07 0.00377834)
(3.87855e-07 6.09573e-07 0.00377784)
(3.56837e-07 5.75799e-07 0.00377735)
(3.12646e-07 5.36429e-07 0.00377665)
(3.73413e-07 5.59178e-07 0.00377763)
(3.56318e-07 5.29832e-07 0.00377715)
(3.21014e-07 4.95827e-07 0.00377662)
(2.74713e-07 4.58676e-07 0.00377558)
(3.45061e-07 4.65277e-07 0.00377685)
(3.22514e-07 4.38513e-07 0.00377632)
(2.85221e-07 4.05276e-07 0.00377544)
(2.37069e-07 3.69134e-07 0.00377252)
(-0.000109558 0.000503463 0.00820003)
(2.65758e-05 0.000157379 0.00406781)
(0.00149383 0.000166861 0.00971388)
(6.05846e-05 0.000714978 0.00355956)
(-6.42844e-05 0.00031125 0.00314712)
(0.000355489 0.000401319 0.00281172)
(0.00136772 0.00036867 0.00625396)
(0.000517856 0.00150409 0.00560612)
(0.000300142 0.000354449 0.00756941)
(0.000466466 0.000657664 0.0051646)
(0.000741925 0.000369403 0.00602597)
(0.000825342 0.00172326 0.00717545)
(8.00396e-06 -3.63184e-05 0.000878464)
(0.000274485 -9.28155e-05 0.00321147)
(0.000801044 -0.00036725 0.00589887)
(0.000445208 0.000361772 0.00625236)
(-0.000660623 0.000274566 0.00866967)
(1.55785e-05 0.000636042 0.00472434)
(9.54967e-05 -1.78565e-05 0.00837313)
(0.00130932 0.000126169 0.0108277)
(-0.000165665 0.000288272 0.0097851)
(2.97756e-05 0.000124546 0.00738281)
(0.000152871 0.000259492 0.00162787)
(0.000256463 0.000198028 0.00388627)
(0.000334049 0.000308551 0.0073743)
(0.00035109 -2.37225e-05 0.0108211)
(6.52993e-05 0.000370913 0.0106929)
(-0.000222217 0.000363557 0.0106163)
(0.000691913 0.000887538 0.0137156)
(-0.000207922 0.000500251 0.01029)
(-0.000171633 -0.000234098 0.00506854)
(0.000471 0.0003646 0.0123038)
(0.000115789 9.23468e-05 0.00405034)
(6.49392e-05 0.000168667 0.00966657)
(-0.000144738 0.000475011 0.0070689)
(0.000176713 7.50868e-05 0.000696383)
(3.89886e-05 0.000216194 0.00196672)
(0.000155581 -0.000750369 0.0114702)
(2.1844e-05 0.000141622 0.00771919)
(-0.000126504 -0.00127834 0.0155853)
(-0.000361597 -0.000413515 0.00736017)
(-0.000143342 -0.000164842 0.00394098)
(-0.000301646 -0.000490818 0.0157233)
(-0.000103547 -0.000446183 0.00645871)
(-0.000655616 -0.00054921 0.0048203)
(0.000228092 -0.000580726 0.0104194)
(0.000146687 -1.39634e-05 0.00619936)
(-0.000177532 -2.81197e-05 0.015262)
(0.000587653 0.000623892 0.00470984)
(-0.000454153 0.000295149 0.0119842)
(-0.000224022 0.00018647 0.00480126)
(-0.000277411 -0.00030789 0.00743162)
(0.000515756 0.000130674 0.00789156)
(-0.0004764 0.00045866 0.00673833)
(-0.000311979 6.21014e-05 0.0075177)
(5.55186e-05 -0.000897136 0.0115416)
(-1.63695e-05 -0.000909467 0.0142001)
(-0.000481397 -6.50764e-05 0.0109521)
(-0.000803524 0.000337191 0.0091717)
(-0.000117934 -0.000353445 0.00632193)
(-0.000610488 -1.99097e-06 0.00973567)
(-0.000318156 -0.000546135 0.00697822)
(-0.000161455 0.000166395 0.00705143)
(-0.000437793 -0.000265791 0.0121597)
(0.00021357 0.000317539 0.00792762)
(-0.000957453 0.00126365 0.0136861)
(-0.000211698 -1.48603e-05 0.00685865)
(-7.5213e-05 2.15149e-05 0.00253686)
(-0.000824608 -0.000406652 0.0139665)
(-0.000104038 0.000260958 0.00542653)
(-0.000548465 8.37932e-05 0.00930399)
(-0.000231652 0.00016889 0.0111088)
(-2.25224e-05 6.31005e-05 0.00109822)
(-0.000582936 0.000236634 0.0164906)
(-0.000390282 0.00098943 0.0151921)
(-0.000286037 -3.46415e-05 0.00610889)
(-0.000373613 0.000227783 0.00570003)
(-0.000288986 0.00015574 0.00743369)
(-0.000388124 0.000528379 0.00806999)
(-0.00075751 2.16886e-05 0.0127729)
(-0.00273586 0.00201286 0.0130545)
(0.000419843 -0.000138176 0.00345443)
(0.00118009 0.000413711 0.00538836)
(-0.000107009 9.14403e-05 0.0021893)
(-3.45322e-05 0.000270188 0.00129569)
(0.000796505 0.00123025 0.00693491)
(-2.46409e-06 0.000217816 0.00349002)
(-0.00121857 0.000654683 0.00672672)
(-0.00063673 0.00140514 0.00869394)
(-1.6729e-05 8.96228e-05 0.00489677)
(-0.0003254 -0.000434633 0.00396695)
(-9.25801e-05 0.000571055 0.00438636)
(-0.000300734 0.000311686 0.0055083)
(-0.000295845 0.000103715 0.00484438)
(-0.000299934 9.32269e-05 0.00702118)
(-0.000400219 0.000261567 0.0050222)
(-0.000302079 -0.00054613 0.00190445)
(-0.0042118 0.00457621 0.00131057)
(-0.00102872 0.00117377 0.00297384)
(-0.00222998 0.000752667 0.00682199)
(-0.00081804 -0.000334209 0.00578023)
(-0.000935666 0.000614181 0.00630086)
(-0.000119162 -0.00038283 0.00731873)
(-0.00831763 6.32779e-05 0.000793191)
(-0.000178351 -8.31098e-05 0.00514326)
(-0.0022866 0.000455111 0.00854833)
(-0.000609902 0.00118357 0.00788038)
(-0.00157955 -0.000115905 0.00543891)
(-6.81027e-05 0.000134808 0.00515251)
(-0.00168077 -0.00236196 0.00358576)
(5.48757e-05 -0.000128802 0.00595081)
(-0.000277716 -0.000376272 0.00718603)
(0.00111868 -0.000385532 0.0138223)
(-0.00426022 0.00408232 0.0274237)
(-0.00794304 0.00551388 0.010911)
(-0.00477811 0.00208443 0.00875382)
(-0.000611115 0.000240481 0.00880966)
(-0.00153503 -0.000725495 0.0155099)
(-0.00131836 0.000710164 0.0127102)
(0.000506688 -0.00345155 0.00683345)
(0.000360078 0.000104531 0.00859191)
(0.000766196 0.000770112 0.0123485)
(0.00175351 0.000333995 0.00978934)
(0.00370969 -0.00390293 0.00358933)
(0.00085495 -5.73464e-05 0.00760664)
(0.00095617 -0.000126645 0.00910315)
(0.00159792 -0.000719735 0.00826209)
(0.00356547 -0.00348691 0.00478301)
(-0.00127515 -0.000377851 0.00268324)
(-0.000566697 -0.000257171 0.00195901)
(0.000251735 7.03039e-05 0.0013651)
(0.000742383 0.000356662 0.00167874)
(-0.000815041 0.000564517 0.00236504)
(-0.000317289 0.000903946 0.00330539)
(0.00112632 0.000149753 0.00268866)
(0.0020285 -0.000463501 0.000789623)
(-0.000304176 0.000273564 0.00222253)
(0.000202515 0.000651345 0.002595)
(0.00160098 1.48127e-05 0.00178888)
(0.00222975 -0.00113545 -0.000559701)
(0.000104726 0.000101193 0.00205438)
(0.000183847 0.000174922 0.00190972)
(0.00120635 -0.000414781 0.00135622)
(0.00180857 -0.00143384 -0.000540986)
(-0.000171027 -0.000290761 0.00493607)
(0.000208501 -0.000391736 0.00547475)
(0.000572614 -0.000267255 0.00480184)
(0.000866278 0.000132345 0.00436634)
(-0.000107604 1.46796e-05 0.00466107)
(0.00021442 -2.16787e-05 0.00528053)
(0.000872479 -0.000173039 0.00487205)
(0.00130187 -5.93625e-05 0.00394996)
(3.61802e-05 3.95281e-05 0.00450859)
(0.000346069 8.95814e-05 0.00492646)
(0.000990846 -0.000134536 0.00452224)
(0.00131838 -0.000398379 0.00348576)
(0.000157248 2.40428e-05 0.00428611)
(0.000317794 -7.82781e-06 0.00455056)
(0.000807635 -0.000288294 0.00426297)
(0.00106144 -0.000683568 0.00334902)
(-3.373e-05 -0.000127579 0.00393823)
(0.000116701 -0.000162606 0.00399587)
(0.000296865 -0.000129636 0.00375801)
(0.000420034 4.74785e-06 0.00351926)
(-7.9935e-06 -3.48365e-05 0.00391722)
(0.000134361 -5.54431e-05 0.00402444)
(0.000390421 -8.54092e-05 0.00376376)
(0.000526561 -2.14277e-05 0.00332029)
(3.8202e-05 -1.35037e-05 0.00386731)
(0.000165781 -2.08672e-05 0.00392012)
(0.000410324 -9.86545e-05 0.00361657)
(0.000508324 -0.000150544 0.00309111)
(7.07468e-05 -5.3424e-06 0.00372079)
(0.000149511 -3.42318e-05 0.00373332)
(0.000348952 -0.000149622 0.00345326)
(0.000415933 -0.00026617 0.00294747)
(1.31016e-05 -5.44385e-05 0.00383423)
(7.85218e-05 -6.3088e-05 0.00385088)
(0.000158692 -4.9938e-05 0.00376942)
(0.000204031 9.76555e-07 0.00365418)
(2.30495e-05 -3.06058e-05 0.00383741)
(9.17277e-05 -4.04526e-05 0.0038606)
(0.000192258 -4.40016e-05 0.00375133)
(0.000234058 -1.19077e-05 0.00356673)
(3.66174e-05 -1.73911e-05 0.00380221)
(0.000100225 -3.01228e-05 0.00380894)
(0.000197959 -5.67692e-05 0.00367349)
(0.000225782 -6.24746e-05 0.0034524)
(4.40362e-05 -7.52585e-06 0.00369174)
(9.27391e-05 -2.77477e-05 0.00368979)
(0.000175534 -7.6518e-05 0.00355843)
(0.000187574 -0.000113499 0.00333535)
(2.04209e-05 -2.10234e-05 0.00378866)
(5.05772e-05 -2.31605e-05 0.00378602)
(8.38402e-05 -1.73655e-05 0.00374634)
(9.79701e-05 2.83449e-06 0.00368214)
(2.42188e-05 -1.70722e-05 0.00379119)
(5.72661e-05 -2.11825e-05 0.00378552)
(9.57867e-05 -2.0416e-05 0.00372656)
(0.000105959 -4.96986e-06 0.00363054)
(2.78053e-05 -1.21082e-05 0.00375928)
(5.93283e-05 -2.02611e-05 0.00374587)
(9.65025e-05 -3.01126e-05 0.00366828)
(0.000100468 -2.7392e-05 0.00354967)
(2.83009e-05 -5.7227e-06 0.00365518)
(5.48768e-05 -1.75573e-05 0.00363903)
(8.66125e-05 -3.85805e-05 0.00355892)
(8.32496e-05 -4.96275e-05 0.00343861)
(1.8083e-05 -5.66686e-06 0.00377196)
(3.23035e-05 -6.4159e-06 0.00376575)
(4.59835e-05 -4.15995e-06 0.00374431)
(4.91595e-05 4.28026e-06 0.00370803)
(1.92995e-05 -7.17755e-06 0.00376981)
(3.5193e-05 -9.026e-06 0.00375955)
(4.98395e-05 -8.17393e-06 0.00372561)
(5.04501e-05 -6.5918e-07 0.00367105)
(1.97423e-05 -6.45857e-06 0.00373702)
(3.52086e-05 -1.09502e-05 0.00372087)
(4.89716e-05 -1.49029e-05 0.00367323)
(4.6815e-05 -1.15867e-05 0.00360284)
(1.86322e-05 -3.50394e-06 0.00363409)
(3.23182e-05 -1.00502e-05 0.00361633)
(4.38501e-05 -1.9379e-05 0.00356599)
(3.8278e-05 -2.21357e-05 0.00349623)
(1.41711e-05 1.13682e-06 0.00376665)
(2.08576e-05 5.13629e-07 0.00376112)
(2.62505e-05 1.0451e-06 0.00374844)
(2.58638e-05 4.67279e-06 0.00372569)
(1.42794e-05 -1.52427e-06 0.00376116)
(2.16782e-05 -2.55588e-06 0.00375207)
(2.70437e-05 -2.31798e-06 0.00373056)
(2.53503e-05 1.38727e-06 0.00369468)
(1.38079e-05 -2.59029e-06 0.00372682)
(2.1074e-05 -5.07531e-06 0.00371253)
(2.58553e-05 -6.7515e-06 0.00367989)
(2.28428e-05 -4.45255e-06 0.00363123)
(1.25201e-05 -1.84876e-06 0.00362357)
(1.90751e-05 -5.44558e-06 0.00360774)
(2.28012e-05 -9.67842e-06 0.00357281)
(1.81941e-05 -9.97334e-06 0.00352613)
(1.0666e-05 3.73801e-06 0.00376606)
(1.36628e-05 3.08463e-06 0.00376186)
(1.55996e-05 2.96173e-06 0.00375364)
(1.43554e-05 4.44265e-06 0.00373758)
(1.03467e-05 1.19307e-06 0.00375867)
(1.36298e-05 4.44545e-07 0.0037515)
(1.53613e-05 3.95811e-07 0.0037364)
(1.34191e-05 2.1854e-06 0.00370917)
(9.69208e-06 -4.02955e-07 0.00372312)
(1.28756e-05 -1.84637e-06 0.00371117)
(1.42071e-05 -2.65815e-06 0.00368619)
(1.16628e-05 -1.25266e-06 0.0036476)
(8.58373e-06 -8.19604e-07 0.00361932)
(1.14194e-05 -2.83632e-06 0.0036058)
(1.22045e-05 -4.79701e-06 0.00357885)
(8.92293e-06 -4.45467e-06 0.00354295)
(7.91164e-06 4.34725e-06 0.00376726)
(9.14316e-06 3.73793e-06 0.00376414)
(9.63874e-06 3.3763e-06 0.00375838)
(8.35935e-06 3.93059e-06 0.00374563)
(7.47675e-06 2.23458e-06 0.00375892)
(8.78155e-06 1.64614e-06 0.00375327)
(9.09635e-06 1.46079e-06 0.00374147)
(7.46389e-06 2.32663e-06 0.00371838)
(6.85699e-06 6.41856e-07 0.00372263)
(8.06829e-06 -2.56587e-07 0.00371244)
(8.12664e-06 -6.84462e-07 0.00369141)
(6.21524e-06 1.354e-07 0.0036576)
(5.97983e-06 -2.5388e-07 0.00361839)
(6.98924e-06 -1.41827e-06 0.00360662)
(6.73417e-06 -2.33214e-06 0.00358379)
(4.48549e-06 -1.89566e-06 0.00355304)
(5.81289e-06 4.05654e-06 0.00376901)
(6.2242e-06 3.54382e-06 0.00376663)
(6.16068e-06 3.15004e-06 0.00376223)
(5.08958e-06 3.30173e-06 0.00375118)
(5.40383e-06 2.40858e-06 0.00376024)
(5.79675e-06 1.94829e-06 0.00375558)
(5.59342e-06 1.73496e-06 0.00374555)
(4.3445e-06 2.14399e-06 0.0037245)
(4.88512e-06 1.02142e-06 0.00372354)
(5.18888e-06 4.35273e-07 0.0037145)
(4.82103e-06 1.8377e-07 0.00369554)
(3.44738e-06 6.6542e-07 0.00366407)
(4.2212e-06 2.13305e-08 0.00361899)
(4.38217e-06 -6.68936e-07 0.00360837)
(3.82353e-06 -1.09665e-06 0.00358772)
(2.30148e-06 -7.10863e-07 0.00355947)
(4.23285e-06 3.42339e-06 0.00377072)
(4.28719e-06 3.01799e-06 0.00376886)
(4.04404e-06 2.67157e-06 0.00376522)
(3.19905e-06 2.67137e-06 0.00375508)
(3.89442e-06 2.17595e-06 0.00376178)
(3.8979e-06 1.82449e-06 0.00375776)
(3.54858e-06 1.62987e-06 0.0037487)
(2.61597e-06 1.81963e-06 0.00372869)
(3.48659e-06 1.04884e-06 0.00372489)
(3.41025e-06 6.52856e-07 0.00371657)
(2.95228e-06 4.96355e-07 0.00369873)
(1.97082e-06 7.88268e-07 0.00366841)
(2.99273e-06 1.31111e-07 0.00362017)
(2.81046e-06 -2.92674e-07 0.00361026)
(2.2328e-06 -4.87752e-07 0.00359077)
(1.19233e-06 -1.75369e-07 0.00356375)
(3.03898e-06 2.7059e-06 0.00377217)
(2.95592e-06 2.39995e-06 0.00377064)
(2.68957e-06 2.12306e-06 0.00376746)
(2.05419e-06 2.07176e-06 0.00375781)
(2.77778e-06 1.78526e-06 0.0037632)
(2.63906e-06 1.52542e-06 0.00375957)
(2.29417e-06 1.36586e-06 0.00375105)
(1.61546e-06 1.45112e-06 0.00373159)
(2.471e-06 9.13749e-07 0.00372623)
(2.26594e-06 6.43775e-07 0.00371835)
(1.848e-06 5.43109e-07 0.00370111)
(1.15455e-06 7.25491e-07 0.00367139)
(2.11095e-06 1.54634e-07 0.0036214)
(1.82753e-06 -1.11425e-07 0.00361193)
(1.33344e-06 -1.95801e-07 0.00359306)
(6.20726e-07 4.50229e-08 0.00356667)
(2.12293e-06 2.01332e-06 0.0037733)
(2.0058e-06 1.79325e-06 0.00377199)
(1.77911e-06 1.58629e-06 0.00376908)
(1.32238e-06 1.52875e-06 0.0037597)
(1.93255e-06 1.35819e-06 0.00376434)
(1.76737e-06 1.17333e-06 0.00376097)
(1.48451e-06 1.05206e-06 0.00375275)
(1.00547e-06 1.08778e-06 0.00373358)
(1.7119e-06 7.18092e-07 0.00372736)
(1.4954e-06 5.3574e-07 0.00371974)
(1.16314e-06 4.7042e-07 0.00370283)
(6.8274e-07 5.84094e-07 0.00367342)
(1.45734e-06 1.37812e-07 0.00362247)
(1.18502e-06 -3.03664e-08 0.00361326)
(8.03856e-07 -6.31514e-08 0.00359474)
(3.21165e-07 1.12827e-07 0.00356867)
(1.39723e-06 1.381e-06 0.00377411)
(1.29484e-06 1.23318e-06 0.00377294)
(1.12961e-06 1.09033e-06 0.00377019)
(8.22906e-07 1.04486e-06 0.00376096)
(1.26884e-06 9.44463e-07 0.00376519)
(1.13051e-06 8.21131e-07 0.00376196)
(9.27711e-07 7.36079e-07 0.00375392)
(6.08452e-07 7.49826e-07 0.0037349)
(1.12105e-06 5.08793e-07 0.0037282)
(9.46275e-07 3.91224e-07 0.00372075)
(7.11092e-07 3.49647e-07 0.00370403)
(3.94837e-07 4.18047e-07 0.00367477)
(9.52128e-07 1.04171e-07 0.00362329)
(7.40021e-07 9.5506e-10 0.00361424)
(4.74281e-07 -9.51218e-09 0.0035959)
(1.6175e-07 1.10137e-07 0.00356999)
(7.97276e-07 8.13143e-07 0.00377463)
(7.29642e-07 7.27312e-07 0.00377355)
(6.29366e-07 6.42863e-07 0.00377088)
(4.51698e-07 6.14221e-07 0.00376173)
(7.2289e-07 5.60638e-07 0.00376574)
(6.32631e-07 4.89685e-07 0.0037626)
(5.10992e-07 4.38534e-07 0.00375465)
(3.27045e-07 4.44044e-07 0.00373571)
(6.37478e-07 3.05453e-07 0.00372876)
(5.25608e-07 2.39889e-07 0.0037214)
(3.85612e-07 2.16245e-07 0.00370477)
(2.04652e-07 2.53569e-07 0.00367559)
(5.40453e-07 6.49726e-08 0.00362384)
(4.07056e-07 9.34997e-09 0.00361488)
(2.49925e-07 7.34061e-09 0.00359663)
(7.32255e-08 7.72363e-08 0.0035708)
(3.15519e-07 3.52833e-07 0.00377491)
(2.83653e-07 3.18192e-07 0.00377387)
(2.39126e-07 2.83866e-07 0.00377124)
(1.69013e-07 2.68031e-07 0.00376213)
(2.84746e-07 2.45142e-07 0.00376604)
(2.43331e-07 2.17354e-07 0.00376294)
(1.9014e-07 1.9714e-07 0.00375503)
(1.17413e-07 1.98341e-07 0.00373612)
(2.4989e-07 1.34975e-07 0.00372907)
(1.99156e-07 1.10016e-07 0.00372175)
(1.38517e-07 1.01883e-07 0.00370516)
(6.6954e-08 1.17994e-07 0.00367602)
(2.0933e-07 3.01312e-08 0.00362414)
(1.49575e-07 1.02957e-08 0.00361522)
(8.30767e-08 1.26993e-08 0.00359702)
(1.40244e-08 4.34961e-08 0.00357122)
(0.00132703 0.000291479 0.00791733)
(0.00145838 0.000205464 0.00753553)
(0.000718058 -0.00010136 0.00369534)
(0.000703782 1.02999e-05 0.0061831)
(0.000563114 -6.57542e-05 0.00435435)
(0.00129821 0.000135417 0.00775104)
(0.000322694 -8.4786e-05 0.00436985)
(0.000112407 -0.000336528 0.00513065)
(4.63048e-05 0.000331295 0.0020363)
(0.000925972 0.000407204 0.00643107)
(0.000677695 0.000675397 0.00688048)
(0.000122632 0.000534216 0.00633149)
(-0.00058351 0.00167742 0.0110638)
(0.000223897 0.000701567 0.00352383)
(0.000884287 0.00158188 0.00663722)
(-6.88106e-05 0.000795254 0.00563221)
(-0.000717515 -2.13216e-05 0.00571229)
(0.000495254 0.000198211 0.00372471)