/*--------------------------------*- C++ -*----------------------------------*\
| =========                 |                                                 |
| \\      /  F ield         | OpenFOAM: The Open Source CFD Toolbox           |
|  \\    /   O peration     | Version:  2506                                  |
|   \\  /    A nd           | Website:  www.openfoam.com                      |
|    \\/     M anipulation  |                                                 |
\*---------------------------------------------------------------------------*/
FoamFile
{
    version     2.0;
    format      ascii;
    arch        "LSB;label=32;scalar=64";
    class       volScalarField;
    location    "0.01";
    object      voidfraction;
}
// * * * * * * * * * * * * * * * * * * * * * * * * * * * * * * * * * * * * * //

dimensions      [0 0 0 0 0 0 0];

internalField   nonuniform List<scalar> 
1152
(
0.562864
0.412763
0.436463
0.365363
0.560231
0.42593
0.41013
0.431196
0.352196
0.44173
0.415396
0.468063
0.436463
0.42593
0.452263
0.46543
0.510197
0.396963
0.44963
0.43383
0.399596
0.412763
0.378529
0.396963
0.333763
0.470697
0.389063
0.38643
0.439097
0.396963
0.475963
0.344296
0.412763
0.362729
0.375896
0.499664
0.312696
0.404863
0.396963
0.365363
0.41013
0.391696
0.378529
0.373263
0.40223
0.378529
0.389063
0.46543
0.288996
0.349563
0.431196
0.381163
0.396963
0.339029
0.375896
0.381163
0.391696
0.42593
0.40223
0.444363
0.431196
0.404863
0.436463
0.446997
0.296896
0.510197
0.39433
0.38643
0.391696
0.381163
0.45753
0.404863
0.412763
0.41013
0.38643
0.468063
0.41013
0.360096
0.373263
0.470697
0.48913
0.44173
0.41013
0.431196
0.48123
0.420663
0.39433
0.399596
0.362729
0.339029
0.381163
0.415396
0.48123
0.336396
0.45753
0.43383
0.507564
0.549697
0.570764
0.683998
0.594464
0.670831
0.739298
0.815666
0.589197
0.607631
0.662931
0.739298
0.47333
0.689265
0.626064
0.633964
1
1
1
1
1
1
1
1
1
1
1
1
1
1
1
1
1
1
1
1
1
1
1
1
1
1
1
1
1
1
1
1
1
1
1
1
1
1
1
1
1
1
1
1
1
1
1
1
1
1
1
1
1
1
1
1
1
1
1
1
1
1
1
1
1
1
1
1
1
1
1
1
1
1
1
1
1
1
1
1
1
1
1
1
1
1
1
1
1
1
1
1
1
1
1
1
1
1
1
1
1
1
1
1
1
1
1
1
1
1
1
1
1
1
1
1
1
1
1
1
1
1
1
1
1
1
1
1
1
1
1
1
1
1
1
1
1
1
1
1
1
1
1
1
1
1
1
1
1
1
1
1
1
1
1
1
1
1
1
1
1
1
1
1
1
1
1
1
1
1
1
1
1
1
1
1
1
1
1
1
1
1
1
1
1
1
1
1
1
1
1
1
1
1
1
1
1
1
1
1
1
1
1
1
1
1
1
1
1
1
1
1
1
1
1
1
1
1
1
1
1
1
1
1
1
1
1
1
1
1
1
1
1
1
1
1
1
1
1
1
1
1
1
1
1
1
1
1
1
1
1
1
1
1
1
1
1
1
1
1
1
1
1
1
1
1
1
1
1
1
1
1
0.463745
0.390948
0.518565
0.426086
0.391992
0.377963
0.434943
0.423346
0.497557
0.424908
0.454301
0.47401
0.380775
0.403512
0.480367
0.490115
0.428663
0.374707
0.451164
0.439229
0.438422
0.413576
0.354616
0.394332
0.426344
0.458737
0.464045
0.464728
0.484575
0.4664
0.412967
0.492813
0.358499
0.409896
0.370924
0.334084
0.352196
0.427821
0.407244
0.466867
0.380848
0.367821
0.461609
0.412129
0.373616
0.432097
0.397747
0.476626
0.363511
0.439672
0.361296
0.382276
0.391992
0.394583
0.407244
0.445107
0.444148
0.427022
0.422631
0.393565
0.402251
0.378737
0.391225
0.444252
0.421146
0.461327
0.383763
0.334084
0.458321
0.392208
0.401704
0.423346
0.331395
0.473537
0.456737
0.387377
0.361088
0.38636
0.406444
0.430763
0.513863
0.396362
0.396601
0.338465
0.376516
0.418325
0.376775
0.405212
0.432279
0.414336
0.415322
0.384283
0.425516
0.3997
0.428186
0.39839
0.53391
0.588552
0.656576
0.715233
0.652883
0.686607
0.74794
0.622818
0.727019
0.733597
0.734459
0.696782
0.78345
0.7332
0.702135
0.697846
1
0.997293
1
1
1
1
1
1
1
1
1
1
1
1
1
1
1
1
1
1
1
1
1
1
1
1
1
1
1
1
1
1
1
1
1
1
1
1
1
1
1
1
1
1
1
1
1
1
1
1
1
1
1
1
1
1
1
1
1
1
1
1
1
1
1
1
1
1
1
1
1
1
1
1
1
1
1
1
1
1
1
1
1
1
1
1
1
1
1
1
1
1
1
1
1
1
1
1
1
1
1
1
1
1
1
1
1
1
1
1
1
1
1
1
1
1
1
1
1
1
1
1
1
1
1
1
1
1
1
1
1
1
1
1
1
1
1
1
1
1
1
1
1
1
1
1
1
1
1
1
1
1
1
1
1
1
1
1
1
1
1
1
1
1
1
1
1
1
1
1
1
1
1
1
1
1
1
1
1
1
1
1
1
1
1
1
1
1
1
1
1
1
1
1
1
1
1
1
1
1
1
1
1
1
1
1
1
1
1
1
1
1
1
1
1
1
1
1
1
1
1
1
1
1
1
1
1
1
1
1
1
1
1
1
1
1
1
1
1
1
1
1
1
1
1
1
1
1
1
1
1
1
1
1
1
1
1
1
1
1
1
1
1
1
1
1
1
1
1
1
1
1
0.49131
0.473797
0.418432
0.452361
0.396362
0.437318
0.433365
0.430192
0.361296
0.421093
0.446992
0.456451
0.474277
0.401586
0.455446
0.487417
0.381052
0.343352
0.463929
0.464889
0.366586
0.38746
0.450279
0.41304
0.39981
0.362926
0.354418
0.412967
0.417324
0.321797
0.421411
0.47123
0.381052
0.352196
0.422388
0.448782
0.41531
0.456311
0.395307
0.407323
0.393391
0.437713
0.390961
0.434709
0.504944
0.365318
0.375
0.417274
0.416134
0.436211
0.436235
0.486365
0.353052
0.430195
0.391079
0.449249
0.415858
0.457102
0.408014
0.484715
0.3998
0.361691
0.393565
0.406483
0.428663
0.361039
0.422388
0.391513
0.325983
0.413576
0.43125
0.363492
0.322781
0.443252
0.359291
0.428186
0.452372
0.455987
0.418317
0.403785
0.451216
0.429578
0.469863
0.411199
0.409896
0.413576
0.431251
0.458777
0.377343
0.451562
0.415322
0.410792
0.364752
0.329051
0.384283
0.441554
0.684261
0.717
0.707238
0.645646
0.742845
0.691356
0.851998
0.71986
0.727187
0.700852
0.63214
0.586902
0.688947
0.510388
0.603961
0.544071
1
1
1
1
1
1
1
1
1
1
1
1
0.986857
0.974613
1
1
1
1
1
1
1
1
1
1
1
1
1
1
1
1
1
1
1
1
1
1
1
1
1
1
1
1
1
1
1
1
1
1
1
1
1
1
1
1
1
1
1
1
1
1
1
1
1
1
1
1
1
1
1
1
1
1
1
1
1
1
1
1
1
1
1
1
1
1
1
1
1
1
1
1
1
1
1
1
1
1
1
1
1
1
1
1
1
1
1
1
1
1
1
1
1
1
1
1
1
1
1
1
1
1
1
1
1
1
1
1
1
1
1
1
1
1
1
1
1
1
1
1
1
1
1
1
1
1
1
1
1
1
1
1
1
1
1
1
1
1
1
1
1
1
1
1
1
1
1
1
1
1
1
1
1
1
1
1
1
1
1
1
1
1
1
1
1
1
1
1
1
1
1
1
1
1
1
1
1
1
1
1
1
1
1
1
1
1
1
1
1
1
1
1
1
1
1
1
1
1
1
1
1
1
1
1
1
1
1
1
1
1
1
1
1
1
1
1
1
1
1
1
1
1
1
1
1
1
1
1
1
1
1
1
1
1
1
1
1
1
1
1
1
1
1
1
1
1
1
1
1
1
1
1
1
1
)
;

boundaryField
{
    inlet
    {
        type            fixedValue;
        value           uniform 1;
    }
    outlet
    {
        type            fixedValue;
        value           uniform 1;
    }
    wall
    {
        type            zeroGradient;
    }
    procBoundary3to1
    {
        type            processor;
        value           nonuniform List<scalar> 
192
(
0.404863
0.446997
0.51283
0.510197
0.399596
0.360096
0.315329
0.41803
0.412763
0.436463
0.460163
0.336396
0.346929
0.42593
0.42593
0.325862
0.462797
0.302162
0.483863
0.44173
0.346929
0.389063
0.43383
0.43383
0.510197
0.557597
0.852532
0.755098
0.997367
0.997367
1
1
1
1
1
1
1
1
1
1
1
1
1
1
1
1
1
1
1
1
1
1
1
1
1
1
1
1
1
1
1
1
1
1
1
1
1
1
1
1
1
1
1
1
1
1
1
1
1
1
1
1
1
1
1
1
1
1
1
1
1
1
1
1
1
1
0.350982
0.449477
0.477776
0.445203
0.386064
0.319032
0.38876
0.375406
0.426158
0.420735
0.380848
0.479206
0.443699
0.398625
0.368979
0.361088
0.401099
0.40968
0.430301
0.486365
0.373534
0.372094
0.382826
0.387933
0.761943
0.774484
0.8734
0.813874
1
1
1
1
1
1
1
1
1
1
1
1
1
1
1
1
1
1
1
1
1
1
1
1
1
1
1
1
1
1
1
1
1
1
1
1
1
1
1
1
1
1
1
1
1
1
1
1
1
1
1
1
1
1
1
1
1
1
1
1
1
1
1
1
1
1
1
1
)
;
    }
    procBoundary3to2
    {
        type            processor;
        value           nonuniform List<scalar> 
192
(
0.360096
0.346929
0.525997
0.460163
0.310062
0.407496
0.446997
0.373263
0.491764
0.439097
0.367996
0.352196
0.404863
0.41803
0.42593
0.331129
0.436463
0.373263
0.43383
0.328496
0.349563
0.412763
0.420663
0.333763
0.604998
0.597097
0.604998
0.602364
1
1
1
1
1
1
1
1
1
1
1
1
1
1
1
1
1
1
1
1
1
1
1
1
1
1
1
1
1
1
1
1
1
1
1
1
1
1
1
1
1
1
1
1
1
1
1
1
1
1
1
1
1
1
1
1
1
1
1
1
1
1
1
1
1
1
1
1
0.408616
0.427367
0.457994
0.450572
0.355993
0.356617
0.400629
0.395092
0.488804
0.489274
0.376891
0.389723
0.451216
0.391992
0.398651
0.445203
0.37604
0.374305
0.422388
0.40762
0.393581
0.464953
0.321504
0.493524
0.714332
0.725844
0.796253
0.833561
1
1
1
1
1
1
1
1
1
1
1
1
1
1
1
1
1
1
1
1
1
1
1
1
1
1
1
1
1
1
1
1
1
1
1
1
1
1
1
1
1
1
1
1
1
1
1
1
1
1
1
1
1
1
1
1
1
1
1
1
1
1
1
1
1
1
1
1
)
;
    }
}


// ************************************************************************* //
