/*--------------------------------*- C++ -*----------------------------------*\
| =========                 |                                                 |
| \\      /  F ield         | OpenFOAM: The Open Source CFD Toolbox           |
|  \\    /   O peration     | Version:  2506                                  |
|   \\  /    A nd           | Website:  www.openfoam.com                      |
|    \\/     M anipulation  |                                                 |
\*---------------------------------------------------------------------------*/
FoamFile
{
    version     2.0;
    format      ascii;
    arch        "LSB;label=32;scalar=64";
    class       surfaceScalarField;
    location    "0.005";
    object      phi;
}
// * * * * * * * * * * * * * * * * * * * * * * * * * * * * * * * * * * * * * //

dimensions      [0 3 -1 0 0 0 0];

oriented        oriented;

internalField   nonuniform List<scalar> 
1200
(
0.00150625
7.64309e-06
1.15725e-05
0.00151382
-4.7358e-06
-2.84215e-06
0.00154681
-1.30662e-05
-1.99184e-05
0.00152849
1.24878e-05
5.8344e-06
0.00148685
1.79962e-05
2.36416e-05
0.0014798
8.21098e-07
6.22771e-06
0.00152542
-2.73974e-05
-1.82237e-05
0.00152481
-2.92646e-06
3.53816e-06
0.00150939
3.48922e-06
1.19258e-05
0.00151936
-5.26491e-06
-4.70573e-06
0.00154173
-5.32183e-06
-1.70416e-05
0.00154824
-8.29179e-07
-5.68741e-06
0.0015395
1.56688e-06
7.18025e-06
0.00153757
4.54014e-06
-2.61031e-06
0.00153744
6.23021e-06
-6.10726e-06
0.00153367
3.48558e-06
2.87508e-07
0.00153581
1.1708e-06
-3.30533e-06
0.00153132
3.05405e-06
1.4351e-06
0.00152479
3.80809e-06
2.72122e-06
0.00152914
-5.00085e-08
-4.30024e-06
0.00154267
-2.53446e-06
-1.10015e-05
0.00154946
-2.68781e-06
-4.09951e-06
0.00155841
-1.13216e-05
2.37315e-06
0.00158679
-7.23769e-06
-2.11382e-05
0.00162057
7.90833e-07
-3.45799e-05
0.00159984
8.13213e-06
1.2599e-05
0.00157619
5.51242e-06
1.81388e-05
0.00156939
1.26635e-06
5.5403e-06
0.00156291
1.34843e-07
6.33864e-06
0.00155326
-8.0466e-08
9.73477e-06
0.00153538
1.2754e-06
1.66055e-05
5.19873e-06
1.03874e-05
0.00150476
1.37682e-05
1.60463e-05
0.0015154
-8.23057e-06
-7.14312e-06
0.00151853
-5.32312e-06
-1.08795e-05
0.00153595
5.27687e-07
-5.45364e-06
0.00153492
1.10398e-05
7.98295e-06
0.00152386
5.18039e-06
6.70026e-06
0.00150957
-1.37447e-05
6.39778e-07
0.00151711
-1.19554e-05
1.48301e-06
0.0015169
-1.90249e-06
5.60788e-06
0.00152989
-1.35307e-05
-4.73022e-06
0.00154965
-8.17859e-06
-1.69036e-05
0.00156023
-3.94281e-06
-7.46516e-06
0.00155316
3.60409e-06
5.03305e-06
0.00155844
5.42793e-06
-6.17009e-06
0.00156094
7.98182e-06
-4.24856e-06
0.00156855
-5.79774e-06
1.67435e-06
0.00158938
-1.19332e-05
-7.72325e-06
0.00159407
3.67978e-06
-5.31704e-06
0.00158342
9.71049e-06
4.74655e-06
0.00156498
1.9661e-05
-1.27265e-06
0.00157452
1.86341e-06
-1.39411e-05
0.00159395
-1.56314e-05
-6.48283e-06
0.00160052
-2.19615e-05
4.06677e-06
0.00161486
-6.85434e-06
-1.47174e-05
0.00165288
-4.12502e-06
-3.31046e-05
0.00164794
3.15972e-06
9.91429e-06
0.00163251
4.5043e-06
1.643e-05
0.00160975
1.42332e-05
9.79416e-06
0.00158822
1.25448e-05
9.11955e-06
0.00157366
5.04457e-06
9.43746e-06
0.00155521
5.44044e-06
1.42883e-05
1.73074e-05
1.61706e-05
0.00155364
1.80426e-05
5.82831e-06
0.00152348
1.28303e-05
9.09535e-06
0.00152725
-2.11573e-06
-6.9714e-06
0.00153388
-6.80541e-07
-5.42268e-06
0.00153174
2.82779e-06
1.03494e-05
0.0015318
-3.62781e-06
8.74691e-06
0.00153208
-1.46631e-05
6.41881e-07
0.00154546
-2.33553e-05
-1.9827e-06
0.00153934
-1.55153e-06
5.76674e-06
0.00152602
-1.37852e-06
1.1719e-06
0.00153913
-4.85489e-06
-1.64355e-05
0.0015604
-1.2781e-05
-1.24303e-05
0.00154613
1.30042e-05
4.86629e-06
0.00154951
1.23578e-05
-1.03104e-05
0.00156499
-2.43165e-06
-5.06789e-06
0.00157331
-1.69567e-05
2.84683e-06
0.00158292
-1.79131e-05
-3.63859e-06
0.00157139
1.62313e-05
-1.01781e-06
0.00155447
2.58173e-05
8.13008e-07
0.00158745
1.14488e-06
-1.44597e-05
0.00161226
-8.85894e-06
-1.40877e-05
0.00161234
-9.37995e-06
-6.33185e-06
0.00159865
-1.38847e-05
5.61509e-06
0.00161758
-1.75078e-05
-8.28497e-06
0.00165144
-1.90308e-05
-1.89453e-05
0.00166176
-1.08909e-05
3.72551e-06
0.00165065
5.64042e-06
9.97027e-06
0.00161825
3.4217e-05
1.24209e-05
0.00159067
2.99237e-05
1.0203e-05
0.00157618
1.15317e-05
8.00407e-06
0.0015633
7.03455e-06
1.12784e-05
9.58983e-06
7.28006e-06
0.00155324
1.53909e-05
3.934e-06
0.00155501
2.16098e-05
-1.05502e-05
0.00152534
2.47295e-05
2.82812e-06
0.0014981
1.31243e-05
1.34325e-05
0.00150039
-7.18528e-06
7.72652e-06
0.00153657
-4.22498e-05
2.44198e-06
0.00154946
-2.76587e-05
1.00686e-07
0.00153581
-1.58357e-05
6.13444e-06
0.00151641
1.25139e-05
5.32687e-06
0.00151433
5.99544e-06
-5.29037e-06
0.00153323
-1.52357e-05
-8.51413e-06
0.0015323
-1.69236e-05
5.07017e-06
0.00154478
3.4205e-06
-2.8947e-06
0.00157176
3.17838e-06
-1.78058e-05
0.00157944
-5.01038e-06
-5.09907e-06
0.00155933
-4.7614e-06
7.9165e-06
0.00154391
-3.46965e-06
9.75462e-07
0.00155569
6.90491e-06
-2.44936e-06
0.00157599
1.26348e-05
-7.11938e-06
0.00158426
-3.91791e-06
-3.20646e-06
0.00159572
-1.23241e-05
-8.00264e-06
0.00160537
-1.28601e-05
-6.16761e-06
0.00160115
-1.34976e-05
3.82982e-06
0.0016069
-1.62817e-05
-6.96727e-06
0.0016063
-9.30049e-06
-9.1375e-06
0.00159523
-3.44002e-06
3.61803e-06
0.00159736
-2.18523e-06
5.69842e-06
0.00160249
1.81127e-05
1.09769e-05
0.00158946
3.08272e-05
1.2123e-05
0.00157504
1.92548e-05
6.69845e-06
0.00156407
1.1846e-05
6.15815e-06
1.37008e-05
5.43816e-06
0.00151517
3.53952e-05
2.17982e-07
0.0015349
6.63352e-06
-4.74818e-06
0.00155981
-2.52384e-06
2.34451e-06
0.0015635
2.74673e-06
6.68771e-06
0.00156864
-1.72892e-05
4.96073e-06
0.00155652
-2.91798e-05
-9.49747e-07
0.00154563
-1.43329e-05
-2.43382e-06
0.00153708
-1.10384e-05
3.75052e-06
0.00154628
3.8498e-06
-5.31836e-07
0.00156186
5.23737e-06
-1.48293e-05
0.00155869
-7.0741e-06
-4.98773e-06
0.00154177
-8.76061e-06
8.75218e-06
0.00154868
-9.4515e-07
-2.54105e-06
0.00156788
-1.66332e-06
-1.43619e-05
0.00156589
-3.06302e-06
4.32815e-08
0.0015563
9.45787e-08
4.74166e-06
0.00154486
3.85753e-06
4.10518e-06
0.00155262
2.38986e-06
-3.24529e-06
0.0015645
7.68392e-06
-6.92827e-06
0.00157469
-1.32154e-05
-8.91752e-07
0.00158971
-1.28954e-05
-1.44441e-05
0.00159497
-1.48281e-05
-3.29116e-06
0.00158138
-7.59276e-06
7.68038e-06
0.00157761
-9.37256e-06
-3.13651e-06
0.00157413
-4.62166e-07
-5.35627e-06
0.00156311
4.30919e-06
3.26472e-06
0.00156248
-5.38211e-06
3.83303e-06
0.00158435
-6.73884e-06
2.98092e-06
0.0015855
2.16837e-05
7.98703e-06
0.00157093
2.60982e-05
7.72893e-06
0.00156384
1.05579e-05
8.38098e-06
3.31777e-05
8.96623e-06
0.00157437
3.10499e-05
-1.42504e-05
0.00158379
1.99705e-05
-2.27477e-05
0.0015672
6.70413e-06
7.35556e-06
0.00157292
-1.08093e-05
7.84112e-06
0.00157407
-2.15016e-05
3.05691e-06
0.00155725
-1.47461e-05
2.38397e-06
0.00155434
-1.11329e-05
-2.83079e-07
0.00154596
-4.84181e-06
2.18578e-06
0.00155022
8.90937e-07
-1.30147e-06
0.00156424
1.8655e-06
-1.06476e-05
0.00156135
-1.93671e-06
-2.25035e-06
0.00154517
-2.79323e-06
1.02099e-05
0.00154568
-3.69068e-07
-1.08888e-06
0.00155318
-3.29494e-07
-8.82706e-06
0.00155222
-6.67607e-06
4.56722e-06
0.00156547
-1.1152e-05
-1.99674e-06
0.00155861
1.56037e-05
-4.88656e-06
0.00154334
1.26757e-05
4.98434e-06
0.00155083
-1.45128e-06
1.63951e-06
0.00157402
-2.49106e-05
-1.14917e-05
0.00159347
-1.72228e-05
-1.51223e-05
0.0016049
-1.99119e-05
-6.34369e-06
0.00158546
6.40067e-09
1.18326e-05
0.00156702
4.22852e-07
8.64727e-06
0.00157367
-1.98086e-06
-5.12839e-06
0.00157464
6.16128e-06
-2.8238e-06
0.00157059
-4.66061e-06
3.32536e-06
0.00156166
2.10234e-08
2.17579e-06
0.00155808
2.50355e-05
2.30363e-07
0.00154331
3.74482e-05
3.41394e-06
0.0015368
1.56939e-06
1.54969e-05
5.08653e-06
9.11509e-06
0.00160455
1.80942e-05
-6.70635e-06
0.00160399
1.5847e-05
4.68346e-06
0.00159507
-9.38266e-06
2.49984e-05
0.00159652
-1.70688e-05
4.81461e-06
0.00158594
-4.82105e-06
-6.0999e-06
0.00157137
7.76775e-08
-2.52535e-07
0.00156278
-5.35937e-06
2.81652e-06
0.00155527
-2.18849e-07
2.88625e-06
0.0015531
2.86971e-06
1.88137e-07
0.00156317
2.69519e-06
-1.08965e-05
0.00156354
-1.05689e-06
-1.24886e-06
0.00155117
-5.04259e-07
1.00771e-05
0.00155252
-2.52475e-07
-1.47049e-06
0.0015593
2.06523e-06
-9.17118e-06
0.00155569
-2.31866e-06
-7.44839e-07
0.00154532
-6.99422e-06
6.21062e-06
0.00154768
1.09032e-05
2.33921e-06
0.00155522
6.73063e-06
-1.59781e-06
0.00156106
-5.92528e-06
-1.36092e-06
0.00154988
-1.20009e-05
-1.72625e-06
0.00155371
-8.09954e-06
-1.29569e-05
0.00155342
-1.49381e-05
-4.68071e-06
0.001538
3.16728e-06
1.22579e-05
0.00153293
4.08986e-06
1.40401e-06
0.00153777
3.13446e-07
-7.1424e-06
0.00154217
4.72278e-06
-2.95567e-06
0.00153809
-4.56052e-06
3.98015e-06
0.00155053
-1.46028e-05
2.1839e-06
0.00158147
-5.20678e-06
-6.96535e-07
0.00159095
2.90531e-05
-1.08274e-06
0.00157647
1.98366e-05
-3.78758e-06
1.02677e-07
-3.43415e-06
0.00160201
-1.2331e-05
0.00161173
6.13593e-06
0.0015662
3.61479e-05
0.00154399
5.14149e-06
0.00155311
-1.39497e-05
0.0015556
-2.41202e-06
0.00154348
6.75909e-06
0.00153353
9.73307e-06
0.00153562
7.81963e-07
0.00154635
-8.03382e-06
0.00154694
-1.64327e-06
0.00153733
9.10306e-06
0.0015366
4.77755e-07
0.00154415
-5.48157e-06
0.00154096
8.63338e-07
0.00152717
6.80423e-06
0.00154091
-2.84336e-06
0.00155634
-8.69886e-06
0.00155215
-1.73733e-06
0.00153514
5.01378e-06
0.0015343
-7.2618e-06
0.00152154
-2.17847e-06
0.00151701
7.69756e-06
0.0015223
-1.204e-06
0.00153036
-7.74408e-06
0.0015377
-2.61223e-06
0.00152902
4.11164e-06
0.00151241
2.01121e-06
0.00150787
-6.65126e-07
0.00153353
3.38868e-06
0.00156168
-8.30597e-06
-9.81088e-06
0.00150951
8.04997e-06
0.00152899
-1.50263e-05
0.00152644
-4.46464e-06
0.00153732
1.57737e-06
0.00153894
3.4284e-06
0.00152936
1.57253e-06
0.00152275
-8.68642e-06
0.00152127
-2.19455e-06
0.0015274
-2.4014e-06
0.00154237
-4.11322e-06
0.0015551
-2.52082e-06
0.00156109
-3.4506e-06
0.00155496
-7.66372e-08
0.00155219
3.49632e-07
0.00155821
6.89526e-06
0.00156741
8.6024e-06
0.001567
2.36404e-06
0.00157193
-1.4518e-06
0.00157345
-1.42634e-06
0.00156306
2.77532e-06
0.00154576
6.71071e-06
0.00156429
-6.19757e-06
0.00158787
-8.31818e-06
0.00158621
-9.36153e-06
0.00155133
8.91109e-06
0.00155219
1.16824e-05
0.0015642
2.53448e-06
0.00157511
-2.00683e-06
0.00157502
7.27554e-08
0.00155951
-1.0443e-06
0.00154652
-1.01257e-06
9.82101e-06
0.00155433
1.44688e-05
0.00153162
-3.24431e-06
0.00154761
-1.13889e-05
0.0015549
-1.22559e-06
0.00154735
8.59776e-06
0.00154511
3.35019e-06
0.001552
-1.358e-05
0.00155313
-1.04387e-05
0.00155294
-5.1586e-06
0.00156485
-7.98293e-06
0.00157941
-9.71705e-06
0.00157989
-5.86969e-06
0.00156931
6.27763e-06
0.00156663
2.66133e-06
0.00158146
1.95247e-06
0.00160994
-6.01415e-07
0.00161127
1.52944e-06
0.00159426
1.34318e-05
0.00158846
6.48842e-06
0.00158151
4.25782e-06
0.00155546
1.70397e-05
0.00157436
-1.50657e-05
0.00161767
-3.31062e-05
0.00160754
-3.81232e-06
0.00157673
1.4662e-05
0.00160554
-5.0649e-06
0.00162588
-3.22984e-06
0.00161957
1.20819e-05
0.00160648
1.19549e-05
0.00158649
1.75829e-06
0.00157539
-1.31913e-06
1.0623e-05
0.001576
8.2143e-06
0.00156751
8.94522e-06
0.00154214
1.16013e-05
0.00151836
1.26321e-05
0.00152542
7.99829e-07
0.00155487
-2.38129e-05
0.00156202
-2.09353e-05
0.00155675
-1.21917e-05
0.00156014
-1.27951e-05
0.00156708
-1.14144e-05
0.00155415
2.04598e-06
0.00154282
2.77082e-06
0.00155354
2.11195e-06
0.001553
-2.15451e-07
0.00155903
9.14314e-07
0.00157541
-4.21846e-06
0.00158849
-6.0606e-06
0.00161294
-2.5019e-06
0.00161845
1.20639e-05
0.00159562
1.24948e-05
0.00161215
-1.86462e-06
0.00162457
-1.70517e-05
0.00162053
-2.52548e-05
0.0016423
-1.86854e-05
0.00166927
-7.34076e-06
0.00167013
-8.34536e-06
0.00166246
5.10281e-06
0.00163555
3.36246e-05
0.00160877
2.91751e-05
0.00159358
8.7622e-06
0.00158115
3.946e-06
7.59797e-06
0.00154088
1.76139e-05
0.0015326
1.04219e-05
0.00153546
1.35654e-05
0.00155752
1.60951e-06
0.00156709
-6.28796e-06
0.00157121
-3.08093e-05
0.00156087
-1.99386e-05
0.00156019
-1.1208e-05
0.00154246
1.72525e-06
0.00152564
-1.49797e-06
0.00153396
-6.99511e-06
0.00155345
-4.82642e-06
0.00156425
-2.27898e-06
0.00155765
-5.8405e-07
0.00156598
-1.6479e-06
0.00158229
-5.13957e-06
0.00158054
-4.23853e-06
0.0015698
5.6416e-08
0.00157435
3.49289e-06
0.00160405
-5.63843e-07
0.00163177
-1.8688e-05
0.00162411
-1.21601e-05
0.00160767
-8.54272e-06
0.00161361
-1.9411e-05
0.00160519
-9.87931e-07
0.0015806
5.1217e-06
0.00158374
3.13709e-06
0.00160782
1.29249e-05
0.00160542
2.8102e-05
0.00159171
1.71773e-05
0.00158004
1.20223e-05
1.9352e-05
0.00153909
3.37951e-05
0.00155145
9.86922e-06
0.00155811
9.12339e-06
0.00154819
5.46317e-06
0.00157376
-2.78873e-05
0.00159364
-4.91415e-05
0.00157597
-1.7213e-05
0.00157057
-1.01985e-05
0.00157637
-2.56055e-06
0.00156968
1.26277e-06
0.00156752
-4.55694e-06
0.00157412
-4.39855e-06
0.00157565
-9.9417e-07
0.00157333
-4.75808e-07
0.00158805
-2.52331e-06
0.0015942
-3.85996e-06
0.00158578
2.00872e-06
0.00157412
1.39525e-05
0.00158444
4.27789e-06
0.00160801
-2.1595e-05
0.00160565
-2.41614e-05
0.00160761
-1.16862e-05
0.00160842
-2.81881e-06
0.00158271
-1.2413e-06
0.00157668
-1.16056e-06
0.00157754
1.5131e-06
0.00157917
-9.30763e-07
0.00159566
-4.94207e-06
0.00160084
1.87031e-05
0.00158953
2.4573e-05
0.00157447
1.70374e-05
3.76553e-05
0.00164291
3.97341e-05
0.00159965
3.28405e-05
0.00158087
2.40817e-05
0.00161228
-1.295e-05
0.00163146
-3.33394e-05
0.00160938
-2.75672e-05
0.00159342
-1.70898e-05
0.00158035
-7.13066e-06
0.001575
-5.91397e-07
0.00157356
2.03714e-06
0.00157734
-2.0609e-06
0.00158219
-1.21299e-06
0.00157874
6.73294e-07
0.00158287
-2.76716e-06
0.00161208
-7.86286e-06
0.00160766
1.33454e-07
0.00158798
1.48717e-05
0.00161008
4.09588e-06
0.0016251
-3.27463e-06
0.00159095
-6.29422e-06
0.00156315
-9.11184e-06
0.00155646
-9.26572e-06
0.00157063
-4.52481e-06
0.00158691
-9.83843e-06
0.00159828
-1.21665e-05
0.00158477
7.56219e-06
0.00158814
-4.83475e-06
0.00158479
-1.81249e-06
0.00158058
2.26278e-05
0.00158135
3.1622e-05
0.00162151
-5.24168e-06
5.39308e-06
0.00165658
8.60319e-06
0.00166199
2.49964e-05
0.00167639
1.52293e-05
0.00167727
-4.70407e-06
0.00164745
-1.29459e-05
0.00161828
-1.54392e-05
0.00159934
-1.01781e-05
0.00158279
8.21381e-07
0.00157665
3.14382e-06
0.00156878
5.12672e-06
0.00157188
-1.35831e-06
0.00158021
-3.93276e-07
0.0015763
2.46883e-06
0.00157099
3.30325e-07
0.00157627
-1.25969e-06
0.00158361
-5.63399e-07
0.0015993
2.87197e-06
0.00160689
1.71138e-06
0.00161056
-3.41444e-06
0.00159739
-2.09795e-06
0.00157474
-2.50131e-06
0.00156016
-8.88505e-07
0.00157005
-1.33591e-06
0.00156604
-3.20821e-06
0.00154843
3.69161e-07
0.00154539
5.06885e-06
0.00154802
-1.02436e-05
0.00156685
-1.787e-05
0.00160145
-6.67492e-06
0.00160795
2.88044e-05
0.00159554
1.13395e-05
-1.13552e-05
0.0015686
0.00160752
0.00166417
0.0016614
0.00160294
0.00155391
0.00153528
0.00153728
0.00154059
0.00154772
0.00154741
0.00155355
0.00155744
0.00155395
0.00156025
0.00156952
0.0015757
0.00157932
0.00158876
0.00158554
0.00156514
0.0015493
0.00155598
0.00155631
0.00155406
0.00155588
0.00153775
0.00152086
0.00152017
0.001557
0.00157438
)
;

boundaryField
{
    wall
    {
        type            calculated;
        value           uniform 0;
    }
    outlet
    {
        type            cyclic;
        value           nonuniform List<scalar> 
16
(
0.00151979
0.00152693
0.00156374
0.00155452
0.0015354
0.00155578
0.00158488
0.00157159
0.00152061
0.00156842
0.00157679
0.00155815
0.00155196
0.00165661
0.0016246
0.00156835
)
;
    }
    inlet
    {
        type            cyclic;
        value           nonuniform List<scalar> 
16
(
-0.00151979
-0.00152693
-0.00156374
-0.00155452
-0.0015354
-0.00155578
-0.00158488
-0.00157159
-0.00152061
-0.00156842
-0.00157679
-0.00155815
-0.00155196
-0.00165661
-0.0016246
-0.00156835
)
;
    }
    procBoundary0to1
    {
        type            processor;
        value           nonuniform List<scalar> 
256
(
1.46225e-05
-7.29705e-06
-1.29038e-05
-6.62197e-06
1.85891e-05
1.42357e-05
-2.92078e-06
7.20493e-06
8.20566e-06
-1.55703e-05
-2.72495e-05
-8.22302e-06
1.33853e-05
-1.88125e-07
-1.90278e-05
-1.75063e-05
-5.26399e-06
-2.04053e-06
2.62035e-06
3.32237e-06
-4.15543e-07
-1.6427e-05
-1.28979e-05
-1.01084e-05
-8.61782e-06
5.78984e-08
3.59365e-06
-3.3656e-06
6.35876e-06
2.62931e-05
3.0605e-05
2.64779e-05
2.37128e-05
3.78886e-06
-1.99456e-05
-9.94491e-06
1.03708e-05
7.15897e-06
-1.35847e-06
8.60261e-06
8.54982e-06
-1.27692e-05
-2.42648e-05
-5.52902e-06
9.25868e-06
-5.79848e-06
-1.41406e-05
-1.75999e-05
-8.21697e-06
-3.18776e-06
2.62535e-06
4.19823e-06
1.78121e-06
-1.65205e-05
-1.44475e-05
-1.01453e-05
-8.03926e-06
-2.14763e-06
1.85266e-06
2.01222e-06
1.03333e-05
2.66198e-05
2.56939e-05
2.23426e-05
1.28718e-05
5.39694e-06
-4.58648e-06
4.4943e-06
1.10905e-05
6.4565e-06
8.45658e-07
5.04603e-06
1.00163e-05
-2.34013e-06
-1.52685e-05
-9.74174e-06
-1.69157e-06
-6.89325e-06
-1.00521e-05
-9.92195e-06
-9.12404e-06
-9.53623e-06
-1.02682e-05
1.25776e-07
-1.17102e-05
-1.67668e-05
1.80597e-06
-1.51814e-05
-2.391e-05
6.1366e-06
9.30743e-06
1.77926e-05
1.97666e-05
1.61877e-05
1.84441e-05
1.46601e-05
1.17992e-05
-3.7484e-06
-1.99304e-06
2.39449e-06
5.24787e-06
5.31024e-06
9.44649e-06
5.83625e-06
8.53482e-06
1.61463e-06
-7.79761e-06
-6.82227e-06
-9.29825e-06
-1.08425e-05
-1.08688e-05
-7.46786e-06
9.00405e-07
5.73757e-06
-3.10682e-06
-1.98392e-05
-1.89029e-05
-3.39907e-06
3.55614e-06
-1.21835e-05
-7.06904e-06
1.47428e-05
4.52541e-06
7.59132e-06
1.5598e-05
1.19936e-05
9.75758e-06
1.5574e-05
-3.09798e-06
-1.65497e-05
1.25536e-07
1.27462e-05
9.9299e-07
-2.50065e-06
1.25177e-05
8.13707e-06
-2.04372e-06
-1.08973e-05
-5.27395e-06
1.72499e-06
-5.35259e-06
-1.21543e-05
-1.38018e-05
-2.68515e-06
6.27499e-06
-5.47859e-06
-1.80352e-05
-3.4219e-06
-6.6165e-06
-5.72477e-06
1.14468e-06
4.4088e-06
8.4175e-07
6.01695e-06
6.27043e-06
4.36062e-06
1.21999e-05
1.16443e-05
1.84313e-05
1.31721e-05
-6.48425e-06
-2.45799e-06
1.11769e-05
-5.15404e-06
-1.06725e-05
2.88644e-06
1.55531e-05
1.21914e-05
2.07617e-06
-9.98031e-06
-8.53003e-06
2.17723e-06
6.9807e-07
-1.06725e-05
-1.93035e-05
-1.56165e-06
1.92666e-06
-7.26232e-06
-5.82669e-06
7.35716e-06
-2.37222e-06
-2.06796e-06
-6.32303e-07
9.59345e-07
-5.48648e-06
4.63066e-06
3.85965e-06
2.39922e-06
5.19151e-07
-4.4145e-06
-2.38258e-06
6.27612e-06
-7.5558e-06
7.11911e-06
1.94443e-05
-4.31028e-06
3.32995e-06
1.67935e-05
1.48415e-05
1.14805e-05
2.59279e-06
-6.11017e-06
-5.05166e-06
9.20976e-07
6.46536e-07
-6.95304e-06
-1.26304e-05
-4.36632e-07
-1.3479e-06
-6.80872e-06
-4.88782e-06
7.24435e-06
3.08294e-06
1.52553e-06
-8.20913e-07
-1.22025e-06
-2.05882e-06
2.5687e-06
6.76313e-06
-5.85575e-07
-5.99365e-06
-4.77079e-06
-7.95808e-06
-1.57434e-05
-3.97975e-06
-7.78822e-06
-5.27176e-06
3.21257e-06
3.15641e-05
3.11799e-05
1.52113e-05
8.55051e-06
6.16923e-07
-1.0041e-05
-2.68384e-06
2.57135e-06
-9.46143e-07
-1.65916e-06
-6.70304e-06
-3.03002e-06
-6.14497e-06
-1.06141e-05
-1.45864e-05
6.13651e-06
1.06328e-05
1.27726e-05
-3.1669e-07
-4.74664e-06
-5.11871e-06
6.38464e-07
1.19916e-05
1.03198e-06
-6.64805e-06
-4.63216e-06
-1.43527e-05
-1.51367e-05
)
;
    }
}


// ************************************************************************* //
