/*--------------------------------*- C++ -*----------------------------------*\
| =========                 |                                                 |
| \\      /  F ield         | OpenFOAM: The Open Source CFD Toolbox           |
|  \\    /   O peration     | Version:  2506                                  |
|   \\  /    A nd           | Website:  www.openfoam.com                      |
|    \\/     M anipulation  |                                                 |
\*---------------------------------------------------------------------------*/
FoamFile
{
    version     2.0;
    format      ascii;
    arch        "LSB;label=32;scalar=64";
    class       volScalarField;
    location    "0.09";
    object      Ksl;
}
// * * * * * * * * * * * * * * * * * * * * * * * * * * * * * * * * * * * * * //

dimensions      [1 -3 -1 0 0 0 0];

internalField   nonuniform List<scalar> 
1152
(
177333
156043
87860
741821
147255
141853
235590
130660
146197
188507
71577.1
153240
161715
62627.9
104100
172171
133612
125336
118737
252774
219822
106668
420460
207328
169260
96492.2
158163
236562
135061
199828
152496
108324
353416
527301
363657
1.17683e+07
498660
374752
156203
202196
208812
197821
370343
146224
335646
176502
859052
1.09931e+06
244015
145701
372549
229952
175539
270737
161642
190612
283327
274728
282681
7.20795e+06
266366
201974
179118
109481
245094
392147
581689
207099
187036
176603
208030
405804
213615
288595
245315
128043
229394
188892
486615
2.43844e+06
294772
173896
156552
193676
234847
194514
213331
124235
295331
104854
513167
142734
74017.5
1.43953e+06
214917
142756
61417.9
55982.6
77155.8
88948.6
42318
61087.2
117112
542343
49044.8
81007.5
126647
41406.9
58907.9
124988
211383
96101.8
0
0
0
0
0
0
0
0
0
0
0
0
0
0
0
0
0
0
0
0
0
0
0
0
0
0
0
0
0
0
0
0
0
0
0
0
0
0
0
0
0
0
0
0
0
0
0
0
0
0
0
0
0
0
0
0
0
0
0
0
0
0
0
0
0
0
0
0
0
0
0
0
0
0
0
0
0
0
0
0
0
0
0
0
0
0
0
0
0
0
0
0
0
0
0
0
0
0
0
0
0
0
0
0
0
0
0
0
0
0
0
0
0
0
0
0
0
0
0
0
0
0
0
0
0
0
0
0
0
0
0
0
0
0
0
0
0
0
0
0
0
0
0
0
0
0
0
0
0
0
0
0
0
0
0
0
0
0
0
0
0
0
0
0
0
0
0
0
0
0
0
0
0
0
0
0
0
0
0
0
0
0
0
0
0
0
0
0
0
0
0
0
0
0
0
0
0
0
0
0
0
0
0
0
0
0
0
0
0
0
0
0
0
0
0
0
0
0
0
0
0
0
0
0
0
0
0
0
0
0
0
0
0
0
0
0
0
0
0
0
0
0
0
0
0
0
0
0
0
0
0
0
0
0
0
0
0
0
0
0
0
0
0
0
0
0
0
0
0
0
0
0
155289
141355
96541.4
146091
170119
110502
93442.6
76032.9
140383
78059.8
136129
222484
244717
252299
72345.7
117784
137450
103196
196565
233106
373096
135246
500077
160005
168648
277324
167872
155743
136618
92678.7
189425
139537
121935
816502
287151
288605
202183
152213
172444
121853
197398
181632
240926
443125
355298
350795
1.22926e+07
171211
340805
175484
220355
1.5198e+07
2.93231e+06
133680
539947
157382
264559
197628
171069
383715
215784
267767
245097
198347
114214
434385
231381
416975
274600
197633
180301
226842
139503
182560
215674
169549
283910
1.06867e+07
149573
225455
211026
426936
153713
136031
310852
128768
220379
191851
197999
245369
235766
319321
219848
275484
174684
210271
56038.4
89786.2
42898.5
36015.3
94947.2
52490.4
39876.9
25089.4
39153.6
27136.5
77291.3
51505.9
97261.3
27444.7
27195.8
61559.6
0
0
0
0
0
0
0
0
0
0
0
0
0
0
0
0
0
0
0
0
0
0
0
0
0
0
0
0
0
0
0
0
0
0
0
0
0
0
0
0
0
0
0
0
0
0
0
0
0
0
0
0
0
0
0
0
0
0
0
0
0
0
0
0
0
0
0
0
0
0
0
0
0
0
0
0
0
0
0
0
0
0
0
0
0
0
0
0
0
0
0
0
0
0
0
0
0
0
0
0
0
0
0
0
0
0
0
0
0
0
0
0
0
0
0
0
0
0
0
0
0
0
0
0
0
0
0
0
0
0
0
0
0
0
0
0
0
0
0
0
0
0
0
0
0
0
0
0
0
0
0
0
0
0
0
0
0
0
0
0
0
0
0
0
0
0
0
0
0
0
0
0
0
0
0
0
0
0
0
0
0
0
0
0
0
0
0
0
0
0
0
0
0
0
0
0
0
0
0
0
0
0
0
0
0
0
0
0
0
0
0
0
0
0
0
0
0
0
0
0
0
0
0
0
0
0
0
0
0
0
0
0
0
0
0
0
0
0
0
0
0
0
0
0
0
0
0
0
0
0
0
0
0
0
0
0
0
0
0
0
0
0
0
0
0
0
0
0
0
0
0
0
103223
313918
134824
126913
165592
102540
161381
243521
184330
144209
136447
82740.1
111122
261259
158421
505551
109921
122705
177603
335273
410620
223822
154148
83926.4
151727
175953
134784
4.43085e+07
184697
181086
127023
284783
225905
213060
412561
130846
444286
146145
212574
310851
114962
1.30299e+06
198191
247587
433094
136701
354117
160365
184719
261899
201808
148428
226804
180863
282756
177660
228258
335540
350949
174279
149689
743462
140734
203852
172332
329359
212410
176983
413628
133101
219834
247845
170310
221992
165303
347294
189004
182182
291140
206820
161156
188184
216074
139391
168582
173193
151742
243865
359009
170568
6.25699e+06
131133
1.56915e+07
129573
135474
183156
133342
80683.8
82066.2
79384.9
91998.6
77836.8
74759.5
82157.3
55751
41484.9
19829.4
26595.9
260069
53679.6
73220.8
60348.8
0
0
0
0
0
0
147.841
0
0
0
0
0
0
0
0
0
0
0
0
0
0
0
0
0
0
0
0
0
0
0
0
0
0
0
0
0
0
0
0
0
0
0
0
0
0
0
0
0
0
0
0
0
0
0
0
0
0
0
0
0
0
0
0
0
0
0
0
0
0
0
0
0
0
0
0
0
0
0
0
0
0
0
0
0
0
0
0
0
0
0
0
0
0
0
0
0
0
0
0
0
0
0
0
0
0
0
0
0
0
0
0
0
0
0
0
0
0
0
0
0
0
0
0
0
0
0
0
0
0
0
0
0
0
0
0
0
0
0
0
0
0
0
0
0
0
0
0
0
0
0
0
0
0
0
0
0
0
0
0
0
0
0
0
0
0
0
0
0
0
0
0
0
0
0
0
0
0
0
0
0
0
0
0
0
0
0
0
0
0
0
0
0
0
0
0
0
0
0
0
0
0
0
0
0
0
0
0
0
0
0
0
0
0
0
0
0
0
0
0
0
0
0
0
0
0
0
0
0
0
0
0
0
0
0
0
0
0
0
0
0
0
0
0
0
0
0
0
0
0
0
0
0
0
0
0
0
0
0
0
0
0
0
0
0
0
0
0
0
0
0
0
0
)
;

boundaryField
{
    inlet
    {
        type            zeroGradient;
    }
    outlet
    {
        type            zeroGradient;
    }
    wall
    {
        type            zeroGradient;
    }
    procBoundary0to1
    {
        type            processor;
        value           nonuniform List<scalar> 
192
(
58653.8
133216
99136.1
152090
274432
176848
146047
5.98728e+06
109642
431952
242773
138574
277684
304217
159499
3.33187e+06
153200
219329
435846
120037
452637
118932
206315
1.90147e+06
66088.2
67407.4
152016
147251
0
0
0
1450.18
0
0
0
0
0
0
0
0
0
0
0
0
0
0
0
0
0
0
0
0
0
0
0
0
0
0
0
0
0
0
0
0
0
0
0
0
0
0
0
0
0
0
0
0
0
0
0
0
0
0
0
0
0
0
0
0
0
0
0
0
0
0
0
0
152810
125118
144625
88219.9
89676.6
430354
100815
122253
509914
223277
723231
7.39481e+06
446052
752703
140883
406141
257582
190911
250791
255743
553738
157016
216895
229621
72446.3
44388.5
46253.8
42271.4
0
0
0
0
0
0
0
0
0
0
0
0
0
0
0
0
0
0
0
0
0
0
0
0
0
0
0
0
0
0
0
0
0
0
0
0
0
0
0
0
0
0
0
0
0
0
0
0
0
0
0
0
0
0
0
0
0
0
0
0
0
0
0
0
0
0
0
0
)
;
    }
    procBoundary0to2
    {
        type            processor;
        value           nonuniform List<scalar> 
192
(
165122
346348
149319
198708
155291
131589
184408
1.30718e+07
186222
3.52262e+07
229514
113902
284185
168744
1.31659e+06
129175
322156
219608
182944
156755
601906
183533
251974
2.39212e+06
178271
81274.6
67588.6
89018.1
0
0
0
0
0
0
0
0
0
0
0
0
0
0
0
0
0
0
0
0
0
0
0
0
0
0
0
0
0
0
0
0
0
0
0
0
0
0
0
0
0
0
0
0
0
0
0
0
0
0
0
0
0
0
0
0
0
0
0
0
0
0
0
0
0
0
0
0
114919
81072
145978
110142
1.31077e+06
336133
1.58708e+06
282127
175596
131858
177561
176877
193925
145873
381588
131885
140681
178117
367591
213354
226863
90914.6
341018
165750
43335
16892.4
93098.5
25553.1
0
0
0
0
0
0
0
0
0
0
0
0
0
0
0
0
0
0
0
0
0
0
0
0
0
0
0
0
0
0
0
0
0
0
0
0
0
0
0
0
0
0
0
0
0
0
0
0
0
0
0
0
0
0
0
0
0
0
0
0
0
0
0
0
0
0
0
0
)
;
    }
}


// ************************************************************************* //
