/*--------------------------------*- C++ -*----------------------------------*\
| =========                 |                                                 |
| \\      /  F ield         | OpenFOAM: The Open Source CFD Toolbox           |
|  \\    /   O peration     | Version:  2506                                  |
|   \\  /    A nd           | Website:  www.openfoam.com                      |
|    \\/     M anipulation  |                                                 |
\*---------------------------------------------------------------------------*/
FoamFile
{
    version     2.0;
    format      ascii;
    arch        "LSB;label=32;scalar=64";
    class       volScalarField;
    location    "0.09";
    object      p;
}
// * * * * * * * * * * * * * * * * * * * * * * * * * * * * * * * * * * * * * //

dimensions      [0 2 -2 0 0 0 0];

internalField   nonuniform List<scalar> 
1152
(
16.3235
16.0076
15.7964
15.9638
16.2668
15.9156
16.0865
16.0424
16.0486
15.6131
15.6666
15.8451
15.744
15.3464
15.4739
15.4835
13.7729
13.7081
13.6591
12.5715
13.7215
13.6148
13.4377
13.3343
13.5088
13.3861
13.4987
13.0796
13.1363
12.7363
13.0737
12.9222
11.2692
11.6584
11.9652
11.3316
11.1607
11.8129
11.3382
11.252
11.6473
11.8218
11.2703
9.8861
11.8602
11.4903
11.7183
11.8155
8.12195
8.46507
8.94446
10.2952
8.3727
8.54092
8.90367
8.97526
8.82953
9.53899
9.33368
8.93089
9.74013
11.2641
10.1271
9.64916
4.47857
4.74143
4.50816
5.2205
5.00312
5.0378
5.54248
5.58622
4.97367
5.00181
6.2496
7.17857
4.73935
6.11907
6.61136
7.33276
1.29266
1.46814
1.61939
1.89276
1.36861
1.73096
2.05602
2.22661
1.53437
1.92358
2.05293
2.30099
1.83124
1.85133
2.42562
2.76533
0.990431
0.995192
1.0002
1.00639
0.999314
1.00325
0.999359
0.989699
1.00779
1.01021
0.994914
1.04893
1.02248
1.02075
0.972734
1.01011
0.993692
0.996758
0.999686
1.00147
0.994339
0.99646
0.998481
1.00192
0.994813
0.997294
0.998752
0.999691
0.99674
1.00016
1.0007
1.00026
1.00337
1.00493
1.00666
1.00813
1.00281
1.00409
1.00499
1.00588
1.00298
1.0043
1.00511
1.0074
1.00354
1.0042
1.00383
1.00541
1.00221
1.00332
1.00447
1.00553
1.00194
1.00295
1.00385
1.0046
1.00193
1.00288
1.00368
1.00462
1.00209
1.00273
1.00288
1.00362
1.00279
1.00345
1.0041
1.00468
1.00255
1.00316
1.0037
1.0042
1.00249
1.00304
1.00351
1.00392
1.00251
1.00292
1.00313
1.00344
1.00274
1.00315
1.00355
1.0039
1.00259
1.00296
1.0033
1.0036
1.00252
1.00286
1.00315
1.00337
1.00249
1.00275
1.00293
1.00309
1.00264
1.00289
1.00314
1.00335
1.00253
1.00276
1.00297
1.00316
1.00246
1.00267
1.00285
1.00299
1.00242
1.00258
1.00271
1.00281
1.00247
1.00263
1.00278
1.00292
1.00239
1.00254
1.00267
1.00278
1.00233
1.00246
1.00257
1.00266
1.00229
1.00239
1.00248
1.00254
1.00227
1.00237
1.00246
1.00255
1.00221
1.0023
1.00239
1.00246
1.00216
1.00224
1.00231
1.00237
1.00213
1.00219
1.00224
1.00229
1.00205
1.00211
1.00217
1.00222
1.002
1.00206
1.00211
1.00216
1.00196
1.00201
1.00206
1.0021
1.00193
1.00197
1.00201
1.00204
1.00181
1.00185
1.00189
1.00193
1.00178
1.00182
1.00185
1.00188
1.00175
1.00178
1.00181
1.00184
1.00173
1.00175
1.00177
1.00179
1.00157
1.0016
1.00162
1.00165
1.00155
1.00157
1.00159
1.00162
1.00153
1.00155
1.00157
1.00158
1.00151
1.00152
1.00154
1.00155
1.00133
1.00135
1.00136
1.00138
1.00131
1.00133
1.00134
1.00136
1.0013
1.00131
1.00132
1.00133
1.00128
1.00129
1.0013
1.00131
1.00109
1.0011
1.00111
1.00112
1.00108
1.00109
1.00109
1.0011
1.00106
1.00107
1.00108
1.00109
1.00105
1.00106
1.00107
1.00107
1.00085
1.00085
1.00086
1.00087
1.00084
1.00084
1.00085
1.00086
1.00083
1.00083
1.00084
1.00084
1.00082
1.00082
1.00083
1.00083
1.0006
1.00061
1.00061
1.00062
1.0006
1.0006
1.00061
1.00061
1.00059
1.0006
1.0006
1.0006
1.00059
1.00059
1.00059
1.0006
1.00036
1.00036
1.00037
1.00037
1.00036
1.00036
1.00036
1.00036
1.00036
1.00036
1.00036
1.00036
1.00035
1.00035
1.00036
1.00036
1.00012
1.00012
1.00012
1.00012
1.00012
1.00012
1.00012
1.00012
1.00012
1.00012
1.00012
1.00012
1.00012
1.00012
1.00012
1.00012
16.3525
16.3403
16.3919
16.4135
16.8138
16.4723
16.4176
16.2797
16.5929
16.4257
16.3823
16.3044
16.725
16.2685
16.0627
16.0239
13.7681
13.836
13.9092
13.8238
13.8056
13.8506
13.8814
13.7843
13.9483
14.0032
13.6935
13.6292
13.7751
13.6421
12.9872
13.4154
11.3713
11.4439
10.9311
10.1948
10.83
10.9976
10.9923
11.0521
11.13
11.0102
11.0562
11.5066
11.3053
11.5966
11.9341
11.6307
7.99314
8.09941
8.06839
8.95876
8.44757
8.28911
8.38396
8.71701
7.68443
7.94047
8.31242
8.4123
7.45626
6.85601
9.83022
9.25652
4.85352
4.97419
4.67037
5.00748
5.02168
4.94947
4.84498
5.06341
4.62874
4.77189
4.98983
5.00369
4.50425
4.54968
4.94142
5.1182
1.86464
1.4919
1.41373
1.33095
1.62049
1.56531
1.3614
1.21655
1.48304
1.24262
1.43533
1.37536
1.6095
1.62304
1.36854
1.58187
0.995478
0.984209
0.998005
1.00032
0.979863
0.995162
0.999574
1.00036
0.993906
0.994256
0.979932
0.997129
0.974214
1.00451
0.99907
0.999718
0.990336
0.991011
0.991645
0.992438
0.98882
0.989696
0.990839
0.992484
0.986996
0.988098
0.989499
0.992216
0.985991
0.987517
0.989614
0.993082
1.00127
1.00119
1.00189
1.00257
0.998839
0.999709
1.00057
1.00156
0.998947
0.99938
0.99963
1.00116
0.998258
1.00031
1.00064
1.00183
1.00048
1.0007
1.00104
1.00144
0.999349
0.999852
1.00039
1.00105
0.999109
0.999619
1.00008
1.00092
0.999002
0.999844
1.00038
1.00118
1.00193
1.002
1.00217
1.00237
1.00118
1.00136
1.00167
1.00206
1.00094
1.00113
1.00147
1.00194
1.00086
1.00115
1.00152
1.002
1.00218
1.00224
1.00234
1.00246
1.00174
1.00187
1.00205
1.00228
1.00159
1.00172
1.00192
1.0022
1.00154
1.00169
1.00191
1.00219
1.00232
1.00235
1.00241
1.00247
1.00204
1.0021
1.00221
1.00234
1.00191
1.00199
1.00211
1.00227
1.00187
1.00194
1.00207
1.00224
1.00228
1.0023
1.00233
1.00237
1.0021
1.00214
1.0022
1.00228
1.00201
1.00205
1.00212
1.00222
1.00197
1.00201
1.00209
1.00218
1.00216
1.00217
1.00219
1.00221
1.00204
1.00206
1.0021
1.00214
1.00197
1.00199
1.00204
1.00209
1.00193
1.00196
1.002
1.00206
1.00198
1.00199
1.002
1.00201
1.0019
1.00191
1.00193
1.00196
1.00185
1.00186
1.00189
1.00192
1.00182
1.00183
1.00186
1.00189
1.00177
1.00178
1.00178
1.00179
1.00172
1.00172
1.00174
1.00175
1.00168
1.00169
1.0017
1.00172
1.00165
1.00166
1.00168
1.0017
1.00155
1.00155
1.00155
1.00156
1.00151
1.00151
1.00152
1.00153
1.00148
1.00149
1.0015
1.00151
1.00146
1.00147
1.00148
1.00149
1.00132
1.00132
1.00132
1.00132
1.00129
1.00129
1.0013
1.0013
1.00127
1.00127
1.00128
1.00129
1.00125
1.00126
1.00126
1.00127
1.00108
1.00108
1.00108
1.00108
1.00106
1.00106
1.00107
1.00107
1.00105
1.00105
1.00105
1.00106
1.00103
1.00104
1.00104
1.00105
1.00084
1.00084
1.00084
1.00084
1.00083
1.00083
1.00083
1.00083
1.00082
1.00082
1.00082
1.00082
1.00081
1.00081
1.00081
1.00082
1.0006
1.0006
1.0006
1.0006
1.00059
1.00059
1.00059
1.0006
1.00059
1.00059
1.00059
1.00059
1.00058
1.00058
1.00058
1.00058
1.00036
1.00036
1.00036
1.00036
1.00036
1.00036
1.00036
1.00036
1.00035
1.00035
1.00035
1.00035
1.00035
1.00035
1.00035
1.00035
1.00012
1.00012
1.00012
1.00012
1.00012
1.00012
1.00012
1.00012
1.00012
1.00012
1.00012
1.00012
1.00012
1.00012
1.00012
1.00012
16.1675
16.1711
15.7712
15.1379
16.3942
16.1645
15.6486
14.2356
16.4117
16.1478
15.2307
12.8915
16.3757
16.2219
15.6411
14.8185
13.8998
13.634
13.594
12.6744
13.8684
13.6821
13.5434
12.3388
13.7262
13.8067
14.2706
12.5515
13.8214
13.7034
13.9022
13.9974
11.4605
11.4525
11.2194
10.9146
11.1179
11.2104
11.6875
11.9765
11.1335
11.5616
12.6274
16.5753
11.1189
11.5785
12.0271
12.5139
7.82187
8.00245
7.72897
8.00277
7.87011
7.78362
7.91283
8.14543
7.94216
7.71421
8.10472
8.72226
7.75943
8.2957
8.494
9.02219
4.57218
4.32691
4.45485
4.71603
4.37675
4.3013
4.01004
4.64895
4.10831
3.98108
3.11701
4.43416
3.25185
3.96164
4.25553
4.87149
2.00139
1.70895
1.65173
1.86812
1.77734
1.74387
1.2103
1.52988
1.4455
1.35278
-1.87261
1.17367
1.63911
1.40355
1.20339
1.52073
0.981874
0.986044
0.990023
0.992788
0.992706
0.993234
1.01758
0.997598
1.01094
1.02309
1.21477
1.03124
1.09371
1.00797
1.02718
1.0109
0.993398
0.99507
0.998476
0.999823
0.994195
0.99679
1.00308
1.00312
0.995696
0.999466
1.00851
1.00682
0.99918
0.999202
1.00412
1.00482
1.00277
1.00475
1.007
1.00847
1.00319
1.00511
1.00778
1.00892
1.00432
1.00626
1.01
1.01049
1.0053
1.00621
1.00827
1.00925
1.00168
1.00305
1.00453
1.00584
1.00188
1.00321
1.00476
1.00601
1.00219
1.0035
1.00532
1.00635
1.00248
1.00359
1.00486
1.00592
1.00273
1.00359
1.0045
1.00535
1.00274
1.00357
1.00448
1.00529
1.00285
1.00365
1.00457
1.00531
1.00296
1.00365
1.00438
1.00503
1.0027
1.0033
1.0039
1.00446
1.00272
1.00329
1.00388
1.00441
1.00276
1.0033
1.00386
1.00434
1.00282
1.00328
1.00374
1.00415
1.00266
1.00304
1.00342
1.00377
1.00266
1.00302
1.00339
1.00373
1.00268
1.00301
1.00335
1.00365
1.00271
1.00299
1.00327
1.00352
1.0025
1.00275
1.003
1.00322
1.00251
1.00274
1.00297
1.00319
1.00251
1.00272
1.00293
1.00313
1.00252
1.0027
1.00287
1.00304
1.0023
1.00246
1.00262
1.00276
1.0023
1.00245
1.0026
1.00274
1.0023
1.00244
1.00257
1.00269
1.00231
1.00242
1.00253
1.00263
1.00208
1.00218
1.00228
1.00237
1.00207
1.00217
1.00227
1.00236
1.00207
1.00216
1.00225
1.00232
1.00207
1.00214
1.00222
1.00228
1.00184
1.00191
1.00197
1.00203
1.00184
1.0019
1.00196
1.00202
1.00183
1.00189
1.00195
1.002
1.00183
1.00188
1.00192
1.00197
1.00159
1.00164
1.00168
1.00172
1.00159
1.00163
1.00167
1.00171
1.00159
1.00163
1.00166
1.0017
1.00159
1.00162
1.00165
1.00167
1.00135
1.00138
1.0014
1.00143
1.00134
1.00137
1.0014
1.00142
1.00134
1.00137
1.00139
1.00141
1.00134
1.00136
1.00138
1.0014
1.0011
1.00112
1.00114
1.00115
1.0011
1.00112
1.00113
1.00115
1.0011
1.00111
1.00113
1.00114
1.0011
1.00111
1.00112
1.00113
1.00085
1.00087
1.00088
1.00089
1.00085
1.00086
1.00088
1.00089
1.00085
1.00086
1.00087
1.00088
1.00085
1.00086
1.00087
1.00087
1.00061
1.00062
1.00062
1.00063
1.00061
1.00062
1.00062
1.00063
1.00061
1.00061
1.00062
1.00063
1.00061
1.00061
1.00062
1.00062
1.00036
1.00037
1.00037
1.00038
1.00036
1.00037
1.00037
1.00038
1.00036
1.00037
1.00037
1.00037
1.00036
1.00037
1.00037
1.00037
1.00012
1.00012
1.00012
1.00013
1.00012
1.00012
1.00012
1.00013
1.00012
1.00012
1.00012
1.00012
1.00012
1.00012
1.00012
1.00012
)
;

boundaryField
{
    inlet
    {
        type            zeroGradient;
    }
    outlet
    {
        type            fixedValue;
        value           uniform 1;
    }
    wall
    {
        type            zeroGradient;
    }
    procBoundary0to1
    {
        type            processor;
        value           nonuniform List<scalar> 
192
(
15.4244
15.7562
15.718
15.4672
13.3178
13.5299
13.3204
12.7425
11.7744
11.5587
11.0342
11.7271
8.96703
8.44049
8.42501
8.75313
5.08313
4.92184
5.94073
6.02778
1.71202
2.02695
2.19687
3.2202
1.01888
1.02639
0.99911
1.0099
1.00423
1.00157
1.0006
1.00275
1.00987
1.00794
1.00637
1.00462
1.00633
1.00543
1.00456
1.00347
1.00514
1.00455
1.00408
1.00347
1.00418
1.00382
1.0035
1.00314
1.00352
1.00329
1.00308
1.00285
1.00303
1.00287
1.00272
1.00258
1.00262
1.00252
1.00241
1.00231
1.00227
1.0022
1.00213
1.00206
1.00195
1.00191
1.00186
1.00181
1.00166
1.00163
1.0016
1.00156
1.00139
1.00137
1.00134
1.00132
1.00113
1.00111
1.00109
1.00108
1.00087
1.00086
1.00085
1.00084
1.00062
1.00061
1.0006
1.0006
1.00037
1.00037
1.00036
1.00036
1.00012
1.00012
1.00012
1.00012
14.8826
14.8846
14.405
14.9396
12.8783
12.6169
11.993
12.3959
11.5273
10.9114
11.1866
12.1313
7.19536
7.01834
7.18718
8.50433
4.00414
3.81913
4.51705
4.87283
1.35827
1.44743
1.53352
1.3875
1.00024
1.01939
1.04792
1.02893
1.00335
1.00732
1.01256
1.00928
1.01036
1.01162
1.01281
1.01138
1.00709
1.00744
1.0076
1.007
1.00604
1.00603
1.00595
1.0056
1.00487
1.00483
1.00472
1.00448
1.00403
1.00398
1.00388
1.00372
1.00338
1.00334
1.00327
1.00316
1.00286
1.00284
1.00279
1.00271
1.00244
1.00242
1.00238
1.00233
1.00207
1.00206
1.00203
1.002
1.00175
1.00174
1.00172
1.0017
1.00145
1.00144
1.00143
1.00141
1.00117
1.00116
1.00115
1.00114
1.0009
1.00089
1.00089
1.00088
1.00064
1.00063
1.00063
1.00063
1.00038
1.00038
1.00038
1.00037
1.00013
1.00013
1.00013
1.00012
)
;
    }
    procBoundary0to2
    {
        type            processor;
        value           nonuniform List<scalar> 
192
(
15.799
15.2055
15.5083
15.245
12.3502
8.95914
12.2537
12.2277
12.217
12.729
12.2922
13.7695
11.3199
17.1172
11.5789
10.6535
6.06607
7.25504
6.63265
6.32442
1.79875
2.1951
2.18938
2.04314
0.985154
1.02416
1.0319
1.08197
0.998817
1.00095
1.00221
1.00387
1.0035
1.00486
1.00487
1.00523
1.00231
1.00296
1.00311
1.00328
1.00266
1.003
1.00314
1.00325
1.00257
1.00277
1.00288
1.00294
1.00245
1.00257
1.00264
1.00269
1.00229
1.00236
1.00242
1.00245
1.00211
1.00216
1.00219
1.00222
1.00192
1.00194
1.00197
1.00199
1.00171
1.00173
1.00174
1.00175
1.00149
1.0015
1.00151
1.00152
1.00127
1.00128
1.00128
1.00129
1.00104
1.00105
1.00105
1.00106
1.00081
1.00082
1.00082
1.00082
1.00058
1.00058
1.00059
1.00059
1.00035
1.00035
1.00035
1.00035
1.00012
1.00012
1.00012
1.00012
16.8379
16.6329
16.5808
16.1629
14.0162
13.9683
13.4397
13.4222
10.932
11.0327
11.5192
11.567
7.72105
8.0646
9.01345
9.48711
4.61862
4.45453
4.99737
5.63737
1.47304
1.35515
1.30175
1.33301
0.988339
0.997741
0.981739
1.00316
0.986771
0.989302
0.991351
0.995294
0.999627
1.00083
1.00083
1.00243
0.999738
1.00045
1.0008
1.0016
1.00131
1.00154
1.00182
1.00224
1.0018
1.00192
1.0021
1.00232
1.002
1.00207
1.00217
1.0023
1.00203
1.00207
1.00213
1.00221
1.00196
1.00198
1.00201
1.00206
1.00182
1.00183
1.00185
1.00188
1.00165
1.00166
1.00167
1.00169
1.00145
1.00146
1.00147
1.00148
1.00124
1.00125
1.00125
1.00126
1.00103
1.00103
1.00103
1.00104
1.0008
1.0008
1.00081
1.00081
1.00058
1.00058
1.00058
1.00058
1.00035
1.00035
1.00035
1.00035
1.00012
1.00012
1.00012
1.00012
)
;
    }
}


// ************************************************************************* //
