/*--------------------------------*- C++ -*----------------------------------*\
| =========                 |                                                 |
| \\      /  F ield         | OpenFOAM: The Open Source CFD Toolbox           |
|  \\    /   O peration     | Version:  2506                                  |
|   \\  /    A nd           | Website:  www.openfoam.com                      |
|    \\/     M anipulation  |                                                 |
\*---------------------------------------------------------------------------*/
FoamFile
{
    version     2.0;
    format      ascii;
    arch        "LSB;label=32;scalar=64";
    class       surfaceScalarField;
    location    "0.09";
    object      phi;
}
// * * * * * * * * * * * * * * * * * * * * * * * * * * * * * * * * * * * * * //

dimensions      [0 3 -1 0 0 0 0];

oriented        oriented;

internalField   nonuniform List<scalar> 
3120
(
7.26476e-09
1.74625e-09
4.90243e-08
-1.52211e-09
-2.02976e-09
8.21242e-09
3.83702e-09
5.42996e-08
-5.59339e-09
-4.64151e-09
-8.78465e-09
6.83517e-08
6.95925e-09
-6.66719e-10
2.01099e-08
5.91499e-09
9.86177e-09
6.23163e-09
3.88872e-08
1.26165e-09
-4.16818e-09
8.54855e-09
6.31702e-08
9.0562e-10
1.90874e-08
2.09907e-08
6.36052e-09
3.96086e-08
1.12232e-08
7.87991e-09
4.68057e-08
-5.43671e-09
-3.05353e-09
1.45835e-08
6.27625e-08
-8.84242e-09
1.23753e-08
6.70291e-08
1.00459e-08
3.91702e-08
2.08765e-08
4.94778e-08
-7.18542e-09
-9.39432e-09
9.29976e-08
-1.58445e-10
5.90801e-08
5.91134e-08
1.75412e-09
2.68201e-09
4.59549e-08
5.05507e-10
-1.87229e-09
3.79619e-09
4.80414e-09
4.92157e-08
-1.76235e-09
3.28533e-08
1.03347e-08
4.30584e-08
-1.40986e-08
-8.72765e-09
9.33196e-08
-1.96406e-08
3.4037e-09
5.92966e-09
3.10027e-08
1.2331e-09
9.57705e-09
1.25282e-08
4.92727e-08
4.1808e-09
1.23354e-09
3.54881e-08
7.06406e-09
3.34252e-08
3.21907e-09
1.34946e-08
3.67882e-08
-7.66525e-10
-4.94322e-09
2.83329e-08
5.51199e-08
1.08477e-08
1.41713e-08
3.83003e-08
7.59999e-09
5.62324e-08
9.86483e-09
3.31402e-08
-6.44034e-09
-8.90365e-09
2.8004e-08
7.98325e-09
3.36821e-08
5.70326e-08
-3.10383e-09
2.22908e-09
3.12888e-08
1.64562e-08
-9.1535e-10
-1.90364e-09
2.14505e-10
4.97616e-08
-1.96069e-09
4.78608e-09
1.35469e-08
2.5566e-08
-2.74416e-09
3.3523e-08
1.44793e-07
-5.96655e-08
-4.92132e-09
-4.76329e-09
4.11063e-08
1.81006e-09
1.00195e-08
1.88013e-09
3.26662e-08
2.74498e-09
3.40717e-09
5.29023e-08
3.42479e-08
4.05413e-08
-4.36939e-09
-2.98344e-09
3.73807e-08
1.99703e-09
7.98547e-09
9.52061e-09
3.51246e-08
2.58133e-08
-1.82508e-09
2.57047e-08
-2.87314e-08
1.71097e-07
5.08636e-09
2.73859e-08
4.54035e-09
-4.44322e-09
1.89467e-08
-1.3711e-09
3.42858e-08
7.96861e-08
-7.29219e-09
-2.65818e-09
3.97049e-08
-6.61317e-09
8.14748e-09
-8.76849e-09
1.51901e-10
5.37582e-08
-2.67219e-09
-1.68718e-08
3.0245e-09
2.48529e-08
5.79191e-09
2.70467e-08
6.06497e-08
2.11686e-08
-2.16734e-09
-7.03788e-09
5.89652e-08
-1.13119e-08
-7.25228e-09
-1.05025e-08
4.84055e-08
-2.60834e-09
-6.85778e-09
5.81406e-08
1.63586e-08
4.12981e-08
-7.62643e-09
-1.0351e-08
4.47281e-08
3.59216e-09
2.13261e-09
-2.60662e-08
4.09293e-08
-1.8635e-09
-1.36123e-08
3.64554e-08
-4.02446e-09
1.90878e-07
-2.46538e-08
5.48288e-08
6.76012e-09
2.26862e-08
7.15804e-08
1.56152e-08
4.55757e-08
1.20829e-07
-2.79389e-09
-7.35983e-09
3.17636e-08
-7.6054e-09
2.57004e-08
1.32767e-09
-2.7527e-09
4.23889e-08
1.00004e-08
-6.88476e-09
-9.5155e-09
4.25839e-08
-3.06396e-12
-3.42327e-09
4.89704e-08
4.808e-09
-7.04827e-10
2.09562e-09
5.24423e-08
-2.2278e-09
-1.00194e-08
1.22359e-09
5.37438e-08
-7.00325e-11
-1.04607e-08
4.91365e-08
-3.3052e-08
6.22235e-08
-1.0108e-09
4.46329e-09
4.42498e-08
-8.78551e-10
-1.54596e-08
-1.69124e-08
7.35141e-08
-2.21175e-08
-3.57457e-09
3.62271e-08
-1.54802e-09
1.10902e-07
-2.57271e-08
1.08823e-07
-5.92411e-09
-7.59817e-09
5.57256e-08
-4.24761e-09
3.88524e-08
8.07335e-08
-2.59988e-09
-8.08491e-10
4.00685e-08
-9.41948e-10
-3.95456e-09
-3.36432e-09
-6.13773e-09
4.68482e-08
2.44289e-09
-6.53192e-09
-1.01675e-08
4.3257e-08
1.2662e-08
-1.06031e-08
4.15032e-08
8.38587e-09
-6.46976e-09
-2.01618e-09
5.7471e-08
2.64874e-09
-6.29963e-09
-7.7365e-09
5.51724e-08
-5.46355e-09
-1.00139e-10
3.8233e-08
-2.92495e-09
4.15203e-08
-1.16934e-08
-1.27347e-08
6.69614e-08
-2.99682e-10
-4.60003e-09
4.56817e-10
5.82273e-08
-5.62958e-09
-4.23164e-09
4.13881e-08
-1.18178e-08
1.11984e-07
-2.59794e-09
8.07177e-08
1.29169e-08
-5.73746e-09
6.15988e-08
-6.26967e-09
3.16695e-08
5.67282e-08
-9.44478e-10
-1.10599e-09
5.17284e-08
1.11076e-09
-1.07199e-08
-7.6142e-10
-2.49661e-09
5.0289e-08
-1.12747e-09
-1.06625e-09
-1.62073e-09
4.63284e-08
-1.14586e-09
-2.60501e-09
4.20515e-08
2.3469e-09
-1.5859e-09
-1.60129e-09
5.79456e-08
1.6065e-09
1.48063e-10
-2.14755e-09
5.30893e-08
-4.48589e-10
-4.10303e-10
3.76193e-08
-7.25221e-09
4.91639e-08
-6.75352e-10
-2.82433e-10
6.58917e-08
4.26185e-10
8.08138e-10
-1.59624e-09
5.61926e-08
-5.9442e-09
7.50736e-10
4.69794e-08
5.96073e-09
8.67414e-08
2.58839e-09
6.95145e-08
5.6916e-10
4.16395e-09
5.80875e-08
2.0735e-10
3.93536e-08
6.4709e-08
-1.58258e-09
-1.71726e-10
5.5042e-08
3.34152e-09
-4.9009e-09
-4.6305e-09
-6.37737e-09
5.58712e-08
3.84268e-09
-4.14665e-09
-7.25966e-09
4.93388e-08
3.76531e-09
-1.82807e-08
4.41029e-08
1.22106e-08
-4.21287e-09
-2.36486e-09
6.13424e-08
3.0086e-09
-1.14385e-08
-2.89218e-09
5.68297e-08
-1.4969e-08
9.55719e-10
3.29342e-08
1.20821e-08
-7.51315e-09
-2.39091e-09
-3.51635e-09
6.64961e-08
2.93809e-09
-3.85189e-09
-2.44474e-09
5.72062e-08
-4.13753e-09
3.98323e-09
4.42375e-08
1.59261e-08
7.55484e-08
-3.99083e-10
6.5071e-08
1.61852e-09
5.09775e-09
4.71967e-08
2.26364e-09
4.11395e-08
7.8847e-08
3.30035e-09
5.9873e-10
5.6212e-08
-2.08535e-09
-2.98403e-09
5.42049e-09
4.13521e-09
5.61831e-08
-6.56716e-09
3.97302e-09
1.05878e-08
5.34253e-08
-1.32271e-08
1.04682e-08
5.18719e-08
-1.21762e-08
8.86149e-09
-1.23191e-09
5.83158e-08
-4.00438e-09
1.41568e-08
3.79628e-10
5.52901e-08
1.08774e-08
-7.75237e-10
4.75764e-08
-1.74166e-08
3.9169e-08
6.82726e-09
2.3313e-09
5.91242e-08
-3.01844e-09
6.50425e-09
2.64638e-09
5.52626e-08
-2.00426e-10
-1.25701e-09
5.14239e-08
-8.74162e-09
6.16463e-08
8.6351e-09
5.71521e-08
-4.30713e-09
5.43841e-09
5.12657e-08
-1.86401e-09
4.91547e-08
6.30686e-08
1.11516e-09
-1.1695e-09
5.55799e-08
-3.6929e-10
1.05577e-09
1.88954e-09
1.01467e-09
5.54902e-08
-1.09613e-09
1.34963e-09
3.1907e-09
5.4394e-08
-3.61949e-09
2.67536e-09
5.38184e-08
-3.67208e-09
3.62402e-09
-7.55657e-10
5.61078e-08
-1.83003e-09
4.87126e-09
3.42748e-10
5.47147e-08
3.33926e-09
2.68624e-10
5.20304e-08
-5.08871e-09
5.0678e-08
3.17389e-09
1.16253e-09
5.6319e-08
-2.28678e-09
2.35121e-09
1.53472e-09
5.48934e-08
1.06074e-10
4.00918e-10
5.35368e-08
-2.57984e-09
5.63791e-08
3.87076e-09
5.51203e-08
-2.77621e-09
2.28955e-09
5.32488e-08
-5.86557e-10
5.23935e-08
5.68934e-08
1.2626e-09
-4.90504e-11
5.52634e-08
-1.06904e-09
1.71866e-10
1.43727e-09
7.70779e-10
5.52299e-08
-6.85148e-10
1.08732e-09
1.44727e-09
5.47895e-08
-1.49298e-09
1.13066e-09
5.4601e-08
-1.61113e-09
2.08717e-09
4.02569e-11
5.54297e-08
-1.49845e-09
2.30903e-09
3.80044e-10
5.48835e-08
1.46284e-09
3.86343e-10
5.39374e-08
-1.02781e-09
5.36941e-08
1.96634e-09
6.3832e-10
5.55145e-08
-1.75984e-09
1.54891e-09
7.36825e-10
5.4954e-08
6.8079e-10
3.56249e-10
5.44349e-08
-6.07182e-10
5.52422e-08
2.07186e-09
5.49055e-08
-1.70604e-09
1.41454e-09
5.42301e-08
2.20943e-10
5.3861e-08
5.52959e-08
7.00209e-10
-1.18285e-10
5.50033e-08
-5.74809e-10
2.52995e-10
8.1791e-10
3.04511e-10
5.50353e-08
-2.27458e-10
7.15318e-10
6.0872e-10
5.48769e-08
-5.93485e-10
5.62106e-10
5.48223e-08
-7.45725e-10
1.09338e-09
-4.0053e-11
5.51177e-08
-8.59731e-10
1.14657e-09
1.96563e-10
5.49383e-08
8.33593e-10
2.41865e-10
5.46172e-08
-1.13566e-10
5.45534e-08
1.15101e-09
2.22626e-10
5.5199e-08
-1.09812e-09
9.90685e-10
3.18394e-10
5.49925e-08
6.53415e-10
2.38533e-10
5.47755e-08
-4.0356e-11
5.49871e-08
1.1707e-09
5.4923e-08
-1.05403e-09
9.04368e-10
5.46852e-08
4.33012e-10
5.45159e-08
5.49432e-08
5.15194e-10
-2.03697e-11
5.48892e-08
-4.64287e-10
8.35649e-11
5.56379e-10
1.63782e-10
5.49497e-08
-1.19274e-10
5.03666e-10
2.80936e-10
5.49094e-08
-2.60776e-10
2.99177e-10
5.48873e-08
-3.5931e-10
6.58911e-10
4.33963e-12
5.50012e-08
-5.671e-10
6.74363e-10
1.17535e-10
5.49692e-08
5.52998e-10
1.54945e-10
5.48645e-08
7.48296e-11
5.48337e-08
7.19774e-10
9.91165e-11
5.50801e-08
-6.95553e-10
6.5785e-10
1.52666e-10
5.50193e-08
5.19818e-10
1.37901e-10
5.49305e-08
7.01889e-11
5.49656e-08
7.14285e-10
5.49737e-08
-6.52574e-10
6.19521e-10
5.49042e-08
4.36657e-10
5.48281e-08
5.49315e-08
3.5544e-10
-1.18081e-11
5.48193e-08
-3.18871e-10
4.52574e-11
3.78064e-10
7.61579e-11
5.49058e-08
-5.47276e-11
3.57695e-10
1.33408e-10
5.49149e-08
-1.18479e-10
1.59332e-10
5.49081e-08
-1.76824e-10
4.17377e-10
-2.56607e-12
5.49449e-08
-3.70319e-10
4.28426e-10
5.38453e-11
5.49805e-08
3.87404e-10
8.2023e-11
5.4957e-08
7.91798e-11
5.49386e-08
4.6556e-10
2.70409e-11
5.50267e-08
-4.41684e-10
4.48611e-10
5.63695e-11
5.50338e-08
3.89639e-10
6.94738e-11
5.5002e-08
5.88934e-11
5.49957e-08
4.61926e-10
5.50005e-08
-4.18847e-10
4.39241e-10
5.5002e-08
3.70589e-10
5.49754e-08
5.49878e-08
2.50885e-10
-1.21394e-11
5.4776e-08
-2.24057e-10
2.86158e-11
2.67025e-10
3.13184e-11
5.48794e-08
-2.10432e-11
2.58824e-10
6.12111e-11
5.49164e-08
-5.44281e-11
8.3064e-11
5.49195e-08
-8.90102e-11
2.80673e-10
-9.28086e-12
5.49112e-08
-2.49891e-10
2.93022e-10
2.14096e-11
5.49782e-08
2.77557e-10
4.10216e-11
5.49928e-08
5.10915e-11
5.49851e-08
3.10865e-10
1.75044e-12
5.49945e-08
-2.89622e-10
3.11349e-10
1.73497e-11
5.50374e-08
2.87592e-10
2.74855e-11
5.50394e-08
3.17569e-11
5.50292e-08
3.11281e-10
5.5008e-08
-2.77666e-10
3.12522e-10
5.50445e-08
2.87994e-10
5.50441e-08
5.50369e-08
1.77693e-10
-1.50325e-11
5.47471e-08
-1.57009e-10
2.32421e-11
1.89444e-10
8.25711e-12
5.48625e-08
-3.08763e-12
1.8762e-10
2.57176e-11
5.49154e-08
-2.28092e-11
4.08572e-11
5.49272e-08
-4.40159e-11
1.94383e-10
-1.38847e-11
5.48879e-08
-1.72245e-10
2.05008e-10
3.57531e-12
5.49723e-08
2.00659e-10
1.67951e-11
5.50062e-08
2.7158e-11
5.50079e-08
2.12179e-10
-1.0567e-11
5.49728e-08
-1.93813e-10
2.18219e-10
-1.70355e-12
5.50368e-08
2.10449e-10
6.21288e-12
5.50578e-08
1.32374e-11
5.50536e-08
2.14943e-10
5.50031e-08
-1.89044e-10
2.22868e-10
5.50596e-08
2.15445e-10
5.50757e-08
5.50698e-08
1.26688e-10
-1.58148e-11
5.47269e-08
-1.10732e-10
2.0052e-11
1.35683e-10
-2.2796e-12
5.48507e-08
4.99832e-12
1.36352e-10
8.61667e-12
5.49135e-08
-7.27644e-12
1.89559e-11
5.49322e-08
-2.08038e-11
1.36774e-10
-1.49342e-11
5.48707e-08
-1.20499e-10
1.45724e-10
-4.62922e-12
5.49657e-08
1.4568e-10
4.12058e-12
5.50108e-08
1.22103e-11
5.50201e-08
1.47299e-10
-1.39378e-11
5.49567e-08
-1.32192e-10
1.54675e-10
-8.58291e-12
5.50334e-08
1.53312e-10
-2.7882e-12
5.50661e-08
3.25842e-12
5.5069e-08
1.50443e-10
5.49938e-08
-1.31286e-10
1.59274e-10
5.50625e-08
1.58534e-10
5.50895e-08
5.50894e-08
9.07585e-11
-1.4506e-11
5.47127e-08
-7.90999e-11
1.70371e-11
9.74983e-11
-6.28851e-12
5.48421e-08
8.06585e-12
9.91053e-11
8.40883e-13
5.49113e-08
-2.68024e-13
7.86722e-12
5.49352e-08
-9.04314e-12
9.70142e-11
-1.37269e-11
5.48577e-08
-8.48808e-11
1.0428e-10
-7.50998e-12
5.49596e-08
1.05794e-10
-1.62558e-12
5.50117e-08
4.20801e-12
5.50267e-08
1.03441e-10
-1.32315e-11
5.49442e-08
-9.14716e-11
1.10265e-10
-9.82918e-12
5.50288e-08
1.11344e-10
-5.7789e-12
5.50691e-08
-1.28657e-12
5.50779e-08
1.06079e-10
5.49838e-08
-9.18511e-11
1.13914e-10
5.50604e-08
1.15562e-10
5.50948e-08
5.51003e-08
6.48092e-11
-1.22897e-11
5.47025e-08
-5.61837e-11
1.39062e-11
6.99292e-11
-7.24982e-12
5.48358e-08
8.33621e-12
7.17179e-11
-2.38939e-12
5.49092e-08
2.59931e-12
2.4645e-12
5.49369e-08
-3.21445e-12
6.89037e-11
-1.16325e-11
5.48479e-08
-5.98548e-11
7.45357e-11
-7.73502e-12
5.49543e-08
7.64218e-11
-3.76096e-12
5.50111e-08
3.13801e-13
5.50302e-08
7.2882e-11
-1.12432e-11
5.49345e-08
-6.36494e-11
7.85856e-11
-8.98226e-12
5.50242e-08
8.04232e-11
-6.127e-12
5.50695e-08
-2.87342e-12
5.50826e-08
7.49028e-11
5.49748e-08
-6.45535e-11
8.12507e-11
5.50565e-08
8.34729e-11
5.5096e-08
5.51058e-08
4.58019e-11
-9.82727e-12
5.46951e-08
-3.95806e-11
1.09016e-11
4.96047e-11
-6.62228e-12
5.48312e-08
7.31701e-12
5.12223e-11
-3.35645e-12
5.49075e-08
3.39307e-12
-4.59228e-17
5.49379e-08
-5.61595e-13
4.85038e-11
-9.23042e-12
5.48406e-08
-4.19329e-11
5.27376e-11
-6.77473e-12
5.495e-08
5.44804e-11
-4.11009e-12
5.501e-08
-1.28752e-12
5.50321e-08
5.09926e-11
-8.76127e-12
5.49271e-08
-4.42089e-11
5.54256e-11
-7.30903e-12
5.50202e-08
5.72433e-11
-5.40681e-12
5.50689e-08
-3.22023e-12
5.5085e-08
5.24375e-11
5.49676e-08
-4.49801e-11
5.72924e-11
5.50527e-08
5.93687e-11
5.50957e-08
5.51086e-08
3.15879e-11
-7.45775e-12
5.469e-08
-2.72324e-11
8.12337e-12
3.43191e-11
-5.42765e-12
5.48279e-08
5.83061e-12
3.56221e-11
-3.27854e-12
5.49062e-08
3.21104e-12
-1.05395e-12
5.49386e-08
5.98374e-13
3.33427e-11
-6.98505e-12
5.48355e-08
-2.87435e-11
3.63967e-11
-5.4558e-12
5.49469e-08
3.77987e-11
-3.73131e-12
5.50091e-08
-1.9038e-12
5.50332e-08
3.48801e-11
-6.58221e-12
5.49218e-08
-3.01072e-11
3.81295e-11
-5.69503e-12
5.50172e-08
3.9591e-11
-4.49449e-12
5.50682e-08
-3.16208e-12
5.50865e-08
3.58348e-11
5.49623e-08
-3.06398e-11
3.93305e-11
5.50497e-08
4.08998e-11
5.5095e-08
5.51103e-08
2.07072e-11
-5.304e-12
5.46867e-08
-1.78332e-11
5.68261e-12
2.25558e-11
-4.06799e-12
5.48258e-08
4.27185e-12
2.34968e-11
-2.724e-12
5.49054e-08
2.60933e-12
-1.33893e-12
5.49391e-08
9.72028e-13
2.17921e-11
-4.96786e-12
5.48321e-08
-1.87562e-11
2.38587e-11
-4.05977e-12
5.49449e-08
2.48586e-11
-3.00592e-12
5.50084e-08
-1.91982e-12
5.5034e-08
2.27106e-11
-4.66596e-12
5.49184e-08
-1.95412e-11
2.49165e-11
-4.16192e-12
5.50152e-08
2.59234e-11
-3.4824e-12
5.50677e-08
-2.82344e-12
5.50876e-08
2.32726e-11
5.49588e-08
-1.98482e-11
2.56032e-11
5.50477e-08
2.65717e-11
5.50946e-08
5.51116e-08
1.21498e-11
-3.51391e-12
5.46849e-08
-1.04754e-11
3.67448e-12
1.32534e-11
-2.84649e-12
5.48247e-08
2.90613e-12
1.38239e-11
-2.10026e-12
5.49051e-08
1.97249e-12
-1.32798e-12
5.49395e-08
1.0593e-12
1.27394e-11
-3.32406e-12
5.48302e-08
-1.09597e-11
1.3971e-11
-2.84986e-12
5.49438e-08
1.45751e-11
-2.27989e-12
5.50082e-08
-1.71349e-12
5.50346e-08
1.32247e-11
-3.14107e-12
5.49164e-08
-1.13513e-11
1.4542e-11
-2.89842e-12
5.50141e-08
1.51347e-11
-2.5728e-12
5.50675e-08
-2.34019e-12
5.50883e-08
1.35037e-11
5.49567e-08
-1.1488e-11
1.48756e-11
5.50466e-08
1.53566e-11
5.50945e-08
5.51125e-08
5.46663e-12
-2.74224e-12
-4.73812e-12
2.60741e-12
5.90352e-12
-2.5397e-12
2.37773e-12
6.08645e-12
-2.28467e-12
2.04057e-12
-1.99525e-12
1.68794e-12
5.64055e-12
-2.78474e-12
-4.90671e-12
6.13177e-12
-2.67419e-12
6.34606e-12
-2.5023e-12
-2.30835e-12
5.76149e-12
-2.7729e-12
-4.97189e-12
6.30143e-12
-2.76696e-12
6.52734e-12
-2.70607e-12
-2.6859e-12
5.79115e-12
-4.92859e-12
6.37245e-12
6.54686e-12
6.91622e-10
-5.89388e-09
5.6292e-08
2.24127e-09
-4.8667e-09
-2.37261e-09
5.55419e-08
-1.08371e-09
-3.48173e-09
1.32358e-10
3.92779e-08
-1.36684e-09
5.0115e-09
2.2793e-08
2.00581e-11
1.86007e-08
4.14947e-09
3.71351e-08
3.66866e-09
2.09456e-09
7.0285e-08
9.10071e-09
1.29241e-09
4.48611e-08
-1.15988e-09
6.17359e-08
1.25735e-08
-1.42985e-09
6.70304e-08
2.39436e-09
5.16762e-09
7.48932e-08
1.40262e-09
1.12743e-08
5.14784e-08
6.9916e-09
4.04689e-08
1.0731e-08
6.88692e-08
9.19116e-09
8.82784e-08
3.9853e-10
1.01752e-07
6.1878e-08
-8.61381e-09
1.07458e-09
6.81455e-08
-4.51146e-09
-7.83557e-09
2.47819e-09
5.67778e-08
-4.4924e-09
9.81833e-10
1.89818e-09
2.78132e-08
7.49139e-10
1.44363e-09
2.37872e-08
-9.50527e-10
-5.64266e-09
-2.31988e-10
4.29073e-08
-6.43435e-09
-1.52989e-09
7.50847e-08
-2.21856e-09
3.65345e-09
3.889e-08
4.20773e-09
5.79863e-08
-1.87756e-09
4.98092e-09
6.38436e-08
7.48368e-09
1.13495e-08
5.26526e-08
-4.57569e-10
1.71832e-08
4.58899e-08
6.7861e-09
3.66665e-08
1.32764e-08
5.98683e-08
4.12825e-08
7.73396e-08
-1.81489e-08
1.8131e-07
4.46721e-08
-4.04564e-09
1.08369e-08
6.46135e-08
-2.50039e-09
7.62341e-09
6.7887e-09
3.8775e-08
-4.54938e-10
1.58673e-08
-1.65364e-09
2.5443e-08
-4.22017e-09
-1.63151e-08
8.00738e-08
-7.64814e-09
-7.34791e-09
-2.05289e-09
6.32808e-08
3.66148e-10
1.44573e-09
7.27136e-08
-6.05435e-11
-7.11812e-10
3.83749e-08
-8.90305e-09
5.23238e-08
4.42704e-09
7.48661e-11
5.77876e-08
-3.43287e-10
-5.60451e-09
6.44731e-08
-5.54557e-09
9.2308e-10
4.94573e-08
-1.48476e-09
2.56996e-08
-3.23679e-09
5.80326e-08
6.12775e-09
5.19205e-08
6.9008e-10
1.64139e-07
4.73972e-08
-2.59959e-09
6.85855e-09
6.26343e-08
-1.09621e-09
2.19613e-09
-1.17088e-09
3.39556e-08
1.19448e-09
-2.89742e-09
-9.45681e-10
3.03157e-08
1.16658e-09
2.3453e-08
5.5508e-08
-8.39786e-09
8.44918e-09
1.24362e-08
4.93946e-08
-1.19492e-09
7.96691e-09
7.32199e-08
-7.30694e-09
2.08444e-09
4.14568e-08
7.30615e-09
4.98518e-08
-6.60819e-09
4.12932e-09
7.27753e-08
-1.18523e-08
1.35504e-08
6.41337e-08
-9.6163e-10
-2.10361e-08
6.16871e-08
-1.02611e-08
4.58974e-08
1.15574e-08
5.30812e-08
-4.61057e-08
1.43364e-07
9.39263e-09
8.10404e-08
5.99855e-08
-3.78538e-09
-1.4175e-09
6.55791e-08
3.53466e-09
8.48718e-09
1.32446e-09
1.90103e-08
1.34831e-09
-2.46425e-09
-1.34901e-09
3.73271e-08
5.28901e-09
-7.33893e-11
3.09995e-08
1.45123e-08
2.19971e-09
7.57117e-09
3.82113e-08
3.41954e-09
3.39373e-09
6.99308e-08
-4.71323e-09
-1.66213e-09
4.99026e-08
1.40167e-09
4.14357e-08
-5.35784e-09
2.87477e-09
8.39041e-08
-5.44167e-09
6.24602e-09
6.13652e-08
8.16062e-10
1.07014e-09
5.26971e-08
-2.30215e-09
4.95388e-08
5.60837e-09
5.35494e-08
-6.97917e-09
1.59972e-07
-5.01957e-09
8.14079e-08
5.51286e-08
1.32157e-08
1.57057e-09
5.42098e-08
-7.9809e-10
5.62415e-09
-1.12939e-09
2.98236e-08
-2.09239e-09
4.44266e-09
3.52826e-10
3.86237e-08
-4.67944e-10
2.23796e-09
3.18516e-08
4.105e-10
4.55311e-09
1.03958e-09
3.50691e-08
1.0225e-08
5.50146e-09
5.7628e-08
4.79556e-09
-8.74512e-10
5.65594e-08
-6.12059e-10
5.173e-08
1.02424e-08
-1.39576e-09
7.8864e-08
-8.66688e-11
-4.40669e-09
8.16024e-08
4.3677e-09
2.25289e-09
4.51153e-08
-9.59376e-10
5.39541e-08
8.25873e-10
4.99684e-08
8.92467e-09
1.40827e-07
-4.21882e-09
9.46129e-08
5.63435e-08
2.29946e-09
3.10483e-09
4.75468e-08
-5.81958e-11
-4.03839e-09
7.6076e-10
3.61873e-08
-7.86793e-10
-3.79831e-09
-2.85185e-10
3.893e-08
-2.6139e-10
3.5983e-09
3.5898e-08
-1.03324e-08
1.44388e-09
1.56065e-10
3.75027e-08
5.61842e-09
-2.3778e-09
5.65919e-08
7.29143e-10
2.45175e-09
5.87114e-08
3.89569e-09
5.37681e-08
-3.31088e-09
1.24753e-09
8.14897e-08
2.04593e-09
-9.30316e-09
8.31708e-08
-1.24453e-09
-3.83542e-09
5.46929e-08
2.10161e-09
5.49298e-08
-7.49265e-09
6.12169e-08
5.40248e-09
1.13167e-07
4.24233e-09
8.60209e-08
5.9944e-08
-4.70729e-09
-1.29412e-09
5.26458e-08
9.0211e-10
-6.2203e-09
-2.29529e-09
3.90499e-08
9.45133e-10
-5.80656e-09
-1.17283e-09
3.87751e-08
9.1299e-10
9.20348e-10
3.56049e-08
-3.09324e-09
-8.59397e-09
-3.63296e-09
4.8435e-08
-6.79144e-09
-5.77749e-09
5.82711e-08
-5.54502e-09
-1.72701e-09
5.80189e-08
1.85299e-13
5.21517e-08
-3.93069e-09
-3.61256e-09
8.53996e-08
1.05777e-09
-7.78696e-09
8.01916e-08
-2.42528e-09
-5.58827e-09
6.20371e-08
-2.57696e-09
5.802e-08
-1.04191e-08
6.79501e-08
-4.83684e-10
9.60295e-08
1.46944e-09
7.82313e-08
6.19696e-08
1.53664e-09
-1.44162e-09
5.07756e-08
1.77493e-09
-2.4011e-09
-2.49189e-09
4.42459e-08
1.233e-09
-1.58093e-09
-1.60498e-09
3.93996e-08
1.599e-10
-7.00215e-10
3.36548e-08
-1.01687e-09
-6.84851e-09
-5.23611e-09
5.90776e-08
-4.13439e-09
-5.78797e-09
5.88528e-08
-9.8442e-11
-2.35008e-09
5.47281e-08
-7.89927e-10
4.81386e-08
1.75601e-09
-1.21365e-09
7.96209e-08
6.21454e-09
-4.77696e-09
7.47219e-08
3.20424e-09
-1.63844e-09
6.43358e-08
6.74344e-10
5.67416e-08
-7.79057e-09
7.57586e-08
3.3278e-09
7.97654e-08
5.34247e-09
7.08247e-08
6.01282e-08
-1.15183e-09
-1.80778e-09
5.2723e-08
1.01212e-09
-1.57974e-09
-2.16336e-09
4.58728e-08
9.642e-10
-8.01383e-10
-2.02327e-09
3.99276e-08
7.16619e-10
-1.64978e-09
3.36343e-08
4.98833e-10
-3.45406e-09
-3.15822e-09
6.38817e-08
-1.92897e-09
-3.50956e-09
5.86737e-08
1.76847e-10
-2.47391e-09
5.30732e-08
-1.57036e-09
4.6406e-08
-1.44651e-10
-1.2897e-09
7.78969e-08
2.2197e-09
-2.0739e-09
7.09217e-08
2.22467e-09
-1.14239e-09
6.29993e-08
-2.29614e-11
5.51322e-08
-3.16391e-09
7.86536e-08
7.35911e-10
7.42508e-08
2.52052e-09
6.69544e-08
5.85446e-08
3.17432e-10
-6.22125e-10
5.24902e-08
5.37369e-10
9.87794e-11
-6.94012e-10
4.62337e-08
5.51615e-10
4.19708e-10
-6.63747e-10
3.97568e-08
5.13357e-10
-5.84679e-10
3.31083e-08
4.6067e-10
-4.70602e-10
-1.09765e-09
6.48276e-08
-2.2086e-10
-1.21362e-09
5.89434e-08
6.24512e-10
-9.27234e-10
5.24916e-08
-5.98959e-10
4.55463e-08
7.5161e-10
-3.93795e-10
7.64413e-08
1.38406e-09
-5.24836e-10
6.96004e-08
1.61392e-09
-2.14379e-10
6.20566e-08
1.11757e-10
5.42757e-08
-3.08751e-10
7.92523e-08
6.59279e-10
7.32278e-08
1.40346e-09
6.59507e-08
5.80618e-08
-1.35926e-11
-4.80352e-10
5.2665e-08
3.18985e-10
1.32082e-10
-4.98158e-10
4.62477e-08
3.38464e-10
3.50538e-10
-5.01731e-10
3.96987e-08
3.41312e-10
-4.58937e-10
3.30104e-08
3.32092e-10
-2.07566e-10
-6.8926e-10
6.52439e-08
9.02385e-11
-7.18277e-10
5.88657e-08
5.2392e-10
-6.25348e-10
5.21818e-08
-4.70618e-10
4.52222e-08
3.61205e-10
-2.55959e-10
7.56468e-08
8.15074e-10
-2.6699e-10
6.86952e-08
1.0489e-09
-1.62434e-10
6.13599e-08
-5.5233e-11
5.38113e-08
-5.97257e-11
7.94545e-08
4.55161e-10
7.27675e-08
8.75782e-10
6.54856e-08
5.78387e-08
1.35011e-10
-2.36288e-10
5.25708e-08
1.95424e-10
2.31102e-10
-2.4426e-10
4.6187e-08
2.09e-10
3.50755e-10
-2.5551e-10
3.96151e-08
2.1936e-10
-2.44031e-10
3.29191e-08
2.2141e-10
4.1536e-11
-3.13742e-10
6.52797e-08
2.09746e-10
-3.35196e-10
5.87884e-08
4.14159e-10
-3.06641e-10
5.20288e-08
-2.44738e-10
4.50699e-08
2.99541e-10
-1.04901e-10
7.51384e-08
5.39536e-10
-1.09134e-10
6.82291e-08
6.72951e-10
-8.19785e-11
6.10019e-08
-4.30016e-11
5.3587e-08
9.01594e-11
7.94752e-08
3.45044e-10
7.25971e-08
5.59587e-10
6.53134e-08
5.77633e-08
9.62561e-11
-1.47982e-10
5.24942e-08
1.28316e-10
1.81628e-10
-1.49152e-10
4.61147e-08
1.36018e-10
2.59534e-10
-1.57088e-10
3.95501e-08
1.44146e-10
-1.53055e-10
3.28641e-08
1.48428e-10
7.17855e-11
-1.74495e-10
6.52344e-08
1.84461e-10
-1.82995e-10
5.87096e-08
2.95175e-10
-1.73088e-10
5.19343e-08
-1.47232e-10
4.49889e-08
2.01178e-10
-5.63388e-11
7.48191e-08
3.45562e-10
-5.79059e-11
6.79595e-08
4.25611e-10
-5.45214e-11
6.08033e-08
-4.47105e-11
5.34685e-08
9.78331e-11
7.94364e-08
2.42134e-10
7.25053e-08
3.62103e-10
6.5229e-08
5.77285e-08
7.57789e-11
-9.60093e-11
5.24267e-08
8.76823e-11
1.37487e-10
-9.75211e-11
4.60577e-08
9.27855e-11
1.88993e-10
-1.04e-10
3.95034e-08
9.90363e-11
-1.0345e-10
3.28286e-08
1.03513e-10
6.71301e-11
-1.05058e-10
6.51762e-08
1.4326e-10
-1.10016e-10
5.86458e-08
2.08479e-10
-1.08073e-10
5.18732e-08
-9.76264e-11
4.49417e-08
1.30822e-10
-3.93905e-11
7.46226e-08
2.23191e-10
-4.074e-11
6.77978e-08
2.75024e-10
-4.36587e-11
6.06871e-08
-4.39864e-11
5.34003e-08
7.90737e-11
7.93852e-08
1.70241e-10
7.24401e-08
2.42581e-10
6.51741e-08
5.77015e-08
5.37453e-11
-6.74103e-11
5.23781e-08
6.22378e-11
9.81028e-11
-6.90358e-11
4.60164e-08
6.5828e-11
1.33683e-10
-7.3838e-11
3.9471e-08
7.05697e-11
-7.42849e-11
3.28049e-08
7.44437e-11
5.25597e-11
-7.0384e-11
6.51265e-08
1.04432e-10
-7.31586e-11
5.85978e-08
1.46142e-10
-7.37401e-11
5.18314e-08
-6.94792e-11
4.49108e-08
8.50023e-11
-3.26591e-11
7.44997e-08
1.45503e-10
-3.37933e-11
6.76978e-08
1.80879e-10
-3.76444e-11
6.06156e-08
-3.95316e-11
5.33576e-08
6.00295e-11
7.93353e-08
1.19953e-10
7.23891e-08
1.65973e-10
6.51322e-08
5.76767e-08
3.76674e-11
-4.88735e-11
5.23441e-08
4.50996e-11
6.91746e-11
-5.04397e-11
4.59874e-08
4.76986e-11
9.44174e-11
-5.4101e-11
3.94484e-08
5.12772e-11
-5.46001e-11
3.27886e-08
5.43755e-11
3.90812e-11
-4.96694e-11
6.5088e-08
7.51872e-11
-5.13674e-11
5.85624e-08
1.02802e-10
-5.25111e-11
5.18021e-08
-5.08935e-11
4.48894e-08
5.57942e-11
-2.78859e-11
7.4422e-08
9.62406e-11
-2.84645e-11
6.76343e-08
1.21139e-10
-3.15353e-11
6.05696e-08
-3.33714e-11
5.3329e-08
4.44671e-11
7.92918e-08
8.60998e-11
7.23477e-08
1.16442e-10
6.50989e-08
5.76551e-08
2.6286e-11
-3.59565e-11
5.23208e-08
3.28834e-11
4.87007e-11
-3.73024e-11
4.59673e-08
3.48223e-11
6.69624e-11
-4.00276e-11
3.94327e-08
3.74378e-11
-4.0413e-11
3.27771e-08
3.96443e-11
2.82503e-11
-3.58713e-11
6.50596e-08
5.34732e-11
-3.69535e-11
5.85367e-08
7.24297e-11
-3.81322e-11
5.1781e-08
-3.75857e-11
4.4874e-08
3.69821e-11
-2.30559e-11
7.43721e-08
6.47238e-11
-2.34706e-11
6.75929e-08
8.25745e-11
-2.55345e-11
6.05391e-08
-2.6636e-11
5.3309e-08
3.2363e-11
7.92562e-08
6.11914e-11
7.23148e-08
8.1643e-11
6.50723e-08
5.76369e-08
1.82936e-11
-2.63539e-11
5.23049e-08
2.3898e-11
3.41683e-11
-2.74365e-11
4.59534e-08
2.53069e-11
4.727e-11
-2.93962e-11
3.94217e-08
2.72143e-11
-2.96621e-11
3.2769e-08
2.87704e-11
2.01777e-11
-2.59445e-11
6.50389e-08
3.78136e-11
-2.66455e-11
5.8518e-08
5.09536e-11
-2.76579e-11
5.17659e-08
-2.75685e-11
4.48628e-08
2.48493e-11
-1.79485e-11
7.43392e-08
4.41096e-11
-1.82555e-11
6.75652e-08
5.68644e-11
-1.94544e-11
6.0518e-08
-2.01571e-11
5.32947e-08
2.32544e-11
7.92287e-08
4.32104e-11
7.22897e-08
5.72926e-11
6.50522e-08
5.76226e-08
1.26686e-11
-1.90645e-11
5.22941e-08
1.71664e-11
2.37801e-11
-1.98929e-11
4.59439e-08
1.81915e-11
3.30549e-11
-2.12806e-11
3.94141e-08
1.95609e-11
-2.14589e-11
3.27634e-08
2.05732e-11
1.42075e-11
-1.86082e-11
6.50242e-08
2.64494e-11
-1.90582e-11
5.85048e-08
3.55409e-11
-1.98899e-11
5.17552e-08
-1.99838e-11
4.48548e-08
1.67858e-11
-1.35897e-11
7.43173e-08
3.00166e-11
-1.36032e-11
6.75464e-08
3.90731e-11
-1.45544e-11
6.05035e-08
-1.5023e-11
5.32845e-08
1.64104e-11
7.92082e-08
3.02342e-11
7.22713e-08
3.98815e-11
6.50372e-08
5.76119e-08
8.60871e-12
-1.34177e-11
5.22868e-08
1.20097e-11
1.62091e-11
-1.40297e-11
4.59374e-08
1.27352e-11
2.26056e-11
-1.49926e-11
3.94089e-08
1.36932e-11
-1.51261e-11
3.27595e-08
1.44152e-11
9.73853e-12
-1.3038e-11
6.5014e-08
1.80631e-11
-1.33451e-11
5.84956e-08
2.42346e-11
-1.39812e-11
5.17477e-08
-1.41211e-11
4.48493e-08
1.11862e-11
-9.86871e-12
7.43028e-08
2.01541e-11
-9.86538e-12
6.75339e-08
2.63908e-11
-1.04763e-11
6.04937e-08
-1.07841e-11
5.32774e-08
1.12399e-11
7.91937e-08
2.06127e-11
7.22582e-08
2.71223e-11
6.50267e-08
5.76042e-08
5.56933e-12
-8.96505e-12
5.22822e-08
7.98518e-12
1.05162e-11
-9.39019e-12
4.59333e-08
8.46927e-12
1.47016e-11
-1.00266e-11
3.94056e-08
9.10651e-12
-1.01283e-11
3.2757e-08
9.59238e-12
6.32749e-12
-8.69314e-12
6.50073e-08
1.17248e-11
-8.90665e-12
5.84896e-08
1.57221e-11
-9.35479e-12
5.17429e-08
-9.48379e-12
4.48456e-08
7.14067e-12
-6.72299e-12
7.42936e-08
1.29394e-11
-6.70851e-12
6.75258e-08
1.70139e-11
-7.11039e-12
6.04873e-08
-7.32167e-12
5.32728e-08
7.30373e-12
7.9184e-08
1.33459e-11
7.22496e-08
1.754e-11
6.50197e-08
5.75991e-08
3.21839e-12
-5.43824e-12
5.22796e-08
4.81616e-12
6.10408e-12
-5.71004e-12
4.59309e-08
5.10501e-12
8.55467e-12
-6.09214e-12
3.94037e-08
5.4878e-12
-6.17835e-12
3.27556e-08
5.77934e-12
3.66733e-12
-5.28693e-12
6.50035e-08
6.801e-12
-5.43675e-12
5.84862e-08
9.13246e-12
-5.73036e-12
5.17401e-08
-5.84305e-12
4.48436e-08
4.09808e-12
-4.17497e-12
7.42884e-08
7.44929e-12
-4.19282e-12
6.75213e-08
9.82627e-12
-4.4532e-12
6.04837e-08
-4.60872e-12
5.32702e-08
4.24343e-12
7.91783e-08
7.71827e-12
7.22445e-08
1.014e-11
6.50157e-08
5.75961e-08
1.36297e-12
-2.99507e-12
2.54498e-12
2.63629e-12
-3.18368e-12
2.71274e-12
3.75973e-12
-3.39816e-12
2.9013e-12
-3.52069e-12
3.07915e-12
1.54627e-12
-3.08293e-12
2.92828e-12
-3.24756e-12
4.01526e-12
-3.46574e-12
-3.61298e-12
1.7187e-12
-2.71064e-12
3.17953e-12
-2.83988e-12
4.24917e-12
-3.06667e-12
-3.24836e-12
1.78847e-12
3.29283e-12
4.34382e-12
-1.1955e-09
-1.80952e-08
7.41343e-08
5.35398e-09
-2.56326e-10
5.73232e-08
1.43724e-08
7.13798e-09
5.82752e-08
3.29471e-08
5.48881e-08
3.81922e-09
-1.13915e-09
2.40345e-08
1.11196e-08
-5.19045e-10
5.05385e-08
2.09879e-08
1.53289e-08
4.88818e-08
6.11832e-08
7.83327e-08
3.85319e-09
1.04066e-09
3.18897e-08
1.95093e-08
-2.87985e-09
3.66022e-08
8.23176e-08
-1.7068e-08
2.99353e-08
-7.08701e-08
3.31361e-07
1.62493e-09
2.98902e-08
9.46782e-09
2.67991e-08
1.31464e-08
3.89069e-08
8.77604e-09
2.54073e-09
7.24594e-09
6.154e-08
-2.45811e-09
-9.34624e-10
6.31311e-08
8.38053e-09
6.01846e-09
4.48458e-08
1.69151e-08
5.68607e-08
-7.95029e-10
8.22994e-09
1.93531e-08
1.10511e-09
-1.56703e-09
4.92708e-08
3.94826e-08
-3.15027e-08
4.80255e-08
1.07052e-07
4.32943e-08
-3.67539e-09
-4.44941e-09
4.89936e-08
-1.32832e-08
6.85266e-09
3.77904e-08
-8.1026e-08
2.13585e-08
4.48167e-08
8.0309e-08
3.85729e-07
8.63803e-10
2.17541e-08
-7.16331e-09
3.99165e-08
-2.69736e-09
4.17008e-08
2.82142e-08
-1.48029e-09
1.04854e-08
5.15327e-08
-2.04398e-10
1.37855e-08
5.14604e-08
-6.3778e-11
-8.50666e-09
5.3716e-08
-3.81652e-08
1.08121e-07
-3.36933e-09
1.9912e-09
3.07617e-08
-9.96568e-09
-1.43777e-09
7.10904e-08
-5.9376e-09
-1.9985e-08
5.54758e-08
-7.75328e-08
6.8557e-08
-1.24615e-08
6.93643e-09
5.22897e-08
-1.08463e-08
8.17683e-09
2.65605e-08
-5.26283e-08
1.5546e-08
5.10678e-08
9.81287e-08
1.17475e-07
-9.70011e-09
2.98272e-08
-1.06085e-08
4.70411e-08
-1.17813e-08
5.56754e-08
6.26642e-08
-3.03424e-09
-1.2882e-09
5.5569e-08
1.65718e-09
9.64336e-09
3.85329e-08
-4.89162e-09
-1.0966e-09
6.37946e-08
-3.05154e-09
9.60282e-08
7.67183e-10
-1.76289e-09
3.16637e-08
-1.43646e-09
5.6462e-09
7.72911e-08
-2.62892e-09
1.18476e-09
5.43869e-08
-1.48166e-08
6.63838e-08
2.48713e-09
7.42308e-09
4.17832e-08
-2.39295e-09
-1.22165e-09
3.83084e-08
-7.54208e-09
-5.23269e-09
6.26343e-08
-5.19246e-09
6.41558e-08
-7.15628e-09
4.41561e-08
-3.13441e-09
3.91254e-08
-1.13397e-08
6.44399e-08
6.11003e-08
2.2176e-09
8.52453e-09
4.96271e-08
-1.50877e-09
3.09034e-09
3.9389e-08
-4.62676e-09
1.40217e-08
5.36053e-08
2.90923e-09
7.99269e-08
1.13344e-10
1.03327e-08
3.10905e-08
4.25645e-09
1.54473e-08
6.0791e-08
-8.61403e-09
2.71868e-08
5.40922e-08
5.16273e-09
4.51768e-08
-5.59675e-10
3.14047e-08
2.65599e-08
1.25953e-08
2.8593e-09
3.77415e-08
-1.77663e-08
-2.09117e-08
1.41094e-07
-5.37751e-09
5.84388e-08
-1.02715e-08
1.26045e-07
-3.18796e-09
4.49015e-08
-7.85446e-09
4.81917e-08
5.29607e-08
3.8798e-09
1.37333e-08
3.16331e-08
-3.70848e-11
-4.20663e-10
4.40368e-08