/*--------------------------------*- C++ -*----------------------------------*\
| =========                 |                                                 |
| \\      /  F ield         | OpenFOAM: The Open Source CFD Toolbox           |
|  \\    /   O peration     | Version:  2506                                  |
|   \\  /    A nd           | Website:  www.openfoam.com                      |
|    \\/     M anipulation  |                                                 |
\*---------------------------------------------------------------------------*/
FoamFile
{
    version     2.0;
    format      ascii;
    arch        "LSB;label=32;scalar=64";
    class       volVectorField;
    location    "0.09";
    object      stored_U;
}
// * * * * * * * * * * * * * * * * * * * * * * * * * * * * * * * * * * * * * //

dimensions      [0 1 -1 0 0 0 0];

internalField   nonuniform List<vector> 
1152
(
(-0.000437734 0.00131154 0.0142998)
(0.000600185 0.00426432 0.0159073)
(-0.00634626 -0.0017768 0.028384)
(-0.000122749 0.000285518 0.00373175)
(-0.000873736 0.00104969 0.0169902)
(-0.00200856 0.00226306 0.0175743)
(-0.00181939 0.00132995 0.010575)
(0.00128392 0.00355427 0.0197893)
(0.0012078 0.00168853 0.0174097)
(0.000487256 0.00116884 0.0124766)
(-0.00595504 0.00966939 0.033545)
(0.000284488 0.00539843 0.0178123)
(-0.000511504 -9.32325e-05 0.0141737)
(-0.00018073 -0.00319071 0.0411967)
(-0.000339873 -0.00174643 0.0235657)
(0.00344656 0.00183868 0.0133877)
(-0.00184418 0.000767884 0.049736)
(-0.00113722 -0.00083864 0.0532449)
(0.00610637 0.00463734 0.0500107)
(-0.000382937 0.00171403 0.0245461)
(-0.00159293 0.00114376 0.0318434)
(0.00183326 0.000444885 0.0550033)
(0.00300233 0.000998979 0.0163791)
(-0.00137021 0.00128072 0.0315489)
(-0.00315401 0.00188687 0.0364485)
(-0.00430188 -0.000261661 0.0611826)
(0.00347545 -5.11628e-05 0.0394072)
(0.00221645 0.00324829 0.0297698)
(-0.00636849 0.00327756 0.0437945)
(-0.0019737 0.00650663 0.0281522)
(0.0045371 0.00302239 0.0375951)
(0.00881511 0.00839748 0.0520338)
(-0.00467465 0.00087994 0.0234235)
(-0.000957868 -0.000233079 0.0192586)
(0.00144553 0.00173862 0.023617)
(0.000316949 0.00132051 0.00912386)
(-0.0019387 -3.48501e-05 0.0197892)
(-0.000693455 -0.000127272 0.0237574)
(0.00712866 0.00555692 0.0470936)
(-0.00360343 0.00695176 0.0356083)
(-0.00345446 -0.00349847 0.0367151)
(0.000540193 0.002581 0.0380673)
(0.0049155 -0.000468029 0.0234767)
(-0.0040153 -0.00681202 0.0464068)
(-0.00110833 -0.000496033 0.0262252)
(-0.000357477 0.00238993 0.0396439)
(-0.00128062 -0.000884856 0.0153182)
(-0.00355165 -0.00222125 0.0157822)
(0.00385135 -8.2799e-05 0.0360347)
(-0.00438942 0.000809905 0.0589168)
(-0.00237559 -3.19322e-05 0.0264821)
(-0.00173436 0.00070988 0.036834)
(0.00372039 -0.00163751 0.0483137)
(-0.00133917 -0.00136106 0.0349796)
(-0.00343184 -0.000453002 0.0505876)
(9.68516e-05 0.00454644 0.0435646)
(-0.00229438 -0.00179562 0.0332826)
(-0.00163069 -0.00321492 0.0348588)
(0.000448151 -0.00142923 0.0299191)
(-0.000495625 0.000595778 0.0117974)
(-0.000933548 -0.00419216 0.0366412)
(-0.00321402 -0.00943289 0.0440551)
(-0.000968057 -0.00510552 0.0465156)
(0.00146091 -0.0146967 0.0676182)
(-3.65224e-05 -0.00567951 0.0348716)
(9.50555e-06 -0.00109674 0.0247868)
(-0.000431915 -0.000176203 0.0194015)
(-0.00303574 -0.00204742 0.0435315)
(0.000611405 -0.000597204 0.047781)
(-0.00349754 0.0014776 0.0500521)
(-0.00302944 -0.00768315 0.0420589)
(0.00144265 -0.00434989 0.0244313)
(0.000904369 0.00465854 0.043297)
(-0.00484906 -0.0016587 0.033087)
(-0.0100094 -0.00301503 0.0361416)
(-0.000465336 -0.0127722 0.0643673)
(-0.00258025 -0.00347429 0.0405451)
(-0.0116448 -0.00704298 0.0478132)
(-0.00364665 4.25408e-05 0.0225823)
(-0.000640171 0.000137728 0.013058)
(-0.00103932 -0.00258996 0.019837)
(-0.0022928 -0.00151035 0.0307973)
(-0.00326764 -0.00531193 0.0332347)
(-0.000146151 -0.00455005 0.0308971)
(-0.00296704 -0.00113748 0.0260445)
(-0.00462112 -0.00285489 0.0308231)
(-0.00309455 -0.00182714 0.0300865)
(-0.000467661 -0.00419792 0.0500541)
(-0.000742341 -0.00129227 0.0230468)
(-0.00716933 -0.0010195 0.0516136)
(-0.0012823 -0.000870103 0.0184965)
(-0.00214345 -0.00423889 0.0512522)
(-0.00604333 -0.00384772 0.0710925)
(-0.000737932 -0.000176753 0.013594)
(-0.00519286 -0.000282963 0.0316358)
(-0.00682726 0.00161057 0.0552811)
(0.000337286 0.00464835 0.0182095)
(0.000194524 -0.00027457 0.0243166)
(2.93621e-05 -0.000920424 0.0227809)
(-0.000374931 -0.00203085 0.0227815)
(-0.000878142 -0.000567936 0.0262426)
(-0.000374104 -0.000772834 0.0283814)
(-0.000223458 -0.000662181 0.0218537)
(-0.000489344 -0.000640479 0.0120466)
(-0.000290664 -0.000446426 0.0279837)
(-0.000507778 -0.000500862 0.0253348)
(-0.000211646 0.000182205 0.0215809)
(-1.92625e-05 0.000209162 0.0556107)
(0.000769874 0.00183536 0.0312946)
(0.00139423 0.000162284 0.0185004)
(0.000618191 -0.000260235 0.0176611)
(0.000255315 0.00149625 0.0329171)
(0.000500036 0.00111488 0.0319485)
(0.000246009 -0.0019274 0.0332444)
(-0.00112039 -0.00305389 0.0290928)
(0.000139609 -0.00712186 0.0260187)
(-1.14938e-05 -0.000762847 0.0361014)
(-0.000809245 -0.00115037 0.0338752)
(-0.00517395 -0.00105008 0.0168581)
(-1.67659e-05 -0.00119649 -0.0175063)
(0.000105889 -0.000389502 0.0406003)
(3.94774e-05 -8.74739e-05 0.0344635)
(-0.00124553 0.00165832 0.0235794)
(-0.000115647 0.00607689 0.0493537)
(0.000400564 -0.000193906 0.0410627)
(0.00141167 0.00034713 0.0256964)
(0.00164022 0.00178063 0.0121057)
(-0.00100462 0.00372004 0.0464625)
(0.00128825 0.000632018 0.01313)
(0.00158324 0.00151528 0.0130228)
(0.00208179 0.00341044 0.0119649)
(0.000404105 0.00466166 0.0119471)
(0.00207983 -0.000664691 0.014334)
(0.00370324 1.91951e-05 0.0135064)
(0.0049659 0.000530972 0.0113204)
(0.000118242 -0.0014892 0.0115796)
(0.00170707 0.000161994 0.0144761)
(0.00274175 0.000285345 0.0129581)
(0.000529579 -0.000734325 0.0120395)
(0.000531371 -0.00518321 0.016852)
(0.00204524 0.00160147 0.0137973)
(0.00280051 0.000811942 0.0115124)
(-0.000657462 -0.000656171 0.0113963)
(0.000552021 -0.00210768 0.0171252)
(0.000487544 -0.000293765 0.0207333)
(0.000713449 0.000320539 0.0205337)
(0.000808778 0.000968005 0.019682)
(0.000410924 0.00120991 0.0189993)
(0.000974712 -0.000447834 0.0210185)
(0.00149308 -6.71802e-05 0.0200628)
(0.0015224 0.000125743 0.0181538)
(0.000327 -0.000608013 0.0162663)
(0.000977419 7.94785e-05 0.0211312)
(0.00122281 0.000188046 0.0201939)
(0.000204614 -7.679e-05 0.0191896)
(0.000407374 -0.00154678 0.0205731)
(0.0011275 0.000602198 0.0204992)
(0.00129442 0.00040416 0.0193475)
(-0.000242451 -0.000125606 0.0188323)
(0.000306709 -0.000728642 0.0211961)
(0.00050259 -3.56026e-05 0.0182102)
(0.000557922 0.00019157 0.0181884)
(0.000510171 0.000378975 0.0179304)
(0.000365233 0.000389869 0.0177885)
(0.000642972 -0.000105077 0.0183724)
(0.000785659 2.29789e-05 0.0180612)
(0.000642912 7.24006e-05 0.0175061)
(0.000340669 -0.000156812 0.0171479)
(0.000646209 9.54294e-05 0.0184353)
(0.000686876 0.000110853 0.0181257)
(0.000291507 1.40707e-05 0.017802)
(0.000328765 -0.000415856 0.0183012)
(0.000642785 0.000208295 0.0181563)
(0.000670882 0.000149391 0.0177575)
(9.08747e-05 -3.50765e-05 0.0175135)
(0.000228805 -0.000275432 0.0183434)
(0.000279374 -7.62097e-05 0.0185527)
(0.000320447 4.73727e-05 0.0184973)
(0.000300655 0.000125102 0.0183638)
(0.0002589 0.000134691 0.0182979)
(0.000358201 -7.78829e-05 0.0185847)
(0.000410531 -5.55604e-06 0.0184377)
(0.000338333 2.22426e-05 0.0182233)
(0.000251172 -4.02075e-05 0.0181479)
(0.000388674 3.08245e-05 0.0186047)
(0.00039313 4.22493e-05 0.0184643)
(0.000244059 1.03276e-05 0.018317)
(0.000233702 -0.000117117 0.018442)
(0.000375543 6.10892e-05 0.0184647)
(0.000371134 4.99083e-05 0.0183063)
(0.000159 -1.21245e-05 0.0181843)
(0.000177117 -9.92714e-05 0.018434)
(0.000197399 -3.63852e-05 0.0184302)
(0.000212879 1.24288e-05 0.0184246)
(0.00019895 3.90271e-05 0.0183735)
(0.000180392 4.52953e-05 0.0183427)
(0.000223077 -3.75189e-05 0.0184775)
(0.000241587 -6.69025e-06 0.0184274)
(0.000209649 5.2227e-06 0.018346)
(0.000176684 -1.17168e-05 0.0183138)
(0.000242153 8.87046e-06 0.01851)
(0.000240961 1.32081e-05 0.0184526)
(0.000183391 1.42116e-06 0.0183855)
(0.00016592 -3.81313e-05 0.0184031)
(0.000227771 1.20812e-05 0.0184521)
(0.000225088 9.72706e-06 0.0183928)
(0.000149576 -1.1109e-05 0.0183364)
(0.000138947 -4.13155e-05 0.0183981)
(0.000130588 -2.52261e-05 0.0183928)
(0.00014033 -3.26854e-06 0.018402)
(0.000134644 6.96844e-06 0.0183828)
(0.000124769 1.08126e-05 0.0183649)
(0.000141458 -2.51344e-05 0.0184375)
(0.000150711 -1.08714e-05 0.0184263)
(0.000138484 -5.37587e-06 0.0183941)
(0.00012339 -9.17362e-06 0.0183744)
(0.000152955 -4.93845e-06 0.0184677)
(0.000153672 -2.72634e-06 0.0184484)
(0.000131839 -7.22378e-06 0.0184175)
(0.00011875 -1.94255e-05 0.0184107)
(0.000143987 -5.58914e-06 0.0184491)
(0.000144945 -6.67473e-06 0.0184302)
(0.000118211 -1.44744e-05 0.018404)
(0.000107207 -2.48997e-05 0.018412)
(8.8289e-05 -1.88925e-05 0.018369)
(9.44564e-05 -8.53008e-06 0.0183913)
(9.24947e-05 -4.38357e-06 0.0183901)
(8.70272e-05 -1.85123e-06 0.018381)
(9.30913e-05 -1.93477e-05 0.0184167)
(9.88318e-05 -1.26149e-05 0.0184259)
(9.46149e-05 -9.78694e-06 0.018417)
(8.71207e-05 -9.85384e-06 0.0184055)
(9.92616e-05 -1.07334e-05 0.0184471)
(0.000101286 -9.74796e-06 0.0184487)
(9.34301e-05 -1.11923e-05 0.0184372)
(8.55092e-05 -1.48686e-05 0.018428)
(9.43231e-05 -1.13473e-05 0.0184477)
(9.71934e-05 -1.23125e-05 0.0184487)
(8.81516e-05 -1.54089e-05 0.0184388)
(8.0925e-05 -1.93626e-05 0.0184342)
(6.0199e-05 -1.50948e-05 0.0183543)
(6.457e-05 -9.78151e-06 0.018385)
(6.43297e-05 -7.61452e-06 0.0183944)
(6.12482e-05 -6.00636e-06 0.0183916)
(6.26701e-05 -1.58201e-05 0.0184035)
(6.69054e-05 -1.24401e-05 0.0184237)
(6.58923e-05 -1.07452e-05 0.018427)
(6.19475e-05 -9.94713e-06 0.0184215)
(6.58494e-05 -1.20203e-05 0.018434)
(6.84745e-05 -1.15598e-05 0.0184475)
(6.60802e-05 -1.19011e-05 0.0184472)
(6.16703e-05 -1.28229e-05 0.018441)
(6.33237e-05 -1.21383e-05 0.0184432)
(6.66757e-05 -1.29632e-05 0.0184553)
(6.41502e-05 -1.43474e-05 0.0184547)
(6.00499e-05 -1.58423e-05 0.0184495)
(4.14794e-05 -1.20927e-05 0.0183445)
(4.47281e-05 -9.11063e-06 0.0183809)
(4.51641e-05 -7.79995e-06 0.0183967)
(4.34338e-05 -6.74318e-06 0.0183985)
(4.28932e-05 -1.28878e-05 0.0183944)
(4.61754e-05 -1.10717e-05 0.0184212)
(4.63684e-05 -9.94753e-06 0.0184313)
(4.42815e-05 -9.07797e-06 0.0184303)
(4.45298e-05 -1.10998e-05 0.0184249)
(4.71514e-05 -1.08404e-05 0.0184456)
(4.68423e-05 -1.07991e-05 0.018452)
(4.45229e-05 -1.08493e-05 0.0184494)
(4.32968e-05 -1.08871e-05 0.0184376)
(4.63979e-05 -1.15201e-05 0.0184563)
(4.61914e-05 -1.21931e-05 0.0184615)
(4.40679e-05 -1.27294e-05 0.0184587)
(2.87447e-05 -9.50943e-06 0.0183381)
(3.12686e-05 -7.76684e-06 0.0183782)
(3.18753e-05 -6.8833e-06 0.018398)
(3.09321e-05 -6.14247e-06 0.018403)
(2.96534e-05 -1.02303e-05 0.0183881)
(3.22104e-05 -9.21874e-06 0.018419)
(3.27989e-05 -8.4314e-06 0.0184332)
(3.17258e-05 -7.6858e-06 0.0184354)
(3.05322e-05 -9.31389e-06 0.0184184)
(3.28293e-05 -9.15877e-06 0.0184436)
(3.32628e-05 -9.01095e-06 0.0184541)
(3.21085e-05 -8.81023e-06 0.0184545)
(2.99206e-05 -8.96781e-06 0.0184324)
(3.2514e-05 -9.42706e-06 0.0184553)
(3.30875e-05 -9.77878e-06 0.0184642)
(3.20788e-05 -9.97734e-06 0.0184639)
(1.99928e-05 -7.30653e-06 0.0183337)
(2.19015e-05 -6.23389e-06 0.0183763)
(2.25072e-05 -5.62235e-06 0.0183986)
(2.20137e-05 -5.09777e-06 0.0184059)
(2.05875e-05 -7.90173e-06 0.0183836)
(2.25395e-05 -7.30684e-06 0.0184171)
(2.31869e-05 -6.75255e-06 0.018434)
(2.26708e-05 -6.1668e-06 0.0184385)
(2.10636e-05 -7.38061e-06 0.0184137)
(2.29364e-05 -7.28916e-06 0.0184417)
(2.35741e-05 -7.13612e-06 0.0184548)
(2.30444e-05 -6.90127e-06 0.0184575)
(2.07737e-05 -7.02182e-06 0.018428)
(2.28029e-05 -7.3425e-06 0.0184535)
(2.35526e-05 -7.55416e-06 0.018465)
(2.31225e-05 -7.63614e-06 0.0184668)
(1.38409e-05 -5.46481e-06 0.0183308)
(1.52417e-05 -4.78357e-06 0.0183749)
(1.57639e-05 -4.36345e-06 0.018399)
(1.55277e-05 -3.99812e-06 0.0184078)
(1.42266e-05 -5.9183e-06 0.0183804)
(1.56742e-05 -5.55888e-06 0.0184156)
(1.62535e-05 -5.17955e-06 0.0184343)
(1.60393e-05 -4.74923e-06 0.0184404)
(1.44935e-05 -5.6075e-06 0.0184103)
(1.59229e-05 -5.55884e-06 0.0184401)
(1.65337e-05 -5.43752e-06 0.018455)
(1.63384e-05 -5.23721e-06 0.0184592)
(1.43315e-05 -5.28615e-06 0.0184246)
(1.58636e-05 -5.51184e-06 0.0184518)
(1.65666e-05 -5.64239e-06 0.018465)
(1.64362e-05 -5.677e-06 0.0184683)
(9.39043e-06 -3.93104e-06 0.0183288)
(1.03903e-05 -3.50368e-06 0.018374)
(1.08016e-05 -3.22491e-06 0.0183992)
(1.07079e-05 -2.98168e-06 0.0184091)
(9.63824e-06 -4.2635e-06 0.0183782)
(1.06752e-05 -4.04689e-06 0.0184146)
(1.11374e-05 -3.79718e-06 0.0184344)
(1.10789e-05 -3.49845e-06 0.0184415)
(9.78865e-06 -4.06767e-06 0.0184078)
(1.08269e-05 -4.04579e-06 0.0184388)
(1.13271e-05 -3.96375e-06 0.0184549)
(1.13002e-05 -3.81577e-06 0.0184602)
(9.68872e-06 -3.80533e-06 0.018422)
(1.07949e-05 -3.9606e-06 0.0184504)
(1.13641e-05 -4.04268e-06 0.0184647)
(1.13843e-05 -4.05718e-06 0.0184691)
(6.07433e-06 -2.65988e-06 0.0183275)
(6.74834e-06 -2.4029e-06 0.0183734)
(7.04335e-06 -2.22661e-06 0.0183994)
(7.02105e-06 -2.07344e-06 0.01841)
(6.22509e-06 -2.884e-06 0.0183768)
(6.92536e-06 -2.75875e-06 0.0184139)
(7.2584e-06 -2.60394e-06 0.0184344)
(7.26736e-06 -2.41138e-06 0.0184423)
(6.30742e-06 -2.7622e-06 0.0184062)
(7.0126e-06 -2.75529e-06 0.0184379)
(7.37668e-06 -2.70707e-06 0.0184548)
(7.4187e-06 -2.61065e-06 0.0184609)
(6.24367e-06 -2.56857e-06 0.0184203)
(6.99216e-06 -2.66981e-06 0.0184494)
(7.40183e-06 -2.72032e-06 0.0184645)
(7.48192e-06 -2.72421e-06 0.0184696)
(3.51075e-06 -1.6177e-06 0.0183267)
(3.91012e-06 -1.48032e-06 0.0183731)
(4.09152e-06 -1.3808e-06 0.0183995)
(4.09278e-06 -1.29294e-06 0.0184105)
(3.58947e-06 -1.75006e-06 0.0183759)
(4.00556e-06 -1.68674e-06 0.0184134)
(4.211e-06 -1.60264e-06 0.0184344)
(4.23413e-06 -1.49463e-06 0.0184428)
(3.62839e-06 -1.68561e-06 0.0184052)
(4.04861e-06 -1.68748e-06 0.0184374)
(4.2737e-06 -1.66522e-06 0.0184548)
(4.32231e-06 -1.61341e-06 0.0184613)
(3.58884e-06 -1.5686e-06 0.0184192)
(4.03399e-06 -1.62989e-06 0.0184488)
(4.28451e-06 -1.66e-06 0.0184643)
(4.36141e-06 -1.66071e-06 0.0184699)
(1.48545e-06 -9.00489e-07 0.0183264)
(1.6433e-06 -8.61824e-07 0.018373)
(1.70962e-06 -8.26644e-07 0.0183996)
(1.69828e-06 -7.89559e-07 0.0184109)
(1.50343e-06 -9.84818e-07 0.0183755)
(1.66907e-06 -9.73222e-07 0.0184132)
(1.74684e-06 -9.48981e-07 0.0184345)
(1.74765e-06 -9.10964e-07 0.0184431)
(1.50289e-06 -9.84542e-07 0.0184047)
(1.67338e-06 -1.00197e-06 0.0184372)
(1.7622e-06 -1.0052e-06 0.0184548)
(1.77783e-06 -9.91954e-07 0.0184616)
(1.47142e-06 -9.54799e-07 0.0184186)
(1.65409e-06 -9.98354e-07 0.0184485)
(1.75623e-06 -1.02364e-06 0.0184643)
(1.78892e-06 -1.03108e-06 0.0184701)
(0.00104533 -0.00153023 0.0176092)
(-0.00272409 0.000838642 0.0191259)
(-0.0069759 0.000991722 0.026921)
(-0.00399544 0.00222292 0.0178479)
(0.00265663 0.00116308 0.0164029)
(0.00376544 0.00236805 0.0249708)
(-0.000724481 0.00169358 0.0282337)
(-0.00346138 0.00164134 0.0360968)
(0.000809584 0.00175728 0.019575)
(0.000912194 0.00477703 0.034294)
(-0.00226264 0.00343382 0.0194271)
(-0.00109036 0.00111696 0.0113936)
(0.00216289 -0.000519456 0.0111834)
(0.00252923 -0.000660436 0.0100509)
(-0.00271189 -0.00388698 0.043739)
(-0.00502482 -0.000416957 0.0231112)
(-0.00334601 0.00191277 0.0477842)
(-0.00730256 0.00165217 0.0664781)
(-0.00204415 0.000594777 0.0325448)
(-0.00146877 0.00150728 0.0303688)
(-0.00110277 0.000333839 0.0198414)
(-0.00415112 -0.000421108 0.0524549)
(-0.00215307 0.000746082 0.0168366)
(-0.00374398 0.00198849 0.0430593)
(-0.00115546 0.00195389 0.0386903)
(0.00031856 0.00237838 0.0251665)
(-0.00114098 0.00956087 0.0372099)
(-0.0050958 0.00271924 0.0415597)
(0.00159883 9.43358e-05 0.0473765)
(0.017293 0.00250364 0.0647623)
(-0.00265103 0.00256136 0.0280769)
(-0.0149717 -0.00136717 0.0398466)
(-0.00568662 0.00538829 0.0644613)
(-0.000270141 0.00134425 0.0161872)
(0.0056284 0.00332071 0.0286865)
(-0.00186957 0.00134627 0.0264081)
(-0.00283858 0.00197731 0.0358416)
(-0.0043451 0.00407707 0.0500093)
(-0.00165538 0.00033258 0.0451167)
(0.000973848 -0.0106243 0.0613211)
(0.000903615 -0.000577186 0.0388036)
(9.78279e-05 -0.00153336 0.0426438)
(-0.00222477 -0.00868232 0.0318283)
(-0.00176716 -0.00140105 0.0211594)
(-0.00128702 0.00144769 0.0231364)
(-0.00406018 0.000373528 0.0245166)
(-5.83531e-05 0.000877242 0.00897107)
(0.00788055 0.00150326 0.0390424)
(-0.000855077 0.000619951 0.0270565)
(-5.78753e-05 -0.000212157 0.0472919)
(-0.00549619 -0.00222071 0.0378771)
(0.000286088 0.000862339 0.00942462)
(-0.000916567 0.00235689 0.00938556)
(0.00145185 0.00511667 0.0611494)
(-0.000524541 0.000217782 0.020485)
(-0.00116231 0.0062243 0.0527514)
(-0.00234861 0.00480872 0.0305971)
(-0.00684285 0.00827523 0.0419005)
(-0.00190657 -0.0124545 0.0470833)
(-0.000501151 -0.000906212 0.02646)
(0.0039424 4.96692e-05 0.0376252)
(-0.0133268 -0.000633719 0.0323564)
(-0.0121026 -0.00218009 0.0382112)
(0.0103372 -0.00380599 0.0451266)
(2.83926e-05 -0.00192544 0.0703101)
(0.00133676 0.00141623 0.0218188)
(0.00396202 0.000728991 0.0355822)
(0.00238329 -0.00127293 0.0226506)
(-0.000482541 0.00180492 0.0307262)
(0.000527348 0.00305717 0.0427885)
(-0.000167354 -0.000849746 0.0481528)
(0.000162824 -0.000267865 0.041733)
(-0.00184493 0.00497325 0.0559955)
(-0.00357775 0.00331659 0.0461615)
(-0.00127175 -0.00069827 0.0437124)
(0.00163987 0.000489359 0.0544065)
(0.000374146 -0.000410751 0.0290322)
(0.000574671 0.000393455 0.00906393)
(-0.00573986 -0.000456511 0.0640246)
(0.00327258 -0.00251318 0.0418482)
(0.00312503 0.00338994 0.0253752)
(0.00256851 0.00198638 0.0155234)
(0.00347723 0.00235556 0.0324039)
(0.00438844 -0.00202267 0.0367712)
(0.000576302 0.000826141 0.0183829)
(0.00395261 0.00335759 0.0406438)
(0.00344654 0.000833018 0.0261013)
(0.000682658 -8.96296e-05 0.0295742)
(0.00247749 0.000329518 0.0243498)
(0.00192885 -0.000585921 0.023855)
(0.00138105 0.000766272 0.0254381)
(0.00161209 4.30712e-05 0.0222818)
(-0.00147507 0.000197638 0.0220832)
(0.00237017 -0.000646873 0.0217628)
(0.00388772 0.00165775 0.0335065)
(-0.00179357 0.00114216 0.0307876)
(-0.000304878 0.000856419 0.0298431)
(-0.000503855 0.000699835 0.0174116)
(-0.0010238 -0.000327528 0.0257592)
(-0.00377022 0.00397819 0.0254586)
(-0.000822303 0.00119238 0.0149894)
(0.00103699 0.000743676 0.0265747)
(0.00129523 0.00138133 0.02718)
(-0.0010656 0.000863868 0.0288625)
(0.000224817 -0.000395514 0.0281241)
(0.000567613 -0.0039204 0.0291652)
(0.000434006 -0.000838173 0.0199731)
(5.21279e-05 0.00105218 0.0242814)
(-0.00111908 7.31504e-05 0.0181083)
(-0.00112919 -0.000918975 0.0577745)
(0.00278925 0.000878296 0.0377109)
(0.00111421 0.000925312 0.0249326)
(4.71124e-05 -0.000559314 0.0343201)
(-0.00032949 -0.00115405 0.0269357)
(-0.000635362 -0.00112344 0.0325486)
(-0.000673809 7.14647e-06 0.0352715)
(-0.000359924 -0.00135298 0.0228869)
(-0.000791674 -0.00203769 0.0338925)
(-0.00062689 -0.000866121 0.0375144)
(-0.00035795 -0.000469347 0.0378406)
(-0.000310635 -0.00150009 0.0395054)
(0.000637566 -0.00228487 0.040857)
(0.00100587 -0.00112858 0.0311209)
(-0.000189401 -0.000226454 0.0349522)
(-0.00129271 -0.000703254 0.0283882)
(-0.000865118 -0.00176736 0.0492149)
(0.00171691 -0.000898441 0.0418096)
(0.000872828 -0.000663933 0.0350087)
(0.000708045 -0.000257927 0.0115089)
(0.000579778 -0.000703839 0.0111962)
(1.57344e-05 -0.000925078 0.0123465)
(0.000578882 -0.000311953 0.013328)
(1.94383e-05 -0.00172891 0.0102943)
(-0.000306967 -0.0021995 0.0124566)
(0.000137448 -0.00128674 0.0139148)
(0.000954631 -0.000556806 0.0145856)
(0.000402874 -0.000674084 0.0133138)
(0.00115109 -0.000989535 0.0144656)
(0.00148314 -0.00034008 0.0138468)
(0.00113911 0.000256474 0.0141608)
(-0.000851025 -0.000342606 0.0111038)
(-0.000379725 -0.000717653 0.014281)
(0.00150204 0.000556683 0.0145427)
(0.00152171 0.000934101 0.0136576)
(0.000346469 -0.00052802 0.0203869)
(0.000250678 -0.000764485 0.0203108)
(0.000183102 -0.000819494 0.0206922)
(0.00033835 -0.000646821 0.020974)
(0.000186568 -0.0011855 0.0197492)
(-7.53134e-06 -0.00139271 0.020588)
(0.00025965 -0.00103636 0.0211897)
(0.000603633 -0.000649227 0.0213535)
(0.00011502 -0.000458563 0.021686)
(0.000406122 -0.000539995 0.021904)
(0.000793585 -0.000288093 0.0216433)
(0.000825268 -2.51534e-05 0.0213936)
(-0.000308704 -0.000338602 0.0201795)
(-0.000180478 -0.000401733 0.0213579)
(0.000630479 0.000113831 0.0213519)
(0.000886395 0.000359235 0.0208679)
(0.000220575 -0.000184004 0.0176168)
(0.000269185 -0.000227975 0.0178082)
(0.000273696 -0.000263814 0.0180218)
(0.000387778 -0.000205249 0.0181918)
(0.000169834 -0.000439107 0.0175751)
(0.000162259 -0.00047537 0.0180338)
(0.000247801 -0.000361918 0.0183371)
(0.000439784 -0.000197409 0.0184543)
(0.000132047 -9.1929e-05 0.0184798)
(0.000326303 -9.32982e-05 0.0187396)
(0.000475611 -1.88466e-05 0.0186996)
(0.00056646 7.12124e-05 0.0185874)
(-1.78488e-05 -0.0001445 0.0178517)
(8.6247e-05 -0.000131706 0.0184075)
(0.000341564 3.9201e-05 0.0185042)
(0.000514712 0.000143435 0.0183581)
(0.000131666 -0.00015758 0.0182988)
(0.000161314 -0.000178693 0.0184194)
(0.000196924 -0.000180341 0.0185164)
(0.000248213 -0.000157261 0.018577)
(0.000116043 -0.000281051 0.018243)
(0.000129012 -0.00028465 0.0184486)
(0.000197856 -0.000227051 0.0185912)
(0.000284987 -0.000145534 0.0186436)
(7.36374e-05 -6.95515e-05 0.0186319)
(0.000186024 -6.13287e-05 0.0187506)
(0.000294572 -2.94308e-05 0.0187588)
(0.000358514 8.25615e-06 0.0187043)
(3.30072e-06 -8.81848e-05 0.0182708)
(7.36268e-05 -7.20667e-05 0.0185038)
(0.000212409 -1.11617e-05 0.0185894)
(0.000317689 3.34037e-05 0.0185599)
(8.71637e-05 -8.34973e-05 0.0180954)
(0.000121226 -8.54587e-05 0.0182451)
(0.00014832 -8.63936e-05 0.0183417)
(0.00018047 -7.84175e-05 0.0184067)
(7.38111e-05 -0.00013612 0.0181318)
(0.000100993 -0.00013163 0.0183139)
(0.000140819 -0.000105826 0.018426)
(0.000187134 -6.89693e-05 0.018482)
(4.85004e-05 -2.81105e-05 0.0183623)
(0.000123354 -2.28916e-05 0.018503)
(0.000185151 -1.20069e-05 0.018552)
(0.000224395 7.82433e-07 0.0185474)
(1.43222e-05 -4.28976e-05 0.0181906)
(6.58147e-05 -3.54941e-05 0.0183811)
(0.00013744 -1.49664e-05 0.0184697)
(0.000195835 2.01776e-06 0.0184848)
(5.76205e-05 -5.57992e-05 0.0180661)
(8.10437e-05 -5.44057e-05 0.0182067)
(0.000100885 -5.29059e-05 0.0182972)
(0.000121466 -4.90491e-05 0.018359)
(4.78489e-05 -7.79742e-05 0.0181016)
(7.04651e-05 -7.2188e-05 0.0182594)
(9.59771e-05 -5.84309e-05 0.018359)
(0.000122151 -4.05705e-05 0.0184179)
(3.17586e-05 -1.98607e-05 0.0182285)
(7.88635e-05 -1.58125e-05 0.0183693)
(0.000115883 -1.17544e-05 0.0184397)
(0.000140338 -7.62382e-06 0.018468)
(1.33525e-05 -2.39583e-05 0.0181485)
(4.84497e-05 -2.0577e-05 0.0183146)
(8.90308e-05 -1.39536e-05 0.0184062)
(0.000123535 -8.46198e-06 0.0184464)
(3.95171e-05 -3.77397e-05 0.018022)
(5.59638e-05 -3.60541e-05 0.0181639)
(6.94324e-05 -3.4898e-05 0.0182576)
(8.28756e-05 -3.32815e-05 0.018324)
(3.14146e-05 -4.69445e-05 0.0180648)
(4.86489e-05 -4.28072e-05 0.0182177)
(6.54257e-05 -3.55904e-05 0.018317)
(8.12011e-05 -2.68867e-05 0.0183819)
(2.11244e-05 -1.67879e-05 0.0181473)
(5.08558e-05 -1.4347e-05 0.018293)
(7.39624e-05 -1.28556e-05 0.0183778)
(8.978e-05 -1.15766e-05 0.0184257)
(1.03529e-05 -1.60311e-05 0.0181168)
(3.40711e-05 -1.47189e-05 0.0182758)
(5.91147e-05 -1.29745e-05 0.0183717)
(8.05069e-05 -1.16661e-05 0.0184256)
(2.75814e-05 -2.68294e-05 0.017995)
(3.8643e-05 -2.57277e-05 0.018137)
(4.76984e-05 -2.49662e-05 0.0182329)
(5.67671e-05 -2.43059e-05 0.0183025)
(2.12879e-05 -3.06113e-05 0.0180387)
(3.35956e-05 -2.79223e-05 0.0181898)
(4.47834e-05 -2.40301e-05 0.0182904)
(5.47827e-05 -1.96458e-05 0.0183598)
(1.44567e-05 -1.49357e-05 0.0180974)
(3.32779e-05 -1.34839e-05 0.0182469)
(4.80648e-05 -1.28297e-05 0.0183404)
(5.86394e-05 -1.23278e-05 0.0183999)
(7.68985e-06 -1.23517e-05 0.0180926)
(2.38471e-05 -1.188e-05 0.0182496)
(4.00922e-05 -1.16773e-05 0.0183488)
(5.38046e-05 -1.17004e-05 0.0184103)
(1.95153e-05 -1.93977e-05 0.0179765)
(2.69201e-05 -1.8802e-05 0.0181187)
(3.29796e-05 -1.84292e-05 0.0182165)
(3.91859e-05 -1.82096e-05 0.0182883)
(1.47573e-05 -2.09374e-05 0.01802)
(2.3316e-05 -1.93058e-05 0.0181707)
(3.08504e-05 -1.72029e-05 0.0182727)
(3.74552e-05 -1.49093e-05 0.0183452)
(1.00741e-05 -1.27357e-05 0.0180663)
(2.21238e-05 -1.18492e-05 0.0182181)
(3.17889e-05 -1.15125e-05 0.018317)
(3.90568e-05 -1.12647e-05 0.0183833)
(5.66938e-06 -9.88568e-06 0.0180743)
(1.67029e-05 -9.74126e-06 0.0182308)
(2.74656e-05 -9.98528e-06 0.0183322)
(3.6575e-05 -1.03486e-05 0.0183983)
(1.38873e-05 -1.411e-05 0.0179646)
(1.88661e-05 -1.38352e-05 0.0181068)
(2.29482e-05 -1.36826e-05 0.0182057)
(2.71545e-05 -1.36674e-05 0.0182791)
(1.039e-05 -1.47623e-05 0.0180071)
(1.62991e-05 -1.37902e-05 0.0181577)
(2.14037e-05 -1.2649e-05 0.018261)
(2.58381e-05 -1.14093e-05 0.0183355)
(7.0887e-06 -1.03469e-05 0.0180469)
(1.49307e-05 -9.79573e-06 0.0182)
(2.13789e-05 -9.6002e-06 0.0183021)
(2.64347e-05 -9.44258e-06 0.0183723)
(4.1386e-06 -7.85193e-06 0.0180607)
(1.17234e-05 -7.8255e-06 0.0182171)
(1.89702e-05 -8.14786e-06 0.0183202)
(2.51347e-05 -8.52435e-06 0.0183892)
(9.86737e-06 -1.02099e-05 0.0179567)
(1.32211e-05 -1.01071e-05 0.018099)
(1.59828e-05 -1.00718e-05 0.0181986)
(1.88766e-05 -1.01526e-05 0.0182729)
(7.34358e-06 -1.05021e-05 0.0179983)
(1.14064e-05 -9.92276e-06 0.0181488)
(1.48719e-05 -9.29177e-06 0.0182529)
(1.78793e-05 -8.60248e-06 0.0183288)
(4.99685e-06 -8.07458e-06 0.0180346)
(1.01735e-05 -7.72559e-06 0.0181884)
(1.45252e-05 -7.61026e-06 0.0182923)
(1.8041e-05 -7.49984e-06 0.0183649)
(2.99043e-06 -6.10001e-06 0.0180508)
(8.21342e-06 -6.11999e-06 0.0182072)
(1.31362e-05 -6.40728e-06 0.0183114)
(1.73678e-05 -6.70616e-06 0.0183823)
(6.94819e-06 -7.29527e-06 0.0179516)
(9.20129e-06 -7.2785e-06 0.0180938)
(1.10614e-05 -7.29953e-06 0.0181938)
(1.30544e-05 -7.40866e-06 0.0182687)
(5.15823e-06 -7.44133e-06 0.0179923)
(7.92405e-06 -7.09375e-06 0.0181427)
(1.0269e-05 -6.74388e-06 0.0182475)
(1.23143e-05 -6.34628e-06 0.0183242)
(3.49739e-06 -6.05636e-06 0.0180266)
(6.92827e-06 -5.83958e-06 0.0181807)
(9.8666e-06 -5.76839e-06 0.0182857)
(1.23101e-05 -5.69147e-06 0.0183597)
(2.12059e-06 -4.5892e-06 0.0180438)
(5.69984e-06 -4.62238e-06 0.0182001)
(9.04037e-06 -4.8442e-06 0.0183051)
(1.19296e-05 -5.06362e-06 0.0183772)
(4.77801e-06 -5.07366e-06 0.0179483)
(6.26855e-06 -5.09402e-06 0.0180904)
(7.50362e-06 -5.1351e-06 0.0181907)
(8.84632e-06 -5.23542e-06 0.018266)
(3.54268e-06 -5.15859e-06 0.0179882)
(5.38583e-06 -4.95432e-06 0.0181386)
(6.94759e-06 -4.75978e-06 0.0182438)
(8.31967e-06 -4.52713e-06 0.0183211)
(2.39014e-06 -4.34552e-06 0.0180213)
(4.63943e-06 -4.21284e-06 0.0181757)
(6.59926e-06 -4.17045e-06 0.0182814)
(8.26194e-06 -4.12109e-06 0.0183562)
(1.45692e-06 -3.31329e-06 0.0180388)
(3.85635e-06 -3.34018e-06 0.0181951)
(6.0882e-06 -3.49996e-06 0.0183007)
(8.03232e-06 -3.6552e-06 0.0183736)
(3.12374e-06 -3.34617e-06 0.0179462)
(4.06609e-06 -3.37535e-06 0.0180883)
(4.84998e-06 -3.415e-06 0.0181887)
(5.71195e-06 -3.49031e-06 0.0182642)
(2.31303e-06 -3.39778e-06 0.0179856)
(3.48326e-06 -3.28173e-06 0.018136)
(4.4795e-06 -3.17537e-06 0.0182414)
(5.36092e-06 -3.04097e-06 0.0183191)
(1.55392e-06 -2.92107e-06 0.018018)
(2.96948e-06 -2.84322e-06 0.0181724)
(4.21968e-06 -2.8205e-06 0.0182785)
(5.29835e-06 -2.79226e-06 0.0183539)
(9.47579e-07 -2.24027e-06 0.0180354)
(2.48013e-06 -2.26138e-06 0.0181918)
(3.90566e-06 -2.36824e-06 0.0182977)
(5.15748e-06 -2.47153e-06 0.0183712)
(1.83134e-06 -1.97788e-06 0.017945)
(2.35971e-06 -2.00155e-06 0.018087)
(2.80326e-06 -2.03036e-06 0.0181876)
(3.292e-06 -2.07657e-06 0.0182632)
(1.35365e-06 -2.00733e-06 0.017984)
(2.015e-06 -1.94942e-06 0.0181344)
(2.58246e-06 -1.89844e-06 0.0182399)
(3.08716e-06 -1.83035e-06 0.0183179)
(9.05922e-07 -1.75022e-06 0.018016)
(1.70464e-06 -1.71296e-06 0.0181705)
(2.41657e-06 -1.7063e-06 0.0182768)
(3.03945e-06 -1.69619e-06 0.0183525)
(5.49973e-07 -1.35468e-06 0.0180333)
(1.42397e-06 -1.37424e-06 0.0181897)
(2.23739e-06 -1.4416e-06 0.0182959)
(2.95691e-06 -1.50711e-06 0.0183697)
(8.52221e-07 -9.54388e-07 0.0179444)
(1.04708e-06 -9.83045e-07 0.0180864)
(1.21534e-06 -1.01052e-06 0.018187)
(1.39327e-06 -1.04197e-06 0.0182627)
(6.34901e-07 -9.96313e-07 0.0179831)
(8.89596e-07 -9.95267e-07 0.0181336)
(1.11112e-06 -9.97115e-07 0.0182392)
(1.30698e-06 -9.94765e-07 0.0183173)
(4.19906e-07 -9.16005e-07 0.018015)
(7.35637e-07 -9.2521e-07 0.0181695)
(1.02055e-06 -9.46928e-07 0.0182759)
(1.26854e-06 -9.66682e-07 0.0183518)
(2.39199e-07 -7.6412e-07 0.0180322)
(5.91473e-07 -7.99473e-07 0.0181886)
(9.23765e-07 -8.54344e-07 0.0182949)
(1.21589e-06 -9.06134e-07 0.0183689)
(-0.00623038 -0.00239252 0.0255311)
(-0.00115973 0.000107212 0.00801434)
(-0.000366659 0.000917063 0.019526)
(0.00269057 0.00343434 0.0210668)
(-0.00308621 -0.000902377 0.0134296)
(-0.00123426 -0.000517655 0.0256827)
(0.00264312 0.0018057 0.0147691)
(0.000305895 0.00210854 0.00929173)
(-0.00147648 0.00145433 0.0146662)
(0.000736535 -0.00034939 0.0169929)
(0.00362486 0.000910064 0.0179123)
(0.00232768 -0.00900361 0.0263607)
(-0.00254781 0.0031911 0.0236075)
(0.000331822 0.00208746 0.00923193)
(-0.00092865 0.000818702 0.0156284)
(0.00012484 -0.00103218 0.00419071)
(-0.00150723 0.00356941 0.0589501)
(-0.00433055 0.00120473 0.0533273)
(-0.000575764 0.00284473 0.0354636)
(-0.00183623 -0.000201524 0.0214058)
(-0.000205588 0.00338875 0.0166684)
(-0.00199356 0.00121265 0.0285671)
(0.000434615 0.0019442 0.0415088)
(-0.00433461 -0.00415414 0.0722182)
(-0.00160083 0.00089569 0.042637)
(-0.00312436 0.00284728 0.0363172)
(-0.00221481 0.00308601 0.0440707)
(-0.000272055 0.001215 0.00434677)
(-0.000835535 -0.00167678 0.0353232)
(-0.0011267 0.00155542 0.037464)
(0.00102871 0.00391013 0.0508284)
(-9.28073e-05 0.00394958 0.0241626)
(0.000769006 0.00366407 0.0374223)
(-0.000151051 0.00393996 0.0362594)
(-0.000481636 -7.21762e-06 0.0217621)
(-0.0114187 -0.00661 0.0567943)
(0.000222826 0.00196542 0.0221873)