/*--------------------------------*- C++ -*----------------------------------*\
| =========                 |                                                 |
| \\      /  F ield         | OpenFOAM: The Open Source CFD Toolbox           |
|  \\    /   O peration     | Version:  2506                                  |
|   \\  /    A nd           | Website:  www.openfoam.com                      |
|    \\/     M anipulation  |                                                 |
\*---------------------------------------------------------------------------*/
FoamFile
{
    version     2.0;
    format      ascii;
    arch        "LSB;label=32;scalar=64";
    class       volScalarField;
    location    "0.09";
    object      voidfraction;
}
// * * * * * * * * * * * * * * * * * * * * * * * * * * * * * * * * * * * * * //

dimensions      [0 0 0 0 0 0 0];

internalField   nonuniform List<scalar> 
1152
(
0.41803
0.446997
0.468063
0.357463
0.428563
0.462797
0.375896
0.404863
0.44173
0.444363
0.475963
0.420663
0.40223
0.53653
0.47333
0.423296
0.462797
0.48913
0.49703
0.381163
0.41803
0.50493
0.420663
0.40223
0.45753
0.523364
0.454897
0.41013
0.47333
0.462797
0.460163
0.478597
0.357463
0.378529
0.381163
0.320596
0.383796
0.383796
0.431196
0.412763
0.41013
0.436463
0.378529
0.44173
0.396963
0.43383
0.344296
0.336396
0.39433
0.436463
0.357463
0.41803
0.436463
0.389063
0.446997
0.420663
0.375896
0.354829
0.41013
0.331129
0.370629
0.428563
0.428563
0.51283
0.375896
0.362729
0.310062
0.389063
0.428563
0.41803
0.41013
0.357463
0.40223
0.383796
0.373263
0.454897
0.415396
0.39433
0.346929
0.378529
0.360096
0.42593
0.446997
0.439097
0.399596
0.420663
0.415396
0.475963
0.41803
0.49703
0.367996
0.462797
0.549697
0.362729
0.381163
0.357463
0.712965
0.681365
0.652398
0.568131
0.744565
0.649764
0.547064
0.507564
0.715598
0.626064
0.576031
0.673465
0.681365
0.589197
0.51283
0.533897
1
1
1
1
1
1
1
1
1
1
1
1
1
1
1
1
1
1
1
1
1
1
1
1
1
1
1
1
1
1
1
1
1
1
1
1
1
1
1
1
1
1
1
1
1
1
1
1
1
1
1
1
1
1
1
1
1
1
1
1
1
1
1
1
1
1
1
1
1
1
1
1
1
1
1
1
1
1
1
1
1
1
1
1
1
1
1
1
1
1
1
1
1
1
1
1
1
1
1
1
1
1
1
1
1
1
1
1
1
1
1
1
1
1
1
1
1
1
1
1
1
1
1
1
1
1
1
1
1
1
1
1
1
1
1
1
1
1
1
1
1
1
1
1
1
1
1
1
1
1
1
1
1
1
1
1
1
1
1
1
1
1
1
1
1
1
1
1
1
1
1
1
1
1
1
1
1
1
1
1
1
1
1
1
1
1
1
1
1
1
1
1
1
1
1
1
1
1
1
1
1
1
1
1
1
1
1
1
1
1
1
1
1
1
1
1
1
1
1
1
1
1
1
1
1
1
1
1
1
1
1
1
1
1
1
1
1
1
1
1
1
1
1
1
1
1
1
1
1
1
1
1
1
1
1
1
1
1
1
1
1
1
1
1
1
1
1
1
1
1
1
1
0.463137
0.421411
0.463241
0.439229
0.408618
0.454301
0.454332
0.483259
0.45306
0.481994
0.418325
0.41531
0.418358
0.414476
0.460532
0.453722
0.495511
0.498763
0.4306
0.395419
0.386876
0.466482
0.387855
0.454373
0.445437
0.41645
0.430195
0.445086
0.45773
0.521294
0.487063
0.458734
0.479324
0.368812
0.387079
0.412943
0.439057
0.468918
0.446022
0.486469
0.422569
0.435479
0.396957
0.388241
0.393302
0.384804
0.343352
0.443699
0.392994
0.433788
0.397959
0.281512
0.352089
0.464045
0.385085
0.454373
0.393983
0.433365
0.437318
0.380121
0.414778
0.376891
0.347774
0.408616
0.482022
0.347154
0.394332
0.347228
0.395573
0.425067
0.418323
0.390182
0.464495
0.41645
0.413576
0.420724
0.393302
0.339307
0.429578
0.408616
0.430763
0.375
0.44148
0.421705
0.391225
0.439684
0.423863
0.40302
0.432097
0.414336
0.401705
0.388241
0.429096
0.424366
0.445055
0.438687
0.635796
0.650372
0.746127
0.767806
0.623864
0.697917
0.75348
0.807426
0.727483
0.820284
0.705601
0.710362
0.642066
0.71515
0.789961
0.686767
1
1
1
1
1
1
1
1
1
1
1
1
1
1
1
1
1
1
1
1
1
1
1
1
1
1
1
1
1
1
1
1
1
1
1
1
1
1
1
1
1
1
1
1
1
1
1
1
1
1
1
1
1
1
1
1
1
1
1
1
1
1
1
1
1
1
1
1
1
1
1
1
1
1
1
1
1
1
1
1
1
1
1
1
1
1
1
1
1
1
1
1
1
1
1
1
1
1
1
1
1
1
1
1
1
1
1
1
1
1
1
1
1
1
1
1
1
1
1
1
1
1
1
1
1
1
1
1
1
1
1
1
1
1
1
1
1
1
1
1
1
1
1
1
1
1
1
1
1
1
1
1
1
1
1
1
1
1
1
1
1
1
1
1
1
1
1
1
1
1
1
1
1
1
1
1
1
1
1
1
1
1
1
1
1
1
1
1
1
1
1
1
1
1
1
1
1
1
1
1
1
1
1
1
1
1
1
1
1
1
1
1
1
1
1
1
1
1
1
1
1
1
1
1
1
1
1
1
1
1
1
1
1
1
1
1
1
1
1
1
1
1
1
1
1
1
1
1
1
1
1
1
1
1
1
1
1
1
1
1
1
1
1
1
1
1
1
1
1
1
1
1
0.498208
0.428186
0.470212
0.445203
0.421411
0.444556
0.424908
0.42041
0.419719
0.415554
0.437318
0.473797
0.439229
0.390182
0.428845
0.378546
0.506302
0.482541
0.435909
0.416568
0.427599
0.429939
0.465079
0.523272
0.445107
0.437713
0.491924
0.356617
0.434848
0.444744
0.472155
0.378546
0.411879
0.432534
0.382549
0.479206
0.378095
0.456737
0.422793
0.410519
0.470494
0.382315
0.399331
0.400836
0.377895
0.451164
0.401776
0.433675
0.430763
0.391225
0.42638
0.472048
0.405941
0.432375
0.391079
0.432279
0.405212
0.362926
0.363718
0.438422
0.430467
0.374134
0.445086
0.431169
0.452346
0.386876
0.424475
0.438044
0.384283
0.471354
0.420679
0.414476
0.426973
0.429403
0.411202
0.369883
0.408562
0.40623
0.393655
0.403605
0.457741
0.434709
0.42638
0.441623
0.433788
0.437248
0.405879
0.368979
0.372572
0.390625
0.349473
0.416313
0.325322
0.460792
0.426138
0.428663
0.538675
0.602122
0.615046
0.591956
0.591584
0.578545
0.566566
0.6202
0.662712
0.603906
0.669988
0.747953
0.65828
0.666205
0.667052
0.656697
1
1
1
1
1
1
0.997886
1
1
1
1
1
1
1
1
1
1
1
1
1
1
1
1
1
1
1
1
1
1
1
1
1
1
1
1
1
1
1
1
1
1
1
1
1
1
1
1
1
1
1
1
1
1
1
1
1
1
1
1
1
1
1
1
1
1
1
1
1
1
1
1
1
1
1
1
1
1
1
1
1
1
1
1
1
1
1
1
1
1
1
1
1
1
1
1
1
1
1
1
1
1
1
1
1
1
1
1
1
1
1
1
1
1
1
1
1
1
1
1
1
1
1
1
1
1
1
1
1
1
1
1
1
1
1
1
1
1
1
1
1
1
1
1
1
1
1
1
1
1
1
1
1
1
1
1
1
1
1
1
1
1
1
1
1
1
1
1
1
1
1
1
1
1
1
1
1
1
1
1
1
1
1
1
1
1
1
1
1
1
1
1
1
1
1
1
1
1
1
1
1
1
1
1
1
1
1
1
1
1
1
1
1
1
1
1
1
1
1
1
1
1
1
1
1
1
1
1
1
1
1
1
1
1
1
1
1
1
1
1
1
1
1
1
1
1
1
1
1
1
1
1
1
1
1
1
1
1
1
1
1
1
1
1
1
1
1
1
1
1
1
1
1
)
;

boundaryField
{
    inlet
    {
        type            fixedValue;
        value           uniform 1;
    }
    outlet
    {
        type            fixedValue;
        value           uniform 1;
    }
    wall
    {
        type            zeroGradient;
    }
    procBoundary0to1
    {
        type            processor;
        value           nonuniform List<scalar> 
192
(
0.523364
0.44173
0.444363
0.415396
0.436463
0.446997
0.45753
0.333763
0.48123
0.365363
0.383796
0.420663
0.38643
0.365363
0.439097
0.349563
0.431196
0.407496
0.381163
0.45753
0.391696
0.48123
0.404863
0.42593
0.649764
0.633964
0.586564
0.444363
1
1
1
0.9921
1
1
1
1
1
1
1
1
1
1
1
1
1
1
1
1
1
1
1
1
1
1
1
1
1
1
1
1
1
1
1
1
1
1
1
1
1
1
1
1
1
1
1
1
1
1
1
1
1
1
1
1
1
1
1
1
1
1
1
1
1
1
1
1
0.45952
0.45206
0.467164
0.486298
0.541845
0.450082
0.498117
0.503839
0.378985
0.394695
0.345563
0.361005
0.346771
0.349198
0.451688
0.333441
0.395092
0.42041
0.391992
0.398593
0.391513
0.446126
0.389782
0.393581
0.695756
0.71515
0.752375
0.771967
1
1
1
1
1
1
1
1
1
1
1
1
1
1
1
1
1
1
1
1
1
1
1
1
1
1
1
1
1
1
1
1
1
1
1
1
1
1
1
1
1
1
1
1
1
1
1
1
1
1
1
1
1
1
1
1
1
1
1
1
1
1
1
1
1
1
1
1
)
;
    }
    procBoundary0to2
    {
        type            processor;
        value           nonuniform List<scalar> 
192
(
0.42593
0.375896
0.41013
0.354829
0.460163
0.46543
0.446997
0.331129
0.45753
0.339029
0.404863
0.502297
0.396963
0.420663
0.333763
0.45753
0.370629
0.391696
0.412763
0.407496
0.396963
0.383796
0.38643
0.336396
0.583931
0.581297
0.586564
0.594464
1
1
1
1
1
1
1
1
1
1
1
1
1
1
1
1
1
1
1
1
1
1
1
1
1
1
1
1
1
1
1
1
1
1
1
1
1
1
1
1
1
1
1
1
1
1
1
1
1
1
1
1
1
1
1
1
1
1
1
1
1
1
1
1
1
1
1
1
0.450572
0.457994
0.376516
0.458734
0.380775
0.394695
0.369883
0.408616
0.423727
0.457994
0.445055
0.451216
0.436254
0.457994
0.378727
0.476275
0.470258
0.424366
0.358828
0.401099
0.411199
0.501513
0.389782
0.408616
0.733339
0.839772
0.765641
0.784496
1
1
1
1
1
1
1
1
1
1
1
1
1
1
1
1
1
1
1
1
1
1
1
1
1
1
1
1
1
1
1
1
1
1
1
1
1
1
1
1
1
1
1
1
1
1
1
1
1
1
1
1
1
1
1
1
1
1
1
1
1
1
1
1
1
1
1
1
)
;
    }
}


// ************************************************************************* //
