/*--------------------------------*- C++ -*----------------------------------*\
| =========                 |                                                 |
| \\      /  F ield         | OpenFOAM: The Open Source CFD Toolbox           |
|  \\    /   O peration     | Version:  2506                                  |
|   \\  /    A nd           | Website:  www.openfoam.com                      |
|    \\/     M anipulation  |                                                 |
\*---------------------------------------------------------------------------*/
FoamFile
{
    version     2.0;
    format      ascii;
    arch        "LSB;label=32;scalar=64";
    class       volScalarField;
    location    "0.008";
    object      p;
}
// * * * * * * * * * * * * * * * * * * * * * * * * * * * * * * * * * * * * * //

dimensions      [0 2 -2 0 0 0 0];

internalField   nonuniform List<scalar> 
512
(
-0.329725
-0.0490827
0.68199
0.600113
-0.211619
-0.627561
-0.59644
-0.296251
-0.0939178
-0.385324
-0.546435
-0.181737
-0.0884402
-0.0668279
0.0679426
0.375285
0.370128
0.107895
-0.00967025
-0.019863
0.148679
0.51203
0.689211
0.722409
0.865279
0.839057
0.278954
-0.282186
-0.302712
-0.136111
0.217724
0.0118879
-0.106799
0.308146
0.563444
0.506753
-0.0309465
-0.66278
-0.588601
-0.231204
-0.224435
-0.364808
-0.299737
-0.234381
-0.151903
-0.152596
-0.0040139
0.465814
0.314466
0.0329964
0.166271
0.157366
0.0849644
0.266535
0.568653
0.6891
0.783948
0.800486
0.351135
0.0146159
-0.0977599
-0.133218
-0.287992
-0.358338
0.0445047
0.268075
0.352647
0.271949
-0.192929
-0.553075
-0.417931
-0.146706
-0.321536
-0.70952
-0.547714
0.0517492
0.161115
-0.240141
-0.0735625
0.342406
0.252535
0.224872
0.261625
0.306651
0.381274
0.507429
0.626198
0.480478
0.425622
0.762394
0.636544
0.35484
0.0913538
-0.00577469
-0.315796
-0.416903
0.107073
0.318822
0.218204
0.118167
-0.127654
-0.600454
-0.330888
-0.0218983
-0.603895
-1.17817
-0.553954
0.120706
0.0485199
-0.210369
0.00399295
0.221877
0.276377
0.233283
0.0595529
0.505747
0.670561
0.332475
0.286695
0.226581
0.190636
0.477226
0.547871
0.328368
0.23351
0.270267
0.0387067
-0.165403
0.179869
0.00702789
-0.0344142
0.118703
0.0215618
-0.0600667
-0.156075
-0.595663
-1.03905
-0.641007
-0.159062
-0.0310078
-0.0762238
-0.121353
0.154821
0.102484
-0.0463525
0.0411109
0.423228
0.695969
0.480295
0.122862
0.134592
0.113763
0.285033
0.535291
0.403218
0.0601344
0.249675
0.495117
0.497192
0.206393
0.0795621
-0.0757635
0.353003
0.398606
0.304432
0.157474
-0.275261
-1.03702
-1.45815
-0.717083
-0.224029
-0.151504
-0.181757
-0.157428
0.184187
0.177153
0.19683
0.336995
0.336533
0.342031
0.230961
0.0919472
0.190856
-0.00452637
0.205378
0.631918
0.663293
0.266518
-0.0469483
0.31494
0.739536
0.46767
0.278822
0.189314
0.582497
0.464262
-0.0621797
-0.288445
-0.58757
-1.19379
-1.57092
-0.918107
-0.241812
-0.135145
-0.314119
-0.255765
0.212991
0.528039
0.354585
0.0483961
0.138906
0.403728
0.198142
0.0791115
0.14334
0.0052358
0.476347
0.719118
0.576739
0.0549181
-0.0459534
0.666549
0.752483
0.545752
-0.0720557
-0.100131
0.80428
0.792074
-0.0835837
-0.425592
-0.494473
-0.731378
-1.2633
-1.17042
-0.373418
-0.089185
-0.302539
-0.240554
0.287614
0.564702
0.256032
-0.00314024
0.371002
0.542324
-0.0656258
-0.313366
-0.00853916
0.160115
0.622155
1.12404
0.624655
-0.128664
0.0325473
0.485074
0.733083
0.612215
-0.177837
0.119617
0.571057
0.488643
-0.015314
-0.586283
-0.354395
-0.0448076
-0.281019
-0.761371
-0.521181
-0.229695
-0.455513
-0.285639
0.242533
0.518404
0.539128
0.126238
-0.061176
0.325394
0.635521
0.586811
0.400965
0.567048
0.614291
0.0650302
-0.115175
0.0479172
0.171602
0.178771
0.325798
0.195386
-0.0513096
0.265088
0.412436
0.232842
-0.257842
-0.525532
-0.234124
0.0329604
-0.265549
-0.799774
-0.694384
-0.377489
-0.470323
-0.349713
0.091345
0.609574
0.707676
0.401867
0.110691
0.0458451
0.36333
0.371485
0.230308
0.465037
0.590831
0.301616
0.253073
0.335532
0.250144
0.0349789
0.00859213
-0.0875074
0.0479067
0.307811
0.320947
0.115764
-0.320113
-0.523605
-0.121655
-0.0497724
-0.486916
-0.710477
-0.53642
-0.431612
-0.413854
-0.358311
0.15215
0.509389
0.539497
0.398668
0.3146
0.507207
0.414797
0.200111
0.317703
0.417193
0.489976
0.519325
0.451926
0.455657
0.322878
0.145313
-0.143932
-0.30381
0.0623109
0.248307
0.112422
-0.00210572
-0.139675
-0.0519957
0.164939
0.0875499
-0.562802
-1.36296
-0.87197
-0.273637
-0.277239
-0.22569
0.108752
0.352495
0.588026
0.501839
0.0566067
0.247915
0.463181
0.288478
0.245248
0.185742
0.282111
0.419345
0.306099
0.228709
0.370683
0.407311
0.164397
-0.122345
-0.109829
0.0865601
0.101372
0.0628236
0.0783984
0.173641
-0.0661561
-0.646599
-1.10547
-0.814184
-0.249367
-0.359604
-0.442272
0.0299604
0.313635
0.268844
0.193194
0.115282
0.343567
0.500437
0.434979
0.280947
0.129094
-0.0604576
0.23924
0.602522
0.356024
-0.0303232
0.265441
0.514257
0.569669
0.218824
0.264336
0.247892
0.361445
0.314263
0.260929
0.312857
-0.0938991
-1.03719
-1.7139
-1.09517
-0.489065
-0.329288
-0.209731
0.142088
0.316236
0.268836
0.28883
0.185497
0.318707
0.650559
0.369246
-0.0209329
-0.212389
-0.206403
0.418751
0.727255
0.588963
0.228013
0.0158965
0.294628
0.654737
0.390033
0.20537
0.246734
0.638147
0.837061
0.503688
-0.0789359
-0.698069
-1.54579
-2.0396
-1.1424
-0.413052
-0.302654
-0.392926
0.0239752
0.395307
0.416921
0.299713
0.104481
0.314258
0.731052
0.575644
0.121211
-0.421023
-0.240824
0.635776
0.649191
0.421335
0.0521153
-0.017024
0.607401
0.661178
0.352189
-0.176352
-0.102318
0.634682
1.1884
0.791887
-0.298705
-0.903792
-1.48831
-1.65686
-1.00322
-0.427445
-0.362722
-0.414461
0.046645
0.503804
0.50444
0.263187
0.0465938
0.253616
0.706039
0.617112
0.0524023
-0.611187
-0.397187
0.665383
1.17839
0.61396
-0.083239
0.110849
0.515831
0.672838
0.380338
)
;

boundaryField
{
    wall
    {
        type            zeroGradient;
    }
    outlet
    {
        type            cyclic;
    }
    inlet
    {
        type            cyclic;
    }
    procBoundary0to1
    {
        type            processor;
        value           nonuniform List<scalar> 
256
(
0.353875
0.462654
0.442695
0.0968429
-0.536402
-0.914511
-0.328413
0.154581
-0.0437323
-0.186133
-0.243164
-0.703488
-0.786458
-0.188907
0.183827
0.277529
0.252955
0.0349382
0.0793337
0.268393
0.54124
0.614561
0.532945
0.599966
0.663409
0.251069
-0.0912807
0.100764
-0.0047875
-0.284435
0.126175
0.468116
0.305305
0.47298
0.580866
-0.0127951
-0.837787
-0.906013
-0.19597
0.300073
0.0942639
-0.316325
-0.362156
-0.7032
-0.777159
-0.146306
0.152255
0.135874
0.274857
0.199053
0.0670481
0.211373
0.585383
0.580959
0.361542
0.452841
0.631015
0.332663
0.11353
0.323965
0.237265
-0.17862
-0.059686
0.307264
0.027151
0.437287
0.420946
-0.0315852
-0.521395
-0.737731
-0.124605
0.267449
-0.00920865
-0.43729
-0.363381
-0.288485
-0.71525
-0.813993
-0.171243
0.415642
0.5575
0.277717
0.0764629
0.253443
0.367649
0.228274
0.215116
0.412959
0.602804
0.257214
0.157196
0.395716
0.424089
0.2643
0.166278
0.0592215
-0.0773442
0.164366
0.246158
0.110119
-0.148674
-0.28144
-0.039603
-0.0791212
-0.459311
-0.652272
-0.530819
-0.469642
-0.393672
-0.406025
-0.131417
0.310646
0.460364
0.370836
0.39317
0.629476
0.46392
0.139633
0.0748644
0.063132
0.263524
0.316157
0.141187
0.296263
0.499841
0.504815
0.377968
0.0619406
0.22968
0.25349
0.0250989
-0.0512937
0.0731748
0.173411
-0.0839626
-0.328146
-0.535392
-0.830228
-0.907745
-0.618696
-0.0878554
0.132105
0.0241615
-0.122059
0.225684
0.540589
0.508683
0.341591
0.285632
0.268859
0.130459
0.0181821
0.226476
0.437356
0.239512
0.137113
0.409804
0.472502
0.404343
0.262628
0.162911
0.280094
0.289257
0.434587
0.209033
-0.0534755
-0.352776
-0.640587
-0.929196
-1.13237
-0.979485
-0.533079
-0.260416
-0.0858238
0.1807
0.360367
0.264687
0.259896
0.443586
0.594428
0.408203
0.321001
0.122645
-0.21002
0.266433
0.6496
0.397812
0.187309
0.245086
0.499727
0.527904
0.131261
0.0196054
0.132136
0.672898
1.02204
0.324515
-0.398898
-0.683888
-0.733163
-1.13982
-1.26819
-0.674218
-0.494572
-0.561556
-0.089326
0.364302
0.508236
0.362105
0.166615
0.240516
0.574182
0.502127
0.12949
-0.136004
-0.0100371
0.660718
0.685893
0.400179
-0.00958969
-0.0700592
0.582117
0.699537
0.163959
-0.374895
0.0583742
0.852933
0.96909
0.114917
-0.616655
-0.498392
-0.51633
-1.06887
-1.28174
-0.766571
-0.540318
-0.454091
0.118594
0.394784
0.365371
0.259998
0.081099
0.276799
0.671394
0.323118
-0.00979573
-0.0667569
-0.00113342
0.620875
1.08932
0.595235
-0.148155
-0.0479627
0.504346
0.782113
0.230413
)
;
    }
}


// ************************************************************************* //
