/*--------------------------------*- C++ -*----------------------------------*\
| =========                 |                                                 |
| \\      /  F ield         | OpenFOAM: The Open Source CFD Toolbox           |
|  \\    /   O peration     | Version:  2506                                  |
|   \\  /    A nd           | Website:  www.openfoam.com                      |
|    \\/     M anipulation  |                                                 |
\*---------------------------------------------------------------------------*/
FoamFile
{
    version     2.0;
    format      ascii;
    arch        "LSB;label=32;scalar=64";
    class       volScalarField;
    location    "0.03";
    object      p;
}
// * * * * * * * * * * * * * * * * * * * * * * * * * * * * * * * * * * * * * //

dimensions      [0 2 -2 0 0 0 0];

internalField   nonuniform List<scalar> 
1152
(
10.8794
10.9251
10.9337
10.925
10.9487
10.9196
10.9519
10.8638
10.9312
10.8676
10.7627
10.7591
10.9301
10.7842
10.5197
10.6707
9.7075
9.85386
9.701
9.69429
9.74719
9.81801
9.46058
9.52809
9.69666
9.6734
9.54676
9.71754
9.60243
9.74207
9.84015
9.56349
7.60654
7.48783
7.53747
7.45638
7.61827
7.63169
7.48628
7.51784
7.52403
7.76568
7.79951
7.56031
7.67001
7.77549
8.33287
7.82595
5.71586
5.43489
5.39675
5.3026
5.39237
5.51886
5.56513
5.4264
5.44743
5.35688
5.52755
5.22714
5.77573
5.50921
5.38167
5.25888
3.33686
3.33394
3.29684
3.23162
3.26578
3.37735
3.48076
3.40539
3.65731
3.37208
3.34684
3.29439
3.88282
3.60943
3.27236
3.17169
1.2929
1.27926
1.43772
1.36229
1.50563
1.37691
1.42528
1.48883
1.48046
1.37127
1.36352
1.37792
1.94143
1.49961
1.23426
1.2943
1.01445
1.01326
1.00997
1.01668
1.01758
1.01149
1.01345
1.00666
1.00656
1.0155
1.00875
1.01332
0.946634
1.0019
1.01603
1.0135
1.00551
1.00558
1.00511
1.00539
1.00486
1.00478
1.00496
1.00469
1.0028
1.00393
1.00392
1.00453
0.995539
1.00085
1.00429
1.00419
1.00882
1.00883
1.00856
1.00876
1.00838
1.00818
1.00824
1.0082
1.00755
1.00795
1.00796
1.0082
1.00799
1.00743
1.00825
1.00823
1.00704
1.00708
1.00699
1.00705
1.00671
1.00671
1.00676
1.00679
1.0063
1.00643
1.00656
1.0067
1.00619
1.00618
1.00654
1.00668
1.0068
1.00683
1.00679
1.00682
1.00663
1.00663
1.00664
1.00667
1.00647
1.00648
1.00653
1.00659
1.0064
1.00639
1.00647
1.00654
1.00628
1.00629
1.00627
1.00627
1.00618
1.00618
1.00618
1.00619
1.0061
1.0061
1.00611
1.00614
1.00605
1.00605
1.00607
1.0061
1.00578
1.00578
1.00577
1.00577
1.00572
1.00572
1.00572
1.00572
1.00567
1.00567
1.00567
1.00568
1.00564
1.00564
1.00564
1.00565
1.00527
1.00527
1.00526
1.00526
1.00524
1.00524
1.00523
1.00523
1.00521
1.00521
1.00521
1.00521
1.00519
1.00518
1.00518
1.00519
1.00477
1.00477
1.00476
1.00476
1.00475
1.00474
1.00474
1.00474
1.00473
1.00472
1.00472
1.00472
1.00471
1.00471
1.00471
1.00471
1.00426
1.00426
1.00426
1.00425
1.00425
1.00425
1.00424
1.00424
1.00424
1.00423
1.00423
1.00423
1.00423
1.00422
1.00422
1.00422
1.00376
1.00376
1.00375
1.00375
1.00375
1.00375
1.00375
1.00374
1.00374
1.00374
1.00374
1.00374
1.00373
1.00373
1.00373
1.00373
1.00326
1.00325
1.00325
1.00325
1.00325
1.00325
1.00325
1.00325
1.00325
1.00324
1.00324
1.00324
1.00324
1.00324
1.00324
1.00324
1.00275
1.00275
1.00275
1.00275
1.00275
1.00275
1.00275
1.00275
1.00275
1.00275
1.00274
1.00274
1.00274
1.00274
1.00274
1.00274
1.00225
1.00225
1.00225
1.00225
1.00225
1.00225
1.00225
1.00225
1.00225
1.00225
1.00225
1.00224
1.00224
1.00224
1.00224
1.00224
1.00175
1.00175
1.00175
1.00175
1.00175
1.00175
1.00175
1.00175
1.00175
1.00175
1.00175
1.00175
1.00175
1.00175
1.00174
1.00174
1.00125
1.00125
1.00125
1.00125
1.00125
1.00125
1.00125
1.00125
1.00125
1.00125
1.00125
1.00125
1.00125
1.00125
1.00125
1.00125
1.00075
1.00075
1.00075
1.00075
1.00075
1.00075
1.00075
1.00075
1.00075
1.00075
1.00075
1.00075
1.00075
1.00075
1.00075
1.00075
1.00025
1.00025
1.00025
1.00025
1.00025
1.00025
1.00025
1.00025
1.00025
1.00025
1.00025
1.00025
1.00025
1.00025
1.00025
1.00025
10.8716
10.9217
10.8767
10.7646
10.9133
10.8575
10.811
10.8061
10.8724
10.9553
10.8415
10.8167
10.8626
10.9247
10.9031
10.901
9.92077
9.57722
9.57911
9.50143
9.68762
9.69043
9.77019
9.56243
9.64193
9.58279
9.73409
9.67953
9.62288
9.65918
9.75663
9.51744
7.77367
7.50428
7.5095
7.45717
7.62056
7.56296
7.50848
7.51369
7.38633
7.51829
7.49788
7.52824
7.485
7.50478
7.38641
7.48208
5.49173
5.3251
5.28085
5.36454
5.2743
5.37566
5.41041
5.42275
5.30598
5.37264
5.34106
5.31068
5.4562
5.3528
5.3547
5.31829
3.2211
3.30735
3.40106
3.39798
2.8717
3.25714
3.35422
3.27678
3.26754
3.19551
3.33577
3.28645
3.25001
3.26448
3.39364
3.29713
0.681305
1.5921
1.62932
1.46599
1.26667
1.3471
1.55711
1.49356
1.22539
1.24356
1.38695
1.34279
1.15577
1.26381
1.28494
1.42689
1.05496
1.02498
1.01108
1.016
1.01955
1.00965
1.00698
1.00817
1.00379
1.00807
1.01184
1.01444
1.0087
1.00938
1.00996
1.01282
1.04006
1.01336
1.00681
1.00571
1.01707
1.00898
1.00616
1.0054
1.00854
1.0068
1.0058
1.0056
1.0065
1.00578
1.00537
1.00522
1.00282
1.01066
1.00918
1.00935
1.00891
1.01055
1.00906
1.00906
1.00907
1.00976
1.00909
1.00913
1.00892
1.00911
1.00879
1.00896
1.00818
1.00845
1.00743
1.00722
1.00795
1.00822
1.00739
1.00721
1.00756
1.00778
1.00732
1.0072
1.00726
1.00735
1.00716
1.00712
1.00727
1.00753
1.00715
1.00704
1.00724
1.00742
1.00709
1.007
1.00711
1.00722
1.00703
1.00698
1.00695
1.00702
1.00693
1.00693
1.00652
1.00663
1.00646
1.00638
1.00652
1.00659
1.00644
1.00637
1.00646
1.00651
1.0064
1.00635
1.00637
1.0064
1.00635
1.00632
1.00592
1.00597
1.00589
1.00584
1.00591
1.00594
1.00587
1.00583
1.00588
1.0059
1.00585
1.00582
1.00583
1.00585
1.00582
1.0058
1.00536
1.00538
1.00533
1.0053
1.00535
1.00536
1.00532
1.0053
1.00533
1.00534
1.00531
1.00529
1.00531
1.00531
1.00529
1.00528
1.00482
1.00483
1.0048
1.00478
1.00481
1.00482
1.00479
1.00478
1.0048
1.00481
1.00479
1.00478
1.00479
1.00479
1.00478
1.00477
1.0043
1.0043
1.00428
1.00427
1.00429
1.00429
1.00428
1.00427
1.00429
1.00428
1.00427
1.00427
1.00428
1.00427
1.00427
1.00426
1.00378
1.00378
1.00377
1.00376
1.00378
1.00378
1.00377
1.00376
1.00377
1.00377
1.00376
1.00376
1.00377
1.00376
1.00376
1.00376
1.00327
1.00327
1.00326
1.00326
1.00327
1.00327
1.00326
1.00326
1.00327
1.00326
1.00326
1.00325
1.00326
1.00326
1.00326
1.00325
1.00276
1.00276
1.00276
1.00275
1.00276
1.00276
1.00276
1.00275
1.00276
1.00276
1.00276
1.00275
1.00276
1.00276
1.00275
1.00275
1.00226
1.00226
1.00225
1.00225
1.00226
1.00226
1.00225
1.00225
1.00226
1.00225
1.00225
1.00225
1.00225
1.00225
1.00225
1.00225
1.00176
1.00175
1.00175
1.00175
1.00175
1.00175
1.00175
1.00175
1.00175
1.00175
1.00175
1.00175
1.00175
1.00175
1.00175
1.00175
1.00125
1.00125
1.00125
1.00125
1.00125
1.00125
1.00125
1.00125
1.00125
1.00125
1.00125
1.00125
1.00125
1.00125
1.00125
1.00125
1.00075
1.00075
1.00075
1.00075
1.00075
1.00075
1.00075
1.00075
1.00075
1.00075
1.00075
1.00075
1.00075
1.00075
1.00075
1.00075
1.00025
1.00025
1.00025
1.00025
1.00025
1.00025
1.00025
1.00025
1.00025
1.00025
1.00025
1.00025
1.00025
1.00025
1.00025
1.00025
10.8559
10.8111
10.7719
10.7133
10.8714
10.8693
10.7953
10.6527
10.8394
10.7455
10.6988
10.7011
10.8518
10.789
10.7275
10.7004
9.48332
9.51716
9.60844
9.64978
9.48659
9.37807
9.35168
9.37526
9.4736
9.46509
9.42584
9.4135
9.30183
9.53616
9.52663
9.04956
7.48595
7.5088
7.51712
7.47061
7.49899
7.46361
7.389
7.61862
7.41196
7.48628
7.32327
7.04534
7.34871
7.28076
7.24299
6.99938
5.578
5.38201
5.36798
5.41445
5.34849
5.32338
5.17092
5.16166
5.29932
5.24778
5.08334
5.16459
5.39549
5.30128
5.08185
5.05136
3.32067
3.33334
3.26898
3.04061
3.22909
3.24819
3.27697
3.30889
3.27321
3.32458
3.32895
3.53266
3.30547
3.24393
3.3405
3.56144
1.2416
1.37929
1.27082
1.34538
1.40915
1.42136
1.37016
1.16868
1.4244
1.23238
1.2323
1.2379
1.24137
1.28265
1.12474
1.25745
1.01151
1.01203
1.01
1.01437
1.01541
1.00984
1.01255
1.01161
1.01135
1.01335
1.01488
1.0072
1.01256
1.01327
1.0127
1.01489
1.00505
1.00507
1.00502
1.00505
1.00501
1.00494
1.00512
1.0055
1.00478
1.00504
1.00571
1.00527
1.00504
1.00525
1.00576
1.00608
1.00872
1.00874
1.00873
1.00883
1.0085
1.00853
1.00863
1.00868
1.00834
1.00852
1.00866
1.00828
1.00833
1.00852
1.00873
1.0089
1.00697
1.00699
1.00699
1.00695
1.00688
1.00693
1.00697
1.00696
1.0068
1.00689
1.00696
1.00683
1.00679
1.00691
1.00703
1.00704
1.00683
1.00685
1.00685
1.00687
1.00672
1.00675
1.00677
1.00679
1.00664
1.00668
1.00671
1.0067
1.00661
1.00666
1.00671
1.00675
1.00627
1.00628
1.00628
1.00627
1.00621
1.00623
1.00624
1.00623
1.00616
1.00618
1.00619
1.00618
1.00613
1.00616
1.00618
1.00619
1.00577
1.00577
1.00578
1.00578
1.00573
1.00574
1.00574
1.00574
1.00569
1.0057
1.00571
1.0057
1.00567
1.00568
1.00569
1.00569
1.00526
1.00526
1.00527
1.00527
1.00523
1.00524
1.00524
1.00524
1.00521
1.00521
1.00522
1.00522
1.00519
1.0052
1.0052
1.0052
1.00476
1.00476
1.00476
1.00476
1.00474
1.00474
1.00474
1.00474
1.00472
1.00472
1.00472
1.00472
1.00471
1.00471
1.00471
1.00471
1.00425
1.00425
1.00425
1.00425
1.00424
1.00424
1.00424
1.00424
1.00423
1.00423
1.00423
1.00423
1.00422
1.00422
1.00422
1.00422
1.00375
1.00375
1.00375
1.00375
1.00374
1.00374
1.00374
1.00374
1.00374
1.00374
1.00373
1.00373
1.00373
1.00373
1.00373
1.00373
1.00325
1.00325
1.00325
1.00325
1.00324
1.00324
1.00324
1.00324
1.00324
1.00324
1.00324
1.00324
1.00323
1.00323
1.00323
1.00323
1.00275
1.00275
1.00275
1.00275
1.00275
1.00275
1.00275
1.00275
1.00274
1.00274
1.00274
1.00274
1.00274
1.00274
1.00274
1.00274
1.00225
1.00225
1.00225
1.00225
1.00225
1.00225
1.00225
1.00225
1.00224
1.00224
1.00224
1.00224
1.00224
1.00224
1.00224
1.00224
1.00175
1.00175
1.00175
1.00175
1.00175
1.00175
1.00175
1.00175
1.00175
1.00175
1.00175
1.00174
1.00174
1.00174
1.00174
1.00174
1.00125
1.00125
1.00125
1.00125
1.00125
1.00125
1.00125
1.00125
1.00125
1.00125
1.00125
1.00125
1.00125
1.00125
1.00125
1.00125
1.00075
1.00075
1.00075
1.00075
1.00075
1.00075
1.00075
1.00075
1.00075
1.00075
1.00075
1.00075
1.00075
1.00075
1.00075
1.00075
1.00025
1.00025
1.00025
1.00025
1.00025
1.00025
1.00025
1.00025
1.00025
1.00025
1.00025
1.00025
1.00025
1.00025
1.00025
1.00025
)
;

boundaryField
{
    inlet
    {
        type            zeroGradient;
    }
    outlet
    {
        type            fixedValue;
        value           uniform 1;
    }
    wall
    {
        type            zeroGradient;
    }
    procBoundary1to0
    {
        type            processor;
        value           nonuniform List<scalar> 
192
(
11.0797
11.0716
10.9987
11.0079
9.55909
9.51865
9.53114
9.74994
7.12562
7.52549
7.35365
7.3583
5.62816
5.5159
5.5338
5.71504
3.36261
3.43903
3.63339
3.98816
1.49252
1.61472
1.57689
1.65682
1.01359
1.00856
1.02785
1.01184
1.00549
1.00526
1.0054
1.00239
1.00886
1.00817
1.00827
1.00747
1.00709
1.00673
1.00652
1.00624
1.00683
1.00665
1.00652
1.00643
1.00629
1.0062
1.00612
1.00607
1.00579
1.00573
1.00569
1.00565
1.00528
1.00525
1.00522
1.00519
1.00477
1.00475
1.00473
1.00472
1.00427
1.00425
1.00424
1.00423
1.00376
1.00375
1.00374
1.00374
1.00326
1.00325
1.00325
1.00324
1.00276
1.00275
1.00275
1.00274
1.00225
1.00225
1.00225
1.00225
1.00175
1.00175
1.00175
1.00175
1.00125
1.00125
1.00125
1.00125
1.00075
1.00075
1.00075
1.00075
1.00025
1.00025
1.00025
1.00025
10.9761
10.8896
10.8688
10.9366
9.34853
9.4426
9.62584
9.35742
7.23588
7.4874
7.41944
7.46468
5.32216
5.38683
5.37703
5.56876
3.37167
3.3725
3.23687
3.178
1.63545
1.47803
1.2323
1.38931
1.03259
0.998218
1.00893
1.01167
1.01097
1.00803
1.00665
1.00574
1.00987
1.00969
1.00955
1.0091
1.00822
1.00795
1.00766
1.00732
1.00746
1.00733
1.00717
1.00699
1.00662
1.00657
1.00649
1.00639
1.00596
1.00594
1.0059
1.00584
1.00538
1.00536
1.00534
1.00531
1.00483
1.00482
1.00481
1.00479
1.0043
1.0043
1.00429
1.00428
1.00378
1.00378
1.00378
1.00377
1.00327
1.00327
1.00327
1.00326
1.00276
1.00276
1.00276
1.00276
1.00226
1.00226
1.00226
1.00226
1.00176
1.00176
1.00175
1.00175
1.00125
1.00125
1.00125
1.00125
1.00075
1.00075
1.00075
1.00075
1.00025
1.00025
1.00025
1.00025
)
;
    }
    procBoundary1to3
    {
        type            processor;
        value           nonuniform List<scalar> 
192
(
10.8132
10.8958
10.7602
10.8538
9.74735
9.70652
9.74424
9.39112
8.10297
7.84387
7.88376
7.73926
5.90971
5.09358
5.41299
5.69445
3.24149
3.28355
3.3125
3.19186
1.81844
1.74471
1.49879
1.35078
0.999804
1.00943
1.00552
1.0105
1.00052
1.00208
1.00322
1.00421
1.00689
1.00736
1.00753
1.00806
1.00606
1.00616
1.00634
1.00661
1.00634
1.00634
1.0064
1.00651
1.00602
1.00601
1.00604
1.00608
1.00562
1.00561
1.00562
1.00564
1.00517
1.00517
1.00517
1.00517
1.0047
1.0047
1.0047
1.0047
1.00422
1.00422
1.00421
1.00421
1.00373
1.00373
1.00372
1.00372
1.00324
1.00323
1.00323
1.00323
1.00274
1.00274
1.00274
1.00274
1.00224
1.00224
1.00224
1.00224
1.00174
1.00174
1.00174
1.00174
1.00125
1.00125
1.00125
1.00125
1.00075
1.00075
1.00075
1.00075
1.00025
1.00025
1.00025
1.00025
10.8323
10.7983
10.7225
10.6186
9.67624
9.69849
9.31816
9.2238
7.46277
7.22817
7.34417
7.19301
5.31226
5.30095
5.30469
5.36919
3.20679
3.27526
3.20775
3.5842
1.35576
1.28347
1.39315
1.4464
1.01323
1.01441
1.02519
1.01208
1.00489
1.00521
1.00541
1.00502
1.00835
1.00862
1.00921
1.00868
1.00677
1.0069
1.00708
1.00688
1.00659
1.00664
1.0067
1.00669
1.00611
1.00614
1.00616
1.00616
1.00565
1.00566
1.00567
1.00567
1.00518
1.00518
1.00519
1.00519
1.0047
1.0047
1.0047
1.0047
1.00421
1.00421
1.00421
1.00421
1.00372
1.00372
1.00372
1.00372
1.00323
1.00323
1.00323
1.00323
1.00274
1.00273
1.00273
1.00273
1.00224
1.00224
1.00224
1.00224
1.00174
1.00174
1.00174
1.00174
1.00124
1.00124
1.00124
1.00124
1.00075
1.00075
1.00075
1.00075
1.00025
1.00025
1.00025
1.00025
)
;
    }
}


// ************************************************************************* //
