/*--------------------------------*- C++ -*----------------------------------*\
| =========                 |                                                 |
| \\      /  F ield         | OpenFOAM: The Open Source CFD Toolbox           |
|  \\    /   O peration     | Version:  2506                                  |
|   \\  /    A nd           | Website:  www.openfoam.com                      |
|    \\/     M anipulation  |                                                 |
\*---------------------------------------------------------------------------*/
FoamFile
{
    version     2.0;
    format      ascii;
    arch        "LSB;label=32;scalar=64";
    class       surfaceScalarField;
    location    "0.03";
    object      phi;
}
// * * * * * * * * * * * * * * * * * * * * * * * * * * * * * * * * * * * * * //

dimensions      [0 3 -1 0 0 0 0];

oriented        oriented;

internalField   nonuniform List<scalar> 
3120
(
-2.76496e-09
-4.78953e-09
3.96093e-08
1.45436e-09
-5.34545e-10
6.09438e-10
1.96597e-08
-2.32285e-10
3.10509e-10
-3.35145e-10
2.05443e-08
1.215e-09
2.20549e-09
1.55245e-08
1.90864e-10
4.68828e-09
1.42327e-09
1.06451e-09
1.86874e-08
-1.37941e-09
2.8342e-09
2.28135e-08
2.15226e-09
4.94214e-09
1.32754e-08
5.45146e-09
2.09559e-08
1.13584e-10
2.66592e-09
9.79983e-10
2.30903e-08
3.17304e-09
3.83351e-09
2.04894e-08
-1.73781e-10
1.34568e-08
1.71912e-08
6.15651e-09
2.51387e-08
-3.66155e-09
5.27607e-09
1.04505e-08
1.70335e-08
1.78044e-08
-1.15081e-08
7.78013e-08
3.36257e-08
-8.2761e-09
-1.73399e-09
-5.99705e-11
3.90865e-08
1.27424e-09
1.81765e-09
7.82154e-10
1.41318e-08
1.19414e-09
6.0234e-11
3.52096e-09
2.03011e-08
-1.52037e-09
3.01932e-09
8.44866e-09
2.67538e-09
1.44133e-09
-7.798e-10
1.24079e-09
1.45221e-08
4.21151e-09
2.78314e-09
1.58212e-08
-1.31422e-09
-1.08224e-09
2.34043e-08
-2.65376e-09
2.49305e-08
3.84162e-10
5.28141e-10
1.65324e-09
2.04955e-08
2.48994e-09
-4.92543e-10
2.18033e-08
-2.5861e-09
3.7531e-09
1.74319e-08
2.91358e-09
1.43736e-08
2.61165e-09
-1.36939e-09
2.14576e-08
-2.97427e-09
1.85481e-08
-7.14626e-09
7.50042e-08
2.11078e-08
4.45715e-09
2.91885e-09
4.66254e-10
3.2133e-08
-9.78668e-09
-8.33945e-10
-1.22829e-09
2.01387e-08
-1.02585e-09
7.53896e-10
1.61655e-09
1.61509e-08
9.45854e-10
1.72951e-10
1.18426e-08
-1.6992e-09
-1.11383e-09
-3.49642e-10
1.43518e-09
1.27141e-08
2.64764e-09
-1.57077e-09
1.31664e-08
-1.02291e-09
-6.25114e-09
3.49425e-08
-3.56614e-10
2.42495e-08
1.87726e-10
-3.87511e-09
-2.48311e-09
2.41921e-08
-9.2004e-10
6.23131e-11
1.72151e-08
2.87221e-09
-1.25269e-08
1.99154e-08
1.25105e-09
1.36906e-08
1.94753e-09
-2.84489e-09
2.5897e-08
-1.65333e-08
3.36899e-08
-4.14298e-11
3.77038e-08
1.05642e-08
1.04645e-09
3.35179e-09
3.16839e-09
2.34672e-08
9.69518e-10
5.08161e-10
-5.89351e-10
2.33428e-08
2.28855e-10
8.9606e-10
-2.63614e-09
1.82106e-08
1.88445e-10
-1.69884e-09
1.82609e-08
-3.27823e-10
-3.49556e-09
-1.31478e-09
-1.92065e-10
1.93203e-08
-1.25092e-09
1.72821e-09
1.07849e-08
3.38528e-09
1.39645e-09
2.62737e-08
3.02727e-09
2.15103e-08
1.39833e-09
1.14921e-09
2.67581e-09
2.129e-08
-2.30664e-09
-1.9609e-09
2.436e-08
3.03463e-09
2.05199e-09
1.39185e-08
-8.56592e-11
2.08172e-08
-9.7907e-10
-4.55035e-09
3.20079e-08
1.37414e-09
1.96578e-08
5.5375e-10
4.11977e-08
1.68323e-08
-2.21626e-09
-1.59442e-11
2.59495e-09
2.06474e-08
8.77452e-10
4.73606e-10
1.06182e-10
2.16952e-08
1.05193e-09
9.41226e-10
-2.33708e-09
2.18729e-08
-1.79277e-09
-2.37868e-09
2.60541e-08
-3.33994e-09
-1.13339e-09
-1.73469e-09
-5.69718e-09
3.20676e-08
-1.22971e-09
8.39218e-10
9.54691e-09
7.47025e-10
1.36967e-09
2.05902e-08
2.82932e-09
1.34148e-08
3.63449e-09
6.3649e-09
-4.12456e-09
1.32179e-08
-2.11172e-10
-1.00038e-09
3.27757e-08
3.80664e-10
2.59723e-09
1.20991e-08
3.22033e-09
2.05055e-08
3.01362e-10
5.29687e-10
2.11104e-08
-1.34622e-09
1.30681e-08
2.95633e-09
4.06738e-08
2.58287e-08
-2.60523e-09
1.19361e-11
-3.33957e-09
2.69154e-08
3.06198e-10
-3.20465e-09
-1.0584e-09
2.59914e-08
-2.12181e-11
1.85514e-09
3.87549e-10
1.37108e-08
2.71469e-09
-2.19535e-09
3.04863e-08
-2.22122e-09
1.83958e-09
3.25471e-09
1.23383e-09
2.83855e-08
-8.70696e-10
2.46214e-10
1.23677e-08
-1.07669e-09
1.2698e-09
1.9914e-08
7.98759e-10
8.14561e-09
1.1984e-09
1.48361e-09
-1.01976e-09
1.60129e-08
3.23846e-11
-2.5737e-09
3.70468e-08
-2.90515e-10
1.61482e-09
1.2077e-08
1.45493e-09
2.03026e-08
-7.43819e-10
4.72974e-09
1.03665e-08
3.51657e-09
1.6466e-08
-1.24633e-09
5.14107e-08
2.65155e-08
7.41337e-10
1.36803e-09
1.65653e-10
2.44272e-08
7.69681e-10
1.91045e-09
2.56822e-09
2.42505e-08
-1.36982e-09
-9.56686e-10
-7.48219e-11
1.72148e-08
-5.62019e-10
1.5885e-09
2.59958e-08
9.03416e-10
1.04184e-09
2.15944e-09
2.76561e-09
2.37095e-08
9.16242e-10
-1.31528e-09
1.74947e-08
1.92156e-09
1.07611e-09
1.77577e-08
3.85574e-10
9.94599e-09
1.32407e-09
-2.42889e-09
4.23613e-09
2.02369e-08
1.73799e-09
4.94194e-10
3.10708e-08
9.39213e-11
-1.57118e-09
1.63686e-08
-3.43221e-11
1.89917e-08
1.8248e-09
-3.76736e-10
2.17294e-08
-1.41885e-09
2.03944e-08
2.03907e-09
4.3041e-08
2.57158e-08
2.47858e-09
-1.21934e-09
2.46935e-09
2.40184e-08
-2.6978e-09
4.39246e-11
1.67082e-09
2.27876e-08
-1.47113e-09
-1.27854e-09
-6.32263e-10
1.95634e-08
-3.9393e-10
7.99937e-10
2.33646e-08
6.43642e-10
-9.0825e-11
-1.30483e-09
3.99149e-09
2.2974e-08
-1.48004e-09
1.05146e-09
1.82893e-08
-5.22112e-10
-1.16165e-09
1.73292e-08
-9.6305e-10
1.31708e-08
-1.98417e-09
-3.83766e-09
7.357e-09
2.32317e-08
-2.0712e-09
4.17588e-09
2.618e-08
-1.8643e-09
-3.01037e-09
1.80107e-08
-6.2691e-10
1.80975e-08
-1.30603e-09
-1.00967e-08
5.17177e-08
-8.82135e-09
2.45661e-08
-1.24251e-09
2.87307e-08
2.3648e-08
-5.49917e-10
6.54988e-11
-1.09662e-09
2.31063e-08
1.58699e-09
9.05051e-10
6.04052e-11
2.27443e-08
-8.56887e-10
-5.0493e-10
1.42013e-10
2.13608e-08
-5.29375e-10
2.06971e-09
2.21466e-08
-1.1179e-09
-2.38585e-10
1.03559e-09
-3.12556e-09
2.25702e-08
1.14488e-09
-2.89832e-09
2.11384e-08
2.05587e-10
-1.85863e-09
2.02691e-08
-1.47532e-09
1.92408e-08
-2.31945e-09
1.57237e-09
-5.88125e-09
2.38061e-08
2.78422e-09
-1.73465e-09
2.38041e-08
7.74427e-10
-3.09399e-09
2.12556e-08
-2.51639e-09
2.06892e-08
-7.76014e-10
4.30902e-09
2.90074e-08
1.89194e-09
2.43009e-08
1.80327e-09
2.48407e-08
2.30358e-08
7.76346e-10
1.85636e-10
-3.53633e-10
2.26866e-08
5.81343e-10
7.18504e-10
6.59078e-11
2.25822e-08
-4.36687e-10
2.25148e-10
-1.36587e-10
2.20027e-08
-1.1986e-11
1.63346e-10
2.21108e-08
-9.20743e-12
1.06843e-10
4.3448e-10
-1.04514e-09
2.25217e-08
6.39039e-10
-1.12218e-09
2.21221e-08
1.94534e-10
-1.03512e-09
2.16122e-08
-9.08292e-10
2.13346e-08
-8.27571e-10
4.79245e-10
-1.30726e-09
2.32417e-08
9.55018e-10
-7.91629e-10
2.29976e-08
3.65775e-10
-1.34285e-09
2.21525e-08
-1.28284e-09
2.18272e-08
-3.97587e-10
4.34203e-10
2.43393e-08
3.21495e-10
2.34365e-08
5.20099e-10
2.32383e-08
2.27152e-08
1.58702e-11
1.13642e-10
-2.70198e-10
2.25788e-08
4.62745e-10
2.68972e-10
-4.24888e-11
2.25615e-08
-9.1924e-11
-2.57416e-11
-1.07018e-10
2.23136e-08
9.107e-11
1.04496e-10
2.2287e-08
-1.12507e-10
-1.93646e-10
1.90505e-10
-4.67897e-10
2.25571e-08
2.85987e-10
-4.61198e-10
2.24455e-08
8.2747e-12
-4.49631e-10
2.22328e-08
-3.18114e-10
2.21492e-08
-3.83576e-10
2.09929e-10
-3.93617e-10
2.28429e-08
3.84078e-10
-3.78136e-10
2.27406e-08
1.49337e-10
-5.26628e-10
2.24644e-08
-5.13223e-10
2.23341e-08
-1.62217e-10
7.1091e-11
2.30796e-08
1.81149e-10
2.29363e-08
1.67447e-10
2.27958e-08
2.26566e-08
-4.07552e-11
8.37809e-11
-1.63667e-10
2.25374e-08
2.70919e-10
1.67188e-10
-7.32872e-11
2.25329e-08
1.86103e-11
5.13276e-11
-1.36643e-10
2.24146e-08
1.51777e-10
-8.4117e-11
2.23684e-08
8.86254e-11
-3.43567e-11
9.54258e-11
-1.95178e-10
2.25596e-08
1.3982e-10
-1.97335e-10
2.25254e-08
2.05484e-11
-2.20042e-10
2.24357e-08
-1.78704e-10
2.23937e-08
-1.29158e-10
8.75869e-11
-1.20978e-10
2.26669e-08
1.50945e-10
-1.54527e-10
2.26346e-08
6.24511e-11
-2.05317e-10
2.25382e-08
-2.05447e-10
2.24846e-08
-6.11841e-11
1.45885e-11
2.27245e-08
8.46344e-11
2.27088e-08
5.26315e-11
2.26511e-08
2.26062e-08
-4.03391e-11
5.14726e-11
-9.60277e-11
2.25318e-08
1.53022e-10
7.74074e-11
-5.65206e-11
2.25275e-08
3.60986e-11
1.50736e-11
-8.89389e-11
2.24636e-08
1.02348e-10
-6.02558e-11
2.2416e-08
5.80131e-11
-3.01471e-11
5.31162e-11
-8.67723e-11
2.25601e-08
6.32659e-11
-8.82679e-11
2.25472e-08
7.33236e-12
-1.02676e-10
2.25054e-08
-7.90127e-11
2.24757e-08
-5.58733e-11
4.44539e-11
-4.5274e-11
2.26025e-08
6.30126e-11
-6.42704e-11
2.25922e-08
2.45103e-11
-8.16656e-11
2.25558e-08
-7.60645e-11
2.2528e-08
-2.1745e-11
1.5513e-11
2.26193e-08
4.07375e-11
2.26205e-08
2.2658e-11
2.25983e-08
2.25772e-08
-1.55652e-11
3.57297e-11
-5.60718e-11
2.25345e-08
8.45572e-11
4.29704e-11
-4.00627e-11
2.25276e-08
3.2798e-11
1.1421e-11
-5.59524e-11
2.24865e-08
6.46332e-11
-4.28357e-11
2.24363e-08
4.44465e-11
-1.0433e-11
3.56278e-11
-4.33506e-11
2.25598e-08
3.54943e-11
-4.46678e-11
2.2552e-08
8.18306e-12
-5.16033e-11
2.25284e-08
-3.93963e-11
2.25006e-08
-2.01598e-11
3.07099e-11
-2.21136e-11
2.25794e-08
3.39727e-11
-2.9784e-11
2.25742e-08
1.59131e-11
-3.50617e-11
2.25573e-08
-2.89773e-11
2.25365e-08
-2.93526e-12
1.95302e-11
2.25862e-08
2.70374e-11
2.25864e-08
1.72201e-11
2.25757e-08
2.25598e-08
5.04196e-13
2.67333e-11
-3.26219e-11
2.25388e-08
4.57128e-11
2.66908e-11
-2.63847e-11
2.25298e-08
2.421e-11
9.59052e-12
-3.29329e-11
2.24988e-08
3.77479e-11
-2.64749e-11
2.24461e-08
2.81973e-11
-1.94223e-12
2.6648e-11
-2.42014e-11
2.25602e-08
2.32899e-11
-2.45528e-11
2.25536e-08
8.67631e-12
-2.67823e-11
2.25369e-08
-2.01683e-11
2.25082e-08
-5.21871e-12
2.44951e-11
-1.32417e-11
2.25714e-08
2.28275e-11
-1.56742e-11
2.25671e-08
1.3346e-11
-1.64048e-11
2.25565e-08
-1.1873e-11
2.2537e-08
4.5933e-12
2.05689e-11
2.25752e-08
2.14481e-11
2.25734e-08
1.56423e-11
2.25661e-08
2.25508e-08
6.96155e-12
2.06252e-11
-1.91064e-11
2.25425e-08
2.49182e-11
1.83173e-11
-1.66199e-11
2.25327e-08
1.61252e-11
8.88932e-12
-1.87481e-11
2.25059e-08
2.11661e-11
-1.55763e-11
2.24517e-08
1.71611e-11
1.84309e-12
2.06383e-11
-1.42497e-11
2.2561e-08
1.71208e-11
-1.42855e-11
2.25549e-08
9.10154e-12
-1.45139e-11
2.25408e-08
-1.07722e-11
2.2511e-08
1.50364e-12
1.98995e-11
-8.72103e-12
2.25687e-08
1.73727e-11
-9.18796e-12
2.25648e-08
1.18799e-11
-8.5315e-12
2.25561e-08
-5.39272e-12
2.25367e-08
6.88357e-12
1.87892e-11
2.25713e-08
1.77195e-11
2.25687e-08
1.39109e-11
2.25623e-08
2.25469e-08
8.87548e-12
1.59099e-11
-1.14047e-11
2.25452e-08
1.37951e-11
1.33177e-11
-1.03876e-11
2.25353e-08
1.04443e-11
7.97961e-12
-1.06133e-11
2.25103e-08
1.16385e-11
-8.81895e-12
2.24552e-08
9.91206e-12
3.36136e-12
1.60245e-11
-8.81933e-12
2.25619e-08
1.31731e-11
-8.66449e-12
2.25562e-08
8.58745e-12
-8.22597e-12
2.25431e-08
-6.02305e-12
2.25127e-08
4.10559e-12
1.59148e-11
-5.95743e-12
2.25681e-08
1.37086e-11
-5.84801e-12
2.25644e-08
1.02443e-11
-4.96399e-12
2.25564e-08
-2.89752e-12
2.2537e-08
6.94964e-12
1.58063e-11
2.25701e-08
1.441e-11
2.25673e-08
1.17603e-11
2.25612e-08
2.25458e-08
8.51293e-12
1.20747e-11
-6.93756e-12
2.25471e-08
7.8668e-12
9.96138e-12
-6.39404e-12
2.25374e-08
6.47741e-12
6.80108e-12
-6.13922e-12
2.25132e-08
6.47726e-12
-5.00151e-12
2.24579e-08
5.66162e-12
3.60493e-12
1.22742e-11
-5.62805e-12
2.25627e-08
1.02142e-11
-5.39541e-12
2.25574e-08
7.39029e-12
-4.87299e-12
2.25447e-08
-3.49048e-12
2.25142e-08
4.50614e-12
1.24171e-11
-4.16827e-12
2.25681e-08
1.07398e-11
-3.90214e-12
2.25647e-08
8.44186e-12
-3.17624e-12
2.25571e-08
-1.84521e-12
2.25377e-08
6.17583e-12
1.26001e-11
2.25699e-08
1.1366e-11
2.25672e-08
9.46725e-12
2.25613e-08
2.2546e-08
7.22911e-12
8.98195e-12
-4.26749e-12
2.25484e-08
4.59619e-12
7.45909e-12
-3.90188e-12
2.2539e-08
3.90191e-12
5.45997e-12
-3.56622e-12
2.25152e-08
3.63734e-12
-2.84561e-12
2.24597e-08
3.18376e-12
3.29941e-12
9.20297e-12
-3.63222e-12
2.25634e-08
7.78723e-12
-3.39788e-12
2.25584e-08
5.98195e-12
-2.9761e-12
2.2546e-08
-2.12527e-12
2.25154e-08
4.0663e-12
9.39729e-12
-2.89863e-12
2.25684e-08
8.1948e-12
-2.65432e-12
2.25652e-08
6.6412e-12
-2.15414e-12
2.25579e-08
-1.32662e-12
2.25385e-08
5.04568e-12
9.61215e-12
2.257e-08
8.64029e-12
2.25674e-08
7.28193e-12
2.25619e-08
2.25467e-08
5.71373e-12
6.51882e-12
-2.60793e-12
2.25492e-08
2.70936e-12
5.47518e-12
-2.36049e-12
2.25401e-08
2.33324e-12
4.18385e-12
-2.08255e-12
2.25165e-08
2.05013e-12
-1.62733e-12
2.24611e-08
1.75787e-12
2.72469e-12
6.69698e-12
-2.30597e-12
2.25639e-08
5.74904e-12
-2.13334e-12
2.25591e-08
4.58242e-12
-1.85171e-12
2.25469e-08
-1.35207e-12
2.25164e-08
3.31015e-12
6.85297e-12
-1.94095e-12
2.25686e-08
6.0191e-12
-1.79153e-12
2.25657e-08
4.97052e-12
-1.489e-12
2.25586e-08
-1.0017e-12
2.25393e-08
3.8517e-12
6.99997e-12
2.25701e-08
6.29031e-12
2.25677e-08
5.34124e-12
2.25624e-08
2.25474e-08
4.25585e-12
4.55247e-12
-1.53803e-12
2.25497e-08
1.56376e-12
3.87454e-12
-1.38476e-12
2.25408e-08
1.33807e-12
3.04262e-12
-1.20337e-12
2.25174e-08
1.14351e-12
-9.30977e-13
2.2462e-08
9.59552e-13
2.06464e-12
4.66919e-12
-1.39963e-12
2.25641e-08
4.05303e-12
-1.30178e-12
2.25596e-08
3.30369e-12
-1.14304e-12
2.25476e-08
-8.66976e-13
2.25171e-08
2.44865e-12
4.76117e-12
-1.20119e-12
2.25687e-08
4.20428e-12
-1.16514e-12
2.2566e-08
3.51385e-12
-1.00591e-12
2.25591e-08
-7.34546e-13
2.25399e-08
2.75301e-12
4.84177e-12
2.257e-08
4.35e-12
2.25679e-08
3.7079e-12
2.25628e-08
2.2548e-08
2.98431e-12
3.00801e-12
-8.11467e-13
2.25499e-08
8.24146e-13
2.59354e-12
-7.2744e-13
2.25412e-08
6.84189e-13
2.07805e-12
-6.30424e-13
2.25179e-08
5.68381e-13
-4.83051e-13
2.24626e-08
4.57128e-13
1.45548e-12
3.07247e-12
-7.54368e-13
2.25642e-08
2.69273e-12
-7.09889e-13
2.25599e-08
2.23091e-12
-6.37597e-13
2.2548e-08
-5.03507e-13
2.25176e-08
1.6802e-12
3.11488e-12
-6.57498e-13
2.25686e-08
2.76094e-12
-6.6816e-13
2.25661e-08
2.32841e-12
-5.98167e-13
2.25594e-08
-4.69073e-13
2.25404e-08
1.84188e-12
3.14372e-12
2.25699e-08
2.8261e-12
2.2568e-08
2.41771e-12
2.25631e-08
2.25484e-08
1.95958e-12
1.92507e-12
-2.14556e-13
2.25499e-08
2.40278e-13
1.70292e-12
-1.76382e-13
2.25413e-08
1.59728e-13
1.41085e-12
-1.32376e-13
2.25182e-08
9.7528e-14
-7.35115e-14
2.24629e-08
4.43596e-14
1.05055e-12
1.95683e-12
-1.87472e-13
2.25642e-08
1.74883e-12
-1.72417e-13
2.256e-08
1.48599e-12
-1.48822e-13
2.25482e-08
-1.01412e-13
2.25179e-08
1.1567e-12
1.9704e-12
-1.50118e-13
2.25686e-08
1.76982e-12
-1.66587e-13
2.25662e-08
1.51955e-12
-1.46296e-13
2.25595e-08
-1.00997e-13
2.25406e-08
1.22696e-12
1.97063e-12
2.25698e-08
1.78852e-12
2.25681e-08
1.54732e-12
2.25632e-08
2.25487e-08
1.27093e-12
1.49174e-12
3.4641e-13
-2.91881e-13
1.39639e-12
3.80299e-13
-3.49771e-13
1.23877e-12
4.10994e-13
-3.96526e-13
4.37207e-13
-4.14115e-13
1.0177e-12
1.52168e-12
3.83397e-13
1.42756e-12
3.96164e-13
1.27529e-12
4.07713e-13
4.22279e-13
1.06488e-12
1.53508e-12
3.94663e-13
1.43936e-12
3.9119e-13
1.28895e-12
3.92784e-13
3.9857e-13
1.08847e-12
1.5322e-12
1.43867e-12
1.28763e-12
1.09096e-12
-1.53228e-09
-3.15568e-09
4.1106e-08
7.46124e-10
4.3258e-09
2.41414e-08
1.96403e-09
7.01297e-09
1.87718e-08
-3.31099e-09
2.55565e-08
1.36465e-09
1.98174e-09
2.46772e-09
2.15406e-08
2.72703e-09
-4.66955e-09
3.58361e-08
3.65791e-10
-2.76303e-09
3.58728e-08
-1.12022e-09
1.63457e-08
6.8796e-10
-2.23346e-09
7.25549e-10
3.01878e-08
3.12794e-09
1.54473e-09
1.30627e-08
5.53754e-10
-3.80698e-09
2.47215e-08
-5.11834e-09
2.04487e-08
2.38853e-10
-2.84763e-09
2.99664e-08
6.34118e-10
1.95392e-08
-4.64586e-10
1.67126e-08
6.83259e-09
1.17598e-09
4.25937e-09
5.63182e-09
2.39003e-08
1.89661e-10
-3.47219e-09
3.19453e-08
1.07259e-09
-5.01441e-09
2.3012e-08
-2.59852e-09
3.04858e-08
-1.21064e-09
-5.81446e-12
1.64789e-09
2.14869e-08
-9.26268e-10
3.00196e-09
3.02823e-08
1.60816e-09
1.31129e-09
2.70127e-08
-2.59039e-09
1.81211e-08
-1.75369e-10
9.53225e-10
8.58745e-10
2.97685e-08
-1.87554e-09
-5.34699e-10
1.94281e-08
8.49052e-10
-3.64725e-11
2.33447e-08
6.18297e-09
1.03406e-08
2.18387e-09
-8.76056e-10
2.5269e-08
-9.87384e-10
2.031e-08
3.51352e-09
1.06548e-08
1.89256e-08
2.78858e-10
2.54604e-09
2.7184e-09
1.36047e-08
1.56471e-10
-1.30825e-09
3.5776e-08
5.85676e-10
2.2528e-10
2.24788e-08
-2.33241e-09
3.3618e-08
-1.21182e-10
7.8972e-10
4.73356e-09
1.7277e-08
9.25082e-10
1.38814e-09
2.74506e-08
2.26186e-11
7.06443e-10
2.7434e-08
-3.30607e-12
1.57671e-08
4.75364e-11
-1.46649e-09
4.25473e-09
3.20619e-08
5.0704e-10
9.46265e-10
1.78965e-08
-5.59023e-11
2.24087e-09
2.23732e-08
1.8983e-09
8.1234e-09
2.59653e-10
7.55583e-10
1.61384e-08
1.88613e-09
1.90998e-08
-1.01782e-09
1.67455e-08
1.81634e-08
-5.64817e-11
1.69599e-09
1.66359e-09
6.9584e-09
7.23414e-10
-1.4641e-09
3.83057e-08
-9.87549e-10
-3.31891e-09
2.76537e-08
-2.07931e-09
3.54813e-08
-5.026e-10
-7.28949e-10
-5.50153e-10
2.12101e-08
-3.76845e-10
4.03086e-10
2.52313e-08
-1.68258e-10
2.39315e-09
2.15133e-08
2.32268e-09
1.1011e-08
1.85837e-10
-1.04427e-09
-3.05662e-09
3.69781e-08
4.89811e-10
7.77223e-10
1.59882e-08
4.46162e-10
1.82458e-10
2.46275e-08
-1.92446e-10
1.16604e-08
-5.75669e-10
5.98753e-10
1.45091e-08
5.58503e-12
2.06991e-08
5.27665e-10
1.65943e-08
1.97715e-08
-1.60078e-09
-1.02799e-09
5.8038e-09
3.64199e-09
-1.42814e-09
1.97982e-09
3.69532e-08
5.99688e-11
2.00698e-09
2.43202e-08
5.60766e-09
2.74586e-08
2.65264e-09
-4.50588e-09
-9.7873e-09
4.70815e-08
-8.83044e-10
1.54897e-09
2.20393e-08
6.77638e-10
9.57905e-10
2.10017e-08
3.8587e-10
1.69311e-08
-2.06269e-11
8.31139e-10
8.95664e-10
2.4881e-08
-1.86844e-09
-1.28926e-09
2.1526e-08
6.05965e-10
-5.94065e-10
2.37051e-08
5.15576e-10
1.26383e-08
-5.01643e-10
-4.53355e-10
1.55956e-08
-1.96026e-09
2.19686e-08
2.01594e-09
1.02313e-08
1.91609e-08
-1.97839e-10
-5.69531e-09
1.15048e-08
5.99987e-09
3.26187e-10
9.75563e-09
2.18349e-08
1.59111e-09
2.3115e-09
2.06786e-08
-8.99488e-10
2.82517e-08
1.78998e-09
-1.38323e-09
7.18103e-09
5.7201e-08
-2.24017e-09
3.46106e-09
2.91907e-08
1.22731e-09
5.45662e-09
1.43891e-08
6.11243e-09
9.86199e-09
1.28447e-09
-1.68393e-10
1.7073e-09
3.04473e-08
-1.79043e-09
8.57407e-11
2.65233e-08
9.27393e-10
2.39153e-09
2.40523e-08
-1.85584e-09
2.17842e-08
-2.50313e-10
-9.86681e-10
2.37879e-08
-2.97329e-10
2.13438e-08
-1.7082e-09
1.67484e-08
1.21045e-08
1.27118e-09
1.07396e-08
-9.39414e-09
1.62611e-08
-1.08864e-09
3.92026e-09
2.8708e-08
-9.35819e-10
4.29043e-10
2.04013e-08
1.5325e-09
2.55329e-08
1.29002e-10
3.61391e-09
-8.54791e-10
4.64985e-08
6.51136e-10
3.34366e-09
3.273e-08
6.77606e-11
-7.90152e-10
1.61918e-08
-2.10513e-09
1.38336e-08
-2.66305e-10
8.23628e-11
-2.58387e-10
2.95266e-08
3.18366e-11
1.20568e-09
2.87122e-08
2.69667e-12
1.24273e-09
2.20486e-08
6.36003e-10
1.87702e-08
2.75505e-10
-1.0139e-10
2.55843e-08
-6.91889e-10
2.17702e-08
-4.57691e-10
1.71949e-08
1.31945e-08
-8.38763e-12
2.11615e-08
3.41742e-08
-5.81482e-08
4.77492e-09
6.40595e-09
3.86889e-08
-4.35809e-10
-4.2049e-11
2.56542e-08
7.00778e-10
2.51915e-08
-7.95102e-10
9.23992e-09
1.68446e-08
4.29008e-08
4.31102e-09
5.27629e-09
3.87889e-08
2.00514e-10
-6.75046e-10
2.09353e-08
-1.43826e-09
1.69781e-08
-8.04768e-10
2.16783e-09
6.33808e-09
3.38098e-08
1.72735e-09
3.1291e-09
3.12999e-08
-2.34727e-10
5.98602e-10
2.2737e-08
1.88078e-10
1.70933e-08
-1.83943e-10
2.87471e-10
2.57519e-08
5.06015e-10
2.32096e-08
-1.90441e-10
1.80962e-08
1.42034e-08
-3.68005e-10
-1.39641e-08
-3.79661e-08
1.02469e-08
-4.41651e-09
-2.22256e-09
3.13637e-08
-1.87626e-09
-1.09644e-09
2.42104e-08
2.31112e-09
2.16127e-08
-6.08564e-10
-5.48072e-09
-1.34231e-08
2.78124e-08
-5.36471e-10
3.74343e-10
3.12478e-08
-1.02425e-09
-2.16184e-09
2.24883e-08
4.26993e-10
1.84093e-08
-5.71317e-10
-2.37435e-09
-3.9435e-09
2.82138e-08
6.59975e-11
1.58039e-09
2.7653e-08
-5.79895e-10
-1.1678e-10
2.1338e-08
7.66752e-10
1.62074e-08
-3.37429e-11
-7.86838e-10
2.47206e-08
2.76113e-10
2.28703e-08
-3.60287e-10
1.80865e-08
1.32859e-08
2.05858e-10
-2.50286e-09
-7.9844e-09
2.40181e-08
-7.10962e-10
-1.13289e-09
3.07048e-08
-4.53022e-10
-1.23064e-09
2.51832e-08
-3.80267e-11
2.16075e-08
-4.09787e-10
-1.54326e-09
-4.67723e-09
2.7284e-08
2.1573e-10
-2.23242e-10
2.85791e-08
-2.09806e-10
-1.26625e-09
2.29496e-08
-2.05247e-10
1.8702e-08
-3.35253e-10
-6.00149e-10
-1.75018e-09
2.64932e-08
6.14595e-10
4.90827e-10
2.57245e-08
6.65653e-11
-3.31093e-10
2.0951e-08
1.99593e-12
1.61889e-08
-1.22175e-10
2.4338e-11
2.38258e-08
6.9539e-10
2.22536e-08
1.94767e-10
1.82441e-08
1.34672e-08
6.25439e-12
-1.03013e-09
-2.56936e-09
2.90221e-08
-3.55782e-10
-2.06369e-10
3.02371e-08
-4.00211e-10
-3.40886e-10
2.55687e-08
2.77879e-10
2.1138e-08
-2.08415e-10
-7.40755e-10
-2.06624e-09
2.83471e-08
-9.44876e-11
-1.82384e-10
2.79092e-08
-3.45965e-10
-5.55822e-10
2.34162e-08
1.12491e-10
1.86965e-08
-1.74903e-10
-3.58187e-10
-1.07037e-09
2.6402e-08
2.76646e-11
3.13e-11
2.51253e-08
-2.46621e-10
-3.18019e-10
2.09877e-08
7.35669e-11
1.60799e-08
-9.87009e-11
-5.54219e-11
2.36426e-08
1.17266e-10
2.20206e-08
-1.28289e-10
1.82629e-08
1.33529e-08
-5.29106e-11
-3.16696e-10
-9.743e-10
3.08721e-08
-5.78122e-11
-1.50183e-10
3.01286e-08
-1.27179e-10
-2.8252e-10
2.59208e-08
-2.3417e-11
2.11442e-08
-1.09848e-10
-2.40803e-10
-8.91883e-10
2.89124e-08
6.93449e-12
-1.35716e-10
2.76473e-08
-1.22777e-10
-3.22794e-10
2.35864e-08
-3.62372e-11
1.86838e-08
-9.71271e-11
-9.66291e-11
-5.36024e-10
2.64484e-08
6.33799e-11
-4.83249e-11
2.48781e-08
-8.05678e-11
-2.40925e-10
2.105e-08
-5.71089e-11
1.60931e-08
-7.28069e-11
1.94844e-11
2.35862e-08
1.07826e-10
2.19028e-08
-4.03814e-11
1.83222e-08
1.33994e-08
-5.54796e-11
-1.01718e-10
-3.57542e-10
3.1585e-08
-1.7277e-11
-5.05167e-11
3.00949e-08
-7.5469e-11
-1.20447e-10
2.60995e-08
1.0578e-11
2.11132e-08
-5.49564e-11
-8.26757e-11
-3.80323e-10
2.923e-08
-2.25027e-13
-6.90609e-11
2.75835e-08
-7.95419e-11
-1.65822e-10
2.37111e-08
-1.47247e-11
1.86817e-08
-5.21181e-11
-2.83011e-11
-2.66177e-10
2.65377e-08
1.93232e-11
-5.21895e-11
2.48138e-08
-6.34721e-11
-1.45621e-10
2.11128e-08
-4.05528e-11
1.61e-08
-4.44954e-11
1.75762e-11
2.35962e-08
3.43323e-11
2.18701e-08
-4.38898e-11
1.83573e-08
1.34128e-08
-3.99367e-11
-2.25299e-11
-1.45731e-10
3.18803e-08
3.25152e-12
-2.34463e-11
3.00927e-08
-3.1758e-11
-6.56249e-11
2.62002e-08
-4.92355e-12
2.11128e-08
-2.65055e-11
-1.95203e-11
-1.70415e-10
2.9389e-08
7.01933e-12
-3.96963e-11
2.75733e-08
-3.73245e-11
-9.07596e-11
2.37806e-08
-1.85905e-11
1.86851e-08
-2.70123e-11
2.31052e-13
-1.33438e-10
2.66009e-08
1.35707e-11
-3.93745e-11
2.48002e-08
-3.27058e-11
-8.52052e-11
2.11536e-08
-3.35699e-11
1.61071e-08
-2.4786e-11
1.82367e-11
2.36141e-08
1.84402e-11
2.18635e-08
-2.51043e-11
1.83803e-08
1.34225e-08
-2.41132e-11
2.59667e-12
-6.35417e-11
3.20112e-08
9.29155e-12
-1.28608e-11
3.00989e-08
-1.30565e-11
-3.39005e-11
2.62564e-08
-4.48229e-12
2.11156e-08
-1.13829e-11
2.22687e-12
-7.97073e-11
2.94686e-08
9.07531e-12
-2.34373e-11
2.75771e-08
-1.69817e-11
-4.83576e-11
2.38212e-08
-1.31053e-11
1.86895e-08
-1.27511e-11
8.84586e-12
-6.76601e-11
2.66394e-08
1.04912e-11
-2.648e-11
2.48016e-08
-1.59121e-11
-4.74312e-11
2.11791e-08
-2.23873e-11
1.61127e-08
-1.22786e-11
1.55146e-11
2.36291e-08
1.19541e-11
2.18648e-08
-1.23474e-11
1.83949e-08
1.34286e-08
-1.27208e-11
8.61735e-12
-2.89035e-11
3.20723e-08
9.95213e-12
-8.28146e-12
3.01059e-08
-3.594e-12
-1.75565e-11
2.62875e-08
-4.01506e-12
2.11194e-08
-3.37328e-12
8.33476e-12
-3.85429e-11
2.95089e-08
8.5546e-12
-1.46452e-11
2.75833e-08
-6.45941e-12
-2.55608e-11
2.38442e-08
-9.50481e-12
1.86933e-08
-4.7156e-12
1.00379e-11
-3.45389e-11
2.66616e-08
8.4898e-12
-1.76276e-11
2.48062e-08
-6.22159e-12
-2.59297e-11
2.11943e-08
-1.4663e-11
1.61168e-08
-5.18312e-12
1.4171e-11
2.36388e-08
9.11737e-12
2.18685e-08
-4.55335e-12
1.84039e-08
1.34325e-08
-6.04818e-12
9.23983e-12
-1.37073e-11
3.21018e-08
8.72502e-12
-5.48614e-12
3.0112e-08
7.49538e-13
-9.1469e-12
2.63047e-08
-2.89482e-12
2.11231e-08
-7.54573e-14
8.57124e-12
-1.89913e-11
2.95297e-08
7.3311e-12
-9.7134e-12
2.75889e-08
-1.17663e-12
-1.36544e-11
2.38572e-08
-6.34874e-12
1.86967e-08
-1.14187e-12
9.91278e-12
-1.79952e-11
2.66738e-08
7.06642e-12
-1.14562e-11
2.48109e-08
-1.24285e-12
-1.42363e-11
2.12032e-08
-9.09595e-12
1.612e-08
-1.70904e-12
1.19552e-11
2.36449e-08
7.63257e-12
2.18719e-08
-4.66303e-13
1.84095e-08
1.34352e-08
-2.44594e-12
8.21532e-12
-6.68691e-12
3.21163e-08
6.8338e-12
-3.66983e-12
3.01171e-08
2.53909e-12
-5.00737e-12
2.6314e-08
-1.9189e-12
2.11264e-08
1.17435e-12
7.96418e-12
-9.73307e-12
2.95404e-08
6.03815e-12
-6.30785e-12
2.75935e-08
1.1104e-12
-7.44249e-12
2.38646e-08
-4.03374e-12
1.86996e-08
3.83429e-13
8.47457e-12
-9.73762e-12
2.66806e-08
5.76183e-12
-7.35403e-12
2.48147e-08
9.6843e-13
-7.89731e-12
2.12086e-08
-5.4926e-12
1.61225e-08
-4.79051e-14
9.6493e-12
2.36486e-08
6.06484e-12
2.18747e-08
1.26068e-12
1.84129e-08
1.34372e-08
-5.60527e-13
6.75062e-12
-3.447e-12
3.21236e-08
5.24674e-12
-2.35618e-12
3.0121e-08
2.56443e-12
-2.63084e-12
2.63193e-08
-1.3458e-12
2.11288e-08
1.454e-12
6.41253e-12
-5.18682e-12
2.9546e-08
4.63276e-12
-4.02078e-12
2.7597e-08
1.87923e-12
-4.14468e-12
2.38689e-08
-2.52607e-12
1.87017e-08
9.20465e-13
6.74973e-12
-5.40526e-12
2.66844e-08
4.48208e-12
-4.56262e-12
2.48176e-08
1.68372e-12
-4.49283e-12
2.12117e-08
-3.28543e-12
1.61243e-08
6.25429e-13
7.48212e-12
2.36508e-08
4.7901e-12
2.18768e-08
1.7751e-12
1.84151e-08
1.34386e-08
2.60359e-13
5.1744e-12
-1.84141e-12
3.21274e-08
3.911e-12
-1.46186e-12
3.01238e-08
2.2617e-12
-1.43892e-12
2.63224e-08
-8.85791e-13
2.11306e-08
1.35899e-12
4.92686e-12
-2.86158e-12
2.95491e-08
3.50286e-12
-2.46535e-12
2.75995e-08
1.86659e-12
-2.35984e-12
2.38714e-08
-1.56904e-12
1.87033e-08
9.89135e-13
5.11425e-12
-3.0824e-12
2.66866e-08
3.45164e-12
-2.76001e-12
2.48196e-08
1.74972e-12
-2.60563e-12
2.12137e-08
-1.92959e-12
1.61255e-08
7.95303e-13
5.55345e-12
2.36522e-08
3.69286e-12
2.18783e-08
1.71491e-12
1.84165e-08
1.34396e-08
5.22745e-13
3.73313e-12
-9.9877e-13
3.21294e-08
2.82905e-12
-8.711e-13
3.01255e-08
1.8068e-12
-8.1426e-13
2.63242e-08
-5.34666e-13
2.11318e-08
1.10194e-12
3.56589e-12
-1.59115e-12
2.95508e-08
2.57024e-12
-1.46093e-12
2.76011e-08
1.51131e-12
-1.34717e-12
2.38729e-08
-9.45929e-13
1.87043e-08
8.3986e-13
3.67137e-12
-1.74025e-12
2.66878e-08
2.54812e-12
-1.61315e-12
2.48208e-08
1.4267e-12
-1.47673e-12
2.12149e-08
-1.13699e-12
1.61264e-08
7.12036e-13
3.9371e-12
2.3653e-08
2.70909e-12
2.18792e-08
1.42619e-12
1.84174e-08
1.34402e-08
5.21656e-13
2.52709e-12
-5.13732e-13
3.21304e-08
1.95072e-12
-4.7696e-13
3.01266e-08
1.32424e-12
-4.41862e-13
2.63253e-08
-2.99159e-13
2.11326e-08
8.12075e-13
2.42696e-12
-8.33222e-13
2.95517e-08
1.79964e-12
-7.98323e-13
2.7602e-08
1.12806e-12
-7.28994e-13
2.38738e-08
-5.40085e-13
1.87049e-08
6.53676e-13
2.48642e-12
-9.08434e-13
2.66885e-08
1.7868e-12
-8.598e-13
2.48215e-08
1.07361e-12
-7.79409e-13
2.12156e-08
-6.11898e-13
1.61269e-08
5.44376e-13
2.64162e-12
2.36534e-08
1.88358e-12
2.18797e-08
1.07565e-12
1.84179e-08
1.34406e-08
4.18108e-13
1.64538e-12
-1.88323e-13
3.21308e-08
1.32858e-12
-1.90608e-13
3.01271e-08
9.57087e-13
-1.78649e-13
2.63258e-08
-1.24079e-13
2.1133e-08
6.17796e-13
1.59894e-12
-2.95599e-13
2.9552e-08
1.24898e-12
-3.0437e-13
2.76024e-08
8.60524e-13
-2.8446e-13
2.38743e-08
-1.98027e-13
1.87053e-08
5.29637e-13
1.64898e-12
-2.98008e-13
2.66887e-08
1.2612e-12
-2.90968e-13
2.48219e-08
8.3432e-13
-2.59023e-13
2.12159e-08
-1.84192e-13
1.61272e-08
4.86532e-13
1.74268e-12
2.36535e-08
1.32565e-12
2.18799e-08
8.43951e-13
1.84182e-08
1.34409e-08
4.15277e-13
1.27303e-12
5.49332e-14
1.12667e-12
4.31301e-14
8.90175e-13
3.77136e-14
4.38896e-14
6.28725e-13
1.28208e-12
1.36101e-13
1.11812e-12
1.12389e-13
8.69995e-13
9.75044e-14
1.08577e-13
6.05041e-13
1.34029e-12
2.18025e-13
1.15866e-12
2.14157e-13
8.85738e-13
2.16728e-13
2.22418e-13
6.04565e-13
1.41646e-12
1.22291e-12
9.24707e-13
6.07169e-13
3.90393e-09
2.75914e-10
1.4957e-08
2.81543e-09
-7.87585e-10
1.82192e-08
7.60825e-09
4.46195e-11
1.47527e-08
1.9284e-09
2.87463e-08
3.57987e-10
1.22909e-09
1.68781e-08
1.76228e-09
3.49016e-09
1.52913e-08
4.723e-09
2.76669e-09
1.81547e-08
-1.07993e-09
3.38336e-08
4.42078e-09
-1.08774e-10
1.48758e-08
3.84719e-09
-1.23768e-09
3.03934e-08
1.73449e-10
-7.12009e-10
3.50064e-08
1.38534e-12
2.98245e-08
2.42256e-09
1.19061e-08
4.92042e-09
2.33341e-08
1.42374e-09
3.23886e-08
3.29726e-08
-7.88434e-11
-1.76531e-10
1.69326e-08
-3.09502e-09
2.15366e-09
2.12656e-08
-1.13615e-09
3.34029e-09
9.27821e-09
3.92997e-09
2.25266e-08
1.72703e-09
3.37474e-10
1.50212e-08
9.90311e-10
-1.26339e-09
1.94451e-08
-1.4608e-09
-1.24075e-09
2.51868e-08
-5.40257e-10
3.68468e-08
-1.40941e-10
2.13723e-09
1.58286e-08
9.44279e-10
-5.58144e-10
2.86029e-08
2.36766e-10
-1.1447e-09
3.56178e-08
2.87525e-09
2.66342e-08
-2.68846e-09
2.54519e-08
-1.02127e-10
2.05157e-08
6.86491e-09
2.06149e-08
4.51218e-08
-1.28305e-09
-3.33059e-10
1.73784e-08
-2.17771e-10
9.1611e-10
1.95439e-08
1.38941e-09
5.34641e-10
7.18393e-09
-1.54687e-09
2.53183e-08
8.6209e-10
1.54463e-09
1.24692e-08
1.56788e-09
-1.16577e-11
1.96671e-08
-4.77141e-09
9.96179e-10
3.10645e-08
4.80378e-09
2.57638e-08
-1.1213e-09
1.84618e-09
1.85959e-08
4.55602e-09
3.15316e-09
1.97608e-08
8.72426e-09
1.25244e-09
3.11933e-08
3.66555e-10
3.9756e-08
1.99133e-09
2.84625e-08
6.07765e-10
2.42842e-08
9.45681e-09
1.41981e-08
5.90872e-08
5.16944e-09
1.47245e-09
5.64015e-09
7.42208e-10
1.16815e-09
2.22273e-08
-1.20108e-09
2.65927e-09
6.65378e-09
2.2406e-09
2.14411e-08
5.94807e-10
7.53521e-10
1.39916e-08
5.2926e-09
1.02868e-09
1.51087e-08
4.34528e-10
4.5114e-09
3.40705e-08
2.49888e-10
2.8188e-08
9.11198e-10
-1.35283e-09
1.8812e-08
2.24267e-09
-3.09009e-10
1.9767e-08
-1.7557e-09
8.28824e-10
3.88743e-08
4.39006e-09
3.38882e-08
1.39058e-09
2.2067e-08
2.60473e-09
2.27483e-08
4.14061e-10
1.95684e-08
6.9378e-08
-2.61711e-10
1.07641e-09
3.49422e-09
1.83479e-09
1.37794e-09
1.82512e-08
4.06544e-09
-4.1193e-11
4.4437e-09
-2.99811e-09
3.12196e-08
-3.50486e-10
-3.79255e-10
1.94323e-08
-9.08714e-10
-9.7974e-10
1.80246e-08
-1.45494e-09
-1.07317e-09
3.56487e-08
-2.6017e-09
2.64804e-08
-1.32098e-09
-3.31942e-10
2.0387e-08
-5.78175e-10
1.19557e-09
1.68488e-08
-8.26803e-09
-1.05226e-10
4.55962e-08
-3.5242e-10
2.34325e-08
1.08303e-09
1.60444e-08
-2.78958e-09
2.79873e-08
-1.13642e-08
2.58019e-08
5.82905e-08
-2.33411e-09
-1.56951e-09
1.05086e-08
1.57289e-09
-4.49062e-10
1.45429e-08
-4.6552e-09
-1.41634e-09