/*--------------------------------*- C++ -*----------------------------------*\
| =========                 |                                                 |
| \\      /  F ield         | OpenFOAM: The Open Source CFD Toolbox           |
|  \\    /   O peration     | Version:  2506                                  |
|   \\  /    A nd           | Website:  www.openfoam.com                      |
|    \\/     M anipulation  |                                                 |
\*---------------------------------------------------------------------------*/
FoamFile
{
    version     2.0;
    format      ascii;
    arch        "LSB;label=32;scalar=64";
    class       volVectorField;
    location    "0.03";
    object      U;
}
// * * * * * * * * * * * * * * * * * * * * * * * * * * * * * * * * * * * * * //

dimensions      [0 1 -1 0 0 0 0];

internalField   nonuniform List<vector> 
1152
(
(0.00414948 -0.00226682 0.0239227)
(-0.000792465 0.0002085 0.0118091)
(-7.67937e-05 -0.000528181 0.0119408)
(0.000969867 0.000416584 0.00940548)
(0.00170086 -0.000309866 0.0102767)
(-0.00011166 0.00108228 0.0145449)
(0.00023085 0.00116346 0.00693174)
(0.000778688 0.00169277 0.00995148)
(0.00183723 0.000412676 0.0126637)
(0.00164684 0.00164454 0.00971254)
(0.00079774 0.00420707 0.00880744)
(-0.00157841 0.00341334 0.0154201)
(0.00144449 0.00112692 0.00338232)
(0.00580835 -0.000311638 0.0123873)
(0.00235925 0.000228502 0.0123089)
(-0.0063904 -0.00206174 0.0180403)
(-0.0011165 -0.000189428 0.00963853)
(-3.77637e-05 -0.00025053 0.0099688)
(0.000703136 0.00164459 0.0117529)
(0.000929677 2.46335e-05 0.00960152)
(-0.00140323 0.000368193 0.0127491)
(0.00117686 0.000798027 0.00941819)
(0.00109606 0.000846814 0.0108968)
(-0.000303739 6.49017e-05 0.0168629)
(-0.000751725 0.000967643 0.0147748)
(0.00104357 0.000782752 0.0163507)
(-0.000347141 -0.00202494 0.0129675)
(0.000223377 0.000129578 0.00915293)
(0.00013831 -0.000266821 0.0120782)
(-0.000521559 7.4584e-05 0.00457797)
(-6.2371e-05 6.21284e-05 0.00052148)
(0.00339791 0.00237158 0.0148128)
(-0.00490301 -0.00125219 0.0412007)
(9.67049e-05 -8.46103e-05 0.0108754)
(0.00011401 -0.000389709 0.0197702)
(6.3828e-05 0.000186633 0.00242119)
(-0.000375069 0.000524573 0.00949947)
(0.000397647 -0.00100662 0.0150641)
(0.00069656 -0.00174429 0.0238607)
(-0.000187876 -0.000406557 0.0198646)
(-0.00200118 3.22235e-05 0.0152885)
(-0.00159494 -0.000450517 0.0171112)
(0.000708102 -0.00378715 0.0152408)
(0.00145212 -0.0010596 0.01448)
(-0.00314947 -0.00410937 0.0211984)
(-0.00483782 -0.000509208 0.0246759)
(-0.000836433 -0.000742517 0.0332159)
(-0.000158002 0.000113292 0.000841753)
(8.233e-05 0.000352119 0.0028635)
(0.0022077 -0.000829976 0.0229795)
(0.000230443 -0.000206129 0.00774318)
(-0.0013407 -0.000296478 0.0164246)
(-5.20375e-05 0.00153268 0.013473)
(-0.000602775 0.00060661 0.0088377)
(0.000674426 -0.000840009 0.0285881)
(0.00119409 0.000682361 0.0182058)
(0.00120692 -0.00226818 0.0225446)
(-0.000504029 0.000304555 0.00987874)
(0.000345743 0.00103974 0.0160023)
(0.000493744 0.000639333 0.00960737)
(-6.02074e-05 7.31668e-05 0.0009593)
(0.00220581 0.00204641 0.0235807)
(0.000470457 0.000483732 0.0125301)
(-0.000379773 -0.00114888 0.00967922)
(0.000234392 0.00036165 0.0294102)
(8.4833e-05 -0.000109224 0.0142457)
(0.000543643 -0.000245132 0.0209568)
(-0.000336066 -0.000193768 0.0137529)
(0.000334727 -0.00127775 0.0175153)
(-0.000882989 0.000282437 0.0109339)
(-0.000316882 0.000112647 0.0103143)
(0.00140862 -0.000160051 0.0168013)
(0.00117183 -0.00224213 0.0139227)
(0.00245786 -0.00170953 0.0287204)
(-0.000137336 0.000675944 0.00803447)
(0.000399397 0.00205428 0.0241945)
(0.00331456 0.00399523 0.0258139)
(-0.000419227 8.61384e-05 0.00106657)
(0.00560966 0.000584591 0.0473789)
(-0.000423083 0.0007227 0.0185588)
(0.000164568 -4.27255e-05 0.00194946)
(-0.00105923 -0.000612232 0.0126944)
(-0.000499628 -0.0007401 0.00987717)
(0.00213838 -0.000306062 0.0165642)
(0.00284002 -0.00190422 0.0203359)
(0.00014963 -4.90988e-05 0.00446029)
(-0.000940062 0.000625839 0.0150827)
(4.63357e-05 2.86017e-05 0.00438057)
(0.000386545 -0.000582949 0.00426915)
(0.000733055 -0.000800359 0.0126275)
(-0.00012248 0.000871426 0.00834046)
(-0.000233155 0.000511836 0.00494561)
(0.000367574 -5.40884e-05 0.000922537)
(0.00371595 -0.00199884 0.010703)
(0.000550279 -0.000382796 0.0059698)
(-0.000116539 0.000228158 0.0134599)
(1.74555e-05 -0.000133722 0.0112536)
(0.000867844 0.00126804 0.0130483)
(6.42178e-05 2.65765e-05 0.00663043)
(-5.9393e-05 -6.90884e-05 0.0148107)
(0.000137504 0.00055388 0.0123923)
(0.000922887 -0.000168668 0.00636838)
(0.000152156 0.000154198 0.00968653)
(0.00093568 0.000516855 0.00410017)
(-0.000299911 0.00219358 0.00844486)
(-7.27863e-05 0.000251314 0.0187932)
(0.000302301 0.000250572 0.00588183)
(0.000119397 5.10417e-05 0.0105365)
(0.000271853 -0.000456556 0.00530293)
(0.000306165 -0.00115481 0.00892733)
(-0.000847137 0.000264566 0.0267872)
(0.000694238 -0.00010616 0.0128923)
(-0.000461907 0.000697036 0.0163812)
(3.23249e-05 0.000466989 0.0153315)
(-0.000176238 -1.86835e-05 0.0130682)
(-0.000167119 4.16485e-05 0.0163954)
(-0.000229209 0.000925069 0.0164407)
(-0.000327624 0.00024096 0.0124204)
(-0.000208791 -4.95324e-05 0.0122334)
(-0.000271106 0.000152501 0.00868999)
(-1.49196e-05 0.00132852 0.0158994)
(-0.000831003 0.000570749 0.0186509)
(-0.000413312 -0.000936895 0.0122017)
(-0.000327401 -0.00043102 0.0128623)
(4.94293e-06 0.000148698 0.0239221)
(-0.00237534 0.000469376 0.0174454)
(-0.00148697 0.000211568 0.0197706)
(0.000287433 0.000148982 0.0163134)
(-0.000122028 -0.000203047 0.00431328)
(0.000198434 0.000271369 0.00415577)
(6.73823e-05 0.000190393 0.0036173)
(-0.000178915 0.000568575 0.00401221)
(-7.69532e-05 -0.000481866 0.00392851)
(0.000401882 -0.000341299 0.00342872)
(0.000295998 -0.000145163 0.00318695)
(-0.000287717 0.000199907 0.00271047)
(0.000297399 -0.00168699 0.00393393)
(0.000600114 -0.000834661 0.00433954)
(0.00054531 -0.000972167 0.0034432)
(-1.12266e-05 -0.000734459 0.00329076)
(-3.12365e-05 5.05544e-05 0.00445872)
(0.00114492 9.11751e-05 0.00393273)
(0.000303234 -6.28167e-05 0.00506761)
(0.000419197 -0.00037582 0.00424177)
(6.48915e-06 -5.10505e-05 0.00881374)
(0.000135871 0.000123388 0.00876945)
(0.000136373 2.81183e-05 0.00846637)
(3.52124e-05 7.39597e-05 0.00857451)
(7.08408e-06 -0.000177249 0.00875701)
(0.000175143 -0.000140931 0.00850074)
(0.000152071 -0.000127793 0.00825039)
(-7.64756e-05 -3.44877e-05 0.00808898)
(7.70176e-05 -0.000430076 0.00914055)
(0.000203181 -0.000342248 0.00899531)
(0.000217071 -0.000424229 0.00848945)
(7.56535e-06 -0.000360826 0.00834306)
(-8.72991e-05 5.91188e-06 0.0101155)
(0.00018247 -1.87988e-05 0.0092262)
(0.000103691 -8.9221e-05 0.0091022)
(0.000104767 -0.000213671 0.00879079)
(3.1343e-05 -6.40896e-05 0.00736748)
(5.31693e-05 3.26175e-05 0.00735022)
(4.41873e-05 -3.32449e-07 0.00722023)
(-4.73118e-05 5.77284e-05 0.00720943)
(2.69458e-05 -9.4661e-05 0.00733353)
(7.46386e-05 -6.73445e-05 0.00726709)
(5.57019e-05 -6.47501e-05 0.0071658)
(-5.14297e-05 -1.33072e-05 0.00711411)
(2.94257e-05 -0.000139731 0.00746498)
(8.62948e-05 -0.000139894 0.00742656)
(8.74549e-05 -0.000160005 0.00727964)
(7.64348e-07 -0.000133346 0.00722063)
(-4.07666e-05 -5.78257e-06 0.00764463)
(5.39663e-05 -3.01102e-05 0.00751527)
(5.52168e-05 -6.07273e-05 0.00747591)
(2.59658e-05 -0.000101378 0.00739215)
(2.65664e-05 -4.44485e-05 0.00759751)
(3.17587e-05 -3.76071e-06 0.00759812)
(3.38748e-05 -2.88842e-05 0.00754719)
(-1.78454e-06 -1.58539e-05 0.00754378)
(2.06783e-05 -4.6248e-05 0.00760075)
(3.44209e-05 -3.6372e-05 0.00758206)
(2.76723e-05 -4.4424e-05 0.00754131)
(-1.34123e-05 -3.13074e-05 0.0075271)
(1.35775e-05 -4.81477e-05 0.00765396)
(3.45926e-05 -5.52232e-05 0.00763837)
(3.461e-05 -6.45959e-05 0.00758765)
(1.46154e-06 -5.78595e-05 0.00756458)
(-1.41298e-05 -2.86948e-06 0.00769476)
(1.80701e-05 -1.60683e-05 0.00767538)
(2.34642e-05 -2.77372e-05 0.00764997)
(5.074e-06 -3.72911e-05 0.00762567)
(1.82581e-05 -2.7853e-05 0.00757299)
(1.61353e-05 -9.50702e-06 0.00757244)
(1.38144e-05 -2.14756e-05 0.00754396)
(-4.82261e-06 -1.25753e-05 0.00752679)
(1.45942e-05 -2.34251e-05 0.00758257)
(1.63298e-05 -1.94685e-05 0.00757647)
(1.11716e-05 -2.43739e-05 0.00755743)
(-6.66169e-06 -1.75675e-05 0.00754595)
(9.44745e-06 -1.89624e-05 0.00760368)
(1.53225e-05 -2.27272e-05 0.00759853)
(1.37635e-05 -2.65803e-05 0.00758009)
(7.54706e-07 -2.28625e-05 0.00756853)
(-1.16185e-06 -2.52411e-06 0.00761378)
(8.65707e-06 -8.13526e-06 0.00761268)
(1.05871e-05 -1.19865e-05 0.00760178)
(2.17006e-06 -1.25236e-05 0.0075926)
(1.25084e-05 -1.65684e-05 0.00757213)
(9.86969e-06 -8.54888e-06 0.0075707)
(7.43464e-06 -1.42941e-05 0.00755444)
(-9.39299e-07 -1.03485e-05 0.00753833)
(1.05205e-05 -1.26933e-05 0.0075813)
(9.55396e-06 -1.12505e-05 0.00757853)
(6.06471e-06 -1.38427e-05 0.00756885)
(-1.57529e-06 -1.06758e-05 0.00755965)
(7.79727e-06 -8.88312e-06 0.00759029)
(8.81285e-06 -1.04745e-05 0.00758829)
(7.20899e-06 -1.20209e-05 0.00758079)
(1.90392e-06 -9.84381e-06 0.0075734)
(3.82898e-06 -2.32027e-06 0.00759349)
(6.44943e-06 -4.25314e-06 0.00759389)
(6.56071e-06 -5.08855e-06 0.00758928)
(2.76104e-06 -3.7965e-06 0.00758372)
(8.85282e-06 -9.51882e-06 0.0075736)
(6.73814e-06 -6.16956e-06 0.00757106)
(4.65037e-06 -8.545e-06 0.00755949)
(6.44942e-07 -6.73589e-06 0.00754229)
(7.85464e-06 -7.19233e-06 0.00758141)
(6.52871e-06 -6.69864e-06 0.00757922)
(4.20582e-06 -7.73652e-06 0.00757291)
(7.09895e-07 -6.14159e-06 0.00756352)
(6.58035e-06 -4.8111e-06 0.00758611)
(6.22942e-06 -5.40355e-06 0.00758467)
(4.89486e-06 -5.8089e-06 0.00758051)
(2.43468e-06 -4.4776e-06 0.00757397)
(5.08791e-06 -1.9149e-06 0.00758765)
(5.55055e-06 -2.44379e-06 0.00758736)
(5.06514e-06 -2.30614e-06 0.0075846)
(3.11242e-06 -1.07034e-06 0.00757953)
(6.39666e-06 -5.44438e-06 0.00757513)
(4.93578e-06 -4.07186e-06 0.00757201)
(3.36554e-06 -4.88306e-06 0.00756254)
(1.33642e-06 -4.10259e-06 0.0075446)
(5.93477e-06 -4.22026e-06 0.00758177)
(4.86604e-06 -4.05112e-06 0.00757972)
(3.35582e-06 -4.34637e-06 0.00757471)
(1.57322e-06 -3.4942e-06 0.0075649)
(5.39354e-06 -2.88152e-06 0.00758477)
(4.81827e-06 -3.05697e-06 0.00758343)
(3.81985e-06 -3.03048e-06 0.00758035)
(2.48825e-06 -2.20976e-06 0.00757388)
(4.89076e-06 -1.52752e-06 0.00758577)
(4.72619e-06 -1.56905e-06 0.00758499)
(4.16248e-06 -1.22168e-06 0.00758276)
(3.01735e-06 -3.38438e-07 0.00757766)
(4.66748e-06 -3.14729e-06 0.0075762)
(3.71626e-06 -2.586e-06 0.00757291)
(2.60318e-06 -2.72715e-06 0.00756431)
(1.47574e-06 -2.36588e-06 0.00754595)
(4.48843e-06 -2.55932e-06 0.00758207)
(3.73815e-06 -2.47471e-06 0.00758013)
(2.74867e-06 -2.47734e-06 0.00757561)
(1.79384e-06 -1.97719e-06 0.00756552)
(4.29277e-06 -1.8455e-06 0.00758433)
(3.79806e-06 -1.85612e-06 0.00758306)
(3.07931e-06 -1.70916e-06 0.00758033)
(2.26286e-06 -1.19029e-06 0.00757383)
(4.15315e-06 -1.181e-06 0.00758509)
(3.87863e-06 -1.08641e-06 0.00758415)
(3.38682e-06 -7.72999e-07 0.00758208)
(2.64499e-06 -2.03587e-07 0.00757693)
(3.40994e-06 -1.85701e-06 0.00757696)
(2.806e-06 -1.59756e-06 0.00757369)
(2.04668e-06 -1.53132e-06 0.00756547)
(1.39444e-06 -1.33452e-06 0.00754693)
(3.36708e-06 -1.59269e-06 0.00758237)
(2.87076e-06 -1.52193e-06 0.00758054)
(2.21639e-06 -1.43834e-06 0.00757623)
(1.64714e-06 -1.12209e-06 0.00756601)
(3.32101e-06 -1.22469e-06 0.00758429)
(2.9584e-06 -1.17956e-06 0.0075831)
(2.44931e-06 -1.0327e-06 0.00758051)
(1.91223e-06 -7.01222e-07 0.007574)
(3.30908e-06 -8.83543e-07 0.00758492)
(3.06501e-06 -7.8021e-07 0.00758397)
(2.67528e-06 -5.54665e-07 0.00758199)
(2.16105e-06 -2.01282e-07 0.00757685)
(2.47619e-06 -1.11338e-06 0.00757749)
(2.09492e-06 -9.6867e-07 0.00757431)
(1.59322e-06 -8.70361e-07 0.00756626)
(1.19236e-06 -7.47698e-07 0.00754765)
(2.49041e-06 -1.00079e-06 0.00758264)
(2.16601e-06 -9.383e-07 0.00758091)
(1.73417e-06 -8.50158e-07 0.00757671)
(1.36873e-06 -6.50743e-07 0.00756644)
(2.49982e-06 -8.17459e-07 0.00758437)
(2.24404e-06 -7.65479e-07 0.00758326)
(1.88933e-06 -6.54424e-07 0.00758077)
(1.52368e-06 -4.48753e-07 0.00757426)
(2.52132e-06 -6.42815e-07 0.00758493)
(2.33043e-06 -5.65736e-07 0.00758404)
(2.03722e-06 -4.20518e-07 0.00758213)
(1.67506e-06 -2.09378e-07 0.00757702)
(1.77201e-06 -6.67884e-07 0.00757784)
(1.52856e-06 -5.75969e-07 0.00757475)
(1.20048e-06 -4.9594e-07 0.0075668)
(9.45382e-07 -4.16411e-07 0.00754817)
(1.80098e-06 -6.22494e-07 0.00758283)
(1.586e-06 -5.75913e-07 0.0075812)
(1.30265e-06 -5.0909e-07 0.00757707)
(1.05936e-06 -3.86312e-07 0.00756681)
(1.82352e-06 -5.33581e-07 0.00758446)
(1.64103e-06 -4.95915e-07 0.00758344)
(1.39811e-06 -4.24688e-07 0.00758102)
(1.14847e-06 -3.03177e-07 0.00757454)
(1.84383e-06 -4.55813e-07 0.00758497)
(1.69578e-06 -4.07796e-07 0.00758415)
(1.4857e-06 -3.21087e-07 0.00758233)
(1.23454e-06 -1.98441e-07 0.00757727)
(1.22994e-06 -3.89672e-07 0.00757806)
(1.07417e-06 -3.30971e-07 0.00757505)
(8.63227e-07 -2.75782e-07 0.00756716)
(6.99899e-07 -2.29328e-07 0.00754854)
(1.25614e-06 -3.72168e-07 0.00758295)
(1.11146e-06 -3.43599e-07 0.0075814)
(9.28556e-07 -3.02863e-07 0.00757734)
(7.67259e-07 -2.31371e-07 0.00756709)
(1.27529e-06 -3.33313e-07 0.00758451)
(1.14293e-06 -3.1247e-07 0.00758357)
(9.81616e-07 -2.72887e-07 0.00758122)
(8.15524e-07 -2.05771e-07 0.00757478)
(1.2853e-06 -3.08715e-07 0.00758498)
(1.17245e-06 -2.84321e-07 0.00758424)
(1.02853e-06 -2.36584e-07 0.00758249)
(8.60222e-07 -1.68019e-07 0.00757749)
(8.11655e-07 -2.04265e-07 0.00757817)
(7.142e-07 -1.69265e-07 0.00757523)
(5.8538e-07 -1.36629e-07 0.00756739)
(4.84513e-07 -1.11062e-07 0.00754879)
(8.29786e-07 -1.98177e-07 0.00758301)
(7.34716e-07 -1.83579e-07 0.00758152)
(6.22223e-07 -1.63073e-07 0.00757751)
(5.19588e-07 -1.26094e-07 0.00756729)
(8.41319e-07 -1.83388e-07 0.00758451)
(7.49063e-07 -1.753e-07 0.00758365)
(6.47306e-07 -1.57134e-07 0.00758135)
(5.42714e-07 -1.23975e-07 0.00757495)
(8.43509e-07 -1.83858e-07 0.00758495)
(7.61324e-07 -1.75149e-07 0.00758429)
(6.69166e-07 -1.52098e-07 0.00758261)
(5.62615e-07 -1.16143e-07 0.00757766)
(5.15543e-07 -5.60068e-08 0.00757822)
(4.61827e-07 -3.63944e-08 0.00757532)
(3.92804e-07 -1.99888e-08 0.00756751)
(3.31e-07 -1.00301e-08 0.00754893)
(5.265e-07 -5.08054e-08 0.00758302)
(4.71665e-07 -4.45098e-08 0.00758158)
(4.09705e-07 -3.64168e-08 0.0075776)
(3.478e-07 -2.22458e-08 0.00756741)
(5.31964e-07 -4.43147e-08 0.00758449)
(4.76329e-07 -4.30351e-08 0.00758368)
(4.18376e-07 -3.72293e-08 0.00758143)
(3.56432e-07 -2.50454e-08 0.00757506)
(5.31584e-07 -5.19057e-08 0.00758491)
(4.79048e-07 -5.15944e-08 0.00758431)
(4.25288e-07 -4.32683e-08 0.00758268)
(3.61656e-07 -2.83909e-08 0.00757777)
(3.87164e-07 8.20849e-08 0.0075782)
(3.6821e-07 9.53625e-08 0.00757534)
(3.35811e-07 1.05823e-07 0.00756757)
(2.90527e-07 1.11968e-07 0.00754902)
(3.9672e-07 9.31492e-08 0.00758299)
(3.75694e-07 9.85475e-08 0.0075816)
(3.44281e-07 1.03183e-07 0.00757766)
(3.02672e-07 1.07617e-07 0.0075675)
(4.01609e-07 9.96571e-08 0.00758447)
(3.78876e-07 1.00542e-07 0.0075837)
(3.47644e-07 1.02071e-07 0.00758149)
(3.05731e-07 1.04717e-07 0.00757515)
(4.01445e-07 9.56163e-08 0.00758489)
(3.78503e-07 9.34445e-08 0.00758433)
(3.47567e-07 9.32745e-08 0.00758274)
(3.04159e-07 9.47159e-08 0.00757787)
(0.000850478 -0.000849274 0.0152536)
(-0.000117063 0.000610041 0.00746537)
(0.000529482 0.00090856 0.00698907)
(0.00140966 0.00013692 0.0107278)
(0.000181053 0.000157848 0.00875989)
(0.00127191 -0.000139891 0.0148848)
(0.000442947 0.00147925 0.019065)
(0.000739783 -0.000559661 0.011217)
(-0.00100364 0.000678112 0.0123953)
(4.55478e-05 -0.000202643 0.00508201)
(0.00226458 -0.000969658 0.014004)
(0.0011636 -0.00212405 0.0155632)
(0.000197105 -0.000183768 0.0140056)
(-0.000673998 0.000644056 0.0133967)
(0.000379737 -0.00113027 0.0111537)
(0.000217752 -0.000354504 0.00348518)
(-0.000941477 0.00149167 0.0123234)
(0.00171197 -0.000383465 0.0164758)
(0.000722516 -0.000957434 0.0140378)
(0.000333515 -0.000930216 0.0223419)
(-0.000937649 0.00141932 0.0107626)
(-0.000250622 -6.49319e-05 0.0166262)
(0.00059279 -0.000409786 0.0111332)
(0.00102439 -0.000638004 0.0111133)
(0.000215466 0.000799093 0.0179101)
(-0.000396864 0.000248329 0.0126469)
(-0.00060809 0.000196955 0.0151842)
(0.000780393 0.00113615 0.0129803)
(-0.00217494 -0.000358404 0.0183783)
(-0.000372057 -0.000345244 0.00586446)
(0.000498706 0.000834359 0.0134565)
(0.0011556 0.00146556 0.0149337)
(-0.000546486 0.000604749 0.0109688)
(0.00121001 -8.79676e-05 0.0178707)
(0.000166727 0.000156804 0.0145257)
(0.000480751 -0.000278674 0.0195663)
(-0.000310258 0.00189737 0.0149127)
(0.000552199 0.000207356 0.0176241)
(0.000289472 0.00030974 0.0236156)
(0.000348367 -0.00050296 0.0211363)
(-0.000473659 0.000845715 0.0171964)
(-0.000429935 0.00048042 0.0147292)
(-0.000124146 0.00100415 0.0193158)
(-0.000145568 0.000264242 0.00752238)
(-4.35324e-05 0.000177875 0.000738656)
(0.000749822 0.000863772 0.026578)
(9.09141e-05 0.000242324 0.00425686)
(-0.00120697 0.000732077 0.0312103)
(-1.22226e-05 0.000408751 0.00612418)
(0.0012057 -9.98554e-05 0.0222179)
(0.000217609 -0.000638216 0.014362)
(-0.000293587 -0.00104186 0.0297586)
(1.45192e-05 0.000411789 0.00775851)
(-0.000377705 -0.000306273 0.0179816)
(-5.78198e-05 -0.000322308 0.0173456)
(-0.000203103 0.000422125 0.00943525)
(0.000118601 -0.00139747 0.0257951)
(-0.00017044 0.000394073 0.0128541)
(0.000114881 0.000796292 0.0185651)
(-0.000450205 0.000541313 0.0123079)
(0.000775253 -0.00127319 0.012405)
(7.23419e-05 0.000184783 0.00455589)
(0.000271034 -0.000113701 0.026421)
(-0.000570321 -0.000411502 0.0134012)
(-0.000102396 0.000295407 0.00234486)
(-0.000931816 0.000268301 0.0200271)
(-0.000620733 0.000326499 0.0213486)
(0.000437547 0.00247029 0.0240144)
(0.000331121 -0.000139314 0.0162389)
(-0.00188885 0.000485121 0.0152292)
(-0.000223228 0.00058639 0.0144589)
(-0.00039938 0.000976985 0.0121154)
(0.0003375 -0.00241472 0.022119)
(-0.000278871 0.000171164 0.0118446)
(-0.000603583 -0.000213432 0.0226657)
(-6.26552e-05 4.24077e-05 0.0152594)
(-0.000333825 0.000138591 0.011681)
(-0.00113593 -0.00132748 0.0278025)
(-0.000155567 0.000232553 0.00494948)
(0.000876028 0.00141611 0.0341881)
(-0.000120383 0.000418866 0.00104603)
(-0.00501249 0.00190361 0.0152755)
(0.000315866 0.000533539 0.00711324)
(0.00114241 0.000528453 0.0118705)
(0.00197537 -0.00426831 0.0235271)
(-0.00129304 0.00192709 0.00878477)
(-0.00123875 0.00183919 0.0119504)
(0.000648168 0.00241479 0.0138076)
(-0.00012864 0.00090395 0.0067891)
(-0.000949572 0.000695539 0.0118029)
(-0.000943459 0.00192493 0.0106815)
(-0.000219485 0.000622387 0.00833659)
(0.000566051 -1.85864e-05 0.00822114)
(-0.000346506 6.93178e-05 0.00506838)
(-0.000939821 -0.000350855 0.00973375)
(7.58013e-05 0.000110321 0.00917539)
(0.00496923 -0.0021263 0.0368036)
(-0.000420559 -0.000258549 0.00626911)
(-0.000584978 -0.00013343 0.00927028)
(-0.000275512 0.000331302 0.0147933)
(0.00127067 -0.00124705 0.0235482)
(0.000120817 0.00145571 0.0120599)
(0.000133392 -3.45645e-05 0.0062603)
(5.32848e-05 -0.000122246 0.0049564)
(0.000368121 0.000953352 0.0132124)
(-0.000185517 0.000656073 0.0117624)
(3.50903e-05 -3.57332e-05 0.0127719)
(0.00032855 -0.000216284 0.0154811)
(0.000388865 -0.000254084 0.0110198)
(-0.000281801 8.65242e-05 0.0108337)
(-0.000522557 0.00032307 0.0099616)
(3.59952e-06 5.71603e-05 0.0105619)
(0.00016679 0.00272788 -0.0404194)
(0.00330523 0.00106933 0.0163631)
(0.000606161 0.000151045 0.0139755)
(-0.000303081 1.37851e-06 0.0175034)
(-0.000633291 0.00486645 0.0144154)
(0.00195779 0.00146818 0.0195186)
(0.000659743 8.89422e-05 0.0124768)
(-0.000145091 -0.000184488 0.0129196)
(-0.000370128 0.00272901 0.0161212)
(0.000428678 0.00107583 0.017842)
(0.000212807 2.8287e-05 0.0160249)
(-3.73687e-05 -0.000155169 0.0159331)
(-0.000420868 0.000898477 0.0151587)
(0.000107446 0.000504464 0.0153487)
(-2.56742e-05 0.000219259 0.0144117)
(-0.000173608 -1.81232e-05 0.0157169)
(0.000506473 -0.0042954 0.00509974)
(-0.00357615 -0.00101595 0.00519885)
(-0.000193574 -0.000178579 0.00349502)
(-0.000681406 -8.06174e-05 0.00411753)
(4.03679e-06 -0.0055246 0.00645679)
(-0.000906934 -0.000499953 0.00538111)
(0.000349426 -0.000311382 0.00353464)
(-0.000569749 -3.57039e-06 0.00366887)
(-0.000100686 -0.00156259 0.00538007)
(-0.000425718 0.000265236 0.00512545)
(0.000220585 -0.000234152 0.00419282)
(-0.000236107 -2.42825e-05 0.00410052)
(-7.41443e-05 -0.000541921 0.00476936)
(-0.000108652 0.000311972 0.00450673)
(8.55983e-06 0.000114401 0.00403322)
(-0.000239955 0.000192771 0.00408369)
(0.000124652 -0.000935534 0.00417813)
(-0.000755762 -0.000287869 0.00866049)
(0.000120478 -8.14069e-05 0.00803169)
(-0.000212145 -0.000133497 0.00870169)
(-9.9953e-06 -0.00143381 0.00765262)
(-0.000217924 -0.000229943 0.00909561)
(0.000297725 -0.000207924 0.00823266)
(-0.000149494 -0.00010931 0.00859795)
(-1.68218e-06 -0.000644355 0.00860383)
(-4.80003e-05 6.2424e-05 0.00912922)
(0.000270546 -0.00013083 0.00858093)
(-5.10239e-05 -3.99993e-05 0.00870486)
(1.43137e-05 -0.000235967 0.00879474)
(5.99786e-05 0.000144616 0.00890277)
(0.000191303 -4.67656e-06 0.00858289)
(2.10927e-06 1.54513e-06 0.00867491)
(4.36188e-05 -0.000291074 0.00602667)
(-0.000307417 -8.30442e-05 0.00713772)
(-8.14608e-06 -4.32744e-05 0.00675886)
(-0.000159467 -7.00359e-05 0.00698834)
(1.38433e-05 -0.000512521 0.00685889)
(-0.000151845 -7.97238e-05 0.00736591)
(4.1631e-05 -9.76496e-05 0.0069631)
(-0.000152845 -3.40927e-05 0.00707517)
(2.01182e-05 -0.000339413 0.00724073)
(-5.73748e-05 -2.13856e-05 0.00744359)
(5.37786e-05 -9.89877e-05 0.00715017)
(-0.000104711 -1.72898e-05 0.00715564)
(2.65512e-05 -0.00017234 0.00735398)
(3.35584e-06 2.19413e-05 0.00739712)
(4.23221e-05 -4.74162e-05 0.0072166)
(-6.86506e-05 1.20655e-05 0.00718747)
(2.54646e-05 -0.000105733 0.00693026)
(-9.19316e-05 -3.17162e-05 0.00737429)
(2.39286e-05 -2.12632e-05 0.00720691)
(-5.88648e-05 -4.27858e-05 0.0073508)
(1.99166e-05 -0.000203619 0.00725465)
(-4.62299e-05 -4.04709e-05 0.00750548)
(4.26898e-05 -5.83664e-05 0.0073476)
(-5.37603e-05 -3.45319e-05 0.00743637)
(2.28844e-05 -0.000157125 0.00746425)
(-9.72319e-06 -1.79844e-05 0.00758329)
(4.67249e-05 -5.81891e-05 0.00746418)
(-3.78652e-05 -2.17563e-05 0.0075005)
(2.58297e-05 -9.30574e-05 0.00756216)
(1.54732e-05 -4.80635e-06 0.00760189)
(4.24305e-05 -4.40215e-05 0.00752717)
(-1.61444e-05 -2.06898e-05 0.00753237)
(1.49655e-05 -3.81297e-05 0.00715241)
(-3.15401e-05 -9.56986e-06 0.00731998)
(7.27872e-06 -1.07924e-05 0.00721814)
(-3.27661e-05 -2.0389e-05 0.00726131)
(1.44057e-05 -7.95713e-05 0.00734588)
(-1.75004e-05 -1.55211e-05 0.00744891)
(1.43347e-05 -2.93831e-05 0.00735458)
(-3.22737e-05 -1.63393e-05 0.00737022)
(1.60572e-05 -7.15866e-05 0.00747537)
(-2.74466e-06 -1.23048e-05 0.00752532)
(1.69603e-05 -3.39236e-05 0.00745238)
(-2.4001e-05 -1.36037e-05 0.00744482)
(1.77955e-05 -4.95113e-05 0.00754309)
(8.7372e-06 -1.00374e-05 0.00755903)
(1.66791e-05 -3.00668e-05 0.00751213)
(-1.27674e-05 -1.49964e-05 0.00749158)
(1.01583e-05 -1.49982e-05 0.00725623)
(-8.4774e-06 -2.59845e-06 0.00731877)
(5.50477e-06 -5.02487e-06 0.00726037)
(-1.42816e-05 -9.9374e-06 0.00727074)
(1.02243e-05 -3.35461e-05 0.00740253)
(-4.24054e-06 -6.71251e-06 0.00744102)
(8.00878e-06 -1.55953e-05 0.0073856)
(-1.42586e-05 -9.61857e-06 0.00737881)
(1.11726e-05 -3.35574e-05 0.00749736)
(1.53134e-06 -7.75325e-06 0.00751549)
(8.88442e-06 -1.90522e-05 0.00747221)
(-1.06523e-05 -9.10901e-06 0.0074548)
(1.22316e-05 -2.60227e-05 0.00754834)
(6.66137e-06 -8.56097e-06 0.00755327)
(8.91327e-06 -1.8407e-05 0.00752508)
(-5.20024e-06 -1.11181e-05 0.00750327)
(7.30357e-06 -6.17031e-06 0.00729994)
(-9.13953e-07 -4.66407e-07 0.00731928)
(3.60364e-06 -2.15143e-06 0.00727953)
(-5.87539e-06 -4.21136e-06 0.00726935)
(7.36661e-06 -1.48477e-05 0.00743085)
(4.02063e-07 -3.16695e-06 0.00744038)
(4.60245e-06 -7.90179e-06 0.00740104)
(-5.95191e-06 -4.79479e-06 0.00737907)
(7.94233e-06 -1.60938e-05 0.00751161)
(2.81843e-06 -4.71862e-06 0.00751423)
(4.98519e-06 -1.02075e-05 0.00748299)
(-4.18488e-06 -5.2819e-06 0.0074567)
(8.67915e-06 -1.35815e-05 0.00755403)
(5.28487e-06 -6.03185e-06 0.00755281)
(5.17276e-06 -1.05418e-05 0.00753217)
(-1.53787e-06 -6.99475e-06 0.0075067)
(5.45732e-06 -2.54187e-06 0.00731987)
(1.53307e-06 1.30592e-07 0.00732109)
(2.59869e-06 -6.82971e-07 0.00729079)
(-1.9017e-06 -1.524e-06 0.00727074)
(5.4376e-06 -6.75494e-06 0.00744519)
(1.91865e-06 -1.68278e-06 0.00744194)
(3.00686e-06 -3.83169e-06 0.00741037)
(-1.91096e-06 -2.3573e-06 0.00738074)
(5.79931e-06 -7.81465e-06 0.00752006)
(2.99797e-06 -2.95273e-06 0.00751543)
(3.19506e-06 -5.2925e-06 0.00748987)
(-1.03903e-06 -3.05928e-06 0.00745889)
(6.26238e-06 -7.10262e-06 0.00755815)
(4.21657e-06 -4.02183e-06 0.00755391)
(3.46224e-06 -5.82793e-06 0.00753682)
(2.3054e-07 -4.2495e-06 0.00750933)
(4.11193e-06 -1.01953e-06 0.00732928)
(2.06893e-06 2.72077e-07 0.00732271)
(1.90887e-06 -3.15142e-08 0.00729693)
(-2.04464e-07 -3.14321e-07 0.00727194)
(4.06133e-06 -3.11181e-06 0.00745245)
(2.17158e-06 -9.85268e-07 0.00744354)
(2.07402e-06 -1.79637e-06 0.00741559)
(-1.84786e-07 -1.0558e-06 0.00738204)
(4.26535e-06 -3.85909e-06 0.00752472)
(2.65823e-06 -1.87672e-06 0.00751685)
(2.22772e-06 -2.69742e-06 0.00749386)
(2.71149e-07 -1.67682e-06 0.00746043)
(4.56811e-06 -3.79391e-06 0.00756064)
(3.30843e-06 -2.59242e-06 0.00755514)
(2.49386e-06 -3.17562e-06 0.00753961)
(8.93328e-07 -2.47213e-06 0.00751103)
(3.05071e-06 -3.80357e-07 0.00733389)
(1.93199e-06 2.84487e-07 0.00732407)
(1.46865e-06 2.19727e-07 0.00730031)
(4.27274e-07 1.78136e-07 0.00727313)
(2.99909e-06 -1.47518e-06 0.00745619)
(1.93726e-06 -5.68581e-07 0.0074449)
(1.53738e-06 -8.07226e-07 0.00741856)
(4.60792e-07 -3.86984e-07 0.00738325)
(3.12223e-06 -1.97162e-06 0.00752728)
(2.18053e-06 -1.15893e-06 0.00751812)
(1.65884e-06 -1.35617e-06 0.00749624)
(7.15426e-07 -8.5811e-07 0.00746169)
(3.3227e-06 -2.08359e-06 0.00756216)
(2.55736e-06 -1.62001e-06 0.00755621)
(1.89413e-06 -1.73605e-06 0.00754136)
(1.04005e-06 -1.39661e-06 0.00751229)
(2.22074e-06 -1.27281e-07 0.00733618)
(1.58012e-06 2.58031e-07 0.00732515)
(1.14914e-06 3.09109e-07 0.00730219)
(6.00233e-07 3.28017e-07 0.0072741)
(2.17959e-06 -7.23359e-07 0.00745814)
(1.57125e-06 -3.03451e-07 0.00744597)
(1.17422e-06 -3.10146e-07 0.00742027)
(6.26747e-07 -8.30106e-08 0.0073842)
(2.25817e-06 -1.04142e-06 0.00752872)
(1.7058e-06 -6.86457e-07 0.00751911)
(1.27378e-06 -6.74296e-07 0.00749766)
(7.69153e-07 -4.12353e-07 0.00746264)
(2.39831e-06 -1.17981e-06 0.00756308)
(1.93653e-06 -9.84229e-07 0.00755704)
(1.45974e-06 -9.65845e-07 0.00754246)
(9.55951e-07 -7.75851e-07 0.0075132)
(1.58132e-06 -2.76253e-08 0.00733736)
(1.20851e-06 2.17885e-07 0.00732594)
(8.866e-07 3.01267e-07 0.00730328)
(5.65345e-07 3.34574e-07 0.0072748)
(1.55139e-06 -3.64273e-07 0.00745919)
(1.19776e-06 -1.41283e-07 0.00744675)
(8.9455e-07 -8.16359e-08 0.00742127)
(5.84244e-07 4.6105e-08 0.0073849)
(1.60609e-06 -5.65784e-07 0.00752953)
(1.27938e-06 -3.86221e-07 0.00751982)
(9.68324e-07 -3.29524e-07 0.00749851)
(6.68699e-07 -1.80152e-07 0.00746332)
(1.70548e-06 -6.79686e-07 0.00756364)
(1.42453e-06 -5.81324e-07 0.00755763)
(1.10275e-06 -5.42953e-07 0.00754316)
(7.84777e-07 -4.2467e-07 0.00751384)
(1.09295e-06 8.96299e-09 0.00733799)
(8.75148e-07 1.72266e-07 0.00732648)
(6.57661e-07 2.48555e-07 0.00730393)
(4.55443e-07 2.842e-07 0.0072753)
(1.07307e-06 -1.82908e-07 0.00745976)
(8.63778e-07 -5.14118e-08 0.00744728)
(6.59549e-07 1.05775e-08 0.00742187)
(4.69484e-07 9.06366e-08 0.00738539)
(1.11075e-06 -3.06472e-07 0.00752999)
(9.14077e-07 -2.05e-07 0.00752029)
(7.08767e-07 -1.50894e-07 0.00749905)
(5.23763e-07 -6.40898e-08 0.00746379)
(1.17938e-06 -3.86479e-07 0.00756398)
(1.0054e-06 -3.31583e-07 0.00755803)
(7.98025e-07 -2.97516e-07 0.00754362)
(5.96053e-07 -2.28625e-07 0.00751428)
(7.20496e-07 1.97873e-08 0.00733832)
(5.96791e-07 1.27414e-07 0.00732681)
(4.60207e-07 1.85955e-07 0.00730431)
(3.31857e-07 2.15723e-07 0.00727562)
(7.08392e-07 -8.40976e-08 0.00746007)
(5.87487e-07 -3.33783e-09 0.0074476)
(4.59981e-07 4.41358e-08 0.00742223)
(3.41983e-07 9.32569e-08 0.00738571)
(7.33284e-07 -1.5314e-07 0.00753024)
(6.17674e-07 -9.3865e-08 0.00752058)
(4.89849e-07 -5.49303e-08 0.00749937)
(3.76597e-07 -5.46912e-09 0.0074641)
(7.77632e-07 -2.00958e-07 0.00756416)
(6.72506e-07 -1.7053e-07 0.00755827)
(5.4493e-07 -1.48326e-07 0.0075439)
(4.20835e-07 -1.07449e-07 0.00751457)
(4.55491e-07 2.47971e-08 0.00733848)
(3.95165e-07 9.54313e-08 0.007327)
(3.19936e-07 1.41246e-07 0.00730451)
(2.42036e-07 1.66302e-07 0.00727582)
(4.5058e-07 -1.68371e-08 0.00746022)
(3.9066e-07 3.38157e-08 0.00744778)
(3.20424e-07 6.90318e-08 0.00742243)
(2.49063e-07 1.00237e-07 0.00738589)
(4.67091e-07 -4.27295e-08 0.00753037)
(4.07996e-07 -7.49952e-09 0.00752074)
(3.39046e-07 1.92545e-08 0.00749956)
(2.69711e-07 4.72297e-08 0.00746428)
(4.94423e-07 -6.03025e-08 0.00756425)
(4.38726e-07 -4.25389e-08 0.0075584)
(3.70597e-07 -2.8711e-08 0.00754406)
(2.96915e-07 -7.18261e-09 0.00751474)
(3.32474e-07 3.46135e-08 0.0073385)
(3.17078e-07 9.21833e-08 0.00732705)
(2.79902e-07 1.39738e-07 0.0073046)
(2.28959e-07 1.72917e-07 0.00727592)
(3.36808e-07 4.05402e-08 0.00746024)
(3.19293e-07 8.25395e-08 0.00744784)
(2.84082e-07 1.17956e-07 0.00742251)
(2.37357e-07 1.45994e-07 0.007386)
(3.52226e-07 5.33071e-08 0.00753038)
(3.33065e-07 8.18106e-08 0.00752079)
(2.98334e-07 1.06059e-07 0.00749964)
(2.53178e-07 1.27674e-07 0.00746437)
(3.7163e-07 6.54025e-08 0.00756425)
(3.52694e-07 8.09231e-08 0.00755843)
(3.19363e-07 9.44755e-08 0.00754413)
(2.72425e-07 1.10659e-07 0.00751483)
(0.0030813 -3.71958e-05 0.0177603)
(0.00116683 -0.000915574 0.0106358)
(0.00161291 -0.000771823 0.0102404)
(0.00242479 0.000463226 0.0171691)
(0.000132316 0.000366841 0.0114718)
(0.000842599 0.000429056 0.00910528)
(0.000538573 9.99222e-05 0.00224231)
(0.00161868 -0.000629476 0.00868335)
(0.000451691 0.000200362 0.00882269)
(0.00225441 0.000541784 0.0111867)
(0.0012492 0.000845339 0.0157805)
(-0.000104447 -0.000271223 0.0113462)
(-0.000472972 2.89007e-05 0.00505883)
(0.00189612 -0.000755702 0.0135277)