/*--------------------------------*- C++ -*----------------------------------*\
| =========                 |                                                 |
| \\      /  F ield         | OpenFOAM: The Open Source CFD Toolbox           |
|  \\    /   O peration     | Version:  2506                                  |
|   \\  /    A nd           | Website:  www.openfoam.com                      |
|    \\/     M anipulation  |                                                 |
\*---------------------------------------------------------------------------*/
FoamFile
{
    version     2.0;
    format      ascii;
    arch        "LSB;label=32;scalar=64";
    class       surfaceScalarField;
    location    "0.02";
    object      phi;
}
// * * * * * * * * * * * * * * * * * * * * * * * * * * * * * * * * * * * * * //

dimensions      [0 3 -1 0 0 0 0];

oriented        oriented;

internalField   nonuniform List<scalar> 
3120
(
-1.35811e-09
-2.98767e-09
2.92828e-08
3.88373e-10
2.04794e-10
3.39939e-10
1.50887e-08
-1.51732e-10
8.10215e-10
-9.70703e-10
1.59706e-08
1.14136e-09
9.22565e-10
1.16256e-08
4.24445e-10
4.66764e-09
9.02725e-10
6.45971e-10
1.4792e-08
-1.0352e-09
9.23108e-10
1.80526e-08
2.10207e-09
2.02435e-09
1.05845e-08
1.93246e-09
1.65752e-08
1.32686e-09
8.10972e-10
1.97787e-11
1.82338e-08
9.90785e-10
6.28257e-10
1.67658e-08
2.3641e-09
3.25118e-09
1.40605e-08
1.21656e-09
1.96004e-08
1.8125e-10
2.25258e-09
7.80259e-09
3.84415e-09
1.61904e-08
6.88843e-10
2.42059e-08
2.36181e-08
-2.21177e-09
-1.0321e-09
2.51803e-10
2.97766e-08
-4.17644e-10
1.37333e-09
5.23936e-10
1.13708e-08
7.88608e-10
1.60863e-10
2.63844e-09
1.57138e-08
-1.16911e-09
2.03591e-09
6.52967e-09
2.07084e-09
1.15007e-09
-6.797e-10
9.18214e-10
1.22287e-08
3.27068e-09
2.11329e-09
1.25129e-08
-8.94648e-10
-1.41328e-09
1.88016e-08
-2.89175e-09
1.96545e-08
9.53722e-10
2.9731e-10
1.61625e-09
1.60334e-08
9.70447e-10
2.77041e-10
1.79289e-08
-1.89431e-09
-1.8e-10
1.5692e-08
4.23609e-10
1.16419e-08
2.74888e-09
-6.92488e-10
1.74215e-08
-2.56718e-10
1.59093e-08
-6.6171e-10
2.25685e-08
1.11216e-08
5.75583e-09
1.61783e-09
1.12465e-09
2.29029e-08
-3.90743e-09
-3.71581e-10
-3.31789e-10
1.56659e-08
-1.97391e-09
5.28655e-10
2.27441e-09
1.21351e-08
4.04071e-10
-1.12245e-10
9.34904e-09
-1.49147e-09
-6.86988e-10
-1.4045e-10
1.10917e-09
1.06346e-08
2.03916e-09
6.6674e-11
9.9348e-09
-1.3668e-09
-1.03351e-09
2.55155e-08
-1.56569e-10
1.83796e-08
-4.75028e-11
-1.55328e-09
-2.85182e-10
1.65598e-08
7.46324e-10
2.60948e-09
1.30865e-08
-2.2216e-10
1.01583e-09
1.46111e-08
-2.65695e-10
1.00943e-08
1.43457e-09
8.78064e-10
1.97655e-08
-1.27481e-09
2.36492e-08
-1.38807e-09
2.50594e-08
3.49534e-09
3.67212e-09
1.92978e-09
1.74346e-09
1.69748e-08
1.03443e-09
1.91641e-10
-3.9974e-10
1.75662e-08
2.37574e-10
7.02417e-10
-1.719e-09
1.34959e-08
-1.52652e-10
-1.21718e-09
1.47353e-08
-6.42651e-10
-2.82398e-09
-1.28955e-09
1.10699e-09
1.46201e-08
-9.79847e-10
1.82104e-09
7.40432e-09
2.22913e-09
2.41687e-09
1.81706e-08
2.60321e-09
1.56938e-08
1.09455e-09
2.97909e-10
1.7302e-09
1.37797e-08
-1.97248e-09
6.58627e-11
1.7112e-08
2.14646e-09
2.51882e-09
1.03902e-08
5.95094e-10
1.5322e-08
-1.07317e-09
-3.74124e-10
2.48349e-08
5.50306e-10
1.96934e-08
1.03827e-09
2.84277e-08
1.15733e-08
-3.24091e-09
-5.73641e-10
2.49711e-09
1.52443e-08
2.35439e-10
3.13644e-10
2.91117e-10
1.58812e-08
5.06584e-10
5.02645e-10
-1.88933e-09
1.64411e-08
-1.24482e-09
-1.82177e-09
2.00605e-08
-2.06687e-09
-9.33945e-10
-1.34223e-09
-2.6848e-09
2.31936e-08
-1.0411e-09
3.53316e-10
7.04099e-09
5.79071e-10
1.00769e-09
1.36534e-08
2.26973e-09
9.60353e-09
2.57781e-09
1.77416e-09
1.37507e-09
9.82868e-09
-4.10283e-10
-3.51402e-09
2.31638e-08
2.08796e-10
1.73916e-09
9.03968e-09
2.81984e-09
1.52719e-08
-2.9119e-10
3.75406e-09
1.94584e-08
2.52817e-09
1.51915e-08
2.4991e-09
3.02435e-08
2.00284e-08
-2.72045e-09
-4.75807e-10
-3.03128e-09
1.97505e-08
5.66491e-10
-1.66146e-09
-7.91045e-10
1.92118e-08
-1.35391e-09
-6.04447e-11
3.49461e-10
1.3064e-08
1.42658e-09
-1.20526e-09
2.12558e-08
-1.0915e-09
1.04101e-09
1.556e-09
2.10247e-10
2.11388e-08
-2.56991e-11
4.03538e-10
7.42811e-09
-1.02199e-09
7.84303e-10
1.42149e-08
6.80336e-10
5.52388e-09
1.17206e-09
1.14946e-09
-1.20745e-09
1.10471e-08
5.12258e-10
-3.78578e-09
2.79903e-08
1.30849e-10
1.37134e-09
8.83404e-09
8.82634e-10
1.55339e-08
-3.33437e-10
2.40652e-09
1.34602e-08
4.40992e-09
1.0976e-08
-5.46283e-10
3.98515e-08
2.09775e-08
7.8867e-10
-1.60841e-09
3.64283e-10
1.81073e-08
2.23024e-09
-2.25028e-09
-1.29132e-09
1.61397e-08
5.00531e-09
-2.41605e-09
4.26257e-10
1.35697e-08
-7.66208e-10
1.94865e-09
1.81045e-08
3.16126e-10
-1.52948e-09
3.63938e-10
1.94796e-09
1.7529e-08
-3.10703e-10
-2.1937e-09
9.00511e-09
5.86318e-10
5.64553e-10
1.31795e-08
7.34256e-10
7.69938e-09
-3.74765e-10
-1.53848e-09
1.6296e-09
1.4382e-08
1.5344e-09
3.84412e-10
2.23393e-08
-6.65559e-10
-1.74358e-10
1.17729e-08
4.9531e-10
1.38786e-08
1.22863e-09
1.84332e-09
1.28381e-08
2.58468e-09
1.23059e-08
-2.35646e-09
3.11006e-08
1.98756e-08
-9.23398e-10
-8.76532e-10
8.98013e-10
1.82792e-08
-1.08824e-09
-8.62321e-10
-9.34356e-10
1.52151e-08
1.84464e-09
-1.30551e-09
-1.36572e-09
1.41534e-08
1.22519e-09
-4.87074e-10
1.69781e-08
1.1145e-09
-8.06568e-10
2.08686e-11
9.48942e-10
1.75651e-08
-1.47919e-09
-1.8787e-09
1.14495e-08
-9.73422e-10
-1.26611e-09
1.25741e-08
-1.09403e-09
9.53953e-09
-2.20659e-09
-5.63694e-10
8.08699e-10
1.64665e-08
-7.25816e-11
1.06255e-09
1.8907e-08
-1.55319e-09
-1.98769e-09
1.39751e-08
-2.90372e-10
1.29733e-08
-1.4516e-09
-9.0419e-10
1.51431e-08
-4.31648e-09
1.62369e-08
-1.05044e-09
2.39323e-08
1.8144e-08
-3.16964e-10
1.06828e-09
2.02262e-10
1.75163e-08
4.78938e-11
1.06304e-09
4.18719e-10
1.6487e-08
-1.68539e-09
2.4776e-11
-2.54325e-10
1.58785e-08
-4.32459e-10
1.2735e-09
1.64496e-08
-9.83643e-10
2.63445e-10
1.43047e-09
-4.75875e-10
1.68543e-08
8.26891e-10
-2.672e-09
1.51439e-08
4.01787e-10
-2.28878e-09
1.50337e-08
-1.80091e-09
1.43551e-08
-1.33935e-09
7.0633e-10
-1.04878e-09
1.73505e-08
1.43714e-09
-2.23546e-09
1.77398e-08
8.95574e-10
-3.86185e-09
1.60897e-08
-3.05102e-09
1.52225e-08
-1.03474e-10
-1.03894e-09
1.7122e-08
-1.13623e-09
1.78134e-08
1.40449e-09
1.88485e-08
1.7049e-08
1.20644e-09
5.99609e-10
1.86681e-10
1.7202e-08
-1.63519e-10
7.39559e-10
2.03953e-10
1.68592e-08
-7.16006e-10
3.1588e-10
-1.1904e-10
1.6498e-08
-7.67567e-11
9.04813e-11
1.6565e-08
-9.64226e-11
2.06396e-10
6.18398e-10
-3.33804e-10
1.68842e-08
5.34682e-10
-9.80178e-10
1.64119e-08
2.01803e-10
-9.26395e-10
1.6174e-08
-7.68787e-10
1.59954e-08
-5.79222e-10
3.34244e-10
-3.63978e-10
1.72458e-08
6.85915e-10
-8.37803e-10
1.7246e-08
4.08648e-10
-1.26278e-09
1.67035e-08
-1.18156e-09
1.63437e-08
-2.9976e-10
-3.22429e-10
1.72529e-08
-1.41869e-11
1.75579e-08
4.58144e-10
1.75082e-08
1.70186e-08
1.71537e-11
3.61122e-10
2.66257e-11
1.71453e-08
2.00324e-11
4.11898e-10
5.99708e-11
1.70309e-08
-2.82386e-10
1.38147e-10
-5.27137e-11
1.68505e-08
-2.59637e-11
5.84762e-11
1.68222e-08
-1.66093e-10
-1.14626e-11
3.47903e-10
-2.19013e-10
1.70245e-08
3.42149e-10
-4.15347e-10
1.6893e-08
1.2846e-10
-4.27218e-10
1.67622e-08
-3.39652e-10
1.67091e-08
-1.87168e-10
2.35485e-10
-2.23052e-10
1.71862e-08
3.63915e-10
-4.60623e-10
1.71629e-08
2.31937e-10
-5.69184e-10
1.69775e-08
-5.6873e-10
1.68608e-08
-5.60488e-11
-2.47303e-11
1.72111e-08
1.65178e-10
1.733e-08
2.30459e-10
1.7226e-08
1.7112e-08
3.31172e-11
2.2072e-10
-2.12664e-11
1.71373e-08
4.45619e-11
2.52923e-10
-1.61166e-11
1.70883e-08
-7.35055e-11
1.38214e-10
-7.66973e-11
1.69948e-08
4.71271e-11
-7.06758e-11
1.69495e-08
1.50368e-11
6.65997e-11
2.01676e-10
-1.15098e-10
1.71046e-08
2.05945e-10
-1.82517e-10
1.70552e-08
1.07189e-10
-2.04905e-10
1.69892e-08
-1.88303e-10
1.69576e-08
-2.36392e-11
1.52387e-10
-1.18843e-10
1.71693e-08
1.93146e-10
-2.11012e-10
1.71507e-08
1.32256e-10
-2.45382e-10
1.70789e-08
-2.48156e-10
1.70344e-08
1.84984e-11
5.48485e-11
1.71899e-08
1.36541e-10
1.7223e-08
1.242e-10
1.71726e-08
1.71362e-08
4.08053e-11
1.42505e-10
-2.84847e-11
1.71468e-08
3.82506e-11
1.47735e-10
-2.94039e-11
1.71188e-08
-6.30047e-12
9.05136e-11
-5.33334e-11
1.70679e-08
3.75214e-11
-5.25462e-11
1.70246e-08
2.08758e-11
4.71457e-11
1.3294e-10
-6.37616e-11
1.7144e-08
1.28463e-10
-8.79973e-11
1.71183e-08
8.11429e-11
-9.99943e-11
1.70832e-08
-9.36306e-11
1.70582e-08
2.16625e-11
1.10281e-10
-6.86314e-11
1.71699e-08
1.19383e-10
-1.01948e-10
1.71555e-08
8.92496e-11
-1.14399e-10
1.71235e-08
-1.11021e-10
1.70999e-08
4.11485e-11
7.40146e-11
1.71844e-08
1.01094e-10
1.71877e-08
8.81715e-11
1.71634e-08
1.71442e-08
5.13442e-11
9.85261e-11
-2.53249e-11
1.71568e-08
2.71036e-11
9.48074e-11
-2.67758e-11
1.71374e-08
1.20126e-11
6.65472e-11
-3.53224e-11
1.71059e-08
2.56631e-11
-3.548e-11
1.70649e-08
2.01365e-11
4.16772e-11
9.39072e-11
-3.80599e-11
1.71623e-08
8.76078e-11
-4.78666e-11
1.71458e-08
6.40464e-11
-5.30123e-11
1.71246e-08
-4.97086e-11
1.71023e-08
3.42516e-11
8.35771e-11
-4.20236e-11
1.71741e-08
8.33728e-11
-5.46377e-11
1.71626e-08
6.73885e-11
-5.83712e-11
1.71449e-08
-5.40353e-11
1.71277e-08
4.39712e-11
7.01583e-11
1.7183e-08
7.75749e-11
1.71778e-08
6.89045e-11
1.71635e-08
1.71488e-08
4.99258e-11
7.00931e-11
-1.90602e-11
1.71644e-08
1.82556e-11
6.47647e-11
-2.01241e-11
1.71499e-08
1.30578e-11
4.95824e-11
-2.2418e-11
1.71272e-08
1.63664e-11
-2.1926e-11
1.70884e-08
1.40342e-11
3.40931e-11
6.82023e-11
-2.43353e-11
1.71716e-08
6.27036e-11
-2.84669e-11
1.71598e-08
4.98766e-11
-2.98941e-11
1.7145e-08
-2.7498e-11
1.71245e-08
3.33235e-11
6.39057e-11
-2.71808e-11
1.7178e-08
6.1283e-11
-3.18014e-11
1.71686e-08
5.194e-11
-3.23915e-11
1.71569e-08
-2.87974e-11
1.71423e-08
3.8713e-11
5.88086e-11
1.71834e-08
5.99139e-11
1.71766e-08
5.39054e-11
1.71664e-08
1.71538e-08
4.26404e-11
5.04388e-11
-1.38531e-11
1.71697e-08
1.24082e-11
4.58948e-11
-1.40059e-11
1.71584e-08
1.01076e-11
3.70317e-11
-1.4087e-11
1.71401e-08
1.01449e-11
-1.32984e-11
1.7103e-08
8.88172e-12
2.69366e-11
4.99505e-11
-1.6375e-11
1.71767e-08
4.58077e-11
-1.78683e-11
1.71679e-08
3.81947e-11
-1.78491e-11
1.71565e-08
-1.60128e-11
1.71375e-08
2.80893e-11
4.84107e-11
-1.82859e-11
1.71809e-08
4.57173e-11
-1.99164e-11
1.71734e-08
3.97074e-11
-1.9454e-11
1.71646e-08
-1.6925e-11
1.71517e-08
3.13295e-11
4.65978e-11
1.71843e-08
4.58031e-11
1.71779e-08
4.14254e-11
1.717e-08
1.71589e-08
3.39865e-11
3.64155e-11
-9.85989e-12
1.71733e-08
8.49698e-12
3.30726e-11
-9.5525e-12
1.71643e-08
7.08924e-12
2.75337e-11
-8.95329e-12
1.71484e-08
6.24719e-12
-8.12679e-12
1.71127e-08
5.35303e-12
2.0755e-11
3.65974e-11
-1.13611e-11
1.71799e-08
3.3648e-11
-1.16981e-11
1.71731e-08
2.87818e-11
-1.12049e-11
1.71638e-08
-9.86314e-12
1.7146e-08
2.21832e-11
3.62151e-11
-1.26822e-11
1.71829e-08
3.40457e-11
-1.31472e-11
1.7177e-08
2.99628e-11
-1.2498e-11
1.717e-08
-1.0754e-11
1.71584e-08
2.42422e-11
3.56777e-11
1.71853e-08
3.45048e-11
1.71799e-08
3.12352e-11
1.71735e-08
1.71637e-08
2.60438e-11
2.62666e-11
-6.9913e-12
1.71758e-08
5.87092e-12
2.39372e-11
-6.53298e-12
1.71684e-08
4.83219e-12
2.03085e-11
-5.82074e-12
1.71541e-08
3.88762e-12
-5.09753e-12
1.71194e-08
3.19924e-12
1.56552e-11
2.66801e-11
-8.00342e-12
1.7182e-08
2.46374e-11
-7.92832e-12
1.71767e-08
2.13863e-11
-7.38092e-12
1.71688e-08
-6.37525e-12
1.71519e-08
1.68779e-11
2.67416e-11
-8.93082e-12
1.71844e-08
2.51434e-11
-8.99394e-12
1.71798e-08
2.22811e-11
-8.44006e-12
1.71741e-08
-7.26404e-12
1.71635e-08
1.82592e-11
2.6649e-11
1.7186e-08
2.55932e-11
1.71817e-08
2.31571e-11
1.71766e-08
1.71678e-08
1.94633e-11
1.88457e-11
-4.97451e-12
1.71776e-08
4.08957e-12
1.72478e-11
-4.51131e-12
1.71713e-08
3.2838e-12
1.48038e-11
-3.87791e-12
1.7158e-08
2.46708e-12
-3.29877e-12
1.71241e-08
1.94307e-12
1.15707e-11
1.92835e-11
-5.6922e-12
1.71834e-08
1.78791e-11
-5.49093e-12
1.71792e-08
1.56535e-11
-5.01435e-12
1.71723e-08
-4.28201e-12
1.71562e-08
1.25155e-11
1.94824e-11
-6.33232e-12
1.71854e-08
1.83401e-11
-6.27649e-12
1.71819e-08
1.63158e-11
-5.87186e-12
1.71771e-08
-5.09459e-12
1.71673e-08
1.34665e-11
1.95269e-11
1.71867e-08
1.86859e-11
1.71833e-08
1.68996e-11
1.71791e-08
1.71712e-08
1.42704e-11
1.33491e-11
-3.53313e-12
1.71788e-08
2.8431e-12
1.22584e-11
-3.12115e-12
1.71734e-08
2.23266e-12
1.05986e-11
-2.62232e-12
1.71608e-08
1.59589e-12
-2.1857e-12
1.71274e-08
1.2139e-12
8.35528e-12
1.37259e-11
-4.04751e-12
1.71845e-08
1.27638e-11
-3.82987e-12
1.7181e-08
1.12342e-11
-3.45564e-12
1.71749e-08
-2.93352e-12
1.71593e-08
9.05392e-12
1.39465e-11
-4.49279e-12
1.71863e-08
1.31341e-11
-4.40927e-12
1.71834e-08
1.17124e-11
-4.12672e-12
1.71794e-08
-3.61757e-12
1.71702e-08
9.71344e-12
1.40263e-11
1.71872e-08
1.33824e-11
1.71845e-08
1.20986e-11
1.71811e-08
1.71739e-08
1.02458e-11
9.1951e-12
-2.44806e-12
1.71797e-08
1.94185e-12
8.46703e-12
-2.12197e-12
1.71748e-08
1.49495e-12
7.35605e-12
-1.75828e-12
1.71627e-08
1.03368e-12
-1.44741e-12
1.71298e-08
7.68791e-13
5.83178e-12
9.48627e-12
-2.81549e-12
1.71853e-08
8.84174e-12
-2.63188e-12
1.71823e-08
7.80999e-12
-2.35244e-12
1.71766e-08
-1.99217e-12
1.71615e-08
6.32818e-12
9.68332e-12
-3.13433e-12
1.71869e-08
9.11451e-12
-3.05196e-12
1.71846e-08
8.14288e-12
-2.8548e-12
1.7181e-08
-2.52032e-12
1.71722e-08
6.77674e-12
9.76364e-12
1.71877e-08
9.29113e-12
1.71855e-08
8.39754e-12
1.71825e-08
1.71758e-08
7.12604e-12
5.98122e-12
-1.57561e-12
1.71803e-08
1.23525e-12
5.52371e-12
-1.34695e-12
1.71757e-08
9.33448e-13
4.81658e-12
-1.10107e-12
1.7164e-08
6.26425e-13
-8.96308e-13
1.71313e-08
4.49801e-13
3.83782e-12
6.18579e-12
-1.82248e-12
1.71858e-08
5.77703e-12
-1.686e-12
1.71832e-08
5.11786e-12
-1.49572e-12
1.71778e-08
-1.2624e-12
1.7163e-08
4.16481e-12
6.33301e-12
-2.04318e-12
1.71873e-08
5.96174e-12
-1.97529e-12
1.71853e-08
5.33536e-12
-1.84231e-12
1.71821e-08
-1.63132e-12
1.71736e-08
4.45281e-12
6.39981e-12
1.7188e-08
6.08159e-12
1.71861e-08
5.49725e-12
1.71835e-08
1.71771e-08
4.67197e-12
3.48919e-12
-7.24064e-13
1.71806e-08
5.56107e-13
3.24513e-12
-5.99769e-13
1.71762e-08
3.80549e-13
2.85353e-12
-4.55658e-13
1.71647e-08
1.9882e-13
-3.39851e-13
1.71322e-08
1.02063e-13
2.29741e-12
3.61721e-12
-8.5916e-13
1.7186e-08
3.38986e-12
-7.75367e-13
1.71836e-08
3.0171e-12
-6.68174e-13
1.71785e-08
-5.4638e-13
1.71638e-08
2.47528e-12
3.70006e-12
-9.84011e-13
1.71875e-08
3.49329e-12
-9.43119e-13
1.71857e-08
3.13823e-12
-8.70613e-13
1.71827e-08
-7.58928e-13
1.71744e-08
2.62986e-12
3.74179e-12
1.71881e-08
3.55986e-12
1.71865e-08
3.22124e-12
1.71841e-08
1.71778e-08
2.74281e-12
1.91298e-12
2.98401e-13
-2.89803e-13
1.83075e-12
3.5484e-13
-3.73849e-13
1.66106e-12
4.09925e-13
-4.49342e-13
4.44879e-13
-4.73069e-13
1.38848e-12
1.97163e-12
2.96134e-13
1.88784e-12
3.2484e-13
1.72005e-12
3.56818e-13
3.88879e-13
1.45971e-12
2.00219e-12
2.68321e-13
1.91891e-12
2.73836e-13
1.751e-12
2.85203e-13
3.02882e-13
1.49837e-12
2.00961e-12
1.9291e-12
1.75954e-12
1.50964e-12
-7.21575e-10
-2.16339e-09
3.03668e-08
7.84655e-10
3.17586e-09
1.84136e-08
1.82329e-09
4.94448e-09
1.4375e-08
-2.82318e-09
1.95815e-08
1.50454e-09
1.82062e-09
1.31649e-09
1.69603e-08
2.75476e-09
-3.71745e-09
2.67558e-08
9.33877e-10
-2.22865e-09
2.71287e-08
-1.05033e-09
1.25223e-08
9.11792e-10
-1.20276e-09
3.19551e-10
2.2475e-08
2.70414e-09
9.1774e-10
1.00074e-08
9.61432e-10
-3.29324e-09
1.87597e-08
-4.07247e-09
1.55887e-08
5.94022e-10
-1.29014e-09
2.14313e-08
1.04872e-09
1.48744e-08
-9.50565e-11
1.28722e-08
5.26888e-09
1.07132e-09
3.23258e-09
3.74147e-09
1.76851e-08
3.07844e-10
-2.89656e-09
2.43204e-08
1.02496e-09
-3.73831e-09
1.74054e-08
-2.03657e-09
2.33866e-08
-7.23164e-10
3.13406e-11
6.2887e-10
1.70082e-08
-4.78527e-10
1.97676e-09
2.23923e-08
1.23255e-09
6.74038e-10
2.10053e-08
-2.06366e-09
1.38132e-08
-3.13024e-11
9.78934e-10
-2.6329e-10
2.22625e-08
-1.13257e-09
-5.7491e-10
1.46706e-08
8.13479e-10
-1.19897e-10
1.76076e-08
4.49947e-09
7.8864e-09
1.95262e-09
3.09745e-10
1.41263e-08
-4.7869e-10
1.58765e-08
2.84379e-09
8.26068e-09
1.43444e-08
3.38575e-10
1.95243e-09
1.66296e-09
1.00772e-08
2.1135e-10
-9.4535e-10
2.71258e-08
5.9695e-10
2.09982e-10
1.70271e-08
-2.03017e-09
2.58657e-08
1.35832e-10
9.07523e-10
2.99941e-09
1.34264e-08
8.96759e-10
8.07806e-10
2.06499e-08
2.95856e-10
1.06577e-10
2.17096e-08
-4.50129e-10
1.22841e-08
2.44974e-10
-4.99422e-10
1.7112e-10
2.55819e-08
4.04551e-10
8.29413e-10
1.3745e-08
1.2995e-10
1.99618e-09
1.59926e-08
1.75907e-09
5.37189e-09
4.35264e-10
1.51489e-09
8.24291e-09
1.83841e-09
1.44085e-08
-5.39909e-10
1.30392e-08
1.33155e-08
7.56587e-10
5.28276e-11
2.19778e-10
9.3621e-09
5.06716e-10
-7.93115e-10
2.756e-08
-6.68309e-10
-2.65931e-09
2.09654e-08
-1.52188e-09
2.68044e-08
6.35071e-11
-6.85073e-10
-4.95102e-10
1.54399e-08
-3.24439e-10
3.27312e-10
1.91689e-08
1.78362e-10
2.46114e-09
1.60863e-08
2.06256e-09
8.57629e-09
3.01734e-10
-8.24901e-10
-3.0638e-10
2.70479e-08
6.26593e-10
9.80948e-10
1.16399e-08
5.7642e-10
1.26354e-10
1.83776e-08
-7.15828e-10
9.15622e-09
-4.29527e-10
1.29494e-10
1.00574e-08
-3.14574e-10
1.60711e-08
3.04844e-10
1.23935e-08
1.32749e-08
-1.01295e-09
-1.50201e-10
4.0541e-09
5.90955e-09
-4.00573e-10
2.23457e-09
2.57637e-08
3.01475e-10
1.79789e-09
1.85349e-08
4.22176e-09
2.10925e-08
1.91894e-09
-1.99025e-09
-4.73528e-09
2.89356e-08
-5.21363e-10
1.26519e-09
1.86694e-08
5.78148e-10
1.21857e-09
1.55661e-08
8.45894e-10
1.25512e-08
-2.08816e-11
8.24081e-10
1.17669e-09
1.91651e-08
-1.29744e-09
-5.60359e-10
1.55869e-08
7.60906e-10
-6.1344e-10
1.81512e-08
4.76544e-10
1.0899e-08
-6.12558e-10
-5.45192e-10
1.10391e-08
-1.8226e-09
1.72948e-08
1.44266e-09
7.27003e-09
1.33983e-08
-2.71117e-10
1.66637e-09
1.0789e-08
-7.08309e-09
1.83403e-10
7.90488e-09
1.91761e-08
1.44417e-09
2.02278e-09
1.53395e-08
-5.73622e-10
2.17619e-08
1.47517e-09
4.22519e-10
3.8484e-09
3.70387e-08
-1.74219e-09
3.00713e-09
2.57318e-08
8.26576e-10
3.52619e-09
1.1494e-08
4.6474e-09
7.41037e-09
7.46364e-10
-8.22501e-11
1.14765e-09
2.1434e-08
-1.85676e-09
-1.78846e-09
2.2157e-08
6.22741e-10
2.87405e-09
1.63239e-08
-1.25137e-09
1.74831e-08
-6.25214e-11
-2.08888e-09
1.77152e-08
7.31937e-10
1.13316e-08
-1.55659e-09
1.38592e-08
8.83483e-09
6.64036e-10
3.57402e-09
-3.86667e-09
5.03934e-09
-2.89301e-09
-1.02175e-09
2.28834e-08
-1.03049e-09
1.28365e-09
1.42428e-08
1.7169e-09
1.80842e-08
-2.00474e-10
1.1244e-09
2.66259e-09
2.98949e-08
4.67562e-11
1.15177e-09
2.4636e-08
-2.0522e-10
1.30441e-09
1.17251e-08
1.48686e-10
8.84349e-09
-7.01571e-11
-2.35452e-10
-2.50345e-09
2.45905e-08
-1.96419e-10
-2.12731e-09
2.5397e-08
-1.30183e-09
3.37764e-09
1.5356e-08
1.52707e-09
1.46272e-08
1.75696e-10
-6.65093e-09
2.24028e-08
-5.31879e-09
1.28774e-08
-1.41847e-09
1.25703e-08
9.90146e-09
-6.41824e-10
4.84943e-09
5.93083e-09
-4.04084e-09
8.11189e-10
-1.33356e-09
2.82552e-08
-9.84042e-10
-3.47596e-10
1.63856e-08
6.14663e-10
1.74685e-08
-9.83018e-10
1.95103e-09
4.63833e-09
2.64239e-08
1.09481e-09
-1.1489e-10
2.42735e-08
-4.77906e-10
-8.1428e-10
1.37646e-08
-1.61069e-09
1.15339e-08
-9.43005e-10
5.28126e-10
2.01124e-09
2.46561e-08
7.00343e-10
1.3607e-09
2.37492e-08
-7.95697e-10
-3.22741e-10
1.63605e-08
-1.92066e-10
1.29742e-08
-5.61405e-10
-2.62386e-11
2.15287e-08
-1.66879e-09
1.77252e-08
-9.24642e-10
1.27286e-08
1.07601e-08
-8.60765e-10
-3.50603e-09
-1.177e-08
1.68076e-08
-8.13736e-10
1.20651e-09
2.43564e-08
-5.99802e-10
-1.06024e-09
1.72319e-08
1.511e-09
1.58099e-08
-4.52215e-10
-1.45163e-09
-6.06767e-09
2.3237e-08
1.07388e-09
6.8048e-10
2.2274e-08
-1.56752e-10
-2.14665e-09
1.60816e-08
-2.14691e-10
1.35116e-08
-4.08664e-10
-5.03745e-10
-2.19145e-09
2.17675e-08
1.2931e-09
2.07507e-09
2.05577e-08
9.69532e-11
-2.00244e-10
1.56102e-08
4.97873e-10
1.21512e-08
2.0737e-10
6.19106e-10
1.93743e-08
1.43273e-09
1.73013e-08
1.74332e-10
1.33543e-08
9.96705e-09
4.81731e-10
-1.83261e-10
-3.14409e-09
2.12767e-08
4.15382e-10
9.48266e-11
2.3663e-08
-2.3165e-11
-9.23979e-10
1.85944e-08
-1.69161e-11
1.60622e-08
-2.58548e-10
1.86891e-10
-1.79804e-09
2.1959e-08
9.27743e-10
1.9719e-10
2.14308e-08
5.48757e-11
-1.0259e-09
1.70564e-08
-1.94377e-10
1.39641e-08
-2.20198e-10
3.23291e-10
-5.92849e-10
2.05013e-08
9.83688e-10
7.14801e-10
1.93797e-08
1.79521e-10
-2.79019e-10
1.56674e-08
2.72407e-11
1.21589e-08
-4.98357e-11
5.66265e-10
1.83622e-08
9.87281e-10
1.6879e-08
2.93287e-10
1.36925e-08
1.01221e-08
6.92276e-11
-3.64315e-11
-1.09488e-09
2.30981e-08
2.29661e-10
2.65618e-10
2.31314e-08
-6.55327e-11
-2.90505e-10
1.91802e-08
2.11798e-10
1.58638e-08
-7.89945e-11
9.09202e-11
-8.70099e-10
2.21191e-08
3.82054e-10
1.80154e-10
2.12252e-08
-4.79623e-11
-4.42506e-10
1.76385e-08
1.00871e-10
1.40912e-08
-6.41393e-11
1.81797e-10
-4.03537e-10
2.02963e-08
4.17658e-10
2.55783e-10
1.90682e-08
7.99513e-12
-2.13586e-10
1.58481e-08
1.10008e-10
1.21469e-08
1.08292e-11
2.94468e-10
1.80878e-08
4.33625e-10
1.67133e-08
7.3328e-11
1.38133e-08
1.00915e-08
4.79963e-11
5.58607e-11
-4.53085e-10
2.38341e-08
2.06793e-10
5.19024e-11
2.29286e-08
2.02818e-11
-2.04562e-10
1.95713e-08
-2.095e-12
1.59152e-08
-2.89756e-11
8.96931e-11
-3.87527e-10
2.22656e-08
2.48164e-10
5.96572e-11
2.10591e-08
1.80364e-11
-2.20879e-10
1.78851e-08
9.55947e-13
1.41289e-08
-2.26815e-11
1.38232e-10
-2.01774e-10
2.02589e-08
2.59641e-10
7.55546e-11
1.8931e-08
4.02017e-11
-1.35414e-10
1.59821e-08
-8.25628e-12
1.21944e-08
1.89586e-12
1.89916e-10
1.80056e-08
2.54341e-10
1.6651e-08
7.00604e-11
1.39094e-08
1.01585e-08
9.98469e-12
5.75298e-11
-1.68556e-10
2.41418e-08
1.20219e-10
1.86951e-11
2.28472e-08
1.89588e-11
-8.33219e-11
1.97559e-08
5.51195e-12
1.59274e-08
1.3689e-12
7.18222e-11
-1.64498e-10
2.23821e-08
1.32393e-10
1.18092e-11
2.10055e-08
1.60803e-11
-1.03701e-10
1.80219e-08
-6.71026e-12
1.41563e-08
9.63765e-13
9.69158e-11
-1.00599e-10
2.02847e-08
1.3591e-10
6.99311e-12
1.88969e-08
2.51578e-11
-7.69187e-11
1.60662e-08
-1.90006e-11
1.2226e-08
5.89027e-12
1.2279e-10
1.79972e-08
1.33058e-10
1.66415e-08
3.87969e-11
1.39643e-08
1.01918e-08
7.43419e-12
5.32959e-11
-6.67761e-11
2.42752e-08
7.63457e-11
1.2489e-13
2.28241e-08
2.22163e-11
-3.9949e-11
1.98501e-08
-6.61547e-12
1.59466e-08
9.63139e-12
5.92145e-11
-7.18416e-11
2.24497e-08
7.8855e-11
-8.94784e-12
2.09951e-08
1.91251e-11
-5.13991e-11
1.80932e-08
-1.54062e-11
1.41771e-08
7.20092e-12
7.27562e-11
-5.07573e-11
2.03117e-08
7.94151e-11
-1.3769e-11
1.88952e-08
2.31325e-11
-4.27851e-11
1.6114e-08
-2.17487e-11
1.22479e-08
7.65568e-12
8.60446e-11
1.80046e-08
7.86298e-11
1.66473e-08
2.99952e-11
1.3996e-08
1.0213e-08
7.34266e-12
4.47473e-11
-2.81487e-11
2.43348e-08
4.92412e-11
-5.85101e-12
2.28256e-08
2.0412e-11
-1.97175e-11
1.98987e-08
-7.04814e-12
1.59635e-08
1.06716e-11
4.78131e-11
-3.31141e-11
2.24853e-08
4.93031e-11
-1.29414e-11
2.10008e-08
1.82578e-11
-2.66847e-11
1.81313e-08
-1.36561e-11
1.41937e-08
8.40381e-12
5.53375e-11
-2.69371e-11
2.03297e-08
4.98671e-11
-1.55399e-11
1.89033e-08
2.04203e-11
-2.44157e-11
1.61413e-08
-1.68417e-11
1.22636e-08
7.97922e-12
6.2207e-11
1.80129e-08
5.07892e-11
1.66563e-08
2.3937e-11
1.40149e-08
1.02268e-08
7.46496e-12
3.54697e-11
-1.28277e-11
2.43621e-08
3.28258e-11
-6.0001e-12
2.28343e-08
1.72768e-11
-1.04721e-11
1.99248e-08
-5.71817e-12
1.59771e-08
9.4467e-12
3.7213e-11
-1.66283e-11
2.25038e-08
3.25304e-11
-1.09574e-11
2.10106e-08
1.58479e-11
-1.49706e-11
1.81526e-08
-1.00924e-11
1.42062e-08
7.78801e-12
4.14345e-11
-1.54857e-11
2.03407e-08
3.34582e-11
-1.2261e-11
1.89127e-08
1.70021e-11
-1.45568e-11
1.61574e-08
-1.14811e-11
1.22747e-08
7.36098e-12
4.51152e-11
1.80193e-08
3.49774e-11
1.66644e-08
1.88793e-11
1.40267e-08
1.02359e-08
7.19603e-12
2.68766e-11
-6.54203e-12
2.43755e-08
2.26577e-11
-4.71154e-12
2.28433e-08
1.37193e-11
-6.01828e-12
1.99399e-08
-4.13073e-12
1.59873e-08
7.75076e-12
2.79213e-11
-9.33809e-12
2.25139e-08
2.24527e-11
-7.99032e-12
2.10194e-08
1.2782e-11
-9.03407e-12
1.81654e-08
-6.92927e-12
1.42153e-08
6.59668e-12
3.04022e-11
-9.62847e-12
2.03476e-08
2.34727e-11
-8.69153e-12
1.89205e-08
1.34419e-11
-9.02972e-12
1.61676e-08
-7.4908e-12
1.22825e-08
6.31082e-12
3.26096e-11
1.80238e-08
2.49254e-11
1.66707e-08
1.45804e-11
1.40344e-08
1.02421e-08
6.24813e-12
1.97238e-11
-3.72079e-12
2.43827e-08
1.60066e-11
-3.37014e-12
2.28505e-08
1.04657e-11
-3.73161e-12
1.99492e-08
-2.86894e-12
1.59946e-08
6.08578e-12
2.0413e-11
-5.72199e-12
2.25199e-08
1.59247e-11
-5.52858e-12
2.10262e-08
9.85217e-12
-5.74446e-12
1.81735e-08
-4.66425e-12
1.42218e-08
5.3024e-12
2.20027e-11
-6.30708e-12
2.03521e-08
1.68139e-11
-5.96292e-12
1.89262e-08
1.02787e-11
-5.77278e-12
1.61743e-08
-4.86144e-12
1.2288e-08
5.11499e-12
2.34801e-11
1.8027e-08
1.79876e-11
1.66752e-08
1.10457e-11
1.40396e-08
1.02465e-08
5.07486e-12
1.41773e-11
-2.3178e-12
2.4387e-08
1.13903e-11
-2.33627e-12
2.28556e-08
7.76458e-12
-2.42362e-12
1.99553e-08
-1.9738e-12
1.59998e-08
4.62306e-12
1.46653e-11
-3.72247e-12
2.25237e-08
1.13762e-11
-3.77847e-12
2.1031e-08
7.36373e-12
-3.77733e-12
1.8179e-08
-3.14289e-12
1.42264e-08
4.09154e-12
1.57514e-11
-4.2629e-12
2.03551e-08
1.20725e-11
-4.06893e-12
1.89303e-08
7.66121e-12
-3.77972e-12
1.61789e-08
-3.18525e-12
1.22919e-08
3.96246e-12
1.67985e-11
1.80292e-08
1.29596e-11
1.66784e-08
8.2006e-12
1.40432e-08
1.02495e-08
3.92367e-12
1.00006e-11
-1.51598e-12
2.43897e-08
8.04111e-12
-1.59941e-12
2.28593e-08
5.61166e-12
-1.61465e-12
1.99594e-08
-1.3539e-12
1.60035e-08
3.39942e-12
1.03541e-11
-2.48829e-12
2.25262e-08
8.05601e-12
-2.5718e-12
2.10344e-08
5.34909e-12
-2.52529e-12
1.81827e-08
-2.12355e-12
1.42296e-08
3.04037e-12
1.11122e-11
-2.91113e-12
2.03571e-08
8.5699e-12
-2.77396e-12
1.89332e-08
5.56228e-12
-2.50908e-12
1.6182e-08
-2.10541e-12
1.22946e-08
2.94796e-12
1.18616e-11
1.80308e-08
9.21514e-12
1.66806e-08
5.94305e-12
1.40457e-08
1.02516e-08
2.90795e-12
6.85644e-12
-9.99941e-13
2.43915e-08
5.53384e-12
-1.07308e-12
2.28617e-08
3.91548e-12
-1.07297e-12
1.99622e-08
-9.14592e-13
1.6006e-08
2.40128e-12
7.10758e-12
-1.65813e-12
2.25279e-08
5.5567e-12
-1.72229e-12
2.10367e-08
3.74482e-12
-1.67769e-12
1.81852e-08
-1.41677e-12
1.42318e-08
2.16313e-12
7.62926e-12
-1.96654e-12
2.03586e-08
5.91723e-12
-1.86039e-12
1.89351e-08
3.89546e-12
-1.65447e-12
1.61842e-08
-1.37902e-12
1.22964e-08
2.09703e-12
8.15036e-12
1.80318e-08
6.36876e-12
1.66822e-08
4.15934e-12
1.40474e-08
1.02531e-08
2.05861e-12
4.44939e-12
-6.23334e-13
2.43926e-08
3.60789e-12
-6.73229e-13
2.28633e-08
2.57692e-12
-6.7352e-13
1.99639e-08
-5.81071e-13
1.60076e-08
1.59646e-12
4.61828e-12
-1.03932e-12
2.2529e-08
3.62974e-12
-1.08235e-12
2.10381e-08
2.47209e-12
-1.05329e-12
1.81869e-08
-8.90544e-13
1.42333e-08
1.44762e-12
4.95891e-12
-1.24021e-12
2.03595e-08
3.86744e-12
-1.16747e-12
1.89364e-08
2.57358e-12
-1.02728e-12
1.61856e-08
-8.46509e-13
1.22977e-08
1.40351e-12
5.29876e-12
1.80326e-08
4.16423e-12
1.66832e-08
2.74844e-12
1.40485e-08
1.02541e-08
1.37167e-12
2.61025e-12
-2.83515e-13
2.43931e-08
2.14843e-12
-3.16814e-13
2.28641e-08
1.56436e-12
-3.24933e-13
1.99649e-08
-2.87653e-13
1.60085e-08
9.93205e-13
2.71818e-12
-4.78929e-13
2.25295e-08
2.17367e-12
-5.09034e-13
2.10389e-08
1.51739e-12
-5.01651e-13
1.81877e-08
-4.21948e-13
1.42341e-08
9.18341e-13
2.92135e-12
-5.66961e-13
2.03599e-08
2.32012e-12
-5.24238e-13
1.89371e-08
1.58544e-12
-4.46289e-13
1.61863e-08
-3.55516e-13
1.22983e-08
9.00845e-13
3.11772e-12
1.80329e-08
2.49514e-12
1.66837e-08
1.69458e-12
1.40491e-08
1.02546e-08
8.85996e-13
1.48741e-12
6.57088e-14
1.32449e-12
3.52022e-14
1.04587e-12
1.49219e-14
7.66446e-15
7.3198e-13
1.57518e-12
1.58186e-13
1.37656e-12
1.23464e-13
1.06148e-12
9.42126e-14
8.18904e-14
7.24259e-13
1.69588e-12
2.33052e-13
1.47567e-12
2.3831e-13
1.12525e-12
2.46848e-13
2.45863e-13
7.44143e-13
1.80217e-12
1.57454e-12
1.20028e-12
7.67838e-13
3.87324e-09
4.11477e-10
1.14936e-08
2.88894e-09
-3.46641e-10
1.40982e-08
6.41405e-09
2.87297e-10
1.14421e-08
2.1274e-09
2.21988e-08
1.46128e-09
6.90653e-10
1.33088e-08
2.09718e-09
3.27614e-09
1.16635e-08
3.77111e-09
2.41427e-09
1.4358e-08
-3.80642e-10
2.63931e-08
5.94589e-09
-4.03827e-10
1.16057e-08
4.93471e-09
-1.29141e-09
2.43667e-08
1.15612e-09
-3.77881e-10
2.75445e-08
3.25826e-10
2.3811e-08
3.93511e-09
9.12171e-09
6.40825e-09
1.6572e-08
2.64746e-09
2.60509e-08
2.76426e-08
-4.9491e-12
2.55116e-10
1.27321e-08
-2.05623e-09
1.93819e-09
1.6164e-08
-8.14203e-10
2.90519e-09
7.26355e-09
3.60641e-09
1.71184e-08
1.97209e-09
5.13413e-10
1.20322e-08
1.40924e-09
-7.92726e-10
1.49572e-08
-6.88552e-10
-2.42028e-10
1.9603e-08
6.85608e-10
2.8648e-08
1.03485e-09
1.56739e-09
1.22657e-08
2.60055e-09
-4.65026e-10
2.24733e-08
8.99143e-10
-5.94351e-10
2.95983e-08
2.97051e-09
2.23989e-08
-1.13461e-09
2.04835e-08
2.46265e-10
1.54055e-08
6.54234e-09
1.71674e-08
4.04629e-08
-5.44104e-10
2.25715e-10
1.31201e-08
1.58122e-10
1.35991e-09
1.45371e-08
1.20023e-09
6.12784e-10
5.85364e-09
-5.93861e-10
1.90158e-08
1.80398e-09
1.48764e-09
8.91876e-09
1.98555e-09
1.01429e-09
1.51213e-08
-3.32081e-09
2.79835e-09
2.27238e-08
5.35665e-09
1.94404e-08
3.6558e-10
1.12317e-09
1.36992e-08
7.0952e-09
2.14233e-09
1.46156e-08
7.34572e-09
1.34134e-09
3.08048e-08
4.90384e-09
3.01061e-08
3.52848e-09
2.23043e-08
3.99118e-09
1.67084e-08
1.65166e-08
8.87504e-09
7.34514e-08
3.93535e-09
1.12229e-09
4.22552e-09
4.61838e-10
9.03234e-10
1.66779e-08
-7.15105e-10
2.43958e-09
4.89274e-09
2.09079e-09
1.62909e-08
2.8953e-10
4.34634e-10
1.04114e-08
5.06718e-09
9.25288e-10
1.03216e-08
1.05648e-09
4.71255e-09
2.44615e-08
2.65066e-09
2.0068e-08
6.94727e-10
-1.18703e-09
1.3553e-08
2.9033e-09
-4.32411e-10
1.37648e-08
8.09021e-10
9.62749e-10
3.66489e-08
1.43027e-08
1.92295e-08
7.79287e-10
1.61356e-08
2.0272e-09
1.52101e-08
2.04538e-09
1.21197e-08
8.83495e-08
-4.08911e-10
8.20238e-10
2.60913e-09
1.3533e-09
1.03365e-09
1.32694e-08
3.01528e-09
-1.32002e-10
3.34188e-09
-2.33073e-09
2.35733e-08
-4.2037e-10
-5.28868e-10
1.47587e-08
-1.25764e-09
-1.47449e-09
1.3667e-08
-7.65735e-10
-3.3605e-09
2.71981e-08
-3.14696e-09
2.02422e-08
-2.0553e-09
-5.06068e-10
1.52943e-08
-3.30376e-09
1.69614e-10
1.33691e-08
-4.50156e-09
-1.8644e-09
3.63506e-08
-6.90378e-09
1.85699e-08
-1.27703e-09
1.24104e-08
-4.91816e-09
1.78703e-08
-2.17015e-08
2.30756e-08
5.33686e-08
-1.82113e-09
-1.1718e-09
7.3071e-09
1.93789e-10
-6.79536e-10
1.18715e-08
-2.51934e-09
-4.83556e-10
7.28493e-09
2.19625e-09
2.04584e-08
-6.72655e-10
3.8111e-11
1.53935e-08
1.3675e-09