/*--------------------------------*- C++ -*----------------------------------*\
| =========                 |                                                 |
| \\      /  F ield         | OpenFOAM: The Open Source CFD Toolbox           |
|  \\    /   O peration     | Version:  2506                                  |
|   \\  /    A nd           | Website:  www.openfoam.com                      |
|    \\/     M anipulation  |                                                 |
\*---------------------------------------------------------------------------*/
FoamFile
{
    version     2.0;
    format      ascii;
    arch        "LSB;label=32;scalar=64";
    class       volVectorField;
    location    "0.02";
    object      Us;
}
// * * * * * * * * * * * * * * * * * * * * * * * * * * * * * * * * * * * * * //

dimensions      [0 1 -1 0 0 0 0];

internalField   nonuniform List<vector> 
1152
(
(0.000276778 -0.00012618 4.86707e-05)
(7.03622e-05 1.31052e-05 6.59075e-05)
(-0.000103285 -6.27991e-05 3.08984e-05)
(-6.04304e-05 -2.59109e-06 6.05734e-05)
(5.44475e-05 -2.42222e-05 3.54365e-05)
(6.21754e-05 -5.78198e-05 1.31831e-05)
(3.93875e-06 -4.43803e-05 1.88245e-05)
(3.91601e-05 -1.12067e-05 5.32118e-05)
(-1.18557e-05 -2.64917e-05 3.79479e-05)
(-1.78933e-05 -2.07037e-05 -4.67153e-06)
(0.000218026 0.000246246 -1.06757e-06)
(-8.19855e-05 1.92035e-05 1.48199e-05)
(0.000751582 0.000321376 -0.000443928)
(-1.64005e-05 3.94254e-05 1.40761e-05)
(-0.000154041 0.000246532 -1.06378e-05)
(-7.83728e-05 4.52291e-05 -1.71841e-05)
(-1.26919e-05 8.4804e-05 0.00017319)
(-5.39352e-06 0.000101135 0.000155532)
(-1.97667e-05 4.68248e-05 0.000128947)
(3.07279e-06 4.62961e-05 0.000155196)
(2.6045e-05 -6.88559e-07 0.000146639)
(3.44133e-05 3.50012e-05 0.000102628)
(6.01274e-05 -9.23939e-06 8.54996e-05)
(2.17115e-05 4.14811e-05 0.000139168)
(4.63782e-05 1.41426e-06 0.000105751)
(-1.30705e-06 3.51024e-05 9.38871e-05)
(3.84102e-05 5.41169e-06 9.97821e-05)
(2.10662e-05 7.90189e-05 0.00011632)
(6.72292e-05 6.54367e-05 0.000107981)
(-5.96859e-05 6.59373e-05 0.000123042)
(1.36523e-06 2.73254e-05 0.000153989)
(6.65467e-06 0.000111167 9.07393e-05)
(-1.41681e-05 5.43585e-05 0.000343122)
(-1.97655e-06 5.89344e-05 0.000320638)
(5.18852e-06 7.92608e-05 0.000296759)
(3.56008e-05 6.10919e-06 0.000262516)
(-2.56422e-05 -4.96389e-05 0.00028299)
(-8.64097e-05 7.28353e-06 0.000272639)
(-2.07945e-05 1.11099e-05 0.000235463)
(2.693e-05 -2.27066e-05 0.000220034)
(-8.0922e-05 5.03933e-06 0.000329313)
(-3.14952e-05 -1.77519e-05 0.000206929)
(-2.37718e-05 6.87679e-06 0.000217105)
(4.83553e-05 7.09702e-06 0.000220297)
(-1.8215e-05 -6.71079e-06 0.000291487)
(2.60059e-05 5.2057e-05 0.000291653)
(9.40888e-05 4.6282e-05 0.000152788)
(7.8811e-05 5.42977e-05 0.000312425)
(-4.0907e-05 -3.93148e-05 0.00049977)
(-2.48632e-05 -2.56214e-05 0.000449982)
(5.39015e-06 -5.68109e-05 0.000392344)
(-1.15438e-05 -5.91735e-05 0.000385439)
(-1.2671e-05 -5.60739e-05 0.000446182)
(-9.70456e-06 -7.93035e-05 0.000422387)
(4.26236e-05 -6.70643e-05 0.000346451)
(8.57316e-05 -5.49154e-05 0.000312957)
(-2.85911e-05 -3.64058e-05 0.000467079)
(3.58062e-05 -1.17802e-05 0.000412183)
(9.96189e-05 -1.25693e-05 0.000353134)
(0.000166451 -4.83034e-05 0.000274266)
(-5.52311e-05 9.57103e-05 0.000528857)
(0.000155532 5.7452e-05 0.000420929)
(0.000241721 0.000160741 0.000331505)
(0.000177014 1.6327e-05 0.000330218)
(-5.33178e-05 -6.25062e-05 0.000558751)
(-5.08022e-05 -4.92129e-05 0.000516251)
(-7.02843e-05 -8.12877e-05 0.000442816)
(-4.83044e-05 -6.53632e-07 0.000475656)
(-2.13143e-05 -6.30105e-05 0.000550639)
(-5.86923e-06 -6.91398e-05 0.000553031)
(2.56869e-05 -4.67645e-05 0.000462108)
(3.99532e-05 2.21799e-05 0.000393752)
(-0.000101649 -9.05562e-05 0.00061415)
(5.36569e-06 -0.000134021 0.000584957)
(7.19341e-05 -2.15786e-05 0.000445885)
(8.43297e-05 -1.9541e-05 0.000370473)
(7.71187e-05 2.10066e-05 0.000675336)
(-2.09014e-07 -0.000122504 0.000516855)
(0.000134007 6.38153e-05 0.000492406)
(0.000192012 -5.3436e-05 0.00043356)
(-0.000136074 4.64383e-05 0.000617646)
(-0.000118847 0.000123932 0.000454757)
(-0.000140587 0.00012053 0.000475789)
(-0.000140436 6.35524e-05 0.00037329)
(-0.0001338 -6.74467e-05 0.000624261)
(-4.08802e-05 9.67679e-05 0.000561321)
(8.09058e-06 0.000136876 0.000438853)
(1.47173e-05 8.6219e-05 0.000286141)
(-2.75557e-05 -6.95621e-06 0.000569729)
(7.62177e-05 9.76989e-05 0.000555647)
(0.000159265 0.000148458 0.000574873)
(4.20492e-05 9.56032e-05 0.000493392)
(0.000135273 -8.53947e-06 0.00050593)
(9.06193e-05 0.000111061 0.000564727)
(0.000122446 0.000121086 0.000769188)
(0.000220112 -3.74228e-06 0.000552998)
(-0.00031999 -0.000111174 0.000153699)
(-0.000904976 -0.00023995 -7.8436e-05)
(-0.00041284 0.000289413 0.000372278)
(-0.000898863 0.000220235 0.000269151)
(-0.000199283 0.000432217 0.000578372)
(8.34238e-05 -0.00091924 -0.000553078)
(1.97826e-05 0.000118344 0.000412654)
(0.000215803 0.000548556 3.27956e-06)
(-0.000519352 0.000644596 0.000573543)
(0.00013649 0.000135464 0.000393529)
(-0.000252009 -0.00036825 0.000477873)
(0.000466456 0.000144108 0.000491385)
(-0.000249872 0.000869251 6.13912e-06)
(0.00165302 -0.00103187 0.000971979)
(0.000395345 0.00023229 0.000627536)
(0.000101094 3.01854e-05 0.000885644)
(0 0 0)
(0 0 0)
(0 0 0)
(0 0 0)
(0 0 0)
(0 0 0)
(0 0 0)
(0 0 0)
(0 0 0)
(0 0 0)
(0 0 0)
(0 0 0)
(0.00203561 -0.00158387 0.000707028)
(0 0 0)
(0 0 0)
(0 0 0)
(0 0 0)
(0 0 0)
(0 0 0)
(0 0 0)
(0 0 0)
(0 0 0)
(0 0 0)
(0 0 0)
(0 0 0)
(0 0 0)
(0 0 0)
(0 0 0)
(0 0 0)
(0 0 0)
(0 0 0)
(0 0 0)
(0 0 0)
(0 0 0)
(0 0 0)
(0 0 0)
(0 0 0)
(0 0 0)
(0 0 0)
(0 0 0)
(0 0 0)
(0 0 0)
(0 0 0)
(0 0 0)
(0 0 0)
(0 0 0)
(0 0 0)
(0 0 0)
(0 0 0)
(0 0 0)
(0 0 0)
(0 0 0)
(0 0 0)
(0 0 0)
(0 0 0)
(0 0 0)
(0 0 0)
(0 0 0)
(0 0 0)
(0 0 0)
(0 0 0)
(0 0 0)
(0 0 0)
(0 0 0)
(0 0 0)
(0 0 0)
(0 0 0)
(0 0 0)
(0 0 0)
(0 0 0)
(0 0 0)
(0 0 0)
(0 0 0)
(0 0 0)
(0 0 0)
(0 0 0)
(0 0 0)
(0 0 0)
(0 0 0)
(0 0 0)
(0 0 0)
(0 0 0)
(0 0 0)
(0 0 0)
(0 0 0)
(0 0 0)
(0 0 0)
(0 0 0)
(0 0 0)
(0 0 0)
(0 0 0)
(0 0 0)
(0 0 0)
(0 0 0)
(0 0 0)
(0 0 0)
(0 0 0)
(0 0 0)
(0 0 0)
(0 0 0)
(0 0 0)
(0 0 0)
(0 0 0)
(0 0 0)
(0 0 0)
(0 0 0)
(0 0 0)
(0 0 0)
(0 0 0)
(0 0 0)
(0 0 0)
(0 0 0)
(0 0 0)
(0 0 0)
(0 0 0)
(0 0 0)
(0 0 0)
(0 0 0)
(0 0 0)
(0 0 0)
(0 0 0)
(0 0 0)
(0 0 0)
(0 0 0)
(0 0 0)
(0 0 0)
(0 0 0)
(0 0 0)
(0 0 0)
(0 0 0)
(0 0 0)
(0 0 0)
(0 0 0)
(0 0 0)
(0 0 0)
(0 0 0)
(0 0 0)
(0 0 0)
(0 0 0)
(0 0 0)
(0 0 0)
(0 0 0)
(0 0 0)
(0 0 0)
(0 0 0)
(0 0 0)
(0 0 0)
(0 0 0)
(0 0 0)
(0 0 0)
(0 0 0)
(0 0 0)
(0 0 0)
(0 0 0)
(0 0 0)
(0 0 0)
(0 0 0)
(0 0 0)
(0 0 0)
(0 0 0)
(0 0 0)
(0 0 0)
(0 0 0)
(0 0 0)
(0 0 0)
(0 0 0)
(0 0 0)
(0 0 0)
(0 0 0)
(0 0 0)
(0 0 0)
(0 0 0)
(0 0 0)
(0 0 0)
(0 0 0)
(0 0 0)
(0 0 0)
(0 0 0)
(0 0 0)
(0 0 0)
(0 0 0)
(0 0 0)
(0 0 0)
(0 0 0)
(0 0 0)
(0 0 0)
(0 0 0)
(0 0 0)
(0 0 0)
(0 0 0)
(0 0 0)
(0 0 0)
(0 0 0)
(0 0 0)
(0 0 0)
(0 0 0)
(0 0 0)
(0 0 0)
(0 0 0)
(0 0 0)
(0 0 0)
(0 0 0)
(0 0 0)
(0 0 0)
(0 0 0)
(0 0 0)
(0 0 0)
(0 0 0)
(0 0 0)
(0 0 0)
(0 0 0)
(0 0 0)
(0 0 0)
(0 0 0)
(0 0 0)
(0 0 0)
(0 0 0)
(0 0 0)
(0 0 0)
(0 0 0)
(0 0 0)
(0 0 0)
(0 0 0)
(0 0 0)
(0 0 0)
(0 0 0)
(0 0 0)
(0 0 0)
(0 0 0)
(0 0 0)
(0 0 0)
(0 0 0)
(0 0 0)
(0 0 0)
(0 0 0)
(0 0 0)
(0 0 0)
(0 0 0)
(0 0 0)
(0 0 0)
(0 0 0)
(0 0 0)
(0 0 0)
(0 0 0)
(0 0 0)
(0 0 0)
(0 0 0)
(0 0 0)
(0 0 0)
(0 0 0)
(0 0 0)
(0 0 0)
(0 0 0)
(0 0 0)
(0 0 0)
(0 0 0)
(0 0 0)
(0 0 0)
(0 0 0)
(0 0 0)
(0 0 0)
(0 0 0)
(0 0 0)
(0 0 0)
(0 0 0)
(0 0 0)
(0 0 0)
(0 0 0)
(0 0 0)
(0 0 0)
(0 0 0)
(0 0 0)
(1.04835e-05 8.96859e-05 -1.8315e-06)
(3.8258e-05 5.54379e-05 -8.98089e-06)
(2.54343e-05 3.46915e-05 3.79652e-05)
(-2.99018e-05 7.09657e-06 4.17699e-05)
(-6.48206e-05 7.50912e-05 6.4453e-05)
(-9.9403e-06 -2.36867e-05 1.30276e-05)
(-2.25674e-05 1.83085e-05 4.55493e-05)
(-5.88748e-05 6.06137e-06 3.95814e-05)
(3.59102e-05 8.33775e-05 0.00010851)
(-0.000125277 5.50607e-05 2.11799e-05)
(-0.000109642 4.73479e-05 4.44879e-05)
(-2.97479e-05 1.76221e-05 5.34691e-05)
(7.93084e-05 1.04474e-05 8.9643e-05)
(4.61639e-05 0.000201649 9.09027e-05)
(-0.00021502 0.000172328 9.45672e-05)
(-2.6118e-05 -3.7495e-06 3.86652e-05)
(-4.05418e-05 1.08771e-05 9.00488e-05)
(-1.97104e-05 2.98622e-05 0.000173326)
(-7.59853e-06 1.90225e-07 0.000172775)
(-7.27782e-06 4.02699e-06 0.000181566)
(-9.13047e-05 3.13558e-05 0.000149073)
(-6.4968e-05 6.90589e-05 9.85792e-05)
(-9.84438e-05 4.07499e-05 0.000124842)
(-7.54212e-05 2.6754e-05 0.000124498)
(-1.49262e-05 0.000126309 0.000173241)
(-5.78475e-05 7.39582e-05 0.000119629)
(-3.21955e-06 1.95729e-05 0.000100712)
(-5.04234e-05 1.8992e-05 0.000108942)
(-7.98531e-05 0.000161866 0.000162794)
(-2.01463e-05 0.000159117 0.000171817)
(-5.44498e-05 8.02551e-05 0.000118194)
(2.25985e-06 2.17266e-05 0.000148823)
(5.63761e-05 1.10208e-05 2.65734e-05)
(6.54226e-05 7.07271e-05 0.000166684)
(-3.57075e-05 8.33705e-05 0.000186086)
(-1.31366e-06 -7.19197e-06 0.000182831)
(-1.80585e-05 4.67553e-05 0.00021456)
(3.15369e-05 0.000119889 0.000185728)
(2.91397e-05 0.000118642 0.000182267)
(6.78917e-06 3.85486e-05 0.000191933)
(-5.65912e-06 8.44801e-05 0.000298338)
(-2.50902e-05 0.000116478 0.000217794)
(2.10241e-05 9.12992e-05 0.000189704)
(-2.01499e-05 3.99095e-05 0.00021074)
(-1.83504e-05 8.5811e-05 0.000292223)
(4.3131e-05 0.000146173 0.000203371)
(4.1835e-05 0.000115307 0.000264705)
(4.58191e-05 -5.61391e-06 0.000290224)
(1.51642e-05 -2.44567e-05 0.000102325)
(1.90072e-05 4.48852e-05 0.000208201)
(-6.65983e-05 1.16984e-05 0.000158628)
(1.9691e-06 7.23695e-05 0.000362449)
(-7.9089e-05 -3.51179e-05 0.000206717)
(-2.72802e-05 6.3954e-05 0.000213104)
(7.32812e-06 0.000122045 0.00025972)
(-9.91601e-06 9.835e-05 0.000351766)
(-0.0001057 -1.98338e-05 0.000332987)
(-4.81439e-05 0.000112823 0.000263372)
(7.67389e-06 3.86212e-05 0.000247761)
(2.24745e-05 -5.921e-06 0.000318601)
(-6.69175e-05 -6.48357e-05 0.000425427)
(-8.30329e-05 0.000119627 0.000306907)
(7.51529e-05 -7.10254e-07 0.00039909)
(2.47402e-05 -6.41461e-06 0.000422095)
(6.20922e-05 -5.09551e-05 0.000130265)
(6.74182e-05 9.69568e-05 0.000123733)
(-1.68881e-05 2.0862e-05 0.000135328)
(-8.79407e-05 -8.87e-06 0.000288783)
(-5.43381e-05 -2.95985e-05 0.000152105)
(-8.063e-05 0.000124168 0.000162308)
(-2.38623e-05 0.000207337 0.000244288)
(-0.000349048 0.000212647 0.00042728)
(-9.09607e-05 -8.47278e-05 0.0002396)
(-0.000144878 4.67062e-05 0.000273593)
(-7.51827e-05 9.3849e-05 0.000400723)
(-0.000287564 9.77422e-05 0.000344902)
(-7.90717e-05 -7.00776e-05 0.000457768)
(-0.000126465 -2.61729e-05 0.000447258)
(-0.000158855 -3.88955e-05 0.000401426)
(-0.000108751 9.38987e-05 0.000415825)
(8.69361e-05 -4.64816e-05 2.16046e-05)
(-1.07049e-05 -7.05775e-05 -0.000120852)
(2.4649e-06 4.26764e-05 0.000204483)
(-7.4099e-06 5.78057e-05 0.000187234)
(2.64272e-05 7.28005e-05 3.84137e-05)
(8.81543e-06 3.74882e-05 0.00011174)
(-4.59327e-05 4.2681e-05 0.000316586)
(-0.000202232 2.96332e-05 0.000368776)
(-0.00014127 -9.6771e-06 0.000146295)
(-0.000129178 6.63514e-05 0.000345349)
(-0.000313849 8.92924e-05 0.000263324)
(-0.000273965 3.54286e-05 0.000411378)
(-0.000202545 -2.66533e-05 0.000288324)
(-0.000248012 -5.02168e-05 0.000291164)
(-0.000256058 9.03633e-05 0.00027413)
(-0.000137886 -1.2583e-05 0.000304578)
(0.00439233 0.000602878 -0.00275285)
(-0.00179593 -0.00173514 -0.00156356)
(-0.0010479 0.000209534 -0.000144942)
(0.000168346 -0.000328638 0.00015754)
(0.000210745 0.00052248 -0.00060373)
(-0.000362226 0.00022855 -0.000385071)
(-5.93993e-05 7.4998e-05 0.000461125)
(-0.000376089 0.000240417 0.000341962)
(-5.64358e-05 -0.000257876 0.000142401)
(-2.98278e-05 0.000571734 6.97267e-05)
(-0.000960102 0.000851074 -0.000378928)
(-0.000695934 0.000584539 -7.47174e-05)
(-0.000965795 -0.0016535 -0.00128476)
(-0.00320086 -0.00330662 -0.00451015)
(-0.000641075 0.000594012 -1.06016e-05)
(-0.000392841 -0.000214592 0.000344771)
(0 0 0)
(0 0 0)
(0 0 0)
(0 0 0)
(0 0 0)
(0 0 0)
(0 0 0)
(0 0 0)
(0 0 0)
(0 0 0)
(0 0 0)
(0 0 0)
(0 0 0)
(0 0 0)
(0 0 0)
(0 0 0)
(0 0 0)
(0 0 0)
(0 0 0)
(0 0 0)
(0 0 0)
(0 0 0)
(0 0 0)
(0 0 0)
(0 0 0)
(0 0 0)
(0 0 0)
(0 0 0)
(0 0 0)
(0 0 0)
(0 0 0)
(0 0 0)
(0 0 0)
(0 0 0)
(0 0 0)
(0 0 0)
(0 0 0)
(0 0 0)
(0 0 0)
(0 0 0)
(0 0 0)
(0 0 0)
(0 0 0)
(0 0 0)
(0 0 0)
(0 0 0)
(0 0 0)
(0 0 0)
(0 0 0)
(0 0 0)
(0 0 0)
(0 0 0)
(0 0 0)
(0 0 0)
(0 0 0)
(0 0 0)
(0 0 0)
(0 0 0)
(0 0 0)
(0 0 0)
(0 0 0)
(0 0 0)
(0 0 0)
(0 0 0)
(0 0 0)
(0 0 0)
(0 0 0)
(0 0 0)
(0 0 0)
(0 0 0)
(0 0 0)
(0 0 0)
(0 0 0)
(0 0 0)
(0 0 0)
(0 0 0)
(0 0 0)
(0 0 0)
(0 0 0)
(0 0 0)
(0 0 0)
(0 0 0)
(0 0 0)
(0 0 0)
(0 0 0)
(0 0 0)
(0 0 0)
(0 0 0)
(0 0 0)
(0 0 0)
(0 0 0)
(0 0 0)
(0 0 0)
(0 0 0)
(0 0 0)
(0 0 0)
(0 0 0)
(0 0 0)
(0 0 0)
(0 0 0)
(0 0 0)
(0 0 0)
(0 0 0)
(0 0 0)
(0 0 0)
(0 0 0)
(0 0 0)
(0 0 0)
(0 0 0)
(0 0 0)
(0 0 0)
(0 0 0)
(0 0 0)
(0 0 0)
(0 0 0)
(0 0 0)
(0 0 0)
(0 0 0)
(0 0 0)
(0 0 0)
(0 0 0)
(0 0 0)
(0 0 0)
(0 0 0)
(0 0 0)
(0 0 0)
(0 0 0)
(0 0 0)
(0 0 0)
(0 0 0)
(0 0 0)
(0 0 0)
(0 0 0)
(0 0 0)
(0 0 0)
(0 0 0)
(0 0 0)
(0 0 0)
(0 0 0)
(0 0 0)
(0 0 0)
(0 0 0)
(0 0 0)
(0 0 0)
(0 0 0)
(0 0 0)
(0 0 0)
(0 0 0)
(0 0 0)
(0 0 0)
(0 0 0)
(0 0 0)
(0 0 0)
(0 0 0)
(0 0 0)
(0 0 0)
(0 0 0)
(0 0 0)
(0 0 0)
(0 0 0)
(0 0 0)
(0 0 0)
(0 0 0)
(0 0 0)
(0 0 0)
(0 0 0)
(0 0 0)
(0 0 0)
(0 0 0)
(0 0 0)
(0 0 0)
(0 0 0)
(0 0 0)
(0 0 0)
(0 0 0)
(0 0 0)
(0 0 0)
(0 0 0)
(0 0 0)
(0 0 0)
(0 0 0)
(0 0 0)
(0 0 0)
(0 0 0)
(0 0 0)
(0 0 0)
(0 0 0)
(0 0 0)
(0 0 0)
(0 0 0)
(0 0 0)
(0 0 0)
(0 0 0)
(0 0 0)
(0 0 0)
(0 0 0)
(0 0 0)
(0 0 0)
(0 0 0)
(0 0 0)
(0 0 0)
(0 0 0)
(0 0 0)
(0 0 0)
(0 0 0)
(0 0 0)
(0 0 0)
(0 0 0)
(0 0 0)
(0 0 0)
(0 0 0)
(0 0 0)
(0 0 0)
(0 0 0)
(0 0 0)
(0 0 0)
(0 0 0)
(0 0 0)
(0 0 0)
(0 0 0)
(0 0 0)
(0 0 0)
(0 0 0)
(0 0 0)
(0 0 0)
(0 0 0)
(0 0 0)
(0 0 0)
(0 0 0)
(0 0 0)
(0 0 0)
(0 0 0)
(0 0 0)
(0 0 0)
(0 0 0)
(0 0 0)
(0 0 0)
(0 0 0)
(0 0 0)
(0 0 0)
(0 0 0)
(0 0 0)
(0 0 0)
(0 0 0)
(0 0 0)
(0 0 0)
(0 0 0)
(0 0 0)
(0 0 0)
(0 0 0)
(0 0 0)
(0 0 0)
(0 0 0)
(0 0 0)
(0 0 0)
(0 0 0)
(0 0 0)
(0 0 0)
(0 0 0)
(0 0 0)
(0 0 0)
(0 0 0)
(0 0 0)
(0 0 0)
(0 0 0)
(0 0 0)
(0 0 0)
(0 0 0)
(0 0 0)
(0 0 0)
(0 0 0)
(0 0 0)
(-6.69587e-05 -4.59862e-06 1.50058e-05)
(6.92192e-06 -1.22274e-05 3.7442e-05)
(6.58588e-06 -4.88828e-06 6.97197e-05)
(-1.50696e-05 -1.32731e-05 5.48516e-05)
(0.00010692 5.22891e-05 2.25747e-05)
(8.67189e-07 -6.40467e-05 3.03335e-05)
(-2.7046e-05 5.77567e-05 4.63464e-05)
(8.5884e-06 -0.000182664 5.41433e-05)
(8.33099e-05 1.44591e-05 2.40371e-05)
(7.79675e-05 -2.71789e-05 0.000102174)
(6.41762e-05 0.000136069 6.71911e-05)
(-7.7106e-05 -7.23954e-05 5.23521e-05)
(-2.03073e-05 7.20628e-06 1.94138e-05)
(2.7102e-06 -0.000102849 3.78079e-05)
(8.60142e-05 -2.00422e-05 4.41689e-05)
(-0.000532049 7.37525e-05 -1.71754e-06)
(-2.04493e-05 -6.37659e-06 0.000116202)
(-3.97515e-05 3.51499e-05 0.000110223)
(-2.82271e-05 3.6611e-05 0.000172687)
(-2.38206e-05 1.13822e-05 0.000187969)
(-5.40124e-05 3.44578e-05 8.22957e-05)
(-5.49149e-05 1.08183e-05 0.000141966)
(-8.02847e-06 -4.40279e-05 0.000181169)
(-3.38653e-05 -4.62732e-05 0.000115965)
(-5.46647e-05 7.96549e-05 0.000115167)
(-0.000111989 -1.29061e-05 0.000221477)
(-4.66086e-05 1.13607e-05 0.000207187)
(3.05313e-05 6.32365e-05 7.61793e-05)
(-7.81658e-05 5.13478e-05 6.93574e-05)
(-8.78043e-05 -1.28243e-05 0.000139542)
(-9.7441e-05 -3.48242e-05 0.00020787)
(1.82951e-05 6.42225e-05 0.000143337)
(1.47142e-05 4.80644e-06 0.000327704)
(6.81671e-06 0.00012337 0.000267686)
(-4.71576e-07 -1.13887e-05 0.000240412)
(-7.16104e-05 -0.000107609 0.000266112)
(1.14976e-05 2.15813e-05 0.00017947)
(-3.35572e-05 -1.11523e-05 0.000176359)
(-8.83139e-06 -1.42526e-05 0.000264852)
(-5.89058e-05 -5.45341e-05 0.000254767)
(3.88156e-05 5.04834e-05 0.000283042)
(-7.03207e-07 9.15356e-06 0.000231304)
(-1.62022e-05 2.70108e-05 0.000293348)
(3.90232e-05 -2.58249e-06 0.000163083)
(3.26727e-05 7.90188e-05 0.000257088)
(-2.21086e-05 8.98809e-05 0.000315555)
(-0.000161962 6.00325e-05 0.000291173)
(8.9744e-05 6.52414e-05 0.000279304)
(2.96585e-06 7.69466e-06 0.000394911)
(2.18457e-05 4.21808e-05 0.000373049)
(4.20667e-05 2.50885e-05 0.000386346)
(-5.99777e-05 -6.21054e-05 0.000436145)
(0.000200562 2.3815e-05 0.000294112)
(8.13854e-05 7.36204e-05 0.000340577)
(6.8976e-05 2.89126e-05 0.00036231)
(-1.88038e-05 7.81931e-05 0.000346353)
(0.000118097 1.61532e-05 0.000322704)
(4.92018e-05 8.76275e-05 0.000338541)
(-1.64788e-06 7.23882e-05 0.000329253)
(4.68887e-05 0.00011291 0.000292702)
(0.000127146 4.9465e-05 0.000361333)
(5.02457e-05 0.000106684 0.000375967)
(8.66014e-05 0.000120682 0.000346393)
(1.94334e-05 0.000125252 0.000450655)
(4.54266e-06 2.14161e-05 0.000348887)
(-6.18265e-05 3.73451e-07 0.000342938)
(-0.000102436 -1.84671e-05 0.00038503)
(-7.49387e-05 -7.95631e-05 0.0004329)
(7.72815e-05 6.9712e-05 0.000346743)
(5.30447e-05 6.628e-05 0.000348513)
(-8.90558e-06 5.99051e-05 0.000390704)
(-2.97115e-05 4.6134e-05 0.00041039)
(0.000102181 7.00495e-05 0.000389237)
(0.000149907 0.000131312 0.000360562)
(3.33032e-05 0.000152342 0.000476302)
(-8.05324e-06 9.45569e-05 0.000435799)
(0.000159798 5.26609e-05 0.000502778)
(0.000121997 0.000148878 0.000409075)
(2.9663e-05 0.000160897 0.000471751)
(-4.59977e-05 0.000114267 0.00056102)
(-0.000137702 2.85618e-05 0.000355725)
(-6.94885e-05 -4.04906e-05 0.000250308)
(-8.54361e-05 3.00452e-05 0.000300249)
(-2.87164e-05 3.6527e-05 0.000222367)
(4.94891e-05 7.92423e-06 0.000290284)
(-3.30116e-05 3.78115e-05 0.00031736)
(-2.62319e-05 5.03349e-05 0.00037862)
(-1.18402e-05 3.45262e-05 0.000302385)
(6.2177e-05 5.35048e-05 0.000350578)
(5.53751e-05 0.000100804 0.000367826)
(-8.90841e-05 7.53362e-05 0.000429346)
(1.31756e-07 4.53423e-05 0.000262049)
(8.31417e-05 -2.85052e-05 0.000507534)
(-4.86441e-05 0.000133296 0.00046725)
(-5.94127e-05 0.00013018 0.000466581)
(-4.61136e-05 6.93829e-05 0.000284777)
(-0.000796101 -0.000126973 0.000281587)
(-0.000525958 0.000419148 -3.18356e-05)
(-0.000589358 0.000775073 -0.00056052)
(-0.000113455 -0.000173083 1.79929e-06)
(5.40425e-05 0.000187587 2.65676e-05)
(0.00100747 0.000477621 8.93658e-05)
(-4.54323e-05 0.000143749 0.000185545)
(-7.26681e-05 -8.90422e-05 0.000159337)
(0.00062877 0.000311943 0.000310717)
(-1.97651e-05 4.2606e-05 0.000233708)
(0.00101266 -0.00150745 -0.00125069)
(-0.000265396 0.000472915 8.75e-05)
(-0.000187363 0.000448163 0.00071921)
(-3.57773e-05 8.25733e-05 0.00048886)
(-0.00024009 8.53813e-05 0.000522996)
(0.000846759 0.0017056 -0.000278382)
(0 0 0)
(0 0 0)
(0 0 0)
(0 0 0)
(0 0 0)
(0 0 0)
(0 0 0)
(0 0 0)
(0 0 0)
(0 0 0)
(0 0 0)
(0 0 0)
(0 0 0)
(0 0 0)
(0 0 0)
(0 0 0)
(0 0 0)
(0 0 0)
(0 0 0)
(0 0 0)
(0 0 0)
(0 0 0)
(0 0 0)
(0 0 0)
(0 0 0)
(0 0 0)
(0 0 0)
(0 0 0)
(0 0 0)
(0 0 0)
(0 0 0)
(0 0 0)
(0 0 0)
(0 0 0)
(0 0 0)
(0 0 0)
(0 0 0)
(0 0 0)
(0 0 0)
(0 0 0)
(0 0 0)
(0 0 0)
(0 0 0)
(0 0 0)
(0 0 0)
(0 0 0)
(0 0 0)
(0 0 0)
(0 0 0)
(0 0 0)
(0 0 0)
(0 0 0)
(0 0 0)
(0 0 0)
(0 0 0)
(0 0 0)
(0 0 0)
(0 0 0)
(0 0 0)
(0 0 0)
(0 0 0)
(0 0 0)
(0 0 0)
(0 0 0)
(0 0 0)
(0 0 0)
(0 0 0)
(0 0 0)
(0 0 0)
(0 0 0)
(0 0 0)
(0 0 0)
(0 0 0)
(0 0 0)
(0 0 0)
(0 0 0)
(0 0 0)
(0 0 0)
(0 0 0)
(0 0 0)
(0 0 0)
(0 0 0)
(0 0 0)
(0 0 0)
(0 0 0)
(0 0 0)
(0 0 0)
(0 0 0)
(0 0 0)
(0 0 0)
(0 0 0)
(0 0 0)
(0 0 0)
(0 0 0)
(0 0 0)
(0 0 0)
(0 0 0)
(0 0 0)
(0 0 0)
(0 0 0)
(0 0 0)
(0 0 0)
(0 0 0)
(0 0 0)
(0 0 0)
(0 0 0)
(0 0 0)
(0 0 0)
(0 0 0)
(0 0 0)
(0 0 0)
(0 0 0)
(0 0 0)
(0 0 0)
(0 0 0)
(0 0 0)
(0 0 0)
(0 0 0)
(0 0 0)
(0 0 0)
(0 0 0)
(0 0 0)
(0 0 0)
(0 0 0)
(0 0 0)
(0 0 0)
(0 0 0)
(0 0 0)
(0 0 0)
(0 0 0)
(0 0 0)
(0 0 0)
(0 0 0)
(0 0 0)
(0 0 0)
(0 0 0)
(0 0 0)
(0 0 0)
(0 0 0)
(0 0 0)
(0 0 0)
(0 0 0)
(0 0 0)
(0 0 0)
(0 0 0)
(0 0 0)
(0 0 0)
(0 0 0)
(0 0 0)
(0 0 0)
(0 0 0)
(0 0 0)
(0 0 0)
(0 0 0)
(0 0 0)
(0 0 0)
(0 0 0)
(0 0 0)
(0 0 0)
(0 0 0)
(0 0 0)
(0 0 0)
(0 0 0)
(0 0 0)
(0 0 0)
(0 0 0)
(0 0 0)
(0 0 0)
(0 0 0)
(0 0 0)
(0 0 0)
(0 0 0)
(0 0 0)
(0 0 0)
(0 0 0)
(0 0 0)
(0 0 0)
(0 0 0)
(0 0 0)
(0 0 0)
(0 0 0)
(0 0 0)
(0 0 0)
(0 0 0)
(0 0 0)
(0 0 0)
(0 0 0)
(0 0 0)
(0 0 0)
(0 0 0)
(0 0 0)
(0 0 0)
(0 0 0)
(0 0 0)
(0 0 0)
(0 0 0)
(0 0 0)
(0 0 0)
(0 0 0)
(0 0 0)
(0 0 0)
(0 0 0)
(0 0 0)
(0 0 0)
(0 0 0)
(0 0 0)
(0 0 0)
(0 0 0)
(0 0 0)
(0 0 0)
(0 0 0)
(0 0 0)
(0 0 0)
(0 0 0)
(0 0 0)
(0 0 0)
(0 0 0)
(0 0 0)
(0 0 0)
(0 0 0)
(0 0 0)
(0 0 0)
(0 0 0)
(0 0 0)
(0 0 0)
(0 0 0)
(0 0 0)
(0 0 0)
(0 0 0)
(0 0 0)
(0 0 0)
(0 0 0)
(0 0 0)
(0 0 0)
(0 0 0)
(0 0 0)
(0 0 0)
(0 0 0)
(0 0 0)
(0 0 0)
(0 0 0)
(0 0 0)
(0 0 0)
(0 0 0)
(0 0 0)
(0 0 0)
(0 0 0)
(0 0 0)
(0 0 0)
(0 0 0)
(0 0 0)
(0 0 0)
(0 0 0)
(0 0 0)
(0 0 0)
(0 0 0)
(0 0 0)
(0 0 0)
(0 0 0)
(0 0 0)
(0 0 0)
(0 0 0)
(0 0 0)
(0 0 0)
(0 0 0)
(0 0 0)
(0 0 0)
(0 0 0)
(0 0 0)
(0 0 0)
(0 0 0)
(0 0 0)
)
;

boundaryField
{
    inlet
    {
        type            zeroGradient;
    }
    outlet
    {
        type            zeroGradient;
    }
    wall
    {
        type            zeroGradient;
    }
    procBoundary1to0
    {
        type            processor;
        value           nonuniform List<vector> 
192
(
(8.23676e-05 5.30391e-05 5.37427e-05)
(-1.43454e-05 5.80574e-05 1.75598e-05)
(-6.50938e-06 3.79306e-05 -7.17957e-06)
(3.27145e-05 2.14258e-05 1.94852e-05)
(7.18184e-06 9.82984e-05 0.000173942)
(6.17144e-06 5.11719e-05 0.000146884)
(1.05652e-05 4.77349e-05 0.000136416)
(1.71372e-06 5.41511e-05 8.39922e-05)
(-1.67596e-05 1.18389e-05 0.000311534)
(-4.31216e-06 1.38403e-05 0.000294849)
(-4.15573e-05 0.000116953 0.000307203)
(3.07168e-06 6.33284e-06 0.000261704)
(-4.79841e-05 -5.9495e-05 0.000455074)
(-1.25527e-05 -3.57154e-05 0.000399813)
(-6.30256e-05 4.33098e-05 0.000433347)
(-6.96803e-05 9.76467e-05 0.000492632)
(-5.65756e-05 -8.39863e-05 0.000514854)
(-7.57007e-05 -7.87916e-05 0.000491623)
(-0.00010824 -3.65711e-05 0.000503178)
(-0.000133226 6.05957e-05 0.000582366)
(-3.59279e-05 -8.40611e-05 0.000491356)
(-0.00010596 -7.75376e-07 0.00052818)
(-0.000107216 -3.37991e-07 0.000479328)
(-0.000152607 -8.52855e-06 0.000482354)
(-0.000211884 -0.000114767 0.000549648)
(-0.000491167 4.3536e-05 0.00046324)
(-3.0469e-05 4.74966e-05 0.000416113)
(0.000444239 0.000434788 1.80137e-05)
(0 0 0)
(0 0 0)
(0 0 0)
(0 0 0)
(0 0 0)
(0 0 0)
(0 0 0)
(0 0 0)
(0 0 0)
(0 0 0)
(0 0 0)
(0 0 0)
(0 0 0)
(0 0 0)
(0 0 0)
(0 0 0)
(0 0 0)
(0 0 0)
(0 0 0)
(0 0 0)
(0 0 0)
(0 0 0)
(0 0 0)
(0 0 0)
(0 0 0)
(0 0 0)
(0 0 0)
(0 0 0)
(0 0 0)
(0 0 0)
(0 0 0)
(0 0 0)
(0 0 0)
(0 0 0)
(0 0 0)
(0 0 0)
(0 0 0)
(0 0 0)
(0 0 0)
(0 0 0)
(0 0 0)
(0 0 0)
(0 0 0)
(0 0 0)
(0 0 0)
(0 0 0)
(0 0 0)
(0 0 0)
(0 0 0)
(0 0 0)
(0 0 0)
(0 0 0)
(0 0 0)
(0 0 0)
(0 0 0)
(0 0 0)
(0 0 0)
(0 0 0)
(0 0 0)
(0 0 0)
(0 0 0)
(0 0 0)
(0 0 0)
(0 0 0)
(0 0 0)
(0 0 0)
(0 0 0)
(0 0 0)
(8.52127e-06 2.29008e-05 4.55181e-05)
(5.10867e-06 6.25195e-05 6.88526e-05)
(4.85945e-05 8.37646e-05 5.59116e-05)
(7.85571e-05 8.10956e-05 4.06354e-05)
(-1.38701e-05 1.35931e-05 0.000150721)
(4.08162e-05 4.39973e-05 0.000177968)
(5.06108e-05 6.37972e-05 0.000180235)
(4.25478e-05 0.000105682 0.000134314)
(-3.74875e-05 4.35408e-05 0.000190191)
(-1.29296e-05 4.27883e-05 0.000261854)
(8.84946e-06 7.96401e-05 0.000288253)
(9.67015e-06 3.42435e-05 0.00028679)
(-7.24528e-05 -8.06277e-05 0.00028895)
(-4.10225e-06 -0.0001062 0.000273734)
(-3.29929e-05 -2.10054e-05 0.000367109)
(-1.59944e-05 -4.14741e-05 0.000476236)
(0.000116477 -2.54352e-05 0.00029937)
(-9.63769e-06 -7.64785e-05 0.000305152)
(-6.16217e-05 -7.41064e-05 0.000370276)
(-6.66559e-05 -5.33353e-05 0.000487248)
(0.000192499 -3.64534e-05 0.000159903)
(5.51342e-05 -0.000137978 0.000277504)
(-5.82071e-05 -0.000100076 0.000342905)
(-3.05227e-05 -7.95442e-05 0.000442226)
(0.00128105 -0.000272906 -0.000539521)
(0.000647769 -0.00222539 -0.000377014)
(-0.000998164 0.000447132 0.00019032)
(3.8419e-06 -8.37497e-05 0.000435616)
(0 0 0)
(0 0 0)
(0 0 0)
(0 0 0)
(0 0 0)
(0 0 0)
(0 0 0)
(0 0 0)
(0 0 0)
(0 0 0)
(0 0 0)
(0 0 0)
(0 0 0)
(0 0 0)
(0 0 0)
(0 0 0)
(0 0 0)
(0 0 0)
(0 0 0)
(0 0 0)
(0 0 0)
(0 0 0)
(0 0 0)
(0 0 0)
(0 0 0)
(0 0 0)
(0 0 0)
(0 0 0)
(0 0 0)
(0 0 0)
(0 0 0)
(0 0 0)
(0 0 0)
(0 0 0)
(0 0 0)
(0 0 0)
(0 0 0)
(0 0 0)
(0 0 0)
(0 0 0)
(0 0 0)
(0 0 0)
(0 0 0)
(0 0 0)
(0 0 0)
(0 0 0)
(0 0 0)
(0 0 0)
(0 0 0)
(0 0 0)
(0 0 0)
(0 0 0)
(0 0 0)
(0 0 0)
(0 0 0)
(0 0 0)
(0 0 0)
(0 0 0)
(0 0 0)
(0 0 0)
(0 0 0)
(0 0 0)
(0 0 0)
(0 0 0)
(0 0 0)
(0 0 0)
(0 0 0)
(0 0 0)
)
;
    }
    procBoundary1to3
    {
        type            processor;
        value           nonuniform List<vector> 
192
(
(9.08228e-05 0.000107577 4.59055e-06)
(4.31715e-05 0.000418038 0.000105015)
(-0.000113318 1.53219e-06 2.67698e-05)
(-9.41188e-05 -5.07723e-05 -2.62249e-07)
(-1.07429e-05 -0.000174923 -0.000259361)
(-1.66325e-05 8.47762e-05 0.000195374)
(-1.32678e-05 5.29353e-05 0.000165856)
(2.21812e-06 6.00038e-05 0.000139633)
(-0.000132406 6.66434e-05 0.000272535)
(3.04019e-05 0.000127651 0.000392355)
(7.41634e-05 0.000120424 0.000291323)
(0.000125552 0.000109187 0.00031464)
(-4.37255e-05 0.000153447 0.000474574)
(0.000120639 0.00018695 0.000520836)
(5.73846e-05 0.000115839 0.000501771)
(0.000156013 9.16288e-05 0.000470518)
(-7.16539e-05 0.000159321 0.000482)
(3.94108e-05 0.000203158 0.000549288)
(4.9493e-06 7.93455e-05 0.000625754)
(0.000166059 4.21051e-05 0.000483978)
(-0.000160799 6.27199e-05 0.000496569)
(-0.000259326 -8.21392e-05 0.000739931)
(-6.69594e-05 0.00018815 0.00109831)
(2.83189e-05 -0.000130173 0.000544028)
(0.000738322 0.000244103 6.92993e-05)
(-0.000382063 -0.000466031 0.000651469)
(-0.00140551 0.0016131 0.00164435)
(-5.89204e-05 -4.69332e-05 0.000572928)
(0 0 0)
(0 0 0)
(0 0 0)
(0 0 0)
(0 0 0)
(0 0 0)
(0 0 0)
(0 0 0)
(0 0 0)
(0 0 0)
(0 0 0)
(0 0 0)
(0 0 0)
(0 0 0)
(0 0 0)
(0 0 0)
(0 0 0)
(0 0 0)
(0 0 0)
(0 0 0)
(0 0 0)
(0 0 0)
(0 0 0)
(0 0 0)
(0 0 0)
(0 0 0)
(0 0 0)
(0 0 0)
(0 0 0)
(0 0 0)
(0 0 0)
(0 0 0)
(0 0 0)
(0 0 0)
(0 0 0)
(0 0 0)
(0 0 0)
(0 0 0)
(0 0 0)
(0 0 0)
(0 0 0)
(0 0 0)
(0 0 0)
(0 0 0)
(0 0 0)
(0 0 0)
(0 0 0)
(0 0 0)
(0 0 0)
(0 0 0)
(0 0 0)
(0 0 0)
(0 0 0)
(0 0 0)
(0 0 0)
(0 0 0)
(0 0 0)
(0 0 0)
(0 0 0)
(0 0 0)
(0 0 0)
(0 0 0)
(0 0 0)
(0 0 0)
(0 0 0)
(0 0 0)
(0 0 0)
(0 0 0)
(-8.37481e-05 3.78817e-05 2.58352e-05)
(-6.17575e-05 -2.10769e-05 3.53409e-05)
(-9.01198e-05 -3.11502e-05 5.79437e-05)
(-1.7883e-05 1.42532e-05 3.55379e-05)
(-8.1966e-05 5.33627e-05 5.11262e-05)
(-8.4235e-05 1.03813e-05 0.000119827)
(-0.000175694 -8.77016e-07 0.000156181)
(-5.81533e-05 -5.55616e-07 0.000108851)
(7.69817e-05 9.08685e-05 0.000320904)
(3.51899e-05 0.000125096 0.000291467)
(-9.69334e-05 7.30953e-05 0.000239469)
(-5.88108e-05 -3.83737e-06 0.000142363)
(8.85598e-05 7.64384e-05 0.000516811)
(2.26025e-05 7.91237e-05 0.000463656)
(-7.79527e-05 9.22172e-05 0.000403029)
(-4.615e-05 -7.35408e-06 0.000187946)
(7.02516e-05 9.28315e-05 0.000521116)
(5.17481e-05 0.000146035 0.000534353)
(5.90718e-05 0.000163239 0.000520211)
(1.56115e-05 9.77505e-05 0.000268546)
(-9.01813e-05 1.93075e-05 0.000505897)
(-0.000129518 6.21735e-05 0.000483643)
(7.97987e-05 -1.32643e-05 0.000442727)
(-5.09423e-07 0.000143935 0.000277622)
(-0.0034764 -0.000223055 -0.00134853)
(-0.00089915 -0.000238614 -5.26889e-05)
(-0.000106527 0.000825268 0.000236471)
(1.62143e-05 -6.73086e-06 0.00021466)
(0 0 0)
(0 0 0)
(0 0 0)
(0 0 0)
(0 0 0)
(0 0 0)
(0 0 0)
(0 0 0)
(0 0 0)
(0 0 0)
(0 0 0)
(0 0 0)
(0 0 0)
(0 0 0)
(0 0 0)
(0 0 0)
(0 0 0)
(0 0 0)
(0 0 0)
(0 0 0)
(0 0 0)
(0 0 0)
(0 0 0)
(0 0 0)
(0 0 0)
(0 0 0)
(0 0 0)
(0 0 0)
(0 0 0)
(0 0 0)
(0 0 0)
(0 0 0)
(0 0 0)
(0 0 0)
(0 0 0)
(0 0 0)
(0 0 0)
(0 0 0)
(0 0 0)
(0 0 0)
(0 0 0)
(0 0 0)
(0 0 0)
(0 0 0)
(0 0 0)
(0 0 0)
(0 0 0)
(0 0 0)
(0 0 0)
(0 0 0)
(0 0 0)
(0 0 0)
(0 0 0)
(0 0 0)
(0 0 0)
(0 0 0)
(0 0 0)
(0 0 0)
(0 0 0)
(0 0 0)
(0 0 0)
(0 0 0)
(0 0 0)
(0 0 0)
(0 0 0)
(0 0 0)
(0 0 0)
(0 0 0)
)
;
    }
}


// ************************************************************************* //
