/*--------------------------------*- C++ -*----------------------------------*\
| =========                 |                                                 |
| \\      /  F ield         | OpenFOAM: The Open Source CFD Toolbox           |
|  \\    /   O peration     | Version:  2506                                  |
|   \\  /    A nd           | Website:  www.openfoam.com                      |
|    \\/     M anipulation  |                                                 |
\*---------------------------------------------------------------------------*/
FoamFile
{
    version     2.0;
    format      ascii;
    arch        "LSB;label=32;scalar=64";
    class       volScalarField;
    location    "0.05";
    object      Ksl;
}
// * * * * * * * * * * * * * * * * * * * * * * * * * * * * * * * * * * * * * //

dimensions      [1 -3 -1 0 0 0 0];

internalField   nonuniform List<scalar> 
1152
(
210803
124918
232164
190377
120976
234429
184777
223420
177391
171177
225332
135051
206929
242794
293988
509141
539859
180284
252939
253715
262542
209583
213575
276535
350737
312396
221875
241392
253120
394639
165215
190776
169668
206589
241404
234482
263797
249289
260314
247547
250595
181864
240608
231961
222836
301032
252718
246090
305637
219292
270008
227277
200516
187663
238059
184522
303572
243190
357360
246845
208755
187985
201577
313096
275144
280360
233802
238202
474116
309384
233411
219426
180488
212098
161336
187835
363870
154405
295845
138871
206447
224926
294674
256027
168821
287438
255489
229210
239792
164017
272824
374998
310028
230916
303838
198973
44043.3
53189
81457.5
37082.8
155999
127935
94015.5
57663.4
86848.9
68439.3
152992
78259
166533
92468.7
137795
30602.3
0
0
0
0
0
0
0
0
0
0
0
0
0
426.97
426.328
0
0
0
0
0
0
0
0
0
0
0
0
0
0
0
0
0
0
0
0
0
0
0
0
0
0
0
0
0
0
0
0
0
0
0
0
0
0
0
0
0
0
0
0
0
0
0
0
0
0
0
0
0
0
0
0
0
0
0
0
0
0
0
0
0
0
0
0
0
0
0
0
0
0
0
0
0
0
0
0
0
0
0
0
0
0
0
0
0
0
0
0
0
0
0
0
0
0
0
0
0
0
0
0
0
0
0
0
0
0
0
0
0
0
0
0
0
0
0
0
0
0
0
0
0
0
0
0
0
0
0
0
0
0
0
0
0
0
0
0
0
0
0
0
0
0
0
0
0
0
0
0
0
0
0
0
0
0
0
0
0
0
0
0
0
0
0
0
0
0
0
0
0
0
0
0
0
0
0
0
0
0
0
0
0
0
0
0
0
0
0
0
0
0
0
0
0
0
0
0
0
0
0
0
0
0
0
0
0
0
0
0
0
0
0
0
0
0
0
0
0
0
0
0
0
0
0
0
0
0
0
0
0
0
0
0
0
0
0
0
0
0
0
0
0
0
0
0
0
0
0
0
0
0
0
0
0
175834
229267
148224
202705
205305
238607
195168
205603
156446
182623
191149
187489
133002
204346
171320
236731
204512
202223
153427
216960
261883
171182
300566
250986
191767
220038
214488
101921
252027
253477
281360
243536
206589
212468
213357
160186
206942
210942
212579
234404
261029
238965
145762
340949
288474
278999
229639
227266
185331
199302
222840
143607
258695
274536
272629
265130
200549
157186
266256
177090
372658
282203
242858
312221
172449
256006
149370
201504
266970
322396
172400
334570
161054
200814
190600
385343
236790
152204
318034
198698
203061
164103
241468
193145
234650
291038
204540
178651
261099
262717
418268
230209
103553
219560
181536
241368
54100.1
51810.3
47078.8
137743
50665.3
46716.7
75961.2
82800.3
39587.6
20254.2
27674.4
71593.1
40846.4
79185.7
19312.3
35792.6
0
0
0
0
0
0
0
0
0
0
0
0
0
0
0
0
0
0
0
0
0
0
0
0
0
0
0
0
0
0
0
0
0
0
0
0
0
0
0
0
0
0
0
0
0
0
0
0
0
0
0
0
0
0
0
0
0
0
0
0
0
0
0
0
0
0
0
0
0
0
0
0
0
0
0
0
0
0
0
0
0
0
0
0
0
0
0
0
0
0
0
0
0
0
0
0
0
0
0
0
0
0
0
0
0
0
0
0
0
0
0
0
0
0
0
0
0
0
0
0
0
0
0
0
0
0
0
0
0
0
0
0
0
0
0
0
0
0
0
0
0
0
0
0
0
0
0
0
0
0
0
0
0
0
0
0
0
0
0
0
0
0
0
0
0
0
0
0
0
0
0
0
0
0
0
0
0
0
0
0
0
0
0
0
0
0
0
0
0
0
0
0
0
0
0
0
0
0
0
0
0
0
0
0
0
0
0
0
0
0
0
0
0
0
0
0
0
0
0
0
0
0
0
0
0
0
0
0
0
0
0
0
0
0
0
0
0
0
0
0
0
0
0
0
0
0
0
0
0
0
0
0
0
0
0
0
0
0
0
0
0
0
0
0
0
0
0
0
0
0
0
0
220121
198980
169990
211426
162256
191228
203636
146598
270380
195490
165062
180211
145469
311630
108984
140403
175800
165795
366774
122976
232301
327410
314441
188454
248132
219872
331736
250331
212753
243246
230172
176306
330377
214501
286444
264149
202752
241518
160797
220764
212784
183241
222320
198506
186235
197827
202830
314485
350139
266523
266273
152089
201296
247836
184952
264605
252094
212860
253122
160869
185379
317182
157902
226092
194654
414913
209407
135308
191505
346164
190433
208983
294775
209108
245149
262136
204580
210680
198870
190531
155698
300230
247667
196905
105328
200087
174481
213561
243038
229590
204724
166483
256278
273478
301632
320911
66713.1
100195
83294.5
46608.5
56354.2
43441.3
78571.5
111039
24277.7
29791.3
29620
163686
58797.2
23336.4
63644.5
45864.9
0
0
0
0
0
0
0
0
0
0
0
240.781
0
0
0
0
0
0
0
0
0
0
0
0
0
0
0
0
0
0
0
0
0
0
0
0
0
0
0
0
0
0
0
0
0
0
0
0
0
0
0
0
0
0
0
0
0
0
0
0
0
0
0
0
0
0
0
0
0
0
0
0
0
0
0
0
0
0
0
0
0
0
0
0
0
0
0
0
0
0
0
0
0
0
0
0
0
0
0
0
0
0
0
0
0
0
0
0
0
0
0
0
0
0
0
0
0
0
0
0
0
0
0
0
0
0
0
0
0
0
0
0
0
0
0
0
0
0
0
0
0
0
0
0
0
0
0
0
0
0
0
0
0
0
0
0
0
0
0
0
0
0
0
0
0
0
0
0
0
0
0
0
0
0
0
0
0
0
0
0
0
0
0
0
0
0
0
0
0
0
0
0
0
0
0
0
0
0
0
0
0
0
0
0
0
0
0
0
0
0
0
0
0
0
0
0
0
0
0
0
0
0
0
0
0
0
0
0
0
0
0
0
0
0
0
0
0
0
0
0
0
0
0
0
0
0
0
0
0
0
0
0
0
0
0
0
0
0
0
0
0
0
0
0
0
0
0
0
0
0
0
0
)
;

boundaryField
{
    inlet
    {
        type            zeroGradient;
    }
    outlet
    {
        type            zeroGradient;
    }
    wall
    {
        type            zeroGradient;
    }
    procBoundary1to0
    {
        type            processor;
        value           nonuniform List<scalar> 
192
(
139775
199512
201053
104642
202268
261816
304032
208578
249744
296836
139781
145044
178892
234753
244069
489447
174473
122405
273468
217327
290285
291021
172888
143326
42703.7
62741.1
82766.2
75217.6
0
0
0
0
0
0
0
0
0
0
0
0
0
0
0
0
0
0
0
0
0
0
0
0
0
0
0
0
0
0
0
0
0
0
0
0
0
0
0
0
0
0
0
0
0
0
0
0
0
0
0
0
0
0
0
0
0
0
0
0
0
0
0
0
0
0
0
0
222527
192036
226333
301366
223809
252144
227978
228378
188542
243763
187685
233794
253892
144177
259082
196998
210588
287402
401436
264476
199565
221485
260847
287930
49360
27988.1
36213.9
38435
0
0
0
0
0
0
0
0
0
0
0
0
0
0
0
0
0
0
0
0
0
0
0
0
0
0
0
0
0
0
0
0
0
0
0
0
0
0
0
0
0
0
0
0
0
0
0
0
0
0
0
0
0
0
0
0
0
0
0
0
0
0
0
0
0
0
0
0
)
;
    }
    procBoundary1to3
    {
        type            processor;
        value           nonuniform List<scalar> 
192
(
188953
154652
118382
152364
191435
184903
251024
321825
284616
305838
180318
145924
220433
340987
274062
181148
153231
519150
170444
277375
255933
118861
285771
376898
40258.6
86000.5
45220
20486.8
0
0
0
0
0
0
0
0
0
0
0
0
0
0
0
0
0
0
0
0
0
0
0
0
0
0
0
0
0
0
0
0
0
0
0
0
0
0
0
0
0
0
0
0
0
0
0
0
0
0
0
0
0
0
0
0
0
0
0
0
0
0
0
0
0
0
0
0
214744
153059
281389
243175
273072
185589
138347
265420
363416
306521
355402
167206
297706
269708
206714
312567
283410
227410
239033
191027
184163
203596
190632
188572
36233.2
30683
41106.8
41677
0
0
0
0
0
0
0
0
0
0
0
0
0
0
0
0
0
0
0
0
0
0
0
0
0
0
0
0
0
0
0
0
0
0
0
0
0
0
0
0
0
0
0
0
0
0
0
0
0
0
0
0
0
0
0
0
0
0
0
0
0
0
0
0
0
0
0
0
)
;
    }
}


// ************************************************************************* //
