/*--------------------------------*- C++ -*----------------------------------*\
| =========                 |                                                 |
| \\      /  F ield         | OpenFOAM: The Open Source CFD Toolbox           |
|  \\    /   O peration     | Version:  2506                                  |
|   \\  /    A nd           | Website:  www.openfoam.com                      |
|    \\/     M anipulation  |                                                 |
\*---------------------------------------------------------------------------*/
FoamFile
{
    version     2.0;
    format      ascii;
    arch        "LSB;label=32;scalar=64";
    class       surfaceScalarField;
    location    "0.05";
    object      phi;
}
// * * * * * * * * * * * * * * * * * * * * * * * * * * * * * * * * * * * * * //

dimensions      [0 3 -1 0 0 0 0];

oriented        oriented;

internalField   nonuniform List<scalar> 
3120
(
5.17973e-09
5.49943e-10
1.84588e-08
4.64009e-09
-4.34447e-09
-5.53207e-09
4.97865e-08
-1.62119e-09
1.21503e-09
-7.16416e-10
2.55613e-08
2.74901e-09
-2.10884e-09
2.91879e-08
3.74309e-09
3.41269e-09
-1.99179e-09
-5.2693e-09
4.12854e-08
-1.5151e-10
-2.31599e-09
2.82609e-08
-3.92842e-10
-1.07744e-09
3.33648e-08
2.41305e-09
2.42385e-08
3.86271e-09
-6.60925e-10
1.20022e-09
2.57995e-08
1.29418e-09
-1.80161e-09
3.01218e-08
3.60486e-09
1.50793e-09
2.80608e-08
-1.27779e-09
4.09445e-08
-4.13606e-10
-2.71717e-09
2.62943e-08
2.98442e-09
1.72687e-08
4.02752e-10
3.06683e-08
2.27142e-08
5.53667e-09
-2.37719e-09
-3.90564e-09
2.81545e-08
-1.92325e-09
3.08901e-09
1.58921e-09
4.15119e-08
1.21921e-09
8.62762e-10
-3.10345e-10
2.77002e-08
3.97728e-10
-2.08504e-10
2.72323e-08
2.07856e-09
9.48294e-10
5.14065e-09
1.86742e-09
2.76812e-08
6.46832e-10
1.20349e-09
3.31404e-08
1.80681e-09
1.48188e-09
3.04126e-08
-1.04287e-09
2.58036e-08
1.07604e-09
1.33895e-09
1.15247e-09
2.16121e-08
6.39023e-10
1.42549e-10
3.18826e-08
-1.40205e-09
2.21985e-09
2.93639e-08
4.91003e-09
2.99499e-08
3.63973e-09
1.63623e-10
2.95897e-08
2.50568e-09
1.65047e-08
2.81919e-09
3.62517e-08
3.21246e-08
-1.41491e-09
-4.16077e-09
2.57081e-10
3.17262e-08
-1.9174e-09
3.39309e-10
1.57306e-09
3.43068e-08
1.13194e-09
6.69953e-10
1.6424e-11
2.6505e-08
8.48159e-10
2.75502e-09
3.04017e-08
-3.12353e-09
-2.13089e-09
-6.94439e-10
-3.42577e-10
2.94701e-08
-7.61241e-10
9.8961e-10
3.37907e-08
3.10136e-09
-1.02693e-09
2.75934e-08
-2.33556e-09
3.47438e-08
-7.4832e-10
7.92946e-10
-4.52274e-10
2.24629e-08
-3.33661e-09
2.25431e-09
3.47475e-08
1.64944e-09
-3.96598e-10
2.37475e-08
-1.41287e-09
2.91912e-08
1.48537e-09
3.29515e-09
3.28859e-08
-3.50414e-09
3.08957e-08
1.71954e-10
3.30536e-08
2.56494e-08
2.60567e-09
1.86066e-10
1.26475e-09
2.27459e-08
2.65657e-09
1.30817e-09
1.56604e-10
2.76706e-08
5.35748e-09
1.51679e-09
8.20919e-10
2.60388e-08
-5.63321e-10
1.48698e-09
2.97684e-08
-1.09292e-09
1.75599e-09
-5.45901e-10
1.7228e-09
2.33118e-08
2.74096e-09
2.31791e-09
2.83425e-08
1.60606e-09
2.11877e-09
2.74305e-08
1.47336e-09
3.64648e-08
-1.01256e-10
-4.10641e-11
-1.59085e-09
3.05281e-08
2.42218e-09
3.40528e-09
3.11969e-08
-1.67704e-10
-2.56389e-09
3.10201e-08
9.31974e-10
3.22695e-08
-2.70455e-09
5.74163e-09
2.48009e-08
-2.63499e-09
4.64435e-08
2.83249e-09
2.72666e-08
4.09945e-08
-4.14105e-09
-2.1648e-09
-1.69453e-09
2.85293e-08
4.29705e-09
-2.61723e-10
-2.56009e-09
2.4995e-08
3.33265e-09
1.04703e-09
-9.44562e-10
2.39048e-08
1.76982e-09
-5.48048e-10
2.76093e-08
-4.55563e-10
4.20974e-09
-1.61691e-09
-2.36604e-10
2.5651e-08
1.78659e-09
3.52097e-09
1.8858e-08
1.51292e-09
1.21818e-09
2.55414e-08
-2.65779e-10
3.02795e-08
7.41601e-09
-3.06991e-11
-1.70449e-09
3.13468e-08
-1.69338e-09
-1.0511e-09
3.74316e-08
6.30224e-10
-7.07597e-10
3.06223e-08
3.25034e-09
2.73191e-08
2.06449e-09
8.90876e-10
1.49072e-08
-8.89783e-10
3.83343e-08
3.89819e-09
1.84484e-08
5.21312e-08
-1.67321e-09
-3.5755e-10
-9.20074e-09
3.76423e-08
4.24093e-10
-1.42281e-10
-4.26515e-09
3.03333e-08
-1.2884e-09
1.78529e-09
-3.33715e-09
1.93081e-08
6.00631e-09
-2.78041e-09
3.79316e-08
1.5926e-10
-5.91588e-09
1.0569e-09
-8.70271e-10
1.73993e-08
5.53322e-10
-1.85991e-09
1.69563e-08
3.50473e-09
-3.82217e-09
2.3075e-08
-8.63319e-10
3.10819e-08
7.85213e-10
-8.09809e-11
8.58673e-10
2.76627e-08
-3.52813e-09
-5.25014e-10
3.95438e-08
4.23739e-09
3.10043e-09
1.59342e-08
2.52085e-09
2.31946e-08
4.97774e-09
-1.33749e-09
1.15278e-08
1.71239e-09
2.73715e-08
5.18615e-09
1.47353e-08
5.35034e-08
1.16908e-09
8.18481e-10
1.15278e-09
3.7023e-08
-7.4165e-10
9.13805e-10
5.27433e-10
2.8753e-08
9.57304e-10
-1.34415e-09
-6.68157e-10
2.40285e-08
-1.79425e-09
6.63873e-10
3.57044e-08
-2.00381e-10
4.19339e-10
2.95688e-10
-2.57261e-10
2.48015e-08
9.45883e-12
-1.55356e-09
1.93232e-08
2.11943e-10
-1.50025e-10
2.23543e-08
1.28065e-09
3.09274e-08
-2.50558e-10
-5.43711e-10
4.6074e-10
2.76088e-08
1.2845e-09
4.33156e-10
3.57286e-08
-5.62333e-10
-2.87472e-10
1.79181e-08
-1.31807e-09
2.66155e-08
-1.38469e-09
-8.07162e-10
1.64188e-08
6.04655e-10
2.68347e-08
-2.70829e-09
1.9865e-08
4.34098e-08
2.98547e-09
1.10491e-09
1.01026e-09
3.64933e-08
-7.10477e-10
1.08796e-09
-5.51802e-10
2.8802e-08
5.20125e-10
5.24861e-10
-2.2208e-10
2.63127e-08
-1.49831e-09
-1.12844e-09
3.34562e-08
1.52586e-09
2.37602e-09
4.00818e-10
-2.49714e-10
2.66205e-08
-1.31731e-10
-2.56501e-09
2.18686e-08
-2.10144e-10
-1.10598e-09
2.33167e-08
-2.00437e-09
3.18407e-08
-2.47678e-10
-1.00578e-09
-6.34807e-10
2.86338e-08
6.9874e-10
-1.07536e-09
3.25342e-08
-8.99688e-10
-2.33757e-09
2.07482e-08
-3.957e-09
2.96737e-08
-2.0056e-09
-2.026e-09
2.17462e-08
-7.18668e-10
2.47324e-08
-1.77793e-09
2.04016e-08
3.7746e-08
1.28504e-09
2.85525e-09
4.4711e-09
3.35527e-08
-2.94413e-09
3.38596e-10
2.95959e-09
3.07453e-08
-2.38653e-09
-2.61531e-09
3.16836e-09
3.01694e-08
-4.07143e-09
1.45034e-09
3.24678e-08
-9.80053e-10
-2.09752e-09
2.22786e-09
1.75839e-09
2.97323e-08
-6.99892e-10
-2.32114e-10
2.79883e-08
-4.17901e-09
1.48513e-09
2.84791e-08
6.49453e-10
3.20913e-08
-3.62889e-09
4.30814e-10
5.71822e-10
2.97983e-08
1.48559e-09
5.75314e-10
3.06722e-08
-3.51665e-09
-5.52016e-10
2.77878e-08
-1.39819e-09
3.15412e-08
-3.33674e-09
2.8692e-10
2.77962e-08
-9.17641e-10
2.86901e-08
-5.01544e-09
2.80196e-08
3.36693e-08
-1.38676e-09
1.20745e-09
2.54105e-09
3.27087e-08
-2.2066e-09
1.89517e-10
1.81011e-09
3.18006e-08
-1.8479e-09
-8.79352e-10
1.53507e-09
3.16981e-08
-1.99529e-09
2.58816e-10
3.24521e-08
-1.71406e-10
-9.51649e-10
7.63813e-10
1.19122e-09
3.12954e-08
-4.98424e-10
3.10863e-10
3.07498e-08
-1.95197e-09
5.37294e-10
3.09303e-08
-1.55178e-10
3.22871e-08
-1.73398e-09
-6.41032e-12
2.43393e-10
3.10116e-08
-2.31051e-10
3.50224e-12
3.12041e-08
-2.09355e-09
-5.49684e-10
3.0737e-08
-9.08413e-10
3.21975e-08
-1.997e-09
-3.05059e-10
3.04991e-08
-1.02562e-09
3.07283e-08
-2.59082e-09
3.09254e-08
3.26643e-08
-1.50184e-09
3.53067e-10
1.30818e-09
3.26615e-08
-1.23838e-09
-1.63796e-10
1.02072e-09
3.23779e-08
-1.08105e-09
-6.30288e-10
8.74715e-10
3.23995e-08
-1.1094e-09
3.9894e-10
3.26817e-08
-4.47674e-10
-8.10771e-10
1.47449e-10
7.4385e-10
3.20843e-08
-4.1222e-10
3.92803e-10
3.19374e-08
-9.89128e-10
3.27426e-10
3.20544e-08
5.17729e-11
3.25718e-08
-9.26986e-10
-1.56284e-10
1.88764e-10
3.18679e-08
-4.50552e-10
-2.39161e-11
3.19149e-08
-1.11642e-09
-2.43039e-10
3.19732e-08
-3.74398e-10
3.25481e-08
-1.04108e-09
-3.248e-10
3.17177e-08
-7.73254e-10
3.18189e-08
-1.28148e-09
3.20446e-08
3.26779e-08
-9.74618e-10
1.20452e-10
6.98492e-10
3.27684e-08
-7.2394e-10
-1.13703e-10
5.50134e-10
3.26769e-08
-6.15027e-10
-2.95398e-10
4.29571e-10
3.27067e-08
-5.55064e-10
1.84479e-10
3.28165e-08
-2.28451e-10
-3.86309e-10
-9.8818e-12
4.30169e-10
3.2511e-08
-2.63207e-10
2.65931e-10
3.24749e-08
-4.83513e-10
1.54177e-10
3.255e-08
-1.03153e-11
3.2752e-08
-4.69264e-10
-1.51793e-10
1.12863e-10
3.23838e-08
-3.68673e-10
-1.78544e-11
3.24156e-08
-6.04876e-10
-1.4039e-10
3.25039e-08
-2.34764e-10
3.27444e-08
-5.76959e-10
-2.66632e-10
3.23293e-08
-5.1215e-10
3.23937e-08
-7.03847e-10
3.25373e-08
3.28026e-08
-6.18875e-10
3.55539e-11
3.71834e-10
3.28671e-08
-4.04764e-10
-7.74151e-11
2.90269e-10
3.28365e-08
-3.36863e-10
-1.57262e-10
2.13193e-10
3.28565e-08
-2.83209e-10
9.37085e-11
3.2904e-08
-1.33012e-10
-2.05511e-10
-3.92189e-11
2.35165e-10
3.27439e-08
-1.61985e-10
1.49324e-10
3.27388e-08
-2.52748e-10
7.222e-11
3.27816e-08
-2.01236e-11
3.28668e-08
-2.53974e-10
-1.19399e-10
6.31803e-11
3.26739e-08
-2.37947e-10
-1.29109e-11
3.26966e-08
-3.32308e-10
-8.57174e-11
3.27563e-08
-1.4909e-10
3.28643e-08
-3.2345e-10
-1.90031e-10
3.26503e-08
-3.14684e-10
3.26915e-08
-3.94763e-10
3.27746e-08
3.28973e-08
-3.66917e-10
4.68772e-12
1.97426e-10
3.2932e-08
-2.21064e-10
-5.00207e-11
1.51206e-10
3.29211e-08
-1.81107e-10
-8.67438e-11
1.04661e-10
3.29328e-08
-1.44172e-10
4.3163e-11
3.29551e-08
-7.13686e-11
-1.09706e-10
-3.88041e-11
1.26017e-10
3.28699e-08
-9.8791e-11
7.81194e-11
3.2872e-08
-1.3877e-10
3.04257e-11
3.28959e-08
-2.18467e-11
3.29354e-08
-1.42589e-10
-8.50406e-11
3.33121e-11
3.28321e-08
-1.46224e-10
-1.13239e-11
3.28475e-08
-1.86791e-10
-5.55379e-11
3.2883e-08
-9.55072e-11
3.29356e-08
-1.84479e-10
-1.28078e-10
3.28206e-08
-1.90584e-10
3.28469e-08
-2.25725e-10
3.28941e-08
3.2956e-08
-2.14974e-10
-6.31666e-12
1.05157e-10
3.29705e-08
-1.20338e-10
-3.35709e-11
7.84893e-11
3.29667e-08
-9.67148e-11
-5.13002e-11
5.04906e-11
3.29733e-08
-7.3128e-11
1.73473e-11
3.29848e-08
-3.62999e-11
-6.19667e-11
-3.24415e-11
6.68699e-11
3.29383e-08
-6.23281e-11
3.91081e-11
3.29415e-08
-8.1073e-11
1.03687e-11
3.2955e-08
-1.96398e-11
3.29752e-08
-8.3795e-11
-5.96653e-11
1.62475e-11
3.29181e-08
-9.09956e-11
-1.04618e-11
3.29284e-08
-1.09512e-10
-3.70061e-11
3.2949e-08
-6.14716e-11
3.29766e-08
-1.08645e-10
-8.57931e-11
3.29123e-08
-1.17383e-10
3.2929e-08
-1.33354e-10
3.29562e-08
3.29896e-08
-1.27946e-10
-1.03467e-11
5.6179e-11
3.29924e-08
-6.54138e-11
-2.39637e-11
4.03806e-11
3.29914e-08
-5.1272e-11
-3.27168e-11
2.3497e-11
3.29953e-08
-3.65669e-11
4.87753e-12
3.30017e-08
-1.70263e-11
-3.74953e-11
-2.61273e-11
3.52072e-11
3.29754e-08
-4.11886e-11
1.86904e-11
3.29784e-08
-5.01833e-11
1.40435e-12
3.29864e-08
-1.60751e-11
3.29974e-08
-5.14621e-11
-4.24443e-11
7.19604e-12
3.29648e-08
-5.843e-11
-8.94339e-12
3.29717e-08
-6.70693e-11
-2.49394e-11
3.29839e-08
-3.97272e-11
3.29993e-08
-6.61821e-11
-5.83579e-11
3.2962e-08
-7.43205e-11
3.29727e-08
-8.15199e-11
3.29887e-08
3.30076e-08
-7.7945e-11
-1.12316e-11
3.00928e-11
3.30047e-08
-3.55115e-11
-1.80051e-11
2.04999e-11
3.30048e-08
-2.69262e-11
-2.2268e-11
1.01908e-11
3.30074e-08
-1.78083e-11
-4.99366e-13
3.30112e-08
-7.0444e-12
-2.41911e-11
-2.08735e-11
1.8477e-11
3.29956e-08
-2.84336e-11
8.42741e-12
3.29981e-08
-3.26595e-11
-2.1528e-12
3.30031e-08
-1.23803e-11
3.30096e-08
-3.28838e-11
-3.08555e-11
2.85981e-12
3.299e-08
-3.88373e-11
-7.06766e-12
3.29948e-08
-4.27675e-11
-1.68361e-11
3.30023e-08
-2.57576e-11
3.30113e-08
-4.16341e-11
-4.06958e-11
3.29888e-08
-4.85524e-11
3.29958e-08
-5.15073e-11
3.30056e-08
3.30168e-08
-4.87033e-11
-1.05861e-11
1.61283e-11
3.30114e-08
-1.92501e-11
-1.38868e-11
1.01826e-11
3.30121e-08
-1.39636e-11
-1.58941e-11
3.86352e-12
3.30139e-08
-8.25813e-12
-2.43806e-12
3.30164e-08
-2.22585e-12
-1.63756e-11
-1.65687e-11
9.6463e-12
3.30066e-08
-2.02438e-11
3.40373e-12
3.30086e-08
-2.21216e-11
-3.00735e-12
3.3012e-08
-9.17073e-12
3.3016e-08
-2.17217e-11
-2.27991e-11
9.64847e-13
3.30036e-08
-2.6615e-11
-5.2452e-12
3.30071e-08
-2.81618e-11
-1.12771e-11
3.30119e-08
-1.67054e-11
3.30176e-08
-2.69299e-11
-2.89914e-11
3.30031e-08
-3.26193e-11
3.3008e-08
-3.34868e-11
3.30142e-08
3.30212e-08
-3.11657e-11
-9.21983e-12
8.57182e-12
3.30152e-08
-1.0398e-11
-1.07863e-11
4.85966e-12
3.3016e-08
-7.08965e-12
-1.16026e-11
9.94003e-13
3.30174e-08
-3.58649e-12
-2.76106e-12
3.30191e-08
-2.15233e-14
-1.14511e-11
-1.29465e-11
4.91085e-12
3.30125e-08
-1.46577e-11
1.04345e-12
3.30143e-08
-1.53447e-11
-2.85958e-12
3.30166e-08
-6.54995e-12
3.30193e-08
-1.46704e-11
-1.68091e-11
-2.32623e-14
3.30109e-08
-1.85373e-11
-3.70222e-12
3.30136e-08
-1.89536e-11
-7.44112e-12
3.3017e-08
-1.07434e-11
3.30206e-08
-1.77643e-11
-2.07629e-11
3.30107e-08
-2.22608e-11
3.30143e-08
-2.219e-11
3.30186e-08
3.3023e-08
-2.03029e-11
-7.55201e-12
4.45459e-12
3.30173e-08
-5.55707e-12
-8.271e-12
2.17169e-12
3.30182e-08
-3.50559e-12
-8.50709e-12
-1.66382e-13
3.30193e-08
-1.36396e-12
-2.38709e-12
3.30206e-08
7.17136e-13
-8.0903e-12
-9.84369e-12
2.40204e-12
3.30159e-08
-1.05999e-11
4.89205e-14
3.30174e-08
-1.07211e-11
-2.28814e-12
3.30191e-08
-4.47677e-12
3.3021e-08
-9.98418e-12
-1.21936e-11
-3.81326e-13
3.30151e-08
-1.29201e-11
-2.51874e-12
3.30172e-08
-1.28496e-11
-4.7885e-12
3.30196e-08
-6.77328e-12
3.30221e-08
-1.18113e-11
-1.46279e-11
3.3015e-08
-1.51782e-11
3.30177e-08
-1.47866e-11
3.30207e-08
3.30237e-08
-1.33247e-11
-5.82131e-12
2.23452e-12
3.30187e-08
-2.89832e-12
-6.13653e-12
8.66316e-13
3.30196e-08
-1.66848e-12
-6.1183e-12
-5.33832e-13
3.30205e-08
-3.52613e-13
-1.80815e-12
3.30214e-08
8.31937e-13
-5.65392e-12
-7.19576e-12
1.14241e-12
3.30179e-08
-7.50707e-12
-2.64628e-13
3.30192e-08
-7.39738e-12
-1.6272e-12
3.30205e-08
-2.89639e-12
3.30219e-08
-6.71858e-12
-8.59765e-12
-3.32646e-13
3.30175e-08
-8.85889e-12
-1.67174e-12
3.30192e-08
-8.62104e-12
-2.99312e-12
3.3021e-08
-4.15256e-12
3.30227e-08
-7.7851e-12
-9.96858e-12
3.30175e-08
-1.01679e-11
3.30196e-08
-9.74434e-12
3.30217e-08
3.30239e-08
-8.66449e-12
-4.15915e-12
1.0518e-12
3.30196e-08
-1.44013e-12
-4.2908e-12
2.61656e-13
3.30204e-08
-7.26396e-13
-4.17786e-12
-5.28561e-13
3.30212e-08
1.81412e-14
-1.24847e-12
3.30219e-08
6.96942e-13
-3.77638e-12
-4.9509e-12
4.9931e-13
3.30191e-08
-5.06634e-12
-3.00251e-13
3.30202e-08
-4.88643e-12
-1.04847e-12
3.30213e-08
-1.75889e-12
3.30224e-08
-4.33707e-12
-5.73379e-12
-2.97787e-13
3.30189e-08
-5.81829e-12
-1.07588e-12
3.30203e-08
-5.56393e-12
-1.81183e-12
3.30217e-08
-2.45866e-12
3.30231e-08
-4.9448e-12
-6.49558e-12
3.3019e-08
-6.54361e-12
3.30206e-08
-6.18597e-12
3.30223e-08
3.30239e-08
-5.42661e-12
-2.66749e-12
3.98508e-13
3.30201e-08
-6.04807e-13
-2.7083e-12
-2.44825e-14
3.30209e-08
-2.13054e-13
-2.59025e-12
-4.49684e-13
3.30216e-08
1.98014e-13
-8.29698e-13
3.30222e-08
5.62659e-13
-2.29598e-12
-3.09454e-12
1.32743e-13
3.30198e-08
-3.12275e-12
-2.75535e-13
3.30208e-08
-2.9609e-12
-6.70331e-13
3.30218e-08
-1.0404e-12
3.30227e-08
-2.57726e-12
-3.502e-12
-2.88996e-13
3.30197e-08
-3.50912e-12
-7.00448e-13
3.30209e-08
-3.30953e-12
-1.08478e-12
3.30221e-08
-1.41928e-12
3.30233e-08
-2.90399e-12
-3.90876e-12
3.30198e-08
-3.88683e-12
3.30212e-08
-3.62884e-12
3.30226e-08
3.30239e-08
-3.14369e-12
-1.59622e-12
-4.29576e-14
-6.11262e-14
-1.59791e-12
-2.6541e-13
1.56421e-13
-1.51598e-12
-4.8288e-13
3.79202e-13
-6.77286e-13
5.71861e-13
-1.33329e-12
-1.81928e-12
-1.93383e-13
-1.80952e-12
-4.07858e-13
-1.7047e-12
-6.12153e-13
-7.99211e-13
-1.49025e-12
-2.03284e-12
-4.03575e-13
-2.00791e-12
-6.14462e-13
-1.8788e-12
-8.07225e-13
-9.72924e-13
-1.64789e-12
-2.24189e-12
-2.19716e-12
-2.03516e-12
-1.76124e-12
1.05362e-10
-4.42839e-09
5.44638e-08
4.48203e-09
-5.26363e-10
4.1364e-08
-2.86586e-09
-1.14796e-08
5.83872e-08
-7.76731e-10
2.9772e-08
8.23387e-10
1.86899e-09
1.11741e-09
3.67767e-08
1.09108e-09
-2.41791e-09
4.35083e-08
1.85064e-10
-2.65377e-09
2.7458e-08
5.08503e-09
2.25233e-08
-1.58757e-10
2.8387e-10
-3.80933e-09
4.66432e-08
1.52118e-09
-4.0609e-09
3.69472e-08
3.66783e-09
-5.29056e-09
3.19585e-08
-9.6191e-09
4.48181e-08
-2.17827e-09
-1.32899e-09
3.99509e-08
3.56473e-10
2.48177e-08
6.80487e-10
2.40527e-08
1.50325e-08
-3.36863e-10
3.54097e-10
-2.37035e-09
5.41007e-08
-2.19421e-09
-1.84979e-09
4.59446e-08
3.04574e-09
1.40479e-09
5.17911e-08
-5.5177e-09
4.00912e-08
-1.84479e-09
-1.67383e-10
-6.26299e-09
4.01324e-08
-1.06558e-09
-5.58139e-09
4.81381e-08
-1.67133e-10
1.17415e-09
2.67902e-08
-4.486e-09
2.18783e-08
-5.53887e-10
1.51803e-09
-5.39189e-09
4.03686e-08
1.56779e-09
-3.71212e-09
3.50282e-08
-3.54685e-09
-4.00863e-09
4.22559e-08
-1.9353e-09
3.98941e-08
-1.17365e-09
1.73499e-09
2.56283e-08
7.61529e-10
2.32983e-08
1.89846e-10
2.10135e-08
1.65393e-08
-1.17362e-09
-1.99951e-09
-1.85109e-09
5.83268e-08
-1.622e-09
-3.42629e-09
4.9146e-08
4.24121e-09
2.6046e-09
4.35597e-08
-8.32572e-09
5.38858e-08
-1.56451e-09
-3.42098e-09
-1.01657e-09
3.99938e-08
2.56132e-10
5.4435e-09
3.55912e-08
-9.68828e-11
-1.79277e-09
3.15406e-08
-7.70233e-09
2.12938e-08
-1.35736e-10
4.98098e-10
-1.86753e-09
4.01712e-08
-3.91208e-09
-1.93445e-09
4.68163e-08
-4.18547e-09
6.24476e-10
4.0112e-08
3.74074e-09
2.27469e-08
1.51866e-09
-1.636e-10
1.9177e-08
-7.4562e-10
2.30778e-08
-1.57988e-09
2.33203e-08
1.54195e-08
1.57167e-10
-2.22328e-09
-2.54736e-09
6.47819e-08
2.78639e-09
-1.8146e-09
4.58557e-08
-3.2051e-09
-1.92466e-09
5.16084e-08
-1.19423e-09
4.71958e-08
4.70919e-09
-1.02041e-09
6.00359e-09
3.29731e-08
1.68661e-09
6.27959e-09
2.479e-08
-1.46087e-09
-4.35956e-09
3.7123e-08
5.10497e-11
1.69619e-08
1.62582e-09
-2.74744e-09
5.92475e-10
5.35388e-08
-3.29508e-09
4.59972e-09
4.90438e-08
6.28981e-10
1.17278e-09
3.06557e-08
3.19806e-09
1.96874e-08
5.41547e-10
3.58431e-10
2.48515e-08
-3.47627e-09
3.68697e-08
1.16946e-09
1.92841e-08
1.76686e-08
1.02548e-09
1.03487e-09
1.88995e-09
6.0674e-08
-2.62988e-09
-1.6156e-09
5.12021e-08
-3.8982e-09
2.95649e-09
5.00966e-08
7.28992e-09
3.40031e-08
1.97611e-09
-5.31003e-10
2.00028e-09
3.49403e-08
-9.22785e-11
-9.58866e-10
2.36945e-08
-5.65855e-10
-1.33137e-09
4.18844e-08
3.54156e-10
2.31807e-08
1.51106e-10
-3.19202e-09
1.21967e-08
4.80894e-08
7.46369e-10
7.65854e-09
3.6488e-08
1.64335e-10
3.93086e-09
2.59755e-08
4.96397e-09
1.47441e-08
4.9784e-10
-8.05707e-09
5.72625e-08
-1.20734e-10
3.99246e-08
-7.89532e-11
2.4943e-08
2.00875e-08
2.01049e-09
6.85568e-10
5.33739e-09
5.30385e-08
-2.30817e-09
6.13918e-09
4.8209e-08
-3.22517e-09
-4.84956e-10
5.16215e-08
1.03726e-08
1.87885e-08
1.76749e-09
4.24187e-10
-4.46574e-10
3.80855e-08
-3.88491e-09
2.19658e-09
3.19462e-08
-8.36771e-10
9.28989e-09
2.90614e-08
8.13808e-09
2.43183e-08
2.60081e-10
2.30213e-09
-3.48548e-09
4.60505e-08
-4.70502e-11
-6.61102e-09
4.76448e-08
-1.80562e-09
8.34336e-10
3.61896e-08
4.35892e-09
1.67379e-08
-2.02466e-11
-3.39525e-09
5.11321e-08
5.92299e-09
2.27069e-08
-2.50706e-09
4.02137e-08
2.47976e-08
-2.69903e-09
-2.0119e-10
-3.58159e-11
5.1444e-08
-5.93237e-10
5.68887e-10
4.72048e-08
9.15485e-10
2.51872e-09
5.07046e-08
-7.99127e-10
2.11454e-08
-5.29902e-10
1.20281e-10
-1.70118e-09
3.98884e-08
2.32387e-10
-2.73911e-09
3.51418e-08
1.89871e-10
-1.49493e-09
3.31173e-08
-6.12928e-12
2.2895e-08
8.20503e-10
-1.18718e-12
-1.8638e-09
4.45564e-08
3.93334e-10
6.1248e-10
4.38986e-08
7.9795e-10
-8.81973e-10
3.51719e-08
-1.86534e-09
1.8989e-08
4.05921e-10
8.84358e-12
4.68428e-08
-2.80454e-09
2.70899e-08
1.60745e-10
3.45722e-08
2.20907e-08
8.015e-10
9.77273e-10
-9.7507e-10
5.19413e-08
9.59685e-10
-1.4621e-09
4.86847e-08
1.91657e-09
-7.03944e-10
5.04509e-08
-2.97338e-09
2.677e-08
-7.33731e-10
1.57394e-09
-2.399e-09
4.19817e-08
1.3339e-09
-3.81185e-09
3.77314e-08
1.34111e-09
-4.62969e-09
3.70341e-08
-3.31521e-09
2.48983e-08
-3.20592e-10
1.10619e-10
-1.49334e-09
4.35643e-08
1.37827e-09
4.98902e-10
3.83197e-08
2.03066e-09
-2.52901e-09
3.2418e-08
-4.08896e-09
2.17984e-08
-5.15988e-12
1.39501e-09
4.3556e-08
-7.5057e-10
3.0254e-08
1.59399e-09
2.81997e-08
2.0674e-08
4.46634e-10
-5.63976e-10
5.52002e-10
5.14242e-08
-7.88566e-10
1.42234e-09
4.74863e-08
1.39715e-09
3.74868e-09
4.45159e-08
-1.11e-09
2.97417e-08
-4.66479e-10
1.9945e-10
-1.52403e-09
4.46741e-08
-9.47162e-10
-1.61631e-10
4.04619e-08
6.78245e-10
2.28404e-09
3.68727e-08
-1.03505e-09
2.62301e-08
-7.29749e-10
3.34918e-10
-4.22561e-10
4.1568e-08
-8.1519e-11
1.45672e-09
3.71175e-08
5.0545e-10
2.3382e-09
3.17764e-08
-7.88027e-10
2.25296e-08
-4.73405e-10
2.31113e-09
3.76827e-08
2.62955e-10
3.13721e-08
-6.06351e-11
2.67897e-08
1.91161e-08
-2.71398e-10
4.4832e-10
9.76515e-10
5.00796e-08
5.04385e-10
1.11079e-09
4.63189e-08
1.34899e-09
1.96883e-09
4.17024e-08
-1.65075e-10
3.13727e-08
-1.17402e-10
7.98921e-10
5.83406e-10
4.47605e-08
4.77618e-10
8.16348e-10
4.10772e-08
1.07618e-09
1.90069e-09
3.63423e-08
-8.67041e-11
2.7504e-08
-2.76627e-10
9.40358e-10
1.13958e-09
4.02215e-08
6.70929e-10
1.56356e-09
3.66396e-08
8.90373e-10
1.90564e-09
3.15519e-08
1.17815e-11
2.36184e-08
-2.97364e-10
1.39327e-09
3.54205e-08
7.18669e-10
3.17623e-08
5.24578e-10
2.6894e-08
1.97266e-08
-2.46075e-10
3.36353e-10
4.5971e-10
4.95027e-08
1.98838e-10
4.47059e-10
4.60096e-08
4.33851e-10
7.48743e-10
4.07189e-08
-3.44232e-11
3.18566e-08
-1.52378e-11
4.25044e-10
5.95892e-10
4.45467e-08
1.68254e-10
5.61271e-10
4.12197e-08
3.24209e-10
9.19565e-10
3.60156e-08
5.79967e-11
2.7812e-08
-7.61455e-11
4.5186e-10
9.05085e-10
3.97308e-08
1.79246e-10
8.71398e-10
3.66021e-08
1.98679e-10
1.01147e-09
3.14408e-08
2.29815e-10
2.37604e-08
-1.1501e-10
5.25163e-10
3.48341e-08
1.84727e-10
3.1893e-08
6.21952e-11
2.69184e-08
1.96804e-08
-1.10018e-10
2.88095e-10
3.15378e-10
4.91084e-08
1.84495e-10
2.7642e-10
4.58368e-08
2.50314e-10
3.65373e-10
4.02877e-08
4.12509e-11
3.20688e-08
-3.3164e-12
3.03353e-10
5.0008e-10
4.43013e-08
1.68173e-10
4.25045e-10
4.12062e-08
2.08452e-10
5.12523e-10
3.5828e-08
1.11987e-10
2.79737e-08
-2.41676e-11
2.94731e-10
6.50402e-10
3.95099e-08
1.54569e-10
5.60527e-10
3.66068e-08
1.45488e-10
5.66477e-10
3.13959e-08
1.89161e-10
2.38743e-08
-4.5691e-11
2.75121e-10
3.46937e-08
1.2886e-10
3.19846e-08
7.16224e-11
2.69867e-08
1.97598e-08
-4.77176e-11
1.87905e-10
1.95913e-10
4.88724e-08
1.21045e-10
1.59057e-10
4.57446e-08
1.21067e-10
1.73537e-10
4.01141e-08
3.44303e-11
3.21598e-08
-4.58876e-12
1.8352e-10
3.21568e-10
4.41471e-08
1.08535e-10
2.59933e-10
4.11804e-08
1.01573e-10
2.61109e-10
3.57473e-08
7.7539e-11
2.80439e-08
-1.18172e-11
1.66655e-10
3.95742e-10
3.94137e-08
9.16805e-11
3.25795e-10
3.66159e-08
6.97461e-11
2.93985e-10
3.1385e-08
1.17821e-10
2.39248e-08
-2.10045e-11
1.37944e-10
3.4673e-08
6.65211e-11
3.20449e-08
3.24863e-11
2.70313e-08
1.97991e-08
-2.24693e-11
1.08085e-10
1.12283e-10
4.87424e-08
7.0226e-11
8.80989e-11
4.56944e-08
5.66784e-11
8.39863e-11
4.00437e-08
2.29017e-11
3.21992e-08
-5.66615e-12
1.01595e-10
1.8737e-10
4.40607e-08
6.22609e-11
1.4827e-10
4.11598e-08
4.75574e-11
1.32076e-10
3.57141e-08
4.79697e-11
2.80754e-08
-8.92756e-12
8.78548e-11
2.25076e-10
3.93705e-08
4.98761e-11
1.81497e-10
3.66208e-08
3.20414e-11
1.50977e-10
3.1384e-08
6.74168e-11
2.39495e-08
-1.20935e-11
6.63702e-11
3.46782e-08
3.20848e-11
3.20797e-08
1.30475e-11
2.70571e-08
1.9821e-08
-1.29797e-11
5.79022e-11
6.31021e-11
4.86715e-08
3.78102e-11
4.88003e-11
4.5666e-08
2.48921e-11
4.18037e-11
4.0015e-08
1.42226e-11
3.22172e-08
-7.23537e-12
5.29538e-11
1.05907e-10
4.40135e-08
3.29187e-11
8.28727e-11
4.11462e-08
2.05101e-11
6.74721e-11
3.57011e-08
2.77413e-11
2.80903e-08
-7.88393e-12
4.35677e-11
1.25395e-10
3.93499e-08
2.47327e-11
9.97097e-11
3.66231e-08
1.26023e-11
7.77019e-11
3.13861e-08
3.65364e-11
2.39623e-08
-9.01524e-12
2.94609e-11
3.46858e-08
1.31711e-11
3.20993e-08
2.64354e-12
2.70724e-08
1.98334e-08
-9.63218e-12
2.89276e-11
3.5237e-11
4.86328e-08
1.85938e-11
2.69981e-11
4.56496e-08
9.33901e-12
2.11937e-11
4.00034e-08
8.13427e-12
3.22255e-08
-6.93371e-12
2.56152e-11
5.91155e-11
4.39879e-08
1.55766e-11
4.57877e-11
4.11379e-08
7.07508e-12
3.46897e-11
3.56964e-08
1.50292e-11
2.80976e-08
-7.05821e-12
1.95112e-11
6.92706e-11
3.93397e-08
1.02891e-11
5.42704e-11
3.66241e-08
2.84526e-12
3.9905e-11
3.13887e-08
1.85865e-11
2.39692e-08
-7.5881e-12
1.05842e-11
3.46914e-08
3.01906e-12
3.21102e-08
-2.45233e-12
2.70813e-08
1.98405e-08
-8.09459e-12
1.29156e-11
1.95265e-11
4.86117e-08
7.68338e-12
1.48232e-11
4.56403e-08
1.88178e-12
1.08638e-11
3.99986e-08
4.33367e-12
3.22294e-08
-6.13108e-12
1.07616e-11
3.27483e-11
4.3974e-08
5.81704e-12
2.50329e-11
4.11331e-08
7.67618e-13
1.78046e-11
3.56948e-08
7.70132e-12
2.81013e-08
-6.15544e-12
6.8346e-12
3.8084e-11
3.93344e-08
2.4281e-12
2.92417e-11
3.66246e-08
-1.67073e-12
2.02481e-11
3.13906e-08
8.90543e-12
2.39729e-08
-6.51543e-12
1.16952e-12
3.46949e-08
-2.28437e-12
3.21162e-08
-4.87184e-12
2.70865e-08
1.98444e-08
-6.96816e-12
4.47316e-12
1.07578e-11
4.86002e-08
1.90151e-12
8.0557e-12
4.56352e-08
-1.34565e-12
5.56145e-12
3.99966e-08
2.18624e-12
3.22313e-08
-5.1667e-12
3.07277e-12
1.80691e-11
4.39665e-08
7.03681e-13
1.35677e-11
4.11304e-08
-1.98162e-12
9.08327e-12
3.56944e-08
3.71804e-12
2.81031e-08
-5.18503e-12
5.03347e-13
2.09153e-11
3.93317e-08
-1.499e-12
1.56057e-11
3.66249e-08
-3.43226e-12
1.00562e-11
3.13919e-08
3.88589e-12
2.39748e-08
-5.4667e-12
-3.08513e-12
3.4697e-08
-4.55022e-12
3.21195e-08
-5.47249e-12
2.70894e-08
1.98465e-08
-5.84329e-12
2.92622e-13
5.8719e-12
4.85941e-08
-9.03865e-13
4.31661e-12
4.56324e-08
-2.508e-12
2.77934e-12
3.99957e-08
1.03341e-12
3.22322e-08
-4.18156e-12
-6.77461e-13
9.94234e-12
4.39626e-08
-1.70107e-12
7.25793e-12
4.11289e-08
-2.94997e-12
4.54721e-12
3.56943e-08
1.64914e-12
2.8104e-08
-4.2074e-12
-2.30084e-12
1.14237e-11
3.93304e-08
-3.14969e-12
8.22984e-12
3.66251e-08
-3.8962e-12
4.84829e-12
3.13926e-08
1.34452e-12
2.39758e-08
-4.4335e-12
-4.65022e-12
3.46982e-08
-5.09387e-12
3.21213e-08
-5.1694e-12
2.7091e-08
1.98476e-08
-4.71853e-12
-1.49375e-12
3.15206e-12
4.8591e-08
-2.02817e-12
2.24337e-12
4.5631e-08
-2.71228e-12
1.31253e-12
3.99954e-08
4.02317e-13
3.22326e-08
-3.25458e-12
-2.12989e-12
5.36982e-12
4.39605e-08
-2.55507e-12
3.82295e-12
4.11283e-08
-3.00539e-12
2.20178e-12
3.56943e-08
6.36882e-13
2.81045e-08
-3.28062e-12
-3.25599e-12
6.131e-12
3.93298e-08
-3.51919e-12
4.23773e-12
3.66253e-08
-3.61273e-12
2.19419e-12
3.13931e-08
2.42341e-13
2.39763e-08
-3.46079e-12
-4.76982e-12
3.4699e-08
-4.75804e-12
3.21224e-08
-4.43292e-12
2.70919e-08
1.98481e-08
-3.65808e-12
-2.02082e-12
1.62478e-12
4.85894e-08
-2.21078e-12
1.09314e-12
4.56304e-08
-2.40657e-12
5.50644e-13
3.99954e-08
7.15363e-14
3.22328e-08
-2.41062e-12
-2.46527e-12
2.8033e-12
4.39597e-08
-2.57977e-12
1.92538e-12
4.11281e-08
-2.60681e-12
9.9383e-13
3.56945e-08
1.49754e-13
2.81047e-08
-2.4318e-12
-3.20632e-12
3.1704e-12
3.93296e-08
-3.21318e-12
2.06674e-12
3.66256e-08
-2.99551e-12
8.61178e-13
3.13935e-08
-2.17277e-13
2.39766e-08
-2.56934e-12
-4.15415e-12
3.46996e-08
-3.99117e-12
3.21231e-08
-3.51571e-12
2.70925e-08
1.98485e-08
-2.69439e-12
-1.85592e-12
7.87909e-13
4.85888e-08
-1.89121e-12
4.816e-13
4.56303e-08
-1.86215e-12
1.7806e-13
3.99956e-08
-6.54249e-14
3.22331e-08
-1.66269e-12
-2.15886e-12
1.37211e-12
4.39593e-08
-2.14489e-12
9.00022e-13
4.11281e-08
-1.99599e-12
3.93263e-13
3.56947e-08
-4.15507e-14
2.8105e-08
-1.68568e-12
-2.63041e-12
1.53379e-12
3.93297e-08
-2.5452e-12
9.18426e-13
3.66258e-08
-2.2483e-12
2.44947e-13
3.13938e-08
-3.50097e-13
2.39768e-08
-1.78196e-12
-3.20271e-12
3.47001e-08
-3.01486e-12
3.21236e-08
-2.56736e-12
2.70929e-08
1.98488e-08
-1.85794e-12
-1.35994e-12
3.39154e-13
4.85886e-08
-1.33753e-12
1.87467e-13
4.56304e-08
-1.24439e-12
3.58388e-14
3.99958e-08
-6.52863e-14
3.22333e-08
-1.0388e-12
-1.55291e-12
5.8868e-13
4.39593e-08
-1.49837e-12
3.57818e-13
4.11283e-08
-1.33355e-12
1.12982e-13
3.5695e-08
-1.04019e-13
2.81052e-08
-1.06868e-12
-1.83114e-12
6.41784e-13
3.93298e-08
-1.73596e-12
3.27279e-13
3.66261e-08
-1.48733e-12
-1.97569e-14
3.13941e-08
-3.43644e-13
2.3977e-08
-1.13617e-12
-2.1568e-12
3.47005e-08
-2.00363e-12
3.2124e-08
-1.67291e-12
2.70932e-08
1.98489e-08
-1.1882e-12
-8.86662e-13
9.06375e-14
-8.71707e-13
2.74407e-14
-8.00673e-13
-2.91648e-14
-5.63562e-14
-6.57017e-13
-9.97499e-13
1.3995e-13
-9.68653e-13
3.35301e-14
-8.63886e-13
-7.42992e-14
-1.58277e-13
-6.93839e-13
-1.157e-12
1.26451e-13
-1.1046e-12
-2.65518e-14
-9.56799e-13
-1.90706e-13
-3.39462e-13
-7.45917e-13
-1.33999e-12
-1.25431e-12
-1.06402e-12
-7.92836e-13
3.91311e-09
-1.06077e-09
2.00538e-08
2.16349e-09
-2.54248e-09
2.63224e-08
9.52765e-09
-1.25341e-09
2.1747e-08
-1.31479e-09
4.30007e-08
1.38077e-09
-1.34578e-09
3.01995e-08
4.5992e-09
1.40739e-09
2.42723e-08
1.05674e-08
1.01707e-09
2.74381e-08
-1.80257e-09
5.11188e-08
3.90362e-09
3.81232e-09
2.31159e-08
4.63534e-09
4.74663e-10
3.67965e-08
3.64082e-09
6.90215e-09
3.54971e-08
3.85717e-09
4.16136e-08
1.07921e-09
4.33675e-08
1.35596e-08
2.46043e-08
3.77937e-09
6.12834e-08
5.99158e-08
2.48872e-09
2.24239e-11
1.73174e-08
-1.39192e-10
-8.68911e-11
2.78635e-08
5.30758e-09
1.07413e-09
1.46722e-08
-9.44224e-10
4.76268e-08
1.3602e-09
2.14192e-09
2.77958e-08
2.8736e-09
1.17642e-09
2.14955e-08
-4.90628e-09
-1.49482e-09
3.77869e-08
2.09583e-10
4.47018e-08
7.13441e-10
-9.40945e-10
2.91251e-08
-2.71159e-09
1.03909e-10
4.1294e-08
1.26359e-09
-1.95583e-09
3.1983e-08
-4.27949e-09
4.715e-08
1.99098e-09
4.0488e-08
-7.44393e-09
3.75507e-08
-1.86917e-09
4.90046e-08
4.85679e-08
1.17293e-09
3.65604e-09
1.05147e-08
5.13843e-09
4.26351e-09
2.11532e-08
-1.71012e-09
2.00649e-09
1.93785e-08
1.00581e-09
4.36214e-08
8.44665e-10
-2.30769e-10
3.00896e-08
1.50331e-09
2.40689e-10
2.48597e-08
-7.62374e-09
5.11126e-10
4.84093e-08
3.39759e-09
3.51655e-08
9.43191e-10
2.71056e-10
2.91654e-08
3.04933e-09
-1.45603e-09
4.08846e-08
2.85939e-09
-8.15354e-10
3.34994e-08
-4.66658e-09
5.73578e-08
-1.38044e-09
4.58012e-08
3.66691e-09
3.36798e-08
-5.56751e-09
6.11516e-08
3.89143e-08
-3.07369e-09
-5.8417e-10
1.6954e-08
5.20276e-09
3.76897e-10
1.30415e-08
5.1056e-09
-1.484e-09
2.25855e-08
-2.14011e-09
5.51754e-08
-2.77471e-09
-1.94417e-09
3.41231e-08
1.02233e-09
1.90007e-11
2.14206e-08
2.11091e-09
1.38522e-10
4.56982e-08
-4.46258e-10
3.5633e-08
-1.02492e-11
1.13842e-09
2.33886e-08
1.08301e-09
9.77609e-10
3.88327e-08
-5.57324e-10
2.10877e-09
3.31695e-08
4.1208e-09
5.23262e-08
-2.16263e-10
4.20584e-08
1.86547e-09
3.11608e-08
4.69208e-09
5.87853e-08
4.7942e-08
-4.19129e-09
2.25214e-09
2.51134e-08
-2.02236e-09
7.89015e-10
1.05814e-08
-4.11374e-09
8.6035e-10
2.39676e-08
1.72104e-09
5.0855e-08
-3.14264e-09
-3.02238e-09
4.99563e-08
-4.29404e-09
-1.04918e-09
2.44102e-08
-1.53504e-09
5.88736e-10
4.32109e-08
-1.10668e-09
3.70447e-08
-9.32233e-10
-9.01871e-10
2.42648e-08
-4.98349e-10
4.34896e-10
3.69148e-08
-3.77516e-09
-2.60878e-09
3.96438e-08
2.9121e-10
4.72033e-08
1.22926e-09
3.2751e-08
-7.32163e-09
3.63522e-08
1.6238e-09