/*--------------------------------*- C++ -*----------------------------------*\
| =========                 |                                                 |
| \\      /  F ield         | OpenFOAM: The Open Source CFD Toolbox           |
|  \\    /   O peration     | Version:  2506                                  |
|   \\  /    A nd           | Website:  www.openfoam.com                      |
|    \\/     M anipulation  |                                                 |
\*---------------------------------------------------------------------------*/
FoamFile
{
    version     2.0;
    format      ascii;
    arch        "LSB;label=32;scalar=64";
    class       volScalarField;
    location    "0.05";
    object      voidfraction;
}
// * * * * * * * * * * * * * * * * * * * * * * * * * * * * * * * * * * * * * //

dimensions      [0 0 0 0 0 0 0];

internalField   nonuniform List<scalar> 
1152
(
0.431196
0.515464
0.43383
0.444363
0.515464
0.423296
0.44963
0.423296
0.454897
0.460163
0.41803
0.48123
0.43383
0.404863
0.375896
0.304796
0.286362
0.436463
0.39433
0.383796
0.381163
0.420663
0.41803
0.375896
0.341663
0.357463
0.404863
0.40223
0.383796
0.320596
0.439097
0.43383
0.439097
0.423296
0.399596
0.399596
0.389063
0.404863
0.391696
0.396963
0.39433
0.43383
0.396963
0.404863
0.41013
0.362729
0.396963
0.399596
0.367996
0.41013
0.389063
0.41013
0.423296
0.436463
0.40223
0.44173
0.365363
0.396963
0.352196
0.391696
0.41803
0.439097
0.420663
0.365363
0.375896
0.373263
0.399596
0.40223
0.302162
0.357463
0.40223
0.412763
0.431196
0.423296
0.454897
0.436463
0.344296
0.460163
0.375896
0.478597
0.439097
0.399596
0.370629
0.39433
0.452263
0.378529
0.396963
0.407496
0.415396
0.454897
0.373263
0.354829
0.360096
0.415396
0.373263
0.43383
0.686631
0.644498
0.599731
0.718232
0.499664
0.544431
0.576031
0.641864
0.570764
0.602364
0.483863
0.604998
0.483863
0.570764
0.525997
0.715598
1
1
1
1
1
1
1
1
1
1
1
1
1
0.997367
0.997367
1
1
1
1
1
1
1
1
1
1
1
1
1
1
1
1
1
1
1
1
1
1
1
1
1
1
1
1
1
1
1
1
1
1
1
1
1
1
1
1
1
1
1
1
1
1
1
1
1
1
1
1
1
1
1
1
1
1
1
1
1
1
1
1
1
1
1
1
1
1
1
1
1
1
1
1
1
1
1
1
1
1
1
1
1
1
1
1
1
1
1
1
1
1
1
1
1
1
1
1
1
1
1
1
1
1
1
1
1
1
1
1
1
1
1
1
1
1
1
1
1
1
1
1
1
1
1
1
1
1
1
1
1
1
1
1
1
1
1
1
1
1
1
1
1
1
1
1
1
1
1
1
1
1
1
1
1
1
1
1
1
1
1
1
1
1
1
1
1
1
1
1
1
1
1
1
1
1
1
1
1
1
1
1
1
1
1
1
1
1
1
1
1
1
1
1
1
1
1
1
1
1
1
1
1
1
1
1
1
1
1
1
1
1
1
1
1
1
1
1
1
1
1
1
1
1
1
1
1
1
1
1
1
1
1
1
1
1
1
1
1
1
1
1
1
1
1
1
1
1
1
1
1
1
1
1
1
0.454151
0.414946
0.499934
0.430763
0.436235
0.420679
0.446992
0.436882
0.473797
0.453937
0.446022
0.470494
0.501333
0.436965
0.451164
0.412943
0.421937
0.422569
0.467322
0.406483
0.384804
0.450279
0.371471
0.390471
0.422946
0.413576
0.421093
0.524895
0.383558
0.382827
0.374134
0.412943
0.427306
0.424475
0.421663
0.460439
0.424366
0.427022
0.417758
0.399753
0.396414
0.404079
0.468181
0.372572
0.368523
0.380121
0.40623
0.408562
0.445203
0.430192
0.419489
0.484719
0.396673
0.380507
0.386088
0.393565
0.429578
0.465808
0.390625
0.423346
0.333441
0.382827
0.396601
0.373514
0.448782
0.393983
0.47167
0.425368
0.382826
0.35725
0.449429
0.353342
0.464953
0.423073
0.421093
0.336304
0.408616
0.458621
0.361296
0.426086
0.432675
0.462589
0.40427
0.430763
0.404585
0.374164
0.425067
0.446164
0.40968
0.377963
0.329687
0.401586
0.513863
0.418017
0.425487
0.3998
0.672491
0.6665
0.660825
0.509
0.693391
0.695539
0.598034
0.594679
0.705945
0.783949
0.786719
0.601057
0.711826
0.621034
0.842731
0.745901
1
1
1
1
1
1
1
1
1
1
1
1
1
1
1
1
1
1
1
1
1
1
1
1
1
1
1
1
1
1
1
1
1
1
1
1
1
1
1
1
1
1
1
1
1
1
1
1
1
1
1
1
1
1
1
1
1
1
1
1
1
1
1
1
1
1
1
1
1
1
1
1
1
1
1
1
1
1
1
1
1
1
1
1
1
1
1
1
1
1
1
1
1
1
1
1
1
1
1
1
1
1
1
1
1
1
1
1
1
1
1
1
1
1
1
1
1
1
1
1
1
1
1
1
1
1
1
1
1
1
1
1
1
1
1
1
1
1
1
1
1
1
1
1
1
1
1
1
1
1
1
1
1
1
1
1
1
1
1
1
1
1
1
1
1
1
1
1
1
1
1
1
1
1
1
1
1
1
1
1
1
1
1
1
1
1
1
1
1
1
1
1
1
1
1
1
1
1
1
1
1
1
1
1
1
1
1
1
1
1
1
1
1
1
1
1
1
1
1
1
1
1
1
1
1
1
1
1
1
1
1
1
1
1
1
1
1
1
1
1
1
1
1
1
1
1
1
1
1
1
1
1
1
1
1
1
1
1
1
1
1
1
1
1
1
1
1
1
1
1
1
1
0.430467
0.437853
0.45854
0.428065
0.473631
0.446022
0.439684
0.489063
0.404483
0.446815
0.467194
0.464495
0.478781
0.376516
0.529207
0.51321
0.434848
0.437853
0.34406
0.484719
0.39981
0.354616
0.364163
0.439057
0.396362
0.413576
0.361478
0.393983
0.41864
0.400836
0.408541
0.450572
0.360371
0.416093
0.375
0.392994
0.422277
0.401704
0.459173
0.419489
0.426138
0.442066
0.414336
0.430192
0.441193
0.431789
0.430301
0.361088
0.35599
0.383452
0.387377
0.460439
0.425487
0.407244
0.439684
0.395573
0.396362
0.420699
0.40165
0.464495
0.446204
0.361039
0.465907
0.416568
0.430467
0.343558
0.415223
0.492813
0.428697
0.343537
0.434812
0.421663
0.369293
0.413576
0.395307
0.390172
0.423652
0.422946
0.434257
0.429096
0.452372
0.368945
0.409035
0.441554
0.515355
0.443252
0.451865
0.43036
0.40719
0.406454
0.431251
0.460683
0.393581
0.387571
0.374913
0.35393
0.645137
0.58655
0.585396
0.651983
0.669414
0.698082
0.619959
0.558638
0.79969
0.753085
0.731483
0.489269
0.656697
0.765641
0.671632
0.668911
1
1
1
1
1
1
1
1
1
1
1
0.998094
1
1
1
1
1
1
1
1
1
1
1
1
1
1
1
1
1
1
1
1
1
1
1
1
1
1
1
1
1
1
1
1
1
1
1
1
1
1
1
1
1
1
1
1
1
1
1
1
1
1
1
1
1
1
1
1
1
1
1
1
1
1
1
1
1
1
1
1
1
1
1
1
1
1
1
1
1
1
1
1
1
1
1
1
1
1
1
1
1
1
1
1
1
1
1
1
1
1
1
1
1
1
1
1
1
1
1
1
1
1
1
1
1
1
1
1
1
1
1
1
1
1
1
1
1
1
1
1
1
1
1
1
1
1
1
1
1
1
1
1
1
1
1
1
1
1
1
1
1
1
1
1
1
1
1
1
1
1
1
1
1
1
1
1
1
1
1
1
1
1
1
1
1
1
1
1
1
1
1
1
1
1
1
1
1
1
1
1
1
1
1
1
1
1
1
1
1
1
1
1
1
1
1
1
1
1
1
1
1
1
1
1
1
1
1
1
1
1
1
1
1
1
1
1
1
1
1
1
1
1
1
1
1
1
1
1
1
1
1
1
1
1
1
1
1
1
1
1
1
1
1
1
1
1
1
1
1
1
1
1
)
;

boundaryField
{
    inlet
    {
        type            fixedValue;
        value           uniform 1;
    }
    outlet
    {
        type            fixedValue;
        value           uniform 1;
    }
    wall
    {
        type            zeroGradient;
    }
    procBoundary1to0
    {
        type            processor;
        value           nonuniform List<scalar> 
192
(
0.494397
0.446997
0.436463
0.53653
0.420663
0.38643
0.365363
0.420663
0.396963
0.367996
0.48123
0.47333
0.44963
0.41013
0.399596
0.302162
0.452263
0.502297
0.381163
0.404863
0.381163
0.373263
0.444363
0.491764
0.694531
0.623431
0.578664
0.628698
1
1
1
1
1
1
1
1
1
1
1
1
1
1
1
1
1
1
1
1
1
1
1
1
1
1
1
1
1
1
1
1
1
1
1
1
1
1
1
1
1
1
1
1
1
1
1
1
1
1
1
1
1
1
1
1
1
1
1
1
1
1
1
1
1
1
1
1
0.420147
0.450082
0.411891
0.368523
0.40762
0.390738
0.405258
0.406111
0.436254
0.404585
0.434
0.406111
0.396882
0.475798
0.394203
0.433675
0.420147
0.372935
0.321243
0.378546
0.427306
0.412498
0.387571
0.37604
0.683229
0.786363
0.772274
0.746908
1
1
1
1
1
1
1
1
1
1
1
1
1
1
1
1
1
1
1
1
1
1
1
1
1
1
1
1
1
1
1
1
1
1
1
1
1
1
1
1
1
1
1
1
1
1
1
1
1
1
1
1
1
1
1
1
1
1
1
1
1
1
1
1
1
1
1
1
)
;
    }
    procBoundary1to3
    {
        type            processor;
        value           nonuniform List<scalar> 
192
(
0.452263
0.475963
0.523364
0.478597
0.431196
0.431196
0.396963
0.362729
0.373263
0.375896
0.446997
0.478597
0.41803
0.339029
0.38643
0.444363
0.468063
0.304796
0.436463
0.367996
0.396963
0.49703
0.373263
0.336396
0.694531
0.589197
0.676098
0.791965
1
1
1
1
1
1
1
1
1
1
1
1
1
1
1
1
1
1
1
1
1
1
1
1
1
1
1
1
1
1
1
1
1
1
1
1
1
1
1
1
1
1
1
1
1
1
1
1
1
1
1
1
1
1
1
1
1
1
1
1
1
1
1
1
1
1
1
1
0.431169
0.471586
0.408541
0.400461
0.37604
0.440633
0.48371
0.387933
0.343464
0.361039
0.35711
0.452361
0.366017
0.383149
0.422388
0.362878
0.37604
0.407469
0.404585
0.436254
0.443699
0.440633
0.440191
0.445203
0.792013
0.774484
0.691413
0.715443
1
1
1
1
1
1
1
1
1
1
1
1
1
1
1
1
1
1
1
1
1
1
1
1
1
1
1
1
1
1
1
1
1
1
1
1
1
1
1
1
1
1
1
1
1
1
1
1
1
1
1
1
1
1
1
1
1
1
1
1
1
1
1
1
1
1
1
1
)
;
    }
}


// ************************************************************************* //
