/*--------------------------------*- C++ -*----------------------------------*\
| =========                 |                                                 |
| \\      /  F ield         | OpenFOAM: The Open Source CFD Toolbox           |
|  \\    /   O peration     | Version:  2506                                  |
|   \\  /    A nd           | Website:  www.openfoam.com                      |
|    \\/     M anipulation  |                                                 |
\*---------------------------------------------------------------------------*/
FoamFile
{
    version     2.0;
    format      ascii;
    arch        "LSB;label=32;scalar=64";
    class       surfaceScalarField;
    location    "0.09";
    object      phi;
}
// * * * * * * * * * * * * * * * * * * * * * * * * * * * * * * * * * * * * * //

dimensions      [0 3 -1 0 0 0 0];

oriented        oriented;

internalField   nonuniform List<scalar> 
3120
(
3.82209e-09
2.62781e-09
4.51814e-08
-4.85225e-09
-3.6675e-09
7.20598e-08
-1.53299e-08
-4.00801e-09
8.05625e-08
4.47174e-09
3.42239e-08
-1.50013e-09
-1.13519e-09
1.61496e-09
6.01559e-08
-1.95687e-10
2.05575e-09
4.72894e-08
8.00198e-10
3.18612e-09
4.61213e-08
-1.36444e-09
6.1266e-08
-1.80927e-10
2.1754e-09
-1.14675e-09
6.27811e-08
3.75926e-09
5.00492e-09
5.04324e-08
-3.90464e-09
-1.96506e-09
6.76532e-08
1.77677e-10
5.03644e-08
-3.63488e-10
4.87735e-09
5.54062e-08
-2.98165e-09
-5.28524e-09
7.76092e-08
-8.29921e-09
-3.92081e-09
5.6963e-08
-5.99416e-09
6.71193e-08
-1.16849e-08
-4.95956e-09
2.37904e-09
-5.32123e-09
4.98546e-08
3.66072e-11
-7.50131e-10
7.24949e-08
1.27435e-08
4.64218e-09
5.37053e-08
-8.21473e-09
5.93905e-08
-4.53227e-10
8.21579e-09
1.54066e-09
4.25254e-08
7.68481e-09
1.45605e-09
4.56142e-08
-4.84125e-10
-1.34516e-09
6.02776e-08
2.0934e-09
4.65642e-08
3.90955e-09
8.02896e-09
1.08074e-08
4.08061e-08
5.61183e-09
4.07876e-09
5.02269e-08
2.08755e-09
1.44635e-09
6.8386e-08
2.58446e-09
4.72802e-08
4.6807e-09
4.27598e-09
6.95843e-08
-2.57781e-09
1.76418e-10
8.5668e-08
1.19512e-10
-3.85729e-10
5.29428e-08
6.0287e-09
5.0702e-08
1.14625e-08
7.15366e-09
-5.09593e-09
-2.75742e-10
4.94809e-08
1.45297e-08
4.73003e-09
4.24278e-08
1.20687e-08
-4.50661e-09
5.94054e-08
-4.73366e-09
8.68179e-08
-2.38263e-09
-4.80578e-10
-1.30819e-09
4.40987e-08
1.88151e-09
2.18129e-10
4.7764e-08
5.42576e-09
-4.80439e-09
5.70311e-08
1.2173e-09
4.52259e-08
8.13092e-10
8.4249e-10
-1.15436e-09
3.85775e-08
-2.00241e-09
-3.3825e-09
5.66724e-08
7.9128e-09
6.21187e-09
4.74545e-08
4.70553e-09
4.29158e-08
8.78896e-09
-2.19615e-09
6.25718e-08
4.98219e-09
8.18269e-09
6.75773e-08
4.32934e-09
7.21439e-09
5.62246e-08
3.89841e-09
5.80742e-08
3.52069e-09
1.027e-09
-4.98808e-09
-2.42518e-09
7.49918e-08
-1.27768e-09
-1.75475e-09
3.64193e-08
-4.55296e-09
-2.18989e-09
6.64549e-08
4.84459e-09
6.09384e-08
3.30728e-09
-5.06013e-09
-1.49011e-09
5.17763e-08
-2.99631e-09
1.13719e-09
4.28083e-08
2.33603e-09
3.7626e-09
4.57463e-08
2.45332e-09
4.98283e-08
1.24909e-10
-1.70637e-09
-4.69686e-09
4.42304e-08
-7.26148e-10
-3.29883e-09
6.01282e-08
2.24264e-09
4.69972e-09
4.35486e-08
-1.0224e-09
5.1509e-08
-2.87476e-09
2.89735e-09
4.40893e-08
7.50004e-09
6.97223e-09
5.44223e-08
5.78124e-09
-2.44563e-09
6.92195e-08
1.12271e-09
5.60539e-08
-5.40738e-09
3.95967e-09
8.12888e-09
4.36115e-09
7.56414e-08
-6.92237e-09
-1.18121e-09
6.66858e-08
-7.30427e-09
5.92301e-09
6.64014e-08
6.28293e-09
3.63137e-08
6.50203e-09
-3.44098e-10
-5.77899e-11
6.24383e-08
1.13263e-09
-8.46584e-10
4.09969e-08
7.01755e-10
-3.40917e-09
5.55093e-08
-1.40392e-09
6.164e-08
-3.42307e-09
-1.98687e-09
4.0132e-09
4.78491e-08
-5.00731e-10
9.78887e-10
5.68166e-08
3.27799e-09
-4.91271e-10
3.6852e-08
-4.92403e-09
6.33282e-08
-5.02112e-09
-3.11246e-09
6.39941e-08
-3.72858e-09
-1.56482e-09
5.26603e-08
1.1933e-09
-6.23167e-10
6.24709e-08
5.3156e-09
5.03703e-08
-2.29403e-11
1.5931e-10
-2.81102e-09
4.85153e-09
7.46427e-08
5.97491e-09
9.99321e-09
5.69577e-08
1.00446e-08
7.82967e-09
5.76627e-08
-5.57312e-10
6.2274e-08
-4.44427e-09
1.31142e-09
8.01545e-09
5.46545e-08
5.5548e-09
7.1413e-09
3.96054e-08
7.43875e-09
4.95202e-09
5.65031e-08
-2.08097e-09
6.84552e-08
2.14725e-09
2.52018e-10
6.32137e-10
5.66402e-08
3.2551e-09
3.60349e-09
5.73513e-08
-1.50547e-09
-3.54644e-10
4.69192e-08
1.42291e-09
5.72647e-08
1.05418e-09
3.26648e-09
5.75494e-08
-3.97674e-09
-6.76123e-10
6.11733e-08
-9.66937e-10
-1.21399e-09
7.14457e-08
-8.79152e-09
5.46782e-08
-1.14277e-09
-2.95617e-09
7.82878e-10
3.20953e-09
6.21039e-08
-1.34735e-09
1.57909e-09
5.93029e-08
-1.19208e-09
1.30465e-09
5.1916e-08
2.3211e-09
6.40411e-08
-6.73729e-10
1.15066e-09
2.25784e-10
5.51547e-08
-2.64178e-09
-2.51089e-09
4.74877e-08
-2.53322e-09
3.51759e-09
5.41818e-08
2.67816e-09
6.47517e-08
8.13605e-10
-1.23267e-09
-1.3568e-09
5.82827e-08
1.28887e-09
-1.85122e-10
5.25039e-08
-9.57098e-10
-1.53072e-09
5.42137e-08
1.61145e-10
6.01602e-08
-1.33559e-09
-2.83949e-09
6.00598e-08
-1.16151e-09
-1.98388e-09
6.12869e-08
-1.15418e-09
2.73673e-09
6.88961e-08
-3.70188e-09
5.69899e-08
2.9632e-09
-2.37688e-09
-1.26016e-09
1.55433e-08
5.81556e-08
6.31815e-09
-2.07471e-09
5.27457e-08
1.50885e-08
1.97331e-08
4.92305e-08
1.20081e-08
6.37696e-08
1.32622e-08
4.26813e-09
1.15694e-08
5.26095e-08
1.05795e-09
8.70422e-09
3.99196e-08
8.39555e-09
1.26616e-08
5.39158e-08
9.71982e-09
6.55765e-08
9.85948e-09
3.76168e-09
9.86258e-09
5.71873e-08
1.92017e-09
9.30399e-09
5.37466e-08
6.54305e-09
1.01507e-08
5.21016e-08
9.0615e-09
5.96226e-08
7.73998e-09
3.14167e-09
6.26537e-08
6.85609e-09
1.4733e-09
6.53484e-08
6.91115e-09
5.49753e-09
6.57742e-08
9.24907e-09
5.79387e-08
7.37869e-09
6.23159e-09
8.87956e-10
-8.54399e-09
4.97528e-08
-1.75954e-09
3.08849e-09
4.8627e-08
-8.91796e-09
-1.1413e-08
4.69623e-08
-5.30902e-09
5.7038e-08
-4.80456e-09
-2.03795e-09
-6.47736e-09
5.06827e-08
-3.73733e-09
-4.5231e-09
4.92315e-08
-7.67868e-09
-6.66135e-09
5.31059e-08
-2.83744e-09
5.90311e-08
-3.60441e-09
-2.27647e-09
-4.91633e-09
5.45417e-08
-2.33184e-09
-5.81701e-09
5.50958e-08
-4.99074e-09
-6.61979e-09
5.47197e-08
-2.73193e-09
5.8018e-08
-3.49156e-09
-3.76187e-09
5.77096e-08
-1.9454e-09
-2.49234e-09
5.98177e-08
-1.55553e-09
-1.23041e-09
6.08557e-08
-2.96302e-09
5.83712e-08
-3.65577e-09
-7.3868e-10
-2.32469e-11
-5.81336e-09
4.99223e-08
-3.19924e-09
-4.97334e-09
5.02793e-08
-7.33953e-09
-8.01593e-09
4.98364e-08
-4.98936e-09
5.4172e-08
-5.07267e-09
-1.76111e-09
-5.51013e-09
5.13858e-08
-3.49421e-09
-5.76143e-09
5.17531e-08
-5.64857e-09
-5.82248e-09
5.30677e-08
-3.53988e-09
5.58102e-08
-3.87672e-09
-2.40623e-09
-4.33469e-09
5.36313e-08
-2.67477e-09
-4.79013e-09
5.43942e-08
-3.88023e-09
-4.95197e-09
5.50553e-08
-2.84772e-09
5.65096e-08
-3.06314e-09
-3.10559e-09
5.54065e-08
-2.49128e-09
-2.477e-09
5.66236e-08
-2.22399e-09
-1.68747e-09
5.74983e-08
-2.38358e-09
5.74099e-08
-2.3318e-09
-1.24131e-09
-6.73102e-10
-3.22255e-09
5.16126e-08
-1.77507e-09
-3.4242e-09
5.1938e-08
-3.77935e-09
-4.34639e-09
5.21022e-08
-3.49736e-09
5.38693e-08
-3.31421e-09
-1.38692e-09
-3.40854e-09
5.25644e-08
-2.28525e-09
-3.7351e-09
5.29633e-08
-3.29704e-09
-3.88805e-09
5.36217e-08
-3.10539e-09
5.49136e-08
-2.79158e-09
-1.78962e-09
-2.90299e-09
5.37364e-08
-2.21297e-09
-3.17943e-09
5.42628e-08
-2.67268e-09
-3.24574e-09
5.48735e-08
-2.62862e-09
5.56926e-08
-2.33161e-09
-2.14644e-09
5.47057e-08
-1.93339e-09
-2.17025e-09
5.53885e-08
-1.91991e-09
-1.9874e-09
5.60183e-08
-1.948e-09
5.64372e-08
-2.04041e-09
-1.60205e-09
-5.89388e-10
-1.84576e-09
5.28663e-08
-1.2176e-09
-2.10901e-09
5.30367e-08
-2.04607e-09
-2.40693e-09
5.32968e-08
-2.20203e-09
5.40815e-08
-2.00388e-09
-9.42424e-10
-2.0336e-09
5.33934e-08
-1.46647e-09
-2.26308e-09
5.36422e-08
-1.93252e-09
-2.36162e-09
5.40434e-08
-2.11237e-09
5.46894e-08
-1.797e-09
-1.18509e-09
-1.83661e-09
5.40084e-08
-1.51578e-09
-1.99773e-09
5.43289e-08
-1.72136e-09
-2.0182e-09
5.47364e-08
-1.81559e-09
5.52321e-08
-1.55682e-09
-1.37106e-09
5.45413e-08
-1.36545e-09
-1.5105e-09
5.49272e-08
-1.39663e-09
-1.48159e-09
5.53381e-08
-1.36658e-09
5.57184e-08
-1.3694e-09
-1.2082e-09
-4.28276e-10
-1.05135e-09
5.36148e-08
-7.94205e-10
-1.22648e-09
5.37145e-08
-1.14636e-09
-1.36149e-09
5.39096e-08
-1.33208e-09
5.42864e-08
-1.15727e-09
-6.19242e-10
-1.19234e-09
5.39014e-08
-9.22137e-10
-1.33281e-09
5.40516e-08
-1.13836e-09
-1.39526e-09
5.42938e-08
-1.32648e-09
5.46351e-08
-1.08919e-09
-7.6186e-10
-1.12025e-09
5.4232e-08
-9.73602e-10
-1.21435e-09
5.44224e-08
-1.07662e-09
-1.23011e-09
5.46745e-08
-1.15986e-09
5.49712e-08
-9.81934e-10
-8.63681e-10
5.453e-08
-8.88341e-10
-9.84498e-10
5.47516e-08
-9.17907e-10
-9.89504e-10
5.50069e-08
-8.93761e-10
5.5269e-08
-8.76869e-10
-8.22736e-10
-2.94203e-10
-6.07357e-10
5.40374e-08
-4.94981e-10
-7.11486e-10
5.41006e-08
-6.50516e-10
-7.85082e-10
5.42245e-08
-7.98461e-10
5.44173e-08
-6.59305e-10
-4.0075e-10
-6.99261e-10
5.41955e-08
-5.67062e-10
-7.81149e-10
5.42872e-08
-6.68092e-10
-8.21561e-10
5.44312e-08
-8.07913e-10
5.4618e-08
-6.4157e-10
-4.82515e-10
-6.7444e-10
5.43779e-08
-6.04793e-10
-7.2857e-10
5.44919e-08
-6.5468e-10
-7.41157e-10
5.46439e-08
-7.14853e-10
5.48185e-08
-5.95008e-10
-5.3947e-10
5.45479e-08
-5.57336e-10
-6.1729e-10
5.46781e-08
-5.77262e-10
-6.21717e-10
5.48329e-08
-5.62759e-10
5.49967e-08
-5.4354e-10
-5.20549e-10
-1.97935e-10
-3.59775e-10
5.42721e-08
-3.03758e-10
-4.20502e-10
5.43129e-08
-3.74877e-10
-4.63927e-10
5.43874e-08
-4.82039e-10
5.44907e-08
-3.77265e-10
-2.58773e-10
-4.1617e-10
5.43608e-08
-3.46653e-10
-4.6342e-10
5.44177e-08
-3.93273e-10
-4.89107e-10
5.45029e-08
-4.89848e-10
5.46075e-08
-3.74905e-10
-3.05721e-10
-4.08282e-10
5.44641e-08
-3.716e-10
-4.3906e-10
5.45334e-08
-3.93221e-10
-4.47748e-10
5.46241e-08
-4.36667e-10
5.47261e-08
-3.53875e-10
-3.378e-10
5.45628e-08
-3.47216e-10
-3.80977e-10
5.46409e-08
-3.58712e-10
-3.79776e-10
5.47339e-08
-3.49947e-10
5.48323e-08
-3.34288e-10
-3.17625e-10
-1.32296e-10
-2.19254e-10
5.4401e-08
-1.86806e-10
-2.54773e-10
5.44275e-08
-2.19664e-10
-2.80942e-10
5.44718e-08
-2.94933e-10
5.4529e-08
-2.1814e-10
-1.67649e-10
-2.52624e-10
5.44521e-08
-2.12724e-10
-2.79967e-10
5.44877e-08
-2.33271e-10
-2.95878e-10
5.45383e-08
-2.99104e-10
5.45979e-08
-2.19443e-10
-1.94826e-10
-2.50199e-10
5.45118e-08
-2.28399e-10
-2.67653e-10
5.45546e-08
-2.35826e-10
-2.73137e-10
5.46089e-08
-2.67806e-10
5.46684e-08
-2.09279e-10
-2.12996e-10
5.45703e-08
-2.1699e-10
-2.34486e-10
5.46179e-08
-2.23133e-10
-2.29755e-10
5.46737e-08
-2.17655e-10
5.47321e-08
-2.06403e-10
-1.90727e-10
-8.8708e-11
-1.37619e-10
5.44713e-08
-1.16246e-10
-1.58415e-10
5.44886e-08
-1.31083e-10
-1.74119e-10
5.45152e-08
-1.83361e-10
5.45477e-08
-1.27947e-10
-1.09385e-10
-1.56708e-10
5.45016e-08
-1.31815e-10
-1.72568e-10
5.45242e-08
-1.39968e-10
-1.82195e-10
5.45546e-08
-1.84917e-10
5.45891e-08
-1.29474e-10
-1.25186e-10
-1.55663e-10
5.45371e-08
-1.41354e-10
-1.65545e-10
5.45638e-08
-1.42254e-10
-1.68801e-10
5.45965e-08
-1.65902e-10
5.46315e-08
-1.24133e-10
-1.35502e-10
5.45723e-08
-1.36668e-10
-1.45018e-10
5.46018e-08
-1.39778e-10
-1.39165e-10
5.46355e-08
-1.36247e-10
5.467e-08
-1.28637e-10
-1.14115e-10
-5.99117e-11
-8.87575e-11
5.45093e-08
-7.34606e-11
-1.0087e-10
5.45208e-08
-7.9716e-11
-1.10159e-10
5.45371e-08
-1.15811e-10
5.45561e-08
-7.6304e-11
-7.19635e-11
-9.92513e-11
5.45279e-08
-8.26746e-11
-1.08425e-10
5.45425e-08
-8.51316e-11
-1.14116e-10
5.45611e-08
-1.15883e-10
5.45815e-08
-7.72842e-11
-8.11293e-11
-9.83317e-11
5.45496e-08
-8.83284e-11
-1.03893e-10
5.45666e-08
-8.6628e-11
-1.05714e-10
5.45866e-08
-1.03958e-10
5.46073e-08
-7.42016e-11
-8.69636e-11
5.45713e-08
-8.68831e-11
-9.04027e-11
5.45899e-08
-8.83471e-11
-8.48354e-11
5.46104e-08
-8.6001e-11
5.46309e-08
-8.10004e-11
-6.84751e-11
-4.05579e-11
-5.83279e-11
5.45296e-08
-4.70031e-11
-6.53632e-11
5.45376e-08
-4.92626e-11
-7.07818e-11
5.45478e-08
-7.40788e-11
5.45593e-08
-4.62129e-11
-4.75654e-11
-6.38535e-11
5.45416e-08
-5.23799e-11
-6.91429e-11
5.45514e-08
-5.24144e-11
-7.24426e-11
5.4563e-08
-7.34496e-11
5.45753e-08
-4.6675e-11
-5.28661e-11
-6.28438e-11
5.45553e-08
-5.56606e-11
-6.59572e-11
5.45664e-08
-5.32513e-11
-6.69208e-11
5.45788e-08
-6.5775e-11
5.45914e-08
-4.47459e-11
-5.61533e-11
5.45691e-08
-5.56301e-11
-5.67735e-11
5.4581e-08
-5.62466e-11
-5.20971e-11
5.45937e-08
-5.46615e-11
5.4606e-08
-5.14304e-11
-4.12967e-11
-2.7157e-11
-3.84804e-11
5.45407e-08
-3.01447e-11
-4.26201e-11
5.45463e-08
-3.0681e-11
-4.57762e-11
5.4553e-08
-4.76528e-11
5.45602e-08
-2.8248e-11
-3.12856e-11
-4.13002e-11
5.45488e-08
-3.32778e-11
-4.43707e-11
5.45554e-08
-3.24701e-11
-4.62669e-11
5.45629e-08
-4.67963e-11
5.45705e-08
-2.83935e-11
-3.437e-11
-4.0311e-11
5.45578e-08
-3.51621e-11
-4.20659e-11
5.45651e-08
-3.28882e-11
-4.2557e-11
5.4573e-08
-4.17873e-11
5.45808e-08
-2.71273e-11
-3.62352e-11
5.45667e-08
-3.5646e-11
-3.57386e-11
5.45745e-08
-3.58708e-11
-3.21086e-11
5.45825e-08
-3.48049e-11
5.45901e-08
-3.27443e-11
-2.49685e-11
-1.77121e-11
-2.50206e-11
5.45471e-08
-1.90934e-11
-2.75123e-11
5.45511e-08
-1.89996e-11
-2.93684e-11
5.45555e-08
-3.04341e-11
5.45602e-08
-1.72239e-11
-2.02004e-11
-2.64457e-11
5.45527e-08
-2.09377e-11
-2.82544e-11
5.45573e-08
-2.00114e-11
-2.93464e-11
5.45622e-08
-2.9615e-11
5.45671e-08
-1.72247e-11
-2.20192e-11
-2.56076e-11
5.45588e-08
-2.20205e-11
-2.66149e-11
5.45638e-08
-2.02047e-11
-2.68642e-11
5.45689e-08
-2.63541e-11
5.45739e-08
-1.63875e-11
-2.30969e-11
5.45648e-08
-2.2586e-11
-2.23186e-11
5.45701e-08
-2.26592e-11
-1.96815e-11
5.45752e-08
-2.19609e-11
5.458e-08
-2.06659e-11
-1.50213e-11
-1.11345e-11
-1.56776e-11
5.45508e-08
-1.17619e-11
-1.71657e-11
5.45536e-08
-1.15068e-11
-1.82491e-11
5.45567e-08
-1.88531e-11
5.45599e-08
-1.03073e-11
-1.26219e-11
-1.63846e-11
5.45549e-08
-1.28389e-11
-1.74418e-11
5.45581e-08
-1.2075e-11
-1.80637e-11
5.45615e-08
-1.81991e-11
5.45648e-08
-1.02614e-11
-1.36856e-11
-1.57553e-11
5.45592e-08
-1.34537e-11
-1.6331e-11
5.45627e-08
-1.21585e-11
-1.6456e-11
5.45663e-08
-1.61309e-11
5.45696e-08
-9.72237e-12
-1.43083e-11
5.45635e-08
-1.38528e-11
-1.36073e-11
5.45671e-08
-1.38738e-11
-1.18204e-11
5.45707e-08
-1.34326e-11
5.45738e-08
-1.26346e-11
-8.8774e-12
-6.80167e-12
-9.17136e-12
5.45527e-08
-7.02973e-12
-9.98978e-12
5.45549e-08
-6.76263e-12
-1.05797e-11
5.45572e-08
-1.09048e-11
5.45595e-08
-5.98783e-12
-7.62001e-12
-9.48349e-12
5.45559e-08
-7.61405e-12
-1.00549e-11
5.45584e-08
-7.05982e-12
-1.03836e-11
5.45609e-08
-1.0448e-11
5.45633e-08
-5.93421e-12
-8.19721e-12
-9.05958e-12
5.45593e-08
-7.93755e-12
-9.35785e-12
5.4562e-08
-7.08806e-12
-9.40923e-12
5.45646e-08
-9.21731e-12
5.4567e-08
-5.61047e-12
-8.53037e-12
5.45626e-08
-7.93902e-12
-8.0087e-12
5.45654e-08
-7.92639e-12
-6.88617e-12
5.45679e-08
-7.65867e-12
5.45702e-08
-7.19163e-12
-5.12049e-12
-4.5563e-12
-5.19071e-12
-4.5389e-12
-5.56919e-12
-4.25325e-12
-5.82963e-12
-5.95407e-12
-3.70339e-12
-4.93436e-12
-5.28124e-12
-4.79196e-12
-5.52323e-12
-4.35335e-12
-5.63751e-12
-5.61161e-12
-3.61778e-12
-5.18268e-12
-5.00461e-12
-4.90284e-12
-5.09161e-12
-4.3039e-12
-5.04638e-12
-4.86685e-12
-3.37563e-12
-5.29846e-12
-4.38004e-12
-4.87239e-12
-4.29361e-12
-4.11874e-12
-4.06335e-12
-3.71622e-12
-3.03084e-12
3.24179e-09
-3.83536e-09
5.48535e-08
-8.40861e-10
-5.2881e-09
5.38254e-08
-3.03946e-10
-2.55707e-09
4.17279e-08
3.79454e-10
1.75973e-08
2.162e-09
6.38037e-10
-4.79244e-09
6.41571e-08
-5.02383e-10
-4.2321e-09
6.04396e-08
-9.28713e-10
4.94444e-09
4.32475e-08
4.49191e-09
3.12262e-08
3.42126e-09
-1.21896e-09
-7.15979e-09
7.14135e-08
3.76068e-09
-2.17935e-09
6.04468e-08
-2.10047e-09
-1.15914e-10
6.83368e-08
5.80229e-09
4.12794e-08
5.53018e-10
8.27368e-10
6.46664e-08
5.39047e-09
6.87789e-08
1.16854e-09
6.10909e-08
5.88948e-08
3.98674e-10
4.36692e-09
1.78145e-09
4.1705e-08
4.97354e-09
7.55228e-09
4.5786e-08
4.2869e-09
1.65088e-09
4.67923e-08
-2.47694e-09
3.86447e-08
-2.82114e-09
5.85605e-09
-1.36717e-10
5.81483e-08
-5.00011e-10
6.2516e-09
6.80963e-08
1.28173e-09
4.49302e-10
4.26673e-08
1.73894e-09
2.68525e-08
1.43961e-09
6.5287e-09
1.71434e-11
6.41619e-08
-1.42537e-09
-6.13362e-09
8.07861e-08
2.46245e-09
3.87865e-09
6.10197e-08
5.04767e-09
3.93599e-08
1.07317e-09
4.37387e-09
6.2413e-08
3.13564e-09
6.44245e-08
2.90187e-09
6.45947e-08
6.63967e-08
1.10677e-09
3.73573e-10
-4.28502e-09
4.83825e-08
5.29542e-09
4.31808e-09
4.08754e-08
5.13607e-09
5.00752e-09
4.58426e-08
3.89972e-10
4.78284e-08
-9.16935e-10
6.08029e-09
2.70515e-09
4.02559e-08
2.48252e-09
4.63893e-09
7.13733e-08
2.4668e-11
6.39496e-09
4.37377e-08
2.70856e-09
2.5754e-08
-1.19545e-09
7.75899e-09
5.19422e-09
5.31517e-08
5.1481e-09
2.82012e-09
8.52158e-08
-1.96962e-09
5.39707e-09
6.91353e-08
4.4635e-09
3.72591e-08
-1.62369e-09
4.61494e-09
6.55998e-08
6.24781e-09
6.53067e-08
-4.40163e-09
8.14555e-08
6.86333e-08
-1.66199e-09
-1.63902e-10
1.39362e-09
6.96391e-08
-4.32187e-10
-4.88663e-09
5.18116e-08
-5.41265e-09
2.43525e-10
5.17022e-08
8.76352e-09
2.47629e-08
3.48203e-09
-4.55028e-09
-3.4972e-09
5.63068e-08
1.66874e-09
-5.48929e-09
6.57569e-08
-4.34473e-10
-8.20104e-11
4.61665e-08
4.71938e-09
3.13102e-08
-1.94654e-09
-3.02546e-09
-8.00487e-09
7.2699e-08
2.44942e-09
3.35176e-09
7.08998e-08
1.41737e-09
3.72783e-09
6.63575e-08
8.28915e-09
3.70488e-08
-1.9421e-09
3.79965e-09
5.75476e-08
1.85132e-09
7.04393e-08
1.89216e-09
8.62919e-08
8.11703e-08
-3.1514e-09
-1.66287e-09
-4.45865e-09
8.10646e-08
1.06614e-09
-8.55909e-09
5.8835e-08
-3.13191e-09
-5.58731e-09
6.68032e-08
1.66774e-09
2.03658e-08
-4.25574e-10
-4.20464e-09
-1.68968e-11
5.8482e-08
3.90161e-09
-6.11561e-10
4.97031e-08
-4.50882e-10
-8.27058e-09
5.32022e-08
-7.59962e-09
4.21891e-08
-2.0624e-09
-6.27473e-09
-1.31683e-08
1.0662e-07
3.78428e-10
-1.14706e-09
6.47822e-08
5.51135e-12
-5.57587e-09
6.40357e-08
-1.04936e-09
3.09035e-08
-3.99439e-10
4.0377e-11
4.97418e-08
-2.22539e-09
7.10826e-08
9.32514e-10
7.91308e-08
8.62157e-08
-3.07965e-09
4.87554e-09
-1.86465e-09
6.93413e-08
-5.61709e-09
-2.1345e-09
7.04952e-08
3.01037e-09
-7.39619e-10
5.01238e-08
-9.55785e-10
2.33843e-08
-1.95113e-10
2.34459e-09
-2.27322e-09
5.97069e-08
-1.40066e-11
-8.2482e-09
5.81754e-08
2.25626e-09
-2.11338e-08
7.13262e-08
-1.12422e-08
5.52422e-08
-5.10449e-10
-1.42261e-09
5.04353e-09
1.03887e-07
-7.80038e-10
-3.26397e-09
5.91554e-08
2.43194e-09
-2.47278e-08
6.44177e-08
-1.72047e-08
3.96822e-08
-3.84253e-10
-1.82558e-09
6.99652e-08
-9.08964e-09
7.71788e-08
4.40867e-11
4.7643e-08
7.00015e-08
1.96652e-09
-2.38755e-09
-1.91178e-10
6.78031e-08
1.26393e-10
3.82457e-09
6.30025e-08
3.32394e-09
-9.5302e-09
5.27546e-08
-1.17514e-08
4.44e-08
-2.97734e-09
3.87524e-10
-1.04042e-08
6.81222e-08
1.94098e-11
-1.32632e-09
6.36945e-08
3.39231e-09
-6.72553e-09
6.51486e-08
1.84615e-09
4.27419e-08
2.29509e-09
3.84453e-09
4.32254e-10
8.64866e-08
1.65859e-09
-1.70417e-09
6.17192e-08
1.87746e-09
-6.226e-10
5.8096e-08
-5.52531e-09
4.88006e-08
1.30494e-10
2.48768e-09
6.57659e-08
5.78862e-09
6.99683e-08
-2.12625e-09
5.48303e-08
6.29162e-08
-1.0538e-09
1.75004e-09
6.60623e-09
6.77039e-08
8.77021e-10
6.49692e-09
6.42904e-08
-1.33087e-09
7.03703e-09
5.71748e-08
1.36935e-08
3.76317e-08
-8.77491e-10
2.12503e-09
5.63068e-09
6.87979e-08
1.86983e-09
6.92889e-09
6.35182e-08
3.05482e-10
5.2538e-09
6.84967e-08
1.15848e-08
4.67538e-08
-1.59773e-09
3.65529e-09
5.90374e-09
8.68763e-08
2.73891e-09
3.29363e-09
6.62712e-08
1.91301e-09
6.03653e-11
6.41156e-08
6.25106e-09
5.80136e-08
-1.96615e-09
3.55367e-09
7.67176e-08
1.9646e-09
7.4851e-08
2.85146e-09
5.40041e-08
7.33831e-08
-1.36438e-09
-3.57307e-09
1.47578e-09
6.23567e-08
-2.6164e-09
2.82124e-09
5.89573e-08
-3.17057e-10
7.42069e-10
5.11707e-08
-2.87206e-09
3.56008e-08
9.30426e-10
-3.8529e-09
1.41606e-09
6.78097e-08
-4.76744e-09
3.34608e-09
6.39079e-08
-1.76958e-09
6.108e-09
6.01337e-08
-3.31317e-09
4.47877e-08
6.37904e-10
-2.16929e-09
5.95785e-09
7.91024e-08
-3.70095e-09
2.01416e-09
6.91348e-08
-4.42542e-09
7.06681e-09
6.38816e-08
-3.24706e-09
5.3971e-08
-4.48024e-10
-3.54583e-09
7.98105e-08
-3.0175e-09
7.63368e-08
-6.47773e-09
6.45313e-08
6.45607e-08
-9.02068e-10
-2.73052e-09
-5.80657e-10
5.93042e-08
-1.80374e-09
-7.63374e-11
5.58834e-08
-3.34248e-10
-7.63835e-10
4.80819e-08
-2.67801e-09
3.52795e-08
3.33205e-10
-2.86495e-09
-2.0513e-10
6.66847e-08
-2.79213e-09
7.41969e-10
6.30171e-08
-1.08723e-09
1.65915e-09
5.60068e-08
-2.47449e-09
4.32891e-08
2.08448e-10
-2.05971e-09
1.9154e-09
7.52009e-08
-2.63629e-09
6.45698e-10
6.98075e-08
-2.25908e-09
2.64734e-09
6.25167e-08
-1.98436e-09
5.14794e-08
-2.56702e-10
-2.70018e-09
8.0479e-08
-2.35096e-09
7.66333e-08
-3.19445e-09
6.80224e-08
5.9881e-08
-4.98436e-10
-1.95648e-09
-9.70851e-10
5.81437e-08
-1.54166e-09
-9.10199e-10
5.44592e-08
-7.63435e-10
-1.1421e-09
4.64982e-08
-1.97102e-09
3.43255e-08
1.21246e-10
-2.08136e-09
-4.37786e-10
6.60318e-08
-1.94118e-09
-1.98446e-10
6.21654e-08
-1.11942e-09
-1.25477e-10
5.41692e-08
-1.6933e-09
4.18545e-08
3.76853e-11
-1.88442e-09
5.02732e-10
7.39017e-08
-2.03323e-09
1.79306e-10
6.95786e-08
-1.53636e-09
4.80418e-10
6.14144e-08
-1.11717e-09
4.94888e-08
-1.21224e-10
-2.08516e-09
8.08429e-08
-2.04967e-09
7.6777e-08
-1.84387e-09
6.82972e-08
5.71236e-08
-2.03129e-10
-1.24826e-09
-9.36663e-10
5.77137e-08
-1.01211e-09
-9.8498e-10
5.38117e-08
-5.49765e-10
-1.05998e-09
4.57295e-08
-1.36346e-09
3.37297e-08
4.01937e-11
-1.34302e-09
-5.04193e-10
6.56061e-08
-1.18085e-09
-5.24736e-10
6.15431e-08
-6.92252e-10
-5.99925e-10
5.32212e-08
-1.17172e-09
4.09729e-08
-2.03862e-12
-1.33501e-09
-2.46339e-11
7.33934e-08
-1.26513e-09
-1.34208e-10
6.91181e-08
-8.48245e-10
-1.71834e-10
6.05698e-08
-7.32272e-10
4.82575e-08
-5.59342e-11
-1.39774e-09
8.08612e-08
-1.30634e-09
7.65514e-08
-9.49924e-10
6.77691e-08
5.55234e-08
-8.15944e-11
-7.82203e-10
-6.89172e-10
5.75436e-08
-6.44105e-10
-7.43604e-10
5.34994e-08
-3.62469e-10
-7.75876e-10
4.53301e-08
-8.81034e-10
3.33603e-08
1.10828e-11
-8.45761e-10
-4.22833e-10
6.53714e-08
-7.22229e-10
-4.81906e-10
6.11579e-08
-4.19519e-10
-5.4456e-10
5.26875e-08
-7.49736e-10
4.04326e-08
-1.03683e-11
-8.65714e-10
-1.30952e-10
7.31296e-08
-7.67049e-10
-2.03442e-10
6.8741e-08
-4.75537e-10
-2.58873e-10
5.99928e-08
-4.59874e-10
4.75211e-08
-2.85123e-11
-8.84586e-10
8.07713e-08
-7.8471e-10
7.62481e-08
-5.06178e-10
6.72318e-08
5.45947e-08
-3.69717e-11
-4.85246e-10
-4.62592e-10
5.74673e-08
-3.97951e-10
-5.01391e-10
5.33363e-08
-2.22437e-10
-5.16709e-10
4.51085e-08
-5.49183e-10
3.31386e-08
4.86468e-12
-5.23141e-10
-3.09728e-10
6.52385e-08
-4.35128e-10
-3.55656e-10
6.09242e-08
-2.45262e-10
-3.93076e-10
5.23743e-08
-4.65545e-10
4.01093e-08
-5.47774e-12
-5.38696e-10
-1.33104e-10
7.29729e-08
-4.55834e-10
-1.74522e-10
6.8477e-08
-2.65064e-10
-2.10643e-10
5.96198e-08
-2.83082e-10
4.7087e-08
-1.31884e-11
-5.44937e-10
8.06587e-08
-4.6102e-10
7.59897e-08
-2.73046e-10
6.68333e-08
5.40551e-08
-1.63122e-11
-3.00982e-10
-3.01512e-10
5.74263e-08
-2.41901e-10
-3.2514e-10
5.32437e-08
-1.31309e-10
-3.31728e-10
4.49798e-08
-3.38454e-10
3.30064e-08
5.09503e-12
-3.21762e-10
-2.14296e-10
6.51565e-08
-2.59385e-10
-2.43088e-10
6.07799e-08
-1.40256e-10
-2.62428e-10
5.21862e-08
-2.86304e-10
3.99172e-08
-1.56844e-13
-3.30378e-10
-1.04804e-10
7.28685e-08
-2.67992e-10
-1.28123e-10
6.82997e-08
-1.46931e-10
-1.47639e-10
5.93842e-08
-1.73205e-10
4.68314e-08
-4.05945e-12
-3.32112e-10
8.05575e-08
-2.68375e-10
7.57979e-08
-1.4811e-10
6.65655e-08
5.37396e-08
-5.55039e-12
-1.87867e-10
-1.94376e-10
5.74002e-08
-1.46557e-10
-2.07863e-10
5.31873e-08
-7.61449e-11
-2.10152e-10
4.4902e-08
-2.08677e-10
3.29269e-08
5.78917e-12
-1.98727e-10
-1.43914e-10
6.51024e-08
-1.54637e-10
-1.60591e-10
6.06887e-08
-7.94943e-11
-1.69723e-10
5.20709e-08
-1.76149e-10
3.98022e-08
3.13679e-12
-2.02784e-10
-7.51303e-11
7.27958e-08
-1.57783e-10
-8.80655e-11
6.81824e-08
-8.14989e-11
-9.77247e-11
5.92362e-08
-1.06119e-10
4.66794e-08
7.69539e-13
-2.02829e-10
8.04769e-08
-1.56728e-10
7.56639e-08
-8.09716e-11
6.63922e-08
5.35529e-08
-1.80965e-13
-1.18365e-10
-1.25002e-10
5.73819e-08
-8.92308e-11
-1.32492e-10
5.31511e-08
-4.39589e-11
-1.32872e-10
4.48536e-08
-1.29539e-10
3.28783e-08
5.73516e-12
-1.23883e-10
-9.50895e-11
6.50655e-08
-9.28987e-11
-1.04474e-10
6.06299e-08
-4.51233e-11
-1.08467e-10
5.19991e-08
-1.08867e-10
3.97325e-08
4.17986e-12
-1.25541e-10
-5.14426e-11
7.27448e-08
-9.37895e-11
-5.8606e-11
6.8105e-08
-4.55028e-11
-6.31684e-11
5.91429e-08
-6.53161e-11
4.65876e-08
2.98969e-12
-1.25063e-10
8.04171e-08
-9.25892e-11
7.5573e-08
-4.47656e-11
6.62814e-08
5.34406e-08
2.40395e-12
-7.52809e-11
-8.05461e-11
5.73685e-08
-5.47771e-11
-8.46455e-11
5.31271e-08
-2.54387e-11
-8.42805e-11
4.48227e-08
-8.11214e-11
3.28481e-08
5.07538e-12
-7.80187e-11
-6.23616e-11
6.504e-08
-5.63941e-11
-6.75939e-11
6.05915e-08
-2.57746e-11
-6.91654e-11
5.19537e-08
-6.78811e-11
3.96895e-08
4.13844e-12
-7.85524e-11
-3.44418e-11
7.27093e-08
-5.64492e-11
-3.84215e-11
6.8054e-08
-2.56824e-11
-4.0497e-11
5.90837e-08
-4.05473e-11
4.65316e-08
3.38063e-12
-7.80032e-11
8.03744e-08
-5.54872e-11
7.55122e-08
-2.51203e-11
6.62107e-08
5.33722e-08
2.94601e-12
-4.8217e-11
-5.20057e-11
5.73586e-08
-3.39029e-11
-5.42316e-11
5.31109e-08
-1.48049e-11
-5.36586e-11
4.48028e-08
-5.11635e-11
3.28292e-08
4.15208e-12
-4.95442e-11
-4.0729e-11
6.50223e-08
-3.45818e-11
-4.36432e-11
6.05662e-08
-1.48462e-11
-4.41352e-11
5.19247e-08
-4.26258e-11
3.96628e-08
3.56841e-12
-4.96074e-11
-2.27796e-11
7.26847e-08
-3.43873e-11
-2.50022e-11
6.80203e-08
-1.46629e-11
-2.58987e-11
5.90461e-08
-2.53603e-11
4.64968e-08
3.05803e-12
-4.91419e-11
8.03445e-08
-3.37107e-11
7.54719e-08
-1.43077e-11
6.61656e-08
5.333e-08
2.71906e-12
-3.09145e-11
-3.34903e-11
5.73516e-08
-2.10649e-11
-3.47048e-11
5.31001e-08
-8.65167e-12
-3.41596e-11
4.47899e-08
-3.2333e-11
3.28172e-08
3.20256e-12
-3.15524e-11
-2.64286e-11
6.50101e-08
-2.13336e-11
-2.80596e-11
6.05495e-08
-8.60769e-12
-2.81116e-11
5.19061e-08
-2.68214e-11
3.96461e-08
2.8244e-12
-3.14581e-11
-1.4901e-11
7.2668e-08
-2.11149e-11
-1.61507e-11
6.79983e-08
-8.44873e-12
-1.65051e-11
5.90221e-08
-1.59022e-11
4.64752e-08
2.47106e-12
-3.11135e-11
8.03242e-08
-2.06742e-11
7.54455e-08
-8.24929e-12
6.61368e-08
5.33038e-08
2.20873e-12
-1.96261e-11
-2.12798e-11
5.73467e-08
-1.3016e-11
-2.19574e-11
5.3093e-08
-5.04563e-12
-2.15293e-11
4.47817e-08
-2.02591e-11
3.28098e-08
2.33059e-12
-1.99434e-11
-1.68806e-11
6.5002e-08
-1.31213e-11
-1.78002e-11
6.05387e-08
-4.9949e-12
-1.77063e-11
5.18944e-08
-1.67385e-11
3.96357e-08
2.08363e-12
-1.98297e-11
-9.57036e-12
7.2657e-08
-1.2952e-11
-1.02753e-11
6.79841e-08
-4.8869e-12
-1.03925e-11
5.90069e-08
-9.89267e-12
4.64619e-08
1.83825e-12
-1.95991e-11
8.03107e-08
-1.26833e-11
7.54284e-08
-4.78787e-12
6.61187e-08
5.32876e-08
1.6409e-12
-1.21438e-11
-1.30709e-11
5.73436e-08
-7.89047e-12
-1.34541e-11
5.30885e-08
-2.92567e-12
-1.3158e-11
4.47766e-08
-1.23233e-11
3.28052e-08
1.55299e-12
-1.23121e-11
-1.04078e-11
6.49969e-08
-7.93642e-12
-1.09233e-11
6.0532e-08
-2.88938e-12
-1.08085e-11
5.18872e-08
-1.01528e-11
3.96295e-08
1.40124e-12
-1.22269e-11
-5.92527e-12
7.265e-08
-7.82686e-12
-6.31844e-12
6.79753e-08
-2.82665e-12
-6.34021e-12
5.89976e-08
-5.98184e-12
4.64538e-08
1.23878e-12
-1.20873e-11
8.03022e-08
-7.67413e-12
7.54178e-08
-2.78363e-12
6.61076e-08
5.32779e-08
1.09971e-12
-7.26189e-12
-7.49683e-12
5.73417e-08
-4.6966e-12
-7.69334e-12
5.30858e-08
-1.76314e-12
-7.50334e-12
4.47736e-08
-7.00778e-12
3.28025e-08
8.56046e-13
-7.34259e-12
-5.98652e-12
6.49939e-08
-4.71396e-12
-6.25562e-12
6.05281e-08
-1.74123e-12
-6.16132e-12
5.1883e-08
-5.76745e-12
3.96258e-08
7.74971e-13
-7.28534e-12
-3.42184e-12
7.26458e-08
-4.64422e-12
-3.62796e-12
6.79701e-08
-1.70344e-12
-3.61828e-12
5.89923e-08
-3.39533e-12
4.64491e-08
6.80464e-13
-7.20664e-12
8.02972e-08
-4.55998e-12
7.54116e-08
-1.68284e-12
6.61012e-08
5.32722e-08
5.94381e-13
-4.5191e-12
-4.16295e-12
-2.94334e-12
-4.22227e-12
-1.1965e-12
-4.06493e-12
-3.73131e-12
2.82368e-13
-4.52313e-12
-3.34641e-12
-2.911e-12
-3.46848e-12
-1.15398e-12
-3.38117e-12
-3.12496e-12
2.50266e-13
-4.47893e-12
-1.93807e-12
-2.85483e-12
-2.03963e-12
-1.11594e-12
-2.01005e-12
-1.86275e-12
2.07896e-13
-4.4353e-12
-2.80291e-12
-1.09626e-12
1.64705e-13
4.86851e-09
3.49129e-09
4.09438e-08
7.46536e-09
-1.43127e-09
6.04747e-08
-9.93861e-09
-2.22072e-09
9.46803e-08
5.32447e-09
5.86121e-08
-3.52853e-10
-2.79585e-09
5.85208e-08
4.84013e-09
3.5575e-10
5.28473e-08
3.10176e-09
-1.21104e-09
6.69599e-08
-7.79242e-09
9.14283e-08
4.44582e-09
-2.74762e-09
4.00668e-08
2.64158e-09
-2.46665e-09
5.58966e-08
-1.20446e-08
-2.20498e-09
7.48726e-08
1.90422e-09
4.4467e-08
4.47494e-09
2.23598e-08
-5.72121e-10
4.49108e-08
1.61651e-09
4.32353e-08
5.64172e-08
3.26392e-10
-1.47351e-09
4.24054e-08
4.85646e-09
4.18556e-09
5.25381e-08
5.7463e-09
8.13366e-09
9.59484e-08
3.97951e-09
7.4212e-08
3.52976e-09
3.62422e-09
5.38028e-08
2.10253e-09
4.53534e-09
5.39247e-08
-6.58698e-09
6.916e-09
7.68671e-08
7.0229e-09
8.47274e-08
3.76589e-09
1.15088e-09
4.3455e-08
8.66387e-09
7.49916e-10
5.47841e-08
1.12642e-09
-1.29738e-09
9.06235e-08
-1.9188e-09
5.4919e-08
5.08006e-09
2.27631e-08
1.88754e-09
5.02929e-08
3.21877e-09
4.16799e-08
5.80466e-08
-1.69218e-09
1.07788e-09
4.37179e-08
-3.98379e-09
2.65309e-09
5.47563e-08
1.14712e-08
6.75721e-09
6.89942e-08
4.70165e-09
9.00766e-08
-3.94136e-10
7.68779e-09
4.84002e-08
-5.31544e-10
1.48761e-09
5.52276e-08
2.58908e-09
7.32127e-09
7.31825e-08
7.6062e-09
8.51976e-08
-8.64483e-09
-1.47356e-09
7.00501e-08
5.617e-09
2.458e-10
4.17641e-08
1.81677e-08
-1.09919e-09
8.64933e-08
-1.69983e-10
8.17664e-08
-2.75817e-09
2.41578e-08
2.02304e-09
4.4562e-08
9.2639e-09
3.17162e-08
6.46802e-08
1.49743e-09
1.67568e-10
4.84842e-08
-5.35485e-09
-2.41548e-09
6.94281e-08
-3.12064e-09
-2.98296e-09
7.12373e-08
-1.95955e-09
9.21366e-08
-1.98672e-09
6.46901e-10
5.00324e-08
-3.05784e-09
1.06775e-10
5.37765e-08
-3.44417e-09
-2.32085e-09
7.29067e-08
6.73632e-11
8.36248e-08
-2.98962e-09
5.2768e-09
6.55351e-08
-3.85144e-09
2.11839e-09
4.06143e-08
7.65008e-09
5.29137e-09
6.73796e-08
3.96235e-09
8.62717e-08
-5.25688e-09
4.21332e-08
5.39007e-09
3.40869e-08
1.22053e-09
3.9235e-08
6.65966e-08
-3.07287e-09
-2.93621e-09
6.96623e-08
-9.26923e-09
-3.00635e-09
8.53979e-08
-9.26859e-10
-2.26458e-09
7.02869e-08
-7.03043e-09